/*--------------------------------*- C++ -*----------------------------------*\
| =========                 |                                                 |
| \\      /  F ield         | OpenFOAM: The Open Source CFD Toolbox           |
|  \\    /   O peration     | Version:  2412                                  |
|   \\  /    A nd           | Website:  www.openfoam.com                      |
|    \\/     M anipulation  |                                                 |
\*---------------------------------------------------------------------------*/
FoamFile
{
    version     2.0;
    format      ascii;
    arch        "LSB;label=32;scalar=64";
    class       volScalarField;
    location    "10.5";
    object      p;
}
// * * * * * * * * * * * * * * * * * * * * * * * * * * * * * * * * * * * * * //

dimensions      [0 2 -2 0 0 0 0];

internalField   nonuniform List<scalar> 
63420
(
0.0010071
0.0010074
0.00100819
0.00100948
0.00101118
0.0010133
0.00101581
0.00101871
0.00102196
0.00102556
0.00102952
0.00103381
0.00103845
0.00104343
0.00104875
0.00105439
0.00106037
0.00106668
0.00107331
0.00108027
0.00108756
0.00109518
0.00110313
0.0011114
0.00112001
0.00112895
0.00113823
0.00114784
0.0011578
0.0011681
0.00117874
0.00118974
0.00120108
0.00121279
0.00122486
0.00123729
0.00125009
0.00126326
0.00127681
0.00129073
0.00130505
0.00131976
0.00133486
0.00135035
0.00136626
0.00138257
0.0013993
0.00141644
0.00143401
0.00145201
0.00147044
0.00148931
0.00150862
0.00152839
0.00154861
0.00100704
0.00100734
0.00100813
0.00100942
0.00101111
0.00101323
0.00101575
0.00101864
0.00102189
0.00102549
0.00102944
0.00103373
0.00103837
0.00104335
0.00104866
0.0010543
0.00106027
0.00106657
0.0010732
0.00108016
0.00108744
0.00109505
0.00110299
0.00111126
0.00111985
0.00112879
0.00113805
0.00114766
0.0011576
0.00116789
0.00117852
0.0011895
0.00120084
0.00121253
0.00122458
0.00123699
0.00124977
0.00126292
0.00127645
0.00129036
0.00130465
0.00131933
0.0013344
0.00134988
0.00136575
0.00138203
0.00139872
0.00141583
0.00143337
0.00145132
0.00146971
0.00148854
0.00150781
0.00152752
0.00154769
0.00100693
0.00100722
0.00100801
0.00100929
0.00101099
0.0010131
0.00101562
0.0010185
0.00102175
0.00102534
0.00102929
0.00103358
0.00103821
0.00104317
0.00104847
0.00105411
0.00106007
0.00106636
0.00107298
0.00107992
0.00108719
0.00109479
0.00110271
0.00111096
0.00111954
0.00112845
0.0011377
0.00114728
0.00115721
0.00116747
0.00117808
0.00118903
0.00120034
0.001212
0.00122401
0.00123639
0.00124914
0.00126225
0.00127574
0.0012896
0.00130385
0.00131848
0.0013335
0.00134892
0.00136474
0.00138096
0.00139758
0.00141462
0.00143208
0.00144996
0.00146827
0.00148701
0.00150618
0.0015258
0.00154586
0.00100675
0.00100704
0.00100783
0.00100911
0.0010108
0.00101291
0.00101542
0.0010183
0.00102153
0.00102512
0.00102906
0.00103334
0.00103796
0.00104291
0.0010482
0.00105382
0.00105977
0.00106604
0.00107264
0.00107957
0.00108682
0.00109439
0.00110229
0.00111052
0.00111907
0.00112796
0.00113718
0.00114673
0.00115662
0.00116684
0.00117741
0.00118833
0.00119959
0.0012112
0.00122317
0.0012355
0.00124819
0.00126125
0.00127467
0.00128847
0.00130265
0.00131721
0.00133216
0.00134749
0.00136322
0.00137935
0.00139588
0.00141281
0.00143016
0.00144793
0.00146611
0.00148472
0.00150375
0.00152322
0.00154312
0.00100651
0.00100681
0.00100759
0.00100886
0.00101055
0.00101265
0.00101515
0.00101802
0.00102125
0.00102483
0.00102876
0.00103302
0.00103763
0.00104257
0.00104784
0.00105344
0.00105937
0.00106562
0.0010722
0.0010791
0.00108632
0.00109386
0.00110173
0.00110993
0.00111845
0.0011273
0.00113648
0.00114599
0.00115583
0.00116601
0.00117653
0.00118739
0.0011986
0.00121015
0.00122206
0.00123432
0.00124694
0.00125992
0.00127326
0.00128697
0.00130106
0.00131552
0.00133036
0.00134559
0.00136121
0.00137721
0.00139361
0.00141041
0.00142761
0.00144522
0.00146324
0.00148168
0.00150053
0.0015198
0.00153949
0.00100621
0.00100651
0.00100729
0.00100856
0.00101024
0.00101233
0.00101482
0.00101768
0.0010209
0.00102447
0.00102838
0.00103263
0.00103722
0.00104214
0.00104739
0.00105296
0.00105887
0.00106509
0.00107164
0.00107851
0.0010857
0.00109321
0.00110104
0.0011092
0.00111767
0.00112648
0.0011356
0.00114506
0.00115485
0.00116497
0.00117543
0.00118622
0.00119736
0.00120884
0.00122067
0.00123284
0.00124537
0.00125825
0.0012715
0.00128511
0.00129908
0.00131342
0.00132814
0.00134323
0.0013587
0.00137455
0.00139079
0.00140742
0.00142445
0.00144187
0.00145968
0.0014779
0.00149652
0.00151555
0.00153498
0.00100586
0.00100615
0.00100693
0.00100819
0.00100986
0.00101195
0.00101443
0.00101727
0.00102048
0.00102403
0.00102792
0.00103216
0.00103672
0.00104162
0.00104684
0.00105239
0.00105827
0.00106446
0.00107097
0.00107781
0.00108496
0.00109242
0.00110021
0.00110832
0.00111674
0.00112549
0.00113456
0.00114396
0.00115368
0.00116373
0.00117411
0.00118483
0.00119588
0.00120727
0.001219
0.00123108
0.0012435
0.00125627
0.00126939
0.00128287
0.00129671
0.00131091
0.00132548
0.00134041
0.00135571
0.00137138
0.00138743
0.00140386
0.00142067
0.00143786
0.00145544
0.00147341
0.00149176
0.0015105
0.00152963
0.00156935
0.00159083
0.00161323
0.00163662
0.00166106
0.00168661
0.00171333
0.0017413
0.00177059
0.0018013
0.00183352
0.00186734
0.00190288
0.00194025
0.00197958
0.00202102
0.00206472
0.00211086
0.00215962
0.0022112
0.00226584
0.00232379
0.00238534
0.00245078
0.00252046
0.00259476
0.0026741
0.00275894
0.00284979
0.00294721
0.00305184
0.00316435
0.00328552
0.00341617
0.00355721
0.0037096
0.00387434
0.00405243
0.00424477
0.00445201
0.00467434
0.00491115
0.00516061
0.0054193
0.00568245
0.00594475
0.00620076
0.00645586
0.00677983
0.00727057
0.0015684
0.00158988
0.00161228
0.00163569
0.00166012
0.00168566
0.00171237
0.00174033
0.00176962
0.00180033
0.00183254
0.00186635
0.00190187
0.00193923
0.00197855
0.00201997
0.00206365
0.00210976
0.00215849
0.00221003
0.00226461
0.0023225
0.00238396
0.00244931
0.00251886
0.00259301
0.00267215
0.00275675
0.00284728
0.00294431
0.00304844
0.00316032
0.00328069
0.00341032
0.00355004
0.00370073
0.00386328
0.0040385
0.0042271
0.00442944
0.00464532
0.00487365
0.00511195
0.00535601
0.00560009
0.00583782
0.00606318
0.00628065
0.00655561
0.00697898
0.00156652
0.001588
0.0016104
0.00163378
0.00165821
0.00168374
0.00171045
0.0017384
0.00176768
0.00179837
0.00183057
0.00186436
0.00189986
0.0019372
0.00197648
0.00201786
0.0020615
0.00210756
0.00215621
0.00220767
0.00226216
0.00231992
0.00238123
0.00244638
0.00251569
0.00258953
0.00266829
0.00275239
0.00284232
0.00293858
0.00304173
0.00315237
0.00327116
0.00339877
0.0035359
0.00368325
0.00384145
0.00401102
0.0041922
0.00438478
0.00458779
0.00479912
0.00501499
0.00522958
0.00543513
0.00562319
0.00578674
0.00592872
0.00610135
0.00640315
0.00156369
0.00158516
0.00160755
0.00163092
0.00165534
0.00168086
0.00170756
0.00173549
0.00176476
0.00179542
0.00182759
0.00186136
0.00189682
0.00193411
0.00197335
0.00201467
0.00205823
0.0021042
0.00215274
0.00220407
0.0022584
0.00231596
0.00237702
0.00244187
0.0025108
0.00258417
0.00266233
0.00274569
0.00283467
0.00292975
0.00303141
0.00314016
0.00325655
0.00338111
0.00351432
0.00365663
0.00380832
0.00396941
0.0041395
0.00431753
0.00450136
0.00468736
0.00486978
0.00504037
0.00518842
0.00530216
0.00537302
0.00540539
0.00543557
0.00552286
0.00155995
0.00158141
0.00160379
0.00162715
0.00165155
0.00167706
0.00170374
0.00173167
0.00176091
0.00179156
0.0018237
0.00185743
0.00189286
0.0019301
0.00196928
0.00201053
0.00205401
0.00209987
0.00214829
0.00219946
0.00225358
0.0023109
0.00237166
0.00243611
0.00250456
0.0025773
0.00265469
0.00273706
0.00282481
0.00291831
0.00301798
0.00312422
0.00323739
0.00335784
0.00348578
0.00362129
0.00376416
0.00391376
0.00406883
0.00422713
0.00438501
0.0045368
0.00467423
0.00478589
0.00485735
0.00487251
0.0048197
0.00470662
0.00455864
0.00431516
0.00155529
0.00157675
0.00159914
0.00162251
0.00164693
0.00167246
0.00169916
0.00172711
0.00175638
0.00178705
0.00181922
0.00185297
0.00188842
0.00192569
0.00196488
0.00200615
0.00204964
0.00209551
0.00214394
0.00219509
0.00224919
0.00230645
0.00236711
0.00243141
0.00249962
0.00257203
0.00264893
0.00273064
0.00281749
0.00290978
0.00300783
0.00311191
0.0032222
0.00333881
0.00346161
0.00359019
0.00372366
0.00386045
0.00399793
0.00413199
0.00425645
0.00436234
0.00443716
0.0044645
0.00442425
0.00429456
0.00405879
0.00372558
0.00331268
0.00262238
0.00154972
0.00157111
0.00159344
0.00161675
0.00164112
0.0016666
0.00169325
0.00172114
0.00175036
0.00178098
0.00181309
0.00184678
0.00188217
0.00191936
0.00195848
0.00199966
0.00204307
0.00208885
0.00213716
0.0021882
0.00224216
0.00229925
0.0023597
0.00242373
0.0024916
0.00256356
0.00263989
0.00272085
0.00280672
0.00289774
0.00299412
0.00309601
0.00320343
0.00331623
0.00343392
0.0035556
0.0036796
0.00380323
0.0039222
0.00402997
0.00411689
0.00416925
0.0041685
0.00409107
0.00390928
0.00359307
0.00312169
0.00250918
0.00172195
0.000452233
-0.0032955
-0.00333488
-0.00330324
-0.00321399
-0.00308418
-0.00291698
-0.0027169
-0.00249585
-0.0022594
-0.00201553
-0.00177162
-0.00153405
-0.00130812
-0.00109784
-0.000906026
-0.000734303
-0.000583297
-0.00045279
-0.000341913
-0.000249341
-0.000173427
-0.000112286
-6.39904e-05
-2.67964e-05
8.91545e-07
2.07112e-05
3.42387e-05
4.2744e-05
4.72668e-05
4.87109e-05
4.78348e-05
4.52577e-05
4.14774e-05
3.6889e-05
3.18011e-05
2.64509e-05
2.10171e-05
1.56318e-05
1.03898e-05
5.35686e-06
5.76511e-07
-3.9248e-06
-8.13334e-06
-1.20447e-05
-1.56613e-05
-1.89901e-05
-2.20414e-05
-2.48275e-05
-2.73622e-05
-2.96593e-05
-0.00340329
-0.00341526
-0.00336695
-0.00326808
-0.00313333
-0.00296212
-0.00276116
-0.00253835
-0.00230059
-0.00205547
-0.00181016
-0.00157096
-0.00134316
-0.00113082
-0.000936792
-0.000762771
-0.000609439
-0.000476632
-0.000363525
-0.000268826
-0.000190911
-0.000127917
-7.79059e-05
-3.91359e-05
-1.00306e-05
1.10605e-05
2.57222e-05
3.52392e-05
4.06606e-05
4.28992e-05
4.27234e-05
4.07622e-05
3.75226e-05
3.34081e-05
2.87353e-05
2.37484e-05
1.86325e-05
1.35252e-05
8.52651e-06
3.70663e-06
-8.87015e-07
-5.2245e-06
-9.28906e-06
-1.30737e-05
-1.65784e-05
-1.98083e-05
-2.2772e-05
-2.54802e-05
-2.79456e-05
-3.01801e-05
-0.00362145
-0.00357171
-0.0034934
-0.00338002
-0.00322979
-0.00304983
-0.00284548
-0.00261987
-0.00237985
-0.00213252
-0.00188468
-0.0016425
-0.00141125
-0.00119505
-0.000996846
-0.000818449
-0.000660662
-0.000523424
-0.000406002
-0.000307171
-0.000225363
-0.000158738
-0.00010539
-6.35341e-05
-3.16067e-05
-8.01459e-06
8.87828e-06
2.03906e-05
2.75879e-05
3.13978e-05
3.26076e-05
3.18654e-05
2.96962e-05
2.65205e-05
2.26699e-05
1.84025e-05
1.39161e-05
9.35939e-06
4.84236e-06
4.44131e-07
-3.7801e-06
-7.79356e-06
-1.15735e-05
-1.51076e-05
-1.83914e-05
-2.14261e-05
-2.42168e-05
-2.67713e-05
-2.90999e-05
-3.12111e-05
-0.00395258
-0.00379671
-0.00367421
-0.00353032
-0.00336538
-0.00317657
-0.00296547
-0.00273563
-0.00249246
-0.00224208
-0.00199079
-0.00174455
-0.00150856
-0.001287
-0.00108296
-0.000898412
-0.00073433
-0.000590807
-0.00046724
-0.000362507
-0.000275122
-0.000203313
-0.000145149
-9.88759e-05
-6.29055e-05
-3.56558e-05
-1.55412e-05
-1.14724e-06
8.61814e-06
1.47022e-05
1.79179e-05
1.89411e-05
1.83228e-05
1.65073e-05
1.38484e-05
1.06242e-05
7.05047e-06
3.29221e-06
-5.26235e-07
-4.31292e-06
-8.00132e-06
-1.15447e-05
-1.49117e-05
-1.80823e-05
-2.10456e-05
-2.37969e-05
-2.63364e-05
-2.8668e-05
-3.07978e-05
-3.27296e-05
-0.00435734
-0.00408117
-0.00389963
-0.00372766
-0.00353634
-0.00333162
-0.00311109
-0.00287545
-0.00262823
-0.00237433
-0.00211932
-0.00186874
-0.00162764
-0.0014002
-0.00118963
-0.000998067
-0.000826681
-0.000675751
-0.000544843
-0.000432974
-0.000338766
-0.000260542
-0.000196436
-0.000144612
-0.000103523
-7.16491e-05
-4.73725e-05
-2.92671e-05
-1.61813e-05
-7.14624e-06
-1.31874e-06
2.00953e-06
3.42086e-06
3.38867e-06
2.29402e-06
4.40158e-07
-1.93422e-06
-4.64327e-06
-7.54397e-06
-1.05276e-05
-1.35129e-05
-1.64399e-05
-1.92658e-05
-2.19606e-05
-2.45044e-05
-2.68854e-05
-2.9097e-05
-3.11376e-05
-3.30083e-05
-3.47068e-05
-0.00478367
-0.00442339
-0.00419182
-0.00395016
-0.00372208
-0.00349538
-0.00326155
-0.00301873
-0.00276811
-0.00251272
-0.00225674
-0.00200482
-0.00176146
-0.00153062
-0.00131546
-0.00111824
-0.000940319
-0.000782215
-0.000643732
-0.000524107
-0.000422167
-0.000336408
-0.000265087
-0.000206433
-0.000158856
-0.000120934
-9.11555e-05
-6.80494e-05
-5.04393e-05
-3.73394e-05
-2.78805e-05
-2.13229e-05
-1.7052e-05
-1.45616e-05
-1.34386e-05
-1.33486e-05
-1.40232e-05
-1.52487e-05
-1.68562e-05
-1.87135e-05
-2.07178e-05
-2.27901e-05
-2.48705e-05
-2.69141e-05
-2.88882e-05
-3.07694e-05
-3.2542e-05
-3.4196e-05
-3.57252e-05
-3.71216e-05
-0.00519074
-0.00486305
-0.00454514
-0.00424366
-0.00397151
-0.00371359
-0.00345921
-0.0032037
-0.00294554
-0.00268553
-0.00242615
-0.00217087
-0.00192345
-0.0016875
-0.00146606
-0.00126148
-0.00107531
-0.00090831
-0.000760544
-0.000631489
-0.000520189
-0.000425352
-0.000345378
-0.000278534
-0.000223287
-0.000178226
-0.000141892
-0.00011287
-8.99277e-05
-7.20497e-05
-5.83334e-05
-4.80012e-05
-4.03984e-05
-3.49787e-05
-3.12894e-05
-2.89581e-05
-2.768e-05
-2.72078e-05
-2.73413e-05
-2.79199e-05
-2.88151e-05
-2.99253e-05
-3.11703e-05
-3.24878e-05
-3.38296e-05
-3.51593e-05
-3.64499e-05
-3.76821e-05
-3.88418e-05
-3.99184e-05
-3.17371e-05
-3.36412e-05
-3.53813e-05
-3.69565e-05
-3.83719e-05
-3.96329e-05
-4.07446e-05
-4.17126e-05
-4.25429e-05
-4.32415e-05
-4.38146e-05
-4.4268e-05
-4.46077e-05
-4.48389e-05
-4.49666e-05
-4.49955e-05
-4.49295e-05
-4.47728e-05
-4.45291e-05
-4.42024e-05
-4.3797e-05
-4.33174e-05
-4.27687e-05
-4.21558e-05
-4.14843e-05
-4.07596e-05
-3.99869e-05
-3.91716e-05
-3.83186e-05
-3.74326e-05
-3.65181e-05
-3.55791e-05
-3.46196e-05
-3.36432e-05
-3.26532e-05
-3.16529e-05
-3.06453e-05
-2.96334e-05
-2.86197e-05
-2.76069e-05
-2.65972e-05
-2.55934e-05
-2.45963e-05
-2.36111e-05
-2.26357e-05
-2.16714e-05
-2.07252e-05
-1.97948e-05
-1.88815e-05
-1.79871e-05
-1.71127e-05
-1.62592e-05
-1.54276e-05
-1.46186e-05
-1.38329e-05
-1.3071e-05
-1.23333e-05
-1.16203e-05
-1.09322e-05
-1.02692e-05
-9.63134e-06
-9.01871e-06
-8.43122e-06
-7.86874e-06
-7.3311e-06
-6.818e-06
-6.32914e-06
-5.86415e-06
-5.42255e-06
-5.00387e-06
-4.60761e-06
-4.23316e-06
-3.87995e-06
-3.54735e-06
-3.23471e-06
-2.94132e-06
-2.66655e-06
-2.40962e-06
-2.16985e-06
-1.94649e-06
-1.73879e-06
-1.54605e-06
-1.36744e-06
-1.20229e-06
-1.0498e-06
-9.09285e-07
-7.79951e-07
-6.61292e-07
-5.52164e-07
-4.52955e-07
-3.6057e-07
-2.79851e-07
-1.97835e-07
-1.40755e-07
-5.12591e-08
-4.4977e-08
1.08682e-07
-2.87861e-08
3.50159e-07
-1.78078e-07
7.94279e-07
-6.18186e-07
1.55426e-06
-1.37445e-06
2.50391e-06
-2.0674e-06
2.97558e-06
-1.76281e-06
1.95069e-06
3.40605e-07
-7.58063e-07
3.48419e-06
-3.36721e-06
5.13477e-06
-3.2451e-06
-3.2195e-05
-3.40572e-05
-3.57603e-05
-3.73001e-05
-3.86827e-05
-3.99139e-05
-4.09984e-05
-4.19416e-05
-4.27492e-05
-4.34271e-05
-4.39812e-05
-4.44173e-05
-4.4741e-05
-4.49576e-05
-4.50719e-05
-4.50884e-05
-4.50112e-05
-4.48442e-05
-4.45913e-05
-4.42563e-05
-4.38435e-05
-4.33574e-05
-4.28028e-05
-4.21849e-05
-4.1509e-05
-4.07803e-05
-4.00043e-05
-3.9186e-05
-3.83303e-05
-3.7442e-05
-3.65254e-05
-3.55846e-05
-3.46234e-05
-3.36456e-05
-3.26543e-05
-3.16529e-05
-3.06444e-05
-2.96316e-05
-2.86173e-05
-2.76039e-05
-2.65937e-05
-2.55895e-05
-2.45922e-05
-2.36067e-05
-2.26311e-05
-2.16666e-05
-2.07204e-05
-1.97899e-05
-1.88766e-05
-1.79822e-05
-1.71079e-05
-1.62545e-05
-1.5423e-05
-1.46141e-05
-1.38285e-05
-1.30667e-05
-1.23292e-05
-1.16164e-05
-1.09285e-05
-1.02656e-05
-9.62793e-06
-9.01547e-06
-8.42815e-06
-7.86584e-06
-7.32836e-06
-6.81542e-06
-6.32672e-06
-5.86188e-06
-5.42043e-06
-5.0019e-06
-4.60576e-06
-4.23145e-06
-3.87836e-06
-3.54588e-06
-3.23335e-06
-2.94007e-06
-2.6654e-06
-2.40856e-06
-2.16889e-06
-1.94562e-06
-1.73799e-06
-1.54532e-06
-1.36677e-06
-1.20168e-06
-1.04926e-06
-9.08796e-07
-7.79512e-07
-6.60899e-07
-5.51816e-07
-4.5264e-07
-3.60296e-07
-2.79603e-07
-1.97622e-07
-1.40562e-07
-5.11076e-08
-4.48136e-08
1.08766e-07
-2.86215e-08
3.5015e-07
-1.77869e-07
7.94138e-07
-6.17905e-07
1.55405e-06
-1.37423e-06
2.5038e-06
-2.06738e-06
2.97573e-06
-1.76312e-06
1.9511e-06
3.40173e-07
-7.5771e-07
3.48397e-06
-3.36722e-06
5.13481e-06
-3.24702e-06
-3.31051e-05
-3.4884e-05
-3.65134e-05
-3.79825e-05
-3.93002e-05
-4.04722e-05
-4.15028e-05
-4.23967e-05
-4.31593e-05
-4.3796e-05
-4.43124e-05
-4.4714e-05
-4.5006e-05
-4.51935e-05
-4.52811e-05
-4.52732e-05
-4.51737e-05
-4.49864e-05
-4.47151e-05
-4.43637e-05
-4.39362e-05
-4.3437e-05
-4.2871e-05
-4.22429e-05
-4.15581e-05
-4.08217e-05
-4.00389e-05
-3.92145e-05
-3.83536e-05
-3.74606e-05
-3.65398e-05
-3.55954e-05
-3.4631e-05
-3.36503e-05
-3.26566e-05
-3.1653e-05
-3.06426e-05
-2.96282e-05
-2.86124e-05
-2.75979e-05
-2.65868e-05
-2.55817e-05
-2.45838e-05
-2.35978e-05
-2.26218e-05
-2.16571e-05
-2.07107e-05
-1.97801e-05
-1.88668e-05
-1.79725e-05
-1.70983e-05
-1.62451e-05
-1.54138e-05
-1.46051e-05
-1.38198e-05
-1.30583e-05
-1.23211e-05
-1.16086e-05
-1.0921e-05
-1.02584e-05
-9.62112e-06
-9.009e-06
-8.42202e-06
-7.86004e-06
-7.32289e-06
-6.81028e-06
-6.32189e-06
-5.85735e-06
-5.41619e-06
-4.99794e-06
-4.60208e-06
-4.22803e-06
-3.87519e-06
-3.54294e-06
-3.23064e-06
-2.93758e-06
-2.6631e-06
-2.40646e-06
-2.16696e-06
-1.94386e-06
-1.73639e-06
-1.54386e-06
-1.36546e-06
-1.20048e-06
-1.04818e-06
-9.07819e-07
-7.78642e-07
-6.60116e-07
-5.5112e-07
-4.52021e-07
-3.59743e-07
-2.79114e-07
-1.972e-07
-1.40178e-07
-5.08118e-08
-4.4487e-08
1.08926e-07
-2.82806e-08
3.50116e-07
-1.77447e-07
7.93868e-07
-6.17372e-07
1.55364e-06
-1.37376e-06
2.50354e-06
-2.06735e-06
2.97604e-06
-1.76374e-06
1.95193e-06
3.39308e-07
-7.56964e-07
3.48357e-06
-3.36719e-06
5.13487e-06
-3.25073e-06
-3.44544e-05
-3.61105e-05
-3.76296e-05
-3.89941e-05
-4.02157e-05
-4.13002e-05
-4.2251e-05
-4.30719e-05
-4.37678e-05
-4.43435e-05
-4.4804e-05
-4.51544e-05
-4.53994e-05
-4.55438e-05
-4.55918e-05
-4.55477e-05
-4.54152e-05
-4.51978e-05
-4.48993e-05
-4.45235e-05
-4.40741e-05
-4.35556e-05
-4.29725e-05
-4.23294e-05
-4.16314e-05
-4.08834e-05
-4.00904e-05
-3.92571e-05
-3.83883e-05
-3.74883e-05
-3.65613e-05
-3.56114e-05
-3.46422e-05
-3.36572e-05
-3.26598e-05
-3.1653e-05
-3.06398e-05
-2.9623e-05
-2.86051e-05
-2.75888e-05
-2.65763e-05
-2.557e-05
-2.45711e-05
-2.35844e-05
-2.26078e-05
-2.16428e-05
-2.06961e-05
-1.97654e-05
-1.88521e-05
-1.79579e-05
-1.70838e-05
-1.62309e-05
-1.53999e-05
-1.45916e-05
-1.38067e-05
-1.30456e-05
-1.23089e-05
-1.15968e-05
-1.09097e-05
-1.02477e-05
-9.6109e-06
-8.99929e-06
-8.41282e-06
-7.85135e-06
-7.31469e-06
-6.80256e-06
-6.31464e-06
-5.85055e-06
-5.40984e-06
-4.99201e-06
-4.59656e-06
-4.2229e-06
-3.87043e-06
-3.53855e-06
-3.22658e-06
-2.93384e-06
-2.65967e-06
-2.40332e-06
-2.16408e-06
-1.94122e-06
-1.734e-06
-1.54167e-06
-1.36348e-06
-1.19869e-06
-1.04656e-06
-9.06359e-07
-7.77337e-07
-6.58944e-07
-5.50079e-07
-4.51091e-07
-3.58918e-07
-2.78381e-07
-1.96571e-07
-1.39598e-07
-5.0371e-08
-4.39953e-08
1.0916e-07
-2.77728e-08
3.50065e-07
-1.76819e-07
7.93475e-07
-6.16589e-07
1.55304e-06
-1.37309e-06
2.5032e-06
-2.06735e-06
2.97654e-06
-1.76472e-06
1.95321e-06
3.37999e-07
-7.55864e-07
3.48301e-06
-3.36717e-06
5.13498e-06
-3.2561e-06
-3.62245e-05
-3.77206e-05
-3.90937e-05
-4.0321e-05
-4.1417e-05
-4.23871e-05
-4.32332e-05
-4.39586e-05
-4.4567e-05
-4.50628e-05
-4.54501e-05
-4.57332e-05
-4.59166e-05
-4.60044e-05
-4.60006e-05
-4.5909e-05
-4.57331e-05
-4.54763e-05
-4.51422e-05
-4.47342e-05
-4.42562e-05
-4.37123e-05
-4.31066e-05
-4.24438e-05
-4.17284e-05
-4.09651e-05
-4.01586e-05
-3.93134e-05
-3.84341e-05
-3.75248e-05
-3.65896e-05
-3.56325e-05
-3.46569e-05
-3.36663e-05
-3.26639e-05
-3.16528e-05
-3.06359e-05
-2.96158e-05
-2.85953e-05
-2.75766e-05
-2.65622e-05
-2.55544e-05
-2.45542e-05
-2.35665e-05
-2.25892e-05
-2.16237e-05
-2.06767e-05
-1.97458e-05
-1.88325e-05
-1.79384e-05
-1.70646e-05
-1.6212e-05
-1.53814e-05
-1.45736e-05
-1.37892e-05
-1.30287e-05
-1.22926e-05
-1.15812e-05
-1.08947e-05
-1.02334e-05
-9.59728e-06
-8.98635e-06
-8.40055e-06
-7.83976e-06
-7.30375e-06
-6.79227e-06
-6.30498e-06
-5.8415e-06
-5.40137e-06
-4.98411e-06
-4.5892e-06
-4.21606e-06
-3.8641e-06
-3.53269e-06
-3.22117e-06
-2.92886e-06
-2.65509e-06
-2.39912e-06
-2.16024e-06
-1.93772e-06
-1.7308e-06
-1.53876e-06
-1.36084e-06
-1.1963e-06
-1.0444e-06
-9.04416e-07
-7.75596e-07
-6.57383e-07
-5.48691e-07
-4.49852e-07
-3.57823e-07
-2.77404e-07
-1.95735e-07
-1.38826e-07
-4.97831e-08
-4.33418e-08
1.09475e-07
-2.71081e-08
3.50014e-07
-1.76012e-07
7.93e-07
-6.1562e-07
1.55234e-06
-1.37233e-06
2.50292e-06
-2.06755e-06
2.9774e-06
-1.76618e-06
1.95502e-06
3.36227e-07
-7.54469e-07
3.48242e-06
-3.36733e-06
5.13532e-06
-3.263e-06
-3.83938e-05
-3.96931e-05
-4.08855e-05
-4.19455e-05
-4.28885e-05
-4.3719e-05
-4.44374e-05
-4.50459e-05
-4.55476e-05
-4.59454e-05
-4.6243e-05
-4.6444e-05
-4.65519e-05
-4.65704e-05
-4.6503e-05
-4.63532e-05
-4.61242e-05
-4.58192e-05
-4.54413e-05
-4.49941e-05
-4.4481e-05
-4.39058e-05
-4.32725e-05
-4.25852e-05
-4.18483e-05
-4.1066e-05
-4.02428e-05
-3.93829e-05
-3.84906e-05
-3.75698e-05
-3.66245e-05
-3.56583e-05
-3.46747e-05
-3.36771e-05
-3.26686e-05
-3.16522e-05
-3.06306e-05
-2.96066e-05
-2.85827e-05
-2.75612e-05
-2.65444e-05
-2.55347e-05
-2.4533e-05
-2.3544e-05
-2.25658e-05
-2.15997e-05
-2.06523e-05
-1.97213e-05
-1.88079e-05
-1.7914e-05
-1.70405e-05
-1.61883e-05
-1.53583e-05
-1.45511e-05
-1.37673e-05
-1.30076e-05
-1.22722e-05
-1.15616e-05
-1.0876e-05
-1.02155e-05
-9.58025e-06
-8.97018e-06
-8.38523e-06
-7.82527e-06
-7.29009e-06
-6.77942e-06
-6.29291e-06
-5.83019e-06
-5.3908e-06
-4.97425e-06
-4.58001e-06
-4.20752e-06
-3.85619e-06
-3.52537e-06
-3.21441e-06
-2.92264e-06
-2.64937e-06
-2.39388e-06
-2.15544e-06
-1.93333e-06
-1.72681e-06
-1.53513e-06
-1.35755e-06
-1.19331e-06
-1.04171e-06
-9.01991e-07
-7.73422e-07
-6.55435e-07
-5.46956e-07
-4.48304e-07
-3.56456e-07
-2.76184e-07
-1.94693e-07
-1.3786e-07
-4.90495e-08
-4.25243e-08
1.09865e-07
-2.6277e-08
3.49946e-07
-1.74998e-07
7.92398e-07
-6.14397e-07
1.55146e-06
-1.37137e-06
2.50254e-06
-2.06776e-06
2.97845e-06
-1.76799e-06
1.95727e-06
3.34021e-07
-7.52716e-07
3.48163e-06
-3.36742e-06
5.13561e-06
-3.27079e-06
-4.09313e-05
-4.2001e-05
-4.29808e-05
-4.38463e-05
-4.46121e-05
-4.52801e-05
-4.58496e-05
-4.63217e-05
-4.66985e-05
-4.69819e-05
-4.71745e-05
-4.72791e-05
-4.72986e-05
-4.7236e-05
-4.70942e-05
-4.68763e-05
-4.65851e-05
-4.62235e-05
-4.57946e-05
-4.53013e-05
-4.47469e-05
-4.4135e-05
-4.3469e-05
-4.27529e-05
-4.19905e-05
-4.11858e-05
-4.03427e-05
-3.94653e-05
-3.85574e-05
-3.76229e-05
-3.66654e-05
-3.56885e-05
-3.46955e-05
-3.36896e-05
-3.26738e-05
-3.16511e-05
-3.0624e-05
-2.95953e-05
-2.85673e-05
-2.75425e-05
-2.65229e-05
-2.55108e-05
-2.45073e-05
-2.35168e-05
-2.25377e-05
-2.15708e-05
-2.06229e-05
-1.96917e-05
-1.87784e-05
-1.78847e-05
-1.70116e-05
-1.61599e-05
-1.53305e-05
-1.4524e-05
-1.37411e-05
-1.29822e-05
-1.22478e-05
-1.15382e-05
-1.08536e-05
-1.01941e-05
-9.55983e-06
-8.95078e-06
-8.36685e-06
-7.8079e-06
-7.27371e-06
-6.764e-06
-6.27844e-06
-5.81662e-06
-5.37811e-06
-4.96242e-06
-4.569e-06
-4.19729e-06
-3.8467e-06
-3.51659e-06
-3.20631e-06
-2.91518e-06
-2.64251e-06
-2.38759e-06
-2.14969e-06
-1.92808e-06
-1.72203e-06
-1.53078e-06
-1.3536e-06
-1.18974e-06
-1.03848e-06
-8.99084e-07
-7.70814e-07
-6.531e-07
-5.44875e-07
-4.46448e-07
-3.5482e-07
-2.7472e-07
-1.93448e-07
-1.36694e-07
-4.81887e-08
-4.15083e-08
1.10265e-07
-2.51647e-08
3.49663e-07
-1.73455e-07
7.9117e-07
-6.12186e-07
1.54935e-06
-1.36886e-06
2.50043e-06
-2.06617e-06
2.97786e-06
-1.76858e-06
1.95894e-06
3.3156e-07
-7.49817e-07
3.47896e-06
-3.36508e-06
5.13333e-06
-3.27676e-06
-4.38915e-05
-4.46876e-05
-4.54118e-05
-4.6054e-05
-4.66158e-05
-4.70963e-05
-4.74937e-05
-4.78081e-05
-4.80401e-05
-4.81907e-05
-4.82615e-05
-4.82542e-05
-4.81709e-05
-4.80139e-05
-4.77857e-05
-4.74886e-05
-4.71252e-05
-4.66979e-05
-4.62094e-05
-4.56625e-05
-4.506e-05
-4.44051e-05
-4.37009e-05
-4.29509e-05
-4.21584e-05
-4.13271e-05
-4.04605e-05
-3.95623e-05
-3.86361e-05
-3.76853e-05
-3.67134e-05
-3.57238e-05
-3.47196e-05
-3.37038e-05
-3.26794e-05
-3.16492e-05
-3.06156e-05
-2.95813e-05
-2.85487e-05
-2.75198e-05
-2.64969e-05
-2.54821e-05
-2.44765e-05
-2.34843e-05
-2.25039e-05
-2.15363e-05
-2.05878e-05
-1.96564e-05
-1.87431e-05
-1.78497e-05
-1.6977e-05
-1.61259e-05
-1.52973e-05
-1.44917e-05
-1.37098e-05
-1.29519e-05
-1.22186e-05
-1.15102e-05
-1.08267e-05
-1.01685e-05
-9.53544e-06
-8.92761e-06
-8.3449e-06
-7.78715e-06
-7.25415e-06
-6.74559e-06
-6.26115e-06
-5.80043e-06
-5.36297e-06
-4.94829e-06
-4.55585e-06
-4.18507e-06
-3.83538e-06
-3.50612e-06
-3.19664e-06
-2.90628e-06
-2.63433e-06
-2.38008e-06
-2.14282e-06
-1.92181e-06
-1.71631e-06
-1.52558e-06
-1.34889e-06
-1.18547e-06
-1.03463e-06
-8.95615e-07
-7.67702e-07
-6.50312e-07
-5.42392e-07
-4.44233e-07
-3.52869e-07
-2.7297e-07
-1.91971e-07
-1.35286e-07
-4.71926e-08
-4.02347e-08
1.10628e-07
-2.36359e-08
3.48977e-07
-1.71044e-07
7.88813e-07
-6.08223e-07
1.54498e-06
-1.36342e-06
2.49493e-06
-2.06094e-06
2.9738e-06
-1.76641e-06
1.95912e-06
3.28908e-07
-7.44852e-07
3.47258e-06
-3.35783e-06
5.12583e-06
-3.2784e-06
-4.72341e-05
-4.77273e-05
-4.81732e-05
-4.85634e-05
-4.88952e-05
-4.9164e-05
-4.93668e-05
-4.95024e-05
-4.95703e-05
-4.95702e-05
-4.95024e-05
-4.93679e-05
-4.91677e-05
-4.89034e-05
-4.85768e-05
-4.81896e-05
-4.77439e-05
-4.72418e-05
-4.66855e-05
-4.60774e-05
-4.542e-05
-4.47159e-05
-4.39678e-05
-4.31788e-05
-4.23518e-05
-4.14898e-05
-4.05961e-05
-3.96738e-05
-3.87262e-05
-3.77566e-05
-3.6768e-05
-3.57636e-05
-3.47464e-05
-3.37192e-05
-3.26849e-05
-3.16459e-05
-3.06049e-05
-2.95642e-05
-2.8526e-05
-2.74926e-05
-2.64658e-05
-2.54479e-05
-2.44398e-05
-2.34457e-05
-2.24639e-05
-2.14954e-05
-2.05463e-05
-1.96146e-05
-1.87014e-05
-1.78083e-05
-1.69362e-05
-1.60859e-05
-1.52582e-05
-1.44536e-05
-1.36728e-05
-1.29163e-05
-1.21843e-05
-1.14772e-05
-1.07952e-05
-1.01383e-05
-9.50675e-06
-8.90036e-06
-8.31909e-06
-7.76276e-06
-7.23114e-06
-6.72395e-06
-6.24083e-06
-5.78139e-06
-5.34518e-06
-4.93169e-06
-4.54039e-06
-4.17072e-06
-3.82207e-06
-3.4938e-06
-3.18528e-06
-2.89581e-06
-2.62471e-06
-2.37126e-06
-2.13475e-06
-1.91444e-06
-1.70959e-06
-1.51947e-06
-1.34334e-06
-1.18045e-06
-1.0301e-06
-8.91538e-07
-7.64044e-07
-6.47037e-07
-5.39472e-07
-4.41631e-07
-3.50573e-07
-2.70921e-07
-1.9022e-07
-1.33662e-07
-4.59622e-08
-3.88495e-08
1.11253e-07
-2.21852e-08
3.48739e-07
-1.69108e-07
7.87395e-07
-6.05498e-07
1.54245e-06
-1.36032e-06
2.49236e-06
-2.05899e-06
2.97311e-06
-1.76724e-06
1.9614e-06
3.25491e-07
-7.40669e-07
3.46848e-06
-3.35377e-06
5.12173e-06
-3.28362e-06
-5.08434e-05
-5.10205e-05
-5.11732e-05
-5.12942e-05
-5.13782e-05
-5.14185e-05
-5.14108e-05
-5.13528e-05
-5.12426e-05
-5.10787e-05
-5.08603e-05
-5.05872e-05
-5.02598e-05
-4.98786e-05
-4.94447e-05
-4.89593e-05
-4.8424e-05
-4.78402e-05
-4.72099e-05
-4.65349e-05
-4.58172e-05
-4.50591e-05
-4.42628e-05
-4.34308e-05
-4.25655e-05
-4.16696e-05
-4.07457e-05
-3.97966e-05
-3.88253e-05
-3.78346e-05
-3.68275e-05
-3.58067e-05
-3.4775e-05
-3.37351e-05
-3.26897e-05
-3.16411e-05
-3.05917e-05
-2.95438e-05
-2.84996e-05
-2.74611e-05
-2.64301e-05
-2.54088e-05
-2.4398e-05
-2.34017e-05
-2.24184e-05
-2.14488e-05
-2.04991e-05
-1.95673e-05
-1.86542e-05
-1.77615e-05
-1.689e-05
-1.60406e-05
-1.52139e-05
-1.44106e-05
-1.36311e-05
-1.2876e-05
-1.21455e-05
-1.14399e-05
-1.07595e-05
-1.01043e-05
-9.47433e-06
-8.86958e-06
-8.28993e-06
-7.7352e-06
-7.20515e-06
-6.6995e-06
-6.21788e-06
-5.75989e-06
-5.32507e-06
-4.91293e-06
-4.52294e-06
-4.1545e-06
-3.80704e-06
-3.4799e-06
-3.17245e-06
-2.884e-06
-2.61385e-06
-2.3613e-06
-2.12563e-06
-1.90611e-06
-1.70201e-06
-1.51257e-06
-1.33709e-06
-1.17479e-06
-1.02499e-06
-8.86937e-07
-7.59914e-07
-6.4334e-07
-5.36176e-07
-4.38695e-07
-3.47981e-07
-2.68613e-07
-1.88235e-07
-1.31847e-07
-4.4539e-08
-3.73482e-08
1.12068e-07
-2.07322e-08
3.48767e-07
-1.67378e-07
7.86457e-07
-6.03339e-07
1.54079e-06
-1.3583e-06
2.49112e-06
-2.05853e-06
2.97395e-06
-1.76948e-06
1.96476e-06
3.21501e-07
-7.36474e-07
3.46494e-06
-3.3505e-06
5.11844e-06
-3.28954e-06
-5.46834e-05
-5.45319e-05
-5.43784e-05
-5.42158e-05
-5.40376e-05
-5.38358e-05
-5.36046e-05
-5.33406e-05
-5.30404e-05
-5.27015e-05
-5.23221e-05
-5.19008e-05
-5.1437e-05
-5.09305e-05
-5.03817e-05
-4.97911e-05
-4.91595e-05
-4.84882e-05
-4.77783e-05
-4.70312e-05
-4.62487e-05
-4.54322e-05
-4.45837e-05
-4.37049e-05
-4.27979e-05
-4.18649e-05
-4.0908e-05
-3.99297e-05
-3.89323e-05
-3.79186e-05
-3.68911e-05
-3.58522e-05
-3.48047e-05
-3.37509e-05
-3.26933e-05
-3.16342e-05
-3.05757e-05
-2.95201e-05
-2.84692e-05
-2.74252e-05
-2.63896e-05
-2.53646e-05
-2.43508e-05
-2.33522e-05
-2.23672e-05
-2.13967e-05
-2.04463e-05
-1.95142e-05
-1.86013e-05
-1.77091e-05
-1.68384e-05
-1.599e-05
-1.51645e-05
-1.43625e-05
-1.35845e-05
-1.2831e-05
-1.21022e-05
-1.13984e-05
-1.07197e-05
-1.00663e-05
-9.43818e-06
-8.83526e-06
-8.25742e-06
-7.70448e-06
-7.17619e-06
-6.67225e-06
-6.1923e-06
-5.73593e-06
-5.30268e-06
-4.89204e-06
-4.50349e-06
-4.13644e-06
-3.7903e-06
-3.46442e-06
-3.15816e-06
-2.87083e-06
-2.60175e-06
-2.35021e-06
-2.11548e-06
-1.89684e-06
-1.69356e-06
-1.50489e-06
-1.33012e-06
-1.16849e-06
-1.0193e-06
-8.81812e-07
-7.55315e-07
-6.39222e-07
-5.32504e-07
-4.35425e-07
-3.45093e-07
-2.66045e-07
-1.86021e-07
-1.29832e-07
-4.29425e-08
-3.56956e-08
1.13004e-07
-1.91598e-08
3.48858e-07
-1.65524e-07
7.8549e-07
-6.00994e-07
1.53895e-06
-1.35596e-06
2.48954e-06
-2.05769e-06
2.97445e-06
-1.77152e-06
1.96816e-06
3.17121e-07
-7.31459e-07
3.4602e-06
-3.34557e-06
5.11336e-06
-3.29326e-06
-5.87189e-05
-5.82266e-05
-5.77555e-05
-5.72981e-05
-5.68466e-05
-5.63917e-05
-5.59265e-05
-5.54463e-05
-5.49465e-05
-5.44234e-05
-5.38742e-05
-5.32965e-05
-5.26888e-05
-5.205e-05
-5.13797e-05
-5.06778e-05
-4.99445e-05
-4.91803e-05
-4.8386e-05
-4.75625e-05
-4.67108e-05
-4.58321e-05
-4.49276e-05
-4.39988e-05
-4.3047e-05
-4.2074e-05
-4.10815e-05
-4.00715e-05
-3.90461e-05
-3.80074e-05
-3.69578e-05
-3.58995e-05
-3.48349e-05
-3.37661e-05
-3.26953e-05
-3.16248e-05
-3.05565e-05
-2.94925e-05
-2.84345e-05
-2.73845e-05
-2.6344e-05
-2.5315e-05
-2.42981e-05