/*--------------------------------*- C++ -*----------------------------------*\
| =========                 |                                                 |
| \\      /  F ield         | OpenFOAM: The Open Source CFD Toolbox           |
|  \\    /   O peration     | Version:  2412                                  |
|   \\  /    A nd           | Website:  www.openfoam.com                      |
|    \\/     M anipulation  |                                                 |
\*---------------------------------------------------------------------------*/
FoamFile
{
    version     2.0;
    format      ascii;
    arch        "LSB;label=32;scalar=64";
    class       surfaceScalarField;
    location    "10.5";
    object      phi;
}
// * * * * * * * * * * * * * * * * * * * * * * * * * * * * * * * * * * * * * //

dimensions      [0 3 -1 0 0 0 0];

oriented        oriented;

internalField   nonuniform List<scalar> 
126304
(
0.00505063
1.25168e-07
5.45537e-11
0.0050503
3.33289e-07
1.71614e-10
0.00504958
7.19136e-07
3.12708e-11
0.00504803
1.55003e-06
-7.0125e-10
0.00504525
2.77777e-06
-1.96289e-09
0.00504124
4.02129e-06
-3.21134e-09
0.00503638
4.85553e-06
-3.80093e-09
0.0050313
5.08338e-06
-3.39975e-09
0.00502652
4.78712e-06
-2.11359e-09
0.00502231
4.20572e-06
-3.30304e-10
0.00501873
3.58243e-06
1.51904e-09
0.00501565
3.07575e-06
3.12267e-09
0.0050129
2.7457e-06
4.33523e-09
0.00501031
2.58287e-06
5.14644e-09
0.00500776
2.54588e-06
5.62375e-09
0.00500517
2.58886e-06
5.86073e-09
0.00500249
2.67498e-06
5.94441e-09
0.0049997
2.77995e-06
5.94121e-09
0.0049968
2.89019e-06
5.89538e-09
0.0049938
2.99952e-06
5.83247e-09
0.00499069
3.10609e-06
5.76444e-09
0.00498747
3.21019e-06
5.6949e-09
0.00498415
3.31296e-06
5.62356e-09
0.00498073
3.41571e-06
5.54895e-09
0.00497721
3.5196e-06
5.46932e-09
0.00497358
3.62556e-06
5.38302e-09
0.00496984
3.73429e-06
5.28896e-09
0.00496598
3.84631e-06
5.18684e-09
0.00496202
3.96197e-06
5.07693e-09
0.00495793
4.08154e-06
4.95964e-09
0.00495372
4.20518e-06
4.83523e-09
0.00494938
4.33303e-06
4.70372e-09
0.00494491
4.46518e-06
4.56502e-09
0.00494031
4.6017e-06
4.41904e-09
0.00493556
4.74265e-06
4.26582e-09
0.00493067
4.88808e-06
4.10574e-09
0.00492563
5.03804e-06
3.93934e-09
0.00492043
5.19257e-06
3.76727e-09
0.00491507
5.35172e-06
3.59024e-09
0.00490956
5.51556e-06
3.40891e-09
0.00490387
5.68413e-06
3.22385e-09
0.00489801
5.8575e-06
3.03563e-09
0.00489197
6.03576e-06
2.84466e-09
0.00488575
6.21897e-06
2.6513e-09
0.00487934
6.40725e-06
2.45599e-09
0.00487273
6.60069e-06
2.25914e-09
0.00486593
6.79942e-06
2.06112e-09
0.00485893
7.00358e-06
1.86248e-09
0.00485171
7.21333e-06
1.66371e-09
0.00484428
7.42888e-06
1.46524e-09
0.00483663
7.65048e-06
1.26757e-09
0.00482875
7.87854e-06
1.07116e-09
0.00482064
8.11392e-06
8.76553e-10
0.00481228
8.35886e-06
6.84499e-10
8.61952e-06
0.00480366
4.95646e-10
0.00505063
2.50514e-07
0.0050503
6.6728e-07
0.00504958
1.43465e-06
0.00504805
3.08389e-06
0.0050453
5.52273e-06
0.00504133
7.99798e-06
0.00503652
9.66597e-06
0.00503147
1.01326e-05
0.0050267
9.55748e-06
0.00502249
8.41239e-06
0.00501889
7.17945e-06
0.00501579
6.17406e-06
0.00501302
5.51675e-06
0.00501042
5.19022e-06
0.00500785
5.1134e-06
0.00500524
5.19576e-06
0.00500255
5.36449e-06
0.00499976
5.57137e-06
0.00499686
5.78936e-06
0.00499386
6.00607e-06
0.00499074
6.2177e-06
0.00498753
6.42474e-06
0.00498421
6.62938e-06
0.00498079
6.83414e-06
0.00497727
7.04128e-06
0.00497365
7.25265e-06
0.00496991
7.4696e-06
0.00496606
7.69313e-06
0.0049621
7.92396e-06
0.00495802
8.16259e-06
0.00495382
8.40937e-06
0.00494948
8.66454e-06
0.00494502
8.92828e-06
0.00494042
9.20074e-06
0.00493568
9.48202e-06
0.0049308
9.77223e-06
0.00492577
1.00715e-05
0.00492058
1.03798e-05
0.00491523
1.06973e-05
0.00490972
1.10242e-05
0.00490405
1.13605e-05
0.0048982
1.17063e-05
0.00489217
1.20618e-05
0.00488596
1.24272e-05
0.00487957
1.28027e-05
0.00487298
1.31884e-05
0.0048662
1.35847e-05
0.00485921
1.39916e-05
0.00485201
1.44097e-05
0.0048446
1.48393e-05
0.00483697
1.52808e-05
0.00482911
1.57351e-05
0.00482102
1.62038e-05
0.00481269
1.66912e-05
1.72091e-05
0.0048041
0.00505063
3.76098e-07
0.0050503
1.00229e-06
0.00504959
2.14302e-06
0.00504808
4.58756e-06
0.0050454
8.20754e-06
0.0050415
1.18939e-05
0.00503677
1.43958e-05
0.00503178
1.51217e-05
0.00502704
1.42991e-05
0.00502283
1.26213e-05
0.00501921
1.08017e-05
0.00501608
9.31006e-06
0.00501326
8.32862e-06
0.00501062
7.8352e-06
0.00500802
7.71205e-06
0.00500539
7.82637e-06
0.00500268
8.07068e-06
0.00499988
8.37348e-06
0.00499698
8.69444e-06
0.00499397
9.01484e-06
0.00499086
9.32873e-06
0.00498764
9.63657e-06
0.00498433
9.94141e-06
0.00498092
1.02469e-05
0.00497741
1.05562e-05
0.00497379
1.0872e-05
0.00497006
1.11963e-05
0.00496622
1.15306e-05
0.00496227
1.18758e-05
0.0049582
1.22328e-05
0.00495401
1.26019e-05
0.00494969
1.29836e-05
0.00494524
1.33781e-05
0.00494065
1.37856e-05
0.00493593
1.42063e-05
0.00493106
1.46403e-05
0.00492604
1.50878e-05
0.00492088
1.55488e-05
0.00491555
1.60236e-05
0.00491006
1.65122e-05
0.00490441
1.70148e-05
0.00489858
1.75317e-05
0.00489258
1.8063e-05
0.0048864
1.86089e-05
0.00488003
1.91698e-05
0.00487347
1.97459e-05
0.00486672
2.03375e-05
0.00485977
2.09451e-05
0.00485261
2.15691e-05
0.00484524
2.221e-05
0.00483765
2.28686e-05
0.00482984
2.35459e-05
0.0048218
2.42443e-05
0.00481352
2.49696e-05
2.57381e-05
0.00480499
0.00505063
5.02009e-07
0.00505029
1.33873e-06
0.0050496
2.84116e-06
0.00504814
6.04799e-06
0.00504554
1.08061e-05
0.00504176
1.56739e-05
0.00503714
1.90097e-05
0.00503224
2.0024e-05
0.00502754
1.89987e-05
0.00502333
1.68328e-05
0.00501967
1.44598e-05
0.00501648
1.24998e-05
0.00501361
1.11988e-05
0.00501091
1.0534e-05
0.00500827
1.03553e-05
0.00500561
1.04909e-05
0.00500288
1.08007e-05
0.00500006
1.11908e-05
0.00499715
1.16078e-05
0.00499413
1.20265e-05
0.00499102
1.24386e-05
0.00498782
1.28441e-05
0.00498451
1.32468e-05
0.00498111
1.3651e-05
0.0049776
1.40609e-05
0.00497399
1.44798e-05
0.00497028
1.49103e-05
0.00496646
1.53541e-05
0.00496252
1.58126e-05
0.00495847
1.62867e-05
0.00495429
1.6777e-05
0.00494999
1.72841e-05
0.00494556
1.78081e-05
0.004941
1.83494e-05
0.0049363
1.89081e-05
0.00493145
1.94845e-05
0.00492646
2.00786e-05
0.00492132
2.06907e-05
0.00491602
2.13209e-05
0.00491056
2.19694e-05
0.00490494
2.26364e-05
0.00489915
2.33221e-05
0.00489319
2.40268e-05
0.00488705
2.47508e-05
0.00488072
2.54944e-05
0.00487421
2.62581e-05
0.0048675
2.70421e-05
0.0048606
2.7847e-05
0.0048535
2.86733e-05
0.00484619
2.95217e-05
0.00483866
3.0393e-05
0.00483092
3.12886e-05
0.00482295
3.22112e-05
0.00481476
3.31675e-05
3.41772e-05
0.00480632
0.00505063
6.28304e-07
0.00505029
1.67687e-06
0.00504961
3.52646e-06
0.0050482
7.45432e-06
0.00504571
1.32966e-05
0.00504208
1.93084e-05
0.00503761
2.34777e-05
0.00503282
2.48166e-05
0.00502817
2.36448e-05
0.00502396
2.10465e-05
0.00502025
1.81615e-05
0.005017
1.5756e-05
0.00501406
1.41414e-05
0.00501129
1.32997e-05
0.00500859
1.3054e-05
0.00500588
1.31976e-05
0.00500312
1.35602e-05
0.00500029
1.40268e-05
0.00499737
1.45312e-05
0.00499435
1.50414e-05
0.00499124
1.55465e-05
0.00498804
1.60457e-05
0.00498474
1.6543e-05
0.00498135
1.70435e-05
0.00497786
1.75519e-05
0.00497427
1.80721e-05
0.00497057
1.86071e-05
0.00496677
1.91589e-05
0.00496285
1.97292e-05
0.00495882
2.0319e-05
0.00495467
2.0929e-05
0.00495039
2.15598e-05
0.00494599
2.22117e-05
0.00494145
2.2885e-05
0.00493678
2.358e-05
0.00493197
2.42968e-05
0.00492701
2.50355e-05
0.0049219
2.57965e-05
0.00491665
2.65798e-05
0.00491123
2.73856e-05
0.00490565
2.82143e-05
0.00489991
2.90661e-05
0.00489399
2.99412e-05
0.0048879
3.08401e-05
0.00488163
3.1763e-05
0.00487518
3.27104e-05
0.00486854
3.36827e-05
0.00486171
3.46806e-05
0.00485468
3.57045e-05
0.00484744
3.67553e-05
0.00484
3.78338e-05
0.00483235
3.89415e-05
0.00482448
4.00811e-05
0.00481639
4.12598e-05
4.24976e-05
0.00480807
0.00505063
7.54999e-07
0.00505029
2.01687e-06
0.00504962
4.19699e-06
0.00504828
8.79852e-06
0.00504591
1.56628e-05
0.00504244
2.27751e-05
0.00503814
2.77768e-05
0.00503348
2.94814e-05
0.0050289
2.82271e-05
0.00502468
2.52607e-05
0.00502093
2.19121e-05
0.0050176
1.90875e-05
0.00501457
1.71667e-05
0.00501173
1.6142e-05
0.00500897
1.58162e-05
0.00500622
1.59524e-05
0.00500342
1.63533e-05
0.00500057
1.68838e-05
0.00499763
1.74653e-05
0.00499461
1.80593e-05
0.00499151
1.86512e-05
0.00498832
1.92394e-05
0.00498503
1.98277e-05
0.00498165
2.04214e-05
0.00497818
2.10259e-05
0.00497461
2.16451e-05
0.00497093
2.22826e-05
0.00496715
2.29406e-05
0.00496326
2.36208e-05
0.00495925
2.43244e-05
0.00495513
2.50522e-05
0.00495088
2.58048e-05
0.00494651
2.65826e-05
0.00494201
2.73858e-05
0.00493738
2.82147e-05
0.0049326
2.90695e-05
0.00492769
2.99503e-05
0.00492263
3.08574e-05
0.00491742
3.1791e-05
0.00491205
3.27512e-05
0.00490653
3.37383e-05
0.00490084
3.47526e-05
0.00489499
3.57944e-05
0.00488896
3.6864e-05
0.00488277
3.79619e-05
0.00487639
3.90885e-05
0.00486983
4.02443e-05
0.00486308
4.14298e-05
0.00485614
4.26456e-05
0.004849
4.38926e-05
0.00484166
4.51715e-05
0.00483412
4.64838e-05
0.00482637
4.78319e-05
0.00481841
4.9222e-05
5.06725e-05
0.00481023
0.00505063
8.82035e-07
0.00505029
2.3587e-06
0.00504963
4.85157e-06
0.00504836
1.00757e-05
0.00504612
1.78946e-05
0.00504284
2.60596e-05
0.00503873
3.18917e-05
0.0050342
3.40055e-05
0.00502969
3.27379e-05
0.00502548
2.94729e-05
0.00502168
2.57131e-05
0.00501827
2.24989e-05
0.00501515
2.02801e-05
0.00501223
1.90663e-05
0.0050094
1.86464e-05
0.00500659
1.87589e-05
0.00500376
1.91821e-05
0.00500088
1.97628e-05
0.00499794
2.04103e-05
0.00499492
2.1079e-05
0.00499182
2.1751e-05
0.00498864
2.24229e-05
0.00498537
2.30979e-05
0.00498201
2.37816e-05
0.00497855
2.44791e-05
0.004975
2.51949e-05
0.00497135
2.59325e-05
0.0049676
2.66944e-05
0.00496374
2.74824e-05
0.00495976
2.82977e-05
0.00495567
2.9141e-05
0.00495147
3.00131e-05
0.00494713
3.09143e-05
0.00494268
3.18449e-05
0.00493809
3.28051e-05
0.00493336
3.37951e-05
0.00492849
3.4815e-05
0.00492349
3.5865e-05
0.00491833
3.69454e-05
0.00491303
3.80563e-05
0.00490757
3.91979e-05
0.00490195
4.03706e-05
0.00489617
4.15747e-05
0.00489022
4.28104e-05
0.00488411
4.40783e-05
0.00487782
4.53786e-05
0.00487135
4.6712e-05
0.0048647
4.8079e-05
0.00485787
4.94801e-05
0.00485084
5.09161e-05
0.00484363
5.23877e-05
0.00483621
5.3896e-05
0.0048286
5.54428e-05
0.00482079
5.70322e-05
0.00481279
5.86743e-05
0.0048051
-1.44164e-06
3.10847e-10
0.00480603
-9.31375e-07
1.27408e-10
0.00480641
-3.8512e-07
-6.1081e-11
0.00480621
2.01294e-07
-2.49849e-10
0.00480539
8.22426e-07
-4.43793e-10
0.0048039
1.48948e-06
-6.34222e-10
0.0048017
2.20138e-06
-8.1931e-10
0.00479874
2.96013e-06
-9.9682e-10
0.00479498
3.76758e-06
-1.16411e-09
0.00479035
4.62565e-06
-1.31861e-09
0.00478482
5.53665e-06
-1.45807e-09
0.00477831
6.50377e-06
-1.58032e-09
0.00477078
7.53156e-06
-1.68355e-09
0.00476216
8.6266e-06
-1.76166e-09
0.00475236
9.79803e-06
-1.82643e-09
0.00474131
1.10581e-05
-1.82947e-09
0.00472889
1.2422e-05
-1.85157e-09
0.00471498
1.39085e-05
-1.86213e-09
0.00469944
1.55398e-05
-1.83827e-09
0.0046821
1.73415e-05
-1.83715e-09
0.00466276
1.93424e-05
-1.78445e-09
0.00464119
2.15742e-05
-1.7145e-09
0.00461712
2.40717e-05
-1.63672e-09
0.00459025
2.68731e-05
-1.55516e-09
0.00456023
3.00208e-05
-1.47243e-09
0.00452667
3.35624e-05
-1.39003e-09
0.00448912
3.75531e-05
-1.3079e-09
0.00444706
4.2057e-05
-1.22567e-09
0.00439991
4.71507e-05
-1.14203e-09
0.00434698
5.29269e-05
-1.05449e-09
0.00428749
5.94984e-05
-9.60392e-10
0.00422048
6.70044e-05
-8.5752e-10
0.00414487
7.56168e-05
-7.43931e-10
0.00405932
8.55492e-05
-6.18534e-10
0.00396225
9.70666e-05
-4.81677e-10
0.00385176
0.000110496
-3.35238e-10
0.00372552
0.000126236
-1.82964e-10
0.00358076
0.00014476
-3.01014e-11
0.00341416
0.000166605
1.17258e-10
0.00322183
0.00019233
2.52403e-10
0.0029994
0.000222422
3.67602e-10
0.0027423
0.000257101
4.55325e-10
0.0024463
0.000296002
5.07588e-10
0.00210866
0.000337638
5.17341e-10
0.00173006
0.000378606
4.80033e-10
0.0013176
0.000412461
3.9806e-10
0.000889318
0.000428277
2.86167e-10
0.00048045
0.000408868
1.76597e-10
0.000152377
0.000328073
1.09869e-10
0.000152377
7.6483e-11
0.00480418
-1.51447e-06
0.00480374
-4.95066e-07
0.00480276
5.95816e-07
0.0048012
1.75935e-06
0.00479902
3.00435e-06
0.00479617
4.33522e-06
0.00479262
5.756e-06
0.00478831
7.27055e-06
0.00478319
8.88265e-06
0.00477722
1.05963e-05
0.00477034
1.24162e-05
0.0047625
1.4349e-05
0.00475362
1.64039e-05
0.00474366
1.85942e-05
0.00473252
2.09384e-05
0.00472011
2.34608e-05
0.00470634
2.61924e-05
0.00469108
2.91702e-05
0.00467418
3.24386e-05
0.00465548
3.60488e-05
0.00463476
4.00583e-05
0.0046118
4.45303e-05
0.00458634
4.95341e-05
0.00455807
5.5146e-05
0.00452664
6.14506e-05
0.00449166
6.85434e-05
0.00445268
7.65343e-05
0.00440918
8.55518e-05
0.00436058
9.57491e-05
0.0043062
0.000107311
0.00424523
0.000120463
0.00417676
0.000135482
0.00409966
0.00015271
0.00401264
0.000172571
0.00391412
0.000195591
0.0038022
0.000222415
0.00367461
0.000253827
0.00352861
0.000290759
0.00336096
0.000334257
0.00316788
0.000385404
0.00294518
0.000445121
0.00268849
0.00051379
0.00239389
0.000590606
0.002059
0.00067253
0.00168487
0.000752733
0.00127895
0.000818384
0.000859439
0.000847787
0.000461231
0.000807076
0.000143503
0.000645801
0.00029588
0.00480234
1.13342e-06
0.00479919
2.65588e-06
0.0047955
4.28405e-06
0.00479124
6.02469e-06
0.00478636
7.88613e-06
0.00478082
9.87549e-06
0.00477457
1.19995e-05
0.00476758
1.42642e-05
0.00475979
1.66755e-05
0.00475114
1.92398e-05
0.0047416
2.19645e-05
0.00473108
2.48599e-05
0.00471955
2.79402e-05
0.00470692
3.12258e-05
0.00469311
3.47446e-05
0.00467804
3.85336e-05
0.00466159
4.2639e-05
0.00464364
4.71165e-05
0.00462405
5.20325e-05
0.00460264
5.74635e-05
0.0045792
6.34953e-05
0.00455351
7.02224e-05
0.00452529
7.77483e-05
0.00449425
8.61869e-05
0.00446004
9.56652e-05
0.00442225
0.000106326
0.00438045
0.000118335
0.00433412
0.000131884
0.00428267
0.000147202
0.00422541
0.000164567
0.00416156
0.000184315
0.00409018
0.000206859
0.00401019
0.000232707
0.00392027
0.000262488
0.00381889
0.000296975
0.00370418
0.000337118
0.00357395
0.000384063
0.00342555
0.000439158
0.0032559
0.000503908
0.00306146
0.000579841
0.00283837
0.000668213
0.00258272
0.000769439
0.00229119
0.000882135
0.00196213
0.00100159
0.00159732
0.00111754
0.00120474
0.00121097
0.000802675
0.00124985
0.000425568
0.00118418
0.000129893
0.000941476
0.000425773
0.00479963
7.816e-06
0.00479245
9.83512e-06
0.00478474
1.1994e-05
0.00477647
1.43028e-05
0.00476758
1.67718e-05
0.00475805
1.94107e-05
0.00474782
2.22288e-05
0.00473685
2.52347e-05
0.00472508
2.84367e-05
0.00471248
3.18436e-05
0.00469898
3.54662e-05
0.00468452
3.93186e-05
0.00466904
4.34206e-05
0.00465247
4.78e-05
0.00463472
5.24946e-05
0.0046157
5.75539e-05
0.00459529
6.30398e-05
0.00457338
6.90268e-05
0.00454981
7.56028e-05
0.00452441
8.28694e-05
0.00449696
9.09403e-05
0.00446724
9.99408e-05
0.00443498
0.000110008
0.00439988
0.000121294
0.00436158
0.000133966
0.00431969
0.000148217
0.00427376
0.000164264
0.00422328
0.000182365
0.00416765
0.000202826
0.0041062
0.000226015
0.00403814
0.000252376
0.00396254
0.000282456
0.00387833
0.000316925
0.00378421
0.000356602
0.00367869
0.000402497
0.00355997
0.000455836
0.00342595
0.000518087
0.00327415
0.000590956
0.00310174
0.00067632
0.00290554
0.000776035
0.00268223
0.000891527
0.00242861
0.00102305
0.0021423
0.00116845
0.00182272
0.00132118
0.00147269
0.00146756
0.00110082
0.00158284
0.000724967
0.0016257
0.000377685
0.00153146
0.000110497
0.00120866
0.00053627
0.00479608
1.97985e-05
0.00478362
2.23035e-05
0.00477063
2.49818e-05
0.00475708
2.78463e-05
0.00474295
3.09103e-05
0.00472817
3.41861e-05
0.00471271
3.76856e-05
0.00469653
4.142e-05
0.00467957
4.54003e-05
0.00466177
4.96384e-05
0.00464309
5.41482e-05
0.00462346
5.89487e-05
0.00460281
6.40655e-05
0.00458108
6.95342e-05
0.00455817
7.54029e-05
0.00453399
8.17342e-05
0.00450842
8.86055e-05
0.00448134
9.611e-05
0.00445259
0.000104357
0.00442198
0.000113474
0.00438932
0.0001236
0.00435437
0.000134892
0.00431686
0.00014752
0.00427648
0.000161673
0.00423289
0.00017756
0.00418568
0.00019542
0.00413442
0.000215528
0.00407858
0.000238203
0.00401758
0.000263826
0.00395074
0.000292856
0.00387727
0.000325846
0.00379626
0.000363468
0.00370664
0.000406543
0.00360717
0.000456074
0.00349639
0.000513278
0.00337261
0.000579621
0.00323385
0.000656838
0.0030779
0.000746907
0.00290227
0.000851953
0.00270432
0.000973983
0.00248148
0.00111437
0.00223158
0.00127295
0.00195356
0.00144647
0.00164832
0.00162642
0.00132005
0.00179583
0.00097798
0.00192492
0.000638676
0.001965
0.000329624
0.00184052
9.13947e-05
0.00144689
0.000627664
0.00479175
3.82761e-05
0.00477281
4.12502e-05
0.00475336
4.44313e-05
0.00473337
4.78351e-05
0.0047128
5.14774e-05
0.00469161
5.53736e-05
0.00466976
5.95379e-05
0.0046472
6.39844e-05
0.00462387
6.87268e-05
0.00459973
7.37802e-05
0.00457471
7.91628e-05
0.00454876
8.4898e-05
0.00452181
9.10183e-05
0.00449378
9.75675e-05
0.00446458
0.000104604
0.00443411
0.000112205
0.00440225
0.000120463
0.00436887
0.000129489
0.00433381
0.000139416
0.00429689
0.000150393
0.0042579
0.000162589
0.00421661
0.000176188
0.00417273
0.000191395
0.00412597
0.000208434
0.00407597
0.000227556
0.00402235
0.000249047
0.00396464
0.000273236
0.00390233
0.000300507
0.00383484
0.000331317
0.00376149
0.000366212
0.00368148
0.000405849
0.00359393
0.000451023
0.00349778
0.000502696
0.00339182
0.000562032
0.00327467
0.000630426
0.00314476
0.000709531
0.00300034
0.000801261
0.0028395
0.000907741
0.00266031
0.00103115
0.00246092
0.00117337
0.00223992
0.00133538
0.00199672
0.00151614
0.00173226
0.00171094
0.00144973
0.00190895
0.00115541
0.00209014
0.000859424
0.0022209
0.000576047
0.00224838
0.000322332
0.00209423
0.000111442
0.00165778
0.000739106
0.00478672
6.43509e-05
0.0047602
6.77698e-05
0.0047332
7.14318e-05
0.00470568
7.53535e-05
0.0046776
7.95529e-05
0.00464893
8.40479e-05
0.00461961
8.88552e-05
0.0045896
9.39915e-05
0.00455886
9.94736e-05
0.00452732
0.00010532
0.00449493
0.000111553
0.00446162
0.000118201
0.00442734
0.000125304
0.00439199
0.000132915
0.00435549
0.000141103
0.00431774
0.000149958
0.00427861
0.00015959
0.00423797
0.000170129
0.00419566
0.000181728
0.00415149
0.000194562
0.00410525
0.000208824
0.00405671
0.00022473
0.0040056
0.000242513
0.00395159
0.000262436
0.00389436
0.000284791
0.00383349
0.00030991
0.00376855
0.000338177
0.00369902
0.000370038
0.00362431
0.000406027
0.00354375
0.000446775
0.00345655
0.000493044
0.00336183
0.000545744
0.00325856
0.00060597
0.00314556
0.000675028
0.00302153
0.00075446
0.00288501
0.000846054
0.00273445
0.000951816
0.00256833
0.00107387
0.00238526
0.00121421
0.00218435
0.00137428
0.00196556
0.00155417
0.00173036
0.00175134
0.00148242
0.00195887
0.0012284
0.00216297
0.000978497
0.00234005
0.000746058
0.00245334
0.00054486
0.00244958
0.000379765
0.00225933
0.000230165
0.00180738
0.000969271
-2.84371e-05
2.8433e-05
4.03391e-09
-6.98897e-05
4.14441e-05
8.52981e-09
-9.86839e-05
2.87838e-05
1.03693e-08
-0.000100174
1.47885e-06
1.13176e-08
-6.94677e-05
-3.07165e-05
1.01415e-08
-3.99246e-06
-6.54844e-05
9.19809e-09
9.49823e-05
-9.89828e-05
7.98119e-09
0.000224569
-0.000129594
6.79464e-09
0.000380767
-0.000156204
5.56727e-09
0.000559057
-0.000178294
4.3577e-09
0.000754765
-0.000195711
3.19865e-09
0.000963313
-0.00020855
2.10659e-09
0.00118039
-0.000217074
1.09368e-09
0.00140204
-0.000221654
1.7517e-10
0.00162477
-0.000222725
-6.52135e-10
0.00184552
-0.000220756
-1.35732e-09
0.00206174
-0.000216218
-1.91184e-09
0.00227132
-0.000209573
-2.26702e-09
0.00247258
-0.000201256
-2.35606e-09
0.00266425
-0.000191669
-1.92977e-09
0.00284543
-0.000181178
-1.50011e-09
0.00301553
-0.000170101
-8.09285e-11
0.00317425
-0.000158719
8.46669e-10
0.00332152
-0.000147271
1.5347e-09
0.00345747
-0.000135953
2.89999e-09
0.00358239
-0.000124924
3.30129e-09
0.0036967
-0.000114313
3.98934e-09
0.00380091
-0.000104216
4.27065e-09
0.0038956
-9.47004e-05
4.13079e-09
0.00398141
-8.58075e-05
3.68591e-09
0.00405896
-7.75583e-05
3.08261e-09
0.00412892
-6.99557e-05
2.44927e-09
0.0041919
-6.29883e-05
1.88519e-09
0.00424853
-5.66337e-05
1.45215e-09
0.00429939
-5.08608e-05
1.17482e-09
0.00434503
-4.56332e-05
1.05861e-09
0.00438594
-4.09109e-05
1.09078e-09
0.00442259
-3.66523e-05
1.24801e-09
0.0044554
-3.28156e-05
1.5056e-09
0.00448476
-2.93606e-05
1.83537e-09
0.00451101
-2.62486e-05
2.20999e-09
0.00453445
-2.34438e-05
2.6074e-09
0.00455536
-2.09132e-05
3.00574e-09
0.00457398
-1.86269e-05
3.38857e-09
0.00459054
-1.65581e-05
3.74631e-09
0.00460521
-1.46828e-05
4.07125e-09
0.00461819
-1.298e-05
4.36064e-09
0.00462962
-1.14309e-05
4.61661e-09
0.00463963
-1.00189e-05
4.84058e-09
-8.72924e-06
0.00464835
5.0336e-09
-2.47732e-05
5.32062e-05
-5.86309e-05
7.53019e-05
-7.93336e-05
4.94864e-05
-7.44338e-05
-3.42094e-06
-3.86208e-05
-6.65295e-05
2.99454e-05
-0.000134051
0.00013021
-0.000199247
0.000259457
-0.000258841
0.000413988
-0.000310735
0.000589582
-0.000353888
0.000781847
-0.000387975
0.000986453
-0.000413156
0.0011993
-0.000429921
0.00141662
-0.000438976
0.00163506
-0.00044116
0.00185167
-0.000437373
0.00206399
-0.000428536
0.00226996
-0.000415544
0.00246796
-0.000399248
0.00265672
-0.000380438
0.00283537
-0.000359825
0.00300331
-0.000338041
0.00316022
-0.000315632
0.00330603
-0.000293075
0.00344084
-0.000270763
0.00356492
-0.000249006
0.00367866
-0.000228057
0.00378256
-0.000208111
0.00387716
-0.000189301
0.00396306
-0.000171712
0.00404089
-0.000155387
0.00411127
-0.000140333
0.00417481
-0.00012653
0.00423211
-0.000113933
0.00428373
-0.000102484
0.00433021
-9.21107e-05
0.00437204
-8.27358e-05
0.00440966
-7.42774e-05
0.0044435
-6.66541e-05
0.00447392
-5.97862e-05
0.00450127
-5.35981e-05
0.00452585
-4.8019e-05
0.00454792
-4.29839e-05
0.00456773
-3.84337e-05
0.00458548
-3.43155e-05
0.00460138
-3.05819e-05
0.00461559
-2.7191e-05
0.00462827
-2.41058e-05
0.00463954
-2.12932e-05
-1.87234e-05
0.00464954
-1.75408e-05
7.0747e-05
-3.71197e-05
9.48808e-05
-4.26867e-05
5.50534e-05
-2.55354e-05
-2.05723e-05
1.92737e-05
-0.000111339
9.28785e-05
-0.000207655
0.000194818
-0.000301186
0.000322762
-0.000386785
0.000473546
-0.00046152
0.000643531
-0.000523873
0.000828867
-0.000573311
0.0010257
-0.000609992
0.00123034
-0.000634561
0.00143935
-0.000647987
0.00164963
-0.00065144
0.00185846
-0.000646196
0.00206348
-0.000633563
0.00226277
-0.000614833
0.00245476
-0.000591232
0.00263822
-0.000563904
0.00281228
-0.000533887
0.00297634
-0.000502095
0.00313005
-0.000469342
0.00327329
-0.000436317
0.00340614
-0.000403608
0.00352881
-0.000371685
0.00364167
-0.000340908
0.00374513
-0.000311571
0.0038397
-0.000283879
0.00392595
-0.000257959
0.00400444
-0.000233878
0.00407576
-0.000211652
0.00414049
-0.000191255
0.00419918
-0.000172625
0.00425237
-0.000155678
0.00430057
-0.000140312
0.00434425
-0.000126415
0.00438384
-0.000113867
0.00441974
-0.000102551
0.0044523
-9.23507e-05
0.00448186
-8.31548e-05
0.0045087
-7.486e-05
0.00453309
-6.73708e-05
0.00455525
-6.06003e-05
0.00457541
-5.44705e-05
0.00459374
-4.89117e-05
0.00461041
-4.38619e-05
0.00462557
-3.92662e-05
0.00463935
-3.50757e-05
-3.12447e-05
0.00465187
-4.4088e-06
7.51558e-05
-4.70478e-06
9.51768e-05
9.16097e-06
4.11877e-05
4.10893e-05
-5.25006e-05
9.63966e-05
-0.000166646
0.000175773
-0.000287031
0.000278537
-0.000403951
0.000403186
-0.000511434
0.000547453
-0.000605786
0.000708559
-0.000684979
0.000883432
-0.000748185
0.00106889
-0.000795453
0.0012618
-0.000827465
0.00145914
-0.000845336
0.00165817
-0.000850466
0.00185639
-0.000844417
0.00205164
-0.000828814
0.00224209
-0.000805277
0.00242622
-0.000775364
0.00260285
-0.000740535
0.00277108
-0.000702121
0.0029303
-0.000661308
0.00308009
-0.000619135
0.00322029
-0.000576521
0.00335092
-0.000534229
0.0034721
-0.000492874
0.00358415
-0.000452949
0.00368741
-0.000414833
0.00378233
-0.000378802
0.0038694
-0.000345032
0.00394914
-0.000313619
0.00402208
-0.000284591
0.00408875
-0.000257919
0.00414965
-0.000233532
0.0042053
-0.000211325
0.00425616
-0.00019117
0.00430267
-0.000172924
0.00434524
-0.000156437
0.00438424
-0.000141555
0.00442002
-0.000128131
0.00445289
-0.000116021
0.00448312
-0.000105091
0.00451097
-9.52172e-05
0.00453665
-8.62871e-05
0.00456038
-7.81989e-05
0.00458233
-7.08615e-05
0.00460266
-6.4194e-05
0.00462152
-5.81247e-05
0.00463903
-5.25885e-05
-4.7524e-05
0.00465531
1.00515e-05
6.51042e-05
3.15156e-05
7.37127e-05
6.91109e-05
3.59241e-06
0.000118959
-0.000102348
0.000185462
-0.000233149
0.000268999
-0.000370569
0.000369966
-0.000504918
0.000488023
-0.00062949
0.000622111
-0.000739875
0.000770582
-0.00083345
0.000931346
-0.000908948
0.00110203
-0.00096614
0.00128014
-0.00100557
0.00146316
-0.00102835
0.00164867
-0.00103598
0.00183443
-0.00103018
0.00201843
-0.00101281
0.00219891
-0.000985756
0.00237439
-0.00095084
0.00254366
-0.000909802
0.00270578
-0.000864241
0.00286006
-0.000815593
0.00300605
-0.000765126
0.00314348
-0.000713945
0.00327225
-0.000663005
0.00339245
-0.000613075
0.00350427
-0.000564764
0.00360799
-0.000518554
0.00370398
-0.000474795
0.00379266
-0.000433714
0.00387449
-0.00039544
0.00394992
-0.00036002
0.00401943
-0.000327432
0.00408349
-0.000297597
0.00414257
-0.000270397
0.00419708
-0.000245683
0.00424744
-0.000223286
0.00429403
-0.000203028
0.0043372
-0.000184728
0.00437728
-0.000168206
0.00441455
-0.000153291
0.00444928
-0.000139821
0.00448171
-0.000127646
0.00451205
-0.00011663
0.0045405
-0.000106647
0.00456723
-9.75882e-05
0.00459239
-8.93541e-05
0.00461612
-8.18566e-05
0.00463855
-7.50158e-05
-6.87539e-05
0.00465978
2.98608e-05
3.52434e-05
8.13716e-05
2.22019e-05
0.000138974
-5.40099e-05
0.000206219
-0.000169593
0.000280827
-0.000307757
0.000364552
-0.000454294
0.000459125
-0.000599491
0.000565767
-0.000736132
0.000684953
-0.000859062
0.000816396
-0.000964892
0.000959143
-0.0010517
0.00111173
-0.00111873
0.00127233
-0.00116617
0.00143893
-0.00119495
0.00160942
-0.00120647
0.00178175
-0.00120251
0.00195398
-0.00118505
0.00212437
-0.00115615
0.00229138
-0.00111786
0.00245374
-0.00107216
0.00261041
-0.0010209
0.00276057
-0.000965761
0.00290367
-0.000908219
0.00303931
-0.000849588
0.00316729
-0.000790987
0.00328757
-0.000733356
0.00340025
-0.000677446
0.00350553
-0.000623835
0.00360369
-0.000572954
0.00369507
-0.000525094
0.00378006
-0.000480424
0.00385905
-0.000439017
0.00393249
-0.000400863
0.00400077
-0.000365885
0.00406433
-0.000333956
0.00412356
-0.00030491
0.00417883
-0.000278561
0.00423051
-0.000254705
0.00427892
-0.000233136
0.00432436
-0.000213649
0.00436712
-0.000196044
0.00440743
-0.000180136
0.00444553
-0.000165749
0.00448163
-0.000152726
0.0045159
-0.000140921
0.00454852
-0.000130204
0.00457963
-0.000120461
0.00460936
-0.000111587
0.00463783
-0.00010349
-9.60757e-05
0.00466515
5.61641e-05
-2.09207e-05
0.000136437
-5.80709e-05
0.000217089
-0.000134662
0.000295033
-0.000247537
0.000370943
-0.000383668
0.000448025
-0.000531376
0.000529894
-0.000681359
0.000619626
-0.000825864
0.000719343
-0.000958779
0.000830133
-0.00107568
0.00095214
-0.0011737
0.00108473
-0.00125131
0.00122666
-0.00130811
0.00137629
-0.00134458
0.00153175
-0.00136193
0.00169106
-0.00136183
0.00185229
-0.00134628
0.00201361
-0.00131746
0.00217338
-0.00127762
0.00233017
-0.00122895
0.00248278
-0.00117352
0.00263028
-0.00111326
0.00277194
-0.00104988
0.00290723
-0.000984879
0.00303583
-0.000919584
0.00315757
-0.000855096
0.00327244
-0.000792315
0.00338055
-0.000731946
0.0034821
-0.000674505
0.00357736
-0.000620352
0.00366664
-0.00056971
0.00375031
-0.000522686
0.00382874
-0.000479289
0.0039023
-0.00043945
0.00397139
-0.000403038
0.00403635
-0.000369878
0.00409756
-0.000339767
0.00415534
-0.000312482
0.00420999
-0.000287794
0.00426182
-0.000265473
0.00431107
-0.000245297
0.00435799
-0.000227056
0.0044028
-0.000210553
0.00444568
-0.000195608
0.00448681
-0.000182057
0.00452636
-0.000169753
0.00456447
-0.000158564
0.00460125
-0.000148373
0.00463683
-0.000139073
0.00467132
-0.000130563
0.00466607
-1.77253e-05
5.22382e-09
0.00468307
-1.70029e-05
5.45497e-09
0.00469939
-1.63234e-05
5.65197e-09
0.00471507
-1.56858e-05
5.8271e-09
0.00473015
-1.5088e-05
5.99898e-09
0.00474467
-1.45273e-05
6.18076e-09
0.00475867
-1.4e-05
6.38298e-09
0.00477216
-1.35016e-05
6.61335e-09
0.00478518
-1.30256e-05
6.87346e-09
0.00479774
-1.2564e-05
7.15793e-09
0.00480984
-1.21072e-05
7.46065e-09
0.00482147
-1.16444e-05
7.77147e-09
0.00483263
-1.11653e-05
8.07382e-09
0.00484328
-1.06609e-05
8.34968e-09
0.0048534
-1.01266e-05
8.58275e-09
0.00486296
-9.56311e-06
8.75344e-09
0.00487193
-8.97829e-06
8.84209e-09
0.0048803
-8.38654e-06
8.83625e-09
0.0048881
-7.80726e-06
8.72975e-09
0.00489535
-7.26171e-06
8.52013e-09
0.00490212
-6.76922e-06
8.21344e-09
0.00490845
-6.34362e-06
7.82487e-09
0.00491444
-5.99099e-06
7.37193e-09
0.00492014
-5.70908e-06
6.87267e-09
0.00492562
-5.48858e-06
6.34737e-09
0.00493093
-5.31573e-06
5.81354e-09
0.0049361
-5.17526e-06
5.28217e-09
0.00494115
-5.05303e-06
4.76219e-09
0.00494608
-4.93777e-06
4.26105e-09
0.0049509
-4.82179e-06
3.7806e-09
0.0049556
-4.70083e-06
3.31972e-09
0.00496017
-4.57329e-06
2.87943e-09
0.0049646
-4.43943e-06
2.45968e-09
0.0049689
-4.30048e-06
2.05757e-09
0.00497306
-4.15808e-06
1.67218e-09
0.00497707
-4.01386e-06
1.30416e-09
0.00498094
-3.86926e-06
9.5238e-10
0.00498466
-3.72542e-06
6.18073e-10
0.00498825
-3.58325e-06
3.0667e-10
0.00499169
-3.4434e-06
2.25152e-11
0.004995
-3.30633e-06
-2.3222e-10
0.00499817
-3.17237e-06
-4.56668e-10
0.00500121
-3.04172e-06
-6.54435e-10
0.00500413
-2.91451e-06
-8.28927e-10
0.00500692
-2.79083e-06
-1.00574e-09
0.00500959
-2.67062e-06
-1.1849e-09
0.00501215
-2.55393e-06
-1.35474e-09
0.00501459
-2.44075e-06
-1.53409e-09
0.00501692
-2.331e-06
-1.72701e-09
0.00501915
-2.22464e-06
-1.94149e-09
0.00502127
-2.12158e-06
-2.18271e-09
0.0050233
-2.02176e-06
-2.45333e-09
0.00502522
-1.92513e-06
-2.74918e-09
0.00502706
-1.83162e-06
-3.05748e-09
0.0050288
-1.7412e-06
-3.36181e-09
0.00503046
-1.65381e-06
-3.64119e-09
0.00503203
-1.56941e-06
-3.87932e-09
0.00503353
-1.48793e-06
-4.068e-09
0.00503494
-1.40932e-06
-4.20939e-09
0.00503628