/*--------------------------------*- C++ -*----------------------------------*\
| =========                 |                                                 |
| \\      /  F ield         | OpenFOAM: The Open Source CFD Toolbox           |
|  \\    /   O peration     | Version:  2412                                  |
|   \\  /    A nd           | Website:  www.openfoam.com                      |
|    \\/     M anipulation  |                                                 |
\*---------------------------------------------------------------------------*/
FoamFile
{
    version     2.0;
    format      ascii;
    arch        "LSB;label=32;scalar=64";
    class       volVectorField;
    location    "10.5";
    object      U;
}
// * * * * * * * * * * * * * * * * * * * * * * * * * * * * * * * * * * * * * //

dimensions      [0 1 -1 0 0 0 0];

internalField   nonuniform List<vector> 
63420
(
(0.0999999 4.23322e-07 0)
(0.0999951 1.14946e-06 0)
(0.0999867 2.53528e-06 0)
(0.0999669 5.58353e-06 0)
(0.0999255 1.02116e-05 0)
(0.0998573 1.50768e-05 0)
(0.0997666 1.85598e-05 0)
(0.0996652 1.98046e-05 0)
(0.0995654 1.90045e-05 0)
(0.0994757 1.70096e-05 0)
(0.0993988 1.47585e-05 0)
(0.0993336 1.2908e-05 0)
(0.0992768 1.17427e-05 0)
(0.0992247 1.12629e-05 0)
(0.0991743 1.13245e-05 0)
(0.0991236 1.175e-05 0)
(0.0990716 1.23888e-05 0)
(0.0990175 1.31376e-05 0)
(0.0989613 1.39362e-05 0)
(0.0989028 1.47565e-05 0)
(0.0988423 1.55895e-05 0)
(0.0987796 1.64368e-05 0)
(0.098715 1.73045e-05 0)
(0.0986483 1.82e-05 0)
(0.0985795 1.91305e-05 0)
(0.0985087 2.01023e-05 0)
(0.0984357 2.1121e-05 0)
(0.0983606 2.21914e-05 0)
(0.0982833 2.33176e-05 0)
(0.0982036 2.45034e-05 0)
(0.0981215 2.57525e-05 0)
(0.0980369 2.7068e-05 0)
(0.0979497 2.84533e-05 0)
(0.0978599 2.99117e-05 0)
(0.0977674 3.14465e-05 0)
(0.097672 3.30612e-05 0)
(0.0975737 3.47591e-05 0)
(0.0974723 3.65441e-05 0)
(0.0973679 3.84198e-05 0)
(0.0972603 4.03903e-05 0)
(0.0971494 4.24597e-05 0)
(0.0970351 4.46324e-05 0)
(0.0969174 4.69131e-05 0)
(0.0967961 4.93066e-05 0)
(0.0966711 5.18181e-05 0)
(0.0965423 5.44531e-05 0)
(0.0964096 5.72174e-05 0)
(0.096273 6.01172e-05 0)
(0.0961323 6.31593e-05 0)
(0.0959873 6.63509e-05 0)
(0.0958381 6.97003e-05 0)
(0.0956844 7.32175e-05 0)
(0.0955261 7.69173e-05 0)
(0.0953631 8.08293e-05 0)
(0.0951951 8.50243e-05 0)
(0.0999999 1.27113e-06 0)
(0.0999951 3.45261e-06 0)
(0.0999867 7.59324e-06 0)
(0.099967 1.66842e-05 0)
(0.0999261 3.04915e-05 0)
(0.0998586 4.50258e-05 0)
(0.0997689 5.54622e-05 0)
(0.0996682 5.92403e-05 0)
(0.0995689 5.69216e-05 0)
(0.0994792 5.10289e-05 0)
(0.0994022 4.43553e-05 0)
(0.0993367 3.88597e-05 0)
(0.0992794 3.53939e-05 0)
(0.0992269 3.39646e-05 0)
(0.0991762 3.41466e-05 0)
(0.0991252 3.54131e-05 0)
(0.0990729 3.73174e-05 0)
(0.0990188 3.95519e-05 0)
(0.0989624 4.19378e-05 0)
(0.098904 4.43905e-05 0)
(0.0988434 4.68833e-05 0)
(0.0987808 4.94205e-05 0)
(0.0987161 5.202e-05 0)
(0.0986495 5.47034e-05 0)
(0.0985808 5.74921e-05 0)
(0.09851 6.0405e-05 0)
(0.0984372 6.34585e-05 0)
(0.0983622 6.66669e-05 0)
(0.0982849 7.00425e-05 0)
(0.0982053 7.35968e-05 0)
(0.0981233 7.73402e-05 0)
(0.0980388 8.12826e-05 0)
(0.0979518 8.54339e-05 0)
(0.0978621 8.9804e-05 0)
(0.0977697 9.44027e-05 0)
(0.0976745 9.92402e-05 0)
(0.0975763 0.000104327 0)
(0.0974752 0.000109674 0)
(0.097371 0.000115293 0)
(0.0972636 0.000121195 0)
(0.0971529 0.000127393 0)
(0.0970388 0.0001339 0)
(0.0969213 0.00014073 0)
(0.0968002 0.000147898 0)
(0.0966755 0.000155418 0)
(0.096547 0.000163308 0)
(0.0964147 0.000171584 0)
(0.0962784 0.000180266 0)
(0.096138 0.000189373 0)
(0.0959935 0.000198927 0)
(0.0958446 0.000208952 0)
(0.0956913 0.000219478 0)
(0.0955335 0.000230549 0)
(0.095371 0.000242251 0)
(0.0952036 0.00025479 0)
(0.0999999 2.12019e-06 0)
(0.0999951 5.76122e-06 0)
(0.0999867 1.26127e-05 0)
(0.0999673 2.76187e-05 0)
(0.0999273 5.04338e-05 0)
(0.0998612 7.45127e-05 0)
(0.0997732 9.18945e-05 0)
(0.0996741 9.83186e-05 0)
(0.0995756 9.4665e-05 0)
(0.0994862 8.50634e-05 0)
(0.0994089 7.4113e-05 0)
(0.0993427 6.50553e-05 0)
(0.0992846 5.93143e-05 0)
(0.0992313 5.69192e-05 0)
(0.0991798 5.71821e-05 0)
(0.0991284 5.92419e-05 0)
(0.0990757 6.23651e-05 0)
(0.0990212 6.60444e-05 0)
(0.0989647 6.99838e-05 0)
(0.0989062 7.4042e-05 0)
(0.0988456 7.81734e-05 0)
(0.098783 8.23837e-05 0)
(0.0987185 8.67013e-05 0)
(0.0986519 9.11614e-05 0)
(0.0985833 9.57984e-05 0)
(0.0985127 0.000100643 0)
(0.09844 0.000105723 0)
(0.0983652 0.000111061 0)
(0.0982881 0.000116678 0)
(0.0982087 0.000122592 0)
(0.098127 0.000128821 0)
(0.0980427 0.00013538 0)
(0.097956 0.000142287 0)
(0.0978665 0.000149558 0)
(0.0977744 0.000157209 0)
(0.0976795 0.000165256 0)
(0.0975817 0.000173718 0)
(0.0974809 0.000182612 0)
(0.097377 0.000191957 0)
(0.09727 0.000201772 0)
(0.0971597 0.00021208 0)
(0.0970461 0.0002229 0)
(0.0969291 0.000234256 0)
(0.0968085 0.000246172 0)
(0.0966844 0.000258673 0)
(0.0965565 0.000271787 0)
(0.0964247 0.000285542 0)
(0.0962891 0.000299968 0)
(0.0961494 0.000315099 0)
(0.0960056 0.000330969 0)
(0.0958576 0.000347619 0)
(0.0957052 0.000365098 0)
(0.0955484 0.000383474 0)
(0.0953869 0.000402885 0)
(0.0952206 0.000423658 0)
(0.0999999 2.9712e-06 0)
(0.0999951 8.07844e-06 0)
(0.0999867 1.75702e-05 0)
(0.0999677 3.82859e-05 0)
(0.0999289 6.98325e-05 0)
(0.099865 0.000103255 0)
(0.0997795 0.000127568 0)
(0.0996824 0.000136819 0)
(0.0995853 0.000132126 0)
(0.0994963 0.000119119 0)
(0.0994185 0.000104127 0)
(0.0993513 9.16415e-05 0)
(0.0992921 8.36663e-05 0)
(0.0992376 8.02796e-05 0)
(0.0991852 8.05602e-05 0)
(0.0991329 8.33367e-05 0)
(0.0990797 8.76036e-05 0)
(0.0990248 9.26615e-05 0)
(0.0989681 9.80998e-05 0)
(0.0989095 0.00010372 0)
(0.0988489 0.000109455 0)
(0.0987864 0.000115311 0)
(0.0987219 0.000121325 0)
(0.0986555 0.000127543 0)
(0.0985871 0.000134012 0)
(0.0985167 0.000140775 0)
(0.0984443 0.000147867 0)
(0.0983697 0.000155321 0)
(0.0982929 0.000163165 0)
(0.0982138 0.000171424 0)
(0.0981324 0.000180123 0)
(0.0980485 0.000189284 0)
(0.0979621 0.00019893 0)
(0.0978731 0.000209082 0)
(0.0977814 0.000219765 0)
(0.097687 0.000231001 0)
(0.0975897 0.000242814 0)
(0.0974894 0.00025523 0)
(0.0973861 0.000268273 0)
(0.0972796 0.000281973 0)
(0.09717 0.000296356 0)
(0.0970571 0.000311454 0)
(0.0969408 0.000327297 0)
(0.096821 0.000343919 0)
(0.0966976 0.000361355 0)
(0.0965705 0.000379642 0)
(0.0964398 0.00039882 0)
(0.0963051 0.000418929 0)
(0.0961665 0.000440016 0)
(0.0960238 0.000462128 0)
(0.095877 0.00048532 0)
(0.0957259 0.000509657 0)
(0.0955705 0.000535231 0)
(0.0954105 0.000562218 0)
(0.0952458 0.000591039 0)
(0.0999999 3.82467e-06 0)
(0.099995 1.04067e-05 0)
(0.0999866 2.24454e-05 0)
(0.0999681 4.85989e-05 0)
(0.099931 8.85103e-05 0)
(0.0998698 0.000131008 0)
(0.0997873 0.000162233 0)
(0.099693 0.000174547 0)
(0.0995975 0.000169204 0)
(0.0995089 0.000153196 0)
(0.0994306 0.000134474 0)
(0.0993622 0.000118741 0)
(0.0993016 0.000108588 0)
(0.0992457 0.000104176 0)
(0.099192 0.000104391 0)
(0.0991388 0.000107783 0)
(0.0990848 0.000113093 0)
(0.0990295 0.000119442 0)
(0.0989726 0.000126306 0)
(0.0989138 0.000133429 0)
(0.0988532 0.000140722 0)
(0.0987907 0.000148187 0)
(0.0987264 0.000155867 0)
(0.0986602 0.000163817 0)
(0.0985921 0.000172097 0)
(0.098522 0.000180756 0)
(0.0984499 0.000189841 0)
(0.0983756 0.000199392 0)
(0.0982992 0.000209444 0)
(0.0982206 0.000220029 0)
(0.0981396 0.000231177 0)
(0.0980562 0.000242917 0)
(0.0979703 0.000255277 0)
(0.0978818 0.000268286 0)
(0.0977907 0.000281973 0)
(0.0976969 0.000296368 0)
(0.0976002 0.0003115 0)
(0.0975006 0.000327402 0)
(0.097398 0.000344106 0)
(0.0972924 0.000361647 0)
(0.0971836 0.000380062 0)
(0.0970715 0.000399387 0)
(0.0969562 0.000419664 0)
(0.0968374 0.000440933 0)
(0.0967151 0.000463239 0)
(0.0965892 0.000486629 0)
(0.0964596 0.000511152 0)
(0.0963263 0.00053686 0)
(0.0961891 0.00056381 0)
(0.0960479 0.000592061 0)
(0.0959027 0.00062168 0)
(0.0957533 0.000652746 0)
(0.0955997 0.000685368 0)
(0.0954417 0.000719748 0)
(0.0952792 0.000756359 0)
(0.0999999 4.681e-06 0)
(0.099995 1.27478e-05 0)
(0.0999865 2.72221e-05 0)
(0.0999687 5.84893e-05 0)
(0.0999334 0.000106326 0)
(0.0998752 0.000157577 0)
(0.0997963 0.000195683 0)
(0.0997051 0.000211343 0)
(0.0996116 0.000205814 0)
(0.0995236 0.000187286 0)
(0.0994447 0.00016521 0)
(0.099375 0.000146447 0)
(0.0993127 0.000134184 0)
(0.0992551 0.00012871 0)
(0.0992001 0.000128761 0)
(0.0991458 0.000132647 0)
(0.099091 0.000138881 0)
(0.0990352 0.000146414 0)
(0.0989779 0.000154615 0)
(0.098919 0.00016317 0)
(0.0988584 0.000171964 0)
(0.0987961 0.000180992 0)
(0.098732 0.0001903 0)
(0.098666 0.000199952 0)
(0.0985982 0.000210014 0)
(0.0985285 0.000220544 0)
(0.0984568 0.000231598 0)
(0.098383 0.000243222 0)
(0.098307 0.000255457 0)
(0.0982289 0.000268341 0)
(0.0981484 0.000281912 0)
(0.0980656 0.000296202 0)
(0.0979804 0.000311247 0)
(0.0978926 0.00032708 0)
(0.0978022 0.000343736 0)
(0.0977091 0.000361251 0)
(0.0976132 0.000379661 0)
(0.0975145 0.000399004 0)
(0.0974128 0.00041932 0)
(0.0973082 0.00044065 0)
(0.0972004 0.000463037 0)
(0.0970895 0.000486528 0)
(0.0969753 0.000511169 0)
(0.0968577 0.00053701 0)
(0.0967368 0.000564105 0)
(0.0966123 0.000592509 0)
(0.0964842 0.000622279 0)
(0.0963525 0.000653479 0)
(0.096217 0.000686174 0)
(0.0960777 0.000720434 0)
(0.0959344 0.000756336 0)
(0.0957872 0.000793969 0)
(0.0956358 0.000833451 0)
(0.0954803 0.000874991 0)
(0.0953205 0.000919065 0)
(0.0999999 5.5401e-06 0)
(0.099995 1.5102e-05 0)
(0.0999865 3.18898e-05 0)
(0.0999693 6.79101e-05 0)
(0.099936 0.000123183 0)
(0.0998811 0.000182822 0)
(0.0998061 0.000227773 0)
(0.0997183 0.000247083 0)
(0.099627 0.000241884 0)
(0.0995396 0.000221373 0)
(0.0994601 0.000196363 0)
(0.0993891 0.000174815 0)
(0.099325 0.000160524 0)
(0.0992657 0.000153947 0)
(0.0992092 0.000153727 0)
(0.0991536 0.000157971 0)
(0.099098 0.000164995 0)
(0.0990416 0.000173593 0)
(0.098984 0.000183031 0)
(0.098925 0.000192937 0)
(0.0988645 0.000203167 0)
(0.0988023 0.000213706 0)
(0.0987384 0.000224599 0)
(0.0986728 0.000235915 0)
(0.0986054 0.000247725 0)
(0.0985361 0.000260097 0)
(0.0984648 0.00027309 0)
(0.0983916 0.000286757 0)
(0.0983162 0.000301146 0)
(0.0982387 0.0003163 0)
(0.0981589 0.00033226 0)
(0.0980768 0.000349067 0)
(0.0979923 0.00036676 0)
(0.0979053 0.000385377 0)
(0.0978157 0.00040496 0)
(0.0977235 0.000425548 0)
(0.0976286 0.000447185 0)
(0.0975309 0.000469915 0)
(0.0974304 0.000493784 0)
(0.0973269 0.000518838 0)
(0.0972203 0.000545129 0)
(0.0971107 0.000572709 0)
(0.0969979 0.000601632 0)
(0.0968819 0.000631955 0)
(0.0967625 0.00066374 0)
(0.0966397 0.00069705 0)
(0.0965134 0.000731951 0)
(0.0963836 0.000768515 0)
(0.0962502 0.000806814 0)
(0.096113 0.000846929 0)
(0.0959721 0.000888943 0)
(0.0958273 0.000932952 0)
(0.0956786 0.000979075 0)
(0.095526 0.00102749 0)
(0.0953693 0.00107861 0)
(0.0950213 8.97065e-05 -4.70956e-24)
(0.0948396 9.46737e-05 -4.79793e-24)
(0.0946484 9.99788e-05 -3.20932e-26)
(0.0944469 0.000105647 1.47302e-23)
(0.0942344 0.000111753 -4.87998e-24)
(0.0940103 0.000118282 -5.01836e-24)
(0.0937738 0.000125249 -1.54417e-23)
(0.0935239 0.000132675 1.53346e-23)
(0.0932599 0.000140579 5.24373e-24)
(0.092981 0.000148981 0)
(0.0926861 0.000157903 5.41326e-24)
(0.0923743 0.000167378 -5.50457e-24)
(0.0920448 0.00017745 4.5257e-23)
(0.0916962 0.000188184 -9.69775e-23)
(0.0913275 0.000199673 5.18259e-23)
(0.0909371 0.000212038 4.19703e-23)
(0.0905234 0.000225431 5.38567e-23)
(0.0900845 0.000240041 -6.16497e-24)
(0.0896178 0.000256088 6.29764e-24)
(0.0891207 0.000273828 -6.4381e-24)
(0.0885898 0.000293551 0)
(0.0880213 0.000315571 6.74505e-24)
(0.0874109 0.000340236 -6.91299e-24)
(0.0867533 0.000367927 0)
(0.086043 0.000399066 -7.282e-24)
(0.0852732 0.000434128 0)
(0.0844365 0.000473661 -7.7019e-24)
(0.0835244 0.000518303 -1.29082e-22)
(0.0825273 0.000568819 1.37067e-22)
(0.0814339 0.000626129 -1.37644e-22)
(0.0802312 0.000691359 1.37434e-22)
(0.0789042 0.000765893 0)
(0.0774349 0.000851448 0)
(0.0758022 0.000950153 1.68757e-22)
(0.0739806 0.00106465 -1.58786e-22)
(0.0719398 0.00119821 0)
(0.0696428 0.00135479 0)
(0.0670452 0.00153914 0)
(0.0640937 0.00175659 0)
(0.0607249 0.00201273 0)
(0.0568663 0.00231236 0)
(0.0524378 0.00265764 0)
(0.0473592 0.00304482 0)
(0.0415637 0.00345894 0)
(0.0350242 0.00386593 -1.58155e-23)
(0.0277959 0.00420135 -5.44007e-22)
(0.0200643 0.00435668 5.43191e-22)
(0.0122252 0.00416507 5.91059e-22)
(0.00524909 0.00337011 -5.90172e-22)
(0.00107362 0.00157306 0)
(0.0950302 0.00026878 -4.76249e-24)
(0.0948488 0.000283633 -9.7073e-24)
(0.0946579 0.000299527 -5.08161e-24)
(0.0944568 0.000316556 4.74294e-24)
(0.0942448 0.000334812 -4.94584e-24)
(0.0940211 0.00035433 3.54208e-23)
(0.093785 0.000375168 -5.56272e-23)
(0.0935358 0.000397387 5.16377e-24)
(0.0932724 0.000421045 6.88795e-23)
(0.0929941 0.000446199 -9.51334e-23)
(0.0927 0.000472918 -9.2836e-23)
(0.0923891 0.0005013 8.18039e-23)
(0.0920604 0.000531481 0)
(0.0917127 0.000563658 5.70745e-24)
(0.0913449 0.000598106 -1.74369e-23)
(0.0909554 0.000635192 -1.97651e-22)
(0.0905427 0.000675374 1.89635e-22)
(0.0901046 0.000719209 -2.01588e-22)
(0.089639 0.00076736 -1.89206e-23)
(0.0891429 0.000820595 6.45223e-24)
(0.0886133 0.000879774 0)
(0.0880462 0.000945844 -6.76252e-24)
(0.0874374 0.00101984 -2.17875e-22)
(0.0867818 0.0011029 4.55279e-22)
(0.0860738 0.00119629 2.51101e-22)
(0.0853069 0.00130143 -4.73626e-22)
(0.0844738 0.00141995 5.10056e-22)
(0.0835662 0.00155379 -5.17565e-22)
(0.0825746 0.00170521 -8.21463e-24)
(0.0814879 0.00187697 0)
(0.0802937 0.00207244 0)
(0.078977 0.00229576 0)
(0.0775207 0.00255203 0)
(0.0759042 0.00284761 -9.77775e-24)
(0.0741031 0.00319035 -6.63784e-22)
(0.0720882 0.00358995 -2.86377e-23)
(0.0698244 0.00405818 6.90623e-22)
(0.0672694 0.00460899 7.53681e-22)
(0.0643726 0.00525817 -7.52682e-22)
(0.0610742 0.00602202 -2.50482e-23)
(0.0573054 0.00691442 -2.62037e-23)
(0.05299 0.00794123 -9.05707e-22)
(0.0480505 0.00909043 8.75849e-22)
(0.0424193 0.0103166 -2.99213e-23)
(0.0360615 0.0115173 1.59261e-23)
(0.0290118 0.0125003 -1.10607e-21)
(0.0214165 0.0129423 1.1057e-21)
(0.0136042 0.0123477 -2.31016e-21)
(0.00641237 0.00996489 2.27155e-21)
(0.00154772 0.00461806 -2.32775e-21)
(0.095048 0.000446819 -2.8182e-23)
(0.0948672 0.000471491 -9.87384e-24)
(0.0946769 0.000497906 3.81255e-23)
(0.0944765 0.000526201 -7.83648e-23)
(0.0942653 0.000556467 1.6765e-22)
(0.0940426 0.000588827 -7.94038e-23)
(0.0938076 0.000623393 1.42993e-26)
(0.0935595 0.000660262 1.02997e-23)
(0.0932974 0.000699531 1.79485e-22)
(0.0930206 0.0007413 -1.68834e-22)
(0.092728 0.000785688 0)
(0.0924187 0.000832861 1.47637e-26)
(0.0920917 0.000883051 0)
(0.0917459 0.000936592 1.96022e-22)
(0.0913799 0.000993944 -1.72786e-22)
(0.0909923 0.00105572 -3.72242e-22)
(0.0905816 0.00112268 2.05489e-23)
(0.0901456 0.00119574 -3.91813e-22)
(0.089682 0.00127602 1.26605e-23)
(0.0891883 0.00136477 -4.19305e-22)
(0.0886613 0.00146342 4.32149e-22)
(0.0880972 0.00157354 -4.40173e-22)
(0.0874918 0.00169684 4.53667e-22)
(0.0868404 0.00183521 1.42758e-23)
(0.0861374 0.00199074 -1.46657e-23)
(0.0853767 0.00216579 1.50809e-23)
(0.0845512 0.00236309 -5.05152e-22)
(0.0836528 0.00258582 5.20703e-22)
(0.0826725 0.00283776 5.54204e-22)
(0.0815999 0.00312347 -5.37194e-22)
(0.0804228 0.00344854 0)
(0.0791275 0.00381978 0)
(0.0776976 0.00424563 1.89018e-23)
(0.0761141 0.00473651 1.30356e-21)
(0.0743546 0.00530529 3.22448e-23)
(0.0723923 0.00596777 -1.3129e-21)
(0.0701955 0.00674311 0)
(0.0677264 0.00765382 -2.29982e-23)
(0.06494 0.00872519 1.60451e-21)
(0.0617834 0.00998297 -3.20554e-21)
(0.0581953 0.0114485 3.40336e-21)
(0.0541073 0.0131293 1.05733e-22)
(0.0494469 0.0150029 -1.77266e-21)
(0.0441452 0.0169916 -1.92569e-21)
(0.0381513 0.0189248 1.98459e-21)
(0.0314574 0.0204858 1.54102e-24)
(0.0241303 0.0211442 -3.38544e-23)
(0.0163659 0.0200865 2.23039e-21)
(0.00872108 0.0161157 -2.15977e-21)
(0.00245906 0.00739997 -2.15978e-21)
(0.0950746 0.000623149 1.85723e-23)
(0.0948946 0.000657492 -9.42064e-24)
(0.0947052 0.000694238 1.96395e-26)
(0.0945059 0.000733555 9.68578e-24)
(0.094296 0.000775618 -1.97405e-26)
(0.0940747 0.000820599 1.60754e-22)
(0.0938413 0.000868654 -3.0371e-22)
(0.093595 0.000919926 1.63195e-22)
(0.093335 0.000974555 -1.04421e-23)
(0.0930604 0.00103269 1.92889e-22)
(0.0927702 0.0010945 -1.7157e-22)
(0.0924635 0.00116024 -3.55799e-22)
(0.0921392 0.00123024 7.18281e-22)
(0.0917961 0.00130496 -7.3218e-22)
(0.0914331 0.00138506 7.46764e-22)
(0.0910486 0.0014714 -7.50257e-22)
(0.090641 0.00156503 -3.97124e-22)
(0.0902084 0.00166725 2.27427e-26)
(0.0897485 0.00177957 0)
(0.0892587 0.00190377 -4.08348e-22)
(0.088736 0.00204179 4.2117e-22)
(0.0881768 0.00219582 0)
(0.0875773 0.00236823 -9.0907e-22)
(0.0869328 0.00256163 8.94322e-22)
(0.0862381 0.00277893 1.48052e-23)
(0.0854873 0.00302343 -3.61059e-26)
(0.0846739 0.0032989 1.56498e-23)
(0.0837903 0.00360977 0)
(0.082828 0.0039613 -5.16869e-26)
(0.0817774 0.00435984 0)
(0.0806273 0.00481307 -1.778e-23)
(0.0793652 0.00533044 1.20286e-21)
(0.0779764 0.00592354 -1.20253e-21)
(0.0764441 0.00660663 -1.99057e-23)
(0.0747486 0.00739726 4.12359e-23)
(0.072867 0.00831687 -1.42326e-21)
(0.0707728 0.0093912 1.37902e-21)
(0.0684346 0.0106503 2.33959e-23)
(0.0658159 0.0121275 -3.63387e-25)
(0.062874 0.013856 2.50287e-23)
(0.0595593 0.0158618 -1.72232e-21)
(0.0558145 0.0181511 3.4847e-21)
(0.0515749 0.0206876 -1.81804e-21)
(0.0467691 0.0233592 1.88652e-21)
(0.0413227 0.0259278 -1.97499e-21)
(0.035163 0.0279607 -3.93318e-21)
(0.0282321 0.0287389 8.02519e-21)
(0.0205265 0.0271496 -4.06328e-21)
(0.0122238 0.0215919 0)
(0.00381352 0.0097988 -3.81471e-21)
(0.0951098 0.000797091 -9.21188e-24)
(0.0949308 0.000840853 -3.76104e-23)
(0.0947427 0.000887655 1.13987e-22)
(0.0945449 0.000937728 -1.53866e-22)
(0.0943367 0.000991303 6.77573e-23)
(0.0941174 0.0010486 9.93008e-24)
(0.0938863 0.00110982 -1.00924e-23)
(0.0936425 0.00117516 -2.48359e-26)
(0.0933853 0.0012448 1.04401e-23)
(0.0931137 0.00131896 -2.1228e-23)
(0.0928268 0.00139787 -3.49129e-22)
(0.0925237 0.00148184 3.60313e-22)
(0.0922032 0.00157134 -3.51691e-22)
(0.0918642 0.00166697 3.63046e-22)
(0.0915054 0.00176957 0)
(0.0911254 0.00188024 -2.53255e-26)
(0.0907225 0.00200035 0)
(0.0902949 0.00213152 -3.91684e-22)
(0.0898403 0.00227569 4.17135e-22)
(0.0893564 0.00243509 -1.31045e-23)
(0.0888404 0.00261221 -8.8318e-22)
(0.0882888 0.0028098 8.70142e-22)
(0.087698 0.00303085 -1.41509e-23)
(0.0870638 0.00327869 0)
(0.0863814 0.00355702 0)
(0.0856453 0.00387001 -1.01461e-21)
(0.0848496 0.00422248 9.83785e-22)
(0.0839873 0.00462005 0)
(0.0830508 0.00506941 -3.37702e-23)
(0.0820315 0.00557858 0)
(0.0809197 0.00615729 1.8092e-23)
(0.0797043 0.00681741 -1.86587e-23)
(0.0783731 0.00757344 -1.94387e-23)
(0.0769119 0.00844313 2.00543e-23)
(0.075305 0.00944818 1.32105e-21)
(0.0735346 0.0106148 -1.36345e-21)
(0.0715809 0.0119744 2.96995e-21)
(0.0694213 0.013563 -2.9719e-21)
(0.0670305 0.0154197 3.16274e-21)
(0.0643794 0.0175826 9.5878e-23)
(0.0614335 0.0200794 -3.33784e-21)
(0.0581509 0.022911 -2.67345e-23)
(0.0544771 0.0260247 1.30815e-24)
(0.0503387 0.029273 1.74328e-24)
(0.0456318 0.0323553 2.31583e-24)
(0.0402027 0.0347385 -5.81615e-23)
(0.033826 0.0355485 -2.6676e-23)
(0.0262188 0.0334172 -2.53175e-23)
(0.017065 0.0263557 0)
(0.00563615 0.0118057 8.01398e-24)
(0.0951532 0.00096801 -4.57128e-23)
(0.0949756 0.00102095 2.74978e-23)
(0.0947893 0.00107759 9.40224e-24)
(0.0945935 0.00113819 1.44252e-22)
(0.0943876 0.00120305 -1.4431e-22)
(0.0941709 0.00127243 1.49181e-22)
(0.0939427 0.0013466 -3.31091e-22)
(0.0937023 0.00142579 4.71165e-22)
(0.0934487 0.00151026 -3.29991e-22)
(0.0931811 0.00160026 -3.42075e-22)
(0.0928986 0.0016961 -1.70458e-23)
(0.0926002 0.00179822 6.94287e-22)
(0.0922848 0.00190716 -7.31072e-22)
(0.0919512 0.0020237 3.40932e-22)
(0.0915981 0.00214888 3.67693e-22)
(0.0912242 0.00228406 3.84164e-22)
(0.0908279 0.00243089 -2.93806e-23)
(0.0904073 0.00259136 7.82979e-22)
(0.0899605 0.00276782 8.08198e-22)
(0.0894851 0.00296294 2.02596e-23)
(0.0889786 0.00317973 -8.56669e-22)
(0.0884378 0.00342149 0)
(0.0878596 0.00369185 0)
(0.08724 0.00399482 -9.54686e-22)
(0.0865748 0.00433487 9.40973e-22)
(0.0858593 0.00471706 1.01381e-21)
(0.0850879 0.00514723 -1.01531e-21)
(0.0842549 0.0056322 0)
(0.0833535 0.00618004 1.13428e-21)
(0.0823766 0.00680046 -1.13647e-21)
(0.081316 0.00750511 0)
(0.0801629 0.00830814 -2.46287e-21)
(0.0789078 0.00922671 2.48568e-21)
(0.0775402 0.0102816 -2.05603e-23)
(0.0760492 0.011498 -2.75427e-21)
(0.0744234 0.0129057 2.77982e-21)
(0.0726511 0.0145397 0)
(0.0707207 0.0164393 3.13116e-21)
(0.0686208 0.0186455 -3.11188e-21)
(0.0663392 0.0211953 2.52791e-23)
(0.0638609 0.0241105 3.45027e-21)
(0.0611634 0.0273781 -6.92825e-21)
(0.0582072 0.0309198 1.44006e-23)
(0.0549204 0.0345465 3.39728e-23)
(0.051171 0.0378967 3.60751e-21)
(0.046721 0.0403577 4.02961e-24)
(0.0411589 0.0409533 -3.09275e-21)
(0.0338442 0.0381636 3.17051e-21)
(0.0237187 0.0297814 0)
(0.00819306 0.0131158 2.77543e-23)
(0.0952047 0.00113511 9.00486e-24)
(0.0950291 0.0011967 8.29165e-23)
(0.0948451 0.00126266 -7.3943e-23)
(0.0946519 0.0013333 9.48618e-24)
(0.0944491 0.00140895 1.45743e-22)
(0.0942358 0.00148993 -1.45978e-22)
(0.0940115 0.00157656 -3.12501e-22)
(0.0937752 0.00166913 4.79637e-24)
(0.0935263 0.00176794 -5.68144e-24)
(0.0932639 0.00187333 3.46808e-22)
(0.092987 0.0019857 -3.38504e-22)
(0.0926946 0.00210557 7.18173e-22)
(0.0923858 0.00223364 -3.57787e-22)
(0.0920593 0.00237086 1.15586e-23)
(0.091714 0.00251848 1.18245e-23)
(0.0913484 0.00267812 7.81823e-22)
(0.090961 0.00285176 -4.89294e-24)
(0.0905503 0.00304176 8.15888e-22)
(0.0901142 0.00325088 1.30357e-23)
(0.0896508 0.00348226 0)
(0.0891578 0.00373945 0)
(0.0886324 0.0040263 -9.14889e-22)
(0.0880718 0.0043471 9.17201e-22)
(0.0874727 0.00470656 0)
(0.0868314 0.00510998 1.54301e-23)
(0.0861439 0.00556336 0)
(0.0854058 0.00607363 -1.06598e-21)
(0.0846123 0.00664889 2.17051e-21)
(0.0837581 0.00729873 -1.10461e-21)
(0.0828376 0.00803461 -2.34243e-21)
(0.0818449 0.00887027 -7.96351e-23)
(0.0807738 0.00982222 -8.42743e-23)
(0.079618 0.0109103 -8.88788e-23)
(0.0783715 0.0121584 2.63764e-21)
(0.0770288 0.0135945 2.83451e-21)
(0.0755857 0.0152514 -2.84125e-21)
(0.0740396 0.017166 0)
(0.0723909 0.0193774 3.15519e-21)
(0.0706428 0.0219231 -3.16251e-21)
(0.0688014 0.0248301 -3.36884e-21)
(0.0668725 0.0281006 3.3503e-21)
(0.064856 0.0316884 2.74508e-23)
(0.0627316 0.0354643 3.38414e-21)
(0.0604364 0.0391694 -1.07348e-22)
(0.0578255 0.042358 -3.34647e-21)
(0.054604 0.0443383 2.554e-23)
(0.0502278 0.0441037 0)
(0.0437843 0.0401957 -2.01936e-23)
(0.033306 0.0306258 -9.10392e-22)
(0.0132153 0.0130534 4.59238e-22)
(-0.000248746 0.000296633 0)
(-0.00090921 0.000433429 2.95989e-22)
(-0.00160936 0.000301061 -2.96433e-22)
(-0.00192178 2.99305e-05 -2.81673e-22)
(-0.00166235 -0.000310177 2.82097e-22)
(-0.000780649 -0.000668629 -8.24174e-24)
(0.000731616 -0.00101294 0)
(0.00283637 -0.00132705 0)
(0.00546814 -0.00159999 0)
(0.00855196 -0.00182653 0)
(0.0120056 -0.00200526 0)
(0.0157462 -0.0021373 0)
(0.0196936 -0.00222545 0)
(0.0237735 -0.0022736 0)
(0.0279182 -0.00228629 0)
(0.0320681 -0.00226832 3.00017e-23)
(0.0361717 -0.00222452 -2.83472e-23)
(0.040186 -0.0021596 0)
(0.0440756 -0.00207796 0)
(0.0478129 -0.00198367 -9.68506e-24)
(0.0513769 -0.00188038 9.69986e-24)
(0.0547534 -0.0017713 -3.7054e-24)
(0.0579327 -0.0016592 2.04178e-25)
(0.0609105 -0.00154645 0)
(0.0636863 -0.001435 1.32346e-26)
(0.0662634 -0.00132643 0)
(0.0686471 -0.00122202 0)
(0.0708451 -0.00112272 0)
(0.0728668 -0.00102916 -1.27625e-25)
(0.0747227 -0.000941766 0)
(0.0764238 -0.000860736 1.31858e-25)
(0.0779814 -0.000786098 -1.25445e-25)
(0.079407 -0.000717736 1.15387e-25)
(0.0807116 -0.000655426 -9.0676e-25)
(0.0819059 -0.000598859 8.93862e-25)
(0.0830002 -0.000547672 4.83599e-25)
(0.0840037 -0.000501468 -9.30764e-25)
(0.0849252 -0.000459834 4.31579e-25)
(0.0857728 -0.000422357 2.78863e-26)
(0.0865538 -0.000388636 -1.33811e-26)
(0.0872746 -0.00035829 0)
(0.0879413 -0.000330963 1.35539e-26)
(0.088559 -0.00030633 -1.45598e-25)
(0.0891326 -0.000284095 1.5726e-25)
(0.0896663 -0.000263992 -4.79794e-26)
(0.0901637 -0.000245787 1.8015e-25)
(0.0906282 -0.00022927 -5.56112e-26)
(0.0910629 -0.000214257 -1.53254e-25)
(0.0914703 -0.000200587 7.81571e-26)
(0.0918529 -0.000188113 -8.97608e-26)
(-0.000294355 0.00085132 -1.15341e-21)
(-0.000932761 0.00121478 -1.23854e-21)
(-0.00143766 0.000815326 1.22052e-21)
(-0.00150397 1.53558e-05 -5.58035e-22)
(-0.00100102 -0.000984683 5.59577e-22)
(0.000104586 -0.00203597 8.29882e-24)
(0.00180221 -0.00304773 -1.58513e-23)
(0.0040475 -0.00397115 -4.52891e-22)
(0.00677787 -0.00477425 4.38869e-22)
(0.00992085 -0.00544143 -1.18878e-23)
(0.0133988 -0.00596827 -1.0502e-23)
(0.0171339 -0.00635779 2.6535e-22)
(0.0210516 -0.00661806 -2.65704e-22)
(0.0250824 -0.00676038 -1.88771e-22)
(0.0291636 -0.00679797 3.36479e-23)
(0.0332395 -0.00674492 1.55582e-22)
(0.0372625 -0.00661545 -1.70852e-24)
(0.0411925 -0.00642338 -2.86967e-24)
(0.0449968 -0.0061817 0)
(0.0486497 -0.00590239 0)
(0.0521321 -0.00559627 0)
(0.0554306 -0.00527283 -3.46428e-25)
(0.0585369 -0.00494028 1.00795e-23)
(0.0614465 -0.00460568 -1.11261e-23)
(0.0641599 -0.00427487 -1.09283e-25)
(0.0666802 -0.00395249 -1.61039e-24)
(0.0690129 -0.00364233 4.54068e-24)
(0.0711653 -0.0033472 -2.83567e-24)
(0.0731465 -0.00306908 1.27954e-25)
(0.0749668 -0.00280919 2.16409e-25)
(0.0766367 -0.00256815 -1.32145e-25)
(0.0781672 -0.00234605 3.37855e-25)
(0.0795692 -0.00214255 -3.24037e-24)
(0.0808535 -0.001957 6.34272e-24)
(0.0820303 -0.00178848 -2.85579e-24)
(0.0831094 -0.00163594 1.97561e-25)
(0.0841 -0.00149819 -5.83291e-26)
(0.0850104 -0.00137403 0)
(0.0858484 -0.00126223 3.00225e-25)
(0.086621 -0.0011616 -2.75713e-25)
(0.0873347 -0.00107101 1.30851e-25)
(0.0879951 -0.000989417 -1.97e-25)
(0.0886075 -0.000915848 2.58421e-26)
(0.0891763 -0.000849427 2.31307e-25)
(0.0897057 -0.000789365 -4.0888e-25)
(0.0901995 -0.000734963 -5.77805e-26)
(0.0906607 -0.000685599 -4.94806e-25)
(0.0910924 -0.000640726 -1.11831e-25)
(0.0914972 -0.000599858 1.45724e-25)
(0.0918774 -0.000562559 2.63685e-25)
(-0.000376459 0.00128469 -1.2229e-21)
(-0.000948181 0.00174566 1.30933e-21)
(-0.00105039 0.00107719 -1.27018e-21)
(-0.000636966 -0.000214442 -1.89978e-23)
(0.000333425 -0.00180718 -6.67137e-25)
(0.00186112 -0.00348071 -1.06219e-21)
(0.00390325 -0.00509935 1.09711e-21)
(0.00640766 -0.00657861 9.32481e-22)
(0.00931636 -0.00786723 -7.55467e-23)
(0.0125631 -0.00893989 -1.55652e-21)
(0.0160793 -0.00978863 1.39933e-21)
(0.0197973 -0.0104175 -6.40117e-22)
(0.0236527 -0.0108386 -8.41781e-24)
(0.0275858 -0.0110697 0)
(0.0315427 -0.0111315 3.41429e-22)
(0.0354757 -0.0110465 -6.7143e-23)
(0.0393437 -0.0108374 -2.69788e-22)
(0.0431125 -0.0105263 6.12527e-24)
(0.046754 -0.0101342 0)
(0.0502465 -0.00968046 0)
(0.0535737 -0.00918258 3.56898e-23)
(0.0567244 -0.00865595 -3.46702e-23)
(0.0596915 -0.00811398 -1.51919e-23)
(0.0624726 -0.00756815 1.60401e-23)
(0.0650672 -0.0070281 2.76333e-25)
(0.0674798 -0.00650154 -1.28126e-25)
(0.0697154 -0.00599446 2.00587e-26)
(0.071781 -0.0055116 4.43241e-24)
(0.0736852 -0.00505622 -4.49242e-24)
(0.0754376 -0.0046304 5.64651e-24)
(0.0770479 -0.00423517 -6.00429e-24)
(0.0785266 -0.00387074 -2.13e-25)
(0.0798835 -0.0035366 -5.34005e-24)
(0.0811288 -0.00323171 9.78974e-24)
(0.082272 -0.00295463 -4.78311e-24)
(0.0833221 -0.00270366 -1.64713e-24)
(0.0842877 -0.00247688 1.46274e-24)
(0.0851765 -0.00227235 0)
(0.085996 -0.00208806 -2.67703e-26)
(0.0867526 -0.00192211 0)
(0.0874523 -0.00177264 5.26981e-25)
(0.0881007 -0.00163796 -5.09998e-25)
(0.0887025 -0.00151646 7.85466e-26)
(0.089262 -0.00140673 -1.48716e-26)
(0.0897833 -0.00130747 9.32992e-25)
(0.0902698 -0.00121754 -1.89842e-24)
(0.0907247 -0.00113592 1.07615e-24)
(0.0911507 -0.0010617 -6.7527e-25)
(0.0915503 -0.000994082 4.85329e-25)
(0.0919258 -0.000932336 1.69175e-25)
(-0.000455941 0.00148505 -2.71296e-21)
(-0.000857548 0.0018876 0)
(-0.00034423 0.000972888 2.67188e-21)
(0.000760256 -0.000732583 -5.27223e-21)
(0.00238386 -0.00282549 2.6188e-21)
(0.00447202 -0.00502517 1.1119e-21)
(0.00696467 -0.00715708 -1.16735e-21)
(0.0098047 -0.00910919 9.78875e-22)
(0.0129368 -0.0108151 -1.8803e-21)
(0.0163052 -0.0122403 8.87127e-22)
(0.0198549 -0.0133721 1.20454e-23)
(0.023533 -0.0142141 6.65676e-25)
(0.0272892 -0.0147807 8.56207e-24)
(0.0310771 -0.015094 -4.52623e-22)
(0.0348546 -0.0151808 4.38802e-22)
(0.0385847 -0.0150701 1.06109e-23)
(0.0422351 -0.0147918 -4.09765e-24)
(0.0457792 -0.0143753 1.99298e-22)
(0.049195 -0.0138486 -1.98923e-22)
(0.0524656 -0.0132374 -2.34088e-24)
(0.0555785 -0.0125654 0)
(0.0585254 -0.0118533 3.00397e-25)
(0.0613017 -0.0111193 0)
(0.0639047 -0.0103789 7.18355e-25)
(0.0663369 -0.0096454 2.12366e-25)
(0.0686006 -0.0089294 1.29338e-25)
(0.0707023 -0.00823916 -3.16686e-24)
(0.0726479 -0.00758113 3.29449e-24)
(0.0744455 -0.00695988 0)
(0.0761037 -0.00637832 3.19275e-24)
(0.0776314 -0.00583799 -3.12834e-24)
(0.0790377 -0.00533925 0)
(0.0803318 -0.0048815 -7.77302e-26)
(0.0815225 -0.00446342 2.99598e-24)
(0.0826184 -0.00408311 -5.23133e-24)
(0.0836277 -0.00373831 3.98628e-24)
(0.084558 -0.00342648 -2.60384e-24)
(0.0854164 -0.00314499 1.24063e-24)
(0.0862095 -0.00289117 -2.9854e-25)
(0.0869432 -0.00266243 5.83162e-25)
(0.0876232 -0.00245627 -4.8469e-25)
(0.0882542 -0.00227037 -8.29283e-26)
(0.0888408 -0.00210259 -1.54127e-24)
(0.0893871 -0.00195097 3.63717e-24)
(0.0898967 -0.00181375 -1.87425e-24)
(0.0903728 -0.00168938 1.61946e-26)
(0.0908184 -0.00157645 1.49985e-25)
(0.0912361 -0.00147372 -1.29579e-26)
(0.0916282 -0.0013801 -1.77826e-25)
(0.091997 -0.00129454 3.90094e-25)
(-0.000414689 0.00138863 -2.28638e-24)
(-0.000406397 0.00160306 -2.56557e-23)
(0.000907021 0.000479256 -2.43959e-23)
(0.00282932 -0.0015758 -2.31335e-23)
(0.0051988 -0.00405595 -4.26374e-23)
(0.00792134 -0.0066485 -9.6276e-25)
(0.0109081 -0.00916735 1.82786e-23)
(0.0141006 -0.0114862 -1.77249e-23)
(0.0174534 -0.0135253 -1.62212e-23)
(0.020926 -0.0152398 1.71236e-21)
(0.0244809 -0.0166109 -2.19717e-22)