/*--------------------------------*- C++ -*----------------------------------*\
| =========                 |                                                 |
| \\      /  F ield         | OpenFOAM: The Open Source CFD Toolbox           |
|  \\    /   O peration     | Version:  2412                                  |
|   \\  /    A nd           | Website:  www.openfoam.com                      |
|    \\/     M anipulation  |                                                 |
\*---------------------------------------------------------------------------*/
FoamFile
{
    version     2.0;
    format      ascii;
    arch        "LSB;label=32;scalar=64";
    class       volVectorField;
    location    "10.5";
    object      vorticity;
}
// * * * * * * * * * * * * * * * * * * * * * * * * * * * * * * * * * * * * * //

dimensions      [0 0 -1 0 0 0 0];

internalField   nonuniform List<vector> 
63420
(
(0 0 5.31014e-06)
(0 0 7.39978e-06)
(0 0 1.58376e-05)
(0 0 2.62938e-05)
(0 0 2.89103e-05)
(0 0 1.775e-05)
(0 0 -4.15026e-06)
(0 0 -2.7926e-05)
(0 0 -4.52868e-05)
(0 0 -5.25236e-05)
(0 0 -5.05825e-05)
(0 0 -4.28922e-05)
(0 0 -3.30997e-05)
(0 0 -2.38015e-05)
(0 0 -1.62884e-05)
(0 0 -1.08543e-05)
(0 0 -7.24326e-06)
(0 0 -5.00453e-06)
(0 0 -3.69802e-06)
(0 0 -2.97771e-06)
(0 0 -2.60385e-06)
(0 0 -2.42433e-06)
(0 0 -2.34884e-06)
(0 0 -2.32654e-06)
(0 0 -2.33005e-06)
(0 0 -2.34521e-06)
(0 0 -2.36489e-06)
(0 0 -2.38565e-06)
(0 0 -2.4058e-06)
(0 0 -2.4245e-06)
(0 0 -2.44131e-06)
(0 0 -2.45594e-06)
(0 0 -2.46818e-06)
(0 0 -2.47789e-06)
(0 0 -2.48493e-06)
(0 0 -2.4892e-06)
(0 0 -2.49059e-06)
(0 0 -2.48897e-06)
(0 0 -2.48419e-06)
(0 0 -2.47609e-06)
(0 0 -2.46444e-06)
(0 0 -2.44899e-06)
(0 0 -2.42948e-06)
(0 0 -2.4056e-06)
(0 0 -2.377e-06)
(0 0 -2.3433e-06)
(0 0 -2.30405e-06)
(0 0 -2.2586e-06)
(0 0 -2.20565e-06)
(0 0 -2.14127e-06)
(0 0 -2.05167e-06)
(0 0 -1.88861e-06)
(0 0 -1.48985e-06)
(0 0 -3.33186e-07)
(0 4.67314e-23 3.19276e-06)
(0 0 1.59508e-05)
(0 0 2.21451e-05)
(0 0 4.72517e-05)
(0 0 7.84803e-05)
(0 0 8.6528e-05)
(0 0 5.36514e-05)
(0 0 -1.12422e-05)
(0 0 -8.18682e-05)
(0 0 -0.000133574)
(0 0 -0.000155278)
(0 0 -0.000149728)
(0 0 -0.00012707)
(0 0 -9.8122e-05)
(0 0 -7.05974e-05)
(0 0 -4.83396e-05)
(0 0 -3.22317e-05)
(0 0 -2.15222e-05)
(0 0 -1.48789e-05)
(0 0 -1.09993e-05)
(0 0 -8.85831e-06)
(0 0 -7.74581e-06)
(0 0 -7.21085e-06)
(0 0 -6.98556e-06)
(0 0 -6.91907e-06)
(0 0 -6.92999e-06)
(0 0 -6.97602e-06)
(0 0 -7.03583e-06)
(0 0 -7.09895e-06)
(0 0 -7.16025e-06)
(0 0 -7.21721e-06)
(0 0 -7.26852e-06)
(0 0 -7.31336e-06)
(0 0 -7.35115e-06)
(0 0 -7.38142e-06)
(0 0 -7.40377e-06)
(0 0 -7.41783e-06)
(0 0 -7.42321e-06)
(0 0 -7.4195e-06)
(0 0 -7.4062e-06)
(0 0 -7.38275e-06)
(0 0 -7.34853e-06)
(0 0 -7.30282e-06)
(0 0 -7.24482e-06)
(0 0 -7.1736e-06)
(0 0 -7.08807e-06)
(0 0 -6.987e-06)
(0 0 -6.86891e-06)
(0 0 -6.73179e-06)
(0 0 -6.5717e-06)
(0 0 -6.37714e-06)
(0 0 -6.10812e-06)
(0 0 -5.62481e-06)
(0 0 -4.45629e-06)
(0 0 -1.08387e-06)
(0 4.7199e-23 9.18686e-06)
(0 0 2.66204e-05)
(0 0 3.67309e-05)
(0 0 7.80167e-05)
(0 0 0.00012978)
(0 0 0.000143956)
(0 0 9.10923e-05)
(0 0 -1.4626e-05)
(0 0 -0.00013031)
(0 0 -0.000215477)
(0 0 -0.000251739)
(0 0 -0.000243376)
(0 0 -0.00020687)
(0 0 -0.000159894)
(0 0 -0.000115096)
(0 0 -7.88086e-05)
(0 0 -5.25176e-05)
(0 0 -3.50225e-05)
(0 0 -2.41624e-05)
(0 0 -1.78159e-05)
(0 0 -1.43114e-05)
(0 0 -1.24891e-05)
(0 0 -1.16119e-05)
(0 0 -1.12421e-05)
(0 0 -1.11326e-05)
(0 0 -1.11502e-05)
(0 0 -1.12256e-05)
(0 0 -1.13238e-05)
(0 0 -1.14277e-05)
(0 0 -1.15287e-05)
(0 0 -1.16227e-05)
(0 0 -1.17076e-05)
(0 0 -1.17821e-05)
(0 0 -1.18451e-05)
(0 0 -1.18961e-05)
(0 0 -1.19342e-05)
(0 0 -1.1959e-05)
(0 0 -1.19698e-05)
(0 0 -1.19657e-05)
(0 0 -1.19461e-05)
(0 0 -1.19101e-05)
(0 0 -1.18566e-05)
(0 0 -1.17845e-05)
(0 0 -1.16924e-05)
(0 0 -1.1579e-05)
(0 0 -1.14423e-05)
(0 0 -1.12804e-05)
(0 0 -1.10909e-05)
(0 0 -1.08705e-05)
(0 0 -1.06131e-05)
(0 0 -1.03009e-05)
(0 0 -9.87223e-06)
(0 0 -9.11064e-06)
(0 0 -7.28389e-06)
(0 0 -2.01896e-06)
(0 2.78625e-22 1.40511e-05)
(0 0 3.73352e-05)
(0 0 5.106e-05)
(0 0 0.000107739)
(0 0 0.000179656)
(0 0 0.000201077)
(0 0 0.000130999)
(0 0 -1.20678e-05)
(0 0 -0.000169936)
(0 0 -0.000287146)
(0 0 -0.000338113)
(0 0 -0.000328212)
(0 0 -0.000279652)
(0 0 -0.000216455)
(0 0 -0.000155912)
(0 0 -0.000106742)
(0 0 -7.10539e-05)
(0 0 -4.7275e-05)
(0 0 -3.24989e-05)
(0 0 -2.38563e-05)
(0 0 -1.90798e-05)
(0 0 -1.65937e-05)
(0 0 -1.53957e-05)
(0 0 -1.48895e-05)
(0 0 -1.47388e-05)
(0 0 -1.47619e-05)
(0 0 -1.48643e-05)
(0 0 -1.49982e-05)
(0 0 -1.51401e-05)
(0 0 -1.52785e-05)
(0 0 -1.54077e-05)
(0 0 -1.55248e-05)
(0 0 -1.56279e-05)
(0 0 -1.57159e-05)
(0 0 -1.57878e-05)
(0 0 -1.58427e-05)
(0 0 -1.58797e-05)
(0 0 -1.58981e-05)
(0 0 -1.58967e-05)
(0 0 -1.58747e-05)
(0 0 -1.58306e-05)
(0 0 -1.57633e-05)
(0 0 -1.56713e-05)
(0 0 -1.55526e-05)
(0 0 -1.54054e-05)
(0 0 -1.52272e-05)
(0 0 -1.50154e-05)
(0 0 -1.47666e-05)
(0 0 -1.44768e-05)
(0 0 -1.41381e-05)
(0 0 -1.37285e-05)
(0 0 -1.31718e-05)
(0 0 -1.21993e-05)
(0 0 -9.89475e-06)
(0 0 -3.26365e-06)
(0 -1.82961e-22 1.70665e-05)
(0 0 4.81085e-05)
(0 0 6.50492e-05)
(0 0 0.000136083)
(0 0 0.000227638)
(0 0 0.000257758)
(0 0 0.000174105)
(0 0 -1.73399e-06)
(0 0 -0.000197995)
(0 0 -0.000345368)
(0 0 -0.000411219)
(0 0 -0.000401449)
(0 0 -0.000343191)
(0 0 -0.000266152)
(0 0 -0.000191875)
(0 0 -0.000131332)
(0 0 -8.72833e-05)
(0 0 -5.78814e-05)
(0 0 -3.95853e-05)
(0 0 -2.88707e-05)
(0 0 -2.29421e-05)
(0 0 -1.98522e-05)
(0 0 -1.83606e-05)
(0 0 -1.77281e-05)
(0 0 -1.75377e-05)
(0 0 -1.75639e-05)
(0 0 -1.76891e-05)
(0 0 -1.78541e-05)
(0 0 -1.80295e-05)
(0 0 -1.82011e-05)
(0 0 -1.83618e-05)
(0 0 -1.85079e-05)
(0 0 -1.86373e-05)
(0 0 -1.87485e-05)
(0 0 -1.88403e-05)
(0 0 -1.89116e-05)
(0 0 -1.89614e-05)
(0 0 -1.89886e-05)
(0 0 -1.8992e-05)
(0 0 -1.89704e-05)
(0 0 -1.89222e-05)
(0 0 -1.8846e-05)
(0 0 -1.87397e-05)
(0 0 -1.86014e-05)
(0 0 -1.84283e-05)
(0 0 -1.82177e-05)
(0 0 -1.79663e-05)
(0 0 -1.76702e-05)
(0 0 -1.73245e-05)
(0 0 -1.69205e-05)
(0 0 -1.64345e-05)
(0 0 -1.5785e-05)
(0 0 -1.46831e-05)
(0 0 -1.21344e-05)
(0 0 -4.84394e-06)
(0 9.03245e-23 1.767e-05)
(0 0 5.89488e-05)
(0 0 7.86335e-05)
(0 0 0.000162786)
(0 0 0.000273353)
(0 0 0.00031387)
(0 0 0.000220927)
(0 0 1.77251e-05)
(0 0 -0.000212435)
(0 0 -0.000387733)
(0 0 -0.000468667)
(0 0 -0.000460989)
(0 0 -0.000395813)
(0 0 -0.000307741)
(0 0 -0.000222106)
(0 0 -0.000151974)
(0 0 -0.00010079)
(0 0 -6.65463e-05)
(0 0 -4.51982e-05)
(0 0 -3.26764e-05)
(0 0 -2.57369e-05)
(0 0 -2.21136e-05)
(0 0 -2.03597e-05)
(0 0 -1.9612e-05)
(0 0 -1.93827e-05)
(0 0 -1.94078e-05)
(0 0 -1.95498e-05)
(0 0 -1.97392e-05)
(0 0 -1.99415e-05)
(0 0 -2.014e-05)
(0 0 -2.03264e-05)
(0 0 -2.04964e-05)
(0 0 -2.06475e-05)
(0 0 -2.0778e-05)
(0 0 -2.08865e-05)
(0 0 -2.09719e-05)
(0 0 -2.10329e-05)
(0 0 -2.10683e-05)
(0 0 -2.10767e-05)
(0 0 -2.10566e-05)
(0 0 -2.10064e-05)
(0 0 -2.09242e-05)
(0 0 -2.08079e-05)
(0 0 -2.06549e-05)
(0 0 -2.04624e-05)
(0 0 -2.0227e-05)
(0 0 -1.99451e-05)
(0 0 -1.96122e-05)
(0 0 -1.9223e-05)
(0 0 -1.87687e-05)
(0 0 -1.82265e-05)
(0 0 -1.75198e-05)
(0 0 -1.63771e-05)
(0 0 -1.38574e-05)
(0 0 -6.78431e-06)
(0 4.45671e-22 1.53147e-05)
(0 0 6.9858e-05)
(0 0 9.17701e-05)
(0 0 0.000187674)
(0 0 0.000316529)
(0 0 0.000369251)
(0 0 0.000271678)
(0 0 4.70299e-05)
(0 0 -0.000212089)
(0 0 -0.000412828)
(0 0 -0.000509025)
(0 0 -0.000505563)
(0 0 -0.000436497)
(0 0 -0.000340458)
(0 0 -0.000246066)
(0 0 -0.000168302)
(0 0 -0.000111325)
(0 0 -7.30968e-05)
(0 0 -4.921e-05)
(0 0 -3.5171e-05)
(0 0 -2.73752e-05)
(0 0 -2.32948e-05)
(0 0 -2.13121e-05)
(0 0 -2.04604e-05)
(0 0 -2.01921e-05)
(0 0 -2.02109e-05)
(0 0 -2.03622e-05)
(0 0 -2.05676e-05)
(0 0 -2.07885e-05)
(0 0 -2.10061e-05)
(0 0 -2.12109e-05)
(0 0 -2.13981e-05)
(0 0 -2.15651e-05)
(0 0 -2.17098e-05)
(0 0 -2.18309e-05)
(0 0 -2.19269e-05)
(0 0 -2.19966e-05)
(0 0 -2.20385e-05)
(0 0 -2.20511e-05)
(0 0 -2.20329e-05)
(0 0 -2.1982e-05)
(0 0 -2.18962e-05)
(0 0 -2.17733e-05)
(0 0 -2.16104e-05)
(0 0 -2.14045e-05)
(0 0 -2.11518e-05)
(0 0 -2.08482e-05)
(0 0 -2.04891e-05)
(0 0 -2.00689e-05)
(0 0 -1.95794e-05)
(0 0 -1.90011e-05)
(0 0 -1.82712e-05)
(0 0 -1.71726e-05)
(0 0 -1.49665e-05)
(0 0 -9.15292e-06)
(0 -8.72094e-23 9.24447e-06)
(-1.55241e-23 8.00206e-21 1.41292e-06)
(-1.51337e-22 7.86689e-21 7.20763e-07)
(3.53265e-23 -2.02917e-22 -3.28127e-07)
(3.45352e-23 -2.34994e-20 -1.85315e-06)
(-9.54929e-23 8.03498e-21 -3.98474e-06)
(3.77209e-22 7.89218e-21 -6.86156e-06)
(-8.17164e-22 2.30009e-20 -1.06185e-05)
(3.18954e-22 -2.33832e-20 -1.53645e-05)
(6.4412e-22 -7.51975e-21 -2.11612e-05)
(-9.24291e-22 -3.79103e-24 -2.79982e-05)
(-9.25927e-22 -7.54181e-21 -3.57673e-05)
(8.11548e-22 7.15656e-21 -4.42466e-05)
(5.69144e-22 -5.90511e-20 -5.30969e-05)
(-1.04384e-21 1.26846e-19 -6.18773e-05)
(3.51659e-22 -6.82904e-20 -7.00815e-05)
(-1.27668e-21 -5.15009e-20 -7.72352e-05)
(2.40249e-21 -6.55663e-20 -8.28928e-05)
(-1.89804e-21 7.74479e-21 -8.6794e-05)
(-1.99208e-22 -7.21899e-21 -8.86798e-05)
(8.00958e-23 7.22951e-21 -8.8633e-05)
(-3.22125e-24 -1.31754e-22 -8.68934e-05)
(-7.57197e-23 -6.9799e-21 -8.39359e-05)
(-2.05063e-21 7.04847e-21 -8.03798e-05)
(4.30354e-21 1.31974e-23 -7.69457e-05)
(1.26284e-21 6.85338e-21 -7.43951e-05)
(-3.35224e-21 -5.45444e-24 -7.34739e-05)
(4.83147e-21 7.99451e-21 -7.48701e-05)
(-5.58587e-21 1.03604e-19 -7.91906e-05)
(6.23127e-22 -1.11276e-19 -8.69628e-05)
(-2.10722e-21 1.01865e-19 -9.86598e-05)
(2.05093e-21 -1.03038e-19 -0.00011476)
(4.96383e-23 1.37261e-21 -0.000135852)
(-6.47088e-23 -1.68772e-21 -0.000162808)
(2.7506e-21 -9.79592e-20 -0.000197099)
(-8.78943e-21 9.51038e-20 -0.000241362)
(-3.28784e-22 -1.58645e-21 -0.000300419)
(6.36795e-21 1.39273e-23 -0.000383114)
(6.93631e-21 1.51704e-23 -0.000505455)
(-6.91411e-21 -1.51219e-23 -0.000695797)
(-2.29661e-22 -5.02292e-25 -0.00100285)
(-2.39805e-22 -5.24478e-25 -0.00150725)
(-8.2732e-21 -1.80943e-23 -0.00233671)
(7.98556e-21 1.74652e-23 -0.00368355)
(-2.64391e-22 1.57573e-22 -0.00582098)
(-2.36004e-23 8.15774e-21 -0.00911139)
(-2.56361e-20 5.2807e-20 -0.0139967)
(2.46884e-20 -6.96269e-20 -0.0209563)
(-5.82918e-21 -9.96812e-21 -0.0304167)
(6.40641e-21 2.71565e-20 -0.042605)
(-2.1275e-20 -5.94034e-21 -0.0572558)
(-2.63405e-22 8.0169e-21 4.1814e-06)
(-1.0136e-22 1.57683e-20 2.07361e-06)
(3.20181e-22 7.66976e-21 -1.14329e-06)
(-9.01905e-22 -7.88106e-21 -5.82352e-06)
(1.67307e-21 7.51226e-21 -1.2353e-05)
(-5.37096e-22 -5.38696e-20 -2.11385e-05)
(-1.86033e-22 8.55762e-20 -3.25715e-05)
(-6.10834e-23 -8.95091e-21 -4.69766e-05)
(2.19059e-21 -9.85725e-20 -6.45434e-05)
(-2.25655e-21 1.3926e-19 -8.52481e-05)
(-7.81589e-22 1.27215e-19 -0.000108782)
(5.6925e-22 -1.1452e-19 -0.000134502)
(-4.03466e-22 7.57201e-22 -0.000161418)
(2.87406e-21 -7.29237e-21 -0.00018824)
(-2.2228e-21 2.43226e-20 -0.000213505)
(-5.91722e-21 2.4119e-19 -0.000235774)
(1.45495e-21 -2.26965e-19 -0.000253927)
(-5.50104e-21 2.4328e-19 -0.000266904)
(-2.7805e-22 1.96542e-20 -0.000274246)
(-3.93788e-21 -7.39228e-21 -0.000275956)
(4.15671e-21 1.48677e-22 -0.000272894)
(-4.16091e-21 9.22972e-21 -0.000266484)
(1.37513e-21 2.11962e-19 -0.000258566)
(5.37211e-21 -4.49256e-19 -0.000251285)
(4.22598e-21 -2.14863e-19 -0.000246916)
(-6.43776e-21 4.34896e-19 -0.000247692)
(2.93406e-21 -4.34488e-19 -0.000255688)
(-1.19859e-21 4.45903e-19 -0.000272752)
(3.37256e-21 1.41064e-21 -0.000300507)
(-3.80872e-21 -9.97913e-23 -0.000340434)
(-1.2797e-21 -2.79883e-24 -0.000394052)
(0 0 -0.000463224)
(1.89361e-22 9.82908e-23 -0.000550692)
(1.13393e-20 1.26355e-20 -0.000661026)
(-1.51609e-20 3.67455e-19 -0.000802337)
(-1.61583e-20 -2.42869e-20 -0.000989392)
(1.80562e-20 -3.63067e-19 -0.00124918)
(2.62211e-20 -3.1458e-19 -0.00163046)
(-8.50951e-21 3.3622e-19 -0.00221949)
(-3.21074e-20 2.19888e-21 -0.00316429)
(3.14998e-20 1.78909e-20 -0.0047095)
(-4.24552e-20 2.41747e-19 -0.00724212)
(2.24796e-20 -2.51556e-19 -0.011344)
(-1.86902e-20 1.51896e-20 -0.0178404)
(2.0758e-20 8.07251e-21 -0.0278249)
(-6.18502e-20 1.1808e-19 -0.0426297)
(6.17911e-20 -1.15558e-19 -0.0636964)
(-9.5953e-20 8.67656e-20 -0.0922878)
(9.25868e-20 -9.68772e-20 -0.129014)
(-1.96244e-20 -6.66616e-22 -0.171633)
(-1.0338e-23 4.74743e-20 6.7387e-06)
(-7.98226e-23 1.49973e-20 3.04693e-06)
(3.5213e-22 -6.21736e-20 -2.63034e-06)
(-7.3592e-22 1.23739e-19 -1.08632e-05)
(1.63554e-21 -2.6501e-19 -2.2265e-05)
(4.96775e-22 1.26083e-19 -3.74803e-05)
(-2.52495e-21 -8.98944e-22 -5.71384e-05)
(1.60066e-21 -1.71889e-20 -8.17731e-05)
(1.30434e-21 -2.58809e-19 -0.00011171)
(9.85411e-22 2.46719e-19 -0.00014694)
(-8.8558e-22 -1.68005e-21 -0.000186999)
(-4.34067e-21 -1.595e-23 -0.000230889)
(6.8929e-21 -1.9079e-21 -0.000277057)
(-4.39199e-21 -2.52813e-19 -0.000323465)
(5.60099e-21 2.29945e-19 -0.000367788)
(-1.1123e-20 4.56917e-19 -0.000407808)
(-5.08311e-21 -1.23802e-20 -0.000441643)
(-4.12728e-21 4.70382e-19 -0.000467854)
(4.00594e-22 -1.42864e-20 -0.000485475)
(-1.18369e-20 4.57434e-19 -0.000494724)
(1.17186e-20 -4.75172e-19 -0.00049701)
(-8.40172e-21 4.54379e-19 -0.000494688)
(1.37139e-21 -4.72714e-19 -0.000490795)
(5.34529e-21 -9.34773e-21 -0.000488877)
(-2.62846e-21 1.38762e-20 -0.000492701)
(5.66487e-21 -8.86462e-21 -0.000506004)
(-1.81418e-20 4.27688e-19 -0.000532294)
(1.61472e-20 -4.56107e-19 -0.000574754)
(1.76013e-20 -4.2432e-19 -0.00063625)
(-1.42418e-20 4.2652e-19 -0.000719478)
(-1.11685e-21 -5.33185e-21 -0.00082725)
(1.15703e-20 -1.25232e-22 -0.000963024)
(-1.32986e-20 -2.5432e-20 -0.00113179)
(5.17369e-20 -7.79718e-19 -0.00134169)
(1.71312e-20 5.68318e-20 -0.00160691)
(-6.92909e-20 7.35277e-19 -0.001953)
(4.09895e-21 -1.27573e-20 -0.00242633)
(-1.17939e-20 -5.16912e-21 -0.00311048)
(1.10322e-19 -6.21018e-19 -0.00415292)
(-2.04971e-19 1.22128e-18 -0.00580627)
(2.09339e-19 -1.2165e-18 -0.00848725)
(7.45004e-20 8.71092e-20 -0.0128536)
(-1.59977e-19 5.3465e-19 -0.019892)
(-1.69414e-19 3.70526e-19 -0.0309998)
(1.59833e-19 -4.39532e-19 -0.0480276)
(-2.32945e-20 2.03641e-20 -0.0732312)
(5.75796e-20 -1.82022e-20 -0.109051)
(1.72961e-19 -1.07658e-19 -0.157585)
(-1.8721e-19 1.67946e-19 -0.219655)
(-2.65538e-20 -4.30108e-20 -0.286733)
(3.9334e-22 -3.13014e-20 8.82839e-06)
(-3.67753e-22 1.58389e-20 3.13354e-06)
(7.20013e-22 -1.78141e-22 -5.66179e-06)
(-6.5279e-22 -1.55835e-20 -1.82735e-05)
(-1.00336e-21 -1.49905e-21 -3.54749e-05)
(3.21475e-21 -2.44627e-19 -5.81009e-05)
(-4.39987e-21 4.63471e-19 -8.6994e-05)
(2.11845e-21 -2.49664e-19 -0.000122894)
(-1.87247e-21 1.5055e-20 -0.000166283)
(4.70186e-21 -2.73435e-19 -0.000217213)
(-5.76614e-21 2.49701e-19 -0.000275145)
(-3.60183e-21 4.76438e-19 -0.000338833)
(9.81667e-21 -9.64462e-19 -0.000406304)
(-1.19841e-20 9.63817e-19 -0.000474938)
(1.62423e-20 -9.59649e-19 -0.000541737)
(-1.00125e-20 9.51713e-19 -0.000603834)
(-9.32819e-21 4.83876e-19 -0.000658894)
(-7.22143e-22 -3.90311e-21 -0.000705016)
(4.66728e-21 4.04914e-21 -0.000741086)
(-6.67259e-21 4.47339e-19 -0.000767483)
(-3.29604e-21 -4.69984e-19 -0.000786216)
(1.53048e-20 1.31869e-20 -0.000800569)
(-3.17399e-20 9.03802e-19 -0.000814762)
(2.33398e-20 -9.07155e-19 -0.000833726)
(2.30447e-21 -5.25669e-21 -0.000862739)
(-1.01011e-20 -9.01822e-23 -0.000907098)
(1.52686e-20 -1.37445e-20 -0.000971875)
(-4.98232e-21 1.27765e-22 -0.00106179)
(-5.48934e-21 -6.1655e-23 -0.00118126)
(5.21124e-21 2.02681e-22 -0.00133459)
(-3.78626e-21 1.29009e-21 -0.00152636)
(6.12344e-20 -8.07796e-19 -0.00176222)
(-5.51315e-20 8.31106e-19 -0.00205009)
(-1.66001e-20 7.29937e-23 -0.00240247)
(1.9281e-20 -1.03937e-20 -0.00284057)
(-9.77664e-20 7.45341e-19 -0.00340194)
(1.15128e-19 -7.48945e-19 -0.00415412)
(-2.36908e-20 2.38153e-21 -0.0052182)
(1.67139e-20 -8.49779e-23 -0.00680738)
(3.97316e-20 6.84067e-21 -0.00928639)
(-2.53141e-19 5.63929e-19 -0.0132561)
(3.7311e-19 -1.14508e-18 -0.0196637)
(-1.82163e-19 5.80958e-19 -0.0299285)
(2.69351e-19 -4.46786e-19 -0.046062)
(-2.60296e-19 5.26903e-19 -0.0707377)
(-6.14413e-19 5.45975e-19 -0.107244)
(1.16242e-18 -1.15902e-18 -0.159187)
(-5.70586e-19 5.86279e-19 -0.229669)
(1.97744e-20 -2.3296e-21 -0.319536)
(4.79023e-21 -3.67714e-20 -0.405962)
(-7.50029e-22 1.59236e-20 1.01466e-05)
(-2.24942e-22 6.09112e-20 1.48754e-06)
(1.86581e-21 -1.85055e-19 -1.17446e-05)
(-1.10961e-21 2.48441e-19 -3.0222e-05)
(-3.91956e-22 -1.10071e-19 -5.47734e-05)
(1.01304e-22 -1.4687e-20 -8.63787e-05)
(-4.75321e-22 1.55141e-20 -0.000126082)
(3.14063e-21 -1.93879e-22 -0.000174845)
(-3.00915e-21 -1.51633e-20 -0.000233346)
(-5.39819e-21 3.41257e-20 -0.000301775)
(-6.47293e-21 4.84606e-19 -0.000379623)
(1.83245e-20 -5.03787e-19 -0.000465553)
(-2.27284e-20 4.70239e-19 -0.000557361)
(1.87529e-20 -4.89246e-19 -0.000652072)
(-3.11453e-21 3.52143e-21 -0.000746254)
(1.137e-20 4.91722e-23 -0.000836645)
(4.32866e-21 3.84468e-21 -0.000920655)
(-4.11623e-21 4.57729e-19 -0.000996213)
(1.95114e-20 -4.95522e-19 -0.00106216)
(6.59722e-21 2.75115e-20 -0.00111918)
(-4.38139e-20 9.45268e-19 -0.00116995)
(2.66329e-20 -9.48336e-19 -0.00121875)
(1.05712e-20 2.30936e-20 -0.001271)
(-1.86519e-20 -2.41091e-22 -0.00133306)
(1.22049e-20 9.95885e-21 -0.00141183)
(-3.56465e-20 9.11621e-19 -0.00151435)
(2.87527e-20 -9.034e-19 -0.00164753)
(2.93188e-21 9.94334e-21 -0.00181803)
(1.00172e-20 2.77334e-20 -0.00203236)
(-1.18986e-20 -5.6818e-22 -0.00229709)
(1.14776e-21 -1.32874e-20 -0.00261944)
(-3.85277e-20 1.35034e-20 -0.00300818)
(3.64084e-20 1.28802e-20 -0.00347525)
(-3.33201e-21 -2.60038e-20 -0.00403869)
(7.97898e-20 -7.57756e-19 -0.00472804)
(-7.0335e-20 7.80957e-19 -0.00559425)
(2.67032e-19 -1.507e-18 -0.00672769)
(-2.43659e-19 1.52173e-18 -0.00828924)
(3.05259e-19 -1.42879e-18 -0.0105616)
(7.49418e-20 1.34316e-19 -0.0140284)
(-3.52942e-19 1.36346e-18 -0.0194873)
(-1.26149e-19 -2.32142e-20 -0.0281972)
(1.71534e-20 3.88271e-22 -0.0420499)
(-1.9263e-20 5.72573e-22 -0.0637412)
(5.68514e-20 1.73309e-21 -0.0969023)
(2.75253e-20 1.42013e-20 -0.146126)
(-1.18741e-19 5.3792e-21 -0.216722)
(6.76164e-20 5.23351e-21 -0.313649)
(-1.73714e-22 -3.26111e-22 -0.438303)
(3.78295e-20 6.73758e-22 -0.540157)
(-6.3852e-22 7.66925e-20 1.01174e-05)
(1.65677e-21 -4.67871e-20 -3.67883e-06)
(-1.75443e-21 -1.65316e-20 -2.38084e-05)
(4.54107e-21 -2.29244e-19 -5.05378e-05)
(-2.06528e-21 2.31176e-19 -8.47443e-05)
(1.78014e-21 -2.28783e-19 -0.000127575)
(-1.0649e-20 5.04583e-19 -0.000180312)
(1.09384e-20 -7.06957e-19 -0.000244187)
(-6.9959e-21 5.00182e-19 -0.000320148)
(-5.30409e-21 4.87495e-19 -0.000408615)
(-2.19886e-21 3.81848e-21 -0.000509258)
(2.34938e-20 -9.57976e-19 -0.000620833)
(-2.00962e-20 9.97507e-19 -0.000741144)
(4.33211e-21 -4.69597e-19 -0.000867142)
(1.13447e-20 -4.71894e-19 -0.000995264)
(2.17871e-20 -4.64538e-19 -0.00112213)
(-3.04716e-21 6.97617e-21 -0.00124518)
(3.67907e-20 -9.63734e-19 -0.00136254)
(2.73246e-20 -9.25677e-19 -0.00147317)
(6.5265e-21 2.13522e-20 -0.00157826)
(-2.38797e-20 9.62062e-19 -0.00168134)
(-2.08037e-20 -8.35376e-21 -0.00178776)
(1.27004e-20 9.244e-21 -0.0019043)
(-4.77919e-20 9.3342e-19 -0.00203894)
(3.80233e-20 -9.4871e-19 -0.00220044)
(7.01921e-20 -9.11804e-19 -0.00239796)
(-7.14527e-20 9.42364e-19 -0.00264079)
(1.55736e-20 -2.06806e-20 -0.00293824)
(6.4379e-20 -9.11236e-19 -0.00329979)
(-9.30407e-20 9.34848e-19 -0.00373541)
(4.52131e-21 1.2785e-20 -0.00425624)
(-2.02099e-19 1.71596e-18 -0.00487567)
(1.81426e-19 -1.78098e-18 -0.00561134)
(5.0309e-20 6.40755e-20 -0.00648851)
(-2.63035e-19 1.62919e-18 -0.00754661)
(2.39801e-19 -1.69947e-18 -0.00885126)
(-3.2826e-20 -3.51747e-21 -0.0105162)
(4.74014e-19 -1.53747e-18 -0.0127418)
(-4.4277e-19 1.58859e-18 -0.0158795)
(-6.92967e-20 -7.53914e-20 -0.020532)
(6.90644e-19 -1.34812e-18 -0.0276985)
(-1.21272e-18 2.78529e-18 -0.0389667)
(-7.14509e-20 -1.5827e-19 -0.0567412)
(-9.58907e-20 -1.2358e-19 -0.0844889)
(7.93907e-19 -1.22013e-18 -0.126981)
(4.14473e-20 6.60742e-20 -0.190549)
(-9.11103e-19 8.16139e-19 -0.283356)
(8.93304e-19 -8.97499e-19 -0.415115)
(1.02003e-20 3.03775e-20 -0.592672)
(9.93323e-21 -2.89402e-21 -0.715951)
(6.09725e-22 -1.60001e-20 7.92571e-06)
(1.52934e-21 -1.3626e-19 -1.63812e-05)
(-1.67883e-21 1.22936e-19 -4.70917e-05)
(-1.34679e-21 -1.73767e-20 -8.50215e-05)
(5.14218e-21 -2.27869e-19 -0.000131317)
(-4.71328e-21 2.34551e-19 -0.000187454)
(-5.15516e-21 4.73672e-19 -0.000255004)
(-5.29304e-21 -1.9566e-20 -0.000335487)
(2.34045e-21 -4.5846e-21 -0.000430138)
(1.39724e-20 -5.05291e-19 -0.000539653)
(-1.114e-20 4.73012e-19 -0.000663945)
(1.60511e-20 -1.00105e-18 -0.000801978)
(-3.0273e-21 5.00645e-19 -0.000951715)
(-3.82344e-21 -1.89339e-20 -0.00111023)
(-5.08732e-21 -2.27326e-20 -0.00127403)
(2.62744e-20 -9.83539e-19 -0.00143973)
(-1.42692e-21 -2.001e-20 -0.00160482)
(2.47542e-20 -1.00218e-18 -0.00176769)
(-5.65234e-21 -7.6032e-21 -0.00192761)
(-1.7329e-22 1.23532e-22 -0.00208597)
(1.18461e-20 8.72782e-21 -0.0022468)
(-4.97447e-20 9.66164e-19 -0.00241599)
(4.37897e-20 -9.87273e-19 -0.00260101)
(1.32151e-20 8.62916e-21 -0.00281062)
(-9.09215e-21 -1.51518e-20 -0.00305439)
(-6.38275e-21 1.02471e-20 -0.00334226)
(-7.04767e-20 9.35309e-19 -0.0036842)
(1.52173e-19 -1.90951e-18 -0.00409002)
(-7.17039e-20 9.96862e-19 -0.00456936)
(-1.84935e-19 1.84887e-18 -0.00513183)
(-3.11085e-20 -4.51004e-20 -0.00578743)
(3.13073e-21 -2.53565e-20 -0.00654727)
(-6.80312e-20 -5.36265e-20 -0.00742503)
(2.52745e-19 -1.85317e-18 -0.00843985)
(3.96745e-19 -1.71794e-18 -0.00962222)
(-3.52327e-19 1.80414e-18 -0.0110257)
(-3.53002e-20 -5.71033e-20 -0.0127496)
(4.72301e-19 -1.64896e-18 -0.0149808)
(-4.14123e-19 1.74789e-18 -0.0180667)
(-6.75459e-19 1.5558e-18 -0.0226331)
(5.7111e-19 -1.64433e-18 -0.0297636)
(8.15765e-20 -1.17358e-20 -0.0412473)
(8.91261e-19 -1.46253e-18 -0.0598896)
(1.30964e-19 1.23116e-19 -0.0898677)
(-1.03629e-18 1.4369e-18 -0.137125)
(-1.71378e-20 -4.15494e-20 -0.20987)
(3.51917e-20 5.51907e-22 -0.319932)
(-3.59624e-20 1.59944e-20 -0.487882)
(-5.409e-19 5.66391e-19 -0.753106)
(5.32254e-19 -5.75591e-19 -1.04015)
(-1.02178e-20 -2.93357e-21 0.00836604)
(-9.58474e-21 -6.89651e-23 0.00101651)
(8.96508e-21 8.8094e-21 -0.00502778)
(-7.6048e-21 -1.40728e-21 -0.00985872)
(8.08451e-21 -7.11812e-21 -0.0135754)
(-9.74881e-23 2.84664e-21 -0.0162971)
(-1.40133e-22 -8.2109e-23 -0.0181495)
(-4.12923e-21 9.03104e-24 -0.0192528)
(4.00886e-21 -8.76777e-24 -0.0197245)
(-1.08793e-22 2.37941e-25 -0.0196771)
(-9.62906e-23 2.10597e-25 -0.0192146)
(2.4375e-21 -5.33105e-24 -0.0184317)
(-2.44533e-21 5.34819e-24 -0.0174124)
(-1.74058e-21 3.80682e-24 -0.0162298)
(3.22975e-22 -3.00321e-22 -0.0149462)
(4.50633e-21 4.28471e-20 -0.0136135)
(-2.78157e-21 -3.94842e-20 -0.0122739)
(-1.57914e-23 -2.83439e-22 -0.010961)
(-3.49803e-24 9.67281e-23 -0.0097005)
(-2.516e-21 -6.24725e-20 -0.00851145)
(2.52682e-21 6.24428e-20 -0.00740664)
(-1.89713e-21 -6.67084e-20 -0.00639417)
(3.17366e-22 4.56846e-21 -0.00547721)
(-1.0462e-22 2.13847e-24 -0.00465639)
(2.30584e-22 5.07633e-21 -0.00393027)
(-1.98896e-23 1.65585e-25 -0.00329696)
(4.2919e-23 -9.38682e-26 -0.0027492)
(-2.68883e-23 1.33334e-24 -0.00228004)
(1.66703e-22 5.84565e-21 -0.00188216)
(2.12079e-24 -2.59774e-24 -0.00154787)
(-1.40543e-22 -6.152e-21 -0.00126944)
(1.30728e-22 6.29063e-21 -0.00103935)
(-1.4783e-22 -6.40988e-21 -0.000850522)
(5.65938e-22 5.91558e-20 -0.000696427)
(-5.23941e-22 -5.93977e-20 -0.000571201)
(-2.4455e-22 -4.75082e-20 -0.000469681)
(5.62642e-22 1.02561e-19 -0.000387409)
(-3.09423e-22 -5.51412e-20 -0.000320611)
(-6.63376e-23 -7.01163e-21 -0.000266148)
(6.09955e-23 7.09487e-21 -0.000221455)
(1.27432e-24 -2.71964e-25 -0.000184465)
(5.22806e-23 7.23985e-21 -0.00015354)
(-1.48426e-22 -3.66108e-20 -0.000127401)
(1.475e-22 3.67337e-20 -0.000105051)
(-4.71587e-23 -7.42735e-21 -8.57286e-05)
(7.89917e-23 2.24883e-20 -6.88433e-05)
(-6.99991e-24 -7.49412e-21 -5.3935e-05)
(-5.4043e-23 -1.51994e-20 -4.06275e-05)
(1.95374e-23 7.62268e-21 -2.85876e-05)
(-2.79194e-23 -7.68913e-21 -1.75123e-05)
(-1.48937e-20 2.39533e-20 0.023871)
(2.36733e-20 -1.19603e-20 0.00192103)
(-1.80633e-20 -1.83917e-20 -0.016126)
(-9.89968e-22 1.25924e-20 -0.0304178)
(4.17188e-22 -1.1765e-20 -0.0413101)
(-1.05361e-20 5.75627e-21 -0.049199)
(8.85808e-21 4.11284e-21 -0.0544875)
(-1.31074e-20 -3.22008e-20 -0.0575543)
(2.15758e-20 2.24702e-20 -0.058762)
(-1.62421e-20 2.79447e-21 -0.0584521)
(1.21919e-20 -5.11265e-21 -0.0569374)
(2.60227e-20 9.78287e-20 -0.0544997)
(-3.30619e-20 -9.08983e-20 -0.051388)
(-3.35345e-20 -1.38787e-19 -0.0478172)
(3.66253e-21 -2.3903e-20 -0.0439695)
(3.30525e-20 1.57127e-19 -0.0399954)
(-2.81146e-21 -1.29693e-21 -0.036017)
(-1.2779e-21 -6.66029e-21 -0.0321301)
(3.21354e-24 -2.86339e-23 -0.0284081)
(9.01809e-23 -1.97235e-25 -0.0249045)
(2.46953e-22 2.273e-24 -0.0216556)
(-5.63978e-22 -4.47053e-21 -0.0186824)
(2.28211e-20 2.91268e-19 -0.0159934)
(-2.51509e-20 -3.155e-19 -0.0135941)
(2.07847e-20 3.28799e-19 -0.0114691)
(-1.13255e-20 -1.61138e-19 -0.00961525)
(-1.86823e-20 -3.5336e-19 -0.00801367)
(9.00808e-21 1.79926e-19 -0.00664321)
(-2.04307e-22 -5.89616e-21 -0.00548187)
(-5.45551e-22 -1.21042e-20 -0.00450675)
(7.95265e-23 6.17028e-21 -0.00369496)
(-6.32268e-22 -1.89347e-20 -0.00302439)
(4.91546e-21 2.012e-19 -0.00247422)
(-1.01797e-20 -4.25965e-19 -0.00202536)
(4.52085e-21 2.05061e-19 -0.00166064)
(-4.61418e-22 -2.03298e-20 -0.00136498)
(1.04618e-22 6.85411e-21 -0.00112537)
(-4.00311e-24 -3.56425e-24 -0.000930814)
(-1.79256e-21 -1.19933e-19 -0.000772156)
(1.526e-21 1.06008e-19 -0.000641925)
(1.12522e-21 1.00837e-19 -0.000534112)
(-1.63193e-21 -1.3713e-19 -0.000443954)
(5.2691e-23 7.29758e-21 -0.000367722)
(3.06373e-22 3.69959e-20 -0.000302531)
(-6.62694e-22 -6.66268e-20 -0.000246156)
(-6.10926e-23 -7.47419e-21 -0.000196886)
(-3.98398e-22 -5.27772e-20 -0.000153377)
(-9.68961e-23 -7.73047e-21 -0.000114525)
(1.1397e-22 1.51506e-20 -7.93173e-05)
(1.30973e-22 2.29871e-20 -4.67476e-05)
(-1.46398e-20 -7.41262e-22 0.0354081)
(-3.43621e-21 -9.7326e-21 -0.000862187)
(2.48999e-20 2.30103e-20 -0.0305728)
(-4.16676e-20 -1.21977e-20 -0.0536478)
(1.69651e-20 9.97547e-21 -0.0708877)
(-2.89045e-20 -3.94616e-20 -0.083085)
(3.75933e-20 9.74401e-21 -0.0909928)
(8.40974e-20 9.17188e-20 -0.0953)
(-1.45902e-20 5.76716e-20 -0.0966382)
(-1.66134e-19 -2.68357e-19 -0.0955838)
(2.00396e-19 3.19844e-19 -0.0926564)
(-1.05965e-19 -1.64416e-19 -0.0883171)
(1.93858e-21 -1.04129e-20 -0.0829678)
(-1.8524e-21 -3.45616e-21 -0.0769517)
(1.18622e-19 3.46885e-19 -0.0705558)
(-6.15474e-21 3.99131e-20 -0.0640147)
(-1.09391e-19 -3.75822e-19 -0.0575161)
(5.81324e-21 1.1133e-20 -0.0512056)
(-1.93076e-21 7.11768e-23 -0.0451927)
(4.01881e-23 -3.54051e-22 -0.0395556)
(4.56533e-20 2.83031e-19 -0.0343455)
(-4.42026e-20 -2.73294e-19 -0.029591)
(-3.92536e-20 -3.04898e-19 -0.0253065)
(4.14587e-20 3.24093e-19 -0.0214851)
(1.32236e-21 1.0739e-20 -0.0181217)
(-1.22922e-21 -1.09661e-20 -0.0151798)
(1.08239e-21 1.12875e-20 -0.0126434)
(-2.62129e-20 -3.64415e-19 -0.0104762)
(2.736e-20 3.76596e-19 -0.00864186)
(-2.14586e-20 -3.70807e-19 -0.00710309)
(2.29754e-20 3.95844e-19 -0.00582304)
(5.03269e-22 1.27193e-20 -0.0047663)
(1.74303e-20 4.18823e-19 -0.00389967)
(-3.31579e-20 -8.32026e-19 -0.00319279)
(1.6492e-20 4.39797e-19 -0.00261847)
(7.16352e-21 2.32439e-19 -0.00215284)
(-6.31573e-21 -2.05411e-19 -0.00177535)
(1.10097e-23 1.47212e-23 -0.00146865)
(-1.394e-22 -2.95985e-23 -0.00121835)
(8.74369e-24 -5.53416e-24 -0.00101268)
(4.36307e-21 2.3075e-19 -0.000842217)
(-4.27196e-21 -2.16575e-19 -0.000699485)
(2.82993e-22 1.46194e-20 -0.000578645)
(-5.69616e-23 -2.60529e-23 -0.000475178)
(1.56849e-21 1.18959e-19 -0.000385606)
(-2.98609e-21 -2.23907e-19 -0.000307248)
(1.4918e-21 1.19863e-19 -0.000237993)
(-7.49968e-22 -6.05942e-20 -0.000176073)
(5.56764e-22 4.54029e-20 -0.000119772)
(1.3642e-22 1.52187e-20 -6.7083e-05)
(1.61731e-21 2.67157e-20 0.0389782)
(8.72331e-21 -5.30776e-20 -0.0108218)
(-1.19136e-20 5.63842e-20 -0.0513154)
(-3.26749e-20 -3.63198e-20 -0.0817897)
(6.02847e-20 -2.96104e-20 -0.103803)
(5.72162e-20 9.50018e-20 -0.118767)
(-7.47943e-20 -5.93271e-20 -0.12791)
(9.14842e-20 1.24932e-19 -0.132279)
(-2.23507e-19 -2.70419e-19 -0.13279)
(1.57532e-19 1.32826e-19 -0.13025)
(-1.60143e-20 1.2434e-20 -0.125371)
(-8.67207e-21 7.66252e-22 -0.118773)
(1.22521e-20 8.54158e-21 -0.110986)
(-1.70141e-19 -3.52179e-19 -0.102457)
(1.57397e-19 3.32791e-19 -0.0935518)
(-5.17234e-23 1.69934e-20 -0.084566)
(1.06451e-21 -8.51051e-21 -0.0757312)
(1.46865e-19 4.96827e-19 -0.067224)
(-1.47512e-19 -4.92664e-19 -0.059174)
(-1.893e-21 -1.07258e-20 -0.05167)
(-3.3679e-22 -2.41998e-23 -0.0447681)
(8.04635e-22 3.23044e-22 -0.0384944)
(1.47293e-22 -4.90775e-24 -0.0328624)
(1.27631e-21 1.05697e-20 -0.0278613)
(8.75972e-22 2.32955e-22 -0.0234664)
(1.25603e-21 1.11438e-20 -0.0196393)
(-8.38569e-20 -7.60854e-19 -0.0163418)
(8.30276e-20 7.49825e-19 -0.01353)
(-1.15099e-24 1.03845e-24 -0.0111541)
(-3.17114e-20 -4.02222e-19 -0.00916382)
(3.31237e-20 4.15356e-19 -0.00751013)
(1.2599e-23 -3.01165e-23 -0.00614624)
(-1.64941e-22 -1.1232e-22 -0.00502855)
(-2.31438e-20 -4.4368e-19 -0.00411735)
(4.37466e-20 8.80299e-19 -0.00337719)
(-3.93133e-20 -8.77769e-19 -0.00277706)
(3.61984e-20 8.88016e-19 -0.00229036)
(-3.3111e-20 -8.97409e-19 -0.00189464)
(1.57176e-20 4.51037e-19 -0.00157135)
(6.74648e-21 2.29507e-19 -0.00130535)
(-5.93397e-21 -2.00788e-19 -0.00108454)
(-4.18701e-22 -1.45229e-20 -0.000899341)
(-5.24001e-21 -2.34656e-19 -0.000742274)
(1.09378e-20 5.00339e-19 -0.00060757)
(-5.0527e-21 -2.3624e-19 -0.000490787)
(8.14402e-23 -5.58576e-25 -0.000388503)
(2.40282e-22 1.4966e-20 -0.000298008)
(-8.22007e-23 -1.28136e-23 -0.000216972)
(-1.93116e-22 -1.51187e-20 -0.000142946)
(4.25041e-22 3.03781e-20 -7.24865e-05)
(2.7251e-20 8.28281e-23 0.0299735)
(8.71351e-23 1.82469e-22 -0.0327515)
(-6.04176e-20 -2.64122e-23 -0.0822026)
(8.64651e-20 -1.04017e-21 -0.117515)
(-2.71854e-20 -1.90587e-21 -0.141701)
(-3.89469e-20 -1.04214e-21 -0.157122)
(1.48433e-20 1.59611e-21 -0.165552)
(-9.48276e-21 -2.42484e-21 -0.168403)
(6.99349e-20 -2.06521e-20 -0.166857)
(3.07077e-19 4.85936e-19 -0.161922)
(6.66715e-21 1.00364e-19 -0.154461)
(-3.48215e-19 -5.81721e-19 -0.145211)
(3.79767e-19 7.08783e-19 -0.134788)
(-3.92298e-19 -7.05071e-19 -0.123701)