/*--------------------------------*- C++ -*----------------------------------*\
| =========                 |                                                 |
| \\      /  F ield         | OpenFOAM: The Open Source CFD Toolbox           |
|  \\    /   O peration     | Version:  2412                                  |
|   \\  /    A nd           | Website:  www.openfoam.com                      |
|    \\/     M anipulation  |                                                 |
\*---------------------------------------------------------------------------*/
FoamFile
{
    version     2.0;
    format      ascii;
    arch        "LSB;label=32;scalar=64";
    class       volScalarField;
    location    "17.5";
    object      p;
}
// * * * * * * * * * * * * * * * * * * * * * * * * * * * * * * * * * * * * * //

dimensions      [0 2 -2 0 0 0 0];

internalField   nonuniform List<scalar> 
5285
(
-0.000634302
-0.000518521
-0.000414549
-0.000322094
-0.000240693
-0.000169766
-0.000108636
-5.65559e-05
-1.27414e-05
2.36079e-05
5.32858e-05
7.70635e-05
9.56766e-05
0.000109815
0.000120118
0.000127168
0.00013149
0.000133553
0.000133769
0.000132498
0.000130052
0.000126696
0.000122654
0.000118115
0.000113235
0.00010814
0.000102935
9.7702e-05
-0.000652259
-0.000535204
-0.000429982
-0.000336313
-0.000253744
-0.000181705
-0.000119526
-6.64627e-05
-2.17331e-05
1.54628e-05
4.59203e-05
7.04127e-05
8.96785e-05
0.000104412
0.000115254
0.000122793
0.000127557
0.000130019
0.000130594
0.000129648
0.000127492
0.000124398
0.00012059
0.000116262
0.00011157
0.000106645
0.000101591
9.64952e-05
-0.000687395
-0.000567886
-0.000460238
-0.000364213
-0.000279375
-0.00020517
-0.000140941
-8.59556e-05
-3.94346e-05
-5.78993e-07
3.14082e-05
5.73044e-05
7.78535e-05
9.37557e-05
0.000105661
0.000114162
0.000119797
0.000123045
0.00012433
0.000124021
0.000122439
0.00011986
0.000116515
0.000112601
0.000108281
0.000103689
9.89328e-05
9.4107e-05
-0.000737945
-0.000614963
-0.000503873
-0.000404484
-0.000316405
-0.0002391
-0.000171934
-0.000114189
-6.50918e-05
-2.38466e-05
1.03456e-05
3.82673e-05
6.06697e-05
7.8262e-05
9.17034e-05
0.000101598
0.000108494
0.000112881
0.000115193
0.000115809
0.000115059
0.000113226
0.000110552
0.000107239
0.000103457
9.93475e-05
9.50235e-05
9.05898e-05
-0.00067436
-0.000559125
-0.000455656
-0.000363607
-0.000282481
-0.000211672
-0.000150482
-9.81534e-05
-5.38944e-05
-1.69077e-05
1.35926e-05
3.83643e-05
5.81254e-05
7.35456e-05
8.52409e-05
9.37706e-05
9.96367e-05
0.000103285
0.000105106
0.000105441
0.000104584
0.000102785
0.000100257
9.71781e-05
9.36969e-05
8.99357e-05
8.60113e-05
-0.000747006
-0.000627341
-0.000519368
-0.000422832
-0.000337291
-0.00026219
-0.000196872
-0.000140608
-9.26275e-05
-5.21459e-05
-1.83832e-05
9.41752e-06
3.19775e-05
4.99726e-05
6.40274e-05
7.47114e-05
8.25376e-05
8.79634e-05
9.13923e-05
9.3177e-05
9.3623e-05
9.29929e-05
9.15104e-05
8.93646e-05
8.67139e-05
8.36923e-05
8.04259e-05
-0.000831315
-0.000706333
-0.000592968
-0.000491059
-0.000400254
-0.000320051
-0.000249842
-0.000188933
-0.00013658
-9.2009e-05
-5.44473e-05
-2.31372e-05
2.64805e-06
2.35936e-05
4.03361e-05
5.3459e-05
6.34905e-05
7.09039e-05
7.61187e-05
7.95037e-05
8.13798e-05
8.20246e-05
8.16761e-05
8.05367e-05
7.87771e-05
7.65435e-05
7.39642e-05
9.24944e-05
8.7279e-05
8.20855e-05
7.69649e-05
7.19468e-05
6.70552e-05
6.23107e-05
5.7729e-05
5.33216e-05
4.90969e-05
4.50602e-05
4.12145e-05
3.7561e-05
3.4099e-05
3.08264e-05
2.77402e-05
2.48361e-05
2.21095e-05
1.95549e-05
1.71669e-05
1.49395e-05
1.28667e-05
1.09427e-05
9.16168e-06
7.51798e-06
6.00605e-06
4.62045e-06
3.35574e-06
2.20648e-06
1.16715e-06
2.32094e-07
-6.04457e-07
-1.34833e-06
-2.00541e-06
-2.58152e-06
-3.08239e-06
-3.51357e-06
-3.88039e-06
-4.18793e-06
-4.44095e-06
-4.64399e-06
-4.80127e-06
-4.91687e-06
-4.99437e-06
9.14314e-05
8.63042e-05
8.11901e-05
7.61488e-05
7.1205e-05
6.63815e-05
6.16992e-05
5.71744e-05
5.28189e-05
4.86413e-05
4.46475e-05
4.08409e-05
3.72228e-05
3.37929e-05
3.05495e-05
2.74897e-05
2.46098e-05
2.1905e-05
1.93704e-05
1.70006e-05
1.47897e-05
1.2732e-05
1.08217e-05
9.05314e-06
7.4208e-06
5.91918e-06
4.54291e-06
3.28664e-06
2.14498e-06
1.11248e-06
1.83547e-07
-6.47527e-07
-1.38651e-06
-2.03922e-06
-2.61145e-06
-3.10884e-06
-3.53691e-06
-3.90097e-06
-4.20603e-06
-4.45683e-06
-4.65788e-06
-4.81339e-06
-4.9274e-06
-5.00349e-06
8.93173e-05
8.43662e-05
7.94115e-05
7.45281e-05
6.97316e-05
6.50429e-05
6.0484e-05
5.6072e-05
5.18193e-05
4.77354e-05
4.38267e-05
4.00974e-05
3.65496e-05
3.31835e-05
2.99981e-05
2.69911e-05
2.4159e-05
2.14979e-05
1.90029e-05
1.66692e-05
1.44912e-05
1.24634e-05
1.05804e-05
8.83678e-06
7.22705e-06
5.74594e-06
4.38827e-06
3.1488e-06
2.0223e-06
1.00341e-06
8.66826e-08
-7.33472e-07
-1.4627e-06
-2.10672e-06
-2.67118e-06
-3.16165e-06
-3.58354e-06
-3.94207e-06
-4.24217e-06
-4.48854e-06
-4.68562e-06
-4.83758e-06
-4.94842e-06
-5.02169e-06
8.6178e-05
8.14889e-05
7.67746e-05
7.21255e-05
6.75467e-05
6.30571e-05
5.86806e-05
5.44352e-05
5.03346e-05
4.6389e-05
4.26063e-05
3.89916e-05
3.55479e-05
3.22765e-05
2.91772e-05
2.62484e-05
2.34876e-05
2.08912e-05
1.84553e-05
1.61752e-05
1.40461e-05
1.2063e-05
1.02207e-05
8.51398e-06
6.93791e-06
5.48738e-06
4.1574e-06
2.94298e-06
1.83905e-06
8.40454e-07
-5.80764e-08
-8.61939e-07
-1.57662e-06
-2.20764e-06
-2.76051e-06
-3.24064e-06
-3.65328e-06
-4.00352e-06
-4.29622e-06
-4.53596e-06
-4.72712e-06
-4.87378e-06
-4.97987e-06
-5.0489e-06
8.20535e-05
7.77093e-05
7.33162e-05
6.89743e-05
6.46794e-05
6.04498e-05
5.63113e-05
5.22835e-05
4.83814e-05
4.46169e-05
4.0999e-05
3.75344e-05
3.42273e-05
3.10802e-05
2.8094e-05
2.52681e-05
2.26009e-05
2.00898e-05
1.77316e-05
1.55223e-05
1.34577e-05
1.15334e-05
9.7447e-06
8.08685e-06
6.55519e-06
5.14501e-06
3.85161e-06
2.67026e-06
1.59616e-06
6.24393e-07
-2.50065e-07
-1.03237e-06
-1.72778e-06
-2.34159e-06
-2.87909e-06
-3.34548e-06
-3.74585e-06
-4.08511e-06
-4.36798e-06
-4.59892e-06
-4.78221e-06
-4.92182e-06
-5.02163e-06
-5.08504e-06
7.69936e-05
7.3079e-05
6.90855e-05
6.51184e-05
6.11682e-05
5.72545e-05
5.34052e-05
4.9642e-05
4.59817e-05
4.24378e-05
3.90212e-05
3.574e-05
3.26001e-05
2.96053e-05
2.67578e-05
2.40583e-05
2.15062e-05
1.91e-05
1.68374e-05
1.47153e-05
1.27302e-05
1.08784e-05
9.15574e-06
7.55812e-06
6.08125e-06
4.72085e-06
3.4726e-06
2.3321e-06
1.29485e-06
3.56263e-07
-4.88412e-07
-1.24403e-06
-1.91557e-06
-2.50804e-06
-3.02646e-06
-3.47579e-06
-3.86091e-06
-4.18653e-06
-4.45717e-06
-4.67718e-06
-4.85069e-06
-4.98154e-06
-5.07352e-06
-5.12995e-06
7.107e-05
6.76628e-05
6.41448e-05
6.06105e-05
5.7058e-05
5.35099e-05
4.99959e-05
4.65398e-05
4.31605e-05
3.98736e-05
3.66917e-05
3.36248e-05
3.06805e-05
2.78642e-05
2.51794e-05
2.26283e-05
2.02116e-05
1.79289e-05
1.57789e-05
1.37595e-05
1.18682e-05
1.01019e-05
8.4573e-06
6.93079e-06
5.51866e-06
4.21712e-06
3.02226e-06
1.93009e-06
9.36473e-07
3.71878e-08
-7.72167e-07
-1.49612e-06
-2.1393e-06
-2.70639e-06
-3.20211e-06
-3.63115e-06
-3.9981e-06
-4.30745e-06
-4.56354e-06
-4.77051e-06
-4.93233e-06
-5.05274e-06
-5.13538e-06
-5.18348e-06
6.41648e-05
6.13711e-05
5.84227e-05
5.53846e-05
5.22855e-05
4.91556e-05
4.60261e-05
4.29228e-05
3.9867e-05
3.68766e-05
3.39662e-05
3.11477e-05
2.84304e-05
2.58216e-05
2.33264e-05
2.09484e-05
1.86898e-05
1.65514e-05
1.45332e-05
1.26341e-05
1.08527e-05
9.18675e-06
7.63365e-06
6.1906e-06
4.8545e-06
3.6221e-06
2.49e-06
1.45467e-06
5.12427e-07
-3.40559e-07
-1.10827e-06
-1.79484e-06
-2.40451e-06
-2.9416e-06
-3.41045e-06
-3.81544e-06
-4.16086e-06
-4.45093e-06
-4.68974e-06
-4.88124e-06
-5.02921e-06
-5.13723e-06
-5.20878e-06
-5.24701e-06
5.64367e-05
5.42967e-05
5.1952e-05
4.94619e-05
4.68671e-05
4.42035e-05
4.1504e-05
3.87966e-05
3.61048e-05
3.34487e-05
3.08451e-05
2.83079e-05
2.58484e-05
2.34755e-05
2.11963e-05
1.90157e-05
1.69377e-05
1.49644e-05
1.30971e-05
1.1336e-05
9.68058e-06
8.12975e-06
6.6818e-06
5.33466e-06
4.08597e-06
2.93312e-06
1.87329e-06
9.03441e-07
2.04229e-08
-7.79126e-07
-1.49874e-06
-2.14207e-06
-2.71293e-06
-3.21522e-06
-3.6529e-06
-4.02994e-06
-4.35032e-06
-4.61796e-06
-4.83667e-06
-5.01015e-06
-5.14199e-06
-5.23557e-06
-5.29422e-06
-5.32094e-06
4.81522e-05
4.66742e-05
4.49507e-05
4.30368e-05
4.09769e-05
3.88098e-05
3.65697e-05
3.42866e-05
3.19863e-05
2.96909e-05
2.74192e-05
2.51871e-05
2.30076e-05
2.08917e-05
1.8848e-05
1.68833e-05
1.50029e-05
1.32105e-05
1.15088e-05
9.89928e-06
8.38251e-06
6.95839e-06
5.62623e-06
4.38481e-06
3.23253e-06
2.16746e-06
1.18742e-06
2.89961e-07
-5.27546e-07
-1.26792e-06
-1.93418e-06
-2.52951e-06
-3.05724e-06
-3.5208e-06
-3.92373e-06
-4.26962e-06
-4.56206e-06
-4.80463e-06
-5.00088e-06
-5.15422e-06
-5.26802e-06
-5.34546e-06
-5.38969e-06
-5.40353e-06
3.93911e-05
3.85869e-05
3.75003e-05
3.61832e-05
3.46805e-05
3.30322e-05
3.12742e-05
2.94381e-05
2.75516e-05
2.56384e-05
2.37194e-05
2.18123e-05
1.9932e-05
1.80911e-05
1.63e-05
1.45673e-05
1.28996e-05
1.13024e-05
9.77948e-06
8.3337e-06
6.96689e-06
5.68002e-06
4.47337e-06
3.34661e-06
2.29899e-06
1.32928e-06
4.35994e-07
-3.8269e-07
-1.12882e-06
-1.80465e-06
-2.41266e-06
-2.95549e-06
-3.43598e-06
-3.85708e-06
-4.22187e-06
-4.53352e-06
-4.79523e-06
-5.01023e-06
-5.18174e-06
-5.31291e-06
-5.40683e-06
-5.46649e-06
-5.49482e-06
-5.49447e-06
3.02362e-05
3.01177e-05
2.968e-05
2.89732e-05
2.80424e-05
2.69288e-05
2.56695e-05
2.42973e-05
2.28415e-05
2.13276e-05
1.9778e-05
1.82121e-05
1.66467e-05
1.5096e-05
1.35721e-05
1.20851e-05
1.06433e-05
9.25342e-06
7.92085e-06
6.64967e-06
5.44291e-06
4.30267e-06
3.23023e-06
2.22621e-06
1.29068e-06
4.23224e-07
-3.76966e-07
-1.11104e-06
-1.7804e-06
-2.38673e-06
-2.93191e-06
-3.41806e-06
-3.84746e-06
-4.2226e-06
-4.54605e-06
-4.82055e-06
-5.04888e-06
-5.23392e-06
-5.37852e-06
-5.48556e-06
-5.55786e-06
-5.59816e-06
-5.60918e-06
-5.59339e-06
2.07811e-05
2.13518e-05
2.15673e-05
2.1477e-05
2.11262e-05
2.05568e-05
1.98068e-05
1.89101e-05
1.78971e-05
1.67949e-05
1.56273e-05
1.44153e-05
1.31773e-05
1.1929e-05
1.06842e-05
9.45439e-06
8.24941e-06
7.07743e-06
5.94514e-06
4.85793e-06
3.82002e-06
2.83463e-06
1.90408e-06
1.02996e-06
2.13168e-07
-5.4588e-07
-1.24726e-06
-1.89141e-06
-2.4791e-06
-3.01137e-06
-3.48953e-06
-3.91512e-06
-4.28989e-06
-4.61578e-06
-4.89488e-06
-5.12949e-06
-5.32195e-06
-5.47476e-06
-5.59041e-06
-5.67147e-06
-5.7205e-06
-5.73994e-06
-5.73232e-06
-5.69988e-06
1.11169e-05
1.23713e-05
1.32371e-05
1.37628e-05
1.39938e-05
1.39722e-05
1.37366e-05
1.33217e-05
1.2759e-05
1.20767e-05
1.12999e-05
1.0451e-05
9.54965e-06
8.61321e-06
7.65674e-06
6.69328e-06
5.73405e-06
4.78857e-06
3.86484e-06
2.96948e-06
2.1079e-06
1.28443e-06
5.02434e-07
-2.35573e-07
-9.27779e-07
-1.57297e-06
-2.17045e-06
-2.71995e-06
-3.22155e-06
-3.67565e-06
-4.08297e-06
-4.44446e-06
-4.76132e-06
-5.03493e-06
-5.26691e-06
-5.45906e-06
-5.61332e-06
-5.73176e-06
-5.81655e-06
-5.86989e-06
-5.89406e-06
-5.89124e-06
-5.86371e-06
-5.81349e-06
1.32913e-06
3.25476e-06
4.76139e-06
5.89645e-06
6.70501e-06
7.22932e-06
7.50812e-06
7.57676e-06
7.46737e-06
7.20908e-06
6.82811e-06
6.34795e-06
5.78955e-06
5.17149e-06
4.51019e-06
3.81998e-06
3.11338e-06
2.40118e-06
1.69264e-06
9.95558e-07
3.16494e-07
-3.39153e-07
-9.66989e-07
-1.56357e-06
-2.12618e-06
-2.6528e-06
-3.14195e-06
-3.59262e-06
-4.00421e-06
-4.37649e-06
-4.70954e-06
-5.00373e-06
-5.25968e-06
-5.47825e-06
-5.66054e-06
-5.80788e-06
-5.92178e-06
-6.00389e-06
-6.05601e-06
-6.08002e-06
-6.07786e-06
-6.05146e-06
-6.00283e-06
-5.93375e-06
-8.50119e-06
-5.92318e-06
-3.7912e-06
-2.05913e-06
-6.82465e-07
3.80745e-07
1.16923e-06
1.71856e-06
2.06136e-06
2.22741e-06
2.24376e-06
2.13484e-06
1.92263e-06
1.62686e-06
1.26506e-06
8.52768e-07
4.03673e-07
-7.02525e-08
-5.58596e-07
-1.05243e-06
-1.5441e-06
-2.02718e-06
-2.4963e-06
-2.94707e-06
-3.37591e-06
-3.77997e-06
-4.15698e-06
-4.50523e-06
-4.82341e-06
-5.11065e-06
-5.36639e-06
-5.59043e-06
-5.78279e-06
-5.94382e-06
-6.0741e-06
-6.17449e-06
-6.24605e-06
-6.29002e-06
-6.30783e-06
-6.301e-06
-6.27116e-06
-6.21994e-06
-6.1491e-06
-6.06019e-06
-1.82982e-05
-1.50923e-05
-1.23558e-05
-1.00442e-05
-8.11379e-06
-6.52327e-06
-5.23421e-06
-4.21107e-06
-3.42102e-06
-2.83389e-06
-2.42203e-06
-2.16029e-06
-2.02582e-06
-1.998e-06
-2.05831e-06
-2.19016e-06
-2.37883e-06
-2.61124e-06
-2.87596e-06
-3.163e-06
-3.46369e-06
-3.77062e-06
-4.07749e-06
-4.37898e-06
-4.67067e-06
-4.94891e-06
-5.21065e-06
-5.45344e-06
-5.67533e-06
-5.87476e-06
-6.05058e-06
-6.20195e-06
-6.32837e-06
-6.42964e-06
-6.50584e-06
-6.55734e-06
-6.58478e-06
-6.58897e-06
-6.57096e-06
-6.53192e-06
-6.47316e-06
-6.396e-06
-6.30193e-06
-6.19227e-06
-2.79918e-05
-2.41872e-05
-2.08717e-05
-1.80025e-05
-1.55371e-05
-1.3435e-05
-1.16584e-05
-1.01721e-05
-8.94324e-06
-7.94157e-06
-7.13907e-06
-6.51008e-06
-6.03111e-06
-5.68084e-06
-5.4399e-06
-5.29084e-06
-5.21799e-06
-5.20738e-06
-5.2466e-06
-5.3247e-06
-5.43208e-06
-5.5604e-06
-5.70247e-06
-5.85212e-06
-6.00411e-06
-6.15397e-06
-6.29793e-06
-6.43284e-06
-6.55604e-06
-6.66537e-06
-6.75903e-06
-6.83561e-06
-6.89405e-06
-6.93362e-06
-6.95392e-06
-6.95484e-06
-6.93657e-06
-6.89952e-06
-6.84434e-06
-6.77185e-06
-6.68303e-06
-6.57892e-06
-6.4607e-06
-6.32945e-06
-3.75177e-05
-3.31479e-05
-2.92829e-05
-2.58819e-05
-2.29039e-05
-2.03096e-05
-1.8062e-05
-1.61264e-05
-1.44704e-05
-1.30637e-05
-1.18783e-05
-1.08881e-05
-1.00693e-05
-9.39996e-06
-8.86012e-06
-8.43161e-06
-8.09797e-06
-7.84443e-06
-7.65775e-06
-7.5261e-06
-7.43905e-06
-7.38741e-06
-7.36314e-06
-7.35927e-06
-7.36978e-06
-7.38944e-06
-7.41376e-06
-7.4389e-06
-7.46156e-06
-7.47892e-06
-7.4886e-06
-7.48861e-06
-7.47737e-06
-7.45361e-06
-7.41645e-06
-7.36532e-06
-7.29996e-06
-7.22039e-06
-7.12685e-06
-7.01981e-06
-6.89993e-06
-6.76794e-06
-6.62475e-06
-6.47115e-06
-4.68181e-05
-4.19196e-05
-3.75378e-05
-3.36342e-05
-3.01693e-05
-2.71052e-05
-2.44061e-05
-2.20382e-05
-1.99695e-05
-1.817e-05
-1.66118e-05
-1.52689e-05
-1.41172e-05
-1.31343e-05
-1.22999e-05
-1.15953e-05
-1.10032e-05
-1.05084e-05
-1.00968e-05
-9.75593e-06
-9.47449e-06
-9.24257e-06
-9.05137e-06
-8.89318e-06
-8.76121e-06
-8.64954e-06
-8.55299e-06
-8.46706e-06
-8.38781e-06
-8.31181e-06
-8.2361e-06
-8.15815e-06
-8.07583e-06
-7.9874e-06
-7.89149e-06
-7.78707e-06
-7.67346e-06
-7.55026e-06
-7.41733e-06
-7.2748e-06
-7.12299e-06
-6.96231e-06
-6.79341e-06
-6.61681e-06
-5.58415e-05
-5.04534e-05
-4.55901e-05
-4.12155e-05
-3.7292e-05
-3.37833e-05
-3.06549e-05
-2.7874e-05
-2.54095e-05
-2.32318e-05
-2.13135e-05
-1.96285e-05
-1.81528e-05
-1.68639e-05
-1.5741e-05
-1.47651e-05
-1.39187e-05
-1.31857e-05
-1.25516e-05
-1.20031e-05
-1.15284e-05
-1.11169e-05
-1.07591e-05
-1.04466e-05
-1.0172e-05
-9.9285e-06
-9.71046e-06
-9.5127e-06
-9.33068e-06
-9.16037e-06
-8.99828e-06
-8.84134e-06
-8.6869e-06
-8.53276e-06
-8.37707e-06
-8.21836e-06
-8.05553e-06
-7.88777e-06
-7.71459e-06
-7.53576e-06
-7.35128e-06
-7.16123e-06
-6.96598e-06
-6.7658e-06
-6.45427e-05
-5.87058e-05
-5.33983e-05
-4.85863e-05
-4.42346e-05
-4.03086e-05
-3.67752e-05
-3.3603e-05
-3.07616e-05
-2.82225e-05
-2.59584e-05
-2.3944e-05
-2.2155e-05
-2.05693e-05
-1.91658e-05
-1.79253e-05
-1.68298e-05
-1.58631e-05
-1.50099e-05
-1.42567e-05
-1.35911e-05
-1.30017e-05
-1.24785e-05
-1.20125e-05
-1.15956e-05
-1.12206e-05
-1.0881e-05
-1.05712e-05
-1.02861e-05
-1.00209e-05
-9.77188e-06
-9.53527e-06
-9.308e-06
-9.0874e-06
-8.87117e-06
-8.65742e-06
-8.44462e-06
-8.23157e-06
-8.01746e-06
-7.80167e-06
-7.58388e-06
-7.3639e-06
-7.14177e-06
-6.91752e-06
-7.2883e-05
-6.66391e-05
-6.09259e-05
-5.57118e-05
-5.09639e-05
-4.66494e-05
-4.27371e-05
-3.91968e-05
-3.59994e-05
-3.31171e-05
-3.05237e-05
-2.81939e-05
-2.61042e-05
-2.42324e-05
-2.25575e-05
-2.10603e-05
-1.97226e-05
-1.85277e-05
-1.74604e-05
-1.65064e-05
-1.56529e-05
-1.48882e-05
-1.42017e-05
-1.35838e-05
-1.30258e-05
-1.25201e-05
-1.20596e-05
-1.16381e-05
-1.12498e-05
-1.08899e-05
-1.05536e-05
-1.0237e-05
-9.93656e-06
-9.64904e-06
-9.37177e-06
-9.10244e-06
-8.83914e-06
-8.58029e-06
-8.3247e-06
-8.07145e-06
-7.81987e-06
-7.56949e-06
-7.32006e-06
-7.07133e-06
-8.08295e-05
-7.42212e-05
-6.81415e-05
-6.25614e-05
-5.74503e-05
-5.27775e-05
-4.85136e-05
-4.46299e-05
-4.10986e-05
-3.78932e-05
-3.4988e-05
-3.23586e-05
-2.9982e-05
-2.78361e-05
-2.59005e-05
-2.41557e-05
-2.25837e-05
-2.11675e-05
-1.98917e-05
-1.87419e-05
-1.77047e-05
-1.67682e-05
-1.59212e-05
-1.51536e-05
-1.44565e-05
-1.38215e-05
-1.32411e-05
-1.27087e-05
-1.2218e-05
-1.17635e-05
-1.13403e-05
-1.09438e-05
-1.057e-05
-1.02154e-05
-9.87684e-06
-9.55164e-06
-9.2375e-06
-8.9325e-06
-8.63508e-06
-8.34401e-06
-8.05831e-06
-7.77718e-06
-7.50012e-06
-7.22661e-06
-8.83553e-05
-8.14251e-05
-7.50183e-05
-6.91088e-05
-6.36682e-05
-5.86681e-05
-5.40809e-05
-4.98795e-05
-4.60377e-05
-4.25301e-05
-3.9332e-05
-3.64198e-05
-3.37712e-05
-3.13647e-05
-2.918e-05
-2.71979e-05
-2.54005e-05
-2.37709e-05
-2.22935e-05
-2.09535e-05
-1.97377e-05
-1.86335e-05
-1.76295e-05
-1.67154e-05
-1.58815e-05
-1.51192e-05
-1.44207e-05
-1.37786e-05
-1.31865e-05
-1.26383e-05
-1.21286e-05
-1.16526e-05
-1.12057e-05
-1.07842e-05
-1.03843e-05
-1.00032e-05
-9.63812e-06
-9.28681e-06
-8.94738e-06
-8.61827e-06
-8.29822e-06
-7.98612e-06
-7.68121e-06
-7.38272e-06
-9.54393e-05
-8.8229e-05
-8.15345e-05
-7.53322e-05
-6.9596e-05
-6.42999e-05
-5.94182e-05
-5.49255e-05
-5.07973e-05
-4.70093e-05
-4.35381e-05
-4.0361e-05
-3.74564e-05
-3.48035e-05
-3.23824e-05
-3.01743e-05
-2.81614e-05
-2.63271e-05
-2.46555e-05
-2.31322e-05
-2.17433e-05
-2.04764e-05
-1.93197e-05
-1.82626e-05
-1.7295e-05
-1.64081e-05
-1.55935e-05
-1.48436e-05
-1.41515e-05
-1.35107e-05
-1.29155e-05
-1.23606e-05
-1.18413e-05
-1.13531e-05
-1.08923e-05
-1.04554e-05
-1.00394e-05
-9.64182e-06
-9.26036e-06
-8.89316e-06
-8.53865e-06
-8.19548e-06
-7.86259e-06
-7.53899e-06
-0.000102065
-9.4616e-05
-8.76724e-05
-8.12134e-05
-7.52156e-05
-6.96548e-05
-6.45077e-05
-5.97506e-05
-5.53605e-05
-5.13146e-05
-4.75907e-05
-4.41672e-05
-4.10234e-05
-3.81391e-05
-3.5495e-05
-3.3073e-05
-3.08554e-05
-2.88258e-05
-2.69685e-05
-2.5269e-05
-2.37137e-05
-2.22896e-05
-2.09851e-05
-1.97891e-05
-1.86915e-05
-1.7683e-05
-1.67549e-05
-1.58994e-05
-1.5109e-05
-1.43773e-05
-1.36978e-05
-1.30652e-05
-1.24741e-05
-1.192e-05
-1.13987e-05
-1.09064e-05
-1.04399e-05
-9.99615e-06
-9.57278e-06
-9.16757e-06
-8.77866e-06
-8.40441e-06
-8.04354e-06
-7.69479e-06
-0.000108222
-0.000100573
-9.34185e-05
-8.67384e-05
-8.05122e-05
-7.47181e-05
-6.93345e-05
-6.43399e-05
-5.97127e-05
-5.54317e-05
-5.1476e-05
-4.78252e-05
-4.44594e-05
-4.13594e-05
-3.85066e-05
-3.58833e-05
-3.34723e-05
-3.12575e-05
-2.92236e-05
-2.7356e-05
-2.56411e-05
-2.40661e-05
-2.26191e-05
-2.1289e-05
-2.00654e-05
-1.89389e-05
-1.79004e-05
-1.69418e-05
-1.60556e-05
-1.52346e-05
-1.44726e-05
-1.37634e-05
-1.31017e-05
-1.24826e-05
-1.19015e-05
-1.13545e-05
-1.08378e-05
-1.03484e-05
-9.88344e-06
-9.44043e-06
-9.01728e-06
-8.61208e-06
-8.2233e-06
-7.84947e-06
-0.000113903
-0.000106093
-9.87632e-05
-9.18967e-05
-8.54747e-05
-7.94779e-05
-7.38866e-05
-6.86811e-05
-6.38417e-05
-5.93486e-05
-5.51822e-05
-5.13234e-05
-4.77534e-05
-4.44538e-05
-4.14069e-05
-3.85954e-05
-3.6003e-05
-3.36138e-05
-3.14127e-05
-2.93855e-05
-2.75186e-05
-2.57994e-05
-2.42159e-05
-2.27568e-05
-2.14118e-05
-2.01711e-05
-1.90257e-05
-1.79671e-05
-1.69875e-05
-1.60796e-05
-1.52368e-05
-1.44528e-05
-1.37219e-05
-1.30389e-05
-1.2399e-05
-1.1798e-05
-1.12319e-05
-1.06973e-05
-1.01911e-05
-9.71069e-06
-9.25357e-06
-8.81765e-06
-8.40115e-06
-8.00238e-06
-0.000119104
-0.00011117
-0.000103701
-9.66808e-05
-9.00948e-05
-8.39252e-05
-7.81543e-05
-7.27644e-05
-6.77374e-05
-6.30549e-05
-5.86991e-05
-5.46518e-05
-5.08955e-05
-4.74127e-05
-4.41866e-05
-4.12007e-05
-3.84391e-05
-3.58866e-05
-3.35283e-05
-3.13505e-05
-2.93397e-05
-2.74834e-05
-2.57696e-05
-2.41872e-05
-2.27258e-05
-2.13754e-05
-2.01268e-05
-1.89715e-05
-1.79014e-05
-1.69092e-05
-1.59877e-05
-1.51307e-05
-1.43322e-05
-1.35867e-05
-1.28892e-05
-1.22352e-05
-1.16205e-05
-1.10414e-05
-1.04947e-05
-9.97728e-06
-9.48661e-06
-9.02031e-06
-8.57637e-06
-8.15288e-06
-0.000123828
-0.000115804
-0.000108227
-0.000101087
-9.43672e-05
-8.80537e-05
-8.21307e-05
-7.65822e-05
-7.13916e-05
-6.65425e-05
-6.20182e-05
-5.7802e-05
-5.38773e-05
-5.0228e-05
-4.68379e-05
-4.36914e-05
-4.07732e-05
-3.80688e-05
-3.55638e-05
-3.32446e-05
-3.10983e-05
-2.91124e-05
-2.72751e-05
-2.55754e-05
-2.40028e-05
-2.25473e-05
-2.11998e-05
-1.99514e-05
-1.87941e-05
-1.77202e-05
-1.67227e-05
-1.57948e-05
-1.49305e-05
-1.41241e-05
-1.33704e-05
-1.26645e-05
-1.20022e-05
-1.13795e-05
-1.07929e-05
-1.02392e-05
-9.71549e-06
-9.21924e-06
-8.74823e-06
-8.30035e-06
-0.000128076
-0.000119995
-0.000112344
-0.000105113
-9.82889e-05
-9.18596e-05
-8.58109e-05
-8.01288e-05
-7.47985e-05
-6.98049e-05
-6.51328e-05
-6.0767e-05
-5.66919e-05
-5.28925e-05
-4.93537e-05
-4.60606e-05
-4.29988e-05
-4.01541e-05
-3.7513e-05
-3.50621e-05
-3.27889e-05
-3.06813e-05
-2.87276e-05
-2.69168e-05
-2.52386e-05
-2.36831e-05
-2.2241e-05
-2.09035e-05
-1.96624e-05
-1.851e-05
-1.7439e-05
-1.64427e-05
-1.55146e-05
-1.46491e-05
-1.38407e-05
-1.30844e-05
-1.23757e-05
-1.17104e-05
-1.10847e-05
-1.04954e-05
-9.93931e-06
-9.41366e-06
-8.91605e-06
-8.44417e-06
-0.000131857
-0.000123749
-0.000116053
-0.00010876
-0.000101859
-9.53409e-05
-8.91921e-05
-8.34007e-05
-7.79536e-05
-7.28371e-05
-6.80377e-05
-6.35411e-05
-5.93334e-05
-5.54005e-05
-5.17281e-05
-4.83025e-05
-4.51099e-05
-4.21369e-05
-3.93704e-05
-3.67978e-05
-3.44067e-05
-3.21853e-05
-3.01224e-05
-2.82072e-05
-2.64294e-05
-2.47791e-05
-2.32471e-05
-2.18247e-05
-2.05036e-05
-1.92759e-05
-1.81344e-05
-1.70721e-05
-1.60826e-05
-1.51599e-05
-1.42985e-05
-1.34933e-05
-1.27394e-05
-1.20327e-05
-1.1369e-05
-1.07449e-05
-1.01572e-05
-9.60278e-06
-9.07912e-06
-8.58372e-06
-0.00013518
-0.000127074
-0.00011936
-0.000112032
-0.000105081
-9.84982e-05
-9.22736e-05
-8.63961e-05
-8.08543e-05
-7.5636e-05
-7.07289e-05
-6.61203e-05
-6.17974e-05
-5.77471e-05
-5.39564e-05
-5.04123e-05
-4.71019e-05
-4.40125e-05
-4.11316e-05
-3.8447e-05
-3.59471e-05
-3.36204e-05
-3.14558e-05
-2.94429e-05
-2.75714e-05
-2.58319e-05
-2.4215e-05
-2.27121e-05
-2.13148e-05
-2.00154e-05
-1.88064e-05
-1.7681e-05
-1.66325e-05
-1.56548e-05
-1.47423e-05
-1.38898e-05
-1.30923e-05
-1.23453e-05
-1.16448e-05
-1.09869e-05
-1.03683e-05
-9.78589e-06
-9.23681e-06
-8.71848e-06
-0.000138058
-0.000129981
-0.000122275
-0.000114937
-0.00010796
-0.000101336
-9.50578e-05
-8.91162e-05
-8.35008e-05
-7.82008e-05
-7.32052e-05
-6.85027e-05
-6.40816e-05
-5.99299e-05
-5.60357e-05
-5.23869e-05
-4.89715e-05
-4.57774e-05
-4.2793e-05
-4.00066e-05
-3.74071e-05
-3.49833e-05
-3.27247e-05
-3.06209e-05
-2.86622e-05
-2.6839e-05
-2.51422e-05
-2.35634e-05
-2.20941e-05
-2.07266e-05
-1.94535e-05
-1.82677e-05
-1.71628e-05
-1.61324e-05
-1.51709e-05
-1.42728e-05
-1.34332e-05
-1.26474e-05
-1.19111e-05
-1.12205e-05
-1.05721e-05
-9.96242e-06
-9.38861e-06
-8.84796e-06
-0.000140502
-0.000132476
-0.000124803
-0.000117479
-0.0001105
-0.000103861
-9.75493e-05
-9.15638e-05
-8.58947e-05
-8.05322e-05
-7.54664e-05
-7.06872e-05
-6.61843e-05
-6.19466e-05
-5.79634e-05
-5.42234e-05
-5.07156e-05
-4.74286e-05
-4.43515e-05
-4.14733e-05
-3.87832e-05
-3.62708e-05
-3.39258e-05
-3.17382e-05
-2.96985e-05
-2.77974e-05
-2.60261e-05
-2.43759e-05
-2.28389e-05
-2.14071e-05
-2.00732e-05
-1.88303e-05
-1.76716e-05
-1.65909e-05
-1.55825e-05
-1.46408e-05
-1.37608e-05
-1.29376e-05
-1.2167e-05
-1.14448e-05
-1.07675e-05
-1.01315e-05
-9.53374e-06
-8.97147e-06
-0.000142515
-0.000134563
-0.000126945
-0.000119658
-0.0001127
-0.000106064
-9.97463e-05
-9.37376e-05
-8.80342e-05
-8.26277e-05
-7.75095e-05
-7.26706e-05
-6.81018e-05
-6.37933e-05
-5.97353e-05
-5.59175e-05
-5.23297e-05
-4.89615e-05
-4.58025e-05
-4.28425e-05
-4.00712e-05
-3.74786e-05
-3.50551e-05
-3.27909e-05
-3.06768e-05
-2.87038e-05
-2.68632e-05
-2.51467e-05
-2.35463e-05
-2.20542e-05
-2.06632e-05
-1.93663e-05
-1.81568e-05
-1.70285e-05
-1.59755e-05
-1.49922e-05
-1.40736e-05
-1.32147e-05
-1.24111e-05
-1.16587e-05
-1.09535e-05
-1.02922e-05
-9.67142e-06
-9.0883e-06
-0.000114565
-0.000107953
-0.000101646
-9.56354e-05
-8.99169e-05
-8.44846e-05
-7.93313e-05
-7.44492e-05
-6.98304e-05
-6.5466e-05
-6.13474e-05
-5.74651e-05
-5.38098e-05
-5.0372e-05
-4.71421e-05
-4.41103e-05
-4.12672e-05
-3.86032e-05
-3.61091e-05
-3.37756e-05
-3.15938e-05
-2.9555e-05
-2.76509e-05
-2.58731e-05
-2.42139e-05
-2.26657e-05
-2.12214e-05
-1.98738e-05
-1.86166e-05
-1.74434e-05
-1.63482e-05
-1.53256e-05
-1.43703e-05
-1.34775e-05
-1.26425e-05
-1.18611e-05
-1.11295e-05
-1.04439e-05
-9.80098e-06
-9.19778e-06
-0.000760782
-0.000640176
-0.000531814
-0.000435311
-0.000350134
-0.00027563
-0.000211054
-0.000155607
-0.000108464
-6.87914e-05
-3.57769e-05
-8.63803e-06
1.33633e-05
3.0913e-05
4.464e-05
5.51133e-05
6.28423e-05
6.8278e-05
7.18155e-05
7.37983e-05
7.45218e-05
7.42379e-05
7.31599e-05
7.14659e-05
6.93015e-05
6.67919e-05
-0.000942591
-0.000808758
-0.000687031
-0.000577288
-0.000479185
-0.000392228
-0.000315804
-0.000249208
-0.000191677
-0.000142416
-0.000100625
-6.55135e-05
-3.63226e-05
-1.23319e-05
7.13008e-06
2.2681e-05
3.48821e-05
4.42375e-05
5.11957e-05
5.61513e-05
5.94489e-05
6.13866e-05
6.22201e-05
6.21673e-05
6.14123e-05
6.01086e-05
5.83875e-05
-0.000982143
-0.000848817
-0.000727227
-0.000617266
-0.000518624
-0.000430843
-0.000353351
-0.00028548
-0.000226506
-0.000175673
-0.000132214
-9.53751e-05
-6.44251e-05
-3.86704e-05
-1.74625e-05
-2.02682e-07
1.36545e-05
2.46009e-05
3.30756e-05
3.94668e-05
4.41149e-05
4.7316e-05
4.93257e-05
5.03632e-05
5.06152e-05
5.02392e-05
4.93681e-05
-0.00101889
-0.000886145
-0.000764792
-0.000654742
-0.000555712
-0.000467277
-0.000388895
-0.000319935
-0.000259708
-0.000207494
-0.000162558
-0.000124177
-9.16471e-05
-6.43e-05
-4.15079e-05
-2.26903e-05
-7.31635e-06
5.09404e-06
1.4971e-05
2.26962e-05
2.86059e-05
3.29939e-05
3.61149e-05
3.81887e-05
3.94034e-05
3.99192e-05
3.98716e-05
-0.00105097
-0.000919419
-0.000798871
-0.00068925
-0.000590303
-0.000501635
-0.000422738
-0.000353021
-0.000291834
-0.000238493
-0.000192301
-0.000152568
-0.000118621
-8.98195e-05
-6.55592e-05
-4.52802e-05
-2.84689e-05
-1.46588e-05
-3.43072e-06
5.58888e-06
1.27304e-05
1.82838e-05
2.2502e-05
2.56041e-05
2.77788e-05
2.91879e-05
2.99694e-05
-0.00107717
-0.000947557
-0.000828492
-0.000719923
-0.000621621
-0.000533226
-0.000454268
-0.000384197
-0.000322403
-0.000268245
-0.000221066
-0.000180213
-0.000145048
-0.000114961
-8.93748e-05
-6.7754e-05
-4.96041e-05
-3.44753e-05
-2.19616e-05
-1.16996e-05
-3.36665e-06
3.32173e-06
8.61495e-06
1.27302e-05
1.58559e-05
1.81541e-05
1.97643e-05
-0.0010971
-0.000970127
-0.000853208
-0.000746299
-0.0006492
-0.000561583
-0.000483021
-0.000413004
-0.000350969
-0.000296318
-0.000248439
-0.000206718
-0.000170555
-0.000139374
-0.000112629
-8.98086e-05
-7.0442e-05
-5.40978e-05
-4.03853e-05
-2.89536e-05
-1.94894e-05
-1.17151e-05
-5.3864e-06
-2.89172e-07
3.76314e-06
6.93235e-06
9.3584e-06
-0.00111058
-0.000986943
-0.000872802
-0.000768138
-0.000672778
-0.000586432
-0.000508713
-0.000439156
-0.000377245
-0.00032243
-0.000274144
-0.000231815
-0.000194885
-0.000162813
-0.000135086
-0.000111222
-9.07732e-05
-7.33303e-05
-5.85195e-05
-4.60037e-05
-3.54807e-05
-2.66818e-05
-1.93686e-05
-1.33316e-05
-8.38708e-06
-4.37459e-06
-1.15467e-06
-0.00111772
-0.00099803
-0.000887245
-0.000785365
-0.000692245
-0.000607631
-0.000531178
-0.000462469
-0.000401036
-0.000346377
-0.000297972
-0.000255297
-0.000217832
-0.000185078
-0.000156553
-0.000131808
-0.000110422
-9.20061e-05
-7.62066e-05
-6.27018e-05
-5.12024e-05
-4.14491e-05
-3.32116e-05
-2.62857e-05
-2.04916e-05
-1.56714e-05
-1.16871e-05
-0.00111883
-0.00100362
-0.00089669
-0.000798064
-0.000707626
-0.000625157
-0.000550354
-0.00048285
-0.000422224
-0.000368024
-0.000319778
-0.000277007
-0.000239238
-0.000206007
-0.000176872
-0.000151413
-0.000129236
-0.000109979
-9.33076e-05
-7.89162e-05
-6.65296e-05
-5.59e-05
-4.68055e-05
-3.90489e-05
-3.24551e-05
-2.68697e-05
-2.21568e-05
-0.0011144
-0.00100409
-0.000901427
-0.000806447
-0.000719062
-0.000639091
-0.000566275
-0.00050029
-0.000440767
-0.000387302
-0.000339472
-0.000296844
-0.000258988
-0.000225482
-0.000195918
-0.00016991
-0.000147093
-0.000127129
-0.000109704
-9.45328e-05
-8.13536e-05
-6.99309e-05
-6.00526e-05
-5.15291e-05
-4.41912e-05
-3.78887e-05
-3.24886e-05
-0.00110502
-0.000999929
-0.000901846
-0.000810815
-0.00072678
-0.000649596
-0.000579044
-0.000514848
-0.000456685
-0.000404201
-0.000357018
-0.000314751
-0.000277012
-0.000243419
-0.000213601
-0.000187204
-0.000163894
-0.000143356
-0.000125299
-0.000109456
-9.55815e-05
-8.34524e-05
-7.28673e-05
-6.36449e-05
-5.56227e-05
-4.86555e-05
-4.2614e-05
-0.00109135
-0.000991694
-0.000898398
-0.000811531
-0.000731065
-0.000656888
-0.000588822
-0.000526634
-0.000470048
-0.000418754
-0.000372422
-0.00033071
-0.000293274
-0.000259769
-0.000229861
-0.000203229
-0.000179566
-0.000158584
-0.000140015
-0.000123608
-0.000109136
-9.63889e-05
-8.51761e-05
-7.53255e-05
-6.66819e-05
-5.91057e-05
-5.2472e-05
-0.00107408
-0.000979948
-0.000891557
-0.000808987
-0.000732234
-0.00066122
-0.000595805
-0.000535796
-0.00048096
-0.000431031
-0.000385724
-0.000344739
-0.00030777
-0.000274512
-0.000244666
-0.000217941
-0.00019406
-0.000172759
-0.000153792
-0.000136928
-0.000121955
-0.000108678
-9.69175e-05
-8.65108e-05
-7.73103e-05
-6.91829e-05
-6.20085e-05
-0.00105384
-0.000965248
-0.000881795
-0.000803578
-0.000730617
-0.000662863
-0.000600211
-0.000542506
-0.000489554
-0.000441131
-0.000396993
-0.000356879
-0.000320522
-0.000287653
-0.000258006
-0.00023132
-0.000207345
-0.000185843
-0.000166588
-0.000149369
-0.000133991
-0.000120271
-0.000108041
-9.71506e-05
-8.74587e-05
-7.88389e-05
-7.11767e-05
-0.00103124
-0.000948113
-0.000869561
-0.000795689
-0.000726539
-0.00066209
-0.000602266
-0.000546947
-0.000495977
-0.000449169
-0.000406315
-0.000367194
-0.000331573
-0.000299217
-0.00026989
-0.000243362
-0.000219409
-0.000197815
-0.000178377
-0.000160901
-0.000145207
-0.000131128
-0.000118508
-0.000107205
-9.70863e-05
-8.80333e-05
-7.99369e-05
-0.0010068
-0.000929014
-0.000855267
-0.00078568
-0.000720312
-0.000659167
-0.000602196
-0.000549309
-0.000500385
-0.00045527
-0.000413792
-0.000375761
-0.00034098
-0.000309243