/*--------------------------------*- C++ -*----------------------------------*\
| =========                 |                                                 |
| \\      /  F ield         | OpenFOAM: The Open Source CFD Toolbox           |
|  \\    /   O peration     | Version:  2412                                  |
|   \\  /    A nd           | Website:  www.openfoam.com                      |
|    \\/     M anipulation  |                                                 |
\*---------------------------------------------------------------------------*/
FoamFile
{
    version     2.0;
    format      ascii;
    arch        "LSB;label=32;scalar=64";
    class       volVectorField;
    location    "17.5";
    object      vorticity;
}
// * * * * * * * * * * * * * * * * * * * * * * * * * * * * * * * * * * * * * //

dimensions      [0 0 -1 0 0 0 0];

internalField   nonuniform List<vector> 
5285
(
(9.42189e-22 2.3488e-21 -0.0099501)
(-1.06273e-21 8.66232e-24 -0.00919179)
(7.52057e-22 3.16028e-21 -0.00844837)
(-2.5282e-22 1.30893e-23 -0.00772687)
(-4.50238e-22 9.84715e-25 -0.00703259)
(1.91892e-22 -3.72797e-24 -0.00636985)
(2.29639e-22 4.13073e-21 -0.00574199)
(-4.3213e-24 3.82395e-24 -0.0051514)
(-2.15974e-22 -4.57321e-21 -0.00459963)
(2.08472e-22 4.78107e-21 -0.00408744)
(-2.49932e-22 -4.9618e-21 -0.00361501)
(1.02384e-21 4.71314e-20 -0.0031819)
(-9.58199e-22 -4.74703e-20 -0.00278723)
(-4.44947e-22 -3.91755e-20 -0.00242973)
(1.04059e-21 8.52571e-20 -0.00210779)
(-5.81133e-22 -4.62364e-20 -0.00181958)
(-7.98197e-23 -5.97191e-21 -0.00156303)
(7.74487e-23 6.14957e-21 -0.00133599)
(-5.25044e-23 1.00376e-25 -0.00113618)
(1.87541e-22 6.3853e-21 -0.000961337)
(-3.0044e-22 -3.27729e-20 -0.00080916)
(2.71842e-22 3.29716e-20 -0.000677415)
(-6.24235e-23 -6.74971e-21 -0.000563933)
(1.7315e-22 2.05935e-20 -0.000466641)
(2.26155e-23 -6.86361e-21 -0.000383569)
(-1.06166e-22 -1.40732e-20 -0.000312849)
(2.58766e-23 7.07413e-21 -0.000252695)
(-7.4962e-23 -7.19201e-21 -0.000201415)
(2.36078e-20 1.7359e-19 -0.0293764)
(-2.6184e-20 -1.86694e-19 -0.0271233)
(2.50521e-20 2.09131e-19 -0.0249163)
(-1.3108e-20 -9.78335e-20 -0.0227772)
(-2.41858e-20 -2.37295e-19 -0.0207209)
(1.16971e-20 1.21824e-19 -0.0187598)
(5.44211e-23 -3.93977e-21 -0.0169033)
(-1.00338e-21 -8.86892e-21 -0.0151582)
(3.31456e-22 4.58125e-21 -0.0135289)
(-1.03334e-21 -1.44392e-20 -0.0120173)
(8.53146e-21 1.58047e-19 -0.0106239)
(-1.78757e-20 -3.37923e-19 -0.00934705)
(8.03647e-21 1.64171e-19 -0.00818412)
(-9.43838e-22 -1.67681e-20 -0.00713119)
(2.92656e-22 5.71465e-21 -0.00618342)
(-2.51206e-23 -6.74345e-23 -0.00533526)
(-3.61154e-21 -1.03322e-19 -0.00458061)
(3.07139e-21 9.14634e-20 -0.003913)
(2.19933e-21 8.87592e-20 -0.00332573)
(-3.23973e-21 -1.20984e-19 -0.002812)
(7.67347e-23 6.61182e-21 -0.00236506)
(6.61409e-22 3.34935e-20 -0.00197827)
(-1.45645e-21 -6.03416e-20 -0.00164524)
(2.43636e-23 -6.82337e-21 -0.00135983)
(-8.99981e-22 -4.86615e-20 -0.00111624)
(-1.67657e-22 -7.28968e-21 -0.00090894)
(2.11346e-22 1.40051e-20 -0.000732585)
(2.51074e-22 2.14514e-20 -0.000581955)
(-4.2828e-20 -1.88125e-19 -0.0474518)
(4.58345e-20 1.96106e-19 -0.0437658)
(7.24391e-22 8.1008e-21 -0.0401644)
(-1.0996e-21 -7.34551e-21 -0.0366804)
(8.73046e-22 8.10572e-21 -0.0333378)
(-3.59058e-20 -2.59083e-19 -0.0301551)
(3.82985e-20 2.67176e-19 -0.0271468)
(-3.31891e-20 -2.76359e-19 -0.0243229)
(3.54764e-20 2.94879e-19 -0.0216895)
(8.03557e-22 9.94968e-21 -0.0192493)
(3.01265e-20 3.31669e-19 -0.0170022)
(-5.82095e-20 -6.65162e-19 -0.0149453)
(2.93633e-20 3.55006e-19 -0.0130737)
(1.3764e-20 1.93211e-19 -0.0113807)
(-1.22208e-20 -1.70953e-19 -0.00985812)
(3.67586e-22 8.61522e-23 -0.0084968)
(-5.22358e-22 -8.72806e-23 -0.00728661)
(-5.78329e-23 1.16868e-22 -0.00621691)
(9.13128e-21 2.03793e-19 -0.00527674)
(-8.83464e-21 -1.91502e-19 -0.00445501)
(7.2229e-22 1.32376e-20 -0.00374074)
(-3.95616e-22 -5.24148e-24 -0.00312317)
(3.36148e-21 1.0847e-19 -0.00259192)
(-6.18761e-21 -2.05095e-19 -0.00213709)
(3.03985e-21 1.10217e-19 -0.00174927)
(-1.53265e-21 -5.63839e-20 -0.00141948)
(1.15691e-21 4.21472e-20 -0.0011389)
(2.74057e-22 1.41466e-20 -0.000898369)
(1.09612e-21 -3.97556e-23 -0.0634827)
(-1.43036e-21 6.92215e-21 -0.0584618)
(2.76007e-21 3.85906e-22 -0.0535713)
(1.36491e-21 8.50204e-21 -0.0488533)
(-1.11256e-19 -5.38575e-19 -0.0443398)
(1.10907e-19 5.29154e-19 -0.0400521)
(-1.22073e-21 1.20588e-21 -0.0360079)
(-4.77002e-20 -3.04653e-19 -0.032219)
(5.05437e-20 3.14576e-19 -0.0286921)
(-8.98753e-23 1.73381e-22 -0.0254295)
(-1.96939e-22 -3.01495e-22 -0.0224298)
(-4.12576e-20 -3.61223e-19 -0.0196883)
(7.91256e-20 7.22786e-19 -0.0171973)
(-7.30539e-20 -7.31385e-19 -0.0149473)
(6.91321e-20 7.50221e-19 -0.0129267)
(-6.4665e-20 -7.67929e-19 -0.0111224)
(3.11025e-20 3.88626e-19 -0.00952069)
(1.34823e-20 2.01561e-19 -0.00810679)
(-1.18659e-20 -1.76579e-19 -0.00686577)
(-9.8268e-22 -1.301e-20 -0.00578259)
(-1.08452e-20 -2.11547e-19 -0.00484237)
(2.26282e-20 4.53424e-19 -0.00403062)
(-1.0373e-20 -2.1517e-19 -0.00333338)
(1.04418e-22 1.68934e-22 -0.00273737)
(4.20751e-22 1.38134e-20 -0.00222998)
(-9.18618e-23 -6.00033e-23 -0.0017991)
(-4.00416e-22 -1.40873e-20 -0.00143254)
(8.60504e-22 2.84982e-20 -0.00111668)
(-1.50173e-19 -4.88774e-19 -0.0708039)
(1.47091e-19 4.6932e-19 -0.0647549)
(-2.51397e-21 2.27925e-21 -0.0589409)
(2.88855e-21 -5.83428e-25 -0.0533963)
(-3.13403e-21 -8.12073e-21 -0.0481452)
(-1.29771e-19 -6.12507e-19 -0.0432052)
(1.29039e-19 6.01164e-19 -0.0385882)
(-2.24216e-21 -9.24524e-21 -0.0343005)
(-5.49676e-20 -3.29503e-19 -0.0303429)
(5.78792e-20 3.50433e-19 -0.0267118)
(4.53755e-23 6.42233e-23 -0.0233998)
(4.75292e-22 2.04124e-22 -0.0203966)
(-2.25168e-22 -1.45485e-22 -0.0176891)
(-4.14831e-20 -3.86042e-19 -0.0152622)
(4.29482e-20 3.98373e-19 -0.0130993)
(-3.53928e-20 -3.88932e-19 -0.0111827)
(3.70274e-20 4.01227e-19 -0.00949414)
(-2.31272e-21 -2.5882e-20 -0.00801485)
(6.85071e-22 1.30058e-20 -0.00672622)
(3.51142e-22 8.10399e-23 -0.00560991)
(-6.97918e-22 -1.33396e-20 -0.00464812)
(6.88564e-22 1.34587e-20 -0.0038238)
(-6.32071e-21 -1.23596e-19 -0.00312074)
(1.08518e-20 2.21002e-19 -0.00252362)
(-7.71204e-21 -1.67117e-19 -0.00201762)
(2.42031e-21 5.60338e-20 -0.00158745)
(1.11324e-22 2.64324e-23 -0.00121448)
(1.81026e-19 5.27029e-19 -0.0806481)
(-1.86821e-19 -5.19021e-19 -0.0735857)
(-1.73335e-19 -5.79652e-19 -0.0668242)
(1.72126e-19 5.62999e-19 -0.0604007)
(-2.02167e-21 1.7378e-21 -0.0543372)
(2.37016e-21 -6.36947e-22 -0.0486501)
(1.49666e-19 6.67214e-19 -0.0433501)
(-6.90786e-21 2.29225e-20 -0.0384414)
(-1.47456e-19 -7.07977e-19 -0.0339224)
(-1.31705e-19 -7.37351e-19 -0.0297868)
(2.49485e-19 1.45514e-18 -0.0260242)
(-6.62252e-20 -3.73251e-19 -0.0226208)
(-5.927e-20 -3.91103e-19 -0.0195598)
(-5.41839e-20 -4.18652e-19 -0.0168228)
(9.67621e-20 7.82416e-19 -0.0143895)
(-9.31838e-20 -8.20835e-19 -0.0122386)
(1.46735e-21 -1.90784e-20 -0.0103482)
(4.11692e-20 4.12513e-19 -0.00869636)
(3.5871e-20 4.23225e-19 -0.00726113)
(-5.45239e-20 -6.63541e-19 -0.00602114)
(3.07913e-20 4.16628e-19 -0.00495577)
(-1.64872e-20 -2.29505e-19 -0.00404534)
(1.42562e-20 2.33706e-19 -0.00327124)
(-1.40438e-20 -2.33457e-19 -0.00261592)
(5.74988e-22 1.392e-20 -0.00206241)
(-3.34295e-21 -7.01262e-20 -0.00159269)
(1.37102e-21 2.79179e-20 -0.00118261)
(-2.1765e-19 -5.58159e-19 -0.0854002)
(4.26039e-21 -3.41302e-21 -0.0778341)
(1.93693e-21 -3.33326e-23 -0.0706)
(5.69444e-22 1.10028e-20 -0.0637347)
(-1.91119e-19 -6.65927e-19 -0.0572624)
(1.91339e-19 6.60764e-19 -0.0511976)
(-1.12881e-21 1.34761e-21 -0.0455513)
(2.10603e-22 -7.36529e-24 -0.0403271)
(2.78822e-21 1.14914e-20 -0.035523)
(-1.48247e-19 -7.42734e-19 -0.0311314)
(2.9452e-19 1.53136e-18 -0.0271406)
(-1.41819e-19 -7.65459e-19 -0.0235352)
(1.88396e-21 1.20608e-20 -0.020297)
(1.63988e-21 1.24906e-20 -0.0174055)
(5.53138e-20 4.0912e-19 -0.0148385)
(-1.04928e-19 -8.09463e-19 -0.0125729)
(5.25747e-20 4.25922e-19 -0.0105849)
(-4.295e-20 -4.10461e-19 -0.00885078)
(3.16121e-21 -5.30636e-21 -0.0073468)
(3.69322e-21 8.40582e-21 -0.00604995)
(3.94428e-20 4.42897e-19 -0.00493807)
(1.7398e-20 2.31839e-19 -0.00399006)
(-1.72449e-20 -2.31461e-19 -0.00318602)
(7.58637e-22 1.38291e-20 -0.00250723)
(6.55869e-21 1.10985e-19 -0.00193566)
(-5.81901e-21 -9.68101e-20 -0.00145183)
(6.88669e-22 1.39396e-20 -0.00102393)
(0 2.90345e-24 -0.000142759)
(0 -0 -0.000111022)
(0 -0 -8.51306e-05)
(0 -0 -6.41924e-05)
(0 -0 -4.74007e-05)
(0 -0 -3.40316e-05)
(0 -0 -2.34465e-05)
(0 -0 -1.50922e-05)
(0 -0 -8.4956e-06)
(0 -0 -3.25613e-06)
(0 -0 9.64307e-07)
(0 -0 4.45154e-06)
(0 -0 7.4488e-06)
(0 -0 1.01646e-05)
(0 -0 1.2778e-05)
(0 -0 1.54393e-05)
(0 -0 1.82667e-05)
(0 -0 2.13378e-05)
(0 -0 2.46778e-05)
(0 -0 2.82453e-05)
(0 -0 3.19228e-05)
(0 -0 3.55135e-05)
(0 -0 3.87517e-05)
(0 -0 4.13297e-05)
(0 -0 4.29395e-05)
(0 -0 4.33259e-05)
(0 -0 4.23383e-05)
(0 -0 3.99698e-05)
(0 -0 3.63717e-05)
(0 -0 3.18372e-05)
(0 -0 2.67551e-05)
(0 -0 2.15465e-05)
(0 -0 1.65975e-05)
(0 -0 1.22055e-05)
(0 -0 8.55051e-06)
(0 -0 5.69222e-06)
(0 -0 3.59087e-06)
(0 -0 2.14037e-06)
(0 -0 1.20369e-06)
(0 -0 6.42257e-07)
(0 -0 3.3517e-07)
(0 -0 1.88023e-07)
(0 -0 1.32878e-07)
(0 -0 1.30303e-07)
(0 -8.80045e-24 -0.000411736)
(0 -0 -0.000319547)
(0 -0 -0.000244462)
(0 -0 -0.000183848)
(0 -0 -0.000135324)
(0 -0 -9.67545e-05)
(0 -0 -6.62668e-05)
(0 -0 -4.22414e-05)
(0 -0 -2.32979e-05)
(0 -0 -8.26882e-06)
(0 -0 3.83018e-06)
(0 -0 1.38311e-05)
(0 -0 2.24419e-05)
(0 -0 3.02699e-05)
(0 -0 3.78365e-05)
(0 -0 4.55796e-05)
(0 -0 5.38433e-05)
(0 -0 6.28524e-05)
(0 -0 7.26765e-05)
(0 -0 8.31906e-05)
(0 -0 9.40436e-05)
(0 -0 0.00010465)
(0 -0 0.000114223)
(0 -0 0.000121849)
(0 -0 0.000126616)
(0 -0 0.000127766)
(0 -0 0.000124853)
(0 -0 0.000117855)
(0 -0 0.00010722)
(0 -0 9.38138e-05)
(0 -0 7.87875e-05)
(0 -0 6.33871e-05)
(0 -0 4.87555e-05)
(0 -0 3.57737e-05)
(0 -0 2.49742e-05)
(0 -0 1.65338e-05)
(0 -0 1.03348e-05)
(0 -0 6.06265e-06)
(0 -0 3.31148e-06)
(0 -0 1.67071e-06)
(0 -0 7.82129e-07)
(0 -0 3.66139e-07)
(0 -0 2.21474e-07)
(0 -0 2.32691e-07)
(0 -5.96854e-24 -0.000633328)
(0 -0 -0.000489622)
(0 -0 -0.000372979)
(0 -0 -0.000279129)
(0 -0 -0.000204217)
(0 -0 -0.00014483)
(0 -0 -9.79948e-05)
(0 -0 -6.11623e-05)
(0 -0 -3.21703e-05)
(0 -0 -9.19455e-06)
(0 -0 9.30132e-06)
(0 -0 2.46161e-05)
(0 -0 3.78565e-05)
(0 -0 4.99739e-05)
(0 -0 6.17868e-05)
(0 -0 7.39846e-05)
(0 -0 8.71085e-05)
(0 -0 0.00010151)
(0 -0 0.000117294)
(0 -0 0.000134248)
(0 -0 0.000151798)
(0 -0 0.000168989)
(0 -0 0.000184537)
(0 -0 0.000196957)
(0 -0 0.00020476)
(0 -0 0.000206712)
(0 -0 0.000202078)
(0 -0 0.000190817)
(0 -0 0.000173646)
(0 -0 0.000151967)
(0 -0 0.000127644)
(0 -0 0.0001027)
(0 -0 7.89896e-05)
(0 -0 5.79457e-05)
(0 -0 4.04354e-05)
(0 -0 2.67489e-05)
(0 -0 1.66975e-05)
(0 -0 9.7724e-06)
(0 -0 5.31564e-06)
(0 -0 2.66121e-06)
(0 -0 1.2277e-06)
(0 -0 5.61085e-07)
(0 -0 3.34444e-07)
(0 -0 3.61292e-07)
(0 -1.06158e-23 -0.00078261)
(0 -0 -0.000601379)
(0 -0 -0.000455108)
(0 -0 -0.000337975)
(0 -0 -0.000244842)
(0 -0 -0.000171256)
(0 -0 -0.000113399)
(0 -0 -6.8028e-05)
(0 -0 -3.24021e-05)
(0 -0 -4.21465e-06)
(0 -0 1.84778e-05)
(0 -0 3.73209e-05)
(0 -0 5.37212e-05)
(0 -0 6.88925e-05)
(0 -0 8.38834e-05)
(0 -0 9.95801e-05)
(0 -0 0.000116679)
(0 -0 0.000135629)
(0 -0 0.000156552)
(0 -0 0.000179152)
(0 -0 0.000202643)
(0 -0 0.000225732)
(0 -0 0.000246685)
(0 -0 0.00026349)
(0 -0 0.000274135)
(0 -0 0.000276941)
(0 -0 0.000270906)
(0 -0 0.000255956)
(0 -0 0.000233043)
(0 -0 0.00020404)
(0 -0 0.00017145)
(0 -0 0.000137991)
(0 -0 0.000106161)
(0 -0 7.78943e-05)
(0 -0 5.43634e-05)
(0 -0 3.59658e-05)
(0 -0 2.24525e-05)
(0 -0 1.3143e-05)
(0 -0 7.15415e-06)
(0 -0 3.59063e-06)
(0 -0 1.67032e-06)
(0 -0 7.82065e-07)
(0 -0 4.85455e-07)
(0 -0 5.3071e-07)
(0 2.95167e-25 -0.000843957)
(0 -0 -0.00064327)
(0 -0 -0.000482456)
(0 -0 -0.000354292)
(0 -0 -0.000252756)
(0 -0 -0.0001728)
(0 -0 -0.000110157)
(0 -0 -6.12137e-05)
(0 -0 -2.29188e-05)
(0 -0 7.30318e-06)
(0 -0 3.16292e-05)
(0 -0 5.19109e-05)
(0 -0 6.9739e-05)
(0 -0 8.64945e-05)
(0 -0 0.000103378)
(0 -0 0.000121408)
(0 -0 0.000141388)
(0 -0 0.000163829)
(0 -0 0.000188853)
(0 -0 0.000216079)
(0 -0 0.000244536)
(0 -0 0.000272634)
(0 -0 0.000298244)
(0 -0 0.000318897)
(0 -0 0.000332118)
(0 -0 0.000335839)
(0 -0 0.000328809)
(0 -0 0.00031091)
(0 -0 0.00028328)
(0 -0 0.000248185)
(0 -0 0.000208664)
(0 -0 0.000168028)
(0 -0 0.00012933)
(0 -0 9.49349e-05)
(0 -0 6.62848e-05)
(0 -0 4.38746e-05)
(0 -0 2.741e-05)
(0 -0 1.60674e-05)
(0 -0 8.77324e-06)
(0 -0 4.43745e-06)
(0 -0 2.1064e-06)
(0 -0 1.03436e-06)
(0 -0 6.83406e-07)
(0 -0 7.50544e-07)
(0 -9.61507e-24 -0.000814047)
(0 -0 -0.00061507)
(0 -0 -0.000456132)
(0 -0 -0.00032952)
(0 -0 -0.000229341)
(0 -0 -0.00015067)
(0 -0 -8.92928e-05)
(0 -0 -4.15934e-05)
(0 -0 -4.48235e-06)
(0 -0 2.46718e-05)
(0 -0 4.8111e-05)
(0 -0 6.77563e-05)
(0 -0 8.52711e-05)
(0 -0 0.00010211)
(0 -0 0.000119549)
(0 -0 0.000138677)
(0 -0 0.000160351)
(0 -0 0.000185115)
(0 -0 0.000213074)
(0 -0 0.000243768)
(0 -0 0.000276069)
(0 -0 0.000308142)
(0 -0 0.000337531)
(0 -0 0.000361393)
(0 -0 0.000376869)
(0 -0 0.000381556)
(0 -0 0.000373986)
(0 -0 0.000353988)
(0 -0 0.000322825)
(0 -0 0.000283064)
(0 -0 0.000238166)
(0 -0 0.000191915)
(0 -0 0.000147807)
(0 -0 0.000108563)
(0 -0 7.58481e-05)
(0 -0 5.02436e-05)
(0 -0 3.14261e-05)
(0 -0 1.84621e-05)
(0 -0 1.01289e-05)
(0 -0 5.18138e-06)
(0 -0 2.52886e-06)
(0 -0 1.31749e-06)
(0 -0 9.30474e-07)
(0 -0 1.02331e-06)
(0 -4.35977e-24 -0.000706598)
(0 -0 -0.000531409)
(0 -0 -0.000387928)
(0 -0 -0.000272905)
(0 -0 -0.000181634)
(0 -0 -0.000110218)
(0 -0 -5.48897e-05)
(0 -0 -1.22908e-05)
(0 -0 2.05091e-05)
(0 -0 4.60416e-05)
(0 -0 6.64867e-05)
(0 -0 8.37292e-05)
(0 -0 9.94155e-05)
(0 -0 0.000114999)
(0 -0 0.000131764)
(0 -0 0.000150815)
(0 -0 0.000173025)
(0 -0 0.000198937)
(0 -0 0.000228631)
(0 -0 0.000261581)
(0 -0 0.000296534)
(0 -0 0.000331469)
(0 -0 0.000363686)
(0 -0 0.000390052)
(0 -0 0.00040741)
(0 -0 0.000413096)
(0 -0 0.000405456)
(0 -0 0.000384251)
(0 -0 0.000350816)
(0 -0 0.000307917)
(0 -0 0.000259313)
(0 -0 0.000209128)
(0 -0 0.000161188)
(0 -0 0.00011848)
(0 -0 8.28415e-05)
(0 -0 5.49304e-05)
(0 -0 3.44096e-05)
(0 -0 2.0272e-05)
(0 -0 1.11893e-05)
(0 -0 5.80487e-06)
(0 -0 2.92803e-06)
(0 -0 1.62569e-06)
(0 -0 1.22255e-06)
(0 -0 1.34468e-06)
(0 -0 -0.000576435)
(0 -0 -0.000420109)
(0 -0 -0.000295036)
(0 -0 -0.000195639)
(0 -0 -0.000117617)
(0 -0 -5.7148e-05)
(0 -0 -1.10481e-05)
(0 -0 2.3753e-05)
(0 -0 4.99632e-05)
(0 -0 6.99446e-05)
(0 -0 8.57473e-05)
(0 -0 9.91571e-05)
(0 -0 0.000111745)
(0 -0 0.00012491)
(0 -0 0.000139897)
(0 -0 0.000157787)
(0 -0 0.000179432)
(0 -0 0.000205356)
(0 -0 0.00023561)
(0 -0 0.000269614)
(0 -0 0.00030603)
(0 -0 0.000342713)
(0 -0 0.000376796)
(0 -0 0.00040495)
(0 -0 0.000423808)
(0 -0 0.000430509)
(0 -0 0.000423249)
(0 -0 0.000401715)
(0 -0 0.000367253)
(0 -0 0.000322731)
(0 -0 0.000272079)
(0 -0 0.000219634)
(0 -0 0.000169434)
(0 -0 0.000124644)
(0 -0 8.72266e-05)
(0 -0 5.79001e-05)
(0 -0 3.63305e-05)
(0 -0 2.14722e-05)
(0 -0 1.19346e-05)
(0 -0 6.29258e-06)
(0 -0 3.29255e-06)
(0 -0 1.9507e-06)
(0 -0 1.55376e-06)
(0 -0 1.71091e-06)
(0 -0 -0.000434212)
(0 -0 -0.000303565)
(0 -0 -0.000198256)
(0 -0 -0.00011544)
(0 -0 -5.12049e-05)
(0 -0 -2.50429e-06)
(0 -0 3.35074e-05)
(0 -0 5.96645e-05)
(0 -0 7.84832e-05)
(0 -0 9.21649e-05)
(0 -0 0.000102624)
(0 -0 0.000111531)
(0 -0 0.00012036)
(0 -0 0.000130431)
(0 -0 0.000142924)
(0 -0 0.000158869)
(0 -0 0.000179081)
(0 -0 0.000204055)
(0 -0 0.000233814)
(0 -0 0.000267749)
(0 -0 0.000304481)
(0 -0 0.000341807)
(0 -0 0.000376785)
(0 -0 0.000405985)
(0 -0 0.000425925)
(0 -0 0.000433626)
(0 -0 0.000427177)
(0 -0 0.00040618)
(0 -0 0.000371939)
(0 -0 0.000327323)
(0 -0 0.000276309)
(0 -0 0.000223309)
(0 -0 0.000172452)
(0 -0 0.000126991)
(0 -0 8.89626e-05)
(0 -0 5.91282e-05)
(0 -0 3.71744e-05)
(0 -0 2.2053e-05)
(0 -0 1.2356e-05)
(0 -0 6.6343e-06)
(0 -0 3.6096e-06)
(0 -0 2.27699e-06)
(0 -0 1.906e-06)
(0 -0 2.10281e-06)
(0 -0 -0.000327748)
(0 -0 -0.000208881)
(0 -0 -0.000116575)
(0 -0 -4.61738e-05)
(0 -0 6.70386e-06)
(0 -0 4.52135e-05)
(0 -0 7.21821e-05)
(0 -0 9.03871e-05)
(0 -0 0.00010226)
(0 -0 0.000109907)
(0 -0 0.000115144)
(0 -0 0.000119545)
(0 -0 0.000124496)
(0 -0 0.000131234)
(0 -0 0.00014087)
(0 -0 0.000154375)
(0 -0 0.000172519)
(0 -0 0.000195764)
(0 -0 0.000224118)
(0 -0 0.000256968)
(0 -0 0.000292942)
(0 -0 0.00032985)
(0 -0 0.000364759)
(0 -0 0.000394239)
(0 -0 0.000414792)
(0 -0 0.000423398)
(0 -0 0.000418084)
(0 -0 0.000398369)
(0 -0 0.000365469)
(0 -0 0.000322164)
(0 -0 0.000272355)
(0 -0 0.000220401)
(0 -0 0.000170405)
(0 -0 0.000125621)
(0 -0 8.80987e-05)
(0 -0 5.86313e-05)
(0 -0 3.6937e-05)
(0 -0 2.19978e-05)
(0 -0 1.24304e-05)
(0 -0 6.80369e-06)
(0 -0 3.85147e-06)
(0 -0 2.5763e-06)
(0 -0 2.25075e-06)
(0 -0 2.49192e-06)
(0 -0 -0.000254043)
(0 -0 -0.000141532)
(0 -0 -5.70395e-05)
(0 -0 5.09373e-06)
(0 -0 4.98698e-05)
(0 -0 8.07436e-05)
(0 -0 0.000100682)
(0 -0 0.000112522)
(0 -0 0.000118695)
(0 -0 0.000121273)
(0 -0 0.000122017)
(0 -0 0.000122434)
(0 -0 0.000123839)
(0 -0 0.0001274)
(0 -0 0.000134161)
(0 -0 0.000145035)
(0 -0 0.000160749)
(0 -0 0.000181739)
(0 -0 0.000208008)
(0 -0 0.000238969)
(0 -0 0.0002733)
(0 -0 0.000308885)
(0 -0 0.000342881)
(0 -0 0.000371947)
(0 -0 0.000392656)
(0 -0 0.000402021)
(0 -0 0.000398053)
(0 -0 0.000380196)
(0 -0 0.000349539)
(0 -0 0.000308698)
(0 -0 0.000261399)
(0 -0 0.000211838)
(0 -0 0.00016399)
(0 -0 0.000121026)
(0 -0 8.49675e-05)
(0 -0 5.66177e-05)
(0 -0 3.57368e-05)
(0 -0 2.13639e-05)
(0 -0 1.21758e-05)
(0 -0 6.79525e-06)
(0 -0 3.99954e-06)
(0 -0 2.82344e-06)
(0 -0 2.56004e-06)
(0 -0 2.84928e-06)
(0 -0 -0.000207144)
(0 -0 -9.90899e-05)
(0 -0 -1.96754e-05)
(0 -0 3.70912e-05)
(0 -0 7.65152e-05)
(0 -0 0.000102229)
(0 -0 0.000117304)
(0 -0 0.000124641)
(0 -0 0.00012669)
(0 -0 0.000125509)
(0 -0 0.000122825)
(0 -0 0.0001201)
(0 -0 0.000118594)
(0 -0 0.000119414)
(0 -0 0.000123547)
(0 -0 0.000131854)
(0 -0 0.000145021)
(0 -0 0.000163467)
(0 -0 0.000187206)
(0 -0 0.000215697)
(0 -0 0.000247708)
(0 -0 0.000281251)
(0 -0 0.000313636)
(0 -0 0.000341688)
(0 -0 0.000362126)
(0 -0 0.000372063)
(0 -0 0.000369533)
(0 -0 0.000353919)
(0 -0 0.000326158)
(0 -0 0.000288649)
(0 -0 0.000244861)
(0 -0 0.00019874)
(0 -0 0.000154049)
(0 -0 0.000113813)
(0 -0 7.99793e-05)
(0 -0 5.33477e-05)
(0 -0 3.37254e-05)
(0 -0 2.02284e-05)
(0 -0 1.16212e-05)
(0 -0 6.60905e-06)
(0 -0 4.03777e-06)
(0 -0 2.9942e-06)
(0 -0 2.80627e-06)
(0 -0 3.14617e-06)
(0 -0 -0.000179982)
(0 -0 -7.62418e-05)
(0 -0 -8.50242e-07)
(0 -0 5.21422e-05)
(0 -0 8.80527e-05)
(0 -0 0.0001105)
(0 -0 0.000122545)
(0 -0 0.000127079)
(0 -0 0.000126533)
(0 -0 0.000122935)
(0 -0 0.000117976)
(0 -0 0.00011307)
(0 -0 0.000109426)
(0 -0 0.000108099)
(0 -0 0.000110022)
(0 -0 0.000116006)
(0 -0 0.000126705)
(0 -0 0.000142524)
(0 -0 0.0001635)
(0 -0 0.000189158)
(0 -0 0.000218384)
(0 -0 0.000249355)
(0 -0 0.000279591)
(0 -0 0.000306138)
(0 -0 0.000325924)
(0 -0 0.000336214)
(0 -0 0.000335105)
(0 -0 0.000321932)
(0 -0 0.00029747)
(0 -0 0.000263862)
(0 -0 0.000224268)
(0 -0 0.000182317)
(0 -0 0.000141499)
(0 -0 0.000104641)
(0 -0 7.35848e-05)
(0 -0 4.91103e-05)
(0 -0 3.10734e-05)
(0 -0 1.86811e-05)
(0 -0 1.08042e-05)
(0 -0 6.25095e-06)
(0 -0 3.95436e-06)
(0 -0 3.06787e-06)
(0 -0 2.96491e-06)
(0 -0 3.35696e-06)
(0 -0 -0.000165698)
(0 -0 -6.69978e-05)
(0 -0 4.41661e-06)
(0 -0 5.4252e-05)
(0 -0 8.7642e-05)
(0 -0 0.000108035)
(0 -0 0.000118359)
(0 -0 0.000121408)
(0 -0 0.000119531)
(0 -0 0.000114688)
(0 -0 0.000108504)
(0 -0 0.000102336)
(0 -0 9.7335e-05)
(0 -0 9.44983e-05)
(0 -0 9.4705e-05)
(0 -0 9.87206e-05)
(0 -0 0.000107164)
(0 -0 0.000120433)
(0 -0 0.000138594)
(0 -0 0.000161249)
(0 -0 0.000187419)
(0 -0 0.000215479)
(0 -0 0.000243187)
(0 -0 0.000267858)
(0 -0 0.000286667)
(0 -0 0.000297075)
(0 -0 0.000297275)
(0 -0 0.000286571)
(0 -0 0.000265575)
(0 -0 0.000236155)
(0 -0 0.000201129)
(0 -0 0.000163771)
(0 -0 0.000127254)
(0 -0 9.41735e-05)
(0 -0 6.62395e-05)
(0 -0 4.42e-05)
(0 -0 2.79582e-05)
(0 -0 1.68179e-05)
(0 -0 9.76823e-06)
(0 -0 5.7327e-06)
(0 -0 3.74317e-06)
(0 -0 3.0293e-06)
(0 -0 3.01692e-06)
(0 -0 3.46152e-06)
(0 -0 -0.000158455)
(0 -0 -6.58593e-05)
(0 -0 1.10379e-06)
(0 -0 4.77897e-05)
(0 -0 7.90307e-05)
(0 -0 9.80004e-05)
(0 -0 0.000107401)
(0 -0 0.00010985)
(0 -0 0.000107556)
(0 -0 0.000102363)
(0 -0 9.58013e-05)
(0 -0 8.91468e-05)
(0 -0 8.34782e-05)
(0 -0 7.9728e-05)
(0 -0 7.87161e-05)
(0 -0 8.11578e-05)
(0 -0 8.7638e-05)
(0 -0 9.85462e-05)
(0 -0 0.000113979)
(0 -0 0.000133622)
(0 -0 0.000156642)
(0 -0 0.000181619)
(0 -0 0.000206575)
(0 -0 0.000229113)
(0 -0 0.000246688)
(0 -0 0.000256982)
(0 -0 0.000258308)
(0 -0 0.000249958)
(0 -0 0.00023239)
(0 -0 0.000207196)
(0 -0 0.000176838)
(0 -0 0.000144217)
(0 -0 0.000112168)
(0 -0 8.30322e-05)
(0 -0 5.83738e-05)
(0 -0 3.88983e-05)
(0 -0 2.45515e-05)
(0 -0 1.47354e-05)
(0 -0 8.5605e-06)
(0 -0 5.07161e-06)
(0 -0 3.40474e-06)
(0 -0 2.8705e-06)
(0 -0 2.95068e-06)
(0 -0 3.44716e-06)
(0 -0 -0.000153807)
(0 -0 -6.83876e-05)
(0 -0 -6.53292e-06)
(0 -0 3.67013e-05)
(0 -0 6.57804e-05)
(0 -0 8.3543e-05)
(0 -0 9.2407e-05)
(0 -0 9.47602e-05)
(0 -0 9.26222e-05)
(0 -0 8.76832e-05)
(0 -0 8.13494e-05)
(0 -0 7.47933e-05)
(0 -0 6.90061e-05)
(0 -0 6.4844e-05)
(0 -0 6.30602e-05)
(0 -0 6.4315e-05)
(0 -0 6.91551e-05)
(0 -0 7.79591e-05)
(0 -0 9.08518e-05)
(0 -0 0.0001076)
(0 -0 0.000127515)
(0 -0 0.000149387)
(0 -0 0.000171503)
(0 -0 0.000191764)
(0 -0 0.000207917)
(0 -0 0.00021788)
(0 -0 0.000220105)
(0 -0 0.000213888)
(0 -0 0.000199549)
(0 -0 0.000178414)
(0 -0 0.000152597)
(0 -0 0.000124621)
(0 -0 9.69834e-05)
(0 -0 7.17635e-05)
(0 -0 5.03698e-05)
(0 -0 3.34581e-05)
(0 -0 2.10113e-05)
(0 -0 1.2525e-05)
(0 -0 7.22958e-06)
(0 -0 4.28995e-06)
(0 -0 2.94656e-06)
(0 -0 2.59141e-06)
(0 -0 2.76289e-06)
(0 -0 3.3096e-06)
(0 -0 -0.000148764)
(0 -0 -7.13948e-05)
(0 -0 -1.52685e-05)
(0 -0 2.41193e-05)
(0 -0 5.08358e-05)
(0 -0 6.73579e-05)
(0 -0 7.57912e-05)
(0 -0 7.82617e-05)
(0 -0 7.65714e-05)
(0 -0 7.22318e-05)
(0 -0 6.6503e-05)
(0 -0 6.04369e-05)
(0 -0 5.49239e-05)
(0 -0 5.07338e-05)
(0 -0 4.85459e-05)
(0 -0 4.89598e-05)
(0 -0 5.24792e-05)
(0 -0 5.94668e-05)
(0 -0 7.00703e-05)
(0 -0 8.41311e-05)
(0 -0 0.000101096)
(0 -0 0.000119958)
(0 -0 0.000139263)
(0 -0 0.000157204)
(0 -0 0.000171817)
(0 -0 0.000181263)
(0 -0 0.000184141)
(0 -0 0.000179768)
(0 -0 0.000168343)
(0 -0 0.000150949)
(0 -0 0.000129369)
(0 -0 0.000105767)
(0 -0 8.23089e-05)
(0 -0 6.08181e-05)
(0 -0 4.2546e-05)
(0 -0 2.80939e-05)
(0 -0 1.74747e-05)
(0 -0 1.02701e-05)
(0 -0 5.82338e-06)
(0 -0 3.41403e-06)
(0 -0 2.38267e-06)
(0 -0 2.19983e-06)
(0 -0 2.45863e-06)
(0 -0 3.05312e-06)
(0 -0 -0.000141653)
(0 -0 -7.28965e-05)
(0 -0 -2.29502e-05)
(0 -0 1.22455e-05)
(0 -0 3.63533e-05)
(0 -0 5.14855e-05)
(0 -0 5.94292e-05)
(0 -0 6.20378e-05)
(0 -0 6.08837e-05)
(0 -0 5.72876e-05)
(0 -0 5.23515e-05)
(0 -0 4.69971e-05)
(0 -0 4.20053e-05)
(0 -0 3.80529e-05)
(0 -0 3.57401e-05)
(0 -0 3.5601e-05)
(0 -0 3.80921e-05)
(0 -0 4.35547e-05)
(0 -0 5.21517e-05)
(0 -0 6.37891e-05)
(0 -0 7.8037e-05)
(0 -0 9.4075e-05)
(0 -0 0.00011069)
(0 -0 0.000126352)
(0 -0 0.000139376)
(0 -0 0.000148158)
(0 -0 0.000151447)
(0 -0 0.000148594)
(0 -0 0.0001397)
(0 -0 0.000125629)
(0 -0 0.000107864)
(0 -0 8.8237e-05)
(0 -0 6.86021e-05)
(0 -0 5.05398e-05)
(0 -0 3.51497e-05)
(0 -0 2.2976e-05)
(0 -0 1.40543e-05)
(0 -0 8.04275e-06)
(0 -0 4.38735e-06)
(0 -0 2.47286e-06)
(0 -0 1.73272e-06)
(0 -0 1.71058e-06)
(0 -0 2.05058e-06)
(0 -0 2.68977e-06)
(0 -0 -0.000131853)
(0 -0 -7.1924e-05)
(0 -0 -2.83795e-05)
(0 -0 2.40792e-06)
(0 -0 2.37063e-05)
(0 -0 3.72778e-05)
(0 -0 4.46007e-05)
(0 -0 4.72606e-05)
(0 -0 4.66016e-05)
(0 -0 4.37528e-05)
(0 -0 3.96569e-05)
(0 -0 3.51021e-05)
(0 -0 3.07574e-05)
(0 -0 2.7204e-05)
(0 -0 2.49606e-05)
(0 -0 2.44938e-05)
(0 -0 2.62096e-05)
(0 -0 3.04228e-05)
(0 -0 3.73039e-05)
(0 -0 4.68116e-05)
(0 -0 5.86234e-05)
(0 -0 7.20846e-05)
(0 -0 8.62009e-05)
(0 -0 9.96951e-05)
(0 -0 0.000111139)
(0 -0 0.000119153)
(0 -0 0.000122634)
(0 -0 0.000120974)
(0 -0 0.000114198)
(0 -0 0.000102984)
(0 -0 8.85457e-05)
(0 -0 7.24176e-05)
(0 -0 5.61726e-05)
(0 -0 4.11664e-05)
(0 -0 2.83562e-05)
(0 -0 1.82293e-05)
(0 -0 1.08367e-05)
(0 -0 5.9024e-06)
(0 -0 2.96273e-06)
(0 -0 1.49644e-06)
(0 -0 1.02029e-06)
(0 -0 1.1439e-06)
(0 -0 1.55753e-06)
(0 -0 2.23783e-06)
(0 -0 -0.000119496)
(0 -0 -6.82754e-05)
(0 -0 -3.11125e-05)
(0 -0 -4.78819e-06)
(0 -0 1.35938e-05)
(0 -0 2.54702e-05)
(0 -0 3.20323e-05)
(0 -0 3.46126e-05)
(0 -0 3.43389e-05)
(0 -0 3.2157e-05)
(0 -0 2.88554e-05)
(0 -0 2.50933e-05)
(0 -0 2.14299e-05)
(0 -0 1.83528e-05)
(0 -0 1.63004e-05)
(0 -0 1.56718e-05)
(0 -0 1.68213e-05)
(0 -0 2.00335e-05)
(0 -0 2.54794e-05)
(0 -0 3.31584e-05)
(0 -0 4.28377e-05)
(0 -0 5.40056e-05)
(0 -0 6.58595e-05)
(0 -0 7.73473e-05)
(0 -0 8.72728e-05)
(0 -0 9.44596e-05)
(0 -0 9.79469e-05)
(0 -0 9.71747e-05)
(0 -0 9.211e-05)
(0 -0 8.32733e-05)
(0 -0 7.1652e-05)
(0 -0 5.85177e-05)
(0 -0 4.51946e-05)
(0 -0 3.28376e-05)
(0 -0 2.22738e-05)
(0 -0 1.39353e-05)
(0 -0 7.88281e-06)
(0 -0 3.8949e-06)
(0 -0 1.58522e-06)
(0 -0 5.14037e-07)
(0 -0 2.70932e-07)
(0 -0 5.23393e-07)
(0 -0 1.00221e-06)
(0 -0 1.71974e-06)
(0 -0 -0.000105176)
(0 -0 -6.22582e-05)
(0 -0 -3.1238e-05)
(0 -0 -9.27135e-06)
(0 -0 6.19651e-06)
(0 -0 1.63095e-05)
(0 -0 2.19993e-05)
(0 -0 2.43681e-05)
(0 -0 2.43453e-05)
(0 -0 2.27079e-05)
(0 -0 2.01018e-05)
(0 -0 1.70652e-05)
(0 -0 1.40548e-05)
(0 -0 1.14699e-05)
(0 -0 9.67223e-06)
(0 -0 8.99627e-06)
(0 -0 9.74537e-06)
(0 -0 1.21721e-05)
(0 -0 1.64416e-05)
(0 -0 2.2583e-05)
(0 -0 3.04361e-05)
(0 -0 3.96088e-05)
(0 -0 4.94621e-05)
(0 -0 5.91387e-05)
(0 -0 6.76458e-05)
(0 -0 7.39894e-05)
(0 -0 7.73382e-05)
(0 -0 7.71836e-05)
(0 -0 7.34523e-05)
(0 -0 6.6538e-05)
(0 -0 5.72362e-05)
(0 -0 4.65963e-05)
(0 -0 3.57272e-05)
(0 -0 2.56086e-05)
(0 -0 1.69518e-05)
(0 -0 1.01371e-05)
(0 -0 5.23006e-06)
(0 -0 2.05291e-06)
(0 -0 2.84041e-07)
(0 -0 -4.4741e-07)
(0 -0 -4.89804e-07)
(0 -0 -1.26116e-07)
(0 -0 4.09089e-07)
(0 -0 1.15986e-06)
(0 -0 -8.97001e-05)
(0 -0 -5.44614e-05)
(0 -0 -2.91693e-05)
(0 -0 -1.13177e-05)
(0 -0 1.34181e-06)
(0 -0 9.69573e-06)
(0 -0 1.44482e-05)
(0 -0 1.6497e-05)
(0 -0 1.6595e-05)
(0 -0 1.53686e-05)
(0 -0 1.33355e-05)
(0 -0 1.09256e-05)
(0 -0 8.50198e-06)
(0 -0 6.38366e-06)
(0 -0 4.86221e-06)
(0 -0 4.21189e-06)
(0 -0 4.68771e-06)
(0 -0 6.50975e-06)
(0 -0 9.83316e-06)
(0 -0 1.47067e-05)
(0 -0 2.1027e-05)
(0 -0 2.84996e-05)
(0 -0 3.66216e-05)
(0 -0 4.47e-05)
(0 -0 5.19167e-05)
(0 -0 5.74364e-05)
(0 -0 6.05442e-05)
(0 -0 6.07828e-05)
(0 -0 5.80531e-05)
(0 -0 5.26486e-05)
(0 -0 4.5208e-05)
(0 -0 3.65954e-05)
(0 -0 2.77386e-05)
(0 -0 1.94672e-05)
(0 -0 1.23917e-05)
(0 -0 6.84576e-06)
(0 -0 2.89511e-06)
(0 -0 3.96664e-07)
(0 -0 -9.18626e-07)
(0 -0 -1.36466e-06)
(0 -0 -1.23817e-06)
(0 -0 -7.80622e-07)
(0 -0 -1.97723e-07)
(0 -0 5.82311e-07)
(0 -0 -7.39056e-05)
(0 -0 -4.5576e-05)
(0 -0 -2.54733e-05)
(0 -0 -1.13904e-05)
(0 -0 -1.34909e-06)
(0 -0 5.31672e-06)
(0 -0 9.11635e-06)
(0 -0 1.07705e-05)
(0 -0 1.08794e-05)
(0 -0 9.93837e-06)
(0 -0 8.35368e-06)
(0 -0 6.45975e-06)
(0 -0 4.53816e-06)
(0 -0 2.83649e-06)
(0 -0 1.58394e-06)
(0 -0 1.00058e-06)
(0 -0 1.29701e-06)
(0 -0 2.6619e-06)
(0 -0 5.23741e-06)
(0 -0 9.08425e-06)
(0 -0 1.41419e-05)
(0 -0 2.01935e-05)
(0 -0 2.68466e-05)
(0 -0 3.35445e-05)
(0 -0 3.96151e-05)
(0 -0 4.43585e-05)
(0 -0 4.71621e-05)
(0 -0 4.76175e-05)
(0 -0 4.56112e-05)
(0 -0 4.13597e-05)
(0 -0 3.53763e-05)
(0 -0 2.83741e-05)
(0 -0 2.11309e-05)
(0 -0 1.4351e-05)
(0 -0 8.5589e-06)
(0 -0 4.04661e-06)
(0 -0 8.77647e-07)
(0 -0 -1.06476e-06)
(0 -0 -2.00779e-06)
(0 -0 -2.21923e-06)
(0 -0 -1.95374e-06)
(0 -0 -1.41872e-06)
(0 -0 -7.96333e-07)
(0 -0 9.13179e-09)
(0 -0 -5.85358e-05)
(0 -0 -3.62672e-05)
(0 -0 -2.07431e-05)
(0 -0 -1.00166e-05)
(0 -0 -2.34356e-06)
(0 -0 2.7574e-06)
(0 -0 5.63266e-06)
(0 -0 6.85323e-06)
(0 -0 6.88979e-06)
(0 -0 6.12676e-06)
(0 -0 4.87554e-06)
(0 -0 3.38942e-06)
(0 -0 1.87997e-06)
(0 -0 5.33436e-07)
(0 -0 -4.75048e-07)
(0 -0 -9.72814e-07)
(0 -0 -7.89007e-07)
(0 -0 2.35848e-07)
(0 -0 2.2295e-06)
(0 -0 5.25856e-06)
(0 -0 9.29386e-06)
(0 -0 1.41784e-05)
(0 -0 1.96082e-05)
(0 -0 2.51365e-05)
(0 -0 3.02114e-05)
(0 -0 3.42463e-05)
(0 -0 3.67161e-05)
(0 -0 3.72579e-05)
(0 -0 3.57521e-05)
(0 -0 3.23576e-05)
(0 -0 2.74891e-05)
(0 -0 2.17392e-05)
(0 -0 1.57639e-05)
(0 -0 1.01644e-05)
(0 -0 5.39347e-06)
(0 -0 1.70693e-06)
(0 -0 -8.35704e-07)
(0 -0 -2.33165e-06)
(0 -0 -2.97531e-06)
(0 -0 -2.99791e-06)
(0 -0 -2.62039e-06)
(0 -0 -2.02278e-06)
(0 -0 -1.36843e-06)
(0 -0 -5.41102e-07)
(0 -0 -4.41736e-05)
(0 -0 -2.70992e-05)
(0 -0 -1.55168e-05)
(0 -0 -7.70311e-06)
(0 -0 -2.1139e-06)
(0 -0 1.5808e-06)
(0 -0 3.59427e-06)
(0 -0 4.37341e-06)
(0 -0 4.28168e-06)
(0 -0 3.6114e-06)
(0 -0 2.59528e-06)
(0 -0 1.41909e-06)
(0 -0 2.35905e-07)
(0 -0 -8.19488e-07)
(0 -0 -1.61771e-06)
(0 -0 -2.02661e-06)
(0 -0 -1.90986e-06)
(0 -0 -1.13439e-06)
(0 -0 4.12948e-07)
(0 -0 2.80027e-06)
(0 -0 6.0205e-06)
(0 -0 9.96212e-06)
(0 -0 1.43899e-05)
(0 -0 1.89449e-05)
(0 -0 2.31721e-05)
(0 -0 2.65782e-05)
(0 -0 2.87116e-05)
(0 -0 2.92502e-05)
(0 -0 2.8074e-05)
(0 -0 2.52999e-05)
(0 -0 2.12668e-05)
(0 -0 1.64721e-05)
(0 -0 1.1475e-05)
(0 -0 6.79326e-06)
(0 -0 2.82063e-06)
(0 -0 -2.17881e-07)
(0 -0 -2.26766e-06)
(0 -0 -3.41167e-06)
(0 -0 -3.81912e-06)
(0 -0 -3.69268e-06)
(0 -0 -3.22672e-06)
(0 -0 -2.57961e-06)
(0 -0 -1.89997e-06)
(0 -0 -1.05403e-06)
(0 -0 -3.12189e-05)
(0 -0 -1.84993e-05)
(0 -0 -1.02332e-05)
(0 -0 -4.88697e-06)
(0 -0 -1.08526e-06)
(0 -0 1.38055e-06)
(0 -0 2.61756e-06)
(0 -0 2.97187e-06)
(0 -0 2.71983e-06)
(0 -0 2.07909e-06)
(0 -0 1.21844e-06)
(0 -0 2.68725e-07)
(0 -0 -6.64825e-07)
(0 -0 -1.48962e-06)
(0 -0 -2.11419e-06)
(0 -0 -2.44028e-06)
(0 -0 -2.36098e-06)
(0 -0 -1.76635e-06)
(0 -0 -5.57262e-07)
(0 -0 1.33298e-06)
(0 -0 3.91222e-06)
(0 -0 7.10274e-06)
(0 -0 1.07221e-05)
(0 -0 1.44801e-05)
(0 -0 1.7999e-05)
(0 -0 2.08605e-05)
(0 -0 2.26742e-05)
(0 -0 2.31537e-05)
(0 -0 2.21821e-05)
(0 -0 1.98462e-05)
(0 -0 1.64278e-05)
(0 -0 1.23502e-05)
(0 -0 8.09612e-06)
(0 -0 4.11709e-06)
(0 -0 7.5903e-07)
(0 -0 -1.77872e-06)