/*--------------------------------*- C++ -*----------------------------------*\
| =========                 |                                                 |
| \\      /  F ield         | OpenFOAM: The Open Source CFD Toolbox           |
|  \\    /   O peration     | Version:  2412                                  |
|   \\  /    A nd           | Website:  www.openfoam.com                      |
|    \\/     M anipulation  |                                                 |
\*---------------------------------------------------------------------------*/
FoamFile
{
    version     2.0;
    format      ascii;
    arch        "LSB;label=32;scalar=64";
    class       volScalarField;
    location    "23";
    object      p;
}
// * * * * * * * * * * * * * * * * * * * * * * * * * * * * * * * * * * * * * //

dimensions      [0 2 -2 0 0 0 0];

internalField   nonuniform List<scalar> 
5285
(
0.00197597
0.00202106
0.00206865
0.00211893
0.00217212
0.00222845
0.00228816
0.00235153
0.00241886
0.0024905
0.00256681
0.0026482
0.00273511
0.00282805
0.00292756
0.00303423
0.00314873
0.00327176
0.00340408
0.00354649
0.00369981
0.00386481
0.00404216
0.00423228
0.00443516
0.00465005
0.00487521
0.00510764
0.00534344
0.00557867
0.0058097
0.00604293
0.00634364
0.00680139
0.00197491
0.00201997
0.00206752
0.00211776
0.00217089
0.00222715
0.00228677
0.00235003
0.00241723
0.00248871
0.00256481
0.00264594
0.00273254
0.00282508
0.00292409
0.00303014
0.00314385
0.00326587
0.00339691
0.00353768
0.00368887
0.00385113
0.00402491
0.00421037
0.00440714
0.00461406
0.0048288
0.00504767
0.00526589
0.00547864
0.00568175
0.0058808
0.00613682
0.00653248
0.00197279
0.00201779
0.00206527
0.00211542
0.00216844
0.00222455
0.002284
0.00234705
0.00241399
0.00248514
0.00256084
0.00264147
0.00272744
0.00281921
0.00291724
0.00302206
0.00313421
0.00325426
0.00338277
0.00352029
0.0036673
0.00382411
0.0039908
0.00416698
0.00435158
0.00454251
0.0047363
0.00492781
0.00511055
0.00527784
0.00542469
0.00555517
0.00571783
0.00600174
0.00196956
0.00201446
0.00206183
0.00211183
0.00216468
0.00222057
0.00227975
0.00234247
0.00240901
0.00247965
0.00255473
0.00263459
0.00271961
0.00281018
0.00290672
0.00300967
0.00311946
0.00323651
0.00336121
0.00349385
0.00363457
0.00378323
0.00393932
0.00410165
0.0042681
0.00443521
0.00459777
0.0047485
0.00487832
0.0049777
0.0050403
0.00507136
0.00510409
0.00519116
0.0019654
0.00201019
0.00205741
0.00210723
0.00215986
0.00221548
0.00227432
0.00233661
0.00240261
0.0024726
0.00254686
0.0026257
0.00270945
0.00279843
0.00289298
0.00299342
0.00310004
0.00321306
0.00333261
0.00345864
0.00359082
0.00372844
0.00387015
0.0040137
0.0041556
0.00429057
0.00441115
0.00450732
0.00456675
0.00457614
0.00452646
0.00442586
0.00429642
0.00407938
0.00196115
0.00200594
0.00205315
0.00210294
0.0021555
0.00221101
0.0022697
0.00233177
0.00239747
0.00246705
0.00254076
0.00261886
0.00270164
0.00278935
0.00288222
0.00298046
0.00308417
0.00319335
0.00330778
0.00342696
0.00354991
0.00367501
0.00379965
0.00391988
0.0040299
0.00412146
0.00418336
0.00420118
0.00415761
0.0040343
0.00381776
0.00351697
0.00314581
0.00251846
0.00195474
0.00199945
0.00204655
0.00209622
0.00214862
0.00220395
0.00226239
0.00232417
0.0023895
0.00245859
0.0025317
0.00260903
0.00269082
0.00277725
0.00286847
0.00296454
0.00306543
0.00317087
0.0032803
0.00339273
0.00350644
0.00361873
0.00372544
0.00382035
0.00389452
0.00393546
0.00392662
0.00384733
0.00367367
0.00337996
0.00294929
0.0023948
0.00168018
0.000517202
-0.00349678
-0.00356616
-0.00358781
-0.00357556
-0.00354126
-0.00348783
-0.00341675
-0.00332948
-0.00323048
-0.00311861
-0.00299579
-0.0028638
-0.00272413
-0.00257817
-0.00242736
-0.00227324
-0.00211726
-0.00196085
-0.0018053
-0.00165187
-0.00150166
-0.00135566
-0.00357128
-0.00361908
-0.00362778
-0.00360782
-0.00356839
-0.00351158
-0.00343851
-0.00335075
-0.00325044
-0.00313807
-0.00301514
-0.00288327
-0.00274372
-0.00259785
-0.00244707
-0.00229287
-0.00213677
-0.00198013
-0.00182427
-0.00167043
-0.00151974
-0.00137317
-0.00371945
-0.00372333
-0.00370633
-0.00367106
-0.0036212
-0.00355755
-0.00348023
-0.00339061
-0.00328848
-0.00317534
-0.00305229
-0.00292085
-0.00278087
-0.00263551
-0.0024849
-0.00233067
-0.00217439
-0.00201739
-0.00186099
-0.00170642
-0.00155483
-0.00140721
-0.00394712
-0.00387153
-0.00382075
-0.00376237
-0.00369672
-0.00362294
-0.00353885
-0.00344631
-0.00334199
-0.00322775
-0.00310393
-0.00297274
-0.00283385
-0.00268862
-0.00253822
-0.00238411
-0.0022277
-0.00207029
-0.0019132
-0.00175768
-0.00160489
-0.00145585
-0.00423453
-0.0040647
-0.00396839
-0.00387664
-0.0037897
-0.00370212
-0.00360768
-0.00351207
-0.0034053
-0.00329012
-0.00316665
-0.00303545
-0.00289704
-0.00275235
-0.00260251
-0.00244878
-0.00229243
-0.00213476
-0.00197707
-0.00182062
-0.00166657
-0.00151599
-0.00136982
-0.00453727
-0.0043035
-0.00415088
-0.00401808
-0.00390107
-0.00379293
-0.00369183
-0.00358307
-0.00347093
-0.00335371
-0.0032298
-0.00309906
-0.00296175
-0.0028185
-0.00267015
-0.00251773
-0.00236241
-0.0022054
-0.00204794
-0.00189128
-0.00173661
-0.00158499
-0.0014374
-0.00482789
-0.00460262
-0.00439659
-0.0042118
-0.00405175
-0.00391053
-0.00379186
-0.00367219
-0.00355318
-0.0034318
-0.003306
-0.00317496
-0.00303835
-0.0028963
-0.00274931
-0.00259816
-0.00244383
-0.00228742
-0.00213009
-0.00197305
-0.00181749
-0.00166453
-0.00151516
-0.00506303
-0.00480272
-0.0045888
-0.00439622
-0.0042402
-0.00410539
-0.00397068
-0.00384339
-0.00371839
-0.00359126
-0.00345992
-0.00332336
-0.00318116
-0.00303342
-0.00288065
-0.0027236
-0.00256325
-0.00240074
-0.00223725
-0.00207401
-0.00191225
-0.00175313
-0.00159768
-0.00144685
-0.00506581
-0.00483435
-0.00464528
-0.00444391
-0.00427503
-0.00413049
-0.00399639
-0.00386836
-0.00374191
-0.00361382
-0.00348216
-0.00334586
-0.00320442
-0.00305782
-0.00290646
-0.00275102
-0.00259238
-0.00243157
-0.00226974
-0.00210806
-0.00194769
-0.00178979
-0.00163536
-0.00500539
-0.00480486
-0.00465273
-0.00445776
-0.00428715
-0.00414027
-0.00400481
-0.00387482
-0.00374669
-0.00361765
-0.00348575
-0.00334983
-0.00320932
-0.00306414
-0.00291456
-0.00276118
-0.00260479
-0.00244636
-0.00228693
-0.00212762
-0.00196954
-0.00181379
-0.00166135
-0.00493943
-0.00476016
-0.00464134
-0.00445856
-0.00429152
-0.00414621
-0.00401088
-0.00388019
-0.0037513
-0.00362178
-0.00348981
-0.00335426
-0.00321456
-0.00307057
-0.00292253
-0.00277096
-0.00261658
-0.00246029
-0.00230307
-0.00214596
-0.00199005
-0.00183635
-0.00168583
-0.00486947
-0.00470318
-0.00461009
-0.0044409
-0.00427931
-0.00413694
-0.00400312
-0.00387297
-0.00374425
-0.00361494
-0.00348343
-0.00334869
-0.00321017
-0.00306774
-0.00292158
-0.00277217
-0.00262017
-0.0024664
-0.00231179
-0.00215732
-0.002004
-0.00185282
-0.00170469
-0.00479088
-0.00463313
-0.00455803
-0.00440282
-0.00424815
-0.00410981
-0.00397856
-0.00384994
-0.00372224
-0.00359387
-0.00346344
-0.00333006
-0.00319324
-0.00305284
-0.00290906
-0.0027623
-0.00261318
-0.00246246
-0.002311
-0.00215972
-0.00200957
-0.00186147
-0.00171631
-0.0046975
-0.00454774
-0.00448388
-0.00434263
-0.00419642
-0.00406335
-0.0039358
-0.0038098
-0.00368411
-0.00355753
-0.00342895
-0.0032976
-0.00316309
-0.00302532
-0.00288446
-0.0027409
-0.0025952
-0.00244808
-0.00230033
-0.0021528
-0.00200638
-0.00186193
-0.0017203
-0.00458292
-0.00444345
-0.00438576
-0.00425829
-0.00412213
-0.00399572
-0.00387316
-0.00375105
-0.00362855
-0.00350481
-0.003379
-0.00325053
-0.00311909
-0.00298464
-0.00284736
-0.00270762
-0.00256596
-0.00242303
-0.00227957
-0.00213636
-0.00199424
-0.00185402
-0.00171646
-0.00444262
-0.00431725
-0.00426267
-0.00414879
-0.00402418
-0.00390592
-0.00378973
-0.00367289
-0.00355487
-0.00343517
-0.0033132
-0.00318856
-0.00306106
-0.00293073
-0.00279776
-0.00266254
-0.00252556
-0.00238743
-0.00224885
-0.00211054
-0.00197328
-0.00183783
-0.0017049
-0.00427528
-0.00416795
-0.00411535
-0.00401488
-0.00390307
-0.00379434
-0.00368587
-0.00357564
-0.00346341
-0.00334896
-0.00323194
-0.00311215
-0.00298951
-0.00286412
-0.00273623
-0.00260622
-0.00247456
-0.00234185
-0.00220872
-0.00207586
-0.00194399
-0.0018138
-0.00168597
-0.00408278
-0.0039966
-0.00394635
-0.00385914
-0.00376093
-0.00366285
-0.00356325
-0.00346082
-0.00335555
-0.00324747
-0.00313646
-0.00302247
-0.00290557
-0.00278593
-0.00266384
-0.00253969
-0.00241396
-0.00228722
-0.00216006
-0.00203314
-0.00190711
-0.00178262
-0.00166032
-0.00387011
-0.00380641
-0.00375976
-0.00368558
-0.00360129
-0.00351457
-0.00342466
-0.00333092
-0.00323356
-0.00313278
-0.00302866
-0.00292131
-0.00281091
-0.00269771
-0.00258205
-0.00246434
-0.00234507
-0.00222476
-0.00210401
-0.00198342
-0.0018636
-0.00174517
-0.00162872
-0.00364371
-0.00360226
-0.00356068
-0.00349914
-0.00342857
-0.00335346
-0.00327368
-0.00318919
-0.00310036
-0.00300754
-0.00291098
-0.0028109
-0.00270759
-0.00260137
-0.00249264
-0.00238181
-0.00226939
-0.00215589
-0.00204187
-0.0019279
-0.00181457
-0.00170244
-0.00159208
-0.00341078
-0.00338986
-0.00335458
-0.00330507
-0.00324754
-0.00318384
-0.00311425
-0.00303919
-0.0029592
-0.00287472
-0.00278609
-0.00269368
-0.00259785
-0.00249898
-0.0023975
-0.00229386
-0.00218854
-0.00208208
-0.00197499
-0.00186783
-0.00176115
-0.00165547
-0.00155133
-0.00317802
-0.0031749
-0.00314669
-0.00310833
-0.00306282
-0.00300996
-0.00295026
-0.00288452
-0.00281335
-0.00273727
-0.00265673
-0.00257215
-0.00248397
-0.00239262
-0.00229855
-0.00220223
-0.00210415
-0.00200481
-0.00190474
-0.00180445
-0.00170447
-0.00160529
-0.00150741
-0.00295096
-0.00296242
-0.00294151
-0.00291324
-0.0028785
-0.00283563
-0.00278527
-0.00272843
-0.00266583
-0.00259799
-0.00252544
-0.00244865
-0.0023681
-0.00228426
-0.00219759
-0.00210858
-0.0020177
-0.00192547
-0.00183237
-0.00173892
-0.00164559
-0.00155286
-0.0014612
-0.0027337
-0.00275647
-0.00274262
-0.00272326
-0.00269794
-0.00266404
-0.00262226
-0.00257375
-0.00251924
-0.00245929
-0.00239444
-0.00232522
-0.00225212
-0.00217563
-0.00209621
-0.00201436
-0.00193056
-0.00184529
-0.00175904
-0.00167227
-0.00158546
-0.00149906
-0.0014135
-0.0025289
-0.00255998
-0.00255261
-0.00254093
-0.00252366
-0.00249765
-0.00246359
-0.0024227
-0.00237569
-0.00232314
-0.00226559
-0.00220358
-0.00213761
-0.00206818
-0.00199576
-0.00192083
-0.00184387
-0.00176533
-0.00168569
-0.00160541
-0.00152491
-0.00144463
-0.00136498
-0.00233801
-0.0023748
-0.00237315
-0.00236793
-0.00235741
-0.00233822
-0.00231099
-0.00227694
-0.00223678
-0.00219105
-0.0021403
-0.00208505
-0.00202582
-0.00196308
-0.00189731
-0.00182897
-0.00175853
-0.00168644
-0.00161314
-0.00153905
-0.00146461
-0.00139021
-0.00131624
-0.00216151
-0.00220189
-0.0022051
-0.0022052
-0.00220026
-0.00218686
-0.0021656
-0.00213763
-0.00210362
-0.0020641
-0.00201959
-0.00197061
-0.00191765
-0.00186118
-0.00180167
-0.00173955
-0.00167528
-0.00160928
-0.00154198
-0.00147379
-0.0014051
-0.0013363
-0.00126774
-0.00199918
-0.00204152
-0.00204871
-0.00205312
-0.00205272
-0.00204419
-0.00202807
-0.00200543
-0.0019769
-0.00194298
-0.00190415
-0.00186092
-0.00181376
-0.00176311
-0.00170941
-0.00165311
-0.00159462
-0.00153435
-0.0014727
-0.00141006
-0.0013468
-0.00128328
-0.00121985
-0.00185037
-0.00189343
-0.00190382
-0.00191164
-0.00191488
-0.0019104
-0.00189867
-0.00188068
-0.00185699
-0.00182807
-0.00179438
-0.00175638
-0.00171452
-0.00166923
-0.00162092
-0.00157001
-0.0015169
-0.00146197
-0.0014056
-0.00134816
-0.00129
-0.00123146
-0.00117285
-0.00171417
-0.00175706
-0.00176995
-0.00178042
-0.00178656
-0.00178542
-0.00177741
-0.00176343
-0.001744
-0.00171952
-0.00169043
-0.00165717
-0.00162014
-0.00157975
-0.00153639
-0.00149046
-0.00144233
-0.00139235
-0.0013409
-0.00128831
-0.00123491
-0.00118103
-0.00112695
-0.00158955
-0.00163166
-0.00164645
-0.00165896
-0.00166736
-0.00166895
-0.00166408
-0.00165355
-0.00163783
-0.00161729
-0.00159231
-0.00156331
-0.00153065
-0.00149473
-0.00145592
-0.00141456
-0.00137101
-0.00132562
-0.00127872
-0.00123064
-0.00118167
-0.00113212
-0.00108228
-0.00147548
-0.0015164
-0.0015326
-0.00154662
-0.00155678
-0.00156058
-0.00155835
-0.00155078
-0.00153829
-0.00152121
-0.0014999
-0.00147471
-0.00144601
-0.00141415
-0.00137947
-0.0013423
-0.00130297
-0.0012618
-0.00121911
-0.00117519
-0.00113034
-0.00108483
-0.00103893
-0.00137093
-0.00141043
-0.00142762
-0.00144275
-0.00145424
-0.00145984
-0.00145981
-0.00145477
-0.00144508
-0.00143104
-0.00141298
-0.00139122
-0.00136608
-0.0013379
-0.00130697
-0.00127363
-0.00123817
-0.00120088
-0.00116207
-0.001122
-0.00108096
-0.00103919
-0.000996952
-0.00127498
-0.00131291
-0.00133078
-0.00134668
-0.00135917
-0.0013662
-0.00136801
-0.00136512
-0.00135786
-0.0013465
-0.00133131
-0.0013126
-0.00129067
-0.00126581
-0.0012383
-0.00120845
-0.00117652
-0.00114279
-0.00110754
-0.00107103
-0.00103351
-0.000995211
-0.000956375
-0.00118676
-0.00122306
-0.00124135
-0.00125777
-0.00127098
-0.00127916
-0.00128248
-0.00128143
-0.00127628
-0.00126725
-0.00125461
-0.00123863
-0.00121957
-0.0011977
-0.0011733
-0.00114661
-0.00111791
-0.00108745
-0.00105548
-0.00102224
-0.000987963
-0.000952877
-0.000917196
-0.00110549
-0.00114016
-0.00115868
-0.00117541
-0.00118913
-0.0011982
-0.00120279
-0.00120329
-0.00119995
-0.00119297
-0.00118259
-0.00116903
-0.00115255
-0.00113339
-0.00111178
-0.00108799
-0.00106223
-0.00103475
-0.00100579
-0.000975556
-0.000944278
-0.000912159
-0.000879401
-0.00103049
-0.00106356
-0.00108214
-0.00109902
-0.00111308
-0.00112286
-0.00112848
-0.0011303
-0.00112852
-0.00112334
-0.00111494
-0.00110354
-0.00108937
-0.00107264
-0.00105358
-0.0010324
-0.00100933
-0.000984585
-0.000958376
-0.000930912
-0.000902395
-0.000873017
-0.000842966
-0.000961145
-0.000992657
-0.00101119
-0.00102809
-0.00104236
-0.00105267
-0.00105914
-0.00106208
-0.00106165
-0.00105803
-0.00105139
-0.00104191
-0.00102981
-0.00101527
-0.000998504
-0.000979707
-0.000959083
-0.000936832
-0.000913149
-0.000888228
-0.000862255
-0.000835408
-0.000807863
-0.000926944
-0.000945337
-0.000962168
-0.00097653
-0.000987246
-0.000994406
-0.000998278
-0.000999018
-0.00099676
-0.000991665
-0.000983902
-0.000973648
-0.000961083
-0.00094639
-0.000929753
-0.000911356
-0.000891383
-0.000870015
-0.000847428
-0.000823797
-0.000799286
-0.000774059
-0.00682741
-0.00709652
-0.00721416
-0.00720163
-0.00706292
-0.00676526
-0.00622917
-0.00640059
-0.00663289
-0.00675551
-0.00678147
-0.00671074
-0.00656093
-0.00626936
-0.00602092
-0.00623913
-0.00637108
-0.00642971
-0.00642058
-0.00638461
-0.00626872
-0.00563512
-0.00585577
-0.00600717
-0.0061005
-0.00614159
-0.00618762
-0.00621205
-0.005222
-0.00545225
-0.0056277
-0.00575714
-0.00584458
-0.00595506
-0.00609529
-0.00480025
-0.00504032
-0.00523864
-0.00540188
-0.00553151
-0.00569115
-0.00592193
-0.00438919
-0.00463475
-0.0048503
-0.00504084
-0.00520552
-0.00540036
-0.00569679
-0.004001
-0.00424603
-0.00447101
-0.00467994
-0.00487054
-0.00508837
-0.00542682
-0.00364282
-0.00388153
-0.0041081
-0.004326
-0.00453263
-0.00476269
-0.00512139
-0.00331742
-0.00354541
-0.00376703
-0.00398553
-0.00419872
-0.00443171
-0.00479165
-0.00302451
-0.00323901
-0.00345099
-0.00366351
-0.00387521
-0.00410359
-0.00444947
-0.00276207
-0.00296169
-0.0031611
-0.00336314
-0.00356727
-0.00378543
-0.00410634
-0.00252721
-0.00271162
-0.00289702
-0.00308592
-0.00327844
-0.00348271
-0.00377209
-0.00231685
-0.00248643
-0.00265744
-0.00283203
-0.00301072
-0.00319913
-0.00345436
-0.00212809
-0.00228363
-0.00244057
-0.00260071
-0.00276478
-0.00293671
-0.00315821
-0.0019582
-0.0021007
-0.00224436
-0.00239063
-0.00254025
-0.00269605
-0.00288638
-0.00180494
-0.00193544
-0.00206681
-0.00220013
-0.00233611
-0.00247676
-0.00263962
-0.00166624
-0.00178583
-0.00190599
-0.00202747
-0.00215092
-0.00227772
-0.00241723
-0.00154035
-0.00165009
-0.0017601
-0.00187091
-0.00198306
-0.00209744
-0.0022176
-0.00142578
-0.00152665
-0.00162753
-0.00172878
-0.00183086
-0.00193425
-0.00203863
-0.00132126
-0.00141414
-0.00150685
-0.00159958
-0.00169272
-0.00178644
-0.00187806
-0.00122566
-0.00131138
-0.00139676
-0.0014819
-0.00156714
-0.00165239
-0.00173369
-0.00113804
-0.00121732
-0.00129612
-0.00137451
-0.00145276
-0.00153058
-0.0016035
-0.00105754
-0.00113102
-0.00120394
-0.00127631
-0.00134834
-0.00141965
-0.00148567
-0.000983428
-0.00105169
-0.00111932
-0.0011863
-0.00125281
-0.00131838
-0.00137864
-0.000915064
-0.000978615
-0.00104148
-0.00110363
-0.00116521
-0.0012257
-0.00128108
-0.000851875
-0.000911162
-0.000969732
-0.00102753
-0.00108469
-0.00114066
-0.00119184
-0.000793355
-0.000848777
-0.000903455
-0.000957333
-0.00101052
-0.00106244
-0.00110995
-0.00073906
-0.000790969
-0.000842117
-0.000892442
-0.000942038
-0.000990339
-0.0010346
-0.000688602
-0.000737311
-0.000785246
-0.000832346
-0.000878684
-0.000923718
-0.000965074
-0.000732426
-0.00077659
-0.000819969
-0.000862044
-0.000900782
0.0024446
9.84955e-05
-0.0019674
-0.00352614
-0.00478445
-0.00572151
-0.00637955
0.000703408
-0.00118469
-0.00279517
-0.00393163
-0.00480894
-0.00550762
-0.0060353
-0.000102307
-0.00163276
-0.00299568
-0.00391171
-0.00465217
-0.0052472
-0.00569767
-0.000603065
-0.0018724
-0.00301566
-0.00377066
-0.00439875
-0.00492212
-0.00532977
-0.000940385
-0.0019774
-0.00291507
-0.00354569
-0.0040852
-0.00454892
-0.00492515
-0.00114248
-0.0019873
-0.00274698
-0.00327051
-0.00374512
-0.00416029
-0.00450991
-0.00124778
-0.00194236
-0.00256367
-0.00302771
-0.00341481
-0.00378214
-0.00410727
-0.00128771
-0.00186429
-0.00237002
-0.00276159
-0.00310184
-0.00343057
-0.00373098
-0.00128461
-0.00176837
-0.00218368
-0.00251692
-0.00281907
-0.00311306
-0.00338806
-0.00125419
-0.00166452
-0.00200978
-0.00229742
-0.00256631
-0.00282939
-0.00307985
-0.00120725
-0.00155904
-0.00184979
-0.00210066
-0.00234078
-0.00257703
-0.00280477
-0.00115107
-0.00145568
-0.0017038
-0.00192459
-0.00213987
-0.00235296
-0.00255995
-0.00109044
-0.00135658
-0.00157098
-0.00176669
-0.00195999
-0.00215361
-0.00234195
-0.00102851
-0.00126294
-0.00145047
-0.00162498
-0.0017973
-0.00197514
-0.00214715
-0.000967222
-0.0011753
-0.00134134
-0.00149978
-0.00166299
-0.00181677
-0.00197259
-0.000907628
-0.00109343
-0.00124157
-0.00138445
-0.00153031
-0.00167296
-0.00181575
-0.000850344
-0.00101712
-0.00115025
-0.00127998
-0.0014125
-0.00154375
-0.00167451
-0.000795698
-0.00094612
-0.00106657
-0.001185
-0.00130628
-0.0014268
-0.00154668
-0.000743817
-0.000880089
-0.000989688
-0.00109823
-0.00120956
-0.00132039
-0.00143054
-0.000694704
-0.000818651
-0.000918879
-0.00101871
-0.00112117
-0.00122329
-0.00132473
-0.000648288
-0.00076144
-0.000853501
-0.000945612
-0.00104018
-0.00113446
-0.00122807
-0.000604458
-0.000708109
-0.000793001
-0.000878243
-0.000965735
-0.00105298
-0.00113955
-0.000563083
-0.000658334
-0.000736895
-0.000816001
-0.000897147
-0.000978046
-0.00105829
-0.000524027
-0.000611823
-0.000684762
-0.000758368
-0.000833806
-0.000908988
-0.000983526
-0.000487152
-0.000568309
-0.000636235
-0.000704895
-0.000775185
-0.000845207
-0.000914592
-0.000452324
-0.000527549
-0.000590988
-0.000655188
-0.000720827
-0.000786182
-0.000850906
-0.000419417
-0.000489325
-0.000548734
-0.000608901
-0.000670329
-0.000731453
-0.000791953
-0.000388309
-0.000453439
-0.000509217
-0.000565727
-0.000623332
-0.000680615
-0.000737279
-0.000358886
-0.00041971
-0.000472205
-0.000525393
-0.000579522
-0.00063331
-0.000686483
-0.000331045
-0.00038798
-0.000437499
-0.000487661
-0.000538621
-0.000589223
-0.000639215
-0.000304695
-0.000358106
-0.000404921
-0.00045232
-0.000500385
0.00193499
0.00197783
0.00202282
0.00207008
0.00211973
0.00217192
0.00222675
0.00228437
0.00234488
0.00240839
0.00247498
0.0025447
0.00261754
0.00269342
0.00277216
0.00285342
0.00293666
0.00302106
0.00310538
0.00318789
0.00326613
0.00333676
0.00339528
0.00343581
0.0034509
0.00343154
0.00336746
0.00324819
0.00306498
0.00281387
0.00250413
0.00215642
0.00168334
0.0010389
0.00191256
0.00195352
0.00199642
0.00204135
0.0020884
0.00213767
0.00218923
0.00224316
0.0022995
0.00235829
0.00241953
0.00248315
0.00254903
0.00261695
0.00268658
0.00275738
0.00282862
0.00289924
0.00296777
0.00303224
0.00308998
0.00313748
0.00317019
0.00318235
0.00316685
0.00311519
0.00301781
0.00286463
0.00264603
0.00235421
0.00198823
0.00154655
0.000917315
3.70794e-05
0.00188683
0.00192565
0.00196617
0.00200846
0.00205259
0.0020986
0.00214652
0.00219638
0.00224817
0.00230185
0.00235734
0.0024145
0.00247311
0.00253283
0.00259321
0.00265358
0.00271309
0.00277053
0.00282434
0.00287243
0.00291213
0.00293995
0.00295149
0.00294125
0.00290244
0.00282696
0.00270535
0.00252704
0.00228059
0.00195408
0.00153937
0.00103105
0.000346455
-0.000543982
0.00185895
0.00189548
0.00193347
0.00197296
0.00201397
0.00205653
0.00210061
0.00214618
0.00219319
0.00224153
0.00229104
0.0023415
0.00239259
0.00244388
0.0024948
0.0025446
0.00259227
0.00263652
0.00267569
0.00270765
0.0027297
0.00273847
0.00272974
0.00269836
0.00263806
0.00254141
0.00239978
0.00220345
0.00194176
0.00160348
0.00118027
0.00066916
1.53272e-05
-0.00080907
0.00182929
0.00186344
0.00189881
0.00193541
0.00197323
0.00201225
0.00205242
0.00209365
0.00213584
0.00217881
0.00222236
0.00226618
0.00230988
0.00235295
0.00239474
0.0024344
0.00247085
0.00250274
0.00252837
0.0025456
0.0025518
0.00254373
0.00251744
0.00246817
0.00239027
0.00227711
0.00212112
0.00191386
0.00164629
0.00130907
0.000895163
0.000403109
-0.00020286
-0.000953224
0.00179801
0.00182971
0.0018624
0.00189605
0.00193063
0.00196608
0.00200231
0.00203919
0.00207658
0.00211425
0.00215193
0.00218928
0.00222583
0.00226102
0.00229413
0.00232427
0.00235031
0.00237089
0.0023843
0.00238846
0.00238086
0.00235845
0.00231759
0.00225399
0.00216262
0.0020377
0.00187272
0.00166057
0.0013938
0.00106493
0.000668343
0.000203455
-0.00035198
-0.00102544
0.00176532
0.00179454
0.00182452
0.0018552
0.00188652
0.00191839
0.00195069
0.00198327
0.00201593
0.00204841
0.00208039
0.00211149
0.0021412
0.00216891
0.00219387
0.00221515
0.00223164
0.00224195
0.00224445
0.00223714
0.00221766
0.0021832
0.00213047
0.00205565
0.00195434
0.0018216
0.00165196
0.00143958
0.00117849
0.000862931
0.000488699
5.58867e-05
-0.000448637
-0.00104747
0.00173146
0.00175818
0.00178544
0.00181314
0.00184122
0.00186956
0.001898
0.00192636
0.00195441
0.00198186
0.00200837
0.0020335
0.00205674
0.00207744
0.00209483
0.00210799
0.0021158
0.00211693
0.00210981
0.00209258
0.00206303
0.00201864
0.00195645
0.00187312
0.00176489
0.00162757
0.00145667
0.00124751
0.000995467
0.000696262
0.00034695
-5.19262e-05
-0.000507672
-0.00103785
0.00169665
0.00172088
0.00174543
0.0017702
0.00179509
0.00181995
0.00184462
0.00186889
0.0018925
0.00191514
0.00193644
0.00195595
0.00197313
0.00198732
0.00199777
0.00200355
0.00200359
0.00199662
0.00198115
0.00195546
0.00191756
0.00186516
0.00179567
0.00170621
0.00159357
0.00145431
0.00128479
0.00108133
0.000840438
0.000559053
0.000235247
-0.000130165
-0.000540821
-0.00100962
0.0016611
0.00168287
0.00170475
0.00172664
0.00174841
0.0017699
0.00179093
0.00181127
0.00183064
0.00184871
0.00186511
0.00187936
0.00189092
0.00189915
0.00190329
0.00190245
0.00189562
0.00188158
0.00185897
0.0018262
0.00178149
0.00172281
0.00164791
0.00155432
0.00143938
0.00130026
0.00113407
0.000937976
0.000709399
0.000446235
0.000147332
-0.000186336
-0.000556117
-0.000970967
0.001625
0.00164436
0.00166363
0.00168272
0.00170147
0.00171972
0.00173726
0.00175385
0.0017692
0.00178298
0.00179479
0.00180417
0.00181058
0.00181339
0.00181186
0.00180516
0.0017923
0.00177219
0.00174355
0.00170496
0.00165483
0.00159139
0.0015127
0.00141667
0.0013011
0.00116372
0.00100225
0.000814566
0.000598802
0.000353584
7.83336e-05
-0.00022589
-0.000559036
-0.000926955
0.00158856
0.00160555
0.00162231
0.00163869
0.00165454
0.00166968
0.00168389
0.00169694
0.00170852
0.00171829
0.00172586
0.00173077
0.00173249
0.00173042
0.00172385
0.00171199
0.00169393
0.00166866
0.00163502
0.00159175
0.00153743
0.00147053
0.00138941
0.00129232
0.00117745
0.001043
0.000887215
0.000708507
0.000505591
0.000277628
2.44561e-05
-0.000252838
-0.000553376
-0.000880683
0.00155193
0.00156665
0.00158097
0.00159475
0.00160783
0.00162002
0.0016311
0.00164082
0.00164887
0.00165494
0.00165861
0.00165945
0.00165695
0.00165052
0.00163951
0.00162318
0.00160068
0.00157109
0.00153338
0.00148642
0.00142899
0.00135976
0.00127734
0.00118029
0.00106715
0.000936491
0.000786988
0.000617493
0.000427152
0.000215522
-1.72731e-05
-0.000270154
-0.000541778
-0.000833995
0.0015153
0.00152782
0.00153981
0.00155111
0.00156156
0.00157096
0.0015791
0.00158571
0.00159051
0.00159317
0.00159329
0.00159046
0.00158418
0.0015739
0.00155902
0.00153884
0.0015126
0.00147947
0.00143851
0.00138875
0.00132912
0.00125849
0.00117571
0.00107958
0.000968932
0.000842668
0.000699791
0.0005395
0.000361266
0.00016493
-4.91935e-05
-0.000280057
-0.000526084
-0.00078796
0.0014788
0.00148922
0.00149899
0.00150794
0.00151591
0.0015227
0.00152809
0.00153183
0.00153364
0.00153318
0.00153009
0.00152396
0.00151433
0.00150069
0.00148246
0.00145903
0.00142968
0.00139369
0.00135022
0.00129843
0.00123738
0.00116614
0.00108373
0.000989201
0.000881617
0.000760134
0.000624028
0.000472761
0.000306049
0.00012393
-7.31575e-05
-0.000284217
-0.000507585
-0.000743158
0.00144256
0.00145099
0.00145865
0.00146539
0.00147103
0.00147539
0.00147824
0.00147934
0.0014784
0.00147512
0.00146914
0.00146009
0.00144752
0.00143096
0.00140988
0.00138372
0.00135184
0.0013136
0.00126826
0.00121508
0.00115328
0.00108207
0.00100064
0.000908221
0.000804092
0.000687615
0.000558277
0.000415743
0.000259905
9.09404e-05
-9.06437e-05
-0.000283909
-0.000487189
-0.000699861
0.00140671
0.00141326
0.00141893
0.00142359
0.00142706
0.00142916
0.00142967
0.00142835
0.00142493
0.00141911
0.00141056
0.00139892
0.00138379
0.00136472
0.00134125
0.00131284
0.00127895
0.00123899
0.00119233
0.00113833
0.00107632
0.00100565
0.000925667
0.000835746
0.000735333
0.000623961
0.000501283
0.000367117
0.000221483
6.46486e-05
-0.000102843
-0.000280117
-0.000465555
-0.000658198
0.00137136
0.00137612
0.00137993
0.00138266
0.00138412
0.00138414
0.0013825
0.00137898
0.00137331
0.00136522
0.0013544
0.0013405
0.00132316
0.00130197
0.0012765
0.00124628
0.00121083
0.00116962
0.00112211
0.00106776
0.001006
0.000936292
0.000858101
0.000770945
0.000674404
0.000568141
0.000451942
0.000325736
0.000189636
4.39645e-05
-0.000110722
-0.000273614
-0.000443169
-0.000618223
0.00133659
0.00133968
0.00134176
0.00134268
0.00134229
0.00134039
0.0013368
0.00133129
0.00132362
0.00131351
0.00130069
0.00128484
0.00126561
0.00124265
0.00121555
0.00118391
0.00114729
0.00110524
0.00105729
0.00100297
0.000941824
0.000873396
0.000797265
0.000713056
0.000620455
0.000519237
0.000409284
0.00029061
0.000163388
2.79778e-05
-0.000115072
-0.000265016
-0.0004204
-0.000579946
0.00130248
0.00130401
0.00130448
0.00130374
0.00130164
0.001298
0.00129264
0.00128535
0.00127588
0.00126401
0.00124945
0.00123192
0.0012111
0.00118667
0.00115828
0.00112555
0.00108811
0.00104556
0.000997508
0.000943553
0.00088331
0.000816413
0.00074253
0.000661375
0.000572723
0.000476432
0.00037246
0.000260882
0.000141912
1.59262e-05
-0.000116544
-0.000254814
-0.000397525
-0.000543344
0.0012691
0.00126918
0.00126816
0.00126589
0.00126223
0.00125702
0.00125006
0.00124117
0.00123013
0.0012167
0.00120064
0.00118169
0.00115955
0.00113394
0.00110454
0.00107103
0.00103307
0.00099032
0.000942446
0.000889113
0.000830004
0.000764825
0.000693316
0.000615265
0.00053052
0.000439003
0.000340728
0.000235814
0.000124503
7.16966e-06
-0.000115674
-0.000243403
-0.000374753
-0.000508382
0.0012365
0.00123524
0.00123285
0.00122918
0.00122411
0.00121747
0.00120909
0.00119878
0.00118635
0.00117158
0.00115424
0.0011341
0.00111089
0.00108435
0.0010542
0.00102016
0.000981933
0.000939233
0.000891771
0.000839271
0.000781474
0.000718146
0.000649088
0.000574149
0.000493231
0.00040631
0.00031344
0.000214771
0.000110557
1.16979e-06
-0.000112906
-0.000231102
-0.000352246
-0.000475011
0.00120474
0.00120224
0.00119859
0.00119365
0.0011873
0.00117938
0.00116973
0.00115818
0.00114454
0.00112861
0.0011102
0.00108907
0.001065
0.00103776
0.00100709
0.000972741
0.000934471
0.000892028
0.00084517
0.00079367
0.000737317
0.00067593
0.00060936
0.000537503
0.000460308
0.000377789
0.00029003
0.000197201
9.95616e-05
-2.5272e-06
-0.00010861
-0.000218169
-0.000330122
-0.000443178
0.00117384
0.00117021
0.00116541
0.00115932
0.00115181
0.00114275
0.00113198
0.00111934
0.00110466
0.00108776
0.00106845
0.00104653
0.00102179
0.000994038
0.00096304
0.000928584
0.000890455
0.000848441
0.000802341
0.000751968
0.000697156
0.000637764
0.000573686
0.000504858
0.000431263
0.000352943
0.000270005
0.000182631
9.10785e-05
-4.30426e-06
-0.000103093
-0.000204815
-0.000308473
-0.000412826
0.00114383
0.00113916
0.00113332
0.0011262
0.00111766
0.00110758
0.00109583
0.00108224
0.00106667
0.00104895
0.00102891
0.00100637
0.000981147
0.000953051
0.000921897
0.000887495
0.000849661
0.000808217
0.000762997
0.000713849
0.000660642
0.000603272
0.000541666
0.000475791
0.000405659
0.000331332
0.000252934
0.000170649
8.47325e-05
-4.48495e-06
-9.66078e-05
-0.000191207
-0.000287365
-0.000383896
0.00111474
0.00110913
0.00110235
0.00109428
0.00108483
0.00107386
0.00106125
0.00104686
0.00103054
0.00101214
0.000991521
0.000968508
0.000942942
0.000914658
0.000883493
0.000849284
0.000811874
0.000771115
0.000726868
0.000679014
0.000627453
0.000572108
0.000512935
0.000449925
0.000383111
0.000312572
0.00023844
0.000160901
8.02024e-05
-3.34289e-06
-8.9368e-05
-0.000177484
-0.000266844
-0.000356327
0.00108657
0.00108011
0.00107248
0.00106358
0.00105332
0.00104157
0.00102822
0.00101314
0.000996198
0.000977261
0.000956187
0.000932835
0.000907061
0.00087872
0.000847669
0.00081377
0.000776889
0.000736904
0.000693703
0.00064719
0.000597292
0.000543957
0.000487163
0.00042692
0.000363276
0.000296323
0.000226195
0.00015308
7.72135e-05
-1.10958e-06
-8.15498e-05
-0.000163753
-0.000246943
-0.000330061
0.00105934
0.0010521
0.00104371
0.00103408
0.0010231
0.00101068
0.0009967
0.000981044
0.000963594
0.00094423
0.000922824
0.000899252
0.000873385
0.000845098
0.000814268
0.000780775
0.000744509
0.000705368
0.000663264
0.000618122
0.000569889