/*--------------------------------*- C++ -*----------------------------------*\
| =========                 |                                                 |
| \\      /  F ield         | OpenFOAM: The Open Source CFD Toolbox           |
|  \\    /   O peration     | Version:  2412                                  |
|   \\  /    A nd           | Website:  www.openfoam.com                      |
|    \\/     M anipulation  |                                                 |
\*---------------------------------------------------------------------------*/
FoamFile
{
    version     2.0;
    format      ascii;
    arch        "LSB;label=32;scalar=64";
    class       volVectorField;
    location    "23";
    object      U;
}
// * * * * * * * * * * * * * * * * * * * * * * * * * * * * * * * * * * * * * //

dimensions      [0 1 -1 0 0 0 0];

internalField   nonuniform List<vector> 
5285
(
(0.0893252 0.000247107 5.15308e-23)
(0.0888428 0.000263846 -5.90263e-24)
(0.0883286 0.000282123 6.0323e-24)
(0.0877797 0.000302124 -6.16939e-24)
(0.087193 0.000324057 0)
(0.0865647 0.000348166 6.46821e-24)
(0.0858907 0.000374733 -6.63125e-24)
(0.0851664 0.000404085 0)
(0.0843864 0.000436605 -6.98833e-24)
(0.0835449 0.000472743 0)
(0.0826348 0.000513034 -7.39269e-24)
(0.0816484 0.000558112 -1.23894e-22)
(0.0805764 0.000608737 1.31558e-22)
(0.0794083 0.000665826 -1.32059e-22)
(0.0781316 0.000730489 1.31857e-22)
(0.076732 0.000804079 0)
(0.0751922 0.000888251 0)
(0.0734919 0.000985033 1.6156e-22)
(0.0716068 0.0010969 -1.52011e-22)
(0.0695077 0.00122688 0)
(0.0671599 0.00137856 0)
(0.0645215 0.00155614 0)
(0.0615431 0.00176422 0)
(0.0581667 0.00200739 0)
(0.054327 0.00228929 0)
(0.0499536 0.00261085 0)
(0.0449779 0.00296731 0)
(0.0393461 0.00334357 0)
(0.0330438 0.00370711 -1.48718e-23)
(0.0261339 0.003998 -5.10093e-22)
(0.0187998 0.00411669 5.09328e-22)
(0.0114172 0.00391115 5.5314e-22)
(0.00488674 0.00314801 -5.5231e-22)
(0.000995882 0.00146287 0)
(0.0893435 0.000740336 1.81524e-22)
(0.0888624 0.000790484 -1.92966e-22)
(0.0883497 0.000845247 -1.81231e-23)
(0.0878026 0.000905173 6.18292e-24)
(0.0872179 0.000970896 0)
(0.0865918 0.00104314 -6.48497e-24)
(0.0859204 0.00112276 -2.09019e-22)
(0.0851991 0.00121072 4.36821e-22)
(0.0844226 0.00130818 2.4102e-22)
(0.083585 0.00141649 -4.54546e-22)
(0.0826796 0.00153724 4.89561e-22)
(0.0816986 0.00167234 -4.96767e-22)
(0.080633 0.00182406 -7.88383e-24)
(0.0794726 0.00199514 0)
(0.0782051 0.00218889 0)
(0.0768166 0.00240936 0)
(0.0752903 0.00266147 0)
(0.0736066 0.00295125 -9.36402e-24)
(0.0717422 0.00328609 -6.3484e-22)
(0.0696691 0.00367492 -2.66928e-23)
(0.0673541 0.0041284 6.59813e-22)
(0.0647575 0.00465889 7.18159e-22)
(0.0618322 0.00527992 -7.17208e-22)
(0.0585236 0.00600488 -2.38067e-23)
(0.0547696 0.0068442 -2.48573e-23)
(0.0505031 0.00780008 -8.56481e-22)
(0.0456574 0.00885766 8.28278e-22)
(0.0401779 0.00997113 -2.81967e-23)
(0.0340421 0.011043 1.49758e-23)
(0.0272935 0.0118943 -1.03726e-21)
(0.0200794 0.0122286 1.03687e-21)
(0.0127135 0.0115945 -2.16282e-21)
(0.00597445 0.00930781 2.12665e-21)
(0.00143771 0.00429404 -2.17882e-21)
(0.0893805 0.00123043 1.98379e-23)
(0.0889022 0.0013138 -3.75039e-22)
(0.0883927 0.00140485 1.21267e-23)
(0.0878492 0.00150449 -4.0186e-22)
(0.0872685 0.00161379 4.14171e-22)
(0.0866471 0.00173395 -4.22141e-22)
(0.0859811 0.00186637 4.35083e-22)
(0.0852658 0.00201269 1.36955e-23)
(0.0844964 0.00217481 -1.4072e-23)
(0.083667 0.00235498 1.4472e-23)
(0.082771 0.00255586 -4.84803e-22)
(0.0818012 0.0027806 4.99728e-22)
(0.0807488 0.00303297 5.31748e-22)
(0.0796039 0.0033175 -5.15428e-22)
(0.0783552 0.00363967 0)
(0.0769892 0.00400614 0)
(0.0754904 0.00442503 1.81083e-23)
(0.0738406 0.00490622 1.24762e-21)
(0.0720182 0.00546177 2.97188e-23)
(0.0699977 0.00610624 -1.25543e-21)
(0.067749 0.00685691 0)
(0.0652365 0.00773365 -2.1923e-23)
(0.0624185 0.00875807 1.52611e-21)
(0.0592463 0.00995116 -3.04604e-21)
(0.0556646 0.0113286 3.22784e-21)
(0.0516127 0.0128921 9.64663e-23)
(0.0470282 0.0146149 -1.67599e-21)
(0.0418538 0.016419 -1.81255e-21)
(0.0360514 0.018142 1.86799e-21)
(0.0296245 0.0194901 1.44113e-24)
(0.0226464 0.0199765 -3.173e-23)
(0.0153087 0.0188602 2.09002e-21)
(0.00813269 0.0150525 -2.02385e-21)
(0.00228667 0.00687928 -2.02437e-21)
(0.0894373 0.00171479 -3.7993e-22)
(0.0889634 0.001831 2.24913e-26)
(0.0884589 0.00195792 0)
(0.087921 0.00209686 -3.91334e-22)
(0.0873467 0.00224926 4.03618e-22)
(0.0867326 0.00241683 0)
(0.0860749 0.00260153 -8.71973e-22)
(0.0853692 0.00280562 8.57823e-22)
(0.0846107 0.00303178 1.42059e-23)
(0.0837941 0.00328313 -3.70298e-26)
(0.082913 0.00356337 1.50158e-23)
(0.0819605 0.00387688 0)
(0.0809286 0.00422888 -5.31023e-26)
(0.0798081 0.00462567 0)
(0.0785884 0.00507481 -1.70461e-23)
(0.0772575 0.00558547 1.15255e-21)
(0.0758012 0.00616878 -1.15224e-21)
(0.0742036 0.00683827 -1.90569e-23)
(0.0724456 0.00761032 3.94383e-23)
(0.0705057 0.00850459 -1.35912e-21)
(0.0683583 0.00954427 1.31687e-21)
(0.065974 0.0107557 2.23022e-23)
(0.0633187 0.0121672 -3.55403e-25)
(0.0603529 0.0138055 2.3771e-23)
(0.0570315 0.015689 -1.63134e-21)
(0.0533034 0.0178161 3.29701e-21)
(0.049112 0.0201454 -1.71829e-21)
(0.0443966 0.0225651 1.77546e-21)
(0.0390958 0.0248493 -1.85868e-21)
(0.0331522 0.0265971 -3.69094e-21)
(0.0265234 0.0271488 7.52976e-21)
(0.0192173 0.0254909 -3.81181e-21)
(0.011406 0.0201673 0)
(0.00354759 0.00910792 -3.58563e-21)
(0.0895154 0.00219109 0)
(0.0890477 0.00233955 -3.75039e-22)
(0.0885502 0.00250173 3.99408e-22)
(0.0880203 0.00267926 -1.25555e-23)
(0.0874551 0.00287403 -8.46581e-22)
(0.0868512 0.00308819 8.34085e-22)
(0.0862052 0.00332426 -1.3571e-23)
(0.085513 0.00358514 0)
(0.0847701 0.00387423 0)
(0.0839714 0.00419552 -9.73397e-22)
(0.0831113 0.0045537 9.43824e-22)
(0.0821833 0.00495434 0)
(0.0811802 0.00540408 -3.23909e-23)
(0.0800937 0.00591086 0)
(0.0789147 0.00648421 1.73453e-23)
(0.0776326 0.00713562 -1.78741e-23)
(0.0762356 0.007879 -1.86172e-23)
(0.0747102 0.00873111 1.91851e-23)
(0.0730413 0.00971215 1.26233e-21)
(0.071212 0.0108461 -1.30286e-21)
(0.0692031 0.0121611 2.83125e-21)
(0.0669935 0.0136884 -2.83306e-21)
(0.0645589 0.015461 3.0056e-21)
(0.0618722 0.017509 8.53572e-23)
(0.0589015 0.0198507 -3.16616e-21)
(0.0556086 0.0224781 -2.52706e-23)
(0.0519452 0.0253326 1.25318e-24)
(0.0478469 0.0282683 1.65694e-24)
(0.0432235 0.0310011 2.18418e-24)
(0.0379415 0.0330374 -5.46192e-23)
(0.0318036 0.0335768 -2.50704e-23)
(0.0245603 0.0313726 -2.38487e-23)
(0.0159282 0.0246169 0)
(0.00524386 0.0109731 7.3847e-24)
(0.089617 0.0026617 -2.84602e-23)
(0.0891577 0.00284233 7.49342e-22)
(0.0886697 0.0030397 7.7413e-22)
(0.0881504 0.0032558 1.96997e-23)
(0.0875972 0.00349294 -8.20847e-22)
(0.0870072 0.00375374 0)
(0.0863769 0.00404127 0)
(0.0857027 0.00435906 -9.15623e-22)
(0.0849806 0.00471125 9.02472e-22)
(0.084206 0.00510269 9.7242e-22)
(0.0833738 0.00553908 -9.73861e-22)
(0.0824784 0.00602716 0)
(0.0815137 0.00657493 1.08749e-21)
(0.0804725 0.00719193 -1.08959e-21)
(0.0793474 0.00788957 0)
(0.0781298 0.00868148 -2.35809e-21)
(0.0768106 0.00958404 2.37994e-21)
(0.0753799 0.0106168 -1.96692e-23)
(0.0738271 0.011803 -2.63043e-21)
(0.0721412 0.0131698 2.65484e-21)
(0.0703109 0.0147481 0)
(0.068325 0.0165719 2.97831e-21)
(0.0661719 0.0186748 -2.95993e-21)
(0.0638394 0.0210847 2.39726e-23)
(0.0613125 0.0238133 3.26317e-21)
(0.0585698 0.0268381 -6.54545e-21)
(0.0555746 0.0300752 2.01915e-23)
(0.0522621 0.0333397 3.74028e-23)
(0.0485145 0.0362909 3.39226e-21)
(0.0441194 0.0383634 3.76687e-24)
(0.038708 0.0386645 -2.91399e-21)
(0.0317019 0.0358126 2.98729e-21)
(0.0221322 0.0278059 0)
(0.00762005 0.0121871 2.67206e-23)
(0.0897465 0.00312201 -5.03656e-24)
(0.0892982 0.0033347 7.80794e-22)
(0.0888226 0.00356725 1.24833e-23)
(0.0883173 0.00382203 0)
(0.0877801 0.00410179 0)
(0.0872082 0.00440967 -8.77058e-22)
(0.0865987 0.00474931 8.79274e-22)
(0.0859484 0.00512493 0)
(0.0852537 0.00554148 1.47985e-23)
(0.0845108 0.00600471 0)
(0.0837155 0.0065214 -1.02222e-21)
(0.0828631 0.00709957 2.08123e-21)
(0.0819487 0.00774866 -1.05909e-21)
(0.0809671 0.00847992 -2.24454e-21)
(0.0799124 0.00930669 -7.52259e-23)
(0.0787788 0.0102448 -7.93006e-23)
(0.0775603 0.0113132 -8.32699e-23)
(0.0762512 0.0125339 2.52297e-21)
(0.0748461 0.0139328 2.70613e-21)
(0.0733407 0.0155392 -2.71257e-21)
(0.0717322 0.0173854 0)
(0.0700203 0.0195042 2.99946e-21)
(0.0682066 0.0219248 -3.00643e-21)
(0.0662951 0.0246645 -3.19025e-21)
(0.0642891 0.0277155 3.17268e-21)
(0.0621854 0.0310233 2.59236e-23)
(0.059963 0.0344563 3.18523e-21)
(0.0575624 0.0377655 -1.04752e-22)
(0.0548518 0.0405345 -3.14613e-21)
(0.0515648 0.0421283 2.40095e-23)
(0.0472121 0.0416305 0)
(0.0409697 0.0377181 -1.91532e-23)
(0.0310335 0.028593 -9.2021e-22)
(0.0122741 0.0121231 4.20019e-22)
(-0.000217933 0.000295144 0)
(-0.000947238 0.000560308 3.18991e-22)
(-0.00202988 0.000622075 -3.1947e-22)
(-0.00311686 0.000571501 -3.18288e-22)
(-0.00403895 0.000458806 3.18767e-22)
(-0.00472573 0.000313963 -9.81207e-24)
(-0.00514085 0.000155512 0)
(-0.0052662 -5.42163e-06 0)
(-0.005106 -0.000165163 0)
(-0.00467188 -0.000318492 0)
(-0.00397206 -0.000463022 0)
(-0.00302077 -0.00059789 0)
(-0.0018338 -0.000723333 0)
(-0.000427944 -0.000837855 0)
(0.00117884 -0.000941985 0)
(0.0029691 -0.00103593 9.9974e-23)
(0.00492556 -0.00111977 -9.40626e-23)
(0.00703094 -0.00119368 0)
(0.00926812 -0.00125791 0)
(0.0116203 -0.00131274 -7.22458e-23)
(0.0140712 -0.00135848 7.23562e-23)
(0.0166049 -0.00139545 -5.51483e-23)
(-0.000282789 0.000848445 -1.21013e-21)
(-0.00105548 0.00160515 -1.32305e-21)
(-0.00204231 0.00178174 1.30416e-21)
(-0.00297901 0.00163439 -6.26078e-22)
(-0.00373782 0.00130637 6.2716e-22)
(-0.00426635 0.000884463 9.88016e-24)
(-0.00453759 0.000421963 -1.95593e-23)
(-0.00454049 -4.90869e-05 -6.17006e-22)
(-0.00427855 -0.000516305 5.98716e-22)
(-0.00375974 -0.000965779 -1.79191e-23)
(-0.00299296 -0.0013905 -1.72438e-23)
(-0.00199183 -0.00178753 5.12393e-22)
(-0.000768758 -0.00215809 -5.13074e-22)
(0.000661489 -0.00249591 -4.60612e-22)
(0.00228105 -0.00280398 2.78827e-23)
(0.0040745 -0.00308238 4.3392e-22)
(0.00602607 -0.00333114 -6.09324e-24)
(0.00811958 -0.00355071 -1.14676e-23)
(0.010339 -0.00374173 0)
(0.0126683 -0.003905 0)
(0.0150922 -0.00404141 0)
(0.0175954 -0.00415184 -3.93481e-24)
(-0.000396133 0.00129643 -1.25549e-21)
(-0.00123261 0.00242534 1.37689e-21)
(-0.00201685 0.00269568 -1.33577e-21)
(-0.00265692 0.00246467 -2.0799e-23)
(-0.00309949 0.00195134 -3.69002e-25)
(-0.00332477 0.00129003 -1.26882e-21)
(-0.00332234 0.000561889 1.31044e-21)
(-0.00309174 -0.000182904 1.24534e-21)
(-0.00263666 -0.000923369 -2.05148e-23)
(-0.00195946 -0.00163922 -2.31593e-21)
(-0.00106766 -0.00231942 2.26342e-21)
(2.53385e-05 -0.00295814 -1.08364e-21)
(0.00131492 -0.0035518 -1.61827e-23)
(0.00278978 -0.00409862 0)
(0.00443078 -0.00459928 9.04354e-22)
(0.00622793 -0.00505259 -7.10607e-23)
(0.00816792 -0.00545866 -8.21319e-22)
(0.0102367 -0.00581806 2.34138e-23)
(0.01242 -0.00613161 0)
(0.014704 -0.00640041 0)
(0.0170745 -0.00662572 2.75236e-22)
(0.019518 -0.00680887 -2.67174e-22)
(-0.00052787 0.00155359 -2.70863e-21)
(-0.00139239 0.00289479 0)
(-0.00184058 0.00323115 2.81244e-21)
(-0.00204991 0.0029352 -5.62475e-21)
(-0.0020449 0.00228481 2.83356e-21)
(-0.00184893 0.00144427 1.29764e-21)
(-0.00147046 0.000512767 -1.36148e-21)
(-0.000920447 -0.000447648 1.27115e-21)
(-0.000204131 -0.00140961 -2.52173e-21)
(0.000683852 -0.00234548 1.23115e-21)
(0.00174072 -0.00324062 1.83714e-23)
(0.00295907 -0.00408713 3.3719e-25)
(0.00433383 -0.00487647 1.6461e-23)
(0.00585913 -0.00561043 -9.96916e-22)
(0.00752461 -0.00628467 9.66581e-22)
(0.00932167 -0.00689765 2.8024e-23)
(0.0112402 -0.00744915 -1.29251e-23)
(0.0132695 -0.00793936 7.49053e-22)
(0.015398 -0.0083689 -7.48979e-22)
(0.0176143 -0.0087388 -1.0519e-23)
(0.0199064 -0.00905044 0)
(0.0222628 -0.00930532 3.20925e-25)
(-0.000585496 0.00154573 -1.62354e-24)
(-0.0013399 0.00293706 -2.52355e-23)
(-0.00132692 0.00330035 -2.44707e-23)
(-0.000993368 0.00297107 -2.37811e-23)
(-0.000445032 0.0022489 -4.56912e-23)
(0.000248131 0.0013088 -5.13974e-25)
(0.00106231 0.000262587 2.1494e-23)
(0.00197801 -0.00084892 -2.1332e-23)
(0.00299126 -0.00197114 -2.06647e-23)
(0.00411609 -0.00307051 2.46208e-21)
(0.00535363 -0.00413154 -1.35891e-22)
(0.00670403 -0.00514401 -2.40014e-21)
(0.0081674 -0.00609775 2.15131e-21)
(0.00974244 -0.0069887 -2.15164e-21)
(0.0114253 -0.00781242 9.68796e-22)
(0.0132112 -0.00856624 -9.97735e-22)
(0.0150939 -0.00924863 1.39416e-23)
(0.0170664 -0.00985879 -1.25881e-23)
(0.0191205 -0.0103967 -1.2045e-23)
(0.0212476 -0.0108628 1.07026e-23)
(0.0234383 -0.0112583 0)
(0.0256832 -0.0115845 -1.8149e-23)
(0.0279728 -0.011843 0)
(-0.000452911 0.00127512 5.10747e-23)
(-0.000778221 0.00251828 -1.70178e-24)
(-0.000184819 0.00285136 -3.22373e-21)
(0.000759021 0.00253431 3.29604e-21)
(0.00188379 0.00182788 -8.2597e-25)
(0.00309624 0.000889954 -2.94122e-21)
(0.00433949 -0.000185886 8.3674e-23)
(0.00560554 -0.00135916 1.32595e-22)
(0.00691458 -0.00255778 5.51692e-21)
(0.00826889 -0.00375417 -2.68849e-21)
(0.00967604 -0.00492752 4.0059e-23)
(0.0111447 -0.00606105 2.39878e-21)
(0.0126814 -0.0071419 -2.37714e-21)
(0.0142901 -0.00816137 0)
(0.0159726 -0.00911274 -2.04418e-21)
(0.0177287 -0.009991 2.05643e-21)
(0.0195564 -0.0107926 -1.42913e-23)
(0.0214524 -0.011515 -1.66852e-21)
(0.023412 -0.012157 1.67838e-21)
(0.0254293 -0.012718 -1.18139e-23)
(0.027498 -0.0131984 6.48626e-22)
(0.029611 -0.0135991 -6.28314e-22)
(0.0317606 -0.0139213 0)
(-0.000100278 0.000683214 -7.0684e-21)
(0.000626226 0.00142468 3.98398e-21)
(0.00196739 0.00167729 -2.79703e-23)
(0.00352852 0.00147374 0)
(0.00517734 0.00093841 2.58931e-23)
(0.00683384 0.000154584 3.17524e-21)
(0.00844517 -0.000839752 -9.8794e-23)
(0.0100075 -0.00196348 -3.11029e-21)
(0.0115481 -0.00315487 2.26503e-23)
(0.0130765 -0.00438001 -2.77348e-21)
(0.0146068 -0.00560924 2.74598e-21)
(0.0161532 -0.00681909 2.54554e-21)
(0.0177271 -0.00799146 -2.5395e-21)
(0.0193377 -0.00911243 0)
(0.0209911 -0.0101711 2.17519e-21)
(0.0226915 -0.0111588 -2.16995e-21)
(0.0244407 -0.0120693 -1.91526e-21)
(0.0262387 -0.0128975 1.26693e-22)
(0.0280839 -0.0136403 1.26637e-22)
(0.0299734 -0.0142955 1.37755e-22)
(0.0319031 -0.0148623 1.51949e-21)
(0.033868 -0.0153407 6.25581e-22)
(0.035863 -0.0157313 -1.20964e-21)
(0.000105587 -0.00038646 0)
(0.00303695 9.03418e-05 0)
(0.00532791 0.000346342 0)
(0.00741392 0.00022012 0)
(0.0094369 -0.000217223 0)
(0.0113581 -0.000906526 0)
(0.0131844 -0.0018144 0)
(0.014941 -0.00286352 0)
(0.0166315 -0.00400843 0)
(0.0182703 -0.00521156 0)
(0.0198757 -0.00644071 0)
(0.0214648 -0.00766981 0)
(0.0230515 -0.00887763 0)
(0.0246476 -0.010047 0)
(0.0262618 -0.011164 0)
(0.0279009 -0.0122173 0)
(0.0295691 -0.013198 0)
(0.0312688 -0.014099 0)
(0.0330006 -0.0149149 0)
(0.0347638 -0.015642 0)
(0.0365561 -0.0162778 0)
(0.0383747 -0.016821 0)
(0.0402155 -0.0172712 0)
(0.0420741 -0.0176282 0)
(0.00551928 -0.0028579 0)
(0.00870983 -0.00239372 0)
(0.0112227 -0.00205899 0)
(0.013412 -0.00208298 0)
(0.0155377 -0.00242663 0)
(0.0175648 -0.00302118 0)
(0.0194819 -0.00381016 0)
(0.021305 -0.00475754 0)
(0.0230445 -0.00582163 0)
(0.0247148 -0.00696276 0)
(0.0263319 -0.0081473 0)
(0.0279114 -0.00934722 0)
(0.0294668 -0.010539 0)
(0.03101 -0.0117032 0)
(0.0325507 -0.0128235 0)
(0.0340964 -0.0138865 0)
(0.0356529 -0.0148813 0)
(0.0372242 -0.015799 0)
(0.0388124 -0.0166329 0)
(0.0404185 -0.0173776 0)
(0.042042 -0.0180298 0)
(0.0436816 -0.0185872 0)
(0.0453352 -0.0190485 0)
(0.014507 -0.00494468 0)
(0.0172506 -0.00461108 0)
(0.0194739 -0.00430696 0)
(0.0213934 -0.0042749 0)
(0.0233301 -0.00452929 0)
(0.0252327 -0.00502571 0)
(0.0270581 -0.00572164 0)
(0.0288044 -0.0065819 0)
(0.0304765 -0.00756812 0)
(0.0320821 -0.0086435 0)
(0.033631 -0.00977547 0)
(0.0351341 -0.0109356 0)
(0.0366021 -0.0120993 0)
(0.0380449 -0.0132455 0)
(0.039471 -0.0143563 0)
(0.0408877 -0.0154165 0)
(0.0423009 -0.0164136 0)
(0.0437151 -0.0173373 0)
(0.0451334 -0.0181792 0)
(0.0465579 -0.018933 0)
(0.0479893 -0.0195941 0)
(0.0494277 -0.0201594 0)
(0.0508722 -0.0206269 0)
(0.0260084 -0.00627499 0)
(0.027997 -0.00617123 0)
(0.0296617 -0.00603405 0)
(0.0310829 -0.00606296 0)
(0.0326166 -0.00631307 0)
(0.0342036 -0.00677134 0)
(0.0357742 -0.00741394 0)
(0.0373082 -0.00821336 0)
(0.0387982 -0.00913813 0)
(0.0402412 -0.0101564 0)
(0.0416385 -0.0112384 0)
(0.0429944 -0.0123568 0)
(0.0443146 -0.0134873 0)
(0.0456053 -0.0146083 0)
(0.0468725 -0.0157011 0)
(0.0481219 -0.0167496 0)
(0.0493586 -0.01774 0)
(0.0505865 -0.0186609 0)
(0.0518092 -0.0195029 0)
(0.0530289 -0.0202588 0)
(0.0542473 -0.0209228 0)
(0.0554655 -0.0214912 0)
(0.0566836 -0.0219613 0)
(0.0390809 -0.0068043 0)
(0.0402086 -0.00699504 0)
(0.0412057 -0.0071237 0)
(0.0420257 -0.00732236 0)
(0.0430363 -0.00766478 0)
(0.044184 -0.0081634 0)
(0.0453833 -0.00881163 0)
(0.0465986 -0.00959423 0)
(0.0478108 -0.0104894 0)
(0.0490064 -0.0114723 0)
(0.0501777 -0.0125177 0)
(0.0513213 -0.0136012 0)
(0.0524373 -0.0147003 0)
(0.053527 -0.0157942 0)
(0.0545934 -0.0168645 0)
(0.0556394 -0.0178948 0)
(0.0566684 -0.0188712 0)
(0.0576834 -0.0197815 0)
(0.0586874 -0.0206159 0)
(0.0596827 -0.0213662 0)
(0.0606713 -0.0220264 0)
(0.0616546 -0.022592 0)
(0.0626338 -0.0230599 0)
(0.0528468 -0.00657332 0)
(0.0531423 -0.00709394 0)
(0.0534718 -0.0075445 0)
(0.0536853 -0.0079882 0)
(0.0541382 -0.00849987 0)
(0.0547917 -0.00910905 0)
(0.0555564 -0.00982297 0)
(0.0563874 -0.0106381 0)
(0.0572571 -0.0115425 0)
(0.058144 -0.0125195 0)
(0.0590326 -0.0135496 0)
(0.059913 -0.0146128 0)
(0.0607792 -0.0156895 0)
(0.0616282 -0.0167611 0)
(0.0624591 -0.0178103 0)
(0.0632719 -0.0188216 0)
(0.064068 -0.0197813 0)
(0.064849 -0.0206774 0)
(0.0656168 -0.0214999 0)
(0.0663734 -0.0222405 0)
(0.0671205 -0.0228928 0)
(0.0678599 -0.023452 0)
(0.0685931 -0.0239147 0)
(0.0665192 -0.00569463 0)
(0.0661014 -0.006555 0)
(0.0658364 -0.00734643 0)
(0.065507 -0.00807474 0)
(0.0654356 -0.00880487 0)
(0.0656013 -0.00957573 0)
(0.0659199 -0.010404 0)
(0.0663442 -0.0112951 0)
(0.0668424 -0.0122459 0)
(0.0673885 -0.0132473 0)
(0.0679618 -0.0142861 0)
(0.0685473 -0.0153474 0)
(0.0691345 -0.0164151 0)
(0.0697164 -0.0174737 0)
(0.0702886 -0.0185078 0)
(0.0708486 -0.0195035 0)
(0.0713954 -0.020448 0)
(0.0719292 -0.02133 0)
(0.0724506 -0.02214 0)
(0.072961 -0.0228697 0)
(0.0734617 -0.0235128 0)
(0.0739545 -0.0240645 0)
(0.074441 -0.0245213 0)
(0.0794401 -0.00432862 0)
(0.0784798 -0.00551673 0)
(0.077738 -0.00663776 0)
(0.0769723 -0.00765776 0)
(0.0764577 -0.00862697 0)
(0.0761891 -0.00958746 0)
(0.0760944 -0.0105612 0)
(0.076129 -0.0115595 0)
(0.0762615 -0.0125859 0)
(0.0764647 -0.0136376 0)
(0.0767157 -0.0147072 0)
(0.0769968 -0.0157845 0)
(0.0772946 -0.0168577 0)
(0.0775992 -0.0179143 0)
(0.0779037 -0.0189417 0)
(0.0782033 -0.0199278 0)
(0.0784953 -0.0208613 0)
(0.0787782 -0.021732 0)
(0.0790519 -0.0225312 0)
(0.0793166 -0.0232512 0)
(0.0795735 -0.023886 0)
(0.0798238 -0.024431 0)
(0.0800694 -0.0248828 0)
(0.0911105 -0.00265508 0)
(0.0897977 -0.0041397 0)
(0.0887188 -0.00555598 0)
(0.0876434 -0.00684832 0)
(0.0867933 -0.00805179 0)
(0.086175 -0.0092073 0)
(0.0857314 -0.0103388 0)
(0.0854243 -0.0114606 0)
(0.0852259 -0.0125803 0)
(0.0851109 -0.0136999 0)
(0.0850568 -0.0148168 0)
(0.0850455 -0.015925 0)
(0.0850623 -0.0170163 0)
(0.0850961 -0.0180816 0)
(0.0851384 -0.0191109 0)
(0.0851831 -0.0200942 0)
(0.0852262 -0.0210222 0)
(0.0852651 -0.021886 0)
(0.0852986 -0.0226778 0)
(0.0853266 -0.0233908 0)
(0.0853496 -0.0240196 0)
(0.0853687 -0.02456 0)
(0.0853854 -0.0250089 0)
(0.101205 -0.00085035 0)
(0.0997228 -0.00258404 0)
(0.0984485 -0.00424523 0)
(0.0971918 -0.00577144 0)
(0.0961224 -0.00718457 0)
(0.0952533 -0.00852155 0)
(0.0945433 -0.00980585 0)
(0.0939626 -0.0110525 0)
(0.0934889 -0.0122713 0)
(0.0931005 -0.013467 0)
(0.0927779 -0.0146404 0)
(0.092504 -0.0157888 0)
(0.092265 -0.0169073 0)
(0.0920495 -0.0179894 0)
(0.0918488 -0.0190279 0)
(0.0916563 -0.0200148 0)
(0.0914672 -0.0209426 0)
(0.0912785 -0.021804 0)
(0.0910885 -0.0225923 0)
(0.0908965 -0.0233018 0)
(0.0907028 -0.0239278 0)
(0.0905081 -0.0244665 0)
(0.090314 -0.0249153 0)
(0.109569 0.00093285 0)
(0.108074 -0.000992089 0)
(0.106732 -0.00283927 0)
(0.10541 -0.00454935 0)
(0.104231 -0.0061343 0)
(0.103211 -0.0076255 0)
(0.102323 -0.00904426 0)
(0.101546 -0.0104048 0)
(0.100863 -0.0117172 0)
(0.100259 -0.0129878 0)
(0.0997171 -0.0142191 0)
(0.0992235 -0.0154111 0)
(0.0987661 -0.016561 0)
(0.0983347 -0.0176647 0)
(0.097921 -0.018717 0)
(0.0975189 -0.019712 0)
(0.0971236 -0.0206439 0)
(0.096732 -0.0215069 0)
(0.0963424 -0.0222954 0)
(0.0959538 -0.0230048 0)
(0.0955664 -0.023631 0)
(0.0951809 -0.024171 0)
(0.0947988 -0.0246228 0)
(0.116193 0.00257459 0)
(0.114803 0.000521378 0)
(0.1135 -0.00145028 0)
(0.112209 -0.0032895 0)
(0.111015 -0.00500148 0)
(0.109934 -0.00661139 0)
(0.10895 -0.00813734 0)
(0.108052 -0.00959171 0)
(0.10723 -0.0109838 0)
(0.106472 -0.0123202 0)
(0.105767 -0.0136042 0)
(0.105103 -0.0148371 0)
(0.104472 -0.0160178 0)
(0.103866 -0.0171438 0)
(0.103277 -0.0182116 0)
(0.102699 -0.0192169 0)
(0.10213 -0.0201554 0)
(0.101567 -0.0210225 0)
(0.101007 -0.0218138 0)
(0.10045 -0.0225257 0)
(0.0998963 -0.0231548 0)
(0.0993469 -0.0236988 0)
(0.098803 -0.0241559 0)
(0.121184 0.00399289 0)
(0.119978 0.00187412 0)
(0.11879 -0.000162943 0)
(0.117601 -0.00207739 0)
(0.116465 -0.00387002 0)
(0.115396 -0.00555986 0)
(0.114389 -0.00716125 0)
(0.113439 -0.00868418 0)
(0.112541 -0.0101365 0)
(0.111689 -0.0115239 0)
(0.110875 -0.01285 0)
(0.110093 -0.0141164 0)
(0.109337 -0.0153231 0)
(0.108599 -0.0164685 0)
(0.107875 -0.0175503 0)
(0.107161 -0.0185656 0)
(0.106454 -0.019511 0)
(0.105752 -0.0203831 0)
(0.105054 -0.0211785 0)
(0.10436 -0.0218943 0)
(0.103671 -0.022528 0)
(0.102986 -0.0230777 0)
(0.102309 -0.0235422 0)
(0.124724 0.00514556 0)
(0.123744 0.00301739 0)
(0.122719 0.000967187 0)
(0.121677 -0.000973669 0)
(0.12065 -0.00280334 0)
(0.119648 -0.00453509 0)
(0.118673 -0.00617943 0)
(0.117727 -0.00774372 0)
(0.116808 -0.00923394 0)
(0.115915 -0.0106547 0)
(0.115044 -0.0120089 0)
(0.114192 -0.0132982 0)
(0.113354 -0.0145227 0)
(0.112528 -0.0156817 0)
(0.11171 -0.0167736 0)
(0.110898 -0.0177961 0)
(0.110089 -0.0187467 0)
(0.109284 -0.0196229 0)
(0.108482 -0.0204222 0)
(0.107683 -0.0211422 0)
(0.106889 -0.021781 0)
(0.106099 -0.0223372 0)
(0.105317 -0.0228101 0)
(0.127037 0.00602228 0)
(0.126295 0.00393125 0)
(0.125455 0.00191095 0)
(0.124583 -1.52044e-05 0)
(0.123694 -0.00184383 0)
(0.122795 -0.00358317 0)
(0.121892 -0.00524007 0)
(0.12099 -0.00681937 0)
(0.120094 -0.00832505 0)
(0.119203 -0.00976028 0)
(0.118317 -0.0111272 0)
(0.117436 -0.0124268 0)
(0.116559 -0.0136594 0)
(0.115684 -0.0148242 0)
(0.114809 -0.0159201 0)
(0.113935 -0.0169453 0)
(0.11306 -0.017898 0)
(0.112185 -0.018776 0)
(0.111311 -0.0195775 0)
(0.110438 -0.0203006 0)
(0.109567 -0.020944 0)
(0.108702 -0.0215065 0)
(0.107843 -0.0219877 0)
(0.128359 0.00663715 0)
(0.127841 0.00461849 0)
(0.12719 0.00266091 0)
(0.126493 0.000781743 0)
(0.125753 -0.00101482 0)
(0.124975 -0.00273285 0)
(0.124168 -0.00437594 0)
(0.12334 -0.00594661 0)
(0.122496 -0.00744696 0)
(0.121639 -0.00887872 0)
(0.120773 -0.010243 0)
(0.119897 -0.0115402 0)
(0.119013 -0.0127701 0)
(0.118122 -0.013932 0)
(0.117223 -0.0150249 0)
(0.116319 -0.0160472 0)
(0.115409 -0.0169974 0)
(0.114494 -0.0178738 0)
(0.113576 -0.0186748 0)
(0.112657 -0.019399 0)
(0.111739 -0.0200453 0)
(0.110824 -0.0206129 0)
(0.109914 -0.0211017 0)
(0.128913 0.00702004 0)
(0.128594 0.00509778 0)
(0.128119 0.0032258 0)
(0.127587 0.00141697 0)
(0.126995 -0.000324067 0)
(0.126344 -0.00199807 0)
(0.125643 -0.00360595 0)
(0.124904 -0.0051482 0)
(0.124132 -0.0066253 0)
(0.123332 -0.00803762 0)
(0.122507 -0.0093852 0)
(0.121662 -0.0106678 0)
(0.120798 -0.0118847 0)
(0.119917 -0.013035 0)
(0.119022 -0.0141175 0)
(0.118113 -0.0151308 0)
(0.117194 -0.0160735 0)
(0.116265 -0.016944 0)
(0.11533 -0.0177411 0)
(0.11439 -0.0184636 0)
(0.113448 -0.0191106 0)
(0.112506 -0.0196815 0)
(0.111568 -0.0201762 0)
(0.128897 0.00720879 0)
(0.128745 0.005397 0)
(0.128424 0.00362462 0)
(0.128041 0.00190143 0)
(0.127585 0.000232256 0)
(0.127055 -0.00138117 0)
(0.126463 -0.00293762 0)
(0.125818 -0.00443599 0)
(0.125127 -0.00587537 0)
(0.124396 -0.00725497 0)
(0.123629 -0.00857392 0)
(0.122832 -0.00983123 0)
(0.122006 -0.0110258 0)
(0.121155 -0.0121563 0)
(0.120283 -0.0132214 0)
(0.119392 -0.0142197 0)
(0.118484 -0.0151496 0)
(0.117562 -0.01601 0)
(0.116629 -0.0167995 0)
(0.115689 -0.0175171 0)
(0.114743 -0.0181619 0)
(0.113795 -0.0187337 0)
(0.112849 -0.0192322 0)
(0.128476 0.00724307 0)
(0.128457 0.00554778 0)
(0.128266 0.0038818 0)
(0.128009 0.00225275 0)
(0.127673 0.000665572 0)
(0.127254 -0.000876285 0)
(0.126764 -0.00237001 0)
(0.126212 -0.00381325 0)
(0.125604 -0.00520405 0)
(0.124948 -0.00654063 0)
(0.124247 -0.00782138 0)
(0.123507 -0.00904468 0)
(0.122731 -0.010209 0)
(0.121924 -0.0113126 0)
(0.12109 -0.0123541 0)
(0.12023 -0.0133318 0)
(0.11935 -0.0142442 0)
(0.118451 -0.0150901 0)
(0.117537 -0.0158682 0)
(0.116613 -0.0165776 0)
(0.11568 -0.0172174 0)
(0.114742 -0.0177874 0)
(0.113802 -0.0182874 0)
(0.127785 0.00716025 0)
(0.127865 0.00558151 0)
(0.127778 0.00402325 0)
(0.127625 0.0024916 0)
(0.12739 0.000991479 0)
(0.127068 -0.000472512 0)
(0.12667 -0.00189648 0)
(0.126204 -0.00327718 0)
(0.125677 -0.00461186 0)
(0.125095 -0.00589804 0)
(0.124462 -0.00713347 0)
(0.123784 -0.00831607 0)
(0.123065 -0.00944384 0)
(0.12231 -0.0105149 0)
(0.121522 -0.0115275 0)
(0.120705 -0.0124799 0)
(0.119862 -0.0133706 0)
(0.118998 -0.0141982 0)
(0.118116 -0.0149614 0)
(0.117219 -0.0156594 0)
(0.116311 -0.0162913 0)
(0.115395 -0.0168567 0)
(0.114476 -0.0173557 0)
(0.126923 0.00699297 0)
(0.127076 0.00552683 0)
(0.12707 0.00407379 0)
(0.126998 0.00263895 0)
(0.126845 0.00122713 0)
(0.126605 -0.000156407 0)
(0.126287 -0.00150707 0)
(0.125898 -0.00282104 0)
(0.125445 -0.00409501 0)
(0.124933 -0.00532599 0)
(0.124367 -0.0065113 0)
(0.123752 -0.00764846 0)
(0.123092 -0.00873519 0)
(0.122391 -0.00976937 0)
(0.121655 -0.010749 0)
(0.120886 -0.0116724 0)
(0.120089 -0.0125378 0)
(0.119266 -0.0133438 0)
(0.118423 -0.0140892 0)
(0.117563 -0.0147729 0)
(0.116689 -0.0153941 0)
(0.115805 -0.0159526 0)
(0.114914 -0.0164481 0)
(0.125967 0.00676823 0)
(0.126169 0.0054083 0)
(0.126222 0.00405556 0)
(0.126213 0.00271435 0)
(0.126125 0.00138933 0)
(0.125951 8.60961e-05 0)
(0.1257 -0.0011904 0)
(0.125378 -0.00243601 0)
(0.124991 -0.00364706 0)
(0.124543 -0.00482025 0)
(0.12404 -0.0059526 0)
(0.123485 -0.00704137 0)
(0.122883 -0.00808407 0)
(0.122239 -0.00907841 0)
(0.121555 -0.0100223 0)
(0.120837 -0.0109138 0)
(0.120089 -0.0117512 0)
(0.119313 -0.012533 0)
(0.118514 -0.013258 0)
(0.117695 -0.013925 0)
(0.116861 -0.0145334 0)
(0.116015 -0.0150825 0)
(0.11516 -0.0155724 0)
(0.124969 0.00650731 0)
(0.125202 0.00524599 0)
(0.125298 0.00398727 0)
(0.125335 0.00273493 0)
(0.125296 0.00149343 0)
(0.125176 0.000268425 0)
(0.12498 -0.000934994 0)
(0.124715 -0.00211252 0)
(0.124385 -0.0032603 0)
(0.123994 -0.00437487 0)
(0.123547 -0.00545306 0)
(0.123049 -0.00649199 0)
(0.122502 -0.00748902 0)
(0.121911 -0.00844175 0)
(0.121281 -0.00934798 0)
(0.120614 -0.0102058 0)
(0.119915 -0.0110133 0)
(0.119187 -0.011769 0)
(0.118435 -0.0124717 0)
(0.117661 -0.0131202 0)
(0.11687 -0.0137137 0)
(0.116065 -0.0142516 0)
(0.11525 -0.0147338 0)
(0.123966 0.00622635 0)
(0.124217 0.00505564 0)
(0.124341 0.00388408 0)
(0.12441 0.00271503 0)
(0.124409 0.00155269 0)
(0.12433 0.000402628 0)
(0.124178 -0.000730108 0)
(0.12396 -0.00184119 0)
(0.123679 -0.00292672 0)
(0.123339 -0.00398316 0)
(0.122942 -0.00500726 0)
(0.122495 -0.00599608 0)
(0.121999 -0.0069469 0)
(0.121459 -0.00785728 0)
(0.120879 -0.00872497 0)
(0.120262 -0.00954796 0)
(0.119612 -0.0103245 0)
(0.118932 -0.0110529 0)
(0.118227 -0.0117319 0)
(0.117499 -0.0123604 0)
(0.116752 -0.0129375 0)
(0.115991 -0.0134627 0)
(0.115218 -0.0139356 0)
(0.122981 0.00593711 0)
(0.123239 0.00484917 0)
(0.123382 0.00375788 0)
(0.123473 0.00266622 0)
(0.123498 0.00157816 0)
(0.123451 0.000499039 0)
(0.123335 -0.000566231 0)
(0.123155 -0.0016134 0)
(0.122915 -0.00263863 0)
(0.122618 -0.00363837 0)
(0.122266 -0.0046094 0)
(0.121864 -0.00554874 0)
(0.121415 -0.00645369 0)
(0.120922 -0.00732178 0)
(0.120389 -0.00815077 0)
(0.119819 -0.00893862 0)
(0.119216 -0.00968355 0)
(0.118583 -0.010384 0)
(0.117924 -0.0110385 0)
(0.117242 -0.0116461 0)
(0.11654 -0.0122057 0)
(0.115822 -0.0127169 0)
(0.115091 -0.0131792 0)
(0.122029 0.00564788 0)
(0.122287 0.00463532 0)
(0.12244 0.00361765 0)
(0.122546 0.00259755 0)
(0.12259 0.00157872 0)
(0.122566 0.000566219 0)
(0.122478 -0.000435249 0)
(0.12233 -0.00142158 0)
(0.122124 -0.00238904 0)
(0.121863 -0.00333416 0)
(0.12155 -0.00425377 0)
(0.121189 -0.00514493 0)
(0.120781 -0.00600498 0)
(0.120331 -0.00683147 0)
(0.119842 -0.00762218 0)
(0.119316 -0.0083751 0)
(0.118757 -0.00908844 0)
(0.118169 -0.00976063 0)
(0.117554 -0.0103903 0)
(0.116916 -0.0109764 0)
(0.116258 -0.0115179 0)
(0.115583 -0.0120141 0)
(0.114894 -0.0124649 0)
(0.121118 0.00536425 0)
(0.121371 0.0044203 0)
(0.121529 0.00347005 0)
(0.121643 0.00251591 0)
(0.1217 0.00156133 0)
(0.121693 0.000611072 0)
(0.121627 -0.000330439 0)
(0.121504 -0.00125928 0)
(0.121327 -0.00217185 0)
(0.121097 -0.00306482 0)
(0.120818 -0.00393508 0)
(0.120492 -0.0047798 0)
(0.120122 -0.00559636 0)
(0.11971 -0.00638238 0)
(0.119261 -0.00713567 0)
(0.118776 -0.00785428 0)
(0.118259 -0.00853643 0)
(0.117712 -0.00918059 0)
(0.117139 -0.0097854 0)
(0.116543 -0.0103497 0)
(0.115927 -0.0108727 0)
(0.115293 -0.0113535 0)
(0.114646 -0.0117919 0)
(0.120252 0.00508983 0)
(0.120497 0.00420835 0)
(0.120656 0.00331982 0)
(0.120774 0.00242642 0)
(0.120838 0.00153136 0)
(0.120845 0.000639044 0)
(0.120796 -0.000246356 0)
(0.120693 -0.00112113 0)
(0.120539 -0.00198185 0)
(0.120336 -0.00282532 0)
(0.120086 -0.00364857 0)
(0.119791 -0.00444885 0)
(0.119454 -0.00522364 0)
(0.119077 -0.00597062 0)
(0.118664 -0.00668767 0)
(0.118216 -0.00737289 0)
(0.117737 -0.00802456 0)