/*--------------------------------*- C++ -*----------------------------------*\
| =========                 |                                                 |
| \\      /  F ield         | OpenFOAM: The Open Source CFD Toolbox           |
|  \\    /   O peration     | Version:  2412                                  |
|   \\  /    A nd           | Website:  www.openfoam.com                      |
|    \\/     M anipulation  |                                                 |
\*---------------------------------------------------------------------------*/
FoamFile
{
    version     2.0;
    format      ascii;
    arch        "LSB;label=32;scalar=64";
    class       volVectorField;
    location    "23";
    object      vorticity;
}
// * * * * * * * * * * * * * * * * * * * * * * * * * * * * * * * * * * * * * //

dimensions      [0 0 -1 0 0 0 0];

internalField   nonuniform List<vector> 
5285
(
(2.32406e-21 -6.47274e-20 -5.00593e-05)
(-1.82235e-21 7.62412e-21 -5.79293e-05)
(-1.8488e-22 -7.11517e-21 -6.66342e-05)
(7.0371e-23 7.11906e-21 -7.62887e-05)
(-3.08797e-24 -1.26302e-22 -8.69783e-05)
(-6.53292e-23 -6.86617e-21 -9.88215e-05)
(-1.97499e-21 6.92455e-21 -0.000111949)
(4.12906e-21 1.26926e-23 -0.000126505)
(1.20373e-21 6.72157e-21 -0.000142654)
(-3.21715e-21 -5.22094e-24 -0.000160581)
(4.6281e-21 7.79972e-21 -0.000180501)
(-5.43948e-21 1.01241e-19 -0.000202671)
(6.85893e-22 -1.0871e-19 -0.000227409)
(-2.10505e-21 9.92659e-20 -0.000255133)
(2.05089e-21 -1.00388e-19 -0.000286414)
(4.7624e-23 1.31691e-21 -0.00032209)
(-6.19492e-23 -1.61575e-21 -0.000363453)
(2.74063e-21 -9.49191e-20 -0.000412587)
(-8.50414e-21 9.21107e-20 -0.000472973)
(-3.08077e-22 -1.51874e-21 -0.000550541)
(6.08386e-21 1.3306e-23 -0.000655454)
(6.60939e-21 1.44554e-23 -0.000805066)
(-6.58825e-21 -1.44091e-23 -0.00102857)
(-2.18278e-22 -4.77395e-25 -0.00137401)
(-2.27484e-22 -4.9753e-25 -0.00191808)
(-7.82354e-21 -1.71109e-23 -0.00277879)
(7.55182e-21 1.65166e-23 -0.00412988)
(-2.49168e-22 1.4817e-22 -0.00621405)
(-3.38437e-23 7.66569e-21 -0.00934943)
(-2.41493e-20 4.95842e-20 -0.0139212)
(2.32606e-20 -6.53451e-20 -0.0203461)
(-5.45352e-21 -9.2589e-21 -0.0289966)
(5.994e-21 2.53545e-20 -0.0400803)
(-1.99138e-20 -5.55925e-21 -0.0533945)
(1.64364e-21 -2.23896e-19 -0.000156861)
(-5.53569e-21 2.3993e-19 -0.000181381)
(-2.95882e-22 1.94303e-20 -0.000208585)
(-3.76764e-21 -7.27555e-21 -0.000238715)
(3.98379e-21 1.4252e-22 -0.000272115)
(-3.99769e-21 9.02512e-21 -0.000309162)
(9.44408e-22 2.08292e-19 -0.000350271)
(5.93525e-21 -4.40955e-19 -0.000395905)
(4.50254e-21 -2.10614e-19 -0.000446588)
(-7.01465e-21 4.2639e-19 -0.000502916)
(3.7314e-21 -4.25031e-19 -0.000565578)
(-2.09293e-21 4.36085e-19 -0.000635401)
(3.22535e-21 1.46273e-21 -0.000713402)
(-3.65447e-21 -9.57684e-23 -0.000800901)
(-1.22777e-21 -2.68525e-24 -0.000899701)
(0 -0 -0.00101241)
(1.81407e-22 9.4132e-23 -0.00114302)
(1.08399e-20 1.21635e-20 -0.00129794)
(-1.57066e-20 3.55431e-19 -0.00148779)
(-1.54818e-20 -2.39631e-20 -0.00173066)
(1.84966e-20 -3.50453e-19 -0.00205747)
(2.63286e-20 -3.02615e-19 -0.00252096)
(-9.47328e-21 3.23247e-19 -0.00320979)
(-3.05708e-20 2.14917e-21 -0.00426971)
(2.98128e-20 1.70118e-20 -0.00593319)
(-4.15498e-20 2.30125e-19 -0.00855757)
(2.2574e-20 -2.39362e-19 -0.0126684)
(-1.76395e-20 1.43789e-20 -0.018999)
(1.95428e-20 7.5529e-21 -0.02851)
(-5.86863e-20 1.10953e-19 -0.0423638)
(5.86078e-20 -1.08608e-19 -0.061814)
(-8.9874e-20 8.09933e-20 -0.0879615)
(8.67292e-20 -9.04528e-20 -0.121359)
(-1.83937e-20 -6.19662e-22 -0.160051)
(-4.76589e-21 -1.19787e-20 -0.000284023)
(-4.80704e-21 4.64019e-19 -0.000328114)
(4.08053e-22 -1.40839e-20 -0.000377027)
(-1.24026e-20 4.50518e-19 -0.00043131)
(1.2329e-20 -4.67872e-19 -0.000491584)
(-9.25891e-21 4.4672e-19 -0.000558559)
(2.56004e-21 -4.64628e-19 -0.000633014)
(5.17445e-21 -9.28596e-21 -0.00071583)
(-2.57371e-21 1.36134e-20 -0.000808001)
(5.48968e-21 -8.78764e-21 -0.000910661)
(-1.89214e-20 4.18548e-19 -0.00102513)
(1.7044e-20 -4.46052e-19 -0.00115296)
(1.85663e-20 -4.14379e-19 -0.00129608)
(-1.52813e-20 4.16251e-19 -0.00145693)
(-1.07146e-21 -5.1158e-21 -0.00163881)
(1.10863e-20 -1.19965e-22 -0.00184641)
(-1.26716e-20 -2.45241e-20 -0.00208677)
(5.34514e-20 -7.5583e-19 -0.00237106)
(1.64264e-20 5.59524e-20 -0.00271766)
(-7.0184e-20 7.11564e-19 -0.00315756)
(3.90764e-21 -1.21997e-20 -0.00374367)
(-1.13151e-20 -4.78149e-21 -0.00456598)
(1.09662e-19 -5.96556e-19 -0.0057756)
(-2.04043e-19 1.17138e-18 -0.00762064)
(2.08043e-19 -1.16339e-18 -0.0104963)
(7.02007e-20 8.42246e-20 -0.015009)
(-1.55807e-19 5.0904e-19 -0.0220499)
(-1.63229e-19 3.50874e-19 -0.0328611)
(1.54303e-19 -4.15969e-19 -0.0490712)
(-2.1867e-20 1.91721e-20 -0.0726528)
(5.40199e-20 -1.70526e-20 -0.105733)
(1.61969e-19 -1.00545e-19 -0.150137)
(-1.75359e-19 1.57053e-19 -0.206592)
(-2.50108e-20 -4.03098e-20 -0.267365)
(-1.00526e-20 4.77787e-19 -0.000447038)
(-7.02835e-22 -3.73391e-21 -0.000515671)
(4.46943e-21 3.88042e-21 -0.000591985)
(-7.82301e-21 4.40589e-19 -0.000676867)
(-1.66925e-21 -4.62677e-19 -0.00077134)
(1.46735e-20 1.26451e-20 -0.000876575)
(-3.39776e-20 8.88127e-19 -0.000993874)
(2.58848e-20 -8.91012e-19 -0.00112471)
(2.26211e-21 -5.34965e-21 -0.00127075)
(-9.67405e-21 -9.03456e-23 -0.00143391)
(1.47237e-20 -1.34625e-20 -0.00161641)
(-4.78162e-21 1.22617e-22 -0.00182086)
(-5.24805e-21 -6.47512e-23 -0.00205047)
(5.00004e-21 1.94301e-22 -0.00230922)
(-3.71321e-21 1.45712e-21 -0.0026024)
(6.37304e-20 -7.85978e-19 -0.00293733)
(-5.78587e-20 8.08299e-19 -0.00332475)
(-1.59636e-20 2.22565e-22 -0.00378133)
(1.86076e-20 -1.02734e-20 -0.00433408)
(-9.9352e-20 7.20722e-19 -0.00502811)
(1.15704e-19 -7.23881e-19 -0.00593994)
(-2.24925e-20 2.17825e-21 -0.00719935)
(1.58989e-20 -9.25364e-23 -0.00902398)
(3.7797e-20 6.34186e-21 -0.0117708)
(-2.46529e-19 5.39651e-19 -0.0160082)
(3.66108e-19 -1.09366e-18 -0.0226078)
(-1.78729e-19 5.54017e-19 -0.0328502)
(2.58696e-19 -4.23525e-19 -0.048525)
(-2.50486e-19 4.98884e-19 -0.0719908)
(-5.82045e-19 5.1417e-19 -0.106136)
(1.09839e-18 -1.08941e-18 -0.154122)
(-5.37423e-19 5.49997e-19 -0.218656)
(1.85573e-20 -2.1164e-21 -0.300454)
(4.46542e-21 -3.45709e-20 -0.378533)
(4.13824e-21 3.68125e-21 -0.000663936)
(-5.54514e-21 4.51392e-19 -0.000764596)
(2.03894e-20 -4.88434e-19 -0.000876816)
(6.27374e-21 2.67586e-20 -0.00100199)
(-4.61049e-20 9.3043e-19 -0.00114173)
(2.95878e-20 -9.33006e-19 -0.00129787)
(1.00765e-20 2.24908e-20 -0.00147248)
(-1.78897e-20 -2.31223e-22 -0.00166792)
(1.17063e-20 9.55434e-21 -0.00188686)
(-3.95147e-20 8.93579e-19 -0.0021324)
(3.27572e-20 -8.85123e-19 -0.0024081)
(2.81277e-21 9.53937e-21 -0.0027182)
(9.42326e-21 2.7108e-20 -0.00306775)
(-1.14077e-20 -5.44872e-22 -0.00346304)
(1.18733e-21 -1.29579e-20 -0.00391213)
(-3.70086e-20 1.31542e-20 -0.00442587)
(3.4774e-20 1.25277e-20 -0.00501973)
(-3.06212e-21 -2.50576e-20 -0.00571696)
(8.34504e-20 -7.34568e-19 -0.00655441)
(-7.46321e-20 7.57175e-19 -0.00759262)
(2.7076e-19 -1.45587e-18 -0.00893329)
(-2.48581e-19 1.46997e-18 -0.0107482)
(3.07174e-19 -1.37432e-18 -0.0133248)
(7.06617e-20 1.31328e-19 -0.0171351)
(-3.52645e-19 1.30877e-18 -0.0229311)
(-1.19435e-19 -2.19341e-20 -0.0318687)
(1.62595e-20 3.83609e-22 -0.0456517)
(-1.80924e-20 5.55733e-22 -0.066679)
(5.34584e-20 1.64259e-21 -0.0981624)
(2.56846e-20 1.33999e-20 -0.144161)
(-1.11578e-19 5.06009e-21 -0.209377)
(6.35663e-20 4.90282e-21 -0.298203)
(-1.62766e-22 -3.05583e-22 -0.411845)
(3.5567e-20 6.28125e-22 -0.503634)
(-3.25957e-21 6.53692e-21 -0.000956089)
(3.888e-20 -9.50427e-19 -0.0010991)
(3.03698e-20 -9.12335e-19 -0.00125903)
(6.56778e-21 2.11644e-20 -0.001438)
(-2.75278e-20 9.47417e-19 -0.00163849)
(-1.99416e-20 -8.00448e-21 -0.00186332)
(1.21765e-20 8.86574e-21 -0.0021157)
(-5.17005e-20 9.16811e-19 -0.00239929)
(4.22418e-20 -9.31187e-19 -0.00271831)
(7.37542e-20 -8.94244e-19 -0.00307763)
(-7.49741e-20 9.23596e-19 -0.0034829)
(1.49324e-20 -1.98317e-20 -0.00394076)
(6.90667e-20 -8.90859e-19 -0.00445916)
(-9.65699e-20 9.13524e-19 -0.00504774)
(4.334e-21 1.2227e-20 -0.00571864)
(-2.09651e-19 1.6718e-18 -0.00648768)
(1.90041e-19 -1.73435e-18 -0.00737653)
(4.7989e-20 6.14764e-20 -0.00841662)
(-2.69581e-19 1.58083e-18 -0.00965606)
(2.47562e-19 -1.6482e-18 -0.0111719)
(-3.12369e-20 -3.24235e-21 -0.0130917)
(4.71997e-19 -1.48444e-18 -0.015629)
(-4.42078e-19 1.53294e-18 -0.0191408)
(-6.54224e-20 -7.16691e-20 -0.0242144)
(6.75422e-19 -1.29363e-18 -0.0317895)
(-1.18904e-18 2.66669e-18 -0.0433195)
(-6.43156e-20 -1.54406e-19 -0.0609634)
(-8.61363e-20 -1.21259e-19 -0.0877986)
(7.63914e-19 -1.15892e-18 -0.128046)
(3.90039e-20 6.21948e-20 -0.187323)
(-8.57666e-19 7.66041e-19 -0.272941)
(8.40857e-19 -8.42609e-19 -0.393692)
(8.89216e-21 2.86142e-20 -0.555883)
(9.1589e-21 -2.6817e-21 -0.667077)
(-1.62406e-21 -2.01913e-20 -0.0012996)
(2.81942e-20 -9.88555e-19 -0.00148667)
(-5.34413e-21 -7.71633e-21 -0.00169554)
(-1.69052e-22 1.18287e-22 -0.00192886)
(1.13521e-20 8.36692e-21 -0.00218965)
(-5.39322e-20 9.5054e-19 -0.00248136)
(4.82469e-20 -9.70868e-19 -0.00280783)
(1.2673e-20 8.27229e-21 -0.00317345)
(-8.61587e-21 -1.48739e-20 -0.00358311)
(-6.12319e-21 9.82641e-21 -0.00404235)
(-7.55685e-20 9.16818e-19 -0.00455742)
(1.62259e-19 -1.87003e-18 -0.00513544)
(-7.71133e-20 9.7492e-19 -0.00578451)
(-1.95144e-19 1.80634e-18 -0.00651408)
(-3.04089e-20 -4.56355e-20 -0.00733541)
(2.3841e-21 -2.68058e-20 -0.00826254)
(-6.57178e-20 -5.39265e-20 -0.00931407)
(2.62375e-19 -1.80363e-18 -0.0105167)
(4.0123e-19 -1.6689e-18 -0.0119116)
(-3.58887e-19 1.75136e-18 -0.0135674)
(-3.36249e-20 -5.43951e-20 -0.015602)
(4.74406e-19 -1.59401e-18 -0.0182226)
(-4.1928e-19 1.68805e-18 -0.0217905)
(-6.66611e-19 1.49829e-18 -0.0269242)
(5.67674e-19 -1.58214e-18 -0.0346511)
(7.73944e-20 -1.10612e-20 -0.0466138)
(8.62288e-19 -1.39549e-18 -0.0653304)
(1.18241e-19 1.21779e-19 -0.0944997)
(-9.94383e-19 1.36581e-18 -0.13936)
(-1.60294e-20 -3.91024e-20 -0.207177)
(3.31582e-20 5.20695e-22 -0.308573)
(-3.33503e-20 1.56187e-20 -0.462348)
(-5.04207e-19 5.2733e-19 -0.704872)
(4.95473e-19 -5.36596e-19 -0.967064)
(-1.07156e-20 -3.1622e-21 0.0097949)
(-1.0698e-20 -3.93567e-22 0.00525284)
(1.00278e-20 9.96095e-21 0.00141035)
(-6.92004e-21 2.34825e-21 -0.001801)
(7.44433e-21 -1.18294e-20 -0.00445675)
(6.19608e-23 3.53122e-21 -0.00663461)
(-1.73093e-22 -9.77398e-23 -0.00840767)
(-5.62555e-21 1.23036e-23 -0.00983766)
(5.46898e-21 -1.19612e-23 -0.0109744)
(-1.63989e-22 3.5866e-25 -0.0118613)
(-1.58104e-22 3.4579e-25 -0.0125342)
(4.70682e-21 -1.02943e-23 -0.0130215)
(-4.72195e-21 1.03274e-23 -0.0133466)
(-4.24711e-21 9.28886e-24 -0.0135307)
(2.98019e-22 -9.99049e-22 -0.0135917)
(6.24017e-21 5.85622e-21 -0.0135448)
(-2.24501e-21 -3.50752e-21 -0.0134041)
(-7.0473e-23 -9.40475e-22 -0.0131823)
(-2.60936e-23 7.21545e-22 -0.0128912)
(-2.3224e-21 -1.68796e-20 -0.0125411)
(2.36026e-21 1.60181e-20 -0.0121408)
(-1.6559e-21 -2.05738e-20 -0.0116984)
(-1.54197e-20 2.53636e-20 0.028378)
(3.1068e-20 -9.76419e-21 0.0148635)
(-2.51091e-20 -2.21275e-20 0.00333928)
(8.59534e-21 2.28456e-20 -0.00621396)
(-8.98231e-21 -2.23634e-20 -0.0140574)
(-1.26948e-20 6.15458e-21 -0.0204512)
(1.12987e-20 6.80542e-21 -0.0256305)
(1.11207e-20 1.62223e-20 -0.0297897)
(1.99405e-21 -2.78586e-20 -0.0330831)
(-2.26286e-20 6.67713e-21 -0.0356403)
(2.15292e-20 -5.05752e-21 -0.0375683)
(-9.93325e-22 -1.89935e-21 -0.0389519)
(-1.12104e-20 1.6599e-20 -0.0398604)
(-1.25168e-20 -1.27679e-20 -0.0403564)
(8.11221e-21 -1.75145e-20 -0.0404925)
(1.31039e-20 1.63139e-20 -0.040313)
(-7.55805e-21 4.04283e-21 -0.0398598)
(-5.10613e-22 -1.50925e-21 -0.0391704)
(1.28417e-23 -1.14425e-22 -0.0382788)
(6.72706e-22 -1.47127e-24 -0.0372159)
(1.92603e-21 3.00683e-23 -0.0360081)
(-2.03579e-21 -3.38426e-21 -0.0346785)
(-1.39679e-20 -1.08392e-21 0.043915)
(-1.43594e-20 -1.57029e-20 0.0216089)
(3.65124e-20 2.9772e-20 0.00243118)
(-4.38831e-20 -1.25624e-20 -0.0131815)
(1.80812e-20 1.21341e-20 -0.0258029)
(2.50449e-20 1.99505e-20 -0.0359658)
(-1.62488e-20 -5.8993e-20 -0.0441155)
(1.98429e-20 -1.63492e-20 -0.0506027)
(-3.0644e-20 4.1011e-20 -0.0556975)
(-1.49709e-20 1.53427e-20 -0.059613)
(4.97828e-20 -3.31591e-20 -0.062524)
(-3.58714e-20 2.81814e-20 -0.0645711)
(6.66748e-21 -1.12366e-20 -0.0658676)
(-3.34721e-21 -9.10266e-21 -0.0665104)
(5.8671e-20 5.58421e-20 -0.0665829)
(-3.83045e-21 3.4945e-20 -0.0661587)
(-5.22992e-20 -7.28159e-20 -0.065304)
(1.07578e-20 -4.85271e-21 -0.0640782)
(-7.27029e-21 2.7148e-22 -0.0625357)
(3.82676e-22 -2.73079e-21 -0.0607253)
(3.39295e-20 9.64377e-20 -0.0586897)
(-3.392e-20 -8.56805e-20 -0.0564662)
(1.95983e-21 2.66835e-20 0.0535255)
(8.62284e-21 -5.44184e-20 0.0228003)
(-7.36738e-20 1.55262e-20 -0.00379053)
(1.19868e-19 8.23918e-20 -0.0248074)
(-3.03193e-20 -1.113e-19 -0.0413849)
(-1.35048e-20 2.46943e-20 -0.0544804)
(-1.73052e-21 1.75488e-20 -0.0648215)
(-6.78713e-21 5.68337e-21 -0.0729385)
(-2.86355e-20 3.95991e-21 -0.0792251)
(7.4187e-20 -2.28341e-20 -0.0839737)
(-2.63913e-20 1.285e-20 -0.0874197)
(-1.3385e-20 6.47252e-22 -0.0897494)
(1.92195e-20 1.01715e-20 -0.0911123)
(-8.1133e-20 -8.00682e-20 -0.091633)
(6.4685e-20 5.84867e-20 -0.0914222)
(-9.84865e-21 1.28208e-20 -0.0905764)
(8.92238e-21 -8.73429e-21 -0.0891805)
(8.27312e-20 1.5706e-19 -0.0873117)
(-8.68613e-20 -1.41818e-19 -0.0850405)
(4.26036e-22 -1.05564e-20 -0.0824303)
(-2.62072e-21 -9.26495e-23 -0.0795386)
(2.78121e-21 4.91195e-22 -0.076412)
(2.71989e-20 9.62772e-23 0.0533253)
(3.37504e-22 4.00757e-22 0.0145975)
(-6.14213e-20 4.51539e-22 -0.0186218)
(9.08936e-20 -2.8506e-22 -0.0437009)
(-2.71951e-20 1.59535e-23 -0.0627839)
(-4.35673e-20 -8.38891e-22 -0.0774554)
(1.41841e-20 9.06553e-23 -0.088801)
(-1.15557e-20 -1.67209e-22 -0.0975268)
(9.34431e-20 -2.55784e-20 -0.104128)
(3.47538e-20 1.02018e-19 -0.108974)
(5.44517e-22 7.34487e-20 -0.112336)
(-6.47828e-20 -1.52665e-19 -0.114429)
(1.14514e-19 1.87965e-19 -0.115426)
(-1.33173e-19 -1.79079e-19 -0.115472)
(6.10029e-20 1.20788e-19 -0.114692)
(-7.25579e-20 -1.27073e-19 -0.113195)
(5.23698e-21 -6.72397e-21 -0.11108)
(-2.62819e-20 -2.1501e-21 -0.108435)
(2.29831e-20 -3.91773e-21 -0.10534)
(1.65515e-21 3.12736e-21 -0.10187)
(6.6078e-21 2.46895e-22 -0.0980885)
(-1.03196e-20 -8.57341e-21 -0.0940554)
(-1.24364e-21 4.2297e-21 -0.0898199)
(-8.13052e-20 -3.47014e-22 0.039578)
(2.4246e-20 3.13566e-20 -0.00852771)
(8.40656e-20 -3.8407e-20 -0.0464168)
(-4.33782e-20 -2.46404e-20 -0.0729364)
(-3.79447e-20 5.97944e-20 -0.0921445)
(4.62224e-20 -8.39766e-20 -0.106381)
(-8.5323e-21 -5.80628e-20 -0.117063)
(-3.02982e-20 -7.94275e-20 -0.125049)
(9.62994e-20 3.38393e-19 -0.130861)
(-1.55393e-19 -1.16332e-19 -0.134882)
(6.06749e-20 -4.58069e-20 -0.137394)
(1.87118e-19 2.89686e-19 -0.13862)
(-2.07435e-19 -2.40772e-19 -0.138735)
(2.41726e-20 -3.30511e-21 -0.137887)
(-1.87771e-19 -3.94557e-19 -0.136202)
(2.084e-19 3.56983e-19 -0.133792)
(-3.93825e-20 3.30491e-20 -0.130757)
(-2.52042e-19 -5.12006e-19 -0.127188)
(2.70646e-19 4.82284e-19 -0.123168)
(-5.22935e-21 5.15598e-21 -0.118775)
(1.60905e-19 3.19407e-19 -0.114078)
(-1.3745e-19 -2.96439e-19 -0.109137)
(-9.00766e-21 -1.06284e-20 -0.104004)
(-7.86073e-21 2.28066e-20 0.00950736)
(3.58425e-20 -6.05887e-20 -0.0489617)
(4.57635e-21 3.7604e-20 -0.0826664)
(-3.67045e-20 -3.89333e-22 -0.104352)
(2.36378e-20 -2.96091e-20 -0.119621)
(4.30677e-20 1.84579e-19 -0.130621)
(-2.08764e-20 9.80452e-20 -0.138685)
(-3.70395e-20 -2.23588e-19 -0.144544)
(-5.78351e-20 -1.19438e-21 -0.148572)
(-7.32948e-20 -3.54919e-19 -0.1511)
(1.5318e-19 2.74608e-19 -0.152372)
(1.1702e-19 4.49673e-19 -0.152559)
(-1.65335e-19 -3.73531e-19 -0.151797)
(2.77647e-20 -4.48959e-20 -0.150197)
(2.60023e-19 5.29282e-19 -0.147857)
(-2.93845e-19 -4.67636e-19 -0.144866)
(-2.7719e-19 -6.0736e-19 -0.141304)
(1.06946e-20 -6.14117e-20 -0.137248)
(-3.39799e-20 -4.28636e-20 -0.132768)
(-4.77432e-21 -5.19445e-20 -0.127934)
(3.27882e-19 6.99205e-19 -0.122808)
(1.68395e-19 4.15398e-19 -0.117448)
(-3.60523e-19 -7.98334e-19 -0.111898)
(7.46363e-20 9.76156e-20 -0.0438502)
(-4.19903e-20 -0 -0.0720756)
(2.94262e-22 -0 -0.0898147)
(0 -0 -0.102787)
(-2.71415e-22 -0 -0.112924)
(-3.32226e-20 -0 -0.121058)
(1.03181e-21 -0 -0.127474)
(3.2425e-20 -0 -0.132276)
(-2.35704e-22 -0 -0.135661)
(2.88092e-20 -0 -0.137805)
(-2.84721e-20 -0 -0.138843)
(-2.63464e-20 -0 -0.138895)
(2.62366e-20 -0 -0.138068)
(0 -0 -0.136462)
(-2.23922e-20 -0 -0.134169)
(2.22984e-20 -0 -0.131272)
(1.9646e-20 -0 -0.127852)
(-1.29726e-21 -0 -0.123982)
(-1.29438e-21 -0 -0.119732)
(-1.40552e-21 -0 -0.115168)
(-1.54759e-20 -0 -0.110352)
(-6.36023e-21 -0 -0.105335)
(1.22765e-20 -0 -0.100163)
(5.81566e-21 -0 -0.0948817)
(0 -5.52368e-20 -0.1276)
(0 -0 -0.126724)
(0 -0 -0.130697)
(0 -0 -0.135532)
(0 -0 -0.140107)
(0 -0 -0.144138)
(0 -0 -0.147462)
(0 -0 -0.149964)
(0 -0 -0.15162)
(0 -0 -0.152445)
(0 -0 -0.152466)
(0 -0 -0.151723)
(0 -0 -0.150264)
(0 -0 -0.14814)
(0 -0 -0.145406)
(0 -0 -0.14212)
(0 -0 -0.13834)
(0 -0 -0.134122)
(0 -0 -0.129527)
(0 -0 -0.124611)
(0 -0 -0.119431)
(0 -0 -0.114037)
(0 -0 -0.108473)
(0 4.3481e-22 -0.18824)
(0 -0 -0.176175)
(0 -0 -0.171011)
(0 -0 -0.16903)
(0 -0 -0.16843)
(0 -0 -0.168444)
(0 -0 -0.168608)
(0 -0 -0.16862)
(0 -0 -0.168294)
(0 -0 -0.167524)
(0 -0 -0.166248)
(0 -0 -0.164436)
(0 -0 -0.162082)
(0 -0 -0.159197)
(0 -0 -0.155802)
(0 -0 -0.151929)
(0 -0 -0.147617)
(0 -0 -0.142908)
(0 -0 -0.13785)
(0 -0 -0.132492)
(0 -0 -0.126884)
(0 -0 -0.121074)
(0 -0 -0.115101)
(0 -0 -0.231101)
(0 -0 -0.2146)
(0 -0 -0.204269)
(0 -0 -0.197541)
(0 -0 -0.192849)
(0 -0 -0.189425)
(0 -0 -0.186733)
(0 -0 -0.184383)
(0 -0 -0.182106)
(0 -0 -0.179719)
(0 -0 -0.177096)
(0 -0 -0.174159)
(0 -0 -0.170857)
(0 -0 -0.167167)
(0 -0 -0.163084)
(0 -0 -0.158614)
(0 -0 -0.153779)
(0 -0 -0.148608)
(0 -0 -0.143134)
(0 -0 -0.137398)
(0 -0 -0.131444)
(0 -0 -0.125314)
(0 -0 -0.119045)
(0 -4.1071e-22 -0.257933)
(0 -0 -0.240555)
(0 -0 -0.228017)
(0 -0 -0.218628)
(0 -0 -0.211251)
(0 -0 -0.205323)
(0 -0 -0.200391)
(0 -0 -0.196083)
(0 -0 -0.192117)
(0 -0 -0.188282)
(0 -0 -0.184427)
(0 -0 -0.180441)
(0 -0 -0.176251)
(0 -0 -0.171807)
(0 -0 -0.167084)
(0 -0 -0.162073)
(0 -0 -0.156778)
(0 -0 -0.151214)
(0 -0 -0.145406)
(0 -0 -0.139385)
(0 -0 -0.133187)
(0 -0 -0.126849)
(0 -0 -0.120401)
(0 -5.00421e-20 -0.269897)
(0 -0 -0.253774)
(0 -0 -0.241124)
(0 -0 -0.230844)
(0 -0 -0.222185)
(0 -0 -0.21482)
(0 -0 -0.208446)
(0 -0 -0.202773)
(0 -0 -0.197558)
(0 -0 -0.192608)
(0 -0 -0.187775)
(0 -0 -0.182942)
(0 -0 -0.178027)
(0 -0 -0.172969)
(0 -0 -0.167732)
(0 -0 -0.162295)
(0 -0 -0.156652)
(0 -0 -0.150809)
(0 -0 -0.144782)
(0 -0 -0.138593)
(0 -0 -0.132271)
(0 -0 -0.125846)
(0 -0 -0.119347)
(0 5.02077e-20 -0.268596)
(0 -0 -0.254958)
(0 -0 -0.24359)
(0 -0 -0.233761)
(0 -0 -0.225023)
(0 -0 -0.217239)
(0 -0 -0.210257)
(0 -0 -0.203892)
(0 -0 -0.19797)
(0 -0 -0.192342)
(0 -0 -0.186884)
(0 -0 -0.181497)
(0 -0 -0.176101)
(0 -0 -0.170641)
(0 -0 -0.165075)
(0 -0 -0.159379)
(0 -0 -0.153544)
(0 -0 -0.147567)
(0 -0 -0.14146)
(0 -0 -0.135238)
(0 -0 -0.128925)
(0 -0 -0.122546)
(0 -0 -0.116122)
(0 3.53786e-22 -0.256256)
(0 -0 -0.245664)
(0 -0 -0.236388)
(0 -0 -0.227906)
(0 -0 -0.219988)
(0 -0 -0.212625)
(0 -0 -0.205781)
(0 -0 -0.19937)
(0 -0 -0.193293)
(0 -0 -0.187455)
(0 -0 -0.181771)
(0 -0 -0.176168)
(0 -0 -0.170584)
(0 -0 -0.164973)
(0 -0 -0.159301)
(0 -0 -0.153547)
(0 -0 -0.147698)
(0 -0 -0.141754)
(0 -0 -0.135721)
(0 -0 -0.129612)
(0 -0 -0.123445)
(0 -0 -0.117242)
(0 -0 -0.111021)
(0 -3.31102e-22 -0.235555)
(0 -0 -0.228079)
(0 -0 -0.221231)
(0 -0 -0.214583)
(0 -0 -0.208049)
(0 -0 -0.201697)
(0 -0 -0.195565)
(0 -0 -0.189643)
(0 -0 -0.183895)
(0 -0 -0.17828)
(0 -0 -0.172752)
(0 -0 -0.167269)
(0 -0 -0.161793)
(0 -0 -0.156293)
(0 -0 -0.150747)
(0 -0 -0.145141)
(0 -0 -0.139467)
(0 -0 -0.133725)
(0 -0 -0.127921)
(0 -0 -0.122067)
(0 -0 -0.116179)
(0 -0 -0.110276)
(0 -0 -0.104373)
(0 3.94015e-20 -0.209335)
(0 -0 -0.204715)
(0 -0 -0.200272)
(0 -0 -0.195602)
(0 -0 -0.190711)
(0 -0 -0.185698)
(0 -0 -0.180642)
(0 -0 -0.175581)
(0 -0 -0.170527)
(0 -0 -0.165477)
(0 -0 -0.160423)
(0 -0 -0.15535)
(0 -0 -0.150244)
(0 -0 -0.145092)
(0 -0 -0.139885)
(0 -0 -0.134619)
(0 -0 -0.129292)
(0 -0 -0.123908)
(0 -0 -0.118476)
(0 -0 -0.113007)
(0 -0 -0.107516)
(0 -0 -0.102021)
(0 -0 -0.0965364)
(0 -3.89453e-20 -0.180317)
(0 -0 -0.178093)
(0 -0 -0.175788)
(0 -0 -0.172987)
(0 -0 -0.169747)
(0 -0 -0.166171)
(0 -0 -0.162352)
(0 -0 -0.158351)
(0 -0 -0.154209)
(0 -0 -0.14995)
(0 -0 -0.145592)
(0 -0 -0.141143)
(0 -0 -0.136608)
(0 -0 -0.131991)
(0 -0 -0.127295)
(0 -0 -0.122524)
(0 -0 -0.117686)
(0 -0 -0.112789)
(0 -0 -0.107844)
(0 -0 -0.102864)
(0 -0 -0.0978656)
(0 -0 -0.0928654)
(0 -0 -0.0878767)
(0 -3.33002e-20 -0.150858)
(0 -0 -0.150482)
(0 -0 -0.149908)
(0 -0 -0.148706)
(0 -0 -0.146948)
(0 -0 -0.144729)
(0 -0 -0.142137)
(0 -0 -0.13924)
(0 -0 -0.13609)
(0 -0 -0.132728)
(0 -0 -0.129184)
(0 -0 -0.125484)
(0 -0 -0.121645)
(0 -0 -0.117683)
(0 -0 -0.113612)
(0 -0 -0.109445)
(0 -0 -0.105194)
(0 -0 -0.100874)
(0 -0 -0.0964976)
(0 -0 -0.092081)
(0 -0 -0.0876405)
(0 -0 -0.0831934)
(0 -0 -0.0787529)
(0 3.31578e-20 -0.122807)
(0 -0 -0.123721)
(0 -0 -0.124421)
(0 -0 -0.124463)
(0 -0 -0.123916)
(0 -0 -0.122859)
(0 -0 -0.121364)
(0 -0 -0.119495)
(0 -0 -0.117304)
(0 -0 -0.114837)
(0 -0 -0.11213)
(0 -0 -0.109217)
(0 -0 -0.106121)
(0 -0 -0.102868)
(0 -0 -0.0994772)
(0 -0 -0.0959672)
(0 -0 -0.0923556)
(0 -0 -0.0886595)
(0 -0 -0.0848956)
(0 -0 -0.0810807)
(0 -0 -0.0772321)
(0 -0 -0.0733675)
(0 -0 -0.0695003)
(0 -0 -0.0974342)
(0 -0 -0.0991383)
(0 -0 -0.100668)
(0 -0 -0.101582)
(0 -0 -0.101936)
(0 -0 -0.101785)
(0 -0 -0.101187)
(0 -0 -0.100193)
(0 -0 -0.0988487)
(0 -0 -0.0971969)
(0 -0 -0.0952743)
(0 -0 -0.0931138)
(0 -0 -0.0907445)
(0 -0 -0.0881924)
(0 -0 -0.085481)
(0 -0 -0.0826319)
(0 -0 -0.0796652)
(0 -0 -0.0765998)
(0 -0 -0.0734539)
(0 -0 -0.0702453)
(0 -0 -0.0669916)
(0 -0 -0.0637105)
(0 -0 -0.0604154)
(0 -2.52254e-20 -0.0754617)
(0 -0 -0.0775422)
(0 -0 -0.0795174)
(0 -0 -0.0809629)
(0 -0 -0.0819131)
(0 -0 -0.0824052)
(0 -0 -0.0824774)
(0 -0 -0.0821678)
(0 -0 -0.0815131)
(0 -0 -0.080548)
(0 -0 -0.0793051)
(0 -0 -0.0778144)
(0 -0 -0.0761034)
(0 -0 -0.0741978)
(0 -0 -0.0721211)
(0 -0 -0.0698954)
(0 -0 -0.0675411)
(0 -0 -0.0650777)
(0 -0 -0.0625235)
(0 -0 -0.0598962)
(0 -0 -0.0572133)
(0 -0 -0.0544919)
(0 -0 -0.0517454)
(0 2.51197e-20 -0.0571397)
(0 -0 -0.0592882)
(0 -0 -0.0614079)
(0 -0 -0.0631009)
(0 -0 -0.0643835)
(0 -0 -0.0652755)
(0 -0 -0.0657994)
(0 -0 -0.0659801)
(0 -0 -0.0658436)
(0 -0 -0.065416)
(0 -0 -0.0647229)
(0 -0 -0.0637892)
(0 -0 -0.0626388)
(0 -0 -0.0612942)
(0 -0 -0.0597771)
(0 -0 -0.0581078)
(0 -0 -0.0563058)
(0 -0 -0.0543893)
(0 -0 -0.0523758)
(0 -0 -0.050282)
(0 -0 -0.0481246)
(0 -0 -0.0459198)
(0 -0 -0.0436802)
(0 2.09272e-20 -0.042365)
(0 -0 -0.0443755)
(0 -0 -0.0464265)
(0 -0 -0.048154)
(0 -0 -0.0495602)
(0 -0 -0.0506513)
(0 -0 -0.0514373)
(0 -0 -0.0519318)
(0 -0 -0.0521509)
(0 -0 -0.0521121)
(0 -0 -0.0518339)
(0 -0 -0.0513351)
(0 -0 -0.0506344)
(0 -0 -0.0497504)
(0 -0 -0.0487014)
(0 -0 -0.0475049)
(0 -0 -0.0461779)
(0 -0 -0.0447367)
(0 -0 -0.043197)
(0 -0 -0.041574)
(0 -0 -0.0398827)
(0 -0 -0.038138)
(0 -0 -0.0363516)
(0 -2.08401e-20 -0.0308026)
(0 -0 -0.0325576)
(0 -0 -0.0344076)
(0 -0 -0.0360265)
(0 -0 -0.0374069)
(0 -0 -0.0385456)
(0 -0 -0.0394437)
(0 -0 -0.0401062)
(0 -0 -0.040541)
(0 -0 -0.0407583)
(0 -0 -0.0407698)
(0 -0 -0.0405884)
(0 -0 -0.0402279)
(0 -0 -0.0397022)
(0 -0 -0.0390256)
(0 -0 -0.0382124)
(0 -0 -0.0372766)
(0 -0 -0.0362319)
(0 -0 -0.0350917)
(0 -0 -0.033869)
(0 -0 -0.0325771)
(0 -0 -0.0312291)
(0 -0 -0.0298353)
(0 -0 -0.0219953)
(0 -0 -0.0234457)
(0 -0 -0.0250285)
(0 -0 -0.0264562)
(0 -0 -0.027716)
(0 -0 -0.0287993)
(0 -0 -0.0297014)
(0 -0 -0.0304215)
(0 -0 -0.0309616)
(0 -0 -0.0313258)
(0 -0 -0.0315206)
(0 -0 -0.0315538)
(0 -0 -0.0314344)
(0 -0 -0.0311721)
(0 -0 -0.0307774)
(0 -0 -0.0302611)
(0 -0 -0.0296342)
(0 -0 -0.0289074)
(0 -0 -0.0280918)
(0 -0 -0.0271981)
(0 -0 -0.0262374)
(0 -0 -0.0252209)
(0 -0 -0.0241576)
(0 -0 -0.0154481)
(0 -0 -0.0165929)
(0 -0 -0.0178908)
(0 -0 -0.0190917)
(0 -0 -0.0201811)
(0 -0 -0.0211479)
(0 -0 -0.0219844)
(0 -0 -0.0226861)
(0 -0 -0.023251)
(0 -0 -0.0236795)
(0 -0 -0.0239738)
(0 -0 -0.0241376)
(0 -0 -0.0241762)
(0 -0 -0.0240958)
(0 -0 -0.0239034)
(0 -0 -0.0236065)
(0 -0 -0.0232133)
(0 -0 -0.0227319)
(0 -0 -0.0221708)
(0 -0 -0.0215385)
(0 -0 -0.020844)
(0 -0 -0.0200966)
(0 -0 -0.0193037)
(0 -1.16581e-22 -0.0106872)
(0 -0 -0.0115542)
(0 -0 -0.0125814)
(0 -0 -0.0135534)
(0 -0 -0.0144561)
(0 -0 -0.015278)
(0 -0 -0.0160104)
(0 -0 -0.0166472)
(0 -0 -0.0171841)
(0 -0 -0.0176191)
(0 -0 -0.0179515)
(0 -0 -0.0181823)
(0 -0 -0.0183139)
(0 -0 -0.0183495)
(0 -0 -0.0182934)
(0 -0 -0.0181506)
(0 -0 -0.0179265)
(0 -0 -0.0176271)
(0 -0 -0.0172586)
(0 -0 -0.0168273)
(0 -0 -0.0163404)
(0 -0 -0.0158053)
(0 -0 -0.0152279)
(0 -6.76282e-21 -0.00729348)
(0 -0 -0.00792498)
(0 -0 -0.00871357)
(0 -0 -0.00947507)
(0 -0 -0.010197)
(0 -0 -0.0108689)
(0 -0 -0.0114823)
(0 -0 -0.0120308)
(0 -0 -0.0125094)
(0 -0 -0.0129143)
(0 -0 -0.0132436)
(0 -0 -0.0134964)
(0 -0 -0.013673)
(0 -0 -0.0137746)
(0 -0 -0.0138035)
(0 -0 -0.0137624)
(0 -0 -0.013655)
(0 -0 -0.0134851)
(0 -0 -0.0132569)
(0 -0 -0.0129753)
(0 -0 -0.0126454)
(0 -0 -0.0122731)
(0 -0 -0.011863)
(0 1.29687e-20 -0.00491739)
(0 -0 -0.00535952)
(0 -0 -0.00594903)
(0 -0 -0.00652897)
(0 -0 -0.00708916)
(0 -0 -0.00762071)
(0 -0 -0.00811628)
(0 -0 -0.00856978)
(0 -0 -0.00897616)
(0 -0 -0.00933145)
(0 -0 -0.00963278)
(0 -0 -0.00987828)
(0 -0 -0.010067)
(0 -0 -0.010199)
(0 -0 -0.0102749)
(0 -0 -0.010296)
(0 -0 -0.0102643)
(0 -0 -0.0101823)
(0 -0 -0.0100526)
(0 -0 -0.00987845)
(0 -0 -0.00966373)
(0 -0 -0.00941293)
(0 -0 -0.00912939)
(0 -6.20807e-21 -0.00328031)
(0 -0 -0.00357682)
(0 -0 -0.00400719)
(0 -0 -0.004438)
(0 -0 -0.00486138)
(0 -0 -0.00527022)
(0 -0 -0.00565848)
(0 -0 -0.00602097)
(0 -0 -0.00635312)
(0 -0 -0.00665112)
(0 -0 -0.00691195)
(0 -0 -0.00713332)
(0 -0 -0.00731371)
(0 -0 -0.00745226)
(0 -0 -0.00754874)
(0 -0 -0.00760349)
(0 -0 -0.00761735)
(0 -0 -0.0075916)
(0 -0 -0.00752787)
(0 -0 -0.00742824)
(0 -0 -0.00729535)
(0 -0 -0.00713262)
(0 -0 -0.00694236)
(0 -0 -0.00216839)
(0 -0 -0.00235721)
(0 -0 -0.00266477)
(0 -0 -0.00297776)
(0 -0 -0.00329035)
(0 -0 -0.0035971)
(0 -0 -0.00389332)
(0 -0 -0.00417484)
(0 -0 -0.00443781)
(0 -0 -0.0046789)
(0 -0 -0.0048953)
(0 -0 -0.0050847)
(0 -0 -0.00524536)
(0 -0 -0.00537605)
(0 -0 -0.00547603)
(0 -0 -0.005545)
(0 -0 -0.0055831)
(0 -0 -0.00559081)
(0 -0 -0.00556897)
(0 -0 -0.0055188)
(0 -0 -0.00544207)
(0 -0 -0.0053413)
(0 -0 -0.00521801)
(0 -7.80858e-23 -0.00142253)
(0 -0 -0.00153457)
(0 -0 -0.00175011)
(0 -0 -0.00197295)
(0 -0 -0.00219894)
(0 -0 -0.00242408)
(0 -0 -0.00264484)
(0 -0 -0.00285803)
(0 -0 -0.00306064)
(0 -0 -0.00324989)
(0 -0 -0.00342337)
(0 -0 -0.003579)
(0 -0 -0.00371509)
(0 -0 -0.0038303)
(0 -0 -0.00392366)
(0 -0 -0.00399456)
(0 -0 -0.0040427)
(0 -0 -0.00406808)
(0 -0 -0.00407098)
(0 -0 -0.00405202)
(0 -0 -0.00401235)
(0 -0 -0.00395378)
(0 -0 -0.00387723)
(0 -0 -0.000927498)
(0 -0 -0.000986729)
(0 -0 -0.00113504)
(0 -0 -0.00129076)
(0 -0 -0.00145104)
(0 -0 -0.001613)
(0 -0 -0.00177409)
(0 -0 -0.00193199)
(0 -0 -0.00208439)
(0 -0 -0.00222914)
(0 -0 -0.00236427)
(0 -0 -0.00248802)
(0 -0 -0.00259891)
(0 -0 -0.00269567)
(0 -0 -0.0027773)
(0 -0 -0.00284305)
(0 -0 -0.00289241)
(0 -0 -0.00292509)
(0 -0 -0.00294105)
(0 -0 -0.00294049)
(0 -0 -0.00292414)
(0 -0 -0.00289331)
(0 -0 -0.00284842)
(0 4.23797e-21 -0.000601739)
(0 -0 -0.000625985)
(0 -0 -0.000726223)
(0 -0 -0.000833124)
(0 -0 -0.000944795)
(0 -0 -0.00105919)
(0 -0 -0.00117452)
(0 -0 -0.00128913)
(0 -0 -0.00140135)
(0 -0 -0.00150954)
(0 -0 -0.0016122)
(0 -0 -0.00170792)
(0 -0 -0.00179546)
(0 -0 -0.00187373)
(0 -0 -0.0019418)
(0 -0 -0.00199893)
(0 -0 -0.00204453)
(0 -0 -0.00207818)
(0 -0 -0.00209964)
(0 -0 -0.00210888)
(0 -0 -0.00210632)
(0 -0 -0.00209296)
(0 -0 -0.00206884)
(0 -8.1552e-21 -0.000388758)
(0 -0 -0.000390578)
(0 -0 -0.000457091)
(0 -0 -0.00052925)
(0 -0 -0.000605788)
(0 -0 -0.000685247)
(0 -0 -0.000766372)
(0 -0 -0.000848037)
(0 -0 -0.000929056)
(0 -0 -0.00100826)
(0 -0 -0.00108453)
(0 -0 -0.00115679)
(0 -0 -0.00122406)
(0 -0 -0.00128545)
(0 -0 -0.00134018)
(0 -0 -0.00138756)
(0 -0 -0.00142703)
(0 -0 -0.00145812)
(0 -0 -0.0014805)
(0 -0 -0.00149402)
(0 -0 -0.00149892)
(0 -0 -0.00149604)
(0 -0 -0.00148534)
(0 3.91848e-21 -0.000250387)
(0 -0 -0.000238749)
(0 -0 -0.000281167)
(0 -0 -0.000329309)
(0 -0 -0.000381069)
(0 -0 -0.000435451)
(0 -0 -0.000491603)
(0 -0 -0.0005488)
(0 -0 -0.000606243)
(0 -0 -0.000663126)
(0 -0 -0.00071865)
(0 -0 -0.000772037)
(0 -0 -0.000822546)
(0 -0 -0.000869485)
(0 -0 -0.000912215)
(0 -0 -0.000950163)
(0 -0 -0.000982817)
(0 -0 -0.00100974)
(0 -0 -0.00103056)
(0 -0 -0.00104508)
(0 -0 -0.00105346)
(0 -0 -0.00105642)
(0 -0 -0.00105433)
(0 -0 -0.000160546)
(0 -0 -0.000142679)
(0 -0 -0.000169494)
(0 -0 -0.000199519)
(0 -0 -0.000234381)
(0 -0 -0.000271194)
(0 -0 -0.000309543)
(0 -0 -0.000349025)
(0 -0 -0.000389143)
(0 -0 -0.000429367)
(0 -0 -0.000469153)
(0 -0 -0.000507957)
(0 -0 -0.000545241)
(0 -0 -0.000580487)
(0 -0 -0.0006132)
(0 -0 -0.000642916)
(0 -0 -0.000669202)
(0 -0 -0.000691662)
(0 -0 -0.000709951)
(0 -0 -0.000723837)
(0 -0 -0.000733414)
(0 -0 -0.000739331)
(0 -0 -0.000741948)
(0 -0 -8.27583e-05)
(0 -0 -9.998e-05)
(0 -0 -0.000119495)
(0 -0 -0.000141322)
(0 -0 -0.000165983)
(0 -0 -0.000191912)
(0 -0 -0.00021892)
(0 -0 -0.000246711)
(0 -0 -0.000274946)
(0 -0 -0.000303264)
(0 -0 -0.000331294)
(0 -0 -0.000358658)
(0 -0 -0.00038498)
(0 -0 -0.000409889)
(0 -0 -0.000433019)
(0 -0 -0.000454018)
(0 -0 -0.000472541)
(0 -0 -0.000488273)
(0 -0 -0.000500979)
(0 -0 -0.000510676)
(0 -0 -0.00051787)
(0 -0 -0.000522485)
(-5.48565e-21 -2.09985e-20 -0.541354)
(4.71516e-20 -2.9884e-20 -0.463636)
(1.72464e-22 -2.50562e-20 -0.387359)
(4.93269e-20 5.66207e-21 -0.312292)
(-3.54584e-22 4.97246e-20 -0.237254)
(-8.83404e-22 -1.06508e-19 -0.160976)
(8.86844e-20 4.25452e-20 -0.0894549)
(1.42209e-20 -1.3595e-19 -0.521969)
(-4.31224e-20 4.54256e-19 -0.463959)
(-3.33835e-20 -3.53789e-19 -0.404797)
(-9.48863e-20 1.51752e-20 -0.34461)
(3.89402e-22 -2.065e-22 -0.283892)