/*--------------------------------*- C++ -*----------------------------------*\
| =========                 |                                                 |
| \\      /  F ield         | OpenFOAM: The Open Source CFD Toolbox           |
|  \\    /   O peration     | Version:  2412                                  |
|   \\  /    A nd           | Website:  www.openfoam.com                      |
|    \\/     M anipulation  |                                                 |
\*---------------------------------------------------------------------------*/
FoamFile
{
    version     2.0;
    format      ascii;
    arch        "LSB;label=32;scalar=64";
    class       volScalarField;
    location    "25.5";
    object      p;
}
// * * * * * * * * * * * * * * * * * * * * * * * * * * * * * * * * * * * * * //

dimensions      [0 2 -2 0 0 0 0];

internalField   nonuniform List<scalar> 
63420
(
0.00091875
0.000919012
0.000919843
0.000921127
0.000922847
0.000924989
0.000927536
0.000930475
0.000933794
0.000937484
0.000941535
0.000945941
0.000950695
0.000955791
0.000961226
0.000966994
0.000973092
0.000979516
0.000986265
0.000993335
0.00100073
0.00100844
0.00101647
0.00102482
0.0010335
0.00104251
0.00105184
0.00106151
0.00107151
0.00108185
0.00109253
0.00110355
0.00111493
0.00112666
0.00113874
0.00115119
0.00116399
0.00117717
0.00119071
0.00120463
0.00121893
0.00123361
0.00124868
0.00126413
0.00127999
0.00129624
0.00131289
0.00132995
0.00134742
0.00136531
0.00138362
0.00140236
0.00142152
0.00144112
0.00146115
0.00091869
0.000918952
0.000919782
0.000921065
0.000922784
0.000924924
0.000927469
0.000930406
0.000933723
0.00093741
0.000941458
0.000945861
0.000950611
0.000955703
0.000961133
0.000966897
0.00097299
0.000979409
0.000986151
0.000993215
0.0010006
0.0010083
0.00101633
0.00102467
0.00103334
0.00104234
0.00105166
0.00106132
0.00107131
0.00108163
0.0010923
0.00110332
0.00111468
0.00112639
0.00113846
0.00115088
0.00116367
0.00117683
0.00119035
0.00120425
0.00121852
0.00123318
0.00124822
0.00126365
0.00127948
0.0012957
0.00131232
0.00132934
0.00134678
0.00136463
0.0013829
0.00140159
0.00142071
0.00144025
0.00146024
0.00091857
0.000918831
0.00091966
0.000920941
0.000922657
0.000924795
0.000927337
0.000930269
0.000933581
0.000937262
0.000941305
0.0009457
0.000950443
0.000955527
0.000960948
0.000966702
0.000972785
0.000979193
0.000985923
0.000992975
0.00100035
0.00100803
0.00101604
0.00102437
0.00103303
0.001042
0.00105131
0.00106094
0.00107091
0.00108121
0.00109185
0.00110284
0.00111417
0.00112586
0.00113789
0.00115028
0.00116304
0.00117615
0.00118964
0.00120349
0.00121772
0.00123233
0.00124732
0.00126269
0.00127846
0.00129462
0.00131117
0.00132813
0.0013455
0.00136327
0.00138145
0.00140006
0.00141908
0.00143853
0.00145841
0.000918389
0.00091865
0.000919478
0.000920756
0.000922468
0.000924601
0.000927137
0.000930064
0.000933368
0.000937041
0.000941074
0.00094546
0.000950191
0.000955263
0.000960671
0.000966411
0.000972478
0.00097887
0.000985582
0.000992615
0.000999965
0.00100763
0.00101562
0.00102392
0.00103255
0.0010415
0.00105077
0.00106037
0.00107031
0.00108058
0.00109118
0.00110213
0.00111342
0.00112505
0.00113704
0.00114938
0.00116208
0.00117514
0.00118856
0.00120235
0.00121651
0.00123105
0.00124596
0.00126126
0.00127694
0.001293
0.00130946
0.00132632
0.00134357
0.00136123
0.00137929
0.00139777
0.00141665
0.00143596
0.00145568
0.000918149
0.000918409
0.000919234
0.000920509
0.000922216
0.000924343
0.000926872
0.00092979
0.000933085
0.000936747
0.000940767
0.000945139
0.000949856
0.000954912
0.000960302
0.000966023
0.00097207
0.000978439
0.000985128
0.000992135
0.000999458
0.0010071
0.00101505
0.00102332
0.00103192
0.00104083
0.00105006
0.00105962
0.00106951
0.00107973
0.00109029
0.00110118
0.00111241
0.00112399
0.00113591
0.00114819
0.00116081
0.00117379
0.00118714
0.00120084
0.00121491
0.00122935
0.00124416
0.00125935
0.00127491
0.00129086
0.00130719
0.00132391
0.00134102
0.00135853
0.00137643
0.00139473
0.00141344
0.00143255
0.00145206
0.000917849
0.000918108
0.00091893
0.000920201
0.000921902
0.000924021
0.000926541
0.000929448
0.000932731
0.000936379
0.000940384
0.000944739
0.000949438
0.000954474
0.000959842
0.000965539
0.00097156
0.000977902
0.000984562
0.000991537
0.000998826
0.00100643
0.00101435
0.00102258
0.00103112
0.00103999
0.00104918
0.00105868
0.00106852
0.00107868
0.00108917
0.0011
0.00111116
0.00112266
0.0011345
0.00114669
0.00115923
0.00117212
0.00118536
0.00119896
0.00121291
0.00122723
0.00124192
0.00125697
0.0012724
0.00128819
0.00130437
0.00132092
0.00133785
0.00135517
0.00137287
0.00139096
0.00140944
0.00142831
0.00144757
0.000917489
0.000917747
0.000918566
0.000919831
0.000921525
0.000923635
0.000926144
0.000929038
0.000932306
0.000935938
0.000939926
0.00094426
0.000948937
0.000953948
0.000959291
0.000964959
0.00097095
0.000977259
0.000983883
0.000990821
0.00099807
0.00100563
0.0010135
0.00102168
0.00103018
0.00103899
0.00104812
0.00105756
0.00106733
0.00107742
0.00108784
0.00109858
0.00110966
0.00112107
0.00113282
0.00114491
0.00115734
0.00117012
0.00118324
0.00119671
0.00121053
0.00122471
0.00123924
0.00125414
0.00126939
0.00128501
0.00130099
0.00131735
0.00133407
0.00135116
0.00136863
0.00138647
0.00140468
0.00142327
0.00144222
0.00148169
0.00150294
0.0015251
0.00154822
0.00157234
0.00159755
0.00162389
0.00165143
0.00168027
0.00171046
0.00174211
0.00177531
0.00181016
0.00184677
0.00188526
0.00192578
0.00196845
0.00201345
0.00206094
0.00211111
0.00216417
0.00222034
0.00227988
0.00234305
0.00241016
0.00248154
0.00255756
0.00263862
0.00272516
0.00281767
0.00291669
0.00302281
0.00313667
0.00325897
0.00339046
0.00353192
0.00368414
0.00384788
0.00402378
0.00421225
0.00441325
0.00462604
0.00484888
0.00507881
0.00531202
0.0055447
0.00577336
0.00600451
0.00630295
0.00675739
0.00148075
0.001502
0.00152416
0.00154727
0.0015714
0.0015966
0.00162293
0.00165048
0.00167931
0.0017095
0.00174114
0.00177433
0.00180917
0.00184577
0.00188425
0.00192474
0.00196739
0.00201236
0.00205982
0.00210994
0.00216294
0.00221904
0.00227849
0.00234156
0.00240853
0.00247975
0.00255556
0.00263637
0.00272259
0.0028147
0.00291323
0.00301872
0.0031318
0.0032531
0.00338331
0.00352312
0.00367323
0.00383424
0.00400658
0.00419042
0.00438535
0.00459022
0.00480271
0.00501919
0.00523498
0.00544538
0.00564642
0.00584373
0.0060979
0.00649075
0.00147887
0.00150012
0.00152227
0.00154538
0.0015695
0.00159469
0.00162103
0.00164856
0.00167738
0.00170756
0.00173919
0.00177237
0.00180719
0.00184376
0.00188221
0.00192267
0.00196527
0.00201018
0.00205756
0.0021076
0.00216049
0.00221645
0.00227573
0.00233858
0.0024053
0.00247619
0.0025516
0.0026319
0.0027175
0.00280884
0.00290639
0.00301066
0.00312218
0.00324151
0.0033692
0.00350578
0.00365171
0.0038073
0.00397258
0.00414718
0.00433001
0.004519
0.00471069
0.00490004
0.00508066
0.00524604
0.00539138
0.00552082
0.00568253
0.00596459
0.00147605
0.0014973
0.00151944
0.00154254
0.00156665
0.00159184
0.00161816
0.00164568
0.00167449
0.00170465
0.00173626
0.0017694
0.00180419
0.00184072
0.00187912
0.00191952
0.00196205
0.00200686
0.00205413
0.00210402
0.00215673
0.00221248
0.00227149
0.00233401
0.00240032
0.00247071
0.0025455
0.00262504
0.00270968
0.00279983
0.00289589
0.00299829
0.00310746
0.0032238
0.00334769
0.0034794
0.00361906
0.00376653
0.00392127
0.0040821
0.00424689
0.00441221
0.00457291
0.00472181
0.00484999
0.00494811
0.00501007
0.00504114
0.00507419
0.00516114
0.00147232
0.00149356
0.0015157
0.00153879
0.00156289
0.00158807
0.00161438
0.00164189
0.00167068
0.00170083
0.00173241
0.00176553
0.00180029
0.00183678
0.00187512
0.00191544
0.00195788
0.00200259
0.00204971
0.00209942
0.00215191
0.00220739
0.00226605
0.00232815
0.00239394
0.00246367
0.00253765
0.00261616
0.00269954
0.0027881
0.00288218
0.00298207
0.00308807
0.00320039
0.00331914
0.00344426
0.00357542
0.00371189
0.00385231
0.00399447
0.00413485
0.00426826
0.0043873
0.00448211
0.00454055
0.00454959
0.00450043
0.00440125
0.00427377
0.00405932
0.00146769
0.00148893
0.00151108
0.00153418
0.0015583
0.00158349
0.00160983
0.00163737
0.00166619
0.00169637
0.00172799
0.00176115
0.00179593
0.00183246
0.00187083
0.00191118
0.00195364
0.00199835
0.00204546
0.00209513
0.00214756
0.00220293
0.00226144
0.00232333
0.00238881
0.00245813
0.00253155
0.00260934
0.00269174
0.00277903
0.00287143
0.00296912
0.00307221
0.00318068
0.00329432
0.0034126
0.00353455
0.00365853
0.00378195
0.00390088
0.00400956
0.00409984
0.00416063
0.00417772
0.00413409
0.00401169
0.00379736
0.00350006
0.00313332
0.00251238
0.00146213
0.00148331
0.0015054
0.00152845
0.00155253
0.00157767
0.00160396
0.00163146
0.00166024
0.00169037
0.00172195
0.00175506
0.00178979
0.00182626
0.00186458
0.00190486
0.00194725
0.00199187
0.00203888
0.00208843
0.00214071
0.00219589
0.00225417
0.00231576
0.00238087
0.00244972
0.00252254
0.00259956
0.00268099
0.002767
0.00285775
0.00295329
0.00305357
0.00315831
0.00326696
0.0033785
0.00349123
0.00360245
0.00370801
0.00380174
0.00387477
0.00391476
0.00390534
0.00382614
0.00365362
0.00336251
0.00293629
0.00238801
0.00168113
0.000529501
-0.00348789
-0.00355528
-0.00357775
-0.00356862
-0.00353938
-0.00349296
-0.00343103
-0.00335515
-0.00326769
-0.00316971
-0.00306206
-0.0029461
-0.00282305
-0.00269405
-0.00256009
-0.00242226
-0.00228168
-0.00213945
-0.00199659
-0.00185412
-0.00171295
-0.00157393
-0.00143789
-0.00130563
-0.00117782
-0.00105501
-0.000937635
-0.000826113
-0.000720765
-0.000621821
-0.00052943
-0.000443664
-0.000364522
-0.000291941
-0.000225794
-0.000165904
-0.000112049
-6.39685e-05
-2.13712e-05
1.60573e-05
4.86485e-05
7.67447e-05
0.000100693
0.00012084
0.000137527
0.000151087
0.000161841
0.000170091
0.000176126
0.000180214
-0.00355807
-0.00360494
-0.00361503
-0.00359847
-0.0035642
-0.00351443
-0.00345038
-0.00337311
-0.00328517
-0.00318669
-0.00307882
-0.00296282
-0.0028399
-0.00271102
-0.00257718
-0.00243937
-0.00229875
-0.00215643
-0.00201342
-0.00187073
-0.00172927
-0.00158989
-0.00145342
-0.00132067
-0.00119233
-0.00106895
-0.000950986
-0.000838843
-0.000732857
-0.000633267
-0.000540229
-0.000453819
-0.000374045
-0.000300844
-0.000234097
-0.000173628
-0.000119217
-7.0607e-05
-2.75068e-05
1.03969e-05
4.34355e-05
7.19512e-05
9.62918e-05
0.000116805
0.000133832
0.000147709
0.000158756
0.00016728
0.000173566
0.000177892
-0.00369767
-0.00370291
-0.0036884
-0.00365708
-0.00361262
-0.003556
-0.00348739
-0.00340676
-0.00331811
-0.00321899
-0.00311083
-0.00299492
-0.00287243
-0.00274329
-0.00260987
-0.00247223
-0.00233162
-0.00218919
-0.00204595
-0.00190288
-0.00176089
-0.00162086
-0.00148359
-0.00134993
-0.00122058
-0.00109613
-0.000977025
-0.00086369
-0.000756477
-0.000655641
-0.000561351
-0.000473697
-0.000392695
-0.000318292
-0.000250377
-0.00018878
-0.000133287
-8.36437e-05
-3.9562e-05
-7.29995e-07
3.3183e-05
6.25194e-05
8.76277e-05
0.000108857
0.000126551
0.000141047
0.00015267
0.000161728
0.000168509
0.000173303
-0.00391257
-0.00384244
-0.00379548
-0.0037419
-0.003682
-0.00361529
-0.00354007
-0.00345559
-0.00336467
-0.00326448
-0.00315576
-0.00303975
-0.00291751
-0.00278927
-0.00265601
-0.00251858
-0.00237812
-0.00223564
-0.00209214
-0.00194859
-0.00180593
-0.00166503
-0.0015267
-0.00139178
-0.00126104
-0.00113508
-0.00101439
-0.000899387
-0.000790448
-0.000687854
-0.000591794
-0.000502373
-0.000419625
-0.000343512
-0.00027393
-0.000210722
-0.000153681
-0.000102557
-5.70668e-05
-1.69016e-05
1.82683e-05
4.87854e-05
7.4999e-05
9.72599e-05
0.000115915
0.000131305
0.000143757
0.000153585
0.000161082
0.000166555
-0.00418466
-0.00402457
-0.00393395
-0.00384819
-0.00376767
-0.00368804
-0.00360438
-0.00351872
-0.00342151
-0.00331892
-0.00320988
-0.00309407
-0.00297202
-0.00284427
-0.00271151
-0.0025746
-0.00243449
-0.00229214
-0.00214851
-0.00200457
-0.00186128
-0.00171949
-0.00158004
-0.00144374
-0.00131142
-0.00118374
-0.00106119
-0.000944215
-0.000833224
-0.000728523
-0.000630324
-0.000538757
-0.000453875
-0.000375655
-0.000304014
-0.000238804
-0.000179829
-0.000126849
-7.9587e-05
-3.77373e-05
-9.7339e-07
3.10459e-05
5.86703e-05
8.22516e-05
0.00010214
0.000118677
0.000132197
0.000143016
0.000151438
0.000157789
-0.00447151
-0.00425034
-0.00410587
-0.0039808
-0.00387185
-0.00377064
-0.00367032
-0.00357926
-0.00347923
-0.00337462
-0.00326475
-0.00314911
-0.00302782
-0.00290117
-0.00276968
-0.00263405
-0.00249505
-0.00235357
-0.00221053
-0.00206685
-0.00192348
-0.00178129
-0.00164111
-0.00150376
-0.00137007
-0.00124076
-0.0011164
-0.000997428
-0.000884287
-0.000777322
-0.000676778
-0.000582815
-0.000495512
-0.000414873
-0.000340834
-0.000273269
-0.000211997
-0.000156791
-0.000107385
-6.34825e-05
-2.47619e-05
9.1136e-06
3.84914e-05
6.37228e-05
8.5158e-05
0.000103142
0.000118009
0.000130083
0.000139678
0.000147136
-0.00474712
-0.00453407
-0.00433843
-0.00416407
-0.00401484
-0.00388144
-0.00377483
-0.00366148
-0.00355246
-0.00344343
-0.00333121
-0.0032148
-0.00309377
-0.00296799
-0.00283767
-0.00270325
-0.00256534
-0.00242471
-0.00228219
-0.00213867
-0.00199507
-0.00185229
-0.00171115
-0.00157246
-0.00143708
-0.00130578
-0.00117918
-0.00105779
-0.000942079
-0.000832423
-0.000729109
-0.000632332
-0.000542204
-0.000458757
-0.000381954
-0.000311688
-0.000247799
-0.000190073
-0.000138256
-9.20587e-05
-5.1166e-05
-1.52441e-05
1.60531e-05
4.30777e-05
6.61819e-05
8.57135e-05
0.000102012
0.000115404
0.000126217
0.00013479
0.000182609
0.000183457
0.000183003
0.00018143
0.00017888
0.000175486
0.000171377
0.000166672
0.000161483
0.000155912
0.000150053
0.000143991
0.000137801
0.00013155
0.000125296
0.00011909
0.000112973
0.000106981
0.000101141
9.54755e-05
9.00018e-05
8.47321e-05
7.96743e-05
7.48335e-05
7.02116e-05
6.58081e-05
6.1621e-05
5.76464e-05
5.38796e-05
5.0315e-05
4.69463e-05
4.37671e-05
4.07705e-05
3.79497e-05
3.52978e-05
3.28078e-05
3.04727e-05
2.82856e-05
2.62395e-05
2.43272e-05
2.2542e-05
2.08764e-05
1.93251e-05
1.78772e-05
1.65313e-05
1.52832e-05
1.41176e-05
1.30352e-05
1.20306e-05
1.10979e-05
1.02325e-05
9.42992e-06
8.68609e-06
7.99705e-06
7.3591e-06
6.76877e-06
6.2228e-06
5.71812e-06
5.25184e-06
4.82125e-06
4.42381e-06
4.05715e-06
3.71905e-06
3.40742e-06
3.12032e-06
2.85595e-06
2.6126e-06
2.38873e-06
2.18288e-06
1.99367e-06
1.81984e-06
1.66024e-06
1.51377e-06
1.37943e-06
1.25629e-06
1.14347e-06
1.04019e-06
9.4568e-07
8.5935e-07
7.80364e-07
7.08558e-07
6.42606e-07
5.834e-07
5.2809e-07
4.80271e-07
4.32889e-07
3.96398e-07
3.53173e-07
3.29949e-07
2.85041e-07
2.80233e-07
2.24245e-07
2.47543e-07
1.6639e-07
2.32358e-07
1.08075e-07
2.34053e-07
4.87784e-08
2.48663e-07
-7.46235e-09
2.67383e-07
-5.17638e-08
2.78825e-07
-7.45912e-08
2.75175e-07
-7.46454e-08
2.62579e-07
-6.86909e-08
2.68898e-07
-9.56093e-08
3.4211e-07
-2.0918e-07
5.36764e-07
-4.63314e-07
8.91777e-07
0.000180541
0.00018151
0.000181174
0.000179735
0.000177318
0.00017405
0.00017006
0.000165467
0.000160383
0.000154909
0.00014914
0.000143161
0.000137047
0.000130866
0.000124676
0.000118528
0.000112465
0.000106521
0.000100725
9.50998e-05
8.96626e-05
8.44257e-05
7.93979e-05
7.45841e-05
6.99866e-05
6.56053e-05
6.14382e-05
5.74818e-05
5.37314e-05
5.01816e-05
4.68264e-05
4.36593e-05
4.06737e-05
3.78628e-05
3.52198e-05
3.27379e-05
3.04101e-05
2.82295e-05
2.61893e-05
2.42823e-05
2.25018e-05
2.08404e-05
1.92928e-05
1.78483e-05
1.65055e-05
1.52601e-05
1.40969e-05
1.30167e-05
1.20141e-05
1.10831e-05
1.02193e-05
9.41817e-06
8.67561e-06
7.98771e-06
7.35078e-06
6.76137e-06
6.21622e-06
5.71228e-06
5.24665e-06
4.81664e-06
4.41972e-06
4.05353e-06
3.71584e-06
3.40458e-06
3.1178e-06
2.85372e-06
2.61064e-06
2.38699e-06
2.18134e-06
1.99231e-06
1.81865e-06
1.65918e-06
1.51284e-06
1.3786e-06
1.25556e-06
1.14283e-06
1.03963e-06
9.45183e-07
8.58912e-07
7.79979e-07
7.08218e-07
6.42307e-07
5.83137e-07
5.27858e-07
4.80067e-07
4.32711e-07
3.96239e-07
3.53037e-07
3.29826e-07
2.84939e-07
2.80136e-07
2.2417e-07
2.47463e-07
1.66336e-07
2.32292e-07
1.08039e-07
2.33997e-07
4.87548e-08
2.48615e-07
-7.48042e-09
2.67345e-07
-5.17789e-08
2.78795e-07
-7.46066e-08
2.75149e-07
-7.46569e-08
2.62548e-07
-6.86893e-08
2.68851e-07
-9.55834e-08
3.42048e-07
-2.09146e-07
5.36739e-07
-4.63315e-07
8.91905e-07
0.000176428
0.00017764
0.000177547
0.000176375
0.000174219
0.000171201
0.000167447
0.000163076
0.000158199
0.000152918
0.000147326
0.000141511
0.000135548
0.000129505
0.000123442
0.00011741
0.000111453
0.000105605
9.98969e-05
9.43515e-05
8.89866e-05
8.38153e-05
7.88469e-05
7.40869e-05
6.95381e-05
6.52009e-05
6.10737e-05
5.71534e-05
5.34357e-05
4.99155e-05
4.6587e-05
4.34442e-05
4.04805e-05
3.76894e-05
3.50643e-05
3.25984e-05
3.02852e-05
2.81176e-05
2.6089e-05
2.41925e-05
2.24214e-05
2.07684e-05
1.92284e-05
1.77907e-05
1.64539e-05
1.52139e-05
1.40556e-05
1.29797e-05
1.19811e-05
1.10536e-05
1.0193e-05
9.39468e-06
8.65467e-06
7.96905e-06
7.33417e-06
6.74659e-06
6.20308e-06
5.70059e-06
5.23627e-06
4.80743e-06
4.41155e-06
4.04628e-06
3.70942e-06
3.39889e-06
3.11277e-06
2.84927e-06
2.6067e-06
2.38352e-06
2.17827e-06
1.9896e-06
1.81625e-06
1.65707e-06
1.51097e-06
1.37696e-06
1.25411e-06
1.14154e-06
1.0385e-06
9.44187e-07
8.58037e-07
7.79208e-07
7.07538e-07
6.41711e-07
5.82609e-07
5.27396e-07
4.79657e-07
4.32353e-07
3.95918e-07
3.52767e-07
3.29576e-07
2.84736e-07
2.79939e-07
2.24018e-07
2.473e-07
1.66229e-07
2.32157e-07
1.07968e-07
2.33886e-07
4.87042e-08
2.48518e-07
-7.51699e-09
2.67272e-07
-5.18094e-08
2.78734e-07
-7.4636e-08
2.75098e-07
-7.46791e-08
2.62488e-07
-6.86838e-08
2.68756e-07
-9.55226e-08
3.4191e-07
-2.09061e-07
5.36675e-07
-4.63303e-07
8.92155e-07
0.000170321
0.000171903
0.000172183
0.000171407
0.000169638
0.000166987
0.00016358
0.000159536
0.000154963
0.000149964
0.000144635
0.000139061
0.000133321
0.000127483
0.000121607
0.000115747
0.000109946
0.000104242
9.86636e-05
9.32365e-05
8.7979e-05
8.29053e-05
7.80252e-05
7.33453e-05
6.8869e-05
6.45975e-05
6.05297e-05
5.66631e-05
5.29942e-05
4.9518e-05
4.62295e-05
4.31227e-05
4.01917e-05
3.74302e-05
3.48317e-05
3.23899e-05
3.00983e-05
2.79502e-05
2.59391e-05
2.40583e-05
2.23012e-05
2.06608e-05
1.91321e-05
1.77044e-05
1.63767e-05
1.51448e-05
1.39938e-05
1.29245e-05
1.19316e-05
1.10095e-05
1.01535e-05
9.3595e-06
8.6233e-06
7.9411e-06
7.30928e-06
6.72444e-06
6.18338e-06
5.68309e-06
5.22073e-06
4.79363e-06
4.39931e-06
4.03543e-06
3.69981e-06
3.39038e-06
3.10524e-06
2.8426e-06
2.60081e-06
2.37831e-06
2.17366e-06
1.98553e-06
1.81266e-06
1.65389e-06
1.50817e-06
1.37449e-06
1.25193e-06
1.13962e-06
1.03681e-06
9.42693e-07
8.56723e-07
7.7805e-07
7.06517e-07
6.40814e-07
5.81816e-07
5.26702e-07
4.79042e-07
4.31816e-07
3.95438e-07
3.52359e-07
3.29201e-07
2.84428e-07
2.79644e-07
2.23789e-07
2.47056e-07
1.66066e-07
2.31956e-07
1.0786e-07
2.33719e-07
4.86285e-08
2.48374e-07
-7.57271e-09
2.67162e-07
-5.18568e-08
2.78648e-07
-7.4682e-08
2.75026e-07
-7.47138e-08
2.62403e-07
-6.86781e-08
2.68619e-07
-9.54366e-08
3.41712e-07
-2.08941e-07
5.36586e-07
-4.63289e-07
8.92525e-07
0.000162298
0.000164383
0.000165171
0.000164917
0.000163652
0.000161478
0.000158522
0.0001549
0.000150721
0.00014609
0.000141101
0.000135842
0.000130392
0.000124821
0.000119191
0.000113555
0.00010796
0.000102443
9.70354e-05
9.17638e-05
8.66476e-05
8.17022e-05
7.69385e-05
7.23641e-05
6.79835e-05
6.37985e-05
5.98092e-05
5.60138e-05
5.24091e-05
4.89913e-05
4.57555e-05
4.26966e-05
3.98088e-05
3.70863e-05
3.45231e-05
3.21132e-05
2.98502e-05
2.77279e-05
2.574e-05
2.38799e-05
2.21415e-05
2.05178e-05
1.9004e-05
1.75897e-05
1.62741e-05
1.50528e-05
1.39116e-05
1.28509e-05
1.18659e-05
1.09507e-05
1.01011e-05
9.31271e-06
8.58158e-06
7.90392e-06
7.27617e-06
6.69498e-06
6.15718e-06
5.6598e-06
5.20004e-06
4.77527e-06
4.38302e-06
4.02099e-06
3.68701e-06
3.37904e-06
3.0952e-06
2.83373e-06
2.59296e-06
2.37137e-06
2.16753e-06
1.98011e-06
1.80787e-06
1.64967e-06
1.50444e-06
1.3712e-06
1.24903e-06
1.13706e-06
1.03455e-06
9.40703e-07
8.54971e-07
7.76506e-07
7.05156e-07
6.39618e-07
5.8076e-07
5.25775e-07
4.78222e-07
4.311e-07
3.94799e-07
3.51813e-07
3.28702e-07
2.84016e-07
2.79251e-07
2.23482e-07
2.46735e-07
1.65845e-07
2.31693e-07
1.07708e-07
2.33504e-07
4.85198e-08
2.48195e-07
-7.65747e-09
2.67028e-07
-5.19325e-08
2.78547e-07
-7.4756e-08
2.74943e-07
-7.47714e-08
2.62302e-07
-6.86812e-08
2.68448e-07
-9.53363e-08
3.41467e-07
-2.08802e-07
5.36489e-07
-4.63297e-07
8.93028e-07
0.000152464
0.000155197
0.000156634
0.000157018
0.000156361
0.000154763
0.000152349
0.000149236
0.000145533
0.000141345
0.000136768
0.000131891
0.000126793
0.000121548
0.000116216
0.000110855
0.000105511
0.000100223
9.50257e-05
8.99448e-05
8.50023e-05
8.02146e-05
7.55942e-05
7.11498e-05
6.68871e-05
6.2809e-05
5.89165e-05
5.52088e-05
5.16837e-05
4.8338e-05
4.51675e-05
4.21676e-05
3.93333e-05
3.66592e-05
3.41397e-05
3.17692e-05
2.95418e-05
2.74515e-05
2.54923e-05
2.3658e-05
2.19427e-05
2.03397e-05
1.88445e-05
1.7447e-05
1.61462e-05
1.49384e-05
1.38092e-05
1.27593e-05
1.1784e-05
1.08776e-05
1.00357e-05
9.2544e-06
8.52958e-06
7.85758e-06
7.2349e-06
6.65825e-06
6.12451e-06
5.63076e-06
5.17425e-06
4.75237e-06
4.36271e-06
4.00298e-06
3.67105e-06
3.36491e-06
3.08269e-06
2.82265e-06
2.58316e-06
2.36271e-06
2.15988e-06
1.97335e-06
1.8019e-06
1.6444e-06
1.49979e-06
1.36709e-06
1.2454e-06
1.13387e-06
1.03173e-06
9.38219e-07
8.52782e-07
7.74577e-07
7.03456e-07
6.38123e-07
5.79442e-07
5.24618e-07
4.77198e-07
4.30206e-07
3.94001e-07
3.5113e-07
3.28079e-07
2.835e-07
2.78758e-07
2.23098e-07
2.46335e-07
1.65569e-07
2.31363e-07
1.07519e-07
2.33232e-07
4.83868e-08
2.47969e-07
-7.75932e-09
2.66856e-07
-5.2023e-08
2.78418e-07
-7.48439e-08
2.74837e-07
-7.48394e-08
2.62174e-07
-6.86824e-08
2.68235e-07
-9.5212e-08
3.41163e-07
-2.08629e-07
5.36361e-07
-4.63297e-07
8.93607e-07
0.000140927
0.000144481
0.000146715
0.000147839
0.00014788
0.000146942
0.00014515
0.000142621
0.000139466
0.000135788
0.000131687
0.000127251
0.000122563
0.000117695
0.000112712
0.000107671
0.00010262
9.76016e-05
9.26495e-05
8.77927e-05
8.30542e-05
7.84523e-05
7.40007e-05
6.97096e-05
6.5586e-05
6.16341e-05
5.78562e-05
5.42523e-05
5.08214e-05
4.7561e-05
4.44678e-05
4.1538e-05
3.87672e-05
3.61505e-05
3.36829e-05
3.13592e-05
2.9174e-05
2.71217e-05
2.51967e-05
2.33931e-05
2.17054e-05
2.01271e-05
1.8654e-05
1.72764e-05
1.59935e-05
1.48015e-05
1.36868e-05
1.26498e-05
1.16861e-05
1.07901e-05
9.95762e-06
9.18467e-06
8.46739e-06
7.80215e-06
7.18554e-06
6.61431e-06
6.08543e-06
5.59602e-06
5.14339e-06
4.72497e-06
4.3384e-06
3.98142e-06
3.65194e-06
3.34798e-06
3.06771e-06
2.80939e-06
2.57144e-06
2.35234e-06
2.15071e-06
1.96525e-06
1.79475e-06
1.63808e-06
1.49421e-06
1.36217e-06
1.24106e-06
1.13004e-06
1.02836e-06
9.35241e-07
8.50158e-07
7.72265e-07
7.01418e-07
6.3633e-07
5.77859e-07
5.2323e-07
4.75968e-07
4.29136e-07
3.93041e-07
3.50315e-07
3.27323e-07
2.82893e-07
2.7815e-07
2.22661e-07
2.45823e-07
1.65281e-07
2.30915e-07
1.07358e-07
2.32823e-07
4.83245e-08
2.47587e-07
-7.75562e-09
2.66513e-07
-5.19882e-08
2.78118e-07
-7.48052e-08
2.74574e-07
-7.47921e-08
2.61903e-07
-6.85723e-08
2.6787e-07
-9.4947e-08
3.4066e-07
-2.08243e-07
5.35965e-07
-4.62979e-07
8.93883e-07
0.000127449
0.00013209
0.000135307
0.000137277
0.000138106
0.000137913
0.000136824
0.000134957
0.000132423
0.000129328
0.000125771
0.000121842
0.000117624
0.000113192
0.000108611
0.00010394
9.923e-05
9.45235e-05
8.98572e-05
8.52615e-05
8.07613e-05
7.63764e-05
7.21223e-05
6.80109e-05
6.40505e-05
6.02469e-05
5.66035e-05
5.31217e-05
4.98016e-05
4.66417e-05
4.36397e-05
4.07925e-05
3.80965e-05
3.55476e-05
3.31413e-05
3.08729e-05
2.87376e-05
2.67303e-05
2.48457e-05
2.30785e-05
2.14234e-05
1.98744e-05
1.84276e-05
1.70736e-05
1.58119e-05
1.46388e-05
1.35412e-05
1.25195e-05
1.15696e-05
1.0686e-05
9.86462e-06
9.10166e-06
8.39335e-06
7.73615e-06
7.12674e-06
6.56197e-06
6.03887e-06
5.55463e-06
5.10661e-06
4.69232e-06
4.30943e-06
3.95573e-06
3.62916e-06
3.3278e-06
3.04984e-06
2.79358e-06
2.55745e-06
2.33997e-06
2.13978e-06
1.95559e-06
1.78621e-06
1.63054e-06
1.48756e-06
1.3563e-06
1.23588e-06
1.12546e-06
1.02432e-06
9.31686e-07
8.47023e-07
7.69504e-07
6.98983e-07
6.34188e-07
5.75967e-07
5.21573e-07
4.74495e-07
4.27862e-07
3.91887e-07
3.49351e-07
3.26405e-07
2.82187e-07
2.77393e-07
2.2218e-07
2.45155e-07
1.65009e-07
2.30284e-07
1.07284e-07
2.32189e-07
4.84213e-08
2.46934e-07
-7.52968e-09
2.65864e-07
-5.16945e-08
2.77503e-07
-7.45068e-08
2.74019e-07
-7.45122e-08
2.61374e-07
-6.82496e-08
2.67247e-07
-9.44306e-08
3.3982e-07
-2.07472e-07
5.35069e-07
-4.62047e-07
8.93532e-07
0.00011274
0.00011839
0.000122573
0.000125442
0.000127122
0.000127741
0.000127423
0.000126285
0.000124438
0.00012199
0.000119039
0.000115676
0.000111985
0.000108042
0.000103915
9.9663e-05
9.53382e-05
9.0986e-05
8.66447e-05
8.23464e-05
7.8118e-05
7.39812e-05
6.99532e-05
6.60476e-05
6.22745e-05
5.86412e-05
5.51526e-05
5.18115e-05
4.8619e-05
4.55751e-05
4.26783e-05
3.99265e-05
3.7317e-05
3.48465e-05
3.25111e-05
3.03068e-05
2.82293e-05
2.62741e-05
2.44365e-05
2.27115e-05
2.10943e-05
1.95794e-05
1.81631e-05
1.68367e-05
1.55996e-05
1.44486e-05
1.3371e-05
1.23673e-05
1.14334e-05
1.05642e-05
9.75587e-06
9.00458e-06
8.30674e-06
7.65894e-06
7.05796e-06
6.50073e-06
5.98438e-06
5.50619e-06
5.06357e-06
4.6541e-06
4.2755e-06
3.92564e-06
3.60249e-06
3.30417e-06
3.02891e-06
2.77506e-06
2.54106e-06
2.32548e-06
2.12696e-06
1.94426e-06
1.77621e-06
1.62171e-06
1.47976e-06
1.34941e-06
1.2298e-06
1.1201e-06
1.01959e-06
9.27516e-07
8.43347e-07
7.66264e-07
6.96127e-07
6.31674e-07
5.73749e-07
5.19627e-07
4.72772e-07
4.2636e-07
3.90544e-07
3.48204e-07
3.2535e-07
2.81326e-07
2.76547e-07
2.21555e-07
2.44454e-07
1.64584e-07
2.29678e-07
1.0703e-07
2.31647e-07
4.82973e-08
2.46441e-07
-7.56796e-09
2.6543e-07
-5.1695e-08
2.77136e-07
-7.45055e-08
2.73707e-07
-7.45051e-08
2.61062e-07
-6.81695e-08
2.66824e-07
-9.41637e-08
3.39233e-07
-2.0706e-07
5.34637e-07
-4.61739e-07
8.94068e-07
9.72223e-05
0.000103834
0.000108965
0.000112747
0.000115306
0.000116769
0.000117257
0.000116886
0.000115766
0.000114004
0.000111698
0.00010894
0.000105815
0.000102399
9.87607e-05
9.49612e-05
9.10545e-05
8.70873e-05
8.30998e-05
7.91262e-05
7.5195e-05
7.13298e-05
6.75499e-05
6.38706e-05
6.03036e-05
5.6858e-05
5.35401e-05
5.03542e-05
4.73029e-05
4.43872e-05
4.16069e-05
3.8961e-05
3.64474e-05
3.40638e-05
3.18071e-05
2.96741e-05
2.76609e-05
2.57637e-05
2.39784e-05
2.23004e-05
2.07256e-05
1.92488e-05
1.78666e-05
1.6571e-05
1.53615e-05
1.42352e-05
1.318e-05
1.21963e-05
1.12805e-05
1.04275e-05
9.63373e-06
8.89553e-06
8.20944e-06
7.57218e-06
6.98065e-06
6.4319e-06
5.92313e-06
5.45172e-06
5.01516e-06
4.61111e-06
4.23735e-06
3.89179e-06
3.57248e-06
3.27758e-06
3.00536e-06
2.75421e-06
2.52261e-06
2.30916e-06
2.11254e-06
1.93151e-06
1.76494e-06
1.61176e-06
1.47097e-06
1.34165e-06
1.22296e-06
1.11406e-06
1.01427e-06
9.22817e-07
8.39203e-07
7.62611e-07
6.92907e-07
6.28839e-07
5.71249e-07
5.1743e-07
4.7083e-07
4.24663e-07
3.89034e-07
3.46901e-07
3.2417e-07
2.80338e-07
2.75615e-07
2.2082e-07
2.43701e-07
1.64054e-07
2.29058e-07
1.06664e-07
2.31129e-07
4.8048e-08
2.4601e-07
-7.74972e-09
2.65091e-07
-5.18536e-08
2.76883e-07
-7.46661e-08
2.73515e-07
-7.46524e-08
2.60863e-07
-6.82332e-08
2.6651e-07
-9.40456e-08
3.38782e-07
-2.0685e-07
5.34448e-07
-4.61764e-07
8.95138e-07
8.10371e-05
8.85942e-05
9.46638e-05
9.93641e-05
0.000102814
0.000105137
0.000106452
0.000106872
0.000106506
0.000105458
0.000103827
0.000101704
9.91746e-05
9.63147e-05
9.31943e-05
8.98759e-05
8.64145e-05
8.28585e-05
7.92498e-05
7.56244e-05
7.20127e-05
6.84402e-05
6.4928e-05
6.14931e-05
5.81493e-05
5.49072e-05
5.17747e-05
4.87576e-05
4.58599e-05
4.30839e-05
4.04306e-05
3.79e-05
3.54913e-05
3.32027e-05
3.10321e-05
2.8977e-05
2.70344e-05
2.52008e-05
2.34729e-05
2.18466e-05
2.03183e-05
1.88834e-05
1.75389e-05
1.62772e-05
1.50981e-05
1.39992e-05
1.29686e-05
1.20071e-05
1.11111e-05
1.02761e-05
9.49845e-06
8.77472e-06
8.10163e-06
7.47604e-06
6.89497e-06
6.35559e-06
5.85522e-06
5.39132e-06
4.96147e-06
4.56342e-06
4.19501e-06
3.85423e-06
3.53918e-06
3.24806e-06
2.97921e-06
2.73106e-06
2.50212e-06
2.29103e-06
2.09651e-06
1.91735e-06
1.75242e-06
1.6007e-06
1.46121e-06
1.33303e-06
1.21535e-06
1.10735e-06
1.00834e-06
9.1759e-07
8.34594e-07
7.58549e-07
6.89325e-07
6.25684e-07
5.68467e-07
5.14985e-07
4.68669e-07
4.22774e-07
3.87354e-07
3.45451e-07
3.22859e-07
2.79237e-07
2.74579e-07
2.19999e-07
2.42865e-07
1.63462e-07
2.2837e-07
1.06256e-07
2.30552e-07
4.77708e-08
2.45529e-07
-7.9492e-09
2.6471e-07
-5.20266e-08
2.766e-07
-7.48444e-08
2.73305e-07
-7.48252e-08
2.60657e-07
-6.83287e-08
2.66194e-07
-9.39579e-08
3.38327e-07
-2.06658e-07
5.34258e-07
-4.61802e-07
8.96341e-07
6.43711e-05
7.28555e-05
7.98485e-05
8.54579e-05
8.97968e-05
9.29839e-05
9.51338e-05
9.63562e-05
9.67583e-05
9.64425e-05
9.55058e-05
9.40391e-05
9.21264e-05
8.9845e-05
8.72652e-05
8.445e-05
8.14559e-05
7.83326e-05
7.51236e-05
7.18664e-05
6.85933e-05
6.53316e-05
6.21042e-05
5.89301e-05
5.58246e-05
5.28e-05
4.9866e-05
4.703e-05
4.42972e-05
4.16714e-05
3.91549e-05
3.67486e-05
3.44528e-05
3.22668e-05
3.01892e-05
2.82184e-05
2.6352e-05
2.45874e-05
2.29216e-05
2.13515e-05
1.98738e-05
1.84844e-05
1.71809e-05
1.5956e-05
1.48101e-05
1.3741e-05
1.27373e-05
1.18e-05
1.09259e-05
1.01104e-05
9.35033e-06
8.64243e-06
7.98355e-06
7.37071e-06
6.80108e-06
6.27196e-06
5.78078e-06
5.3251e-06
4.90261e-06
4.51112e-06
4.14858e-06
3.81302e-06
3.50263e-06
3.21567e-06
2.95051e-06
2.70564e-06
2.47963e-06
2.27113e-06
2.07891e-06
1.90178e-06
1.73867e-06
1.58855e-06
1.45047e-06
1.32355e-06
1.20698e-06
1.09996e-06
1.00182e-06
9.11842e-07
8.29525e-07
7.54079e-07
6.85384e-07
6.22214e-07
5.65405e-07
5.12294e-07
4.66292e-07
4.20694e-07
3.85506e-07
3.43853e-07
3.21415e-07
2.78023e-07
2.73438e-07
2.19095e-07
2.41945e-07
1.62812e-07
2.27609e-07
1.0581e-07
2.2991e-07
4.74743e-08
2.44988e-07
-8.15532e-09
2.64276e-07
-5.22011e-08
2.76273e-07
-7.50274e-08
2.73064e-07
-7.50115e-08
2.60435e-07
-6.84464e-08
2.65869e-07
-9.38921e-08
3.37855e-07
-2.0647e-07
5.34041e-07
-4.61821e-07
8.97604e-07
4.74167e-05
5.67974e-05
6.46864e-05
7.11842e-05
7.63976e-05
8.04398e-05
8.34208e-05
8.54469e-05
8.66217e-05
8.70456e-05
8.68135e-05
8.60149e-05
8.47334e-05
8.30458e-05
8.10225e-05
7.87273e-05