/*--------------------------------*- C++ -*----------------------------------*\
| =========                 |                                                 |
| \\      /  F ield         | OpenFOAM: The Open Source CFD Toolbox           |
|  \\    /   O peration     | Version:  2412                                  |
|   \\  /    A nd           | Website:  www.openfoam.com                      |
|    \\/     M anipulation  |                                                 |
\*---------------------------------------------------------------------------*/
FoamFile
{
    version     2.0;
    format      ascii;
    arch        "LSB;label=32;scalar=64";
    class       surfaceScalarField;
    location    "25.5";
    object      phi;
}
// * * * * * * * * * * * * * * * * * * * * * * * * * * * * * * * * * * * * * //

dimensions      [0 3 -1 0 0 0 0];

oriented        oriented;

internalField   nonuniform List<scalar> 
126304
(
0.00505063
1.29818e-07
2.08189e-11
0.00505025
3.78542e-07
5.92323e-11
0.00504963
6.13958e-07
8.48658e-11
0.0050488
8.3777e-07
9.86221e-11
0.00504775
1.05158e-06
1.05893e-10
0.00504649
1.25646e-06
1.12461e-10
0.00504504
1.4534e-06
1.21918e-10
0.00504339
1.64477e-06
1.33727e-10
0.00504155
1.83607e-06
1.40875e-10
0.00503952
2.03681e-06
1.28508e-10
0.00503726
2.25929e-06
7.6392e-11
0.00503474
2.51537e-06
-3.46157e-11
0.00503193
2.81222e-06
-2.14325e-10
0.00502878
3.14896e-06
-4.56233e-10
0.00502527
3.51549e-06
-7.35054e-10
0.00502137
3.89417e-06
-1.0102e-09
0.00501711
4.26335e-06
-1.23401e-09
0.00501251
4.60192e-06
-1.36178e-09
0.00500762
4.89311e-06
-1.36044e-09
0.00500249
5.12701e-06
-1.21425e-09
0.00499719
5.3012e-06
-9.26489e-10
0.00499177
5.42002e-06
-5.17039e-10
0.00498628
5.49267e-06
-1.71221e-11
0.00498075
5.5311e-06
5.36845e-10
0.0049752
5.54793e-06
1.10845e-09
0.00496964
5.55483e-06
1.66545e-09
0.00496408
5.5616e-06
2.18243e-09
0.0049585
5.57562e-06
2.64202e-09
0.0049529
5.60189e-06
3.03456e-09
0.00494725
5.64328e-06
3.35699e-09
0.00494155
5.70099e-06
3.61126e-09
0.00493577
5.77497e-06
3.80277e-09
0.0049299
5.86436e-06
3.9389e-09
0.00492393
5.96787e-06
4.02784e-09
0.00491784
6.08402e-06
4.07768e-09
0.00491162
6.21136e-06
4.096e-09
0.00490527
6.34852e-06
4.08948e-09
0.00489877
6.49435e-06
4.06376e-09
0.00489212
6.64787e-06
4.02338e-09
0.00488531
6.80829e-06
3.97193e-09
0.00487833
6.97501e-06
3.91225e-09
0.00487118
7.14757e-06
3.84648e-09
0.00486385
7.32564e-06
3.7762e-09
0.00485634
7.50898e-06
3.70252e-09
0.00484863
7.69742e-06
3.62627e-09
0.00484074
7.89085e-06
3.54795e-09
0.00483265
8.08922e-06
3.46788e-09
0.00482435
8.29251e-06
3.38638e-09
0.00481585
8.50073e-06
3.30357e-09
0.00480713
8.71392e-06
3.21957e-09
0.0047982
8.93222e-06
3.13444e-09
0.00478904
9.15591e-06
3.04815e-09
0.00477965
9.38582e-06
2.96077e-09
0.00477002
9.62437e-06
2.8725e-09
9.87837e-06
0.00476014
2.7851e-09
0.00505063
2.59571e-07
0.00505025
7.56871e-07
0.00504964
1.22757e-06
0.0050488
1.67505e-06
0.00504775
2.10252e-06
0.00504649
2.51213e-06
0.00504504
2.90588e-06
0.0050434
3.28847e-06
0.00504156
3.67088e-06
0.00503953
4.07203e-06
0.00503727
4.51647e-06
0.00503476
5.02785e-06
0.00503195
5.62051e-06
0.0050288
6.29273e-06
0.00502529
7.0245e-06
0.00502141
7.78065e-06
0.00501715
8.51812e-06
0.00501256
9.19477e-06
0.00500768
9.77713e-06
0.00500256
1.02454e-05
0.00499726
1.05946e-05
0.00499185
1.08334e-05
0.00498636
1.09799e-05
0.00498084
1.10581e-05
0.00497529
1.10929e-05
0.00496974
1.11078e-05
0.00496418
1.11221e-05
0.0049586
1.11507e-05
0.004953
1.12035e-05
0.00494736
1.12864e-05
0.00494166
1.14016e-05
0.00493588
1.15493e-05
0.00493002
1.17276e-05
0.00492405
1.1934e-05
0.00491797
1.21657e-05
0.00491176
1.24197e-05
0.00490542
1.26933e-05
0.00489893
1.29841e-05
0.00489229
1.32903e-05
0.00488549
1.36103e-05
0.00487852
1.39429e-05
0.00487138
1.42871e-05
0.00486406
1.46423e-05
0.00485656
1.5008e-05
0.00484888
1.53839e-05
0.004841
1.57697e-05
0.00483292
1.61653e-05
0.00482464
1.65708e-05
0.00481616
1.6986e-05
0.00480746
1.7411e-05
0.00479855
1.78462e-05
0.00478941
1.82921e-05
0.00478005
1.87502e-05
0.00477045
1.92252e-05
1.97304e-05
0.00476059
0.00505063
3.89152e-07
0.00505025
1.13466e-06
0.00504964
1.84032e-06
0.0050488
2.51114e-06
0.00504775
3.15196e-06
0.0050465
3.766e-06
0.00504505
4.35626e-06
0.00504341
4.92977e-06
0.00504157
5.50289e-06
0.00503954
6.10384e-06
0.00503729
6.76931e-06
0.00503478
7.53466e-06
0.00503198
8.4214e-06
0.00502885
9.42712e-06
0.00502535
1.05221e-05
0.00502148
1.16539e-05
0.00501724
1.27583e-05
0.00501266
1.37723e-05
0.00500779
1.46458e-05
0.00500269
1.5349e-05
0.00499741
1.58743e-05
0.00499201
1.62345e-05
0.00498653
1.64565e-05
0.00498101
1.65758e-05
0.00497547
1.66299e-05
0.00496993
1.66536e-05
0.00496437
1.6676e-05
0.00495881
1.67192e-05
0.00495321
1.67984e-05
0.00494758
1.69222e-05
0.00494188
1.70943e-05
0.00493612
1.73145e-05
0.00493026
1.75806e-05
0.00492431
1.78888e-05
0.00491824
1.82346e-05
0.00491205
1.86137e-05
0.00490572
1.90222e-05
0.00489925
1.94566e-05
0.00489262
1.9914e-05
0.00488584
2.03919e-05
0.00487889
2.08887e-05
0.00487178
2.14029e-05
0.00486449
2.19335e-05
0.00485702
2.24798e-05
0.00484936
2.30413e-05
0.00484151
2.36175e-05
0.00483347
2.42084e-05
0.00482522
2.48138e-05
0.00481678
2.54337e-05
0.00480812
2.60682e-05
0.00479925
2.67177e-05
0.00479016
2.73829e-05
0.00478084
2.80659e-05
0.00477129
2.87732e-05
2.95232e-05
0.0047615
0.00505063
5.18478e-07
0.00505025
1.51163e-06
0.00504964
2.45178e-06
0.00504881
3.34545e-06
0.00504776
4.19916e-06
0.00504651
5.01717e-06
0.00504506
5.8035e-06
0.00504342
6.56747e-06
0.00504159
7.33069e-06
0.00503957
8.13056e-06
0.00503732
9.01569e-06
0.00503482
1.0033e-05
0.00503203
1.12114e-05
0.00502891
1.25477e-05
0.00502543
1.40029e-05
0.00502158
1.55077e-05
0.00501736
1.69771e-05
0.0050128
1.83273e-05
0.00500796
1.94919e-05
0.00500288
2.04308e-05
0.00499762
2.11339e-05
0.00499223
2.16173e-05
0.00498677
2.1917e-05
0.00498127
2.20796e-05
0.00497574
2.21547e-05
0.00497021
2.21885e-05
0.00496467
2.22197e-05
0.00495911
2.22779e-05
0.00495352
2.23831e-05
0.0049479
2.25471e-05
0.00494222
2.27747e-05
0.00493647
2.30662e-05
0.00493063
2.34183e-05
0.00492469
2.38262e-05
0.00491864
2.42841e-05
0.00491247
2.47863e-05
0.00490616
2.53275e-05
0.00489972
2.59032e-05
0.00489312
2.65093e-05
0.00488637
2.71429e-05
0.00487946
2.78015e-05
0.00487238
2.84833e-05
0.00486512
2.91867e-05
0.00485769
2.99109e-05
0.00485008
3.06552e-05
0.00484228
3.1419e-05
0.00483428
3.22021e-05
0.00482609
3.30043e-05
0.0048177
3.38255e-05
0.0048091
3.46659e-05
0.0048003
3.55258e-05
0.00479127
3.6406e-05
0.00478203
3.73091e-05
0.00477256
3.82425e-05
3.9228e-05
0.00476285
0.00505063
6.47468e-07
0.00505025
1.88752e-06
0.00504964
3.06153e-06
0.00504881
4.17739e-06
0.00504777
5.24335e-06
0.00504652
6.26475e-06
0.00504508
7.24657e-06
0.00504344
8.20037e-06
0.00504162
9.15292e-06
0.0050396
1.01505e-05
0.00503736
1.12535e-05
0.00503488
1.25204e-05
0.0050321
1.3987e-05
0.005029
1.56502e-05
0.00502554
1.74618e-05
0.00502171
1.93362e-05
0.00501752
2.11679e-05
0.00501299
2.28529e-05
0.00500818
2.43084e-05
0.00500312
2.54841e-05
0.00499789
2.63668e-05
0.00499253
2.69763e-05
0.00498709
2.73564e-05
0.00498161
2.75649e-05
0.0049761
2.76632e-05
0.00497058
2.77088e-05
0.00496505
2.77498e-05
0.0049595
2.78232e-05
0.00495393
2.79539e-05
0.00494832
2.8157e-05
0.00494266
2.84387e-05
0.00493693
2.87993e-05
0.00493111
2.92352e-05
0.00492519
2.97404e-05
0.00491917
3.03077e-05
0.00491303
3.09302e-05
0.00490675
3.16012e-05
0.00490034
3.23152e-05
0.00489378
3.30672e-05
0.00488707
3.38533e-05
0.0048802
3.46705e-05
0.00487317
3.55165e-05
0.00486597
3.63894e-05
0.00485859
3.72881e-05
0.00485103
3.82115e-05
0.00484329
3.91591e-05
0.00483537
4.01304e-05
0.00482725
4.11252e-05
0.00481893
4.21433e-05
0.00481041
4.31849e-05
0.00480168
4.425e-05
0.00479275
4.53398e-05
0.0047836
4.64566e-05
0.00477424
4.7608e-05
4.88168e-05
0.00476465
0.00505063
7.76045e-07
0.00505025
2.26205e-06
0.00504965
3.66913e-06
0.00504882
5.00639e-06
0.00504778
6.28382e-06
0.00504653
7.50785e-06
0.0050451
8.68443e-06
0.00504347
9.82729e-06
0.00504165
1.09682e-05
0.00503964
1.21621e-05
0.00503741
1.34809e-05
0.00503494
1.49942e-05
0.00503218
1.67452e-05
0.0050291
1.87307e-05
0.00502567
2.08941e-05
0.00502187
2.31339e-05
0.00501772
2.53248e-05
0.00501323
2.73429e-05
0.00500844
2.9089e-05
0.00500343
3.05027e-05
0.00499823
3.15674e-05
0.0049929
3.23058e-05
0.00498748
3.27696e-05
0.00498202
3.30271e-05
0.00497653
3.31513e-05
0.00497103
3.32105e-05
0.00496552
3.32624e-05
0.00495999
3.33511e-05
0.00495444
3.35069e-05
0.00494885
3.37477e-05
0.0049432
3.40816e-05
0.00493749
3.4509e-05
0.0049317
3.50259e-05
0.00492582
3.56253e-05
0.00491983
3.62988e-05
0.00491372
3.70381e-05
0.00490749
3.78354e-05
0.00490112
3.8684e-05
0.00489461
3.95781e-05
0.00488795
4.05129e-05
0.00488113
4.14849e-05
0.00487416
4.24911e-05
0.00486702
4.35294e-05
0.00485971
4.45982e-05
0.00485222
4.56963e-05
0.00484456
4.6823e-05
0.00483671
4.79777e-05
0.00482868
4.916e-05
0.00482045
5.03696e-05
0.00481203
5.16065e-05
0.00480341
5.28708e-05
0.00479458
5.41633e-05
0.00478555
5.5486e-05
0.00477632
5.68457e-05
5.82627e-05
0.00476687
0.00505063
9.04087e-07
0.00505026
2.635e-06
0.00504965
4.27417e-06
0.00504883
5.83186e-06
0.00504779
7.31982e-06
0.00504655
8.74558e-06
0.00504512
1.0116e-05
0.0050435
1.14471e-05
0.00504169
1.27752e-05
0.00503969
1.41638e-05
0.00503748
1.56958e-05
0.00503502
1.74521e-05
0.00503228
1.9483e-05
0.00502923
2.17857e-05
0.00502582
2.42956e-05
0.00502206
2.68961e-05
0.00501794
2.94425e-05
0.0050135
3.17916e-05
0.00500876
3.38279e-05
0.00500378
3.54808e-05
0.00499862
3.673e-05
0.00499332
3.76006e-05
0.00498794
3.81517e-05
0.0049825
3.84616e-05
0.00497704
3.86146e-05
0.00497156
3.86896e-05
0.00496607
3.87535e-05
0.00496056
3.88578e-05
0.00495503
3.90378e-05
0.00494947
3.93149e-05
0.00494385
3.96986e-05
0.00493817
4.01901e-05
0.00493241
4.07847e-05
0.00492656
4.14747e-05
0.00492061
4.22505e-05
0.00491454
4.31026e-05
0.00490836
4.40221e-05
0.00490204
4.50011e-05
0.00489559
4.60329e-05
0.00488899
4.7112e-05
0.00488224
4.82341e-05
0.00487533
4.93958e-05
0.00486827
5.05945e-05
0.00486104
5.18285e-05
0.00485364
5.30961e-05
0.00484606
5.43964e-05
0.00483831
5.57287e-05
0.00483038
5.70924e-05
0.00482226
5.84872e-05
0.00481396
5.99128e-05
0.00480546
6.13691e-05
0.00479676
6.28566e-05
0.00478787
6.43766e-05
0.00477879
6.59331e-05
0.00476951
6.75376e-05
0.00476022
-8.24475e-08
2.71975e-09
0.00475977
4.49355e-07
2.66574e-09
0.00475875
1.01615e-06
2.62076e-09
0.00475712
1.62047e-06
2.57257e-09
0.00475486
2.26535e-06
2.51977e-09
0.0047519
2.95429e-06
2.46265e-09
0.00474821
3.69119e-06
2.40109e-09
0.00474372
4.48041e-06
2.33508e-09
0.00473839
5.32683e-06
2.26439e-09
0.00473216
6.2359e-06
2.18894e-09
0.00472494
7.21371e-06
2.10832e-09
0.00471667
8.2671e-06
2.02234e-09
0.00470727
9.40372e-06
1.9308e-09
0.00469663
1.06322e-05
1.83539e-09
0.00468467
1.19623e-05
1.72924e-09
0.00467126
1.34049e-05
1.62943e-09
0.00465629
1.49726e-05
1.49634e-09
0.00463961
1.66795e-05
1.35032e-09
0.00462106
1.85418e-05
1.21049e-09
0.00460048
2.05779e-05
1.05082e-09
0.00457767
2.28092e-05
9.00072e-10
0.00455241
2.52601e-05
7.43243e-10
0.00452445
2.79591e-05
5.77487e-10
0.00449351
3.09392e-05
4.0214e-10
0.00445928
3.42389e-05
2.17252e-10
0.00442137
3.79038e-05
2.28521e-11
0.00437938
4.19872e-05
-1.80398e-10
0.00433283
4.6553e-05
-3.92148e-10
0.00428115
5.16773e-05
-6.11915e-10
0.0042237
5.74516e-05
-8.39e-10
0.00415972
6.39867e-05
-1.07277e-09
0.0040883
7.14173e-05
-1.31285e-09
0.0040084
7.99081e-05
-1.55854e-09
0.00391874
8.96606e-05
-1.80979e-09
0.00381782
0.000100921
-2.06646e-09
0.00370383
0.000113988
-2.3284e-09
0.00357462
0.000129219
-2.59595e-09
0.00342759
0.000147028
-2.86991e-09
0.00325972
0.00016787
-3.15101e-09
0.00306753
0.000192197
-3.44019e-09
0.00284717
0.000220367
-3.73788e-09
0.00259471
0.000252465
-4.04295e-09
0.0023067
0.000288016
-4.35035e-09
0.00198119
0.000325513
-4.64619e-09
0.00161948
0.000361717
-4.89971e-09
0.00122881
0.00039067
-5.05092e-09
0.000826383
0.000402433
-4.99405e-09
0.000444896
0.000381491
-4.5613e-09
0.000140614
0.000304285
-3.51655e-09
0.000140615
-1.57721e-09
0.00475931
1.20354e-06
0.00475749
2.26594e-06
0.00475511
3.39747e-06
0.00475213
4.6038e-06
0.0047485
5.89114e-06
0.00474419
7.2665e-06
0.00473914
8.73773e-06
0.00473331
1.03136e-05
0.00472663
1.20039e-05
0.00471905
1.38195e-05
0.00471049
1.57727e-05
0.00470088
1.78771e-05
0.00469013
2.01481e-05
0.00467816
2.2603e-05
0.00466486
2.52613e-05
0.00465012
2.81449e-05
0.00463382
3.12788e-05
0.00461581
3.46915e-05
0.00459593
3.84153e-05
0.00457402
4.24872e-05
0.00454988
4.69499e-05
0.00452329
5.18525e-05
0.004494
5.72519e-05
0.00446172
6.32142e-05
0.00442614
6.98166e-05
0.0043869
7.71501e-05
0.00434356
8.53217e-05
0.00429566
9.44588e-05
0.00424262
0.000104713
0.00418381
0.000116268
0.00411845
0.000129344
0.00404566
0.000144209
0.00396438
0.00016119
0.00387335
0.000180686
0.00377108
0.000203186
0.0036558
0.000229278
0.00352535
0.000259664
0.00337722
0.000295154
0.00320846
0.000336635
0.00301568
0.000384975
0.0027952
0.000440844
0.00254331
0.000504358
0.00225683
0.000574503
0.00193413
0.000648211
0.00157685
0.000718996
0.00119251
0.000775007
0.000798435
0.000796508
0.000426983
0.000752944
0.000132371
0.000598898
0.000272986
0.0047575
5.20513e-06
0.00475297
6.79375e-06
0.00474788
8.48547e-06
0.0047422
1.0289e-05
0.00473588
1.22137e-05
0.00472887
1.42702e-05
0.00472114
1.64705e-05
0.00471262
1.88278e-05
0.00470327
2.13567e-05
0.00469302
2.40737e-05
0.00468179
2.69972e-05
0.00466952
3.01478e-05
0.00465612
3.35486e-05
0.0046415
3.72255e-05
0.00462555
4.12079e-05
0.00460817
4.55288e-05
0.00458922
5.02259e-05
0.00456857
5.53417e-05
0.00454606
6.0925e-05
0.00452152
6.70316e-05
0.00449474
7.37255e-05
0.00446551
8.10807e-05
0.00443358
8.91826e-05
0.00439867
9.81306e-05
0.00436044
0.000108041
0.00431854
0.00011905
0.00427255
0.000131318
0.00422197
0.000145036
0.00416625
0.000160431
0.00410474
0.000177778
0.00403668
0.000197403
0.00396118
0.000219708
0.0038772
0.000245176
0.00378349
0.000274398
0.00367858
0.000308091
0.00356074
0.000347118
0.00342791
0.0003925
0.00327765
0.000445408
0.00310718
0.000507105
0.00291335
0.000578806
0.0026928
0.000661397
0.00244224
0.000754912
0.00215906
0.00085768
0.00184229
0.000964981
0.00149421
0.00106708
0.00112278
0.00114644
0.000745334
0.00117395
0.000393752
0.00110453
0.000119703
0.000872947
0.000392689
0.00475482
1.32361e-05
0.00474627
1.53436e-05
0.00473717
1.75878e-05
0.00472748
1.99803e-05
0.00471716
2.25339e-05
0.00470617
2.52632e-05
0.00469445
2.81839e-05
0.00468197
3.13139e-05
0.00466865
3.46729e-05
0.00465444
3.82829e-05
0.00463927
4.21686e-05
0.00462306
4.63573e-05
0.00460573
5.08799e-05
0.00458718
5.57713e-05
0.00456732
6.10706e-05
0.00454603
6.6822e-05
0.00452318
7.30759e-05
0.00449863
7.98893e-05
0.00447223
8.73275e-05
0.00444379
9.54651e-05
0.00441313
0.000104388
0.00438002
0.000114194
0.0043442
0.000124999
0.0043054
0.000136935
0.00426328
0.000150157
0.00421748
0.000164847
0.00416758
0.00018122
0.00411309
0.000199529
0.00405344
0.000220077
0.003988
0.000243225
0.00391599
0.000269409
0.00383654
0.000299154
0.00374862
0.000333097
0.00365101
0.000372007
0.00354229
0.000416815
0.00342078
0.000468631
0.00328452
0.000528756
0.00313127
0.000598663
0.00295846
0.000679909
0.00276332
0.000773944
0.002543
0.000881722
0.00229489
0.00100302
0.00201723
0.00113534
0.00171003
0.00127218
0.00137649
0.00140062
0.00102506
0.00149787
0.000672598
0.00152641
0.000349158
0.00142797
0.000101767
0.00112034
0.000494456
0.00475133
2.65578e-05
0.0047375
2.91727e-05
0.00472313
3.19572e-05
0.00470818
3.49263e-05
0.00469262
3.80965e-05
0.0046764
4.14859e-05
0.00465947
4.51147e-05
0.00464177
4.90051e-05
0.00462327
5.31818e-05
0.00460388
5.76726e-05
0.00458354
6.25081e-05
0.00456217
6.77228e-05
0.0045397
7.33554e-05
0.00451602
7.94495e-05
0.00449103
8.60543e-05
0.00446463
9.32252e-05
0.00443668
0.000101025
0.00440704
0.000109526
0.00437556
0.00011881
0.00434206
0.000128971
0.00430633
0.000140115
0.00426815
0.000152368
0.00422728
0.000165871
0.00418342
0.000180793
0.00413625
0.000197327
0.0040854
0.0002157
0.00403044
0.000236182
0.00397088
0.000259087
0.00390616
0.000284794
0.00383564
0.000313749
0.00375856
0.000346492
0.00367404
0.000383669
0.00358108
0.000426056
0.0034785
0.00047459
0.00336493
0.000530387
0.00323879
0.000594769
0.00309828
0.000669262
0.00294139
0.000755555
0.00276592
0.000855383
0.00256959
0.000970268
0.00235029
0.00110103
0.00210638
0.00124693
0.0018373
0.00140441
0.00154442
0.00156506
0.00123214
0.0017129
0.00090939
0.00182062
0.000591714
0.00184409
0.000304342
0.00171534
8.40973e-05
0.00134058
0.000578553
0.00474707
4.63619e-05
0.00472677
4.94656e-05
0.00470596
5.27728e-05
0.00468458
5.63012e-05
0.00466261
6.00709e-05
0.00463999
6.41038e-05
0.00461668
6.8424e-05
0.00459263
7.30583e-05
0.00456777
7.80363e-05
0.00454206
8.33912e-05
0.0045154
8.91599e-05
0.00448774
9.5384e-05
0.00445899
0.00010211
0.00442905
0.00010939
0.00439782
0.000117284
0.00436518
0.000125858
0.00433102
0.000135189
0.00429518
0.000145363
0.00425752
0.000156478
0.00421784
0.000168648
0.00417595
0.000182002
0.00413163
0.00019669
0.00408462
0.000212884
0.00403463
0.000230785
0.00398133
0.000250627
0.00392434
0.000272683
0.00386325
0.000297274
0.00379756
0.000324781
0.0037267
0.000355651
0.00365003
0.000390419
0.0035668
0.000429722
0.00347615
0.000474318
0.00337709
0.000525116
0.00326849
0.000583193
0.00314905
0.000649823
0.00301734
0.000726482
0.00287176
0.000814838
0.00271065
0.000916673
0.00253231
0.00103372
0.00233525
0.00116732
0.00211844
0.00131784
0.0018817
0.00148367
0.00162632
0.00165979
0.00135574
0.00183564
0.0010762
0.00199245
0.000797375
0.00209944
0.000532526
0.00210894
0.000297078
0.00195078
0.000102427
0.00153523
0.00068098
0.00474213
7.37456e-05
0.00471428
7.7311e-05
0.00468594
8.11167e-05
0.00465706
8.51816e-05
0.0046276
8.95285e-05
0.00459752
9.41827e-05
0.00456677
9.91719e-05
0.00453531
0.000104527
0.00450306
0.000110283
0.00446997
0.000116478
0.00443598
0.000123155
0.004401
0.000130364
0.00436495
0.000138157
0.00432774
0.000146597
0.00428927
0.000155753
0.00424943
0.000165703
0.00420808
0.000176536
0.00416509
0.000188353
0.0041203
0.000201272
0.00407352
0.000215422
0.00402457
0.000230957
0.00397321
0.000248051
0.00391918
0.000266907
0.00386221
0.00028776
0.00380195
0.000310882
0.00373804
0.000336594
0.00367005
0.00036527
0.00359748
0.000397352
0.00351977
0.000433361
0.00343627
0.000473913
0.00334625
0.00051974
0.00324886
0.00057171
0.00314313
0.000630846
0.00302797
0.000698353
0.00290217
0.000775624
0.00276442
0.000864238
0.00261334
0.000965914
0.00244763
0.00108239
0.00226617
0.00121518
0.00206836
0.00136513
0.00185448
0.00153172
0.00162623
0.00171193
0.00138739
0.00189862
0.00114451
0.00207853
0.0009073
0.00222965
0.000688256
0.00231849
0.000500118
0.00229707
0.000347149
0.00210375
0.000210154
0.00167223
0.000891134
-2.7039e-05
2.70394e-05
-3.39548e-10
-7.8848e-05
5.18102e-05
-1.3229e-09
-0.000137522
5.86762e-05
-2.53704e-09
-0.000192603
5.50856e-05
-3.86646e-09
-0.000238312
4.57136e-05
-5.21831e-09
-0.000271682
3.33769e-05
-6.53425e-09
-0.000291405
1.97306e-05
-7.79503e-09
-0.000297012
5.61651e-06
-8.96932e-09
-0.000289035
-7.96786e-06
-9.69323e-09
-0.000268039
-2.09859e-05
-1.04072e-08
-0.000234611
-3.34166e-05
-1.08729e-08
-0.000189508
-4.50926e-05
-1.10152e-08
-0.000133513
-5.59834e-05
-1.07824e-08
-6.73973e-05
-6.61059e-05
-1.0108e-08
8.01219e-06
-7.54006e-05
-8.86335e-09
9.19227e-05
-8.39035e-05
-6.9528e-09
0.000183569
-9.16416e-05
-4.26661e-09
0.000282193
-9.86242e-05
-6.96783e-10
0.000387056
-0.000104866
3.82062e-09
0.000497431
-0.000110385
9.38969e-09
0.000612615
-0.000115199
1.53743e-08
0.000731915
-0.000119322
2.18852e-08
0.000854656
-0.000122769
2.77305e-08
0.000980175
-0.000125552
3.23913e-08
0.00110783
-0.000127693
3.60869e-08
0.00123701
-0.00012922
3.78808e-08
0.00136714
-0.000130164
3.82855e-08
0.00149766
-0.000130552
3.74686e-08
0.00162803
-0.000130415
3.57919e-08
0.00175778
-0.000129784
3.3593e-08
0.00188644
-0.000128688
3.11365e-08
0.00201358
-0.000127162
2.86044e-08
0.00213879
-0.000125238
2.61009e-08
0.00226171
-0.000122948
2.36764e-08
0.00238202
-0.000120328
2.13396e-08
0.00249941
-0.00011741
1.90792e-08
0.00261362
-0.000114229
1.68756e-08
0.00272442
-0.000110817
1.47081e-08
0.00283162
-0.000107209
1.25616e-08
0.00293504
-0.000103435
1.04281e-08
0.00303456
-9.95273e-05
8.30562e-09
0.00313007
-9.5516e-05
6.20231e-09
0.0032215
-9.14299e-05
4.13054e-09
0.00330879
-8.72962e-05
2.10758e-09
0.00339193
-8.31408e-05
1.56377e-10
0.00347092
-7.89877e-05
-1.69839e-09
0.00354579
-7.48589e-05
-3.43067e-09
0.00361656
-7.0774e-05
-5.01269e-09
0.00368332
-6.67492e-05
-6.42078e-09
-6.2797e-05
0.00374612
-7.64209e-09
-2.37458e-05
5.07852e-05
-6.93215e-05
9.7386e-05
-0.000120701
0.000110055
-0.000168745
0.00010313
-0.000208236
8.52044e-05
-0.000236458
6.15983e-05
-0.000252152
3.54254e-05
-0.000254731
8.19542e-06
-0.000244805
-1.78941e-05
-0.000222635
-4.31561e-05
-0.000188729
-6.73224e-05
-0.00014374
-9.0082e-05
-8.84005e-05
-0.000111323
-2.32332e-05
-0.000131273
5.08462e-05
-0.00014948
0.000133172
-0.000166229
0.000223044
-0.000181514
0.000319754
-0.000195334
0.000422605
-0.000207717
0.000530911
-0.000218691
0.000643998
-0.000228285
0.000761204
-0.000236529
0.000881879
-0.000243443
0.00100538
-0.000249056
0.00113109
-0.000253403
0.00125841
-0.000256537
0.00138676
-0.000258516
0.00151561
-0.000259397
0.00164443
-0.000259236
0.00177274
-0.000258091
0.00190007
-0.000256024
0.00202601
-0.000253097
0.00215014
-0.000249374
0.00227212
-0.000244922
0.00239159
-0.000239806
0.00250828
-0.000234094
0.0026219
-0.000227851
0.00273223
-0.000221146
0.00283906
-0.000214041
0.00294223
-0.000206603
0.00304159
-0.000198893
0.00313705
-0.000190971
0.00322851
-0.000182894
0.00331593
-0.000174717
0.00339929
-0.000166492
0.00347857
-0.000158267
0.00355379
-0.000150086
0.00362501
-0.000141987
0.00369226
-0.000134004
-0.000126159
0.00375562
-1.79655e-05
6.87506e-05
-5.1024e-05
0.000130445
-8.83834e-05
0.000147415
-0.000122954
0.000137701
-0.000150574
0.000112824
-0.000169025
8.00488e-05
-0.000177182
4.35825e-05
-0.000174007
5.02069e-06
-0.000160518
-3.13832e-05
-0.000136264
-6.741e-05
-0.000101571
-0.000102016
-5.68511e-05
-0.000134802
-2.54934e-06
-0.000165624
6.03587e-05
-0.000194181
0.000131758
-0.000220879
0.000210985
-0.000245456
0.000297404
-0.000267933
0.000390405
-0.000288335
0.000489373
-0.000306685
0.000593693
-0.000323011
0.000702756
-0.000337348
0.000815951
-0.000349725
0.00093268
-0.000360172
0.00105234
-0.000368716
0.00117434
-0.000375405
0.00129812
-0.000380311
0.00142311
-0.000383511
0.0015488
-0.000385088
0.00167469
-0.00038512
0.00180029
-0.00038369
0.00192515
-0.000380886
0.00204885
-0.000376798
0.00217099
-0.000371518
0.00229121
-0.000365142
0.00240917
-0.000357769
0.00252458
-0.000349495
0.00263714
-0.000340419
0.00274664
-0.00033064
0.00285285
-0.000320255
0.00295561
-0.000309358
0.00305476
-0.000298042
0.00315018
-0.000286397
0.0032418
-0.000274509
0.00332954
-0.00026246
0.00341337
-0.000250326
0.00349329
-0.000238181
0.00356929
-0.00022609
0.00364142
-0.000214111
0.00370971
-0.000202294
-0.000190669
0.00377422
-7.85987e-06
7.66105e-05
-2.43281e-05
0.000146913
-4.23519e-05
0.000165439
-5.82113e-05
0.00015356
-6.94911e-05
0.000124104
-7.46107e-05
8.51684e-05
-7.24474e-05
4.14191e-05
-6.2223e-05
-5.20376e-06
-4.39419e-05
-4.96643e-05
-1.70242e-05
-9.43277e-05
1.83908e-05
-0.000137431
6.22091e-05
-0.00017862
0.00011423
-0.000217646
0.000174321
-0.000254271
0.000241931
-0.00028849
0.000316695
-0.00032022
0.000398177
-0.000349415
0.000485904
-0.000376062
0.000579381
-0.000400161
0.000678093
-0.000421723
0.000781515
-0.00044077
0.000889117
-0.000457326
0.00100036
-0.000471413
0.0011147
-0.000483055
0.00123159
-0.000492296
0.00135049
-0.000499214
0.00147089
-0.000503911
0.00159228
-0.000506482
0.00171419
-0.000507025
0.00183614
-0.000505641
0.00195769
-0.000502438
0.00207842
-0.00049753
0.00219794
-0.000491036
0.00231588
-0.000483079
0.0024319
-0.000473785
0.00254568
-0.00046328
0.00265696
-0.000451693
0.00276547
-0.000439153
0.002871
-0.000425788
0.00297337
-0.000411722
0.0030724
-0.000397078
0.00316798
-0.000381974
0.00325999
-0.000366526
0.00334838
-0.000350842
0.00343308
-0.000335025
0.00351407
-0.000319172
0.00359135
-0.00030337
0.00366494
-0.0002877
0.00373487
-0.000272224
-0.000256978
0.00380117
5.53089e-06
7.10796e-05
1.04264e-05
0.000142017
1.62139e-05
0.000159651
2.24157e-05
0.000147358
2.99604e-05
0.00011656
3.99834e-05
7.51454e-05
5.395e-05
2.74526e-05
7.132e-05
-2.25738e-05
9.46831e-05
-7.30273e-05
0.000124005
-0.00012365
0.000159765
-0.00017319
0.0002022
-0.000221054
0.000251396
-0.000266841
0.000307375
-0.000310251
0.000370005
-0.000351121
0.000439094
-0.000389308
0.000514387
-0.000424708
0.000595571
-0.000457247
0.00068229
-0.00048688
0.000774148
-0.000513581
0.000870721
-0.000537344
0.000971567
-0.000558172
0.00107623
-0.000576071
0.00118421
-0.000591043
0.00129504
-0.000603119
0.0014082
-0.000612378
0.00152322
-0.00061893
0.00163962
-0.000622882
0.00175693
-0.000624341
0.00187471
-0.00062342
0.00199252
-0.000620244
0.00210994
-0.000614947
0.00222657
-0.000607668
0.00234204
-0.000598554
0.00245601
-0.000587756
0.00256816
-0.000575427
0.00267819
-0.000561726
0.00278585
-0.000546808
0.00289089
-0.000530831
0.00299312
-0.000513949
0.00309235
-0.000496313
0.00318845
-0.000478073
0.0032813
-0.00045937
0.00337079
-0.000440339
0.00345688
-0.000421112
0.00353951
-0.000401807
0.00361868
-0.000382538
0.00369438
-0.000363402
0.00376664
-0.000344481
-0.000325813
0.00383548
1.95943e-05
5.14853e-05
4.95779e-05
0.000112034
8.1596e-05
0.000127633
0.000112149
0.000116805
0.00014007
8.86388e-05
0.000165963
4.92529e-05
0.000192118
1.29745e-06
0.000216996
-4.7452e-05
0.000244613
-0.000100644
0.000275572
-0.00015461
0.000310722
-0.00020834
0.000350705
-0.000261038
0.000395973
-0.00031211
0.000446835
-0.000361112
0.00050344
-0.000407726
0.000565828
-0.000451696
0.00063394
-0.00049282
0.000707637
-0.000530944
0.000786708
-0.000565951
0.000870884
-0.000597757
0.00095985
-0.00062631
0.00105325
-0.000651575
0.00115071
-0.000673531
0.00125182
-0.000692148
0.00135612
-0.000707424
0.00146318
-0.000719431
0.00157253
-0.000728279
0.00168372
-0.000734076
0.00179631
-0.000736932
0.00190986
-0.000736967
0.00202393
-0.000734317
0.00213811
-0.000729127
0.002252
-0.000721557
0.00236522
-0.000711772
0.00247741
-0.000699945
0.00258824
-0.000686256
0.0026974
-0.000670887
0.00280461
-0.000654022
0.00290963
-0.000635846
0.00301222
-0.000616543
0.0031122
-0.000596292
0.0032094
-0.000575271
0.00330368
-0.000553651
0.00339493
-0.000531594
0.00348308
-0.000509257
0.00356806
-0.000486786
0.00364984
-0.000464316
0.0037284
-0.000441968
0.00380376
-0.00041984
-0.000397982
0.00387593
3.57924e-05
1.56929e-05
9.53655e-05
5.24606e-05
0.000154936
6.80629e-05
0.000208644
6.3097e-05
0.000254796
4.24868e-05
0.00029613
7.91867e-06
0.000329316
-3.18888e-05
0.000360996
-7.91319e-05
0.000391573
-0.000131221
0.000422874
-0.000185911
0.000456248
-0.000241714
0.000492746
-0.000297536
0.000533177
-0.000352541
0.000578144
-0.000406078
0.000628058
-0.000457641
0.000683184
-0.000506821
0.000743654
-0.00055329
0.000809493
-0.000596783
0.000880633
-0.00063709
0.000956925
-0.00067405
0.00103816
-0.000707541
0.00112406
-0.000737483
0.00121434
-0.000763807
0.00130864
-0.000786445
0.00140657
-0.000805357
0.00150772
-0.000820583
0.00161167
-0.000832222
0.00171797
-0.000840382
0.00182621
-0.000845166
0.00193593
-0.000846695
0.00204673
-0.000845109
0.00215816
-0.000840566
0.00226984
-0.000833234
0.00238137
-0.000823299
0.00249237
-0.000810951
0.00260251
-0.000796392
0.00271145
-0.000779829
0.0028189
-0.000761471
0.00292459
-0.000741532
0.00302827
-0.000720221
0.00312972
-0.000697749
0.00322877
-0.00067432
0.00332525
-0.000650134
0.00341904
-0.000625384
0.00351004
-0.000600251
0.00359816
-0.000574909
0.00368336
-0.000549518
0.00376562
-0.000524221
0.00384492
-0.000499139
0.00392128
-0.000474351
0.00381356
-6.74301e-05
-8.73711e-09
0.00387861
-6.50322e-05
-9.84216e-09
0.00394119
-6.2576e-05
-1.08683e-08
0.00400129
-6.00827e-05
-1.17893e-08
0.00405887
-5.75666e-05
-1.25609e-08
0.00411392
-5.50404e-05
-1.31466e-08
0.00416645
-5.25166e-05
-1.35171e-08
0.00421647
-5.0008e-05
-1.36529e-08
0.00426401
-4.75268e-05
-1.35462e-08
0.00430911
-4.50855e-05
-1.32014e-08
0.00435182
-4.26956e-05
-1.26312e-08
0.0043922
-4.03684e-05
-1.18547e-08
0.00443032
-3.8114e-05
-1.08997e-08
0.00446628
-3.59414e-05
-9.79622e-09
0.00450014
-3.38581e-05
-8.57535e-09
0.00453202
-3.18703e-05
-7.26891e-09
0.00456201
-2.99824e-05
-5.90873e-09
0.00459021
-2.81973e-05
-4.52268e-09
0.00461673
-2.65161e-05
-3.13488e-09
0.00464167
-2.49385e-05
-1.76702e-09
0.00466513
-2.34626e-05
-4.36483e-10
0.00468722
-2.20854e-05
8.45605e-10
0.00470802
-2.08024e-05
2.07042e-09
0.00472762
-1.96083e-05
3.23255e-09
0.00474611
-1.84967e-05
4.32987e-09
0.00476357
-1.74605e-05
5.36203e-09
0.00478006
-1.6492e-05
6.32694e-09
0.00479563
-1.55832e-05
7.2216e-09
0.00481035
-1.4726e-05
8.04204e-09
0.00482425
-1.39129e-05
8.78014e-09
0.00483738
-1.31369e-05
9.4243e-09
0.00484976
-1.23929e-05
9.96137e-09
0.00486143
-1.16771e-05
1.03769e-08
0.00487241
-1.09884e-05
1.06562e-08
0.00488272
-1.03274e-05
1.07866e-08
0.00489241
-9.69705e-06
1.07614e-08
0.0049015
-9.10119e-06
1.05792e-08
0.00491004
-8.54413e-06
1.02455e-08
0.00491806
-8.02948e-06
9.7741e-09
0.00492561
-7.55928e-06
9.18471e-09
0.00493273
-7.13346e-06
8.50038e-09
0.00493947
-6.74971e-06
7.74768e-09
0.00494587
-6.40375e-06
6.95379e-09
0.00495195
-6.09012e-06
6.1522e-09
0.00495775
-5.80239e-06
5.35711e-09
0.00496328
-5.53525e-06
4.55893e-09
0.00496856
-5.28376e-06
3.8032e-09
0.0049736
-5.044e-06
3.08618e-09
0.00497841
-4.8133e-06
2.41682e-09
0.004983
-4.59004e-06
1.79675e-09
0.00498737
-4.37341e-06
1.22737e-09
0.00499154
-4.16311e-06
7.08843e-10
0.00499549
-3.95911e-06
2.39564e-10
0.00499926
-3.76155e-06
-1.85547e-10
0.00500283
-3.57054e-06
-5.73989e-10
0.00500621
-3.38617e-06
-9.34579e-10
0.00500942