/*--------------------------------*- C++ -*----------------------------------*\
| =========                 |                                                 |
| \\      /  F ield         | OpenFOAM: The Open Source CFD Toolbox           |
|  \\    /   O peration     | Version:  2412                                  |
|   \\  /    A nd           | Website:  www.openfoam.com                      |
|    \\/     M anipulation  |                                                 |
\*---------------------------------------------------------------------------*/
FoamFile
{
    version     2.0;
    format      ascii;
    arch        "LSB;label=32;scalar=64";
    class       volVectorField;
    location    "25.5";
    object      U;
}
// * * * * * * * * * * * * * * * * * * * * * * * * * * * * * * * * * * * * * //

dimensions      [0 1 -1 0 0 0 0];

internalField   nonuniform List<vector> 
63420
(
(0.0999997 4.39342e-07 0)
(0.099995 1.30676e-06 0)
(0.099985 2.16186e-06 0)
(0.0999706 3.009e-06 0)
(0.0999519 3.85254e-06 0)
(0.099929 4.6952e-06 0)
(0.0999022 5.53975e-06 0)
(0.0998715 6.39455e-06 0)
(0.0998371 7.28109e-06 0)
(0.0997988 8.23886e-06 0)
(0.0997565 9.32206e-06 0)
(0.0997094 1.05871e-05 0)
(0.0996569 1.20746e-05 0)
(0.0995981 1.37922e-05 0)
(0.0995323 1.5707e-05 0)
(0.099459 1.77479e-05 0)
(0.0993782 1.98196e-05 0)
(0.0992903 2.18212e-05 0)
(0.0991961 2.36648e-05 0)
(0.0990967 2.52898e-05 0)
(0.0989932 2.66691e-05 0)
(0.0988868 2.78086e-05 0)
(0.0987786 2.8741e-05 0)
(0.0986693 2.95167e-05 0)
(0.0985596 3.01944e-05 0)
(0.0984496 3.08327e-05 0)
(0.0983395 3.14841e-05 0)
(0.0982293 3.21917e-05 0)
(0.0981187 3.29878e-05 0)
(0.0980073 3.38945e-05 0)
(0.0978951 3.49248e-05 0)
(0.0977815 3.60851e-05 0)
(0.0976663 3.73766e-05 0)
(0.0975491 3.87975e-05 0)
(0.0974298 4.03445e-05 0)
(0.0973081 4.20137e-05 0)
(0.0971837 4.38017e-05 0)
(0.0970565 4.57055e-05 0)
(0.0969264 4.77232e-05 0)
(0.0967932 4.98541e-05 0)
(0.0966567 5.20982e-05 0)
(0.0965168 5.44567e-05 0)
(0.0963735 5.69316e-05 0)
(0.0962267 5.95255e-05 0)
(0.0960761 6.22418e-05 0)
(0.0959217 6.50841e-05 0)
(0.0957635 6.80569e-05 0)
(0.0956013 7.11649e-05 0)
(0.0954351 7.44132e-05 0)
(0.0952646 7.78075e-05 0)
(0.0950899 8.13545e-05 0)
(0.0949108 8.50626e-05 0)
(0.0947273 8.89459e-05 0)
(0.0945391 9.30348e-05 0)
(0.0943461 9.74063e-05 0)
(0.0999997 1.31802e-06 0)
(0.099995 3.92017e-06 0)
(0.0999851 6.48527e-06 0)
(0.0999707 9.02629e-06 0)
(0.0999519 1.15564e-05 0)
(0.0999291 1.40839e-05 0)
(0.0999023 1.66171e-05 0)
(0.0998716 1.9181e-05 0)
(0.0998372 2.18399e-05 0)
(0.099799 2.47117e-05 0)
(0.0997567 2.79584e-05 0)
(0.0997097 3.17488e-05 0)
(0.0996572 3.6204e-05 0)
(0.0995985 4.13479e-05 0)
(0.0995328 4.7082e-05 0)
(0.0994596 5.31949e-05 0)
(0.099379 5.94017e-05 0)
(0.0992912 6.5401e-05 0)
(0.0991972 7.09306e-05 0)
(0.0990979 7.58087e-05 0)
(0.0989945 7.99541e-05 0)
(0.0988883 8.33837e-05 0)
(0.0987802 8.61946e-05 0)
(0.098671 8.85369e-05 0)
(0.0985613 9.05855e-05 0)
(0.0984515 9.25153e-05 0)
(0.0983415 9.44831e-05 0)
(0.0982313 9.66176e-05 0)
(0.0981207 9.90155e-05 0)
(0.0980095 0.000101743 0)
(0.0978973 0.000104839 0)
(0.0977837 0.000108322 0)
(0.0976686 0.000112198 0)
(0.0975516 0.00011646 0)
(0.0974324 0.000121099 0)
(0.0973108 0.000126104 0)
(0.0971866 0.000131464 0)
(0.0970596 0.00013717 0)
(0.0969296 0.000143218 0)
(0.0967966 0.000149604 0)
(0.0966603 0.000156329 0)
(0.0965207 0.000163397 0)
(0.0963776 0.000170813 0)
(0.096231 0.000178586 0)
(0.0960807 0.000186725 0)
(0.0959267 0.000195241 0)
(0.0957688 0.000204148 0)
(0.0956069 0.000213459 0)
(0.095441 0.00022319 0)
(0.095271 0.000233358 0)
(0.0950967 0.000243983 0)
(0.094918 0.000255089 0)
(0.0947349 0.000266718 0)
(0.0945473 0.00027896 0)
(0.0943548 0.000292042 0)
(0.0999997 2.19581e-06 0)
(0.099995 6.53078e-06 0)
(0.0999851 1.08041e-05 0)
(0.0999707 1.50372e-05 0)
(0.099952 1.92521e-05 0)
(0.0999292 2.34625e-05 0)
(0.0999024 2.76825e-05 0)
(0.0998718 3.19535e-05 0)
(0.0998374 3.63821e-05 0)
(0.0997993 4.11639e-05 0)
(0.099757 4.65678e-05 0)
(0.0997101 5.28744e-05 0)
(0.0996578 6.02854e-05 0)
(0.0995993 6.88415e-05 0)
(0.0995338 7.83801e-05 0)
(0.0994608 8.85509e-05 0)
(0.0993805 9.88815e-05 0)
(0.099293 0.000108871 0)
(0.0991993 0.000118084 0)
(0.0991003 0.000126218 0)
(0.0989972 0.000133136 0)
(0.0988912 0.000138864 0)
(0.0987834 0.000143564 0)
(0.0986744 0.000147483 0)
(0.0985649 0.000150911 0)
(0.0984551 0.000154139 0)
(0.0983453 0.000157426 0)
(0.0982352 0.000160988 0)
(0.0981248 0.000164985 0)
(0.0980137 0.000169527 0)
(0.0979016 0.00017468 0)
(0.0977883 0.000180476 0)
(0.0976733 0.000186922 0)
(0.0975565 0.000194011 0)
(0.0974376 0.000201726 0)
(0.0973162 0.000210049 0)
(0.0971923 0.000218962 0)
(0.0970656 0.000228452 0)
(0.096936 0.000238509 0)
(0.0968034 0.000249129 0)
(0.0966675 0.000260312 0)
(0.0965284 0.000272065 0)
(0.0963858 0.000284397 0)
(0.0962397 0.000297322 0)
(0.09609 0.000310854 0)
(0.0959365 0.000325013 0)
(0.0957792 0.00033982 0)
(0.0956181 0.000355299 0)
(0.0954529 0.000371474 0)
(0.0952836 0.000388373 0)
(0.0951101 0.000406028 0)
(0.0949323 0.000424481 0)
(0.0947502 0.000443797 0)
(0.0945635 0.000464118 0)
(0.0943721 0.000485806 0)
(0.0999997 3.07215e-06 0)
(0.099995 9.1367e-06 0)
(0.0999851 1.51154e-05 0)
(0.0999708 2.10374e-05 0)
(0.0999521 2.69339e-05 0)
(0.0999293 3.28243e-05 0)
(0.0999026 3.8728e-05 0)
(0.0998721 4.47026e-05 0)
(0.0998378 5.08964e-05 0)
(0.0997997 5.75815e-05 0)
(0.0997576 6.51326e-05 0)
(0.0997108 7.39406e-05 0)
(0.0996587 8.42879e-05 0)
(0.0996004 9.6233e-05 0)
(0.0995352 0.000109552 0)
(0.0994626 0.000123757 0)
(0.0993827 0.000138193 0)
(0.0992957 0.000152161 0)
(0.0992024 0.000165054 0)
(0.0991038 0.000176446 0)
(0.0990012 0.000186146 0)
(0.0988956 0.000194188 0)
(0.098788 0.000200793 0)
(0.0986794 0.000206305 0)
(0.0985701 0.000211127 0)
(0.0984606 0.000215662 0)
(0.0983509 0.000220275 0)
(0.0982411 0.000225264 0)
(0.0981308 0.000230855 0)
(0.0980199 0.000237201 0)
(0.0979081 0.000244397 0)
(0.097795 0.000252488 0)
(0.0976804 0.000261484 0)
(0.0975639 0.000271375 0)
(0.0974453 0.00028214 0)
(0.0973243 0.000293753 0)
(0.0972009 0.000306189 0)
(0.0970747 0.00031943 0)
(0.0969456 0.000333462 0)
(0.0968135 0.00034828 0)
(0.0966783 0.000363884 0)
(0.0965398 0.000380282 0)
(0.096398 0.000397488 0)
(0.0962527 0.000415518 0)
(0.0961038 0.000434396 0)
(0.0959512 0.000454147 0)
(0.0957949 0.000474799 0)
(0.0956347 0.000496385 0)
(0.0954706 0.000518939 0)
(0.0953025 0.000542499 0)
(0.0951302 0.000567108 0)
(0.0949537 0.000592821 0)
(0.0947729 0.000619725 0)
(0.0945877 0.000648003 0)
(0.094398 0.000678115 0)
(0.0999997 3.94651e-06 0)
(0.099995 1.1736e-05 0)
(0.0999852 1.94161e-05 0)
(0.0999708 2.70228e-05 0)
(0.0999523 3.45966e-05 0)
(0.0999295 4.21625e-05 0)
(0.0999029 4.97455e-05 0)
(0.0998724 5.7419e-05 0)
(0.0998383 6.5372e-05 0)
(0.0998003 7.39513e-05 0)
(0.0997583 8.36353e-05 0)
(0.0997117 9.49245e-05 0)
(0.0996599 0.000108182 0)
(0.0996019 0.000123484 0)
(0.0995371 0.000140549 0)
(0.099465 0.000158758 0)
(0.0993856 0.000177274 0)
(0.0992991 0.000195204 0)
(0.0992064 0.00021177 0)
(0.0991084 0.000226425 0)
(0.0990064 0.00023892 0)
(0.0989013 0.000249295 0)
(0.0987942 0.000257827 0)
(0.0986859 0.000264953 0)
(0.098577 0.000271187 0)
(0.0984678 0.000277045 0)
(0.0983584 0.00028299 0)
(0.0982488 0.000289406 0)
(0.0981388 0.000296583 0)
(0.0980282 0.000304721 0)
(0.0979167 0.00031394 0)
(0.0978039 0.0003243 0)
(0.0976897 0.000335816 0)
(0.0975736 0.000348476 0)
(0.0974555 0.000362254 0)
(0.0973351 0.000377117 0)
(0.0972122 0.000393034 0)
(0.0970867 0.000409982 0)
(0.0969583 0.000427942 0)
(0.096827 0.000446908 0)
(0.0966927 0.000466881 0)
(0.0965551 0.000487869 0)
(0.0964142 0.00050989 0)
(0.0962699 0.000532964 0)
(0.0961221 0.00055712 0)
(0.0959707 0.00058239 0)
(0.0958157 0.000608811 0)
(0.0956568 0.000636421 0)
(0.0954941 0.000665264 0)
(0.0953275 0.000695388 0)
(0.0951568 0.000726844 0)
(0.0949821 0.0007597 0)
(0.0948031 0.000794056 0)
(0.0946199 0.00083012 0)
(0.0944322 0.000868411 0)
(0.0999997 4.81852e-06 0)
(0.099995 1.43269e-05 0)
(0.0999852 2.37033e-05 0)
(0.0999709 3.29892e-05 0)
(0.0999524 4.22348e-05 0)
(0.0999298 5.14707e-05 0)
(0.0999032 6.07274e-05 0)
(0.0998729 7.00937e-05 0)
(0.0998388 7.97979e-05 0)
(0.099801 9.02599e-05 0)
(0.0997592 0.00010206 0)
(0.0997129 0.000115805 0)
(0.0996613 0.000131939 0)
(0.0996037 0.00015056 0)
(0.0995394 0.00017133 0)
(0.0994679 0.000193503 0)
(0.0993891 0.000216066 0)
(0.0993033 0.000237937 0)
(0.0992114 0.000258168 0)
(0.0991141 0.000276091 0)
(0.0990127 0.000291397 0)
(0.0989082 0.000304127 0)
(0.0988017 0.000314613 0)
(0.0986939 0.00032338 0)
(0.0985854 0.000331049 0)
(0.0984765 0.000338243 0)
(0.0983675 0.000345529 0)
(0.0982583 0.000353371 0)
(0.0981486 0.000362126 0)
(0.0980384 0.000372037 0)
(0.0979272 0.000383253 0)
(0.0978149 0.00039585 0)
(0.0977012 0.000409849 0)
(0.0975857 0.000425237 0)
(0.0974682 0.000441981 0)
(0.0973484 0.000460044 0)
(0.0972263 0.000479389 0)
(0.0971016 0.000499987 0)
(0.0969741 0.000521816 0)
(0.0968438 0.000544868 0)
(0.0967105 0.000569143 0)
(0.096574 0.00059465 0)
(0.0964343 0.000621411 0)
(0.0962913 0.000649449 0)
(0.0961449 0.000678799 0)
(0.095995 0.000709498 0)
(0.0958414 0.00074159 0)
(0.0956843 0.00077512 0)
(0.0955233 0.000810139 0)
(0.0953586 0.000846703 0)
(0.0951899 0.000884872 0)
(0.0950172 0.00092472 0)
(0.0948405 0.000966357 0)
(0.0946597 0.00100999 0)
(0.0944747 0.00105615 0)
(0.0999997 5.68746e-06 0)
(0.0999951 1.69081e-05 0)
(0.0999853 2.79742e-05 0)
(0.0999711 3.89325e-05 0)
(0.0999526 4.98431e-05 0)
(0.0999301 6.07424e-05 0)
(0.0999036 7.16659e-05 0)
(0.0998734 8.27176e-05 0)
(0.0998395 9.41637e-05 0)
(0.0998019 0.000106495 0)
(0.0997603 0.000120389 0)
(0.0997143 0.000136561 0)
(0.099663 0.000155533 0)
(0.0996059 0.000177427 0)
(0.0995421 0.000201853 0)
(0.0994713 0.000227945 0)
(0.0993932 0.000254518 0)
(0.0993083 0.000280305 0)
(0.0992171 0.00030419 0)
(0.0991207 0.000325386 0)
(0.09902 0.00034352 0)
(0.0989163 0.000358631 0)
(0.0988104 0.0003711 0)
(0.0987032 0.000381537 0)
(0.0985952 0.000390665 0)
(0.0984868 0.000399214 0)
(0.0983782 0.000407848 0)
(0.0982694 0.000417115 0)
(0.0981602 0.000427435 0)
(0.0980504 0.000439097 0)
(0.0979398 0.00045228 0)
(0.097828 0.000467077 0)
(0.0977148 0.000483513 0)
(0.0976 0.000501577 0)
(0.0974832 0.000521232 0)
(0.0973643 0.000542436 0)
(0.0972431 0.000565145 0)
(0.0971194 0.000589325 0)
(0.096993 0.000614952 0)
(0.0968638 0.000642013 0)
(0.0967317 0.00067051 0)
(0.0965966 0.000700453 0)
(0.0964583 0.000731863 0)
(0.0963168 0.000764771 0)
(0.096172 0.000799212 0)
(0.0960238 0.000835231 0)
(0.0958722 0.000872877 0)
(0.095717 0.0009122 0)
(0.0955581 0.00095326 0)
(0.0953955 0.000996118 0)
(0.0952292 0.00104084 0)
(0.0950591 0.00108751 0)
(0.094885 0.00113622 0)
(0.0947071 0.00118716 0)
(0.0945251 0.00124076 0)
(0.0941472 0.000102284 -4.44641e-24)
(0.0939404 0.000107445 -4.53435e-24)
(0.0937237 0.000112948 -3.17355e-26)
(0.0934964 0.000118819 1.39375e-23)
(0.0932579 0.000125089 -4.61646e-24)
(0.0930074 0.000131793 -4.75329e-24)
(0.0927441 0.000138969 -1.46418e-23)
(0.0924671 0.000146661 1.45373e-23)
(0.0921755 0.000154918 4.97616e-24)
(0.0918681 0.000163792 0)
(0.0915438 0.000173346 5.14334e-24)
(0.0912013 0.000183645 -5.23323e-24)
(0.0908392 0.000194767 4.30642e-23)
(0.090456 0.000206798 -9.23053e-23)
(0.09005 0.000219832 4.93444e-23)
(0.0896192 0.000233981 4.00045e-23)
(0.0891616 0.000249368 5.13337e-23)
(0.0886747 0.000266133 -5.88041e-24)
(0.0881561 0.000284436 6.00982e-24)
(0.0876028 0.000304463 -6.14661e-24)
(0.0870116 0.000326423 0)
(0.0863787 0.000350562 6.44468e-24)
(0.0857001 0.00037716 -6.60725e-24)
(0.0849711 0.000406548 0)
(0.0841864 0.000439107 -6.96319e-24)
(0.0833401 0.000475291 0)
(0.0824251 0.000515631 -7.36605e-24)
(0.0814337 0.000560762 -1.23445e-22)
(0.0803566 0.00061144 1.3108e-22)
(0.0791833 0.000668577 -1.31571e-22)
(0.0779014 0.000733277 1.31371e-22)
(0.0764964 0.00080688 0)
(0.0749513 0.000891028 0)
(0.0732457 0.000987727 1.60922e-22)
(0.0713556 0.00109943 -1.5141e-22)
(0.0692519 0.00122913 0)
(0.0669 0.00138037 0)
(0.0642585 0.00155728 0)
(0.0612783 0.00176441 0)
(0.0579023 0.00200625 0)
(0.0540656 0.00228634 0)
(0.0496989 0.0026055 0)
(0.0447346 0.0029589 0)
(0.0391205 0.00333142 0)
(0.0328429 0.00369071 -1.47844e-23)
(0.0259657 0.00397726 -5.06944e-22)
(0.0186722 0.00409238 5.06184e-22)
(0.0113358 0.00388554 5.49607e-22)
(0.00485025 0.00312566 -5.48783e-22)
(0.000988063 0.0014518 0)
(0.0941563 0.000306643 -4.49919e-24)
(0.0939497 0.000322094 -9.17955e-24)
(0.0937332 0.000338566 -4.81517e-24)
(0.0935061 0.000356142 4.48092e-24)
(0.0932679 0.000374914 -4.6816e-24)
(0.0930177 0.000394984 3.3562e-23)
(0.0927548 0.000416471 -5.27095e-23)
(0.0924782 0.000439504 4.89722e-24)
(0.092187 0.000464227 6.53892e-23)
(0.0918802 0.000490803 -9.0309e-23)
(0.0915565 0.000519413 -8.82311e-23)
(0.0912147 0.000550261 7.77463e-23)
(0.0908534 0.000583573 0)
(0.090471 0.000619608 5.43242e-24)
(0.0900659 0.000658655 -1.66056e-23)
(0.0896362 0.000701041 -1.88382e-22)
(0.0891797 0.000747138 1.80837e-22)
(0.0886943 0.000797366 -1.92235e-22)
(0.0881772 0.000852208 -1.80555e-23)
(0.0876256 0.000912215 6.16009e-24)
(0.0870363 0.00097802 0)
(0.0864057 0.00105036 -6.46137e-24)
(0.0857297 0.00113007 -2.08264e-22)
(0.0850036 0.00121814 4.35245e-22)
(0.0842224 0.00131572 2.40154e-22)
(0.08338 0.00142416 -4.5291e-22)
(0.0824696 0.00154506 4.87794e-22)
(0.0814836 0.00168032 -4.94973e-22)
(0.0804129 0.0018322 -7.85513e-24)
(0.0792473 0.00200341 0)
(0.0779745 0.00219727 0)
(0.0765806 0.00241777 0)
(0.075049 0.0026698 0)
(0.0733601 0.00295933 -9.32741e-24)
(0.0714906 0.00329367 -6.32262e-22)
(0.0694128 0.00368163 -2.65062e-23)
(0.0670936 0.00413377 6.57056e-22)
(0.0644938 0.00466226 7.14948e-22)
(0.0615666 0.00528043 -7.14001e-22)
(0.058258 0.0060014 -2.36938e-23)
(0.0545066 0.00683529 -2.47343e-23)
(0.0502461 0.00778399 -8.51952e-22)
(0.0454111 0.00883242 8.23901e-22)
(0.039948 0.00993475 -2.80377e-23)
(0.0338356 0.0109939 1.48878e-23)
(0.0271183 0.0118324 -1.03089e-21)
(0.0199433 0.0121562 1.0305e-21)
(0.0126229 0.0115184 -2.14915e-21)
(0.00592996 0.00924148 2.1132e-21)
(0.00142654 0.00426138 -2.1649e-21)
(0.0941744 0.000510002 -2.66105e-23)
(0.0939681 0.000535659 -9.34534e-24)
(0.0937521 0.000563005 3.60282e-23)
(0.0935255 0.000592183 -7.41481e-23)
(0.0932879 0.000623346 1.58682e-22)
(0.0930384 0.000656667 -7.51798e-23)
(0.0927762 0.000692342 1.41824e-26)
(0.0925005 0.000730587 9.76707e-24)
(0.0922102 0.000771644 1.70367e-22)
(0.0919045 0.000815783 -1.60259e-22)
(0.091582 0.000863307 0)
(0.0912416 0.000914553 1.45688e-26)
(0.0908818 0.000969902 0)
(0.0905012 0.00102978 1.86618e-22)
(0.0900981 0.00109467 -1.64496e-22)
(0.0896706 0.00116512 -3.54778e-22)
(0.0892166 0.00124175 1.97786e-23)
(0.0887339 0.00132525 -3.73618e-22)
(0.08822 0.00141643 1.20815e-23)
(0.087672 0.00151621 -4.00381e-22)
(0.0870867 0.00162565 4.12647e-22)
(0.0864607 0.00174595 -4.20608e-22)
(0.08579 0.00187854 4.33503e-22)
(0.08507 0.00202503 1.3646e-23)
(0.0842957 0.00218736 -1.40212e-23)
(0.0834615 0.00236776 1.44198e-23)
(0.0825606 0.00256888 -4.83051e-22)
(0.0815857 0.00279388 4.97922e-22)
(0.0805281 0.0030465 5.29802e-22)
(0.079378 0.00333126 -5.13541e-22)
(0.078124 0.00365359 0)
(0.0767526 0.0040201 0)
(0.0752485 0.00443883 1.80387e-23)
(0.0735934 0.00491958 1.24267e-21)
(0.0717658 0.00547426 2.94708e-23)
(0.0697404 0.00611727 -1.25032e-21)
(0.0674874 0.00686566 0)
(0.0649715 0.00773905 -2.18264e-23)
(0.0621512 0.00875866 1.519e-21)
(0.0589783 0.00994508 -3.03155e-21)
(0.0553983 0.0113135 3.21182e-21)
(0.0513512 0.0128651 9.55902e-23)
(0.0467755 0.0145727 -1.66712e-21)
(0.0416153 0.0163585 -1.80213e-21)
(0.0358336 0.0180609 1.85726e-21)
(0.0294348 0.0193879 1.43056e-24)
(0.0224932 0.0198575 -3.15339e-23)
(0.0151997 0.0187356 2.07711e-21)
(0.00807216 0.0149445 -2.01134e-21)
(0.002269 0.00682641 -2.01184e-21)
(0.0942015 0.000711667 1.75313e-23)
(0.0939957 0.000747376 -8.89889e-24)
(0.0937803 0.000785426 1.95056e-26)
(0.0935546 0.000826019 9.16129e-24)
(0.0933178 0.000869372 -1.96062e-26)
(0.0930694 0.000915732 1.52291e-22)
(0.0928084 0.000965371 -2.8781e-22)
(0.092534 0.00101859 1.547e-22)
(0.0922454 0.00107574 -9.90749e-24)
(0.0919413 0.00113718 1.83187e-22)
(0.0916208 0.00120335 -1.62946e-22)
(0.0912826 0.00127472 -3.38323e-22)
(0.0909253 0.00135181 6.83204e-22)
(0.0905474 0.00143522 -6.96829e-22)
(0.0901473 0.00152563 7.11109e-22)
(0.0897233 0.0016238 -7.14824e-22)
(0.0892732 0.00173059 -3.78472e-22)
(0.0887949 0.00184698 2.24724e-26)
(0.0882859 0.0019741 0)
(0.0877434 0.00211322 -3.89892e-22)
(0.0871645 0.00226582 4.0213e-22)
(0.0865458 0.0024336 0)
(0.0858833 0.00261852 -8.68817e-22)
(0.0851728 0.00282286 8.54718e-22)
(0.0844096 0.00304931 1.41547e-23)
(0.083588 0.00330097 -3.69717e-26)
(0.0827019 0.00358155 1.49615e-23)
(0.0817443 0.00389541 0)
(0.0807072 0.00424776 -5.30126e-26)
(0.0795814 0.00464485 0)
(0.0783564 0.00509419 -1.69826e-23)
(0.07702 0.00560488 1.14815e-21)
(0.0755583 0.00618793 -1.14784e-21)
(0.0739553 0.00685675 -1.89821e-23)
(0.0721921 0.00762752 3.92795e-23)
(0.0702471 0.0085197 -1.35341e-21)
(0.0680951 0.00955614 1.31134e-21)
(0.0657069 0.0107629 2.22039e-23)
(0.0630486 0.0121676 -3.54275e-25)
(0.0600812 0.0137964 2.36574e-23)
(0.0567601 0.0156673 -1.62305e-21)
(0.0530347 0.017778 3.27989e-21)
(0.0488495 0.0200864 -1.70918e-21)
(0.0441448 0.0224809 1.76531e-21)
(0.0388604 0.024737 -1.84805e-21)
(0.0329403 0.0264564 -3.6689e-21)
(0.0263439 0.0269857 7.48476e-21)
(0.0190802 0.025321 -3.78901e-21)
(0.0113208 0.0200213 0)
(0.00352003 0.009037 -3.56491e-21)
(0.0942373 0.000910992 -8.69502e-24)
(0.0940324 0.000956529 -3.55331e-23)
(0.0938179 0.00100504 1.0774e-22)
(0.0935933 0.00105678 -1.45512e-22)
(0.0933578 0.00111204 6.40955e-23)
(0.0931109 0.00117115 9.40364e-24)
(0.0928516 0.00123445 -9.56353e-24)
(0.0925793 0.00130233 -2.46142e-26)
(0.0922928 0.00137523 9.90559e-24)
(0.0919912 0.00145363 -2.01528e-23)
(0.0916735 0.00153807 -3.31755e-22)
(0.0913384 0.00162916 3.42386e-22)
(0.0909845 0.00172757 -3.34592e-22)
(0.0906106 0.00183407 3.45391e-22)
(0.0902149 0.00194953 0)
(0.0897957 0.00207491 -2.47878e-26)
(0.0893511 0.00221132 0)
(0.0888789 0.00236001 -3.73629e-22)
(0.0883769 0.00252243 3.97906e-22)
(0.0878424 0.0027002 -1.2509e-23)
(0.0872725 0.00289522 -8.43479e-22)
(0.0866639 0.00310966 8.31029e-22)
(0.0860131 0.00334602 -1.35217e-23)
(0.0853161 0.00360722 0)
(0.0845683 0.00389667 0)
(0.0837646 0.00421835 -9.69879e-22)
(0.0828994 0.00457695 9.40413e-22)
(0.0819662 0.00497804 0)
(0.0809578 0.00542821 -3.22724e-23)
(0.0798661 0.00593534 0)
(0.0786816 0.00650891 1.72806e-23)
(0.077394 0.00716031 -1.78062e-23)
(0.0759914 0.0079033 -1.85455e-23)
(0.0744605 0.00875448 1.91092e-23)
(0.0727861 0.00973381 1.25715e-21)
(0.0709515 0.010865 -1.29752e-21)
(0.0689377 0.0121757 2.81889e-21)
(0.0667235 0.0136968 -2.82069e-21)
(0.0642851 0.0154608 2.99147e-21)
(0.0615953 0.0174967 8.43544e-23)
(0.058623 0.0198224 -3.15066e-21)
(0.0553301 0.0224289 -2.51386e-23)
(0.0516691 0.0252571 1.24673e-24)
(0.0475765 0.0281614 1.64715e-24)
(0.0429636 0.0308592 2.1696e-24)
(0.0376988 0.0328607 -5.43025e-23)
(0.0315876 0.0333728 -2.4931e-23)
(0.0243841 0.0311612 -2.37242e-23)
(0.0158081 0.0244365 0)
(0.00520268 0.0108864 7.31854e-24)
(0.0942818 0.00110735 -4.31488e-23)
(0.0940779 0.00116248 2.59556e-23)
(0.0938647 0.00122122 8.88515e-24)
(0.0936417 0.00128389 1.36448e-22)
(0.0934081 0.00135086 -1.36497e-22)
(0.0931633 0.00142251 1.41296e-22)
(0.0929064 0.00149927 -3.13685e-22)
(0.0926367 0.00158162 4.46736e-22)
(0.0923533 0.00167008 -3.12947e-22)
(0.0920551 0.00176526 -3.24819e-22)
(0.0917411 0.00186781 -1.63956e-23)
(0.0914102 0.00197846 6.59885e-22)
(0.091061 0.00209804 -6.95269e-22)
(0.0906923 0.00222749 3.24326e-22)
(0.0903024 0.00236786 3.50195e-22)
(0.0898898 0.00252033 3.66273e-22)
(0.0894525 0.00268626 -2.83848e-23)
(0.0889887 0.00286718 7.4649e-22)
(0.088496 0.00306484 7.71244e-22)
(0.0879721 0.00328124 1.96529e-23)
(0.0874142 0.00351868 -8.17813e-22)
(0.0868194 0.00377981 0)
(0.0861842 0.00406769 0)
(0.0855052 0.00438587 -9.12309e-22)
(0.084778 0.00473849 8.99206e-22)
(0.0839983 0.0051304 9.68902e-22)
(0.083161 0.00556729 -9.70337e-22)
(0.0822604 0.00605588 0)
(0.0812903 0.00660413 1.08349e-21)
(0.0802437 0.00722151 -1.08558e-21)
(0.079113 0.00791933 0)
(0.0778898 0.00871112 -2.34904e-21)
(0.076565 0.00961307 2.3708e-21)
(0.0751285 0.0106445 -1.95914e-23)
(0.07357 0.0118284 -2.61957e-21)
(0.0718784 0.0131916 2.64388e-21)
(0.0700426 0.0147646 0)
(0.0680513 0.0165806 2.96469e-21)
(0.065893 0.0186727 -2.9464e-21)
(0.0635557 0.0210679 2.38561e-23)
(0.0610246 0.023777 3.24637e-21)
(0.0582782 0.0267768 -6.51111e-21)
(0.0552804 0.0299829 2.06399e-23)
(0.0519671 0.0332107 3.75688e-23)
(0.048222 0.0361216 3.37318e-21)
(0.0438351 0.0381547 3.73814e-24)
(0.038442 0.0384256 -2.89917e-21)
(0.0314707 0.0355669 2.97209e-21)
(0.021962 0.0275984 0)
(0.00755887 0.0120885 2.6668e-23)
(0.0943347 0.00129991 8.49681e-24)
(0.0941324 0.00136408 7.83071e-23)
(0.0939212 0.00143255 -6.98343e-23)
(0.0937004 0.00150568 8.96889e-24)
(0.0934694 0.00158387 1.37923e-22)
(0.0932274 0.0016676 -1.38139e-22)
(0.0929738 0.00175737 -2.96122e-22)
(0.0927078 0.00185374 4.34472e-24)
(0.0924283 0.00195734 -5.59387e-24)
(0.0921346 0.00206886 3.29062e-22)
(0.0918256 0.00218909 -3.21593e-22)
(0.0915003 0.0023189 6.82504e-22)
(0.0911573 0.00245928 -3.40122e-22)
(0.0907955 0.00261133 1.09985e-23)
(0.0904134 0.0027763 1.1258e-23)
(0.0900094 0.00295561 7.44955e-22)
(0.0895819 0.00315086 -5.05197e-24)
(0.089129 0.00336389 7.77817e-22)
(0.0886487 0.00359678 1.24365e-23)
(0.0881388 0.00385192 0)
(0.0875967 0.00413205 0)
(0.08702 0.00444032 -8.73861e-22)
(0.0864055 0.00478039 8.76068e-22)
(0.0857502 0.00515648 0)
(0.0850504 0.00557354 1.4745e-23)
(0.0843024 0.00603733 0)
(0.0835018 0.00655461 -1.01852e-21)
(0.082644 0.00713335 2.07367e-21)
(0.0817242 0.00778297 -1.05523e-21)
(0.080737 0.0085146 -2.2362e-21)
(0.0796766 0.0093415 -7.48212e-23)
(0.0785372 0.0102794 -7.88384e-23)
(0.0773129 0.0113468 -8.27431e-23)
(0.0759977 0.0125658 2.51309e-21)
(0.0745865 0.0139617 2.69495e-21)
(0.0730748 0.0155635 -2.70137e-21)
(0.0714601 0.0174029 0)
(0.0697416 0.0195121 2.98569e-21)
(0.0679212 0.0219195 -2.99263e-21)
(0.0660026 0.0246416 -3.1744e-21)
(0.063989 0.0276696 3.15691e-21)
(0.0618771 0.0309482 2.57875e-23)
(0.0596459 0.034346 3.16784e-21)
(0.0572364 0.0376149 -1.04245e-22)
(0.0545179 0.040341 -3.12889e-21)
(0.0512271 0.0418951 2.38802e-23)
(0.0468799 0.0413697 0)
(0.0406619 0.0374559 -1.90773e-23)
(0.0307861 0.0283762 -9.2577e-22)
(0.0121715 0.0120224 4.15818e-22)
(-0.000207547 0.000282436 0)
(-0.000907903 0.000540735 3.18058e-22)
(-0.0019575 0.000607219 -3.18536e-22)
(-0.00302625 0.000568171 -3.17894e-22)
(-0.00395515 0.000471095 3.18372e-22)
(-0.00467907 0.000344161 -9.82324e-24)
(-0.0051651 0.00020438 0)
(-0.00539773 6.17776e-05 0)
(-0.00537816 -7.76682e-05 0)
(-0.00511652 -0.000212235 0)
(-0.00462198 -0.000339889 0)
(-0.00390544 -0.000459582 0)
(-0.00298001 -0.000571119 0)
(-0.0018586 -0.000675057 0)
(-0.000554701 -0.00077031 0)
(0.000917666 -0.000857583 1.07112e-22)
(0.00254526 -0.000937119 -1.00746e-22)
(0.00431498 -0.00100903 0)
(0.00621384 -0.00107348 0)
(0.00822903 -0.00113067 -8.17201e-23)
(0.010348 -0.00118077 8.18449e-23)
(0.0125585 -0.00122395 -6.46664e-23)
(0.0148482 -0.00126033 4.15906e-24)
(0.0172051 -0.00129006 0)
(0.0196175 -0.00131335 3.41986e-24)
(0.0220739 -0.0013305 0)
(0.0245633 -0.00134181 0)
(0.0270753 -0.00134756 0)
(0.0295998 -0.00134807 2.11033e-24)
(0.0321273 -0.00134365 0)
(0.0346487 -0.0013346 -1.5577e-24)
(0.0371555 -0.00132126 1.30898e-24)
(0.0396397 -0.00130395 -1.07887e-24)
(0.042094 -0.00128301 6.92647e-24)
(0.0445113 -0.00125876 -6.74246e-24)
(0.0468856 -0.00123154 -2.76469e-24)
(0.0492111 -0.00120168 4.99758e-24)
(0.0514828 -0.00116951 -2.07268e-24)
(0.0536963 -0.00113536 -7.20743e-26)
(0.0558476 -0.00109954 -3.90546e-26)
(0.0579336 -0.00106235 0)
(0.0599515 -0.0010241 -2.2025e-25)
(0.061899 -0.00098506 1.6069e-24)
(0.0637747 -0.000945503 -1.66982e-24)
(0.0655773 -0.000905684 4.03831e-25)
(0.0673063 -0.000865838 -1.37821e-24)
(0.0689613 -0.000826181 4.55716e-25)
(0.0705427 -0.000786908 1.02209e-24)
(0.0720509 -0.000748181 -5.18472e-25)
(0.0734868 -0.000710125 5.37178e-25)
(-0.000270407 0.000812101 -1.20563e-21)
(-0.00101461 0.00154987 -1.31812e-21)
(-0.00197564 0.00174038 1.29932e-21)
(-0.00290354 0.00162672 -6.24924e-22)
(-0.00367871 0.00134445 6.25974e-22)
(-0.00425344 0.000975142 9.89141e-24)
(-0.00460386 0.00056782 -1.9613e-23)
(-0.0047178 0.000151456 -6.22287e-22)
(-0.00459861 -0.000256524 6.03895e-22)
(-0.00425578 -0.000650964 -1.81809e-23)
(-0.0036956 -0.00102586 -1.7591e-23)
(-0.00292775 -0.00137797 5.28396e-22)
(-0.00196465 -0.00170659 -5.29099e-22)
(-0.000816338 -0.00201391 -4.82826e-22)
(0.000505272 -0.00229515 2.48359e-23)
(0.00198608 -0.00255347 4.59244e-22)
(0.00361459 -0.00278922 -6.56075e-24)
(0.00537883 -0.0030026 -1.2466e-23)
(0.00726664 -0.00319403 0)
(0.00926598 -0.00336403 0)
(0.011365 -0.00351312 0)
(0.0135521 -0.00364174 -4.56202e-24)
(0.0158155 -0.00375028 2.43681e-22)
(0.0181436 -0.00383914 -2.64403e-22)
(0.0205253 -0.00390899 2.06081e-22)
(0.0229495 -0.00396063 -1.16092e-22)
(0.0254055 -0.00399494 -1.76964e-22)
(0.0278833 -0.00401279 8.32489e-23)
(0.030373 -0.00401505 -2.11577e-24)
(0.0328655 -0.00400261 -3.75732e-24)
(0.0353518 -0.0039764 1.56109e-24)
(0.0378238 -0.00393736 -4.02269e-24)
(0.0402735 -0.00388645 3.04382e-23)
(0.0426938 -0.00382467 -5.75949e-23)
(0.0450779 -0.00375299 2.43689e-23)
(0.0474197 -0.00367241 -1.56395e-24)
(0.0497137 -0.00358392 3.40261e-25)
(0.0519548 -0.00348849 0)
(0.0541388 -0.00338709 -5.29424e-25)
(0.0562617 -0.00328066 4.4319e-25)
(0.0583205 -0.00317013 -2.50446e-24)
(0.0603123 -0.00305636 3.35332e-24)
(0.0622351 -0.0029402 -2.92163e-25)
(0.0640871 -0.00282247 -1.95481e-24)
(0.0658674 -0.00270391 3.35298e-24)
(0.0675752 -0.00258523 4.44976e-25)
(0.0692102 -0.00246708 3.35175e-24)
(0.0707728 -0.00235004 5.6727e-25)
(0.0722633 -0.00223458 -9.8761e-25)
(0.0736827 -0.00212108 -1.58882e-24)
(-0.000380136 0.00124167 -1.24809e-21)
(-0.00118974 0.00234434 1.36979e-21)
(-0.00196276 0.00263683 -1.32889e-21)
(-0.00261207 0.00245912 -2.07321e-23)
(-0.00308901 0.00201849 -3.38737e-25)
(-0.00337713 0.00144167 -1.26988e-21)
(-0.00346898 0.000803921 1.31153e-21)
(-0.00335764 0.000150333 1.25386e-21)
(-0.00304985 -0.000497637 -1.53138e-23)
(-0.00255409 -0.00112636 -2.34794e-21)
(-0.00187089 -0.00172584 2.30701e-21)
(-0.00100717 -0.00229113 -1.10767e-21)
(2.5063e-05 -0.00282107 -1.66874e-23)
(0.00122268 -0.00331408 0)
(0.00257658 -0.00377006 9.54315e-22)
(0.0040712 -0.00419036 -6.58933e-23)
(0.00569947 -0.00457457 -8.75754e-22)
(0.0074514 -0.0049231 2.53978e-23)
(0.00931636 -0.00523654 0)
(0.0112838 -0.00551556 0)
(0.0133432 -0.00576087 3.14238e-22)
(0.0154841 -0.0059731 -3.04984e-22)
(0.0176957 -0.00615277 -2.5525e-22)
(0.0199676 -0.00630054 2.71823e-22)
(0.0222892 -0.00641721 7.23467e-24)
(0.0246506 -0.00650417 -6.51085e-24)
(0.0270416 -0.00656276 5.81664e-24)
(0.0294528 -0.00659435 -1.46395e-22)
(0.0318751 -0.00660032 1.51694e-22)
(0.0342996 -0.0065821 -1.06342e-22)
(0.036718 -0.00654117 1.14161e-22)
(0.0391224 -0.00647903 2.72181e-24)
(0.0415054 -0.00639727 6.66864e-23)
(0.0438599 -0.00629747 -1.18433e-22)
(0.0461796 -0.00618123 5.4972e-23)
(0.0484586 -0.0060502 1.62448e-23)
(0.0506915 -0.00590597 -1.43453e-23)
(0.0528735 -0.00575017 0)
(0.0550003 -0.00558439 -8.74115e-26)
(0.0570683 -0.00541017 0)
(0.0590743 -0.00522902 -4.6063e-24)
(0.0610157 -0.00504241 4.13777e-24)
(0.0628904 -0.00485173 -4.82109e-25)
(0.0646967 -0.00465832 -5.80313e-26)
(0.0664336 -0.00446342 -6.41267e-24)
(0.0681003 -0.00426822 1.25424e-23)
(0.0696966 -0.00407379 -7.038e-24)
(0.0712227 -0.00388108 3.89435e-24)
(0.0726789 -0.00369089 -2.88321e-24)
(0.0740661 -0.00350376 -1.02596e-24)
(-0.000507838 0.00148991 -2.68485e-21)
(-0.00135019 0.00280289 0)
(-0.0018091 0.00316811 2.79546e-21)
(-0.00205248 0.0029411 -5.59449e-21)
(-0.00210579 0.00238524 2.82023e-21)
(-0.0019931 0.00165583 1.29653e-21)
(-0.0017271 0.00084519 -1.36028e-21)
(-0.0013118 1.04775e-05 1.27714e-21)
(-0.000752251 -0.00083263 -2.53901e-21)
(-4.93737e-05 -0.00165416 1.2423e-21)
(0.000798501 -0.00244109 1.86495e-23)
(0.00178889 -0.00318817 2.91763e-25)
(0.00291578 -0.00389268 1.69745e-23)
(0.00417619 -0.00454967 -1.03849e-21)
(0.00556527 -0.00516296 1.00689e-21)
(0.00707483 -0.00572998 2.95976e-23)
(0.00869858 -0.00625025 -1.38282e-23)
(0.010429 -0.00672406 8.13729e-22)
(0.012258 -0.0071518 -8.13721e-22)
(0.014177 -0.007534 -1.16206e-23)
(0.0161774 -0.00787131 0)
(0.0182504 -0.00816438 2.90991e-25)
(0.0203868 -0.00841378 0)
(0.0225772 -0.00862001 8.34733e-24)
(0.0248126 -0.00878424 2.68175e-25)
(0.0270836 -0.00890789 6.57249e-24)
(0.0293815 -0.00899288 -3.66733e-22)
(0.0316975 -0.00904095 3.61231e-22)
(0.0340234 -0.00905388 0)
(0.0363511 -0.00903353 -1.20558e-22)
(0.0386727 -0.00898184 1.24423e-22)
(0.040981 -0.00890085 0)
(0.043269 -0.00879265 -1.80965e-25)
(0.0455301 -0.00865938 -6.03108e-23)
(0.0477582 -0.00850324 1.05906e-22)
(0.0499479 -0.00832642 -8.03017e-23)
(0.0520939 -0.00813116 5.88567e-23)
(0.0541918 -0.00791965 -3.93581e-23)
(0.0562374 -0.00769407 1.49938e-23)
(0.0582272 -0.00745657 -6.48485e-26)
(0.0601582 -0.00720923 -1.38341e-25)
(0.0620278 -0.00695408 2.36278e-25)
(0.063834 -0.00669304 8.25169e-24)
(0.0655751 -0.00642797 -1.94204e-23)
(0.0672501 -0.00616061 1.004e-23)
(0.0688583 -0.0058926 6.636e-26)
(0.0703993 -0.00562544 -8.79445e-25)
(0.0718732 -0.00536045 -5.55315e-26)
(0.0732804 -0.00509873 9.78528e-25)
(0.0746216 -0.00484092 -1.97226e-24)
(-0.000565553 0.00148488 -1.5377e-24)
(-0.00130927 0.0028511 -2.49531e-23)
(-0.00133394 0.0032489 -2.42303e-23)
(-0.00106383 0.00299938 -2.35824e-23)
(-0.000601493 0.00238631 -4.54253e-23)
(-1.44245e-05 0.00157092 -4.69655e-25)
(0.000670599 0.000656539 2.14876e-23)
(0.00143332 -0.000298569 -2.13398e-23)
(0.00227597 -0.00127312 -2.0738e-23)