/*--------------------------------*- C++ -*----------------------------------*\
| =========                 |                                                 |
| \\      /  F ield         | OpenFOAM: The Open Source CFD Toolbox           |
|  \\    /   O peration     | Version:  2412                                  |
|   \\  /    A nd           | Website:  www.openfoam.com                      |
|    \\/     M anipulation  |                                                 |
\*---------------------------------------------------------------------------*/
FoamFile
{
    version     2.0;
    format      ascii;
    arch        "LSB;label=32;scalar=64";
    class       volVectorField;
    location    "25.5";
    object      vorticity;
}
// * * * * * * * * * * * * * * * * * * * * * * * * * * * * * * * * * * * * * //

dimensions      [0 0 -1 0 0 0 0];

internalField   nonuniform List<vector> 
63420
(
(0 0 5.937e-06)
(0 0 5.91184e-06)
(0 0 5.88931e-06)
(0 0 5.86776e-06)
(0 0 5.84092e-06)
(0 0 5.806e-06)
(0 0 5.78747e-06)
(0 0 5.86156e-06)
(0 0 6.15475e-06)
(0 0 6.80017e-06)
(0 0 7.86401e-06)
(0 0 9.27815e-06)
(0 0 1.08175e-05)
(0 0 1.21389e-05)
(0 0 1.28691e-05)
(0 0 1.27077e-05)
(0 0 1.15075e-05)
(0 0 9.30831e-06)
(0 0 6.31945e-06)
(0 0 2.86443e-06)
(0 0 -6.91652e-07)
(0 0 -4.01015e-06)
(0 0 -6.82818e-06)
(0 0 -8.98318e-06)
(0 0 -1.04144e-05)
(0 0 -1.11474e-05)
(0 0 -1.12697e-05)
(0 0 -1.09043e-05)
(0 0 -1.01862e-05)
(0 0 -9.24433e-06)
(0 0 -8.19021e-06)
(0 0 -7.1124e-06)
(0 0 -6.07535e-06)
(0 0 -5.12132e-06)
(0 0 -4.27399e-06)
(0 0 -3.54271e-06)
(0 0 -2.92659e-06)
(0 0 -2.41811e-06)
(0 0 -2.00595e-06)
(0 0 -1.67716e-06)
(0 0 -1.41861e-06)
(0 0 -1.21795e-06)
(0 0 -1.0641e-06)
(0 0 -9.47498e-07)
(0 0 -8.60108e-07)
(0 0 -7.95323e-07)
(0 0 -7.47725e-07)
(0 0 -7.12715e-07)
(0 0 -6.8555e-07)
(0 0 -6.58477e-07)
(0 0 -6.11534e-07)
(0 0 -4.83033e-07)
(0 0 -7.76574e-08)
(0 0 1.21142e-06)
(0 4.41202e-23 5.21126e-06)
(0 0 1.78107e-05)
(0 0 1.77347e-05)
(0 0 1.7666e-05)
(0 0 1.76006e-05)
(0 0 1.752e-05)
(0 0 1.74158e-05)
(0 0 1.73609e-05)
(0 0 1.75825e-05)
(0 0 1.84586e-05)
(0 0 2.03872e-05)
(0 0 2.3567e-05)
(0 0 2.77962e-05)
(0 0 3.24039e-05)
(0 0 3.63666e-05)
(0 0 3.85695e-05)
(0 0 3.81144e-05)
(0 0 3.45591e-05)
(0 0 2.80194e-05)
(0 0 1.91173e-05)
(0 0 8.81621e-06)
(0 0 -1.79534e-06)
(0 0 -1.17068e-05)
(0 0 -2.01328e-05)
(0 0 -2.65868e-05)
(0 0 -3.08853e-05)
(0 0 -3.31028e-05)
(0 0 -3.34985e-05)
(0 0 -3.2438e-05)
(0 0 -3.03226e-05)
(0 0 -2.75364e-05)
(0 0 -2.44119e-05)
(0 0 -2.12132e-05)
(0 0 -1.81328e-05)
(0 0 -1.5297e-05)
(0 0 -1.27769e-05)
(0 0 -1.06008e-05)
(0 0 -8.76652e-06)
(0 0 -7.25188e-06)
(0 0 -6.02347e-06)
(0 0 -5.04291e-06)
(0 0 -4.27127e-06)
(0 0 -3.67186e-06)
(0 0 -3.21175e-06)
(0 0 -2.86249e-06)
(0 0 -2.60016e-06)
(0 0 -2.40504e-06)
(0 0 -2.26101e-06)
(0 0 -2.15437e-06)
(0 0 -2.07109e-06)
(0 0 -1.98848e-06)
(0 0 -1.84851e-06)
(0 0 -1.47215e-06)
(0 0 -2.92021e-07)
(0 0 3.45742e-06)
(0 4.45895e-23 1.51009e-05)
(0 0 2.96721e-05)
(0 0 2.95453e-05)
(0 0 2.94305e-05)
(0 0 2.93211e-05)
(0 0 2.91869e-05)
(0 0 2.90139e-05)
(0 0 2.89222e-05)
(0 0 2.92888e-05)
(0 0 3.07407e-05)
(0 0 3.39406e-05)
(0 0 3.92225e-05)
(0 0 4.62574e-05)
(0 0 5.39381e-05)
(0 0 6.05698e-05)
(0 0 6.43032e-05)
(0 0 6.36431e-05)
(0 0 5.78479e-05)
(0 0 4.70988e-05)
(0 0 3.24179e-05)
(0 0 1.53948e-05)
(0 0 -2.17004e-06)
(0 0 -1.8602e-05)
(0 0 -3.25968e-05)
(0 0 -4.3343e-05)
(0 0 -5.05312e-05)
(0 0 -5.42785e-05)
(0 0 -5.50096e-05)
(0 0 -5.33257e-05)
(0 0 -4.9889e-05)
(0 0 -4.53337e-05)
(0 0 -4.02099e-05)
(0 0 -3.49551e-05)
(0 0 -2.98884e-05)
(0 0 -2.52199e-05)
(0 0 -2.10683e-05)
(0 0 -1.74814e-05)
(0 0 -1.44565e-05)
(0 0 -1.19578e-05)
(0 0 -9.9306e-06)
(0 0 -8.31193e-06)
(0 0 -7.03782e-06)
(0 0 -6.04784e-06)
(0 0 -5.28779e-06)
(0 0 -4.71076e-06)
(0 0 -4.27731e-06)
(0 0 -3.95491e-06)
(0 0 -3.71701e-06)
(0 0 -3.54108e-06)
(0 0 -3.40439e-06)
(0 0 -3.271e-06)
(0 0 -3.05043e-06)
(0 0 -2.46436e-06)
(0 0 -6.28662e-07)
(0 0 5.21816e-06)
(0 2.63088e-22 2.34373e-05)
(0 0 4.15133e-05)
(0 0 4.13356e-05)
(0 0 4.11744e-05)
(0 0 4.10211e-05)
(0 0 4.08337e-05)
(0 0 4.05924e-05)
(0 0 4.04635e-05)
(0 0 4.09706e-05)
(0 0 4.29869e-05)
(0 0 4.74389e-05)
(0 0 5.48005e-05)
(0 0 6.46259e-05)
(0 0 7.53868e-05)
(0 0 8.47327e-05)
(0 0 9.00902e-05)
(0 0 8.93692e-05)
(0 0 8.15207e-05)
(0 0 6.67756e-05)
(0 0 4.65341e-05)
(0 0 2.29904e-05)
(0 0 -1.36179e-06)
(0 0 -2.41964e-05)
(0 0 -4.36959e-05)
(0 0 -5.87234e-05)
(0 0 -6.8837e-05)
(0 0 -7.41878e-05)
(0 0 -7.53547e-05)
(0 0 -7.31641e-05)
(0 0 -6.85292e-05)
(0 0 -6.23271e-05)
(0 0 -5.53197e-05)
(0 0 -4.81139e-05)
(0 0 -4.11538e-05)
(0 0 -3.47326e-05)
(0 0 -2.90167e-05)
(0 0 -2.40746e-05)
(0 0 -1.99042e-05)
(0 0 -1.64575e-05)
(0 0 -1.36602e-05)
(0 0 -1.14258e-05)
(0 0 -9.6667e-06)
(0 0 -8.29973e-06)
(0 0 -7.25029e-06)
(0 0 -6.45376e-06)
(0 0 -5.85574e-06)
(0 0 -5.4114e-06)
(0 0 -5.08409e-06)
(0 0 -4.843e-06)
(0 0 -4.65753e-06)
(0 0 -4.48125e-06)
(0 0 -4.20013e-06)
(0 0 -3.46573e-06)
(0 0 -1.16779e-06)
(0 0 6.18458e-06)
(0 -1.72705e-22 2.9242e-05)
(0 0 5.33267e-05)
(0 0 5.30975e-05)
(0 0 5.28896e-05)
(0 0 5.26923e-05)
(0 0 5.24522e-05)
(0 0 5.21435e-05)
(0 0 5.19769e-05)
(0 0 5.26186e-05)
(0 0 5.51839e-05)
(0 0 6.0862e-05)
(0 0 7.02722e-05)
(0 0 8.28666e-05)
(0 0 9.67159e-05)
(0 0 0.000108834)
(0 0 0.000115939)
(0 0 0.000115349)
(0 0 0.000105696)
(0 0 8.72403e-05)
(0 0 6.17309e-05)
(0 0 3.19372e-05)
(0 0 1.02143e-06)
(0 0 -2.80563e-05)
(0 0 -5.29729e-05)
(0 0 -7.22652e-05)
(0 0 -8.5351e-05)
(0 0 -9.24026e-05)
(0 0 -9.41387e-05)
(0 0 -9.15968e-05)
(0 0 -8.59283e-05)
(0 0 -7.82426e-05)
(0 0 -6.95059e-05)
(0 0 -6.04898e-05)
(0 0 -5.17605e-05)
(0 0 -4.36931e-05)
(0 0 -3.65027e-05)
(0 0 -3.02793e-05)
(0 0 -2.50233e-05)
(0 0 -2.06764e-05)
(0 0 -1.71464e-05)
(0 0 -1.43257e-05)
(0 0 -1.21041e-05)
(0 0 -1.03773e-05)
(0 0 -9.0515e-06)
(0 0 -8.0453e-06)
(0 0 -7.2901e-06)
(0 0 -6.72938e-06)
(0 0 -6.31699e-06)
(0 0 -6.01435e-06)
(0 0 -5.78418e-06)
(0 0 -5.57288e-06)
(0 0 -5.25436e-06)
(0 0 -4.44879e-06)
(0 0 -1.9437e-06)
(0 0 6.11276e-06)
(0 8.52567e-23 3.16484e-05)
(0 0 6.51057e-05)
(0 0 6.48228e-05)
(0 0 6.45676e-05)
(0 0 6.43264e-05)
(0 0 6.40344e-05)
(0 0 6.36593e-05)
(0 0 6.34543e-05)
(0 0 6.42235e-05)
(0 0 6.7319e-05)
(0 0 7.41911e-05)
(0 0 8.56118e-05)
(0 0 0.000100948)
(0 0 0.000117894)
(0 0 0.000132855)
(0 0 0.000141855)
(0 0 0.000141627)
(0 0 0.000130472)
(0 0 0.000108651)
(0 0 7.8229e-05)
(0 0 4.25148e-05)
(0 0 5.30813e-06)
(0 0 -2.98177e-05)
(0 0 -6.00439e-05)
(0 0 -8.35797e-05)
(0 0 -9.96931e-05)
(0 0 -0.000108563)
(0 0 -0.000111029)
(0 0 -0.000108324)
(0 0 -0.000101821)
(0 0 -9.28496e-05)
(0 0 -8.25706e-05)
(0 0 -7.19146e-05)
(0 0 -6.15662e-05)
(0 0 -5.19819e-05)
(0 0 -4.34253e-05)
(0 0 -3.60097e-05)
(0 0 -2.97402e-05)
(0 0 -2.45504e-05)
(0 0 -2.03327e-05)
(0 0 -1.69602e-05)
(0 0 -1.43026e-05)
(0 0 -1.22359e-05)
(0 0 -1.06486e-05)
(0 0 -9.4435e-06)
(0 0 -8.53893e-06)
(0 0 -7.8674e-06)
(0 0 -7.37386e-06)
(0 0 -7.01266e-06)
(0 0 -6.74107e-06)
(0 0 -6.50189e-06)
(0 0 -6.16967e-06)
(0 0 -5.37831e-06)
(0 0 -2.96704e-06)
(0 0 4.79558e-06)
(0 4.20673e-22 2.98353e-05)
(0 0 7.68416e-05)
(0 0 7.65023e-05)
(0 0 7.62e-05)
(0 0 7.59152e-05)
(0 0 7.55722e-05)
(0 0 7.51322e-05)
(0 0 7.48881e-05)
(0 0 7.57766e-05)
(0 0 7.93805e-05)
(0 0 8.74095e-05)
(0 0 0.000100796)
(0 0 0.00011884)
(0 0 0.00013889)
(0 0 0.000156769)
(0 0 0.000167831)
(0 0 0.000168225)
(0 0 0.000155909)
(0 0 0.000131116)
(0 0 9.61872e-05)
(0 0 5.49292e-05)
(0 0 1.17445e-05)
(0 0 -2.92045e-05)
(0 0 -6.46146e-05)
(0 0 -9.23665e-05)
(0 0 -0.000111568)
(0 0 -0.000122386)
(0 0 -0.000125765)
(0 0 -0.00012311)
(0 0 -0.000115998)
(0 0 -0.000105965)
(0 0 -9.43567e-05)
(0 0 -8.22545e-05)
(0 0 -7.04582e-05)
(0 0 -5.95041e-05)
(0 0 -4.97048e-05)
(0 0 -4.11987e-05)
(0 0 -3.39978e-05)
(0 0 -2.80305e-05)
(0 0 -2.31763e-05)
(0 0 -1.92916e-05)
(0 0 -1.62281e-05)
(0 0 -1.38442e-05)
(0 0 -1.20121e-05)
(0 0 -1.06206e-05)
(0 0 -9.57556e-06)
(0 0 -8.79959e-06)
(0 0 -8.22945e-06)
(0 0 -7.81309e-06)
(0 0 -7.50345e-06)
(0 0 -7.24297e-06)
(0 0 -6.9184e-06)
(0 0 -6.22167e-06)
(0 0 -4.21683e-06)
(0 0 2.06868e-06)
(0 -8.22891e-23 2.28695e-05)
(-1.76335e-23 7.92629e-21 3.21314e-06)
(-1.44599e-22 7.79335e-21 2.56679e-06)
(3.171e-23 -1.93414e-22 1.69934e-06)
(3.8937e-23 -2.32627e-20 5.67819e-07)
(-9.03471e-23 7.94555e-21 -8.63716e-07)
(3.54128e-22 7.8037e-21 -2.62412e-06)
(-7.77881e-22 2.27518e-20 -4.73703e-06)
(3.05756e-22 -2.31156e-20 -7.2232e-06)
(6.15036e-22 -7.43852e-21 -1.01028e-05)
(-8.77419e-22 -3.66122e-24 -1.3397e-05)
(-8.76164e-22 -7.45078e-21 -1.71297e-05)
(7.67277e-22 7.07974e-21 -2.13277e-05)
(5.59081e-22 -5.82969e-20 -2.60228e-05)
(-1.03422e-21 1.25132e-19 -3.12514e-05)
(3.58228e-22 -6.7302e-20 -3.70538e-05)
(-1.20046e-21 -5.0738e-20 -4.3487e-05)
(2.3178e-21 -6.46114e-20 -5.05971e-05)
(-1.81598e-21 7.60882e-21 -5.84789e-05)
(-1.83648e-22 -7.10128e-21 -6.71778e-05)
(6.95541e-23 7.10461e-21 -7.6803e-05)
(-3.07665e-24 -1.25839e-22 -8.74392e-05)
(-6.45034e-23 -6.85151e-21 -9.92034e-05)
(-1.96846e-21 6.90909e-21 -0.000112228)
(4.11417e-21 1.26482e-23 -0.000126663)
(1.19876e-21 6.70562e-21 -0.000142684)
(-3.20557e-21 -5.20255e-24 -0.000160492)
(4.61068e-21 7.77856e-21 -0.000180327)
(-5.42589e-21 1.00971e-19 -0.000202473)
(6.90233e-22 -1.08419e-19 -0.000227286)
(-2.10401e-21 9.89792e-20 -0.000255219)
(2.05004e-21 -1.00097e-19 -0.00028689)
(4.74482e-23 1.31204e-21 -0.000323181)
(-6.17044e-23 -1.60936e-21 -0.000365429)
(2.73923e-21 -9.4595e-20 -0.000415767)
(-8.47829e-21 9.17941e-20 -0.000477722)
(-3.06109e-22 -1.51274e-21 -0.000557269)
(6.05844e-21 1.32504e-23 -0.000664617)
(6.57984e-21 1.43908e-23 -0.000817143)
(-6.55879e-21 -1.43447e-23 -0.00104402)
(-2.17242e-22 -4.7513e-25 -0.00139312)
(-2.26358e-22 -4.95068e-25 -0.00194075)
(-7.78217e-21 -1.70204e-23 -0.00280405)
(7.51192e-21 1.64293e-23 -0.00415513)
(-2.47764e-22 1.47299e-22 -0.00623397)
(-3.45357e-23 7.61862e-21 -0.00935468)
(-2.40067e-20 4.92557e-20 -0.013897)
(2.31235e-20 -6.49182e-20 -0.0202714)
(-5.42336e-21 -9.1819e-21 -0.0288448)
(5.96039e-21 2.51758e-20 -0.0398217)
(-1.97866e-20 -5.52374e-21 -0.0530053)
(-2.54728e-22 7.93662e-21 9.4682e-06)
(-1.05298e-22 1.56121e-20 7.4656e-06)
(2.92856e-22 7.59204e-21 4.74411e-06)
(-8.50476e-22 -7.80624e-21 1.17688e-06)
(1.58034e-21 7.44687e-21 -3.3377e-06)
(-4.78379e-22 -5.3306e-20 -8.87943e-06)
(-2.32675e-22 8.46332e-20 -1.55141e-05)
(-5.44493e-23 -8.79988e-21 -2.33019e-05)
(2.14838e-21 -9.74439e-20 -3.23035e-05)
(-2.24325e-21 1.37552e-19 -4.25848e-05)
(-8.40879e-22 1.2569e-19 -5.42213e-05)
(6.23064e-22 -1.13053e-19 -6.73005e-05)
(-3.83959e-22 7.19561e-22 -8.19235e-05)
(2.7405e-21 -7.19997e-21 -9.82071e-05)
(-2.14029e-21 2.39153e-20 -0.00011629)
(-5.91395e-21 2.37694e-19 -0.000136332)
(1.66235e-21 -2.23479e-19 -0.000158558)
(-5.54154e-21 2.39479e-19 -0.000183125)
(-2.97495e-22 1.9396e-20 -0.000210318)
(-3.75322e-21 -7.26054e-21 -0.000240374)
(3.96912e-21 1.41998e-22 -0.000273628)
(-3.98376e-21 9.0027e-21 -0.000310454)
(9.11809e-22 2.07828e-19 -0.000351269)
(5.97428e-21 -4.39937e-19 -0.000396556)
(4.52025e-21 -2.101e-19 -0.000446872)
(-7.05325e-21 4.25364e-19 -0.000502862)
(3.78844e-21 -4.23933e-19 -0.000565287)
(-2.15805e-21 4.34952e-19 -0.000635057)
(3.2127e-21 1.46309e-21 -0.000713296)
(-3.64114e-21 -9.54196e-23 -0.00080144)
(-1.22324e-21 -2.67534e-24 -0.000901422)
(0 0 -0.00101598)
(1.80709e-22 9.37641e-23 -0.00114926)
(1.07958e-20 1.21182e-20 -0.00130778)
(-1.57508e-20 3.54154e-19 -0.00150234)
(-1.54218e-20 -2.39319e-20 -0.00175114)
(1.85315e-20 -3.49126e-19 -0.00208524)
(2.63319e-20 -3.01352e-19 -0.00255745)
(-9.55414e-21 3.21893e-19 -0.00325633)
(-3.04308e-20 2.13893e-21 -0.00432716)
(2.96592e-20 1.6926e-20 -0.00600116)
(-4.14496e-20 2.28921e-19 -0.00863302)
(2.25661e-20 -2.3811e-19 -0.0127433)
(-1.75418e-20 1.43003e-20 -0.0190572)
(1.94306e-20 7.5062e-21 -0.0285232)
(-5.83623e-20 1.1022e-19 -0.0422873)
(5.82819e-20 -1.07893e-19 -0.0615842)
(-8.92516e-20 8.04e-20 -0.0874977)
(8.61286e-20 -8.98006e-20 -0.120573)
(-1.82796e-20 -6.1439e-22 -0.158879)
(-5.70419e-23 4.70291e-20 1.51919e-05)
(-8.84921e-23 1.48716e-20 1.15927e-05)
(3.87342e-22 -6.16054e-20 6.60456e-06)
(-8.29138e-22 1.2253e-19 3.13301e-08)
(1.82309e-21 -2.62262e-19 -8.26888e-06)
(3.35145e-22 1.24685e-19 -1.84049e-05)
(-2.39951e-21 -8.5126e-22 -3.0472e-05)
(1.53791e-21 -1.69243e-20 -4.45654e-05)
(1.5415e-21 -2.55821e-19 -6.079e-05)
(6.40097e-22 2.43731e-19 -7.92667e-05)
(-8.40416e-22 -1.59473e-21 -0.000100137)
(-4.13511e-21 -1.53937e-23 -0.000123566)
(6.55616e-21 -1.81639e-21 -0.000149748)
(-3.77728e-21 -2.49386e-19 -0.000178906)
(4.97953e-21 2.26585e-19 -0.000211298)
(-1.14408e-20 4.50215e-19 -0.000247248)
(-4.74224e-21 -1.19296e-20 -0.000287115)
(-4.87421e-21 4.63154e-19 -0.000331305)
(4.08768e-22 -1.40564e-20 -0.000380229)
(-1.24479e-20 4.49601e-19 -0.000434418)
(1.23779e-20 -4.66912e-19 -0.000494482)
(-9.32175e-21 4.45743e-19 -0.000561122)
(2.65067e-21 -4.63605e-19 -0.000635126)
(5.15946e-21 -9.2706e-21 -0.000717405)
(-2.5684e-21 1.35811e-20 -0.000809005)
(5.47402e-21 -8.77147e-21 -0.000911145)
(-1.89703e-20 4.1747e-19 -0.00102525)
(1.71026e-20 -4.44887e-19 -0.00115304)
(1.86328e-20 -4.13234e-19 -0.00129658)
(-1.53549e-20 4.15087e-19 -0.00145853)
(-1.06753e-21 -5.09708e-21 -0.0016424)
(1.1044e-20 -1.19502e-22 -0.00185309)
(-1.26171e-20 -2.4436e-20 -0.00209788)
(5.35875e-20 -7.5324e-19 -0.00238817)
(1.63663e-20 5.5863e-20 -0.00274257)
(-7.02499e-20 7.0901e-19 -0.00319233)
(3.89072e-21 -1.21501e-20 -0.00379052)
(-1.12714e-20 -4.75295e-21 -0.00462727)
(1.09573e-19 -5.93943e-19 -0.00585349)
(-2.03893e-19 1.1661e-18 -0.00771643)
(2.07839e-19 -1.15783e-18 -0.0106091)
(6.97941e-20 8.39492e-20 -0.0151333)
(-1.55366e-19 5.06374e-19 -0.0221717)
(-1.62575e-19 3.48807e-19 -0.0329526)
(1.53707e-19 -4.13533e-19 -0.049084)
(-2.17377e-20 1.90616e-20 -0.0725111)
(5.36997e-20 -1.69492e-20 -0.105329)
(1.60841e-19 -9.97975e-20 -0.149334)
(-1.74159e-19 1.5596e-19 -0.20524)
(-2.48739e-20 -4.00606e-20 -0.26539)
(4.12128e-22 -3.10183e-20 1.99231e-05)
(-3.6513e-22 1.56804e-20 1.41698e-05)
(6.74555e-22 -1.6809e-22 6.04241e-06)
(-5.98264e-22 -1.54264e-20 -4.65435e-06)
(-9.43759e-22 -1.42046e-21 -1.80427e-05)
(3.40859e-21 -2.42098e-19 -3.42258e-05)
(-4.87261e-21 4.58369e-19 -5.3315e-05)
(2.39488e-21 -2.46756e-19 -7.54443e-05)
(-1.80593e-21 1.48879e-20 -0.000100778)
(4.93745e-21 -2.70164e-19 -0.000129515)
(-5.89874e-21 2.46452e-19 -0.000161892)
(-4.36421e-21 4.70573e-19 -0.00019819)
(1.12506e-20 -9.51877e-19 -0.000238735)
(-1.34341e-20 9.50701e-19 -0.0002839)
(1.76421e-20 -9.46145e-19 -0.00033412)
(-1.18302e-20 9.3748e-19 -0.00038992)
(-1.01331e-20 4.76939e-19 -0.000451913)
(-7.01315e-22 -3.71958e-21 -0.000520736)
(4.45267e-21 3.86612e-21 -0.000597118)
(-7.91781e-21 4.39691e-19 -0.000681929)
(-1.53407e-21 -4.6172e-19 -0.000776172)
(1.46199e-20 1.25991e-20 -0.000881009)
(-3.41347e-20 8.86129e-19 -0.000997754)
(2.60686e-20 -8.88985e-19 -0.00112792)
(2.25792e-21 -5.34746e-21 -0.00127324)
(-9.63772e-21 -8.99972e-23 -0.00143576)
(1.46762e-20 -1.34283e-20 -0.00161783)
(-4.76434e-21 1.22175e-22 -0.00182229)
(-5.22727e-21 -6.45037e-23 -0.00205255)
(4.98174e-21 1.93577e-22 -0.00231289)
(-3.70622e-21 1.4626e-21 -0.00260887)
(6.39216e-20 -7.83519e-19 -0.00294812)
(-5.80702e-20 8.05754e-19 -0.00334171)
(-1.59072e-20 2.27422e-22 -0.00380664)
(1.85478e-20 -1.02468e-20 -0.00437023)
(-9.94758e-20 7.18021e-19 -0.00507794)
(1.15738e-19 -7.21156e-19 -0.00600654)
(-2.2386e-20 2.16758e-21 -0.00728596)
(1.5826e-20 -9.23103e-23 -0.00913348)
(3.76198e-20 6.30377e-21 -0.0119048)
(-2.45858e-19 5.37019e-19 -0.0161648)
(3.65313e-19 -1.08816e-18 -0.0227785)
(-1.78325e-19 5.51152e-19 -0.033014)
(2.57592e-19 -4.21059e-19 -0.0486409)
(-2.49452e-19 4.95967e-19 -0.0719883)
(-5.78743e-19 5.10738e-19 -0.105905)
(1.09182e-18 -1.08209e-18 -0.153508)
(-5.34015e-19 5.46261e-19 -0.217459)
(1.84454e-20 -2.09662e-21 -0.298457)
(4.43489e-21 -3.43726e-20 -0.375703)
(-7.31038e-22 1.57607e-20 2.30802e-05)
(-3.20355e-22 6.038e-20 1.39723e-05)
(2.08544e-21 -1.83289e-19 1.05732e-06)
(-1.49508e-21 2.45919e-19 -1.56606e-05)
(-1.70291e-22 -1.08877e-19 -3.61934e-05)
(1.21564e-22 -1.45627e-20 -6.06139e-05)
(-4.76393e-22 1.53392e-20 -8.90609e-05)
(2.98499e-21 -1.83918e-22 -0.000121736)
(-2.82518e-21 -1.49934e-20 -0.000158903)
(-5.19217e-21 3.3583e-20 -0.000200883)
(-7.28866e-21 4.78629e-19 -0.000248063)
(1.85851e-20 -4.97427e-19 -0.000300893)
(-2.28454e-20 4.6392e-19 -0.000359896)
(1.91213e-20 -4.82555e-19 -0.000425669)
(-2.96571e-21 3.35017e-21 -0.000498899)
(1.08457e-20 4.69277e-23 -0.000580404)
(4.12207e-21 3.66741e-21 -0.00067114)
(-5.67743e-21 4.50529e-19 -0.000772127)
(2.04757e-20 -4.87486e-19 -0.000884527)
(6.24631e-21 2.66841e-20 -0.00100971)
(-4.62823e-20 9.28469e-19 -0.00114926)
(2.98216e-20 -9.31013e-19 -0.00130501)
(1.00349e-20 2.24289e-20 -0.00147903)
(-1.78249e-20 -2.30385e-22 -0.00167374)
(1.1664e-20 9.51981e-21 -0.0018919)
(-3.9791e-20 8.9135e-19 -0.00213674)
(3.30466e-20 -8.82895e-19 -0.00241204)
(2.8026e-21 9.50488e-21 -0.00272224)
(9.3739e-21 2.70337e-20 -0.00307273)
(-1.13658e-20 -5.42866e-22 -0.00347011)
(1.19018e-21 -1.29198e-20 -0.00392281)
(-3.68763e-20 1.31137e-20 -0.00444208)
(3.46326e-20 1.24877e-20 -0.00504379)
(-3.03865e-21 -2.49645e-20 -0.00575162)
(8.37563e-20 -7.31947e-19 -0.00660283)
(-7.49936e-20 7.54483e-19 -0.00765838)
(2.71041e-19 -1.45016e-18 -0.00902031)
(-2.48968e-19 1.4642e-18 -0.0108605)
(3.07242e-19 -1.36833e-18 -0.0134659)
(7.02368e-20 1.31043e-19 -0.0173066)
(-3.52474e-19 1.30274e-18 -0.0231299)
(-1.18828e-19 -2.18274e-20 -0.0320822)
(1.61775e-20 3.81805e-22 -0.0458505)
(-1.79864e-20 5.52752e-22 -0.0668065)
(5.31553e-20 1.63289e-21 -0.0981222)
(2.55244e-20 1.33142e-20 -0.143804)
(-1.10938e-19 5.02466e-21 -0.208489)
(6.3219e-20 4.86754e-21 -0.296507)
(-1.6177e-22 -3.03718e-22 -0.409038)
(3.53633e-20 6.23409e-22 -0.499809)
(-7.63923e-22 7.59934e-20 2.38127e-05)
(1.65672e-21 -4.63293e-20 8.72721e-06)
(-1.62781e-21 -1.63205e-20 -1.18953e-05)
(4.80554e-21 -2.26965e-19 -3.75387e-05)
(-2.46354e-21 2.28816e-19 -6.81194e-05)
(2.22565e-21 -2.26368e-19 -0.000103745)
(-1.1302e-20 4.99141e-19 -0.000144657)
(1.21162e-20 -6.9887e-19 -0.000191198)
(-7.86566e-21 4.94096e-19 -0.000243802)
(-6.3716e-21 4.81633e-19 -0.000302988)
(-2.20102e-21 3.95603e-21 -0.000369365)
(2.5139e-20 -9.45912e-19 -0.00044364)
(-2.21754e-20 9.84149e-19 -0.000526622)
(5.5774e-21 -4.62903e-19 -0.000619237)
(1.25189e-20 -4.65095e-19 -0.000722535)
(2.27451e-20 -4.57498e-19 -0.000837746)
(-3.26399e-21 6.47526e-21 -0.00096631)
(3.91024e-20 -9.48641e-19 -0.00110985)
(3.06417e-20 -9.10532e-19 -0.00127013)
(6.55567e-21 2.11577e-20 -0.00144926)
(-2.7836e-20 9.45469e-19 -0.00164968)
(-1.98686e-20 -7.97489e-21 -0.00187421)
(1.21322e-20 8.83366e-21 -0.00212606)
(-5.19845e-20 9.14673e-19 -0.00240896)
(4.25528e-20 -9.28982e-19 -0.00272724)
(7.40016e-20 -8.9202e-19 -0.00308591)
(-7.5218e-20 9.21269e-19 -0.00349085)
(1.48782e-20 -1.97593e-20 -0.00394901)
(6.942e-20 -8.88382e-19 -0.00446866)
(-9.6825e-20 9.10963e-19 -0.00505985)
(4.3179e-21 1.21783e-20 -0.00573515)
(-2.10254e-19 1.66657e-18 -0.00651086)
(1.90737e-19 -1.7289e-18 -0.00740914)
(4.77883e-20 6.12394e-20 -0.00846192)
(-2.70125e-19 1.57521e-18 -0.00971782)
(2.48212e-19 -1.64231e-18 -0.0112544)
(-3.10946e-20 -3.21621e-21 -0.0131996)
(4.7173e-19 -1.47836e-18 -0.0157671)
(-4.41929e-19 1.52663e-18 -0.0193133)
(-6.50778e-20 -7.13249e-20 -0.0244225)
(6.73804e-19 -1.2874e-18 -0.0320287)
(-1.18633e-18 2.6534e-18 -0.0435723)
(-6.35861e-20 -1.5401e-19 -0.0611901)
(-8.51649e-20 -1.21002e-19 -0.0879236)
(7.60684e-19 -1.15215e-18 -0.12794)
(3.87948e-20 6.18584e-20 -0.186787)
(-8.52108e-19 7.60574e-19 -0.271682)
(8.35351e-19 -8.36712e-19 -0.391312)
(8.7291e-21 2.84674e-20 -0.551917)
(9.07656e-21 -2.65834e-21 -0.661861)
(6.09246e-22 -1.58171e-20 2.10087e-05)
(1.7832e-21 -1.34992e-19 -6.27862e-06)
(-1.89072e-21 1.21725e-19 -3.88947e-05)
(-1.23743e-21 -1.71093e-20 -7.69333e-05)
(5.48692e-21 -2.2553e-19 -0.000120613)
(-5.08372e-21 2.31899e-19 -0.000170287)
(-6.24408e-21 4.68422e-19 -0.000226401)
(-5.02574e-21 -1.93935e-20 -0.000289498)
(2.16258e-21 -4.5833e-21 -0.000360217)
(1.48127e-20 -4.99386e-19 -0.000439292)
(-1.21816e-20 4.67133e-19 -0.000527562)
(1.86908e-20 -9.88149e-19 -0.000625983)
(-4.6184e-21 4.93844e-19 -0.000735639)
(-3.58163e-21 -1.85485e-20 -0.00085776)
(-4.78725e-21 -2.21688e-20 -0.000993725)
(2.95522e-20 -9.68876e-19 -0.00114508)
(-1.62339e-21 -2.0212e-20 -0.00131365)
(2.85425e-20 -9.86711e-19 -0.00150152)
(-5.31762e-21 -7.71498e-21 -0.00171103)
(-1.687e-22 1.17842e-22 -0.00194477)
(1.13103e-20 8.33641e-21 -0.00220575)
(-5.42604e-20 9.48467e-19 -0.00249739)
(4.85978e-20 -9.68725e-19 -0.00282357)
(1.26271e-20 8.24213e-21 -0.00318873)
(-8.57627e-21 -1.48384e-20 -0.00359787)
(-6.10105e-21 9.7908e-21 -0.00405673)
(-7.59488e-20 9.14456e-19 -0.00457181)
(1.63016e-19 -1.86509e-18 -0.00515053)
(-7.75249e-20 9.72255e-19 -0.0058014)
(-1.95951e-19 1.80111e-18 -0.00653435)
(-3.03698e-20 -4.56914e-20 -0.00736113)
(2.29963e-21 -2.69413e-20 -0.00829637)
(-6.5534e-20 -5.39649e-20 -0.00935929)
(2.63187e-19 -1.79773e-18 -0.0105772)
(4.01604e-19 -1.66301e-18 -0.0119921)
(-3.59441e-19 1.74514e-18 -0.0136733)
(-3.34778e-20 -5.41573e-20 -0.0157396)
(4.7449e-19 -1.58752e-18 -0.0183985)
(-4.19634e-19 1.68112e-18 -0.0220114)
(-6.65588e-19 1.49151e-18 -0.0271946)
(5.67133e-19 -1.57494e-18 -0.0349688)
(7.70146e-20 -1.09915e-20 -0.0469629)
(8.59158e-19 -1.38785e-18 -0.0656682)
(1.16988e-19 1.21651e-19 -0.0947392)
(-9.89959e-19 1.35778e-18 -0.139346)
(-1.59416e-20 -3.88789e-20 -0.206659)
(3.29896e-20 5.18183e-22 -0.307171)
(-3.30849e-20 1.56204e-20 -0.45948)
(-5.00279e-19 5.23076e-19 -0.699607)
(4.91493e-19 -5.32392e-19 -0.959111)
(-1.06756e-20 -3.15297e-21 0.00942602)
(-1.06196e-20 -2.6745e-22 0.00518296)
(9.95128e-21 9.81196e-21 0.00159618)
(-6.89585e-21 2.14907e-21 -0.00139887)
(7.41889e-21 -1.16124e-20 -0.00387478)
(6.69977e-23 3.525e-21 -0.00590684)
(-1.73576e-22 -9.78504e-23 -0.00756551)
(-5.6737e-21 1.24089e-23 -0.00891153)
(5.51629e-21 -1.20647e-23 -0.00999468)
(-1.66384e-22 3.63898e-25 -0.0108554)
(-1.61288e-22 3.52752e-25 -0.0115264)
(4.85383e-21 -1.06158e-23 -0.012035)
(-4.86943e-21 1.06499e-23 -0.0124029)
(-4.45194e-21 9.73683e-24 -0.0126475)
(2.7276e-22 -1.07027e-21 -0.0127845)
(6.31217e-21 3.15804e-21 -0.0128271)
(-2.12486e-21 -8.53323e-22 -0.0127862)
(-7.71863e-23 -1.00729e-21 -0.0126719)
(-2.95155e-23 8.16168e-22 -0.0124936)
(-2.18043e-21 -1.25005e-20 -0.0122593)
(2.22156e-21 1.15354e-20 -0.0119757)
(-1.48566e-21 -1.54982e-20 -0.0116489)
(1.81919e-21 5.60995e-22 -0.0112845)
(-2.48504e-21 1.28739e-23 -0.0108892)
(1.63266e-21 1.5898e-21 -0.0104695)
(-6.11218e-22 3.65969e-23 -0.0100313)
(-1.67268e-21 3.65832e-24 -0.00957851)
(7.88953e-22 -2.28005e-23 -0.00911524)
(1.74906e-22 2.40114e-21 -0.00864553)
(-3.66207e-23 3.67402e-23 -0.008173)
(-1.83763e-22 -2.8273e-21 -0.00770096)
(1.61318e-22 3.01589e-21 -0.00723237)
(9.27725e-23 -3.28281e-21 -0.00676995)
(5.25937e-22 3.1516e-20 -0.0063161)
(-8.47057e-22 -3.16225e-20 -0.00587295)
(-6.40405e-22 -2.75168e-20 -0.00544238)
(1.42762e-21 6.00557e-20 -0.005026)
(-7.94593e-22 -3.2812e-20 -0.0046252)
(-1.89122e-22 -4.42877e-21 -0.00424109)
(1.84226e-22 4.59216e-21 -0.0038746)
(-2.43498e-23 1.86221e-24 -0.0035264)
(2.02883e-22 4.93179e-21 -0.00319698)
(-4.73301e-22 -2.58296e-20 -0.00288663)
(4.46182e-22 2.60654e-20 -0.00259547)
(-1.20563e-22 -5.44565e-21 -0.00232343)
(2.92369e-22 1.69053e-20 -0.00207027)
(3.39908e-23 -5.61153e-21 -0.00183557)
(-1.89008e-22 -1.18219e-20 -0.00161865)
(4.9229e-23 5.96017e-21 -0.00141849)
(-1.39494e-22 -6.16484e-21 -0.00123353)
(-1.53436e-20 2.52671e-20 0.027322)
(3.05106e-20 -1.02045e-20 0.0146898)
(-2.45849e-20 -2.15619e-20 0.0039239)
(8.67396e-21 2.24873e-20 -0.00499081)
(-9.04691e-21 -2.20257e-20 -0.0123054)
(-1.27074e-20 6.14562e-21 -0.0182722)
(1.13311e-20 6.87465e-21 -0.0231194)
(1.23898e-20 1.74364e-20 -0.027037)
(9.06569e-22 -2.91432e-20 -0.0301768)
(-2.28699e-20 6.81829e-21 -0.0326619)
(2.20323e-20 -5.10404e-21 -0.0345901)
(-3.38841e-21 -7.06024e-21 -0.0360424)
(-9.11086e-21 2.23075e-20 -0.0370826)
(-1.00169e-20 -4.75249e-21 -0.0377621)
(8.75744e-21 -1.64592e-20 -0.0381272)
(1.04796e-20 6.58056e-21 -0.0382162)
(-8.01084e-21 4.49585e-21 -0.0380612)
(-3.77364e-22 -1.07862e-21 -0.0376921)
(1.39598e-23 -1.24387e-22 -0.0371361)
(7.60924e-22 -1.66422e-24 -0.0364169)
(2.20601e-21 3.50074e-23 -0.0355549)
(-2.23931e-21 -3.45406e-21 -0.0345675)
(1.55839e-20 8.50963e-20 -0.033471)
(-1.75819e-20 -8.92035e-20 -0.0322861)
(2.00392e-20 1.07897e-19 -0.0310291)
(-1.0338e-20 -4.55297e-20 -0.0297189)
(-2.02112e-20 -1.32189e-19 -0.0283677)
(9.01199e-21 6.66446e-20 -0.0269872)
(1.14983e-21 -1.54725e-21 -0.025589)
(-1.87051e-21 -5.43934e-21 -0.0241837)
(1.32625e-21 2.82051e-21 -0.0227807)
(-1.02244e-21 -9.53295e-21 -0.0213889)
(9.98113e-21 1.04581e-19 -0.0200162)
(-2.12519e-20 -2.24866e-19 -0.0186696)
(9.87154e-21 1.09735e-19 -0.0173553)
(-8.20525e-22 -1.14004e-20 -0.0160788)
(8.7336e-24 4.01746e-21 -0.014845)
(1.95936e-23 8.62603e-24 -0.0136577)
(-4.91393e-21 -7.67901e-20 -0.0125202)
(4.19268e-21 6.78248e-20 -0.0114353)
(3.35673e-21 6.82723e-20 -0.0104048)
(-4.88961e-21 -9.30387e-20 -0.00943021)
(1.39986e-22 5.16913e-21 -0.0085123)
(1.06852e-21 2.69767e-20 -0.00765136)
(-2.33912e-21 -4.85398e-20 -0.00684719)
(-6.26124e-24 -5.59062e-21 -0.00609903)
(-1.55386e-21 -4.05232e-20 -0.00540559)
(-3.21288e-22 -6.40014e-21 -0.00476481)
(3.77733e-22 1.17019e-20 -0.0041735)
(4.66501e-22 1.83236e-20 -0.00362668)
(-1.37862e-20 -1.08867e-21 0.0423263)
(-1.36936e-20 -1.52056e-20 0.0214482)
(3.57217e-20 2.92222e-20 0.00350422)
(-4.3625e-20 -1.25052e-20 -0.0110801)
(1.7967e-20 1.21553e-20 -0.0228568)
(2.69892e-20 2.09257e-20 -0.0323434)
(-1.82269e-20 -6.01075e-20 -0.0399756)
(1.60868e-20 -1.98506e-20 -0.0460947)
(-3.19415e-20 3.96785e-20 -0.0509579)
(-4.49147e-21 2.70381e-20 -0.0547737)
(3.774e-20 -4.97271e-20 -0.057705)
(-2.985e-20 3.775e-20 -0.0598812)
(7.0112e-21 -1.12611e-20 -0.0614058)
(-3.43344e-21 -9.60224e-21 -0.0623619)
(5.03266e-20 3.50799e-20 -0.0628206)
(-4.38108e-21 3.32042e-20 -0.0628425)
(-4.3559e-20 -4.95942e-20 -0.0624803)
(1.12112e-20 -6.28667e-21 -0.0617815)
(-7.89866e-21 2.9455e-22 -0.0607888)
(4.40659e-22 -3.11778e-21 -0.0595399)
(2.94999e-20 7.69112e-20 -0.0580676)
(-2.98349e-20 -6.56165e-20 -0.0564001)
(-3.25317e-20 -9.97989e-20 -0.0545647)
(3.58165e-20 9.73436e-20 -0.0525886)
(-1.15582e-21 6.56543e-21 -0.0505044)
(-7.79092e-23 -4.16214e-21 -0.0483366)
(-8.1176e-22 5.95513e-21 -0.0461083)
(-2.99249e-20 -1.55097e-19 -0.0438374)
(3.42206e-20 1.58379e-19 -0.0415421)
(-3.30735e-20 -1.72552e-19 -0.0392389)
(3.53772e-20 1.83243e-19 -0.036943)
(8.27534e-22 6.72142e-21 -0.0346683)
(3.2211e-20 2.23097e-19 -0.0324272)
(-6.44103e-20 -4.49626e-19 -0.030231)
(3.42899e-20 2.41e-19 -0.0280895)
(1.55763e-20 1.38019e-19 -0.0260114)
(-1.39268e-20 -1.21107e-19 -0.0240041)
(-3.74948e-22 -1.39465e-22 -0.022074)
(-2.0078e-22 -1.72979e-22 -0.0202263)
(-7.65612e-24 4.48388e-23 -0.0184649)
(1.31954e-20 1.57669e-19 -0.0167929)
(-1.28811e-20 -1.48125e-19 -0.0152125)
(1.03337e-21 1.04796e-20 -0.0137249)
(-4.71952e-22 -6.30196e-23 -0.0123304)
(5.55338e-21 8.8643e-20 -0.0110286)
(-1.04579e-20 -1.68823e-19 -0.00981807)
(5.22017e-21 9.12626e-20 -0.00869665)
(-2.7658e-21 -4.78538e-20 -0.0076608)
(2.06825e-21 3.55851e-20 -0.0067049)
(4.98836e-22 1.20078e-20 -0.00581955)
(1.97726e-21 2.64489e-20 0.0516994)
(8.53082e-21 -5.40165e-20 0.0228812)
(-7.30322e-20 1.55198e-20 -0.00205398)
(1.20382e-19 8.27135e-20 -0.0217155)
(-3.15634e-20 -1.1167e-19 -0.0371953)
(-1.6189e-20 2.25247e-20 -0.0494211)
(1.16042e-21 1.96077e-20 -0.0591085)
(-1.22984e-20 9.97684e-22 -0.0667775)
(-1.66392e-20 1.55014e-20 -0.0727965)
(6.82433e-20 -2.96569e-20 -0.077451)
(-2.6879e-20 1.27956e-20 -0.0809642)
(-1.35834e-20 6.21827e-22 -0.0835044)
(1.95925e-20 1.03575e-20 -0.0852066)
(-7.01017e-20 -6.12462e-20 -0.0861796)
(5.35836e-20 3.94357e-20 -0.0865133)
(-1.08578e-20 1.2499e-20 -0.0862876)
(9.79375e-21 -8.95199e-21 -0.0855712)
(6.98042e-20 1.26547e-19 -0.0844245)
(-7.43588e-20 -1.10021e-19 -0.0829025)
(8.23048e-22 -1.06347e-20 -0.0810543)
(-2.99322e-21 -1.01197e-22 -0.0789239)
(3.07347e-21 4.94443e-22 -0.0765463)
(2.47746e-21 -9.26678e-23 -0.0739589)
(-6.36054e-21 3.99512e-21 -0.0711954)
(5.45346e-21 4.5216e-22 -0.0682963)
(5.92822e-22 7.84255e-21 -0.0652963)
(-9.48535e-20 -3.27393e-19 -0.0622261)
(9.66934e-20 3.16225e-19 -0.059108)
(-5.29726e-21 4.77475e-21 -0.0559652)
(-4.25911e-20 -1.97233e-19 -0.0528192)
(4.78683e-20 2.01801e-19 -0.0496898)
(-1.12879e-21 1.23373e-21 -0.0465949)
(-1.48891e-22 2.66441e-22 -0.0435508)
(-4.49289e-20 -2.52994e-19 -0.0405719)
(9.01826e-20 5.09243e-19 -0.0376713)
(-8.75779e-20 -5.2379e-19 -0.0348599)
(8.56123e-20 5.46882e-19 -0.0321475)
(-8.29303e-20 -5.68881e-19 -0.0295421)
(4.06314e-20 2.89616e-19 -0.0270503)
(1.93781e-20 1.55792e-19 -0.0246772)
(-1.68821e-20 -1.35913e-19 -0.0224267)
(-1.33078e-21 -1.03906e-20 -0.0203012)
(-1.6985e-20 -1.70004e-19 -0.0183022)
(3.59801e-20 3.66998e-19 -0.0164299)
(-1.67955e-20 -1.75377e-19 -0.0146833)
(1.99776e-22 2.49316e-22 -0.0130606)
(7.45365e-22 1.15506e-20 -0.0115585)
(-1.77938e-22 -1.40335e-22 -0.010172)
(-7.31431e-22 -1.20247e-20 -0.00889261)
(1.60383e-21 2.46624e-20 -0.00770531)
(2.69589e-20 9.48864e-23 0.0517146)
(3.26547e-22 3.97013e-22 0.0153019)
(-6.0917e-20 4.56312e-22 -0.0159283)
(9.02512e-20 -2.61618e-22 -0.0394276)
(-2.70171e-20 7.2569e-23 -0.0572609)
(-4.33685e-20 -8.13629e-22 -0.0709536)
(1.40332e-20 3.68737e-23 -0.0815735)
(-1.16407e-20 -5.99224e-23 -0.0898318)
(9.40035e-20 -2.57147e-20 -0.0961975)
(1.52301e-20 8.0498e-20 -0.101005)
(-2.17511e-21 6.98884e-20 -0.104517)
(-4.1695e-20 -1.26835e-19 -0.106927)
(8.72873e-20 1.52206e-19 -0.108391)
(-1.06185e-19 -1.42944e-19 -0.109032)
(4.47151e-20 9.69545e-20 -0.108954)
(-5.63071e-20 -1.02202e-19 -0.108245)
(5.13596e-21 -7.61268e-21 -0.106983)
(-2.79649e-20 -1.64302e-21 -0.105237)
(2.51747e-20 -3.41807e-21 -0.103069)
(1.43285e-21 2.54377e-21 -0.100535)