/*--------------------------------*- C++ -*----------------------------------*\
| =========                 |                                                 |
| \\      /  F ield         | OpenFOAM: The Open Source CFD Toolbox           |
|  \\    /   O peration     | Version:  2412                                  |
|   \\  /    A nd           | Website:  www.openfoam.com                      |
|    \\/     M anipulation  |                                                 |
\*---------------------------------------------------------------------------*/
FoamFile
{
    version     2.0;
    format      ascii;
    arch        "LSB;label=32;scalar=64";
    class       surfaceScalarField;
    location    "28.5";
    object      phi;
}
// * * * * * * * * * * * * * * * * * * * * * * * * * * * * * * * * * * * * * //

dimensions      [0 3 -1 0 0 0 0];

oriented        oriented;

internalField   nonuniform List<scalar> 
10424
(
0.00505063
1.30477e-07
2.05399e-11
0.00505025
3.80431e-07
6.22906e-11
0.00504963
6.16927e-07
9.94815e-11
0.00504879
8.41616e-07
1.29776e-10
0.00504773
1.05621e-06
1.51667e-10
0.00504647
1.26213e-06
1.65704e-10
0.00504501
1.46047e-06
1.7438e-10
0.00504336
1.65219e-06
1.80843e-10
0.00504152
1.83864e-06
1.87018e-10
0.00503949
2.02243e-06
1.91484e-10
0.00503729
2.20818e-06
1.88167e-10
0.00503488
2.40266e-06
1.6651e-10
0.00503227
2.61383e-06
1.13459e-10
0.00502942
2.84903e-06
1.74372e-11
0.00502631
3.11283e-06
-1.27102e-10
0.0050229
3.40527e-06
-3.16078e-10
0.00501918
3.72114e-06
-5.34404e-10
0.00501513
4.05054e-06
-7.57288e-10
0.00501075
4.38052e-06
-9.53994e-10
0.00500606
4.69728e-06
-1.09325e-09
0.00500107
4.98841e-06
-1.14878e-09
0.00499583
5.2446e-06
-1.10344e-09
0.00499037
5.46066e-06
-9.51072e-10
0.00498473
5.63559e-06
-6.96398e-10
0.00497896
5.77216e-06
-3.53635e-10
0.00497308
5.87594e-06
5.61397e-11
0.00496713
5.95418e-06
5.08358e-10
0.00496111
6.01478e-06
9.78301e-10
0.00495505
6.06537e-06
1.4435e-09
0.00494893
6.11273e-06
1.88534e-09
0.00494277
6.16243e-06
2.28985e-09
0.00493655
6.21869e-06
2.64785e-09
0.00493026
6.28444e-06
2.95454e-09
0.00492389
6.36146e-06
3.20875e-09
0.00491744
6.45061e-06
3.4121e-09
0.00491088
6.55207e-06
3.5683e-09
0.00490421
6.6655e-06
3.68227e-09
0.00489742
6.79028e-06
3.75954e-09
0.00489049
6.92563e-06
3.80559e-09
0.00488342
7.07069e-06
3.82566e-09
0.00487619
7.22465e-06
3.82457e-09
0.0048688
7.38675e-06
3.80656e-09
0.00486124
7.55633e-06
3.77522e-09
0.0048535
7.73281e-06
3.73346e-09
0.00484558
7.91574e-06
3.68366e-09
0.00483747
8.10473e-06
3.62769e-09
0.00482917
8.2995e-06
3.56695e-09
0.00482067
8.49984e-06
3.50263e-09
0.00481196
8.70559e-06
3.43557e-09
0.00480304
8.91669e-06
3.36641e-09
0.0047939
9.13317e-06
3.29559e-09
0.00478454
9.35524e-06
3.22339e-09
0.00477496
9.58369e-06
3.15006e-09
0.00476513
9.82095e-06
3.07573e-09
1.0074e-05
0.00475505
2.99908e-09
0.00505063
2.60889e-07
0.00505025
7.60653e-07
0.00504963
1.23352e-06
0.00504879
1.68277e-06
0.00504773
2.11182e-06
0.00504647
2.52351e-06
0.00504501
2.92006e-06
0.00504336
3.30335e-06
0.00504152
3.67611e-06
0.0050395
4.04351e-06
0.0050373
4.41481e-06
0.0050349
4.80347e-06
0.00503228
5.22536e-06
0.00502944
5.69516e-06
0.00502633
6.22199e-06
0.00502293
6.80596e-06
0.00501921
7.43674e-06
0.00501517
8.09461e-06
0.00501079
8.75376e-06
0.00500611
9.3867e-06
0.00500112
9.96864e-06
0.00499589
1.0481e-05
0.00499044
1.09134e-05
0.00498481
1.12637e-05
0.00497904
1.15376e-05
0.00497317
1.17459e-05
0.00496722
1.19032e-05
0.00496121
1.20251e-05
0.00495515
1.2127e-05
0.00494904
1.22222e-05
0.00494288
1.2322e-05
0.00493667
1.24347e-05
0.00493038
1.25662e-05
0.00492403
1.27201e-05
0.00491758
1.28981e-05
0.00491103
1.31006e-05
0.00490437
1.3327e-05
0.00489758
1.35759e-05
0.00489066
1.38459e-05
0.0048836
1.41353e-05
0.00487638
1.44424e-05
0.004869
1.47657e-05
0.00486145
1.51039e-05
0.00485373
1.5456e-05
0.00484583
1.58208e-05
0.00483773
1.61977e-05
0.00482945
1.65861e-05
0.00482096
1.69856e-05
0.00481227
1.73959e-05
0.00480337
1.78168e-05
0.00479425
1.82483e-05
0.00478492
1.86909e-05
0.00477536
1.91461e-05
0.00476556
1.96185e-05
2.01216e-05
0.00475551
0.00505063
3.91129e-07
0.00505025
1.14033e-06
0.00504963
1.84926e-06
0.00504879
2.52273e-06
0.00504774
3.16593e-06
0.00504648
3.78309e-06
0.00504502
4.37753e-06
0.00504337
4.95211e-06
0.00504154
5.51085e-06
0.00503952
6.06154e-06
0.00503732
6.61796e-06
0.00503492
7.20023e-06
0.00503231
7.83209e-06
0.00502947
8.53547e-06
0.00502637
9.3241e-06
0.00502298
1.01982e-05
0.00501927
1.11424e-05
0.00501524
1.21273e-05
0.00501088
1.31145e-05
0.0050062
1.40627e-05
0.00500124
1.49349e-05
0.00499601
1.57034e-05
0.00499057
1.63522e-05
0.00498496
1.68785e-05
0.00497921
1.72902e-05
0.00497335
1.76038e-05
0.00496741
1.78408e-05
0.00496141
1.80247e-05
0.00495536
1.81781e-05
0.00494926
1.83213e-05
0.00494311
1.8471e-05
0.00493691
1.86398e-05
0.00493064
1.88365e-05
0.00492429
1.90665e-05
0.00491786
1.93325e-05
0.00491132
1.96349e-05
0.00490468
1.99729e-05
0.00489791
2.03447e-05
0.00489101
2.07479e-05
0.00488396
2.118e-05
0.00487676
2.16386e-05
0.00486941
2.21215e-05
0.00486189
2.26266e-05
0.00485419
2.31523e-05
0.00484631
2.36972e-05
0.00483825
2.426e-05
0.00483
2.484e-05
0.00482155
2.54365e-05
0.00481289
2.60489e-05
0.00480403
2.66771e-05
0.00479496
2.73211e-05
0.00478567
2.79813e-05
0.00477616
2.86599e-05
0.00476641
2.93633e-05
3.011e-05
0.00475642
0.00505063
5.21112e-07
0.00505025
1.51919e-06
0.00504963
2.4637e-06
0.0050488
3.36092e-06
0.00504774
4.21779e-06
0.00504649
5.03996e-06
0.00504503
5.83184e-06
0.00504339
6.59724e-06
0.00504156
7.34153e-06
0.00503954
8.07499e-06
0.00503735
8.81591e-06
0.00503495
9.59096e-06
0.00503236
1.04316e-05
0.00502952
1.13671e-05
0.00502643
1.24157e-05
0.00502305
1.35779e-05
0.00501936
1.48333e-05
0.00501535
1.61433e-05
0.005011
1.74566e-05
0.00500635
1.87188e-05
0.0050014
1.98805e-05
0.0049962
2.09048e-05
0.00499078
2.17705e-05
0.00498519
2.24734e-05
0.00497945
2.30239e-05
0.00497361
2.34438e-05
0.00496769
2.37615e-05
0.00496171
2.4008e-05
0.00495567
2.42135e-05
0.00494959
2.44049e-05
0.00494346
2.46044e-05
0.00493727
2.48288e-05
0.00493101
2.50898e-05
0.00492469
2.53947e-05
0.00491827
2.57472e-05
0.00491176
2.61478e-05
0.00490514
2.65957e-05
0.00489839
2.70882e-05
0.00489152
2.76224e-05
0.0048845
2.8195e-05
0.00487734
2.88028e-05
0.00487002
2.94427e-05
0.00486253
3.01121e-05
0.00485488
3.08087e-05
0.00484704
3.15307e-05
0.00483903
3.22765e-05
0.00483082
3.3045e-05
0.00482242
3.38351e-05
0.00481383
3.46463e-05
0.00480502
3.54781e-05
0.00479601
3.63305e-05
0.00478679
3.72041e-05
0.00477735
3.81012e-05
0.00476768
3.90292e-05
4.00102e-05
0.00475778
0.00505063
6.50759e-07
0.00505025
1.89697e-06
0.00504964
3.07642e-06
0.0050488
4.19674e-06
0.00504775
5.26665e-06
0.0050465
6.29322e-06
0.00504505
7.28194e-06
0.00504341
8.23757e-06
0.00504158
9.16679e-06
0.00503958
1.00824e-05
0.00503738
1.10069e-05
0.005035
1.19737e-05
0.00503241
1.30217e-05
0.00502959
1.41874e-05
0.00502651
1.54936e-05
0.00502315
1.69411e-05
0.00501948
1.8505e-05
0.00501549
2.01372e-05
0.00501117
2.17744e-05
0.00500654
2.33488e-05
0.00500162
2.47991e-05
0.00499644
2.60789e-05
0.00499105
2.71617e-05
0.00498548
2.8042e-05
0.00497978
2.87326e-05
0.00497396
2.926e-05
0.00496806
2.96595e-05
0.0049621
2.99696e-05
0.00495609
3.02279e-05
0.00495002
3.04677e-05
0.00494391
3.07167e-05
0.00493774
3.09959e-05
0.00493151
3.13201e-05
0.00492521
3.16984e-05
0.00491882
3.21354e-05
0.00491234
3.26322e-05
0.00490575
3.31873e-05
0.00489904
3.3798e-05
0.0048922
3.44604e-05
0.00488522
3.51704e-05
0.0048781
3.59241e-05
0.00487083
3.67177e-05
0.00486339
3.7548e-05
0.00485579
3.8412e-05
0.00484801
3.93074e-05
0.00484005
4.02323e-05
0.00483191
4.11851e-05
0.00482358
4.21646e-05
0.00481506
4.317e-05
0.00480634
4.42006e-05
0.00479741
4.52564e-05
0.00478828
4.63377e-05
0.00477893
4.74468e-05
0.00476937
4.85914e-05
4.97942e-05
0.00475959
0.00505063
7.79991e-07
0.00505025
2.27338e-06
0.00504964
3.687e-06
0.00504881
5.02961e-06
0.00504776
6.31178e-06
0.00504651
7.54198e-06
0.00504507
8.72678e-06
0.00504343
9.8719e-06
0.00504162
1.09853e-05
0.00503962
1.20821e-05
0.00503743
1.31894e-05
0.00503506
1.43465e-05
0.00503248
1.56001e-05
0.00502968
1.69936e-05
0.00502662
1.85545e-05
0.00502327
2.02841e-05
0.00501963
2.2153e-05
0.00501566
2.41043e-05
0.00501137
2.60626e-05
0.00500677
2.79471e-05
0.00500189
2.96845e-05
0.00499675
3.12194e-05
0.00499139
3.25198e-05
0.00498585
3.35785e-05
0.00498017
3.44103e-05
0.00497439
3.50467e-05
0.00496852
3.55295e-05
0.00496258
3.59043e-05
0.00495659
3.62159e-05
0.00495056
3.65043e-05
0.00494447
3.68024e-05
0.00493833
3.71356e-05
0.00493213
3.75215e-05
0.00492586
3.79713e-05
0.0049195
3.84905e-05
0.00491305
3.90806e-05
0.0049065
3.97401e-05
0.00489983
4.04656e-05
0.00489304
4.12526e-05
0.00488612
4.20964e-05
0.00487905
4.29921e-05
0.00487183
4.39354e-05
0.00486446
4.49223e-05
0.00485692
4.59492e-05
0.00484921
4.70135e-05
0.00484133
4.81126e-05
0.00483327
4.92448e-05
0.00482503
5.04084e-05
0.0048166
5.16025e-05
0.00480797
5.28261e-05
0.00479915
5.40788e-05
0.00479012
5.5361e-05
0.0047809
5.66744e-05
0.00477146
5.80256e-05
5.94351e-05
0.00476182
0.00505063
9.08688e-07
0.00505025
2.6482e-06
0.00504965
4.295e-06
0.00504882
5.85894e-06
0.00504778
7.35245e-06
0.00504653
8.78536e-06
0.00504509
1.01653e-05
0.00504347
1.14991e-05
0.00504166
1.27957e-05
0.00503967
1.40728e-05
0.00503749
1.53615e-05
0.00503513
1.67074e-05
0.00503257
1.81645e-05
0.00502978
1.97831e-05
0.00502674
2.15955e-05
0.00502342
2.36035e-05
0.0050198
2.57735e-05
0.00501586
2.804e-05
0.00501161
3.03161e-05
0.00500705
3.25082e-05
0.0050022
3.45313e-05
0.0049971
3.63207e-05
0.00499178
3.78389e-05
0.00498628
3.90769e-05
0.00498064
4.00514e-05
0.00497489
4.07984e-05
0.00496905
4.13659e-05
0.00496315
4.18066e-05
0.00495719
4.21723e-05
0.00495119
4.25094e-05
0.00494513
4.28561e-05
0.00493903
4.3242e-05
0.00493286
4.36879e-05
0.00492663
4.42068e-05
0.00492031
4.48055e-05
0.00491391
4.54858e-05
0.0049074
4.62461e-05
0.00490078
4.70825e-05
0.00489405
4.799e-05
0.00488718
4.89632e-05
0.00488017
4.99964e-05
0.00487303
5.10846e-05
0.00486572
5.2223e-05
0.00485827
5.34078e-05
0.00485064
5.46355e-05
0.00484285
5.59032e-05
0.00483489
5.72088e-05
0.00482675
5.85505e-05
0.00481842
5.99267e-05
0.00480991
6.13365e-05
0.00480121
6.27791e-05
0.00479232
6.42543e-05
0.00478323
6.57631e-05
0.00477395
6.73094e-05
0.00476448
6.89045e-05
0.00475493
1.25009e-07
2.93013e-09
0.00475426
6.60649e-07
2.9149e-09
0.00475303
1.23153e-06
2.89076e-09
0.00475119
1.83991e-06
2.86208e-09
0.00474869
2.4889e-06
2.83016e-09
0.00474551
3.182e-06
2.79485e-09
0.00474158
3.92309e-06
2.75589e-09
0.00473686
4.71653e-06
2.71319e-09
0.00473129
5.56717e-06
2.6665e-09
0.00472481
6.48046e-06
2.61576e-09
0.00471735
7.46245e-06
2.56066e-09
0.00470882
8.51998e-06
2.50107e-09
0.00469916
9.66065e-06
2.43683e-09
0.00468827
1.08931e-05
2.36948e-09
0.00467604
1.2227e-05
2.29301e-09
1.36733e-05
2.22209e-09
0.00475402
1.61864e-06
0.00475199
2.68876e-06
0.00474939
3.82822e-06
0.00474619
5.04259e-06
0.00474234
6.33808e-06
0.0047378
7.72169e-06
0.00473252
9.20124e-06
0.00472645
1.07855e-05
0.00471954
1.24841e-05
0.00471171
1.43081e-05
0.0047029
1.62696e-05
0.00469304
1.83822e-05
0.00468204
2.06613e-05
0.00466981
2.3124e-05
0.00465625
2.57899e-05
2.86808e-05
0.00475221
5.82771e-06
0.00474747
7.4277e-06
0.00474217
9.13104e-06
0.00473627
1.09464e-05
0.00472972
1.28831e-05
0.00472249
1.49518e-05
0.00471453
1.71643e-05
0.00470578
1.95339e-05
0.00469619
2.20751e-05
0.00468569
2.48045e-05
0.00467422
2.77403e-05
0.0046617
3.09029e-05
0.00464805
3.43156e-05
0.00463317
3.8004e-05
0.00461696
4.19976e-05
4.63292e-05
0.00474955
1.40658e-05
0.00474079
1.6188e-05
0.00473147
1.84473e-05
0.00472156
2.08551e-05
0.00471102
2.34243e-05
0.0046998
2.61693e-05
0.00468786
2.91059e-05
0.00467514
3.22519e-05
0.00466159
3.56269e-05
0.00464714
3.92529e-05
0.00463173
4.31544e-05
0.00461527
4.73588e-05
0.00459769
5.18968e-05
0.00457889
5.68032e-05
0.00455877
6.21169e-05
6.78822e-05
0.00474606
2.75941e-05
0.00473202
3.02267e-05
0.00471744
3.30292e-05
0.00470228
3.60167e-05
0.0046865
3.92056e-05
0.00467005
4.2614e-05
0.00465289
4.62619e-05
0.00463498
5.01715e-05
0.00461623
5.43676e-05
0.00459661
5.88776e-05
0.00457603
6.37322e-05
0.00455443
6.89658e-05
0.0045317
7.4617e-05
0.00450778
8.07291e-05
0.00448254
8.73513e-05
9.45388e-05
0.00474181
4.76039e-05
0.00472131
5.07277e-05
0.00470029
5.40554e-05
0.0046787
5.76047e-05
0.00465651
6.13957e-05
0.00463367
6.54502e-05
0.00461014
6.97923e-05
0.00458586
7.44486e-05
0.00456078
7.94487e-05
0.00453483
8.48257e-05
0.00450795
9.06163e-05
0.00448005
9.68621e-05
0.00445106
0.000103609
0.00442088
0.00011091
0.00438941
0.000118824
0.000127417
0.00473689
7.51921e-05
0.00470884
7.87791e-05
0.00468029
8.2607e-05
0.0046512
8.66947e-05
0.00462153
9.1065e-05
0.00459123
9.57428e-05
0.00456027
0.000100756
0.00452858
0.000106136
0.00449612
0.000111916
0.00446281
0.000118135
0.00442859
0.000124837
0.00439338
0.000132069
0.0043571
0.000139885
0.00431967
0.000148348
0.00428096
0.000157526
0.000167496
0.00498558
8.57531e-05
-0.00499614
0.00497457
8.97846e-05
0.00496309
9.40878e-05
0.0049511
9.8684e-05
0.00493857
0.000103597
0.00492546
0.000108855
0.00491173
0.000114486
0.00489734
0.000120526
0.00488224
0.000127011
0.0048664
0.000133983
0.00484974
0.000141489
0.00483223
0.000149582
0.00481379
0.00015832
0.00479437
0.00016777
0.00477389
0.000178006
0.000189112
0.00498955
9.60994e-05
-0.0049999
0.00497877
0.000100565
0.00496753
0.00010533
0.0049558
0.000110416
0.00494355
0.00011585
0.00493074
0.000121662
0.00491734
0.000127884
0.00490332
0.000134552
0.00488862
0.000141706
0.00487321
0.000149391
0.00485705
0.000157657
0.00484007
0.000166561
0.00482222
0.000176164
0.00480346
0.000186537
0.0047837
0.000197759
0.000209918
0.00499401
0.00010619
-0.0050041
0.00498349
0.000111076
0.00497254
0.000116283
0.00496112
0.000121839
0.0049492
0.00012777
0.00493675
0.000134109
0.00492375
0.00014089
0.00491015
0.000148151
0.00489592
0.000155934
0.00488102
0.000164289
0.00486541
0.000173266
0.00484905
0.000182924
0.00483188
0.00019333
0.00481386
0.000204556
0.00479494
0.000216684
0.000229807
0.0049989
0.000115994
-0.0050087
0.00498869
0.000121281
0.00497807
0.000126911
0.00496699
0.000132911
0.00495545
0.000139312
0.00494341
0.000146148
0.00493085
0.000153453
0.00491773
0.000161269
0.00490403
0.00016964
0.0048897
0.000178615
0.00487471
0.000188249
0.00485904
0.000198603
0.00484262
0.000209744
0.00482543
0.000221748
0.00480742
0.000234698
0.000248688
0.0050042
0.000125486
-0.0050137
0.00499433
0.000131152
0.00498406
0.000137179
0.00497338
0.000143598
0.00496225
0.00015044
0.00495066
0.000157739
0.00493858
0.000165532
0.00492599
0.000173862
0.00491285
0.000182775
0.00489915
0.00019232
0.00488484
0.000202555
0.0048699
0.00021354
0.0048543
0.000225346
0.004838
0.000238048
0.00482097
0.000251732
0.000266492
0.00500989
0.000134646
-0.00501905
0.00500038
0.000140665
0.0049905
0.000147064
0.00498022
0.000153872
0.00496954
0.000161122
0.00495843
0.000168849
0.00494687
0.000177092
0.00493484
0.000185893
0.00492231
0.000195299
0.00490927
0.000205362
0.00489569
0.000216138
0.00488154
0.000227691
0.0048668
0.000240088
0.00485144
0.000253408
0.00483543
0.000267735
0.000283163
0.00501594
0.000143455
-0.00502475
0.0050068
0.000149802
0.00499732
0.000156543
0.00498749
0.00016371
0.00497727
0.000171335
0.00496667
0.000179453
0.00495566
0.000188104
0.00494422
0.000197332
0.00493234
0.000207182
0.00491999
0.000217708
0.00490716
0.000228966
0.00489383
0.000241018
0.00487999
0.000253935
0.00486561
0.000267791
0.00485067
0.00028267
0.000298666
0.00502232
0.000151897
-0.00503076
0.00501357
0.000158545
0.00500452
0.0001656
0.00499513
0.000173093
0.00498541
0.000181057
0.00497533
0.000189529
0.00496489
0.000198547
0.00495407
0.000208155
0.00494285
0.0002184
0.00493122
0.000229334
0.00491918
0.000241012
0.0049067
0.000253498
0.00489377
0.000266859
0.0048804
0.000281169
0.00486655
0.000296511
0.000312975
0.00502899
0.000159961
-0.00503705
0.00502065
0.000166881
0.00501203
0.000174219
0.00500312
0.000182006
0.0049939
0.000190275
0.00498437
0.000199061
0.00497452
0.000208404
0.00496432
0.000218346
0.00495379
0.000228935
0.0049429
0.000240221
0.00493165
0.00025226
0.00492004
0.000265113
0.00490805
0.000278845
0.00489569
0.00029353
0.00488296
0.000309246
0.000326081
0.00503594
0.000167634
-0.00504361
0.00502802
0.000174799
0.00501985
0.00018239
0.00501142
0.000190438
0.00500272
0.000198975
0.00499374
0.000208037
0.00498448
0.000217663
0.00497493
0.000227894
0.00496509
0.000238777
0.00495495
0.000250361
0.00494451
0.0002627
0.00493377
0.000275854
0.00492273
0.000289887
0.00491139
0.000304868
0.00489976
0.000320873
0.000337985
0.00504313
0.00017491
-0.0050504
0.00503564
0.000182291
0.00502792
0.000190105
0.00501998
0.000198381
0.0050118
0.000207151
0.00500339
0.00021645
0.00499474
0.000226317
0.00498584
0.000236791
0.0049767
0.000247918
0.00496731
0.000259747
0.00495768
0.000272328
0.00494782
0.000285721
0.00493772
0.000299984
0.0049274
0.000315187
0.00491687
0.000331399
0.0003487
0.00505053
0.000181781
-0.0050574
0.00504347
0.000189352
0.00503622
0.000197358
0.00502877
0.000205829
0.00502113
0.000214797
0.00501328
0.000224296
0.00500523
0.000234362
0.00499699
0.000245036
0.00498855
0.000256359
0.00497991
0.00026838
0.0049711
0.000281148
0.0049621
0.000294717
0.00495294
0.000309146
0.00494363
0.000324498
0.00493418
0.00034084
0.000358246
0.00505813
0.000188244
-0.00506459
0.0050515
0.000195976
0.00504471
0.000204146
0.00503776
0.000212781
0.00503065
0.000221913
0.00502337
0.000231574
0.00501593
0.0002418
0.00500834
0.00025263
0.00500059
0.000264104
0.00499271
0.000276267
0.00498469
0.000289167
0.00497655
0.000302855
0.00496831
0.000317386
0.00495999
0.00033282
0.00495161
0.00034922
0.000366652
0.00506588
0.000194296
-0.00507193
0.00505969
0.000202164
0.00505337
0.000210468
0.00504691
0.000219236
0.00504033
0.000228498
0.00503362
0.000238286
0.00502678
0.000248634
0.00501983
0.000259578
0.00501278
0.000271158
0.00500563
0.000283416
0.0049984
0.000296397
0.0049911
0.000310149
0.00498377
0.000324724
0.00497641
0.000340177
0.00496906
0.000356566
0.000373953
0.00507376
0.000199938
-0.0050794
0.00506801
0.000207915
0.00506215
0.000216325
0.00505619
0.000225197
0.00505013
0.000234558
0.00504398
0.000244438
0.00503775
0.000254871
0.00503143
0.000265891
0.00502506
0.000277534
0.00501863
0.000289842
0.00501217
0.000302855
0.0050057
0.00031662
0.00499924
0.000331184
0.00499282
0.000346597
0.00498647
0.000362914
0.00038019
0.00508175
0.000205171
-0.00508699
0.00507644
0.000213231
0.00507104
0.000221722
0.00506557
0.000230668
0.00506003
0.000240097
0.00505443
0.000250038
0.00504878
0.00026052
0.00504309
0.000271578
0.00503738
0.000283246
0.00503166
0.000295561
0.00502596
0.000308562
0.00502028
0.000322292
0.00501468
0.000336794
0.00500916
0.000352114
0.00500377
0.000368301
0.000385406
0.00508983
0.000209998
-0.00509466
0.00508494
0.000218118
0.00508
0.000226663
0.00507501
0.000235657
0.00506998
0.000245125
0.00506493
0.000255094
0.00505985
0.000265594
0.00505478
0.000276655
0.00504971
0.00028831
0.00504468
0.000300593
0.0050397
0.00031354
0.0050348
0.000327191
0.00503001
0.000341584
0.00502536
0.000356763
0.0050209
0.00037277
0.000389651
0.00509796
0.000214424
-0.00510239
0.0050935
0.000222582
0.005089
0.000231156
0.00508449
0.000240171
0.00507996
0.000249651
0.00507544
0.00025962
0.00507093
0.000270106
0.00506644
0.000281138
0.00506201
0.000292745
0.00505764
0.00030496
0.00505337
0.000317815
0.00504921
0.000331346
0.00504521
0.000345589
0.00504139
0.000360582
0.00503779
0.000376363
0.000392972
0.00510613
0.000218455
-0.00511016
0.00510208
0.000226628
0.00509803
0.000235209
0.00509398
0.000244221
0.00508994
0.000253686
0.00508593
0.000263628
0.00508197
0.000274072
0.00507806
0.000285044
0.00507423
0.000296572
0.00507051
0.000308685
0.00506691
0.000321414
0.00506347
0.000334789
0.00506021
0.000348844
0.00505718
0.000363612
0.00505442
0.000379127
0.000395423
0.00511431
0.000222099
-0.00511795
0.00511067
0.000230266
0.00510705
0.000238833
0.00510345
0.000247819
0.00509989
0.000257246
0.00509639
0.000267135
0.00509295
0.00027751
0.0050896
0.000288394
0.00508636
0.000299814
0.00508325
0.000311795
0.00508029
0.000324366
0.00507753
0.000337553
0.00507499
0.000351386
0.00507271
0.000365894
0.00507073
0.000381107
0.000397055
0.00512249
0.000225363
-0.00512575
0.00511925
0.000233505
0.00511604
0.000242037
0.00511288
0.000250976
0.00510979
0.000260342
0.00510677
0.000270156
0.00510384
0.000280437
0.00510102
0.000291209
0.00509834
0.000302494
0.00509582
0.000314317
0.00509349
0.0003267
0.00509137
0.00033967
0.0050895
0.000353252
0.00508793
0.00036747
0.00508668
0.000382352
0.000397921
0.00513063
0.000228257
-0.00513353
0.00512778
0.000236357
0.00512499
0.000244835
0.00512225
0.000253707
0.0051196
0.000262992
0.00511705
0.000272708
0.00511461
0.000282875
0.00511231
0.000293511
0.00511017
0.000304638
0.00510821
0.000316276
0.00510646
0.000328448
0.00510496
0.000341176
0.00510373
0.00035448
0.00510281
0.000368384
0.00510226
0.000382908
0.000398073
0.00513874
0.000230791
-0.00514127
0.00513627
0.000238832
0.00513386
0.000247239
0.00513154
0.000256027
0.00512932
0.000265212
0.00512722
0.000274811
0.00512525
0.000284842
0.00512344
0.000295322
0.00512181
0.000306269
0.00512038
0.000317703
0.00511919
0.000329641
0.00511826
0.000342104
0.00511763
0.000355109
0.00511734
0.000368676
0.00511743
0.000382821
0.000397562
0.00514679
0.000232976
-0.00514897
0.00514468
0.000240943
0.00514265
0.000249263
0.00514073
0.000257949
0.00513892
0.000267018
0.00513725
0.000276483
0.00513573
0.00028636
0.00513439
0.000296666
0.00513324
0.000307415
0.00513232
0.000318625
0.00513165
0.000330311
0.00513127
0.00034249
0.0051312
0.000355178
0.00513148
0.000368389
0.00513217
0.000382138
0.000396439
0.00515476
0.000234824
-0.0051566
0.005153
0.000242702
0.00515134
0.000250921
0.0051498
0.000259491
0.00514839
0.000268428
0.00514713
0.000277743
0.00514604
0.000287451
0.00514514
0.000297565
0.00514445
0.0003081
0.00514401
0.00031907
0.00514383
0.000330488
0.00514395
0.000342368
0.00514441
0.000354722
0.00514523
0.000367564
0.00514647
0.000380904
0.000394751
0.00516264
0.000236346
-0.00516416
0.00516122
0.000244124
0.00515991
0.000252227
0.00515873
0.000260669
0.0051577
0.000269459
0.00515683
0.000278611
0.00515615
0.000288136
0.00515567
0.000298045
0.00515542
0.000308352
0.00515542
0.000319067
0.00515571
0.000330203
0.0051563
0.000341771
0.00515724
0.00035378
0.00515857
0.000366241
0.00516031
0.000379161
0.000392546
0.00517042
0.000237555
-0.00517163
0.00516932
0.00024522
0.00516835
0.000253198
0.00516752
0.000261498
0.00516685
0.000270131
0.00516636
0.000279106
0.00516606
0.000288436
0.00516597
0.000298128
0.00516613
0.000308195
0.00516655
0.000318645
0.00516727
0.000329488
0.00516831
0.000340733
0.0051697
0.000352387
0.00517148
0.000364459
0.00517369
0.000376952
0.00038987
0.00517809
0.000238464
-0.005179
0.0051773
0.000246006
0.00517665
0.000253847
0.00517616
0.000261995
0.00517583
0.00027046
0.00517568
0.000279249
0.00517575
0.000288373
0.00517604
0.000297838
0.00517658
0.000307655
0.00517739
0.00031783
0.00517851
0.000328371
0.00517996
0.000339285
0.00518177
0.000350578
0.00518397
0.000362254
0.00518661
0.000374316
0.000386765
0.00518563
0.000239085
-0.00518625
0.00518514
0.000246495
0.0051848
0.00025419
0.00518462
0.000262178
0.00518461
0.000270465
0.0051848
0.000279059
0.00518521
0.000287968
0.00518585
0.000297198
0.00518675
0.000306756
0.00518793
0.000316649
0.00518942
0.000326882
0.00519124
0.00033746
0.00519343
0.000348386
0.00519602
0.000359664
0.00519905
0.000371293
0.000383272
0.00519305
-0.00519339
0.00519284
0.00519279
0.0051929
0.0051932
0.00519371
0.00519443
0.0051954
0.00519663
0.00519815
0.00519999
0.00520216
0.0052047
0.00520765
0.00521102
0.00529276
1.04259e-06
0.00529237
3.03938e-06
0.00529174
4.92887e-06
0.00529087
6.72361e-06
0.00528979
8.43743e-06
0.00528849
1.00816e-05
0.00528699
1.1665e-05
0.00528529
1.31953e-05
0.00528341
1.46828e-05
0.00528133
1.61476e-05
0.00527907
1.7625e-05
0.00527661
1.91668e-05
0.00527394
2.08346e-05
0.00527104
2.2686e-05
0.00526787
2.47579e-05
0.00526442
2.70531e-05
0.00526066
2.9534e-05
0.00525658
3.21264e-05
0.00525216
3.47316e-05
0.00524743
3.7243e-05
0.00524239
3.95635e-05
0.0052371
4.16188e-05
0.00523157
4.33654e-05
0.00522585
4.47925e-05
0.00521999
4.59181e-05
0.005214
4.67827e-05
0.00520793
4.74405e-05
0.00520178
4.79515e-05
0.00519558
4.83746e-05
0.00518933
4.87626e-05
0.00518302
4.91595e-05
0.00517667
4.95992e-05
0.00517025
5.01058e-05
0.00516376
5.06943e-05
0.00515719
5.13729e-05
0.00515054
5.21437e-05
0.00514378
5.30052e-05
0.00513691
5.39532e-05
0.00512991
5.4982e-05
0.00512279
5.60854e-05
0.00511553
5.72571e-05
0.00510813
5.84912e-05
0.00510057
5.97825e-05
0.00509285
6.11262e-05
0.00508496
6.25185e-05
0.00507691
6.39562e-05
0.00506868
6.54364e-05
0.00506028
6.6957e-05
0.00505169
6.85164e-05
0.00504291
7.0113e-05
0.00503394
7.17459e-05
0.00502478
7.34144e-05
0.00501543
7.51186e-05
0.00500588
7.68601e-05
7.86428e-05
0.00529276
1.17571e-06
0.00529237
3.42822e-06
0.00529174
5.55897e-06
0.00529088
7.58311e-06
0.0052898
9.51587e-06
0.00528852
1.137e-05
0.00528703
1.31555e-05
0.00528534
1.48809e-05
0.00528346
1.65581e-05
0.0052814
1.82091e-05
0.00527915
1.98736e-05
0.00527671
2.16092e-05
0.00527406
2.34849e-05
0.00527118
2.55653e-05
0.00526805
2.78924e-05
0.00526463
3.04699e-05
0.00526091
3.32565e-05
0.00525687
3.61697e-05
0.0052525
3.90996e-05
0.00524781
4.19269e-05
0.00524283
4.45425e-05
0.00523759
4.68627e-05
0.00523212
4.88378e-05
0.00522646
5.04548e-05
0.00522064
5.1733e-05
0.00521471
5.27169e-05
0.00520868
5.34666e-05
0.00520258
5.4049e-05
0.00519643
5.453e-05
0.00519022
5.49688e-05
0.00518397
5.54149e-05
0.00517766
5.59066e-05
0.00517129
5.64712e-05
0.00516486
5.71261e-05
0.00515835
5.78805e-05
0.00515176
5.87374e-05
0.00514507
5.96952e-05
0.00513827
6.07493e-05
0.00513136
6.18935e-05
0.00512433
6.31211e-05
0.00511716
6.44248e-05
0.00510985
6.57983e-05
0.0051024
6.72353e-05
0.00509479
6.87308e-05
0.00508703
7.02803e-05
0.00507911
7.18799e-05
0.00507102
7.35265e-05
0.00506276
7.52176e-05
0.00505432
7.69512e-05
0.00504571
7.87254e-05
0.00503692
8.05389e-05
0.00502794
8.23907e-05
0.00501878
8.42803e-05
0.00500943
8.62079e-05
8.81747e-05
0.00529276
1.30797e-06
0.00529238
3.81441e-06
0.00529175
6.18484e-06
0.0052909
8.43678e-06
0.00528982
1.0587e-05
0.00528855
1.26495e-05
0.00528707
1.46356e-05
0.00528539
1.65548e-05
0.00528353
1.84201e-05
0.00528148
2.02558e-05
0.00527925
2.21053e-05
0.00527683
2.40324e-05
0.0052742
2.6113e-05
0.00527135
2.84187e-05
0.00526824
3.09964e-05
0.00526486
3.38509e-05
0.00526118
3.69375e-05
0.00525718
4.01663e-05
0.00525287
4.34161e-05
0.00524824
4.65556e-05
0.00524332
4.94638e-05
0.00523813
5.20475e-05
0.00523272
5.4251e-05
0.00522712
5.60586e-05
0.00522136
5.74907e-05
0.00521548
5.85954e-05
0.00520951
5.94384e-05
0.00520346
6.00932e-05
0.00519736
6.06324e-05
0.00519121
6.11215e-05
0.00518501
6.16155e-05
0.00517876
6.21571e-05
0.00517245
6.27768e-05
0.00516608
6.34944e-05
0.00515964
6.43203e-05
0.00515312
6.52583e-05
0.00514651
6.63068e-05
0.0051398
6.74611e-05
0.00513298
6.87145e-05
0.00512604
7.00595e-05
0.00511898
7.14883e-05
0.00511178
7.29937e-05
0.00510445
7.45689e-05
0.00509697
7.62082e-05
0.00508934
7.79065e-05
0.00508156
7.96595e-05
0.00507363
8.14636e-05
0.00506553
8.33159e-05
0.00505727
8.52139e-05
0.00504884
8.71555e-05
0.00504024
8.91392e-05
0.00503146
9.11634e-05
0.00502252
9.32273e-05
0.00501339
9.53301e-05
9.7472e-05
0.00529276
1.43928e-06
0.00529238
4.19767e-06
0.00529176
6.80601e-06
0.00529091
9.28399e-06
0.00528985
1.16499e-05
0.00528858
1.39192e-05
0.00528711
1.61043e-05
0.00528545
1.82156e-05
0.0052836
2.02673e-05
0.00528157
2.22859e-05
0.00527936
2.43185e-05
0.00527696
2.64345e-05
0.00527435
2.87168e-05
0.00527153
3.12438e-05
0.00526846
3.40672e-05
0.00526511
3.71933e-05
0.00526148
4.05744e-05
0.00525753
4.41131e-05
0.00525327
4.7678e-05
0.0052487
5.11255e-05
0.00524384
5.43235e-05
0.00523872
5.71692e-05
0.00523337
5.96006e-05
0.00522783
6.15993e-05
0.00522213
6.31863e-05
0.00521631
6.44129e-05
0.0052104
6.53504e-05
0.00520442
6.60782e-05
0.00519837
6.66756e-05
0.00519228
6.72144e-05
0.00518614
6.77547e-05
0.00517995
6.83437e-05
0.00517372
6.90152e-05
0.00516742
6.97913e-05
0.00516106
7.0684e-05
0.00515462
7.16977e-05
0.00514809
7.2831e-05
0.00514147
7.40791e-05
0.00513475
7.54348e-05
0.00512792
7.689e-05
0.00512098
7.84363e-05
0.0051139
8.00658e-05
0.0051067
8.1771e-05
0.00509936
8.35456e-05
0.00509189
8.53838e-05
0.00508426
8.72809e-05
0.0050765
8.92329e-05
0.00506858
9.12363e-05
0.0050605
9.32883e-05
0.00505227
9.53865e-05
0.00504388
9.75289e-05
0.00503533
9.97139e-05
0.00502662
0.00010194
0.00501774
0.000104206
0.000106511
0.00529276
1.56951e-06
0.00529238
4.57773e-06
0.00529177
7.42201e-06
0.00529093
1.01241e-05
0.00528987
1.27039e-05
0.00528861
1.51781e-05
0.00528716
1.75604e-05
0.00528551
1.9862e-05
0.00528368
2.20983e-05
0.00528167
2.42979e-05
0.00527948
2.65114e-05
0.0052771
2.88137e-05
0.00527452
3.12944e-05
0.00527172
3.40386e-05
0.00526869
3.71028e-05
0.00526539
4.0495e-05
0.0052618
4.41647e-05
0.0052579
4.80077e-05
0.0052537
5.18824e-05
0.00524919
5.56338e-05
0.0052444
5.91184e-05
0.00523934
6.22243e-05
0.00523406
6.48828e-05
0.00522858
6.70727e-05
0.00522296
6.88152e-05
0.0052172
7.01647e-05
0.00521136
7.11972e-05
0.00520544
7.19984e-05
0.00519946
7.26537e-05
0.00519343
7.3241e-05
0.00518736
7.38256e-05
0.00518125
7.44592e-05
0.00517508
7.51789e-05
0.00516886
7.60091e-05
0.00516258
7.69634e-05
0.00515624
7.8047e-05
0.00514981
7.92588e-05
0.00514329
8.05939e-05
0.00513668
8.20447e-05
0.00512997
8.36025e-05
0.00512315
8.52583e-05
0.00511621
8.70034e-05
0.00510915
8.88299e-05
0.00510197
9.07306e-05
0.00509465
9.26993e-05
0.0050872
9.47307e-05
0.00507961
9.68203e-05
0.00507189
9.89642e-05
0.00506402
0.000101159
0.005056
0.000103402
0.00504784
0.000105692
0.00503953
0.000108025
0.00503107
0.0001104
0.00502246
0.000112816