/*--------------------------------*- C++ -*----------------------------------*\
| =========                 |                                                 |
| \\      /  F ield         | OpenFOAM: The Open Source CFD Toolbox           |
|  \\    /   O peration     | Version:  2412                                  |
|   \\  /    A nd           | Website:  www.openfoam.com                      |
|    \\/     M anipulation  |                                                 |
\*---------------------------------------------------------------------------*/
FoamFile
{
    version     2.0;
    format      ascii;
    arch        "LSB;label=32;scalar=64";
    class       volVectorField;
    location    "28.5";
    object      vorticity;
}
// * * * * * * * * * * * * * * * * * * * * * * * * * * * * * * * * * * * * * //

dimensions      [0 0 -1 0 0 0 0];

internalField   nonuniform List<vector> 
5285
(
(0 -0 5.96673e-06)
(0 -0 5.93996e-06)
(0 -0 5.91434e-06)
(0 -0 5.89025e-06)
(0 -0 5.86732e-06)
(0 -0 5.84294e-06)
(0 -0 5.81499e-06)
(0 -0 5.79145e-06)
(0 -0 5.80359e-06)
(0 -0 5.91336e-06)
(0 -0 6.2044e-06)
(0 -0 6.75411e-06)
(0 -0 7.59514e-06)
(0 -0 8.68257e-06)
(0 -0 9.88267e-06)
(0 -0 1.09902e-05)
(0 -0 1.177e-05)
(0 -0 1.20095e-05)
(0 -0 1.15661e-05)
(0 -0 1.03962e-05)
(0 -0 8.5608e-06)
(0 -0 6.20868e-06)
(0 -0 3.54538e-06)
(0 -0 7.96179e-07)
(0 -0 -1.82775e-06)
(0 -0 -4.15462e-06)
(0 -0 -6.0661e-06)
(0 -0 -7.50067e-06)
(0 -0 -8.44847e-06)
(0 -0 -8.94084e-06)
(0 -0 -9.03748e-06)
(0 -0 -8.81376e-06)
(0 -0 -8.34992e-06)
(0 -0 -7.72275e-06)
(0 -0 -7.00021e-06)
(0 -0 -6.23844e-06)
(0 -0 -5.48089e-06)
(0 -0 -4.75885e-06)
(0 -0 -4.09286e-06)
(0 -0 -3.49458e-06)
(0 -0 -2.96879e-06)
(0 -0 -2.51523e-06)
(0 -0 -2.1302e-06)
(0 -0 -1.80789e-06)
(0 -0 -1.5414e-06)
(0 -0 -1.32347e-06)
(0 -0 -1.14691e-06)
(0 -0 -1.0047e-06)
(0 -0 -8.89395e-07)
(0 -0 -7.9043e-07)
(0 -0 -6.84883e-07)
(0 -0 -5.07451e-07)
(0 -0 -5.68729e-08)
(0 -0 1.28666e-06)
(0 4.39151e-23 5.38244e-06)
(0 -0 1.79e-05)
(0 -0 1.78197e-05)
(0 -0 1.77425e-05)
(0 -0 1.76696e-05)
(0 -0 1.76002e-05)
(0 -0 1.75266e-05)
(0 -0 1.74427e-05)
(0 -0 1.73723e-05)
(0 -0 1.74088e-05)
(0 -0 1.77371e-05)
(0 -0 1.86072e-05)
(0 -0 2.02506e-05)
(0 -0 2.27655e-05)
(0 -0 2.60185e-05)
(0 -0 2.96111e-05)
(0 -0 3.29307e-05)
(0 -0 3.5275e-05)
(0 -0 3.60088e-05)
(0 -0 3.47047e-05)
(0 -0 3.12311e-05)
(0 -0 2.5768e-05)
(0 -0 1.87583e-05)
(0 -0 1.08143e-05)
(0 -0 2.6079e-06)
(0 -0 -5.23073e-06)
(0 -0 -1.21883e-05)
(0 -0 -1.79107e-05)
(0 -0 -2.22132e-05)
(0 -0 -2.50652e-05)
(0 -0 -2.6559e-05)
(0 -0 -2.68716e-05)
(0 -0 -2.62271e-05)
(0 -0 -2.48643e-05)
(0 -0 -2.3012e-05)
(0 -0 -2.08727e-05)
(0 -0 -1.86139e-05)
(0 -0 -1.63653e-05)
(0 -0 -1.42203e-05)
(0 -0 -1.22405e-05)
(0 -0 -1.0461e-05)
(0 -0 -8.89622e-06)
(0 -0 -7.54572e-06)
(0 -0 -6.39864e-06)
(0 -0 -5.43783e-06)
(0 -0 -4.64288e-06)
(0 -0 -3.99223e-06)
(0 -0 -3.46452e-06)
(0 -0 -3.03895e-06)
(0 -0 -2.69347e-06)
(0 -0 -2.3971e-06)
(0 -0 -2.08306e-06)
(0 -0 -1.56168e-06)
(0 -0 -2.48192e-07)
(0 -0 3.66079e-06)
(0 4.43854e-23 1.55843e-05)
(0 -0 2.9821e-05)
(0 -0 2.96873e-05)
(0 -0 2.95584e-05)
(0 -0 2.94367e-05)
(0 -0 2.93208e-05)
(0 -0 2.91982e-05)
(0 -0 2.90585e-05)
(0 -0 2.89412e-05)
(0 -0 2.90012e-05)
(0 -0 2.95455e-05)
(0 -0 3.09895e-05)
(0 -0 3.37192e-05)
(0 -0 3.78998e-05)
(0 -0 4.33134e-05)
(0 -0 4.93013e-05)
(0 -0 5.48489e-05)
(0 -0 5.87905e-05)
(0 -0 6.00697e-05)
(0 -0 5.79735e-05)
(0 -0 5.22776e-05)
(0 -0 4.32754e-05)
(0 -0 3.16963e-05)
(0 -0 1.85525e-05)
(0 -0 4.95641e-06)
(0 -0 -8.04672e-06)
(0 -0 -1.96042e-05)
(0 -0 -2.91264e-05)
(0 -0 -3.63038e-05)
(0 -0 -4.10823e-05)
(0 -0 -4.36118e-05)
(0 -0 -4.41832e-05)
(0 -0 -4.31658e-05)
(0 -0 -4.09541e-05)
(0 -0 -3.79262e-05)
(0 -0 -3.44176e-05)
(0 -0 -3.07056e-05)
(0 -0 -2.70055e-05)
(0 -0 -2.34727e-05)
(0 -0 -2.02097e-05)
(0 -0 -1.72751e-05)
(0 -0 -1.46935e-05)
(0 -0 -1.24644e-05)
(0 -0 -1.05705e-05)
(0 -0 -8.98365e-06)
(0 -0 -7.67044e-06)
(0 -0 -6.59539e-06)
(0 -0 -5.72339e-06)
(0 -0 -5.02025e-06)
(0 -0 -4.45006e-06)
(0 -0 -3.96327e-06)
(0 -0 -3.45506e-06)
(0 -0 -2.62994e-06)
(0 -0 -5.76116e-07)
(0 -0 5.52757e-06)
(0 2.61869e-22 2.41914e-05)
(0 -0 4.17217e-05)
(0 -0 4.15345e-05)
(0 -0 4.13539e-05)
(0 -0 4.11833e-05)
(0 -0 4.10209e-05)
(0 -0 4.08493e-05)
(0 -0 4.06542e-05)
(0 -0 4.04902e-05)
(0 -0 4.05724e-05)
(0 -0 4.13284e-05)
(0 -0 4.3338e-05)
(0 -0 4.71416e-05)
(0 -0 5.2975e-05)
(0 -0 6.05411e-05)
(0 -0 6.89291e-05)
(0 -0 7.67305e-05)
(0 -0 8.23227e-05)
(0 -0 8.42308e-05)
(0 -0 8.14537e-05)
(0 -0 7.36684e-05)
(0 -0 6.12709e-05)
(0 -0 4.5266e-05)
(0 -0 2.7054e-05)
(0 -0 8.17833e-06)
(0 -0 -9.90745e-06)
(0 -0 -2.60148e-05)
(0 -0 -3.93185e-05)
(0 -0 -4.93819e-05)
(0 -0 -5.6123e-05)
(0 -0 -5.97439e-05)
(0 -0 -6.06435e-05)
(0 -0 -5.93311e-05)
(0 -0 -5.63517e-05)
(0 -0 -5.22291e-05)
(0 -0 -4.74283e-05)
(0 -0 -4.23349e-05)
(0 -0 -3.72483e-05)
(0 -0 -3.23852e-05)
(0 -0 -2.78889e-05)
(0 -0 -2.3842e-05)
(0 -0 -2.02797e-05)
(0 -0 -1.72023e-05)
(0 -0 -1.45865e-05)
(0 -0 -1.23943e-05)
(0 -0 -1.05798e-05)
(0 -0 -9.09426e-06)
(0 -0 -7.88944e-06)
(0 -0 -6.91846e-06)
(0 -0 -6.13269e-06)
(0 -0 -5.46692e-06)
(0 -0 -4.78766e-06)
(0 -0 -3.72348e-06)
(0 -0 -1.12815e-06)
(0 -0 6.56579e-06)
(0 -1.71898e-22 3.02002e-05)
(0 -0 5.35945e-05)
(0 -0 5.33533e-05)
(0 -0 5.31205e-05)
(0 -0 5.2901e-05)
(0 -0 5.26922e-05)
(0 -0 5.2472e-05)
(0 -0 5.2222e-05)
(0 -0 5.20113e-05)
(0 -0 5.2114e-05)
(0 -0 5.3076e-05)
(0 -0 5.56398e-05)
(0 -0 6.05008e-05)
(0 -0 6.79688e-05)
(0 -0 7.76757e-05)
(0 -0 8.84691e-05)
(0 -0 9.85578e-05)
(0 -0 0.000105871)
(0 -0 0.000108519)
(0 -0 0.000105209)
(0 -0 9.55123e-05)
(0 -0 7.99128e-05)
(0 -0 5.96751e-05)
(0 -0 3.65723e-05)
(0 -0 1.25658e-05)
(0 -0 -1.04916e-05)
(0 -0 -3.10803e-05)
(0 -0 -4.81398e-05)
(0 -0 -6.11031e-05)
(0 -0 -6.98544e-05)
(0 -0 -7.46408e-05)
(0 -0 -7.59615e-05)
(0 -0 -7.4458e-05)
(0 -0 -7.08195e-05)
(0 -0 -6.57102e-05)
(0 -0 -5.97207e-05)
(0 -0 -5.33417e-05)
(0 -0 -4.69551e-05)
(0 -0 -4.08383e-05)
(0 -0 -3.51752e-05)
(0 -0 -3.00728e-05)
(0 -0 -2.55775e-05)
(0 -0 -2.16916e-05)
(0 -0 -1.83868e-05)
(0 -0 -1.56159e-05)
(0 -0 -1.33216e-05)
(0 -0 -1.14429e-05)
(0 -0 -9.91919e-06)
(0 -0 -8.69181e-06)
(0 -0 -7.7008e-06)
(0 -0 -6.86905e-06)
(0 -0 -6.0463e-06)
(0 -0 -4.82499e-06)
(0 -0 -1.95096e-06)
(0 -0 6.51414e-06)
(0 8.48579e-23 3.27138e-05)
(0 -0 6.54329e-05)
(0 -0 6.51353e-05)
(0 -0 6.48501e-05)
(0 -0 6.45817e-05)
(0 -0 6.43267e-05)
(0 -0 6.40583e-05)
(0 -0 6.37539e-05)
(0 -0 6.34967e-05)
(0 -0 6.36178e-05)
(0 -0 6.47789e-05)
(0 -0 6.78828e-05)
(0 -0 7.37805e-05)
(0 -0 8.28606e-05)
(0 -0 9.46933e-05)
(0 -0 0.000107898)
(0 -0 0.000120314)
(0 -0 0.000129433)
(0 -0 0.000132954)
(0 -0 0.000129293)
(0 -0 0.000117901)
(0 -0 9.93345e-05)
(0 -0 7.50995e-05)
(0 -0 4.73225e-05)
(0 -0 1.83672e-05)
(0 -0 -9.526e-06)
(0 -0 -3.45117e-05)
(0 -0 -5.52951e-05)
(0 -0 -7.11744e-05)
(0 -0 -8.19933e-05)
(0 -0 -8.80347e-05)
(0 -0 -8.98887e-05)
(0 -0 -8.83203e-05)
(0 -0 -8.41547e-05)
(0 -0 -7.81898e-05)
(0 -0 -7.11369e-05)
(0 -0 -6.35885e-05)
(0 -0 -5.6007e-05)
(0 -0 -4.87292e-05)
(0 -0 -4.19797e-05)
(0 -0 -3.58902e-05)
(0 -0 -3.05195e-05)
(0 -0 -2.58726e-05)
(0 -0 -2.19177e-05)
(0 -0 -1.85997e-05)
(0 -0 -1.58509e-05)
(0 -0 -1.35991e-05)
(0 -0 -1.17724e-05)
(0 -0 -1.03013e-05)
(0 -0 -9.11614e-06)
(0 -0 -8.13194e-06)
(0 -0 -7.19491e-06)
(0 -0 -5.90766e-06)
(0 -0 -3.0652e-06)
(0 -0 5.15118e-06)
(0 4.18707e-22 3.08837e-05)
(0 -0 7.72281e-05)
(0 -0 7.68715e-05)
(0 -0 7.6534e-05)
(0 -0 7.62171e-05)
(0 -0 7.59163e-05)
(0 -0 7.56001e-05)
(0 -0 7.52421e-05)
(0 -0 7.49385e-05)
(0 -0 7.50756e-05)
(0 -0 7.64277e-05)
(0 -0 8.00556e-05)
(0 -0 8.6966e-05)
(0 -0 9.76316e-05)
(0 -0 0.000111572)
(0 -0 0.000127192)
(0 -0 0.000141979)
(0 -0 0.000152999)
(0 -0 0.000157546)
(0 -0 0.000153739)
(0 -0 0.000140897)
(0 -0 0.000119633)
(0 -0 9.16709e-05)
(0 -0 5.94689e-05)
(0 -0 2.57746e-05)
(0 -0 -6.79687e-06)
(0 -0 -3.60812e-05)
(0 -0 -6.05495e-05)
(0 -0 -7.93614e-05)
(0 -0 -9.23117e-05)
(0 -0 -9.97093e-05)
(0 -0 -0.000102224)
(0 -0 -0.000100734)
(0 -0 -9.61919e-05)
(0 -0 -8.9521e-05)
(0 -0 -8.1548e-05)
(0 -0 -7.29631e-05)
(0 -0 -6.43068e-05)
(0 -0 -5.59741e-05)
(0 -0 -4.82302e-05)
(0 -0 -4.12321e-05)
(0 -0 -3.50519e-05)
(0 -0 -2.96987e-05)
(0 -0 -2.51384e-05)
(0 -0 -2.13094e-05)
(0 -0 -1.81351e-05)
(0 -0 -1.55333e-05)
(0 -0 -1.34218e-05)
(0 -0 -1.17215e-05)
(0 -0 -1.03547e-05)
(0 -0 -9.23189e-06)
(0 -0 -8.20808e-06)
(0 -0 -6.94149e-06)
(0 -0 -4.45299e-06)
(0 -0 2.30611e-06)
(0 -8.1901e-23 2.37593e-05)
(-1.79627e-23 7.9175e-21 3.35842e-06)
(-1.4416e-22 7.78449e-21 2.70698e-06)
(3.13386e-23 -1.9276e-22 1.8264e-06)
(3.9626e-23 -2.3234e-20 6.73462e-07)
(-8.99487e-23 7.93523e-21 -7.87792e-07)
(3.52179e-22 7.79312e-21 -2.58607e-06)
(-7.75069e-22 2.27205e-20 -4.74474e-06)
(3.04938e-22 -2.3083e-20 -7.28426e-06)
(6.13033e-22 -7.42797e-21 -1.02244e-05)
(-8.73879e-22 -3.65299e-24 -1.35859e-05)
(-8.72241e-22 -7.43913e-21 -1.7392e-05)
(7.63772e-22 7.06898e-21 -2.16691e-05)
(5.59031e-22 -5.81983e-20 -2.64481e-05)
(-1.03502e-21 1.24913e-19 -3.17645e-05)
(3.59523e-22 -6.71793e-20 -3.76577e-05)
(-1.19443e-21 -5.06412e-20 -4.41819e-05)
(-2.54377e-22 7.92733e-21 9.87914e-06)
(-1.06124e-22 1.55933e-20 7.85844e-06)
(2.90197e-22 7.58212e-21 5.09387e-06)
(-8.46338e-22 -7.79738e-21 1.45801e-06)
(1.57301e-21 7.43823e-21 -3.15063e-06)
(-4.72203e-22 -5.32355e-20 -8.81124e-06)
(-2.39378e-22 8.4518e-20 -1.55887e-05)
(-5.37544e-23 -8.78421e-21 -2.3542e-05)
(2.14884e-21 -9.72998e-20 -3.27306e-05)
(-2.24761e-21 1.37342e-19 -4.32191e-05)
(-8.50046e-22 1.25492e-19 -5.50812e-05)
(6.31065e-22 -1.12869e-19 -6.84027e-05)
(-3.82507e-22 7.16737e-22 -8.32825e-05)
(2.73074e-21 -7.18771e-21 -9.98349e-05)
(-2.13493e-21 2.38685e-20 -0.000118195)
(-5.92044e-21 2.37245e-19 -0.000138517)
(-6.33023e-23 4.6977e-20 1.58452e-05)
(-8.98769e-23 1.48548e-20 1.22085e-05)
(3.93092e-22 -6.15364e-20 7.13776e-06)
(-8.43692e-22 1.22381e-19 4.36832e-07)
(1.85278e-21 -2.61929e-19 -8.03503e-06)
(3.15208e-22 1.24518e-19 -1.83849e-05)
(-2.39029e-21 -8.47579e-22 -3.07058e-05)
(1.53424e-21 -1.68958e-20 -4.50909e-05)
(1.57545e-21 -2.55442e-19 -6.16428e-05)
(5.98402e-22 2.43362e-19 -8.04801e-05)
(-8.36999e-22 -1.58828e-21 -0.000101742)
(-4.12009e-21 -1.53232e-23 -0.00012559)
(6.53101e-21 -1.80958e-21 -0.000152215)
(-3.71742e-21 -2.48945e-19 -0.000181836)
(4.9209e-21 2.26172e-19 -0.000214707)
(-1.14849e-20 4.4936e-19 -0.000251139)
(4.15839e-22 -3.09849e-20 2.07804e-05)
(-3.65901e-22 1.56621e-20 1.49566e-05)
(6.70688e-22 -1.67291e-22 6.68828e-06)
(-5.92993e-22 -1.54076e-20 -4.21708e-06)
(-9.38833e-22 -1.41446e-21 -1.78777e-05)
(3.44343e-21 -2.41781e-19 -3.43926e-05)
(-4.94727e-21 4.57741e-19 -5.38694e-05)
(2.43706e-21 -2.46404e-19 -7.64388e-05)
(-1.80241e-21 1.48664e-20 -0.000102262)
(4.979e-21 -2.69749e-19 -0.000131534)
(-5.92992e-21 2.46057e-19 -0.000164489)
(-4.46235e-21 4.69808e-19 -0.000201404)
(1.14374e-20 -9.50273e-19 -0.0002426)
(-1.36173e-20 9.49036e-19 -0.000288446)
(1.78162e-20 -9.4443e-19 -0.000339368)
(-1.20271e-20 9.35702e-19 -0.000395877)
(-7.30806e-22 1.57424e-20 2.40778e-05)
(-3.33695e-22 6.03143e-20 1.48395e-05)
(2.12015e-21 -1.83076e-19 1.69232e-06)
(-1.54936e-21 2.45618e-19 -1.53491e-05)
(-1.42169e-22 -1.08737e-19 -3.62877e-05)
(1.24537e-22 -1.45457e-20 -6.11894e-05)
(-4.77915e-22 1.53179e-20 -9.01876e-05)
(2.9735e-21 -1.83193e-22 -0.00012348)
(-2.8097e-21 -1.49719e-20 -0.000161325)
(-5.18001e-21 3.35239e-20 -0.000204043)
(-7.40324e-21 4.77869e-19 -0.000252014)
(1.86595e-20 -4.96627e-19 -0.000305685)
(-2.29021e-20 4.6312e-19 -0.000365575)
(1.91989e-20 -4.81718e-19 -0.000432274)
(-2.95466e-21 3.33739e-21 -0.000506461)
(1.08071e-20 4.67304e-23 -0.000588936)
(-7.82549e-22 7.59107e-20 2.48589e-05)
(1.66176e-21 -4.62767e-20 9.52563e-06)
(-1.61629e-21 -1.6298e-20 -1.14715e-05)
(4.85373e-21 -2.26687e-19 -3.75998e-05)
(-2.52211e-21 2.28532e-19 -6.87603e-05)
(2.28892e-21 -2.26068e-19 -0.000105053)
(-1.14172e-20 4.98468e-19 -0.000146713)
(1.22981e-20 -6.97873e-19 -0.000194079)
(-7.99645e-21 4.93363e-19 -0.000247581)
(-6.51753e-21 4.80894e-19 -0.000307735)
(-2.2023e-21 3.94531e-21 -0.000375148)
(2.53876e-20 -9.44381e-19 -0.000450519)
(-2.24559e-20 9.82476e-19 -0.000534655)
(5.72718e-21 -4.62086e-19 -0.000628473)
(1.26567e-20 -4.64237e-19 -0.000733018)
(2.28563e-20 -4.56601e-19 -0.000849497)
(6.11046e-22 -1.57974e-20 2.19755e-05)
(1.82138e-21 -1.3484e-19 -5.79624e-06)
(-1.92378e-21 1.21584e-19 -3.9001e-05)
(-1.22698e-21 -1.70821e-20 -7.77317e-05)
(5.54684e-21 -2.25243e-19 -0.000122203)
(-5.14576e-21 2.31588e-19 -0.000172762)
(-6.39903e-21 4.67776e-19 -0.000229849)
(-5.00378e-21 -1.93832e-20 -0.000294007)
(2.14894e-21 -4.59452e-21 -0.00036587)
(1.49546e-20 -4.98647e-19 -0.000446171)
(-1.23328e-20 4.66391e-19 -0.000535747)
(1.90398e-20 -9.86536e-19 -0.000635548)
(-4.81122e-21 4.93009e-19 -0.000746656)
(-3.56155e-21 -1.85088e-20 -0.000870292)
(-4.76306e-21 -2.21156e-20 -0.00100783)
(2.99074e-20 -9.6703e-19 -0.0011608)
(-8.19214e-23 -0 2.24041e-05)
(-7.56347e-22 -0 4.46984e-05)
(6.75653e-22 -0 6.83974e-05)
(-8.69329e-23 -0 9.35672e-05)
(-1.33926e-21 -0 0.00012032)
(1.34364e-21 -0 0.000148796)
(2.88563e-21 -0 0.00017919)
(-4.21956e-23 -0 0.000211719)
(5.49182e-23 -0 0.000246629)
(-3.22353e-21 -0 0.000284194)
(3.15619e-21 -0 0.000324717)
(-6.70996e-21 -0 0.000368532)
(3.34973e-21 -0 0.000416009)
(-1.08516e-22 -0 0.000467551)
(-1.11275e-22 -0 0.000523614)
(-7.37643e-21 -0 0.000584756)
(0 -0 8.42561e-06)
(0 -0 2.10376e-05)
(0 -0 3.62078e-05)
(0 -0 5.34546e-05)
(0 -0 7.25444e-05)
(0 -0 9.34352e-05)
(0 -0 0.000116177)
(0 -0 0.000140877)
(0 -0 0.000167685)
(0 -0 0.000196794)
(0 -0 0.00022843)
(0 -0 0.000262855)
(0 -0 0.000300365)
(0 -0 0.000341283)
(0 -0 0.000385986)
(0 -0 0.000434984)
(0 -0 1.18927e-06)
(0 -0 8.34244e-06)
(0 -0 1.76516e-05)
(0 -0 2.88758e-05)
(0 -0 4.18534e-05)
(0 -0 5.65178e-05)
(0 -0 7.28665e-05)
(0 -0 9.09425e-05)
(0 -0 0.000110831)
(0 -0 0.000132654)
(0 -0 0.000156568)
(0 -0 0.000182758)
(0 -0 0.000211439)
(0 -0 0.000242843)
(0 -0 0.000277247)
(0 -0 0.000315073)
(0 -0 -2.64655e-06)
(0 -0 1.50863e-06)
(0 -0 7.14624e-06)
(0 -0 1.42609e-05)
(0 -0 2.28172e-05)
(0 -0 3.28063e-05)
(0 -0 4.42404e-05)
(0 -0 5.71511e-05)
(0 -0 7.15968e-05)
(0 -0 8.76623e-05)
(0 -0 0.000105458)
(0 -0 0.000125118)
(0 -0 0.000146797)
(0 -0 0.000170658)
(0 -0 0.000196902)
(0 -0 0.000225878)
(0 -0 -4.61688e-06)
(0 -0 -2.12468e-06)
(0 -0 1.30683e-06)
(0 -0 5.76461e-06)
(0 -0 1.12937e-05)
(0 -0 1.79421e-05)
(0 -0 2.57545e-05)
(0 -0 3.47742e-05)
(0 -0 4.50558e-05)
(0 -0 5.66688e-05)
(0 -0 6.96987e-05)
(0 -0 8.42467e-05)
(0 -0 0.000100425)
(0 -0 0.000118348)
(0 -0 0.000138158)
(0 -0 0.00016015)
(0 -0 -5.51589e-06)
(0 -0 -3.95071e-06)
(0 -0 -1.82101e-06)
(0 -0 9.74385e-07)
(0 -0 4.50923e-06)
(0 -0 8.8623e-06)
(0 -0 1.41016e-05)
(0 -0 2.02838e-05)
(0 -0 2.74677e-05)
(0 -0 3.57176e-05)
(0 -0 4.51065e-05)
(0 -0 5.57152e-05)
(0 -0 6.76281e-05)
(0 -0 8.09227e-05)
(0 -0 9.56989e-05)
(0 -0 0.000112212)
(0 -0 -5.77554e-06)
(0 -0 -4.72894e-06)
(0 -0 -3.35965e-06)
(0 -0 -1.58272e-06)
(0 -0 6.73975e-07)
(0 -0 3.4967e-06)
(0 -0 6.96246e-06)
(0 -0 1.11344e-05)
(0 -0 1.60737e-05)
(0 -0 2.18426e-05)
(0 -0 2.85061e-05)
(0 -0 3.61322e-05)
(0 -0 4.47858e-05)
(0 -0 5.45177e-05)
(0 -0 6.53951e-05)
(0 -0 7.7646e-05)
(0 -0 -5.64494e-06)
(0 -0 -4.88769e-06)
(0 -0 -3.95889e-06)
(0 -0 -2.79652e-06)
(0 -0 -1.34265e-06)
(0 -0 4.83443e-07)
(0 -0 2.75684e-06)
(0 -0 5.53947e-06)
(0 -0 8.89073e-06)
(0 -0 1.28691e-05)
(0 -0 1.75334e-05)
(0 -0 2.29415e-05)
(0 -0 2.91438e-05)
(0 -0 3.61704e-05)
(0 -0 4.40634e-05)
(0 -0 5.30313e-05)
(0 -0 -5.27498e-06)
(0 -0 -4.6772e-06)
(0 -0 -4.00077e-06)
(0 -0 -3.20439e-06)
(0 -0 -2.24668e-06)
(0 -0 -1.05757e-06)
(0 -0 4.30462e-07)
(0 -0 2.27309e-06)
(0 -0 4.5242e-06)
(0 -0 7.23658e-06)
(0 -0 1.04621e-05)
(0 -0 1.42497e-05)
(0 -0 1.86377e-05)
(0 -0 2.36393e-05)
(0 -0 2.92761e-05)
(0 -0 3.5743e-05)
(0 -0 -4.76185e-06)
(0 -0 -4.24936e-06)
(0 -0 -3.71485e-06)
(0 -0 -3.13313e-06)
(0 -0 -2.47757e-06)
(0 -0 -1.68906e-06)
(0 -0 -7.09348e-07)
(0 -0 5.08865e-07)
(0 -0 2.01198e-06)
(0 -0 3.8456e-06)
(0 -0 6.05397e-06)
(0 -0 8.67748e-06)
(0 -0 1.17436e-05)
(0 -0 1.52509e-05)
(0 -0 1.92037e-05)
(0 -0 2.37874e-05)
(0 -0 -4.17004e-06)
(0 -0 -3.70014e-06)
(0 -0 -3.24263e-06)
(0 -0 -2.78407e-06)
(0 -0 -2.30953e-06)
(0 -0 -1.76913e-06)
(0 -0 -1.11324e-06)
(0 -0 -3.03035e-07)
(0 -0 6.9999e-07)
(0 -0 1.93379e-06)
(0 -0 3.43492e-06)
(0 -0 5.23546e-06)
(0 -0 7.35297e-06)
(0 -0 9.77294e-06)
(0 -0 1.24846e-05)
(0 -0 1.56667e-05)
(0 -0 -3.54459e-06)
(0 -0 -3.09255e-06)
(0 -0 -2.67384e-06)
(0 -0 -2.28335e-06)
(0 -0 -1.91489e-06)
(0 -0 -1.52558e-06)
(0 -0 -1.07274e-06)
(0 -0 -5.2503e-07)
(0 -0 1.48786e-07)
(0 -0 9.79482e-07)
(0 -0 1.99637e-06)
(0 -0 3.22382e-06)
(0 -0 4.67035e-06)
(0 -0 6.3097e-06)
(0 -0 8.11765e-06)
(0 -0 1.02684e-05)
(0 -0 -2.91789e-06)
(0 -0 -2.46927e-06)
(0 -0 -2.06682e-06)
(0 -0 -1.7113e-06)
(0 -0 -1.4029e-06)
(0 -0 -1.10357e-06)
(0 -0 -7.75832e-07)
(0 -0 -3.94344e-07)
(0 -0 6.60001e-08)
(0 -0 6.2978e-07)
(0 -0 1.31993e-06)
(0 -0 2.15393e-06)
(0 -0 3.13231e-06)
(0 -0 4.21828e-06)
(0 -0 5.37559e-06)
(0 -0 6.77547e-06)
(0 -0 -2.3134e-06)
(0 -0 -1.8597e-06)
(0 -0 -1.46015e-06)
(0 -0 -1.11975e-06)
(0 -0 -8.43277e-07)
(0 -0 -5.9579e-07)
(0 -0 -3.43402e-07)
(0 -0 -6.53132e-08)
(0 -0 2.58772e-07)
(0 -0 6.4839e-07)
(0 -0 1.12113e-06)
(0 -0 1.68868e-06)
(0 -0 2.34465e-06)
(0 -0 3.0429e-06)
(0 -0 3.73648e-06)
(0 -0 4.59498e-06)
(0 -0 -1.74785e-06)
(0 -0 -1.28397e-06)
(0 -0 -8.79414e-07)
(0 -0 -5.42242e-07)
(0 -0 -2.80589e-07)
(0 -0 -6.1313e-08)
(0 -0 1.4716e-07)
(0 -0 3.62355e-07)
(0 -0 6.00986e-07)
(0 -0 8.78683e-07)
(0 -0 1.20879e-06)
(0 -0 1.59827e-06)
(0 -0 2.03488e-06)
(0 -0 2.46436e-06)
(0 -0 2.83025e-06)
(0 -0 3.30155e-06)
(0 -0 -1.2327e-06)
(0 -0 -7.55527e-07)
(0 -0 -3.41248e-07)
(0 -0 -1.99374e-10)
(0 -0 2.57e-07)
(0 -0 4.62568e-07)
(0 -0 6.46767e-07)
(0 -0 8.24891e-07)
(0 -0 1.01108e-06)
(0 -0 1.21805e-06)
(0 -0 1.45594e-06)
(0 -0 1.72793e-06)
(0 -0 2.01701e-06)
(0 -0 2.26189e-06)
(0 -0 2.39769e-06)
(0 -0 2.59377e-06)
(0 -0 -7.75198e-07)
(0 -0 -2.82809e-07)
(0 -0 1.44051e-07)
(0 -0 4.93211e-07)
(0 -0 7.52155e-07)
(0 -0 9.52816e-07)
(0 -0 1.12489e-06)
(0 -0 1.28219e-06)
(0 -0 1.43709e-06)
(0 -0 1.60026e-06)
(0 -0 1.77942e-06)
(0 -0 1.97489e-06)
(0 -0 2.16583e-06)
(0 -0 2.28483e-06)
(0 -0 2.25958e-06)
(0 -0 2.26057e-06)
(0 -0 -3.79306e-07)
(0 -0 1.29576e-07)
(0 -0 5.70724e-07)
(0 -0 9.30479e-07)
(0 -0 1.19479e-06)
(0 -0 1.39581e-06)
(0 -0 1.56314e-06)
(0 -0 1.70969e-06)
(0 -0 1.84666e-06)
(0 -0 1.98334e-06)
(0 -0 2.12572e-06)
(0 -0 2.272e-06)
(0 -0 2.39822e-06)
(0 -0 2.43176e-06)
(0 -0 2.29368e-06)
(0 -0 2.15621e-06)
(0 -0 -4.65219e-08)
(0 -0 4.79732e-07)
(0 -0 9.36154e-07)
(0 -0 1.30788e-06)
(0 -0 1.57963e-06)
(0 -0 1.78405e-06)
(0 -0 1.95101e-06)
(0 -0 2.0929e-06)
(0 -0 2.22023e-06)
(0 -0 2.34136e-06)
(0 -0 2.46112e-06)
(0 -0 2.57612e-06)
(0 -0 2.65992e-06)
(0 -0 2.63545e-06)
(0 -0 2.41779e-06)
(0 -0 2.18139e-06)
(0 -0 2.23303e-07)
(0 -0 7.67499e-07)
(0 -0 1.23976e-06)
(0 -0 1.62417e-06)
(0 -0 1.90445e-06)
(0 -0 2.11394e-06)
(0 -0 2.28298e-06)
(0 -0 2.42377e-06)
(0 -0 2.54644e-06)
(0 -0 2.65879e-06)
(0 -0 2.76484e-06)
(0 -0 2.86007e-06)
(0 -0 2.9161e-06)
(0 -0 2.85195e-06)
(0 -0 2.57736e-06)
(0 -0 2.26922e-06)
(0 -0 4.31147e-07)
(0 -0 9.93675e-07)
(0 -0 1.48204e-06)
(0 -0 1.87942e-06)
(0 -0 2.16872e-06)
(0 -0 2.38406e-06)
(0 -0 2.55645e-06)
(0 -0 2.69809e-06)
(0 -0 2.81896e-06)
(0 -0 2.92651e-06)
(0 -0 3.02429e-06)
(0 -0 3.10696e-06)
(0 -0 3.14462e-06)
(0 -0 3.05285e-06)
(0 -0 2.73652e-06)
(0 -0 2.37519e-06)
(0 -0 5.78055e-07)
(0 -0 1.1592e-06)
(0 -0 1.66373e-06)
(0 -0 2.07413e-06)
(0 -0 2.37253e-06)
(0 -0 2.59395e-06)
(0 -0 2.77022e-06)
(0 -0 2.91365e-06)
(0 -0 3.03416e-06)
(0 -0 3.13911e-06)
(0 -0 3.23176e-06)
(0 -0 3.30621e-06)
(0 -0 3.33135e-06)
(0 -0 3.21971e-06)
(0 -0 2.87175e-06)
(0 -0 2.46978e-06)
(0 -0 6.64524e-07)
(0 -0 1.26446e-06)
(0 -0 1.78514e-06)
(0 -0 2.20842e-06)
(0 -0 2.51579e-06)
(0 -0 2.74326e-06)
(0 -0 2.92347e-06)
(0 -0 3.06892e-06)
(0 -0 3.18967e-06)
(0 -0 3.29305e-06)
(0 -0 3.38219e-06)
(0 -0 3.45086e-06)
(0 -0 3.46693e-06)
(0 -0 3.34031e-06)
(0 -0 2.96742e-06)
(0 -0 2.53344e-06)
(0 -0 6.89922e-07)
(0 -0 1.30882e-06)
(0 -0 1.84563e-06)
(0 -0 2.28164e-06)
(0 -0 2.59779e-06)
(0 -0 2.83109e-06)
(0 -0 3.01502e-06)
(0 -0 3.16235e-06)
(0 -0 3.28335e-06)
(0 -0 3.38543e-06)
(0 -0 3.47171e-06)
(0 -0 3.53574e-06)
(0 -0 3.54461e-06)
(0 -0 3.40599e-06)
(0 -0 3.01277e-06)
(0 -0 2.55319e-06)
(0 -0 6.52099e-07)
(0 -0 1.29027e-06)
(0 -0 1.84337e-06)
(0 -0 2.2921e-06)
(0 -0 2.61689e-06)
(0 -0 2.85571e-06)
(0 -0 3.04297e-06)
(0 -0 3.1918e-06)
(0 -0 3.3127e-06)
(0 -0 3.41322e-06)
(0 -0 3.49658e-06)
(0 -0 3.55623e-06)
(0 -0 3.55874e-06)
(0 -0 3.40996e-06)
(0 -0 2.99996e-06)
(0 -0 2.52061e-06)
(0 -0 5.47031e-07)
(0 -0 1.20531e-06)
(0 -0 1.77532e-06)
(0 -0 2.23703e-06)
(0 -0 2.57038e-06)
(0 -0 2.8144e-06)
(0 -0 3.00452e-06)
(0 -0 3.15426e-06)
(0 -0 3.27439e-06)
(0 -0 3.37275e-06)
(0 -0 3.45265e-06)
(0 -0 3.5076e-06)
(0 -0 3.50388e-06)
(0 -0 3.34614e-06)
(0 -0 2.92303e-06)
(0 -0 2.43156e-06)
(0 -0 3.68519e-07)
(0 -0 1.04911e-06)
(0 -0 1.63746e-06)
(0 -0 2.11255e-06)
(0 -0 2.45432e-06)
(0 -0 2.70312e-06)
(0 -0 2.89544e-06)
(0 -0 3.04527e-06)
(0 -0 3.16379e-06)
(0 -0 3.25908e-06)
(0 -0 3.33463e-06)
(0 -0 3.38407e-06)
(0 -0 3.37372e-06)
(0 -0 3.20807e-06)
(0 -0 2.77702e-06)
(0 -0 2.28741e-06)
(0 -0 1.44901e-07)
(0 -0 8.51084e-07)
(0 -0 1.46127e-06)
(0 -0 1.95051e-06)
(0 -0 2.30103e-06)
(0 -0 2.55483e-06)
(0 -0 2.74948e-06)
(0 -0 2.89947e-06)
(0 -0 3.01636e-06)
(0 -0 3.10847e-06)
(0 -0 3.17952e-06)
(0 -0 3.22333e-06)
(0 -0 3.20657e-06)
(0 -0 3.03506e-06)
(0 -0 2.60562e-06)
(0 -0 2.14795e-06)
(0 -0 1.31229e-08)
(0 -0 7.59783e-07)
(0 -0 1.39767e-06)
(0 -0 1.90416e-06)
(0 -0 2.2677e-06)
(0 -0 2.5314e-06)
(0 -0 2.73343e-06)
(0 -0 2.88866e-06)
(0 -0 3.00895e-06)
(0 -0 3.10285e-06)
(0 -0 3.17429e-06)
(0 -0 3.21735e-06)
(0 -0 3.19916e-06)
(0 -0 3.02824e-06)
(0 -0 2.61531e-06)
(0 -0 2.14382e-06)
(0 -0 1.63642e-07)
(0 -0 9.54292e-07)
(0 -0 1.61519e-06)
(0 -0 2.1578e-06)
(0 -0 2.54504e-06)
(0 -0 2.83181e-06)
(0 -0 3.05421e-06)
(0 -0 3.22747e-06)
(0 -0 3.36388e-06)
(0 -0 3.47234e-06)
(0 -0 3.55703e-06)
(0 -0 3.61211e-06)
(0 -0 3.60457e-06)
(0 -0 3.44296e-06)
(0 -0 3.01141e-06)
(0 -0 2.52796e-06)
(0 -0 8.92423e-05)
(0 -0 8.88319e-05)
(0 -0 8.84427e-05)
(0 -0 8.80766e-05)
(0 -0 8.77293e-05)
(0 -0 8.7365e-05)
(0 -0 8.69529e-05)
(0 -0 8.66022e-05)
(0 -0 8.67531e-05)
(0 -0 8.82918e-05)
(0 -0 9.2438e-05)
(0 -0 0.000100358)
(0 -0 0.000112617)
(0 -0 0.000128694)
(0 -0 0.000146793)
(0 -0 0.000164057)
(0 -0 0.00017713)
(0 -0 0.000182899)
(0 -0 0.000179175)
(0 -0 0.000165129)
(0 -0 0.00014141)
(0 -0 0.00010994)
(0 -0 7.34918e-05)
(0 -0 3.51859e-05)
(0 -0 -1.99381e-06)
(0 -0 -3.55645e-05)
(0 -0 -6.37588e-05)
(0 -0 -8.55892e-05)
(0 -0 -0.000100792)
(0 -0 -0.00010969)
(0 -0 -0.000113024)
(0 -0 -0.000111776)
(0 -0 -0.000107017)
(0 -0 -9.97914e-05)
(0 -0 -9.10377e-05)
(0 -0 -8.15412e-05)
(0 -0 -7.19195e-05)
(0 -0 -6.26259e-05)
(0 -0 -5.39668e-05)
(0 -0 -4.61259e-05)
(0 -0 -3.91897e-05)
(0 -0 -3.31731e-05)
(0 -0 -2.8041e-05)
(0 -0 -2.37269e-05)
(0 -0 -2.01465e-05)
(0 -0 -1.72086e-05)
(0 -0 -1.48217e-05)
(0 -0 -1.28981e-05)
(0 -0 -1.1353e-05)
(0 -0 -1.00953e-05)
(0 -0 -8.9961e-06)
(0 -0 -7.80008e-06)
(0 -0 -5.90696e-06)
(0 -0 -2.02541e-06)
(0 -0 4.92563e-06)
(0 -0 0.000101462)
(0 -0 0.000101002)
(0 -0 0.000100561)
(0 -0 0.000100146)
(0 -0 9.97515e-05)
(0 -0 9.93384e-05)
(0 -0 9.88719e-05)
(0 -0 9.84731e-05)
(0 -0 9.86349e-05)
(0 -0 0.000100354)
(0 -0 0.000105009)
(0 -0 0.00011393)
(0 -0 0.000127782)
(0 -0 0.000146018)
(0 -0 0.000166654)
(0 -0 0.0001865)
(0 -0 0.000201786)
(0 -0 0.000208989)
(0 -0 0.000205601)
(0 -0 0.000190628)
(0 -0 0.000164732)
(0 -0 0.00013001)
(0 -0 8.95309e-05)
(0 -0 4.67719e-05)
(0 -0 5.07758e-06)
(0 -0 -3.2752e-05)
(0 -0 -6.47065e-05)
(0 -0 -8.9643e-05)
(0 -0 -0.000107227)
(0 -0 -0.000117786)
(0 -0 -0.000122116)
(0 -0 -0.000121294)
(0 -0 -0.000116501)
(0 -0 -0.000108897)
(0 -0 -9.9525e-05)
(0 -0 -8.92635e-05)
(0 -0 -7.88061e-05)
(0 -0 -6.86642e-05)
(0 -0 -5.91864e-05)
(0 -0 -5.05838e-05)
(0 -0 -4.29595e-05)
(0 -0 -3.63356e-05)
(0 -0 -3.06782e-05)
(0 -0 -2.5917e-05)
(0 -0 -2.19618e-05)
(0 -0 -1.87137e-05)
(0 -0 -1.60732e-05)
(0 -0 -1.39449e-05)
(0 -0 -1.2238e-05)
(0 -0 -1.08607e-05)
(0 -0 -9.6998e-06)
(0 -0 -8.57091e-06)
(0 -0 -7.11458e-06)
(0 -0 -4.66907e-06)
(0 -0 -3.34705e-07)
(0 -0 0.000113607)
(0 -0 0.000113096)
(0 -0 0.000112603)
(0 -0 0.000112139)
(0 -0 0.000111698)
(0 -0 0.000111237)
(0 -0 0.000110717)
(0 -0 0.00011027)
(0 -0 0.00011044)
(0 -0 0.000112329)
(0 -0 0.000117471)
(0 -0 0.000127359)
(0 -0 0.000142766)
(0 -0 0.000163131)
(0 -0 0.000186301)
(0 -0 0.000208777)
(0 -0 0.000226389)
(0 -0 0.000235214)
(0 -0 0.00023242)
(0 -0 0.000216836)
(0 -0 0.000189111)
(0 -0 0.000151489)
(0 -0 0.000107306)
(0 -0 6.03734e-05)
(0 -0 1.43774e-05)
(0 -0 -2.75741e-05)
(0 -0 -6.32294e-05)
(0 -0 -9.12849e-05)
(0 -0 -0.000111326)
(0 -0 -0.00012367)
(0 -0 -0.000129157)
(0 -0 -0.000128943)
(0 -0 -0.00012431)
(0 -0 -0.000116518)
(0 -0 -0.000106713)
(0 -0 -9.58585e-05)
(0 -0 -8.47212e-05)
(0 -0 -7.38691e-05)
(0 -0 -6.36923e-05)
(0 -0 -5.44305e-05)
(0 -0 -4.62041e-05)
(0 -0 -3.90444e-05)
(0 -0 -3.29199e-05)
(0 -0 -2.7759e-05)
(0 -0 -2.34668e-05)
(0 -0 -1.99385e-05)
(0 -0 -1.70679e-05)
(0 -0 -1.47531e-05)
(0 -0 -1.28982e-05)
(0 -0 -1.14105e-05)
(0 -0 -1.01885e-05)
(0 -0 -9.09446e-06)
(0 -0 -7.90484e-06)
(0 -0 -6.25399e-06)
(0 -0 -3.63151e-06)
(0 -0 0.000125668)
(0 -0 0.000125104)
(0 -0 0.00012456)
(0 -0 0.000124047)
(0 -0 0.000123559)
(0 -0 0.000123051)
(0 -0 0.000122479)
(0 -0 0.000121985)
(0 -0 0.000122159)
(0 -0 0.000124207)
(0 -0 0.000129814)
(0 -0 0.000140636)
(0 -0 0.000157558)
(0 -0 0.000180019)
(0 -0 0.000205718)
(0 -0 0.000230865)
(0 -0 0.000250911)
(0 -0 0.000261539)
(0 -0 0.000259592)
(0 -0 0.000243705)
(0 -0 0.000214493)
(0 -0 0.000174319)
(0 -0 0.00012676)
(0 -0 7.59323e-05)
(0 -0 2.58489e-05)
(0 -0 -2.00846e-05)
(0 -0 -5.93775e-05)
(0 -0 -9.05606e-05)
(0 -0 -0.00011313)
(0 -0 -0.000127378)
(0 -0 -0.000134179)
(0 -0 -0.000134752)
(0 -0 -0.000130465)
(0 -0 -0.000122677)
(0 -0 -0.00011262)
(0 -0 -0.000101342)
(0 -0 -8.96791e-05)
(0 -0 -7.82534e-05)
(0 -0 -6.74964e-05)
(0 -0 -5.76767e-05)
(0 -0 -4.89335e-05)
(0 -0 -4.13086e-05)
(0 -0 -3.47752e-05)
(0 -0 -2.92614e-05)
(0 -0 -2.46698e-05)
(0 -0 -2.08909e-05)
(0 -0 -1.78134e-05)
(0 -0 -1.533e-05)
(0 -0 -1.33406e-05)
(0 -0 -1.1751e-05)
(0 -0 -1.04668e-05)
(0 -0 -9.37866e-06)
(0 -0 -8.3384e-06)
(0 -0 -7.13445e-06)
(0 -0 -5.49546e-06)
(0 -0 0.000137636)
(0 -0 0.000137018)
(0 -0 0.000136422)
(0 -0 0.000135861)
(0 -0 0.000135327)
(0 -0 0.000134772)
(0 -0 0.000134149)
(0 -0 0.000133608)
(0 -0 0.000133785)
(0 -0 0.000135981)
(0 -0 0.000142031)
(0 -0 0.000153753)
(0 -0 0.000172149)
(0 -0 0.000196671)
(0 -0 0.00022489)
(0 -0 0.000252744)
(0 -0 0.000275321)
(0 -0 0.000287919)
(0 -0 0.000287056)
(0 -0 0.000271159)
(0 -0 0.000240788)
(0 -0 0.000198398)
(0 -0 0.000147777)
(0 -0 9.33254e-05)
(0 -0 3.93649e-05)
(0 -0 -1.04115e-05)
(0 -0 -5.3276e-05)
(0 -0 -8.75897e-05)
(0 -0 -0.00011275)
(0 -0 -0.000129015)
(0 -0 -0.000137274)
(0 -0 -0.000138803)
(0 -0 -0.000135043)
(0 -0 -0.000127437)
(0 -0 -0.000117303)
(0 -0 -0.000105765)
(0 -0 -9.37234e-05)
(0 -0 -8.1855e-05)
(0 -0 -7.06318e-05)
(0 -0 -6.03517e-05)
(0 -0 -5.11738e-05)
(0 -0 -4.31519e-05)
(0 -0 -3.62652e-05)
(0 -0 -3.04439e-05)
(0 -0 -2.5589e-05)
(0 -0 -2.15883e-05)
(0 -0 -1.83264e-05)
(0 -0 -1.56917e-05)
(0 -0 -1.35806e-05)
(0 -0 -1.18971e-05)
(0 -0 -1.05507e-05)
(0 -0 -9.44805e-06)
(0 -0 -8.4825e-06)
(0 -0 -7.52429e-06)
(0 -0 -6.43227e-06)
(0 -0 0.0001495)
(0 -0 0.000148829)
(0 -0 0.000148182)
(0 -0 0.000147572)
(0 -0 0.000146994)
(0 -0 0.000146393)
(0 -0 0.000145719)
(0 -0 0.000145132)
(0 -0 0.000145308)
(0 -0 0.000147643)
(0 -0 0.000154115)
(0 -0 0.000166704)
(0 -0 0.000186534)
(0 -0 0.000213083)
(0 -0 0.000243807)
(0 -0 0.000274394)
(0 -0 0.000299585)
(0 -0 0.000314304)
(0 -0 0.00031474)
(0 -0 0.000299103)
(0 -0 0.000267875)
(0 -0 0.000223581)
(0 -0 0.000170193)
(0 -0 0.000112375)
(0 -0 5.47381e-05)
(0 -0 1.25425e-06)
(0 -0 -4.51145e-05)
(0 -0 -8.25562e-05)
(0 -0 -0.000110361)
(0 -0 -0.000128742)
(0 -0 -0.000138593)
(0 -0 -0.00014123)
(0 -0 -0.000138162)
(0 -0 -0.000130905)
(0 -0 -0.000120854)
(0 -0 -0.000109206)
(0 -0 -9.69229e-05)
(0 -0 -8.47338e-05)
(0 -0 -7.31504e-05)
(0 -0 -6.25009e-05)
(0 -0 -5.29649e-05)
(0 -0 -4.46097e-05)
(0 -0 -3.7422e-05)
(0 -0 -3.13354e-05)
(0 -0 -2.62513e-05)
(0 -0 -2.20556e-05)
(0 -0 -1.86303e-05)
(0 -0 -1.58606e-05)
(0 -0 -1.36398e-05)
(0 -0 -1.18703e-05)
(0 -0 -1.04629e-05)
(0 -0 -9.33323e-06)
(0 -0 -8.39696e-06)
(0 -0 -7.56814e-06)
(0 -0 -6.77474e-06)
(0 -0 0.000161252)
(0 -0 0.000160528)
(0 -0 0.000159831)
(0 -0 0.000159173)
(0 -0 0.00015855)
(0 -0 0.000157904)
(0 -0 0.000157181)
(0 -0 0.000156548)
(0 -0 0.000156721)
(0 -0 0.000159186)
(0 -0 0.000166061)
(0 -0 0.000179485)
(0 -0 0.000200711)
(0 -0 0.00022925)
(0 -0 0.00026246)
(0 -0 0.000295798)
(0 -0 0.000323672)
(0 -0 0.00034064)
(0 -0 0.000342563)
(0 -0 0.000327424)
(0 -0 0.000295611)
(0 -0 0.000249695)
(0 -0 0.000193809)
(0 -0 0.000132859)
(0 -0 7.17333e-05)
(0 -0 1.46705e-05)
(0 -0 -3.5135e-05)
(0 -0 -7.56956e-05)
(0 -0 -0.000106187)
(0 -0 -0.000126768)
(0 -0 -0.000138325)
(0 -0 -0.000142207)
(0 -0 -0.000139976)
(0 -0 -0.000133215)
(0 -0 -0.000123392)
(0 -0 -0.000111768)
(0 -0 -9.93675e-05)
(0 -0 -8.69672e-05)
(0 -0 -7.51196e-05)
(0 -0 -6.41826e-05)
(0 -0 -5.43579e-05)
(0 -0 -4.5727e-05)
(0 -0 -3.82857e-05)
(0 -0 -3.19721e-05)
(0 -0 -2.66895e-05)
(0 -0 -2.23234e-05)
(0 -0 -1.87538e-05)
(0 -0 -1.58639e-05)
(0 -0 -1.35444e-05)
(0 -0 -1.16962e-05)
(0 -0 -1.02302e-05)
(0 -0 -9.06661e-06)
(0 -0 -8.13294e-06)
(0 -0 -7.36669e-06)
(0 -0 -6.73289e-06)
(0 -0 0.000172883)
(0 -0 0.000172107)
(0 -0 0.00017136)
(0 -0 0.000170655)
(0 -0 0.000169987)
(0 -0 0.000169297)
(0 -0 0.000168526)
(0 -0 0.000167848)
(0 -0 0.000168016)
(0 -0 0.000170604)
(0 -0 0.000177864)
(0 -0 0.000192095)
(0 -0 0.00021468)
(0 -0 0.000245172)
(0 -0 0.000280847)
(0 -0 0.000316943)