/*--------------------------------*- C++ -*----------------------------------*\
| =========                 |                                                 |
| \\      /  F ield         | OpenFOAM: The Open Source CFD Toolbox           |
|  \\    /   O peration     | Version:  2412                                  |
|   \\  /    A nd           | Website:  www.openfoam.com                      |
|    \\/     M anipulation  |                                                 |
\*---------------------------------------------------------------------------*/
FoamFile
{
    version     2.0;
    format      ascii;
    arch        "LSB;label=32;scalar=64";
    class       volVectorField;
    location    "9";
    object      U;
}
// * * * * * * * * * * * * * * * * * * * * * * * * * * * * * * * * * * * * * //

dimensions      [0 1 -1 0 0 0 0];

internalField   nonuniform List<vector> 
5285
(
(0.106978 0.000459712 0)
(0.106949 0.00069084 0)
(0.106908 0.000920917 0)
(0.106858 0.00114848 0)
(0.106797 0.00137187 0)
(0.106727 0.0015894 0)
(0.106648 0.0017995 0)
(0.106561 0.00200083 0)
(0.106466 0.00219232 0)
(0.106364 0.00237319 0)
(0.106254 0.0025429 0)
(0.106137 0.00270119 0)
(0.106013 0.00284801 0)
(0.105882 0.00298347 0)
(0.105746 0.00310786 0)
(0.105604 0.00322158 0)
(0.105457 0.00332515 0)
(0.105306 0.00341915 0)
(0.105151 0.00350423 0)
(0.104993 0.00358103 0)
(0.104833 0.00365018 0)
(0.104672 0.00371222 0)
(0.10451 0.00376762 0)
(0.104349 0.00381676 0)
(0.107187 0.000484545 0)
(0.107156 0.000727083 0)
(0.107112 0.000967984 0)
(0.107058 0.00120582 0)
(0.106993 0.00143896 0)
(0.106919 0.00166568 0)
(0.106836 0.00188446 0)
(0.106745 0.00209403 0)
(0.106645 0.00229339 0)
(0.106538 0.00248183 0)
(0.106422 0.00265887 0)
(0.1063 0.00282426 0)
(0.10617 0.00297792 0)
(0.106033 0.0031199 0)
(0.10589 0.00325038 0)
(0.105741 0.00336968 0)
(0.105586 0.00347818 0)
(0.105426 0.00357639 0)
(0.105263 0.00366488 0)
(0.105096 0.00374427 0)
(0.104927 0.00381518 0)
(0.104756 0.0038782 0)
(0.104585 0.00393387 0)
(0.104414 0.00398261 0)
(0.10741 0.000511673 0)
(0.107376 0.000766141 0)
(0.107329 0.00101837 0)
(0.107271 0.00126692 0)
(0.107202 0.00151015 0)
(0.107124 0.00174637 0)
(0.107036 0.0019741 0)
(0.106939 0.00219216 0)
(0.106834 0.00239966 0)
(0.10672 0.00259596 0)
(0.106599 0.00278066 0)
(0.10647 0.00295353 0)
(0.106333 0.00311444 0)
(0.106189 0.00326339 0)
(0.106038 0.00340045 0)
(0.105881 0.00352578 0)
(0.105717 0.00363965 0)
(0.105549 0.00374245 0)
(0.105376 0.00383467 0)
(0.105199 0.00391687 0)
(0.10502 0.00398968 0)
(0.10484 0.00405372 0)
(0.104659 0.00410958 0)
(0.104479 0.00415777 0)
(0.107648 0.000541059 0)
(0.107611 0.000808147 0)
(0.10756 0.00107233 0)
(0.107498 0.00133216 0)
(0.107425 0.00158597 0)
(0.107341 0.00183212 0)
(0.107248 0.00206919 0)
(0.107145 0.00229611 0)
(0.107033 0.00251209 0)
(0.106913 0.00271661 0)
(0.106784 0.00290933 0)
(0.106647 0.00309004 0)
(0.106503 0.00325862 0)
(0.10635 0.00341495 0)
(0.10619 0.00355898 0)
(0.106024 0.00369074 0)
(0.105851 0.00381034 0)
(0.105672 0.00391804 0)
(0.105489 0.00401422 0)
(0.105303 0.0040994 0)
(0.105114 0.00417418 0)
(0.104923 0.00423922 0)
(0.104732 0.00429517 0)
(0.104542 0.00434263 0)
(0.107902 0.000572699 0)
(0.107862 0.000853241 0)
(0.107807 0.00113016 0)
(0.107741 0.00140196 0)
(0.107663 0.00166701 0)
(0.107573 0.00192368 0)
(0.107473 0.00217062 0)
(0.107363 0.00240688 0)
(0.107244 0.00263179 0)
(0.107115 0.00284495 0)
(0.106978 0.00304609 0)
(0.106832 0.00323504 0)
(0.106678 0.00341164 0)
(0.106516 0.0035757 0)
(0.106346 0.00372704 0)
(0.106169 0.00386552 0)
(0.105986 0.00399112 0)
(0.105796 0.00410392 0)
(0.105603 0.00420421 0)
(0.105405 0.00429244 0)
(0.105205 0.00436919 0)
(0.105004 0.00443515 0)
(0.104803 0.00449104 0)
(0.104602 0.00453754 0)
(0.108173 0.000606616 0)
(0.10813 0.000901591 0)
(0.108071 0.00119216 0)
(0.108 0.00147682 0)
(0.107916 0.00175393 0)
(0.10782 0.00202186 0)
(0.107712 0.00227937 0)
(0.107594 0.0025256 0)
(0.107466 0.00276001 0)
(0.107328 0.0029823 0)
(0.107181 0.0031923 0)
(0.107024 0.00338988 0)
(0.10686 0.00357484 0)
(0.106686 0.00374692 0)
(0.106505 0.00390581 0)
(0.106317 0.00405122 0)
(0.106122 0.00418295 0)
(0.105921 0.00430095 0)
(0.105716 0.00440539 0)
(0.105507 0.00449664 0)
(0.105295 0.00457528 0)
(0.105083 0.00464201 0)
(0.10487 0.00469761 0)
(0.104659 0.00474287 0)
(0.108462 0.000642856 0)
(0.108417 0.000953398 0)
(0.108353 0.00125872 0)
(0.108277 0.00155728 0)
(0.108186 0.00184743 0)
(0.108082 0.00212757 0)
(0.107966 0.0023965 0)
(0.107839 0.00265346 0)
(0.1077 0.00289805 0)
(0.107551 0.00313006 0)
(0.107393 0.00334942 0)
(0.107225 0.00355602 0)
(0.107048 0.00374965 0)
(0.106862 0.00392998 0)
(0.106668 0.00409658 0)
(0.106467 0.00424901 0)
(0.106259 0.0043869 0)
(0.106046 0.00451007 0)
(0.105828 0.00461858 0)
(0.105607 0.00471272 0)
(0.105383 0.00479305 0)
(0.105159 0.00486031 0)
(0.104935 0.00491533 0)
(0.104712 0.00495901 0)
(0.108771 0.000681504 0)
(0.108722 0.00100891 0)
(0.108654 0.00133025 0)
(0.108571 0.00164394 0)
(0.108474 0.00194831 0)
(0.108362 0.00224175 0)
(0.108236 0.00252312 0)
(0.108098 0.00279174 0)
(0.107948 0.00304729 0)
(0.107787 0.0032897 0)
(0.107615 0.00351896 0)
(0.107434 0.00373499 0)
(0.107243 0.00393758 0)
(0.107043 0.00412633 0)
(0.106835 0.00430071 0)
(0.10662 0.00446014 0)
(0.106398 0.00460412 0)
(0.106171 0.00473231 0)
(0.10594 0.00484468 0)
(0.105705 0.00494147 0)
(0.105468 0.0050232 0)
(0.105231 0.00509064 0)
(0.104995 0.00514471 0)
(0.10476 0.00518639 0)
(0.1091 0.000722702 0)
(0.109048 0.00106844 0)
(0.108974 0.00140723 0)
(0.108885 0.00173746 0)
(0.10878 0.0020574 0)
(0.108658 0.00236542 0)
(0.108522 0.0026604 0)
(0.108372 0.00294173 0)
(0.108209 0.00320917 0)
(0.108034 0.00346273 0)
(0.107848 0.00370247 0)
(0.107651 0.00392836 0)
(0.107445 0.00414018 0)
(0.10723 0.00433748 0)
(0.107006 0.00451964 0)
(0.106776 0.00468597 0)
(0.106539 0.00483583 0)
(0.106296 0.00496878 0)
(0.10605 0.0050847 0)
(0.105801 0.00518375 0)
(0.105551 0.00526648 0)
(0.105301 0.00533368 0)
(0.105052 0.00538633 0)
(0.104805 0.00542552 0)
(0.109451 0.000766658 0)
(0.109395 0.00113238 0)
(0.109315 0.00149025 0)
(0.109219 0.00183859 0)
(0.109104 0.00217562 0)
(0.108973 0.00249966 0)
(0.108824 0.00280958 0)
(0.108661 0.00310479 0)
(0.108484 0.00338514 0)
(0.108294 0.00365068 0)
(0.108091 0.00390154 0)
(0.107878 0.00413773 0)
(0.107655 0.00435904 0)
(0.107423 0.00456498 0)
(0.107182 0.00475485 0)
(0.106934 0.00492788 0)
(0.106681 0.00508333 0)
(0.106422 0.00522068 0)
(0.10616 0.0053397 0)
(0.105896 0.00544055 0)
(0.105631 0.00552376 0)
(0.105366 0.00559016 0)
(0.105104 0.00564082 0)
(0.104844 0.00567694 0)
(0.109824 0.000813653 0)
(0.109765 0.00120119 0)
(0.109678 0.00157995 0)
(0.109573 0.00194816 0)
(0.109449 0.00230398 0)
(0.109306 0.00264563 0)
(0.109145 0.00297194 0)
(0.108967 0.00328235 0)
(0.108774 0.0035767 0)
(0.108566 0.00385513 0)
(0.108346 0.0041178 0)
(0.108115 0.00436476 0)
(0.107873 0.0045958 0)
(0.107622 0.00481043 0)
(0.107363 0.0050079 0)
(0.107096 0.00518736 0)
(0.106824 0.00534802 0)
(0.106548 0.00548927 0)
(0.106269 0.00561085 0)
(0.105989 0.0057129 0)
(0.105708 0.00579596 0)
(0.105428 0.00586092 0)
(0.105151 0.00590893 0)
(0.104878 0.00594128 0)
(0.110222 0.000864046 0)
(0.110158 0.00127544 0)
(0.110064 0.00167708 0)
(0.10995 0.00206711 0)
(0.109816 0.00244357 0)
(0.109659 0.00280457 0)
(0.109483 0.00314888 0)
(0.109289 0.00347588 0)
(0.109079 0.00378546 0)
(0.108853 0.00407774 0)
(0.108614 0.00435295 0)
(0.108362 0.00461115 0)
(0.1081 0.00485217 0)
(0.107828 0.0050755 0)
(0.107548 0.0052804 0)
(0.107262 0.00546596 0)
(0.10697 0.00563134 0)
(0.106675 0.00577592 0)
(0.106377 0.00589941 0)
(0.106079 0.00600195 0)
(0.105781 0.00608412 0)
(0.105486 0.00614687 0)
(0.105193 0.00619144 0)
(0.104905 0.00621925 0)
(0.110647 0.000918273 0)
(0.110577 0.00135579 0)
(0.110475 0.0017825 0)
(0.110351 0.00219648 0)
(0.110204 0.00259561 0)
(0.110034 0.00297786 0)
(0.109842 0.00334188 0)
(0.10963 0.003687 0)
(0.1094 0.00401308 0)
(0.109154 0.00432024 0)
(0.108894 0.00460875 0)
(0.10862 0.00487869 0)
(0.108335 0.00512992 0)
(0.108041 0.00536196 0)
(0.107739 0.00557405 0)
(0.107431 0.0057653 0)
(0.107118 0.00593486 0)
(0.106802 0.00608209 0)
(0.106485 0.00620673 0)
(0.106167 0.00630894 0)
(0.105851 0.00638936 0)
(0.105539 0.00644901 0)
(0.10523 0.00648924 0)
(0.104927 0.00651158 0)
(0.111099 0.000976852 0)
(0.111024 0.00144298 0)
(0.110912 0.0018972 0)
(0.110777 0.00233745 0)
(0.110617 0.00276146 0)
(0.110431 0.003167 0)
(0.110221 0.00355259 0)
(0.10999 0.00391745 0)
(0.109739 0.00426138 0)
(0.109471 0.00458452 0)
(0.109187 0.00488711 0)
(0.108889 0.00516929 0)
(0.10858 0.00543095 0)
(0.108262 0.00567164 0)
(0.107936 0.00589066 0)
(0.107604 0.00608713 0)
(0.107268 0.00626022 0)
(0.106929 0.00640934 0)
(0.106591 0.00653425 0)
(0.106253 0.00663518 0)
(0.105917 0.00671285 0)
(0.105586 0.00676839 0)
(0.10526 0.00680325 0)
(0.104941 0.0068191 0)
(0.111582 0.00104038 0)
(0.1115 0.00153789 0)
(0.111377 0.00202229 0)
(0.11123 0.00249136 0)
(0.111055 0.00294264 0)
(0.110852 0.00337369 0)
(0.110623 0.00378282 0)
(0.11037 0.00416914 0)
(0.110096 0.00453237 0)
(0.109803 0.0048726 0)
(0.109494 0.00519009 0)
(0.10917 0.00548501 0)
(0.108835 0.00575729 0)
(0.10849 0.00600656 0)
(0.108137 0.00623217 0)
(0.10778 0.0064333 0)
(0.107419 0.00660919 0)
(0.107056 0.0067593 0)
(0.106694 0.00688349 0)
(0.106334 0.00698208 0)
(0.105978 0.00705588 0)
(0.105628 0.00710615 0)
(0.105283 0.00713446 0)
(0.104947 0.00714265 0)
(0.112098 0.00110957 0)
(0.112009 0.00164153 0)
(0.111874 0.00215905 0)
(0.111713 0.00265973 0)
(0.111521 0.00314089 0)
(0.111298 0.00359982 0)
(0.111047 0.00403461 0)
(0.110771 0.00444422 0)
(0.110472 0.00482826 0)
(0.110152 0.00518676 0)
(0.109815 0.00551998 0)
(0.109463 0.00582811 0)
(0.109099 0.00611117 0)
(0.108725 0.00636888 0)
(0.108344 0.00660067 0)
(0.107959 0.00680581 0)
(0.107571 0.00698364 0)
(0.107182 0.00713375 0)
(0.106795 0.0072561 0)
(0.106412 0.00735113 0)
(0.106034 0.00741978 0)
(0.105662 0.00746346 0)
(0.105298 0.00748392 0)
(0.104944 0.00748312 0)
(0.11265 0.00118522 0)
(0.112553 0.00175505 0)
(0.112404 0.00230893 0)
(0.112227 0.00284427 0)
(0.112017 0.00335814 0)
(0.111773 0.00384753 0)
(0.111498 0.00431027 0)
(0.111195 0.00474511 0)
(0.110868 0.00515154 0)
(0.110518 0.00552953 0)
(0.110151 0.0058793 0)
(0.109767 0.00620111 0)
(0.109372 0.00649505 0)
(0.108967 0.00676094 0)
(0.108555 0.00699839 0)
(0.10814 0.0072068 0)
(0.107722 0.00738561 0)
(0.107306 0.00753457 0)
(0.106892 0.00765379 0)
(0.106484 0.00774388 0)
(0.106082 0.00780595 0)
(0.105688 0.00784157 0)
(0.105303 0.00785266 0)
(0.10493 0.00784139 0)
(0.113242 0.00126825 0)
(0.113135 0.00187974 0)
(0.112972 0.00247356 0)
(0.112777 0.00304693 0)
(0.112546 0.00359662 0)
(0.112278 0.00411926 0)
(0.111976 0.0046124 0)
(0.111644 0.00507454 0)
(0.111285 0.00550503 0)
(0.110904 0.00590375 0)
(0.110502 0.00627091 0)
(0.110085 0.00660682 0)
(0.109655 0.00691167 0)
(0.109216 0.00718543 0)
(0.108771 0.00742786 0)
(0.108322 0.0076386 0)
(0.107874 0.00781727 0)
(0.107427 0.00796376 0)
(0.106985 0.0080784 0)
(0.106549 0.00816199 0)
(0.106121 0.00821584 0)
(0.105704 0.00824173 0)
(0.105297 0.00824179 0)
(0.104904 0.00821837 0)
(0.109472 0.0076453 0)
(0.10899 0.00789194 0)
(0.108506 0.00810389 0)
(0.108023 0.00828104 0)
(0.107544 0.00842354 0)
(0.10707 0.00853191 0)
(0.106606 0.0086072 0)
(0.106151 0.00865098 0)
(0.105708 0.00866525 0)
(0.105279 0.00865238 0)
(0.104865 0.00861495 0)
(0.106878 -0.0010236 5.37871e-26)
(0.106923 -0.000823122 -3.59588e-26)
(0.106958 -0.000618414 -7.64535e-26)
(0.106983 -0.000409753 2.37503e-25)
(0.106997 -0.000197511 -4.1394e-25)
(0.107001 1.77577e-05 -1.85407e-24)
(0.106995 0.000235329 3.12517e-25)
(0.107073 -0.00107398 1.64663e-26)
(0.107121 -0.000862944 -1.53421e-25)
(0.107158 -0.000647504 -4.92583e-25)
(0.107186 -0.000428001 -1.63317e-25)
(0.107202 -0.000204907 4.95201e-25)
(0.107208 2.10927e-05 8.91854e-25)
(0.107204 0.000249137 4.3751e-24)
(0.107279 -0.00112718 -4.67275e-26)
(0.10733 -0.000904807 -3.1109e-25)
(0.107371 -0.000677854 5.59994e-25)
(0.1074 -0.000446735 -9.15043e-26)
(0.107419 -0.00021202 3.43909e-24)
(0.107428 2.54663e-05 4.29448e-25)
(0.107426 0.000264714 -3.97792e-24)
(0.107496 -0.00118357 7.56755e-26)
(0.107551 -0.000949081 -1.49878e-26)
(0.107595 -0.00070982 -2.94719e-24)
(0.107628 -0.000466285 3.52792e-25)
(0.10765 -0.000219152 -7.89444e-24)
(0.107661 3.06127e-05 9.49379e-24)
(0.107663 0.000281843 6.1477e-25)
(0.107726 -0.00124359 1.2353e-25)
(0.107785 -0.000996152 -1.23426e-25)
(0.107833 -0.000743735 6.9821e-24)
(0.10787 -0.000486933 9.83849e-26)
(0.107896 -0.000226537 3.81679e-24)
(0.10791 3.63429e-05 -9.39538e-24)
(0.107916 0.000300396 1.25611e-23)
(0.107969 -0.00130775 -1.74041e-25)
(0.108033 -0.00104647 -2.8537e-25)
(0.108085 -0.000779992 -3.78364e-24)
(0.108127 -0.000509017 1.07052e-23)
(0.108157 -0.000234447 6.64978e-25)
(0.108175 4.24643e-05 1.30525e-23)
(0.108186 0.000320278 -1.24751e-23)
(0.108225 -0.0013766 -6.758e-25)
(0.108295 -0.00110052 -7.97601e-25)
(0.108353 -0.000819024 -1.10966e-25)
(0.108399 -0.000532903 -2.20809e-23)
(0.108434 -0.000243173 -7.84663e-25)
(0.108457 4.87783e-05 -3.08838e-23)
(0.108473 0.000341404 -3.3929e-23)
(0.108497 -0.0014507 6.17915e-25)
(0.108572 -0.00115882 2.83851e-25)
(0.108636 -0.000861278 8.02793e-25)
(0.108688 -0.000558962 1.28493e-23)
(0.108729 -0.000252997 1.05096e-25)
(0.108758 5.51048e-05 5.02617e-23)
(0.108779 0.000363718 3.61104e-23)
(0.108784 -0.00153069 3.43749e-25)
(0.108866 -0.00122191 5.37559e-24)
(0.108937 -0.000907212 1.58752e-23)
(0.108995 -0.000587559 -1.04724e-24)
(0.109042 -0.000264183 1.04708e-24)
(0.109077 6.12972e-05 -3.64409e-23)
(0.109106 0.00038721 0)
(0.109088 -0.00161721 0)
(0.109177 -0.00129036 -7.46753e-24)
(0.109255 -0.000957289 -1.51741e-23)
(0.109322 -0.000619052 2.15671e-23)
(0.109375 -0.000276968 -2.49657e-24)
(0.109417 6.72499e-05 -4.62506e-23)
(0.109454 0.000411926 5.10292e-23)
(0.109409 -0.00171097 4.74684e-25)
(0.109507 -0.00136475 -9.21689e-24)
(0.109594 -0.00101198 0)
(0.109668 -0.000653785 -1.93004e-23)
(0.109729 -0.000291563 -4.76455e-23)
(0.109779 7.29022e-05 -6.89621e-24)
(0.109824 0.000437974 -1.03372e-22)
(0.10975 -0.00181269 -5.46438e-25)
(0.109857 -0.0014457 8.04238e-24)
(0.109953 -0.00107177 -1.36003e-25)
(0.110036 -0.000692097 -1.30775e-25)
(0.110106 -0.000308152 4.91782e-23)
(0.110164 7.82361e-05 1.07145e-22)
(0.110218 0.000465521 1.18338e-22)
(0.110111 -0.0019232 5.00639e-24)
(0.110229 -0.00153387 0)
(0.110334 -0.00113716 0)
(0.110427 -0.000734332 5.45141e-23)
(0.110506 -0.000326902 -5.72698e-23)
(0.110574 8.32724e-05 -1.22679e-22)
(0.110639 0.000494797 -6.13759e-23)
(0.110494 -0.00204336 -1.13709e-23)
(0.110623 -0.00162996 7.05243e-25)
(0.110739 -0.00120869 2.9521e-23)
(0.110843 -0.000780844 -1.14924e-22)
(0.110933 -0.000347971 5.92516e-23)
(0.11101 8.80643e-05 5.94058e-23)
(0.111087 0.000526088 2.16032e-24)
(0.110901 -0.00217413 6.45072e-24)
(0.111042 -0.00173478 -2.53959e-24)
(0.111171 -0.00128696 -2.60276e-23)
(0.111286 -0.000832011 1.27615e-22)
(0.111387 -0.000371516 0)
(0.111476 9.26913e-05 7.48914e-23)
(0.111565 0.000559736 2.3822e-24)
(0.111333 -0.0023166 6.24797e-24)
(0.111488 -0.00184917 -1.05574e-24)
(0.11163 -0.0013726 -6.65135e-23)
(0.111758 -0.000888248 -1.38806e-22)
(0.111872 -0.000397703 1.51347e-25)
(0.111973 9.72527e-05 9.00689e-23)
(0.112076 0.000596142 1.80226e-22)
(0.111793 -0.00247197 -6.13688e-24)
(0.111962 -0.00197412 3.38254e-23)
(0.112119 -0.00146634 1.46343e-22)
(0.112262 -0.000950014 7.16766e-23)
(0.112389 -0.000426714 8.74584e-23)
(0.112504 0.000101872 -3.59519e-22)
(0.112622 0.00063577 -3.75422e-22)
(0.112282 -0.00264158 -1.09269e-24)
(0.112468 -0.0021107 -7.45294e-23)
(0.112641 -0.00156899 -7.57254e-23)
(0.112799 -0.00101781 -1.75383e-25)
(0.112943 -0.000458741 -1.8071e-22)
(0.113072 0.000106696 1.83664e-22)
(0.113208 0.000679153 2.01276e-22)
(0.112803 -0.00282699 1.20849e-24)
(0.113008 -0.00226018 3.45996e-23)
(0.113199 -0.00168147 2.6304e-24)
(0.113375 -0.00109227 0)
(0.113535 -0.000494039 9.9258e-23)
(0.113681 0.000111876 2.17247e-22)
(0.113837 0.000726909 3.4609e-24)
(0.11336 -0.00302996 -1.33339e-24)
(0.113585 -0.00242401 4.80483e-23)
(0.106313 -0.00228921 -8.35195e-25)
(0.106418 -0.00212495 -1.45003e-24)
(0.106515 -0.00195475 -1.12214e-25)
(0.106604 -0.00177886 -1.14035e-24)
(0.106686 -0.00159752 -3.38859e-25)
(0.106759 -0.00141102 -4.74766e-25)
(0.106823 -0.00121964 1.53544e-25)
(0.106483 -0.00240568 5.72794e-24)
(0.106592 -0.00223285 3.81148e-24)
(0.106693 -0.00205387 -2.3305e-24)
(0.106786 -0.00186886 4.47399e-25)
(0.106871 -0.00167806 -1.01927e-24)
(0.106948 -0.00148179 -1.70473e-25)
(0.107015 -0.00128035 -6.88305e-26)
(0.106661 -0.00252972 -6.52823e-24)
(0.106774 -0.00234777 -6.0688e-25)
(0.106879 -0.00215937 6.5779e-24)
(0.106977 -0.00196458 1.17386e-25)
(0.107066 -0.00176364 1.53891e-24)
(0.107147 -0.00155688 3.4612e-25)
(0.107218 -0.00134463 1.44739e-25)
(0.106848 -0.00266196 -6.65489e-25)
(0.106966 -0.00247026 9.76542e-24)
(0.107076 -0.00227174 -7.69116e-24)
(0.107178 -0.00206646 -3.0112e-25)
(0.107271 -0.00185467 -1.49012e-24)
(0.107356 -0.0016367 5.49734e-25)
(0.107431 -0.00141289 -6.76907e-26)
(0.107045 -0.00280316 1.07472e-23)
(0.107167 -0.00260102 -9.71238e-24)
(0.107282 -0.00239167 3.90985e-24)
(0.107389 -0.00217518 -1.25398e-25)
(0.107487 -0.00195175 2.32075e-24)
(0.107577 -0.00172178 -9.7883e-27)
(0.107656 -0.0014856 4.32031e-26)
(0.10725 -0.00295415 -1.0706e-23)
(0.107379 -0.00274084 7.3277e-24)
(0.107498 -0.00251991 -2.67019e-25)
(0.107611 -0.00229141 2.67308e-24)
(0.107715 -0.00205555 -8.07942e-25)
(0.107809 -0.00181271 -3.31139e-25)
(0.107894 -0.00156332 -5.62489e-26)
(0.107465 -0.00311586 -1.62739e-23)
(0.1076 -0.00289059 -1.18795e-23)
(0.107726 -0.00265727 1.83295e-25)
(0.107844 -0.00241592 -3.89492e-24)
(0.107954 -0.00216676 1.31658e-25)
(0.108055 -0.00191018 2.10283e-25)
(0.108145 -0.00164665 7.59459e-25)
(0.107691 -0.00328928 2.12177e-24)
(0.107833 -0.00305121 1.45469e-23)
(0.107965 -0.00280462 -1.40907e-25)
(0.10809 -0.00254954 9.79962e-25)
(0.108206 -0.00228614 4.47885e-26)
(0.108313 -0.00201489 1.57147e-25)
(0.10841 -0.00173624 -8.10318e-25)
(0.107928 -0.00347554 2.661e-24)
(0.108077 -0.00322374 -8.3999e-24)
(0.108216 -0.00296295 -1.79429e-28)
(0.108348 -0.00269315 1.79476e-28)
(0.108472 -0.00241453 -4.04659e-24)
(0.108586 -0.00212758 -3.80713e-24)
(0.10869 -0.00183278 2.12125e-25)
(0.108176 -0.00367584 1.05447e-23)
(0.108334 -0.00340932 -2.33723e-24)
(0.10848 -0.0031333 -4.86146e-26)
(0.10862 -0.00284775 -3.33878e-24)
(0.108752 -0.00255285 4.47601e-24)
(0.108875 -0.00224908 2.90683e-24)
(0.108987 -0.00193701 0)
(0.108437 -0.00389152 -5.04977e-24)
(0.108604 -0.0036092 3.36052e-24)
(0.108758 -0.00331686 5.87793e-24)
(0.108907 -0.00301443 3.6876e-24)
(0.109048 -0.00270206 0)
(0.109179 -0.0023803 4.91504e-24)
(0.1093 -0.00204973 3.32186e-25)
(0.108711 -0.00412405 6.66674e-24)
(0.108888 -0.00382477 -4.93735e-24)
(0.109051 -0.0035149 -5.55993e-24)
(0.10921 -0.00319435 1.50037e-23)
(0.10936 -0.00286326 1.59824e-25)
(0.109501 -0.0025222 -5.4828e-24)
(0.109631 -0.00217179 -3.97906e-25)
(0.108998 -0.00437507 -1.74042e-24)
(0.109186 -0.00405754 1.1842e-23)
(0.10936 -0.00372883 1.36964e-23)
(0.109529 -0.00338883 -3.37787e-23)
(0.10969 -0.00303764 0)
(0.109841 -0.00267585 0)
(0.109982 -0.00230414 -4.37173e-24)
(0.1093 -0.00464639 2.08215e-25)
(0.1095 -0.0043092 -8.51456e-24)
(0.109685 -0.00396023 -1.36081e-23)
(0.109865 -0.0035993 4.20809e-23)
(0.110039 -0.0032265 -1.37695e-23)
(0.110202 -0.00284243 5.4293e-25)
(0.110354 -0.0024478 8.82649e-24)
(0.109616 -0.00494001 3.32171e-25)
(0.10983 -0.00458164 -1.64186e-23)
(0.110027 -0.00421084 0)
(0.110221 -0.00382738 -5.13149e-23)
(0.110407 -0.0034313 1.55699e-23)
(0.110583 -0.00302324 -1.69101e-24)
(0.110748 -0.00260392 -4.37415e-24)
(0.109949 -0.00525816 -2.69328e-23)
(0.110177 -0.00487695 -2.58124e-23)
(0.110388 -0.0044826 -1.93847e-25)
(0.110596 -0.00407485 6.18554e-23)
(0.110797 -0.00365367 4.0449e-23)
(0.110987 -0.00321972 2.21214e-23)
(0.111166 -0.00277376 -7.11088e-24)
(0.110298 -0.00560335 6.35612e-23)
(0.110543 -0.00519744 9.17117e-23)
(0.110769 -0.00477767 0)
(0.110993 -0.00434369 -3.42121e-23)
(0.11121 -0.00389541 -8.28301e-23)
(0.111416 -0.0034335 -4.9019e-23)
(0.11161 -0.00295875 7.1922e-24)
(0.110664 -0.00597833 -3.52827e-23)
(0.110928 -0.00554574 -5.1817e-23)
(0.111171 -0.00509849 3.85932e-23)
(0.111412 -0.00463615 2.13754e-25)
(0.111647 -0.00415857 4.50284e-23)
(0.111871 -0.00366642 2.48786e-23)
(0.112082 -0.00316048 -8.96449e-25)
(0.111049 -0.00638626 9.26237e-25)
(0.111334 -0.00592477 -7.47857e-23)
(0.111596 -0.00544777 -3.62755e-23)
(0.111856 -0.00495474 0)
(0.112111 -0.00444544 1.79792e-24)
(0.112354 -0.00392051 -2.79467e-24)
(0.112585 -0.00338076 1.00172e-24)
(0.112868 -0.00419813 1.11736e-24)
(0.113121 -0.00362164 -1.11511e-24)
(0.101564 -0.00363268 0)
(0.101664 -0.00367953 0)
(0.101768 -0.00372421 0)
(0.101876 -0.00376645 0)
(0.101988 -0.003806 0)
(0.102104 -0.00384257 0)
(0.102223 -0.00387586 0)
(0.102347 -0.00390557 0)
(0.102474 -0.0039314 0)
(0.102605 -0.00395304 0)
(0.10274 -0.00397016 0)
(0.102878 -0.00398243 0)
(0.10302 -0.00398953 0)
(0.103165 -0.00399113 0)
(0.103313 -0.00398688 0)
(0.103464 -0.00397646 0)
(0.103617 -0.00395953 0)
(0.103773 -0.00393579 0)
(0.103931 -0.00390491 0)
(0.10409 -0.0038666 0)
(0.10425 -0.00382059 0)
(0.104411 -0.00376661 0)
(0.104572 -0.00370444 0)
(0.104733 -0.00363388 0)
(0.104893 -0.00355475 0)
(0.105051 -0.00346693 0)
(0.105208 -0.00337033 0)
(0.105362 -0.0032649 0)
(0.105513 -0.00315065 0)
(0.10566 -0.00302763 0)
(0.105803 -0.00289595 0)
(0.105941 -0.00275576 0)
(0.106073 -0.00260726 0)
(0.106199 -0.00245054 0)
(0.101515 -0.00373203 0)
(0.101617 -0.00378279 0)
(0.101723 -0.00383143 0)
(0.101834 -0.00387769 0)
(0.101949 -0.00392127 0)
(0.102067 -0.00396189 0)
(0.10219 -0.00399922 0)
(0.102318 -0.00403294 0)
(0.102449 -0.00406274 0)
(0.102585 -0.00408826 0)
(0.102724 -0.00410917 0)
(0.102868 -0.0041251 0)
(0.103015 -0.00413569 0)
(0.103166 -0.00414059 0)
(0.10332 -0.00413942 0)
(0.103477 -0.00413183 0)
(0.103637 -0.00411745 0)
(0.1038 -0.00409591 0)
(0.103965 -0.00406689 0)
(0.104132 -0.00403005 0)
(0.1043 -0.00398507 0)
(0.104469 -0.00393167 0)
(0.104639 -0.00386958 0)
(0.104808 -0.00379856 0)
(0.104977 -0.00371842 0)
(0.105145 -0.003629 0)
(0.105311 -0.00353018 0)
(0.105474 -0.00342189 0)
(0.105634 -0.00330414 0)
(0.10579 -0.00317694 0)
(0.105942 -0.00304041 0)
(0.106088 -0.00289466 0)
(0.106229 -0.00273985 0)
(0.106363 -0.00257585 0)
(0.101462 -0.00383325 0)
(0.101566 -0.00388818 0)
(0.101675 -0.00394106 0)
(0.101788 -0.0039916 0)
(0.101905 -0.00403952 0)
(0.102027 -0.00408448 0)
(0.102154 -0.00412617 0)
(0.102285 -0.00416424 0)
(0.10242 -0.00419834 0)
(0.10256 -0.0042281 0)
(0.102705 -0.00425314 0)
(0.102853 -0.00427309 0)
(0.103006 -0.00428754 0)
(0.103163 -0.00429611 0)
(0.103323 -0.00429839 0)
(0.103488 -0.00429399 0)
(0.103655 -0.0042825 0)
(0.103825 -0.00426352 0)
(0.103998 -0.00423669 0)
(0.104173 -0.00420162 0)
(0.10435 -0.00415797 0)
(0.104528 -0.0041054 0)
(0.104706 -0.00404361 0)
(0.104885 -0.00397233 0)
(0.105063 -0.00389133 0)
(0.105241 -0.00380041 0)
(0.105416 -0.00369944 0)
(0.105589 -0.00358832 0)
(0.105759 -0.003467 0)
(0.105925 -0.00333553 0)
(0.106086 -0.00319396 0)
(0.106242 -0.00304241 0)
(0.106392 -0.00288096 0)
(0.106535 -0.00270923 0)
(0.101405 -0.00393628 0)
(0.101511 -0.00399564 0)
(0.101622 -0.00405303 0)
(0.101737 -0.00410816 0)
(0.101857 -0.00416072 0)
(0.101983 -0.00421036 0)
(0.102112 -0.00425675 0)
(0.102247 -0.00429951 0)
(0.102387 -0.00433828 0)
(0.102532 -0.00437264 0)
(0.102681 -0.00440221 0)
(0.102835 -0.00442656 0)
(0.102993 -0.00444528 0)
(0.103156 -0.00445792 0)
(0.103324 -0.00446405 0)
(0.103495 -0.00446323 0)
(0.103669 -0.00445502 0)
(0.103848 -0.00443899 0)
(0.104029 -0.00441471 0)
(0.104212 -0.00438176 0)
(0.104398 -0.00433976 0)
(0.104585 -0.00428832 0)
(0.104774 -0.0042271 0)
(0.104962 -0.0041558 0)
(0.105151 -0.00407412 0)
(0.105338 -0.00398185 0)
(0.105524 -0.00387881 0)
(0.105708 -0.00376488 0)
(0.105888 -0.00363998 0)
(0.106065 -0.00350412 0)
(0.106236 -0.00335736 0)
(0.106402 -0.00319976 0)
(0.106562 -0.00303135 0)
(0.106715 -0.00285145 0)
(0.101343 -0.00404102 0)
(0.101451 -0.00410509 0)
(0.101564 -0.0041673 0)
(0.101682 -0.00422733 0)
(0.101805 -0.00428485 0)
(0.101933 -0.00433952 0)
(0.102066 -0.00439097 0)
(0.102205 -0.0044388 0)
(0.102349 -0.00448262 0)
(0.102498 -0.00452199 0)
(0.102652 -0.0045565 0)
(0.102812 -0.00458568 0)
(0.102976 -0.00460908 0)
(0.103146 -0.00462623 0)
(0.10332 -0.00463665 0)
(0.103498 -0.00463985 0)
(0.103681 -0.00463536 0)
(0.103867 -0.00462269 0)
(0.104057 -0.00460138 0)
(0.104249 -0.00457095 0)
(0.104445 -0.00453097 0)
(0.104642 -0.004481 0)
(0.10484 -0.00442067 0)
(0.10504 -0.0043496 0)
(0.105239 -0.00426747 0)
(0.105438 -0.00417403 0)
(0.105635 -0.00406904 0)
(0.10583 -0.00395235 0)
(0.106022 -0.00382386 0)
(0.106209 -0.00368354 0)
(0.106392 -0.00353142 0)
(0.106569 -0.00336755 0)
(0.106739 -0.00319184 0)
(0.106903 -0.00300331 0)
(0.101276 -0.00414737 0)
(0.101386 -0.00421645 0)
(0.101501 -0.00428378 0)
(0.101621 -0.00434903 0)
(0.101747 -0.00441187 0)
(0.101878 -0.00447193 0)
(0.102015 -0.00452881 0)
(0.102157 -0.00458212 0)
(0.102305 -0.0046314 0)
(0.102459 -0.00467623 0)
(0.102619 -0.00471612 0)
(0.102784 -0.00475059 0)
(0.102954 -0.00477914 0)
(0.10313 -0.00480127 0)
(0.103312 -0.00481646 0)
(0.103498 -0.00482417 0)
(0.103688 -0.00482387 0)
(0.103883 -0.00481504 0)
(0.104082 -0.00479715 0)
(0.104284 -0.00476968 0)
(0.104489 -0.00473213 0)
(0.104697 -0.00468404 0)
(0.104906 -0.00462494 0)
(0.105117 -0.00455442 0)
(0.105328 -0.00447212 0)
(0.105538 -0.00437771 0)
(0.105747 -0.00427093 0)
(0.105955 -0.00415157 0)
(0.106159 -0.0040195 0)
(0.106359 -0.00387467 0)
(0.106554 -0.00371706 0)
(0.106742 -0.00354668 0)
(0.106924 -0.00336334 0)
(0.1071 -0.00316571 0)
(0.101204 -0.00425521 0)
(0.101316 -0.0043296 0)
(0.101432 -0.00440237 0)
(0.101555 -0.0044732 0)
(0.101683 -0.00454171 0)
(0.101817 -0.00460754 0)
(0.101957 -0.00467028 0)
(0.102104 -0.00472947 0)
(0.102256 -0.00478467 0)
(0.102415 -0.0048354 0)
(0.102579 -0.00488116 0)
(0.10275 -0.00492141 0)
(0.102927 -0.00495563 0)
(0.10311 -0.00498327 0)
(0.103298 -0.00500374 0)
(0.103492 -0.00501649 0)
(0.103691 -0.00502092 0)
(0.103895 -0.00501644 0)
(0.104103 -0.00500248 0)
(0.104316 -0.00497847 0)
(0.104532 -0.00494384 0)
(0.10475 -0.00489805 0)
(0.104971 -0.0048406 0)
(0.105194 -0.004771 0)
(0.105417 -0.00468884 0)
(0.10564 -0.00459373 0)
(0.105862 -0.00448535 0)
(0.106082 -0.00436345 0)
(0.1063 -0.00422786 0)
(0.106513 -0.00407847 0)
(0.106721 -0.00391524 0)
(0.106923 -0.00373813 0)
(0.107117 -0.00354684 0)
(0.107306 -0.00333962 0)
(0.101127 -0.0043644 0)
(0.101239 -0.00444442 0)
(0.101358 -0.00452297 0)
(0.101482 -0.00459972 0)
(0.101613 -0.0046743 0)
(0.10175 -0.0047463 0)
(0.101894 -0.00481531 0)
(0.102044 -0.00488085 0)
(0.1022 -0.00494244 0)
(0.102364 -0.00499957 0)
(0.102534 -0.00505171 0)
(0.10271 -0.00509828 0)
(0.102894 -0.00513872 0)
(0.103083 -0.00517242 0)
(0.103279 -0.00519876 0)
(0.103481 -0.00521712 0)
(0.103689 -0.00522686 0)
(0.103903 -0.00522732 0)
(0.104121 -0.00521787 0)
(0.104344 -0.00519787 0)
(0.104571 -0.00516668 0)
(0.104801 -0.00512371 0)
(0.105034 -0.00506837 0)
(0.10527 -0.00500012 0)
(0.105506 -0.00491847 0)
(0.105743 -0.00482297 0)
(0.105979 -0.00471324 0)
(0.106213 -0.00458897 0)
(0.106444 -0.00444994 0)
(0.106672 -0.004296 0)
(0.106894 -0.00412705 0)
(0.10711 -0.003943 0)
(0.107319 -0.00374343 0)
(0.107522 -0.00352612 0)
(0.101043 -0.00447478 0)
(0.101157 -0.00456074 0)
(0.101277 -0.00464542 0)
(0.101404 -0.00472847 0)
(0.101537 -0.00480951 0)
(0.101677 -0.00488812 0)
(0.101823 -0.00496385 0)
(0.101977 -0.00503621 0)
(0.102138 -0.0051047 0)
(0.102306 -0.00516877 0)
(0.102481 -0.00522783 0)
(0.102664 -0.0052813 0)
(0.102854 -0.00532855 0)
(0.103051 -0.00536893 0)
(0.103254 -0.00540177 0)
(0.103465 -0.00542638 0)
(0.103682 -0.00544207 0)
(0.103905 -0.00544811 0)
(0.104134 -0.0054438 0)
(0.104368 -0.00542843 0)
(0.104607 -0.0054013 0)
(0.104849 -0.00536171 0)
(0.105096 -0.00530903 0)
(0.105344 -0.00524262 0)
(0.105595 -0.00516192 0)
(0.105846 -0.0050664 0)
(0.106097 -0.00495563 0)
(0.106346 -0.00482921 0)
(0.106593 -0.00468687 0)
(0.106836 -0.0045284 0)
(0.107074 -0.00435366 0)
(0.107305 -0.00416248 0)
(0.107529 -0.00395429 0)
(0.107748 -0.00372637 0)
(0.100954 -0.00458616 0)
(0.101069 -0.00467839 0)
(0.10119 -0.00476955 0)
(0.101318 -0.00485929 0)
(0.101454 -0.00494721 0)
(0.101596 -0.00503287 0)
(0.101746 -0.0051158 0)
(0.101903 -0.0051955 0)
(0.102068 -0.00527142 0)
(0.102241 -0.00534298 0)
(0.102422 -0.00540958 0)
(0.10261 -0.00547056 0)
(0.102807 -0.00552527 0)
(0.103011 -0.005573 0)
(0.103222 -0.00561301 0)
(0.103442 -0.00564458 0)
(0.103668 -0.00566692 0)
(0.103901 -0.00567925 0)
(0.104141 -0.00568079 0)
(0.104387 -0.00567075 0)
(0.104638 -0.00564834 0)
(0.104894 -0.0056128 0)
(0.105154 -0.00556339 0)
(0.105417 -0.00549939 0)
(0.105683 -0.00542015 0)
(0.10595 -0.00532506 0)
(0.106216 -0.0052136 0)
(0.106482 -0.00508532 0)
(0.106746 -0.00493984 0)
(0.107006 -0.00477692 0)
(0.10726 -0.00459635 0)
(0.107508 -0.00439786 0)
(0.107748 -0.00418074 0)
(0.107984 -0.00394166 0)
(0.100858 -0.00469831 0)
(0.100973 -0.00479716 0)
(0.101096 -0.00489518 0)
(0.101226 -0.00499201 0)
(0.101363 -0.00508724 0)
(0.101508 -0.00518041 0)
(0.101661 -0.00527105 0)
(0.101822 -0.00535861 0)
(0.101991 -0.00544253 0)
(0.102168 -0.0055222 0)
(0.102354 -0.00559695 0)
(0.102549 -0.00566613 0)
(0.102752 -0.00572898 0)
(0.102963 -0.00578478 0)
(0.103183 -0.00583272 0)
(0.103411 -0.005872 0)
(0.103647 -0.00590177 0)
(0.103891 -0.00592118 0)
(0.104142 -0.00592936 0)
(0.104401 -0.00592543 0)
(0.104665 -0.00590851 0)
(0.104935 -0.00587775 0)
(0.105209 -0.0058323 0)
(0.105488 -0.00577136 0)
(0.105769 -0.00569418 0)
(0.106053 -0.00560005 0)
(0.106337 -0.00548835 0)
(0.10662 -0.00535854 0)
(0.106902 -0.00521019 0)