/*--------------------------------*- C++ -*----------------------------------*\
| =========                 |                                                 |
| \\      /  F ield         | OpenFOAM: The Open Source CFD Toolbox           |
|  \\    /   O peration     | Version:  2412                                  |
|   \\  /    A nd           | Website:  www.openfoam.com                      |
|    \\/     M anipulation  |                                                 |
\*---------------------------------------------------------------------------*/
FoamFile
{
    version     2.0;
    format      ascii;
    arch        "LSB;label=32;scalar=64";
    class       volScalarField;
    location    "11";
    object      p;
}
// * * * * * * * * * * * * * * * * * * * * * * * * * * * * * * * * * * * * * //

dimensions      [0 2 -2 0 0 0 0];

internalField   nonuniform List<scalar> 
5285
(
-2.13685e-05
-2.04757e-05
-1.95953e-05
-1.87282e-05
-1.78759e-05
-1.704e-05
-1.62214e-05
-1.54213e-05
-1.46406e-05
-1.38802e-05
-1.31408e-05
-1.2423e-05
-1.17274e-05
-1.10544e-05
-1.04043e-05
-9.77747e-06
-9.17393e-06
-8.59382e-06
-8.03716e-06
-7.50386e-06
-6.99378e-06
-6.50672e-06
-6.04242e-06
-5.60058e-06
-5.18081e-06
-4.78267e-06
-4.40566e-06
-4.04927e-06
-3.71298e-06
-3.39625e-06
-3.09846e-06
-2.81897e-06
-2.55709e-06
-2.31217e-06
-2.08353e-06
-1.87049e-06
-1.67238e-06
-1.48849e-06
-1.3181e-06
-1.1605e-06
-1.01501e-06
-8.80942e-07
-7.57544e-07
-6.44378e-07
-5.4017e-07
-4.45723e-07
-3.57094e-07
-2.81114e-07
-2.00978e-07
-1.50412e-07
-5.83233e-08
-6.45662e-08
1.01791e-07
-6.11126e-08
3.46107e-07
-2.21062e-07
7.82936e-07
-6.47001e-07
1.49182e-06
-1.32512e-06
2.31317e-06
-1.87122e-06
2.62784e-06
-1.47222e-06
1.60538e-06
4.58268e-07
-7.78099e-07
3.14181e-06
-2.92599e-06
4.42713e-06
-2.68086e-06
-2.13647e-05
-2.04717e-05
-1.95912e-05
-1.8724e-05
-1.78716e-05
-1.70357e-05
-1.62171e-05
-1.5417e-05
-1.46364e-05
-1.38761e-05
-1.31368e-05
-1.24192e-05
-1.17237e-05
-1.10508e-05
-1.04009e-05
-9.77414e-06
-9.17076e-06
-8.5908e-06
-8.03429e-06
-7.50114e-06
-6.99121e-06
-6.5043e-06
-6.04015e-06
-5.59845e-06
-5.17882e-06
-4.7808e-06
-4.40392e-06
-4.04765e-06
-3.71148e-06
-3.39486e-06
-3.09718e-06
-2.81779e-06
-2.556e-06
-2.31117e-06
-2.08261e-06
-1.86966e-06
-1.67162e-06
-1.48779e-06
-1.31747e-06
-1.15993e-06
-1.01449e-06
-8.80476e-07
-7.57126e-07
-6.44002e-07
-5.39837e-07
-4.45426e-07
-3.56836e-07
-2.8088e-07
-2.00781e-07
-1.50228e-07
-5.81823e-08
-6.44088e-08
1.0186e-07
-6.09454e-08
3.46085e-07
-2.20856e-07
7.82812e-07
-6.4675e-07
1.49164e-06
-1.32493e-06
2.31309e-06
-1.87122e-06
2.628e-06
-1.4725e-06
1.60575e-06
4.57893e-07
-7.77758e-07
3.14163e-06
-2.92595e-06
4.42712e-06
-2.68246e-06
-2.13571e-05
-2.04637e-05
-1.95829e-05
-1.87155e-05
-1.78631e-05
-1.70271e-05
-1.62085e-05
-1.54085e-05
-1.46281e-05
-1.38679e-05
-1.31288e-05
-1.24114e-05
-1.17162e-05
-1.10436e-05
-1.03939e-05
-9.7675e-06
-9.16442e-06
-8.58476e-06
-8.02855e-06
-7.49571e-06
-6.98608e-06
-6.49946e-06
-6.0356e-06
-5.59418e-06
-5.17482e-06
-4.77707e-06
-4.40044e-06
-4.04442e-06
-3.70849e-06
-3.39209e-06
-3.09462e-06
-2.81542e-06
-2.55383e-06
-2.30917e-06
-2.08079e-06
-1.86799e-06
-1.6701e-06
-1.48641e-06
-1.31621e-06
-1.15879e-06
-1.01346e-06
-8.79547e-07
-7.56292e-07
-6.43254e-07
-5.39171e-07
-4.44834e-07
-3.56316e-07
-2.80416e-07
-2.00387e-07
-1.49857e-07
-5.79083e-08
-6.40878e-08
1.01994e-07
-6.06121e-08
3.46041e-07
-2.2044e-07
7.82565e-07
-6.46255e-07
1.49129e-06
-1.32453e-06
2.31291e-06
-1.87123e-06
2.62831e-06
-1.47306e-06
1.60649e-06
4.57143e-07
-7.77108e-07
3.14127e-06
-2.92585e-06
4.42706e-06
-2.68556e-06
-2.13457e-05
-2.04517e-05
-1.95705e-05
-1.87028e-05
-1.78502e-05
-1.70142e-05
-1.61957e-05
-1.53958e-05
-1.46156e-05
-1.38557e-05
-1.31169e-05
-1.23998e-05
-1.1705e-05
-1.10328e-05
-1.03835e-05
-9.75754e-06
-9.1549e-06
-8.57571e-06
-8.01995e-06
-7.48756e-06
-6.97838e-06
-6.49221e-06
-6.02879e-06
-5.58779e-06
-5.16883e-06
-4.77147e-06
-4.39522e-06
-4.03957e-06
-3.70399e-06
-3.38793e-06
-3.09077e-06
-2.81187e-06
-2.55056e-06
-2.30618e-06
-2.07805e-06
-1.86549e-06
-1.66782e-06
-1.48433e-06
-1.31432e-06
-1.15708e-06
-1.01192e-06
-8.78155e-07
-7.55043e-07
-6.42134e-07
-5.38173e-07
-4.43947e-07
-3.55536e-07
-2.79718e-07
-1.99796e-07
-1.493e-07
-5.74963e-08
-6.36061e-08
1.02199e-07
-6.0114e-08
3.4598e-07
-2.19826e-07
7.82205e-07
-6.4553e-07
1.49078e-06
-1.32395e-06
2.31268e-06
-1.87129e-06
2.62882e-06
-1.47394e-06
1.60763e-06
4.56011e-07
-7.76144e-07
3.14075e-06
-2.92572e-06
4.427e-06
-2.69002e-06
-2.13304e-05
-2.04357e-05
-1.95539e-05
-1.86858e-05
-1.78331e-05
-1.69969e-05
-1.61785e-05
-1.53788e-05
-1.45988e-05
-1.38393e-05
-1.31009e-05
-1.23843e-05
-1.169e-05
-1.10183e-05
-1.03697e-05
-9.74425e-06
-9.14222e-06
-8.56363e-06
-8.00848e-06
-7.47669e-06
-6.96812e-06
-6.48254e-06
-6.0197e-06
-5.57926e-06
-5.16085e-06
-4.76401e-06
-4.38827e-06
-4.03311e-06
-3.698e-06
-3.38238e-06
-3.08564e-06
-2.80714e-06
-2.54621e-06
-2.30219e-06
-2.0744e-06
-1.86215e-06
-1.66478e-06
-1.48156e-06
-1.31181e-06
-1.1548e-06
-1.00986e-06
-8.76303e-07
-7.5338e-07
-6.40644e-07
-5.36846e-07
-4.42764e-07
-3.54496e-07
-2.78786e-07
-1.99006e-07
-1.48556e-07
-5.69448e-08
-6.29668e-08
1.02478e-07
-5.94612e-08
3.45917e-07
-2.19039e-07
7.81773e-07
-6.44636e-07
1.49019e-06
-1.32332e-06
2.31252e-06
-1.87154e-06
2.62966e-06
-1.47526e-06
1.60923e-06
4.54489e-07
-7.74928e-07
3.1402e-06
-2.92571e-06
4.42707e-06
-2.69574e-06
-2.13112e-05
-2.04155e-05
-1.95331e-05
-1.86646e-05
-1.78116e-05
-1.69754e-05
-1.6157e-05
-1.53576e-05
-1.45779e-05
-1.38188e-05
-1.3081e-05
-1.23649e-05
-1.16712e-05
-1.10003e-05
-1.03523e-05
-9.72765e-06
-9.12637e-06
-8.54854e-06
-7.99415e-06
-7.46312e-06
-6.9553e-06
-6.47046e-06
-6.00834e-06
-5.56861e-06
-5.15087e-06
-4.75469e-06
-4.37958e-06
-4.02504e-06
-3.69052e-06
-3.37545e-06
-3.07924e-06
-2.80124e-06
-2.54078e-06
-2.29721e-06
-2.06983e-06
-1.85799e-06
-1.66098e-06
-1.4781e-06
-1.30867e-06
-1.15196e-06
-1.0073e-06
-8.7399e-07
-7.51304e-07
-6.38783e-07
-5.35188e-07
-4.41287e-07
-3.53197e-07
-2.77621e-07
-1.98019e-07
-1.47625e-07
-5.62559e-08
-6.21666e-08
1.02825e-07
-5.86425e-08
3.45834e-07
-2.1805e-07
7.81223e-07
-6.43508e-07
1.48944e-06
-1.3225e-06
2.3123e-06
-1.87182e-06
2.63069e-06
-1.47688e-06
1.61121e-06
4.52596e-07
-7.73394e-07
3.13946e-06
-2.92558e-06
4.42704e-06
-2.70218e-06
-2.1288e-05
-2.03913e-05
-1.9508e-05
-1.8639e-05
-1.77857e-05
-1.69494e-05
-1.61312e-05
-1.53321e-05
-1.45528e-05
-1.37942e-05
-1.3057e-05
-1.23417e-05
-1.16488e-05
-1.09786e-05
-1.03315e-05
-9.70773e-06
-9.10735e-06
-8.53043e-06
-7.97696e-06
-7.44684e-06
-6.93992e-06
-6.45597e-06
-5.99472e-06
-5.55583e-06
-5.13891e-06
-4.74352e-06
-4.36917e-06
-4.01536e-06
-3.68154e-06
-3.36714e-06
-3.07156e-06
-2.79416e-06
-2.53427e-06
-2.29123e-06
-2.06436e-06
-1.85299e-06
-1.65642e-06
-1.47396e-06
-1.30491e-06
-1.14855e-06
-1.00422e-06
-8.71218e-07
-7.48815e-07
-6.36552e-07
-5.33201e-07
-4.39514e-07
-3.5164e-07
-2.76221e-07
-1.96841e-07
-1.46498e-07
-5.5452e-08
-6.11644e-08
1.03167e-07
-5.75296e-08
3.45517e-07
-2.16521e-07
7.80041e-07
-6.41407e-07
1.48753e-06
-1.32023e-06
2.3105e-06
-1.87048e-06
2.63028e-06
-1.47748e-06
1.61277e-06
4.5039e-07
-7.70768e-07
3.13702e-06
-2.92329e-06
4.42474e-06
-2.70702e-06
-2.12602e-05
-2.03622e-05
-1.94779e-05
-1.86084e-05
-1.77547e-05
-1.69184e-05
-1.61004e-05
-1.53015e-05
-1.45228e-05
-1.37649e-05
-1.30284e-05
-1.23139e-05
-1.16219e-05
-1.09527e-05
-1.03067e-05
-9.68393e-06
-9.08463e-06
-8.50881e-06
-7.95643e-06
-7.4274e-06
-6.92155e-06
-6.43866e-06
-5.97845e-06
-5.54057e-06
-5.12462e-06
-4.73018e-06
-4.35674e-06
-4.0038e-06
-3.67082e-06
-3.35721e-06
-3.06239e-06
-2.7857e-06
-2.5265e-06
-2.2841e-06
-2.05783e-06
-1.84702e-06
-1.65098e-06
-1.46901e-06
-1.30041e-06
-1.14448e-06
-1.00055e-06
-8.67909e-07
-7.45845e-07
-6.3389e-07
-5.3083e-07
-4.37396e-07
-3.49783e-07
-2.74544e-07
-1.95443e-07
-1.45131e-07
-5.45302e-08
-5.98956e-08
1.03445e-07
-5.59743e-08
3.4476e-07
-2.14092e-07
7.7771e-07
-6.3757e-07
1.48342e-06
-1.3152e-06
2.30557e-06
-1.86586e-06
2.62685e-06
-1.47576e-06
1.61318e-06
4.47828e-07
-7.66154e-07
3.13121e-06
-2.91663e-06
4.4179e-06
-2.70814e-06
-2.12272e-05
-2.03277e-05
-1.94424e-05
-1.85721e-05
-1.77182e-05
-1.68818e-05
-1.6064e-05
-1.52655e-05
-1.44874e-05
-1.37302e-05
-1.29946e-05
-1.22812e-05
-1.15903e-05
-1.09222e-05
-1.02774e-05
-9.65593e-06
-9.05791e-06
-8.48337e-06
-7.93228e-06
-7.40453e-06
-6.89995e-06
-6.41831e-06
-5.95932e-06
-5.52262e-06
-5.10783e-06
-4.71449e-06
-4.34212e-06
-3.99021e-06
-3.65821e-06
-3.34555e-06
-3.05161e-06
-2.77577e-06
-2.51736e-06
-2.27571e-06
-2.05015e-06
-1.84001e-06
-1.64459e-06
-1.46319e-06
-1.29514e-06
-1.1397e-06
-9.9623e-07
-8.64021e-07
-7.42355e-07
-6.30762e-07
-5.28042e-07
-4.3491e-07
-3.47595e-07
-2.72583e-07
-1.93779e-07
-1.43562e-07
-5.3375e-08
-5.85327e-08
1.03997e-07
-5.45235e-08
3.44477e-07
-2.12172e-07
7.76342e-07
-6.34973e-07
1.48112e-06
-1.3124e-06
2.30337e-06
-1.86424e-06
2.62641e-06
-1.47662e-06
1.61534e-06
4.44728e-07
-7.62328e-07
3.12744e-06
-2.91271e-06
4.41388e-06
-2.71218e-06
-2.11895e-05
-2.02884e-05
-1.94019e-05
-1.8531e-05
-1.76767e-05
-1.68403e-05
-1.60227e-05
-1.52248e-05
-1.44473e-05
-1.3691e-05
-1.29565e-05
-1.22442e-05
-1.15545e-05
-1.08878e-05
-1.02443e-05
-9.62428e-06
-9.0277e-06
-8.45462e-06
-7.90499e-06
-7.3787e-06
-6.87555e-06
-6.39532e-06
-5.9377e-06
-5.50235e-06
-5.08886e-06
-4.69677e-06
-4.32562e-06
-3.97486e-06
-3.64398e-06
-3.33237e-06
-3.03944e-06
-2.76455e-06
-2.50704e-06
-2.26624e-06
-2.04148e-06
-1.83208e-06
-1.63736e-06
-1.45662e-06
-1.28917e-06
-1.13431e-06
-9.91358e-07
-8.59633e-07
-7.38414e-07
-6.27232e-07
-5.24895e-07
-4.32104e-07
-3.45122e-07
-2.70373e-07
-1.91889e-07
-1.41812e-07
-5.20307e-08
-5.70647e-08
1.04742e-07
-5.30836e-08
3.44468e-07
-2.1047e-07
7.7546e-07
-6.32941e-07
1.47967e-06
-1.31062e-06
2.30243e-06
-1.86397e-06
2.62736e-06
-1.47872e-06
1.61842e-06
4.41156e-07
-7.58506e-07
3.12414e-06
-2.90943e-06
4.41048e-06
-2.71671e-06
-2.11471e-05
-2.02442e-05
-1.93566e-05
-1.84848e-05
-1.76302e-05
-1.67938e-05
-1.59765e-05
-1.51792e-05
-1.44026e-05
-1.36473e-05
-1.29139e-05
-1.22028e-05
-1.15146e-05
-1.08494e-05
-1.02075e-05
-9.58898e-06
-8.99402e-06
-8.42257e-06
-7.87457e-06
-7.3499e-06
-6.84836e-06
-6.3697e-06
-5.91362e-06
-5.47976e-06
-5.06772e-06
-4.67703e-06
-4.30723e-06
-3.95777e-06
-3.62812e-06
-3.31769e-06
-3.02588e-06
-2.75205e-06
-2.49555e-06
-2.2557e-06
-2.03183e-06
-1.82326e-06
-1.62932e-06
-1.4493e-06
-1.28254e-06
-1.1283e-06
-9.85932e-07
-8.54745e-07
-7.34026e-07
-6.23301e-07
-5.21389e-07
-4.2898e-07
-3.42366e-07
-2.67914e-07
-1.89779e-07
-1.3987e-07
-5.05204e-08
-5.54501e-08
1.05603e-07
-5.15242e-08
3.44515e-07
-2.08641e-07
7.74541e-07
-6.30718e-07
1.47804e-06
-1.30854e-06
2.30117e-06
-1.86336e-06
2.62802e-06
-1.48069e-06
1.62161e-06
4.37174e-07
-7.53895e-07
3.11975e-06
-2.90463e-06
4.40546e-06
-2.71925e-06
-2.10998e-05
-2.01951e-05
-1.93061e-05
-1.84336e-05
-1.75786e-05
-1.67423e-05
-1.59254e-05
-1.51288e-05
-1.43531e-05
-1.35989e-05
-1.28668e-05
-1.21572e-05
-1.14705e-05
-1.08069e-05
-1.01667e-05
-9.55003e-06
-8.95686e-06
-8.38722e-06
-7.84103e-06
-7.31814e-06
-6.81837e-06
-6.34145e-06
-5.88706e-06
-5.45486e-06
-5.04441e-06
-4.65527e-06
-4.28696e-06
-3.93893e-06
-3.61064e-06
-3.30151e-06
-3.01094e-06
-2.73828e-06
-2.48288e-06
-2.24407e-06
-2.02118e-06
-1.81354e-06
-1.62046e-06
-1.44124e-06
-1.27522e-06
-1.12168e-06
-9.79953e-07
-8.49361e-07
-7.29191e-07
-6.1897e-07
-5.17527e-07
-4.25537e-07
-3.39328e-07
-2.65206e-07
-1.87452e-07
-1.37735e-07
-4.88467e-08
-5.36861e-08
1.06573e-07
-4.9835e-08
3.44601e-07
-2.06657e-07
7.73541e-07
-6.28243e-07
1.47614e-06
-1.30606e-06
2.29946e-06
-1.86227e-06
2.62826e-06
-1.48241e-06
1.62481e-06
4.32804e-07
-7.48433e-07
3.11411e-06
-2.89808e-06
4.39856e-06
-2.71916e-06
-2.10475e-05
-2.01408e-05
-1.92506e-05
-1.83773e-05
-1.7522e-05
-1.66858e-05
-1.58693e-05
-1.50735e-05
-1.42988e-05
-1.35459e-05
-1.28152e-05
-1.21073e-05
-1.14223e-05
-1.07605e-05
-1.01222e-05
-9.50744e-06
-8.91624e-06
-8.34857e-06
-7.80435e-06
-7.28343e-06
-6.7856e-06
-6.31058e-06
-5.85805e-06
-5.42765e-06
-5.01895e-06
-4.63151e-06
-4.26481e-06
-3.91834e-06
-3.59155e-06
-3.28385e-06
-2.99462e-06
-2.72324e-06
-2.46905e-06
-2.23138e-06
-2.00956e-06
-1.80292e-06
-1.61078e-06
-1.43244e-06
-1.26723e-06
-1.11445e-06
-9.73425e-07
-8.43482e-07
-7.23912e-07
-6.14242e-07
-5.13309e-07
-4.21779e-07
-3.3601e-07
-2.62251e-07
-1.84906e-07
-1.35411e-07
-4.70089e-08
-5.17763e-08
1.07658e-07
-4.80265e-08
3.4474e-07
-2.04546e-07
7.72502e-07
-6.25578e-07
1.47407e-06
-1.30328e-06
2.29745e-06
-1.86085e-06
2.62823e-06
-1.48398e-06
1.62809e-06
4.28037e-07
-7.42188e-07
3.10735e-06
-2.88992e-06
4.38991e-06
-2.71623e-06
-2.099e-05
-2.00814e-05
-1.91898e-05
-1.83157e-05
-1.74602e-05
-1.66241e-05
-1.58083e-05
-1.50133e-05
-1.42398e-05
-1.34883e-05
-1.27592e-05
-1.2053e-05
-1.13699e-05
-1.07101e-05
-1.00739e-05
-9.4612e-06
-8.87214e-06
-8.30663e-06
-7.76456e-06
-7.24578e-06
-6.75005e-06
-6.27709e-06
-5.82658e-06
-5.39814e-06
-4.99135e-06
-4.60573e-06
-4.2408e-06
-3.89603e-06
-3.57085e-06
-3.26469e-06
-2.97693e-06
-2.70694e-06
-2.45406e-06
-2.21762e-06
-1.99697e-06
-1.79141e-06
-1.60029e-06
-1.4229e-06
-1.25858e-06
-1.10661e-06
-9.66351e-07
-8.3711e-07
-7.18191e-07
-6.09117e-07
-5.08738e-07
-4.17707e-07
-3.32413e-07
-2.5905e-07
-1.82144e-07
-1.32897e-07
-4.50076e-08
-4.9722e-08
1.08857e-07
-4.61011e-08
3.44936e-07
-2.02315e-07
7.71433e-07
-6.22739e-07
1.47184e-06
-1.30023e-06
2.29516e-06
-1.85912e-06
2.62796e-06
-1.48546e-06
1.63149e-06
4.22867e-07
-7.35172e-07
3.09951e-06
-2.88015e-06
4.37951e-06
-2.71019e-06
-2.09272e-05
-2.00166e-05
-1.91236e-05
-1.82488e-05
-1.73931e-05
-1.65573e-05
-1.57421e-05
-1.49481e-05
-1.41759e-05
-1.34259e-05
-1.26987e-05
-1.19943e-05
-1.13133e-05
-1.06557e-05
-1.00217e-05
-9.41132e-06
-8.82457e-06
-8.26139e-06
-7.72166e-06
-7.20518e-06
-6.71172e-06
-6.241e-06
-5.79266e-06
-5.36634e-06
-4.9616e-06
-4.57796e-06
-4.21494e-06
-3.87199e-06
-3.54856e-06
-3.24405e-06
-2.95787e-06
-2.68937e-06
-2.4379e-06
-2.2028e-06
-1.9834e-06
-1.77902e-06
-1.58899e-06
-1.41262e-06
-1.24925e-06
-1.09817e-06
-9.58732e-07
-8.30249e-07
-7.1203e-07
-6.03599e-07
-5.03815e-07
-4.13321e-07
-3.28539e-07
-2.55604e-07
-1.79167e-07
-1.30195e-07
-4.2844e-08
-4.75235e-08
1.10169e-07
-4.40581e-08
3.45187e-07
-1.9996e-07
7.7033e-07
-6.19721e-07
1.46945e-06
-1.29692e-06
2.29259e-06
-1.8571e-06
2.62745e-06
-1.48684e-06
1.635e-06
4.17293e-07
-7.27378e-07
3.09056e-06
-2.86873e-06
4.36731e-06
-2.70076e-06
-2.08589e-05
-1.99463e-05
-1.9052e-05
-1.81765e-05
-1.73207e-05
-1.64852e-05
-1.56708e-05
-1.4878e-05
-1.41072e-05
-1.33589e-05
-1.26336e-05
-1.19314e-05
-1.12525e-05
-1.05973e-05
-9.9657e-06
-9.35779e-06
-8.77354e-06
-8.21288e-06
-7.67564e-06
-7.16164e-06
-6.67063e-06
-6.2023e-06
-5.75631e-06
-5.33226e-06
-4.92971e-06
-4.5482e-06
-4.18722e-06
-3.84622e-06
-3.52466e-06
-3.22194e-06
-2.93746e-06
-2.67056e-06
-2.4206e-06
-2.18693e-06
-1.96886e-06
-1.76574e-06
-1.57689e-06
-1.40162e-06
-1.23927e-06
-1.08913e-06
-9.50572e-07
-8.229e-07
-7.05432e-07
-5.97689e-07
-4.98542e-07
-4.08625e-07
-3.24389e-07
-2.51915e-07
-1.75977e-07
-1.27305e-07
-4.05194e-08
-4.51812e-08
1.11593e-07
-4.18971e-08
3.45491e-07
-1.9748e-07
7.69189e-07
-6.1652e-07
1.46689e-06
-1.29333e-06
2.28973e-06
-1.85477e-06
2.62668e-06
-1.48811e-06
1.63862e-06
4.11316e-07
-7.18808e-07
3.0805e-06
-2.85562e-06
4.35327e-06
-2.68776e-06
-2.0785e-05
-1.98703e-05
-1.89748e-05
-1.80987e-05
-1.72428e-05
-1.64079e-05
-1.55943e-05
-1.48028e-05
-1.40336e-05
-1.32872e-05
-1.25639e-05
-1.1864e-05
-1.11876e-05
-1.05349e-05
-9.90587e-06
-9.30062e-06
-8.71906e-06
-8.16108e-06
-7.62653e-06
-7.11518e-06
-6.62679e-06
-6.16102e-06
-5.71752e-06
-5.2959e-06
-4.89571e-06
-4.51646e-06
-4.15766e-06
-3.81875e-06
-3.49919e-06
-3.19837e-06
-2.91569e-06
-2.6505e-06
-2.40216e-06
-2.17e-06
-1.95337e-06
-1.75158e-06
-1.56398e-06
-1.38988e-06
-1.22862e-06
-1.0795e-06
-9.41874e-07
-8.15068e-07
-6.98399e-07
-5.9139e-07
-4.92923e-07
-4.0362e-07
-3.19965e-07
-2.47984e-07
-1.72573e-07
-1.24229e-07
-3.8035e-08
-4.26957e-08
1.13127e-07
-3.96179e-08
3.45844e-07
-1.94873e-07
7.68006e-07
-6.13132e-07
1.46415e-06
-1.28946e-06
2.28658e-06
-1.85214e-06
2.62567e-06
-1.48928e-06
1.64234e-06
4.04938e-07
-7.09464e-07
3.06934e-06
-2.84081e-06
4.33738e-06
-2.67106e-06
-2.07052e-05
-1.97886e-05
-1.88919e-05
-1.80153e-05
-1.71595e-05
-1.63251e-05
-1.55126e-05
-1.47225e-05
-1.39551e-05
-1.32108e-05
-1.24897e-05
-1.17923e-05
-1.11184e-05
-1.04684e-05
-9.84222e-06
-9.2398e-06
-8.66111e-06
-8.10601e-06
-7.57432e-06
-7.06581e-06
-6.58019e-06
-6.11715e-06
-5.67632e-06
-5.25728e-06
-4.85958e-06
-4.48275e-06
-4.12626e-06
-3.78958e-06
-3.47214e-06
-3.17334e-06
-2.89257e-06
-2.6292e-06
-2.38257e-06
-2.15203e-06
-1.93692e-06
-1.73656e-06
-1.55029e-06
-1.37743e-06
-1.21732e-06
-1.06927e-06
-9.32642e-07
-8.06755e-07
-6.90934e-07
-5.84705e-07
-4.86958e-07
-3.98308e-07
-3.15269e-07
-2.43813e-07
-1.68959e-07
-1.20967e-07
-3.53922e-08
-4.00676e-08
1.1477e-07
-3.72203e-08
3.46246e-07
-1.92139e-07
7.6678e-07
-6.09557e-07
1.46124e-06
-1.2853e-06
2.28313e-06
-1.84919e-06
2.62441e-06
-1.49034e-06
1.64616e-06
3.98161e-07
-6.99357e-07
3.05708e-06
-2.8243e-06
4.31962e-06
-2.6506e-06
-2.06194e-05
-1.97009e-05
-1.88031e-05
-1.79261e-05
-1.70705e-05
-1.62369e-05
-1.54256e-05
-1.46371e-05
-1.38717e-05
-1.31295e-05
-1.2411e-05
-1.17161e-05
-1.10451e-05
-1.0398e-05
-9.77474e-06
-9.17535e-06
-8.59972e-06
-8.04767e-06
-7.51902e-06
-7.01352e-06
-6.53086e-06
-6.07072e-06
-5.6327e-06
-5.2164e-06
-4.82136e-06
-4.44708e-06
-4.09305e-06
-3.75871e-06
-3.44352e-06
-3.14685e-06
-2.86812e-06
-2.60667e-06
-2.36186e-06
-2.13303e-06
-1.91952e-06
-1.72067e-06
-1.5358e-06
-1.36426e-06
-1.20537e-06
-1.05846e-06
-9.22879e-07
-7.97964e-07
-6.8304e-07
-5.77636e-07
-4.80651e-07
-3.92691e-07
-3.10302e-07
-2.39403e-07
-1.65136e-07
-1.17522e-07
-3.25925e-08
-3.72977e-08
1.1652e-07
-3.47044e-08
3.46694e-07
-1.89276e-07
7.65506e-07
-6.05791e-07
1.45814e-06
-1.28086e-06
2.27939e-06
-1.84593e-06
2.62289e-06
-1.4913e-06
1.65007e-06
3.9099e-07
-6.88497e-07
3.04375e-06
-2.8061e-06
4.30002e-06
-2.62636e-06
-2.05274e-05
-1.96071e-05
-1.87084e-05
-1.78311e-05
-1.69759e-05
-1.61432e-05
-1.53333e-05
-1.45466e-05
-1.37832e-05
-1.30435e-05
-1.23276e-05
-1.16356e-05
-1.09675e-05
-1.03235e-05
-9.70343e-06
-9.10727e-06
-8.53488e-06
-7.98608e-06
-7.46065e-06
-6.95833e-06
-6.4788e-06
-6.02172e-06
-5.58669e-06
-5.17328e-06
-4.78104e-06
-4.40945e-06
-4.05802e-06
-3.72617e-06
-3.41334e-06
-3.11893e-06
-2.84234e-06
-2.58292e-06
-2.34002e-06
-2.113e-06
-1.90118e-06
-1.70391e-06
-1.52054e-06
-1.35037e-06
-1.19278e-06
-1.04706e-06
-9.1259e-07
-7.88699e-07
-6.74721e-07
-5.70186e-07
-4.74004e-07
-3.86772e-07
-3.05068e-07
-2.34756e-07
-1.61105e-07
-1.13894e-07
-2.96372e-08
-3.43866e-08
1.18375e-07
-3.207e-08
3.47186e-07
-1.86282e-07
7.64183e-07
-6.01832e-07
1.45486e-06
-1.27613e-06
2.27534e-06
-1.84236e-06
2.62111e-06
-1.49216e-06
1.65408e-06
3.83431e-07
-6.76901e-07
3.02936e-06
-2.78623e-06
4.27858e-06
-2.59836e-06
-2.0429e-05
-1.95071e-05
-1.86075e-05
-1.77302e-05
-1.68755e-05
-1.60439e-05
-1.52356e-05
-1.44508e-05
-1.36898e-05
-1.29526e-05
-1.22396e-05
-1.15506e-05
-1.08857e-05
-1.0245e-05
-9.6283e-06
-9.03555e-06
-8.4666e-06
-7.92123e-06
-7.39921e-06
-6.90025e-06
-6.42403e-06
-5.97017e-06
-5.53829e-06
-5.12793e-06
-4.73864e-06
-4.36989e-06
-4.02118e-06
-3.69195e-06
-3.38162e-06
-3.08958e-06
-2.81524e-06
-2.55795e-06
-2.31707e-06
-2.09194e-06
-1.88191e-06
-1.68631e-06
-1.50449e-06
-1.33578e-06
-1.17954e-06
-1.03508e-06
-9.01778e-07
-7.78963e-07
-6.6598e-07
-5.62358e-07
-4.67019e-07
-3.80553e-07
-2.99569e-07
-2.29875e-07
-1.56869e-07
-1.10084e-07
-2.6528e-08
-3.13352e-08
1.20335e-07
-2.93171e-08
3.47721e-07
-1.83158e-07
7.62807e-07
-5.97678e-07
1.4514e-06
-1.27111e-06
2.27099e-06
-1.83848e-06
2.61908e-06
-1.49291e-06
1.65818e-06
3.75491e-07
-6.64587e-07
3.01394e-06
-2.76473e-06
4.25534e-06
-2.56667e-06
-2.0324e-05
-1.94007e-05
-1.85004e-05
-1.76232e-05
-1.67692e-05
-1.59389e-05
-1.51323e-05
-1.43497e-05
-1.35912e-05
-1.28569e-05
-1.21469e-05
-1.14612e-05
-1.07997e-05
-1.01625e-05
-9.54934e-06
-8.96021e-06
-8.39489e-06
-7.85314e-06
-7.33471e-06
-6.8393e-06
-6.36655e-06
-5.91609e-06
-5.48751e-06
-5.08036e-06
-4.69417e-06
-4.32841e-06
-3.98256e-06
-3.65607e-06
-3.34835e-06
-3.05881e-06
-2.78684e-06
-2.53178e-06
-2.29301e-06
-2.06987e-06
-1.8617e-06
-1.66786e-06
-1.48768e-06
-1.3205e-06
-1.16568e-06
-1.02253e-06
-8.90449e-07
-7.68762e-07
-6.5682e-07
-5.54156e-07
-4.59701e-07
-3.74036e-07
-2.93806e-07
-2.24761e-07
-1.52429e-07
-1.06096e-07
-2.32665e-08
-2.81443e-08
1.22397e-07
-2.64456e-08
3.48295e-07
-1.79901e-07
7.61374e-07
-5.93326e-07
1.44774e-06
-1.2658e-06
2.26632e-06
-1.83429e-06
2.61679e-06
-1.49356e-06
1.66236e-06
3.67177e-07
-6.51575e-07
2.99752e-06
-2.74162e-06
4.23035e-06
-2.53136e-06
-2.02122e-05
-1.92876e-05
-1.83869e-05
-1.751e-05
-1.6657e-05
-1.58281e-05
-1.50236e-05
-1.42434e-05
-1.34876e-05
-1.27564e-05
-1.20496e-05
-1.13673e-05
-1.07094e-05
-1.00759e-05
-9.46657e-06
-8.88125e-06
-8.31976e-06
-7.78182e-06
-7.26717e-06
-6.77547e-06
-6.30638e-06
-5.85949e-06
-5.43438e-06
-5.03059e-06
-4.64764e-06
-4.28501e-06
-3.94217e-06
-3.61854e-06
-3.31357e-06
-3.02663e-06
-2.75713e-06
-2.50442e-06
-2.26786e-06
-2.04679e-06
-1.84058e-06
-1.64857e-06
-1.4701e-06
-1.30451e-06
-1.15118e-06
-1.00941e-06
-8.78606e-07
-7.58099e-07
-6.47246e-07
-5.45583e-07
-4.52051e-07
-3.67225e-07
-2.87782e-07
-2.19416e-07
-1.47787e-07
-1.01928e-07
-1.98545e-08
-2.4815e-08
1.2456e-07
-2.34556e-08
3.48907e-07
-1.76509e-07
7.59881e-07
-5.88773e-07
1.44388e-06
-1.26019e-06
2.26135e-06
-1.82978e-06
2.61423e-06
-1.49411e-06
1.66662e-06
3.58498e-07
-6.3789e-07
2.98013e-06
-2.71696e-06
4.20365e-06
-2.49254e-06
-2.00935e-05
-1.91678e-05
-1.82669e-05
-1.73905e-05
-1.65387e-05
-1.57116e-05
-1.49093e-05
-1.41317e-05
-1.33789e-05
-1.26509e-05
-1.19476e-05
-1.1269e-05
-1.0615e-05
-9.98534e-06
-9.37998e-06
-8.79868e-06
-8.24121e-06
-7.70728e-06
-7.19659e-06
-6.7088e-06
-6.24353e-06
-5.80037e-06
-5.3789e-06
-4.97863e-06
-4.59907e-06
-4.23971e-06
-3.9e-06
-3.57938e-06
-3.27727e-06
-2.99306e-06
-2.72614e-06
-2.47587e-06
-2.24161e-06
-2.02272e-06
-1.81855e-06
-1.62844e-06
-1.45176e-06
-1.28784e-06
-1.13606e-06
-9.95726e-07
-8.66254e-07
-7.46978e-07
-6.37261e-07
-5.36642e-07
-4.44074e-07
-3.60123e-07
-2.81499e-07
-2.13843e-07
-1.42945e-07
-9.75847e-08
-1.62936e-08
-2.1348e-08
1.26822e-07
-2.03471e-08
3.49554e-07
-1.72983e-07
7.58324e-07
-5.84016e-07
1.43982e-06
-1.25428e-06
2.25605e-06
-1.82495e-06
2.61142e-06
-1.49455e-06
1.67096e-06
3.49464e-07
-6.2356e-07
2.96181e-06
-2.69081e-06
4.17531e-06
-2.45033e-06
-1.99675e-05
-1.90411e-05
-1.81403e-05
-1.72647e-05
-1.64143e-05
-1.55892e-05
-1.47893e-05
-1.40146e-05
-1.3265e-05
-1.25405e-05
-1.18409e-05
-1.11662e-05
-1.05162e-05
-9.89074e-06
-9.28958e-06
-8.71251e-06
-8.15926e-06
-7.62953e-06
-7.123e-06
-6.63929e-06
-6.17802e-06
-5.73877e-06
-5.32108e-06
-4.92449e-06
-4.54848e-06
-4.19253e-06
-3.85609e-06
-3.5386e-06
-3.23947e-06
-2.9581e-06
-2.69387e-06
-2.44614e-06
-2.21429e-06
-1.99766e-06
-1.79561e-06
-1.6075e-06
-1.43268e-06
-1.27049e-06
-1.12032e-06
-9.81483e-07
-8.53399e-07
-7.35403e-07
-6.26869e-07
-5.27337e-07
-4.35772e-07
-3.52732e-07
-2.74961e-07
-2.08044e-07
-1.37906e-07
-9.30663e-08
-1.25858e-08
-1.77445e-08
1.2918e-07
-1.71201e-08
3.50234e-07
-1.69319e-07
7.56701e-07
-5.79052e-07
1.43556e-06
-1.24806e-06
2.25044e-06
-1.81981e-06
2.60834e-06
-1.49489e-06
1.67536e-06
3.40086e-07
-6.08613e-07
2.94261e-06
-2.66324e-06
4.14539e-06
-2.40484e-06
-1.98342e-05
-1.89073e-05
-1.80069e-05
-1.71323e-05
-1.62836e-05
-1.54608e-05
-1.46636e-05
-1.3892e-05
-1.31459e-05
-1.24251e-05
-1.17296e-05
-1.1059e-05
-1.04132e-05
-9.79212e-06
-9.19537e-06
-8.62274e-06
-8.07392e-06
-7.54859e-06
-7.04639e-06
-6.56695e-06
-6.10986e-06
-5.67468e-06
-5.26095e-06
-4.86819e-06
-4.49587e-06
-4.14347e-06
-3.81044e-06
-3.49621e-06
-3.20018e-06
-2.92176e-06
-2.66033e-06
-2.41525e-06
-2.1859e-06
-1.97162e-06
-1.77178e-06
-1.58574e-06
-1.41285e-06
-1.25246e-06
-1.10397e-06
-9.66689e-07
-8.40045e-07
-7.23381e-07
-6.16074e-07
-5.17671e-07
-4.27148e-07
-3.45055e-07
-2.68171e-07
-2.02021e-07
-1.32671e-07
-8.83749e-08
-8.73293e-09
-1.40056e-08
1.31634e-07
-1.37747e-08
3.50944e-07
-1.65517e-07
7.55006e-07
-5.73878e-07
1.43109e-06
-1.24154e-06
2.2445e-06
-1.81435e-06
2.605e-06
-1.49513e-06
1.67982e-06
3.30377e-07
-5.93082e-07
2.92257e-06
-2.63431e-06
4.11398e-06
-2.35621e-06
-1.96933e-05
-1.87663e-05
-1.78665e-05
-1.69934e-05
-1.61467e-05
-1.53263e-05
-1.45322e-05
-1.3764e-05
-1.30216e-05
-1.23048e-05
-1.16135e-05
-1.09473e-05
-1.0306e-05
-9.68948e-06
-9.09737e-06
-8.52938e-06
-7.98519e-06
-7.46446e-06
-6.9668e-06
-6.49181e-06
-6.03907e-06
-5.60814e-06
-5.19853e-06
-4.80974e-06
-4.44127e-06
-4.09256e-06
-3.76307e-06
-3.45222e-06
-3.15942e-06
-2.88407e-06
-2.62554e-06
-2.38321e-06
-2.15645e-06
-1.94462e-06
-1.74707e-06
-1.56317e-06
-1.39229e-06
-1.23377e-06
-1.08701e-06
-9.51348e-07
-8.26199e-07
-7.10915e-07
-6.04882e-07
-5.0765e-07
-4.18207e-07
-3.37095e-07
-2.6113e-07
-1.95777e-07
-1.27243e-07
-8.35124e-08
-4.73703e-09
-1.01324e-08
1.3418e-07
-1.03111e-08
3.51681e-07
-1.61576e-07
7.53237e-07
-5.68492e-07
1.4264e-06
-1.23471e-06
2.23824e-06
-1.80858e-06
2.60138e-06
-1.49526e-06
1.68433e-06
3.20348e-07
-5.77002e-07
2.90173e-06
-2.6041e-06
4.08116e-06
-2.30457e-06
-1.95447e-05
-1.86179e-05
-1.77191e-05
-1.68477e-05
-1.60033e-05
-1.51858e-05
-1.4395e-05
-1.36304e-05
-1.28921e-05
-1.21795e-05
-1.14926e-05
-1.08311e-05
-1.01946e-05
-9.58283e-06
-8.99557e-06
-8.43244e-06
-7.8931e-06
-7.37716e-06
-6.88422e-06
-6.41387e-06
-5.96567e-06
-5.53915e-06
-5.13381e-06
-4.74917e-06
-4.38469e-06
-4.03982e-06
-3.714e-06
-3.40666e-06
-3.1172e-06
-2.84502e-06
-2.58951e-06
-2.35003e-06
-2.12596e-06
-1.91665e-06
-1.72148e-06
-1.53981e-06
-1.371e-06
-1.21442e-06
-1.06946e-06
-9.35467e-07
-8.11866e-07
-6.98011e-07
-5.93297e-07
-4.97277e-07
-4.08952e-07
-3.28856e-07
-2.53842e-07
-1.89315e-07
-1.21625e-07
-7.84807e-08
-6.00109e-10
-6.12608e-09
1.36818e-07
-6.72926e-09
3.52443e-07
-1.57493e-07
7.51389e-07
-5.62889e-07
1.42148e-06
-1.22757e-06
2.23164e-06
-1.80248e-06
2.5975e-06
-1.4953e-06
1.68889e-06
3.10013e-07
-5.60411e-07
2.88014e-06
-2.57271e-06
4.04702e-06
-2.25007e-06
-1.93881e-05
-1.84619e-05
-1.75645e-05
-1.66952e-05
-1.58534e-05
-1.50391e-05
-1.42519e-05
-1.34913e-05
-1.27572e-05
-1.20492e-05
-1.1367e-05
-1.07104e-05
-1.00788e-05
-9.47217e-06
-8.88999e-06
-8.33195e-06
-7.79765e-06
-7.28671e-06
-6.79869e-06
-6.33317e-06
-5.88967e-06
-5.46773e-06
-5.06684e-06
-4.68649e-06
-4.32614e-06
-3.98525e-06
-3.66324e-06
-3.35953e-06
-3.07354e-06
-2.80465e-06
-2.55225e-06
-2.31572e-06
-2.09443e-06
-1.88774e-06
-1.69503e-06
-1.51565e-06
-1.34899e-06
-1.19442e-06
-1.05132e-06
-9.19052e-07
-7.97052e-07
-6.84673e-07
-5.81322e-07
-4.86556e-07
-3.99387e-07
-3.20342e-07
-2.4631e-07
-1.82637e-07
-1.15818e-07
-7.32818e-08
3.67571e-09
-1.98793e-09
1.39544e-07
-3.02949e-09
3.53227e-07
-1.53268e-07
7.49458e-07
-5.57068e-07
1.41635e-06
-1.22011e-06
2.22471e-06
-1.79607e-06
2.59335e-06
-1.49524e-06
1.69348e-06
2.99386e-07
-5.43349e-07
2.85787e-06
-2.54022e-06
4.01167e-06
-2.19285e-06
-1.92234e-05
-1.82983e-05
-1.74027e-05
-1.65357e-05
-1.5697e-05
-1.48862e-05
-1.41029e-05
-1.33466e-05
-1.26171e-05
-1.19139e-05
-1.12367e-05
-1.05852e-05
-9.95889e-06
-9.35751e-06
-8.78064e-06
-8.2279e-06
-7.69887e-06
-7.19312e-06
-6.71022e-06
-6.2497e-06
-5.8111e-06
-5.39391e-06
-4.99762e-06
-4.62172e-06
-4.26566e-06
-3.92887e-06
-3.6108e-06
-3.31086e-06
-3.02844e-06
-2.76296e-06
-2.51378e-06
-2.2803e-06
-2.06188e-06
-1.8579e-06
-1.66772e-06
-1.49072e-06
-1.32628e-06
-1.17377e-06
-1.0326e-06
-9.0211e-07
-7.81762e-07
-6.70909e-07
-5.68965e-07
-4.75492e-07
-3.89515e-07
-3.11555e-07
-2.38538e-07
-1.75746e-07
-1.09826e-07
-6.79177e-08
8.08824e-09
2.28076e-09
1.42357e-07
7.8805e-10
3.5403e-07
-1.48899e-07
7.47439e-07
-5.51023e-07
1.41098e-06
-1.21232e-06
2.21743e-06
-1.78934e-06
2.58893e-06
-1.49508e-06
1.6981e-06
2.88483e-07
-5.25857e-07
2.83497e-06
-2.50674e-06
3.97521e-06
-2.13307e-06
-1.90504e-05
-1.81268e-05
-1.72334e-05
-1.63693e-05
-1.55339e-05
-1.4727e-05
-1.39479e-05
-1.31963e-05
-1.24716e-05
-1.17735e-05
-1.11016e-05
-1.04555e-05
-9.8347e-06
-9.23886e-06
-8.66754e-06
-8.12032e-06
-7.59677e-06
-7.09642e-06
-6.61883e-06
-6.16351e-06
-5.72996e-06
-5.3177e-06
-4.92618e-06
-4.55488e-06
-4.20325e-06
-3.87072e-06
-3.55671e-06
-3.26065e-06
-2.98193e-06
-2.71996e-06
-2.47411e-06
-2.24378e-06
-2.02832e-06
-1.82713e-06
-1.63956e-06
-1.46502e-06
-1.30286e-06
-1.15249e-06
-1.0133e-06
-8.84647e-07
-7.66004e-07
-6.56722e-07
-5.56228e-07
-4.64089e-07
-3.79342e-07
-3.025e-07
-2.30528e-07
-1.68645e-07
-1.0365e-07
-6.23906e-08
1.26352e-08
6.6786e-09
1.45255e-07
4.7231e-09
3.5485e-07
-1.44384e-07
7.4533e-07
-5.44753e-07
1.40537e-06
-1.20422e-06
2.20981e-06
-1.78228e-06
2.58423e-06
-1.49482e-06
1.70274e-06
2.77318e-07
-5.07982e-07
2.8115e-06
-2.47238e-06
3.93777e-06
-2.07089e-06
-1.8869e-05
-1.79474e-05
-1.70566e-05
-1.61957e-05
-1.53641e-05
-1.45614e-05
-1.3787e-05
-1.30402e-05
-1.23208e-05
-1.16281e-05
-1.09618e-05
-1.03213e-05
-9.70629e-06
-9.11622e-06
-8.55069e-06
-8.00922e-06
-7.49136e-06
-6.99662e-06
-6.52454e-06
-6.0746e-06
-5.6463e-06
-5.23912e-06
-4.85254e-06
-4.48599e-06
-4.13893e-06
-3.81079e-06
-3.50099e-06
-3.20893e-06
-2.93403e-06
-2.67568e-06
-2.43326e-06
-2.20616e-06
-1.99377e-06
-1.79544e-06
-1.61058e-06
-1.43856e-06
-1.27876e-06
-1.13058e-06
-9.93432e-07
-8.66671e-07
-7.49783e-07
-6.4212e-07
-5.43118e-07
-4.52352e-07
-3.68871e-07
-2.93181e-07
-2.22283e-07
-1.61336e-07
-9.72945e-08
-5.67027e-08
1.73144e-08
1.12042e-08
1.48234e-07
8.77539e-09
3.55683e-07
-1.39723e-07
7.43125e-07
-5.38253e-07
1.39952e-06
-1.19578e-06
2.20185e-06
-1.77491e-06
2.57926e-06
-1.49446e-06
1.7074e-06
2.65907e-07
-4.89769e-07
2.78752e-06
-2.43725e-06
3.89947e-06
-2.00647e-06
-1.8679e-05
-1.77598e-05
-1.68721e-05
-1.6015e-05
-1.51876e-05
-1.43895e-05
-1.362e-05
-1.28785e-05
-1.21646e-05
-1.14777e-05
-1.08172e-05
-1.01827e-05