/*--------------------------------*- C++ -*----------------------------------*\
| =========                 |                                                 |
| \\      /  F ield         | OpenFOAM: The Open Source CFD Toolbox           |
|  \\    /   O peration     | Version:  2412                                  |
|   \\  /    A nd           | Website:  www.openfoam.com                      |
|    \\/     M anipulation  |                                                 |
\*---------------------------------------------------------------------------*/
FoamFile
{
    version     2.0;
    format      ascii;
    arch        "LSB;label=32;scalar=64";
    class       volScalarField;
    location    "21.5";
    object      p;
}
// * * * * * * * * * * * * * * * * * * * * * * * * * * * * * * * * * * * * * //

dimensions      [0 2 -2 0 0 0 0];

internalField   nonuniform List<scalar> 
5285
(
0.000933212
0.000933472
0.000934299
0.000935574
0.000937283
0.000939412
0.000941943
0.000944864
0.000948163
0.000951829
0.000955855
0.000960232
0.000964953
0.000970012
0.000975403
0.00098112
0.000987161
0.000993522
0.0010002
0.0010072
0.00101452
0.00102216
0.00103012
0.0010384
0.00104702
0.00105596
0.00106523
0.00107484
0.00108479
0.00109508
0.00110571
0.00111669
0.00112801
0.0011397
0.00115173
0.00116413
0.00117689
0.00119002
0.00120352
0.0012174
0.00123166
0.0012463
0.00126132
0.00127674
0.00129256
0.00130877
0.00132539
0.00134242
0.00135986
0.00137772
0.001396
0.00141471
0.00143385
0.00145343
0.00147345
0.000933153
0.000933412
0.000934238
0.000935513
0.00093722
0.000939348
0.000941877
0.000944796
0.000948092
0.000951756
0.000955778
0.000960152
0.000964869
0.000969924
0.000975311
0.000981024
0.000987059
0.000993414
0.00100009
0.00100708
0.00101439
0.00102202
0.00102998
0.00103825
0.00104686
0.00105579
0.00106506
0.00107465
0.00108459
0.00109487
0.00110549
0.00111645
0.00112776
0.00113943
0.00115145
0.00116383
0.00117658
0.00118969
0.00120317
0.00121702
0.00123126
0.00124587
0.00126087
0.00127626
0.00129205
0.00130823
0.00132482
0.00134181
0.00135922
0.00137704
0.00139528
0.00141394
0.00143304
0.00145256
0.00147253
0.000933033
0.000933292
0.000934117
0.00093539
0.000937095
0.000939219
0.000941745
0.000944659
0.000947951
0.000951609
0.000955625
0.000959992
0.000964702
0.000969749
0.000975127
0.00098083
0.000986855
0.0009932
0.000999862
0.00100684
0.00101414
0.00102176
0.00102969
0.00103796
0.00104654
0.00105546
0.0010647
0.00107428
0.00108419
0.00109445
0.00110504
0.00111598
0.00112726
0.0011389
0.00115089
0.00116324
0.00117594
0.00118901
0.00120245
0.00121627
0.00123045
0.00124502
0.00125997
0.00127531
0.00129103
0.00130716
0.00132368
0.0013406
0.00135793
0.00137568
0.00139383
0.00141241
0.00143141
0.00145084
0.00147071
0.000932854
0.000933113
0.000933935
0.000935206
0.000936907
0.000939027
0.000941547
0.000944455
0.000947739
0.000951389
0.000955396
0.000959753
0.000964452
0.000969486
0.000974851
0.00098054
0.00098655
0.000992878
0.000999523
0.00100648
0.00101376
0.00102136
0.00102927
0.00103751
0.00104607
0.00105496
0.00106417
0.00107372
0.0010836
0.00109382
0.00110437
0.00111527
0.00112651
0.0011381
0.00115004
0.00116234
0.00117499
0.00118801
0.00120139
0.00121513
0.00122925
0.00124375
0.00125862
0.00127387
0.00128952
0.00130555
0.00132197
0.00133879
0.00135602
0.00137364
0.00139168
0.00141013
0.00142899
0.00144828
0.00146798
0.000932615
0.000932873
0.000933693
0.00093496
0.000936657
0.00093877
0.000941283
0.000944183
0.000947457
0.000951096
0.000955091
0.000959434
0.000964118
0.000969137
0.000974484
0.000980154
0.000986144
0.00099245
0.000999072
0.00100601
0.00101326
0.00102083
0.00102871
0.00103692
0.00104544
0.00105429
0.00106347
0.00107297
0.00108281
0.00109298
0.00110348
0.00111433
0.00112551
0.00113704
0.00114892
0.00116115
0.00117373
0.00118667
0.00119997
0.00121363
0.00122766
0.00124206
0.00125683
0.00127197
0.0012875
0.00130341
0.00131971
0.00133639
0.00135347
0.00137095
0.00138882
0.0014071
0.00142578
0.00144487
0.00146437
0.000932316
0.000932574
0.000933391
0.000934653
0.000936344
0.00093845
0.000940954
0.000943843
0.000947105
0.00095073
0.00095471
0.000959036
0.000963702
0.0009687
0.000974026
0.000979673
0.000985637
0.000991916
0.000998508
0.00100541
0.00101263
0.00102016
0.00102801
0.00103617
0.00104466
0.00105346
0.00106259
0.00107204
0.00108182
0.00109193
0.00110238
0.00111315
0.00112427
0.00113572
0.00114752
0.00115967
0.00117216
0.001185
0.0011982
0.00121176
0.00122567
0.00123995
0.00125459
0.00126961
0.00128499
0.00130075
0.00131689
0.00133341
0.00135031
0.0013676
0.00138527
0.00140334
0.00142179
0.00144064
0.00145988
0.000931959
0.000932216
0.000933029
0.000934286
0.00093597
0.000938066
0.000940559
0.000943435
0.000946683
0.000950292
0.000954253
0.000958559
0.000963203
0.000968178
0.000973477
0.000979096
0.00098503
0.000991277
0.000997834
0.0010047
0.00101188
0.00101937
0.00102717
0.00103529
0.00104372
0.00105247
0.00106154
0.00107093
0.00108064
0.00109068
0.00110105
0.00111175
0.00112278
0.00113415
0.00114585
0.00115789
0.00117028
0.00118301
0.00119609
0.00120952
0.0012233
0.00123744
0.00125193
0.00126678
0.001282
0.00129758
0.00131353
0.00132985
0.00134654
0.0013636
0.00138104
0.00139885
0.00141705
0.00143561
0.00145455
0.00149397
0.00151521
0.00153736
0.00156048
0.00158461
0.00160982
0.00163617
0.00166374
0.0016926
0.00172283
0.00175452
0.00178778
0.00182269
0.00185938
0.00189797
0.00193859
0.00149303
0.00151428
0.00153642
0.00155953
0.00158366
0.00160887
0.00163522
0.00166278
0.00169164
0.00172187
0.00175355
0.0017868
0.0018217
0.00185838
0.00189695
0.00193756
0.00149115
0.00151239
0.00153454
0.00155764
0.00158177
0.00160697
0.00163331
0.00166087
0.00168971
0.00171993
0.00175161
0.00178483
0.00181972
0.00185637
0.00189492
0.00193548
0.00148834
0.00150958
0.00153171
0.00155481
0.00157892
0.00160411
0.00163044
0.00165799
0.00168682
0.00171701
0.00174867
0.00178187
0.00181672
0.00185333
0.00189182
0.00193233
0.00148461
0.00150584
0.00152797
0.00155106
0.00157516
0.00160034
0.00162666
0.00165419
0.00168301
0.00171319
0.00174482
0.001778
0.00181281
0.00184938
0.00188782
0.00192825
0.00147998
0.00150121
0.00152335
0.00154645
0.00157057
0.00159577
0.00162211
0.00164967
0.00167852
0.00170873
0.0017404
0.00177361
0.00180846
0.00184506
0.00188352
0.00192398
0.00147444
0.0014956
0.00151768
0.00154073
0.0015648
0.00158995
0.00161625
0.00164376
0.00167256
0.00170273
0.00173434
0.0017675
0.0018023
0.00183885
0.00187726
0.00191764
0.00146784
0.00148864
0.00151032
0.00153294
0.00155655
0.00158119
0.00160693
0.00163382
0.00166194
0.00169135
0.00172213
0.00175436
0.00178812
0.00182351
0.00186061
0.00189953
0.00146012
0.00148047
0.00150167
0.00152377
0.0015468
0.00157083
0.00159589
0.00162206
0.00164938
0.00167792
0.00170775
0.00173893
0.00177155
0.00180567
0.00184139
0.00187878
0.00145149
0.00147132
0.00149195
0.00151343
0.00153579
0.00155909
0.00158337
0.00160868
0.00163506
0.00166259
0.00169131
0.00172128
0.00175257
0.00178523
0.00181935
0.00185497
0.00144202
0.00146127
0.00148128
0.00150209
0.00152373
0.00154625
0.00156967
0.00159406
0.00161944
0.00164587
0.00167339
0.00170206
0.00173192
0.00176302
0.00179541
0.00182915
0.00143174
0.00145038
0.00146973
0.00148983
0.0015107
0.00153238
0.0015549
0.0015783
0.00160262
0.00162789
0.00165416
0.00168145
0.0017098
0.00173926
0.00176986
0.00180162
0.00142071
0.00143869
0.00145734
0.00147668
0.00149674
0.00151754
0.00153911
0.00156148
0.00158468
0.00160874
0.00163368
0.00165954
0.00168633
0.00171409
0.00174282
0.00177254
0.00140896
0.00142626
0.00144418
0.00146272
0.00148193
0.0015018
0.00152238
0.00154368
0.00156572
0.00158852
0.00161209
0.00163647
0.00166165
0.00168765
0.00171447
0.00174211
0.00139654
0.00141314
0.00143029
0.00144801
0.00146633
0.00148525
0.0015048
0.00152499
0.00154583
0.00156734
0.00158951
0.00161237
0.0016359
0.00166011
0.00168499
0.00171052
0.00138352
0.00139937
0.00141573
0.00143261
0.00145002
0.00146796
0.00148646
0.00150551
0.00152513
0.00154531
0.00156606
0.00158738
0.00160925
0.00163165
0.00165458
0.00167798
0.00136993
0.00138503
0.00140058
0.00141659
0.00143306
0.00145001
0.00146743
0.00148533
0.00150371
0.00152256
0.00154187
0.00156163
0.00158182
0.00160242
0.00162339
0.00164469
0.00135583
0.00137015
0.00138488
0.00140001
0.00141554
0.00143147
0.00144781
0.00146455
0.00148167
0.00149918
0.00151704
0.00153525
0.00155378
0.00157258
0.00159161
0.00161082
0.00134127
0.00135481
0.0013687
0.00138294
0.00139751
0.00141243
0.00142767
0.00144324
0.00145912
0.00147528
0.00149171
0.00150838
0.00152524
0.00154227
0.0015594
0.00157656
0.0013263
0.00133905
0.0013521
0.00136544
0.00137906
0.00139295
0.00140711
0.00142151
0.00143614
0.00145097
0.00146597
0.00148112
0.00149635
0.00151163
0.00152689
0.00154206
0.00131097
0.00132293
0.00133514
0.00134758
0.00136024
0.00137311
0.00138618
0.00139943
0.00141282
0.00142634
0.00143994
0.00145359
0.00146723
0.0014808
0.00149425
0.00150748
0.00129533
0.0013065
0.00131786
0.00132941
0.00134112
0.00135299
0.00136498
0.00137708
0.00138926
0.00140149
0.00141371
0.0014259
0.00143798
0.00144991
0.00146159
0.00147296
0.00127943
0.00128981
0.00130034
0.001311
0.00132177
0.00133264
0.00134358
0.00135455
0.00136554
0.0013765
0.00138739
0.00139815
0.00140872
0.00141905
0.00142904
0.00143862
0.00126332
0.00127292
0.00128262
0.0012924
0.00130225
0.00131213
0.00132203
0.00133191
0.00134173
0.00135146
0.00136104
0.00137043
0.00137955
0.00138834
0.00139671
0.00140458
0.00124704
0.00125586
0.00126475
0.00127367
0.0012826
0.00129153
0.00130041
0.00130922
0.00131791
0.00132645
0.00133477
0.00134283
0.00135055
0.00135787
0.00136469
0.00137093
0.00123063
0.00123869
0.00124678
0.00125485
0.0012629
0.00127089
0.00127878
0.00128655
0.00129415
0.00130153
0.00130864
0.00131542
0.0013218
0.00132772
0.00133307
0.00133778
0.00121413
0.00122145
0.00122875
0.001236
0.00124318
0.00125026
0.00125719
0.00126395
0.00127049
0.00127676
0.00128271
0.00128828
0.00129339
0.00129797
0.00130194
0.00130519
0.00119759
0.00120418
0.00121071
0.00121716
0.0012235
0.00122969
0.0012357
0.00124149
0.00124701
0.00125222
0.00125706
0.00126146
0.00126536
0.00126868
0.00127134
0.00127324
0.00118103
0.00118691
0.0011927
0.00119837
0.0012039
0.00120923
0.00121435
0.00121921
0.00122376
0.00122795
0.00123173
0.00123503
0.00123778
0.00123992
0.00124135
0.00124198
0.0011645
0.00116969
0.00117476
0.00117968
0.00118441
0.00118893
0.00119319
0.00119715
0.00120077
0.00120399
0.00120677
0.00120903
0.00121071
0.00121173
0.00121201
0.00121146
0.00114802
0.00115255
0.00115692
0.00116111
0.00116508
0.00116881
0.00117225
0.00117536
0.00117809
0.0011804
0.00118222
0.0011835
0.00118416
0.00118414
0.00118335
0.00118171
0.00113163
0.00113551
0.00113921
0.0011427
0.00114595
0.00114892
0.00115157
0.00115387
0.00115576
0.0011572
0.00115813
0.00115848
0.0011582
0.0011572
0.00115542
0.00115277
0.00111536
0.00111861
0.00112166
0.00112448
0.00112703
0.00112928
0.00113119
0.00113272
0.00113381
0.00113443
0.00113451
0.001134
0.00113284
0.00113094
0.00112824
0.00112465
0.00109921
0.00110187
0.0011043
0.00110648
0.00110836
0.00110992
0.00111113
0.00111192
0.00111227
0.00111211
0.00111141
0.00111009
0.0011081
0.00110537
0.00110182
0.00109738
0.00108324
0.00108532
0.00108715
0.00108871
0.00108997
0.00109088
0.00109141
0.00109151
0.00109115
0.00109028
0.00108883
0.00108676
0.00108401
0.00108051
0.00107619
0.00107097
0.00106744
0.00106897
0.00107024
0.00107121
0.00107187
0.00107216
0.00107205
0.00107151
0.00107049
0.00106894
0.0010668
0.00106404
0.00106058
0.00105637
0.00105134
0.00104541
0.00105184
0.00105284
0.00105357
0.00105399
0.00105408
0.00105378
0.00105308
0.00105193
0.00105029
0.0010481
0.00104533
0.00104192
0.00103782
0.00103296
0.00102728
0.00102071
0.000931532
0.000931788
0.000932597
0.000933848
0.000935523
0.000937608
0.000940089
0.00094295
0.00094618
0.000949769
0.000953709
0.000957991
0.000962608
0.000967554
0.000972823
0.000978408
0.000984306
0.000990514
0.000997031
0.00100385
0.00101098
0.00101842
0.00102617
0.00103423
0.0010426
0.00105128
0.00106028
0.0010696
0.00107924
0.00108919
0.00109947
0.00111008
0.00112101
0.00113227
0.00114386
0.00115579
0.00116805
0.00118064
0.00119358
0.00120686
0.00122048
0.00123445
0.00124877
0.00126343
0.00127845
0.00129382
0.00130955
0.00132563
0.00134207
0.00135887
0.00137603
0.00139355
0.00141143
0.00142967
0.00144827
0.000931031
0.000931286
0.00093209
0.000933333
0.000934998
0.000937071
0.000939536
0.000942379
0.000945589
0.000949156
0.00095307
0.000957324
0.000961911
0.000966823
0.000972055
0.000977601
0.000983457
0.00098962
0.000996088
0.00100286
0.00100994
0.00101731
0.001025
0.00103299
0.00104129
0.0010499
0.00105882
0.00106805
0.00107759
0.00108745
0.00109763
0.00110812
0.00111894
0.00113007
0.00114153
0.00115332
0.00116543
0.00117787
0.00119065
0.00120375
0.00121719
0.00123096
0.00124507
0.00125952
0.00127431
0.00128943
0.0013049
0.00132071
0.00133686
0.00135336
0.0013702
0.00138738
0.0014049
0.00142277
0.00144097
0.000930466
0.00093072
0.000931518
0.000932753
0.000934406
0.000936465
0.000938913
0.000941736
0.000944923
0.000948464
0.00095235
0.000956572
0.000961124
0.000965999
0.00097119
0.000976692
0.000982501
0.000988613
0.000995026
0.00100174
0.00100875
0.00101607
0.00102368
0.0010316
0.00103981
0.00104834
0.00105716
0.0010663
0.00107574
0.00108549
0.00109555
0.00110592
0.00111661
0.00112761
0.00113892
0.00115055
0.0011625
0.00117477
0.00118736
0.00120026
0.0012135
0.00122705
0.00124093
0.00125513
0.00126966
0.00128452
0.0012997
0.00131521
0.00133104
0.0013472
0.00136368
0.00138048
0.00139761
0.00141506
0.00143283
0.000929838
0.00093009
0.000930881
0.000932107
0.000933748
0.000935791
0.00093822
0.000941021
0.000944183
0.000947695
0.000951549
0.000955737
0.00096025
0.000965083
0.000970229
0.000975682
0.000981438
0.000987494
0.000993847
0.0010005
0.00100744
0.00101468
0.00102222
0.00103005
0.00103818
0.00104661
0.00105533
0.00106436
0.00107369
0.00108332
0.00109325
0.00110349
0.00111403
0.00112487
0.00113603
0.00114749
0.00115925
0.00117133
0.00118371
0.00119641
0.00120941
0.00122273
0.00123636
0.00125029
0.00126454
0.0012791
0.00129396
0.00130914
0.00132462
0.00134041
0.0013565
0.0013729
0.00138959
0.00140659
0.00142388
0.000929146
0.000929396
0.000930181
0.000931397
0.000933024
0.000935049
0.000937457
0.000940234
0.000943368
0.000946849
0.000950669
0.000954818
0.000959289
0.000964076
0.000969172
0.000974572
0.000980271
0.000986265
0.000992552
0.00099913
0.001006
0.00101316
0.00102061
0.00102835
0.00103638
0.00104471
0.00105332
0.00106223
0.00107144
0.00108093
0.00109073
0.00110082
0.0011112
0.00112188
0.00113286
0.00114413
0.0011557
0.00116757
0.00117973
0.0011922
0.00120496
0.00121801
0.00123136
0.00124501
0.00125895
0.00127318
0.00128771
0.00130252
0.00131763
0.00133302
0.00134869
0.00136465
0.00138088
0.00139738
0.00141416
0.000928392
0.00092864
0.000929417
0.000930622
0.000932234
0.000934241
0.000936626
0.000939376
0.00094248
0.000945928
0.000949709
0.000953817
0.000958242
0.00096298
0.000968022
0.000973364
0.000979
0.000984927
0.000991142
0.000997644
0.00100443
0.0010115
0.00101886
0.0010265
0.00103443
0.00104264
0.00105114
0.00105992
0.00106899
0.00107835
0.00108799
0.00109792
0.00110813
0.00111863
0.00112942
0.00114049
0.00115185
0.0011635
0.00117542
0.00118764
0.00120013
0.00121291
0.00122596
0.0012393
0.00125291
0.0012668
0.00128096
0.00129539
0.00131009
0.00132506
0.00134028
0.00135576
0.0013715
0.00138749
0.00140371
0.000927576
0.000927821
0.000928591
0.000929784
0.000931379
0.000933366
0.000935727
0.000938449
0.00094152
0.000944931
0.000948672
0.000952734
0.000957111
0.000961794
0.000966779
0.000972058
0.000977627
0.000983481
0.000989619
0.000996038
0.00100274
0.00100972
0.00101697
0.00102451
0.00103232
0.00104041
0.00104878
0.00105743
0.00106636
0.00107556
0.00108504
0.0010948
0.00110483
0.00111514
0.00112573
0.00113658
0.00114772
0.00115912
0.00117079
0.00118274
0.00119495
0.00120743
0.00122017
0.00123318
0.00124644
0.00125996
0.00127374
0.00128776
0.00130203
0.00131655
0.0013313
0.00134629
0.0013615
0.00137693
0.00139259
0.000926699
0.000926941
0.000927703
0.000928882
0.000930461
0.000932425
0.00093476
0.000937452
0.000940488
0.00094386
0.000947557
0.000951571
0.000955895
0.000960522
0.000965444
0.000970656
0.000976153
0.000981931
0.000987986
0.000994317
0.00100092
0.0010078
0.00101495
0.00102237
0.00103006
0.00103803
0.00104626
0.00105476
0.00106354
0.00107258
0.00108189
0.00109146
0.0011013
0.00111141
0.00112178
0.00113241
0.0011433
0.00115445
0.00116586
0.00117752
0.00118943
0.0012016
0.00121401
0.00122667
0.00123956
0.0012527
0.00126607
0.00127966
0.00129348
0.00130752
0.00132178
0.00133624
0.00135091
0.00136577
0.00138082
0.000925761
0.000926
0.000926753
0.000927919
0.000929478
0.00093142
0.000933727
0.000936386
0.000939386
0.000942716
0.000946366
0.00095033
0.000954598
0.000959163
0.000964019
0.00096916
0.00097458
0.000980276
0.000986244
0.000992481
0.000998985
0.00100576
0.00101279
0.00102009
0.00102766
0.00103549
0.00104358
0.00105193
0.00106054
0.00106941
0.00107853
0.00108792
0.00109755
0.00110745
0.00111759
0.00112798
0.00113862
0.0011495
0.00116062
0.00117199
0.00118359
0.00119543
0.00120749
0.00121978
0.00123229
0.00124502
0.00125797
0.00127112
0.00128447
0.00129802
0.00131175
0.00132568
0.00133978
0.00135404
0.00136847
0.000924763
0.000924999
0.000925742
0.000926894
0.000928434
0.00093035
0.000932628
0.000935253
0.000938213
0.000941499
0.000945101
0.00094901
0.000953219
0.00095772
0.000962506
0.000967571
0.000972911
0.00097852
0.000984394
0.000990532
0.000996932
0.00100359
0.00101051
0.00101768
0.00102511
0.00103279
0.00104073
0.00104892
0.00105736
0.00106605
0.00107499
0.00108417
0.00109359
0.00110326
0.00111316
0.0011233
0.00113367
0.00114428
0.00115511
0.00116616
0.00117744
0.00118893
0.00120063
0.00121254
0.00122465
0.00123696
0.00124946
0.00126215
0.00127502
0.00128805
0.00130126
0.00131462
0.00132813
0.00134179
0.00135557
0.000923705
0.000923939
0.000924672
0.000925808
0.000927327
0.000929218
0.000931464
0.000934053
0.000936972
0.000940211
0.000943761
0.000947614
0.00095176
0.000956193
0.000960906
0.000965892
0.000971146
0.000976664
0.000982441
0.000988475
0.000994763
0.0010013
0.00100809
0.00101513
0.00102242
0.00102996
0.00103773
0.00104576
0.00105402
0.00106252
0.00107125
0.00108022
0.00108943
0.00109886
0.00110851
0.00111839
0.00112849
0.0011388
0.00114932
0.00116005
0.00117099
0.00118212
0.00119345
0.00120497
0.00121666
0.00122854
0.00124058
0.00125279
0.00126516
0.00127767
0.00129033
0.00130311
0.00131602
0.00132905
0.00134218
0.000922589
0.000922819
0.000923542
0.000924662
0.00092616
0.000928023
0.000930237
0.000932787
0.000935663
0.000938854
0.00094235
0.000946142
0.000950223
0.000954585
0.00095922
0.000964124
0.000969289
0.00097471
0.000980385
0.00098631
0.000992482
0.000998898
0.00100556
0.00101246
0.0010196
0.00102698
0.00103459
0.00104243
0.00105051
0.00105881
0.00106734
0.00107609
0.00108506
0.00109425
0.00110364
0.00111325
0.00112306
0.00113307
0.00114328
0.00115368
0.00116426
0.00117503
0.00118597
0.00119708
0.00120835
0.00121978
0.00123135
0.00124307
0.00125492
0.0012669
0.00127899
0.00129119
0.00130349
0.00131588
0.00132834
0.000921416
0.000921642
0.000922354
0.000923457
0.000924932
0.000926767
0.000928947
0.000931457
0.000934288
0.000937427
0.000940866
0.000944596
0.000948609
0.000952896
0.000957452
0.000962268
0.00096734
0.000972662
0.00097823
0.000984041
0.000990091
0.000996379
0.0010029
0.00100966
0.00101664
0.00102386
0.0010313
0.00103896
0.00104684
0.00105494
0.00106325
0.00107178
0.00108051
0.00108944
0.00109857
0.0011079
0.00111741
0.00112711
0.00113699
0.00114705
0.00115727
0.00116766
0.0011782
0.00118889
0.00119973
0.0012107
0.0012218
0.00123302
0.00124434
0.00125577
0.00126729
0.0012789
0.00129057
0.00130231
0.0013141
0.000920185
0.000920408
0.000921109
0.000922194
0.000923645
0.000925451
0.000927594
0.000930064
0.000932847
0.000935933
0.000939313
0.000942978
0.00094692
0.00095113
0.000955601
0.000960327
0.000965302
0.00097052
0.000975977
0.00098167
0.000987594
0.000993748
0.00100013
0.00100673
0.00101356
0.0010206
0.00102787
0.00103534
0.00104302
0.00105091
0.001059
0.00106729
0.00107577
0.00108444
0.0010933
0.00110234
0.00111155
0.00112093
0.00113048
0.00114018
0.00115003
0.00116003
0.00117017
0.00118044
0.00119083
0.00120133
0.00121194
0.00122265
0.00123345
0.00124432
0.00125526
0.00126626
0.00127731
0.00128839
0.0012995
0.000918899
0.000919118
0.000919807
0.000920874
0.0009223
0.000924075
0.000926182
0.000928608
0.000931342
0.000934373
0.000937692
0.000941289
0.000945157
0.000949287
0.000953671
0.000958304
0.000963178
0.000968288
0.00097363
0.0009792
0.000984994
0.00099101
0.000997243
0.00100369
0.00101035
0.00101722
0.0010243
0.00103158
0.00103906
0.00104673
0.00105459
0.00106264
0.00107086
0.00107927
0.00108784
0.00109659
0.00110549
0.00111454
0.00112374
0.00113309
0.00114257
0.00115217
0.00116189
0.00117173
0.00118167
0.0011917
0.00120181
0.00121201
0.00122227
0.00123258
0.00124294
0.00125333
0.00126374
0.00127417
0.00128459
0.000917558
0.000917773
0.00091845
0.000919497
0.000920898
0.000922641
0.000924709
0.000927091
0.000929774
0.000932748
0.000936003
0.000939531
0.000943322
0.000947368
0.000951663
0.000956199
0.000960969
0.000965968
0.000971192
0.000976635
0.000982294
0.000988167
0.000994249
0.00100054
0.00100703
0.00101372
0.00102061
0.00102768
0.00103495
0.0010424
0.00105003
0.00105783
0.00106579
0.00107392
0.00108221
0.00109065
0.00109924
0.00110796
0.00111681
0.00112579
0.00113488
0.00114409
0.00115339
0.00116279
0.00117227
0.00118182
0.00119144
0.00120111
0.00121083
0.00122058
0.00123035
0.00124013
0.00124991
0.00125968
0.00126942
0.000916162
0.000916374
0.000917038
0.000918066
0.00091944
0.00092115
0.000923179
0.000925514
0.000928144
0.000931059
0.000934249
0.000937704
0.000941416
0.000945377
0.000949579
0.000954015
0.000958678
0.000963563
0.000968664
0.000973977
0.000979498
0.000985223
0.000991149
0.000997273
0.00100359
0.0010101
0.00101679
0.00102366
0.00103071
0.00103793
0.00104532
0.00105287
0.00106057
0.00106842
0.00107641
0.00108455
0.00109281
0.00110119
0.00110969
0.0011183
0.001127
0.0011358
0.00114468
0.00115363
0.00116265
0.00117172
0.00118084
0.00118999
0.00119916
0.00120835
0.00121753
0.00122671
0.00123586
0.00124497
0.00125403
0.000914714
0.000914922
0.000915572
0.00091658
0.000917927
0.000919603
0.00092159
0.000923878
0.000926455
0.000929309
0.000932431
0.000935812
0.000939443
0.000943315
0.000947422
0.000951755
0.000956308
0.000961074
0.00096605
0.000971229
0.000976608
0.000982182
0.000987949
0.000993903
0.00100004
0.00100636
0.00101285
0.00101952
0.00102634
0.00103333
0.00104047
0.00104776
0.0010552
0.00106276
0.00107046
0.00107828
0.00108621
0.00109426
0.0011024
0.00111063
0.00111894
0.00112733
0.00113578
0.00114429
0.00115284
0.00116143
0.00117005
0.00117867
0.0011873
0.00119592
0.00120452
0.00121309
0.00122161
0.00123007
0.00123847
0.000913214
0.000913417
0.000914055
0.000915042
0.000916361
0.000918001
0.000919946
0.000922185
0.000924706
0.000927497
0.00093055
0.000933854
0.000937402
0.000941184
0.000945193
0.00094942
0.00095386
0.000958506
0.000963352
0.000968394
0.000973627
0.000979048
0.000984651
0.000990432
0.000996388
0.00100251
0.0010088
0.00101525
0.00102186
0.00102861
0.0010355
0.00104253
0.00104969
0.00105697
0.00106436
0.00107187
0.00107947
0.00108716
0.00109494
0.0011028
0.00111071
0.00111869
0.00112672
0.00113478
0.00114286
0.00115097
0.00115908
0.00116718
0.00117527
0.00118333
0.00119135
0.00119931
0.00120721
0.00121503
0.00122276
0.000911663
0.000911862
0.000912485
0.000913451
0.000914741
0.000916345
0.000918248
0.000920436
0.0009229
0.000925627
0.000928608
0.000931834
0.000935296
0.000938986
0.000942894
0.000947014
0.000951338
0.00095586
0.000960574
0.000965476
0.000970561
0.000975823
0.00098126
0.000986865
0.000992635
0.000998565
0.00100465
0.00101088
0.00101726
0.00102377
0.00103041
0.00103717
0.00104405
0.00105104
0.00105813
0.00106531
0.00107258
0.00107993
0.00108734
0.00109482
0.00110234
0.0011099
0.0011175
0.00112511
0.00113273
0.00114036
0.00114797
0.00115555
0.0011631
0.0011706
0.00117804
0.00118541
0.0011927
0.00119988
0.00120696
0.000910063
0.000910257
0.000910866
0.00091181
0.00091307
0.000914637
0.000916495
0.000918633
0.000921037
0.000923699
0.000926607
0.000929753
0.000933128
0.000936722
0.000940528
0.000944537
0.000948743
0.000953139
0.000957719
0.000962478
0.000967411
0.000972513
0.00097778
0.000983206
0.000988787
0.000994518
0.00100039
0.0010064
0.00101255
0.00101881
0.0010252
0.0010317
0.0010383
0.00104499
0.00105177
0.00105864
0.00106557
0.00107256
0.00107961
0.0010867
0.00109383
0.00110098
0.00110815
0.00111531
0.00112247
0.00112961
0.00113673
0.0011438
0.00115081
0.00115776
0.00116464
0.00117142
0.0011781
0.00118466
0.00119109
0.000908413
0.000908603
0.000909198
0.000910119
0.000911349
0.000912878
0.000914691
0.000916776
0.00091912
0.000921715
0.000924549
0.000927613
0.000930898
0.000934395
0.000938096
0.000941993
0.000946079
0.000950346
0.000954789
0.000959403
0.000964181
0.00096912
0.000974215
0.000979459
0.000984849
0.000990377
0.000996039
0.00100183
0.00100774
0.00101376
0.00101989
0.00102611
0.00103243
0.00103883
0.0010453
0.00105184
0.00105844
0.00106508
0.00107176
0.00107848
0.0010852
0.00109194
0.00109868
0.0011054
0.0011121
0.00111877
0.00112539
0.00113194
0.00113843
0.00114484
0.00115115
0.00115736
0.00116344
0.0011694
0.0011752
0.000906717
0.000906901
0.000907482
0.000908379
0.000909579
0.000911069
0.000912836
0.000914867
0.00091715
0.000919676
0.000922434
0.000925415
0.000928609
0.000932008
0.000935602
0.000939385
0.000943348
0.000947484
0.000951788
0.000956254
0.000960876
0.00096565
0.000970569
0.00097563
0.000980825
0.00098615
0.000991597
0.00099716
0.00100283
0.00100861
0.00101447
0.00102043
0.00102646
0.00103256
0.00103873
0.00104494
0.0010512
0.00105749
0.00106381
0.00107014
0.00107648
0.0010828
0.00108912
0.0010954
0.00110164
0.00110783
0.00111396
0.00112002
0.00112599
0.00113186
0.00113762
0.00114326
0.00114877
0.00115412
0.00115932
0.000904974
0.000905154
0.000905719
0.000906593
0.000907761
0.000909212
0.000910932
0.000912908
0.000915129
0.000917585
0.000920266
0.000923161
0.000926263
0.000929561
0.000933048
0.000936714
0.000940552
0.000944556
0.000948719
0.000953035
0.000957498
0.000962104
0.000966847
0.000971721
0.000976721
0.000981839
0.00098707
0.000992406
0.000997841
0.00100337
0.00100897
0.00101465
0.0010204
0.00102621
0.00103206
0.00103795
0.00104387
0.00104982
0.00105577
0.00106172
0.00106766
0.00107358
0.00107947
0.00108532
0.00109111
0.00109684
0.00110248
0.00110805
0.0011135
0.00111885
0.00112407
0.00112916
0.00113409
0.00113887
0.00114347
0.000903185
0.000903361
0.00090391
0.000904761
0.000905897
0.000907308
0.000908979
0.0009109
0.000913058
0.000915443
0.000918045
0.000920854
0.000923862
0.000927058
0.000930435
0.000933983
0.000937695
0.000941564
0.000945584
0.000949749
0.000954052
0.000958488
0.000963053
0.000967739
0.000972541
0.000977452
0.000982465
0.000987573
0.000992768
0.000998042
0.00100339
0.0010088
0.00101426
0.00101976
0.00102531
0.00103088
0.00103646
0.00104205
0.00104764
0.00105322
0.00105877
0.00106429
0.00106976
0.00107518
0.00108052
0.00108579
0.00109097
0.00109604
0.001101
0.00110583
0.00111053
0.00111507
0.00111945
0.00112366
0.00112769
0.000901353
0.000901524
0.000902058
0.000902884
0.000903987
0.000905357
0.00090698
0.000908844
0.000910938
0.000913251
0.000915773
0.000918495
0.000921407
0.0009245
0.000927765
0.000931194
0.000934779
0.000938512
0.000942388
0.000946399
0.00095054
0.000954806
0.00095919
0.000963687
0.00096829
0.000972992
0.000977786
0.000982665
0.00098762
0.000992643
0.000997727
0.00100286
0.00100804
0.00101325
0.00101848
0.00102373
0.00102898
0.00103423
0.00103945
0.00104466
0.00104982
0.00105494
0.00106
0.00106499
0.0010699
0.00107472
0.00107943
0.00108402
0.00108849
0.00109282
0.00109701
0.00110102
0.00110487
0.00110853
0.001112
0.000899479
0.000899644
0.000900162
0.000900964
0.000902034
0.000903363
0.000904936
0.000906743
0.000908771
0.000911011
0.000913453
0.000916086
0.000918901
0.00092189
0.000925042
0.000928351
0.000931806
0.000935402
0.000939132
0.000942989
0.000946967
0.000951061
0.000955264
0.00095957
0.000963973
0.000968466
0.00097304
0.000977689
0.000982404
0.000987176
0.000991998
0.000996859
0.00100175
0.00100666
0.00101159
0.00101652
0.00102144
0.00102634
0.00103121
0.00103605
0.00104083
0.00104555
0.00105021
0.00105478
0.00105926
0.00106363
0.00106789
0.00107202
0.00107601
0.00107985
0.00108353
0.00108704
0.00109036
0.0010935
0.00109642
0.000897563
0.000897723
0.000898225
0.000899002
0.000900039
0.000901325
0.000902849
0.000904597
0.000906559
0.000908725
0.000911085
0.000913629
0.000916346
0.000919229
0.000922268
0.000925454
0.00092878
0.000932238
0.00093582
0.000939522
0.000943336
0.000947257
0.000951278
0.000955393
0.000959596
0.000963878
0.000968233
0.000972651
0.000977126
0.000981647
0.000986207
0.000990796
0.000995405
0.00100002
0.00100464
0.00100925
0.00101384
0.0010184
0.00102292
0.00102739
0.0010318
0.00103614
0.00104039
0.00104456
0.00104861
0.00105255
0.00105636
0.00106004
0.00106357
0.00106693
0.00107013
0.00107314
0.00107596
0.00107858
0.00108098
0.000895607
0.000895762
0.000896248
0.000896999
0.000898002
0.000899246
0.000900719
0.000902409
0.000904304
0.000906395
0.000908672
0.000911125
0.000913745
0.000916521
0.000919445
0.000922509
0.000925703
0.000929021
0.000932456
0.000936001
0.00093965
0.000943397
0.000947236
0.00095116
0.000955161
0.000959233
0.000963368
0.000967557
0.000971792
0.000976063
0.000980363
0.000984681
0.000989008
0.000993334
0.00099765
0.00100195
0.00100621
0.00101043
0.00101461
0.00101872
0.00102276
0.00102671
0.00103058
0.00103433
0.00103798
0.00104149
0.00104487
0.0010481
0.00105118
0.00105408
0.00105681
0.00105934
0.00106168
0.0010638
0.00106571
0.000904023
0.000906217
0.000908578
0.000911098
0.000913767
0.000916576
0.000919516
0.000922578
0.000925756
0.000929042
0.00093243
0.000935914
0.000939486
0.000943142
0.000946874
0.000950674
0.000954536
0.000958451
0.000962411
0.000966407
0.00097043
0.00097447