/*--------------------------------*- C++ -*----------------------------------*\
| =========                 |                                                 |
| \\      /  F ield         | OpenFOAM: The Open Source CFD Toolbox           |
|  \\    /   O peration     | Version:  2412                                  |
|   \\  /    A nd           | Website:  www.openfoam.com                      |
|    \\/     M anipulation  |                                                 |
\*---------------------------------------------------------------------------*/
FoamFile
{
    version     2.0;
    format      ascii;
    arch        "LSB;label=32;scalar=64";
    class       volVectorField;
    location    "21.5";
    object      U;
}
// * * * * * * * * * * * * * * * * * * * * * * * * * * * * * * * * * * * * * //

dimensions      [0 1 -1 0 0 0 0];

internalField   nonuniform List<vector> 
5285
(
(0.0999997 4.36717e-07 0)
(0.099995 1.2996e-06 0)
(0.0999851 2.15142e-06 0)
(0.0999708 2.99428e-06 0)
(0.0999522 3.828e-06 0)
(0.0999295 4.66049e-06 0)
(0.0999028 5.52754e-06 0)
(0.0998721 6.50466e-06 0)
(0.0998366 7.69436e-06 0)
(0.0997953 9.1885e-06 0)
(0.0997468 1.10235e-05 0)
(0.0996897 1.31519e-05 0)
(0.0996232 1.54454e-05 0)
(0.0995475 1.77268e-05 0)
(0.0994632 1.98166e-05 0)
(0.099372 2.15757e-05 0)
(0.0992759 2.29313e-05 0)
(0.0991768 2.3882e-05 0)
(0.0990765 2.4485e-05 0)
(0.0989762 2.48342e-05 0)
(0.098877 2.50371e-05 0)
(0.098779 2.51949e-05 0)
(0.0986823 2.53913e-05 0)
(0.0985866 2.56861e-05 0)
(0.0984914 2.61165e-05 0)
(0.0983963 2.66999e-05 0)
(0.0983007 2.74397e-05 0)
(0.0982041 2.83301e-05 0)
(0.0981061 2.93602e-05 0)
(0.0980064 3.05182e-05 0)
(0.0979047 3.17923e-05 0)
(0.0978008 3.31731e-05 0)
(0.0976943 3.4653e-05 0)
(0.0975853 3.62273e-05 0)
(0.0974735 3.78931e-05 0)
(0.0973589 3.96494e-05 0)
(0.0972413 4.14966e-05 0)
(0.0971206 4.34364e-05 0)
(0.0969967 4.54712e-05 0)
(0.0968696 4.76041e-05 0)
(0.0967392 4.98386e-05 0)
(0.0966053 5.21786e-05 0)
(0.0964679 5.46283e-05 0)
(0.0963269 5.71921e-05 0)
(0.0961821 5.98745e-05 0)
(0.0960336 6.26805e-05 0)
(0.0958811 6.5615e-05 0)
(0.0957247 6.86833e-05 0)
(0.0955641 7.1891e-05 0)
(0.0953994 7.52439e-05 0)
(0.0952304 7.87489e-05 0)
(0.095057 8.24146e-05 0)
(0.0948791 8.62548e-05 0)
(0.0946965 9.02997e-05 0)
(0.0945092 9.46248e-05 0)
(0.0999997 1.30992e-06 0)
(0.099995 3.89789e-06 0)
(0.0999851 6.4528e-06 0)
(0.0999708 8.9809e-06 0)
(0.0999522 1.14818e-05 0)
(0.0999295 1.39792e-05 0)
(0.0999029 1.65797e-05 0)
(0.0998722 1.9509e-05 0)
(0.0998367 2.30731e-05 0)
(0.0997955 2.75467e-05 0)
(0.0997471 3.30393e-05 0)
(0.0996901 3.941e-05 0)
(0.0996238 4.62764e-05 0)
(0.0995482 5.31096e-05 0)
(0.0994642 5.93736e-05 0)
(0.0993732 6.46526e-05 0)
(0.0992772 6.87285e-05 0)
(0.0991783 7.15958e-05 0)
(0.0990781 7.34243e-05 0)
(0.0989779 7.44937e-05 0)
(0.0988787 7.5124e-05 0)
(0.0987808 7.56178e-05 0)
(0.0986841 7.62242e-05 0)
(0.0985884 7.71228e-05 0)
(0.0984932 7.84244e-05 0)
(0.0983981 8.0182e-05 0)
(0.0983025 8.24057e-05 0)
(0.0982059 8.50784e-05 0)
(0.098108 8.81688e-05 0)
(0.0980084 9.16409e-05 0)
(0.0979067 9.54606e-05 0)
(0.0978029 9.95993e-05 0)
(0.0976965 0.000104035 0)
(0.0975876 0.000108753 0)
(0.097476 0.000113745 0)
(0.0973615 0.000119009 0)
(0.097244 0.000124545 0)
(0.0971235 0.000130358 0)
(0.0969999 0.000136456 0)
(0.096873 0.000142847 0)
(0.0967427 0.000149543 0)
(0.0966091 0.000156555 0)
(0.0964719 0.000163895 0)
(0.0963312 0.000171577 0)
(0.0961867 0.000179614 0)
(0.0960384 0.000188021 0)
(0.0958863 0.000196812 0)
(0.0957302 0.000206004 0)
(0.09557 0.000215612 0)
(0.0954057 0.000225655 0)
(0.0952371 0.000236153 0)
(0.0950641 0.00024713 0)
(0.0948867 0.000258629 0)
(0.0947046 0.000270738 0)
(0.0945178 0.000283677 0)
(0.0999997 2.18225e-06 0)
(0.099995 6.49337e-06 0)
(0.0999852 1.07496e-05 0)
(0.0999709 1.49611e-05 0)
(0.0999523 1.91277e-05 0)
(0.0999296 2.32881e-05 0)
(0.099903 2.76193e-05 0)
(0.0998724 3.24948e-05 0)
(0.099837 3.84226e-05 0)
(0.0997959 4.58591e-05 0)
(0.0997476 5.49877e-05 0)
(0.0996909 6.55771e-05 0)
(0.0996249 7.69949e-05 0)
(0.0995497 8.83647e-05 0)
(0.099466 9.87969e-05 0)
(0.0993754 0.0001076 0)
(0.0992798 0.000114409 0)
(0.0991812 0.000119213 0)
(0.0990812 0.000122289 0)
(0.0989813 0.000124102 0)
(0.0988821 0.000125179 0)
(0.0987843 0.000126024 0)
(0.0986876 0.000127051 0)
(0.0985919 0.000128557 0)
(0.0984968 0.000130728 0)
(0.0984017 0.000133654 0)
(0.0983061 0.000137352 0)
(0.0982096 0.000141796 0)
(0.0981118 0.000146933 0)
(0.0980122 0.000152704 0)
(0.0979107 0.000159054 0)
(0.097807 0.000165934 0)
(0.0977009 0.00017331 0)
(0.0975922 0.000181155 0)
(0.0974809 0.000189457 0)
(0.0973667 0.00019821 0)
(0.0972495 0.000207417 0)
(0.0971294 0.000217085 0)
(0.0970061 0.000227227 0)
(0.0968796 0.000237857 0)
(0.0967498 0.000248993 0)
(0.0966166 0.000260654 0)
(0.09648 0.00027286 0)
(0.0963397 0.000285634 0)
(0.0961958 0.000298998 0)
(0.0960482 0.000312975 0)
(0.0958967 0.00032759 0)
(0.0957412 0.00034287 0)
(0.0955818 0.00035884 0)
(0.0954182 0.000375531 0)
(0.0952504 0.000392975 0)
(0.0950783 0.000411214 0)
(0.0949018 0.000430313 0)
(0.0947207 0.000450412 0)
(0.094535 0.000471862 0)
(0.0999997 3.05312e-06 0)
(0.099995 9.08417e-06 0)
(0.0999852 1.50387e-05 0)
(0.0999709 2.09308e-05 0)
(0.0999524 2.67601e-05 0)
(0.0999298 3.25808e-05 0)
(0.0999032 3.86379e-05 0)
(0.0998726 4.54501e-05 0)
(0.0998374 5.3724e-05 0)
(0.0997964 6.40963e-05 0)
(0.0997484 7.68257e-05 0)
(0.0996921 9.15954e-05 0)
(0.0996266 0.000107529 0)
(0.0995519 0.000123411 0)
(0.0994688 0.000138001 0)
(0.0993788 0.000150334 0)
(0.0992837 0.000159898 0)
(0.0991855 0.00016667 0)
(0.0990859 0.000171032 0)
(0.0989862 0.000173624 0)
(0.0988872 0.000175181 0)
(0.0987894 0.000176402 0)
(0.0986928 0.000177863 0)
(0.0985971 0.000179983 0)
(0.098502 0.000183022 0)
(0.0984069 0.000187107 0)
(0.0983114 0.000192265 0)
(0.098215 0.000198459 0)
(0.0981173 0.00020562 0)
(0.098018 0.000213666 0)
(0.0979167 0.00022252 0)
(0.0978133 0.000232116 0)
(0.0977075 0.000242404 0)
(0.0975992 0.00025335 0)
(0.0974882 0.000264934 0)
(0.0973744 0.000277149 0)
(0.0972578 0.000289997 0)
(0.0971381 0.00030349 0)
(0.0970154 0.000317644 0)
(0.0968895 0.000332479 0)
(0.0967604 0.000348019 0)
(0.0966279 0.000364292 0)
(0.096492 0.000381324 0)
(0.0963525 0.000399147 0)
(0.0962095 0.000417791 0)
(0.0960627 0.000437288 0)
(0.0959121 0.000457673 0)
(0.0957577 0.000478982 0)
(0.0955993 0.000501251 0)
(0.0954369 0.00052452 0)
(0.0952703 0.000548834 0)
(0.0950995 0.000574248 0)
(0.0949244 0.00060085 0)
(0.0947448 0.000628817 0)
(0.0945606 0.000658602 0)
(0.0999997 3.92203e-06 0)
(0.0999951 1.16684e-05 0)
(0.0999852 1.93173e-05 0)
(0.099971 2.68855e-05 0)
(0.0999525 3.43738e-05 0)
(0.09993 4.18507e-05 0)
(0.0999035 4.96272e-05 0)
(0.099873 5.83632e-05 0)
(0.0998379 6.89593e-05 0)
(0.0997972 8.22308e-05 0)
(0.0997495 9.85134e-05 0)
(0.0996936 0.000117411 0)
(0.0996287 0.000137814 0)
(0.0995547 0.000158173 0)
(0.0994724 0.000176907 0)
(0.0993831 0.000192779 0)
(0.0992887 0.000205125 0)
(0.0991911 0.000213907 0)
(0.0990919 0.000219604 0)
(0.0989925 0.000223026 0)
(0.0988938 0.000225106 0)
(0.0987961 0.000226736 0)
(0.0986996 0.000228653 0)
(0.098604 0.000231395 0)
(0.0985089 0.000235298 0)
(0.0984139 0.000240528 0)
(0.0983185 0.000247124 0)
(0.0982222 0.000255042 0)
(0.0981247 0.000264196 0)
(0.0980256 0.000274484 0)
(0.0979246 0.000285807 0)
(0.0978215 0.000298083 0)
(0.0977162 0.000311246 0)
(0.0976083 0.000325254 0)
(0.0974979 0.000340082 0)
(0.0973847 0.000355719 0)
(0.0972687 0.000372168 0)
(0.0971498 0.000389444 0)
(0.0970278 0.000407565 0)
(0.0969027 0.000426559 0)
(0.0967744 0.000446455 0)
(0.0966429 0.000467287 0)
(0.0965079 0.000489089 0)
(0.0963695 0.000511901 0)
(0.0962276 0.00053576 0)
(0.096082 0.000560709 0)
(0.0959327 0.000586789 0)
(0.0957796 0.000614045 0)
(0.0956226 0.000642524 0)
(0.0954617 0.000672276 0)
(0.0952967 0.000703354 0)
(0.0951276 0.000735827 0)
(0.0949543 0.000769795 0)
(0.0947767 0.000805462 0)
(0.0945946 0.000843336 0)
(0.0999997 4.78859e-06 0)
(0.0999951 1.42441e-05 0)
(0.0999853 2.35823e-05 0)
(0.0999711 3.28213e-05 0)
(0.0999527 4.19637e-05 0)
(0.0999302 5.10915e-05 0)
(0.0999038 6.05792e-05 0)
(0.0998735 7.12227e-05 0)
(0.0998386 8.41118e-05 0)
(0.0997981 0.000100237 0)
(0.0997508 0.000120015 0)
(0.0996955 0.000142976 0)
(0.0996313 0.000167788 0)
(0.0995582 0.000192583 0)
(0.0994767 0.000215443 0)
(0.0993883 0.000234862 0)
(0.0992947 0.000250025 0)
(0.0991978 0.000260869 0)
(0.0990992 0.000267961 0)
(0.0990002 0.000272272 0)
(0.0989018 0.000274928 0)
(0.0988043 0.000277006 0)
(0.0987079 0.000279405 0)
(0.0986123 0.000282778 0)
(0.0985173 0.000287541 0)
(0.0984224 0.000293899 0)
(0.0983271 0.000301907 0)
(0.098231 0.000311516 0)
(0.0981338 0.000322625 0)
(0.098035 0.000335112 0)
(0.0979344 0.00034886 0)
(0.0978318 0.000363769 0)
(0.0977269 0.000379761 0)
(0.0976197 0.000396784 0)
(0.0975099 0.000414807 0)
(0.0973975 0.000433816 0)
(0.0972823 0.000453815 0)
(0.0971642 0.00047482 0)
(0.0970432 0.000496853 0)
(0.0969191 0.000519947 0)
(0.0967919 0.000544136 0)
(0.0966615 0.00056946 0)
(0.0965277 0.000595962 0)
(0.0963906 0.000623686 0)
(0.0962501 0.000652679 0)
(0.0961059 0.000682991 0)
(0.0959582 0.000714671 0)
(0.0958068 0.000747772 0)
(0.0956515 0.00078235 0)
(0.0954925 0.000818461 0)
(0.0953295 0.000856171 0)
(0.0951625 0.000895554 0)
(0.0949914 0.000936718 0)
(0.0948162 0.000979871 0)
(0.0946367 0.00102552 0)
(0.0999997 5.65209e-06 0)
(0.0999951 1.68101e-05 0)
(0.0999854 2.78308e-05 0)
(0.0999712 3.87342e-05 0)
(0.0999529 4.95244e-05 0)
(0.0999305 6.02969e-05 0)
(0.0999042 7.14859e-05 0)
(0.099874 8.40181e-05 0)
(0.0998393 9.91662e-05 0)
(0.0997992 0.000118093 0)
(0.0997524 0.000141298 0)
(0.0996977 0.000168249 0)
(0.0996343 0.000197402 0)
(0.0995621 0.000226582 0)
(0.0994817 0.000253547 0)
(0.0993943 0.000276523 0)
(0.0993017 0.00029454 0)
(0.0992055 0.000307504 0)
(0.0991076 0.000316059 0)
(0.0990091 0.000321327 0)
(0.098911 0.000324619 0)
(0.0988138 0.000327192 0)
(0.0987175 0.000330099 0)
(0.0986221 0.000334115 0)
(0.0985271 0.000339731 0)
(0.0984324 0.000347198 0)
(0.0983372 0.000356586 0)
(0.0982414 0.000367846 0)
(0.0981445 0.000380863 0)
(0.0980461 0.0003955 0)
(0.097946 0.000411621 0)
(0.0978439 0.000429109 0)
(0.0977397 0.000447875 0)
(0.0976332 0.000467856 0)
(0.0975242 0.000489015 0)
(0.0974127 0.000511337 0)
(0.0972984 0.000534825 0)
(0.0971814 0.000559494 0)
(0.0970615 0.000585372 0)
(0.0969386 0.000612494 0)
(0.0968127 0.000640901 0)
(0.0966836 0.000670637 0)
(0.0965513 0.000701753 0)
(0.0964158 0.000734298 0)
(0.0962768 0.000768326 0)
(0.0961345 0.000803895 0)
(0.0959886 0.00084106 0)
(0.0958391 0.000879883 0)
(0.095686 0.000920426 0)
(0.0955291 0.000962753 0)
(0.0953684 0.00100694 0)
(0.0952039 0.00105305 0)
(0.0950355 0.00110121 0)
(0.0948631 0.00115159 0)
(0.0946868 0.00120461 0)
(0.0943159 9.9449e-05 -4.48327e-24)
(0.0941148 0.000104541 -4.57108e-24)
(0.0939038 0.000109989 -3.17341e-26)
(0.0936824 0.000115807 1.40473e-23)
(0.0934499 0.000122021 -4.65301e-24)
(0.0932055 0.000128668 -4.78981e-24)
(0.0929484 0.000135787 -1.47514e-23)
(0.0926777 0.000143423 1.46467e-23)
(0.0923924 0.000151623 5.01269e-24)
(0.0920915 0.000160443 0)
(0.0917738 0.000169942 5.17999e-24)
(0.091438 0.000180189 -5.26999e-24)
(0.0910827 0.00019126 4.33604e-23)
(0.0907063 0.000203241 -9.29358e-23)
(0.0903072 0.000216227 4.9679e-23)
(0.0898834 0.000230329 4.0269e-23)
(0.0943249 0.00029811 -4.53596e-24)
(0.094124 0.000313382 -9.2529e-24)
(0.0939132 0.000329686 -4.85174e-24)
(0.0936921 0.000347093 4.5175e-24)
(0.0934599 0.000365693 -4.71813e-24)
(0.0932158 0.000385591 3.38176e-23)
(0.0929591 0.000406906 -5.31107e-23)
(0.0926888 0.000429767 4.93372e-24)
(0.092404 0.000454321 6.5865e-23)
(0.0921036 0.00048073 -9.09667e-23)
(0.0917865 0.000509177 -8.88558e-23)
(0.0914514 0.000539865 7.82967e-23)
(0.0910968 0.000573023 0)
(0.0907214 0.000608908 5.46954e-24)
(0.0903232 0.000647808 -1.67177e-23)
(0.0899005 0.000690049 -1.89629e-22)
(0.0943429 0.000495779 -2.68305e-23)
(0.0941423 0.000521161 -9.41837e-24)
(0.0939321 0.000548225 3.63206e-23)
(0.0937114 0.000577117 -7.47321e-23)
(0.0934798 0.000607993 1.59922e-22)
(0.0932364 0.000641028 -7.57629e-23)
(0.0929804 0.000676417 1.41803e-26)
(0.092711 0.000714378 9.84004e-24)
(0.0924272 0.000755153 1.71611e-22)
(0.092128 0.000799015 -1.61428e-22)
(0.0918121 0.000846268 0)
(0.0914784 0.000897249 1.4579e-26)
(0.0911255 0.000952341 0)
(0.0907517 0.00101197 1.87886e-22)
(0.0903556 0.00107662 -1.65614e-22)
(0.0899351 0.00114683 -3.57128e-22)
(0.0943698 0.000691774 1.76772e-23)
(0.0941698 0.000727099 -8.97178e-24)
(0.0939602 0.000764759 1.94888e-26)
(0.0937404 0.000804957 9.23406e-24)
(0.0935097 0.000847915 -1.95964e-26)
(0.0932674 0.000893879 1.53456e-22)
(0.0930126 0.000943122 -2.89995e-22)
(0.0927446 0.000995952 1.55865e-22)
(0.0924624 0.00105271 -9.98053e-24)
(0.0921649 0.00111377 1.84507e-22)
(0.091851 0.00117956 -1.64119e-22)
(0.0915195 0.00125056 -3.40689e-22)
(0.0911691 0.00132729 6.87949e-22)
(0.0907981 0.00141035 -7.01602e-22)
(0.0904051 0.00150042 7.15916e-22)
(0.0899881 0.00159825 -7.19595e-22)
(0.0944054 0.000885439 -8.76751e-24)
(0.0942062 0.000930491 -3.5823e-23)
(0.0939976 0.000978507 1.08609e-22)
(0.0937789 0.00102975 -1.46672e-22)
(0.0935496 0.00108452 6.46032e-23)
(0.0933088 0.00114313 9.47623e-24)
(0.0930558 0.00120593 -9.63622e-24)
(0.0927898 0.00127331 -2.46165e-26)
(0.0925098 0.00134571 9.97862e-24)
(0.0922148 0.00142363 -2.02994e-23)
(0.0919038 0.00150759 -3.34114e-22)
(0.0915754 0.00159821 3.4482e-22)
(0.0912285 0.00169617 -3.36903e-22)
(0.0908615 0.00180223 3.47778e-22)
(0.0904729 0.00191725 0)
(0.0900608 0.0020422 -2.48201e-26)
(0.0944495 0.00107616 -4.35083e-23)
(0.0942514 0.00113071 2.61718e-23)
(0.0940442 0.00118886 8.95721e-24)
(0.0938271 0.00125095 1.3753e-22)
(0.0935997 0.00131732 -1.37581e-22)
(0.093361 0.00138837 1.42383e-22)
(0.0931105 0.00146454 -3.16079e-22)
(0.0928472 0.00154629 4.50084e-22)
(0.0925702 0.00163417 -3.15281e-22)
(0.0922787 0.00172877 -3.27169e-22)
(0.0919714 0.00183074 -1.64783e-23)
(0.0916473 0.00194083 6.64553e-22)
(0.0913051 0.00205987 -7.00117e-22)
(0.0909434 0.00218879 3.26572e-22)
(0.0905606 0.00232863 3.52555e-22)
(0.0901553 0.00248058 3.68681e-22)
(0.094502 0.00126311 8.56816e-24)
(0.0943056 0.00132663 7.89514e-23)
(0.0941003 0.00139442 -7.04085e-23)
(0.0938856 0.00146687 9.04078e-24)
(0.0936607 0.00154439 1.39005e-22)
(0.093425 0.00162743 -1.39224e-22)
(0.0931777 0.00171652 -2.98372e-22)
(0.092918 0.0018122 4.41384e-24)
(0.0926452 0.00191512 -5.59907e-24)
(0.0923581 0.00202597 3.31485e-22)
(0.0920559 0.00214553 -3.23891e-22)
(0.0917374 0.00227469 6.87345e-22)
(0.0914014 0.00241443 -3.42517e-22)
(0.0910467 0.00256585 1.10742e-23)
(0.0906717 0.0027302 1.13345e-23)
(0.0902751 0.00290889 7.49923e-22)
(0.0945637 0.00144944 0)
(0.0943701 0.00152034 0)
(0.0941679 0.00159609 0)
(0.0939566 0.00167706 0)
(0.0937355 0.00176371 0)
(0.093504 0.00185651 0)
(0.0932613 0.00195604 0)
(0.0930067 0.00206291 0)
(0.0927394 0.00217781 0)
(0.0924585 0.00230151 0)
(0.0921632 0.00243488 0)
(0.0918523 0.00257887 0)
(0.0915247 0.00273458 0)
(0.0911794 0.00290321 0)
(0.0908149 0.00308613 0)
(0.0904299 0.00328488 0)
(0.0946358 0.00163722 0)
(0.0944463 0.00171622 0)
(0.0942485 0.00180058 0)
(0.0940418 0.00189073 0)
(0.0938258 0.00198715 0)
(0.0935998 0.00209038 0)
(0.0933632 0.002201 0)
(0.0931152 0.0023197 0)
(0.0928551 0.00244721 0)
(0.0925822 0.00258435 0)
(0.0922956 0.00273206 0)
(0.0919944 0.00289136 0)
(0.0916775 0.00306342 0)
(0.091344 0.00324952 0)
(0.0909927 0.00345112 0)
(0.0906223 0.00366985 0)
(0.0947162 0.00182056 0)
(0.0945317 0.00190755 0)
(0.0943391 0.00200036 0)
(0.0941381 0.00209947 0)
(0.0939281 0.0022054 0)
(0.0937087 0.00231873 0)
(0.0934791 0.0024401 0)
(0.0932389 0.00257022 0)
(0.0929873 0.00270988 0)
(0.0927236 0.00285996 0)
(0.0924471 0.00302143 0)
(0.092157 0.0031954 0)
(0.0918524 0.00338308 0)
(0.0915324 0.00358582 0)
(0.091196 0.00380516 0)
(0.0908422 0.00404279 0)
(0.0948045 0.00199876 0)
(0.0946255 0.00209338 0)
(0.0944389 0.00219424 0)
(0.0942443 0.00230186 0)
(0.0940411 0.00241678 0)
(0.0938291 0.00253963 0)
(0.0936075 0.00267109 0)
(0.093376 0.00281189 0)
(0.0931339 0.00296288 0)
(0.0928806 0.00312498 0)
(0.0926154 0.0032992 0)
(0.0923377 0.0034867 0)
(0.0920467 0.00368872 0)
(0.0917416 0.00390669 0)
(0.0914217 0.00414217 0)
(0.0910861 0.00439692 0)
(0.0949002 0.00217131 0)
(0.0947272 0.00227316 0)
(0.0945471 0.00238163 0)
(0.0943594 0.00249725 0)
(0.0941638 0.00262061 0)
(0.0939599 0.00275236 0)
(0.0937471 0.0028932 0)
(0.0935251 0.00304392 0)
(0.0932933 0.00320538 0)
(0.0930513 0.00337853 0)
(0.0927984 0.00356442 0)
(0.0925341 0.00376423 0)
(0.0922578 0.00397925 0)
(0.0919688 0.00421092 0)
(0.0916667 0.00446085 0)
(0.0913506 0.00473081 0)
(0.0950027 0.0023378 0)
(0.0948362 0.00244643 0)
(0.094663 0.00256201 0)
(0.0944829 0.00268511 0)
(0.0942953 0.00281632 0)
(0.0941001 0.00295632 0)
(0.0938967 0.00310583 0)
(0.0936849 0.00326566 0)
(0.0934641 0.00343669 0)
(0.0932341 0.0036199 0)
(0.0929942 0.00381636 0)
(0.0927442 0.00402725 0)
(0.0924834 0.00425389 0)
(0.0922115 0.00449774 0)
(0.091928 0.00476039 0)
(0.0916324 0.00504364 0)
(0.0951116 0.00249788 0)
(0.0949519 0.0026128 0)
(0.0947861 0.00273498 0)
(0.0946138 0.00286497 0)
(0.0944347 0.00300341 0)
(0.0942486 0.00315097 0)
(0.0940552 0.00330839 0)
(0.093854 0.0034765 0)
(0.0936449 0.00365617 0)
(0.0934274 0.00384841 0)
(0.0932013 0.00405429 0)
(0.0929661 0.00427501 0)
(0.0927216 0.00451187 0)
(0.0924674 0.00476633 0)
(0.0922032 0.00503998 0)
(0.0919288 0.00533457 0)
(0.0952264 0.00265124 0)
(0.0950738 0.00277195 0)
(0.0949156 0.00290016 0)
(0.0947515 0.00303646 0)
(0.0945813 0.00318147 0)
(0.0944047 0.00333587 0)
(0.0942216 0.00350042 0)
(0.0940316 0.00367593 0)
(0.0938345 0.00386331 0)
(0.09363 0.00406353 0)
(0.093418 0.00427768 0)
(0.0931982 0.00450694 0)
(0.0929704 0.00475261 0)
(0.0927343 0.00501611 0)
(0.09249 0.00529902 0)
(0.0922371 0.00560305 0)
(0.0953466 0.00279761 0)
(0.0952013 0.00292359 0)
(0.095051 0.00305728 0)
(0.0948954 0.00319927 0)
(0.0947343 0.00335018 0)
(0.0945675 0.0035107 0)
(0.094395 0.00368157 0)
(0.0942164 0.00386362 0)
(0.0940316 0.00405773 0)
(0.0938405 0.00426488 0)
(0.0936429 0.00448614 0)
(0.0934387 0.00472266 0)
(0.0932279 0.00497573 0)
(0.0930103 0.00524674 0)
(0.092786 0.0055372 0)
(0.0925549 0.00584877 0)
(0.0954716 0.0029368 0)
(0.0953339 0.00306752 0)
(0.0951916 0.00320612 0)
(0.0950447 0.00335317 0)
(0.0948929 0.0035093 0)
(0.0947362 0.00367519 0)
(0.0945744 0.00385159 0)
(0.0944074 0.00403929 0)
(0.0942352 0.00423918 0)
(0.0940576 0.00445222 0)
(0.0938747 0.00467944 0)
(0.0936863 0.00492197 0)
(0.0934925 0.00518107 0)
(0.0932935 0.00545806 0)
(0.0930892 0.00575441 0)
(0.0928799 0.00607171 0)
(0.095601 0.00306863 0)
(0.0954709 0.00320356 0)
(0.0953369 0.00334649 0)
(0.0951987 0.00349799 0)
(0.0950564 0.00365867 0)
(0.0949099 0.0038292 0)
(0.094759 0.00401032 0)
(0.0946038 0.00420282 0)
(0.0944442 0.00440754 0)
(0.0942802 0.00462543 0)
(0.0941119 0.00485748 0)
(0.0939394 0.0051048 0)
(0.0937627 0.00536858 0)
(0.0935821 0.0056501 0)
(0.0933978 0.00595075 0)
(0.09321 0.00627203 0)
(0.0957342 0.00319298 0)
(0.0956119 0.0033316 0)
(0.0954862 0.00347829 0)
(0.095357 0.00363361 0)
(0.0952242 0.00379817 0)
(0.0950879 0.00397263 0)
(0.094948 0.00415769 0)
(0.0948045 0.00435412 0)
(0.0946576 0.00456275 0)
(0.0945072 0.00478449 0)
(0.0943535 0.00502029 0)
(0.0941967 0.00527121 0)
(0.0940369 0.00553839 0)
(0.0938746 0.00582304 0)
(0.0937099 0.00612647 0)
(0.0935433 0.0064501 0)
(0.0958707 0.00330977 0)
(0.0957563 0.00345155 0)
(0.0956389 0.00360144 0)
(0.0955187 0.00375999 0)
(0.0953954 0.00392777 0)
(0.0952693 0.00410544 0)
(0.0951404 0.00429368 0)
(0.0950087 0.00449322 0)
(0.0948743 0.00470487 0)
(0.0947374 0.00492949 0)
(0.0945982 0.00516799 0)
(0.0944569 0.00542139 0)
(0.0943139 0.00569074 0)
(0.0941694 0.0059772 0)
(0.0940239 0.00628199 0)
(0.093878 0.00660642 0)
(0.0960101 0.00341894 0)
(0.0959036 0.00356339 0)
(0.0957946 0.00371593 0)
(0.0956832 0.00387711 0)
(0.0955696 0.00404748 0)
(0.0954536 0.00422768 0)
(0.0953356 0.00441835 0)
(0.0952155 0.00462021 0)
(0.0950936 0.00483402 0)
(0.09497 0.00506059 0)
(0.094845 0.00530081 0)
(0.094719 0.0055556 0)
(0.0945922 0.00582598 0)
(0.0944652 0.00611301 0)
(0.0943384 0.00641783 0)
(0.0942126 0.00674164 0)
(0.0961519 0.00352051 0)
(0.0960532 0.00366712 0)
(0.0959525 0.00382178 0)
(0.0958501 0.00398501 0)
(0.0957459 0.00415737 0)
(0.09564 0.00433943 0)
(0.0955327 0.00453183 0)
(0.0954241 0.00473525 0)
(0.0953144 0.0049504 0)
(0.0952039 0.00517805 0)
(0.0950928 0.00541904 0)
(0.0949816 0.00567423 0)
(0.0948708 0.00594456 0)
(0.0947607 0.00623101 0)
(0.094652 0.00653463 0)
(0.0945454 0.00685652 0)
(0.0962956 0.00361449 0)
(0.0962046 0.00376278 0)
(0.0961123 0.00391904 0)
(0.0960186 0.00408379 0)
(0.0959237 0.00425753 0)
(0.0958278 0.00444083 0)
(0.0957311 0.00463429 0)
(0.0956337 0.00483854 0)
(0.095536 0.00505426 0)
(0.0954382 0.00528217 0)
(0.0953408 0.00552305 0)
(0.095244 0.0057777 0)
(0.0951485 0.00604699 0)
(0.0950547 0.00633181 0)
(0.0949634 0.00663312 0)
(0.0948753 0.00695191 0)
(0.0964407 0.00370093 0)
(0.0963575 0.00385045 0)
(0.0962733 0.00400783 0)
(0.0961883 0.00417356 0)
(0.0961026 0.00434813 0)
(0.0960165 0.00453207 0)
(0.0959301 0.00472594 0)
(0.0958437 0.00493035 0)
(0.0957576 0.00514592 0)
(0.0956722 0.00537333 0)
(0.0955879 0.00561329 0)
(0.0955051 0.00586654 0)
(0.0954243 0.00613387 0)
(0.0953463 0.0064161 0)
(0.0952716 0.00671409 0)
(0.0952011 0.00702871 0)
(0.0965869 0.00377994 0)
(0.0965112 0.00393024 0)
(0.0964351 0.00408827 0)
(0.0963586 0.00425448 0)
(0.0962819 0.00442935 0)
(0.0962053 0.00461336 0)
(0.096129 0.00480706 0)
(0.0960533 0.00501099 0)
(0.0959786 0.00522574 0)
(0.0959051 0.00545193 0)
(0.0958335 0.00569022 0)
(0.0957641 0.00594128 0)
(0.0956975 0.00620583 0)
(0.0956344 0.00648461 0)
(0.0955755 0.00677837 0)
(0.0955217 0.00708789 0)
(0.0967337 0.00385163 0)
(0.0966655 0.00400228 0)
(0.0965972 0.00416051 0)
(0.096529 0.00432674 0)
(0.0964611 0.00450141 0)
(0.0963938 0.00468497 0)
(0.0963273 0.00487793 0)
(0.0962619 0.0050808 0)
(0.0961981 0.00529411 0)
(0.0961362 0.00551844 0)
(0.0960767 0.00575437 0)
(0.0960202 0.00600254 0)
(0.0959671 0.00626356 0)
(0.0959182 0.00653811 0)
(0.0958743 0.00682684 0)
(0.0958362 0.00713044 0)
(0.0968807 0.00391612 0)
(0.0968197 0.00406675 0)
(0.0967591 0.00422477 0)
(0.096699 0.00439057 0)
(0.0966397 0.00456457 0)
(0.0965814 0.00474719 0)
(0.0965244 0.0049389 0)
(0.096469 0.00514016 0)
(0.0964157 0.00535146 0)
(0.0963649 0.00557333 0)
(0.096317 0.0058063 0)
(0.0962727 0.00605093 0)
(0.0962325 0.00630776 0)
(0.0961971 0.0065774 0)
(0.0961673 0.00686041 0)
(0.096144 0.00715737 0)
(0.0970275 0.0039736 0)
(0.0969737 0.00412382 0)
(0.0969206 0.00428123 0)
(0.0968683 0.00444619 0)
(0.0968173 0.0046191 0)
(0.0967676 0.00480033 0)
(0.0967197 0.00499031 0)
(0.096674 0.00518947 0)
(0.0966308 0.00539826 0)
(0.0965905 0.00561714 0)
(0.0965537 0.00584659 0)
(0.096521 0.0060871 0)
(0.096493 0.00633917 0)
(0.0964703 0.0066033 0)
(0.0964538 0.00687998 0)
(0.0964442 0.00716972 0)
(0.0971739 0.00402423 0)
(0.097127 0.0041737 0)
(0.0970811 0.00433014 0)
(0.0970365 0.00449389 0)
(0.0969934 0.00466529 0)
(0.0969521 0.00484472 0)
(0.096913 0.00503254 0)
(0.0968764 0.00522915 0)
(0.0968428 0.00543496 0)
(0.0968126 0.00565037 0)
(0.0967864 0.00587582 0)
(0.0967646 0.00611172 0)
(0.096748 0.00635851 0)
(0.0967373 0.00661663 0)
(0.0967332 0.00688648 0)
(0.0967365 0.00716848 0)
(0.0973194 0.00406821 0)
(0.0972792 0.00421661 0)
(0.0972403 0.00437174 0)
(0.097203 0.00453392 0)
(0.0971676 0.00470347 0)
(0.0971344 0.00488071 0)
(0.0971037 0.00506598 0)
(0.0970759 0.00525965 0)
(0.0970514 0.00546206 0)
(0.0970308 0.00567359 0)
(0.0970145 0.00589459 0)
(0.0970031 0.00612545 0)
(0.0969972 0.00636654 0)
(0.0969976 0.00661821 0)
(0.097005 0.00688081 0)
(0.0970203 0.00715466 0)
(0.0974638 0.00410575 0)
(0.09743 0.00425278 0)
(0.0973979 0.0044063 0)
(0.0973677 0.00456659 0)
(0.0973396 0.00473395 0)
(0.0973141 0.00490867 0)
(0.0972914 0.00509105 0)
(0.097272 0.00528141 0)
(0.0972562 0.00548006 0)
(0.0972446 0.00568733 0)
(0.0972376 0.00590352 0)
(0.097236 0.00612897 0)
(0.0972402 0.00636399 0)
(0.0972509 0.00660886 0)
(0.097269 0.00686386 0)
(0.0972953 0.00712924 0)
(0.0976068 0.00413708 0)
(0.0975793 0.00428247 0)
(0.0975536 0.00443409 0)
(0.0975302 0.00459221 0)
(0.0975092 0.00475708 0)
(0.0974909 0.00492896 0)
(0.0974759 0.00510814 0)
(0.0974643 0.00529488 0)
(0.0974568 0.00548945 0)
(0.0974537 0.00569214 0)
(0.0974555 0.00590322 0)
(0.0974629 0.00612295 0)
(0.0974765 0.00635158 0)
(0.0974969 0.00658936 0)
(0.0975248 0.0068365 0)
(0.0975612 0.00709317 0)
(0.0977481 0.00416242 0)
(0.0977266 0.00430592 0)
(0.0977072 0.0044554 0)
(0.0976902 0.00461108 0)
(0.0976759 0.00477319 0)
(0.0976646 0.00494198 0)
(0.0976568 0.00511767 0)
(0.0976527 0.00530052 0)
(0.0976529 0.00549074 0)
(0.0976577 0.00568859 0)
(0.0976678 0.00589428 0)
(0.0976837 0.00610803 0)
(0.0977059 0.00633005 0)
(0.0977352 0.00656051 0)
(0.0977723 0.00679958 0)
(0.0978178 0.00704737 0)
(0.0978876 0.00418201 0)
(0.0978718 0.0043234 0)
(0.0978583 0.0044705 0)
(0.0978475 0.00462351 0)
(0.0978396 0.00478264 0)
(0.0978349 0.00494809 0)
(0.0978339 0.00512007 0)
(0.0978368 0.00529878 0)
(0.0978443 0.00548443 0)
(0.0978566 0.0056772 0)
(0.0978743 0.00587729 0)
(0.0978981 0.00608486 0)
(0.0979283 0.00630007 0)
(0.0979658 0.00652306 0)
(0.0980111 0.00675392 0)
(0.0980651 0.00699272 0)
(0.0980249 0.00419611 0)
(0.0980146 0.00433519 0)
(0.0980068 0.00447971 0)
(0.0980018 0.00462984 0)
(0.098 0.00478578 0)
(0.0980015 0.00494769 0)
(0.0980069 0.00511575 0)
(0.0980165 0.00529013 0)
(0.0980307 0.005471 0)
(0.09805 0.00565852 0)
(0.0980749 0.00585283 0)
(0.0981059 0.00605406 0)
(0.0981435 0.00626233 0)
(0.0981884 0.00647773 0)
(0.0982413 0.0067003 0)
(0.0983029 0.00693006 0)
(0.09816 0.00420494 0)
(0.0981549 0.00434154 0)
(0.0981525 0.0044833 0)
(0.0981531 0.00463038 0)
(0.0981569 0.00478295 0)
(0.0981644 0.00494114 0)
(0.0981758 0.00510511 0)
(0.0981915 0.005275 0)
(0.0982121 0.00545094 0)
(0.0982378 0.00563306 0)
(0.0982693 0.00582146 0)
(0.098307 0.00601625 0)
(0.0983514 0.00621749 0)
(0.0984031 0.00642523 0)
(0.0984629 0.00663947 0)
(0.0985313 0.0068602 0)
(0.0982927 0.00420877 0)
(0.0982925 0.00434273 0)
(0.0982952 0.00448157 0)
(0.098301 0.00462545 0)
(0.0983102 0.00477449 0)
(0.0983232 0.00492882 0)
(0.0983403 0.00508856 0)
(0.0983618 0.00525382 0)
(0.0983882 0.00542471 0)
(0.09842 0.00560132 0)
(0.0984575 0.00578373 0)
(0.0985013 0.00597199 0)
(0.0985519 0.00616615 0)
(0.0986098 0.00636621 0)
(0.0986758 0.00657215 0)
(0.0987503 0.00678388 0)
(0.0999997 6.53098e-06 0)
(0.0999951 1.94263e-05 0)
(0.0999854 3.21604e-05 0)
(0.0999714 4.47603e-05 0)
(0.0999531 5.72306e-05 0)
(0.0999309 6.96793e-05 0)
(0.0999047 8.25989e-05 0)
(0.0998747 9.70434e-05 0)
(0.0998402 0.000114466 0)
(0.0998004 0.000136203 0)
(0.0997542 0.00016284 0)
(0.0997002 0.000193792 0)
(0.0996378 0.000227313 0)
(0.0995666 0.000260927 0)
(0.0994873 0.000292068 0)
(0.0994011 0.000318696 0)
(0.0993095 0.000339675 0)
(0.0992143 0.000354873 0)
(0.0991171 0.000365002 0)
(0.0990193 0.000371326 0)
(0.0989216 0.000375334 0)
(0.0988246 0.000378464 0)
(0.0987286 0.000381924 0)
(0.0986333 0.000386608 0)
(0.0985385 0.00039309 0)
(0.0984439 0.000401668 0)
(0.0983491 0.000412433 0)
(0.0982536 0.000425337 0)
(0.098157 0.000440256 0)
(0.0980592 0.000457035 0)
(0.0979596 0.000475524 0)
(0.0978583 0.00049559 0)
(0.0977549 0.00051713 0)
(0.0976492 0.000540074 0)
(0.0975412 0.000564376 0)
(0.0974307 0.000590019 0)
(0.0973176 0.000617005 0)
(0.0972018 0.00064535 0)
(0.0970832 0.000675085 0)
(0.0969617 0.000706248 0)
(0.0968373 0.000738884 0)
(0.0967098 0.000773043 0)
(0.0965793 0.00080878 0)
(0.0964455 0.000846153 0)
(0.0963086 0.000885221 0)
(0.0961682 0.000926046 0)
(0.0960245 0.000968693 0)
(0.0958774 0.00101323 0)
(0.0957267 0.00105972 0)
(0.0955724 0.00110824 0)
(0.0954145 0.00115887 0)
(0.0952529 0.00121168 0)
(0.0950876 0.00126678 0)
(0.0949185 0.00132429 0)
(0.0947456 0.00138443 0)
(0.0999997 7.42417e-06 0)
(0.0999951 2.20897e-05 0)
(0.0999855 3.6566e-05 0)
(0.0999715 5.08924e-05 0)
(0.0999534 6.50729e-05 0)
(0.0999313 7.92275e-05 0)
(0.0999053 9.39043e-05 0)
(0.0998754 0.00011028 0)
(0.0998413 0.000129986 0)
(0.0998019 0.000154532 0)
(0.0997562 0.000184594 0)
(0.0997031 0.000219543 0)
(0.0996416 0.000257444 0)
(0.0995716 0.000295528 0)
(0.0994936 0.000330913 0)
(0.0994086 0.000361285 0)
(0.0993182 0.00038534 0)
(0.0992241 0.000402894 0)
(0.0991277 0.000414717 0)
(0.0990305 0.000422206 0)
(0.0989334 0.000427021 0)
(0.0988368 0.000430776 0)
(0.098741 0.000434835 0)
(0.098646 0.000440214 0)
(0.0985515 0.000447572 0)
(0.0984572 0.000457259 0)
(0.0983626 0.000469389 0)
(0.0982676 0.00048392 0)
(0.0981715 0.000500721 0)
(0.0980742 0.000519624 0)
(0.0979755 0.000540463 0)
(0.0978749 0.000563091 0)
(0.0977724 0.000587393 0)
(0.0976678 0.000613287 0)
(0.0975609 0.000640724 0)
(0.0974516 0.000669681 0)
(0.0973399 0.000700158 0)
(0.0972255 0.000732173 0)
(0.0971084 0.000765757 0)
(0.0969886 0.000800952 0)
(0.096866 0.000837807 0)
(0.0967404 0.000876376 0)
(0.0966118 0.00091672 0)
(0.0964802 0.0009589 0)
(0.0963455 0.00100298 0)
(0.0962076 0.00104903 0)
(0.0960664 0.00109713 0)
(0.0959219 0.00114733 0)
(0.095774 0.00119973 0)
(0.0956228 0.00125438 0)
(0.0954681 0.00131138 0)
(0.0953098 0.00137081 0)
(0.095148 0.00143276 0)
(0.0949827 0.00149735 0)
(0.0948137 0.00156471 0)
(0.0999997 8.31204e-06 0)
(0.0999952 2.47363e-05 0)
(0.0999856 4.09436e-05 0)
(0.0999717 5.69853e-05 0)
(0.0999537 7.28656e-05 0)
(0.0999317 8.8715e-05 0)
(0.0999059 0.000105134 0)
(0.0998763 0.000123415 0)
(0.0998424 0.000145357 0)
(0.0998035 0.000172641 0)
(0.0997584 0.000206037 0)
(0.0997061 0.000244883 0)
(0.0996457 0.00028707 0)
(0.0995769 0.000329555 0)
(0.0995002 0.000369146 0)
(0.0994165 0.000403267 0)
(0.0993274 0.000430439 0)
(0.0992344 0.000450418 0)
(0.099139 0.000464018 0)