/*--------------------------------*- C++ -*----------------------------------*\
| =========                 |                                                 |
| \\      /  F ield         | OpenFOAM: The Open Source CFD Toolbox           |
|  \\    /   O peration     | Version:  2412                                  |
|   \\  /    A nd           | Website:  www.openfoam.com                      |
|    \\/     M anipulation  |                                                 |
\*---------------------------------------------------------------------------*/
FoamFile
{
    version     2.0;
    format      ascii;
    arch        "LSB;label=32;scalar=64";
    class       volScalarField;
    location    "0.5";
    object      p;
}
// * * * * * * * * * * * * * * * * * * * * * * * * * * * * * * * * * * * * * //

dimensions      [0 2 -2 0 0 0 0];

internalField   nonuniform List<scalar> 
63420
(
-0.00380793
0.0150586
-0.00304165
0.00360317
0.00369363
0.00342213
0.00340961
0.0034076
0.00340033
0.00339465
0.00339068
0.00338812
0.00338688
0.00338688
0.00338808
0.00339042
0.00339386
0.00339838
0.00340393
0.00341049
0.00341804
0.00342654
0.00343598
0.00344632
0.00345755
0.00346964
0.00348258
0.00349634
0.00351091
0.00352626
0.00354238
0.00355924
0.00357682
0.00359511
0.00361409
0.00363373
0.00365401
0.00367491
0.00369641
0.00371849
0.00374111
0.00376426
0.00378789
0.003812
0.00383653
0.00386146
0.00388676
0.00391239
0.0039383
0.0039645
0.00399086
0.00401709
0.00404413
0.00407276
0.00410135
-0.00380874
0.0150575
-0.00303842
0.00360018
0.00369275
0.0034218
0.00340928
0.00340731
0.00340007
0.00339441
0.00339045
0.00338789
0.00338665
0.00338665
0.00338784
0.00339017
0.00339361
0.00339812
0.00340366
0.00341022
0.00341775
0.00342624
0.00343567
0.003446
0.00345722
0.0034693
0.00348223
0.00349597
0.00351053
0.00352587
0.00354197
0.00355881
0.00357638
0.00359466
0.00361362
0.00363324
0.00365351
0.0036744
0.00369589
0.00371795
0.00374056
0.00376369
0.00378731
0.0038114
0.00383593
0.00386085
0.00388614
0.00391176
0.00393767
0.00396385
0.00399019
0.00401635
0.0040435
0.00407198
0.00409956
-0.00381057
0.0150554
-0.00303175
0.00359385
0.00369107
0.00342117
0.00340863
0.00340673
0.00339955
0.00339392
0.00338997
0.00338743
0.00338618
0.00338618
0.00338736
0.00338968
0.00339311
0.0033976
0.00340312
0.00340966
0.00341718
0.00342565
0.00343505
0.00344536
0.00345656
0.00346861
0.00348151
0.00349523
0.00350976
0.00352507
0.00354114
0.00355796
0.0035755
0.00359374
0.00361267
0.00363227
0.00365251
0.00367337
0.00369482
0.00371686
0.00373944
0.00376255
0.00378615
0.00381022
0.00383472
0.00385963
0.0038849
0.00391051
0.0039364
0.00396257
0.00398885
0.00401491
0.00404229
0.00407058
0.00409642
-0.00381397
0.0150528
-0.00302134
0.00358353
0.00368874
0.00342032
0.00340767
0.00340586
0.00339877
0.00339319
0.00338927
0.00338673
0.00338548
0.00338547
0.00338664
0.00338894
0.00339235
0.00339681
0.00340231
0.00340883
0.00341631
0.00342475
0.00343412
0.0034444
0.00345556
0.00346758
0.00348044
0.00349413
0.00350861
0.00352388
0.00353991
0.00355668
0.00357418
0.00359238
0.00361126
0.00363081
0.003651
0.00367182
0.00369323
0.00371522
0.00373776
0.00376083
0.0037844
0.00380844
0.00383292
0.0038578
0.00388305
0.00390863
0.00393451
0.00396067
0.00398687
0.00401281
0.00404057
0.00406868
0.00409221
-0.00382009
0.0150512
-0.00300706
0.00356821
0.00368609
0.00341935
0.00340638
0.00340472
0.00339775
0.00339223
0.00338833
0.00338581
0.00338456
0.00338453
0.00338568
0.00338796
0.00339134
0.00339577
0.00340124
0.00340772
0.00341517
0.00342357
0.00343289
0.00344312
0.00345424
0.00346621
0.00347902
0.00349265
0.00350708
0.0035223
0.00353827
0.00355498
0.00357242
0.00359056
0.00360938
0.00362887
0.003649
0.00366975
0.00369111
0.00371304
0.00373553
0.00375855
0.00378207
0.00380607
0.00383051
0.00385536
0.00388059
0.00390616
0.00393201
0.00395818
0.0039843
0.0040101
0.00403837
0.00406639
0.00408699
-0.0038301
0.0150511
-0.00298758
0.00354619
0.00368362
0.00341843
0.0034048
0.00340332
0.00339651
0.00339105
0.00338719
0.00338467
0.00338342
0.00338337
0.0033845
0.00338675
0.00339009
0.00339449
0.00339991
0.00340634
0.00341374
0.00342209
0.00343136
0.00344154
0.00345259
0.0034645
0.00347725
0.00349082
0.00350518
0.00352032
0.00353622
0.00355286
0.00357022
0.00358828
0.00360703
0.00362644
0.0036465
0.00366717
0.00368846
0.00371032
0.00373274
0.00375569
0.00377916
0.00380311
0.00382751
0.00385233
0.00387754
0.00390309
0.00392895
0.00395514
0.00398121
0.00400694
0.0040359
0.00406413
0.00408195
-0.00384024
0.0150452
-0.00295509
0.00351295
0.00368179
0.00341785
0.00340288
0.00340164
0.00339502
0.00338963
0.00338581
0.0033833
0.00338204
0.00338197
0.00338307
0.00338528
0.00338858
0.00339293
0.0033983
0.00340468
0.00341202
0.00342031
0.00342952
0.00343963
0.00345061
0.00346245
0.00347512
0.00348861
0.00350289
0.00351795
0.00353376
0.00355031
0.00356758
0.00358555
0.0036042
0.00362352
0.00364348
0.00366407
0.00368526
0.00370703
0.00372937
0.00375225
0.00377565
0.00379953
0.00382389
0.00384868
0.00387387
0.00389942
0.00392531
0.00395156
0.00397765
0.00400344
0.00403319
0.00406214
0.00407921
0.00412949
0.00415989
0.00419265
0.00422552
0.0042598
0.0042991
0.00434487
0.00439715
0.00445624
0.00452254
0.00459637
0.00467791
0.00476741
0.00486649
0.00497841
0.00509971
0.00523081
0.00537194
0.00552317
0.00568453
0.005856
0.00603751
0.00622867
0.00642901
0.00663807
0.00685574
0.00708258
0.00731984
0.00756912
0.00783199
0.00810957
0.0084025
0.0087117
0.00903936
0.00938916
0.00976584
0.0101745
0.0106206
0.0111102
0.0116502
0.012248
0.0129096
0.0136418
0.0144668
0.015431
0.0163787
0.0173501
0.0190494
0.0199294
0.022457
0.00412691
0.00415719
0.00418905
0.00422035
0.00425343
0.00429195
0.0043372
0.00438947
0.00444901
0.00451596
0.00459073
0.00467317
0.0047628
0.00486408
0.00497526
0.00509701
0.00522886
0.00537096
0.00552326
0.00568577
0.00585863
0.00604175
0.00623468
0.00643676
0.00664719
0.00686553
0.00709235
0.00732926
0.00757828
0.0078412
0.00811914
0.00841254
0.00872182
0.00904874
0.00939708
0.00977179
0.0101781
0.0106214
0.0111074
0.0116428
0.0122344
0.012886
0.0136025
0.0144066
0.0153406
0.0162496
0.0171773
0.0187667
0.0195178
0.0217432
0.00412264
0.00415326
0.00418394
0.00421252
0.00424317
0.00427918
0.00432175
0.0043722
0.00443147
0.00449931
0.00457674
0.00466283
0.00475168
0.00485105
0.00496088
0.0050817
0.00521355
0.00535625
0.00550987
0.00567461
0.00585052
0.00603711
0.00623319
0.00643775
0.00665007
0.00686953
0.00709642
0.00733297
0.00758232
0.00784656
0.00812631
0.00842029
0.00872711
0.00904983
0.00939474
0.00976682
0.0101707
0.0106109
0.0110924
0.0116209
0.0122002
0.0128278
0.0135035
0.0142518
0.0151141
0.0159403
0.016771
0.0181736
0.0186829
0.020347
0.00411727
0.00414918
0.00418009
0.00420768
0.0042376
0.00427165
0.00430998
0.00435403
0.0044031
0.0044586
0.00452985
0.00461997
0.00471649
0.00482213
0.00493596
0.00506016
0.00519555
0.00534244
0.0055012
0.00567183
0.00585425
0.00604784
0.00625054
0.0064606
0.00667681
0.00689765
0.00712432
0.00736194
0.00761573
0.00788755
0.00817588
0.00847412
0.00877553
0.00908627
0.00942137
0.00978886
0.0101901
0.0106267
0.0111018
0.0116188
0.0121767
0.0127683
0.0133929
0.0140621
0.014809
0.0154946
0.0161391
0.0172811
0.0174228
0.0183302
0.00410987
0.0041427
0.00417389
0.00420187
0.00423681
0.00427846
0.00432574
0.00438134
0.00443582
0.00450475
0.00457934
0.00465774
0.00475508
0.00486067
0.00497695
0.00510546
0.00524636
0.00539982
0.00556594
0.00574512
0.00593815
0.00614511
0.00636152
0.00658214
0.00680605
0.0070263
0.00724464
0.00747576
0.00772994
0.00800509
0.0082949
0.00859299
0.00889139
0.00919169
0.0095127
0.00986847
0.0102584
0.0106792
0.0111317
0.0116185
0.0121382
0.0126808
0.0132367
0.0138124
0.0144197
0.0149476
0.0153593
0.0161189
0.015777
0.0157307
0.00410252
0.00413373
0.00416426
0.0041874
0.00421602
0.00425106
0.00428962
0.00432923
0.0043858
0.00445079
0.00452358
0.00460544
0.00470159
0.00480906
0.00492779
0.00505827
0.00520096
0.00535646
0.0055252
0.0057078
0.00590554
0.00611764
0.00633589
0.00655184
0.00676651
0.00698053
0.00719244
0.00741432
0.00766043
0.00792996
0.00821355
0.00850216
0.00878927
0.00908176
0.00939617
0.00974
0.0101111
0.0105066
0.0109257
0.0113692
0.0118347
0.0123138
0.0127954
0.0132744
0.0137422
0.0140933
0.0142386
0.0146078
0.0137257
0.0121435
0.00410173
0.00414221
0.00417427
0.00420061
0.00423712
0.00428281
0.00433134
0.0043857
0.00444829
0.00451696
0.00459397
0.00468096
0.00477957
0.00488951
0.00501065
0.00514343
0.00528828
0.00544564
0.00561591
0.00579969
0.00599777
0.0062076
0.00641838
0.0066213
0.00681987
0.00702159
0.0072289
0.00745014
0.00769273
0.00795189
0.00822096
0.00849766
0.00878152
0.00907785
0.00939514
0.00973631
0.0100989
0.0104798
0.010879
0.0112965
0.0117268
0.0121591
0.0125802
0.0129704
0.0132908
0.013424
0.0131667
0.012732
0.0108836
0.00829458
-0.00401451
-0.00484546
-0.00553201
-0.00491326
-0.00445997
-0.00412861
-0.00384941
-0.00361984
-0.00345144
-0.00332649
-0.00322305
-0.00312738
-0.00303302
-0.00293939
-0.00284856
-0.00276139
-0.00267667
-0.00259262
-0.00250737
-0.00241945
-0.00232812
-0.00223395
-0.00213835
-0.00204225
-0.00194571
-0.00184821
-0.00174938
-0.00164939
-0.00154924
-0.00145032
-0.00135397
-0.00126126
-0.00117295
-0.00108959
-0.00101162
-0.000939358
-0.000873017
-0.000812783
-0.00075877
-0.000710993
-0.000669245
-0.000633347
-0.000602714
-0.000577878
-0.000558553
-0.000544116
-0.000533194
-0.000525243
-0.000517777
-0.000511689
-0.00495958
-0.00546583
-0.00605002
-0.00528101
-0.00478092
-0.00438456
-0.00403864
-0.00376083
-0.00355836
-0.00341
-0.00329246
-0.00318703
-0.00308303
-0.00298073
-0.00288378
-0.00279252
-0.00270477
-0.0026184
-0.00253127
-0.00244125
-0.00234747
-0.00225099
-0.00215371
-0.00205664
-0.00195956
-0.00186148
-0.00176157
-0.0016598
-0.00155741
-0.00145613
-0.00135755
-0.00126301
-0.00117337
-0.00108909
-0.00101042
-0.000937608
-0.000870808
-0.000810137
-0.000755735
-0.000707598
-0.000665777
-0.000630078
-0.00060056
-0.000576298
-0.000556756
-0.00054139
-0.000530381
-0.000522877
-0.000516006
-0.000510273
-0.00683761
-0.0066297
-0.00704055
-0.00599295
-0.0053924
-0.00486572
-0.00440396
-0.00404369
-0.00378104
-0.00359072
-0.00344667
-0.00332254
-0.0031999
-0.00307856
-0.00296579
-0.00286257
-0.00276582
-0.00267376
-0.00258387
-0.00249004
-0.0023895
-0.00228553
-0.00218246
-0.00208187
-0.0019827
-0.00188268
-0.00177998
-0.00167452
-0.00156789
-0.00146212
-0.00135921
-0.00126096
-0.0011683
-0.00108159
-0.00100106
-0.000926923
-0.000859313
-0.00079825
-0.000743783
-0.000695892
-0.000654476
-0.00061935
-0.000590275
-0.000566701
-0.000548055
-0.000533695
-0.000523599
-0.000517775
-0.000512774
-0.00050816
-0.00952418
-0.0081946
-0.00828667
-0.00712706
-0.00625023
-0.00551137
-0.00490726
-0.00445219
-0.00412496
-0.00388879
-0.00371049
-0.00356184
-0.00341909
-0.00327623
-0.0031419
-0.00301959
-0.0029078
-0.00280727
-0.00271502
-0.00261751
-0.00250596
-0.0023864
-0.00226911
-0.00215874
-0.00205406
-0.00195044
-0.00184187
-0.00172808
-0.00161248
-0.00149773
-0.00138623
-0.00128026
-0.00118075
-0.00108784
-0.00100179
-0.000922892
-0.000851413
-0.000787515
-0.000731105
-0.000682092
-0.000640289
-0.000605467
-0.000577264
-0.000555145
-0.000538526
-0.000526665
-0.000519125
-0.000515826
-0.000512764
-0.000508319
-0.0123921
-0.0102963
-0.00963134
-0.00831865
-0.00712139
-0.00613639
-0.0053752
-0.00481694
-0.00442096
-0.00413698
-0.00392513
-0.00375217
-0.00359399
-0.00344416
-0.00330525
-0.00317798
-0.00306246
-0.00295959
-0.00286592
-0.0027697
-0.00265959
-0.00253609
-0.00241206
-0.00229788
-0.00219659
-0.00209937
-0.00199077
-0.00186933
-0.00174092
-0.00161144
-0.00148619
-0.00136877
-0.00125965
-0.00115838
-0.00106485
-0.000979123
-0.000901292
-0.000831365
-0.000769304
-0.000714996
-0.000668257
-0.0006288
-0.000596221
-0.000570052
-0.000549832
-0.000534896
-0.000524535
-0.000519325
-0.000514553
-0.000508386
-0.0149141
-0.0122918
-0.011014
-0.00953648
-0.00816606
-0.00701651
-0.00610569
-0.00541193
-0.00488957
-0.00449136
-0.00418095
-0.00393061
-0.00371962
-0.00353524
-0.00337084
-0.00322262
-0.00308946
-0.00297221
-0.00286748
-0.00276158
-0.00264416
-0.00251887
-0.00239466
-0.00227953
-0.00217751
-0.00208297
-0.00198433
-0.00187035
-0.00174261
-0.00160691
-0.00147337
-0.0013498
-0.00123663
-0.00113214
-0.0010359
-0.000948107
-0.000868846
-0.000798142
-0.000735941
-0.000682139
-0.000636561
-0.000598941
-0.000568898
-0.000545932
-0.00052939
-0.000518084
-0.000511399
-0.000510633
-0.000509639
-0.000504607
-0.0162665
-0.0144042
-0.012585
-0.0108821
-0.00937309
-0.00810326
-0.00706134
-0.00622272
-0.00555679
-0.00503018
-0.00461208
-0.00427607
-0.00400001
-0.00376697
-0.00356493
-0.00338687
-0.00322854
-0.00308705
-0.00295876
-0.00283678
-0.0027157
-0.00259399
-0.00247313
-0.00235861
-0.00225543
-0.00216015
-0.00206157
-0.00195646
-0.00184351
-0.00171671
-0.00158447
-0.00145923
-0.00134399
-0.00123749
-0.00113912
-0.00104887
-0.000966729
-0.000892675
-0.000826626
-0.000768443
-0.000717918
-0.000674768
-0.000638623
-0.000609067
-0.000585648
-0.000567371
-0.000553814
-0.000547702
-0.000541451
-0.000528453
-0.000512423
-0.000514574
-0.00050886
-0.000499969
-0.000494306
-0.000489247
-0.000482693
-0.000475591
-0.000468245
-0.000460512
-0.00045236
-0.00044383
-0.000434959
-0.000425781
-0.000416333
-0.000406655
-0.000396782
-0.000386749
-0.000376588
-0.000366329
-0.000356
-0.000345626
-0.000335233
-0.000324842
-0.000314475
-0.000304149
-0.000293883
-0.000283691
-0.000273588
-0.000263589
-0.000253706
-0.00024395
-0.000234332
-0.000224862
-0.000215547
-0.000206396
-0.000197417
-0.000188616
-0.000179998
-0.00017157
-0.000163333
-0.000155295
-0.000147457
-0.000139828
-0.000132398
-0.00012517
-0.000118163
-0.000111364
-0.000104775
-9.83968e-05
-9.22289e-05
-8.6273e-05
-8.05243e-05
-7.49818e-05
-6.96474e-05
-6.45188e-05
-5.95928e-05
-5.4866e-05
-5.03354e-05
-4.5999e-05
-4.18535e-05
-3.78954e-05
-3.41217e-05
-3.05237e-05
-2.70989e-05
-2.38463e-05
-2.076e-05
-1.78367e-05
-1.50677e-05
-1.24523e-05
-9.97995e-06
-7.65365e-06
-5.46322e-06
-3.40259e-06
-1.47006e-06
3.36402e-07
2.03694e-06
3.61781e-06
5.10348e-06
6.47967e-06
7.7708e-06
8.96976e-06
1.009e-05
1.11289e-05
1.2107e-05
1.29979e-05
1.38376e-05
1.46245e-05
1.53554e-05
1.60596e-05
1.67179e-05
1.73494e-05
1.79659e-05
1.8557e-05
1.91461e-05
1.97391e-05
2.03386e-05
2.0964e-05
2.16213e-05
2.23323e-05
2.31199e-05
2.39858e-05
2.4968e-05
2.60805e-05
2.73671e-05
2.88552e-05
3.06225e-05
3.23794e-05
3.62981e-05
2.96579e-05
7.67884e-05
-8.03391e-05
0.000278395
-2.52956e-05
-0.000505121
-0.000511721
-0.000514776
-0.000509208
-0.000500067
-0.00049455
-0.000489704
-0.000483171
-0.000475979
-0.000468584
-0.000460802
-0.000452596
-0.000444014
-0.000435096
-0.000425876
-0.000416393
-0.000406684
-0.000396785
-0.000386731
-0.000376552
-0.000366278
-0.000355937
-0.000345554
-0.000335153
-0.000324757
-0.000314385
-0.000304056
-0.000293788
-0.000283594
-0.00027349
-0.000263492
-0.00025361
-0.000243855
-0.000234238
-0.00022477
-0.000215458
-0.000206309
-0.000197333
-0.000188534
-0.000179919
-0.000171494
-0.00016326
-0.000155225
-0.00014739
-0.000139763
-0.000132336
-0.000125111
-0.000118107
-0.00011131
-0.000104724
-9.83485e-05
-9.21833e-05
-8.62297e-05
-8.04832e-05
-7.49432e-05
-6.9611e-05
-6.44845e-05
-5.95604e-05
-5.48354e-05
-5.03065e-05
-4.5972e-05
-4.18282e-05
-3.78718e-05
-3.40996e-05
-3.05029e-05
-2.708e-05
-2.38289e-05
-2.07434e-05
-1.78213e-05
-1.50531e-05
-1.24393e-05
-9.96757e-06
-7.64258e-06
-5.45285e-06
-3.3936e-06
-1.46162e-06
3.44361e-07
2.0432e-06
3.62518e-06
5.10796e-06
6.48611e-06
7.7753e-06
8.97329e-06
1.00946e-05
1.1132e-05
1.21094e-05
1.3001e-05
1.38404e-05
1.46258e-05
1.53572e-05
1.60616e-05
1.6719e-05
1.73512e-05
1.79658e-05
1.85584e-05
1.9145e-05
1.97401e-05
2.03381e-05
2.09628e-05
2.16213e-05
2.23311e-05
2.31172e-05
2.39839e-05
2.49633e-05
2.60766e-05
2.73641e-05
2.88535e-05
3.06191e-05
3.23757e-05
3.62896e-05
2.96674e-05
7.67493e-05
-8.02483e-05
0.000278285
-2.53113e-05
-0.000504894
-0.000510971
-0.000515584
-0.000510139
-0.000500437
-0.000495145
-0.000490647
-0.000484074
-0.000476751
-0.000469258
-0.000461375
-0.000453059
-0.000444374
-0.000435362
-0.000426061
-0.000416507
-0.000406738
-0.000396789
-0.000386692
-0.000376478
-0.000366175
-0.00035581
-0.000345408
-0.000334992
-0.000324584
-0.000314204
-0.000303869
-0.000293596
-0.0002834
-0.000273296
-0.000263298
-0.000253417
-0.000243664
-0.000234051
-0.000224587
-0.000215278
-0.000206134
-0.000197163
-0.000188371
-0.000179761
-0.000171341
-0.000163113
-0.000155085
-0.000147255
-0.000139633
-0.000132213
-0.000124994
-0.000117995
-0.000111203
-0.000104622
-9.82519e-05
-9.20919e-05
-8.61428e-05
-8.04012e-05
-7.48661e-05
-6.95383e-05
-6.44161e-05
-5.94956e-05
-5.47742e-05
-5.02493e-05
-4.59182e-05
-4.17779e-05
-3.78247e-05
-3.4055e-05
-3.04617e-05
-2.70421e-05
-2.37935e-05
-2.07108e-05
-1.77905e-05
-1.50247e-05
-1.24125e-05
-9.94339e-06
-7.62056e-06
-5.43243e-06
-3.37542e-06
-1.44489e-06
3.60254e-07
2.05672e-06
3.63934e-06
5.1185e-06
6.49763e-06
7.78467e-06
8.98176e-06
1.01024e-05
1.11393e-05
1.21143e-05
1.30072e-05
1.38452e-05
1.46291e-05
1.53612e-05
1.60648e-05
1.67213e-05
1.73539e-05
1.79669e-05
1.85594e-05
1.91457e-05
1.97401e-05
2.03376e-05
2.09618e-05
2.16198e-05
2.2329e-05
2.31138e-05
2.39798e-05
2.49558e-05
2.60711e-05
2.73579e-05
2.88483e-05
3.06123e-05
3.23713e-05
3.62766e-05
2.96857e-05
7.66694e-05
-8.00725e-05
0.000278067
-2.53449e-05
-0.000504442
-0.000511853
-0.000517885
-0.000512156
-0.000501339
-0.000496219
-0.000492117
-0.000485435
-0.000477905
-0.000470256
-0.000462213
-0.000453732
-0.000444893
-0.000435744
-0.000426322
-0.000416666
-0.000406809
-0.000396786
-0.000386628
-0.000376362
-0.000366016
-0.000355617
-0.000345187
-0.000334749
-0.000324324
-0.000313931
-0.000303587
-0.000293308
-0.000283109
-0.000273004
-0.000263006
-0.000253127
-0.000243378
-0.00023377
-0.000224311
-0.000215009
-0.000205873
-0.00019691
-0.000188125
-0.000179525
-0.000171113
-0.000162894
-0.000154874
-0.000147052
-0.000139439
-0.000132028
-0.000124817
-0.000117826
-0.000111043
-0.000104469
-9.8107e-05
-9.19547e-05
-8.60127e-05
-8.02783e-05
-7.47504e-05
-6.94292e-05
-6.43131e-05
-5.93986e-05
-5.46828e-05
-5.01635e-05
-4.58377e-05
-4.17026e-05
-3.77542e-05
-3.39889e-05
-3.04002e-05
-2.69853e-05
-2.37406e-05
-2.06618e-05
-1.77445e-05
-1.49823e-05
-1.23729e-05
-9.90754e-06
-7.58752e-06
-5.40197e-06
-3.34776e-06
-1.41966e-06
3.84154e-07
2.0774e-06
3.65958e-06
5.13522e-06
6.51426e-06
7.79902e-06
8.99477e-06
1.01142e-05
1.11502e-05
1.21225e-05
1.30158e-05
1.38524e-05
1.46351e-05
1.53669e-05
1.60693e-05
1.67255e-05
1.73573e-05
1.79687e-05
1.85611e-05
1.91467e-05
1.974e-05
2.03368e-05
2.09601e-05
2.16178e-05
2.2326e-05
2.31093e-05
2.39748e-05
2.49473e-05
2.60633e-05
2.73488e-05
2.88396e-05
3.06024e-05
3.23637e-05
3.62574e-05
2.97128e-05
7.65502e-05
-7.98156e-05
0.000277748
-2.54012e-05
-0.000503783
-0.000511906
-0.000519883
-0.000514449
-0.000502467
-0.000497687
-0.000494086
-0.000487242
-0.000479426
-0.000471554
-0.000463288
-0.000454585
-0.000445544
-0.000436218
-0.000426643
-0.000416854
-0.000406885
-0.000396767
-0.000386529
-0.000376197
-0.000365796
-0.000355352
-0.000344887
-0.000334421
-0.000323974
-0.000313564
-0.000303208
-0.000292922
-0.000282718
-0.000272612
-0.000262615
-0.000252739
-0.000242995
-0.000233394
-0.000223943
-0.00021465
-0.000205524
-0.000196571
-0.000187797
-0.000179208
-0.000170807
-0.0001626
-0.000154591
-0.000146781
-0.00013918
-0.00013178
-0.000124581
-0.000117601
-0.000110828
-0.000104265
-9.79134e-05
-9.17713e-05
-8.58388e-05
-8.0114e-05
-7.45956e-05
-6.92833e-05
-6.41755e-05
-5.92689e-05
-5.45608e-05
-5.00489e-05
-4.57304e-05
-4.1602e-05
-3.76601e-05
-3.39008e-05
-3.03182e-05
-2.69094e-05
-2.367e-05
-2.05963e-05
-1.76833e-05
-1.49257e-05
-1.23202e-05
-9.85965e-06
-7.54325e-06
-5.36137e-06
-3.31061e-06
-1.38586e-06
4.15899e-07
2.10548e-06
3.68606e-06
5.15838e-06
6.53607e-06
7.8184e-06
9.01241e-06
1.01299e-05
1.11647e-05
1.2134e-05
1.30271e-05
1.38621e-05
1.46436e-05
1.53746e-05
1.60754e-05
1.67308e-05
1.73613e-05
1.79713e-05
1.85635e-05
1.9148e-05
1.97399e-05
2.03362e-05
2.0958e-05
2.16153e-05
2.23222e-05
2.31041e-05
2.39689e-05
2.49385e-05
2.60543e-05
2.73378e-05
2.88281e-05
3.05889e-05
3.23529e-05
3.62324e-05
2.9749e-05
7.63926e-05
-7.94836e-05
0.000277346
-2.54818e-05
-0.000502947
-0.000509759
-0.000520512
-0.000515744
-0.000503715
-0.00049968
-0.000496644
-0.000489535
-0.0004813
-0.000473102
-0.000464543
-0.000455566
-0.000446282
-0.000436746
-0.000426989
-0.000417044
-0.000406942
-0.000396712
-0.000386379
-0.000375968
-0.000365503
-0.000355005
-0.000344498
-0.000333998
-0.000323526
-0.000313096
-0.000302727
-0.000292431
-0.000282224
-0.000272116
-0.000262121
-0.000252249
-0.000242513
-0.00023292
-0.000223479
-0.000214197
-0.000205083
-0.000196144
-0.000187384
-0.000178809
-0.000170422
-0.000162229
-0.000154236
-0.000146439
-0.000138853
-0.000131467
-0.000124282
-0.000117316
-0.000110558
-0.000104009
-9.76695e-05
-9.15402e-05
-8.56199e-05
-7.99071e-05
-7.44005e-05
-6.90993e-05
-6.40021e-05
-5.91055e-05
-5.44072e-05
-4.99047e-05
-4.55952e-05
-4.14754e-05
-3.75416e-05
-3.37901e-05
-3.0215e-05
-2.68137e-05
-2.3581e-05
-2.05136e-05
-1.76062e-05
-1.48543e-05
-1.2254e-05
-9.79913e-06
-7.48732e-06
-5.31014e-06
-3.26362e-06
-1.34303e-06
4.55799e-07
2.14123e-06
3.71919e-06
5.1881e-06
6.5634e-06
7.84295e-06
9.03489e-06
1.01496e-05
1.11831e-05
1.21488e-05
1.30414e-05
1.38744e-05
1.46544e-05
1.53847e-05
1.60829e-05
1.67376e-05
1.73668e-05
1.7975e-05
1.85666e-05
1.915e-05
1.97402e-05
2.03359e-05
2.09557e-05
2.16123e-05
2.2318e-05
2.30979e-05
2.39617e-05
2.49299e-05
2.60443e-05
2.73252e-05
2.88141e-05
3.05716e-05
3.23392e-05
3.62013e-05
2.97952e-05
7.61942e-05
-7.90739e-05
0.000276877
-2.55567e-05
-0.000501908
-0.000525159
-0.000531538
-0.000523848
-0.00050914
-0.000503491
-0.000500069
-0.00049234
-0.000483467
-0.000474822
-0.000465908
-0.000456619
-0.000447062
-0.000437289
-0.000427329
-0.000417209
-0.000406959
-0.000396602
-0.000386163
-0.000375663
-0.000365124
-0.000354567
-0.000344012
-0.000333475
-0.000322973
-0.000312522
-0.000302138
-0.000291834
-0.000281622
-0.000271514
-0.000261522
-0.000251657
-0.000241929
-0.000232347
-0.000222919
-0.000213651
-0.000204553
-0.00019563
-0.000186887
-0.000178328
-0.000169959
-0.000161783
-0.000153807
-0.000146028
-0.000138459
-0.00013109
-0.000123923
-0.000116975
-0.000110234
-0.0001037
-9.73772e-05
-9.12632e-05
-8.53576e-05
-7.96592e-05
-7.41668e-05
-6.8879e-05
-6.37944e-05
-5.89101e-05
-5.42235e-05
-4.97323e-05
-4.54336e-05
-4.13242e-05
-3.74001e-05
-3.36579e-05
-3.00919e-05
-2.66993e-05
-2.34747e-05
-2.04148e-05
-1.75142e-05
-1.47691e-05
-1.21752e-05
-9.72692e-06
-7.42066e-06
-5.24905e-06
-3.20755e-06
-1.29186e-06
5.03176e-07
2.18403e-06
3.75854e-06
5.22372e-06
6.5959e-06
7.87226e-06
9.06161e-06
1.01731e-05
1.12047e-05
1.21669e-05
1.30583e-05
1.38891e-05
1.46672e-05
1.53965e-05
1.6092e-05
1.67455e-05
1.73732e-05
1.79794e-05
1.85702e-05
1.91523e-05
1.97405e-05
2.03355e-05
2.0953e-05
2.16087e-05
2.23129e-05
2.30904e-05
2.39527e-05
2.49194e-05
2.60319e-05
2.73098e-05
2.87964e-05
3.05502e-05
3.23217e-05
3.6162e-05
2.98547e-05
7.59336e-05
-7.85338e-05
0.000276245
-2.56072e-05
-0.000500486
-0.000530354
-0.000536717
-0.000529231
-0.00051303
-0.000506798
-0.000503366
-0.000495219
-0.000485764
-0.000476661
-0.000467371
-0.000457743
-0.000447886
-0.000437853
-0.000427667
-0.000417353
-0.000406936
-0.000396437
-0.000385878
-0.000375278
-0.000364657
-0.000354034
-0.000343424
-0.000332845
-0.00032231
-0.000311836
-0.000301436
-0.000291121
-0.000280905
-0.000270797
-0.00026081
-0.000250953
-0.000241236
-0.000231668
-0.000222254
-0.000213004
-0.000203924
-0.00019502
-0.000186296
-0.000177758
-0.000169409
-0.000161255
-0.0001533
-0.000145542
-0.000137992
-0.000130645
-0.000123499
-0.000116571
-0.00010985
-0.000103336
-9.70309e-05
-9.0935e-05
-8.50469e-05
-7.93656e-05
-7.38898e-05
-6.8618e-05
-6.35485e-05
-5.86787e-05
-5.40061e-05
-4.95283e-05
-4.52423e-05
-4.11451e-05
-3.72326e-05
-3.35014e-05
-2.99462e-05
-2.65639e-05
-2.33488e-05
-2.02977e-05
-1.74055e-05
-1.46684e-05
-1.2082e-05
-9.64143e-06
-7.34178e-06
-5.17673e-06
-3.14115e-06
-1.2312e-06
5.59129e-07
2.23482e-06
3.80496e-06
5.26599e-06
6.63425e-06
7.90694e-06
9.09312e-06
1.02011e-05
1.12301e-05
1.21885e-05
1.30782e-05
1.39064e-05
1.46824e-05
1.54101e-05
1.61029e-05
1.67548e-05
1.73807e-05
1.79846e-05
1.85742e-05
1.91549e-05
1.97408e-05
2.03348e-05
2.09498e-05
2.16042e-05
2.23065e-05
2.30813e-05
2.3942e-05
2.49061e-05
2.60165e-05
2.72909e-05
2.87748e-05
3.05246e-05
3.23e-05
3.61136e-05
2.99307e-05
7.55918e-05
-7.78035e-05
0.0002752
-2.56999e-05
-0.000498549
-0.000527779
-0.000537392
-0.000532228
-0.000515892
-0.000509535
-0.00050629
-0.000497942
-0.000488057
-0.000478543
-0.000468877
-0.0004589
-0.000448727
-0.000438413
-0.000427982
-0.000417456
-0.000406856
-0.000396202
-0.000385511
-0.000374801
-0.000364089
-0.000353391
-0.000342721
-0.000332094
-0.000321524
-0.000311024
-0.000300606
-0.000290281
-0.00028006
-0.000269954
-0.000259973
-0.000250126
-0.000240422
-0.000230869
-0.000221474
-0.000212244
-0.000203185
-0.000194303
-0.000185603
-0.000177089
-0.000168765
-0.000160635
-0.000152705
-0.000144972
-0.000137446
-0.000130123
-0.000123002
-0.000116097
-0.000109399
-0.000102907
-9.66245e-05
-9.05497e-05
-8.46822e-05
-7.90209e-05
-7.35645e-05
-6.83114e-05
-6.32598e-05
-5.8407e-05
-5.37507e-05
-4.92886e-05
-4.50178e-05
-4.09349e-05
-3.70359e-05
-3.33177e-05
-2.9775e-05
-2.64047e-05
-2.32008e-05
-2.01601e-05
-1.72777e-05
-1.455e-05
-1.19727e-05
-9.54091e-06
-7.24903e-06
-5.09164e-06
-3.06297e-06
-1.15974e-06
6.24901e-07
2.29468e-06
3.85954e-06
5.31579e-06
6.67933e-06
7.9478e-06
9.13017e-06
1.0234e-05
1.12598e-05
1.22141e-05
1.31015e-05
1.39267e-05
1.47004e-05
1.54259e-05
1.61157e-05
1.67656e-05
1.73895e-05
1.7991e-05
1.85789e-05
1.9158e-05
1.97412e-05
2.03339e-05
2.09461e-05
2.1599e-05
2.22989e-05
2.30708e-05
2.39293e-05
2.48903e-05
2.59981e-05
2.72685e-05
2.87492e-05
3.04947e-05
3.22728e-05
3.6063e-05
2.9988e-05
7.5298e-05
-7.71994e-05
0.000274446
-2.57383e-05
-0.00049688
-0.000545786
-0.000551132
-0.000542066
-0.000522282
-0.000514016
-0.000509908
-0.000500915
-0.000490446
-0.000480445
-0.000470364
-0.000460016
-0.000449514
-0.000438912
-0.000428228
-0.000417483
-0.000406694
-0.000395877
-0.000385049
-0.000374224
-0.000363417
-0.000352641
-0.000341909
-0.000331234
-0.000320627
-0.0003101
-0.000299664
-0.000289329
-0.000279105
-0.000269002
-0.000259028
-0.000249194
-0.000239505
-0.00022997
-0.000220596
-0.000211388
-0.000202354
-0.000193498
-0.000184824
-0.000176336
-0.00016804
-0.000159938
-0.000152036
-0.000144331
-0.000136834
-0.000129538
-0.000122444
-0.000115566
-0.000108893
-0.000102426
-9.6168e-05
-9.0117e-05
-8.42725e-05
-7.86337e-05
-7.31993e-05
-6.79672e-05
-6.29356e-05
-5.8102e-05
-5.34641e-05
-4.90197e-05
-4.47657e-05
-4.06989e-05
-3.68153e-05
-3.31117e-05
-2.95831e-05
-2.62261e-05
-2.30348e-05
-2.00058e-05
-1.71344e-05
-1.44174e-05
-1.18501e-05
-9.42817e-06
-7.14503e-06
-4.99621e-06
-2.9753e-06
-1.07957e-06
6.98566e-07
2.36181e-06
3.92067e-06
5.3716e-06
6.72979e-06
7.99355e-06
9.17156e-06
1.02708e-05
1.12929e-05
1.22429e-05
1.31274e-05
1.39495e-05
1.47205e-05
1.54434e-05
1.61301e-05
1.67776e-05
1.73992e-05
1.7998e-05
1.8584e-05
1.91613e-05
1.97415e-05
2.03327e-05
2.09418e-05
2.15929e-05
2.22902e-05
2.30588e-05
2.39148e-05
2.48722e-05
2.59771e-05
2.7243e-05
2.872e-05
3.04609e-05
3.22404e-05
3.60109e-05
3.00271e-05
7.50447e-05
-7.66871e-05
0.00027377
-2.57816e-05
-0.00049541
-0.00055967
-0.000562817
-0.000551221
-0.000528984
-0.000518992
-0.0005138
-0.000503995
-0.000492858
-0.000482312
-0.000471776
-0.000461038
-0.000450197
-0.000439298
-0.000428358
-0.000417389
-0.000406408
-0.000395428
-0.000384461
-0.00037352
-0.000362617
-0.000351762
-0.000340968
-0.000330244
-0.0003196
-0.000309048
-0.000298596
-0.000288253
-0.000278028
-0.000267929
-0.000257966
-0.000248146
-0.000238476
-0.000228962
-0.000219611
-0.00021043
-0.000201423
-0.000192596
-0.000183952
-0.000175495
-0.000167229
-0.000159159
-0.000151289
-0.000143615
-0.000136149
-0.000128885
-0.00012182
-0.000114971
-0.000108327
-0.000101889
-9.56576e-05
-8.96333e-05
-8.38147e-05
-7.82011e-05
-7.2791e-05
-6.75824e-05
-6.25732e-05
-5.7761e-05
-5.31437e-05
-4.87191e-05
-4.44839e-05
-4.04351e-05
-3.65685e-05
-3.28814e-05
-2.93684e-05
-2.60263e-05
-2.2849e-05
-1.98331e-05
-1.69742e-05
-1.42691e-05
-1.1713e-05
-9.30194e-06
-7.02859e-06
-4.88932e-06
-2.87707e-06
-9.89692e-07
7.81067e-07
2.43707e-06
3.98916e-06
5.43411e-06
6.7863e-06
8.04478e-06
9.21788e-06
1.03121e-05
1.13299e-05
1.22754e-05
1.31565e-05
1.3975e-05
1.47432e-05
1.54629e-05
1.61464e-05
1.67911e-05
1.74102e-05
1.80062e-05
1.85898e-05
1.91651e-05
1.97421e-05
2.03316e-05
2.09374e-05
2.15863e-05
2.22808e-05
2.30458e-05
2.3899e-05
2.48523e-05
2.59539e-05
2.7215e-05
2.86879e-05
3.0424e-05
3.22039e-05
3.59573e-05
3.00539e-05
7.48123e-05
-7.62109e-05
0.000273088
-2.58011e-05
-0.000493952
-0.000568873
-0.00057133
-0.000558694
-0.000535085
-0.000523814
-0.000517625
-0.000507015
-0.0004952
-0.000484088
-0.000473079
-0.000461937
-0.000450748
-0.00043955
-0.00042835
-0.000417158
-0.000405985
-0.000394841
-0.000383735
-0.000372679
-0.00036168
-0.000350747
-0.000339891
-0.00032912
-0.000318442
-0.000307865
-0.000297399
-0.00028705
-0.000276826
-0.000266736
-0.000256786
-0.000246983
-0.000237334
-0.000227845
-0.000218522
-0.00020937
-0.000200394
-0.000191599
-0.000182988
-0.000174565
-0.000166334
-0.000158299
-0.000150464
-0.000142825
-0.000135394
-0.000128163
-0.000121131
-0.000114315
-0.000107703
-0.000101295
-9.50946e-05
-8.90996e-05
-8.33096e-05
-7.77238e-05
-7.23407e-05
-6.71579e-05
-6.21734e-05
-5.73849e-05
-5.27903e-05
-4.83875e-05
-4.41731e-05
-4.01441e-05
-3.62964e-05
-3.26273e-05
-2.91316e-05
-2.5806e-05
-2.2644e-05
-1.96427e-05
-1.67975e-05
-1.41055e-05
-1.15619e-05
-9.16267e-06
-6.90013e-06
-4.77136e-06
-2.76865e-06
-8.90463e-07
8.72091e-07
2.52014e-06
4.06475e-06
5.50305e-06
6.84865e-06
8.10129e-06