/*--------------------------------*- C++ -*----------------------------------*\
| =========                 |                                                 |
| \\      /  F ield         | OpenFOAM: The Open Source CFD Toolbox           |
|  \\    /   O peration     | Version:  2412                                  |
|   \\  /    A nd           | Website:  www.openfoam.com                      |
|    \\/     M anipulation  |                                                 |
\*---------------------------------------------------------------------------*/
FoamFile
{
    version     2.0;
    format      ascii;
    arch        "LSB;label=32;scalar=64";
    class       surfaceScalarField;
    location    "0.5";
    object      phi;
}
// * * * * * * * * * * * * * * * * * * * * * * * * * * * * * * * * * * * * * //

dimensions      [0 3 -1 0 0 0 0];

oriented        oriented;

internalField   nonuniform List<scalar> 
126304
(
0.00502377
2.70215e-05
-2.99534e-08
0.00501064
1.31339e-05
-1.04804e-08
0.00501784
-7.19326e-06
-1.40459e-10
0.00502081
-2.98342e-06
1.26502e-08
0.00502234
-1.5384e-06
6.30148e-09
0.00502305
-7.16077e-07
7.46438e-09
0.00502309
-4.84315e-08
6.12527e-09
0.0050227
3.79017e-07
9.70132e-09
0.00502204
6.55549e-07
6.68514e-09
0.00502119
8.39335e-07
7.00705e-09
0.00502022
9.69148e-07
7.35983e-09
0.00501914
1.06807e-06
6.65999e-09
0.00501799
1.14707e-06
7.35296e-09
0.00501676
1.21747e-06
6.68602e-09
0.00501547
1.2809e-06
7.30747e-09
0.00501413
1.34205e-06
6.81772e-09
0.00501272
1.40384e-06
6.07259e-09
0.00501124
1.4647e-06
7.11443e-09
0.00500971
1.5275e-06
6.92204e-09
0.00500811
1.59367e-06
5.68363e-09
0.00500644
1.6607e-06
5.96935e-09
0.00500471
1.73061e-06
5.80017e-09
0.0050029
1.80307e-06
5.70023e-09
0.00500101
1.87895e-06
4.75364e-09
0.00499905
1.9563e-06
5.33411e-09
0.00499701
2.03805e-06
5.0685e-09
0.00499488
2.12289e-06
4.46665e-09
0.00499267
2.21062e-06
4.1397e-09
0.00499036
2.30192e-06
3.66579e-09
0.00498796
2.3967e-06
3.36329e-09
0.00498546
2.49527e-06
3.33728e-09
0.00498286
2.59809e-06
3.04211e-09
0.00498015
2.70472e-06
2.99609e-09
0.00497734
2.81674e-06
2.27932e-09
0.0049744
2.93321e-06
2.22417e-09
0.00497134
3.05557e-06
1.77147e-09
0.00496816
3.18383e-06
1.46864e-09
0.00496484
3.31918e-06
8.60858e-10
0.00496137
3.46203e-06
4.01479e-10
0.00495776
3.61395e-06
-2.00103e-10
0.00495399
3.77573e-06
-3.47546e-10
0.00495004
3.94991e-06
-7.60513e-10
0.0049459
4.13817e-06
-1.23937e-09
0.00494156
4.34337e-06
-1.71438e-09
0.00493699
4.56935e-06
-2.2294e-09
0.00493217
4.82044e-06
-2.62894e-09
0.00492707
5.10296e-06
-3.08863e-09
0.00492165
5.42486e-06
-3.53097e-09
0.00491586
5.79664e-06
-3.54299e-09
0.00490963
6.2334e-06
-3.4641e-09
0.00490287
6.76176e-06
-3.39874e-09
0.00489548
7.39238e-06
-3.26003e-09
0.00488727
8.21077e-06
-3.16839e-09
0.00487735
9.92884e-06
-3.22334e-09
1.07124e-05
0.00486664
-3.07294e-09
0.00502329
5.44916e-05
0.00500994
2.64795e-05
0.00501814
-1.53956e-05
0.00502099
-5.82473e-06
0.00502245
-2.99994e-06
0.00502312
-1.39068e-06
0.00502313
-6.08042e-08
0.00502272
7.89745e-07
0.00502205
1.33165e-06
0.00502119
1.69377e-06
0.00502021
1.9498e-06
0.00501913
2.14525e-06
0.00501798
2.30323e-06
0.00501675
2.4413e-06
0.00501547
2.56859e-06
0.00501412
2.69096e-06
0.00501271
2.81245e-06
0.00501124
2.9349e-06
0.00500971
3.06054e-06
0.00500811
3.19088e-06
0.00500644
3.32547e-06
0.00500471
3.465e-06
0.0050029
3.60911e-06
0.00500102
3.75995e-06
0.00499906
3.91592e-06
0.00499702
4.07827e-06
0.0049949
4.24659e-06
0.00499269
4.42161e-06
0.00499039
4.60383e-06
0.00498799
4.79296e-06
0.0049855
4.98945e-06
0.0049829
5.1942e-06
0.0049802
5.40706e-06
0.00497738
5.62985e-06
0.00497446
5.86201e-06
0.00497141
6.10548e-06
0.00496823
6.36111e-06
0.00496492
6.63042e-06
0.00496146
6.91444e-06
0.00495786
7.21589e-06
0.0049541
7.53729e-06
0.00495017
7.88294e-06
0.00494605
8.25638e-06
0.00494173
8.66297e-06
0.00493719
9.10967e-06
0.00493241
9.60501e-06
0.00492735
1.01612e-05
0.00492198
1.07938e-05
0.00491625
1.15227e-05
0.00491011
1.23759e-05
0.00490347
1.34044e-05
0.00489623
1.46284e-05
0.00488823
1.62139e-05
0.0048786
1.95611e-05
2.11034e-05
0.0048682
0.00502235
8.28951e-05
0.00500852
4.03137e-05
0.0050188
-2.56782e-05
0.00502132
-8.33863e-06
0.00502263
-4.30913e-06
0.00502323
-1.9916e-06
0.00502317
-9.61933e-09
0.00502272
1.24345e-06
0.00502202
2.03378e-06
0.00502115
2.56387e-06
0.00502016
2.94027e-06
0.00501908
3.22751e-06
0.00501792
3.46156e-06
0.00501669
3.66578e-06
0.00501541
3.85606e-06
0.00501406
4.03814e-06
0.00501265
4.21887e-06
0.00501118
4.40249e-06
0.00500965
4.59089e-06
0.00500806
4.7849e-06
0.0050064
4.98645e-06
0.00500467
5.1951e-06
0.00500287
5.41085e-06
0.00500099
5.63617e-06
0.00499904
5.86968e-06
0.004997
6.11242e-06
0.00499489
6.36424e-06
0.00499268
6.62623e-06
0.00499039
6.89856e-06
0.004988
7.18115e-06
0.00498551
7.47474e-06
0.00498293
7.78062e-06
0.00498023
8.09905e-06
0.00497743
8.43144e-06
0.00497452
8.77821e-06
0.00497148
9.14148e-06
0.00496832
9.52266e-06
0.00496503
9.92364e-06
0.00496159
1.03463e-05
0.00495802
1.07947e-05
0.00495428
1.12726e-05
0.00495038
1.17853e-05
0.0049463
1.23382e-05
0.00494202
1.2939e-05
0.00493753
1.35972e-05
0.00493281
1.43252e-05
0.00492783
1.51397e-05
0.00492256
1.60623e-05
0.00491697
1.712e-05
0.00491099
1.83507e-05
0.00490457
1.98246e-05
0.00489763
2.15663e-05
0.00489004
2.38081e-05
0.00488103
2.85752e-05
3.07763e-05
0.00487135
0.00502119
0.000112461
0.00500652
5.49843e-05
0.00501992
-3.90797e-05
0.00502173
-1.01475e-05
0.00502278
-5.35685e-06
0.00502326
-2.47687e-06
0.00502311
1.4123e-07
0.00502259
1.76239e-06
0.00502185
2.77586e-06
0.00502096
3.45807e-06
0.00501995
3.94549e-06
0.00501886
4.31822e-06
0.0050177
4.62436e-06
0.00501647
4.89236e-06
0.00501519
5.14338e-06
0.00501384
5.38401e-06
0.00501244
5.6234e-06
0.00501097
5.86713e-06
0.00500944
6.11764e-06
0.00500785
6.3751e-06
0.0050062
6.64258e-06
0.00500447
6.91954e-06
0.00500268
7.20679e-06
0.00500081
7.50616e-06
0.00499886
7.81628e-06
0.00499683
8.13885e-06
0.00499472
8.47384e-06
0.00499253
8.82187e-06
0.00499024
9.18322e-06
0.00498787
9.55828e-06
0.00498539
9.94817e-06
0.00498282
1.03542e-05
0.00498014
1.07768e-05
0.00497736
1.12171e-05
0.00497446
1.16768e-05
0.00497144
1.21576e-05
0.0049683
1.26619e-05
0.00496503
1.31917e-05
0.00496163
1.375e-05
0.00495808
1.43413e-05
0.00495439
1.49707e-05
0.00495053
1.5644e-05
0.0049465
1.63686e-05
0.00494228
1.71535e-05
0.00493787
1.80108e-05
0.00493324
1.89553e-05
0.00492837
2.00068e-05
0.00492324
2.11908e-05
0.00491782
2.25393e-05
0.00491208
2.40957e-05
0.00490596
2.59413e-05
0.00489943
2.80963e-05
0.00489241
3.08312e-05
0.00488435
3.66394e-05
3.91941e-05
0.00487593
0.00502093
0.000142289
0.00500472
7.11889e-05
0.00502186
-5.62153e-05
0.00502226
-1.05504e-05
0.00502289
-5.98208e-06
0.0050232
-2.79226e-06
0.00502291
4.33018e-07
0.0050223
2.37084e-06
0.00502151
3.57291e-06
0.00502058
4.3864e-06
0.00501955
4.97206e-06
0.00501845
5.4223e-06
0.00501728
5.79549e-06
0.00501604
6.12435e-06
0.00501475
6.43315e-06
0.00501341
6.73085e-06
0.005012
7.02783e-06
0.00501054
7.33069e-06
0.00500902
7.64224e-06
0.00500743
7.96256e-06
0.00500578
8.29515e-06
0.00500405
8.63991e-06
0.00500226
8.99764e-06
0.0050004
9.37037e-06
0.00499846
9.75681e-06
0.00499644
1.01586e-05
0.00499434
1.05756e-05
0.00499215
1.10084e-05
0.00498988
1.14577e-05
0.00498751
1.19246e-05
0.00498505
1.24096e-05
0.00498249
1.29143e-05
0.00497983
1.34392e-05
0.00497706
1.39857e-05
0.00497418
1.45559e-05
0.00497118
1.5152e-05
0.00496807
1.57765e-05
0.00496483
1.64319e-05
0.00496146
1.71219e-05
0.00495795
1.78513e-05
0.00495429
1.86259e-05
0.00495048
1.94523e-05
0.00494651
2.03393e-05
0.00494237
2.12969e-05
0.00493804
2.23382e-05
0.00493352
2.34801e-05
0.00492878
2.4744e-05
0.00492381
2.61579e-05
0.0049186
2.77554e-05
0.00491311
2.95819e-05
0.00490733
3.17218e-05
0.00490124
3.41849e-05
0.00489482
3.72504e-05
0.00488787
4.35935e-05
4.60835e-05
0.00488098
0.00502503
0.000168012
0.00500555
9.06683e-05
0.0050257
-7.63584e-05
0.00502344
-8.29632e-06
0.00502345
-5.98611e-06
0.00502353
-2.87441e-06
0.00502305
9.10307e-07
0.00502233
3.09289e-06
0.00502146
4.43899e-06
0.00502049
5.35843e-06
0.00501944
6.02701e-06
0.00501831
6.54568e-06
0.00501713
6.97971e-06
0.00501589
7.3654e-06
0.00501459
7.72884e-06
0.00501324
8.08212e-06
0.00501183
8.43532e-06
0.00501037
8.79609e-06
0.00500884
9.1674e-06
0.00500726
9.54977e-06
0.00500561
9.94671e-06
0.00500389
1.03588e-05
0.0050021
1.07864e-05
0.00500024
1.12318e-05
0.0049983
1.16938e-05
0.00499628
1.21737e-05
0.00499419
1.26719e-05
0.00499201
1.31888e-05
0.00498974
1.37252e-05
0.00498738
1.42828e-05
0.00498493
1.48615e-05
0.00498238
1.54631e-05
0.00497973
1.60886e-05
0.00497698
1.67395e-05
0.00497412
1.74184e-05
0.00497114
1.81274e-05
0.00496805
1.88692e-05
0.00496483
1.96466e-05
0.00496149
2.0464e-05
0.00495802
2.13264e-05
0.0049544
2.224e-05
0.00495064
2.3212e-05
0.00494673
2.42517e-05
0.00494266
2.53698e-05
0.00493841
2.65799e-05
0.00493399
2.78998e-05
0.00492939
2.93518e-05
0.00492458
3.09642e-05
0.00491956
3.27714e-05
0.00491433
3.48203e-05
0.00490885
3.71931e-05
0.00490315
3.98928e-05
0.0048972
4.31997e-05
0.00489115
4.96364e-05
5.23271e-05
0.00488491
0.00503555
0.000183218
0.00501531
0.000110905
0.00503037
-9.14193e-05
0.00502593
-3.85368e-06
0.00502531
-5.35949e-06
0.00502503
-2.59584e-06
0.00502434
1.59868e-06
0.0050235
3.92998e-06
0.00502257
5.36967e-06
0.00502156
6.36685e-06
0.00502049
7.10139e-06
0.00501936
7.67864e-06
0.00501817
8.16702e-06
0.00501693
8.60555e-06
0.00501564
9.02076e-06
0.00501429
9.42771e-06
0.00501289
9.83556e-06
0.00501143
1.02531e-05
0.00500992
1.06833e-05
0.00500834
1.11271e-05
0.0050067
1.15876e-05
0.00500499
1.20666e-05
0.00500321
1.25635e-05
0.00500137
1.30806e-05
0.00499944
1.36175e-05
0.00499744
1.41747e-05
0.00499536
1.47531e-05
0.00499319
1.53533e-05
0.00499094
1.59774e-05
0.0049886
1.66225e-05
0.00498617
1.7294e-05
0.00498364
1.7991e-05
0.00498102
1.87154e-05
0.00497829
1.9469e-05
0.00497545
2.02544e-05
0.0049725
2.10735e-05
0.00496944
2.19294e-05
0.00496627
2.28251e-05
0.00496296
2.37656e-05
0.00495953
2.47558e-05
0.00495597
2.5802e-05
0.00495227
2.69117e-05
0.00494843
2.80941e-05
0.00494444
2.93603e-05
0.0049403
3.07239e-05
0.00493599
3.22026e-05
0.00493153
3.3818e-05
0.00492689
3.55977e-05
0.00492209
3.75764e-05
0.00491711
3.98035e-05
0.00491194
4.23591e-05
0.00490657
4.52626e-05
0.00490091
4.88606e-05
0.00489554
5.5007e-05
0.00488908
5.87853e-05
0.00487
-3.35814e-06
-2.94985e-09
0.00487983
-9.83233e-06
-2.83811e-09
0.00489425
-1.44128e-05
-2.75771e-09
0.00490933
-1.50814e-05
-2.64159e-09
0.00492291
-1.35779e-05
-2.70236e-09
0.00493436
-1.14438e-05
-2.78695e-09
0.00494371
-9.34461e-06
-2.83769e-09
0.00495121
-7.49795e-06
-2.89101e-09
0.00495712
-5.9109e-06
-2.93846e-09
0.00496168
-4.55842e-06
-2.81505e-09
0.00496508
-3.39662e-06
-2.73844e-09
0.00496743
-2.3396e-06
-2.81911e-09
0.00496869
-1.26393e-06
-2.91939e-09
0.0049687
-8.5986e-09
-2.7485e-09
0.0049676
1.10917e-06
-1.61828e-09
0.00496537
2.22483e-06
-1.4508e-09
0.00496194
3.4354e-06
-2.17414e-09
0.00495721
4.72872e-06
-2.9582e-09
0.0049511
6.12216e-06
-3.13806e-09
0.00494346
7.64214e-06
-2.8631e-09
0.00493415
9.31133e-06
-2.2347e-09
0.00492295
1.11966e-05
-1.49386e-09
0.00490962
1.33341e-05
-1.14067e-09
0.00489396
1.56608e-05
-7.9692e-10
0.00487573
1.82329e-05
-4.21335e-10
0.00485472
2.10023e-05
-1.2728e-10
0.00483081
2.39168e-05
7.13195e-11
0.00480372
2.70862e-05
1.10582e-10
0.00477296
3.07582e-05
6.27638e-11
0.00473793
3.50303e-05
-2.30551e-11
0.00469792
4.00161e-05
-3.22446e-10
0.0046521
4.58222e-05
-5.73503e-10
0.00459982
5.22715e-05
-5.9297e-10
0.00454045
5.93771e-05
-6.10722e-10
0.0044728
6.76441e-05
-1.99183e-10
0.00439543
7.73737e-05
3.74316e-10
0.00430645
8.89775e-05
5.93619e-10
0.0042036
0.00010285
6.08983e-10
0.00408412
0.000119483
6.07907e-10
0.00394453
0.000139582
7.46617e-10
0.00378027
0.000164268
9.27775e-10
0.00358554
0.000194726
1.57926e-09
0.00335429
0.000231251
2.36594e-09
0.00307824
0.000276041
2.18902e-09
0.00274442
0.000333816
2.63074e-09
0.00234013
0.000404293
2.05087e-09
0.00183577
0.000504355
2.54876e-09
0.0012574
0.000578371
3.18277e-09
0.000535658
0.000721738
1.23308e-09
0.000535657
1.21727e-09
0.00487042
-5.57097e-06
0.0048787
-1.81177e-05
0.00489123
-2.69359e-05
0.0049042
-2.80592e-05
0.00491567
-2.50474e-05
0.00492501
-2.07758e-05
0.00493232
-1.66553e-05
0.00493785
-1.30295e-05
0.00494184
-9.90027e-06
0.0049445
-7.22101e-06
0.00494606
-4.95498e-06
0.00494661
-2.89047e-06
0.00494597
-6.23344e-07
0.00494426
1.69878e-06
0.00494155
3.81564e-06
0.00493756
6.21861e-06
0.00493231
8.6906e-06
0.00492564
1.13895e-05
0.00491754
1.42306e-05
0.00490794
1.72388e-05
0.00489668
2.05692e-05
0.0048835
2.43743e-05
0.00486811
2.87316e-05
0.00485034
3.34233e-05
0.00482994
3.86343e-05
0.00480674
4.42015e-05
0.00478068
4.9981e-05
0.00475151
5.62577e-05
0.00471864
6.36255e-05
0.00468143
7.22357e-05
0.0046391
8.23489e-05
0.00459074
9.41861e-05
0.00453591
0.000107095
0.00447414
0.000121153
0.00440409
0.000137691
0.00432426
0.000157202
0.00423273
0.000180509
0.00412724
0.000208346
0.00400508
0.000241639
0.0038629
0.000281757
0.0036961
0.000331077
0.00349874
0.00039208
0.00326486
0.00046513
0.002987
0.000553903
0.00265393
0.00066689
0.00225376
0.00080446
0.00175783
0.00100029
0.00118357
0.00115262
0.000487836
0.00141748
0.00102349
0.00487107
-5.28976e-06
0.00487622
-2.32619e-05
0.00488484
-3.55561e-05
0.00489358
-3.68054e-05
0.00490079
-3.22498e-05
0.004906
-2.59858e-05
0.00490936
-2.00162e-05
0.00491106
-1.47335e-05
0.00491127
-1.01063e-05
0.00491018
-6.13085e-06
0.00490814
-2.91952e-06
0.0049054
-1.50677e-07
0.00490147
3.30632e-06
0.00489637
6.80438e-06
0.00488991
1.02688e-05
0.00488233
1.38012e-05
0.00487347
1.75455e-05
0.00486332
2.15441e-05
0.00485176
2.57915e-05
0.00483864
3.03545e-05
0.00482384
3.53744e-05
0.00480712
4.10951e-05
0.00478808
4.77714e-05
0.0047666
5.4905e-05
0.00474234
6.28916e-05
0.00471534
7.11968e-05
0.00468572
7.96093e-05
0.0046531
8.88748e-05
0.00461671
0.000100017
0.00457593
0.000113012
0.00453006
0.000128215
0.0044782
0.000146051
0.00441988
0.000165415
0.00435465
0.000186383
0.00428109
0.000211254
0.00419764
0.000240649
0.00410231
0.000275835
0.00399291
0.000317752
0.00386686
0.000367681
0.00372078
0.00042784
0.00355036
0.000501502
0.00334938
0.000593052
0.00311364
0.000700874
0.00283415
0.000833394
0.00250159
0.000999445
0.00209617
0.00120989
0.00161158
0.00148487
0.00104108
0.00172313
0.000396166
0.00206239
0.00141966
0.00487183
-1.18864e-06
0.00487198
-2.34119e-05
0.00487424
-3.78167e-05
0.00487633
-3.89013e-05
0.00487675
-3.2667e-05
0.00487567
-2.49033e-05
0.00487327
-1.76206e-05
0.00486975
-1.12067e-05
0.00486462
-4.98085e-06
0.00485824
2.49418e-07
0.00485058
4.74181e-06
0.004842
8.43166e-06
0.00483262
1.26859e-05
0.00482241
1.70108e-05
0.0048112
2.14777e-05
0.00479885
2.61563e-05
0.00478528
3.11149e-05
0.00477041
3.64147e-05
0.00475406
4.21343e-05
0.00473609
4.83318e-05
0.00471635
5.5107e-05
0.00469459
6.28534e-05
0.0046704
7.19687e-05
0.004644
8.13063e-05
0.00461499
9.19004e-05
0.00458344
0.000102742
0.00454957
0.000113479
0.00451278
0.000125668
0.00447198
0.000140814
0.00442659
0.000158402
0.00437605
0.000178758
0.0043199
0.000202203
0.00425785
0.000227458
0.00418921
0.000255028
0.00411249
0.000287978
0.00402584
0.000327297
0.00392734
0.000374335
0.00381515
0.000429942
0.00368701
0.00049582
0.00353986
0.000574987
0.00337057
0.00067079
0.00317405
0.000789579
0.00293645
0.000938466
0.00264971
0.00112014
0.00230291
0.00134624
0.00189069
0.00162211
0.00140464
0.00197092
0.000844594
0.00228318
0.000275498
0.00263148
0.00169516
0.00487223
7.55985e-06
0.00486523
-1.64138e-05
0.00485859
-3.11758e-05
0.00485063
-3.09434e-05
0.00484126
-2.32934e-05
0.00483096
-1.46012e-05
0.00482018
-6.83734e-06
0.00480937
-4.05777e-07
0.00479799
6.40459e-06
0.0047856
1.26398e-05
0.00477234
1.80018e-05
0.00475781
2.29558e-05
0.00474246
2.80421e-05
0.00472624
3.32239e-05
0.0047091
3.86213e-05
0.00469094
4.43186e-05
0.00467167
5.03845e-05
0.00465121
5.68704e-05
0.00462949
6.38589e-05
0.00460638
7.14422e-05
0.00458169
7.97955e-05
0.00455483
8.97112e-05
0.00452539
0.000101408
0.00449514
0.000111556
0.00446305
0.000123995
0.0044287
0.000137086
0.00439276
0.000149423
0.00435501
0.000163422
0.00431481
0.000181009
0.00427207
0.000201141
0.00422694
0.000223891
0.0041773
0.000251845
0.00411795
0.00028681
0.00404681
0.000326159
0.00396542
0.000369376
0.00387289
0.000419819
0.00376753
0.000479702
0.00364734
0.00055013
0.00350982
0.000633336
0.00335078
0.000734036
0.00316564
0.000855926
0.0029496
0.00100562
0.00269596
0.00119211
0.00239538
0.00142072
0.00203729
0.00170433
0.00160052
0.00205887
0.00111287
0.00245857
0.000558389
0.00283766
0.000134786
0.00305509
0.00182994
0.0048688
2.36749e-05
0.00485127
1.11651e-06
0.00483309
-1.30022e-05
0.00481403
-1.18862e-05
0.00479378
-3.04108e-06
0.00477367
5.50974e-06
0.00475348
1.33559e-05
0.00473262
2.04543e-05
0.00471182
2.72069e-05
0.004691
3.34588e-05
0.00466972
3.92803e-05
0.00464779
4.48828e-05
0.0046253
5.05361e-05
0.00460217
5.63488e-05
0.00457838
6.24126e-05
0.0045539
6.87966e-05
0.0045287
7.55865e-05
0.0045027
8.28718e-05
0.00447583
9.07331e-05
0.00444807
9.92024e-05
0.00441958
0.000108279
0.00439088
0.000118411
0.00436209
0.000130204
0.00433236
0.000141283
0.00430263
0.000153724
0.0042694
0.000170319
0.00422979
0.000189037
0.00418477
0.000208442
0.0041357
0.000230074
0.00408132
0.00025552
0.0040206
0.000284609
0.00395387
0.000318574
0.00388139
0.000359291
0.00380171
0.000405842
0.0037129
0.000458181
0.00361349
0.000519234
0.00350213
0.000591057
0.00337599
0.000676272
0.00323232
0.000777011
0.0030685
0.000897852
0.00287998
0.00104445
0.00266189
0.00122371
0.00240893
0.00144508
0.00211207
0.00171758
0.00176137
0.00205503
0.00135386
0.00246638
0.000868748
0.00294369
0.000360624
0.00334578
4.00371e-05
0.00337567
0.00186998
0.00485924
5.35164e-05
0.00482557
3.47807e-05
0.00478952
2.30549e-05
0.00475501
2.26159e-05
0.00472324
2.87305e-05
0.00469257
3.61874e-05
0.00466231
4.36162e-05
0.004632
5.07586e-05
0.00460157
5.76336e-05
0.0045708
6.42299e-05
0.00453946
7.06186e-05
0.00450742
7.69266e-05
0.00447465
8.33051e-05
0.00444114
8.98617e-05
0.00440687
9.66807e-05
0.00437182
0.000103844
0.00433599
0.000111418
0.00429941
0.000119452
0.00426219
0.000127958
0.00422453
0.000136857
0.00418687
0.000145942
0.0041498
0.000155479
0.00411168
0.000168328
0.00406626
0.000186698
0.00401602
0.000203964
0.00396314
0.000223198
0.00390703
0.000245151
0.00384707
0.000268397
0.00378296
0.000294191
0.00371377
0.000324708
0.00363858
0.000359797
0.00355666
0.000400494
0.00346764
0.000448313
0.00337057
0.000502908
0.0032639
0.000564858
0.00314599
0.000637139
0.00301513
0.00072192
0.00286895
0.000822449
0.00270467
0.000941295
0.00251972
0.0010828
0.00231031
0.00125385
0.00207296
0.00146106
0.00180439
0.00171365
0.00150081
0.00202116
0.00116236
0.00239348
0.000791288
0.00283745
0.000445001
0.00328997
0.00011771
0.00367307
0.000137437
0.00335594
0.00200742
-0.000389432
0.000389439
-6.33633e-09
-0.000491316
0.000101889
-4.49693e-09
-0.000190359
-0.000300956
-9.09222e-10
0.000378624
-0.000568986
2.55637e-09
0.00102199
-0.000643368
3.36098e-09
0.0016199
-0.000597919
3.59866e-09
0.00213848
-0.000518579
3.87551e-09
0.0025742
-0.00043573
4.24727e-09
0.00293547
-0.000361264
3.93109e-09
0.00323458
-0.000299114
3.62177e-09
0.00348307
-0.000248497
3.54624e-09
0.00369035
-0.000207288
3.30293e-09
0.00386369
-0.00017334
2.98805e-09
0.00400963
-0.000145944
2.76245e-09
0.0041337
-0.000124071
2.49177e-09
0.00424004
-0.000106339
2.15336e-09
0.00433169
-9.16527e-05
1.76895e-09
0.00441116
-7.94739e-05
1.49085e-09
0.00448047
-6.93149e-05
1.41841e-09
0.00454083
-6.03527e-05
1.46401e-09
0.00459328
-5.24545e-05
1.62646e-09
0.00463901
-4.57315e-05
2.55213e-09
0.00467903
-4.00232e-05
4.53137e-09
0.00471419
-3.51749e-05
8.02601e-09
0.00474514
-3.09591e-05
9.58087e-09
0.00477236
-2.72301e-05
9.98302e-09
0.00479613
-2.37752e-05
1.02674e-08
0.00481679
-2.06734e-05
9.95948e-09
0.00483468
-1.78953e-05
9.7721e-09
0.00485008
-1.54113e-05
9.4443e-09
0.00486331
-1.32386e-05
9.22948e-09
0.00487463
-1.13336e-05
9.16692e-09
0.00488424
-9.62052e-06
9.0639e-09
0.00489232
-8.08205e-06
8.80309e-09
0.00489903
-6.72193e-06
8.47802e-09
0.00490452
-5.50291e-06
8.16848e-09
0.00490893
-4.41451e-06
8.02004e-09
0.00491238
-3.45464e-06
7.90214e-09
0.00491498
-2.60942e-06
7.80757e-09
0.00491686
-1.88857e-06
7.75317e-09
0.00491812
-1.2656e-06
7.73918e-09
0.00491888
-7.71711e-07
7.91638e-09
0.0049193
-4.23704e-07
8.3541e-09
0.00491947
-1.83431e-07
8.46076e-09
0.0049196
-1.40404e-07
8.47154e-09
0.0049199
-3.08122e-07
8.31081e-09
0.00492064
-7.48915e-07
8.60916e-09
0.00492232
-1.68327e-06
8.85208e-09
0.00492611
-3.79896e-06
9.19664e-09
-5.62088e-06
0.00493172
9.60635e-09
-0.00033395
0.000723388
-0.00040644
0.000174379
-0.000112736
-0.000594661
0.000423629
-0.00110535
0.00102404
-0.00124378
0.00159585
-0.00116973
0.0020985
-0.00102123
0.00252275
-0.000859973
0.00287694
-0.000715461
0.00317224
-0.000594417
0.00341899
-0.000495245
0.00362576
-0.000414056
0.00379941
-0.000346986
0.00394639
-0.000292926
0.00407205
-0.000249727
0.00418012
-0.000214414
0.00427364
-0.000185168
0.00435509
-0.000160929
0.00442665
-0.000140872
0.00448927
-0.000122973
0.00454389
-0.000107072
0.00459172
-9.35643e-05
0.0046338
-8.21013e-05
0.00467103
-7.24067e-05
0.00470407
-6.39957e-05
0.00473344
-5.66098e-05
0.00475931
-4.96374e-05
0.00478203
-4.33943e-05
0.00480193
-3.77926e-05
0.00481928
-3.27626e-05
0.00483442
-2.83782e-05
0.00484763
-2.45489e-05
0.00485914
-2.11311e-05
0.00486912
-1.80587e-05
0.00487768
-1.52836e-05
0.004885
-1.28192e-05
0.00489116
-1.05829e-05
0.0048963
-8.59225e-06
0.00490058
-6.88458e-06
0.00490405
-5.36314e-06
0.00490689
-4.10327e-06
0.00490918
-3.06468e-06
0.00491102
-2.26569e-06
0.00491261
-1.76896e-06
0.00491406
-1.59069e-06
0.00491561
-1.85386e-06
0.00491751
-2.65658e-06
0.00492014
-4.30835e-06
0.00492461
-8.26649e-06
-1.17163e-05
0.0049307
-0.000215006
0.000938394
-0.000238057
0.000197431
5.68957e-05
-0.000889613
0.000514322
-0.00156278
0.00105637
-0.00178583
0.00157908
-0.00169244
0.00204115
-0.0014833
0.00244083
-0.00125965
0.00277958
-0.00105422
0.00306489
-0.000879724
0.00330699
-0.000737347
0.00351241
-0.000619473
0.003686
-0.000520577
0.00383439
-0.000441311
0.00396219
-0.000377534
0.00407279
-0.000325013
0.00416913
-0.000281508
0.00425361
-0.000245407
0.00432834
-0.000215598
0.00439421
-0.000188852
0.0044522
-0.000165057
0.00450349
-0.000144859
0.00454901
-0.000127619
0.00458968
-0.000113071
0.0046262
-0.00010052
0.00465933
-8.97397e-05
0.00468889
-7.91974e-05
0.00471529
-6.97915e-05
0.0047388
-6.13031e-05
0.00475969
-5.36542e-05
0.00477834
-4.70335e-05
0.00479504
-4.12476e-05
0.00480998
-3.60697e-05
0.00482333
-3.14122e-05
0.00483529
-2.72396e-05
0.00484596
-2.34922e-05
0.00485551
-2.01262e-05
0.00486401
-1.70957e-05
0.00487155
-1.44223e-05
0.00487827
-1.20833e-05
0.00488424
-1.00785e-05
0.00488959
-8.41247e-06
0.00489443
-7.10948e-06
0.00489888
-6.21589e-06
0.0049031
-5.80502e-06
0.00490721
-5.97209e-06
0.00491133
-6.76868e-06
0.00491574
-8.71739e-06
0.00492147
-1.39979e-05
-1.86541e-05
0.0049284
-6.17547e-06
0.00094457
-6.56349e-06
0.000197819
0.000242818
-0.00113899
0.000623899
-0.00194386
0.00108307
-0.002245
0.00154679
-0.00215617
0.00197477
-0.00191128
0.00235025
-0.00163512
0.00267285
-0.00137682
0.00294669
-0.00115356
0.00317568
-0.000966335
0.00336945
-0.000813241
0.00353873
-0.000689853
0.00368663
-0.000589211
0.0038152
-0.000506105
0.00392738
-0.000437196
0.00402594
-0.000380073
0.00411338
-0.000332841
0.00419165
-0.000293865
0.00426142
-0.000258627
0.00432344
-0.000227081
0.00437889
-0.000200306
0.00442858
-0.000177304
0.0044734
-0.000157899
0.00451416
-0.000141276
0.00455174
-0.000127317
0.0045859
-0.000113358
0.00461723
-0.000101128
0.00464576
-8.9826e-05
0.00467156
-7.94536e-05
0.00469506
-7.05363e-05
0.00471658
-6.2771e-05
0.00473634
-5.58277e-05
0.0047545
-4.95753e-05
0.00477121
-4.39493e-05
0.00478661
-3.88939e-05
0.00480084
-3.43552e-05
0.00481405
-3.02972e-05
0.00482631
-2.66875e-05
0.00483773
-2.35044e-05
0.00484839
-2.0738e-05
0.00485837
-1.83912e-05
0.00486774
-1.64818e-05
0.00487657
-1.5045e-05
0.0048849
-1.41369e-05
0.00489279
-1.38574e-05
0.00490037
-1.43472e-05
0.00490771
-1.60644e-05
0.00491549
-2.17702e-05
-2.69905e-05
0.00492382
0.00022452
0.00072005
0.000362384
5.99549e-05
0.000526024
-0.00130263
0.000801214
-0.00221905
0.00115061
-0.0025944
0.0015248
-0.00253035
0.00189042
-0.00227691
0.00222684
-0.00197154
0.00252709
-0.00167707
0.00279285
-0.00141933
0.00302713
-0.00120061
0.0032315
-0.00101761
0.00340861
-0.000866966
0.00356214
-0.00074274
0.00369547
-0.000639433
0.00381156
-0.000553292
0.00391305
-0.000481561
0.00400086
-0.000420649
0.00407398
-0.000366981
0.00413677
-0.00032142
0.00419436
-0.000284671
0.00424776
-0.000253707
0.00429721
-0.000226754
0.00434298
-0.00020367
0.00438611
-0.000184401
0.00442616
-0.000167366
0.00446286
-0.000150059
0.00449819
-0.000136459
0.00453139
-0.000123027
0.00456189
-0.000109951
0.00459016
-9.88048e-05
0.00461654
-8.91549e-05
0.00464125
-8.05401e-05
0.00466453
-7.28503e-05
0.00468654
-6.59608e-05
0.0047074
-5.97574e-05
0.00472721
-5.41638e-05
0.00474604
-4.91223e-05
0.00476395
-4.46013e-05
0.00478102
-4.05742e-05
0.00479731
-3.7026e-05
0.00481287
-3.39529e-05
0.00482775
-3.13659e-05
0.004842
-2.92939e-05
0.00485566
-2.7795e-05
0.00486881
-2.70033e-05
0.00488138
-2.69218e-05
0.00489326
-2.79478e-05
0.00490457
-3.30792e-05
-3.72596e-05
0.00491484
0.000548666
0.000171384
0.000880808
-0.000272187
0.000935369
-0.0013572
0.00102539
-0.00230907
0.00118098
-0.00274999
0.00141669
-0.00276606
0.00169659
-0.00255681
0.00198737
-0.00226232
0.00226892
-0.00195863
0.00252851
-0.00167891
0.00276203
-0.00143414
0.00296974
-0.00122532
0.00315294
-0.00105016
0.00331367
-0.000903476
0.00345499
-0.000780755
0.00357962
-0.000677917
0.00368971
-0.00059165
0.00378797
-0.000518907
0.00387669
-0.000455706
0.00395706
-0.00040179
0.00402902
-0.00035663
0.00409329
-0.000317978
0.00415139
-0.000284856
0.00420344
-0.000255721
0.00424878
-0.000229735
0.00428671
-0.000205301
0.00432307
-0.00018641
0.00435857
-0.000171963
0.00439263
-0.000157093
0.00442553
-0.000142847
0.00445733
-0.000130608
0.00448803
-0.000119851
0.00451766
-0.00011017
0.00454625
-0.000101444
0.00457388
-9.35889e-05
0.00460064
-8.65137e-05
0.00462661
-8.01333e-05
0.00465186
-7.43775e-05
0.00467645
-6.91909e-05
0.00470041
-6.453e-05
0.00472375
-6.03645e-05
0.00474647
-5.66779e-05
0.00476857
-5.3468e-05
0.00479003
-5.07476e-05
0.00481078
-4.85452e-05
0.00483067
-4.68966e-05
0.00484955
-4.5803e-05
0.00486718
-4.5575e-05
0.00488268
-4.85843e-05
-4.99889e-05
0.00489541
0.000862715
-0.000691331
0.00129038
-0.000699853
0.00128118
-0.00134799
0.00115429
-0.00218218
0.00112064
-0.00271634
0.00121412
-0.00285953
0.00139818
-0.00274086
0.00162937
-0.00249352
0.00187478
-0.00220404
0.00211507
-0.00191919
0.00234069
-0.00165976
0.00254774
-0.00143236
0.002735
-0.00123742
0.00290308
-0.00107156
0.00305353
-0.000931201
0.00318872
-0.000813105
0.00331035
-0.000713278
0.00342053
-0.000629091
0.00352108
-0.00055626
0.00361291
-0.000493616
0.00369654
-0.000440262
0.00377296
-0.000394397
0.00384351
-0.000355401
0.00390916
-0.000321375
0.00397058
-0.000291159
0.00402847
-0.000263184
0.00408162
-0.000239562
0.00412673
-0.000217072
0.00416875
-0.000199115
0.00421068
-0.000184775
0.00425197
-0.000171901
0.00429231
-0.00016019
0.00433169
-0.000149556
0.00437012
-0.000139874
0.00440759
-0.00013106
0.00444412
-0.000123042
0.00447974
-0.000115749
0.00451447
-0.000109113
0.00454835
-0.00010307
0.00458139
-9.75706e-05
0.0046136
-9.25723e-05
0.00464497
-8.80484e-05
0.00467549
-8.39837e-05
0.00470512
-8.03784e-05
0.00473383
-7.72589e-05
0.00476159
-7.46539e-05
0.00478833
-7.25449e-05
0.00481427
-7.15175e-05
0.00483651
-7.08236e-05
0.00485867
-7.21405e-05
0.00494497
-1.326e-05
9.9679e-09
0.0049507
-5.74278e-06
9.8242e-09
0.00495002
6.73791e-07
9.33685e-09
0.00494716
2.84907e-06
8.69308e-09
0.00494465
2.50419e-06
7.96508e-09
0.00494334
1.30675e-06
7.08804e-09
0.00494327
6.30249e-08
6.18565e-09
0.00494425
-9.87946e-07
5.81766e-09
0.00494603
-1.78439e-06
5.4566e-09
0.00494838
-2.35466e-06
5.25481e-09
0.00495112
-2.7495e-06
5.18163e-09
0.00495413
-3.01234e-06
5.12895e-09
0.0049573
-3.17754e-06
4.89401e-09
0.00496057
-3.27128e-06
4.53928e-09
0.00496388
-3.31301e-06
4.00984e-09
0.00496719
-3.31703e-06
3.37197e-09
0.00497048
-3.29389e-06
2.86492e-09
0.00497373
-3.25132e-06
2.66096e-09
0.00497692
-3.19477e-06
2.63117e-09
0.00498005
-3.12809e-06
2.54971e-09
0.0049831
-3.05426e-06
2.23575e-09
0.00498607
-2.97574e-06
1.87127e-09
0.00498897
-2.8942e-06
1.65758e-09
0.00499178
-2.81075e-06
1.46366e-09
0.0049945
-2.72645e-06
1.31744e-09
0.00499714
-2.64197e-06
1.26383e-09
0.0049997
-2.55764e-06
1.10145e-09
0.00500217
-2.47394e-06
7.09871e-10
0.00500456
-2.39129e-06
3.59612e-10
0.00500687
-2.30979e-06
1.20136e-10
0.0050091
-2.2298e-06
-1.46135e-10
0.00501125
-2.15163e-06
-2.90697e-10
0.00501333
-2.07501e-06
-2.31073e-10
0.00501533
-1.99986e-06
-3.44398e-10
0.00501726
-1.92658e-06
-5.1115e-10
0.00501911
-1.85503e-06
-4.08907e-10
0.0050209
-1.78491e-06
-4.95564e-10
0.00502261
-1.7167e-06
-7.89969e-10
0.00502427
-1.65028e-06
-9.60001e-10
0.00502585
-1.58543e-06
-1.1224e-09
0.00502738
-1.52255e-06
-1.53711e-09
0.00502884
-1.46156e-06
-1.4085e-09
0.00503024
-1.40167e-06
-1.16614e-09
0.00503159
-1.34411e-06
-1.33714e-09
0.00503288
-1.28652e-06
-1.79964e-09
0.00503411
-1.23148e-06
-2.17004e-09
0.00503529
-1.17765e-06
-2.86828e-09
0.00503642
-1.12553e-06
-3.21298e-09
0.0050375
-1.07482e-06
-3.16161e-09
0.00503853
-1.02572e-06
-3.3729e-09
0.00503951
-9.78224e-07
-3.47924e-09
0.00504044
-9.31725e-07
-3.7131e-09
0.00504133
-8.8698e-07
-3.91776e-09
0.00504218
-8.43799e-07
-3.62242e-09
0.00504299
-8.01497e-07
-3.59329e-09
0.00504375
-7.60469e-07
-3.85519e-09
0.00504448
-7.20732e-07
-4.06361e-09
0.00504516
-6.82451e-07
-4.10046e-09
0.00504581
-6.45047e-07
-4.50204e-09
0.00504643