/*--------------------------------*- C++ -*----------------------------------*\
| =========                 |                                                 |
| \\      /  F ield         | OpenFOAM: The Open Source CFD Toolbox           |
|  \\    /   O peration     | Version:  2412                                  |
|   \\  /    A nd           | Website:  www.openfoam.com                      |
|    \\/     M anipulation  |                                                 |
\*---------------------------------------------------------------------------*/
FoamFile
{
    version     2.0;
    format      ascii;
    arch        "LSB;label=32;scalar=64";
    class       volVectorField;
    location    "0.5";
    object      U;
}
// * * * * * * * * * * * * * * * * * * * * * * * * * * * * * * * * * * * * * //

dimensions      [0 1 -1 0 0 0 0];

internalField   nonuniform List<vector> 
63420
(
(0.187567 9.12818e-05 0)
(0.0439503 4.52468e-05 0)
(0.120398 -2.46853e-05 0)
(0.09757 -1.07113e-05 0)
(0.0987869 -5.72269e-06 0)
(0.0995217 -2.7501e-06 0)
(0.0994698 -2.3648e-07 0)
(0.099448 1.41776e-06 0)
(0.0994389 2.55528e-06 0)
(0.099424 3.35641e-06 0)
(0.0994057 3.96256e-06 0)
(0.0993852 4.46185e-06 0)
(0.0993631 4.89138e-06 0)
(0.0993395 5.30177e-06 0)
(0.0993146 5.68885e-06 0)
(0.0992885 6.0833e-06 0)
(0.0992612 6.49974e-06 0)
(0.0992327 6.91049e-06 0)
(0.0992029 7.34595e-06 0)
(0.0991719 7.83024e-06 0)
(0.0991396 8.32586e-06 0)
(0.099106 8.84634e-06 0)
(0.0990709 9.39937e-06 0)
(0.0990343 1.00025e-05 0)
(0.0989963 1.06243e-05 0)
(0.0989567 1.12933e-05 0)
(0.0989154 1.20017e-05 0)
(0.0988725 1.2748e-05 0)
(0.0988278 1.35462e-05 0)
(0.0987812 1.43888e-05 0)
(0.0987327 1.52812e-05 0)
(0.0986823 1.62311e-05 0)
(0.0986298 1.72366e-05 0)
(0.0985751 1.83144e-05 0)
(0.0985182 1.94527e-05 0)
(0.0984589 2.06736e-05 0)
(0.0983971 2.19785e-05 0)
(0.0983328 2.33784e-05 0)
(0.0982657 2.48771e-05 0)
(0.0981957 2.64928e-05 0)
(0.0981227 2.82345e-05 0)
(0.0980463 3.01337e-05 0)
(0.0979663 3.22091e-05 0)
(0.0978825 3.44923e-05 0)
(0.0977945 3.70239e-05 0)
(0.0977017 3.98475e-05 0)
(0.0976037 4.3038e-05 0)
(0.0974998 4.66828e-05 0)
(0.0973891 5.08993e-05 0)
(0.0972706 5.58588e-05 0)
(0.0971427 6.18434e-05 0)
(0.0969993 6.90122e-05 0)
(0.0968533 7.82543e-05 0)
(0.0966903 9.65577e-05 0)
(0.0964549 0.000106125 0)
(0.187562 0.000275056 0)
(0.0439344 0.000136316 0)
(0.120393 -7.75705e-05 0)
(0.0975792 -3.15335e-05 0)
(0.0987897 -1.68218e-05 0)
(0.0995233 -8.01493e-06 0)
(0.099471 -5.15503e-07 0)
(0.0994487 4.4691e-06 0)
(0.0994392 7.83363e-06 0)
(0.099424 1.02173e-05 0)
(0.0994056 1.20245e-05 0)
(0.0993851 1.35114e-05 0)
(0.0993629 1.48012e-05 0)
(0.0993393 1.6017e-05 0)
(0.0993145 1.71897e-05 0)
(0.0992884 1.83693e-05 0)
(0.0992611 1.95902e-05 0)
(0.0992326 2.08504e-05 0)
(0.0992029 2.21771e-05 0)
(0.0991719 2.3593e-05 0)
(0.0991396 2.5078e-05 0)
(0.099106 2.66539e-05 0)
(0.099071 2.83197e-05 0)
(0.0990345 3.0097e-05 0)
(0.0989965 3.19707e-05 0)
(0.0989569 3.39669e-05 0)
(0.0989157 3.60795e-05 0)
(0.0988728 3.83203e-05 0)
(0.0988282 4.07009e-05 0)
(0.0987817 4.32193e-05 0)
(0.0987333 4.58924e-05 0)
(0.098683 4.87353e-05 0)
(0.0986306 5.17486e-05 0)
(0.098576 5.49644e-05 0)
(0.0985192 5.83791e-05 0)
(0.0984601 6.20264e-05 0)
(0.0983985 6.59216e-05 0)
(0.0983343 7.00944e-05 0)
(0.0982674 7.45674e-05 0)
(0.0981976 7.9387e-05 0)
(0.0981248 8.45935e-05 0)
(0.0980487 9.02594e-05 0)
(0.0979691 9.64459e-05 0)
(0.0978857 0.000103245 0)
(0.0977981 0.000110774 0)
(0.097706 0.000119177 0)
(0.0976087 0.000128659 0)
(0.0975057 0.00013948 0)
(0.0973961 0.000151984 0)
(0.0972792 0.000166655 0)
(0.0971531 0.000184332 0)
(0.0970118 0.000205483 0)
(0.096873 0.000232736 0)
(0.0967081 0.000286907 0)
(0.0964788 0.0003157 0)
(0.187552 0.000463778 0)
(0.0439022 0.000229469 0)
(0.120382 -0.000141058 0)
(0.0975983 -5.0858e-05 0)
(0.0987944 -2.71717e-05 0)
(0.0995256 -1.28825e-05 0)
(0.0994723 -4.42265e-07 0)
(0.0994489 7.78617e-06 0)
(0.0994388 1.32727e-05 0)
(0.0994233 1.71742e-05 0)
(0.0994046 2.01435e-05 0)
(0.099384 2.25913e-05 0)
(0.0993617 2.47337e-05 0)
(0.0993381 2.67327e-05 0)
(0.0993132 2.86889e-05 0)
(0.0992872 3.06513e-05 0)
(0.0992599 3.26673e-05 0)
(0.0992315 3.47726e-05 0)
(0.0992018 3.69883e-05 0)
(0.0991709 3.93268e-05 0)
(0.0991387 4.18037e-05 0)
(0.0991051 4.44292e-05 0)
(0.0990702 4.72013e-05 0)
(0.0990338 5.01507e-05 0)
(0.0989959 5.32748e-05 0)
(0.0989565 5.65918e-05 0)
(0.0989154 6.01041e-05 0)
(0.0988726 6.38333e-05 0)
(0.0988281 6.77877e-05 0)
(0.0987818 7.19791e-05 0)
(0.0987336 7.64244e-05 0)
(0.0986834 8.1148e-05 0)
(0.0986312 8.61618e-05 0)
(0.0985769 9.15003e-05 0)
(0.0985203 9.71763e-05 0)
(0.0984614 0.000103232 0)
(0.0984001 0.000109698 0)
(0.0983363 0.00011662 0)
(0.0982697 0.000124038 0)
(0.0982004 0.000132023 0)
(0.0981281 0.000140651 0)
(0.0980525 0.000150025 0)
(0.0979736 0.00016025 0)
(0.097891 0.000171471 0)
(0.0978043 0.000183875 0)
(0.0977133 0.000197694 0)
(0.0976175 0.000213246 0)
(0.0975162 0.000230945 0)
(0.0974089 0.000251325 0)
(0.097295 0.00027513 0)
(0.0971724 0.000303679 0)
(0.0970349 0.000337692 0)
(0.0969103 0.000381377 0)
(0.0967421 0.000468692 0)
(0.0965261 0.000515858 0)
(0.187543 0.000660806 0)
(0.0438582 0.000326632 0)
(0.120367 -0.000222994 0)
(0.0976289 -6.67522e-05 0)
(0.0987989 -3.61469e-05 0)
(0.0995266 -1.70678e-05 0)
(0.0994719 2.49994e-07 0)
(0.0994469 1.15193e-05 0)
(0.0994358 1.89597e-05 0)
(0.0994197 2.42828e-05 0)
(0.0994007 2.83586e-05 0)
(0.0993798 3.17204e-05 0)
(0.0993574 3.4686e-05 0)
(0.0993338 3.74527e-05 0)
(0.0993089 4.01805e-05 0)
(0.0992828 4.29099e-05 0)
(0.0992556 4.572e-05 0)
(0.0992272 4.86629e-05 0)
(0.0991976 5.17604e-05 0)
(0.0991668 5.50207e-05 0)
(0.0991346 5.84813e-05 0)
(0.0991012 6.21413e-05 0)
(0.0990664 6.60175e-05 0)
(0.0990301 7.01395e-05 0)
(0.0989923 7.45034e-05 0)
(0.098953 7.91341e-05 0)
(0.0989121 8.40412e-05 0)
(0.0988695 8.92463e-05 0)
(0.0988252 9.47656e-05 0)
(0.0987791 0.000100616 0)
(0.0987311 0.000106821 0)
(0.0986812 0.000113411 0)
(0.0986292 0.000120409 0)
(0.0985752 0.000127849 0)
(0.0985189 0.000135762 0)
(0.0984604 0.000144196 0)
(0.0983995 0.000153201 0)
(0.0983362 0.000162829 0)
(0.0982702 0.000173143 0)
(0.0982014 0.000184238 0)
(0.0981298 0.000196215 0)
(0.098055 0.000209202 0)
(0.097977 0.000223348 0)
(0.0978955 0.000238841 0)
(0.0978102 0.000255923 0)
(0.0977208 0.000274902 0)
(0.097627 0.000296183 0)
(0.0975282 0.000320295 0)
(0.0974239 0.000347906 0)
(0.0973141 0.000379941 0)
(0.0971963 0.000418054 0)
(0.0970639 0.000463045 0)
(0.0969593 0.000520289 0)
(0.0967867 0.000634932 0)
(0.096592 0.000696152 0)
(0.187561 0.000865349 0)
(0.0438254 0.000434282 0)
(0.120353 -0.000333263 0)
(0.0976765 -7.53007e-05 0)
(0.0988024 -4.27196e-05 0)
(0.0995257 -2.02904e-05 0)
(0.0994691 1.82422e-06 0)
(0.0994419 1.5826e-05 0)
(0.0994293 2.50146e-05 0)
(0.0994124 3.16208e-05 0)
(0.0993929 3.6715e-05 0)
(0.0993717 4.09329e-05 0)
(0.0993491 4.46816e-05 0)
(0.0993253 4.81966e-05 0)
(0.0993004 5.16681e-05 0)
(0.0992743 5.51566e-05 0)
(0.099247 5.87557e-05 0)
(0.0992187 6.25249e-05 0)
(0.0991891 6.64946e-05 0)
(0.0991583 7.06746e-05 0)
(0.0991262 7.51087e-05 0)
(0.0990929 7.97992e-05 0)
(0.0990581 8.47712e-05 0)
(0.099022 9.00571e-05 0)
(0.0989843 9.56508e-05 0)
(0.0989452 0.000101587 0)
(0.0989044 0.000107879 0)
(0.098862 0.00011455 0)
(0.0988178 0.000121622 0)
(0.0987719 0.000129112 0)
(0.0987242 0.000137059 0)
(0.0986745 0.000145498 0)
(0.0986228 0.000154455 0)
(0.0985691 0.000163968 0)
(0.0985132 0.000174086 0)
(0.0984551 0.000184863 0)
(0.0983947 0.000196361 0)
(0.0983318 0.000208643 0)
(0.0982664 0.000221794 0)
(0.0981983 0.000235922 0)
(0.0981275 0.000251151 0)
(0.0980536 0.000267629 0)
(0.0979767 0.000285544 0)
(0.0978965 0.000305115 0)
(0.0978127 0.000326627 0)
(0.0977252 0.000350442 0)
(0.0976336 0.000377024 0)
(0.0975377 0.000406973 0)
(0.097437 0.000441039 0)
(0.097332 0.000480229 0)
(0.0972195 0.000526327 0)
(0.0970925 0.000579954 0)
(0.097011 0.00064702 0)
(0.0968308 0.000779671 0)
(0.0966623 0.000846639 0)
(0.187681 0.00105808 0)
(0.043876 0.00056574 0)
(0.12036 -0.000477025 0)
(0.0977603 -6.89511e-05 0)
(0.0988135 -4.50592e-05 0)
(0.0995322 -2.19672e-05 0)
(0.0994734 4.72026e-06 0)
(0.0994433 2.106e-05 0)
(0.099429 3.17009e-05 0)
(0.099411 3.94038e-05 0)
(0.0993908 4.54003e-05 0)
(0.0993692 5.04028e-05 0)
(0.0993463 5.48849e-05 0)
(0.0993223 5.91144e-05 0)
(0.0992972 6.33002e-05 0)
(0.099271 6.75312e-05 0)
(0.0992437 7.19013e-05 0)
(0.0992153 7.64824e-05 0)
(0.0991857 8.13113e-05 0)
(0.0991549 8.63982e-05 0)
(0.0991229 9.17922e-05 0)
(0.0990895 9.75087e-05 0)
(0.0990548 0.000103565 0)
(0.0990187 0.00011 0)
(0.0989811 0.000116815 0)
(0.098942 0.000124044 0)
(0.0989014 0.000131708 0)
(0.098859 0.000139832 0)
(0.098815 0.000148444 0)
(0.0987693 0.000157556 0)
(0.0987217 0.000167223 0)
(0.0986722 0.000177484 0)
(0.0986208 0.000188371 0)
(0.0985673 0.000199929 0)
(0.0985118 0.00021222 0)
(0.098454 0.000225302 0)
(0.098394 0.000239245 0)
(0.0983316 0.000254127 0)
(0.0982667 0.000270048 0)
(0.0981993 0.000287124 0)
(0.0981292 0.0003055 0)
(0.0980562 0.000325342 0)
(0.0979803 0.000346861 0)
(0.0979014 0.000370303 0)
(0.0978191 0.000395977 0)
(0.0977335 0.000424281 0)
(0.0976442 0.000455715 0)
(0.0975511 0.000490921 0)
(0.097454 0.000530688 0)
(0.0973536 0.000576063 0)
(0.0972461 0.000628811 0)
(0.0971234 0.000689263 0)
(0.0970653 0.000763408 0)
(0.0968717 0.000902695 0)
(0.0967215 0.000967312 0)
(0.188014 0.0012013 0)
(0.0441068 0.000705361 0)
(0.1204 -0.000609009 0)
(0.0979021 -4.55748e-05 0)
(0.0988442 -4.22101e-05 0)
(0.0995611 -2.10282e-05 0)
(0.0995008 9.32511e-06 0)
(0.0994673 2.73171e-05 0)
(0.0994513 3.90263e-05 0)
(0.0994325 4.76085e-05 0)
(0.0994118 5.43714e-05 0)
(0.0993899 6.00764e-05 0)
(0.0993669 6.52369e-05 0)
(0.0993429 7.01434e-05 0)
(0.0993178 7.5014e-05 0)
(0.0992917 7.9968e-05 0)
(0.0992645 8.50933e-05 0)
(0.0992363 9.04721e-05 0)
(0.0992069 9.61443e-05 0)
(0.0991762 0.000102128 0)
(0.0991444 0.000108472 0)
(0.0991113 0.000115204 0)
(0.0990768 0.000122333 0)
(0.0990409 0.000129905 0)
(0.0990036 0.000137931 0)
(0.0989648 0.000146439 0)
(0.0989244 0.000155456 0)
(0.0988824 0.000165012 0)
(0.0988387 0.000175133 0)
(0.0987933 0.000185866 0)
(0.098746 0.000197244 0)
(0.098697 0.000209304 0)
(0.098646 0.000222097 0)
(0.098593 0.000235674 0)
(0.0985379 0.000250105 0)
(0.0984807 0.000265451 0)
(0.0984213 0.000281794 0)
(0.0983596 0.000299219 0)
(0.0982955 0.00031784 0)
(0.0982289 0.000337783 0)
(0.0981597 0.000359204 0)
(0.0980879 0.000382282 0)
(0.0980133 0.000407241 0)
(0.0979358 0.000434344 0)
(0.0978553 0.000463914 0)
(0.0977718 0.000496367 0)
(0.097685 0.00053222 0)
(0.097595 0.000572129 0)
(0.0975016 0.000616918 0)
(0.0974061 0.000667705 0)
(0.0973035 0.000726271 0)
(0.0971853 0.000793189 0)
(0.0971492 0.000874887 0)
(0.0969398 0.0010137 0)
(0.0967885 0.001089 0)
(0.0962451 7.15121e-05 -1.23923e-23)
(0.0961821 4.24724e-06 -1.25076e-23)
(0.0962269 -4.27815e-05 -4.3617e-26)
(0.0963152 -4.95844e-05 3.79412e-23)
(0.0964006 -3.36283e-05 -1.26053e-23)
(0.0964432 -1.13506e-05 -1.27846e-23)
(0.0964391 1.03536e-05 -3.90558e-23)
(0.0963966 2.94683e-05 3.88399e-23)
(0.0963216 4.58437e-05 1.31903e-23)
(0.0962187 5.98007e-05 0)
(0.0960922 7.18133e-05 1.35656e-23)
(0.0959453 8.27088e-05 -1.37863e-23)
(0.0957788 9.32898e-05 1.1345e-22)
(0.0955909 0.000102911 -2.4333e-22)
(0.0953812 0.000113556 1.30182e-22)
(0.0951511 0.000126398 1.06149e-22)
(0.0948999 0.000140708 1.36204e-22)
(0.0946261 0.000156067 -1.56919e-23)
(0.0943281 0.000172005 1.61104e-23)
(0.094004 0.000188553 -1.65572e-23)
(0.0936515 0.000206344 0)
(0.093267 0.00022633 1.75355e-23)
(0.0928462 0.000248932 -1.80653e-23)
(0.0923849 0.000273611 0)
(0.0918797 0.000300698 -1.91977e-23)
(0.0913262 0.000329818 0)
(0.0907221 0.000360652 -2.04206e-23)
(0.0900651 0.000394225 -3.42661e-22)
(0.0893485 0.000432757 3.63893e-22)
(0.0885617 0.000477371 -3.65768e-22)
(0.0876928 0.000529161 3.6521e-22)
(0.0867271 0.00058898 0)
(0.0856513 0.000655338 0)
(0.0844567 0.00072839 4.46042e-22)
(0.0831285 0.000812964 -4.19622e-22)
(0.0816428 0.000912562 0)
(0.0799699 0.00103133 0)
(0.0780736 0.00117344 0)
(0.0759102 0.00134398 0)
(0.0734278 0.00155006 0)
(0.0705555 0.00180303 0)
(0.0672006 0.00211791 0)
(0.0632291 0.00250174 0)
(0.0586043 0.0029761 0)
(0.0532961 0.00357628 -4.31354e-23)
(0.0469171 0.00427338 -1.51073e-21)
(0.0338613 0.00541378 1.50847e-21)
(0.0384623 0.00588924 1.74066e-21)
(0.00142795 0.00758393 -1.73807e-21)
(0.0229089 0.00581295 0)
(0.0962856 0.000214412 -1.24528e-23)
(0.0962185 1.54927e-05 -2.51453e-23)
(0.0962514 -0.000123329 -1.2867e-23)
(0.0963304 -0.000142998 1.24157e-23)
(0.096403 -9.55736e-05 -1.26777e-23)
(0.0964332 -2.9984e-05 8.99466e-23)
(0.0964194 3.41781e-05 -1.41139e-22)
(0.0963695 9.15021e-05 1.30318e-23)
(0.0962887 0.000141404 1.72958e-22)
(0.0961813 0.000184195 -2.38837e-22)
(0.0960516 0.000221027 -2.32517e-22)
(0.0959032 0.000254702 2.04901e-22)
(0.0957353 0.000289256 0)
(0.0955472 0.00032462 1.43155e-23)
(0.0953405 0.000362036 -4.38204e-23)
(0.0951138 0.000400298 -4.99721e-22)
(0.0948647 0.000439894 4.81681e-22)
(0.0945919 0.000481377 -5.12013e-22)
(0.0942942 0.000525696 -4.83885e-23)
(0.0939708 0.000573853 1.65935e-23)
(0.0936202 0.000626833 0)
(0.0932387 0.000686407 -1.75809e-23)
(0.0928202 0.00075402 -5.71262e-22)
(0.0923608 0.000827561 1.19634e-21)
(0.0918568 0.000908258 6.65975e-22)
(0.0913038 0.000994193 -1.25198e-21)
(0.0907008 0.00108406 1.3549e-21)
(0.0900477 0.00118166 -1.37496e-21)
(0.0893369 0.00129454 -2.18411e-23)
(0.0885566 0.00142533 0)
(0.0876946 0.00157783 0)
(0.0867335 0.001757 0)
(0.0856601 0.00195857 0)
(0.084472 0.00218115 -2.59081e-23)
(0.083156 0.00243872 -1.75484e-21)
(0.0816861 0.00274038 -7.14077e-23)
(0.080033 0.00309944 1.82149e-21)
(0.0781606 0.00352771 1.98128e-21)
(0.0760278 0.00403994 -1.97865e-21)
(0.0735871 0.00465705 -6.61127e-23)
(0.070772 0.00541078 -6.93479e-23)
(0.0674821 0.00634265 -2.4025e-21)
(0.0635943 0.00746433 2.32261e-21)
(0.0591047 0.00885515 -8.10107e-23)
(0.0539066 0.0106074 4.34367e-23)
(0.0476794 0.0126694 -3.10665e-21)
(0.0351371 0.0160727 3.10755e-21)
(0.0395722 0.0175579 -6.89033e-21)
(0.00406089 0.0224298 6.7742e-21)
(0.0239222 0.0168827 -7.25274e-21)
(0.0963656 0.000354706 -7.40188e-23)
(0.0962876 3.66178e-05 -2.53288e-23)
(0.0962944 -0.00018249 9.93708e-23)
(0.0963536 -0.000210114 -2.01284e-22)
(0.0963999 -0.000132831 4.29064e-22)
(0.0964053 -3.04226e-05 -2.02465e-22)
(0.0963735 6.81934e-05 8.07933e-26)
(0.0963105 0.000157382 2.58722e-23)
(0.0962189 0.000239537 4.49565e-22)
(0.096102 0.00031383 -4.2269e-22)
(0.0959659 0.000380569 0)
(0.0958162 0.000438891 1.57517e-25)
(0.0956508 0.000490573 0)
(0.0954649 0.000540274 4.91348e-22)
(0.0952571 0.000591615 -4.33129e-22)
(0.0950278 0.000645376 -9.39475e-22)
(0.0947781 0.000703297 5.64278e-23)
(0.0945068 0.000766664 -9.93318e-22)
(0.0942126 0.000837357 3.2374e-23)
(0.0938937 0.000916423 -1.08115e-21)
(0.0935481 0.00100397 1.11441e-21)
(0.0931723 0.00110181 -1.14888e-21)
(0.092758 0.00121156 1.18428e-21)
(0.0923016 0.00132721 3.76695e-23)
(0.0917993 0.00145652 -3.88844e-23)
(0.0912452 0.00159617 4.01312e-23)
(0.0906435 0.00174102 -1.34467e-21)
(0.0899986 0.00189787 1.38605e-21)
(0.0892996 0.002083 1.47927e-21)
(0.088532 0.00229833 -1.43373e-21)
(0.0876861 0.00254979 0)
(0.0867398 0.00284529 0)
(0.0856769 0.00317214 5.06837e-23)
(0.0845058 0.00353398 3.46743e-21)
(0.0832148 0.00396446 7.82387e-23)
(0.0817763 0.00447154 -3.48452e-21)
(0.0801629 0.00507799 0)
(0.0783387 0.00580142 -6.12072e-23)
(0.0762676 0.00666437 4.24933e-21)
(0.0739095 0.00770075 -8.49995e-21)
(0.0712029 0.00895488 9.0547e-21)
(0.068028 0.0104766 3.12958e-22)
(0.0643081 0.012262 -4.75605e-21)
(0.0600817 0.0144843 -5.30372e-21)
(0.055124 0.0172906 5.46648e-21)
(0.0493037 0.0206905 2.17163e-24)
(0.0378218 0.0260876 -9.70036e-23)
(0.0418449 0.0287905 6.83594e-21)
(0.00912628 0.0361669 -6.61989e-21)
(0.0256752 0.0262928 -6.86437e-21)
(0.0964816 0.000484192 4.89028e-23)
(0.096384 7.3817e-05 -2.46487e-23)
(0.096344 -0.000194251 2.98274e-26)
(0.0963643 -0.00020761 2.49812e-23)
(0.0963634 -9.40507e-05 -1.8842e-26)
(0.0963268 3.73087e-05 4.07085e-22)
(0.0962678 0.000150623 -7.66616e-22)
(0.0961905 0.000242363 4.10737e-22)
(0.0960903 0.000322761 -2.61789e-23)
(0.0959647 0.000400333 4.78857e-22)
(0.0958173 0.000478522 -4.25651e-22)
(0.0956521 0.000557514 -8.83946e-22)
(0.0954732 0.000631662 1.78645e-21)
(0.0952816 0.000704165 -1.8257e-21)
(0.0950753 0.000778403 1.86838e-21)
(0.0948513 0.000858386 -1.88475e-21)
(0.0946077 0.00094531 -1.00007e-21)
(0.094343 0.00104005 -1.30262e-25)
(0.0940553 0.00114364 0)
(0.0937418 0.00125761 -1.05459e-21)
(0.0934011 0.00138377 1.08816e-21)
(0.09303 0.00152688 0)
(0.0926153 0.00168856 -2.39745e-21)
(0.0921607 0.00185206 2.35899e-21)
(0.0916642 0.00204164 3.92543e-23)
(0.0911107 0.00225045 4.65534e-25)
(0.0905117 0.00246814 4.22979e-23)
(0.0898819 0.00270942 0)
(0.0892023 0.00300358 4.37872e-25)
(0.0884528 0.00334709 0)
(0.0876276 0.00374329 -4.84162e-23)
(0.0866922 0.00417921 3.24365e-21)
(0.0856393 0.00460582 -3.24199e-21)
(0.0845073 0.00506337 -5.32495e-23)
(0.0832699 0.00564758 1.10801e-22)
(0.0818872 0.00635981 -3.80883e-21)
(0.080342 0.00721693 3.69011e-21)
(0.0785987 0.00823299 6.22646e-23)
(0.07663 0.00943529 1.1639e-25)
(0.0743998 0.0108703 6.8077e-23)
(0.0718345 0.0125988 -4.67542e-21)
(0.0687905 0.0147332 9.50044e-21)
(0.0653155 0.0173376 -4.97781e-21)
(0.0615065 0.0204842 5.32403e-21)
(0.0570465 0.024334 -5.57669e-21)
(0.0518715 0.02897 -1.16569e-20)
(0.0420661 0.0357919 2.43366e-20)
(0.0455172 0.0396613 -1.2602e-20)
(0.0164098 0.0480983 0)
(0.0277508 0.0331448 -1.26692e-20)
(0.0966187 0.000594264 -2.42625e-23)
(0.0964932 0.000120123 -9.82015e-23)
(0.0963809 -0.000169547 2.96179e-22)
(0.0963311 -0.00014938 -3.97438e-22)
(0.0962443 2.66973e-05 1.74502e-22)
(0.0961297 0.000227422 2.52845e-23)
(0.096014 0.000410953 -2.55491e-23)
(0.0959009 0.000567444 -7.4095e-26)
(0.0957855 0.000693725 2.61738e-23)
(0.0956583 0.000804651 -5.30844e-23)
(0.0955159 0.000912575 -8.76069e-22)
(0.0953548 0.0010244 9.03973e-22)
(0.0951756 0.00114085 -8.84752e-22)
(0.0949821 0.00126191 9.13175e-22)
(0.0947735 0.00138691 0)
(0.0945479 0.00151668 -7.74874e-27)
(0.0943033 0.00165208 0)
(0.0940381 0.0017948 -1.01138e-21)
(0.0937509 0.00194622 1.07678e-21)
(0.0934402 0.00210795 -3.39778e-23)
(0.0931064 0.00228325 -2.33752e-21)
(0.092743 0.00248535 2.30345e-21)
(0.0923246 0.00272819 -3.75871e-23)
(0.0918734 0.00297606 0)
(0.0913906 0.00324888 0)
(0.0908418 0.00349508 -2.76699e-21)
(0.0902574 0.00371807 2.68377e-21)
(0.0896643 0.00398823 0)
(0.0890221 0.00433932 -9.18423e-23)
(0.0883009 0.00473843 0)
(0.0874808 0.0051895 4.92653e-23)
(0.086492 0.00572254 -5.11448e-23)
(0.0853959 0.00633515 -5.28902e-23)
(0.0843266 0.00700618 5.47175e-23)
(0.0831969 0.00777528 3.60296e-21)
(0.0819052 0.00868393 -3.71799e-21)
(0.080447 0.00976275 8.09803e-21)
(0.0788003 0.0110233 -8.10383e-21)
(0.076956 0.0125071 8.67352e-21)
(0.0748839 0.0142887 3.17074e-22)
(0.0725473 0.0164328 -9.20714e-21)
(0.0698741 0.0190747 -7.50911e-23)
(0.066846 0.022414 1.82355e-24)
(0.0634996 0.0265107 2.39949e-24)
(0.0596107 0.0315393 3.2445e-24)
(0.0551925 0.0376119 -1.79011e-22)
(0.0475471 0.0457545 -8.90751e-23)
(0.0501579 0.0508143 -9.24855e-23)
(0.0253008 0.0581658 0)
(0.0295275 0.0373064 1.70987e-23)
(0.0967304 0.000698136 -1.20323e-22)
(0.0965349 0.000196724 7.2316e-23)
(0.0963108 -0.000121319 2.44768e-23)
(0.0961823 -0.000151817 3.70587e-22)
(0.0960204 -4.33513e-05 -3.70913e-22)
(0.095845 9.95999e-05 3.77669e-22)
(0.095686 0.000237589 -8.35924e-22)
(0.0955282 0.000357998 1.18056e-21)
(0.0953682 0.000454388 -8.25575e-22)
(0.0952109 0.000531112 -8.51384e-22)
(0.09505 0.000596325 -4.17601e-23)
(0.0948777 0.000655899 1.72629e-21)
(0.0946921 0.000716863 -1.82091e-21)
(0.0944925 0.000781013 8.49631e-22)
(0.0942773 0.000850088 9.24427e-22)
(0.0940451 0.000925466 9.77362e-22)
(0.0937949 0.00100898 -8.85575e-23)
(0.0935252 0.0011023 1.99374e-21)
(0.0932337 0.00120774 2.09216e-21)
(0.0929194 0.00132777 7.32065e-23)
(0.0925895 0.00146482 -2.23854e-21)
(0.0922431 0.00162743 0)
(0.0918326 0.00180739 0)
(0.0913776 0.00193213 -2.57851e-21)
(0.0908455 0.00210526 2.54114e-21)
(0.0902171 0.00234052 2.75206e-21)
(0.0896284 0.00258793 -2.75613e-21)
(0.0890865 0.00285744 0)
(0.0884609 0.00318371 3.08766e-21)
(0.0877233 0.00356564 -3.09375e-21)
(0.086912 0.00399465 0)
(0.0860041 0.00451365 -6.72289e-21)
(0.0850182 0.00518651 6.78533e-21)
(0.0839931 0.00598255 -5.60971e-23)
(0.082871 0.00687163 -7.47356e-21)
(0.0816176 0.00790487 7.54297e-21)
(0.0802219 0.00912285 0)
(0.0786691 0.0105653 8.5389e-21)
(0.0769781 0.0122772 -8.48627e-21)
(0.0751164 0.0143544 7.02127e-23)
(0.0730597 0.0168774 9.66521e-21)
(0.0708065 0.0199658 -1.95917e-20)
(0.0683777 0.0238139 -2.22751e-22)
(0.065821 0.0285984 -2.93376e-22)
(0.0630218 0.0345512 1.09697e-20)
(0.0599253 0.0419034 4.76338e-24)
(0.0548295 0.0513798 -1.14746e-20)
(0.0563491 0.0579499 1.17684e-20)
(0.0361139 0.0621198 0)
(0.030807 0.0370745 1.35226e-22)
(0.0967946 0.000887426 2.3793e-23)
(0.0964383 0.000518355 2.17917e-22)
(0.0959968 0.000336723 -1.94325e-22)
(0.0956989 0.000412057 2.45646e-23)
(0.0954252 0.000608019 3.75452e-22)
(0.0951912 0.000832621 -3.76206e-22)
(0.0949964 0.00105288 -7.97947e-22)
(0.094816 0.0012618 1.47171e-23)
(0.0946407 0.00146415 -1.24641e-23)
(0.0944682 0.00165947 8.80204e-22)
(0.0942927 0.00184806 -8.58115e-22)
(0.0941094 0.00203318 1.82078e-21)
(0.0939152 0.00221882 -9.07735e-22)
(0.0937088 0.00240721 2.91578e-23)
(0.0934885 0.00260078 2.99564e-23)
(0.0932529 0.00280211 2.01742e-21)
(0.0930005 0.00301283 -2.68164e-23)
(0.0927301 0.00323443 2.11936e-21)
(0.0924403 0.00346797 3.39289e-23)
(0.0921316 0.00371264 0)
(0.091808 0.00396506 0)
(0.0914362 0.00422979 -2.47946e-21)
(0.0909307 0.00453281 2.48574e-21)
(0.0904246 0.00484699 0)
(0.0899714 0.00516952 4.20072e-23)
(0.0894472 0.00560451 0)
(0.0888969 0.0061248 -2.91903e-21)
(0.0883311 0.00666714 5.94506e-21)
(0.0876843 0.00724504 -3.02624e-21)
(0.086953 0.00790468 -6.4304e-21)
(0.0861623 0.00864637 -2.19212e-22)
(0.0852998 0.00949125 -2.25706e-22)
(0.0843735 0.0104694 -2.34183e-22)
(0.083392 0.0115809 7.22592e-21)
(0.0823207 0.0128413 7.75924e-21)
(0.0811447 0.0143063 -7.7778e-21)
(0.0798601 0.0160078 0)
(0.0784681 0.0180102 8.72446e-21)
(0.0769904 0.0203594 -8.74483e-21)
(0.0754051 0.0231412 -9.52074e-21)
(0.073723 0.0264768 9.46965e-21)
(0.0720083 0.0305011 7.87987e-23)
(0.070342 0.0353948 1.04742e-20)
(0.0688426 0.0413432 2.94215e-22)
(0.0676055 0.0485011 -1.09837e-20)
(0.0668552 0.0567847 8.9298e-23)
(0.0655833 0.0659043 0)
(0.0670147 0.071117 -8.89217e-23)
(0.0531535 0.0656536 -8.02604e-21)
(0.0366575 0.0332704 8.95021e-22)
(0.000523473 0.0039271 0)
(-0.0139326 0.00121131 4.62735e-22)
(-0.0062714 -0.00290107 -4.63422e-22)
(0.00166706 -0.00591378 -4.19187e-22)
(0.0126234 -0.00663628 4.19818e-22)
(0.0244303 -0.00615193 -1.19357e-23)
(0.034733 -0.00534082 0)
(0.0433502 -0.00449248 0)
(0.0505654 -0.00373312 0)
(0.0565898 -0.00310152 0)
(0.0616249 -0.00258945 0)
(0.0658569 -0.00217484 0)
(0.0694283 -0.00183755 0)
(0.0724551 -0.00156876 0)
(0.0750467 -0.00135344 0)
(0.0772918 -0.0011766 1.23831e-22)
(0.0792529 -0.00102996 -1.16348e-22)
(0.0809775 -0.000908218 0)
(0.0825062 -0.000806314 0)
(0.0838676 -0.000717103 -1.08768e-22)
(0.0850784 -0.000638914 1.08934e-22)
(0.0861575 -0.000571997 -9.4035e-23)
(0.0871254 -0.000514732 6.17409e-24)
(0.0879995 -0.000465695 0)
(0.0887938 -0.000422893 5.63492e-24)
(0.0895183 -0.000384947 0)
(0.0901791 -0.000349874 0)
(0.0907807 -0.000318152 0)
(0.0913294 -0.000289645 4.51016e-24)
(0.0918305 -0.000264176 0)
(0.0922895 -0.000241878 -3.94865e-24)
(0.0927119 -0.000222471 3.68162e-24)
(0.093102 -0.000205428 -3.42738e-24)
(0.0934631 -0.000190124 2.77797e-23)
(0.093798 -0.000176048 -2.75932e-23)
(0.0941098 -0.000163007 -1.8523e-23)
(0.0944011 -0.000151015 3.85695e-23)
(0.094674 -0.000140174 -1.98529e-23)
(0.0949307 -0.000130631 -2.23294e-24)
(0.0951735 -0.00012239 2.09477e-24)
(0.0954044 -0.00011568 0)
(0.0956255 -0.000110389 1.87146e-24)
(0.0958394 -0.000106625 -8.79103e-24)
(0.0960484 -0.000104962 8.73178e-24)
(0.0962556 -0.000105362 -1.6598e-24)
(0.0964648 -0.000108347 4.82947e-24)
(0.0966786 -0.000114195 -1.62876e-24)
(0.0969062 -0.000124226 -3.12665e-24)
(0.0971811 -0.000145619 1.56195e-24)
(0.0974698 -0.000164712 -1.53297e-24)
(-7.58431e-06 0.0111812 -1.68509e-21)
(-0.012889 0.00323537 -2.1037e-21)
(-0.00336079 -0.00864144 2.07228e-21)
(0.00507921 -0.0173206 -8.74695e-22)
(0.0161305 -0.0193505 8.78956e-22)
(0.0273619 -0.0180477 1.20174e-23)
(0.0369868 -0.0157226 -2.38748e-23)
(0.0450679 -0.0132419 -6.85011e-22)
(0.0518602 -0.0110106 6.63805e-22)
(0.0575646 -0.00915407 -1.98732e-23)
(0.0623696 -0.00765811 -1.91556e-23)
(0.0664393 -0.00644884 5.70947e-22)
(0.0698878 -0.00545603 -5.71711e-22)
(0.072817 -0.00466051 -5.35447e-22)
(0.0753389 -0.00402042 1.72077e-23)
(0.0775346 -0.00349438 5.19649e-22)
(0.0794574 -0.00305843 -7.70824e-24)
(0.0811512 -0.00269526 -1.51819e-23)
(0.0826591 -0.00239043 0)
(0.0840074 -0.00212235 0)
(0.0852058 -0.00188903 0)
(0.0862725 -0.00169183 -6.46711e-24)
(0.0872298 -0.0015239 3.70346e-22)
(0.0880954 -0.00138054 -4.01554e-22)
(0.0888836 -0.00125556 3.48384e-22)
(0.0896047 -0.00114506 -1.86441e-22)
(0.0902634 -0.00104215 -3.27224e-22)
(0.0908623 -0.000949168 1.59141e-22)
(0.091408 -0.000865063 -4.52181e-24)
(0.0919058 -0.000789298 -8.50661e-24)
(0.0923613 -0.000722596 3.95728e-24)
(0.0927806 -0.000664006 -1.10659e-23)
(0.0931685 -0.000612221 1.02524e-22)
(0.0935283 -0.00056634 -2.07724e-22)
(0.0938625 -0.000525577 9.56419e-23)
(0.0941736 -0.000489181 -8.23666e-24)
(0.0944639 -0.000456702 2.5656e-24)
(0.0947354 -0.000427688 0)
(0.0949904 -0.00040175 -3.67294e-23)
(0.0952312 -0.000379067 3.24905e-23)
(0.0954599 -0.000359765 2.67634e-23)
(0.0956786 -0.000344076 -3.62833e-23)
(0.0958894 -0.000332403 1.78471e-24)
(0.0960947 -0.000325344 8.3532e-24)
(0.0962976 -0.000323503 -1.51083e-23)
(0.0965019 -0.000328061 -1.61658e-24)
(0.09671 -0.000340468 -1.10123e-23)
(0.0969261 -0.000366119 -1.45698e-24)
(0.0971923 -0.000426863 3.14461e-24)
(0.0974626 -0.000482656 4.60386e-24)
(-0.000818819 0.0165457 -2.31871e-21)
(-0.0104589 0.00419493 2.52946e-21)
(0.00261868 -0.014458 -2.45303e-21)
(0.0120154 -0.0276528 -3.22249e-23)
(0.0228949 -0.0310121 -4.22308e-24)
(0.0328507 -0.0291794 -1.66805e-21)
(0.041235 -0.0255075 1.72369e-21)
(0.0483237 -0.0215662 1.45841e-21)
(0.0543127 -0.0180001 -6.05025e-23)
(0.0593915 -0.015016 -2.62957e-21)
(0.0637427 -0.0126116 2.56077e-21)
(0.0675129 -0.0106591 -1.2274e-21)
(0.0707461 -0.00903553 -1.90829e-23)
(0.0734995 -0.00771646 0)
(0.0758911 -0.00664256 1.09464e-21)
(0.0779924 -0.00575896 -5.39921e-23)
(0.0798432 -0.00502837 -1.02563e-21)
(0.0814799 -0.00442278 3.12009e-23)
(0.0829486 -0.00392389 0)
(0.0842707 -0.0034797 0)
(0.0854415 -0.00308715 4.34426e-22)
(0.0864822 -0.00275606 -4.21256e-22)
(0.0874188 -0.0024757 -3.844e-22)
(0.0882685 -0.00223932 4.09446e-22)
(0.0890451 -0.00203356 1.17689e-23)
(0.0897609 -0.00185263 -1.11857e-23)
(0.090417 -0.00168278 1.05791e-23)
(0.0910116 -0.00153358 -2.93359e-22)
(0.0915534 -0.00139891 3.03594e-22)
(0.0920462 -0.00127577 -2.47201e-22)
(0.0924958 -0.0011665 2.64667e-22)
(0.0929099 -0.00106962 7.40615e-24)
(0.0932931 -0.000983008 2.11437e-22)
(0.0936483 -0.000905832 -4.01207e-22)
(0.0939784 -0.00083749 2.0203e-22)
(0.094286 -0.000777324 8.96712e-23)
(0.0945736 -0.000724893 -7.92154e-23)
(0.0948432 -0.000679564 0)
(0.0950964 -0.000640432 7.28007e-26)
(0.0953351 -0.000606961 0)
(0.0955611 -0.000578668 6.03909e-23)
(0.0957765 -0.000555565 -5.66715e-23)
(0.0959833 -0.000537832 3.46166e-24)
(0.0961839 -0.000525793 6.28013e-26)
(0.0963806 -0.00052098 2.57616e-23)
(0.0965771 -0.000525973 -4.77289e-23)
(0.0967739 -0.000544178 2.52073e-23)
(0.0969652 -0.000583746 -1.22591e-23)
(0.0972123 -0.000679822 9.26124e-24)
(0.0974443 -0.000769731 3.06033e-24)
(-0.00114189 0.0184126 -6.54932e-21)
(-0.00600026 0.0040252 0)
(0.0117037 -0.0202047 5.71433e-21)
(0.0224573 -0.0366486 -1.07596e-20)
(0.0324266 -0.0414064 5.07421e-21)
(0.0406927 -0.0393327 1.88393e-21)
(0.0473152 -0.0347109 -1.97938e-21)
(0.0529061 -0.0296774 1.60552e-21)
(0.0577429 -0.0250501 -3.13016e-21)
(0.0619342 -0.0211012 1.50142e-21)
(0.0656367 -0.0178221 2.23751e-23)
(0.0689911 -0.0151159 1.25962e-24)
(0.0719451 -0.0129023 1.94102e-23)
(0.0744706 -0.0110942 -1.22419e-21)
(0.0766786 -0.00959718 1.18703e-21)
(0.0786358 -0.00835163 3.54632e-23)
(0.0803729 -0.00731603 -1.66614e-23)
(0.0819097 -0.00646916 1.0388e-21)
(0.083313 -0.00580123 -1.03834e-21)
(0.0846096 -0.00519015 -1.58399e-23)
(0.0857514 -0.00461348 0)
(0.0867555 -0.00410587 7.40026e-25)
(0.0876578 -0.00366712 0)
(0.0884812 -0.00329969 1.31224e-23)
(0.0892399 -0.00298078 6.33028e-25)
(0.0899478 -0.00270561 1.12918e-23)
(0.0905979 -0.00244142 -6.83864e-22)
(0.0911832 -0.00221656 6.74006e-22)
(0.0917216 -0.00201493 0)
(0.0922106 -0.0018296 -2.7176e-22)
(0.0926538 -0.00166672 2.80776e-22)
(0.0930622 -0.00152324 0)
(0.0934406 -0.00139528 -2.71361e-25)
(0.0937912 -0.00128146 -2.03912e-22)
(0.0941165 -0.0011807 3.85656e-22)
(0.0944188 -0.00109166 -3.49855e-22)
(0.0947007 -0.00101319 3.23065e-22)
(0.0949646 -0.000944513 -2.98851e-22)
(0.0952129 -0.000885101 1.43705e-22)
(0.0954474 -0.000834429 6.26224e-23)
(0.0956697 -0.000792364 -5.49359e-23)
(0.0958814 -0.000758875 -3.65583e-24)
(0.0960841 -0.000734279 -5.36634e-23)
(0.0962791 -0.000719396 1.12222e-22)
(0.0964673 -0.000715563 -5.18858e-23)
(0.0966513 -0.000725274 3.59496e-27)
(0.096832 -0.000750738 3.0936e-24)
(0.0969903 -0.000799283 -4.59756e-27)
(0.0972144 -0.000915596 -3.0447e-24)
(0.0973934 -0.0010208 6.03732e-24)
(0.00115572 0.0160934 -1.47942e-23)
(0.00262999 0.00222296 -6.82495e-23)
(0.0235045 -0.0245646 -6.22733e-23)
(0.03611 -0.0427539 -5.38189e-23)
(0.0444509 -0.0484863 -8.6317e-23)
(0.0503849 -0.0464211 -4.55876e-24)
(0.0547703 -0.041307 3.09263e-23)
(0.0585168 -0.0355568 -3.07758e-23)