/*--------------------------------*- C++ -*----------------------------------*\
| =========                 |                                                 |
| \\      /  F ield         | OpenFOAM: The Open Source CFD Toolbox           |
|  \\    /   O peration     | Version:  2412                                  |
|   \\  /    A nd           | Website:  www.openfoam.com                      |
|    \\/     M anipulation  |                                                 |
\*---------------------------------------------------------------------------*/
FoamFile
{
    version     2.0;
    format      ascii;
    arch        "LSB;label=32;scalar=64";
    class       volVectorField;
    location    "0.5";
    object      vorticity;
}
// * * * * * * * * * * * * * * * * * * * * * * * * * * * * * * * * * * * * * //

dimensions      [0 0 -1 0 0 0 0];

internalField   nonuniform List<vector> 
63420
(
(0 0 0.000515935)
(0 0 -0.00024169)
(0 0 -0.000141154)
(0 0 -2.37031e-05)
(0 0 2.45115e-06)
(0 0 4.77948e-06)
(0 0 4.6712e-06)
(0 0 4.55435e-06)
(0 0 4.80766e-06)
(0 0 5.24289e-06)
(0 0 4.87154e-06)
(0 0 5.01405e-06)
(0 0 4.94148e-06)
(0 0 5.06289e-06)
(0 0 4.71253e-06)
(0 0 5.16727e-06)
(0 0 4.98962e-06)
(0 0 4.70959e-06)
(0 0 5.26089e-06)
(0 0 5.16523e-06)
(0 0 4.90078e-06)
(0 0 5.07943e-06)
(0 0 5.24151e-06)
(0 0 5.00649e-06)
(0 0 5.06612e-06)
(0 0 5.13747e-06)
(0 0 5.02979e-06)
(0 0 5.21363e-06)
(0 0 5.0893e-06)
(0 0 5.11851e-06)
(0 0 5.14794e-06)
(0 0 5.21519e-06)
(0 0 5.28145e-06)
(0 0 5.2076e-06)
(0 0 5.34251e-06)
(0 0 5.41596e-06)
(0 0 5.56661e-06)
(0 0 5.54689e-06)
(0 0 5.60931e-06)
(0 0 5.68887e-06)
(0 0 5.87534e-06)
(0 0 6.0457e-06)
(0 0 6.31648e-06)
(0 0 6.5272e-06)
(0 0 6.9083e-06)
(0 0 7.37573e-06)
(0 0 8.06961e-06)
(0 0 9.07958e-06)
(0 0 1.03232e-05)
(0 0 1.22824e-05)
(0 0 1.61798e-05)
(0 0 2.89718e-05)
(0 0 6.66619e-05)
(0 0 9.23742e-05)
(0 1.22965e-22 -0.000486382)
(0 0 0.00154133)
(0 0 -0.000744256)
(0 0 -0.000419219)
(0 0 -6.33371e-05)
(0 0 1.19682e-05)
(0 0 2.22011e-05)
(0 0 2.33484e-05)
(0 0 2.35394e-05)
(0 0 2.36562e-05)
(0 0 2.38867e-05)
(0 0 2.37512e-05)
(0 0 2.3944e-05)
(0 0 2.4046e-05)
(0 0 2.40618e-05)
(0 0 2.39874e-05)
(0 0 2.4303e-05)
(0 0 2.43533e-05)
(0 0 2.42385e-05)
(0 0 2.44235e-05)
(0 0 2.45797e-05)
(0 0 2.45723e-05)
(0 0 2.46725e-05)
(0 0 2.47281e-05)
(0 0 2.47358e-05)
(0 0 2.48611e-05)
(0 0 2.49713e-05)
(0 0 2.4924e-05)
(0 0 2.50603e-05)
(0 0 2.51863e-05)
(0 0 2.53372e-05)
(0 0 2.54535e-05)
(0 0 2.55046e-05)
(0 0 2.56593e-05)
(0 0 2.58059e-05)
(0 0 2.60022e-05)
(0 0 2.61655e-05)
(0 0 2.64931e-05)
(0 0 2.67317e-05)
(0 0 2.69996e-05)
(0 0 2.73141e-05)
(0 0 2.78227e-05)
(0 0 2.84562e-05)
(0 0 2.92174e-05)
(0 0 3.00992e-05)
(0 0 3.1308e-05)
(0 0 3.2799e-05)
(0 0 3.48422e-05)
(0 0 3.78116e-05)
(0 0 4.1894e-05)
(0 0 4.78704e-05)
(0 0 5.971e-05)
(0 0 9.79687e-05)
(0 0 0.00021032)
(0 0 0.000286288)
(0 1.23414e-22 -0.00142705)
(0 0 0.00252127)
(0 0 -0.00133865)
(0 0 -0.000710693)
(0 0 -8.54178e-05)
(0 0 4.71329e-05)
(0 0 6.66773e-05)
(0 0 6.96666e-05)
(0 0 7.02869e-05)
(0 0 7.0634e-05)
(0 0 7.08622e-05)
(0 0 7.12757e-05)
(0 0 7.18914e-05)
(0 0 7.21428e-05)
(0 0 7.23084e-05)
(0 0 7.29831e-05)
(0 0 7.31462e-05)
(0 0 7.33667e-05)
(0 0 7.38293e-05)
(0 0 7.40515e-05)
(0 0 7.4602e-05)
(0 0 7.50313e-05)
(0 0 7.51728e-05)
(0 0 7.5371e-05)
(0 0 7.59857e-05)
(0 0 7.61891e-05)
(0 0 7.6295e-05)
(0 0 7.67535e-05)
(0 0 7.72571e-05)
(0 0 7.77506e-05)
(0 0 7.80673e-05)
(0 0 7.8415e-05)
(0 0 7.88939e-05)
(0 0 7.94372e-05)
(0 0 7.99926e-05)
(0 0 8.05515e-05)
(0 0 8.12238e-05)
(0 0 8.19339e-05)
(0 0 8.25167e-05)
(0 0 8.31533e-05)
(0 0 8.41431e-05)
(0 0 8.54328e-05)
(0 0 8.69008e-05)
(0 0 8.8521e-05)
(0 0 9.03572e-05)
(0 0 9.26202e-05)
(0 0 9.55586e-05)
(0 0 9.95367e-05)
(0 0 0.000104939)
(0 0 0.000112153)
(0 0 0.00012242)
(0 0 0.000142433)
(0 0 0.000206001)
(0 0 0.000391523)
(0 0 0.000517081)
(0 7.31796e-22 -0.00225312)
(0 0 0.00323753)
(0 0 -0.00229794)
(0 0 -0.00107556)
(0 0 -0.000108053)
(0 0 0.000102281)
(0 0 0.000135013)
(0 0 0.000140661)
(0 0 0.000142735)
(0 0 0.000144197)
(0 0 0.000145558)
(0 0 0.000146952)
(0 0 0.000148246)
(0 0 0.000149427)
(0 0 0.000150679)
(0 0 0.000152021)
(0 0 0.000152968)
(0 0 0.000154144)
(0 0 0.000155473)
(0 0 0.000156583)
(0 0 0.000157837)
(0 0 0.000159054)
(0 0 0.000160134)
(0 0 0.000161212)
(0 0 0.000162506)
(0 0 0.000163676)
(0 0 0.000164898)
(0 0 0.000166342)
(0 0 0.000167721)
(0 0 0.000168983)
(0 0 0.000170317)
(0 0 0.000171813)
(0 0 0.000173489)
(0 0 0.00017513)
(0 0 0.000176816)
(0 0 0.00017857)
(0 0 0.000180477)
(0 0 0.00018245)
(0 0 0.000184484)
(0 0 0.000186806)
(0 0 0.000189606)
(0 0 0.000192675)
(0 0 0.000195967)
(0 0 0.000199682)
(0 0 0.000203891)
(0 0 0.000208854)
(0 0 0.000214892)
(0 0 0.000222337)
(0 0 0.00023182)
(0 0 0.000244082)
(0 0 0.000260806)
(0 0 0.00029097)
(0 0 0.000380613)
(0 0 0.000636536)
(0 0 0.000815637)
(0 -4.81755e-22 -0.00283949)
(0 0 0.00302091)
(0 0 -0.00432449)
(0 0 -0.00169591)
(0 0 -0.000265549)
(0 0 5.72697e-05)
(0 0 0.000111194)
(0 0 0.000121805)
(0 0 0.00012632)
(0 0 0.000129603)
(0 0 0.000132715)
(0 0 0.000135652)
(0 0 0.000138388)
(0 0 0.00014114)
(0 0 0.000143915)
(0 0 0.000146584)
(0 0 0.000149076)
(0 0 0.000151754)
(0 0 0.000154531)
(0 0 0.000157218)
(0 0 0.000159866)
(0 0 0.000162453)
(0 0 0.000165224)
(0 0 0.000168059)
(0 0 0.000170879)
(0 0 0.000173847)
(0 0 0.000176924)
(0 0 0.000180029)
(0 0 0.000183238)
(0 0 0.000186458)
(0 0 0.000189955)
(0 0 0.000193693)
(0 0 0.000197489)
(0 0 0.000201329)
(0 0 0.000205369)
(0 0 0.000209719)
(0 0 0.00021435)
(0 0 0.00021925)
(0 0 0.000224426)
(0 0 0.000230118)
(0 0 0.000236383)
(0 0 0.000243148)
(0 0 0.000250561)
(0 0 0.000258839)
(0 0 0.000268037)
(0 0 0.00027843)
(0 0 0.000290545)
(0 0 0.000304903)
(0 0 0.000322386)
(0 0 0.000343919)
(0 0 0.000371557)
(0 0 0.000416311)
(0 0 0.00053312)
(0 0 0.000848498)
(0 0 0.00108164)
(0 2.37899e-22 -0.00310368)
(0 0 0.00100152)
(0 0 -0.00810428)
(0 0 -0.00264898)
(0 0 -0.000695407)
(0 0 -0.000241759)
(0 0 -0.00016457)
(0 0 -0.000151152)
(0 0 -0.000147358)
(0 0 -0.000145201)
(0 0 -0.000143315)
(0 0 -0.000141615)
(0 0 -0.000140065)
(0 0 -0.000138404)
(0 0 -0.00013673)
(0 0 -0.000135089)
(0 0 -0.000133449)
(0 0 -0.000131638)
(0 0 -0.000129695)
(0 0 -0.000127854)
(0 0 -0.000125913)
(0 0 -0.000123963)
(0 0 -0.000121818)
(0 0 -0.000119382)
(0 0 -0.000116928)
(0 0 -0.000114334)
(0 0 -0.000111534)
(0 0 -0.000108686)
(0 0 -0.000105583)
(0 0 -0.000102156)
(0 0 -9.84775e-05)
(0 0 -9.4548e-05)
(0 0 -9.05182e-05)
(0 0 -8.62261e-05)
(0 0 -8.15302e-05)
(0 0 -7.62807e-05)
(0 0 -7.0644e-05)
(0 0 -6.45659e-05)
(0 0 -5.80193e-05)
(0 0 -5.07555e-05)
(0 0 -4.26712e-05)
(0 0 -3.36827e-05)
(0 0 -2.36134e-05)
(0 0 -1.23218e-05)
(0 0 3.50444e-07)
(0 0 1.47898e-05)
(0 0 3.18167e-05)
(0 0 5.20175e-05)
(0 0 7.62894e-05)
(0 0 0.000105799)
(0 0 0.000143074)
(0 0 0.000199986)
(0 0 0.000332036)
(0 0 0.000659512)
(0 0 0.000884611)
(0 1.17308e-21 -0.00324318)
(0 0 -0.00167629)
(0 0 -0.0118611)
(0 0 -0.00324593)
(0 0 -0.000961056)
(0 0 -0.000434165)
(0 0 -0.000350818)
(0 0 -0.000345396)
(0 0 -0.00035131)
(0 0 -0.000358708)
(0 0 -0.000366111)
(0 0 -0.000373286)
(0 0 -0.0003804)
(0 0 -0.000387222)
(0 0 -0.000393836)
(0 0 -0.00040019)
(0 0 -0.00040643)
(0 0 -0.000412481)
(0 0 -0.000418186)
(0 0 -0.000424035)
(0 0 -0.000429604)
(0 0 -0.000434973)
(0 0 -0.000440213)
(0 0 -0.000445123)
(0 0 -0.000449994)
(0 0 -0.00045479)
(0 0 -0.000459267)
(0 0 -0.00046364)
(0 0 -0.000467785)
(0 0 -0.00047165)
(0 0 -0.0004754)
(0 0 -0.00047896)
(0 0 -0.000482328)
(0 0 -0.00048545)
(0 0 -0.000488136)
(0 0 -0.000490424)
(0 0 -0.000492578)
(0 0 -0.000494371)
(0 0 -0.000495711)
(0 0 -0.000496459)
(0 0 -0.000496569)
(0 0 -0.000495925)
(0 0 -0.000494435)
(0 0 -0.000491957)
(0 0 -0.000488228)
(0 0 -0.000482932)
(0 0 -0.000475354)
(0 0 -0.000465161)
(0 0 -0.000451585)
(0 0 -0.000433292)
(0 0 -0.000407904)
(0 0 -0.000365129)
(0 0 -0.000258996)
(0 0 -6.98828e-06)
(0 0 6.82404e-05)
(0 -2.30428e-22 -0.00350001)
(-1.25617e-23 8.18227e-21 -0.0014213)
(-3.70134e-22 7.91199e-21 -0.00150195)
(1.2303e-22 -5.01744e-22 -0.000773425)
(-1.60637e-23 -2.39134e-20 -4.8452e-05)
(-2.44486e-22 8.49971e-21 0.000366377)
(1.00967e-21 8.25303e-21 0.000540387)
(-2.0209e-21 2.33829e-20 0.000596185)
(7.55702e-22 -2.43765e-20 0.000606705)
(1.56687e-21 -7.53291e-21 0.000602493)
(-2.32047e-21 -9.01399e-24 0.000594006)
(-2.3719e-21 -7.73885e-21 0.000584229)
(2.08743e-21 6.8483e-21 0.000574288)
(1.19166e-21 -6.01603e-20 0.000564152)
(-2.07856e-21 1.32132e-19 0.000553994)
(5.74332e-22 -7.3305e-20 0.000543869)
(-3.43474e-21 -5.39952e-20 0.000533818)
(5.75511e-21 -6.79565e-20 0.000523368)
(-4.74796e-21 8.82712e-21 0.000513276)
(-5.86888e-22 -7.59091e-21 0.000503389)
(2.8856e-22 7.71819e-21 0.000494002)
(-8.33149e-24 -3.40729e-22 0.000485628)
(-2.91696e-22 -7.28655e-21 0.000478715)
(-5.27476e-21 7.5812e-21 0.000472365)
(1.13085e-20 3.63044e-23 0.000465492)
(3.4845e-21 7.32434e-21 0.000457995)
(-8.86725e-21 -1.32887e-23 0.00044827)
(1.2976e-20 1.06437e-20 0.000435613)
(-1.35353e-20 1.09646e-19 0.000424275)
(1.833e-22 -1.20102e-19 0.000418958)
(-4.02791e-21 1.11047e-19 0.000419573)
(3.88141e-21 -1.14492e-19 0.000424165)
(1.31906e-22 3.64748e-21 0.000428796)
(-1.71031e-22 -4.46081e-21 0.000426805)
(4.62421e-21 -1.07152e-19 0.000422478)
(-2.08741e-20 1.08957e-19 0.000428536)
(-8.29401e-22 -4.1924e-21 0.000448978)
(1.67952e-20 3.67328e-23 0.000481599)
(1.82342e-20 3.98799e-23 0.000523479)
(-1.81758e-20 -3.97523e-23 0.000574379)
(-6.06171e-22 -1.32576e-24 0.000639842)
(-6.34645e-22 -1.38803e-24 0.000734377)
(-2.19457e-20 -4.79974e-23 0.000853058)
(2.11764e-20 4.63148e-23 0.000982739)
(-7.15668e-22 4.29778e-22 0.00115256)
(1.01362e-21 1.92067e-20 0.0013728)
(-5.43266e-20 8.30255e-20 0.0012388)
(5.16932e-20 -1.30845e-19 4.06154e-05)
(-2.86002e-20 -1.62081e-20 -0.00616621)
(3.02078e-20 6.59442e-20 -0.0329918)
(-6.62328e-20 -1.75022e-20 -0.157245)
(-6.1702e-22 8.28451e-21 -0.00419086)
(-8.96604e-23 1.60442e-20 -0.00440924)
(1.02293e-21 7.66099e-21 -0.00223016)
(-2.36254e-21 -7.99597e-21 -7.60753e-05)
(4.3359e-21 7.23471e-21 0.00115282)
(-1.83153e-21 -5.45741e-20 0.00166861)
(3.88705e-22 8.83572e-20 0.00183589)
(-2.06806e-22 -1.10763e-20 0.0018704)
(4.52089e-21 -1.00395e-19 0.00186194)
(-4.23334e-21 1.46272e-19 0.00184084)
(-6.16905e-22 1.29335e-19 0.00181582)
(3.03159e-22 -1.20131e-19 0.00178992)
(-1.01148e-21 1.89643e-21 0.001764)
(7.14711e-21 -7.3295e-21 0.00173807)
(-5.26282e-21 2.83783e-20 0.00171171)
(-1.15347e-20 2.49339e-19 0.00168378)
(4.12694e-22 -2.37955e-19 0.00165475)
(-1.034e-20 2.58221e-19 0.00162603)
(-3.1895e-22 1.75808e-20 0.00159862)
(-1.02368e-20 -8.10325e-21 0.00157324)
(1.07192e-20 3.84367e-22 0.0015514)
(-1.07618e-20 1.3147e-20 0.00153361)
(8.5627e-21 2.18124e-19 0.00151596)
(3.47933e-21 -4.85516e-19 0.00149559)
(4.57529e-21 -2.15776e-19 0.00147254)
(-5.02174e-21 4.60677e-19 0.00144039)
(-6.72512e-21 -4.66608e-19 0.00139738)
(1.18009e-20 4.87845e-19 0.00136081)
(9.19927e-21 -6.56401e-21 0.00134651)
(-1.018e-20 -2.6554e-22 0.0013492)
(-3.4006e-21 -7.43744e-24 0.00136118)
(0 0 0.00136784)
(5.07398e-22 2.60464e-22 0.00134636)
(3.04592e-20 2.42771e-20 0.0013189)
(-8.13413e-21 4.14588e-19 0.00132969)
(-3.87441e-20 -4.36302e-20 0.00138433)
(1.17593e-20 -4.25332e-19 0.00146985)
(2.30231e-20 -3.47426e-19 0.00157406)
(2.37509e-20 4.05217e-19 0.00169788)
(-8.27677e-20 -7.87392e-21 0.00185855)
(8.64822e-20 3.46891e-20 0.0020886)
(-3.4466e-20 3.01432e-19 0.00234359)
(-1.51514e-20 -3.38139e-19 0.00259472)
(-4.75889e-20 3.17288e-20 0.00296328)
(5.61775e-20 2.62664e-20 0.00343573)
(-6.40454e-20 1.8104e-19 0.0028625)
(6.51089e-20 -1.71616e-19 -0.000711799)
(-1.54119e-19 1.78003e-19 -0.0190836)
(1.46044e-19 -2.09541e-19 -0.102779)
(-6.28898e-20 -5.10669e-21 -0.466266)
(4.73216e-22 4.83099e-20 -0.00670533)
(1.09362e-22 1.42475e-20 -0.00697115)
(1.18294e-22 -6.21106e-20 -0.00334631)
(2.72337e-22 1.24409e-19 0.000184461)
(-2.21662e-22 -2.70985e-19 0.0021866)
(3.37288e-21 1.31645e-19 0.00302866)
(-6.27387e-21 -2.31223e-21 0.00331011)
(3.73458e-21 -2.02967e-20 0.00338051)
(-9.58865e-22 -2.6453e-19 0.00338331)
(6.55103e-21 2.57287e-19 0.00336596)
(-2.17809e-21 -4.20715e-21 0.00334203)
(-1.06907e-20 -7.54604e-23 0.00331533)
(1.71406e-20 -4.78186e-21 0.0032872)
(-1.61211e-20 -2.60811e-19 0.00325842)
(1.86062e-20 2.47846e-19 0.00322942)
(-1.74183e-20 4.74741e-19 0.00319875)
(-1.38561e-20 -1.35917e-20 0.00316558)
(1.16762e-21 4.92798e-19 0.00313157)
(7.29737e-22 -1.44271e-20 0.00309933)
(-1.65943e-20 4.75721e-19 0.00307082)
(1.57897e-20 -5.00308e-19 0.00304845)
(-5.83698e-21 4.8067e-19 0.00303317)
(-1.335e-20 -5.07617e-19 0.00301347)
(1.34461e-20 -2.67295e-21 0.00298303)
(-6.23313e-21 1.47384e-20 0.00294592)
(1.41983e-20 -1.66264e-21 0.0028867)
(-2.373e-20 4.51314e-19 0.00280335)
(1.78131e-20 -5.06583e-19 0.00274198)
(1.6342e-20 -4.4267e-19 0.00273186)
(-8.46303e-21 4.70455e-19 0.00274695)
(-2.99007e-21 -1.42303e-20 0.00276788)
(3.12009e-20 -3.34849e-22 0.00275818)
(-3.73317e-20 -4.8279e-20 0.00267239)
(3.7922e-20 -8.69171e-19 0.00258303)
(3.54848e-20 9.62527e-20 0.002585)
(-7.71249e-20 8.26977e-19 0.00266525)
(1.12756e-20 -3.38552e-20 0.00277811)
(-2.8357e-20 -2.98403e-20 0.00288773)
(1.10651e-19 -6.89395e-19 0.00300316)
(-1.64202e-19 1.43542e-18 0.00316373)
(1.16886e-19 -1.5366e-18 0.00339175)
(1.64786e-19 1.61732e-19 0.0035513)
(-1.67073e-19 7.12829e-19 0.00360529)
(-1.30947e-19 4.69712e-19 0.0037206)
(9.46502e-20 -6.4141e-19 0.00379345)
(-6.93794e-20 5.50824e-20 0.00174457)
(1.8148e-19 -6.10466e-20 -0.00505525)
(2.90393e-19 -1.97977e-19 -0.0359526)
(-3.42742e-19 3.90034e-19 -0.185298)
(-9.02194e-20 -1.34307e-19 -0.757755)
(6.50834e-22 -3.16156e-20 -0.00865622)
(-7.30527e-22 1.63749e-20 -0.00873539)
(1.95031e-21 -4.69715e-22 -0.00362834)
(-2.00002e-21 -1.5899e-20 0.00121184)
(-2.63372e-21 -3.76398e-21 0.00392934)
(2.83983e-21 -2.46254e-19 0.00507832)
(-9.6519e-22 4.75449e-19 0.00548344)
(-1.51186e-22 -2.60641e-19 0.00561303)
(-4.31161e-21 1.50861e-20 0.00565649)
(5.22863e-21 -2.79843e-19 0.00567642)
(-8.61953e-21 2.65516e-19 0.00569085)
(3.70413e-21 4.80538e-19 0.00570315)
(-1.22814e-21 -9.93972e-19 0.00571332)
(-3.12008e-21 9.99977e-19 0.00572103)
(1.2428e-20 -9.97477e-19 0.00572576)
(4.19813e-21 1.00806e-18 0.00572652)
(-7.78926e-21 4.9374e-19 0.00572244)
(-1.89409e-21 -9.89967e-21 0.00571611)
(1.20514e-20 1.04553e-20 0.00571167)
(1.87207e-21 4.64053e-19 0.00571267)
(-2.89537e-20 -5.00367e-19 0.00572624)
(4.02936e-20 3.45546e-20 0.00575691)
(-3.42778e-20 9.43067e-19 0.00577149)
(1.27859e-20 -9.74862e-19 0.00575591)
(5.33672e-21 8.27155e-21 0.00572323)
(-2.77633e-20 -1.60109e-22 0.00564009)
(4.01618e-20 -1.45139e-20 0.0055225)
(-1.32623e-20 3.40729e-22 0.00547596)
(-1.49707e-20 -5.93131e-23 0.00552618)
(1.39122e-20 5.56111e-22 0.00559405)
(-8.52122e-21 -1.77329e-20 0.00564742)
(5.28108e-20 -8.66061e-19 0.00562706)
(-3.6893e-20 9.29674e-19 0.00547262)
(-4.25051e-20 -1.94964e-20 0.00532388)
(4.7786e-20 1.01959e-20 0.00532603)
(-8.45889e-20 8.21346e-19 0.00544403)
(1.37164e-19 -8.67666e-19 0.00557812)
(-6.77498e-20 2.31881e-20 0.00564865)
(4.62549e-20 1.73151e-22 0.00569246)
(1.01609e-19 3.44843e-20 0.00577571)
(-3.49874e-19 6.35345e-19 0.00590869)
(3.00227e-19 -1.41032e-18 0.00600821)
(-1.08379e-19 7.47106e-19 0.00594829)
(2.79335e-19 -5.9778e-19 0.00545563)
(-2.27489e-19 7.99635e-19 0.0039791)
(-7.70365e-19 6.60237e-19 -0.00134128)
(1.44541e-18 -1.86864e-18 -0.0140818)
(-7.52638e-19 1.15257e-18 -0.0618569)
(6.39461e-20 1.04386e-21 -0.291948)
(1.30065e-20 -1.20058e-19 -1.02144)
(-1.75688e-21 1.67481e-20 -0.00958659)
(9.12709e-22 6.00386e-20 -0.00898599)
(1.18354e-22 -1.86572e-19 -0.00233831)
(3.76369e-21 2.53856e-19 0.00367107)
(-3.96419e-21 -1.14707e-19 0.00698853)
(-1.09832e-22 -1.38467e-20 0.0084046)
(-8.37502e-22 1.60386e-20 0.00894539)
(7.75608e-21 -4.12038e-22 0.00916702)
(-7.90086e-21 -1.53018e-20 0.00928753)
(-1.25449e-20 4.02021e-20 0.00937953)
(-2.34545e-21 4.93546e-19 0.00946571)
(3.13776e-20 -5.18692e-19 0.00955154)
(-4.22111e-20 4.8568e-19 0.00963863)
(3.163e-20 -5.10357e-19 0.00972738)
(-7.74008e-21 8.8575e-21 0.0098167)
(2.85235e-20 2.27444e-22 0.00990244)
(1.07981e-20 9.92584e-21 0.00998379)
(8.72703e-21 4.70956e-19 0.0100648)
(2.9389e-20 -5.22162e-19 0.0101476)
(1.80193e-20 4.8903e-20 0.0102349)
(-6.38791e-20 9.77936e-19 0.0103439)
(1.9648e-20 -1.00858e-18 0.0104905)
(2.87147e-20 3.79829e-20 0.0106067)
(-4.98173e-20 -6.41716e-22 0.010659)
(3.3039e-20 2.71581e-20 0.0106641)
(-1.72371e-20 9.52419e-19 0.0105699)
(6.61261e-22 -9.76128e-19 0.010465)
(7.99733e-21 2.71227e-20 0.010535)
(3.06301e-20 2.97877e-20 0.0107355)
(-3.23906e-20 -1.546e-21 0.0108993)
(1.37768e-21 -1.40984e-20 0.0110294)
(-1.02176e-19 1.48383e-20 0.0111797)
(1.0115e-19 1.38003e-20 0.0113061)
(-1.22898e-20 -4.97865e-20 0.0113825)
(1.96153e-20 -8.19077e-19 0.0114817)
(1.1887e-20 8.40611e-19 0.0116825)
(2.0199e-19 -1.67702e-18 0.011904)
(-1.35806e-19 1.71535e-18 0.012014)
(1.58615e-19 -1.69886e-18 0.0121042)
(1.15836e-19 2.34673e-19 0.0122365)
(-1.79131e-19 1.60053e-18 0.0122983)
(-3.43506e-19 -7.98773e-20 0.0122086)
(4.60345e-20 -2.23921e-22 0.0119255)
(-5.64682e-20 2.64016e-23 0.0106938)
(1.7084e-19 3.20785e-21 0.0067912)
(1.03674e-19 2.03024e-20 -0.00389121)
(-3.70774e-19 5.75346e-21 -0.0276685)
(2.39731e-19 9.50487e-21 -0.106695)
(-5.70112e-22 -1.07219e-21 -0.442045)
(1.26654e-19 1.1662e-21 -1.26212)
(4.51229e-23 7.7541e-20 -0.00923414)
(3.35725e-21 -4.84209e-20 -0.00744495)
(-5.01731e-21 -1.85504e-20 0.000351163)
(4.09714e-21 -2.30882e-19 0.00692795)
(2.30662e-21 2.35151e-19 0.0104248)
(-3.30067e-21 -2.30365e-19 0.0118858)
(-9.85675e-21 5.09308e-19 0.0124528)
(2.8711e-21 -7.20997e-19 0.0127076)
(-3.01712e-22 5.21789e-19 0.0128691)
(5.66625e-21 4.93877e-19 0.0130061)
(-4.03294e-21 -1.00993e-20 0.0131378)
(1.88518e-20 -9.71505e-19 0.013269)
(-6.75422e-21 1.02856e-18 0.0134022)
(-1.01073e-20 -4.97846e-19 0.0135396)
(4.23266e-21 -4.86972e-19 0.0136796)
(2.80808e-20 -4.74233e-19 0.0138204)
(-3.88264e-21 3.03096e-21 0.0139573)
(3.77906e-20 -1.00876e-18 0.0140891)
(6.36465e-21 -9.49454e-19 0.0142207)
(1.25915e-20 4.52685e-20 0.0143547)
(9.41151e-21 1.00061e-18 0.0145175)
(-5.56e-20 -2.18337e-20 0.0147381)
(3.43858e-20 2.49673e-20 0.0149106)
(-2.89784e-20 9.63566e-19 0.0149692)
(3.89594e-21 -1.02622e-18 0.0150454)
(7.16666e-20 -9.27891e-19 0.0151513)
(-7.51635e-20 1.00754e-18 0.0152693)
(4.2814e-20 -5.62199e-20 0.0154882)
(1.64525e-20 -9.50621e-19 0.0157617)
(-9.44477e-20 1.01177e-18 0.0159704)
(1.23566e-20 3.49809e-20 0.0161011)
(-1.33535e-19 1.80511e-18 0.0161859)
(7.36834e-20 -1.95384e-18 0.0163275)
(1.4072e-19 1.52566e-19 0.0165994)
(-1.46146e-19 1.73712e-18 0.0169072)
(7.82321e-20 -1.90095e-18 0.0172058)
(-8.96873e-20 -9.95774e-21 0.017444)
(4.75566e-19 -1.6686e-18 0.0175484)
(-3.94445e-19 1.82234e-18 0.0176336)
(-2.02358e-19 -1.88973e-19 0.0177113)
(7.20664e-19 -1.43826e-18 0.0176251)
(-8.39599e-19 3.28245e-18 0.0172269)
(-7.95988e-20 -2.66689e-19 0.0162585)
(-1.79681e-19 -1.80103e-19 0.0133481)
(5.94912e-19 -1.48554e-18 0.00482848)
(1.39986e-19 2.18054e-19 -0.0170696)
(-1.30116e-18 1.14228e-18 -0.0665812)
(1.18522e-18 -1.39934e-18 -0.206647)
(-1.55646e-20 1.12268e-19 -0.679209)
(2.38509e-20 -1.01206e-20 -1.49721)
(1.28933e-21 -1.7536e-20 -0.00845679)
(1.06432e-23 -1.36856e-19 -0.00679607)
(-7.98954e-22 1.25726e-19 -0.00024202)
(-3.95405e-21 -2.09267e-20 0.00511892)
(5.92297e-21 -2.27821e-19 0.0078816)
(-4.74181e-21 2.43643e-19 0.00899853)
(1.83175e-21 4.76465e-19 0.00940839)
(-1.36019e-20 -2.40454e-20 0.00957008)
(6.14058e-21 -9.11308e-21 0.00965795)
(1.85965e-20 -5.06781e-19 0.00972844)
(-1.1629e-20 4.74531e-19 0.00979578)
(5.2366e-21 -1.01616e-18 0.00986274)
(1.00034e-20 5.18871e-19 0.00993049)
(-1.02093e-20 -2.47137e-20 0.00999942)
(-1.36003e-20 -3.47026e-20 0.01007)
(2.23558e-20 -1.00445e-18 0.0101352)
(-1.66453e-21 -1.95566e-20 0.0101888)
(1.45498e-20 -1.026e-18 0.0102298)
(-1.55407e-20 4.29846e-21 0.0102438)
(-6.63936e-22 3.20816e-22 0.0102263)
(3.12376e-20 2.36506e-20 0.0102038)
(-5.79571e-20 9.82476e-19 0.0102569)
(4.15289e-20 -1.03353e-18 0.010482)
(3.57213e-20 2.33841e-20 0.0106481)
(-2.61416e-20 -1.58521e-20 0.0105638)
(-1.72243e-20 2.80586e-20 0.010469)
(-6.92905e-20 9.39997e-19 0.0105013)
(1.55225e-19 -1.99271e-18 0.0105942)
(-5.84993e-20 1.11494e-18 0.0106505)
(-1.70892e-19 1.92699e-18 0.0106567)
(-4.75035e-20 -7.80414e-20 0.0106371)
(5.14402e-20 -2.01312e-20 0.0106259)
(-1.3647e-19 -9.30756e-20 0.0106733)
(2.17048e-19 -2.01429e-18 0.0107713)
(4.8431e-19 -1.75288e-18 0.0108685)
(-3.60305e-19 1.97724e-18 0.0109945)
(-9.71535e-20 -1.57148e-19 0.0111867)
(4.17107e-19 -1.74184e-18 0.0114726)
(-2.51368e-19 2.00608e-18 0.0118426)
(-7.16168e-19 1.6049e-18 0.0125153)
(4.27224e-19 -1.86349e-18 0.0138849)
(2.13535e-19 -2.19026e-20 0.0161217)
(9.23074e-19 -1.65595e-18 0.0192145)
(3.15926e-19 2.37318e-19 0.0218176)
(-1.2235e-18 1.66141e-18 0.0188561)
(-7.31278e-20 -1.16811e-19 -0.00810989)
(1.30635e-19 2.12877e-21 -0.0929557)
(-8.04521e-20 8.77392e-20 -0.360671)
(-1.22969e-18 1.093e-18 -1.03869)
(1.15263e-18 -1.16862e-18 -2.16618)
(-1.49112e-20 -4.58853e-21 0.0637452)
(-1.30491e-20 -1.98374e-20 -0.0737729)
(1.20582e-20 3.33292e-20 -0.105983)
(-2.64849e-20 -2.62244e-20 -0.0783661)
(2.72586e-20 1.3358e-20 -0.0461643)
(-9.2412e-22 2.21836e-21 -0.0250946)
(-2.11304e-22 -1.18892e-22 -0.0134996)
(-6.24559e-21 1.36597e-23 -0.00744161)
(6.06354e-21 -1.32616e-23 -0.0043492)
(-1.81872e-22 3.97771e-25 -0.00274041)
(-1.75633e-22 3.84126e-25 -0.00186722)
(5.2447e-21 -1.14707e-23 -0.00137438)
(-5.26159e-21 1.15076e-23 -0.00109357)
(-4.93714e-21 1.0798e-23 -0.000927917)
(2.09054e-22 -1.2371e-21 -0.000818483)
(7.27521e-21 9.8801e-20 -0.000742467)
(-2.54969e-21 -9.04081e-20 -0.000688405)
(-9.6436e-23 -1.16328e-21 -0.00064536)
(-3.92845e-23 1.0863e-21 -0.000606465)
(-1.82017e-21 -1.07329e-19 -0.000575485)
(1.87002e-21 1.06309e-19 -0.000555845)
(-7.49181e-22 -1.01581e-19 -0.000542708)
(2.58795e-21 5.94668e-21 -0.000532935)
(-3.77391e-21 1.37226e-23 -0.000522734)
(2.4729e-21 7.04775e-21 -0.000512605)
(-9.36426e-22 6.0201e-23 -0.000503122)
(-3.09296e-21 6.76462e-24 -0.000495876)
(1.50831e-21 -4.83398e-23 -0.000490749)
(-3.93627e-23 7.316e-21 -0.000486892)
(-8.29432e-23 8.4718e-23 -0.000484265)
(3.72817e-23 -7.46009e-21 -0.000482328)
(-1.04803e-22 7.46758e-21 -0.000480581)
(9.84995e-22 -7.76238e-21 -0.000478872)
(-1.64186e-21 6.84134e-20 -0.000477412)
(5.5536e-22 -6.7877e-20 -0.000476506)
(-3.73489e-22 -5.42762e-20 -0.000476113)
(6.16543e-22 1.15294e-19 -0.000475997)
(-2.92403e-22 -6.12986e-20 -0.000476017)
(-3.52436e-22 -7.9829e-21 -0.000476137)
(3.15584e-22 7.77745e-21 -0.000476357)
(2.59952e-22 1.69121e-24 -0.000476623)
(-3.53537e-22 7.95923e-21 -0.000476863)
(-8.5797e-23 -3.96195e-20 -0.000477132)
(1.86702e-22 3.95811e-20 -0.000477422)
(-1.49824e-22 -7.93351e-21 -0.000477871)
(4.87583e-24 2.4036e-20 -0.000479931)
(-1.23817e-22 -7.94181e-21 -0.000491267)
(-4.58612e-23 -1.6198e-20 -0.000530297)
(5.7777e-23 8.08984e-21 -0.000531711)
(3.35741e-23 -8.14322e-21 0.00017108)
(-2.52495e-20 3.79369e-20 0.17804)
(-3.23836e-22 4.38781e-20 -0.223464)
(9.85711e-21 -9.19803e-20 -0.315779)
(-8.50632e-20 -3.89594e-20 -0.233149)
(8.39016e-20 4.04304e-20 -0.136841)
(-1.57819e-20 1.10705e-20 -0.0736423)
(1.17551e-20 8.34153e-22 -0.0389217)
(-4.81514e-20 -2.54264e-19 -0.0210749)
(6.04872e-20 2.33904e-19 -0.0121003)
(-2.73218e-20 -2.17224e-21 -0.00750087)
(2.30914e-20 -1.58015e-20 -0.00503926)
(1.74362e-20 3.45637e-19 -0.00366758)
(-3.12918e-20 -3.29645e-19 -0.00291386)
(-2.09087e-20 -3.76765e-19 -0.00249474)
(1.44912e-20 -2.23941e-20 -0.00222459)
(1.7135e-20 3.84301e-19 -0.00203576)
(-9.36523e-21 -8.67347e-22 -0.00189987)
(-2.57313e-22 -1.2891e-20 -0.00178892)
(1.70011e-23 -1.51487e-22 -0.00168218)
(1.01277e-21 -2.21503e-24 -0.00159635)
(3.08892e-21 4.99077e-23 -0.00154727)
(-2.83855e-21 -1.05172e-20 -0.00151792)
(2.86987e-21 4.29093e-19 -0.00149436)
(-3.79291e-21 -4.60587e-19 -0.00147049)
(6.29391e-21 4.46389e-19 -0.00144435)
(-4.02048e-21 -2.1972e-19 -0.00141876)
(-4.93622e-21 -4.65855e-19 -0.00139962)
(7.40577e-25 2.29219e-19 -0.00138671)
(2.68894e-21 -5.68044e-21 -0.0013767)
(-2.53182e-21 -1.48817e-20 -0.00136974)
(2.61854e-21 7.4599e-21 -0.00136451)
(-7.56925e-23 -2.34758e-20 -0.00135982)
(3.37559e-21 2.36152e-19 -0.00135567)
(-7.11219e-21 -4.92782e-19 -0.00135224)
(3.66551e-21 2.33903e-19 -0.00134981)
(8.66668e-22 -2.2072e-20 -0.00134826)
(-1.11077e-21 7.62028e-21 -0.00134726)
(1.74235e-22 3.91148e-22 -0.00134667)
(-5.38102e-22 -1.32624e-19 -0.00134643)
(4.94624e-22 1.16309e-19 -0.00134644)
(9.50409e-22 1.10574e-19 -0.00134655)
(-1.13575e-21 -1.49181e-19 -0.00134671)
(1.50316e-22 7.45654e-21 -0.00134687)
(3.77729e-23 3.99087e-20 -0.001347)
(4.61472e-25 -7.15484e-20 -0.00134759)
(-5.3385e-22 -8.03646e-21 -0.00135273)
(5.48025e-23 -5.62611e-20 -0.00138511)
(-1.6181e-22 -8.2893e-21 -0.00150016)
(1.32849e-22 1.60753e-20 -0.00151583)
(1.48355e-22 2.44267e-20 0.000554575)
(-4.51051e-20 -1.71566e-21 0.248812)
(6.9155e-20 -3.98114e-20 -0.381498)
(-1.97647e-20 6.56446e-20 -0.519626)
(-9.13539e-20 -2.51598e-20 -0.382718)
(3.43075e-20 1.47258e-20 -0.223916)
(-2.47044e-19 -3.84198e-19 -0.118807)
(2.67449e-19 3.4841e-19 -0.0614123)
(2.19188e-19 5.4263e-19 -0.0322307)
(-7.55276e-20 1.05511e-19 -0.0177052)
(-2.8343e-19 -1.21431e-18 -0.0104565)
(2.62381e-19 1.28382e-18 -0.00671636)
(-1.26763e-19 -6.28814e-19 -0.00471516)
(6.48643e-21 -2.35317e-20 -0.00368713)
(-4.427e-21 -1.10112e-20 -0.00316861)
(7.53001e-20 7.95487e-19 -0.00285304)
(-1.81313e-20 2.87344e-20 -0.00263344)
(-5.37503e-20 -7.93075e-19 -0.00247778)
(1.35699e-20 1.57722e-20 -0.00234412)
(-1.00767e-20 3.63863e-22 -0.00218384)
(6.11376e-22 -4.31026e-21 -0.00204885)
(1.41834e-20 4.4481e-19 -0.00199468)
(-1.5678e-20 -4.19163e-19 -0.00198118)
(-1.38914e-20 -4.45619e-19 -0.00196559)
(1.6921e-20 4.62208e-19 -0.00194244)
(-3.54283e-21 1.85421e-20 -0.00191059)
(1.51333e-21 -1.44803e-20 -0.00187662)
(-3.57975e-21 1.74307e-20 -0.00185771)
(-1.82352e-21 -4.60271e-19 -0.00184923)
(7.67273e-21 4.72195e-19 -0.00184021)
(-8.51271e-21 -4.48151e-19 -0.00183359)
(9.31159e-21 4.76449e-19 -0.0018287)
(1.73663e-22 1.56108e-20 -0.00182382)
(3.42827e-21 4.90493e-19 -0.00181949)
(-9.26431e-21 -9.60585e-19 -0.0018162)
(7.95722e-21 4.99915e-19 -0.00181408)
(-1.53541e-21 2.64863e-19 -0.00181317)
(1.24948e-21 -2.30642e-19 -0.00181306)
(-2.86966e-21 -7.71336e-22 -0.0018134)
(1.7275e-21 -2.72975e-23 -0.00181406)
(3.35987e-22 -6.00265e-22 -0.00181486)
(6.2127e-22 2.52066e-19 -0.00181573)
(-1.13018e-21 -2.35529e-19 -0.00181658)
(-4.14031e-22 1.52604e-20 -0.00181731)
(1.00034e-21 -2.41955e-22 -0.00181804)
(2.8021e-22 1.27943e-19 -0.00181919)
(-1.28233e-21 -2.3957e-19 -0.0018267)
(8.2289e-22 1.2771e-19 -0.00187723)
(-4.44163e-22 -6.42411e-20 -0.00206386)
(2.51969e-22 4.81479e-20 -0.00212937)
(1.06073e-22 1.62571e-20 0.0011806)
(-2.24153e-21 6.43551e-20 0.230503)
(2.40815e-20 -1.20905e-19 -0.559494)
(5.63976e-19 4.58156e-19 -0.716557)
(-1.39448e-18 -9.14926e-19 -0.524044)
(8.65718e-19 4.54029e-19 -0.305733)
(3.60063e-19 5.11841e-19 -0.160272)
(-4.0616e-19 -4.61307e-19 -0.0812492)
(2.65032e-19 5.84829e-19 -0.0413049)
(-5.25566e-19 -1.20219e-18 -0.021569)
(3.0512e-19 5.89335e-19 -0.0118733)
(-2.8093e-20 2.57937e-20 -0.00703667)
(-1.72334e-20 4.11582e-22 -0.00454675)
(2.4912e-20 2.35111e-20 -0.00322009)
(-1.32393e-19 -8.08976e-19 -0.0024885)
(1.11517e-19 7.60952e-19 -0.00205095)
(-1.30142e-20 3.75175e-20 -0.00176784)
(1.1739e-20 -2.29747e-20 -0.00159549)
(6.07478e-20 8.70279e-19 -0.0014592)
(-6.65823e-20 -8.50124e-19 -0.0012477)
(1.84865e-21 -2.4046e-20 -0.00105689)
(-4.13781e-21 -1.41011e-22 -0.00100996)
(3.98323e-21 2.75525e-23 -0.00102615)
(3.73153e-21 -1.42017e-22 -0.00103314)
(-1.19794e-20 1.45176e-20 -0.00101631)
(8.47248e-21 -2.96496e-25 -0.000978669)
(-8.80647e-22 2.14182e-20 -0.000944525)
(-2.33959e-20 -9.71566e-19 -0.000959398)
(2.84208e-20 9.43955e-19 -0.000990959)
(-1.09957e-20 9.37633e-21 -0.00100056)
(1.41535e-22 -4.86644e-19 -0.00100228)
(7.25902e-21 4.96581e-19 -0.00100393)
(-2.92145e-21 2.78491e-21 -0.00100491)
(1.11928e-22 1.98652e-21 -0.00100662)
(-2.19369e-21 -5.11907e-19 -0.0010098)
(1.04994e-20 1.00443e-18 -0.00101403)
(-1.24286e-20 -9.90563e-19 -0.00101892)
(9.93606e-21 9.94127e-19 -0.00102441)
(-8.44578e-21 -9.96091e-19 -0.00103063)
(3.72869e-21 4.96261e-19 -0.00103761)
(3.35537e-21 2.53214e-19 -0.0010453)
(-2.57482e-21 -2.19271e-19 -0.00105361)
(4.34283e-22 -1.57899e-20 -0.00106212)
(-1.82695e-21 -2.54386e-19 -0.00107058)
(4.02497e-21 5.38928e-19 -0.00107864)
(-2.21102e-21 -2.52895e-19 -0.0010863)
(2.53196e-22 -5.37541e-22 -0.00110071)
(3.52295e-22 1.59588e-20 -0.00117022)
(-2.82388e-22 6.44167e-23 -0.00142479)
(-1.01268e-22 -1.61025e-20 -0.00160194)
(3.00088e-22 3.21242e-20 0.00266595)
(6.53793e-20 -2.74858e-22 0.0734619)
(-2.83144e-22 -1.35369e-21 -0.766926)
(-1.46469e-19 -4.76561e-21 -0.904652)
(1.86408e-19 -8.40257e-21 -0.654272)
(-6.61834e-20 -1.54313e-20 -0.379407)
(-7.33835e-20 -2.53908e-21 -0.196271)
(3.25847e-20 8.70424e-21 -0.0971784)
(-1.67662e-20 -9.74924e-21 -0.0478998)
(1.21258e-19 -4.17728e-20 -0.0240734)
(4.47225e-19 1.4222e-18 -0.0125644)
(-1.08423e-19 9.73659e-20 -0.00690366)
(-3.89082e-19 -1.5308e-18 -0.00387081)
(2.84912e-19 1.58201e-18 -0.00198191)
(-3.09203e-19 -1.56952e-18 -0.00073722)
(8.76903e-20 8.26864e-19 8.98382e-05)
(-1.02004e-19 -8.54489e-19 0.000653368)
(6.11508e-21 1.21776e-21 0.00105175)
(-3.53842e-20 -1.31809e-20 0.00133552)
(3.30597e-20 -1.44883e-20 0.00155766)
(1.02544e-21 1.39696e-20 0.00175446)
(1.02686e-20 3.94377e-22 0.00191694)
(-1.17044e-20 -2.89202e-20 0.00205277)
(-2.42032e-21 8.2296e-21 0.0021838)
(-3.62425e-20 -9.71111e-19 0.00230348)
(3.96172e-20 9.24143e-19 0.00241005)
(-1.04494e-20 8.30152e-21 0.0024685)
(1.4672e-20 2.37108e-23 0.00239053)
(-8.61461e-21 -8.85853e-21 0.00230485)
(-2.97523e-20 -9.83493e-19 0.00230918)
(4.09336e-20 9.55125e-19 0.00234693)
(-5.45343e-21 -6.82277e-21 0.00237462)
(-1.71121e-20 -4.81475e-19 0.00239011)