/*--------------------------------*- C++ -*----------------------------------*\
| =========                 |                                                 |
| \\      /  F ield         | OpenFOAM: The Open Source CFD Toolbox           |
|  \\    /   O peration     | Version:  2412                                  |
|   \\  /    A nd           | Website:  www.openfoam.com                      |
|    \\/     M anipulation  |                                                 |
\*---------------------------------------------------------------------------*/
FoamFile
{
    version     2.0;
    format      ascii;
    arch        "LSB;label=32;scalar=64";
    class       volVectorField;
    location    "26";
    object      U;
}
// * * * * * * * * * * * * * * * * * * * * * * * * * * * * * * * * * * * * * //

dimensions      [0 1 -1 0 0 0 0];

internalField   nonuniform List<vector> 
5285
(
(0.0999997 4.39711e-07 0)
(0.099995 1.30782e-06 0)
(0.099985 2.16351e-06 0)
(0.0999706 3.01112e-06 0)
(0.0999519 3.85518e-06 0)
(0.099929 4.69877e-06 0)
(0.0999021 5.54444e-06 0)
(0.0998714 6.39844e-06 0)
(0.099837 7.27731e-06 0)
(0.0997988 8.21336e-06 0)
(0.0997566 9.25406e-06 0)
(0.09971 1.04532e-05 0)
(0.0996583 1.18552e-05 0)
(0.0996007 1.34796e-05 0)
(0.0995365 1.53096e-05 0)
(0.0994651 1.72915e-05 0)
(0.0993864 1.93436e-05 0)
(0.0993005 2.13719e-05 0)
(0.099208 2.32873e-05 0)
(0.0991099 2.50209e-05 0)
(0.0990072 2.65324e-05 0)
(0.0989012 2.78129e-05 0)
(0.0987927 2.88813e-05 0)
(0.0986826 2.9777e-05 0)
(0.0985717 3.05517e-05 0)
(0.0984603 3.1261e-05 0)
(0.0983487 3.19577e-05 0)
(0.0982367 3.26877e-05 0)
(0.0981244 3.34875e-05 0)
(0.0980115 3.43839e-05 0)
(0.0978976 3.53947e-05 0)
(0.0977826 3.65302e-05 0)
(0.097666 3.77949e-05 0)
(0.0975476 3.91896e-05 0)
(0.0974272 4.07124e-05 0)
(0.0973044 4.23606e-05 0)
(0.097179 4.4131e-05 0)
(0.097051 4.60207e-05 0)
(0.09692 4.80277e-05 0)
(0.0967859 5.01508e-05 0)
(0.0966486 5.23898e-05 0)
(0.096508 5.47454e-05 0)
(0.096364 5.72191e-05 0)
(0.0962164 5.98133e-05 0)
(0.0960651 6.25309e-05 0)
(0.09591 6.53755e-05 0)
(0.0957511 6.83513e-05 0)
(0.0955882 7.14626e-05 0)
(0.0954213 7.47147e-05 0)
(0.0952502 7.81132e-05 0)
(0.0950748 8.16644e-05 0)
(0.094895 8.53769e-05 0)
(0.0947108 8.92647e-05 0)
(0.094522 9.33582e-05 0)
(0.0943283 9.77338e-05 0)
(0.0999997 1.31912e-06 0)
(0.099995 3.92336e-06 0)
(0.099985 6.49028e-06 0)
(0.0999706 9.03275e-06 0)
(0.0999519 1.15645e-05 0)
(0.099929 1.40948e-05 0)
(0.0999022 1.66313e-05 0)
(0.0998715 1.91928e-05 0)
(0.0998371 2.18288e-05 0)
(0.0997989 2.46357e-05 0)
(0.0997568 2.77554e-05 0)
(0.0997102 3.13487e-05 0)
(0.0996586 3.55488e-05 0)
(0.0996011 4.04138e-05 0)
(0.099537 4.58942e-05 0)
(0.0994657 5.18301e-05 0)
(0.0993871 5.79777e-05 0)
(0.0993013 6.4056e-05 0)
(0.099209 6.97992e-05 0)
(0.0991111 7.50009e-05 0)
(0.0990085 7.95406e-05 0)
(0.0989026 8.33911e-05 0)
(0.0987942 8.66081e-05 0)
(0.0986843 8.93093e-05 0)
(0.0985735 9.16483e-05 0)
(0.0984622 9.37909e-05 0)
(0.0983506 9.58949e-05 0)
(0.0982387 9.80972e-05 0)
(0.0981265 0.000100507 0)
(0.0980136 0.000103205 0)
(0.0978998 0.000106243 0)
(0.0977848 0.000109653 0)
(0.0976684 0.00011345 0)
(0.0975501 0.000117634 0)
(0.0974298 0.000122201 0)
(0.0973071 0.000127143 0)
(0.0971819 0.000132451 0)
(0.097054 0.000138115 0)
(0.0969232 0.000144131 0)
(0.0967893 0.000150494 0)
(0.0966523 0.000157204 0)
(0.0965119 0.000164263 0)
(0.0963681 0.000171676 0)
(0.0962207 0.00017945 0)
(0.0960697 0.000187593 0)
(0.095915 0.000196116 0)
(0.0957564 0.000205032 0)
(0.0955938 0.000214353 0)
(0.0954272 0.000224096 0)
(0.0952565 0.000234276 0)
(0.0950815 0.000244914 0)
(0.0949022 0.000256033 0)
(0.0947185 0.000267676 0)
(0.0945301 0.000279932 0)
(0.094337 0.000293029 0)
(0.0999997 2.19765e-06 0)
(0.099995 6.53609e-06 0)
(0.0999851 1.08125e-05 0)
(0.0999707 1.5048e-05 0)
(0.099952 1.92655e-05 0)
(0.0999291 2.34806e-05 0)
(0.0999023 2.77062e-05 0)
(0.0998717 3.19732e-05 0)
(0.0998373 3.63638e-05 0)
(0.0997992 4.1038e-05 0)
(0.0997572 4.62315e-05 0)
(0.0997107 5.22111e-05 0)
(0.0996592 5.91987e-05 0)
(0.0996018 6.72915e-05 0)
(0.0995379 7.64082e-05 0)
(0.0994668 8.62841e-05 0)
(0.0993885 9.65151e-05 0)
(0.099303 0.000106635 0)
(0.099211 0.000116201 0)
(0.0991133 0.00012487 0)
(0.0990111 0.000132442 0)
(0.0989054 0.000138869 0)
(0.0987973 0.000144244 0)
(0.0986876 0.000148759 0)
(0.0985769 0.000152671 0)
(0.0984658 0.000156254 0)
(0.0983544 0.000159769 0)
(0.0982427 0.000163445 0)
(0.0981305 0.000167463 0)
(0.0980178 0.000171957 0)
(0.0979042 0.000177016 0)
(0.0977894 0.000182691 0)
(0.0976731 0.000189007 0)
(0.0975551 0.000195967 0)
(0.097435 0.000203563 0)
(0.0973126 0.000211782 0)
(0.0971877 0.000220609 0)
(0.0970601 0.000230029 0)
(0.0969296 0.000240033 0)
(0.0967962 0.000250614 0)
(0.0966595 0.000261773 0)
(0.0965196 0.000273511 0)
(0.0963763 0.000285837 0)
(0.0962294 0.000298763 0)
(0.096079 0.000312302 0)
(0.0959248 0.000326473 0)
(0.0957669 0.000341295 0)
(0.095605 0.00035679 0)
(0.0954391 0.000372984 0)
(0.0952692 0.000389904 0)
(0.095095 0.000407581 0)
(0.0949166 0.000426055 0)
(0.0947337 0.000445394 0)
(0.0945464 0.00046574 0)
(0.0943543 0.000487454 0)
(0.0999997 3.07472e-06 0)
(0.099995 9.14413e-06 0)
(0.0999851 1.51271e-05 0)
(0.0999707 2.10526e-05 0)
(0.0999521 2.69528e-05 0)
(0.0999293 3.28496e-05 0)
(0.0999025 3.8761e-05 0)
(0.099872 4.47302e-05 0)
(0.0998377 5.08714e-05 0)
(0.0997997 5.74071e-05 0)
(0.0997577 6.46656e-05 0)
(0.0997114 7.30187e-05 0)
(0.09966 8.27767e-05 0)
(0.0996029 9.40762e-05 0)
(0.0995392 0.000106806 0)
(0.0994685 0.000120599 0)
(0.0993905 0.000134893 0)
(0.0993055 0.00014904 0)
(0.0992139 0.000162421 0)
(0.0991167 0.000174558 0)
(0.0990149 0.000185168 0)
(0.0989096 0.000194183 0)
(0.0988018 0.000201728 0)
(0.0986925 0.000208073 0)
(0.0985821 0.000213571 0)
(0.0984712 0.000218604 0)
(0.09836 0.000223538 0)
(0.0982485 0.000228689 0)
(0.0981366 0.000234312 0)
(0.0980241 0.000240595 0)
(0.0979107 0.000247661 0)
(0.0977962 0.000255585 0)
(0.0976802 0.0002644 0)
(0.0975625 0.000274113 0)
(0.0974427 0.000284713 0)
(0.0973207 0.000296181 0)
(0.0971963 0.000308497 0)
(0.0970692 0.00032164 0)
(0.0969393 0.000335598 0)
(0.0968064 0.000350363 0)
(0.0966704 0.000365931 0)
(0.0965311 0.000382309 0)
(0.0963885 0.000399506 0)
(0.0962425 0.000417538 0)
(0.0960928 0.000436425 0)
(0.0959396 0.000456191 0)
(0.0957825 0.000476864 0)
(0.0956217 0.000498473 0)
(0.0954569 0.000521054 0)
(0.095288 0.000544642 0)
(0.0951151 0.000569281 0)
(0.094938 0.000595025 0)
(0.0947565 0.000621961 0)
(0.0945707 0.000650272 0)
(0.0943802 0.000680421 0)
(0.0999997 3.94981e-06 0)
(0.099995 1.17456e-05 0)
(0.0999851 1.94312e-05 0)
(0.0999708 2.70423e-05 0)
(0.0999522 3.46209e-05 0)
(0.0999295 4.21951e-05 0)
(0.0999028 4.97879e-05 0)
(0.0998723 5.74546e-05 0)
(0.0998381 6.53406e-05 0)
(0.0998002 7.37299e-05 0)
(0.0997584 8.30413e-05 0)
(0.0997123 9.37505e-05 0)
(0.0996611 0.000106255 0)
(0.0996043 0.000120733 0)
(0.099541 0.000137044 0)
(0.0994707 0.000154723 0)
(0.0993933 0.000173054 0)
(0.0993087 0.000191206 0)
(0.0992178 0.000208392 0)
(0.0991211 0.000223995 0)
(0.0990199 0.00023765 0)
(0.0989151 0.000249267 0)
(0.0988078 0.000259003 0)
(0.0986989 0.000267196 0)
(0.0985889 0.000274298 0)
(0.0984783 0.000280796 0)
(0.0983674 0.000287156 0)
(0.0982562 0.000293785 0)
(0.0981446 0.000301009 0)
(0.0980324 0.000309069 0)
(0.0979194 0.000318126 0)
(0.0978052 0.000328276 0)
(0.0976896 0.000339563 0)
(0.0975723 0.000351996 0)
(0.097453 0.000365564 0)
(0.0973316 0.000380243 0)
(0.0972077 0.000396006 0)
(0.0970813 0.000412829 0)
(0.096952 0.000430694 0)
(0.0968199 0.000449592 0)
(0.0966847 0.000469518 0)
(0.0965464 0.000490479 0)
(0.0964047 0.000512488 0)
(0.0962597 0.000535564 0)
(0.0961112 0.000559732 0)
(0.0959591 0.000585021 0)
(0.0958033 0.000611467 0)
(0.0956438 0.000639108 0)
(0.0954804 0.000667985 0)
(0.0953131 0.000698144 0)
(0.0951418 0.000729639 0)
(0.0949663 0.000762534 0)
(0.0947867 0.000796931 0)
(0.0946028 0.000833038 0)
(0.0944145 0.000871374 0)
(0.0999997 4.82255e-06 0)
(0.099995 1.43386e-05 0)
(0.0999852 2.37217e-05 0)
(0.0999709 3.3013e-05 0)
(0.0999524 4.22645e-05 0)
(0.0999297 5.15104e-05 0)
(0.0999032 6.07791e-05 0)
(0.0998728 7.01373e-05 0)
(0.0998387 7.97609e-05 0)
(0.099801 8.99936e-05 0)
(0.0997593 0.000101343 0)
(0.0997134 0.000114386 0)
(0.0996625 0.000129609 0)
(0.0996061 0.000147229 0)
(0.0995432 0.000167082 0)
(0.0994735 0.000188608 0)
(0.0993966 0.000210941 0)
(0.0993127 0.000233075 0)
(0.0992224 0.000254051 0)
(0.0991265 0.000273118 0)
(0.0990259 0.000289827 0)
(0.0989218 0.000304064 0)
(0.0988151 0.000316011 0)
(0.0987067 0.000326076 0)
(0.0985972 0.000334804 0)
(0.0984871 0.000342783 0)
(0.0983766 0.00035058 0)
(0.0982657 0.000358688 0)
(0.0981545 0.000367507 0)
(0.0980427 0.000377329 0)
(0.09793 0.000388355 0)
(0.0978163 0.000400701 0)
(0.0977012 0.000414425 0)
(0.0975844 0.000429539 0)
(0.0974658 0.00044603 0)
(0.097345 0.00046387 0)
(0.0972219 0.000483028 0)
(0.0970963 0.000503474 0)
(0.0969679 0.000525188 0)
(0.0968367 0.000548155 0)
(0.0967026 0.000572372 0)
(0.0965654 0.000597847 0)
(0.0964249 0.000624592 0)
(0.0962812 0.000652632 0)
(0.096134 0.000681995 0)
(0.0959834 0.000712718 0)
(0.0958292 0.000744839 0)
(0.0956713 0.000778405 0)
(0.0955097 0.000813465 0)
(0.0953442 0.000850072 0)
(0.0951749 0.000888288 0)
(0.0950015 0.000928184 0)
(0.0948242 0.000969871 0)
(0.0946427 0.00101356 0)
(0.094457 0.00105977 0)
(0.0999997 5.69222e-06 0)
(0.0999951 1.69218e-05 0)
(0.0999853 2.7996e-05 0)
(0.099971 3.89607e-05 0)
(0.0999526 4.98783e-05 0)
(0.09993 6.07892e-05 0)
(0.0999036 7.17268e-05 0)
(0.0998733 8.27693e-05 0)
(0.0998394 9.41217e-05 0)
(0.0998018 0.000106186 0)
(0.0997604 0.000119555 0)
(0.0997147 0.000134907 0)
(0.0996642 0.000152813 0)
(0.0996081 0.000173534 0)
(0.0995458 0.000196884 0)
(0.0994767 0.000222211 0)
(0.0994005 0.000248506 0)
(0.0993174 0.00027459 0)
(0.0992279 0.00029934 0)
(0.0991328 0.000321867 0)
(0.099033 0.00034164 0)
(0.0989297 0.000358514 0)
(0.0988236 0.000372698 0)
(0.0987158 0.000384662 0)
(0.0986069 0.000395039 0)
(0.0984973 0.000404518 0)
(0.0983873 0.000413762 0)
(0.0982769 0.000423351 0)
(0.0981661 0.000433755 0)
(0.0980548 0.000445323 0)
(0.0979426 0.00045829 0)
(0.0978294 0.000472798 0)
(0.0977149 0.000488916 0)
(0.0975988 0.000506662 0)
(0.0974809 0.000526022 0)
(0.097361 0.000546965 0)
(0.0972387 0.000569454 0)
(0.0971141 0.000593457 0)
(0.0969868 0.000618946 0)
(0.0968568 0.000645908 0)
(0.0967239 0.000674336 0)
(0.096588 0.000704239 0)
(0.096449 0.000735631 0)
(0.0963067 0.000768538 0)
(0.0961612 0.000802995 0)
(0.0960123 0.00083904 0)
(0.0958599 0.00087672 0)
(0.095704 0.000916086 0)
(0.0955445 0.000957193 0)
(0.0953813 0.0010001 0)
(0.0952143 0.00104488 0)
(0.0950434 0.0010916 0)
(0.0948687 0.00114037 0)
(0.0946901 0.00119137 0)
(0.0945075 0.00124503 0)
(0.0941288 0.000102615 -4.44258e-24)
(0.0939213 0.000107785 -4.53055e-24)
(0.0937039 0.000113295 -3.17383e-26)
(0.0934759 0.000119173 1.39261e-23)
(0.0932367 0.00012545 -4.61268e-24)
(0.0929855 0.00013216 -4.74952e-24)
(0.0927215 0.000139343 -1.46305e-23)
(0.0924438 0.000147042 1.4526e-23)
(0.0921513 0.000155305 4.9724e-24)
(0.0918432 0.000164186 0)
(0.0915181 0.000173745 5.13957e-24)
(0.0911749 0.000184051 -5.22946e-24)
(0.090812 0.00019518 4.30339e-23)
(0.090428 0.000207215 -9.22407e-23)
(0.0900211 0.000220256 4.93101e-23)
(0.0895895 0.00023441 3.99775e-23)
(0.0941379 0.000307646 -4.49538e-24)
(0.0939305 0.000323118 -9.17196e-24)
(0.0937134 0.000339611 -4.8114e-24)
(0.0934856 0.000357206 4.47712e-24)
(0.0932467 0.000375997 -4.67783e-24)
(0.0929958 0.000396088 3.35356e-23)
(0.0927322 0.000417595 -5.26681e-23)
(0.0924548 0.000440647 4.89346e-24)
(0.0921629 0.00046539 6.53403e-23)
(0.0918553 0.000491985 -9.02413e-23)
(0.0915308 0.000520615 -8.8167e-23)
(0.0911882 0.000551481 7.76898e-23)
(0.0908261 0.000584812 0)
(0.0904429 0.000620865 5.42862e-24)
(0.090037 0.000659928 -1.65942e-23)
(0.0896065 0.000702331 -1.88254e-22)
(0.094156 0.000511681 -2.65877e-23)
(0.093949 0.000537368 -9.33779e-24)
(0.0937323 0.000564746 3.59979e-23)
(0.093505 0.000593956 -7.40877e-23)
(0.0932667 0.000625151 1.58554e-22)
(0.0930164 0.000658505 -7.51195e-23)
(0.0927535 0.000694212 1.41835e-26)
(0.0924771 0.00073249 9.75956e-24)
(0.0921861 0.000773579 1.70239e-22)
(0.0918796 0.000817751 -1.60138e-22)
(0.0915563 0.000865306 0)
(0.0912151 0.000916584 1.45684e-26)
(0.0908546 0.000971963 0)
(0.0904732 0.00103187 1.86488e-22)
(0.0900692 0.00109679 -1.64381e-22)
(0.0896408 0.00116727 -3.54537e-22)
(0.0941831 0.000714015 1.75161e-23)
(0.0939767 0.000749767 -8.89134e-24)
(0.0937605 0.00078786 1.95086e-26)
(0.0935341 0.000828497 9.15376e-24)
(0.0932966 0.000871895 -1.96086e-26)
(0.0930475 0.000918299 1.5217e-22)
(0.0927857 0.000967983 -2.87585e-22)
(0.0925106 0.00102125 1.54579e-22)
(0.0922212 0.00107844 -9.89997e-24)
(0.0919164 0.00113993 1.83051e-22)
(0.0915951 0.00120614 -1.62825e-22)
(0.0912561 0.00127755 -3.3808e-22)
(0.090898 0.00135468 6.82717e-22)
(0.0905193 0.00143814 -6.96339e-22)
(0.0901184 0.00152859 7.10616e-22)
(0.0896935 0.00162679 -7.14336e-22)
(0.0942189 0.000914007 -8.6875e-24)
(0.0940133 0.000959599 -3.5503e-23)
(0.0937981 0.00100816 1.07649e-22)
(0.0935728 0.00105996 -1.45392e-22)
(0.0933367 0.00111528 6.40429e-23)
(0.093089 0.00117444 9.39614e-24)
(0.092829 0.00123779 -9.55603e-24)
(0.0925559 0.00130573 -2.46154e-26)
(0.0922686 0.00137869 9.89807e-24)
(0.0919663 0.00145714 -2.01378e-23)
(0.0916478 0.00154164 -3.31513e-22)
(0.0913119 0.00163278 3.42136e-22)
(0.0909573 0.00173125 -3.34355e-22)
(0.0905825 0.0018378 3.45147e-22)
(0.0901859 0.00195331 0)
(0.0897659 0.00207873 -2.47856e-26)
(0.0942634 0.00111103 -4.31115e-23)
(0.0940588 0.00116622 2.59332e-23)
(0.093845 0.00122503 8.87768e-24)
(0.0936213 0.00128777 1.36336e-22)
(0.0933869 0.0013548 -1.36385e-22)
(0.0931414 0.00142651 1.41184e-22)
(0.0928838 0.00150334 -3.13438e-22)
(0.0926133 0.00158576 4.46391e-22)
(0.0923291 0.00167429 -3.12707e-22)
(0.0920302 0.00176954 -3.24578e-22)
(0.0917154 0.00187215 -1.63873e-23)
(0.0913837 0.00198287 6.59406e-22)
(0.0910337 0.00210251 -6.94772e-22)
(0.0906641 0.00223202 3.24095e-22)
(0.0902735 0.00237245 3.49954e-22)
(0.08986 0.00252498 3.66027e-22)
(0.0943164 0.00130425 8.4894e-24)
(0.0941134 0.0013685 7.82403e-23)
(0.0939015 0.00143704 -6.97747e-23)
(0.09368 0.00151024 8.96144e-24)
(0.0934483 0.00158851 1.37811e-22)
(0.0932056 0.00167232 -1.38027e-22)
(0.0929512 0.00176216 -2.9589e-22)
(0.0926844 0.00185861 4.33734e-24)
(0.0924042 0.00196229 -5.59358e-24)
(0.0921097 0.00207389 3.28812e-22)
(0.0918 0.00219419 -3.21357e-22)
(0.0914738 0.00232408 6.82007e-22)
(0.09113 0.00246453 -3.39876e-22)
(0.0907674 0.00261665 1.09907e-23)
(0.0903844 0.00278169 1.12502e-23)
(0.0899796 0.00296106 7.44446e-22)
(0.0943787 0.00149695 0)
(0.0941785 0.00156867 0)
(0.0939696 0.00164525 0)
(0.0937515 0.00172706 0)
(0.0935235 0.00181456 0)
(0.093285 0.00190823 0)
(0.0930352 0.00200863 0)
(0.0927734 0.00211637 0)
(0.0924988 0.00223214 0)
(0.0922105 0.0023567 0)
(0.0919075 0.00249092 0)
(0.0915889 0.00263576 0)
(0.0912535 0.0027923 0)
(0.0909002 0.00296174 0)
(0.0905276 0.00314548 0)
(0.0901344 0.00334505 0)
(0.0944514 0.00169127 0)
(0.0942553 0.00177118 0)
(0.0940509 0.00185647 0)
(0.0938374 0.00194756 0)
(0.0936145 0.00204495 0)
(0.0933815 0.00214915 0)
(0.0931377 0.00226076 0)
(0.0928825 0.00238044 0)
(0.0926151 0.00250894 0)
(0.0923347 0.00264708 0)
(0.0920405 0.00279577 0)
(0.0917315 0.00295605 0)
(0.0914067 0.00312907 0)
(0.0910651 0.00331612 0)
(0.0907056 0.00351867 0)
(0.0903269 0.00373835 0)
(0.0945327 0.00188115 0)
(0.0943415 0.00196914 0)
(0.0941423 0.00206298 0)
(0.0939345 0.00216315 0)
(0.0937176 0.00227015 0)
(0.0934912 0.00238457 0)
(0.0932545 0.00250704 0)
(0.093007 0.00263828 0)
(0.092748 0.00277906 0)
(0.0924768 0.00293026 0)
(0.0921927 0.00309286 0)
(0.0918947 0.00326794 0)
(0.0915822 0.00345672 0)
(0.0912541 0.00366057 0)
(0.0909094 0.00388101 0)
(0.0905472 0.00411975 0)
(0.0946219 0.00206585 0)
(0.0944364 0.00216158 0)
(0.0942431 0.00226359 0)
(0.0940417 0.00237237 0)
(0.0938317 0.00248848 0)
(0.0936126 0.00261255 0)
(0.0933839 0.00274523 0)
(0.0931451 0.00288728 0)
(0.0928956 0.00303953 0)
(0.0926347 0.00320289 0)
(0.0923619 0.00337838 0)
(0.0920763 0.00356714 0)
(0.0917773 0.00377043 0)
(0.0914641 0.00398966 0)
(0.0911358 0.00422641 0)
(0.0907917 0.00448245 0)
(0.0947186 0.00224489 0)
(0.0945391 0.00234795 0)
(0.0943524 0.00245767 0)
(0.094158 0.00257458 0)
(0.0939555 0.00269925 0)
(0.0937446 0.00283234 0)
(0.0935247 0.00297455 0)
(0.0932954 0.00312665 0)
(0.0930562 0.00328951 0)
(0.0928066 0.00346407 0)
(0.092546 0.00365139 0)
(0.0922738 0.00385262 0)
(0.0919894 0.00406908 0)
(0.0916923 0.00430219 0)
(0.0913817 0.00455357 0)
(0.091057 0.004825 0)
(0.0948223 0.00241783 0)
(0.0946494 0.00252779 0)
(0.0944696 0.00264473 0)
(0.0942827 0.00276923 0)
(0.0940883 0.00290189 0)
(0.0938861 0.00304336 0)
(0.0936756 0.00319437 0)
(0.0934565 0.00335573 0)
(0.0932284 0.00352831 0)
(0.0929908 0.00371309 0)
(0.0927432 0.00391113 0)
(0.0924853 0.00412363 0)
(0.0922164 0.00435189 0)
(0.0919363 0.00459736 0)
(0.0916443 0.00486167 0)
(0.09134 0.00514659 0)
(0.0949326 0.00258432 0)
(0.0947665 0.00270068 0)
(0.094594 0.00282434 0)
(0.0944151 0.00295586 0)
(0.0942292 0.00309586 0)
(0.0940362 0.00324503 0)
(0.0938356 0.0034041 0)
(0.0936273 0.00357388 0)
(0.0934108 0.00375527 0)
(0.0931857 0.00394924 0)
(0.0929519 0.00415689 0)
(0.0927088 0.00437939 0)
(0.0924562 0.00461806 0)
(0.0921937 0.00487436 0)
(0.091921 0.00514987 0)
(0.0916378 0.00544637 0)
(0.0950488 0.00274404 0)
(0.0948898 0.0028663 0)
(0.0947251 0.00299612 0)
(0.0945544 0.00313407 0)
(0.0943774 0.00328077 0)
(0.094194 0.00343692 0)
(0.0940038 0.00360326 0)
(0.0938066 0.00378061 0)
(0.0936021 0.00396986 0)
(0.0933901 0.00417199 0)
(0.0931704 0.00438809 0)
(0.0929427 0.00461933 0)
(0.0927068 0.00486701 0)
(0.0924624 0.00513257 0)
(0.0922095 0.00541757 0)
(0.0919479 0.00572374 0)
(0.0951706 0.00289673 0)
(0.095019 0.00302437 0)
(0.0948622 0.00315978 0)
(0.0947 0.00330354 0)
(0.0945322 0.00345629 0)
(0.0943586 0.00361869 0)
(0.0941791 0.00379151 0)
(0.0939933 0.00397555 0)
(0.0938012 0.0041717 0)
(0.0936026 0.00438095 0)
(0.0933974 0.00460434 0)
(0.0931853 0.00484305 0)
(0.0929664 0.00509835 0)
(0.0927405 0.00537164 0)
(0.0925076 0.00566443 0)
(0.0922677 0.00597841 0)
(0.0952973 0.00304217 0)
(0.0951533 0.00317466 0)
(0.0950047 0.00331509 0)
(0.0948512 0.00346405 0)
(0.0946928 0.00362215 0)
(0.0945293 0.00379008 0)
(0.0943606 0.00396857 0)
(0.0941865 0.00415843 0)
(0.094007 0.00436054 0)
(0.093822 0.00457585 0)
(0.0936314 0.0048054 0)
(0.0934352 0.00505033 0)
(0.0932334 0.00531188 0)
(0.093026 0.00559139 0)
(0.0928132 0.00589033 0)
(0.0925952 0.00621031 0)
(0.0954285 0.00318019 0)
(0.0952922 0.003317 0)
(0.0951519 0.00346188 0)
(0.0950073 0.00361541 0)
(0.0948585 0.00377819 0)
(0.0947052 0.00395091 0)
(0.0945475 0.00413428 0)
(0.0943852 0.0043291 0)
(0.0942184 0.00453622 0)
(0.0940471 0.00475657 0)
(0.0938712 0.00499116 0)
(0.0936909 0.00524109 0)
(0.0935062 0.00550755 0)
(0.0933173 0.00579183 0)
(0.0931245 0.00609534 0)
(0.092928 0.00641958 0)
(0.0955636 0.00331064 0)
(0.0954353 0.00345125 0)
(0.0953033 0.00360001 0)
(0.0951677 0.00375749 0)
(0.0950285 0.0039243 0)
(0.0948855 0.00410108 0)
(0.0947388 0.00428855 0)
(0.0945885 0.00448747 0)
(0.0944344 0.00469868 0)
(0.0942767 0.00492307 0)
(0.0941156 0.00516162 0)
(0.093951 0.00541537 0)
(0.0937833 0.00568546 0)
(0.0936128 0.00597313 0)
(0.0934396 0.00627968 0)
(0.0932644 0.00660655 0)
(0.0957023 0.00343345 0)
(0.0955818 0.00357733 0)
(0.0954583 0.00372942 0)
(0.0953318 0.00389025 0)
(0.0952022 0.00406041 0)
(0.0950695 0.00424055 0)
(0.0949339 0.00443135 0)
(0.0947954 0.00463356 0)
(0.094654 0.00484796 0)
(0.0945099 0.00507543 0)
(0.0943633 0.00531688 0)
(0.0942144 0.00557332 0)
(0.0940634 0.00584583 0)
(0.0939108 0.00613556 0)
(0.093757 0.00644374 0)
(0.0936025 0.00677171 0)
(0.0958439 0.00354856 0)
(0.0957313 0.00369521 0)
(0.0956163 0.00385006 0)
(0.0954988 0.00401364 0)
(0.0953789 0.00418654 0)
(0.0952565 0.00436935 0)
(0.0951319 0.00456274 0)
(0.095005 0.00476743 0)
(0.0948762 0.00498417 0)
(0.0947455 0.00521379 0)
(0.0946133 0.00545716 0)
(0.0944797 0.00571522 0)
(0.0943452 0.005989 0)
(0.0942102 0.00627955 0)
(0.0940752 0.00658804 0)
(0.0939408 0.00691567 0)
(0.0959879 0.00365595 0)
(0.0958833 0.00380487 0)
(0.0957768 0.00396195 0)
(0.0956683 0.00412772 0)
(0.0955579 0.00430272 0)
(0.0954457 0.00448755 0)
(0.095332 0.00468283 0)
(0.0952167 0.00488923 0)
(0.0951002 0.0051075 0)
(0.0949827 0.00533839 0)
(0.0948645 0.00558273 0)
(0.0947459 0.00584141 0)
(0.0946274 0.00611537 0)
(0.0945095 0.00640561 0)
(0.0943927 0.00671317 0)
(0.0942777 0.00703917 0)
(0.096134 0.00375565 0)
(0.0960373 0.00390635 0)
(0.0959391 0.00406516 0)
(0.0958395 0.00423256 0)
(0.0957386 0.00440908 0)
(0.0956365 0.00459528 0)
(0.0955335 0.00479176 0)
(0.0954296 0.00499917 0)
(0.0953252 0.00521818 0)
(0.0952206 0.00544952 0)
(0.0951161 0.00569396 0)
(0.0950121 0.00595232 0)
(0.0949091 0.00622547 0)
(0.0948076 0.00651432 0)
(0.0947084 0.00681984 0)
(0.094612 0.00714303 0)
(0.0962816 0.0038477 0)
(0.0961928 0.00399972 0)
(0.0961029 0.00415975 0)
(0.0960121 0.00432826 0)
(0.0959205 0.00450573 0)
(0.0958283 0.00469271 0)
(0.0957357 0.00488976 0)
(0.095643 0.00509749 0)
(0.0955504 0.00531652 0)
(0.0954583 0.00554754 0)
(0.0953671 0.00579126 0)
(0.0952772 0.00604843 0)
(0.0951891 0.00631986 0)
(0.0951035 0.00660636 0)
(0.0950211 0.00690881 0)
(0.0949425 0.00722812 0)
(0.0964303 0.00393218 0)
(0.0963492 0.00408509 0)
(0.0962675 0.00424587 0)
(0.0961853 0.00441497 0)
(0.0961029 0.00459287 0)
(0.0960204 0.00478006 0)
(0.095938 0.00497708 0)
(0.0958561 0.00518448 0)
(0.095775 0.00540286 0)
(0.0956951 0.00563285 0)
(0.0956167 0.00587509 0)
(0.0955404 0.00613028 0)
(0.0954667 0.00639915 0)
(0.0953963 0.00668243 0)
(0.0953298 0.00698091 0)
(0.0952681 0.00729539 0)
(0.0965798 0.0040092 0)
(0.0965062 0.00416257 0)
(0.0964325 0.00432365 0)
(0.0963588 0.00449289 0)
(0.0962853 0.00467071 0)
(0.0962122 0.00485758 0)
(0.0961398 0.005054 0)
(0.0960685 0.00526049 0)
(0.0959985 0.00547759 0)
(0.0959302 0.00570589 0)
(0.0958642 0.00594597 0)
(0.0958009 0.00619846 0)
(0.0957409 0.00646401 0)
(0.0956849 0.00674329 0)
(0.0956337 0.00703699 0)
(0.095588 0.0073458 0)
(0.0967295 0.00407889 0)
(0.0966634 0.00423232 0)
(0.0965976 0.00439329 0)
(0.0965321 0.00456221 0)
(0.0964673 0.00473948 0)
(0.0964034 0.00492554 0)
(0.0963406 0.00512084 0)
(0.0962794 0.00532587 0)
(0.0962201 0.00554113 0)
(0.0961631 0.00576713 0)
(0.0961089 0.00600442 0)
(0.0960581 0.00625356 0)
(0.0960112 0.00651514 0)
(0.0959689 0.00678973 0)
(0.0959319 0.00707793 0)
(0.0959012 0.00738036 0)
(0.0968792 0.00414141 0)
(0.0968204 0.00429452 0)
(0.0967621 0.00445499 0)
(0.0967047 0.00462317 0)
(0.0966483 0.00479946 0)
(0.0965933 0.00498425 0)
(0.0965399 0.00517796 0)
(0.0964884 0.00538103 0)
(0.0964394 0.00559391 0)
(0.0963932 0.00581708 0)
(0.0963503 0.00605103 0)
(0.0963112 0.00629624 0)
(0.0962767 0.00655324 0)
(0.0962474 0.00682253 0)
(0.0962239 0.00710463 0)
(0.0962073 0.00740006 0)
(0.0970284 0.00419693 0)
(0.0969767 0.00434938 0)
(0.0969259 0.00450896 0)
(0.0968762 0.00467603 0)
(0.096828 0.00485093 0)
(0.0967815 0.00503403 0)
(0.0967371 0.0052257 0)
(0.096695 0.00542636 0)
(0.0966558 0.00563641 0)
(0.0966198 0.00585626 0)
(0.0965877 0.00608636 0)
(0.0965599 0.00632714 0)
(0.096537 0.00657904 0)
(0.0965199 0.00684251 0)
(0.0965091 0.00711799 0)
(0.0965056 0.0074059 0)
(0.097177 0.00424563 0)
(0.0971321 0.00439709 0)
(0.0970885 0.00455546 0)
(0.0970463 0.00472105 0)
(0.097006 0.0048942 0)
(0.0969677 0.00507522 0)
(0.0969318 0.00526447 0)
(0.0968987 0.00546231 0)
(0.0968689 0.00566909 0)
(0.0968427 0.0058852 0)
(0.0968207 0.00611101 0)
(0.0968035 0.00634691 0)
(0.0967917 0.00659328 0)
(0.0967859 0.00685048 0)
(0.0967869 0.0071189 0)
(0.0967957 0.00739886 0)
(0.0973244 0.00428772 0)
(0.0972862 0.00443789 0)
(0.0972495 0.00459473 0)
(0.0972146 0.00475853 0)
(0.0971818 0.00492958 0)
(0.0971514 0.00510819 0)
(0.0971237 0.00529465 0)
(0.0970992 0.0054893 0)
(0.0970783 0.00569245 0)
(0.0970613 0.00590444 0)
(0.097049 0.00612559 0)
(0.0970417 0.00635622 0)
(0.0970402 0.00659667 0)
(0.097045 0.00684725 0)
(0.0970571 0.00710824 0)
(0.0970771 0.00737992 0)
(0.0974706 0.00432342 0)
(0.0974387 0.00447203 0)
(0.0974087 0.00462705 0)
(0.0973808 0.00478876 0)
(0.0973552 0.00495742 0)
(0.0973323 0.00513329 0)
(0.0973125 0.00531666 0)
(0.0972961 0.00550779 0)
(0.0972836 0.00570699 0)
(0.0972754 0.00591452 0)
(0.0972721 0.00613067 0)
(0.0972741 0.00635573 0)
(0.0972822 0.00658995 0)
(0.097297 0.00683358 0)
(0.0973192 0.00708687 0)
(0.0973496 0.00735 0)
(0.0976151 0.00435295 0)
(0.0975895 0.00449974 0)
(0.0975659 0.00465269 0)
(0.0975446 0.00481205 0)
(0.0975259 0.00497804 0)
(0.0975102 0.0051509 0)
(0.0974978 0.00533089 0)
(0.0974891 0.00551823 0)
(0.0974846 0.00571318 0)
(0.0974846 0.00591599 0)
(0.0974897 0.00612687 0)
(0.0975005 0.00634608 0)
(0.0975176 0.00657381 0)
(0.0975415 0.00681027 0)
(0.0975731 0.00705563 0)
(0.0976131 0.00731004 0)
(0.0977579 0.00437655 0)
(0.0977381 0.0045213 0)
(0.0977207 0.00467194 0)
(0.0977058 0.0048287 0)
(0.0976937 0.00499179 0)
(0.0976848 0.0051614 0)
(0.0976794 0.00533776 0)
(0.097678 0.00552107 0)
(0.0976809 0.00571154 0)
(0.0976887 0.00590937 0)
(0.0977017 0.00611477 0)
(0.0977206 0.0063279 0)
(0.097746 0.00654895 0)
(0.0977784 0.00677806 0)
(0.0978186 0.00701534 0)
(0.0978673 0.00726089 0)
(0.0978986 0.00439446 0)
(0.0978845 0.00453695 0)
(0.0978729 0.00468509 0)
(0.0978641 0.00483904 0)
(0.0978583 0.00499901 0)
(0.0978558 0.00516516 0)
(0.0978571 0.00533768 0)
(0.0978625 0.00551675 0)
(0.0978725 0.00570254 0)
(0.0978874 0.00589521 0)
(0.0979078 0.00609493 0)
(0.0979343 0.00630183 0)
(0.0979673 0.00651604 0)
(0.0980075 0.00673767 0)
(0.0980556 0.00696678 0)
(0.0981122 0.0072034 0)
(0.0980371 0.00440691 0)
(0.0980284 0.00454697 0)
(0.0980224 0.00469241 0)
(0.0980193 0.00484339 0)
(0.0980194 0.00500005 0)
(0.0980231 0.00516256 0)
(0.0980306 0.00533106 0)
(0.0980425 0.00550571 0)
(0.098059 0.00568665 0)
(0.0980807 0.00587402 0)
(0.0981079 0.00606792 0)
(0.0981413 0.00626846 0)
(0.0981814 0.00647573 0)
(0.0982287 0.0066898 0)
(0.098284 0.00691068 0)
(0.0983478 0.00713836 0)
(0.0981732 0.00441415 0)
(0.0981697 0.00455163 0)
(0.098169 0.00469421 0)
(0.0981713 0.00484204 0)
(0.0981771 0.00499524 0)
(0.0981865 0.00515396 0)
(0.0981999 0.0053183 0)
(0.0982177 0.0054884 0)
(0.0982404 0.00566436 0)
(0.0982683 0.00584629 0)
(0.0983019 0.00603427 0)
(0.0983417 0.00622837 0)
(0.0983882 0.00642864 0)
(0.0984421 0.00663511 0)
(0.0985038 0.00684776 0)
(0.0985741 0.00706654 0)
(0.0999997 6.5774e-06 0)
(0.0999951 1.95557e-05 0)
(0.0999853 3.2352e-05 0)
(0.0999712 4.50225e-05 0)
(0.0999528 5.7638e-05 0)
(0.0999304 7.02456e-05 0)
(0.0999041 8.28838e-05 0)
(0.099874 9.56421e-05 0)
(0.0998403 0.000108754 0)
(0.0998029 0.000122679 0)
(0.0997617 0.000138097 0)
(0.0997163 0.000155783 0)
(0.0996662 0.000176398 0)
(0.0996106 0.000200246 0)
(0.0995488 0.000227122 0)
(0.0994804 0.000256289 0)
(0.099405 0.000286594 0)
(0.0993228 0.000316689 0)
(0.0992343 0.000345281 0)
(0.0991401 0.000371347 0)
(0.0990412 0.000394265 0)
(0.0989387 0.000413861 0)
(0.0988335 0.000430361 0)
(0.0987265 0.000444298 0)
(0.0986182 0.00045639 0)
(0.0985092 0.000467423 0)
(0.0983998 0.000478159 0)
(0.0982899 0.000489265 0)
(0.0981797 0.000501282 0)
(0.0980689 0.000514613 0)
(0.0979574 0.000529535 0)
(0.0978449 0.000546215 0)
(0.0977311 0.000564735 0)
(0.0976158 0.000585119 0)
(0.0974988 0.000607353 0)
(0.0973798 0.000631403 0)
(0.0972587 0.000657229 0)
(0.0971352 0.000684792 0)
(0.0970092 0.000714064 0)
(0.0968805 0.000745026 0)
(0.0967491 0.000777671 0)
(0.0966148 0.000812006 0)
(0.0964774 0.000848049 0)
(0.096337 0.000885827 0)
(0.0961934 0.000925377 0)
(0.0960466 0.000966743 0)
(0.0958964 0.00100998 0)
(0.0957428 0.00105513 0)
(0.0955857 0.00110227 0)
(0.0954251 0.00115146 0)
(0.0952608 0.00120277 0)
(0.0950929 0.00125627 0)
(0.0949213 0.00131207 0)
(0.094746 0.0013703 0)
(0.0945669 0.00143117 0)
(0.0999997 7.477e-06 0)
(0.0999951 2.22372e-05 0)
(0.0999854 3.67847e-05 0)
(0.0999714 5.1191e-05 0)
(0.0999531 6.55342e-05 0)
(0.0999308 7.98679e-05 0)
(0.0999046 9.42364e-05 0)
(0.0998747 0.00010874 0)
(0.0998412 0.00012364 0)
(0.0998041 0.000139453 0)
(0.0997632 0.000156941 0)
(0.0997182 0.000176982 0)
(0.0996685 0.000200322 0)
(0.0996134 0.000227315 0)
(0.0995523 0.000257739 0)
(0.0994847 0.000290774 0)
(0.0994102 0.000325128 0)
(0.099329 0.000359285 0)
(0.0992415 0.000391784 0)
(0.0991484 0.000421462 0)
(0.0990505 0.000447609 0)
(0.098949 0.00047001 0)
(0.0988447 0.000488909 0)
(0.0987385 0.000504895 0)
(0.098631 0.000518769 0)
(0.0985228 0.000531414 0)
(0.098414 0.000543686 0)
(0.0983049 0.000556342 0)
(0.0981953 0.000569993 0)
(0.0980852 0.000585103 0)
(0.0979745 0.000601985 0)
(0.0978627 0.000620836 0)
(0.0977499 0.000641753 0)
(0.0976355 0.000664766 0)
(0.0975196 0.000689864 0)
(0.0974018 0.00071701 0)
(0.0972819 0.000746159 0)
(0.0971597 0.000777271 0)
(0.0970352 0.000810311 0)
(0.0969081 0.000845257 0)
(0.0967784 0.000882102 0)
(0.0966459 0.000920852 0)
(0.0965106 0.000961524 0)
(0.0963723 0.00100415 0)
(0.0962309 0.00104876 0)
(0.0960865 0.00109542 0)
(0.0959388 0.00114416 0)
(0.0957879 0.00119506 0)
(0.0956337 0.00124818 0)
(0.095476 0.00130359 0)
(0.095315 0.00136136 0)
(0.0951505 0.00142158 0)
(0.0949824 0.00148433 0)
(0.0948108 0.00154972 0)
(0.0946357 0.0016179 0)
(0.0999997 8.37126e-06 0)
(0.0999951 2.49018e-05 0)
(0.0999855 4.11894e-05 0)
(0.0999716 5.73203e-05 0)
(0.0999534 7.33798e-05 0)
(0.0999313 8.94282e-05 0)
(0.0999053 0.000105515 0)
(0.0998756 0.000121751 0)
(0.0998423 0.000138425 0)
(0.0998055 0.000156106 0)
(0.0997649 0.000175639 0)
(0.0997202 0.000197998 0)
(0.099671 0.000224015 0)
(0.0996165 0.000254092 0)
(0.0995562 0.000287998 0)
(0.0994894 0.000324835 0)
(0.0994159 0.000363179 0)
(0.0993357 0.000401352 0)
(0.0992493 0.000437729 0)
(0.0991573 0.000471009 0)