/*--------------------------------*- C++ -*----------------------------------*\
| =========                 |                                                 |
| \\      /  F ield         | OpenFOAM: The Open Source CFD Toolbox           |
|  \\    /   O peration     | Version:  2412                                  |
|   \\  /    A nd           | Website:  www.openfoam.com                      |
|    \\/     M anipulation  |                                                 |
\*---------------------------------------------------------------------------*/
FoamFile
{
    version     2.0;
    format      ascii;
    arch        "LSB;label=32;scalar=64";
    class       volScalarField;
    location    "14";
    object      p;
}
// * * * * * * * * * * * * * * * * * * * * * * * * * * * * * * * * * * * * * //

dimensions      [0 2 -2 0 0 0 0];

internalField   nonuniform List<scalar> 
63420
(
0.000974085
0.000974342
0.000975162
0.000976428
0.000978123
0.000980235
0.000982747
0.000985644
0.000988913
0.000992538
0.000996508
0.00100082
0.00100546
0.00101043
0.00101573
0.00102135
0.0010273
0.00103358
0.00104019
0.00104712
0.00105437
0.00106195
0.00106986
0.0010781
0.00108666
0.00109556
0.00110479
0.00111436
0.00112427
0.00113451
0.00114511
0.00115604
0.00116733
0.00117898
0.00119098
0.00120335
0.00121607
0.00122917
0.00124265
0.0012565
0.00127073
0.00128535
0.00130036
0.00131577
0.00133157
0.00134778
0.0013644
0.00138143
0.00139889
0.00141676
0.00143507
0.0014538
0.00147298
0.0014926
0.00151268
0.000974026
0.000974282
0.000975102
0.000976367
0.000978061
0.000980171
0.000982681
0.000985576
0.000988842
0.000992465
0.000996432
0.00100074
0.00100537
0.00101034
0.00101563
0.00102126
0.0010272
0.00103348
0.00104008
0.001047
0.00105425
0.00106182
0.00106972
0.00107795
0.00108651
0.0010954
0.00110462
0.00111417
0.00112407
0.00113431
0.00114488
0.00115581
0.00116709
0.00117871
0.0011907
0.00120305
0.00121576
0.00122884
0.00124229
0.00125612
0.00127033
0.00128493
0.00129991
0.00131529
0.00133106
0.00134724
0.00136383
0.00138083
0.00139824
0.00141608
0.00143435
0.00145304
0.00147217
0.00149174
0.00151176
0.000973907
0.000974163
0.000974981
0.000976244
0.000977936
0.000980043
0.00098255
0.000985441
0.000988702
0.000992319
0.00099628
0.00100058
0.00100521
0.00101017
0.00101545
0.00102107
0.001027
0.00103327
0.00103985
0.00104676
0.001054
0.00106156
0.00106944
0.00107766
0.0010862
0.00109507
0.00110427
0.0011138
0.00112368
0.00113389
0.00114444
0.00115534
0.00116659
0.00117819
0.00119014
0.00120245
0.00121513
0.00122817
0.00124158
0.00125537
0.00126953
0.00128408
0.00129901
0.00131434
0.00133005
0.00134617
0.00136269
0.00137962
0.00139697
0.00141473
0.00143291
0.00145151
0.00147055
0.00149003
0.00150994
0.000973729
0.000973985
0.000974801
0.000976061
0.000977749
0.000979852
0.000982353
0.000985237
0.000988491
0.000992099
0.000996052
0.00100034
0.00100496
0.00100991
0.00101518
0.00102078
0.0010267
0.00103295
0.00103952
0.00104641
0.00105363
0.00106116
0.00106903
0.00107721
0.00108573
0.00109457
0.00110374
0.00111325
0.00112309
0.00113326
0.00114378
0.00115464
0.00116584
0.0011774
0.0011893
0.00120157
0.00121419
0.00122717
0.00124052
0.00125424
0.00126834
0.00128281
0.00129767
0.00131291
0.00132854
0.00134457
0.00136099
0.00137782
0.00139505
0.0014127
0.00143076
0.00144923
0.00146813
0.00148746
0.00150721
0.000973491
0.000973747
0.00097456
0.000975817
0.0009775
0.000979597
0.00098209
0.000984966
0.00098821
0.000991808
0.000995748
0.00100002
0.00100463
0.00100956
0.00101482
0.0010204
0.0010263
0.00103253
0.00103907
0.00104594
0.00105313
0.00106064
0.00106847
0.00107663
0.00108511
0.00109391
0.00110305
0.00111251
0.0011223
0.00113243
0.0011429
0.0011537
0.00116485
0.00117635
0.00118819
0.00120038
0.00121293
0.00122584
0.00123911
0.00125275
0.00126675
0.00128113
0.00129588
0.00131102
0.00132653
0.00134244
0.00135874
0.00137543
0.00139251
0.00141001
0.0014279
0.0014462
0.00146492
0.00148405
0.0015036
0.000973195
0.000973449
0.00097426
0.000975513
0.00097719
0.000979279
0.000981763
0.000984628
0.000987859
0.000991443
0.000995369
0.000999629
0.00100422
0.00100913
0.00101436
0.00101992
0.0010258
0.001032
0.00103852
0.00104535
0.00105251
0.00105998
0.00106778
0.00107589
0.00108433
0.00109309
0.00110218
0.00111159
0.00112133
0.0011314
0.0011418
0.00115254
0.00116362
0.00117504
0.0011868
0.00119891
0.00121137
0.00122418
0.00123735
0.00125088
0.00126478
0.00127903
0.00129366
0.00130866
0.00132404
0.00133979
0.00135593
0.00137245
0.00138936
0.00140666
0.00142435
0.00144245
0.00146094
0.00147983
0.00149911
0.00097284
0.000973093
0.0009739
0.000975148
0.000976817
0.000978897
0.00098137
0.000984222
0.000987439
0.000991007
0.000994915
0.000999155
0.00100372
0.00100861
0.00101382
0.00101935
0.0010252
0.00103137
0.00103785
0.00104465
0.00105177
0.0010592
0.00106695
0.00107502
0.0010834
0.00109211
0.00110113
0.00111048
0.00112016
0.00113016
0.00114049
0.00115115
0.00116214
0.00117347
0.00118514
0.00119715
0.0012095
0.0012222
0.00123525
0.00124866
0.00126242
0.00127653
0.00129101
0.00130585
0.00132106
0.00133663
0.00135258
0.0013689
0.0013856
0.00140267
0.00142013
0.00143797
0.00145619
0.0014748
0.00149378
0.00153326
0.00155456
0.00157676
0.00160001
0.00162426
0.00164959
0.00167608
0.00170381
0.00173285
0.00176328
0.0017952
0.00182871
0.00186391
0.00190093
0.00193987
0.0019809
0.00202415
0.0020698
0.00211801
0.002169
0.00222298
0.0022802
0.00234091
0.00240541
0.00247403
0.00254713
0.0026251
0.00270839
0.00279748
0.00289293
0.00299531
0.0031053
0.00322361
0.00335104
0.00348842
0.00363665
0.00379667
0.00396935
0.00415551
0.00435567
0.00456992
0.00479756
0.00503678
0.00528431
0.00553576
0.0057864
0.00603162
0.00627731
0.00659144
0.00706849
0.00153232
0.00155363
0.0015759
0.00159908
0.00162331
0.00164864
0.00167513
0.00170285
0.00173189
0.00176231
0.00179423
0.00182773
0.00186292
0.00189992
0.00193885
0.00197986
0.00202308
0.0020687
0.00211687
0.00216782
0.00222174
0.00227888
0.00233951
0.00240391
0.0024724
0.00254533
0.0026231
0.00270614
0.00279493
0.00288998
0.00299187
0.00310124
0.00321876
0.00334517
0.00348126
0.00362782
0.00378567
0.00395554
0.00413802
0.00433337
0.00454131
0.00476067
0.00498901
0.00522234
0.0054553
0.00568222
0.00589791
0.00610737
0.00637428
0.00678616
0.00153045
0.00155177
0.00157399
0.00159718
0.00162141
0.00164673
0.00167322
0.00170093
0.00172996
0.00176037
0.00179227
0.00182576
0.00186093
0.0018979
0.0019368
0.00197776
0.00202094
0.00206649
0.0021146
0.00216545
0.00221926
0.00227627
0.00233672
0.00240091
0.00246915
0.00254177
0.00261914
0.00270169
0.00278987
0.00288415
0.00298507
0.00309321
0.00320918
0.0033336
0.00346713
0.0036104
0.00376397
0.00392827
0.00410346
0.00428924
0.00448457
0.00468732
0.0048938
0.00509848
0.00529413
0.00547308
0.00562921
0.00576602
0.0059343
0.00622871
0.00152763
0.00154894
0.00157115
0.00159434
0.00161856
0.00164387
0.00167034
0.00169804
0.00172705
0.00175744
0.00178932
0.00182277
0.00185791
0.00189484
0.00193368
0.00197458
0.00201768
0.00206314
0.00211112
0.00216183
0.00221547
0.00227226
0.00233245
0.00239632
0.00246415
0.00253628
0.00261305
0.00269484
0.00278207
0.00287518
0.00297462
0.0030809
0.00319449
0.0033159
0.00344557
0.00358387
0.00373103
0.00388698
0.00405128
0.00422276
0.0043993
0.00457728
0.00475117
0.00491311
0.00505308
0.00516028
0.00522716
0.00525853
0.00528949
0.00537669
0.0015239
0.0015452
0.0015674
0.00159058
0.00161479
0.00164009
0.00166655
0.00169424
0.00172323
0.00175361
0.00178546
0.00181888
0.00185398
0.00189086
0.00192965
0.00197047
0.00201348
0.00205882
0.00210666
0.00215719
0.00221061
0.00226712
0.00232698
0.00239043
0.00245775
0.00252924
0.00260522
0.00268602
0.00277201
0.00286355
0.00296102
0.00306479
0.00317521
0.00329256
0.00341702
0.0035486
0.00368705
0.00383169
0.00398119
0.0041333
0.00428439
0.00442894
0.00455899
0.0046637
0.00472953
0.00474162
0.00468945
0.00458101
0.00444034
0.00420769
0.00151927
0.00154057
0.00156278
0.00158597
0.00161019
0.00163551
0.00166199
0.0016897
0.00171872
0.00174913
0.00178101
0.00181447
0.00184959
0.0018865
0.00192531
0.00196615
0.00200917
0.0020545
0.00210233
0.00215281
0.00220616
0.00226258
0.0023223
0.00238555
0.00245259
0.0025237
0.00259917
0.00267929
0.00276437
0.0028547
0.00295055
0.00305218
0.00315974
0.00327327
0.00339262
0.00351731
0.00364642
0.00377833
0.00391039
0.00403855
0.00415674
0.00425628
0.00432519
0.0043479
0.0043055
0.00417764
0.00394906
0.00362862
0.00323244
0.00256773
0.00151372
0.00153495
0.0015571
0.00158024
0.00160441
0.00162968
0.00165611
0.00168377
0.00171274
0.0017431
0.00177493
0.00180833
0.0018434
0.00188024
0.00191898
0.00195974
0.00200266
0.00204789
0.0020956
0.00214595
0.00219913
0.00225535
0.00231482
0.00237777
0.00244444
0.00251509
0.00258997
0.00266934
0.00275344
0.00284252
0.00293674
0.00303623
0.00314096
0.00325073
0.00336503
0.00348288
0.00360259
0.00372143
0.00383515
0.0039373
0.00401851
0.00406556
0.00406072
0.00398167
0.00380231
0.00349446
0.003039
0.00244964
0.00169151
0.000464654
-0.00341422
-0.00347565
-0.00347449
-0.00342515
-0.00334013
-0.00322413
-0.00308076
-0.0029136
-0.00272704
-0.00252564
-0.00231426
-0.00209782
-0.00188087
-0.00166746
-0.00146111
-0.00126473
-0.00108062
-0.000910429
-0.000755206
-0.000615476
-0.000491289
-0.000382304
-0.000287872
-0.000207104
-0.00013895
-8.22604e-05
-3.5841e-05
1.50416e-06
3.09372e-05
5.35587e-05
7.03897e-05
8.23613e-05
9.03079e-05
9.49668e-05
9.69799e-05
9.68992e-05
9.51934e-05
9.22557e-05
8.84118e-05
8.39284e-05
7.90213e-05
7.38624e-05
6.85872e-05
6.33006e-05
5.80821e-05
5.29909e-05
4.80697e-05
4.33479e-05
3.88444e-05
3.45706e-05
-0.00351047
-0.0035462
-0.00352971
-0.00347163
-0.00338093
-0.00326184
-0.00311671
-0.00294854
-0.00276108
-0.00255929
-0.00234741
-0.00213034
-0.00191259
-0.00169817
-0.00149062
-0.00129286
-0.00110722
-0.000935391
-0.000778476
-0.000637031
-0.00051114
-0.000400492
-0.000304457
-0.000222167
-0.000152581
-9.45572e-05
-4.69047e-05
-8.42707e-06
2.20402e-05
4.56012e-05
6.32821e-05
7.60197e-05
8.46547e-05
8.99304e-05
9.24951e-05
9.29068e-05
9.16399e-05
8.90928e-05
8.55961e-05
8.14211e-05
7.67876e-05
7.18715e-05
6.68116e-05
6.17157e-05
5.66664e-05
5.17253e-05
4.69372e-05
4.23338e-05
3.79353e-05
3.37561e-05
-0.00370343
-0.00368384
-0.00363774
-0.00356173
-0.00345881
-0.00333357
-0.00318595
-0.00301423
-0.00282637
-0.00262378
-0.00241106
-0.002193
-0.00197388
-0.00175766
-0.00154789
-0.00134756
-0.00115904
-0.000984123
-0.000823978
-0.000679241
-0.000550066
-0.000436198
-0.000337053
-0.000251797
-0.000179416
-0.000118784
-6.87149e-05
-2.80145e-05
4.4851e-06
2.98945e-05
4.92492e-05
6.34966e-05
7.34891e-05
7.99822e-05
8.3636e-05
8.50203e-05
8.46202e-05
8.28447e-05
8.0034e-05
7.64684e-05
7.23756e-05
6.7939e-05
6.33041e-05
5.8585e-05
5.38695e-05
4.92243e-05
4.46987e-05
4.03283e-05
3.61368e-05
3.21438e-05
-0.00399885
-0.00387951
-0.00379577
-0.00369321
-0.00357842
-0.00343093
-0.00328099
-0.00310855
-0.00291857
-0.00271479
-0.00250119
-0.0022819
-0.002061
-0.0018424
-0.00162964
-0.00142577
-0.00123328
-0.00105404
-0.000889356
-0.000739974
-0.000606145
-0.000487695
-0.000384113
-0.000294617
-0.000218229
-0.000153848
-0.000100304
-5.64016e-05
-2.09711e-05
7.10683e-06
2.88799e-05
4.53105e-05
5.72674e-05
6.5523e-05
7.07544e-05
7.35478e-05
7.44042e-05
7.37474e-05
7.19315e-05
6.92494e-05
6.59408e-05
6.21997e-05
5.81812e-05
5.40083e-05
4.97769e-05
4.55607e-05
4.14156e-05
3.73828e-05
3.34915e-05
2.97688e-05
-0.00436554
-0.00413493
-0.00399788
-0.00385612
-0.00371941
-0.00356468
-0.00340082
-0.00322228
-0.00302945
-0.00282432
-0.00260975
-0.00238926
-0.00216662
-0.0019456
-0.0017297
-0.001522
-0.00132509
-0.00114096
-0.000971041
-0.000816218
-0.000676864
-0.000552921
-0.000443963
-0.000349279
-0.000267952
-0.000198915
-0.000141022
-9.30898e-05
-5.39491e-05
-2.24753e-05
2.39022e-06
2.16248e-05
3.61146e-05
4.6651e-05
5.39303e-05
5.85579e-05
6.10538e-05
6.18592e-05
6.13453e-05
5.98207e-05
5.75399e-05
5.47104e-05
5.14998e-05
4.80425e-05
4.44446e-05
4.07894e-05
3.7141e-05
3.35482e-05
3.00477e-05
2.66759e-05
-0.00475177
-0.00444672
-0.00423747
-0.00404068
-0.00387483
-0.00370199
-0.00352443
-0.0033384
-0.00314218
-0.00293611
-0.00272184
-0.002502
-0.00227976
-0.00205848
-0.00184143
-0.00163163
-0.00143167
-0.00124366
-0.00106915
-0.00090918
-0.000764294
-0.00063458
-0.000519754
-0.000419221
-0.000332155
-0.000257576
-0.000194395
-0.000141467
-9.7648e-05
-6.18263e-05
-3.29468e-05
-1.0028e-05
7.82576e-06
2.14191e-05
3.14648e-05
3.85858e-05
4.33207e-05
4.61303e-05
4.74046e-05
4.74711e-05
4.66022e-05
4.50228e-05
4.2917e-05
4.04342e-05
3.76949e-05
3.47954e-05
3.18119e-05
2.88036e-05
2.58178e-05
2.28997e-05
-0.00511771
-0.00481648
-0.004546
-0.00431684
-0.00408861
-0.00388344
-0.003686
-0.00348741
-0.00328413
-0.00307462
-0.00285898
-0.00263864
-0.00241593
-0.00219362
-0.00197468
-0.00176196
-0.00155805
-0.00136515
-0.00118495
-0.00101867
-0.000867031
-0.000730314
-0.000608385
-0.000500792
-0.000406827
-0.0003256
-0.000256093
-0.000197212
-0.000147838
-0.000106872
-7.32626e-05
-4.60209e-05
-2.4238e-05
-7.09117e-06
6.15358e-06
1.61428e-05
2.34397e-05
2.85297e-05
3.18274e-05
3.36843e-05
3.43955e-05
3.42075e-05
3.33247e-05
3.19153e-05
3.0117e-05
2.80418e-05
2.57798e-05
2.34029e-05
2.09694e-05
1.85284e-05
3.05228e-05
2.66436e-05
2.29266e-05
1.93863e-05
1.60261e-05
1.28472e-05
9.8504e-06
7.03467e-06
4.39774e-06
1.93631e-06
-3.53735e-07
-2.47714e-06
-4.43916e-06
-6.24538e-06
-7.90161e-06
-9.41376e-06
-1.07877e-05
-1.20292e-05
-1.31438e-05
-1.41368e-05
-1.50132e-05
-1.57779e-05
-1.64355e-05
-1.69908e-05
-1.74485e-05
-1.78136e-05
-1.80913e-05
-1.82867e-05
-1.84056e-05
-1.84532e-05
-1.84352e-05
-1.8357e-05
-1.82239e-05
-1.80408e-05
-1.78126e-05
-1.75437e-05
-1.72383e-05
-1.69004e-05
-1.65337e-05
-1.61417e-05
-1.57278e-05
-1.5295e-05
-1.48463e-05
-1.4384e-05
-1.39117e-05
-1.34311e-05
-1.29444e-05
-1.24542e-05
-1.19623e-05
-1.14706e-05
-1.09807e-05
-1.04944e-05
-1.00129e-05
-9.53778e-06
-9.0701e-06
-8.61102e-06
-8.16153e-06
-7.72249e-06
-7.29467e-06
-6.87873e-06
-6.47526e-06
-6.08476e-06
-5.70763e-06
-5.34416e-06
-4.99455e-06
-4.65898e-06
-4.33757e-06
-4.03037e-06
-3.73728e-06
-3.45819e-06
-3.19294e-06
-2.94137e-06
-2.70329e-06
-2.47839e-06
-2.26637e-06
-2.0669e-06
-1.87965e-06
-1.7042e-06
-1.5401e-06
-1.38691e-06
-1.24422e-06
-1.11158e-06
-9.88484e-07
-8.74514e-07
-7.69077e-07
-6.72056e-07
-5.82287e-07
-5.00929e-07
-4.24144e-07
-3.58438e-07
-2.89435e-07
-2.43918e-07
-1.69728e-07
-1.61926e-07
-4.87967e-08
-1.27736e-07
1.03042e-07
-1.72443e-07
3.28714e-07
-3.34145e-07
6.6194e-07
-6.15677e-07
1.06546e-06
-9.09068e-07
1.35819e-06
-9.54221e-07
1.24067e-06
-4.63798e-07
5.30761e-07
5.54108e-07
-5.01011e-07
1.55493e-06
-1.10887e-06
1.72384e-06
-6.0481e-07
2.98059e-05
2.59897e-05
2.23284e-05
1.88426e-05
1.55328e-05
1.23998e-05
9.4448e-06
6.66719e-06
4.06497e-06
1.63512e-06
-6.26189e-07
-2.72344e-06
-4.66164e-06
-6.44616e-06
-8.08259e-06
-9.57667e-06
-1.09341e-05
-1.21605e-05
-1.32613e-05
-1.42418e-05
-1.51067e-05
-1.58609e-05
-1.65091e-05
-1.70558e-05
-1.75059e-05
-1.78641e-05
-1.81356e-05
-1.83257e-05
-1.84396e-05
-1.8483e-05
-1.84612e-05
-1.83796e-05
-1.82435e-05
-1.80577e-05
-1.78271e-05
-1.75561e-05
-1.72488e-05
-1.69092e-05
-1.6541e-05
-1.61477e-05
-1.57326e-05
-1.52987e-05
-1.48491e-05
-1.4386e-05
-1.3913e-05
-1.34319e-05
-1.29447e-05
-1.2454e-05
-1.19617e-05
-1.14697e-05
-1.09796e-05
-1.04931e-05
-1.00115e-05
-9.53617e-06
-9.06839e-06
-8.60925e-06
-8.15972e-06
-7.72066e-06
-7.29284e-06
-6.87692e-06
-6.47348e-06
-6.08302e-06
-5.70593e-06
-5.34252e-06
-4.99297e-06
-4.65747e-06
-4.33613e-06
-4.02899e-06
-3.73598e-06
-3.45696e-06
-3.19178e-06
-2.94028e-06
-2.70227e-06
-2.47744e-06
-2.26548e-06
-2.06608e-06
-1.87889e-06
-1.7035e-06
-1.53946e-06
-1.38632e-06
-1.24368e-06
-1.11108e-06
-9.8803e-07
-8.74103e-07
-7.68707e-07
-6.71723e-07
-5.81991e-07
-5.00664e-07
-4.23909e-07
-3.58226e-07
-2.8925e-07
-2.43741e-07
-1.69585e-07
-1.6177e-07
-4.86976e-08
-1.27591e-07
1.03083e-07
-1.723e-07
3.28693e-07
-3.33995e-07
6.61869e-07
-6.15538e-07
1.06539e-06
-9.09001e-07
1.35819e-06
-9.54267e-07
1.24078e-06
-4.63949e-07
5.30947e-07
5.53943e-07
-5.00847e-07
1.55483e-06
-1.10873e-06
1.72367e-06
-6.05146e-07
2.83806e-05
2.46898e-05
2.11401e-05
1.77625e-05
1.45527e-05
1.15107e-05
8.6386e-06
5.93661e-06
3.40326e-06
1.03609e-06
-1.16816e-06
-3.21347e-06
-5.10435e-06
-6.84573e-06
-8.44282e-06
-9.90098e-06
-1.12256e-05
-1.2422e-05
-1.34955e-05
-1.44508e-05
-1.5293e-05
-1.60265e-05
-1.66558e-05
-1.71855e-05
-1.76203e-05
-1.79648e-05
-1.82241e-05
-1.84033e-05
-1.85076e-05
-1.85424e-05
-1.8513e-05
-1.84247e-05
-1.82825e-05
-1.80914e-05
-1.78561e-05
-1.75808e-05
-1.72697e-05
-1.69267e-05
-1.65555e-05
-1.61596e-05
-1.57421e-05
-1.53062e-05
-1.48548e-05
-1.43901e-05
-1.39157e-05
-1.34334e-05
-1.29452e-05
-1.24536e-05
-1.19606e-05
-1.1468e-05
-1.09774e-05
-1.04904e-05
-1.00085e-05
-9.53296e-06
-9.065e-06
-8.60572e-06
-8.1561e-06
-7.71701e-06
-7.28919e-06
-6.8733e-06
-6.46992e-06
-6.07954e-06
-5.70255e-06
-5.33924e-06
-4.98981e-06
-4.65444e-06
-4.33325e-06
-4.02624e-06
-3.73337e-06
-3.45449e-06
-3.18946e-06
-2.93812e-06
-2.70024e-06
-2.47555e-06
-2.26373e-06
-2.06446e-06
-1.87739e-06
-1.7021e-06
-1.53816e-06
-1.38514e-06
-1.24259e-06
-1.11009e-06
-9.87123e-07
-8.73282e-07
-7.67971e-07
-6.71068e-07
-5.81408e-07
-5.00142e-07
-4.23446e-07
-3.57806e-07
-2.88884e-07
-2.43391e-07
-1.69295e-07
-1.61455e-07
-4.84944e-08
-1.27299e-07
1.03164e-07
-1.72011e-07
3.28644e-07
-3.33693e-07
6.61726e-07
-6.15265e-07
1.06525e-06
-9.08863e-07
1.3582e-06
-9.54363e-07
1.24101e-06
-4.64252e-07
5.31311e-07
5.53612e-07
-5.00513e-07
1.55461e-06
-1.10843e-06
1.72332e-06
-6.05783e-07
2.62651e-05
2.27599e-05
1.93777e-05
1.61604e-05
1.30984e-05
1.0191e-05
7.44157e-06
4.85148e-06
2.42009e-06
1.45773e-07
-1.97392e-06
-3.94221e-06
-5.76289e-06
-7.44026e-06
-8.97893e-06
-1.03837e-05
-1.16596e-05
-1.28115e-05
-1.38441e-05
-1.47623e-05
-1.55705e-05
-1.62732e-05
-1.68746e-05
-1.7379e-05
-1.7791e-05
-1.81152e-05
-1.83563e-05
-1.85192e-05
-1.86091e-05
-1.86311e-05
-1.85904e-05
-1.8492e-05
-1.83409e-05
-1.81418e-05
-1.78993e-05
-1.76176e-05
-1.73009e-05
-1.69529e-05
-1.65772e-05
-1.61773e-05
-1.57564e-05
-1.53173e-05
-1.48632e-05
-1.43962e-05
-1.39198e-05
-1.34357e-05
-1.29459e-05
-1.2453e-05
-1.1959e-05
-1.14654e-05
-1.0974e-05
-1.04865e-05
-1.0004e-05
-9.52813e-06
-9.05989e-06
-8.60042e-06
-8.15068e-06
-7.71153e-06
-7.28371e-06
-6.86787e-06
-6.46458e-06
-6.07432e-06
-5.69747e-06
-5.33432e-06
-4.98508e-06
-4.64991e-06
-4.32892e-06
-4.02213e-06
-3.72946e-06
-3.4508e-06
-3.18599e-06
-2.93487e-06
-2.6972e-06
-2.47271e-06
-2.26109e-06
-2.06202e-06
-1.87512e-06
-1.70001e-06
-1.53623e-06
-1.38336e-06
-1.24097e-06
-1.1086e-06
-9.8577e-07
-8.72057e-07
-7.66868e-07
-6.70079e-07
-5.80526e-07
-4.9935e-07
-4.22743e-07
-3.57169e-07
-2.88329e-07
-2.42865e-07
-1.68867e-07
-1.60995e-07
-4.82018e-08
-1.26874e-07
1.03282e-07
-1.71584e-07
3.28577e-07
-3.33245e-07
6.61525e-07
-6.14862e-07
1.06506e-06
-9.08668e-07
1.35823e-06
-9.54524e-07
1.24137e-06
-4.64718e-07
5.31863e-07
5.53114e-07
-5.00024e-07
1.55429e-06
-1.10801e-06
1.7228e-06
-6.06675e-07
2.34865e-05
2.0224e-05
1.70644e-05
1.40575e-05
1.11885e-05
8.45687e-06
5.86795e-06
3.42427e-06
1.12636e-06
-1.02631e-06
-3.03513e-06
-4.90234e-06
-6.63084e-06
-8.22408e-06
-9.68592e-06
-1.10205e-05
-1.22322e-05
-1.33254e-05
-1.43045e-05
-1.51737e-05
-1.59373e-05
-1.65993e-05
-1.71638e-05
-1.7635e-05
-1.8017e-05
-1.83143e-05
-1.85313e-05
-1.86729e-05
-1.87437e-05
-1.87488e-05
-1.8693e-05
-1.85813e-05
-1.84182e-05
-1.82086e-05
-1.79566e-05
-1.76665e-05
-1.73423e-05
-1.69876e-05
-1.6606e-05
-1.62008e-05
-1.57752e-05
-1.5332e-05
-1.48743e-05
-1.44042e-05
-1.3925e-05
-1.34386e-05
-1.29468e-05
-1.24522e-05
-1.19567e-05
-1.14619e-05
-1.09695e-05
-1.04811e-05
-9.99809e-06
-9.52167e-06
-9.05307e-06
-8.59334e-06
-8.14344e-06
-7.70422e-06
-7.2764e-06
-6.86063e-06
-6.45746e-06
-6.06736e-06
-5.6907e-06
-5.32776e-06
-4.97877e-06
-4.64387e-06
-4.32316e-06
-4.01664e-06
-3.72426e-06
-3.44588e-06
-3.18137e-06
-2.93053e-06
-2.69315e-06
-2.46893e-06
-2.25758e-06
-2.05876e-06
-1.87211e-06
-1.69722e-06
-1.53366e-06
-1.381e-06
-1.2388e-06
-1.10662e-06
-9.83971e-07
-8.70427e-07
-7.65399e-07
-6.68759e-07
-5.79344e-07
-4.9829e-07
-4.21801e-07
-3.56316e-07
-2.87587e-07
-2.42164e-07
-1.68299e-07
-1.60391e-07
-4.7816e-08
-1.26321e-07
1.03446e-07
-1.71034e-07
3.28514e-07
-3.32681e-07
6.6131e-07
-6.14385e-07
1.06489e-06
-9.0849e-07
1.35838e-06
-9.54823e-07
1.24193e-06
-4.65391e-07
5.32619e-07
5.52462e-07
-4.99419e-07
1.55393e-06
-1.1075e-06
1.72216e-06
-6.07774e-07
2.0078e-05
1.71155e-05
1.42315e-05
1.14811e-05
8.84686e-06
6.32947e-06
3.93615e-06
1.67107e-06
-4.63866e-07
-2.46784e-06
-4.34099e-06
-6.08439e-06
-7.69986e-06
-9.18986e-06
-1.05574e-05
-1.18057e-05
-1.29386e-05
-1.39596e-05
-1.48728e-05
-1.56817e-05
-1.63904e-05
-1.70024e-05
-1.75216e-05
-1.79517e-05
-1.82968e-05
-1.8561e-05
-1.87483e-05
-1.88634e-05
-1.89107e-05
-1.88948e-05
-1.88204e-05
-1.8692e-05
-1.85142e-05
-1.82914e-05
-1.80277e-05
-1.77271e-05
-1.73936e-05
-1.70306e-05
-1.66416e-05
-1.62298e-05
-1.57984e-05
-1.53502e-05
-1.4888e-05
-1.4414e-05
-1.39315e-05
-1.34421e-05
-1.29478e-05
-1.24511e-05
-1.19537e-05
-1.14574e-05
-1.09639e-05
-1.04744e-05
-9.9906e-06
-9.51357e-06
-9.04451e-06
-8.58447e-06
-8.13438e-06
-7.69506e-06
-7.26725e-06
-6.85157e-06
-6.44855e-06
-6.05864e-06
-5.68223e-06
-5.31957e-06
-4.97089e-06
-4.63632e-06
-4.31595e-06
-4.00978e-06
-3.71775e-06
-3.43974e-06
-3.17559e-06
-2.92512e-06
-2.68808e-06
-2.46421e-06
-2.25319e-06
-2.05469e-06
-1.86834e-06
-1.69374e-06
-1.53046e-06
-1.37806e-06
-1.23611e-06
-1.10416e-06
-9.81727e-07
-8.68392e-07
-7.63563e-07
-6.67107e-07
-5.77865e-07
-4.9696e-07
-4.2062e-07
-3.55246e-07
-2.86657e-07
-2.41288e-07
-1.67592e-07
-1.5964e-07
-4.73414e-08
-1.25633e-07
1.03646e-07
-1.70343e-07
3.2843e-07
-3.31969e-07
6.61034e-07
-6.13774e-07
1.06468e-06
-9.08251e-07
1.35854e-06
-9.55178e-07
1.24261e-06
-4.66219e-07
5.33554e-07
5.51645e-07
-4.98651e-07
1.55344e-06
-1.10681e-06
1.7213e-06
-6.08892e-07
1.6088e-05
1.34761e-05
1.09184e-05
8.46446e-06
6.10178e-06
3.83318e-06
1.66744e-06
-3.89623e-07
-2.33446e-06
-4.16474e-06
-5.87919e-06
-7.47756e-06
-8.96048e-06
-1.03293e-05
-1.1586e-05
-1.2733e-05
-1.37731e-05
-1.47093e-05
-1.55448e-05
-1.62828e-05
-1.69267e-05
-1.74799e-05
-1.79456e-05
-1.83274e-05
-1.8629e-05
-1.88539e-05
-1.90062e-05
-1.909e-05
-1.91093e-05
-1.90685e-05
-1.8972e-05
-1.88238e-05
-1.86284e-05
-1.83899e-05
-1.81122e-05
-1.77992e-05
-1.74545e-05
-1.70816e-05
-1.66838e-05
-1.62643e-05
-1.5826e-05
-1.53717e-05
-1.49042e-05
-1.44256e-05
-1.3939e-05
-1.34462e-05
-1.29489e-05
-1.24496e-05
-1.19501e-05
-1.1452e-05
-1.0957e-05
-1.04664e-05
-9.98156e-06
-9.50381e-06
-9.03421e-06
-8.5738e-06
-8.12348e-06
-7.68407e-06
-7.25626e-06
-6.84068e-06
-6.43784e-06
-6.04818e-06
-5.67206e-06
-5.30974e-06
-4.96143e-06
-4.62726e-06
-4.3073e-06
-4.00156e-06
-3.70996e-06
-3.43238e-06
-3.16867e-06
-2.91862e-06
-2.68201e-06
-2.45855e-06
-2.24793e-06
-2.04981e-06
-1.86382e-06
-1.68956e-06
-1.52661e-06
-1.37453e-06
-1.23287e-06
-1.10121e-06
-9.79039e-07
-8.65955e-07
-7.61362e-07
-6.65125e-07
-5.76088e-07
-4.95362e-07
-4.19201e-07
-3.53957e-07
-2.85545e-07
-2.40229e-07
-1.66763e-07
-1.58716e-07
-4.68255e-08
-1.24734e-07
1.03761e-07
-1.69331e-07
3.28059e-07
-3.30738e-07
6.60202e-07
-6.12402e-07
1.06365e-06
-9.0709e-07
1.35783e-06
-9.5472e-07
1.24268e-06
-4.66698e-07
5.3448e-07
5.505e-07
-4.9722e-07
1.55207e-06
-1.10507e-06
1.71942e-06
-6.09262e-07
1.14346e-05
9.24126e-06
7.07344e-06
4.96049e-06
2.90863e-06
9.25961e-07
-9.77644e-07
-2.79466e-06
-4.5197e-06
-6.14876e-06
-7.67903e-06
-9.10885e-06
-1.04375e-05
-1.16652e-05
-1.27926e-05
-1.38213e-05
-1.4753e-05
-1.559e-05
-1.63348e-05
-1.69899e-05
-1.75581e-05
-1.80424e-05
-1.84455e-05
-1.87707e-05
-1.90211e-05
-1.92001e-05
-1.93111e-05
-1.9358e-05
-1.93443e-05
-1.92742e-05
-1.91514e-05
-1.89799e-05
-1.87636e-05
-1.85065e-05
-1.82122e-05
-1.78844e-05
-1.75265e-05
-1.71419e-05
-1.67337e-05
-1.63049e-05
-1.58585e-05
-1.5397e-05
-1.49233e-05
-1.44391e-05
-1.39477e-05
-1.34508e-05
-1.295e-05
-1.24477e-05
-1.19457e-05
-1.14455e-05
-1.09486e-05
-1.04566e-05
-9.97071e-06
-9.49209e-06
-9.02186e-06
-8.56101e-06
-8.11043e-06
-7.67091e-06
-7.24312e-06
-6.82767e-06
-6.42505e-06
-6.03568e-06
-5.65991e-06
-5.29799e-06
-4.95013e-06
-4.61643e-06
-4.29697e-06
-3.99173e-06
-3.70065e-06
-3.42359e-06
-3.1604e-06
-2.91087e-06
-2.67475e-06
-2.45178e-06
-2.24164e-06
-2.04398e-06
-1.85843e-06
-1.68458e-06
-1.52202e-06
-1.37031e-06
-1.22901e-06
-1.09768e-06
-9.75832e-07
-8.63046e-07
-7.58734e-07
-6.62756e-07
-5.73965e-07
-4.9345e-07
-4.17508e-07
-3.52412e-07
-2.84226e-07
-2.38948e-07
-1.65804e-07
-1.57567e-07
-4.62978e-08
-1.23527e-07
1.03679e-07
-1.67795e-07
3.27139e-07
-3.28598e-07
6.58316e-07
-6.09621e-07
1.06105e-06
-9.04144e-07
1.35533e-06
-9.52595e-07
1.24144e-06
-4.66369e-07
5.35263e-07
5.48798e-07
-4.94558e-07
1.54902e-06
-1.10132e-06
1.71565e-06
-6.08125e-07
6.19162e-06
4.45664e-06
2.70979e-06
9.77367e-07
-7.25686e-07
-2.38714e-06
-3.99561e-06
-5.54175e-06
-7.01823e-06
-8.41929e-06
-9.74052e-06
-1.09787e-05
-1.21317e-05
-1.31984e-05
-1.41784e-05
-1.50719e-05
-1.58797e-05
-1.66033e-05
-1.72442e-05
-1.78044e-05
-1.8286e-05
-1.86913e-05
-1.90227e-05
-1.92829e-05
-1.94746e-05
-1.96007e-05
-1.96642e-05
-1.96685e-05
-1.96168e-05
-1.95126e-05
-1.93594e-05
-1.91608e-05
-1.89204e-05
-1.86417e-05
-1.83281e-05
-1.79831e-05
-1.76099e-05
-1.72116e-05
-1.67913e-05
-1.63518e-05
-1.58959e-05
-1.54261e-05
-1.4945e-05
-1.44545e-05
-1.39576e-05
-1.34558e-05
-1.29509e-05
-1.24452e-05
-1.19402e-05
-1.14375e-05
-1.09387e-05
-1.0445e-05
-9.95779e-06
-9.47818e-06
-9.00723e-06
-8.54589e-06
-8.09501e-06
-7.65537e-06
-7.22761e-06
-6.81232e-06
-6.40996e-06
-6.02094e-06
-5.64559e-06
-5.28416e-06
-4.93682e-06
-4.60369e-06
-4.28481e-06
-3.98017e-06
-3.6897e-06
-3.41325e-06
-3.15067e-06
-2.90174e-06
-2.66622e-06
-2.44383e-06
-2.23425e-06
-2.03712e-06
-1.85208e-06
-1.67872e-06
-1.51663e-06
-1.36536e-06
-1.22448e-06
-1.09354e-06
-9.72064e-07
-8.59628e-07
-7.55645e-07
-6.59972e-07
-5.71467e-07
-4.91202e-07
-4.15509e-07
-3.50602e-07
-2.82657e-07
-2.37471e-07
-1.64629e-07
-1.56303e-07
-4.55429e-08
-1.2233e-07
1.03918e-07
-1.66488e-07
3.26763e-07
-3.27045e-07
6.57355e-07
-6.07912e-07
1.05984e-06
-9.02723e-07
1.35452e-06
-9.52094e-07
1.24165e-06
-4.67125e-07
5.36641e-07
5.47079e-07
-4.92378e-07
1.54684e-06
-1.09849e-06
1.71259e-06
-6.07485e-07
5.42167e-07
-7.208e-07
-2.02878e-06
-3.35681e-06
-4.68663e-06
-6.00357e-06
-7.29454e-06
-8.54839e-06
-9.75597e-06
-1.09098e-05
-1.20039e-05
-1.30335e-05
-1.3995e-05
-1.4886e-05
-1.57047e-05
-1.64502e-05
-1.71225e-05
-1.77217e-05
-1.82487e-05
-1.87048e-05
-1.90912e-05
-1.94098e-05
-1.96623e-05
-1.9851e-05
-1.99779e-05
-2.00457e-05
-2.00568e-05
-2.00139e-05
-1.992e-05
-1.97781e-05
-1.95911e-05
-1.93623e-05
-1.90949e-05
-1.87921e-05
-1.8457e-05
-1.80928e-05
-1.77025e-05
-1.7289e-05
-1.68552e-05
-1.64037e-05
-1.59372e-05
-1.54581e-05
-1.49688e-05
-1.44712e-05
-1.39681e-05
-1.34611e-05
-1.29516e-05
-1.24419e-05
-1.19336e-05
-1.14282e-05
-1.09272e-05
-1.04317e-05
-9.94304e-06
-9.46234e-06
-8.99059e-06
-8.52871e-06
-8.07752e-06
-7.63775e-06
-7.21004e-06
-6.79493e-06
-6.39288e-06
-6.00426e-06
-5.6294e-06
-5.26851e-06
-4.92177e-06
-4.58928e-06
-4.27106e-06
-3.96711e-06
-3.67732e-06
-3.40157e-06
-3.13968e-06
-2.89144e-06
-2.65659e-06
-2.43485e-06
-2.22589e-06
-2.02937e-06
-1.84492e-06
-1.67211e-06
-1.51054e-06
-1.35977e-06
-1.21936e-06
-1.08887e-06
-9.67811e-07
-8.5577e-07
-7.52158e-07
-6.56826e-07
-5.68642e-07
-4.88663e-07
-4.13249e-07
-3.48561e-07
-2.80876e-07
-2.3582e-07
-1.63277e-07
-1.54923e-07
-4.46218e-08
-1.21093e-07
1.04354e-07
-1.65255e-07
3.26677e-07
-3.25742e-07
6.56849e-07
-6.06684e-07
1.05928e-06
-9.02e-07
1.3545e-06
-9.52368e-07
1.2426e-06
-4.6847e-07
5.38429e-07
5.45169e-07
-4.90176e-07
1.54478e-06
-1.0957e-06
1.70946e-06
-6.06534e-07
-5.45914e-06
-6.23611e-06
-7.08921e-06
-7.99436e-06
-8.93216e-06
-9.8861e-06
-1.08415e-05
-1.17854e-05
-1.27071e-05
-1.35975e-05
-1.44491e-05
-1.52554e-05
-1.60117e-05
-1.67139e-05
-1.73592e-05
-1.79456e-05
-1.84717e-05
-1.89369e-05
-1.93411e-05
-1.96846e-05
-1.99682e-05
-2.0193e-05
-2.03603e-05
-2.04714e-05
-2.05282e-05
-2.05326e-05
-2.04865e-05
-2.03923e-05
-2.02523e-05
-2.00691e-05
-1.98451e-05
-1.95832e-05
-1.92862e-05
-1.89569e-05
-1.85982e-05
-1.82129e-05
-1.78037e-05
-1.73735e-05
-1.69248e-05
-1.64602e-05
-1.59821e-05
-1.54927e-05
-1.49945e-05
-1.44891e-05
-1.39792e-05
-1.34663e-05
-1.29518e-05
-1.24379e-05
-1.1926e-05
-1.14176e-05
-1.09141e-05
-1.04166e-05
-9.92641e-06
-9.44452e-06
-8.97191e-06
-8.50945e-06
-8.05792e-06
-7.61804e-06
-7.19039e-06
-6.7755e-06
-6.3738e-06
-5.98564e-06
-5.61132e-06
-5.25105e-06
-4.90498e-06
-4.5732e-06
-4.25573e-06
-3.95254e-06
-3.66353e-06
-3.38855e-06
-3.12743e-06
-2.87995e-06
-2.64585e-06
-2.42484e-06
-2.21659e-06
-2.02074e-06
-1.83693e-06
-1.66474e-06
-1.50375e-06
-1.35354e-06
-1.21366e-06
-1.08366e-06
-9.63075e-07
-8.51472e-07
-7.48273e-07
-6.53322e-07
-5.65494e-07
-4.85834e-07
-4.10727e-07
-3.46288e-07
-2.78888e-07
-2.33985e-07
-1.61765e-07
-1.534e-07
-4.35832e-08
-1.19738e-07
1.04864e-07
-1.63911e-07
3.26609e-07
-3.2431e-07
6.5629e-07
-6.05291e-07
1.0586e-06
-9.01096e-07
1.35435e-06
-9.52525e-07
1.24352e-06
-4.69889e-07
5.40433e-07
5.429e-07
-4.87437e-07
1.54206e-06
-1.09204e-06
1.70543e-06
-6.04437e-07
-1.17578e-05
-1.20349e-05
-1.24198e-05
-1.28884e-05
-1.34202e-05
-1.3997e-05
-1.46026e-05
-1.52227e-05
-1.58449e-05
-1.64587e-05
-1.70548e-05
-1.76257e-05
-1.81651e-05
-1.86676e-05
-1.91292e-05
-1.95465e-05
-1.99174e-05
-2.024e-05
-2.05134e-05
-2.07372e-05
-2.09112e-05
-2.1036e-05
-2.1112e-05
-2.11403e-05
-2.1122e-05
-2.10584e-05
-2.0951e-05
-2.08016e-05
-2.06119e-05
-2.0384e-05
-2.012e-05
-1.98223e-05
-1.94932e-05
-1.91352e-05
-1.87508e-05
-1.83426e-05
-1.7913e-05
-1.74646e-05
-1.69998e-05
-1.65209e-05
-1.60302e-05
-1.55297e-05
-1.50218e-05
-1.45079e-05
-1.39907e-05
-1.34714e-05
-1.29515e-05
-1.24329e-05
-1.19172e-05
-1.14055e-05
-1.08993e-05
-1.03997e-05