/*--------------------------------*- C++ -*----------------------------------*\
| =========                 |                                                 |
| \\      /  F ield         | OpenFOAM: The Open Source CFD Toolbox           |
|  \\    /   O peration     | Version:  2412                                  |
|   \\  /    A nd           | Website:  www.openfoam.com                      |
|    \\/     M anipulation  |                                                 |
\*---------------------------------------------------------------------------*/
FoamFile
{
    version     2.0;
    format      ascii;
    arch        "LSB;label=32;scalar=64";
    class       surfaceScalarField;
    location    "14";
    object      phi;
}
// * * * * * * * * * * * * * * * * * * * * * * * * * * * * * * * * * * * * * //

dimensions      [0 3 -1 0 0 0 0];

oriented        oriented;

internalField   nonuniform List<scalar> 
126304
(
0.00505063
1.29417e-07
2.75449e-11
0.00505026
3.7121e-07
8.62298e-11
0.00504967
5.8917e-07
1.63544e-10
0.00504883
8.40299e-07
1.81591e-10
0.00504759
1.23513e-06
-2.35234e-11
0.00504574
1.85275e-06
-5.66629e-10
0.00504308
2.65975e-06
-1.38196e-09
0.00503957
3.50986e-06
-2.21695e-09
0.00503536
4.21961e-06
-2.75479e-09
0.0050307
4.65662e-06
-2.76721e-09
0.00502592
4.78566e-06
-2.20099e-09
0.00502126
4.65992e-06
-1.16887e-09
0.00501688
4.37999e-06
1.22979e-10
0.00501283
4.04966e-06
1.45853e-09
0.00500908
3.74737e-06
2.67059e-09
0.00500556
3.51688e-06
3.66344e-09
0.00500218
3.3717e-06
4.40709e-09
0.00499887
3.30543e-06
4.91823e-09
0.00499556
3.30224e-06
5.23774e-09
0.00499221
3.34436e-06
5.41352e-09
0.00498879
3.41633e-06
5.48978e-09
0.00498528
3.50654e-06
5.5016e-09
0.00498167
3.60727e-06
5.47443e-09
0.00497795
3.7139e-06
5.42472e-09
0.00497412
3.82402e-06
5.36249e-09
0.00497018
3.93663e-06
5.2928e-09
0.00496612
4.05151e-06
5.21803e-09
0.00496195
4.16883e-06
5.13863e-09
0.00495765
4.28895e-06
5.05469e-09
0.00495324
4.41224e-06
4.96587e-09
0.00494869
4.53903e-06
4.87205e-09
0.00494402
4.6696e-06
4.77296e-09
0.00493921
4.80418e-06
4.66853e-09
0.00493426
4.94292e-06
4.55871e-09
0.00492917
5.08597e-06
4.44357e-09
0.00492393
5.23342e-06
4.32328e-09
0.00491854
5.38534e-06
4.19782e-09
0.004913
5.54179e-06
4.06729e-09
0.00490729
5.70282e-06
3.93176e-09
0.00490142
5.86847e-06
3.79156e-09
0.00489538
6.03878e-06
3.64723e-09
0.00488916
6.21379e-06
3.49914e-09
0.00488276
6.39354e-06
3.34763e-09
0.00487618
6.57808e-06
3.19313e-09
0.00486941
6.76745e-06
3.03606e-09
0.00486245
6.9617e-06
2.87682e-09
0.00485528
7.16091e-06
2.71595e-09
0.00484791
7.36514e-06
2.55394e-09
0.00484034
7.57448e-06
2.39113e-09
0.00483255
7.78906e-06
2.22785e-09
0.00482454
8.00903e-06
2.06453e-09
0.0048163
8.23473e-06
1.90152e-09
0.00480783
8.46696e-06
1.73913e-09
0.00479912
8.70793e-06
1.57764e-09
8.96398e-06
0.00479015
1.4171e-09
0.00505063
2.58751e-07
0.00505026
7.4233e-07
0.00504967
1.17837e-06
0.00504883
1.67978e-06
0.0050476
2.46608e-06
0.00504575
3.69508e-06
0.00504311
5.30146e-06
0.00503963
6.99549e-06
0.00503543
8.41262e-06
0.0050308
9.28906e-06
0.00502603
9.55346e-06
0.00502138
9.3104e-06
0.005017
8.759e-06
0.00501295
8.10536e-06
0.00500919
7.50563e-06
0.00500566
7.04726e-06
0.00500227
6.75762e-06
0.00499896
6.62452e-06
0.00499564
6.61678e-06
0.00499229
6.69931e-06
0.00498886
6.84147e-06
0.00498535
7.02023e-06
0.00498173
7.22021e-06
0.00497802
7.43221e-06
0.00497419
7.65139e-06
0.00497025
7.87568e-06
0.0049662
8.10464e-06
0.00496203
8.33859e-06
0.00495774
8.57819e-06
0.00495333
8.82416e-06
0.00494879
9.07716e-06
0.00494412
9.33772e-06
0.00493932
9.60629e-06
0.00493438
9.8832e-06
0.00492929
1.01687e-05
0.00492406
1.04629e-05
0.00491868
1.07661e-05
0.00491315
1.10783e-05
0.00490745
1.13996e-05
0.00490159
1.17302e-05
0.00489556
1.207e-05
0.00488935
1.24191e-05
0.00488297
1.27777e-05
0.0048764
1.31458e-05
0.00486964
1.35235e-05
0.00486269
1.3911e-05
0.00485555
1.43082e-05
0.0048482
1.47155e-05
0.00484064
1.51328e-05
0.00483287
1.55606e-05
0.00482488
1.59991e-05
0.00481666
1.64488e-05
0.00480822
1.69115e-05
0.00479954
1.73913e-05
1.79003e-05
0.0047906
0.00505063
3.8787e-07
0.00505026
1.11309e-06
0.00504967
1.76731e-06
0.00504883
2.51728e-06
0.00504761
3.68892e-06
0.00504578
5.51814e-06
0.00504318
7.91061e-06
0.00503973
1.0438e-05
0.00503559
1.2559e-05
0.005031
1.38795e-05
0.00502626
1.42905e-05
0.00502163
1.39445e-05
0.00501725
1.31357e-05
0.00501318
1.21698e-05
0.00500941
1.12798e-05
0.00500586
1.05967e-05
0.00500246
1.01626e-05
0.00499912
9.96055e-06
0.00499579
9.945e-06
0.00499243
1.00643e-05
0.00498899
1.0273e-05
0.00498548
1.0537e-05
0.00498186
1.08334e-05
0.00497815
1.11484e-05
0.00497433
1.14746e-05
0.00497039
1.18089e-05
0.00496635
1.21506e-05
0.00496218
1.24999e-05
0.00495791
1.28579e-05
0.0049535
1.32255e-05
0.00494898
1.36037e-05
0.00494432
1.39934e-05
0.00493953
1.4395e-05
0.00493461
1.48091e-05
0.00492954
1.5236e-05
0.00492433
1.5676e-05
0.00491896
1.61294e-05
0.00491345
1.65962e-05
0.00490777
1.70766e-05
0.00490193
1.75708e-05
0.00489592
1.80787e-05
0.00488974
1.86006e-05
0.00488338
1.91365e-05
0.00487684
1.96866e-05
0.00487011
2.02509e-05
0.00486319
2.08297e-05
0.00485608
2.1423e-05
0.00484876
2.20312e-05
0.00484124
2.26543e-05
0.00483351
2.32928e-05
0.00482556
2.39471e-05
0.00481739
2.4618e-05
0.00480899
2.53078e-05
0.00480036
2.60223e-05
2.67786e-05
0.00479149
0.00505063
5.16669e-07
0.00505026
1.48331e-06
0.00504967
2.3558e-06
0.00504884
3.35186e-06
0.00504762
4.9e-06
0.00504583
7.31339e-06
0.00504327
1.04728e-05
0.00503989
1.38184e-05
0.00503581
1.66379e-05
0.00503128
1.84091e-05
0.00502659
1.89828e-05
0.00502198
1.85546e-05
0.0050176
1.75085e-05
0.00501353
1.62465e-05
0.00500973
1.50764e-05
0.00500615
1.41733e-05
0.00500272
1.35948e-05
0.00499936
1.33208e-05
0.00499601
1.32927e-05
0.00499263
1.34433e-05
0.00498919
1.37134e-05
0.00498567
1.4058e-05
0.00498206
1.44467e-05
0.00497835
1.48612e-05
0.00497453
1.52915e-05
0.0049706
1.57334e-05
0.00496657
1.61856e-05
0.00496242
1.66485e-05
0.00495816
1.71232e-05
0.00495377
1.7611e-05
0.00494926
1.8113e-05
0.00494462
1.86303e-05
0.00493986
1.91635e-05
0.00493495
1.97134e-05
0.00492991
2.02803e-05
0.00492472
2.08646e-05
0.00491938
2.14665e-05
0.00491389
2.20862e-05
0.00490824
2.2724e-05
0.00490243
2.33798e-05
0.00489646
2.40539e-05
0.00489031
2.47464e-05
0.00488399
2.54574e-05
0.00487749
2.6187e-05
0.00487081
2.69354e-05
0.00486393
2.77027e-05
0.00485687
2.84893e-05
0.0048496
2.92952e-05
0.00484214
3.01207e-05
0.00483446
3.09664e-05
0.00482658
3.18325e-05
0.00481848
3.27203e-05
0.00481015
3.36323e-05
0.0048016
3.45753e-05
3.55695e-05
0.00479281
0.00505063
6.4505e-07
0.00505026
1.85277e-06
0.00504967
2.94364e-06
0.00504884
4.18268e-06
0.00504764
6.0962e-06
0.00504588
9.0735e-06
0.00504338
1.29755e-05
0.00504008
1.712e-05
0.00503609
2.06312e-05
0.00503163
2.28613e-05
0.005027
2.36179e-05
0.00502242
2.31335e-05
0.00501805
2.18756e-05
0.00501396
2.03379e-05
0.00501014
1.89008e-05
0.00500653
1.77835e-05
0.00500306
1.70608e-05
0.00499967
1.6711e-05
0.0049963
1.66644e-05
0.0049929
1.68398e-05
0.00498945
1.71646e-05
0.00498593
1.75836e-05
0.00498231
1.80594e-05
0.00497861
1.85689e-05
0.0049748
1.90997e-05
0.00497089
1.9646e-05
0.00496686
2.0206e-05
0.00496273
2.07801e-05
0.00495849
2.13694e-05
0.00495412
2.19754e-05
0.00494964
2.25993e-05
0.00494502
2.32424e-05
0.00494028
2.39054e-05
0.00493541
2.45891e-05
0.00493039
2.5294e-05
0.00492524
2.60205e-05
0.00491993
2.67689e-05
0.00491448
2.75393e-05
0.00490887
2.8332e-05
0.00490311
2.91471e-05
0.00489718
2.99847e-05
0.00489108
3.0845e-05
0.00488481
3.1728e-05
0.00487836
3.2634e-05
0.00487173
3.35631e-05
0.00486492
3.45154e-05
0.00485792
3.54913e-05
0.00485072
3.64908e-05
0.00484333
3.75144e-05
0.00483573
3.85624e-05
0.00482793
3.96354e-05
0.00481991
4.07343e-05
0.00481168
4.18619e-05
0.00480323
4.30253e-05
4.42452e-05
0.00479456
0.00505063
7.72924e-07
0.00505026
2.22124e-06
0.00504967
3.53057e-06
0.00504885
5.00895e-06
0.00504767
7.27495e-06
0.00504595
1.07926e-05
0.00504352
1.54091e-05
0.00504031
2.03298e-05
0.00503641
2.45244e-05
0.00503205
2.72225e-05
0.00502748
2.81852e-05
0.00502294
2.76748e-05
0.00501858
2.62348e-05
0.00501448
2.4445e-05
0.00501062
2.27563e-05
0.00500697
2.14318e-05
0.00500347
2.05652e-05
0.00500004
2.01353e-05
0.00499665
2.00634e-05
0.00499323
2.02556e-05
0.00498977
2.06274e-05
0.00498624
2.11138e-05
0.00498263
2.16704e-05
0.00497892
2.22697e-05
0.00497513
2.28964e-05
0.00497123
2.35433e-05
0.00496723
2.4208e-05
0.00496312
2.48904e-05
0.0049589
2.55917e-05
0.00495456
2.63134e-05
0.0049501
2.70569e-05
0.00494552
2.78235e-05
0.00494081
2.8614e-05
0.00493597
2.94292e-05
0.004931
3.02697e-05
0.00492588
3.1136e-05
0.00492062
3.20281e-05
0.00491521
3.29465e-05
0.00490965
3.38912e-05
0.00490394
3.48624e-05
0.00489806
3.58603e-05
0.00489202
3.68849e-05
0.00488581
3.79363e-05
0.00487943
3.90147e-05
0.00487288
4.01203e-05
0.00486614
4.12533e-05
0.00485922
4.24137e-05
0.00485211
4.36019e-05
0.0048448
4.48181e-05
0.0048373
4.60627e-05
0.0048296
4.73362e-05
0.0048217
4.86394e-05
0.00481358
4.99748e-05
0.00480526
5.13485e-05
5.27795e-05
0.00479673
0.00505063
9.0016e-07
0.00505026
2.58854e-06
0.00504968
4.11628e-06
0.00504886
5.82999e-06
0.0050477
8.43436e-06
0.00504602
1.24667e-05
0.00504367
1.77665e-05
0.00504056
2.34382e-05
0.00503677
2.83069e-05
0.00503251
3.14826e-05
0.00502802
3.26766e-05
0.00502352
3.2173e-05
0.00501918
3.05833e-05
0.00501505
2.85675e-05
0.00501117
2.66443e-05
0.00500748
2.51206e-05
0.00500393
2.41104e-05
0.00500047
2.35958e-05
0.00499704
2.34912e-05
0.00499361
2.36916e-05
0.00499013
2.41017e-05
0.0049866
2.46476e-05
0.00498299
2.52781e-05
0.0049793
2.59612e-05
0.00497552
2.66787e-05
0.00497164
2.7422e-05
0.00496766
2.81875e-05
0.00496357
2.89749e-05
0.00495938
2.97853e-05
0.00495507
3.06199e-05
0.00495065
3.14802e-05
0.00494611
3.23675e-05
0.00494144
3.32828e-05
0.00493664
3.42269e-05
0.00493171
3.52001e-05
0.00492664
3.62031e-05
0.00492144
3.7236e-05
0.00491608
3.8299e-05
0.00491058
3.93923e-05
0.00490493
4.0516e-05
0.00489912
4.16702e-05
0.00489315
4.2855e-05
0.00488701
4.40705e-05
0.00488071
4.53168e-05
0.00487424
4.6594e-05
0.00486759
4.79023e-05
0.00486076
4.92418e-05
0.00485375
5.06127e-05
0.00484655
5.20153e-05
0.00483917
5.34497e-05
0.00483159
5.49164e-05
0.00482381
5.64161e-05
0.00481583
5.79504e-05
0.00480766
5.9523e-05
0.00479929
6.11447e-05
0.00479122
-1.06999e-06
1.26403e-09
0.00479178
-5.58731e-07
1.13407e-09
0.00479178
-3.42397e-10
9.99892e-10
0.00479121
5.7382e-07
8.33821e-10
0.00479
1.20121e-06
6.68752e-10
0.00478813
1.87187e-06
5.03985e-10
0.00478554
2.59056e-06
3.31607e-10
0.00478218
3.36155e-06
1.53295e-10
0.00477799
4.18933e-06
-2.95275e-11
0.00477291
5.07879e-06
-2.15436e-10
0.00476688
6.0352e-06
-4.02369e-10
0.00475981
7.06428e-06
-5.88431e-10
0.00475164
8.17236e-06
-7.71495e-10
0.00474228
9.36647e-06
-9.49582e-10
0.00473162
1.06546e-05
-1.12031e-09
0.00471958
1.20459e-05
-1.2891e-09
0.00470603
1.35513e-05
-1.44895e-09
0.00469085
1.51838e-05
-1.58823e-09
0.00467389
1.6959e-05
-1.70129e-09
0.00465499
1.8895e-05
-1.78912e-09
0.00463398
2.10135e-05
-1.86185e-09
0.00461064
2.33407e-05
-1.92064e-09
0.00458474
2.59074e-05
-1.96378e-09
0.00455599
2.875e-05
-1.99116e-09
0.00452408
3.19113e-05
-2.00393e-09
0.00448864
3.54415e-05
-2.00442e-09
0.00444924
3.93995e-05
-1.99445e-09
0.00440539
4.38545e-05
-1.97639e-09
0.00435651
4.88886e-05
-1.95303e-09
0.00430191
5.4599e-05
-1.92625e-09
0.00424081
6.11029e-05
-1.89727e-09
0.00417227
6.85415e-05
-1.86731e-09
0.00409518
7.70871e-05
-1.83708e-09
0.00400823
8.69505e-05
-1.80653e-09
0.00390985
9.83901e-05
-1.7754e-09
0.00379813
0.000111722
-1.74362e-09
0.0036708
0.000127326
-1.71112e-09
0.00352515
0.000145649
-1.67838e-09
0.00335796
0.000167192
-1.64648e-09
0.0031655
0.000192465
-1.61715e-09
0.00294361
0.000221896
-1.59298e-09
0.00268796
0.000255645
-1.57717e-09
0.00239467
0.000293297
-1.5734e-09
0.00206131
0.000333355
-1.585e-09
0.00168883
0.000372482
-1.6127e-09
0.00128441
0.000404428
-1.65061e-09
0.000865751
0.000418657
-1.67555e-09
0.000467126
0.000398627
-1.6261e-09
0.00014797
0.000319158
-1.37698e-09
0.00014797
-7.27002e-10
0.0047903
-7.69207e-07
0.00478948
2.57735e-07
0.00478813
1.34966e-06
0.00478619
2.51556e-06
0.00478363
3.76485e-06
0.0047804
5.10315e-06
0.00477645
6.53775e-06
0.00477173
8.07697e-06
0.00476619
9.72984e-06
0.00475976
1.15061e-05
0.00475238
1.34163e-05
0.00474398
1.54719e-05
0.00473446
1.76857e-05
0.00472376
2.00717e-05
0.00471177
2.2646e-05
0.00469838
2.5427e-05
0.0046835
2.84367e-05
0.00466698
3.17014e-05
0.00464869
3.52519e-05
0.00462846
3.9125e-05
0.00460611
4.33642e-05
0.00458143
4.80218e-05
0.00455417
5.31596e-05
0.00452407
5.88505e-05
0.00449081
6.51801e-05
0.004454
7.22489e-05
0.00441322
8.01744e-05
0.00436798
8.90952e-05
0.0043177
9.91748e-05
0.00426169
0.000110608
0.00419916
0.000123627
0.00412919
0.000138513
0.00405067
0.000155609
0.00396229
0.000175334
0.00386248
0.000198198
0.00374938
0.000224825
0.00362074
0.000255963
0.0034739
0.00029249
0.00330571
0.000335379
0.00311256
0.000385618
0.00289044
0.000444011
0.00263527
0.000510823
0.00234341
0.000585153
0.00201282
0.000663948
0.00164478
0.000740516
0.00124679
0.000802421
0.00083671
0.000828736
0.000448467
0.00078687
0.000139357
0.000628268
0.000287328
0.00478846
2.25243e-06
0.00478494
3.78346e-06
0.00478087
5.41696e-06
0.00477622
7.16277e-06
0.00477096
9.03098e-06
0.00476503
1.10321e-05
0.00475839
1.31776e-05
0.00475099
1.548e-05
0.00474276
1.79528e-05
0.00473366
2.06107e-05
0.0047236
2.34696e-05
0.00471253
2.65468e-05
0.00470035
2.98616e-05
0.00468699
3.34351e-05
0.00467234
3.72916e-05
0.00465631
4.14591e-05
0.00463878
4.59707e-05
0.00461961
5.08661e-05
0.00459867
5.6192e-05
0.00457579
6.20037e-05
0.00455079
6.83669e-05
0.00452345
7.53603e-05
0.00449354
8.30769e-05
0.00446076
9.16261e-05
0.0044248
0.000101137
0.00438529
0.000111759
0.0043418
0.00012367
0.00429382
0.000137076
0.00424077
0.000152222
0.00418198
0.000169398
0.00411666
0.000188952
0.00404387
0.000211303
0.00396252
0.000236958
0.00387132
0.000266535
0.00376872
0.000300789
0.00365291
0.000340634
0.00352171
0.000387162
0.00337256
0.000441641
0.00320248
0.000505467
0.00300807
0.000580028
0.00278567
0.00066641
0.00253163
0.000764858
0.00224293
0.00087386
0.00191818
0.000988695
0.00155939
0.00109931
0.00117452
0.00118728
0.00078152
0.00122174
0.000413838
0.00115455
0.000126145
0.000915961
0.000413473
0.00478575
9.30844e-06
0.0047782
1.13392e-05
0.00477011
1.35072e-05
0.00476144
1.58243e-05
0.00475217
1.83038e-05
0.00474224
2.096e-05
0.00473161
2.38084e-05
0.00472023
2.68657e-05
0.00470803
3.01502e-05
0.00469496
3.36814e-05
0.00468095
3.74807e-05
0.00466592
4.15714e-05
0.00464981
4.59792e-05
0.00463251
5.07327e-05
0.00461394
5.58645e-05
0.00459398
6.14123e-05
0.00457253
6.74207e-05
0.00454946
7.39431e-05
0.00452461
8.10425e-05
0.00449782
8.87928e-05
0.0044689
9.72825e-05
0.00443764
0.000106617
0.0044038
0.00011692
0.00436709
0.00012834
0.00432718
0.000141046
0.0042837
0.00015524
0.00423621
0.000171157
0.00418421
0.000189072
0.00412713
0.00020931
0.00406427
0.000232256
0.00399485
0.000258369
0.00391795
0.000288201
0.00383249
0.000322418
0.0037372
0.000361829
0.00363058
0.000407412
0.00351087
0.000460346
0.003376
0.000522028
0.00322358
0.000594059
0.00305088
0.000678173
0.00285486
0.00077604
0.0026324
0.000888875
0.00238054
0.00101672
0.00209714
0.00115725
0.00178188
0.00130396
0.00143774
0.00144345
0.00107326
0.00155176
0.000705925
0.00158907
0.000367337
0.00149314
0.000107348
0.00117595
0.00052082
0.0047822
2.16638e-05
0.00476936
2.41845e-05
0.00475599
2.68759e-05
0.00474206
2.97529e-05
0.00472753
3.28322e-05
0.00471236
3.6132e-05
0.0046965
3.96715e-05
0.00467989
4.34721e-05
0.00466249
4.75563e-05
0.00464422
5.1949e-05
0.00462502
5.66767e-05
0.00460482
6.17689e-05
0.00458355
6.72578e-05
0.0045611
7.31797e-05
0.00453739
7.95758e-05
0.00451231
8.64937e-05
0.00448574
9.39898e-05
0.00445755
0.000102132
0.00442759
0.000110999
0.0043957
0.000120684
0.00436168
0.0001313
0.00432532
0.000142977
0.00428637
0.000155874
0.00424454
0.000170172
0.0041995
0.000186087
0.00415087
0.00020387
0.00409821
0.000223814
0.00404102
0.000246262
0.00397871
0.000271617
0.00391061
0.000300358
0.00383593
0.00033305
0.00375376
0.000370374
0.00366303
0.000413145
0.00356251
0.000462345
0.00345077
0.000519155
0.00332613
0.000584981
0.0031867
0.000661466
0.00303029
0.000750461
0.00285455
0.000853913
0.00265698
0.000973611
0.00243518
0.00111068
0.0021872
0.00126469
0.00191219
0.00143227
0.00161124
0.00160491
0.00128863
0.00176606
0.000953461
0.00188693
0.000621925
0.00192061
0.000320653
0.00179441
8.88398e-05
0.00140776
0.00060966
0.00477788
4.05128e-05
0.00475855
4.35072e-05
0.00473872
4.6706e-05
0.00471835
5.01272e-05
0.00469739
5.37909e-05
0.0046758
5.77187e-05
0.00465354
6.1934e-05
0.00463055
6.64622e-05
0.00460678
7.13305e-05
0.00458216
7.65685e-05
0.00455663
8.22085e-05
0.00453011
8.82858e-05
0.00450253
9.48396e-05
0.00447379
0.000101914
0.00444381
0.000109558
0.00441247
0.000117831
0.00437966
0.000126801
0.00434524
0.00013655
0.00430907
0.000147174
0.00427097
0.000158786
0.00423074
0.000171523
0.00418818
0.000185542
0.00414302
0.000201034
0.00409497
0.000218218
0.00404371
0.000237354
0.00398883
0.000258743
0.00392991
0.000282735
0.00386643
0.000309741
0.00379781
0.000340242
0.00372336
0.000374806
0.00364231
0.000414104
0.00355374
0.000458936
0.00345664
0.000510253
0.00334979
0.000569193
0.00323184
0.000637103
0.00310126
0.000715564
0.00295634
0.00080638
0.00279528
0.000911525
0.00261622
0.00103297
0.00241746
0.00117237
0.00219773
0.00133041
0.00195662
0.0015058
0.00169521
0.00169368
0.0014168
0.00188332
0.00112765
0.00205521
0.000837711
0.00217687
0.000560873
0.00219745
0.000313575
0.00204171
0.000108343
0.00161299
0.000718003
0.00477285
6.69564e-05
0.00474596
7.04001e-05
0.00471858
7.40847e-05
0.00469068
7.80293e-05
0.00466221
8.22569e-05
0.00463314
8.67922e-05
0.00460341
9.16624e-05
0.00457297
9.68966e-05
0.00454178
0.000102527
0.00450976
0.000108587
0.00447685
0.000115116
0.00444298
0.000122154
0.00440808
0.000129747
0.00437204
0.000137948
0.00433479
0.000146815
0.0042962
0.000156416
0.00425617
0.000166833
0.00421456
0.000178163
0.00417121
0.000190519
0.00412596
0.000204034
0.00407862
0.000218869
0.00402895
0.00023521
0.0039767
0.000253279
0.00392159
0.000273336
0.00386326
0.000295681
0.00380134
0.000320667
0.00373537
0.000348702
0.00366485
0.000380263
0.00358918
0.000415908
0.00350769
0.000456293
0.00341961
0.000502188
0.00332404
0.000554508
0.00321996
0.000614329
0.00310623
0.000682925
0.00298155
0.000761777
0.00284453
0.000852586
0.00269368
0.000957229
0.00252755
0.00107766
0.00234488
0.00121565
0.00214487
0.00137238
0.00192762
0.00154766
0.0016947
0.00173872
0.00144983
0.00193854
0.00119963
0.00213353
0.00095411
0.00230073
0.000726286
0.00240469
0.000529543
0.00239419
0.000368524
0.00220273
0.000223158
0.00175836
0.000941161
-3.07339e-05
3.07338e-05
1.22988e-10
-8.3221e-05
5.24865e-05
6.43856e-10
-0.000133471
5.02488e-05
1.34549e-09
-0.000167628
3.41545e-05
2.06592e-09
-0.000178094
1.04639e-05
2.7234e-09
-0.00016191
-1.61874e-05
3.2189e-09
-0.000118482
-4.3432e-05
3.67212e-09
-4.85191e-05
-6.99668e-05
4.06275e-09
4.62274e-05
-9.4751e-05
4.42438e-09
0.000163166
-0.000116943
4.75055e-09
0.000299569
-0.000136408
5.02112e-09
0.000452519
-0.000152955
5.21085e-09
0.000619057
-0.000166543
5.29041e-09
0.000796286
-0.000177235
5.22823e-09
0.000981439
-0.000185157
5.00104e-09
0.00117192
-0.000190487
4.59473e-09
0.00136535
-0.000193429
4.01449e-09
0.00155956
-0.000194213
3.28543e-09
0.00175263
-0.000193074
2.44616e-09
0.00194288
-0.000190256
1.55911e-09
0.00212888
-0.000185995
8.18116e-10
0.0023094
-0.000180525
2.65048e-10
0.00248347
-0.000174067
3.07563e-10
0.00265029
-0.000166828
1.09792e-09
0.00280929
-0.000158999
2.24231e-09
0.00296004
-0.00015075
3.50058e-09
0.00310227
-0.000142238
4.54736e-09
0.00323586
-0.000133599
5.27051e-09
0.00336081
-0.000124953
5.70393e-09
0.00347721
-0.000116404
5.84978e-09
0.00358524
-0.000108038
5.71881e-09
0.00368516
-9.99261e-05
5.34229e-09
0.00377728
-9.21256e-05
4.76965e-09
0.00386196
-8.46796e-05
4.06439e-09
0.00393957
-7.76196e-05
3.29671e-09
0.00401054
-7.0966e-05
2.53294e-09
0.00407527
-6.47299e-05
1.83025e-09
0.00413418
-5.89141e-05
1.23226e-09
0.00418769
-5.35145e-05
7.66449e-10
0.00423621
-4.85213e-05
4.46121e-10
0.00428013
-4.392e-05
2.71872e-10
0.00431983
-3.96926e-05
2.34788e-10
0.00435564
-3.58188e-05
3.19644e-10
0.00438792
-3.22763e-05
5.06909e-10
0.00441696
-2.9042e-05
7.75645e-10
0.00444305
-2.60927e-05
1.10557e-09
0.00446646
-2.34051e-05
1.47715e-09
0.00448741
-2.09567e-05
1.87304e-09
0.00450613
-1.87259e-05
2.27963e-09
-1.66917e-05
0.00452282
2.68668e-09
-2.69663e-05
5.77001e-05
-7.21884e-05
9.77085e-05
-0.000114446
9.2506e-05
-0.000141468
6.1177e-05
-0.000146141
1.51369e-05
-0.000125975
-3.63538e-05
-8.02385e-05
-8.91681e-05
-9.12952e-06
-0.000141076
8.50572e-05
-0.000188938
0.000200522
-0.000232408
0.000334695
-0.00027058
0.000484825
-0.000303086
0.000648133
-0.000329851
0.000821877
-0.000350978
0.00100342
-0.000366699
0.00119027
-0.00037734
0.00138014
-0.000383294
0.00157092
-0.000384997
0.00176075
-0.000382906
0.00194799
-0.000377491
0.00213121
-0.000369218
0.00230923
-0.000358539
0.00248105
-0.00034589
0.0026459
-0.000331681
0.00280319
-0.000316285
0.00295248
-0.000300045
0.00309351
-0.000283267
0.00322614
-0.000266222
0.00335033
-0.000249152
0.00346619
-0.00023226
0.00357387
-0.00021572
0.00367362
-0.000199674
0.00376573
-0.000184235
0.00385054
-0.000169492
0.00392843
-0.000155507
0.00399978
-0.000142321
0.00406501
-0.000129958
0.00412452
-0.000118425
0.00417872
-0.000107713
0.004228
-9.7804e-05
0.00427275
-8.867e-05
0.00431334
-8.02759e-05
0.0043501
-7.25817e-05
0.00438337
-6.55436e-05
0.00441344
-5.91164e-05
0.0044406
-5.32539e-05
0.00446511
-4.79106e-05
0.00448719
-4.30419e-05
0.00450707
-3.86046e-05
-3.45569e-05
0.00452494
-2.00881e-05
7.77882e-05
-5.08739e-05
0.000128494
-7.79798e-05
0.000119612
-9.16079e-05
7.4805e-05
-8.54498e-05
8.97878e-06
-5.77579e-05
-6.40457e-05
-7.50601e-06
-0.00013942
6.41575e-05
-0.000212739
0.000157189
-0.000281969
0.000269577
-0.000344796
0.000399159
-0.000400163
0.000543612
-0.000447539
0.000700509
-0.000486749
0.000867409
-0.000517878
0.00104192
-0.000541213
0.00122177
-0.000557184
0.0014048
-0.000566327
0.00158905
-0.000569249
0.00177274
-0.000566597
0.00195429
-0.000559041
0.00213232
-0.000547249
0.00230566
-0.000531879
0.00247334
-0.000513565
0.00263456
-0.000492905
0.00278873
-0.000470456
0.00293541
-0.000446719
0.00307429
-0.000422146
0.00320521
-0.000397144
0.00332812
-0.000372068
0.00344309
-0.000347224
0.00355024
-0.000322871
0.00364979
-0.000299223
0.003742
-0.000276451
0.0038272
-0.000254688
0.00390572
-0.000234029
0.00397794
-0.000214539
0.00404424
-0.000196254
0.004105
-0.000179185
0.00416061
-0.000163324
0.00421145
-0.000148645
0.00425789
-0.000135107
0.00430027
-0.000122661
0.00433894
-0.000111248
0.0043742
-0.000100803
0.00440634
-9.12623e-05
0.00443565
-8.25566e-05
0.00446235
-7.46193e-05
0.0044867
-6.73847e-05
0.00450888
-6.07888e-05
-5.4768e-05
0.00452909
-7.40179e-06
8.519e-05
-1.93186e-05
0.000140411
-2.53922e-05
0.000125686
-2.0026e-05
6.94388e-05
3.4265e-07
-1.13899e-05
3.5732e-05
-9.94351e-05
8.97499e-05
-0.000193438
0.000162556
-0.000285546
0.000253072
-0.000372485
0.000360255
-0.000451978
0.000482652
-0.00052256
0.000618523
-0.00058341
0.000765942
-0.000634167
0.000922889
-0.000674825
0.00108732
-0.000705644
0.00125723
-0.00072709
0.00143068
-0.00073978
0.00160587
-0.000744436
0.00178112
-0.000741851
0.00195494
-0.000732855
0.00212598
-0.000718291
0.00229309
-0.000698994
0.0024553
-0.000675777
0.00261182
-0.000649417
0.002762
-0.000620638
0.00290538
-0.000590097
0.00304162
-0.000558389
0.00317052
-0.000526047
0.003292
-0.000493541
0.00340605
-0.000461278
0.00351279
-0.000429606
0.00361237
-0.000398808
0.00370503
-0.000369116
0.00379105
-0.000340708
0.00387074
-0.000313715
0.00394443
-0.000288227
0.00401247
-0.000264295
0.00407522
-0.00024194
0.00413305
-0.000221151
0.00418631
-0.000201899
0.00423533
-0.000184134
0.00428046
-0.000167792
0.00432202
-0.000152798
0.00436028
-0.000139072
0.00439555
-0.000126526
0.00442806
-0.000115074
0.00445807
-0.000104628
0.00448579
-9.51041e-05
0.00451142
-8.64169e-05
-7.84813e-05
0.00453513
7.9352e-06
7.72548e-05
1.96836e-05
0.000128663
3.82313e-05
0.000107138
6.47942e-05
4.28759e-05
9.87696e-05
-4.53653e-05
0.000145127
-0.000145792
0.000203643
-0.000251954
0.000275543
-0.000357445
0.000361231
-0.000458173
0.000460545
-0.000551293
0.000572862
-0.000634877
0.00069717
-0.000707718
0.000832166
-0.000769163
0.000976342
-0.000819001
0.00112806
-0.000857366
0.00128564
-0.000884668
0.00144738
-0.000901523
0.00161165
-0.000908703
0.00177689
-0.000907087
0.00194165
-0.000897621
0.00210464
-0.000881284
0.00226471
-0.000859062
0.00242086
-0.000831924
0.00257225
-0.000800808
0.00271821
-0.0007666
0.00285822
-0.000730107
0.00299189
-0.00069206
0.00311896
-0.000653118
0.00323929
-0.000613867
0.00335283
-0.000574817
0.00345962
-0.000536401
0.0035598
-0.00049898
0.00365353
-0.000462846
0.00374105
-0.000428228
0.00382263
-0.000395294
0.00389856
-0.000364163
0.00396917
-0.000334904
0.00403478
-0.000307547
0.00409572
-0.000282088
0.00415231
-0.000258493
0.00420488
-0.000236706
0.00425374
-0.000216651
0.00429918
-0.000198241
0.00434149
-0.000181377
0.00438092
-0.000165957
0.00441772
-0.000151874
0.00445212
-0.000139024
0.00448431
-0.000127303
0.00451451
-0.000116608
-0.00010683
0.00454285
2.5551e-05
5.17038e-05
6.64452e-05
8.77685e-05
0.000112626
6.09569e-05
0.000162224
-6.72244e-06
0.000211173
-9.43134e-05
0.00026491
-0.00019953
0.000324806
-0.00031185
0.000392821
-0.00042546
0.000470439
-0.000535792
0.000558562
-0.000639415
0.000657527
-0.000733843
0.000767164
-0.000817355
0.000886872
-0.000888871
0.00101571
-0.000947841
0.0011525
-0.00099415
0.00129587
-0.00102804
0.00144438
-0.00105003
0.00159654
-0.00106086
0.00175089
-0.00106144
0.00190603
-0.00105276
0.00206067
-0.00103592
0.00221361
-0.001012
0.00236381
-0.000982124
0.00251037
-0.000947368
0.00265254
-0.000908771
0.00278972
-0.000867291
0.00292146
-0.000823795
0.00304741
-0.000779069
0.00316736
-0.000733818
0.0032812
-0.000688656
0.00338891
-0.00064411
0.00349055
-0.000600621
0.00358625
-0.000558547
0.00367619
-0.00051817
0.0037606
-0.000479703
0.00383973
-0.000443295
0.00391386
-0.000409039
0.0039833
-0.000376978
0.00404832
-0.000347116
0.00410925
-0.000319418
0.00416637
-0.000293824
0.00421996
-0.00027025
0.00427032
-0.000248597
0.0043177
-0.000228752
0.00436234
-0.000210598
0.00440447
-0.000194012
0.00444432
-0.000178872
0.00448208
-0.000165057
0.00451792
-0.000152447
-0.000140915
0.004552
4.87485e-05
2.95528e-06
0.00012421
1.23071e-05
0.00019892
-1.37526e-05
0.000263415
-7.12178e-05
0.000324303
-0.000155202
0.000381537
-0.000256763
0.000438587
-0.0003689
0.000498697
-0.00048557
0.00056459
-0.000601684
0.000638303
-0.000713129
0.000721164
-0.000816703
0.000813834
-0.000910025
0.0009164
-0.000991437
0.00102847
-0.00105991
0.00114926
-0.00111495
0.00127773
-0.00115651
0.00141263
-0.00118493
0.00155259
-0.00120083
0.00169621
-0.00120506
0.0018421
-0.00119865
0.00198891
-0.00118273
0.00213542
-0.0011585
0.00228048
-0.00112719
0.00242311
-0.00109
0.00256245
-0.00104812
0.00269783
-0.00100266
0.00282867
-0.000954639
0.00295457
-0.000904963
0.00307521
-0.000854463
0.00319042
-0.000803866
0.00330011
-0.000753798
0.00340428
-0.000704786
0.00350299
-0.000657261
0.00359639
-0.000611566
0.00368464
-0.000567962
0.00376798
-0.000526634
0.00384665
-0.000487702
0.0039209
-0.000451228
0.00399101
-0.000417224
0.00405725
-0.000385661
0.0041199
-0.000356475
0.00417923
-0.000329578
0.00423549
-0.000304859
0.00428893
-0.000282195
0.00433979
-0.000261452
0.00438827
-0.000242495
0.00443458
-0.000225185
0.00447891
-0.000209387
0.00452143
-0.000194966
0.0045623
-0.000181782
0.0045476
-2.47788e-05
3.10446e-09
0.00457117
-2.35776e-05
3.56407e-09
0.00459362
-2.24468e-05
4.01512e-09
0.004615
-2.13845e-05
4.44365e-09
0.00463538
-2.03878e-05
4.84285e-09
0.00465483
-1.94531e-05
5.21195e-09
0.0046734
-1.85769e-05
5.55384e-09
0.00469115
-1.77556e-05
5.87382e-09
0.00470813
-1.69857e-05
6.17889e-09
0.00472438
-1.62634e-05
6.47679e-09
0.00473996
-1.55845e-05
6.7751e-09
0.0047549
-1.49443e-05
7.08008e-09
0.00476923
-1.43372e-05
7.3958e-09
0.00478298
-1.37571e-05
7.72342e-09
0.00479617
-1.31966e-05
8.05998e-09
0.00480881
-1.2648e-05
8.39827e-09
0.0048209
-1.21037e-05
8.72742e-09
0.00483245
-1.15565e-05
9.03327e-09
0.00484344
-1.10015e-05
9.29911e-09
0.00485387
-1.04369e-05
9.50718e-09
0.00486372
-9.86442e-06
9.64038e-09
0.004873
-9.2904e-06
9.68406e-09
0.00488172
-8.72482e-06
9.62761e-09
0.00488989
-8.18016e-06
9.4661e-09
0.00489755
-7.66949e-06
9.20133e-09
0.00490475
-7.20414e-06
8.84096e-09
0.00491153
-6.7918e-06
8.39765e-09
0.00491796
-6.43527e-06
7.88786e-09
0.00492408
-6.13224e-06
7.32993e-09
0.00492995
-5.87612e-06
6.74218e-09
0.0049356
-5.65755e-06
6.14111e-09
0.00494106
-5.46618e-06
5.54015e-09
0.00494635
-5.29233e-06
4.94978e-09
0.00495147
-5.12805e-06
4.37761e-09
0.00495644
-4.96767e-06
3.82798e-09
0.00496124
-4.80776e-06
3.30266e-09
0.00496589
-4.64675e-06
2.80239e-09
0.00497037
-4.4844e-06
2.32744e-09
0.00497469
-4.32125e-06
1.8778e-09
0.00497884
-4.15822e-06
1.45352e-09
0.00498284
-3.99629e-06
1.05604e-09
0.00498668
-3.83636e-06
6.88001e-10
0.00499035
-3.67917e-06
3.5185e-10
0.00499388
-3.52528e-06
4.89328e-11
0.00499725
-3.37494e-06
-2.12806e-10
0.00500048
-3.22869e-06
-4.60792e-10
0.00500357
-3.08659e-06
-6.93111e-10
0.00500652
-2.94865e-06
-9.11257e-10
0.00500934
-2.81488e-06
-1.12178e-09
0.00501202
-2.6853e-06
-1.3342e-09
0.00501458
-2.55986e-06
-1.55593e-09
0.00501702
-2.4385e-06
-1.79439e-09
0.00501935
-2.32114e-06
-2.05469e-09
0.00502156
-2.20769e-06
-2.33977e-09
0.00502366
-2.09808e-06
-2.6473e-09
0.00502565
-1.99223e-06
-2.96797e-09
0.00502755
-1.89006e-06
-3.28738e-09
0.00502934
-1.79151e-06
-3.58653e-09
0.00503104
-1.69651e-06
-3.84912e-09
0.00503265
-1.60499e-06