/*--------------------------------*- C++ -*----------------------------------*\
| =========                 |                                                 |
| \\      /  F ield         | OpenFOAM: The Open Source CFD Toolbox           |
|  \\    /   O peration     | Version:  2412                                  |
|   \\  /    A nd           | Website:  www.openfoam.com                      |
|    \\/     M anipulation  |                                                 |
\*---------------------------------------------------------------------------*/
FoamFile
{
    version     2.0;
    format      ascii;
    arch        "LSB;label=32;scalar=64";
    class       volVectorField;
    location    "14";
    object      U;
}
// * * * * * * * * * * * * * * * * * * * * * * * * * * * * * * * * * * * * * //

dimensions      [0 1 -1 0 0 0 0];

internalField   nonuniform List<vector> 
63420
(
(0.0999997 4.3798e-07 0)
(0.099995 1.28128e-06 0)
(0.0999853 2.07404e-06 0)
(0.0999716 3.01816e-06 0)
(0.0999521 4.52852e-06 0)
(0.0999228 6.93426e-06 0)
(0.0998789 1.01582e-05 0)
(0.0998177 1.36745e-05 0)
(0.0997402 1.67661e-05 0)
(0.0996508 1.88663e-05 0)
(0.099556 1.97674e-05 0)
(0.0994614 1.96214e-05 0)
(0.0993714 1.87989e-05 0)
(0.0992879 1.77165e-05 0)
(0.0992109 1.67114e-05 0)
(0.0991394 1.59894e-05 0)
(0.0990715 1.56311e-05 0)
(0.0990057 1.56285e-05 0)
(0.0989404 1.5926e-05 0)
(0.0988747 1.64536e-05 0)
(0.0988078 1.71463e-05 0)
(0.0987392 1.79538e-05 0)
(0.0986687 1.88418e-05 0)
(0.0985962 1.97893e-05 0)
(0.0985215 2.0786e-05 0)
(0.0984446 2.18283e-05 0)
(0.0983654 2.29166e-05 0)
(0.0982839 2.40537e-05 0)
(0.0982001 2.52435e-05 0)
(0.0981139 2.64903e-05 0)
(0.0980253 2.77983e-05 0)
(0.097934 2.91716e-05 0)
(0.0978402 3.06144e-05 0)
(0.0977436 3.21303e-05 0)
(0.0976443 3.37232e-05 0)
(0.0975421 3.53968e-05 0)
(0.0974369 3.71547e-05 0)
(0.0973287 3.90008e-05 0)
(0.0972173 4.09388e-05 0)
(0.0971028 4.29726e-05 0)
(0.0969848 4.51064e-05 0)
(0.0968635 4.73442e-05 0)
(0.0967387 4.96904e-05 0)
(0.0966103 5.21495e-05 0)
(0.0964781 5.47263e-05 0)
(0.0963422 5.74258e-05 0)
(0.0962024 6.02531e-05 0)
(0.0960586 6.32137e-05 0)
(0.0959107 6.63136e-05 0)
(0.0957586 6.95591e-05 0)
(0.0956022 7.29572e-05 0)
(0.0954414 7.65169e-05 0)
(0.0952761 8.0252e-05 0)
(0.0951061 8.41913e-05 0)
(0.0949313 8.84068e-05 0)
(0.0999997 1.31394e-06 0)
(0.099995 3.84442e-06 0)
(0.0999854 6.22397e-06 0)
(0.0999716 9.05346e-06 0)
(0.0999522 1.35699e-05 0)
(0.099923 2.07571e-05 0)
(0.0998794 3.03893e-05 0)
(0.0998185 4.09026e-05 0)
(0.0997415 5.01591e-05 0)
(0.0996526 5.64667e-05 0)
(0.0995581 5.92008e-05 0)
(0.0994638 5.88094e-05 0)
(0.0993739 5.63942e-05 0)
(0.0992904 5.31955e-05 0)
(0.0992133 5.02192e-05 0)
(0.0991415 4.80803e-05 0)
(0.0990734 4.70215e-05 0)
(0.0990074 4.70207e-05 0)
(0.098942 4.7914e-05 0)
(0.0988761 4.94933e-05 0)
(0.0988091 5.15663e-05 0)
(0.0987405 5.39831e-05 0)
(0.09867 5.66411e-05 0)
(0.0985975 5.94785e-05 0)
(0.0985228 6.2464e-05 0)
(0.0984459 6.55865e-05 0)
(0.0983669 6.88476e-05 0)
(0.0982855 7.22555e-05 0)
(0.0982018 7.58216e-05 0)
(0.0981157 7.95585e-05 0)
(0.0980271 8.34789e-05 0)
(0.097936 8.75952e-05 0)
(0.0978423 9.19193e-05 0)
(0.0977458 9.64626e-05 0)
(0.0976467 0.000101236 0)
(0.0975446 0.000106252 0)
(0.0974396 0.000111519 0)
(0.0973316 0.000117051 0)
(0.0972204 0.000122858 0)
(0.097106 0.000128952 0)
(0.0969883 0.000135344 0)
(0.0968672 0.000142048 0)
(0.0967426 0.000149076 0)
(0.0966145 0.000156442 0)
(0.0964826 0.000164161 0)
(0.096347 0.000172246 0)
(0.0962075 0.000180713 0)
(0.096064 0.00018958 0)
(0.0959164 0.000198862 0)
(0.0957647 0.00020858 0)
(0.0956088 0.000218755 0)
(0.0954484 0.000229412 0)
(0.0952835 0.000240593 0)
(0.095114 0.000252382 0)
(0.0949397 0.00026499 0)
(0.0999997 2.18879e-06 0)
(0.099995 6.40574e-06 0)
(0.0999854 1.03725e-05 0)
(0.0999716 1.5078e-05 0)
(0.0999523 2.25658e-05 0)
(0.0999233 3.44698e-05 0)
(0.0998802 5.04307e-05 0)
(0.0998202 6.78748e-05 0)
(0.099744 8.32696e-05 0)
(0.0996561 9.38081e-05 0)
(0.0995623 9.84411e-05 0)
(0.0994685 9.78932e-05 0)
(0.0993788 9.39751e-05 0)
(0.0992951 8.87343e-05 0)
(0.0992178 8.38364e-05 0)
(0.0991456 8.03048e-05 0)
(0.0990772 7.85482e-05 0)
(0.0990108 7.85365e-05 0)
(0.0989451 8.00037e-05 0)
(0.098879 8.26091e-05 0)
(0.0988118 8.60362e-05 0)
(0.0987431 9.00376e-05 0)
(0.0986726 9.44435e-05 0)
(0.0986001 9.91514e-05 0)
(0.0985255 0.000104109 0)
(0.0984487 0.000109297 0)
(0.0983697 0.000114718 0)
(0.0982885 0.000120384 0)
(0.098205 0.000126315 0)
(0.0981191 0.000132531 0)
(0.0980307 0.000139053 0)
(0.0979399 0.000145902 0)
(0.0978464 0.000153095 0)
(0.0977503 0.000160654 0)
(0.0976514 0.000168596 0)
(0.0975496 0.00017694 0)
(0.097445 0.000185703 0)
(0.0973373 0.000194904 0)
(0.0972265 0.000204563 0)
(0.0971125 0.000214698 0)
(0.0969953 0.00022533 0)
(0.0968746 0.000236479 0)
(0.0967505 0.000248166 0)
(0.0966229 0.000260414 0)
(0.0964915 0.000273246 0)
(0.0963565 0.000286687 0)
(0.0962176 0.000300762 0)
(0.0960748 0.000315498 0)
(0.095928 0.000330925 0)
(0.095777 0.000347073 0)
(0.0956218 0.000363977 0)
(0.0954623 0.000381679 0)
(0.0952984 0.000400246 0)
(0.0951299 0.000419813 0)
(0.0949566 0.000440714 0)
(0.0999997 3.0618e-06 0)
(0.099995 8.96395e-06 0)
(0.0999854 1.45186e-05 0)
(0.0999717 2.10848e-05 0)
(0.0999524 3.14882e-05 0)
(0.0999238 4.80047e-05 0)
(0.0998814 7.01655e-05 0)
(0.0998225 9.44332e-05 0)
(0.0997477 0.000115923 0)
(0.0996611 0.000130729 0)
(0.0995684 0.000137367 0)
(0.0994753 0.000136806 0)
(0.0993859 0.00013153 0)
(0.0993021 0.000124367 0)
(0.0992244 0.000117628 0)
(0.0991517 0.000112743 0)
(0.0990827 0.000110293 0)
(0.0990158 0.00011025 0)
(0.0989496 0.000112256 0)
(0.0988832 0.000115846 0)
(0.0988158 0.000120584 0)
(0.098747 0.000126131 0)
(0.0986764 0.000132248 0)
(0.0986039 0.000138795 0)
(0.0985294 0.000145697 0)
(0.0984528 0.000152926 0)
(0.0983741 0.000160485 0)
(0.0982931 0.000168391 0)
(0.0982098 0.000176668 0)
(0.0981242 0.000185346 0)
(0.0980362 0.000194451 0)
(0.0979456 0.000204013 0)
(0.0978526 0.000214058 0)
(0.0977568 0.000224612 0)
(0.0976584 0.000235701 0)
(0.0975571 0.00024735 0)
(0.097453 0.000259585 0)
(0.0973458 0.00027243 0)
(0.0972356 0.000285913 0)
(0.0971222 0.000300059 0)
(0.0970056 0.000314897 0)
(0.0968857 0.000330455 0)
(0.0967623 0.000346762 0)
(0.0966354 0.00036385 0)
(0.0965049 0.000381751 0)
(0.0963707 0.000400498 0)
(0.0962328 0.000420127 0)
(0.096091 0.000440676 0)
(0.0959452 0.000462182 0)
(0.0957953 0.000484689 0)
(0.0956414 0.000508245 0)
(0.0954831 0.000532906 0)
(0.0953206 0.00055876 0)
(0.0951536 0.000585982 0)
(0.0949819 0.000615001 0)
(0.0999997 3.93235e-06 0)
(0.099995 1.15176e-05 0)
(0.0999854 1.8661e-05 0)
(0.0999717 2.70675e-05 0)
(0.0999526 4.0312e-05 0)
(0.0999244 6.13017e-05 0)
(0.099883 8.94904e-05 0)
(0.0998255 0.000120438 0)
(0.0997524 0.000147963 0)
(0.0996675 0.000167086 0)
(0.0995762 0.000175869 0)
(0.099484 0.000175485 0)
(0.0993948 0.000169045 0)
(0.099311 0.00016012 0)
(0.0992328 0.000151647 0)
(0.0991595 0.000145462 0)
(0.0990898 0.000142325 0)
(0.0990222 0.000142224 0)
(0.0989555 0.000144722 0)
(0.0988887 0.000149241 0)
(0.098821 0.000155234 0)
(0.0987521 0.00016227 0)
(0.0986814 0.000170052 0)
(0.098609 0.000178395 0)
(0.0985346 0.000187204 0)
(0.0984582 0.000196441 0)
(0.0983797 0.000206109 0)
(0.0982991 0.000216226 0)
(0.0982161 0.000226824 0)
(0.0981309 0.000237937 0)
(0.0980434 0.000249602 0)
(0.0979533 0.000261851 0)
(0.0978607 0.000274721 0)
(0.0977656 0.000288243 0)
(0.0976677 0.00030245 0)
(0.0975671 0.000317373 0)
(0.0974636 0.000333046 0)
(0.0973571 0.000349499 0)
(0.0972477 0.000366767 0)
(0.0971351 0.000384882 0)
(0.0970193 0.000403881 0)
(0.0969003 0.000423799 0)
(0.0967779 0.000444673 0)
(0.096652 0.000466543 0)
(0.0965226 0.000489449 0)
(0.0963896 0.000513434 0)
(0.0962529 0.000538543 0)
(0.0961124 0.000564821 0)
(0.095968 0.000592319 0)
(0.0958196 0.000621088 0)
(0.0956672 0.000651188 0)
(0.0955107 0.000682688 0)
(0.0953499 0.000715691 0)
(0.0951849 0.000750396 0)
(0.0950153 0.000787288 0)
(0.0999997 4.79993e-06 0)
(0.099995 1.40654e-05 0)
(0.0999855 2.2798e-05 0)
(0.0999718 3.30203e-05 0)
(0.0999528 4.90162e-05 0)
(0.0999252 7.43114e-05 0)
(0.0998848 0.00010832 0)
(0.099829 0.000145773 0)
(0.0997579 0.000179259 0)
(0.0996749 0.000202755 0)
(0.0995853 0.000213851 0)
(0.0994941 0.000213873 0)
(0.0994054 0.000206502 0)
(0.0993214 0.000196009 0)
(0.0992427 0.000185934 0)
(0.0991687 0.000178513 0)
(0.0990982 0.000174697 0)
(0.0990299 0.000174506 0)
(0.0989626 0.00017744 0)
(0.0988953 0.00018282 0)
(0.0988274 0.000189998 0)
(0.0987582 0.00019846 0)
(0.0986876 0.000207845 0)
(0.0986152 0.000217932 0)
(0.098541 0.000228601 0)
(0.0984649 0.000239807 0)
(0.0983867 0.000251545 0)
(0.0983065 0.00026384 0)
(0.098224 0.000276727 0)
(0.0981393 0.000290244 0)
(0.0980522 0.000304435 0)
(0.0979628 0.000319341 0)
(0.0978709 0.000335002 0)
(0.0977764 0.000351456 0)
(0.0976792 0.000368744 0)
(0.0975794 0.000386902 0)
(0.0974767 0.000405969 0)
(0.0973711 0.000425985 0)
(0.0972626 0.000446988 0)
(0.097151 0.000469019 0)
(0.0970363 0.00049212 0)
(0.0969184 0.000516335 0)
(0.0967972 0.000541708 0)
(0.0966726 0.000568286 0)
(0.0965446 0.000596118 0)
(0.096413 0.000625254 0)
(0.0962778 0.000655747 0)
(0.0961389 0.000687652 0)
(0.0959962 0.000721029 0)
(0.0958497 0.000755937 0)
(0.0956993 0.000792446 0)
(0.0955448 0.000830634 0)
(0.0953863 0.000870612 0)
(0.0952236 0.000912583 0)
(0.0950567 0.000957036 0)
(0.0999997 5.66377e-06 0)
(0.0999951 1.66061e-05 0)
(0.0999855 2.69279e-05 0)
(0.0999718 3.89381e-05 0)
(0.099953 5.75848e-05 0)
(0.099926 8.69966e-05 0)
(0.0998869 0.00012659 0)
(0.0998328 0.000170349 0)
(0.0997639 0.000209712 0)
(0.0996832 0.000237641 0)
(0.0995953 0.000251235 0)
(0.0995053 0.00025192 0)
(0.0994172 0.000243881 0)
(0.0993331 0.000232038 0)
(0.0992539 0.00022051 0)
(0.0991791 0.000211927 0)
(0.0991078 0.000207444 0)
(0.0990387 0.000207127 0)
(0.0989707 0.000210433 0)
(0.098903 0.000216598 0)
(0.0988347 0.000224882 0)
(0.0987654 0.000234694 0)
(0.0986948 0.000245615 0)
(0.0986225 0.000257384 0)
(0.0985486 0.00026986 0)
(0.0984728 0.000282985 0)
(0.098395 0.000296752 0)
(0.0983152 0.000311184 0)
(0.0982333 0.000326319 0)
(0.0981492 0.000342204 0)
(0.0980628 0.000358884 0)
(0.0979741 0.000376406 0)
(0.0978829 0.000394818 0)
(0.0977892 0.000414162 0)
(0.0976929 0.000434485 0)
(0.097594 0.00045583 0)
(0.0974923 0.00047824 0)
(0.0973878 0.000501762 0)
(0.0972804 0.000526441 0)
(0.09717 0.000552323 0)
(0.0970566 0.000579457 0)
(0.09694 0.000607893 0)
(0.0968202 0.000637683 0)
(0.0966971 0.00066888 0)
(0.0965707 0.000701541 0)
(0.0964408 0.000735723 0)
(0.0963074 0.000771487 0)
(0.0961704 0.000808897 0)
(0.0960298 0.000848017 0)
(0.0958855 0.000888919 0)
(0.0957374 0.000931676 0)
(0.0955854 0.000976372 0)
(0.0954295 0.00102312 0)
(0.0952696 0.00107209 0)
(0.0951057 0.0011237 0)
(0.0947506 9.31064e-05 -4.60122e-24)
(0.0945621 9.80661e-05 -4.68902e-24)
(0.094364 0.000103316 -3.19196e-26)
(0.0941557 0.000109064 1.44018e-23)
(0.0939365 0.000115199 -4.77085e-24)
(0.0937056 0.000121752 -4.90818e-24)
(0.0934621 0.000128775 -1.51082e-23)
(0.0932052 0.000136312 1.50024e-23)
(0.092934 0.000144409 5.13192e-24)
(0.0926472 0.000153115 0)
(0.0923439 0.000162482 5.30012e-24)
(0.0920228 0.000172567 -5.39069e-24)
(0.0916824 0.000183433 4.43351e-23)
(0.0913215 0.000195149 -9.50122e-23)
(0.0909383 0.000207795 5.07816e-23)
(0.0905312 0.000221463 4.1142e-23)
(0.0900982 0.000236259 5.27937e-23)
(0.0896372 0.000252315 -6.045e-24)
(0.0891458 0.000269783 6.17627e-24)
(0.0886214 0.000288845 -6.31519e-24)
(0.088061 0.000309718 0)
(0.087461 0.000332662 6.61844e-24)
(0.0868176 0.000357983 -6.78415e-24)
(0.0861263 0.000386045 0)
(0.0853817 0.000417274 -7.14776e-24)
(0.0845778 0.00045217 0)
(0.0837076 0.00049132 -7.56064e-24)
(0.0827629 0.000535414 -1.26715e-22)
(0.0817344 0.000585268 1.34553e-22)
(0.0806108 0.000641854 -1.35102e-22)
(0.0793795 0.000706336 1.34896e-22)
(0.0780251 0.000780124 0)
(0.0765298 0.000864935 0)
(0.0748723 0.000962869 1.65518e-22)
(0.0730275 0.0010765 -1.55737e-22)
(0.0709651 0.00120899 0)
(0.0686486 0.00136412 0)
(0.0660344 0.00154635 0)
(0.0630708 0.00176067 0)
(0.0596965 0.00201216 0)
(0.0558421 0.00230505 0)
(0.0514318 0.0026409 0)
(0.0463908 0.00301546 0)
(0.040658 0.00341369 0)
(0.0342123 0.00380221 -1.54069e-23)
(0.0271124 0.00411856 -5.29338e-22)
(0.0195432 0.00425813 5.28544e-22)
(0.0118919 0.00406034 5.74672e-22)
(0.00509964 0.00327837 -5.7381e-22)
(0.0010416 0.00152757 0)
(0.0947594 0.000279042 -4.6539e-24)
(0.0945712 0.00029392 -9.48923e-24)
(0.0943734 0.000309815 -4.97081e-24)
(0.0941654 0.00032692 4.63511e-24)
(0.0939465 0.00034522 -4.83621e-24)
(0.093716 0.000364813 3.46473e-23)
(0.0934729 0.000385825 -5.44131e-23)
(0.0932165 0.000408382 5.05258e-24)
(0.0929458 0.000432619 6.74197e-23)
(0.0926597 0.000458681 -9.31158e-23)
(0.092357 0.000486726 -9.09047e-23)
(0.0920366 0.000516923 8.01021e-23)
(0.0916972 0.000549462 0)
(0.0913372 0.000584551 5.59176e-24)
(0.090955 0.000622429 -1.70869e-23)
(0.0905491 0.000663369 -1.93746e-22)
(0.0901173 0.000707699 1.85926e-22)
(0.0896577 0.000755808 -1.97645e-22)
(0.0891679 0.000808158 -1.85558e-23)
(0.0886453 0.000865291 6.32904e-24)
(0.0880867 0.000927861 0)
(0.0874889 0.000996643 -6.63559e-24)
(0.0868479 0.00107256 -2.13825e-22)
(0.0861593 0.0011567 4.46838e-22)
(0.0854178 0.00125034 2.46493e-22)
(0.0846175 0.00135498 -4.64903e-22)
(0.0837516 0.00147236 5.00694e-22)
(0.0828119 0.00160457 -5.08064e-22)
(0.0817893 0.00175403 -8.06372e-24)
(0.080673 0.00192366 0)
(0.0794503 0.00211692 0)
(0.0781066 0.00233803 0)
(0.0766245 0.0025921 0)
(0.0749834 0.00288539 -9.59116e-24)
(0.0731592 0.00322555 -6.50813e-22)
(0.0711227 0.00362194 -2.7831e-23)
(0.0688393 0.00408578 6.7688e-22)
(0.0662675 0.00463026 7.37994e-22)
(0.0633581 0.00527001 -7.37016e-22)
(0.0600533 0.00601991 -2.45037e-23)
(0.056287 0.00689213 -2.56155e-23)
(0.0519873 0.00789073 -8.84309e-22)
(0.0470815 0.0090023 8.5517e-22)
(0.0415078 0.0101812 -2.91729e-23)
(0.0352371 0.0113272 1.55146e-23)
(0.0283081 0.0122539 -1.07626e-21)
(0.0208676 0.0126496 1.07588e-21)
(0.0132382 0.0120374 -2.24634e-21)
(0.00623239 0.00969388 2.20879e-21)
(0.00150252 0.00448453 -2.26343e-21)
(0.0947772 0.000464006 -2.75349e-23)
(0.0945894 0.00048877 -9.65463e-24)
(0.0943921 0.000515277 3.72599e-23)
(0.0941847 0.000543587 -7.66172e-23)
(0.0939665 0.000573908 1.6393e-22)
(0.0937367 0.000606411 -7.76499e-23)
(0.0934945 0.000641282 1.42191e-26)
(0.0932391 0.000678725 1.00776e-23)
(0.0929695 0.000718963 1.75673e-22)
(0.0926846 0.000762237 -1.65248e-22)
(0.0923834 0.000808809 0)
(0.0920646 0.000858964 1.46519e-26)
(0.0917268 0.000913015 0)
(0.0913688 0.000971314 1.92065e-22)
(0.0909888 0.00103426 -1.69298e-22)
(0.0905852 0.0011023 -3.64883e-22)
(0.0901561 0.001176 2.02199e-23)
(0.0896994 0.001256 -3.84142e-22)
(0.0892128 0.00134307 1.24163e-23)
(0.0886936 0.00143812 -4.11321e-22)
(0.088139 0.00154223 4.23921e-22)
(0.0875456 0.00165671 -4.31919e-22)
(0.0869096 0.00178307 4.45161e-22)
(0.0862265 0.00192315 1.401e-23)
(0.0854915 0.00207904 -1.43938e-23)
(0.0846987 0.00225325 1.48021e-23)
(0.0838415 0.00244868 -4.95848e-22)
(0.0829121 0.00266876 5.11113e-22)
(0.0819018 0.00291754 5.43957e-22)
(0.0808002 0.0031998 -5.27262e-22)
(0.0795954 0.00352131 0)
(0.0782735 0.00388898 0)
(0.0768182 0.00431125 1.85427e-23)
(0.0752106 0.00479838 1.27839e-21)
(0.0734281 0.0053629 3.12219e-23)
(0.0714443 0.00602005 -1.28715e-21)
(0.0692278 0.00678805 0)
(0.0667414 0.00768814 -2.25222e-23)
(0.0639413 0.00874375 1.57005e-21)
(0.0607763 0.00997829 -3.13558e-21)
(0.0571875 0.0114103 3.32666e-21)
(0.0531099 0.0130444 1.01794e-22)
(0.0484756 0.0148561 -1.73058e-21)
(0.0432208 0.0167675 -1.87654e-21)
(0.0373006 0.0186115 1.93394e-21)
(0.0307121 0.0200816 1.50155e-24)
(0.0235253 0.0206663 -3.2932e-23)
(0.0159341 0.0195825 2.16925e-21)
(0.00848048 0.0156784 -2.10056e-21)
(0.0023885 0.0071861 -2.10093e-21)
(0.0948037 0.000647316 1.8144e-23)
(0.0946165 0.000681809 -9.20552e-24)
(0.0944201 0.000718652 1.95431e-26)
(0.0942136 0.000758041 9.46864e-24)
(0.0939964 0.000800221 -1.9636e-26)
(0.0937678 0.000845434 1.57234e-22)
(0.093527 0.000893943 -2.97091e-22)
(0.0932731 0.000946036 1.59655e-22)
(0.0930052 0.00100203 -1.02188e-23)
(0.0927223 0.00106225 1.88827e-22)
(0.0924233 0.00112707 -1.67959e-22)
(0.0921069 0.0011969 -3.48461e-22)
(0.0917719 0.00127216 7.03545e-22)
(0.0914168 0.00135335 -7.17313e-22)
(0.0910402 0.00144104 7.31756e-22)
(0.0906403 0.00153586 -7.35331e-22)
(0.0902153 0.00163858 -3.89263e-22)
(0.0897631 0.00175012 2.27051e-26)
(0.0892815 0.00187156 0)
(0.0887679 0.00200417 -4.00556e-22)
(0.0882195 0.00214947 4.13131e-22)
(0.087633 0.00230927 0)
(0.0870048 0.00248571 -8.92069e-22)
(0.0863306 0.00268131 8.77595e-22)
(0.0856058 0.00289903 1.45307e-23)
(0.0848248 0.00314233 -3.69834e-26)
(0.0839814 0.00341526 1.53592e-23)
(0.0830682 0.00372256 0)
(0.0820772 0.00406985 -5.27064e-26)
(0.0809987 0.00446377 0)
(0.0798218 0.00491226 -1.74457e-23)
(0.0785339 0.00542486 1.18005e-21)
(0.0771203 0.00601313 -1.17973e-21)
(0.0755642 0.00669111 -1.95229e-23)
(0.073846 0.00747588 4.04287e-23)
(0.071943 0.00838802 -1.39466e-21)
(0.0698287 0.00945205 1.35131e-21)
(0.0674725 0.0106962 2.29117e-23)
(0.0648384 0.0121513 -3.60173e-25)
(0.061885 0.0138473 2.44762e-23)
(0.0585645 0.0158065 -1.68256e-21)
(0.0548222 0.0180313 3.40274e-21)
(0.0505969 0.0204828 -1.77452e-21)
(0.0458223 0.023049 1.83807e-21)
(0.0404294 0.0254972 -1.92425e-21)
(0.0343527 0.0274087 -3.82712e-21)
(0.0275408 0.02809 7.80797e-21)
(0.0199952 0.0264704 -3.95288e-21)
(0.0118912 0.0210083 0)
(0.00370511 0.00951637 -3.71376e-21)
(0.0948387 0.000828302 -8.99924e-24)
(0.0946525 0.000872281 -3.67533e-23)
(0.0944571 0.000919245 1.11406e-22)
(0.0942519 0.000969465 -1.50409e-22)
(0.0940362 0.00102324 6.62406e-23)
(0.0938093 0.00108088 9.71135e-24)
(0.0935704 0.00114272 -9.87226e-24)
(0.0933187 0.00120915 -2.4692e-26)
(0.0930533 0.00128055 1.02168e-23)
(0.0927731 0.00135736 -2.07783e-23)
(0.0924771 0.00144006 -3.41846e-22)
(0.0921642 0.00152915 3.52798e-22)
(0.091833 0.0016252 -3.44505e-22)
(0.0914822 0.00172885 3.55627e-22)
(0.0911102 0.00184081 0)
(0.0907155 0.00196191 -2.50642e-26)
(0.0902962 0.00209315 0)
(0.0898504 0.00223571 -3.84063e-22)
(0.0893759 0.00239096 4.09018e-22)
(0.0888701 0.00256055 -1.2853e-23)
(0.0883305 0.00274643 -8.66393e-22)
(0.0877539 0.00295091 8.53604e-22)
(0.0871368 0.00317672 -1.38849e-23)
(0.0864754 0.0034271 0)
(0.0857651 0.0037058 0)
(0.0850009 0.00401722 -9.95695e-22)
(0.0841771 0.00436652 9.65446e-22)
(0.0832871 0.00475972 0)
(0.0823234 0.00520391 -3.31388e-23)
(0.0812775 0.0057075 0)
(0.0801399 0.00628046 1.77518e-23)
(0.0788996 0.00693478 -1.83022e-23)
(0.0775442 0.00768489 -1.90669e-23)
(0.0760598 0.00854823 1.96625e-23)
(0.0744305 0.00954585 1.29475e-21)
(0.0726387 0.010703 -1.33631e-21)
(0.0706645 0.0120493 2.90839e-21)
(0.0684857 0.0136185 -2.91028e-21)
(0.0660771 0.0154468 3.09355e-21)
(0.0634101 0.0175682 9.14558e-23)
(0.0604514 0.0200059 -3.26246e-21)
(0.0571603 0.0227563 -2.60916e-23)
(0.053485 0.0257638 1.28811e-24)
(0.0493562 0.0288816 1.71104e-24)
(0.044676 0.0318163 2.26558e-24)
(0.0392997 0.0340522 -5.65951e-23)
(0.033014 0.034747 -2.59546e-23)
(0.0255501 0.0325835 -2.46491e-23)
(0.0166051 0.025647 0)
(0.00547704 0.0114675 7.76117e-24)
(0.0948822 0.00100636 -4.46577e-23)
(0.0946972 0.0010596 2.68632e-23)
(0.0945033 0.00111649 9.18871e-24)
(0.0942998 0.00117733 1.4102e-22)
(0.0940861 0.00124249 -1.41075e-22)
(0.0938615 0.00131236 1.45903e-22)
(0.0936252 0.00138735 -3.23848e-22)
(0.0933765 0.00146792 4.6098e-22)
(0.0931143 0.00155455 -3.22881e-22)
(0.0928378 0.00164778 -3.34854e-22)
(0.0925459 0.00174817 -1.67636e-23)
(0.0922374 0.00185635 6.79862e-22)
(0.0919113 0.00197302 -7.16042e-22)
(0.091566 0.00209897 3.33957e-22)
(0.0912003 0.00223507 3.60328e-22)
(0.0908125 0.00238235 3.76618e-22)
(0.0904008 0.00254203 -2.89436e-23)
(0.0899635 0.00271557 7.67587e-22)
(0.0894984 0.00290466 7.92576e-22)
(0.0890033 0.00311131 1.99867e-23)
(0.0884755 0.00333792 -8.40227e-22)
(0.0879122 0.00358731 0)
(0.0873102 0.00386283 0)
(0.0866659 0.00416841 -9.36703e-22)
(0.0859754 0.00450861 9.2325e-22)
(0.085234 0.00488878 9.94763e-22)
(0.0844368 0.00531515 -9.96236e-22)
(0.0835779 0.00579501 0)
(0.082651 0.00633689 1.11285e-21)
(0.0816489 0.00695088 -1.115e-21)
(0.0805637 0.00764892 0)
(0.0793867 0.00844524 -2.41537e-21)
(0.0781082 0.00935685 2.43773e-21)
(0.0767179 0.0104041 -2.01586e-23)
(0.0752047 0.0116113 -2.69886e-21)
(0.0735573 0.013007 2.7239e-21)
(0.0717638 0.0146243 0)
(0.0698125 0.0164998 3.06358e-21)
(0.0676916 0.0186707 -3.0447e-21)
(0.0653886 0.0211697 2.47025e-23)
(0.0628883 0.0240135 3.36791e-21)
(0.0601682 0.0271844 -6.75964e-21)
(0.0571902 0.0306015 1.7209e-23)
(0.0538851 0.0340772 3.59356e-23)
(0.0501277 0.0372593 3.51191e-21)
(0.045691 0.039556 3.92772e-24)
(0.0401819 0.0400267 -3.01057e-21)
(0.0329858 0.0372095 3.08628e-21)
(0.0230807 0.0289807 0)
(0.00796223 0.0127413 2.7192e-23)
(0.0949337 0.00118068 8.796e-24)
(0.0947505 0.00124269 8.10163e-23)
(0.0945587 0.001309 -7.2249e-23)
(0.0943577 0.00138 9.27221e-24)
(0.0941467 0.00145609 1.42499e-22)
(0.0939252 0.00153773 -1.42727e-22)
(0.0936924 0.00162541 -3.05681e-22)
(0.0934475 0.00171967 4.62035e-24)
(0.0931896 0.00182107 -5.63341e-24)
(0.0929178 0.00193026 3.39394e-22)
(0.0926312 0.0020479 -3.3142e-22)
(0.0923287 0.00217475 7.03221e-22)
(0.0920091 0.00231164 -3.50377e-22)
(0.0916711 0.0024595 1.13232e-23)
(0.0913135 0.00261941 1.15862e-23)
(0.0909347 0.00279258 7.66287e-22)
(0.090533 0.0029805 -4.93855e-24)
(0.0901069 0.00318489 7.99823e-22)
(0.0896543 0.00340782 1.27824e-23)
(0.0891731 0.00365169 0)
(0.088661 0.00391936 0)
(0.0881154 0.00421422 -8.9745e-22)
(0.0875336 0.00454027 8.99718e-22)
(0.0869124 0.00490217 0)
(0.0862483 0.00530537 1.51388e-23)
(0.0855374 0.00575621 0)
(0.0847757 0.00626209 -1.04581e-21)
(0.0839584 0.00683162 2.12939e-21)
(0.0830804 0.00747488 -1.08366e-21)
(0.0821363 0.00820373 -2.29766e-21)
(0.0811202 0.00903214 -7.78015e-23)
(0.0800261 0.00997666 -8.22216e-23)
(0.0788475 0.0110569 -8.65728e-23)
(0.0775786 0.012296 2.58586e-21)
(0.0762137 0.013721 2.77707e-21)
(0.0747483 0.0153631 -2.78368e-21)
(0.0731797 0.0172567 0)
(0.0715075 0.0194382 3.08622e-21)
(0.0697342 0.0219405 -3.09339e-21)
(0.0678644 0.0247862 -3.28986e-21)
(0.0659027 0.0279722 3.27174e-21)
(0.0638471 0.0314482 2.67758e-23)
(0.0616769 0.0350836 3.29517e-21)
(0.0593307 0.0386239 -1.07014e-22)
(0.0566694 0.041636 -3.25603e-21)
(0.0534108 0.043453 2.48427e-23)
(0.049034 0.0431069 0)
(0.0426635 0.0391955 -1.96883e-23)
(0.032398 0.029807 -9.02885e-22)
(0.0128393 0.0126814 4.43568e-22)
(-0.000250738 0.000320601 0)
(-0.00100977 0.000547536 3.09902e-22)
(-0.00200431 0.000519908 -3.10367e-22)
(-0.00281458 0.000352441 -3.02565e-22)
(-0.00323309 0.00011098 3.0302e-22)
(-0.00318068 -0.000162765 -9.09241e-24)
(-0.00263324 -0.000443678 0)
(-0.00159219 -0.000717018 0)
(-7.82522e-05 -0.000971053 0)
(0.0018695 -0.00119865 0)
(0.00420364 -0.00139806 0)
(0.0068747 -0.00156761 0)
(0.00983058 -0.00170698 0)
(0.013019 -0.00181687 0)
(0.0163893 -0.00189866 0)
(0.0198931 -0.00195421 5.34044e-23)
(0.0234854 -0.00198566 -5.03671e-23)
(0.0271248 -0.00199536 0)
(0.0307739 -0.00198577 0)
(0.0343995 -0.00195933 -2.5355e-23)
(0.0379726 -0.00191847 2.53938e-23)
(0.0414682 -0.00186554 -1.42756e-23)
(0.0448656 -0.00180277 8.52116e-25)
(0.0481478 -0.00173223 0)
(0.0513012 -0.00165582 4.20701e-25)
(0.0543158 -0.00157524 0)
(0.0571844 -0.00149203 0)
(0.0599025 -0.00140755 0)
(0.0624681 -0.00132298 -7.68777e-26)
(0.0648811 -0.00123934 0)
(0.0671434 -0.00115749 1.94634e-25)
(0.0692582 -0.00107812 -2.30976e-25)
(0.0712301 -0.00100179 2.55557e-25)
(0.0730647 -0.000928945 -2.51703e-24)
(0.0747681 -0.000859878 2.52763e-24)
(0.0763473 -0.000794797 1.97666e-24)
(0.0778093 -0.00073381 -4.18818e-24)
(0.0791615 -0.000676948 2.20751e-24)
(0.0804114 -0.000624169 2.56546e-25)
(0.0815662 -0.000575379 -2.4416e-25)
(0.0826331 -0.000530436 0)
(0.083619 -0.000489163 -2.15867e-25)
(0.0845304 -0.000451359 9.83514e-25)
(0.0853735 -0.000416806 -9.69622e-25)
(0.0861541 -0.000385278 1.70767e-25)
(0.0868776 -0.000356545 -4.57342e-25)
(0.0875491 -0.000330379 1.599e-25)
(0.0881731 -0.000306558 2.51001e-25)
(0.0887537 -0.00028487 -1.23083e-25)
(0.0892948 -0.000265111 1.02493e-25)
(-0.000312884 0.000921934 -1.18965e-21)
(-0.00109132 0.00155876 -1.29201e-21)
(-0.00194102 0.00147187 1.27339e-21)
(-0.00254758 0.000980194 -5.97604e-22)
(-0.00275305 0.00027266 5.98941e-22)
(-0.00250149 -0.000531489 9.15544e-24)
(-0.00178338 -0.00135555 -1.78184e-23)
(-0.000603032 -0.00215999 -5.34038e-22)
(0.00102125 -0.00290371 5.17844e-22)
(0.00304873 -0.00357482 -1.47117e-23)
(0.00543341 -0.00416377 -1.35245e-23)
(0.0081308 -0.00466497 3.6814e-22)
(0.0110921 -0.00507749 -3.6863e-22)
(0.0142683 -0.0054033 -2.91137e-22)
(0.0176117 -0.00564628 3.70552e-23)
(0.021077 -0.00581174 2.54809e-22)
(0.0246217 -0.00590594 -3.13382e-24)
(0.0282067 -0.00593571 -5.50712e-24)
(0.0317966 -0.00590821 0)
(0.03536 -0.00583067 0)
(0.0388693 -0.00571023 0)
(0.0423008 -0.00555381 -1.12881e-24)
(0.0456348 -0.00536799 4.59523e-23)
(0.0488549 -0.00515894 -5.00969e-23)
(0.0519486 -0.00493229 2.24745e-23)
(0.054906 -0.00469312 -1.63657e-23)
(0.0577205 -0.004446 -9.14008e-24)
(0.0603877 -0.00419499 2.57313e-24)
(0.0629058 -0.00394363 7.70757e-26)
(0.0652749 -0.00369495 2.19843e-25)
(0.0674967 -0.0034515 -1.95059e-25)
(0.0695746 -0.00321539 6.39048e-25)
(0.0715128 -0.00298827 -7.96865e-24)
(0.0733169 -0.00277144 1.70112e-23)
(0.0749928 -0.00256582 -8.32669e-24)
(0.0765474 -0.00237202 8.01633e-25)
(0.0779874 -0.00219037 -2.74869e-25)
(0.07932 -0.00202097 0)
(0.0805525 -0.0018637 4.17409e-24)
(0.081692 -0.00171827 -3.70321e-24)
(0.0827453 -0.00158429 -3.07705e-24)
(0.0837192 -0.00146121 4.15308e-24)
(0.0846201 -0.00134846 -2.00822e-25)
(0.0854539 -0.00124538 -8.63554e-25)
(0.0862264 -0.00115131 1.56659e-24)
(0.0869428 -0.00106555 1.55947e-25)
(0.0876079 -0.000987448 9.47483e-25)
(0.0882263 -0.00091633 6.51601e-26)
(0.088802 -0.000851563 -2.65704e-25)
(0.0893387 -0.000792537 -3.17017e-25)
(-0.000423239 0.00140502 -1.25039e-21)
(-0.00121528 0.00232251 1.35684e-21)
(-0.00176219 0.00217062 -1.31629e-21)
(-0.00197042 0.00138892 -2.00982e-23)
(-0.00176816 0.000271456 -5.68169e-25)
(-0.00113736 -0.00102011 -1.17503e-21)
(-9.64289e-05 -0.00233508 1.2136e-21)
(0.00134811 -0.00361322 1.08916e-21)
(0.00317778 -0.00480493 -5.52405e-23)
(0.00534708 -0.00588647 -1.91331e-21)
(0.00782265 -0.00683734 1.78798e-21)
(0.0105651 -0.00764871 -8.35419e-22)
(0.0135317 -0.00831869 -1.16308e-23)
(0.0166799 -0.00884968 0)
(0.0199681 -0.00924736 5.44195e-22)
(0.0233565 -0.00951978 -7.9938e-23)
(0.0268075 -0.00967662 -4.57127e-22)
(0.0302864 -0.00972867 1.14629e-23)
(0.0337616 -0.00968726 0)
(0.0372048 -0.00956396 0)
(0.0405913 -0.00937027 9.16421e-23)
(0.0438996 -0.00911734 -8.90426e-23)
(0.0471118 -0.00881588 -5.2952e-23)
(0.0502133 -0.00847593 5.6252e-23)
(0.0531924 -0.00810672 1.16012e-24)
(0.0560405 -0.00771658 -7.9634e-25)
(0.0587514 -0.007313 4.94378e-25)
(0.0613213 -0.00690265 -1.9529e-24)
(0.0637487 -0.00649136 2.20242e-24)
(0.0660337 -0.00608414 7.0889e-24)
(0.0681782 -0.00568521 -7.4247e-24)
(0.0701851 -0.00529806 -4.09223e-25)
(0.0720589 -0.00492546 -1.45049e-23)
(0.0738045 -0.00456954 2.94028e-23)
(0.0754278 -0.00423185 -1.59252e-23)
(0.076935 -0.00391342 -8.51856e-24)
(0.0783327 -0.00361483 7.53343e-24)
(0.0796277 -0.00333625 0)
(0.0808268 -0.00307751 -4.04078e-26)
(0.0819366 -0.00283818 0)
(0.0829638 -0.00261758 -6.67596e-24)
(0.0839146 -0.00241487 6.23599e-24)
(0.0847951 -0.0022291 -3.60171e-25)
(0.085611 -0.00205921 -2.28848e-26)
(0.0863677 -0.00190411 -2.47044e-24)
(0.0870701 -0.00176268 4.4046e-24)
(0.087723 -0.00163382 -2.25269e-24)
(0.0883305 -0.00151646 8.96409e-25)
(0.0888966 -0.00140954 -7.12446e-25)
(0.0894248 -0.00131204 -2.2278e-25)
(-0.000546627 0.00166464 -2.7445e-21)
(-0.00128253 0.00270213 0)
(-0.00134366 0.00247695 2.77749e-21)
(-0.000975612 0.00145131 -5.51933e-21)
(-0.000219264 -4.50358e-06 2.76198e-21)
(0.000921912 -0.00167311 1.21558e-21)
(0.00241924 -0.00339169 -1.27585e-21)
(0.00421453 -0.00507009 1.12854e-21)
(0.00630322 -0.00664928 -2.20099e-21)
(0.0086558 -0.00808606 1.0556e-21)
(0.0112432 -0.00935501 1.49762e-23)
(0.0140341 -0.0104435 5.77452e-25)
(0.0169954 -0.0113472 1.18304e-23)
(0.0200937 -0.0120674 -6.62685e-22)
(0.0232958 -0.0126106 6.42491e-22)
(0.0265695 -0.0129862 1.6796e-23)
(0.0298838 -0.0132064 -7.0254e-24)
(0.03321 -0.013285 3.65708e-22)
(0.0365216 -0.0132367 -3.65381e-22)
(0.0397946 -0.0130766 -4.5767e-24)
(0.043008 -0.0128202 0)
(0.0461433 -0.0124822 3.4439e-25)
(0.049185 -0.0120771 0)
(0.0521206 -0.0116185 1.89712e-24)
(0.0549398 -0.0111191 2.61422e-25)
(0.0576353 -0.0105901 8.03872e-25)
(0.0602019 -0.0100419 -3.00467e-23)
(0.0626362 -0.00948362 2.97508e-23)
(0.0649371 -0.00892328 0)
(0.0671048 -0.0083678 3.55146e-24)
(0.0691412 -0.00782307 -3.4894e-24)
(0.0710492 -0.0072939 0)
(0.0728328 -0.00678417 -1.10562e-25)
(0.0744966 -0.00629687 1.33097e-23)
(0.076046 -0.0058342 -2.68961e-23)
(0.0774869 -0.00539762 2.76415e-23)
(0.0788253 -0.00498797 -2.79455e-23)
(0.0800673 -0.00460553 2.78098e-23)
(0.0812192 -0.00425013 -1.3848e-23)
(0.0822872 -0.00392119 -6.40199e-24)
(0.0832773 -0.00361785 5.62922e-24)
(0.0841954 -0.00333896 3.46191e-25)
(0.0850471 -0.00308324 5.35325e-24)
(0.0858375 -0.00284928 -1.08777e-23)
(0.0865717 -0.00263558 4.89528e-24)
(0.0872543 -0.00244063 2.50217e-26)
(0.0878897 -0.00226294 -2.55485e-25)
(0.0884817 -0.00210102 -2.01213e-26)
(0.089034 -0.00195344 2.06723e-25)
(0.0895499 -0.00181875 -3.51464e-25)
(-0.00056841 0.00162355 -2.07133e-24)
(-0.00106622 0.00262005 -2.58855e-23)
(-0.000492862 0.00230132 -2.48253e-23)
(0.000586404 0.00109886 -2.37905e-23)
(0.00203089 -0.000587107 -4.4838e-23)
(0.00376001 -0.00250934 -8.18335e-25)
(0.00574021 -0.00452324 2.00982e-23)
(0.0079242 -0.00650613 -1.97273e-23)
(0.0102957 -0.0083836 -1.85496e-23)
(0.0128367 -0.010105 2.07135e-21)