/*--------------------------------*- C++ -*----------------------------------*\
| =========                 |                                                 |
| \\      /  F ield         | OpenFOAM: The Open Source CFD Toolbox           |
|  \\    /   O peration     | Version:  2412                                  |
|   \\  /    A nd           | Website:  www.openfoam.com                      |
|    \\/     M anipulation  |                                                 |
\*---------------------------------------------------------------------------*/
FoamFile
{
    version     2.0;
    format      ascii;
    arch        "LSB;label=32;scalar=64";
    class       volVectorField;
    location    "14";
    object      vorticity;
}
// * * * * * * * * * * * * * * * * * * * * * * * * * * * * * * * * * * * * * //

dimensions      [0 0 -1 0 0 0 0];

internalField   nonuniform List<vector> 
63420
(
(0 0 5.84508e-06)
(0 0 5.6031e-06)
(0 0 6.05402e-06)
(0 0 8.74052e-06)
(0 0 1.3922e-05)
(0 0 1.93535e-05)
(0 0 2.13921e-05)
(0 0 1.74422e-05)
(0 0 7.61395e-06)
(0 0 -5.48217e-06)
(0 0 -1.8266e-05)
(0 0 -2.7822e-05)
(0 0 -3.2778e-05)
(0 0 -3.32918e-05)
(0 0 -3.04962e-05)
(0 0 -2.58393e-05)
(0 0 -2.06013e-05)
(0 0 -1.56687e-05)
(0 0 -1.15137e-05)
(0 0 -8.28549e-06)
(0 0 -5.93137e-06)
(0 0 -4.30237e-06)
(0 0 -3.22506e-06)
(0 0 -2.54119e-06)
(0 0 -2.12382e-06)
(0 0 -1.87941e-06)
(0 0 -1.74316e-06)
(0 0 -1.67232e-06)
(0 0 -1.63978e-06)
(0 0 -1.62887e-06)
(0 0 -1.62968e-06)
(0 0 -1.63637e-06)
(0 0 -1.64563e-06)
(0 0 -1.65556e-06)
(0 0 -1.66508e-06)
(0 0 -1.67358e-06)
(0 0 -1.6807e-06)
(0 0 -1.68621e-06)
(0 0 -1.68997e-06)
(0 0 -1.69187e-06)
(0 0 -1.69181e-06)
(0 0 -1.68971e-06)
(0 0 -1.68546e-06)
(0 0 -1.67895e-06)
(0 0 -1.67008e-06)
(0 0 -1.65867e-06)
(0 0 -1.64449e-06)
(0 0 -1.62707e-06)
(0 0 -1.60501e-06)
(0 0 -1.57366e-06)
(0 0 -1.51706e-06)
(0 0 -1.38154e-06)
(0 0 -9.92112e-07)
(0 0 2.02888e-07)
(0 4.56564e-23 3.88293e-06)
(0 0 1.75374e-05)
(0 0 1.68163e-05)
(0 0 1.81541e-05)
(0 0 2.61525e-05)
(0 0 4.1609e-05)
(0 0 5.78648e-05)
(0 0 6.40742e-05)
(0 0 5.24809e-05)
(0 0 2.33678e-05)
(0 0 -1.55318e-05)
(0 0 -5.3577e-05)
(0 0 -8.20827e-05)
(0 0 -9.69427e-05)
(0 0 -9.86014e-05)
(0 0 -9.04089e-05)
(0 0 -7.66609e-05)
(0 0 -6.11612e-05)
(0 0 -4.65476e-05)
(0 0 -3.42286e-05)
(0 0 -2.46517e-05)
(0 0 -1.76646e-05)
(0 0 -1.28278e-05)
(0 0 -9.62788e-06)
(0 0 -7.59615e-06)
(0 0 -6.3563e-06)
(0 0 -5.63083e-06)
(0 0 -5.22743e-06)
(0 0 -5.01914e-06)
(0 0 -4.92533e-06)
(0 0 -4.89645e-06)
(0 0 -4.90287e-06)
(0 0 -4.92725e-06)
(0 0 -4.95964e-06)
(0 0 -4.99437e-06)
(0 0 -5.02824e-06)
(0 0 -5.0594e-06)
(0 0 -5.08677e-06)
(0 0 -5.1097e-06)
(0 0 -5.12772e-06)
(0 0 -5.1405e-06)
(0 0 -5.14773e-06)
(0 0 -5.14912e-06)
(0 0 -5.14435e-06)
(0 0 -5.13312e-06)
(0 0 -5.11505e-06)
(0 0 -5.08969e-06)
(0 0 -5.05635e-06)
(0 0 -5.01362e-06)
(0 0 -4.95746e-06)
(0 0 -4.87438e-06)
(0 0 -4.7182e-06)
(0 0 -4.33327e-06)
(0 0 -3.21146e-06)
(0 0 2.52269e-07)
(0 4.61228e-23 1.09537e-05)
(0 0 2.92202e-05)
(0 0 2.80303e-05)
(0 0 3.02165e-05)
(0 0 4.33904e-05)
(0 0 6.89539e-05)
(0 0 9.60228e-05)
(0 0 0.000106734)
(0 0 8.8211e-05)
(0 0 4.07654e-05)
(0 0 -2.29945e-05)
(0 0 -8.55978e-05)
(0 0 -0.000132717)
(0 0 -0.000157518)
(0 0 -0.000160645)
(0 0 -0.000147545)
(0 0 -0.000125247)
(0 0 -9.99946e-05)
(0 0 -7.61315e-05)
(0 0 -5.59859e-05)
(0 0 -4.03086e-05)
(0 0 -2.88617e-05)
(0 0 -2.09323e-05)
(0 0 -1.56835e-05)
(0 0 -1.23492e-05)
(0 0 -1.03134e-05)
(0 0 -9.12176e-06)
(0 0 -8.45892e-06)
(0 0 -8.11665e-06)
(0 0 -7.96264e-06)
(0 0 -7.91553e-06)
(0 0 -7.92664e-06)
(0 0 -7.96747e-06)
(0 0 -8.02165e-06)
(0 0 -8.07987e-06)
(0 0 -8.13685e-06)
(0 0 -8.18956e-06)
(0 0 -8.23624e-06)
(0 0 -8.27579e-06)
(0 0 -8.30747e-06)
(0 0 -8.33068e-06)
(0 0 -8.34494e-06)
(0 0 -8.34976e-06)
(0 0 -8.34464e-06)
(0 0 -8.32906e-06)
(0 0 -8.3024e-06)
(0 0 -8.26392e-06)
(0 0 -8.21254e-06)
(0 0 -8.14602e-06)
(0 0 -8.05807e-06)
(0 0 -7.92779e-06)
(0 0 -7.68362e-06)
(0 0 -7.08403e-06)
(0 0 -5.33766e-06)
(0 0 6.56558e-08)
(0 2.72227e-22 1.6813e-05)
(0 0 4.0887e-05)
(0 0 3.92449e-05)
(0 0 4.22178e-05)
(0 0 6.03479e-05)
(0 0 9.57462e-05)
(0 0 0.000133606)
(0 0 0.000149345)
(0 0 0.000125032)
(0 0 6.07798e-05)
(0 0 -2.63263e-05)
(0 0 -0.000112357)
(0 0 -0.000177547)
(0 0 -0.000212342)
(0 0 -0.000217454)
(0 0 -0.00020023)
(0 0 -0.000170248)
(0 0 -0.00013606)
(0 0 -0.000103639)
(0 0 -7.6209e-05)
(0 0 -5.48297e-05)
(0 0 -3.92009e-05)
(0 0 -2.83642e-05)
(0 0 -2.11849e-05)
(0 0 -1.66205e-05)
(0 0 -1.38316e-05)
(0 0 -1.21976e-05)
(0 0 -1.12876e-05)
(0 0 -1.08169e-05)
(0 0 -1.06043e-05)
(0 0 -1.05385e-05)
(0 0 -1.05528e-05)
(0 0 -1.0608e-05)
(0 0 -1.06818e-05)
(0 0 -1.07613e-05)
(0 0 -1.08394e-05)
(0 0 -1.09118e-05)
(0 0 -1.09762e-05)
(0 0 -1.1031e-05)
(0 0 -1.10753e-05)
(0 0 -1.11081e-05)
(0 0 -1.11289e-05)
(0 0 -1.1137e-05)
(0 0 -1.11317e-05)
(0 0 -1.11123e-05)
(0 0 -1.10779e-05)
(0 0 -1.10275e-05)
(0 0 -1.09598e-05)
(0 0 -1.08717e-05)
(0 0 -1.07555e-05)
(0 0 -1.0585e-05)
(0 0 -1.0271e-05)
(0 0 -9.51224e-06)
(0 0 -7.3158e-06)
(0 0 -5.09698e-07)
(0 -1.78741e-22 2.06928e-05)
(0 0 5.25315e-05)
(0 0 5.04591e-05)
(0 0 5.41373e-05)
(0 0 7.69321e-05)
(0 0 0.000121801)
(0 0 0.000170413)
(0 0 0.000191864)
(0 0 0.000163259)
(0 0 8.42127e-05)
(0 0 -2.42372e-05)
(0 0 -0.000132194)
(0 0 -0.000214731)
(0 0 -0.000259584)
(0 0 -0.000267357)
(0 0 -0.000247039)
(0 0 -0.000210516)
(0 0 -0.000168471)
(0 0 -0.000128407)
(0 0 -9.44091e-05)
(0 0 -6.78551e-05)
(0 0 -4.84124e-05)
(0 0 -3.49135e-05)
(0 0 -2.59603e-05)
(0 0 -2.02622e-05)
(0 0 -1.67767e-05)
(0 0 -1.47319e-05)
(0 0 -1.35911e-05)
(0 0 -1.29993e-05)
(0 0 -1.27304e-05)
(0 0 -1.26453e-05)
(0 0 -1.26606e-05)
(0 0 -1.27275e-05)
(0 0 -1.2818e-05)
(0 0 -1.2916e-05)
(0 0 -1.30124e-05)
(0 0 -1.31022e-05)
(0 0 -1.31822e-05)
(0 0 -1.32505e-05)
(0 0 -1.3306e-05)
(0 0 -1.33475e-05)
(0 0 -1.33743e-05)
(0 0 -1.33855e-05)
(0 0 -1.33803e-05)
(0 0 -1.33577e-05)
(0 0 -1.33168e-05)
(0 0 -1.32563e-05)
(0 0 -1.31745e-05)
(0 0 -1.30681e-05)
(0 0 -1.29283e-05)
(0 0 -1.27265e-05)
(0 0 -1.23663e-05)
(0 0 -1.15208e-05)
(0 0 -9.10753e-06)
(0 0 -1.6279e-06)
(0 8.82395e-23 2.18761e-05)
(0 0 6.41484e-05)
(0 0 6.16699e-05)
(0 0 6.59569e-05)
(0 0 9.30677e-05)
(0 0 0.000146964)
(0 0 0.000206267)
(0 0 0.000234226)
(0 0 0.000203094)
(0 0 0.00011164)
(0 0 -1.57712e-05)
(0 0 -0.00014386)
(0 0 -0.000242868)
(0 0 -0.000297843)
(0 0 -0.00030907)
(0 0 -0.000286877)
(0 0 -0.000245168)
(0 0 -0.000196545)
(0 0 -0.000149926)
(0 0 -0.000110213)
(0 0 -7.91113e-05)
(0 0 -5.62929e-05)
(0 0 -4.04241e-05)
(0 0 -2.9884e-05)
(0 0 -2.31669e-05)
(0 0 -1.90522e-05)
(0 0 -1.66342e-05)
(0 0 -1.52822e-05)
(0 0 -1.45779e-05)
(0 0 -1.42553e-05)
(0 0 -1.41502e-05)
(0 0 -1.41642e-05)
(0 0 -1.42396e-05)
(0 0 -1.43433e-05)
(0 0 -1.44563e-05)
(0 0 -1.4568e-05)
(0 0 -1.46721e-05)
(0 0 -1.47652e-05)
(0 0 -1.4845e-05)
(0 0 -1.491e-05)
(0 0 -1.49591e-05)
(0 0 -1.49911e-05)
(0 0 -1.50052e-05)
(0 0 -1.50004e-05)
(0 0 -1.49756e-05)
(0 0 -1.49296e-05)
(0 0 -1.4861e-05)
(0 0 -1.47679e-05)
(0 0 -1.46468e-05)
(0 0 -1.44887e-05)
(0 0 -1.42658e-05)
(0 0 -1.38851e-05)
(0 0 -1.30348e-05)
(0 0 -1.06815e-05)
(0 0 -3.43772e-06)
(0 4.35384e-22 1.96541e-05)
(0 0 7.57293e-05)
(0 0 7.28724e-05)
(0 0 7.76625e-05)
(0 0 0.0001087)
(0 0 0.000171123)
(0 0 0.000241026)
(0 0 0.000276343)
(0 0 0.000244614)
(0 0 0.000143377)
(0 0 -3.56288e-07)
(0 0 -0.00014658)
(0 0 -0.000261071)
(0 0 -0.000326218)
(0 0 -0.000341759)
(0 0 -0.000319027)
(0 0 -0.000273625)
(0 0 -0.000219837)
(0 0 -0.000167863)
(0 0 -0.000123378)
(0 0 -8.84254e-05)
(0 0 -6.2717e-05)
(0 0 -4.48025e-05)
(0 0 -3.28828e-05)
(0 0 -2.5274e-05)
(0 0 -2.06052e-05)
(0 0 -1.78559e-05)
(0 0 -1.63142e-05)
(0 0 -1.55072e-05)
(0 0 -1.51338e-05)
(0 0 -1.50078e-05)
(0 0 -1.50176e-05)
(0 0 -1.50979e-05)
(0 0 -1.52108e-05)
(0 0 -1.53349e-05)
(0 0 -1.54581e-05)
(0 0 -1.55734e-05)
(0 0 -1.56767e-05)
(0 0 -1.57654e-05)
(0 0 -1.5838e-05)
(0 0 -1.5893e-05)
(0 0 -1.59293e-05)
(0 0 -1.59459e-05)
(0 0 -1.59416e-05)
(0 0 -1.59152e-05)
(0 0 -1.58654e-05)
(0 0 -1.57907e-05)
(0 0 -1.56889e-05)
(0 0 -1.55567e-05)
(0 0 -1.53856e-05)
(0 0 -1.5151e-05)
(0 0 -1.47734e-05)
(0 0 -1.39958e-05)
(0 0 -1.19911e-05)
(0 0 -6.06749e-06)
(0 -8.51867e-23 1.31989e-05)
(-1.60933e-23 7.97832e-21 2.11221e-06)
(-1.4839e-22 7.84451e-21 1.56688e-06)
(3.40038e-23 -1.98834e-22 8.08127e-07)
(3.5687e-23 -2.34272e-20 -2.12708e-07)
(-9.336e-23 8.00644e-21 -1.54852e-06)
(3.67962e-22 7.86466e-21 -3.25514e-06)
(-8.00448e-22 2.29269e-20 -5.38461e-06)
(3.13089e-22 -2.33011e-20 -7.99425e-06)
(6.31598e-22 -7.49625e-21 -1.11474e-05)
(-9.04688e-22 -3.73329e-24 -1.49114e-05)
(-9.05368e-22 -7.51484e-21 -1.93539e-05)
(7.93248e-22 7.13584e-21 -2.45374e-05)
(5.64209e-22 -5.8829e-20 -3.05135e-05)
(-1.03854e-21 1.26328e-19 -3.73151e-05)
(3.53964e-22 -6.79826e-20 -4.49443e-05)
(-1.24429e-21 -5.12639e-20 -5.33527e-05)
(2.3672e-21 -6.52724e-20 -6.24476e-05)
(-1.86364e-21 7.69938e-21 -7.21146e-05)
(-1.92373e-22 -7.18103e-21 -8.22507e-05)
(7.53222e-23 7.18822e-21 -9.27111e-05)
(-3.16029e-24 -1.29261e-22 -0.000103334)
(-7.06276e-23 -6.93644e-21 -0.000113985)
(-2.01634e-21 7.00004e-21 -0.000124583)
(4.22375e-21 1.2967e-23 -0.000135119)
(1.23566e-21 6.80087e-21 -0.000145679)
(-3.29047e-21 -5.34679e-24 -0.000156454)
(4.73863e-21 7.91314e-21 -0.00016775)
(-5.51719e-21 1.02647e-19 -0.000179993)
(6.49704e-22 -1.10234e-19 -0.000193734)
(-2.10297e-21 1.0081e-19 -0.000209654)
(2.04766e-21 -1.01959e-19 -0.000228596)
(4.87214e-23 1.34725e-21 -0.000251637)
(-6.34666e-23 -1.65532e-21 -0.000280233)
(2.74213e-21 -9.67404e-20 -0.000316524)
(-8.65803e-21 9.38972e-20 -0.000363891)
(-3.20098e-22 -1.55598e-21 -0.000427989)
(6.24123e-21 1.36502e-23 -0.000518547)
(6.79194e-21 1.48546e-23 -0.00065242)
(-6.77021e-21 -1.48071e-23 -0.000858502)
(-2.24669e-22 -4.91373e-25 -0.00118523)
(-2.34423e-22 -5.12706e-25 -0.00171129)
(-8.07774e-21 -1.76668e-23 -0.00255962)
(7.79702e-21 1.70528e-23 -0.00391361)
(-2.57784e-22 1.53502e-22 -0.0060322)
(-2.88045e-23 7.94849e-21 -0.00925787)
(-2.50053e-20 5.14878e-20 -0.0140081)
(2.40831e-20 -6.78496e-20 -0.0207365)
(-5.65426e-21 -9.68971e-21 -0.0298495)
(6.21567e-21 2.64056e-20 -0.0415697)
(-2.06872e-20 -5.77565e-21 -0.0556628)
(-2.5922e-22 7.99156e-21 5.95865e-06)
(-1.01986e-22 1.57203e-20 4.25736e-06)
(3.09916e-22 7.647e-21 1.86657e-06)
(-8.80909e-22 -7.85795e-21 -1.36105e-06)
(1.63495e-21 7.49404e-21 -5.57941e-06)
(-5.15931e-22 -5.37016e-20 -1.0937e-05)
(-1.99374e-22 8.52883e-20 -1.75909e-05)
(-5.86804e-23 -8.89796e-21 -2.57123e-05)
(2.16639e-21 -9.82394e-20 -3.54899e-05)
(-2.24134e-21 1.38737e-19 -4.7126e-05)
(-7.99193e-22 1.26768e-19 -6.08264e-05)
(5.8568e-22 -1.14074e-19 -7.67844e-05)
(-3.95263e-22 7.41418e-22 -9.51614e-05)
(2.81773e-21 -7.26548e-21 -0.000116065)
(-2.18776e-21 2.41874e-20 -0.000139515)
(-5.91916e-21 2.40117e-19 -0.000165382)
(1.54965e-21 -2.25868e-19 -0.000193386)
(-5.52607e-21 2.42075e-19 -0.000223232)
(-2.87564e-22 1.95807e-20 -0.000254622)
(-3.85964e-21 -7.34814e-21 -0.000287173)
(4.07757e-21 1.45861e-22 -0.000320419)
(-4.08654e-21 9.14473e-21 -0.000353974)
(1.16536e-21 2.10539e-19 -0.000387631)
(5.65209e-21 -4.4598e-19 -0.000421398)
(4.35293e-21 -2.13176e-19 -0.000455565)
(-6.71131e-21 4.31509e-19 -0.000490742)
(3.28674e-21 -4.30675e-19 -0.000527888)
(-1.59488e-21 4.41933e-19 -0.000568323)
(3.30568e-21 1.44237e-21 -0.00061374)
(-3.73828e-21 -9.79559e-23 -0.000666238)
(-1.25606e-21 -2.74713e-24 -0.000728414)
(0 0 -0.000803572)
(1.85761e-22 9.64151e-23 -0.000896188)
(1.11151e-20 1.24324e-20 -0.00101281)
(-1.53698e-20 3.62652e-19 -0.00116377)
(-1.58649e-20 -2.41227e-20 -0.00136631)
(1.82282e-20 -3.58019e-19 -0.00165007)
(2.62721e-20 -3.09834e-19 -0.00206632)
(-8.93729e-21 3.31027e-19 -0.00270288)
(-3.14344e-20 2.194e-21 -0.00370685)
(3.0761e-20 1.75225e-20 -0.0053169)
(-4.21201e-20 2.37066e-19 -0.00790545)
(2.25776e-20 -2.46614e-19 -0.0120273)
(-1.82368e-20 1.48476e-20 -0.0184649)
(2.0231e-20 7.84365e-21 -0.028252)
(-6.05628e-20 1.15175e-19 -0.0426478)
(6.04952e-20 -1.12727e-19 -0.0630171)
(-9.34686e-20 8.44101e-20 -0.0905621)
(9.01955e-20 -9.42352e-20 -0.125881)
(-1.90899e-20 -6.48218e-22 -0.166863)
(-2.48253e-23 4.73359e-20 9.52627e-06)
(-8.20245e-23 1.49627e-20 6.46409e-06)
(3.61064e-22 -6.20023e-20 2.0859e-06)
(-7.60508e-22 1.23376e-19 -3.85236e-06)
(1.68409e-21 -2.6417e-19 -1.15766e-05)
(4.44121e-22 1.25647e-19 -2.13086e-05)
(-2.47203e-21 -8.79224e-22 -3.32935e-05)
(1.57239e-21 -1.70984e-20 -4.78099e-05)
(1.37454e-21 -2.57919e-19 -6.51724e-05)
(8.69133e-22 2.45808e-19 -8.57247e-05)
(-8.66703e-22 -1.64437e-21 -0.000109822)
(-4.25385e-21 -1.58322e-23 -0.000137804)
(6.75144e-21 -1.86939e-21 -0.000169965)
(-4.14289e-21 -2.51781e-19 -0.000206518)
(5.34774e-21 2.28892e-19 -0.000247535)
(-1.12664e-20 4.5485e-19 -0.000292852)
(-4.92535e-21 -1.22118e-20 -0.000342066)
(-4.46531e-21 4.68113e-19 -0.000394741)
(4.05079e-22 -1.42133e-20 -0.000450483)
(-1.21461e-20 4.54875e-19 -0.000508741)
(1.205e-20 -4.72455e-19 -0.000568832)
(-8.84166e-21 4.51446e-19 -0.000630221)
(1.96479e-21 -4.69603e-19 -0.00069267)
(5.26801e-21 -9.33726e-21 -0.000756313)
(-2.60414e-21 1.37735e-20 -0.00082175)
(5.58486e-21 -8.84676e-21 -0.000890126)
(-1.84761e-20 4.2405e-19 -0.000963174)
(1.65343e-20 -4.52066e-19 -0.00104324)
(1.79846e-20 -4.20362e-19 -0.00113332)
(-1.4661e-20 4.22393e-19 -0.00123711)
(-1.09614e-21 -5.23327e-21 -0.00135916)
(1.13508e-20 -1.2285e-22 -0.00150527)
(-1.30177e-20 -2.50423e-20 -0.00168323)
(5.23662e-20 -7.70236e-19 -0.00190443)
(1.68399e-20 5.64066e-20 -0.00218669)
(-6.95801e-20 7.25881e-19 -0.00255964)
(4.01396e-21 -1.25074e-20 -0.00307405)
(-1.15827e-20 -4.98055e-21 -0.00381759)
(1.101e-19 -6.11386e-19 -0.00494022)
(-2.04751e-19 1.2015e-18 -0.0066927)
(2.0906e-19 -1.19528e-18 -0.00948128)
(7.26705e-20 8.58975e-20 -0.0139387)
(-1.58362e-19 5.24349e-19 -0.0210058)
(-1.66984e-19 3.62647e-19 -0.032008)
(1.57696e-19 -4.29973e-19 -0.0486963)
(-2.26676e-20 1.98479e-20 -0.0732052)
(5.60103e-20 -1.76956e-20 -0.107848)
(1.68471e-19 -1.04787e-19 -0.15462)
(-1.82328e-19 1.63422e-19 -0.214324)
(-2.58658e-20 -4.18356e-20 -0.278783)
(3.97023e-22 -3.1214e-20 1.25297e-05)
(-3.64869e-22 1.57889e-20 7.62338e-06)
(7.01831e-22 -1.74057e-22 4.84066e-07)
(-6.32204e-22 -1.55353e-20 -9.16409e-06)
(-9.79255e-22 -1.46627e-21 -2.15617e-05)
(3.25697e-21 -2.43874e-19 -3.69716e-05)
(-4.52297e-21 4.61918e-19 -5.57101e-05)
(2.19345e-21 -2.48763e-19 -7.81604e-05)
(-1.84187e-21 1.50059e-20 -0.000104771)
(4.76012e-21 -2.72457e-19 -0.000136043)
(-5.78583e-21 2.48688e-19 -0.000172506)
(-3.86733e-21 4.74716e-19 -0.000214679)
(1.03243e-20 -9.60673e-19 -0.000263028)
(-1.25282e-20 9.59832e-19 -0.000317924)
(1.67987e-20 -9.5552e-19 -0.000379559)
(-1.07811e-20 9.47265e-19 -0.000447815)
(-9.67846e-21 4.81766e-19 -0.000522251)
(-7.13452e-22 -3.82548e-21 -0.000602415)
(4.57668e-21 3.97187e-21 -0.000687938)
(-7.26183e-21 4.4486e-19 -0.000778238)
(-2.48596e-21 -4.6727e-19 -0.000872576)
(1.50155e-20 1.29387e-20 -0.000970439)
(-3.28617e-20 8.97823e-19 -0.00107174)
(2.46013e-20 -9.00943e-19 -0.00117692)
(2.28573e-21 -5.31723e-21 -0.00128711)
(-9.90535e-21 -9.16567e-23 -0.00140418)
(1.50178e-20 -1.36347e-20 -0.0015309)
(-4.89056e-21 1.25407e-22 -0.00167089)
(-5.37995e-21 -6.46215e-23 -0.00182875)
(5.11487e-21 1.98859e-22 -0.00201011)
(-3.74952e-21 1.38604e-21 -0.0022219)
(6.21431e-20 -7.99229e-19 -0.0024729)
(-5.6146e-20 8.22088e-19 -0.0027748)
(-1.63104e-20 1.6213e-22 -0.00314449)
(1.89733e-20 -1.03806e-20 -0.00360817)
(-9.83679e-20 7.35743e-19 -0.00420904)
(1.15285e-19 -7.39105e-19 -0.0050207)
(-2.31595e-20 2.26975e-21 -0.00616989)
(1.63548e-20 -9.0242e-23 -0.00787306)
(3.88879e-20 6.60324e-21 -0.0104918)
(-2.50491e-19 5.54434e-19 -0.0146115)
(3.70593e-19 -1.12476e-18 -0.0211427)
(-1.80971e-19 5.70256e-19 -0.0314388)
(2.65092e-19 -4.37484e-19 -0.0474085)
(-2.56426e-19 5.15563e-19 -0.0715851)
(-6.01181e-19 5.33341e-19 -0.107086)
(1.13632e-18 -1.13088e-18 -0.15734)
(-5.57052e-19 5.71418e-19 -0.2253)
(1.9243e-20 -2.23979e-21 -0.311786)
(4.65107e-21 -3.57998e-20 -0.394758)
(-7.39931e-22 1.58709e-20 1.45051e-05)
(-2.53437e-22 6.07537e-20 6.68983e-06)
(1.92372e-21 -1.84517e-19 -4.69601e-06)
(-1.2232e-21 2.47662e-19 -1.9775e-05)
(-3.20894e-22 -1.09694e-19 -3.87177e-05)
(1.07003e-22 -1.46534e-20 -6.17991e-05)
(-4.73012e-22 1.54602e-20 -8.94106e-05)
(3.07507e-21 -1.89563e-22 -0.000122059)
(-2.93515e-21 -1.51129e-20 -0.000160355)
(-5.30608e-21 3.3941e-20 -0.000204994)
(-6.733e-21 4.82815e-19 -0.00025672)
(1.83497e-20 -5.01859e-19 -0.000316283)
(-2.27268e-20 4.68316e-19 -0.000384387)
(1.88541e-20 -4.87191e-19 -0.000461638)
(-3.05187e-21 3.44946e-21 -0.000548447)
(1.11489e-20 4.81919e-23 -0.000644859)
(4.24175e-21 3.76985e-21 -0.000750539)
(-4.82381e-21 4.55475e-19 -0.000865184)
(1.997e-20 -4.92967e-19 -0.000988638)
(6.44673e-21 2.71869e-20 -0.00112051)
(-4.50129e-20 9.39808e-19 -0.00126023)
(2.81343e-20 -9.42631e-19 -0.00140758)
(1.03426e-20 2.28371e-20 -0.00156289)
(-1.83018e-20 -2.36563e-22 -0.00172724)
(1.19755e-20 9.77322e-21 -0.00190257)
(-3.73682e-20 9.04686e-19 -0.00209189)
(3.05381e-20 -8.96318e-19 -0.00229937)
(2.87722e-21 9.75797e-21 -0.00253038)
(9.75152e-21 2.74901e-20 -0.00279166)
(-1.16738e-20 -5.57526e-22 -0.00309138)
(1.16196e-21 -1.31587e-20 -0.00343958)
(-3.7834e-20 1.33684e-20 -0.0038488)
(3.56714e-20 1.27429e-20 -0.0043356)
(-3.21544e-21 -2.56034e-20 -0.00492344)
(8.12427e-20 -7.48842e-19 -0.00564808)
(-7.2067e-20 7.71819e-19 -0.0065676)
(2.686e-19 -1.48734e-18 -0.00778007)
(-2.45756e-19 1.50179e-18 -0.00945362)
(3.06394e-19 -1.40767e-18 -0.0118749)
(7.32514e-20 1.33046e-19 -0.0155231)
(-3.53298e-19 1.34227e-18 -0.0211743)
(-1.23207e-19 -2.26295e-20 -0.0300384)
(1.67648e-20 3.89187e-22 -0.0439185)
(-1.87492e-20 5.68289e-22 -0.0653738)
(5.53514e-20 1.69652e-21 -0.0978497)
(2.66997e-20 1.38801e-20 -0.145713)
(-1.15572e-19 5.25397e-21 -0.21403)
(6.57862e-20 5.10028e-21 -0.307549)
(-1.6891e-22 -3.17098e-22 -0.427623)
(3.68303e-20 6.54982e-22 -0.525333)
(-6.74298e-22 7.64767e-20 1.47306e-05)
(1.64762e-21 -4.66419e-20 1.63754e-06)
(-1.70518e-21 -1.64599e-20 -1.66486e-05)
(4.5984e-21 -2.2855e-19 -3.98344e-05)
(-2.17803e-21 2.30449e-19 -6.80075e-05)
(1.91016e-21 -2.28053e-19 -0.000101504)
(-1.07977e-20 5.02933e-19 -0.000140851)
(1.12584e-20 -7.04485e-19 -0.000186738)
(-7.23959e-21 4.98278e-19 -0.000239996)
(-5.64123e-21 4.85725e-19 -0.000301572)
(-2.20744e-21 3.91738e-21 -0.000372492)
(2.40042e-20 -9.54336e-19 -0.00045381)
(-2.08176e-20 9.93409e-19 -0.000546558)
(4.7932e-21 -4.67493e-19 -0.000651684)
(1.18211e-20 -4.69799e-19 -0.000769955)
(2.22226e-20 -4.62366e-19 -0.000901746)
(-3.18825e-21 6.809e-21 -0.00104703)
(3.78249e-20 -9.58989e-19 -0.00120586)
(2.88579e-20 -9.20911e-19 -0.00137859)
(6.55828e-21 2.12635e-20 -0.0015653)
(-2.5707e-20 9.56751e-19 -0.00176593)
(-2.04073e-20 -8.19344e-21 -0.00198092)
(1.2459e-20 9.06987e-21 -0.00221144)
(-4.96258e-20 9.27228e-19 -0.00245964)
(4.00001e-20 -9.42076e-19 -0.00272882)
(7.17331e-20 -9.05211e-19 -0.00302366)
(-7.29743e-20 9.35218e-19 -0.00335038)
(1.52777e-20 -2.0291e-20 -0.00371685)
(6.62337e-20 -9.03485e-19 -0.0041328)
(-9.43619e-20 9.26669e-19 -0.00460998)
(4.43545e-21 1.25341e-20 -0.00516267)
(-2.04824e-19 1.69918e-18 -0.00580856)
(1.84622e-19 -1.76312e-18 -0.00657052)
(4.92675e-20 6.29304e-20 -0.0074801)
(-2.65524e-19 1.61091e-18 -0.00858406)
(2.42829e-19 -1.67992e-18 -0.00995653)
(-3.21242e-20 -3.40223e-21 -0.0117207)
(4.73276e-19 -1.51745e-18 -0.0140859)
(-4.42623e-19 1.56739e-18 -0.0174088)
(-6.75832e-20 -7.37778e-20 -0.0222866)
(6.84821e-19 -1.32748e-18 -0.0296915)
(-1.20428e-18 2.73966e-18 -0.0411481)
(-6.85104e-20 -1.56754e-19 -0.0589466)
(-9.17711e-20 -1.22748e-19 -0.0863759)
(7.82246e-19 -1.19618e-18 -0.127964)
(4.03422e-20 6.43293e-20 -0.189741)
(-8.89387e-19 7.96227e-19 -0.279531)
(8.72115e-19 -8.75461e-19 -0.406699)
(9.73714e-21 2.95682e-20 -0.577924)
(9.62182e-21 -2.81009e-21 -0.696266)
(6.06234e-22 -1.59387e-20 1.2243e-05)
(1.60059e-21 -1.35871e-19 -1.17501e-05)
(-1.7361e-21 1.22557e-19 -4.09246e-05)
(-1.30521e-21 -1.72822e-20 -7.54381e-05)
(5.22252e-21 -2.27157e-19 -0.000115685)
(-4.80403e-21 2.33709e-19 -0.000162226)
(-5.47475e-21 4.72068e-19 -0.000215807)
(-5.18749e-21 -1.94939e-20 -0.000277339)
(2.26146e-21 -4.56411e-21 -0.000347886)
(1.41855e-20 -5.03499e-19 -0.000428647)
(-1.14655e-20 4.7123e-19 -0.000520915)
(1.69415e-20 -9.97095e-19 -0.000626034)
(-3.59621e-21 4.98522e-19 -0.00074534)
(-3.72379e-21 -1.8796e-20 -0.000880101)
(-4.96211e-21 -2.25199e-20 -0.00103142)
(2.76569e-20 -9.78999e-19 -0.00119997)
(-1.56267e-21 -2.00937e-20 -0.00138604)
(2.64069e-20 -9.97365e-19 -0.00159)
(-5.50889e-21 -7.67717e-21 -0.00181259)
(-1.71179e-22 1.21128e-22 -0.00205429)
(1.16192e-20 8.56146e-21 -0.00231539)
(-5.17796e-20 9.60509e-19 -0.00259669)
(4.59493e-20 -9.81263e-19 -0.00289985)
(1.29655e-20 8.46465e-21 -0.00322747)
(-8.87315e-21 -1.50481e-20 -0.0035834)
(-6.26347e-21 1.00531e-20 -0.00397287)
(-7.25821e-20 9.2848e-19 -0.00440261)
(1.56263e-19 -1.89476e-18 -0.00488093)
(-7.38784e-20 9.885e-19 -0.00541772)
(-1.88786e-19 1.83296e-18 -0.00602452)
(-3.07384e-20 -4.52231e-20 -0.00671471)
(2.79365e-21 -2.58874e-20 -0.00750406)
(-6.70363e-20 -5.36323e-20 -0.0084121)
(2.56311e-19 -1.83454e-18 -0.00946507)
(3.98262e-19 -1.69981e-18 -0.010702)
(-3.54773e-19 1.78435e-18 -0.0121869)
(-3.45549e-20 -5.58983e-20 -0.0140311)
(4.73482e-19 -1.62858e-18 -0.0164343)
(-4.16656e-19 1.72536e-18 -0.0197535)
(-6.72393e-19 1.53447e-18 -0.0246139)
(5.70432e-19 -1.62091e-18 -0.0320745)
(7.97507e-20 -1.14582e-20 -0.043857)
(8.80122e-19 -1.43686e-18 -0.062634)
(1.25542e-19 1.22626e-19 -0.0923654)
(-1.0197e-18 1.4094e-18 -0.138682)
(-1.66176e-20 -4.04755e-20 -0.209395)
(3.42567e-20 5.37361e-22 -0.315846)
(-3.48842e-20 1.57361e-20 -0.477927)
(-5.26142e-19 5.50786e-19 -0.733884)
(5.17569e-19 -5.59902e-19 -1.01096)
(-1.05363e-20 -3.07182e-21 0.00995218)
(-1.03546e-20 -5.29971e-22 0.00370511)
(9.70453e-21 9.75858e-21 -0.00153383)
(-7.22543e-21 1.24609e-21 -0.00584244)
(7.73156e-21 -1.03262e-20 -0.00930698)
(-1.5637e-23 3.24723e-21 -0.0120204)
(-1.5761e-22 -9.05773e-23 -0.0140747)
(-4.86909e-21 1.06492e-23 -0.0155527)
(4.73025e-21 -1.03455e-23 -0.0165332)
(-1.34635e-22 2.94461e-25 -0.0170885)
(-1.24003e-22 2.71206e-25 -0.0172825)
(3.38172e-21 -7.39617e-24 -0.0171744)
(-3.39259e-21 7.41993e-24 -0.0168192)
(-2.68445e-21 5.87117e-24 -0.0162663)
(3.63917e-22 -5.34123e-22 -0.0155599)
(5.28565e-21 2.75573e-20 -0.014739)
(-2.72396e-21 -2.47004e-20 -0.0138378)
(-3.18516e-23 -5.03603e-22 -0.012886)
(-9.15768e-24 2.5323e-22 -0.0119086)
(-2.66404e-21 -4.57652e-20 -0.0109268)
(2.68282e-21 4.54932e-20 -0.00995797)
(-2.05183e-21 -5.09614e-20 -0.00901623)
(5.67741e-22 3.43512e-21 -0.0081126)
(-4.70936e-22 5.34995e-24 -0.00725483)
(4.21768e-22 4.09927e-21 -0.00644902)
(-1.0647e-22 4.54505e-24 -0.00569896)
(-8.63932e-23 1.88951e-25 -0.00500709)
(2.43486e-23 7.1449e-25 -0.00437433)
(2.12573e-22 5.01937e-21 -0.00380032)
(2.15571e-24 -2.71724e-24 -0.00328368)
(-1.89259e-22 -5.41043e-21 -0.00282223)
(1.8146e-22 5.59229e-21 -0.00241315)
(-2.40344e-22 -5.73944e-21 -0.00205314)
(8.7334e-22 5.37418e-20 -0.00173859)
(-7.79374e-22 -5.40592e-20 -0.00146569)
(-3.37204e-22 -4.3821e-20 -0.00123051)
(7.90016e-22 9.49813e-20 -0.00102916)
(-4.38476e-22 -5.12735e-20 -0.000857845)
(-6.42103e-23 -6.55597e-21 -0.000712904)
(6.04403e-23 6.69097e-21 -0.000590908)
(-2.9887e-23 -2.20639e-25 -0.000488677)
(1.22895e-22 6.87473e-21 -0.000403313)
(-2.13768e-22 -3.49869e-20 -0.000332214)
(1.97834e-22 3.51467e-20 -0.000273074)
(-4.99216e-23 -7.1428e-21 -0.000223879)
(1.19082e-22 2.16886e-20 -0.000182893)
(8.41339e-24 -7.23018e-21 -0.000148627)
(-7.50262e-23 -1.47217e-20 -0.000119805)
(2.08582e-23 7.39066e-21 -9.53232e-05)
(-4.84064e-23 -7.47782e-21 -7.42302e-05)
(-1.5276e-20 2.4854e-20 0.0287123)
(2.91174e-20 -9.57202e-21 0.0100944)
(-2.32616e-20 -2.17807e-20 -0.00558283)
(4.44095e-21 1.9422e-20 -0.0183749)
(-4.93275e-21 -1.87607e-20 -0.0285831)
(-1.1714e-20 5.97981e-21 -0.0365164)
(1.01623e-20 5.51234e-21 -0.0424756)
(-2.03359e-21 -6.48041e-21 -0.0467231)
(1.27303e-20 -4.13823e-21 -0.0495001)
(-1.92956e-20 4.72089e-21 -0.0510237)
(1.63289e-20 -4.91755e-21 -0.0514857)
(1.59887e-20 5.15284e-20 -0.051066)
(-2.52653e-20 -4.14658e-20 -0.0499275)
(-2.71052e-20 -8.38584e-20 -0.0482163)
(4.74963e-21 -2.25399e-20 -0.0460629)
(2.74612e-20 9.76017e-20 -0.0435823)
(-4.45314e-21 7.22108e-22 -0.040875)
(-1.12423e-21 -4.6413e-21 -0.0380274)
(6.16703e-24 -5.49508e-23 -0.0351126)
(2.36089e-22 -5.16351e-25 -0.032192)
(6.29325e-22 8.23101e-24 -0.029316)
(-9.60065e-22 -3.77823e-21 -0.0265251)
(2.47994e-20 2.29863e-19 -0.023851)
(-2.73948e-20 -2.4843e-19 -0.0213165)
(2.43439e-20 2.68312e-19 -0.0189378)
(-1.29629e-20 -1.28933e-19 -0.0167265)
(-2.27533e-20 -2.95745e-19 -0.0146886)
(1.1077e-20 1.51469e-19 -0.0128264)
(-1.91871e-22 -5.01335e-21 -0.0111382)
(-7.20247e-22 -1.05672e-20 -0.0096199)
(1.13118e-22 5.4247e-21 -0.0082646)
(-8.68862e-22 -1.68209e-20 -0.0070638)
(6.84682e-21 1.81534e-19 -0.00600761)
(-1.42384e-20 -3.86209e-19 -0.00508521)
(6.33577e-21 1.86773e-19 -0.00428525)
(-7.37992e-22 -1.87905e-20 -0.00359615)
(2.32272e-22 6.35818e-21 -0.00300638)
(-1.93395e-23 -4.42863e-23 -0.00250472)
(-2.65188e-21 -1.12786e-19 -0.00208042)
(2.25463e-21 9.97797e-20 -0.00172338)
(1.59326e-21 9.56807e-20 -0.00142427)
(-2.33995e-21 -1.30275e-19 -0.00117457)
(5.96668e-23 7.02155e-21 -0.000966648)
(4.59713e-22 3.55128e-20 -0.000793742)
(-1.00815e-21 -6.39751e-20 -0.000649951)
(-1.12765e-23 -7.19795e-21 -0.000530182)
(-6.12391e-22 -5.10362e-20 -0.000430072)
(-1.22665e-22 -7.53788e-21 -0.000345871)
(1.51832e-22 1.46673e-20 -0.000274285)
(1.78244e-22 2.23332e-20 -0.000212358)
(-1.45366e-20 -9.33872e-22 0.0438997)
(-1.14435e-20 -1.44841e-20 0.0131636)
(3.34669e-20 2.82622e-20 -0.012785)
(-4.33302e-20 -1.2459e-20 -0.0335994)
(1.78011e-20 1.11462e-20 -0.049947)
(-1.77038e-21 -5.93014e-21 -0.0624462)
(1.05505e-20 -2.87757e-20 -0.0716792)
(5.52223e-20 3.54214e-20 -0.0781346)
(-2.06374e-20 5.08918e-20 -0.0822114)
(-1.02668e-19 -1.27388e-19 -0.0842755)
(1.41018e-19 1.50098e-19 -0.084656)
(-7.92926e-20 -7.33612e-20 -0.0836482)
(3.83447e-21 -1.07382e-20 -0.0815166)
(-2.48298e-21 -5.4936e-21 -0.0784978)
(1.02773e-19 2.24623e-19 -0.0748019)
(-3.83451e-21 4.08127e-20 -0.0706129)
(-9.58462e-20 -2.52239e-19 -0.0660905)
(7.54903e-21 5.17803e-21 -0.0613713)
(-3.5468e-21 1.32843e-22 -0.0565703)
(1.17041e-22 -9.09185e-22 -0.0517832)
(4.72147e-20 2.17429e-19 -0.0470879)
(-4.59215e-20 -2.0816e-19 -0.0425473)
(-4.34787e-20 -2.4406e-19 -0.0382088)
(4.61536e-20 2.57809e-19 -0.0341083)
(1.25141e-21 9.27292e-21 -0.0302688)
(-1.31503e-21 -9.15724e-21 -0.026706)
(1.19592e-21 9.61322e-21 -0.0234285)
(-3.30395e-20 -3.13394e-19 -0.0204381)
(3.46868e-20 3.23714e-19 -0.0177313)
(-2.85237e-20 -3.26394e-19 -0.0152999)
(3.05076e-20 3.48431e-19 -0.0131322)
(6.78899e-22 1.14209e-20 -0.0112139)
(2.45057e-20 3.79161e-19 -0.00952825)
(-4.68223e-20 -7.56788e-19 -0.00805761)
(2.32987e-20 4.01966e-19 -0.00678334)
(1.06302e-20 2.1509e-19 -0.00568661)
(-9.40613e-21 -1.90293e-19 -0.00474874)
(2.66887e-22 7.37188e-23 -0.00395162)
(-3.72106e-22 -5.37926e-23 -0.00327794)
(-3.09209e-23 6.60035e-23 -0.00271148)
(6.53704e-21 2.19259e-19 -0.00223727)
(-6.33862e-21 -2.05921e-19 -0.00184168)
(4.89404e-22 1.40518e-20 -0.0015125)
(-2.31881e-22 -1.01843e-23 -0.00123895)
(2.33428e-21 1.14512e-19 -0.00101161)
(-4.32603e-21 -2.15951e-19 -0.000822373)
(2.13144e-21 1.15792e-19 -0.000664276)
(-1.06905e-21 -5.88093e-20 -0.000531312)
(8.03418e-22 4.40249e-20 -0.00041808)
(1.91932e-22 1.47612e-20 -0.000319322)
(1.77322e-21 2.70343e-20 0.051921)
(8.81264e-21 -5.44286e-20 0.00970512)
(-5.04016e-20 3.06737e-20 -0.0259559)
(5.74935e-20 3.64966e-20 -0.0537661)
(8.81036e-21 -7.88302e-20 -0.0750533)
(2.15587e-20 5.67209e-20 -0.0909454)
(-3.81398e-20 -1.70541e-20 -0.102365)
(4.66772e-20 6.36885e-20 -0.11005)
(-1.37296e-19 -1.32144e-19 -0.114592)
(1.22383e-19 5.551e-20 -0.116511)
(-2.0795e-20 1.26912e-20 -0.116259)
(-1.08604e-20 7.35116e-22 -0.114235)
(1.52722e-20 8.93132e-21 -0.110792)
(-1.43957e-19 -2.3521e-19 -0.106246)
(1.29333e-19 2.15345e-19 -0.100871)
(-3.29442e-21 1.51453e-20 -0.09491)
(3.54953e-21 -8.07703e-21 -0.0885685)
(1.37401e-19 3.67081e-19 -0.0820224)
(-1.39072e-19 -3.5953e-19 -0.0754188)
(-1.41355e-21 -1.03448e-20 -0.0688785)
(-8.69362e-22 -4.37857e-23 -0.0624994)
(1.31873e-21 4.02535e-22 -0.0563589)
(5.13666e-22 -1.80542e-23 -0.0505169)
(4.01874e-22 8.70193e-21 -0.045015)
(1.61922e-21 3.21439e-22 -0.0398807)
(1.44398e-21 9.58046e-21 -0.0351298)
(-1.03431e-19 -6.52131e-19 -0.03077)
(1.0259e-19 6.42367e-19 -0.0268014)
(-2.14221e-22 2.59273e-22 -0.0232167)
(-4.19446e-20 -3.56371e-19 -0.0200032)
(4.39105e-20 3.68213e-19 -0.0171435)
(6.36036e-23 -3.36465e-23 -0.014617)
(-1.94016e-22 -2.7343e-22 -0.0124006)
(-3.3024e-20 -4.06634e-19 -0.0104699)
(6.25475e-20 8.10092e-19 -0.00879936)
(-5.66554e-20 -8.13203e-19 -0.00736361)
(5.27249e-20 8.27751e-19 -0.00613749)
(-4.85711e-20 -8.4125e-19 -0.00509673)
(2.31644e-20 4.2416e-19 -0.00421828)
(9.81535e-21 2.17479e-19 -0.00348058)
(-8.65237e-21 -1.90447e-19 -0.00286379)
(-6.87466e-22 -1.38755e-20 -0.00234989)
(-7.6755e-21 -2.2482e-19 -0.0019228)
(1.59772e-20 4.80446e-19 -0.00156831)
(-7.31908e-21 -2.27341e-19 -0.00127406)
(8.50463e-23 8.52714e-23 -0.00102941)
(3.08525e-22 1.44775e-20 -0.000825235)
(-7.96584e-23 -3.29647e-23 -0.00065359)
(-2.7792e-22 -1.46784e-20 -0.000507099)
(6.01439e-22 2.95749e-20 -0.000377795)
(2.75664e-20 9.47912e-23 0.0482203)
(2.67542e-22 3.2944e-22 -0.00479118)
(-6.1709e-20 2.64433e-22 -0.0488222)
(8.99775e-20 -6.14638e-22 -0.0816682)
(-2.74358e-20 -8.32108e-22 -0.10587)
(-4.17896e-20 -9.60577e-22 -0.123287)
(1.47234e-20 7.95424e-22 -0.135247)
(-1.05029e-20 -1.28808e-21 -0.142776)
(8.18644e-20 -2.29918e-20 -0.146653)
(1.94408e-19 3.04063e-19 -0.14752)
(1.01033e-20 9.30683e-20 -0.145928)
(-2.38028e-19 -3.83522e-19 -0.142355)
(2.90048e-19 4.81243e-19 -0.13722)
(-3.05435e-19 -4.7551e-19 -0.130894)
(1.5285e-19 3.00994e-19 -0.123696)
(-1.63239e-19 -3.14037e-19 -0.115905)