/*--------------------------------*- C++ -*----------------------------------*\
| =========                 |                                                 |
| \\      /  F ield         | OpenFOAM: The Open Source CFD Toolbox           |
|  \\    /   O peration     | Version:  2412                                  |
|   \\  /    A nd           | Website:  www.openfoam.com                      |
|    \\/     M anipulation  |                                                 |
\*---------------------------------------------------------------------------*/
FoamFile
{
    version     2.0;
    format      ascii;
    arch        "LSB;label=32;scalar=64";
    class       volScalarField;
    location    "12.5";
    object      p;
}
// * * * * * * * * * * * * * * * * * * * * * * * * * * * * * * * * * * * * * //

dimensions      [0 2 -2 0 0 0 0];

internalField   nonuniform List<scalar> 
5285
(
-0.000126021
-0.000137743
-0.000148496
-0.000158391
-0.000167427
-0.000175595
-0.000182907
-0.000189381
-0.000195037
-0.000199898
-0.000203988
-0.000207338
-0.000209977
-0.000211938
-0.000213255
-0.000213964
-0.0002141
-0.0002137
-0.000212803
-0.000211444
-0.000209662
-0.000207493
-0.000204974
-0.000202139
-0.000144257
-0.000156324
-0.000167223
-0.000177239
-0.000186353
-0.000194538
-0.000201809
-0.000208188
-0.000213698
-0.000218365
-0.000222217
-0.000225286
-0.000227607
-0.000229216
-0.000230149
-0.000230447
-0.000230148
-0.000229294
-0.000227925
-0.000226082
-0.000223806
-0.000221135
-0.000218111
-0.00021477
-0.000163553
-0.000175983
-0.000187014
-0.000197142
-0.000206325
-0.000214513
-0.000221724
-0.000227985
-0.000233322
-0.000237764
-0.000241343
-0.000244096
-0.00024606
-0.000247275
-0.000247783
-0.000247627
-0.000246851
-0.000245499
-0.000243615
-0.000241245
-0.000238431
-0.000235218
-0.000231648
-0.000227761
-0.000183981
-0.000196792
-0.000207947
-0.000218178
-0.00022742
-0.000235595
-0.000242723
-0.000248839
-0.000253972
-0.000258155
-0.000261424
-0.00026382
-0.000265384
-0.000266161
-0.000266197
-0.000265541
-0.000264239
-0.00026234
-0.000259894
-0.000256949
-0.000253553
-0.000249752
-0.000245593
-0.000241119
-0.000205626
-0.000218839
-0.000230109
-0.000240435
-0.000249722
-0.000257864
-0.000264884
-0.000270824
-0.000275719
-0.000279604
-0.00028252
-0.000284513
-0.000285629
-0.000285918
-0.000285432
-0.000284222
-0.000282342
-0.000279845
-0.000276785
-0.000273214
-0.000269185
-0.000264748
-0.000259953
-0.000254847
-0.000228588
-0.000242224
-0.000253599
-0.000264006
-0.000273322
-0.000281409
-0.000288292
-0.000294022
-0.000298638
-0.000302181
-0.000304697
-0.000306235
-0.00030685
-0.000306596
-0.000305529
-0.000303709
-0.000301193
-0.00029804
-0.000294309
-0.000290057
-0.000285341
-0.000280216
-0.000274734
-0.000268947
-0.000252976
-0.000267055
-0.000278521
-0.000288995
-0.000298323
-0.000306327
-0.00031304
-0.00031852
-0.000322813
-0.000325964
-0.000328025
-0.000329052
-0.000329105
-0.000328246
-0.000326537
-0.000324042
-0.000320827
-0.000316955
-0.000312491
-0.000307497
-0.000302035
-0.000296164
-0.000289941
-0.000283422
-0.000278907
-0.000293453
-0.000304993
-0.000315517
-0.000324834
-0.000332726
-0.00033923
-0.000344415
-0.000348332
-0.000351035
-0.00035258
-0.000353032
-0.000352457
-0.000350924
-0.000348502
-0.000345263
-0.000341278
-0.000336618
-0.000331352
-0.00032555
-0.000319278
-0.000312601
-0.000305579
-0.000298272
-0.000306515
-0.000321551
-0.000333145
-0.000343698
-0.000352977
-0.000360721
-0.000366971
-0.000371809
-0.000375294
-0.000377484
-0.000378446
-0.000378251
-0.000376973
-0.000374689
-0.000371477
-0.000367415
-0.000362583
-0.000357059
-0.000350918
-0.000344236
-0.000337085
-0.000329534
-0.00032165
-0.000313495
-0.000335947
-0.000351496
-0.000363121
-0.000373677
-0.000382888
-0.000390442
-0.000396387
-0.000400819
-0.000403805
-0.000405411
-0.000405712
-0.000404788
-0.000402724
-0.000399604
-0.000395515
-0.000390546
-0.000384782
-0.000378309
-0.000371211
-0.00036357
-0.000355465
-0.000346969
-0.000338154
-0.000329087
-0.000367364
-0.000383453
-0.000395079
-0.000405607
-0.000414714
-0.00042203
-0.000427611
-0.000431569
-0.00043398
-0.00043492
-0.000434473
-0.000432731
-0.000429786
-0.000425736
-0.000420675
-0.000414702
-0.000407912
-0.0004004
-0.000392256
-0.000383571
-0.000374429
-0.00036491
-0.000355091
-0.000345044
-0.00040095
-0.000417604
-0.000429197
-0.000439661
-0.000448619
-0.000455641
-0.00046079
-0.000464195
-0.000465946
-0.000466127
-0.000464835
-0.000462172
-0.000458243
-0.000453155
-0.000447017
-0.000439935
-0.000432015
-0.000423362
-0.000414076
-0.000404253
-0.000393985
-0.00038336
-0.000372458
-0.000361357
-0.000436907
-0.000454154
-0.00046567
-0.000476026
-0.000484786
-0.000491447
-0.000496085
-0.000498849
-0.000499841
-0.000499159
-0.00049691
-0.000493211
-0.000488181
-0.000481938
-0.000474603
-0.000466296
-0.000457134
-0.00044723
-0.000436694
-0.000425631
-0.000414141
-0.000402318
-0.000390249
-0.000378015
-0.000475461
-0.000493329
-0.000504719
-0.000514915
-0.000523414
-0.000529639
-0.000533675
-0.000535696
-0.000535817
-0.000534151
-0.000530821
-0.000525957
-0.000519694
-0.000512164
-0.000503503
-0.000493841
-0.00048331
-0.000472033
-0.000460131
-0.000447718
-0.000434902
-0.000421783
-0.000408455
-0.000395004
-0.000516868
-0.000535384
-0.000546589
-0.000556563
-0.000564731
-0.000570429
-0.000573758
-0.000574917
-0.00057404
-0.000571255
-0.000566701
-0.000560528
-0.000552884
-0.00054392
-0.000533785
-0.000522627
-0.000510587
-0.000497804
-0.000484408
-0.000470524
-0.000456269
-0.000441748
-0.000427063
-0.000412305
-0.000561414
-0.00058061
-0.000591558
-0.000601234
-0.000608986
-0.000614053
-0.000616553
-0.000616714
-0.000614693
-0.000610634
-0.000604697
-0.000597048
-0.000587858
-0.000577295
-0.000565525
-0.000552711
-0.00053901
-0.000524574
-0.000509545
-0.000494059
-0.00047824
-0.000462204
-0.000446057
-0.000429895
-0.000609426
-0.000629328
-0.000639932
-0.000649221
-0.000656457
-0.000660771
-0.000662299
-0.000661307
-0.000657973
-0.000652464
-0.000644961
-0.000635654
-0.000624733
-0.000612386
-0.000598801
-0.000584154
-0.000568623
-0.000552373
-0.000535558
-0.000518326
-0.000500812
-0.000483137
-0.000465415
-0.000447746
-0.000661262
-0.000681893
-0.000692053
-0.000700847
-0.000707448
-0.000710864
-0.000711256
-0.000708931
-0.000704094
-0.000696934
-0.00068766
-0.000676486
-0.000663625
-0.000649291
-0.000633688
-0.000617018
-0.000599471
-0.000581229
-0.000562463
-0.000543329
-0.000523974
-0.000504528
-0.000485111
-0.000465826
-0.000688115
-0.000670273
-0.000651363
-0.000631595
-0.000611169
-0.000590269
-0.000569066
-0.000547716
-0.000526357
-0.000505115
-0.000484101
-2.611e-05
-4.23845e-05
-5.79988e-05
-7.29346e-05
-8.71786e-05
-0.000100716
-0.000113527
-4.02948e-05
-5.71503e-05
-7.33322e-05
-8.88193e-05
-0.000103599
-0.000117642
-0.000130913
-5.52553e-05
-7.27366e-05
-8.95262e-05
-0.000105603
-0.000120951
-0.000135528
-0.000149279
-7.1046e-05
-8.91895e-05
-0.000106624
-0.000123327
-0.000139283
-0.000154432
-0.000168698
-8.77277e-05
-0.000106576
-0.000124697
-0.000142067
-0.000158671
-0.000174429
-0.000189242
-0.000105369
-0.000124968
-0.000143821
-0.000161902
-0.000179197
-0.000195606
-0.000211003
-0.000124046
-0.000144445
-0.00016408
-0.000182921
-0.000200955
-0.00021806
-0.00023408
-0.000143838
-0.000165094
-0.000185565
-0.000205219
-0.000224045
-0.000241895
-0.00025858
-0.000164838
-0.00018701
-0.000208376
-0.000228902
-0.000248578
-0.000267227
-0.000284625
-0.000187144
-0.0002103
-0.000232626
-0.000254089
-0.000274677
-0.000294187
-0.000312348
-0.000210867
-0.000235079
-0.000258439
-0.000280908
-0.00030248
-0.000322916
-0.000341896
-0.000236128
-0.000261477
-0.00028595
-0.000309504
-0.000332136
-0.000353573
-0.000373433
-0.000263062
-0.000289638
-0.000315311
-0.000340037
-0.000363816
-0.000386336
-0.000407144
-0.00029182
-0.000319723
-0.000346694
-0.000372688
-0.000397708
-0.000421402
-0.000443233
-0.000322569
-0.000351908
-0.000380286
-0.000407655
-0.000434023
-0.000458993
-0.000481928
-0.000355496
-0.000386395
-0.000416302
-0.000445165
-0.000472999
-0.00049936
-0.00052349
-0.000390812
-0.000423409
-0.00045498
-0.000485472
-0.000514905
-0.000542786
-0.00056821
-0.000428751
-0.000463199
-0.000496586
-0.000528856
-0.000560036
-0.00058958
-0.00061641
-0.00046957
-0.000506039
-0.000541413
-0.000575624
-0.000608721
-0.000640093
-0.00066846
-0.00051355
-0.000552243
0.000103792
8.37517e-05
6.41782e-05
4.50534e-05
2.64173e-05
8.3201e-06
-9.19942e-06
9.39786e-05
7.32291e-05
5.30541e-05
3.33101e-05
1.40492e-05
-4.66453e-06
-2.27897e-05
8.36755e-05
6.21722e-05
4.13667e-05
2.09619e-05
1.03675e-06
-1.83355e-05
-3.71111e-05
7.2808e-05
5.05114e-05
2.90519e-05
7.96437e-06
-1.26907e-05
-3.27611e-05
-5.22247e-05
6.13614e-05
3.82103e-05
1.6053e-05
-5.77008e-06
-2.71604e-05
-4.79899e-05
-6.81873e-05
4.92934e-05
2.52245e-05
2.32793e-06
-2.02751e-05
-4.24709e-05
-6.40898e-05
-8.50632e-05
3.65607e-05
1.15056e-05
-1.21751e-05
-3.56053e-05
-5.86563e-05
-8.11239e-05
-0.000102923
2.31176e-05
-2.99901e-06
-2.75136e-05
-5.18234e-05
-7.5782e-05
-9.91366e-05
-0.00012184
8.91424e-06
-1.83471e-05
-4.37508e-05
-6.89999e-05
-9.39333e-05
-0.000118258
-0.000141906
-6.10334e-06
-3.46015e-05
-6.09553e-05
-8.72087e-05
-0.000113186
-0.000138546
-0.00016321
-2.19937e-05
-5.18308e-05
-7.92021e-05
-0.000106531
-0.000133629
-0.0001601
-0.000185856
-3.88204e-05
-7.01099e-05
-9.85735e-05
-0.000127058
-0.000155361
-0.000183028
-0.000209959
-5.66522e-05
-8.95208e-05
-0.00011916
-0.000148888
-0.000178491
-0.000207446
-0.000235645
-7.55639e-05
-0.000110153
-0.000141061
-0.000172131
-0.000203137
-0.000233485
-0.000263054
-9.56369e-05
-0.000132105
-0.000164387
-0.000196908
-0.000229434
-0.00026129
-0.000292341
-0.000116962
-0.000155486
-0.000189259
-0.000223353
-0.00025753
-0.000291022
-0.000323683
-0.00013963
-0.000180417
-0.000215812
-0.000251617
-0.00028759
-0.000322864
-0.000357273
-0.000163743
-0.000207013
-0.000244192
-0.00028186
-0.000319794
-0.000357011
-0.000393334
-0.000189405
-0.000235418
-0.000274544
-0.000314257
-0.000354335
-0.00039368
-0.00043209
-0.000433116
-0.000473814
0.000731644
0.000720466
0.000708784
0.00069659
0.000683874
0.000670631
0.000656854
0.000642538
0.000627683
0.000612287
0.000596351
0.000579879
0.000562878
0.000545355
0.000527323
0.000508794
0.000489786
0.000470319
0.000450415
0.000430102
0.000409408
0.000388366
0.000367013
0.000345386
0.000323529
0.000301487
0.000279307
0.00025704
0.000234738
0.000212457
0.000190253
0.000168181
0.000146307
0.000124713
0.000742423
0.000731157
0.000719363
0.00070703
0.000694149
0.00068071
0.000666708
0.000652135
0.00063699
0.000621269
0.000604973
0.000588104
0.000570669
0.000552675
0.000534132
0.000515054
0.000495459
0.000475366
0.000454798
0.000433784
0.000412353
0.00039054
0.000368383
0.000345922
0.000323204
0.000300276
0.000277188
0.000253996
0.000230756
0.000207527
0.00018437
0.000161345
0.00013853
0.000116021
0.000753688
0.000742344
0.000730448
0.000717985
0.000704944
0.000691316
0.000677091
0.000662264
0.000646827
0.000630779
0.000614118
0.000596846
0.000578967
0.000560488
0.000541418
0.000521772
0.000501567
0.000480821
0.00045956
0.000437811
0.000415607
0.000392982
0.000369977
0.000346636
0.000323005
0.000299136
0.000275085
0.000250908
0.000226668
0.000202427
0.000178252
0.000154208
0.000130385
0.000106902
0.000765461
0.000754052
0.000742063
0.000729479
0.000716288
0.000702477
0.000688036
0.000672955
0.000657229
0.000640853
0.000623823
0.00060614
0.000587808
0.000568831
0.000549219
0.000528985
0.000508146
0.000486721
0.000464736
0.000442218
0.000419201
0.000395722
0.000371823
0.000347549
0.000322952
0.000298086
0.000273009
0.000247784
0.000222476
0.000197156
0.000171892
0.000146756
0.000121852
9.73237e-05
0.000777766
0.000766305
0.000754236
0.000741543
0.00072821
0.000714224
0.000699573
0.000684245
0.000668231
0.000651526
0.000634125
0.000616026
0.000597231
0.000577744
0.000557574
0.000536733
0.000515237
0.000493105
0.000470364
0.00044704
0.00042317
0.000398792
0.000373948
0.000348689
0.000323068
0.000297141
0.000270974
0.000244631
0.000218185
0.000191709
0.00016528
0.000138973
0.00011291
8.7261e-05
0.000790627
0.000779128
0.000766993
0.000754203
0.000740741
0.000726591
0.000711737
0.000696168
0.000679871
0.000662839
0.000645064
0.000626545
0.000607279
0.000587271
0.000566528
0.00054506
0.000522883
0.000500016
0.000476485
0.000452319
0.000427553
0.000402227
0.000376388
0.000350085
0.000323377
0.000296324
0.000268995
0.00024146
0.000213797
0.000186085
0.000158408
0.000130844
0.000103537
7.66837e-05
0.000804067
0.000792548
0.000780363
0.000767492
0.000753914
0.000739611
0.000724565
0.000708762
0.000692188
0.000674832
0.000656684
0.000637741
0.000617998
0.000597459
0.000576127
0.000554013
0.000531131
0.000507501
0.000483147
0.000458098
0.000432391
0.000406068
0.000379177
0.00035177
0.000323909
0.000295659
0.000267091
0.000238284
0.000209318
0.000180282
0.000151266
0.000122353
9.37071e-05
6.55591e-05
0.000818111
0.000806591
0.000794375
0.000781439
0.000767761
0.00075332
0.000738095
0.000722069
0.000705225
0.000687549
0.000669031
0.000649662
0.000629437
0.000608356
0.000586422
0.000563644
0.000540034
0.00051561
0.000490398
0.000464426
0.000437732
0.000410359
0.000382357
0.000353781
0.000324696
0.000295171
0.000265283
0.000235116
0.000204757
0.000174301
0.000143846
0.000113482
8.33953e-05
5.38521e-05
0.000832784
0.000821285
0.000809058
0.000796077
0.000782318
0.000767755
0.000752366
0.000736129
0.000719025
0.000701038
0.000682153
0.000662359
0.000641648
0.000620018
0.000597469
0.000574008
0.000549646
0.0005244
0.000498294
0.000471358
0.000443628
0.000415149
0.000385973
0.00035616
0.000325775
0.000294893
0.000263596
0.000231974
0.000200122
0.000168142
0.00013614
0.000104214
7.25735e-05
4.1525e-05
0.000848114
0.000836658
0.000824444
0.000811441
0.00079762
0.000782955
0.000767419
0.000750987
0.000733637
0.000715348
0.000696102
0.000675886
0.000654688
0.000632502
0.000609327
0.000585166
0.000560029
0.000533932
0.000506896
0.000478951
0.000450135
0.000420493
0.000390079
0.000358953
0.000327187
0.00029486
0.000262059
0.00022888
0.000195425
0.000161807
0.00012814
9.45302e-05
6.12125e-05
2.85371e-05
0.000864124
0.00085274
0.000840564
0.000827563
0.000813706
0.000798961
0.000783299
0.000766691
0.000749109
0.000730531
0.000710934
0.000690301
0.000668616
0.000645871
0.00062206
0.000597185
0.000571251
0.000544272
0.00051627
0.000487273
0.000457319
0.000426452
0.000394729
0.000362214
0.00032898
0.000295113
0.000260704
0.000225857
0.000190683
0.000155302
0.000119841
8.44122e-05
4.92811e-05
1.48447e-05
0.000880843
0.000869559
0.00085745
0.00084448
0.000830614
0.000815815
0.000800051
0.000783287
0.000765494
0.000746643
0.000726708
0.000705666
0.000683499
0.000660192
0.000635738
0.000610134
0.000583382
0.000555495
0.00052649
0.000496396
0.000465248
0.000433094
0.00039999
0.000366002
0.000331208
0.000295698
0.00025957
0.000222935
0.000185913
0.000148635
0.000111236
7.38413e-05
3.67466e-05
4.00743e-07
0.000898296
0.000887144
0.000875135
0.000862228
0.000848383
0.00083356
0.000817721
0.000800829
0.000782847
0.000763743
0.000743485
0.000722047
0.000699404
0.000675538
0.000650437
0.000624091
0.000596503
0.000567679
0.000537636
0.000506398
0.000474002
0.000440495
0.000405932
0.000370384
0.000333932
0.000296669
0.000258702
0.000220149
0.000181139
0.000141813
0.000102322
6.27989e-05
2.35747e-05
-1.48453e-05
0.000916509
0.000905526
0.000893653
0.000880843
0.000867054
0.00085224
0.000836359
0.000819368
0.000801225
0.000781892
0.000761333
0.000739514
0.000716406
0.000691986
0.000666235
0.000639141
0.000610699
0.000580913
0.000549795
0.000517369
0.000483668
0.000448738
0.000412637
0.000375436
0.00033722
0.000298088
0.000258151
0.000217538
0.000176387
0.000134853
9.30967e-05
5.12665e-05
9.72917e-06
-3.09479e-05
0.000935508
0.000924734
0.000913035
0.000900363
0.000886668
0.000871902
0.000856015
0.000838959
0.000820687
0.000801154
0.000780319
0.00075814
0.000734584
0.000709619
0.000683221
0.000655373
0.000626063
0.000595291
0.000563065
0.000529404
0.00049434
0.000457917
0.000420194
0.000381242
0.00034115
0.000300022
0.000257976
0.000215149
0.000171691
0.00012777
8.35606e-05
3.92252e-05
-4.82855e-06
-4.7966e-05
0.000955318
0.000944795
0.000933315
0.000920824
0.000907268
0.000892591
0.000876739
0.000859659
0.000841295
0.000821598
0.000800516
0.000778004
0.00075402
0.000728525
0.000701488
0.000672884
0.000642696
0.000610917
0.00057755
0.00054261
0.000506125
0.000468137
0.000428703
0.000387898
0.000345811
0.000302551
0.000258245
0.000213038
0.000167091
0.000120586
7.37161e-05
2.66566e-05
-2.01393e-05
-6.5964e-05
0.000975965
0.000965741
0.000954527
0.000942265
0.000928895
0.000914356
0.000898587
0.000881527
0.000863116
0.000843294
0.000822003
0.000799191
0.000774805
0.0007488
0.000721136
0.000691781
0.000660709
0.000627906
0.000593369
0.000557106
0.000519142
0.000479515
0.000438281
0.000395513
0.000351305
0.00030577
0.000259041
0.000211272
0.000162638
0.000113335
6.35744e-05
1.35486e-05
-3.6241e-05
-8.50074e-05
0.00099747
0.000987598
0.000976703
0.000964724
0.000951595
0.000937247
0.000921614
0.000904627
0.000886218
0.000866319
0.000844864
0.00082179
0.000797037
0.00077055
0.000742279
0.000712182
0.000680226
0.000646386
0.000610653
0.000573027
0.000533527
0.000492187
0.000449059
0.000404216
0.000357754
0.000309788
0.00026046
0.000209933
0.000158395
0.00010606
5.31552e-05
-1.05738e-07
-5.31688e-05
-0.000105161
0.00048449
0.000479834
0.000475156
0.000470457
0.000465739
0.000461002
0.000456247
0.000451476
0.00044669
0.000441891
0.000437079
0.000432256
0.000427423
0.000422581
0.000417733
0.000412878
0.000408019
0.000403157
0.000398292
0.000393428
0.000388564
0.000383703
0.000378845
0.000373992
0.000369146
0.000364307
0.000359477
0.000354658
0.000349851
0.000345057
0.000340277
0.000335513
0.000330767
0.000326038
0.000484664
0.000479999
0.000475313
0.000470605
0.000465878
0.000461131
0.000456368
0.000451587
0.000446792
0.000441983
0.000437161
0.000432328
0.000427485
0.000422634
0.000417775
0.00041291
0.00040804
0.000403168
0.000398293
0.000393418
0.000388544
0.000383672
0.000378804
0.000373941
0.000369084
0.000364235
0.000359395
0.000354566
0.000349748
0.000344944
0.000340155
0.000335381
0.000330624
0.000325886
0.000485003
0.000480322
0.000475619
0.000470894
0.000466149
0.000461385
0.000456603
0.000451804
0.00044699
0.000442162
0.000437321
0.000432469
0.000427607
0.000422736
0.000417857
0.000412972
0.000408083
0.00040319
0.000398295
0.0003934
0.000388506
0.000383613
0.000378725
0.000373841
0.000368964
0.000364095
0.000359235
0.000354386
0.000349549
0.000344725
0.000339915
0.000335122
0.000330347
0.00032559
0.000485501
0.000480795
0.000476067
0.000471317
0.000466547
0.000461756
0.000456948
0.000452122
0.000447281
0.000442425
0.000437557
0.000432676
0.000427785
0.000422885
0.000417978
0.000413064
0.000408145
0.000403223
0.000398299
0.000393374
0.000388449
0.000383527
0.000378609
0.000373696
0.000368789
0.00036389
0.000359001
0.000354122
0.000349256
0.000344403
0.000339565
0.000334744
0.00032994
0.000325156
0.000486149
0.000481413
0.000476653
0.00047187
0.000467066
0.000462241
0.000457398
0.000452538
0.000447661
0.00044277
0.000437864
0.000432947
0.000428019
0.000423082
0.000418136
0.000413184
0.000408227
0.000403266
0.000398303
0.00039334
0.000388377
0.000383416
0.000378459
0.000373507
0.000368561
0.000363624
0.000358696
0.000353779
0.000348875
0.000343984
0.000339109
0.000334251
0.00032941
0.00032459
0.000486945
0.00048217
0.00047737
0.000472547
0.000467702
0.000462836
0.000457951
0.000453048
0.000448128
0.000443192
0.000438242
0.00043328
0.000428306
0.000423323
0.000418331
0.000413333
0.000408329
0.000403321
0.00039831
0.000393299
0.000388289
0.00038328
0.000378275
0.000373276
0.000368283
0.000363298
0.000358323
0.000353359
0.000348408
0.000343471
0.00033855
0.000333647
0.000328761
0.000323896
0.000487883
0.000483062
0.000478216
0.000473346
0.000468453
0.000463539
0.000458604
0.00045365
0.000448679
0.000443691
0.000438689
0.000433674
0.000428647
0.000423609
0.000418563
0.000413509
0.00040845
0.000403386
0.00039832
0.000393253
0.000388186
0.000383121
0.00037806
0.000373004
0.000367955
0.000362915
0.000357884
0.000352865
0.000347859
0.000342868
0.000337893
0.000332935
0.000327997
0.000323079
0.00048896
0.000484088
0.000479189
0.000474265
0.000469317
0.000464346
0.000459355
0.000454343
0.000449313
0.000444266
0.000439204
0.000434128
0.000429039
0.000423939
0.00041883
0.000413714
0.000408591
0.000403463
0.000398333
0.000393201
0.00038807
0.000382941
0.000377815
0.000372694
0.000367581
0.000362476
0.000357381
0.000352299
0.000347229
0.000342175
0.000337138
0.000332119
0.00032712
0.000322142
0.000490173
0.000485243
0.000480285
0.000475301
0.000470291
0.000465258
0.000460202
0.000455126
0.00045003
0.000444916
0.000439786
0.000434641
0.000429483
0.000424314
0.000419134
0.000413946
0.000408752
0.000403553
0.00039835
0.000393146
0.000387941
0.000382739
0.000377541
0.000372347
0.000367161
0.000361984
0.000356817
0.000351662
0.000346522
0.000341397
0.000336289
0.0003312
0.000326133
0.000321087
0.000491521
0.000486527
0.000481504
0.000476453
0.000471375
0.000466272
0.000461146
0.000455998
0.000450829
0.000445641
0.000440436
0.000435215
0.00042998
0.000424733
0.000419475
0.000414208
0.000408934
0.000403655
0.000398372
0.000393087
0.000387802
0.000382518
0.000377239
0.000371964
0.000366697
0.000361439
0.000356192
0.000350957
0.000345737
0.000340533
0.000335348
0.000330182
0.000325037
0.000319916
0.000493003
0.000487939
0.000482844
0.00047772
0.000472568
0.000467389
0.000462185
0.000456958
0.00045171
0.000446441
0.000441153
0.000435849
0.00043053
0.000425197
0.000419853
0.0004145
0.000409138
0.000403771
0.000398399
0.000393026
0.000387652
0.000382279
0.00037691
0.000371546
0.00036619
0.000360843
0.000355508
0.000350185
0.000344877
0.000339587
0.000334315
0.000329064
0.000323835
0.000318631
0.000494618
0.000489478
0.000484306
0.000479103
0.00047387
0.000468609
0.000463321
0.000458008
0.000452673
0.000447316
0.000441939
0.000436544
0.000431133
0.000425708
0.00042027
0.000414822
0.000409365
0.000403902
0.000398434
0.000392963
0.000387492
0.000382022
0.000376556
0.000371095
0.000365642
0.000360198
0.000354765
0.000349347
0.000343943
0.000338558
0.000333192
0.000327848
0.000322527
0.000317232
0.000496365
0.000491144
0.000485889
0.000480601
0.000475281
0.000469931
0.000464553
0.000459149
0.000453719
0.000448267
0.000442794
0.000437301
0.000431791
0.000426265
0.000420726
0.000415176
0.000409616
0.000404049
0.000398477
0.000392901
0.000387325
0.00038175
0.000376178
0.000370611
0.000365052
0.000359503
0.000353966
0.000348443
0.000342936
0.000337448
0.00033198
0.000326535
0.000321115
0.000315721
0.000498245
0.000492938
0.000487594
0.000482215
0.000476802
0.000471358
0.000465883
0.00046038
0.00045485
0.000449296
0.000443719
0.000438121
0.000432504
0.000426871
0.000421223
0.000415563
0.000409892
0.000404213
0.000398529
0.00039284
0.000387151
0.000381462
0.000375776
0.000370096
0.000364423
0.00035876
0.00035311
0.000347475
0.000341856
0.000336257
0.000330679
0.000325125
0.000319597
0.000314098
0.00050026
0.000494861
0.000489423
0.000483947
0.000478435
0.00047289
0.000467312
0.000461704
0.000456067
0.000450404
0.000444716
0.000439006
0.000433276
0.000427527
0.000421763
0.000415985
0.000410195
0.000404397
0.000398592
0.000392782
0.000386971
0.00038116
0.000375352
0.00036955
0.000363755
0.000357971
0.000352199
0.000346443
0.000340705
0.000334986
0.00032929
0.00032362
0.000317976
0.000312362
0.000502409
0.000496913
0.000491375
0.000485797
0.000480181
0.000474529
0.000468842
0.000463122
0.000457372
0.000451593
0.000445787
0.000439958
0.000434106
0.000428235
0.000422346
0.000416443
0.000410527
0.000404601
0.000398667
0.000392728
0.000386787
0.000380846
0.000374907
0.000368974
0.000363049
0.000357135
0.000351234
0.000345348
0.000339481
0.000333635
0.000327813
0.000322017
0.00031625
0.000310515
0.000504694
0.000499096
0.000493454
0.000487769
0.000482042
0.000476277
0.000470474
0.000464637
0.000458766
0.000452865
0.000446935
0.000440978
0.000434998
0.000428997
0.000422976
0.000416939
0.000410889
0.000404827
0.000398756
0.00039268
0.0003866
0.000380521
0.000374443
0.000368371
0.000362307
0.000356253
0.000350214
0.000344191
0.000338187
0.000332205
0.000326248
0.000320319
0.00031442
0.000308554
0.000507117
0.000501413
0.00049566
0.000489862
0.00048402
0.000478136
0.000472212
0.00046625
0.000460252
0.000454222
0.00044816
0.00044207
0.000435954
0.000429815
0.000423655
0.000417476
0.000411283
0.000405077
0.000398861
0.000392639
0.000386413
0.000380185
0.00037396
0.00036774
0.000361528
0.000355327
0.00034914
0.000342971
0.000336821
0.000330695
0.000324595
0.000318523
0.000312484
0.00030648
0.000509681
0.000503865
0.000497997
0.000492081
0.000486117
0.000480109
0.000474057
0.000467964
0.000461834
0.000455667
0.000449467
0.000443235
0.000436976
0.000430691
0.000424384
0.000418056
0.000411712
0.000405354
0.000398984
0.000392607
0.000386225
0.000379842
0.00037346
0.000367083
0.000360714
0.000354357
0.000348014
0.000341689
0.000335384
0.000329105
0.000322852
0.000316631
0.000310443
0.000304292
0.000512387
0.000506455
0.000500467
0.000494427
0.000488337
0.000482198
0.000476012
0.000469783
0.000463512
0.000457203
0.000450857
0.000444477
0.000438067
0.000431629
0.000425166
0.000418681
0.000412178
0.000405659
0.000399127
0.000392587
0.00038604
0.000379492
0.000372944
0.000366401
0.000359866
0.000353343
0.000346835
0.000340345
0.000333877
0.000327435
0.000321021
0.00031464
0.000308295
0.000301989
0.000515238
0.000509185
0.000503073
0.000496905
0.000490682
0.000484406
0.000478082
0.000471709
0.000465292
0.000458833
0.000452334
0.000445799
0.00043923
0.000432631
0.000426005
0.000419354
0.000412683
0.000405995
0.000399292
0.000392579
0.000385859
0.000379136
0.000372414
0.000365696
0.000358986
0.000352287
0.000345604
0.00033894
0.000332299
0.000325684
0.000319101
0.000312551
0.000306039
0.000299568
0.000518237
0.000512059
0.000505817
0.000499515
0.000493155
0.000486738
0.000480268
0.000473746
0.000467176
0.00046056
0.000453902
0.000447204
0.000440469
0.000433701
0.000426903
0.000420078
0.000413231
0.000406364
0.000399482
0.000392587
0.000385685
0.000378778
0.000371871
0.000364968
0.000358073
0.000351189
0.000344321
0.000337473
0.00033065
0.000323854
0.00031709
0.000310362
0.000303674
0.00029703
0.000521387
0.000515079
0.000508704
0.000502263
0.00049576
0.000489196
0.000482574
0.000475897
0.000469168
0.000462389
0.000455563
0.000448694
0.000441786
0.000434841
0.000427863
0.000420856
0.000413824
0.00040677
0.000399698
0.000392613
0.000385518
0.000378418
0.000371317
0.000364219
0.000357129
0.00035005
0.000342988
0.000335946
0.000328929
0.000321942
0.000314988
0.000308073
0.000301199
0.000294373
0.00052469
0.000518249
0.000511735
0.000505152
0.0004985
0.000491784
0.000485005
0.000478166
0.000471271
0.000464322
0.000457322
0.000450276
0.000443186
0.000436056
0.00042889
0.000421691
0.000414465
0.000407215
0.000399945
0.000392659
0.000385362
0.000378059
0.000370754
0.000363451
0.000356155
0.000348871
0.000341604
0.000334358
0.000327138
0.000319949
0.000312796
0.000305682
0.000298613
0.000291594
0.000528151
0.000521572
0.000514916
0.000508185
0.00050138
0.000494506
0.000487564
0.000480557
0.00047349
0.000466363
0.000459183
0.000451951
0.000444671
0.000437348
0.000429986
0.000422587
0.000415158
0.000407702
0.000400224
0.000392728
0.00038522
0.000377703
0.000370183
0.000362665
0.000355153
0.000347653
0.000340171
0.00033271
0.000325276
0.000317875
0.000310511
0.000303189
0.000295914
0.000288692
0.000531772
0.000525052
0.000518249
0.000511366
0.000504403
0.000497366
0.000490255
0.000483075
0.000475828
0.000468518
0.000461149
0.000453724
0.000446247
0.000438723
0.000431155
0.000423548
0.000415906
0.000408235
0.000400539
0.000392823
0.000385092
0.000377352
0.000369606
0.000361862
0.000354124
0.000346398
0.000338688
0.000331002
0.000323343
0.000315718
0.000308133
0.000300592
0.000293101
0.000285665
0.000535557
0.000528693
0.000521739
0.000514699
0.000507574
0.000500368
0.000493083
0.000485723
0.000478291
0.000470791
0.000463226
0.0004556
0.000447918
0.000440183
0.000432401
0.000424577
0.000416714
0.000408818
0.000400894
0.000392947
0.000384984
0.000377008
0.000369027
0.000361045
0.000353069
0.000345105
0.000337158
0.000329234
0.000321339
0.00031348
0.000305661
0.00029789
0.000290171
0.000282511
0.00053951
0.000532498
0.00052539
0.000518188
0.000510896
0.000503517
0.000496052
0.000488506
0.000480883
0.000473185
0.000465417
0.000457583
0.000449687
0.000441735
0.00043373
0.000425678
0.000417584
0.000409453
0.000401291
0.000393103
0.000384896
0.000376675
0.000368446
0.000360216
0.000351991
0.000343776
0.000335579
0.000327406
0.000319264
0.000311158
0.000303095
0.000295082
0.000287124
0.000279229
0.000543635
0.000536471
0.000529205
0.000521839
0.000514375
0.000506817
0.000499167
0.00049143
0.000483608
0.000475706
0.000467728
0.000459678
0.000451561
0.000443381
0.000435144
0.000426856
0.000418521
0.000410145
0.000401734
0.000393295
0.000384833
0.000376355
0.000367867
0.000359376
0.00035089
0.000342413
0.000333954
0.00032552
0.000317117
0.000308752
0.000300433
0.000292166
0.000283957
0.000275815
0.000547934
0.000540616
0.000533189
0.000525654
0.000518014
0.000510272
0.000502432
0.000494498
0.000486472
0.000478359
0.000470163
0.000461889
0.000453542
0.000445127
0.00043665
0.000428115
0.000419529
0.000410898
0.000402228
0.000393526
0.000384798
0.000376051
0.000367292
0.000358529
0.000349768
0.000341017
0.000332284
0.000323575
0.000314899
0.000306263
0.000297675
0.000289141
0.00028067
0.000272268
0.000552413
0.000544938
0.000537346
0.000529638
0.000521818
0.000513889
0.000505853
0.000497715
0.000489479
0.000481148
0.000472728
0.000464223
0.000455638
0.000446979
0.000438251
0.00042946
0.000420613
0.000411716
0.000402776
0.000393799
0.000384793
0.000375766
0.000366724
0.000357675
0.000348628
0.00033959
0.000330569
0.000321573
0.000312611
0.00030369
0.000294819
0.000286006
0.000277258
0.000268585
0.000557074
0.00054944
0.00054168
0.000533797
0.000525793
0.000517671
0.000509435
0.000501088