/*--------------------------------*- C++ -*----------------------------------*\
| =========                 |                                                 |
| \\      /  F ield         | OpenFOAM: The Open Source CFD Toolbox           |
|  \\    /   O peration     | Version:  2412                                  |
|   \\  /    A nd           | Website:  www.openfoam.com                      |
|    \\/     M anipulation  |                                                 |
\*---------------------------------------------------------------------------*/
FoamFile
{
    version     2.0;
    format      ascii;
    arch        "LSB;label=32;scalar=64";
    class       volScalarField;
    location    "24.5";
    object      p;
}
// * * * * * * * * * * * * * * * * * * * * * * * * * * * * * * * * * * * * * //

dimensions      [0 2 -2 0 0 0 0];

internalField   nonuniform List<scalar> 
63420
(
0.000921994
0.000922255
0.000923085
0.000924367
0.000926084
0.000928222
0.000930765
0.000933699
0.000937013
0.000940697
0.000944741
0.00094914
0.000953886
0.000958973
0.000964398
0.000970154
0.000976239
0.000982649
0.000989381
0.000996433
0.00100381
0.0010115
0.00101951
0.00102784
0.0010365
0.00104549
0.00105481
0.00106446
0.00107444
0.00108477
0.00109543
0.00110645
0.00111781
0.00112952
0.00114159
0.00115402
0.00116682
0.00117998
0.00119351
0.00120742
0.00122171
0.00123638
0.00125143
0.00126688
0.00128272
0.00129896
0.00131561
0.00133266
0.00135012
0.001368
0.0013863
0.00140503
0.00142418
0.00144378
0.00146381
0.000921934
0.000922195
0.000923024
0.000924305
0.000926021
0.000928158
0.000930699
0.000933631
0.000936942
0.000940623
0.000944665
0.00094906
0.000953802
0.000958885
0.000964305
0.000970057
0.000976137
0.000982541
0.000989267
0.000996313
0.00100368
0.00101136
0.00101937
0.00102769
0.00103634
0.00104532
0.00105463
0.00106427
0.00107424
0.00108455
0.00109521
0.00110621
0.00111756
0.00112926
0.00114131
0.00115372
0.0011665
0.00117964
0.00119316
0.00120704
0.00122131
0.00123595
0.00125098
0.0012664
0.00128221
0.00129842
0.00131503
0.00133205
0.00134948
0.00136732
0.00138558
0.00140426
0.00142337
0.00144291
0.00146289
0.000921814
0.000922074
0.000922903
0.000924182
0.000925895
0.000928029
0.000930566
0.000933494
0.000936801
0.000940476
0.000944511
0.0009489
0.000953634
0.00095871
0.000964121
0.000969863
0.000975933
0.000982326
0.00098904
0.000996073
0.00100342
0.00101109
0.00101908
0.00102739
0.00103603
0.00104499
0.00105427
0.00106389
0.00107384
0.00108413
0.00109476
0.00110573
0.00111705
0.00112872
0.00114074
0.00115312
0.00116586
0.00117897
0.00119244
0.00120628
0.0012205
0.0012351
0.00125008
0.00126544
0.0012812
0.00129735
0.00131389
0.00133084
0.00134819
0.00136596
0.00138414
0.00140273
0.00142175
0.00144119
0.00146107
0.000921634
0.000921894
0.00092272
0.000923996
0.000925706
0.000927835
0.000930367
0.000933289
0.000936588
0.000940255
0.000944281
0.000948659
0.000953383
0.000958446
0.000963844
0.000969572
0.000975626
0.000982003
0.000988699
0.000995714
0.00100305
0.00101069
0.00101866
0.00102695
0.00103555
0.00104448
0.00105374
0.00106333
0.00107324
0.0010835
0.00109409
0.00110502
0.0011163
0.00112792
0.0011399
0.00115223
0.00116491
0.00117796
0.00119137
0.00120515
0.0012193
0.00123382
0.00124872
0.00126401
0.00127967
0.00129573
0.00131218
0.00132903
0.00134627
0.00136392
0.00138198
0.00140044
0.00141932
0.00143862
0.00145834
0.000921394
0.000921653
0.000922477
0.00092375
0.000925454
0.000927578
0.000930102
0.000933015
0.000936305
0.000939961
0.000943975
0.000948339
0.000953048
0.000958095
0.000963476
0.000969185
0.000975218
0.000981573
0.000988246
0.000995235
0.00100254
0.00101016
0.00101809
0.00102635
0.00103492
0.00104381
0.00105303
0.00106258
0.00107245
0.00108265
0.0010932
0.00110407
0.00111529
0.00112686
0.00113877
0.00115103
0.00116364
0.00117661
0.00118994
0.00120364
0.0012177
0.00123212
0.00124692
0.0012621
0.00127765
0.00129359
0.00130991
0.00132662
0.00134372
0.00136122
0.00137911
0.00139741
0.00141611
0.00143521
0.00145472
0.000921094
0.000921353
0.000922174
0.000923442
0.00092514
0.000927256
0.000929772
0.000932674
0.000935951
0.000939594
0.000943592
0.00094794
0.00095263
0.000957657
0.000963016
0.000968701
0.000974709
0.000981036
0.00098768
0.000994638
0.00100191
0.00100949
0.00101739
0.0010256
0.00103413
0.00104298
0.00105215
0.00106164
0.00107146
0.0010816
0.00109208
0.00110289
0.00111404
0.00112553
0.00113736
0.00114954
0.00116206
0.00117494
0.00118817
0.00120176
0.0012157
0.00123001
0.00124468
0.00125973
0.00127514
0.00129093
0.00130709
0.00132363
0.00134055
0.00135786
0.00137556
0.00139364
0.00141211
0.00143098
0.00145023
0.000920735
0.000920993
0.00092181
0.000923073
0.000924764
0.000926871
0.000929375
0.000932265
0.000935528
0.000939154
0.000943134
0.000947462
0.00095213
0.000957133
0.000962465
0.000968122
0.0009741
0.000980394
0.000987002
0.000993922
0.00100115
0.00100869
0.00101655
0.00102471
0.00103319
0.00104198
0.00105109
0.00106052
0.00107027
0.00108035
0.00109075
0.00110148
0.00111255
0.00112395
0.00113568
0.00114776
0.00116018
0.00117294
0.00118605
0.00119951
0.00121332
0.00122749
0.00124201
0.00125689
0.00127214
0.00128775
0.00130372
0.00132006
0.00133678
0.00135386
0.00137132
0.00138915
0.00140736
0.00142594
0.00144489
0.00148434
0.00150559
0.00152774
0.00155085
0.00157498
0.00160018
0.00162652
0.00165408
0.00168291
0.00171311
0.00174477
0.00177798
0.00181284
0.00184947
0.00188798
0.00192852
0.00197122
0.00201625
0.00206378
0.00211399
0.0021671
0.00222333
0.00228293
0.00234618
0.00241337
0.00248485
0.00256098
0.00264216
0.00272884
0.00282152
0.00292072
0.00302705
0.00314115
0.00326373
0.00339553
0.00353735
0.00368998
0.0038542
0.00403065
0.00421974
0.00442144
0.00463503
0.00485874
0.00508961
0.00532379
0.00555743
0.00578698
0.00601891
0.00631821
0.0067739
0.0014834
0.00150465
0.0015268
0.00154991
0.00157403
0.00159923
0.00162557
0.00165312
0.00168195
0.00171215
0.0017438
0.001777
0.00181185
0.00184847
0.00188697
0.00192748
0.00197016
0.00201516
0.00206265
0.00211282
0.00216587
0.00222203
0.00228154
0.00234468
0.00241174
0.00248306
0.00255898
0.00263991
0.00272627
0.00281855
0.00291726
0.00302296
0.00313628
0.00325785
0.00338837
0.00352855
0.00367907
0.00384054
0.00401343
0.00419787
0.0043935
0.00459914
0.00481248
0.00502985
0.00524655
0.00545784
0.00565965
0.00585762
0.00611249
0.0065064
0.00148152
0.00150277
0.00152491
0.00154802
0.00157214
0.00159733
0.00162366
0.00165121
0.00168003
0.00171022
0.00174185
0.00177504
0.00180987
0.00184646
0.00188493
0.00192541
0.00196804
0.00201298
0.0020604
0.00211048
0.00216342
0.00221944
0.00227878
0.00234171
0.00240851
0.0024795
0.00255502
0.00263544
0.00272118
0.00281268
0.00291042
0.00301489
0.00312665
0.00324625
0.00337425
0.00351119
0.00365752
0.00381357
0.00397938
0.00415458
0.00433807
0.00452779
0.00472027
0.00491043
0.00509184
0.00525794
0.00540384
0.00553368
0.00569574
0.0059785
0.00147871
0.00149995
0.00152209
0.00154518
0.00156929
0.00159448
0.0016208
0.00164832
0.00167713
0.0017073
0.00173892
0.00177207
0.00180687
0.00184342
0.00188184
0.00192226
0.00196481
0.00200966
0.00205696
0.0021069
0.00215966
0.00221546
0.00227453
0.00233713
0.00240353
0.00247401
0.00254891
0.00262857
0.00271336
0.00280366
0.00289991
0.00300251
0.00311191
0.00322853
0.00335272
0.00348478
0.00362484
0.00377276
0.00392801
0.00408939
0.00425481
0.0044208
0.00458219
0.00473178
0.00486058
0.00495917
0.00502136
0.00505242
0.00508535
0.00517235
0.00147497
0.00149621
0.00151834
0.00154143
0.00156553
0.00159071
0.00161702
0.00164453
0.00167333
0.00170348
0.00173507
0.0017682
0.00180297
0.00183947
0.00187784
0.00191818
0.00196065
0.00200539
0.00205254
0.0021023
0.00215484
0.00221037
0.0022691
0.00233127
0.00239714
0.00246697
0.00254105
0.00261969
0.00270321
0.00279193
0.00288618
0.00298628
0.00309251
0.0032051
0.00332415
0.00344961
0.00358116
0.00371805
0.00385896
0.00400164
0.00414259
0.00427659
0.0043962
0.00449152
0.00455033
0.00455949
0.00451013
0.00441041
0.00428218
0.00406675
0.00147034
0.00149158
0.00151372
0.00153682
0.00156094
0.00158613
0.00161247
0.00164001
0.00166884
0.00169902
0.00173065
0.00176382
0.00179862
0.00183516
0.00187355
0.00191392
0.0019564
0.00200114
0.00204829
0.00209801
0.00215048
0.00220591
0.00226449
0.00232644
0.00239201
0.00246142
0.00253495
0.00261286
0.00269541
0.00278285
0.00287543
0.00297333
0.00307665
0.00318539
0.00329932
0.00341794
0.00354026
0.00366466
0.00378854
0.00390796
0.00401714
0.00410789
0.00416909
0.00418646
0.00414284
0.00402009
0.00380491
0.00350629
0.00313787
0.0025145
0.00146479
0.00148596
0.00150805
0.0015311
0.00155517
0.00158032
0.0016066
0.0016341
0.00166288
0.00169302
0.0017246
0.00175772
0.00179247
0.00182896
0.00186729
0.0019076
0.00195001
0.00199466
0.0020417
0.0020913
0.00214362
0.00219886
0.0022572
0.00231886
0.00238405
0.002453
0.00252593
0.00260306
0.00268462
0.0027708
0.00286172
0.00295747
0.00305797
0.00316297
0.00327192
0.00338379
0.00349688
0.0036085
0.00371448
0.00380866
0.00388211
0.00392245
0.00391324
0.00383401
0.00366104
0.00336894
0.00294103
0.00239039
0.00168057
0.000524631
-0.00349226
-0.0035605
-0.00358276
-0.00357256
-0.00354154
-0.00349266
-0.00342752
-0.00334758
-0.00325595
-0.00315285
-0.00303959
-0.00291766
-0.0027883
-0.00265275
-0.00251227
-0.00236814
-0.00222154
-0.00207366
-0.00192565
-0.00177861
-0.00163353
-0.00149133
-0.00135288
-0.001219
-0.0010904
-0.000967584
-0.000850985
-0.000740968
-0.000637807
-0.00054167
-0.000452636
-0.000370701
-0.000295786
-0.000227745
-0.000166373
-0.000111414
-6.25717e-05
-1.95162e-05
1.81065e-05
5.06675e-05
7.85471e-05
0.000102129
0.000121794
0.000137915
0.000150852
0.000160951
0.000168539
0.000173921
0.00017738
0.000179178
-0.00356409
-0.0036114
-0.00362106
-0.0036033
-0.0035672
-0.00351493
-0.00344755
-0.00336596
-0.00327405
-0.00317067
-0.00305734
-0.00293547
-0.0028062
-0.00267076
-0.00253027
-0.00238619
-0.00223955
-0.00209155
-0.00194334
-0.00179601
-0.00165057
-0.00150794
-0.00136898
-0.00123453
-0.00110532
-0.000981871
-0.000864603
-0.000753896
-0.000650033
-0.000553192
-0.000463458
-0.000380834
-0.000305246
-0.000236553
-0.000174552
-0.000118991
-6.95757e-05
-2.59775e-05
1.2157e-05
4.51985e-05
7.35277e-05
9.75289e-05
0.000117583
0.000134066
0.000147338
0.000157747
0.00016562
0.000171266
0.000174968
0.000176994
-0.00370696
-0.00371177
-0.00369639
-0.00366366
-0.00361726
-0.00355807
-0.00348601
-0.00340074
-0.00330848
-0.00320472
-0.00309121
-0.00296955
-0.00284049
-0.00270512
-0.00256496
-0.00242095
-0.00227427
-0.00212609
-0.00197754
-0.00182971
-0.00168362
-0.00154018
-0.00140028
-0.00126477
-0.00113439
-0.00100972
-0.000891177
-0.000779145
-0.000673931
-0.00057573
-0.000484641
-0.000400681
-0.000323786
-0.000253823
-0.000190599
-0.000133865
-8.33317e-05
-3.86737e-05
4.60918e-07
3.44422e-05
6.36512e-05
8.84731e-05
0.000109291
0.000126482
0.00014041
0.000151425
0.000159859
0.000166023
0.000170201
0.000172675
-0.00392673
-0.00385459
-0.00380624
-0.00375094
-0.00368895
-0.00361968
-0.00354176
-0.00345659
-0.00335855
-0.00325332
-0.00313839
-0.00301713
-0.00288855
-0.00275373
-0.00261389
-0.00247009
-0.00232344
-0.00217508
-0.00202613
-0.00187766
-0.00173071
-0.00158621
-0.00144502
-0.00130805
-0.00117606
-0.00104967
-0.000929339
-0.000815445
-0.000708324
-0.000608199
-0.000515191
-0.000429332
-0.000350576
-0.000278803
-0.000213829
-0.000155417
-0.000103282
-5.71029e-05
-1.65316e-05
1.88011e-05
4.92764e-05
7.52807e-05
9.71996e-05
0.000115412
0.000130287
0.000142178
0.00015142
0.00015833
0.000163198
0.000166323
-0.00420467
-0.00404091
-0.00394817
-0.00386017
-0.00377728
-0.00369484
-0.00360792
-0.00351778
-0.00341734
-0.00331037
-0.003196
-0.00307454
-0.00294629
-0.00281209
-0.00267283
-0.00252948
-0.00238308
-0.00223471
-0.00208547
-0.00193643
-0.00178862
-0.00164301
-0.00150046
-0.00136184
-0.00122801
-0.00109964
-0.0009772
-0.0008611
-0.000751701
-0.00064926
-0.000553923
-0.000465747
-0.000384705
-0.000310696
-0.000243552
-0.000183047
-0.000128905
-8.08132e-05
-3.84275e-05
-1.38155e-06
3.07047e-05
5.82181e-05
8.15458e-05
0.00010107
0.000117162
0.00013018
0.000140466
0.00014834
0.000154101
0.000158068
-0.00449759
-0.00427164
-0.00412408
-0.00399612
-0.00388432
-0.00378042
-0.00368048
-0.00358284
-0.00347828
-0.003369
-0.00325395
-0.0031327
-0.00300541
-0.00287251
-0.00273463
-0.00259258
-0.00244728
-0.00229972
-0.00215095
-0.00200201
-0.00185394
-0.00170771
-0.00156419
-0.00142426
-0.00128878
-0.0011585
-0.00103395
-0.000915572
-0.000803755
-0.000698795
-0.000600877
-0.000510088
-0.00042643
-0.000349829
-0.000280137
-0.000217147
-0.0001606
-0.000110195
-6.55962e-05
-2.64445e-05
7.63587e-06
3.70294e-05
6.21228e-05
8.32987e-05
0.000100931
0.000115381
0.000126994
0.000136094
0.000142996
0.000148028
-0.00477895
-0.00456126
-0.00436171
-0.00418357
-0.00402993
-0.00388978
-0.00378157
-0.00366727
-0.0035547
-0.00344115
-0.00332396
-0.00320215
-0.00307533
-0.00294345
-0.00280684
-0.00266605
-0.00252183
-0.00237506
-0.00222669
-0.00207774
-0.00192923
-0.00178214
-0.00163737
-0.00149579
-0.0013583
-0.00122569
-0.00109858
-0.000977457
-0.000862754
-0.000754809
-0.000653847
-0.000559994
-0.000473285
-0.000393676
-0.000321044
-0.000255205
-0.000195915
-0.000142887
-9.57947e-05
-5.42858e-05
-1.79881e-05
1.3482e-05
4.05118e-05
6.34867e-05
8.27843e-05
9.87706e-05
0.000111796
0.000122192
0.000130283
0.000136396
0.000179555
0.000178635
0.000176635
0.000173728
0.000170047
0.000165714
0.000160846
0.000155551
0.000149925
0.000144056
0.000138024
0.000131897
0.000125739
0.000119601
0.000113528
0.00010756
0.000101727
9.60529e-05
9.05585e-05
8.52579e-05
8.01615e-05
7.5276e-05
7.0605e-05
6.61496e-05
6.19088e-05
5.78798e-05
5.40587e-05
5.04404e-05
4.70193e-05
4.37892e-05
4.07435e-05
3.78757e-05
3.51789e-05
3.26465e-05
3.02717e-05
2.80477e-05
2.59676e-05
2.40247e-05
2.22121e-05
2.05228e-05
1.89504e-05
1.74874e-05
1.6129e-05
1.48646e-05
1.36932e-05
1.26105e-05
1.16023e-05
1.06692e-05
9.80638e-06
9.0082e-06
8.27044e-06
7.589e-06
6.96002e-06
6.37985e-06
5.84508e-06
5.35248e-06
4.89903e-06
4.4819e-06
4.09841e-06
3.74607e-06
3.42255e-06
3.12564e-06
2.85334e-06
2.60373e-06
2.37503e-06
2.16563e-06
1.97396e-06
1.79865e-06
1.63836e-06
1.49187e-06
1.35807e-06
1.2359e-06
1.1244e-06
1.0227e-06
9.29974e-07
8.45457e-07
7.68505e-07
6.98425e-07
6.34748e-07
5.76766e-07
5.24329e-07
4.76336e-07
4.33556e-07
3.93511e-07
3.59486e-07
3.25037e-07
3.00016e-07
2.67708e-07
2.54022e-07
2.1804e-07
2.215e-07
1.71926e-07
2.03604e-07
1.24962e-07
2.02034e-07
7.35753e-08
2.17131e-07
1.71494e-08
2.45166e-07
-3.92434e-08
2.76219e-07
-8.3943e-08
2.95879e-07
-1.03271e-07
2.92611e-07
-9.22605e-08
2.70801e-07
-6.77474e-08
2.61476e-07
-7.43725e-08
3.20917e-07
-1.75335e-07
5.1282e-07
-4.32177e-07
8.79787e-07
0.000177613
0.000176814
0.000174931
0.000172154
0.000168599
0.000164387
0.000159632
0.000154442
0.000148914
0.000143136
0.000137187
0.000131138
0.000125049
0.000118976
0.000112962
0.000107048
0.000101263
9.56337e-05
9.01795e-05
8.49155e-05
7.98522e-05
7.49967e-05
7.03529e-05
6.59222e-05
6.17036e-05
5.76949e-05
5.3892e-05
5.02903e-05
4.68842e-05
4.36677e-05
4.06343e-05
3.77776e-05
3.50909e-05
3.25676e-05
3.02009e-05
2.79843e-05
2.59108e-05
2.39739e-05
2.21666e-05
2.04822e-05
1.8914e-05
1.74549e-05
1.60999e-05
1.48386e-05
1.36699e-05
1.25897e-05
1.15837e-05
1.06526e-05
9.79158e-06
8.99501e-06
8.25869e-06
7.57855e-06
6.95072e-06
6.37159e-06
5.83774e-06
5.34597e-06
4.89327e-06
4.4768e-06
4.0939e-06
3.74208e-06
3.41902e-06
3.12253e-06
2.8506e-06
2.60131e-06
2.3729e-06
2.16375e-06
1.97231e-06
1.7972e-06
1.63709e-06
1.49075e-06
1.35708e-06
1.23503e-06
1.12364e-06
1.02203e-06
9.29393e-07
8.44947e-07
7.68058e-07
6.98035e-07
6.34406e-07
5.76468e-07
5.24067e-07
4.76107e-07
4.33356e-07
3.93335e-07
3.59333e-07
3.24905e-07
2.99899e-07
2.67609e-07
2.5393e-07
2.17964e-07
2.21426e-07
1.71873e-07
2.03543e-07
1.24927e-07
2.0198e-07
7.35536e-08
2.1708e-07
1.71394e-08
2.45122e-07
-3.92498e-08
2.76186e-07
-8.39531e-08
2.95859e-07
-1.03284e-07
2.92592e-07
-9.22673e-08
2.70776e-07
-6.77437e-08
2.61432e-07
-7.43388e-08
3.20848e-07
-1.75295e-07
5.12804e-07
-4.32189e-07
8.79962e-07
0.000173751
0.000173195
0.000171551
0.000169031
0.000165728
0.000161753
0.000157222
0.000152241
0.000146907
0.000141309
0.000135525
0.000129628
0.000123679
0.000117733
0.000111836
0.000106028
0.00010034
9.47988e-05
8.94247e-05
8.42333e-05
7.9236e-05
7.44402e-05
6.98506e-05
6.54688e-05
6.12947e-05
5.73261e-05
5.35597e-05
4.9991e-05
4.66147e-05
4.34252e-05
4.04164e-05
3.75818e-05
3.49152e-05
3.241e-05
3.00597e-05
2.78577e-05
2.57976e-05
2.38725e-05
2.20759e-05
2.0401e-05
1.88413e-05
1.73899e-05
1.60418e-05
1.47866e-05
1.36234e-05
1.25482e-05
1.15466e-05
1.06195e-05
9.76202e-06
8.96867e-06
8.23522e-06
7.55766e-06
6.93214e-06
6.35508e-06
5.82309e-06
5.33298e-06
4.88176e-06
4.4666e-06
4.08487e-06
3.7341e-06
3.41197e-06
3.11631e-06
2.84511e-06
2.59647e-06
2.36865e-06
2.16e-06
1.96902e-06
1.7943e-06
1.63454e-06
1.48852e-06
1.35512e-06
1.23331e-06
1.12213e-06
1.0207e-06
9.28228e-07
8.43929e-07
7.67168e-07
6.97257e-07
6.33728e-07
5.75872e-07
5.23547e-07
4.75651e-07
4.32955e-07
3.92987e-07
3.59025e-07
3.2464e-07
2.99662e-07
2.67411e-07
2.53743e-07
2.17816e-07
2.21275e-07
1.71766e-07
2.03418e-07
1.24859e-07
2.01872e-07
7.35118e-08
2.16984e-07
1.71123e-08
2.45037e-07
-3.92658e-08
2.76123e-07
-8.39697e-08
2.95811e-07
-1.03305e-07
2.92556e-07
-9.22886e-08
2.70733e-07
-6.77442e-08
2.61354e-07
-7.4287e-08
3.20729e-07
-1.75226e-07
5.12774e-07
-4.32218e-07
8.80306e-07
0.000168015
0.000167829
0.000166549
0.000164413
0.000161481
0.000157856
0.000153653
0.00014898
0.000143932
0.000138598
0.000133058
0.000127385
0.000121643
0.000115885
0.000110161
0.00010451
9.8966e-05
9.35555e-05
8.83003e-05
8.32168e-05
7.83174e-05
7.36105e-05
6.91013e-05
6.47925e-05
6.06844e-05
5.67757e-05
5.30635e-05
4.9544e-05
4.62123e-05
4.30631e-05
4.00908e-05
3.72893e-05
3.46526e-05
3.21744e-05
2.98485e-05
2.76686e-05
2.56281e-05
2.37208e-05
2.19401e-05
2.02795e-05
1.87326e-05
1.72926e-05
1.59547e-05
1.47088e-05
1.35539e-05
1.24859e-05
1.1491e-05
1.05699e-05
9.71777e-06
8.92921e-06
8.20008e-06
7.52638e-06
6.90433e-06
6.33037e-06
5.80115e-06
5.31352e-06
4.86451e-06
4.45132e-06
4.07136e-06
3.72215e-06
3.40141e-06
3.10699e-06
2.83689e-06
2.58923e-06
2.36227e-06
2.15439e-06
1.96408e-06
1.78996e-06
1.63072e-06
1.48517e-06
1.35218e-06
1.23073e-06
1.11987e-06
1.01872e-06
9.26486e-07
8.42405e-07
7.65834e-07
6.96091e-07
6.32709e-07
5.74979e-07
5.22766e-07
4.74966e-07
4.32355e-07
3.92464e-07
3.58565e-07
3.24243e-07
2.99307e-07
2.67112e-07
2.53464e-07
2.17593e-07
2.21051e-07
1.71606e-07
2.03233e-07
1.24754e-07
2.01712e-07
7.34469e-08
2.16844e-07
1.70724e-08
2.44914e-07
-3.92915e-08
2.7603e-07
-8.39966e-08
2.95742e-07
-1.03339e-07
2.92505e-07
-9.23232e-08
2.70673e-07
-6.7747e-08
2.61241e-07
-7.42149e-08
3.20558e-07
-1.75129e-07
5.12735e-07
-4.32264e-07
8.80815e-07
0.000160479
0.000160791
0.000160009
0.000158377
0.000155927
0.000152757
0.000148982
0.000144708
0.00014003
0.00013504
0.000129818
0.000124437
0.000118963
0.000113452
0.000107954
0.000102509
9.71535e-05
9.19145e-05
8.68154e-05
8.18738e-05
7.71033e-05
7.25133e-05
6.81102e-05
6.38976e-05
5.98767e-05
5.60471e-05
5.24065e-05
4.89519e-05
4.5679e-05
4.25832e-05
3.96592e-05
3.69015e-05
3.43043e-05
3.18619e-05
2.95683e-05
2.74174e-05
2.54032e-05
2.35194e-05
2.17598e-05
2.01181e-05
1.85882e-05
1.71634e-05
1.58391e-05
1.46054e-05
1.34614e-05
1.24032e-05
1.14172e-05
1.05039e-05
9.65892e-06
8.87675e-06
8.15334e-06
7.48477e-06
6.86733e-06
6.29749e-06
5.77196e-06
5.28763e-06
4.84156e-06
4.431e-06
4.05337e-06
3.70625e-06
3.38737e-06
3.0946e-06
2.82596e-06
2.57959e-06
2.35378e-06
2.14692e-06
1.95751e-06
1.78418e-06
1.62565e-06
1.48071e-06
1.34826e-06
1.22729e-06
1.11685e-06
1.01607e-06
9.24168e-07
8.40376e-07
7.64057e-07
6.94537e-07
6.31351e-07
5.73789e-07
5.21724e-07
4.74054e-07
4.31556e-07
3.91768e-07
3.57952e-07
3.23713e-07
2.98835e-07
2.66713e-07
2.53095e-07
2.17294e-07
2.20756e-07
1.71391e-07
2.02991e-07
1.2461e-07
2.01505e-07
7.33537e-08
2.16665e-07
1.7011e-08
2.44763e-07
-3.9338e-08
2.75919e-07
-8.40472e-08
2.95666e-07
-1.034e-07
2.92451e-07
-9.23823e-08
2.70604e-07
-6.77614e-08
2.61103e-07
-7.41321e-08
3.20347e-07
-1.75019e-07
5.12704e-07
-4.32352e-07
8.81503e-07
0.000151239
0.00015219
0.00015204
0.000151023
0.000149158
0.000146537
0.000143277
0.000139484
0.000135255
0.00013068
0.000125842
0.000120817
0.000115669
0.000110459
0.000105236
0.000100044
9.49184e-05
8.98896e-05
8.4982e-05
8.02147e-05
7.56026e-05
7.11565e-05
6.6884e-05
6.27899e-05
5.88766e-05
5.51444e-05
5.15923e-05
4.82179e-05
4.50177e-05
4.19879e-05
3.91236e-05
3.642e-05
3.38719e-05
3.14738e-05
2.92201e-05
2.71053e-05
2.51235e-05
2.32688e-05
2.15354e-05
1.99172e-05
1.84084e-05
1.70025e-05
1.56951e-05
1.44766e-05
1.33462e-05
1.23002e-05
1.13252e-05
1.04218e-05
9.58561e-06
8.81139e-06
8.0951e-06
7.43294e-06
6.82122e-06
6.25652e-06
5.73558e-06
5.25535e-06
4.81295e-06
4.40566e-06
4.03095e-06
3.68642e-06
3.36985e-06
3.07914e-06
2.81232e-06
2.56757e-06
2.34319e-06
2.1376e-06
1.94931e-06
1.77697e-06
1.61931e-06
1.47514e-06
1.34338e-06
1.223e-06
1.11309e-06
1.01278e-06
9.21277e-07
8.37844e-07
7.6184e-07
6.92598e-07
6.29654e-07
5.72304e-07
5.20424e-07
4.72917e-07
4.30558e-07
3.90898e-07
3.57187e-07
3.23051e-07
2.98245e-07
2.66213e-07
2.52633e-07
2.16921e-07
2.20387e-07
1.71123e-07
2.02688e-07
1.2443e-07
2.01246e-07
7.32392e-08
2.1644e-07
1.69382e-08
2.44572e-07
-3.93919e-08
2.75776e-07
-8.41057e-08
2.95567e-07
-1.03472e-07
2.92379e-07
-9.24519e-08
2.70515e-07
-6.77769e-08
2.60929e-07
-7.40296e-08
3.20086e-07
-1.74881e-07
5.12661e-07
-4.32451e-07
8.82312e-07
0.000140403
0.000142153
0.000142774
0.000142472
0.000141276
0.000139286
0.000136618
0.000133378
0.000129665
0.000125569
0.000121176
0.000116562
0.000111795
0.000106934
0.000102033
9.7135e-05
9.2279e-05
8.74965e-05
8.28136e-05
7.8251e-05
7.38252e-05
6.95486e-05
6.54301e-05
6.14759e-05
5.76895e-05
5.40726e-05
5.06251e-05
4.73456e-05
4.42316e-05
4.12798e-05
3.84863e-05
3.58469e-05
3.33569e-05
3.10114e-05
2.88052e-05
2.67332e-05
2.479e-05
2.297e-05
2.12678e-05
1.96775e-05
1.81938e-05
1.68103e-05
1.55231e-05
1.43227e-05
1.32086e-05
1.21771e-05
1.12152e-05
1.03236e-05
9.49799e-06
8.73325e-06
8.02548e-06
7.37096e-06
6.76609e-06
6.20752e-06
5.69207e-06
5.21675e-06
4.77873e-06
4.37535e-06
4.00412e-06
3.6627e-06
3.34889e-06
3.06063e-06
2.79599e-06
2.55318e-06
2.33051e-06
2.12644e-06
1.93949e-06
1.76834e-06
1.61172e-06
1.46848e-06
1.33752e-06
1.21787e-06
1.10858e-06
1.00883e-06
9.17814e-07
8.34811e-07
7.59184e-07
6.90273e-07
6.2762e-07
5.70524e-07
5.18865e-07
4.71554e-07
4.29362e-07
3.89857e-07
3.56268e-07
3.22259e-07
2.97534e-07
2.65619e-07
2.52072e-07
2.16486e-07
2.19927e-07
1.70826e-07
2.02291e-07
1.24258e-07
2.00878e-07
7.3175e-08
2.1608e-07
1.69596e-08
2.44219e-07
-3.93144e-08
2.75449e-07
-8.40125e-08
2.95282e-07
-1.03396e-07
2.92139e-07
-9.23946e-08
2.70282e-07
-6.7684e-08
2.60617e-07
-7.38032e-08
3.19651e-07
-1.74557e-07
5.12386e-07
-4.32269e-07
8.82874e-07
0.000127748
0.000130539
0.000132106
0.00013262
0.000132183
0.000130907
0.000128909
0.000126297
0.000123171
0.000119623
0.00011574
0.000111598
0.000107268
0.000102811
9.82809e-05
9.37244e-05
8.91814e-05
8.46854e-05
8.02642e-05
7.59406e-05
7.17325e-05
6.76541e-05
6.3716e-05
5.99257e-05
5.62883e-05
5.28068e-05
4.94823e-05
4.63144e-05
4.33017e-05
4.0442e-05
3.7732e-05
3.51683e-05
3.27468e-05
3.04633e-05
2.83132e-05
2.62918e-05
2.43941e-05
2.26152e-05
2.09499e-05
1.93927e-05
1.79387e-05
1.6582e-05
1.53186e-05
1.41398e-05
1.3045e-05
1.20307e-05
1.10844e-05
1.02068e-05
9.39371e-06
8.64026e-06
7.94262e-06
7.29718e-06
6.70046e-06
6.14918e-06
5.64026e-06
5.17077e-06
4.73796e-06
4.33924e-06
3.97216e-06
3.63444e-06
3.32392e-06
3.03858e-06
2.77654e-06
2.53603e-06
2.3154e-06
2.11313e-06
1.92779e-06
1.75805e-06
1.60268e-06
1.46053e-06
1.33055e-06
1.21174e-06
1.10321e-06
1.00411e-06
9.13682e-07
8.31191e-07
7.56013e-07
6.87497e-07
6.2519e-07
5.68398e-07
5.17002e-07
4.69926e-07
4.27932e-07
3.88614e-07
3.55167e-07
3.21318e-07
2.96678e-07
2.64918e-07
2.51387e-07
2.15988e-07
2.19348e-07
1.70514e-07
2.01759e-07
1.24129e-07
2.00338e-07
7.32267e-08
2.15492e-07
1.71762e-08
2.43576e-07
-3.89713e-08
2.74785e-07
-8.36133e-08
2.94648e-07
-1.03019e-07
2.91582e-07
-9.20818e-08
2.69788e-07
-6.73827e-08
2.6007e-07
-7.33556e-08
3.18922e-07
-1.73893e-07
5.11667e-07
-4.31525e-07
8.82879e-07
0.00011389
0.000117669
0.000120178
0.000121564
0.000121949
0.000121453
0.000120193
0.000118274
0.000115799
0.000112861
0.000109546
0.000105934
0.000102095
9.80924e-05
9.39817e-05
8.98114e-05
8.56233e-05
8.14527e-05
7.73295e-05
7.32782e-05
6.93188e-05
6.54672e-05
6.17357e-05
5.81335e-05
5.46673e-05
5.13415e-05
4.81584e-05
4.51192e-05
4.22234e-05
3.94697e-05
3.68561e-05
3.43798e-05
3.20376e-05
2.98258e-05
2.77406e-05
2.57778e-05
2.3933e-05
2.22017e-05
2.05792e-05
1.90605e-05
1.76411e-05
1.63154e-05
1.50799e-05
1.39262e-05
1.28538e-05
1.18596e-05
1.09316e-05
1.00702e-05
9.27184e-06
8.53155e-06
7.84574e-06
7.21091e-06
6.6237e-06
6.08094e-06
5.57965e-06
5.11698e-06
4.69027e-06
4.29699e-06
3.93476e-06
3.60136e-06
3.29468e-06
3.01276e-06
2.75376e-06
2.51594e-06
2.2977e-06
2.09755e-06
1.91408e-06
1.74599e-06
1.59208e-06
1.45122e-06
1.32237e-06
1.20456e-06
1.09691e-06
9.9859e-07
9.0884e-07
8.26948e-07
7.52297e-07
6.84243e-07
6.22341e-07
5.65905e-07
5.14819e-07
4.68016e-07
4.26257e-07
3.87154e-07
3.5388e-07
3.20206e-07
2.95683e-07
2.64081e-07
2.50606e-07
2.15371e-07
2.18715e-07
1.70084e-07
2.0122e-07
1.23866e-07
1.99848e-07
7.31057e-08
2.15025e-07
1.71666e-08
2.43128e-07
-3.89113e-08
2.74378e-07
-8.35376e-08
2.94304e-07
-1.02972e-07
2.91306e-07
-9.2065e-08
2.69531e-07
-6.73299e-08
2.59723e-07
-7.3146e-08
3.18434e-07
-1.73573e-07
5.11408e-07
-4.31408e-07
8.83805e-07
9.92385e-05
0.000103969
0.000107408
0.000109686
0.000110924
0.000111242
0.000110755
0.000109568
0.000107783
0.000105493
0.000102786
9.97404e-05
9.6429e-05
9.29161e-05
8.92586e-05
8.55067e-05
8.17039e-05
7.78876e-05
7.40893e-05
7.03357e-05
6.66485e-05
6.30455e-05
5.95409e-05
5.61456e-05
5.28678e-05
4.97136e-05
4.66867e-05
4.37896e-05
4.1023e-05
3.83869e-05
3.588e-05
3.35006e-05
3.12462e-05
2.91141e-05
2.7101e-05
2.52033e-05
2.34173e-05
2.1739e-05
2.01641e-05
1.86884e-05
1.73075e-05
1.60165e-05
1.48122e-05
1.36865e-05
1.26393e-05
1.16677e-05
1.076e-05
9.91699e-06
9.13502e-06
8.4095e-06
7.73695e-06
7.11402e-06
6.53748e-06
6.00429e-06
5.51155e-06
5.05654e-06
4.63667e-06
4.24949e-06
3.89271e-06
3.56417e-06
3.26181e-06
2.98373e-06
2.72813e-06
2.49334e-06
2.27779e-06
2.08002e-06
1.89865e-06
1.73242e-06
1.58015e-06
1.44074e-06
1.31316e-06
1.19648e-06
1.08982e-06
9.92371e-07
9.03387e-07
8.2217e-07
7.4811e-07
6.80577e-07
6.19131e-07
5.63095e-07
5.12358e-07
4.65864e-07
4.2437e-07
3.85507e-07
3.52432e-07
3.1895e-07
2.94567e-07
2.63129e-07
2.49735e-07
2.14659e-07
2.18023e-07
1.6957e-07
2.00653e-07
1.23515e-07
1.99365e-07
7.28845e-08
2.14601e-07
1.70347e-08
2.42763e-07
-3.89998e-08
2.74089e-07
-8.36312e-08
2.941e-07
-1.031e-07
2.91171e-07
-9.22145e-08
2.69402e-07
-6.74269e-08
2.59492e-07
-7.30857e-08
3.18086e-07
-1.73455e-07
5.11406e-07
-4.31641e-07
8.85299e-07
8.39272e-05
8.95988e-05
9.39652e-05
9.71432e-05
9.92488e-05
0.0001004
0.000100709
0.00010028
9.92117e-05
9.75988e-05
9.5528e-05
9.3079e-05
9.03244e-05
8.73297e-05
8.41533e-05
8.08467e-05
7.74552e-05
7.40177e-05
7.05678e-05
6.71339e-05
6.37397e-05
6.04049e-05
5.71453e-05
5.39738e-05
5.09003e-05
4.79323e-05
4.50751e-05
4.23325e-05
3.97066e-05
3.71985e-05
3.4808e-05
3.25343e-05
3.0376e-05
2.83309e-05
2.63967e-05
2.45703e-05
2.28487e-05
2.12286e-05
1.97061e-05
1.82776e-05
1.69391e-05
1.56863e-05
1.45163e-05
1.34216e-05
1.24021e-05
1.14554e-05
1.05702e-05
9.74739e-06
8.98358e-06
8.27438e-06
7.61649e-06
7.00671e-06
6.44197e-06
5.91936e-06
5.43609e-06
4.98955e-06
4.57725e-06
4.19684e-06
3.84609e-06
3.52292e-06
3.22535e-06
2.95152e-06
2.6997e-06
2.46827e-06
2.2557e-06
2.06056e-06
1.88152e-06
1.71735e-06
1.5669e-06
1.4291e-06
1.30294e-06
1.18751e-06
1.08195e-06
9.85462e-07
8.97329e-07
8.16859e-07
7.43457e-07
6.76501e-07
6.15562e-07
5.5997e-07
5.09622e-07
4.63469e-07
4.22271e-07
3.83675e-07
3.5082e-07
3.17551e-07
2.93325e-07
2.62068e-07
2.48769e-07
2.13866e-07
2.17255e-07
1.68995e-07
2.00025e-07
1.23122e-07
1.98829e-07
7.26363e-08
2.14131e-07
1.68886e-08
2.42355e-07
-3.90944e-08
2.73762e-07
-8.37301e-08
2.93868e-07
-1.03241e-07
2.91022e-07
-9.23893e-08
2.69274e-07
-6.75619e-08
2.59273e-07
-7.30686e-08
3.17752e-07
-1.73376e-07
5.11433e-07
-4.31919e-07
8.8697e-07
6.81274e-05
7.47281e-05
8.00117e-05
8.4086e-05
8.70619e-05
8.90534e-05
9.01691e-05
9.05109e-05
9.0177e-05
8.92597e-05
8.78454e-05
8.60138e-05
8.38377e-05
8.13832e-05
7.87097e-05
7.58701e-05
7.29109e-05
6.98727e-05
6.67909e-05
6.36956e-05
6.06124e-05
5.75626e-05
5.45642e-05
5.16316e-05
4.87763e-05
4.60076e-05
4.33323e-05
4.07555e-05
3.82808e-05
3.59103e-05
3.36452e-05
3.14855e-05
2.94307e-05
2.74796e-05
2.56305e-05
2.38813e-05
2.22294e-05
2.06722e-05
1.92066e-05
1.78293e-05
1.6537e-05
1.53257e-05
1.41931e-05
1.3132e-05
1.21427e-05
1.12233e-05
1.03627e-05
9.56187e-06
8.81788e-06
8.12651e-06
7.48463e-06
6.88923e-06
6.33739e-06
5.82634e-06
5.35343e-06
4.91616e-06
4.51215e-06
4.13913e-06
3.79499e-06
3.4777e-06
3.18536e-06
2.91619e-06
2.66852e-06
2.44076e-06
2.23145e-06
2.0392e-06
1.86272e-06
1.70081e-06
1.55236e-06
1.41632e-06
1.29171e-06
1.17765e-06
1.07329e-06
9.77871e-07
8.90672e-07
8.11023e-07
7.38342e-07
6.72021e-07
6.11638e-07
5.56535e-07
5.06612e-07
4.60836e-07
4.19963e-07
3.81659e-07
3.49047e-07
3.16012e-07
2.91959e-07
2.609e-07
2.47705e-07
2.12992e-07
2.16411e-07
1.68361e-07
1.99333e-07
1.22689e-07
1.98237e-07
7.23674e-08
2.13606e-07
1.67378e-08
2.41893e-07
-3.91829e-08
2.73384e-07
-8.38198e-08
2.93594e-07
-1.03379e-07
2.90846e-07
-9.25759e-08
2.69137e-07
-6.77247e-08
2.59057e-07
-7.30875e-08
3.17425e-07
-1.73323e-07
5.11465e-07
-4.32208e-07
8.88746e-07
5.20184e-05
5.95232e-05
6.57027e-05
7.06579e-05
7.44943e-05
7.73214e-05
7.92437e-05
8.03605e-05
8.07674e-05
8.05553e-05
7.98092e-05
7.86083e-05
7.70253e-05
7.51266e-05
7.29722e-05