/*--------------------------------*- C++ -*----------------------------------*\
| =========                 |                                                 |
| \\      /  F ield         | OpenFOAM: The Open Source CFD Toolbox           |
|  \\    /   O peration     | Version:  2412                                  |
|   \\  /    A nd           | Website:  www.openfoam.com                      |
|    \\/     M anipulation  |                                                 |
\*---------------------------------------------------------------------------*/
FoamFile
{
    version     2.0;
    format      ascii;
    arch        "LSB;label=32;scalar=64";
    class       surfaceScalarField;
    location    "24.5";
    object      phi;
}
// * * * * * * * * * * * * * * * * * * * * * * * * * * * * * * * * * * * * * //

dimensions      [0 3 -1 0 0 0 0];

oriented        oriented;

internalField   nonuniform List<scalar> 
126304
(
0.00505063
1.29606e-07
2.06249e-11
0.00505025
3.77947e-07
5.41108e-11
0.00504964
6.13061e-07
7.17079e-11
0.0050488
8.36647e-07
7.92818e-11
0.00504775
1.05014e-06
8.47325e-11
0.00504649
1.25442e-06
9.36518e-11
0.00504504
1.45091e-06
1.07541e-10
0.0050434
1.64378e-06
1.21777e-10
0.00504156
1.84186e-06
1.23235e-10
0.0050395
2.05847e-06
9.03631e-11
0.00503719
2.30828e-06
-1.00591e-12
0.00503459
2.60226e-06
-1.67532e-10
0.00503165
2.94275e-06
-4.08911e-10
0.00502833
3.32103e-06
-7.02889e-10
0.00502461
3.71831e-06
-1.00703e-09
0.0050205
4.10982e-06
-1.26725e-09
0.00501603
4.47028e-06
-1.43023e-09
0.00501125
4.77905e-06
-1.455e-09
0.00500623
5.02351e-06
-1.32039e-09
0.00500103
5.20021e-06
-1.02753e-09
0.00499572
5.31394e-06
-5.97553e-10
0.00499034
5.37555e-06
-6.58619e-11
0.00498494
5.39911e-06
5.25561e-10
0.00497954
5.39943e-06
1.13506e-09
0.00497415
5.39004e-06
1.72633e-09
0.00496877
5.382e-06
2.27121e-09
0.00496338
5.38345e-06
2.75085e-09
0.00495798
5.39959e-06
3.15549e-09
0.00495254
5.43319e-06
3.48293e-09
0.00494705
5.48506e-06
3.73655e-09
0.00494149
5.5547e-06
3.92328e-09
0.00493585
5.6408e-06
4.05195e-09
0.0049301
5.74165e-06
4.13201e-09
0.00492424
5.85545e-06
4.17264e-09
0.00491826
5.98048e-06
4.18203e-09
0.00491214
6.11523e-06
4.16724e-09
0.00490588
6.25843e-06
4.13406e-09
0.00489946
6.40906e-06
4.08713e-09
0.00489289
6.56634e-06
4.02996e-09
0.00488616
6.72966e-06
3.96521e-09
0.00487926
6.8986e-06
3.89487e-09
0.00487218
7.07285e-06
3.8204e-09
0.00486493
7.2522e-06
3.74283e-09
0.00485749
7.43651e-06
3.6628e-09
0.00484986
7.62571e-06
3.58081e-09
0.00484203
7.81974e-06
3.49712e-09
0.00483401
8.01861e-06
3.41188e-09
0.00482579
8.22233e-06
3.32527e-09
0.00481735
8.43092e-06
3.23738e-09
0.0048087
8.64446e-06
3.14831e-09
0.00479984
8.86308e-06
3.05808e-09
0.00479075
9.08709e-06
2.96671e-09
0.00478143
9.31732e-06
2.87425e-09
0.00477187
9.55618e-06
2.78087e-09
9.81048e-06
0.00476205
2.68714e-09
0.00505063
2.59147e-07
0.00505025
7.55678e-07
0.00504964
1.22576e-06
0.0050488
1.67278e-06
0.00504775
2.09962e-06
0.0050465
2.50804e-06
0.00504505
2.90088e-06
0.00504341
3.28646e-06
0.00504156
3.68237e-06
0.00503951
4.11511e-06
0.0050372
4.61399e-06
0.0050346
5.20087e-06
0.00503167
5.88052e-06
0.00502835
6.63561e-06
0.00502464
7.42879e-06
0.00502054
8.21072e-06
0.00501608
8.93103e-06
0.00501131
9.54852e-06
0.0050063
1.00379e-05
0.0050011
1.03923e-05
0.0049958
1.06211e-05
0.00499043
1.07458e-05
0.00498503
1.07944e-05
0.00497963
1.07964e-05
0.00497424
1.07788e-05
0.00496886
1.07637e-05
0.00496348
1.07671e-05
0.00495808
1.07997e-05
0.00495265
1.0867e-05
0.00494716
1.09706e-05
0.00494161
1.11095e-05
0.00493596
1.12812e-05
0.00493022
1.14823e-05
0.00492437
1.17093e-05
0.00491839
1.19586e-05
0.00491228
1.22274e-05
0.00490603
1.2513e-05
0.00489962
1.28134e-05
0.00489306
1.31271e-05
0.00488634
1.34529e-05
0.00487945
1.37899e-05
0.00487238
1.41375e-05
0.00486514
1.44953e-05
0.00485771
1.4863e-05
0.0048501
1.52404e-05
0.00484229
1.56274e-05
0.00483428
1.6024e-05
0.00482608
1.64303e-05
0.00481766
1.68463e-05
0.00480903
1.7272e-05
0.00480019
1.77079e-05
0.00479112
1.81544e-05
0.00478182
1.86131e-05
0.00477229
1.90887e-05
1.95943e-05
0.00476251
0.00505063
3.88516e-07
0.00505025
1.13287e-06
0.00504964
1.8376e-06
0.0050488
2.50773e-06
0.00504776
3.1476e-06
0.0050465
3.75987e-06
0.00504506
4.34877e-06
0.00504342
4.92672e-06
0.00504158
5.51992e-06
0.00503953
6.16796e-06
0.00503722
6.91458e-06
0.00503463
7.79258e-06
0.0050317
8.8092e-06
0.0050284
9.93879e-06
0.0050247
1.11258e-05
0.00502062
1.22965e-05
0.00501617
1.33758e-05
0.00501142
1.43019e-05
0.00500642
1.5037e-05
0.00500124
1.55704e-05
0.00499595
1.5916e-05
0.00499059
1.61056e-05
0.0049852
1.61811e-05
0.00497981
1.61863e-05
0.00497443
1.61616e-05
0.00496905
1.614e-05
0.00496367
1.61457e-05
0.00495828
1.61946e-05
0.00495285
1.6295e-05
0.00494737
1.64495e-05
0.00494183
1.66566e-05
0.00493619
1.69128e-05
0.00493046
1.72128e-05
0.00492462
1.75515e-05
0.00491866
1.79237e-05
0.00491256
1.83249e-05
0.00490632
1.87515e-05
0.00489993
1.92002e-05
0.00489339
1.96689e-05
0.00488669
2.01556e-05
0.00487982
2.0659e-05
0.00487278
2.11783e-05
0.00486556
2.17128e-05
0.00485816
2.22621e-05
0.00485058
2.28259e-05
0.0048428
2.3404e-05
0.00483483
2.39964e-05
0.00482666
2.4603e-05
0.00481828
2.52241e-05
0.00480969
2.58597e-05
0.00480089
2.65101e-05
0.00479187
2.71763e-05
0.00478262
2.78603e-05
0.00477314
2.85685e-05
2.93192e-05
0.00476341
0.00505063
5.1763e-07
0.00505025
1.50924e-06
0.00504964
2.44816e-06
0.00504881
3.34089e-06
0.00504776
4.19334e-06
0.00504651
5.00901e-06
0.00504507
5.79354e-06
0.00504343
6.56334e-06
0.0050416
7.35307e-06
0.00503955
8.21515e-06
0.00503726
9.2076e-06
0.00503468
1.03741e-05
0.00503176
1.17245e-05
0.00502848
1.32252e-05
0.0050248
1.48028e-05
0.00502073
1.636e-05
0.00501631
1.77969e-05
0.00501158
1.90315e-05
0.00500661
2.00133e-05
0.00500145
2.07277e-05
0.00499617
2.11925e-05
0.00499083
2.14499e-05
0.00498546
2.15548e-05
0.00498008
2.15654e-05
0.0049747
2.15352e-05
0.00496933
2.15081e-05
0.00496396
2.15165e-05
0.00495858
2.15814e-05
0.00495316
2.17141e-05
0.00494769
2.19182e-05
0.00494215
2.21921e-05
0.00493654
2.25308e-05
0.00493082
2.29279e-05
0.004925
2.33762e-05
0.00491905
2.38691e-05
0.00491297
2.44007e-05
0.00490676
2.49659e-05
0.0049004
2.55607e-05
0.00489389
2.6182e-05
0.00488722
2.68272e-05
0.00488038
2.74948e-05
0.00487337
2.81834e-05
0.0048662
2.88921e-05
0.00485884
2.96204e-05
0.00485129
3.03678e-05
0.00484356
3.11341e-05
0.00483564
3.19192e-05
0.00482752
3.27232e-05
0.0048192
3.3546e-05
0.00481067
3.43878e-05
0.00480193
3.5249e-05
0.00479298
3.61306e-05
0.0047838
3.70349e-05
0.0047744
3.79696e-05
3.89561e-05
0.00476477
0.00505063
6.46408e-07
0.00505025
1.88454e-06
0.00504964
3.05699e-06
0.00504881
4.17169e-06
0.00504777
5.23608e-06
0.00504653
6.25457e-06
0.00504508
7.23415e-06
0.00504345
8.19512e-06
0.00504163
9.18037e-06
0.00503959
1.02549e-05
0.0050373
1.14907e-05
0.00503473
1.29422e-05
0.00503184
1.46223e-05
0.00502857
1.64898e-05
0.00502492
1.84541e-05
0.00502089
2.03946e-05
0.0050165
2.21873e-05
0.0050118
2.37303e-05
0.00500685
2.49601e-05
0.00500172
2.58578e-05
0.00499647
2.64451e-05
0.00499114
2.67736e-05
0.00498579
2.69112e-05
0.00498042
2.693e-05
0.00497506
2.68965e-05
0.0049697
2.68651e-05
0.00496434
2.68765e-05
0.00495897
2.6957e-05
0.00495356
2.7121e-05
0.00494811
2.73731e-05
0.00494259
2.77117e-05
0.00493699
2.81307e-05
0.00493129
2.86221e-05
0.00492549
2.91774e-05
0.00491957
2.97882e-05
0.00491353
3.04472e-05
0.00490734
3.11482e-05
0.00490102
3.18861e-05
0.00489454
3.2657e-05
0.00488791
3.34578e-05
0.00488112
3.42864e-05
0.00487416
3.5141e-05
0.00486704
3.60206e-05
0.00485973
3.69244e-05
0.00485225
3.78519e-05
0.00484458
3.88027e-05
0.00483672
3.97767e-05
0.00482867
4.07737e-05
0.00482042
4.17939e-05
0.00481197
4.28372e-05
0.00480332
4.39041e-05
0.00479445
4.49955e-05
0.00478537
4.61139e-05
0.00477608
4.7267e-05
4.84771e-05
0.00476656
0.00505063
7.74774e-07
0.00505025
2.25847e-06
0.00504965
3.66369e-06
0.00504882
4.99954e-06
0.00504778
6.27509e-06
0.00504654
7.49567e-06
0.0050451
8.66958e-06
0.00504348
9.82086e-06
0.00504166
1.10004e-05
0.00503963
1.22853e-05
0.00503736
1.37615e-05
0.00503481
1.54941e-05
0.00503193
1.7499e-05
0.00502869
1.9728e-05
0.00502507
2.20741e-05
0.00502107
2.43942e-05
0.00501672
2.65407e-05
0.00501206
2.83916e-05
0.00500715
2.98708e-05
0.00500205
3.09547e-05
0.00499683
3.16682e-05
0.00499153
3.20718e-05
0.00498619
3.2246e-05
0.00498085
3.22764e-05
0.0049755
3.22418e-05
0.00497016
3.22076e-05
0.00496481
3.22224e-05
0.00495945
3.23181e-05
0.00495406
3.25119e-05
0.00494862
3.28102e-05
0.00494312
3.32109e-05
0.00493755
3.37073e-05
0.00493188
3.429e-05
0.00492611
3.49489e-05
0.00492022
3.56742e-05
0.00491421
3.64572e-05
0.00490807
3.72904e-05
0.00490179
3.81677e-05
0.00489536
3.90846e-05
0.00488878
4.00372e-05
0.00488204
4.10228e-05
0.00487515
4.20396e-05
0.00486808
4.30861e-05
0.00486084
4.41612e-05
0.00485343
4.52643e-05
0.00484584
4.6395e-05
0.00483806
4.7553e-05
0.0048301
4.8738e-05
0.00482194
4.99501e-05
0.00481359
5.11893e-05
0.00480504
5.24558e-05
0.00479628
5.37503e-05
0.00478732
5.5075e-05
0.00477815
5.64367e-05
5.78554e-05
0.00476878
0.00505063
9.02605e-07
0.00505026
2.63082e-06
0.00504965
4.26781e-06
0.00504883
5.82386e-06
0.00504779
7.30965e-06
0.00504656
8.73142e-06
0.00504513
1.00988e-05
0.00504351
1.14394e-05
0.0050417
1.28118e-05
0.00503968
1.43049e-05
0.00503742
1.60181e-05
0.00503489
1.80271e-05
0.00503204
2.03512e-05
0.00502883
2.29358e-05
0.00502525
2.56582e-05
0.00502129
2.83534e-05
0.00501698
3.08512e-05
0.00501236
3.30097e-05
0.00500749
3.47398e-05
0.00500243
3.6013e-05
0.00499724
3.68567e-05
0.00499197
3.734e-05
0.00498667
3.75551e-05
0.00498134
3.76005e-05
0.00497602
3.75675e-05
0.00497069
3.75321e-05
0.00496536
3.75507e-05
0.00496002
3.76608e-05
0.00495465
3.78831e-05
0.00494923
3.82251e-05
0.00494376
3.86851e-05
0.00493821
3.92556e-05
0.00493258
3.99259e-05
0.00492684
4.06846e-05
0.00492099
4.15204e-05
0.00491503
4.24232e-05
0.00490893
4.33844e-05
0.0049027
4.4397e-05
0.00489633
4.54554e-05
0.00488982
4.65554e-05
0.00488314
4.76937e-05
0.00487632
4.88679e-05
0.00486933
5.00764e-05
0.00486217
5.13179e-05
0.00485484
5.25915e-05
0.00484734
5.38966e-05
0.00483966
5.52329e-05
0.0048318
5.66e-05
0.00482375
5.79978e-05
0.00481551
5.94261e-05
0.00480708
6.0885e-05
0.00479846
6.2375e-05
0.00478964
6.38973e-05
0.00478062
6.54561e-05
0.00477141
6.70629e-05
0.00476221
-1.55362e-07
2.6086e-09
0.00476183
3.75508e-07
2.55401e-09
0.00476089
9.4065e-07
2.50263e-09
0.00475934
1.54347e-06
2.44635e-09
0.00475715
2.18683e-06
2.38531e-09
0.00475427
2.87424e-06
2.31985e-09
0.00475066
3.60961e-06
2.24982e-09
0.00474626
4.39729e-06
2.17514e-09
0.00474102
5.24219e-06
2.0955e-09
0.00473487
6.14974e-06
2.01075e-09
0.00472774
7.12605e-06
1.92046e-09
0.00471956
8.17796e-06
1.82433e-09
0.00471024
9.31314e-06
1.72216e-09
0.0046997
1.05402e-05
1.61579e-09
0.00468783
1.18689e-05
1.49812e-09
0.00467452
1.33103e-05
1.38717e-09
0.00465964
1.48767e-05
1.24165e-09
0.00464306
1.65824e-05
1.08256e-09
0.00462461
1.84435e-05
9.30098e-10
0.00460414
2.04785e-05
7.57238e-10
0.00458143
2.27087e-05
5.9424e-10
0.00455627
2.51585e-05
4.25584e-10
0.00452841
2.78563e-05
2.48387e-10
0.00449758
3.08351e-05
6.22875e-11
0.00446344
3.41336e-05
-1.32392e-10
0.00442565
3.77971e-05
-3.3528e-10
0.00438377
4.18791e-05
-5.4531e-10
0.00433732
4.64433e-05
-7.61803e-10
0.00428576
5.15661e-05
-9.83998e-10
0.00422842
5.73391e-05
-1.21083e-09
0.00416455
6.38733e-05
-1.44139e-09
0.00409325
7.13039e-05
-1.67512e-09
0.00401345
7.97959e-05
-1.91119e-09
0.0039239
8.95516e-05
-2.14941e-09
0.00382309
0.000100818
-2.38965e-09
0.0037092
0.000113895
-2.63186e-09
0.00358006
0.000129142
-2.87655e-09
0.00343308
0.000146975
-3.12477e-09
0.00326524
0.000167852
-3.3775e-09
0.00307301
0.000192228
-3.63608e-09
0.00285255
0.000220464
-3.90158e-09
0.0025999
0.000252652
-4.17372e-09
0.00231159
0.000288317
-4.4488e-09
0.00198564
0.000325954
-4.7148e-09
0.00162333
0.000362318
-4.94318e-09
0.0012319
0.000391437
-5.07629e-09
0.000828567
0.000403335
-5.00975e-09
0.000446128
0.000382443
-4.5746e-09
0.000141021
0.000305111
-3.53003e-09
0.000141023
-1.58632e-09
0.00476129
1.0583e-06
0.00475955
2.11791e-06
0.00475725
3.24648e-06
0.00475434
4.44982e-06
0.00475079
5.73415e-06
0.00474656
7.10648e-06
0.0047416
8.57467e-06
0.00473585
1.01475e-05
0.00472925
1.18347e-05
0.00472176
1.36474e-05
0.00471328
1.55976e-05
0.00470376
1.7699e-05
0.00469311
1.99672e-05
0.00468123
2.24193e-05
0.00466802
2.50748e-05
0.00465338
2.79559e-05
0.00463717
3.10873e-05
0.00461925
3.44976e-05
0.00459948
3.8219e-05
0.00457767
4.22886e-05
0.00455363
4.67491e-05
0.00452714
5.16494e-05
0.00449795
5.70465e-05
0.00446577
6.30064e-05
0.0044303
6.96063e-05
0.00439116
7.6937e-05
0.00434793
8.51057e-05
0.00430014
9.42398e-05
0.00424721
0.000104491
0.00418851
0.000116044
0.00412326
0.000129118
0.00405058
0.000143983
0.00396941
0.000160966
0.0038785
0.00018047
0.00377633
0.000202982
0.00366113
0.000229094
0.00353076
0.000259513
0.00338269
0.000295052
0.00321393
0.000336602
0.00302112
0.000385041
0.00280054
0.000441044
0.00254846
0.000504736
0.00226167
0.000575109
0.00193852
0.000649097
0.00158064
0.000720201
0.00119554
0.000776537
0.000800571
0.000798304
0.000428182
0.000754833
0.00013276
0.000600532
0.000273783
0.00475948
4.9875e-06
0.00475503
6.57187e-06
0.00475002
8.25925e-06
0.00474441
1.00584e-05
0.00473816
1.19786e-05
0.00473124
1.40307e-05
0.00472359
1.62265e-05
0.00471516
1.85793e-05
0.00470589
2.11037e-05
0.00469572
2.38163e-05
0.00468458
2.67354e-05
0.0046724
2.98817e-05
0.00465909
3.32782e-05
0.00464456
3.6951e-05
0.0046287
4.09294e-05
0.00461141
4.52465e-05
0.00459256
4.99398e-05
0.004572
5.5052e-05
0.00454959
6.06319e-05
0.00452514
6.67351e-05
0.00449847
7.34257e-05
0.00446934
8.07775e-05
0.00443751
8.8876e-05
0.0044027
9.78204e-05
0.00436458
0.000107727
0.00432278
0.000118731
0.00427689
0.000130995
0.00422642
0.000144709
0.00417081
0.0001601
0.00410941
0.000177443
0.00404147
0.000197067
0.00396608
0.000219372
0.0038822
0.000244845
0.00378859
0.000274077
0.00368378
0.00030779
0.00356603
0.000346849
0.00343326
0.000392282
0.00328305
0.000445264
0.00311258
0.000507067
0.00291871
0.000578917
0.00269804
0.00066171
0.00244728
0.000755492
0.00216379
0.000858602
0.00184657
0.000966317
0.00149789
0.00106889
0.0011257
0.00114872
0.000747377
0.00117663
0.000394887
0.00110732
0.000120067
0.000875352
0.00039385
0.00475681
1.29463e-05
0.00474833
1.50483e-05
0.0047393
1.72868e-05
0.00472969
1.96736e-05
0.00471945
2.22215e-05
0.00470853
2.49449e-05
0.0046969
2.78598e-05
0.00468449
3.0984e-05
0.00467126
3.43371e-05
0.00465713
3.79414e-05
0.00464205
4.18212e-05
0.00462593
4.60043e-05
0.00460868
5.05214e-05
0.00459023
5.54074e-05
0.00457045
6.07015e-05
0.00454925
6.64479e-05
0.0045265
7.2697e-05
0.00450204
7.95058e-05
0.00447573
8.69395e-05
0.0044474
9.50726e-05
0.00441683
0.000103991
0.00438382
0.000113793
0.0043481
0.000124593
0.00430939
0.000136524
0.00426738
0.000149742
0.00422169
0.000164426
0.00417189
0.000180793
0.0041175
0.000199097
0.00405796
0.000219639
0.00399262
0.000242784
0.00392072
0.000268966
0.00384138
0.000298712
0.00375356
0.000332662
0.00365605
0.000371588
0.00354742
0.000416424
0.00342598
0.000468284
0.00328979
0.000528479
0.00313656
0.000598487
0.00296375
0.000679878
0.00276856
0.000774113
0.0025481
0.000882162
0.00229978
0.00100382
0.00202179
0.00113659
0.00171413
0.00127397
0.00137999
0.00140303
0.00102782
0.0015009
0.000674512
0.00152993
0.000350206
0.00143163
0.00010209
0.00112347
0.000495941
0.00475331
2.61963e-05
0.00473955
2.88044e-05
0.00472525
3.15821e-05
0.00471038
3.45443e-05
0.0046949
3.77075e-05
0.00467875
4.10899e-05
0.0046619
4.47117e-05
0.00464429
4.8595e-05
0.00462586
5.27647e-05
0.00460656
5.72484e-05
0.0045863
6.2077e-05
0.00456502
6.72848e-05
0.00454263
7.29108e-05
0.00451904
7.89984e-05
0.00449414
8.55968e-05
0.00446783
9.27616e-05
0.00443997
0.000100556
0.00441043
0.000109051
0.00437903
0.00011833
0.00434562
0.000128485
0.00430999
0.000139624
0.00427191
0.000151871
0.00423114
0.000165369
0.00418737
0.000180285
0.0041403
0.000196813
0.00408955
0.00021518
0.00403469
0.000235655
0.00397523
0.000258554
0.00391062
0.000284254
0.00384019
0.000313205
0.00376321
0.000345947
0.0036788
0.000383126
0.00358594
0.000425524
0.00348345
0.000474079
0.00336996
0.000529914
0.00324388
0.000594356
0.00310342
0.000668939
0.00294655
0.000755362
0.00277105
0.000855374
0.00257465
0.000970513
0.0023552
0.00110161
0.00211106
0.00124796
0.00184164
0.001406
0.0015483
0.00156732
0.00123543
0.0017159
0.000911968
0.00182436
0.00059349
0.00184841
0.000305309
0.00171981
8.43829e-05
0.00134439
0.000580324
0.00474904
4.59291e-05
0.00472882
4.90251e-05
0.00470808
5.23245e-05
0.00468678
5.5845e-05
0.00466488
5.96067e-05
0.00464234
6.36316e-05
0.00461911
6.79437e-05
0.00459513
7.25698e-05
0.00457036
7.75397e-05
0.00454472
8.28865e-05
0.00451815
8.86472e-05
0.00449057
9.48634e-05
0.0044619
0.000101582
0.00443204
0.000108854
0.0044009
0.000116741
0.00436835
0.000125308
0.00433427
0.000134632
0.00429853
0.000144799
0.00426095
0.000155909
0.00422136
0.000168072
0.00417956
0.00018142
0.00413533
0.000196102
0.00408841
0.00021229
0.00403852
0.000230184
0.00398531
0.000250019
0.00392842
0.000272067
0.00386743
0.000296651
0.00380183
0.00032415
0.00373107
0.000355014
0.0036545
0.000389778
0.00357136
0.00042908
0.00348081
0.000473682
0.00338184
0.000524495
0.00327331
0.000582601
0.00315395
0.00064928
0.00302229
0.000726016
0.00287674
0.000814484
0.00271562
0.000916482
0.00253724
0.00103376
0.00234009
0.00116767
0.00212311
0.00131859
0.00188612
0.00148495
0.00163039
0.00166172
0.00135936
0.00183835
0.00107927
0.001996
0.000799795
0.00210383
0.00053424
0.00211396
0.000298085
0.00195597
0.000102793
0.00153969
0.000683116
0.0047441
7.32422e-05
0.00471632
7.67993e-05
0.00468805
8.05964e-05
0.00465924
8.46526e-05
0.00462986
8.89908e-05
0.00459986
9.3636e-05
0.00456918
9.86163e-05
0.00453779
0.000103963
0.00450562
0.000109709
0.00447261
0.000115895
0.00443869
0.000122564
0.00440379
0.000129763
0.00436783
0.000137548
0.0043307
0.00014598
0.00429232
0.000155128
0.00425255
0.00016507
0.00421129
0.000175895
0.00416838
0.000187706
0.00412368
0.000200617
0.00407699
0.000214761
0.00402812
0.000230289
0.00397684
0.000247376
0.00392291
0.000266225
0.00386602
0.00028707
0.00380586
0.000310185
0.00374204
0.000335888
0.00367413
0.000364556
0.00360165
0.00039663
0.00352403
0.000432632
0.00344063
0.000473181
0.0033507
0.000519009
0.0032534
0.000570988
0.00314775
0.000630146
0.00303266
0.00069769
0.00290691
0.000775024
0.00276919
0.000863733
0.00261813
0.000965548
0.00245239
0.00108222
0.00227087
0.00121528
0.00207294
0.0013656
0.00185887
0.00153267
0.00163035
0.00171347
0.00139117
0.0019009
0.00114786
0.00208166
0.000910165
0.0022337
0.000690596
0.0023234
0.000501934
0.00230263
0.000348462
0.00210944
0.00021094
0.00167721
0.000894057
-2.75243e-05
2.75246e-05
-3.60221e-10
-8.01087e-05
5.25858e-05
-1.34112e-09
-0.00013943
5.93242e-05
-2.52352e-09
-0.000194776
5.53493e-05
-3.78957e-09
-0.000240208
4.54368e-05
-5.04337e-09
-0.000272669
3.24674e-05
-6.22414e-09
-0.000290792
1.81307e-05
-7.31944e-09
-0.000293979
3.19547e-06
-8.32565e-09
-0.000283048
-1.0923e-05
-8.86929e-09
-0.00025839
-2.46482e-05
-9.35364e-09
-0.000220656
-3.77246e-05
-9.59613e-09
-0.000170668
-4.99783e-05
-9.52053e-09
-0.000109279
-6.13795e-05
-9.07974e-09
-3.73574e-05
-7.19138e-05
-8.21342e-09
4.42308e-05
-8.15813e-05
-6.84687e-09
0.00013461
-9.0374e-05
-4.89308e-09
0.000232927
-9.83151e-05
-2.25722e-09
0.000338344
-0.000105418
1.1466e-09
0.000450038
-0.000111699
5.37333e-09
0.000567207
-0.00011718
1.05336e-08
0.000689071
-0.00012188
1.59711e-08
0.000814869
-0.00012582
2.18913e-08
0.00094386
-0.000129018
2.70674e-08
0.00107532
-0.000131494
3.10419e-08
0.00120856
-0.000133274
3.41363e-08
0.00134292
-0.000134393
3.5369e-08
0.00147777
-0.000134888
3.53376e-08
0.00161253
-0.000134795
3.42133e-08
0.00174665
-0.00013415
3.23642e-08
0.00187961
-0.00013299
3.01163e-08
0.00201094
-0.000131354
2.77083e-08
0.00214019
-0.00012928
2.52882e-08
0.00226697
-0.000126807
2.29276e-08
0.00239093
-0.000123974
2.06506e-08
0.00251173
-0.000120821
1.84485e-08
0.0026291
-0.000117387
1.63026e-08
0.0027428
-0.00011371
1.41933e-08
0.00285261
-0.000109827
1.21046e-08
0.00295838
-0.000105776
1.00293e-08
0.00305996
-0.00010159
7.96704e-09
0.00315726
-9.73047e-05
5.92397e-09
0.00325021
-9.29509e-05
3.91507e-09
0.00333876
-8.8559e-05
1.9576e-09
0.00342292
-8.41572e-05
7.26085e-11
0.00350269
-7.97714e-05
-1.71411e-09
0.00357812
-7.54255e-05
-3.37794e-09
0.00364927
-7.11406e-05
-4.89314e-09
0.00371621
-6.69354e-05
-6.23391e-09
0.00377904
-6.2825e-05
-7.37957e-09
-5.88205e-05
0.00383787
-8.32016e-09
-2.41634e-05
5.1688e-05
-7.03947e-05
9.8817e-05
-0.000122301
0.000111231
-0.000170515
0.000103563
-0.000209673
8.45942e-05
-0.000236975
5.97695e-05
-0.000251132
3.22876e-05
-0.000251284
3.34819e-06
-0.000238516
-2.36916e-05
-0.000212811
-5.03524e-05
-0.000174739
-7.5797e-05
-0.000125018
-9.96996e-05
-6.43919e-05
-0.000122005
6.37412e-06
-0.00014268
8.64588e-05
-0.000161666
0.00017509
-0.000179005
0.000271473
-0.000194699
0.000374823
-0.000208767
0.000484362
-0.000221239
0.000599328
-0.000232146
0.000718976
-0.000241528
0.000842574
-0.000249419
0.000969407
-0.000255851
0.00109878
-0.000260864
0.00123001
-0.000264504
0.00136245
-0.000266837
0.0014955
-0.000267934
0.00162857
-0.000267864
0.00176112
-0.000266699
0.00189264
-0.00026451
0.00202265
-0.000261371
0.00215073
-0.000257358
0.00227647
-0.000252547
0.00239951
-0.000247015
0.00251953
-0.000240841
0.00263625
-0.000234101
0.00274941
-0.000226871
0.0028588
-0.000219226
0.00296427
-0.000211238
0.00306565
-0.000202978
0.00316286
-0.000194513
0.00325582
-0.000185906
0.00334448
-0.000177217
0.00342882
-0.000168504
0.00350887
-0.000159817
0.00358465
-0.000151205
0.00365622
-0.00014271
0.00372365
-0.000134369
0.00378704
-0.000126213
-0.000118262
0.00384648
-1.82636e-05
6.99516e-05
-5.1746e-05
0.0001323
-8.94077e-05
0.000148892
-0.000123967
0.000138123
-0.000151136
0.000111763
-0.00016862
7.72541e-05
-0.000175252
3.89199e-05
-0.000169968
-1.93661e-06
-0.000153777
-3.98823e-05
-0.000126229
-7.79006e-05
-8.75914e-05
-0.000114434
-3.84787e-05
-0.000148812
2.05736e-05
-0.000181058
8.89647e-05
-0.000211071
0.000166104
-0.000238805
0.000251321
-0.000264222
0.000343943
-0.00028732
0.000443286
-0.000308111
0.000548664
-0.000326617
0.000659391
-0.000342873
0.000774784
-0.000356921
0.000894168
-0.000368803
0.00101688
-0.000378563
0.00114226
-0.000386243
0.00126966
-0.000391908
0.00139847
-0.000395647
0.0015281
-0.000397559
0.00165798
-0.000397743
0.00178758
-0.0003963
0.0019164
-0.000393332
0.00204397
-0.000388946
0.00216987
-0.00038325
0.00229368
-0.000376357
0.00241504
-0.000368381
0.00253364
-0.000359434
0.00264917
-0.000349631
0.00276138
-0.000339084
0.00287006
-0.000327904
0.00297502
-0.000316199
0.00307611
-0.000304073
0.00317323
-0.000291627
0.00326628
-0.000278956
0.00335521
-0.00026615
0.00344
-0.000253294
0.00352065
-0.000240466
0.00359718
-0.000227737
0.00366964
-0.000215173
0.0037381
-0.000202828
0.00380264
-0.000190747
-0.000178958
0.00386333
-7.95094e-06
7.79025e-05
-2.45607e-05
0.000148909
-4.25974e-05
0.000166929
-5.82193e-05
0.000153745
-6.89078e-05
0.000122451
-7.29992e-05
8.13455e-05
-6.91756e-05
3.50962e-05
-5.76147e-05
-1.34974e-05
-3.66481e-05
-6.0849e-05
-6.60346e-06
-0.000107945
3.22199e-05
-0.000153258
8.00431e-05
-0.000196635
0.00013659
-0.000237604
0.00020149
-0.000275971
0.000274313
-0.000311629
0.000354595
-0.000344505
0.000441829
-0.000374554
0.000535473
-0.000401755
0.000634965
-0.000426108
0.000739721
-0.000447629
0.000849151
-0.00046635
0.000962657
-0.000482309
0.00107964
-0.000495544
0.0011995
-0.0005061
0.00132163
-0.000514041
0.00144545
-0.000519468
0.0015704
-0.000522508
0.00169594
-0.000523281
0.00182155
-0.000521912
0.00194674
-0.000518526
0.00207106
-0.000513259
0.00219406
-0.00050625
0.00231534
-0.000497641
0.00243454
-0.00048758
0.00255132
-0.000476214
0.00266538
-0.000463691
0.00277646
-0.00045016
0.00288432
-0.000435765
0.00298877
-0.00042065
0.00308965
-0.000404952
0.00318682
-0.000388804
0.0032802
-0.000372334
0.00336971
-0.000355661
0.00345532
-0.000338899
0.003537
-0.000322152
0.00361478
-0.000305516
0.00368869
-0.000289077
0.00375877
-0.000272911
0.0038251
-0.000257077
-0.000241607
0.00388775
5.66458e-06
7.2238e-05
1.07591e-05
0.000143815
1.68594e-05
0.000160828
2.35339e-05
0.00014707
3.17895e-05
0.000114196
4.27868e-05
7.03482e-05
5.79136e-05
1.99694e-05
7.70943e-05
-3.26781e-05
0.000102499
-8.62536e-05
0.00013434
-0.000139786
0.000173157
-0.000192076
0.000219056
-0.000242534
0.000272141
-0.00029069
0.000332383
-0.000336213
0.000399635
-0.00037888
0.000473657
-0.000418527
0.00055414
-0.000455037
0.000640713
-0.000488328
0.000732957
-0.000518352
0.000830415
-0.000545087
0.000932599
-0.000568535
0.00103901
-0.000588715
0.00114911
-0.000605651
0.00126238
-0.000619368
0.00137826
-0.00062992
0.00149621
-0.000637413
0.00161569
-0.000641988
0.00173619
-0.000643783
0.00185721
-0.000642934
0.00197827
-0.000639589
0.00209891
-0.000633902
0.0022187
-0.000626039
0.00233723
-0.00061617
0.00245413
-0.000604472
0.00256903
-0.000591123
0.00268165
-0.000576304
0.00279168
-0.000560196
0.0028989
-0.000542979
0.00300308
-0.000524828
0.00310404
-0.000505914
0.00320164
-0.000486404
0.00329576
-0.000466456
0.00338632
-0.00044622
0.00347326
-0.000425837
0.00355655
-0.00040544
0.00363618
-0.000385149
0.00371218
-0.000365074
0.00378457
-0.000345309
0.00385343
-0.00032593
-0.000306972
0.00391879
1.99721e-05
5.22659e-05
5.05523e-05
0.000113235
8.32283e-05
0.000128153
0.00011449
0.000115808
0.000143254
8.54317e-05
0.000170456
4.31465e-05
0.000196893
-6.46745e-06
0.000223399
-5.91844e-05
0.000252718
-0.000115572
0.000285716
-0.000172783
0.000323289
-0.00022965
0.000366084
-0.000285328
0.000414553
-0.000339159
0.000468986
-0.000390646
0.00052952
-0.000439414
0.000596163
-0.00048517
0.000668818
-0.000527691
0.000747295
-0.000566806
0.000831332
-0.000602389
0.000920603
-0.000634358
0.00101474
-0.000662667
0.00111332
-0.000687296
0.0012159
-0.00070824
0.00132203
-0.000725494
0.00143119
-0.000739084
0.00154289
-0.00074911
0.00165662
-0.000755717
0.00177188
-0.000759049
0.0018882
-0.000759251
0.00200509
-0.000756482
0.0021221
-0.000750912
0.00223879
-0.000742727
0.00235474
-0.000732122
0.00246957
-0.000719297
0.00258291
-0.000704461
0.00269443
-0.000687825
0.00280383
-0.000669601
0.00291086
-0.000650001
0.00301526
-0.000629233
0.00311685
-0.000607502
0.00321545
-0.000585006
0.00331093
-0.000561935
0.00340318
-0.000538471
0.00349213
-0.000514784
0.00357772
-0.000491033
0.00365994
-0.000467367
0.00373878
-0.000443917
0.00381427
-0.0004208
0.00388645
-0.000398108
-0.000375887
0.00395537
3.64875e-05
1.57784e-05
9.70911e-05
5.2631e-05
0.000157627
6.76168e-05
0.000212152
6.12831e-05
0.000258932
3.86515e-05
0.000301493
5.85427e-07
0.000335654
-4.06281e-05
0.000368028
-9.15582e-05
0.000399678
-0.000147222
0.000432358
-0.000205463
0.000467448
-0.00026474
0.000506019
-0.000323898
0.000548891
-0.000382032
0.00059667
-0.000438425
0.000649765
-0.000492508
0.000708421
-0.000543826
0.000772744
-0.000592015
0.000842721
-0.000636783
0.00091824
-0.000677907
0.000999101
-0.000715219
0.00108504
-0.000748603
0.00117573
-0.000777986
0.00127081
-0.000803318
0.00136987
-0.000824554
0.00147247
-0.000841683
0.00157813
-0.000854775
0.00168638
-0.000863969
0.00179675
-0.000869412
0.00190874
-0.000871247
0.0020219
-0.000869637
0.00213575
-0.000864766
0.00224986
-0.000856833
0.00236379
-0.000846052
0.00247714
-0.000832647
0.00258953
-0.000816853
0.00270061
-0.000798907
0.00281006
-0.000779052
0.0029176
-0.000757532
0.00302295
-0.000734587
0.0031259
-0.000710455
0.00322626
-0.000685366
0.00332387
-0.000659543
0.0034186
-0.0006332
0.00351035
-0.000606536
0.00359906
-0.00057974
0.00368468
-0.000552988
0.0037672
-0.000526436
0.00384662
-0.000500224
0.00392298
-0.000474466
0.00399633
-0.000449233
0.00390149
-6.36103e-05
-9.12033e-09
0.00396264
-6.11369e-05
-9.91453e-09
0.00402128
-5.86304e-05
-1.06065e-08
0.0040774
-5.61116e-05
-1.11764e-08
0.00413101
-5.35945e-05
-1.15881e-08
0.00418211
-5.10916e-05
-1.18136e-08
0.00423074
-4.86148e-05
-1.18328e-08
0.00427692
-4.61757e-05
-1.16367e-08
0.00432072
-4.37855e-05
-1.1228e-08
0.00436219
-4.14545e-05
-1.06206e-08
0.00440139
-3.91925e-05
-9.83496e-09
0.00443841
-3.70081e-05
-8.89571e-09
0.00447332
-3.49089e-05
-7.83304e-09
0.00450623
-3.29011e-05
-6.67651e-09
0.00453723
-3.09893e-05
-5.45401e-09
0.00456641
-2.91769e-05
-4.19279e-09
0.00459387
-2.74656e-05
-2.91863e-09
0.00461973
-2.58557e-05
-1.65226e-09
0.00464408
-2.4346e-05
-4.10813e-10
0.00466701
-2.29343e-05
7.92729e-10
0.00468863
-2.16169e-05
1.94724e-09
0.00470901
-2.03893e-05
3.04829e-09
0.00472826
-1.92459e-05
4.0928e-09
0.00474643
-1.81804e-05
5.07912e-09
0.00476361
-1.71858e-05
6.00767e-09
0.00477986
-1.62546e-05
6.87873e-09
0.00479523
-1.53789e-05
7.68901e-09
0.00480977
-1.45509e-05
8.43326e-09
0.00482353
-1.37632e-05
9.10458e-09
0.00483653
-1.30092e-05
9.69148e-09
0.0048488
-1.22838e-05
1.01795e-08
0.00486037
-1.15838e-05
1.05539e-08
0.00487127
-1.09081e-05
1.08002e-08
0.00488152
-1.0258e-05
1.09057e-08
0.00489114
-9.63658e-06
1.08621e-08
0.00490018
-9.04836e-06
1.06683e-08
0.00490867
-8.49803e-06
1.03292e-08
0.00491665
-7.98959e-06
9.85695e-09
0.00492416
-7.52538e-06
9.27075e-09
0.00493126
-7.10555e-06
8.59368e-09
0.00493798
-6.72784e-06
7.85013e-09
0.00494436
-6.388e-06
7.06596e-09
0.00495044
-6.0804e-06
6.26515e-09
0.00495623
-5.79896e-06
5.47642e-09
0.00496176
-5.53738e-06
4.70927e-09
0.00496705
-5.29106e-06
3.95175e-09
0.0049721
-5.05609e-06
3.24346e-09
0.00497693
-4.8297e-06
2.57772e-09
0.00498154
-4.61026e-06
1.96113e-09
0.00498593
-4.39696e-06
1.3933e-09
0.00499012
-4.18954e-06
8.74389e-10
0.00499411
-3.98804e-06
4.03159e-10
0.0049979
-3.79261e-06
-2.34293e-11
0.00500151
-3.60344e-06
-4.11808e-10
0.00500493
-3.42064e-06
-7.70617e-10
0.00500817
-3.24427e-06
-1.10887e-09
0.00501125
-3.07431e-06
-1.4379e-09
0.00501416