/*--------------------------------*- C++ -*----------------------------------*\
| =========                 |                                                 |
| \\      /  F ield         | OpenFOAM: The Open Source CFD Toolbox           |
|  \\    /   O peration     | Version:  2412                                  |
|   \\  /    A nd           | Website:  www.openfoam.com                      |
|    \\/     M anipulation  |                                                 |
\*---------------------------------------------------------------------------*/
FoamFile
{
    version     2.0;
    format      ascii;
    arch        "LSB;label=32;scalar=64";
    class       volVectorField;
    location    "24.5";
    object      U;
}
// * * * * * * * * * * * * * * * * * * * * * * * * * * * * * * * * * * * * * //

dimensions      [0 1 -1 0 0 0 0];

internalField   nonuniform List<vector> 
63420
(
(0.0999997 4.38625e-07 0)
(0.099995 1.30473e-06 0)
(0.0999851 2.15875e-06 0)
(0.0999707 3.00504e-06 0)
(0.099952 3.84734e-06 0)
(0.0999291 4.68765e-06 0)
(0.0999023 5.5303e-06 0)
(0.0998717 6.39074e-06 0)
(0.0998373 7.30419e-06 0)
(0.0997988 8.32682e-06 0)
(0.0997558 9.52489e-06 0)
(0.0997075 1.0954e-05 0)
(0.0996528 1.26365e-05 0)
(0.099591 1.45477e-05 0)
(0.0995214 1.6615e-05 0)
(0.0994439 1.87324e-05 0)
(0.0993588 2.07827e-05 0)
(0.099267 2.26614e-05 0)
(0.0991697 2.42948e-05 0)
(0.0990682 2.56493e-05 0)
(0.0989638 2.67307e-05 0)
(0.0988578 2.75771e-05 0)
(0.098751 2.82473e-05 0)
(0.098644 2.88095e-05 0)
(0.0985371 2.93303e-05 0)
(0.0984305 2.98686e-05 0)
(0.0983239 3.04709e-05 0)
(0.0982172 3.11712e-05 0)
(0.09811 3.19907e-05 0)
(0.0980019 3.2941e-05 0)
(0.0978927 3.4026e-05 0)
(0.0977818 3.52447e-05 0)
(0.0976691 3.65929e-05 0)
(0.0975543 3.80655e-05 0)
(0.0974371 3.96571e-05 0)
(0.0973174 4.1363e-05 0)
(0.0971948 4.31798e-05 0)
(0.0970694 4.51051e-05 0)
(0.0969409 4.7138e-05 0)
(0.0968093 4.92785e-05 0)
(0.0966743 5.15277e-05 0)
(0.096536 5.38877e-05 0)
(0.0963941 5.63612e-05 0)
(0.0962487 5.89515e-05 0)
(0.0960996 6.16624e-05 0)
(0.0959466 6.44981e-05 0)
(0.0957898 6.74634e-05 0)
(0.095629 7.05632e-05 0)
(0.0954641 7.38027e-05 0)
(0.0952951 7.7188e-05 0)
(0.0951217 8.07256e-05 0)
(0.094944 8.44242e-05 0)
(0.0947618 8.82978e-05 0)
(0.094575 9.23768e-05 0)
(0.0943834 9.67382e-05 0)
(0.0999997 1.31586e-06 0)
(0.099995 3.914e-06 0)
(0.0999851 6.47575e-06 0)
(0.0999707 9.01412e-06 0)
(0.099952 1.15405e-05 0)
(0.0999292 1.4061e-05 0)
(0.0999024 1.65886e-05 0)
(0.0998718 1.91694e-05 0)
(0.0998374 2.19087e-05 0)
(0.099799 2.49742e-05 0)
(0.099756 2.8564e-05 0)
(0.0997077 3.28444e-05 0)
(0.0996532 3.78829e-05 0)
(0.0995915 4.36055e-05 0)
(0.099522 4.97965e-05 0)
(0.0994446 5.61391e-05 0)
(0.0993597 6.22837e-05 0)
(0.099268 6.7918e-05 0)
(0.0991709 7.28214e-05 0)
(0.0990695 7.68927e-05 0)
(0.0989653 8.01489e-05 0)
(0.0988594 8.2703e-05 0)
(0.0987527 8.47304e-05 0)
(0.0986457 8.64337e-05 0)
(0.0985389 8.80124e-05 0)
(0.0984323 8.96416e-05 0)
(0.0983258 9.14611e-05 0)
(0.0982192 9.35715e-05 0)
(0.098112 9.60374e-05 0)
(0.098004 9.88932e-05 0)
(0.0978948 0.000102151 0)
(0.0977841 0.000105808 0)
(0.0976715 0.000109852 0)
(0.0975568 0.000114267 0)
(0.0974397 0.000119039 0)
(0.0973201 0.000124153 0)
(0.0971977 0.000129598 0)
(0.0970724 0.000135369 0)
(0.0969441 0.000141461 0)
(0.0968127 0.000147876 0)
(0.0966779 0.000154616 0)
(0.0965398 0.000161688 0)
(0.0963982 0.0001691 0)
(0.096253 0.000176862 0)
(0.0961042 0.000184984 0)
(0.0959515 0.000193481 0)
(0.095795 0.000202365 0)
(0.0956346 0.000211652 0)
(0.0954701 0.000221357 0)
(0.0953014 0.000231497 0)
(0.0951285 0.000242093 0)
(0.0949512 0.000253171 0)
(0.0947695 0.000264771 0)
(0.0945831 0.000276982 0)
(0.094392 0.000290032 0)
(0.0999997 2.19222e-06 0)
(0.099995 6.52047e-06 0)
(0.0999851 1.07882e-05 0)
(0.0999707 1.50168e-05 0)
(0.0999521 1.92254e-05 0)
(0.0999293 2.34243e-05 0)
(0.0999025 2.76349e-05 0)
(0.099872 3.19339e-05 0)
(0.0998376 3.64955e-05 0)
(0.0997993 4.15984e-05 0)
(0.0997564 4.75714e-05 0)
(0.0997082 5.46909e-05 0)
(0.0996538 6.30702e-05 0)
(0.0995923 7.25879e-05 0)
(0.0995231 8.28866e-05 0)
(0.099446 9.34415e-05 0)
(0.0993614 0.000103672 0)
(0.0992701 0.000113059 0)
(0.0991732 0.000121236 0)
(0.0990722 0.000128032 0)
(0.0989682 0.000133474 0)
(0.0988625 0.000137748 0)
(0.098756 0.000141146 0)
(0.0986492 0.000144001 0)
(0.0985425 0.000146646 0)
(0.0984361 0.000149371 0)
(0.0983296 0.000152409 0)
(0.0982231 0.000155927 0)
(0.098116 0.000160033 0)
(0.0980081 0.000164786 0)
(0.0978991 0.000170206 0)
(0.0977885 0.000176288 0)
(0.0976761 0.000183013 0)
(0.0975616 0.000190356 0)
(0.0974448 0.000198291 0)
(0.0973254 0.000206795 0)
(0.0972034 0.00021585 0)
(0.0970784 0.000225447 0)
(0.0969505 0.000235578 0)
(0.0968194 0.000246246 0)
(0.0966851 0.000257455 0)
(0.0965474 0.000269215 0)
(0.0964063 0.00028154 0)
(0.0962617 0.000294446 0)
(0.0961134 0.000307952 0)
(0.0959613 0.000322078 0)
(0.0958055 0.000336848 0)
(0.0956457 0.000352285 0)
(0.0954819 0.000368417 0)
(0.095314 0.00038527 0)
(0.0951419 0.000402879 0)
(0.0949655 0.000421283 0)
(0.0947847 0.00044055 0)
(0.0945994 0.000460821 0)
(0.0944093 0.000482454 0)
(0.0999997 3.06713e-06 0)
(0.099995 9.12226e-06 0)
(0.0999851 1.50931e-05 0)
(0.0999708 2.10088e-05 0)
(0.0999522 2.68966e-05 0)
(0.0999294 3.27708e-05 0)
(0.0999028 3.86614e-05 0)
(0.0998723 4.46748e-05 0)
(0.099838 5.10532e-05 0)
(0.0997997 5.81843e-05 0)
(0.099757 6.65262e-05 0)
(0.099709 7.64651e-05 0)
(0.0996548 8.81606e-05 0)
(0.0995936 0.000101446 0)
(0.0995247 0.000115827 0)
(0.0994481 0.000130573 0)
(0.0993639 0.000144875 0)
(0.0992731 0.000158011 0)
(0.0991767 0.000169465 0)
(0.0990761 0.000178998 0)
(0.0989725 0.000186644 0)
(0.0988671 0.00019266 0)
(0.0987609 0.000197448 0)
(0.0986543 0.000201473 0)
(0.0985479 0.000205197 0)
(0.0984416 0.000209026 0)
(0.0983353 0.000213283 0)
(0.0982289 0.000218205 0)
(0.098122 0.000223943 0)
(0.0980143 0.000230579 0)
(0.0979055 0.000238143 0)
(0.0977951 0.000246629 0)
(0.097683 0.000256011 0)
(0.0975688 0.000266256 0)
(0.0974524 0.000277326 0)
(0.0973334 0.000289191 0)
(0.0972118 0.000301826 0)
(0.0970874 0.000315216 0)
(0.09696 0.000329353 0)
(0.0968295 0.000344238 0)
(0.0966958 0.000359878 0)
(0.0965589 0.000376287 0)
(0.0964185 0.000393484 0)
(0.0962746 0.000411489 0)
(0.0961271 0.000430331 0)
(0.095976 0.000450036 0)
(0.0958211 0.000470636 0)
(0.0956623 0.000492164 0)
(0.0954996 0.000514658 0)
(0.0953328 0.000538154 0)
(0.0951619 0.000562698 0)
(0.0949868 0.000588344 0)
(0.0948074 0.000615179 0)
(0.0946236 0.000643387 0)
(0.0944351 0.000673424 0)
(0.0999997 3.94006e-06 0)
(0.099995 1.17174e-05 0)
(0.0999852 1.93873e-05 0)
(0.0999709 2.69859e-05 0)
(0.0999523 3.45486e-05 0)
(0.0999296 4.20939e-05 0)
(0.099903 4.96602e-05 0)
(0.0998726 5.73827e-05 0)
(0.0998385 6.55701e-05 0)
(0.0998003 7.47169e-05 0)
(0.0997577 8.54084e-05 0)
(0.09971 9.81397e-05 0)
(0.0996561 0.000113118 0)
(0.0995953 0.000130135 0)
(0.0995269 0.000148562 0)
(0.0994508 0.000167469 0)
(0.0993672 0.000185825 0)
(0.099277 0.000202702 0)
(0.0991812 0.00021744 0)
(0.0990811 0.000229727 0)
(0.0989781 0.000239602 0)
(0.0988732 0.000247387 0)
(0.0987673 0.000253592 0)
(0.0986611 0.000258811 0)
(0.0985549 0.000263631 0)
(0.0984488 0.000268574 0)
(0.0983427 0.000274053 0)
(0.0982365 0.000280373 0)
(0.0981299 0.000287729 0)
(0.0980224 0.000296229 0)
(0.0979139 0.000305911 0)
(0.0978039 0.000316772 0)
(0.0976922 0.000328779 0)
(0.0975784 0.000341889 0)
(0.0974625 0.000356056 0)
(0.0973441 0.000371241 0)
(0.0972231 0.000387413 0)
(0.0970993 0.000404552 0)
(0.0969726 0.000422648 0)
(0.0968429 0.000441701 0)
(0.0967101 0.000461721 0)
(0.096574 0.000482725 0)
(0.0964346 0.000504734 0)
(0.0962918 0.000527778 0)
(0.0961454 0.000551889 0)
(0.0959954 0.000577101 0)
(0.0958418 0.000603456 0)
(0.0956843 0.000630993 0)
(0.095523 0.000659759 0)
(0.0953578 0.000689801 0)
(0.0951885 0.000721174 0)
(0.0950151 0.000753944 0)
(0.0948375 0.000788213 0)
(0.0946556 0.000824187 0)
(0.0944693 0.000862382 0)
(0.0999997 4.81064e-06 0)
(0.099995 1.43042e-05 0)
(0.0999852 2.36682e-05 0)
(0.099971 3.29441e-05 0)
(0.0999525 4.21761e-05 0)
(0.0999299 5.13871e-05 0)
(0.0999034 6.06234e-05 0)
(0.0998731 7.00484e-05 0)
(0.099839 8.00352e-05 0)
(0.0998011 9.1182e-05 0)
(0.0997587 0.000104199 0)
(0.0997112 0.000119689 0)
(0.0996577 0.000137909 0)
(0.0995973 0.000158612 0)
(0.0995295 0.000181041 0)
(0.0994541 0.000204073 0)
(0.0993712 0.000226458 0)
(0.0992817 0.000247068 0)
(0.0991867 0.000265097 0)
(0.0990873 0.000280158 0)
(0.0989849 0.00029229 0)
(0.0988805 0.000301877 0)
(0.0987751 0.000309532 0)
(0.0986693 0.000315973 0)
(0.0985634 0.000321912 0)
(0.0984576 0.00032798 0)
(0.0983519 0.000334684 0)
(0.0982459 0.000342394 0)
(0.0981396 0.000351351 0)
(0.0980325 0.000361689 0)
(0.0979243 0.000373459 0)
(0.0978147 0.000386657 0)
(0.0977035 0.000401247 0)
(0.0975903 0.000417177 0)
(0.097475 0.000434393 0)
(0.0973572 0.000452847 0)
(0.097237 0.000472503 0)
(0.0971141 0.000493334 0)
(0.0969883 0.000515329 0)
(0.0968596 0.000538489 0)
(0.0967278 0.000562823 0)
(0.0965928 0.000588351 0)
(0.0964546 0.0006151 0)
(0.0963131 0.000643103 0)
(0.0961681 0.000672399 0)
(0.0960196 0.000703029 0)
(0.0958675 0.000735041 0)
(0.0957117 0.000768483 0)
(0.0955522 0.000803409 0)
(0.0953888 0.000839875 0)
(0.0952215 0.000877942 0)
(0.0950502 0.000917687 0)
(0.0948749 0.000959217 0)
(0.0946954 0.00100274 0)
(0.0945117 0.00104878 0)
(0.0999997 5.67814e-06 0)
(0.0999951 1.68812e-05 0)
(0.0999853 2.79326e-05 0)
(0.0999711 3.88792e-05 0)
(0.0999527 4.97739e-05 0)
(0.0999302 6.06439e-05 0)
(0.0999038 7.15435e-05 0)
(0.0998736 8.26629e-05 0)
(0.0998397 9.44373e-05 0)
(0.0998019 0.000107566 0)
(0.0997598 0.000122881 0)
(0.0997126 0.000141091 0)
(0.0996596 0.000162504 0)
(0.0995998 0.000186839 0)
(0.0995326 0.000213218 0)
(0.0994579 0.000240333 0)
(0.0993759 0.000266719 0)
(0.0992873 0.000291051 0)
(0.0991931 0.000312376 0)
(0.0990945 0.000330233 0)
(0.0989928 0.000344655 0)
(0.0988891 0.000356082 0)
(0.0987842 0.000365226 0)
(0.0986789 0.000372921 0)
(0.0985734 0.000380002 0)
(0.098468 0.000387208 0)
(0.0983626 0.000395137 0)
(0.098257 0.000404227 0)
(0.098151 0.000414764 0)
(0.0980443 0.000426911 0)
(0.0979366 0.00044073 0)
(0.0978276 0.000456221 0)
(0.0977169 0.000473345 0)
(0.0976044 0.000492041 0)
(0.0974898 0.000512247 0)
(0.0973729 0.00053391 0)
(0.0972536 0.000556983 0)
(0.0971316 0.00058144 0)
(0.097007 0.000607263 0)
(0.0968794 0.000634454 0)
(0.0967489 0.000663023 0)
(0.0966153 0.000692992 0)
(0.0964785 0.000724392 0)
(0.0963385 0.00075726 0)
(0.0961952 0.000791639 0)
(0.0960484 0.000827579 0)
(0.0958981 0.000865132 0)
(0.0957443 0.000904355 0)
(0.0955869 0.000945306 0)
(0.0954257 0.000988049 0)
(0.0952607 0.00103265 0)
(0.0950919 0.00107919 0)
(0.0949193 0.00112778 0)
(0.0947426 0.0011786 0)
(0.0945621 0.00123207 0)
(0.0941858 0.000101605 -4.45436e-24)
(0.0939804 0.00010675 -4.54227e-24)
(0.093765 0.000112239 -3.17315e-26)
(0.0935392 0.000118097 1.39611e-23)
(0.0933021 0.000124353 -4.62433e-24)
(0.0930531 0.000131044 -4.76114e-24)
(0.0927913 0.000138207 -1.46653e-23)
(0.0925158 0.000145885 1.45607e-23)
(0.0922257 0.000154128 4.98399e-24)
(0.0919198 0.00016299 0)
(0.0915971 0.00017253 5.15119e-24)
(0.0912562 0.000182817 -5.2411e-24)
(0.0908958 0.000193926 4.31276e-23)
(0.0905142 0.000205945 -9.24402e-23)
(0.0901098 0.000218968 4.9416e-23)
(0.0896807 0.000233106 4.00611e-23)
(0.0892248 0.000248483 5.14063e-23)
(0.0887396 0.000265238 -5.8886e-24)
(0.0882228 0.000283532 6.0181e-24)
(0.0876712 0.00030355 -6.155e-24)
(0.0870817 0.000325502 0)
(0.0864506 0.000349632 6.45335e-24)
(0.0857738 0.000376222 -6.61609e-24)
(0.0850466 0.0004056 0)
(0.0842638 0.00043815 -6.97247e-24)
(0.0834192 0.000474323 0)
(0.0825061 0.000514652 -7.37589e-24)
(0.0815165 0.000559771 -1.23611e-22)
(0.0804413 0.000610439 1.31257e-22)
(0.07927 0.000667568 -1.31752e-22)
(0.07799 0.000732263 1.31551e-22)
(0.076587 0.000805871 0)
(0.0750438 0.000890036 0)
(0.0733401 0.000986773 1.6116e-22)
(0.0714517 0.00109855 -1.51634e-22)
(0.0693496 0.00122835 0)
(0.0669991 0.00137976 0)
(0.0643587 0.00155692 0)
(0.0613791 0.0017644 0)
(0.0580028 0.00200674 0)
(0.0541649 0.00228751 0)
(0.0497955 0.00260757 0)
(0.0448269 0.00296212 0)
(0.039206 0.00333605 0)
(0.032919 0.00369694 -1.48172e-23)
(0.0260294 0.00398512 -5.08124e-22)
(0.0187205 0.00410159 5.07362e-22)
(0.0113666 0.00389524 5.50932e-22)
(0.00486407 0.00313412 -5.50105e-22)
(0.000991024 0.00145599 0)
(0.0941949 0.000304595 -4.50711e-24)
(0.0939896 0.000320005 -9.19535e-24)
(0.0937745 0.000336437 -4.82303e-24)
(0.0935489 0.000353972 4.4888e-24)
(0.0933121 0.000372703 -4.68946e-24)
(0.0930634 0.000392734 3.36169e-23)
(0.092802 0.00041418 -5.27957e-23)
(0.0925269 0.000437172 4.90506e-24)
(0.0922372 0.000461854 6.54913e-23)
(0.0919319 0.00048839 -9.045e-23)
(0.0916098 0.000516961 -8.8365e-23)
(0.0912696 0.00054777 7.78642e-23)
(0.0909099 0.000581045 0)
(0.0905292 0.000617044 5.44036e-24)
(0.0901257 0.000656056 -1.66296e-23)
(0.0896977 0.00069841 -1.88648e-22)
(0.089243 0.000744475 1.8109e-22)
(0.0887592 0.000794674 -1.92504e-22)
(0.0882439 0.000849488 -1.80804e-23)
(0.087694 0.000909468 6.1685e-24)
(0.0871065 0.000975247 0)
(0.0864777 0.00104756 -6.47007e-24)
(0.0858034 0.00112724 -2.08542e-22)
(0.0850792 0.00121529 4.35826e-22)
(0.0842998 0.00131284 2.40474e-22)
(0.0834592 0.00142125 -4.53514e-22)
(0.0825507 0.00154212 4.88447e-22)
(0.0815666 0.00167734 -4.95636e-22)
(0.0804978 0.00182918 -7.86576e-24)
(0.0793341 0.00200038 0)
(0.0780633 0.00219422 0)
(0.0766713 0.00241474 0)
(0.0751416 0.00266682 0)
(0.0734546 0.00295647 -9.34104e-24)
(0.0715869 0.00329101 -6.33223e-22)
(0.0695108 0.00367931 -2.65766e-23)
(0.067193 0.00413195 6.58084e-22)
(0.0645943 0.00466119 7.16147e-22)
(0.0616677 0.00528042 -7.15199e-22)
(0.058359 0.00600289 -2.3736e-23)
(0.0546065 0.00683881 -2.47802e-23)
(0.0503436 0.0077902 -8.53646e-22)
(0.0455045 0.00884207 8.25539e-22)
(0.0400352 0.00994859 -2.80972e-23)
(0.0339139 0.0110125 1.49207e-23)
(0.0271847 0.0118559 -1.03327e-21)
(0.0199949 0.0121837 1.03289e-21)
(0.0126572 0.0115472 -2.15427e-21)
(0.00594681 0.0092666 2.11824e-21)
(0.00143077 0.00427375 -2.17012e-21)
(0.094213 0.000506585 -2.6658e-23)
(0.0940081 0.000532178 -9.36105e-24)
(0.0937934 0.000559459 3.60912e-23)
(0.0935683 0.00058857 -7.42738e-23)
(0.0933321 0.000619666 1.58949e-22)
(0.093084 0.00065292 -7.53052e-23)
(0.0928233 0.000688527 1.41807e-26)
(0.0925491 0.000726705 9.78274e-24)
(0.0922604 0.000767695 1.70634e-22)
(0.0919562 0.000811768 -1.60509e-22)
(0.0916353 0.000859226 0)
(0.0912965 0.000910408 1.45701e-26)
(0.0909384 0.000965695 0)
(0.0905594 0.00102551 1.86889e-22)
(0.090158 0.00109035 -1.64735e-22)
(0.0897321 0.00116074 -3.5528e-22)
(0.0892799 0.00123732 1.98004e-23)
(0.0887989 0.00132077 -3.74142e-22)
(0.0882867 0.00141191 1.20982e-23)
(0.0877405 0.00151164 -4.00925e-22)
(0.087157 0.00162103 4.13208e-22)
(0.0865328 0.0017413 -4.21173e-22)
(0.0858638 0.00187383 4.34086e-22)
(0.0851457 0.00202028 1.36643e-23)
(0.0843733 0.00218256 -1.404e-23)
(0.0835409 0.00236291 1.44391e-23)
(0.0826419 0.00256398 -4.83699e-22)
(0.0816689 0.00278892 4.9859e-22)
(0.0806132 0.00304149 5.30523e-22)
(0.0794651 0.00332621 -5.1424e-22)
(0.078213 0.00364853 0)
(0.0768436 0.00401507 0)
(0.0753414 0.00443389 1.80646e-23)
(0.0736882 0.00491484 1.24451e-21)
(0.0718624 0.00546987 2.95648e-23)
(0.0698388 0.00611344 -1.25222e-21)
(0.0675873 0.0068627 0)
(0.0650726 0.00773734 -2.18625e-23)
(0.062253 0.00875874 1.52166e-21)
(0.0590803 0.00994766 -3.03696e-21)
(0.0554995 0.0113195 3.21781e-21)
(0.0514505 0.0128755 9.59188e-23)
(0.0468714 0.0145888 -1.67044e-21)
(0.0417058 0.0163815 -1.80603e-21)
(0.0359162 0.0180917 1.86127e-21)
(0.0295067 0.0194267 1.43459e-24)
(0.0225513 0.0199026 -3.16073e-23)
(0.015241 0.0187828 2.08194e-21)
(0.00809511 0.0149854 -2.01602e-21)
(0.0022757 0.00684644 -2.01653e-21)
(0.09424 0.000706887 1.75628e-23)
(0.0940356 0.000742508 -8.91461e-24)
(0.0938216 0.000780467 1.94999e-26)
(0.0935973 0.000820968 9.17696e-24)
(0.093362 0.000864229 -1.96021e-26)
(0.093115 0.000910496 1.52541e-22)
(0.0928555 0.000960042 -2.8828e-22)
(0.0925827 0.00101317 1.5495e-22)
(0.0922956 0.00107022 -9.92316e-24)
(0.0919931 0.00113158 1.8347e-22)
(0.0916742 0.00119766 -1.63197e-22)
(0.0913375 0.00126893 -3.38829e-22)
(0.0909819 0.00134594 6.8422e-22)
(0.0906057 0.00142927 -6.9785e-22)
(0.0902073 0.0015196 7.12137e-22)
(0.0897849 0.00161769 -7.15845e-22)
(0.0893365 0.00172441 -3.79009e-22)
(0.08886 0.00184073 2.24786e-26)
(0.0883527 0.00196778 0)
(0.0878121 0.00210684 -3.90423e-22)
(0.087235 0.00225938 4.02678e-22)
(0.086618 0.0024271 0)
(0.0859574 0.00261195 -8.69981e-22)
(0.0852487 0.00281624 8.55863e-22)
(0.0844873 0.00304261 1.41736e-23)
(0.0836676 0.0032942 -3.69926e-26)
(0.0827835 0.0035747 1.49815e-23)
(0.0818278 0.00388848 0)
(0.0807926 0.00424077 -5.30473e-26)
(0.0796688 0.00463781 0)
(0.0784457 0.00508714 -1.70061e-23)
(0.0771113 0.00559787 1.14978e-21)
(0.0756516 0.00618108 -1.14947e-21)
(0.0740505 0.00685019 -1.90099e-23)
(0.0722892 0.00762147 3.93386e-23)
(0.070346 0.00851445 -1.35553e-21)
(0.0681956 0.00955212 1.3134e-21)
(0.0658088 0.0107606 2.22405e-23)
(0.0631515 0.0121679 -3.5473e-25)
(0.0601846 0.0138002 2.36998e-23)
(0.0568633 0.0156758 -1.62615e-21)
(0.0531368 0.0177927 3.28629e-21)
(0.0489492 0.0201089 -1.71258e-21)
(0.0442404 0.0225129 1.7691e-21)
(0.0389497 0.0247796 -1.85202e-21)
(0.0330207 0.0265098 -3.67714e-21)
(0.026412 0.0270476 7.50157e-21)
(0.0191322 0.0253854 -3.79753e-21)
(0.0113532 0.0200766 0)
(0.00353048 0.00906388 -3.57265e-21)
(0.0942758 0.000904853 -8.71067e-24)
(0.0940722 0.000950278 -3.55956e-23)
(0.0938591 0.000998671 1.07927e-22)
(0.093636 0.0010503 -1.45761e-22)
(0.093402 0.00110545 6.42048e-23)
(0.0931565 0.00116444 9.41924e-24)
(0.0928988 0.00122762 -9.57914e-24)
(0.0926279 0.00129538 -2.46127e-26)
(0.092343 0.00136816 9.92126e-24)
(0.092043 0.00144645 -2.01843e-23)
(0.0917269 0.00153077 -3.32261e-22)
(0.0913934 0.00162175 3.42908e-22)
(0.0910412 0.00172005 -3.35087e-22)
(0.0906689 0.00182645 3.45902e-22)
(0.0902748 0.00194181 0)
(0.0898574 0.00206709 -2.47933e-26)
(0.0894145 0.00220341 0)
(0.0889441 0.00235202 -3.74148e-22)
(0.0884439 0.00251435 3.98459e-22)
(0.0879111 0.00269204 -1.25262e-23)
(0.087343 0.00288698 -8.44622e-22)
(0.0867363 0.00310134 8.32155e-22)
(0.0860874 0.00333762 -1.35399e-23)
(0.0853922 0.00359874 0)
(0.0846463 0.0038881 0)
(0.0838445 0.00420969 -9.71178e-22)
(0.0829812 0.0045682 9.41673e-22)
(0.08205 0.00496919 0)
(0.0810436 0.00541927 -3.23163e-23)
(0.0799538 0.00592635 0)
(0.0787714 0.00649991 1.73046e-23)
(0.0774858 0.00715139 -1.78314e-23)
(0.0760852 0.00789459 -1.85721e-23)
(0.0745563 0.00874617 1.91374e-23)
(0.072884 0.00972618 1.25907e-21)
(0.0710513 0.0108584 -1.29951e-21)
(0.0690392 0.0121707 2.82349e-21)
(0.0668266 0.0136942 -2.8253e-21)
(0.0643895 0.0154614 2.99674e-21)
(0.0617009 0.0175018 8.473e-23)
(0.058729 0.0198335 -3.15644e-21)
(0.0554361 0.0224478 -2.51878e-23)
(0.0517741 0.0252859 1.24922e-24)
(0.0476793 0.0282021 1.65091e-24)
(0.0430623 0.030913 2.17517e-24)
(0.037791 0.0329277 -5.44206e-23)
(0.0316696 0.0334502 -2.49828e-23)
(0.024451 0.0312414 -2.37703e-23)
(0.0158537 0.0245049 0)
(0.00521831 0.0109193 7.34366e-24)
(0.0943202 0.00109985 -4.32264e-23)
(0.0941177 0.00115485 2.60023e-23)
(0.0939059 0.00121345 8.90068e-24)
(0.0936843 0.00127599 1.36681e-22)
(0.0934522 0.00134282 -1.3673e-22)
(0.0932089 0.00141433 1.4153e-22)
(0.0929535 0.00149095 -3.14199e-22)
(0.0926853 0.00157316 4.47455e-22)
(0.0924034 0.00166149 -3.13448e-22)
(0.0921068 0.00175653 -3.25323e-22)
(0.0917945 0.00185894 -1.6413e-23)
(0.0914652 0.00196946 6.60885e-22)
(0.0911177 0.00208891 -6.96307e-22)
(0.0907506 0.00221824 3.24807e-22)
(0.0903624 0.00235848 3.507e-22)
(0.0899515 0.00251084 3.66788e-22)
(0.089516 0.00267666 -2.84125e-23)
(0.089054 0.00285747 7.4754e-22)
(0.0885631 0.00305503 7.72307e-22)
(0.088041 0.00327133 1.96704e-23)
(0.0874849 0.00350868 -8.18931e-22)
(0.0868919 0.00376972 0)
(0.0862587 0.0040575 0)
(0.0855815 0.00437558 -9.13532e-22)
(0.0848563 0.0047281 9.00411e-22)
(0.0840786 0.0051199 9.70202e-22)
(0.0832432 0.00555668 -9.71639e-22)
(0.0823446 0.00604516 0)
(0.0813765 0.00659332 1.08497e-21)
(0.0803319 0.00721065 -1.08706e-21)
(0.0792033 0.00790849 0)
(0.0779822 0.00870041 -2.3524e-21)
(0.0766594 0.00960266 2.37419e-21)
(0.0752251 0.0106347 -1.96203e-23)
(0.0736686 0.0118195 -2.62361e-21)
(0.0719791 0.013184 2.64796e-21)
(0.0701453 0.014759 0)
(0.0681559 0.0165779 2.96976e-21)
(0.0659995 0.018674 -2.95143e-21)
(0.0636639 0.0210748 2.38995e-23)
(0.0611344 0.0237912 3.25263e-21)
(0.0583892 0.0268003 -6.5239e-21)
(0.0553924 0.0300181 2.04744e-23)
(0.0520794 0.0332597 3.75111e-23)
(0.0483332 0.0361859 3.38028e-21)
(0.0439432 0.0382338 3.74908e-24)
(0.0385431 0.0385162 -2.90464e-21)
(0.0315586 0.0356601 2.97771e-21)
(0.0220267 0.0276772 0)
(0.00758212 0.0121259 2.66858e-23)
(0.094373 0.00129107 8.51222e-24)
(0.0941721 0.00135509 7.84461e-23)
(0.0939623 0.0014234 -6.99581e-23)
(0.093743 0.00149637 8.98437e-24)
(0.0935134 0.00157441 1.38156e-22)
(0.093273 0.00165798 -1.38373e-22)
(0.0930209 0.00174759 -2.96606e-22)
(0.0927563 0.0018438 4.35992e-24)
(0.0924785 0.00194724 -5.59464e-24)
(0.0921864 0.0020586 3.29582e-22)
(0.091879 0.00217868 -3.22085e-22)
(0.0915553 0.00230833 6.83541e-22)
(0.091214 0.00244856 -3.40635e-22)
(0.0908538 0.00260046 1.10147e-23)
(0.0904734 0.00276529 1.12744e-23)
(0.0900712 0.00294446 7.46018e-22)
(0.0896454 0.00313959 -5.04625e-24)
(0.0891943 0.0033525 7.78914e-22)
(0.0887158 0.00358527 1.24537e-23)
(0.0882077 0.00384029 0)
(0.0876676 0.0041203 0)
(0.0870927 0.00442846 -8.7504e-22)
(0.0864802 0.00476841 8.7725e-22)
(0.0858268 0.00514439 0)
(0.085129 0.00556132 1.47648e-23)
(0.0843829 0.00602498 0)
(0.0835843 0.00654213 -1.01989e-21)
(0.0827286 0.00712075 2.07647e-21)
(0.0818109 0.00777027 -1.05666e-21)
(0.0808257 0.00850187 -2.23929e-21)
(0.0797675 0.00932882 -7.4973e-23)
(0.0786302 0.0102669 -7.90115e-23)
(0.0774081 0.0113348 -8.29401e-23)
(0.0760952 0.0125544 2.51676e-21)
(0.0746862 0.0139515 2.6991e-21)
(0.0731768 0.0155551 -2.70553e-21)
(0.0715644 0.017397 0)
(0.0698482 0.0195098 2.99081e-21)
(0.0680303 0.0219221 -2.99776e-21)
(0.0661144 0.0246508 -3.18029e-21)
(0.0641036 0.0276874 3.16277e-21)
(0.0619947 0.030977 2.58381e-23)
(0.0597668 0.034388 3.17429e-21)
(0.0573606 0.0376721 -1.04443e-22)
(0.054645 0.0404145 -3.13528e-21)
(0.0513556 0.0419836 2.39281e-23)
(0.0470063 0.0414687 0)
(0.040779 0.0375555 -1.91048e-23)
(0.0308802 0.0284586 -9.23492e-22)
(0.0122105 0.0120607 4.17415e-22)
(-0.000211621 0.000287504 0)
(-0.00092367 0.000548833 3.18514e-22)
(-0.00198732 0.000613917 -3.18993e-22)
(-0.00306517 0.000570868 -3.18166e-22)
(-0.00399431 0.000468213 3.18645e-22)
(-0.0047077 0.000334741 -9.82351e-24)
(-0.00517095 0.000187861 0)
(-0.00536664 3.7899e-05 0)
(-0.00529768 -0.00010869 0)
(-0.00497537 -0.00025012 0)
(-0.0044075 -0.000384263 0)
(-0.00360602 -0.000509862 0)
(-0.00258531 -0.000626716 0)
(-0.00135992 -0.00073472 0)
(5.54964e-05 -0.000833857 0)
(0.00164601 -0.00092413 1.04509e-22)
(0.00339672 -0.00100577 -9.83097e-23)
(0.00529302 -0.00107895 0)
(0.0073204 -0.00114385 0)
(0.0094646 -0.00120069 -7.81707e-23)
(0.0117117 -0.0012497 7.82901e-23)
(0.014048 -0.00129107 -6.1051e-23)
(0.01646 -0.00132499 3.91531e-24)
(0.0189344 -0.00135166 0)
(0.0214585 -0.00137136 3.16818e-24)
(0.0240198 -0.00138445 0)
(0.0266065 -0.00139129 0)
(0.0292074 -0.00139225 0)
(0.0318118 -0.00138771 1.86966e-24)
(0.0344096 -0.00137803 0)
(0.0369915 -0.00136359 -1.33407e-24)
(0.0395486 -0.0013448 1.09612e-24)
(0.0420729 -0.00132202 -8.77969e-25)
(0.0445569 -0.00129566 5.29173e-24)
(0.0469938 -0.00126611 -5.11914e-24)
(0.0493777 -0.00123373 -1.70427e-24)
(0.0517032 -0.00119892 2.81637e-24)
(0.0539655 -0.00116204 -9.66534e-25)
(0.0561606 -0.00112345 4.46087e-26)
(0.0582854 -0.0010835 -1.41552e-25)
(0.0603369 -0.00104251 0)
(0.0623132 -0.0010008 -2.95737e-25)
(0.0642127 -0.000958671 1.89632e-24)
(0.0660345 -0.000916392 -1.94773e-24)
(0.0677782 -0.00087422 4.43761e-25)
(0.0694438 -0.000832391 -1.45725e-24)
(0.0710318 -0.000791115 4.84916e-25)
(0.0725431 -0.000750575 1.04138e-24)
(0.073979 -0.000710923 -5.26083e-25)
(0.0753409 -0.000672273 5.34277e-25)
(-0.000275309 0.000826584 -1.20768e-21)
(-0.00103113 0.00157278 -1.32041e-21)
(-0.00200348 0.00175915 1.30156e-21)
(-0.00293688 0.00163383 -6.25597e-22)
(-0.00370867 0.0013353 6.26659e-22)
(-0.00426963 0.000947084 9.89168e-24)
(-0.00459467 0.000519619 -1.96012e-23)
(-0.00466941 8.26653e-05 -6.20595e-22)
(-0.00449898 -0.000347061 6.02238e-22)
(-0.00409454 -0.000762463 -1.80949e-23)
(-0.00346072 -0.00115715 -1.74743e-23)
(-0.00260815 -0.00152691 5.22837e-22)
(-0.0015499 -0.00187147 -5.23532e-22)
(-0.000298712 -0.00219047 -4.74866e-22)
(0.00113235 -0.00248343 2.60173e-23)
(0.00272958 -0.00275079 4.5008e-22)
(0.00447916 -0.00299289 -6.3898e-24)
(0.00636766 -0.00321011 -1.20989e-23)
(0.00838151 -0.00340297 0)
(0.0105073 -0.00357204 0)
(0.0127318 -0.00371796 0)
(0.015042 -0.00384132 -4.32475e-24)
(0.017425 -0.00394265 2.28647e-22)
(0.0198681 -0.00402251 -2.48124e-22)
(0.022359 -0.00408176 1.90203e-22)
(0.0248857 -0.00412139 -1.07987e-22)
(0.0274368 -0.00414248 -1.60947e-22)
(0.0300014 -0.00414611 7.52798e-23)
(0.0325691 -0.00413334 -1.87448e-24)
(0.0351302 -0.00410528 -3.29099e-24)
(0.0376756 -0.00406303 1.33698e-24)
(0.0401965 -0.00400774 -3.38269e-24)
(0.0426852 -0.00394056 2.44079e-23)
(0.0451344 -0.00386264 -4.53596e-23)
(0.0475373 -0.00377513 1.87301e-23)
(0.0498882 -0.00367917 -1.08169e-24)
(0.0521817 -0.00357589 1.94434e-25)
(0.0544132 -0.00346638 0)
(0.0565788 -0.00335173 1.34653e-24)
(0.0586753 -0.00323296 -1.21424e-24)
(0.0606998 -0.00311106 -3.64281e-24)
(0.0626504 -0.00298696 4.90075e-24)
(0.0645255 -0.00286156 -3.5504e-25)
(0.0663243 -0.00273567 -2.16573e-24)
(0.0680462 -0.00261007 3.76052e-24)
(0.0696914 -0.00248545 4.74615e-25)
(0.0712602 -0.00236245 3.47861e-24)
(0.0727535 -0.0022416 5.47704e-25)
(0.0741725 -0.00212337 -1.01833e-24)
(0.0755187 -0.00200808 -1.58743e-24)
(-0.000386526 0.00126347 -1.25124e-21)
(-0.00120733 0.00237802 1.37291e-21)
(-0.00198616 0.00266389 -1.33191e-21)
(-0.002634 0.0024677 -2.07648e-23)
(-0.00310043 0.00200127 -3.50117e-25)
(-0.00336797 0.00139445 -1.26999e-21)
(-0.00342867 0.000725268 1.31164e-21)
(-0.00327541 4.06076e-05 1.25095e-21)
(-0.0029149 -0.000644314 -1.68734e-23)
(-0.00235573 -0.0013072 -2.3374e-21)
(-0.00159791 -0.00193934 2.29237e-21)
(-0.000649648 -0.00253264 -1.09952e-21)
(0.000477973 -0.00308741 -1.6512e-23)
(0.00177635 -0.00360256 0)
(0.00323509 -0.00407738 9.36285e-22)
(0.00484276 -0.00451209 -6.79029e-23)
(0.00658818 -0.00490677 -8.55965e-22)
(0.00845986 -0.00526182 2.46692e-23)
(0.010446 -0.00557786 0)
(0.0125348 -0.00585564 0)
(0.0147145 -0.00609605 2.9956e-22)
(0.0169734 -0.00629994 -2.90756e-22)
(0.0192995 -0.00646804 -2.40053e-22)
(0.0216815 -0.00660131 2.55624e-22)
(0.0241075 -0.00670082 6.73577e-24)
(0.026567 -0.00676829 -6.00957e-24)
(0.0290488 -0.00680535 5.31755e-24)
(0.0315429 -0.00681373 -1.31258e-22)
(0.0340395 -0.00679514 1.36049e-22)
(0.0365295 -0.00675134 -9.25998e-23)
(0.039004 -0.00668412 9.94686e-23)
(0.0414549 -0.00659531 2.29341e-24)
(0.0438747 -0.00648679 5.41518e-23)
(0.0462564 -0.00636043 -9.45776e-23)
(0.0485936 -0.00621812 4.29215e-23)
(0.0508806 -0.00606173 1.098e-23)
(0.0531123 -0.00589312 -9.69437e-24)
(0.0552842 -0.00571409 0)
(0.0573927 -0.0055264 -8.4835e-26)
(0.0594343 -0.00533177 0)
(0.0614065 -0.00513183 -7.2751e-24)
(0.0633074 -0.00492813 6.65916e-24)
(0.0651353 -0.00472213 -6.12167e-25)
(0.0668894 -0.00451521 -5.53857e-26)
(0.0685692 -0.00430865 -6.98607e-24)
(0.0701746 -0.00410359 1.34736e-23)
(0.0717062 -0.0039011 -7.45389e-24)
(0.0731646 -0.00370208 3.96795e-24)
(0.074551 -0.00350726 -2.95963e-24)
(0.0758667 -0.00331715 -1.03488e-24)
(-0.000515921 0.00151532 -2.69459e-21)
(-0.00136798 0.00284142 0)
(-0.00182448 0.00319791 2.80281e-21)
(-0.00205689 0.00294686 -5.60787e-21)
(-0.00209007 0.00235733 2.82629e-21)
(-0.00194739 0.00158865 1.29762e-21)
(-0.00164086 0.000736016 -1.36143e-21)
(-0.00118145 -0.000146158 1.27618e-21)
(-0.000568537 -0.00103512 -2.53476e-21)
(0.000200817 -0.00189992 1.23905e-21)
(0.00112488 -0.00272795 1.85581e-23)
(0.0022005 -0.00351266 3.08918e-25)
(0.00341857 -0.00425124 1.6796e-23)
(0.00477619 -0.00494031 -1.02371e-21)
(0.00626731 -0.00557866 9.92562e-22)
(0.00788427 -0.00616551 2.90302e-23)
(0.00961889 -0.00670052 -1.34994e-23)
(0.0114624 -0.00718377 7.89953e-22)
(0.0134056 -0.00761563 -7.8992e-22)
(0.0154389 -0.00799674 -1.12119e-23)
(0.0175523 -0.00832797 0)
(0.019736 -0.00861021 3.03352e-25)
(0.0219797 -0.00884437 0)
(0.0242731 -0.00903128 7.8599e-24)
(0.0266062 -0.00917251 2.76397e-25)
(0.0289689 -0.00926989 6.06645e-24)
(0.0313517 -0.00932578 -3.34363e-22)
(0.0337451 -0.00934237 3.29357e-22)
(0.0361404 -0.00932189 0)
(0.0385289 -0.00926665 -1.05808e-22)
(0.0409027 -0.00917905 1.09218e-22)
(0.0432541 -0.00906154 0)
(0.045576 -0.00891664 -1.80195e-25)
(0.0478618 -0.0087469 -4.81332e-23)
(0.0501056 -0.00855489 8.28381e-23)
(0.0523018 -0.00834316 -5.93894e-23)
(0.0544457 -0.00811426 3.97843e-23)
(0.0565331 -0.00787067 -2.2148e-23)
(0.0585602 -0.00761484 6.85603e-24)
(0.060524 -0.0073491 -3.22392e-24)
(0.0624219 -0.00707574 2.6542e-24)
(0.0642519 -0.0067969 3.95233e-25)
(0.0660126 -0.00651461 1.0161e-23)
(0.0677031 -0.0062308 -2.30918e-23)
(0.0693228 -0.00594723 1.15863e-23)
(0.0708716 -0.00566552 6.30221e-26)
(0.07235 -0.00538715 -9.23511e-25)
(0.0737586 -0.00511337 -5.24782e-26)
(0.0750983 -0.00484521 9.89836e-25)
(0.0763705 -0.00458324 -1.96985e-24)
(-0.000573793 0.00150932 -1.57048e-24)
(-0.00132324 0.0028878 -2.5067e-23)
(-0.00133551 0.00327503 -2.43284e-23)
(-0.00104328 0.00299758 -2.36649e-23)
(-0.000549937 0.00234526 -4.5542e-23)
(7.64323e-05 0.00148439 -4.85957e-25)
(0.000806323 0.000521833 2.15034e-23)
(0.00162177 -0.000492564 -2.13481e-23)
(0.00252613 -0.00151971 -2.07228e-23)