/*--------------------------------*- C++ -*----------------------------------*\
| =========                 |                                                 |
| \\      /  F ield         | OpenFOAM: The Open Source CFD Toolbox           |
|  \\    /   O peration     | Version:  2412                                  |
|   \\  /    A nd           | Website:  www.openfoam.com                      |
|    \\/     M anipulation  |                                                 |
\*---------------------------------------------------------------------------*/
FoamFile
{
    version     2.0;
    format      ascii;
    arch        "LSB;label=32;scalar=64";
    class       volVectorField;
    location    "24.5";
    object      vorticity;
}
// * * * * * * * * * * * * * * * * * * * * * * * * * * * * * * * * * * * * * //

dimensions      [0 0 -1 0 0 0 0];

internalField   nonuniform List<vector> 
63420
(
(0 0 5.92764e-06)
(0 0 5.90362e-06)
(0 0 5.88259e-06)
(0 0 5.86022e-06)
(0 0 5.8276e-06)
(0 0 5.79039e-06)
(0 0 5.80361e-06)
(0 0 5.99123e-06)
(0 0 6.51686e-06)
(0 0 7.50293e-06)
(0 0 8.93579e-06)
(0 0 1.06116e-05)
(0 0 1.21594e-05)
(0 0 1.31372e-05)
(0 0 1.31616e-05)
(0 0 1.20195e-05)
(0 0 9.72352e-06)
(0 0 6.50016e-06)
(0 0 2.72378e-06)
(0 0 -1.17419e-06)
(0 0 -4.79247e-06)
(0 0 -7.82304e-06)
(0 0 -1.00818e-05)
(0 0 -1.15091e-05)
(0 0 -1.21484e-05)
(0 0 -1.21146e-05)
(0 0 -1.15603e-05)
(0 0 -1.06466e-05)
(0 0 -9.52282e-06)
(0 0 -8.31354e-06)
(0 0 -7.11368e-06)
(0 0 -5.98867e-06)
(0 0 -4.97807e-06)
(0 0 -4.10067e-06)
(0 0 -3.36008e-06)
(0 0 -2.74972e-06)
(0 0 -2.25697e-06)
(0 0 -1.86634e-06)
(0 0 -1.56169e-06)
(0 0 -1.32758e-06)
(0 0 -1.15016e-06)
(0 0 -1.01745e-06)
(0 0 -9.19459e-07)
(0 0 -8.48036e-07)
(0 0 -7.96678e-07)
(0 0 -7.60279e-07)
(0 0 -7.34796e-07)
(0 0 -7.16846e-07)
(0 0 -7.02726e-07)
(0 0 -6.85587e-07)
(0 0 -6.4631e-07)
(0 0 -5.24223e-07)
(0 0 -1.25818e-07)
(0 0 1.15142e-06)
(0 4.41991e-23 5.12338e-06)
(0 0 1.77824e-05)
(0 0 1.77093e-05)
(0 0 1.76452e-05)
(0 0 1.75776e-05)
(0 0 1.74802e-05)
(0 0 1.73695e-05)
(0 0 1.74095e-05)
(0 0 1.79701e-05)
(0 0 1.95402e-05)
(0 0 2.24867e-05)
(0 0 2.67703e-05)
(0 0 3.17844e-05)
(0 0 3.64229e-05)
(0 0 3.9366e-05)
(0 0 3.9468e-05)
(0 0 3.60898e-05)
(0 0 2.92658e-05)
(0 0 1.96681e-05)
(0 0 8.41133e-06)
(0 0 -3.21855e-06)
(0 0 -1.40241e-05)
(0 0 -2.30852e-05)
(0 0 -2.98507e-05)
(0 0 -3.414e-05)
(0 0 -3.60809e-05)
(0 0 -3.60136e-05)
(0 0 -3.43914e-05)
(0 0 -3.16943e-05)
(0 0 -2.83667e-05)
(0 0 -2.47801e-05)
(0 0 -2.12176e-05)
(0 0 -1.78748e-05)
(0 0 -1.487e-05)
(0 0 -1.22598e-05)
(0 0 -1.00554e-05)
(0 0 -8.23778e-06)
(0 0 -6.7696e-06)
(0 0 -5.60502e-06)
(0 0 -4.69612e-06)
(0 0 -3.99713e-06)
(0 0 -3.46684e-06)
(0 0 -3.06966e-06)
(0 0 -2.77582e-06)
(0 0 -2.56107e-06)
(0 0 -2.40603e-06)
(0 0 -2.29542e-06)
(0 0 -2.21721e-06)
(0 0 -2.16132e-06)
(0 0 -2.11678e-06)
(0 0 -2.0636e-06)
(0 0 -1.94624e-06)
(0 0 -1.58866e-06)
(0 0 -4.28795e-07)
(0 0 3.28642e-06)
(0 4.46681e-23 1.48494e-05)
(0 0 2.96249e-05)
(0 0 2.95029e-05)
(0 0 2.93954e-05)
(0 0 2.92827e-05)
(0 0 2.91209e-05)
(0 0 2.89371e-05)
(0 0 2.90024e-05)
(0 0 2.99303e-05)
(0 0 3.25333e-05)
(0 0 3.74237e-05)
(0 0 4.45435e-05)
(0 0 5.28939e-05)
(0 0 6.06455e-05)
(0 0 6.56109e-05)
(0 0 6.58852e-05)
(0 0 6.0399e-05)
(0 0 4.91969e-05)
(0 0 3.33806e-05)
(0 0 1.47881e-05)
(0 0 -4.45445e-06)
(0 0 -2.23636e-05)
(0 0 -3.74113e-05)
(0 0 -4.86787e-05)
(0 0 -5.58594e-05)
(0 0 -5.91578e-05)
(0 0 -5.91315e-05)
(0 0 -5.65263e-05)
(0 0 -5.2134e-05)
(0 0 -4.66885e-05)
(0 0 -4.08045e-05)
(0 0 -3.49509e-05)
(0 0 -2.94522e-05)
(0 0 -2.45056e-05)
(0 0 -2.02058e-05)
(0 0 -1.65726e-05)
(0 0 -1.35755e-05)
(0 0 -1.11537e-05)
(0 0 -9.23204e-06)
(0 0 -7.73184e-06)
(0 0 -6.57781e-06)
(0 0 -5.7021e-06)
(0 0 -5.04607e-06)
(0 0 -4.56066e-06)
(0 0 -4.20586e-06)
(0 0 -3.94971e-06)
(0 0 -3.76701e-06)
(0 0 -3.63792e-06)
(0 0 -3.54589e-06)
(0 0 -3.47325e-06)
(0 0 -3.3885e-06)
(0 0 -3.20522e-06)
(0 0 -2.64993e-06)
(0 0 -8.46861e-07)
(0 0 4.94588e-06)
(0 2.63557e-22 2.30388e-05)
(0 0 4.14471e-05)
(0 0 4.12761e-05)
(0 0 4.11251e-05)
(0 0 4.09673e-05)
(0 0 4.07418e-05)
(0 0 4.04853e-05)
(0 0 4.05738e-05)
(0 0 4.18599e-05)
(0 0 4.54766e-05)
(0 0 5.22845e-05)
(0 0 6.22168e-05)
(0 0 7.38998e-05)
(0 0 8.48012e-05)
(0 0 9.18811e-05)
(0 0 9.2481e-05)
(0 0 8.50944e-05)
(0 0 6.97572e-05)
(0 0 4.79751e-05)
(0 0 2.22819e-05)
(0 0 -4.37973e-06)
(0 0 -2.92563e-05)
(0 0 -5.02193e-05)
(0 0 -6.59803e-05)
(0 0 -7.60997e-05)
(0 0 -8.08464e-05)
(0 0 -8.09818e-05)
(0 0 -7.75312e-05)
(0 0 -7.15867e-05)
(0 0 -6.41629e-05)
(0 0 -5.61112e-05)
(0 0 -4.80827e-05)
(0 0 -4.0529e-05)
(0 0 -3.37256e-05)
(0 0 -2.78066e-05)
(0 0 -2.28017e-05)
(0 0 -1.86705e-05)
(0 0 -1.53307e-05)
(0 0 -1.26797e-05)
(0 0 -1.06094e-05)
(0 0 -9.0166e-06)
(0 0 -7.8078e-06)
(0 0 -6.9023e-06)
(0 0 -6.23253e-06)
(0 0 -5.74333e-06)
(0 0 -5.39059e-06)
(0 0 -5.13956e-06)
(0 0 -4.96291e-06)
(0 0 -4.83798e-06)
(0 0 -4.74126e-06)
(0 0 -4.63234e-06)
(0 0 -4.40277e-06)
(0 0 -3.71049e-06)
(0 0 -1.45605e-06)
(0 0 5.82648e-06)
(0 -1.73015e-22 2.87228e-05)
(0 0 5.32415e-05)
(0 0 5.30209e-05)
(0 0 5.2826e-05)
(0 0 5.26233e-05)
(0 0 5.23349e-05)
(0 0 5.20066e-05)
(0 0 5.21153e-05)
(0 0 5.37472e-05)
(0 0 5.8352e-05)
(0 0 6.70411e-05)
(0 0 7.97529e-05)
(0 0 9.47623e-05)
(0 0 0.00010886)
(0 0 0.000118176)
(0 0 0.000119305)
(0 0 0.000110294)
(0 0 9.11464e-05)
(0 0 6.37369e-05)
(0 0 3.12583e-05)
(0 0 -2.56188e-06)
(0 0 -3.42219e-05)
(0 0 -6.10024e-05)
(0 0 -8.12443e-05)
(0 0 -9.43639e-05)
(0 0 -0.000100679)
(0 0 -0.000101137)
(0 0 -9.70239e-05)
(0 0 -8.97178e-05)
(0 0 -8.0502e-05)
(0 0 -7.04559e-05)
(0 0 -6.04076e-05)
(0 0 -5.09335e-05)
(0 0 -4.23871e-05)
(0 0 -3.49426e-05)
(0 0 -2.86418e-05)
(0 0 -2.34368e-05)
(0 0 -1.92262e-05)
(0 0 -1.58821e-05)
(0 0 -1.32694e-05)
(0 0 -1.12586e-05)
(0 0 -9.73226e-06)
(0 0 -8.58882e-06)
(0 0 -7.74318e-06)
(0 0 -7.1258e-06)
(0 0 -6.68105e-06)
(0 0 -6.36509e-06)
(0 0 -6.14351e-06)
(0 0 -5.98805e-06)
(0 0 -5.87036e-06)
(0 0 -5.7444e-06)
(0 0 -5.491e-06)
(0 0 -4.73793e-06)
(0 0 -2.28506e-06)
(0 0 5.69154e-06)
(0 8.541e-23 3.10468e-05)
(0 0 6.50016e-05)
(0 0 6.4729e-05)
(0 0 6.44897e-05)
(0 0 6.42423e-05)
(0 0 6.38923e-05)
(0 0 6.34932e-05)
(0 0 6.36186e-05)
(0 0 6.55812e-05)
(0 0 7.11424e-05)
(0 0 8.16684e-05)
(0 0 9.71186e-05)
(0 0 0.000115445)
(0 0 0.000132794)
(0 0 0.00014449)
(0 0 0.000146393)
(0 0 0.000136092)
(0 0 0.000113528)
(0 0 8.09016e-05)
(0 0 4.20209e-05)
(0 0 1.3595e-06)
(0 0 -3.68593e-05)
(0 0 -6.93374e-05)
(0 0 -9.4043e-05)
(0 0 -0.000110236)
(0 0 -0.000118264)
(0 0 -0.000119237)
(0 0 -0.000114684)
(0 0 -0.000106247)
(0 0 -9.54648e-05)
(0 0 -8.36341e-05)
(0 0 -7.17538e-05)
(0 0 -6.0522e-05)
(0 0 -5.037e-05)
(0 0 -4.15134e-05)
(0 0 -3.4008e-05)
(0 0 -2.78017e-05)
(0 0 -2.27768e-05)
(0 0 -1.87829e-05)
(0 0 -1.56606e-05)
(0 0 -1.32562e-05)
(0 0 -1.14302e-05)
(0 0 -1.00618e-05)
(0 0 -9.04943e-06)
(0 0 -8.31025e-06)
(0 0 -7.77781e-06)
(0 0 -7.39978e-06)
(0 0 -7.13512e-06)
(0 0 -6.95054e-06)
(0 0 -6.81391e-06)
(0 0 -6.67709e-06)
(0 0 -6.42267e-06)
(0 0 -5.69302e-06)
(0 0 -3.34011e-06)
(0 0 4.33977e-06)
(0 4.2143e-22 2.91998e-05)
(0 0 7.67187e-05)
(0 0 7.63915e-05)
(0 0 7.61077e-05)
(0 0 7.58162e-05)
(0 0 7.54061e-05)
(0 0 7.49374e-05)
(0 0 7.50754e-05)
(0 0 7.73516e-05)
(0 0 8.38329e-05)
(0 0 9.61438e-05)
(0 0 0.000114284)
(0 0 0.000135913)
(0 0 0.000156572)
(0 0 0.00017081)
(0 0 0.000173762)
(0 0 0.000162548)
(0 0 0.000137012)
(0 0 9.96362e-05)
(0 0 5.47906e-05)
(0 0 7.65116e-06)
(0 0 -3.68678e-05)
(0 0 -7.49034e-05)
(0 0 -0.00010405)
(0 0 -0.000123396)
(0 0 -0.000133299)
(0 0 -0.000135006)
(0 0 -0.000130262)
(0 0 -0.000120956)
(0 0 -0.000108862)
(0 0 -9.54851e-05)
(0 0 -8.19861e-05)
(0 0 -6.91818e-05)
(0 0 -5.75805e-05)
(0 0 -4.74406e-05)
(0 0 -3.88349e-05)
(0 0 -3.17097e-05)
(0 0 -2.59346e-05)
(0 0 -2.13403e-05)
(0 0 -1.77456e-05)
(0 0 -1.49753e-05)
(0 0 -1.287e-05)
(0 0 -1.12913e-05)
(0 0 -1.01227e-05)
(0 0 -9.26901e-06)
(0 0 -8.65382e-06)
(0 0 -8.217e-06)
(0 0 -7.91144e-06)
(0 0 -7.69931e-06)
(0 0 -7.54574e-06)
(0 0 -7.40357e-06)
(0 0 -7.16854e-06)
(0 0 -6.54155e-06)
(0 0 -4.59858e-06)
(0 0 1.60955e-06)
(0 -8.24383e-23 2.22551e-05)
(-1.75191e-23 7.9296e-21 3.1393e-06)
(-1.44775e-22 7.79667e-21 2.49847e-06)
(3.18468e-23 -1.93672e-22 1.63875e-06)
(3.8696e-23 -2.32734e-20 5.17418e-07)
(-9.05009e-23 7.94941e-21 -9.01446e-07)
(3.54869e-22 7.80764e-21 -2.64671e-06)
(-7.78981e-22 2.27635e-20 -4.74202e-06)
(3.06085e-22 -2.31277e-20 -7.20826e-06)
(6.15825e-22 -7.44241e-21 -1.00657e-05)
(-8.78789e-22 -3.6645e-24 -1.33359e-05)
(-8.7767e-22 -7.45507e-21 -1.70429e-05)
(7.68622e-22 7.08368e-21 -2.12142e-05)
(5.59158e-22 -5.83331e-20 -2.58819e-05)
(-1.03403e-21 1.25212e-19 -3.10833e-05)
(3.57798e-22 -6.73471e-20 -3.68591e-05)
(-1.20276e-21 -5.07735e-20 -4.32683e-05)
(2.32006e-21 -6.46563e-20 -5.03576e-05)
(-1.81831e-21 7.6147e-21 -5.82244e-05)
(-1.8411e-22 -7.10665e-21 -6.69137e-05)
(6.98632e-23 7.11019e-21 -7.65368e-05)
(-3.08082e-24 -1.2601e-22 -8.71786e-05)
(-6.48152e-23 -6.85718e-21 -9.89569e-05)
(-1.97087e-21 6.91507e-21 -0.000112004)
(4.11966e-21 1.26647e-23 -0.00012647)
(1.2006e-21 6.71179e-21 -0.000142526)
(-3.20985e-21 -5.20919e-24 -0.000160372)
(4.61712e-21 7.78666e-21 -0.000180238)
(-5.43091e-21 1.01075e-19 -0.000202401)
(6.88621e-22 -1.08531e-19 -0.000227206)
(-2.10442e-21 9.90896e-20 -0.000255092)
(2.05038e-21 -1.00209e-19 -0.000286661)
(4.75134e-23 1.31385e-21 -0.000322778)
(-6.17955e-23 -1.61174e-21 -0.000364761)
(2.73983e-21 -9.47192e-20 -0.000414722)
(-8.48799e-21 9.19153e-20 -0.000476166)
(-3.0685e-22 -1.51497e-21 -0.000555047)
(6.06792e-21 1.32711e-23 -0.000661551)
(6.59088e-21 1.44149e-23 -0.00081304)
(-6.56979e-21 -1.43688e-23 -0.00103869)
(-2.17629e-22 -4.75977e-25 -0.00138644)
(-2.26779e-22 -4.95988e-25 -0.00193274)
(-7.79765e-21 -1.70542e-23 -0.00279504)
(7.52685e-21 1.6462e-23 -0.00414611)
(-2.48289e-22 1.47625e-22 -0.00622692)
(-3.4289e-23 7.63632e-21 -0.00935312)
(-2.40603e-20 4.93803e-20 -0.0139065)
(2.31751e-20 -6.50797e-20 -0.0203)
(-5.43442e-21 -9.21132e-21 -0.0289025)
(5.97275e-21 2.52433e-20 -0.0399197)
(-1.98343e-20 -5.53706e-21 -0.0531527)
(-2.54887e-22 7.94011e-21 9.25643e-06)
(-1.05017e-22 1.56191e-20 7.27164e-06)
(2.93843e-22 7.59571e-21 4.57492e-06)
(-8.5206e-22 -7.80956e-21 1.03978e-06)
(1.58315e-21 7.45008e-21 -3.43509e-06)
(-4.80648e-22 -5.33322e-20 -8.92953e-06)
(-2.30303e-22 8.4676e-20 -1.55096e-05)
(-5.47049e-23 -8.80577e-21 -2.32357e-05)
(2.14846e-21 -9.74972e-20 -3.21692e-05)
(-2.24194e-21 1.3763e-19 -4.23766e-05)
(-8.37674e-22 1.25762e-19 -5.39346e-05)
(6.20254e-22 -1.13121e-19 -6.69317e-05)
(-3.84523e-22 7.20655e-22 -8.14707e-05)
(2.74431e-21 -7.20446e-21 -9.76704e-05)
(-2.14244e-21 2.39327e-20 -0.000115673)
(-5.91219e-21 2.37858e-19 -0.000135639)
(1.65506e-21 -2.2364e-19 -0.000157802)
(-5.53895e-21 2.39653e-19 -0.000182321)
(-2.96859e-22 1.94094e-20 -0.000209482)
(-3.75854e-21 -7.26633e-21 -0.000239527)
(3.97452e-21 1.4219e-22 -0.000272793)
(-3.98889e-21 9.01124e-21 -0.000309655)
(9.24139e-22 2.08008e-19 -0.000350534)
(5.95929e-21 -4.4033e-19 -0.000395907)
(4.51352e-21 -2.10299e-19 -0.000446323)
(-7.03853e-21 4.25761e-19 -0.000502417)
(3.76713e-21 -4.24357e-19 -0.000564929)
(-2.13374e-21 4.35389e-19 -0.000634745)
(3.21739e-21 1.46324e-21 -0.000712952)
(-3.64607e-21 -9.55487e-23 -0.000800948)
(-1.22492e-21 -2.67901e-24 -0.000900619)
(0 0 -0.00101465)
(1.80969e-22 9.3901e-23 -0.00114713)
(1.08122e-20 1.21353e-20 -0.00130452)
(-1.57352e-20 3.54642e-19 -0.00149755)
(-1.54442e-20 -2.3944e-20 -0.00174435)
(1.85194e-20 -3.49632e-19 -0.00207592)
(2.63316e-20 -3.01833e-19 -0.00254502)
(-9.52488e-21 3.22409e-19 -0.00324025)
(-3.04831e-20 2.14304e-21 -0.00430705)
(2.97166e-20 1.69583e-20 -0.00597711)
(-4.14881e-20 2.29378e-19 -0.00860612)
(2.257e-20 -2.38585e-19 -0.0127165)
(-1.75784e-20 1.43299e-20 -0.0190366)
(1.94726e-20 7.52362e-21 -0.0285195)
(-5.84852e-20 1.10498e-19 -0.0423173)
(5.84055e-20 -1.08164e-19 -0.0616721)
(-8.94877e-20 8.06251e-20 -0.0876739)
(8.63565e-20 -9.00476e-20 -0.120871)
(-1.83223e-20 -6.16409e-22 -0.159323)
(-5.48233e-23 4.70488e-20 1.48519e-05)
(-8.80077e-23 1.48778e-20 1.12851e-05)
(3.85344e-22 -6.16313e-20 6.34207e-06)
(-8.24044e-22 1.22585e-19 -1.72962e-07)
(1.8127e-21 -2.62386e-19 -8.40179e-06)
(3.42314e-22 1.24747e-19 -1.84536e-05)
(-2.4031e-21 -8.52681e-22 -3.0424e-05)
(1.5394e-21 -1.69349e-20 -4.44092e-05)
(1.52948e-21 -2.5596e-19 -6.05148e-05)
(6.5514e-22 2.43868e-19 -7.8863e-05)
(-8.41738e-22 -1.59722e-21 -9.95968e-05)
(-4.14095e-21 -1.54214e-23 -0.000122884)
(6.56591e-21 -1.81903e-21 -0.00014892)
(-3.79926e-21 -2.49547e-19 -0.000177932)
(5.00118e-21 2.26738e-19 -0.000210182)
(-1.1426e-20 4.50528e-19 -0.000246001)
(-4.751e-21 -1.19487e-20 -0.000285754)
(-4.8481e-21 4.63488e-19 -0.000329856)
(4.08471e-22 -1.4067e-20 -0.000378718)
(-1.24299e-20 4.49955e-19 -0.000432878)
(1.23585e-20 -4.67283e-19 -0.000492949)
(-9.29743e-21 4.46121e-19 -0.000559639)
(2.61606e-21 -4.64001e-19 -0.000633735)
(5.16495e-21 -9.27683e-21 -0.000716142)
(-2.57033e-21 1.35936e-20 -0.000807896)
(5.47978e-21 -8.778e-21 -0.000910193)
(-1.89519e-20 4.17887e-19 -0.00102443)
(1.70806e-20 -4.45336e-19 -0.00115227)
(1.86082e-20 -4.13676e-19 -0.00129575)
(-1.53278e-20 4.15536e-19 -0.00145745)
(-1.06899e-21 -5.10401e-21 -0.00164079)
(1.10597e-20 -1.19674e-22 -0.00185059)
(-1.26373e-20 -2.44693e-20 -0.00209405)
(5.35394e-20 -7.54232e-19 -0.00238246)
(1.63889e-20 5.58976e-20 -0.00273431)
(-7.02281e-20 7.09988e-19 -0.00318074)
(3.89701e-21 -1.21686e-20 -0.00377474)
(-1.12878e-20 -4.76327e-21 -0.00460635)
(1.09609e-19 -5.94939e-19 -0.00582654)
(-2.03955e-19 1.16811e-18 -0.00768286)
(2.07922e-19 -1.15994e-18 -0.0105691)
(6.99464e-20 8.40529e-20 -0.015089)
(-1.55534e-19 5.07386e-19 -0.0221282)
(-1.62823e-19 3.49592e-19 -0.0329204)
(1.53934e-19 -4.14456e-19 -0.0490813)
(-2.1786e-20 1.9103e-20 -0.0725666)
(5.38192e-20 -1.69878e-20 -0.105484)
(1.61269e-19 -1.00081e-19 -0.149639)
(-1.74614e-19 1.56373e-19 -0.205752)
(-2.49249e-20 -4.01539e-20 -0.266138)
(4.10865e-22 -3.10308e-20 1.94717e-05)
(-3.64905e-22 1.56873e-20 1.377e-05)
(6.76021e-22 -1.68398e-22 5.71445e-06)
(-6.00222e-22 -1.54335e-20 -4.89048e-06)
(-9.45635e-22 -1.42277e-21 -1.81678e-05)
(3.39653e-21 -2.42216e-19 -3.42216e-05)
(-4.84645e-21 4.58602e-19 -5.31642e-05)
(2.38005e-21 -2.46887e-19 -7.51308e-05)
(-1.80739e-21 1.48958e-20 -0.000100287)
(4.92306e-21 -2.70316e-19 -0.000128833)
(-5.88818e-21 2.46598e-19 -0.000161009)
(-4.32933e-21 4.70854e-19 -0.000197096)
(1.11845e-20 -9.52467e-19 -0.000237425)
(-1.33694e-20 9.51313e-19 -0.000282374)
(1.75811e-20 -9.46774e-19 -0.000332382)
(-1.17602e-20 9.38132e-19 -0.000387984)
(-1.01015e-20 4.77267e-19 -0.000449803)
(-7.01859e-22 -3.72486e-21 -0.000518484)
(4.45884e-21 3.87139e-21 -0.00059476)
(-7.88114e-21 4.40038e-19 -0.000679508)
(-1.58569e-21 -4.6209e-19 -0.00077374)
(1.46397e-20 1.26161e-20 -0.000878622)
(-3.40738e-20 8.86902e-19 -0.000995469)
(2.59979e-20 -8.89768e-19 -0.00112578)
(2.25943e-21 -5.34885e-21 -0.00127129)
(-9.65115e-21 -9.01268e-23 -0.001434)
(1.46938e-20 -1.34415e-20 -0.00161623)
(-4.77073e-21 1.22338e-22 -0.00182074)
(-5.23497e-21 -6.45985e-23 -0.00205088)
(4.98852e-21 1.93845e-22 -0.00231084)
(-3.70885e-21 1.46108e-21 -0.00260607)
(6.3853e-20 -7.84465e-19 -0.00294408)
(-5.7994e-20 8.06732e-19 -0.0033358)
(-1.59282e-20 2.26104e-22 -0.0037981)
(1.85702e-20 -1.02575e-20 -0.00435815)
(-9.94338e-20 7.19054e-19 -0.00506124)
(1.15729e-19 -7.22197e-19 -0.00598401)
(-2.24256e-20 2.17118e-21 -0.00725631)
(1.58531e-20 -9.24145e-23 -0.00909551)
(3.76861e-20 6.31767e-21 -0.0118578)
(-2.46113e-19 5.38021e-19 -0.0161093)
(3.65619e-19 -1.09025e-18 -0.0227176)
(-1.78481e-19 5.5224e-19 -0.0329556)
(2.58011e-19 -4.21995e-19 -0.0486004)
(-2.49845e-19 4.97072e-19 -0.0719923)
(-5.79993e-19 5.12044e-19 -0.105995)
(1.09431e-18 -1.08487e-18 -0.153743)
(-5.35307e-19 5.47676e-19 -0.217914)
(1.84873e-20 -2.10403e-21 -0.299215)
(4.44635e-21 -3.44466e-20 -0.376776)
(-7.31221e-22 1.57676e-20 2.25439e-05)
(-3.15646e-22 6.04046e-20 1.35161e-05)
(2.07334e-21 -1.83369e-19 7.11191e-07)
(-1.4759e-21 2.46032e-19 -1.58695e-05)
(-1.80355e-22 -1.0893e-19 -3.62401e-05)
(1.20515e-22 -1.4569e-20 -6.04754e-05)
(-4.75905e-22 1.53471e-20 -8.87155e-05)
(2.98945e-21 -1.84198e-22 -0.000121164)
(-2.83106e-21 -1.50014e-20 -0.000158085)
(-5.19711e-21 3.36051e-20 -0.000199803)
(-7.24822e-21 4.78909e-19 -0.000246705)
(1.85603e-20 -4.97722e-19 -0.000299247)
(-2.28274e-20 4.64214e-19 -0.000357954)
(1.90952e-20 -4.82863e-19 -0.000423429)
(-2.97e-21 3.35513e-21 -0.000496365)
(1.08607e-20 4.70041e-23 -0.000577591)
(4.12803e-21 3.6725e-21 -0.000668076)
(-5.62636e-21 4.50862e-19 -0.000768852)
(2.04414e-20 -4.87852e-19 -0.000881083)
(6.25648e-21 2.67121e-20 -0.00100615)
(-4.62124e-20 9.29227e-19 -0.00114565)
(2.9731e-20 -9.31783e-19 -0.00130141)
(1.00503e-20 2.24523e-20 -0.00147552)
(-1.78488e-20 -2.30694e-22 -0.00167038)
(1.16796e-20 9.53257e-21 -0.00188873)
(-3.96868e-20 8.92211e-19 -0.00213377)
(3.29376e-20 -8.83755e-19 -0.00240921)
(2.80636e-21 9.51762e-21 -0.00271944)
(9.39218e-21 2.70623e-20 -0.00306974)
(-1.13813e-20 -5.43609e-22 -0.0034666)
(1.18915e-21 -1.29345e-20 -0.00391831)
(-3.69255e-20 1.31293e-20 -0.00443599)
(3.46851e-20 1.25031e-20 -0.00503531)
(-3.04731e-21 -2.49996e-20 -0.0057398)
(8.36471e-20 -7.32952e-19 -0.0065865)
(-7.48639e-20 7.55515e-19 -0.0076362)
(2.70947e-19 -1.45234e-18 -0.00899075)
(-2.48835e-19 1.46641e-18 -0.0108219)
(3.07228e-19 -1.37061e-18 -0.0134169)
(7.03955e-20 1.31151e-19 -0.0172464)
(-3.52549e-19 1.30504e-18 -0.0230595)
(-1.19054e-19 -2.18668e-20 -0.0320062)
(1.62081e-20 3.82516e-22 -0.0457799)
(-1.8026e-20 5.53907e-22 -0.0667625)
(5.32683e-20 1.63656e-21 -0.0981414)
(2.55839e-20 1.33468e-20 -0.143942)
(-1.11176e-19 5.03816e-21 -0.208828)
(6.33478e-20 4.88094e-21 -0.297152)
(-1.62142e-22 -3.04415e-22 -0.410104)
(3.54393e-20 6.25195e-22 -0.501261)
(-7.57407e-22 7.60244e-20 2.32287e-05)
(1.65515e-21 -4.63491e-20 8.27171e-06)
(-1.63212e-21 -1.63291e-20 -1.21849e-05)
(4.78893e-21 -2.27068e-19 -3.76296e-05)
(-2.44294e-21 2.28922e-19 -6.7983e-05)
(2.20326e-21 -2.26479e-19 -0.000103355)
(-1.12621e-20 4.99391e-19 -0.000143988)
(1.20524e-20 -6.99239e-19 -0.000190227)
(-7.81964e-21 4.94367e-19 -0.000242506)
(-6.31984e-21 4.81905e-19 -0.000301346)
(-2.20073e-21 3.95888e-21 -0.000367361)
(2.50522e-20 -9.46475e-19 -0.000441258)
(-2.20766e-20 9.84764e-19 -0.000523852)
(5.52397e-21 -4.63204e-19 -0.000616073)
(1.24703e-20 -4.6541e-19 -0.000718982)
(2.27069e-20 -4.57826e-19 -0.000833816)
(-3.26226e-21 6.49951e-21 -0.000962035)
(3.90146e-20 -9.4933e-19 -0.00110527)
(3.05359e-20 -9.11229e-19 -0.0012653)
(6.56029e-21 2.11591e-20 -0.00144423)
(-2.77168e-20 9.46222e-19 -0.00164453)
(-1.98955e-20 -7.98579e-21 -0.00186902)
(1.21486e-20 8.8455e-21 -0.00212091)
(-5.18757e-20 9.155e-19 -0.00240392)
(4.24341e-20 -9.29833e-19 -0.00272235)
(7.39077e-20 -8.9288e-19 -0.00308119)
(-7.51254e-20 9.22167e-19 -0.00348625)
(1.48983e-20 -1.97861e-20 -0.00394438)
(6.92897e-20 -8.89338e-19 -0.00446374)
(-9.67311e-20 9.1195e-19 -0.00505427)
(4.32387e-21 1.21964e-20 -0.00572835)
(-2.10038e-19 1.66858e-18 -0.00650212)
(1.90486e-19 -1.73099e-18 -0.00739753)
(4.78628e-20 6.1328e-20 -0.0084463)
(-2.69934e-19 1.57736e-18 -0.00969682)
(2.47982e-19 -1.64457e-18 -0.0112264)
(-3.11476e-20 -3.22598e-21 -0.0131628)
(4.71842e-19 -1.48068e-18 -0.0157196)
(-4.41997e-19 1.52904e-18 -0.0192533)
(-6.52059e-20 -7.14535e-20 -0.0243494)
(6.74422e-19 -1.28978e-18 -0.031944)
(-1.18737e-18 2.65846e-18 -0.0434825)
(-6.3861e-20 -1.54159e-19 -0.0611099)
(-8.55309e-20 -1.21099e-19 -0.0878817)
(7.61913e-19 -1.15473e-18 -0.127985)
(3.88723e-20 6.19833e-20 -0.186995)
(-8.54216e-19 7.62654e-19 -0.272164)
(8.37441e-19 -8.38953e-19 -0.392218)
(8.79191e-21 2.85216e-20 -0.553425)
(9.10784e-21 -2.66724e-21 -0.663843)
(6.08691e-22 -1.58246e-20 2.04272e-05)
(1.76984e-21 -1.35049e-19 -6.64198e-06)
(-1.87919e-21 1.21779e-19 -3.90117e-05)
(-1.24132e-21 -1.71196e-20 -7.67745e-05)
(5.46617e-21 -2.25637e-19 -0.000120149)
(-5.06217e-21 2.32015e-19 -0.000169489)
(-6.18927e-21 4.68662e-19 -0.000225242)
(-5.03412e-21 -1.9398e-20 -0.000287953)
(2.16781e-21 -4.57979e-21 -0.000358259)
(1.47634e-20 -4.99659e-19 -0.000436896)
(-1.21285e-20 4.67407e-19 -0.000524707)
(1.85671e-20 -9.88743e-19 -0.000622649)
(-4.5494e-21 4.94151e-19 -0.000731813)
(-3.58924e-21 -1.85633e-20 -0.000853433)
(-4.79646e-21 -2.21889e-20 -0.000988897)
(2.94265e-20 -9.69552e-19 -0.00113976)
(-1.62375e-21 -2.02038e-20 -0.00130786)
(2.84071e-20 -9.87423e-19 -0.00149531)
(-5.32748e-21 -7.71601e-21 -0.00170445)
(-1.68832e-22 1.18006e-22 -0.00193787)
(1.13257e-20 8.34766e-21 -0.00219861)
(-5.41335e-20 9.49268e-19 -0.0024901)
(4.84625e-20 -9.69552e-19 -0.00281621)
(1.2644e-20 8.25325e-21 -0.00318137)
(-8.59095e-21 -1.48522e-20 -0.00359056)
(-6.10922e-21 9.80397e-21 -0.00404947)
(-7.58064e-20 9.15369e-19 -0.00456453)
(1.62734e-19 -1.867e-18 -0.00514306)
(-7.7372e-20 9.73281e-19 -0.00579346)
(-1.95656e-19 1.80313e-18 -0.00652547)
(-3.03865e-20 -4.56702e-20 -0.00735068)
(2.32902e-21 -2.68909e-20 -0.0082835)
(-6.56039e-20 -5.39507e-20 -0.00934288)
(2.62896e-19 -1.79999e-18 -0.0105559)
(4.01478e-19 -1.66527e-18 -0.0119642)
(-3.59248e-19 1.74752e-18 -0.0136367)
(-3.35325e-20 -5.42456e-20 -0.0156919)
(4.74473e-19 -1.59001e-18 -0.0183372)
(-4.19517e-19 1.68377e-18 -0.0219337)
(-6.65985e-19 1.4941e-18 -0.0270986)
(5.67351e-19 -1.57769e-18 -0.0348551)
(7.71562e-20 -1.10179e-20 -0.0468373)
(8.60349e-19 -1.39076e-18 -0.0655467)
(1.17459e-19 1.21698e-19 -0.0946545)
(-9.91637e-19 1.36084e-18 -0.139356)
(-1.59738e-20 -3.89623e-20 -0.20686)
(3.30519e-20 5.19107e-22 -0.307707)
(-3.31852e-20 1.56182e-20 -0.460572)
(-5.01772e-19 5.24695e-19 -0.70161)
(4.93007e-19 -5.3399e-19 -0.962137)
(-1.06938e-20 -3.15748e-21 0.00957634)
(-1.06544e-20 -3.18151e-22 0.0052204)
(9.98511e-21 9.87462e-21 0.00153702)
(-6.90422e-21 2.2369e-21 -0.00154004)
(7.42792e-21 -1.17105e-20 -0.00408467)
(6.54274e-23 3.52944e-21 -0.00617323)
(-1.73468e-22 -9.78534e-23 -0.00787701)
(-5.65827e-21 1.23752e-23 -0.00925699)
(5.50115e-21 -1.20316e-23 -0.0103629)
(-1.65598e-22 3.62178e-25 -0.0112363)
(-1.60218e-22 3.50412e-25 -0.0119107)
(4.80276e-21 -1.05041e-23 -0.0124143)
(-4.81819e-21 1.05379e-23 -0.0127694)
(-4.37854e-21 9.57631e-24 -0.0129947)
(2.82621e-22 -1.04431e-21 -0.013106)
(6.2888e-21 4.11934e-21 -0.0131175)
(-2.17058e-21 -1.79975e-21 -0.0130413)
(-7.47101e-23 -9.82937e-22 -0.0128886)
(-2.82336e-23 7.80718e-22 -0.0126694)
(-2.23623e-21 -1.40995e-20 -0.0123926)
(2.27617e-21 1.31726e-20 -0.0120658)
(-1.55289e-21 -1.73719e-20 -0.0116957)
(1.72548e-21 7.24839e-22 -0.0112886)
(-2.33206e-21 1.26152e-23 -0.0108515)
(1.53254e-21 1.73603e-21 -0.0103919)
(-5.7266e-22 3.39127e-23 -0.00991584)
(-1.5213e-21 3.32723e-24 -0.00942768)
(7.1342e-22 -2.02318e-23 -0.00893185)
(1.85807e-22 2.57761e-21 -0.00843262)
(-3.20737e-23 3.20902e-23 -0.00793378)
(-1.92727e-22 -3.01276e-21 -0.00743875)
(1.73236e-22 3.2081e-21 -0.00695059)
(2.9982e-23 -3.46407e-21 -0.00647201)
(6.39971e-22 3.33004e-20 -0.0060054)
(-8.96195e-22 -3.34535e-20 -0.00555282)
(-6.22653e-22 -2.88971e-20 -0.00511605)
(1.3994e-21 6.30967e-20 -0.00469655)
(-7.80252e-22 -3.44585e-20 -0.00429553)
(-1.70339e-22 -4.61722e-21 -0.00391391)
(1.6652e-22 4.7921e-21 -0.00355238)
(-3.54045e-23 1.61521e-24 -0.0032114)
(2.14894e-22 5.12223e-21 -0.0028912)
(-4.58855e-22 -2.67717e-20 -0.00259181)
(4.28422e-22 2.70096e-20 -0.0023131)
(-1.11758e-22 -5.629e-21 -0.00205475)
(2.81734e-22 1.74312e-20 -0.00181627)
(3.53301e-23 -5.79115e-21 -0.00159702)
(-1.80143e-22 -1.21512e-20 -0.0013961)
(4.57767e-23 6.12446e-21 -0.00121235)
(-1.33139e-22 -6.31937e-21 -0.00104416)
(-1.53768e-20 2.53114e-20 0.0277526)
(3.07514e-20 -1.00273e-20 0.0147877)
(-2.4811e-20 -2.17958e-20 0.00373548)
(8.66746e-21 2.26544e-20 -0.00542121)
(-9.04553e-21 -2.21852e-20 -0.0129376)
(-1.27079e-20 6.15061e-21 -0.0190696)
(1.13248e-20 6.85393e-21 -0.0240486)
(1.19516e-20 1.70763e-20 -0.0280651)
(1.28538e-21 -2.87597e-20 -0.03127)
(-2.2792e-20 6.77222e-21 -0.0337901)
(2.18613e-20 -5.08677e-21 -0.0357261)
(-2.52157e-21 -5.28294e-21 -0.0371613)
(-9.87662e-21 2.03375e-20 -0.0381623)
(-1.09368e-20 -7.57433e-21 -0.0387829)
(8.515e-21 -1.68542e-20 -0.0390704)
(1.14534e-20 1.00338e-20 -0.039066)
(-7.84669e-21 4.33256e-21 -0.0388056)
(-4.27582e-22 -1.23424e-21 -0.0383218)
(1.35487e-23 -1.20725e-22 -0.0376441)
(7.27874e-22 -1.59193e-24 -0.0367988)
(2.10049e-21 3.31367e-23 -0.0358086)
(-2.16367e-21 -3.42292e-21 -0.0346929)
(1.66522e-20 9.30325e-20 -0.0334698)
(-1.87336e-20 -9.79637e-20 -0.0321619)
(2.08726e-20 1.17456e-19 -0.0307865)
(-1.07649e-20 -5.04154e-20 -0.0293645)
(-2.09853e-20 -1.42426e-19 -0.0279089)
(9.50491e-21 7.21261e-20 -0.0264324)
(1.00243e-21 -1.80789e-21 -0.0249472)
(-1.76092e-21 -5.797e-21 -0.0234644)
(1.1877e-21 3.00751e-21 -0.0219939)
(-1.0472e-21 -1.00477e-20 -0.0205448)
(9.97629e-21 1.10558e-19 -0.0191248)
(-2.12056e-20 -2.37721e-19 -0.017741)
(9.80745e-21 1.16026e-19 -0.0163994)
(-8.80602e-22 -1.20547e-20 -0.0151052)
(7.41636e-23 4.22422e-21 -0.0138627)
(9.81291e-24 -1.14974e-23 -0.0126754)
(-4.85568e-21 -8.01454e-20 -0.0115459)
(4.1407e-21 7.0839e-20 -0.0104762)
(3.26026e-21 7.09529e-20 -0.00946761)
(-4.76042e-21 -9.67288e-20 -0.00852079)
(1.31058e-22 5.37644e-21 -0.0076358)
(1.03547e-21 2.78792e-20 -0.00681216)
(-2.26993e-21 -5.01794e-20 -0.0060489)
(9.14091e-24 -5.76415e-21 -0.00534457)
(-1.49403e-21 -4.17003e-20 -0.00469717)
(-3.0178e-22 -6.5359e-21 -0.00410407)
(3.59126e-22 1.2038e-20 -0.00356163)
(4.41419e-22 1.87901e-20 -0.00306468)
(-1.38585e-20 -1.08757e-21 0.0429759)
(-1.39815e-20 -1.54149e-20 0.0215602)
(3.60632e-20 2.94556e-20 0.00315041)
(-4.3737e-20 -1.25302e-20 -0.0118237)
(1.80168e-20 1.21522e-20 -0.0239225)
(2.63756e-20 2.06799e-20 -0.0336702)
(-1.7601e-20 -5.98264e-20 -0.0415083)
(1.73659e-20 -1.87281e-20 -0.0477792)
(-3.14664e-20 4.01562e-20 -0.0527413)
(-8.18249e-21 2.31282e-20 -0.0566072)
(4.20623e-20 -4.40852e-20 -0.0595445)
(-3.20277e-20 3.44678e-20 -0.0616873)
(6.8899e-21 -1.12558e-20 -0.0631428)
(-3.40392e-21 -9.42201e-21 -0.0639965)
(5.34354e-20 4.24843e-20 -0.0643239)
(-4.15794e-21 3.38751e-20 -0.0641907)
(-4.68315e-20 -5.79305e-20 -0.0636543)
(1.1048e-20 -5.76654e-21 -0.0627665)
(-7.66765e-21 2.86077e-22 -0.061574)
(4.18781e-22 -2.97214e-21 -0.060119)
(3.12233e-20 8.41017e-20 -0.0584375)
(-3.14261e-20 -7.30155e-20 -0.0565613)
(-3.39831e-20 -1.07764e-19 -0.0545206)
(3.72588e-20 1.06312e-19 -0.0523451)
(-9.25195e-22 6.68971e-21 -0.05007)
(-2.10452e-22 -4.46819e-21 -0.0477216)
(-5.83307e-22 6.12979e-21 -0.0453252)
(-3.12094e-20 -1.65612e-19 -0.0428999)
(3.529e-20 1.69408e-19 -0.040465)
(-3.36884e-20 -1.83547e-19 -0.0380379)
(3.60262e-20 1.95105e-19 -0.0356343)
(8.39793e-22 7.08203e-21 -0.0332683)
(3.26859e-20 2.35266e-19 -0.0309525)
(-6.50552e-20 -4.74197e-19 -0.0286979)
(3.43574e-20 2.54237e-19 -0.0265141)
(1.57913e-20 1.44577e-19 -0.0244091)
(-1.4109e-20 -1.27101e-19 -0.0223898)
(-2.09755e-22 -9.42284e-23 -0.0204614)
(-2.95274e-22 -1.62856e-22 -0.0186283)
(-2.42036e-23 7.14352e-23 -0.0168934)
(1.29636e-20 1.63732e-19 -0.0152586)
(-1.26301e-20 -1.53855e-19 -0.0137249)
(1.02621e-21 1.08689e-20 -0.0122921)
(-4.97142e-22 -4.94254e-23 -0.0109595)
(5.36379e-21 9.14238e-20 -0.00972525)
(-1.00561e-20 -1.73973e-19 -0.00858696)
(5.0059e-21 9.39844e-20 -0.00754127)
(-2.63376e-21 -4.91141e-20 -0.0065837)
(1.97343e-21 3.65489e-20 -0.0057079)
(4.74226e-22 1.23226e-20 -0.00490426)
(1.97131e-21 2.6545e-20 0.0524533)
(8.56811e-21 -5.41851e-20 0.0229181)
(-7.34222e-20 1.54503e-20 -0.00264268)
(1.2052e-19 8.28139e-20 -0.0228186)
(-3.12737e-20 -1.11689e-19 -0.0387174)
(-1.53237e-20 2.32635e-20 -0.0512788)
(2.19336e-22 1.89263e-20 -0.0612254)
(-1.03906e-20 2.57178e-21 -0.0690788)
(-2.08476e-20 1.162e-20 -0.075215)
(7.03688e-20 -2.73624e-20 -0.0799245)
(-2.67173e-20 1.28212e-20 -0.0834331)
(-1.35197e-20 6.31831e-22 -0.0859153)
(1.94665e-20 1.02908e-20 -0.0875107)
(-7.41895e-20 -6.79756e-20 -0.0883337)
(5.76882e-20 4.62455e-20 -0.0884819)
(-1.04901e-20 1.26169e-20 -0.08804)
(9.47421e-21 -8.8692e-21 -0.0870826)
(7.47096e-20 1.37674e-19 -0.0856763)
(-7.91078e-20 -1.2162e-19 -0.0838817)
(6.73481e-22 -1.06061e-20 -0.081753)
(-2.85302e-21 -9.80491e-23 -0.0793395)
(2.9641e-21 4.94006e-22 -0.0766802)
(2.32991e-21 -8.69521e-23 -0.0738168)
(-5.80965e-21 4.26674e-21 -0.0707861)
(5.16575e-21 4.49208e-22 -0.0676317)
(7.03526e-22 7.83393e-21 -0.0643909)
(-9.82775e-20 -3.48412e-19 -0.0610971)
(9.98265e-20 3.37549e-19 -0.0577742)
(-4.75724e-21 4.31254e-21 -0.0544468)
(-4.41679e-20 -2.08627e-19 -0.0511375)
(4.91567e-20 2.13847e-19 -0.0478666)
(-9.70451e-22 1.08306e-21 -0.0446525)
(-1.53984e-22 1.58334e-22 -0.0415115)
(-4.55704e-20 -2.65422e-19 -0.0384579)
(9.08668e-20 5.34142e-19 -0.035504)
(-8.77014e-20 -5.48519e-19 -0.0326602)
(8.54806e-20 5.71585e-19 -0.0299351)
(-8.25036e-20 -5.9357e-19 -0.0273356)
(4.03489e-20 3.02088e-19 -0.0248669)
(1.89982e-20 1.6168e-19 -0.0225328)
(-1.65765e-20 -1.41202e-19 -0.0203354)
(-1.32872e-21 -1.07405e-20 -0.0182756)
(-1.64994e-20 -1.75648e-19 -0.0163532)
(3.48808e-20 3.78907e-19 -0.0145667)
(-1.62385e-20 -1.80937e-19 -0.0129136)
(1.85238e-22 2.53558e-22 -0.0113903)
(7.07748e-22 1.18771e-20 -0.00999211)
(-1.63535e-22 -1.30277e-22 -0.00871268)
(-6.95547e-22 -1.23291e-20 -0.00754269)
(1.51909e-21 2.52388e-20 -0.00646683)
(2.70572e-20 9.54703e-23 0.0523987)
(3.31372e-22 3.98942e-22 0.0151161)
(-6.11258e-20 4.55386e-22 -0.0168674)
(9.05252e-20 -2.69456e-22 -0.0409684)
(-2.70909e-20 5.38359e-23 -0.0592799)
(-4.34647e-20 -8.2327e-22 -0.0733461)
(1.40913e-20 5.53478e-23 -0.0842493)
(-1.16194e-20 -9.747e-23 -0.0927068)
(9.38623e-20 -2.56783e-20 -0.0991867)
(2.21888e-20 8.8094e-20 -0.104034)
(-1.15922e-21 7.1229e-20 -0.107516)
(-4.99919e-20 -1.3602e-19 -0.109832)
(9.72424e-20 1.6505e-19 -0.111145)
(-1.16065e-19 -1.55922e-19 -0.111586)
(5.07468e-20 1.05583e-19 -0.111267)
(-6.23311e-20 -1.11211e-19 -0.110282)
(5.17685e-21 -7.29163e-21 -0.108717)
(-2.73519e-20 -1.82805e-21 -0.106646)
(2.43688e-20 -3.60214e-21 -0.10414)