/*--------------------------------*- C++ -*----------------------------------*\
| =========                 |                                                 |
| \\      /  F ield         | OpenFOAM: The Open Source CFD Toolbox           |
|  \\    /   O peration     | Version:  2412                                  |
|   \\  /    A nd           | Website:  www.openfoam.com                      |
|    \\/     M anipulation  |                                                 |
\*---------------------------------------------------------------------------*/
FoamFile
{
    version     2.0;
    format      ascii;
    arch        "LSB;label=32;scalar=64";
    class       volVectorField;
    location    "21";
    object      vorticity;
}
// * * * * * * * * * * * * * * * * * * * * * * * * * * * * * * * * * * * * * //

dimensions      [0 0 -1 0 0 0 0];

internalField   nonuniform List<vector> 
5285
(
(0 -0 -2.47385e-05)
(0 -0 -2.71916e-05)
(0 -0 -2.94793e-05)
(0 -0 -3.15535e-05)
(0 -0 -3.33352e-05)
(0 -0 -3.48402e-05)
(0 -0 -3.60995e-05)
(0 -0 -3.71383e-05)
(0 -0 -3.79737e-05)
(0 -0 -3.86188e-05)
(0 -0 -3.90869e-05)
(0 -0 -3.93938e-05)
(0 -0 -3.95566e-05)
(0 -0 -3.95921e-05)
(0 -0 -3.95168e-05)
(0 -0 -3.93459e-05)
(0 -0 -3.90941e-05)
(0 -0 -3.87746e-05)
(0 -0 -3.83991e-05)
(0 -0 -3.79775e-05)
(0 -0 -3.75179e-05)
(0 -0 -3.70266e-05)
(0 -0 -3.65086e-05)
(0 -0 -3.59677e-05)
(0 -0 -3.54072e-05)
(0 -0 -3.48297e-05)
(0 -0 -3.42382e-05)
(0 -0 -3.36358e-05)
(0 -0 -3.30259e-05)
(0 -0 -3.24121e-05)
(0 -0 -3.17976e-05)
(0 -0 -3.11841e-05)
(0 -0 -3.05727e-05)
(0 -0 -2.99635e-05)
(0 -0 -2.93573e-05)
(0 -0 -2.87547e-05)
(0 -0 -2.81572e-05)
(0 -0 -2.75661e-05)
(0 -0 -2.69828e-05)
(0 -0 -2.64075e-05)
(0 -0 -2.58393e-05)
(0 -0 -2.52773e-05)
(0 -0 -2.472e-05)
(0 -0 -2.41704e-05)
(0 -0 -2.36277e-05)
(0 -0 -2.30994e-05)
(0 -0 -2.25778e-05)
(0 -0 -2.2079e-05)
(0 -0 -2.15745e-05)
(0 -0 -2.11088e-05)
(0 -0 -2.06059e-05)
(0 -0 -2.01838e-05)
(0 -0 -1.96582e-05)
(0 -0 -1.9311e-05)
(0 -0 -1.87142e-05)
(0 -0 -1.84864e-05)
(0 -0 -1.77293e-05)
(0 -0 -1.77002e-05)
(0 -0 -1.66712e-05)
(0 -0 -1.69625e-05)
(0 -0 -1.55275e-05)
(0 -0 -1.62345e-05)
(0 -0 -1.44087e-05)
(0 -0 -1.48894e-05)
(0 -0 -1.53464e-05)
(0 -0 -7.49064e-06)
(0 -0 -2.67114e-05)
(0 -0 7.20078e-06)
(0 -0 -1.97689e-05)
(0 -0 -1.85872e-05)
(0 -0 -2.08313e-05)
(0 -0 -2.22774e-05)
(0 -0 -2.45162e-05)
(0 -0 -2.66164e-05)
(0 -0 -2.8528e-05)
(0 -0 -3.01732e-05)
(0 -0 -3.1565e-05)
(0 -0 -3.27319e-05)
(0 -0 -3.36973e-05)
(0 -0 -3.4476e-05)
(0 -0 -3.50796e-05)
(0 -0 -3.55201e-05)
(0 -0 -3.58118e-05)
(0 -0 -3.59707e-05)
(0 -0 -3.60125e-05)
(0 -0 -3.59525e-05)
(0 -0 -3.58049e-05)
(0 -0 -3.55831e-05)
(0 -0 -3.52994e-05)
(0 -0 -3.49645e-05)
(0 -0 -3.45876e-05)
(0 -0 -3.41761e-05)
(0 -0 -3.37358e-05)
(0 -0 -3.32713e-05)
(0 -0 -3.27862e-05)
(0 -0 -3.22833e-05)
(0 -0 -3.17652e-05)
(0 -0 -3.12346e-05)
(0 -0 -3.06943e-05)
(0 -0 -3.01475e-05)
(0 -0 -2.95974e-05)
(0 -0 -2.90466e-05)
(0 -0 -2.8497e-05)
(0 -0 -2.79494e-05)
(0 -0 -2.74041e-05)
(0 -0 -2.68615e-05)
(0 -0 -2.63227e-05)
(0 -0 -2.57886e-05)
(0 -0 -2.52606e-05)
(0 -0 -2.47398e-05)
(0 -0 -2.42264e-05)
(0 -0 -2.37195e-05)
(0 -0 -2.32184e-05)
(0 -0 -2.27215e-05)
(0 -0 -2.22319e-05)
(0 -0 -2.17484e-05)
(0 -0 -2.12782e-05)
(0 -0 -2.08137e-05)
(0 -0 -2.03704e-05)
(0 -0 -1.99204e-05)
(0 -0 -1.95077e-05)
(0 -0 -1.90581e-05)
(0 -0 -1.86867e-05)
(0 -0 -1.8214e-05)
(0 -0 -1.79142e-05)
(0 -0 -1.73716e-05)
(0 -0 -1.71875e-05)
(0 -0 -1.649e-05)
(0 -0 -1.64985e-05)
(0 -0 -1.55391e-05)
(0 -0 -1.58557e-05)
(0 -0 -1.45085e-05)
(0 -0 -1.52249e-05)
(0 -0 -1.34855e-05)
(0 -0 -1.41095e-05)
(0 -0 -1.40386e-05)
(0 -0 -8.35778e-06)
(0 -0 -2.22086e-05)
(0 -0 1.63408e-06)
(0 -0 -1.3977e-05)
(0 -0 -1.80736e-05)
(0 -0 -2.20363e-05)
(0 -0 -1.99068e-05)
(0 -0 -2.19333e-05)
(0 -0 -2.38462e-05)
(0 -0 -2.55988e-05)
(0 -0 -2.71098e-05)
(0 -0 -2.83899e-05)
(0 -0 -2.94656e-05)
(0 -0 -3.03581e-05)
(0 -0 -3.10805e-05)
(0 -0 -3.16425e-05)
(0 -0 -3.20548e-05)
(0 -0 -3.23306e-05)
(0 -0 -3.24846e-05)
(0 -0 -3.25315e-05)
(0 -0 -3.24855e-05)
(0 -0 -3.23596e-05)
(0 -0 -3.21663e-05)
(0 -0 -3.19167e-05)
(0 -0 -3.16207e-05)
(0 -0 -3.12867e-05)
(0 -0 -3.09214e-05)
(0 -0 -3.05302e-05)
(0 -0 -3.01172e-05)
(0 -0 -2.96857e-05)
(0 -0 -2.92385e-05)
(0 -0 -2.87778e-05)
(0 -0 -2.8306e-05)
(0 -0 -2.78258e-05)
(0 -0 -2.73399e-05)
(0 -0 -2.68512e-05)
(0 -0 -2.63621e-05)
(0 -0 -2.58742e-05)
(0 -0 -2.53883e-05)
(0 -0 -2.49046e-05)
(0 -0 -2.44237e-05)
(0 -0 -2.39463e-05)
(0 -0 -2.34736e-05)
(0 -0 -2.30066e-05)
(0 -0 -2.25461e-05)
(0 -0 -2.20925e-05)
(0 -0 -2.16448e-05)
(0 -0 -2.12023e-05)
(0 -0 -2.07638e-05)
(0 -0 -2.0332e-05)
(0 -0 -1.99057e-05)
(0 -0 -1.94917e-05)
(0 -0 -1.90821e-05)
(0 -0 -1.86922e-05)
(0 -0 -1.82949e-05)
(0 -0 -1.79331e-05)
(0 -0 -1.7535e-05)
(0 -0 -1.72124e-05)
(0 -0 -1.67906e-05)
(0 -0 -1.65365e-05)
(0 -0 -1.60462e-05)
(0 -0 -1.59041e-05)
(0 -0 -1.52644e-05)
(0 -0 -1.53087e-05)
(0 -0 -1.44172e-05)
(0 -0 -1.47574e-05)
(0 -0 -1.34964e-05)
(0 -0 -1.42203e-05)
(0 -0 -1.2568e-05)
(0 -0 -1.3323e-05)
(0 -0 -1.27652e-05)
(0 -0 -9.12506e-06)
(0 -0 -1.79322e-05)
(0 -0 -3.56433e-06)
(0 -0 -8.49804e-06)
(0 -0 -1.75798e-05)
(0 -0 -2.30741e-05)
(0 -0 -1.76217e-05)
(0 -0 -1.94406e-05)
(0 -0 -2.11743e-05)
(0 -0 -2.27737e-05)
(0 -0 -2.41552e-05)
(0 -0 -2.53274e-05)
(0 -0 -2.6315e-05)
(0 -0 -2.71367e-05)
(0 -0 -2.78042e-05)
(0 -0 -2.83256e-05)
(0 -0 -2.87101e-05)
(0 -0 -2.89699e-05)
(0 -0 -2.91185e-05)
(0 -0 -2.91697e-05)
(0 -0 -2.91364e-05)
(0 -0 -2.90308e-05)
(0 -0 -2.88642e-05)
(0 -0 -2.86469e-05)
(0 -0 -2.83877e-05)
(0 -0 -2.80943e-05)
(0 -0 -2.77729e-05)
(0 -0 -2.74282e-05)
(0 -0 -2.70642e-05)
(0 -0 -2.66838e-05)
(0 -0 -2.62895e-05)
(0 -0 -2.58834e-05)
(0 -0 -2.54677e-05)
(0 -0 -2.50446e-05)
(0 -0 -2.46168e-05)
(0 -0 -2.41866e-05)
(0 -0 -2.37563e-05)
(0 -0 -2.33272e-05)
(0 -0 -2.29e-05)
(0 -0 -2.2475e-05)
(0 -0 -2.20527e-05)
(0 -0 -2.1634e-05)
(0 -0 -2.12196e-05)
(0 -0 -2.08107e-05)
(0 -0 -2.04076e-05)
(0 -0 -2.00109e-05)
(0 -0 -1.96194e-05)
(0 -0 -1.92327e-05)
(0 -0 -1.88497e-05)
(0 -0 -1.84728e-05)
(0 -0 -1.81008e-05)
(0 -0 -1.77401e-05)
(0 -0 -1.73828e-05)
(0 -0 -1.70437e-05)
(0 -0 -1.66963e-05)
(0 -0 -1.63829e-05)
(0 -0 -1.60335e-05)
(0 -0 -1.57571e-05)
(0 -0 -1.53837e-05)
(0 -0 -1.51727e-05)
(0 -0 -1.47322e-05)
(0 -0 -1.46297e-05)
(0 -0 -1.40452e-05)
(0 -0 -1.41231e-05)
(0 -0 -1.32967e-05)
(0 -0 -1.36584e-05)
(0 -0 -1.2481e-05)
(0 -0 -1.32098e-05)
(0 -0 -1.16448e-05)
(0 -0 -1.25152e-05)
(0 -0 -1.15204e-05)
(0 -0 -9.75292e-06)
(0 -0 -1.39248e-05)
(0 -0 -8.28023e-06)
(0 -0 -3.39707e-06)
(0 -0 -1.70897e-05)
(0 -0 -2.38784e-05)
(0 -0 -1.54197e-05)
(0 -0 -1.70426e-05)
(0 -0 -1.86067e-05)
(0 -0 -2.00611e-05)
(0 -0 -2.13201e-05)
(0 -0 -2.23903e-05)
(0 -0 -2.32943e-05)
(0 -0 -2.4049e-05)
(0 -0 -2.46643e-05)
(0 -0 -2.51469e-05)
(0 -0 -2.55049e-05)
(0 -0 -2.57491e-05)
(0 -0 -2.58923e-05)
(0 -0 -2.59471e-05)
(0 -0 -2.59255e-05)
(0 -0 -2.58387e-05)
(0 -0 -2.56971e-05)
(0 -0 -2.55098e-05)
(0 -0 -2.52851e-05)
(0 -0 -2.50298e-05)
(0 -0 -2.47495e-05)
(0 -0 -2.44485e-05)
(0 -0 -2.41305e-05)
(0 -0 -2.3798e-05)
(0 -0 -2.34534e-05)
(0 -0 -2.30985e-05)
(0 -0 -2.27355e-05)
(0 -0 -2.23662e-05)
(0 -0 -2.19929e-05)
(0 -0 -2.16177e-05)
(0 -0 -2.12425e-05)
(0 -0 -2.08686e-05)
(0 -0 -2.04965e-05)
(0 -0 -2.01266e-05)
(0 -0 -1.97593e-05)
(0 -0 -1.93956e-05)
(0 -0 -1.9036e-05)
(0 -0 -1.86815e-05)
(0 -0 -1.83323e-05)
(0 -0 -1.79888e-05)
(0 -0 -1.76499e-05)
(0 -0 -1.73155e-05)
(0 -0 -1.69844e-05)
(0 -0 -1.6659e-05)
(0 -0 -1.63377e-05)
(0 -0 -1.60269e-05)
(0 -0 -1.57185e-05)
(0 -0 -1.54268e-05)
(0 -0 -1.51262e-05)
(0 -0 -1.48579e-05)
(0 -0 -1.45541e-05)
(0 -0 -1.43209e-05)
(0 -0 -1.39927e-05)
(0 -0 -1.38219e-05)
(0 -0 -1.34281e-05)
(0 -0 -1.33621e-05)
(0 -0 -1.28297e-05)
(0 -0 -1.29382e-05)
(0 -0 -1.21738e-05)
(0 -0 -1.25542e-05)
(0 -0 -1.1457e-05)
(0 -0 -1.21878e-05)
(0 -0 -1.07094e-05)
(0 -0 -1.16776e-05)
(0 -0 -1.03017e-05)
(0 -0 -1.02132e-05)
(0 -0 -1.02212e-05)
(0 -0 -1.24279e-05)
(0 -0 1.2748e-06)
(0 -0 -1.6592e-05)
(0 -0 -2.44025e-05)
(0 -0 -1.33027e-05)
(0 -0 -1.4744e-05)
(0 -0 -1.61509e-05)
(0 -0 -1.74709e-05)
(0 -0 -1.86163e-05)
(0 -0 -1.95919e-05)
(0 -0 -2.04183e-05)
(0 -0 -2.11109e-05)
(0 -0 -2.16778e-05)
(0 -0 -2.21243e-05)
(0 -0 -2.24575e-05)
(0 -0 -2.26873e-05)
(0 -0 -2.28252e-05)
(0 -0 -2.28832e-05)
(0 -0 -2.28724e-05)
(0 -0 -2.2803e-05)
(0 -0 -2.26844e-05)
(0 -0 -2.25251e-05)
(0 -0 -2.23323e-05)
(0 -0 -2.21123e-05)
(0 -0 -2.18701e-05)
(0 -0 -2.16097e-05)
(0 -0 -2.13342e-05)
(0 -0 -2.10461e-05)
(0 -0 -2.07475e-05)
(0 -0 -2.04402e-05)
(0 -0 -2.01259e-05)
(0 -0 -1.98064e-05)
(0 -0 -1.94836e-05)
(0 -0 -1.91593e-05)
(0 -0 -1.88352e-05)
(0 -0 -1.85123e-05)
(0 -0 -1.81912e-05)
(0 -0 -1.78722e-05)
(0 -0 -1.75559e-05)
(0 -0 -1.72429e-05)
(0 -0 -1.69341e-05)
(0 -0 -1.66297e-05)
(0 -0 -1.63303e-05)
(0 -0 -1.60359e-05)
(0 -0 -1.57457e-05)
(0 -0 -1.54595e-05)
(0 -0 -1.51761e-05)
(0 -0 -1.48981e-05)
(0 -0 -1.46237e-05)
(0 -0 -1.43589e-05)
(0 -0 -1.40955e-05)
(0 -0 -1.38475e-05)
(0 -0 -1.35899e-05)
(0 -0 -1.33631e-05)
(0 -0 -1.31012e-05)
(0 -0 -1.29076e-05)
(0 -0 -1.26212e-05)
(0 -0 -1.24871e-05)
(0 -0 -1.21365e-05)
(0 -0 -1.21038e-05)
(0 -0 -1.16199e-05)
(0 -0 -1.17556e-05)
(0 -0 -1.10493e-05)
(0 -0 -1.14454e-05)
(0 -0 -1.04243e-05)
(0 -0 -1.11537e-05)
(0 -0 -9.76068e-06)
(0 -0 -1.08076e-05)
(0 -0 -9.1107e-06)
(0 -0 -1.04902e-05)
(0 -0 -6.84803e-06)
(0 -0 -1.59517e-05)
(0 -0 5.47918e-06)
(0 -0 -1.60802e-05)
(0 -0 -2.4619e-05)
(0 -0 -1.12757e-05)
(0 -0 -1.2552e-05)
(0 -0 -1.38162e-05)
(0 -0 -1.5014e-05)
(0 -0 -1.60562e-05)
(0 -0 -1.69459e-05)
(0 -0 -1.77019e-05)
(0 -0 -1.8338e-05)
(0 -0 -1.88609e-05)
(0 -0 -1.92748e-05)
(0 -0 -1.95855e-05)
(0 -0 -1.98021e-05)
(0 -0 -1.99354e-05)
(0 -0 -1.99965e-05)
(0 -0 -1.99956e-05)
(0 -0 -1.99422e-05)
(0 -0 -1.98449e-05)
(0 -0 -1.97111e-05)
(0 -0 -1.95477e-05)
(0 -0 -1.936e-05)
(0 -0 -1.91527e-05)
(0 -0 -1.89293e-05)
(0 -0 -1.86928e-05)
(0 -0 -1.84454e-05)
(0 -0 -1.81889e-05)
(0 -0 -1.7925e-05)
(0 -0 -1.76553e-05)
(0 -0 -1.73812e-05)
(0 -0 -1.71045e-05)
(0 -0 -1.68268e-05)
(0 -0 -1.65492e-05)
(0 -0 -1.62729e-05)
(0 -0 -1.59983e-05)
(0 -0 -1.57257e-05)
(0 -0 -1.54558e-05)
(0 -0 -1.51892e-05)
(0 -0 -1.49265e-05)
(0 -0 -1.46679e-05)
(0 -0 -1.44137e-05)
(0 -0 -1.4164e-05)
(0 -0 -1.3918e-05)
(0 -0 -1.36755e-05)
(0 -0 -1.34356e-05)
(0 -0 -1.32006e-05)
(0 -0 -1.29687e-05)
(0 -0 -1.27456e-05)
(0 -0 -1.25231e-05)
(0 -0 -1.23147e-05)
(0 -0 -1.20962e-05)
(0 -0 -1.19069e-05)
(0 -0 -1.16832e-05)
(0 -0 -1.15253e-05)
(0 -0 -1.12769e-05)
(0 -0 -1.11758e-05)
(0 -0 -1.08646e-05)
(0 -0 -1.08614e-05)
(0 -0 -1.04221e-05)
(0 -0 -1.05814e-05)
(0 -0 -9.92927e-06)
(0 -0 -1.03375e-05)
(0 -0 -9.38823e-06)
(0 -0 -1.01125e-05)
(0 -0 -8.8031e-06)
(0 -0 -9.90898e-06)
(0 -0 -7.95263e-06)
(0 -0 -1.05805e-05)
(0 -0 -3.82317e-06)
(0 -0 -1.88267e-05)
(0 -0 9.19225e-06)
(0 -0 -1.5553e-05)
(0 -0 -2.45196e-05)
(0 -0 -9.34667e-06)
(0 -0 -1.04761e-05)
(0 -0 -1.16131e-05)
(0 -0 -1.27022e-05)
(0 -0 -1.36526e-05)
(0 -0 -1.44658e-05)
(0 -0 -1.51593e-05)
(0 -0 -1.57452e-05)
(0 -0 -1.6229e-05)
(0 -0 -1.66139e-05)
(0 -0 -1.69048e-05)
(0 -0 -1.71099e-05)
(0 -0 -1.72394e-05)
(0 -0 -1.73035e-05)
(0 -0 -1.73119e-05)
(0 -0 -1.72732e-05)
(0 -0 -1.71951e-05)
(0 -0 -1.70847e-05)
(0 -0 -1.69479e-05)
(0 -0 -1.67895e-05)
(0 -0 -1.66138e-05)
(0 -0 -1.6424e-05)
(0 -0 -1.62227e-05)
(0 -0 -1.6012e-05)
(0 -0 -1.57935e-05)
(0 -0 -1.55687e-05)
(0 -0 -1.53392e-05)
(0 -0 -1.51062e-05)
(0 -0 -1.4871e-05)
(0 -0 -1.46351e-05)
(0 -0 -1.43995e-05)
(0 -0 -1.41651e-05)
(0 -0 -1.39323e-05)
(0 -0 -1.37015e-05)
(0 -0 -1.34732e-05)
(0 -0 -1.32482e-05)
(0 -0 -1.30269e-05)
(0 -0 -1.28094e-05)
(0 -0 -1.25958e-05)
(0 -0 -1.23861e-05)
(0 -0 -1.21796e-05)
(0 -0 -1.19763e-05)
(0 -0 -1.17753e-05)
(0 -0 -1.15788e-05)
(0 -0 -1.13849e-05)
(0 -0 -1.1199e-05)
(0 -0 -1.1013e-05)
(0 -0 -1.084e-05)
(0 -0 -1.06564e-05)
(0 -0 -1.05007e-05)
(0 -0 -1.0311e-05)
(0 -0 -1.01849e-05)
(0 -0 -9.97046e-06)
(0 -0 -9.89864e-06)
(0 -0 -9.62296e-06)
(0 -0 -9.64554e-06)
(0 -0 -9.24663e-06)
(0 -0 -9.42598e-06)
(0 -0 -8.82352e-06)
(0 -0 -9.24056e-06)
(0 -0 -8.35819e-06)
(0 -0 -9.0737e-06)
(0 -0 -7.84562e-06)
(0 -0 -8.99092e-06)
(0 -0 -6.83589e-06)
(0 -0 -1.04921e-05)
(0 -0 -1.15618e-06)
(0 -0 -2.10569e-05)
(0 -0 1.24035e-05)
(0 -0 -1.50137e-05)
(0 -0 -2.41133e-05)
(0 -0 -7.52543e-06)
(0 -0 -8.52656e-06)
(0 -0 -9.5526e-06)
(0 -0 -1.05469e-05)
(0 -0 -1.14173e-05)
(0 -0 -1.21641e-05)
(0 -0 -1.28031e-05)
(0 -0 -1.33454e-05)
(0 -0 -1.37953e-05)
(0 -0 -1.41552e-05)
(0 -0 -1.44291e-05)
(0 -0 -1.46246e-05)
(0 -0 -1.47511e-05)
(0 -0 -1.48183e-05)
(0 -0 -1.48353e-05)
(0 -0 -1.481e-05)
(0 -0 -1.47495e-05)
(0 -0 -1.46601e-05)
(0 -0 -1.45472e-05)
(0 -0 -1.44151e-05)
(0 -0 -1.42677e-05)
(0 -0 -1.41079e-05)
(0 -0 -1.3938e-05)
(0 -0 -1.376e-05)
(0 -0 -1.35753e-05)
(0 -0 -1.33855e-05)
(0 -0 -1.31917e-05)
(0 -0 -1.29951e-05)
(0 -0 -1.27969e-05)
(0 -0 -1.25981e-05)
(0 -0 -1.23997e-05)
(0 -0 -1.22025e-05)
(0 -0 -1.20067e-05)
(0 -0 -1.18129e-05)
(0 -0 -1.16217e-05)
(0 -0 -1.14335e-05)
(0 -0 -1.12488e-05)
(0 -0 -1.10676e-05)
(0 -0 -1.08898e-05)
(0 -0 -1.07154e-05)
(0 -0 -1.05439e-05)
(0 -0 -1.03751e-05)
(0 -0 -1.02083e-05)
(0 -0 -1.00457e-05)
(0 -0 -9.8853e-06)
(0 -0 -9.73218e-06)
(0 -0 -9.57837e-06)
(0 -0 -9.43654e-06)
(0 -0 -9.28372e-06)
(0 -0 -9.15738e-06)
(0 -0 -8.99768e-06)
(0 -0 -8.89947e-06)
(0 -0 -8.71499e-06)
(0 -0 -8.66856e-06)
(0 -0 -8.42443e-06)
(0 -0 -8.46902e-06)
(0 -0 -8.10643e-06)
(0 -0 -8.30204e-06)
(0 -0 -7.74494e-06)
(0 -0 -8.16726e-06)
(0 -0 -7.34695e-06)
(0 -0 -8.05011e-06)
(0 -0 -6.90065e-06)
(0 -0 -8.06666e-06)
(0 -0 -5.77099e-06)
(0 -0 -1.02423e-05)
(0 -0 1.1517e-06)
(0 -0 -2.26712e-05)
(0 -0 1.51154e-05)
(0 -0 -1.44689e-05)
(0 -0 -2.34247e-05)
(0 -0 -5.82249e-06)
(0 -0 -6.71379e-06)
(0 -0 -7.64511e-06)
(0 -0 -8.55858e-06)
(0 -0 -9.36089e-06)
(0 -0 -1.0051e-05)
(0 -0 -1.06437e-05)
(0 -0 -1.11489e-05)
(0 -0 -1.15702e-05)
(0 -0 -1.1909e-05)
(0 -0 -1.21688e-05)
(0 -0 -1.23565e-05)
(0 -0 -1.24809e-05)
(0 -0 -1.25514e-05)
(0 -0 -1.25764e-05)
(0 -0 -1.25633e-05)
(0 -0 -1.25186e-05)
(0 -0 -1.2448e-05)
(0 -0 -1.23564e-05)
(0 -0 -1.22477e-05)
(0 -0 -1.21254e-05)
(0 -0 -1.1992e-05)
(0 -0 -1.18499e-05)
(0 -0 -1.17006e-05)
(0 -0 -1.15458e-05)
(0 -0 -1.13866e-05)
(0 -0 -1.12241e-05)
(0 -0 -1.10595e-05)
(0 -0 -1.08937e-05)
(0 -0 -1.07275e-05)
(0 -0 -1.05617e-05)
(0 -0 -1.0397e-05)
(0 -0 -1.02336e-05)
(0 -0 -1.00722e-05)
(0 -0 -9.91314e-06)
(0 -0 -9.75712e-06)
(0 -0 -9.60433e-06)
(0 -0 -9.45474e-06)
(0 -0 -9.30815e-06)
(0 -0 -9.16453e-06)
(0 -0 -9.02332e-06)
(0 -0 -8.88456e-06)
(0 -0 -8.74758e-06)
(0 -0 -8.61438e-06)
(0 -0 -8.48298e-06)
(0 -0 -8.35828e-06)
(0 -0 -8.23235e-06)
(0 -0 -8.1175e-06)
(0 -0 -7.99138e-06)
(0 -0 -7.89052e-06)
(0 -0 -7.75685e-06)
(0 -0 -7.6826e-06)
(0 -0 -7.52425e-06)
(0 -0 -7.49947e-06)
(0 -0 -7.28303e-06)
(0 -0 -7.34595e-06)
(0 -0 -7.01565e-06)
(0 -0 -7.22394e-06)
(0 -0 -6.70787e-06)
(0 -0 -7.13215e-06)
(0 -0 -6.369e-06)
(0 -0 -7.05647e-06)
(0 -0 -5.98256e-06)
(0 -0 -7.15202e-06)
(0 -0 -4.76936e-06)
(0 -0 -9.85553e-06)
(0 -0 3.10704e-06)
(0 -0 -2.37186e-05)
(0 -0 1.73418e-05)
(0 -0 -1.39276e-05)
(0 -0 -2.24904e-05)
(0 -0 -4.24773e-06)
(0 -0 -5.04706e-06)
(0 -0 -5.89928e-06)
(0 -0 -6.74536e-06)
(0 -0 -7.49097e-06)
(0 -0 -8.13404e-06)
(0 -0 -8.6883e-06)
(0 -0 -9.16281e-06)
(0 -0 -9.56042e-06)
(0 -0 -9.88194e-06)
(0 -0 -1.01304e-05)
(0 -0 -1.0312e-05)
(0 -0 -1.04355e-05)
(0 -0 -1.05094e-05)
(0 -0 -1.05418e-05)
(0 -0 -1.05398e-05)
(0 -0 -1.05092e-05)
(0 -0 -1.04552e-05)
(0 -0 -1.03824e-05)
(0 -0 -1.02942e-05)
(0 -0 -1.01938e-05)
(0 -0 -1.00836e-05)
(0 -0 -9.96566e-06)
(0 -0 -9.8415e-06)
(0 -0 -9.71251e-06)
(0 -0 -9.57986e-06)
(0 -0 -9.44461e-06)
(0 -0 -9.30767e-06)
(0 -0 -9.16982e-06)
(0 -0 -9.03178e-06)
(0 -0 -8.89417e-06)
(0 -0 -8.75749e-06)
(0 -0 -8.62212e-06)
(0 -0 -8.48851e-06)
(0 -0 -8.35727e-06)
(0 -0 -8.22891e-06)
(0 -0 -8.10358e-06)
(0 -0 -7.98112e-06)
(0 -0 -7.86129e-06)
(0 -0 -7.74401e-06)
(0 -0 -7.6288e-06)
(0 -0 -7.51574e-06)
(0 -0 -7.40422e-06)
(0 -0 -7.29616e-06)
(0 -0 -7.18957e-06)
(0 -0 -7.08913e-06)
(0 -0 -6.98701e-06)
(0 -0 -6.89519e-06)
(0 -0 -6.79191e-06)
(0 -0 -6.71274e-06)
(0 -0 -6.60136e-06)
(0 -0 -6.54738e-06)
(0 -0 -6.41149e-06)
(0 -0 -6.40482e-06)
(0 -0 -6.21241e-06)
(0 -0 -6.29017e-06)
(0 -0 -5.98832e-06)
(0 -0 -6.20588e-06)
(0 -0 -5.72675e-06)
(0 -0 -6.14986e-06)
(0 -0 -5.43911e-06)
(0 -0 -6.10789e-06)
(0 -0 -5.10619e-06)
(0 -0 -6.2637e-06)
(0 -0 -3.84208e-06)
(0 -0 -9.36064e-06)
(0 -0 4.72347e-06)
(0 -0 -2.42631e-05)
(0 -0 1.91067e-05)
(0 -0 -1.33995e-05)
(0 -0 -2.13551e-05)
(0 -0 -2.80924e-06)
(0 -0 -3.53331e-06)
(0 -0 -4.32109e-06)
(0 -0 -5.11238e-06)
(0 -0 -5.812e-06)
(0 -0 -6.41695e-06)
(0 -0 -6.94011e-06)
(0 -0 -7.38986e-06)
(0 -0 -7.76847e-06)
(0 -0 -8.07629e-06)
(0 -0 -8.31588e-06)
(0 -0 -8.49324e-06)
(0 -0 -8.61647e-06)
(0 -0 -8.69397e-06)
(0 -0 -8.73338e-06)
(0 -0 -8.74125e-06)
(0 -0 -8.72317e-06)
(0 -0 -8.68388e-06)
(0 -0 -8.62742e-06)
(0 -0 -8.55712e-06)
(0 -0 -8.47575e-06)
(0 -0 -8.38557e-06)
(0 -0 -8.28843e-06)
(0 -0 -8.18583e-06)
(0 -0 -8.07903e-06)
(0 -0 -7.96915e-06)
(0 -0 -7.85716e-06)
(0 -0 -7.74386e-06)
(0 -0 -7.62992e-06)
(0 -0 -7.51589e-06)
(0 -0 -7.40229e-06)
(0 -0 -7.28952e-06)
(0 -0 -7.17794e-06)
(0 -0 -7.06802e-06)
(0 -0 -6.96038e-06)
(0 -0 -6.85549e-06)
(0 -0 -6.75341e-06)
(0 -0 -6.65392e-06)
(0 -0 -6.55669e-06)
(0 -0 -6.46166e-06)
(0 -0 -6.36839e-06)
(0 -0 -6.27701e-06)
(0 -0 -6.18696e-06)
(0 -0 -6.1001e-06)
(0 -0 -6.01438e-06)
(0 -0 -5.93432e-06)
(0 -0 -5.85223e-06)
(0 -0 -5.77975e-06)
(0 -0 -5.69573e-06)
(0 -0 -5.63476e-06)
(0 -0 -5.54219e-06)
(0 -0 -5.50509e-06)
(0 -0 -5.38825e-06)
(0 -0 -5.39639e-06)
(0 -0 -5.22461e-06)
(0 -0 -5.31398e-06)
(0 -0 -5.03704e-06)
(0 -0 -5.26076e-06)
(0 -0 -4.81471e-06)
(0 -0 -5.23383e-06)
(0 -0 -4.57092e-06)
(0 -0 -5.21845e-06)
(0 -0 -4.28539e-06)
(0 -0 -5.41778e-06)
(0 -0 -2.99877e-06)
(0 -0 -8.78826e-06)
(0 -0 6.02078e-06)
(0 -0 -2.43773e-05)
(0 -0 2.04421e-05)
(0 -0 -1.28939e-05)
(0 -0 -2.00676e-05)
(0 -0 -1.51226e-06)
(0 -0 -2.17635e-06)
(0 -0 -2.91308e-06)
(0 -0 -3.66109e-06)
(0 -0 -4.32446e-06)
(0 -0 -4.89941e-06)
(0 -0 -5.39814e-06)
(0 -0 -5.82849e-06)
(0 -0 -6.19233e-06)
(0 -0 -6.48965e-06)
(0 -0 -6.72274e-06)
(0 -0 -6.89728e-06)
(0 -0 -7.02109e-06)
(0 -0 -7.10226e-06)
(0 -0 -7.14813e-06)
(0 -0 -7.16492e-06)
(0 -0 -7.15785e-06)
(0 -0 -7.13135e-06)
(0 -0 -7.08911e-06)
(0 -0 -7.0342e-06)
(0 -0 -6.96917e-06)
(0 -0 -6.89611e-06)
(0 -0 -6.81673e-06)
(0 -0 -6.73245e-06)
(0 -0 -6.64448e-06)
(0 -0 -6.55387e-06)
(0 -0 -6.46153e-06)
(0 -0 -6.36818e-06)
(0 -0 -6.27439e-06)
(0 -0 -6.18061e-06)
(0 -0 -6.08721e-06)
(0 -0 -5.99455e-06)
(0 -0 -5.90295e-06)
(0 -0 -5.81291e-06)
(0 -0 -5.72504e-06)
(0 -0 -5.63978e-06)
(0 -0 -5.55712e-06)
(0 -0 -5.47678e-06)
(0 -0 -5.39839e-06)
(0 -0 -5.32186e-06)
(0 -0 -5.24684e-06)
(0 -0 -5.17349e-06)
(0 -0 -5.10129e-06)
(0 -0 -5.03201e-06)
(0 -0 -4.96361e-06)
(0 -0 -4.90042e-06)
(0 -0 -4.83491e-06)
(0 -0 -4.77842e-06)
(0 -0 -4.71041e-06)
(0 -0 -4.66448e-06)
(0 -0 -4.58758e-06)
(0 -0 -4.56426e-06)
(0 -0 -4.46339e-06)
(0 -0 -4.48336e-06)
(0 -0 -4.32913e-06)
(0 -0 -4.42722e-06)
(0 -0 -4.17193e-06)
(0 -0 -4.39904e-06)
(0 -0 -3.98254e-06)
(0 -0 -4.3952e-06)
(0 -0 -3.77587e-06)
(0 -0 -4.40006e-06)
(0 -0 -3.53192e-06)
(0 -0 -4.62839e-06)
(0 -0 -2.24665e-06)
(0 -0 -8.16848e-06)
(0 -0 7.02374e-06)
(0 -0 -2.41379e-05)
(0 -0 2.13862e-05)
(0 -0 -1.24186e-05)
(0 -0 -1.86777e-05)
(0 -0 -3.58476e-07)
(0 -0 -9.76252e-07)
(0 -0 -1.67388e-06)
(0 -0 -2.38883e-06)
(0 -0 -3.02459e-06)
(0 -0 -3.57674e-06)
(0 -0 -4.05695e-06)
(0 -0 -4.47264e-06)
(0 -0 -4.82542e-06)
(0 -0 -5.11508e-06)
(0 -0 -5.34369e-06)
(0 -0 -5.51672e-06)
(0 -0 -5.64175e-06)
(0 -0 -5.72665e-06)
(0 -0 -5.7785e-06)
(0 -0 -5.80326e-06)
(0 -0 -5.80586e-06)
(0 -0 -5.79044e-06)
(0 -0 -5.76044e-06)
(0 -0 -5.7187e-06)
(0 -0 -5.66759e-06)
(0 -0 -5.60904e-06)
(0 -0 -5.54466e-06)
(0 -0 -5.4758e-06)
(0 -0 -5.40361e-06)
(0 -0 -5.32913e-06)
(0 -0 -5.2532e-06)
(0 -0 -5.1765e-06)
(0 -0 -5.0995e-06)
(0 -0 -5.02256e-06)
(0 -0 -4.94598e-06)
(0 -0 -4.87002e-06)
(0 -0 -4.79501e-06)
(0 -0 -4.72144e-06)
(0 -0 -4.64992e-06)
(0 -0 -4.58086e-06)
(0 -0 -4.5142e-06)
(0 -0 -4.4496e-06)
(0 -0 -4.38667e-06)
(0 -0 -4.32532e-06)
(0 -0 -4.26526e-06)
(0 -0 -4.20669e-06)
(0 -0 -4.14911e-06)
(0 -0 -4.09422e-06)
(0 -0 -4.03996e-06)
(0 -0 -3.99051e-06)
(0 -0 -3.93852e-06)
(0 -0 -3.89505e-06)
(0 -0 -3.84016e-06)
(0 -0 -3.80646e-06)
(0 -0 -3.74244e-06)
(0 -0 -3.73018e-06)
(0 -0 -3.64255e-06)
(0 -0 -3.67172e-06)
(0 -0 -3.53228e-06)
(0 -0 -3.63653e-06)
(0 -0 -3.40002e-06)
(0 -0 -3.62809e-06)
(0 -0 -3.23797e-06)
(0 -0 -3.64207e-06)
(0 -0 -3.06237e-06)
(0 -0 -3.66167e-06)
(0 -0 -2.85461e-06)
(0 -0 -3.90675e-06)
(0 -0 -1.59003e-06)
(0 -0 -7.52903e-06)
(0 -0 7.76084e-06)
(0 -0 -2.36203e-05)
(0 -0 2.19814e-05)
(0 -0 -1.19793e-05)
(0 -0 -1.72327e-05)
(0 -0 6.54237e-07)
(0 -0 7.08258e-08)
(0 -0 -5.98108e-07)
(0 -0 -1.28887e-06)
(0 -0 -1.9045e-06)
(0 -0 -2.44007e-06)
(0 -0 -2.90686e-06)
(0 -0 -3.31201e-06)
(0 -0 -3.65695e-06)
(0 -0 -3.94138e-06)
(0 -0 -4.16723e-06)
(0 -0 -4.33986e-06)
(0 -0 -4.46665e-06)
(0 -0 -4.55531e-06)
(0 -0 -4.61271e-06)
(0 -0 -4.64458e-06)
(0 -0 -4.65564e-06)
(0 -0 -4.6498e-06)
(0 -0 -4.63028e-06)
(0 -0 -4.59975e-06)
(0 -0 -4.56041e-06)
(0 -0 -4.51407e-06)
(0 -0 -4.46226e-06)
(0 -0 -4.40626e-06)
(0 -0 -4.3472e-06)
(0 -0 -4.28608e-06)
(0 -0 -4.22373e-06)
(0 -0 -4.16077e-06)
(0 -0 -4.09762e-06)
(0 -0 -4.03455e-06)
(0 -0 -3.9718e-06)
(0 -0 -3.90957e-06)
(0 -0 -3.84817e-06)
(0 -0 -3.78808e-06)
(0 -0 -3.72992e-06)
(0 -0 -3.67407e-06)
(0 -0 -3.62041e-06)
(0 -0 -3.56858e-06)
(0 -0 -3.51817e-06)
(0 -0 -3.46909e-06)
(0 -0 -3.42111e-06)
(0 -0 -3.37449e-06)
(0 -0 -3.32873e-06)
(0 -0 -3.28545e-06)
(0 -0 -3.24257e-06)
(0 -0 -3.20415e-06)
(0 -0 -3.163e-06)
(0 -0 -3.12997e-06)
(0 -0 -3.0857e-06)
(0 -0 -3.06178e-06)
(0 -0 -3.00822e-06)
(0 -0 -3.00466e-06)
(0 -0 -2.92788e-06)
(0 -0 -2.96396e-06)
(0 -0 -2.83693e-06)
(0 -0 -2.94514e-06)
(0 -0 -2.72488e-06)
(0 -0 -2.95186e-06)
(0 -0 -2.5853e-06)
(0 -0 -2.97914e-06)
(0 -0 -2.43545e-06)
(0 -0 -3.00882e-06)
(0 -0 -2.25898e-06)
(0 -0 -3.26072e-06)
(0 -0 -1.03007e-06)
(0 -0 -6.89387e-06)
(0 -0 8.26293e-06)
(0 -0 -2.28954e-05)
(0 -0 2.22718e-05)
(0 -0 -1.15792e-05)
(0 -0 -1.57756e-05)
(0 -0 1.5313e-06)
(0 -0 9.72065e-07)
(0 -0 3.2305e-07)
(0 -0 -3.50984e-07)
(0 -0 -9.5279e-07)
(0 -0 -1.47706e-06)
(0 -0 -1.93477e-06)
(0 -0 -2.33285e-06)
(0 -0 -2.67268e-06)
(0 -0 -2.95393e-06)
(0 -0 -3.1785e-06)
(0 -0 -3.35164e-06)
(0 -0 -3.48065e-06)
(0 -0 -3.57307e-06)
(0 -0 -3.63561e-06)
(0 -0 -3.67384e-06)
(0 -0 -3.6923e-06)
(0 -0 -3.69473e-06)
(0 -0 -3.68418e-06)
(0 -0 -3.66317e-06)
(0 -0 -3.63375e-06)
(0 -0 -3.59765e-06)
(0 -0 -3.5563e-06)
(0 -0 -3.51097e-06)
(0 -0 -3.46275e-06)
(0 -0 -3.41263e-06)
(0 -0 -3.3614e-06)
(0 -0 -3.30968e-06)
(0 -0 -3.25784e-06)
(0 -0 -3.20611e-06)
(0 -0 -3.15463e-06)
(0 -0 -3.10359e-06)
(0 -0 -3.05324e-06)
(0 -0 -3.00409e-06)
(0 -0 -2.95672e-06)
(0 -0 -2.9115e-06)
(0 -0 -2.86827e-06)
(0 -0 -2.82667e-06)
(0 -0 -2.78625e-06)
(0 -0 -2.74696e-06)
(0 -0 -2.70861e-06)
(0 -0 -2.67152e-06)
(0 -0 -2.6352e-06)
(0 -0 -2.60115e-06)
(0 -0 -2.56731e-06)
(0 -0 -2.53759e-06)
(0 -0 -2.50501e-06)
(0 -0 -2.48022e-06)
(0 -0 -2.44441e-06)
(0 -0 -2.4282e-06)
(0 -0 -2.38306e-06)
(0 -0 -2.38618e-06)
(0 -0 -2.31823e-06)
(0 -0 -2.35929e-06)
(0 -0 -2.24261e-06)
(0 -0 -2.35294e-06)
(0 -0 -2.14674e-06)
(0 -0 -2.37095e-06)
(0 -0 -2.02547e-06)
(0 -0 -2.40775e-06)
(0 -0 -1.89676e-06)
(0 -0 -2.44369e-06)
(0 -0 -1.74714e-06)
(0 -0 -2.69459e-06)
(0 -0 -5.64871e-07)
(0 -0 -6.28248e-06)
(0 -0 8.56187e-06)
(0 -0 -2.20267e-05)
(0 -0 2.23023e-05)
(0 -0 -1.12187e-05)
(0 -0 -1.4343e-05)
(0 -0 2.27602e-06)
(0 -0 1.73242e-06)
(0 -0 1.09656e-06)
(0 -0 4.33413e-07)
(0 -0 -1.59566e-07)
(0 -0 -6.76729e-07)
(0 -0 -1.12877e-06)
(0 -0 -1.52251e-06)
(0 -0 -1.85933e-06)
(0 -0 -2.13894e-06)
(0 -0 -2.36327e-06)
(0 -0 -2.53753e-06)
(0 -0 -2.66895e-06)
(0 -0 -2.76496e-06)
(0 -0 -2.83214e-06)
(0 -0 -2.87594e-06)
(0 -0 -2.90077e-06)
(0 -0 -2.91022e-06)
(0 -0 -2.90724e-06)
(0 -0 -2.89417e-06)
(0 -0 -2.87301e-06)
(0 -0 -2.84535e-06)
(0 -0 -2.8126e-06)
(0 -0 -2.77598e-06)
(0 -0 -2.73657e-06)
(0 -0 -2.69535e-06)
(0 -0 -2.65312e-06)
(0 -0 -2.61045e-06)
(0 -0 -2.56772e-06)
(0 -0 -2.5251e-06)
(0 -0 -2.48269e-06)
(0 -0 -2.44063e-06)
(0 -0 -2.39914e-06)
(0 -0 -2.35871e-06)
(0 -0 -2.31993e-06)
(0 -0 -2.28312e-06)
(0 -0 -2.24813e-06)
(0 -0 -2.21457e-06)
(0 -0 -2.182e-06)
(0 -0 -2.15038e-06)
(0 -0 -2.11958e-06)
(0 -0 -2.08998e-06)
(0 -0 -2.06106e-06)
(0 -0 -2.03425e-06)
(0 -0 -2.00747e-06)
(0 -0 -1.98447e-06)
(0 -0 -1.95855e-06)
(0 -0 -1.94013e-06)
(0 -0 -1.911e-06)
(0 -0 -1.90076e-06)
(0 -0 -1.8623e-06)
(0 -0 -1.87042e-06)
(0 -0 -1.80959e-06)
(0 -0 -1.85402e-06)
(0 -0 -1.74599e-06)
(0 -0 -1.85688e-06)
(0 -0 -1.66295e-06)
(0 -0 -1.88298e-06)
(0 -0 -1.55656e-06)
(0 -0 -1.92617e-06)
(0 -0 -1.44513e-06)
(0 -0 -1.96531e-06)
(0 -0 -1.31817e-06)
(0 -0 -2.20937e-06)
(0 -0 -1.89929e-07)
(0 -0 -5.70956e-06)
(0 -0 8.68922e-06)
(0 -0 -2.10689e-05)
(0 -0 2.21158e-05)
(0 -0 -1.08961e-05)
(0 -0 -1.29648e-05)
(0 -0 2.90711e-06)
(0 -0 2.36848e-06)
(0 -0 1.7406e-06)
(0 -0 1.08389e-06)
(0 -0 4.95714e-07)
(0 -0 -1.78066e-08)
(0 -0 -4.67076e-07)
(0 -0 -8.58816e-07)
(0 -0 -1.19444e-06)
(0 -0 -1.47379e-06)
(0 -0 -1.69885e-06)
(0 -0 -1.87483e-06)
(0 -0 -2.00896e-06)
(0 -0 -2.10854e-06)
(0 -0 -2.18008e-06)
(0 -0 -2.22894e-06)
(0 -0 -2.25941e-06)
(0 -0 -2.275e-06)
(0 -0 -2.27855e-06)
(0 -0 -2.27228e-06)
(0 -0 -2.25811e-06)
(0 -0 -2.23757e-06)
(0 -0 -2.21198e-06)
(0 -0 -2.1826e-06)
(0 -0 -2.15044e-06)
(0 -0 -2.11652e-06)
(0 -0 -2.08164e-06)
(0 -0 -2.04631e-06)
(0 -0 -2.01098e-06)
(0 -0 -1.97577e-06)
(0 -0 -1.94068e-06)
(0 -0 -1.90587e-06)
(0 -0 -1.8715e-06)
(0 -0 -1.83807e-06)
(0 -0 -1.80614e-06)
(0 -0 -1.77599e-06)
(0 -0 -1.74748e-06)
(0 -0 -1.72021e-06)
(0 -0 -1.69378e-06)
(0 -0 -1.66815e-06)
(0 -0 -1.64323e-06)
(0 -0 -1.61948e-06)
(0 -0 -1.59635e-06)
(0 -0 -1.57517e-06)
(0 -0 -1.55383e-06)
(0 -0 -1.536e-06)
(0 -0 -1.51519e-06)
(0 -0 -1.50163e-06)
(0 -0 -1.47771e-06)
(0 -0 -1.47202e-06)
(0 -0 -1.43884e-06)
(0 -0 -1.4506e-06)
(0 -0 -1.3955e-06)
(0 -0 -1.44199e-06)
(0 -0 -1.34116e-06)
(0 -0 -1.45143e-06)
(0 -0 -1.26817e-06)
(0 -0 -1.48305e-06)
(0 -0 -1.1737e-06)
(0 -0 -1.53016e-06)
(0 -0 -1.07617e-06)
(0 -0 -1.57023e-06)
(0 -0 -9.68901e-07)
(0 -0 -1.8032e-06)
(0 -0 1.00871e-07)
(0 -0 -5.18528e-06)
(0 -0 8.67452e-06)
(0 -0 -2.0067e-05)
(0 -0 2.1752e-05)
(0 -0 -1.06081e-05)
(0 -0 -1.16646e-05)
(0 -0 3.42964e-06)
(0 -0 2.89137e-06)
(0 -0 2.26451e-06)
(0 -0 1.61104e-06)
(0 -0 1.02471e-06)
(0 -0 5.1224e-07)
(0 -0 6.3607e-08)
(0 -0 -3.2785e-07)
(0 -0 -6.63611e-07)
(0 -0 -9.43588e-07)
(0 -0 -1.17003e-06)
(0 -0 -1.34805e-06)
(0 -0 -1.48488e-06)
(0 -0 -1.58796e-06)
(0 -0 -1.66352e-06)
(0 -0 -1.7168e-06)
(0 -0 -1.75222e-06)
(0 -0 -1.77309e-06)
(0 -0 -1.78212e-06)
(0 -0 -1.78164e-06)
(0 -0 -1.77336e-06)
(0 -0 -1.75869e-06)
(0 -0 -1.73906e-06)
(0 -0 -1.71558e-06)
(0 -0 -1.68926e-06)
(0 -0 -1.66127e-06)
(0 -0 -1.6323e-06)
(0 -0 -1.60285e-06)
(0 -0 -1.5735e-06)
(0 -0 -1.54417e-06)
(0 -0 -1.51488e-06)
(0 -0 -1.48586e-06)
(0 -0 -1.4571e-06)
(0 -0 -1.42922e-06)
(0 -0 -1.40272e-06)
(0 -0 -1.37771e-06)
(0 -0 -1.35422e-06)
(0 -0 -1.33177e-06)
(0 -0 -1.31002e-06)
(0 -0 -1.289e-06)
(0 -0 -1.26858e-06)
(0 -0 -1.24931e-06)
(0 -0 -1.23061e-06)
(0 -0 -1.21373e-06)
(0 -0 -1.19653e-06)
(0 -0 -1.18258e-06)
(0 -0 -1.16564e-06)
(0 -0 -1.15568e-06)
(0 -0 -1.13574e-06)
(0 -0 -1.13345e-06)
(0 -0 -1.10439e-06)
(0 -0 -1.11873e-06)
(0 -0 -1.06819e-06)
(0 -0 -1.11569e-06)
(0 -0 -1.02087e-06)
(0 -0 -1.12959e-06)
(0 -0 -9.55786e-07)
(0 -0 -1.16464e-06)
(0 -0 -8.70866e-07)
(0 -0 -1.21374e-06)
(0 -0 -7.84518e-07)
(0 -0 -1.25276e-06)
(0 -0 -6.93008e-07)
(0 -0 -1.47209e-06)
(0 -0 3.16278e-07)
(0 -0 -4.7156e-06)
(0 -0 8.54651e-06)
(0 -0 -1.90562e-05)
(0 -0 2.12486e-05)
(0 -0 -1.0349e-05)
(0 -0 -1.04571e-05)
(0 -0 3.84571e-06)
(0 -0 3.3061e-06)
(0 -0 2.6765e-06)
(0 -0 2.02324e-06)
(0 -0 1.43706e-06)
(0 -0 9.24227e-07)
(0 -0 4.75034e-07)
(0 -0 8.29931e-08)
(0 -0 -2.53453e-07)
(0 -0 -5.34406e-07)
(0 -0 -7.62114e-07)
(0 -0 -9.42144e-07)
(0 -0 -1.08152e-06)
(0 -0 -1.1875e-06)
(0 -0 -1.26654e-06)
(0 -0 -1.32371e-06)
(0 -0 -1.36317e-06)
(0 -0 -1.38834e-06)
(0 -0 -1.40198e-06)
(0 -0 -1.40618e-06)
(0 -0 -1.40269e-06)
(0 -0 -1.39299e-06)
(0 -0 -1.3781e-06)
(0 -0 -1.35925e-06)
(0 -0 -1.33773e-06)
(0 -0 -1.31433e-06)
(0 -0 -1.29e-06)
(0 -0 -1.26545e-06)
(0 -0 -1.24062e-06)
(0 -0 -1.21589e-06)
(0 -0 -1.19128e-06)
(0 -0 -1.1666e-06)
(0 -0 -1.14243e-06)
(0 -0 -1.11889e-06)
(0 -0 -1.09643e-06)
(0 -0 -1.0755e-06)
(0 -0 -1.05566e-06)
(0 -0 -1.03692e-06)
(0 -0 -1.01873e-06)
(0 -0 -1.00112e-06)
(0 -0 -9.84139e-07)
(0 -0 -9.68174e-07)
(0 -0 -9.52781e-07)
(0 -0 -9.3907e-07)
(0 -0 -9.25029e-07)
(0 -0 -9.13943e-07)
(0 -0 -8.99809e-07)
(0 -0 -8.92518e-07)
(0 -0 -8.75494e-07)
(0 -0 -8.75667e-07)
(0 -0 -8.49843e-07)
(0 -0 -8.65889e-07)
(0 -0 -8.19071e-07)
(0 -0 -8.66649e-07)
(0 -0 -7.76911e-07)
(0 -0 -8.83336e-07)
(0 -0 -7.17979e-07)
(0 -0 -9.20181e-07)
(0 -0 -6.40636e-07)
(0 -0 -9.69725e-07)
(0 -0 -5.63326e-07)
(0 -0 -1.00652e-06)
(0 -0 -4.84759e-07)
(0 -0 -1.21052e-06)
(0 -0 4.64173e-07)
(0 -0 -4.30337e-06)
(0 -0 8.32906e-06)
(0 -0 -1.80634e-05)
(0 -0 2.06363e-05)
(0 -0 -1.01134e-05)
(0 -0 -9.35262e-06)
(0 -0 -3.36872e-07)
(0 -0 -1.01223e-06)
(0 -0 5.52954e-07)
(0 -0 -3.9486e-06)
(0 -0 8.04275e-06)
(0 -0 -1.71073e-05)
(0 -0 1.99415e-05)
(0 -0 -9.89606e-06)
(0 -0 -8.35604e-06)
(0 -0 -3.42791e-06)
(0 -0 -3.52866e-06)
(0 -0 -3.61256e-06)
(0 -0 -3.68123e-06)
(0 -0 -3.73618e-06)
(0 -0 -3.77847e-06)
(0 -0 -3.80938e-06)
(0 -0 -3.83012e-06)
(0 -0 -3.84179e-06)
(0 -0 -3.84542e-06)
(0 -0 -3.84189e-06)
(0 -0 -3.83199e-06)
(0 -0 -3.81646e-06)
(0 -0 -3.79593e-06)
(0 -0 -3.77098e-06)
(0 -0 -3.74216e-06)
(0 -0 -3.70995e-06)
(0 -0 -3.67478e-06)
(0 -0 -3.63702e-06)
(0 -0 -3.59697e-06)
(0 -0 -3.5549e-06)
(0 -0 -3.51108e-06)
(0 -0 -3.4658e-06)
(0 -0 -3.41936e-06)
(0 -0 -3.37203e-06)
(0 -0 -3.32401e-06)
(0 -0 -3.27543e-06)
(0 -0 -3.22635e-06)
(0 -0 -3.17682e-06)
(0 -0 -3.12695e-06)
(0 -0 -3.07684e-06)
(0 -0 -3.02658e-06)
(0 -0 -2.97633e-06)
(0 -0 -2.92622e-06)
(0 -0 -2.87637e-06)
(0 -0 -2.82683e-06)