/*--------------------------------*- C++ -*----------------------------------*\
| =========                 |                                                 |
| \\      /  F ield         | OpenFOAM: The Open Source CFD Toolbox           |
|  \\    /   O peration     | Version:  2412                                  |
|   \\  /    A nd           | Website:  www.openfoam.com                      |
|    \\/     M anipulation  |                                                 |
\*---------------------------------------------------------------------------*/
FoamFile
{
    version     2.0;
    format      ascii;
    arch        "LSB;label=32;scalar=64";
    class       surfaceScalarField;
    location    "13";
    object      phi;
}
// * * * * * * * * * * * * * * * * * * * * * * * * * * * * * * * * * * * * * //

dimensions      [0 3 -1 0 0 0 0];

oriented        oriented;

internalField   nonuniform List<scalar> 
10424
(
0.00500011
-3.20187e-06
-5.08525e-10
0.00500317
-3.0633e-06
-7.2551e-10
0.0050061
-2.92869e-06
-9.30087e-10
0.0050089
-2.79807e-06
-1.12794e-09
0.00501158
-2.67144e-06
-1.32649e-09
0.00501413
-2.54878e-06
-1.53319e-09
0.00501656
-2.43002e-06
-1.75477e-09
0.00501888
-2.31509e-06
-1.99747e-09
0.00502108
-2.20392e-06
-2.26579e-09
0.00502318
-2.09642e-06
-2.55931e-09
0.00502518
-1.99252e-06
-2.87125e-09
0.00502707
-1.89216e-06
-3.18794e-09
0.00502887
-1.79527e-06
-3.49234e-09
0.00503058
-1.7018e-06
-3.76543e-09
0.00503219
-1.61167e-06
-3.9942e-09
0.00503372
-1.52482e-06
-4.176e-09
0.00503517
-1.44115e-06
-4.3223e-09
0.00503653
-1.36058e-06
-4.4544e-09
0.00503782
-1.28302e-06
-4.59416e-09
0.00503903
-1.20841e-06
-4.74666e-09
0.00504017
-1.13671e-06
-4.88893e-09
0.00504125
-1.0679e-06
-4.97932e-09
0.00504225
-1.00195e-06
-4.98322e-09
0.0050432
-9.38823e-07
-4.89613e-09
0.00504408
-8.78422e-07
-4.7537e-09
0.0050449
-8.20618e-07
-4.63653e-09
0.00504567
-7.65276e-07
-4.63533e-09
0.00504639
-7.12306e-07
-4.79289e-09
0.00504706
-6.61712e-07
-5.05061e-09
0.00504768
-6.13541e-07
-5.30867e-09
0.00504825
-5.67867e-07
-5.43981e-09
0.00504878
-5.24712e-07
-5.37671e-09
0.00504927
-4.84052e-07
-5.10879e-09
0.00504972
-4.45771e-07
-4.72297e-09
0.00505013
-4.09725e-07
-4.32567e-09
0.00505051
-3.75786e-07
-4.00515e-09
0.00505086
-3.43871e-07
-3.79791e-09
0.00505118
-3.13898e-07
-3.73855e-09
0.00505147
-2.85904e-07
-3.75754e-09
0.00505173
-2.59943e-07
-3.77572e-09
0.00505197
-2.36045e-07
-3.73318e-09
0.00505219
-2.14216e-07
-3.58978e-09
0.00505239
-1.94409e-07
-3.39489e-09
0.00505257
-1.76506e-07
-3.28616e-09
0.00505273
-1.60484e-07
-3.27576e-09
0.00505288
-1.46368e-07
-3.41275e-09
0.00505302
-1.34226e-07
-3.51554e-09
0.00505315
-1.24306e-07
-3.62496e-09
0.00505327
-1.16342e-07
-3.58038e-09
0.00505338
-1.1134e-07
-3.45975e-09
0.00505349
-1.07638e-07
-3.19519e-09
0.0050536
-1.08783e-07
-2.79154e-09
0.00505372
-1.08696e-07
-2.48929e-09
0.00505384
-1.18202e-07
-2.23953e-09
0.00505396
-1.20256e-07
-1.89983e-09
0.0050541
-1.43634e-07
-1.46551e-09
0.00505425
-1.44695e-07
-1.04649e-09
0.00505444
-1.89924e-07
-6.97564e-10
0.00505463
-1.85572e-07
-2.77013e-10
0.00505489
-2.6238e-07
2.23028e-10
0.00505514
-2.51205e-07
1.27015e-10
0.0050555
-3.63712e-07
3.927e-10
0.00505586
-3.56952e-07
7.10593e-10
0.00505636
-4.9746e-07
7.64776e-10
0.00505687
-5.10279e-07
5.38581e-10
0.00505756
-6.95654e-07
1.2544e-09
0.0050582
-6.46789e-07
2.68461e-09
0.00505923
-1.0259e-06
2.20618e-09
0.00506016
-9.32716e-07
4.42996e-09
0.00506082
-6.6543e-07
2.78857e-09
-1.58588e-06
4.18143e-09
0.00500014
-6.40151e-06
0.00500321
-6.12475e-06
0.00500613
-5.85592e-06
0.00500893
-5.59503e-06
0.0050116
-5.34213e-06
0.00501415
-5.09716e-06
0.00501658
-4.86001e-06
0.00501889
-4.63053e-06
0.0050211
-4.40858e-06
0.0050232
-4.19399e-06
0.00502519
-3.98661e-06
0.00502709
-3.78631e-06
0.00502888
-3.59294e-06
0.00503059
-3.40635e-06
0.0050322
-3.22641e-06
0.00503373
-3.05296e-06
0.00503518
-2.88584e-06
0.00503654
-2.7249e-06
0.00503783
-2.56998e-06
0.00503904
-2.42096e-06
0.00504018
-2.27775e-06
0.00504125
-2.14026e-06
0.00504226
-2.00842e-06
0.0050432
-1.88212e-06
0.00504408
-1.76121e-06
0.00504491
-1.64552e-06
0.00504568
-1.53487e-06
0.0050464
-1.42912e-06
0.00504706
-1.32822e-06
0.00504768
-1.23216e-06
0.00504825
-1.14097e-06
0.00504878
-1.05462e-06
0.00504927
-9.73049e-07
0.00504972
-8.96118e-07
0.00505014
-8.23644e-07
0.00505052
-7.55462e-07
0.00505086
-6.91439e-07
0.00505118
-6.31448e-07
0.00505147
-5.75492e-07
0.00505174
-5.236e-07
0.00505198
-4.7577e-07
0.00505219
-4.31979e-07
0.00505239
-3.92178e-07
0.00505257
-3.56271e-07
0.00505273
-3.24226e-07
0.00505288
-2.96137e-07
0.00505302
-2.7196e-07
0.00505315
-2.52234e-07
0.00505327
-2.36264e-07
0.00505338
-2.26144e-07
0.0050535
-2.18476e-07
0.00505361
-2.20366e-07
0.00505372
-2.1989e-07
0.00505384
-2.38664e-07
0.00505396
-2.4243e-07
0.00505411
-2.88767e-07
0.00505425
-2.90456e-07
0.00505444
-3.80587e-07
0.00505463
-3.71434e-07
0.00505489
-5.24598e-07
0.00505514
-5.02285e-07
0.0050555
-7.27104e-07
0.00505586
-7.13244e-07
0.00505636
-9.94126e-07
0.00505687
-1.02065e-06
0.00505756
-1.38856e-06
0.00505821
-1.29548e-06
0.00505923
-2.04228e-06
0.00506016
-1.86708e-06
0.00506083
-1.33789e-06
-3.15622e-06
0.00500021
-9.59568e-06
0.00500327
-9.18107e-06
0.00500619
-8.77834e-06
0.00500898
-8.38753e-06
0.00501165
-8.00867e-06
0.0050142
-7.64169e-06
0.00501662
-7.28643e-06
0.00501893
-6.94267e-06
0.00502114
-6.61019e-06
0.00502323
-6.28874e-06
0.00502522
-5.97811e-06
0.00502711
-5.67807e-06
0.00502891
-5.3884e-06
0.00503061
-5.10888e-06
0.00503222
-4.83928e-06
0.00503375
-4.57938e-06
0.00503519
-4.32895e-06
0.00503656
-4.08777e-06
0.00503784
-3.85561e-06
0.00503905
-3.6323e-06
0.00504019
-3.41768e-06
0.00504127
-3.21162e-06
0.00504227
-3.01397e-06
0.00504321
-2.82457e-06
0.0050441
-2.64323e-06
0.00504492
-2.46972e-06
0.00504569
-2.30382e-06
0.0050464
-2.14535e-06
0.00504707
-1.9942e-06
0.00504769
-1.85031e-06
0.00504826
-1.71365e-06
0.00504879
-1.58415e-06
0.00504928
-1.46171e-06
0.00504973
-1.34617e-06
0.00505014
-1.2373e-06
0.00505052
-1.1349e-06
0.00505087
-1.0388e-06
0.00505119
-9.4882e-07
0.00505148
-8.64928e-07
0.00505174
-7.87127e-07
0.00505198
-7.15385e-07
0.0050522
-6.49652e-07
0.0050524
-5.89874e-07
0.00505257
-5.35979e-07
0.00505274
-4.87924e-07
0.00505289
-4.45875e-07
0.00505303
-4.09675e-07
0.00505315
-3.80156e-07
0.00505327
-3.56191e-07
0.00505339
-3.4096e-07
0.0050535
-3.2933e-07
0.00505361
-3.31972e-07
0.00505372
-3.31108e-07
0.00505384
-3.59162e-07
0.00505397
-3.64635e-07
0.00505411
-4.33953e-07
0.00505426
-4.36238e-07
0.00505445
-5.71326e-07
0.00505463
-5.57305e-07
0.0050549
-7.86931e-07
0.00505515
-7.53368e-07
0.00505551
-1.09064e-06
0.00505587
-1.06964e-06
0.00505636
-1.49074e-06
0.00505687
-1.53225e-06
0.00505756
-2.07855e-06
0.00505822
-1.95314e-06
0.00505922
-3.04438e-06
0.00506017
-2.81333e-06
0.00506086
-2.02951e-06
-4.70439e-06
0.00500032
-1.27816e-05
0.00500336
-1.22297e-05
0.00500628
-1.16936e-05
0.00500906
-1.11733e-05
0.00501173
-1.0669e-05
0.00501426
-1.01805e-05
0.00501669
-9.70751e-06
0.00501899
-9.24987e-06
0.00502119
-8.80723e-06
0.00502328
-8.37928e-06
0.00502527
-7.96572e-06
0.00502716
-7.56625e-06
0.00502895
-7.18056e-06
0.00503065
-6.80836e-06
0.00503226
-6.44936e-06
0.00503378
-6.10323e-06
0.00503522
-5.7697e-06
0.00503658
-5.44847e-06
0.00503787
-5.13925e-06
0.00503908
-4.84182e-06
0.00504021
-4.55594e-06
0.00504128
-4.28144e-06
0.00504229
-4.01811e-06
0.00504323
-3.76574e-06
0.00504411
-3.52407e-06
0.00504493
-3.29286e-06
0.0050457
-3.07181e-06
0.00504642
-2.86071e-06
0.00504708
-2.65939e-06
0.0050477
-2.46774e-06
0.00504827
-2.28568e-06
0.0050488
-2.1131e-06
0.00504929
-1.94986e-06
0.00504974
-1.79576e-06
0.00505015
-1.65055e-06
0.00505053
-1.51398e-06
0.00505088
-1.38585e-06
0.00505119
-1.26592e-06
0.00505148
-1.15413e-06
0.00505175
-1.05045e-06
0.00505199
-9.54829e-07
0.0050522
-8.67182e-07
0.0050524
-7.87456e-07
0.00505258
-7.15596e-07
0.00505274
-6.51554e-07
0.00505289
-5.95563e-07
0.00505303
-5.47356e-07
0.00505316
-5.0806e-07
0.00505328
-4.76112e-07
0.00505339
-4.55781e-07
0.00505351
-4.40195e-07
0.00505362
-4.43602e-07
0.00505373
-4.42352e-07
0.00505385
-4.79707e-07
0.00505397
-4.86879e-07
0.00505412
-5.79212e-07
0.00505426
-5.82052e-07
0.00505445
-7.62167e-07
0.00505464
-7.43187e-07
0.0050549
-1.04942e-06
0.00505515
-1.00444e-06
0.00505552
-1.45438e-06
0.00505587
-1.42617e-06
0.00505637
-1.98726e-06
0.00505688
-2.04561e-06
0.00505757
-2.76431e-06
0.00505824
-2.62375e-06
0.00505922
-4.02591e-06
0.00506018
-3.77675e-06
0.0050609
-2.74873e-06
-6.22055e-06
0.00500045
-1.59567e-05
0.00500349
-1.52681e-05
0.0050064
-1.45993e-05
0.00500917
-1.39502e-05
0.00501182
-1.33211e-05
0.00501436
-1.27116e-05
0.00501677
-1.21215e-05
0.00501907
-1.15505e-05
0.00502126
-1.09982e-05
0.00502335
-1.04642e-05
0.00502533
-9.94815e-06
0.00502721
-9.44964e-06
0.005029
-8.96832e-06
0.00503069
-8.50379e-06
0.0050323
-8.05569e-06
0.00503382
-7.62365e-06
0.00503526
-7.20729e-06
0.00503662
-6.80626e-06
0.0050379
-6.42023e-06
0.0050391
-6.04889e-06
0.00504024
-5.69196e-06
0.00504131
-5.34921e-06
0.00504231
-5.02038e-06
0.00504325
-4.70519e-06
0.00504413
-4.40336e-06
0.00504495
-4.11456e-06
0.00504572
-3.8385e-06
0.00504643
-3.57488e-06
0.0050471
-3.32351e-06
0.00504771
-3.08421e-06
0.00504828
-2.85685e-06
0.00504881
-2.64127e-06
0.0050493
-2.43731e-06
0.00504975
-2.24472e-06
0.00505016
-2.06324e-06
0.00505054
-1.89257e-06
0.00505089
-1.73245e-06
0.0050512
-1.58263e-06
0.00505149
-1.443e-06
0.00505176
-1.31349e-06
0.00505199
-1.19403e-06
0.00505221
-1.08451e-06
0.00505241
-9.84872e-07
0.00505259
-8.95081e-07
0.00505275
-8.15079e-07
0.0050529
-7.45171e-07
0.00505304
-6.84977e-07
0.00505317
-6.35924e-07
0.00505329
-5.96011e-07
0.0050534
-5.70595e-07
0.00505351
-5.51062e-07
0.00505362
-5.55248e-07
0.00505374
-5.53618e-07
0.00505386
-6.00298e-07
0.00505398
-6.09163e-07
0.00505412
-7.24547e-07
0.00505427
-7.27897e-07
0.00505446
-9.53118e-07
0.00505465
-9.29075e-07
0.00505491
-1.31208e-06
0.00505516
-1.2555e-06
0.00505552
-1.81834e-06
0.00505588
-1.78284e-06
0.00505638
-2.48364e-06
0.00505689
-2.5612e-06
0.00505757
-3.44472e-06
0.00505826
-3.31069e-06
0.00505922
-4.98155e-06
0.0050602
-4.76186e-06
0.00506096
-3.50271e-06
-7.6963e-06
0.00500062
-1.91182e-05
0.00500365
-1.82938e-05
0.00500654
-1.74931e-05
0.00500931
-1.67161e-05
0.00501195
-1.59628e-05
0.00501447
-1.52331e-05
0.00501687
-1.45266e-05
0.00501917
-1.38429e-05
0.00502135
-1.31816e-05
0.00502343
-1.25421e-05
0.0050254
-1.19241e-05
0.00502728
-1.13271e-05
0.00502906
-1.07506e-05
0.00503075
-1.01941e-05
0.00503236
-9.65735e-06
0.00503387
-9.13976e-06
0.0050353
-8.64091e-06
0.00503666
-8.16041e-06
0.00503794
-7.69786e-06
0.00503914
-7.25288e-06
0.00504027
-6.82517e-06
0.00504134
-6.4144e-06
0.00504234
-6.02028e-06
0.00504328
-5.64248e-06
0.00504415
-5.28066e-06
0.00504497
-4.93447e-06
0.00504574
-4.60354e-06
0.00504645
-4.28757e-06
0.00504711
-3.98627e-06
0.00504773
-3.69945e-06
0.0050483
-3.42691e-06
0.00504883
-3.16844e-06
0.00504931
-2.92386e-06
0.00504976
-2.69289e-06
0.00505017
-2.47522e-06
0.00505055
-2.27052e-06
0.0050509
-2.0785e-06
0.00505121
-1.89885e-06
0.0050515
-1.73143e-06
0.00505176
-1.57615e-06
0.005052
-1.43291e-06
0.00505222
-1.30157e-06
0.00505242
-1.18206e-06
0.0050526
-1.07438e-06
0.00505276
-9.78454e-07
0.00505291
-8.94658e-07
0.00505305
-8.22505e-07
0.00505318
-7.63719e-07
0.00505329
-7.15863e-07
0.00505341
-6.8538e-07
0.00505352
-6.61912e-07
0.00505363
-6.66896e-07
0.00505374
-6.64893e-07
0.00505386
-7.20925e-07
0.00505399
-7.31471e-07
0.00505413
-8.69952e-07
0.00505428
-8.73754e-07
0.00505447
-1.14418e-06
0.00505465
-1.11494e-06
0.00505492
-1.57492e-06
0.00505517
-1.50648e-06
0.00505553
-2.18255e-06
0.00505589
-2.13965e-06
0.00505639
-2.97983e-06
0.0050569
-3.07934e-06
0.00505758
-4.11887e-06
0.00505828
-4.01668e-06
0.00505921
-5.90717e-06
0.00506022
-5.77226e-06
0.00506101
-4.29704e-06
-9.12505e-06
0.00500082
-2.22635e-05
0.00500383
-2.13043e-05
0.00500671
-2.03727e-05
0.00500946
-1.94687e-05
0.00501209
-1.85923e-05
0.0050146
-1.77432e-05
0.005017
-1.69211e-05
0.00501928
-1.61255e-05
0.00502146
-1.53559e-05
0.00502352
-1.46117e-05
0.00502549
-1.38923e-05
0.00502736
-1.31973e-05
0.00502914
-1.25262e-05
0.00503082
-1.18784e-05
0.00503242
-1.12534e-05
0.00503393
-1.06507e-05
0.00503536
-1.00698e-05
0.00503671
-9.51018e-06
0.00503798
-8.97145e-06
0.00503918
-8.45318e-06
0.00504031
-7.95497e-06
0.00504137
-7.47647e-06
0.00504237
-7.01732e-06
0.00504331
-6.57715e-06
0.00504418
-6.15557e-06
0.005045
-5.75218e-06
0.00504576
-5.36659e-06
0.00504647
-4.99843e-06
0.00504713
-4.64738e-06
0.00504775
-4.31318e-06
0.00504832
-3.9956e-06
0.00504884
-3.69439e-06
0.00504933
-3.40931e-06
0.00504978
-3.14007e-06
0.00505019
-2.88631e-06
0.00505056
-2.64768e-06
0.00505091
-2.42384e-06
0.00505122
-2.21445e-06
0.00505151
-2.01932e-06
0.00505177
-1.83834e-06
0.00505201
-1.67137e-06
0.00505223
-1.51827e-06
0.00505243
-1.37895e-06
0.00505261
-1.25343e-06
0.00505277
-1.14162e-06
0.00505292
-1.04397e-06
0.00505306
-9.59898e-07
0.00505318
-8.91395e-07
0.0050533
-8.35648e-07
0.00505342
-8.00068e-07
0.00505353
-7.72775e-07
0.00505364
-7.78413e-07
0.00505375
-7.76324e-07
0.00505387
-8.41283e-07
0.00505399
-8.54211e-07
0.00505414
-1.01476e-06
0.00505429
-1.0205e-06
0.00505448
-1.3341e-06
0.00505466
-1.30228e-06
0.00505492
-1.83606e-06
0.00505518
-1.75941e-06
0.00505554
-2.5449e-06
0.0050559
-2.49843e-06
0.00505639
-3.47438e-06
0.00505691
-3.6009e-06
0.00505758
-4.78638e-06
0.00505831
-4.74229e-06
0.0050592
-6.80205e-06
0.00506024
-6.80797e-06
0.00506108
-5.13806e-06
-1.05e-05
0.00524082
-2.55393e-05
0.00524395
-2.44401e-05
0.00524695
-2.33726e-05
0.00524982
-2.23367e-05
0.00525256
-2.13324e-05
0.00525518
-2.03594e-05
0.00525767
-1.94172e-05
0.00526005
-1.85053e-05
0.00526232
-1.76231e-05
0.00526448
-1.67699e-05
0.00526653
-1.59452e-05
0.00526848
-1.51483e-05
0.00527033
-1.43787e-05
0.00527209
-1.36358e-05
0.00527376
-1.29189e-05
0.00527533
-1.22276e-05
0.00527682
-1.15612e-05
0.00527823
-1.09191e-05
0.00527956
-1.0301e-05
0.00528082
-9.70635e-06
0.005282
-9.13465e-06
0.00528311
-8.58552e-06
0.00528415
-8.05855e-06
0.00528512
-7.55332e-06
0.00528604
-7.06939e-06
0.00528689
-6.60632e-06
0.00528769
-6.16368e-06
0.00528843
-5.74105e-06
0.00528912
-5.33807e-06
0.00528976
-4.95442e-06
0.00529036
-4.58982e-06
0.00529091
-4.24398e-06
0.00529141
-3.91662e-06
0.00529188
-3.60741e-06
0.00529231
-3.31596e-06
0.0052927
-3.04189e-06
0.00529307
-2.78482e-06
0.0052934
-2.54435e-06
0.0052937
-2.32028e-06
0.00529397
-2.11246e-06
0.00529422
-1.92071e-06
0.00529445
-1.74488e-06
0.00529465
-1.58488e-06
0.00529484
-1.44071e-06
0.00529501
-1.31233e-06
0.00529517
-1.20018e-06
0.00529531
-1.1037e-06
0.00529544
-1.02495e-06
0.00529557
-9.61157e-07
0.00529569
-9.19908e-07
0.00529581
-8.89263e-07
0.00529592
-8.94496e-07
0.00529604
-8.94213e-07
0.00529616
-9.65485e-07
0.0052963
-9.85714e-07
0.00529644
-1.16219e-06
0.0052966
-1.18032e-06
0.00529679
-1.52494e-06
0.005297
-1.50895e-06
0.00529726
-2.09729e-06
0.00529754
-2.03823e-06
0.00529791
-2.91058e-06
0.00529829
-2.88727e-06
0.0052988
-3.98275e-06
0.00529936
-4.15498e-06
0.00530005
-5.47997e-06
0.00530083
-5.51769e-06
0.00530174
-7.7172e-06
0.00530284
-7.90754e-06
0.00530379
-6.08593e-06
-1.18681e-05
0.00524111
-2.87914e-05
0.00524422
-2.75537e-05
0.0052472
-2.63518e-05
0.00525005
-2.51855e-05
0.00525277
-2.40546e-05
0.00525537
-2.29589e-05
0.00525785
-2.18979e-05
0.00526022
-2.08708e-05
0.00526247
-1.9877e-05
0.00526462
-1.89159e-05
0.00526666
-1.79867e-05
0.0052686
-1.70888e-05
0.00527044
-1.62215e-05
0.00527219
-1.53842e-05
0.00527385
-1.45761e-05
0.00527542
-1.37968e-05
0.0052769
-1.30455e-05
0.0052783
-1.23216e-05
0.00527963
-1.16246e-05
0.00528088
-1.0954e-05
0.00528205
-1.03093e-05
0.00528315
-9.6899e-06
0.00528419
-9.09549e-06
0.00528516
-8.52554e-06
0.00528607
-7.97959e-06
0.00528693
-7.45714e-06
0.00528772
-6.95773e-06
0.00528846
-6.48089e-06
0.00528915
-6.02622e-06
0.00528979
-5.59335e-06
0.00529038
-5.18194e-06
0.00529093
-4.79166e-06
0.00529143
-4.4222e-06
0.0052919
-4.07319e-06
0.00529233
-3.74422e-06
0.00529272
-3.43485e-06
0.00529308
-3.14466e-06
0.00529341
-2.87325e-06
0.00529371
-2.62035e-06
0.00529398
-2.38578e-06
0.00529423
-2.16935e-06
0.00529446
-1.97087e-06
0.00529466
-1.79027e-06
0.00529485
-1.62753e-06
0.00529502
-1.48264e-06
0.00529517
-1.35604e-06
0.00529532
-1.24721e-06
0.00529545
-1.15825e-06
0.00529558
-1.08647e-06
0.0052957
-1.03953e-06
0.00529581
-1.00565e-06
0.00529593
-1.01033e-06
0.00529605
-1.01216e-06
0.00529617
-1.0893e-06
0.0052963
-1.11757e-06
0.00529645
-1.30887e-06
0.00529661
-1.34099e-06
0.0052968
-1.71443e-06
0.00529701
-1.7171e-06
0.00529727
-2.35653e-06
0.00529755
-2.319e-06
0.00529791
-3.27406e-06
0.0052983
-3.27811e-06
0.00529881
-4.4891e-06
0.00529936
-4.7129e-06
0.00530005
-6.16564e-06
0.00530085
-6.31601e-06
0.00530173
-8.59709e-06
0.00530286
-9.03697e-06
0.00530386
-7.08739e-06
-1.31741e-05
0.00524144
-3.20169e-05
0.00524453
-3.06424e-05
0.00524748
-2.93077e-05
0.00525031
-2.80125e-05
0.00525301
-2.67566e-05
0.00525559
-2.55397e-05
0.00525806
-2.43611e-05
0.00526041
-2.32201e-05
0.00526264
-2.2116e-05
0.00526478
-2.1048e-05
0.00526681
-2.00153e-05
0.00526873
-1.90173e-05
0.00527057
-1.80533e-05
0.0052723
-1.71224e-05
0.00527395
-1.6224e-05
0.00527551
-1.53573e-05
0.00527699
-1.45218e-05
0.00527838
-1.37167e-05
0.0052797
-1.29414e-05
0.00528094
-1.21954e-05
0.00528211
-1.14781e-05
0.00528321
-1.0789e-05
0.00528424
-1.01275e-05
0.00528521
-9.49326e-06
0.00528612
-8.88565e-06
0.00528696
-8.30417e-06
0.00528775
-7.7483e-06
0.00528849
-7.21755e-06
0.00528917
-6.71146e-06
0.00528981
-6.22961e-06
0.0052904
-5.77163e-06
0.00529095
-5.33714e-06
0.00529145
-4.92579e-06
0.00529191
-4.53717e-06
0.00529234
-4.17083e-06
0.00529273
-3.82632e-06
0.00529309
-3.50318e-06
0.00529342
-3.20095e-06
0.00529372
-2.91934e-06
0.00529399
-2.65814e-06
0.00529424
-2.41714e-06
0.00529446
-2.19612e-06
0.00529467
-1.995e-06
0.00529485
-1.81378e-06
0.00529502
-1.65244e-06
0.00529518
-1.51146e-06
0.00529532
-1.39034e-06
0.00529545
-1.2912e-06
0.00529558
-1.21147e-06
0.0052957
-1.15888e-06
0.00529582
-1.12179e-06
0.00529593
-1.12596e-06
0.00529605
-1.1299e-06
0.00529617
-1.21295e-06
0.0052963
-1.24922e-06
0.00529645
-1.45543e-06
0.00529661
-1.50138e-06
0.0052968
-1.90383e-06
0.00529701
-1.92485e-06
0.00529727
-2.61577e-06
0.00529755
-2.59924e-06
0.00529791
-3.63763e-06
0.0052983
-3.6686e-06
0.00529881
-4.99496e-06
0.00529937
-5.27372e-06
0.00530005
-6.8432e-06
0.00530087
-7.13796e-06
0.00530171
-9.44084e-06
0.00530287
-1.01985e-05
0.00530392
-8.13763e-06
-1.44227e-05
0.0052418
-3.52129e-05
0.00524486
-3.37035e-05
0.00524779
-3.22379e-05
0.0052506
-3.08155e-05
0.00525328
-2.94363e-05
0.00525584
-2.80997e-05
0.00525828
-2.6805e-05
0.00526061
-2.55515e-05
0.00526284
-2.43383e-05
0.00526495
-2.31646e-05
0.00526697
-2.20297e-05
0.00526888
-2.09327e-05
0.0052707
-1.98728e-05
0.00527243
-1.88493e-05
0.00527407
-1.78613e-05
0.00527562
-1.69082e-05
0.00527708
-1.59891e-05
0.00527847
-1.51035e-05
0.00527978
-1.42505e-05
0.00528101
-1.34297e-05
0.00528218
-1.26404e-05
0.00528327
-1.1882e-05
0.0052843
-1.1154e-05
0.00528526
-1.04559e-05
0.00528616
-9.78705e-06
0.005287
-9.14691e-06
0.00528779
-8.53493e-06
0.00528852
-7.95059e-06
0.0052892
-7.39338e-06
0.00528984
-6.86284e-06
0.00529042
-6.35856e-06
0.00529097
-5.8801e-06
0.00529147
-5.42708e-06
0.00529193
-4.99906e-06
0.00529236
-4.59556e-06
0.00529275
-4.21608e-06
0.0052931
-3.86014e-06
0.00529343
-3.52724e-06
0.00529373
-3.21707e-06
0.005294
-2.92938e-06
0.00529424
-2.66392e-06
0.00529447
-2.42048e-06
0.00529467
-2.19894e-06
0.00529486
-1.99932e-06
0.00529503
-1.82162e-06
0.00529518
-1.66632e-06
0.00529532
-1.53297e-06
0.00529546
-1.42371e-06
0.00529558
-1.33608e-06
0.0052957
-1.27788e-06
0.00529582
-1.2376e-06
0.00529593
-1.24129e-06
0.00529605
-1.24734e-06
0.00529617
-1.33635e-06
0.0052963
-1.38056e-06
0.00529645
-1.60177e-06
0.00529661
-1.66139e-06
0.0052968
-2.09306e-06
0.00529701
-2.13206e-06
0.00529727
-2.87491e-06
0.00529755
-2.87874e-06
0.00529791
-4.0012e-06
0.0052983
-4.05849e-06
0.0052988
-5.50025e-06
0.00529937
-5.83707e-06
0.00530004
-7.51305e-06
0.00530088
-7.98199e-06
0.00530169
-1.02513e-05
0.00530288
-1.13904e-05
0.00530398
-9.23302e-06
-1.56184e-05
0.0052422
-3.83765e-05
0.00524524
-3.67343e-05
0.00524814
-3.51397e-05
0.00525091
-3.35922e-05
0.00525357
-3.20914e-05
0.00525611
-3.06368e-05
0.00525853
-2.92277e-05
0.00526084
-2.78632e-05
0.00526304
-2.65423e-05
0.00526514
-2.52644e-05
0.00526714
-2.40284e-05
0.00526904
-2.28335e-05
0.00527085
-2.16789e-05
0.00527256
-2.05637e-05
0.00527419
-1.94872e-05
0.00527573
-1.84484e-05
0.00527719
-1.74466e-05
0.00527857
-1.64811e-05
0.00527987
-1.55512e-05
0.00528109
-1.46562e-05
0.00528225
-1.37955e-05
0.00528333
-1.29684e-05
0.00528435
-1.21744e-05
0.00528531
-1.14129e-05
0.00528621
-1.06832e-05
0.00528705
-9.98485e-06
0.00528783
-9.31716e-06
0.00528856
-8.67958e-06
0.00528924
-8.07159e-06
0.00528987
-7.49267e-06
0.00529045
-6.94236e-06
0.00529099
-6.42021e-06
0.00529149
-5.92577e-06
0.00529195
-5.45858e-06
0.00529237
-5.01813e-06
0.00529276
-4.60389e-06
0.00529311
-4.21533e-06
0.00529344
-3.85194e-06
0.00529373
-3.51336e-06
0.005294
-3.19931e-06
0.00529425
-2.90954e-06
0.00529447
-2.64378e-06
0.00529468
-2.40195e-06
0.00529486
-2.18403e-06
0.00529503
-1.99005e-06
0.00529518
-1.82051e-06
0.00529532
-1.67499e-06
0.00529546
-1.55568e-06
0.00529558
-1.46019e-06
0.0052957
-1.39642e-06
0.00529581
-1.35297e-06
0.00529593
-1.35623e-06
0.00529605
-1.36438e-06
0.00529617
-1.45941e-06
0.0052963
-1.51147e-06
0.00529645
-1.7478e-06
0.00529661
-1.82088e-06
0.0052968
-2.28201e-06
0.005297
-2.33857e-06
0.00529726
-3.13384e-06
0.00529754
-3.15729e-06
0.0052979
-4.36464e-06
0.00529829
-4.44752e-06
0.0052988
-6.0049e-06
0.00529936
-6.40248e-06
0.00530002
-8.1758e-06
0.00530089
-8.84589e-06
0.00530167
-1.10324e-05
0.00530289
-1.26102e-05
0.00530402
-1.03686e-05
-1.67674e-05
0.00524264
-4.1505e-05
0.00524564
-3.97322e-05
0.00524851
-3.80109e-05
0.00525126
-3.63402e-05
0.00525389
-3.47199e-05
0.0052564
-3.31492e-05
0.0052588
-3.16273e-05
0.00526109
-3.01534e-05
0.00526327
-2.87265e-05
0.00526535
-2.73457e-05
0.00526734
-2.601e-05
0.00526922
-2.47185e-05
0.00527101
-2.34703e-05
0.00527271
-2.22645e-05
0.00527433
-2.11003e-05
0.00527585
-1.99769e-05
0.0052773
-1.88933e-05
0.00527867
-1.78488e-05
0.00527996
-1.68427e-05
0.00528118
-1.58742e-05
0.00528233
-1.49427e-05
0.0052834
-1.40475e-05
0.00528442
-1.31881e-05
0.00528537
-1.23637e-05
0.00528626
-1.15737e-05
0.00528709
-1.08175e-05
0.00528787
-1.00945e-05
0.00528859
-9.40408e-06
0.00528927
-8.74566e-06
0.00528989
-8.1187e-06
0.00529047
-7.52269e-06
0.00529101
-6.95714e-06
0.00529151
-6.42156e-06
0.00529196
-5.91546e-06
0.00529238
-5.43828e-06
0.00529277
-4.98949e-06
0.00529312
-4.56851e-06
0.00529345
-4.17481e-06
0.00529374
-3.808e-06
0.00529401
-3.46775e-06
0.00529425
-3.1538e-06
0.00529448
-2.86587e-06
0.00529468
-2.60386e-06
0.00529486
-2.36775e-06
0.00529503
-2.1576e-06
0.00529518
-1.97389e-06
0.00529532
-1.81628e-06
0.00529545
-1.68698e-06
0.00529558
-1.58368e-06
0.0052957
-1.51438e-06
0.00529581
-1.4678e-06
0.00529592
-1.47067e-06
0.00529604
-1.48091e-06
0.00529616
-1.58201e-06
0.00529629
-1.64184e-06
0.00529644
-1.89339e-06
0.0052966
-1.97971e-06
0.00529679
-2.47054e-06
0.00529699
-2.54419e-06
0.00529725
-3.39242e-06
0.00529753
-3.43468e-06
0.00529789
-4.72782e-06
0.00529828
-4.83538e-06
0.00529878
-6.50884e-06
0.00529935
-6.96937e-06
0.00530001
-8.83224e-06
0.00530089
-9.72694e-06
0.00530164
-1.17886e-05
0.00530289
-1.38549e-05
0.00530406
-1.15386e-05
-1.78774e-05
0.00524311
-4.45955e-05
0.00524607
-4.26947e-05
0.00524891
-4.0849e-05
0.00525163
-3.90574e-05
0.00525423
-3.73196e-05
0.00525672
-3.56348e-05
0.00525909
-3.40022e-05
0.00526136
-3.24206e-05
0.00526352
-3.08893e-05
0.00526558
-2.94071e-05
0.00526754
-2.79731e-05
0.00526941
-2.65863e-05
0.00527119
-2.52457e-05
0.00527287
-2.39506e-05
0.00527447
-2.26998e-05
0.00527599
-2.14927e-05
0.00527742
-2.03282e-05
0.00527878
-1.92055e-05
0.00528006
-1.8124e-05
0.00528127
-1.70828e-05
0.00528241
-1.60813e-05
0.00528348
-1.51187e-05
0.00528449
-1.41943e-05
0.00528543
-1.33076e-05
0.00528631
-1.24578e-05
0.00528714
-1.16443e-05
0.00528791
-1.08665e-05
0.00528863
-1.01236e-05
0.0052893
-9.4152e-06
0.00528992
-8.74056e-06
0.0052905
-8.09919e-06
0.00529103
-7.49055e-06
0.00529153
-6.91413e-06
0.00529198
-6.36938e-06
0.0052924
-5.85575e-06
0.00529278
-5.37263e-06
0.00529313
-4.91945e-06
0.00529345
-4.49564e-06
0.00529375
-4.10077e-06
0.00529401
-3.73451e-06
0.00529426
-3.39653e-06
0.00529448
-3.08658e-06
0.00529468
-2.80452e-06
0.00529486
-2.55035e-06
0.00529503
-2.32411e-06
0.00529518
-2.12634e-06
0.00529532
-1.95671e-06
0.00529545
-1.81748e-06
0.00529557
-1.70643e-06
0.00529569
-1.63167e-06
0.0052958
-1.58197e-06
0.00529592
-1.5845e-06
0.00529603
-1.59681e-06
0.00529616
-1.70404e-06
0.00529629
-1.77155e-06
0.00529643
-2.03843e-06
0.00529659
-2.13773e-06
0.00529678
-2.65852e-06
0.00529698
-2.74876e-06
0.00529724
-3.6505e-06
0.00529751
-3.71067e-06
0.00529788
-5.09059e-06
0.00529826
-5.22176e-06
0.00529877
-7.012e-06
0.00529933
-7.53707e-06
0.00529999
-9.48329e-06
0.00530088
-1.06221e-05
0.00530162
-1.25251e-05
0.00530288
-1.5121e-05
0.00530408
-1.27369e-05
-1.89567e-05
0.00524362
-4.76455e-05
0.00524654
-4.56193e-05
0.00524935
-4.36517e-05
0.00525203
-4.17416e-05
0.0052546
-3.98886e-05
0.00525706
-3.80918e-05
0.00525941
-3.63503e-05
0.00526165
-3.46631e-05
0.00526379
-3.3029e-05
0.00526583
-3.14471e-05
0.00526777
-2.99163e-05
0.00526962
-2.84356e-05
0.00527138
-2.70041e-05
0.00527305
-2.56207e-05
0.00527463
-2.42846e-05
0.00527614
-2.29948e-05
0.00527756
-2.17504e-05
0.0052789
-2.05505e-05
0.00528017
-1.93945e-05
0.00528137
-1.82813e-05
0.0052825
-1.72105e-05
0.00528356
-1.61811e-05
0.00528456
-1.51926e-05
0.0052855
-1.42441e-05
0.00528637
-1.33351e-05
0.0052872
-1.24649e-05
0.00528796
-1.16326e-05
0.00528868
-1.08378e-05
0.00528934
-1.00798e-05
0.00528996
-9.35786e-06
0.00529053
-8.67149e-06
0.00529106
-8.02011e-06
0.00529155
-7.40316e-06
0.005292
-6.82008e-06
0.00529241
-6.27025e-06
0.00529279
-5.75307e-06
0.00529314
-5.26792e-06
0.00529346
-4.81421e-06
0.00529375
-4.39149e-06
0.00529402
-3.99938e-06
0.00529426
-3.63756e-06
0.00529448
-3.30573e-06
0.00529468
-3.00376e-06
0.00529486
-2.73165e-06
0.00529502
-2.48946e-06
0.00529517
-2.27772e-06
0.00529531
-2.09615e-06
0.00529544
-1.94708e-06
0.00529557
-1.82833e-06
0.00529568
-1.74816e-06
0.0052958
-1.69537e-06
0.00529591
-1.69759e-06
0.00529602
-1.71196e-06
0.00529614
-1.82538e-06
0.00529627
-1.90046e-06
0.00529642
-2.18277e-06
0.00529658
-2.29481e-06
0.00529676
-2.84581e-06
0.00529697
-2.95209e-06
0.00529722
-3.90793e-06
0.0052975
-3.98503e-06
0.00529786
-5.45279e-06
0.00529824
-5.60633e-06
0.00529875
-7.51431e-06
0.00529931
-8.10488e-06
0.00529996
-1.01299e-05
0.00530087
-1.15283e-05
0.00530159
-1.32468e-05
0.00530287
-1.64051e-05
0.00530409
-1.39572e-05
-2.00144e-05
0.00524416
-5.06522e-05
0.00524705
-4.85034e-05
0.00524981
-4.64167e-05
0.00525246
-4.43907e-05
0.005255
-4.24249e-05
0.00525742
-4.05183e-05
0.00525974
-3.86701e-05
0.00526196
-3.68791e-05
0.00526407
-3.51442e-05
0.00526609
-3.34642e-05
0.00526801
-3.18383e-05
0.00526984
-3.02652e-05
0.00527158
-2.87441e-05
0.00527324
-2.72738e-05
0.0052748
-2.58535e-05
0.00527629
-2.44822e-05
0.0052777
-2.3159e-05
0.00527903
-2.18829e-05
0.00528029
-2.06532e-05
0.00528148
-1.9469e-05
0.0052826
-1.83296e-05
0.00528365
-1.72343e-05
0.00528464
-1.61822e-05
0.00528557
-1.51727e-05
0.00528644
-1.42051e-05
0.00528725
-1.32786e-05
0.00528801
-1.23925e-05
0.00528872
-1.15462e-05
0.00528938
-1.0739e-05
0.00528999
-9.97021e-06
0.00529056
-9.23924e-06
0.00529109
-8.54548e-06
0.00529157
-7.88835e-06
0.00529202
-7.26724e-06
0.00529243
-6.68151e-06
0.00529281
-6.13054e-06
0.00529315
-5.61367e-06
0.00529347
-5.1303e-06
0.00529376
-4.67994e-06
0.00529402
-4.26219e-06
0.00529426
-3.8767e-06
0.00529448
-3.52317e-06
0.00529468
-3.20144e-06
0.00529486
-2.91153e-06
0.00529502
-2.65349e-06
0.00529517
-2.42789e-06
0.00529531
-2.23448e-06
0.00529544
-2.07564e-06
0.00529556
-1.94926e-06
0.00529567
-1.86373e-06
0.00529579
-1.80788e-06
0.0052959
-1.80985e-06
0.00529601
-1.82626e-06
0.00529613
-1.9459e-06
0.00529626
-2.02845e-06
0.0052964
-2.32629e-06
0.00529656
-2.45079e-06
0.00529675
-3.03226e-06
0.00529695
-3.15401e-06
0.0052972
-4.16455e-06
0.00529748
-4.25752e-06
0.00529784
-5.81427e-06
0.00529822
-5.98875e-06
0.00529872
-8.01574e-06
0.00529929
-8.67207e-06
0.00529993
-1.0773e-05
0.00530085
-1.24423e-05
0.00530156
-1.39587e-05
0.00530286
-1.7704e-05
0.00530409
-1.51939e-05
-2.10597e-05
0.00524474
-5.36131e-05
0.00524758
-5.13448e-05
0.00525031
-4.91417e-05
0.00525292
-4.70025e-05
0.00525542
-4.49264e-05
0.00525781
-4.29125e-05
0.0052601
-4.09598e-05
0.00526229
-3.90671e-05
0.00526438
-3.72333e-05
0.00526637
-3.54572e-05
0.00526827
-3.37377e-05
0.00527008
-3.20739e-05
0.0052718
-3.04646e-05
0.00527344
-2.89089e-05
0.00527499
-2.74057e-05
0.00527646
-2.59541e-05
0.00527786
-2.45531e-05
0.00527917
-2.32018e-05
0.00528042
-2.18995e-05
0.0052816
-2.06451e-05
0.00528271
-1.94381e-05
0.00528375
-1.82775e-05
0.00528473
-1.71626e-05
0.00528565
-1.60927e-05
0.00528651
-1.50671e-05
0.00528732
-1.4085e-05
0.00528807
-1.31456e-05
0.00528877
-1.22483e-05
0.00528943
-1.13924e-05
0.00529003
-1.05772e-05
0.0052906
-9.80208e-06
0.00529112
-9.06634e-06
0.0052916
-8.36939e-06
0.00529204
-7.71058e-06
0.00529245
-7.08928e-06
0.00529282
-6.50479e-06
0.00529317
-5.95648e-06
0.00529348
-5.44369e-06
0.00529377
-4.96592e-06
0.00529403
-4.52274e-06
0.00529426
-4.11378e-06
0.00529448
-3.73871e-06
0.00529467
-3.39739e-06
0.00529485
-3.08982e-06
0.00529502
-2.81606e-06
0.00529516
-2.57672e-06
0.0052953
-2.37157e-06
0.00529543
-2.20305e-06
0.00529555
-2.0691e-06
0.00529566
-1.97827e-06
0.00529577
-1.91939e-06
0.00529589
-1.92115e-06
0.005296
-1.93958e-06
0.00529612
-2.06548e-06
0.00529625
-2.15539e-06
0.00529639