/*--------------------------------*- C++ -*----------------------------------*\
| =========                 |                                                 |
| \\      /  F ield         | OpenFOAM: The Open Source CFD Toolbox           |
|  \\    /   O peration     | Version:  2412                                  |
|   \\  /    A nd           | Website:  www.openfoam.com                      |
|    \\/     M anipulation  |                                                 |
\*---------------------------------------------------------------------------*/
FoamFile
{
    version     2.0;
    format      ascii;
    arch        "LSB;label=32;scalar=64";
    class       volVectorField;
    location    "6";
    object      U;
}
// * * * * * * * * * * * * * * * * * * * * * * * * * * * * * * * * * * * * * //

dimensions      [0 1 -1 0 0 0 0];

internalField   nonuniform List<vector> 
5285
(
(0.0914887 0.000189804 5.73208e-23)
(0.0911169 0.000205162 -6.55697e-24)
(0.0907152 0.000222586 6.69493e-24)
(0.0902799 0.000242103 -6.84122e-24)
(0.0898072 0.000263771 0)
(0.0892931 0.000287696 7.1615e-24)
(0.0887337 0.000314051 -7.33705e-24)
(0.0881242 0.000343089 0)
(0.0874598 0.00037515 -7.72339e-24)
(0.0867346 0.000410671 0)
(0.0859422 0.000450196 -8.16385e-24)
(0.0850748 0.000494387 -1.36769e-22)
(0.0841236 0.000544049 1.45228e-22)
(0.0830781 0.000600154 -1.45784e-22)
(0.0819259 0.000663885 1.45562e-22)
(0.0806523 0.00073669 0)
(0.0792399 0.000820354 0)
(0.0776677 0.000917099 1.78725e-22)
(0.0759103 0.0010297 -1.68165e-22)
(0.0739371 0.00116166 0)
(0.0717105 0.00131731 0)
(0.0691843 0.00150205 0)
(0.0663022 0.00172227 0)
(0.0629958 0.00198511 0)
(0.0591836 0.00229752 0)
(0.0547729 0.0026642 0)
(0.049666 0.00308373 0)
(0.0437747 0.00354226 0)
(0.0370504 0.00400399 -1.69758e-23)
(0.0295325 0.00439815 -5.85807e-22)
(0.0214053 0.00460381 5.84928e-22)
(0.0130884 0.00443505 6.37997e-22)
(0.00563572 0.00360887 -6.3704e-22)
(0.00115571 0.00169087 0)
(0.0914909 0.00057011 2.01746e-22)
(0.0911175 0.000616129 -2.14463e-22)
(0.0907146 0.000668297 -2.01154e-23)
(0.0902784 0.000726714 6.85622e-24)
(0.0898053 0.000791559 0)
(0.0892914 0.00086316 -7.18005e-24)
(0.0887325 0.000942049 -2.31204e-22)
(0.0881243 0.00102899 4.8305e-22)
(0.0874616 0.001125 2.6621e-22)
(0.0867389 0.00123141 -5.0227e-22)
(0.0859497 0.00134983 5.40595e-22)
(0.0850864 0.00148226 -5.48551e-22)
(0.0841403 0.00163109 -8.70306e-24)
(0.0831011 0.00179924 0)
(0.0819567 0.00199025 0)
(0.0806929 0.00220842 0)
(0.0792927 0.0024591 0)
(0.0777358 0.0027489 -1.0355e-23)
(0.0759979 0.00308609 -7.03223e-22)
(0.0740494 0.00348102 -3.06045e-23)
(0.0718547 0.00394665 7.31921e-22)
(0.0693699 0.00449887 7.99753e-22)
(0.0665418 0.00515657 -7.98694e-22)
(0.0633058 0.00594074 -2.66258e-23)
(0.0595851 0.00687163 -2.78942e-23)
(0.055292 0.00796253 -9.66597e-22)
(0.0503325 0.00920827 9.3469e-22)
(0.0446193 0.0105664 -3.20544e-23)
(0.038096 0.0119292 1.70945e-23)
(0.0307807 0.0130854 -1.19147e-21)
(0.0228146 0.0136747 1.19114e-21)
(0.0145436 0.0131452 -2.49415e-21)
(0.00687462 0.0106677 2.45244e-21)
(0.00166336 0.00496236 -2.51247e-21)
(0.0914984 0.000952553 2.16687e-23)
(0.0911224 0.00102905 -4.16886e-22)
(0.0907174 0.00111566 1.34604e-23)
(0.09028 0.00121257 -4.45534e-22)
(0.0898065 0.00132012 4.5918e-22)
(0.0892931 0.0014389 -4.67335e-22)
(0.0887359 0.00156981 4.8166e-22)
(0.0881303 0.00171414 1.51499e-23)
(0.0874716 0.00187362 -1.55584e-23)
(0.0867542 0.00205044 1.59939e-23)
(0.0859717 0.0022473 -5.35461e-22)
(0.0851169 0.00246752 5.51942e-22)
(0.0841814 0.00271507 5.87198e-22)
(0.0831553 0.00299477 -5.69172e-22)
(0.0820271 0.00331248 0)
(0.0807833 0.00367532 0)
(0.079408 0.00409208 2.00238e-23)
(0.0778824 0.00457364 1.38099e-21)
(0.0761839 0.00513357 3.45172e-23)
(0.0742858 0.00578881 -1.39123e-21)
(0.0721557 0.00656042 0)
(0.0697545 0.0074742 -2.4409e-23)
(0.0670352 0.00856056 1.70499e-21)
(0.0639412 0.00985296 -3.40861e-21)
(0.0604049 0.0113831 3.62436e-21)
(0.0563482 0.0131703 1.16592e-22)
(0.0516851 0.015203 -1.89308e-21)
(0.0463288 0.0174075 -2.06655e-21)
(0.0402079 0.0196036 2.12977e-21)
(0.0332953 0.0214431 1.62191e-24)
(0.0256456 0.0223351 -3.65174e-23)
(0.0174582 0.0213747 2.40925e-21)
(0.0093325 0.0172425 -2.33295e-21)
(0.0026387 0.00794696 -2.33161e-21)
(0.091517 0.00133722 -4.22797e-22)
(0.091138 0.00144383 2.17031e-26)
(0.090731 0.00156432 0)
(0.0902926 0.00169902 -4.33966e-22)
(0.0898195 0.00184846 4.476e-22)
(0.0893079 0.00201352 0)
(0.088754 0.00219553 -9.64989e-22)
(0.0881533 0.00239632 9.49341e-22)
(0.0875013 0.00261834 1.57065e-23)
(0.0867926 0.00286465 -3.47808e-26)
(0.0860212 0.00313904 1.65962e-23)
(0.0851801 0.00344609 0)
(0.0842615 0.00379135 -5.05349e-26)
(0.0832562 0.0041815 0)
(0.0821535 0.00462462 -1.88416e-23)
(0.0809411 0.00513057 1.27442e-21)
(0.0796048 0.00571143 -1.27407e-21)
(0.0781276 0.00638212 -2.10894e-23)
(0.0764902 0.00716119 4.37071e-23)
(0.0746694 0.00807167 -1.50946e-21)
(0.0726382 0.00914203 1.46253e-21)
(0.0703647 0.0104068 2.4831e-23)
(0.0678111 0.0119065 -3.65173e-25)
(0.0649325 0.0136848 2.66468e-23)
(0.0616753 0.0157816 -1.8374e-21)
(0.0579761 0.0182188 3.72163e-21)
(0.0537599 0.0209738 -1.94375e-21)
(0.0489408 0.0239387 2.02718e-21)
(0.0434243 0.0268607 -2.12235e-21)
(0.0371144 0.0292632 -4.24598e-21)
(0.0299291 0.0303457 8.66881e-21)
(0.0218488 0.0288728 -4.39189e-21)
(0.013059 0.0230815 0)
(0.00408698 0.0105129 -4.11983e-21)
(0.0915538 0.00172344 0)
(0.0911726 0.00185967 -4.16711e-22)
(0.0907646 0.00201326 4.43788e-22)
(0.0903267 0.00218477 -1.39313e-23)
(0.0898556 0.00237497 -9.38445e-22)
(0.0893479 0.00258509 9.24591e-22)
(0.0887997 0.0028169 -1.50259e-23)
(0.0882071 0.0030728 0)
(0.0875656 0.00335596 0)
(0.0868701 0.00367031 -1.07625e-21)
(0.086115 0.00402069 1.04356e-21)
(0.085294 0.00441294 0)
(0.0843998 0.00485409 -3.58009e-23)
(0.0834242 0.0053526 0)
(0.0823578 0.00591868 1.91722e-23)
(0.0811899 0.00656472 -1.97794e-23)
(0.0799083 0.00730588 -2.05997e-23)
(0.078499 0.00816076 2.12654e-23)
(0.0769464 0.00915235 1.40123e-21)
(0.0752325 0.010309 -1.44619e-21)
(0.0733375 0.0116655 3.15428e-21)
(0.0712387 0.0132636 -3.1564e-21)
(0.0689107 0.0151514 3.36677e-21)
(0.0663243 0.01738 1.07782e-22)
(0.0634445 0.0199938 -3.55897e-21)
(0.0602271 0.0230126 -2.86295e-23)
(0.0566124 0.0263992 1.33116e-24)
(0.0525157 0.0300094 1.7915e-24)
(0.0478138 0.0335222 2.4049e-24)
(0.0423233 0.0363494 -6.28927e-23)
(0.0357791 0.0375178 -2.89416e-23)
(0.0278562 0.0355108 -2.74761e-23)
(0.0182041 0.0281431 0)
(0.00603243 0.012648 8.60962e-24)
(0.0916163 0.00211414 -3.09282e-23)
(0.0912349 0.00228009 8.3358e-22)
(0.090828 0.00246674 8.59702e-22)
(0.0903929 0.00267485 2.11802e-23)
(0.0899266 0.00290555 -9.10896e-22)
(0.0894259 0.00316045 0)
(0.0888872 0.00344183 0)
(0.0883069 0.00375274 -1.01358e-21)
(0.0876806 0.00409705 9.99021e-22)
(0.087004 0.00447962 1.07567e-21)
(0.0862718 0.00490635 -1.07727e-21)
(0.0854786 0.00538431 0)
(0.0846179 0.00592204 1.20273e-21)
(0.0836828 0.00652972 -1.20506e-21)
(0.0826655 0.00721962 0)
(0.0815572 0.00800654 -2.61144e-21)
(0.0803486 0.00890848 2.63562e-21)
(0.0790292 0.00994734 -2.1802e-23)
(0.0775881 0.0111499 -2.92339e-21)
(0.076014 0.0125487 2.95049e-21)
(0.0742955 0.0141831 0)
(0.0724217 0.0160991 3.33295e-21)
(0.0703826 0.0183483 -3.31246e-21)
(0.0681684 0.0209826 2.69997e-23)
(0.0657677 0.0240425 3.69463e-21)
(0.0631608 0.0275352 -7.42972e-21)
(0.0603087 0.0313979 3.67745e-24)
(0.0571326 0.0354419 2.42824e-23)
(0.0534818 0.0392792 3.89879e-21)
(0.0490816 0.0422318 4.23446e-24)
(0.0434631 0.0432119 -3.36366e-21)
(0.0359103 0.0405345 3.44818e-21)
(0.0252723 0.0317743 0)
(0.00875772 0.0140313 3.01836e-23)
(0.0917132 0.00250355 -4.86959e-24)
(0.0913346 0.00269927 8.68846e-22)
(0.0909323 0.00291888 1.38715e-23)
(0.0905036 0.00316348 0)
(0.0900461 0.00343457 0)
(0.0895569 0.00373427 -9.72319e-22)
(0.0890327 0.00406545 9.74776e-22)
(0.0884703 0.00443186 0)
(0.0878659 0.00483822 1.63815e-23)
(0.0872157 0.00529037 0)
(0.0865154 0.00579535 -1.13102e-21)
(0.0857601 0.00636162 2.30271e-21)
(0.084945 0.00699926 -1.17176e-21)
(0.0840645 0.00772035 -2.4843e-21)
(0.0831129 0.00853933 -8.44937e-23)
(0.082084 0.00947354 -8.9699e-23)
(0.0809716 0.0105439 -9.49621e-23)
(0.0797697 0.0117756 2.79845e-21)
(0.0784729 0.0131989 3.01034e-21)
(0.0770772 0.0148501 -3.01751e-21)
(0.0755809 0.0167713 0)
(0.0739857 0.0190101 3.36272e-21)
(0.072298 0.0216159 -3.37052e-21)
(0.0705288 0.0246319 -3.60626e-21)
(0.0686914 0.02808 3.58645e-21)
(0.0667938 0.0319329 2.94774e-23)
(0.0648227 0.0360731 3.6599e-21)
(0.0627143 0.0402348 -1.02134e-22)
(0.0603081 0.0439343 -3.63302e-21)
(0.0572696 0.0464021 2.77956e-23)
(0.0529828 0.0465133 0)
(0.0464292 0.0426509 -2.20341e-23)
(0.035474 0.0326322 -1.01255e-21)
(0.0141169 0.0139434 4.95291e-22)
(-0.00022748 0.000213832 0)
(-0.000558911 9.52e-05 2.6948e-22)
(-0.000410852 -0.000289363 -2.69884e-22)
(0.000551836 -0.000785329 -2.39417e-22)
(0.0024423 -0.00130119 2.39776e-22)
(0.00522434 -0.00177662 -6.52976e-24)
(0.00879151 -0.00217738 0)
(0.0129959 -0.0024874 0)
(0.0176734 -0.0027027 0)
(0.0226603 -0.00282737 0)
(0.0278044 -0.00287063 0)
(0.0329718 -0.00284457 0)
(0.0380503 -0.00276249 0)
(0.0429511 -0.00263768 0)
(0.0476074 -0.00248262 0)
(0.0519738 -0.00230844 8.91564e-24)
(0.0560228 -0.00212463 -8.42913e-24)
(0.0597427 -0.00193894 0)
(0.0631341 -0.00175738 0)
(0.0662073 -0.00158434 -2.83826e-24)
(0.0689793 -0.00142277 2.8426e-24)
(0.0714715 -0.00127442 -2.17563e-24)
(-0.000223204 0.000591811 -1.09687e-21)
(-0.000391297 0.000177629 -1.13612e-21)
(0.000116567 -0.000968373 1.11926e-21)
(0.00145781 -0.00243229 -4.77885e-22)
(0.00368255 -0.0039472 4.7987e-22)
(0.00672913 -0.00533856 6.57488e-24)
(0.0104775 -0.00650871 -1.20171e-23)
(0.0147798 -0.00741204 -3.06606e-22)
(0.0194804 -0.00803767 2.96639e-22)
(0.0244283 -0.00839801 -7.23132e-24)
(0.0294855 -0.00852025 -5.86165e-24)
(0.0345322 -0.00843979 1.25802e-22)
(0.0394691 -0.00819548 -1.2597e-22)
(0.0442182 -0.00782609 -7.31281e-23)
(0.0487218 -0.00736804 1.86847e-23)
(0.0529407 -0.00685381 5.4614e-23)
(0.0568521 -0.00631116 -5.02531e-25)
(0.0604472 -0.00576276 -9.06944e-25)
(0.0637278 -0.00522625 0)
(0.0667045 -0.00471457 0)
(0.0693939 -0.00423645 0)
(0.0718163 -0.00379705 -1.63598e-25)
(-0.000202996 0.000789576 -1.18564e-21)
(-1.45605e-05 -3.58051e-05 1.21462e-21)
(0.00120704 -0.00192004 -1.17822e-21)
(0.00326223 -0.00428481 -1.67346e-23)
(0.00610931 -0.00670464 -8.53273e-25)
(0.00963986 -0.00891241 -8.37581e-22)
(0.0137124 -0.0107616 8.65198e-22)
(0.0181825 -0.0121839 6.47936e-22)
(0.0229126 -0.0131643 -9.3599e-23)
(0.0277763 -0.0137236 -9.68373e-22)
(0.0326626 -0.0139053 8.02425e-22)
(0.0374779 -0.0137655 -3.50857e-22)
(0.0421465 -0.0133656 -4.19534e-24)
(0.0466102 -0.0127668 0)
(0.0508271 -0.0120266 1.33051e-22)
(0.0547699 -0.0111962 -3.32804e-23)
(0.0584241 -0.0103198 -9.78795e-23)
(0.0617854 -0.00943339 2.1098e-24)
(0.0648586 -0.00856514 0)
(0.0676544 -0.00773586 0)
(0.0701886 -0.00695971 1.65792e-23)
(0.0724795 -0.0062452 -1.60139e-23)
(-7.22933e-05 0.00071943 -2.66927e-21)
(0.000735616 -0.000659026 0)
(0.0029447 -0.0032632 2.45258e-21)
(0.00596634 -0.00642095 -4.75836e-21)
(0.00963598 -0.00959701 2.32066e-21)
(0.0137843 -0.0124696 8.98609e-22)
(0.0182527 -0.0148633 -9.44087e-22)
(0.0229097 -0.0166966 7.03953e-22)
(0.0276458 -0.017953 -1.31022e-21)
(0.0323698 -0.0186609 5.965e-22)
(0.0370072 -0.0188771 7.46629e-24)
(0.0414986 -0.0186743 7.4908e-25)
(0.045799 -0.0181316 4.26716e-24)
(0.0498752 -0.0173281 -2.10729e-22)
(0.0537053 -0.0163382 2.04238e-22)
(0.0572768 -0.0152285 4.5172e-24)
(0.060585 -0.0140563 -1.55428e-24)
(0.0636321 -0.0128691 7.97056e-23)
(0.0664258 -0.011704 -7.93529e-23)
(0.0689773 -0.0105888 -1.07297e-24)
(0.0713011 -0.00954257 0)
(0.0734133 -0.008577 2.15474e-25)
(0.000272891 0.000371643 -2.45227e-24)
(0.00208025 -0.00175539 -2.51368e-23)
(0.00547891 -0.0050366 -2.32745e-23)
(0.00961064 -0.00882212 -2.14257e-23)
(0.014175 -0.0125563 -3.77995e-23)
(0.0189572 -0.0159056 -1.19841e-24)
(0.0238001 -0.0186862 1.4598e-23)
(0.0285987 -0.0208106 -1.38287e-23)
(0.0332816 -0.0222617 -1.19824e-23)
(0.0377994 -0.0230722 1.12774e-21)
(0.0421185 -0.0233067 -2.08082e-22)
(0.0462173 -0.0230484 -9.5162e-22)
(0.0500825 -0.022388 6.24857e-22)
(0.0537075 -0.0214169 -6.2649e-22)
(0.057091 -0.0202214 2.04068e-22)
(0.0602353 -0.0188798 -2.09767e-22)
(0.0631462 -0.0174597 2.6237e-24)
(0.0658323 -0.0160175 -1.62458e-24)
(0.068304 -0.014598 -1.77893e-24)
(0.0705731 -0.0132351 1.09167e-24)
(0.0726526 -0.0119522 0)
(0.0745559 -0.0107645 -1.93548e-24)
(0.0762966 -0.00967936 0)
(0.000939275 -0.000246172 5.36195e-23)
(0.00433595 -0.00320017 -2.56597e-24)
(0.0090849 -0.00700738 -3.03363e-21)
(0.0143037 -0.0112024 3.10181e-21)
(0.0196635 -0.0152792 -1.61316e-24)
(0.0249527 -0.0189283 -2.25375e-21)
(0.0300429 -0.0219699 2.55228e-22)
(0.0348698 -0.0243099 2.78946e-22)
(0.0394054 -0.0259237 3.31795e-21)
(0.0436425 -0.0268393 -1.52789e-21)
(0.0475866 -0.0271202 1.90192e-23)
(0.05125 -0.0268511 9.30355e-22)
(0.0546484 -0.0261279 -9.22908e-22)
(0.0577983 -0.0250485 0)
(0.060716 -0.0237074 -5.23292e-22)
(0.0634172 -0.0221912 5.2585e-22)
(0.0659166 -0.0205759 -2.68932e-24)
(0.068228 -0.018926 -2.94115e-22)
(0.0703644 -0.0172933 2.95512e-22)
(0.072338 -0.0157176 -2.05114e-24)
(0.0741602 -0.0142277 9.06565e-23)
(0.075842 -0.0128419 -8.78457e-23)
(0.0773936 -0.0115706 0)
(0.00224651 -0.00100455 -7.48876e-21)
(0.00809569 -0.00490447 4.19612e-21)
(0.0141718 -0.00910746 -2.75622e-23)
(0.020189 -0.0134939 0)
(0.0260247 -0.0177134 2.28379e-23)
(0.0315338 -0.0215139 2.58156e-21)
(0.0366388 -0.0247218 -2.7794e-22)
(0.0413217 -0.0272304 -2.32926e-21)
(0.0455939 -0.0289983 1.42077e-23)
(0.049481 -0.0300386 -1.54417e-21)
(0.0530166 -0.0304045 1.52999e-21)
(0.0562369 -0.0301752 1.12336e-21)
(0.0591771 -0.0294454 -1.12063e-21)
(0.0618698 -0.0283153 0)
(0.064344 -0.0268842 6.65818e-22)
(0.0666245 -0.0252448 -6.64164e-22)
(0.0687328 -0.0234806 -4.66764e-22)
(0.0706865 -0.0216631 7.26731e-23)
(0.0725007 -0.019851 5.88643e-23)
(0.0741877 -0.0180905 4.9356e-23)
(0.075758 -0.0164156 2.84268e-22)
(0.0772203 -0.0148493 1.06559e-22)
(0.0785822 -0.013405 -2.04035e-22)
(0.00481602 -0.00516549 0)
(0.0134416 -0.00863168 0)
(0.0206246 -0.0125185 0)
(0.0269468 -0.0166674 0)
(0.0328207 -0.020707 0)
(0.0382159 -0.024355 0)
(0.0431009 -0.0274368 0)
(0.0474934 -0.0298488 0)
(0.0514274 -0.0315456 0)
(0.0549437 -0.0325324 0)
(0.0580874 -0.0328534 0)
(0.0609046 -0.0325803 0)
(0.0634395 -0.0318015 0)
(0.0657329 -0.0306135 0)
(0.0678207 -0.0291132 0)
(0.0697339 -0.0273933 0)
(0.0714982 -0.0255381 0)
(0.0731343 -0.0236209 0)
(0.0746587 -0.021703 0)
(0.0760843 -0.019833 0)
(0.0774208 -0.0180473 0)
(0.078676 -0.0163711 0)
(0.0798556 -0.0148197 0)
(0.0809643 -0.0134002 0)
(0.0161348 -0.0133192 0)
(0.0243416 -0.0163371 0)
(0.0312745 -0.0196833 0)
(0.0371713 -0.0232209 0)
(0.0425677 -0.0266375 0)
(0.0474472 -0.0296675 0)
(0.0517763 -0.0321483 0)
(0.0555842 -0.0339919 0)
(0.0589181 -0.0351666 0)
(0.0618296 -0.0356867 0)
(0.0643734 -0.0356009 0)
(0.0666046 -0.0349813 0)
(0.0685755 -0.0339133 0)
(0.0703332 -0.0324881 0)
(0.071919 -0.0307959 0)
(0.0733674 -0.0289219 0)
(0.0747063 -0.0269432 0)
(0.0759573 -0.0249262 0)
(0.0771362 -0.0229263 0)
(0.0782545 -0.0209872 0)
(0.0793198 -0.0191412 0)
(0.0803368 -0.0174107 0)
(0.0813084 -0.0158086 0)
(0.0323539 -0.0197312 0)
(0.0390908 -0.0226442 0)
(0.0449315 -0.0256761 0)
(0.0497977 -0.0287203 0)
(0.0542329 -0.0315737 0)
(0.0582103 -0.0340324 0)
(0.0616748 -0.0359618 0)
(0.0646489 -0.0372926 0)
(0.0671812 -0.0380057 0)
(0.0693267 -0.0381221 0)
(0.0711434 -0.0376929 0)
(0.0726897 -0.0367886 0)
(0.0740207 -0.0354905 0)
(0.0751856 -0.0338834 0)
(0.0762269 -0.0320507 0)
(0.077179 -0.0300701 0)
(0.0780692 -0.0280111 0)
(0.0789175 -0.0259338 0)
(0.0797375 -0.0238875 0)
(0.080538 -0.0219111 0)
(0.0813233 -0.0200333 0)
(0.0820949 -0.0182735 0)
(0.0828522 -0.0166431 0)
(0.0509561 -0.0243042 0)
(0.0558144 -0.0271949 0)
(0.0601376 -0.0300758 0)
(0.0636302 -0.0327877 0)
(0.0667947 -0.035206 0)
(0.0696075 -0.0371978 0)
(0.0719989 -0.0386681 0)
(0.0739794 -0.0395715 0)
(0.0755921 -0.0399043 0)
(0.0768885 -0.0396957 0)
(0.0779238 -0.0389991 0)
(0.0787538 -0.0378833 0)
(0.0794309 -0.0364248 0)
(0.0800016 -0.034702 0)
(0.080505 -0.0327906 0)
(0.0809725 -0.0307606 0)
(0.0814278 -0.0286743 0)
(0.0818874 -0.0265846 0)
(0.0823616 -0.0245354 0)
(0.0828553 -0.0225608 0)
(0.0833697 -0.0206859 0)
(0.0839025 -0.0189277 0)
(0.08445 -0.017296 0)
(0.069816 -0.0272039 0)
(0.0727653 -0.0301215 0)
(0.0754469 -0.0329413 0)
(0.0774707 -0.0354456 0)
(0.0792635 -0.0375504 0)
(0.0808162 -0.0391846 0)
(0.0820599 -0.0402946 0)
(0.0829973 -0.0408611 0)
(0.0836641 -0.0408976 0)
(0.0841054 -0.0404426 0)
(0.0843699 -0.0395524 0)
(0.0845069 -0.0382942 0)
(0.0845621 -0.03674 0)
(0.0845756 -0.0349615 0)
(0.0845804 -0.0330273 0)
(0.0846023 -0.0309995 0)
(0.0846597 -0.0289331 0)
(0.0847644 -0.0268747 0)
(0.0849223 -0.0248624 0)
(0.0851346 -0.0229257 0)
(0.0853988 -0.0210865 0)
(0.0857096 -0.0193593 0)
(0.0860603 -0.0177526 0)
(0.0873111 -0.0285086 0)
(0.0885442 -0.0314927 0)
(0.0896684 -0.0342996 0)
(0.0903109 -0.0366857 0)
(0.0908026 -0.038586 0)
(0.0911492 -0.0399748 0)
(0.091296 -0.0408344 0)
(0.091244 -0.0411693 0)
(0.0910234 -0.0410083 0)
(0.0906726 -0.0403984 0)
(0.0902326 -0.0393985 0)
(0.0897441 -0.0380741 0)
(0.0892447 -0.0364927 0)
(0.0887663 -0.0347198 0)
(0.0883343 -0.0328171 0)
(0.0879677 -0.0308398 0)
(0.0876788 -0.0288363 0)
(0.0874742 -0.0268473 0)
(0.0873555 -0.0249057 0)
(0.0873201 -0.0230374 0)
(0.0873623 -0.0212611 0)
(0.0874741 -0.0195894 0)
(0.0876465 -0.0180297 0)
(0.10236 -0.0284318 0)
(0.102193 -0.0315062 0)
(0.10198 -0.034322 0)
(0.101445 -0.0366475 0)
(0.100822 -0.0384293 0)
(0.100124 -0.0396715 0)
(0.0993178 -0.0403834 0)
(0.0984086 -0.0405884 0)
(0.0974233 -0.0403269 0)
(0.0963947 -0.039652 0)
(0.0953565 -0.0386241 0)
(0.0943414 -0.0373064 0)
(0.0933782 -0.035762 0)
(0.0924906 -0.0340508 0)
(0.0916967 -0.0322282 0)
(0.0910083 -0.0303433 0)
(0.0904321 -0.0284389 0)
(0.0899698 -0.0265506 0)
(0.0896189 -0.0247074 0)
(0.0893735 -0.0229316 0)
(0.0892254 -0.0212396 0)
(0.0891645 -0.0196427 0)
(0.08918 -0.0181474 0)
(0.114398 -0.0272871 0)
(0.113199 -0.0304512 0)
(0.111945 -0.033278 0)
(0.110498 -0.0355734 0)
(0.109005 -0.0372959 0)
(0.107485 -0.0384673 0)
(0.105924 -0.039115 0)
(0.104335 -0.0392749 0)
(0.102746 -0.0389951 0)
(0.101183 -0.0383319 0)
(0.0996748 -0.0373454 0)
(0.0982476 -0.036096 0)
(0.0969225 -0.034642 0)
(0.0957159 -0.0330383 0)
(0.0946392 -0.0313346 0)
(0.0936985 -0.0295751 0)
(0.0928955 -0.0277975 0)
(0.0922276 -0.0260337 0)
(0.0916893 -0.024309 0)
(0.0912721 -0.0226435 0)
(0.0909658 -0.0210517 0)
(0.0907592 -0.0195437 0)
(0.0906403 -0.0181257 0)
(0.12331 -0.0254174 0)
(0.12144 -0.0286428 0)
(0.119463 -0.0314655 0)
(0.117382 -0.03374 0)
(0.115282 -0.0354379 0)
(0.113179 -0.0365899 0)
(0.111079 -0.0372333 0)
(0.109005 -0.0374112 0)
(0.106982 -0.0371753 0)
(0.105036 -0.0365821 0)
(0.103192 -0.0356896 0)
(0.10147 -0.0345544 0)
(0.0998849 -0.0332305 0)
(0.098448 -0.0317677 0)
(0.0971654 -0.0302108 0)
(0.0960389 -0.0285995 0)
(0.0950662 -0.0269678 0)
(0.0942422 -0.0253441 0)
(0.0935586 -0.0237515 0)
(0.0930057 -0.0222078 0)
(0.0925721 -0.0207265 0)
(0.0922457 -0.0193169 0)
(0.0920142 -0.0179851 0)
(0.129322 -0.0231423 0)
(0.127092 -0.0263787 0)
(0.124687 -0.0291701 0)
(0.122232 -0.0314171 0)
(0.119768 -0.0331048 0)
(0.117308 -0.0342665 0)
(0.114876 -0.0349429 0)
(0.112499 -0.0351797 0)
(0.110206 -0.0350285 0)
(0.108021 -0.0345438 0)
(0.105966 -0.0337798 0)
(0.104057 -0.032789 0)
(0.102305 -0.0316203 0)
(0.100719 -0.030319 0)
(0.0993 -0.0289256 0)
(0.0980474 -0.0274758 0)
(0.0969566 -0.0260007 0)
(0.0960204 -0.0245258 0)
(0.0952297 -0.0230723 0)
(0.0945736 -0.0216567 0)
(0.0940405 -0.0202914 0)
(0.0936182 -0.0189856 0)
(0.0932944 -0.0177451 0)
(0.132866 -0.0207242 0)
(0.130519 -0.0239112 0)
(0.127934 -0.0266372 0)
(0.125322 -0.0288408 0)
(0.122699 -0.0305179 0)
(0.120076 -0.0317001 0)
(0.117486 -0.0324274 0)
(0.114966 -0.0327442 0)
(0.112543 -0.0326994 0)
(0.110242 -0.0323434 0)
(0.108083 -0.031726 0)
(0.106081 -0.0308946 0)
(0.104243 -0.0298932 0)
(0.102576 -0.0287626 0)
(0.10108 -0.0275394 0)
(0.0997528 -0.0262561 0)
(0.0985877 -0.0249407 0)
(0.0975773 -0.023617 0)
(0.096712 -0.0223044 0)
(0.095981 -0.0210184 0)
(0.0953729 -0.0197709 0)
(0.0948759 -0.0185706 0)
(0.0944782 -0.0174238 0)
(0.13447 -0.0183526 0)
(0.132175 -0.0214317 0)
(0.129594 -0.0240585 0)
(0.126992 -0.0261986 0)
(0.124366 -0.0278552 0)
(0.121729 -0.029056 0)
(0.119121 -0.0298371 0)
(0.116582 -0.0302394 0)
(0.114142 -0.0303071 0)
(0.111823 -0.0300855 0)
(0.109647 -0.029619 0)
(0.107625 -0.0289496 0)
(0.105766 -0.0281166 0)
(0.104074 -0.0271565 0)
(0.10255 -0.0261022 0)
(0.101188 -0.0249832 0)
(0.0999849 -0.0238251 0)
(0.0989315 -0.02265 0)
(0.0980189 -0.0214759 0)
(0.0972369 -0.0203174 0)
(0.0965748 -0.0191861 0)
(0.0960215 -0.0180907 0)
(0.095566 -0.0170374 0)
(0.134656 -0.0161462 0)
(0.132519 -0.0190698 0)
(0.130066 -0.0215686 0)
(0.127584 -0.0236255 0)
(0.125065 -0.0252474 0)
(0.12252 -0.0264571 0)
(0.119994 -0.0272851 0)
(0.117528 -0.0277673 0)
(0.115151 -0.0279425 0)
(0.112888 -0.02785 0)
(0.110758 -0.0275285 0)
(0.108773 -0.0270147 0)
(0.106942 -0.0263432 0)
(0.105267 -0.0255463 0)
(0.103751 -0.0246535 0)
(0.102388 -0.0236915 0)
(0.101175 -0.0226839 0)
(0.100103 -0.021651 0)
(0.0991655 -0.0206098 0)
(0.0983522 -0.0195742 0)
(0.0976535 -0.0185553 0)
(0.0970596 -0.0175617 0)
(0.0965604 -0.0166 0)
(0.133887 -0.0141655 0)
(0.13196 -0.016901 0)
(0.129706 -0.0192511 0)
(0.127413 -0.0212084 0)
(0.125067 -0.022781 0)
(0.122682 -0.0239861 0)
(0.120302 -0.0248486 0)
(0.117968 -0.0253987 0)
(0.11571 -0.0256692 0)
(0.113551 -0.0256935 0)
(0.111511 -0.0255046 0)
(0.109602 -0.0251339 0)
(0.107832 -0.0246115 0)
(0.106206 -0.0239658 0)
(0.104724 -0.0232231 0)
(0.103384 -0.0224074 0)
(0.102183 -0.0215404 0)
(0.101112 -0.0206409 0)
(0.100167 -0.0197248 0)
(0.0993383 -0.0188054 0)
(0.0986176 -0.0178935 0)
(0.0979961 -0.0169975 0)
(0.0974652 -0.016124 0)
(0.132532 -0.0124292 0)
(0.130833 -0.0149591 0)
(0.12881 -0.0171485 0)
(0.126735 -0.0189947 0)
(0.124597 -0.020505 0)
(0.122407 -0.0216918 0)
(0.120209 -0.0225744 0)
(0.118041 -0.0231772 0)
(0.115934 -0.0235273 0)
(0.11391 -0.0236524 0)
(0.111987 -0.0235799 0)
(0.110178 -0.0233365 0)
(0.108492 -0.0229479 0)
(0.106935 -0.0224386 0)
(0.105506 -0.0218321 0)
(0.104207 -0.0211501 0)
(0.103032 -0.0204121 0)
(0.101978 -0.0196356 0)
(0.101038 -0.0188356 0)
(0.100207 -0.0180247 0)
(0.0994755 -0.0172131 0)
(0.0988375 -0.0164093 0)
(0.098285 -0.0156199 0)
(0.130868 -0.0109296 0)
(0.129388 -0.0132492 0)
(0.1276 -0.0152738 0)
(0.125752 -0.0170025 0)
(0.123831 -0.0184409 0)
(0.121848 -0.0195971 0)
(0.119846 -0.0204855 0)
(0.11786 -0.0211255 0)
(0.115918 -0.0215385 0)
(0.114043 -0.0217472 0)
(0.112251 -0.0217737 0)
(0.110557 -0.0216403 0)
(0.108968 -0.0213687 0)
(0.107491 -0.0209802 0)
(0.106129 -0.0204951 0)
(0.10488 -0.0199331 0)
(0.103744 -0.0193118 0)
(0.102716 -0.0186473 0)
(0.101793 -0.0179537 0)
(0.100968 -0.0172427 0)
(0.100236 -0.0165244 0)
(0.0995905 -0.0158069 0)
(0.0990248 -0.0150967 0)
(0.129081 -0.00964451 0)
(0.127803 -0.0117589 0)
(0.126237 -0.013621 0)
(0.124605 -0.0152304 0)
(0.122896 -0.0165906 0)
(0.121119 -0.0177065 0)
(0.119312 -0.0185883 0)
(0.117509 -0.0192508 0)
(0.115736 -0.0197108 0)
(0.114013 -0.0199861 0)
(0.112357 -0.0200946 0)
(0.110783 -0.0200542 0)
(0.109297 -0.0198831 0)
(0.107908 -0.0195994 0)
(0.106618 -0.0192211 0)
(0.105427 -0.0187653 0)
(0.104337 -0.0182483 0)
(0.103343 -0.0176847 0)
(0.102443 -0.0170875 0)
(0.101633 -0.016468 0)
(0.100908 -0.0158356 0)
(0.100262 -0.0151981 0)
(0.09969 -0.0145619 0)
(0.127293 -0.00854643 0)
(0.126192 -0.0104669 0)
(0.124827 -0.0121733 0)
(0.123394 -0.0136651 0)
(0.121881 -0.0149442 0)
(0.120298 -0.0160127 0)
(0.118677 -0.0168777 0)
(0.11705 -0.0175502 0)
(0.11544 -0.018043 0)
(0.113867 -0.0183696 0)
(0.112346 -0.018544 0)
(0.110891 -0.0185807 0)
(0.10951 -0.0184945 0)
(0.10821 -0.0183007 0)
(0.106995 -0.0180149 0)
(0.105867 -0.0176523 0)
(0.104827 -0.0172275 0)
(0.103872 -0.016754 0)
(0.103001 -0.0162437 0)
(0.102211 -0.0157071 0)
(0.101498 -0.0151531 0)
(0.100858 -0.0145893 0)
(0.100286 -0.0140218 0)
(0.125573 -0.0076074 0)
(0.124624 -0.00934856 0)
(0.123436 -0.010909 0)
(0.122181 -0.0122876 0)
(0.120846 -0.0134851 0)
(0.119439 -0.0145018 0)
(0.117991 -0.0153424 0)
(0.116528 -0.0160147 0)
(0.115072 -0.016528 0)
(0.11364 -0.0168925 0)
(0.112249 -0.0171188 0)
(0.110909 -0.0172181 0)
(0.10963 -0.0172026 0)
(0.108419 -0.0170849 0)
(0.10728 -0.0168786 0)
(0.106216 -0.016597 0)
(0.105227 -0.0162532 0)
(0.104315 -0.0158594 0)
(0.103477 -0.0154267 0)
(0.102711 -0.0149649 0)
(0.102015 -0.0144822 0)
(0.101385 -0.0139858 0)
(0.100817 -0.0134817 0)
(0.123956 -0.00680184 0)
(0.123136 -0.00837979 0)
(0.122103 -0.00980519 0)
(0.121003 -0.0110767 0)
(0.119825 -0.0121943 0)
(0.118577 -0.013157 0)
(0.117285 -0.0139678 0)
(0.115972 -0.0146318 0)
(0.114658 -0.0151558 0)
(0.113358 -0.0155468 0)
(0.112088 -0.0158128 0)
(0.110857 -0.0159622 0)
(0.109676 -0.0160047 0)
(0.108551 -0.0159508 0)
(0.107487 -0.0158121 0)
(0.106486 -0.0156003 0)
(0.105551 -0.0153271 0)
(0.104683 -0.0150036 0)
(0.10388 -0.0146399 0)
(0.103141 -0.014245 0)
(0.102465 -0.0138267 0)
(0.101849 -0.0133918 0)
(0.10129 -0.0129459 0)
(0.122458 -0.00610766 0)
(0.121747 -0.00753846 0)
(0.120845 -0.0088403 0)
(0.11988 -0.0100118 0)
(0.118841 -0.0110524 0)
(0.117734 -0.0119607 0)
(0.116581 -0.0127381 0)
(0.115403 -0.0133879 0)
(0.114218 -0.0139145 0)
(0.113039 -0.0143228 0)
(0.111881 -0.0146182 0)
(0.110753 -0.0148069 0)
(0.109664 -0.0148965 0)
(0.108621 -0.0148956 0)
(0.107629 -0.014814 0)
(0.106691 -0.0146619 0)
(0.105809 -0.0144499 0)
(0.104985 -0.0141879 0)
(0.104218 -0.0138852 0)
(0.103509 -0.0135501 0)
(0.102855 -0.0131898 0)
(0.102256 -0.0128105 0)
(0.101708 -0.0124178 0)
(0.12108 -0.00550639 0)
(0.12046 -0.00680528 0)
(0.119671 -0.00799479 0)
(0.118823 -0.00907376 0)
(0.117904 -0.0100414 0)
(0.11692 -0.0108959 0)
(0.115891 -0.0116379 0)
(0.114834 -0.0122692 0)
(0.113765 -0.0127924 0)
(0.112697 -0.0132105 0)
(0.111642 -0.0135268 0)
(0.110609 -0.0137457 0)
(0.109606 -0.0138729 0)
(0.108641 -0.0139155 0)
(0.107717 -0.0138818 0)
(0.106839 -0.0137806 0)
(0.10601 -0.0136213 0)
(0.10523 -0.0134129 0)
(0.1045 -0.0131639 0)
(0.103821 -0.0128819 0)
(0.103191 -0.0125735 0)
(0.10261 -0.0122446 0)
(0.102077 -0.0119002 0)
(0.119815 -0.00498286 0)
(0.119274 -0.00616384 0)
(0.118581 -0.00725166 0)
(0.117833 -0.00824547 0)
(0.117019 -0.00914448 0)
(0.116143 -0.00994696 0)
(0.115223 -0.0106527 0)
(0.114274 -0.0112626 0)
(0.11331 -0.0117779 0)
(0.112342 -0.0121997 0)
(0.11138 -0.01253 0)
(0.110435 -0.0127715 0)
(0.109512 -0.0129285 0)
(0.108619 -0.0130065 0)
(0.107761 -0.0130125 0)
(0.10694 -0.0129544 0)
(0.106161 -0.0128403 0)
(0.105424 -0.0126785 0)
(0.104732 -0.0124766 0)
(0.104083 -0.0122415 0)
(0.103479 -0.0119795 0)
(0.102918 -0.0116959 0)
(0.1024 -0.0113953 0)
(0.118657 -0.00452472 0)
(0.118181 -0.00560041 0)
(0.117571 -0.00659638 0)
(0.116909 -0.00751217 0)
(0.116186 -0.0083472 0)
(0.115406 -0.00909982 0)
(0.114582 -0.00976946 0)
(0.113729 -0.0103562 0)
(0.112858 -0.01086 0)
(0.11198 -0.011281 0)
(0.111104 -0.0116197 0)
(0.110238 -0.0118776 0)
(0.109389 -0.0120576 0)
(0.108564 -0.0121641 0)
(0.107767 -0.0122029 0)
(0.107001 -0.0121809 0)
(0.10627 -0.0121055 0)
(0.105576 -0.0119839 0)
(0.104919 -0.0118231 0)
(0.104302 -0.0116295 0)
(0.103724 -0.0114087 0)
(0.103184 -0.0111657 0)
(0.102683 -0.0109048 0)
(0.117596 -0.00412191 0)
(0.117176 -0.00510354 0)
(0.116637 -0.00601663 0)
(0.116049 -0.00686115 0)
(0.115406 -0.0076368 0)
(0.114708 -0.00834213 0)
(0.11397 -0.00897634 0)
(0.113201 -0.00953887 0)
(0.112414 -0.0100289 0)
(0.111617 -0.0104455 0)
(0.110818 -0.0107882 0)
(0.110025 -0.0110573 0)
(0.109245 -0.0112547 0)
(0.108482 -0.0113838 0)
(0.107742 -0.0114495 0)
(0.107028 -0.0114577 0)
(0.106343 -0.0114151 0)
(0.105689 -0.0113281 0)
(0.105069 -0.0112031 0)
(0.104482 -0.0110459 0)
(0.10393 -0.0108617 0)
(0.103412 -0.010655 0)
(0.102928 -0.0104298 0)
(0.116623 -0.00376624 0)
(0.116251 -0.00466375 0)
(0.115772 -0.00550205 0)
(0.115249 -0.00628156 0)
(0.114675 -0.0070023 0)
(0.11405 -0.00766307 0)
(0.113386 -0.00826295 0)
(0.112694 -0.00880096 0)
(0.111981 -0.0092756 0)
(0.111257 -0.00968516 0)
(0.110528 -0.0100282 0)
(0.109802 -0.0103044 0)
(0.109084 -0.0105145 0)
(0.108379 -0.0106613 0)
(0.107692 -0.0107487 0)
(0.107027 -0.010782 0)
(0.106386 -0.0107671 0)
(0.105771 -0.0107097 0)
(0.105185 -0.0106158 0)
(0.104628 -0.0104906 0)
(0.104102 -0.0103387 0)
(0.103606 -0.0101644 0)
(0.103141 -0.0099712 0)
(0.115728 -0.00345098 0)
(0.115397 -0.00427312 0)
(0.114972 -0.0050439 0)
(0.114505 -0.00576417 0)
(0.113991 -0.00643424 0)
(0.11343 -0.00705323 0)
(0.112833 -0.00762018 0)
(0.112207 -0.00813376 0)
(0.111561 -0.00859198 0)
(0.110902 -0.00899251 0)
(0.110237 -0.00933324 0)
(0.109571 -0.00961302 0)
(0.10891 -0.0098321 0)
(0.108259 -0.00999236 0)
(0.107622 -0.0100972 0)
(0.107002 -0.0101511 0)
(0.106402 -0.0101594 0)
(0.105825 -0.0101273 0)
(0.105272 -0.0100602 0)
(0.104744 -0.00996287 0)
(0.104243 -0.00983954 0)
(0.103769 -0.009694 0)
(0.103323 -0.00952959 0)
(0.114904 -0.00317055 0)
(0.114609 -0.00392507 0)
(0.114229 -0.00463484 0)
(0.113812 -0.00530111 0)
(0.113351 -0.00592453 0)
(0.112847 -0.00650448 0)
(0.112308 -0.00704003 0)
(0.111742 -0.00752961 0)
(0.111156 -0.00797085 0)
(0.110555 -0.00836092 0)
(0.109947 -0.00869717 0)
(0.109337 -0.00897788 0)
(0.108728 -0.00920271 0)
(0.108127 -0.00937298 0)
(0.107535 -0.00949148 0)
(0.106958 -0.00956221 0)
(0.106397 -0.00958985 0)
(0.105855 -0.00957928 0)
(0.105333 -0.00953526 0)
(0.104834 -0.00946218 0)
(0.104358 -0.00936392 0)
(0.103906 -0.00924392 0)
(0.103478 -0.0091052 0)
(0.114144 -0.00292034 0)
(0.11388 -0.00361405 0)
(0.113541 -0.00426865 0)
(0.113166 -0.0048857 0)
(0.112752 -0.00546618 0)
(0.112297 -0.00600976 0)
(0.11181 -0.00651553 0)
(0.111298 -0.00698177 0)