/*--------------------------------*- C++ -*----------------------------------*\
| =========                 |                                                 |
| \\      /  F ield         | OpenFOAM: The Open Source CFD Toolbox           |
|  \\    /   O peration     | Version:  2412                                  |
|   \\  /    A nd           | Website:  www.openfoam.com                      |
|    \\/     M anipulation  |                                                 |
\*---------------------------------------------------------------------------*/
FoamFile
{
    version     2.0;
    format      ascii;
    arch        "LSB;label=32;scalar=64";
    class       surfaceScalarField;
    location    "1";
    object      phi;
}
// * * * * * * * * * * * * * * * * * * * * * * * * * * * * * * * * * * * * * //

dimensions      [0 3 -1 0 0 0 0];

oriented        oriented;

internalField   nonuniform List<scalar> 
10387
(
0.0049268
5.13391e-06
-2.32838e-09
0.00492028
6.52038e-06
-2.67131e-09
0.00491228
7.99995e-06
-2.98723e-09
0.00490269
9.59415e-06
-3.00723e-09
0.00489137
1.13272e-05
-2.68469e-09
0.00487814
1.3232e-05
-2.19213e-09
0.00486279
1.53464e-05
-1.67587e-09
0.0048451
1.7695e-05
-1.19806e-09
0.00482479
2.03104e-05
-7.87343e-10
0.00480157
2.32192e-05
-4.43977e-10
0.00477513
2.64406e-05
-1.79105e-10
0.00474511
3.00198e-05
-2.40347e-11
0.00471107
3.40458e-05
2.62063e-11
0.00467244
3.86228e-05
-2.01551e-11
0.00462858
4.38678e-05
-1.54046e-10
0.00457867
4.99098e-05
-3.23278e-10
0.0045218
5.68616e-05
-4.69506e-10
0.00445694
6.48637e-05
-5.42698e-10
0.00438279
7.41525e-05
-4.46997e-10
0.00429775
8.50383e-05
-1.95673e-10
0.00419983
9.79171e-05
8.47056e-11
0.00408656
0.000113275
3.32976e-10
0.00395484
0.000131719
5.51958e-10
0.0038008
0.000154041
7.60176e-10
0.00361948
0.000181312
9.74908e-10
0.00340455
0.000214934
1.25853e-09
0.0031479
0.000256644
1.58404e-09
0.0028392
0.000308698
1.83822e-09
0.00246556
0.000373645
2.03e-09
0.00201258
0.000452974
2.01811e-09
0.00147224
0.000540341
1.89207e-09
0.000867285
0.000604952
1.62944e-09
0.000296184
0.000571101
1.02656e-09
0.000296183
3.72013e-10
0.00490006
1.17171e-05
0.00489209
1.44851e-05
0.00488265
1.74416e-05
0.00487162
2.06275e-05
0.00485885
2.40924e-05
0.00484418
2.79046e-05
0.00482738
3.21426e-05
0.00480823
3.68509e-05
0.00478644
4.20961e-05
0.00476174
4.79264e-05
0.0047338
5.43755e-05
0.00470228
6.154e-05
0.00466672
6.96092e-05
0.00462655
7.87924e-05
0.00458109
8.93223e-05
0.00452955
0.000101452
0.00447102
0.00011539
0.00440447
0.000131419
0.00432859
0.000150032
0.00424177
0.000171854
0.00414202
0.000197669
0.00402686
0.000228438
0.00389322
0.000265358
0.00373725
0.000310005
0.00355406
0.000364508
0.00333734
0.000431649
0.0030791
0.000514888
0.00276923
0.000618562
0.00239545
0.000747427
0.00194464
0.000903783
0.00141114
0.00107385
0.00082097
0.00119512
0.000273016
0.00111906
0.000569199
0.00484629
2.11934e-05
0.00483544
2.53274e-05
0.00482313
2.97513e-05
0.00480924
3.45249e-05
0.00479361
3.97183e-05
0.00477608
4.54381e-05
0.00475641
5.18128e-05
0.00473436
5.89008e-05
0.00470965
6.68028e-05
0.004682
7.55761e-05
0.00465111
8.5262e-05
0.00461663
9.60269e-05
0.00457806
0.000108175
0.00453484
0.000122014
0.00448629
0.000137876
0.0044316
0.000156137
0.00436987
0.000177117
0.00430004
0.000201249
0.0042208
0.000229275
0.00413052
0.000262132
0.00402721
0.000300985
0.0039084
0.000347241
0.0037711
0.000402664
0.00361151
0.000469596
0.00342484
0.000551172
0.00320498
0.000651511
0.00294419
0.000775675
0.00263275
0.00093
0.0022594
0.00112078
0.00181322
0.00134996
0.00129366
0.00159341
0.00073346
0.00175532
0.000234453
0.00161806
0.000803652
0.0047649
3.4961e-05
0.00474978
4.04449e-05
0.0047332
4.63311e-05
0.00471503
5.26934e-05
0.00469513
5.96188e-05
0.00467332
6.72527e-05
0.00464935
7.57761e-05
0.004623
8.52519e-05
0.00459399
9.58147e-05
0.00456202
0.000107544
0.00452679
0.000120494
0.00448791
0.000134909
0.00444488
0.000151208
0.0043971
0.00016979
0.00434391
0.000191067
0.00428454
0.000215502
0.0042181
0.000243556
0.00414349
0.000275861
0.00405936
0.00031341
0.00396405
0.000357436
0.0038556
0.000409436
0.00373162
0.000471224
0.00358918
0.000545105
0.00342464
0.000634138
0.00323344
0.000742367
0.00300975
0.000875201
0.00274596
0.00103947
0.0024331
0.00124286
0.00206153
0.00149235
0.00162432
0.00178717
0.001127
0.00209073
0.000611397
0.00227092
0.000181294
0.00204817
0.000984946
0.00465679
5.43404e-05
0.00463608
6.1155e-05
0.00461392
6.84908e-05
0.00459018
7.64319e-05
0.00456472
8.50788e-05
0.00453736
9.46169e-05
0.00450785
0.000105284
0.00447596
0.000117138
0.00444142
0.00013036
0.00440392
0.000145041
0.00436315
0.000161261
0.0043187
0.000179357
0.00427007
0.000199847
0.00421666
0.000223199
0.00415783
0.000249893
0.00409276
0.000280578
0.00402035
0.000315966
0.00393944
0.000356762
0.00384881
0.000404045
0.00374686
0.000459389
0.00363164
0.000524651
0.00350084
0.000602021
0.00335165
0.000694296
0.00318058
0.000805211
0.0029833
0.000939642
0.0027545
0.00110401
0.00248757
0.00130639
0.00217488
0.00155555
0.00180931
0.00185792
0.00138878
0.0022077
0.000927921
0.00255159
0.000472967
0.00272587
0.000117965
0.00240317
0.00110291
0.00452573
8.04764e-05
0.00449829
8.85938e-05
0.00446942
9.7356e-05
0.004439
0.000106854
0.00440688
0.000117199
0.0043729
0.000128592
0.00433685
0.000141334
0.00429842
0.000155575
0.00425732
0.000171454
0.00421317
0.000189198
0.00416549
0.000208936
0.00411392
0.00023093
0.004058
0.000255762
0.00399711
0.000284093
0.00393052
0.000316487
0.00385747
0.000353624
0.00377706
0.000396375
0.00368812
0.000445701
0.00358928
0.000502892
0.00347894
0.000569728
0.00335525
0.000648336
0.00321599
0.000741286
0.00305851
0.000851774
0.00287973
0.000983992
0.00267594
0.00114343
0.00244287
0.00133708
0.00217582
0.00157344
0.00187034
0.00186103
0.0015246
0.00220367
0.00114518
0.00258712
0.00075323
0.00294353
0.000392386
0.00308672
0.000115904
0.00267965
0.00121882
0.00438158
0.00011436
0.00434642
0.000123748
0.00430988
0.000133904
0.00427181
0.000144924
0.00423208
0.000156927
0.00419052
0.000170145
0.00414683
0.000185031
0.00410047
0.00020193
0.00405125
0.000220676
0.00399897
0.000241475
0.00394326
0.000264649
0.00388364
0.000290548
0.00381959
0.000319812
0.00375048
0.000353206
0.00367557
0.000391391
0.00359405
0.000435152
0.00350493
0.000485494
0.00340707
0.000543556
0.00329913
0.000610838
0.0031795
0.000689355
0.00304635
0.000781488
0.00289752
0.000890108
0.00273058
0.00101872
0.00254278
0.00117179
0.0023312
0.00135501
0.00209312
0.00157515
0.00182704
0.00183952
0.00153451
0.00215357
0.00122371
0.00251447
0.000915094
0.00289574
0.000645409
0.00321322
0.000447012
0.00328512
0.000303545
0.00282312
0.00152236
-0.000107842
0.000107844
-1.65375e-09
-0.000166059
5.82195e-05
-2.09265e-09
-1.82355e-05
-0.000147823
-7.26663e-10
0.000341917
-0.000360153
7.7863e-10
0.000830809
-0.000488894
1.72812e-09
0.00135722
-0.00052641
2.49924e-09
0.00185988
-0.000502667
3.22467e-09
0.00230866
-0.000448785
3.78627e-09
0.00269475
-0.000386093
4.00855e-09
0.00302083
-0.000326083
3.95094e-09
0.00329425
-0.000273422
3.79228e-09
0.00352334
-0.000229097
3.5782e-09
0.00371584
-0.000192497
3.31403e-09
0.00387838
-0.000162544
3.00763e-09
0.00401644
-0.000138067
2.68128e-09
0.00413441
-0.000117973
2.33501e-09
0.00423577
-0.000101364
1.9517e-09
0.00432332
-8.75466e-05
1.58105e-09
0.00439928
-7.59606e-05
1.27628e-09
0.0044654
-6.61255e-05
1.09512e-09
0.00452311
-5.77083e-05
1.1792e-09
-5.04907e-05
1.72201e-09
-8.26325e-05
0.000190476
-0.000108731
8.43183e-05
5.16787e-05
-0.000308233
0.000398155
-0.00070663
0.000863934
-0.000954673
0.00136735
-0.00102983
0.00185079
-0.000986105
0.00228506
-0.000883063
0.00266113
-0.000762158
0.00298076
-0.000645718
0.00325035
-0.000543009
0.00347744
-0.000456182
0.00366917
-0.000384236
0.0038318
-0.000325167
0.00397047
-0.000276745
0.00408938
-0.000236877
0.00419187
-0.00020386
0.00428068
-0.00017635
0.00435798
-0.000153259
0.00442549
-0.00013364
0.00448462
-0.000116836
-0.000102415
-2.95606e-05
0.000220037
8.06696e-06
4.66907e-05
0.000183012
-0.000483178
0.000506324
-0.00102994
0.000928192
-0.00137654
0.0013855
-0.00148713
0.00183004
-0.00143065
0.00223546
-0.00128848
0.00259177
-0.00111846
0.00289878
-0.000952733
0.00316102
-0.000805244
0.00338441
-0.000679577
0.00357489
-0.000574717
0.00373786
-0.000488137
0.00387788
-0.000416764
0.00399873
-0.000357729
0.00410355
-0.000308674
0.00419489
-0.000267691
0.00427484
-0.000233215
0.0043451
-0.000203893
0.00440703
-0.000178769
-0.00015719
4.8506e-05
0.000171531
0.000168074
-7.28778e-05
0.000369796
-0.0006849
0.000660007
-0.00132015
0.00101714
-0.00173367
0.00140645
-0.00187645
0.00179424
-0.00181844
0.00215765
-0.00165189
0.00248541
-0.00144623
0.00277439
-0.00124171
0.00302598
-0.00105683
0.00324389
-0.00089749
0.00343256
-0.000763388
0.00359606
-0.000651636
0.00373803
-0.000558733
0.0038617
-0.000481402
0.00396987
-0.000416841
0.0040649
-0.000362724
0.00414878
-0.000317086
0.00422308
-0.000278201
0.00428916
-0.000244848
-0.000216161
0.000139611
3.19195e-05
0.000361237
-0.000294504
0.000598158
-0.000921821
0.000846414
-0.00156841
0.00112133
-0.00200859
0.00142306
-0.00217818
0.00173738
-0.00213276
0.00204702
-0.00196153
0.00233894
-0.00173815
0.00260596
-0.00150873
0.00284551
-0.00129638
0.00305791
-0.0011099
0.00324511
-0.000950579
0.00340969
-0.000816216
0.00355438
-0.000703431
0.00368182
-0.000608836
0.00379437
-0.000529389
0.00389406
-0.000462423
0.00398262
-0.000405646
0.00406169
-0.000357267
0.00413272
-0.000315876
0.00419677
-0.000280218
-0.000249296
0.000251433
-0.000219514
0.00058297
-0.000626041
0.00083971
-0.00117856
0.00103055
-0.00175925
0.00120839
-0.00218643
0.00140926
-0.00237904
0.00163962
-0.00236312
0.0018885
-0.0022104
0.00214078
-0.00199043
0.00238421
-0.00175216
0.00261131
-0.00152347
0.00281862
-0.00131721
0.0030054
-0.00113736
0.00317245
-0.000983268
0.0033214
-0.000852377
0.00345415
-0.000741589
0.00357264
-0.000647876
0.0036787
-0.000568483
0.00377398
-0.000500925
0.00385989
-0.000443182
0.00393764
-0.000393623
0.00400827
-0.000350847
-0.00031374
0.000382395
-0.000601908
0.000771177
-0.00101482
0.0010149
-0.00142228
0.00114098
-0.00188533
0.00123061
-0.00227606
0.00134411
-0.00249254
0.00150208
-0.00252109
0.00169759
-0.00240591
0.00191371
-0.00220656
0.00213455
-0.001973
0.00234893
-0.00173785
0.00255039
-0.00151867
0.00273593
-0.00132289
0.0029048
-0.00115214
0.00305754
-0.00100512
0.00319537
-0.000879424
0.00331977
-0.000772272
0.00343225
-0.000680963
0.00353425
-0.000602926
0.00362706
-0.000535992
0.00371182
-0.000478382
0.00378954
-0.000428565
-0.000385326
0.00191609
-0.00170528
-0.000812717
0.00273771
-0.00183645
0.00333617
-0.00202074
0.00372533
-0.00227449
0.00394062
-0.00249136
0.00403631
-0.00258822
0.0040656
-0.00255038
0.00406828
-0.00240859
0.00406852
-0.00220681
0.0040778
-0.00198228
0.00409942
-0.00175947
0.00413242
-0.00155166
0.0041741
-0.00136458
0.0042215
-0.00119954
0.00427203
-0.00105565
0.00432367
-0.000931062
0.00437497
-0.000823573
0.00442491
-0.000730899
0.00447285
-0.000650862
0.00451841
-0.000581554
0.00456139
-0.00052136
0.00460172
-0.000468899
0.00463946
-0.000423065
0.00319929
-0.00236196
-0.00254261
0.00373094
-0.0023681
0.00412753
-0.00241733
0.00437121
-0.00251818
0.0044789
-0.00259904
0.00449191
-0.00260123
0.00445495
-0.00251342
0.00440283
-0.00235647
0.00435661
-0.00216059
0.00432585
-0.00195152
0.00431274
-0.00174636
0.00431564
-0.00155456
0.00433139
-0.00138032
0.00435662
-0.00122477
0.00438834
-0.00108737
0.00442411
-0.000966827
0.004462
-0.000861461
0.00450061
-0.000769517
0.00453899
-0.000689239
0.00457647
-0.000619031
0.00461262
-0.000557509
0.00464719
-0.000503474
-0.000455928
0.00446575
-0.00263421
-0.0041935
0.00469532
-0.00259767
0.00486814
-0.00259015
0.00495236
-0.0026024
0.00494787
-0.00259456
0.00488193
-0.00253528
0.00478809
-0.00241958
0.00469285
-0.00226123
0.00461177
-0.00207951
0.00455122
-0.00189097
0.00451178
-0.00170692
0.00449108
-0.00153386
0.00448569
-0.00137494
0.00449213
-0.00123121
0.00450727
-0.00110252
0.00452851
-0.000988067
0.00455378
-0.000886728
0.00458148
-0.000797212
0.00461043
-0.000718187
0.00463978
-0.000648391
0.00466896
-0.000586686
0.00469755
-0.000532064
-0.000483651
0.00548261
-0.00262494
-0.00549188
0.00548285
-0.00259791
0.00546748
-0.00257478
0.00541138
-0.0025463
0.00531172
-0.0024949
0.00518482
-0.00240839
0.00505184
-0.00228661
0.00492935
-0.00213874
0.00482662
-0.00197677
0.00474679
-0.00181114
0.00468914
-0.00164927
0.00465103
-0.00149575
0.00462913
-0.00135304
0.00462016
-0.00122223
0.00462114
-0.0011035
0.00462957
-0.000996493
0.00464337
-0.000900533
0.00466091
-0.000814752
0.00468092
-0.000738199
0.00470245
-0.000669922
0.0047248
-0.000609028
0.00474742
-0.000554693
-0.000506178
0.00617728
-0.0024499
-0.00635232
0.00603132
-0.00245194
0.00589023
-0.00243369
0.00573902
-0.00239509
0.00557664
-0.00233252
0.00541218
-0.00224392
0.0052571
-0.00213153
0.00512006
-0.0020017
0.00500547
-0.00186218
0.00491411
-0.00171979
0.00484451
-0.00157967
0.00479402
-0.00144526
0.00475965
-0.00131868
0.00473847
-0.00120105
0.0047278
-0.00109283
0.00472534
-0.000994032
0.00472914
-0.000904332
0.00473761
-0.000823217
0.00474947
-0.000750059
0.00476372
-0.000684181
0.00477961
-0.000624909
0.00479651
-0.000571599
-0.000523647
0.00657957
-0.00219868
-0.0068308
0.00635888
-0.00223124
0.00615239
-0.0022272
0.00595258
-0.00219528
0.00575985
-0.00213979
0.005579
-0.00206307
0.00541554
-0.00196807
0.00527329
-0.00185945
0.00515372
-0.00174261
0.00505634
-0.00162241
0.0049794
-0.00150273
0.00492049
-0.00138635
0.00487702
-0.0012752
0.00484645
-0.00117048
0.00482647
-0.00107285
0.00481502
-0.000982581
0.00481033
-0.00089964
0.00481091
-0.0008238
0.00481554
-0.000754691
0.00482323
-0.00069187
0.00483318
-0.000634859
0.00484475
-0.000583172
-0.000536338
0.00676784
-0.00192965
-0.00703686
0.00652326
-0.00198666
0.00629525
-0.00199918
0.00608098
-0.00198102
0.00588151
-0.00194032
0.00569937
-0.00188093
0.00553701
-0.00180571
0.00539585
-0.00171829
0.00527599
-0.00162275
0.00517646
-0.00152288
0.00509558
-0.00142184
0.00503129
-0.00132206
0.00498143
-0.00122534
0.00494387
-0.00113293
0.00491664
-0.00104562
0.00489796
-0.000963893
0.00488624
-0.000887923
0.00488014
-0.000817701
0.00487852
-0.000753067
0.00488042
-0.000693768
0.00488505
-0.000639491
0.00489177
-0.000589895
-0.000544626
0.0068214
-0.00167535
-0.0070757
0.00658326
-0.00174853
0.00635999
-0.00177591
0.00615159
-0.00177262
0.00595939
-0.00174811
0.00578492
-0.00170647
0.00562938
-0.00165017
0.00549322
-0.00158213
0.00537613
-0.00150566
0.00527714
-0.00142389
0.00519482
-0.00133952
0.00512751
-0.00125476
0.00507346
-0.00117129
0.00503092
-0.00109038
0.00499823
-0.00101294
0.00497388
-0.00093954
0.00495649
-0.000870532
0.00494485
-0.000806065
0.00493793
-0.000746142
0.00493482
-0.000690663
0.00493478
-0.000639453
0.00493718
-0.000592293
-0.000548935
0.00679972
-0.00144973
-0.00702534
0.00658285
-0.00153166
0.00637731
-0.00157037
0.00618477
-0.00158008
0.00600673
-0.00157007
0.00584443
-0.00154417
0.00569869
-0.00150443
0.00556978
-0.00145322
0.0054574
-0.00139329
0.00536081
-0.0013273
0.00527891
-0.00125762
0.00521041
-0.00118626
0.00515393
-0.00111481
0.00510806
-0.00104452
0.00507144
-0.000976319
0.00504279
-0.000910888
0.00502093
-0.000848672
0.0050048
-0.000789937
0.00499347
-0.000734812
0.00498612
-0.000683314
0.00498205
-0.000635381
0.00498065
-0.000590896
-0.000549703
0.00674072
-0.00125599
-0.00693445
0.00655009
-0.00134104
0.006367
-0.00138728
0.00619396
-0.00140704
0.00603263
-0.00140874
0.00588423
-0.00139577
0.00574959
-0.00136979
0.00562908
-0.00133271
0.0055226
-0.00128681
0.00542969
-0.00123438
0.00534956
-0.0011775
0.00528127
-0.00111797
0.00522376
-0.00105729
0.00517591
-0.00099667
0.00513663
-0.000937038
0.00510485
-0.00087911
0.00507958
-0.000823399
0.0050599
-0.000770256
0.00504498
-0.000719896
0.0050341
-0.000672429
0.0050266
-0.000627882
0.00502192
-0.00058622
-0.000547365
0.00666585
-0.00109202
-0.00682982
0.00650126
-0.00117645
0.00634094
-0.00122695
0.0061877
-0.0012538
0.00604328
-0.00126433
0.00590899
-0.00126147
0.00578575
-0.00124655
0.00567411
-0.00122107
0.00557419
-0.00118689
0.00548578
-0.00114596
0.00540839
-0.00110011
0.00534137
-0.00105095
0.00528392
-0.000999844
0.00523519
-0.000947938
0.0051943
-0.000896148
0.00516038
-0.000845193
0.00513261
-0.000795625
0.00511019
-0.000747844
0.00509243
-0.000702128
0.00507865
-0.000658654
0.00506829
-0.000617518
0.00506082
-0.000578752
-0.00054234
0.00658638
-0.000953843
-0.00672456
0.00644537
-0.00103544
0.00630612
-0.00108771
0.00617142
-0.00111909
0.006043
-0.00113591
0.00592222
-0.00114069
0.00581012
-0.00113445
0.00570737
-0.00111832
0.00561429
-0.00109381
0.00553088
-0.00106256
0.0054569
-0.00102613
0.00539192
-0.000985963
0.00533537
-0.000943295
0.00528662
-0.000899183
0.00524497
-0.000854502
0.00520974
-0.000809963
0.00518024
-0.000766124
0.00515581
-0.000723417
0.00513584
-0.000682158
0.00511976
-0.000642574
0.00510705
-0.000604809
0.00509725
-0.000568948
-0.000535025
0.00650787
-0.000837249
-0.00662447
0.00638729
-0.000914859
0.0062667
-0.000967122
0.00614867
-0.00100105
0.00603487
-0.00102212
0.00592665
-0.00103248
0.0058251
-0.0010329
0.005731
-0.00102421
0.00564478
-0.0010076
0.00556663
-0.000984406
0.00549648
-0.000955977
0.00543407
-0.000923561
0.00537905
-0.000888271
0.00533094
-0.000851074
0.00528923
-0.000812788
0.00525336
-0.000774094
0.00522278
-0.000735547
0.00519695
-0.000697586
0.00517534
-0.000660554
0.00515748
-0.000624704
0.00514289
-0.00059022
0.00513116
-0.000557224
-0.00052579
0.00643288
-0.000738475
-0.00653166
0.00632962
-0.000811599
0.0062252
-0.000862701
0.00612186
-0.000897707
0.00602116
-0.000921418
0.0059244
-0.000935723
0.00583267
-0.000941169
0.00574679
-0.000938326
0.00566729
-0.000928096
0.00559445
-0.000911571
0.00552835
-0.000889879
0.00546889
-0.000864101
0.00541584
-0.000835223
0.00536889
-0.000804118
0.00532764
-0.000771541
0.00529168
-0.000738133
0.00526056
-0.000704431
0.00523385
-0.000670871
0.0052111
-0.000637802
0.00519189
-0.000605499
0.00517584
-0.000574167
0.00516257
-0.000543957
-0.000514972
0.00636246
-0.000654377
-0.00644656
0.00627377
-0.000722907
0.0061832
-0.000772128
0.00609266
-0.000807166
0.00600357
-0.000832331
0.00591715
-0.000849303
0.00583444
-0.000858458
0.00575626
-0.000860147
0.00568319
-0.000855031
0.0056156
-0.000843978
0.00555365
-0.000827924
0.00549734
-0.000807796
0.00544658
-0.000784457
0.00540114
-0.000758687
0.00536078
-0.000731174
0.00532516
-0.000702515
0.00529394
-0.000673215
0.00526677
-0.0006437
0.00524329
-0.000614318
0.00522314
-0.000585349
0.00520599
-0.000557015
0.00519151
-0.000529483
-0.000502879
0.00629692
-0.000582399
-0.0063689
0.00622045
-0.000646438
0.00614169
-0.000693365
0.00606225
-0.000727726
0.00598339
-0.000753473
0.00590622
-0.000772134
0.00583172
-0.000783955
0.00576068
-0.000789108
0.0056937
-0.000788051
0.00563118
-0.000781456
0.00557335
-0.000770092
0.0055203
-0.000754745
0.005472
-0.000736165
0.00542836
-0.000715042
0.00538918
-0.000691997
0.00535424
-0.000667576
0.00532328
-0.000642252
0.00529601
-0.00061643
0.00527214
-0.00059045
0.00525138
-0.000564591
0.00523345
-0.000539081
0.00521806
-0.000514098
-0.000489783
0.0062362
-0.000520478
-0.00629812
0.00617
-0.000580239
0.0061013
-0.000624668
0.00603146
-0.000657888
0.00596158
-0.000683592
0.00589265
-0.000703206
0.00582558
-0.000716876
0.0057611
-0.000724632
0.00569981
-0.000726761
0.00564212
-0.000723771
0.00558832
-0.000716285
0.00553853
-0.000704962
0.00549282
-0.00069045
0.00545113
-0.000673355
0.00541337
-0.00065423
0.00537936
-0.000633572
0.00534893
-0.000611818
0.00532185
-0.000589348
0.00529788
-0.000566486
0.0052768
-0.000543507
0.00525835
-0.000520638
0.00524232
-0.000498063
-0.00047593
0.00618008
-0.000466954
-0.0062336
0.00612254
-0.0005227
0.00606244
-0.000564562
0.0060009
-0.000596349
0.00593888
-0.000621574
0.00587726
-0.000641591
0.00581687
-0.000656478
0.00575838
-0.000666147
0.00570237
-0.000670748
0.00564925
-0.00067065
0.00559931
-0.000666349
0.00555274
-0.000658397
0.00550964
-0.000647345
0.00547001
-0.000633724
0.0054338
-0.000618024
0.00540092
-0.000600691
0.00537123
-0.000582126
0.00534456
-0.000562681
0.00532074
-0.000542663
0.00529957
-0.000522334
0.00528085
-0.000501918
0.00526439
-0.0004816
-0.00046153
0.00612827
-0.000420482
-0.00617474
0.00607806
-0.000472494
0.00602531
-0.000511805
0.00597095
-0.000541992
0.00591581
-0.000566439
0.00586068
-0.000586457
0.00580627
-0.000602071
0.00575323
-0.000613106
0.00570208
-0.000619596
0.00565323
-0.000621797
0.00560698
-0.000620097
0.00556353
-0.000614952
0.00552302
-0.000606831
0.00548549
-0.000596194
0.00545093
-0.000583472
0.00541931
-0.000569066
0.00539052
-0.000553337
0.00536445
-0.000536609
0.00534095
-0.00051917
0.00531989
-0.000501267
0.00530109
-0.000483117
0.00528439
-0.0004649
-0.00044677
0.00608045
-0.000379967
-0.00612097
0.00603648
-0.000428523
0.00599003
-0.000465352
0.00594189
-0.000493857
0.00589278
-0.000517331
0.00584339
-0.000537058
0.00579434
-0.000553028
0.00574623
-0.000564994
0.00569954
-0.000572903
0.00565465
-0.000576911
0.00561187
-0.000577319
0.00557142
-0.000574499
0.00553344
-0.000568849
0.00549801
-0.000560764
0.00546516
-0.000550623
0.00543487
-0.000538781
0.0054071
-0.000525564
0.00538176
-0.000511267
0.00535874
-0.000496156
0.00533794
-0.000480464
0.00531922
-0.000464396
0.00530245
-0.000448127
-0.000431808
0.0060363
-0.000344508
-0.00607176
0.00599766
-0.000389877
0.00595663
-0.000424324
0.0059139
-0.000451124
0.00587007
-0.000473506
0.00582575
-0.000492735
0.0057815
-0.000508778
0.00573784
-0.000521336
0.00569522
-0.000530281
0.005654
-0.000535693
0.00561448
-0.000537795
0.00557687
-0.00053689
0.00554133
-0.000533312
0.00550797
-0.000527402
0.00547683
-0.000519488
0.00544794
-0.000509886
0.00542126
-0.000498885
0.00539675
-0.000486755
0.00537433
-0.000473737
0.00535392
-0.00046005
0.00533541
-0.000445887
0.00531869
-0.000431414
-0.000416779
0.00599553
-0.000313363
-0.00602668
0.00596145
-0.000355798
0.00592511
-0.000387981
0.00588708
-0.000413092
0.00584788
-0.000434314
0.00580805
-0.000452903
0.00576808
-0.000468809
0.00572844
-0.000481693
0.00568953
-0.000491368
0.00565169
-0.000497851
0.0056152
-0.000501302
0.00558027
-0.000501964
0.00554707
-0.000500117
0.00551572
-0.000496052
0.00548629
-0.000490054
0.0054588
-0.000482399
0.00543327
-0.000473348
0.00540965
-0.000463141
0.00538792
-0.000452
0.00536799
-0.000440125
0.0053498
-0.000427697
0.00533326
-0.000414874
-0.000401796
0.00595784
-0.000285914
-0.00598529
0.00592769
-0.000325649
0.00589541
-0.000355695
0.00586148
-0.000379161
0.00582636
-0.000399196
0.0057905
-0.00041705
0.00575436
-0.000432664
0.00571833
-0.000445668
0.00568279
-0.000455828
0.00564805
-0.00046311
0.00561437
-0.000467622
0.00558196
-0.000469557
0.00555099
-0.000469147
0.00552158
-0.00046664
0.00549381
-0.000462283
0.00546773
-0.000456318
0.00544336
-0.000448976
0.00542069
-0.000440471
0.0053997
-0.000431006
0.00538033
-0.000420764
0.00536255
-0.000409911
0.00534627
-0.000398597
-0.000386954
0.00592298
-0.000261644
-0.00594725
0.00589622
-0.000298896
0.00586746
-0.000326934
0.00583712
-0.000348815
0.00580558
-0.000367662
0.00577326
-0.000384724
0.00574053
-0.000399934
0.00570776
-0.000412898
0.00567528
-0.000423349
0.00564338
-0.000431209
0.0056123
-0.000436543
0.00558224
-0.000439502
0.00555338
-0.000440278
0.00552582
-0.000439082
0.00549966
-0.000436126
0.00547496
-0.000431622
0.00545176
-0.000425772
0.00543006
-0.000418771
0.00540985
-0.000410798
0.00539111
-0.000402021
0.00537379
-0.000392594
0.00535785
-0.000382656
-0.000372331
0.00589069
-0.000240122
-0.00591222
0.00586688
-0.000275088
0.0058412
-0.000301246
0.00581399
-0.000321612
0.00578562
-0.000339291
0.00575643
-0.000355529
0.00572675
-0.000370255
0.00569691
-0.00038306
0.00566721
-0.000393647
0.0056379
-0.000401904
0.00560922
-0.000407863
0.00558135
-0.000411637
0.00555446
-0.000413385
0.00552867
-0.000413286
0.00550406
-0.000411521
0.00548071
-0.000408276
0.00545867
-0.000403727
0.00543795
-0.000398048
0.00541855
-0.0003914
0.00540046
-0.000383935
0.00538366
-0.000375795
0.00536811
-0.000367107
-0.000357988
0.00586077
-0.00022098
-0.00587991
0.00583952
-0.000253843
0.00581652
-0.000278243
0.00579208
-0.000297171
0.0057665
-0.000313713
0.00574009
-0.000329115
0.00571314
-0.000343304
0.00568594
-0.000355859
0.00565875
-0.00036646
0.00563182
-0.00037497
0.00560534
-0.000381389
0.00557951
-0.000385803
0.00555447
-0.000388343
0.00553034
-0.000389156
0.00550721
-0.0003884
0.00548517
-0.000386235
0.00546426
-0.000382817
0.00544451
-0.000378298
0.00542594
-0.000372824
0.00540853
-0.000366531
0.00539229
-0.000359549
0.00537718
-0.000351994
-0.000343975
0.00583301
-0.000203912
-0.00585008
0.005814
-0.000234836
0.00579335
-0.000257595
0.00577134
-0.000275161
0.00574824
-0.000290608
0.0057243
-0.000305177
0.00569979
-0.000318795
0.00567496
-0.000331032
0.00565006
-0.000341553
0.00562528
-0.000350197
0.00560084
-0.000356943
0.00557689
-0.000361851
0.00555357
-0.000365027
0.00553101
-0.000366595
0.0055093
-0.00036669
0.00548851
-0.00036545
0.00546871
-0.000363011
0.00544992
-0.000359508
0.00543216
-0.00035507
0.00541545
-0.000349822
0.00539978
-0.000343879
0.00538514
-0.000337348
-0.000330332
0.00580722
-0.000188653
-0.00582248
0.00579018
-0.000217788
0.0057716
-0.000239018
0.00575174
-0.000255299
0.00573082
-0.000269695
0.00570909
-0.000283444
0.00568677
-0.000296472
0.00566408
-0.000308343
0.00564124
-0.00031871
0.00561844
-0.000327395
0.00559585
-0.000334358
0.00557364
-0.000339638
0.00555193
-0.00034332
0.00553084
-0.000345508
0.00551047
-0.000346316
0.00549088
-0.000345864
0.00547214
-0.000344271
0.00545429
-0.000341655
0.00543735
-0.000338131
0.00542134
-0.000333811
0.00540626
-0.000328799
0.0053921
-0.000323193
-0.000317086
0.00578325
-0.00017498
-0.00579693
0.00576793
-0.000202463
0.00575118
-0.000222265
0.00573321
-0.000237338
0.00571425
-0.000250731
0.00569449
-0.000263679
0.00567412
-0.000276109
0.00565336
-0.000287581
0.00563239
-0.000297737
0.00561138
-0.000306389
0.0055905
-0.000313478
0.00556989
-0.000319029
0.00554968
-0.000323106
0.00552997
-0.000325799
0.00551086
-0.000327202
0.00549241
-0.000327419
0.0054747
-0.000326554
0.00545775
-0.000324711
0.00544161
-0.000321992
0.0054263
-0.000318495
0.00541181
-0.000314315
0.00539816
-0.000309542
-0.00030426
0.00576095
-0.000162703
-0.00577323
0.00574714
-0.000188655
0.005732
-0.000207126
0.00571573
-0.000221061
0.0056985
-0.0002335
0.00568049
-0.000245672
0.00566188
-0.000257504
0.00564286
-0.000268554
0.00562358
-0.000278459
0.00560421
-0.000287018
0.00558489
-0.000294161
0.00556576
-0.000299897
0.00554693
-0.000304279
0.00552851
-0.000307377
0.00551058
-0.000309274
0.00549322
-0.000310057
0.00547648
-0.000309818
0.00546042
-0.000308645
0.00544506
-0.000306631
0.00543042
-0.000303863
0.00541654
-0.000300427
0.0054034
-0.000296402
-0.000291866
0.00574018
-0.00575123
0.00572771
-0.000176189
0.005714
-0.000193416
0.00569922
-0.000206281
0.00568354
-0.000217814
0.0056671
-0.000229237
0.00565007
-0.000240477
0.00563261
-0.000251093
0.00561487
-0.000260715
0.00559699
-0.000269135
0.0055791
-0.000276273
0.00556133
-0.000282127
0.00554378
-0.000286735
0.00552656
-0.000290156
0.00550975
-0.000292459
0.00549341
-0.000293718
0.0054776
-0.000294013
0.00546238
-0.000293423
0.00544778
-0.000292026
0.00543382
-0.000289902
0.00542052
-0.000287127
0.00540789
-0.000283774
-0.000279912
0.00570955
0.0056971
0.00568365
0.00566935
0.00565432
0.00563871
0.00562266
0.00560631
0.00558978
0.0055732
0.00555668
0.00554032
0.00552422
0.00550844
0.00549307
0.00547815
0.00546373
0.00544986
0.00543655
0.00542383
0.00541171
0.00209047
0.000149233
-0.00223971
0.00187367
0.000216799
0.00161856
0.000255115
0.00135544
0.000263119
0.00111063
0.000244806
0.000915366
0.000195268
0.000102649
0.00530395
0.000342346
-0.00549706
0.0049861
0.000534655
0.00456959
0.00067162
0.00409017
0.000742535
0.00358323
0.000751746
0.0030726
0.000705899
0.000632645
0.00708639
0.000469001
-0.00721304
0.00684044
0.0007806
0.00647744
0.00103462
0.00601065
0.00120932
0.00546305
0.00129935
0.00485298
0.00131597
0.00129213
0.00775688
0.000518839
-0.00780672
0.00762421
0.000913275
0.00739552
0.00126332
0.00706197
0.00154287
0.00662485
0.00173647
0.00609173
0.00184909
0.00189197
0.00782377
0.000520625
-0.00782556
0.00777425
0.000962795
0.00766211
0.00137546
0.00747074
0.00173424
0.00718777
0.00201943
0.00680891
0.00222796
0.00234856
0.00764907
0.000500628
-0.00762907
0.00764484
0.000967023
0.00760602
0.00141427
0.00751794
0.00182233
0.00736478
0.00217259
0.00713549
0.00245724
0.00265326
0.00741131
0.000473479
-0.00738416
0.00742745
0.000950884
0.00742703
0.00141469
0.00740028
0.00184908
0.00733394
0.00223893
0.00721622
0.00257496
0.00283261
0.00717802
0.000445682
-0.00715022
0.00720192
0.00092698
0.00721957
0.00139704
0.0072255
0.00184315
0.00721044
0.00225398
0.00716508
0.00262033
0.00292198
0.00696834
0.000419963
-0.00694262
0.00699469
0.000900622
0.00702071
0.00137102
0.00704348
0.00182038
0.00705711
0.00224035
0.00705512
0.00262233
0.00295177
0.00678463
0.000396705
-0.00676138
0.00681144
0.000873821
0.00684149
0.00134097
0.00687319
0.00178868
0.00690288
0.00221066
0.0069263
0.0025989
0.00294361
0.00662457
0.000375741
-0.0066036
0.00665111
0.000847278
0.00668323
0.00130884
0.00672
0.00175191
0.00675907
0.00217159
0.0067977
0.00256028
0.00291149
0.00648485
0.000356781
-0.00646589
0.00651092
0.000821207
0.00654419
0.00127557
0.00658406
0.00171204
0.00662897
0.00212669
0.00667711
0.00251214
0.00286404
0.00636238
0.000339535
-0.00634513
0.00638794
0.000795648
0.0064219
0.00124161
0.0064638
0.00167013
0.00651257
0.00207792
0.00656696
0.00245775
0.00280653
0.00625449
0.000323737
-0.00623869
0.00627956
0.000770582
0.00631395
0.00120723
0.00635727
0.00162681
0.00640872
0.00202647
0.00646739
0.00239908
0.00274227
0.00615899
0.000309152
-0.0061444
0.0061836
0.000745972
0.00621825
0.00117258
0.00626257
0.00158249
0.00631594
0.0019731
0.00637765
0.00233737
0.00267336
0.00607406
0.000295584
-0.0060605
0.00609826