/*--------------------------------*- C++ -*----------------------------------*\
| =========                 |                                                 |
| \\      /  F ield         | OpenFOAM: The Open Source CFD Toolbox           |
|  \\    /   O peration     | Version:  2412                                  |
|   \\  /    A nd           | Website:  www.openfoam.com                      |
|    \\/     M anipulation  |                                                 |
\*---------------------------------------------------------------------------*/
FoamFile
{
    version     2.0;
    format      ascii;
    arch        "LSB;label=32;scalar=64";
    class       volVectorField;
    location    "1";
    object      U;
}
// * * * * * * * * * * * * * * * * * * * * * * * * * * * * * * * * * * * * * //

dimensions      [0 1 -1 0 0 0 0];

internalField   nonuniform List<vector> 
5285
(
(0.0942356 0.000157408 9.53237e-23)
(0.0939286 0.000171512 -1.08694e-23)
(0.0935957 0.000186536 1.10725e-23)
(0.0932352 0.000202688 -1.12881e-23)
(0.0928448 0.000220217 0)
(0.092422 0.000239467 1.17601e-23)
(0.0919632 0.000260824 -1.20189e-23)
(0.0914644 0.000284548 0)
(0.0909212 0.000310952 -1.25876e-23)
(0.0903287 0.000340307 0)
(0.0896814 0.000372838 -1.32339e-23)
(0.0889738 0.000409015 -2.20709e-22)
(0.0881989 0.000449712 2.34345e-22)
(0.087348 0.00049596 -2.33902e-22)
(0.0864102 0.000548924 2.33546e-22)
(0.0853725 0.000609903 0)
(0.0842196 0.000680054 0)
(0.0829347 0.000760762 2.83538e-22)
(0.0814978 0.000854375 -2.66757e-22)
(0.0798837 0.000964066 0)
(0.078061 0.00109387 0)
(0.0759907 0.00124869 0)
(0.0736245 0.00143465 0)
(0.0709025 0.00165978 0)
(0.0677488 0.00193489 0)
(0.0640642 0.00227419 0)
(0.0597186 0.00269543 0)
(0.0545714 0.0032215 0)
(0.048445 0.00387616 -2.74587e-23)
(0.0409425 0.0046746 -9.689e-22)
(0.0318824 0.00556144 9.6745e-22)
(0.0217635 0.00621928 1.095e-21)
(0.00951575 0.00592757 -1.09336e-21)
(0.00285766 0.0030878 0)
(0.0941835 0.000473472 3.34826e-22)
(0.093877 0.000515463 -3.55935e-22)
(0.0935448 0.000560216 -3.32739e-23)
(0.0931852 0.000608398 1.13128e-23)
(0.0927961 0.000660769 0)
(0.0923748 0.000718343 -1.17906e-23)
(0.0919178 0.000782279 -3.78308e-22)
(0.091421 0.000853304 7.89409e-22)
(0.0908802 0.000932365 4.32356e-22)
(0.0902902 0.00102022 -8.17671e-22)
(0.0896457 0.00111743 8.75302e-22)
(0.0889417 0.00122543 -8.88141e-22)
(0.0881713 0.00134694 -1.40283e-23)
(0.0873255 0.00148516 0)
(0.0863939 0.00164364 0)
(0.0853634 0.00182639 0)
(0.084219 0.00203683 0)
(0.0829447 0.00227908 -1.64559e-23)
(0.0815214 0.00256013 -1.11376e-21)
(0.0799244 0.00288928 -4.58872e-23)
(0.0781234 0.00327858 1.15663e-21)
(0.0760808 0.00374268 1.2599e-21)
(0.0737506 0.00429981 -1.25823e-21)
(0.071076 0.00497383 -4.20048e-23)
(0.0679855 0.00579676 -4.40736e-23)
(0.0643845 0.00681036 -1.53185e-21)
(0.0601515 0.008067 1.481e-21)
(0.055156 0.00963436 -5.15472e-23)
(0.0492286 0.0115808 2.76506e-23)
(0.041999 0.0139464 -1.98175e-21)
(0.0332909 0.0165538 1.98243e-21)
(0.0235094 0.0184402 -4.30736e-21)
(0.0113958 0.0174672 4.23446e-21)
(0.00369604 0.00899697 -4.40859e-21)
(0.0940653 0.000785981 3.44857e-23)
(0.0937592 0.000854927 -6.92089e-22)
(0.093428 0.000928723 2.22673e-23)
(0.0930699 0.00100841 -7.34603e-22)
(0.0926829 0.00109514 7.57084e-22)
(0.0922643 0.00119057 -7.66951e-22)
(0.0918105 0.00129663 7.90444e-22)
(0.0913174 0.00141444 2.47879e-23)
(0.0907809 0.00154576 -2.53949e-23)
(0.0901955 0.00169187 2.60404e-23)
(0.0895564 0.00185351 -8.67678e-22)
(0.0888593 0.00203305 8.94335e-22)
(0.0880973 0.00223533 9.46342e-22)
(0.0872618 0.00246563 -9.17229e-22)
(0.0863427 0.0027298 0)
(0.0853271 0.00303407 0)
(0.0842004 0.00338378 3.20108e-23)
(0.0829481 0.00378635 2.19648e-21)
(0.0815524 0.00425423 4.97847e-23)
(0.0799901 0.0048027 -2.20763e-21)
(0.0782331 0.00545126 0)
(0.0762472 0.00622381 -3.86702e-23)
(0.0739908 0.00715009 2.6944e-21)
(0.0714137 0.00826906 -5.38998e-21)
(0.0684525 0.00963243 5.74274e-21)
(0.0650231 0.0113075 2.00411e-22)
(0.0610224 0.0133794 -3.01866e-21)
(0.0563392 0.0159565 -3.3607e-21)
(0.0508222 0.0191432 3.46371e-21)
(0.0441483 0.0229846 1.85473e-24)
(0.0361309 0.0271455 -6.17132e-23)
(0.0269825 0.0299899 4.21719e-21)
(0.0150405 0.0280334 -4.08347e-21)
(0.00524945 0.0141936 -4.13134e-21)
(0.0938545 0.00110063 -7.03756e-22)
(0.0935486 0.00119675 1.94878e-26)
(0.0932182 0.00129984 0)
(0.0928614 0.00141123 -7.16003e-22)
(0.0924763 0.00153248 7.38563e-22)
(0.0920606 0.00166604 0)
(0.0916104 0.00181493 -1.58153e-21)
(0.091122 0.00198043 1.55596e-21)
(0.0905914 0.00216506 2.56365e-23)
(0.0900127 0.00237016 -1.02022e-26)
(0.0893814 0.00259689 2.70004e-23)
(0.0886942 0.00284947 0)
(0.0879443 0.00313501 -2.07776e-26)
(0.0871232 0.00346037 0)
(0.0862215 0.00383277 -3.03534e-23)
(0.0852264 0.00425961 2.04245e-21)
(0.0841252 0.00474778 -2.04177e-21)
(0.0829069 0.00530889 -3.36309e-23)
(0.0815542 0.0059621 6.96692e-23)
(0.0800452 0.00672907 -2.39962e-21)
(0.0783559 0.00763573 2.32497e-21)
(0.0764573 0.0087138 3.93384e-23)
(0.0743149 0.0100035 -3.16414e-25)
(0.0718883 0.011558 4.25759e-23)
(0.0691261 0.0134474 -2.93951e-21)
(0.0659625 0.015765 5.97401e-21)
(0.0623235 0.0186284 -3.1305e-21)
(0.0581286 0.0221753 3.34279e-21)
(0.0532563 0.0265265 -3.50087e-21)
(0.0474375 0.0316938 -7.29152e-21)
(0.0404309 0.037135 1.50633e-20)
(0.0321366 0.0405098 -7.72125e-21)
(0.0203749 0.0370598 0)
(0.00743909 0.0183353 -7.43806e-21)
(0.0935376 0.00142433 0)
(0.0932304 0.00154711 -6.91317e-22)
(0.0928996 0.00167902 7.3624e-22)
(0.092543 0.0018217 -2.30263e-23)
(0.0921592 0.00197711 -1.54722e-21)
(0.0917463 0.00214856 1.52437e-21)
(0.0912998 0.00234011 -2.46766e-23)
(0.0908165 0.00255287 0)
(0.0902925 0.0027896 0)
(0.0897212 0.00305101 -1.75502e-21)
(0.0890999 0.00333867 1.70177e-21)
(0.088426 0.00365982 0)
(0.0876916 0.00402424 -5.80114e-23)
(0.0868879 0.00443953 0)
(0.0860065 0.00491381 3.08859e-23)
(0.0850352 0.00545777 -3.18798e-23)
(0.083965 0.00608318 -3.30335e-23)
(0.0827902 0.00680425 3.41413e-23)
(0.0814948 0.00764208 2.24099e-21)
(0.0800575 0.0086235 -2.31293e-21)
(0.078459 0.0097806 5.0398e-21)
(0.0766777 0.0111524 -5.04338e-21)
(0.0746897 0.0127891 5.39536e-21)
(0.0724677 0.0147571 1.94155e-22)
(0.0699804 0.0171431 -5.72493e-21)
(0.0671906 0.0200629 -4.68629e-23)
(0.0640597 0.0236652 1.29267e-24)
(0.0605456 0.0281137 1.79097e-24)
(0.0565763 0.0335302 2.50194e-24)
(0.0519428 0.0398482 -1.10219e-22)
(0.0462879 0.0462659 -5.35425e-23)
(0.0390344 0.0497415 -5.25372e-23)
(0.0274168 0.0442733 0)
(0.0102201 0.0211755 1.31349e-23)
(0.0931626 0.00171988 -4.86921e-23)
(0.0928542 0.00186637 1.38722e-21)
(0.092523 0.00202453 1.42487e-21)
(0.0921671 0.00219617 3.21252e-23)
(0.0917853 0.00238344 -1.50679e-21)
(0.0913759 0.00258982 0)
(0.0909332 0.00281956 0)
(0.0904548 0.00307406 -1.66331e-21)
(0.0899368 0.00335765 1.63943e-21)
(0.089372 0.00367425 1.75698e-21)
(0.0887611 0.00402588 -1.75958e-21)
(0.0881026 0.00441881 0)
(0.0873858 0.00486358 1.95062e-21)
(0.0866021 0.00537012 -1.95438e-21)
(0.0857464 0.00594789 0)
(0.0848099 0.00661012 -4.20973e-21)
(0.083785 0.00737363 4.24868e-21)
(0.0826655 0.00825589 -3.50022e-23)
(0.0814376 0.00927931 -4.69319e-21)
(0.0800865 0.0104747 4.73662e-21)
(0.0786 0.0118797 0)
(0.0769661 0.0135404 5.3654e-21)
(0.0751739 0.0155149 -5.33255e-21)
(0.0732132 0.0178796 4.39645e-23)
(0.0710788 0.0207333 6.06149e-21)
(0.0687736 0.0242045 -1.22744e-20)
(0.0663122 0.0284547 -1.14286e-22)
(0.063718 0.0336549 -1.29496e-22)
(0.0609965 0.039896 6.78288e-21)
(0.058006 0.0469636 4.591e-24)
(0.0542157 0.05373 -6.554e-21)
(0.0483587 0.0566122 6.71938e-21)
(0.036701 0.0487659 0)
(0.0138833 0.022208 6.54318e-23)
(0.0928952 0.00209671 -5.31472e-24)
(0.0925887 0.0022719 1.44803e-21)
(0.0922607 0.00246119 2.30332e-23)
(0.0919091 0.00266644 0)
(0.0915329 0.00288978 0)
(0.0911291 0.00313498 -1.60498e-21)
(0.0906915 0.00340857 1.60904e-21)
(0.090221 0.00371523 0)
(0.0897168 0.00405701 2.68751e-23)
(0.0891703 0.00443961 0)
(0.0885795 0.0048674 -1.84587e-21)
(0.0879426 0.00534558 3.75381e-21)
(0.0872511 0.00588479 -1.90806e-21)
(0.0864988 0.0064983 -4.02906e-21)
(0.0856824 0.0071983 -1.2922e-22)
(0.0847958 0.00799956 -1.37757e-22)
(0.0838327 0.00892105 -1.47005e-22)
(0.0827876 0.00998416 4.51599e-21)
(0.0816517 0.0112161 4.85222e-21)
(0.0804176 0.0126528 -4.86381e-21)
(0.0790813 0.0143375 0)
(0.0776412 0.016323 5.45316e-21)
(0.0761006 0.018674 -5.46587e-21)
(0.0744694 0.0214729 -5.93613e-21)
(0.0727724 0.0248241 5.90404e-21)
(0.0710591 0.0288539 4.91249e-23)
(0.0694107 0.0336998 6.41347e-21)
(0.0679424 0.0394649 6.93798e-23)
(0.0667695 0.0460833 -6.61454e-21)
(0.0658425 0.0530154 5.27702e-23)
(0.0645277 0.0586605 0)
(0.0609428 0.0592791 -4.6575e-23)
(0.0500151 0.0486522 -3.19633e-21)
(0.0212583 0.0208726 7.83054e-22)
(-0.00106135 0.00115298 0)
(-0.00339745 0.000673525 3.238e-22)
(-0.00254989 -0.00148527 -3.24284e-22)
(0.00239989 -0.0037019 -2.57811e-22)
(0.0105278 -0.00502342 2.58198e-22)
(0.0200536 -0.00539683 -6.22791e-24)
(0.0295635 -0.00514433 0)
(0.0382752 -0.00458954 0)
(0.0459005 -0.00395049 0)
(0.0524167 -0.00334291 0)
(0.0579265 -0.00281272 0)
(0.0625767 -0.00236847 0)
(0.0665127 -0.00200314 0)
(0.0698617 -0.00170539 0)
(0.0727314 -0.00146289 0)
(0.0752091 -0.0012643 4.38691e-23)
(0.0773635 -0.00110051 -4.11845e-23)
(0.0792494 -0.00096442 0)
(0.080911 -0.000850395 0)
(0.0823834 -0.000753747 -4.1912e-23)
(0.0836939 -0.000671199 4.19761e-23)
(0.0848652 -0.00060048 -3.81102e-23)
(-0.00106861 0.00318235 -1.33891e-21)
(-0.00272597 0.00164502 -1.41925e-21)
(-0.000595613 -0.0045841 1.39717e-21)
(0.00524104 -0.010946 -5.34298e-22)
(0.013622 -0.0148009 5.38109e-22)
(0.0229125 -0.0159227 6.27062e-24)
(0.0319676 -0.0152043 -1.13065e-23)
(0.0401937 -0.0135877 -2.75671e-22)
(0.0473861 -0.0117152 2.66562e-22)
(0.0535496 -0.00992895 -7.35317e-24)
(0.0587875 -0.00836642 -6.7972e-24)
(0.0632347 -0.00705438 1.94555e-22)
(0.0670207 -0.0059728 -1.94816e-22)
(0.0702589 -0.00508893 -1.84931e-22)
(0.0730472 -0.00436736 3.28008e-24)
(0.0754647 -0.00377554 1.82141e-22)
(0.0775741 -0.00328694 -2.76483e-24)
(0.0794257 -0.00288065 -5.57777e-24)
(0.0810611 -0.00254002 0)
(0.0825134 -0.00225109 0)
(0.083808 -0.00200422 0)
(0.0849666 -0.00179286 -2.58468e-24)
(-0.00099912 0.00433903 -1.60618e-21)
(-0.00120303 0.00154325 1.61042e-21)
(0.0034659 -0.00797458 -1.56199e-21)
(0.0109335 -0.017779 -2.01889e-23)
(0.0196697 -0.0238523 -2.30887e-24)
(0.0284579 -0.0256989 -8.46083e-22)
(0.0366206 -0.024623 8.74374e-22)
(0.0438981 -0.0220913 6.1423e-22)
(0.0502472 -0.0191233 -6.60739e-23)
(0.0557257 -0.0162686 -1.00199e-21)
(0.0604363 -0.0137546 9.316e-22)
(0.0644909 -0.0116316 -4.38413e-22)
(0.0679879 -0.00987263 -6.7396e-24)
(0.071013 -0.00842742 0)
(0.0736435 -0.00724145 3.89334e-22)
(0.075944 -0.00626498 -1.4331e-23)
(0.0779655 -0.00545679 -3.69612e-22)
(0.0797501 -0.00478386 1.14594e-23)
(0.0813342 -0.00421973 0)
(0.0827472 -0.00374081 0)
(0.0840106 -0.0033306 1.71458e-22)
(0.0851441 -0.0029786 -1.66243e-22)
(-0.000526465 0.00408296 -3.97588e-21)
(0.00179275 1.59088e-05 0)
(0.00987199 -0.0117547 3.34068e-21)
(0.0193386 -0.0239796 -6.30412e-21)
(0.0284117 -0.031714 2.97986e-21)
(0.0363999 -0.0341997 9.84502e-22)
(0.0432563 -0.0329366 -1.0358e-21)
(0.0491662 -0.0297388 7.12676e-22)
(0.0543095 -0.0259119 -1.34074e-21)
(0.0588132 -0.0221791 6.18405e-22)
(0.0627734 -0.0188532 8.77837e-24)
(0.066267 -0.0160183 8.34647e-25)
(0.0693499 -0.0136528 6.85512e-24)
(0.0720687 -0.0116957 -4.35322e-22)
(0.074471 -0.0100781 4.2199e-22)
(0.0765998 -0.00873789 1.27669e-23)
(0.0784912 -0.00762349 -6.04119e-24)
(0.0801754 -0.00669284 3.81983e-22)
(0.0816826 -0.00591147 -3.81847e-22)
(0.0830377 -0.00524747 -5.88506e-24)
(0.0842562 -0.00467739 0)
(0.0853534 -0.00418589 1.57602e-25)
(0.00106248 0.002133 -5.29497e-24)
(0.00726649 -0.00355973 -3.82804e-23)
(0.0187939 -0.016183 -3.43326e-23)
(0.0302156 -0.0292722 -3.05669e-23)
(0.0393864 -0.0378617 -4.98156e-23)
(0.046247 -0.0408577 -2.96893e-24)
(0.0514584 -0.0396374 1.607e-23)
(0.0556866 -0.0361068 -1.58542e-23)
(0.0593542 -0.0317317 -1.35421e-23)
(0.0626643 -0.027369 1.28722e-21)
(0.0656991 -0.023417 -1.46771e-22)
(0.0684898 -0.0200052 -1.1791e-21)
(0.0710459 -0.0171299 9.97294e-22)
(0.0733722 -0.01473 -9.98316e-22)
(0.0754801 -0.0127309 4.53701e-22)
(0.0773855 -0.011064 -4.6751e-22)
(0.0791057 -0.00967034 6.96225e-24)
(0.0806568 -0.00850016 -6.30949e-24)
(0.0820606 -0.00751214 -6.47105e-24)
(0.0833375 -0.00667217 5.98782e-24)
(0.0844963 -0.00595383 0)
(0.0855457 -0.00533521 -1.15859e-23)
(0.0864985 -0.00479845 0)
(0.00419219 -0.00152827 8.48323e-23)
(0.0162156 -0.00922999 -3.94239e-24)
(0.0306405 -0.0209796 -4.45923e-21)
(0.0430032 -0.0333314 4.55823e-21)
(0.0516577 -0.0420128 -3.10819e-24)
(0.0571151 -0.0455326 -2.87953e-21)
(0.0605592 -0.0447757 4.44416e-22)
(0.0630208 -0.0414145 4.0113e-22)
(0.0651211 -0.0369092 3.92571e-21)
(0.0671354 -0.0322096 -1.80467e-21)
(0.0691415 -0.0278148 2.34511e-23)
(0.0711328 -0.0239284 1.28206e-21)
(0.0730753 -0.0205917 -1.27134e-21)
(0.0749339 -0.0177674 0)
(0.0766846 -0.0153908 -1.0283e-21)
(0.0783156 -0.0133938 1.0343e-21)
(0.0798247 -0.0117142 -7.13673e-24)
(0.0812127 -0.010297 -8.90238e-22)
(0.0824865 -0.00909553 8.95569e-22)
(0.0836573 -0.00807323 -6.75705e-24)
(0.084731 -0.00719993 3.99472e-22)
(0.0857139 -0.0064479 -3.86608e-22)
(0.086613 -0.00579533 0)
(0.0102559 -0.00597856 -1.13707e-20)
(0.0292248 -0.0159278 6.3645e-21)
(0.0446939 -0.0257257 -4.11506e-23)
(0.056159 -0.0359819 0)
(0.0634458 -0.0439435 3.19194e-23)
(0.0674248 -0.0478992 3.41912e-21)
(0.0693802 -0.0479879 -4.75393e-22)
(0.0704095 -0.0453394 -2.97585e-21)
(0.0711951 -0.0412137 1.71748e-23)
(0.072056 -0.0365755 -1.93338e-21)
(0.0730873 -0.0320165 1.91537e-21)
(0.0742764 -0.0278359 1.53093e-21)
(0.0755704 -0.0241474 -1.52708e-21)
(0.0769114 -0.0209612 0)
(0.0782516 -0.0182394 1.17807e-21)
(0.0795579 -0.0159267 -1.17513e-21)
(0.0808097 -0.0139651 -1.03631e-21)
(0.0819942 -0.0123003 5.18534e-23)
(0.083105 -0.0108824 4.4241e-23)
(0.0841423 -0.00967047 4.54711e-23)
(0.0851069 -0.00863027 8.92078e-22)
(0.0860006 -0.00773225 4.05815e-22)
(0.0868266 -0.00695305 -8.08145e-22)
(0.0243023 -0.0212597 0)
(0.0442054 -0.0262518 0)
(0.0585168 -0.0315051 0)
(0.0677807 -0.0382395 0)
(0.0731961 -0.0442458 0)
(0.0758188 -0.0475948 0)
(0.0767394 -0.0478498 0)
(0.0768722 -0.0456419 0)
(0.0768153 -0.041952 0)
(0.0768777 -0.037639 0)
(0.0771722 -0.0332801 0)
(0.0777031 -0.0291938 0)
(0.0784264 -0.025521 0)
(0.079284 -0.0222973 0)
(0.0802219 -0.0195053 0)
(0.0811964 -0.0171054 0)
(0.0821754 -0.0150496 0)
(0.0831361 -0.0132901 0)
(0.0840629 -0.0117809 0)
(0.0849477 -0.0104821 0)
(0.0857851 -0.00936037 0)
(0.0865727 -0.00838787 0)
(0.0873102 -0.00754259 0)
(0.0879991 -0.00680512 0)
(0.0523084 -0.0406104 0)
(0.0653567 -0.041305 0)
(0.0750782 -0.0430155 0)
(0.0810874 -0.0460779 0)
(0.0842056 -0.0487403 0)
(0.0851077 -0.0495894 0)
(0.0846612 -0.0483428 0)
(0.0836725 -0.0454749 0)
(0.0826709 -0.0416803 0)
(0.0819212 -0.0375514 0)
(0.0815112 -0.0334787 0)
(0.0814306 -0.0296756 0)
(0.0816254 -0.0262355 0)
(0.0820297 -0.0231816 0)
(0.0825821 -0.0205007 0)
(0.0832309 -0.0181633 0)
(0.0839352 -0.0161329 0)
(0.0846641 -0.0143714 0)
(0.0853954 -0.0128415 0)
(0.0861146 -0.0115098 0)
(0.086812 -0.0103475 0)
(0.0874813 -0.00933043 0)
(0.0881191 -0.00843846 0)
(0.0802608 -0.049015 0)
(0.0862291 -0.0483618 0)
(0.0908185 -0.0484655 0)
(0.0932687 -0.049239 0)
(0.0939133 -0.049652 0)
(0.0930872 -0.0489 0)
(0.0914117 -0.0468394 0)
(0.0895141 -0.0437833 0)
(0.0877969 -0.0401776 0)
(0.0864463 -0.0364042 0)
(0.0855096 -0.0327188 0)
(0.0849581 -0.0292656 0)
(0.0847302 -0.0261115 0)
(0.0847574 -0.023276 0)
(0.0849759 -0.0207531 0)
(0.0853315 -0.0185237 0)
(0.0857802 -0.0165619 0)
(0.0862875 -0.0148391 0)
(0.0868275 -0.0133264 0)
(0.0873818 -0.0119968 0)
(0.0879374 -0.0108265 0)
(0.0884849 -0.00979457 0)
(0.0890182 -0.00888333 0)
(0.102649 -0.0506748 0)
(0.103374 -0.0499424 0)
(0.10367 -0.0495016 0)
(0.103 -0.049153 0)
(0.10148 -0.048398 0)
(0.099249 -0.0468721 0)
(0.096688 -0.0445377 0)
(0.0942042 -0.0415998 0)
(0.0920474 -0.0383361 0)
(0.0903196 -0.0349875 0)
(0.0890311 -0.0317214 0)
(0.0881425 -0.0286383 0)
(0.0875927 -0.0257898 0)
(0.0873169 -0.0231955 0)
(0.0872552 -0.0208561 0)
(0.0873556 -0.0187613 0)
(0.0875749 -0.0168943 0)
(0.0878782 -0.0152352 0)
(0.0882384 -0.0137624 0)
(0.0886349 -0.0124553 0)
(0.0890525 -0.0112948 0)
(0.0894796 -0.0102636 0)
(0.0899079 -0.00934639 0)
(0.117781 -0.0484211 0)
(0.115305 -0.0481756 0)
(0.112703 -0.0477268 0)
(0.109897 -0.0469913 0)
(0.106925 -0.0458043 0)
(0.1038 -0.0440631 0)
(0.100723 -0.0417988 0)
(0.0979253 -0.0391526 0)
(0.0955359 -0.0362997 0)
(0.0935935 -0.0333937 0)
(0.0920838 -0.0305469 0)
(0.0909636 -0.0278321 0)
(0.090177 -0.0252915 0)
(0.0896662 -0.022946 0)
(0.0893777 -0.0208018 0)
(0.0892643 -0.0188561 0)
(0.0892857 -0.0170997 0)
(0.0894086 -0.0155201 0)
(0.0896062 -0.0141025 0)
(0.0898573 -0.012832 0)
(0.0901454 -0.0116937 0)
(0.0904578 -0.0106738 0)
(0.0907845 -0.00975979 0)
(0.126417 -0.0440531 0)
(0.122353 -0.0444171 0)
(0.118202 -0.0441992 0)
(0.114281 -0.0434902 0)
(0.110587 -0.0423229 0)
(0.107054 -0.040721 0)
(0.103772 -0.0387405 0)
(0.100865 -0.0364828 0)
(0.0983888 -0.0340654 0)
(0.0963457 -0.0315932 0)
(0.0947092 -0.0291475 0)
(0.0934381 -0.0267854 0)
(0.0924835 -0.0245444 0)
(0.091796 -0.0224466 0)
(0.0913293 -0.0205029 0)
(0.0910418 -0.0187162 0)
(0.0908973 -0.0170837 0)
(0.0908651 -0.0155987 0)
(0.0909198 -0.0142521 0)
(0.0910406 -0.0130335 0)
(0.0912107 -0.0119321 0)
(0.0914168 -0.0109375 0)
(0.0916483 -0.0100394 0)
(0.130339 -0.0389471 0)
(0.125776 -0.0398384 0)
(0.121077 -0.0399333 0)
(0.116797 -0.0394506 0)
(0.112914 -0.0385264 0)
(0.109322 -0.0372309 0)
(0.106053 -0.035622 0)
(0.103176 -0.0337762 0)
(0.100711 -0.0317797 0)
(0.0986457 -0.0297115 0)
(0.0969503 -0.027636 0)
(0.095589 -0.0256019 0)
(0.0945211 -0.023644 0)
(0.0937052 -0.0217855 0)
(0.0931024 -0.0200406 0)
(0.0926768 -0.0184165 0)
(0.0923968 -0.016915 0)
(0.0922345 -0.0155342 0)
(0.0921667 -0.0142693 0)
(0.0921735 -0.013114 0)
(0.0922387 -0.0120608 0)
(0.0923489 -0.0111021 0)
(0.092493 -0.0102302 0)
(0.131319 -0.0339193 0)
(0.126891 -0.0351885 0)
(0.122254 -0.0355883 0)
(0.118068 -0.0353934 0)
(0.114312 -0.0347814 0)
(0.110867 -0.0338334 0)
(0.107741 -0.0326003 0)
(0.104979 -0.0311432 0)
(0.102589 -0.0295303 0)
(0.100554 -0.0278258 0)
(0.0988482 -0.0260842 0)
(0.0974428 -0.024349 0)
(0.0963047 -0.022653 0)
(0.0954004 -0.0210202 0)
(0.0946974 -0.0194668 0)
(0.0941656 -0.018003 0)
(0.0937775 -0.0166341 0)
(0.0935087 -0.0153617 0)
(0.0933381 -0.0141845 0)
(0.0932473 -0.0130993 0)
(0.093221 -0.0121016 0)
(0.0932461 -0.0111863 0)
(0.0933118 -0.0103477 0)
(0.130687 -0.029364 0)
(0.126692 -0.0308586 0)
(0.122425 -0.0315052 0)
(0.118557 -0.0315802 0)
(0.115082 -0.0312662 0)
(0.111886 -0.0306406 0)
(0.10897 -0.0297464 0)
(0.10637 -0.028633 0)
(0.104092 -0.0273567 0)
(0.102123 -0.025972 0)
(0.100442 -0.0245264 0)
(0.0990275 -0.0230594 0)
(0.0978535 -0.0216022 0)
(0.0968932 -0.0201786 0)
(0.0961202 -0.0188062 0)
(0.0955095 -0.0174969 0)
(0.0950378 -0.0162586 0)
(0.0946837 -0.0150954 0)
(0.0944286 -0.0140086 0)
(0.0942558 -0.0129976 0)
(0.0941511 -0.0120604 0)
(0.0941021 -0.0111938 0)
(0.0940984 -0.0103941 0)
(0.129288 -0.025412 0)
(0.125818 -0.0270081 0)
(0.122031 -0.0278283 0)
(0.118565 -0.0281214 0)
(0.115429 -0.0280566 0)
(0.112519 -0.0277029 0)
(0.10984 -0.0270954 0)
(0.107424 -0.0262739 0)
(0.10528 -0.0252857 0)
(0.1034 -0.0241773 0)
(0.101769 -0.0229907 0)
(0.100371 -0.0217617 0)
(0.0991881 -0.0205196 0)
(0.098198 -0.0192877 0)
(0.0973801 -0.0180837 0)
(0.0967137 -0.0169209 0)
(0.0961794 -0.0158087 0)
(0.0957589 -0.0147528 0)
(0.0954358 -0.0137569 0)
(0.0951954 -0.0128221 0)
(0.0950246 -0.0119482 0)
(0.0949121 -0.011134 0)
(0.094848 -0.0103772 0)
(0.127592 -0.0220537 0)
(0.124634 -0.023665 0)
(0.121336 -0.0245912 0)
(0.118278 -0.025044 0)
(0.115485 -0.0251719 0)
(0.112867 -0.0250347 0)
(0.110427 -0.0246602 0)
(0.108203 -0.0240804 0)
(0.106204 -0.0233343 0)
(0.104426 -0.0224616 0)
(0.102863 -0.0214992 0)
(0.101502 -0.0204794 0)
(0.100329 -0.0194292 0)
(0.0993305 -0.0183708 0)
(0.0984879 -0.0173219 0)
(0.0977853 -0.016296 0)
(0.0972063 -0.0153035 0)
(0.0967358 -0.0143515 0)
(0.0963595 -0.0134448 0)
(0.0960645 -0.0125861 0)
(0.0958391 -0.0117768 0)
(0.095673 -0.0110169 0)
(0.095557 -0.0103056 0)
(0.12584 -0.0192213 0)
(0.123337 -0.0207943 0)
(0.120487 -0.0217731 0)
(0.117811 -0.0223327 0)
(0.115342 -0.0226013 0)
(0.113 -0.0226297 0)
(0.110793 -0.0224398 0)
(0.108757 -0.0220563 0)
(0.106906 -0.0215108 0)
(0.10524 -0.0208371 0)
(0.103754 -0.0200671 0)
(0.102444 -0.0192295 0)
(0.101298 -0.018349 0)
(0.100306 -0.0174464 0)
(0.0994557 -0.0165386 0)
(0.0987327 -0.0156394 0)
(0.0981244 -0.0147591 0)
(0.097618 -0.0139059 0)
(0.0972014 -0.0130854 0)
(0.0968634 -0.0123015 0)
(0.0965938 -0.0115565 0)
(0.0963832 -0.0108517 0)
(0.0962234 -0.0101872 0)
(0.124143 -0.0168333 0)
(0.122028 -0.0183386 0)
(0.119571 -0.019331 0)
(0.117236 -0.0199551 0)
(0.115061 -0.0203208 0)
(0.112974 -0.020472 0)
(0.110986 -0.0204251 0)
(0.109131 -0.0201987 0)
(0.107426 -0.0198179 0)
(0.105873 -0.0193106 0)
(0.104472 -0.0187043 0)
(0.103221 -0.0180242 0)
(0.102114 -0.0172927 0)
(0.101142 -0.0165287 0)
(0.100296 -0.0157484 0)
(0.0995653 -0.0149649 0)
(0.0989402 -0.0141888 0)
(0.0984099 -0.0134285 0)
(0.0979642 -0.0126902 0)
(0.0975935 -0.0119785 0)
(0.097289 -0.0112965 0)
(0.0970423 -0.0106464 0)
(0.096846 -0.0100292 0)
(0.122548 -0.0148142 0)
(0.120758 -0.0162379 0)
(0.118637 -0.0172172 0)
(0.116601 -0.0178733 0)
(0.114686 -0.0183021 0)
(0.11283 -0.0185414 0)
(0.111043 -0.0186033 0)
(0.109359 -0.018501 0)
(0.107794 -0.0182538 0)
(0.106354 -0.0178846 0)
(0.105042 -0.0174167 0)
(0.103856 -0.0168719 0)
(0.102795 -0.0162702 0)
(0.101851 -0.0156287 0)
(0.10102 -0.0149625 0)
(0.100293 -0.0142841 0)
(0.0996611 -0.0136038 0)
(0.0991169 -0.0129299 0)
(0.0986516 -0.012269 0)
(0.0982571 -0.0116262 0)
(0.0979259 -0.0110052 0)
(0.0976506 -0.0104087 0)
(0.0974246 -0.0098382 0)
(0.12107 -0.0130992 0)
(0.11955 -0.0144363 0)
(0.117713 -0.0153855 0)
(0.115935 -0.0160504 0)
(0.114251 -0.0165163 0)
(0.112601 -0.0168165 0)
(0.110997 -0.0169596 0)
(0.109471 -0.016954 0)
(0.10804 -0.0168143 0)
(0.10671 -0.0165589 0)
(0.105486 -0.0162071 0)
(0.104369 -0.0157778 0)
(0.103358 -0.0152884 0)
(0.10245 -0.0147546 0)
(0.101641 -0.01419 0)
(0.100924 -0.0136062 0)
(0.100295 -0.0130132 0)
(0.0997448 -0.012419 0)
(0.099268 -0.0118305 0)
(0.0988574 -0.0112528 0)
(0.0985066 -0.01069 0)
(0.0982093 -0.0101451 0)
(0.0979596 -0.00962039 0)
(0.119708 -0.0116349 0)
(0.118412 -0.0128858 0)
(0.116817 -0.0137946 0)
(0.115261 -0.0144522 0)
(0.113778 -0.0149361 0)
(0.112312 -0.0152763 0)
(0.110873 -0.0154784 0)
(0.109492 -0.0155473 0)
(0.108186 -0.0154934 0)
(0.106961 -0.0153309 0)
(0.105823 -0.015076 0)
(0.104775 -0.0147447 0)
(0.103818 -0.0143521 0)
(0.10295 -0.0139123 0)
(0.102169 -0.0134374 0)
(0.10147 -0.0129383 0)
(0.100848 -0.0124244 0)
(0.1003 -0.0119033 0)
(0.099818 -0.0113817 0)
(0.0993977 -0.0108649 0)
(0.0990335 -0.0103571 0)
(0.0987201 -0.00986173 0)
(0.0984522 -0.00938122 0)
(0.118459 -0.0103782 0)
(0.11735 -0.011546 0)
(0.115957 -0.012409 0)
(0.114592 -0.0130486 0)
(0.113285 -0.0135366 0)
(0.111981 -0.0139008 0)
(0.11069 -0.0141447 0)
(0.109442 -0.0142701 0)
(0.108252 -0.0142837 0)
(0.107126 -0.0141967 0)
(0.106072 -0.0140221 0)
(0.105093 -0.0137735 0)
(0.10419 -0.0134639 0)
(0.103365 -0.0131056 0)
(0.102615 -0.0127098 0)
(0.101938 -0.0122861 0)
(0.10133 -0.0118433 0)
(0.100788 -0.0113887 0)
(0.100306 -0.0109287 0)
(0.099882 -0.0104684 0)
(0.0995097 -0.0100123 0)
(0.0991851 -0.00956379 0)
(0.0989037 -0.00912558 0)
(0.117313 -0.00929412 0)
(0.11636 -0.0103837 0)
(0.11514 -0.0111984 0)
(0.113939 -0.0118131 0)
(0.112785 -0.0122956 0)
(0.111624 -0.0126718 0)
(0.110465 -0.012944 0)
(0.109337 -0.0131113 0)
(0.108253 -0.0131777 0)
(0.107221 -0.0131515 0)
(0.106246 -0.0130431 0)
(0.105334 -0.0128638 0)
(0.104486 -0.0126249 0)
(0.103705 -0.0123372 0)
(0.102989 -0.0120105 0)
(0.102336 -0.0116536 0)
(0.101746 -0.0112745 0)
(0.101214 -0.01088 0)
(0.100738 -0.0104763 0)
(0.100314 -0.0100683 0)
(0.0999381 -0.00966027 0)
(0.0996067 -0.00925582 0)
(0.099316 -0.00885775 0)
(0.116262 -0.0083548 0)
(0.11544 -0.00937121 0)
(0.114367 -0.0101374 0)
(0.113308 -0.0107231 0)
(0.112286 -0.0111932 0)
(0.111251 -0.0115727 0)
(0.110211 -0.0118626 0)
(0.109191 -0.0120603 0)
(0.108205 -0.0121674 0)
(0.107258 -0.0121897 0)
(0.106359 -0.0121355 0)
(0.105511 -0.0120141 0)
(0.104717 -0.0118353 0)
(0.103979 -0.0116083 0)
(0.103299 -0.0113418 0)
(0.102674 -0.0110438 0)
(0.102103 -0.0107214 0)
(0.101586 -0.0103811 0)
(0.101118 -0.0100285 0)
(0.100698 -0.00966843 0)
(0.100322 -0.00930501 0)
(0.0999875 -0.00894173 0)
(0.099691 -0.0085815 0)
(0.115298 -0.0075374 0)
(0.114586 -0.00848599 0)
(0.113639 -0.00920455 0)
(0.112702 -0.00975895 0)
(0.111796 -0.0102121 0)
(0.110871 -0.0105885 0)
(0.109936 -0.0108882 0)
(0.109014 -0.0111071 0)
(0.108117 -0.011245 0)
(0.10725 -0.0113057 0)
(0.106421 -0.0112955 0)
(0.105633 -0.0112223 0)
(0.104892 -0.0110942 0)
(0.104198 -0.0109192 0)
(0.103553 -0.010705 0)
(0.102957 -0.0104587 0)
(0.102409 -0.0101867 0)
(0.101907 -0.00989494 0)
(0.101451 -0.0095886 0)
(0.101038 -0.00927226 0)
(0.100665 -0.00894988 0)
(0.10033 -0.00862485 0)
(0.100031 -0.00830005 0)
(0.114412 -0.00682327 0)
(0.113794 -0.00770923 0)
(0.112955 -0.0083818 0)
(0.112123 -0.00890403 0)
(0.111318 -0.00933745 0)
(0.110491 -0.00970608 0)
(0.109649 -0.0100095 0)
(0.108815 -0.0102424 0)
(0.107999 -0.0104031 0)
(0.107205 -0.0104937 0)
(0.106441 -0.0105192 0)
(0.105711 -0.0104857 0)
(0.10502 -0.0104002 0)
(0.104369 -0.0102696 0)
(0.103759 -0.0101007 0)
(0.103192 -0.00989951 0)
(0.102667 -0.00967206 0)
(0.102184 -0.00942362 0)
(0.101741 -0.00915897 0)
(0.101337 -0.00888239 0)
(0.100969 -0.00859764 0)
(0.100637 -0.00830796 0)
(0.100338 -0.00801616 0)
(0.113597 -0.00619706 0)
(0.11306 -0.00702531 0)
(0.112313 -0.00765398 0)
(0.111573 -0.00814404 0)
(0.110856 -0.008556 0)
(0.110115 -0.00891365 0)
(0.109356 -0.00921618 0)
(0.108601 -0.0094575 0)
(0.107858 -0.00963459 0)
(0.107131 -0.00974828 0)
(0.106428 -0.00980215 0)
(0.105752 -0.00980131 0)
(0.105108 -0.00975152 0)
(0.104498 -0.0096587 0)
(0.103923 -0.00952865 0)
(0.103385 -0.00936691 0)
(0.102884 -0.00917867 0)
(0.10242 -0.00896875 0)
(0.101992 -0.00874153 0)
(0.101599 -0.00850095 0)
(0.101239 -0.00825053 0)
(0.100911 -0.00799337 0)
(0.100614 -0.00773217 0)
(0.112847 -0.00564602 0)
(0.112378 -0.00642114 0)
(0.111712 -0.00700826 0)
(0.111051 -0.00746677 0)
(0.110411 -0.00785643 0)
(0.109746 -0.00820093 0)
(0.109062 -0.00849919 0)
(0.108377 -0.00874449 0)
(0.1077 -0.00893281 0)
(0.107034 -0.00906392 0)
(0.106387 -0.00914032 0)
(0.105762 -0.00916607 0)
(0.105162 -0.00914599 0)
(0.104591 -0.00908512 0)
(0.104051 -0.0089885 0)
(0.103542 -0.00886098 0)
(0.103065 -0.00870717 0)
(0.102621 -0.0085314 0)
(0.102208 -0.00833765 0)
(0.101827 -0.00812955 0)
(0.101477 -0.00791036 0)
(0.101155 -0.00768299 0)
(0.100862 -0.00745004 0)
(0.112156 -0.00515953 0)
(0.111745 -0.00588579 0)
(0.111149 -0.00643378 0)
(0.110558 -0.00686174 0)
(0.109986 -0.00722888 0)
(0.109387 -0.00755883 0)
(0.108769 -0.00785036 0)
(0.108147 -0.00809623 0)
(0.10753 -0.00829168 0)
(0.10692 -0.0084356 0)
(0.106324 -0.00852957 0)
(0.105746 -0.00857683 0)
(0.105188 -0.00858134 0)
(0.104655 -0.00854741 0)
(0.104147 -0.00847937 0)
(0.103666 -0.00838147 0)
(0.103214 -0.0082578 0)
(0.10279 -0.00811221 0)
(0.102394 -0.0079483 0)
(0.102026 -0.00776939 0)
(0.101685 -0.0075785 0)
(0.101372 -0.00737835 0)
(0.101083 -0.00717138 0)
(0.111518 -0.0047287 0)
(0.111157 -0.00541 0)
(0.110621 -0.00592129 0)
(0.110092 -0.00631996 0)
(0.109579 -0.00666479 0)
(0.10904 -0.00697938 0)
(0.10848 -0.0072624 0)
(0.107915 -0.00750625 0)
(0.107352 -0.00770557 0)
(0.106793 -0.00785853 0)
(0.106244 -0.00796599 0)
(0.105709 -0.00803046 0)
(0.105191 -0.0080552 0)
(0.104693 -0.00804386 0)
(0.104216 -0.00800018 0)
(0.103763 -0.00792784 0)
(0.103334 -0.00783046 0)
(0.10293 -0.00771146 0)
(0.102551 -0.00757409 0)
(0.102197 -0.00742136 0)
(0.101868 -0.00725604 0)
(0.101562 -0.00708066 0)
(0.10128 -0.00689749 0)
(0.110928 -0.00434603 0)
(0.110611 -0.00498596 0)
(0.110128 -0.00546293 0)
(0.109652 -0.0058337 0)
(0.109192 -0.00615673 0)
(0.108705 -0.00645557 0)
(0.108197 -0.00672886 0)
(0.107683 -0.00696872 0)
(0.107169 -0.00716933 0)
(0.106656 -0.00732828 0)
(0.106151 -0.00744586 0)
(0.105656 -0.00752393 0)
(0.105175 -0.00756519 0)
(0.10471 -0.00757271 0)
(0.104263 -0.00754969 0)
(0.103836 -0.00749934 0)
(0.10343 -0.00742483 0)
(0.103046 -0.0073292 0)
(0.102684 -0.00721536 0)
(0.102344 -0.00708603 0)
(0.102026 -0.00694375 0)
(0.10173 -0.00679084 0)
(0.101455 -0.00662943 0)
(0.110383 -0.00400523 0)
(0.110103 -0.00460705 0)
(0.109666 -0.00505196 0)
(0.109238 -0.00539628 0)
(0.108824 -0.0056982 0)
(0.108383 -0.00598124 0)
(0.107922 -0.00624399 0)
(0.107454 -0.0064784 0)
(0.106983 -0.00667827 0)
(0.106513 -0.00684077 0)
(0.106047 -0.00696567 0)
(0.105589 -0.00705433 0)
(0.105142 -0.00710896 0)
(0.104708 -0.00713212 0)
(0.10429 -0.00712655 0)
(0.103888 -0.00709505 0)
(0.103504 -0.00704038 0)
(0.103139 -0.00696523 0)
(0.102794 -0.0068722 0)
(0.102469 -0.00676375 0)
(0.102163 -0.00664217 0)
(0.101876 -0.00650961 0)
(0.101609 -0.00636803 0)
(0.109877 -0.00370091 0)
(0.109629 -0.00426758 0)
(0.109234 -0.00468259 0)
(0.108847 -0.00500194 0)
(0.108474 -0.00528358 0)
(0.108075 -0.00555096 0)
(0.107655 -0.0058027 0)
(0.107228 -0.00603059 0)
(0.106798 -0.00622816 0)
(0.106366 -0.00639222 0)
(0.105936 -0.00652215 0)
(0.105512 -0.00661889 0)
(0.105097 -0.00668421 0)
(0.104692 -0.00672025 0)
(0.1043 -0.00672937 0)
(0.103922 -0.00671396 0)
(0.10356 -0.00667645 0)
(0.103214 -0.00661921 0)
(0.102885 -0.00654455 0)
(0.102574 -0.00645467 0)
(0.10228 -0.00635166 0)
(0.102004 -0.00623747 0)
(0.101745 -0.00611392 0)
(0.109409 -0.00342851 0)
(0.109188 -0.00396275 0)
(0.108829 -0.00434987 0)
(0.10848 -0.00464567 0)
(0.108143 -0.00490792 0)