/*--------------------------------*- C++ -*----------------------------------*\
| =========                 |                                                 |
| \\      /  F ield         | OpenFOAM: The Open Source CFD Toolbox           |
|  \\    /   O peration     | Version:  2412                                  |
|   \\  /    A nd           | Website:  www.openfoam.com                      |
|    \\/     M anipulation  |                                                 |
\*---------------------------------------------------------------------------*/
FoamFile
{
    version     2.0;
    format      ascii;
    arch        "LSB;label=32;scalar=64";
    class       volVectorField;
    location    "1";
    object      vorticity;
}
// * * * * * * * * * * * * * * * * * * * * * * * * * * * * * * * * * * * * * //

dimensions      [0 0 -1 0 0 0 0];

internalField   nonuniform List<vector> 
5285
(
(4.05261e-21 -6.78515e-20 0.000649836)
(-3.31069e-21 8.41544e-21 0.000642822)
(-3.92787e-22 -7.5354e-21 0.000635825)
(1.85026e-22 7.60524e-21 0.000629178)
(-5.63135e-24 -2.30347e-22 0.000623257)
(-1.81794e-22 -7.27844e-21 0.000618286)
(-3.50771e-21 7.45614e-21 0.00061383)
(7.4619e-21 2.21721e-23 0.000608934)
(2.23063e-21 7.24248e-21 0.000602776)
(-5.78828e-21 -1.02022e-23 0.000594467)
(8.36096e-21 9.33116e-21 0.000583912)
(-8.94812e-21 1.09605e-19 0.000573465)
(3.5115e-22 -1.18696e-19 0.000566452)
(-2.82804e-21 1.09496e-19 0.000564082)
(2.7344e-21 -1.11604e-19 0.000565106)
(8.43516e-23 2.3325e-21 0.000566378)
(-1.08721e-22 -2.83563e-21 0.00056441)
(3.38356e-21 -1.0659e-19 0.000560224)
(-1.36494e-20 1.0538e-19 0.000559804)
(-5.31809e-22 -2.66515e-21 0.000568086)
(1.06648e-20 2.33249e-23 0.000585753)
(1.15951e-20 2.53597e-23 0.000610785)
(-1.1558e-20 -2.52785e-23 0.000641858)
(-3.85132e-22 -8.42322e-25 0.000680225)
(-4.03344e-22 -8.82153e-25 0.000727354)
(-1.39927e-20 -3.06034e-23 0.000777517)
(1.3503e-20 2.95324e-23 0.000813232)
(-4.55375e-22 2.73584e-22 0.000772351)
(4.02608e-22 1.34234e-20 0.000363415)
(-3.96553e-20 7.89027e-20 -0.00146259)
(3.79693e-20 -1.09305e-19 -0.00761417)
(-1.32729e-20 -1.75258e-20 -0.0243566)
(1.43046e-20 4.89835e-20 -0.0587865)
(-4.028e-20 -1.10071e-20 -0.104684)
(6.76376e-22 -2.36263e-19 0.00208704)
(-7.68587e-21 2.54748e-19 0.0020706)
(-2.77048e-22 1.90046e-20 0.00205424)
(-6.94363e-21 -7.87646e-21 0.00203894)
(7.28212e-21 2.59993e-22 0.00202586)
(-7.20111e-21 1.11682e-20 0.00201567)
(4.9927e-21 2.19933e-19 0.00200658)
(3.87853e-21 -4.76446e-19 0.00199516)
(3.99604e-21 -2.21446e-19 0.00197876)
(-5.08739e-21 4.5805e-19 0.00195473)
(-2.08052e-21 -4.61526e-19 0.00192335)
(5.26989e-21 4.77288e-19 0.00189314)
(5.83476e-21 -1.82226e-21 0.00187465)
(-6.5136e-21 -1.70433e-22 0.00187029)
(-2.17462e-21 -4.75612e-24 0.00187474)
(0 -0 0.00187741)
(3.20569e-22 1.6543e-22 0.00186773)
(1.9241e-20 1.77148e-20 0.00185051)
(-1.05888e-20 4.05887e-19 0.00184505)
(-2.5304e-20 -3.12471e-20 0.00186508)
(1.36212e-20 -4.08685e-19 0.00191017)
(2.27126e-20 -3.50348e-19 0.0019721)
(6.97292e-21 3.86854e-19 0.00204595)
(-5.2911e-20 -1.21709e-21 0.00213442)
(5.43688e-20 2.56851e-20 0.00223781)
(-3.704e-20 2.93842e-19 0.00233188)
(4.82534e-21 -3.14003e-19 0.00235517)
(-3.09781e-20 2.29766e-20 0.00210139)
(3.58671e-20 1.56261e-20 0.000662612)
(-7.19923e-20 1.72708e-19 -0.00514179)
(7.25706e-20 -1.6737e-19 -0.0240643)
(-1.50451e-19 1.49129e-19 -0.0747639)
(1.44472e-19 -1.68237e-19 -0.177886)
(-3.76553e-20 -1.93871e-21 -0.311513)
(-9.52949e-21 -1.34859e-20 0.0039196)
(-8.26316e-22 4.88866e-19 0.00390848)
(5.26966e-22 -1.47555e-20 0.00389714)
(-1.33429e-20 4.74802e-19 0.00388733)
(1.28557e-20 -4.96156e-19 0.00388147)
(-6.32053e-21 4.7623e-19 0.00388087)
(-6.22347e-21 -4.98707e-19 0.00388116)
(8.98309e-21 -6.57736e-21 0.00387451)
(-4.16082e-21 1.45902e-20 0.00385594)
(9.37872e-21 -6.10955e-21 0.00382135)
(-1.92825e-20 4.50346e-19 0.00377374)
(1.55717e-20 -4.90673e-19 0.00373173)
(1.55054e-20 -4.46135e-19 0.00371363)
(-1.02786e-20 4.58827e-19 0.00371909)
(-1.9069e-21 -9.10383e-21 0.00373487)
(1.96463e-20 -2.11804e-22 0.00374092)
(-2.32773e-20 -3.5354e-20 0.0037204)
(4.10967e-20 -8.52392e-19 0.00368584)
(2.43165e-20 7.18238e-20 0.00367171)
(-6.72405e-20 8.09504e-19 0.00369713)
(6.99493e-21 -2.14509e-20 0.00375465)
(-1.84955e-20 -1.47032e-20 0.00382497)
(1.02728e-19 -6.95532e-19 0.00389811)
(-1.72799e-19 1.40255e-18 0.00397586)
(1.55539e-19 -1.44845e-18 0.00404842)
(1.13305e-19 1.14544e-19 0.00405881)
(-1.5685e-19 6.6133e-19 0.00386937)
(-1.57808e-19 4.6683e-19 0.00304443)
(1.37095e-19 -5.80894e-19 -7.88787e-05)
(-4.35195e-20 3.51292e-20 -0.0109689)
(1.1044e-19 -3.57399e-20 -0.044329)
(2.72366e-19 -1.75579e-19 -0.130713)
(-3.01377e-19 2.91104e-19 -0.302331)
(-5.2403e-20 -8.18073e-20 -0.512532)
(-7.70369e-21 4.95225e-19 0.00619607)
(-1.19463e-21 -6.98193e-21 0.00620954)
(8.23099e-21 7.09989e-21 0.00622206)
(-1.65745e-21 4.629e-19 0.00623614)
(-1.62548e-20 -4.92234e-19 0.00625624)
(2.67527e-20 2.29999e-20 0.00628555)
(-3.03304e-20 9.40322e-19 0.00631617)
(1.596e-20 -9.56166e-19 0.00633277)
(3.63305e-21 5.31e-22 0.00632641)
(-1.76016e-20 -7.81301e-23 0.00629277)
(2.57748e-20 -1.44138e-20 0.00624222)
(-8.55728e-21 2.19966e-22 0.00620786)
(-9.54194e-21 -1.92245e-23 0.00621298)
(8.89805e-21 3.46682e-22 0.00624788)
(-5.62137e-21 -6.12105e-21 0.00628904)
(5.13603e-20 -8.62197e-19 0.00631114)
(-4.12649e-20 9.02118e-19 0.00629715)
(-2.7194e-20 -7.44774e-21 0.00626616)
(3.05706e-20 -3.03767e-21 0.00625946)
(-8.34759e-20 8.14223e-19 0.00629558)
(1.15448e-19 -8.34146e-19 0.00635771)
(-4.15661e-20 1.02489e-20 0.00641494)
(2.84489e-20 8.66907e-23 0.00645351)
(6.51211e-20 1.7584e-20 0.00647204)
(-2.82205e-19 6.41542e-19 0.00644406)
(3.23953e-19 -1.353e-18 0.00627104)
(-1.42993e-19 7.01146e-19 0.00567898)
(2.80479e-19 -5.63517e-19 0.00381082)
(-2.53295e-19 6.98782e-19 -0.00208503)
(-7.70078e-19 7.10807e-19 -0.0201907)
(1.51157e-18 -1.65558e-18 -0.0714898)
(-7.87949e-19 9.03636e-19 -0.197512)
(3.81394e-20 -2.56075e-21 -0.43848)
(8.7733e-21 -7.17659e-20 -0.70829)
(7.70021e-21 6.78634e-21 0.00818921)
(4.50813e-21 4.6999e-19 0.00823158)
(2.19355e-20 -5.14657e-19 0.0082711)
(1.19025e-20 3.76919e-20 0.0083107)
(-4.79487e-20 9.75247e-19 0.00835785)
(1.81478e-20 -9.90674e-19 0.0084201)
(1.88508e-20 3.01566e-20 0.00848751)
(-3.24751e-20 -4.20134e-22 0.00853401)
(2.12321e-20 1.7227e-20 0.00854434)
(-2.06118e-20 9.49654e-19 0.00851777)
(9.79193e-21 -9.5425e-19 0.00847554)
(5.07041e-21 1.71962e-20 0.00846113)
(1.87968e-20 2.93108e-20 0.00849452)
(-2.0461e-20 -9.74264e-22 0.00855292)
(1.12567e-21 -1.40474e-20 0.00860731)
(-6.45684e-20 1.44494e-20 0.00864248)
(6.31206e-20 1.37369e-20 0.00865494)
(-7.05374e-21 -3.60443e-20 0.00865851)
(4.2885e-20 -8.14411e-19 0.00867518)
(-2.41197e-20 8.37946e-19 0.00871403)
(2.11685e-19 -1.64874e-18 0.00875734)
(-1.70663e-19 1.67293e-18 0.00877335)
(2.14042e-19 -1.61771e-18 0.00874973)
(9.16773e-20 1.71389e-19 0.00868062)
(-2.49451e-19 1.54484e-18 0.00851425)
(-2.16907e-19 -4.56034e-20 0.00808484)
(2.87328e-20 3.63339e-23 0.00690041)
(-3.54236e-20 2.60643e-22 0.00343292)
(1.05556e-19 2.32775e-21 -0.0067299)
(5.92021e-20 1.86185e-20 -0.0354205)
(-2.2709e-19 6.68864e-21 -0.110788)
(1.38334e-19 7.68744e-21 -0.284388)
(-3.41974e-22 -6.42536e-22 -0.599505)
(7.40904e-20 1.11109e-21 -0.908458)
(-3.50392e-21 5.54981e-21 0.00800303)
(3.72404e-20 -9.95067e-19 0.00803651)
(1.75633e-20 -9.47254e-19 0.00806174)
(9.52185e-21 3.2267e-20 0.00808164)
(-8.52548e-21 9.9179e-19 0.00810786)
(-3.6485e-20 -1.46929e-20 0.00815613)
(2.22446e-20 1.61058e-20 0.00822097)
(-3.94476e-20 9.6234e-19 0.00826136)
(2.31374e-20 -9.97929e-19 0.00824846)
(7.0486e-20 -9.36956e-19 0.0081934)
(-7.25226e-20 9.88682e-19 0.0081273)
(2.69615e-20 -3.56946e-20 0.00808434)
(4.34956e-20 -9.49347e-19 0.00807245)
(-9.24733e-20 9.88682e-19 0.00806531)
(7.75655e-21 2.17389e-20 0.00803292)
(-1.70293e-19 1.80308e-18 0.00796665)
(1.3352e-19 -1.90294e-18 0.00788002)
(8.74785e-20 1.00856e-19 0.00778913)
(-2.0731e-19 1.73178e-18 0.0076942)
(1.65578e-19 -1.84109e-18 0.0075865)
(-5.58668e-20 -6.28322e-21 0.007448)
(4.63113e-19 -1.65987e-18 0.00725401)
(-4.11443e-19 1.75298e-18 0.00699653)
(-1.25145e-19 -1.23282e-19 0.00667738)
(6.97769e-19 -1.46404e-18 0.00624648)
(-1.05639e-18 3.1554e-18 0.00546941)
(-9.32267e-20 -1.97748e-19 0.00355167)
(-1.64112e-19 -1.37715e-19 -0.00197223)
(7.67053e-19 -1.43633e-18 -0.0179109)
(8.30455e-20 1.30198e-19 -0.0612226)
(-1.28417e-18 1.09331e-18 -0.168973)
(1.23088e-18 -1.25066e-18 -0.403904)
(7.06633e-21 6.4268e-20 -0.812384)
(1.69856e-20 -4.67805e-21 -1.15294)
(-1.36498e-21 -1.94643e-20 0.0039157)
(1.03596e-20 -1.02427e-18 0.00387943)
(-1.04618e-20 -2.00104e-21 0.00382436)
(-2.68009e-22 2.184e-22 0.00375344)
(2.08227e-20 1.53113e-20 0.00368384)
(-4.23243e-20 9.87807e-19 0.00364513)
(3.17082e-20 -1.02218e-18 0.00364888)
(2.30631e-20 1.51395e-20 0.00362881)
(-1.66302e-20 -1.57202e-20 0.00351122)
(-1.10673e-20 1.77454e-20 0.00331933)
(-5.55577e-20 9.56841e-19 0.00311087)
(1.2385e-19 -1.98451e-18 0.00291469)
(-5.09471e-20 1.06662e-18 0.00273162)
(-1.44423e-19 1.9263e-18 0.00254174)
(-3.55687e-20 -5.65518e-20 0.00231791)
(2.55911e-20 -2.089e-20 0.00205289)
(-9.3171e-20 -6.75285e-20 0.00176159)
(1.94839e-19 -1.97261e-18 0.00145768)
(3.83011e-19 -1.79037e-18 0.00114897)
(-3.05796e-19 1.93339e-18 0.000848424)
(-6.07388e-20 -9.82466e-20 0.000572047)
(3.89697e-19 -1.7528e-18 0.000343773)
(-2.86712e-19 1.92048e-18 0.000219544)
(-6.2985e-19 1.64755e-18 0.000327269)
(4.4848e-19 -1.80652e-18 0.00082086)
(1.36607e-19 -1.72798e-20 0.00168972)
(8.76881e-19 -1.63248e-18 0.00225861)
(2.44399e-19 1.55865e-19 -0.000312289)
(-1.12265e-18 1.63859e-18 -0.0147467)
(-4.02281e-20 -7.48576e-20 -0.0632091)
(7.45959e-20 1.19265e-21 -0.192482)
(-6.11656e-20 4.06442e-20 -0.484579)
(-8.63107e-19 8.66835e-19 -1.02921)
(8.32775e-19 -8.98065e-19 -1.62799)
(-1.1872e-20 -3.2077e-21 0.0208649)
(-9.1049e-21 -3.94658e-21 -0.0315619)
(8.42947e-21 1.30132e-20 -0.0645282)
(-1.74615e-20 -2.15633e-20 -0.0680795)
(1.79719e-20 1.32562e-20 -0.0542841)
(-8.35256e-22 9.39473e-22 -0.0370038)
(-9.97804e-23 -6.20594e-23 -0.0230295)
(-2.51343e-21 5.49713e-24 -0.0136565)
(2.43491e-21 -5.3254e-24 -0.00797115)
(-6.72933e-23 1.47177e-25 -0.00470401)
(-6.23219e-23 1.36304e-25 -0.00287064)
(1.78718e-21 -3.90874e-24 -0.00184718)
(-1.79294e-21 3.92133e-24 -0.00127473)
(-1.70517e-21 3.72937e-24 -0.000951302)
(4.80464e-23 -4.38207e-22 -0.000762636)
(3.54677e-21 9.55789e-20 -0.000646957)
(-1.77832e-21 -8.88721e-20 -0.000571775)
(-3.6029e-23 -4.11768e-22 -0.00051858)
(-1.51377e-23 4.1859e-22 -0.000476697)
(-1.26885e-21 -1.04856e-19 -0.000443039)
(1.28858e-21 1.04611e-19 -0.000418409)
(-6.8561e-22 -1.00737e-19 -0.000401863)
(-1.85861e-20 2.77269e-20 0.0541027)
(2.46222e-21 -1.07687e-20 -0.0981909)
(4.2201e-21 -2.50883e-20 -0.193631)
(-6.02958e-20 -3.65912e-20 -0.203007)
(5.88755e-20 3.85365e-20 -0.161526)
(-7.79449e-21 7.17241e-21 -0.109793)
(4.60329e-21 -2.52702e-21 -0.0680181)
(-5.93067e-20 -2.26267e-19 -0.0400676)
(6.25247e-20 2.14664e-19 -0.0231709)
(-1.17522e-20 -5.7248e-21 -0.0135069)
(7.23273e-21 -1.13271e-20 -0.00811761)
(2.81306e-20 3.26826e-19 -0.00513027)
(-3.30846e-20 -3.2172e-19 -0.00347186)
(-2.33945e-20 -3.60723e-19 -0.00254262)
(7.39774e-21 -1.67301e-20 -0.00200532)
(1.98871e-20 3.73151e-19 -0.00167852)
(-3.49076e-21 -4.2061e-21 -0.00146765)
(-4.93244e-22 -1.25686e-20 -0.00131898)
(6.24616e-24 -5.56558e-23 -0.00120094)
(3.90257e-22 -8.53532e-25 -0.0011051)
(1.22858e-21 1.99982e-23 -0.00103534)
(-1.16272e-21 -8.26659e-21 -0.000989207)
(-2.50628e-20 7.95667e-23 0.059691)
(4.47298e-20 1.05308e-20 -0.177093)
(-1.57933e-20 5.78151e-21 -0.32352)
(-5.31734e-20 -1.64677e-20 -0.33398)
(1.9983e-20 6.89864e-21 -0.264353)
(-2.36667e-19 -3.31064e-19 -0.178887)
(2.50284e-19 3.18775e-19 -0.110088)
(2.17555e-19 4.90748e-19 -0.0642033)
(-4.4988e-20 8.41063e-20 -0.0365895)
(-3.20111e-19 -1.12441e-18 -0.0209008)
(2.83505e-19 1.22428e-18 -0.0122304)
(-1.303e-19 -6.13511e-19 -0.00747035)
(9.81823e-22 -1.52545e-20 -0.00484462)
(-1.62528e-21 -3.9157e-21 -0.00337519)
(7.40087e-20 7.7292e-19 -0.00252511)
(-1.33951e-20 1.74153e-20 -0.00200882)
(-5.86471e-20 -7.72759e-19 -0.00167765)
(5.9761e-21 2.17705e-20 -0.00144592)
(-3.70566e-21 1.33664e-22 -0.00126047)
(2.44836e-22 -1.70118e-21 -0.00110717)
(1.58572e-20 4.35181e-19 -0.000994675)
(-1.61163e-20 -4.17117e-19 -0.000920532)
(3.98717e-22 3.89886e-20 0.0150614)
(1.34379e-20 -7.21277e-20 -0.280516)
(3.56753e-19 3.63119e-19 -0.455016)
(-9.45086e-19 -7.92659e-19 -0.456283)
(6.12327e-19 4.31711e-19 -0.357561)
(3.29551e-19 4.40044e-19 -0.240609)
(-3.62438e-19 -4.1756e-19 -0.147157)
(2.8116e-19 5.39268e-19 -0.0850867)
(-5.40906e-19 -1.13051e-18 -0.0479092)
(2.76135e-19 5.73314e-19 -0.02691)
(-8.94397e-21 1.65717e-20 -0.0153792)
(-6.88232e-21 3.90969e-22 -0.00907038)
(1.05779e-20 1.53907e-20 -0.00556018)
(-1.23868e-19 -7.77322e-19 -0.00354522)
(1.13775e-19 7.45364e-19 -0.0023402)
(-2.91876e-21 2.91616e-20 -0.00158633)
(3.55132e-21 -1.63815e-20 -0.00109287)
(6.46502e-20 8.46396e-19 -0.000747067)
(-6.66318e-20 -8.39175e-19 -0.000474763)
(6.5371e-23 -1.73126e-20 -0.000247819)
(-1.63433e-21 -5.07126e-23 -7.03072e-05)
(1.67751e-21 2.48186e-23 6.18094e-05)
(3.95642e-20 -2.1227e-22 -0.107594)
(-1.26373e-21 -1.72102e-21 -0.42138)
(-8.33509e-20 -3.83405e-21 -0.583463)
(1.05245e-19 -6.66715e-21 -0.558852)
(-4.19723e-20 -1.35231e-20 -0.43083)
(-4.07268e-20 -2.17954e-21 -0.287999)
(2.09767e-20 8.02081e-21 -0.175447)
(-9.49127e-21 -9.68322e-21 -0.101112)
(5.44513e-20 -2.35035e-20 -0.0567965)
(5.14302e-19 1.36938e-18 -0.0318743)
(-9.71529e-20 6.45539e-20 -0.0182193)
(-4.50252e-19 -1.46212e-18 -0.0107086)
(3.25475e-19 1.53454e-18 -0.00643695)
(-3.36613e-19 -1.52986e-18 -0.00387821)
(1.14422e-19 8.13282e-19 -0.00226152)
(-1.21878e-19 -8.39444e-19 -0.00119071)
(3.45192e-21 8.77212e-21 -0.000449727)
(-1.43233e-20 -1.32269e-20 8.80752e-05)
(1.17045e-20 -1.39207e-20 0.000506471)
(1.00337e-21 1.38101e-20 0.000858901)
(4.07025e-21 1.5015e-22 0.0011669)
(-5.76205e-21 -2.84735e-20 0.00143537)
(-9.76311e-22 3.3195e-21 0.00166969)
(-1.29429e-19 1.44877e-21 -0.345239)
(4.23334e-20 4.17439e-20 -0.607028)
(-5.79159e-19 -8.72669e-19 -0.692102)
(6.4894e-19 8.0141e-19 -0.620796)
(-4.57656e-20 6.97546e-20 -0.467909)
(-9.63873e-19 -1.3175e-18 -0.311096)
(6.02017e-20 -9.84569e-20 -0.189865)
(8.93798e-20 -6.27757e-20 -0.110102)
(1.6447e-18 2.95194e-18 -0.0625856)
(-8.26665e-19 -1.43661e-18 -0.0358794)
(4.89883e-20 -5.62147e-21 -0.0212412)
(5.19945e-19 1.6257e-18 -0.0131502)
(-5.26742e-19 -1.58484e-18 -0.0084737)
(1.16636e-20 -2.38755e-21 -0.00557736)
(-3.06364e-19 -1.73317e-18 -0.0036574)
(3.17609e-19 1.72321e-18 -0.00231334)
(-2.18091e-20 4.88256e-21 -0.00132463)
(-2.0937e-19 -1.81724e-18 -0.000561278)
(2.19103e-19 1.81041e-18 6.28045e-05)
(-3.17376e-21 -9.64172e-21 0.000616077)
(8.29468e-20 9.39323e-19 0.0011322)
(-6.94126e-20 -9.00556e-19 0.00160831)
(-5.9829e-21 -7.20905e-21 0.00203793)
(-3.25861e-19 -4.40532e-19 -0.759006)
(3.71179e-19 3.81079e-19 -0.777586)
(-5.6534e-21 5.31353e-20 -0.712236)
(-5.07707e-20 -5.24814e-22 -0.59125)
(3.39099e-20 -2.16706e-20 -0.434661)
(1.18047e-18 1.64486e-18 -0.28643)
(-8.22721e-20 9.6836e-20 -0.173037)
(-1.12934e-18 -1.69141e-18 -0.0983131)
(-2.86985e-20 3.00061e-21 -0.0540878)
(-7.84079e-19 -1.74251e-18 -0.0298723)
(8.29692e-19 1.67125e-18 -0.0173022)
(5.78168e-19 1.79879e-18 -0.0109401)
(-6.06842e-19 -1.7444e-18 -0.00765935)
(1.59423e-20 -2.57582e-20 -0.00583817)
(4.03339e-19 1.8489e-18 -0.00471237)
(-4.20609e-19 -1.80937e-18 -0.00392848)
(-2.97474e-19 -1.89268e-18 -0.00330656)
(5.07803e-20 -3.67261e-20 -0.00275298)
(2.04975e-20 -2.45353e-20 -0.00222539)
(3.14017e-20 -1.59751e-20 -0.00169906)
(2.06099e-19 1.92183e-18 -0.00116643)
(7.87476e-20 9.80166e-19 -0.000646175)
(-1.61456e-19 -1.95221e-18 -0.000159994)
(1.20065e-19 2.11279e-19 -0.5406)
(-6.70805e-20 -0 -0.454485)
(4.32924e-22 -0 -0.415118)
(0 -0 -0.368104)
(-3.34583e-22 -0 -0.294583)
(-3.57744e-20 -0 -0.209621)
(4.96502e-21 -0 -0.133246)
(3.10235e-20 -0 -0.0758995)
(-1.78725e-22 -0 -0.038199)
(2.00828e-20 -0 -0.0158086)
(-1.98598e-20 -0 -0.00356507)
(-1.58451e-20 -0 0.00261848)
(1.57768e-20 -0 0.00542345)
(0 -0 0.0064212)
(-1.21275e-20 -0 0.00646644)
(1.20756e-20 -0 0.00603531)
(1.06301e-20 -0 0.00540949)
(-5.30946e-22 -0 0.00475124)
(-4.52194e-22 -0 0.0041475)
(-4.63942e-22 -0 0.0036251)
(-9.08575e-21 -0 0.0031749)
(-4.12589e-21 -0 0.00277196)
(8.20184e-21 -0 0.00240304)
(4.01131e-21 -0 0.00207166)
(0 -1.17091e-19 -0.566268)
(0 -0 -0.419703)
(0 -0 -0.350229)
(0 -0 -0.294856)
(0 -0 -0.228879)
(0 -0 -0.159373)
(0 -0 -0.0997349)
(0 -0 -0.056486)
(0 -0 -0.0288886)
(0 -0 -0.0129133)
(0 -0 -0.00436112)
(0 -0 -0.000111217)
(0 -0 0.00179648)
(0 -0 0.00247071)
(0 -0 0.00249749)
(0 -0 0.00219781)
(0 -0 0.00176774)
(0 -0 0.00132245)
(0 -0 0.000917143)
(0 -0 0.000564918)
(0 -0 0.000255295)
(0 -0 -2.99296e-05)
(0 -0 -0.000300607)
(0 7.93403e-22 -0.478103)
(0 -0 -0.35394)
(0 -0 -0.27838)
(0 -0 -0.21821)
(0 -0 -0.159981)
(0 -0 -0.107018)
(0 -0 -0.0652768)
(0 -0 -0.0365583)
(0 -0 -0.0188692)
(0 -0 -0.00887541)
(0 -0 -0.00360265)
(0 -0 -0.000987834)
(0 -0 0.000210101)
(0 -0 0.000671736)
(0 -0 0.000748841)
(0 -0 0.00062884)
(0 -0 0.000424283)
(0 -0 0.000201969)
(0 -0 -6.32364e-06)
(0 -0 -0.000192408)
(0 -0 -0.000360894)
(0 -0 -0.000520555)
(0 -0 -0.000674628)
(0 -0 -0.351694)
(0 -0 -0.263584)
(0 -0 -0.199275)
(0 -0 -0.14666)
(0 -0 -0.101367)
(0 -0 -0.0647364)
(0 -0 -0.038159)
(0 -0 -0.0208744)
(0 -0 -0.0106441)
(0 -0 -0.00502966)
(0 -0 -0.00212571)
(0 -0 -0.000698025)
(0 -0 -3.6918e-05)
(0 -0 0.000234202)
(0 -0 0.000305216)
(0 -0 0.000273631)
(0 -0 0.000195081)
(0 -0 0.000102089)
(0 -0 1.05945e-05)
(0 -0 -7.43679e-05)
(0 -0 -0.000153656)
(0 -0 -0.000230158)
(0 -0 -0.000305119)
(0 -6.00073e-22 -0.231555)
(0 -0 -0.172729)
(0 -0 -0.126093)
(0 -0 -0.0884063)
(0 -0 -0.0583683)
(0 -0 -0.0358959)
(0 -0 -0.0205338)
(0 -0 -0.0109726)
(0 -0 -0.00550234)
(0 -0 -0.00258075)
(0 -0 -0.00110044)
(0 -0 -0.000380623)
(0 -0 -4.49282e-05)
(0 -0 0.000100125)
(0 -0 0.000149589)
(0 -0 0.00015049)
(0 -0 0.000128046)
(0 -0 9.64725e-05)
(0 -0 6.29608e-05)
(0 -0 3.02726e-05)
(0 -0 -1.19248e-06)
(0 -0 -3.19996e-05)
(0 -0 -6.2565e-05)
(0 -6.24636e-20 -0.138118)
(0 -0 -0.100298)
(0 -0 -0.0703554)
(0 -0 -0.0474526)
(0 -0 -0.0304203)
(0 -0 -0.0183166)
(0 -0 -0.0103081)
(0 -0 -0.00543523)
(0 -0 -0.00270135)
(0 -0 -0.00126876)
(0 -0 -0.000555182)
(0 -0 -0.000211563)
(0 -0 -4.99694e-05)
(0 -0 2.35942e-05)
(0 -0 5.40532e-05)
(0 -0 6.28188e-05)
(0 -0 6.07204e-05)
(0 -0 5.36104e-05)
(0 -0 4.45088e-05)
(0 -0 3.47843e-05)
(0 -0 2.49835e-05)
(0 -0 1.52008e-05)
(0 -0 5.15833e-06)
(0 6.27091e-20 -0.0757358)
(0 -0 -0.0521842)
(0 -0 -0.0346194)
(0 -0 -0.0224826)
(0 -0 -0.0142244)
(0 -0 -0.0085792)
(0 -0 -0.00485387)
(0 -0 -0.00256884)
(0 -0 -0.00128156)
(0 -0 -0.000609712)
(0 -0 -0.000278217)
(0 -0 -0.000119689)
(0 -0 -4.43987e-05)
(0 -0 -8.32359e-06)
(0 -0 8.95774e-06)
(0 -0 1.67964e-05)
(0 -0 1.96999e-05)
(0 -0 2.00105e-05)
(0 -0 1.8957e-05)
(0 -0 1.72094e-05)
(0 -0 1.5194e-05)
(0 -0 1.30922e-05)
(0 -0 1.06069e-05)
(0 3.75175e-22 -0.0388924)
(0 -0 -0.0244174)
(0 -0 -0.014665)
(0 -0 -0.00900566)
(0 -0 -0.00574679)
(0 -0 -0.00361839)
(0 -0 -0.00214161)
(0 -0 -0.00117286)
(0 -0 -0.00060011)
(0 -0 -0.000293821)
(0 -0 -0.000141672)
(0 -0 -6.87713e-05)
(0 -0 -3.35625e-05)
(0 -0 -1.57141e-05)
(0 -0 -6.06055e-06)
(0 -0 -5.64923e-07)
(0 -0 2.63061e-06)
(0 -0 4.44712e-06)
(0 -0 5.40173e-06)
(0 -0 5.84477e-06)
(0 -0 6.08198e-06)
(0 -0 6.26101e-06)
(0 -0 6.04103e-06)
(0 -3.23649e-22 -0.0192015)
(0 -0 -0.0100916)
(0 -0 -0.00470894)
(0 -0 -0.00243863)
(0 -0 -0.00167197)
(0 -0 -0.00125509)
(0 -0 -0.000860937)
(0 -0 -0.000520629)
(0 -0 -0.000284766)
(0 -0 -0.000147712)
(0 -0 -7.68496e-05)
(0 -0 -4.20985e-05)
(0 -0 -2.47294e-05)
(0 -0 -1.52858e-05)
(0 -0 -9.5537e-06)
(0 -0 -5.7408e-06)
(0 -0 -3.0896e-06)
(0 -0 -1.2388e-06)
(0 -0 4.99199e-08)
(0 -0 9.75444e-07)
(0 -0 1.76947e-06)
(0 -0 2.53633e-06)
(0 -0 2.90166e-06)
(0 3.47265e-20 -0.00950321)
(0 -0 -0.00338153)
(0 -0 -0.000225569)
(0 -0 0.000475289)
(0 -0 0.000149824)
(0 -0 -0.00018094)
(0 -0 -0.000270726)
(0 -0 -0.000218138)
(0 -0 -0.000138393)
(0 -0 -7.95385e-05)
(0 -0 -4.56989e-05)
(0 -0 -2.80502e-05)
(0 -0 -1.8686e-05)
(0 -0 -1.31551e-05)
(0 -0 -9.41129e-06)
(0 -0 -6.62908e-06)
(0 -0 -4.50701e-06)
(0 -0 -2.88839e-06)
(0 -0 -1.65148e-06)
(0 -0 -6.72417e-07)
(0 -0 2.30403e-07)
(0 -0 1.1218e-06)
(0 -0 1.62677e-06)
(0 -3.434e-20 -0.00503831)
(0 -0 -0.000536269)
(0 -0 0.00156414)
(0 -0 0.0016351)
(0 -0 0.000910411)
(0 -0 0.000296178)
(0 -0 5.24997e-06)
(0 -0 -7.18473e-05)
(0 -0 -6.61542e-05)
(0 -0 -4.52086e-05)
(0 -0 -2.93166e-05)
(0 -0 -1.99024e-05)
(0 -0 -1.44307e-05)
(0 -0 -1.08879e-05)
(0 -0 -8.25791e-06)
(0 -0 -6.16308e-06)
(0 -0 -4.47316e-06)
(0 -0 -3.10595e-06)
(0 -0 -2.00334e-06)
(0 -0 -1.086e-06)
(0 -0 -2.12177e-07)
(0 -0 6.71408e-07)
(0 -0 1.21277e-06)
(0 -2.66551e-20 -0.00311025)
(0 -0 0.000504773)
(0 -0 0.00213716)
(0 -0 0.00201818)
(0 -0 0.00120433)
(0 -0 0.000510891)
(0 -0 0.000143301)
(0 -0 6.32567e-06)
(0 -0 -2.58935e-05)
(0 -0 -2.53497e-05)
(0 -0 -1.92979e-05)
(0 -0 -1.44387e-05)
(0 -0 -1.11601e-05)
(0 -0 -8.79247e-06)
(0 -0 -6.89982e-06)
(0 -0 -5.31622e-06)
(0 -0 -3.97318e-06)
(0 -0 -2.84047e-06)
(0 -0 -1.90652e-06)
(0 -0 -1.11464e-06)
(0 -0 -3.34305e-07)
(0 -0 5.11795e-07)
(0 -0 1.08324e-06)
(0 2.65461e-20 -0.00234737)
(0 -0 0.000765008)
(0 -0 0.0022094)
(0 -0 0.00208756)
(0 -0 0.00130717)
(0 -0 0.000614891)
(0 -0 0.000221456)
(0 -0 5.43726e-05)
(0 -0 1.36097e-07)
(0 -0 -1.19525e-05)
(0 -0 -1.21884e-05)
(0 -0 -1.02892e-05)
(0 -0 -8.45599e-06)
(0 -0 -6.9007e-06)
(0 -0 -5.5528e-06)
(0 -0 -4.35752e-06)
(0 -0 -3.30088e-06)
(0 -0 -2.40167e-06)
(0 -0 -1.66384e-06)
(0 -0 -1.02955e-06)
(0 -0 -3.51e-07)
(0 -0 4.69051e-07)
(0 -0 1.06758e-06)
(0 -0 -0.00209844)
(0 -0 0.000716589)
(0 -0 0.00210205)
(0 -0 0.00204638)
(0 -0 0.00133796)
(0 -0 0.000672951)
(0 -0 0.000272616)
(0 -0 8.80409e-05)
(0 -0 1.91102e-05)
(0 -0 -1.88117e-06)
(0 -0 -6.66778e-06)
(0 -0 -6.92638e-06)
(0 -0 -6.14938e-06)
(0 -0 -5.20254e-06)
(0 -0 -4.26384e-06)
(0 -0 -3.37277e-06)
(0 -0 -2.573e-06)
(0 -0 -1.90197e-06)
(0 -0 -1.35137e-06)
(0 -0 -8.54537e-07)
(0 -0 -2.51054e-07)
(0 -0 5.37283e-07)
(0 -0 1.1131e-06)
(0 -1.83601e-20 -0.00206736)
(0 -0 0.00056164)
(0 -0 0.0019454)
(0 -0 0.00197464)
(0 -0 0.00134338)
(0 -0 0.000710711)
(0 -0 0.000309944)
(0 -0 0.000113617)
(0 -0 3.38313e-05)
(0 -0 6.06197e-06)
(0 -0 -2.22125e-06)
(0 -0 -4.1356e-06)
(0 -0 -4.17212e-06)
(0 -0 -3.69058e-06)
(0 -0 -3.06587e-06)
(0 -0 -2.43019e-06)
(0 -0 -1.85794e-06)
(0 -0 -1.37689e-06)
(0 -0 -9.69899e-07)
(0 -0 -5.68533e-07)
(0 -0 -2.88161e-08)
(0 -0 6.89444e-07)
(0 -0 1.19054e-06)
(0 1.82844e-20 -0.00212288)
(0 -0 0.000381365)
(0 -0 0.00178689)
(0 -0 0.00190011)
(0 -0 0.00133991)
(0 -0 0.000737725)
(0 -0 0.000338602)
(0 -0 0.00013365)
(0 -0 4.54794e-05)
(0 -0 1.24151e-05)
(0 -0 1.39162e-06)
(0 -0 -1.82385e-06)
(0 -0 -2.49871e-06)
(0 -0 -2.37498e-06)
(0 -0 -2.0006e-06)
(0 -0 -1.57794e-06)
(0 -0 -1.18515e-06)
(0 -0 -8.42429e-07)
(0 -0 -5.35765e-07)
(0 -0 -2.07187e-07)
(0 -0 2.52684e-07)
(0 -0 8.69595e-07)
(0 -0 1.2855e-06)
(0 1.44243e-20 -0.00220805)
(0 -0 0.000206989)
(0 -0 0.00164221)
(0 -0 0.00183143)
(0 -0 0.00133316)
(0 -0 0.000757744)
(0 -0 0.0003609)
(0 -0 0.000149433)
(0 -0 5.47249e-05)
(0 -0 1.74928e-05)
(0 -0 4.29912e-06)
(0 -0 5.4364e-08)
(0 -0 -1.11106e-06)
(0 -0 -1.25889e-06)
(0 -0 -1.08803e-06)
(0 -0 -8.37689e-07)
(0 -0 -5.79466e-07)
(0 -0 -3.3596e-07)
(0 -0 -1.03131e-07)
(0 -0 1.53341e-07)
(0 -0 5.17941e-07)
(0 -0 1.03301e-06)
(0 -0 1.37422e-06)
(0 -1.43645e-20 -0.00229869)
(0 -0 4.9762e-05)
(0 -0 0.00151573)
(0 -0 0.00177092)
(0 -0 0.00132522)
(0 -0 0.000772665)
(0 -0 0.000378268)
(0 -0 0.000161867)
(0 -0 6.2041e-05)
(0 -0 2.15103e-05)
(0 -0 6.59898e-06)
(0 -0 1.55573e-06)
(0 -0 2.07124e-08)
(0 -0 -3.42011e-07)
(0 -0 -3.41919e-07)
(0 -0 -2.28162e-07)
(0 -0 -7.18906e-08)
(0 -0 9.89418e-08)
(0 -0 2.72564e-07)
(0 -0 4.54151e-07)
(0 -0 7.27207e-07)
(0 -0 1.16068e-06)
(0 -0 1.44179e-06)
(0 -0 -0.00238473)
(0 -0 -8.71103e-05)
(0 -0 0.0014077)
(0 -0 0.00171879)
(0 -0 0.00131704)
(0 -0 0.000783732)
(0 -0 0.000391751)
(0 -0 0.000171606)
(0 -0 6.77671e-05)
(0 -0 2.46392e-05)
(0 -0 8.39082e-06)
(0 -0 2.73896e-06)
(0 -0 9.13501e-07)
(0 -0 3.67958e-07)
(0 -0 2.31601e-07)
(0 -0 2.45984e-07)
(0 -0 3.30288e-07)
(0 -0 4.48864e-07)
(0 -0 5.67226e-07)
(0 -0 6.75242e-07)
(0 -0 8.76403e-07)
(0 -0 1.25481e-06)
(0 -0 1.48752e-06)
(0 -0 -0.00246228)
(0 -0 -0.000203832)
(0 -0 0.00131669)
(0 -0 0.00167438)
(0 -0 0.00130898)
(0 -0 0.000791759)
(0 -0 0.000402076)
(0 -0 0.000179125)
(0 -0 7.21796e-05)
(0 -0 2.70412e-05)
(0 -0 9.7651e-06)
(0 -0 3.63833e-06)
(0 -0 1.57344e-06)
(0 -0 8.84682e-07)
(0 -0 6.59271e-07)
(0 -0 6.12358e-07)
(0 -0 6.51281e-07)
(0 -0 7.24683e-07)
(0 -0 7.79137e-07)
(0 -0 8.22907e-07)
(0 -0 9.84189e-07)
(0 -0 1.33015e-06)
(0 -0 1.51407e-06)
(0 -7.02503e-23 -0.00253011)
(0 -0 -0.000301998)
(0 -0 0.00124067)
(0 -0 0.00163666)
(0 -0 0.00130109)
(0 -0 0.00079727)
(0 -0 0.00040979)
(0 -0 0.000184826)
(0 -0 7.55315e-05)
(0 -0 2.8855e-05)
(0 -0 1.07837e-05)
(0 -0 4.28169e-06)
(0 -0 2.0373e-06)
(0 -0 1.26101e-06)
(0 -0 9.8935e-07)
(0 -0 9.08773e-07)
(0 -0 9.11386e-07)
(0 -0 9.28242e-07)
(0 -0 9.18941e-07)
(0 -0 9.30538e-07)
(0 -0 1.08713e-06)
(0 -0 1.41301e-06)
(0 -0 1.55805e-06)
(0 -3.91331e-21 -0.00258818)
(0 -0 -0.000383707)
(0 -0 0.00117744)
(0 -0 0.00160448)
(0 -0 0.00129327)
(0 -0 0.000800673)
(0 -0 0.000415363)
(0 -0 0.000189052)
(0 -0 7.80194e-05)
(0 -0 3.01782e-05)
(0 -0 1.15027e-05)
(0 -0 4.7265e-06)
(0 -0 2.37042e-06)
(0 -0 1.54914e-06)
(0 -0 1.25049e-06)
(0 -0 1.14346e-06)
(0 -0 1.10338e-06)
(0 -0 1.06491e-06)
(0 -0 1.02651e-06)
(0 -0 1.04537e-06)
(0 -0 1.20436e-06)
(0 -0 1.50381e-06)
(0 -0 1.62559e-06)
(0 7.33771e-21 -0.00263702)
(0 -0 -0.000451148)
(0 -0 0.00112491)
(0 -0 0.0015768)
(0 -0 0.00128542)
(0 -0 0.000802311)
(0 -0 0.000419162)
(0 -0 0.00019205)
(0 -0 7.97819e-05)
(0 -0 3.1097e-05)
(0 -0 1.19925e-05)
(0 -0 5.03642e-06)
(0 -0 2.61169e-06)
(0 -0 1.75807e-06)
(0 -0 1.43594e-06)
(0 -0 1.30338e-06)
(0 -0 1.23055e-06)
(0 -0 1.17334e-06)
(0 -0 1.14479e-06)
(0 -0 1.17038e-06)
(0 -0 1.30376e-06)
(0 -0 1.56507e-06)
(0 -0 1.66623e-06)
(0 -3.42635e-21 -0.00267742)
(0 -0 -0.000506382)
(0 -0 0.00108126)
(0 -0 0.00155276)
(0 -0 0.00127749)
(0 -0 0.000802434)
(0 -0 0.000421448)
(0 -0 0.000194003)
(0 -0 8.094e-05)
(0 -0 3.16936e-05)
(0 -0 1.23086e-05)
(0 -0 5.23528e-06)
(0 -0 2.75604e-06)
(0 -0 1.87339e-06)
(0 -0 1.53988e-06)
(0 -0 1.40174e-06)
(0 -0 1.3299e-06)
(0 -0 1.28573e-06)
(0 -0 1.26114e-06)
(0 -0 1.25998e-06)
(0 -0 1.35441e-06)
(0 -0 1.59388e-06)
(0 -0 1.68355e-06)
(0 -0 -0.00271025)
(0 -0 -0.000551227)
(0 -0 0.00104499)
(0 -0 0.00153167)
(0 -0 0.0012694)
(0 -0 0.00080124)
(0 -0 0.00042245)
(0 -0 0.00019509)
(0 -0 8.16159e-05)
(0 -0 3.2044e-05)
(0 -0 1.24879e-05)
(0 -0 5.32817e-06)
(0 -0 2.80602e-06)
(0 -0 1.918e-06)
(0 -0 1.60331e-06)
(0 -0 1.48793e-06)
(0 -0 1.43328e-06)
(0 -0 1.38958e-06)
(0 -0 1.34022e-06)
(0 -0 1.31146e-06)
(0 -0 1.40128e-06)
(0 -0 1.64339e-06)
(0 -0 1.70963e-06)
(0 -3.56151e-23 -0.0027363)
(0 -0 -0.000587175)
(0 -0 0.00101491)
(0 -0 0.00151299)
(0 -0 0.00126116)
(0 -0 0.000798954)
(0 -0 0.000422423)
(0 -0 0.000195517)
(0 -0 8.19543e-05)
(0 -0 3.22414e-05)
(0 -0 1.2584e-05)
(0 -0 5.3647e-06)
(0 -0 2.83525e-06)
(0 -0 1.98021e-06)
(0 -0 1.70302e-06)
(0 -0 1.60725e-06)
(0 -0 1.54938e-06)
(0 -0 1.48453e-06)
(0 -0 1.41946e-06)
(0 -0 1.40542e-06)
(0 -0 1.52018e-06)
(0 -0 1.74343e-06)
(0 -0 1.72627e-06)
(0 -0 -0.00275619)
(0 -0 -0.000615423)
(0 -0 0.000990062)
(0 -0 0.00149633)
(0 -0 0.0012528)
(0 -0 0.000795821)
(0 -0 0.000421634)
(0 -0 0.000195504)
(0 -0 8.21108e-05)
(0 -0 3.23841e-05)
(0 -0 1.26814e-05)
(0 -0 5.4526e-06)
(0 -0 2.95864e-06)
(0 -0 2.14637e-06)
(0 -0 1.88886e-06)
(0 -0 1.7881e-06)
(0 -0 1.71309e-06)
(0 -0 1.63982e-06)
(0 -0 1.59454e-06)
(0 -0 1.61366e-06)
(0 -0 1.72663e-06)
(0 -0 1.88535e-06)
(0 -0 1.7496e-06)
(0 1.65649e-21 -0.0027705)
(0 -0 -0.000637036)
(0 -0 0.000969635)
(0 -0 0.00148137)
(0 -0 0.00124439)
(0 -0 0.000792065)
(0 -0 0.000420317)
(0 -0 0.000195218)
(0 -0 8.21737e-05)
(0 -0 3.25311e-05)
(0 -0 1.28555e-05)
(0 -0 5.66986e-06)
(0 -0 3.2209e-06)
(0 -0 2.43014e-06)
(0 -0 2.17266e-06)
(0 -0 2.06326e-06)
(0 -0 1.98331e-06)
(0 -0 1.92081e-06)
(0 -0 1.89657e-06)
(0 -0 1.91509e-06)
(0 -0 1.9893e-06)
(0 -0 2.10388e-06)
(0 -0 1.93438e-06)
(0 -3.03689e-21 -0.00278002)
(0 -0 -0.00065306)
(0 -0 0.000952837)
(0 -0 0.00146783)
(0 -0 0.00123596)
(0 -0 0.000787828)
(0 -0 0.000418573)
(0 -0 0.00019467)
(0 -0 8.21087e-05)
(0 -0 3.26524e-05)
(0 -0 1.3073e-05)
(0 -0 5.94872e-06)
(0 -0 3.53121e-06)
(0 -0 2.75397e-06)
(0 -0 2.50223e-06)
(0 -0 2.39355e-06)
(0 -0 2.31436e-06)
(0 -0 2.25223e-06)
(0 -0 2.21614e-06)
(0 -0 2.20358e-06)
(0 -0 2.2617e-06)
(0 -0 2.43144e-06)
(0 -0 2.30442e-06)
(0 1.38153e-21 -0.00278589)
(0 -0 -0.000664818)
(0 -0 0.00093897)
(0 -0 0.00145535)
(0 -0 0.00122746)
(0 -0 0.000783094)
(0 -0 0.000416307)
(0 -0 0.0001937)
(0 -0 8.17357e-05)
(0 -0 3.25508e-05)
(0 -0 1.31009e-05)
(0 -0 6.03517e-06)
(0 -0 3.64904e-06)
(0 -0 2.89583e-06)
(0 -0 2.65432e-06)
(0 -0 2.5442e-06)
(0 -0 2.45888e-06)
(0 -0 2.38092e-06)
(0 -0 2.31981e-06)
(0 -0 2.29399e-06)
(0 -0 2.39191e-06)
(0 -0 2.68708e-06)
(0 -0 2.7979e-06)
(0 -0 -0.00278846)
(0 -0 -0.000673133)
(0 -0 0.000927299)
(0 -0 0.00144383)
(0 -0 0.00121886)
(0 -0 0.000777808)
(0 -0 0.000413383)
(0 -0 0.000192112)
(0 -0 8.08118e-05)
(0 -0 3.19384e-05)
(0 -0 1.26275e-05)
(0 -0 5.62328e-06)
(0 -0 3.27255e-06)
(0 -0 2.53826e-06)
(0 -0 2.29902e-06)
(0 -0 2.18966e-06)
(0 -0 2.10748e-06)
(0 -0 2.02818e-06)
(0 -0 1.9694e-06)
(0 -0 1.97065e-06)
(0 -0 2.14884e-06)
(0 -0 2.59589e-06)
(0 -0 2.95076e-06)
(0 -0 -0.000677285)
(0 -0 0.000917988)
(0 -0 0.00143334)
(0 -0 0.00121045)
(0 -0 0.000772221)
(0 -0 0.000409973)
(0 -0 0.000190009)
(0 -0 7.93842e-05)
(0 -0 3.0822e-05)
(0 -0 1.16439e-05)
(0 -0 4.69771e-06)
(0 -0 2.36814e-06)