/*--------------------------------*- C++ -*----------------------------------*\
| =========                 |                                                 |
| \\      /  F ield         | OpenFOAM: The Open Source CFD Toolbox           |
|  \\    /   O peration     | Version:  2412                                  |
|   \\  /    A nd           | Website:  www.openfoam.com                      |
|    \\/     M anipulation  |                                                 |
\*---------------------------------------------------------------------------*/
FoamFile
{
    version     2.0;
    format      ascii;
    arch        "LSB;label=32;scalar=64";
    class       volScalarField;
    location    "3";
    object      p;
}
// * * * * * * * * * * * * * * * * * * * * * * * * * * * * * * * * * * * * * //

dimensions      [0 2 -2 0 0 0 0];

internalField   nonuniform List<scalar> 
5285
(
-5.34012e-05
-5.07606e-05
-4.81982e-05
-4.57145e-05
-4.33093e-05
-4.09824e-05
-3.87335e-05
-3.65621e-05
-3.44677e-05
-3.24497e-05
-3.05074e-05
-2.864e-05
-2.68465e-05
-2.5126e-05
-2.34773e-05
-2.18993e-05
-2.03906e-05
-1.89502e-05
-1.75764e-05
-1.62679e-05
-1.50231e-05
-1.38405e-05
-1.27185e-05
-1.16553e-05
-1.06492e-05
-9.69864e-06
-8.80149e-06
-7.95617e-06
-7.16063e-06
-6.41316e-06
-5.71165e-06
-5.05456e-06
-4.43945e-06
-3.86505e-06
-3.32881e-06
-2.82936e-06
-2.36424e-06
-1.93229e-06
-1.53041e-06
-1.15848e-06
-8.12444e-07
-4.92427e-07
-1.95537e-07
8.05366e-08
3.35981e-07
5.74847e-07
7.97357e-07
1.00581e-06
1.20321e-06
1.3895e-06
1.56903e-06
1.74218e-06
1.91225e-06
2.0812e-06
2.25247e-06
2.42506e-06
2.61673e-06
2.77773e-06
3.09289e-06
2.98145e-06
4.20582e-06
1.87296e-06
8.50593e-06
-4.92963e-06
2.17412e-05
-2.04246e-05
3.50693e-05
-1.30284e-05
-3.70826e-06
5.6527e-05
-6.34622e-05
-5.33784e-05
-5.07388e-05
-4.81776e-05
-4.56949e-05
-4.32907e-05
-4.09648e-05
-3.87168e-05
-3.65463e-05
-3.44528e-05
-3.24356e-05
-3.04942e-05
-2.86275e-05
-2.68348e-05
-2.51149e-05
-2.34669e-05
-2.18896e-05
-2.03816e-05
-1.89417e-05
-1.75685e-05
-1.62605e-05
-1.50163e-05
-1.38341e-05
-1.27125e-05
-1.16498e-05
-1.06441e-05
-9.69394e-06
-8.79714e-06
-7.95216e-06
-7.15694e-06
-6.40978e-06
-5.70855e-06
-5.05171e-06
-4.43687e-06
-3.86268e-06
-3.32666e-06
-2.82741e-06
-2.36247e-06
-1.9307e-06
-1.52897e-06
-1.15718e-06
-8.11299e-07
-4.9139e-07
-1.94625e-07
8.13447e-08
3.36687e-07
5.75463e-07
7.97877e-07
1.00626e-06
1.20358e-06
1.38979e-06
1.56927e-06
1.74233e-06
1.91237e-06
2.08122e-06
2.25248e-06
2.425e-06
2.61656e-06
2.77762e-06
3.09251e-06
2.98148e-06
4.20477e-06
1.87401e-06
8.50307e-06
-4.92679e-06
2.17381e-05
-2.0426e-05
3.50761e-05
-1.30401e-05
-3.70251e-06
5.65354e-05
-6.34864e-05
-5.33328e-05
-5.06954e-05
-4.81363e-05
-4.56556e-05
-4.32535e-05
-4.09295e-05
-3.86833e-05
-3.65147e-05
-3.44229e-05
-3.24075e-05
-3.04676e-05
-2.86025e-05
-2.68113e-05
-2.50929e-05
-2.34462e-05
-2.18701e-05
-2.03634e-05
-1.89247e-05
-1.75526e-05
-1.62458e-05
-1.50025e-05
-1.38214e-05
-1.27007e-05
-1.16388e-05
-1.0634e-05
-9.68452e-06
-8.78845e-06
-7.94415e-06
-7.14957e-06
-6.403e-06
-5.70235e-06
-5.04602e-06
-4.4317e-06
-3.85794e-06
-3.32236e-06
-2.82351e-06
-2.35893e-06
-1.92751e-06
-1.52611e-06
-1.15459e-06
-8.09009e-07
-4.89319e-07
-1.92811e-07
8.29631e-08
3.38085e-07
5.76698e-07
7.98906e-07
1.00716e-06
1.20429e-06
1.39037e-06
1.56974e-06
1.74262e-06
1.91261e-06
2.08126e-06
2.25246e-06
2.42486e-06
2.61625e-06
2.77736e-06
3.09176e-06
2.98153e-06
4.20267e-06
1.87608e-06
8.49735e-06
-4.92116e-06
2.17319e-05
-2.04288e-05
3.50896e-05
-1.30634e-05
-3.69093e-06
5.65518e-05
-6.35343e-05
-5.32643e-05
-5.06302e-05
-4.80743e-05
-4.55968e-05
-4.31976e-05
-4.08765e-05
-3.86332e-05
-3.64673e-05
-3.43782e-05
-3.23652e-05
-3.04278e-05
-2.8565e-05
-2.6776e-05
-2.50598e-05
-2.34151e-05
-2.1841e-05
-2.03362e-05
-1.88993e-05
-1.75289e-05
-1.62236e-05
-1.49819e-05
-1.38022e-05
-1.26829e-05
-1.16223e-05
-1.06187e-05
-9.6704e-06
-8.77542e-06
-7.93213e-06
-7.13852e-06
-6.39284e-06
-5.69305e-06
-5.03749e-06
-4.42394e-06
-3.85083e-06
-3.31592e-06
-2.81765e-06
-2.35363e-06
-1.92273e-06
-1.5218e-06
-1.1507e-06
-8.05571e-07
-4.86221e-07
-1.9009e-07
8.53807e-08
3.40182e-07
5.78537e-07
8.00454e-07
1.00849e-06
1.20538e-06
1.39125e-06
1.57043e-06
1.74307e-06
1.91295e-06
2.08135e-06
2.25242e-06
2.42464e-06
2.61579e-06
2.77695e-06
3.09065e-06
2.98157e-06
4.19954e-06
1.87916e-06
8.48881e-06
-4.91284e-06
2.1723e-05
-2.04335e-05
3.51106e-05
-1.30989e-05
-3.67344e-06
5.65771e-05
-6.36064e-05
-5.31731e-05
-5.05434e-05
-4.79917e-05
-4.55183e-05
-4.31232e-05
-4.0806e-05
-3.85664e-05
-3.64041e-05
-3.43185e-05
-3.2309e-05
-3.03748e-05
-2.85151e-05
-2.67291e-05
-2.50156e-05
-2.33738e-05
-2.18023e-05
-2.02999e-05
-1.88654e-05
-1.74972e-05
-1.61941e-05
-1.49544e-05
-1.37767e-05
-1.26592e-05
-1.16004e-05
-1.05983e-05
-9.65158e-06
-8.75805e-06
-7.91612e-06
-7.12379e-06
-6.3793e-06
-5.68065e-06
-5.02612e-06
-4.41359e-06
-3.84136e-06
-3.30734e-06
-2.80985e-06
-2.34656e-06
-1.91635e-06
-1.51607e-06
-1.14553e-06
-8.00987e-07
-4.82098e-07
-1.86464e-07
8.85963e-08
3.42979e-07
5.80979e-07
8.02521e-07
1.01027e-06
1.20682e-06
1.39241e-06
1.57135e-06
1.74368e-06
1.91338e-06
2.08147e-06
2.25235e-06
2.42435e-06
2.61518e-06
2.77639e-06
3.08918e-06
2.98159e-06
4.19542e-06
1.88316e-06
8.47768e-06
-4.90232e-06
2.17121e-05
-2.04415e-05
3.51407e-05
-1.31481e-05
-3.65017e-06
5.66135e-05
-6.3705e-05
-5.30591e-05
-5.04349e-05
-4.78885e-05
-4.54203e-05
-4.30302e-05
-4.07179e-05
-3.8483e-05
-3.63252e-05
-3.4244e-05
-3.22386e-05
-3.03085e-05
-2.84527e-05
-2.66704e-05
-2.49605e-05
-2.33221e-05
-2.17538e-05
-2.02546e-05
-1.8823e-05
-1.74577e-05
-1.61572e-05
-1.49201e-05
-1.37448e-05
-1.26296e-05
-1.15729e-05
-1.05729e-05
-9.62808e-06
-8.73635e-06
-7.89611e-06
-7.1054e-06
-6.36238e-06
-5.66518e-06
-5.01192e-06
-4.40066e-06
-3.82954e-06
-3.29662e-06
-2.8001e-06
-2.33774e-06
-1.90837e-06
-1.50891e-06
-1.13907e-06
-7.95257e-07
-4.76952e-07
-1.81934e-07
9.26074e-08
3.46472e-07
5.84022e-07
8.05106e-07
1.01247e-06
1.20862e-06
1.39387e-06
1.57249e-06
1.74445e-06
1.91391e-06
2.08163e-06
2.25226e-06
2.42399e-06
2.61442e-06
2.77568e-06
3.08735e-06
2.98163e-06
4.19025e-06
1.88819e-06
8.4637e-06
-4.88908e-06
2.16984e-05
-2.04516e-05
3.51788e-05
-1.321e-05
-3.62074e-06
5.66593e-05
-6.38248e-05
-5.29225e-05
-5.03048e-05
-4.77648e-05
-4.53028e-05
-4.29187e-05
-4.06122e-05
-3.8383e-05
-3.62306e-05
-3.41546e-05
-3.21543e-05
-3.0229e-05
-2.83779e-05
-2.66e-05
-2.48945e-05
-2.32601e-05
-2.16957e-05
-2.02002e-05
-1.87722e-05
-1.74103e-05
-1.6113e-05
-1.4879e-05
-1.37065e-05
-1.2594e-05
-1.154e-05
-1.05424e-05
-9.59989e-06
-8.71034e-06
-7.87213e-06
-7.08334e-06
-6.34211e-06
-5.64661e-06
-4.9949e-06
-4.38516e-06
-3.81537e-06
-3.28376e-06
-2.78841e-06
-2.32717e-06
-1.89882e-06
-1.50033e-06
-1.13133e-06
-7.88384e-07
-4.70787e-07
-1.76502e-07
9.74121e-08
3.50662e-07
5.87666e-07
8.08209e-07
1.01512e-06
1.21079e-06
1.39561e-06
1.57385e-06
1.74537e-06
1.91453e-06
2.08182e-06
2.25215e-06
2.42356e-06
2.6135e-06
2.77484e-06
3.0851e-06
2.98184e-06
4.18352e-06
1.89553e-06
8.4439e-06
-4.86703e-06
2.16712e-05
-2.04478e-05
3.52069e-05
-1.32727e-05
-3.58046e-06
5.66893e-05
-6.3926e-05
-5.27593e-05
-5.01495e-05
-4.76171e-05
-4.51625e-05
-4.27856e-05
-4.0486e-05
-3.82635e-05
-3.61177e-05
-3.40479e-05
-3.20536e-05
-3.01341e-05
-2.82886e-05
-2.65161e-05
-2.48156e-05
-2.31861e-05
-2.16264e-05
-2.01353e-05
-1.87115e-05
-1.73537e-05
-1.60603e-05
-1.48298e-05
-1.36608e-05
-1.25516e-05
-1.15007e-05
-1.0506e-05
-9.56623e-06
-8.67928e-06
-7.84349e-06
-7.05701e-06
-6.3179e-06
-5.62445e-06
-4.97458e-06
-4.36664e-06
-3.79845e-06
-3.2684e-06
-2.77445e-06
-2.31454e-06
-1.8874e-06
-1.49008e-06
-1.12209e-06
-7.80175e-07
-4.6343e-07
-1.70016e-07
1.03143e-07
3.55666e-07
5.92011e-07
8.11917e-07
1.01827e-06
1.21338e-06
1.39769e-06
1.57548e-06
1.74648e-06
1.91527e-06
2.08206e-06
2.252e-06
2.42304e-06
2.6124e-06
2.77386e-06
3.08233e-06
2.98237e-06
4.17469e-06
1.90642e-06
8.41519e-06
-4.83002e-06
2.16189e-05
-2.04136e-05
3.52054e-05
-1.33239e-05
-3.52393e-06
5.66763e-05
-6.39685e-05
-5.25675e-05
-4.99669e-05
-4.74436e-05
-4.49977e-05
-4.26292e-05
-4.03378e-05
-3.81232e-05
-3.5985e-05
-3.39226e-05
-3.19354e-05
-3.00227e-05
-2.81836e-05
-2.64174e-05
-2.47229e-05
-2.30991e-05
-2.15449e-05
-2.00591e-05
-1.86403e-05
-1.72872e-05
-1.59983e-05
-1.47721e-05
-1.36072e-05
-1.25018e-05
-1.14545e-05
-1.04633e-05
-9.52668e-06
-8.64279e-06
-7.80984e-06
-7.02608e-06
-6.28946e-06
-5.59841e-06
-4.95071e-06
-4.34488e-06
-3.77858e-06
-3.25035e-06
-2.75805e-06
-2.29971e-06
-1.87399e-06
-1.47804e-06
-1.11124e-06
-7.70526e-07
-4.54789e-07
-1.62395e-07
1.09875e-07
3.61544e-07
5.97113e-07
8.16276e-07
1.02197e-06
1.21643e-06
1.40013e-06
1.57739e-06
1.74778e-06
1.91613e-06
2.08235e-06
2.25183e-06
2.42242e-06
2.61114e-06
2.7726e-06
3.07937e-06
2.98214e-06
4.16642e-06
1.91431e-06
8.39154e-06
-4.80479e-06
2.15857e-05
-2.04081e-05
3.52349e-05
-1.33954e-05
-3.47618e-06
5.67055e-05
-6.40755e-05
-5.23511e-05
-4.97609e-05
-4.72476e-05
-4.48116e-05
-4.24526e-05
-4.01704e-05
-3.79648e-05
-3.58351e-05
-3.3781e-05
-3.18018e-05
-2.98968e-05
-2.80652e-05
-2.6306e-05
-2.46183e-05
-2.3001e-05
-2.1453e-05
-1.9973e-05
-1.85598e-05
-1.72121e-05
-1.59283e-05
-1.4707e-05
-1.35466e-05
-1.24456e-05
-1.14023e-05
-1.0415e-05
-9.48204e-06
-8.60159e-06
-7.77186e-06
-6.99115e-06
-6.25736e-06
-5.56901e-06
-4.92377e-06
-4.32031e-06
-3.75615e-06
-3.22997e-06
-2.73954e-06
-2.28296e-06
-1.85886e-06
-1.46444e-06
-1.099e-06
-7.5963e-07
-4.45039e-07
-1.53791e-07
1.17473e-07
3.68181e-07
6.02869e-07
8.21199e-07
1.02614e-06
1.21987e-06
1.40288e-06
1.57954e-06
1.74925e-06
1.91709e-06
2.08267e-06
2.25163e-06
2.42171e-06
2.60974e-06
2.77109e-06
3.07625e-06
2.98131e-06
4.15848e-06
1.92014e-06
8.37078e-06
-4.78611e-06
2.15612e-05
-2.04145e-05
3.52742e-05
-1.34715e-05
-3.43365e-06
5.67474e-05
-6.42013e-05
-5.211e-05
-4.95313e-05
-4.70294e-05
-4.46043e-05
-4.22559e-05
-3.99841e-05
-3.77883e-05
-3.56683e-05
-3.36234e-05
-3.16531e-05
-2.97567e-05
-2.79332e-05
-2.61819e-05
-2.45018e-05
-2.28917e-05
-2.13506e-05
-1.98772e-05
-1.84703e-05
-1.71285e-05
-1.58503e-05
-1.46344e-05
-1.34791e-05
-1.23829e-05
-1.13442e-05
-1.03612e-05
-9.43232e-06
-8.55571e-06
-7.72956e-06
-6.95226e-06
-6.22161e-06
-5.53626e-06
-4.89377e-06
-4.29294e-06
-3.73117e-06
-3.20727e-06
-2.71892e-06
-2.26431e-06
-1.842e-06
-1.44929e-06
-1.08536e-06
-7.47491e-07
-4.34184e-07
-1.44207e-07
1.25931e-07
3.75572e-07
6.09277e-07
8.26685e-07
1.03078e-06
1.2237e-06
1.40594e-06
1.58193e-06
1.7509e-06
1.91816e-06
2.08304e-06
2.25141e-06
2.42091e-06
2.6082e-06
2.76935e-06
3.07289e-06
2.98004e-06
4.15036e-06
1.9252e-06
8.34989e-06
-4.76781e-06
2.15345e-05
-2.04166e-05
3.53048e-05
-1.35399e-05
-3.39172e-06
5.67762e-05
-6.43046e-05
-5.18443e-05
-4.92785e-05
-4.6789e-05
-4.43759e-05
-4.20393e-05
-3.97788e-05
-3.7594e-05
-3.54845e-05
-3.34498e-05
-3.14893e-05
-2.96023e-05
-2.77879e-05
-2.60453e-05
-2.43734e-05
-2.27713e-05
-2.12378e-05
-1.97716e-05
-1.83716e-05
-1.70364e-05
-1.57645e-05
-1.45544e-05
-1.34048e-05
-1.23139e-05
-1.12802e-05
-1.0302e-05
-9.37755e-06
-8.50517e-06
-7.68297e-06
-6.90941e-06
-6.18223e-06
-5.50018e-06
-4.86072e-06
-4.26278e-06
-3.70365e-06
-3.18227e-06
-2.69621e-06
-2.24377e-06
-1.82343e-06
-1.4326e-06
-1.07034e-06
-7.34115e-07
-4.22228e-07
-1.33649e-07
1.35248e-07
3.83716e-07
6.16333e-07
8.32731e-07
1.03588e-06
1.22792e-06
1.40932e-06
1.58455e-06
1.75271e-06
1.91932e-06
2.08344e-06
2.25116e-06
2.42002e-06
2.60651e-06
2.76739e-06
3.0693e-06
2.97837e-06
4.142e-06
1.9296e-06
8.32864e-06
-4.74944e-06
2.15048e-05
-2.04133e-05
3.53257e-05
-1.35997e-05
-3.35013e-06
5.67904e-05
-6.43808e-05
-5.15542e-05
-4.90024e-05
-4.65264e-05
-4.41266e-05
-4.18028e-05
-3.95546e-05
-3.73818e-05
-3.52838e-05
-3.32603e-05
-3.13105e-05
-2.94337e-05
-2.76292e-05
-2.58961e-05
-2.42333e-05
-2.26398e-05
-2.11146e-05
-1.96564e-05
-1.82639e-05
-1.69358e-05
-1.56707e-05
-1.44672e-05
-1.33237e-05
-1.22386e-05
-1.12104e-05
-1.02373e-05
-9.31775e-06
-8.44999e-06
-7.6321e-06
-6.86262e-06
-6.13923e-06
-5.46079e-06
-4.82464e-06
-4.22985e-06
-3.67361e-06
-3.15496e-06
-2.67142e-06
-2.22133e-06
-1.80315e-06
-1.41438e-06
-1.05395e-06
-7.19506e-07
-4.09179e-07
-1.22119e-07
1.45417e-07
3.92608e-07
6.24035e-07
8.39333e-07
1.04146e-06
1.23253e-06
1.413e-06
1.58742e-06
1.7547e-06
1.92058e-06
2.08389e-06
2.25088e-06
2.41904e-06
2.60467e-06
2.7652e-06
3.06547e-06
2.97627e-06
4.13343e-06
1.93327e-06
8.30722e-06
-4.7315e-06
2.14731e-05
-2.04064e-05
3.53391e-05
-1.36528e-05
-3.30888e-06
5.67926e-05
-6.44329e-05
-5.12398e-05
-4.87032e-05
-4.6242e-05
-4.38564e-05
-4.15464e-05
-3.93117e-05
-3.71518e-05
-3.50664e-05
-3.30549e-05
-3.11167e-05
-2.92511e-05
-2.74573e-05
-2.57344e-05
-2.40814e-05
-2.24974e-05
-2.09811e-05
-1.95315e-05
-1.81471e-05
-1.68268e-05
-1.55691e-05
-1.43726e-05
-1.32357e-05
-1.21569e-05
-1.11347e-05
-1.01672e-05
-9.25295e-06
-8.39019e-06
-7.57697e-06
-6.81192e-06
-6.09264e-06
-5.41809e-06
-4.78554e-06
-4.19416e-06
-3.64106e-06
-3.12536e-06
-2.64455e-06
-2.19701e-06
-1.78118e-06
-1.39463e-06
-1.03618e-06
-7.03672e-07
-3.9504e-07
-1.09623e-07
1.56436e-07
4.02245e-07
6.32379e-07
8.46489e-07
1.0475e-06
1.23753e-06
1.41699e-06
1.59052e-06
1.75685e-06
1.92194e-06
2.08437e-06
2.25057e-06
2.41797e-06
2.60269e-06
2.76278e-06
3.06141e-06
2.97375e-06
4.12465e-06
1.9362e-06
8.28568e-06
-4.7141e-06
2.14397e-05
-2.03964e-05
3.53458e-05
-1.37001e-05
-3.26773e-06
5.67836e-05
-6.44623e-05
-5.09013e-05
-4.83809e-05
-4.59356e-05
-4.35655e-05
-4.12705e-05
-3.90502e-05
-3.69042e-05
-3.48323e-05
-3.28338e-05
-3.09081e-05
-2.90545e-05
-2.72722e-05
-2.55603e-05
-2.3918e-05
-2.2344e-05
-2.08374e-05
-1.9397e-05
-1.80214e-05
-1.67095e-05
-1.54598e-05
-1.42708e-05
-1.3141e-05
-1.2069e-05
-1.10532e-05
-1.00918e-05
-9.18318e-06
-8.3258e-06
-7.51761e-06
-6.75733e-06
-6.04248e-06
-5.37212e-06
-4.74345e-06
-4.15573e-06
-3.60601e-06
-3.09349e-06
-2.61561e-06
-2.17083e-06
-1.75752e-06
-1.37336e-06
-1.01706e-06
-6.86618e-07
-3.7982e-07
-9.6166e-08
1.68299e-07
4.12622e-07
6.41361e-07
8.54196e-07
1.05399e-06
1.24291e-06
1.42129e-06
1.59386e-06
1.75918e-06
1.92339e-06
2.08489e-06
2.25023e-06
2.41681e-06
2.60056e-06
2.76014e-06
3.0571e-06
2.97082e-06
4.11564e-06
1.9384e-06
8.26396e-06
-4.69722e-06
2.14046e-05
-2.03835e-05
3.5346e-05
-1.37418e-05
-3.22648e-06
5.67635e-05
-6.44695e-05
-5.05388e-05
-4.80359e-05
-4.56076e-05
-4.3254e-05
-4.09749e-05
-3.87701e-05
-3.66392e-05
-3.45816e-05
-3.2597e-05
-3.06847e-05
-2.88439e-05
-2.7074e-05
-2.5374e-05
-2.37429e-05
-2.21798e-05
-2.06836e-05
-1.9253e-05
-1.78869e-05
-1.65839e-05
-1.53426e-05
-1.41617e-05
-1.30397e-05
-1.19749e-05
-1.09659e-05
-1.0011e-05
-9.10847e-06
-8.25685e-06
-7.45406e-06
-6.69887e-06
-5.98876e-06
-5.32289e-06
-4.69837e-06
-4.11457e-06
-3.56848e-06
-3.05936e-06
-2.58463e-06
-2.14279e-06
-1.73219e-06
-1.35058e-06
-9.96586e-07
-6.68352e-07
-3.63526e-07
-8.17543e-08
1.81001e-07
4.23734e-07
6.50977e-07
8.6245e-07
1.06095e-06
1.24867e-06
1.42589e-06
1.59742e-06
1.76167e-06
1.92494e-06
2.08545e-06
2.24986e-06
2.41555e-06
2.59828e-06
2.75726e-06
3.05256e-06
2.96748e-06
4.10639e-06
1.93991e-06
8.24203e-06
-4.68083e-06
2.13677e-05
-2.03676e-05
3.53399e-05
-1.37783e-05
-3.18496e-06
5.67325e-05
-6.4455e-05
-5.01524e-05
-4.76682e-05
-4.52581e-05
-4.29221e-05
-4.066e-05
-3.84717e-05
-3.63567e-05
-3.43145e-05
-3.23447e-05
-3.04467e-05
-2.86196e-05
-2.68628e-05
-2.51754e-05
-2.35564e-05
-2.20049e-05
-2.05196e-05
-1.90996e-05
-1.77435e-05
-1.645e-05
-1.52178e-05
-1.40455e-05
-1.29316e-05
-1.18746e-05
-1.08729e-05
-9.92485e-06
-9.02886e-06
-8.18338e-06
-7.38633e-06
-6.63657e-06
-5.93152e-06
-5.27042e-06
-4.65034e-06
-4.0707e-06
-3.52849e-06
-3.02299e-06
-2.55161e-06
-2.11291e-06
-1.70519e-06
-1.3263e-06
-9.74769e-07
-6.48883e-07
-3.46163e-07
-6.63938e-08
1.94536e-07
4.35577e-07
6.61223e-07
8.71247e-07
1.06836e-06
1.25481e-06
1.4308e-06
1.60121e-06
1.76432e-06
1.92658e-06
2.08605e-06
2.24946e-06
2.41421e-06
2.59586e-06
2.75415e-06
3.04777e-06
2.96373e-06
4.09688e-06
1.94073e-06
8.21986e-06
-4.6649e-06
2.13292e-05
-2.0349e-05
3.53279e-05
-1.38099e-05
-3.14302e-06
5.66906e-05
-6.44199e-05
-4.97423e-05
-4.7278e-05
-4.48871e-05
-4.25698e-05
-4.03259e-05
-3.81551e-05
-3.60569e-05
-3.40311e-05
-3.2077e-05
-3.01941e-05
-2.83816e-05
-2.66387e-05
-2.49647e-05
-2.33585e-05
-2.18192e-05
-2.03457e-05
-1.89368e-05
-1.75913e-05
-1.6308e-05
-1.50854e-05
-1.39222e-05
-1.2817e-05
-1.17681e-05
-1.07742e-05
-9.83348e-06
-8.94438e-06
-8.10541e-06
-7.31446e-06
-6.57046e-06
-5.87078e-06
-5.21474e-06
-4.59937e-06
-4.02415e-06
-3.48605e-06
-2.98438e-06
-2.51658e-06
-2.0812e-06
-1.67655e-06
-1.30053e-06
-9.5162e-07
-6.28218e-07
-3.27741e-07
-5.00913e-08
2.08897e-07
4.48145e-07
6.72094e-07
8.80583e-07
1.07622e-06
1.26132e-06
1.436e-06
1.60523e-06
1.76714e-06
1.92831e-06
2.08668e-06
2.24902e-06
2.41276e-06
2.59329e-06
2.75082e-06
3.04273e-06
2.95958e-06
4.0871e-06
1.9409e-06
8.19741e-06
-4.6494e-06
2.1289e-05
-2.03278e-05
3.53102e-05
-1.38369e-05
-3.10051e-06
5.66382e-05
-6.43648e-05
-4.93088e-05
-4.68654e-05
-4.44949e-05
-4.21974e-05
-3.99726e-05
-3.78203e-05
-3.57401e-05
-3.37315e-05
-3.17941e-05
-2.99271e-05
-2.813e-05
-2.64019e-05
-2.4742e-05
-2.31493e-05
-2.1623e-05
-2.01618e-05
-1.87647e-05
-1.74305e-05
-1.61578e-05
-1.49454e-05
-1.37919e-05
-1.26958e-05
-1.16556e-05
-1.06698e-05
-9.73688e-06
-8.85508e-06
-8.02298e-06
-7.23848e-06
-6.50056e-06
-5.80657e-06
-5.15587e-06
-4.54549e-06
-3.97493e-06
-3.44118e-06
-2.94357e-06
-2.47954e-06
-2.04767e-06
-1.64626e-06
-1.27328e-06
-9.27149e-07
-6.06367e-07
-3.08268e-07
-3.28536e-08
2.2408e-07
4.61433e-07
6.83586e-07
8.90453e-07
1.08453e-06
1.26821e-06
1.4415e-06
1.60947e-06
1.77013e-06
1.93013e-06
2.08734e-06
2.24855e-06
2.41122e-06
2.59057e-06
2.74725e-06
3.03744e-06
2.95503e-06
4.07704e-06
1.94042e-06
8.17463e-06
-4.63429e-06
2.1247e-05
-2.03041e-05
3.5287e-05
-1.38597e-05
-3.05727e-06
5.65753e-05
-6.42908e-05
-4.88519e-05
-4.64307e-05
-4.40817e-05
-4.18051e-05
-3.96005e-05
-3.74677e-05
-3.54063e-05
-3.34159e-05
-3.14959e-05
-2.96458e-05
-2.78649e-05
-2.61523e-05
-2.45073e-05
-2.29289e-05
-2.14162e-05
-1.99681e-05
-1.85834e-05
-1.7261e-05
-1.59996e-05
-1.4798e-05
-1.36546e-05
-1.25681e-05
-1.1537e-05
-1.05599e-05
-9.63511e-06
-8.76098e-06
-7.93613e-06
-7.15843e-06
-6.42692e-06
-5.73892e-06
-5.09384e-06
-4.48873e-06
-3.92306e-06
-3.39391e-06
-2.90057e-06
-2.44051e-06
-2.01234e-06
-1.61435e-06
-1.24457e-06
-9.01367e-07
-5.83339e-07
-2.87752e-07
-1.46884e-08
2.40075e-07
4.75435e-07
6.95693e-07
9.00853e-07
1.09328e-06
1.27546e-06
1.4473e-06
1.61393e-06
1.77328e-06
1.93203e-06
2.08804e-06
2.24805e-06
2.40959e-06
2.5877e-06
2.74346e-06
3.0319e-06
2.95009e-06
4.06669e-06
1.93933e-06
8.15149e-06
-4.61955e-06
2.12034e-05
-2.02779e-05
3.52584e-05
-1.38786e-05
-3.01317e-06
5.65021e-05
-6.41985e-05
-4.8372e-05
-4.59741e-05
-4.36477e-05
-4.13929e-05
-3.92095e-05
-3.70973e-05
-3.50557e-05
-3.30844e-05
-3.11828e-05
-2.93504e-05
-2.75865e-05
-2.58902e-05
-2.42609e-05
-2.26975e-05
-2.11991e-05
-1.97646e-05
-1.8393e-05
-1.7083e-05
-1.58335e-05
-1.46431e-05
-1.35103e-05
-1.2434e-05
-1.14125e-05
-1.04445e-05
-9.5282e-06
-8.66214e-06
-7.8449e-06
-7.07434e-06
-6.34955e-06
-5.66785e-06
-5.02867e-06
-4.42909e-06
-3.86858e-06
-3.34426e-06
-2.85539e-06
-2.3995e-06
-1.97523e-06
-1.58083e-06
-1.21441e-06
-8.74285e-07
-5.59144e-07
-2.66202e-07
4.3965e-09
2.56878e-07
4.90144e-07
7.0841e-07
9.11778e-07
1.10248e-06
1.28307e-06
1.45339e-06
1.61861e-06
1.77659e-06
1.93403e-06
2.08877e-06
2.24752e-06
2.40786e-06
2.58468e-06
2.73944e-06
3.0261e-06
2.94475e-06
4.05601e-06
1.93765e-06
8.12793e-06
-4.6051e-06
2.11579e-05
-2.02493e-05
3.52247e-05
-1.38938e-05
-2.96804e-06
5.64187e-05
-6.40884e-05
-4.78692e-05
-4.54957e-05
-4.3193e-05
-4.09612e-05
-3.88001e-05
-3.67093e-05
-3.46884e-05
-3.27371e-05
-3.08549e-05
-2.9041e-05
-2.72948e-05
-2.56157e-05
-2.40027e-05
-2.2455e-05
-2.09716e-05
-1.95515e-05
-1.81935e-05
-1.68966e-05
-1.56595e-05
-1.44808e-05
-1.33593e-05
-1.22936e-05
-1.12821e-05
-1.03235e-05
-9.41621e-06
-8.5586e-06
-7.74932e-06
-6.98625e-06
-6.26851e-06
-5.5934e-06
-4.96041e-06
-4.36662e-06
-3.8115e-06
-3.29223e-06
-2.80806e-06
-2.35655e-06
-1.93634e-06
-1.54572e-06
-1.18281e-06
-8.45916e-07
-5.33794e-07
-2.43629e-07
2.43927e-08
2.74479e-07
5.05553e-07
7.21732e-07
9.23223e-07
1.11211e-06
1.29105e-06
1.45978e-06
1.62351e-06
1.78005e-06
1.9361e-06
2.08954e-06
2.24695e-06
2.40603e-06
2.58151e-06
2.73518e-06
3.02004e-06
2.93903e-06
4.04501e-06
1.93539e-06
8.10389e-06
-4.59089e-06
2.11106e-05
-2.02183e-05
3.5186e-05
-1.39055e-05
-2.92176e-06
5.63253e-05
-6.39611e-05
-4.73438e-05
-4.49958e-05
-4.27179e-05
-4.05101e-05
-3.83722e-05
-3.63039e-05
-3.43047e-05
-3.23743e-05
-3.05122e-05
-2.87177e-05
-2.69902e-05
-2.53289e-05
-2.3733e-05
-2.22017e-05
-2.0734e-05
-1.93288e-05
-1.79851e-05
-1.67018e-05
-1.54776e-05
-1.43113e-05
-1.32014e-05
-1.21468e-05
-1.11458e-05
-1.01971e-05
-9.29919e-06
-8.45041e-06
-7.64945e-06
-6.8942e-06
-6.18382e-06
-5.5156e-06
-4.88907e-06
-4.30135e-06
-3.75185e-06
-3.23787e-06
-2.7586e-06
-2.31166e-06
-1.89571e-06
-1.50902e-06
-1.14978e-06
-8.16271e-07
-5.07298e-07
-2.20041e-07
4.52915e-08
2.92872e-07
5.21657e-07
7.35653e-07
9.35181e-07
1.12217e-06
1.29938e-06
1.46645e-06
1.62862e-06
1.78368e-06
1.93826e-06
2.09033e-06
2.24634e-06
2.4041e-06
2.57818e-06
2.7307e-06
3.01372e-06
2.93292e-06
4.03367e-06
1.9326e-06
8.07932e-06
-4.57684e-06
2.10613e-05
-2.01849e-05
3.51424e-05
-1.39141e-05
-2.87417e-06
5.62217e-05
-6.38169e-05
-4.6796e-05
-4.44746e-05
-4.22226e-05
-4.00399e-05
-3.79262e-05
-3.58813e-05
-3.39047e-05
-3.19962e-05
-3.0155e-05
-2.83807e-05
-2.66726e-05
-2.50299e-05
-2.34519e-05
-2.19376e-05
-2.04862e-05
-1.90967e-05
-1.77679e-05
-1.64987e-05
-1.5288e-05
-1.41345e-05
-1.30368e-05
-1.19937e-05
-1.10037e-05
-1.00654e-05
-9.17719e-06
-8.33762e-06
-7.54533e-06
-6.79824e-06
-6.09552e-06
-5.4345e-06
-4.81468e-06
-4.23329e-06
-3.68965e-06
-3.18119e-06
-2.70703e-06
-2.26486e-06
-1.85334e-06
-1.47076e-06
-1.11535e-06
-7.85364e-07
-4.79669e-07
-1.95451e-07
6.70837e-08
3.12049e-07
5.38446e-07
7.50166e-07
9.47648e-07
1.13266e-06
1.30806e-06
1.4734e-06
1.63393e-06
1.78745e-06
1.9405e-06
2.09115e-06
2.2457e-06
2.40207e-06
2.57471e-06
2.72598e-06
3.00713e-06
2.92644e-06
4.02196e-06
1.92928e-06
8.05416e-06
-4.56289e-06
2.10099e-05
-2.0149e-05
3.50938e-05
-1.39196e-05
-2.82514e-06
5.61082e-05
-6.3656e-05
-4.6226e-05
-4.39324e-05
-4.17073e-05
-3.95506e-05
-3.74622e-05
-3.54417e-05
-3.34887e-05
-3.16028e-05
-2.97834e-05
-2.80301e-05
-2.63422e-05
-2.47189e-05
-2.31594e-05
-2.16629e-05
-2.02285e-05
-1.88552e-05
-1.75419e-05
-1.62875e-05
-1.50908e-05
-1.39507e-05
-1.28656e-05
-1.18345e-05
-1.08558e-05
-9.92828e-06
-9.05026e-06
-8.22027e-06
-7.437e-06
-6.69839e-06
-6.00365e-06
-5.35011e-06
-4.73729e-06
-4.16248e-06
-3.62494e-06
-3.12222e-06
-2.65337e-06
-2.21617e-06
-1.80926e-06
-1.43095e-06
-1.07952e-06
-7.53209e-07
-4.50919e-07
-1.69867e-07
8.97597e-08
3.32e-07
5.55915e-07
7.65267e-07
9.60617e-07
1.14358e-06
1.31709e-06
1.48064e-06
1.63946e-06
1.79138e-06
1.94282e-06
2.09199e-06
2.24502e-06
2.39995e-06
2.57108e-06
2.72103e-06
3.00028e-06
2.91959e-06
4.00987e-06
1.92549e-06
8.02834e-06
-4.54894e-06
2.09564e-05
-2.01107e-05
3.50404e-05
-1.39223e-05
-2.77452e-06
5.59846e-05
-6.34787e-05
-4.56342e-05
-4.33694e-05
-4.11723e-05
-3.90427e-05
-3.69805e-05
-3.49853e-05
-3.30567e-05
-3.11943e-05
-2.93977e-05
-2.76662e-05
-2.59992e-05
-2.4396e-05
-2.28558e-05
-2.13778e-05
-1.9961e-05
-1.86045e-05
-1.73073e-05
-1.60682e-05
-1.48861e-05
-1.37598e-05
-1.26879e-05
-1.16693e-05
-1.07024e-05
-9.78595e-06
-8.91847e-06
-8.09843e-06
-7.32452e-06
-6.59472e-06
-5.90826e-06
-5.26249e-06
-4.65693e-06
-4.08896e-06
-3.55774e-06
-3.06099e-06
-2.59765e-06
-2.1656e-06
-1.76348e-06
-1.38961e-06
-1.0423e-06
-7.19819e-07
-4.2106e-07
-1.43302e-07
1.1331e-07
3.52717e-07
5.74054e-07
7.80948e-07
9.74082e-07
1.15491e-06
1.32646e-06
1.48816e-06
1.64519e-06
1.79546e-06
1.94522e-06
2.09286e-06
2.2443e-06
2.39772e-06
2.5673e-06
2.71586e-06
2.99314e-06
2.91237e-06
3.99738e-06
1.92124e-06
8.00178e-06
-4.5349e-06
2.09006e-05
-2.00698e-05
3.49821e-05
-1.39222e-05
-2.72216e-06
5.58509e-05
-6.32851e-05
-4.50207e-05
-4.27859e-05
-4.06178e-05
-3.85163e-05
-3.64812e-05
-3.45123e-05
-3.2609e-05
-3.07711e-05
-2.8998e-05
-2.72891e-05
-2.56438e-05
-2.40614e-05
-2.25412e-05
-2.10822e-05
-1.96838e-05
-1.83447e-05
-1.70641e-05
-1.58409e-05
-1.46739e-05
-1.35619e-05
-1.25036e-05
-1.1498e-05
-1.05433e-05
-9.63843e-06
-8.78188e-06
-7.97214e-06
-7.20794e-06
-6.48727e-06
-5.80939e-06
-5.17167e-06
-4.57363e-06
-4.01274e-06
-3.48809e-06
-2.99751e-06
-2.53989e-06
-2.11318e-06
-1.71602e-06
-1.34676e-06
-1.00373e-06
-6.85209e-07
-3.90106e-07
-1.15768e-07
1.37723e-07
3.74192e-07
5.92855e-07
7.97203e-07
9.88037e-07
1.16666e-06
1.33616e-06
1.49595e-06
1.65112e-06
1.79969e-06
1.9477e-06
2.09376e-06
2.24355e-06
2.39538e-06
2.56336e-06
2.71045e-06
2.98573e-06
2.90479e-06
3.98447e-06
1.91657e-06
7.97442e-06
-4.52065e-06
2.08423e-05
-2.00262e-05
3.49189e-05
-1.39196e-05
-2.66793e-06
5.5707e-05
-6.3075e-05
-4.4386e-05
-4.21822e-05
-4.00441e-05
-3.79717e-05
-3.59647e-05
-3.40229e-05
-3.21459e-05
-3.03332e-05
-2.85844e-05
-2.68989e-05
-2.52761e-05
-2.37152e-05
-2.22157e-05
-2.07765e-05
-1.93969e-05
-1.80759e-05
-1.68126e-05
-1.56058e-05
-1.44544e-05
-1.33572e-05
-1.2313e-05
-1.13207e-05
-1.03787e-05
-9.4858e-06
-8.64054e-06
-7.84147e-06
-7.0873e-06
-6.37608e-06
-5.70707e-06
-5.07769e-06
-4.48744e-06
-3.93388e-06
-3.41601e-06
-2.93183e-06
-2.48012e-06
-2.05894e-06
-1.66692e-06
-1.30242e-06
-9.63809e-07
-6.49395e-07
-3.5807e-07
-8.72758e-08
1.62989e-07
3.96414e-07
6.1231e-07
8.14026e-07
1.00247e-06
1.17882e-06
1.3462e-06
1.50401e-06
1.65724e-06
1.80405e-06
1.95025e-06
2.09467e-06
2.24275e-06
2.39295e-06
2.55927e-06
2.70481e-06
2.97804e-06
2.89685e-06
3.97112e-06
1.91151e-06
7.94617e-06
-4.50609e-06
2.07813e-05
-1.99798e-05
3.48506e-05
-1.39146e-05
-2.61166e-06
5.55528e-05
-6.28484e-05
-4.37303e-05
-4.15585e-05
-3.94515e-05
-3.74091e-05
-3.54312e-05
-3.35175e-05
-3.16675e-05
-2.9881e-05
-2.81573e-05
-2.64959e-05
-2.48963e-05
-2.33577e-05
-2.18794e-05
-2.04607e-05
-1.91006e-05
-1.77983e-05
-1.65527e-05
-1.53628e-05
-1.42276e-05
-1.31458e-05
-1.21161e-05
-1.11376e-05
-1.02086e-05
-9.32812e-06
-8.49452e-06
-7.70647e-06
-6.96267e-06
-6.26121e-06
-5.60137e-06
-4.98059e-06
-4.39838e-06
-3.8524e-06
-3.34153e-06
-2.86397e-06
-2.41837e-06
-2.0029e-06
-1.61618e-06
-1.25661e-06
-9.2256e-07
-6.12391e-07
-3.24967e-07
-5.78388e-08
1.89096e-07
4.19374e-07
6.32409e-07
8.31409e-07
1.01739e-06
1.19139e-06
1.35657e-06
1.51234e-06
1.66357e-06
1.80856e-06
1.95288e-06
2.0956e-06
2.24191e-06
2.39041e-06
2.55502e-06
2.69894e-06
2.97006e-06
2.88856e-06
3.95731e-06
1.9061e-06
7.91695e-06
-4.4911e-06
2.07176e-05
-1.99303e-05
3.47773e-05
-1.39071e-05
-2.55322e-06
5.53882e-05
-6.26053e-05
-4.30539e-05
-4.09152e-05
-3.88402e-05
-3.68289e-05
-3.48809e-05
-3.29962e-05
-3.11742e-05
-2.94145e-05
-2.77167e-05
-2.60802e-05
-2.45045e-05
-2.29889e-05
-2.15327e-05
-2.0135e-05
-1.87951e-05
-1.75119e-05
-1.62847e-05
-1.51123e-05
-1.39937e-05
-1.29276e-05
-1.1913e-05
-1.09487e-05
-1.00332e-05
-9.16546e-06
-8.34389e-06
-7.56721e-06
-6.83409e-06
-6.1427e-06
-5.49232e-06
-4.88042e-06
-4.3065e-06
-3.76834e-06
-3.2647e-06
-2.79396e-06
-2.35465e-06
-1.94509e-06
-1.56383e-06
-1.20934e-06
-8.80001e-07
-5.74214e-07
-2.90811e-07
-2.74698e-08
2.16034e-07
4.43062e-07
6.53144e-07
8.49345e-07
1.03277e-06
1.20435e-06
1.36726e-06
1.52094e-06
1.67008e-06
1.81321e-06
1.95558e-06
2.09655e-06
2.24103e-06
2.38776e-06
2.55061e-06
2.69285e-06
2.96179e-06
2.87993e-06
3.94302e-06
1.90037e-06
7.88667e-06
-4.47553e-06
2.06507e-05
-1.98777e-05
3.46987e-05
-1.38973e-05
-2.49244e-06
5.5213e-05
-6.23452e-05
-4.23571e-05
-4.02525e-05
-3.82105e-05
-3.62312e-05
-3.43142e-05
-3.24592e-05
-3.0666e-05
-2.89341e-05
-2.72629e-05
-2.56521e-05
-2.41011e-05
-2.26091e-05
-2.11755e-05
-1.97995e-05
-1.84803e-05
-1.7217e-05
-1.60086e-05
-1.48542e-05
-1.37527e-05
-1.2703e-05
-1.17038e-05
-1.07542e-05
-9.85252e-06
-8.9979e-06
-8.18872e-06
-7.42374e-06
-6.70164e-06
-6.02062e-06
-5.37997e-06
-4.77723e-06
-4.21184e-06
-3.68174e-06
-3.18554e-06
-2.72183e-06
-2.28901e-06
-1.88552e-06
-1.50989e-06
-1.16064e-06
-8.3615e-07
-5.34881e-07
-2.55616e-07
3.8181e-09
2.43789e-07
4.67468e-07
6.74506e-07
8.67826e-07
1.04861e-06
1.21771e-06
1.37827e-06
1.52979e-06
1.67678e-06
1.81799e-06
1.95834e-06
2.09751e-06
2.2401e-06
2.38501e-06
2.54603e-06
2.68652e-06
2.95322e-06
2.87095e-06
3.92822e-06
1.89436e-06
7.85523e-06
-4.45925e-06
2.05806e-05
-1.98217e-05
3.46148e-05
-1.38853e-05
-2.42919e-06
5.50271e-05
-6.20681e-05
-4.16403e-05
-3.95708e-05
-3.75629e-05
-3.56164e-05
-3.37312e-05
-3.19069e-05
-3.01433e-05
-2.84399e-05
-2.67962e-05
-2.52118e-05
-2.36861e-05
-2.22184e-05
-2.08081e-05
-1.94544e-05
-1.81565e-05
-1.69135e-05
-1.57246e-05
-1.45887e-05
-1.35048e-05
-1.24718e-05
-1.14886e-05
-1.0554e-05
-9.66663e-06
-8.82551e-06
-8.02908e-06
-7.27614e-06
-6.56536e-06
-5.89501e-06
-5.26438e-06
-4.67105e-06
-4.11445e-06
-3.59264e-06
-3.10409e-06
-2.64761e-06
-2.22147e-06
-1.82423e-06
-1.45439e-06
-1.11053e-06
-7.91028e-07
-4.94408e-07
-2.194e-07
3.60114e-08
2.7235e-07
4.92581e-07
6.96484e-07
8.86846e-07
1.06491e-06
1.23145e-06
1.38959e-06
1.5389e-06
1.68367e-06
1.8229e-06
1.96118e-06
2.09849e-06
2.23913e-06
2.38216e-06
2.5413e-06
2.67996e-06
2.94436e-06
2.86165e-06
3.91291e-06
1.88812e-06
7.82255e-06
-4.44211e-06
2.0507e-05
-1.9762e-05
3.45253e-05
-1.3871e-05
-2.36332e-06
5.48303e-05
-6.17736e-05
-4.09038e-05
-3.88704e-05
-3.68974e-05
-3.49848e-05
-3.31323e-05
-3.13395e-05
-2.96063e-05
-2.79322e-05
-2.63167e-05
-2.47594e-05
-2.32597e-05
-2.1817e-05
-2.04307e-05
-1.90999e-05
-1.78239e-05
-1.66018e-05
-1.54328e-05
-1.43159e-05
-1.32501e-05
-1.22343e-05
-1.12674e-05
-1.03483e-05
-9.47562e-06
-8.64838e-06
-7.86503e-06
-7.12447e-06
-6.42532e-06
-5.76594e-06
-5.14559e-06
-4.56194e-06
-4.01436e-06
-3.50106e-06
-3.02038e-06
-2.57133e-06
-2.15205e-06
-1.76124e-06
-1.39735e-06
-1.05903e-06
-7.44654e-07
-4.52814e-07
-1.82178e-07
6.90961e-08
3.01703e-07