/*--------------------------------*- C++ -*----------------------------------*\
| =========                 |                                                 |
| \\      /  F ield         | OpenFOAM: The Open Source CFD Toolbox           |
|  \\    /   O peration     | Version:  2412                                  |
|   \\  /    A nd           | Website:  www.openfoam.com                      |
|    \\/     M anipulation  |                                                 |
\*---------------------------------------------------------------------------*/
FoamFile
{
    version     2.0;
    format      ascii;
    arch        "LSB;label=32;scalar=64";
    class       volScalarField;
    location    "18.5";
    object      p;
}
// * * * * * * * * * * * * * * * * * * * * * * * * * * * * * * * * * * * * * //

dimensions      [0 2 -2 0 0 0 0];

internalField   nonuniform List<scalar> 
5285
(
-0.000835445
-0.000776354
-0.000801775
-0.000816544
-0.000829831
-0.000840787
-0.000848363
-0.00085266
-0.000853943
-0.000852374
-0.000848101
-0.000841294
-0.000832135
-0.000820813
-0.000807518
-0.000792441
-0.000775775
-0.000757708
-0.000738428
-0.000718116
-0.000696945
-0.000675084
-0.000652692
-0.000629919
-0.000721557
-0.000745827
-0.0007606
-0.000773944
-0.000785107
-0.000793157
-0.000798184
-0.000800414
-0.000799989
-0.000797038
-0.000791713
-0.000784174
-0.00077459
-0.00076313
-0.00074997
-0.000735281
-0.000719236
-0.000702004
-0.000683752
-0.00066464
-0.000644821
-0.000624444
-0.000603647
-0.000670657
-0.000693839
-0.000708556
-0.000721897
-0.000733192
-0.00074162
-0.000747255
-0.000750297
-0.000750866
-0.000749077
-0.000745061
-0.000738964
-0.000730935
-0.000721125
-0.000709693
-0.000696794
-0.000682585
-0.00066722
-0.000650851
-0.000633625
-0.000615684
-0.000597163
-0.000578192
-0.000623304
-0.00064546
-0.000660076
-0.000673364
-0.00068473
-0.000693453
-0.000699597
-0.000703332
-0.000704764
-0.000703994
-0.000701138
-0.000696324
-0.000689685
-0.000681358
-0.000671485
-0.000660206
-0.000647664
-0.000634
-0.000619352
-0.000603854
-0.000587637
-0.000570827
-0.000553543
-0.000579181
-0.000600369
-0.00061485
-0.000628047
-0.000639437
-0.000648386
-0.000654951
-0.000659278
-0.000661459
-0.000661583
-0.000659752
-0.000656079
-0.000650684
-0.000643689
-0.000635222
-0.000625411
-0.000614383
-0.000602268
-0.000589191
-0.000575277
-0.000560644
-0.00054541
-0.000529683
-0.000538001
-0.00055828
-0.000572599
-0.000585675
-0.000597047
-0.000606166
-0.000613077
-0.000617908
-0.000620739
-0.000621646
-0.000620721
-0.000618064
-0.000613782
-0.000607985
-0.000600786
-0.000592303
-0.000582651
-0.000571947
-0.000560307
-0.000547843
-0.000534666
-0.000520883
-0.000506595
-0.000499514
-0.000518935
-0.000533071
-0.000546002
-0.000557326
-0.000566565
-0.000573759
-0.000579018
-0.00058241
-0.000584004
-0.00058388
-0.000582127
-0.000578841
-0.00057412
-0.000568066
-0.000560786
-0.000552384
-0.000542966
-0.000532639
-0.000521505
-0.000509666
-0.000497219
-0.00048426
-0.000463491
-0.000482105
-0.000496044
-0.000508811
-0.000520059
-0.000529378
-0.0005368
-0.00054242
-0.000546298
-0.000548493
-0.000549077
-0.000548129
-0.000545734
-0.00054198
-0.00053696
-0.000530769
-0.000523503
-0.000515258
-0.000506131
-0.000496215
-0.000485605
-0.000474391
-0.00046266
-0.00042973
-0.000447585
-0.000461313
-0.000473903
-0.000485055
-0.000494419
-0.000502022
-0.000507946
-0.000512242
-0.000514964
-0.000516173
-0.000515941
-0.000514343
-0.000511459
-0.000507372
-0.000502168
-0.000495935
-0.000488759
-0.000480728
-0.00047193
-0.00046245
-0.000452372
-0.000441775
-0.000398049
-0.000415188
-0.000428698
-0.000441099
-0.000452138
-0.000461518
-0.000469262
-0.00047544
-0.000480096
-0.000483277
-0.000485038
-0.000485443
-0.000484559
-0.000482457
-0.000479213
-0.000474903
-0.000469608
-0.000463407
-0.00045638
-0.000448607
-0.000440166
-0.000431134
-0.000421585
-0.000368282
-0.000384748
-0.000398033
-0.000410238
-0.000421151
-0.000430522
-0.000438373
-0.000444761
-0.000449725
-0.000453307
-0.000455555
-0.000456526
-0.000456281
-0.000454882
-0.000452399
-0.0004489
-0.000444459
-0.000439147
-0.000433038
-0.000426204
-0.000418718
-0.00041065
-0.00040207
-0.00034028
-0.000356111
-0.000369169
-0.000381173
-0.000391948
-0.000401291
-0.000409218
-0.000415779
-0.000421006
-0.000424937
-0.000427615
-0.000429089
-0.000429415
-0.000428648
-0.000426852
-0.000424089
-0.000420423
-0.000415923
-0.000410653
-0.000404681
-0.000398074
-0.000390895
-0.00038321
-0.00031391
-0.000329142
-0.00034197
-0.000353769
-0.0003644
-0.000373697
-0.000381675
-0.000388375
-0.000393826
-0.00039806
-0.000401116
-0.000403037
-0.000403874
-0.000403676
-0.0004025
-0.000400403
-0.000397444
-0.000393683
-0.000389182
-0.000384001
-0.000378201
-0.000371843
-0.000364985
-0.000289047
-0.000303715
-0.000316313
-0.000327906
-0.000338386
-0.000347623
-0.000355631
-0.000362442
-0.000368081
-0.000372577
-0.000375965
-0.000378284
-0.000379577
-0.000379891
-0.000379275
-0.000377782
-0.000375466
-0.00037238
-0.000368582
-0.000364127
-0.000359071
-0.000353468
-0.000347375
-0.000265581
-0.000279717
-0.000292086
-0.000303473
-0.000313797
-0.000322963
-0.000330981
-0.000337878
-0.000343675
-0.000348398
-0.000352077
-0.000354748
-0.000356449
-0.000357223
-0.000357113
-0.000356168
-0.000354436
-0.000351968
-0.000348813
-0.000345024
-0.000340651
-0.000335747
-0.00033036
-0.000243411
-0.000257047
-0.000269188
-0.000280369
-0.000290534
-0.000299619
-0.000307632
-0.000314592
-0.00032052
-0.000325438
-0.000329373
-0.000332355
-0.000334421
-0.000335607
-0.000335955
-0.000335507
-0.000334307
-0.000332401
-0.000329836
-0.000326658
-0.000322915
-0.000318654
-0.000313921
-0.000222446
-0.00023561
-0.000247526
-0.000258502
-0.000268506
-0.000277502
-0.000285495
-0.000292501
-0.000298536
-0.00030362
-0.000307778
-0.000311036
-0.000313427
-0.000314985
-0.000315746
-0.000315748
-0.000315032
-0.00031364
-0.000311614
-0.000308998
-0.000305835
-0.000302167
-0.000298039
-0.000202612
-0.000215331
-0.000227016
-0.000237786
-0.000247629
-0.00025653
-0.000264491
-0.000271526
-0.000277647
-0.000282873
-0.000287224
-0.000290727
-0.000293408
-0.000295299
-0.000296432
-0.000296843
-0.000296568
-0.000295645
-0.000294113
-0.000292013
-0.000289383
-0.000286264
-0.000282695
-0.000599835
-0.000643002
-0.000555435
-0.000596054
-0.000635764
-0.000674499
-0.00071231
-0.000748649
-0.000781895
-0.000514052
-0.000552345
-0.000589742
-0.000626182
-0.000661695
-0.000695781
-0.000727065
-0.000475432
-0.000511592
-0.000546871
-0.000581207
-0.000614624
-0.000646659
-0.000676152
-0.000439346
-0.000473545
-0.000506878
-0.000539285
-0.000570781
-0.000600944
-0.000628796
-0.00040558
-0.000437974
-0.000469516
-0.000500151
-0.000529886
-0.000558337
-0.000584679
-0.000373913
-0.000404655
-0.000434555
-0.000463561
-0.000491678
-0.000518561
-0.000543513
-0.000344197
-0.000373411
-0.000401794
-0.000429299
-0.000455927
-0.000481368
-0.000505038
-0.000316279
-0.000344074
-0.000371054
-0.000397173
-0.000422427
-0.000446542
-0.000469026
-0.000290014
-0.000316494
-0.000342174
-0.00036701
-0.000390995
-0.000413886
-0.000435272
-0.000265273
-0.000290533
-0.000315007
-0.000338654
-0.000361464
-0.000383224
-0.000403591
-0.000241942
-0.000266067
-0.000289421
-0.000311965
-0.000333685
-0.000354398
-0.00037382
-0.000219917
-0.000242986
-0.000265297
-0.000286814
-0.000307522
-0.000327265
-0.000345807
-0.000199103
-0.000221186
-0.000242526
-0.000263087
-0.000282854
-0.000301695
-0.000319418
-0.000179414
-0.000200576
-0.000221009
-0.000240679
-0.000259569
-0.000277572
-0.000294531
-0.000160771
-0.000181072
-0.000200657
-0.000219494
-0.000237567
-0.000254788
-0.000271035
-0.000143102
-0.000162596
-0.000181387
-0.000199446
-0.000216755
-0.000233247
-0.000248827
-0.000126341
-0.000145078
-0.000163124
-0.000180454
-0.000197048
-0.000212858
-0.000227815
-0.000110427
-0.00012845
-0.000145797
-0.000162442
-0.00017837
-0.000193545
-0.000207923
-9.53081e-05
-0.000112669
-0.000129364
-0.00014537
-0.000160672
-0.000175249
-0.000189076
-0.000511175
-0.000555854
-0.000251491
-0.000300187
-0.000342581
-0.000385522
-0.000428947
-0.000471856
-0.000514005
-0.000226766
-0.00027259
-0.000312817
-0.000353516
-0.000394585
-0.000435125
-0.000474955
-0.000203392
-0.000246601
-0.000284848
-0.000323489
-0.000362392
-0.00040074
-0.000438467
-0.000181288
-0.000222114
-0.000258548
-0.000295302
-0.000332212
-0.000368463
-0.000404334
-0.000160373
-0.000199023
-0.000233795
-0.000268827
-0.000303987
-0.000338752
-0.000372442
-0.000140569
-0.000177225
-0.000210461
-0.000243883
-0.000277337
-0.00031028
-0.000342419
-0.000121805
-0.000156628
-0.000188441
-0.000220371
-0.000252251
-0.00028359
-0.00031423
-0.000104015
-0.000137151
-0.000167647
-0.000198194
-0.000228628
-0.000258516
-0.000287737
-8.71384e-05
-0.000118722
-0.000147994
-0.000177257
-0.000206352
-0.000234901
-0.000262796
-7.112e-05
-0.000101269
-0.000129403
-0.000157471
-0.000185322
-0.000212624
-0.000239285
-5.59066e-05
-8.47283e-05
-0.000111801
-0.000138754
-0.000165445
-0.000191589
-0.000217099
-4.14494e-05
-6.90413e-05
-9.5122e-05
-0.000121033
-0.00014664
-0.000171705
-0.000196141
-2.77029e-05
-5.41531e-05
-7.9305e-05
-0.000104239
-0.000128833
-0.000152888
-0.000176322
-1.46246e-05
-4.00133e-05
-6.42943e-05
-8.83145e-05
-0.000111973
-0.000135067
-0.000157562
-2.17177e-06
-2.65634e-05
-5.00364e-05
-7.31985e-05
-9.59589e-05
-0.000118172
-0.00013979
9.69041e-06
-1.37296e-05
-3.64845e-05
-5.88435e-05
-8.07631e-05
-0.000102146
-0.000122939
2.09372e-05
-1.7433e-06
-2.3632e-05
-4.51969e-05
-6.63308e-05
-8.69308e-05
-0.000106947
3.17204e-05
9.89279e-06
-1.13607e-05
-3.22142e-05
-5.26096e-05
-7.24722e-05
-9.17566e-05
4.20004e-05
2.09479e-05
3.44577e-07
-1.98291e-05
-3.9531e-05
-5.87055e-05
-7.73098e-05
0.000978519
0.000968959
0.000958341
0.000946595
0.00093365
0.00091943
0.000903859
0.00088686
0.000868355
0.000848267
0.000826517
0.000803032
0.000777738
0.000750568
0.000721458
0.000690352
0.000657202
0.000621971
0.000584631
0.000545172
0.000503596
0.000459924
0.000414197
0.000366477
0.000316848
0.00026542
0.000212328
0.000157732
0.000101821
4.48108e-05
-1.30636e-05
-7.15759e-05
-0.000130182
-0.000188052
0.000956017
0.000946042
0.000935039
0.000922943
0.000909688
0.000895205
0.000879427
0.000862283
0.000843704
0.000823622
0.000801967
0.000778676
0.000753687
0.00072694
0.000698385
0.000667975
0.000635673
0.000601452
0.000565296
0.0005272
0.000487177
0.000445254
0.000401476
0.000355908
0.000308635
0.000259763
0.000209423
0.000157767
0.000104971
5.12343e-05
-3.22554e-06
-5.82025e-05
-0.000113201
-0.000167461
0.000934392
0.000924059
0.000912728
0.000900341
0.000886835
0.000872151
0.000856225
0.000838996
0.000820401
0.00080038
0.000778873
0.000755825
0.000731183
0.000704897
0.000676925
0.000647232
0.000615788
0.000582575
0.000547585
0.000510822
0.000472303
0.000432061
0.000390144
0.000346619
0.00030157
0.0002551
0.000207334
0.000158416
0.00010851
5.78007e-05
6.4884e-06
-4.52387e-05
-9.69295e-05
-0.000147891
0.000913623
0.000902983
0.000891378
0.000878752
0.000865051
0.000850218
0.000834198
0.000816936
0.000798375
0.000778464
0.000757151
0.000734387
0.000710127
0.000684331
0.000656965
0.000628001
0.000597418
0.000565204
0.000531359
0.000495892
0.000458826
0.000420197
0.000380055
0.000338467
0.000295516
0.000251303
0.000205945
0.000159578
0.000112356
6.44487e-05
1.60411e-05
-3.26946e-05
-8.13488e-05
-0.000129291
0.000893687
0.000882788
0.000870956
0.000858141
0.000844292
0.000829359
0.000813293
0.000796043
0.000777562
0.000757802
0.00073672
0.000714273
0.000690425
0.000665142
0.000638397
0.000610169
0.000580443
0.000549216
0.00051649
0.000482281
0.000446614
0.000409529
0.000371078
0.000331326
0.000290355
0.000248261
0.000205156
0.000161168
0.000116439
7.11286e-05
2.54049e-05
-2.05737e-05
-6.64355e-05
-0.000111609
0.000874561
0.000863447
0.000851432
0.000838471
0.000824519
0.000809529
0.000793459
0.000776263
0.000757899
0.000738326
0.000717507
0.000695406
0.000671991
0.000647238
0.000621123
0.000593632
0.000564757
0.000534498
0.000502863
0.000469871
0.000435551
0.000399943
0.0003631
0.000325087
0.000285983
0.000245881
0.000204885
0.000163116
0.000120706
7.78031e-05
3.45622e-05
-8.87148e-06
-5.21614e-05
-9.47912e-05
0.000856221
0.000844932
0.000832774
0.000819707
0.00080569
0.000790683
0.000774645
0.000757538
0.000739324
0.000719969
0.00069944
0.000677706
0.000654744
0.000630531
0.000605051
0.000578295
0.000550259
0.000520948
0.000490373
0.000458557
0.00042553
0.000391333
0.00035602
0.000319654
0.000282311
0.000244079
0.000205058
0.00016536
0.000125109
8.44417e-05
4.35003e-05
2.41875e-06
-3.84989e-05
-7.87873e-05
0.000838643
0.000827213
0.000814949
0.000801813
0.000787767
0.000772775
0.000756803
0.000739816
0.000721781
0.000702668
0.00068245
0.000661103
0.000638604
0.000614939
0.000590096
0.000564068
0.000536858
0.000508471
0.000478925
0.000448242
0.000416455
0.000383605
0.000349746
0.000314938
0.000279256
0.000242782
0.000205611
0.000167848
0.000129609
9.10184e-05
5.22093e-05
1.33045e-05
-2.54218e-05
-6.35517e-05
0.0008218
0.000810264
0.000797926
0.000784752
0.000770708
0.000755763
0.000739885
0.000723044
0.000705212
0.000686363
0.000666475
0.000645526
0.0006235
0.000600386
0.000576176
0.000550868
0.000524467
0.000496981
0.00046843
0.000438838
0.000408238
0.000376674
0.000344195
0.000310863
0.000276746
0.000241925
0.000206488
0.000170534
0.00013417
9.75122e-05
6.06825e-05
2.37947e-05
-1.29046e-05
-4.90417e-05
0.000805667
0.000794055
0.000781672
0.000768489
0.000754475
0.000739603
0.000723844
0.000707172
0.000689563
0.000670996
0.00065145
0.00063091
0.000609364
0.000586801
0.000563219
0.000538619
0.000513007
0.000486397
0.000458807
0.000430264
0.000400801
0.000370462
0.000339294
0.000307358
0.000274718
0.000241451
0.000207641
0.000173379
0.000138764
0.000103906
6.89158e-05
3.38994e-05
-9.22378e-07
-3.52168e-05
0.000790219
0.000778557
0.000766156
0.00075299
0.000739031
0.000724254
0.000708636
0.000692153
0.000674784
0.000656512
0.00063732
0.000617196
0.00059613
0.000574117
0.000551155
0.000527249
0.000502408
0.000476645
0.000449983
0.000422447
0.000394072
0.000364899
0.000334977
0.000304361
0.000273115
0.000241311
0.000209026
0.000176347
0.000143367
0.000110186
7.69077e-05
4.36294e-05
1.0549e-05
-2.2039e-05
0.000775429
0.000763742
0.000751347
0.00073822
0.000724338
0.000709677
0.000694218
0.00067794
0.000660825
0.000642859
0.000624028
0.000604324
0.000583739
0.00056227
0.00053992
0.000516693
0.000492601
0.00046766
0.000441891
0.000415321
0.000387986
0.000359925
0.000331184
0.000301818
0.000271887
0.000241458
0.000210606
0.000179411
0.000147959
0.000116343
8.4658e-05
5.29961e-05
2.1533e-05
-9.47228e-06
0.000761273
0.000749583
0.000737215
0.000724148
0.000710361
0.000695834
0.000680549
0.000664489
0.000647639
0.000629988
0.000611524
0.000592241
0.000572134
0.000551204
0.000529453
0.000506889
0.000483525
0.000459378
0.000434469
0.000408826
0.000382484
0.00035548
0.000327861
0.000299678
0.000270989
0.000241856
0.000212349
0.000182544
0.000152522
0.000122367
9.21682e-05
6.20114e-05
3.2052e-05
2.51671e-06
0.000747726
0.000736052
0.00072373
0.00071074
0.000697065
0.000682686
0.000667589
0.000651759
0.000635183
0.000617852
0.000599758
0.000580896
0.000561264
0.000540864
0.0005197
0.000497783
0.000475124
0.000451743
0.000427661
0.000402906
0.000377512
0.000351516
0.000324962
0.000297898
0.000270381
0.000242468
0.000214227
0.000185726
0.000157041
0.000128252
9.9441e-05
7.06868e-05
4.21275e-05
1.39596e-05
0.000734763
0.000723123
0.000710863
0.000697966
0.000684417
0.0006702
0.000655301
0.00063971
0.000623415
0.000606408
0.000588685
0.000570242
0.000551079
0.0005312
0.00051061
0.000489321
0.000467345
0.000444703
0.000421416
0.000397512
0.000373022
0.000347985
0.000322442
0.000296439
0.000270028
0.000243266
0.000216214
0.000188937
0.000161507
0.000133995
0.00010648
7.90343e-05
5.17799e-05
2.48862e-05
0.00072236
0.000710769
0.000698586
0.000685796
0.000672385
0.00065834
0.00064365
0.000628303
0.000612294
0.000595614
0.000578261
0.000560234
0.000541534
0.000522165
0.000502135
0.000481455
0.000460141
0.000438211
0.000415687
0.000392597
0.000368971
0.000344847
0.000320262
0.000295263
0.000269899
0.000244221
0.000218289
0.000192163
0.000165908
0.000139593
0.000113289
8.7065e-05
6.10271e-05
3.53201e-05
0.000710494
0.000698966
0.000686873
0.000674202
0.000660939
0.000647075
0.0006326
0.000617504
0.000601783
0.000585431
0.000568447
0.000550831
0.000532585
0.000513715
0.000494231
0.000474143
0.000453467
0.000432222
0.000410431
0.00038812
0.000365319
0.000342063
0.000318389
0.000294342
0.000269966
0.000245312
0.000220433
0.000195388
0.000170237
0.000145043
0.000119873
9.47908e-05
6.98871e-05
4.528e-05
0.000699142
0.00068769
0.000675698
0.000663155
0.00065005
0.000636374
0.000622119
0.000607278
0.000591847
0.000575823
0.000559204
0.000541993
0.000524193
0.000505811
0.000486857
0.000467342
0.000447283
0.000426698
0.00040561
0.000384044
0.000362029
0.0003396
0.000316792
0.000293645
0.000270204
0.000246516
0.000222631
0.000198603
0.000174489
0.000150347
0.000126239
0.000102225
7.83836e-05
5.48137e-05
0.000688282
0.000676916
0.000665035
0.000652629
0.000639689
0.000626207
0.000612177
0.000597593
0.000582453
0.000566754
0.000550497
0.000533684
0.000516321
0.000498415
0.000479976
0.000461016
0.000441551
0.000421601
0.000401186
0.000380333
0.000359069
0.000337427
0.00031544
0.000293148
0.000270592
0.000247816
0.000224868
0.000201798
0.000178658
0.000155504
0.000132391
0.000109378
8.65298e-05
6.39306e-05
0.000678106
0.000666833
0.000655068
0.000642804
0.000630031
0.000616744
0.000602937
0.000588607
0.00057375
0.000558367
0.00054246
0.000526031
0.000509086
0.000491633
0.000473683
0.000455248
0.000436345
0.000416992
0.000397211
0.000377025
0.000356462
0.000335554
0.000314332
0.000292834
0.000271098
0.000249166
0.000227084
0.000204898
0.000182656
0.000160411
0.000138214
0.000116119
9.41801e-05
7.2458e-05
0.000668462
0.000657289
0.000645647
0.000633528
0.000620925
0.000607834
0.00059425
0.00058017
0.000565593
0.000550519
0.000534952
0.000518895
0.000502354
0.000485338
0.000467857
0.000449925
0.000431558
0.000412774
0.000393593
0.00037404
0.000354141
0.000333924
0.000313423
0.00029267
0.000271704
0.000250564
0.000229292
0.000207932
0.000186529
0.000165132
0.000143789
0.00012255
0.000101465
8.05859e-05
0.000659043
0.000647978
0.000636467
0.000624501
0.000612075
0.000599186
0.000585829
0.000572004
0.00055771
0.000542949
0.000527722
0.000512037
0.000495898
0.000479315
0.000462298
0.000444862
0.000427022
0.000408795
0.000390203
0.000371267
0.000352014
0.000332471
0.000312668
0.000292639
0.000272418
0.000252043
0.000231552
0.000210988
0.000190393
0.000169812
0.00014929
0.000128873
0.00010861
8.85468e-05
0.00064985
0.000638902
0.000627528
0.000615723
0.000603481
0.000590799
0.000577675
0.000564109
0.000550101
0.000535652
0.000520767
0.000505451
0.000489712
0.000473558
0.000457
0.000440052
0.000422729
0.000405049
0.000387031
0.000368698
0.000350073
0.000331185
0.00031206
0.000292731
0.000273231
0.000253594
0.000233858
0.00021406
0.000194243
0.000174446
0.000154713
0.000135086
0.00011561
9.633e-05
0.000640886
0.000630062
0.000618833
0.000607194
0.000595141
0.000582672
0.000569785
0.000556481
0.00054276
0.000528625
0.000514082
0.000499134
0.000483791
0.000468061
0.000451955
0.000435487
0.000418671
0.000401526
0.000384069
0.000366323
0.000348311
0.000330057
0.00031159
0.000292939
0.000274135
0.000255211
0.000236201
0.000217143
0.000198073
0.00017903
0.000160054
0.000141185
0.000122465
0.000103934
0.000632151
0.000621459
0.000610381
0.000598915
0.000587056
0.000574803
0.000562157
0.000549117
0.000535685
0.000521864
0.00050766
0.000493079
0.000478128
0.000462816
0.000447156
0.000431159
0.000414841
0.000398219
0.00038131
0.000364135
0.000346718
0.000329081
0.00031125
0.000293255
0.000275123
0.000256887
0.000238578
0.00022023
0.000201879
0.00018356
0.000165311
0.00014717
0.000129173
0.00011136
0.000633838
0.000623646
0.000613092
0.000602172
0.000590883
0.000579223
0.000567191
0.000554787
0.000542013
0.000528871
0.000515364
0.000501498
0.00048728
0.000472717
0.000457818
0.000442595
0.000427061
0.00041123
0.000395118
0.000378744
0.000362125
0.000345285
0.000328246
0.000311033
0.000293671
0.000276188
0.000258615
0.00024098
0.000223317
0.000205657
0.000188034
0.000170482
0.000153037
0.000135734
0.000118608
0.000625439
0.000615373
0.000604962
0.000594205
0.000583099
0.000571641
0.000559832
0.000547674
0.000535167
0.000522314
0.00050912
0.00049559
0.000481731
0.000467551
0.000453059
0.000438266
0.000423185
0.000407831
0.000392217
0.000376363
0.000360285
0.000344006
0.000327546
0.000310929
0.000294179
0.000277324
0.000260389
0.000243404
0.000226398
0.000209401
0.000192446
0.000175563
0.000158786
0.000142147
0.000125679
0.000617266
0.000607331
0.00059707
0.00058648
0.000575559
0.000564307
0.000552725
0.000540812
0.000528573
0.000516009
0.000503127
0.00048993
0.000476426
0.000462623
0.000448531
0.000434161
0.000419524
0.000404634
0.000389507
0.000374158
0.000358607
0.000342871
0.000326972
0.000310932
0.000294774
0.000278522
0.000262203
0.000245842
0.000229468
0.000213109
0.000196794
0.000180553
0.000164416
0.000148413
0.000132575
0.000609319
0.000599521
0.000589413
0.000578994
0.000568263
0.000557219
0.000545864
0.0005342
0.000522228
0.000509952
0.000497378
0.000484511
0.000471359
0.000457928
0.000444229
0.000430272
0.000416069
0.000401633
0.00038698
0.000372123
0.000357082
0.000341873
0.000326517
0.000311034
0.000295446
0.000279777
0.00026405
0.000248291
0.000232524
0.000216777
0.000201076
0.00018545
0.000169926
0.000154531
0.000139296
0.000601598
0.000591941
0.000581991
0.000571747
0.000561208
0.000550374
0.000539248
0.000527831
0.000516126
0.000504138
0.00049187
0.000479329
0.000466522
0.000453457
0.000440144
0.000426592
0.000412813
0.00039882
0.000384627
0.000370249
0.000355702
0.000341004
0.000326172
0.000311228
0.000296191
0.000281083
0.000265926
0.000250744
0.00023556
0.0002204
0.000205289
0.000190252
0.000175314
0.000160503
0.000145843
0.000594102
0.00058459
0.000574802
0.000564735
0.000554391
0.000543769
0.000532873
0.000521703
0.000510264
0.00049856
0.000486595
0.000474376
0.00046191
0.000449205
0.000436269
0.000423113
0.000409748
0.000396186
0.000382441
0.000368527
0.00035446
0.000340256
0.000325932
0.000311507
0.000297
0.000282432
0.000267824
0.000253197
0.000238573
0.000223977
0.00020943
0.000194957
0.000180581
0.000166328
0.00015222
0.00058683
0.000577468
0.000567844
0.000557957
0.000547809
0.0005374
0.000526734
0.000515811
0.000504636
0.000493214
0.000481549
0.000469647
0.000457516
0.000445163
0.000432597
0.000419828
0.000406866
0.000393724
0.000380415
0.000366951
0.000353348
0.000339622
0.000325788
0.000311864
0.000297869
0.000283821
0.000269739
0.000255645
0.000241559
0.000227503
0.000213497
0.000199564
0.000185727
0.000172006
0.000158426
0.000579782
0.000570572
0.000561114
0.00055141
0.000541459
0.000531264
0.000520827
0.00051015
0.000499237
0.000488094
0.000476724
0.000465135
0.000453332
0.000441325
0.00042912
0.000416729
0.000404161
0.000391427
0.00037854
0.000365513
0.000352359
0.000339095
0.000325734
0.000312293
0.00029879
0.000285242
0.000271667
0.000258085
0.000244514
0.000230975
0.000217488
0.000204072
0.00019075
0.00017754
0.000164464
0.000572956
0.0005639
0.000554612
0.00054509
0.000535338
0.000525356
0.000515147
0.000504715
0.000494062
0.000483194
0.000472116
0.000460833
0.000449353
0.000437683
0.000425832
0.000413809
0.000401623
0.000389286
0.000376809
0.000364205
0.000351486
0.000338667
0.000325762
0.000312787
0.000299758
0.00028669
0.000273602
0.000260511
0.000247435
0.000234392
0.000221401
0.000208481
0.00019565
0.000182928
0.000170334
0.000566349
0.000557451
0.000548332
0.000538996
0.000529442
0.000519672
0.000509691
0.0004995
0.000489105
0.000478508
0.000467716
0.000456735
0.000445571
0.000434232
0.000422725
0.000411061
0.000399247
0.000387295
0.000375215
0.00036302
0.000350721
0.000338333
0.000325868
0.000313341
0.000300767
0.000288161
0.000275541
0.000262921
0.000250318
0.00023775
0.000225234
0.000212788
0.000200428
0.000188173
0.00017604
0.000559961
0.000551221
0.000542274
0.000533122
0.000523766
0.000514209
0.000504453
0.000494502
0.00048436
0.000474031
0.00046352
0.000452835
0.00044198
0.000430963
0.000419793
0.000408477
0.000397024
0.000385445
0.00037375
0.000361951
0.000350058
0.000338084
0.000326043
0.000313948
0.000301812
0.00028965
0.000277478
0.000265309
0.000253161
0.000241048
0.000228987
0.000216993
0.000205084
0.000193275
0.000181583
0.000553788
0.000545208
0.000536433
0.000527466
0.000518307
0.00050896
0.000499428
0.000489714
0.000479821
0.000469756
0.000459522
0.000449125
0.000438572
0.00042787
0.000417027
0.00040605
0.000394948
0.000383731
0.000372408
0.000360991
0.00034949
0.000337916
0.000326283
0.000314602
0.000302888
0.000291152
0.000279409
0.000267674
0.00025596
0.000244283
0.000232657
0.000221097
0.000209618
0.000198235
0.000186964
0.000547829
0.000539409
0.000530806
0.000522023
0.000513061
0.000503923
0.000494611
0.000485131
0.000475484
0.000465677
0.000455713
0.000445599
0.000435342
0.000424946
0.000414421
0.000403773
0.000393011
0.000382144
0.000371182
0.000360133
0.00034901
0.000337822
0.000326581
0.0003153
0.000303989
0.000292662
0.000281332
0.000270011
0.000258714
0.000247453
0.000236243
0.000225098
0.00021403
0.000203055
0.000192185
0.00054208
0.00053382
0.00052539
0.00051679
0.000508022
0.000499091
0.000489998
0.000480747
0.000471342
0.000461788
0.000452089
0.000442252
0.000432281
0.000422184
0.000411968
0.000401639
0.000391207
0.000380679
0.000370064
0.000359372
0.000348612
0.000337796
0.000326933
0.000316034
0.000305111
0.000294176
0.000283241
0.000272318
0.000261419
0.000250557
0.000239745
0.000228995
0.000218321
0.000207734
0.000197249
0.000536538
0.000528439
0.000520179
0.000511761
0.000503187
0.00049446
0.000485582
0.000476557
0.000467389
0.000458083
0.000448643
0.000439075
0.000429385
0.000419578
0.000409661
0.000399643
0.000389529
0.000379328
0.000369049
0.0003587
0.000348291
0.000337832
0.000327331
0.000316801
0.00030625
0.000295691
0.000285134
0.000274591
0.000264074
0.000253593
0.000243161
0.000232789
0.00022249
0.000212275
0.000202156
0.0005312
0.000523261
0.000515172
0.000506934
0.000498551
0.000490025
0.000481358
0.000472555
0.00046362
0.000454556
0.000445369
0.000436063
0.000426645
0.00041712
0.000407495
0.000397775
0.00038797
0.000378086
0.00036813
0.000358112
0.000348041
0.000337925
0.000327773
0.000317595
0.000307402
0.000297203
0.000287008
0.000276829
0.000266676
0.000256559
0.00024649
0.00023648
0.000226539
0.000216679
0.00020691
0.000526062
0.000518283
0.000510362
0.000502304
0.000494108
0.00048578
0.000477321
0.000468736
0.000460028
0.000451201
0.00044226
0.00043321
0.000424056
0.000414805
0.000405461
0.000396032
0.000386524
0.000376945
0.000367302
0.000357602
0.000347855
0.000338069
0.000328251
0.000318413
0.000308561
0.000298707
0.000288859
0.000279028
0.000269223
0.000259454
0.000249732
0.000240067
0.000230468
0.000220946
0.000211511
0.000521122
0.0005135
0.000505747
0.000497865
0.000489855
0.000481721
0.000473467
0.000465094
0.000456608
0.000448012
0.000439311
0.000430509
0.000421612
0.000412625
0.000403554
0.000394405
0.000385185
0.0003759
0.000366558
0.000357165
0.000347729
0.000338259
0.000328763
0.000319249
0.000309725
0.000300201
0.000290685
0.000281186
0.000271714
0.000262278
0.000252887
0.000243551
0.000234278
0.000225079
0.000215962
0.000516376
0.00050891
0.000501322
0.000493613
0.000485786
0.000477843
0.000469788
0.000461624
0.000453354
0.000444983
0.000436515
0.000427954
0.000419306
0.000410576
0.000401768
0.00039289
0.000383947
0.000374945
0.000365892
0.000356794
0.000347658
0.000338492
0.000329303
0.0003201
0.00031089
0.000301681
0.000292482
0.000283301
0.000274147
0.000265028
0.000255953
0.000246931
0.000237969
0.000229078
0.000220265
0.000511819
0.000504508
0.000497083
0.000489544
0.000481896
0.00047414
0.00046628
0.000458319
0.00045026
0.000442108
0.000433866
0.000425539
0.000417132
0.00040865
0.000400097
0.00039148
0.000382804
0.000374075
0.0003653
0.000356485
0.000347636
0.000338761
0.000329867
0.000320961
0.000312051
0.000303144
0.000294248
0.000285371
0.00027652
0.000267704
0.00025893
0.000250207
0.000241543
0.000232945
0.000224421
0.000507448
0.00050029
0.000493024
0.000485654
0.000478181
0.000470608
0.000462938
0.000455175
0.000447321
0.000439381
0.000431359
0.000423259
0.000415085
0.000406842
0.000398535
0.000390169
0.00038175
0.000373284
0.000364776
0.000356232
0.000347659
0.000339063
0.000330451
0.00032183
0.000313207
0.000304588
0.000295981
0.000287393
0.000278832
0.000270305
0.000261818
0.000253381
0.000244999
0.000236681
0.000228433
0.00050326
0.000496252
0.000489143
0.000481937
0.000474635
0.000467241
0.000459756
0.000452186
0.000444532
0.000436798
0.000428988
0.000421107
0.000413158
0.000405146
0.000397076
0.000388952
0.000380781
0.000372566
0.000364314
0.000356031
0.000347722
0.000339394
0.000331052
0.000322703
0.000314353
0.00030601
0.000297679
0.000289367
0.000281082
0.00027283
0.000264617
0.000256451
0.000248339
0.000240287
0.000232301
0.00049925
0.000492389
0.000485434
0.000478388
0.000471254
0.000464034
0.00045673
0.000449346
0.000441886
0.000434351
0.000426748
0.000419078
0.000411346
0.000403557
0.000395715
0.000387824
0.00037989
0.000371917
0.000363911
0.000355878
0.000347821
0.000339748
0.000331664
0.000323575
0.000315487
0.000307407
0.000299339
0.000291291
0.000283268
0.000275278
0.000267326
0.000259419
0.000251563
0.000243764
0.000236029
0.000495415
0.000488698
0.000481894
0.000475005
0.000468033
0.000460982
0.000453854
0.000446652
0.000439378
0.000432037
0.000424632
0.000417166
0.000409644
0.000402069
0.000394446
0.000386779
0.000379073
0.000371332
0.000363562
0.000355767
0.000347952
0.000340124
0.000332286
0.000324445
0.000316607
0.000308776
0.000300959
0.000293162
0.00028539
0.00027765
0.000269946
0.000262285
0.000254673
0.000247115
0.000239617
0.000491751
0.000485174
0.000478517
0.000471781
0.000464968
0.000458081
0.000451123
0.000444097
0.000437004
0.00042985
0.000422636
0.000415367
0.000408047
0.000400678
0.000393265