/*--------------------------------*- C++ -*----------------------------------*\
| =========                 |                                                 |
| \\      /  F ield         | OpenFOAM: The Open Source CFD Toolbox           |
|  \\    /   O peration     | Version:  2412                                  |
|   \\  /    A nd           | Website:  www.openfoam.com                      |
|    \\/     M anipulation  |                                                 |
\*---------------------------------------------------------------------------*/
FoamFile
{
    version     2.0;
    format      ascii;
    arch        "LSB;label=32;scalar=64";
    class       surfaceScalarField;
    location    "18.5";
    object      phi;
}
// * * * * * * * * * * * * * * * * * * * * * * * * * * * * * * * * * * * * * //

dimensions      [0 3 -1 0 0 0 0];

oriented        oriented;

internalField   nonuniform List<scalar> 
10423
(
0.000129446
-0.00617445
0.00614621
0.000122245
-0.00613901
0.00615116
8.82439e-05
0.00615387
5.40563e-05
0.00615435
1.97731e-05
0.0061526
-1.44799e-05
0.00614868
-4.8534e-05
0.00614263
-8.22253e-05
0.00613451
-0.000115402
0.00612441
-0.000147921
0.00611241
-0.000179647
0.0060986
-0.000210453
0.0060831
-0.000240221
0.00606602
-0.000268842
0.00604747
-0.000296217
0.00602758
-0.000322256
0.00600648
-0.00034688
0.0059843
-0.000370019
0.00596118
-0.000391614
0.00593726
-0.000411616
0.00591266
-0.000429988
0.00588752
-0.000446706
0.00586198
-0.000461757
-0.000475142
0.00611245
0.000115509
-0.00610571
0.00611711
8.35761e-05
0.00611971
5.146e-05
0.00612024
1.92425e-05
0.00611872
-1.29607e-05
0.00611518
-4.49952e-05
0.00610967
-7.67109e-05
0.00610224
-0.000107969
0.00609295
-0.000138637
0.00608189
-0.000168589
0.00606915
-0.000197708
0.00605481
-0.000225885
0.00603899
-0.000253018
0.00602178
-0.000279013
0.00600331
-0.000303787
0.0059837
-0.000327263
0.00596305
-0.000349375
0.00594151
-0.000370067
0.00591918
-0.00038929
0.0058962
-0.000407008
0.00587269
-0.000423195
0.00584877
-0.000437837
-0.000450932
0.0060807
0.000109211
-0.0060744
0.00608509
7.91859e-05
0.00608757
4.89833e-05
0.00608813
1.86765e-05
0.0060868
-1.16283e-05
0.00608359
-4.17898e-05
0.00607855
-7.16707e-05
0.00607173
-0.000101143
0.00606318
-0.000130086
0.00605297
-0.000158382
0.00604119
-0.000185924
0.00602791
-0.00021261
0.00601324
-0.000238344
0.00599727
-0.00026304
0.0059801
-0.000286618
0.00596184
-0.000309006
0.00594261
-0.000330142
0.00592251
-0.00034997
0.00590166
-0.000368444
0.00588018
-0.000385527
0.00585818
-0.000401194
0.00583577
-0.000415428
-0.000428225
0.00605082
0.000103323
-0.00604493
0.00605495
7.50615e-05
0.0060573
4.66286e-05
0.00605789
1.80912e-05
0.00605671
-1.04535e-05
0.0060538
-3.88765e-05
0.00604918
-6.70519e-05
0.0060429
-9.48625e-05
0.00603501
-0.000122196
0.00602557
-0.000148947
0.00601466
-0.000175013
0.00600235
-0.0002003
0.00598873
-0.00022472
0.00597388
-0.000248192
0.0059579
-0.000270641
0.0059409
-0.000291999
0.00592296
-0.000312206
0.0059042
-0.00033121
0.00588472
-0.000348965
0.00586463
-0.000365435
0.00584403
-0.000380594
0.00582303
-0.000394424
-0.000406918
0.00602268
9.78183e-05
-0.00601718
0.00602655
7.1189e-05
0.00602879
4.43953e-05
0.00602938
1.74982e-05
0.00602834
-9.41297e-06
0.00602568
-3.62205e-05
0.00602144
-6.28094e-05
0.00601565
-8.90719e-05
0.00600836
-0.000114905
0.00599962
-0.00014021
0.0059895
-0.000164895
0.00597808
-0.000188871
0.00596541
-0.000212057
0.0059516
-0.000234376
0.00593671
-0.000255759
0.00592086
-0.000276142
0.00590412
-0.000295467
0.00588659
-0.000313684
0.00586838
-0.00033075
0.00584957
-0.000346629
0.00583027
-0.000361293
0.00581057
-0.000374724
-0.000386913
0.00599615
9.26703e-05
-0.005991
0.00599979
6.75539e-05
0.0060019
4.22806e-05
0.00600249
1.69062e-05
0.00600157
-8.48741e-06
0.00599914
-3.37927e-05
0.00599523
-5.89043e-05
0.00598989
-8.37236e-05
0.00598314
-0.000108156
0.00597504
-0.00013211
0.00596564
-0.000155501
0.00595502
-0.000178247
0.00594323
-0.000200273
0.00593037
-0.000221506
0.00591649
-0.000241883
0.00590169
-0.000261342
0.00588605
-0.00027983
0.00586967
-0.000297298
0.00585262
-0.000313704
0.00583501
-0.000329013
0.00581691
-0.000343197
0.00579842
-0.000356237
-0.000368122
0.00597112
8.78536e-05
-0.0059663
0.00597453
6.41417e-05
0.00597653
4.02803e-05
0.00597712
1.6321e-05
0.00597629
-7.66122e-06
0.00597407
-3.15681e-05
0.00597046
-5.53031e-05
0.00596552
-7.87759e-05
0.00595926
-0.000101899
0.00595174
-0.00012459
0.00594301
-0.000146769
0.00593312
-0.000168361
0.00592214
-0.000189296
0.00591014
-0.000209507
0.0058972
-0.000228933
0.00588337
-0.000247519
0.00586875
-0.000265212
0.00585342
-0.000281966
0.00583746
-0.00029774
0.00582095
-0.000312501
0.00580397
-0.00032622
0.00578661
-0.000338877
-0.000350459
0.00594748
8.33444e-05
-0.00594297
0.00595068
6.09377e-05
0.00595257
3.83893e-05
0.00595315
1.57466e-05
0.00595241
-6.92159e-06
0.00595037
-2.95254e-05
0.00594704
-5.19767e-05
0.00594246
-7.41923e-05
0.00593665
-9.60924e-05
0.00592966
-0.0001176
0.00592153
-0.000138643
0.00591232
-0.000159151
0.00590209
-0.00017906
0.00589089
-0.000198308
0.00587879
-0.000216837
0.00586587
-0.000234595
0.00585219
-0.000251534
0.00583783
-0.000267608
0.00582287
-0.000282779
0.00580738
-0.000297013
0.00579145
-0.000310282
0.00577513
-0.000322565
-0.000333846
0.00592514
7.912e-05
-0.00592091
0.00592815
5.79282e-05
0.00592993
3.66021e-05
0.00593049
1.51857e-05
0.00592983
-6.25801e-06
0.00592795
-2.76467e-05
0.00592487
-4.88995e-05
0.00592062
-6.99405e-05
0.00591523
-9.06963e-05
0.00590872
-0.000111096
0.00590115
-0.000131074
0.00589257
-0.000150564
0.00588301
-0.000169507
0.00587255
-0.000187847
0.00586124
-0.000205529
0.00584915
-0.000222504
0.00583634
-0.000238726
0.00582289
-0.000254152
0.00580886
-0.000268746
0.00579432
-0.000282474
0.00577934
-0.000295308
0.005764
-0.000307226
-0.000318211
0.005904
7.51594e-05
-0.00590004
0.00590683
5.50995e-05
0.00590852
3.49127e-05
0.00590907
1.46396e-05
0.00590847
-5.6618e-06
0.00590674
-2.59162e-05
0.00590389
-4.60495e-05
0.00589994
-6.59921e-05
0.00589492
-8.56767e-05
0.00588886
-0.000105038
0.00588181
-0.000124016
0.00587379
-0.000142549
0.00586487
-0.000160584
0.00585509
-0.000178067
0.00584451
-0.000194948
0.00583319
-0.000211181
0.00582118
-0.000226723
0.00580856
-0.000241533
0.00579539
-0.000255575
0.00578174
-0.000268817
0.00576766
-0.00028123
0.00575322
-0.000292792
-0.000303486
0.00588399
7.14432e-05
-0.00588028
0.00588666
5.2439e-05
0.00588825
3.33151e-05
0.00588878
1.41091e-05
0.00588825
-5.1258e-06
0.00588665
-2.43205e-05
0.00588401
-4.34072e-05
0.00588034
-6.2322e-05
0.00587567
-8.10031e-05
0.00587002
-9.93912e-05
0.00586343
-0.000117429
0.00585595
-0.000135064
0.00584761
-0.000152243
0.00583846
-0.000168917
0.00582855
-0.000185041
0.00581794
-0.000200572
0.00580668
-0.000215467
0.00579484
-0.00022969
0.00578247
-0.000243204
0.00576963
-0.000255979
0.00575639
-0.000267985
0.00574279
-0.000279201
-0.000289607
0.00586504
6.7953e-05
-0.00586155
0.00586754
4.99347e-05
0.00586906
3.18034e-05
0.00586957
1.35941e-05
0.00586909
-4.64404e-06
0.00586762
-2.28479e-05
0.00586517
-4.09554e-05
0.00586175
-5.89078e-05
0.0058574
-7.66485e-05
0.00585213
-9.4123e-05
0.00584598
-0.000111279
0.00583898
-0.000128067
0.00583118
-0.00014444
0.00582261
-0.000160351
0.00581333
-0.00017576
0.00580338
-0.000190624
0.00579282
-0.000204905
0.0057817
-0.000218567
0.00577007
-0.000231576
0.00575799
-0.000243901
0.00574552
-0.000255515
0.00573271
-0.000266393
-0.000276516
0.00584707
6.4672e-05
-0.00584379
0.00584943
4.75751e-05
0.00585086
3.03718e-05
0.00585136
1.30945e-05
0.00585093
-4.21157e-06
0.00584957
-2.14884e-05
0.00584729
-3.86791e-05
0.00584411
-5.57297e-05
0.00584005
-7.25884e-05
0.00583514
-8.92052e-05
0.00582939
-0.000105532
0.00582285
-0.000121524
0.00581554
-0.000137136
0.00580752
-0.000152327
0.00579882
-0.000167058
0.00578948
-0.00018129
0.00577956
-0.000194986
0.00576911
-0.000208114
0.00575817
-0.000220639
0.0057468
-0.000232532
0.00573505
-0.000243765
0.00572298
-0.000254314
-0.000264158
0.00583002
6.15847e-05
-0.00582693
0.00583225
4.53498e-05
0.0058336
2.90148e-05
0.00583409
1.26095e-05
0.0058337
-3.82419e-06
0.00583245
-2.0233e-05
0.00583033
-3.65647e-05
0.00582737
-5.27699e-05
0.00582358
-6.8801e-05
0.00581899
-8.46121e-05
0.00581362
-0.000100159
0.0058075
-0.0001154
0.00580066
-0.000130295
0.00579313
-0.000144806
0.00578497
-0.000158895
0.00577621
-0.000172527
0.00576689
-0.000185667
0.00575706
-0.000198284
0.00574676
-0.000210345
0.00573605
-0.000221821
0.00572497
-0.000232686
0.00571357
-0.000242913
-0.000252483
0.00581384
5.86766e-05
-0.00581093
0.00581594
4.32491e-05
0.00581722
2.77271e-05
0.0058177
1.21383e-05
0.00581735
-3.47841e-06
0.00581619
-1.9074e-05
0.00581423
-3.46005e-05
0.00581147
-5.00126e-05
0.00580793
-6.52666e-05
0.00580364
-8.03204e-05
0.00579862
-9.51337e-05
0.00579288
-0.000109668
0.00578648
-0.000123886
0.00577942
-0.000137753
0.00577176
-0.000151233
0.00576353
-0.000164295
0.00575477
-0.000176905
0.00574552
-0.000189034
0.00573582
-0.00020065
0.00572572
-0.000211724
0.00571527
-0.000222231
0.0057045
-0.000232144
-0.000241444
0.00579846
5.59343e-05
-0.00579572
0.00580044
4.12638e-05
0.00580167
2.65036e-05
0.00580212
1.16798e-05
0.00580182
-3.17128e-06
0.00580075
-1.80044e-05
0.00579892
-3.27757e-05
0.00579635
-4.74433e-05
0.00579305
-6.19673e-05
0.00578904
-7.63089e-05
0.00578434
-9.04312e-05
0.00577897
-0.000104299
0.00577296
-0.000117878
0.00576635
-0.000131135
0.00575915
-0.000144039
0.00575141
-0.000156558
0.00574317
-0.000168663
0.00573446
-0.000180324
0.00572533
-0.000191512
0.0057158
-0.000202199
0.00570593
-0.000212358
0.00569575
-0.000221964
-0.000230996
0.00578384
5.33443e-05
-0.00578125
0.00578572
3.93852e-05
0.00578688
2.53396e-05
0.00578733
1.12327e-05
0.00578706
-2.90037e-06
0.00578607
-1.70182e-05
0.00578437
-3.10804e-05
0.00578198
-4.50488e-05
0.0057789
-5.88865e-05
0.00577515
-7.25581e-05
0.00577075
-8.60295e-05
0.00576572
-9.92682e-05
0.00576008
-0.000112243
0.00575387
-0.000124923
0.00574711
-0.00013728
0.00573983
-0.000149283
0.00573208
-0.000160906
0.00572387
-0.000172119
0.00571525
-0.000182894
0.00570626
-0.000193206
0.00569693
-0.000203027
0.0056873
-0.000212333
-0.000221101
0.00576993
-0.00576747
5.08925e-05
0.00577171
3.76054e-05
0.00577282
2.42297e-05
0.00577325
1.07955e-05
0.00577302
-2.66352e-06
0.00577211
-1.61096e-05
0.00577053
-2.95059e-05
0.0057683
-4.28171e-05
0.00576542
-5.60093e-05
0.00576192
-6.90499e-05
0.00575779
-8.19077e-05
0.00575308
-9.45527e-05
0.00574779
-0.000106956
0.00574196
-0.00011909
0.0057356
-0.000130926
0.00572876
-0.000142438
0.00572145
-0.000153599
0.00571372
-0.000164383
0.00570558
-0.000174762
0.00569709
-0.00018471
0.00568826
-0.000194202
0.00567914
-0.000203213
-0.000211721
0.00575638
0.000482333
-0.00572729
0.000726563
0.00573034
0.000454864
-0.00570287
0.00577173
0.000685166
0.00582684
0.000910595
0.00589529
0.00112834
0.00597654
0.00133561
0.00606991
0.00152963
0.00170725
0.00570568
0.000428874
-0.00567969
0.00574552
0.000645327
0.00579898
0.000857133
0.00586568
0.00106163
0.0059451
0.0012562
0.00603652
0.00143822
0.00160476
0.00568231
0.00040424
-0.00565767
0.00572071
0.000606919
0.00577266
0.000805183
0.00583777
0.000996526
0.00591549
0.00117848
0.00600511
0.00134859
0.00150416
0.00566013
0.00038085
-0.00563674
0.00569723
0.000569824
0.00574779
0.000754623
0.00581142
0.000932893
0.00588758
0.00110232
0.00597555
0.00126062
0.00140531
0.00563908
0.000358602
-0.00561683
0.00567497
0.000533939
0.00572425
0.000705342
0.00578653
0.000870616
0.00586124
0.0010276
0.00594769
0.00117418
0.00130806
0.00561908
0.000337406
-0.00559789
0.00565385
0.000499167
0.00570196
0.000657241
0.00576298
0.000809589
0.00583637
0.00095421
0.00592141
0.00108914
0.0012123
0.00560007
0.000317181
-0.00557984
0.00563381
0.000465422
0.00568083
0.000610229
0.0057407
0.000749717
0.00581286
0.000882043
0.0058966
0.0010054
0.0011179
0.00558198
0.00029785
-0.00556265
0.00561477
0.000432627
0.00566078
0.000564223
0.00571959
0.000690912
0.00579062
0.000811006
0.00587316
0.000922862
0.00102476
0.00556476
0.000279346
-0.00554625
0.00559668
0.000400708
0.00564175
0.000519146
0.00569957
0.000633092
0.00576956
0.000741015
0.005851
0.000841427
0.000932788
0.00554835
0.000261604
-0.00553061
0.00557946
0.0003696
0.00562367
0.00047493
0.00568058
0.000576185
0.0057496
0.000671991
0.00583002
0.000761016
0.000841891
0.00553271
0.000244569
-0.00551567
0.00556306
0.000339242
0.00560648
0.00043151
0.00566255
0.000520122
0.00573067
0.000603862
0.00581014
0.000681551
0.000751989
0.00551778
0.000228188
-0.0055014
0.00554745
0.000309579
0.00559013
0.000388828
0.00564541
0.000464843
0.00571271
0.000536562
0.0057913
0.000602962
0.000663008
0.00550354
0.000212412
-0.00548777
0.00553256
0.000280561
0.00557456
0.000346831
0.00562911
0.000410289
0.00569564
0.000470031
0.00577342
0.000525186
0.000574878
0.00548995
0.000197198
-0.00547473
0.00551837
0.000252141
0.00555973
0.000305469
0.00561361
0.00035641
0.00567942
0.000404214
0.00575645
0.000448162
0.000487536
0.00547696
0.000182505
-0.00546226
0.00550482
0.000224277
0.00554559
0.000264699
0.00559884
0.000303157
0.005664
0.000339059
0.00574032
0.000371837
0.000400926
0.00546454
0.000168297
-0.00545033
0.00549189
0.00019693
0.00553211
0.000224477
0.00558478
0.000250487
0.00564932
0.00027452
0.005725
0.00029616
0.000314995
0.00545267
0.00015454
-0.00543891
0.00547954
0.000170065
0.00551925
0.000184768
0.00557137
0.000198359
0.00563534
0.000210554
0.00571041
0.000221086
0.000229693
0.00544132
0.000141205
-0.00542798
0.00546774
0.000143649
0.00550697
0.000145537
0.00555859
0.000146738
0.00562202
0.000147123
0.00569653
0.000146575
0.000144977
0.00543046
-0.00541752
0.000128263
0.00545645
0.000117654
0.00549524
0.000106755
0.00554638
9.55919e-05
0.00560931
8.41929e-05
0.0056833
7.25873e-05
6.08016e-05
0.00571228
-9.43144e-06
0.000236001
0.00582388
-0.00105661
-0.00588749
0.00577155
-0.0008708
0.00573135
-0.000670352
0.00570394
-0.000458118
0.00568983
-0.000236768
0.00568939
-8.99139e-06
0.000222526
0.00580813
-0.000991991
-0.00587275
0.00575473
-0.000817398
0.00571339
-0.000629013
0.00568477
-0.000429502
0.00566939
-0.000221386
0.00566762
-7.21872e-06
0.000210458
0.00579287
-0.000926471
-0.00585839
0.00573851
-0.000763031
0.00569613
-0.000586642
0.00566642
-0.000399789
0.00564988
-0.000204844
0.00564689
-4.23076e-06
0.000199678
0.0057781
-0.000860143
-0.00584443
0.00572286
-0.000707794
0.00567956
-0.000543337
0.00564885
-0.000369078
0.00563124
-0.000187239
0.00562715
-1.39214e-07
0.000190082
0.00576381
-0.000793088
-0.00583086
0.00570778
-0.00065177
0.00566363
-0.000499183
0.00563201
-0.000337462
0.00561346
-0.000168681
0.00560831
5.01083e-06
0.000181556
0.00574999
-0.00072538
-0.0058177
0.00569325
-0.000595035
0.00564833
-0.00045426
0.00561589
-0.000305018
0.00559645
-0.00014924
0.00559035
1.11026e-05
0.000174023
0.00573663
-0.000657083
-0.00580493
0.00567926
-0.000537656
0.00563363
-0.000408634
0.00560043
-0.000271817
0.00558017
-0.000128984
0.00557323
1.80448e-05
0.00016741
0.00572373
-0.000588255
-0.00579256
0.00566577
-0.000479691
0.0056195
-0.000362368
0.00558561
-0.000237922
0.00556461
-0.000107985
0.00555688
2.57745e-05
0.00016164
0.00571127
-0.000518947
-0.00578058
0.00565278
-0.000421195
0.00560593
-0.000315517
0.0055714
-0.000203393
0.00554972
-8.63039e-05
0.00554126
3.42319e-05
0.000156648
0.00569924
-0.000449204
-0.00576899
0.00564026
-0.000362214
0.00559288
-0.000268133
0.00555777
-0.000168282
0.00553546
-6.39954e-05
0.00552633
4.33606e-05
0.000152373
0.00568763
-0.000379068
-0.00575777
0.00562821
-0.000302793
0.00558034
-0.00022026
0.00554469
-0.000132638
0.00552181
-4.11096e-05
0.00551206
5.31095e-05
0.000148761
0.00567642
-0.000308574
-0.00574692
0.0056166
-0.000242969
0.00556828
-0.00017194
0.00553214
-9.65018e-05
0.00550873
-1.76923e-05
0.0054984
6.34311e-05
0.000145762
0.00566561
-0.000237755
-0.00573642
0.00560541
-0.000182778
0.00555668
-0.000123209
0.0055201
-5.99136e-05
0.00549619
6.21494e-06
0.00548534
7.42826e-05
0.00014333
0.00565517
-0.000166641
-0.00572628
0.00559464
-0.000122251
0.00554553
-7.41015e-05
0.00550853
-2.29118e-05
0.00548417
3.05815e-05
0.00547283
8.56217e-05
0.000141424
0.0056451
-9.52575e-05
-0.00571648
0.00558426
-6.14179e-05
0.00553481
-2.46468e-05
0.00549742
1.44754e-05
0.00547264
5.5365e-05
0.00546084
9.74152e-05
0.000140005
0.00563538
-2.36254e-05
-0.00570701
0.00557427
-3.10105e-07
0.00552449
2.51304e-05
0.00548675
5.22177e-05
0.00546158
8.05347e-05
0.00544937
0.000109629
0.000139039
0.00562602
4.82229e-05
-0.00569787
0.00556463
6.10762e-05
0.00551457
7.5194e-05
0.0054765
9.02849e-05
0.00545097
0.000106063
0.00543837
0.000122233
0.000138494
0.00561698
0.000120276
-0.00568903
0.00555537
0.000122692
0.00550503
0.000125531
0.00546666
0.000128655
0.0054408
0.000131924
0.00542783
0.0001352
0.000138341
0.00560828
-0.00568051
0.00019251
0.00554645
0.000184523
0.00549586
0.000176119
0.00545721
0.000167306
0.00543104
0.000158096
0.00541773
0.000148505
0.000138554
0.00526272
0.000345768
0.0052686
0.000355893
0.00527503
0.000366202
0.00528206
0.000376676
0.00528972
0.000387294
0.00529805
0.000398032
0.00530709
0.000408863
0.00531688
0.000419757
0.00532745
0.000430679
0.00533884
0.00044159
0.00535109
0.000452445
0.00536424
0.000463195
0.00537833
0.000473788
0.00539337
0.000484163
0.0054094
0.000494255
0.00542646
0.000503994
0.00544455
0.000513304
0.00546369
0.000522104
0.00548389
0.000530305
0.00550515
0.000537816
0.00552746
0.00054454
0.0055508
0.000550375
0.00557514
0.000555216
0.00560045
0.000558956
0.00562667
0.000561486
0.00565373
0.000562697
0.00568156
0.00056248
0.00571005
0.000560731
0.00573909
0.000557348
0.00576857
0.000552232
0.00579834
0.00054528
0.00582825
0.000536351
0.00585807
0.000525143
0.000510683
0.00527283
0.000340227
0.00527888
0.000349839
0.00528548
0.000359605
0.00529265
0.000369503
0.00530043
0.000379511
0.00530886
0.000389606
0.00531796
0.00039976
0.00532778
0.000409943
0.00533834
0.000420119
0.00534968
0.000430251
0.00536183
0.000440294
0.00537482
0.000450203
0.00538868
0.000459924
0.00540344
0.000469401
0.00541913
0.000478572
0.00543575
0.000487371
0.00545333
0.000495727
0.00547187
0.000503562
0.00549138
0.000510797
0.00551185
0.000517346
0.00553327
0.00052312
0.00555561
0.000528027
0.00557886
0.000531972
0.00560295
0.000534858
0.00562785
0.000536587
0.00565349
0.000537062
0.00567978
0.000536188
0.00570664
0.000533872
0.00573396
0.000530024
0.00576163
0.00052456
0.00578952
0.00051739
0.00581748
0.000508391
0.00584533
0.000497301
0.000483261
0.00528242
0.000334521
0.00528862
0.000343637
0.00529535
0.000352877
0.00530263
0.000362219
0.0053105
0.000371642
0.00531899
0.000381121
0.00532812
0.000390628
0.00533793
0.000400134
0.00534844
0.000409603
0.0053597
0.000418998
0.00537171
0.000428278
0.00538452
0.000437396
0.00539814
0.000446303
0.0054126
0.000454944
0.00542791
0.000463261
0.00544409
0.000471192
0.00546114
0.00047867
0.00547908
0.000485623
0.00549791
0.000491976
0.0055176
0.000497653
0.00553815
0.00050257
0.00555953
0.000506644
0.00558172
0.000509789
0.00560466
0.000511918
0.0056283
0.000512943
0.00565259
0.000512777
0.00567744
0.000511337
0.00570277
0.00050854
0.00572848
0.000504309
0.00575448
0.000498569
0.00578062
0.000491243
0.00580679
0.000482225
0.0058328
0.000471286
0.000457672
0.00529151
0.000328681
0.00529783
0.000337316
0.00530466
0.000346048
0.00531203
0.000354856
0.00531995
0.000363717
0.00532847
0.000372606
0.0053376
0.000381497
0.00534737
0.000390359
0.00535781
0.000399159
0.00536895
0.00040786
0.00538081
0.000416422
0.00539341
0.0004248
0.00540676
0.000432946
0.0054209
0.00044081
0.00543582
0.000448337
0.00545155
0.000455466
0.00546808
0.000462137
0.00548542
0.000468282
0.00550356
0.000473834
0.0055225
0.000478719
0.0055422
0.000482863
0.00556266
0.000486191
0.00558382
0.000488623
0.00560566
0.000490082
0.00562811
0.000490489
0.00565112
0.000489767
0.00567462
0.000487841
0.00569852
0.00048464
0.00572273
0.000480095
0.00574716
0.000474141
0.00577169
0.000466713
0.0057962
0.000457719
0.00582053
0.000446957
0.000433769
0.00530012
0.000322732
0.00530654
0.000330901
0.00531344
0.000339144
0.00532086
0.000347439
0.00532881
0.000355762
0.00533733
0.000364089
0.00534643
0.000372394
0.00535614
0.000380646
0.00536649
0.000388814
0.00537749
0.00039686
0.00538916
0.000404748
0.00540153
0.000412433
0.00541461
0.000419871
0.0054284
0.000427013
0.00544293
0.000433808
0.0054582
0.000440199
0.00547421
0.000446129
0.00549095
0.000451537
0.00550843
0.000456358
0.00552662
0.000460527
0.00554551
0.000463975
0.00556507
0.000466634
0.00558526
0.000468432
0.00560604
0.000469298
0.00562737
0.000469164
0.00564917
0.00046796
0.00567139
0.00046562
0.00569395
0.00046208
0.00571677
0.000457282
0.00573974
0.000451169
0.00576277
0.000443683
0.00578574
0.000434746
0.00580851
0.000424184
0.000411421
0.00530827
0.000316697
0.00531475
0.000324419
0.00532171
0.000332192
0.00532915
0.000339994
0.00533711
0.000347803
0.0053456
0.000355595
0.00535466
0.000363342
0.00536428
0.000371017
0.00537451
0.000378588
0.00538535
0.000386019
0.00539683
0.000393274
0.00540895
0.000400312
0.00542173
0.000407091
0.00543518
0.000413563
0.0054493
0.000419681
0.00546411
0.000425393
0.0054796
0.000430643
0.00549575
0.000435377
0.00551258
0.000439535
0.00553005
0.000443056
0.00554815
0.000445878
0.00556684
0.000447937
0.0055861
0.000449172
0.00560588
0.000449516
0.00562614
0.000448909
0.00564681
0.000447289
0.00566783
0.000444597
0.00568914
0.000440777
0.00571064
0.000435778
0.00573226
0.000429551
0.0057539
0.000422046
0.00577545
0.000413196
0.00579678
0.00040285
0.000390506
0.00531597
0.000310599
0.0053225
0.000317889
0.00532948
0.000325211
0.00533693
0.000332543
0.00534487
0.000339862
0.00535332
0.000347143
0.0053623
0.000354363
0.00537183
0.000361492
0.00538191
0.0003685
0.00539258
0.000375353
0.00540384
0.000382016
0.0054157
0.00038845
0.00542818
0.000394615
0.00544127
0.000400467
0.00545499
0.00040596
0.00546934
0.000411046
0.00548431
0.000415675
0.00549989
0.000419794
0.00551608
0.000423348
0.00553285
0.000426284
0.00555019
0.000428542
0.00556806
0.000430068
0.00558643
0.000430801
0.00560526
0.000430687
0.0056245
0.000429667
0.0056441
0.000427689
0.00566399
0.0004247
0.00568412
0.000420651
0.0057044
0.000415496
0.00572476
0.000409194
0.0057451
0.000401702
0.00576534
0.000392963
0.00578534
0.000382845
0.000370915
0.00532323
0.000304457
0.00532979
0.000311333
0.00533678
0.000318223
0.00534422
0.000325105
0.00535212
0.000331956
0.00536051
0.000338754
0.0053694
0.000345474
0.0053788
0.000352087
0.00538874
0.000358565
0.00539922
0.000364876
0.00541025
0.000370985
0.00542184
0.000376856
0.00543401
0.000382451
0.00544674
0.000387728
0.00546006
0.000392645
0.00547395
0.000397156
0.00548841
0.000401215
0.00550343
0.000404774
0.00551899
0.000407782
0.00553509
0.000410188
0.00555169
0.000411941
0.00556877
0.000412989
0.00558629
0.00041328
0.00560422
0.000412762
0.0056225
0.000411384
0.00564109
0.0004091
0.00565993
0.000405862
0.00567895
0.000401627
0.00569809
0.000396357
0.00571727
0.000390014
0.00573641
0.000382562
0.00575542
0.000373952
0.00577419
0.000364072
0.000352548
0.00533008
0.000298289
0.00533665
0.000304768
0.00534363
0.000311244
0.00535104
0.000317697
0.00535889
0.000324104
0.0053672
0.000330443
0.00537598
0.00033669
0.00538525
0.000342817
0.00539502
0.000348797
0.0054053
0.000354599
0.00541609
0.000360191
0.00542741
0.000365538
0.00543926
0.000370603
0.00545164
0.000375349
0.00546455
0.000379734
0.00547799
0.000383718
0.00549195
0.000387256
0.00550641
0.000390304
0.00552138
0.000392817
0.00553682
0.000394746
0.00555272
0.000396046
0.00556904
0.000396669
0.00558575
0.000396567
0.00560282
0.000395696
0.00562019
0.000394009
0.00563783
0.000391463
0.00565567
0.000388019
0.00567366
0.000383638
0.00569173
0.000378285
0.00570982
0.00037193
0.00572784
0.00036454
0.00574571
0.000356075
0.00576335
0.000346439
0.000335313
0.00533654
0.000292112
0.0053431
0.00029821
0.00535005
0.000304292
0.00535741
0.000310336
0.0053652
0.000316321
0.00537341
0.000322225
0.00538208
0.000328024
0.0053912
0.000333694
0.00540079
0.000339206
0.00541086
0.000344532
0.00542141
0.00034964
0.00543245
0.000354499
0.00544398
0.000359074
0.005456
0.000363328
0.00546851
0.000367225
0.0054815
0.000370724
0.00549497
0.000373787
0.00550891
0.000376371
0.00552329
0.000378434
0.0055381
0.000379934
0.00555332
0.000380828
0.00556891
0.000381072
0.00558486
0.000380625
0.00560111
0.000379445
0.00561763
0.000377491
0.00563436
0.000374725
0.00565127
0.000371112
0.00566829
0.000366618
0.00568536
0.000361212
0.00570242
0.000354869
0.0057194
0.000347561
0.00573623
0.000339253
0.0057528
0.000329865
0.000319126
0.00534262
0.00028594
0.00534915
0.000291674
0.00535607
0.000297379
0.00536337
0.000303035
0.00537107
0.000308619
0.00537918
0.000314112
0.00538772
0.000319489
0.00539668
0.000324727
0.00540609
0.000329801
0.00541594
0.000334681
0.00542624
0.000339339
0.005437
0.000343744
0.00544821
0.000347864
0.00545987
0.000351665
0.00547198
0.000355111
0.00548454
0.000358167
0.00549753
0.000360795
0.00551094
0.000362957
0.00552476
0.000364614
0.00553897
0.000365728
0.00555354
0.000366259
0.00556844
0.000366167
0.00558365
0.000365416
0.00559913
0.000363967
0.00561484
0.000361785
0.00563073
0.000358835
0.00564676
0.000355085
0.00566287
0.000350507
0.005679
0.000345074
0.00569511
0.000338763
0.00571112
0.000331552
0.00572696
0.000323411
0.00574255
0.000314273
0.000303912
0.00534833
0.000279786
0.00535483
0.000285173
0.00536169
0.000290519
0.00536892
0.000295805
0.00537653
0.00030101
0.00538453
0.000306113
0.00539293
0.000311093
0.00540173
0.000315926
0.00541094
0.000320588
0.00542057
0.000325052
0.00543062
0.000329291
0.00544109
0.000333274
0.00545198
0.000336973
0.00546329
0.000340355
0.00547501
0.000343388
0.00548714
0.000346037
0.00549967
0.000348269
0.00551258
0.000350048
0.00552585
0.000351338
0.00553948
0.000352105
0.00555342
0.000352311
0.00556767
0.000351923
0.00558218
0.000350904
0.00559692
0.000349223
0.00561186
0.000346846
0.00562696
0.000343743
0.00564216
0.000339886
0.00565741
0.000335249
0.00567268
0.00032981
0.00568789
0.00032355
0.00570299
0.000316448
0.00571792
0.000308481
0.0057326
0.000299594
0.000289599
0.0053537
0.000273662
0.00536016
0.000278718
0.00536695
0.000283723
0.0053741
0.000288658
0.00538161
0.000293503
0.00538948
0.000298239
0.00539773
0.000302845
0.00540636
0.000307297
0.00541537
0.000311574
0.00542478
0.000315649
0.00543457
0.000319496
0.00544476
0.000323089
0.00545533
0.000326398
0.00546629
0.000329394
0.00547763
0.000332047
0.00548935
0.000334324
0.00550142
0.000336195
0.00551384
0.000337626
0.00552659
0.000338586
0.00553966
0.000339041
0.00555301
0.000338959
0.00556663
0.000338308
0.00558047
0.000337056
0.00559452
0.000335174
0.00560874
0.000332632
0.00562308
0.000329404
0.0056375
0.000325465
0.00565195
0.000320792
0.0056664
0.000315366
0.00568078
0.00030917
0.00569504
0.000302188
0.00570912
0.0002944
0.00572295
0.000285763
0.000276124
0.00535875
0.000267579
0.00536515
0.000272319
0.00537187
0.000277
0.00537892
0.000281602
0.00538632
0.000286108
0.00539406
0.000290497
0.00540216
0.00029475
0.00541061
0.000298845
0.00541942
0.000302761
0.0054286
0.000306473
0.00543814
0.000309957
0.00544804
0.000313187
0.0054583
0.000316136
0.00546892
0.000318777
0.00547988
0.00032108
0.00549119
0.000323018
0.00550282
0.00032456
0.00551477
0.000325677
0.00552702
0.000326338
0.00553955
0.000326514
0.00555233
0.000326175
0.00556535
0.000325293
0.00557857
0.000323838
0.00559196
0.000321783
0.00560548
0.000319104
0.00561911
0.000315775
0.0056328
0.000311776
0.00564651
0.000307086
0.00566018
0.000301689
0.00567378
0.00029557
0.00568726
0.000288716
0.00570054
0.000281111
0.00571359
0.000272722
0.000263428
0.00536348
0.000261547
0.00536981
0.000265986
0.00537645
0.000270358
0.00538341
0.000274646
0.00539069
0.00027883
0.00539829
0.000282892
0.00540623
0.000286814
0.0054145
0.000290574
0.00542311
0.000294153
0.00543205
0.000297527
0.00544134
0.000300673
0.00545096
0.000303566
0.00546091
0.000306183
0.00547119
0.000308496
0.00548179
0.00031048
0.0054927
0.000312107
0.00550391
0.000313351
0.00551541
0.000314183
0.00552717
0.000314576
0.00553918
0.000314502
0.00555142
0.000313936
0.00556386
0.00031285
0.00557648
0.000311218
0.00558925
0.000309017
0.00560213
0.000306224
0.00561509
0.000302817
0.00562809
0.000298777
0.00564109
0.000294086
0.00565404
0.000288731
0.00566692
0.000282699
0.00567965
0.00027598
0.0056922
0.00026856
0.00570451
0.000260416
0.000251456
0.00536792
0.000255573
0.00537418
0.000259726
0.00538073
0.000263806
0.00538758
0.000267796
0.00539474
0.000271676
0.0054022
0.000275431
0.00540997
0.000279041
0.00541806
0.000282488
0.00542646
0.000285751
0.00543518
0.00028881
0.00544421
0.000291642
0.00545355
0.000294224
0.0054632
0.000296534
0.00547315
0.000298546
0.00548339
0.000300237
0.00549392
0.000301581
0.00550472
0.000302553
0.00551577
0.000303127
0.00552707
0.000303279
0.00553859
0.000302984
0.00555031
0.000302216
0.00556221
0.000300952
0.00557426
0.000299168
0.00558643
0.000296844
0.0055987
0.000293957
0.00561102
0.000290491
0.00562337
0.000286426
0.00563571
0.00028175
0.00564799
0.000276448
0.00566018
0.000270511
0.00567223
0.000263931
0.00568409
0.000256698
0.00569571
0.000248796
0.000240157
0.00537208
0.000249666
0.00537826
0.000253547
0.00538472
0.00025735
0.00539146
0.000261057
0.00539848
0.000264651
0.0054058
0.000268116
0.0054134
0.000271434
0.0054213
0.000274587
0.0054295
0.000277556
0.00543799
0.000280321
0.00544677
0.000282862
0.00545583
0.000285156
0.00546519
0.000287183
0.00547481
0.000288918
0.00548471
0.000290341
0.00549486
0.000291427
0.00550526
0.000292153
0.0055159
0.000292495
0.00552674
0.000292431
0.00553779
0.000291937
0.00554902
0.000290991
0.0055604
0.000289572
0.0055719
0.000287658
0.00558352
0.000285231
0.0055952
0.00028227
0.00560693
0.000278761
0.00561867
0.000274687
0.00563039
0.000270036
0.00564204
0.000264798
0.00565359
0.000258963
0.00566499
0.000252526
0.00567621
0.000245479
0.00568719
0.000237813
0.000229484
0.00537598
0.000243831