/*--------------------------------*- C++ -*----------------------------------*\
| =========                 |                                                 |
| \\      /  F ield         | OpenFOAM: The Open Source CFD Toolbox           |
|  \\    /   O peration     | Version:  2412                                  |
|   \\  /    A nd           | Website:  www.openfoam.com                      |
|    \\/     M anipulation  |                                                 |
\*---------------------------------------------------------------------------*/
FoamFile
{
    version     2.0;
    format      ascii;
    arch        "LSB;label=32;scalar=64";
    class       volScalarField;
    location    "25";
    object      p;
}
// * * * * * * * * * * * * * * * * * * * * * * * * * * * * * * * * * * * * * //

dimensions      [0 2 -2 0 0 0 0];

internalField   nonuniform List<scalar> 
5285
(
-0.00139607
-0.00126292
-0.00113463
-0.00101172
-0.000894633
-0.000783758
-0.000679395
-0.000581748
-0.000490931
-0.000406982
-0.000329863
-0.000259468
-0.000195635
-0.000138147
-8.67461e-05
-4.11367e-05
-9.96165e-07
3.40184e-05
6.42638e-05
9.01034e-05
0.000111902
0.000130021
0.000144812
0.000156615
0.000165755
0.000172537
0.000177248
0.000180154
-0.00141189
-0.00127821
-0.00114936
-0.00102585
-0.000908126
-0.000796595
-0.000691563
-0.000593241
-0.00050175
-0.000417135
-0.000339362
-0.000268331
-0.000203883
-0.000145804
-9.3838e-05
-4.76917e-05
-7.0433e-06
2.84497e-05
5.9144e-05
8.54036e-05
0.000107594
0.000126077
0.000141206
0.000153322
0.000162752
0.000169803
0.000174761
0.0001779
-0.00144264
-0.00130797
-0.00117803
-0.00105337
-0.000934447
-0.000821658
-0.000715338
-0.000615713
-0.00052292
-0.000437013
-0.000357972
-0.000285705
-0.000220059
-0.000160829
-0.000107762
-6.05683e-05
-1.8928e-05
1.75002e-05
4.90726e-05
7.61537e-05
9.91105e-05
0.000118306
0.000134097
0.000146827
0.000156826
0.000164403
0.000169847
0.000173445
-0.00148657
-0.00135055
-0.00121911
-0.00109285
-0.000972233
-0.000857679
-0.000749543
-0.000648077
-0.000553439
-0.000465699
-0.000384854
-0.000310825
-0.000243471
-0.000182594
-0.00012795
-7.9254e-05
-3.61898e-05
1.58212e-06
3.44175e-05
6.26816e-05
8.67426e-05
0.000106967
0.000123712
0.000137328
0.000148146
0.000156482
0.00016263
0.000166892
-0.00140344
-0.00127029
-0.00114218
-0.00101959
-0.000902947
-0.000792648
-0.00068897
-0.000592098
-0.000502127
-0.00041907
-0.000342869
-0.000273398
-0.000210473
-0.000153857
-0.000103274
-5.84149e-05
-1.89423e-05
1.54974e-05
4.52688e-05
7.07412e-05
9.22825e-05
0.000110254
0.000125009
0.000136883
0.000146198
0.000153256
0.000158379
-0.00146468
-0.00133002
-0.00120014
-0.00107559
-0.000956816
-0.000844234
-0.000738167
-0.000638833
-0.000546356
-0.000460781
-0.000382073
-0.000310129
-0.000244781
-0.000185813
-0.000132959
-8.59192e-05
-4.43651e-05
-7.94812e-06
2.36934e-05
5.09271e-05
7.41212e-05
9.36385e-05
0.000109833
0.000123046
0.000133603
0.000141819
0.000148029
-0.0015348
-0.0013983
-0.00126626
-0.00113932
-0.00101797
-0.000902661
-0.000793757
-0.000691517
-0.000596102
-0.000507588
-0.000425972
-0.000351174
-0.00028305
-0.0002214
-0.000165972
-0.000116478
-7.25953e-05
-3.39813e-05
-2.76227e-07
2.88875e-05
5.38796e-05
7.50659e-05
9.28044e-05
0.000107441
0.000119306
0.000128726
0.000136036
0.000181502
0.000181428
0.000180163
0.000177887
0.000174736
0.000170838
0.000166317
0.000161287
0.000155852
0.000150108
0.00014414
0.000138025
0.000131834
0.000125624
0.000119449
0.000113351
0.000107367
0.000101527
9.58543e-05
9.03669e-05
8.50786e-05
7.99984e-05
7.51323e-05
7.0483e-05
6.60509e-05
6.18343e-05
5.78301e-05
5.40338e-05
5.04401e-05
4.70431e-05
4.38363e-05
4.08132e-05
3.7967e-05
3.52908e-05
3.27779e-05
3.04213e-05
2.82141e-05
2.61495e-05
2.42206e-05
2.24202e-05
2.07418e-05
1.91779e-05
1.77234e-05
1.63676e-05
0.000179497
0.000179544
0.000178397
0.000176252
0.000173231
0.000169456
0.000165052
0.000160131
0.000154797
0.000149147
0.000143265
0.000137231
0.000131113
0.00012497
0.000118856
0.000112814
0.000106882
0.000101088
9.54572e-05
9.00082e-05
8.47546e-05
7.97059e-05
7.48683e-05
7.02448e-05
6.5836e-05
6.16406e-05
5.76555e-05
5.38766e-05
5.02985e-05
4.69157e-05
4.37218e-05
4.07103e-05
3.78746e-05
3.5208e-05
3.27036e-05
3.03547e-05
2.81545e-05
2.60962e-05
2.41728e-05
2.23775e-05
2.07035e-05
1.91437e-05
1.76928e-05
1.63402e-05
0.000175508
0.000175799
0.000174893
0.000173011
0.000170246
0.000166715
0.000162541
0.000157835
0.000152702
0.000147238
0.000141528
0.000135652
0.000129679
0.000123669
0.000117677
0.000111746
0.000105915
0.000100213
9.46664e-05
8.92935e-05
8.4109e-05
7.91229e-05
7.4342e-05
6.97699e-05
6.54077e-05
6.12543e-05
5.73074e-05
5.35629e-05
5.00162e-05
4.66616e-05
4.34933e-05
4.0505e-05
3.76903e-05
3.50426e-05
3.25553e-05
3.02218e-05
2.80355e-05
2.59896e-05
2.40774e-05
2.22921e-05
2.06271e-05
1.90752e-05
1.76316e-05
1.62854e-05
0.000169585
0.000170246
0.00016971
0.000168217
0.000165832
0.00016266
0.000158824
0.000154436
0.000149598
0.000144407
0.00013895
0.000133307
0.000127548
0.000121736
0.000115923
0.000110157
0.000104476
9.89109e-05
9.34885e-05
8.82286e-05
8.31467e-05
7.82537e-05
7.35572e-05
6.90615e-05
6.47685e-05
6.06779e-05
5.67877e-05
5.30946e-05
4.95945e-05
4.62821e-05
4.3152e-05
4.01983e-05
3.74148e-05
3.47953e-05
3.23336e-05
3.00231e-05
2.78574e-05
2.58301e-05
2.39346e-05
2.21643e-05
2.05127e-05
1.89729e-05
1.75399e-05
1.62035e-05
0.000161803
0.000162966
0.000162933
0.000161954
0.000160062
0.000157357
0.00015396
0.000149982
0.000145528
0.000140692
0.000135564
0.000130225
0.000124746
0.00011919
0.000113613
0.000108062
0.000102577
9.71922e-05
9.19332e-05
8.68219e-05
8.18749e-05
7.71045e-05
7.25191e-05
6.81242e-05
6.39225e-05
5.99146e-05
5.60994e-05
5.24743e-05
4.90357e-05
4.57791e-05
4.26995e-05
3.97915e-05
3.70494e-05
3.44673e-05
3.20393e-05
2.97593e-05
2.76211e-05
2.56184e-05
2.3745e-05
2.19945e-05
2.03607e-05
1.88368e-05
1.74181e-05
1.60945e-05
0.000152263
0.00015407
0.000154679
0.000154327
0.000153032
0.00015089
0.000148022
0.00014454
0.000140547
0.000136141
0.000131412
0.000126441
0.000121302
0.000116059
0.000110769
0.000105481
0.000100237
9.50717e-05
9.00131e-05
8.50842e-05
8.03032e-05
7.56834e-05
7.12349e-05
6.69641e-05
6.2875e-05
5.89693e-05
5.52466e-05
5.17054e-05
4.83429e-05
4.51552e-05
4.21381e-05
3.92866e-05
3.65957e-05
3.406e-05
3.16738e-05
2.94315e-05
2.73272e-05
2.53551e-05
2.35091e-05
2.17832e-05
2.01715e-05
1.86674e-05
1.72665e-05
1.59587e-05
0.000141073
0.000143691
0.000145085
0.000145461
0.000144851
0.000143354
0.000141094
0.000138181
0.00013472
0.00013081
0.000126541
0.000121996
0.000117251
0.000112372
0.000107417
0.000102437
9.74743e-05
9.25662e-05
8.77425e-05
8.30279e-05
7.84419e-05
7.39996e-05
6.97123e-05
6.5588e-05
6.16319e-05
5.78468e-05
5.42336e-05
5.07917e-05
4.75191e-05
4.44131e-05
4.147e-05
3.86857e-05
3.60555e-05
3.35747e-05
3.12382e-05
2.90406e-05
2.69768e-05
2.5041e-05
2.32277e-05
2.15311e-05
1.99457e-05
1.84652e-05
1.70853e-05
1.57966e-05
0.000128003
0.000131686
0.000134045
0.000135253
0.000135417
0.000134651
0.000133077
0.00013081
0.000127954
0.000124608
0.000120866
0.000116812
0.000112521
0.000108061
0.000103493
9.88684e-05
9.42326e-05
8.96237e-05
8.50737e-05
8.06089e-05
7.62507e-05
7.2016e-05
6.79175e-05
6.39648e-05
6.01646e-05
5.65212e-05
5.30367e-05
4.97115e-05
4.6545e-05
4.35352e-05
4.06793e-05
3.7974e-05
3.54155e-05
3.29996e-05
3.07217e-05
2.85771e-05
2.65609e-05
2.46681e-05
2.28934e-05
2.12316e-05
1.96773e-05
1.82248e-05
1.687e-05
1.56039e-05
0.000113714
0.000118397
0.00012171
0.000123806
0.000124807
0.000124838
0.000124019
0.000122463
0.000120277
0.00011756
0.000114406
0.000110899
0.000107118
0.00010313
9.8998e-05
9.47758e-05
9.05101e-05
8.62409e-05
8.20022e-05
7.78222e-05
7.37242e-05
6.97266e-05
6.58443e-05
6.20885e-05
5.84674e-05
5.49868e-05
5.16503e-05
4.84597e-05
4.54153e-05
4.25164e-05
3.97612e-05
3.71473e-05
3.46717e-05
3.23307e-05
3.01206e-05
2.80373e-05
2.60765e-05
2.42335e-05
2.25037e-05
2.08822e-05
1.93641e-05
1.79441e-05
1.66185e-05
1.53787e-05
9.86239e-05
0.000104265
0.000108518
0.000111517
0.000113385
0.000114246
0.000114218
0.000113412
0.000111934
0.000109885
0.000107358
0.000104437
0.000101202
9.77228e-05
9.4062e-05
9.02753e-05
8.64111e-05
8.25115e-05
7.86121e-05
7.4743e-05
7.09295e-05
6.71919e-05
6.35469e-05
6.00075e-05
5.65835e-05
5.32824e-05
5.01092e-05
4.70672e-05
4.41579e-05
4.13818e-05
3.87381e-05
3.62255e-05
3.38416e-05
3.15839e-05
2.94492e-05
2.74341e-05
2.55347e-05
2.37472e-05
2.20674e-05
2.04908e-05
1.90132e-05
1.76296e-05
1.63366e-05
1.51262e-05
8.28691e-05
8.94542e-05
9.46424e-05
9.85517e-05
0.0001013
0.000103008
0.000103793
0.000103762
0.00010302
0.000101667
9.97956e-05
9.74911e-05
9.48323e-05
9.18902e-05
8.8729e-05
8.54054e-05
8.19694e-05
7.84647e-05
7.49287e-05
7.13935e-05
6.7886e-05
6.44287e-05
6.104e-05
5.77345e-05
5.45241e-05
5.14176e-05
4.84218e-05
4.55413e-05
4.27791e-05
4.01367e-05
3.76147e-05
3.52125e-05
3.2929e-05
3.07623e-05
2.871e-05
2.67695e-05
2.49375e-05
2.32109e-05
2.15859e-05
2.00587e-05
1.86256e-05
1.72819e-05
1.60249e-05
1.48469e-05
6.66287e-05
7.41435e-05
8.02533e-05
8.50666e-05
8.86955e-05
9.12571e-05
9.28632e-05
9.362e-05
9.36302e-05
9.29916e-05
9.17958e-05
9.01283e-05
8.80674e-05
8.56849e-05
8.30455e-05
8.0207e-05
7.72208e-05
7.41319e-05
7.09797e-05
6.77977e-05
6.46149e-05
6.14553e-05
5.83394e-05
5.52835e-05
5.23012e-05
4.94031e-05
4.65973e-05
4.38901e-05
4.12858e-05
3.87873e-05
3.63961e-05
3.4113e-05
3.19377e-05
2.98692e-05
2.79059e-05
2.6046e-05
2.42871e-05
2.26263e-05
2.10608e-05
1.95873e-05
1.82025e-05
1.69023e-05
1.56845e-05
1.45417e-05
5.00886e-05
5.85051e-05
6.55124e-05
7.12116e-05
7.57093e-05
7.91173e-05
8.15433e-05
8.30902e-05
8.3858e-05
8.39423e-05
8.34335e-05
8.24157e-05
8.09673e-05
7.91597e-05
7.70581e-05
7.47213e-05
7.22015e-05
6.95452e-05
6.6793e-05
6.39803e-05
6.11375e-05
5.82907e-05
5.54617e-05
5.2669e-05
4.99276e-05
4.72497e-05
4.46453e-05
4.2122e-05
3.96854e-05
3.73398e-05
3.5088e-05
3.29318e-05
3.08718e-05
2.89082e-05
2.70401e-05
2.52665e-05
2.35857e-05
2.19956e-05
2.04939e-05
1.9078e-05
1.77452e-05
1.64918e-05
1.53161e-05
1.42114e-05
3.3423e-05
4.27009e-05
5.05707e-05
5.71272e-05
6.24711e-05
6.67085e-05
6.99424e-05
7.22718e-05
7.37937e-05
7.46009e-05
7.47818e-05
7.44193e-05
7.35906e-05
7.2367e-05
7.08136e-05
6.89897e-05
6.69483e-05
6.47368e-05
6.23973e-05
5.99663e-05
5.74761e-05
5.49541e-05
5.2424e-05
4.99057e-05
4.74161e-05
4.4969e-05
4.25758e-05
4.02456e-05
3.79854e-05
3.58009e-05
3.36961e-05
3.16738e-05
2.97358e-05
2.78831e-05
2.61158e-05
2.44337e-05
2.28358e-05
2.13208e-05
1.9887e-05
1.85325e-05
1.7255e-05
1.60516e-05
1.4921e-05
1.38569e-05
1.67914e-05
2.68806e-05
3.55688e-05
4.29446e-05
4.91027e-05
5.41432e-05
5.81639e-05
6.12597e-05
6.35237e-05
6.50458e-05
6.59119e-05
6.62029e-05
6.59949e-05
6.53582e-05
6.43579e-05
6.30531e-05
6.14974e-05
5.97391e-05
5.7821e-05
5.57811e-05
5.36528e-05
5.14652e-05
4.92434e-05
4.7009e-05
4.47802e-05
4.25726e-05
4.0399e-05
3.82699e-05
3.61938e-05
3.41775e-05
3.22264e-05
3.03443e-05
2.85341e-05
2.67978e-05
2.51365e-05
2.35506e-05
2.204e-05
2.06041e-05
1.92421e-05
1.79523e-05
1.67334e-05
1.5583e-05
1.45002e-05
1.34792e-05
3.38367e-07
1.11805e-05
2.06349e-05
2.87841e-05
3.57164e-05
4.15258e-05
4.63044e-05
5.01428e-05
5.31297e-05
5.53516e-05
5.68915e-05
5.78282e-05
5.82357e-05
5.81836e-05
5.7736e-05
5.69519e-05
5.5885e-05
5.4584e-05
5.30926e-05
5.14498e-05
4.969e-05
4.78437e-05
4.59374e-05
4.39941e-05
4.20335e-05
4.00725e-05
3.81254e-05
3.62041e-05
3.43185e-05
3.24766e-05
3.0685e-05
2.89486e-05
2.72715e-05
2.56565e-05
2.41057e-05
2.26202e-05
2.1201e-05
1.9848e-05
1.85611e-05
1.73394e-05
1.61821e-05
1.50874e-05
1.40548e-05
1.30793e-05
-1.58078e-05
-4.2775e-06
5.88467e-06
1.47547e-05
2.24147e-05
2.89521e-05
3.44533e-05
3.90038e-05
4.2688e-05
4.55885e-05
4.7785e-05
4.93536e-05
5.03665e-05
5.08913e-05
5.09914e-05
5.07251e-05
5.01461e-05
4.9303e-05
4.82402e-05
4.69974e-05
4.561e-05
4.41095e-05
4.25235e-05
4.08765e-05
3.91894e-05
3.74805e-05
3.57654e-05
3.40574e-05
3.23677e-05
3.07054e-05
2.90782e-05
2.74924e-05
2.59528e-05
2.44634e-05
2.30271e-05
2.1646e-05
2.03216e-05
1.90549e-05
1.78462e-05
1.66956e-05
1.56026e-05
1.4566e-05
1.35861e-05
1.26582e-05
-3.15359e-05
-1.93865e-05
-8.57976e-06
9.53737e-07
9.28979e-06
1.65089e-05
2.26919e-05
2.79187e-05
3.22692e-05
3.58218e-05
3.86526e-05
4.08345e-05
4.24375e-05
4.35273e-05
4.41658e-05
4.44106e-05
4.43146e-05
4.39267e-05
4.32913e-05
4.24485e-05
4.14346e-05
4.02819e-05
3.9019e-05
3.76715e-05
3.62616e-05
3.48088e-05
3.33299e-05
3.18394e-05
3.03496e-05
2.88711e-05
2.74125e-05
2.59811e-05
2.45829e-05
2.32228e-05
2.19045e-05
2.0631e-05
1.94048e-05
1.82273e-05
1.70997e-05
1.60227e-05
1.49965e-05
1.40205e-05
1.30954e-05
1.22171e-05
-4.67514e-05
-3.40545e-05
-2.26695e-05
-1.25334e-05
-3.57679e-06
4.27398e-06
1.10935e-05
1.69566e-05
2.1938e-05
2.61118e-05
2.95499e-05
3.23224e-05
3.44962e-05
3.61349e-05
3.72989e-05
3.80442e-05
3.84233e-05
3.84846e-05
3.82724e-05
3.7827e-05
3.71853e-05
3.638e-05
3.5441e-05
3.43944e-05
3.32637e-05
3.20694e-05
3.08294e-05
2.95593e-05
2.82727e-05
2.6981e-05
2.56942e-05
2.44205e-05
2.31669e-05
2.19391e-05
2.07418e-05
1.95789e-05
1.84534e-05
1.73678e-05
1.63239e-05
1.53229e-05
1.43657e-05
1.34524e-05
1.2584e-05
1.17572e-05
-6.13761e-05
-4.82044e-05
-3.63089e-05
-2.56329e-05
-1.61138e-05
-7.68442e-06
-2.76451e-07
6.17941e-06
1.17528e-05
1.65131e-05
2.05284e-05
2.38649e-05
2.65867e-05
2.87549e-05
3.04278e-05
3.16602e-05
3.25034e-05
3.3005e-05
3.3209e-05
3.3156e-05
3.28827e-05
3.24227e-05
3.18062e-05
3.10602e-05
3.0209e-05
2.92741e-05
2.82744e-05
2.72266e-05
2.61451e-05
2.50427e-05
2.393e-05
2.28164e-05
2.17097e-05
2.06167e-05
1.95429e-05
1.84929e-05
1.74706e-05
1.64792e-05
1.55211e-05
1.45981e-05
1.3712e-05
1.28632e-05
1.20534e-05
1.12797e-05
-7.53468e-05
-6.17725e-05
-4.94345e-05
-3.82825e-05
-2.826e-05
-1.93069e-05
-1.13608e-05
-4.358e-06
1.76592e-06
7.07549e-06
1.16346e-05
1.55057e-05
1.87496e-05
2.1425e-05
2.35876e-05
2.52907e-05
2.65841e-05
2.75146e-05
2.81257e-05
2.84576e-05
2.85471e-05
2.8428e-05
2.81308e-05
2.76834e-05
2.71105e-05
2.64346e-05
2.56754e-05
2.48504e-05
2.39752e-05
2.30632e-05
2.21262e-05
2.11744e-05
2.02166e-05
1.92603e-05
1.83118e-05
1.73767e-05
1.64595e-05
1.55641e-05
1.46936e-05
1.38506e-05
1.30372e-05
1.22546e-05
1.15049e-05
1.07858e-05
-8.86145e-05
-7.47083e-05
-6.1995e-05
-5.04303e-05
-3.99641e-05
-3.05427e-05
-2.21099e-05
-1.46077e-05
-7.97659e-06
-2.1571e-06
2.9103e-06
7.28429e-06
1.10223e-05
1.41798e-05
1.68106e-05
1.89655e-05
2.06931e-05
2.2039e-05
2.30457e-05
2.3753e-05
2.41976e-05
2.44132e-05
2.44307e-05
2.42782e-05
2.39811e-05
2.35624e-05
2.30426e-05
2.24401e-05
2.17711e-05
2.105e-05
2.02894e-05
1.95004e-05
1.86926e-05
1.78742e-05
1.70525e-05
1.62338e-05
1.54232e-05
1.46253e-05
1.3844e-05
1.30824e-05
1.23432e-05
1.16282e-05
1.094e-05
1.02768e-05
-0.000101143
-8.69729e-05
-7.39496e-05
-6.20345e-05
-5.11836e-05
-4.13495e-05
-3.24819e-05
-2.45283e-05
-1.74345e-05
-1.11458e-05
-5.60712e-06
-7.63754e-07
3.43817e-06
7.05124e-06
1.01264e-05
1.27124e-05
1.48562e-05
1.66017e-05
1.79908e-05
1.90623e-05
1.98526e-05
2.03952e-05
2.0721e-05
2.08583e-05
2.08331e-05
2.06686e-05
2.03861e-05
2.00045e-05
1.95408e-05
1.90102e-05
1.8426e-05
1.78001e-05
1.71427e-05
1.64631e-05
1.57691e-05
1.50677e-05
1.43648e-05
1.36656e-05
1.29747e-05
1.22957e-05
1.16319e-05
1.09857e-05
1.03601e-05
9.75403e-06
-0.000112906
-9.8538e-05
-8.52677e-05
-7.30626e-05
-6.18847e-05
-5.16925e-05
-4.24417e-05
-3.4085e-05
-2.65734e-05
-1.98569e-05
-1.3885e-05
-8.60697e-06
-3.97252e-06
6.77533e-08
3.56201e-06
6.55682e-06
9.09693e-06
1.1225e-05
1.29814e-05
1.44043e-05
1.55293e-05
1.63897e-05
1.70161e-05
1.7437e-05
1.76783e-05
1.7764e-05
1.77155e-05
1.75524e-05
1.72923e-05
1.69509e-05
1.65423e-05
1.6079e-05
1.55721e-05
1.50314e-05
1.44655e-05
1.38819e-05
1.32875e-05
1.26879e-05
1.20882e-05
1.14927e-05
1.09053e-05
1.03289e-05
9.76688e-06
9.21876e-06
-0.000123891
-0.000109385
-9.59275e-05
-8.34904e-05
-7.20412e-05
-6.15444e-05
-5.19609e-05
-4.32488e-05
-3.53642e-05
-2.82616e-05
-2.18951e-05
-1.62178e-05
-1.11832e-05
-6.74506e-06
-2.85813e-06
5.21729e-07
3.43717e-06
5.92912e-06
8.03662e-06
9.79667e-06
1.12441e-05
1.24117e-05
1.33298e-05
1.40266e-05
1.45284e-05
1.4859e-05
1.50403e-05
1.50923e-05
1.50331e-05
1.48789e-05
1.46444e-05
1.43428e-05
1.39857e-05
1.35835e-05
1.31456e-05
1.26802e-05
1.21944e-05
1.16948e-05
1.11869e-05
1.06756e-05
1.01653e-05
9.65934e-06
9.16172e-06
8.67235e-06
-0.000134089
-0.000119503
-0.000105915
-9.33011e-05
-8.16341e-05
-7.08841e-05
-6.10173e-05
-5.19966e-05
-4.3783e-05
-3.63359e-05
-2.96132e-05
-2.35725e-05
-1.81706e-05
-1.33646e-05
-9.11234e-06
-5.37208e-06
-2.10342e-06
7.32717e-07
3.17382e-06
5.25567e-06
7.01216e-06
8.47526e-06
9.67497e-06
1.06393e-05
1.13941e-05
1.19635e-05
1.23696e-05
1.26325e-05
1.27707e-05
1.2801e-05
1.27385e-05
1.25968e-05
1.23883e-05
1.21239e-05
1.18135e-05
1.14659e-05
1.10888e-05
1.06892e-05
1.02734e-05
9.84665e-06
9.41389e-06
8.97889e-06
8.54618e-06
8.11613e-06
-0.000143502
-0.00012889
-0.000115223
-0.000102485
-9.06507e-05
-7.96967e-05
-6.9594e-05
-6.03102e-05
-5.18109e-05
-4.40599e-05
-3.70194e-05
-3.06508e-05
-2.49146e-05
-1.97713e-05
-1.51815e-05
-1.11061e-05
-7.50711e-06
-4.34735e-06
-1.59101e-06
7.96333e-07
2.84747e-06
4.59353e-06
6.06386e-06
7.28604e-06
8.28578e-06
9.08701e-06
9.71187e-06
1.01807e-05
1.05123e-05
1.07237e-05
1.08304e-05
1.08465e-05
1.07849e-05
1.06569e-05
1.0473e-05
1.02424e-05
9.97358e-06
9.6739e-06
9.35007e-06
9.00797e-06
8.65294e-06
8.28923e-06
7.92178e-06
7.55146e-06
-0.000152137
-0.000137547
-0.000123852
-0.000111037
-9.90838e-05
-8.79727e-05
-7.76795e-05
-6.81763e-05
-5.94331e-05
-5.1418e-05
-4.40973e-05
-3.7436e-05
-3.13985e-05
-2.59482e-05
-2.10489e-05
-1.66641e-05
-1.27582e-05
-9.29596e-06
-6.24342e-06
-3.56763e-06
-1.23701e-06
7.78574e-07
2.50774e-06
3.97748e-06
5.21315e-06
6.23847e-06
7.07548e-06
7.74463e-06
8.26476e-06
8.65319e-06
8.92577e-06
9.09696e-06
9.17993e-06
9.18661e-06
9.12781e-06
9.0133e-06
8.85191e-06
8.65156e-06
8.4194e-06
8.16176e-06
7.88442e-06
7.59207e-06
7.29004e-06
6.97968e-06
-0.000160006
-0.000145484
-0.000131805
-0.000118958
-0.000106931
-9.57071e-05
-8.52665e-05
-7.55857e-05
-6.66389e-05
-5.83983e-05
-5.08339e-05
-4.39146e-05
-3.76081e-05
-3.18812e-05
-2.67003e-05
-2.2032e-05
-1.78428e-05
-1.40997e-05
-1.07705e-05
-7.82384e-06
-5.22952e-06
-2.95847e-06
-9.82952e-07
7.23354e-07
2.18531e-06
3.4263e-06
4.46817e-06
5.33131e-06
6.03461e-06
6.59551e-06
7.0301e-06
7.35311e-06
7.57802e-06
7.71714e-06
7.78166e-06
7.78178e-06
7.72673e-06
7.62487e-06
7.48376e-06
7.31015e-06
7.11024e-06
6.88911e-06
6.65247e-06
6.40213e-06
-0.000167127
-0.000152713
-0.000139091
-0.000126255
-0.000114195
-0.000102899
-9.23521e-05
-8.25334e-05
-7.34215e-05
-6.49923e-05
-5.72197e-05
-5.0076e-05
-4.35322e-05
-3.75584e-05
-3.21239e-05
-2.71977e-05
-2.27489e-05
-1.87467e-05
-1.51607e-05
-1.19612e-05
-9.11942e-06
-6.60748e-06
-4.39862e-06
-2.46731e-06
-7.89285e-07
6.58379e-07
1.89725e-06
2.94754e-06
3.82809e-06
4.55638e-06
5.14862e-06
5.61974e-06
5.98348e-06
6.25244e-06
6.43813e-06
6.55111e-06
6.60098e-06
6.59646e-06
6.54551e-06
6.45526e-06
6.33227e-06
6.18203e-06
6.01056e-06
5.82013e-06
-0.00017352
-0.000159249
-0.000145722
-0.000132935
-0.000120882
-0.000109553
-9.89367e-05
-8.90176e-05
-7.97771e-05
-7.11947e-05
-6.32479e-05
-5.59123e-05
-4.91622e-05
-4.29706e-05
-3.73097e-05
-3.21512e-05
-2.74664e-05
-2.32268e-05
-1.9404e-05
-1.59699e-05
-1.28972e-05
-1.01593e-05
-7.73054e-06
-5.58624e-06
-3.70285e-06
-2.05797e-06
-6.30445e-07
5.99675e-07
1.65108e-06
2.54121e-06
3.28632e-06
3.90144e-06
4.4005e-06
4.79631e-06
5.10067e-06
5.32441e-06
5.47746e-06
5.56888e-06
5.60695e-06
5.59915e-06
5.55237e-06
5.47247e-06
5.36579e-06
5.23499e-06
-0.000179207
-0.000165113
-0.000151715
-0.000139012
-0.000126999
-0.000115673
-0.000105024
-9.50395e-05
-8.57049e-05
-7.7003e-05
-6.89145e-05
-6.14183e-05
-5.44917e-05
-4.81105e-05
-4.22499e-05
-3.68841e-05
-3.19867e-05
-2.75314e-05
-2.34917e-05
-1.98413e-05
-1.65544e-05
-1.36058e-05
-1.09708e-05
-8.62591e-06
-6.54821e-06
-4.716e-06
-3.10857e-06
-1.70636e-06
-4.90899e-07
5.55128e-07
1.44791e-06
2.20255e-06
2.83305e-06
3.35241e-06
3.77261e-06
4.10472e-06
4.35895e-06
4.54462e-06
4.67031e-06
4.74382e-06
4.77236e-06
4.76207e-06
4.7196e-06
4.64801e-06
-0.000184215
-0.000170326
-0.000157087
-0.000144499
-0.00013256
-0.000121269
-0.00011062
-0.000100603
-9.12067e-05
-8.24171e-05
-7.42178e-05
-6.65908e-05
-5.95163e-05
-5.2973e-05
-4.69387e-05
-4.13899e-05
-3.63029e-05
-3.16532e-05
-2.74164e-05
-2.3568e-05
-2.00837e-05
-1.69396e-05
-1.41124e-05
-1.15795e-05
-9.31885e-06
-7.30948e-06
-5.53125e-06
-3.96503e-06
-2.59266e-06
-1.39705e-06
-3.6211e-07
5.27212e-07
1.28496e-06
1.92423e-06
2.45714e-06
2.89496e-06
3.24808e-06
3.52608e-06
3.73779e-06
3.89126e-06
3.99399e-06
4.05241e-06
4.07343e-06
4.06046e-06
-0.00018857
-0.000174912
-0.000161859
-0.000149414
-0.000137578
-0.000126352
-0.000115733
-0.000105714
-9.62867e-05
-8.74391e-05
-7.91583e-05
-7.14289e-05
-6.42339e-05
-5.75548e-05
-5.13717e-05
-4.56639e-05
-4.04095e-05
-3.55865e-05
-3.11721e-05
-2.71438e-05
-2.34788e-05
-2.01546e-05
-1.71492e-05
-1.4441e-05
-1.2009e-05
-9.8329e-06
-7.89324e-06
-6.17137e-06
-4.64954e-06
-3.31094e-06
-2.13968e-06
-1.12079e-06
-2.40271e-07
5.14996e-07
1.15724e-06
1.69782e-06
2.14732e-06
2.5155e-06
2.8114e-06
3.0433e-06
3.21893e-06
3.34499e-06
3.42861e-06
3.4735e-06
-0.000192303
-0.000178899
-0.000166056
-0.000153779
-0.000142073
-0.000130938
-0.000120376
-0.000110383
-0.000100952
-9.20745e-05
-8.37396e-05
-7.59346e-05
-6.86453e-05
-6.18554e-05
-5.55477e-05
-4.97036e-05
-4.43036e-05
-3.93276e-05
-3.47549e-05
-3.05644e-05
-2.67352e-05
-2.32462e-05
-2.00766e-05
-1.72059e-05
-1.46142e-05
-1.22819e-05
-1.01903e-05
-8.32132e-06
-6.65769e-06
-5.18292e-06
-3.88137e-06
-2.73827e-06
-1.73969e-06
-8.72551e-07
-1.24592e-07
5.15634e-07
1.0588e-06
1.51482e-06
1.8929e-06
2.20153e-06
2.44861e-06
2.64109e-06
2.7863e-06
2.88818e-06
-0.000195439
-0.000182309
-0.000169698
-0.000157613
-0.00014606
-0.000135045
-0.000124564
-0.000114621
-0.000105212
-9.63304e-05
-8.79669e-05
-8.01115e-05
-7.27523e-05
-6.58755e-05
-5.94661e-05
-5.35077e-05
-4.79829e-05
-4.28736e-05
-3.8161e-05
-3.38259e-05
-2.98487e-05
-2.62098e-05
-2.28899e-05
-1.98694e-05
-1.71296e-05
-1.46517e-05
-1.24178e-05
-1.04105e-05
-8.61284e-06
-7.00891e-06
-5.58334e-06
-4.32159e-06
-3.20988e-06
-2.2352e-06
-1.38535e-06
-6.4883e-07
-1.49192e-08
5.2641e-07
9.84488e-07
1.36794e-06
1.68487e-06
1.94239e-06
2.14803e-06
2.30595e-06
-0.000197999
-0.000185159
-0.000172797
-0.000160925
-0.000149548
-0.000138674
-0.000128304
-0.000118435
-0.000109072
-0.000100211
-9.18425e-05
-8.39604e-05
-7.65546e-05
-6.96135e-05
-6.31242e-05
-5.70726e-05
-5.14432e-05
-4.62199e-05
-4.13856e-05
-3.69228e-05
-3.28136e-05
-2.90399e-05
-2.55834e-05
-2.24261e-05
-1.95499e-05
-1.69372e-05
-1.45708e-05
-1.24339e-05
-1.05104e-05
-8.78452e-06
-7.24144e-06
-5.86685e-06
-4.64719e-06
-3.5696e-06
-2.62191e-06
-1.79269e-06
-1.07119e-06
-4.4731e-07
8.83573e-08
5.44561e-07
9.29526e-07
1.25054e-06
1.51527e-06
1.72807e-06
-0.000152554
-0.000141839
-0.000131598
-0.000121831
-0.000112537
-0.000103718
-9.53681e-05
-8.74819e-05
-8.00516e-05
-7.30679e-05
-6.652e-05
-6.03955e-05
-5.46812e-05
-4.93626e-05
-4.44244e-05
-3.98509e-05
-3.56256e-05
-3.17318e-05
-2.81526e-05
-2.48711e-05
-2.18704e-05
-1.91337e-05
-1.66448e-05
-1.43875e-05
-1.23462e-05
-1.05059e-05
-8.85206e-06
-7.37068e-06
-6.04848e-06
-4.87277e-06
-3.83155e-06
-2.91342e-06
-2.10766e-06
-1.40418e-06
-7.93514e-07
-2.66817e-07
1.8422e-07
5.67029e-07
8.89363e-07
1.1559e-06
-0.00146873
-0.00133195
-0.00120041
-0.00107463
-0.000955074
-0.000842123
-0.000736053
-0.000637042
-0.000545176
-0.000460457
-0.000382811
-0.000312093
-0.000248098
-0.00019057
-0.000139209
-9.36825e-05
-5.36325e-05
-1.86845e-05
1.15455e-05
3.7444e-05
5.93946e-05
7.77722e-05
9.29393e-05
0.00010524
0.000114997
0.000122521
-0.00164429
-0.00150377
-0.00136761
-0.00123649
-0.00111093
-0.000991403
-0.000878292
-0.000771887
-0.000672377
-0.000579863
-0.000494363
-0.000415817
-0.000344097
-0.000279015
-0.00022033
-0.000167759
-0.000120984
-7.96604e-05
-4.34279e-05
-1.1914e-05
1.52575e-05
3.84603e-05
5.80612e-05
7.44151e-05
8.78611e-05
9.87176e-05
0.000107286
-0.00166783
-0.00152902
-0.00139439
-0.00126458
-0.00114012
-0.00102146
-0.000909008
-0.000803048
-0.000703776
-0.000611302
-0.000525655
-0.000446789
-0.000374591
-0.000308888
-0.000249457
-0.00019603
-0.000148308
-0.000105963
-6.86504e-05
-3.60126e-05
-7.68839e-06
1.66827e-05
3.7455e-05
5.49725e-05
6.95647e-05
8.1543e-05
9.12e-05
-0.00169011
-0.00155298
-0.00141986
-0.00129137
-0.00116803
-0.0010503
-0.000938571
-0.000833132
-0.000734182
-0.00064184
-0.000556144
-0.00047706
-0.000404488
-0.000338271
-0.000278201
-0.000224026
-0.000175462
-0.000132199
-9.3905e-05
-6.02393e-05
-3.08539e-05
-5.40103e-06
1.64619e-05
3.50683e-05
5.07384e-05
6.37762e-05
7.44678e-05
-0.00170734
-0.00157228
-0.00144105
-0.00131426
-0.00119242
-0.00107599
-0.000965332
-0.000860749
-0.000762441
-0.000670531
-0.000585066
-0.000506024
-0.000433318
-0.000366806
-0.000306295
-0.00025155
-0.000202305
-0.000158264
-0.000119115
-8.45305e-05
-5.41781e-05
-2.7724e-05
-4.83833e-06
1.48008e-05
3.15035e-05
4.55651e-05
5.72649e-05
-0.001718
-0.00158548
-0.00145662
-0.00133201
-0.00121213
-0.00109744
-0.000988287
-0.000884972
-0.000787696
-0.000696585
-0.000611696
-0.000533015
-0.00046047
-0.000393933
-0.000333227
-0.000278135
-0.000228408
-0.000183769
-0.000143921
-0.000108556
-7.73561e-05
-5.0004e-05
-2.61833e-05
-5.58526e-06
1.2089e-05
2.7125e-05
3.97934e-05
-0.00172168
-0.00159218
-0.00146616
-0.00134419
-0.00122673
-0.00111421
-0.001007
-0.000905359
-0.000809505
-0.000719563
-0.000635597
-0.000557604
-0.000485524
-0.000419242
-0.0003586
-0.000303397
-0.000253403
-0.000208359
-0.000167987
-0.000131996
-0.000100088
-7.19595e-05
-4.73104e-05
-2.58456e-05
-7.27901e-06
8.66361e-06
2.22434e-05
-0.00171816
-0.00159214
-0.00146943
-0.00135055
-0.00123595
-0.00112605
-0.00102118
-0.000921618
-0.000827568
-0.000739161
-0.000656464
-0.000579483
-0.000508172
-0.00044243
-0.000382114
-0.000327043
-0.000277004
-0.000231758
-0.000191047
-0.000154598
-0.00012213
-9.33584e-05
-6.79992e-05
-4.57723e-05
-2.64052e-05
-9.63591e-06
4.78583e-06
-0.00170744
-0.00158536
-0.00146639
-0.00135104
-0.00123972
-0.00113284
-0.00103071
-0.000933609
-0.00084173
-0.000755205
-0.000674109
-0.000598455
-0.000528208
-0.000463283
-0.000403553
-0.000348855
-0.000298994
-0.000253751
-0.000212888
-0.000176152
-0.000143279
-0.000114005
-8.80622e-05
-6.51858e-05
-4.51185e-05
-2.76114e-05
-1.2426e-05
-0.00168981
-0.00157209
-0.00145726
-0.00134582
-0.00123817
-0.00113467
-0.00103564
-0.000941349
-0.000851974
-0.000767653
-0.000688463
-0.000614429
-0.000545524
-0.000481677
-0.00042278
-0.000368685
-0.000319217
-0.000274178
-0.000233348
-0.000196494
-0.000163374
-0.00013374
-0.000107342
-8.39339e-05
-6.32721e-05
-4.51219e-05
-2.92576e-05
-0.00166577
-0.00155276
-0.00144243
-0.00133524
-0.00123158
-0.00113179
-0.00103618
-0.000944989
-0.00085841
-0.000776574
-0.000699563
-0.000627409
-0.000560095
-0.000497566
-0.000439727
-0.000386449
-0.000337577
-0.000292931
-0.000252311
-0.000215505
-0.00018229
-0.000152437
-0.000125714
-0.000101892
-8.07434e-05
-6.20481e-05
-4.55934e-05
-0.001636
-0.00152799
-0.00142244
-0.00131978
-0.00122037
-0.00112455
-0.00103261
-0.00094478
-0.000861241
-0.000782129
-0.000707528
-0.000637477
-0.000571973
-0.000510971
-0.000454391
-0.000402124
-0.000354031
-0.000309952
-0.000269708
-0.000233105
-0.00019994
-0.000170003
-0.000143081
-0.000118962
-9.7434e-05
-7.82919e-05
-6.13368e-05
-0.00160129
-0.00149849
-0.00139793
-0.0013
-0.00120506
-0.00111341
-0.00102533
-0.000941048
-0.000860741
-0.000784542
-0.000712539
-0.000644777
-0.000581263
-0.000521966
-0.00046682
-0.000415731
-0.00036858
-0.000325224
-0.000285504
-0.000249247
-0.000216268
-0.000186375
-0.000159374
-0.00013507
-0.000113267
-9.37753e-05
-7.64092e-05
-0.00156247
-0.00146504
-0.0013696
-0.00127654
-0.00118619
-0.00109884
-0.00101476
-0.000934167
-0.000857231
-0.000784085
-0.000714822
-0.000649494
-0.000588115
-0.000530666
-0.000477096
-0.000427328
-0.000381258
-0.000338763
-0.0002997
-0.000263917
-0.000231246
-0.000201515
-0.000174548
-0.000150164
-0.000128186
-0.000108438
-9.07486e-05
-0.0015204
-0.00142839
-0.00133815
-0.00125002
-0.00116433
-0.00108136
-0.00100135
-0.000924529
-0.000851051
-0.000781054
-0.00071463
-0.000651838
-0.000592702
-0.000537213
-0.000485334
-0.000437002
-0.000392129
-0.000350609
-0.000312319
-0.000277121
-0.000244869
-0.000215408
-0.000188576
-0.000164212
-0.000142153
-0.000122238
-0.000104308
-0.00147591
-0.00138932
-0.00130426
-0.00122106
-0.00114004
-0.00106146
-0.000985552
-0.000912528
-0.00084255
-0.00077575
-0.000712224
-0.000652035
-0.000595215
-0.000541767
-0.000491664
-0.000444856
-0.000401274
-0.000360825
-0.000323403
-0.000288889
-0.000257152
-0.000228054
-0.000201451
-0.000177197
-0.000155144
-0.000135145
-0.000117055
-0.00142975
-0.0013485
-0.00126856
-0.00119024
-0.00111384
-0.00103961
-0.000967777
-0.000898541
-0.000832062
-0.00076847
-0.000707864
-0.000650311
-0.00059585
-0.000544492
-0.000496224
-0.000451008
-0.000408787
-0.000369485
-0.000333011
-0.000299262
-0.000268123
-0.000239472
-0.00021318
-0.000189117
-0.00016715
-0.000147144
-0.000128969
-0.00138259
-0.00130656
-0.00123162
-0.00115808
-0.0010862
-0.00101624
-0.00094842
-0.000882921
-0.000819903
-0.000759496
-0.000701799
-0.000646884
-0.000594797
-0.000545557
-0.000499159
-0.000455578
-0.00041477
-0.000376673
-0.00034121
-0.000308292
-0.000277821
-0.000249688
-0.000223781
-0.000199982
-0.000178172
-0.00015823
-0.000140037
-0.00133502
-0.00126404
-0.00119394
-0.00112502
-0.00105754
-0.000991741
-0.000927829
-0.000865983
-0.00080636
-0.000749086
-0.000694263
-0.000641964
-0.000592242
-0.000545122
-0.000500609
-0.000458689
-0.000419328
-0.000382477
-0.000348073
-0.00031604
-0.000286294
-0.00025874
-0.00023328
-0.000209808
-0.00018822
-0.000168407
-0.00015026