/*--------------------------------*- C++ -*----------------------------------*\
| =========                 |                                                 |
| \\      /  F ield         | OpenFOAM: The Open Source CFD Toolbox           |
|  \\    /   O peration     | Version:  2412                                  |
|   \\  /    A nd           | Website:  www.openfoam.com                      |
|    \\/     M anipulation  |                                                 |
\*---------------------------------------------------------------------------*/
FoamFile
{
    version     2.0;
    format      ascii;
    arch        "LSB;label=32;scalar=64";
    class       surfaceScalarField;
    location    "11.5";
    object      phi;
}
// * * * * * * * * * * * * * * * * * * * * * * * * * * * * * * * * * * * * * //

dimensions      [0 3 -1 0 0 0 0];

oriented        oriented;

internalField   nonuniform List<scalar> 
10424
(
0.00526593
-9.39724e-05
0.00526738
-9.04205e-05
0.00526879
-8.69335e-05
0.00527017
-8.35127e-05
0.00527151
-8.0159e-05
0.00527282
-7.68736e-05
0.00527408
-7.36571e-05
0.00527531
-7.05105e-05
0.00527649
-6.74344e-05
0.00527764
-6.44295e-05
0.00527874
-6.14966e-05
0.0052798
-5.86362e-05
0.00528082
-5.58489e-05
0.0052818
-5.3135e-05
0.00528274
-5.0495e-05
0.00528363
-4.79293e-05
0.00528449
-4.54381e-05
0.0052853
-4.30217e-05
0.00528607
-4.06803e-05
0.0052868
-3.84139e-05
0.0052875
-3.62227e-05
0.00528815
-3.41066e-05
0.00528877
-3.20654e-05
0.00528936
-3.00991e-05
0.00528991
-2.82074e-05
0.00529042
-2.63899e-05
0.0052909
-2.46465e-05
0.00529135
-2.29766e-05
0.00529177
-2.13798e-05
0.00529216
-1.98557e-05
-1.84035e-05
0.00526696
-9.53812e-05
0.00526834
-9.18021e-05
0.00526969
-8.82856e-05
0.00527101
-8.48335e-05
0.0052723
-8.14468e-05
0.00527355
-7.81267e-05
0.00527477
-7.48744e-05
0.00527595
-7.16908e-05
0.00527709
-6.85769e-05
0.0052782
-6.55336e-05
0.00527926
-6.25616e-05
0.00528029
-5.96617e-05
0.00528127
-5.68346e-05
0.00528222
-5.40809e-05
0.00528312
-5.14011e-05
0.00528399
-4.87956e-05
0.00528482
-4.62651e-05
0.00528561
-4.38096e-05
0.00528635
-4.14297e-05
0.00528707
-3.91254e-05
0.00528774
-3.68968e-05
0.00528838
-3.47441e-05
0.00528898
-3.26671e-05
0.00528955
-3.06659e-05
0.00529008
-2.87402e-05
0.00529058
-2.68897e-05
0.00529105
-2.51143e-05
0.00529148
-2.34135e-05
0.00529189
-2.17869e-05
0.00529227
-2.0234e-05
0.00529262
-1.87543e-05
0.00529294
-1.73472e-05
0.00529324
-1.60121e-05
0.00529352
-1.47482e-05
0.00529377
-1.35549e-05
0.005294
-1.24315e-05
0.00529421
-1.13772e-05
0.00529441
-1.03913e-05
0.00529458
-9.47346e-06
0.00529474
-8.62306e-06
0.00529488
-7.83988e-06
0.00529501
-7.12373e-06
0.00529513
-6.47471e-06
0.00529523
-5.89326e-06
0.00529533
-5.37999e-06
0.00529541
-4.93631e-06
0.00529549
-4.56346e-06
0.00529557
-4.26492e-06
0.00529564
-4.04171e-06
0.00529571
-3.90333e-06
0.00529577
-3.84429e-06
0.00529584
-3.89607e-06
0.00529591
-4.01767e-06
0.00529599
-4.32131e-06
0.00529608
-4.62728e-06
0.00529618
-5.31611e-06
0.00529628
-5.75801e-06
0.00529643
-7.1091e-06
0.00529657
-7.5275e-06
0.00529679
-1.00361e-05
0.00529698
-1.01586e-05
0.00529731
-1.44754e-05
0.00529758
-1.41862e-05
0.00529809
-2.0618e-05
0.00529849
-2.08394e-05
0.00529925
-2.79504e-05
0.00529995
-3.26112e-05
0.00530098
-3.4538e-05
0.00530243
-5.0951e-05
0.0053038
-4.47835e-05
-5.61963e-05
0.00526799
-9.67211e-05
0.00526931
-9.31185e-05
0.0052706
-8.95762e-05
0.00527186
-8.6096e-05
0.00527309
-8.26795e-05
0.0052743
-7.9328e-05
0.00527546
-7.60427e-05
0.0052766
-7.2825e-05
0.0052777
-6.96759e-05
0.00527876
-6.65966e-05
0.00527979
-6.35879e-05
0.00528078
-6.06508e-05
0.00528173
-5.77861e-05
0.00528264
-5.49945e-05
0.00528352
-5.22768e-05
0.00528435
-4.96336e-05
0.00528515
-4.70653e-05
0.00528592
-4.45725e-05
0.00528664
-4.21556e-05
0.00528733
-3.98148e-05
0.00528799
-3.75503e-05
0.0052886
-3.53623e-05
0.00528919
-3.32508e-05
0.00528974
-3.12159e-05
0.00529026
-2.92573e-05
0.00529074
-2.73749e-05
0.00529119
-2.55684e-05
0.00529162
-2.38376e-05
0.00529201
-2.21821e-05
0.00529238
-2.06014e-05
0.00529272
-1.90949e-05
0.00529304
-1.76622e-05
0.00529333
-1.63026e-05
0.00529359
-1.50155e-05
0.00529384
-1.38002e-05
0.00529406
-1.26558e-05
0.00529427
-1.15818e-05
0.00529446
-1.05776e-05
0.00529462
-9.64244e-06
0.00529478
-8.77603e-06
0.00529492
-7.97808e-06
0.00529504
-7.24842e-06
0.00529515
-6.58716e-06
0.00529525
-5.99477e-06
0.00529535
-5.47186e-06
0.00529543
-5.01989e-06
0.00529551
-4.64013e-06
0.00529558
-4.33612e-06
0.00529564
-4.10895e-06
0.00529571
-3.96833e-06
0.00529577
-3.90855e-06
0.00529584
-3.96203e-06
0.00529591
-4.0863e-06
0.00529598
-4.39726e-06
0.00529607
-4.70881e-06
0.00529616
-5.41475e-06
0.00529627
-5.86202e-06
0.00529641
-7.24982e-06
0.00529655
-7.66461e-06
0.00529676
-1.02495e-05
0.00529694
-1.03422e-05
0.00529728
-1.4807e-05
0.00529753
-1.44409e-05
0.00529804
-2.11307e-05
0.00529843
-2.1223e-05
0.0052992
-2.87205e-05
0.00529987
-3.32841e-05
0.00530092
-3.55903e-05
0.00530236
-5.23864e-05
0.00530373
-4.61606e-05
-5.87195e-05
0.00526904
-9.79921e-05
0.00527029
-9.43697e-05
0.00527152
-9.0805e-05
0.00527272
-8.73002e-05
0.0052739
-8.3857e-05
0.00527505
-8.04771e-05
0.00527617
-7.71618e-05
0.00527726
-7.39127e-05
0.00527831
-7.07311e-05
0.00527933
-6.76182e-05
0.00528032
-6.45751e-05
0.00528127
-6.16031e-05
0.00528219
-5.87029e-05
0.00528307
-5.58756e-05
0.00528391
-5.31219e-05
0.00528472
-5.04427e-05
0.0052855
-4.78385e-05
0.00528623
-4.531e-05
0.00528694
-4.28577e-05
0.0052876
-4.04819e-05
0.00528824
-3.81829e-05
0.00528884
-3.5961e-05
0.0052894
-3.38162e-05
0.00528993
-3.17487e-05
0.00529043
-2.97584e-05
0.0052909
-2.78451e-05
0.00529135
-2.60087e-05
0.00529176
-2.42488e-05
0.00529214
-2.25653e-05
0.0052925
-2.09576e-05
0.00529283
-1.94252e-05
0.00529313
-1.79676e-05
0.00529341
-1.65843e-05
0.00529367
-1.52746e-05
0.00529391
-1.40377e-05
0.00529413
-1.28731e-05
0.00529432
-1.178e-05
0.00529451
-1.07577e-05
0.00529467
-9.80583e-06
0.00529482
-8.92384e-06
0.00529495
-8.11151e-06
0.00529507
-7.36871e-06
0.00529518
-6.69554e-06
0.00529528
-6.09248e-06
0.00529536
-5.5602e-06
0.00529544
-5.10017e-06
0.00529552
-4.71368e-06
0.00529559
-4.40439e-06
0.00529565
-4.17336e-06
0.00529571
-4.03061e-06
0.00529577
-3.97013e-06
0.00529584
-4.02533e-06
0.0052959
-4.15223e-06
0.00529598
-4.47048e-06
0.00529606
-4.78737e-06
0.00529615
-5.51041e-06
0.00529625
-5.96249e-06
0.00529639
-7.38725e-06
0.00529652
-7.79706e-06
0.00529673
-1.04593e-05
0.00529691
-1.05192e-05
0.00529724
-1.51352e-05
0.00529748
-1.46859e-05
0.00529799
-2.16416e-05
0.00529836
-2.15908e-05
0.00529914
-2.94972e-05
0.00529978
-3.39278e-05
0.00530086
-3.66692e-05
0.00530228
-5.38047e-05
0.00530365
-4.75363e-05
-6.13697e-05
0.00527009
-9.91946e-05
0.00527128
-9.55558e-05
0.00527244
-9.19722e-05
0.00527359
-8.8446e-05
0.00527471
-8.49793e-05
0.00527581
-8.15738e-05
0.00527688
-7.82314e-05
0.00527792
-7.49536e-05
0.00527893
-7.1742e-05
0.00527991
-6.85981e-05
0.00528086
-6.55231e-05
0.00528177
-6.25183e-05
0.00528266
-5.95848e-05
0.0052835
-5.67238e-05
0.00528432
-5.39361e-05
0.0052851
-5.12227e-05
0.00528584
-4.85844e-05
0.00528656
-4.60219e-05
0.00528723
-4.35357e-05
0.00528788
-4.11264e-05
0.00528849
-3.87943e-05
0.00528907
-3.65398e-05
0.00528962
-3.43631e-05
0.00529013
-3.22643e-05
0.00529062
-3.02433e-05
0.00529107
-2.83002e-05
0.0052915
-2.64348e-05
0.0052919
-2.46469e-05
0.00529227
-2.29362e-05
0.00529261
-2.13024e-05
0.00529293
-1.97449e-05
0.00529323
-1.82632e-05
0.0052935
-1.68569e-05
0.00529375
-1.55252e-05
0.00529398
-1.42675e-05
0.00529419
-1.30832e-05
0.00529438
-1.19715e-05
0.00529456
-1.09318e-05
0.00529471
-9.96355e-06
0.00529486
-9.06641e-06
0.00529498
-8.2401e-06
0.0052951
-7.48451e-06
0.0052952
-6.79975e-06
0.0052953
-6.18634e-06
0.00529538
-5.64495e-06
0.00529546
-5.17709e-06
0.00529553
-4.78408e-06
0.0052956
-4.46965e-06
0.00529566
-4.23491e-06
0.00529572
-4.09011e-06
0.00529578
-4.02899e-06
0.00529584
-4.08593e-06
0.0052959
-4.2154e-06
0.00529597
-4.5409e-06
0.00529604
-4.8629e-06
0.00529614
-5.60304e-06
0.00529623
-6.05933e-06
0.00529637
-7.5213e-06
0.0052965
-7.92476e-06
0.0052967
-1.06654e-05
0.00529687
-1.06895e-05
0.0052972
-1.54598e-05
0.00529743
-1.4921e-05
0.00529794
-2.21505e-05
0.00529829
-2.19421e-05
0.00529908
-3.02806e-05
0.00529969
-3.45399e-05
0.0053008
-3.77774e-05
0.00530219
-5.5201e-05
0.00530356
-4.89058e-05
-6.41536e-05
0.00527115
-0.000100329
0.00527227
-9.66771e-05
0.00527338
-9.30778e-05
0.00527447
-8.95334e-05
0.00527553
-8.60462e-05
0.00527658
-8.26182e-05
0.0052776
-7.92514e-05
0.00527859
-7.59476e-05
0.00527956
-7.27087e-05
0.0052805
-6.95361e-05
0.0052814
-6.64315e-05
0.00528228
-6.33962e-05
0.00528313
-6.04316e-05
0.00528394
-5.75388e-05
0.00528473
-5.47191e-05
0.00528548
-5.19734e-05
0.0052862
-4.93027e-05
0.00528688
-4.67078e-05
0.00528753
-4.41893e-05
0.00528816
-4.1748e-05
0.00528875
-3.93843e-05
0.00528931
-3.70986e-05
0.00528983
-3.48912e-05
0.00529033
-3.27623e-05
0.0052908
-3.07119e-05
0.00529124
-2.87401e-05
0.00529165
-2.68467e-05
0.00529204
-2.50317e-05
0.00529239
-2.32948e-05
0.00529273
-2.16357e-05
0.00529304
-2.00539e-05
0.00529332
-1.85489e-05
0.00529359
-1.71202e-05
0.00529383
-1.57673e-05
0.00529405
-1.44894e-05
0.00529425
-1.32859e-05
0.00529444
-1.21562e-05
0.00529461
-1.10995e-05
0.00529476
-1.01155e-05
0.00529489
-9.20365e-06
0.00529502
-8.36376e-06
0.00529513
-7.59576e-06
0.00529523
-6.89974e-06
0.00529532
-6.27627e-06
0.0052954
-5.72604e-06
0.00529547
-5.25059e-06
0.00529554
-4.85127e-06
0.0052956
-4.53187e-06
0.00529566
-4.29353e-06
0.00529572
-4.1468e-06
0.00529577
-4.08507e-06
0.00529583
-4.14379e-06
0.00529589
-4.27576e-06
0.00529596
-4.60848e-06
0.00529603
-4.93534e-06
0.00529612
-5.69258e-06
0.00529622
-6.15248e-06
0.00529635
-7.65191e-06
0.00529647
-8.04762e-06
0.00529667
-1.08677e-05
0.00529684
-1.08531e-05
0.00529716
-1.57806e-05
0.00529738
-1.51458e-05
0.00529789
-2.26572e-05
0.00529822
-2.22763e-05
0.00529901
-3.10711e-05
0.00529959
-3.51176e-05
0.00530073
-3.89183e-05
0.0053021
-5.65696e-05
0.00530346
-5.02636e-05
-6.70777e-05
0.00527222
-0.000101395
0.00527327
-9.77336e-05
0.00527432
-9.41219e-05
0.00527535
-9.05625e-05
0.00527636
-8.70578e-05
0.00527735
-8.36102e-05
0.00527832
-8.02217e-05
0.00527927
-7.68946e-05
0.00528019
-7.36308e-05
0.00528108
-7.04321e-05
0.00528195
-6.73001e-05
0.00528279
-6.42366e-05
0.00528361
-6.12429e-05
0.00528439
-5.83205e-05
0.00528514
-5.54706e-05
0.00528586
-5.26944e-05
0.00528655
-4.99931e-05
0.00528721
-4.73674e-05
0.00528784
-4.48184e-05
0.00528844
-4.23466e-05
0.00528901
-3.99527e-05
0.00528954
-3.76371e-05
0.00529005
-3.54003e-05
0.00529053
-3.32425e-05
0.00529099
-3.11638e-05
0.00529141
-2.91643e-05
0.00529181
-2.72441e-05
0.00529218
-2.5403e-05
0.00529252
-2.36408e-05
0.00529285
-2.19573e-05
0.00529314
-2.0352e-05
0.00529342
-1.88245e-05
0.00529367
-1.73742e-05
0.00529391
-1.60007e-05
0.00529412
-1.47033e-05
0.00529432
-1.34813e-05
0.00529449
-1.23341e-05
0.00529466
-1.1261e-05
0.0052948
-1.02616e-05
0.00529493
-9.33548e-06
0.00529505
-8.48241e-06
0.00529516
-7.70236e-06
0.00529525
-6.99544e-06
0.00529534
-6.36222e-06
0.00529542
-5.80343e-06
0.00529549
-5.32062e-06
0.00529555
-4.91519e-06
0.00529561
-4.59099e-06
0.00529567
-4.3492e-06
0.00529572
-4.20061e-06
0.00529577
-4.13833e-06
0.00529583
-4.19884e-06
0.00529589
-4.33326e-06
0.00529595
-4.67317e-06
0.00529602
-5.00465e-06
0.00529611
-5.77895e-06
0.0052962
-6.24187e-06
0.00529632
-7.77899e-06
0.00529644
-8.16555e-06
0.00529664
-1.10662e-05
0.0052968
-1.10096e-05
0.00529711
-1.60974e-05
0.00529733
-1.53603e-05
0.00529783
-2.31615e-05
0.00529815
-2.2593e-05
0.00529895
-3.18687e-05
0.00529949
-3.56579e-05
0.00530066
-4.00953e-05
0.005302
-5.79042e-05
0.00530334
-5.16035e-05
-7.01488e-05
0.00527329
-0.000102393
0.00527428
-9.87256e-05
0.00527526
-9.51048e-05
0.00527623
-9.15334e-05
0.00527719
-8.80141e-05
0.00527813
-8.45496e-05
0.00527905
-8.11423e-05
0.00527995
-7.77945e-05
0.00528082
-7.45083e-05
0.00528168
-7.12858e-05
0.00528251
-6.81288e-05
0.00528331
-6.50392e-05
0.00528409
-6.20186e-05
0.00528483
-5.90685e-05
0.00528555
-5.61904e-05
0.00528624
-5.33856e-05
0.00528691
-5.06554e-05
0.00528754
-4.80007e-05
0.00528814
-4.54226e-05
0.00528872
-4.29218e-05
0.00528927
-4.04992e-05
0.00528978
-3.81551e-05
0.00529027
-3.58902e-05
0.00529074
-3.37047e-05
0.00529117
-3.15989e-05
0.00529158
-2.95729e-05
0.00529196
-2.76269e-05
0.00529232
-2.57606e-05
0.00529265
-2.39741e-05
0.00529296
-2.2267e-05
0.00529325
-2.06391e-05
0.00529352
-1.90898e-05
0.00529376
-1.76187e-05
0.00529398
-1.62254e-05
0.00529419
-1.4909e-05
0.00529438
-1.36691e-05
0.00529455
-1.2505e-05
0.0052947
-1.1416e-05
0.00529484
-1.04018e-05
0.00529497
-9.46182e-06
0.00529508
-8.59599e-06
0.00529519
-7.80428e-06
0.00529528
-7.08678e-06
0.00529536
-6.44413e-06
0.00529543
-5.87705e-06
0.0052955
-5.38713e-06
0.00529556
-4.9758e-06
0.00529562
-4.64698e-06
0.00529567
-4.40186e-06
0.00529572
-4.25152e-06
0.00529577
-4.18873e-06
0.00529582
-4.25107e-06
0.00529588
-4.38786e-06
0.00529594
-4.73492e-06
0.00529601
-5.07077e-06
0.00529609
-5.86212e-06
0.00529617
-6.32745e-06
0.0052963
-7.90247e-06
0.00529641
-8.27846e-06
0.0052966
-1.12607e-05
0.00529675
-1.1159e-05
0.00529707
-1.64103e-05
0.00529727
-1.55642e-05
0.00529777
-2.36632e-05
0.00529807
-2.28917e-05
0.00529888
-3.26739e-05
0.00529938
-3.61579e-05
0.00530059
-4.13124e-05
0.00530189
-5.91981e-05
0.0053032
-5.29184e-05
-7.33735e-05
0.00527436
-0.000103324
0.00527528
-9.96536e-05
0.00527621
-9.60266e-05
0.00527712
-9.24461e-05
0.00527802
-8.89152e-05
0.00527891
-8.54367e-05
0.00527978
-8.20131e-05
0.00528063
-7.86471e-05
0.00528146
-7.53411e-05
0.00528227
-7.20971e-05
0.00528306
-6.89174e-05
0.00528383
-6.58039e-05
0.00528457
-6.27585e-05
0.00528528
-5.97827e-05
0.00528597
-5.68783e-05
0.00528663
-5.40468e-05
0.00528727
-5.12894e-05
0.00528787
-4.86073e-05
0.00528845
-4.60018e-05
0.005289
-4.34736e-05
0.00528953
-4.10236e-05
0.00529002
-3.86524e-05
0.0052905
-3.63607e-05
0.00529094
-3.41488e-05
0.00529136
-3.2017e-05
0.00529175
-2.99657e-05
0.00529212
-2.79948e-05
0.00529246
-2.61044e-05
0.00529278
-2.42945e-05
0.00529308
-2.25648e-05
0.00529336
-2.0915e-05
0.00529361
-1.93448e-05
0.00529385
-1.78537e-05
0.00529406
-1.64411e-05
0.00529426
-1.51065e-05
0.00529444
-1.38493e-05
0.0052946
-1.26689e-05
0.00529475
-1.15645e-05
0.00529489
-1.05359e-05
0.00529501
-9.5826e-06
0.00529512
-8.70443e-06
0.00529521
-7.90143e-06
0.0052953
-7.17372e-06
0.00529538
-6.52194e-06
0.00529545
-5.94686e-06
0.00529551
-5.45009e-06
0.00529557
-5.03306e-06
0.00529562
-4.69979e-06
0.00529567
-4.45147e-06
0.00529572
-4.29948e-06
0.00529577
-4.23624e-06
0.00529581
-4.30042e-06
0.00529587
-4.43953e-06
0.00529592
-4.79369e-06
0.00529599
-5.13367e-06
0.00529607
-5.94202e-06
0.00529615
-6.40916e-06
0.00529627
-8.02229e-06
0.00529638
-8.38628e-06
0.00529657
-1.14511e-05
0.00529671
-1.13013e-05
0.00529702
-1.67189e-05
0.00529721
-1.57573e-05
0.00529771
-2.4162e-05
0.00529799
-2.31718e-05
0.0052988
-3.34865e-05
0.00529926
-3.66148e-05
0.00530052
-4.25736e-05
0.00530177
-6.04441e-05
0.00530305
-5.42008e-05
-7.67579e-05
0.00527543
-0.000104188
0.00527629
-0.000100518
0.00527715
-9.68877e-05
0.00527801
-9.33011e-05
0.00527885
-8.97613e-05
0.00527969
-8.62714e-05
0.00528051
-8.28343e-05
0.00528132
-7.94526e-05
0.0052821
-7.61291e-05
0.00528287
-7.28661e-05
0.00528362
-6.96659e-05
0.00528435
-6.65307e-05
0.00528505
-6.34624e-05
0.00528573
-6.0463e-05
0.00528639
-5.75342e-05
0.00528702
-5.46777e-05
0.00528762
-5.18949e-05
0.0052882
-4.91872e-05
0.00528876
-4.65557e-05
0.00528929
-4.40016e-05
0.00528979
-4.15257e-05
0.00529026
-3.91289e-05
0.00529072
-3.68116e-05
0.00529114
-3.45746e-05
0.00529154
-3.24181e-05
0.00529192
-3.03424e-05
0.00529227
-2.83478e-05
0.0052926
-2.64343e-05
0.00529291
-2.46019e-05
0.00529319
-2.28505e-05
0.00529346
-2.11797e-05
0.0052937
-1.95894e-05
0.00529393
-1.80789e-05
0.00529414
-1.66479e-05
0.00529433
-1.52957e-05
0.0052945
-1.40219e-05
0.00529465
-1.28257e-05
0.0052948
-1.17065e-05
0.00529492
-1.0664e-05
0.00529504
-9.69777e-06
0.00529514
-8.80768e-06
0.00529524
-7.99379e-06
0.00529532
-7.25621e-06
0.00529539
-6.59563e-06
0.00529546
-6.01282e-06
0.00529552
-5.50944e-06
0.00529557
-5.08694e-06
0.00529562
-4.7494e-06
0.00529567
-4.49801e-06
0.00529571
-4.34447e-06
0.00529576
-4.28082e-06
0.0052958
-4.34686e-06
0.00529585
-4.48824e-06
0.00529591
-4.84944e-06
0.00529597
-5.19331e-06
0.00529604
-6.01862e-06
0.00529612
-6.48695e-06
0.00529624
-8.13839e-06
0.00529634
-8.48895e-06
0.00529653
-1.16373e-05
0.00529666
-1.14362e-05
0.00529697
-1.70232e-05
0.00529715
-1.59394e-05
0.00529764
-2.46576e-05
0.0052979
-2.3433e-05
0.00529872
-3.43066e-05
0.00529914
-3.70255e-05
0.00530044
-4.38826e-05
0.00530164
-6.16349e-05
0.00530288
-5.54427e-05
-8.03075e-05
0.0052765
-0.000104986
0.0052773
-0.000101319
0.0052781
-9.76885e-05
0.0052789
-9.40985e-05
0.00527969
-9.05526e-05
0.00528047
-8.7054e-05
0.00528124
-8.36058e-05
0.005282
-8.0211e-05
0.00528274
-7.68724e-05
0.00528347
-7.35926e-05
0.00528418
-7.03741e-05
0.00528487
-6.72193e-05
0.00528553
-6.41303e-05
0.00528618
-6.11093e-05
0.0052868
-5.8158e-05
0.0052874
-5.52783e-05
0.00528798
-5.24718e-05
0.00528853
-4.97401e-05
0.00528906
-4.70843e-05
0.00528957
-4.45058e-05
0.00529005
-4.20055e-05
0.0052905
-3.95843e-05
0.00529093
-3.72429e-05
0.00529134
-3.49819e-05
0.00529173
-3.28018e-05
0.00529209
-3.0703e-05
0.00529242
-2.86857e-05
0.00529274
-2.67501e-05
0.00529303
-2.48962e-05
0.00529331
-2.3124e-05
0.00529356
-2.14331e-05
0.00529379
-1.98234e-05
0.00529401
-1.82944e-05
0.00529421
-1.68456e-05
0.00529439
-1.54766e-05
0.00529455
-1.41867e-05
0.0052947
-1.29753e-05
0.00529484
-1.18418e-05
0.00529496
-1.07859e-05
0.00529507
-9.80728e-06
0.00529517
-8.9057e-06
0.00529526
-8.0813e-06
0.00529533
-7.33421e-06
0.0052954
-6.66515e-06
0.00529546
-6.07492e-06
0.00529552
-5.56518e-06
0.00529557
-5.13742e-06
0.00529562
-4.79578e-06
0.00529566
-4.54147e-06
0.0052957
-4.38647e-06
0.00529574
-4.32246e-06
0.00529579
-4.39039e-06
0.00529583
-4.53396e-06
0.00529589
-4.90216e-06
0.00529594
-5.24967e-06
0.00529602
-6.09188e-06
0.00529609
-6.56079e-06
0.0052962
-8.25071e-06
0.0052963
-8.58639e-06
0.00529648
-1.18194e-05
0.00529661
-1.15636e-05
0.00529691
-1.7323e-05
0.00529708
-1.61105e-05
0.00529757
-2.51497e-05
0.00529781
-2.3675e-05
0.00529864
-3.51342e-05
0.005299
-3.73876e-05
0.00530036
-4.52431e-05
0.00530149
-6.27632e-05
0.00530269
-5.66358e-05
-8.40261e-05
0.00527756
-0.000105718
0.0052783
-0.000102057
0.00527904
-9.84293e-05
0.00527978
-9.48387e-05
0.00528052
-9.12893e-05
0.00528125
-8.77846e-05
0.00528197
-8.43279e-05
0.00528268
-8.09223e-05
0.00528338
-7.7571e-05
0.00528406
-7.42767e-05
0.00528473
-7.10422e-05
0.00528538
-6.78699e-05
0.00528602
-6.47622e-05
0.00528663
-6.17214e-05
0.00528722
-5.87495e-05
0.00528779
-5.58485e-05
0.00528834
-5.30201e-05
0.00528886
-5.02659e-05
0.00528937
-4.75875e-05
0.00528985
-4.49861e-05
0.0052903
-4.24628e-05
0.00529074
-4.00186e-05
0.00529115
-3.76543e-05
0.00529154
-3.53707e-05
0.0052919
-3.31682e-05
0.00529225
-3.10473e-05
0.00529257
-2.90084e-05
0.00529287
-2.70517e-05
0.00529315
-2.51773e-05
0.00529342
-2.33852e-05
0.00529366
-2.16751e-05
0.00529388
-2.00468e-05
0.00529409
-1.85e-05
0.00529428
-1.70342e-05
0.00529445
-1.5649e-05
0.0052946
-1.43437e-05
0.00529475
-1.31177e-05
0.00529488
-1.19705e-05
0.00529499
-1.09017e-05
0.0052951
-9.9111e-06
0.00529519
-8.99847e-06
0.00529527
-8.16395e-06
0.00529534
-7.40771e-06
0.00529541
-6.7305e-06
0.00529547
-6.13313e-06
0.00529552
-5.61728e-06
0.00529557
-5.18448e-06
0.00529561
-4.83893e-06
0.00529565
-4.58182e-06
0.00529569
-4.42546e-06
0.00529573
-4.36115e-06
0.00529577
-4.43099e-06
0.00529581
-4.57668e-06
0.00529586
-4.95183e-06
0.00529591
-5.30272e-06
0.00529598
-6.16177e-06
0.00529605
-6.63065e-06
0.00529616
-8.35921e-06
0.00529625
-8.67858e-06
0.00529643
-1.19971e-05
0.00529655
-1.16836e-05
0.00529685
-1.76182e-05
0.00529701
-1.62703e-05
0.0052975
-2.56379e-05
0.00529772
-2.38976e-05
0.00529855
-3.59687e-05
0.00529886
-3.76989e-05
0.00530028
-4.66581e-05
0.00530134
-6.38222e-05
0.00530247
-5.77722e-05
-8.79158e-05
0.00527862
-0.000106386
0.0052793
-0.000102733
0.00527998
-9.91106e-05
0.00528066
-9.55221e-05
0.00528134
-9.19718e-05
0.00528202
-8.84634e-05
0.0052827
-8.50006e-05
0.00528336
-8.15867e-05
0.00528401
-7.8225e-05
0.00528466
-7.49184e-05
0.00528528
-7.167e-05
0.0052859
-6.84823e-05
0.00528649
-6.53579e-05
0.00528707
-6.22993e-05
0.00528763
-5.93087e-05
0.00528817
-5.63881e-05
0.00528869
-5.35395e-05
0.00528919
-5.07646e-05
0.00528966
-4.80651e-05
0.00529012
-4.54423e-05
0.00529056
-4.28975e-05
0.00529097
-4.04317e-05
0.00529136
-3.80459e-05
0.00529173
-3.57408e-05
0.00529208
-3.35171e-05
0.00529241
-3.13753e-05
0.00529271
-2.93159e-05
0.005293
-2.73391e-05
0.00529327
-2.54452e-05
0.00529352
-2.3634e-05
0.00529375
-2.19056e-05
0.00529396
-2.02596e-05
0.00529416
-1.86958e-05
0.00529434
-1.72137e-05
0.0052945
-1.58129e-05
0.00529465
-1.44928e-05
0.00529479
-1.32529e-05
0.00529491
-1.20925e-05
0.00529502
-1.10114e-05
0.00529512
-1.00092e-05
0.0052952
-9.08597e-06
0.00529528
-8.24173e-06
0.00529535
-7.47671e-06
0.00529541
-6.79168e-06
0.00529547
-6.18746e-06
0.00529551
-5.66576e-06
0.00529556
-5.22813e-06
0.0052956
-4.87885e-06
0.00529563
-4.61909e-06
0.00529567
-4.46147e-06
0.00529571
-4.39691e-06
0.00529574
-4.46867e-06
0.00529578
-4.61642e-06
0.00529583
-4.99845e-06
0.00529588
-5.35248e-06
0.00529595
-6.22829e-06
0.00529601
-6.69654e-06
0.00529612
-8.46388e-06
0.0052962
-8.76548e-06
0.00529638
-1.21705e-05
0.00529649
-1.17961e-05
0.00529678
-1.79087e-05
0.00529693
-1.64188e-05
0.00529741
-2.6122e-05
0.00529762
-2.41007e-05
0.00529846
-3.68097e-05
0.00529872
-3.79576e-05
0.00530019
-4.81296e-05
0.00530117
-6.48061e-05
0.00530224
-5.88445e-05
-9.1976e-05
0.00527967
-0.000106989
0.00528029
-0.000103348
0.00528091
-9.97329e-05
0.00528154
-9.6149e-05
0.00528217
-9.26003e-05
0.00528279
-8.90908e-05
0.00528342
-8.56243e-05
0.00528403
-8.22044e-05
0.00528464
-7.88345e-05
0.00528524
-7.55179e-05
0.00528583
-7.22576e-05
0.0052864
-6.90566e-05
0.00528696
-6.59176e-05
0.00528751
-6.28431e-05
0.00528804
-5.98356e-05
0.00528854
-5.68972e-05
0.00528903
-5.40301e-05
0.00528951
-5.12362e-05
0.00528996
-4.85171e-05
0.00529039
-4.58744e-05
0.0052908
-4.33095e-05
0.00529119
-4.08235e-05
0.00529157
-3.84175e-05
0.00529192
-3.60922e-05
0.00529225
-3.38485e-05
0.00529256
-3.1687e-05
0.00529285
-2.96081e-05
0.00529313
-2.76123e-05
0.00529338
-2.56997e-05
0.00529362
-2.38705e-05
0.00529384
-2.21245e-05
0.00529404
-2.04617e-05
0.00529422
-1.88816e-05
0.00529439
-1.7384e-05
0.00529455
-1.59684e-05
0.00529469
-1.46341e-05
0.00529482
-1.33808e-05
0.00529493
-1.22078e-05
0.00529504
-1.11148e-05
0.00529513
-1.01017e-05
0.00529521
-9.16822e-06
0.00529529
-8.31467e-06
0.00529535
-7.54122e-06
0.00529541
-6.8487e-06
0.00529546
-6.23793e-06
0.0052955
-5.71065e-06
0.00529554
-5.26841e-06
0.00529558
-4.91557e-06
0.00529561
-4.6533e-06
0.00529565
-4.49452e-06
0.00529568
-4.42974e-06
0.00529571
-4.50345e-06
0.00529575
-4.65319e-06
0.00529579
-5.04204e-06
0.00529584
-5.39896e-06
0.0052959
-6.29146e-06
0.00529597
-6.75845e-06
0.00529607
-8.56471e-06
0.00529615
-8.8471e-06
0.00529632
-1.23395e-05
0.00529642
-1.19009e-05
0.00529671
-1.81942e-05
0.00529685
-1.65561e-05
0.00529732
-2.66015e-05
0.00529751
-2.42844e-05
0.00529836
-3.76564e-05
0.00529856
-3.81632e-05
0.00530009
-4.96579e-05
0.00530099
-6.57104e-05
0.005302
-5.98467e-05
-9.62025e-05
0.00528072
-0.000107528
0.00528127
-0.000103901
0.00528183
-0.000100297
0.0052824
-9.67199e-05
0.00528298
-9.31753e-05
0.00528355
-8.9667e-05
0.00528413
-8.61992e-05
0.0052847
-8.27756e-05
0.00528527
-7.93997e-05
0.00528582
-7.60752e-05
0.00528637
-7.28053e-05
0.00528691
-6.95929e-05
0.00528743
-6.64412e-05
0.00528794
-6.33528e-05
0.00528843
-6.03302e-05
0.00528891
-5.73758e-05
0.00528938
-5.44919e-05
0.00528982
-5.16805e-05
0.00529025
-4.89434e-05
0.00529065
-4.62824e-05
0.00529104
-4.36989e-05
0.00529141
-4.11941e-05
0.00529177
-3.87691e-05
0.0052921
-3.6425e-05
0.00529241
-3.41624e-05
0.00529271
-3.19823e-05
0.00529298
-2.98851e-05
0.00529324
-2.78712e-05
0.00529348
-2.5941e-05
0.00529371
-2.40946e-05
0.00529392
-2.2332e-05
0.00529411
-2.06531e-05
0.00529428
-1.90576e-05
0.00529444
-1.75452e-05
0.00529459
-1.61154e-05
0.00529473
-1.47677e-05
0.00529485
-1.35015e-05
0.00529495
-1.23165e-05
0.00529505
-1.12122e-05
0.00529514
-1.01885e-05
0.00529522
-9.24525e-06
0.00529528
-8.38279e-06
0.00529534
-7.6013e-06
0.0052954
-6.90162e-06
0.00529544
-6.28459e-06
0.00529548
-5.75198e-06
0.00529552
-5.30535e-06
0.00529556
-4.94914e-06
0.00529559
-4.68449e-06
0.00529562
-4.52465e-06
0.00529565
-4.45972e-06
0.00529568
-4.53537e-06
0.00529571
-4.68705e-06
0.00529575
-5.08264e-06
0.0052958
-5.44221e-06
0.00529586
-6.35129e-06
0.00529591
-6.81642e-06
0.00529601
-8.66171e-06
0.00529609
-8.92344e-06
0.00529625
-1.25041e-05
0.00529635
-1.19982e-05
0.00529663
-1.84749e-05
0.00529676
-1.6682e-05
0.00529723
-2.70762e-05
0.0052974
-2.4449e-05
0.00529825
-3.85074e-05
0.0052984
-3.83157e-05
0.00529998
-5.12417e-05
0.0053008
-6.65327e-05
0.00530173
-6.0774e-05
-0.000100587
0.00528175
-0.000108005
0.00528224
-0.000104394
0.00528275
-0.000100803
0.00528326
-9.72353e-05
0.00528378
-9.36971e-05
0.00528431
-9.01924e-05
0.00528483
-8.67255e-05
0.00528536
-8.33004e-05
0.00528588
-7.99208e-05
0.0052864
-7.65905e-05
0.0052869
-7.3313e-05
0.0052874
-7.00914e-05
0.00528789
-6.69289e-05
0.00528837
-6.38283e-05
0.00528883
-6.07925e-05
0.00528928
-5.78239e-05
0.00528971
-5.49249e-05
0.00529013
-5.20977e-05
0.00529053
-4.93442e-05
0.00529091
-4.66663e-05
0.00529128
-4.40656e-05
0.00529163
-4.15433e-05
0.00529196
-3.91008e-05
0.00529227
-3.6739e-05
0.00529257
-3.44589e-05
0.00529285
-3.22612e-05
0.00529311
-3.01467e-05
0.00529335
-2.81158e-05
0.00529358
-2.6169e-05
0.00529379
-2.43064e-05
0.00529399
-2.25281e-05
0.00529417
-2.08339e-05
0.00529434
-1.92237e-05
0.00529449
-1.76972e-05
0.00529463
-1.62539e-05
0.00529475
-1.48934e-05
0.00529487
-1.36151e-05
0.00529497
-1.24185e-05
0.00529506
-1.13034e-05
0.00529514
-1.02696e-05
0.00529521
-9.31713e-06
0.00529528
-8.44617e-06
0.00529533
-7.657e-06
0.00529538
-6.95049e-06
0.00529542
-6.3275e-06
0.00529546
-5.78982e-06
0.0052955
-5.33903e-06
0.00529553
-4.97963e-06
0.00529555
-4.71274e-06
0.00529558
-4.55193e-06
0.00529561
-4.48689e-06
0.00529564
-4.56451e-06
0.00529567
-4.71804e-06
0.00529571
-5.12031e-06
0.00529575
-5.48228e-06
0.0052958
-6.40786e-06
0.00529586
-6.87051e-06
0.00529595
-8.75492e-06
0.00529602
-8.99457e-06
0.00529618
-1.26643e-05
0.00529627
-1.20879e-05
0.00529655
-1.87506e-05
0.00529666
-1.67967e-05
0.00529713
-2.75455e-05
0.00529728
-2.45949e-05
0.00529813
-3.93613e-05
0.00529823
-3.84168e-05
0.00529987
-5.28772e-05
0.00530061
-6.72726e-05
0.00530146
-6.16239e-05
-0.000105116
0.00528277
-0.00010842
0.0052832
-0.000104828
0.00528365
-0.000101251
0.00528411
-9.76955e-05
0.00528458
-9.41661e-05
0.00528505
-9.06673e-05
0.00528553
-8.72036e-05
0.00528601
-8.37792e-05
0.00528649
-8.03981e-05
0.00528696
-7.70641e-05
0.00528743
-7.37809e-05
0.00528789
-7.0552e-05
0.00528834
-6.73807e-05
0.00528878
-6.427e-05
0.00528921
-6.12227e-05
0.00528963
-5.82416e-05
0.00529003
-5.53292e-05
0.00529042
-5.24877e-05
0.0052908
-4.97194e-05
0.00529116
-4.70262e-05
0.0052915
-4.44097e-05
0.00529183
-4.18713e-05
0.00529214
-3.94125e-05
0.00529244
-3.70343e-05
0.00529272
-3.47378e-05
0.00529298
-3.25238e-05
0.00529323
-3.03931e-05
0.00529346
-2.83463e-05
0.00529367
-2.63838e-05
0.00529387
-2.45059e-05
0.00529406
-2.27127e-05
0.00529423
-2.10041e-05
0.00529438
-1.938e-05
0.00529453
-1.78402e-05
0.00529466
-1.63842e-05
0.00529477
-1.50115e-05
0.00529488
-1.37216e-05
0.00529498
-1.25141e-05
0.00529506
-1.13887e-05
0.00529514
-1.03453e-05
0.0052952
-9.38395e-06
0.00529526
-8.5049e-06
0.00529531
-7.70841e-06
0.00529536
-6.99542e-06
0.0052954
-6.36677e-06
0.00529543
-5.82427e-06
0.00529546
-5.36953e-06
0.00529549
-5.00712e-06
0.00529552
-4.73812e-06
0.00529554
-4.57645e-06
0.00529557
-4.51135e-06
0.00529559
-4.59095e-06
0.00529562
-4.74627e-06
0.00529565
-5.15513e-06
0.00529569
-5.51925e-06
0.00529575
-6.46122e-06
0.0052958
-6.9208e-06
0.00529589
-8.8444e-06
0.00529595
-9.06053e-06
0.00529611
-1.28202e-05
0.00529619
-1.21701e-05
0.00529646
-1.90213e-05
0.00529656
-1.69002e-05
0.00529703
-2.80092e-05
0.00529715
-2.47226e-05
0.00529801
-4.0216e-05
0.00529806
-3.8469e-05
0.00529974
-5.45582e-05
0.0053004
-6.79328e-05
0.00530118
-6.23962e-05
-0.000109771
0.00528377
-0.000108773
0.00528415
-0.000105202
0.00528454
-0.000101643
0.00528495
-9.81012e-05
0.00528536
-9.45828e-05
0.00528579
-9.10921e-05
0.00528622
-8.76338e-05
0.00528665
-8.42122e-05
0.00528708
-8.08316e-05
0.00528752
-7.7496e-05
0.00528795
-7.42093e-05
0.00528837
-7.09751e-05
0.00528878
-6.77969e-05
0.00528919
-6.46778e-05
0.00528959
-6.16209e-05
0.00528998
-5.8629e-05
0.00529035
-5.57048e-05
0.00529072
-5.28508e-05
0.00529107
-5.00692e-05
0.0052914
-4.73621e-05
0.00529172
-4.47312e-05
0.00529203
-4.21782e-05
0.00529232
-3.97045e-05
0.0052926
-3.73111e-05
0.00529286
-3.49994e-05
0.00529311
-3.27702e-05
0.00529334
-3.06244e-05
0.00529355
-2.85626e-05
0.00529376
-2.65855e-05
0.00529394
-2.46932e-05
0.00529412
-2.2886e-05
0.00529428
-2.11639e-05
0.00529442
-1.95267e-05
0.00529456
-1.79743e-05
0.00529468
-1.65062e-05
0.00529479
-1.5122e-05
0.00529489
-1.38212e-05
0.00529498
-1.26033e-05
0.00529506
-1.14681e-05
0.00529513
-1.04156e-05
0.00529519
-9.44582e-06
0.00529524
-8.55908e-06
0.00529529
-7.75566e-06
0.00529533
-7.03651e-06
0.00529537
-6.4025e-06
0.0052954
-5.85545e-06
0.00529543
-5.39698e-06
0.00529545
-5.03173e-06
0.00529547
-4.76077e-06
0.0052955
-4.59832e-06
0.00529552
-4.53321e-06
0.00529554
-4.61479e-06
0.00529557
-4.77184e-06
0.0052956
-5.18722e-06
0.00529563
-5.55325e-06
0.00529568
-6.51148e-06
0.00529573
-6.96738e-06
0.00529582
-8.93025e-06
0.00529588
-9.12143e-06
0.00529603
-1.29719e-05
0.0052961
-1.22448e-05
0.00529637
-1.92869e-05