/*--------------------------------*- C++ -*----------------------------------*\
| =========                 |                                                 |
| \\      /  F ield         | OpenFOAM: The Open Source CFD Toolbox           |
|  \\    /   O peration     | Version:  2412                                  |
|   \\  /    A nd           | Website:  www.openfoam.com                      |
|    \\/     M anipulation  |                                                 |
\*---------------------------------------------------------------------------*/
FoamFile
{
    version     2.0;
    format      ascii;
    arch        "LSB;label=32;scalar=64";
    class       volVectorField;
    location    "11.5";
    object      vorticity;
}
// * * * * * * * * * * * * * * * * * * * * * * * * * * * * * * * * * * * * * //

dimensions      [0 0 -1 0 0 0 0];

internalField   nonuniform List<vector> 
5285
(
(0 -0 -9.90099e-07)
(0 -0 -7.0394e-07)
(0 -0 -4.68734e-07)
(0 -0 -2.85631e-07)
(0 -0 -1.42085e-07)
(0 -0 -2.83258e-08)
(0 -0 6.18239e-08)
(0 -0 1.32047e-07)
(0 -0 1.85241e-07)
(0 -0 2.24327e-07)
(0 -0 2.52138e-07)
(0 -0 2.71067e-07)
(0 -0 2.82892e-07)
(0 -0 2.88836e-07)
(0 -0 2.89877e-07)
(0 -0 2.86706e-07)
(0 -0 2.7985e-07)
(0 -0 2.69906e-07)
(0 -0 2.57564e-07)
(0 -0 2.43484e-07)
(0 -0 2.28185e-07)
(0 -0 2.12073e-07)
(0 -0 1.95576e-07)
(0 -0 1.79109e-07)
(0 -0 1.62778e-07)
(0 -0 1.46897e-07)
(0 -0 1.31671e-07)
(0 -0 1.17272e-07)
(0 -0 1.03401e-07)
(0 -0 8.98534e-08)
(0 -0 7.88017e-08)
(0 -0 -8.43494e-07)
(0 -0 -5.69365e-07)
(0 -0 -3.46139e-07)
(0 -0 -1.71928e-07)
(0 -0 -3.52012e-08)
(0 -0 7.2258e-08)
(0 -0 1.56235e-07)
(0 -0 2.20576e-07)
(0 -0 2.68601e-07)
(0 -0 3.03535e-07)
(0 -0 3.28157e-07)
(0 -0 3.44543e-07)
(0 -0 3.54053e-07)
(0 -0 3.57541e-07)
(0 -0 3.55799e-07)
(0 -0 3.49487e-07)
(0 -0 3.3935e-07)
(0 -0 3.26114e-07)
(0 -0 3.10617e-07)
(0 -0 2.93611e-07)
(0 -0 2.75546e-07)
(0 -0 2.56766e-07)
(0 -0 2.37661e-07)
(0 -0 2.18734e-07)
(0 -0 2.00102e-07)
(0 -0 1.8221e-07)
(0 -0 1.65004e-07)
(0 -0 1.48936e-07)
(0 -0 1.3344e-07)
(0 -0 1.18875e-07)
(0 -0 1.0617e-07)
(0 -0 8.9746e-08)
(0 -0 7.33663e-08)
(0 -0 6.03164e-08)
(0 -0 5.01067e-08)
(0 -0 4.1035e-08)
(0 -0 3.26833e-08)
(0 -0 2.43898e-08)
(0 -0 1.70683e-08)
(0 -0 9.45561e-09)
(0 -0 2.62614e-09)
(0 -0 -2.68543e-09)
(0 -0 -8.41386e-09)
(0 -0 -1.26979e-08)
(0 -0 -1.76714e-08)
(0 -0 -2.17236e-08)
(0 -0 -2.58479e-08)
(0 -0 -2.98094e-08)
(0 -0 -3.15374e-08)
(0 -0 -3.45317e-08)
(0 -0 -3.89233e-08)
(0 -0 -3.86904e-08)
(0 -0 -4.54822e-08)
(0 -0 -4.1359e-08)
(0 -0 -5.60037e-08)
(0 -0 -3.39481e-08)
(0 -0 -7.77218e-08)
(0 -0 -1.3351e-08)
(0 -0 -1.22813e-07)
(0 -0 4.12973e-08)
(0 -0 -2.06332e-07)
(0 -0 1.35239e-07)
(0 -0 -3.20385e-07)
(0 -0 2.40176e-07)
(0 -0 -4.49441e-07)
(0 -0 6.46004e-07)
(0 -0 -2.5911e-06)
(0 -0 9.69414e-06)
(0 -0 -2.93661e-05)
(0 -0 5.55054e-05)
(0 -0 -3.91762e-05)
(0 -0 -6.79274e-07)
(0 -0 -4.19384e-07)
(0 -0 -2.12927e-07)
(0 -0 -5.03796e-08)
(0 -0 7.88404e-08)
(0 -0 1.80899e-07)
(0 -0 2.60216e-07)
(0 -0 3.20491e-07)
(0 -0 3.65294e-07)
(0 -0 3.97947e-07)
(0 -0 4.2105e-07)
(0 -0 4.363e-07)
(0 -0 4.44689e-07)
(0 -0 4.46832e-07)
(0 -0 4.43422e-07)
(0 -0 4.35174e-07)
(0 -0 4.22983e-07)
(0 -0 4.0771e-07)
(0 -0 3.90212e-07)
(0 -0 3.71236e-07)
(0 -0 3.51175e-07)
(0 -0 3.30324e-07)
(0 -0 3.0911e-07)
(0 -0 2.88214e-07)
(0 -0 2.67917e-07)
(0 -0 2.4865e-07)
(0 -0 2.30387e-07)
(0 -0 2.13298e-07)
(0 -0 1.96743e-07)
(0 -0 1.81383e-07)
(0 -0 1.67021e-07)
(0 -0 1.52195e-07)
(0 -0 1.36606e-07)
(0 -0 1.23083e-07)
(0 -0 1.11523e-07)
(0 -0 1.00903e-07)
(0 -0 9.13398e-08)
(0 -0 8.21874e-08)
(0 -0 7.40053e-08)
(0 -0 6.60279e-08)
(0 -0 5.85052e-08)
(0 -0 5.26165e-08)
(0 -0 4.64899e-08)
(0 -0 4.19055e-08)
(0 -0 3.66897e-08)
(0 -0 3.24244e-08)
(0 -0 2.79861e-08)
(0 -0 2.35306e-08)
(0 -0 2.10878e-08)
(0 -0 1.80695e-08)
(0 -0 1.34857e-08)
(0 -0 1.35911e-08)
(0 -0 6.63257e-09)
(0 -0 1.14424e-08)
(0 -0 -4.51519e-09)
(0 -0 2.03367e-08)
(0 -0 -2.67558e-08)
(0 -0 4.32744e-08)
(0 -0 -7.39958e-08)
(0 -0 1.01614e-07)
(0 -0 -1.59394e-07)
(0 -0 2.00012e-07)
(0 -0 -2.74344e-07)
(0 -0 3.08764e-07)
(0 -0 -4.05079e-07)
(0 -0 7.50079e-07)
(0 -0 -2.70956e-06)
(0 -0 1.04644e-05)
(0 -0 -3.12972e-05)
(0 -0 5.89338e-05)
(0 -0 -4.02387e-05)
(0 -0 -4.91268e-07)
(0 -0 -2.45374e-07)
(0 -0 -5.20338e-08)
(0 -0 1.00519e-07)
(0 -0 2.23844e-07)
(0 -0 3.22264e-07)
(0 -0 3.98907e-07)
(0 -0 4.57125e-07)
(0 -0 5.00579e-07)
(0 -0 5.32645e-07)
(0 -0 5.55756e-07)
(0 -0 5.71272e-07)
(0 -0 5.79839e-07)
(0 -0 5.81864e-07)
(0 -0 5.7795e-07)
(0 -0 5.68886e-07)
(0 -0 5.55683e-07)
(0 -0 5.39329e-07)
(0 -0 5.20731e-07)
(0 -0 5.00624e-07)
(0 -0 4.79375e-07)
(0 -0 4.57249e-07)
(0 -0 4.34734e-07)
(0 -0 4.12606e-07)
(0 -0 3.9126e-07)
(0 -0 3.71163e-07)
(0 -0 3.52206e-07)
(0 -0 3.34442e-07)
(0 -0 3.17154e-07)
(0 -0 3.01334e-07)
(0 -0 2.85749e-07)
(0 -0 2.7261e-07)
(0 -0 2.58379e-07)
(0 -0 2.44649e-07)
(0 -0 2.32047e-07)
(0 -0 2.20147e-07)
(0 -0 2.09418e-07)
(0 -0 1.99335e-07)
(0 -0 1.90365e-07)
(0 -0 1.81743e-07)
(0 -0 1.73593e-07)
(0 -0 1.67123e-07)
(0 -0 1.60784e-07)
(0 -0 1.55709e-07)
(0 -0 1.50135e-07)
(0 -0 1.45458e-07)
(0 -0 1.40789e-07)
(0 -0 1.35778e-07)
(0 -0 1.32573e-07)
(0 -0 1.29263e-07)
(0 -0 1.24615e-07)
(0 -0 1.24789e-07)
(0 -0 1.17316e-07)
(0 -0 1.22521e-07)
(0 -0 1.05498e-07)
(0 -0 1.32153e-07)
(0 -0 8.25351e-08)
(0 -0 1.56843e-07)
(0 -0 3.29096e-08)
(0 -0 2.18705e-07)
(0 -0 -5.59719e-08)
(0 -0 3.22806e-07)
(0 -0 -1.75205e-07)
(0 -0 4.39041e-07)
(0 -0 -3.149e-07)
(0 -0 9.23879e-07)
(0 -0 -2.80341e-06)
(0 -0 1.13609e-05)
(0 -0 -3.33458e-05)
(0 -0 6.26476e-05)
(0 -0 -4.12123e-05)
(0 -0 -2.39768e-07)
(0 -0 -1.34694e-09)
(0 -0 1.84984e-07)
(0 -0 3.31686e-07)
(0 -0 4.51427e-07)
(0 -0 5.47785e-07)
(0 -0 6.23119e-07)
(0 -0 6.8051e-07)
(0 -0 7.23657e-07)
(0 -0 7.55955e-07)
(0 -0 7.79692e-07)
(0 -0 7.95953e-07)
(0 -0 8.05105e-07)
(0 -0 8.07386e-07)
(0 -0 8.03333e-07)
(0 -0 7.93813e-07)
(0 -0 7.79941e-07)
(0 -0 7.6281e-07)
(0 -0 7.43373e-07)
(0 -0 7.22358e-07)
(0 -0 7.00122e-07)
(0 -0 6.76932e-07)
(0 -0 6.53328e-07)
(0 -0 6.30148e-07)
(0 -0 6.07861e-07)
(0 -0 5.86963e-07)
(0 -0 5.67264e-07)
(0 -0 5.48736e-07)
(0 -0 5.30642e-07)
(0 -0 5.14207e-07)
(0 -0 4.97607e-07)
(0 -0 4.85175e-07)
(0 -0 4.71566e-07)
(0 -0 4.57485e-07)
(0 -0 4.43759e-07)
(0 -0 4.30517e-07)
(0 -0 4.18531e-07)
(0 -0 4.07421e-07)
(0 -0 3.97512e-07)
(0 -0 3.88132e-07)
(0 -0 3.79252e-07)
(0 -0 3.72019e-07)
(0 -0 3.65215e-07)
(0 -0 3.5944e-07)
(0 -0 3.53322e-07)
(0 -0 3.48046e-07)
(0 -0 3.42932e-07)
(0 -0 3.37212e-07)
(0 -0 3.32985e-07)
(0 -0 3.29204e-07)
(0 -0 3.24268e-07)
(0 -0 3.24041e-07)
(0 -0 3.16031e-07)
(0 -0 3.21145e-07)
(0 -0 3.03152e-07)
(0 -0 3.30569e-07)
(0 -0 2.79133e-07)
(0 -0 3.56189e-07)
(0 -0 2.26618e-07)
(0 -0 4.20984e-07)
(0 -0 1.32599e-07)
(0 -0 5.31824e-07)
(0 -0 4.48073e-09)
(0 -0 6.59419e-07)
(0 -0 -1.5238e-07)
(0 -0 1.19565e-06)
(0 -0 -2.84563e-06)
(0 -0 1.24035e-05)
(0 -0 -3.54663e-05)
(0 -0 6.6644e-05)
(0 -0 -4.20627e-05)
(0 -0 1.41861e-07)
(0 -0 3.80154e-07)
(0 -0 5.65092e-07)
(0 -0 7.0959e-07)
(0 -0 8.27531e-07)
(0 -0 9.22642e-07)
(0 -0 9.97078e-07)
(0 -0 1.05383e-06)
(0 -0 1.09663e-06)
(0 -0 1.12887e-06)
(0 -0 1.15273e-06)
(0 -0 1.16911e-06)
(0 -0 1.17817e-06)
(0 -0 1.18004e-06)
(0 -0 1.17522e-06)
(0 -0 1.16466e-06)
(0 -0 1.14955e-06)
(0 -0 1.13107e-06)
(0 -0 1.1102e-06)
(0 -0 1.08768e-06)
(0 -0 1.06388e-06)
(0 -0 1.03906e-06)
(0 -0 1.01383e-06)
(0 -0 9.89056e-07)
(0 -0 9.65245e-07)
(0 -0 9.42898e-07)
(0 -0 9.21772e-07)
(0 -0 9.0178e-07)
(0 -0 8.82222e-07)
(0 -0 8.64427e-07)
(0 -0 8.46492e-07)
(0 -0 8.33123e-07)
(0 -0 8.18798e-07)
(0 -0 8.03556e-07)
(0 -0 7.88189e-07)
(0 -0 7.73166e-07)
(0 -0 7.59478e-07)
(0 -0 7.46858e-07)
(0 -0 7.35485e-07)
(0 -0 7.24866e-07)
(0 -0 7.14768e-07)
(0 -0 7.0628e-07)
(0 -0 6.98474e-07)
(0 -0 6.91482e-07)
(0 -0 6.84323e-07)
(0 -0 6.77958e-07)
(0 -0 6.71926e-07)
(0 -0 6.65096e-07)
(0 -0 6.59392e-07)
(0 -0 6.54672e-07)
(0 -0 6.48988e-07)
(0 -0 6.47783e-07)
(0 -0 6.38889e-07)
(0 -0 6.43306e-07)
(0 -0 6.24133e-07)
(0 -0 6.51263e-07)
(0 -0 5.98196e-07)
(0 -0 6.76665e-07)
(0 -0 5.41917e-07)
(0 -0 7.43403e-07)
(0 -0 4.40907e-07)
(0 -0 8.61178e-07)
(0 -0 2.99775e-07)
(0 -0 1.0026e-06)
(0 -0 1.18246e-07)
(0 -0 1.59604e-06)
(0 -0 -2.79639e-06)
(0 -0 1.36063e-05)
(0 -0 -3.75796e-05)
(0 -0 7.08954e-05)
(0 -0 -4.27472e-05)
(0 -0 7.34615e-07)
(0 -0 9.75937e-07)
(0 -0 1.16246e-06)
(0 -0 1.30671e-06)
(0 -0 1.42361e-06)
(0 -0 1.51747e-06)
(0 -0 1.59059e-06)
(0 -0 1.64603e-06)
(0 -0 1.68755e-06)
(0 -0 1.71853e-06)
(0 -0 1.74111e-06)
(0 -0 1.75604e-06)
(0 -0 1.7634e-06)
(0 -0 1.76326e-06)
(0 -0 1.75614e-06)
(0 -0 1.74305e-06)
(0 -0 1.72525e-06)
(0 -0 1.70399e-06)
(0 -0 1.68027e-06)
(0 -0 1.65482e-06)
(0 -0 1.62804e-06)
(0 -0 1.60025e-06)
(0 -0 1.57207e-06)
(0 -0 1.54438e-06)
(0 -0 1.51771e-06)
(0 -0 1.49252e-06)
(0 -0 1.46856e-06)
(0 -0 1.44571e-06)
(0 -0 1.42335e-06)
(0 -0 1.4028e-06)
(0 -0 1.38242e-06)
(0 -0 1.36601e-06)
(0 -0 1.34908e-06)
(0 -0 1.33128e-06)
(0 -0 1.31319e-06)
(0 -0 1.29542e-06)
(0 -0 1.27906e-06)
(0 -0 1.26393e-06)
(0 -0 1.25007e-06)
(0 -0 1.23723e-06)
(0 -0 1.22495e-06)
(0 -0 1.21426e-06)
(0 -0 1.20447e-06)
(0 -0 1.19532e-06)
(0 -0 1.1862e-06)
(0 -0 1.17786e-06)
(0 -0 1.17004e-06)
(0 -0 1.16132e-06)
(0 -0 1.15337e-06)
(0 -0 1.14689e-06)
(0 -0 1.13964e-06)
(0 -0 1.13662e-06)
(0 -0 1.12611e-06)
(0 -0 1.12902e-06)
(0 -0 1.10801e-06)
(0 -0 1.13378e-06)
(0 -0 1.07856e-06)
(0 -0 1.15735e-06)
(0 -0 1.01699e-06)
(0 -0 1.22447e-06)
(0 -0 9.06805e-07)
(0 -0 1.34819e-06)
(0 -0 7.49021e-07)
(0 -0 1.5038e-06)
(0 -0 5.36475e-07)
(0 -0 2.15684e-06)
(0 -0 -2.60916e-06)
(0 -0 1.49721e-05)
(0 -0 -3.95717e-05)
(0 -0 7.53327e-05)
(0 -0 -4.32192e-05)
(0 -0 1.61337e-06)
(0 -0 1.85826e-06)
(0 -0 2.04706e-06)
(0 -0 2.19159e-06)
(0 -0 2.30745e-06)
(0 -0 2.39959e-06)
(0 -0 2.4706e-06)
(0 -0 2.52364e-06)
(0 -0 2.56251e-06)
(0 -0 2.59057e-06)
(0 -0 2.60991e-06)
(0 -0 2.62128e-06)
(0 -0 2.62475e-06)
(0 -0 2.62042e-06)
(0 -0 2.60884e-06)
(0 -0 2.59109e-06)
(0 -0 2.56849e-06)
(0 -0 2.54234e-06)
(0 -0 2.51365e-06)
(0 -0 2.48317e-06)
(0 -0 2.45133e-06)
(0 -0 2.41851e-06)
(0 -0 2.38535e-06)
(0 -0 2.35272e-06)
(0 -0 2.32114e-06)
(0 -0 2.29103e-06)
(0 -0 2.26213e-06)
(0 -0 2.23434e-06)
(0 -0 2.20714e-06)
(0 -0 2.18181e-06)
(0 -0 2.15702e-06)
(0 -0 2.13535e-06)
(0 -0 2.11358e-06)
(0 -0 2.09126e-06)
(0 -0 2.0687e-06)
(0 -0 2.04655e-06)
(0 -0 2.02592e-06)
(0 -0 2.00664e-06)
(0 -0 1.98866e-06)
(0 -0 1.97198e-06)
(0 -0 1.95595e-06)
(0 -0 1.94154e-06)
(0 -0 1.92821e-06)
(0 -0 1.91542e-06)
(0 -0 1.90288e-06)
(0 -0 1.89113e-06)
(0 -0 1.88016e-06)
(0 -0 1.86827e-06)
(0 -0 1.85684e-06)
(0 -0 1.84732e-06)
(0 -0 1.8372e-06)
(0 -0 1.83115e-06)
(0 -0 1.81781e-06)
(0 -0 1.81806e-06)
(0 -0 1.79397e-06)
(0 -0 1.81718e-06)
(0 -0 1.75846e-06)
(0 -0 1.83654e-06)
(0 -0 1.68911e-06)
(0 -0 1.90163e-06)
(0 -0 1.56695e-06)
(0 -0 2.02883e-06)
(0 -0 1.38896e-06)
(0 -0 2.19658e-06)
(0 -0 1.13983e-06)
(0 -0 2.90709e-06)
(0 -0 -2.23616e-06)
(0 -0 1.64852e-05)
(0 -0 -4.12905e-05)
(0 -0 7.98264e-05)
(0 -0 -4.34351e-05)
(0 -0 2.84143e-06)
(0 -0 3.08957e-06)
(0 -0 3.28044e-06)
(0 -0 3.42517e-06)
(0 -0 3.53975e-06)
(0 -0 3.62961e-06)
(0 -0 3.69769e-06)
(0 -0 3.74721e-06)
(0 -0 3.78194e-06)
(0 -0 3.80523e-06)
(0 -0 3.81918e-06)
(0 -0 3.82461e-06)
(0 -0 3.82167e-06)
(0 -0 3.81056e-06)
(0 -0 3.79192e-06)
(0 -0 3.76689e-06)
(0 -0 3.73685e-06)
(0 -0 3.70312e-06)
(0 -0 3.66675e-06)
(0 -0 3.6285e-06)
(0 -0 3.58888e-06)
(0 -0 3.54831e-06)
(0 -0 3.50746e-06)
(0 -0 3.46716e-06)
(0 -0 3.42789e-06)
(0 -0 3.39005e-06)
(0 -0 3.3534e-06)
(0 -0 3.31786e-06)
(0 -0 3.28306e-06)
(0 -0 3.25017e-06)
(0 -0 3.2182e-06)
(0 -0 3.18862e-06)
(0 -0 3.15931e-06)
(0 -0 3.12982e-06)
(0 -0 3.10033e-06)
(0 -0 3.07144e-06)
(0 -0 3.04418e-06)
(0 -0 3.0184e-06)
(0 -0 2.99396e-06)
(0 -0 2.97111e-06)
(0 -0 2.94907e-06)
(0 -0 2.92871e-06)
(0 -0 2.90962e-06)
(0 -0 2.89103e-06)
(0 -0 2.87297e-06)
(0 -0 2.85576e-06)
(0 -0 2.83963e-06)
(0 -0 2.82268e-06)
(0 -0 2.80594e-06)
(0 -0 2.79151e-06)
(0 -0 2.77664e-06)
(0 -0 2.76578e-06)
(0 -0 2.7478e-06)
(0 -0 2.74371e-06)
(0 -0 2.71467e-06)
(0 -0 2.73367e-06)
(0 -0 2.66934e-06)
(0 -0 2.74533e-06)
(0 -0 2.58849e-06)
(0 -0 2.8048e-06)
(0 -0 2.45033e-06)
(0 -0 2.93142e-06)
(0 -0 2.24761e-06)
(0 -0 3.10702e-06)
(0 -0 1.95572e-06)
(0 -0 3.86762e-06)
(0 -0 -1.63666e-06)
(0 -0 1.81023e-05)
(0 -0 -4.25456e-05)
(0 -0 8.41675e-05)
(0 -0 -4.33622e-05)
(0 -0 4.46608e-06)
(0 -0 4.71788e-06)
(0 -0 4.91102e-06)
(0 -0 5.05613e-06)
(0 -0 5.16942e-06)
(0 -0 5.25675e-06)
(0 -0 5.32128e-06)
(0 -0 5.3663e-06)
(0 -0 5.3955e-06)
(0 -0 5.4122e-06)
(0 -0 5.41855e-06)
(0 -0 5.41552e-06)
(0 -0 5.40344e-06)
(0 -0 5.38268e-06)
(0 -0 5.354e-06)
(0 -0 5.31861e-06)
(0 -0 5.27797e-06)
(0 -0 5.23342e-06)
(0 -0 5.18604e-06)
(0 -0 5.13666e-06)
(0 -0 5.08584e-06)
(0 -0 5.0341e-06)
(0 -0 4.9821e-06)
(0 -0 4.93062e-06)
(0 -0 4.88013e-06)
(0 -0 4.83096e-06)
(0 -0 4.78292e-06)
(0 -0 4.73602e-06)
(0 -0 4.69001e-06)
(0 -0 4.64597e-06)
(0 -0 4.60316e-06)
(0 -0 4.56229e-06)
(0 -0 4.52199e-06)
(0 -0 4.48192e-06)
(0 -0 4.4422e-06)
(0 -0 4.40335e-06)
(0 -0 4.36629e-06)
(0 -0 4.33083e-06)
(0 -0 4.29678e-06)
(0 -0 4.26461e-06)
(0 -0 4.23348e-06)
(0 -0 4.20415e-06)
(0 -0 4.17627e-06)
(0 -0 4.14895e-06)
(0 -0 4.12248e-06)
(0 -0 4.09702e-06)
(0 -0 4.07296e-06)
(0 -0 4.0483e-06)
(0 -0 4.02371e-06)
(0 -0 4.00177e-06)
(0 -0 3.97953e-06)
(0 -0 3.9614e-06)
(0 -0 3.93627e-06)
(0 -0 3.92542e-06)
(0 -0 3.88887e-06)
(0 -0 3.9013e-06)
(0 -0 3.82846e-06)
(0 -0 3.90027e-06)
(0 -0 3.73081e-06)
(0 -0 3.94892e-06)
(0 -0 3.57093e-06)
(0 -0 4.06911e-06)
(0 -0 3.33713e-06)
(0 -0 4.24608e-06)
(0 -0 2.9945e-06)
(0 -0 5.04322e-06)
(0 -0 -7.83227e-07)
(0 -0 1.97424e-05)
(0 -0 -4.31092e-05)
(0 -0 8.80504e-05)
(0 -0 -4.29857e-05)
(0 -0 6.51336e-06)
(0 -0 6.77092e-06)
(0 -0 6.96775e-06)
(0 -0 7.11428e-06)
(0 -0 7.22697e-06)
(0 -0 7.31202e-06)
(0 -0 7.37282e-06)
(0 -0 7.41267e-06)
(0 -0 7.43516e-06)
(0 -0 7.44355e-06)
(0 -0 7.44011e-06)
(0 -0 7.42603e-06)
(0 -0 7.4019e-06)
(0 -0 7.36834e-06)
(0 -0 7.32627e-06)
(0 -0 7.27702e-06)
(0 -0 7.22209e-06)
(0 -0 7.16288e-06)
(0 -0 7.10052e-06)
(0 -0 7.03593e-06)
(0 -0 6.96977e-06)
(0 -0 6.90266e-06)
(0 -0 6.83523e-06)
(0 -0 6.76824e-06)
(0 -0 6.7021e-06)
(0 -0 6.63711e-06)
(0 -0 6.57318e-06)
(0 -0 6.51038e-06)
(0 -0 6.44863e-06)
(0 -0 6.38891e-06)
(0 -0 6.33067e-06)
(0 -0 6.27415e-06)
(0 -0 6.2185e-06)
(0 -0 6.1635e-06)
(0 -0 6.10931e-06)
(0 -0 6.05635e-06)
(0 -0 6.00537e-06)
(0 -0 5.95612e-06)
(0 -0 5.90839e-06)
(0 -0 5.86284e-06)
(0 -0 5.81859e-06)
(0 -0 5.77635e-06)
(0 -0 5.73573e-06)
(0 -0 5.69585e-06)
(0 -0 5.65722e-06)
(0 -0 5.61982e-06)
(0 -0 5.58422e-06)
(0 -0 5.54834e-06)
(0 -0 5.51248e-06)
(0 -0 5.47959e-06)
(0 -0 5.44652e-06)
(0 -0 5.41781e-06)
(0 -0 5.3822e-06)
(0 -0 5.36132e-06)
(0 -0 5.31385e-06)
(0 -0 5.31648e-06)
(0 -0 5.2314e-06)
(0 -0 5.29594e-06)
(0 -0 5.10976e-06)
(0 -0 5.32666e-06)
(0 -0 4.92037e-06)
(0 -0 5.43251e-06)
(0 -0 4.6467e-06)
(0 -0 5.60194e-06)
(0 -0 4.24285e-06)
(0 -0 6.41478e-06)
(0 -0 3.32211e-07)
(0 -0 2.12787e-05)
(0 -0 -4.27208e-05)
(0 -0 9.10647e-05)
(0 -0 -4.23141e-05)
(0 -0 8.98256e-06)
(0 -0 9.25e-06)
(0 -0 9.45359e-06)
(0 -0 9.60386e-06)
(0 -0 9.71757e-06)
(0 -0 9.80132e-06)
(0 -0 9.85876e-06)
(0 -0 9.89316e-06)
(0 -0 9.90801e-06)
(0 -0 9.90656e-06)
(0 -0 9.89119e-06)
(0 -0 9.86342e-06)
(0 -0 9.82419e-06)
(0 -0 9.77443e-06)
(0 -0 9.71527e-06)
(0 -0 9.64819e-06)
(0 -0 9.57474e-06)
(0 -0 9.4964e-06)
(0 -0 9.41441e-06)
(0 -0 9.32979e-06)
(0 -0 9.24337e-06)
(0 -0 9.15584e-06)
(0 -0 9.06786e-06)
(0 -0 8.98012e-06)
(0 -0 8.893e-06)
(0 -0 8.80679e-06)
(0 -0 8.72149e-06)
(0 -0 8.63729e-06)
(0 -0 8.55425e-06)
(0 -0 8.4733e-06)
(0 -0 8.39403e-06)
(0 -0 8.31644e-06)
(0 -0 8.24005e-06)
(0 -0 8.16478e-06)
(0 -0 8.09085e-06)
(0 -0 8.01858e-06)
(0 -0 7.94855e-06)
(0 -0 7.88041e-06)
(0 -0 7.81392e-06)
(0 -0 7.74993e-06)
(0 -0 7.68755e-06)
(0 -0 7.62743e-06)
(0 -0 7.56916e-06)
(0 -0 7.51189e-06)
(0 -0 7.45635e-06)
(0 -0 7.40237e-06)
(0 -0 7.35067e-06)
(0 -0 7.29911e-06)
(0 -0 7.24763e-06)
(0 -0 7.19941e-06)
(0 -0 7.15114e-06)
(0 -0 7.10761e-06)
(0 -0 7.05727e-06)
(0 -0 7.02212e-06)
(0 -0 6.95941e-06)
(0 -0 6.94802e-06)
(0 -0 6.84603e-06)
(0 -0 6.89911e-06)
(0 -0 6.69113e-06)
(0 -0 6.90265e-06)
(0 -0 6.46214e-06)
(0 -0 6.98392e-06)
(0 -0 6.13709e-06)
(0 -0 7.1343e-06)
(0 -0 5.6587e-06)
(0 -0 7.93358e-06)
(0 -0 1.6931e-06)
(0 -0 2.25357e-05)
(0 -0 -4.10985e-05)
(0 -0 9.26986e-05)
(0 -0 -4.1384e-05)
(0 -0 1.18426e-05)
(0 -0 1.2126e-05)
(0 -0 1.23412e-05)
(0 -0 1.24989e-05)
(0 -0 1.26163e-05)
(0 -0 1.27005e-05)
(0 -0 1.27556e-05)
(0 -0 1.27847e-05)
(0 -0 1.27913e-05)
(0 -0 1.27786e-05)
(0 -0 1.27493e-05)
(0 -0 1.27052e-05)
(0 -0 1.26476e-05)
(0 -0 1.2578e-05)
(0 -0 1.24977e-05)
(0 -0 1.24084e-05)
(0 -0 1.23117e-05)
(0 -0 1.22091e-05)
(0 -0 1.21022e-05)
(0 -0 1.1992e-05)
(0 -0 1.18796e-05)
(0 -0 1.17658e-05)
(0 -0 1.16513e-05)
(0 -0 1.15367e-05)
(0 -0 1.14223e-05)
(0 -0 1.13086e-05)
(0 -0 1.11955e-05)
(0 -0 1.10834e-05)
(0 -0 1.09725e-05)
(0 -0 1.08638e-05)
(0 -0 1.07569e-05)
(0 -0 1.06518e-05)
(0 -0 1.05482e-05)
(0 -0 1.04463e-05)
(0 -0 1.03463e-05)
(0 -0 1.02485e-05)
(0 -0 1.01532e-05)
(0 -0 1.00601e-05)
(0 -0 9.96878e-06)
(0 -0 9.88028e-06)
(0 -0 9.79373e-06)
(0 -0 9.70976e-06)
(0 -0 9.6279e-06)
(0 -0 9.5474e-06)
(0 -0 9.46923e-06)
(0 -0 9.39306e-06)
(0 -0 9.31972e-06)
(0 -0 9.24705e-06)
(0 -0 9.1746e-06)
(0 -0 9.10572e-06)
(0 -0 9.03694e-06)
(0 -0 8.97339e-06)
(0 -0 8.90313e-06)
(0 -0 8.84848e-06)
(0 -0 8.76524e-06)
(0 -0 8.73456e-06)
(0 -0 8.61003e-06)
(0 -0 8.64636e-06)
(0 -0 8.41048e-06)
(0 -0 8.61123e-06)
(0 -0 8.12943e-06)
(0 -0 8.65528e-06)
(0 -0 7.73873e-06)
(0 -0 8.77238e-06)
(0 -0 7.16967e-06)
(0 -0 9.51974e-06)
(0 -0 3.25573e-06)
(0 -0 2.32941e-05)
(0 -0 -3.79551e-05)
(0 -0 9.23594e-05)
(0 -0 -4.02606e-05)
(0 -0 1.50322e-05)
(0 -0 1.53398e-05)
(0 -0 1.55729e-05)
(0 -0 1.57429e-05)
(0 -0 1.58677e-05)
(0 -0 1.59551e-05)
(0 -0 1.60092e-05)
(0 -0 1.60336e-05)
(0 -0 1.60316e-05)
(0 -0 1.60065e-05)
(0 -0 1.59612e-05)
(0 -0 1.58981e-05)
(0 -0 1.5819e-05)
(0 -0 1.57256e-05)
(0 -0 1.56199e-05)
(0 -0 1.55034e-05)
(0 -0 1.53782e-05)
(0 -0 1.52458e-05)
(0 -0 1.51079e-05)
(0 -0 1.4966e-05)
(0 -0 1.48212e-05)
(0 -0 1.46745e-05)
(0 -0 1.45267e-05)
(0 -0 1.43783e-05)
(0 -0 1.42298e-05)
(0 -0 1.40813e-05)
(0 -0 1.39331e-05)
(0 -0 1.37858e-05)
(0 -0 1.36397e-05)
(0 -0 1.34956e-05)
(0 -0 1.33536e-05)
(0 -0 1.32135e-05)
(0 -0 1.30754e-05)
(0 -0 1.29395e-05)
(0 -0 1.28062e-05)
(0 -0 1.26757e-05)
(0 -0 1.25481e-05)
(0 -0 1.24229e-05)
(0 -0 1.22998e-05)
(0 -0 1.21798e-05)
(0 -0 1.20621e-05)
(0 -0 1.19473e-05)
(0 -0 1.1835e-05)
(0 -0 1.17245e-05)
(0 -0 1.16171e-05)
(0 -0 1.15122e-05)
(0 -0 1.14108e-05)
(0 -0 1.13106e-05)
(0 -0 1.1211e-05)
(0 -0 1.11152e-05)
(0 -0 1.10197e-05)
(0 -0 1.093e-05)
(0 -0 1.08338e-05)
(0 -0 1.07535e-05)
(0 -0 1.06435e-05)
(0 -0 1.05873e-05)
(0 -0 1.04337e-05)
(0 -0 1.04469e-05)
(0 -0 1.01761e-05)
(0 -0 1.03595e-05)
(0 -0 9.82831e-06)
(0 -0 1.03515e-05)
(0 -0 9.35513e-06)
(0 -0 1.04185e-05)
(0 -0 8.67686e-06)
(0 -0 1.10665e-05)
(0 -0 4.95118e-06)
(0 -0 2.33046e-05)
(0 -0 -3.30204e-05)
(0 -0 8.94156e-05)
(0 -0 -3.90334e-05)
(0 -0 1.84667e-05)
(0 -0 1.88076e-05)
(0 -0 1.90662e-05)
(0 -0 1.92545e-05)
(0 -0 1.93912e-05)
(0 -0 1.94848e-05)
(0 -0 1.954e-05)
(0 -0 1.95605e-05)
(0 -0 1.95498e-05)
(0 -0 1.95112e-05)
(0 -0 1.9448e-05)
(0 -0 1.9363e-05)
(0 -0 1.92588e-05)
(0 -0 1.91378e-05)
(0 -0 1.90019e-05)
(0 -0 1.88533e-05)
(0 -0 1.86939e-05)
(0 -0 1.85256e-05)
(0 -0 1.83503e-05)
(0 -0 1.81699e-05)
(0 -0 1.79857e-05)
(0 -0 1.7799e-05)
(0 -0 1.76106e-05)
(0 -0 1.74209e-05)
(0 -0 1.72304e-05)
(0 -0 1.70394e-05)
(0 -0 1.68483e-05)
(0 -0 1.66577e-05)
(0 -0 1.64681e-05)
(0 -0 1.62807e-05)
(0 -0 1.60953e-05)
(0 -0 1.59121e-05)
(0 -0 1.57313e-05)
(0 -0 1.55533e-05)
(0 -0 1.53787e-05)
(0 -0 1.52075e-05)
(0 -0 1.50398e-05)
(0 -0 1.48749e-05)
(0 -0 1.47122e-05)
(0 -0 1.45529e-05)
(0 -0 1.43963e-05)
(0 -0 1.42431e-05)
(0 -0 1.40927e-05)
(0 -0 1.39447e-05)
(0 -0 1.38005e-05)
(0 -0 1.36596e-05)
(0 -0 1.3523e-05)
(0 -0 1.33884e-05)
(0 -0 1.32545e-05)
(0 -0 1.31248e-05)
(0 -0 1.29957e-05)
(0 -0 1.28731e-05)
(0 -0 1.27439e-05)
(0 -0 1.26311e-05)
(0 -0 1.24874e-05)
(0 -0 1.23987e-05)
(0 -0 1.22087e-05)
(0 -0 1.21916e-05)
(0 -0 1.1878e-05)
(0 -0 1.20367e-05)
(0 -0 1.14471e-05)
(0 -0 1.19599e-05)
(0 -0 1.08726e-05)
(0 -0 1.19579e-05)
(0 -0 1.00649e-05)
(0 -0 1.2451e-05)
(0 -0 6.69274e-06)
(0 -0 2.2313e-05)
(0 -0 -2.60655e-05)
(0 -0 8.32578e-05)
(0 -0 -3.78054e-05)
(0 -0 2.20487e-05)
(0 -0 2.24332e-05)
(0 -0 2.27254e-05)
(0 -0 2.29383e-05)
(0 -0 2.30916e-05)
(0 -0 2.31948e-05)
(0 -0 2.32532e-05)
(0 -0 2.32708e-05)
(0 -0 2.32512e-05)
(0 -0 2.31979e-05)
(0 -0 2.31148e-05)
(0 -0 2.30052e-05)
(0 -0 2.28725e-05)
(0 -0 2.27195e-05)
(0 -0 2.25487e-05)
(0 -0 2.23625e-05)
(0 -0 2.21631e-05)
(0 -0 2.19526e-05)
(0 -0 2.17332e-05)
(0 -0 2.15072e-05)
(0 -0 2.12764e-05)
(0 -0 2.10422e-05)
(0 -0 2.08055e-05)
(0 -0 2.05667e-05)
(0 -0 2.03263e-05)
(0 -0 2.00846e-05)
(0 -0 1.98422e-05)
(0 -0 1.95998e-05)
(0 -0 1.93584e-05)
(0 -0 1.91189e-05)
(0 -0 1.88816e-05)
(0 -0 1.86467e-05)
(0 -0 1.84147e-05)
(0 -0 1.81861e-05)
(0 -0 1.79618e-05)
(0 -0 1.77416e-05)
(0 -0 1.75256e-05)
(0 -0 1.73126e-05)
(0 -0 1.71022e-05)
(0 -0 1.68955e-05)
(0 -0 1.66919e-05)
(0 -0 1.64921e-05)
(0 -0 1.62955e-05)
(0 -0 1.6102e-05)
(0 -0 1.59133e-05)
(0 -0 1.57286e-05)
(0 -0 1.55492e-05)
(0 -0 1.53725e-05)
(0 -0 1.51969e-05)
(0 -0 1.50259e-05)
(0 -0 1.48557e-05)
(0 -0 1.46928e-05)
(0 -0 1.45236e-05)
(0 -0 1.43709e-05)
(0 -0 1.4186e-05)
(0 -0 1.40573e-05)
(0 -0 1.3823e-05)
(0 -0 1.37679e-05)
(0 -0 1.34032e-05)
(0 -0 1.35292e-05)
(0 -0 1.28717e-05)
(0 -0 1.33658e-05)
(0 -0 1.21759e-05)
(0 -0 1.32748e-05)
(0 -0 1.12178e-05)
(0 -0 1.35515e-05)
(0 -0 8.38866e-06)
(0 -0 2.00932e-05)
(0 -0 -1.69283e-05)
(0 -0 7.33752e-05)
(0 -0 -3.66776e-05)
(0 -0 2.56848e-05)
(0 -0 2.61226e-05)
(0 -0 2.64564e-05)
(0 -0 2.67001e-05)
(0 -0 2.68747e-05)
(0 -0 2.69906e-05)
(0 -0 2.7054e-05)
(0 -0 2.70694e-05)
(0 -0 2.70406e-05)
(0 -0 2.69714e-05)
(0 -0 2.68662e-05)
(0 -0 2.67291e-05)
(0 -0 2.65642e-05)
(0 -0 2.63749e-05)
(0 -0 2.61644e-05)
(0 -0 2.59353e-05)
(0 -0 2.569e-05)
(0 -0 2.54309e-05)
(0 -0 2.51606e-05)
(0 -0 2.48819e-05)
(0 -0 2.45972e-05)
(0 -0 2.4308e-05)
(0 -0 2.40153e-05)
(0 -0 2.37196e-05)
(0 -0 2.34213e-05)
(0 -0 2.31208e-05)
(0 -0 2.28188e-05)
(0 -0 2.25164e-05)
(0 -0 2.22144e-05)
(0 -0 2.19144e-05)
(0 -0 2.16166e-05)
(0 -0 2.13215e-05)
(0 -0 2.10298e-05)
(0 -0 2.07422e-05)
(0 -0 2.04596e-05)
(0 -0 2.01821e-05)
(0 -0 1.99094e-05)
(0 -0 1.96403e-05)
(0 -0 1.9374e-05)
(0 -0 1.91118e-05)
(0 -0 1.88529e-05)
(0 -0 1.85983e-05)
(0 -0 1.83474e-05)
(0 -0 1.81003e-05)
(0 -0 1.78591e-05)
(0 -0 1.76229e-05)
(0 -0 1.7393e-05)
(0 -0 1.71666e-05)
(0 -0 1.69416e-05)
(0 -0 1.67218e-05)
(0 -0 1.65031e-05)
(0 -0 1.62926e-05)
(0 -0 1.60758e-05)
(0 -0 1.58757e-05)
(0 -0 1.56421e-05)
(0 -0 1.54657e-05)
(0 -0 1.51794e-05)
(0 -0 1.50785e-05)
(0 -0 1.46542e-05)
(0 -0 1.47394e-05)
(0 -0 1.40045e-05)
(0 -0 1.44718e-05)
(0 -0 1.31676e-05)
(0 -0 1.42717e-05)
(0 -0 1.20387e-05)
(0 -0 1.42676e-05)
(0 -0 9.95842e-06)
(0 -0 1.64844e-05)
(0 -0 -5.53697e-06)
(0 -0 5.94393e-05)
(0 -0 -3.57301e-05)
(0 -0 2.93018e-05)
(0 -0 2.98014e-05)
(0 -0 3.01836e-05)
(0 -0 3.04634e-05)
(0 -0 3.0663e-05)
(0 -0 3.07941e-05)
(0 -0 3.08638e-05)
(0 -0 3.08772e-05)
(0 -0 3.08384e-05)
(0 -0 3.07518e-05)
(0 -0 3.06221e-05)
(0 -0 3.04544e-05)
(0 -0 3.02536e-05)
(0 -0 3.00239e-05)
(0 -0 2.97689e-05)
(0 -0 2.94915e-05)
(0 -0 2.91945e-05)
(0 -0 2.88806e-05)
(0 -0 2.8553e-05)
(0 -0 2.82149e-05)
(0 -0 2.78692e-05)
(0 -0 2.75179e-05)
(0 -0 2.7162e-05)
(0 -0 2.6802e-05)
(0 -0 2.64383e-05)
(0 -0 2.60714e-05)
(0 -0 2.57021e-05)
(0 -0 2.53316e-05)
(0 -0 2.49612e-05)
(0 -0 2.45925e-05)
(0 -0 2.42263e-05)
(0 -0 2.3863e-05)
(0 -0 2.35036e-05)
(0 -0 2.31489e-05)
(0 -0 2.28002e-05)
(0 -0 2.24574e-05)
(0 -0 2.21203e-05)
(0 -0 2.17873e-05)
(0 -0 2.14574e-05)
(0 -0 2.11318e-05)
(0 -0 2.081e-05)
(0 -0 2.04928e-05)
(0 -0 2.01799e-05)
(0 -0 1.98716e-05)
(0 -0 1.95703e-05)
(0 -0 1.92752e-05)
(0 -0 1.89875e-05)
(0 -0 1.87041e-05)
(0 -0 1.84227e-05)
(0 -0 1.81469e-05)
(0 -0 1.78725e-05)
(0 -0 1.76072e-05)
(0 -0 1.73358e-05)
(0 -0 1.70812e-05)
(0 -0 1.67917e-05)
(0 -0 1.65604e-05)
(0 -0 1.62145e-05)
(0 -0 1.60604e-05)
(0 -0 1.55686e-05)
(0 -0 1.56056e-05)
(0 -0 1.47844e-05)
(0 -0 1.52171e-05)
(0 -0 1.37879e-05)
(0 -0 1.48893e-05)
(0 -0 1.247e-05)
(0 -0 1.45414e-05)
(0 -0 1.13496e-05)
(0 -0 1.14262e-05)
(0 -0 8.07186e-06)
(0 -0 4.13787e-05)
(0 -0 -3.50029e-05)
(0 -0 3.28604e-05)
(0 -0 3.34286e-05)
(0 -0 3.38641e-05)
(0 -0 3.41834e-05)
(0 -0 3.44103e-05)
(0 -0 3.45578e-05)
(0 -0 3.46342e-05)
(0 -0 3.4645e-05)
(0 -0 3.45949e-05)
(0 -0 3.44887e-05)
(0 -0 3.43319e-05)
(0 -0 3.41304e-05)
(0 -0 3.389e-05)
(0 -0 3.36158e-05)
(0 -0 3.33117e-05)
(0 -0 3.29812e-05)
(0 -0 3.26273e-05)
(0 -0 3.22529e-05)
(0 -0 3.1862e-05)
(0 -0 3.14584e-05)
(0 -0 3.10456e-05)
(0 -0 3.06258e-05)
(0 -0 3.02003e-05)
(0 -0 2.97695e-05)
(0 -0 2.93338e-05)
(0 -0 2.88937e-05)
(0 -0 2.84502e-05)
(0 -0 2.80048e-05)
(0 -0 2.7559e-05)
(0 -0 2.71148e-05)
(0 -0 2.6673e-05)
(0 -0 2.62346e-05)
(0 -0 2.58004e-05)
(0 -0 2.53717e-05)
(0 -0 2.49499e-05)
(0 -0 2.45351e-05)
(0 -0 2.41267e-05)
(0 -0 2.37231e-05)
(0 -0 2.33229e-05)
(0 -0 2.29272e-05)
(0 -0 2.25355e-05)
(0 -0 2.2149e-05)
(0 -0 2.17674e-05)
(0 -0 2.1391e-05)
(0 -0 2.10231e-05)
(0 -0 2.06626e-05)
(0 -0 2.03106e-05)
(0 -0 1.99639e-05)
(0 -0 1.96196e-05)
(0 -0 1.92814e-05)
(0 -0 1.89451e-05)
(0 -0 1.86187e-05)
(0 -0 1.82866e-05)
(0 -0 1.79712e-05)
(0 -0 1.76194e-05)
(0 -0 1.73268e-05)
(0 -0 1.69149e-05)
(0 -0 1.67012e-05)
(0 -0 1.6135e-05)
(0 -0 1.61173e-05)
(0 -0 1.5202e-05)
(0 -0 1.55937e-05)
(0 -0 1.40302e-05)
(0 -0 1.51227e-05)
(0 -0 1.2509e-05)
(0 -0 1.43737e-05)
(0 -0 1.25515e-05)
(0 -0 4.98561e-06)
(0 -0 2.37417e-05)
(0 -0 1.94341e-05)
(0 -0 -3.44847e-05)
(0 -0 3.63635e-05)
(0 -0 3.70038e-05)
(0 -0 3.74947e-05)
(0 -0 3.78548e-05)
(0 -0 3.81095e-05)
(0 -0 3.82731e-05)
(0 -0 3.83551e-05)
(0 -0 3.83617e-05)
(0 -0 3.82982e-05)
(0 -0 3.81699e-05)
(0 -0 3.79832e-05)
(0 -0 3.77447e-05)
(0 -0 3.74612e-05)
(0 -0 3.71385e-05)
(0 -0 3.67814e-05)
(0 -0 3.63934e-05)
(0 -0 3.59779e-05)
(0 -0 3.55384e-05)
(0 -0 3.50792e-05)
(0 -0 3.4605e-05)
(0 -0 3.41199e-05)
(0 -0 3.36266e-05)
(0 -0 3.31263e-05)
(0 -0 3.26196e-05)
(0 -0 3.21066e-05)
(0 -0 3.1588e-05)
(0 -0 3.1065e-05)
(0 -0 3.05392e-05)
(0 -0 3.00125e-05)
(0 -0 2.94872e-05)
(0 -0 2.89645e-05)
(0 -0 2.84455e-05)
(0 -0 2.79311e-05)
(0 -0 2.74229e-05)
(0 -0 2.69226e-05)
(0 -0 2.64303e-05)
(0 -0 2.59454e-05)
(0 -0 2.54659e-05)
(0 -0 2.49902e-05)
(0 -0 2.45191e-05)
(0 -0 2.40522e-05)
(0 -0 2.35908e-05)
(0 -0 2.31351e-05)
(0 -0 2.26855e-05)
(0 -0 2.22458e-05)
(0 -0 2.18146e-05)
(0 -0 2.13933e-05)
(0 -0 2.09782e-05)
(0 -0 2.05659e-05)
(0 -0 2.01603e-05)
(0 -0 1.97571e-05)
(0 -0 1.93647e-05)
(0 -0 1.89668e-05)
(0 -0 1.85857e-05)
(0 -0 1.81665e-05)
(0 -0 1.78078e-05)
(0 -0 1.73247e-05)
(0 -0 1.70465e-05)
(0 -0 1.64006e-05)
(0 -0 1.63232e-05)
(0 -0 1.53083e-05)
(0 -0 1.56542e-05)
(0 -0 1.39497e-05)
(0 -0 1.50288e-05)
(0 -0 1.22158e-05)
(0 -0 1.38321e-05)
(0 -0 1.36018e-05)
(0 -0 -2.63235e-06)
(0 -0 4.11944e-05)
(0 -0 -5.82144e-06)
(0 -0 -3.41146e-05)
(0 -0 3.97778e-05)
(0 -0 4.04887e-05)
(0 -0 4.10333e-05)
(0 -0 4.14323e-05)
(0 -0 4.17128e-05)
(0 -0 4.18905e-05)
(0 -0 4.19759e-05)
(0 -0 4.19762e-05)
(0 -0 4.1897e-05)
(0 -0 4.17444e-05)
(0 -0 4.15255e-05)
(0 -0 4.12478e-05)
(0 -0 4.09192e-05)
(0 -0 4.05461e-05)
(0 -0 4.01338e-05)
(0 -0 3.96863e-05)
(0 -0 3.92072e-05)
(0 -0 3.87004e-05)
(0 -0 3.8171e-05)
(0 -0 3.76243e-05)
(0 -0 3.7065e-05)
(0 -0 3.64963e-05)
(0 -0 3.59195e-05)
(0 -0 3.5335e-05)
(0 -0 3.4743e-05)
(0 -0 3.41442e-05)
(0 -0 3.35399e-05)
(0 -0 3.29319e-05)
(0 -0 3.23226e-05)
(0 -0 3.17146e-05)
(0 -0 3.11093e-05)
(0 -0 3.0508e-05)
(0 -0 2.99118e-05)
(0 -0 2.93224e-05)
(0 -0 2.87418e-05)
(0 -0 2.81703e-05)
(0 -0 2.76073e-05)
(0 -0 2.70502e-05)
(0 -0 2.64972e-05)
(0 -0 2.59489e-05)
(0 -0 2.5405e-05)
(0 -0 2.4867e-05)
(0 -0 2.43354e-05)
(0 -0 2.38107e-05)
(0 -0 2.32972e-05)
(0 -0 2.27937e-05)
(0 -0 2.23012e-05)
(0 -0 2.18159e-05)
(0 -0 2.13337e-05)
(0 -0 2.08589e-05)
(0 -0 2.0387e-05)
(0 -0 1.99269e-05)
(0 -0 1.94613e-05)
(0 -0 1.90129e-05)
(0 -0 1.85244e-05)
(0 -0 1.80981e-05)
(0 -0 1.75418e-05)
(0 -0 1.7198e-05)
(0 -0 1.64705e-05)
(0 -0 1.63324e-05)
(0 -0 1.52163e-05)
(0 -0 1.55151e-05)
(0 -0 1.36693e-05)
(0 -0 1.47329e-05)
(0 -0 1.17243e-05)
(0 -0 1.30669e-05)
(0 -0 1.45649e-05)
(0 -0 -1.09053e-05)
(0 -0 5.96302e-05)
(0 -0 -3.28979e-05)
(0 -0 -3.37995e-05)
(0 -0 4.3216e-05)
(0 -0 4.3992e-05)
(0 -0 4.45857e-05)
(0 -0 4.50194e-05)
(0 -0 4.53215e-05)
(0 -0 4.55093e-05)
(0 -0 4.55944e-05)
(0 -0 4.55846e-05)
(0 -0 4.54865e-05)
(0 -0 4.53065e-05)
(0 -0 4.50525e-05)
(0 -0 4.47331e-05)
(0 -0 4.43569e-05)
(0 -0 4.39312e-05)
(0 -0 4.34617e-05)
(0 -0 4.29528e-05)
(0 -0 4.24084e-05)
(0 -0 4.18328e-05)
(0 -0 4.12317e-05)
(0 -0 4.06112e-05)
(0 -0 3.99766e-05)
(0 -0 3.93315e-05)
(0 -0 3.86772e-05)
(0 -0 3.80141e-05)
(0 -0 3.73424e-05)
(0 -0 3.66628e-05)
(0 -0 3.59765e-05)
(0 -0 3.52858e-05)
(0 -0 3.45934e-05)
(0 -0 3.39022e-05)
(0 -0 3.32139e-05)
(0 -0 3.25299e-05)
(0 -0 3.18515e-05)
(0 -0 3.11804e-05)
(0 -0 3.05191e-05)
(0 -0 2.9868e-05)
(0 -0 2.92264e-05)
(0 -0 2.85914e-05)
(0 -0 2.79607e-05)
(0 -0 2.73348e-05)
(0 -0 2.67133e-05)
(0 -0 2.60981e-05)
(0 -0 2.549e-05)
(0 -0 2.48897e-05)
(0 -0 2.4302e-05)
(0 -0 2.37255e-05)
(0 -0 2.31614e-05)
(0 -0 2.26053e-05)
(0 -0 2.20527e-05)
(0 -0 2.1508e-05)
(0 -0 2.09668e-05)
(0 -0 2.04383e-05)
(0 -0 1.99047e-05)
(0 -0 1.93883e-05)
(0 -0 1.88302e-05)
(0 -0 1.83357e-05)
(0 -0 1.77064e-05)
(0 -0 1.72962e-05)
(0 -0 1.6488e-05)
(0 -0 1.62884e-05)
(0 -0 1.50727e-05)
(0 -0 1.53239e-05)
(0 -0 1.3339e-05)
(0 -0 1.43875e-05)
(0 -0 1.11882e-05)
(0 -0 1.22434e-05)
(0 -0 1.55616e-05)
(0 -0 -1.94882e-05)
(0 -0 7.87371e-05)
(0 -0 -6.09455e-05)
(0 -0 -3.33692e-05)
(0 -0 4.68583e-05)
(0 -0 4.76928e-05)
(0 -0 4.83301e-05)
(0 -0 4.87934e-05)
(0 -0 4.91123e-05)
(0 -0 4.93055e-05)
(0 -0 4.93856e-05)
(0 -0 4.93616e-05)
(0 -0 4.92404e-05)
(0 -0 4.90293e-05)
(0 -0 4.87368e-05)