/*--------------------------------*- C++ -*----------------------------------*\
| =========                 |                                                 |
| \\      /  F ield         | OpenFOAM: The Open Source CFD Toolbox           |
|  \\    /   O peration     | Version:  2412                                  |
|   \\  /    A nd           | Website:  www.openfoam.com                      |
|    \\/     M anipulation  |                                                 |
\*---------------------------------------------------------------------------*/
FoamFile
{
    version     2.0;
    format      ascii;
    arch        "LSB;label=32;scalar=64";
    class       volScalarField;
    location    "29";
    object      p;
}
// * * * * * * * * * * * * * * * * * * * * * * * * * * * * * * * * * * * * * //

dimensions      [0 2 -2 0 0 0 0];

internalField   nonuniform List<scalar> 
63420
(
0.000908659
0.000908922
0.000909758
0.000911049
0.000912779
0.000914934
0.000917496
0.000920452
0.000923791
0.000927502
0.000931577
0.000936008
0.000940789
0.000945916
0.000951384
0.000957188
0.000963327
0.000969797
0.000976596
0.000983722
0.000991174
0.000998951
0.00100705
0.00101548
0.00102423
0.0010333
0.00104271
0.00105244
0.00106251
0.00107291
0.00108365
0.00109473
0.00110616
0.00111795
0.00113008
0.00114257
0.00115543
0.00116865
0.00118224
0.0011962
0.00121055
0.00122527
0.00124038
0.00125587
0.00127177
0.00128806
0.00130475
0.00132184
0.00133935
0.00135727
0.00137561
0.00139438
0.00141357
0.00143319
0.00145325
0.000908598
0.000908861
0.000909697
0.000910987
0.000912716
0.000914869
0.000917429
0.000920383
0.000923719
0.000927428
0.000931499
0.000935927
0.000940705
0.000945828
0.000951291
0.00095709
0.000963224
0.000969688
0.000976481
0.000983601
0.000991046
0.000998816
0.00100691
0.00101533
0.00102407
0.00103313
0.00104253
0.00105225
0.0010623
0.00107269
0.00108342
0.00109449
0.00110591
0.00111768
0.0011298
0.00114227
0.00115511
0.00116831
0.00118188
0.00119582
0.00121014
0.00122484
0.00123992
0.00125539
0.00127126
0.00128751
0.00130417
0.00132124
0.00133871
0.00135659
0.00137489
0.00139361
0.00141275
0.00143233
0.00145234
0.000908477
0.00090874
0.000909574
0.000910863
0.000912589
0.000914739
0.000917296
0.000920245
0.000923577
0.000927279
0.000931345
0.000935766
0.000940536
0.000945651
0.000951105
0.000956895
0.000963018
0.000969472
0.000976253
0.00098336
0.000990791
0.000998546
0.00100662
0.00101502
0.00102375
0.00103279
0.00104217
0.00105187
0.0010619
0.00107227
0.00108297
0.00109402
0.0011054
0.00111714
0.00112923
0.00114167
0.00115447
0.00116763
0.00118116
0.00119506
0.00120933
0.00122398
0.00123901
0.00125443
0.00127023
0.00128643
0.00130303
0.00132002
0.00133742
0.00135522
0.00137344
0.00139207
0.00141113
0.0014306
0.0014505
0.000908295
0.000908558
0.00090939
0.000910676
0.000912399
0.000914544
0.000917095
0.000920039
0.000923363
0.000927057
0.000931113
0.000935524
0.000940283
0.000945386
0.000950827
0.000956603
0.00096271
0.000969147
0.00097591
0.000982998
0.000990409
0.000998142
0.0010062
0.00101457
0.00102327
0.00103229
0.00104163
0.0010513
0.0010613
0.00107163
0.00108229
0.0010933
0.00110464
0.00111633
0.00112837
0.00114076
0.00115351
0.00116661
0.00118008
0.00119392
0.00120812
0.0012227
0.00123765
0.00125299
0.00126871
0.00128481
0.00130131
0.0013182
0.00133549
0.00135318
0.00137128
0.00138978
0.00140869
0.00142802
0.00144777
0.000908054
0.000908315
0.000909145
0.000910428
0.000912145
0.000914285
0.000916828
0.000919763
0.000923077
0.000926761
0.000930805
0.000935202
0.000939947
0.000945033
0.000950456
0.000956213
0.0009623
0.000968715
0.000975454
0.000982517
0.0009899
0.000997604
0.00100563
0.00101397
0.00102263
0.00103161
0.00104092
0.00105054
0.0010605
0.00107078
0.00108139
0.00109234
0.00110363
0.00111526
0.00112724
0.00113956
0.00115223
0.00116526
0.00117865
0.0011924
0.00120651
0.00122099
0.00123584
0.00125107
0.00126667
0.00128266
0.00129903
0.00131578
0.00133293
0.00135047
0.0013684
0.00138673
0.00140547
0.0014246
0.00144414
0.000907752
0.000908012
0.00090884
0.000910118
0.000911829
0.000913961
0.000916495
0.000919419
0.000922721
0.000926391
0.00093042
0.0009348
0.000939526
0.000944592
0.000949994
0.000955727
0.000961788
0.000968175
0.000974885
0.000981916
0.000989266
0.000996933
0.00100492
0.00101322
0.00102184
0.00103077
0.00104002
0.0010496
0.0010595
0.00106972
0.00108027
0.00109115
0.00110237
0.00111393
0.00112582
0.00113806
0.00115064
0.00116358
0.00117686
0.0011905
0.0012045
0.00121887
0.00123359
0.00124869
0.00126415
0.00127998
0.00129619
0.00131278
0.00132975
0.0013471
0.00136483
0.00138295
0.00140146
0.00142036
0.00143964
0.00090739
0.00090765
0.000908473
0.000909746
0.00091145
0.000913572
0.000916096
0.000919008
0.000922295
0.000925948
0.000929959
0.000934319
0.000939023
0.000944064
0.00094944
0.000955144
0.000961175
0.000967529
0.000974204
0.000981196
0.000988506
0.00099613
0.00100407
0.00101232
0.00102088
0.00102976
0.00103896
0.00104847
0.0010583
0.00106845
0.00107893
0.00108973
0.00110086
0.00111233
0.00112413
0.00113627
0.00114874
0.00116156
0.00117473
0.00118824
0.00120211
0.00121633
0.00123091
0.00124584
0.00126113
0.00127679
0.00129281
0.0013092
0.00132596
0.00134308
0.00136058
0.00137845
0.00139669
0.00141531
0.00143429
0.00147381
0.00149508
0.00151726
0.00154039
0.00156453
0.00158974
0.00161608
0.00164363
0.00167245
0.00170264
0.00173427
0.00176744
0.00180225
0.00183882
0.00187726
0.00191771
0.00196031
0.00200522
0.0020526
0.00210264
0.00215555
0.00221155
0.00227089
0.00233384
0.00240069
0.00247178
0.00254746
0.00262813
0.00271423
0.00280624
0.0029047
0.00301017
0.00312329
0.00324475
0.00337528
0.00351563
0.0036666
0.0038289
0.00400317
0.00418978
0.00438867
0.0045991
0.00481934
0.00504648
0.0052768
0.00550662
0.00573265
0.00596147
0.00625732
0.00670797
0.00147287
0.00149414
0.00151631
0.00153944
0.00156358
0.00158879
0.00161513
0.00164267
0.00167149
0.00170167
0.0017333
0.00176646
0.00180126
0.00183782
0.00187625
0.00191668
0.00195925
0.00200413
0.00205147
0.00210147
0.00215432
0.00221025
0.00226951
0.00233235
0.00239907
0.00246999
0.00254546
0.00262588
0.00271167
0.00280328
0.00290124
0.00300609
0.00311843
0.00323889
0.00336815
0.00350687
0.00365573
0.00381532
0.00398605
0.00416805
0.00436092
0.00456349
0.00477348
0.00498729
0.00520036
0.00540816
0.00560688
0.00580225
0.00605433
0.00644398
0.00147098
0.00149226
0.00151443
0.00153755
0.00156168
0.00158688
0.00161322
0.00164075
0.00166957
0.00169974
0.00173135
0.0017645
0.00179928
0.00183581
0.00187421
0.0019146
0.00195713
0.00200195
0.00204922
0.00209913
0.00215187
0.00220766
0.00226675
0.00232938
0.00239583
0.00246643
0.00254151
0.00262143
0.00270659
0.00279743
0.00289442
0.00299805
0.00310884
0.00322733
0.00335408
0.00348958
0.00363429
0.00378848
0.0039522
0.00412502
0.00430588
0.00449269
0.00468205
0.00486899
0.00504726
0.00521053
0.0053542
0.00548251
0.00564315
0.00592309
0.00146817
0.00148943
0.00151159
0.00153471
0.00155883
0.00158402
0.00161035
0.00163787
0.00166667
0.00169682
0.00172841
0.00176153
0.00179628
0.00183278
0.00187112
0.00191145
0.00195391
0.00199863
0.00204579
0.00209555
0.00214812
0.00220369
0.00226251
0.00232481
0.00239086
0.00246096
0.00253542
0.00261457
0.00269879
0.00278844
0.00288394
0.00298571
0.00309415
0.00320968
0.00333264
0.0034633
0.00360176
0.00374789
0.00390112
0.00406026
0.0042232
0.00438655
0.00454518
0.00469207
0.00481845
0.00491522
0.00497649
0.00500762
0.00504106
0.00512789
0.00146443
0.00148569
0.00150784
0.00153095
0.00155506
0.00158025
0.00160656
0.00163408
0.00166286
0.001693
0.00172457
0.00175766
0.00179238
0.00182883
0.00186712
0.00190738
0.00194975
0.00199436
0.00204137
0.00209096
0.0021433
0.00219861
0.00225708
0.00231896
0.00238449
0.00245393
0.00252757
0.00260571
0.00268866
0.00277674
0.00287026
0.00296953
0.00307481
0.00318633
0.00330417
0.00342827
0.00355828
0.00369346
0.00383246
0.00397306
0.00411178
0.00424347
0.00436083
0.00445415
0.00451154
0.00452025
0.00447176
0.00437426
0.00424906
0.00403758
0.00145978
0.00148105
0.00150321
0.00152633
0.00155047
0.00157567
0.00160201
0.00162955
0.00165837
0.00168854
0.00172015
0.00175328
0.00178803
0.00182451
0.00186284
0.00190312
0.0019455
0.00199012
0.00203712
0.00208667
0.00213895
0.00219415
0.00225247
0.00231413
0.00237936
0.00244839
0.00252148
0.00259889
0.00268087
0.00276768
0.00285952
0.00295659
0.00305898
0.00316666
0.0032794
0.00339667
0.0035175
0.00364025
0.00376233
0.00387983
0.00398706
0.00407593
0.00413554
0.00415189
0.00410826
0.00398699
0.00377525
0.00348202
0.00312036
0.00250682
0.00145422
0.00147542
0.00149753
0.0015206
0.00154469
0.00156985
0.00159614
0.00162364
0.00165242
0.00168254
0.0017141
0.00174719
0.0017819
0.00181833
0.00185659
0.00189682
0.00193912
0.00198366
0.00203056
0.00207999
0.00213212
0.00218714
0.00224523
0.0023066
0.00237146
0.00244003
0.00251253
0.00258918
0.00267019
0.00275573
0.00284594
0.00294087
0.00304046
0.00314443
0.00325221
0.00336278
0.00347443
0.00358448
0.00368878
0.00378124
0.00385305
0.00389203
0.00388203
0.00380303
0.00363188
0.00334384
0.0029228
0.0023817
0.00168375
0.000545251
-0.0034656
-0.00352973
-0.00355212
-0.0035454
-0.00352054
-0.00348043
-0.00342687
-0.00336139
-0.00328519
-0.00320164
-0.00310965
-0.00301051
-0.00290531
-0.00279486
-0.00267996
-0.00256136
-0.0024398
-0.00231602
-0.00219073
-0.00206461
-0.00193834
-0.00181253
-0.00168781
-0.00156483
-0.00144413
-0.0013262
-0.00121148
-0.00110041
-0.000993363
-0.000890657
-0.000792568
-0.000699318
-0.00061108
-0.000527974
-0.000450076
-0.000377414
-0.000309975
-0.000247705
-0.000190513
-0.000138275
-9.08406e-05
-4.80311e-05
-9.64842e-06
2.4523e-05
5.47116e-05
8.11553e-05
0.000104097
0.000123782
0.00014045
0.000154346
-0.00353076
-0.00357569
-0.00358642
-0.00357263
-0.00354292
-0.00349951
-0.00344378
-0.00337699
-0.00330054
-0.003216
-0.00312363
-0.00302439
-0.00291919
-0.0028088
-0.00269395
-0.00257542
-0.00245389
-0.00233011
-0.00220478
-0.00207858
-0.00195217
-0.00182618
-0.00170123
-0.00157795
-0.00145694
-0.00133865
-0.00122355
-0.00111206
-0.00100457
-0.000901405
-0.000802843
-0.000709111
-0.000620386
-0.000536793
-0.000458411
-0.000385271
-0.000317364
-0.000254636
-0.000197
-0.000144335
-9.64885e-05
-5.32851e-05
-1.45267e-05
2.00019e-05
5.05294e-05
7.7294e-05
0.00010054
0.000120512
0.000137451
0.00015161
-0.00366053
-0.00366656
-0.00365406
-0.00362621
-0.0035867
-0.00353661
-0.00347651
-0.00340689
-0.00332931
-0.00324338
-0.0031504
-0.00305096
-0.00294579
-0.00283561
-0.00272072
-0.00260241
-0.00248102
-0.00235728
-0.00223191
-0.00210558
-0.00197895
-0.00185263
-0.00172725
-0.00160345
-0.00148183
-0.00136288
-0.00124704
-0.00113476
-0.00102642
-0.000922376
-0.000822904
-0.000728243
-0.000638578
-0.000554043
-0.000474723
-0.000400657
-0.000331839
-0.000268223
-0.000209724
-0.000156225
-0.000107578
-6.36064e-05
-2.41154e-05
1.11101e-05
4.22989e-05
6.96898e-05
9.35286e-05
0.000114062
0.000131532
0.000146207
-0.00386085
-0.00379632
-0.003753
-0.00370396
-0.00364956
-0.00358961
-0.00352302
-0.00344866
-0.00336935
-0.00328182
-0.00318812
-0.0030882
-0.00298302
-0.00287307
-0.00275868
-0.00264059
-0.00251939
-0.00239577
-0.0022704
-0.00214394
-0.00201704
-0.00189032
-0.00176438
-0.00163987
-0.00151742
-0.00139755
-0.0012807
-0.00116731
-0.00105779
-0.00095251
-0.000851759
-0.000755789
-0.000664796
-0.000578927
-0.000498276
-0.000422892
-0.000352779
-0.000287896
-0.000228166
-0.000173475
-0.000123681
-7.86097e-05
-3.80685e-05
-1.84328e-06
3.02945e-05
5.85847e-05
8.3275e-05
0.000104615
0.000122851
0.000138272
-0.00411561
-0.00396617
-0.00388136
-0.00380164
-0.00372724
-0.00365445
-0.00357881
-0.00349617
-0.00341638
-0.00332752
-0.00323296
-0.00313306
-0.00302805
-0.00291834
-0.00280438
-0.0026867
-0.00256589
-0.00244256
-0.00231732
-0.00219084
-0.00206375
-0.00193666
-0.00181019
-0.00168494
-0.00156159
-0.00144068
-0.00132268
-0.00120801
-0.00109712
-0.000990384
-0.000888112
-0.000790573
-0.000697977
-0.000610487
-0.00052821
-0.000451208
-0.000379494
-0.00031304
-0.000251776
-0.000195595
-0.00014436
-9.79041e-05
-5.60355e-05
-1.85433e-05
1.48003e-05
4.42354e-05
7.00113e-05
9.23805e-05
0.0001116
0.000127983
-0.00438472
-0.00417742
-0.00404169
-0.00392456
-0.00382302
-0.00373087
-0.00364308
-0.00356102
-0.00346855
-0.0033754
-0.00327941
-0.0031791
-0.00307434
-0.00296531
-0.00285225
-0.00273556
-0.0026157
-0.00249321
-0.00236865
-0.00224264
-0.00211582
-0.00198878
-0.00186212
-0.00173645
-0.00161242
-0.00149063
-0.00137157
-0.00125569
-0.00114342
-0.00103518
-0.000931298
-0.000832059
-0.000737698
-0.000648394
-0.000564274
-0.000485415
-0.000411847
-0.000343555
-0.000280479
-0.000222527
-0.000169567
-0.00012144
-7.79611e-05
-3.89235e-05
-4.10247e-06
2.67406e-05
5.3855e-05
7.74957e-05
9.79364e-05
0.00011551
-0.0046439
-0.00444419
-0.0042596
-0.00409545
-0.00395654
-0.00383446
-0.00372525
-0.00362916
-0.00353164
-0.00343456
-0.00333582
-0.00323417
-0.00312913
-0.00302047
-0.00290815
-0.00279235
-0.0026734
-0.00255172
-0.0024278
-0.00230222
-0.00217557
-0.00204846
-0.00192147
-0.00179518
-0.00167027
-0.00154735
-0.00142694
-0.00130954
-0.00119559
-0.00108553
-0.000979724
-0.000878474
-0.000782039
-0.000690623
-0.000604373
-0.000523387
-0.000447709
-0.000377342
-0.000312238
-0.000252316
-0.000197453
-0.000147498
-0.000102272
-6.15705e-05
-2.51724e-05
7.15984e-06
3.5675e-05
6.063e-05
8.231e-05
0.000101048
0.000165725
0.000174779
0.000181827
0.000187056
0.0001906
0.000192595
0.000193184
0.000192506
0.000190698
0.000187895
0.00018423
0.000179831
0.00017482
0.000169313
0.000163416
0.000157228
0.00015084
0.000144332
0.000137773
0.000131226
0.000124742
0.000118364
0.000112128
0.000106063
0.000100189
9.45236e-05
8.90775e-05
8.38576e-05
7.88675e-05
7.41078e-05
6.95768e-05
6.5271e-05
6.11857e-05
5.7315e-05
5.36525e-05
5.01911e-05
4.69237e-05
4.38427e-05
4.09406e-05
3.82099e-05
3.56431e-05
3.3232e-05
3.09708e-05
2.8847e-05
2.68591e-05
2.50019e-05
2.32576e-05
2.16263e-05
2.01015e-05
1.86757e-05
1.7343e-05
1.60977e-05
1.49346e-05
1.38485e-05
1.28347e-05
1.18887e-05
1.10064e-05
1.01837e-05
9.41691e-06
8.70253e-06
8.03725e-06
7.41796e-06
6.84173e-06
6.30581e-06
5.80762e-06
5.34473e-06
4.91486e-06
4.51587e-06
4.14576e-06
3.80264e-06
3.48475e-06
3.19041e-06
2.91808e-06
2.66629e-06
2.43371e-06
2.21902e-06
2.02108e-06
1.83866e-06
1.67093e-06
1.51651e-06
1.37515e-06
1.24482e-06
1.12659e-06
1.01662e-06
9.19081e-07
8.25582e-07
7.47439e-07
6.65887e-07
6.0745e-07
5.32004e-07
4.95792e-07
4.18596e-07
4.09836e-07
3.20886e-07
3.47218e-07
2.35283e-07
3.05016e-07
1.59909e-07
2.78823e-07
9.51053e-08
2.63071e-07
4.28e-08
2.52654e-07
3.49209e-09
2.46287e-07
-2.77059e-08
2.51267e-07
-6.52322e-08
2.86098e-07
-1.34439e-07
3.80212e-07
-2.69705e-07
5.69646e-07
-5.09687e-07
8.86654e-07
0.000163271
0.00017243
0.000179592
0.000184959
0.000188645
0.00019078
0.000191504
0.000190955
0.00018927
0.000186583
0.000183028
0.000178731
0.000173815
0.000168396
0.000162581
0.00015647
0.000150152
0.000143707
0.000137208
0.000130714
0.000124279
0.000117946
0.000111751
0.000105723
9.98826e-05
9.42475e-05
8.88288e-05
8.36337e-05
7.8666e-05
7.39265e-05
6.94137e-05
6.51243e-05
6.10539e-05
5.71966e-05
5.35461e-05
5.00956e-05
4.68379e-05
4.37658e-05
4.08717e-05
3.81481e-05
3.55878e-05
3.31824e-05
3.09263e-05
2.88072e-05
2.68234e-05
2.49699e-05
2.32289e-05
2.16005e-05
2.00784e-05
1.86549e-05
1.73244e-05
1.60811e-05
1.49197e-05
1.38351e-05
1.28227e-05
1.1878e-05
1.09968e-05
1.01751e-05
9.40922e-06
8.69565e-06
8.0311e-06
7.41246e-06
6.83681e-06
6.30142e-06
5.80369e-06
5.34122e-06
4.91173e-06
4.51307e-06
4.14326e-06
3.80041e-06
3.48275e-06
3.18863e-06
2.91649e-06
2.66488e-06
2.43245e-06
2.21789e-06
2.02008e-06
1.83777e-06
1.67013e-06
1.51581e-06
1.37452e-06
1.24426e-06
1.12609e-06
1.01618e-06
9.18691e-07
8.25239e-07
7.47134e-07
6.65619e-07
6.0721e-07
5.31795e-07
4.95602e-07
4.18436e-07
4.09687e-07
3.20767e-07
3.47102e-07
2.35193e-07
3.04922e-07
1.59841e-07
2.78749e-07
9.50549e-08
2.63012e-07
4.27625e-08
2.52604e-07
3.46817e-09
2.46242e-07
-2.77155e-08
2.51215e-07
-6.52208e-08
2.8603e-07
-1.344e-07
3.80129e-07
-2.69654e-07
5.69575e-07
-5.09634e-07
8.86624e-07
0.000158392
0.000167768
0.000175161
0.000180804
0.000184772
0.000187183
0.000188173
0.00018788
0.000186437
0.00018398
0.00018064
0.000176545
0.000171817
0.000166573
0.000160921
0.00015496
0.000148781
0.000142464
0.000136082
0.000129695
0.000123358
0.000117114
0.000111
0.000105045
9.92717e-05
9.3697e-05
8.83329e-05
8.31872e-05
7.8264e-05
7.35647e-05
6.90882e-05
6.48316e-05
6.07907e-05
5.69601e-05
5.33337e-05
4.99049e-05
4.66668e-05
4.36123e-05
4.07341e-05
3.80247e-05
3.54772e-05
3.30833e-05
3.08375e-05
2.87276e-05
2.6752e-05
2.49059e-05
2.31715e-05
2.15491e-05
2.00322e-05
1.86135e-05
1.72873e-05
1.60478e-05
1.48898e-05
1.38084e-05
1.27988e-05
1.18566e-05
1.09776e-05
1.01579e-05
9.39383e-06
8.68189e-06
8.01879e-06
7.40145e-06
6.82697e-06
6.29262e-06
5.79584e-06
5.3342e-06
4.90546e-06
4.50747e-06
4.13826e-06
3.79595e-06
3.47876e-06
3.18507e-06
2.91332e-06
2.66204e-06
2.42992e-06
2.21564e-06
2.01808e-06
1.83599e-06
1.66855e-06
1.5144e-06
1.37326e-06
1.24315e-06
1.1251e-06
1.0153e-06
9.17909e-07
8.24549e-07
7.46517e-07
6.65083e-07
6.06724e-07
5.31377e-07
4.95219e-07
4.18114e-07
4.09386e-07
3.20528e-07
3.46866e-07
2.35014e-07
3.04733e-07
1.59704e-07
2.78599e-07
9.49557e-08
2.62896e-07
4.26878e-08
2.52505e-07
3.4177e-09
2.46155e-07
-2.77405e-08
2.51117e-07
-6.52031e-08
2.85896e-07
-1.34323e-07
3.79953e-07
-2.69537e-07
5.69412e-07
-5.09506e-07
8.86558e-07
0.000151149
0.000160861
0.000168617
0.000174672
0.000179056
0.000181872
0.000183253
0.000183334
0.000182247
0.000180126
0.000177103
0.000173304
0.000168854
0.000163868
0.000158456
0.000152717
0.000146743
0.000140615
0.000134406
0.000128178
0.000121986
0.000115874
0.00010988
0.000104035
9.83607e-05
9.28758e-05
8.75929e-05
8.25207e-05
7.76638e-05
7.30245e-05
6.86021e-05
6.43944e-05
6.03976e-05
5.66068e-05
5.30163e-05
4.96199e-05
4.6411e-05
4.33828e-05
4.05282e-05
3.78402e-05
3.53117e-05
3.2935e-05
3.07045e-05
2.86084e-05
2.66452e-05
2.48101e-05
2.30855e-05
2.1472e-05
1.99631e-05
1.85515e-05
1.72317e-05
1.59979e-05
1.48451e-05
1.37683e-05
1.27629e-05
1.18244e-05
1.09488e-05
1.01321e-05
9.37078e-06
8.66126e-06
8.00034e-06
7.38496e-06
6.81223e-06
6.27944e-06
5.78406e-06
5.32368e-06
4.89606e-06
4.49908e-06
4.13076e-06
3.78925e-06
3.47279e-06
3.17973e-06
2.90855e-06
2.6578e-06
2.42614e-06
2.21227e-06
2.01507e-06
1.83332e-06
1.66617e-06
1.51228e-06
1.37138e-06
1.24147e-06
1.12361e-06
1.01398e-06
9.16735e-07
8.23513e-07
7.45593e-07
6.64275e-07
6.05996e-07
5.30748e-07
4.94645e-07
4.17632e-07
4.08935e-07
3.20166e-07
3.46512e-07
2.34742e-07
3.04451e-07
1.59499e-07
2.78375e-07
9.48058e-08
2.62721e-07
4.25752e-08
2.5236e-07
3.34004e-09
2.46028e-07
-2.77795e-08
2.50973e-07
-6.51798e-08
2.85701e-07
-1.34213e-07
3.79696e-07
-2.6937e-07
5.69173e-07
-5.0932e-07
8.86457e-07
0.000141642
0.000151821
0.000160081
0.00016668
0.000171604
0.000174944
0.00017683
0.000177394
0.000176767
0.00017508
0.000172466
0.000169053
0.000164963
0.000160313
0.000155214
0.000149764
0.000144058
0.000138177
0.000132195
0.000126176
0.000120174
0.000114236
0.000108401
0.000102699
9.71556e-05
9.17891e-05
8.66134e-05
8.16381e-05
7.68689e-05
7.23087e-05
6.79579e-05
6.38148e-05
5.98763e-05
5.61381e-05
5.25952e-05
4.92416e-05
4.60714e-05
4.3078e-05
4.02548e-05
3.7595e-05
3.50919e-05
3.27379e-05
3.05279e-05
2.845e-05
2.65032e-05
2.46826e-05
2.29713e-05
2.13695e-05
1.98711e-05
1.84691e-05
1.71577e-05
1.59316e-05
1.47857e-05
1.37151e-05
1.27151e-05
1.17817e-05
1.09105e-05
1.00979e-05
9.34009e-06
8.63381e-06
7.97579e-06
7.363e-06
6.79259e-06
6.26189e-06
5.76837e-06
5.30967e-06
4.88354e-06
4.4879e-06
4.12078e-06
3.78033e-06
3.46483e-06
3.17263e-06
2.90221e-06
2.65214e-06
2.42109e-06
2.20777e-06
2.01107e-06
1.82975e-06
1.663e-06
1.50946e-06
1.36886e-06
1.23924e-06
1.12162e-06
1.01222e-06
9.15168e-07
8.22131e-07
7.4436e-07
6.63195e-07
6.05026e-07
5.29908e-07
4.93882e-07
4.16986e-07
4.08335e-07
3.19679e-07
3.46043e-07
2.34375e-07
3.04079e-07
1.59222e-07
2.78084e-07
9.45985e-08
2.62496e-07
4.2417e-08
2.52177e-07
3.22717e-09
2.45868e-07
-2.78411e-08
2.50792e-07
-6.51604e-08
2.85454e-07
-1.34082e-07
3.79374e-07
-2.69169e-07
5.6888e-07
-5.09102e-07
8.86342e-07
0.000129996
0.000140798
0.000149714
0.000156979
0.000162554
0.000166523
0.000169015
0.000170157
0.000170081
0.000168917
0.000166796
0.000163847
0.000160193
0.000155951
0.000151231
0.000146134
0.000140755
0.000135175
0.000129471
0.000123706
0.000117938
0.000112213
0.000106573
0.000101048
9.56648e-05
9.0444e-05
8.54005e-05
8.05447e-05
7.58837e-05
7.14213e-05
6.71588e-05
6.30956e-05
5.92292e-05
5.55562e-05
5.20721e-05
4.87717e-05
4.56494e-05
4.26992e-05
3.99149e-05
3.72901e-05
3.48184e-05
3.24926e-05
3.03079e-05
2.82528e-05
2.63263e-05
2.45239e-05
2.28289e-05
2.12418e-05
1.97566e-05
1.83663e-05
1.70655e-05
1.5849e-05
1.47116e-05
1.36486e-05
1.26556e-05
1.17283e-05
1.08627e-05
1.00551e-05
9.30183e-06
8.59957e-06
7.94516e-06
7.3356e-06
6.7681e-06
6.24e-06
5.74881e-06
5.29218e-06
4.86791e-06
4.47394e-06
4.10831e-06
3.7692e-06
3.45489e-06
3.16376e-06
2.8943e-06
2.64508e-06
2.4148e-06
2.20216e-06
2.00607e-06
1.8253e-06
1.65903e-06
1.50593e-06
1.36572e-06
1.23645e-06
1.11914e-06
1.01002e-06
9.13211e-07
8.20403e-07
7.42819e-07
6.61846e-07
6.03814e-07
5.2886e-07
4.92927e-07
4.16181e-07
4.07584e-07
3.19071e-07
3.45453e-07
2.33918e-07
3.03612e-07
1.58878e-07
2.77719e-07
9.43416e-08
2.62212e-07
4.22223e-08
2.51947e-07
3.08846e-09
2.45666e-07
-2.79158e-08
2.50567e-07
-6.51351e-08
2.85145e-07
-1.33918e-07
3.78971e-07
-2.68916e-07
5.68507e-07
-5.08819e-07
8.8616e-07
0.000116322
0.000127958
0.000137702
0.000145744
0.000152064
0.000156751
0.000159932
0.000161734
0.000162286
0.00016172
0.000160165
0.000157751
0.0001546
0.000150829
0.000146549
0.000141862
0.000136863
0.000131635
0.000126255
0.000120789
0.000115294
0.00010982
0.000104408
9.90908e-05
9.38972e-05
8.88484e-05
8.39607e-05
7.92462e-05
7.47131e-05
7.03664e-05
6.62086e-05
6.22399e-05
5.84591e-05
5.48634e-05
5.14492e-05
4.82118e-05
4.51464e-05
4.22475e-05
3.95095e-05
3.69263e-05
3.4492e-05
3.21998e-05
3.00452e-05
2.80172e-05
2.6115e-05
2.43342e-05
2.26588e-05
2.10892e-05
1.96196e-05
1.82434e-05
1.69553e-05
1.57501e-05
1.46229e-05
1.35691e-05
1.25844e-05
1.16645e-05
1.08056e-05
1.00039e-05
9.25602e-06
8.55858e-06
7.90849e-06
7.30281e-06
6.73877e-06
6.21378e-06
5.72537e-06
5.27124e-06
4.8492e-06
4.45722e-06
4.09338e-06
3.75587e-06
3.44298e-06
3.15313e-06
2.88481e-06
2.63662e-06
2.40725e-06
2.19543e-06
2.00007e-06
1.81996e-06
1.65428e-06
1.5017e-06
1.36196e-06
1.2331e-06
1.11616e-06
1.00738e-06
9.10861e-07
8.18333e-07
7.40967e-07
6.60232e-07
6.02352e-07
5.27613e-07
4.91768e-07
4.15235e-07
4.06659e-07
3.18373e-07
3.44706e-07
2.33417e-07
3.02996e-07
1.58532e-07
2.77207e-07
9.41158e-08
2.61783e-07
4.2083e-08
2.51575e-07
3.02098e-09
2.45323e-07
-2.7904e-08
2.50192e-07
-6.49947e-08
2.84652e-07
-1.33582e-07
3.78316e-07
-2.68398e-07
5.67788e-07
-5.08145e-07
8.85528e-07
0.000100326
0.000113146
0.000123935
0.000132867
0.000140023
0.000145514
0.000149468
0.00015201
0.000153272
0.000153381
0.00015247
0.000150665
0.000148088
0.000144857
0.000141083
0.000136869
0.000132308
0.000127488
0.000122484
0.000117364
0.000112187
0.000107005
0.000101859
9.67854e-05
9.18133e-05
8.69659e-05
8.22611e-05
7.77124e-05
7.33296e-05
6.9119e-05
6.50844e-05
6.12272e-05
5.75472e-05
5.40427e-05
5.07108e-05
4.7548e-05
4.45498e-05
4.17116e-05
3.90282e-05
3.64942e-05
3.41043e-05
3.18519e-05
2.9733e-05
2.77372e-05
2.58637e-05
2.41086e-05
2.24564e-05
2.09075e-05
1.94566e-05
1.80972e-05
1.6824e-05
1.56324e-05
1.45173e-05
1.34745e-05
1.24995e-05
1.15885e-05
1.07375e-05
9.94294e-06
9.20143e-06
8.50972e-06
7.86477e-06
7.2637e-06
6.7038e-06
6.18251e-06
5.69742e-06
5.24625e-06
4.82688e-06
4.43728e-06
4.07557e-06
3.73996e-06
3.42878e-06
3.14045e-06
2.87349e-06
2.62652e-06
2.39825e-06
2.1874e-06
1.99292e-06
1.81358e-06
1.6486e-06
1.49665e-06
1.35746e-06
1.22911e-06
1.11261e-06
1.00423e-06
9.0805e-07
8.15864e-07
7.38746e-07
6.58314e-07
6.00591e-07
5.26143e-07
4.90357e-07
4.14139e-07
4.05508e-07
3.17595e-07
3.43742e-07
2.32904e-07
3.02159e-07
1.58236e-07
2.76462e-07
9.3991e-08
2.61113e-07
4.20815e-08
2.50961e-07
3.11336e-09
2.44739e-07
-2.77133e-08
2.49564e-07
-6.46354e-08
2.83852e-07
-1.32934e-07
3.77235e-07
-2.67406e-07
5.66456e-07
-5.06756e-07
8.84097e-07
8.30723e-05
9.68965e-05
0.000108665
0.000118517
0.000126562
0.000132918
0.000137708
0.000141058
0.000143096
0.00014395
0.000143749
0.000142618
0.000140681
0.000138053
0.000134846
0.000131162
0.000127096
0.000122734
0.000118156
0.000113429
0.000108614
0.000103763
9.8921e-05
9.41253e-05
8.94066e-05
8.47899e-05
8.02949e-05
7.59367e-05
7.17267e-05
6.76729e-05
6.37802e-05
6.00517e-05
5.64881e-05
5.30889e-05
4.98524e-05
4.67756e-05
4.38553e-05
4.10874e-05
3.84674e-05
3.59906e-05
3.3652e-05
3.14459e-05
2.93685e-05
2.74101e-05
2.55701e-05
2.38449e-05
2.22198e-05
2.06951e-05
1.92659e-05
1.7926e-05
1.66705e-05
1.54946e-05
1.43938e-05
1.33637e-05
1.24002e-05
1.14995e-05
1.06577e-05
9.87152e-06
9.13749e-06
8.45249e-06
7.81356e-06
7.21788e-06
6.66282e-06
6.14587e-06
5.66466e-06
5.21697e-06
4.80071e-06
4.4139e-06
4.05468e-06
3.7213e-06
3.41212e-06
3.12557e-06
2.86022e-06
2.61468e-06
2.38768e-06
2.17798e-06
1.98452e-06
1.8061e-06
1.64193e-06
1.49071e-06
1.35218e-06
1.22442e-06
1.10843e-06
1.00053e-06
9.04754e-07
8.12956e-07
7.3615e-07
6.56045e-07
5.98543e-07
5.24388e-07
4.88738e-07
4.12802e-07
4.0422e-07
3.16599e-07
3.42708e-07
2.32181e-07
3.01317e-07
1.57726e-07
2.75772e-07
9.36429e-08
2.60543e-07
4.18504e-08
2.50479e-07
2.97658e-09
2.44305e-07
-2.77477e-08
2.49098e-07
-6.45064e-08
2.83241e-07
-1.32555e-07
3.76418e-07
-2.66791e-07
5.65561e-07
-5.05943e-07
8.83409e-07
6.50139e-05
7.97511e-05
9.24489e-05
0.000103218
0.000112164
0.000119404
0.000125058
0.000129247
0.000132096
0.000133732
0.00013428
0.000133865
0.000132608
0.000130624
0.000128024
0.000124909
0.000121376
0.000117511
0.000113393
0.000109092
0.000104671
0.000100182
9.56722e-05
9.11806e-05
8.67397e-05
8.23764e-05
7.81121e-05
7.39638e-05
6.99445e-05
6.60637e-05
6.23281e-05
5.87418e-05
5.53072e-05
5.20249e-05
4.8894e-05
4.5913e-05
4.30792e-05
4.03894e-05
3.784e-05
3.54268e-05
3.31455e-05
3.0991e-05
2.896e-05
2.70433e-05
2.52407e-05
2.3549e-05
2.19542e-05
2.04566e-05
1.90518e-05
1.77338e-05
1.6498e-05
1.53398e-05
1.42549e-05
1.32391e-05
1.22886e-05
1.13994e-05
1.05681e-05
9.79119e-06
9.06555e-06
8.38808e-06
7.75592e-06
7.16631e-06
6.61669e-06
6.10461e-06
5.62776e-06
5.18399e-06
4.77123e-06
4.38756e-06
4.03114e-06
3.70028e-06
3.39334e-06
3.10881e-06
2.84526e-06
2.60132e-06
2.37577e-06
2.16736e-06
1.97505e-06
1.79766e-06
1.63442e-06
1.48402e-06
1.34622e-06
1.21912e-06
1.10372e-06
9.96347e-07
9.01038e-07
8.09673e-07
7.33224e-07
6.53478e-07
5.96243e-07
5.22394e-07
4.86929e-07
4.11269e-07
4.02798e-07
3.15436e-07
3.41588e-07
2.31309e-07
3.00432e-07
1.57075e-07
2.75076e-07
9.3157e-08
2.6e-07
4.14833e-08
2.50048e-07
2.70634e-09
2.43936e-07
-2.79122e-08
2.48707e-07
-6.45076e-08
2.82717e-07
-1.32318e-07
3.7572e-07
-2.66362e-07
5.64865e-07
-5.05407e-07
8.83134e-07
4.63132e-05
6.19252e-05
7.55209e-05
8.7191e-05
9.70343e-05
0.000105162
0.000111689
0.000116731
0.000120411
0.000122852
0.000124175
0.000124504
0.000123956
0.000122647
0.000120684
0.00011817
0.000115201
0.000111863
0.000108235
0.000104389
0.000100389
9.62879e-05
9.2135e-05
8.79708e-05
8.38296e-05
7.97401e-05
7.57255e-05
7.18047e-05
6.79924e-05
6.42997e-05
6.07349e-05
5.73038e-05
5.40098e-05
5.0855e-05
4.78398e-05
4.49634e-05
4.22243e-05
3.96201e-05
3.71481e-05
3.48046e-05
3.25863e-05
3.04885e-05
2.85085e-05
2.66377e-05
2.48763e-05
2.32217e-05
2.16602e-05
2.01926e-05
1.88147e-05
1.75209e-05
1.63068e-05
1.51682e-05
1.41009e-05
1.3101e-05
1.21647e-05
1.12884e-05
1.04686e-05
9.70205e-06
8.98571e-06
8.3166e-06
7.69193e-06
7.10905e-06
6.56546e-06
6.05878e-06
5.58678e-06
5.14735e-06
4.73848e-06
4.35828e-06
4.00499e-06
3.67691e-06
3.37247e-06
3.09017e-06
2.82862e-06
2.58647e-06
2.36252e-06
2.15554e-06
1.96451e-06
1.78827e-06
1.62605e-06
1.47658e-06
1.33959e-06
1.21323e-06
1.09848e-06
9.91696e-07
8.96901e-07
8.06016e-07
7.29968e-07
6.50618e-07
5.93683e-07
5.20173e-07
4.84917e-07
4.0956e-07
4.01215e-07
3.1414e-07
3.40341e-07
2.30337e-07
2.99447e-07
1.5635e-07
2.74302e-07
9.26162e-08
2.59396e-07
4.10742e-08
2.4957e-07
2.40217e-09
2.4353e-07
-2.81044e-08
2.48285e-07
-6.45277e-08
2.82157e-07
-1.32082e-07
3.74968e-07
-2.65904e-07
5.64095e-07
-5.04811e-07
8.82871e-07
2.7211e-05
4.36564e-05
5.8111e-05
7.06526e-05
8.1372e-05
9.0374e-05
9.77673e-05
0.000103664
0.000108179
0.000111434
0.000113546
0.000114635
0.000114816
0.000114201
0.000112898
0.000111009
0.000108626
0.000105838
0.000102725
9.93575e-05
9.58002e-05
9.21093e-05
8.83343e-05
8.45174e-05
8.06949e-05
7.68971e-05
7.31491e-05
6.94716e-05
6.58809e-05
6.239e-05
5.90087e-05
5.57444e-05
5.26019e-05
4.95845e-05
4.66939e-05
4.39306e-05
4.12938e-05
3.87823e-05
3.6394e-05
3.41262e-05
3.19762e-05
2.99399e-05
2.80153e-05
2.61944e-05
2.44779e-05
2.28636e-05
2.13385e-05
1.99035e-05
1.8555e-05
1.72877e-05
1.60974e-05
1.49802e-05
1.39322e-05
1.29497e-05
1.20289e-05
1.11666e-05
1.03594e-05
9.60426e-06
8.89811e-06
8.23815e-06
7.6217e-06
7.04619e-06
6.5092e-06
6.00845e-06
5.54177e-06
5.10709e-06
4.70249e-06
4.32611e-06
3.97624e-06
3.65122e-06
3.34952e-06
3.06968e-06
2.81032e-06
2.57014e-06
2.34795e-06
2.14255e-06
1.95292e-06
1.77794e-06
1.61685e-06
1.46838e-06
1.3323e-06
1.20674e-06
1.0927e-06
9.86575e-07
8.92347e-07
8.01989e-07
7.26383e-07
6.47468e-07
5.90865e-07
5.17726e-07
4.827e-07
4.07679e-07
3.9947e-07
3.12714e-07
3.38964e-07
2.29269e-07
2.98358e-07
1.55557e-07
2.73443e-07
9.20281e-08
2.58722e-07
4.06319e-08
2.49036e-07
2.07327e-09
2.43079e-07
-2.83152e-08
2.47824e-07
-6.45573e-08
2.81551e-07
-1.31836e-07
3.74147e-07
-2.65396e-07
5.63224e-07
-5.0412e-07
8.82556e-07
7.94518e-06
2.51691e-05
4.0432e-05
5.38026e-05
6.53639e-05
7.52134e-05
8.34535e-05
9.019e-05
9.55341e-05
9.96e-05
0.000102503
0.000104357
0.000105275
0.000105367
0.000104737
0.000103486
0.000101707