/*--------------------------------*- C++ -*----------------------------------*\
| =========                 |                                                 |
| \\      /  F ield         | OpenFOAM: The Open Source CFD Toolbox           |
|  \\    /   O peration     | Version:  2412                                  |
|   \\  /    A nd           | Website:  www.openfoam.com                      |
|    \\/     M anipulation  |                                                 |
\*---------------------------------------------------------------------------*/
FoamFile
{
    version     2.0;
    format      ascii;
    arch        "LSB;label=32;scalar=64";
    class       surfaceScalarField;
    location    "29";
    object      phi;
}
// * * * * * * * * * * * * * * * * * * * * * * * * * * * * * * * * * * * * * //

dimensions      [0 3 -1 0 0 0 0];

oriented        oriented;

internalField   nonuniform List<scalar> 
126304
(
0.00505063
1.30589e-07
2.07305e-11
0.00505025
3.80754e-07
6.24765e-11
0.00504963
6.17445e-07
1.00336e-10
0.00504879
8.42304e-07
1.32271e-10
0.00504773
1.05704e-06
1.56452e-10
0.00504647
1.26309e-06
1.72698e-10
0.005045
1.4616e-06
1.82826e-10
0.00504335
1.65351e-06
1.8971e-10
0.00504151
1.83999e-06
1.95637e-10
0.00503949
2.02313e-06
2.00295e-10
0.00503728
2.2067e-06
1.99352e-10
0.00503488
2.39648e-06
1.84129e-10
0.00503228
2.59968e-06
1.42866e-10
0.00502946
2.82352e-06
6.39802e-11
0.00502639
3.07334e-06
-5.98621e-11
0.00502304
3.3508e-06
-2.28156e-10
0.00501938
3.65287e-06
-4.30516e-10
0.00501541
3.97192e-06
-6.46891e-10
0.00501112
4.29685e-06
-8.50144e-10
0.0050065
4.61492e-06
-1.0106e-09
0.00500159
4.91384e-06
-1.10123e-09
0.00499641
5.18352e-06
-1.10203e-09
0.00499099
5.41729e-06
-1.00244e-09
0.00498538
5.61236e-06
-8.02115e-10
0.00497961
5.76964e-06
-5.10351e-10
0.00497372
5.89306e-06
-1.44127e-10
0.00496773
5.98864e-06
2.74817e-10
0.00496166
6.06346e-06
7.23156e-10
0.00495554
6.12483e-06
1.17851e-09
0.00494936
6.17956e-06
1.62126e-09
0.00494312
6.23351e-06
2.03574e-09
0.00493683
6.29138e-06
2.4107e-09
0.00493047
6.35666e-06
2.73916e-09
0.00492403
6.43169e-06
3.01795e-09
0.00491751
6.51784e-06
3.24691e-09
0.00491089
6.61571e-06
3.42837e-09
0.00490416
6.72533e-06
3.56626e-09
0.00489731
6.84632e-06
3.66544e-09
0.00489033
6.97807e-06
3.73101e-09
0.00488321
7.11985e-06
3.76808e-09
0.00487593
7.27088e-06
3.78151e-09
0.0048685
7.43043e-06
3.77574e-09
0.0048609
7.59783e-06
3.75458e-09
0.00485312
7.77247e-06
3.72123e-09
0.00484516
7.95386e-06
3.67836e-09
0.00483702
8.14158e-06
3.62809e-09
0.00482868
8.33529e-06
3.57208e-09
0.00482014
8.53475e-06
3.5117e-09
0.0048114
8.73978e-06
3.44798e-09
0.00480245
8.95027e-06
3.38171e-09
0.00479328
9.16623e-06
3.31344e-09
0.00478388
9.38786e-06
3.24354e-09
0.00477427
9.61594e-06
3.17235e-09
0.00476441
9.85288e-06
3.10004e-09
1.01056e-05
0.0047543
3.02577e-09
0.00505063
2.61113e-07
0.00505025
7.61299e-07
0.00504963
1.23456e-06
0.00504879
1.68415e-06
0.00504773
2.11349e-06
0.00504647
2.52545e-06
0.00504501
2.92232e-06
0.00504336
3.30601e-06
0.00504152
3.67882e-06
0.00503949
4.04493e-06
0.00503729
4.41187e-06
0.00503489
4.79117e-06
0.0050323
5.19719e-06
0.00502948
5.64435e-06
0.00502641
6.1433e-06
0.00502306
6.69739e-06
0.00501941
7.30062e-06
0.00501545
7.93781e-06
0.00501116
8.58683e-06
0.00500655
9.22231e-06
0.00500164
9.81972e-06
0.00499647
1.03589e-05
0.00499106
1.08266e-05
0.00498545
1.12171e-05
0.00497969
1.15322e-05
0.0049738
1.17797e-05
0.00496782
1.19715e-05
0.00496176
1.21219e-05
0.00495564
1.22453e-05
0.00494947
1.23553e-05
0.00494324
1.24636e-05
0.00493695
1.25796e-05
0.0049306
1.27102e-05
0.00492417
1.28602e-05
0.00491765
1.30323e-05
0.00491104
1.32277e-05
0.00490432
1.34465e-05
0.00489748
1.36879e-05
0.0048905
1.39507e-05
0.00488339
1.42336e-05
0.00487613
1.45348e-05
0.0048687
1.48531e-05
0.00486112
1.5187e-05
0.00485335
1.55353e-05
0.00484541
1.58971e-05
0.00483728
1.62714e-05
0.00482896
1.66578e-05
0.00482044
1.70555e-05
0.00481171
1.74643e-05
0.00480278
1.7884e-05
0.00479363
1.83145e-05
0.00478426
1.87562e-05
0.00477467
1.92107e-05
0.00476484
1.96824e-05
2.0185e-05
0.00475476
0.00505063
3.91464e-07
0.00505025
1.1413e-06
0.00504963
1.85081e-06
0.00504879
2.5248e-06
0.00504773
3.16843e-06
0.00504647
3.786e-06
0.00504502
4.38093e-06
0.00504337
4.95609e-06
0.00504153
5.51492e-06
0.00503951
6.06368e-06
0.00503731
6.61362e-06
0.00503492
7.18192e-06
0.00503233
7.79008e-06
0.00502951
8.45967e-06
0.00502645
9.20665e-06
0.00502311
1.00361e-05
0.00501947
1.09391e-05
0.00501551
1.1893e-05
0.00501124
1.28649e-05
0.00500664
1.38168e-05
0.00500175
1.4712e-05
0.00499659
1.55204e-05
0.00499119
1.62219e-05
0.0049856
1.68081e-05
0.00497985
1.72815e-05
0.00497398
1.76537e-05
0.00496801
1.79424e-05
0.00496196
1.81688e-05
0.00495585
1.83546e-05
0.00494969
1.85201e-05
0.00494347
1.86827e-05
0.00493719
1.88565e-05
0.00493085
1.9052e-05
0.00492443
1.92763e-05
0.00491793
1.95334e-05
0.00491133
1.98253e-05
0.00490463
2.0152e-05
0.0048978
2.05126e-05
0.00489085
2.09051e-05
0.00488376
2.13275e-05
0.00487651
2.17774e-05
0.00486911
2.22527e-05
0.00486155
2.27513e-05
0.00485381
2.32715e-05
0.0048459
2.38117e-05
0.0048378
2.43707e-05
0.00482951
2.49475e-05
0.00482102
2.55413e-05
0.00481234
2.61516e-05
0.00480344
2.6778e-05
0.00479434
2.74204e-05
0.00478501
2.80793e-05
0.00477547
2.87567e-05
0.00476569
2.94591e-05
3.0205e-05
0.00475567
0.00505063
5.2156e-07
0.00505025
1.52049e-06
0.00504963
2.46577e-06
0.00504879
3.36368e-06
0.00504774
4.22112e-06
0.00504648
5.04384e-06
0.00504503
5.83638e-06
0.00504338
6.60255e-06
0.00504155
7.34696e-06
0.00503954
8.07787e-06
0.00503734
8.81022e-06
0.00503495
9.56678e-06
0.00503237
1.03761e-05
0.00502956
1.12668e-05
0.00502651
1.22602e-05
0.00502318
1.3363e-05
0.00501956
1.45637e-05
0.00501562
1.58323e-05
0.00501136
1.71252e-05
0.00500678
1.8392e-05
0.00500191
1.9584e-05
0.00499677
2.06611e-05
0.00499139
2.15965e-05
0.00498582
2.23788e-05
0.00498009
2.30112e-05
0.00497424
2.35089e-05
0.00496828
2.38954e-05
0.00496226
2.41986e-05
0.00495616
2.44473e-05
0.00495001
2.46684e-05
0.00494381
2.48853e-05
0.00493755
2.51165e-05
0.00493123
2.53762e-05
0.00492483
2.56737e-05
0.00491835
2.60146e-05
0.00491177
2.64014e-05
0.00490509
2.68343e-05
0.00489829
2.7312e-05
0.00489136
2.7832e-05
0.0048843
2.83917e-05
0.00487709
2.89879e-05
0.00486972
2.96177e-05
0.0048622
3.02784e-05
0.0048545
3.09677e-05
0.00484663
3.16836e-05
0.00483858
3.24243e-05
0.00483033
3.31885e-05
0.0048219
3.39751e-05
0.00481327
3.47833e-05
0.00480443
3.56127e-05
0.00479539
3.6463e-05
0.00478614
3.73348e-05
0.00477666
3.82303e-05
0.00476696
3.9157e-05
4.01369e-05
0.00475703
0.00505063
6.51317e-07
0.00505025
1.89858e-06
0.00504964
3.07901e-06
0.0050488
4.20019e-06
0.00504775
5.27082e-06
0.0050465
6.29807e-06
0.00504504
7.28761e-06
0.0050434
8.2442e-06
0.00504158
9.17357e-06
0.00503957
1.0086e-05
0.00503738
1.1e-05
0.005035
1.19438e-05
0.00503242
1.2953e-05
0.00502963
1.40631e-05
0.00502659
1.53007e-05
0.00502328
1.66745e-05
0.00501967
1.81702e-05
0.00501575
1.97509e-05
0.00501151
2.13624e-05
0.00500696
2.29422e-05
0.00500212
2.44296e-05
0.004997
2.57747e-05
0.00499166
2.69439e-05
0.00498611
2.79227e-05
0.00498041
2.8715e-05
0.00497458
2.93392e-05
0.00496865
2.98245e-05
0.00496264
3.02054e-05
0.00495657
3.05177e-05
0.00495045
3.07948e-05
0.00494427
3.10657e-05
0.00493803
3.13539e-05
0.00493173
3.16767e-05
0.00492536
3.2046e-05
0.0049189
3.24689e-05
0.00491235
3.29486e-05
0.0049057
3.34853e-05
0.00489894
3.40776e-05
0.00489205
3.47224e-05
0.00488502
3.54164e-05
0.00487785
3.61557e-05
0.00487054
3.69367e-05
0.00486306
3.77562e-05
0.00485541
3.8611e-05
0.0048476
3.94987e-05
0.00483961
4.04172e-05
0.00483143
4.13647e-05
0.00482307
4.23397e-05
0.00481451
4.33414e-05
0.00480575
4.4369e-05
0.00479679
4.54221e-05
0.00478763
4.65011e-05
0.00477825
4.76083e-05
0.00476865
4.87512e-05
4.99526e-05
0.00475884
0.00505063
7.80662e-07
0.00505025
2.27531e-06
0.00504964
3.6901e-06
0.00504881
5.03374e-06
0.00504776
6.31679e-06
0.00504651
7.5478e-06
0.00504506
8.73358e-06
0.00504343
9.87984e-06
0.00504161
1.09934e-05
0.00503961
1.20865e-05
0.00503743
1.31812e-05
0.00503506
1.43112e-05
0.00503249
1.55185e-05
0.00502971
1.6846e-05
0.00502669
1.83253e-05
0.00502339
1.9967e-05
0.00501981
2.17545e-05
0.00501592
2.36441e-05
0.00501171
2.55712e-05
0.00500719
2.74616e-05
0.00500238
2.92428e-05
0.0049973
3.0855e-05
0.00499198
3.22579e-05
0.00498647
3.34338e-05
0.0049808
3.43869e-05
0.004975
3.51388e-05
0.0049691
3.57241e-05
0.00496312
3.61838e-05
0.00495708
3.65603e-05
0.00495098
3.68936e-05
0.00494483
3.72185e-05
0.00493862
3.75628e-05
0.00493235
3.79475e-05
0.00492601
3.83869e-05
0.00491959
3.88896e-05
0.00491307
3.94596e-05
0.00490646
4.00973e-05
0.00489974
4.0801e-05
0.00489289
4.15672e-05
0.00488592
4.23918e-05
0.0048788
4.32703e-05
0.00487154
4.41986e-05
0.00486413
4.51725e-05
0.00485655
4.61885e-05
0.0048488
4.72434e-05
0.00484089
4.83349e-05
0.00483279
4.94606e-05
0.00482451
5.06189e-05
0.00481604
5.18084e-05
0.00480738
5.30283e-05
0.00479853
5.42779e-05
0.00478947
5.55573e-05
0.00478021
5.68683e-05
0.00477075
5.82174e-05
5.9625e-05
0.00476107
0.00505063
9.09469e-07
0.00505025
2.65046e-06
0.00504964
4.29862e-06
0.00504881
5.86376e-06
0.00504777
7.35828e-06
0.00504653
8.79214e-06
0.00504509
1.01733e-05
0.00504346
1.15083e-05
0.00504165
1.28052e-05
0.00503966
1.4078e-05
0.00503749
1.53523e-05
0.00503513
1.66669e-05
0.00503258
1.80707e-05
0.00502981
1.9613e-05
0.00502681
2.1331e-05
0.00502354
2.32372e-05
0.00501998
2.53128e-05
0.00501611
2.75075e-05
0.00501194
2.97469e-05
0.00500745
3.19452e-05
0.00500268
3.40182e-05
0.00499764
3.58964e-05
0.00499236
3.75328e-05
0.00498689
3.89063e-05
0.00498126
4.00211e-05
0.00497549
4.0902e-05
0.00496963
4.15886e-05
0.00496368
4.21281e-05
0.00495767
4.25695e-05
0.00495161
4.29594e-05
0.00494549
4.33377e-05
0.00493932
4.37373e-05
0.00493308
4.41824e-05
0.00492678
4.46898e-05
0.0049204
4.52698e-05
0.00491393
4.5927e-05
0.00490737
4.66623e-05
0.00490069
4.74736e-05
0.0048939
4.83571e-05
0.00488699
4.93081e-05
0.00487994
5.03214e-05
0.00487274
5.13921e-05
0.0048654
5.25155e-05
0.0048579
5.36874e-05
0.00485024
5.49043e-05
0.00484241
5.6163e-05
0.00483441
5.7461e-05
0.00482623
5.87964e-05
0.00481787
6.01673e-05
0.00480933
6.15727e-05
0.0048006
6.30115e-05
0.00479167
6.44834e-05
0.00478255
6.59895e-05
0.00477323
6.75332e-05
0.00476373
6.91261e-05
0.00475414
1.58257e-07
2.96133e-09
0.00475344
6.94597e-07
2.94634e-09
0.00475217
1.26604e-06
2.92466e-09
0.0047503
1.87502e-06
2.89899e-09
0.00474777
2.52462e-06
2.87017e-09
0.00474455
3.21835e-06
2.83808e-09
0.00474058
3.96007e-06
2.80248e-09
0.00473583
4.75415e-06
2.76327e-09
0.00473022
5.60544e-06
2.72022e-09
0.0047237
6.51938e-06
2.67325e-09
0.00471619
7.50202e-06
2.62205e-09
0.00470763
8.56018e-06
2.56648e-09
0.00469793
9.70149e-06
2.50638e-09
0.00468699
1.09345e-05
2.44326e-09
0.00467472
1.2269e-05
2.37122e-09
0.004661
1.37159e-05
2.30457e-09
0.00464571
1.52876e-05
2.20952e-09
0.00462871
1.69983e-05
2.10332e-09
0.00460984
1.8864e-05
2.0025e-09
0.00458894
2.09033e-05
1.88459e-09
0.0045658
2.31374e-05
1.77353e-09
0.00454021
2.55908e-05
1.65638e-09
0.00451191
2.82918e-05
1.53019e-09
0.00448064
3.12736e-05
1.394e-09
0.00444606
3.45746e-05
1.2473e-09
0.00440782
3.82402e-05
1.08938e-09
0.0043655
4.23239e-05
9.20054e-10
0.00431861
4.68892e-05
7.38723e-10
0.00426659
5.20121e-05
5.4478e-10
0.00420881
5.77838e-05
3.37889e-10
0.00414449
6.43144e-05
1.17572e-10
0.00407276
7.17379e-05
-1.16931e-10
0.00399254
8.02177e-05
-3.65894e-10
0.00390259
8.99535e-05
-6.3014e-10
0.0038014
0.000101189
-9.10291e-10
0.00368718
0.00011422
-1.20672e-09
0.00355778
0.000129399
-1.52e-09
0.00341065
0.000147133
-1.85086e-09
0.00324278
0.00016787
-2.19933e-09
0.00305073
0.000192052
-2.56507e-09
0.00283071
0.000220023
-2.94637e-09
0.00257886
0.000251858
-3.33882e-09
0.00229179
0.000287069
-3.73283e-09
0.00196765
0.000324148
-4.10902e-09
0.00160778
0.000359874
-4.43109e-09
0.00121945
0.000388335
-4.63591e-09
0.000819759
0.000399692
-4.62027e-09
0.000441159
0.000378604
-4.22942e-09
0.000139379
0.000301784
-3.25426e-09
0.00013938
-1.45078e-09
0.00475323
1.68537e-06
0.00475117
2.75663e-06
0.00474854
3.89724e-06
0.0047453
5.1128e-06
0.00474141
6.40951e-06
0.00473684
7.79436e-06
0.00473152
9.27517e-06
0.00472542
1.08607e-05
0.00471846
1.25606e-05
0.0047106
1.43859e-05
0.00470175
1.63487e-05
0.00469185
1.84625e-05
0.00468081
2.07429e-05
0.00466853
2.32068e-05
0.00465493
2.58738e-05
0.00463988
2.87658e-05
0.00462326
3.19077e-05
0.00460493
3.53279e-05
0.00458473
3.90585e-05
0.0045625
4.31367e-05
0.00453803
4.7605e-05
0.00451111
5.25124e-05
0.00448149
5.79159e-05
0.00444888
6.38815e-05
0.00441297
7.04864e-05
0.00437339
7.78213e-05
0.00432972
8.59933e-05
0.00428148
9.51294e-05
0.00422811
0.000105381
0.00416896
0.00011693
0.00410328
0.000129997
0.00403017
0.000144847
0.00394858
0.000161805
0.00385727
0.000181268
0.00375474
0.000203717
0.00363922
0.000229736
0.00350861
0.000260016
0.00336038
0.000295356
0.00319163
0.000336625
0.00299901
0.000384673
0.00277889
0.000440143
0.00252762
0.000503129
0.00224209
0.000572596
0.00192076
0.000645474
0.00156533
0.000715309
0.00118332
0.000770347
0.000791955
0.000791053
0.000423347
0.000747213
0.000131188
0.000593942
0.000270569
0.00475143
5.92789e-06
0.00474665
7.5295e-06
0.00474132
9.23453e-06
0.00473538
1.10516e-05
0.0047288
1.29901e-05
0.00472153
1.50607e-05
0.00471353
1.7275e-05
0.00470475
1.96465e-05
0.00469512
2.21896e-05
0.00468458
2.49208e-05
0.00467307
2.78585e-05
0.00466051
3.1023e-05
0.00464682
3.44375e-05
0.0046319
3.81278e-05
0.00461565
4.2123e-05
0.00459796
4.64563e-05
0.0045787
5.1165e-05
0.00455774
5.62917e-05
0.00453491
6.18852e-05
0.00451004
6.80009e-05
0.00448295
7.4703e-05
0.00445339
8.20653e-05
0.00442114
9.01731e-05
0.00438589
9.91258e-05
0.00434734
0.000109039
0.00430511
0.00012005
0.00425879
0.000132319
0.00420788
0.000146035
0.00415184
0.000161426
0.00409
0.000178763
0.00402163
0.000198374
0.00394582
0.000220656
0.00386153
0.000246089
0.00376754
0.000275258
0.00366239
0.000308873
0.00354434
0.000347787
0.00341134
0.000393008
0.00326101
0.000445687
0.00309058
0.000507063
0.00289693
0.000578321
0.00267676
0.000660312
0.00242686
0.000753034
0.00214466
0.000854788
0.00182928
0.000960853
0.00148305
0.00106155
0.00111391
0.00113948
0.00073913
0.00116584
0.000390305
0.00109604
0.000118596
0.00086565
0.000389165
0.00474876
1.41994e-05
0.00473997
1.63238e-05
0.00473062
1.85852e-05
0.00472067
2.09952e-05
0.0047101
2.35668e-05
0.00469884
2.63141e-05
0.00468686
2.92531e-05
0.00467411
3.24015e-05
0.00466052
3.5779e-05
0.00464603
3.94074e-05
0.00463058
4.33113e-05
0.00461409
4.75181e-05
0.00459646
5.20585e-05
0.00457763
5.69672e-05
0.00455747
6.22832e-05
0.00453587
6.80506e-05
0.00451272
7.43196e-05
0.00448786
8.11472e-05
0.00446115
8.85984e-05
0.0044324
9.67477e-05
0.00440142
0.000105681
0.00436799
0.000115496
0.00433186
0.000126309
0.00429273
0.00013825
0.00425029
0.000151477
0.00420418
0.000166169
0.00415395
0.000182541
0.00409914
0.000200847
0.00403918
0.000221388
0.00397342
0.000244523
0.00390111
0.000270686
0.00382136
0.000300399
0.00373316
0.000334292
0.00363529
0.000373129
0.00352633
0.00041783
0.00340463
0.00046949
0.00326824
0.000529394
0.00311494
0.000598989
0.0029422
0.0006798
0.00274729
0.000773238
0.00252739
0.000880211
0.00227997
0.00100045
0.00200333
0.00113143
0.00169753
0.00126665
0.00136583
0.00139325
0.00101666
0.00148865
0.000666775
0.00151572
0.00034597
0.00141684
0.000100783
0.00111084
0.000489948
0.00474528
2.77612e-05
0.0047312
3.03962e-05
0.00471659
3.32014e-05
0.00470139
3.61916e-05
0.00468557
3.93832e-05
0.00466909
4.27943e-05
0.0046519
4.64451e-05
0.00463395
5.03576e-05
0.00461517
5.45566e-05
0.00459551
5.90696e-05
0.00457489
6.39271e-05
0.00455324
6.91636e-05
0.00453049
7.48177e-05
0.00450652
8.09326e-05
0.00448125
8.75574e-05
0.00445455
9.47475e-05
0.0044263
0.000102566
0.00439637
0.000111084
0.00436458
0.000120383
0.00433077
0.000130558
0.00429474
0.000141714
0.00425626
0.000153977
0.00421508
0.00016749
0.00417091
0.000182418
0.00412343
0.000198956
0.00407227
0.000217332
0.004017
0.000237812
0.00395713
0.000260712
0.00389211
0.000286408
0.00382129
0.000315346
0.00374391
0.00034806
0.00365912
0.000385193
0.0035659
0.000427515
0.00346308
0.000475951
0.0033493
0.000531608
0.003223
0.000595789
0.0030824
0.000669996
0.0029255
0.000755889
0.00275013
0.000855163
0.00255408
0.000969292
0.00233525
0.00109904
0.00209207
0.00124363
0.00182405
0.00139945
0.00153258
0.00155811
0.00122211
0.00170373
0.000901533
0.00180922
0.000586297
0.00183096
0.000301393
0.00170175
8.32249e-05
0.00132901
0.000573172
0.00474103
4.78044e-05
0.0047205
5.0931e-05
0.00469944
5.42616e-05
0.00467781
5.78139e-05
0.00465559
6.1608e-05
0.00463272
6.56657e-05
0.00460915
7.00111e-05
0.00458484
7.46707e-05
0.00455972
7.96741e-05
0.00453374
8.50544e-05
0.00450681
9.08484e-05
0.00447888
9.70974e-05
0.00444985
0.000103848
0.00441963
0.000111152
0.00438812
0.000119069
0.0043552
0.000127665
0.00432075
0.000137016
0.00428463
0.000147209
0.00424667
0.000158342
0.0042067
0.000170527
0.00416452
0.000183895
0.0041199
0.000198594
0.0040726
0.000214797
0.00402231
0.000232705
0.00396871
0.000252551
0.00391144
0.000274608
0.00385005
0.000299197
0.00378407
0.000326695
0.00371293
0.000357551
0.00363598
0.000392295
0.00355248
0.00043156
0.00346157
0.000476099
0.00336227
0.000526811
0.00325346
0.000584765
0.00313385
0.000651216
0.00300202
0.000727622
0.00285639
0.000815622
0.00269532
0.000916962
0.00251715
0.00103333
0.00232043
0.00116602
0.00210414
0.00131532
0.00186818
0.00147959
0.00161387
0.00165377
0.00134467
0.00182731
0.00106683
0.00198157
0.000789979
0.00208607
0.000527284
0.00209365
0.000293996
0.00193504
0.000101305
0.0015217
0.000674477
0.00473611
7.5426e-05
0.00470803
7.90159e-05
0.00467944
8.28469e-05
0.00465032
8.69379e-05
0.00462061
9.13115e-05
0.00459029
9.59928e-05
0.00455929
0.00010101
0.00452756
0.000106393
0.00449506
0.000112176
0.00446172
0.000118399
0.00442746
0.000125105
0.00439222
0.00013234
0.00435591
0.000140161
0.00431843
0.000148627
0.00427969
0.000157807
0.00423958
0.000167781
0.00419795
0.000178636
0.00415469
0.000190475
0.00410962
0.000203412
0.00406257
0.000217579
0.00401333
0.000233128
0.00396169
0.000250234
0.00390739
0.000269099
0.00385014
0.000289958
0.00378961
0.000313084
0.00372542
0.000338795
0.00365715
0.000367466
0.00358431
0.000399537
0.00350633
0.000435525
0.00342258
0.000476046
0.00333232
0.000521825
0.00323469
0.000573722
0.00312875
0.000632751
0.00301342
0.000700103
0.00288748
0.000777153
0.00274964
0.000865457
0.00259857
0.000966698
0.00243295
0.00108258
0.00225173
0.00121455
0.00205432
0.00136343
0.00184103
0.00152861
0.0016136
0.00170703
0.00137583
0.00189154
0.00113424
0.0020689
0.000898522
0.00221729
0.000681077
0.00230352
0.000494544
0.00228018
0.000343117
0.00208646
0.000207744
0.00165707
0.000882221
-2.54354e-05
2.54357e-05
-3.25018e-10
-7.44938e-05
4.90598e-05
-1.35301e-09
-0.000130539
5.6048e-05
-2.67587e-09
-0.000183902
5.33667e-05
-4.19652e-09
-0.000229288
4.53927e-05
-5.83592e-09
-0.000264038
3.47569e-05
-7.53736e-09
-0.000287034
2.30052e-05
-9.24992e-09
-0.000298027
1.10043e-05
-1.08009e-08
-0.000296995
-1.02081e-06
-1.17178e-08
-0.000285125
-1.18563e-05
-1.35748e-08
-0.000262704
-2.24057e-05
-1.48739e-08
-0.000230367
-3.23216e-05
-1.57243e-08
-0.000188769
-4.15818e-05
-1.61283e-08
-0.000138549
-5.0204e-05
-1.59742e-08
-8.03195e-05
-5.82146e-05
-1.5121e-08
-1.46776e-05
-6.56284e-05
-1.34121e-08
5.78057e-05
-7.24727e-05
-1.06926e-08
0.000136583
-7.87707e-05
-6.83595e-09
0.000221125
-8.45405e-05
-1.7777e-09
0.000310919
-8.97981e-05
4.51385e-09
0.000405465
-9.45573e-05
1.14775e-08
0.000504273
-9.88268e-05
1.89855e-08
0.000606858
-0.000102612
2.60213e-08
0.000712743
-0.000105917
3.20026e-08
0.000821457
-0.000108751
3.69507e-08
0.000932545
-0.000111129
4.01526e-08
0.00104557
-0.000113065
4.19317e-08
0.0011601
-0.000114574
4.2435e-08
0.00127573
-0.000115669
4.19519e-08
0.00139205
-0.000116364
4.07631e-08
0.00150869
-0.000116674
3.91054e-08
0.00162527
-0.000116616
3.7162e-08
0.00174144
-0.000116205
3.5062e-08
0.00185686
-0.00011546
3.2894e-08
0.00197123
-0.000114398
3.07083e-08
0.00208424
-0.000113038
2.8532e-08
0.00219561
-0.000111399
2.63749e-08
0.00230509
-0.000109502
2.42349e-08
0.00241243
-0.000107367
2.21049e-08
0.00251743
-0.000105013
1.99753e-08
0.00261987
-0.000102462
1.78369e-08
0.00271959
-9.97343e-05
1.56856e-08
0.00281643
-9.6851e-05
1.35195e-08
0.00291025
-9.38326e-05
1.1342e-08
0.00300094
-9.06994e-05
9.16317e-09
0.0030884
-8.74712e-05
6.99688e-09
0.00317257
-8.41673e-05
4.86152e-09
0.00325337
-8.08051e-05
2.77961e-09
0.00333077
-7.73996e-05
7.7157e-10
-7.39613e-05
0.00340473
-1.15181e-09
-2.23716e-05
4.78073e-05
-6.5602e-05
9.22902e-05
-0.000114773
0.000105219
-0.000161445
0.000100039
-0.000200853
8.48004e-05
-0.000230567
6.44715e-05
-0.000249519
4.19567e-05
-0.000257372
1.88574e-05
-0.000254312
-4.08108e-06
-0.000240966
-2.52015e-05
-0.00021772
-4.5652e-05
-0.000185098
-6.49436e-05
-0.000143666
-8.30135e-05
-9.3994e-05
-9.98765e-05
-3.65971e-05
-0.000115611
2.79569e-05
-0.000130182
9.91548e-05
-0.000143671
0.000176496
-0.000156112
0.000259488
-0.000167532
0.000347649
-0.000177959
0.000440508
-0.000187416
0.0005376
-0.000195919
0.000638463
-0.000203474
0.000742637
-0.000210091
0.00084967
-0.000215783
0.000959119
-0.000220578
0.00107056
-0.000224503
0.00118357
-0.000227584
0.00129774
-0.000229847
0.0014127
-0.000231319
0.00152805
-0.000232027
0.00164344
-0.000232003
0.00175851
-0.000231278
0.00187294
-0.000229886
0.0019864
-0.000227863
0.00209861
-0.000225244
0.00220928
-0.000222069
0.00231815
-0.000218375
0.00242499
-0.000214204
0.00252957
-0.000209594
0.0026317
-0.000204589
0.00273119
-0.000199227
0.00282789
-0.000193552
0.00292166
-0.000187603
0.00301238
-0.000181421
0.00309996
-0.000175045
0.0031843
-0.000168515
0.00326536
-0.000161864
0.00334309
-0.000155122
-0.000148308
0.00341743
-1.69919e-05
6.47992e-05
-4.84893e-05
0.000123788
-8.4423e-05
0.000141153
-0.00011827
0.000133886
-0.000146258
0.000112788
-0.000166419
8.46324e-05
-0.00017776
5.3298e-05
-0.000179766
2.08631e-05
-0.000172779
-1.10683e-05
-0.000156772
-4.12082e-05
-0.000132077
-7.0347e-05
-9.90068e-05
-9.80139e-05
-5.79641e-05
-0.000124056
-9.36018e-06
-0.00014848
4.63162e-05
-0.000171288
0.000108718
-0.000192584
0.000177414
-0.000212367
0.000251974
-0.000230672
0.000331974
-0.000247533
0.000416996
-0.000262981
0.000506619
-0.00027704
0.000600427
-0.000289726
0.000698
-0.000301047
0.000798914
-0.000311005
0.000902747
-0.000319616
0.00100908
-0.000326914
0.00111752
-0.000332936
0.00122765
-0.000337718
0.00133909
-0.000341293
0.00145148
-0.000343699
0.00156442
-0.000344974
0.00167758
-0.000345162
0.00179061
-0.000344306
0.00190318
-0.000342456
0.00201498
-0.000339661
0.00212571
-0.000335976
0.0022351
-0.000331456
0.00234288
-0.000326157
0.00244881
-0.000320138
0.00255267
-0.000313458
0.00265426
-0.000306178
0.0027534
-0.000298359
0.00284991
-0.000290062
0.00294365
-0.000281347
0.00303451
-0.000272275
0.00312236
-0.000262904
0.00320714
-0.000253291
0.00328877
-0.000243489
0.00336718
-0.000233539
-0.000223467
0.00344234
-7.56662e-06
7.23659e-05
-2.34457e-05
0.000139667
-4.10758e-05
0.000158783
-5.70802e-05
0.00014989
-6.93384e-05
0.000125046
-7.64924e-05
9.17864e-05
-7.76088e-05
5.44144e-05
-7.17413e-05
1.49956e-05
-5.95399e-05
-2.32697e-05
-4.01499e-05
-6.05982e-05
-1.36744e-05
-9.68226e-05
1.97119e-05
-0.0001314
5.99023e-05
-0.000164247
0.000106716
-0.000195294
0.000159929
-0.000224501
0.000219236
-0.000251891
0.000284347
-0.000277478
0.000354953
-0.000301278
0.000430729
-0.000323309
0.000511338
-0.00034359
0.000596436
-0.000362137
0.000685668
-0.000378958
0.000778672
-0.000394052
0.000875077
-0.00040741
0.0009745
-0.000419039
0.00107656
-0.000428972
0.00118088
-0.000437256
0.00128709
-0.000443929
0.00139483
-0.00044903
0.00150373
-0.0004526
0.00161344
-0.000454687
0.00172362
-0.00045534
0.00183393
-0.000454617
0.00194405
-0.000452577
0.00205367
-0.000449284
0.0021625
-0.000444806
0.00227026
-0.000439213
0.00237668
-0.000432578
0.00248152
-0.000424978
0.00258455
-0.000416489
0.00268557
-0.000407191
0.00278437
-0.000397162
0.00288079
-0.000386483
0.00297468
-0.000375234
0.0030659
-0.000363494
0.00315433
-0.00035134
0.00323989
-0.000338847
0.00332248
-0.000326085
0.00340205
-0.00031311
-0.000299947
0.00347853
5.08339e-06
6.72825e-05
9.40765e-06
0.000135342
1.44007e-05
0.00015379
1.95119e-05
0.000144779
2.54699e-05
0.000119088
3.31685e-05
8.40877e-05
4.34024e-05
4.41806e-05
5.82144e-05
1.83586e-07
7.58594e-05
-4.09147e-05
9.8638e-05
-8.33768e-05
0.000126595
-0.00012478
0.000159971
-0.000164776
0.000198862
-0.000203137
0.000243286
-0.000239718
0.000293215
-0.000274431
0.000348555
-0.000307231
0.000409166
-0.000338089
0.000474871
-0.000366982
0.000545457
-0.000393896
0.000620689
-0.000418822
0.000700305
-0.000441753
0.000784029
-0.000462682
0.000871567
-0.000481589
0.000962601
-0.000498445
0.0010568
-0.000513238
0.00115382
-0.000525993
0.00125333
-0.000536759
0.00135497
-0.000545575
0.00145842
-0.000552478
0.00156333
-0.000557508
0.00166936
-0.000560717
0.00177618
-0.00056216
0.00188346
-0.0005619
0.00199089
-0.000560007
0.00209816
-0.000556554
0.00220497
-0.000551621
0.00231105
-0.000545292
0.00241613
-0.000537656
0.00251995
-0.000528802
0.00262229
-0.000518824
0.00272292
-0.000507819
0.00282164
-0.000495884
0.00291827
-0.000483116
0.00301265
-0.000469615
0.00310464
-0.000455477
0.00319409
-0.000440799
0.00328092
-0.000425673
0.00336502
-0.000410185
0.00344632
-0.000394405
-0.000378361
0.00352473
1.83964e-05
4.8886e-05
4.64825e-05
0.000107256
7.64741e-05
0.000123798
0.000104997
0.000116256
0.000130814
9.32716e-05
0.000154466
6.04355e-05
0.000177411
2.1236e-05
0.000198641
-2.10463e-05
0.000222329
-6.46027e-05
0.0002482
-0.000109248
0.000277167
-0.000153747
0.000309845
-0.000197455
0.000346667
-0.000239958
0.000387929
-0.00028098
0.000433825
-0.000320327
0.000484454
-0.00035786
0.000539839
-0.000393474
0.000599944
-0.000427086
0.000664679
-0.00045863
0.000733909
-0.000488052
0.000807465
-0.00051531
0.000885149
-0.000540366
0.000966737
-0.000563177
0.00105197
-0.000583682
0.00114058
-0.000601841
0.00123225
-0.000617666
0.00132669
-0.000631195
0.00142358
-0.000642464
0.0015226
-0.000651501
0.00162344
-0.000658345
0.00172576
-0.000663043
0.00182926
-0.000665653
0.0019336
-0.000666242
0.00203847
-0.000664883
0.00214358
-0.000661659
0.00224862
-0.00065666
0.0023533
-0.000649979
0.00245737
-0.000641717
0.00256054
-0.000631979
0.00266259
-0.000620873
0.00276329
-0.000608512
0.00286241
-0.000595009
0.00295977
-0.00058048
0.0030552
-0.00056504
0.00314853
-0.000548806
0.00323962
-0.000531891
0.00332835
-0.000514406
0.00341462
-0.000496453
0.00349834
-0.000478118
-0.000459437
0.00357941
3.36778e-05
1.52082e-05
8.99568e-05
5.09773e-05
0.000146313
6.74418e-05
0.000197142
6.54272e-05
0.00024083
4.95843e-05
0.000278393
2.28724e-05
0.000311345
-1.17161e-05
0.000339839
-4.954e-05
0.000367359
-9.21233e-05
0.00039501
-0.000136898
0.000423927
-0.000182664
0.000455037
-0.000228565
0.000489063
-0.000273984
0.000526553
-0.00031847
0.000567908
-0.000361683
0.00061341
-0.000403362
0.000663237
-0.000443301
0.000717486
-0.000481335
0.000776181
-0.000517326
0.000839289
-0.00055116
0.000906725
-0.000582746
0.000978367
-0.000612008
0.00105406
-0.000638865
0.0011336
-0.000663225
0.00121676
-0.000685008
0.0013033
-0.000704197
0.00139292
-0.000720818
0.00148535
-0.000734893
0.00158029
-0.000746441
0.00167743
-0.00075549
0.00177647
-0.000762082
0.00187709
-0.000766272
0.00197897
-0.000768126
0.00208181
-0.000767721
0.0021853
-0.000765145
0.00228913
-0.000760493
0.00239302
-0.000753869
0.00249669
-0.000745383
0.00259986
-0.000735152
0.00270229
-0.000723299
0.00280372
-0.000709951
0.00290395
-0.000695236
0.00300276
-0.000679288
0.00309996
-0.000662239
0.00319537
-0.000644223
0.00328886
-0.000625372
0.00338027
-0.000605816
0.00346949
-0.000585675
0.00355642
-0.000565049
0.00364098
-0.000544003
0.00348306
-7.83251e-05
-3.02112e-09
0.00355955
-7.64856e-05
-4.94162e-09
0.00363407
-7.45157e-05
-6.91528e-09
0.00370651
-7.24347e-05
-8.90244e-09
0.00377678
-7.02529e-05
-1.08424e-08
0.00384477
-6.79791e-05
-1.26791e-08
0.00391041
-6.56227e-05
-1.43598e-08
0.00397362
-6.31945e-05
-1.58384e-08
0.00403434
-6.07063e-05
-1.70767e-08
0.00409253
-5.81712e-05
-1.80455e-08
0.00414815
-5.56036e-05
-1.87225e-08
0.00420119
-5.30189e-05
-1.9093e-08
0.00425164
-5.0433e-05
-1.91534e-08
0.00429952
-4.78618e-05
-1.89069e-08
0.00434486
-4.53214e-05
-1.83653e-08
0.00438771
-4.2827e-05
-1.75489e-08
0.00442812
-4.03932e-05
-1.64861e-08
0.00446617
-3.80329e-05
-1.52095e-08
0.00450194
-3.57577e-05
-1.37558e-08
0.00453553
-3.35775e-05
-1.21653e-08
0.00456704
-3.14999e-05
-1.04781e-08
0.00459658
-2.95307e-05
-8.73216e-09
0.00462426
-2.76733e-05
-6.96321e-09
0.00465019
-2.59294e-05
-5.20317e-09
0.00467449
-2.42984e-05
-3.47785e-09
0.00469727
-2.2778e-05
-1.80729e-09
0.00471864
-2.1364e-05
-2.08125e-10
0.00473869
-2.0051e-05
1.3089e-09
0.00475752
-1.88322e-05
2.7365e-09
0.00477521
-1.76997e-05
4.0694e-09
0.00479185
-1.66453e-05
5.30257e-09
0.00480751
-1.566e-05
6.43102e-09
0.00482223
-1.47352e-05
7.44765e-09
0.00483609
-1.38629e-05
8.34238e-09
0.00484911
-1.30362e-05
9.10281e-09
0.00486135
-1.22498e-05
9.71577e-09
0.00487284
-1.15003e-05
1.01673e-08
0.00488362
-1.07866e-05
1.04454e-08
0.00489372
-1.01093e-05
1.05425e-08
0.00490318
-9.47067e-06
1.04572e-08
0.00491204
-8.87352e-06
1.01947e-08
0.00492035
-8.32049e-06
9.76919e-09
0.00492816
-7.81312e-06
9.20255e-09
0.0049355
-7.3514e-06
8.53191e-09
0.00494243
-6.93276e-06
7.78408e-09
0.00494897
-6.55401e-06
6.95086e-09
0.00495518
-6.21007e-06
6.1005e-09
0.00496107
-5.89507e-06
5.24504e-09
0.00496667
-5.60339e-06
4.40905e-09
0.00497199
-5.33005e-06
3.60586e-09
0.00497706
-5.07105e-06
2.84658e-09
0.00498188
-4.82348e-06
2.13956e-09
0.00498647
-4.58544e-06
1.49002e-09
0.00499082
-4.35579e-06
8.98493e-10
0.00499495
-4.13399e-06
3.62881e-10
0.00499887
-3.9198e-06
-1.21307e-10