/*--------------------------------*- C++ -*----------------------------------*\
| =========                 |                                                 |
| \\      /  F ield         | OpenFOAM: The Open Source CFD Toolbox           |
|  \\    /   O peration     | Version:  2412                                  |
|   \\  /    A nd           | Website:  www.openfoam.com                      |
|    \\/     M anipulation  |                                                 |
\*---------------------------------------------------------------------------*/
FoamFile
{
    version     2.0;
    format      ascii;
    arch        "LSB;label=32;scalar=64";
    class       volVectorField;
    location    "29";
    object      U;
}
// * * * * * * * * * * * * * * * * * * * * * * * * * * * * * * * * * * * * * //

dimensions      [0 1 -1 0 0 0 0];

internalField   nonuniform List<vector> 
63420
(
(0.0999997 4.41952e-07 0)
(0.099995 1.31439e-06 0)
(0.099985 2.17409e-06 0)
(0.0999705 3.02516e-06 0)
(0.0999516 3.87234e-06 0)
(0.0999287 4.71976e-06 0)
(0.0999017 5.57077e-06 0)
(0.0998708 6.42832e-06 0)
(0.0998362 7.29637e-06 0)
(0.099798 8.18305e-06 0)
(0.0997561 9.10413e-06 0)
(0.0997106 1.0085e-05 0)
(0.0996613 1.11593e-05 0)
(0.0996077 1.23631e-05 0)
(0.0995495 1.3727e-05 0)
(0.0994861 1.52666e-05 0)
(0.0994169 1.69768e-05 0)
(0.0993415 1.88298e-05 0)
(0.0992597 2.07784e-05 0)
(0.0991714 2.27632e-05 0)
(0.099077 2.47223e-05 0)
(0.098977 2.65999e-05 0)
(0.0988719 2.8354e-05 0)
(0.0987625 2.99605e-05 0)
(0.0986497 3.14135e-05 0)
(0.0985341 3.27242e-05 0)
(0.0984164 3.39168e-05 0)
(0.098297 3.5024e-05 0)
(0.0981763 3.60828e-05 0)
(0.0980544 3.71301e-05 0)
(0.0979315 3.82006e-05 0)
(0.0978075 3.93239e-05 0)
(0.0976823 4.05246e-05 0)
(0.0975557 4.18215e-05 0)
(0.0974275 4.32283e-05 0)
(0.0972975 4.47544e-05 0)
(0.0971654 4.64058e-05 0)
(0.0970311 4.81857e-05 0)
(0.0968942 5.00959e-05 0)
(0.0967546 5.21369e-05 0)
(0.0966121 5.43089e-05 0)
(0.0964666 5.6612e-05 0)
(0.0963178 5.90467e-05 0)
(0.0961656 6.16137e-05 0)
(0.0960099 6.43145e-05 0)
(0.0958506 6.71509e-05 0)
(0.0956874 7.01257e-05 0)
(0.0955204 7.32421e-05 0)
(0.0953494 7.65039e-05 0)
(0.0951742 7.99158e-05 0)
(0.0949948 8.34836e-05 0)
(0.0948112 8.72151e-05 0)
(0.094623 9.11239e-05 0)
(0.0944303 9.52408e-05 0)
(0.0942328 9.96443e-05 0)
(0.0999997 1.32584e-06 0)
(0.099995 3.9431e-06 0)
(0.099985 6.52216e-06 0)
(0.0999705 9.07526e-06 0)
(0.0999517 1.16166e-05 0)
(0.0999287 1.41585e-05 0)
(0.0999017 1.67111e-05 0)
(0.0998709 1.92832e-05 0)
(0.0998363 2.18868e-05 0)
(0.0997981 2.45462e-05 0)
(0.0997563 2.73086e-05 0)
(0.0997108 3.02498e-05 0)
(0.0996615 3.34704e-05 0)
(0.099608 3.70784e-05 0)
(0.0995499 4.1165e-05 0)
(0.0994865 4.57774e-05 0)
(0.0994174 5.09006e-05 0)
(0.0993421 5.64516e-05 0)
(0.0992604 6.22896e-05 0)
(0.0991723 6.82376e-05 0)
(0.099078 7.411e-05 0)
(0.0989781 7.97408e-05 0)
(0.0988731 8.50043e-05 0)
(0.0987639 8.98275e-05 0)
(0.0986512 9.41933e-05 0)
(0.0985358 9.81343e-05 0)
(0.0984182 0.000101722 0)
(0.0982989 0.000105056 0)
(0.0981783 0.000108243 0)
(0.0980565 0.000111397 0)
(0.0979337 0.000114618 0)
(0.0978099 0.000117997 0)
(0.0976848 0.000121606 0)
(0.0975583 0.000125503 0)
(0.0974302 0.000129727 0)
(0.0973003 0.000134308 0)
(0.0971684 0.000139262 0)
(0.0970342 0.000144601 0)
(0.0968975 0.000150329 0)
(0.0967581 0.000156448 0)
(0.0966159 0.00016296 0)
(0.0964705 0.000169863 0)
(0.096322 0.00017716 0)
(0.09617 0.000184853 0)
(0.0960146 0.000192946 0)
(0.0958555 0.000201446 0)
(0.0956927 0.000210359 0)
(0.095526 0.000219696 0)
(0.0953554 0.000229469 0)
(0.0951806 0.00023969 0)
(0.0950016 0.000250377 0)
(0.0948184 0.000261554 0)
(0.0946307 0.00027326 0)
(0.0944385 0.000285586 0)
(0.0942415 0.000298763 0)
(0.0999997 2.20886e-06 0)
(0.099995 6.569e-06 0)
(0.099985 1.08657e-05 0)
(0.0999705 1.5119e-05 0)
(0.0999517 1.93525e-05 0)
(0.0999288 2.3587e-05 0)
(0.0999019 2.78393e-05 0)
(0.0998711 3.2124e-05 0)
(0.0998366 3.64611e-05 0)
(0.0997984 4.08909e-05 0)
(0.0997567 4.54918e-05 0)
(0.0997113 5.03898e-05 0)
(0.099662 5.57517e-05 0)
(0.0996086 6.17574e-05 0)
(0.0995506 6.85585e-05 0)
(0.0994874 7.62339e-05 0)
(0.0994184 8.47591e-05 0)
(0.0993434 9.39969e-05 0)
(0.0992619 0.000103714 0)
(0.099174 0.000113616 0)
(0.09908 0.000123394 0)
(0.0989804 0.000132774 0)
(0.0988757 0.000141544 0)
(0.0987667 0.000149585 0)
(0.0986543 0.000156865 0)
(0.0985391 0.000163439 0)
(0.0984217 0.000169426 0)
(0.0983027 0.000174987 0)
(0.0981823 0.000180306 0)
(0.0980608 0.000185565 0)
(0.0979382 0.000190935 0)
(0.0978145 0.000196565 0)
(0.0976897 0.000202576 0)
(0.0975634 0.000209063 0)
(0.0974356 0.000216094 0)
(0.097306 0.000223715 0)
(0.0971744 0.000231958 0)
(0.0970405 0.000240838 0)
(0.0969042 0.000250365 0)
(0.0967651 0.000260542 0)
(0.0966233 0.00027137 0)
(0.0964784 0.00028285 0)
(0.0963303 0.000294983 0)
(0.0961789 0.000307775 0)
(0.096024 0.000321231 0)
(0.0958655 0.000335361 0)
(0.0957033 0.000350179 0)
(0.0955373 0.0003657 0)
(0.0953673 0.000381943 0)
(0.0951933 0.00039893 0)
(0.0950152 0.00041669 0)
(0.0948328 0.00043526 0)
(0.0946461 0.000454704 0)
(0.0944548 0.000475164 0)
(0.094259 0.000497007 0)
(0.0999997 3.0904e-06 0)
(0.099995 9.19019e-06 0)
(0.099985 1.52016e-05 0)
(0.0999706 2.1152e-05 0)
(0.0999518 2.70747e-05 0)
(0.099929 3.29987e-05 0)
(0.0999021 3.89474e-05 0)
(0.0998714 4.49413e-05 0)
(0.0998369 5.10084e-05 0)
(0.0997988 5.72048e-05 0)
(0.0997572 6.36395e-05 0)
(0.0997119 7.04883e-05 0)
(0.0996628 7.79835e-05 0)
(0.0996095 8.63763e-05 0)
(0.0995517 9.58783e-05 0)
(0.0994887 0.000106601 0)
(0.09942 0.00011851 0)
(0.0993452 0.000131416 0)
(0.0992641 0.000144994 0)
(0.0991766 0.000158835 0)
(0.099083 0.000172508 0)
(0.0989837 0.000185628 0)
(0.0988794 0.000197903 0)
(0.0987709 0.00020916 0)
(0.0986589 0.000219358 0)
(0.0985441 0.000228569 0)
(0.0984271 0.00023696 0)
(0.0983083 0.000244753 0)
(0.0981883 0.000252204 0)
(0.0980671 0.000259568 0)
(0.0979448 0.000267083 0)
(0.0978215 0.000274957 0)
(0.097697 0.000283359 0)
(0.0975711 0.000292421 0)
(0.0974437 0.000302239 0)
(0.0973145 0.00031288 0)
(0.0971833 0.000324385 0)
(0.0970499 0.000336779 0)
(0.0969141 0.000350073 0)
(0.0967756 0.000364274 0)
(0.0966344 0.000379381 0)
(0.0964901 0.000395397 0)
(0.0963428 0.000412324 0)
(0.0961921 0.000430168 0)
(0.096038 0.000448938 0)
(0.0958804 0.000468647 0)
(0.0957192 0.000489312 0)
(0.0955541 0.000510956 0)
(0.0953852 0.000533603 0)
(0.0952124 0.000557285 0)
(0.0950354 0.000582039 0)
(0.0948543 0.000607915 0)
(0.094669 0.000634997 0)
(0.0944793 0.000663467 0)
(0.094285 0.000693794 0)
(0.0999997 3.96997e-06 0)
(0.099995 1.18048e-05 0)
(0.0999851 1.95269e-05 0)
(0.0999707 2.71701e-05 0)
(0.099952 3.47777e-05 0)
(0.0999292 4.23867e-05 0)
(0.0999024 5.00273e-05 0)
(0.0998717 5.77258e-05 0)
(0.0998374 6.5518e-05 0)
(0.0997994 7.34756e-05 0)
(0.0997579 8.17379e-05 0)
(0.0997128 9.05291e-05 0)
(0.0996638 0.000100147 0)
(0.0996108 0.000110912 0)
(0.0995531 0.000123096 0)
(0.0994904 0.000136843 0)
(0.0994221 0.000152112 0)
(0.0993477 0.000168661 0)
(0.0992669 0.000186076 0)
(0.0991799 0.000203834 0)
(0.0990868 0.000221386 0)
(0.0989881 0.000238237 0)
(0.0988844 0.000254009 0)
(0.0987764 0.000268484 0)
(0.0986649 0.000281602 0)
(0.0985506 0.000293457 0)
(0.098434 0.000304257 0)
(0.0983158 0.000314288 0)
(0.0981962 0.000323873 0)
(0.0980754 0.000333341 0)
(0.0979536 0.000342995 0)
(0.0978307 0.000353102 0)
(0.0977066 0.000363879 0)
(0.0975812 0.000375495 0)
(0.0974543 0.000388075 0)
(0.0973257 0.000401704 0)
(0.0971951 0.000416436 0)
(0.0970623 0.000432303 0)
(0.0969272 0.000449322 0)
(0.0967895 0.000467498 0)
(0.0966491 0.000486834 0)
(0.0965057 0.000507331 0)
(0.0963593 0.000528992 0)
(0.0962096 0.000551825 0)
(0.0960566 0.00057584 0)
(0.0959002 0.000601054 0)
(0.0957402 0.000627489 0)
(0.0955765 0.000655171 0)
(0.095409 0.000684132 0)
(0.0952376 0.000714409 0)
(0.0950623 0.000746049 0)
(0.0948829 0.000779112 0)
(0.0946994 0.000813694 0)
(0.0945116 0.000850003 0)
(0.0943194 0.000888564 0)
(0.0999997 4.84718e-06 0)
(0.099995 1.44109e-05 0)
(0.0999851 2.38387e-05 0)
(0.0999708 3.31693e-05 0)
(0.0999522 4.24561e-05 0)
(0.0999294 5.17445e-05 0)
(0.0999027 6.10712e-05 0)
(0.0998722 7.04684e-05 0)
(0.099838 7.99795e-05 0)
(0.0998002 8.96914e-05 0)
(0.0997588 9.9773e-05 0)
(0.0997138 0.000110496 0)
(0.0996651 0.000122222 0)
(0.0996123 0.000135341 0)
(0.0995549 0.000150184 0)
(0.0994925 0.000166928 0)
(0.0994246 0.000185526 0)
(0.0993507 0.000205686 0)
(0.0992705 0.000226909 0)
(0.0991841 0.000248558 0)
(0.0990916 0.000269968 0)
(0.0989935 0.000290534 0)
(0.0988905 0.000309799 0)
(0.0987831 0.000327488 0)
(0.0986723 0.000343531 0)
(0.0985586 0.000358036 0)
(0.0984427 0.000371252 0)
(0.098325 0.000383525 0)
(0.0982059 0.000395248 0)
(0.0980857 0.000406817 0)
(0.0979644 0.000418602 0)
(0.0978421 0.000430927 0)
(0.0977186 0.000444058 0)
(0.0975938 0.000458202 0)
(0.0974675 0.00047351 0)
(0.0973396 0.000490088 0)
(0.0972097 0.000508003 0)
(0.0970778 0.000527293 0)
(0.0969435 0.00054798 0)
(0.0968067 0.000570072 0)
(0.0966673 0.000593571 0)
(0.096525 0.000618478 0)
(0.0963798 0.000644798 0)
(0.0962314 0.000672539 0)
(0.0960798 0.000701713 0)
(0.0959248 0.00073234 0)
(0.0957663 0.000764444 0)
(0.0956042 0.000798057 0)
(0.0954385 0.000833217 0)
(0.095269 0.000869965 0)
(0.0950956 0.000908355 0)
(0.0949183 0.000948454 0)
(0.0947371 0.000990363 0)
(0.0945517 0.00103429 0)
(0.0943622 0.00108077 0)
(0.0999997 5.72131e-06 0)
(0.099995 1.70072e-05 0)
(0.0999852 2.81341e-05 0)
(0.0999709 3.91454e-05 0)
(0.0999524 5.01048e-05 0)
(0.0999297 6.10657e-05 0)
(0.0999031 7.20715e-05 0)
(0.0998727 8.316e-05 0)
(0.0998387 9.43823e-05 0)
(0.099801 0.00010584 0)
(0.0997598 0.000117731 0)
(0.0997151 0.000130374 0)
(0.0996666 0.000144191 0)
(0.0996141 0.000159642 0)
(0.0995571 0.000177117 0)
(0.0994951 0.000196826 0)
(0.0994276 0.000218716 0)
(0.0993542 0.00024245 0)
(0.0992747 0.000267444 0)
(0.099189 0.000292953 0)
(0.0990972 0.000318195 0)
(0.0989999 0.000342461 0)
(0.0988976 0.000365208 0)
(0.0987911 0.000386111 0)
(0.098681 0.000405082 0)
(0.098568 0.000422242 0)
(0.0984528 0.000437881 0)
(0.0983358 0.000452402 0)
(0.0982174 0.000466263 0)
(0.0980979 0.000479929 0)
(0.0979772 0.000493835 0)
(0.0978556 0.000508361 0)
(0.0977328 0.00052382 0)
(0.0976087 0.000540458 0)
(0.0974832 0.000558454 0)
(0.0973561 0.000577934 0)
(0.0972271 0.000598976 0)
(0.0970961 0.00062163 0)
(0.0969629 0.000645919 0)
(0.0968273 0.000671853 0)
(0.0966891 0.000699436 0)
(0.0965481 0.00072867 0)
(0.0964042 0.000759558 0)
(0.0962573 0.000792109 0)
(0.0961073 0.000826338 0)
(0.095954 0.000862266 0)
(0.0957974 0.000899921 0)
(0.0956373 0.000939338 0)
(0.0954736 0.000980557 0)
(0.0953063 0.00102363 0)
(0.0951353 0.00106861 0)
(0.0949605 0.00111556 0)
(0.0947819 0.00116459 0)
(0.0945994 0.00121588 0)
(0.0944129 0.00126985 0)
(0.0940294 0.000104563 -4.42275e-24)
(0.093818 0.000109763 -4.51084e-24)
(0.0935967 0.000115306 -3.17569e-26)
(0.0933648 0.000121217 1.38674e-23)
(0.0931215 0.000127529 -4.59313e-24)
(0.0928662 0.000134275 -4.73004e-24)
(0.092598 0.000141493 -1.45722e-23)
(0.092316 0.000149228 1.44678e-23)
(0.0920193 0.000157527 4.95301e-24)
(0.0917068 0.000166444 0)
(0.0913773 0.00017604 5.12017e-24)
(0.0910295 0.00018638 -5.21002e-24)
(0.0906621 0.000197543 4.28776e-23)
(0.0902735 0.000209612 -9.1908e-23)
(0.089862 0.000222684 4.91337e-23)
(0.0894257 0.000236867 3.98382e-23)
(0.0889624 0.000252287 5.11202e-23)
(0.08847 0.000269081 -5.85635e-24)
(0.0879457 0.000287412 5.98548e-24)
(0.0873866 0.000307461 -6.12194e-24)
(0.0867896 0.000329441 0)
(0.086151 0.000353595 6.41916e-24)
(0.0854666 0.000380205 -6.5812e-24)
(0.0847318 0.0004096 0)
(0.0839413 0.000442162 -6.93582e-24)
(0.0830891 0.000478342 0)
(0.0821683 0.000518673 -7.33694e-24)
(0.0811711 0.000563787 -1.22952e-22)
(0.0800883 0.000614439 1.30557e-22)
(0.0789093 0.000671537 -1.31034e-22)
(0.0776218 0.000736178 1.30834e-22)
(0.0762113 0.000809694 0)
(0.0746609 0.000893715 0)
(0.0729503 0.000990231 1.60211e-22)
(0.0710555 0.00110167 -1.5074e-22)
(0.0689477 0.00123098 0)
(0.0665925 0.00138168 0)
(0.0639489 0.00155783 0)
(0.0609682 0.00176388 0)
(0.0575938 0.00200424 0)
(0.0537618 0.00228233 0)
(0.0494038 0.00259882 0)
(0.0444537 0.00294881 0)
(0.0388604 0.00331715 0)
(0.0326118 0.00367166 -1.46866e-23)
(0.0257725 0.00395331 -5.03415e-22)
(0.0185256 0.00406443 5.0266e-22)
(0.0112423 0.00385613 5.45648e-22)
(0.00480834 0.00310001 -5.44829e-22)
(0.000979077 0.00143909 0)
(0.0940385 0.000313482 -4.47562e-24)
(0.0938273 0.000329052 -9.1327e-24)
(0.0936062 0.000345645 -4.79192e-24)
(0.0933745 0.000363344 4.45748e-24)
(0.0931315 0.000382241 -4.65832e-24)
(0.0928765 0.000402439 3.33994e-23)
(0.0926086 0.000424053 -5.24544e-23)
(0.0923271 0.000447214 4.87406e-24)
(0.0920308 0.000472066 6.5088e-23)
(0.0917188 0.00049877 -8.98925e-23)
(0.0913899 0.000527506 -8.78365e-23)
(0.0910428 0.000558478 7.73986e-23)
(0.0906762 0.000591912 0)
(0.0902884 0.000628064 5.40904e-24)
(0.0898778 0.000667223 -1.65351e-23)
(0.0894426 0.000709715 -1.87597e-22)
(0.0889805 0.00075591 1.80093e-22)
(0.0884894 0.000806229 -1.91444e-22)
(0.0879666 0.000861152 -1.79824e-23)
(0.0874093 0.00092123 6.13537e-24)
(0.0868142 0.000987096 0)
(0.0861778 0.00105948 -6.43579e-24)
(0.085496 0.00113923 -2.07444e-22)
(0.0847641 0.00122732 4.33532e-22)
(0.083977 0.00132491 2.39209e-22)
(0.0831287 0.00143334 -4.51129e-22)
(0.0822126 0.00155422 4.8586e-22)
(0.0812207 0.00168943 -4.9301e-22)
(0.0801443 0.00184122 -7.82363e-24)
(0.0789729 0.00201232 0)
(0.0776945 0.002206 0)
(0.0762951 0.00242624 0)
(0.0747582 0.00267788 0)
(0.0730641 0.00296686 -9.2867e-24)
(0.0711899 0.00330039 -6.29386e-22)
(0.0691079 0.0036872 -2.62926e-23)
(0.0667854 0.0041377 6.53974e-22)
(0.0641832 0.00466388 7.11351e-22)
(0.0612552 0.00527881 -7.10409e-22)
(0.0579479 0.00599534 -2.35672e-23)
(0.0542006 0.0068232 -2.45964e-23)
(0.0499482 0.00776394 -8.46876e-22)
(0.0451263 0.00880216 8.18995e-22)
(0.0396828 0.00989202 -2.78598e-23)
(0.0335978 0.010937 1.47892e-23)
(0.0269167 0.0117609 -1.02376e-21)
(0.0197868 0.0120729 1.02337e-21)
(0.0125188 0.0114309 -2.13384e-21)
(0.00587883 0.00916534 2.09815e-21)
(0.00141371 0.00422387 -2.1493e-21)
(0.0940567 0.000521393 -2.64694e-23)
(0.0938459 0.000547246 -9.29878e-24)
(0.0936252 0.000574793 3.5841e-23)
(0.0933939 0.000604175 -7.37754e-23)
(0.0931515 0.000635545 1.57891e-22)
(0.0928971 0.000669077 -7.48082e-23)
(0.09263 0.000704963 1.4193e-26)
(0.0923493 0.00074342 9.72076e-24)
(0.092054 0.000784689 1.69579e-22)
(0.0917431 0.00082904 -1.59518e-22)
(0.0914154 0.000876772 0)
(0.0910697 0.000928224 1.45695e-26)
(0.0907046 0.000983774 0)
(0.0903185 0.00104385 1.85819e-22)
(0.0899099 0.00110892 -1.63792e-22)
(0.0894768 0.00117955 -3.53299e-22)
(0.0890172 0.00125634 1.97147e-23)
(0.0885289 0.00133999 -3.72079e-22)
(0.0880092 0.00143131 1.20325e-23)
(0.0874554 0.00153121 -3.98778e-22)
(0.0868644 0.00164074 4.10995e-22)
(0.0862325 0.00176112 -4.18944e-22)
(0.0855559 0.00189377 4.31789e-22)
(0.0848301 0.0020403 1.35923e-23)
(0.0840499 0.00220264 -1.3966e-23)
(0.0832098 0.00238303 1.4363e-23)
(0.082303 0.00258411 -4.81134e-22)
(0.0813222 0.00280902 4.95946e-22)
(0.0802588 0.00306151 5.27663e-22)
(0.0791029 0.00334606 -5.11467e-22)
(0.0778432 0.00366809 0)
(0.0764662 0.00403416 0)
(0.0749566 0.00445224 1.79616e-23)
(0.0732963 0.00493204 1.23717e-21)
(0.0714638 0.00548536 2.91839e-23)
(0.0694341 0.00612642 -1.24463e-21)
(0.0671775 0.00687206 0)
(0.0646588 0.00774156 -2.17185e-23)
(0.0618372 0.00875577 1.51104e-21)
(0.0586649 0.00993476 -3.01532e-21)
(0.055088 0.0112932 3.19389e-21)
(0.0510475 0.0128315 9.46135e-23)
(0.0464829 0.0145223 -1.6572e-21)
(0.0413397 0.0162875 -1.79049e-21)
(0.0355822 0.0179666 1.84526e-21)
(0.0292163 0.0192701 1.4181e-24)
(0.0223168 0.0197206 -3.13147e-23)
(0.0150743 0.0185924 2.06271e-21)
(0.00800254 0.0148204 -1.9974e-21)
(0.00224867 0.00676564 -1.99784e-21)
(0.094084 0.000727606 1.74376e-23)
(0.0938736 0.000763584 -8.85219e-24)
(0.0936535 0.00080191 1.95317e-26)
(0.0934231 0.000842783 9.11481e-24)
(0.0931815 0.000886422 -1.96265e-26)
(0.0929282 0.00093307 1.51549e-22)
(0.0926622 0.000983 -2.86421e-22)
(0.0923829 0.00103652 1.53959e-22)
(0.0920891 0.00109395 -9.86118e-24)
(0.0917799 0.00115569 1.82352e-22)
(0.0914541 0.00122215 -1.62203e-22)
(0.0911106 0.00129379 -3.36829e-22)
(0.0907479 0.00137116 6.80211e-22)
(0.0903646 0.00145484 -6.9382e-22)
(0.089959 0.00154551 7.08082e-22)
(0.0895293 0.00164392 -7.11821e-22)
(0.0890736 0.00175093 -3.76892e-22)
(0.0885896 0.00186753 2.24609e-26)
(0.0880748 0.00199484 0)
(0.0875266 0.00213412 -3.8833e-22)
(0.0869419 0.00228686 4.00518e-22)
(0.0863172 0.00245475 0)
(0.0856488 0.00263975 -8.65388e-22)
(0.0849324 0.00284415 8.51344e-22)
(0.0841632 0.00307061 1.4099e-23)
(0.0833356 0.00332225 -3.69222e-26)
(0.0824436 0.00360276 1.49022e-23)
(0.08148 0.00391651 0)
(0.080437 0.00426867 -5.29159e-26)
(0.0793053 0.00466547 0)
(0.0780744 0.00511438 -1.69124e-23)
(0.0767323 0.00562442 1.14329e-21)
(0.075265 0.00620654 -1.14298e-21)
(0.0736566 0.00687401 -1.88991e-23)
(0.0718883 0.00764285 3.91029e-23)
(0.0699386 0.00853226 -1.34704e-21)
(0.0677826 0.00956479 1.30517e-21)
(0.0653911 0.010766 2.20941e-23)
(0.0627307 0.0121631 -3.52705e-25)
(0.0597627 0.0137816 2.35307e-23)
(0.0564431 0.0156385 -1.6138e-21)
(0.052722 0.0177308 3.26079e-21)
(0.0485449 0.0200159 -1.69902e-21)
(0.0438532 0.0223823 1.754e-21)
(0.0385882 0.0246066 -1.83621e-21)
(0.0326957 0.0262941 -3.6444e-21)
(0.0261369 0.0267979 7.43478e-21)
(0.0189223 0.0251257 -3.7637e-21)
(0.0112227 0.0198533 0)
(0.00348831 0.0089554 -3.54195e-21)
(0.09412 0.00093147 -8.64848e-24)
(0.0939104 0.000977344 -3.53473e-23)
(0.0936912 0.0010262 1.07183e-22)
(0.0934619 0.00107829 -1.4477e-22)
(0.0932216 0.00113391 6.37712e-23)
(0.0929697 0.00119338 9.3574e-24)
(0.0927055 0.00125704 -9.5173e-24)
(0.0924281 0.00132529 -2.4628e-26)
(0.0921365 0.00139855 9.85929e-24)
(0.0918298 0.00147732 -2.00601e-23)
(0.0915068 0.00156212 -3.30264e-22)
(0.0911663 0.00165357 3.40848e-22)
(0.0908071 0.00175233 -3.33134e-22)
(0.0904276 0.00185917 3.43886e-22)
(0.0900264 0.00197495 0)
(0.0896016 0.00210063 -2.47796e-26)
(0.0891513 0.00223732 0)
(0.0886734 0.00238628 -3.72102e-22)
(0.0881656 0.00254893 3.9628e-22)
(0.0876252 0.00272691 -1.24587e-23)
(0.0870494 0.0029221 -8.40114e-22)
(0.0864349 0.00313668 8.27714e-22)
(0.0857781 0.00337314 -1.34682e-23)
(0.085075 0.00363441 0)
(0.0843212 0.00392388 0)
(0.0835114 0.00424553 -9.66037e-22)
(0.0826402 0.00460405 9.36687e-22)
(0.0817009 0.00500498 0)
(0.0806865 0.00545489 -3.21424e-23)
(0.0795886 0.00596164 0)
(0.0783982 0.00653463 1.72092e-23)
(0.0771046 0.00718518 -1.77312e-23)
(0.0756963 0.00792693 -1.8466e-23)
(0.0741597 0.00877634 1.90251e-23)
(0.07248 0.00975312 1.25139e-21)
(0.0706403 0.0108807 -1.29158e-21)
(0.0686218 0.0121863 2.80513e-21)
(0.0664035 0.0137004 -2.80692e-21)
(0.0639618 0.0154545 2.97574e-21)
(0.0612699 0.0174771 8.32455e-23)
(0.0582967 0.0197849 -3.13342e-21)
(0.0550049 0.0223682 -2.49923e-23)
(0.0513477 0.025167 1.23876e-24)
(0.0472625 0.0280361 1.63532e-24)
(0.0426624 0.0306944 2.1523e-24)
(0.0374179 0.0326567 -5.39529e-23)
(0.0313379 0.0331378 -2.47785e-23)
(0.0241805 0.0309178 -2.35892e-23)
(0.0156695 0.0242288 0)
(0.0051552 0.0107864 7.24204e-24)
(0.0941647 0.00113235 -4.2918e-23)
(0.0939561 0.00118788 2.58168e-23)
(0.0937383 0.00124703 8.83901e-24)
(0.0935104 0.00131012 1.35757e-22)
(0.093272 0.0013775 -1.35805e-22)
(0.0930222 0.00144958 1.40605e-22)
(0.0927604 0.00152677 -3.12162e-22)
(0.0924856 0.00160956 4.4461e-22)
(0.092197 0.00169846 -3.11466e-22)
(0.0918936 0.00179407 -3.23332e-22)
(0.0915744 0.00189705 -1.63451e-23)
(0.0912381 0.00200812 6.56936e-22)
(0.0908835 0.00212812 -6.92209e-22)
(0.0905092 0.00225797 3.22908e-22)
(0.0901138 0.00239872 3.48709e-22)
(0.0896955 0.00255155 3.64758e-22)
(0.0892526 0.00271782 -2.83038e-23)
(0.0887829 0.00289904 7.43398e-22)
(0.0882844 0.00309698 7.68115e-22)
(0.0877546 0.00331362 1.96007e-23)
(0.0871907 0.00355126 -8.14523e-22)
(0.0865898 0.00381255 0)
(0.0859486 0.00410054 0)
(0.0852634 0.00441879 -9.08701e-22)
(0.0845302 0.00477143 8.95649e-22)
(0.0837443 0.00516329 9.65056e-22)
(0.0829008 0.00560006 -9.66486e-22)
(0.0819939 0.00608844 0)
(0.0810176 0.00663634 1.07909e-21)
(0.0799648 0.00725321 -1.08117e-21)
(0.0788279 0.00795027 0)
(0.0775986 0.00874095 -2.33902e-21)
(0.0762676 0.0096413 2.36069e-21)
(0.0748252 0.0106705 -1.95052e-23)
(0.0732608 0.0118511 -2.60752e-21)
(0.0715636 0.0132097 2.63172e-21)
(0.0697224 0.0147763 0)
(0.0677259 0.0165834 2.94959e-21)
(0.0655629 0.0186634 -2.93139e-21)
(0.0632212 0.0210423 2.37274e-23)
(0.0606862 0.0237299 3.22779e-21)
(0.0579366 0.0267018 -6.47316e-21)
(0.0549369 0.0298732 2.10979e-23)
(0.0516236 0.0330597 3.76972e-23)
(0.047882 0.0359252 3.35219e-21)
(0.0435053 0.0379135 3.70448e-24)
(0.0381338 0.0381502 -2.88321e-21)
(0.0312032 0.0352837 2.95574e-21)
(0.0217652 0.0273589 0)
(0.00748812 0.0119746 2.66237e-23)
(0.0942179 0.00132942 8.45095e-24)
(0.0940109 0.00139404 7.78939e-23)
(0.0937949 0.00146297 -6.9466e-23)
(0.0935693 0.00153656 8.92291e-24)
(0.0933334 0.00161524 1.37233e-22)
(0.0930866 0.00169946 -1.37448e-22)
(0.0928279 0.00178972 -2.94691e-22)
(0.0925568 0.00188659 4.29849e-24)
(0.0922722 0.00199069 -5.59279e-24)
(0.0919733 0.00210271 3.27525e-22)
(0.091659 0.00222343 -3.2014e-22)
(0.0913282 0.00235373 6.79444e-22)
(0.0909798 0.00249458 -3.38609e-22)
(0.0906124 0.00264709 1.09507e-23)
(0.0902247 0.0028125 1.12098e-23)
(0.089815 0.00299223 7.41827e-22)
(0.0893818 0.00318787 -5.06941e-24)
(0.088923 0.00340126 7.74591e-22)
(0.0884368 0.00363447 1.23857e-23)
(0.0879209 0.00388988 0)
(0.0873729 0.00417024 0)
(0.08679 0.0044787 -8.70386e-22)
(0.0861694 0.0048189 8.72586e-22)
(0.0855078 0.00519508 0)
(0.0848018 0.00561215 1.46867e-23)
(0.0840474 0.00607588 0)
(0.0832405 0.00659302 -1.01446e-21)
(0.0823763 0.00717149 2.06538e-21)
(0.0814501 0.00782068 -1.051e-21)
(0.0804564 0.00855168 -2.22702e-21)
(0.0793896 0.00937762 -7.43615e-23)
(0.0782437 0.0103141 -7.83171e-23)
(0.0770129 0.0113795 -8.21531e-23)
(0.0756913 0.0125956 2.50217e-21)
(0.0742736 0.0139874 2.68259e-21)
(0.0727555 0.0155835 -2.68898e-21)
(0.0711343 0.017415 0)
(0.0694092 0.0195133 2.9705e-21)
(0.0675821 0.0219059 -2.97741e-21)
(0.0656564 0.0246084 -3.15694e-21)
(0.0636352 0.0276109 3.13955e-21)
(0.0615149 0.0308572 2.56375e-23)
(0.0592745 0.0342155 3.14883e-21)
(0.0568556 0.0374388 -1.03594e-22)
(0.0541289 0.0401166 -3.11015e-21)
(0.0508342 0.0416255 2.37402e-23)
(0.0464942 0.0410687 0)
(0.0403046 0.0371533 -1.89995e-23)
(0.0304991 0.0281256 -9.3348e-22)
(0.0120526 0.0119056 4.10952e-22)
(-0.000194519 0.000265662 0)
(-0.000855154 0.00051198 3.15775e-22)
(-0.00185247 0.00058002 -3.1625e-22)
(-0.00287909 0.000550503 -3.16013e-22)
(-0.00378824 0.000467881 3.16488e-22)
(-0.0045211 0.000358455 -9.78474e-24)
(-0.00504936 0.00023806 0)
(-0.00536132 0.000115935 0)
(-0.00545465 -2.74678e-06 0)
(-0.00534016 -0.000117695 0)
(-0.00503075 -0.000226381 0)
(-0.00453367 -0.000328134 0)
(-0.00385935 -0.000423037 0)
(-0.00301885 -0.000511384 0)
(-0.00202263 -0.000593561 0)
(-0.000880836 -0.000669628 1.13879e-22)
(0.000396592 -0.000739941 -1.07077e-22)
(0.00180022 -0.000804756 0)
(0.00332087 -0.000864266 0)
(0.00494959 -0.000918643 -9.17061e-23)
(0.00667767 -0.000968028 9.18462e-23)
(0.00849661 -0.00101251 -7.52105e-23)
(0.0103978 -0.00105213 4.87501e-24)
(0.0123727 -0.00108695 0)
(0.0144129 -0.00111705 4.18587e-24)
(0.0165102 -0.00114259 0)
(0.0186565 -0.00116372 0)
(0.020844 -0.00118057 0)
(0.0230649 -0.00119329 2.90053e-24)
(0.0253118 -0.00120203 0)
(0.0275775 -0.00120693 -2.3233e-24)
(0.0298549 -0.00120817 2.05418e-24)
(0.0321372 -0.00120589 -1.79885e-24)
(0.034418 -0.00120029 1.30043e-23)
(0.0366909 -0.00119154 -1.27955e-23)
(0.03895 -0.00117982 -6.95046e-24)
(0.0411898 -0.00116533 1.37173e-23)
(0.0434049 -0.00114826 -6.56727e-24)
(0.0455903 -0.0011288 -5.71341e-25)
(0.0477416 -0.00110717 4.17323e-25)
(0.0498543 -0.00108355 0)
(0.0519248 -0.00105816 1.5008e-25)
(0.0539494 -0.0010312 5.2471e-26)
(0.0559251 -0.00100287 -1.54633e-25)
(0.057849 -0.000973362 1.56616e-25)
(0.0597189 -0.000942879 -7.88434e-25)
(0.0615327 -0.000911606 2.47639e-25)
(0.0632887 -0.000879715 7.60345e-25)
(0.0649855 -0.000847351 -3.95702e-25)
(0.0666222 -0.000814625 4.58952e-25)
(-0.00025443 0.000764226 -1.19636e-21)
(-0.00095846 0.00146829 -1.30753e-21)
(-0.00187515 0.0016634 1.2889e-21)
(-0.00277173 0.00157743 -6.20838e-22)
(-0.00353827 0.00133728 6.21857e-22)
(-0.00413218 0.00101912 9.85265e-24)
(-0.00453342 0.000668576 -1.95635e-23)
(-0.00473382 0.000312109 -6.24043e-22)
(-0.00473424 -3.52932e-05 6.05642e-22)
(-0.00454338 -0.000371415 -1.83332e-23)
(-0.00417032 -0.000689885 -1.78307e-23)
(-0.00362249 -0.000988896 5.41224e-22)
(-0.00290898 -0.0012683 -5.41944e-22)
(-0.00203948 -0.00152881 -5.02416e-22)
(-0.00102284 -0.00177155 2.13373e-23)
(0.000131969 -0.00199644 4.82389e-22)
(0.00141574 -0.00220459 -7.00943e-24)
(0.00281999 -0.00239667 -1.34462e-23)
(0.00433631 -0.00257317 0)
(0.00595638 -0.00273456 0)
(0.00767208 -0.00288124 0)
(0.00947532 -0.00301348 -5.24675e-24)
(0.011358 -0.0031314 2.88217e-22)
(0.013312 -0.00323512 -3.12616e-22)
(0.0153292 -0.00332497 2.54817e-22)
(0.0174019 -0.00340133 -1.40508e-22)
(0.019522 -0.00346465 -2.27504e-22)
(0.0216822 -0.00351533 1.08635e-22)
(0.0238749 -0.00355375 -2.908e-24)
(0.0260928 -0.00358035 -5.31639e-24)
(0.0283291 -0.00359556 2.32837e-24)
(0.0305767 -0.00359983 -6.25947e-24)
(0.0328291 -0.00359366 5.23026e-23)
(0.03508 -0.00357755 -1.02482e-22)
(0.0373231 -0.00355203 4.53207e-23)
(0.0395528 -0.00351764 -3.43017e-24)
(0.0417634 -0.00347495 9.22972e-25)
(0.0439498 -0.00342454 0)
(0.0461072 -0.003367 -8.68462e-24)
(0.048231 -0.00330292 7.64961e-24)
(0.0503171 -0.00323291 2.94061e-24)
(0.0523616 -0.00315756 -4.04557e-24)
(0.0543611 -0.0030775 3.5861e-26)
(0.0563124 -0.0029933 -6.79624e-25)
(0.058213 -0.00290558 9.58854e-25)
(0.0600604 -0.00281491 2.35966e-25)
(0.0618525 -0.00272184 2.20258e-24)
(0.0635879 -0.00262689 5.56245e-25)
(0.065265 -0.0025305 -6.78485e-25)
(0.0668827 -0.00243296 -1.32387e-24)
(-0.000358953 0.00116971 -1.2355e-21)
(-0.00112844 0.00222351 1.3567e-21)
(-0.00187308 0.00252327 -1.3162e-21)
(-0.00251177 0.00238889 -2.057e-23)
(-0.00300119 0.00201443 -3.06642e-25)
(-0.00332787 0.00151807 -1.26446e-21)
(-0.00348697 0.000969093 1.30593e-21)
(-0.00347585 0.000407827 1.25595e-21)
(-0.00329927 -0.000141347 -1.08097e-23)
(-0.00296339 -0.000673726 -2.36611e-21)
(-0.00247134 -0.00118041 2.33664e-21)
(-0.00182887 -0.00165869 -1.125e-21)
(-0.0010424 -0.00210737 -1.70874e-23)
(-0.000119373 -0.00252716 0)
(0.000934523 -0.0029189 9.99477e-22)
(0.0021126 -0.00328347 -5.94912e-23)
(0.00340686 -0.00362193 -9.26681e-22)
(0.00481075 -0.00393497 2.73376e-23)
(0.00631733 -0.00422325 0)
(0.0079195 -0.00448741 0)
(0.00961015 -0.004728 3.56039e-22)
(0.0113822 -0.00494537 -3.45497e-22)
(0.0132283 -0.00513964 -3.00109e-22)
(0.0151412 -0.00531103 3.19643e-22)
(0.0171134 -0.0054598 8.7434e-24)
(0.0191377 -0.00558667 -8.05482e-24)
(0.0212069 -0.00569226 7.38284e-24)
(0.0233138 -0.0057772 -1.95428e-22)
(0.0254515 -0.0058421 2.02349e-22)
(0.0276132 -0.00588759 -1.5273e-22)
(0.0297923 -0.00591438 1.63718e-22)
(0.0319822 -0.00592317 4.2178e-24)
(0.0341766 -0.00591475 1.11956e-22)
(0.0363694 -0.00588992 -2.0564e-22)
(0.0385549 -0.00584954 9.9616e-23)
(0.0407274 -0.00579449 3.68339e-23)
(0.0428816 -0.00572569 -3.25329e-23)
(0.0450125 -0.00564407 0)
(0.0471155 -0.00555061 -9.21592e-26)
(0.0491861 -0.00544626 0)
(0.0512203 -0.00533204 8.02447e-24)
(0.0532145 -0.00520892 -7.76638e-24)
(0.0551652 -0.00507789 1.8445e-25)
(0.0570695 -0.00493996 -6.4862e-26)
(0.0589246 -0.0047961 -2.72163e-24)
(0.0607283 -0.00464726 6.16524e-24)
(0.0624786 -0.00449437 -3.93767e-24)
(0.0641738 -0.00433826 2.87922e-24)
(0.0658124 -0.00417965 -2.03153e-24)
(0.0673935 -0.00401897 -8.08799e-25)
(-0.000480767 0.00140618 -2.64929e-21)
(-0.00128608 0.00266303 0)
(-0.00174078 0.00303763 2.76562e-21)
(-0.00200224 0.00286615 -5.53809e-21)
(-0.00209731 0.00239527 2.79351e-21)
(-0.00205083 0.00176969 1.28884e-21)
(-0.00187699 0.00107265 -1.35216e-21)
(-0.00157663 0.000354477 1.27673e-21)
(-0.00115814 -0.000353116 -2.54278e-21)
(-0.000625906 -0.00104451 1.24643e-21)
(2.50712e-05 -0.00170705 1.88115e-23)
(0.000793062 -0.00233609 2.41567e-25)
(0.00167583 -0.00293014 1.73814e-23)
(0.00266923 -0.00348926 -1.07396e-21)
(0.00377036 -0.00401329 1.04129e-21)
(0.00497573 -0.00450357 3.10243e-23)
(0.00628058 -0.00496052 -1.46814e-23)
(0.00768028 -0.00538466 8.77292e-22)
(0.00916976 -0.00577663 -8.77359e-22)
(0.0107436 -0.006137 -1.27419e-23)
(0.0123962 -0.00646628 0)
(0.0141218 -0.00676476 2.47907e-25)
(0.0159142 -0.00703253 0)
(0.0177669 -0.00726953 9.78725e-24)
(0.0196739 -0.00747618 2.35483e-25)
(0.0216284 -0.00765309 8.13111e-24)
(0.0236241 -0.00780118 -4.69052e-22)
(0.0256546 -0.00792119 4.61983e-22)
(0.0277136 -0.00801386 0)
(0.0297949 -0.00808 -1.70088e-22)
(0.0318923 -0.00812047 1.75483e-22)
(0.0339997 -0.00813621 0)
(0.0361114 -0.00812823 -1.75695e-25)
(0.0382216 -0.00809761 -1.05156e-22)
(0.0403248 -0.00804547 1.9197e-22)
(0.0424159 -0.00797301 -1.60484e-22)
(0.0444897 -0.00788145 1.34143e-22)
(0.0465416 -0.00777207 -1.09478e-22)
(0.048567 -0.00764617 4.87343e-23)
(0.0505619 -0.00750508 1.40716e-23)
(0.0525223 -0.00735017 -1.25978e-23)
(0.0544448 -0.00718277 -5.22961e-25)
(0.056326 -0.00700427 -1.79722e-24)
(0.058163 -0.00681602 5.76325e-25)
(0.0599533 -0.00661936 1.26819e-24)
(0.0616946 -0.00641562 7.55087e-26)
(0.063385 -0.00620606 -5.2454e-25)
(0.0650228 -0.00599186 -6.43453e-26)
(0.0666066 -0.00577397 7.55249e-25)
(0.0681353 -0.00555287 -1.63533e-24)
(-0.000537341 0.00140446 -1.44127e-24)
(-0.0012546 0.00271505 -2.45559e-23)
(-0.00130466 0.00312463 -2.38775e-23)
(-0.00108644 0.00293849 -2.3272e-23)
(-0.000699336 0.00242372 -4.4936e-23)
(-0.000210002 0.0017311 -4.27278e-25)
(0.000351363 0.000952639 2.1359e-23)
(0.000984995 0.000149068 -2.12178e-23)
(0.00167994 -0.000673518 -2.06902e-23)