/*--------------------------------*- C++ -*----------------------------------*\
| =========                 |                                                 |
| \\      /  F ield         | OpenFOAM: The Open Source CFD Toolbox           |
|  \\    /   O peration     | Version:  2412                                  |
|   \\  /    A nd           | Website:  www.openfoam.com                      |
|    \\/     M anipulation  |                                                 |
\*---------------------------------------------------------------------------*/
FoamFile
{
    version     2.0;
    format      ascii;
    arch        "LSB;label=32;scalar=64";
    class       volVectorField;
    location    "29";
    object      vorticity;
}
// * * * * * * * * * * * * * * * * * * * * * * * * * * * * * * * * * * * * * //

dimensions      [0 0 -1 0 0 0 0];

internalField   nonuniform List<vector> 
63420
(
(0 0 5.97181e-06)
(0 0 5.94492e-06)
(0 0 5.91903e-06)
(0 0 5.89449e-06)
(0 0 5.87129e-06)
(0 0 5.84748e-06)
(0 0 5.82066e-06)
(0 0 5.79516e-06)
(0 0 5.79366e-06)
(0 0 5.86609e-06)
(0 0 6.08613e-06)
(0 0 6.53079e-06)
(0 0 7.24728e-06)
(0 0 8.22033e-06)
(0 0 9.35427e-06)
(0 0 1.04796e-05)
(0 0 1.13832e-05)
(0 0 1.18536e-05)
(0 0 1.1727e-05)
(0 0 1.09209e-05)
(0 0 9.44878e-06)
(0 0 7.41308e-06)
(0 0 4.98267e-06)
(0 0 2.36099e-06)
(0 0 -2.46335e-07)
(0 0 -2.65857e-06)
(0 0 -4.73782e-06)
(0 0 -6.39715e-06)
(0 0 -7.59998e-06)
(0 0 -8.35318e-06)
(0 0 -8.69655e-06)
(0 0 -8.69129e-06)
(0 0 -8.40915e-06)
(0 0 -7.92355e-06)
(0 0 -7.30305e-06)
(0 0 -6.60726e-06)
(0 0 -5.88476e-06)
(0 0 -5.17275e-06)
(0 0 -4.49771e-06)
(0 0 -3.87681e-06)
(0 0 -3.31958e-06)
(0 0 -2.82964e-06)
(0 0 -2.40633e-06)
(0 0 -2.04607e-06)
(0 0 -1.74348e-06)
(0 0 -1.49227e-06)
(0 0 -1.28578e-06)
(0 0 -1.11717e-06)
(0 0 -9.78959e-07)
(0 0 -8.60376e-07)
(0 0 -7.3815e-07)
(0 0 -5.46444e-07)
(0 0 -8.30358e-08)
(0 0 1.27398e-06)
(0 4.38855e-23 5.38914e-06)
(0 0 1.79153e-05)
(0 0 1.78346e-05)
(0 0 1.77567e-05)
(0 0 1.76826e-05)
(0 0 1.76123e-05)
(0 0 1.75404e-05)
(0 0 1.74598e-05)
(0 0 1.73834e-05)
(0 0 1.7379e-05)
(0 0 1.75957e-05)
(0 0 1.82537e-05)
(0 0 1.95831e-05)
(0 0 2.17255e-05)
(0 0 2.4636e-05)
(0 0 2.80296e-05)
(0 0 3.14006e-05)
(0 0 3.41128e-05)
(0 0 3.55344e-05)
(0 0 3.51748e-05)
(0 0 3.27868e-05)
(0 0 2.84086e-05)
(0 0 2.23448e-05)
(0 0 1.5098e-05)
(0 0 7.27486e-06)
(0 0 -5.11282e-07)
(0 0 -7.72064e-06)
(0 0 -1.3941e-05)
(0 0 -1.89119e-05)
(0 0 -2.25232e-05)
(0 0 -2.47942e-05)
(0 0 -2.58425e-05)
(0 0 -2.58499e-05)
(0 0 -2.50298e-05)
(0 0 -2.36007e-05)
(0 0 -2.1767e-05)
(0 0 -1.97062e-05)
(0 0 -1.75634e-05)
(0 0 -1.54496e-05)
(0 0 -1.3444e-05)
(0 0 -1.15981e-05)
(0 0 -9.94056e-06)
(0 0 -8.48238e-06)
(0 0 -7.22182e-06)
(0 0 -6.14839e-06)
(0 0 -5.24624e-06)
(0 0 -4.49671e-06)
(0 0 -3.88002e-06)
(0 0 -3.37595e-06)
(0 0 -2.96236e-06)
(0 0 -2.60763e-06)
(0 0 -2.24399e-06)
(0 0 -1.68021e-06)
(0 0 -3.28697e-07)
(0 0 3.6201e-06)
(0 4.4356e-23 1.56006e-05)
(0 0 2.98465e-05)
(0 0 2.97121e-05)
(0 0 2.95821e-05)
(0 0 2.94583e-05)
(0 0 2.93411e-05)
(0 0 2.92211e-05)
(0 0 2.90869e-05)
(0 0 2.89597e-05)
(0 0 2.8952e-05)
(0 0 2.93111e-05)
(0 0 3.04029e-05)
(0 0 3.26107e-05)
(0 0 3.61715e-05)
(0 0 4.10135e-05)
(0 0 4.66665e-05)
(0 0 5.22932e-05)
(0 0 5.68384e-05)
(0 0 5.92521e-05)
(0 0 5.87173e-05)
(0 0 5.4819e-05)
(0 0 4.76154e-05)
(0 0 3.7607e-05)
(0 0 2.56237e-05)
(0 0 1.26692e-05)
(0 0 -2.39847e-07)
(0 0 -1.22075e-05)
(0 0 -2.25483e-05)
(0 0 -3.08278e-05)
(0 0 -3.68602e-05)
(0 0 -4.06745e-05)
(0 0 -4.24631e-05)
(0 0 -4.25251e-05)
(0 0 -4.12127e-05)
(0 0 -3.88869e-05)
(0 0 -3.58858e-05)
(0 0 -3.25035e-05)
(0 0 -2.89806e-05)
(0 0 -2.55012e-05)
(0 0 -2.21972e-05)
(0 0 -1.91541e-05)
(0 0 -1.642e-05)
(0 0 -1.40137e-05)
(0 0 -1.19327e-05)
(0 0 -1.01601e-05)
(0 0 -8.66997e-06)
(0 0 -7.43164e-06)
(0 0 -6.41264e-06)
(0 0 -5.57978e-06)
(0 0 -4.89699e-06)
(0 0 -4.31372e-06)
(0 0 -3.72354e-06)
(0 0 -2.82841e-06)
(0 0 -7.12078e-07)
(0 0 5.45643e-06)
(0 2.61693e-22 2.42118e-05)
(0 0 4.17573e-05)
(0 0 4.15693e-05)
(0 0 4.1387e-05)
(0 0 4.12135e-05)
(0 0 4.10493e-05)
(0 0 4.08815e-05)
(0 0 4.06938e-05)
(0 0 4.0516e-05)
(0 0 4.05042e-05)
(0 0 4.10027e-05)
(0 0 4.25218e-05)
(0 0 4.55976e-05)
(0 0 5.05646e-05)
(0 0 5.73285e-05)
(0 0 6.52405e-05)
(0 0 7.31392e-05)
(0 0 7.9557e-05)
(0 0 8.30297e-05)
(0 0 8.24136e-05)
(0 0 7.71215e-05)
(0 0 6.72239e-05)
(0 0 5.34068e-05)
(0 0 3.6817e-05)
(0 0 1.88455e-05)
(0 0 9.04742e-07)
(0 0 -1.57579e-05)
(0 0 -3.01854e-05)
(0 0 -4.17683e-05)
(0 0 -5.0242e-05)
(0 0 -5.5641e-05)
(0 0 -5.82273e-05)
(0 0 -5.84123e-05)
(0 0 -5.66818e-05)
(0 0 -5.35356e-05)
(0 0 -4.9442e-05)
(0 0 -4.48094e-05)
(0 0 -3.99719e-05)
(0 0 -3.51861e-05)
(0 0 -3.06359e-05)
(0 0 -2.64411e-05)
(0 0 -2.26695e-05)
(0 0 -1.93482e-05)
(0 0 -1.64746e-05)
(0 0 -1.40259e-05)
(0 0 -1.19669e-05)
(0 0 -1.02556e-05)
(0 0 -8.84747e-06)
(0 0 -7.69697e-06)
(0 0 -6.75531e-06)
(0 0 -5.95596e-06)
(0 0 -5.16319e-06)
(0 0 -4.00225e-06)
(0 0 -1.32106e-06)
(0 0 6.46045e-06)
(0 -1.71782e-22 3.02155e-05)
(0 0 5.36402e-05)
(0 0 5.3398e-05)
(0 0 5.31632e-05)
(0 0 5.29399e-05)
(0 0 5.27288e-05)
(0 0 5.25133e-05)
(0 0 5.22727e-05)
(0 0 5.20446e-05)
(0 0 5.20276e-05)
(0 0 5.26614e-05)
(0 0 5.45989e-05)
(0 0 5.85286e-05)
(0 0 6.4885e-05)
(0 0 7.35571e-05)
(0 0 8.37266e-05)
(0 0 9.39181e-05)
(0 0 0.000102261)
(0 0 0.000106881)
(0 0 0.000106309)
(0 0 9.97787e-05)
(0 0 8.73632e-05)
(0 0 6.99203e-05)
(0 0 4.8899e-05)
(0 0 2.60648e-05)
(0 0 3.21574e-06)
(0 0 -1.80558e-05)
(0 0 -3.65236e-05)
(0 0 -5.14018e-05)
(0 0 -6.23433e-05)
(0 0 -6.93818e-05)
(0 0 -7.28424e-05)
(0 0 -7.32414e-05)
(0 0 -7.11922e-05)
(0 0 -6.73275e-05)
(0 0 -6.22416e-05)
(0 0 -5.64536e-05)
(0 0 -5.03891e-05)
(0 0 -4.43759e-05)
(0 0 -3.86491e-05)
(0 0 -3.33632e-05)
(0 0 -2.86058e-05)
(0 0 -2.4413e-05)
(0 0 -2.07831e-05)
(0 0 -1.76885e-05)
(0 0 -1.50852e-05)
(0 0 -1.29209e-05)
(0 0 -1.11399e-05)
(0 0 -9.68512e-06)
(0 0 -8.4966e-06)
(0 0 -7.49554e-06)
(0 0 -6.52898e-06)
(0 0 -5.18532e-06)
(0 0 -2.20366e-06)
(0 0 6.36863e-06)
(0 8.48003e-23 3.27105e-05)
(0 0 6.54887e-05)
(0 0 6.51899e-05)
(0 0 6.49022e-05)
(0 0 6.46293e-05)
(0 0 6.43714e-05)
(0 0 6.41086e-05)
(0 0 6.38156e-05)
(0 0 6.35375e-05)
(0 0 6.35142e-05)
(0 0 6.42782e-05)
(0 0 6.6623e-05)
(0 0 7.13894e-05)
(0 0 7.91142e-05)
(0 0 8.96772e-05)
(0 0 0.000102102)
(0 0 0.000114611)
(0 0 0.00012494)
(0 0 0.000130816)
(0 0 0.000130439)
(0 0 0.000122861)
(0 0 0.000108142)
(0 0 8.72965e-05)
(0 0 6.20576e-05)
(0 0 3.45493e-05)
(0 0 6.94297e-06)
(0 0 -1.88318e-05)
(0 0 -4.12826e-05)
(0 0 -5.94457e-05)
(0 0 -7.28864e-05)
(0 0 -8.16307e-05)
(0 0 -8.60581e-05)
(0 0 -8.67817e-05)
(0 0 -8.45344e-05)
(0 0 -8.0075e-05)
(0 0 -7.41183e-05)
(0 0 -6.72901e-05)
(0 0 -6.0105e-05)
(0 0 -5.29599e-05)
(0 0 -4.61409e-05)
(0 0 -3.98367e-05)
(0 0 -3.41558e-05)
(0 0 -2.9144e-05)
(0 0 -2.48013e-05)
(0 0 -2.10963e-05)
(0 0 -1.79777e-05)
(0 0 -1.53839e-05)
(0 0 -1.32485e-05)
(0 0 -1.15047e-05)
(0 0 -1.00825e-05)
(0 0 -8.89497e-06)
(0 0 -7.78529e-06)
(0 0 -6.35156e-06)
(0 0 -3.38164e-06)
(0 0 4.95768e-06)
(0 4.18423e-22 3.08444e-05)
(0 0 7.7294e-05)
(0 0 7.6936e-05)
(0 0 7.65955e-05)
(0 0 7.62734e-05)
(0 0 7.59691e-05)
(0 0 7.56594e-05)
(0 0 7.53146e-05)
(0 0 7.49868e-05)
(0 0 7.49558e-05)
(0 0 7.58443e-05)
(0 0 7.85839e-05)
(0 0 8.41665e-05)
(0 0 9.32351e-05)
(0 0 0.000105668)
(0 0 0.000120343)
(0 0 0.000135196)
(0 0 0.000147583)
(0 0 0.000154834)
(0 0 0.000154826)
(0 0 0.000146416)
(0 0 0.000129639)
(0 0 0.000105646)
(0 0 7.64355e-05)
(0 0 4.44706e-05)
(0 0 1.22816e-05)
(0 0 -1.78735e-05)
(0 0 -4.42396e-05)
(0 0 -6.56737e-05)
(0 0 -8.1648e-05)
(0 0 -9.21724e-05)
(0 0 -9.76714e-05)
(0 0 -9.88451e-05)
(0 0 -9.6537e-05)
(0 0 -9.16242e-05)
(0 0 -8.49355e-05)
(0 0 -7.71991e-05)
(0 0 -6.90149e-05)
(0 0 -6.08474e-05)
(0 0 -5.30328e-05)
(0 0 -4.57942e-05)
(0 0 -3.92611e-05)
(0 0 -3.34903e-05)
(0 0 -2.84847e-05)
(0 0 -2.42103e-05)
(0 0 -2.06098e-05)
(0 0 -1.76131e-05)
(0 0 -1.51451e-05)
(0 0 -1.31294e-05)
(0 0 -1.14882e-05)
(0 0 -1.01301e-05)
(0 0 -8.90654e-06)
(0 0 -7.47095e-06)
(0 0 -4.83725e-06)
(0 0 2.05606e-06)
(0 -8.1845e-23 2.36639e-05)
(-1.80159e-23 7.9162e-21 3.36441e-06)
(-1.441e-22 7.78317e-21 2.71498e-06)
(3.12821e-23 -1.92669e-22 1.8347e-06)
(3.97366e-23 -2.32297e-20 6.80383e-07)
(-8.98914e-23 7.93369e-21 -7.83889e-07)
(3.51894e-22 7.79153e-21 -2.58677e-06)
(-7.74672e-22 2.27157e-20 -4.75157e-06)
(3.04827e-22 -2.30781e-20 -7.29864e-06)
(6.12752e-22 -7.42636e-21 -1.02476e-05)
(-8.73372e-22 -3.65186e-24 -1.36193e-05)
(-8.71674e-22 -7.43736e-21 -1.74367e-05)
(7.63264e-22 7.06732e-21 -2.17262e-05)
(5.59051e-22 -5.81833e-20 -2.65186e-05)
(-1.0352e-21 1.24879e-19 -3.18494e-05)
(3.59741e-22 -6.71606e-20 -3.7758e-05)
(-1.19355e-21 -5.06263e-20 -4.42981e-05)
(2.31141e-21 -6.44702e-20 -5.15147e-05)
(-1.80916e-21 7.59042e-21 -5.94959e-05)
(-1.82237e-22 -7.08432e-21 -6.82898e-05)
(6.85948e-23 7.08698e-21 -7.79997e-05)
(-3.06439e-24 -1.25338e-22 -8.87092e-05)
(-6.35383e-23 -6.83353e-21 -0.000100532)
(-1.96144e-21 6.89019e-21 -0.000113598)
(4.09798e-21 1.25993e-23 -0.000128057)
(1.19327e-21 6.68609e-21 -0.000144085)
(-3.19296e-21 -5.18361e-24 -0.000161887)
(4.59159e-21 7.75323e-21 -0.000181711)
(-5.41113e-21 1.00641e-19 -0.000203854)
(6.95097e-22 -1.08063e-19 -0.000228689)
(-2.10272e-21 9.86305e-20 -0.000256698)
(2.04896e-21 -9.97432e-20 -0.00028853)
(4.72544e-23 1.30669e-21 -0.000325112)
(-6.14317e-23 -1.60225e-21 -0.000367833)
(2.73692e-21 -9.42064e-20 -0.000418891)
(-8.44877e-21 9.14156e-20 -0.000481891)
(-3.03865e-22 -1.50604e-21 -0.000562897)
(6.03002e-21 1.31883e-23 -0.00067221)
(6.54674e-21 1.43184e-23 -0.000827288)
(-6.52579e-21 -1.42725e-23 -0.00105732)
(-2.16082e-22 -4.72593e-25 -0.00141008)
(-2.25097e-22 -4.92309e-25 -0.00196142)
(-7.7358e-21 -1.6919e-23 -0.00282752)
(7.46719e-21 1.63315e-23 -0.00417867)
(-2.46194e-22 1.46324e-22 -0.00625174)
(-3.52082e-23 7.56541e-21 -0.00935619)
(-2.38452e-20 4.88773e-20 -0.0138656)
(2.29682e-20 -6.44296e-20 -0.0201832)
(-5.39134e-21 -9.09167e-21 -0.0286691)
(5.92451e-21 2.49716e-20 -0.0395246)
(-1.9644e-20 -5.48395e-21 -0.0525584)
(-2.54337e-22 7.92595e-21 9.89393e-06)
(-1.0626e-22 1.55905e-20 7.87891e-06)
(2.89797e-22 7.58062e-21 5.11478e-06)
(-8.45737e-22 -7.79606e-21 1.47413e-06)
(1.57195e-21 7.43692e-21 -3.14434e-06)
(-4.71263e-22 -5.32249e-20 -8.81959e-06)
(-2.40441e-22 8.45007e-20 -1.56163e-05)
(-5.36487e-23 -8.78188e-21 -2.3593e-05)
(2.14902e-21 -9.72779e-20 -3.2809e-05)
(-2.2484e-21 1.3731e-19 -4.33287e-05)
(-8.51515e-22 1.25462e-19 -5.52255e-05)
(6.32342e-22 -1.12842e-19 -6.8585e-05)
(-3.823e-22 7.16333e-22 -8.35059e-05)
(2.72935e-21 -7.18583e-21 -0.000100102)
(-2.1342e-21 2.38614e-20 -0.00011851)
(-5.92171e-21 2.37176e-19 -0.00013888)
(1.68618e-21 -2.22971e-19 -0.000161424)
(-5.55175e-21 2.38931e-19 -0.000186301)
(-2.9962e-22 1.93531e-20 -0.000213782)
(-3.73751e-21 -7.24232e-21 -0.000244105)
(3.95324e-21 1.41432e-22 -0.000277592)
(-3.96871e-21 8.97628e-21 -0.000314606)
(8.73474e-22 2.07257e-19 -0.000355559)
(6.0224e-21 -4.38692e-19 -0.000400932)
(4.54154e-21 -2.09465e-19 -0.000451284)
(-7.0999e-21 4.24106e-19 -0.000507272)
(3.85335e-21 -4.22589e-19 -0.000569681)
(-2.23186e-21 4.33568e-19 -0.000639459)
(3.19877e-21 1.46128e-21 -0.000717784)
(-3.62649e-21 -9.50365e-23 -0.000806172)
(-1.21824e-21 -2.66441e-24 -0.000906656)
(0 0 -0.00102211)
(1.79936e-22 9.33549e-23 -0.00115681)
(1.07467e-20 1.20661e-20 -0.00131752)
(-1.57911e-20 3.52631e-19 -0.00151522)
(-1.53541e-20 -2.38913e-20 -0.00176841)
(1.85606e-20 -3.47553e-19 -0.0021084)
(2.63247e-20 -2.99864e-19 -0.00258825)
(-9.63382e-21 3.20304e-19 -0.00329657)
(-3.02736e-20 2.12545e-21 -0.00437826)
(2.94878e-20 1.6828e-20 -0.00606322)
(-4.13272e-20 2.27525e-19 -0.00870316)
(2.25476e-20 -2.36662e-19 -0.0128131)
(-1.74322e-20 1.4211e-20 -0.0191088)
(1.9305e-20 7.45444e-21 -0.0285248)
(-5.79884e-20 1.09376e-19 -0.0421884)
(5.79059e-20 -1.07068e-19 -0.0613126)
(-8.85343e-20 7.97163e-20 -0.0869609)
(8.54359e-20 -8.90514e-20 -0.119668)
(-1.81522e-20 -6.08225e-22 -0.157533)
(-6.42952e-23 4.69692e-20 1.5866e-05)
(-9.00989e-23 1.48523e-20 1.22375e-05)
(3.94022e-22 -6.1526e-20 7.16575e-06)
(-8.46027e-22 1.22358e-19 4.54698e-07)
(1.85755e-21 -2.61879e-19 -8.03594e-06)
(3.121e-22 1.24493e-19 -1.84127e-05)
(-2.38898e-21 -8.47051e-22 -3.07681e-05)
(1.53375e-21 -1.68916e-20 -4.51948e-05)
(1.58083e-21 -2.55385e-19 -6.1795e-05)
(5.91929e-22 2.43306e-19 -8.06867e-05)
(-8.3651e-22 -1.58736e-21 -0.000102008)
(-4.11796e-21 -1.53134e-23 -0.000125923)
(6.52742e-21 -1.80861e-21 -0.000152619)
(-3.70832e-21 -2.48878e-19 -0.000182316)
(4.91204e-21 2.26109e-19 -0.000215266)
(-1.14922e-20 4.49229e-19 -0.000251782)
(-4.71612e-21 -1.18682e-20 -0.000292203)
(-4.95924e-21 4.62102e-19 -0.000336926)
(4.09844e-22 -1.40228e-20 -0.000386358)
(-1.25088e-20 4.48477e-19 -0.000441019)
(1.24432e-20 -4.65739e-19 -0.000501499)
(-9.40073e-21 4.44547e-19 -0.000568483)
(2.76021e-21 -4.62355e-19 -0.000642751)
(5.14354e-21 -9.2495e-21 -0.000725208)
(-2.56291e-21 1.35415e-20 -0.000816905)
(5.4572e-21 -8.74945e-21 -0.00091908)
(-1.90279e-20 4.16149e-19 -0.0010332)
(1.71709e-20 -4.43466e-19 -0.00116103)
(1.87054e-20 -4.11834e-19 -0.00130476)
(-1.54353e-20 4.13671e-19 -0.00146716)
(-1.0632e-21 -5.07649e-21 -0.0016519)
(1.09972e-20 -1.18989e-22 -0.00186409)
(-1.2557e-20 -2.43344e-20 -0.0021113)
(5.37119e-20 -7.50136e-19 -0.00240523)
(1.62963e-20 5.57505e-20 -0.00276487)
(-7.02938e-20 7.05962e-19 -0.00322192)
(3.87193e-21 -1.20949e-20 -0.0038299)
(-1.12218e-20 -4.72362e-21 -0.00467931)
(1.09437e-19 -5.90873e-19 -0.00592112)
(-2.03655e-19 1.15991e-18 -0.00780183)
(2.0754e-19 -1.15135e-18 -0.0107121)
(6.93397e-20 8.36306e-20 -0.0152488)
(-1.5484e-19 5.03288e-19 -0.0222846)
(-1.61809e-19 3.46412e-19 -0.0330324)
(1.53004e-19 -4.10724e-19 -0.0490762)
(-2.15943e-20 1.89379e-20 -0.07233)
(5.33454e-20 -1.68346e-20 -0.104852)
(1.59541e-19 -9.89332e-20 -0.148404)
(-1.72782e-19 1.54712e-19 -0.203683)
(-2.47235e-20 -3.97824e-20 -0.26312)
(4.16453e-22 -3.09799e-20 2.08026e-05)
(-3.66046e-22 1.56593e-20 1.49874e-05)
(6.70119e-22 -1.67176e-22 6.71339e-06)
(-5.922e-22 -1.54047e-20 -4.21099e-06)
(-9.38114e-22 -1.4136e-21 -1.79031e-05)
(3.44908e-21 -2.41733e-19 -3.44609e-05)
(-4.95922e-21 4.57647e-19 -5.39912e-05)
(2.44379e-21 -2.46351e-19 -7.66239e-05)
(-1.80196e-21 1.48632e-20 -0.000102519)
(4.98573e-21 -2.69686e-19 -0.000131872)
(-5.93508e-21 2.45997e-19 -0.000164917)
(-4.47782e-21 4.69692e-19 -0.000201929)
(1.1467e-20 -9.50028e-19 -0.000243229)
(-1.36464e-20 9.48781e-19 -0.000289185)
(1.7844e-20 -9.44168e-19 -0.000340225)
(-1.20581e-20 9.35431e-19 -0.000396856)
(-1.02376e-20 4.75904e-19 -0.000459668)
(-6.99808e-22 -3.70405e-21 -0.000529284)
(4.43451e-21 3.85063e-21 -0.000606427)
(-8.03635e-21 4.38591e-19 -0.00069195)
(-1.37102e-21 -4.60554e-19 -0.000786833)
(1.45618e-20 1.25491e-20 -0.000892215)
(-3.43332e-20 8.83679e-19 -0.00100939)
(2.62956e-20 -8.86507e-19 -0.00113988)
(2.25369e-21 -5.34053e-21 -0.00128541)
(-9.59797e-21 -8.96155e-23 -0.00144805)
(1.46247e-20 -1.33863e-20 -0.00163022)
(-4.74543e-21 1.21691e-22 -0.00183483)
(-5.20443e-21 -6.42152e-23 -0.00206542)
(4.96162e-21 1.92779e-22 -0.00232644)
(-3.69825e-21 1.46456e-21 -0.0026237)
(6.41097e-20 -7.8054e-19 -0.0029651)
(-5.82809e-20 8.02681e-19 -0.0033621)
(-1.58439e-20 2.28978e-22 -0.00383211)
(1.84802e-20 -1.02103e-20 -0.00440302)
(-9.95674e-20 7.14802e-19 -0.00512086)
(1.1573e-19 -7.17917e-19 -0.00606306)
(-2.22682e-20 2.15853e-21 -0.00735999)
(1.5745e-20 -9.18954e-23 -0.00922896)
(3.74208e-20 6.26384e-21 -0.0120244)
(-2.4506e-19 5.33942e-19 -0.0163079)
(3.64328e-19 -1.08175e-18 -0.0229365)
(-1.77826e-19 5.47824e-19 -0.0331646)
(2.5631e-19 -4.18205e-19 -0.0487387)
(-2.48246e-19 4.92606e-19 -0.0719539)
(-5.74945e-19 5.06755e-19 -0.105614)
(1.08425e-18 -1.07365e-18 -0.152782)
(-5.3009e-19 5.41971e-19 -0.216071)
(1.83208e-20 -2.07424e-21 -0.296156)
(4.4005e-21 -3.41532e-20 -0.372448)
(-7.30817e-22 1.57397e-20 2.40932e-05)
(-3.35818e-22 6.03044e-20 1.48595e-05)
(2.12574e-21 -1.83044e-19 1.69664e-06)
(-1.55799e-21 2.45572e-19 -1.53783e-05)
(-1.3776e-22 -1.08716e-19 -3.63664e-05)
(1.2501e-22 -1.45431e-20 -6.13322e-05)
(-4.78179e-22 1.53147e-20 -9.04078e-05)
(2.97187e-21 -1.83089e-22 -0.00012379)
(-2.80743e-21 -1.49686e-20 -0.000161736)
(-5.17838e-21 3.3515e-20 -0.000204566)
(-7.42143e-21 4.77753e-19 -0.000252659)
(1.8672e-20 -4.96506e-19 -0.000306463)
(-2.2912e-20 4.62998e-19 -0.000366493)
(1.92119e-20 -4.8159e-19 -0.000433342)
(-2.95309e-21 3.33557e-21 -0.000507688)
(1.08016e-20 4.67026e-23 -0.000590328)
(4.10454e-21 3.65241e-21 -0.000682188)
(-5.8418e-21 4.49476e-19 -0.000784272)
(2.05916e-20 -4.86333e-19 -0.000897732)
(6.21597e-21 2.65993e-20 -0.00102392)
(-4.65159e-20 9.26068e-19 -0.00116439)
(3.01158e-20 -9.28582e-19 -0.00132094)
(9.98924e-21 2.23574e-20 -0.00149564)
(-1.77545e-20 -2.29474e-22 -0.00169087)
(1.16178e-20 9.4821e-21 -0.00190943)
(-4.0114e-20 8.88618e-19 -0.00215456)
(3.33834e-20 -8.80173e-19 -0.0024301)
(2.79149e-21 9.46721e-21 -0.00274063)
(9.31959e-21 2.6943e-20 -0.00309165)
(-1.13196e-20 -5.4066e-22 -0.00349001)
(1.1931e-21 -1.28734e-20 -0.00394442)
(-3.67296e-20 1.30646e-20 -0.0044665)
(3.44767e-20 1.24393e-20 -0.00507257)
(-3.01332e-21 -2.4857e-20 -0.00578689)
(8.40439e-20 -7.28804e-19 -0.00664738)
(-7.53416e-20 7.51255e-19 -0.00771575)
(2.71229e-19 -1.44337e-18 -0.00909485)
(-2.49273e-19 1.45735e-18 -0.0109571)
(3.07191e-19 -1.36128e-18 -0.0135893)
(6.97655e-20 1.30699e-19 -0.0174598)
(-3.52154e-19 1.29567e-18 -0.0233109)
(-1.18153e-19 -2.17115e-20 -0.0322785)
(1.60858e-20 3.79503e-22 -0.0460304)
(-1.78686e-20 5.49113e-22 -0.0669069)
(5.28208e-20 1.62177e-21 -0.0980344)
(2.5349e-20 1.32153e-20 -0.143357)
(-1.1023e-19 4.98338e-21 -0.207439)
(6.28405e-20 4.82677e-21 -0.294536)
(-1.60665e-22 -3.01649e-22 -0.405794)
(3.51378e-20 6.18003e-22 -0.495398)
(-7.85542e-22 7.58985e-20 2.48553e-05)
(1.66266e-21 -4.62689e-20 9.5131e-06)
(-1.61458e-21 -1.62946e-20 -1.1518e-05)
(4.86159e-21 -2.26645e-19 -3.77018e-05)
(-2.53146e-21 2.2849e-19 -6.89367e-05)
(2.29895e-21 -2.26023e-19 -0.00010532)
(-1.14358e-20 4.98366e-19 -0.000147087)
(1.23272e-20 -6.97722e-19 -0.000194574)
(-8.0173e-21 4.93252e-19 -0.000248211)
(-6.54059e-21 4.80781e-19 -0.000308513)
(-2.20257e-21 3.94317e-21 -0.000376085)
(2.54275e-20 -9.44147e-19 -0.000451629)
(-2.25005e-20 9.82221e-19 -0.000535948)
(5.75071e-21 -4.61962e-19 -0.00062996)
(1.26787e-20 -4.64106e-19 -0.00073471)
(2.28744e-20 -4.56464e-19 -0.000851404)
(-3.26973e-21 6.39549e-21 -0.00098145)
(3.93953e-20 -9.46471e-19 -0.00112644)
(3.09868e-20 -9.08328e-19 -0.00128814)
(6.54143e-21 2.11597e-20 -0.00146863)
(-2.82212e-20 9.43092e-19 -0.00167032)
(-1.97894e-20 -7.94281e-21 -0.00189599)
(1.20841e-20 8.79872e-21 -0.00214883)
(-5.23317e-20 9.12053e-19 -0.00243255)
(4.29289e-20 -9.26292e-19 -0.00275149)
(7.42966e-20 -8.89292e-19 -0.00311071)
(-7.55093e-20 9.18426e-19 -0.00351615)
(1.48189e-20 -1.96799e-20 -0.00397488)
(6.98045e-20 -8.85356e-19 -0.00449535)
(-9.71012e-20 9.07845e-19 -0.00508786)
(4.30013e-21 1.21243e-20 -0.00576533)
(-2.10847e-19 1.66023e-18 -0.00654447)
(1.91431e-19 -1.7223e-18 -0.00744801)
(4.75671e-20 6.09727e-20 -0.00850854)
(-2.706e-19 1.56846e-18 -0.00977546)
(2.48803e-19 -1.63526e-18 -0.0113273)
(-3.09361e-20 -3.18721e-21 -0.0132928)
(4.71281e-19 -1.47113e-18 -0.0158864)
(-4.4161e-19 1.51915e-18 -0.019464)
(-6.46986e-20 -7.09399e-20 -0.0246078)
(6.71852e-19 -1.28007e-18 -0.0322449)
(-1.183e-18 2.63784e-18 -0.0438018)
(-6.27676e-20 -1.53546e-19 -0.0613897)
(-8.40741e-20 -1.20696e-19 -0.088009)
(7.56906e-19 -1.14429e-18 -0.127766)
(3.85673e-20 6.14912e-20 -0.186124)
(-8.45705e-19 7.5423e-19 -0.270195)
(8.28996e-19 -8.29895e-19 -0.388542)
(8.53375e-21 2.83093e-20 -0.547324)
(8.98138e-21 -2.63115e-21 -0.655829)
(6.11371e-22 -1.57945e-20 2.19351e-05)
(1.82752e-21 -1.34818e-19 -5.87836e-06)
(-1.92912e-21 1.21562e-19 -3.91471e-05)
(-1.22541e-21 -1.70781e-20 -7.79631e-05)
(5.55655e-21 -2.252e-19 -0.00012254)
(-5.15579e-21 2.31541e-19 -0.000173222)
(-6.42361e-21 4.67678e-19 -0.000230451)
(-5.00057e-21 -1.93819e-20 -0.000294765)
(2.14697e-21 -4.59651e-21 -0.000366801)
(1.49775e-20 -4.98535e-19 -0.00044729)
(-1.23569e-20 4.66278e-19 -0.000537067)
(1.9095e-20 -9.86291e-19 -0.000637085)
(-4.84142e-21 4.92882e-19 -0.000748423)
(-3.55861e-21 -1.85029e-20 -0.000872303)
(-4.75953e-21 -2.21078e-20 -0.0010101)
(2.99637e-20 -9.66748e-19 -0.00116334)
(-1.62173e-21 -2.02401e-20 -0.00133381)
(2.89832e-20 -9.84468e-19 -0.00152357)
(-5.28798e-21 -7.70951e-21 -0.00173495)
(-1.68302e-22 1.17361e-22 -0.0019705)
(1.1265e-20 8.30327e-21 -0.00223322)
(-5.46712e-20 9.45928e-19 -0.00252647)
(4.90334e-20 -9.66111e-19 -0.00285412)
(1.25771e-20 8.20936e-21 -0.00322059)
(-8.53254e-21 -1.4795e-20 -0.0036309)
(-6.07689e-21 9.75181e-21 -0.00409082)
(-7.63829e-20 9.11561e-19 -0.00460693)
(1.6387e-19 -1.85904e-18 -0.0051868)
(-7.7983e-20 9.69019e-19 -0.00583915)
(-1.96802e-19 1.79474e-18 -0.00657419)
(-3.03019e-20 -4.57564e-20 -0.00740411)
(2.23054e-21 -2.70911e-20 -0.00834402)
(-6.53083e-20 -5.40044e-20 -0.00941382)
(2.63972e-19 -1.7906e-18 -0.0106417)
(4.01867e-19 -1.6559e-18 -0.0120706)
(-3.59902e-19 1.73766e-18 -0.0137712)
(-3.33153e-20 -5.38946e-20 -0.0158636)
(4.74406e-19 -1.57978e-18 -0.0185567)
(-4.19847e-19 1.6729e-18 -0.0222119)
(-6.6427e-19 1.48347e-18 -0.027444)
(5.66349e-19 -1.56646e-18 -0.0352669)
(7.65923e-20 -1.0912e-20 -0.0472937)
(8.55483e-19 -1.37892e-18 -0.0659856)
(1.15585e-19 1.21504e-19 -0.094946)
(-9.84827e-19 1.34843e-18 -0.139266)
(-1.5849e-20 -3.86314e-20 -0.206008)
(3.28082e-20 5.15508e-22 -0.30551)
(-3.27816e-20 1.56343e-20 -0.456135)
(-4.95736e-19 5.18141e-19 -0.693497)
(4.86878e-19 -5.27528e-19 -0.949886)
(-1.05934e-20 -3.13035e-21 0.00890707)
(-1.04753e-20 -9.90538e-23 0.00499683)
(9.81181e-21 9.57873e-21 0.0016963)
(-6.8697e-21 1.80812e-21 -0.00105357)
(7.38921e-21 -1.12106e-20 -0.00332117)
(6.94913e-23 3.4955e-21 -0.00517843)
(-1.73145e-22 -9.74664e-23 -0.00669361)
(-5.68971e-21 1.2444e-23 -0.00792628)
(5.53225e-21 -1.20996e-23 -0.00892481)
(-1.67778e-22 3.66947e-25 -0.00972704)
(-1.63486e-22 3.57559e-25 -0.0103653)
(4.97167e-21 -1.08735e-23 -0.0108655)
(-4.98764e-21 1.09085e-23 -0.0112474)
(-4.63257e-21 1.01319e-23 -0.0115269)
(2.43178e-22 -1.1378e-21 -0.0117171)
(6.3457e-21 7.58649e-22 -0.0118289)
(-1.98797e-21 1.51167e-21 -0.0118715)
(-8.38657e-23 -1.0706e-21 -0.0118528)
(-3.31223e-23 9.15902e-22 -0.0117794)
(-2.00213e-21 -8.23001e-21 -0.0116574)
(2.0465e-21 7.16161e-21 -0.0114915)
(-1.26948e-21 -1.03517e-20 -0.0112858)
(2.09594e-21 1.02379e-22 -0.0110445)
(-2.93813e-21 1.33746e-23 -0.0107722)
(1.93698e-21 1.17584e-21 -0.010474)
(-7.25033e-22 4.47615e-23 -0.0101539)
(-2.1504e-21 4.70314e-24 -0.00981476)
(1.02958e-21 -3.1218e-23 -0.00945977)
(1.35205e-22 1.87939e-21 -0.00909195)
(-5.18232e-23 5.23214e-23 -0.00871411)
(-1.48535e-22 -2.26817e-21 -0.0083289)
(1.14713e-22 2.42943e-21 -0.00793879)
(3.2561e-22 -2.73313e-21 -0.00754608)
(7.77068e-23 2.59367e-20 -0.00715291)
(-6.33587e-22 -2.58634e-20 -0.00676129)
(-6.87563e-22 -2.31206e-20 -0.00637305)
(1.4866e-21 5.02692e-20 -0.00598991)
(-8.20475e-22 -2.74657e-20 -0.0056134)
(-2.61405e-22 -3.81839e-21 -0.00524493)
(2.50969e-22 3.92593e-21 -0.00488576)
(2.85332e-23 2.61232e-24 -0.00453701)
(1.32677e-22 4.29013e-21 -0.00419967)
(-5.03379e-22 -2.25831e-20 -0.00387457)
(4.94474e-22 2.27956e-20 -0.0035624)
(-1.52821e-22 -4.7994e-21 -0.00326372)
(3.14484e-22 1.50321e-20 -0.0029789)
(2.15885e-23 -4.96902e-21 -0.00270812)
(-2.12348e-22 -1.06267e-20 -0.00245122)
(6.15148e-23 5.3603e-21 -0.00220757)
(-1.53526e-22 -5.59169e-21 -0.00197577)
(-1.52054e-20 2.50658e-20 0.0258333)
(2.95836e-20 -1.07847e-20 0.0141796)
(-2.37188e-20 -2.07281e-20 0.0042615)
(8.53839e-21 2.17725e-20 -0.00393039)
(-8.89716e-21 -2.13312e-20 -0.0106334)
(-1.26534e-20 6.11459e-21 -0.0160888)
(1.12972e-20 6.88799e-21 -0.0205169)
(1.33905e-20 1.78056e-20 -0.0241038)
(2.80792e-24 -2.95357e-20 -0.0269988)
(-2.29848e-20 6.89303e-21 -0.0293174)
(2.23948e-20 -5.15079e-21 -0.031155)
(-5.63237e-21 -1.10228e-20 -0.0325876)
(-7.08737e-21 2.67268e-20 -0.0336742)
(-7.47716e-21 2.04162e-21 -0.0344619)
(9.41448e-21 -1.53048e-20 -0.0349883)
(7.76348e-21 -1.94679e-21 -0.0352859)
(-8.42903e-21 4.90936e-21 -0.0353816)
(-2.32637e-22 -6.73492e-22 -0.0352978)
(1.50575e-23 -1.34168e-22 -0.0350547)
(8.53907e-22 -1.86758e-24 -0.0346698)
(2.50766e-21 4.04222e-23 -0.0341573)
(-2.44745e-21 -3.57368e-21 -0.0335294)
(1.21542e-20 6.30076e-20 -0.0327975)
(-1.38773e-20 -6.48079e-20 -0.0319767)
(1.71775e-20 8.06494e-20 -0.0310792)
(-8.90626e-21 -3.16816e-20 -0.0301186)
(-1.74385e-20 -1.02564e-19 -0.0291036)
(7.26286e-21 5.06428e-20 -0.028043)
(1.63147e-21 -7.56824e-22 -0.0269456)
(-2.22442e-21 -4.36977e-21 -0.0258196)
(1.78885e-21 2.25705e-21 -0.0246726)
(-9.10948e-22 -7.99339e-21 -0.023512)
(9.74509e-21 8.60964e-20 -0.0223443)
(-2.0856e-20 -1.84762e-19 -0.021176)
(9.83519e-21 8.99476e-20 -0.0200128)
(-5.50021e-22 -9.28586e-21 -0.0188603)
(-2.56621e-22 3.34872e-21 -0.0177233)
(5.91082e-23 9.5603e-23 -0.0166065)
(-4.9041e-21 -6.57057e-20 -0.0155139)
(4.19348e-21 5.78172e-20 -0.0144492)
(3.56897e-21 5.92379e-20 -0.0134157)
(-5.14668e-21 -8.05326e-20 -0.0124163)
(1.71696e-22 4.43039e-21 -0.0114535)
(1.12929e-21 2.38242e-20 -0.0105291)
(-2.45709e-21 -4.28008e-20 -0.0096449)
(-8.72266e-23 -4.97688e-21 -0.00880193)
(-1.67974e-21 -3.62855e-20 -0.00800065)
(-3.81123e-22 -5.89085e-21 -0.00724058)
(4.2978e-22 1.04848e-20 -0.00651966)
(5.37556e-22 1.66038e-20 -0.00583329)
(-1.35404e-20 -1.08613e-21 0.0400717)
(-1.25982e-20 -1.44412e-20 0.0207674)
(3.44106e-20 2.83473e-20 0.00420009)
(-4.3169e-20 -1.24003e-20 -0.00922273)
(1.77652e-20 1.21148e-20 -0.0200257)
(2.81009e-20 2.0824e-20 -0.028704)
(-1.93949e-20 -5.99134e-20 -0.0356756)
(1.29947e-20 -2.18159e-20 -0.0412744)
(-3.30945e-20 3.83581e-20 -0.0457595)
(4.69009e-21 3.51692e-20 -0.0493279)
(2.66548e-20 -6.21318e-20 -0.0521322)
(-2.41817e-20 4.51129e-20 -0.054295)
(7.30638e-21 -1.12506e-20 -0.0559115)
(-3.49583e-21 -1.00534e-20 -0.057057)
(4.15904e-20 1.64228e-20 -0.0577916)
(-5.12542e-21 3.11683e-20 -0.0581654)
(-3.4257e-20 -2.82433e-20 -0.0582207)
(1.16176e-20 -7.64089e-21 -0.0579938)
(-8.5163e-21 3.17125e-22 -0.0575163)
(5.03378e-22 -3.53254e-21 -0.056816)
(2.41426e-20 5.7233e-20 -0.0559156)
(-2.48744e-20 -4.53108e-20 -0.0548346)
(-2.7789e-20 -7.75114e-20 -0.053592)
(3.10734e-20 7.21953e-20 -0.0522078)
(-1.87724e-21 6.2273e-21 -0.0507057)
(3.44881e-22 -3.27978e-21 -0.0491041)
(-1.55598e-21 5.49425e-21 -0.0474193)
(-2.52004e-20 -1.24089e-19 -0.0456648)
(3.01496e-20 1.25828e-19 -0.0438542)
(-3.03391e-20 -1.39415e-19 -0.0420005)
(3.24896e-20 1.47434e-19 -0.0401159)
(7.68687e-22 5.59588e-21 -0.0382118)
(2.96207e-20 1.85392e-19 -0.0362989)
(-6.02459e-20 -3.72829e-19 -0.0343873)
(3.30561e-20 1.99239e-19 -0.0324863)
(1.41493e-20 1.17076e-19 -0.0306045)
(-1.26756e-20 -1.01842e-19 -0.0287497)
(-1.04858e-21 -3.16269e-22 -0.0269292)
(2.11862e-22 -2.04719e-22 -0.0251495)
(6.8845e-23 -8.09437e-23 -0.0234165)
(1.33608e-20 1.37179e-19 -0.0217353)
(-1.31553e-20 -1.28697e-19 -0.0201105)
(9.8117e-22 9.10736e-21 -0.0185459)
(-3.04091e-22 -1.23937e-22 -0.0170446)
(5.93723e-21 7.88456e-20 -0.0156092)
(-1.13813e-20 -1.50523e-19 -0.0142414)
(5.73899e-21 8.15167e-20 -0.0129417)
(-3.10934e-21 -4.32446e-20 -0.0117093)
(2.30718e-21 3.2076e-20 -0.0105403)
(5.64431e-22 1.08593e-20 -0.0094258)
(1.98868e-21 2.6098e-20 0.0490551)
(8.39889e-21 -5.33717e-20 0.0223213)
(-7.08151e-20 1.61771e-20 -0.000769573)
(1.17578e-19 8.08487e-20 -0.018901)
(-3.11217e-20 -1.10429e-19 -0.0331161)
(-1.78387e-20 2.11278e-20 -0.044305)
(3.04615e-21 2.06494e-20 -0.053152)
(-1.66262e-20 -2.36075e-21 -0.0601661)
(-6.68063e-21 2.40809e-20 -0.0657181)
(6.29001e-20 -3.47931e-20 -0.0700841)
(-2.71943e-20 1.26951e-20 -0.0734662)
(-1.36908e-20 5.8886e-22 -0.0760261)
(1.98467e-20 1.05165e-20 -0.0778869)
(-5.88064e-20 -4.41601e-20 -0.0791455)
(4.2315e-20 2.21855e-20 -0.0798793)
(-1.18219e-20 1.21651e-20 -0.0801521)
(1.06412e-20 -9.18426e-21 -0.0800179)
(5.54077e-20 9.67614e-20 -0.0795234)
(-6.03839e-20 -7.89831e-20 -0.078709)
(1.25213e-21 -1.06975e-20 -0.0776101)
(-3.39265e-21 -1.09666e-22 -0.0762575)
(3.38002e-21 4.88822e-22 -0.0746748)
(2.91303e-21 -1.09616e-22 -0.0728877)
(-8.018e-21 3.22163e-21 -0.0709206)
(6.3025e-21 4.53709e-22 -0.0688034)
(2.26736e-22 7.95529e-21 -0.0665621)
(-8.24086e-20 -2.6574e-19 -0.0642186)
(8.51923e-20 2.5352e-19 -0.0617894)
(-7.05418e-21 6.26467e-21 -0.059292)
(-3.6359e-20 -1.62813e-19 -0.0567433)
(4.25348e-20 1.653e-19 -0.0541591)
(-1.67818e-21 1.73974e-21 -0.0515544)
(-1.39718e-22 6.75455e-22 -0.0489431)
(-4.12076e-20 -2.13979e-19 -0.0463383)
(8.48098e-20 4.30462e-19 -0.0437521)
(-8.40775e-20 -4.44679e-19 -0.0411957)
(8.27975e-20 4.67024e-19 -0.0386794)
(-8.10395e-20 -4.88154e-19 -0.0362125)
(3.98992e-20 2.48482e-19 -0.0338036)
(1.98958e-20 1.36129e-19 -0.03146)
(-1.72373e-20 -1.18145e-19 -0.0291887)
(-1.24632e-21 -9.19085e-21 -0.0269952)
(-1.78859e-20 -1.50524e-19 -0.0248847)
(3.81389e-20 3.25524e-19 -0.0228612)
(-1.79726e-20 -1.55837e-19 -0.0209279)
(2.5297e-22 1.98505e-22 -0.0190867)
(8.55931e-22 1.03774e-20 -0.0173385)
(-2.333e-22 -1.71894e-22 -0.0156816)
(-8.25231e-22 -1.09108e-20 -0.0141101)
(1.83613e-21 2.25228e-20 -0.0126094)
(2.66007e-20 9.28973e-23 0.0492415)
(3.0807e-22 3.88353e-22 0.0153345)
(-6.01381e-20 4.53841e-22 -0.0136826)
(8.91726e-20 -2.44228e-22 -0.0353947)
(-2.67402e-20 1.09468e-22 -0.0517812)
(-4.30115e-20 -7.84295e-22 -0.0643085)
(1.38188e-20 -2.72638e-24 -0.0739987)
(-1.16275e-20 3.23101e-23 -0.0815514)
(9.40406e-20 -2.57117e-20 -0.087423)
(-2.26069e-21 6.16124e-20 -0.0919446)
(-5.16924e-21 6.60317e-20 -0.0953655)
(-2.02758e-20 -1.03584e-19 -0.0978659)
(6.05392e-20 1.1903e-19 -0.0995826)
(-7.95504e-20 -1.0945e-19 -0.100625)
(2.80386e-20 7.42095e-20 -0.101079)
(-3.95965e-20 -7.84215e-20 -0.101016)
(4.99488e-21 -8.44065e-21 -0.100497)
(-2.95609e-20 -1.14695e-21 -0.0995723)
(2.73363e-20 -2.90956e-21 -0.0982881)
(1.17521e-21 1.95564e-21 -0.0966846)
(8.16446e-21 3.09764e-22 -0.094796)