/*--------------------------------*- C++ -*----------------------------------*\
| =========                 |                                                 |
| \\      /  F ield         | OpenFOAM: The Open Source CFD Toolbox           |
|  \\    /   O peration     | Version:  2412                                  |
|   \\  /    A nd           | Website:  www.openfoam.com                      |
|    \\/     M anipulation  |                                                 |
\*---------------------------------------------------------------------------*/
FoamFile
{
    version     2.0;
    format      ascii;
    arch        "LSB;label=32;scalar=64";
    class       volVectorField;
    location    "14.5";
    object      U;
}
// * * * * * * * * * * * * * * * * * * * * * * * * * * * * * * * * * * * * * //

dimensions      [0 1 -1 0 0 0 0];

internalField   nonuniform List<vector> 
5285
(
(0.11593 0.000911993 0)
(0.115245 0.000858307 0)
(0.115277 0.000191846 0)
(0.115249 -0.000472276 0)
(0.115188 -0.00113188 0)
(0.115086 -0.00178417 0)
(0.11494 -0.0024254 0)
(0.114753 -0.00305198 0)
(0.114528 -0.0036606 0)
(0.114265 -0.00424817 0)
(0.113968 -0.00481176 0)
(0.11364 -0.00534875 0)
(0.113282 -0.00585677 0)
(0.112898 -0.00633376 0)
(0.11249 -0.00677807 0)
(0.112063 -0.00718838 0)
(0.111618 -0.00756382 0)
(0.111159 -0.00790392 0)
(0.110688 -0.00820861 0)
(0.11021 -0.00847821 0)
(0.109726 -0.00871335 0)
(0.10924 -0.00891491 0)
(0.108754 -0.00908399 0)
(0.10827 -0.00922178 0)
(0.114604 0.000808315 0)
(0.114634 0.000185019 0)
(0.11461 -0.000436372 0)
(0.114554 -0.00105396 0)
(0.114461 -0.00166513 0)
(0.114328 -0.00226651 0)
(0.114157 -0.00285484 0)
(0.11395 -0.00342707 0)
(0.113709 -0.00398035 0)
(0.113436 -0.004512 0)
(0.113133 -0.00501955 0)
(0.112803 -0.00550077 0)
(0.112448 -0.00595375 0)
(0.112071 -0.00637688 0)
(0.111676 -0.00676892 0)
(0.111263 -0.00712899 0)
(0.110837 -0.00745662 0)
(0.110401 -0.00775169 0)
(0.109956 -0.00801442 0)
(0.109505 -0.00824533 0)
(0.109051 -0.0084452 0)
(0.108596 -0.00861494 0)
(0.108143 -0.00875559 0)
(0.114005 0.000761813 0)
(0.114032 0.000178128 0)
(0.114011 -0.000404014 0)
(0.113961 -0.000982927 0)
(0.113875 -0.00155623 0)
(0.113753 -0.00212087 0)
(0.113596 -0.00267385 0)
(0.113405 -0.0032124 0)
(0.113183 -0.00373388 0)
(0.112932 -0.00423581 0)
(0.112652 -0.0047159 0)
(0.112348 -0.00517205 0)
(0.11202 -0.00560247 0)
(0.111671 -0.00600561 0)
(0.111305 -0.00638029 0)
(0.110922 -0.00672565 0)
(0.110527 -0.00704119 0)
(0.110121 -0.00732674 0)
(0.109706 -0.00758247 0)
(0.109286 -0.0078088 0)
(0.108863 -0.00800636 0)
(0.108437 -0.00817596 0)
(0.108013 -0.00831849 0)
(0.113442 0.000718639 0)
(0.113468 0.000171378 0)
(0.11345 -0.000374661 0)
(0.113403 -0.000917955 0)
(0.113325 -0.00145635 0)
(0.113213 -0.00198705 0)
(0.113068 -0.00250734 0)
(0.112893 -0.00301469 0)
(0.112688 -0.00350665 0)
(0.112456 -0.00398095 0)
(0.112198 -0.00443542 0)
(0.111916 -0.00486814 0)
(0.111612 -0.00527737 0)
(0.111289 -0.00566168 0)
(0.110949 -0.0060199 0)
(0.110594 -0.0063512 0)
(0.110227 -0.00665507 0)
(0.109849 -0.00693129 0)
(0.109463 -0.00717997 0)
(0.109071 -0.00740144 0)
(0.108676 -0.00759623 0)
(0.108278 -0.00776501 0)
(0.10788 -0.00790856 0)
(0.112915 0.000678595 0)
(0.112939 0.000164869 0)
(0.112922 -0.000347899 0)
(0.11288 -0.000858336 0)
(0.112808 -0.00136448 0)
(0.112704 -0.00186381 0)
(0.112571 -0.00235385 0)
(0.112409 -0.00283226 0)
(0.11222 -0.00329682 0)
(0.112005 -0.00374539 0)
(0.111766 -0.00417598 0)
(0.111506 -0.00458677 0)
(0.111224 -0.00497614 0)
(0.110925 -0.00534271 0)
(0.110609 -0.00568536 0)
(0.11028 -0.00600327 0)
(0.109938 -0.00629591 0)
(0.109586 -0.00656304 0)
(0.109226 -0.0068047 0)
(0.108861 -0.00702112 0)
(0.108491 -0.00721276 0)
(0.108118 -0.00738017 0)
(0.107745 -0.00752401 0)
(0.11242 0.00064146 0)
(0.112442 0.00015867 0)
(0.112427 -0.000323387 0)
(0.112388 -0.000803472 0)
(0.112322 -0.00127981 0)
(0.112226 -0.0017501 0)
(0.112103 -0.00221209 0)
(0.111953 -0.00266365 0)
(0.111778 -0.00310273 0)
(0.111579 -0.00352736 0)
(0.111358 -0.00393567 0)
(0.111116 -0.00432597 0)
(0.110855 -0.00469671 0)
(0.110577 -0.00504659 0)
(0.110284 -0.00537452 0)
(0.109977 -0.0056797 0)
(0.109659 -0.00596158 0)
(0.109331 -0.00621989 0)
(0.108996 -0.00645459 0)
(0.108654 -0.00666586 0)
(0.108309 -0.00685405 0)
(0.10796 -0.00701962 0)
(0.10761 -0.00716313 0)
(0.111954 0.000607024 0)
(0.111974 0.000152818 0)
(0.111961 -0.000300849 0)
(0.111925 -0.000752855 0)
(0.111864 -0.00120159 0)
(0.111775 -0.00164497 0)
(0.111661 -0.00208095 0)
(0.111523 -0.00250757 0)
(0.111361 -0.00292295 0)
(0.111176 -0.00332526 0)
(0.110971 -0.00371279 0)
(0.110746 -0.00408391 0)
(0.110504 -0.0044372 0)
(0.110246 -0.00477138 0)
(0.109973 -0.00508543 0)
(0.109687 -0.00537852 0)
(0.109391 -0.00565011 0)
(0.109085 -0.00589988 0)
(0.108772 -0.00612774 0)
(0.108453 -0.00633379 0)
(0.10813 -0.00651831 0)
(0.107803 -0.00668168 0)
(0.107475 -0.00682433 0)
(0.111516 0.000575081 0)
(0.111535 0.000147327 0)
(0.111523 -0.000280054 0)
(0.11149 -0.000706047 0)
(0.111433 -0.00112919 0)
(0.111351 -0.0015476 0)
(0.111245 -0.00195942 0)
(0.111116 -0.00236285 0)
(0.110966 -0.00275617 0)
(0.110795 -0.00313769 0)
(0.110604 -0.0035058 0)
(0.110395 -0.003859 0)
(0.11017 -0.00419592 0)
(0.109929 -0.00451535 0)
(0.109675 -0.00481628 0)
(0.109409 -0.00509792 0)
(0.109133 -0.00535968 0)
(0.108848 -0.00560121 0)
(0.108555 -0.00582237 0)
(0.108257 -0.0060232 0)
(0.107954 -0.00620388 0)
(0.107648 -0.00636472 0)
(0.10734 -0.00650608 0)
(0.111103 0.000545428 0)
(0.11112 0.00014219 0)
(0.11111 -0.00026082 0)
(0.111079 -0.00066268 0)
(0.111026 -0.00106207 0)
(0.11095 -0.00145729 0)
(0.110852 -0.00184663 0)
(0.110733 -0.00222848 0)
(0.110593 -0.00260124 0)
(0.110434 -0.00296336 0)
(0.110256 -0.00331334 0)
(0.110062 -0.00364976 0)
(0.109852 -0.00397133 0)
(0.109628 -0.00427689 0)
(0.109391 -0.00456546 0)
(0.109143 -0.00483623 0)
(0.108885 -0.00508861 0)
(0.108619 -0.00532222 0)
(0.108346 -0.00553684 0)
(0.108066 -0.00573246 0)
(0.107782 -0.00590918 0)
(0.107495 -0.00606724 0)
(0.107205 -0.00620694 0)
(0.110714 0.000517869 0)
(0.11073 0.000137382 0)
(0.11072 -0.000243 0)
(0.110692 -0.000622445 0)
(0.110643 -0.000999759 0)
(0.110572 -0.0013734 0)
(0.110481 -0.00174183 0)
(0.11037 -0.00210357 0)
(0.11024 -0.00245716 0)
(0.110092 -0.00280116 0)
(0.109927 -0.00313417 0)
(0.109746 -0.00345488 0)
(0.10955 -0.00376205 0)
(0.109341 -0.00405456 0)
(0.10912 -0.00433146 0)
(0.108889 -0.00459193 0)
(0.108648 -0.00483537 0)
(0.108398 -0.00506134 0)
(0.108142 -0.0052696 0)
(0.107881 -0.00546004 0)
(0.107615 -0.00563273 0)
(0.107345 -0.00578781 0)
(0.107072 -0.00592552 0)
(0.110346 0.00049221 0)
(0.110362 0.000132864 0)
(0.110353 -0.000226484 0)
(0.110327 -0.000585083 0)
(0.110281 -0.000941855 0)
(0.110215 -0.00129541 0)
(0.11013 -0.00164435 0)
(0.110027 -0.00198733 0)
(0.109906 -0.00232301 0)
(0.109768 -0.00265007 0)
(0.109614 -0.00296721 0)
(0.109445 -0.00327319 0)
(0.109263 -0.00356682 0)
(0.109068 -0.00384705 0)
(0.108861 -0.00411291 0)
(0.108645 -0.00436361 0)
(0.108419 -0.00459851 0)
(0.108186 -0.00481714 0)
(0.107946 -0.00501919 0)
(0.107701 -0.00520452 0)
(0.107451 -0.00537311 0)
(0.107197 -0.00552505 0)
(0.106941 -0.00566053 0)
(0.11 0.000468265 0)
(0.110014 0.000128585 0)
(0.110006 -0.000211188 0)
(0.109982 -0.000550378 0)
(0.109939 -0.000888014 0)
(0.109878 -0.00122284 0)
(0.109799 -0.0015536 0)
(0.109703 -0.00187906 0)
(0.10959 -0.00219801 0)
(0.109461 -0.00250921 0)
(0.109318 -0.00281147 0)
(0.10916 -0.00310361 0)
(0.10899 -0.00338451 0)
(0.108808 -0.00365314 0)
(0.108615 -0.00390857 0)
(0.108412 -0.00414998 0)
(0.108201 -0.00437671 0)
(0.107982 -0.00458826 0)
(0.107757 -0.00478428 0)
(0.107527 -0.00496455 0)
(0.107291 -0.005129 0)
(0.107053 -0.00527768 0)
(0.106811 -0.00541072 0)
(0.109672 0.000445855 0)
(0.109685 0.000124489 0)
(0.109679 -0.000197049 0)
(0.109656 -0.000518151 0)
(0.109617 -0.000837943 0)
(0.10956 -0.00115529 0)
(0.109486 -0.00146907 0)
(0.109396 -0.00177815 0)
(0.109291 -0.00208143 0)
(0.109171 -0.00237777 0)
(0.109037 -0.00266606 0)
(0.10889 -0.00294519 0)
(0.10873 -0.00321409 0)
(0.10856 -0.00347176 0)
(0.108379 -0.00371727 0)
(0.108189 -0.00394983 0)
(0.107991 -0.00416874 0)
(0.107786 -0.00437346 0)
(0.107575 -0.00456359 0)
(0.107358 -0.00473887 0)
(0.107136 -0.00489917 0)
(0.106911 -0.00504449 0)
(0.106683 -0.00517493 0)
(0.109362 0.000424809 0)
(0.109375 0.000120514 0)
(0.109369 -0.000184022 0)
(0.109348 -0.000488251 0)
(0.109311 -0.000791388 0)
(0.109259 -0.00109242 0)
(0.10919 -0.00139031 0)
(0.109106 -0.00168407 0)
(0.109008 -0.00197266 0)
(0.108896 -0.00225505 0)
(0.108771 -0.00253019 0)
(0.108633 -0.00279705 0)
(0.108484 -0.0030546 0)
(0.108324 -0.00330188 0)
(0.108155 -0.00353798 0)
(0.107977 -0.00376207 0)
(0.107791 -0.00397346 0)
(0.107598 -0.00417156 0)
(0.107399 -0.00435594 0)
(0.107195 -0.00452629 0)
(0.106986 -0.00468244 0)
(0.106773 -0.00482434 0)
(0.106557 -0.00495204 0)
(0.109069 0.000404967 0)
(0.109081 0.000116597 0)
(0.109076 -0.000172071 0)
(0.109057 -0.000460548 0)
(0.109023 -0.000748129 0)
(0.108974 -0.0010339 0)
(0.10891 -0.00131693 0)
(0.108832 -0.00159631 0)
(0.10874 -0.00187112 0)
(0.108636 -0.00214038 0)
(0.108518 -0.00240314 0)
(0.10839 -0.00265841 0)
(0.10825 -0.00290521 0)
(0.1081 -0.00314261 0)
(0.107941 -0.0033697 0)
(0.107774 -0.00358568 0)
(0.107599 -0.00378982 0)
(0.107417 -0.0039815 0)
(0.10723 -0.00416026 0)
(0.107037 -0.00432574 0)
(0.106839 -0.00447774 0)
(0.106638 -0.00461615 0)
(0.106434 -0.00474103 0)
(0.108791 0.000386186 0)
(0.108803 0.000112684 0)
(0.108799 -0.000161167 0)
(0.108781 -0.00043493 0)
(0.10875 -0.000707967 0)
(0.108704 -0.000979455 0)
(0.108645 -0.00124856 0)
(0.108572 -0.00151446 0)
(0.108486 -0.0017763 0)
(0.108388 -0.0020332 0)
(0.108279 -0.00228426 0)
(0.108158 -0.00252854 0)
(0.108027 -0.00276513 0)
(0.107887 -0.0029931 0)
(0.107737 -0.00321158 0)
(0.10758 -0.00341974 0)
(0.107415 -0.00361686 0)
(0.107244 -0.00380229 0)
(0.107067 -0.00397553 0)
(0.106884 -0.0041362 0)
(0.106698 -0.00428406 0)
(0.106507 -0.00441897 0)
(0.106313 -0.00454094 0)
(0.108528 0.000368313 0)
(0.108539 0.000108723 0)
(0.108536 -0.000151284 0)
(0.10852 -0.000411295 0)
(0.108491 -0.000670725 0)
(0.108448 -0.000928837 0)
(0.108393 -0.00118488 0)
(0.108325 -0.00143811 0)
(0.108246 -0.00168774 0)
(0.108154 -0.00193297 0)
(0.108052 -0.00217294 0)
(0.107938 -0.0024068 0)
(0.107816 -0.00263365 0)
(0.107683 -0.0028526 0)
(0.107543 -0.00306279 0)
(0.107394 -0.0032634 0)
(0.107239 -0.0034537 0)
(0.107077 -0.00363302 0)
(0.10691 -0.00380085 0)
(0.106737 -0.00395676 0)
(0.10656 -0.00410049 0)
(0.106379 -0.00423188 0)
(0.106195 -0.00435092 0)
(0.108279 0.00035116 0)
(0.108289 0.000104651 0)
(0.108287 -0.000142399 0)
(0.108272 -0.000389549 0)
(0.108245 -0.000636239 0)
(0.108206 -0.000881809 0)
(0.108155 -0.00112559 0)
(0.108092 -0.00136689 0)
(0.108017 -0.00160501 0)
(0.107931 -0.00183919 0)
(0.107835 -0.00206866 0)
(0.107729 -0.00229258 0)
(0.107614 -0.00251012 0)
(0.10749 -0.0027204 0)
(0.107357 -0.0029226 0)
(0.107217 -0.00311589 0)
(0.10707 -0.00329955 0)
(0.106917 -0.0034729 0)
(0.106759 -0.00363539 0)
(0.106595 -0.00378659 0)
(0.106427 -0.00392622 0)
(0.106255 -0.00405409 0)
(0.10608 -0.00417018 0)
(0.114443 0.00532982 1.65216e-24)
(0.114796 0.00475825 -1.65608e-24)
(0.113907 0.00501061 -1.52186e-24)
(0.114232 0.00447153 5.33389e-23)
(0.114549 0.00391976 -3.28263e-24)
(0.114855 0.00335634 0)
(0.11515 0.00278179 1.14763e-22)
(0.115436 0.00219426 -2.64577e-22)
(0.115738 0.00158322 -4.2315e-24)
(0.113402 0.0047156 1.4006e-24)
(0.113701 0.00420668 -9.16878e-23)
(0.113992 0.00368594 -9.58633e-23)
(0.114272 0.00315441 1.96147e-25)
(0.114541 0.00261264 -2.31676e-22)
(0.1148 0.00205938 2.3647e-22)
(0.115072 0.00148597 2.41718e-22)
(0.112924 0.00444256 -1.07731e-23)
(0.1132 0.00396174 4.60378e-23)
(0.113467 0.00346983 1.81651e-22)
(0.113724 0.0029679 9.77382e-23)
(0.113969 0.00245656 1.09496e-22)
(0.114204 0.00193496 -4.43238e-22)
(0.114449 0.00139608 -4.75173e-22)
(0.112472 0.0041896 1.06822e-23)
(0.112727 0.00373493 1.36916e-24)
(0.112973 0.00326988 -9.11148e-23)
(0.113208 0.00279548 -1.84978e-22)
(0.113432 0.00231238 -1.6853e-25)
(0.113645 0.00182009 1.18461e-22)
(0.113865 0.00131298 2.25999e-22)
(0.112045 0.00395494 6.86079e-24)
(0.112281 0.00352468 3.43059e-24)
(0.112506 0.00308466 -3.97442e-23)
(0.112722 0.00263588 1.676e-22)
(0.112926 0.00217905 0)
(0.113119 0.00171397 1.01784e-22)
(0.113317 0.00123615 -3.05601e-24)
(0.11164 0.003737 -1.42111e-23)
(0.111858 0.00332953 -9.92238e-25)
(0.112066 0.00291286 3.51088e-23)
(0.112264 0.00248799 -1.5427e-22)
(0.11245 0.00205564 7.87437e-23)
(0.112625 0.00161583 8.93156e-23)
(0.112802 0.00116509 -2.81332e-24)
(0.111256 0.00353435 7.25693e-24)
(0.111458 0.00314818 0)
(0.11165 0.00275334 0)
(0.111831 0.00235078 7.38103e-23)
(0.112001 0.00194126 -8.12861e-23)
(0.11216 0.001525 -1.58404e-22)
(0.112319 0.00109933 -8.15435e-23)
(0.110892 0.0033457 8.23206e-25)
(0.111079 0.00297947 1.41361e-23)
(0.111256 0.00260504 1.46783e-25)
(0.111423 0.00222334 1.41672e-25)
(0.111578 0.00183516 6.43761e-23)
(0.111721 0.00144085 1.50152e-22)
(0.111863 0.00103843 1.53885e-22)
(0.110547 0.00316988 -7.46708e-25)
(0.11072 0.00282232 -1.24311e-23)
(0.110884 0.00246701 0)
(0.111037 0.00210485 -2.83148e-23)
(0.111178 0.00173662 -6.64411e-23)
(0.111308 0.00136279 -3.62298e-24)
(0.111435 0.000981981 -1.45661e-22)
(0.110218 0.00300584 0)
(0.11038 0.00267579 -9.30886e-24)
(0.110531 0.0023384 -2.36002e-23)
(0.110671 0.00199454 2.49479e-23)
(0.1108 0.00164499 3.62954e-24)
(0.110917 0.00129032 -6.46793e-23)
(0.111031 0.000929602 6.6573e-23)
(0.109906 0.00285261 -6.0673e-25)
(0.110056 0.002539 1.27645e-23)
(0.110196 0.00221843 2.24095e-23)
(0.110325 0.00189173 1.59679e-24)
(0.110442 0.00155968 -1.59656e-24)
(0.110549 0.00122293 -5.41815e-23)
(0.110649 0.000880937 0)
(0.109609 0.00270933 2.46324e-24)
(0.109749 0.00241116 -5.42485e-25)
(0.109878 0.00210637 -1.33405e-24)
(0.109997 0.00179578 2.10851e-23)
(0.110104 0.00148016 -1.11999e-25)
(0.1102 0.0011602 8.19843e-23)
(0.110289 0.000835654 5.08206e-23)
(0.109327 0.00257519 -2.40559e-24)
(0.109457 0.00229153 1.56734e-24)
(0.109576 0.00200157 1.17332e-25)
(0.109686 0.00170612 -4.28227e-23)
(0.109783 0.00140592 1.31058e-24)
(0.10987 0.0011017 -4.54786e-23)
(0.109949 0.000793442 -5.38622e-23)
(0.109058 0.00244949 4.24576e-25)
(0.109179 0.00217946 5.41562e-25)
(0.10929 0.00190346 -7.59731e-24)
(0.10939 0.00162223 1.9214e-23)
(0.109479 0.00133652 -1.17992e-24)
(0.109557 0.00104705 2.37141e-23)
(0.109627 0.000754011 -2.29982e-23)
(0.108802 0.00233154 -3.70213e-25)
(0.108915 0.00207435 3.69903e-25)
(0.109017 0.00181147 1.35665e-23)
(0.10911 0.00154362 -1.03359e-25)
(0.109191 0.00127152 9.44102e-24)
(0.109261 0.000995904 -1.94365e-23)
(0.109322 0.000717091 2.28089e-23)
(0.108557 0.00222075 -3.1865e-25)
(0.108663 0.00197565 2.34662e-24)
(0.108758 0.00172512 -6.71109e-24)
(0.108843 0.00146986 -8.44935e-25)
(0.108917 0.00121056 -1.5843e-23)
(0.10898 0.000947946 1.92854e-23)
(0.109034 0.000682436 -1.11235e-24)
(0.108324 0.00211657 4.89731e-25)
(0.108423 0.00188286 1.77477e-25)
(0.108512 0.00164397 2.67282e-24)
(0.10859 0.00140056 9.54117e-26)
(0.108657 0.00115331 7.54961e-24)
(0.108714 0.000902895 -9.15185e-25)
(0.108761 0.000649825 -7.8405e-24)
(0.108102 0.00201851 -2.20383e-25)
(0.108194 0.00179555 -6.3817e-25)
(0.108277 0.00156764 -3.2164e-24)
(0.108349 0.0013354 6.38512e-25)
(0.10841 0.00109946 1.44172e-24)
(0.108461 0.000860488 4.08313e-24)
(0.108501 0.000619019 6.93722e-24)
(0.10789 0.00192613 1.79003e-25)
(0.107976 0.0017133 -6.31199e-25)
(0.108053 0.00149572 5.46179e-25)
(0.108119 0.00127398 -1.17507e-24)
(0.108175 0.00104866 -8.13083e-25)
(0.10822 0.000820374 -2.40298e-24)
(0.108255 0.000589675 -7.76885e-25)
(0.113712 0.00642836 4.38735e-23)
(0.114081 0.00588682 1.4116e-24)
(0.111449 0.00836268 -1.4485e-24)
(0.111821 0.00793197 1.09198e-22)
(0.112174 0.00748527 -5.61312e-23)
(0.11253 0.00702225 0)
(0.112884 0.00654262 -2.36845e-24)
(0.113233 0.00604697 3.65671e-24)
(0.113574 0.00553599 -1.29485e-24)
(0.111117 0.00787957 -7.01221e-23)
(0.111463 0.00747344 -8.29679e-23)
(0.111793 0.00705197 5.27132e-23)
(0.112125 0.00661491 -2.29652e-25)
(0.112454 0.00616209 6.22875e-23)
(0.112778 0.00569406 3.56145e-23)
(0.113094 0.00521168 1.18597e-24)
(0.110797 0.0074313 1.27147e-22)
(0.11112 0.00704803 1.59487e-22)
(0.111429 0.00665008 0)
(0.111739 0.00623724 -4.83742e-23)
(0.112046 0.00580942 -1.21014e-22)
(0.112346 0.00536721 -6.51884e-23)
(0.112639 0.00491133 7.60892e-24)
(0.110488 0.00701489 -5.94551e-23)
(0.110791 0.00665293 -4.05136e-23)
(0.111081 0.00627692 2.07034e-25)
(0.11137 0.00588668 9.37285e-23)
(0.111657 0.00548219 5.49568e-23)
(0.111936 0.00506402 3.24114e-23)
(0.112208 0.00463291 -7.71752e-24)
(0.110191 0.00662768 -8.4096e-25)
(0.110475 0.00628559 -3.15859e-23)
(0.110747 0.00593004 0)
(0.111019 0.00556091 -8.50694e-23)
(0.111286 0.0051782 2.14384e-23)
(0.111547 0.00478249 2.51268e-24)
(0.1118 0.00437449 -8.12858e-24)
(0.109905 0.00626723 -7.12067e-25)
(0.110173 0.00594369 -2.23554e-23)
(0.110429 0.00560725 -2.95588e-23)
(0.110683 0.00525783 7.58327e-23)
(0.110934 0.00489547 -2.43459e-23)
(0.111177 0.00452074 -8.17257e-25)
(0.111413 0.00413435 1.46201e-23)
(0.10963 0.00593135 1.39953e-23)
(0.109882 0.00562513 4.48039e-23)
(0.110123 0.00530655 2.89623e-23)
(0.110363 0.00497555 -6.67845e-23)
(0.110598 0.00463222 0)
(0.110825 0.00427712 0)
(0.111045 0.00391093 -6.574e-24)
(0.109365 0.00561804 -2.50519e-23)
(0.109603 0.005328 -3.60532e-23)
(0.109832 0.00502611 -2.26608e-23)
(0.110057 0.00471236 3.10785e-23)
(0.110278 0.00438684 -1.69608e-25)
(0.110491 0.00405012 -8.93193e-24)
(0.110696 0.00370284 6.64248e-25)
(0.109111 0.00532548 1.02176e-23)
(0.109336 0.00505058 3.77132e-24)
(0.109552 0.00476432 2.18257e-23)
(0.109765 0.00446671 1.16921e-23)
(0.109972 0.00415788 0)
(0.110172 0.00383836 1.00387e-23)
(0.110364 0.00350881 -5.9472e-25)
(0.108866 0.00505204 -4.71095e-24)
(0.10908 0.0047913 1.28485e-23)
(0.109284 0.00451967 1.02794e-24)
(0.109485 0.00423719 -1.30414e-23)
(0.109681 0.00394401 1.21999e-23)
(0.109868 0.00364065 8.28707e-24)
(0.110048 0.0033277 0)
(0.108631 0.00479622 2.8101e-24)
(0.108834 0.00454873 6.76098e-24)
(0.109028 0.00429083 -4.87128e-25)
(0.109218 0.00402253 4.87256e-25)
(0.109402 0.00374402 -1.31562e-23)
(0.109579 0.00345581 -6.13451e-24)
(0.109747 0.00315845 -4.67276e-25)
(0.108405 0.00455664 2.56955e-24)
(0.108598 0.00432158 -8.37149e-24)
(0.108783 0.00407654 1.47532e-25)
(0.108963 0.00382155 -6.44267e-24)
(0.109137 0.00355681 -5.33504e-25)
(0.109303 0.0032828 -4.08631e-25)
(0.109461 0.00300011 -1.24955e-24)
(0.108188 0.00433207 -1.04087e-24)
(0.108372 0.00410867 2.53267e-24)
(0.108548 0.0038757 2.91536e-25)
(0.108719 0.0036332 1.09349e-23)
(0.108883 0.0033814 -1.38027e-25)
(0.109039 0.00312075 3.27896e-24)
(0.109188 0.00285182 1.30754e-24)
(0.107979 0.00412137 -2.88221e-24)
(0.108155 0.00390891 -6.64335e-25)
(0.108322 0.00368727 -2.01656e-25)
(0.108485 0.00345653 -5.20586e-24)
(0.10864 0.00321689 2.74159e-24)
(0.108788 0.0029688 -2.18596e-24)
(0.108928 0.00271281 3.00888e-25)
(0.107779 0.0039235 2.79961e-24)
(0.107946 0.00372132 -1.75324e-24)
(0.108106 0.00351033 2.29476e-26)
(0.108261 0.00329063 1.30706e-25)
(0.108408 0.00306243 -5.2794e-24)
(0.108548 0.00282616 2.50909e-25)
(0.108679 0.00258235 2.63925e-25)
(0.107586 0.00373751 2.21852e-25)
(0.107746 0.00354498 1.67985e-24)
(0.107899 0.00334402 -4.23366e-25)
(0.108046 0.0031347 -1.62298e-25)
(0.108187 0.00291725 2.03233e-24)
(0.108319 0.00269211 -1.17397e-25)
(0.108443 0.00245977 -7.19742e-25)
(0.107401 0.00356251 -3.06449e-24)
(0.107554 0.00337906 1.63221e-25)
(0.107701 0.00318752 9.40997e-25)
(0.107841 0.00298798 -1.21865e-25)
(0.107974 0.00278067 -5.28742e-25)
(0.1081 0.00256602 2.14432e-25)
(0.108217 0.00234448 -6.67495e-27)
(0.107223 0.00339769 3.40744e-24)
(0.10737 0.00322279 9.3834e-25)
(0.107511 0.0030401 -5.4784e-25)
(0.107645 0.00284977 4.30082e-27)
(0.107771 0.00265202 3.55579e-25)
(0.10789 0.00244726 3.00515e-25)
(0.108001 0.00223593 1.65919e-25)
(0.107052 0.00324237 4.10196e-25)
(0.107193 0.00307558 -1.70187e-24)
(0.107328 0.00290125 -1.81821e-25)
(0.107456 0.00271958 2.52073e-25)
(0.107577 0.00253083 -1.9373e-26)
(0.10769 0.00233538 6.1889e-26)
(0.107795 0.00213366 7.5632e-26)
(0.0995553 0.00622702 0)
(0.0996638 0.00641213 0)
(0.0997825 0.00660054 0)
(0.099912 0.00679186 0)
(0.100053 0.00698565 0)
(0.100206 0.00718148 0)
(0.100372 0.00737881 0)
(0.100552 0.00757706 0)
(0.100745 0.00777557 0)
(0.100954 0.00797358 0)
(0.101179 0.00817026 0)
(0.101419 0.00836464 0)
(0.101677 0.00855566 0)
(0.101952 0.00874217 0)
(0.102246 0.00892285 0)
(0.102558 0.00909631 0)
(0.102889 0.00926101 0)
(0.103239 0.00941528 0)
(0.103609 0.00955738 0)
(0.103998 0.00968541 0)
(0.104407 0.00979739 0)
(0.104834 0.00989127 0)
(0.10528 0.00996491 0)
(0.105743 0.0100161 0)
(0.106223 0.0100427 0)
(0.106718 0.0100424 0)
(0.107227 0.0100131 0)
(0.107748 0.00995259 0)
(0.108278 0.0098589 0)
(0.108816 0.00973007 0)
(0.109358 0.0095641 0)
(0.109902 0.00935836 0)
(0.110443 0.00910735 0)
(0.110995 0.00879319 0)
(0.0997339 0.0061215 0)
(0.0998455 0.00629689 0)
(0.099967 0.00647498 0)
(0.100099 0.00665536 0)
(0.100242 0.00683757 0)
(0.100397 0.00702115 0)
(0.100563 0.00720558 0)
(0.100743 0.00739026 0)
(0.100937 0.00757454 0)
(0.101144 0.00775767 0)
(0.101367 0.00793882 0)
(0.101604 0.00811708 0)
(0.101858 0.00829141 0)
(0.102128 0.00846071 0)
(0.102414 0.00862374 0)
(0.102718 0.00877917 0)
(0.103039 0.00892556 0)
(0.103378 0.00906138 0)
(0.103735 0.00918499 0)
(0.104109 0.00929466 0)
(0.104501 0.00938858 0)
(0.104909 0.00946488 0)
(0.105334 0.00952163 0)
(0.105774 0.00955686 0)
(0.106229 0.00956861 0)
(0.106697 0.00955491 0)
(0.107176 0.00951384 0)
(0.107666 0.00944354 0)
(0.108163 0.00934226 0)
(0.108667 0.00920832 0)
(0.109173 0.00904 0)
(0.109679 0.00883507 0)
(0.110183 0.00858874 0)
(0.110695 0.00828538 0)
(0.0999032 0.00601304 0)
(0.100017 0.00617902 0)
(0.100141 0.00634713 0)
(0.100275 0.00651696 0)
(0.100419 0.00668805 0)
(0.100575 0.00685992 0)
(0.100742 0.00703205 0)
(0.100921 0.00720385 0)
(0.101114 0.00737466 0)
(0.101319 0.00754375 0)
(0.101539 0.00771032 0)
(0.101773 0.00787349 0)
(0.102022 0.00803227 0)
(0.102286 0.00818559 0)
(0.102565 0.0083323 0)
(0.102861 0.00847114 0)
(0.103172 0.00860078 0)
(0.1035 0.00871977 0)
(0.103843 0.00882661 0)
(0.104202 0.00891972 0)
(0.104577 0.00899744 0)
(0.104968 0.00905807 0)
(0.105372 0.00909987 0)
(0.10579 0.00912109 0)
(0.106221 0.00911996 0)
(0.106664 0.00909475 0)
(0.107116 0.00904376 0)
(0.107576 0.00896539 0)
(0.108043 0.00885809 0)
(0.108514 0.00872044 0)
(0.108988 0.00855097 0)
(0.10946 0.00834775 0)
(0.109929 0.00810667 0)
(0.110404 0.00781404 0)
(0.100063 0.00590218 0)
(0.10018 0.00605906 0)
(0.100305 0.00621756 0)
(0.10044 0.00637726 0)
(0.100585 0.00653769 0)
(0.100741 0.00669839 0)
(0.100908 0.00685881 0)
(0.101087 0.00701839 0)
(0.101277 0.00717647 0)
(0.101481 0.00733236 0)
(0.101697 0.00748526 0)
(0.101927 0.00763433 0)
(0.102171 0.00777864 0)
(0.102428 0.00791716 0)
(0.102701 0.00804881 0)
(0.102987 0.00817241 0)
(0.103289 0.00828671 0)
(0.103605 0.00839038 0)
(0.103935 0.00848204 0)
(0.10428 0.00856022 0)
(0.104639 0.00862343 0)
(0.105012 0.00867012 0)
(0.105397 0.00869872 0)
(0.105794 0.00870767 0)
(0.106203 0.00869538 0)
(0.106621 0.00866033 0)
(0.107047 0.00860102 0)
(0.10748 0.00851605 0)
(0.107919 0.00840409 0)
(0.10836 0.00826392 0)
(0.108803 0.00809428 0)
(0.109243 0.00789353 0)
(0.10968 0.00765811 0)
(0.110122 0.0073761 0)
(0.100215 0.00578944 0)
(0.100333 0.00593753 0)
(0.100459 0.00608678 0)
(0.100595 0.00623677 0)
(0.10074 0.00638702 0)
(0.100896 0.00653707 0)
(0.101062 0.00668639 0)
(0.10124 0.0068344 0)
(0.101428 0.00698049 0)
(0.101629 0.00712396 0)
(0.101842 0.00726407 0)
(0.102067 0.00739999 0)
(0.102305 0.00753084 0)
(0.102557 0.00765567 0)
(0.102821 0.00777344 0)
(0.103099 0.00788305 0)
(0.103391 0.00798334 0)
(0.103695 0.00807308 0)
(0.104013 0.008151 0)
(0.104344 0.00821575 0)
(0.104688 0.00826598 0)
(0.105043 0.00830029 0)
(0.10541 0.00831726 0)
(0.105787 0.00831548 0)
(0.106174 0.00829355 0)
(0.106569 0.00825013 0)
(0.106972 0.00818389 0)
(0.10738 0.00809362 0)
(0.107791 0.00797817 0)
(0.108205 0.00783647 0)
(0.108619 0.00766749 0)
(0.109031 0.0074698 0)
(0.109438 0.00724035 0)
(0.109849 0.00696877 0)
(0.100358 0.00567526 0)
(0.100477 0.00581489 0)
(0.100604 0.00595527 0)
(0.10074 0.00609596 0)
(0.100886 0.00623651 0)
(0.101041 0.00637643 0)
(0.101206 0.00651522 0)
(0.101381 0.00665231 0)
(0.101568 0.00678711 0)
(0.101765 0.00691894 0)
(0.101974 0.00704708 0)
(0.102195 0.00717076 0)
(0.102427 0.00728914 0)
(0.102672 0.0074013 0)
(0.102929 0.00750629 0)
(0.103198 0.00760307 0)
(0.103479 0.00769058 0)
(0.103773 0.00776767 0)
(0.104078 0.00783317 0)
(0.104396 0.00788586 0)
(0.104724 0.0079245 0)
(0.105063 0.00794782 0)
(0.105412 0.00795455 0)
(0.105771 0.00794343 0)
(0.106137 0.00791321 0)
(0.106511 0.00786271 0)
(0.106891 0.00779076 0)
(0.107275 0.0076963 0)
(0.107662 0.00757834 0)
(0.10805 0.00743597 0)
(0.108438 0.00726831 0)
(0.108823 0.00707416 0)
(0.109203 0.0068509 0)
(0.109585 0.00658953 0)
(0.100493 0.00556006 0)
(0.100612 0.00569156 0)
(0.10074 0.00582344 0)
(0.100876 0.00595526 0)
(0.101021 0.00608656 0)
(0.101175 0.00621687 0)
(0.101339 0.0063457 0)
(0.101512 0.0064725 0)
(0.101696 0.00659668 0)
(0.10189 0.0067176 0)
(0.102094 0.00683458 0)
(0.10231 0.00694687 0)
(0.102537 0.00705368 0)
(0.102774 0.00715416 0)
(0.103024 0.0072474 0)
(0.103284 0.00733244 0)
(0.103556 0.00740829 0)
(0.103838 0.00747391 0)
(0.104132 0.0075282 0)
(0.104436 0.00757006 0)
(0.10475 0.00759836 0)
(0.105073 0.00761195 0)
(0.105405 0.0076097 0)
(0.105746 0.00759046 0)
(0.106093 0.00755315 0)
(0.106447 0.00749669 0)
(0.106805 0.00742009 0)
(0.107167 0.0073224 0)
(0.107531 0.00720278 0)
(0.107896 0.00706046 0)
(0.108259 0.00689468 0)
(0.108619 0.00670443 0)
(0.108974 0.00648748 0)
(0.10933 0.00623606 0)
(0.10062 0.00544421 0)
(0.10074 0.00556792 0)
(0.100867 0.00569167 0)
(0.101003 0.00581503 0)
(0.101147 0.00593754 0)
(0.1013 0.00605876 0)
(0.101462 0.00617818 0)
(0.101633 0.00629528 0)
(0.101813 0.0064095 0)
(0.102003 0.00652022 0)
(0.102204 0.00662678 0)
(0.102414 0.0067285 0)
(0.102635 0.0068246 0)
(0.102866 0.0069143 0)
(0.103107 0.00699675 0)
(0.103359 0.00707106 0)
(0.103621 0.0071363 0)
(0.103893 0.00719151 0)
(0.104175 0.0072357 0)
(0.104466 0.00726785 0)
(0.104766 0.00728695 0)
(0.105074 0.00729195 0)
(0.105391 0.00728183 0)
(0.105714 0.00725557 0)
(0.106043 0.00721221 0)
(0.106378 0.0071508 0)
(0.106716 0.00707046 0)
(0.107057 0.00697037 0)
(0.1074 0.00684981 0)
(0.107742 0.00670812 0)
(0.108083 0.00654467 0)
(0.10842 0.00635861 0)
(0.108752 0.00614804 0)
(0.109084 0.00590629 0)
(0.10074 0.00532805 0)
(0.10086 0.0054443 0)
(0.100987 0.00556029 0)
(0.101122 0.00567561 0)
(0.101264 0.00578978 0)
(0.101416 0.00590238 0)
(0.101575 0.00601293 0)
(0.101744 0.00612092 0)
(0.101921 0.0062258 0)
(0.102107 0.00632699 0)
(0.102303 0.00642386 0)
(0.102508 0.00651576 0)
(0.102723 0.00660197 0)
(0.102947 0.00668174 0)
(0.103181 0.00675429 0)
(0.103424 0.00681879 0)
(0.103676 0.00687438 0)
(0.103938 0.00692017 0)
(0.104208 0.00695527 0)
(0.104487 0.00697874 0)
(0.104774 0.00698965 0)
(0.105068 0.00698708 0)
(0.105369 0.00697009 0)
(0.105676 0.00693779 0)
(0.105988 0.0068893 0)
(0.106305 0.0068238 0)
(0.106625 0.00674052 0)
(0.106946 0.00663875 0)
(0.107269 0.00651787 0)
(0.107591 0.00637731 0)
(0.10791 0.00621654 0)
(0.108226 0.00603488 0)
(0.108537 0.0058307 0)
(0.108847 0.00559833 0)
(0.100852 0.00521188 0)
(0.100972 0.00532101 0)
(0.101098 0.00542961 0)
(0.101232 0.00553728 0)
(0.101374 0.00564356 0)
(0.101523 0.00574802 0)
(0.10168 0.00585021 0)
(0.101845 0.00594963 0)
(0.102019 0.00604577 0)
(0.102202 0.00613807 0)
(0.102393 0.00622593 0)
(0.102592 0.00630873 0)
(0.102801 0.0063858 0)
(0.103018 0.00645644 0)
(0.103244 0.00651992 0)
(0.103479 0.00657546 0)
(0.103722 0.00662229 0)
(0.103974 0.00665958 0)
(0.104233 0.00668649 0)
(0.1045 0.00670221 0)
(0.104774 0.00670586 0)
(0.105055 0.00669662 0)
(0.105341 0.00667366 0)
(0.105633 0.00663617 0)
(0.105929 0.00658338 0)
(0.106229 0.00651456 0)
(0.106531 0.00642904 0)
(0.106834 0.00632619 0)
(0.107138 0.0062055 0)
(0.107441 0.00606648 0)
(0.107741 0.00590869 0)
(0.108038 0.00573156 0)
(0.108329 0.00553375 0)
(0.108618 0.00531046 0)
(0.100958 0.00509599 0)
(0.101077 0.00519832 0)
(0.101202 0.00529989 0)
(0.101335 0.0054003 0)
(0.101475 0.0054991 0)
(0.101622 0.00559589 0)
(0.101777 0.00569022 0)
(0.101939 0.00578161 0)
(0.102109 0.00586958 0)
(0.102287 0.00595359 0)
(0.102474 0.00603308 0)
(0.102668 0.00610746 0)
(0.10287 0.0061761 0)
(0.103081 0.00623835 0)
(0.1033 0.00629352 0)
(0.103526 0.0063409 0)
(0.10376 0.00637977 0)
(0.104002 0.00640937 0)
(0.10425 0.00642895 0)
(0.104506 0.00643774 0)
(0.104768 0.00643498 0)
(0.105035 0.0064199 0)
(0.105308 0.00639176 0)
(0.105585 0.00634985 0)
(0.105866 0.00629347 0)
(0.10615 0.006222 0)
(0.106436 0.00613483 0)
(0.106722 0.00603144 0)
(0.107009 0.00591137 0)
(0.107294 0.00577422 0)
(0.107576 0.00561964 0)
(0.107854 0.00544714 0)
(0.108127 0.00525564 0)
(0.108398 0.0050411 0)
(0.101057 0.00498062 0)
(0.101175 0.00507647 0)
(0.1013 0.00517136 0)
(0.101431 0.00526489 0)
(0.101569 0.00535663 0)
(0.101713 0.00544618 0)
(0.101865 0.00553312 0)
(0.102025 0.005617 0)
(0.102191 0.00569734 0)
(0.102365 0.00577363 0)
(0.102546 0.00584535 0)
(0.102735 0.00591194 0)
(0.102932 0.00597281 0)
(0.103136 0.00602735 0)
(0.103347 0.00607493 0)
(0.103565 0.00611488 0)
(0.10379 0.00614654 0)
(0.104023 0.00616922 0)
(0.104261 0.00618222 0)
(0.104506 0.00618485 0)
(0.104756 0.00617641 0)
(0.105011 0.00615623 0)
(0.105271 0.00612362 0)
(0.105534 0.00607796 0)
(0.105801 0.00601864 0)
(0.10607 0.0059451 0)
(0.10634 0.00585681 0)
(0.10661 0.00575332 0)
(0.10688 0.00563423 0)
(0.107149 0.00549923 0)
(0.107414 0.00534802 0)
(0.107676 0.00518022 0)
(0.107932 0.00499493 0)
(0.108185 0.00478884 0)