/*--------------------------------*- C++ -*----------------------------------*\
| =========                 |                                                 |
| \\      /  F ield         | OpenFOAM: The Open Source CFD Toolbox           |
|  \\    /   O peration     | Version:  2412                                  |
|   \\  /    A nd           | Website:  www.openfoam.com                      |
|    \\/     M anipulation  |                                                 |
\*---------------------------------------------------------------------------*/
FoamFile
{
    version     2.0;
    format      ascii;
    arch        "LSB;label=32;scalar=64";
    class       volScalarField;
    location    "7.5";
    object      p;
}
// * * * * * * * * * * * * * * * * * * * * * * * * * * * * * * * * * * * * * //

dimensions      [0 2 -2 0 0 0 0];

internalField   nonuniform List<scalar> 
63420
(
0.00105584
0.00105758
0.00105712
0.00105915
0.00106077
0.00106292
0.00106552
0.00106844
0.00107175
0.00107544
0.00107948
0.00108387
0.00108862
0.00109371
0.00109914
0.00110491
0.00111101
0.00111745
0.00112422
0.00113132
0.00113875
0.00114652
0.00115462
0.00116305
0.00117182
0.00118093
0.00119038
0.00120017
0.00121031
0.0012208
0.00123164
0.00124284
0.00125439
0.00126631
0.00127859
0.00129124
0.00130427
0.00131768
0.00133147
0.00134564
0.00136021
0.00137518
0.00139055
0.00140633
0.00142251
0.00143912
0.00145614
0.00147359
0.00149147
0.00150979
0.00152855
0.00154776
0.00156743
0.00158755
0.00160813
0.00105578
0.00105752
0.00105706
0.00105909
0.00106071
0.00106285
0.00106546
0.00106838
0.00107168
0.00107536
0.0010794
0.00108379
0.00108854
0.00109362
0.00109905
0.00110481
0.00111091
0.00111734
0.00112411
0.0011312
0.00113863
0.00114639
0.00115448
0.0011629
0.00117167
0.00118076
0.0011902
0.00119999
0.00121011
0.00122059
0.00123142
0.0012426
0.00125414
0.00126604
0.0012783
0.00129094
0.00130395
0.00131734
0.00133111
0.00134526
0.00135981
0.00137475
0.00139009
0.00140584
0.001422
0.00143857
0.00145556
0.00147298
0.00149082
0.0015091
0.00152782
0.00154699
0.0015666
0.00158667
0.0016072
0.00105567
0.0010574
0.00105694
0.00105896
0.00106058
0.00106272
0.00106532
0.00106824
0.00107154
0.00107522
0.00107925
0.00108363
0.00108837
0.00109345
0.00109887
0.00110462
0.00111071
0.00111713
0.00112388
0.00113096
0.00113837
0.00114612
0.0011542
0.0011626
0.00117135
0.00118043
0.00118985
0.00119961
0.00120971
0.00122017
0.00123097
0.00124212
0.00125363
0.0012655
0.00127774
0.00129034
0.00130331
0.00131666
0.00133039
0.0013445
0.001359
0.00137389
0.00138918
0.00140487
0.00142097
0.00143748
0.00145441
0.00147175
0.00148952
0.00150772
0.00152636
0.00154543
0.00156495
0.00158492
0.00160534
0.0010555
0.00105723
0.00105676
0.00105878
0.00106039
0.00106252
0.00106512
0.00106803
0.00107133
0.00107499
0.00107902
0.00108339
0.00108812
0.00109318
0.00109859
0.00110433
0.0011104
0.00111681
0.00112354
0.0011306
0.001138
0.00114572
0.00115377
0.00116216
0.00117087
0.00117993
0.00118932
0.00119905
0.00120912
0.00121953
0.0012303
0.00124141
0.00125288
0.0012647
0.00127689
0.00128943
0.00130235
0.00131564
0.00132931
0.00134336
0.00135779
0.0013726
0.00138782
0.00140343
0.00141944
0.00143585
0.00145268
0.00146992
0.00148758
0.00150566
0.00152417
0.00154311
0.00156249
0.00158231
0.00160257
0.00105527
0.001057
0.00105652
0.00105853
0.00106014
0.00106226
0.00106485
0.00106776
0.00107104
0.0010747
0.00107871
0.00108307
0.00108778
0.00109284
0.00109822
0.00110394
0.00111
0.00111638
0.00112309
0.00113013
0.00113749
0.00114519
0.00115321
0.00116156
0.00117024
0.00117926
0.00118861
0.0011983
0.00120832
0.00121869
0.0012294
0.00124046
0.00125187
0.00126363
0.00127575
0.00128823
0.00130108
0.00131429
0.00132788
0.00134184
0.00135617
0.00137089
0.001386
0.0014015
0.0014174
0.00143369
0.00145038
0.00146748
0.001485
0.00150292
0.00152127
0.00154003
0.00155923
0.00157884
0.00159889
0.00105498
0.00105671
0.00105622
0.00105821
0.00105982
0.00106193
0.00106452
0.00106741
0.00107069
0.00107433
0.00107833
0.00108268
0.00108737
0.0010924
0.00109776
0.00110346
0.00110949
0.00111584
0.00112252
0.00112953
0.00113686
0.00114452
0.00115251
0.00116082
0.00116946
0.00117843
0.00118773
0.00119736
0.00120733
0.00121764
0.00122829
0.00123928
0.00125062
0.0012623
0.00127434
0.00128674
0.00129949
0.00131261
0.00132609
0.00133994
0.00135417
0.00136877
0.00138375
0.00139911
0.00141486
0.001431
0.00144753
0.00146446
0.00148179
0.00149952
0.00151766
0.00153621
0.00155517
0.00157454
0.00159433
0.00105464
0.00105636
0.00105586
0.00105784
0.00105945
0.00106154
0.00106412
0.001067
0.00107026
0.00107389
0.00107787
0.0010822
0.00108687
0.00109188
0.00109722
0.00110288
0.00110888
0.0011152
0.00112185
0.00112882
0.00113611
0.00114373
0.00115166
0.00115993
0.00116851
0.00117743
0.00118667
0.00119624
0.00120614
0.00121638
0.00122695
0.00123787
0.00124912
0.00126072
0.00127266
0.00128495
0.0012976
0.0013106
0.00132396
0.00133768
0.00135177
0.00136623
0.00138105
0.00139625
0.00141183
0.00142779
0.00144413
0.00146085
0.00147797
0.00149547
0.00151337
0.00153166
0.00155035
0.00156943
0.0015889
0.00162925
0.00165111
0.00167392
0.00169773
0.00172263
0.00174865
0.00177586
0.00180434
0.00183417
0.00186544
0.00189825
0.00193269
0.00196888
0.00200693
0.002047
0.00208922
0.00213377
0.00218083
0.0022306
0.0022833
0.00233916
0.00239847
0.0024615
0.00252859
0.00260007
0.00267635
0.00275786
0.00284507
0.00293853
0.00303882
0.00314662
0.00326266
0.00338776
0.00352282
0.00366883
0.00382686
0.00399805
0.00418355
0.00438444
0.00460159
0.00483544
0.00508554
0.00535016
0.00562573
0.00590698
0.00618761
0.00646078
0.00673083
0.00706981
0.0075805
0.00162829
0.00165014
0.0016729
0.00169679
0.00172168
0.00174768
0.00177488
0.00180336
0.00183319
0.00186445
0.00189725
0.00193169
0.00196787
0.00200592
0.00204597
0.00208818
0.00213271
0.00217976
0.0022295
0.00228216
0.00233798
0.00239723
0.00246018
0.00252717
0.00259853
0.00267465
0.00275595
0.00284291
0.00293605
0.00303595
0.00314324
0.00325864
0.00338293
0.00351695
0.00366163
0.00381795
0.00398691
0.00416951
0.0043666
0.00457876
0.00480602
0.00504742
0.00530054
0.00556098
0.00582237
0.0060773
0.00631827
0.00654869
0.00683613
0.00727626
0.00162637
0.00164826
0.00167112
0.00169488
0.00171974
0.00174574
0.00177293
0.0018014
0.00183122
0.00186247
0.00189526
0.00192968
0.00196584
0.00200387
0.00204391
0.00208609
0.0021306
0.00217761
0.0022273
0.00227989
0.00233562
0.00239475
0.00245756
0.00252435
0.00259546
0.00267126
0.00275217
0.00283864
0.00293116
0.00303027
0.00313657
0.00325072
0.00337341
0.0035054
0.00364746
0.0038004
0.00396498
0.00414184
0.00433141
0.00453364
0.00474776
0.00497174
0.00520178
0.00543171
0.00565301
0.00585596
0.00603198
0.00618294
0.00636281
0.0066755
0.00162353
0.00164538
0.00166818
0.00169197
0.00171683
0.00174282
0.00177
0.00179845
0.00182825
0.00185948
0.00189225
0.00192664
0.00196278
0.00200078
0.00204078
0.00208293
0.00212738
0.00217432
0.00222393
0.00227641
0.00233199
0.00239094
0.00245351
0.00251999
0.00259072
0.00266604
0.00274634
0.00283205
0.00292361
0.00302152
0.00312632
0.00323856
0.00335884
0.00348774
0.00362587
0.00377373
0.00393172
0.00410001
0.00427834
0.00446578
0.00466032
0.00485835
0.00505396
0.00523834
0.00539977
0.00552494
0.00560352
0.00563899
0.00566917
0.00575707
0.00161972
0.00164157
0.00166435
0.00168814
0.00171299
0.00173897
0.00176613
0.00179457
0.00182435
0.00185556
0.0018883
0.00192267
0.00195879
0.00199676
0.00203672
0.00207882
0.00212322
0.00217009
0.0022196
0.00227195
0.00232736
0.00238607
0.00244834
0.00251444
0.00258467
0.00265937
0.00273888
0.00282359
0.00291389
0.00301022
0.00311302
0.00322273
0.00333978
0.00346457
0.0035974
0.00373842
0.00388754
0.00404423
0.00420736
0.00437477
0.00454286
0.00470587
0.00485515
0.00497851
0.00506014
0.00508205
0.00503054
0.00491265
0.00475553
0.00449751
0.00161501
0.00163686
0.00165965
0.00168345
0.00170831
0.0017343
0.00176148
0.00178993
0.00181973
0.00185096
0.00188372
0.00191812
0.00195427
0.00199229
0.00203231
0.00207447
0.00211894
0.00216587
0.00221543
0.00226781
0.00232323
0.00238191
0.00244409
0.00251003
0.00258003
0.00265437
0.00273338
0.00281741
0.00290681
0.00300192
0.0031031
0.00321066
0.00332486
0.00344584
0.00357357
0.00370773
0.00384751
0.00399145
0.00413699
0.00428006
0.00441437
0.00453063
0.00461565
0.00465183
0.00461719
0.0044875
0.00424389
0.0038945
0.00345942
0.00273469
0.00160936
0.00163114
0.00165388
0.00167762
0.00170243
0.00172837
0.0017555
0.00178389
0.00181363
0.0018448
0.0018775
0.00191183
0.00194792
0.00198589
0.00202586
0.00206798
0.0021124
0.00215928
0.00220878
0.00226107
0.00231638
0.0023749
0.00243687
0.00250254
0.00257216
0.00264604
0.00272445
0.0028077
0.00289609
0.0029899
0.0030894
0.00319476
0.00330608
0.00342325
0.0035459
0.00367317
0.00380354
0.00393438
0.00406146
0.00417817
0.00427458
0.00433636
0.00434375
0.00427135
0.004089
0.00376378
0.00327234
0.00262918
0.00180308
0.000476823
-0.00315995
-0.003161
-0.00308361
-0.00294349
-0.00275324
-0.00252488
-0.00226978
-0.00200039
-0.00172854
-0.00146454
-0.00121665
-0.000990785
-0.000790605
-0.000617705
-0.000471997
-0.000352124
-0.000255863
-0.000180485
-0.000123061
-8.06857e-05
-5.0629e-05
-3.03664e-05
-1.76895e-05
-1.08425e-05
-8.46156e-06
-9.31504e-06
-1.23121e-05
-1.66963e-05
-2.19417e-05
-2.76376e-05
-3.34817e-05
-3.92612e-05
-4.48312e-05
-5.00968e-05
-5.50006e-05
-5.9512e-05
-6.36198e-05
-6.73258e-05
-7.06409e-05
-7.35817e-05
-7.61682e-05
-7.84223e-05
-8.03668e-05
-8.20242e-05
-8.34165e-05
-8.45649e-05
-8.54896e-05
-8.62095e-05
-8.67426e-05
-8.7105e-05
-0.00328247
-0.00325339
-0.00315943
-0.00300771
-0.00281141
-0.00257916
-0.00232136
-0.00204979
-0.00177581
-0.00150949
-0.00125901
-0.00103032
-0.000827118
-0.000651095
-0.000502251
-0.000379308
-0.000280108
-0.000201972
-0.000141999
-9.73051e-05
-6.51594e-05
-4.30426e-05
-2.87161e-05
-2.0411e-05
-1.67629e-05
-1.65128e-05
-1.85558e-05
-2.21148e-05
-2.66475e-05
-3.17288e-05
-3.70439e-05
-4.23681e-05
-4.75459e-05
-5.24735e-05
-5.70857e-05
-6.13449e-05
-6.52342e-05
-6.87503e-05
-7.19e-05
-7.46962e-05
-7.7156e-05
-7.92988e-05
-8.1145e-05
-8.27153e-05
-8.40303e-05
-8.51099e-05
-8.59731e-05
-8.6638e-05
-8.71217e-05
-8.74395e-05
-0.00353133
-0.00342802
-0.00330246
-0.00313133
-0.00292336
-0.00268348
-0.00242059
-0.00214497
-0.00186706
-0.00159649
-0.00134124
-0.00110725
-0.000898359
-0.000716401
-0.000561554
-0.000432699
-0.000327813
-0.000244316
-0.000179376
-0.000130143
-9.39061e-05
-6.81308e-05
-5.05755e-05
-3.93997e-05
-3.32125e-05
-3.07833e-05
-3.09412e-05
-3.28644e-05
-3.59821e-05
-3.98433e-05
-4.41077e-05
-4.85274e-05
-5.29264e-05
-5.71829e-05
-6.12159e-05
-6.49745e-05
-6.84301e-05
-7.15696e-05
-7.43913e-05
-7.6901e-05
-7.91098e-05
-8.10318e-05
-8.26833e-05
-8.40814e-05
-8.52436e-05
-8.61871e-05
-8.69288e-05
-8.7485e-05
-8.78712e-05
-8.81008e-05
-0.00389421
-0.00366352
-0.00350769
-0.00331053
-0.00308354
-0.00283221
-0.00256183
-0.00228032
-0.00199687
-0.00172038
-0.0014585
-0.00121716
-0.00100032
-0.000810031
-0.000646719
-0.000509494
-0.000396525
-0.000305384
-0.000233338
-0.000177599
-0.000135479
-0.00010446
-8.22296e-05
-6.69338e-05
-5.71061e-05
-5.14811e-05
-4.89144e-05
-4.84724e-05
-4.95404e-05
-5.16335e-05
-5.43749e-05
-5.74833e-05
-6.0753e-05
-6.40359e-05
-6.72285e-05
-7.02606e-05
-7.30866e-05
-7.56793e-05
-7.80246e-05
-8.01181e-05
-8.1962e-05
-8.35633e-05
-8.49318e-05
-8.60795e-05
-8.70193e-05
-8.77648e-05
-8.83297e-05
-8.87276e-05
-8.89717e-05
-8.90727e-05
-0.00432923
-0.00400239
-0.00377344
-0.00353481
-0.00328147
-0.00301366
-0.00273263
-0.00244347
-0.00215352
-0.0018705
-0.00160146
-0.00135212
-0.00112646
-0.000926745
-0.000753662
-0.000606597
-0.000483967
-0.000383551
-0.000302769
-0.000238936
-0.000189419
-0.000151732
-0.000123574
-0.000102965
-8.84195e-05
-7.86743e-05
-7.25132e-05
-6.89698e-05
-6.73457e-05
-6.71134e-05
-6.78505e-05
-6.92326e-05
-7.10151e-05
-7.30166e-05
-7.51037e-05
-7.71804e-05
-7.91792e-05
-8.10537e-05
-8.27738e-05
-8.43214e-05
-8.56871e-05
-8.6868e-05
-8.78657e-05
-8.86851e-05
-8.93336e-05
-8.98197e-05
-9.0153e-05
-9.03437e-05
-9.04019e-05
-9.03347e-05
-0.00477829
-0.00438468
-0.00407265
-0.00377837
-0.00348987
-0.00320106
-0.00290832
-0.00261312
-0.00231998
-0.00203453
-0.00176248
-0.00150879
-0.00127718
-0.00106999
-0.000888162
-0.000731435
-0.000598615
-0.000487836
-0.00039682
-0.000323114
-0.000264267
-0.000217914
-0.000181826
-0.000154038
-0.000132974
-0.000117392
-0.000106119
-9.81004e-05
-9.25732e-05
-8.89562e-05
-8.67696e-05
-8.56324e-05
-8.52484e-05
-8.53882e-05
-8.58759e-05
-8.65776e-05
-8.73925e-05
-8.82457e-05
-8.90826e-05
-8.98639e-05
-9.05628e-05
-9.11614e-05
-9.16489e-05
-9.20198e-05
-9.22725e-05
-9.24085e-05
-9.24312e-05
-9.23459e-05
-9.21584e-05
-9.18724e-05
-0.00516681
-0.00481932
-0.00445663
-0.00410172
-0.00376958
-0.00345158
-0.00313959
-0.00283189
-0.00253018
-0.00223785
-0.00195902
-0.00169772
-0.0014573
-0.00124003
-0.00104705
-0.000878419
-0.000733308
-0.000610203
-0.000507117
-0.000421821
-0.00035203
-0.000295515
-0.000250125
-0.000213878
-0.000185196
-0.000162784
-0.000145457
-0.000132154
-0.00012202
-0.000114406
-0.000108765
-0.000104652
-0.000101711
-9.9656e-05
-9.82612e-05
-9.7348e-05
-9.67763e-05
-9.64373e-05
-9.6247e-05
-9.61413e-05
-9.60722e-05
-9.60039e-05
-9.59106e-05
-9.57743e-05
-9.55828e-05
-9.53286e-05
-9.50078e-05
-9.46195e-05
-9.41648e-05
-9.36461e-05
-8.73119e-05
-8.73864e-05
-8.73293e-05
-8.71449e-05
-8.68403e-05
-8.64226e-05
-8.58983e-05
-8.52736e-05
-8.45543e-05
-8.37457e-05
-8.28523e-05
-8.18778e-05
-8.08256e-05
-7.96985e-05
-7.84994e-05
-7.72319e-05
-7.58998e-05
-7.45076e-05
-7.30605e-05
-7.15639e-05
-7.00235e-05
-6.84449e-05
-6.68336e-05
-6.51949e-05
-6.35338e-05
-6.18547e-05
-6.01621e-05
-5.84598e-05
-5.67515e-05
-5.50406e-05
-5.33304e-05
-5.16239e-05
-4.99242e-05
-4.82338e-05
-4.65555e-05
-4.48917e-05
-4.32447e-05
-4.16167e-05
-4.00098e-05
-3.84259e-05
-3.68669e-05
-3.53344e-05
-3.38298e-05
-3.23559e-05
-3.09115e-05
-2.94981e-05
-2.81197e-05
-2.67751e-05
-2.54651e-05
-2.41907e-05
-2.29525e-05
-2.17511e-05
-2.05868e-05
-1.946e-05
-1.83709e-05
-1.73196e-05
-1.63062e-05
-1.53304e-05
-1.43923e-05
-1.34916e-05
-1.26279e-05
-1.1801e-05
-1.10103e-05
-1.02552e-05
-9.53542e-06
-8.85004e-06
-8.19844e-06
-7.58005e-06
-6.99371e-06
-6.4389e-06
-5.91476e-06
-5.42018e-06
-4.95439e-06
-4.51637e-06
-4.10515e-06
-3.7197e-06
-3.35922e-06
-3.02224e-06
-2.70814e-06
-2.41555e-06
-2.14346e-06
-1.89122e-06
-1.65713e-06
-1.44091e-06
-1.24106e-06
-1.0569e-06
-8.872e-07
-7.31247e-07
-5.87687e-07
-4.56141e-07
-3.35257e-07
-2.24657e-07
-1.22134e-07
-2.99799e-08
6.09055e-08
1.31064e-07
2.30011e-07
2.44238e-07
4.33319e-07
2.37723e-07
8.17431e-07
-1.07588e-07
1.71922e-06
-1.19689e-06
3.53941e-06
-3.17844e-06
5.85656e-06
-4.64912e-06
6.10619e-06
-2.16164e-06
1.01934e-06
5.67545e-06
-7.22911e-06
1.25117e-05
-9.53441e-06
-8.76045e-05
-8.76496e-05
-8.75669e-05
-8.73582e-05
-8.70313e-05
-8.65934e-05
-8.60505e-05
-8.54086e-05
-8.46735e-05
-8.38503e-05
-8.29434e-05
-8.19566e-05
-8.08929e-05
-7.97555e-05
-7.85471e-05
-7.72712e-05
-7.59318e-05
-7.45333e-05
-7.30807e-05
-7.15795e-05
-7.00351e-05
-6.84531e-05
-6.68389e-05
-6.51977e-05
-6.35344e-05
-6.18535e-05
-6.01592e-05
-5.84554e-05
-5.67458e-05
-5.50338e-05
-5.33227e-05
-5.16155e-05
-4.99151e-05
-4.82243e-05
-4.65456e-05
-4.48814e-05
-4.32342e-05
-4.16061e-05
-3.99992e-05
-3.84153e-05
-3.68563e-05
-3.53239e-05
-3.38195e-05
-3.23458e-05
-3.09016e-05
-2.94884e-05
-2.81103e-05
-2.6766e-05
-2.54563e-05
-2.41822e-05
-2.29444e-05
-2.17433e-05
-2.05793e-05
-1.94529e-05
-1.83641e-05
-1.73131e-05
-1.63e-05
-1.53246e-05
-1.43868e-05
-1.34864e-05
-1.2623e-05
-1.17963e-05
-1.10059e-05
-1.02511e-05
-9.53159e-06
-8.84645e-06
-8.19508e-06
-7.57694e-06
-6.9908e-06
-6.43621e-06
-5.91228e-06
-5.41787e-06
-4.95226e-06
-4.51441e-06
-4.10334e-06
-3.71803e-06
-3.3577e-06
-3.02084e-06
-2.70687e-06
-2.41439e-06
-2.14239e-06
-1.89026e-06
-1.65624e-06
-1.44013e-06
-1.24035e-06
-1.05627e-06
-8.86628e-07
-7.30756e-07
-5.87232e-07
-4.55751e-07
-3.34906e-07
-2.24329e-07
-1.21871e-07
-2.9708e-08
6.11012e-08
1.31251e-07
2.30145e-07
2.44379e-07
4.33357e-07
2.37916e-07
8.17287e-07
-1.07254e-07
1.71883e-06
-1.19642e-06
3.53891e-06
-3.17812e-06
5.85651e-06
-4.64957e-06
6.10703e-06
-2.1628e-06
1.02033e-06
5.67498e-06
-7.22963e-06
1.25126e-05
-9.53936e-06
-8.81843e-05
-8.81717e-05
-8.80379e-05
-8.77811e-05
-8.74101e-05
-8.69319e-05
-8.63521e-05
-8.56763e-05
-8.49098e-05
-8.40577e-05
-8.31241e-05
-8.21126e-05
-8.10264e-05
-7.98684e-05
-7.86416e-05
-7.73493e-05
-7.59954e-05
-7.45843e-05
-7.3121e-05
-7.16105e-05
-7.00582e-05
-6.84695e-05
-6.68495e-05
-6.52033e-05
-6.35356e-05
-6.18508e-05
-6.01532e-05
-5.84466e-05
-5.67345e-05
-5.50204e-05
-5.33074e-05
-5.15987e-05
-4.9897e-05
-4.82052e-05
-4.65256e-05
-4.48609e-05
-4.32133e-05
-4.15849e-05
-3.99778e-05
-3.8394e-05
-3.68352e-05
-3.5303e-05
-3.37989e-05
-3.23256e-05
-3.08818e-05
-2.94691e-05
-2.80916e-05
-2.67479e-05
-2.54388e-05
-2.41653e-05
-2.29281e-05
-2.17276e-05
-2.05644e-05
-1.94386e-05
-1.83505e-05
-1.73002e-05
-1.62877e-05
-1.53129e-05
-1.43757e-05
-1.3476e-05
-1.26132e-05
-1.17871e-05
-1.09972e-05
-1.0243e-05
-9.5239e-06
-8.83927e-06
-8.18841e-06
-7.57068e-06
-6.98503e-06
-6.43086e-06
-5.90729e-06
-5.41328e-06
-4.94801e-06
-4.51049e-06
-4.09973e-06
-3.71474e-06
-3.35462e-06
-3.01806e-06
-2.70429e-06
-2.41204e-06
-2.14029e-06
-1.88829e-06
-1.65453e-06
-1.43855e-06
-1.23897e-06
-1.05499e-06
-8.85526e-07
-7.29723e-07
-5.86367e-07
-4.54962e-07
-3.34194e-07
-2.23714e-07
-1.21298e-07
-2.92245e-08
6.15188e-08
1.31576e-07
2.30421e-07
2.44642e-07
4.33451e-07
2.38271e-07
8.17035e-07
-1.06625e-07
1.71804e-06
-1.19542e-06
3.53788e-06
-3.17746e-06
5.85633e-06
-4.65046e-06
6.10871e-06
-2.16514e-06
1.02231e-06
5.67404e-06
-7.23053e-06
1.25145e-05
-9.54898e-06
-8.90405e-05
-8.89433e-05
-8.87337e-05
-8.84059e-05
-8.79699e-05
-8.74322e-05
-8.67977e-05
-8.60716e-05
-8.52589e-05
-8.43639e-05
-8.33909e-05
-8.23431e-05
-8.12236e-05
-8.00354e-05
-7.87813e-05
-7.74649e-05
-7.60897e-05
-7.46601e-05
-7.31808e-05
-7.16566e-05
-7.00926e-05
-6.84937e-05
-6.68651e-05
-6.52113e-05
-6.35371e-05
-6.18466e-05
-6.01441e-05
-5.84331e-05
-5.67173e-05
-5.49999e-05
-5.32843e-05
-5.15733e-05
-4.98697e-05
-4.81764e-05
-4.64957e-05
-4.483e-05
-4.31818e-05
-4.15531e-05
-3.99458e-05
-3.8362e-05
-3.68034e-05
-3.52716e-05
-3.37679e-05
-3.22952e-05
-3.08521e-05
-2.94402e-05
-2.80634e-05
-2.67206e-05
-2.54124e-05
-2.41399e-05
-2.29036e-05
-2.17042e-05
-2.05419e-05
-1.94172e-05
-1.83301e-05
-1.72807e-05
-1.62692e-05
-1.52954e-05
-1.43591e-05
-1.34603e-05
-1.25984e-05
-1.17732e-05
-1.09841e-05
-1.02307e-05
-9.5124e-06
-8.82852e-06
-8.17839e-06
-7.56132e-06
-6.97636e-06
-6.42282e-06
-5.89982e-06
-5.40637e-06
-4.94163e-06
-4.5046e-06
-4.09432e-06
-3.70977e-06
-3.35004e-06
-3.01389e-06
-2.70045e-06
-2.40854e-06
-2.13713e-06
-1.88538e-06
-1.65195e-06
-1.43619e-06
-1.23687e-06
-1.05309e-06
-8.83854e-07
-7.28195e-07
-5.85047e-07
-4.53776e-07
-3.33137e-07
-2.22789e-07
-1.20466e-07
-2.85093e-08
6.21244e-08
1.32082e-07
2.30809e-07
2.45064e-07
4.33557e-07
2.38814e-07
8.16633e-07
-1.05679e-07
1.71687e-06
-1.19398e-06
3.53639e-06
-3.17653e-06
5.85617e-06
-4.65192e-06
6.11134e-06
-2.16872e-06
1.0253e-06
5.67265e-06
-7.23195e-06
1.25173e-05
-9.56301e-06
-9.0158e-05
-8.99516e-05
-8.96427e-05
-8.92221e-05
-8.87011e-05
-8.80856e-05
-8.73798e-05
-8.6588e-05
-8.57146e-05
-8.47638e-05
-8.37392e-05
-8.2644e-05
-8.14812e-05
-8.02536e-05
-7.89642e-05
-7.76163e-05
-7.62134e-05
-7.47596e-05
-7.32594e-05
-7.17172e-05
-7.01377e-05
-6.85255e-05
-6.68853e-05
-6.52216e-05
-6.35387e-05
-6.18407e-05
-6.01315e-05
-5.84148e-05
-5.6694e-05
-5.49724e-05
-5.32532e-05
-5.15392e-05
-4.98332e-05
-4.81378e-05
-4.64555e-05
-4.47888e-05
-4.31397e-05
-4.15105e-05
-3.99031e-05
-3.83193e-05
-3.6761e-05
-3.52296e-05
-3.37266e-05
-3.22547e-05
-3.08125e-05
-2.94016e-05
-2.80259e-05
-2.66843e-05
-2.53773e-05
-2.4106e-05
-2.28711e-05
-2.16729e-05
-2.0512e-05
-1.93886e-05
-1.83028e-05
-1.72548e-05
-1.62445e-05
-1.5272e-05
-1.4337e-05
-1.34394e-05
-1.25787e-05
-1.17546e-05
-1.09667e-05
-1.02144e-05
-9.49708e-06
-8.8142e-06
-8.16504e-06
-7.54886e-06
-6.9648e-06
-6.41209e-06
-5.88986e-06
-5.39716e-06
-4.93313e-06
-4.49676e-06
-4.0871e-06
-3.70315e-06
-3.34394e-06
-3.00832e-06
-2.69534e-06
-2.40389e-06
-2.13292e-06
-1.88153e-06
-1.64851e-06
-1.43306e-06
-1.23407e-06
-1.05057e-06
-8.81613e-07
-7.26171e-07
-5.83275e-07
-4.52194e-07
-3.31732e-07
-2.21556e-07
-1.19374e-07
-2.7564e-08
6.29188e-08
1.32768e-07
2.31312e-07
2.45637e-07
4.33684e-07
2.39532e-07
8.16104e-07
-1.04458e-07
1.7154e-06
-1.1922e-06
3.5346e-06
-3.17559e-06
5.85633e-06
-4.65428e-06
6.11522e-06
-2.17376e-06
1.02933e-06
5.67102e-06
-7.23425e-06
1.25217e-05
-9.58127e-06
-9.15206e-05
-9.11807e-05
-9.075e-05
-9.02164e-05
-8.9592e-05
-8.88818e-05
-8.80889e-05
-8.7217e-05
-8.62698e-05
-8.52509e-05
-8.41635e-05
-8.30108e-05
-8.17953e-05
-8.052e-05
-7.91877e-05
-7.78015e-05
-7.63649e-05
-7.48817e-05
-7.33558e-05
-7.17915e-05
-7.01929e-05
-6.85643e-05
-6.69098e-05
-6.52337e-05
-6.354e-05
-6.18325e-05
-6.01152e-05
-5.83913e-05
-5.66644e-05
-5.49376e-05
-5.32139e-05
-5.14962e-05
-4.97871e-05
-4.80893e-05
-4.64052e-05
-4.4737e-05
-4.3087e-05
-4.14572e-05
-3.98496e-05
-3.82659e-05
-3.67079e-05
-3.51772e-05
-3.3675e-05
-3.2204e-05
-3.0763e-05
-2.93534e-05
-2.7979e-05
-2.66388e-05
-2.53334e-05
-2.40637e-05
-2.28304e-05
-2.16339e-05
-2.04747e-05
-1.93529e-05
-1.82688e-05
-1.72224e-05
-1.62138e-05
-1.52428e-05
-1.43094e-05
-1.34133e-05
-1.25541e-05
-1.17315e-05
-1.09449e-05
-1.01939e-05
-9.47794e-06
-8.79631e-06
-8.14835e-06
-7.53331e-06
-6.95035e-06
-6.39867e-06
-5.87742e-06
-5.38565e-06
-4.9225e-06
-4.48696e-06
-4.07809e-06
-3.69487e-06
-3.33633e-06
-3.00136e-06
-2.68898e-06
-2.39809e-06
-2.12766e-06
-1.87674e-06
-1.64419e-06
-1.42916e-06
-1.23058e-06
-1.04742e-06
-8.78806e-07
-7.23649e-07
-5.81053e-07
-4.50216e-07
-3.29982e-07
-2.20019e-07
-1.18021e-07
-2.63896e-08
6.39018e-08
1.33632e-07
2.31932e-07
2.46363e-07
4.33826e-07
2.40439e-07
8.15422e-07
-1.02916e-07
1.71354e-06
-1.18995e-06
3.53234e-06
-3.17438e-06
5.8565e-06
-4.65719e-06
6.12005e-06
-2.18002e-06
1.03438e-06
5.66894e-06
-7.23696e-06
1.25269e-05
-9.60228e-06
-9.31058e-05
-9.26115e-05
-9.20382e-05
-9.13736e-05
-9.06295e-05
-8.98091e-05
-8.89149e-05
-8.79496e-05
-8.69164e-05
-8.58182e-05
-8.4658e-05
-8.34384e-05
-8.21619e-05
-8.08313e-05
-7.94492e-05
-7.80187e-05
-7.65429e-05
-7.50252e-05
-7.34694e-05
-7.1879e-05
-7.02578e-05
-6.86096e-05
-6.69381e-05
-6.52472e-05
-6.35406e-05
-6.1822e-05
-6.00948e-05
-5.83625e-05
-5.66283e-05
-5.48952e-05
-5.31663e-05
-5.14441e-05
-4.97315e-05
-4.80308e-05
-4.63444e-05
-4.46746e-05
-4.30235e-05
-4.1393e-05
-3.97852e-05
-3.82016e-05
-3.66441e-05
-3.51141e-05
-3.36129e-05
-3.21431e-05
-3.07035e-05
-2.92954e-05
-2.79227e-05
-2.65843e-05
-2.52807e-05
-2.40129e-05
-2.27815e-05
-2.15871e-05
-2.04298e-05
-1.93101e-05
-1.8228e-05
-1.71835e-05
-1.61768e-05
-1.52078e-05
-1.42763e-05
-1.3382e-05
-1.25246e-05
-1.17037e-05
-1.09188e-05
-1.01694e-05
-9.455e-06
-8.77487e-06
-8.12835e-06
-7.51467e-06
-6.93302e-06
-6.38258e-06
-5.8625e-06
-5.37185e-06
-4.90975e-06
-4.47521e-06
-4.06728e-06
-3.68494e-06
-3.32721e-06
-2.99302e-06
-2.68135e-06
-2.39115e-06
-2.12135e-06
-1.87101e-06
-1.63902e-06
-1.42448e-06
-1.22638e-06
-1.04365e-06
-8.75435e-07
-7.20629e-07
-5.78382e-07
-4.47843e-07
-3.27886e-07
-2.18177e-07
-1.16408e-07
-2.49857e-08
6.50709e-08
1.3468e-07
2.32651e-07
2.47276e-07
4.3391e-07
2.41685e-07
8.14298e-07
-1.00528e-07
1.7104e-06
-1.18581e-06
3.52747e-06
-3.17e-06
5.85311e-06
-4.6568e-06
6.12234e-06
-2.18534e-06
1.04037e-06
5.66392e-06
-7.23519e-06
1.25268e-05
-9.61892e-06
-9.49466e-05
-9.42693e-05
-9.35249e-05
-9.27099e-05
-9.18277e-05
-9.08805e-05
-8.98692e-05
-8.87962e-05
-8.76638e-05
-8.64744e-05
-8.52303e-05
-8.39339e-05
-8.25875e-05
-8.11934e-05
-7.97542e-05
-7.82726e-05
-7.67515e-05
-7.5194e-05
-7.36031e-05
-7.19821e-05
-7.03342e-05
-6.86626e-05
-6.69709e-05
-6.52623e-05
-6.35403e-05
-6.18083e-05
-6.00695e-05
-5.83271e-05
-5.65843e-05
-5.48439e-05
-5.31087e-05
-5.13814e-05
-4.96645e-05
-4.79604e-05
-4.62715e-05
-4.45997e-05
-4.29473e-05
-4.13161e-05
-3.9708e-05
-3.81247e-05
-3.65678e-05
-3.50387e-05
-3.35387e-05
-3.20703e-05
-3.06324e-05
-2.92262e-05
-2.78555e-05
-2.65191e-05
-2.52178e-05
-2.39523e-05
-2.27232e-05
-2.15311e-05
-2.03763e-05
-1.92589e-05
-1.81792e-05
-1.71371e-05
-1.61328e-05
-1.5166e-05
-1.42367e-05
-1.33446e-05
-1.24893e-05
-1.16705e-05
-1.08876e-05
-1.01402e-05
-9.42762e-06
-8.74927e-06
-8.10446e-06
-7.49241e-06
-6.91232e-06
-6.36336e-06
-5.84468e-06
-5.35536e-06
-4.89452e-06
-4.46117e-06
-4.05437e-06
-3.67308e-06
-3.31633e-06
-2.98307e-06
-2.67226e-06
-2.38286e-06
-2.11382e-06
-1.86417e-06
-1.63285e-06
-1.41891e-06
-1.22136e-06
-1.03914e-06
-8.71405e-07
-7.17024e-07
-5.75189e-07
-4.45011e-07
-3.25386e-07
-2.15981e-07
-1.14492e-07
-2.33125e-08
6.64562e-08
1.35946e-07
2.33477e-07
2.48431e-07
4.33873e-07
2.43435e-07
8.1244e-07
-9.67472e-08
1.70505e-06
-1.1783e-06
3.51782e-06
-3.15952e-06
5.84253e-06
-4.64926e-06
6.11868e-06
-2.18765e-06
1.04745e-06
5.65318e-06
-7.22379e-06
1.2515e-05
-9.62466e-06
-9.70188e-05
-9.61377e-05
-9.52055e-05
-9.42201e-05
-9.31823e-05
-9.20915e-05
-9.09479e-05
-8.97531e-05
-8.85087e-05
-8.72162e-05
-8.58774e-05
-8.44943e-05
-8.30688e-05
-8.16031e-05
-8.00994e-05
-7.85601e-05
-7.69877e-05
-7.53848e-05
-7.3754e-05
-7.2098e-05
-7.04195e-05
-6.87213e-05
-6.70062e-05
-6.52773e-05
-6.35375e-05
-6.179e-05
-6.00377e-05
-5.82838e-05
-5.65309e-05
-5.4782e-05
-5.30397e-05
-5.13065e-05
-4.95848e-05
-4.78769e-05
-4.61849e-05
-4.4511e-05
-4.28572e-05
-4.12252e-05
-3.96169e-05
-3.80339e-05
-3.64777e-05
-3.49497e-05
-3.34512e-05
-3.19845e-05
-3.05486e-05
-2.91447e-05
-2.77763e-05
-2.64424e-05
-2.51437e-05
-2.38809e-05
-2.26546e-05
-2.14653e-05
-2.03133e-05
-1.91987e-05
-1.81218e-05
-1.70825e-05
-1.60809e-05
-1.51169e-05
-1.41902e-05
-1.33006e-05
-1.24479e-05
-1.16315e-05
-1.0851e-05
-1.01058e-05
-9.39543e-06
-8.71919e-06
-8.07638e-06
-7.46625e-06
-6.88799e-06
-6.34076e-06
-5.82373e-06
-5.33599e-06
-4.87663e-06
-4.44468e-06
-4.03919e-06
-3.65914e-06
-3.30355e-06
-2.97137e-06
-2.66158e-06
-2.37313e-06
-2.10497e-06
-1.85615e-06
-1.62559e-06
-1.41235e-06
-1.21547e-06
-1.03384e-06
-8.66666e-07
-7.12789e-07
-5.71432e-07
-4.41683e-07
-3.22451e-07
-2.13404e-07
-1.12244e-07
-2.13558e-08
6.80919e-08
1.37408e-07
2.34506e-07
2.49662e-07
4.34083e-07
2.44996e-07
8.11157e-07
-9.38662e-08
1.7013e-06
-1.17333e-06
3.51189e-06
-3.15419e-06
5.83826e-06
-4.6487e-06
6.12137e-06
-2.19431e-06
1.05532e-06
5.64593e-06
-7.21979e-06
1.25126e-05
-9.64105e-06
-9.92496e-05
-9.81533e-05
-9.7022e-05
-9.58537e-05
-9.46477e-05
-9.34018e-05
-9.21154e-05
-9.07891e-05
-8.94235e-05
-8.80196e-05
-8.65786e-05
-8.5102e-05
-8.35912e-05
-8.20482e-05
-8.04748e-05
-7.8873e-05
-7.72449e-05
-7.55926e-05
-7.39181e-05
-7.22237e-05
-7.05114e-05
-6.87836e-05
-6.70426e-05
-6.5291e-05
-6.35314e-05
-6.17667e-05
-5.99996e-05
-5.82327e-05
-5.64689e-05
-5.47106e-05
-5.29604e-05
-5.12206e-05
-4.94936e-05
-4.77815e-05
-4.60863e-05
-4.44101e-05
-4.27547e-05
-4.1122e-05
-3.95135e-05
-3.79309e-05
-3.63756e-05
-3.4849e-05
-3.33522e-05
-3.18874e-05
-3.04538e-05
-2.90524e-05
-2.76867e-05
-2.63557e-05
-2.506e-05
-2.38002e-05
-2.25771e-05
-2.13909e-05
-2.02421e-05
-1.91307e-05
-1.8057e-05
-1.70209e-05
-1.60224e-05
-1.50614e-05
-1.41377e-05
-1.3251e-05
-1.24011e-05
-1.15874e-05
-1.08096e-05
-1.0067e-05
-9.35909e-06
-8.68521e-06
-8.04467e-06
-7.4367e-06
-6.86051e-06
-6.31525e-06
-5.80009e-06
-5.31411e-06
-4.85643e-06
-4.42606e-06
-4.02206e-06
-3.6434e-06
-3.28912e-06
-2.95817e-06
-2.64952e-06
-2.36215e-06
-2.09499e-06
-1.84709e-06
-1.6174e-06
-1.40495e-06
-1.20881e-06
-1.02786e-06
-8.61313e-07
-7.08009e-07
-5.6719e-07
-4.37926e-07
-3.1914e-07
-2.10498e-07
-1.09711e-07
-1.91539e-08
6.99428e-08
1.39043e-07
2.35702e-07
2.50978e-07
4.34466e-07
2.46476e-07
8.10202e-07
-9.14435e-08
1.69836e-06
-1.16959e-06
3.5077e-06
-3.15122e-06
5.83675e-06
-4.65121e-06
6.1268e-06
-2.20298e-06
1.06383e-06
5.63959e-06
-7.218e-06
1.25132e-05
-9.66054e-06
-0.000101614
-0.000100292
-9.8952e-05
-9.75905e-05
-9.62061e-05
-9.47958e-05
-9.33577e-05
-9.18917e-05
-9.03975e-05
-8.88755e-05
-8.7326e-05
-8.57502e-05
-8.4149e-05
-8.25239e-05
-8.08763e-05
-7.92079e-05
-7.75202e-05
-7.58148e-05
-7.40932e-05
-7.23572e-05
-7.06082e-05
-6.88481e-05
-6.70788e-05
-6.53024e-05
-6.35212e-05
-6.17376e-05
-5.99541e-05
-5.81732e-05
-5.63973e-05
-5.46288e-05
-5.28701e-05
-5.11233e-05
-4.93905e-05
-4.76739e-05
-4.59753e-05
-4.42967e-05
-4.26398e-05
-4.10062e-05
-3.93977e-05
-3.78156e-05
-3.62614e-05
-3.47363e-05
-3.32414e-05
-3.1779e-05
-3.03479e-05
-2.89494e-05
-2.75867e-05
-2.6259e-05
-2.49665e-05
-2.37103e-05
-2.24906e-05
-2.1308e-05
-2.01627e-05
-1.90549e-05
-1.79847e-05
-1.69521e-05
-1.59571e-05
-1.49995e-05
-1.40791e-05
-1.31957e-05
-1.23489e-05
-1.15383e-05
-1.07635e-05
-1.00238e-05
-9.3186e-06
-8.64736e-06
-8.00934e-06
-7.40379e-06
-6.8299e-06
-6.28684e-06
-5.77375e-06
-5.28975e-06
-4.83393e-06
-4.40532e-06
-4.00297e-06
-3.62587e-06
-3.27305e-06
-2.94347e-06
-2.6361e-06
-2.34992e-06
-2.08388e-06
-1.837e-06
-1.60828e-06
-1.39671e-06
-1.20139e-06
-1.02119e-06
-8.55349e-07
-7.02686e-07
-5.62464e-07
-4.33743e-07
-3.15454e-07
-2.07264e-07
-1.06893e-07
-1.67063e-08
7.2005e-08
1.40857e-07
2.37048e-07
2.52412e-07
4.34945e-07
2.48029e-07
8.09278e-07
-8.89417e-08
1.69531e-06
-1.16562e-06
3.50306e-06
-3.14764e-06
5.83434e-06
-4.65282e-06
6.13139e-06
-2.2114e-06
1.07291e-06
5.63159e-06
-7.21338e-06
1.25103e-05
-9.67572e-06
-0.000104088
-0.000102532
-0.000100973
-9.94102e-05
-9.78397e-05
-9.62573e-05
-9.46606e-05
-9.30484e-05
-9.14197e-05
-8.9774e-05
-8.81111e-05
-8.64314e-05
-8.47355e-05
-8.30244e-05
-8.1299e-05
-7.95605e-05
-7.78098e-05
-7.60481e-05
-7.42765e-05
-7.24959e-05
-7.07076e-05
-6.89128e-05
-6.7113e-05
-6.53099e-05
-6.35053e-05
-6.17015e-05
-5.99005e-05
-5.81044e-05
-5.63156e-05
-5.45362e-05
-5.27683e-05
-5.1014e-05
-4.92752e-05
-4.75538e-05
-4.58517e-05
-4.41705e-05
-4.2512e-05
-4.08778e-05
-3.92693e-05