/*--------------------------------*- C++ -*----------------------------------*\
| =========                 |                                                 |
| \\      /  F ield         | OpenFOAM: The Open Source CFD Toolbox           |
|  \\    /   O peration     | Version:  2412                                  |
|   \\  /    A nd           | Website:  www.openfoam.com                      |
|    \\/     M anipulation  |                                                 |
\*---------------------------------------------------------------------------*/
FoamFile
{
    version     2.0;
    format      ascii;
    arch        "LSB;label=32;scalar=64";
    class       surfaceScalarField;
    location    "7.5";
    object      phi;
}
// * * * * * * * * * * * * * * * * * * * * * * * * * * * * * * * * * * * * * //

dimensions      [0 3 -1 0 0 0 0];

oriented        oriented;

internalField   nonuniform List<scalar> 
126304
(
0.00505072
3.21537e-08
3.98224e-11
0.00505005
6.71888e-07
-2.79235e-10
0.00504769
2.36994e-06
-1.81978e-09
0.00504322
4.46743e-06
-3.93022e-09
0.00503748
5.74521e-06
-5.12897e-09
0.00503175
5.74041e-06
-4.59979e-09
0.00502694
4.80973e-06
-2.6251e-09
0.00502333
3.6117e-06
-6.97683e-11
0.00502069
2.63105e-06
2.29174e-09
0.00501865
2.04173e-06
4.06401e-09
0.00501684
1.80237e-06
5.18719e-09
0.00501504
1.79223e-06
5.78315e-09
0.00501314
1.89805e-06
6.02466e-09
0.00501109
2.04469e-06
6.06471e-09
0.00500889
2.19322e-06
6.01126e-09
0.00500655
2.32871e-06
5.92804e-09
0.0050041
2.44873e-06
5.84455e-09
0.00500154
2.556e-06
5.76962e-09
0.00499888
2.6545e-06
5.69996e-09
0.00499612
2.74792e-06
5.62961e-09
0.00499328
2.8391e-06
5.55379e-09
0.00499034
2.93012e-06
5.46915e-09
0.00498732
3.02243e-06
5.37366e-09
0.00498419
3.11701e-06
5.26606e-09
0.00498097
3.21451e-06
5.14597e-09
0.00497765
3.31537e-06
5.01445e-09
0.00497423
3.4199e-06
4.87306e-09
0.0049707
3.52828e-06
4.7233e-09
0.00496705
3.64066e-06
4.56553e-09
0.00496329
3.75715e-06
4.39938e-09
0.00495941
3.87782e-06
4.2237e-09
0.0049554
4.00274e-06
4.03793e-09
0.00495126
4.13198e-06
3.84217e-09
0.00494699
4.26558e-06
3.63737e-09
0.00494259
4.40361e-06
3.42496e-09
0.00493804
4.54613e-06
3.20664e-09
0.00493334
4.69323e-06
2.98384e-09
0.00492849
4.84497e-06
2.7573e-09
0.00492349
5.00146e-06
2.52736e-09
0.00491833
5.16281e-06
2.29381e-09
0.00491299
5.32914e-06
2.05658e-09
0.00490749
5.50058e-06
1.8156e-09
0.00490181
5.67731e-06
1.5711e-09
0.00489595
5.85949e-06
1.32365e-09
0.0048899
6.04735e-06
1.07428e-09
0.00488366
6.24113e-06
8.23842e-10
0.00487722
6.44111e-06
5.73292e-10
0.00487057
6.64762e-06
3.23534e-10
0.00486371
6.86105e-06
7.52215e-11
0.00485663
7.08183e-06
-1.70965e-10
0.00484932
7.31046e-06
-4.14014e-10
0.00484177
7.54757e-06
-6.52659e-10
0.00483398
7.79409e-06
-8.85079e-10
0.00482593
8.05207e-06
-1.10903e-09
8.32706e-06
0.0048176
-1.32185e-09
0.00505072
6.67969e-08
0.00505006
1.33374e-06
0.00504774
4.69454e-06
0.00504335
8.85804e-06
0.00503768
1.14102e-05
0.00503199
1.14266e-05
0.0050272
9.60378e-06
0.00502357
7.24107e-06
0.0050209
5.29947e-06
0.00501882
4.12716e-06
0.00501697
3.64587e-06
0.00501515
3.6189e-06
0.00501322
3.82304e-06
0.00501116
4.10967e-06
0.00500895
4.40153e-06
0.00500661
4.66866e-06
0.00500415
4.90598e-06
0.00500159
5.11861e-06
0.00499893
5.31427e-06
0.00499618
5.50011e-06
0.00499333
5.68171e-06
0.0049904
5.86315e-06
0.00498738
6.04725e-06
0.00498426
6.23592e-06
0.00498104
6.43046e-06
0.00497773
6.63174e-06
0.0049743
6.84034e-06
0.00497078
7.05665e-06
0.00496714
7.28094e-06
0.00496338
7.51341e-06
0.0049595
7.75423e-06
0.0049555
8.00352e-06
0.00495137
8.26139e-06
0.00494711
8.52796e-06
0.00494271
8.80336e-06
0.00493817
9.08771e-06
0.00493348
9.38115e-06
0.00492864
9.68386e-06
0.00492365
9.99601e-06
0.00491849
1.03178e-05
0.00491317
1.06495e-05
0.00490768
1.09914e-05
0.00490202
1.13438e-05
0.00489617
1.1707e-05
0.00489013
1.20815e-05
0.00488391
1.24677e-05
0.00487748
1.28662e-05
0.00487085
1.32776e-05
0.00486401
1.37028e-05
0.00485695
1.41424e-05
0.00484966
1.45975e-05
0.00484214
1.50693e-05
0.00483438
1.55596e-05
0.00482636
1.60722e-05
1.66178e-05
0.00481806
0.00505072
1.06209e-07
0.00505008
1.97645e-06
0.00504784
6.93408e-06
0.00504359
1.31064e-05
0.00503807
1.69286e-05
0.00503248
1.70161e-05
0.00502771
1.43723e-05
0.00502405
1.09049e-05
0.00502131
8.03614e-06
0.00501915
6.28973e-06
0.00501723
5.55935e-06
0.00501535
5.50138e-06
0.00501339
5.78874e-06
0.00501129
6.20235e-06
0.00500907
6.62746e-06
0.00500672
7.01893e-06
0.00500425
7.36839e-06
0.00500169
7.68278e-06
0.00499903
7.97307e-06
0.00499628
8.24953e-06
0.00499344
8.52022e-06
0.00499052
8.79103e-06
0.0049875
9.06606e-06
0.00498438
9.3481e-06
0.00498118
9.63902e-06
0.00497787
9.94009e-06
0.00497446
1.02521e-05
0.00497094
1.05757e-05
0.00496731
1.09113e-05
0.00496356
1.12591e-05
0.0049597
1.16194e-05
0.00495571
1.19923e-05
0.00495159
1.2378e-05
0.00494734
1.27767e-05
0.00494296
1.31886e-05
0.00493843
1.36138e-05
0.00493376
1.40525e-05
0.00492894
1.45051e-05
0.00492396
1.49717e-05
0.00491883
1.54527e-05
0.00491353
1.59484e-05
0.00490806
1.64592e-05
0.00490242
1.69855e-05
0.0048966
1.7528e-05
0.00489059
1.80871e-05
0.0048844
1.86636e-05
0.004878
1.92582e-05
0.00487141
1.9872e-05
0.00486461
2.05058e-05
0.00485759
2.1161e-05
0.00485035
2.18389e-05
0.00484288
2.25412e-05
0.00483516
2.32702e-05
0.00482721
2.40315e-05
2.48391e-05
0.00481898
0.00505071
1.52476e-07
0.0050501
2.59142e-06
0.00504798
9.05122e-06
0.00504393
1.71502e-05
0.00503863
2.22363e-05
0.00503318
2.24663e-05
0.00502845
1.91038e-05
0.00502473
1.46178e-05
0.0050219
1.08704e-05
0.00501963
8.56276e-06
0.00501761
7.57309e-06
0.00501565
7.46383e-06
0.00501363
7.81279e-06
0.00501149
8.33471e-06
0.00500924
8.8786e-06
0.00500688
9.38385e-06
0.00500441
9.83801e-06
0.00500184
1.0249e-05
0.00499918
1.06302e-05
0.00499644
1.09947e-05
0.00499361
1.13525e-05
0.00499069
1.17111e-05
0.00498768
1.20759e-05
0.00498457
1.24502e-05
0.00498138
1.28365e-05
0.00497808
1.32364e-05
0.00497468
1.3651e-05
0.00497118
1.4081e-05
0.00496756
1.45268e-05
0.00496383
1.4989e-05
0.00495998
1.54676e-05
0.00495601
1.59631e-05
0.00495191
1.64755e-05
0.00494769
1.70051e-05
0.00494332
1.75521e-05
0.00493882
1.81167e-05
0.00493417
1.86992e-05
0.00492938
1.92999e-05
0.00492443
1.99192e-05
0.00491933
2.05574e-05
0.00491406
2.1215e-05
0.00490863
2.18924e-05
0.00490302
2.25903e-05
0.00489724
2.33094e-05
0.00489128
2.40502e-05
0.00488513
2.48138e-05
0.00487878
2.5601e-05
0.00487224
2.64131e-05
0.0048655
2.72514e-05
0.00485854
2.81173e-05
0.00485137
2.90125e-05
0.00484397
2.9939e-05
0.00483634
3.08997e-05
0.00482847
3.19009e-05
3.296e-05
0.00482035
0.0050507
2.07346e-07
0.00505012
3.17129e-06
0.00504816
1.1015e-05
0.00504437
2.09376e-05
0.00503933
2.72798e-05
0.00503405
2.77414e-05
0.00502937
2.37879e-05
0.0050256
1.83911e-05
0.00502264
1.3826e-05
0.00502023
1.09734e-05
0.00501809
9.7119e-06
0.00501603
9.52613e-06
0.00501393
9.90971e-06
0.00501175
1.05166e-05
0.00500947
1.11611e-05
0.00500708
1.17669e-05
0.00500461
1.23163e-05
0.00500204
1.28173e-05
0.00499938
1.32848e-05
0.00499664
1.37339e-05
0.00499382
1.41763e-05
0.00499091
1.46208e-05
0.00498791
1.50736e-05
0.00498482
1.55388e-05
0.00498164
1.60192e-05
0.00497836
1.65167e-05
0.00497498
1.70326e-05
0.00497149
1.75677e-05
0.0049679
1.81227e-05
0.00496419
1.86978e-05
0.00496036
1.92935e-05
0.00495641
1.991e-05
0.00495234
2.05475e-05
0.00494814
2.12063e-05
0.00494381
2.18866e-05
0.00493933
2.25888e-05
0.00493472
2.3313e-05
0.00492996
2.40597e-05
0.00492505
2.48293e-05
0.00491999
2.56222e-05
0.00491476
2.64389e-05
0.00490937
2.728e-05
0.00490382
2.81462e-05
0.00489809
2.90382e-05
0.00489218
2.9957e-05
0.00488609
3.09034e-05
0.00487982
3.18787e-05
0.00487334
3.28841e-05
0.00486667
3.39211e-05
0.0048598
3.49914e-05
0.00485272
3.60969e-05
0.00484542
3.72396e-05
0.00483789
3.84226e-05
0.00483014
3.96523e-05
4.09463e-05
0.00482216
0.00505069
2.72022e-07
0.00505015
3.71078e-06
0.00504837
1.28025e-05
0.00504487
2.44307e-05
0.00504013
3.20194e-05
0.00503506
3.28142e-05
0.00503043
2.84158e-05
0.00502659
2.2232e-05
0.0050235
1.69194e-05
0.00502093
1.3541e-05
0.00501865
1.19937e-05
0.00501647
1.17027e-05
0.00501429
1.20901e-05
0.00501205
1.27551e-05
0.00500973
1.34793e-05
0.00500733
1.41703e-05
0.00500484
1.48041e-05
0.00500227
1.53873e-05
0.00499962
1.59357e-05
0.00499689
1.64654e-05
0.00499408
1.69894e-05
0.00499118
1.75174e-05
0.0049882
1.80562e-05
0.00498513
1.86105e-05
0.00498196
1.91834e-05
0.0049787
1.9777e-05
0.00497534
2.03927e-05
0.00497188
2.10315e-05
0.00496831
2.16939e-05
0.00496462
2.23804e-05
0.00496083
2.30914e-05
0.00495691
2.38272e-05
0.00495287
2.45879e-05
0.0049487
2.53738e-05
0.0049444
2.61853e-05
0.00493997
2.70226e-05
0.0049354
2.7886e-05
0.00493068
2.8776e-05
0.00492582
2.96929e-05
0.0049208
3.06373e-05
0.00491563
3.16097e-05
0.0049103
3.26108e-05
0.0049048
3.36413e-05
0.00489914
3.47021e-05
0.0048933
3.5794e-05
0.00488729
3.69182e-05
0.00488109
3.80759e-05
0.00487471
3.92685e-05
0.00486813
4.04975e-05
0.00486136
4.17647e-05
0.00485438
4.30719e-05
0.0048472
4.44213e-05
0.00483981
4.58156e-05
0.0048322
4.72601e-05
4.87704e-05
0.00482438
0.00505068
3.48046e-07
0.00505019
4.20485e-06
0.00504859
1.44032e-05
0.00504541
2.76068e-05
0.005041
3.6431e-05
0.00503615
3.76668e-05
0.00503158
3.29798e-05
0.00502767
2.6142e-05
0.00502443
2.01583e-05
0.0050217
1.62756e-05
0.00501926
1.44283e-05
0.00501696
1.40018e-05
0.00501469
1.436e-05
0.0050124
1.50543e-05
0.00501004
1.58357e-05
0.00500761
1.65951e-05
0.00500512
1.73013e-05
0.00500255
1.79583e-05
0.0049999
1.85814e-05
0.00499718
1.91872e-05
0.00499438
1.97894e-05
0.0049915
2.03981e-05
0.00498853
2.10207e-05
0.00498548
2.16621e-05
0.00498234
2.23256e-05
0.0049791
2.30135e-05
0.00497577
2.37273e-05
0.00497233
2.44678e-05
0.00496879
2.52359e-05
0.00496514
2.60318e-05
0.00496137
2.68561e-05
0.00495749
2.77089e-05
0.00495349
2.85905e-05
0.00494936
2.95011e-05
0.00494511
3.04411e-05
0.00494072
3.14107e-05
0.00493619
3.24103e-05
0.00493153
3.34403e-05
0.00492672
3.45011e-05
0.00492177
3.55933e-05
0.00491666
3.67174e-05
0.0049114
3.78741e-05
0.00490597
3.90643e-05
0.00490039
4.02887e-05
0.00489463
4.15483e-05
0.00488871
4.28443e-05
0.0048826
4.41779e-05
0.00487632
4.55505e-05
0.00486985
4.69637e-05
0.0048632
4.84192e-05
0.00485635
4.99187e-05
0.00484931
5.14641e-05
0.00484207
5.30574e-05
0.00483463
5.47016e-05
0.00482699
5.64042e-05
0.00481936
-1.75247e-06
-1.52958e-09
0.00482059
-1.23447e-06
-1.75378e-09
0.00482127
-6.80346e-07
-1.97215e-09
0.00482138
-9.8273e-08
-2.22167e-09
0.00482087
5.06359e-07
-2.36892e-09
0.00481974
1.13825e-06
-2.55125e-09
0.00481795
1.78901e-06
-2.71832e-09
0.0048155
2.45384e-06
-2.86379e-09
0.00481237
3.13063e-06
-2.98935e-09
0.00480855
3.82093e-06
-3.09545e-09
0.00480402
4.53131e-06
-3.18259e-09
0.00479875
5.27409e-06
-3.25151e-09
0.00479269
6.06725e-06
-3.30344e-09
0.00478576
6.9335e-06
-3.33363e-09
0.00477786
7.89871e-06
-3.36324e-09
0.00476888
8.99007e-06
-3.32269e-09
0.00475865
1.02339e-05
-3.31633e-09
0.004747
1.16548e-05
-3.28721e-09
0.00473372
1.32747e-05
-3.22387e-09
0.00471861
1.51134e-05
-3.22408e-09
0.00470143
1.71895e-05
-3.18652e-09
0.00468191
1.95217e-05
-3.15735e-09
0.00465978
2.2131e-05
-3.13583e-09
0.00463474
2.50424e-05
-3.11849e-09
0.00460646
2.82872e-05
-3.10181e-09
0.00457456
3.19049e-05
-3.08069e-09
0.00453861
3.59452e-05
-3.04926e-09
0.00449815
4.04702e-05
-3.0014e-09
0.00445259
4.55567e-05
-2.93121e-09
0.0044013
5.12995e-05
-2.83479e-09
0.00434348
5.78154e-05
-2.71096e-09
0.00427824
6.52482e-05
-2.56176e-09
0.00420446
7.37762e-05
-2.39172e-09
0.00412085
8.36203e-05
-2.20761e-09
0.00402579
9.50562e-05
-2.01781e-09
0.00391737
0.000108427
-1.82995e-09
0.00379321
0.000124155
-1.65053e-09
0.00365046
0.000142753
-1.48487e-09
0.00348565
0.000164817
-1.33601e-09
0.00329466
0.000190989
-1.204e-09
0.0030728
0.000221863
-1.08786e-09
0.00281502
0.00025778
-9.85827e-10
0.00251654
0.000298476
-8.94319e-10
0.00217404
0.000342503
-8.11026e-10
0.00178769
0.000386356
-7.32693e-10
0.00136442
0.000423263
-6.57333e-10
0.000922759
0.000441665
-5.79084e-10
0.000499392
0.000423368
-4.82044e-10
0.000158628
0.000340764
-3.32467e-10
0.000158628
-1.02494e-10
0.00481845
-2.14147e-06
0.00481833
-1.11323e-06
0.00481764
9.72457e-09
0.0048164
1.14635e-06
0.00481454
2.3632e-06
0.00481205
3.62555e-06
0.00480892
4.92573e-06
0.00480512
6.25559e-06
0.00480063
7.61116e-06
0.00479546
8.99585e-06
0.00478957
1.0423e-05
0.00478293
1.1917e-05
0.00477548
1.35136e-05
0.00476715
1.52576e-05
0.00475785
1.72002e-05
0.00474745
1.93949e-05
0.00473579
2.1894e-05
0.0047227
2.47456e-05
0.00470798
2.79932e-05
0.00469142
3.16766e-05
0.00467277
3.5833e-05
0.00465179
4.05002e-05
0.0046282
4.57203e-05
0.0046017
5.15441e-05
0.00457196
5.80348e-05
0.00453859
6.5272e-05
0.00450118
7.33554e-05
0.00445924
8.24096e-05
0.00441221
9.25883e-05
0.00435943
0.000104081
0.00430012
0.000117121
0.00423337
0.000131995
0.00415809
0.000149056
0.00407297
0.000168745
0.00397642
0.000191608
0.00386652
0.000218321
0.00374095
0.000249721
0.0035969
0.000286813
0.00343095
0.000330762
0.00323912
0.000382816
0.00301688
0.000444107
0.00275941
0.000515252
0.00246224
0.000595642
0.00212244
0.000682302
0.00174061
0.000768189
0.00132405
0.000839819
0.000891481
0.000874238
0.000479246
0.000835602
0.000149334
0.000670677
0.000307962
0.00481666
1.8622e-07
0.00481382
1.72542e-06
0.00481046
3.36939e-06
0.00480651
5.0957e-06
0.00480196
6.91003e-06
0.00479679
8.79755e-06
0.00479097
1.07443e-05
0.00478449
1.27391e-05
0.00477732
1.47769e-05
0.00476945
1.68634e-05
0.00476086
1.90188e-05
0.0047515
2.12795e-05
0.00474131
2.36984e-05
0.00473023
2.63414e-05
0.00471814
2.92836e-05
0.00470494
3.26036e-05
0.00469045
3.6378e-05
0.00467452
4.06778e-05
0.00465694
4.55676e-05
0.00463751
5.11063e-05
0.004616
5.73501e-05
0.00459214
6.43565e-05
0.00456567
7.21898e-05
0.00453629
8.09275e-05
0.00450366
9.06657e-05
0.0044674
0.000101525
0.0044271
0.000113657
0.00438227
0.000127247
0.00433233
0.000142529
0.00427662
0.000159785
0.00421438
0.000179363
0.00414468
0.000201692
0.00406644
0.000227297
0.00397836
0.00025683
0.00387887
0.000291097
0.00376609
0.000331095
0.00363777
0.000378045
0.00349117
0.00043341
0.00332306
0.00049887
0.00312968
0.000576196
0.00290684
0.000666951
0.0026502
0.000771888
0.00235595
0.000889899
0.00202191
0.00101634
0.00164949
0.00114061
0.00124661
0.0012427
0.000832109
0.00128874
0.000441885
0.00122583
0.000135075
0.000977487
0.000443037
0.004814
6.53483e-06
0.00480715
8.57579e-06
0.00479977
1.07462e-05
0.00479183
1.30384e-05
0.0047833
1.54441e-05
0.00477415
1.79494e-05
0.00476435
2.0538e-05
0.00475389
2.31966e-05
0.00474275
2.592e-05
0.0047309
2.8717e-05
0.0047183
3.16148e-05
0.00470492
3.46618e-05
0.00469069
3.79267e-05
0.00467554
4.14956e-05
0.00465935
4.54658e-05
0.00464202
4.99388e-05
0.00462338
5.50141e-05
0.00460328
6.07841e-05
0.00458151
6.73332e-05
0.00455788
7.47397e-05
0.00453215
8.30788e-05
0.00450408
9.24284e-05
0.00447339
0.000102876
0.00443979
0.000114528
0.00440294
0.000127514
0.00436247
0.000141998
0.00431794
0.000158182
0.00426887
0.000176318
0.00421469
0.000196715
0.00415472
0.000219749
0.0040882
0.000245883
0.00401421
0.000275683
0.00393167
0.00030984
0.00383929
0.000349208
0.00373555
0.000394838
0.00361862
0.000448021
0.00348634
0.000510325
0.00333614
0.00058361
0.00316503
0.000669981
0.00296962
0.000771609
0.00274625
0.000890316
0.00249136
0.00102678
0.0022021
0.00117916
0.00187746
0.00134098
0.00152
0.00149807
0.00113835
0.00162436
0.000750945
0.00167614
0.000391759
0.00158501
0.000114733
0.00125451
0.00055777
0.00481052
1.81726e-05
0.00479839
2.06997e-05
0.00478575
2.33864e-05
0.00477256
2.6227e-05
0.0047588
2.9211e-05
0.00474442
3.23231e-05
0.00472942
3.55455e-05
0.00471375
3.8864e-05
0.00469739
4.22745e-05
0.00468032
4.57894e-05
0.00466249
4.94435e-05
0.00464386
5.32964e-05
0.00462435
5.74322e-05
0.00460389
6.19553e-05
0.00458238
6.6983e-05
0.00455968
7.26381e-05
0.00453565
7.90407e-05
0.00451013
8.6303e-05
0.00448294
9.45284e-05
0.00445386
0.000103814
0.00442269
0.000114254
0.00438917
0.000125949
0.00435303
0.00013901
0.00431399
0.000153573
0.0042717
0.000169805
0.00422578
0.000187912
0.00417581
0.000208152
0.00412129
0.00023084
0.00406165
0.000256362
0.00399621
0.000285189
0.00392419
0.000317894
0.0038447
0.000355176
0.00375666
0.000397885
0.0036588
0.000447064
0.00354965
0.000503984
0.00342748
0.000570195
0.00329025
0.000647554
0.00313563
0.000738232
0.00296098
0.000844631
0.00276345
0.000969136
0.00254018
0.00111359
0.00228866
0.00127829
0.00200745
0.00146038
0.00169712
0.00165131
0.00136172
0.00183347
0.00101059
0.00197549
0.000660916
0.00202581
0.000341439
0.00190449
9.46781e-05
0.00150127
0.000652448
0.00480626
3.62935e-05
0.00478767
3.92868e-05
0.00476858
4.2471e-05
0.00474897
4.58409e-05
0.00472879
4.93858e-05
0.00470803
5.30893e-05
0.00468664
5.69334e-05
0.0046646
6.09041e-05
0.00464188
6.49993e-05
0.00461843
6.92358e-05
0.00459422
7.36562e-05
0.00456918
7.83314e-05
0.00454325
8.33596e-05
0.00451635
8.88619e-05
0.00448836
9.4974e-05
0.00445916
0.000101837
0.00442861
0.000109591
0.00439655
0.000118365
0.00436279
0.000128281
0.00432715
0.000139454
0.00428941
0.000151999
0.00424932
0.000166037
0.00420662
0.000181708
0.00416102
0.000199177
0.00411217
0.000218651
0.0040597
0.000240381
0.00400318
0.000264679
0.00394209
0.000291928
0.00387586
0.000322591
0.00380382
0.000357231
0.00372518
0.000396531
0.00363904
0.000441316
0.00354434
0.000492586
0.00343985
0.000551553
0.00332415
0.00061968
0.00319563
0.000698721
0.00305244
0.000790741
0.00289259
0.000898087
0.00271396
0.00102326
0.00251453
0.00116857
0.00229262
0.0013355
0.0020474
0.00152352
0.00177953
0.00172825
0.00149204
0.0019388
0.0011912
0.0021343
0.000887393
0.0022793
0.000595479
0.00231772
0.00033342
0.00216655
0.000115283
0.00171941
0.000767731
0.00480129
6.20004e-05
0.00477514
6.54334e-05
0.00474852
6.90907e-05
0.00472139
7.29666e-05
0.00469373
7.70501e-05
0.00466549
8.13248e-05
0.00463666
8.57727e-05
0.00460718
9.03811e-05
0.00457703
9.51506e-05
0.00454616
0.000100104
0.00451453
0.00010529
0.00448206
0.000110793
0.0044487
0.000116723
0.00441434
0.000123218
0.00437889
0.000130429
0.00434221
0.000138514
0.00430417
0.000147629
0.00426462
0.000157922
0.00422337
0.000169529
0.00418024
0.000182584
0.00413502
0.000197221
0.00408747
0.000213586
0.00403733
0.000231843
0.00398432
0.000252195
0.00392808
0.000274884
0.00386825
0.000300211
0.00380439
0.000328546
0.00373598
0.000360336
0.00366244
0.000396123
0.00358311
0.000436564
0.0034972
0.000482446
0.00340379
0.000534719
0.00330186
0.000594522
0.00319019
0.00066322
0.00306743
0.000742439
0.00293207
0.000834086
0.00278246
0.000940344
0.00261696
0.00106359
0.00243402
0.00120619
0.00223256
0.00137003
0.00201233
0.00155572
0.00177464
0.00176121
0.00152305
0.00197984
0.00126429
0.00219757
0.00100882
0.00238976
0.000770529
0.00251759
0.000563783
0.00252447
0.000393781
0.00233655
0.000239148
0.00187404
0.00100688
-2.34363e-05
2.34351e-05
1.25079e-09
-4.52986e-05
2.18601e-05
2.18764e-09
-3.93432e-05
-5.95789e-06
2.46995e-09
6.0693e-06
-4.54151e-05
2.63802e-09
9.50281e-05
-8.89615e-05
2.64831e-09
0.000226195
-0.000131169
2.52508e-09
0.000394996
-0.000168804
2.30849e-09
0.000595109
-0.000200115
2.04692e-09
0.000819469
-0.000224361
1.7882e-09
0.00106095
-0.00024148
1.58091e-09
0.0013128
-0.000251853
1.45711e-09
0.00156894
-0.00025614
1.43559e-09
0.00182409
-0.000255159
1.52294e-09
0.00207388
-0.000249789
1.70883e-09
0.00231479
-0.000240913
1.9716e-09
0.00254416
-0.000229371
2.28406e-09
0.00276009
-0.000215933
2.61329e-09
0.00296137
-0.000201278
2.92512e-09
0.00314736
-0.000185993
3.18665e-09
0.00331792
-0.000170563
3.4953e-09
0.00347329
-0.000155381
3.37101e-09
0.00361404
-0.000140747
3.74658e-09
0.00374092
-0.000126881
3.12682e-09
0.00385484
-0.000113931
2.49686e-09
0.00395682
-0.000101979
2.70854e-09
0.00404788
-9.10621e-05
2.46477e-09
0.00412905
-8.11735e-05
2.86105e-09
0.00420133
-7.22779e-05
3.19557e-09
0.00426564
-6.43178e-05
3.49855e-09
0.00432286
-5.72227e-05
3.83019e-09
0.00437377
-5.09152e-05
4.22023e-09
0.00441908
-4.53157e-05
4.6808e-09
0.00445942
-4.03466e-05
5.20239e-09
0.00449535
-3.59345e-05
5.76683e-09
0.00452736
-3.2012e-05
6.34564e-09
0.00455587
-2.85182e-05
6.90552e-09
0.00458126
-2.53991e-05
7.41724e-09
0.00460386
-2.26076e-05
7.85599e-09
0.00462395
-2.01027e-05
8.20684e-09
0.00464179
-1.78489e-05
8.46497e-09
0.0046576
-1.5816e-05
8.63101e-09
0.00467157
-1.39778e-05
8.71518e-09
0.00468387
-1.23122e-05
8.73304e-09
0.00469467
-1.08e-05
8.69892e-09
0.00470408
-9.42504e-06
8.63003e-09
0.00471225
-8.17323e-06
8.54229e-09
0.00471927
-7.03253e-06
8.44698e-09
0.00472525
-5.99244e-06
8.35484e-09
0.00473029
-5.04359e-06
8.27369e-09
-4.17731e-06
0.00473446
8.20664e-09
-1.95476e-05
4.29827e-05
-3.25849e-05
3.48974e-05
-1.80187e-05
-2.05241e-05
3.42838e-05
-9.77176e-05
0.0001279
-0.000182578
0.000261346
-0.000264614
0.000430167
-0.000337625
0.000628367
-0.000398315
0.00084929
-0.000445284
0.00108623
-0.000478415
0.00133282
-0.000498448
0.00158334
-0.000506659
0.00183281
-0.000504624
0.00207706
-0.000494047
0.00231278
-0.000476634
0.00253743
-0.000454014
0.00274917
-0.000427677
0.00294684
-0.000398947
0.00312981
-0.000368963
0.00329792
-0.000338673
0.00345138
-0.000308845
0.00359071
-0.000280068
0.0037166
-0.000252773
0.00382992
-0.000227256
0.00393163
-0.000203689
0.00402271
-0.000182137
0.00410413
-0.000162595
0.00417685
-0.000144999
0.00424177
-0.000129239
0.00429973
-0.00011518
0.00435148
-0.00010267
0.00439772
-9.15555e-05
0.00443906
-8.16853e-05
0.00447604
-7.29157e-05
0.00450914
-6.51147e-05
0.00453879
-5.81627e-05
0.00456534
-5.19538e-05
0.00458913
-4.63949e-05
0.00461043
-4.14052e-05
0.0046295
-3.69147e-05
0.00464655
-3.28635e-05
0.00466177
-2.91999e-05
0.00467534
-2.58798e-05
0.0046874
-2.28653e-05
0.0046981
-2.01241e-05
0.00470756
-1.76281e-05
0.00471588
-1.53536e-05
0.00472316
-1.32793e-05
0.00472951
-1.13867e-05
-9.65804e-06
0.00473499
-1.097e-05
5.39527e-05
-7.74101e-06
3.16684e-05
2.13227e-05
-4.95878e-05
8.54856e-05
-0.00016188
0.000186949
-0.000284042
0.000323717
-0.000401382
0.00049168
-0.000505589
0.000685527
-0.000592162
0.000899398
-0.000659155
0.00112738
-0.000706401
0.00136387
-0.000734933
0.00160375
-0.000746543
0.00184258
-0.000743454
0.00207661
-0.000728079
0.00230282
-0.000702841
0.00251887
-0.000670059
0.00272305
-0.000631865
0.00291426
-0.000590155
0.00309187
-0.000546568
0.00325567
-0.000502476
0.00340581
-0.00045899
0.00354271
-0.000416969
0.00366699
-0.000377051
0.00377941
-0.000339669
0.0038808
-0.000305088
0.00397209
-0.000273421
0.00405415
-0.000244659
0.00412788
-0.000218721
0.00419409
-0.000195455
0.00425358
-0.00017467
0.00430706
-0.000156152
0.00435519
-0.00013968
0.00439854
-0.000125035
0.00443763
-0.00011201
0.00447293
-0.000100414
0.00450484
-9.00712e-05
0.00453371
-8.08284e-05
0.00455987
-7.25486e-05
0.00458358
-6.51131e-05
0.00460508
-5.84192e-05
0.00462459
-5.23782e-05
0.00464231
-4.69139e-05
0.00465839
-4.1961e-05
0.00467299
-3.74633e-05
0.00468624
-3.33726e-05
0.00469826
-2.96476e-05
0.00470915
-2.62523e-05
0.00471903
-2.31555e-05
0.00472797
-2.0329e-05
-1.77457e-05
0.00473606
2.23791e-06
5.17148e-05
2.42201e-05
9.68619e-06
7.18503e-05
-9.7218e-05
0.000150814
-0.000240844
0.000260797
-0.000394025
0.000399811
-0.000540396
0.000564499
-0.000670277
0.000750635
-0.000778298
0.000953538
-0.000862058
0.00116842
-0.00092128
0.00139064
-0.000957156
0.00161592
-0.000971827
0.00184046
-0.000967993
0.002061
-0.000948612
0.00227484
-0.000916684
0.00247987
-0.000875093
0.00267452
-0.000826509
0.00285768
-0.000773323
0.00302873
-0.00071761
0.00318737
-0.000661119
0.00333366
-0.000605275
0.00346788
-0.00055119
0.00359051
-0.000499688
0.0037022
-0.000451355
0.00380366
-0.000406544
0.00389565
-0.000365419
0.00397899
-0.000327997
0.00405445
-0.000294178
0.00412278
-0.000263786
0.0041847
-0.000236587
0.00424086
-0.000212313
0.00429187
-0.000190687
0.00433826
-0.000171434
0.00438054
-0.00015429
0.00441914
-0.000139009
0.00445444
-0.000125367
0.00448677
-0.000113166
0.00451645
-0.000102229
0.00454374
-9.24021e-05
0.00456887
-8.35511e-05
0.00459206
-7.55605e-05
0.00461347
-6.83308e-05
0.00463329
-6.1776e-05
0.00465165
-5.58226e-05
0.00466868
-5.04069e-05
0.00468451
-4.54744e-05
0.00469923
-4.09777e-05
0.00471295
-3.68754e-05
0.00472576
-3.31298e-05
-2.97035e-05
0.00473771
1.72214e-05
3.44933e-05
5.93679e-05
-3.24603e-05
0.000128375
-0.000166225
0.000221629
-0.000334098
0.000337795
-0.000510192
0.000475391
-0.000677991
0.000632422
-0.000827309
0.000806268
-0.000952143
0.000993789
-0.00104958
0.00119155
-0.00111904
0.00139604
-0.00116164
0.00160384
-0.00117963
0.00181179
-0.00117595
0.00201709
-0.00115391
0.00221733
-0.00111692
0.00241054
-0.00106831
0.00259521
-0.00101117
0.0027702
-0.000948314
0.00293479
-0.000882199
0.00308858
-0.000814912
0.00323147
-0.000748168
0.0033636
-0.000683319
0.0034853
-0.000621385
0.00359703
-0.000563087
0.00369938
-0.000508891
0.00379299
-0.000459028
0.00387853
-0.000413538
0.00395668
-0.000372335
0.00402812
-0.000335225
0.00409348
-0.000301945
0.00415336
-0.000272189
0.0042083
-0.000245633
0.00425882
-0.000221955
0.00430537
-0.000200841
0.00434836
-0.000181999
0.00438816
-0.000165162
0.00442508
-0.000150091
0.00445943
-0.000136571
0.00449144
-0.000124416
0.00452135
-0.000113464
0.00454937
-0.000103573
0.00457566
-9.46212e-05
0.00460038
-8.65032e-05
0.00462369
-7.91284e-05
0.0046457
-7.24186e-05
0.00466653
-6.63063e-05
0.00468629
-6.07329e-05
0.00470506
-5.5647e-05
0.00472293
-5.10017e-05
-4.67487e-05
0.00473998
3.79922e-05
-3.49885e-06
0.000105474
-9.9942e-05
0.000192794
-0.000253545
0.000294779
-0.000436083
0.000410296
-0.00062571
0.000539301
-0.000806995
0.000681785
-0.000969793
0.000837151
-0.00110751
0.00100406
-0.00121649
0.00118055
-0.00129553
0.00136423
-0.00134532
0.0015525
-0.00136789
0.00174271
-0.00136616
0.00193237
-0.00134357
0.0021192
-0.00130375
0.00230125
-0.00125036
0.00247692
-0.00118684
0.00264495
-0.00111635
0.00280444
-0.00104169
0.00295482
-0.000965287
0.00309578
-0.000889129
0.00322728
-0.000814815
0.00334945
-0.000743564
0.00346263
-0.000676259
0.00356721
-0.000613475
0.00366372
-0.000555535
0.00375271
-0.000502535
0.00383478
-0.000454404
0.00391051
-0.000410951
0.00398046
-0.000371898
0.00404518
-0.000336912
0.00410519
-0.000305635
0.00416093
-0.000277703
0.00421286
-0.000252763
0.00426134
-0.000230483
0.00430673
-0.000210554
0.00434934
-0.000192701
0.00438945
-0.000176676
0.00442729
-0.000162262
0.0044631
-0.000149269
0.00449706
-0.000137531
0.00452934
-0.000126905
0.0045601
-0.000117268
0.00458949
-0.000108511
0.00461761
-0.000100543
0.00464459
-9.32831e-05
0.00467052
-8.66621e-05
0.00469549
-8.06188e-05
0.00471959
-7.50974e-05
-7.00399e-05
0.00474288
6.8822e-05
-7.23209e-05
0.000162229
-0.000193349
0.000259362
-0.000350679
0.000358794
-0.000535514
0.00046255
-0.000729466
0.000573342
-0.000917787
0.000693593
-0.00109004
0.000824788
-0.0012387
0.000967256
-0.00135896
0.00112027
-0.00144854
0.00128227
-0.00150733
0.00145119
-0.0015368
0.00162463
-0.00153961
0.00180018
-0.00151911
0.00197551
-0.00147908
0.00214852
-0.00142337
0.00231742
-0.00135573
0.00248072
-0.00127965
0.00263729
-0.00119827
0.00278633
-0.00111432
0.00292731
-0.00103011
0.00305999
-0.000947498
0.00318435
-0.000867917
0.00330051
-0.000792423
0.00340878
-0.000721743
0.00350954
-0.000656293
0.00360325
-0.000596246
0.00369042
-0.000541576
0.00377157
-0.0004921
0.00384721
-0.000447539
0.00391784
-0.000407544
0.00398394
-0.000371731
0.00404594
-0.000339705
0.00410425
-0.000311076
0.00415924
-0.000285474
0.00421125
-0.000262557
0.00426056
-0.000242013
0.00430745
-0.000223564
0.00435215
-0.000206964
0.00439487
-0.000191995
0.00443581
-0.000178471
0.00447513
-0.000166225
0.00451298
-0.000155118
0.0045495
-0.000145024
0.00458479
-0.000135838
0.00461898
-0.000127468
0.00465215
-0.000119833
0.00468439
-0.000112863
0.00471579
-0.000106494
0.00474641
-0.000100662
0.00474818
-1.37259e-05
8.2014e-09
0.00476145
-1.32839e-05
8.32911e-09
0.00477432
-1.28727e-05
8.4727e-09
0.0047868
-1.24879e-05
8.63561e-09
0.00479891
-1.21222e-05
8.822e-09
0.00481066
-1.17643e-05
9.0301e-09
0.00482205
-1.13993e-05
9.25347e-09
0.00483305
-1.10092e-05
9.48432e-09
0.00484362
-1.05758e-05
9.71153e-09
0.00485369
-1.00839e-05
9.91672e-09
0.00486321
-9.52573e-06
1.00778e-08
0.00487211
-8.90551e-06
1.01751e-08
0.00488034
-8.24089e-06
1.0187e-08
0.00488789
-7.562e-06
1.00951e-08
0.00489478
-6.9065e-06
9.89202e-09
0.00490109
-6.3122e-06
9.58177e-09
0.00490689
-5.8092e-06
9.17449e-09
0.00491229
-5.41397e-06
8.68947e-09
0.00491741
-5.12715e-06
8.15306e-09
0.00492234
-4.93537e-06
7.58894e-09
0.00492715
-4.81608e-06
7.01524e-09
0.00493189
-4.74354e-06
6.44844e-09
0.00493657
-4.69392e-06
5.90053e-09
0.00494122
-4.64874e-06
5.37608e-09
0.00494581
-4.59592e-06
4.87772e-09
0.00495033
-4.52933e-06
4.40775e-09
0.00495478
-4.44732e-06
3.96369e-09
0.00495912
-4.35103e-06
3.54087e-09
0.00496336
-4.24301e-06
3.13797e-09
0.00496749
-4.12617e-06
2.75334e-09
0.00497149
-4.00329e-06
2.38327e-09
0.00497536
-3.87669e-06
2.02664e-09
0.00497911
-3.74823e-06
1.68361e-09
0.00498273
-3.6193e-06
1.35129e-09
0.00498622
-3.49095e-06
1.02896e-09
0.00498958
-3.36395e-06
7.22239e-10
0.00499282
-3.23886e-06
4.37939e-10
0.00499593
-3.11607e-06
1.82053e-10
0.00499893
-2.99585e-06
-3.98943e-11
0.00500181
-2.8784e-06
-2.30034e-10
0.00500457
-2.76382e-06
-4.00515e-10
0.00500723
-2.65218e-06
-5.62072e-10
0.00500977
-2.54349e-06
-7.23003e-10
0.00501221
-2.43778e-06
-8.84828e-10
0.00501454
-2.33505e-06
-1.05744e-09
0.00501678
-2.23524e-06
-1.23588e-09
0.00501892
-2.1383e-06
-1.42144e-09
0.00502097
-2.04418e-06
-1.63399e-09
0.00502292
-1.95283e-06
-1.87756e-09
0.00502479
-1.8642e-06
-2.15335e-09
0.00502657
-1.77825e-06
-2.45635e-09
0.00502827
-1.69493e-06
-2.77411e-09
0.00502988
-1.61422e-06
-3.0855e-09
0.00503142
-1.53609e-06
-3.36969e-09
0.00503289
-1.46049e-06
-3.61111e-09
0.00503428
-1.3874e-06
-3.80061e-09
0.0050356
-1.31674e-06
-3.93649e-09
0.00503685
-1.24847e-06
-4.03852e-09
0.00503804
-1.1825e-06
-4.13686e-09
0.00503916