/*--------------------------------*- C++ -*----------------------------------*\
| =========                 |                                                 |
| \\      /  F ield         | OpenFOAM: The Open Source CFD Toolbox           |
|  \\    /   O peration     | Version:  2412                                  |
|   \\  /    A nd           | Website:  www.openfoam.com                      |
|    \\/     M anipulation  |                                                 |
\*---------------------------------------------------------------------------*/
FoamFile
{
    version     2.0;
    format      ascii;
    arch        "LSB;label=32;scalar=64";
    class       volVectorField;
    location    "7.5";
    object      U;
}
// * * * * * * * * * * * * * * * * * * * * * * * * * * * * * * * * * * * * * //

dimensions      [0 1 -1 0 0 0 0];

internalField   nonuniform List<vector> 
63420
(
(0.100014 1.06683e-07 0)
(0.0999888 2.3289e-06 0)
(0.0999782 8.38997e-06 0)
(0.0999041 1.61251e-05 0)
(0.0997975 2.11347e-05 0)
(0.0996781 2.15132e-05 0)
(0.0995703 1.83535e-05 0)
(0.0994872 1.40229e-05 0)
(0.0994272 1.03881e-05 0)
(0.0993828 8.20052e-06 0)
(0.0993461 7.37627e-06 0)
(0.0993112 7.48632e-06 0)
(0.0992749 8.09754e-06 0)
(0.0992358 8.90856e-06 0)
(0.0991937 9.75598e-06 0)
(0.0991488 1.05728e-05 0)
(0.0991013 1.13452e-05 0)
(0.0990516 1.20828e-05 0)
(0.0989999 1.28024e-05 0)
(0.0989463 1.35203e-05 0)
(0.0988909 1.42503e-05 0)
(0.0988337 1.50032e-05 0)
(0.0987746 1.57871e-05 0)
(0.0987138 1.66084e-05 0)
(0.098651 1.74722e-05 0)
(0.0985863 1.83826e-05 0)
(0.0985196 1.93432e-05 0)
(0.0984507 2.03572e-05 0)
(0.0983797 2.14276e-05 0)
(0.0983064 2.25574e-05 0)
(0.0982307 2.37496e-05 0)
(0.0981527 2.5007e-05 0)
(0.0980721 2.63329e-05 0)
(0.0979889 2.77302e-05 0)
(0.0979031 2.92024e-05 0)
(0.0978145 3.07529e-05 0)
(0.097723 3.23854e-05 0)
(0.0976285 3.41036e-05 0)
(0.097531 3.59119e-05 0)
(0.0974304 3.78144e-05 0)
(0.0973265 3.9816e-05 0)
(0.0972193 4.19217e-05 0)
(0.0971087 4.41368e-05 0)
(0.0969945 4.64672e-05 0)
(0.0968766 4.89192e-05 0)
(0.096755 5.14997e-05 0)
(0.0966295 5.42163e-05 0)
(0.0965 5.70772e-05 0)
(0.0963663 6.00916e-05 0)
(0.0962283 6.32698e-05 0)
(0.0960859 6.66231e-05 0)
(0.0959389 7.01645e-05 0)
(0.0957871 7.39108e-05 0)
(0.0956304 7.7891e-05 0)
(0.0954684 8.21716e-05 0)
(0.100014 3.28981e-07 0)
(0.0999887 6.94874e-06 0)
(0.0999786 2.49893e-05 0)
(0.0999057 4.80539e-05 0)
(0.0998007 6.30506e-05 0)
(0.0996827 6.42835e-05 0)
(0.0995755 5.49702e-05 0)
(0.0994924 4.21377e-05 0)
(0.0994317 3.13417e-05 0)
(0.0993865 2.48298e-05 0)
(0.099349 2.23647e-05 0)
(0.0993135 2.26785e-05 0)
(0.0992767 2.4487e-05 0)
(0.0992373 2.6895e-05 0)
(0.099195 2.94164e-05 0)
(0.0991499 3.18509e-05 0)
(0.0991024 3.41569e-05 0)
(0.0990526 3.6362e-05 0)
(0.0990009 3.85153e-05 0)
(0.0989473 4.06653e-05 0)
(0.0988919 4.28524e-05 0)
(0.0988348 4.51086e-05 0)
(0.0987758 4.7458e-05 0)
(0.098715 4.99196e-05 0)
(0.0986523 5.25084e-05 0)
(0.0985877 5.52368e-05 0)
(0.098521 5.81154e-05 0)
(0.0984523 6.11538e-05 0)
(0.0983813 6.43611e-05 0)
(0.0983081 6.77461e-05 0)
(0.0982326 7.13176e-05 0)
(0.0981547 7.50844e-05 0)
(0.0980742 7.90557e-05 0)
(0.0979912 8.32409e-05 0)
(0.0979054 8.76499e-05 0)
(0.097817 9.2293e-05 0)
(0.0977256 9.71813e-05 0)
(0.0976314 0.000102326 0)
(0.0975341 0.00010774 0)
(0.0974336 0.000113436 0)
(0.09733 0.000119429 0)
(0.097223 0.000125732 0)
(0.0971126 0.000132363 0)
(0.0969986 0.000139338 0)
(0.0968811 0.000146677 0)
(0.0967597 0.000154399 0)
(0.0966345 0.000162528 0)
(0.0965053 0.000171088 0)
(0.096372 0.000180107 0)
(0.0962345 0.000189615 0)
(0.0960925 0.000199644 0)
(0.095946 0.000210235 0)
(0.0957947 0.000221435 0)
(0.0956385 0.00023333 0)
(0.0954772 0.000246113 0)
(0.100014 5.76112e-07 0)
(0.0999885 1.14675e-05 0)
(0.0999793 4.11309e-05 0)
(0.0999089 7.92003e-05 0)
(0.0998071 0.000104144 0)
(0.0996917 0.0001065 0)
(0.0995858 9.14383e-05 0)
(0.0995024 7.04584e-05 0)
(0.0994406 5.27106e-05 0)
(0.0993938 4.19377e-05 0)
(0.0993548 3.77959e-05 0)
(0.0993181 3.82308e-05 0)
(0.0992803 4.11445e-05 0)
(0.0992402 4.50676e-05 0)
(0.0991975 4.91977e-05 0)
(0.0991521 5.32014e-05 0)
(0.0991044 5.70057e-05 0)
(0.0990546 6.0653e-05 0)
(0.0990029 6.42218e-05 0)
(0.0989494 6.77901e-05 0)
(0.0988941 7.14238e-05 0)
(0.098837 7.51745e-05 0)
(0.0987781 7.90819e-05 0)
(0.0987175 8.3177e-05 0)
(0.0986549 8.74843e-05 0)
(0.0985904 9.20241e-05 0)
(0.0985239 9.68141e-05 0)
(0.0984553 0.00010187 0)
(0.0983846 0.000107207 0)
(0.0983116 0.00011284 0)
(0.0982363 0.000118782 0)
(0.0981586 0.000125049 0)
(0.0980784 0.000131656 0)
(0.0979956 0.000138618 0)
(0.0979102 0.000145953 0)
(0.097822 0.000153676 0)
(0.097731 0.000161806 0)
(0.097637 0.000170362 0)
(0.0975401 0.000179365 0)
(0.09744 0.000188837 0)
(0.0973368 0.0001988 0)
(0.0972302 0.000209278 0)
(0.0971203 0.0002203 0)
(0.0970069 0.000231893 0)
(0.0968898 0.000244088 0)
(0.0967691 0.000256918 0)
(0.0966445 0.000270422 0)
(0.096516 0.000284639 0)
(0.0963834 0.000299613 0)
(0.0962467 0.000315395 0)
(0.0961056 0.000332038 0)
(0.09596 0.000349605 0)
(0.0958097 0.000368174 0)
(0.0956547 0.000387879 0)
(0.0954946 0.000409019 0)
(0.100014 8.63191e-07 0)
(0.0999883 1.58225e-05 0)
(0.0999803 5.65326e-05 0)
(0.0999135 0.000109085 0)
(0.0998162 0.000143913 0)
(0.0997046 0.000147824 0)
(0.0996005 0.000127666 0)
(0.0995168 9.9109e-05 0)
(0.0994533 7.47467e-05 0)
(0.0994044 5.98149e-05 0)
(0.0993632 5.39389e-05 0)
(0.0993246 5.43622e-05 0)
(0.0992855 5.82329e-05 0)
(0.0992445 6.35391e-05 0)
(0.0992011 6.9173e-05 0)
(0.0991554 7.46673e-05 0)
(0.0991075 7.9913e-05 0)
(0.0990576 8.49617e-05 0)
(0.0990059 8.99161e-05 0)
(0.0989524 9.48805e-05 0)
(0.0988972 9.99433e-05 0)
(0.0988403 0.000105174 0)
(0.0987816 0.000110627 0)
(0.0987211 0.000116345 0)
(0.0986588 0.000122359 0)
(0.0985945 0.0001287 0)
(0.0985283 0.00013539 0)
(0.0984599 0.000142453 0)
(0.0983895 0.000149907 0)
(0.0983168 0.000157774 0)
(0.0982418 0.000166074 0)
(0.0981644 0.000174826 0)
(0.0980846 0.000184053 0)
(0.0980022 0.000193774 0)
(0.0979172 0.000204014 0)
(0.0978295 0.000214796 0)
(0.0977389 0.000226145 0)
(0.0976455 0.000238088 0)
(0.0975491 0.000250652 0)
(0.0974496 0.000263868 0)
(0.097347 0.000277768 0)
(0.0972411 0.000292385 0)
(0.0971319 0.000307757 0)
(0.0970192 0.000323922 0)
(0.096903 0.000340923 0)
(0.0967831 0.000358806 0)
(0.0966595 0.000377622 0)
(0.096532 0.000397425 0)
(0.0964005 0.000418276 0)
(0.0962649 0.000440242 0)
(0.0961251 0.000463396 0)
(0.0959809 0.00048782 0)
(0.0958322 0.00051362 0)
(0.0956788 0.000540968 0)
(0.0955206 0.000570247 0)
(0.100014 1.20237e-06 0)
(0.099988 1.99609e-05 0)
(0.0999816 7.09476e-05 0)
(0.0999193 0.000137294 0)
(0.0998277 0.000181919 0)
(0.0997208 0.000187959 0)
(0.0996189 0.000163569 0)
(0.0995349 0.000128193 0)
(0.0994694 9.76639e-05 0)
(0.0994177 7.87098e-05 0)
(0.0993738 7.10245e-05 0)
(0.099333 7.12606e-05 0)
(0.0992922 7.58921e-05 0)
(0.09925 8.24064e-05 0)
(0.0992058 8.94044e-05 0)
(0.0991596 9.62848e-05 0)
(0.0991115 0.000102896 0)
(0.0990615 0.000109291 0)
(0.0990098 0.000115591 0)
(0.0989564 0.000121921 0)
(0.0989013 0.000128389 0)
(0.0988446 0.000135081 0)
(0.0987861 0.000142062 0)
(0.0987259 0.000149386 0)
(0.0986638 0.000157094 0)
(0.0985999 0.00016522 0)
(0.098534 0.000173796 0)
(0.098466 0.000182848 0)
(0.0983959 0.000192404 0)
(0.0983236 0.000202487 0)
(0.0982491 0.000213125 0)
(0.0981722 0.000224342 0)
(0.0980928 0.000236165 0)
(0.0980109 0.000248621 0)
(0.0979265 0.00026174 0)
(0.0978393 0.000275551 0)
(0.0977494 0.000290087 0)
(0.0976566 0.000305381 0)
(0.097561 0.000321468 0)
(0.0974622 0.000338386 0)
(0.0973604 0.000356176 0)
(0.0972554 0.000374881 0)
(0.0971471 0.000394545 0)
(0.0970355 0.00041522 0)
(0.0969203 0.000436958 0)
(0.0968016 0.000459816 0)
(0.0966792 0.000483857 0)
(0.096553 0.00050915 0)
(0.096423 0.000535769 0)
(0.096289 0.000563796 0)
(0.0961508 0.000593319 0)
(0.0960085 0.00062444 0)
(0.0958618 0.000657281 0)
(0.0957106 0.000692039 0)
(0.0955548 0.000729152 0)
(0.100014 1.60235e-06 0)
(0.0999877 2.38405e-05 0)
(0.0999831 8.41818e-05 0)
(0.0999259 0.000163499 0)
(0.0998409 0.000217816 0)
(0.0997394 0.000226667 0)
(0.0996401 0.000199075 0)
(0.0995558 0.000157783 0)
(0.099488 0.000121624 0)
(0.0994332 9.88136e-05 0)
(0.0993862 8.92316e-05 0)
(0.0993428 8.90726e-05 0)
(0.0993 9.42316e-05 0)
(0.0992564 0.000101745 0)
(0.0992114 0.00010994 0)
(0.0991647 0.000118081 0)
(0.0991162 0.000125965 0)
(0.0990662 0.00013364 0)
(0.0990145 0.000141236 0)
(0.0989612 0.000148895 0)
(0.0989063 0.000156739 0)
(0.0988498 0.000164867 0)
(0.0987916 0.000173356 0)
(0.0987317 0.000182266 0)
(0.09867 0.000191647 0)
(0.0986065 0.000201541 0)
(0.0985409 0.000211982 0)
(0.0984734 0.000223005 0)
(0.0984038 0.000234639 0)
(0.098332 0.000246917 0)
(0.098258 0.000259867 0)
(0.0981817 0.000273522 0)
(0.0981029 0.000287912 0)
(0.0980217 0.000303072 0)
(0.0979379 0.000319035 0)
(0.0978515 0.000335839 0)
(0.0977624 0.00035352 0)
(0.0976704 0.00037212 0)
(0.0975756 0.00039168 0)
(0.0974779 0.000412247 0)
(0.0973771 0.000433868 0)
(0.0972732 0.000456594 0)
(0.097166 0.000480481 0)
(0.0970556 0.000505586 0)
(0.0969418 0.000531972 0)
(0.0968245 0.000559708 0)
(0.0967036 0.000588867 0)
(0.0965791 0.000619528 0)
(0.0964509 0.000651778 0)
(0.0963188 0.000685712 0)
(0.0961827 0.00072143 0)
(0.0960426 0.000759046 0)
(0.0958984 0.000798692 0)
(0.0957499 0.000840569 0)
(0.0955971 0.000885113 0)
(0.100014 2.07666e-06 0)
(0.0999874 2.74131e-05 0)
(0.0999847 9.61254e-05 0)
(0.099933 0.000187475 0)
(0.099855 0.000251369 0)
(0.0997595 0.000263777 0)
(0.099663 0.000234122 0)
(0.0995784 0.000187917 0)
(0.0995082 0.000146726 0)
(0.09945 0.000120248 0)
(0.0993998 0.000108676 0)
(0.0993536 0.000107895 0)
(0.0993087 0.000113324 0)
(0.0992637 0.000121605 0)
(0.0992177 0.00013081 0)
(0.0991704 0.00014007 0)
(0.0991217 0.000149124 0)
(0.0990715 0.000158003 0)
(0.0990199 0.000166839 0)
(0.0989668 0.000175784 0)
(0.0989121 0.00018497 0)
(0.0988559 0.000194505 0)
(0.0987981 0.000204476 0)
(0.0987386 0.000214949 0)
(0.0986773 0.000225981 0)
(0.0986141 0.000237618 0)
(0.0985491 0.000249902 0)
(0.0984821 0.00026287 0)
(0.0984131 0.000276558 0)
(0.0983419 0.000291001 0)
(0.0982685 0.000306235 0)
(0.0981928 0.000322295 0)
(0.0981148 0.000339218 0)
(0.0980344 0.000357043 0)
(0.0979514 0.000375809 0)
(0.0978659 0.000395559 0)
(0.0977777 0.000416336 0)
(0.0976867 0.000438187 0)
(0.097593 0.000461161 0)
(0.0974964 0.000485311 0)
(0.0973968 0.000510692 0)
(0.0972941 0.000537361 0)
(0.0971884 0.000565383 0)
(0.0970794 0.000594823 0)
(0.0969672 0.000625753 0)
(0.0968516 0.00065825 0)
(0.0967326 0.000692397 0)
(0.09661 0.000728283 0)
(0.0964839 0.000766004 0)
(0.096354 0.000805664 0)
(0.0962204 0.000847373 0)
(0.0960829 0.000891251 0)
(0.0959415 0.000937429 0)
(0.0957962 0.000986085 0)
(0.0956468 0.00103757 0)
(0.0953002 8.69443e-05 -4.88934e-24)
(0.0951241 9.20011e-05 -4.97909e-24)
(0.0949381 9.73924e-05 -3.25861e-26)
(0.0947418 0.000103003 1.5279e-23)
(0.0945347 0.00010895 -5.06218e-24)
(0.0943164 0.000115142 -5.20297e-24)
(0.0940866 0.000121504 -1.60021e-23)
(0.0938448 0.000127994 1.58927e-23)
(0.0935911 0.000134592 5.43204e-24)
(0.0933252 0.000141315 0)
(0.093047 0.000148229 5.6044e-24)
(0.092756 0.000155459 -5.69725e-24)
(0.0924516 0.000163187 4.68195e-23)
(0.0921326 0.00017164 -1.0031e-22)
(0.0917975 0.000181081 5.3598e-23)
(0.0914444 0.000191781 4.33791e-23)
(0.0910705 0.000204007 5.56649e-23)
(0.090673 0.000218004 -6.36941e-24)
(0.0902484 0.000233989 6.50473e-24)
(0.0897929 0.000252161 -6.64812e-24)
(0.0893023 0.000272703 0)
(0.0887722 0.000295801 6.96193e-24)
(0.088198 0.00032166 -7.13387e-24)
(0.0875743 0.000350528 0)
(0.0868957 0.000382715 -7.51215e-24)
(0.0861559 0.000418613 0)
(0.0853479 0.000458716 -7.94327e-24)
(0.0844637 0.000503642 -1.33107e-22)
(0.0834942 0.000554157 1.41341e-22)
(0.0824287 0.000611205 -1.41921e-22)
(0.0812546 0.000675952 1.41705e-22)
(0.0799573 0.000749835 0)
(0.0785191 0.000834629 0)
(0.0769189 0.000932543 1.74039e-22)
(0.0751314 0.00104633 -1.63756e-22)
(0.0731259 0.00117941 0)
(0.0708648 0.00133601 0)
(0.0683028 0.00152125 0)
(0.0653843 0.00174107 0)
(0.062043 0.00200187 0)
(0.0582012 0.00230955 0)
(0.053772 0.00266746 0)
(0.048666 0.00307287 0)
(0.0428057 0.00351116 0)
(0.0361534 0.0039472 -1.64418e-23)
(0.0287573 0.00431321 -5.66531e-22)
(0.0208029 0.00449432 5.65681e-22)
(0.0126993 0.0043138 6.16288e-22)
(0.00546142 0.00350107 -6.15363e-22)
(0.00111882 0.00163775 0)
(0.0953095 0.000260355 -4.94305e-24)
(0.0951338 0.000275419 -1.0071e-23)
(0.0949483 0.000291375 -5.26784e-24)
(0.0947525 0.000308394 4.92227e-24)
(0.094546 0.000326253 -5.1292e-24)
(0.0943284 0.000344775 3.6718e-23)
(0.0940991 0.00036382 -5.76638e-23)
(0.093858 0.000383271 5.35074e-24)
(0.0936049 0.000403068 7.13407e-23)
(0.0933395 0.000423264 -9.85347e-23)
(0.0930616 0.000444058 -9.6101e-23)
(0.0927708 0.000465822 8.46808e-23)
(0.0924663 0.000489095 0)
(0.0921471 0.000514556 5.90366e-24)
(0.0918117 0.00054298 -1.80312e-23)
(0.091458 0.000575176 -2.04297e-22)
(0.0910836 0.000611931 1.95953e-22)
(0.0906855 0.000653972 -2.08304e-22)
(0.0902604 0.000701951 -1.95434e-23)
(0.0898046 0.000756457 6.66271e-24)
(0.089314 0.000818045 0)
(0.0887842 0.000887269 -6.97997e-24)
(0.0882107 0.000964752 -2.2482e-22)
(0.0875883 0.00105124 4.69753e-22)
(0.0869115 0.00114767 2.58989e-22)
(0.0861742 0.00125522 -4.88571e-22)
(0.0853695 0.00137538 5.26025e-22)
(0.0844894 0.00151 -5.33768e-22)
(0.0835252 0.00166137 -8.47058e-24)
(0.0824662 0.00183232 0)
(0.0813003 0.00202633 0)
(0.0800131 0.0022477 0)
(0.0785875 0.00250172 0)
(0.0770032 0.00279497 -1.00832e-23)
(0.0752357 0.00313564 -6.84731e-22)
(0.0732556 0.00353389 -2.97388e-23)
(0.0710273 0.00400225 7.12614e-22)
(0.0685074 0.00455585 7.78345e-22)
(0.0656436 0.00521223 -7.77314e-22)
(0.0623731 0.00599016 -2.58956e-23)
(0.0586226 0.00690674 -2.71137e-23)
(0.0543095 0.00797133 -9.38574e-22)
(0.0493477 0.00917489 9.07611e-22)
(0.0436593 0.0104729 -3.10721e-23)
(0.0371993 0.0117597 1.65568e-23)
(0.0299943 0.0128329 -1.15202e-21)
(0.0221891 0.0133504 1.15168e-21)
(0.0141217 0.0127874 -2.4089e-21)
(0.00666681 0.0103508 2.36862e-21)
(0.00161143 0.00480734 -2.4269e-21)
(0.095328 0.000432551 -2.92566e-23)
(0.095153 0.000457578 -1.02412e-23)
(0.0949685 0.000484143 3.9567e-23)
(0.0947739 0.000512392 -8.12841e-23)
(0.0945686 0.000541973 1.73871e-22)
(0.0943521 0.000572683 -8.2339e-23)
(0.0941242 0.000604318 1.45033e-26)
(0.0938843 0.000636689 1.06731e-23)
(0.0936324 0.000669707 1.85911e-22)
(0.093368 0.000703462 -1.74877e-22)
(0.0930909 0.000738288 0)
(0.0928005 0.000774798 1.49181e-26)
(0.0924962 0.000813874 0)
(0.0921768 0.000856626 2.02741e-22)
(0.0918408 0.000904316 -1.78709e-22)
(0.0914863 0.000958264 -3.84772e-22)
(0.0911111 0.00101976 2.11267e-23)
(0.0907122 0.00108998 -4.04891e-22)
(0.0902864 0.00117 1.30774e-23)
(0.0898304 0.00126079 -4.32971e-22)
(0.0893401 0.00136329 4.46233e-22)
(0.0888113 0.00147843 -4.54326e-22)
(0.0882396 0.00160725 4.68253e-22)
(0.0876201 0.00175102 1.47317e-23)
(0.0869473 0.0019113 -1.51316e-23)
(0.0862153 0.00209009 1.55578e-23)
(0.0854174 0.00228985 -5.21007e-22)
(0.0845461 0.00251367 5.37044e-22)
(0.0835928 0.00276538 5.71511e-22)
(0.0825473 0.00304966 -5.53969e-22)
(0.0813981 0.00337227 0)
(0.0801316 0.00374029 0)
(0.0787318 0.00416247 1.94941e-23)
(0.0771798 0.0046496 1.34457e-21)
(0.075453 0.00521512 3.35476e-23)
(0.0735246 0.00587561 -1.35449e-21)
(0.0713624 0.00665147 0)
(0.0689278 0.00756718 -2.37516e-23)
(0.0661742 0.00865089 1.6584e-21)
(0.0630466 0.00993245 -3.31458e-21)
(0.0594798 0.0114384 3.52225e-21)
(0.0554002 0.0131818 1.11648e-22)
(0.0507277 0.0151449 -1.83756e-21)
(0.0453844 0.017251 -2.00156e-21)
(0.039309 0.0193239 2.06279e-21)
(0.0324846 0.0210302 1.58908e-24)
(0.0249723 0.0218085 -3.52841e-23)
(0.0169704 0.0207978 2.32602e-21)
(0.00905878 0.0167356 -2.25237e-21)
(0.00255819 0.00770142 -2.25165e-21)
(0.0953556 0.000602831 1.9283e-23)
(0.0951818 0.000637659 -9.77831e-24)
(0.0949987 0.000674732 2.00897e-26)
(0.0948056 0.000713818 1.00481e-23)
(0.0946021 0.00075484 -2.00117e-26)
(0.0943875 0.00079754 1.66656e-22)
(0.0941615 0.000841619 -3.14815e-22)
(0.0939237 0.000886829 1.69139e-22)
(0.0936736 0.000933068 -1.0818e-23)
(0.093411 0.000980476 1.99745e-22)
(0.0931352 0.00102952 -1.77665e-22)
(0.0928459 0.00108106 -3.68224e-22)
(0.092542 0.00113627 7.43255e-22)
(0.0922227 0.00119669 -7.57416e-22)
(0.0918865 0.00126401 7.72282e-22)
(0.0915315 0.00134002 -7.75675e-22)
(0.0911557 0.00142648 -4.10519e-22)
(0.0907563 0.00152499 2.2231e-26)
(0.0903304 0.00163702 0)
(0.0898747 0.00176393 -4.21699e-22)
(0.0893857 0.00190702 4.34944e-22)
(0.0888592 0.00206759 0)
(0.0882911 0.00224716 -9.38233e-22)
(0.0876766 0.00244751 9.23016e-22)
(0.0870107 0.00267087 1.52756e-23)
(0.0862875 0.00292002 -3.5124e-26)
(0.0855009 0.00319845 1.61449e-23)
(0.0846437 0.00351047 0)
(0.0837077 0.00386141 -5.09434e-26)
(0.0826836 0.00425776 0)
(0.0815607 0.00470752 -1.83383e-23)
(0.0803266 0.00522045 1.2406e-21)
(0.078967 0.00580858 -1.24025e-21)
(0.077465 0.00648672 -2.05318e-23)
(0.075801 0.00727317 4.25457e-23)
(0.073952 0.00819048 -1.46911e-21)
(0.071891 0.00926615 1.42343e-21)
(0.0695864 0.0105329 2.41623e-23)
(0.0670005 0.0120281 -3.65393e-25)
(0.0640893 0.0137903 2.58955e-23)
(0.0608007 0.0158527 -1.78417e-21)
(0.0570735 0.0182287 3.61207e-21)
(0.0528375 0.020888 -1.88564e-21)
(0.0480133 0.0237193 1.96203e-21)
(0.0425163 0.0264758 -2.05409e-21)
(0.0362623 0.028702 -4.10025e-21)
(0.0291813 0.0296367 8.36846e-21)
(0.0212621 0.0281033 -4.2383e-21)
(0.0126869 0.0224137 0)
(0.00396484 0.0101937 -3.97651e-21)
(0.095392 0.000770417 -9.56461e-24)
(0.0952198 0.000814679 -3.9036e-23)
(0.0950384 0.000861749 1.18285e-22)
(0.0948474 0.000911482 -1.59634e-22)
(0.0946462 0.000963717 7.02891e-23)
(0.0944342 0.00101816 1.02963e-23)
(0.094211 0.00107448 -1.04617e-23)
(0.0939759 0.0011324 -2.52257e-26)
(0.0937286 0.00119182 1.08159e-23)
(0.0934684 0.00125296 -2.19863e-23)
(0.0931949 0.00131643 -3.61444e-22)
(0.0929074 0.00138327 3.7302e-22)
(0.0926049 0.001455 -3.63885e-22)
(0.0922866 0.00153347 3.75637e-22)
(0.0919509 0.00162081 0)
(0.0915963 0.00171921 -2.51443e-26)
(0.0912207 0.00183083 0)
(0.0908219 0.00195767 -4.04733e-22)
(0.0903971 0.00210157 4.31032e-22)
(0.0899434 0.00226425 -1.35354e-23)
(0.0894574 0.00244737 -9.11998e-22)
(0.0889354 0.00265265 8.98535e-22)
(0.0883735 0.00288203 -1.46073e-23)
(0.0877672 0.00313787 0)
(0.0871118 0.00342304 0)
(0.0864021 0.00374116 -1.04685e-21)
(0.0856321 0.00409671 1.01505e-21)
(0.0847953 0.00449519 0)
(0.0838843 0.00494338 -3.48352e-23)
(0.0828908 0.00544954 0)
(0.0818052 0.00602375 1.86601e-23)
(0.0806169 0.00667832 -1.9249e-23)
(0.0793136 0.00742828 -2.00514e-23)
(0.0778813 0.00829211 2.06944e-23)
(0.0763044 0.00929245 1.36357e-21)
(0.074565 0.010457 -1.40733e-21)
(0.072643 0.0118193 3.06813e-21)
(0.070516 0.0134187 -3.07016e-21)
(0.0681582 0.0152994 3.27185e-21)
(0.0655404 0.0175062 1.02418e-22)
(0.0626272 0.0200753 -3.45627e-21)
(0.0593751 0.0230163 -2.77485e-23)
(0.055726 0.0262833 1.32523e-24)
(0.0516002 0.0297287 1.77543e-24)
(0.0468836 0.0330404 2.37158e-24)
(0.0414073 0.0356563 -6.0674e-23)
(0.0349258 0.0366513 -2.78671e-23)
(0.0271346 0.0345794 -2.64446e-23)
(0.0176993 0.0273456 0)
(0.00585633 0.0122737 8.35073e-24)
(0.0954368 0.000934558 -4.74632e-23)
(0.0952665 0.000987962 2.85506e-23)
(0.0950875 0.00104477 9.75767e-24)
(0.0948991 0.00110487 1.49647e-22)
(0.0947009 0.00116807 -1.4971e-22)
(0.0944922 0.00123406 1.54673e-22)
(0.0942724 0.0013025 -3.43234e-22)
(0.094041 0.0013731 4.88277e-22)
(0.0937974 0.00144581 -3.41944e-22)
(0.0935408 0.00152093 -3.54256e-22)
(0.0932706 0.00159919 -1.75461e-23)
(0.092986 0.00168189 7.18697e-22)
(0.0926862 0.00177079 -7.56562e-22)
(0.0923701 0.00186809 3.52774e-22)
(0.0920364 0.00197625 3.8026e-22)
(0.0916838 0.00209785 3.97101e-22)
(0.0913103 0.0022354 -3.01854e-23)
(0.090914 0.00239126 8.09357e-22)
(0.0904925 0.0025676 8.35055e-22)
(0.0900431 0.00276651 2.07493e-23)
(0.0895629 0.00299 -8.84956e-22)
(0.0890485 0.00324022 0)
(0.0884964 0.00351961 0)
(0.0879025 0.00383108 -9.85474e-22)
(0.0872626 0.00417824 9.71319e-22)
(0.0865719 0.00456555 1.04619e-21)
(0.0858251 0.00499849 -1.04774e-21)
(0.0850166 0.00548382 0)
(0.0841398 0.00602975 1.17021e-21)
(0.0831877 0.00664627 -1.17247e-21)
(0.0821524 0.00734549 0)
(0.0810253 0.0081421 -2.54118e-21)
(0.0797968 0.00905393 2.56471e-21)
(0.0784566 0.0101027 -2.12165e-23)
(0.0769939 0.0113146 -2.84391e-21)
(0.0753971 0.0127215 2.87028e-21)
(0.073655 0.0143608 0)
(0.0717563 0.016276 3.23874e-21)
(0.0696901 0.0185138 -3.21882e-21)
(0.0674454 0.0211189 2.6197e-23)
(0.0650085 0.0241226 3.58083e-21)
(0.0623579 0.0275211 -7.196e-21)
(0.0594532 0.0312428 9.03608e-24)
(0.0562181 0.0350969 2.93942e-23)
(0.0525103 0.0387069 3.76196e-21)
(0.048073 0.0414263 4.15222e-24)
(0.042465 0.042221 -3.23354e-21)
(0.0350064 0.0394841 3.31481e-21)
(0.0245887 0.0308898 0)
(0.00850871 0.0136275 2.89519e-23)
(0.0954897 0.00109448 9.351e-24)
(0.0953219 0.00115643 8.60742e-23)
(0.0951458 0.00122242 -7.67582e-23)
(0.0949608 0.00129234 9.8429e-24)
(0.0947663 0.00136599 1.51165e-22)
(0.0945617 0.00144305 -1.51412e-22)
(0.0943463 0.0015232 -3.2394e-22)
(0.0941196 0.00160617 5.07151e-24)
(0.0938807 0.00169197 -5.78344e-24)
(0.0936289 0.00178099 3.59287e-22)
(0.0933634 0.00187414 -3.50478e-22)
(0.0930835 0.00197291 7.43473e-22)
(0.0927881 0.00207933 -3.70339e-22)
(0.0924763 0.00219591 1.19589e-23)
(0.0921469 0.00232543 1.22308e-23)
(0.0917987 0.0024708 8.08445e-22)
(0.09143 0.00263486 -4.88396e-24)
(0.0910392 0.00282029 8.43488e-22)
(0.0906242 0.0030296 1.34715e-23)
(0.0901828 0.00326523 0)
(0.0897123 0.00352959 0)
(0.08921 0.00382529 -9.44902e-22)
(0.0886727 0.0041553 9.4729e-22)
(0.088097 0.00452322 0)
(0.0874792 0.00493344 1.59278e-23)
(0.0868151 0.00539137 0)
(0.0861005 0.00590363 -1.10007e-21)
(0.0853305 0.0064783 2.23982e-21)
(0.0844999 0.00712518 -1.13983e-21)
(0.0836034 0.00785613 -2.41697e-21)
(0.0826351 0.00868539 -8.22812e-23)
(0.0815888 0.00963018 -8.72413e-23)
(0.0804585 0.0107112 -9.22182e-23)
(0.079238 0.0119532 2.72248e-21)
(0.0779221 0.013386 2.92762e-21)
(0.0765066 0.0150443 -2.93458e-21)
(0.0749897 0.0169685 0)
(0.0733725 0.0192024 3.26565e-21)
(0.0716597 0.0217898 -3.27323e-21)
(0.0698601 0.0247665 -3.49531e-21)
(0.067983 0.0281439 3.47609e-21)
(0.0660318 0.0318848 2.85305e-23)
(0.0639887 0.0358641 3.52982e-21)
(0.0617891 0.0398177 -1.05498e-22)
(0.0592794 0.0432788 -3.49695e-21)
(0.0561438 0.0455153 2.67177e-23)
(0.051801 0.0454593 0)
(0.0452823 0.0415685 -2.11294e-23)
(0.0345286 0.0317477 -9.54624e-22)
(0.0137235 0.0135547 4.79677e-22)
(-0.000234353 0.00024626 0)
(-0.000701991 0.000234998 2.78442e-22)
(-0.000902017 -4.66775e-05 -2.7886e-22)
(-0.000459783 -0.000456563 -2.54774e-22)
(0.000769336 -0.000904856 2.55157e-22)
(0.00279496 -0.00133878 -7.15531e-24)
(0.00555684 -0.0017256 0)
(0.00895525 -0.00204745 0)
(0.0128688 -0.00229687 0)
(0.0171693 -0.00247334 0)
(0.0217317 -0.00258096 0)
(0.02644 -0.00262663 0)
(0.0311913 -0.00261881 0)
(0.0358979 -0.0025666 0)
(0.0404875 -0.00247902 0)
(0.0449033 -0.00236466 1.38437e-23)
(0.0491028 -0.00223131 -1.31007e-23)
(0.0530567 -0.00208585 0)
(0.0567469 -0.00193416 0)
(0.0601652 -0.00178112 -3.00821e-24)
(0.0633115 -0.00163065 3.0128e-24)
(0.0661921 -0.00148573 -9.98742e-25)
(0.068818 -0.00134853 6.68052e-26)
(0.0712036 -0.00122049 0)
(0.0733656 -0.00110245 3.64323e-26)
(0.0753222 -0.000994721 0)
(0.0770915 -0.000897261 0)
(0.0786914 -0.000809679 0)
(0.0801393 -0.000731392 7.05574e-26)
(0.0814512 -0.000661688 0)
(0.0826419 -0.000599791 -1.02714e-25)
(0.083725 -0.000544904 1.19065e-25)
(0.0847123 -0.000496252 -1.34947e-25)
(0.0856147 -0.000453102 1.38014e-24)
(0.0864415 -0.000414782 -1.39622e-24)
(0.0872011 -0.000380686 -1.26825e-24)
(0.0879006 -0.000350279 2.79819e-24)
(0.0885464 -0.000323091 -1.54212e-24)
(0.089144 -0.000298717 -2.1016e-25)
(0.0896984 -0.000276807 2.18957e-25)
(0.0902138 -0.000257061 0)
(0.0906939 -0.000239221 2.33626e-25)
(0.0911421 -0.00022307 -1.20329e-24)
(0.0915613 -0.00020842 1.20996e-24)
(0.0919541 -0.000195111 -2.49194e-25)
(0.092323 -0.000183005 7.59845e-25)
(0.0926701 -0.000171986 -2.51765e-25)
(0.0929973 -0.000161949 -5.17036e-25)
(0.0933064 -0.000152805 2.59001e-25)
(0.0935989 -0.000144469 -2.61822e-25)
(-0.000249215 0.000695276 -1.11256e-21)
(-0.000617176 0.000603283 -1.17128e-21)
(-0.000539502 -0.000238845 1.15404e-21)
(0.000221953 -0.00144302 -5.06998e-22)
(0.00175131 -0.00276015 5.08808e-22)
(0.00402664 -0.00403399 7.20479e-24)
(0.00697682 -0.00516829 -1.34073e-23)
(0.0104996 -0.00611136 -3.58374e-22)
(0.0144773 -0.00684162 3.46958e-22)
(0.0187891 -0.0073577 -8.81725e-24)
(0.0233191 -0.0076716 -7.39161e-24)
(0.0279608 -0.00780357 1.69129e-22)
(0.0326206 -0.00777843 -1.69355e-22)
(0.0372189 -0.00762279 -1.05298e-22)
(0.0416907 -0.00736315 2.4847e-23)
(0.0459853 -0.00702463 8.06994e-23)
(0.0500647 -0.00663013 -7.67817e-25)
(0.0539033 -0.00619984 -1.28112e-24)
(0.0574855 -0.00575106 0)
(0.0608047 -0.00529815 0)
(0.0638616 -0.00485262 0)
(0.0666628 -0.00442332 -1.05913e-25)
(0.0692193 -0.00401665 4.24299e-24)
(0.0715445 -0.00363694 -4.71882e-24)
(0.0736549 -0.00328666 3.04658e-24)
(0.0755676 -0.00296678 -1.46043e-24)
(0.0772998 -0.00267716 -3.51828e-24)
(0.0788686 -0.00241673 1.89179e-24)
(0.0802904 -0.00218379 -7.07394e-26)
(0.0815806 -0.00197626 -2.08741e-25)
(0.0827532 -0.00179186 1.02938e-25)
(0.0838211 -0.00162825 -3.85044e-25)
(0.0847958 -0.00148315 4.52477e-24)
(0.0856876 -0.0013544 -9.97761e-24)
(0.0865054 -0.00124 4.96149e-24)
(0.0872573 -0.00113818 -5.48803e-25)
(0.0879503 -0.00104734 1.89579e-25)
(0.0885905 -0.000966101 0)
(0.0891833 -0.000893251 -3.68156e-24)
(0.0897335 -0.000827754 3.24583e-24)
(0.0902451 -0.000768718 3.24057e-24)
(0.090722 -0.000715379 -4.41647e-24)
(0.0911673 -0.000667083 2.39556e-25)
(0.0915839 -0.000623273 1.24109e-24)
(0.0919744 -0.000583469 -2.23838e-24)
(0.0923412 -0.000547263 -2.52687e-25)
(0.0926863 -0.000514301 -1.80102e-24)
(0.0930118 -0.000484276 -2.6878e-25)
(0.0933191 -0.000456915 5.17255e-25)
(0.0936101 -0.000431963 7.84154e-25)
(-0.000277003 0.00100049 -1.19266e-21)
(-0.000420302 0.000691942 1.24738e-21)
(0.000230913 -0.000683317 -1.21004e-21)
(0.00160397 -0.00262134 -1.75434e-23)
(0.003692 -0.00473367 -7.82466e-25)
(0.00642922 -0.00676812 -9.19235e-22)
(0.00972316 -0.00857568 9.49506e-22)
(0.0134679 -0.0100768 7.48403e-22)
(0.0175546 -0.0112379 -8.96678e-23)
(0.0218773 -0.012057 -1.16821e-21)
(0.0263376 -0.0125532 9.98901e-22)
(0.0308473 -0.0127586 -4.4442e-22)
(0.0353299 -0.0127126 -5.47536e-24)
(0.0397213 -0.0124574 0)
(0.0439697 -0.0120353 1.87203e-22)
(0.0480351 -0.0114862 -4.59565e-23)
(0.0518883 -0.0108468 -1.38694e-22)
(0.0555099 -0.0101493 2.88696e-24)
(0.0588891 -0.00942151 0)
(0.0620219 -0.00868644 0)
(0.0649107 -0.00796268 1.50563e-23)
(0.0675626 -0.00726451 -1.45679e-23)
(0.0699877 -0.00660241 -8.14532e-24)
(0.0721995 -0.00598342 8.55894e-24)
(0.0742118 -0.00541174 2.63912e-25)
(0.0760413 -0.00488909 -2.40553e-25)
(0.0777031 -0.00441521 2.33656e-25)
(0.0792126 -0.00398855 -6.20204e-24)
(0.0805847 -0.00360647 6.44628e-24)
(0.0818332 -0.00326568 -7.39011e-24)
(0.082971 -0.00296253 7.87546e-24)
(0.0840098 -0.00269328 2.66793e-25)
(0.08496 -0.00245425 1.03101e-23)
(0.0858311 -0.00224195 -2.11408e-23)
(0.0866315 -0.00205319 1.14972e-23)
(0.0873686 -0.00188505 6.65908e-24)
(0.0880489 -0.00173495 -5.87564e-24)
(0.0886781 -0.00160065 0)
(0.0892614 -0.00148016 -1.81113e-26)
(0.0898033 -0.0013718 0)
(0.0903077 -0.00127409 7.56849e-24)
(0.0907781 -0.00118578 -7.11496e-24)
(0.0912176 -0.00110581 4.96987e-25)
(0.0916291 -0.00103325 -9.98891e-27)
(0.092015 -0.000967317 4.06512e-24)
(0.0923776 -0.000907327 -7.67857e-24)
(0.092719 -0.000852701 4.11483e-24)
(0.0930409 -0.000802929 -2.09579e-24)
(0.093345 -0.000757556 1.56942e-24)
(0.0936328 -0.000716149 5.21615e-25)
(-0.0002658 0.00106681 -2.67308e-21)
(1.65216e-05 0.000452051 0)
(0.00151438 -0.00146028 2.52844e-21)
(0.00371793 -0.00406742 -4.93997e-21)
(0.00655441 -0.00686136 2.42774e-21)
(0.00989843 -0.00953277 9.75903e-22)
(0.0136301 -0.0119007 -1.025e-21)
(0.0176452 -0.0138654 8.00785e-22)
(0.0218504 -0.0153842 -1.50861e-21)
(0.0261625 -0.0164542 6.96477e-22)
(0.0305079 -0.0170998 8.9701e-24)
(0.034823 -0.0173624 7.20499e-25)
(0.0390541 -0.017293 5.56911e-24)
(0.0431575 -0.0169466 -2.78461e-22)
(0.0470984 -0.0163784 2.6992e-22)
(0.0508507 -0.0156409 6.04755e-24)
(0.0543961 -0.0147821 -2.12878e-24)
(0.0577232 -0.0138449 1.01658e-22)
(0.0608269 -0.0128658 -1.01286e-22)
(0.063707 -0.0118757 -1.22685e-24)
(0.0663676 -0.0108993 0)
(0.0688162 -0.00995598 2.46709e-25)
(0.0710629 -0.0090598 0)
(0.0731188 -0.00822049 5.01412e-25)
(0.0749978 -0.00744396 1.63036e-25)
(0.0767123 -0.00673276 2.42831e-25)
(0.0782769 -0.00608682 -1.85997e-23)
(0.0797042 -0.00550419 1.84772e-23)
(0.081007 -0.00498153 0)
(0.0821973 -0.00451457 -9.92488e-24)
(0.0832862 -0.00409854 1.037e-23)
(0.0842838 -0.00372849 0)
(0.0851993 -0.00339952 -5.35122e-26)
(0.0860411 -0.00310698 -1.27647e-23)
(0.0868165 -0.00284658 2.5831e-23)
(0.0875323 -0.0026144 -2.65619e-23)
(0.0881942 -0.00240697 2.76698e-23)
(0.0888076 -0.00222121 -2.86277e-23)
(0.0893772 -0.00205447 1.45277e-23)
(0.089907 -0.00190442 7.67543e-24)
(0.0904007 -0.00176906 -6.70474e-24)
(0.0908617 -0.00164669 -5.04807e-25)
(0.0912929 -0.00153582 -8.09134e-24)
(0.0916969 -0.0014352 1.73403e-23)
(0.0920761 -0.00134374 -8.22342e-24)
(0.0924326 -0.0012605 1.07757e-26)
(0.0927683 -0.00118467 5.19966e-25)
(0.0930851 -0.00111556 -8.48379e-27)
(0.0933844 -0.00105253 -5.25023e-25)
(0.0936677 -0.000994942 1.05881e-24)
(-4.99321e-05 0.000846127 -2.43141e-24)
(0.000938254 -0.000243772 -2.53047e-23)
(0.00342389 -0.00267875 -2.36562e-23)
(0.00663016 -0.00581063 -2.2036e-23)
(0.0103188 -0.00911283 -3.95569e-23)
(0.0143169 -0.0122565 -1.11345e-24)
(0.018496 -0.0150433 1.59272e-23)
(0.0227647 -0.0173596 -1.52085e-23)
(0.0270538 -0.019154 -1.345e-23)
(0.0313084 -0.020421 1.32253e-21)
(0.0354846 -0.0211863 -2.18428e-22)