/*--------------------------------*- C++ -*----------------------------------*\
| =========                 |                                                 |
| \\      /  F ield         | OpenFOAM: The Open Source CFD Toolbox           |
|  \\    /   O peration     | Version:  2412                                  |
|   \\  /    A nd           | Website:  www.openfoam.com                      |
|    \\/     M anipulation  |                                                 |
\*---------------------------------------------------------------------------*/
FoamFile
{
    version     2.0;
    format      ascii;
    arch        "LSB;label=32;scalar=64";
    class       volVectorField;
    location    "7.5";
    object      vorticity;
}
// * * * * * * * * * * * * * * * * * * * * * * * * * * * * * * * * * * * * * //

dimensions      [0 0 -1 0 0 0 0];

internalField   nonuniform List<vector> 
63420
(
(0 0 8.46762e-06)
(0 0 2.95233e-05)
(0 0 4.50203e-05)
(0 0 2.95096e-05)
(0 0 -1.26479e-05)
(0 0 -5.60775e-05)
(0 0 -8.03494e-05)
(0 0 -8.16572e-05)
(0 0 -6.78705e-05)
(0 0 -4.91136e-05)
(0 0 -3.22077e-05)
(0 0 -1.98274e-05)
(0 0 -1.19365e-05)
(0 0 -7.40947e-06)
(0 0 -5.02869e-06)
(0 0 -3.87165e-06)
(0 0 -3.35472e-06)
(0 0 -3.1494e-06)
(0 0 -3.08638e-06)
(0 0 -3.08437e-06)
(0 0 -3.10653e-06)
(0 0 -3.1367e-06)
(0 0 -3.16832e-06)
(0 0 -3.19854e-06)
(0 0 -3.22656e-06)
(0 0 -3.252e-06)
(0 0 -3.27478e-06)
(0 0 -3.29454e-06)
(0 0 -3.31103e-06)
(0 0 -3.32378e-06)
(0 0 -3.33258e-06)
(0 0 -3.33719e-06)
(0 0 -3.33752e-06)
(0 0 -3.33341e-06)
(0 0 -3.32469e-06)
(0 0 -3.3111e-06)
(0 0 -3.29224e-06)
(0 0 -3.26764e-06)
(0 0 -3.23677e-06)
(0 0 -3.19909e-06)
(0 0 -3.15404e-06)
(0 0 -3.10103e-06)
(0 0 -3.03938e-06)
(0 0 -2.96827e-06)
(0 0 -2.88668e-06)
(0 0 -2.79333e-06)
(0 0 -2.68683e-06)
(0 0 -2.56594e-06)
(0 0 -2.43016e-06)
(0 0 -2.27994e-06)
(0 0 -2.11355e-06)
(0 0 -1.90931e-06)
(0 0 -1.55645e-06)
(0 0 -6.24683e-07)
(0 4.85153e-23 2.34113e-06)
(0 0 2.52975e-05)
(0 0 8.78706e-05)
(0 0 0.000134215)
(0 0 8.86486e-05)
(0 0 -3.61855e-05)
(0 0 -0.0001651)
(0 0 -0.000237386)
(0 0 -0.0002416)
(0 0 -0.000200981)
(0 0 -0.000145531)
(0 0 -9.5497e-05)
(0 0 -5.88356e-05)
(0 0 -3.54595e-05)
(0 0 -2.20438e-05)
(0 0 -1.49844e-05)
(0 0 -1.15506e-05)
(0 0 -1.00142e-05)
(0 0 -9.40327e-06)
(0 0 -9.21639e-06)
(0 0 -9.21225e-06)
(0 0 -9.28093e-06)
(0 0 -9.37442e-06)
(0 0 -9.47268e-06)
(0 0 -9.56752e-06)
(0 0 -9.65591e-06)
(0 0 -9.73652e-06)
(0 0 -9.80872e-06)
(0 0 -9.87177e-06)
(0 0 -9.92499e-06)
(0 0 -9.96756e-06)
(0 0 -9.99884e-06)
(0 0 -1.00182e-05)
(0 0 -1.0025e-05)
(0 0 -1.00189e-05)
(0 0 -9.99896e-06)
(0 0 -9.96457e-06)
(0 0 -9.91469e-06)
(0 0 -9.84822e-06)
(0 0 -9.76386e-06)
(0 0 -9.66019e-06)
(0 0 -9.5356e-06)
(0 0 -9.38818e-06)
(0 0 -9.21571e-06)
(0 0 -9.01546e-06)
(0 0 -8.7841e-06)
(0 0 -8.51769e-06)
(0 0 -8.21195e-06)
(0 0 -7.86314e-06)
(0 0 -7.46967e-06)
(0 0 -7.03281e-06)
(0 0 -6.54788e-06)
(0 0 -5.95281e-06)
(0 0 -4.92763e-06)
(0 0 -2.22348e-06)
(0 4.89884e-23 6.39377e-06)
(0 0 4.18456e-05)
(0 0 0.000144403)
(0 0 0.000221472)
(0 0 0.000148727)
(0 0 -5.42575e-05)
(0 0 -0.00026505)
(0 0 -0.000384117)
(0 0 -0.000392182)
(0 0 -0.000326814)
(0 0 -0.000236899)
(0 0 -0.000155548)
(0 0 -9.58557e-05)
(0 0 -5.77599e-05)
(0 0 -3.58828e-05)
(0 0 -2.43654e-05)
(0 0 -1.87613e-05)
(0 0 -1.62537e-05)
(0 0 -1.52572e-05)
(0 0 -1.49538e-05)
(0 0 -1.49494e-05)
(0 0 -1.50644e-05)
(0 0 -1.52203e-05)
(0 0 -1.53842e-05)
(0 0 -1.5543e-05)
(0 0 -1.56913e-05)
(0 0 -1.5827e-05)
(0 0 -1.5949e-05)
(0 0 -1.60561e-05)
(0 0 -1.61472e-05)
(0 0 -1.62214e-05)
(0 0 -1.62774e-05)
(0 0 -1.63143e-05)
(0 0 -1.63312e-05)
(0 0 -1.63272e-05)
(0 0 -1.6301e-05)
(0 0 -1.62514e-05)
(0 0 -1.6177e-05)
(0 0 -1.60759e-05)
(0 0 -1.59464e-05)
(0 0 -1.5786e-05)
(0 0 -1.55922e-05)
(0 0 -1.5362e-05)
(0 0 -1.50916e-05)
(0 0 -1.47766e-05)
(0 0 -1.44116e-05)
(0 0 -1.39901e-05)
(0 0 -1.35054e-05)
(0 0 -1.29513e-05)
(0 0 -1.23257e-05)
(0 0 -1.16311e-05)
(0 0 -1.08623e-05)
(0 0 -9.92706e-06)
(0 0 -8.3342e-06)
(0 0 -4.14075e-06)
(0 2.89249e-22 9.28664e-06)
(0 0 5.79182e-05)
(0 0 0.000198017)
(0 0 0.000305692)
(0 0 0.000210541)
(0 0 -6.32142e-05)
(0 0 -0.000350053)
(0 0 -0.000513951)
(0 0 -0.000527454)
(0 0 -0.000440757)
(0 0 -0.000320007)
(0 0 -0.000210288)
(0 0 -0.000129593)
(0 0 -7.80182e-05)
(0 0 -4.83704e-05)
(0 0 -3.27511e-05)
(0 0 -2.51478e-05)
(0 0 -2.17453e-05)
(0 0 -2.03942e-05)
(0 0 -1.99848e-05)
(0 0 -1.99819e-05)
(0 0 -2.01415e-05)
(0 0 -2.0357e-05)
(0 0 -2.05838e-05)
(0 0 -2.08039e-05)
(0 0 -2.10102e-05)
(0 0 -2.11997e-05)
(0 0 -2.13707e-05)
(0 0 -2.15219e-05)
(0 0 -2.16517e-05)
(0 0 -2.1759e-05)
(0 0 -2.18422e-05)
(0 0 -2.19002e-05)
(0 0 -2.19316e-05)
(0 0 -2.19351e-05)
(0 0 -2.19093e-05)
(0 0 -2.18524e-05)
(0 0 -2.17625e-05)
(0 0 -2.16374e-05)
(0 0 -2.14746e-05)
(0 0 -2.12711e-05)
(0 0 -2.10233e-05)
(0 0 -2.07274e-05)
(0 0 -2.03782e-05)
(0 0 -1.997e-05)
(0 0 -1.94954e-05)
(0 0 -1.8946e-05)
(0 0 -1.83127e-05)
(0 0 -1.75879e-05)
(0 0 -1.67687e-05)
(0 0 -1.58603e-05)
(0 0 -1.48607e-05)
(0 0 -1.36642e-05)
(0 0 -1.16704e-05)
(0 0 -6.44847e-06)
(0 -1.89962e-22 1.04097e-05)
(0 0 7.33313e-05)
(0 0 0.000247742)
(0 0 0.000386016)
(0 0 0.000274973)
(0 0 -5.9614e-05)
(0 0 -0.000414723)
(0 0 -0.000620915)
(0 0 -0.000642056)
(0 0 -0.000538656)
(0 0 -0.00039196)
(0 0 -0.000257827)
(0 0 -0.000158846)
(0 0 -9.54486e-05)
(0 0 -5.89506e-05)
(0 0 -3.97019e-05)
(0 0 -3.03245e-05)
(0 0 -2.61261e-05)
(0 0 -2.44591e-05)
(0 0 -2.39549e-05)
(0 0 -2.39533e-05)
(0 0 -2.41527e-05)
(0 0 -2.44216e-05)
(0 0 -2.47051e-05)
(0 0 -2.4981e-05)
(0 0 -2.52403e-05)
(0 0 -2.54794e-05)
(0 0 -2.56962e-05)
(0 0 -2.58891e-05)
(0 0 -2.60563e-05)
(0 0 -2.61964e-05)
(0 0 -2.63078e-05)
(0 0 -2.6389e-05)
(0 0 -2.64383e-05)
(0 0 -2.64543e-05)
(0 0 -2.6435e-05)
(0 0 -2.63786e-05)
(0 0 -2.62826e-05)
(0 0 -2.61445e-05)
(0 0 -2.59612e-05)
(0 0 -2.57292e-05)
(0 0 -2.54443e-05)
(0 0 -2.51016e-05)
(0 0 -2.46953e-05)
(0 0 -2.42181e-05)
(0 0 -2.36614e-05)
(0 0 -2.30151e-05)
(0 0 -2.22686e-05)
(0 0 -2.14129e-05)
(0 0 -2.04455e-05)
(0 0 -1.93749e-05)
(0 0 -1.82073e-05)
(0 0 -1.68463e-05)
(0 0 -1.46684e-05)
(0 0 -9.03976e-06)
(0 9.37831e-23 9.38821e-06)
(0 0 8.79005e-05)
(0 0 0.00029284)
(0 0 0.000461858)
(0 0 0.000342898)
(0 0 -4.05222e-05)
(0 0 -0.0004546)
(0 0 -0.000700131)
(0 0 -0.000731637)
(0 0 -0.00061715)
(0 0 -0.000450409)
(0 0 -0.000296622)
(0 0 -0.000182616)
(0 0 -0.000109381)
(0 0 -6.71322e-05)
(0 0 -4.48161e-05)
(0 0 -3.39308e-05)
(0 0 -2.90516e-05)
(0 0 -2.71114e-05)
(0 0 -2.65227e-05)
(0 0 -2.65188e-05)
(0 0 -2.67494e-05)
(0 0 -2.70615e-05)
(0 0 -2.73914e-05)
(0 0 -2.77132e-05)
(0 0 -2.80166e-05)
(0 0 -2.82974e-05)
(0 0 -2.85531e-05)
(0 0 -2.87818e-05)
(0 0 -2.89819e-05)
(0 0 -2.91515e-05)
(0 0 -2.9289e-05)
(0 0 -2.93927e-05)
(0 0 -2.94608e-05)
(0 0 -2.94915e-05)
(0 0 -2.94828e-05)
(0 0 -2.94324e-05)
(0 0 -2.93378e-05)
(0 0 -2.91959e-05)
(0 0 -2.90035e-05)
(0 0 -2.87564e-05)
(0 0 -2.845e-05)
(0 0 -2.80789e-05)
(0 0 -2.76363e-05)
(0 0 -2.71142e-05)
(0 0 -2.6503e-05)
(0 0 -2.57916e-05)
(0 0 -2.49681e-05)
(0 0 -2.40229e-05)
(0 0 -2.29544e-05)
(0 0 -2.17754e-05)
(0 0 -2.05062e-05)
(0 0 -1.9086e-05)
(0 0 -1.69776e-05)
(0 0 -1.17178e-05)
(0 4.62736e-22 5.95076e-06)
(0 0 0.000101533)
(0 0 0.000332845)
(0 0 0.000532868)
(0 0 0.000414916)
(0 0 -4.00196e-06)
(0 0 -0.000466766)
(0 0 -0.000748416)
(0 0 -0.000793363)
(0 0 -0.000674048)
(0 0 -0.000493817)
(0 0 -0.000325654)
(0 0 -0.000200234)
(0 0 -0.000119356)
(0 0 -7.25704e-05)
(0 0 -4.78047e-05)
(0 0 -3.57015e-05)
(0 0 -3.02647e-05)
(0 0 -2.8095e-05)
(0 0 -2.74298e-05)
(0 0 -2.74164e-05)
(0 0 -2.76651e-05)
(0 0 -2.80059e-05)
(0 0 -2.83675e-05)
(0 0 -2.87213e-05)
(0 0 -2.90559e-05)
(0 0 -2.93665e-05)
(0 0 -2.96503e-05)
(0 0 -2.99056e-05)
(0 0 -3.01303e-05)
(0 0 -3.03226e-05)
(0 0 -3.04809e-05)
(0 0 -3.06032e-05)
(0 0 -3.06877e-05)
(0 0 -3.07325e-05)
(0 0 -3.07354e-05)
(0 0 -3.06939e-05)
(0 0 -3.06054e-05)
(0 0 -3.04665e-05)
(0 0 -3.02737e-05)
(0 0 -3.00225e-05)
(0 0 -2.97081e-05)
(0 0 -2.93243e-05)
(0 0 -2.88643e-05)
(0 0 -2.83193e-05)
(0 0 -2.76792e-05)
(0 0 -2.69322e-05)
(0 0 -2.60661e-05)
(0 0 -2.50711e-05)
(0 0 -2.39466e-05)
(0 0 -2.2711e-05)
(0 0 -2.14024e-05)
(0 0 -2.0022e-05)
(0 0 -1.82441e-05)
(0 0 -1.42842e-05)
(0 -9.05617e-23 -3.5991e-07)
(-1.50636e-23 8.02722e-21 -2.74172e-07)
(-1.56497e-22 7.88907e-21 -2.4891e-06)
(3.72596e-23 -2.09971e-22 -5.96099e-06)
(3.36132e-23 -2.35716e-20 -1.10253e-05)
(-9.90707e-23 8.06673e-21 -1.79369e-05)
(3.92274e-22 7.92139e-21 -2.67584e-05)
(-8.45451e-22 2.30722e-20 -3.72653e-05)
(3.29168e-22 -2.34687e-20 -4.88638e-05)
(6.65315e-22 -7.54143e-21 -6.0579e-05)
(-9.57336e-22 -3.8942e-24 -7.11254e-05)
(-9.60987e-22 -7.56955e-21 -7.90609e-05)
(8.42985e-22 7.17412e-21 -8.30055e-05)
(5.74617e-22 -5.92948e-20 -8.18789e-05)
(-1.04607e-21 1.27449e-19 -7.51027e-05)
(3.43884e-22 -6.86704e-20 -6.27147e-05)
(-1.33348e-21 -5.18024e-20 -4.54256e-05)
(2.45979e-21 -6.59353e-20 -2.44354e-05)
(-1.95646e-21 7.80785e-21 -1.40143e-06)
(-2.10652e-22 -7.26939e-21 2.21116e-05)
(8.75993e-23 7.2852e-21 4.4444e-05)
(-3.32554e-24 -1.36021e-22 6.42841e-05)
(-8.29211e-23 -7.0373e-21 8.06319e-05)
(-2.11131e-21 7.11284e-21 9.29021e-05)
(4.44035e-21 1.35924e-23 0.000100862)
(1.307e-21 6.92081e-21 0.000104557)
(-3.45806e-21 -5.6468e-24 0.000104216)
(4.98745e-21 8.10669e-21 0.000100151)
(-5.72065e-21 1.04764e-19 9.26809e-05)
(5.97521e-22 -1.12553e-19 8.20558e-05)
(-2.12778e-21 1.03136e-19 6.84135e-05)
(2.06984e-21 -1.0435e-19 5.17334e-05)
(5.11806e-23 1.41525e-21 3.17834e-05)
(-6.6734e-23 -1.74054e-21 8.02347e-06)
(2.76743e-21 -9.94133e-20 -2.05983e-05)
(-9.00437e-21 9.65706e-20 -5.60785e-05)
(-3.40966e-22 -1.63611e-21 -0.000102244)
(6.57071e-21 1.43708e-23 -0.000166484)
(7.1633e-21 1.56668e-23 -0.000262959)
(-7.14038e-21 -1.56167e-23 -0.000418197)
(-2.37431e-22 -5.19285e-25 -0.000680147)
(-2.48134e-22 -5.42694e-25 -0.00113162)
(-8.57342e-21 -1.87509e-23 -0.00190814)
(8.27514e-21 1.80986e-23 -0.00321838)
(-2.7455e-22 1.63814e-22 -0.00536235)
(-1.30904e-23 8.46965e-21 -0.00873897)
(-2.6571e-20 5.46499e-20 -0.0138317)
(2.55842e-20 -7.21741e-20 -0.0211573)
(-6.1305e-21 -1.03283e-20 -0.0311629)
(6.73185e-21 2.82435e-20 -0.0440636)
(-2.21814e-20 -6.1939e-21 -0.0595239)
(-2.71336e-22 8.04429e-21 -1.07012e-06)
(-1.01861e-22 1.58173e-20 -7.65227e-06)
(3.35735e-22 7.69048e-21 -1.79889e-05)
(-9.36491e-22 -7.90478e-21 -3.30825e-05)
(1.73633e-21 7.5263e-21 -5.3691e-05)
(-5.69041e-22 -5.40312e-20 -8.00237e-05)
(-1.70255e-22 8.58705e-20 -0.000111421)
(-6.48803e-23 -9.02226e-21 -0.000146154)
(2.23069e-21 -9.89003e-20 -0.000181377)
(-2.28159e-21 1.39819e-19 -0.000213329)
(-7.41954e-22 1.27669e-19 -0.000237785)
(5.33313e-22 -1.15008e-19 -0.000250698)
(-4.17372e-22 7.83876e-22 -0.000248896)
(2.96893e-21 -7.3216e-21 -0.000230672)
(-2.27867e-21 2.45042e-20 -0.000196149)
(-5.88554e-21 2.42517e-19 -0.00014732)
(1.27969e-21 -2.28375e-19 -8.79319e-05)
(-5.44358e-21 2.44847e-19 -2.24389e-05)
(-2.63046e-22 1.97348e-20 4.41462e-05)
(-4.07112e-21 -7.45279e-21 0.000107317)
(4.29217e-21 1.53495e-22 0.000163039)
(-4.28995e-21 9.35827e-21 0.00020839)
(1.63931e-21 2.13781e-19 0.000241644)
(5.09774e-21 -4.53534e-19 0.000262086)
(4.13174e-21 -2.16895e-19 0.000269802)
(-6.19758e-21 4.39168e-19 0.000265401)
(2.55832e-21 -4.39183e-19 0.000249738)
(-7.54792e-22 4.50836e-19 0.000223661)
(3.48306e-21 1.32581e-21 0.000187823)
(-3.92786e-21 -1.02902e-22 0.000142528)
(-1.31946e-21 -2.88579e-24 8.76033e-05)
(0 0 2.22407e-05)
(1.95293e-22 1.01362e-22 -5.53005e-05)
(1.17039e-20 1.29331e-20 -0.000148316)
(-1.4821e-20 3.73241e-19 -0.000262974)
(-1.65982e-20 -2.45404e-20 -0.000411017)
(1.77401e-20 -3.69258e-19 -0.000615039)
(2.60239e-20 -3.20385e-19 -0.000918252)
(-7.72242e-21 3.42735e-19 -0.00140148)
(-3.31492e-20 2.15766e-21 -0.0022106)
(3.26534e-20 1.8417e-20 -0.00359709)
(-4.2727e-20 2.47915e-19 -0.00597171)
(2.2093e-20 -2.58157e-19 -0.00996571)
(-1.93794e-20 1.56886e-20 -0.0164849)
(2.15687e-20 8.43515e-21 -0.0267318)
(-6.3603e-20 1.22109e-19 -0.0421622)
(6.35583e-20 -1.19474e-19 -0.064329)
(-9.94236e-20 9.00506e-20 -0.0945565)
(9.59206e-20 -1.00615e-19 -0.133418)
(-2.04587e-20 -6.91859e-22 -0.178403)
(6.0526e-24 4.76186e-20 -1.94949e-06)
(-7.8316e-23 1.50225e-20 -1.27857e-05)
(3.46221e-22 -6.23395e-20 -2.98585e-05)
(-7.15629e-22 1.2409e-19 -5.48037e-05)
(1.59554e-21 -2.65863e-19 -8.88566e-05)
(5.65609e-22 1.26551e-19 -0.00013237)
(-2.61448e-21 -9.31761e-22 -0.000184349)
(1.64961e-21 -1.73062e-20 -0.000242085)
(1.18688e-21 -2.59699e-19 -0.000301084)
(1.18104e-21 2.47681e-19 -0.000355384)
(-9.1739e-22 -1.74018e-21 -0.00039827)
(-4.48698e-21 -1.66609e-23 -0.000423299)
(7.13263e-21 -1.97328e-21 -0.000425414)
(-4.87391e-21 -2.53992e-19 -0.000401879)
(6.0836e-21 2.31226e-19 -0.00035285)
(-1.08026e-20 4.59441e-19 -0.000281539)
(-5.31495e-21 -1.26498e-20 -0.000193702)
(-3.51202e-21 4.73234e-19 -9.67137e-05)
(3.94027e-22 -1.438e-20 1.83203e-06)
(-1.14541e-20 4.60726e-19 9.45167e-05)
(1.13044e-20 -4.78698e-19 0.000174963)
(-7.92119e-21 4.58159e-19 0.000238465)
(6.38469e-22 -4.76758e-19 0.000282177)
(5.49068e-21 -9.32038e-21 0.000304829)
(-2.68375e-21 1.40032e-20 0.000306387)
(5.81586e-21 -8.84311e-21 0.000287613)
(-1.79372e-20 4.32057e-19 0.000249629)
(1.58613e-20 -4.61102e-19 0.000193518)
(1.72673e-20 -4.28928e-19 0.000120014)
(-1.38347e-20 4.31478e-19 2.92644e-05)
(-1.15175e-21 -5.49835e-21 -7.93853e-05)
(1.19332e-20 -1.29153e-22 -0.000207667)
(-1.37573e-20 -2.60029e-20 -0.000358894)
(5.08046e-20 -7.90929e-19 -0.000539027)
(1.74962e-20 5.74845e-20 -0.000758939)
(-6.87999e-20 7.46461e-19 -0.00103903)
(4.23484e-21 -1.31612e-20 -0.00141829)
(-1.21191e-20 -5.51877e-21 -0.00197098)
(1.10137e-19 -6.32791e-19 -0.00283567)
(-2.04151e-19 1.24597e-18 -0.00426184)
(2.08366e-19 -1.24376e-18 -0.00667841)
(7.72398e-20 8.87594e-20 -0.010784)
(-1.61661e-19 5.48235e-19 -0.0176487)
(-1.72307e-19 3.80987e-19 -0.0288046)
(1.62247e-19 -4.52534e-19 -0.0462825)
(-2.42897e-20 2.11569e-20 -0.0725415)
(6.00843e-20 -1.90094e-20 -0.110205)
(1.7923e-19 -1.11586e-19 -0.161473)
(-1.94138e-19 1.74476e-19 -0.227106)
(-2.76796e-20 -4.48476e-20 -0.297953)
(3.93753e-22 -3.13906e-20 -2.99859e-06)
(-3.75444e-22 1.58931e-20 -1.8057e-05)
(7.49343e-22 -1.84722e-22 -4.18307e-05)
(-6.84092e-22 -1.56329e-20 -7.65009e-05)
(-1.0428e-21 -1.55431e-21 -0.000123726)
(3.1878e-21 -2.45351e-19 -0.000184031)
(-4.26742e-21 4.65053e-19 -0.000256195)
(2.02755e-21 -2.50625e-19 -0.000336771)
(-1.92507e-21 1.51018e-20 -0.000419969)
(4.58657e-21 -2.74435e-19 -0.000498054)
(-5.71688e-21 2.50831e-19 -0.000562288)
(-3.04669e-21 4.78197e-19 -0.000604259)
(8.722e-21 -9.68579e-19 -0.000617341)
(-1.07959e-20 9.68301e-19 -0.000597927)
(1.50351e-20 -9.64414e-19 -0.000546179)
(-8.49153e-21 9.57092e-19 -0.000466221)
(-8.63826e-21 4.86327e-19 -0.000365606)
(-7.3805e-22 -4.03843e-21 -0.0002538)
(4.82241e-21 4.18153e-21 -0.000140826)
(-5.87141e-21 4.5042e-19 -3.63639e-05)
(-4.46755e-21 -4.73426e-19 5.11573e-05)
(1.58013e-20 1.36126e-20 0.000115426)
(-3.07097e-20 9.11148e-19 0.000152487)
(2.20602e-20 -9.14942e-19 0.00016036)
(2.35052e-21 -5.10301e-21 0.000138605)
(-1.04308e-20 -8.564e-23 8.77485e-05)
(1.57139e-20 -1.38731e-20 8.71129e-06)
(-5.13867e-21 1.3179e-22 -9.77055e-05)
(-5.67095e-21 -5.55257e-23 -0.000231231)
(5.37399e-21 2.09063e-22 -0.000392451)
(-3.85746e-21 1.06598e-21 -0.000583104)
(6.0145e-20 -8.17596e-19 -0.000806472)
(-5.38656e-20 8.41654e-19 -0.00106811)
(-1.70761e-20 -1.44366e-22 -0.0013774)
(1.97815e-20 -1.02866e-20 -0.00175075)
(-9.65942e-20 7.5655e-19 -0.00221836)
(1.1467e-19 -7.6067e-19 -0.0028372)
(-2.45437e-20 2.62304e-21 -0.00371524)
(1.72818e-20 -7.37129e-23 -0.00505334)
(4.10279e-20 7.2643e-21 -0.00721247)
(-2.56213e-19 5.75637e-19 -0.010812)
(3.74809e-19 -1.17086e-18 -0.0168585)
(-1.82826e-19 5.94744e-19 -0.0268909)
(2.74729e-19 -4.59093e-19 -0.0431106)
(-2.64997e-19 5.42303e-19 -0.0684432)
(-6.32683e-19 5.6265e-19 -0.106459)
(1.19844e-18 -1.19757e-18 -0.16102)
(-5.8939e-19 6.07193e-19 -0.235374)
(2.0612e-20 -2.45477e-21 -0.330284)
(5.00021e-21 -3.83334e-20 -0.421648)
(-7.70453e-22 1.59834e-20 -4.25826e-06)
(-1.94845e-22 6.10573e-20 -2.3903e-05)
(1.82073e-21 -1.85596e-19 -5.48029e-05)
(-9.89525e-22 2.49253e-19 -9.94552e-05)
(-4.79922e-22 -1.10482e-19 -0.000159826)
(9.51743e-23 -1.47104e-20 -0.000236645)
(-4.81998e-22 1.55707e-20 -0.000328637)
(3.25141e-21 -2.01428e-22 -0.00043193)
(-3.13256e-21 -1.52125e-20 -0.000539887)
(-5.55328e-21 3.43653e-20 -0.000643559)
(-5.95793e-21 4.86455e-19 -0.00073277)
(1.82039e-20 -5.05831e-19 -0.000797685)
(-2.25939e-20 4.72345e-19 -0.000830521)
(1.844e-20 -4.91538e-19 -0.00082701)
(-3.22066e-21 3.64355e-21 -0.000787277)
(1.17476e-20 5.3256e-23 -0.000716101)
(4.47627e-21 3.97279e-21 -0.000622303)
(-2.97764e-21 4.60374e-19 -0.000516979)
(1.88056e-20 -4.98603e-19 -0.000411892)
(6.84906e-21 2.80289e-20 -0.000318536)
(-4.25642e-20 9.5179e-19 -0.000247055)
(2.48546e-20 -9.55318e-19 -0.00020521)
(1.09482e-20 2.34879e-20 -0.000198135)
(-1.9252e-20 -2.48858e-22 -0.00022879)
(1.25973e-20 1.02753e-20 -0.000298464)
(-3.40175e-20 9.19636e-19 -0.000407448)
(2.69792e-20 -9.11776e-19 -0.000555709)
(3.02503e-21 1.02592e-20 -0.000743496)
(1.04301e-20 2.80128e-20 -0.000971838)
(-1.22755e-20 -5.86083e-22 -0.00124295)
(1.13507e-21 -1.34332e-20 -0.00156061)
(-3.9682e-20 1.36565e-20 -0.00193067)
(3.76186e-20 1.30358e-20 -0.00236203)
(-3.51738e-21 -2.65828e-20 -0.00286861)
(7.7369e-20 -7.67852e-19 -0.00347365)
(-6.74624e-20 7.91288e-19 -0.00421836)
(2.63539e-19 -1.52976e-18 -0.00517925)
(-2.39319e-19 1.54493e-18 -0.00650004)
(3.01572e-19 -1.45418e-18 -0.00844736)
(7.71653e-20 1.36032e-19 -0.0115003)
(-3.50008e-19 1.38903e-18 -0.0164817)
(-1.30763e-19 -2.41917e-20 -0.0247297)
(1.77509e-20 3.80278e-22 -0.0382942)
(-2.00748e-20 5.72124e-22 -0.060121)
(5.92525e-20 1.78343e-21 -0.0941709)
(2.88804e-20 1.4633e-20 -0.145406)
(-1.23834e-19 5.54121e-21 -0.219477)
(7.06613e-20 5.41583e-21 -0.321559)
(-1.81342e-22 -3.40432e-22 -0.452956)
(3.94362e-20 7.00478e-22 -0.560693)
(-6.04284e-22 7.69145e-20 -6.00941e-06)
(1.68647e-21 -4.69462e-20 -3.16853e-05)
(-1.83163e-21 -1.6622e-20 -7.11209e-05)
(4.52164e-21 -2.29945e-19 -0.000126691)
(-1.95367e-21 2.31932e-19 -0.00020065)
(1.62635e-21 -2.29517e-19 -0.000294013)
(-1.05284e-20 5.06254e-19 -0.000405675)
(1.05241e-20 -7.0953e-19 -0.000531713)
(-6.66047e-21 5.02274e-19 -0.000665164)
(-4.71419e-21 4.89314e-19 -0.000796494)
(-2.13272e-21 3.59666e-21 -0.000914765)
(2.24487e-20 -9.61759e-19 -0.00100934)
(-1.86166e-20 1.00196e-18 -0.00107175)
(3.41922e-21 -4.72005e-19 -0.00109731)
(1.04182e-20 -4.74222e-19 -0.0010861)
(2.10363e-20 -4.6696e-19 -0.00104327)
(-2.96907e-21 7.17818e-21 -0.00097845)
(3.50567e-20 -9.69214e-19 -0.000903862)
(2.51799e-20 -9.31099e-19 -0.000832395)
(6.7257e-21 2.16031e-20 -0.000776931)
(-2.14978e-20 9.68225e-19 -0.000749078)
(-2.14851e-20 -8.62957e-21 -0.000758001)
(1.31154e-20 9.54212e-21 -0.000810224)
(-4.61393e-20 9.40449e-19 -0.000910122)
(3.61044e-20 -9.56543e-19 -0.00106048)
(6.90831e-20 -9.1909e-19 -0.0012632)
(-7.03766e-20 9.50585e-19 -0.00152011)
(1.60718e-20 -2.13383e-20 -0.00183358)
(6.24409e-20 -9.1978e-19 -0.00220714)
(-9.19938e-20 9.44098e-19 -0.00264597)
(4.66442e-21 1.31928e-20 -0.00315732)
(-1.98713e-19 1.73435e-18 -0.00375123)
(1.77286e-19 -1.80108e-18 -0.00444159)
(5.20088e-20 6.5871e-20 -0.00524863)
(-2.58781e-19 1.64943e-18 -0.00620393)
(2.34675e-19 -1.72167e-18 -0.00736096)
(-3.39381e-20 -3.68694e-21 -0.00881608)
(4.73414e-19 -1.56011e-18 -0.010748)
(-4.41222e-19 1.61316e-18 -0.0134872)
(-7.20464e-20 -7.7881e-20 -0.0176295)
(6.96424e-19 -1.37203e-18 -0.0242038)
(-1.21878e-18 2.84045e-18 -0.0348964)
(-7.57818e-20 -1.60087e-19 -0.0523119)
(-1.02239e-19 -1.24295e-19 -0.0802363)
(8.0777e-19 -1.25053e-18 -0.123868)
(4.32889e-20 6.8959e-20 -0.190022)
(-9.41147e-19 8.42617e-19 -0.287341)
(9.22266e-19 -9.27432e-19 -0.425922)
(1.0633e-20 3.17607e-20 -0.61265)
(1.03501e-20 -3.00434e-21 -0.74288)
(6.20722e-22 -1.60755e-20 -8.74134e-06)
(1.46314e-21 -1.36658e-19 -4.49361e-05)
(-1.63061e-21 1.23345e-19 -9.54403e-05)
(-1.41063e-21 -1.75049e-20 -0.000163304)
(5.09166e-21 -2.28597e-19 -0.000251215)
(-4.64625e-21 2.35496e-19 -0.000360683)
(-4.74639e-21 4.75338e-19 -0.000490991)
(-5.42666e-21 -1.96795e-20 -0.000638511)
(2.52224e-21 -4.64584e-21 -0.000796447)
(1.3659e-20 -5.07136e-19 -0.000955285)
(-1.05322e-20 4.74856e-19 -0.00110397)
(1.43826e-20 -1.00524e-18 -0.00123167)
(-1.96286e-21 5.02994e-19 -0.00132966)
(-3.99693e-21 -1.91277e-20 -0.00139306)
(-5.3051e-21 -2.30555e-20 -0.00142183)
(2.38651e-20 -9.88496e-19 -0.00142108)
(-1.38342e-21 -1.98899e-20 -0.00140059)
(2.20746e-20 -1.00748e-18 -0.001373)
(-5.89188e-21 -7.4299e-21 -0.00135173)
(-1.77133e-22 1.27669e-22 -0.0013501)
(1.22367e-20 9.01415e-21 -0.00138042)
(-4.76939e-20 9.7238e-19 -0.00145261)
(4.15296e-20 -9.94085e-19 -0.00157395)
(1.36431e-20 8.9123e-21 -0.00174964)
(-9.44104e-21 -1.52692e-20 -0.0019832)
(-6.58649e-21 1.05748e-20 -0.00227726)
(-6.85279e-20 9.42594e-19 -0.00263422)
(1.48361e-19 -1.92572e-18 -0.00305681)
(-6.95184e-20 1.0065e-18 -0.00354861)
(-1.8064e-19 1.86612e-18 -0.00411427)
(-3.12926e-20 -4.52208e-20 -0.00475972)
(4.13973e-21 -2.47709e-20 -0.00549239)
(-6.91952e-20 -5.38722e-20 -0.00632178)
(2.47616e-19 -1.87381e-18 -0.00726109)
(3.93947e-19 -1.73728e-18 -0.00833139)
(-3.48017e-19 1.82615e-18 -0.00957144)
(-3.65005e-20 -5.90439e-20 -0.0110587)
(4.68265e-19 -1.67136e-18 -0.0129515)
(-4.07914e-19 1.7737e-18 -0.0155663)
(-6.76839e-19 1.57941e-18 -0.0195105)
(5.68689e-19 -1.67132e-18 -0.0258874)
(8.442e-20 -1.21327e-20 -0.0365849)
(9.03921e-19 -1.49355e-18 -0.0546324)
(1.39418e-19 1.2357e-19 -0.0845899)
(-1.05726e-18 1.47106e-18 -0.13294)
(-1.8056e-20 -4.32594e-20 -0.208538)
(3.6794e-20 5.77332e-22 -0.323903)
(-3.7493e-20 1.66651e-20 -0.500431)
(-5.6104e-19 5.87429e-19 -0.778818)
(5.51973e-19 -5.9707e-19 -1.07963)
(-9.85982e-21 -2.75912e-21 0.00547824)
(-8.46229e-21 8.63911e-22 -0.00331739)
(7.88095e-21 7.25467e-21 -0.0103156)
(-8.24286e-21 -5.70649e-21 -0.01564)
(8.68907e-21 -2.10658e-21 -0.0194302)
(-2.0577e-22 2.29065e-21 -0.0218583)
(-1.18435e-22 -7.12924e-23 -0.0231176)
(-3.26748e-21 7.1463e-24 -0.023409)
(3.1693e-21 -6.93157e-24 -0.0229299)
(-8.0692e-23 1.76481e-25 -0.0218661)
(-6.77719e-23 1.48224e-25 -0.0203857)
(1.55362e-21 -3.39792e-24 -0.0186356)
(-1.55861e-21 3.40884e-24 -0.0167396)
(-9.7091e-22 2.12348e-24 -0.0147985)
(2.35136e-22 -1.38765e-22 -0.0128908)
(3.73546e-21 5.87686e-20 -0.0110753)
(-2.67275e-21 -5.47453e-20 -0.00939281)
(-6.87899e-24 -1.30992e-22 -0.00786924)
(-1.0865e-24 3.0044e-23 -0.00651775)
(-2.17219e-21 -7.76782e-20 -0.00534145)
(2.17843e-21 7.77861e-20 -0.00433543)
(-1.5589e-21 -7.99748e-20 -0.00348919)
(2.41681e-22 5.44849e-21 -0.00278782)
(-4.43559e-23 4.01242e-25 -0.00221449)
(1.99034e-22 5.83758e-21 -0.00175227)
(-9.92628e-24 3.94488e-25 -0.00138521)
(-3.32552e-23 7.27324e-26 -0.00109559)
(1.79345e-23 -7.4385e-25 -0.000868825)
(1.15516e-22 6.4228e-21 -0.0006923)
(-2.02667e-24 1.73579e-24 -0.000555194)
(-9.42713e-23 -6.65031e-21 -0.000448541)
(8.28232e-23 6.74994e-21 -0.000365122)
(-3.51718e-23 -6.8556e-21 -0.000299263)
(2.68504e-22 6.26251e-20 -0.0002466)
(-3.11656e-22 -6.27838e-20 -0.000203839)
(-1.95903e-22 -4.98609e-20 -0.000168538)
(4.32707e-22 1.07334e-19 -0.000138905)
(-2.35063e-22 -5.75551e-20 -0.000113641)
(-8.20974e-23 -7.30776e-21 -9.18065e-05)
(7.46533e-23 7.34876e-21 -7.27196e-05)
(3.14806e-23 -2.1225e-25 -5.58806e-05)
(-6.09023e-24 7.47594e-21 -4.09166e-05)
(-1.12497e-22 -3.76576e-20 -2.75406e-05)
(1.24921e-22 3.77533e-20 -1.55239e-05)
(-5.17688e-23 -7.61124e-21 -4.67479e-06)
(5.48103e-23 2.30154e-20 5.17812e-06)
(-2.12612e-23 -7.66493e-21 1.42039e-05)
(-4.26809e-23 -1.55209e-20 2.25914e-05)
(2.08156e-23 7.77822e-21 3.05753e-05)
(-1.37821e-23 -7.83293e-21 3.84461e-05)
(-1.44754e-20 2.28631e-20 0.0148306)
(1.4778e-20 -1.69046e-20 -0.0113907)
(-9.50346e-21 -1.22692e-20 -0.0321403)
(-8.85859e-21 1.72347e-21 -0.0477403)
(8.19244e-21 -6.80017e-22 -0.0586746)
(-9.03793e-21 5.50917e-21 -0.0655237)
(7.19719e-21 2.31524e-21 -0.0689123)
(-2.58263e-20 -6.73565e-20 -0.0694668)
(3.17665e-20 5.85011e-20 -0.0677893)
(-1.28856e-20 4.18756e-22 -0.0644378)
(7.97598e-21 -5.67826e-21 -0.0599112)
(3.4486e-20 1.5276e-19 -0.0546401)
(-3.93256e-20 -1.48657e-19 -0.0489835)
(-3.72531e-20 -1.99479e-19 -0.0432305)
(3.48278e-21 -2.38457e-20 -0.0376048)
(3.55439e-20 2.20518e-19 -0.0322712)
(-1.62969e-21 -3.07655e-21 -0.0273434)
(-1.26227e-21 -8.62868e-21 -0.0228916)
(1.43463e-24 -1.27832e-23 -0.0189502)
(2.80104e-23 -6.12616e-26 -0.0155248)
(1.1429e-22 5.35916e-25 -0.0125991)
(-3.59391e-22 -5.31246e-21 -0.0101401)
(1.83253e-20 3.41537e-19 -0.00810325)
(-2.01886e-20 -3.70118e-19 -0.0064427)
(1.57924e-20 3.75021e-19 -0.00510113)
(-8.78288e-21 -1.86075e-19 -0.00403511)
(-1.37488e-20 -3.95887e-19 -0.00319491)
(6.47989e-21 2.00367e-19 -0.00253719)
(-5.77973e-23 -6.42432e-21 -0.00202502)
(-4.93209e-22 -1.31551e-20 -0.00162692)
(1.73087e-22 6.67001e-21 -0.0013169)
(-4.33043e-22 -2.03698e-20 -0.00107408)
(3.53007e-21 2.13974e-19 -0.000882043)
(-7.33657e-21 -4.51487e-19 -0.000728192)
(3.30101e-21 2.16652e-19 -0.000603024)
(-2.3394e-22 -2.12611e-20 -0.000499489)
(-2.66454e-23 7.16283e-21 -0.000412424)
(1.31784e-23 3.85419e-23 -0.000338079)
(-1.26878e-21 -1.24454e-19 -0.000273742)
(1.08374e-21 1.09909e-19 -0.000217441)
(8.78368e-22 1.04144e-19 -0.000167729)
(-1.24534e-21 -1.41482e-19 -0.000123522)
(5.48876e-23 7.45735e-21 -8.39833e-05)
(2.14959e-22 3.79669e-20 -4.84457e-05)
(-4.53397e-22 -6.83463e-20 -1.63493e-05)
(-1.13116e-22 -7.65744e-21 1.28083e-05)
(-2.64839e-22 -5.39356e-20 3.95243e-05)
(-8.6025e-23 -7.86989e-21 6.43599e-05)
(9.5828e-23 1.54712e-20 8.80339e-05)
(1.06035e-22 2.34329e-20 0.000111495)
(-1.47515e-20 -4.38413e-22 0.0189758)
(1.02652e-20 -9.02908e-22 -0.0240784)
(1.0526e-20 1.3563e-20 -0.0577528)
(-3.94393e-20 -1.19257e-20 -0.0824239)
(1.57999e-20 8.46674e-21 -0.0991499)
(-6.4017e-20 -8.94658e-20 -0.109117)
(7.266e-20 6.6177e-20 -0.113494)
(1.16986e-19 1.68627e-19 -0.11339)
(-1.01079e-20 6.47009e-20 -0.109832)
(-2.31114e-19 -4.50777e-19 -0.103747)
(2.55946e-19 5.30303e-19 -0.0959437)
(-1.29642e-19 -2.74658e-19 -0.0871028)
(2.30414e-22 -1.03239e-20 -0.0777822)
(-1.28804e-21 -1.90203e-21 -0.0684214)
(1.24157e-19 4.75761e-19 -0.059354)
(-9.56272e-21 3.57011e-20 -0.0508204)
(-1.11745e-19 -5.01645e-19 -0.0429819)
(4.48415e-21 1.63852e-20 -0.0359332)
(-9.82654e-22 3.39383e-23 -0.0297157)
(1.4643e-23 -1.49349e-22 -0.0243284)
(3.89983e-20 3.39665e-19 -0.0197376)
(-3.77249e-20 -3.2878e-19 -0.0158861)
(-3.14847e-20 -3.54386e-19 -0.0127035)
(3.32146e-20 3.77269e-19 -0.0101065)
(9.95482e-22 1.20989e-20 -0.00802053)
(-9.21791e-22 -1.23119e-20 -0.00635472)
(6.93316e-22 1.2648e-20 -0.00504383)
(-1.86996e-20 -4.00407e-19 -0.00401773)
(1.96618e-20 4.13722e-19 -0.00321812)
(-1.51813e-20 -4.00703e-19 -0.00259573)
(1.62739e-20 4.27683e-19 -0.00211005)
(3.57152e-22 1.36063e-20 -0.00172857)
(1.19976e-20 4.44611e-19 -0.00142583)
(-2.30172e-20 -8.8037e-19 -0.00118232)
(1.17041e-20 4.63768e-19 -0.000983346)
(4.70446e-21 2.43541e-19 -0.00081803)
(-4.13113e-21 -2.14936e-19 -0.000678423)
(-2.76245e-22 -5.66377e-23 -0.000558754)
(8.31316e-23 -1.68152e-23 -0.00045485)
(4.84534e-23 -7.55221e-23 -0.000363677)
(3.04964e-21 2.38099e-19 -0.000283)
(-3.04677e-21 -2.23347e-19 -0.000211139)
(1.39018e-22 1.49633e-20 -0.000146794)
(9.31445e-23 -4.55826e-23 -8.89151e-05)
(1.11407e-21 1.21891e-19 -3.66188e-05)
(-2.2227e-21 -2.29145e-19 1.08949e-05)
(1.1346e-21 1.22543e-19 5.4426e-05)
(-5.67833e-22 -6.17909e-20 9.48976e-05)
(4.13744e-22 4.63223e-20 0.000133555)
(1.05458e-22 1.55308e-20 0.000172239)
(1.45506e-21 2.6302e-20 0.013773)
(8.5899e-21 -5.12716e-20 -0.0453266)
(4.81677e-20 1.02658e-19 -0.0902613)
(-1.68906e-19 -1.59422e-19 -0.121702)
(1.36228e-19 5.01519e-20 -0.141858)
(1.03572e-19 1.52556e-19 -0.152785)
(-1.22386e-19 -1.22708e-19 -0.156335)
(1.42429e-19 2.09483e-19 -0.154156)
(-3.18032e-19 -4.55867e-19 -0.147709)
(1.94311e-19 2.3393e-19 -0.138257)
(-1.08802e-20 1.22881e-20 -0.126869)
(-6.42899e-21 7.85785e-22 -0.114419)
(9.41572e-21 8.74872e-21 -0.1016)
(-1.83176e-19 -4.7891e-19 -0.0889466)
(1.72501e-19 4.59006e-19 -0.0768491)
(2.04846e-21 1.92767e-20 -0.0655805)
(-4.65777e-22 -9.59409e-21 -0.0553142)
(1.39291e-19 6.18533e-19 -0.0461437)
(-1.39381e-19 -6.16427e-19 -0.038098)
(-1.90519e-21 -1.15393e-20 -0.0311569)
(-1.412e-22 -1.37522e-23 -0.025263)
(5.45639e-22 2.25518e-22 -0.0203318)
(7.90338e-23 -2.93281e-24 -0.0162667)
(1.06352e-21 1.20217e-20 -0.01296)
(6.78597e-22 1.4361e-22 -0.0103032)
(9.15153e-22 1.26564e-20 -0.00818898)
(-6.14138e-20 -8.38756e-19 -0.00652199)
(6.09494e-20 8.26122e-19 -0.00521727)
(-3.68223e-22 2.81807e-22 -0.00419954)
(-2.20014e-20 -4.33161e-19 -0.00340584)
(2.32493e-20 4.4689e-19 -0.00278466)
(-1.47128e-22 1.03514e-22 -0.00229481)
(-1.33868e-22 8.07402e-23 -0.00190416)
(-1.58081e-20 -4.676e-19 -0.00158815)
(3.03438e-20 9.25241e-19 -0.00132835)
(-2.75736e-20 -9.18818e-19 -0.00111117)
(2.535e-20 9.26239e-19 -0.000926683)
(-2.32471e-20 -9.32948e-19 -0.000767712)
(1.10262e-20 4.6793e-19 -0.000629064)
(4.96756e-21 2.37262e-19 -0.000506961)
(-4.34154e-21 -2.07353e-19 -0.000398612)
(-2.33453e-22 -1.49419e-20 -0.000301905)
(-3.83552e-21 -2.41076e-19 -0.000215189)
(8.04035e-21 5.13282e-19 -0.000137124)
(-3.76638e-21 -2.42011e-19 -6.65633e-05)
(8.90577e-23 -7.56764e-23 -2.46126e-06)
(2.12058e-22 1.52909e-20 5.62435e-05)
(-9.41114e-23 1.9923e-24 0.000110813)
(-1.43542e-22 -1.54182e-20 0.000163073)
(3.22887e-22 3.09257e-20 0.000216104)
(2.68329e-20 5.14626e-23 -0.00638567)
(-2.61244e-22 -1.03014e-22 -0.0803958)
(-5.8355e-20 -5.4339e-22 -0.133339)
(8.11648e-20 -1.7616e-21 -0.167794)
(-2.69933e-20 -3.63702e-21 -0.18785)
(-3.51045e-20 -1.17342e-21 -0.196751)
(1.48094e-20 2.776e-21 -0.197122)
(-8.42266e-21 -4.00621e-21 -0.191144)
(5.60678e-20 -1.84158e-20 -0.180649)
(4.16828e-19 7.13866e-19 -0.167156)
(-5.7506e-21 1.00573e-19 -0.151901)
(-4.45032e-19 -8.21002e-19 -0.135863)
(4.40421e-19 9.61161e-19 -0.11979)
(-4.50107e-19 -9.5904e-19 -0.104238)