/*--------------------------------*- C++ -*----------------------------------*\
| =========                 |                                                 |
| \\      /  F ield         | OpenFOAM: The Open Source CFD Toolbox           |
|  \\    /   O peration     | Version:  2412                                  |
|   \\  /    A nd           | Website:  www.openfoam.com                      |
|    \\/     M anipulation  |                                                 |
\*---------------------------------------------------------------------------*/
FoamFile
{
    version     2.0;
    format      ascii;
    arch        "LSB;label=32;scalar=64";
    class       volVectorField;
    location    "23";
    object      U;
}
// * * * * * * * * * * * * * * * * * * * * * * * * * * * * * * * * * * * * * //

dimensions      [0 1 -1 0 0 0 0];

internalField   nonuniform List<vector> 
5285
(
(0.0999997 4.37606e-07 0)
(0.099995 1.30193e-06 0)
(0.0999851 2.15467e-06 0)
(0.0999707 2.99967e-06 0)
(0.0999521 3.83898e-06 0)
(0.0999293 4.67459e-06 0)
(0.0999026 5.51917e-06 0)
(0.099872 6.40954e-06 0)
(0.0998373 7.41149e-06 0)
(0.099798 8.60727e-06 0)
(0.0997531 1.00676e-05 0)
(0.0997015 1.182e-05 0)
(0.0996421 1.38296e-05 0)
(0.0995741 1.59996e-05 0)
(0.0994976 1.81928e-05 0)
(0.0994131 2.02639e-05 0)
(0.0993217 2.20918e-05 0)
(0.099225 2.3601e-05 0)
(0.0991247 2.47698e-05 0)
(0.0990222 2.56258e-05 0)
(0.0989189 2.62317e-05 0)
(0.0988157 2.66694e-05 0)
(0.098713 2.70237e-05 0)
(0.098611 2.73713e-05 0)
(0.0985097 2.77738e-05 0)
(0.0984088 2.82752e-05 0)
(0.0983078 2.8903e-05 0)
(0.0982064 2.96708e-05 0)
(0.0981041 3.0582e-05 0)
(0.0980005 3.16333e-05 0)
(0.0978953 3.28178e-05 0)
(0.0977882 3.41272e-05 0)
(0.0976789 3.55536e-05 0)
(0.0975672 3.70901e-05 0)
(0.0974528 3.87314e-05 0)
(0.0973357 4.0474e-05 0)
(0.0972157 4.2316e-05 0)
(0.0970927 4.42569e-05 0)
(0.0969666 4.62976e-05 0)
(0.0968372 4.84398e-05 0)
(0.0967045 5.0686e-05 0)
(0.0965684 5.30394e-05 0)
(0.0964288 5.55037e-05 0)
(0.0962855 5.80828e-05 0)
(0.0961385 6.07811e-05 0)
(0.0959877 6.36034e-05 0)
(0.0958331 6.65544e-05 0)
(0.0956744 6.96394e-05 0)
(0.0955117 7.28638e-05 0)
(0.0953447 7.62337e-05 0)
(0.0951735 7.97558e-05 0)
(0.0949979 8.34387e-05 0)
(0.0948178 8.72964e-05 0)
(0.0946331 9.13591e-05 0)
(0.0944436 9.57033e-05 0)
(0.0999997 1.31278e-06 0)
(0.099995 3.90537e-06 0)
(0.0999851 6.46307e-06 0)
(0.0999708 8.99753e-06 0)
(0.0999521 1.1515e-05 0)
(0.0999293 1.40215e-05 0)
(0.0999026 1.6555e-05 0)
(0.0998721 1.92252e-05 0)
(0.0998375 2.22288e-05 0)
(0.0997982 2.58114e-05 0)
(0.0997534 3.01846e-05 0)
(0.0997018 3.54314e-05 0)
(0.0996425 4.14477e-05 0)
(0.0995747 4.79451e-05 0)
(0.0994983 5.45144e-05 0)
(0.099414 6.0722e-05 0)
(0.0993228 6.62054e-05 0)
(0.0992263 7.07385e-05 0)
(0.0991261 7.42563e-05 0)
(0.0990238 7.68397e-05 0)
(0.0989206 7.86758e-05 0)
(0.0988174 8.0008e-05 0)
(0.0987147 8.10897e-05 0)
(0.0986128 8.21496e-05 0)
(0.0985115 8.33716e-05 0)
(0.0984106 8.48876e-05 0)
(0.0983097 8.67797e-05 0)
(0.0982083 8.9089e-05 0)
(0.098106 9.1826e-05 0)
(0.0980025 9.49812e-05 0)
(0.0978974 9.85343e-05 0)
(0.0977904 0.000102461 0)
(0.0976812 0.000106737 0)
(0.0975695 0.000111343 0)
(0.0974553 0.000116262 0)
(0.0973384 0.000121485 0)
(0.0972185 0.000127005 0)
(0.0970957 0.000132822 0)
(0.0969697 0.000138938 0)
(0.0968406 0.000145357 0)
(0.0967081 0.000152089 0)
(0.0965722 0.000159141 0)
(0.0964328 0.000166525 0)
(0.0962898 0.000174253 0)
(0.0961431 0.000182338 0)
(0.0959926 0.000190793 0)
(0.0958383 0.000199634 0)
(0.09568 0.000208876 0)
(0.0955176 0.000218536 0)
(0.095351 0.00022863 0)
(0.0951802 0.000239179 0)
(0.0950051 0.000250209 0)
(0.0948254 0.000261761 0)
(0.0946412 0.000273923 0)
(0.0944522 0.00028692 0)
(0.0999997 2.18708e-06 0)
(0.099995 6.50602e-06 0)
(0.0999851 1.07669e-05 0)
(0.0999708 1.4989e-05 0)
(0.0999522 1.91828e-05 0)
(0.0999294 2.33586e-05 0)
(0.0999028 2.75788e-05 0)
(0.0998723 3.20257e-05 0)
(0.0998377 3.70252e-05 0)
(0.0997985 4.2985e-05 0)
(0.0997538 5.02569e-05 0)
(0.0997024 5.89801e-05 0)
(0.0996433 6.89836e-05 0)
(0.0995758 7.97902e-05 0)
(0.0994997 9.07216e-05 0)
(0.0994157 0.000101058 0)
(0.0993249 0.000110197 0)
(0.0992287 0.000117762 0)
(0.0991288 0.000123641 0)
(0.0990268 0.000127969 0)
(0.0989238 0.000131053 0)
(0.0988208 0.000133296 0)
(0.0987182 0.000135118 0)
(0.0986164 0.000136899 0)
(0.0985152 0.000138946 0)
(0.0984143 0.000141477 0)
(0.0983134 0.000144629 0)
(0.0982121 0.000148473 0)
(0.0981099 0.000153026 0)
(0.0980065 0.000158273 0)
(0.0979016 0.00016418 0)
(0.0977947 0.000170709 0)
(0.0976857 0.000177819 0)
(0.0975743 0.000185478 0)
(0.0974603 0.000193658 0)
(0.0973436 0.000202343 0)
(0.0972241 0.000211524 0)
(0.0971016 0.000221197 0)
(0.096976 0.000231368 0)
(0.0968473 0.000242044 0)
(0.0967152 0.000253238 0)
(0.0965798 0.000264966 0)
(0.0964409 0.000277245 0)
(0.0962984 0.000290095 0)
(0.0961523 0.000303538 0)
(0.0960024 0.000317597 0)
(0.0958487 0.000332295 0)
(0.095691 0.000347659 0)
(0.0955294 0.000363714 0)
(0.0953636 0.00038049 0)
(0.0951936 0.00039802 0)
(0.0950193 0.000416346 0)
(0.0948406 0.000435532 0)
(0.0946574 0.000455721 0)
(0.0944694 0.000477266 0)
(0.0999997 3.05992e-06 0)
(0.099995 9.10197e-06 0)
(0.0999852 1.50632e-05 0)
(0.0999709 2.09698e-05 0)
(0.0999523 2.6837e-05 0)
(0.0999296 3.26791e-05 0)
(0.099903 3.85828e-05 0)
(0.0998725 4.48011e-05 0)
(0.0998381 5.17869e-05 0)
(0.099799 6.01082e-05 0)
(0.0997544 7.02557e-05 0)
(0.0997033 8.24262e-05 0)
(0.0996445 9.63848e-05 0)
(0.0995774 0.000111471 0)
(0.0995018 0.000126741 0)
(0.0994183 0.000141194 0)
(0.099328 0.000153989 0)
(0.0992323 0.000164596 0)
(0.0991329 0.000172859 0)
(0.0990312 0.000178957 0)
(0.0989285 0.000183317 0)
(0.0988257 0.000186497 0)
(0.0987234 0.000189082 0)
(0.0986216 0.0001916 0)
(0.0985205 0.000194478 0)
(0.0984197 0.000198025 0)
(0.098319 0.000202432 0)
(0.0982178 0.000207798 0)
(0.0981157 0.00021415 0)
(0.0980125 0.000221468 0)
(0.0979077 0.000229708 0)
(0.0978011 0.000238814 0)
(0.0976924 0.000248732 0)
(0.0975813 0.000259416 0)
(0.0974678 0.000270829 0)
(0.0973515 0.000282947 0)
(0.0972325 0.000295757 0)
(0.0971105 0.000309256 0)
(0.0969854 0.000323449 0)
(0.0968573 0.000338347 0)
(0.0967259 0.000353968 0)
(0.0965911 0.000370332 0)
(0.096453 0.000387466 0)
(0.0963113 0.000405394 0)
(0.096166 0.000424149 0)
(0.096017 0.00044376 0)
(0.0958642 0.00046426 0)
(0.0957076 0.000485686 0)
(0.095547 0.000508073 0)
(0.0953824 0.000531462 0)
(0.0952136 0.000555896 0)
(0.0950406 0.000581432 0)
(0.0948633 0.000608156 0)
(0.0946815 0.000636248 0)
(0.0944952 0.000666164 0)
(0.0999997 3.93079e-06 0)
(0.099995 1.16913e-05 0)
(0.0999852 1.93488e-05 0)
(0.0999709 2.69356e-05 0)
(0.0999524 3.44721e-05 0)
(0.0999298 4.19765e-05 0)
(0.0999033 4.9559e-05 0)
(0.0998729 5.75415e-05 0)
(0.0998385 6.65008e-05 0)
(0.0997996 7.7162e-05 0)
(0.0997553 9.01538e-05 0)
(0.0997045 0.000105732 0)
(0.0996461 0.000123602 0)
(0.0995795 0.000142926 0)
(0.0995046 0.000162504 0)
(0.0994217 0.000181057 0)
(0.0993321 0.000197507 0)
(0.0992371 0.000211173 0)
(0.0991382 0.000221847 0)
(0.099037 0.000229752 0)
(0.0989347 0.000235425 0)
(0.0988322 0.000239578 0)
(0.0987301 0.000242954 0)
(0.0986285 0.000246228 0)
(0.0985275 0.000249949 0)
(0.0984269 0.000254511 0)
(0.0983262 0.000260164 0)
(0.0982252 0.000267036 0)
(0.0981234 0.000275164 0)
(0.0980204 0.000284527 0)
(0.0979159 0.000295067 0)
(0.0978096 0.000306716 0)
(0.0977013 0.000319406 0)
(0.0975907 0.000333077 0)
(0.0974776 0.000347683 0)
(0.097362 0.000363194 0)
(0.0972435 0.000379592 0)
(0.0971222 0.000396873 0)
(0.0969979 0.000415042 0)
(0.0968706 0.000434114 0)
(0.09674 0.000454111 0)
(0.0966062 0.000475059 0)
(0.096469 0.000496989 0)
(0.0963283 0.000519936 0)
(0.0961842 0.000543936 0)
(0.0960364 0.000569029 0)
(0.0958848 0.000595257 0)
(0.0957295 0.000622663 0)
(0.0955704 0.000651294 0)
(0.0954072 0.000681198 0)
(0.0952401 0.000712431 0)
(0.0950688 0.000745059 0)
(0.0948933 0.000779185 0)
(0.0947135 0.000815012 0)
(0.0945293 0.000853053 0)
(0.0999997 4.79931e-06 0)
(0.0999951 1.42723e-05 0)
(0.0999853 2.3621e-05 0)
(0.0999711 3.28825e-05 0)
(0.0999526 4.20829e-05 0)
(0.09993 5.12443e-05 0)
(0.0999036 6.04997e-05 0)
(0.0998734 7.02371e-05 0)
(0.0998391 8.11539e-05 0)
(0.0998004 9.41285e-05 0)
(0.0997564 0.000109926 0)
(0.0997059 0.000128863 0)
(0.0996481 0.000150591 0)
(0.0995821 0.000174103 0)
(0.0995079 0.00019795 0)
(0.0994259 0.00022058 0)
(0.099337 0.000240683 0)
(0.0992428 0.000257427 0)
(0.0991446 0.000270546 0)
(0.099044 0.0002803 0)
(0.0989422 0.000287334 0)
(0.0988401 0.000292502 0)
(0.0987382 0.000296704 0)
(0.0986369 0.000300759 0)
(0.0985361 0.000305334 0)
(0.0984357 0.000310911 0)
(0.0983352 0.000317799 0)
(0.0982344 0.000326156 0)
(0.0981328 0.000336032 0)
(0.0980301 0.000347403 0)
(0.097926 0.000360205 0)
(0.0978202 0.000374354 0)
(0.0977123 0.00038977 0)
(0.0976023 0.00040638 0)
(0.0974899 0.00042413 0)
(0.0973749 0.000442982 0)
(0.0972573 0.000462915 0)
(0.0971368 0.000483922 0)
(0.0970134 0.00050601 0)
(0.0968871 0.000529196 0)
(0.0967576 0.000553504 0)
(0.0966249 0.000578968 0)
(0.0964889 0.000605623 0)
(0.0963496 0.00063351 0)
(0.0962068 0.000662673 0)
(0.0960604 0.00069316 0)
(0.0959105 0.000725019 0)
(0.0957568 0.000758302 0)
(0.0955994 0.000793064 0)
(0.0954381 0.000829362 0)
(0.0952729 0.00086726 0)
(0.0951038 0.000906832 0)
(0.0949305 0.000948188 0)
(0.0947531 0.000991536 0)
(0.0945715 0.00103739 0)
(0.0999997 5.66476e-06 0)
(0.0999951 1.68435e-05 0)
(0.0999853 2.78767e-05 0)
(0.0999712 3.88063e-05 0)
(0.0999528 4.96641e-05 0)
(0.0999303 6.04762e-05 0)
(0.099904 7.13972e-05 0)
(0.0998739 8.28786e-05 0)
(0.0998398 9.5734e-05 0)
(0.0998014 0.000110991 0)
(0.0997576 0.000129549 0)
(0.0997076 0.000151788 0)
(0.0996504 0.000177312 0)
(0.0995852 0.000204953 0)
(0.0995118 0.000233022 0)
(0.0994306 0.000259704 0)
(0.0993427 0.000283459 0)
(0.0992494 0.000303299 0)
(0.099152 0.000318901 0)
(0.0990521 0.000330554 0)
(0.0989509 0.000339001 0)
(0.0988492 0.000345233 0)
(0.0987478 0.0003503 0)
(0.0986467 0.000355164 0)
(0.0985462 0.000360606 0)
(0.0984459 0.000367197 0)
(0.0983457 0.000375305 0)
(0.0982452 0.000385122 0)
(0.0981439 0.000396711 0)
(0.0980416 0.00041005 0)
(0.097938 0.000425066 0)
(0.0978327 0.000441664 0)
(0.0977254 0.000459751 0)
(0.0976161 0.000479245 0)
(0.0975044 0.000500079 0)
(0.0973903 0.000522211 0)
(0.0972736 0.000545614 0)
(0.0971542 0.000570281 0)
(0.0970319 0.000596218 0)
(0.0969067 0.000623444 0)
(0.0967785 0.000651988 0)
(0.0966472 0.000681885 0)
(0.0965126 0.000713177 0)
(0.0963748 0.000745912 0)
(0.0962337 0.000780138 0)
(0.0960891 0.000815911 0)
(0.095941 0.000853286 0)
(0.0957893 0.000892323 0)
(0.095634 0.000933082 0)
(0.0954749 0.000975629 0)
(0.0953121 0.00102003 0)
(0.0951454 0.00106637 0)
(0.0949748 0.00111476 0)
(0.0948002 0.00116536 0)
(0.0946217 0.00121862 0)
(0.0942481 0.000100551 -4.46789e-24)
(0.0940448 0.000105671 -4.55575e-24)
(0.0938316 0.000111139 -3.173e-26)
(0.0936079 0.000116976 1.40014e-23)
(0.0933731 0.000123212 -4.63774e-24)
(0.0931263 0.000129881 -4.77454e-24)
(0.0928668 0.000137023 -1.47055e-23)
(0.0925937 0.000144681 1.46009e-23)
(0.0923059 0.000152903 4.9974e-24)
(0.0920025 0.000161743 0)
(0.0916822 0.000171263 5.16464e-24)
(0.0913438 0.00018153 -5.25459e-24)
(0.0909859 0.000192621 4.32363e-23)
(0.0906068 0.000204621 -9.26716e-23)
(0.090205 0.000217627 4.95388e-23)
(0.0897785 0.000231747 4.01581e-23)
(0.0942572 0.000301421 -4.52061e-24)
(0.094054 0.000316765 -9.22227e-24)
(0.093841 0.000333134 -4.83645e-24)
(0.0936176 0.000350607 4.50223e-24)
(0.0933831 0.000369274 -4.70286e-24)
(0.0931366 0.00038924 3.37107e-23)
(0.0928775 0.000410622 -5.2943e-23)
(0.0926047 0.00043355 4.91845e-24)
(0.0923175 0.000458169 6.56658e-23)
(0.0920146 0.000484643 -9.06914e-23)
(0.0916949 0.000513152 -8.85942e-23)
(0.0913572 0.000543901 7.80662e-23)
(0.091 0.000577119 0)
(0.0906218 0.000613062 5.45398e-24)
(0.090221 0.00065202 -1.66707e-23)
(0.0897956 0.000694321 -1.89106e-22)
(0.0942752 0.000501294 -2.67388e-23)
(0.0940724 0.000526785 -9.38786e-24)
(0.0938599 0.000553961 3.61985e-23)
(0.093637 0.000582966 -7.44881e-23)
(0.093403 0.000613956 1.59404e-22)
(0.0931572 0.000647103 -7.55192e-23)
(0.0928988 0.000682604 1.41799e-26)
(0.092627 0.000720675 9.80951e-24)
(0.0923407 0.00076156 1.7109e-22)
(0.0920389 0.00080553 -1.60938e-22)
(0.0917205 0.000852886 0)
(0.0913842 0.00090397 1.4574e-26)
(0.0910286 0.000959161 0)
(0.0906522 0.00101889 1.87355e-22)
(0.0902533 0.00108363 -1.65145e-22)
(0.0898301 0.00115394 -3.56143e-22)
(0.0943021 0.000699487 1.76163e-23)
(0.0940999 0.000734965 -8.94136e-24)
(0.0938881 0.00077278 1.94935e-26)
(0.093666 0.000813134 9.20367e-24)
(0.0934329 0.000856249 -1.95984e-26)
(0.0931882 0.000902368 1.52969e-22)
(0.092931 0.000951767 -2.89082e-22)
(0.0926606 0.00100475 1.55378e-22)
(0.0923758 0.00106166 -9.94997e-24)
(0.0920758 0.00112287 1.83954e-22)
(0.0917593 0.00118881 -1.63628e-22)
(0.0914252 0.00125994 -3.39698e-22)
(0.0910721 0.00133681 6.85961e-22)
(0.0906985 0.00142002 -6.99601e-22)
(0.0903027 0.00151022 7.13901e-22)
(0.0898829 0.00160819 -7.17595e-22)
(0.0943378 0.000895347 -8.73728e-24)
(0.0941364 0.000940592 -3.5702e-23)
(0.0939255 0.000988803 1.08246e-22)
(0.0937046 0.00104025 -1.46187e-22)
(0.0934728 0.00109521 6.43911e-23)
(0.0932297 0.00115401 9.44588e-24)
(0.0929743 0.00121701 -9.60582e-24)
(0.0927058 0.00128459 -2.46135e-26)
(0.0924232 0.00135718 9.94806e-24)
(0.0921257 0.00143529 -2.0238e-23)
(0.0918121 0.00151944 -3.33126e-22)
(0.0914811 0.00161024 3.43801e-22)
(0.0911314 0.00170838 -3.35935e-22)
(0.0907617 0.00181461 3.46778e-22)
(0.0903703 0.0019298 0)
(0.0899555 0.00205493 -2.48052e-26)
(0.0943821 0.00108825 -4.33584e-23)
(0.0941817 0.00114303 2.60817e-23)
(0.0939722 0.00120142 8.92713e-24)
(0.0937529 0.00126374 1.37078e-22)
(0.093523 0.00133035 -1.37128e-22)
(0.093282 0.00140164 1.41928e-22)
(0.093029 0.00147804 -3.15078e-22)
(0.0927632 0.00156002 4.48684e-22)
(0.0924837 0.00164814 -3.14305e-22)
(0.0921895 0.00174296 -3.26185e-22)
(0.0918797 0.00184515 -1.64434e-23)
(0.0915529 0.00195546 6.62598e-22)
(0.091208 0.00207471 -6.98086e-22)
(0.0908435 0.00220384 3.25631e-22)
(0.090458 0.00234389 3.51566e-22)
(0.0900498 0.00249606 3.67672e-22)
(0.0944348 0.00127738 8.53841e-24)
(0.094236 0.00134116 7.86826e-23)
(0.0940285 0.00140922 -7.01689e-23)
(0.0938114 0.00148194 9.01076e-24)
(0.0935841 0.00155973 1.38553e-22)
(0.093346 0.00164304 -1.38771e-22)
(0.0930963 0.0017324 -2.97431e-22)
(0.0928341 0.00182835 4.38533e-24)
(0.0925587 0.00193154 -5.59651e-24)
(0.092269 0.00204265 3.30471e-22)
(0.0919642 0.00216248 -3.22928e-22)
(0.091643 0.00229189 6.85318e-22)
(0.0913043 0.00243188 -3.41514e-22)
(0.0909468 0.00258355 1.10425e-23)
(0.090569 0.00274815 1.13024e-23)
(0.0901695 0.00292711 7.47841e-22)
(0.0944967 0.00146591 0)
(0.0943008 0.00153711 0)
(0.0940963 0.00161316 0)
(0.0938826 0.00169444 0)
(0.0936591 0.00178139 0)
(0.0934251 0.0018745 0)
(0.09318 0.00197434 0)
(0.0929229 0.00208152 0)
(0.092653 0.00219673 0)
(0.0923696 0.00232074 0)
(0.0920715 0.00245441 0)
(0.0917579 0.0025987 0)
(0.0914276 0.0027547 0)
(0.0910795 0.00292362 0)
(0.0907122 0.00310684 0)
(0.0903243 0.00330591 0)
(0.094569 0.00165596 0)
(0.0943772 0.00173529 0)
(0.0941771 0.00181999 0)
(0.0939681 0.00191048 0)
(0.0937497 0.00200725 0)
(0.0935212 0.00211082 0)
(0.0932821 0.0022218 0)
(0.0930316 0.00234085 0)
(0.092769 0.00246871 0)
(0.0924934 0.00260621 0)
(0.0922042 0.00275427 0)
(0.0919002 0.00291392 0)
(0.0915806 0.00308632 0)
(0.0912442 0.00327277 0)
(0.09089 0.00347472 0)
(0.0905167 0.00369381 0)
(0.0946497 0.00184157 0)
(0.0944629 0.00192892 0)
(0.094268 0.00202211 0)
(0.0940647 0.0021216 0)
(0.0938523 0.00222792 0)
(0.0936304 0.00234164 0)
(0.0933983 0.00246341 0)
(0.0931556 0.00259393 0)
(0.0929014 0.00273399 0)
(0.0926351 0.00288447 0)
(0.0923559 0.00304634 0)
(0.0920631 0.00322071 0)
(0.0917557 0.00340879 0)
(0.0914328 0.00361193 0)
(0.0910935 0.00383168 0)
(0.0907367 0.00406974 0)
(0.0947384 0.00202202 0)
(0.0945571 0.00211705 0)
(0.0943682 0.00221832 0)
(0.0941712 0.00232636 0)
(0.0939657 0.00244172 0)
(0.0937512 0.00256501 0)
(0.0935271 0.00269691 0)
(0.0932931 0.00283816 0)
(0.0930484 0.0029896 0)
(0.0927924 0.00315215 0)
(0.0925245 0.00332684 0)
(0.092244 0.00351478 0)
(0.0919502 0.00371727 0)
(0.0916423 0.0039357 0)
(0.0913195 0.00417165 0)
(0.0909809 0.00442689 0)
(0.0948344 0.00219681 0)
(0.0946592 0.00229911 0)
(0.0944768 0.00240803 0)
(0.0942868 0.00252412 0)
(0.0940888 0.00264797 0)
(0.0938824 0.0027802 0)
(0.0936672 0.00292154 0)
(0.0934426 0.00307276 0)
(0.0932082 0.00323472 0)
(0.0929635 0.00340838 0)
(0.0927079 0.00359479 0)
(0.0924408 0.00379511 0)
(0.0921617 0.00401065 0)
(0.0918699 0.00424286 0)
(0.0915647 0.00449332 0)
(0.0912456 0.00476384 0)
(0.0949374 0.00236554 0)
(0.0947686 0.00247465 0)
(0.0945932 0.00259074 0)
(0.0944107 0.00271435 0)
(0.0942207 0.00284609 0)
(0.0940231 0.00298662 0)
(0.0938172 0.00313668 0)
(0.0936028 0.00329707 0)
(0.0933795 0.00346866 0)
(0.0931468 0.00365244 0)
(0.0929043 0.00384947 0)
(0.0926514 0.00406094 0)
(0.0923878 0.00428818 0)
(0.092113 0.00453262 0)
(0.0918265 0.0047959 0)
(0.0915278 0.00507978 0)
(0.0950468 0.00252783 0)
(0.0948849 0.00264328 0)
(0.0947168 0.00276601 0)
(0.0945421 0.00289656 0)
(0.0943607 0.00303558 0)
(0.0941722 0.00318372 0)
(0.0939763 0.00334175 0)
(0.0937726 0.00351046 0)
(0.0935609 0.00369076 0)
(0.0933408 0.00388363 0)
(0.0931119 0.00409016 0)
(0.0928739 0.00431152 0)
(0.0926266 0.00454905 0)
(0.0923694 0.00480419 0)
(0.0921023 0.00507853 0)
(0.0918247 0.00537385 0)
(0.0951621 0.00268339 0)
(0.0950073 0.00280467 0)
(0.0948468 0.00293348 0)
(0.0946805 0.00307039 0)
(0.0945079 0.00321602 0)
(0.0943289 0.00337106 0)
(0.0941433 0.00353627 0)
(0.0939508 0.00371245 0)
(0.0937511 0.00390051 0)
(0.093544 0.00410143 0)
(0.0933293 0.00431629 0)
(0.0931067 0.00454628 0)
(0.092876 0.00479269 0)
(0.092637 0.00505695 0)
(0.0923896 0.00534064 0)
(0.0921337 0.00564548 0)
(0.0952829 0.00283194 0)
(0.0951354 0.00295854 0)
(0.0949829 0.00309287 0)
(0.094825 0.00323551 0)
(0.0946615 0.0033871 0)
(0.0944924 0.00354831 0)
(0.0943174 0.0037199 0)
(0.0941363 0.00390268 0)
(0.093949 0.00409754 0)
(0.0937552 0.00430546 0)
(0.093555 0.0045275 0)
(0.093348 0.00476483 0)
(0.0931343 0.00501872 0)
(0.0929138 0.00529057 0)
(0.0926864 0.0055819 0)
(0.0924522 0.00589439 0)
(0.0954085 0.00297329 0)
(0.0952686 0.00310467 0)
(0.0951242 0.00324395 0)
(0.094975 0.00339171 0)
(0.0948209 0.00354857 0)
(0.0946618 0.00371521 0)
(0.0944976 0.00389238 0)
(0.0943282 0.00408088 0)
(0.0941534 0.00428158 0)
(0.0939732 0.00449546 0)
(0.0937875 0.00472353 0)
(0.0935964 0.00496695 0)
(0.0933998 0.00522695 0)
(0.0931978 0.00550488 0)
(0.0929905 0.0058022 0)
(0.0927781 0.00612051 0)
(0.0955386 0.00310725 0)
(0.0954064 0.00324289 0)
(0.0952702 0.00338654 0)
(0.0951298 0.0035388 0)
(0.0949852 0.00370026 0)
(0.0948363 0.0038716 0)
(0.0946831 0.00405355 0)
(0.0945254 0.0042469 0)
(0.0943633 0.00445251 0)
(0.0941967 0.0046713 0)
(0.0940258 0.00490429 0)
(0.0938505 0.00515258 0)
(0.093671 0.00541735 0)
(0.0934874 0.0056999 0)
(0.0933001 0.00600162 0)
(0.0931092 0.00632402 0)
(0.0956725 0.00323371 0)
(0.0955481 0.00337307 0)
(0.0954203 0.00352054 0)
(0.0952888 0.00367666 0)
(0.0951538 0.00384206 0)
(0.0950152 0.00401738 0)
(0.0948729 0.00420333 0)
(0.094727 0.00440068 0)
(0.0945776 0.00461027 0)
(0.0944247 0.00483298 0)
(0.0942684 0.0050698 0)
(0.0941088 0.00532177 0)
(0.0939463 0.00559003 0)
(0.093781 0.0058758 0)
(0.0936133 0.0061804 0)
(0.0934437 0.00650525 0)
(0.0958099 0.00335257 0)
(0.0956933 0.00349514 0)
(0.0955739 0.00364585 0)
(0.0954514 0.00380525 0)
(0.095326 0.00397393 0)
(0.0951976 0.00415251 0)
(0.0950663 0.0043417 0)
(0.0949322 0.00454223 0)
(0.0947954 0.0047549 0)
(0.094656 0.00498057 0)
(0.0945142 0.00522016 0)
(0.0943702 0.00547469 0)
(0.0942244 0.00574521 0)
(0.094077 0.00603289 0)
(0.0939286 0.00633895 0)
(0.0937796 0.00666471 0)
(0.0959501 0.00346379 0)
(0.0958415 0.00360907 0)
(0.0957304 0.00376247 0)
(0.0956169 0.00392455 0)
(0.0955011 0.00409587 0)
(0.0953829 0.00427703 0)
(0.0952625 0.00446872 0)
(0.0951401 0.00467163 0)
(0.0950158 0.00488652 0)
(0.0948897 0.00511422 0)
(0.0947622 0.0053556 0)
(0.0946335 0.00561161 0)
(0.094504 0.00588325 0)
(0.0943741 0.0061716 0)
(0.0942444 0.00647779 0)
(0.0941156 0.00680304 0)
(0.0960927 0.00356736 0)
(0.095992 0.00371484 0)
(0.0958893 0.00387041 0)
(0.0957847 0.0040346 0)
(0.0956784 0.00420794 0)
(0.0955703 0.00439103 0)
(0.0954608 0.0045845 0)
(0.0953499 0.00478903 0)
(0.0952378 0.00500533 0)
(0.0951248 0.00523418 0)
(0.0950113 0.00547642 0)
(0.0948975 0.0057329 0)
(0.0947839 0.00600458 0)
(0.094671 0.00629244 0)
(0.0945595 0.00659754 0)
(0.0944499 0.00692098 0)
(0.0962373 0.00366331 0)
(0.0961444 0.00381251 0)
(0.09605 0.00396973 0)
(0.0959543 0.00413547 0)
(0.0958573 0.00431025 0)
(0.0957593 0.00449463 0)
(0.0956603 0.00468921 0)
(0.0955607 0.00489464 0)
(0.0954607 0.00511158 0)
(0.0953605 0.00534077 0)
(0.0952605 0.00558296 0)
(0.0951612 0.00583899 0)
(0.0950631 0.00610972 0)
(0.0949666 0.00639604 0)
(0.0948725 0.00669892 0)
(0.0947815 0.00701936 0)
(0.0963834 0.00375168 0)
(0.0962982 0.00390214 0)
(0.096212 0.00406052 0)
(0.096125 0.00422729 0)
(0.0960373 0.00440295 0)
(0.0959491 0.00458802 0)
(0.0958605 0.00478308 0)
(0.0957719 0.00498872 0)
(0.0956836 0.00520558 0)
(0.0955959 0.00543432 0)
(0.0955091 0.00567568 0)
(0.0954238 0.00593038 0)
(0.0953405 0.00619924 0)
(0.0952598 0.00648306 0)
(0.0951823 0.00678271 0)
(0.095109 0.00709909 0)
(0.0965305 0.00383257 0)
(0.096453 0.00398385 0)
(0.0963749 0.00414292 0)
(0.0962964 0.00431022 0)
(0.0962178 0.00448622 0)
(0.0961391 0.00467142 0)
(0.0960607 0.00486635 0)
(0.0959829 0.00507157 0)
(0.0959059 0.00528767 0)
(0.0958302 0.00551527 0)
(0.0957562 0.00575503 0)
(0.0956844 0.00600762 0)
(0.0956153 0.00627378 0)
(0.0955496 0.00655423 0)
(0.0954881 0.00684975 0)
(0.0954315 0.00716112 0)
(0.0966783 0.00390608 0)
(0.0966083 0.00405777 0)
(0.0965381 0.00421708 0)
(0.096468 0.00438443 0)
(0.0963982 0.00456028 0)
(0.0963288 0.00474508 0)
(0.0962603 0.00493933 0)
(0.0961929 0.00514354 0)
(0.0961269 0.00535826 0)
(0.0960628 0.00558406 0)
(0.096001 0.00582154 0)
(0.0959421 0.0060713 0)
(0.0958866 0.00633401 0)
(0.0958353 0.00661032 0)
(0.0957888 0.0069009 0)
(0.095748 0.00720644 0)
(0.0968263 0.00397236 0)
(0.0967636 0.00412405 0)
(0.0967012 0.00428318 0)
(0.0966393 0.00445016 0)
(0.096578 0.00462538 0)
(0.0965178 0.00480929 0)
(0.0964588 0.00500233 0)
(0.0964014 0.005205 0)
(0.096346 0.00541777 0)
(0.096293 0.00564117 0)
(0.096243 0.00587575 0)
(0.0961963 0.00612204 0)
(0.0961538 0.00638064 0)
(0.096116 0.00665211 0)
(0.0960837 0.00693705 0)
(0.0960578 0.00723605 0)
(0.0969742 0.00403156 0)
(0.0969187 0.00418288 0)
(0.0968638 0.00434145 0)
(0.0968098 0.00450762 0)
(0.0967569 0.00468179 0)
(0.0967054 0.00486435 0)
(0.0966556 0.00505572 0)
(0.0966079 0.00525634 0)
(0.0965626 0.00546665 0)
(0.0965203 0.00568712 0)
(0.0964814 0.00591823 0)
(0.0964465 0.00616049 0)
(0.0964162 0.00641438 0)
(0.0963912 0.00668043 0)
(0.0963722 0.00695912 0)
(0.0963602 0.00725097 0)
(0.0971217 0.00408387 0)
(0.0970731 0.00423447 0)
(0.0970256 0.0043921 0)
(0.0969792 0.0045571 0)
(0.0969343 0.00472981 0)
(0.0968913 0.00491061 0)
(0.0968503 0.00509986 0)
(0.0968119 0.00529798 0)
(0.0967763 0.00550536 0)
(0.0967441 0.00572242 0)
(0.0967158 0.00594959 0)
(0.096692 0.00618729 0)
(0.0966732 0.00643598 0)
(0.0966602 0.00669608 0)
(0.0966537 0.00696802 0)
(0.0966547 0.0072522 0)
(0.0972684 0.00412946 0)
(0.0972265 0.00427903 0)
(0.097186 0.00443538 0)
(0.0971471 0.00459885 0)
(0.09711 0.00476974 0)
(0.097075 0.00494839 0)
(0.0970425 0.00513515 0)
(0.0970129 0.00533036 0)
(0.0969866 0.0055344 0)
(0.096964 0.00574762 0)
(0.0969457 0.0059704 0)
(0.0969323 0.00620313 0)
(0.0969244 0.00644617 0)
(0.0969226 0.00669988 0)
(0.0969278 0.00696463 0)
(0.0969408 0.00724075 0)
(0.0974139 0.00416856 0)
(0.0973786 0.00431679 0)
(0.097345 0.00447156 0)
(0.0973131 0.00463317 0)
(0.0972834 0.00480191 0)
(0.0972562 0.00497808 0)
(0.0972318 0.00516198 0)
(0.0972106 0.00535393 0)
(0.097193 0.00555425 0)
(0.0971796 0.00576326 0)
(0.0971708 0.00598129 0)
(0.0971672 0.00620866 0)
(0.0971694 0.00644568 0)
(0.0971781 0.00669265 0)
(0.0971941 0.00694987 0)
(0.0972182 0.00721757 0)
(0.0975581 0.00420138 0)
(0.0975291 0.004348 0)
(0.097502 0.00450091 0)
(0.097477 0.00466038 0)
(0.0974544 0.00482666 0)
(0.0974346 0.00500004 0)
(0.0974179 0.00518077 0)
(0.0974047 0.00536914 0)
(0.0973954 0.00556542 0)
(0.0973905 0.0057699 0)
(0.0973906 0.00598285 0)
(0.0973961 0.00620455 0)
(0.0974078 0.00643524 0)
(0.0974263 0.00667518 0)
(0.0974522 0.00692458 0)
(0.0974865 0.00718364 0)
(0.0977007 0.00422816 0)
(0.0976777 0.00437291 0)
(0.0976569 0.0045237 0)
(0.0976384 0.00468076 0)
(0.0976226 0.00484433 0)
(0.0976098 0.00501463 0)
(0.0976004 0.00519192 0)
(0.0975948 0.00537643 0)
(0.0975933 0.00556841 0)
(0.0975965 0.00576808 0)
(0.0976049 0.00597569 0)
(0.097619 0.00619144 0)
(0.0976394 0.00641557 0)
(0.0976669 0.00664824 0)
(0.097702 0.00688962 0)
(0.0977457 0.00713985 0)
(0.0978414 0.00424912 0)
(0.0978242 0.00439179 0)
(0.0978094 0.00454023 0)
(0.0977972 0.00469465 0)
(0.0977878 0.00485525 0)
(0.0977817 0.00502225 0)
(0.0977792 0.00519586 0)
(0.0977806 0.00537627 0)
(0.0977865 0.0055637 0)
(0.0977973 0.00575834 0)
(0.0978134 0.00596038 0)
(0.0978355 0.00617 0)
(0.097864 0.00638735 0)
(0.0978998 0.00661259 0)
(0.0979433 0.00684581 0)
(0.0979955 0.00708709 0)
(0.09798 0.00426452 0)
(0.0979684 0.00440489 0)
(0.0979593 0.00455078 0)
(0.097953 0.00470235 0)
(0.0979498 0.00485979 0)
(0.09795 0.00502328 0)
(0.097954 0.00519299 0)
(0.0979621 0.00536911 0)
(0.0979749 0.00555179 0)
(0.0979927 0.00574121 0)
(0.098016 0.00593751 0)
(0.0980454 0.00614082 0)
(0.0980815 0.00635127 0)
(0.0981248 0.00656895 0)
(0.098176 0.00679392 0)
(0.0982359 0.0070262 0)
(0.0981164 0.00427459 0)
(0.0981101 0.0044125 0)
(0.0981064 0.00455565 0)
(0.0981057 0.00470419 0)
(0.0981083 0.00485828 0)
(0.0981145 0.00501808 0)
(0.0981246 0.00518373 0)
(0.098139 0.00535538 0)
(0.0981581 0.00553316 0)
(0.0981825 0.00571721 0)
(0.0982125 0.00590763 0)
(0.0982487 0.00610453 0)
(0.0982917 0.00630798 0)
(0.0983419 0.00651803 0)
(0.0984001 0.00673471 0)
(0.098467 0.00695798 0)
(0.0982504 0.00427958 0)
(0.0982491 0.00441487 0)
(0.0982506 0.00455513 0)
(0.0982552 0.00470049 0)
(0.0982632 0.00485108 0)
(0.098275 0.00500703 0)
(0.0982908 0.00516848 0)
(0.0983111 0.00533552 0)
(0.0983362 0.00550828 0)
(0.0983666 0.00568684 0)
(0.0984028 0.00587129 0)
(0.0984453 0.00606169 0)
(0.0984945 0.00625809 0)
(0.098551 0.00646049 0)
(0.0986155 0.00666888 0)
(0.0986886 0.00688319 0)
(0.0999997 6.54565e-06 0)
(0.0999951 1.94651e-05 0)
(0.0999854 3.22139e-05 0)
(0.0999713 4.48436e-05 0)
(0.099953 5.73906e-05 0)
(0.0999307 6.98853e-05 0)
(0.0999045 8.2503e-05 0)
(0.0998745 9.57575e-05 0)
(0.0998407 0.000110576 0)
(0.0998025 0.000128135 0)
(0.0997591 0.000149469 0)
(0.0997096 0.000175024 0)
(0.099653 0.000204364 0)
(0.0995886 0.000236166 0)
(0.0995162 0.000268505 0)
(0.0994361 0.000299306 0)
(0.0993493 0.000326795 0)
(0.0992569 0.000349828 0)
(0.0991605 0.000368013 0)
(0.0990614 0.000381664 0)
(0.0989608 0.000391614 0)
(0.0988597 0.00039899 0)
(0.0987587 0.000404987 0)
(0.098658 0.000410707 0)
(0.0985578 0.000417051 0)
(0.0984579 0.000424678 0)
(0.098358 0.000434018 0)
(0.0982578 0.0004453 0)
(0.0981569 0.000458604 0)
(0.0980551 0.000473909 0)
(0.097952 0.000491136 0)
(0.0978474 0.000510182 0)
(0.0977409 0.000530941 0)
(0.0976324 0.000553319 0)
(0.0975217 0.000577242 0)
(0.0974086 0.00060266 0)
(0.097293 0.000629541 0)
(0.0971748 0.000657876 0)
(0.0970538 0.000687672 0)
(0.09693 0.000718948 0)
(0.0968033 0.000751736 0)
(0.0966736 0.000786075 0)
(0.0965407 0.000822013 0)
(0.0964048 0.0008596 0)
(0.0962655 0.000898893 0)
(0.096123 0.000939952 0)
(0.0959771 0.000982839 0)
(0.0958277 0.00102762 0)
(0.0956748 0.00107436 0)
(0.0955184 0.00112314 0)
(0.0953583 0.00117402 0)
(0.0951945 0.00122709 0)
(0.095027 0.00128244 0)
(0.0948558 0.00134022 0)
(0.0946808 0.00140063 0)
(0.0999997 7.44087e-06 0)
(0.0999951 2.21339e-05 0)
(0.0999855 3.66272e-05 0)
(0.0999715 5.0987e-05 0)
(0.0999533 6.52531e-05 0)
(0.0999311 7.94601e-05 0)
(0.0999051 9.38036e-05 0)
(0.0998753 0.000108857 0)
(0.0998417 0.00012566 0)
(0.0998038 0.000145533 0)
(0.0997608 0.000169649 0)
(0.0997119 0.000198524 0)
(0.099656 0.000231687 0)
(0.0995925 0.000267668 0)
(0.0995212 0.000304315 0)
(0.0994422 0.000339294 0)
(0.0993565 0.000370599 0)
(0.0992653 0.00039692 0)
(0.0991699 0.000417795 0)
(0.0990718 0.000433549 0)
(0.098972 0.000445102 0)
(0.0988715 0.000453707 0)
(0.0987711 0.000460704 0)
(0.0986708 0.000467333 0)
(0.098571 0.000474612 0)
(0.0984715 0.000483296 0)
(0.098372 0.000493876 0)
(0.0982722 0.000506621 0)
(0.0981719 0.00052163 0)
(0.0980707 0.000538888 0)
(0.0979683 0.000558313 0)
(0.0978644 0.000579792 0)
(0.0977588 0.000603208 0)
(0.0976513 0.000628457 0)
(0.0975417 0.000655457 0)
(0.0974298 0.000684149 0)
(0.0973155 0.000714498 0)
(0.0971987 0.000746492 0)
(0.0970793 0.000780137 0)
(0.0969571 0.000815452 0)
(0.0968322 0.000852472 0)
(0.0967043 0.00089124 0)
(0.0965735 0.000931805 0)
(0.0964396 0.000974224 0)
(0.0963026 0.00101856 0)
(0.0961625 0.00106487 0)
(0.0960191 0.00111324 0)
(0.0958724 0.00116372 0)
(0.0957224 0.00121639 0)
(0.095569 0.00127133 0)
(0.0954121 0.00132862 0)
(0.0952517 0.00138835 0)
(0.0950877 0.00145059 0)
(0.0949202 0.00151548 0)
(0.0947491 0.00158313 0)
(0.0999997 8.33076e-06 0)
(0.0999952 2.4786e-05 0)
(0.0999856 4.10126e-05 0)
(0.0999717 5.70912e-05 0)
(0.0999536 7.30653e-05 0)
(0.0999316 8.89736e-05 0)
(0.0999057 0.000105031 0)
(0.0998762 0.000121866 0)
(0.0998428 0.000140625 0)
(0.0998052 0.000162771 0)
(0.0997627 0.000189607 0)
(0.0997144 0.000221723 0)
(0.0996593 0.000258623 0)
(0.0995968 0.000298702 0)
(0.0995265 0.000339591 0)
(0.0994488 0.000378707 0)
(0.0993643 0.000413817 0)
(0.0992743 0.000443447 0)
(0.09918 0.000467054 0)
(0.0990829 0.00048497 0)
(0.098984 0.000498189 0)