/*--------------------------------*- C++ -*----------------------------------*\
| =========                 |                                                 |
| \\      /  F ield         | OpenFOAM: The Open Source CFD Toolbox           |
|  \\    /   O peration     | Version:  2412                                  |
|   \\  /    A nd           | Website:  www.openfoam.com                      |
|    \\/     M anipulation  |                                                 |
\*---------------------------------------------------------------------------*/
FoamFile
{
    version     2.0;
    format      ascii;
    arch        "LSB;label=32;scalar=64";
    class       volVectorField;
    location    "24.5";
    object      vorticity;
}
// * * * * * * * * * * * * * * * * * * * * * * * * * * * * * * * * * * * * * //

dimensions      [0 0 -1 0 0 0 0];

internalField   nonuniform List<vector> 
5285
(
(2.32006e-21 -6.46563e-20 -5.03576e-05)
(-1.81831e-21 7.6147e-21 -5.82244e-05)
(-1.8411e-22 -7.10665e-21 -6.69137e-05)
(6.98632e-23 7.11019e-21 -7.65368e-05)
(-3.08082e-24 -1.2601e-22 -8.71786e-05)
(-6.48152e-23 -6.85718e-21 -9.89569e-05)
(-1.97087e-21 6.91507e-21 -0.000112004)
(4.11966e-21 1.26647e-23 -0.00012647)
(1.2006e-21 6.71179e-21 -0.000142526)
(-3.20985e-21 -5.20919e-24 -0.000160372)
(4.61712e-21 7.78666e-21 -0.000180238)
(-5.43091e-21 1.01075e-19 -0.000202401)
(6.88621e-22 -1.08531e-19 -0.000227206)
(-2.10442e-21 9.90896e-20 -0.000255092)
(2.05038e-21 -1.00209e-19 -0.000286661)
(4.75134e-23 1.31385e-21 -0.000322778)
(-6.17955e-23 -1.61174e-21 -0.000364761)
(2.73983e-21 -9.47192e-20 -0.000414722)
(-8.48799e-21 9.19153e-20 -0.000476166)
(-3.0685e-22 -1.51497e-21 -0.000555047)
(6.06792e-21 1.32711e-23 -0.000661551)
(6.59088e-21 1.44149e-23 -0.00081304)
(-6.56979e-21 -1.43688e-23 -0.00103869)
(-2.17629e-22 -4.75977e-25 -0.00138644)
(-2.26779e-22 -4.95988e-25 -0.00193274)
(-7.79765e-21 -1.70542e-23 -0.00279504)
(7.52685e-21 1.6462e-23 -0.00414611)
(-2.48289e-22 1.47625e-22 -0.00622692)
(-3.4289e-23 7.63632e-21 -0.00935312)
(-2.40603e-20 4.93803e-20 -0.0139065)
(2.31751e-20 -6.50797e-20 -0.0203)
(-5.43442e-21 -9.21132e-21 -0.0289025)
(5.97275e-21 2.52433e-20 -0.0399197)
(-1.98343e-20 -5.53706e-21 -0.0531527)
(1.65506e-21 -2.2364e-19 -0.000157802)
(-5.53895e-21 2.39653e-19 -0.000182321)
(-2.96859e-22 1.94094e-20 -0.000209482)
(-3.75854e-21 -7.26633e-21 -0.000239527)
(3.97452e-21 1.4219e-22 -0.000272793)
(-3.98889e-21 9.01124e-21 -0.000309655)
(9.24139e-22 2.08008e-19 -0.000350534)
(5.95929e-21 -4.4033e-19 -0.000395907)
(4.51352e-21 -2.10299e-19 -0.000446323)
(-7.03853e-21 4.25761e-19 -0.000502417)
(3.76713e-21 -4.24357e-19 -0.000564929)
(-2.13374e-21 4.35389e-19 -0.000634745)
(3.21739e-21 1.46324e-21 -0.000712952)
(-3.64607e-21 -9.55487e-23 -0.000800948)
(-1.22492e-21 -2.67901e-24 -0.000900619)
(0 -0 -0.00101465)
(1.80969e-22 9.3901e-23 -0.00114713)
(1.08122e-20 1.21353e-20 -0.00130452)
(-1.57352e-20 3.54642e-19 -0.00149755)
(-1.54442e-20 -2.3944e-20 -0.00174435)
(1.85194e-20 -3.49632e-19 -0.00207592)
(2.63316e-20 -3.01833e-19 -0.00254502)
(-9.52488e-21 3.22409e-19 -0.00324025)
(-3.04831e-20 2.14304e-21 -0.00430705)
(2.97166e-20 1.69583e-20 -0.00597711)
(-4.14881e-20 2.29378e-19 -0.00860612)
(2.257e-20 -2.38585e-19 -0.0127165)
(-1.75784e-20 1.43299e-20 -0.0190366)
(1.94726e-20 7.52362e-21 -0.0285195)
(-5.84852e-20 1.10498e-19 -0.0423173)
(5.84055e-20 -1.08164e-19 -0.0616721)
(-8.94877e-20 8.06251e-20 -0.0876739)
(8.63565e-20 -9.00476e-20 -0.120871)
(-1.83223e-20 -6.16409e-22 -0.159323)
(-4.751e-21 -1.19487e-20 -0.000285754)
(-4.8481e-21 4.63488e-19 -0.000329856)
(4.08471e-22 -1.4067e-20 -0.000378718)
(-1.24299e-20 4.49955e-19 -0.000432878)
(1.23585e-20 -4.67283e-19 -0.000492949)
(-9.29743e-21 4.46121e-19 -0.000559639)
(2.61606e-21 -4.64001e-19 -0.000633735)
(5.16495e-21 -9.27683e-21 -0.000716142)
(-2.57033e-21 1.35936e-20 -0.000807896)
(5.47978e-21 -8.778e-21 -0.000910193)
(-1.89519e-20 4.17887e-19 -0.00102443)
(1.70806e-20 -4.45336e-19 -0.00115227)
(1.86082e-20 -4.13676e-19 -0.00129575)
(-1.53278e-20 4.15536e-19 -0.00145745)
(-1.06899e-21 -5.10401e-21 -0.00164079)
(1.10597e-20 -1.19674e-22 -0.00185059)
(-1.26373e-20 -2.44693e-20 -0.00209405)
(5.35394e-20 -7.54232e-19 -0.00238246)
(1.63889e-20 5.58976e-20 -0.00273431)
(-7.02281e-20 7.09988e-19 -0.00318074)
(3.89701e-21 -1.21686e-20 -0.00377474)
(-1.12878e-20 -4.76327e-21 -0.00460635)
(1.09609e-19 -5.94939e-19 -0.00582654)
(-2.03955e-19 1.16811e-18 -0.00768286)
(2.07922e-19 -1.15994e-18 -0.0105691)
(6.99464e-20 8.40529e-20 -0.015089)
(-1.55534e-19 5.07386e-19 -0.0221282)
(-1.62823e-19 3.49592e-19 -0.0329204)
(1.53934e-19 -4.14456e-19 -0.0490813)
(-2.1786e-20 1.9103e-20 -0.0725666)
(5.38192e-20 -1.69878e-20 -0.105484)
(1.61269e-19 -1.00081e-19 -0.149639)
(-1.74614e-19 1.56373e-19 -0.205752)
(-2.49249e-20 -4.01539e-20 -0.266138)
(-1.01015e-20 4.77267e-19 -0.000449803)
(-7.01859e-22 -3.72486e-21 -0.000518484)
(4.45884e-21 3.87139e-21 -0.00059476)
(-7.88114e-21 4.40038e-19 -0.000679508)
(-1.58569e-21 -4.6209e-19 -0.00077374)
(1.46397e-20 1.26161e-20 -0.000878622)
(-3.40738e-20 8.86902e-19 -0.000995469)
(2.59979e-20 -8.89768e-19 -0.00112578)
(2.25943e-21 -5.34885e-21 -0.00127129)
(-9.65115e-21 -9.01268e-23 -0.001434)
(1.46938e-20 -1.34415e-20 -0.00161623)
(-4.77073e-21 1.22338e-22 -0.00182074)
(-5.23497e-21 -6.45985e-23 -0.00205088)
(4.98852e-21 1.93845e-22 -0.00231084)
(-3.70885e-21 1.46108e-21 -0.00260607)
(6.3853e-20 -7.84465e-19 -0.00294408)
(-5.7994e-20 8.06732e-19 -0.0033358)
(-1.59282e-20 2.26104e-22 -0.0037981)
(1.85702e-20 -1.02575e-20 -0.00435815)
(-9.94338e-20 7.19054e-19 -0.00506124)
(1.15729e-19 -7.22197e-19 -0.00598401)
(-2.24256e-20 2.17118e-21 -0.00725631)
(1.58531e-20 -9.24145e-23 -0.00909551)
(3.76861e-20 6.31767e-21 -0.0118578)
(-2.46113e-19 5.38021e-19 -0.0161093)
(3.65619e-19 -1.09025e-18 -0.0227176)
(-1.78481e-19 5.5224e-19 -0.0329556)
(2.58011e-19 -4.21995e-19 -0.0486004)
(-2.49845e-19 4.97072e-19 -0.0719923)
(-5.79993e-19 5.12044e-19 -0.105995)
(1.09431e-18 -1.08487e-18 -0.153743)
(-5.35307e-19 5.47676e-19 -0.217914)
(1.84873e-20 -2.10403e-21 -0.299215)
(4.44635e-21 -3.44466e-20 -0.376776)
(4.12803e-21 3.6725e-21 -0.000668076)
(-5.62636e-21 4.50862e-19 -0.000768852)
(2.04414e-20 -4.87852e-19 -0.000881083)
(6.25648e-21 2.67121e-20 -0.00100615)
(-4.62124e-20 9.29227e-19 -0.00114565)
(2.9731e-20 -9.31783e-19 -0.00130141)
(1.00503e-20 2.24523e-20 -0.00147552)
(-1.78488e-20 -2.30694e-22 -0.00167038)
(1.16796e-20 9.53257e-21 -0.00188873)
(-3.96868e-20 8.92211e-19 -0.00213377)
(3.29376e-20 -8.83755e-19 -0.00240921)
(2.80636e-21 9.51762e-21 -0.00271944)
(9.39218e-21 2.70623e-20 -0.00306974)
(-1.13813e-20 -5.43609e-22 -0.0034666)
(1.18915e-21 -1.29345e-20 -0.00391831)
(-3.69255e-20 1.31293e-20 -0.00443599)
(3.46851e-20 1.25031e-20 -0.00503531)
(-3.04731e-21 -2.49996e-20 -0.0057398)
(8.36471e-20 -7.32952e-19 -0.0065865)
(-7.48639e-20 7.55515e-19 -0.0076362)
(2.70947e-19 -1.45234e-18 -0.00899075)
(-2.48835e-19 1.46641e-18 -0.0108219)
(3.07228e-19 -1.37061e-18 -0.0134169)
(7.03955e-20 1.31151e-19 -0.0172464)
(-3.52549e-19 1.30504e-18 -0.0230595)
(-1.19054e-19 -2.18668e-20 -0.0320062)
(1.62081e-20 3.82516e-22 -0.0457799)
(-1.8026e-20 5.53907e-22 -0.0667625)
(5.32683e-20 1.63656e-21 -0.0981414)
(2.55839e-20 1.33468e-20 -0.143942)
(-1.11176e-19 5.03816e-21 -0.208828)
(6.33478e-20 4.88094e-21 -0.297152)
(-1.62142e-22 -3.04415e-22 -0.410104)
(3.54393e-20 6.25195e-22 -0.501261)
(-3.26226e-21 6.49951e-21 -0.000962035)
(3.90146e-20 -9.4933e-19 -0.00110527)
(3.05359e-20 -9.11229e-19 -0.0012653)
(6.56029e-21 2.11591e-20 -0.00144423)
(-2.77168e-20 9.46222e-19 -0.00164453)
(-1.98955e-20 -7.98579e-21 -0.00186902)
(1.21486e-20 8.8455e-21 -0.00212091)
(-5.18757e-20 9.155e-19 -0.00240392)
(4.24341e-20 -9.29833e-19 -0.00272235)
(7.39077e-20 -8.9288e-19 -0.00308119)
(-7.51254e-20 9.22167e-19 -0.00348625)
(1.48983e-20 -1.97861e-20 -0.00394438)
(6.92897e-20 -8.89338e-19 -0.00446374)
(-9.67311e-20 9.1195e-19 -0.00505427)
(4.32387e-21 1.21964e-20 -0.00572835)
(-2.10038e-19 1.66858e-18 -0.00650212)
(1.90486e-19 -1.73099e-18 -0.00739753)
(4.78628e-20 6.1328e-20 -0.0084463)
(-2.69934e-19 1.57736e-18 -0.00969682)
(2.47982e-19 -1.64457e-18 -0.0112264)
(-3.11476e-20 -3.22598e-21 -0.0131628)
(4.71842e-19 -1.48068e-18 -0.0157196)
(-4.41997e-19 1.52904e-18 -0.0192533)
(-6.52059e-20 -7.14535e-20 -0.0243494)
(6.74422e-19 -1.28978e-18 -0.031944)
(-1.18737e-18 2.65846e-18 -0.0434825)
(-6.3861e-20 -1.54159e-19 -0.0611099)
(-8.55309e-20 -1.21099e-19 -0.0878817)
(7.61913e-19 -1.15473e-18 -0.127985)
(3.88723e-20 6.19833e-20 -0.186995)
(-8.54216e-19 7.62654e-19 -0.272164)
(8.37441e-19 -8.38953e-19 -0.392218)
(8.79191e-21 2.85216e-20 -0.553425)
(9.10784e-21 -2.66724e-21 -0.663843)
(-1.62375e-21 -2.02038e-20 -0.00130786)
(2.84071e-20 -9.87423e-19 -0.00149531)
(-5.32748e-21 -7.71601e-21 -0.00170445)
(-1.68832e-22 1.18006e-22 -0.00193787)
(1.13257e-20 8.34766e-21 -0.00219861)
(-5.41335e-20 9.49268e-19 -0.0024901)
(4.84625e-20 -9.69552e-19 -0.00281621)
(1.2644e-20 8.25325e-21 -0.00318137)
(-8.59095e-21 -1.48522e-20 -0.00359056)
(-6.10922e-21 9.80397e-21 -0.00404947)
(-7.58064e-20 9.15369e-19 -0.00456453)
(1.62734e-19 -1.867e-18 -0.00514306)
(-7.7372e-20 9.73281e-19 -0.00579346)
(-1.95656e-19 1.80313e-18 -0.00652547)
(-3.03865e-20 -4.56702e-20 -0.00735068)
(2.32902e-21 -2.68909e-20 -0.0082835)
(-6.56039e-20 -5.39507e-20 -0.00934288)
(2.62896e-19 -1.79999e-18 -0.0105559)
(4.01478e-19 -1.66527e-18 -0.0119642)
(-3.59248e-19 1.74752e-18 -0.0136367)
(-3.35325e-20 -5.42456e-20 -0.0156919)
(4.74473e-19 -1.59001e-18 -0.0183372)
(-4.19517e-19 1.68377e-18 -0.0219337)
(-6.65985e-19 1.4941e-18 -0.0270986)
(5.67351e-19 -1.57769e-18 -0.0348551)
(7.71562e-20 -1.10179e-20 -0.0468373)
(8.60349e-19 -1.39076e-18 -0.0655467)
(1.17459e-19 1.21698e-19 -0.0946545)
(-9.91637e-19 1.36084e-18 -0.139356)
(-1.59738e-20 -3.89623e-20 -0.20686)
(3.30519e-20 5.19107e-22 -0.307707)
(-3.31852e-20 1.56182e-20 -0.460572)
(-5.01772e-19 5.24695e-19 -0.70161)
(4.93007e-19 -5.3399e-19 -0.962137)
(-1.06938e-20 -3.15748e-21 0.00957634)
(-1.06544e-20 -3.18151e-22 0.0052204)
(9.98511e-21 9.87462e-21 0.00153702)
(-6.90422e-21 2.2369e-21 -0.00154004)
(7.42792e-21 -1.17105e-20 -0.00408467)
(6.54274e-23 3.52944e-21 -0.00617323)
(-1.73468e-22 -9.78534e-23 -0.00787701)
(-5.65827e-21 1.23752e-23 -0.00925699)
(5.50115e-21 -1.20316e-23 -0.0103629)
(-1.65598e-22 3.62178e-25 -0.0112363)
(-1.60218e-22 3.50412e-25 -0.0119107)
(4.80276e-21 -1.05041e-23 -0.0124143)
(-4.81819e-21 1.05379e-23 -0.0127694)
(-4.37854e-21 9.57631e-24 -0.0129947)
(2.82621e-22 -1.04431e-21 -0.013106)
(6.2888e-21 4.11934e-21 -0.0131175)
(-2.17058e-21 -1.79975e-21 -0.0130413)
(-7.47101e-23 -9.82937e-22 -0.0128886)
(-2.82336e-23 7.80718e-22 -0.0126694)
(-2.23623e-21 -1.40995e-20 -0.0123926)
(2.27617e-21 1.31726e-20 -0.0120658)
(-1.55289e-21 -1.73719e-20 -0.0116957)
(-1.53768e-20 2.53114e-20 0.0277526)
(3.07514e-20 -1.00273e-20 0.0147877)
(-2.4811e-20 -2.17958e-20 0.00373548)
(8.66746e-21 2.26544e-20 -0.00542121)
(-9.04553e-21 -2.21852e-20 -0.0129376)
(-1.27079e-20 6.15061e-21 -0.0190696)
(1.13248e-20 6.85393e-21 -0.0240486)
(1.19516e-20 1.70763e-20 -0.0280651)
(1.28538e-21 -2.87597e-20 -0.03127)
(-2.2792e-20 6.77222e-21 -0.0337901)
(2.18613e-20 -5.08677e-21 -0.0357261)
(-2.52157e-21 -5.28294e-21 -0.0371613)
(-9.87662e-21 2.03375e-20 -0.0381623)
(-1.09368e-20 -7.57433e-21 -0.0387829)
(8.515e-21 -1.68542e-20 -0.0390704)
(1.14534e-20 1.00338e-20 -0.039066)
(-7.84669e-21 4.33256e-21 -0.0388056)
(-4.27582e-22 -1.23424e-21 -0.0383218)
(1.35487e-23 -1.20725e-22 -0.0376441)
(7.27874e-22 -1.59193e-24 -0.0367988)
(2.10049e-21 3.31367e-23 -0.0358086)
(-2.16367e-21 -3.42292e-21 -0.0346929)
(-1.38585e-20 -1.08757e-21 0.0429759)
(-1.39815e-20 -1.54149e-20 0.0215602)
(3.60632e-20 2.94556e-20 0.00315041)
(-4.3737e-20 -1.25302e-20 -0.0118237)
(1.80168e-20 1.21522e-20 -0.0239225)
(2.63756e-20 2.06799e-20 -0.0336702)
(-1.7601e-20 -5.98264e-20 -0.0415083)
(1.73659e-20 -1.87281e-20 -0.0477792)
(-3.14664e-20 4.01562e-20 -0.0527413)
(-8.18249e-21 2.31282e-20 -0.0566072)
(4.20623e-20 -4.40852e-20 -0.0595445)
(-3.20277e-20 3.44678e-20 -0.0616873)
(6.8899e-21 -1.12558e-20 -0.0631428)
(-3.40392e-21 -9.42201e-21 -0.0639965)
(5.34354e-20 4.24843e-20 -0.0643239)
(-4.15794e-21 3.38751e-20 -0.0641907)
(-4.68315e-20 -5.79305e-20 -0.0636543)
(1.1048e-20 -5.76654e-21 -0.0627665)
(-7.66765e-21 2.86077e-22 -0.061574)
(4.18781e-22 -2.97214e-21 -0.060119)
(3.12233e-20 8.41017e-20 -0.0584375)
(-3.14261e-20 -7.30155e-20 -0.0565613)
(1.97131e-21 2.6545e-20 0.0524533)
(8.56811e-21 -5.41851e-20 0.0229181)
(-7.34222e-20 1.54503e-20 -0.00264268)
(1.2052e-19 8.28139e-20 -0.0228186)
(-3.12737e-20 -1.11689e-19 -0.0387174)
(-1.53237e-20 2.32635e-20 -0.0512788)
(2.19336e-22 1.89263e-20 -0.0612254)
(-1.03906e-20 2.57178e-21 -0.0690788)
(-2.08476e-20 1.162e-20 -0.075215)
(7.03688e-20 -2.73624e-20 -0.0799245)
(-2.67173e-20 1.28212e-20 -0.0834331)
(-1.35197e-20 6.31831e-22 -0.0859153)
(1.94665e-20 1.02908e-20 -0.0875107)
(-7.41895e-20 -6.79756e-20 -0.0883337)
(5.76882e-20 4.62455e-20 -0.0884819)
(-1.04901e-20 1.26169e-20 -0.08804)
(9.47421e-21 -8.8692e-21 -0.0870826)
(7.47096e-20 1.37674e-19 -0.0856763)
(-7.91078e-20 -1.2162e-19 -0.0838817)
(6.73481e-22 -1.06061e-20 -0.081753)
(-2.85302e-21 -9.80491e-23 -0.0793395)
(2.9641e-21 4.94006e-22 -0.0766802)
(2.70572e-20 9.54703e-23 0.0523987)
(3.31372e-22 3.98942e-22 0.0151161)
(-6.11258e-20 4.55386e-22 -0.0168674)
(9.05252e-20 -2.69456e-22 -0.0409684)
(-2.70909e-20 5.38359e-23 -0.0592799)
(-4.34647e-20 -8.2327e-22 -0.0733461)
(1.40913e-20 5.53478e-23 -0.0842493)
(-1.16194e-20 -9.747e-23 -0.0927068)
(9.38623e-20 -2.56783e-20 -0.0991867)
(2.21888e-20 8.8094e-20 -0.104034)
(-1.15922e-21 7.1229e-20 -0.107516)
(-4.99919e-20 -1.3602e-19 -0.109832)
(9.72424e-20 1.6505e-19 -0.111145)
(-1.16065e-19 -1.55922e-19 -0.111586)
(5.07468e-20 1.05583e-19 -0.111267)
(-6.23311e-20 -1.11211e-19 -0.110282)
(5.17685e-21 -7.29163e-21 -0.108717)
(-2.73519e-20 -1.82805e-21 -0.106646)
(2.43688e-20 -3.60214e-21 -0.10414)
(1.51821e-21 2.75848e-21 -0.101261)
(7.08506e-21 2.66054e-22 -0.0980645)
(-1.04992e-20 -7.74086e-21 -0.0946004)
(-1.38802e-21 4.72051e-21 -0.0909107)
(-8.04983e-20 -3.44562e-22 0.039178)
(2.39405e-20 3.11738e-20 -0.00724129)
(8.43675e-20 -3.6427e-20 -0.043783)
(-4.39336e-20 -2.6275e-20 -0.0692857)
(-3.77639e-20 5.95301e-20 -0.0877118)
(5.16813e-20 -7.68854e-20 -0.101338)
(-6.14866e-21 -5.58423e-20 -0.111611)
(-2.79191e-20 -7.73355e-20 -0.119392)
(7.31961e-20 3.12621e-19 -0.125142)
(-1.4322e-19 -1.02113e-19 -0.129234)
(6.06876e-20 -4.64776e-20 -0.131944)
(1.68792e-19 2.67015e-19 -0.133479)
(-1.89757e-19 -2.17741e-19 -0.134001)
(2.44874e-20 -3.0688e-21 -0.133644)
(-1.6455e-19 -3.62422e-19 -0.132517)
(1.85582e-19 3.23592e-19 -0.130716)
(-4.05356e-20 3.46255e-20 -0.128328)
(-2.27737e-19 -4.70067e-19 -0.125429)
(2.46731e-19 4.38587e-19 -0.12209)
(-5.23104e-21 5.82429e-21 -0.118377)
(1.50277e-19 2.93719e-19 -0.114349)
(-1.26083e-19 -2.70762e-19 -0.110057)
(-9.70686e-21 -1.15516e-20 -0.105544)
(-7.76859e-21 2.32066e-20 0.0101798)
(3.54819e-20 -6.06286e-20 -0.0465426)
(4.66925e-21 3.72579e-20 -0.0790564)
(-3.64859e-20 -3.86938e-22 -0.0998642)
(2.35166e-20 -2.95317e-20 -0.114451)
(3.59474e-20 1.74391e-19 -0.124931)
(-2.31684e-20 9.54131e-20 -0.132678)
(-2.73993e-20 -2.10887e-19 -0.138419)
(-5.81861e-20 -1.14473e-21 -0.142466)
(-5.61564e-20 -3.34442e-19 -0.145138)
(1.36653e-19 2.53914e-19 -0.146674)
(9.49864e-20 4.23716e-19 -0.147235)
(-1.43784e-19 -3.47075e-19 -0.146942)
(2.82162e-20 -4.56306e-20 -0.145891)
(2.34112e-19 4.94446e-19 -0.144166)
(-2.68974e-19 -4.31331e-19 -0.141839)
(-2.49211e-19 -5.66387e-19 -0.138977)
(1.21849e-20 -5.88416e-20 -0.135643)
(-3.48144e-20 -3.9792e-20 -0.131897)
(-4.86888e-21 -5.02122e-20 -0.127793)
(3.00318e-19 6.48793e-19 -0.123386)
(1.55458e-19 3.89887e-19 -0.118722)
(-3.36054e-19 -7.40946e-19 -0.113837)
(7.39005e-20 9.63179e-20 -0.0423825)
(-4.15886e-20 -0 -0.0697065)
(2.92129e-22 -0 -0.0867551)
(0 -0 -0.0991705)
(-2.70092e-22 -0 -0.108827)
(-3.30886e-20 -0 -0.116616)
(9.63298e-22 -0 -0.122873)
(3.23588e-20 -0 -0.127633)
(-2.35991e-22 -0 -0.131081)
(2.89255e-20 -0 -0.1334)
(-2.85864e-20 -0 -0.13472)
(-2.66178e-20 -0 -0.135148)
(2.65069e-20 -0 -0.134783)
(0 -0 -0.13371)
(-2.29167e-20 -0 -0.132006)
(2.28207e-20 -0 -0.129743)
(2.03332e-20 -0 -0.126986)
(-1.2203e-21 -0 -0.123797)
(-1.22414e-21 -0 -0.120235)
(-1.35032e-21 -0 -0.116354)
(-1.6359e-20 -0 -0.112206)
(-6.8399e-21 -0 -0.107834)
(1.3263e-20 -0 -0.103274)
(6.31476e-21 -0 -0.0985646)
(0 -5.45008e-20 -0.124452)
(0 -0 -0.123282)
(0 -0 -0.12686)
(0 -0 -0.131316)
(0 -0 -0.135567)
(0 -0 -0.139365)
(0 -0 -0.142578)
(0 -0 -0.145072)
(0 -0 -0.146824)
(0 -0 -0.147846)
(0 -0 -0.148165)
(0 -0 -0.147812)
(0 -0 -0.146826)
(0 -0 -0.145248)
(0 -0 -0.143121)
(0 -0 -0.140489)
(0 -0 -0.137397)
(0 -0 -0.133893)
(0 -0 -0.130022)
(0 -0 -0.12583)
(0 -0 -0.121363)
(0 -0 -0.116662)
(0 -0 -0.11176)
(0 4.28875e-22 -0.184102)
(0 -0 -0.171945)
(0 -0 -0.166573)
(0 -0 -0.164367)
(0 -0 -0.163574)
(0 -0 -0.163456)
(0 -0 -0.163574)
(0 -0 -0.163629)
(0 -0 -0.163441)
(0 -0 -0.162902)
(0 -0 -0.161949)
(0 -0 -0.160549)
(0 -0 -0.158687)
(0 -0 -0.156364)
(0 -0 -0.153592)
(0 -0 -0.150392)
(0 -0 -0.146789)
(0 -0 -0.142815)
(0 -0 -0.138505)
(0 -0 -0.133896)
(0 -0 -0.129028)
(0 -0 -0.123938)
(0 -0 -0.118655)
(0 -0 -0.226533)
(0 -0 -0.210008)
(0 -0 -0.199577)
(0 -0 -0.192731)
(0 -0 -0.187946)
(0 -0 -0.184476)
(0 -0 -0.181804)
(0 -0 -0.179549)
(0 -0 -0.17745)
(0 -0 -0.175325)
(0 -0 -0.17305)
(0 -0 -0.170541)
(0 -0 -0.167743)
(0 -0 -0.164624)
(0 -0 -0.16117)
(0 -0 -0.157377)
(0 -0 -0.153255)
(0 -0 -0.148821)
(0 -0 -0.144098)
(0 -0 -0.139115)
(0 -0 -0.133904)
(0 -0 -0.128497)
(0 -0 -0.12292)
(0 -4.05032e-22 -0.253417)
(0 -0 -0.236033)
(0 -0 -0.223448)
(0 -0 -0.21401)
(0 -0 -0.206609)
(0 -0 -0.200698)
(0 -0 -0.19584)
(0 -0 -0.19167)
(0 -0 -0.187913)
(0 -0 -0.184365)
(0 -0 -0.180872)
(0 -0 -0.177323)
(0 -0 -0.173637)
(0 -0 -0.169761)
(0 -0 -0.165659)
(0 -0 -0.161312)
(0 -0 -0.156715)
(0 -0 -0.151873)
(0 -0 -0.146799)
(0 -0 -0.141512)
(0 -0 -0.136038)
(0 -0 -0.130403)
(0 -0 -0.12463)
(0 -4.93669e-20 -0.265828)
(0 -0 -0.249699)
(0 -0 -0.237028)
(0 -0 -0.226738)
(0 -0 -0.218099)
(0 -0 -0.210793)
(0 -0 -0.204528)
(0 -0 -0.199022)
(0 -0 -0.194037)
(0 -0 -0.189386)
(0 -0 -0.184917)
(0 -0 -0.180516)
(0 -0 -0.176094)
(0 -0 -0.171585)
(0 -0 -0.166945)
(0 -0 -0.162145)
(0 -0 -0.157169)
(0 -0 -0.152013)
(0 -0 -0.146682)
(0 -0 -0.141189)
(0 -0 -0.135552)
(0 -0 -0.129794)
(0 -0 -0.12393)
(0 4.95304e-20 -0.265257)
(0 -0 -0.251611)
(0 -0 -0.240237)
(0 -0 -0.230421)
(0 -0 -0.221728)
(0 -0 -0.214028)
(0 -0 -0.207176)
(0 -0 -0.200992)
(0 -0 -0.195307)
(0 -0 -0.189976)
(0 -0 -0.184875)
(0 -0 -0.179901)
(0 -0 -0.174974)
(0 -0 -0.170031)
(0 -0 -0.165024)
(0 -0 -0.159922)
(0 -0 -0.154706)
(0 -0 -0.149367)
(0 -0 -0.143903)
(0 -0 -0.138324)
(0 -0 -0.132642)
(0 -0 -0.126874)
(0 -0 -0.121035)
(0 3.49403e-22 -0.253807)
(0 -0 -0.243211)
(0 -0 -0.23394)
(0 -0 -0.225488)
(0 -0 -0.21763)
(0 -0 -0.210363)
(0 -0 -0.203658)
(0 -0 -0.197431)
(0 -0 -0.191588)
(0 -0 -0.186036)
(0 -0 -0.180688)
(0 -0 -0.175471)
(0 -0 -0.170319)
(0 -0 -0.165183)
(0 -0 -0.160021)
(0 -0 -0.154806)
(0 -0 -0.149519)
(0 -0 -0.14415)
(0 -0 -0.138697)
(0 -0 -0.133164)
(0 -0 -0.127564)
(0 -0 -0.121908)
(0 -0 -0.116208)
(0 -3.27329e-22 -0.234035)
(0 -0 -0.226567)
(0 -0 -0.219737)
(0 -0 -0.213132)
(0 -0 -0.20667)
(0 -0 -0.200422)
(0 -0 -0.19443)
(0 -0 -0.188689)
(0 -0 -0.183164)
(0 -0 -0.177815)
(0 -0 -0.172596)
(0 -0 -0.167464)
(0 -0 -0.162377)
(0 -0 -0.157302)
(0 -0 -0.152211)
(0 -0 -0.147083)
(0 -0 -0.141904)
(0 -0 -0.136669)
(0 -0 -0.131374)
(0 -0 -0.126026)
(0 -0 -0.120633)
(0 -0 -0.115207)
(0 -0 -0.109758)
(0 3.90228e-20 -0.208682)
(0 -0 -0.204087)
(0 -0 -0.199678)
(0 -0 -0.195065)
(0 -0 -0.190256)
(0 -0 -0.185352)
(0 -0 -0.180437)
(0 -0 -0.175549)
(0 -0 -0.170702)
(0 -0 -0.165896)
(0 -0 -0.161121)
(0 -0 -0.15636)
(0 -0 -0.151599)
(0 -0 -0.146819)
(0 -0 -0.142009)
(0 -0 -0.137158)
(0 -0 -0.132259)
(0 -0 -0.127311)
(0 -0 -0.122316)
(0 -0 -0.11728)
(0 -0 -0.112212)
(0 -0 -0.107124)
(0 -0 -0.102024)
(0 -3.85707e-20 -0.180395)
(0 -0 -0.178217)
(0 -0 -0.175963)
(0 -0 -0.173235)
(0 -0 -0.170086)
(0 -0 -0.166624)
(0 -0 -0.162944)
(0 -0 -0.159109)
(0 -0 -0.155159)
(0 -0 -0.151122)
(0 -0 -0.147012)
(0 -0 -0.142838)
(0 -0 -0.138603)
(0 -0 -0.134307)
(0 -0 -0.129951)
(0 -0 -0.125534)
(0 -0 -0.121059)
(0 -0 -0.11653)
(0 -0 -0.111953)
(0 -0 -0.107337)
(0 -0 -0.102692)
(0 -0 -0.0980304)
(0 -0 -0.0933615)
(0 -3.30793e-20 -0.151492)
(0 -0 -0.151182)
(0 -0 -0.150677)
(0 -0 -0.149561)
(0 -0 -0.147905)
(0 -0 -0.145805)
(0 -0 -0.143351)
(0 -0 -0.140612)
(0 -0 -0.137641)
(0 -0 -0.134478)
(0 -0 -0.131156)
(0 -0 -0.127696)
(0 -0 -0.124116)
(0 -0 -0.120429)
(0 -0 -0.116646)
(0 -0 -0.112776)
(0 -0 -0.10883)
(0 -0 -0.104816)
(0 -0 -0.100745)
(0 -0 -0.0966277)
(0 -0 -0.0924776)
(0 -0 -0.088308)
(0 -0 -0.0841281)
(0 3.29377e-20 -0.123809)
(0 -0 -0.12481)
(0 -0 -0.125594)
(0 -0 -0.125734)
(0 -0 -0.125297)
(0 -0 -0.124362)
(0 -0 -0.123004)
(0 -0 -0.121286)
(0 -0 -0.119262)
(0 -0 -0.116977)
(0 -0 -0.114467)
(0 -0 -0.111764)
(0 -0 -0.108892)
(0 -0 -0.105873)
(0 -0 -0.102725)
(0 -0 -0.0994636)
(0 -0 -0.0961044)
(0 -0 -0.092661)
(0 -0 -0.0891471)
(0 -0 -0.0855764)
(0 -0 -0.0819635)
(0 -0 -0.0783229)
(0 -0 -0.074665)
(0 -0 -0.098633)
(0 -0 -0.100437)
(0 -0 -0.102064)
(0 -0 -0.103085)
(0 -0 -0.103555)
(0 -0 -0.103529)
(0 -0 -0.103066)
(0 -0 -0.102217)
(0 -0 -0.101028)
(0 -0 -0.0995424)
(0 -0 -0.0977956)
(0 -0 -0.0958202)
(0 -0 -0.093644)
(0 -0 -0.0912917)
(0 -0 -0.0887851)
(0 -0 -0.0861439)
(0 -0 -0.0833861)
(0 -0 -0.0805283)
(0 -0 -0.0775864)
(0 -0 -0.0745758)
(0 -0 -0.071512)
(0 -0 -0.0684103)
(0 -0 -0.065282)
(0 -2.51748e-20 -0.0767138)
(0 -0 -0.0789029)
(0 -0 -0.0809832)
(0 -0 -0.0825409)
(0 -0 -0.0836094)
(0 -0 -0.0842264)
(0 -0 -0.0844303)
(0 -0 -0.0842593)
(0 -0 -0.08375)
(0 -0 -0.0829369)
(0 -0 -0.081852)
(0 -0 -0.0805247)
(0 -0 -0.0789817)
(0 -0 -0.0772476)
(0 -0 -0.0753446)
(0 -0 -0.0732933)
(0 -0 -0.0711125)
(0 -0 -0.06882)
(0 -0 -0.0664325)
(0 -0 -0.0639658)
(0 -0 -0.0614358)
(0 -0 -0.0588581)
(0 -0 -0.0562441)
(0 2.50693e-20 -0.0583398)
(0 -0 -0.0605998)
(0 -0 -0.0628273)
(0 -0 -0.064633)
(0 -0 -0.0660329)
(0 -0 -0.0670468)
(0 -0 -0.0676972)
(0 -0 -0.0680088)
(0 -0 -0.0680074)
(0 -0 -0.0677187)
(0 -0 -0.0671679)
(0 -0 -0.0663794)
(0 -0 -0.065376)
(0 -0 -0.0641797)
(0 -0 -0.0628109)
(0 -0 -0.0612891)
(0 -0 -0.0596322)
(0 -0 -0.0578575)
(0 -0 -0.0559811)
(0 -0 -0.0540185)
(0 -0 -0.0519851)
(0 -0 -0.0498959)
(0 -0 -0.0477623)
(0 2.09445e-20 -0.0434454)
(0 -0 -0.0455648)
(0 -0 -0.0477212)
(0 -0 -0.0495579)
(0 -0 -0.0510766)
(0 -0 -0.0522836)
(0 -0 -0.0531885)
(0 -0 -0.0538049)
(0 -0 -0.0541483)
(0 -0 -0.054236)
(0 -0 -0.0540858)
(0 -0 -0.0537159)
(0 -0 -0.0531445)
(0 -0 -0.0523896)
(0 -0 -0.0514683)
(0 -0 -0.0503974)
(0 -0 -0.0491931)
(0 -0 -0.0478708)
(0 -0 -0.0464452)
(0 -0 -0.0449304)
(0 -0 -0.0433408)
(0 -0 -0.0416903)
(0 -0 -0.0399897)
(0 -2.08573e-20 -0.0317287)
(0 -0 -0.0335853)
(0 -0 -0.035534)
(0 -0 -0.0372547)
(0 -0 -0.0387397)
(0 -0 -0.0399856)
(0 -0 -0.0409932)
(0 -0 -0.0417671)
(0 -0 -0.0423148)
(0 -0 -0.042646)
(0 -0 -0.042772)
(0 -0 -0.042705)
(0 -0 -0.0424583)
(0 -0 -0.0420451)
(0 -0 -0.0414792)
(0 -0 -0.040774)
(0 -0 -0.0399429)
(0 -0 -0.0389988)
(0 -0 -0.0379546)
(0 -0 -0.0368226)
(0 -0 -0.0356153)
(0 -0 -0.0343453)
(0 -0 -0.0330223)
(0 -0 -0.0227573)
(0 -0 -0.024299)
(0 -0 -0.0259707)
(0 -0 -0.02749)
(0 -0 -0.0288441)
(0 -0 -0.0300239)
(0 -0 -0.0310245)
(0 -0 -0.0318444)
(0 -0 -0.0324853)
(0 -0 -0.0329509)
(0 -0 -0.0332471)
(0 -0 -0.0333812)
(0 -0 -0.0333615)
(0 -0 -0.0331975)
(0 -0 -0.0328988)
(0 -0 -0.0324758)
(0 -0 -0.0319387)
(0 -0 -0.0312981)
(0 -0 -0.0305642)
(0 -0 -0.0297474)
(0 -0 -0.0288582)
(0 -0 -0.0279074)
(0 -0 -0.0269036)
(0 -0 -0.0160539)
(0 -0 -0.0172776)
(0 -0 -0.0186528)
(0 -0 -0.0199338)
(0 -0 -0.0211056)
(0 -0 -0.0221569)
(0 -0 -0.0230797)
(0 -0 -0.023869)
(0 -0 -0.0245224)
(0 -0 -0.0250398)
(0 -0 -0.0254227)
(0 -0 -0.0256746)
(0 -0 -0.0258002)
(0 -0 -0.0258051)
(0 -0 -0.0256958)
(0 -0 -0.0254796)
(0 -0 -0.0251638)
(0 -0 -0.0247565)
(0 -0 -0.0242655)
(0 -0 -0.0236991)
(0 -0 -0.0230657)
(0 -0 -0.0223746)
(0 -0 -0.0216326)
(0 -1.17163e-22 -0.0111546)
(0 -0 -0.0120877)
(0 -0 -0.01318)
(0 -0 -0.0142197)
(0 -0 -0.0151925)
(0 -0 -0.0160866)
(0 -0 -0.0168929)
(0 -0 -0.0176049)
(0 -0 -0.018218)
(0 -0 -0.0187294)
(0 -0 -0.0191383)
(0 -0 -0.0194451)
(0 -0 -0.0196516)
(0 -0 -0.0197607)
(0 -0 -0.0197763)
(0 -0 -0.019703)
(0 -0 -0.0195457)
(0 -0 -0.01931)
(0 -0 -0.0190019)
(0 -0 -0.0186273)
(0 -0 -0.0181931)
(0 -0 -0.0177067)
(0 -0 -0.0171734)
(0 -6.81048e-21 -0.00764478)
(0 -0 -0.00833004)
(0 -0 -0.00917181)
(0 -0 -0.00998902)
(0 -0 -0.010769)
(0 -0 -0.011501)
(0 -0 -0.0121764)
(0 -0 -0.0127881)
(0 -0 -0.0133308)
(0 -0 -0.0138004)
(0 -0 -0.0141946)
(0 -0 -0.0145119)
(0 -0 -0.0147523)
(0 -0 -0.0149167)
(0 -0 -0.0150068)
(0 -0 -0.0150252)
(0 -0 -0.014975)
(0 -0 -0.0148597)
(0 -0 -0.0146835)
(0 -0 -0.0144508)
(0 -0 -0.0141665)
(0 -0 -0.0138365)
(0 -0 -0.013465)
(0 1.30675e-20 -0.00517539)
(0 -0 -0.00566014)
(0 -0 -0.00629193)
(0 -0 -0.00691655)
(0 -0 -0.00752365)
(0 -0 -0.00810409)
(0 -0 -0.00865028)
(0 -0 -0.00915579)
(0 -0 -0.00961521)
(0 -0 -0.0100242)
(0 -0 -0.0103796)
(0 -0 -0.0106791)
(0 -0 -0.0109215)
(0 -0 -0.0111063)
(0 -0 -0.0112339)
(0 -0 -0.0113054)
(0 -0 -0.0113223)
(0 -0 -0.0112869)
(0 -0 -0.0112017)
(0 -0 -0.0110696)
(0 -0 -0.0108942)
(0 -0 -0.0106802)
(0 -0 -0.0104304)
(0 -6.25915e-21 -0.00346601)
(0 -0 -0.00379552)
(0 -0 -0.00425868)
(0 -0 -0.00472447)
(0 -0 -0.00518486)
(0 -0 -0.00563258)
(0 -0 -0.00606137)
(0 -0 -0.00646576)
(0 -0 -0.00684092)
(0 -0 -0.00718272)
(0 -0 -0.00748783)
(0 -0 -0.00775366)
(0 -0 -0.00797837)
(0 -0 -0.00816078)
(0 -0 -0.0083004)
(0 -0 -0.00839729)
(0 -0 -0.00845203)
(0 -0 -0.00846567)
(0 -0 -0.00843965)
(0 -0 -0.00837584)
(0 -0 -0.00827679)
(0 -0 -0.00814583)
(0 -0 -0.00798506)
(0 -0 -0.00229974)
(0 -0 -0.00251358)
(0 -0 -0.002846)
(0 -0 -0.00318576)
(0 -0 -0.00352692)
(0 -0 -0.00386394)
(0 -0 -0.00419195)
(0 -0 -0.00450657)
(0 -0 -0.00480375)
(0 -0 -0.00507989)
(0 -0 -0.00533193)
(0 -0 -0.00555731)
(0 -0 -0.00575402)
(0 -0 -0.00592058)
(0 -0 -0.006056)
(0 -0 -0.00615976)
(0 -0 -0.00623177)
(0 -0 -0.00627234)
(0 -0 -0.00628214)
(0 -0 -0.00626222)
(0 -0 -0.00621428)
(0 -0 -0.00614078)
(0 -0 -0.00604306)
(0 -7.89432e-23 -0.00151412)
(0 -0 -0.00164477)
(0 -0 -0.00187876)
(0 -0 -0.00212166)
(0 -0 -0.00236926)
(0 -0 -0.00261748)
(0 -0 -0.00286269)
(0 -0 -0.00310155)
(0 -0 -0.00333085)
(0 -0 -0.00354765)
(0 -0 -0.00374931)
(0 -0 -0.00393356)
(0 -0 -0.00409849)
(0 -0 -0.00424255)
(0 -0 -0.00436458)
(0 -0 -0.00446377)
(0 -0 -0.00453965)
(0 -0 -0.00459206)
(0 -0 -0.00462115)
(0 -0 -0.00462743)
(0 -0 -0.00461197)
(0 -0 -0.00457659)
(0 -0 -0.00452203)
(0 -0 -0.000990672)
(0 -0 -0.00106353)
(0 -0 -0.00122526)
(0 -0 -0.00139571)
(0 -0 -0.00157202)
(0 -0 -0.00175125)
(0 -0 -0.00193079)
(0 -0 -0.00210821)
(0 -0 -0.00228108)
(0 -0 -0.00244709)
(0 -0 -0.00260411)
(0 -0 -0.00275025)
(0 -0 -0.00288382)
(0 -0 -0.00300339)
(0 -0 -0.00310783)
(0 -0 -0.00319621)
(0 -0 -0.0032679)
(0 -0 -0.0033225)
(0 -0 -0.00335983)
(0 -0 -0.00338005)
(0 -0 -0.00338382)
(0 -0 -0.00337247)
(0 -0 -0.00334632)
(0 4.29824e-21 -0.000645055)
(0 -0 -0.000679128)
(0 -0 -0.000788944)
(0 -0 -0.000906472)
(0 -0 -0.00102981)
(0 -0 -0.00115689)
(0 -0 -0.00128589)
(0 -0 -0.00141509)
(0 -0 -0.00154271)
(0 -0 -0.00166703)
(0 -0 -0.00178641)
(0 -0 -0.00189932)
(0 -0 -0.0020044)
(0 -0 -0.00210041)
(0 -0 -0.00218632)
(0 -0 -0.00226126)
(0 -0 -0.00232454)
(0 -0 -0.00237567)
(0 -0 -0.00241431)
(0 -0 -0.00244041)
(0 -0 -0.00245436)
(0 -0 -0.00245721)
(0 -0 -0.00244894)
(0 -8.27608e-21 -0.000418467)
(0 -0 -0.000427329)
(0 -0 -0.000500558)
(0 -0 -0.000580245)
(0 -0 -0.000665124)
(0 -0 -0.000753743)
(0 -0 -0.000844831)
(0 -0 -0.000937211)
(0 -0 -0.00102964)
(0 -0 -0.00112086)
(0 -0 -0.00120968)
(0 -0 -0.00129492)
(0 -0 -0.00137551)
(0 -0 -0.00145046)
(0 -0 -0.00151889)
(0 -0 -0.00158005)
(0 -0 -0.00163329)
(0 -0 -0.00167809)
(0 -0 -0.00171409)
(0 -0 -0.00174109)
(0 -0 -0.00175938)
(0 -0 -0.00176984)
(0 -0 -0.00177239)
(0 3.97909e-21 -0.000270878)
(0 -0 -0.000264234)
(0 -0 -0.000311404)
(0 -0 -0.000364778)
(0 -0 -0.00042241)
(0 -0 -0.000483306)
(0 -0 -0.000546607)
(0 -0 -0.000611554)
(0 -0 -0.000677308)
(0 -0 -0.000743008)
(0 -0 -0.000807791)
(0 -0 -0.000870812)
(0 -0 -0.00093126)
(0 -0 -0.000988373)
(0 -0 -0.00104145)
(0 -0 -0.00108987)
(0 -0 -0.00113307)
(0 -0 -0.00117058)
(0 -0 -0.00120202)
(0 -0 -0.00122719)
(0 -0 -0.00124629)
(0 -0 -0.00126012)
(0 -0 -0.00126899)
(0 -0 -0.000174702)
(0 -0 -0.000160341)
(0 -0 -0.000190437)
(0 -0 -0.000224225)
(0 -0 -0.000263166)
(0 -0 -0.000304556)
(0 -0 -0.000347968)
(0 -0 -0.000392975)
(0 -0 -0.000439053)
(0 -0 -0.000485634)
(0 -0 -0.000532133)
(0 -0 -0.000577956)
(0 -0 -0.000622517)
(0 -0 -0.000665251)
(0 -0 -0.000705625)
(0 -0 -0.000743141)
(0 -0 -0.000777349)
(0 -0 -0.000807845)
(0 -0 -0.000834288)
(0 -0 -0.00085647)
(0 -0 -0.000874538)
(0 -0 -0.000889217)
(0 -0 -0.000900823)
(0 -0 -9.48696e-05)
(0 -0 -0.000114316)
(0 -0 -0.00013644)
(0 -0 -0.000161182)
(0 -0 -0.000189035)
(0 -0 -0.000218504)
(0 -0 -0.000249388)
(0 -0 -0.000281373)
(0 -0 -0.0003141)
(0 -0 -0.000347178)
(0 -0 -0.000380205)
(0 -0 -0.00041277)
(0 -0 -0.000444469)
(0 -0 -0.000474909)
(0 -0 -0.000503712)
(0 -0 -0.000530525)
(0 -0 -0.000555017)
(0 -0 -0.000576899)
(0 -0 -0.000595977)
(0 -0 -0.000612332)
(0 -0 -0.000626554)
(0 -0 -0.000638498)
(-5.41326e-21 -2.07289e-20 -0.534994)
(4.65356e-20 -2.94948e-20 -0.45767)
(1.79065e-22 -2.47224e-20 -0.381885)
(4.86767e-20 5.58794e-21 -0.307406)
(-3.50404e-22 4.90703e-20 -0.233056)
(-8.67379e-22 -1.05086e-19 -0.157586)
(8.66522e-20 4.10566e-20 -0.0869171)
(1.41505e-20 -1.34373e-19 -0.516253)
(-4.2947e-20 4.4862e-19 -0.45831)
(-3.25642e-20 -3.49029e-19 -0.39931)
(-9.36189e-20 1.4973e-20 -0.339381)