/*--------------------------------*- C++ -*----------------------------------*\
| =========                 |                                                 |
| \\      /  F ield         | OpenFOAM: The Open Source CFD Toolbox           |
|  \\    /   O peration     | Version:  2412                                  |
|   \\  /    A nd           | Website:  www.openfoam.com                      |
|    \\/     M anipulation  |                                                 |
\*---------------------------------------------------------------------------*/
FoamFile
{
    version     2.0;
    format      ascii;
    arch        "LSB;label=32;scalar=64";
    class       volVectorField;
    location    "4";
    object      U;
}
// * * * * * * * * * * * * * * * * * * * * * * * * * * * * * * * * * * * * * //

dimensions      [0 1 -1 0 0 0 0];

internalField   nonuniform List<vector> 
5285
(
(0.110802 -0.00255376 0)
(0.110314 -0.00236147 0)
(0.110117 -0.00280277 0)
(0.109878 -0.00324307 0)
(0.10962 -0.00368012 0)
(0.10934 -0.00410665 0)
(0.109037 -0.00451214 0)
(0.108715 -0.00488612 0)
(0.108378 -0.00522059 0)
(0.108027 -0.00551132 0)
(0.107667 -0.00575803 0)
(0.1073 -0.00596348 0)
(0.106928 -0.00613212 0)
(0.106556 -0.00626874 0)
(0.106184 -0.00637755 0)
(0.105816 -0.00646184 0)
(0.105452 -0.00652393 0)
(0.105096 -0.00656545 0)
(0.104748 -0.00658764 0)
(0.104409 -0.00659159 0)
(0.104082 -0.0065784 0)
(0.103766 -0.00654922 0)
(0.103462 -0.00650529 0)
(0.10317 -0.00644794 0)
(0.10986 -0.00218872 0)
(0.109682 -0.00259967 0)
(0.109467 -0.00301236 0)
(0.109234 -0.00342445 0)
(0.10898 -0.00382862 0)
(0.108705 -0.0042144 0)
(0.108411 -0.00457139 0)
(0.108102 -0.00489165 0)
(0.107781 -0.00517099 0)
(0.107449 -0.00540913 0)
(0.10711 -0.00560876 0)
(0.106766 -0.0057742 0)
(0.10642 -0.00591007 0)
(0.106073 -0.00602038 0)
(0.105729 -0.00610818 0)
(0.105389 -0.00617558 0)
(0.105054 -0.00622399 0)
(0.104726 -0.00625443 0)
(0.104406 -0.00626777 0)
(0.104096 -0.00626492 0)
(0.103795 -0.00624685 0)
(0.103505 -0.00621463 0)
(0.103227 -0.00616942 0)
(0.109435 -0.00203356 0)
(0.109276 -0.00241678 0)
(0.109082 -0.00280406 0)
(0.108872 -0.00319294 0)
(0.108641 -0.00357609 0)
(0.108391 -0.0039431 0)
(0.108123 -0.00428369 0)
(0.10784 -0.00458999 0)
(0.107544 -0.00485791 0)
(0.107238 -0.00508718 0)
(0.106925 -0.00528046 0)
(0.106606 -0.00544198 0)
(0.106284 -0.00557621 0)
(0.105961 -0.005687 0)
(0.105639 -0.00577718 0)
(0.10532 -0.00584867 0)
(0.105005 -0.00590267 0)
(0.104696 -0.00594001 0)
(0.104394 -0.00596138 0)
(0.104099 -0.00596749 0)
(0.103814 -0.00595916 0)
(0.103538 -0.00593729 0)
(0.103272 -0.0059029 0)
(0.109039 -0.00189437 0)
(0.108896 -0.00225224 0)
(0.108722 -0.00261605 0)
(0.108532 -0.0029833 0)
(0.108323 -0.00334661 0)
(0.108094 -0.00369571 0)
(0.10785 -0.00402041 0)
(0.10759 -0.004313 0)
(0.107318 -0.00456948 0)
(0.107035 -0.00478965 0)
(0.106745 -0.00497618 0)
(0.106449 -0.00513321 0)
(0.106149 -0.00526509 0)
(0.105847 -0.0053755 0)
(0.105546 -0.00546712 0)
(0.105246 -0.00554166 0)
(0.10495 -0.00560015 0)
(0.104659 -0.00564325 0)
(0.104373 -0.00567145 0)
(0.104095 -0.00568532 0)
(0.103823 -0.00568552 0)
(0.103561 -0.0056728 0)
(0.103307 -0.00564805 0)
(0.108668 -0.00176981 0)
(0.10854 -0.00210447 0)
(0.108384 -0.00244658 0)
(0.108212 -0.00279356 0)
(0.108023 -0.00313808 0)
(0.107815 -0.00346997 0)
(0.107591 -0.00377923 0)
(0.107353 -0.00405831 0)
(0.107102 -0.00430336 0)
(0.106841 -0.00451426 0)
(0.106571 -0.0046937 0)
(0.106295 -0.00484578 0)
(0.106016 -0.00497473 0)
(0.105734 -0.00508409 0)
(0.105451 -0.00517637 0)
(0.10517 -0.00525311 0)
(0.104891 -0.00531518 0)
(0.104616 -0.00536304 0)
(0.104346 -0.00539706 0)
(0.104082 -0.00541764 0)
(0.103825 -0.00542529 0)
(0.103574 -0.00542065 0)
(0.103332 -0.00540448 0)
(0.10832 -0.00165884 0)
(0.108206 -0.00197223 0)
(0.108067 -0.00229419 0)
(0.107913 -0.0026221 0)
(0.107741 -0.00294868 0)
(0.107552 -0.00326395 0)
(0.107347 -0.0035581 0)
(0.107128 -0.0038238 0)
(0.106896 -0.00405739 0)
(0.106654 -0.00425887 0)
(0.106403 -0.00443097 0)
(0.106146 -0.00457773 0)
(0.105885 -0.00470331 0)
(0.105621 -0.00481109 0)
(0.105356 -0.00490341 0)
(0.105091 -0.00498166 0)
(0.104828 -0.00504652 0)
(0.104569 -0.00509833 0)
(0.104314 -0.00513729 0)
(0.104063 -0.00516366 0)
(0.103819 -0.00517784 0)
(0.10358 -0.00518034 0)
(0.103349 -0.00517181 0)
(0.107994 -0.00156066 0)
(0.107893 -0.00185453 0)
(0.107769 -0.00215771 0)
(0.107631 -0.00246755 0)
(0.107476 -0.00277687 0)
(0.107304 -0.00307591 0)
(0.107117 -0.00335514 0)
(0.106915 -0.00360751 0)
(0.1067 -0.00382957 0)
(0.106475 -0.00402149 0)
(0.106242 -0.00418603 0)
(0.106002 -0.00432723 0)
(0.105757 -0.00444909 0)
(0.105509 -0.00455488 0)
(0.10526 -0.00464678 0)
(0.10501 -0.00472599 0)
(0.104763 -0.00479304 0)
(0.104518 -0.00484811 0)
(0.104276 -0.00489128 0)
(0.104039 -0.00492267 0)
(0.103806 -0.00494257 0)
(0.10358 -0.00495137 0)
(0.103359 -0.00494962 0)
(0.107687 -0.00147468 0)
(0.107599 -0.00175064 0)
(0.10749 -0.00203622 0)
(0.107367 -0.00232878 0)
(0.107227 -0.00262131 0)
(0.107071 -0.00290433 0)
(0.106899 -0.00316868 0)
(0.106713 -0.00340764 0)
(0.106514 -0.00361806 0)
(0.106305 -0.00380026 0)
(0.106086 -0.00395709 0)
(0.105861 -0.00409252 0)
(0.105631 -0.00421047 0)
(0.105398 -0.00431401 0)
(0.105163 -0.00440514 0)
(0.104928 -0.00448491 0)
(0.104695 -0.00455367 0)
(0.104463 -0.00461146 0)
(0.104234 -0.00465821 0)
(0.104009 -0.00469396 0)
(0.103788 -0.00471887 0)
(0.103573 -0.00473324 0)
(0.103362 -0.00473753 0)
(0.107399 -0.00140048 0)
(0.107323 -0.00165999 0)
(0.107228 -0.00192896 0)
(0.107119 -0.00220483 0)
(0.106994 -0.00248081 0)
(0.106852 -0.00274782 0)
(0.106695 -0.00299714 0)
(0.106523 -0.0032225 0)
(0.106338 -0.00342108 0)
(0.106142 -0.00359343 0)
(0.105937 -0.00374243 0)
(0.105725 -0.00387201 0)
(0.105508 -0.00398593 0)
(0.105289 -0.00408708 0)
(0.105067 -0.00417725 0)
(0.104845 -0.0042573 0)
(0.104625 -0.00432741 0)
(0.104405 -0.00438748 0)
(0.104188 -0.00443733 0)
(0.103975 -0.00447687 0)
(0.103765 -0.00450618 0)
(0.10356 -0.00452547 0)
(0.10336 -0.00453514 0)
(0.107127 -0.00133774 0)
(0.107063 -0.00158211 0)
(0.106981 -0.0018353 0)
(0.106886 -0.00209483 0)
(0.106774 -0.00235428 0)
(0.106646 -0.00260506 0)
(0.106501 -0.00283904 0)
(0.106342 -0.00305049 0)
(0.106169 -0.00323701 0)
(0.105985 -0.00339935 0)
(0.105792 -0.00354049 0)
(0.105592 -0.00366422 0)
(0.105388 -0.00377413 0)
(0.10518 -0.00387287 0)
(0.104971 -0.00396201 0)
(0.104762 -0.00404217 0)
(0.104553 -0.00411339 0)
(0.104345 -0.00417542 0)
(0.10414 -0.00422795 0)
(0.103937 -0.0042708 0)
(0.103738 -0.00430397 0)
(0.103543 -0.00432763 0)
(0.103352 -0.00434207 0)
(0.10687 -0.00128607 0)
(0.106818 -0.00151649 0)
(0.106749 -0.00175453 0)
(0.106666 -0.0019979 0)
(0.106567 -0.00224062 0)
(0.106451 -0.00247477 0)
(0.106318 -0.00269297 0)
(0.106169 -0.00289012 0)
(0.106007 -0.00306431 0)
(0.105834 -0.00321657 0)
(0.105652 -0.00334986 0)
(0.105463 -0.00346785 0)
(0.105269 -0.00357388 0)
(0.105073 -0.00367032 0)
(0.104875 -0.00375844 0)
(0.104677 -0.00383867 0)
(0.104479 -0.00391085 0)
(0.104283 -0.00397456 0)
(0.104088 -0.00402944 0)
(0.103896 -0.0040752 0)
(0.103707 -0.00411177 0)
(0.103521 -0.00413928 0)
(0.103339 -0.00415796 0)
(0.106629 -0.00124485 0)
(0.106587 -0.00146237 0)
(0.106529 -0.00168576 0)
(0.106458 -0.00191297 0)
(0.10637 -0.00213861 0)
(0.106264 -0.00235563 0)
(0.106142 -0.00255753 0)
(0.106003 -0.00273999 0)
(0.10585 -0.00290166 0)
(0.105687 -0.0030438 0)
(0.105514 -0.00316939 0)
(0.105335 -0.00328187 0)
(0.105152 -0.00338426 0)
(0.104966 -0.00347858 0)
(0.104778 -0.00356582 0)
(0.104591 -0.00364612 0)
(0.104404 -0.00371914 0)
(0.104218 -0.00378435 0)
(0.104034 -0.00384128 0)
(0.103851 -0.00388958 0)
(0.103672 -0.00392915 0)
(0.103495 -0.00396003 0)
(0.103322 -0.00398246 0)
(0.106401 -0.00121301 0)
(0.106368 -0.00141853 0)
(0.106321 -0.00162764 0)
(0.106259 -0.00183863 0)
(0.106181 -0.00204684 0)
(0.106084 -0.00224624 0)
(0.10597 -0.00243138 0)
(0.10584 -0.00259888 0)
(0.105696 -0.00274794 0)
(0.105541 -0.00288011 0)
(0.105377 -0.00299826 0)
(0.105207 -0.00310557 0)
(0.105034 -0.00320464 0)
(0.104858 -0.0032971 0)
(0.104681 -0.00338359 0)
(0.104503 -0.003464 0)
(0.104327 -0.00353779 0)
(0.104151 -0.00360432 0)
(0.103976 -0.00366303 0)
(0.103804 -0.00371355 0)
(0.103634 -0.00375571 0)
(0.103466 -0.00378955 0)
(0.103301 -0.00381527 0)
(0.106186 -0.0011888 0)
(0.10616 -0.00138311 0)
(0.10612 -0.0015783 0)
(0.106066 -0.00177304 0)
(0.105996 -0.00196359 0)
(0.105907 -0.00214509 0)
(0.1058 -0.00231328 0)
(0.105677 -0.00246577 0)
(0.105541 -0.00260241 0)
(0.105394 -0.00272492 0)
(0.105239 -0.00283604 0)
(0.105079 -0.0029386 0)
(0.104915 -0.00303472 0)
(0.104749 -0.0031256 0)
(0.104582 -0.00321149 0)
(0.104414 -0.00329202 0)
(0.104248 -0.00336649 0)
(0.104082 -0.00343414 0)
(0.103917 -0.00349435 0)
(0.103753 -0.00354674 0)
(0.103592 -0.00359111 0)
(0.103433 -0.0036275 0)
(0.103276 -0.00365608 0)
(0.105984 -0.00116974 0)
(0.105962 -0.00135353 0)
(0.105927 -0.00153519 0)
(0.105878 -0.00171391 0)
(0.105812 -0.00188691 0)
(0.105729 -0.00205063 0)
(0.105629 -0.00220211 0)
(0.105513 -0.00233997 0)
(0.105384 -0.00246466 0)
(0.105245 -0.00257807 0)
(0.105099 -0.00268274 0)
(0.104948 -0.00278102 0)
(0.104793 -0.00287456 0)
(0.104637 -0.00296407 0)
(0.104481 -0.00304944 0)
(0.104323 -0.00313004 0)
(0.104167 -0.00320502 0)
(0.10401 -0.00327354 0)
(0.103855 -0.00333495 0)
(0.1037 -0.00338886 0)
(0.103548 -0.00343507 0)
(0.103397 -0.0034736 0)
(0.103248 -0.00350462 0)
(0.105793 -0.00115273 0)
(0.105772 -0.00132661 0)
(0.105738 -0.00149533 0)
(0.105692 -0.0016586 0)
(0.105629 -0.00181469 0)
(0.10555 -0.00196135 0)
(0.105454 -0.00209694 0)
(0.105345 -0.00222105 0)
(0.105223 -0.00233469 0)
(0.105093 -0.00243982 0)
(0.104956 -0.00253869 0)
(0.104814 -0.0026332 0)
(0.10467 -0.00272446 0)
(0.104525 -0.00281272 0)
(0.104378 -0.00289753 0)
(0.104231 -0.00297803 0)
(0.104084 -0.00305326 0)
(0.103937 -0.00312234 0)
(0.103791 -0.0031846 0)
(0.103645 -0.00323964 0)
(0.103501 -0.00328729 0)
(0.103358 -0.00332757 0)
(0.103216 -0.00336062 0)
(0.105614 -0.0011344 0)
(0.105589 -0.00129895 0)
(0.105554 -0.00145557 0)
(0.105507 -0.00160445 0)
(0.105445 -0.0017449 0)
(0.105368 -0.00187593 0)
(0.105277 -0.0019971 0)
(0.105173 -0.00210889 0)
(0.10506 -0.00221274 0)
(0.104938 -0.00231061 0)
(0.104811 -0.00240445 0)
(0.10468 -0.00249564 0)
(0.104546 -0.00258482 0)
(0.104411 -0.0026718 0)
(0.104275 -0.00275587 0)
(0.104138 -0.00283599 0)
(0.104001 -0.00291112 0)
(0.103863 -0.00298036 0)
(0.103726 -0.00304306 0)
(0.103589 -0.00309883 0)
(0.103452 -0.00314751 0)
(0.103317 -0.00318913 0)
(0.103183 -0.00322382 0)
(0.105445 -0.00111174 0)
(0.105415 -0.0012675 0)
(0.105376 -0.0014131 0)
(0.105325 -0.00154917 0)
(0.105262 -0.00167588 0)
(0.105187 -0.00179335 0)
(0.105099 -0.00190216 0)
(0.105002 -0.00200351 0)
(0.104895 -0.00209914 0)
(0.104783 -0.00219093 0)
(0.104666 -0.00228048 0)
(0.104545 -0.00236875 0)
(0.104423 -0.0024559 0)
(0.104298 -0.00254146 0)
(0.104173 -0.00262447 0)
(0.104046 -0.00270381 0)
(0.103918 -0.0027784 0)
(0.103789 -0.00284736 0)
(0.10366 -0.00291005 0)
(0.103531 -0.00296613 0)
(0.103403 -0.00301544 0)
(0.103275 -0.003058 0)
(0.103148 -0.00309396 0)
(0.111196 0.000866598 8.33474e-25)
(0.111276 0.000319354 -8.35446e-25)
(0.110692 0.000792955 -7.19744e-25)
(0.110765 0.000285508 2.53845e-23)
(0.110821 -0.00021119 -1.65635e-24)
(0.110859 -0.000695848 0)
(0.110879 -0.00117053 6.33173e-23)
(0.110883 -0.00163875 -1.56537e-22)
(0.110887 -0.00210255 -2.49304e-24)
(0.110222 0.000725883 6.14311e-25)
(0.110288 0.000254416 -4.19088e-23)
(0.110338 -0.000205366 -4.54013e-23)
(0.110372 -0.000652307 1.85515e-25)
(0.110389 -0.00108864 -1.25229e-22)
(0.110391 -0.00151825 1.29844e-22)
(0.110392 -0.00194383 1.37033e-22)
(0.109783 0.00066466 -3.90496e-24)
(0.109843 0.000225738 2.0221e-23)
(0.109888 -0.000200712 8.33093e-23)
(0.109918 -0.000613631 4.63355e-23)
(0.109933 -0.00101543 5.78162e-23)
(0.109933 -0.0014103 -2.38076e-22)
(0.109931 -0.00180153 -2.64325e-22)
(0.109372 0.000608677 3.819e-24)
(0.109426 0.00019919 6.064e-25)
(0.109467 -0.000197168 -4.0156e-23)
(0.109494 -0.000579418 -8.48825e-23)
(0.109506 -0.000950101 -1.62743e-25)
(0.109505 -0.00131369 6.46747e-23)
(0.109501 -0.00167402 1.23143e-22)
(0.108986 0.000557433 1.71735e-24)
(0.109035 0.00017454 1.19471e-24)
(0.109072 -0.000194688 -1.45452e-23)
(0.109096 -0.000549323 7.12245e-23)
(0.109107 -0.000892003 0)
(0.109104 -0.00122743 5.07253e-23)
(0.109099 -0.00155996 -1.51691e-24)
(0.108623 0.000510523 -3.25643e-24)
(0.108668 0.000151611 -2.60952e-25)
(0.108701 -0.000193222 1.28517e-23)
(0.108723 -0.000523059 -5.99351e-23)
(0.108732 -0.000840598 3.18687e-23)
(0.108729 -0.00115073 3.92185e-23)
(0.108723 -0.00145824 -1.31553e-24)
(0.10828 0.000467642 1.45868e-24)
(0.108321 0.000130282 0)
(0.108351 -0.000192709 0)
(0.108371 -0.000500389 2.71312e-23)
(0.108379 -0.000795458 -3.2985e-23)
(0.108377 -0.00108294 -6.68079e-23)
(0.10837 -0.00136799 -3.54082e-23)
(0.107957 0.000428578 1.16542e-25)
(0.107994 0.00011049 2.21941e-24)
(0.108022 -0.000193078 1.48063e-25)
(0.108039 -0.000481108 1.42952e-25)
(0.108047 -0.000756246 2.08899e-23)
(0.108045 -0.00102357 5.78478e-23)
(0.108038 -0.00128856 6.42878e-23)
(0.107652 0.000393211 -5.10507e-26)
(0.107685 9.22353e-05 -1.90128e-24)
(0.107709 -0.00019423 0)
(0.107726 -0.00046504 -6.29551e-24)
(0.107733 -0.000722707 -2.15594e-23)
(0.107731 -0.000972288 -4.09598e-24)
(0.107726 -0.00121948 -5.5441e-23)
(0.107363 0.0003615 0)
(0.107392 7.55763e-05 1.88083e-25)
(0.107414 -0.00019604 -1.91657e-24)
(0.107429 -0.000452012 5.64965e-24)
(0.107436 -0.000694635 9.07101e-25)
(0.107436 -0.000928835 -2.07652e-23)
(0.107432 -0.00116042 2.4101e-23)
(0.107089 0.000333456 6.85505e-26)
(0.107115 6.06195e-05 -1.36596e-25)
(0.107134 -0.000198343 2.05598e-24)
(0.107147 -0.000441836 2.58612e-25)
(0.107155 -0.000671832 -2.58574e-25)
(0.107156 -0.000893005 -1.19891e-23)
(0.107154 -0.00111114 0)
(0.106831 0.000309102 -8.5071e-25)
(0.106853 4.74964e-05 1.23235e-25)
(0.106869 -0.000200935 -1.25528e-26)
(0.106881 -0.000434269 1.61504e-25)
(0.106889 -0.000654044 -1.17403e-25)
(0.106891 -0.000864535 1.65554e-23)
(0.106891 -0.00107133 1.09822e-23)
(0.106589 0.000288408 9.03502e-25)
(0.106607 3.63275e-05 -3.97359e-25)
(0.106621 -0.000203572 1.22758e-25)
(0.106631 -0.000428975 1.28695e-24)
(0.106638 -0.000640871 1.8673e-26)
(0.106642 -0.000842972 -5.78838e-24)
(0.106644 -0.00104048 -1.15551e-23)
(0.106363 0.000271213 -2.23767e-25)
(0.106378 2.71767e-05 -1.00735e-25)
(0.106389 -0.000205973 2.61885e-24)
(0.106397 -0.000425476 -1.37678e-24)
(0.106404 -0.000631661 9.07762e-26)
(0.106408 -0.000827519 2.18402e-24)
(0.106411 -0.00101765 -1.98301e-24)
(0.106155 0.000257167 2.70005e-25)
(0.106166 2.00068e-05 -2.69779e-25)
(0.106175 -0.000207828 -5.46049e-24)
(0.106181 -0.00042311 -1.10104e-25)
(0.106186 -0.000625421 -1.71203e-24)
(0.10619 -0.000816886 1.3969e-24)
(0.106194 -0.00100131 1.86835e-24)
(0.105966 0.000245688 3.13827e-25)
(0.105974 1.46533e-05 -2.04643e-24)
(0.10598 -0.000208815 3.37715e-24)
(0.105984 -0.000421028 3.98839e-25)
(0.105987 -0.000620779 3.80654e-24)
(0.105989 -0.000809225 -1.49855e-24)
(0.105991 -0.000989217 9.13115e-26)
(0.105795 0.000235998 -7.58169e-25)
(0.105802 1.08319e-05 -4.07057e-25)
(0.105805 -0.000208607 -2.22803e-24)
(0.105806 -0.000418223 1.02929e-25)
(0.105806 -0.000616037 -2.18969e-24)
(0.105804 -0.000802206 2.83024e-25)
(0.105802 -0.000978544 1.51697e-24)
(0.105642 0.000227218 4.03388e-25)
(0.105648 8.18822e-06 6.16493e-25)
(0.105649 -0.0002069 2.91226e-24)
(0.105646 -0.000413642 -5.72314e-25)
(0.105642 -0.000609374 -9.26604e-25)
(0.105636 -0.000793309 -1.75755e-24)
(0.105628 -0.000966235 -1.23335e-24)
(0.105505 0.000218514 -4.32699e-25)
(0.10551 6.3082e-06 1.20473e-24)
(0.105509 -0.000203542 -6.5563e-25)
(0.105504 -0.000406461 1.20789e-24)
(0.105494 -0.000599253 3.73941e-25)
(0.105482 -0.000780337 1.10418e-24)
(0.105466 -0.000949582 3.6517e-25)
(0.110983 0.00196924 1.87343e-23)
(0.111097 0.00141878 6.06604e-25)
(0.109787 0.00420541 1.64186e-25)
(0.109959 0.00375801 3.61843e-24)
(0.110105 0.00329609 -4.26595e-24)
(0.110247 0.00281843 0)
(0.11038 0.00232525 -7.86636e-25)
(0.110499 0.00181953 1.28816e-24)
(0.110603 0.00130652 -5.03576e-25)
(0.10939 0.0039125 3.22781e-23)
(0.109548 0.0034951 1.50762e-23)
(0.109684 0.00306373 4.00912e-24)
(0.109815 0.00261733 -2.23789e-25)
(0.109937 0.00215624 1.30131e-23)
(0.110046 0.00168351 1.01873e-23)
(0.110141 0.00120446 4.08031e-25)
(0.109016 0.00364576 -7.11181e-23)
(0.109163 0.00325573 -3.96579e-23)
(0.109289 0.00285225 0)
(0.10941 0.00243434 -1.28697e-24)
(0.109522 0.00200246 -2.1634e-23)
(0.109622 0.00155974 -1.70056e-23)
(0.109709 0.00111154 2.29853e-24)
(0.108663 0.00340253 3.95651e-23)
(0.108799 0.00303753 7.62776e-24)
(0.108917 0.00265954 2.04526e-25)
(0.109029 0.00226764 -1.30169e-24)
(0.109133 0.00186242 7.89256e-24)
(0.109225 0.00144701 7.36864e-24)
(0.109304 0.00102683 -2.38527e-24)
(0.10833 0.00318048 6.73715e-25)
(0.108457 0.00283843 1.51852e-23)
(0.108567 0.00248378 0)
(0.108671 0.00211569 1.004e-23)
(0.108767 0.0017348 -6.15578e-25)
(0.108851 0.00134428 2.90636e-25)
(0.108924 0.00094955 -1.50942e-24)
(0.108016 0.0029776 7.78576e-25)
(0.108134 0.00265663 2.15948e-23)
(0.108237 0.00232341 1.71249e-23)
(0.108334 0.00197714 -1.78866e-23)
(0.108422 0.00161851 6.75392e-25)
(0.1085 0.00125069 -8.74062e-26)
(0.108567 0.000879082 2.21686e-24)
(0.107719 0.00279212 -3.26399e-23)
(0.10783 0.00249058 -4.96903e-23)
(0.107926 0.00217709 -1.62546e-23)
(0.108016 0.00185088 2.5583e-23)
(0.108097 0.00151264 0)
(0.108168 0.00116553 0)
(0.108229 0.000814924 -7.78644e-25)
(0.107439 0.00262249 6.88169e-23)
(0.107542 0.00233891 5.41786e-23)
(0.107632 0.00204366 2.41141e-23)
(0.107715 0.00173594 -1.47824e-23)
(0.10779 0.00141644 -1.70706e-25)
(0.107856 0.00108824 1.60464e-24)
(0.107911 0.000756696 -4.34709e-26)
(0.107173 0.00246734 -3.41528e-23)
(0.10727 0.00220045 1.75734e-24)
(0.107354 0.00192213 -2.35047e-23)
(0.107432 0.00163153 -1.05947e-23)
(0.107501 0.00132929 0)
(0.10756 0.0010184 -1.92016e-24)
(0.10761 0.000704134 1.0293e-25)
(0.106923 0.00232546 4.12046e-23)
(0.107014 0.00207415 -3.19517e-23)
(0.107092 0.00181162 -1.74618e-24)
(0.107164 0.00153695 1.20211e-23)
(0.107227 0.00125068 -9.73396e-24)
(0.107281 0.000955676 -4.03127e-24)
(0.107326 0.000657066 0)
(0.106686 0.00219571 2.25558e-24)
(0.106771 0.00195904 -3.68228e-23)
(0.106845 0.00171134 8.79227e-25)
(0.106911 0.00145159 -8.79458e-25)
(0.106969 0.00118018 1.0157e-23)
(0.107017 0.000899791 2.78037e-24)
(0.107057 0.000615375 2.11557e-25)
(0.106462 0.00207706 3.38759e-24)
(0.106543 0.00185419 5.39379e-23)
(0.106612 0.0016205 1.51211e-25)
(0.106673 0.00137482 1.49748e-23)
(0.106725 0.00111733 8.12977e-25)
(0.106768 0.000850468 2.61193e-25)
(0.106803 0.000578942 7.37309e-25)
(0.106252 0.00196843 -4.27777e-23)
(0.106327 0.00175868 -4.14502e-23)
(0.106392 0.0015383 -1.03807e-24)
(0.106449 0.00130595 -2.89701e-23)
(0.106497 0.00106159 -1.42168e-25)
(0.106535 0.000807335 -3.97238e-24)
(0.106565 0.000547568 -6.91914e-25)
(0.106053 0.00186875 -2.25313e-23)
(0.106125 0.00167146 1.91818e-23)
(0.106187 0.00146377 1.1105e-24)
(0.106239 0.00124415 1.59409e-23)
(0.106283 0.00101226 -7.68782e-24)
(0.106317 0.000769834 2.42659e-24)
(0.106344 0.000520884 -3.52636e-25)
(0.105866 0.00177688 2.24117e-23)
(0.105935 0.00159142 -2.10803e-23)
(0.105994 0.00139582 9.04605e-24)
(0.106044 0.00118835 1.35386e-25)
(0.106084 0.000968349 1.67566e-23)
(0.106116 0.000737139 -3.94347e-25)
(0.106139 0.00049827 -3.70778e-25)
(0.105691 0.00169157 1.50032e-24)
(0.105758 0.00151729 2.09962e-23)
(0.105815 0.00133316 -2.09293e-23)
(0.105863 0.00113726 1.11714e-24)
(0.105901 0.000928631 -8.28553e-24)
(0.105931 0.000708135 5.04572e-25)
(0.105952 0.000478827 1.20123e-24)
(0.105527 0.00161159 -1.3109e-23)
(0.105592 0.00144773 1.42396e-24)
(0.105648 0.00127437 1.61582e-23)
(0.105695 0.00108943 -1.2705e-25)
(0.105733 0.000891645 4.50185e-24)
(0.105762 0.000681464 -4.5319e-25)
(0.105782 0.000461416 -1.2054e-26)
(0.105373 0.00153576 1.46678e-23)
(0.105437 0.0013815 4.64982e-24)
(0.105494 0.00121809 -5.58047e-24)
(0.105541 0.00104336 -1.24572e-24)
(0.10558 0.000855875 -9.3897e-25)
(0.105609 0.000655675 -9.72711e-25)
(0.105629 0.000444796 -4.6107e-25)
(0.105228 0.00146304 1.63456e-24)
(0.105293 0.00131749 -7.88574e-24)
(0.10535 0.00116312 -1.41506e-24)
(0.105399 0.000997828 2.72988e-24)
(0.105439 0.000820051 -3.75594e-24)
(0.10547 0.000629535 -5.66105e-25)
(0.105492 0.000427865 -5.42878e-25)
(0.100048 0.00472733 0)
(0.100154 0.00486487 0)
(0.100268 0.00500387 0)
(0.100392 0.00514393 0)
(0.100527 0.0052846 0)
(0.100672 0.00542535 0)
(0.100828 0.0055656 0)
(0.100997 0.00570466 0)
(0.101177 0.00584176 0)
(0.101371 0.00597605 0)
(0.101579 0.00610658 0)
(0.1018 0.00623229 0)
(0.102036 0.00635204 0)
(0.102286 0.00646457 0)
(0.102551 0.00656851 0)
(0.102832 0.00666242 0)
(0.103127 0.00674471 0)
(0.103438 0.00681374 0)
(0.103763 0.00686776 0)
(0.104102 0.00690494 0)
(0.104454 0.00692342 0)
(0.10482 0.00692127 0)
(0.105197 0.00689657 0)
(0.105584 0.0068474 0)
(0.105979 0.00677188 0)
(0.106381 0.00666825 0)
(0.106788 0.00653482 0)
(0.107196 0.00637014 0)
(0.107603 0.00617292 0)
(0.108006 0.00594214 0)
(0.108402 0.00567698 0)
(0.108787 0.00537657 0)
(0.109158 0.00503891 0)
(0.109529 0.0046556 0)
(0.100181 0.00462543 0)
(0.100287 0.0047543 0)
(0.100403 0.0048841 0)
(0.100527 0.00501444 0)
(0.100662 0.00514485 0)
(0.100807 0.00527482 0)
(0.100962 0.00540376 0)
(0.101128 0.005531 0)
(0.101307 0.00565579 0)
(0.101497 0.0057773 0)
(0.1017 0.00589463 0)
(0.101916 0.00600677 0)
(0.102145 0.00611263 0)
(0.102387 0.00621105 0)
(0.102643 0.00630074 0)
(0.102912 0.00638036 0)
(0.103195 0.00644848 0)
(0.103492 0.00650357 0)
(0.103801 0.00654407 0)
(0.104123 0.00656832 0)
(0.104456 0.00657467 0)
(0.104801 0.0065614 0)
(0.105155 0.00652682 0)
(0.105517 0.00646927 0)
(0.105886 0.00638712 0)
(0.106261 0.00627887 0)
(0.106638 0.0061431 0)
(0.107015 0.0059786 0)
(0.107391 0.00578433 0)
(0.107762 0.0055595 0)
(0.108126 0.00530349 0)
(0.108478 0.00501564 0)
(0.108816 0.0046943 0)
(0.109154 0.00433225 0)
(0.100305 0.00452226 0)
(0.100412 0.00464281 0)
(0.100528 0.00476382 0)
(0.100653 0.0048849 0)
(0.100787 0.00500559 0)
(0.100931 0.00512537 0)
(0.101084 0.00524367 0)
(0.101249 0.00535983 0)
(0.101424 0.00547313 0)
(0.10161 0.00558278 0)
(0.101808 0.0056879 0)
(0.102018 0.00578756 0)
(0.10224 0.00588071 0)
(0.102474 0.00596628 0)
(0.102721 0.00604307 0)
(0.10298 0.00610985 0)
(0.10325 0.0061653 0)
(0.103533 0.00620804 0)
(0.103827 0.00623664 0)
(0.104132 0.00624963 0)
(0.104448 0.00624553 0)
(0.104772 0.00622282 0)
(0.105105 0.00618002 0)
(0.105444 0.00611569 0)
(0.105789 0.00602841 0)
(0.106137 0.00591692 0)
(0.106487 0.00578002 0)
(0.106837 0.0056167 0)
(0.107184 0.00542614 0)
(0.107526 0.00520772 0)
(0.10786 0.00496099 0)
(0.108182 0.00468544 0)
(0.108492 0.00437973 0)
(0.1088 0.00403766 0)
(0.100421 0.00441826 0)
(0.100529 0.00453085 0)
(0.100645 0.00464349 0)
(0.100769 0.00475577 0)
(0.100902 0.00486726 0)
(0.101045 0.00497744 0)
(0.101196 0.00508575 0)
(0.101358 0.00519156 0)
(0.10153 0.00529417 0)
(0.101712 0.00539282 0)
(0.101905 0.00548668 0)
(0.102109 0.00557487 0)
(0.102323 0.00565642 0)
(0.102549 0.00573031 0)
(0.102787 0.00579545 0)
(0.103035 0.0058507 0)
(0.103294 0.00589485 0)
(0.103563 0.00592666 0)
(0.103843 0.00594483 0)
(0.104132 0.00594805 0)
(0.10443 0.00593499 0)
(0.104735 0.00590432 0)
(0.105048 0.00585474 0)
(0.105366 0.00578499 0)
(0.105688 0.00569388 0)
(0.106012 0.0055803 0)
(0.106338 0.00544326 0)
(0.106662 0.00528194 0)
(0.106982 0.00509566 0)
(0.107297 0.00488397 0)
(0.107604 0.00464653 0)
(0.1079 0.00438299 0)
(0.108184 0.00409222 0)
(0.108464 0.0037689 0)
(0.10053 0.00431385 0)
(0.100638 0.00441884 0)
(0.100753 0.00452351 0)
(0.100877 0.00462747 0)
(0.101009 0.00473027 0)
(0.101149 0.00483143 0)
(0.101298 0.00493038 0)
(0.101457 0.00502652 0)
(0.101625 0.00511919 0)
(0.101803 0.00520767 0)
(0.10199 0.00529116 0)
(0.102188 0.00536884 0)
(0.102396 0.00543981 0)
(0.102613 0.00550311 0)
(0.102841 0.00555775 0)
(0.103079 0.00560267 0)
(0.103327 0.00563677 0)
(0.103583 0.00565892 0)
(0.103849 0.00566797 0)
(0.104123 0.00566274 0)
(0.104404 0.00564204 0)
(0.104692 0.00560471 0)
(0.104985 0.0055496 0)
(0.105283 0.00547562 0)
(0.105584 0.00538176 0)
(0.105887 0.00526706 0)
(0.106189 0.00513071 0)
(0.10649 0.00497202 0)
(0.106786 0.00479047 0)
(0.107077 0.00458571 0)
(0.107359 0.00435751 0)
(0.107631 0.00410562 0)
(0.107891 0.00382911 0)
(0.108147 0.0035234 0)
(0.100631 0.00420939 0)
(0.100739 0.00430715 0)
(0.100854 0.00440427 0)
(0.100976 0.00450035 0)
(0.101106 0.00459497 0)
(0.101245 0.00468765 0)
(0.101391 0.00477785 0)
(0.101547 0.00486499 0)
(0.101711 0.00494845 0)
(0.101884 0.00502752 0)
(0.102066 0.00510149 0)
(0.102257 0.00516955 0)
(0.102458 0.00523088 0)
(0.102667 0.0052846 0)
(0.102886 0.00532978 0)
(0.103114 0.00536546 0)
(0.10335 0.00539064 0)
(0.103595 0.0054043 0)
(0.103847 0.0054054 0)
(0.104106 0.00539289 0)
(0.104372 0.00536571 0)
(0.104643 0.00532284 0)
(0.104919 0.00526329 0)
(0.105198 0.00518611 0)
(0.105479 0.00509041 0)
(0.105761 0.00497541 0)
(0.106043 0.00484041 0)
(0.106321 0.00468488 0)
(0.106596 0.00450838 0)
(0.106865 0.00431066 0)
(0.107125 0.00409159 0)
(0.107375 0.00385098 0)
(0.107613 0.00358807 0)
(0.107847 0.00329892 0)
(0.100725 0.00410521 0)
(0.100832 0.0041961 0)
(0.100947 0.00428606 0)
(0.101068 0.00437471 0)
(0.101196 0.00446164 0)
(0.101332 0.00454637 0)
(0.101476 0.00462841 0)
(0.101628 0.00470718 0)
(0.101788 0.0047821 0)
(0.101956 0.00485251 0)
(0.102132 0.00491773 0)
(0.102317 0.00497701 0)
(0.102511 0.00502958 0)
(0.102712 0.00507464 0)
(0.102922 0.00511132 0)
(0.10314 0.00513876 0)
(0.103365 0.00515604 0)
(0.103598 0.00516225 0)
(0.103838 0.00515644 0)
(0.104083 0.00513769 0)
(0.104334 0.00510506 0)
(0.10459 0.00505765 0)
(0.104849 0.00499459 0)
(0.105111 0.00491506 0)
(0.105374 0.00481831 0)
(0.105637 0.00470368 0)
(0.105899 0.0045706 0)
(0.106158 0.00441861 0)
(0.106412 0.0042474 0)
(0.10666 0.00405678 0)
(0.106901 0.00384668 0)
(0.107131 0.00361698 0)
(0.10735 0.00336705 0)
(0.107564 0.0030935 0)
(0.100813 0.00400159 0)
(0.10092 0.00408597 0)
(0.101032 0.00416916 0)
(0.101152 0.00425082 0)
(0.101278 0.00433052 0)
(0.101412 0.00440783 0)
(0.101552 0.00448225 0)
(0.1017 0.00455326 0)
(0.101856 0.00462029 0)
(0.102019 0.00468272 0)
(0.10219 0.00473991 0)
(0.102369 0.00479119 0)
(0.102555 0.00483581 0)
(0.102749 0.00487305 0)
(0.10295 0.00490212 0)
(0.103159 0.00492222 0)
(0.103374 0.00493252 0)
(0.103595 0.00493221 0)
(0.103822 0.00492043 0)
(0.104055 0.00489635 0)
(0.104292 0.00485916 0)
(0.104533 0.00480807 0)
(0.104776 0.00474231 0)
(0.105022 0.00466119 0)
(0.105268 0.00456406 0)
(0.105514 0.00445036 0)
(0.105758 0.00431963 0)
(0.105998 0.0041715 0)
(0.106234 0.00400573 0)
(0.106464 0.00382221 0)
(0.106686 0.00362091 0)
(0.106898 0.00340174 0)
(0.107099 0.00316421 0)
(0.107295 0.00290539 0)
(0.100895 0.00389879 0)
(0.101 0.003977 0)
(0.101112 0.00405382 0)
(0.101229 0.00412889 0)
(0.101353 0.00420182 0)
(0.101484 0.00427219 0)
(0.101621 0.00433953 0)
(0.101766 0.00440334 0)
(0.101917 0.00446308 0)
(0.102076 0.00451819 0)
(0.102241 0.00456804 0)
(0.102413 0.00461202 0)
(0.102593 0.00464945 0)
(0.102779 0.00467964 0)
(0.102972 0.0047019 0)
(0.103171 0.00471547 0)
(0.103376 0.00471963 0)
(0.103586 0.00471362 0)
(0.103802 0.0046967 0)
(0.104022 0.00466812 0)
(0.104246 0.00462716 0)
(0.104473 0.00457313 0)
(0.104702 0.00450538 0)
(0.104932 0.00442329 0)
(0.105163 0.00432633 0)
(0.105393 0.00421402 0)
(0.10562 0.004086 0)
(0.105844 0.00394196 0)
(0.106063 0.00378175 0)
(0.106276 0.00360528 0)
(0.106481 0.00341258 0)
(0.106676 0.0032036 0)
(0.106861 0.00297792 0)
(0.10704 0.00273305 0)
(0.100971 0.00379703 0)
(0.101075 0.00386941 0)
(0.101184 0.00394022 0)
(0.1013 0.00400911 0)
(0.101422 0.00407571 0)
(0.10155 0.00413961 0)
(0.101684 0.00420037 0)
(0.101824 0.00425752 0)
(0.101971 0.00431054 0)
(0.102125 0.00435891 0)
(0.102285 0.00440206 0)
(0.102451 0.0044394 0)
(0.102623 0.00447032 0)
(0.102802 0.00449419 0)
(0.102986 0.00451035 0)
(0.103177 0.00451814 0)
(0.103372 0.0045169 0)
(0.103572 0.00450595 0)
(0.103777 0.00448462 0)
(0.103986 0.00445225 0)
(0.104197 0.00440821 0)
(0.104411 0.0043519 0)
(0.104627 0.00428274 0)
(0.104843 0.00420023 0)
(0.105059 0.0041039 0)
(0.105274 0.00399337 0)
(0.105486 0.00386832 0)
(0.105694 0.00372856 0)
(0.105898 0.00357394 0)
(0.106095 0.00340446 0)
(0.106285 0.00322016 0)
(0.106465 0.00302103 0)
(0.106636 0.00280672 0)
(0.1068 0.00257509 0)
(0.101041 0.0036965 0)
(0.101144 0.00376338 0)
(0.101251 0.00382853 0)
(0.101365 0.00389163 0)
(0.101484 0.00395231 0)
(0.101609 0.00401019 0)
(0.10174 0.00406484 0)
(0.101876 0.00411583 0)
(0.102019 0.00416267 0)
(0.102167 0.00420487 0)
(0.102322 0.0042419 0)
(0.102482 0.00427322 0)
(0.102648 0.00429826 0)
(0.102819 0.00431644 0)
(0.102996 0.00432717 0)
(0.103177 0.00432986 0)
(0.103364 0.00432388 0)
(0.103554 0.00430865 0)
(0.103748 0.00428356 0)
(0.103946 0.00424803 0)
(0.104146 0.00420152 0)
(0.104348 0.00414348 0)
(0.104551 0.00407344 0)
(0.104754 0.00399095 0)
(0.104956 0.00389564 0)
(0.105157 0.00378718 0)
(0.105355 0.00366533 0)
(0.10555 0.00352995 0)
(0.105739 0.00338095 0)
(0.105922 0.00321836 0)
(0.106098 0.00304225 0)
(0.106265 0.00285264 0)
(0.106422 0.00264926 0)
(0.106572 0.00243026 0)
(0.101106 0.00359737 0)
(0.101207 0.00365906 0)
(0.101313 0.0037189 0)
(0.101424 0.00377657 0)
(0.101541 0.00383173 0)
(0.101662 0.003884 0)
(0.10179 0.003933 0)
(0.101922 0.0039783 0)
(0.102061 0.00401946 0)
(0.102204 0.00405601 0)
(0.102353 0.00408746 0)
(0.102507 0.00411332 0)
(0.102667 0.00413306 0)
(0.102831 0.00414615 0)
(0.103 0.00415205 0)
(0.103174 0.00415022 0)
(0.103351 0.00414012 0)
(0.103532 0.00412119 0)
(0.103717 0.00409292 0)
(0.103904 0.0040548 0)
(0.104093 0.00400633 0)
(0.104283 0.00394705 0)
(0.104474 0.00387656 0)
(0.104666 0.00379448 0)
(0.104856 0.00370049 0)