/*--------------------------------*- C++ -*----------------------------------*\
| =========                 |                                                 |
| \\      /  F ield         | OpenFOAM: The Open Source CFD Toolbox           |
|  \\    /   O peration     | Version:  2412                                  |
|   \\  /    A nd           | Website:  www.openfoam.com                      |
|    \\/     M anipulation  |                                                 |
\*---------------------------------------------------------------------------*/
FoamFile
{
    version     2.0;
    format      ascii;
    arch        "LSB;label=32;scalar=64";
    class       volScalarField;
    location    "26.5";
    object      p;
}
// * * * * * * * * * * * * * * * * * * * * * * * * * * * * * * * * * * * * * //

dimensions      [0 2 -2 0 0 0 0];

internalField   nonuniform List<scalar> 
5285
(
-0.000183306
-0.000176578
-0.000169874
-0.000163203
-0.000156578
-0.000150011
-0.000143513
-0.000137096
-0.000130772
-0.000124549
-0.00011844
-0.000112453
-0.000106598
-0.000100883
-9.53165e-05
-8.99052e-05
-8.46556e-05
-7.95734e-05
-7.46635e-05
-6.99298e-05
-6.53758e-05
-6.10038e-05
-5.68154e-05
-5.28116e-05
-4.89925e-05
-4.53573e-05
-4.19048e-05
-3.8633e-05
-3.55391e-05
-3.26201e-05
-2.98721e-05
-2.72909e-05
-2.48718e-05
-2.26098e-05
-2.04996e-05
-1.85354e-05
-1.67115e-05
-1.50219e-05
-1.34604e-05
-1.20208e-05
-1.06969e-05
-9.48264e-06
-8.37163e-06
-7.35809e-06
-0.000186952
-0.000179913
-0.000172908
-0.000165948
-0.000159045
-0.000152211
-0.000145459
-0.0001388
-0.000132246
-0.000125807
-0.000119495
-0.000113318
-0.000107285
-0.000101407
-9.56886e-05
-9.01387e-05
-8.47628e-05
-7.95665e-05
-7.4554e-05
-6.97291e-05
-6.50945e-05
-6.06523e-05
-5.64034e-05
-5.23483e-05
-4.84864e-05
-4.48165e-05
-4.13368e-05
-3.80445e-05
-3.49365e-05
-3.20089e-05
-2.92575e-05
-2.66775e-05
-2.42636e-05
-2.20103e-05
-1.99118e-05
-1.7962e-05
-1.61546e-05
-1.44833e-05
-1.29415e-05
-1.15228e-05
-1.02206e-05
-9.02849e-06
-7.93993e-06
-6.94895e-06
-0.00019049
-0.000183132
-0.00017582
-0.000168564
-0.000161377
-0.000154272
-0.000147262
-0.000140359
-0.000133574
-0.000126918
-0.000120402
-0.000114035
-0.000107827
-0.000101786
-9.59197e-05
-9.02342e-05
-8.47358e-05
-7.94292e-05
-7.43186e-05
-6.94071e-05
-6.46969e-05
-6.01896e-05
-5.58855e-05
-5.17844e-05
-4.78852e-05
-4.4186e-05
-4.06844e-05
-3.7377e-05
-3.426e-05
-3.1329e-05
-2.85791e-05
-2.60049e-05
-2.36007e-05
-2.13605e-05
-1.92779e-05
-1.73463e-05
-1.55592e-05
-1.39096e-05
-1.23909e-05
-1.0996e-05
-9.71827e-06
-8.55092e-06
-7.48721e-06
-6.52099e-06
-0.000193905
-0.000186221
-0.000178594
-0.000171037
-0.000163561
-0.000156181
-0.00014891
-0.00014176
-0.000134743
-0.00012787
-0.000121151
-0.000114596
-0.000108214
-0.000102014
-9.60015e-05
-9.01843e-05
-8.45674e-05
-7.91552e-05
-7.39514e-05
-6.89585e-05
-6.41782e-05
-5.96113e-05
-5.52578e-05
-5.11165e-05
-4.71858e-05
-4.34632e-05
-3.99453e-05
-3.66284e-05
-3.35079e-05
-3.05788e-05
-2.78356e-05
-2.52722e-05
-2.28825e-05
-2.06598e-05
-1.85974e-05
-1.66881e-05
-1.4925e-05
-1.33008e-05
-1.18084e-05
-1.04405e-05
-9.19002e-06
-8.05007e-06
-7.01363e-06
-6.07441e-06
-0.000197184
-0.000189165
-0.000181217
-0.000173352
-0.000165583
-0.000157925
-0.00015039
-0.000142992
-0.000135743
-0.000128652
-0.000121731
-0.00011499
-0.000108437
-0.00010208
-9.59261e-05
-8.99815e-05
-8.42509e-05
-7.87383e-05
-7.34468e-05
-6.83783e-05
-6.35339e-05
-5.89136e-05
-5.45167e-05
-5.03416e-05
-4.63856e-05
-4.26456e-05
-3.91177e-05
-3.57973e-05
-3.26791e-05
-2.97574e-05
-2.70262e-05
-2.44789e-05
-2.21085e-05
-1.99081e-05
-1.78702e-05
-1.59874e-05
-1.42522e-05
-1.2657e-05
-1.11942e-05
-9.85637e-06
-8.63612e-06
-7.52625e-06
-6.51952e-06
-5.60952e-06
-0.000200309
-0.000191948
-0.000183673
-0.000175495
-0.000167429
-0.000159489
-0.00015169
-0.000144043
-0.00013656
-0.000129253
-0.000122132
-0.000115207
-0.000108486
-0.000101976
-9.56854e-05
-8.96182e-05
-8.37794e-05
-7.81723e-05
-7.27992e-05
-6.76614e-05
-6.27594e-05
-5.80924e-05
-5.36589e-05
-4.94566e-05
-4.5482e-05
-4.17313e-05
-3.81997e-05
-3.4882e-05
-3.17721e-05
-2.88638e-05
-2.61503e-05
-2.36243e-05
-2.12784e-05
-1.9105e-05
-1.70962e-05
-1.52441e-05
-1.35408e-05
-1.19782e-05
-1.05486e-05
-9.244e-06
-8.05687e-06
-6.97977e-06
-6.0052e-06
-5.12667e-06
-0.000203264
-0.000194554
-0.000185945
-0.00017745
-0.000169083
-0.00016086
-0.000152793
-0.000144897
-0.000137182
-0.00012966
-0.000122342
-0.000115236
-0.000108351
-0.000101694
-9.52708e-05
-8.90869e-05
-8.3146e-05
-7.74507e-05
-7.20028e-05
-6.68028e-05
-6.18503e-05
-5.71438e-05
-5.2681e-05
-4.84586e-05
-4.44725e-05
-4.0718e-05
-3.71896e-05
-3.38811e-05
-3.0786e-05
-2.78972e-05
-2.52071e-05
-2.2708e-05
-2.03919e-05
-1.82504e-05
-1.62754e-05
-1.44584e-05
-1.2791e-05
-1.12649e-05
-9.8718e-06
-8.60372e-06
-7.45267e-06
-6.41103e-06
-5.47109e-06
-4.62626e-06
-0.000206032
-0.000196966
-0.000188017
-0.000179201
-0.00017053
-0.000162021
-0.000153687
-0.000145542
-0.000137596
-0.000129862
-0.000122349
-0.000115067
-0.000108022
-0.000101223
-9.46738e-05
-8.83796e-05
-8.23435e-05
-7.65674e-05
-7.10521e-05
-6.57975e-05
-6.08022e-05
-5.6064e-05
-5.15795e-05
-4.73447e-05
-4.33547e-05
-3.96038e-05
-3.60857e-05
-3.27935e-05
-2.97198e-05
-2.68568e-05
-2.41962e-05
-2.17298e-05
-1.94488e-05
-1.73444e-05
-1.54079e-05
-1.36304e-05
-1.20031e-05
-1.05172e-05
-9.1643e-06
-7.93593e-06
-6.82392e-06
-5.82045e-06
-4.91761e-06
-4.10874e-06
-0.000208592
-0.000199163
-0.000189871
-0.000180729
-0.000171753
-0.000162956
-0.000154356
-0.000145962
-0.000137788
-0.000129845
-0.000122142
-0.000114688
-0.00010749
-0.000100554
-9.38859e-05
-8.74888e-05
-8.13651e-05
-7.5516e-05
-6.99416e-05
-6.46406e-05
-5.96109e-05
-5.48492e-05
-5.03515e-05
-4.61125e-05
-4.21265e-05
-3.8387e-05
-3.48867e-05
-3.1618e-05
-2.85726e-05
-2.5742e-05
-2.31173e-05
-2.06895e-05
-1.84492e-05
-1.63871e-05
-1.4494e-05
-1.27605e-05
-1.11775e-05
-9.73575e-06
-8.42652e-06
-7.24113e-06
-6.17114e-06
-5.20856e-06
-4.34528e-06
-3.57458e-06
-0.000210924
-0.000201128
-0.000191488
-0.000182018
-0.000172733
-0.00016365
-0.000154783
-0.000146144
-0.000137745
-0.000129596
-0.000121708
-0.000114088
-0.000106743
-9.96781e-05
-9.28985e-05
-8.64065e-05
-8.02037e-05
-7.42905e-05
-6.86657e-05
-6.33274e-05
-5.82723e-05
-5.34962e-05
-4.89939e-05
-4.47595e-05
-4.0786e-05
-3.7066e-05
-3.35915e-05
-3.03538e-05
-2.7344e-05
-2.45526e-05
-2.19703e-05
-1.95871e-05
-1.73932e-05
-1.53789e-05
-1.35341e-05
-1.18492e-05
-1.03147e-05
-8.921e-06
-7.65904e-06
-6.51989e-06
-5.49492e-06
-4.57593e-06
-3.75465e-06
-3.02434e-06
-0.000213009
-0.00020284
-0.000192847
-0.000183047
-0.000173454
-0.000164085
-0.000154953
-0.000146071
-0.000137451
-0.000129102
-0.000121035
-0.000113255
-0.000105771
-9.85856e-05
-9.17031e-05
-8.51253e-05
-7.88528e-05
-7.28848e-05
-6.72194e-05
-6.18535e-05
-5.67826e-05
-5.20016e-05
-4.75043e-05
-4.32834e-05
-3.93313e-05
-3.56395e-05
-3.2199e-05
-2.90002e-05
-2.60334e-05
-2.32885e-05
-2.07551e-05
-1.84229e-05
-1.62813e-05
-1.432e-05
-1.25287e-05
-1.08971e-05
-9.41532e-06
-8.07361e-06
-6.86252e-06
-5.7729e-06
-4.79591e-06
-3.9232e-06
-3.14637e-06
-2.45862e-06
-0.000214823
-0.000204276
-0.000193929
-0.000183798
-0.000173896
-0.000164242
-0.000154848
-0.000145728
-0.000136892
-0.000128349
-0.00012011
-0.000112179
-0.000104564
-9.7267e-05
-9.02912e-05
-8.36376e-05
-7.73055e-05
-7.12933e-05
-6.55977e-05
-6.02145e-05
-5.51383e-05
-5.03626e-05
-4.58801e-05
-4.16826e-05
-3.77612e-05
-3.41065e-05
-3.07085e-05
-2.75569e-05
-2.46409e-05
-2.19496e-05
-1.94721e-05
-1.71972e-05
-1.51139e-05
-1.32112e-05
-1.14784e-05
-9.90481e-06
-8.48016e-06
-7.19438e-06
-6.03775e-06
-5.00092e-06
-4.07486e-06
-3.25111e-06
-2.52111e-06
-1.87809e-06
-0.000216344
-0.000205416
-0.000194712
-0.000184249
-0.00017404
-0.000164104
-0.000154453
-0.000145099
-0.000136053
-0.000127324
-0.000118921
-0.000110848
-0.000103111
-9.5713e-05
-8.86546e-05
-8.19361e-05
-7.55556e-05
-6.95103e-05
-6.37958e-05
-5.84066e-05
-5.3336e-05
-4.85764e-05
-4.41192e-05
-3.99552e-05
-3.60744e-05
-3.24662e-05
-2.91198e-05
-2.60237e-05
-2.31665e-05
-2.05364e-05
-1.81217e-05
-1.59107e-05
-1.38917e-05
-1.20533e-05
-1.03841e-05
-8.87329e-06
-7.51008e-06
-6.28417e-06
-5.18558e-06
-4.20479e-06
-3.3326e-06
-2.56044e-06
-1.87964e-06
-1.28345e-06
-0.000217547
-0.000206235
-0.000195174
-0.000184379
-0.000173866
-0.000163651
-0.000153748
-0.000144167
-0.000134919
-0.000126012
-0.000117454
-0.00010925
-0.000101403
-9.39144e-05
-8.67852e-05
-8.00136e-05
-7.35969e-05
-6.75307e-05
-6.18093e-05
-5.6426e-05
-5.13728e-05
-4.66407e-05
-4.222e-05
-3.81001e-05
-3.42701e-05
-3.07182e-05
-2.74325e-05
-2.44008e-05
-2.16105e-05
-1.90493e-05
-1.67047e-05
-1.45642e-05
-1.26157e-05
-1.08472e-05
-9.24689e-06
-7.80354e-06
-6.50611e-06
-5.34399e-06
-4.30702e-06
-3.38548e-06
-2.57004e-06
-1.85206e-06
-1.22277e-06
-6.7548e-07
-0.000218407
-0.000206709
-0.000195291
-0.000184168
-0.000173353
-0.000162865
-0.000152715
-0.000142916
-0.000133475
-0.0001244
-0.000115699
-0.000107374
-9.94283e-05
-9.18623e-05
-8.4675e-05
-7.78635e-05
-7.14236e-05
-6.53496e-05
-5.96343e-05
-5.42696e-05
-4.92461e-05
-4.45536e-05
-4.0181e-05
-3.61165e-05
-3.23479e-05
-2.88624e-05
-2.5647e-05
-2.26886e-05
-1.99738e-05
-1.74893e-05
-1.5222e-05
-1.31588e-05
-1.1287e-05
-9.59402e-06
-8.06785e-06
-6.69674e-06
-5.4694e-06
-4.37499e-06
-3.40315e-06
-2.54402e-06
-1.78818e-06
-1.12691e-06
-5.51403e-07
-5.50098e-08
-0.000218897
-0.000206814
-0.00019504
-0.000183591
-0.000172481
-0.000161726
-0.000151338
-0.000141328
-0.000131705
-0.000122474
-0.000113641
-0.000105208
-9.71777e-05
-8.9548e-05
-8.23165e-05
-7.54792e-05
-6.90303e-05
-6.29624e-05
-5.7267e-05
-5.19344e-05
-4.69538e-05
-4.23136e-05
-3.80012e-05
-3.40037e-05
-3.03076e-05
-2.68989e-05
-2.37638e-05
-2.08879e-05
-1.82571e-05
-1.58573e-05
-1.36747e-05
-1.16956e-05
-9.90675e-06
-8.29513e-06
-6.84827e-06
-5.55413e-06
-4.40117e-06
-3.37834e-06
-2.47511e-06
-1.68151e-06
-9.88042e-07
-3.8597e-07
1.33571e-07
5.77125e-07
-0.00021899
-0.000206522
-0.000194395
-0.000182625
-0.000171225
-0.000160212
-0.000149596
-0.000139387
-0.000129592
-0.000120218
-0.000111267
-0.000102741
-9.46405e-05
-8.6962e-05
-7.97017e-05
-7.28538e-05
-6.6411e-05
-6.03642e-05
-5.47034e-05
-4.94173e-05
-4.44934e-05
-3.99187e-05
-3.56793e-05
-3.1761e-05
-2.81488e-05
-2.48278e-05
-2.1783e-05
-1.89991e-05
-1.64612e-05
-1.41543e-05
-1.20639e-05
-1.01758e-05
-8.47619e-06
-6.95164e-06
-5.58931e-06
-4.37687e-06
-3.30255e-06
-2.35512e-06
-1.52393e-06
-7.98923e-07
-1.70555e-07
3.69907e-07
8.31339e-07
1.22017e-06
-0.000218655
-0.000205804
-0.00019333
-0.000181245
-0.000169564
-0.000158301
-0.000147469
-0.000137073
-0.000127122
-0.000117618
-0.000108565
-9.99615e-05
-9.18065e-05
-8.40957e-05
-7.68231e-05
-6.99812e-05
-6.35608e-05
-5.75513e-05
-5.19407e-05
-4.67161e-05
-4.18636e-05
-3.73684e-05
-3.32154e-05
-2.93887e-05
-2.58724e-05
-2.26503e-05
-1.97062e-05
-1.7024e-05
-1.45878e-05
-1.23821e-05
-1.03915e-05
-8.60136e-06
-6.99727e-06
-5.56551e-06
-4.29289e-06
-3.16682e-06
-2.17533e-06
-1.30705e-06
-5.51243e-07
1.02193e-07
6.62827e-07
1.13935e-06
1.54063e-06
1.87295e-06
-0.000217864
-0.000204636
-0.00019182
-0.000179429
-0.000167477
-0.000155977
-0.00014494
-0.000134373
-0.000124279
-0.000114663
-0.000105524
-9.6861e-05
-8.86696e-05
-8.09443e-05
-7.36772e-05
-6.68589e-05
-6.04782e-05
-5.45227e-05
-4.89788e-05
-4.38316e-05
-3.90655e-05
-3.46643e-05
-3.06113e-05
-2.68892e-05
-2.34809e-05
-2.03689e-05
-1.75361e-05
-1.49654e-05
-1.264e-05
-1.05436e-05
-8.66035e-06
-6.97496e-06
-5.47265e-06
-4.1393e-06
-2.96145e-06
-1.92628e-06
-1.02167e-06
-2.3616e-07
4.41055e-07
1.02009e-06
1.51048e-06
1.92088e-06
2.26008e-06
2.5342e-06
-0.000216595
-0.000202996
-0.000189846
-0.000177159
-0.000164948
-0.000153225
-0.000141999
-0.000131275
-0.000121057
-0.000111346
-0.000102139
-9.34348e-05
-8.5226e-05
-7.75051e-05
-7.02622e-05
-6.34859e-05
-5.71631e-05
-5.12793e-05
-4.5819e-05
-4.07655e-05
-3.61015e-05
-3.18091e-05
-2.787e-05
-2.42656e-05
-2.09775e-05
-1.79871e-05
-1.52761e-05
-1.28265e-05
-1.06208e-05
-8.64192e-06
-6.87346e-06
-5.29958e-06
-3.90512e-06
-2.67567e-06
-1.5975e-06
-6.57622e-07
1.56199e-07
8.55488e-07
1.45105e-06
1.95298e-06
2.37078e-06
2.71298e-06
2.98831e-06
3.20267e-06
-0.000376033
-0.000370846
-0.000365217
-0.000359178
-0.00035278
-0.000346062
-0.000339057
-0.000331799
-0.000324323
-0.000316662
-0.000308848
-0.000300911
-0.00029288
-0.000284783
-0.000276645
-0.00026849
-0.000260341
-0.000252221
-0.000244147
-0.000236138
-0.000228212
-0.000220383
-0.000212664
-0.000205069
-0.000197608
-0.000190291
-0.000393311
-0.000387529
-0.000381294
-0.000374644
-0.000367629
-0.000360291
-0.000352668
-0.000344794
-0.000336707
-0.000328441
-0.000320031
-0.000311508
-0.000302902
-0.000294242
-0.000285555
-0.000276867
-0.0002682
-0.000259577
-0.000251019
-0.000242543
-0.000234166
-0.000225905
-0.000217774
-0.000209783
-0.000201945
-0.00019427
-0.000411219
-0.000404798
-0.000397914
-0.000390608
-0.000382934
-0.000374937
-0.000366654
-0.000358126
-0.00034939
-0.000340484
-0.000331442
-0.000322299
-0.000313087
-0.000303834
-0.000294571
-0.000285322
-0.000276112
-0.000266964
-0.000257899
-0.000248935
-0.000240091
-0.000231382
-0.000222821
-0.000214422
-0.000206195
-0.000198149
-0.000429782
-0.000422674
-0.000415094
-0.000407087
-0.000398709
-0.000390007
-0.000381023
-0.000371799
-0.000362374
-0.000352788
-0.000343079
-0.000333282
-0.000323429
-0.000313553
-0.000303682
-0.000293845
-0.000284066
-0.000274369
-0.000264775
-0.000255303
-0.000245972
-0.000236797
-0.000227793
-0.000218971
-0.000210342
-0.000201916
-0.000449026
-0.00044118
-0.000432855
-0.000424096
-0.000414965
-0.000405513
-0.000395782
-0.000385817
-0.000375661
-0.000365355
-0.000354939
-0.00034445
-0.000333922
-0.000323389
-0.000312881
-0.000302426
-0.000292051
-0.000281779
-0.000271633
-0.000261633
-0.000251796
-0.000242138
-0.000232674
-0.000223415
-0.000214372
-0.000205555
-0.000468977
-0.000460339
-0.000451214
-0.000441652
-0.000431717
-0.000421463
-0.000410936
-0.000400184
-0.000389251
-0.000378182
-0.000367018
-0.000355798
-0.000344559
-0.000333334
-0.000322155
-0.000311053
-0.000300053
-0.000289182
-0.00027846
-0.000267909
-0.000257546
-0.000247387
-0.000237447
-0.000227738
-0.000218269
-0.000209049
-0.000489664
-0.000480175
-0.000470193
-0.00045977
-0.000448975
-0.000437866
-0.000426492
-0.000414902
-0.000403145
-0.000391268
-0.000379312
-0.00036732
-0.00035533
-0.000343377
-0.000331494
-0.000319713
-0.00030806
-0.000296561
-0.000285239
-0.000274114
-0.000263205
-0.000252528
-0.000242096
-0.000231922
-0.000222015
-0.000212382
-0.000511116
-0.000500712
-0.00048981
-0.000478466
-0.000466753
-0.000454731
-0.000442454
-0.000429974
-0.000417343
-0.000404608
-0.000391815
-0.000379008
-0.000366226
-0.000353507
-0.000340885
-0.000328391
-0.000316054
-0.0003039
-0.000291952
-0.000280232
-0.000268756
-0.000257542
-0.000246602
-0.000235949
-0.000225591
-0.000215535
-0.000533362
-0.000521976
-0.000510088
-0.000497757
-0.000485062
-0.000472067
-0.000458829
-0.000445402
-0.000431841
-0.000418198
-0.00040452
-0.000390852
-0.000377236
-0.00036371
-0.000350311
-0.000337071
-0.000324018
-0.000311181
-0.000298582
-0.000286241
-0.000274179
-0.000262409
-0.000250945
-0.000239799
-0.000228978
-0.00021849
-0.000556433
-0.000543992
-0.000531046
-0.000517659
-0.000503915
-0.000489882
-0.000475619
-0.000461186
-0.000446639
-0.000432033
-0.000417418
-0.000402841
-0.000388346
-0.000373972
-0.000359758
-0.000345735
-0.000331935
-0.000318384
-0.000305106
-0.000292123
-0.000279451
-0.000267107
-0.000255104
-0.00024345
-0.000232155
-0.000221224
-0.000580362
-0.000566787
-0.000552705
-0.000538189
-0.000523323
-0.000508182
-0.000492828
-0.000477324
-0.000461731
-0.000446105
-0.0004305
-0.000414963
-0.000399542
-0.000384277
-0.000369206
-0.000354365
-0.000339783
-0.000325488
-0.000311505
-0.000297853
-0.000284552
-0.000271615
-0.000259055
-0.000246881
-0.0002351
-0.000223717
-0.00060518
-0.000590386
-0.000575088
-0.000559361
-0.000543297
-0.000526974
-0.000510458
-0.000493817
-0.000477113
-0.000460407
-0.000443754
-0.000427205
-0.000410807
-0.000394605
-0.000378637
-0.000362938
-0.00034754
-0.00033247
-0.000317753
-0.000303409
-0.000289455
-0.000275907
-0.000262774
-0.000250067
-0.00023779
-0.000225947
-0.000630922
-0.000614818
-0.000598215
-0.000581192
-0.000563847
-0.000546263
-0.000528511
-0.00051066
-0.000492778
-0.000474928
-0.000457167
-0.000439549
-0.000422125
-0.000404937
-0.000388027
-0.000371431
-0.000355181
-0.000339304
-0.000323825
-0.000308763
-0.000294136
-0.000279957
-0.000266237
-0.000252983
-0.000240199
-0.000227888
-0.000657621
-0.00064011
-0.000622107
-0.000603697
-0.000584984
-0.000566055
-0.000546985
-0.000527849
-0.000508717
-0.000489655
-0.000470724
-0.000451979
-0.000433473
-0.000415251
-0.000397354
-0.00037982
-0.000362681
-0.000345963
-0.000329693
-0.000313888
-0.000298566
-0.000283739
-0.000269416
-0.000255602
-0.000242302
-0.000229516
-0.000685312
-0.00066629
-0.000646786
-0.000626891
-0.000606715
-0.000586352
-0.00056588
-0.000545378
-0.00052492
-0.000504575
-0.000484407
-0.000464475
-0.00044483
-0.000425521
-0.000406591
-0.000388076
-0.00037001
-0.000352419
-0.000335328
-0.000318755
-0.000302716
-0.000287222
-0.000272281
-0.000257897
-0.000244072
-0.000230804
-0.000714031
-0.000693385
-0.000672271
-0.000650788
-0.00062905
-0.000607156
-0.000585192
-0.000563238
-0.000541374
-0.000519672
-0.000498198
-0.000477012
-0.000456171
-0.000435721
-0.000415709
-0.00039617
-0.000377138
-0.000358639
-0.000340698
-0.000323331
-0.000306554
-0.000290376
-0.000274803
-0.000259838
-0.00024548
-0.000231726
-0.000743815
-0.000721425
-0.000698586
-0.000675401
-0.000651995
-0.00062847
-0.000604916
-0.000581421
-0.000558065
-0.000534927
-0.000512073
-0.000489568
-0.000467467
-0.000445822
-0.000424677
-0.000404069
-0.00038403
-0.000364589
-0.000345768
-0.000327583
-0.000310046
-0.000293167
-0.000276949
-0.000261392
-0.000246495
-0.00023225
-0.000774698
-0.000750434
-0.000725744
-0.000700741
-0.000675552
-0.000650288
-0.000625044
-0.000599911
-0.000574976
-0.000550318
-0.000526008
-0.000502113
-0.000478689
-0.00045579
-0.000433461
-0.000411739
-0.000390653
-0.000370233
-0.000350501
-0.000331472
-0.000313156
-0.000295559
-0.000278683
-0.000262526
-0.000247084
-0.000232347
-0.000806706
-0.000780431
-0.000753759
-0.00072681
-0.000699719
-0.000672603
-0.000645561
-0.00061869
-0.000592081
-0.000565817
-0.000539972
-0.000514613
-0.000489801
-0.000465588
-0.00044202
-0.000419138
-0.000396968
-0.000375534
-0.000354861
-0.000334963
-0.000315847
-0.000297517
-0.000279972
-0.000263209
-0.000247217
-0.000231986
-0.000450317
-0.000426225
-0.000402927
-0.000380449
-0.000358807
-0.000338017
-0.000318083
-0.000299007
-0.000280785
-0.000263408
-0.000246866
-0.000231143
9.62554e-05
9.3373e-05
9.05456e-05
8.77742e-05
8.50596e-05
8.23999e-05
7.97951e-05
7.72452e-05
7.475e-05
7.23092e-05
6.99224e-05
6.75893e-05
6.53095e-05
6.30825e-05
6.09079e-05
5.87853e-05
5.67141e-05
5.46937e-05
5.27237e-05
5.08035e-05
4.89324e-05
4.711e-05
4.53354e-05
4.36081e-05
4.19275e-05
4.02927e-05
9.5824e-05
9.29417e-05
9.01147e-05
8.7344e-05
8.46304e-05
8.1972e-05
7.93687e-05
7.68205e-05
7.43273e-05
7.18888e-05
6.95045e-05
6.71742e-05
6.48973e-05
6.26735e-05
6.05023e-05
5.83832e-05
5.63157e-05
5.42993e-05
5.23334e-05
5.04175e-05
4.85508e-05
4.67329e-05
4.4963e-05
4.32406e-05
4.15649e-05
3.99352e-05
9.49836e-05
9.21015e-05
8.92754e-05
8.65061e-05
8.37944e-05
8.11384e-05
7.85381e-05
7.59935e-05
7.35043e-05
7.10702e-05
6.86909e-05
6.63659e-05
6.40948e-05
6.18772e-05
5.97126e-05
5.76005e-05
5.55404e-05
5.35317e-05
5.15739e-05
4.96663e-05
4.78083e-05
4.59993e-05
4.42386e-05
4.25256e-05
4.08596e-05
3.92398e-05
9.37544e-05
9.08727e-05
8.80479e-05
8.52807e-05
8.2572e-05
7.99198e-05
7.73239e-05
7.47845e-05
7.23012e-05
6.98738e-05
6.75018e-05
6.51847e-05
6.29222e-05
6.07139e-05
5.85591e-05
5.64573e-05
5.44081e-05
5.24108e-05
5.04648e-05
4.85695e-05
4.67242e-05
4.49284e-05
4.31813e-05
4.14821e-05
3.98303e-05
3.82251e-05
9.21533e-05
8.92725e-05
8.64495e-05
8.36853e-05
8.09806e-05
7.83334e-05
7.57435e-05
7.32111e-05
7.07358e-05
6.83171e-05
6.59548e-05
6.36483e-05
6.13972e-05
5.9201e-05
5.70592e-05
5.49711e-05
5.29362e-05
5.09539e-05
4.90235e-05
4.71444e-05
4.5316e-05
4.35375e-05
4.18081e-05
4.01273e-05
3.84941e-05
3.69079e-05
9.01955e-05
8.73158e-05
8.44954e-05
8.17351e-05
7.90355e-05
7.63947e-05
7.38125e-05
7.12889e-05
6.88235e-05
6.6416e-05
6.40658e-05
6.17726e-05
5.95357e-05
5.73547e-05
5.52289e-05
5.31578e-05
5.11407e-05
4.91771e-05
4.72661e-05
4.54071e-05
4.35995e-05
4.18424e-05
4.0135e-05
3.84768e-05
3.68667e-05
3.53041e-05
8.78937e-05
8.50158e-05
8.21987e-05
7.94433e-05
7.67502e-05
7.41173e-05
7.15445e-05
6.90317e-05
6.65784e-05
6.41843e-05
6.18489e-05
5.95716e-05
5.73518e-05
5.51891e-05
5.30826e-05
5.10319e-05
4.90362e-05
4.70948e-05
4.5207e-05
4.33721e-05
4.15892e-05
3.98577e-05
3.81766e-05
3.65452e-05
3.49626e-05
3.34281e-05
8.5259e-05
8.23836e-05
7.95709e-05
7.68216e-05
7.41364e-05
7.15132e-05
6.89516e-05
6.64516e-05
6.40128e-05
6.16346e-05
5.93166e-05
5.70581e-05
5.48584e-05
5.27171e-05
5.06333e-05
4.86065e-05
4.66357e-05
4.47204e-05
4.28596e-05
4.10527e-05
3.92987e-05
3.75969e-05
3.59463e-05
3.43462e-05
3.27955e-05
3.12934e-05
8.23012e-05
7.94292e-05
7.66219e-05
7.38802e-05
7.12045e-05
6.85926e-05
6.60444e-05
6.35595e-05
6.11375e-05
5.8778e-05
5.64801e-05
5.42434e-05
5.20671e-05
4.99505e-05
4.78928e-05
4.58934e-05
4.39513e-05
4.20659e-05
4.02362e-05
3.84613e-05
3.67404e-05
3.50725e-05
3.34568e-05
3.18922e-05
3.03779e-05
2.89128e-05
7.90283e-05
7.61608e-05
7.33604e-05
7.06278e-05
6.79634e-05
6.5365e-05
6.28322e-05
6.03649e-05
5.79625e-05
5.56243e-05
5.33496e-05
5.11378e-05
4.89881e-05
4.68997e-05
4.48718e-05
4.29036e-05
4.09941e-05
3.91425e-05
3.73479e-05
3.56092e-05
3.39256e-05
3.22961e-05
3.07196e-05
2.91951e-05
2.77217e-05
2.62982e-05
7.54476e-05
7.25859e-05
6.97938e-05
6.70721e-05
6.44211e-05
6.18383e-05
5.93236e-05
5.68764e-05
5.44963e-05
5.21825e-05
4.99343e-05
4.77508e-05
4.56312e-05
4.35746e-05
4.15803e-05
3.96471e-05
3.77742e-05
3.59606e-05
3.42053e-05
3.25072e-05
3.08653e-05
2.92786e-05
2.77459e-05
2.62661e-05
2.48382e-05
2.3461e-05
7.15649e-05
6.87106e-05
6.59286e-05
6.32199e-05
6.05844e-05
5.80198e-05
5.55257e-05
5.31016e-05
5.07469e-05
4.84607e-05
4.62423e-05
4.40906e-05
4.20049e-05
3.99841e-05
3.80272e-05
3.61332e-05
3.43012e-05
3.25299e-05
3.08182e-05
2.91652e-05
2.75696e-05
2.60302e-05
2.45459e-05
2.31156e-05
2.17379e-05
2.04118e-05
6.73854e-05
6.45403e-05
6.17705e-05
5.90769e-05
5.64595e-05
5.39158e-05
5.14452e-05
4.90473e-05
4.67213e-05
4.44662e-05
4.22812e-05
4.01652e-05
3.81172e-05
3.61362e-05
3.4221e-05
3.23706e-05
3.05837e-05
2.88592e-05
2.71959e-05
2.55925e-05
2.40479e-05
2.25607e-05
2.11297e-05
1.97536e-05
1.84311e-05
1.71609e-05
6.29134e-05
6.00794e-05
5.73241e-05
5.46482e-05
5.20517e-05
4.95318e-05
4.70879e-05
4.47196e-05
4.24258e-05
4.02056e-05
3.80579e-05
3.59816e-05
3.39756e-05
3.20386e-05
3.01696e-05
2.83672e-05
2.66301e-05
2.49572e-05
2.3347e-05
2.17982e-05
2.03094e-05
1.88793e-05
1.75066e-05
1.61897e-05
1.49274e-05
1.37181e-05
5.81525e-05
5.53319e-05
5.25936e-05
4.99382e-05
4.73656e-05
4.48728e-05
4.24591e-05
4.01239e-05
3.78662e-05
3.56849e-05
3.35787e-05
3.15464e-05
2.95868e-05
2.76985e-05
2.58802e-05
2.41307e-05
2.24483e-05
2.08318e-05
1.92797e-05
1.77905e-05
1.63628e-05
1.4995e-05
1.36856e-05
1.24332e-05
1.12361e-05
1.0093e-05
5.31055e-05
5.0301e-05
4.75825e-05
4.49508e-05
4.24053e-05
3.99431e-05
3.75634e-05
3.52654e-05
3.30479e-05
3.09097e-05
2.88494e-05
2.68657e-05
2.49572e-05
2.31224e-05
2.136e-05
1.96682e-05
1.80457e-05
1.64909e-05
1.50021e-05
1.35778e-05
1.22163e-05
1.09161e-05
9.67547e-06
8.49282e-06
7.3665e-06
6.29488e-06
4.77748e-05
4.49893e-05
4.22938e-05
3.96891e-05
3.71744e-05
3.47467e-05
3.2405e-05
3.01484e-05
2.79755e-05
2.58851e-05
2.38755e-05
2.19453e-05
2.00929e-05
1.83168e-05
1.66153e-05
1.49867e-05
1.34294e-05
1.19416e-05
1.05216e-05
9.16774e-06
7.87812e-06
6.65104e-06
5.48472e-06
4.37738e-06
3.32726e-06
2.33259e-06
4.21624e-05
3.9399e-05
3.673e-05
3.4156e-05
3.16762e-05
2.92871e-05
2.69878e-05
2.47772e-05
2.26537e-05
2.0616e-05
1.86621e-05
1.67906e-05
1.49997e-05
1.32877e-05
1.16526e-05
1.00928e-05
8.60629e-06
7.19128e-06
5.84584e-06
4.56807e-06
3.35606e-06
2.20787e-06
1.12159e-06
9.52866e-08
-8.72942e-07
-1.785e-06
3.62696e-05
3.35319e-05
3.08933e-05
2.83541e-05
2.59133e-05
2.35675e-05
2.13153e-05
1.91556e-05
1.70867e-05
1.51068e-05
1.32141e-05
1.14069e-05
9.68304e-06
8.04075e-06
6.478e-06
4.99278e-06
3.58305e-06
2.24677e-06
9.81851e-07
-2.13776e-07
-1.3422e-06
-2.40552e-06
-3.40581e-06
-4.34515e-06
-5.22562e-06
-6.04926e-06
3.00976e-05
2.73895e-05
2.47854e-05
2.22854e-05
1.98884e-05
1.75907e-05
1.53907e-05
1.32872e-05
1.12782e-05
9.36188e-06
7.53614e-06
5.79895e-06
4.14819e-06
2.58173e-06
1.09738e-06
-3.07047e-07
-1.6338e-06
-2.88511e-06
-4.06325e-06
-5.17049e-06
-6.2091e-06
-7.18133e-06
-8.08947e-06
-8.93574e-06
-9.72239e-06
-1.04516e-05
2.36472e-05
2.0973e-05
1.84078e-05
1.59519e-05
1.36037e-05
1.13593e-05
9.21704e-06
7.17534e-06
5.23218e-06
3.38535e-06
1.63262e-06
-2.82884e-08
-1.59968e-06
-3.08393e-06
-4.48342e-06
-5.80057e-06
-7.03783e-06
-8.19765e-06
-9.2825e-06
-1.02948e-05
-1.12372e-05
-1.21119e-05
-1.29215e-05
-1.36684e-05
-1.4355e-05
-1.49837e-05
1.69189e-05
1.42831e-05
1.17619e-05
9.35517e-06
7.06125e-06
4.87582e-06
2.79712e-06
8.23315e-07
-1.04786e-06
-2.81884e-06
-4.4921e-06
-6.07014e-06
-7.55551e-06
-8.95082e-06
-1.02587e-05
-1.14818e-05
-1.26227e-05
-1.36842e-05
-1.4669e-05
-1.55797e-05
-1.6419e-05
-1.71895e-05
-1.7894e-05
-1.8535e-05
-1.91151e-05
-1.9637e-05
9.91292e-06
7.32067e-06
4.84867e-06
2.49677e-06
2.62927e-07
-1.85744e-06
-3.86633e-06
-5.76581e-06
-7.55841e-06
-9.24681e-06
-1.08337e-05
-1.2322e-05
-1.37143e-05
-1.50136e-05
-1.62227e-05
-1.73446e-05
-1.83821e-05
-1.93382e-05
-2.02158e-05
-2.10178e-05
-2.17471e-05
-2.24066e-05
-2.29992e-05
-2.35276e-05
-2.39947e-05
-2.44032e-05
2.62943e-06
8.61228e-08
-2.33091e-06
-4.62198e-06
-6.78948e-06
-8.83831e-06
-1.07707e-05
-1.2589e-05
-1.4296e-05
-1.58947e-05
-1.73881e-05
-1.87792e-05
-2.00711e-05
-2.1267e-05
-2.23699e-05
-2.33831e-05
-2.43098e-05
-2.51531e-05
-2.59161e-05
-2.66021e-05
-2.72142e-05
-2.77556e-05
-2.82292e-05
-2.86381e-05
-2.89853e-05
-2.92739e-05
-4.93166e-06
-7.42014e-06
-9.77602e-06
-1.19998e-05
-1.40943e-05
-1.60647e-05
-1.79135e-05
-1.96433e-05
-2.12573e-05
-2.27588e-05
-2.4151e-05
-2.54372e-05
-2.6621e-05
-2.77056e-05
-2.86946e-05
-2.95913e-05
-3.03994e-05
-3.11221e-05
-3.1763e-05
-3.23255e-05
-3.28129e-05
-3.32287e-05
-3.35761e-05
-3.38585e-05
-3.4079e-05
-3.42408e-05
-1.27705e-05
-1.51978e-05
-1.74859e-05
-1.96355e-05
-2.16498e-05
-2.35344e-05
-2.52921e-05
-2.69258e-05
-2.84389e-05
-2.98352e-05
-3.11181e-05
-3.22914e-05
-3.33588e-05
-3.43241e-05
-3.51909e-05
-3.59631e-05
-3.66445e-05
-3.72387e-05
-3.77495e-05
-3.81806e-05
-3.85357e-05
-3.88184e-05
-3.90322e-05
-3.91807e-05
-3.92674e-05
-3.92955e-05
-2.08874e-05
-2.32468e-05
-2.546e-05
-2.7528e-05
-2.94546e-05
-3.12455e-05
-3.2904e-05
-3.44334e-05
-3.58374e-05
-3.712e-05
-3.82852e-05
-3.93371e-05
-4.02797e-05
-4.1117e-05
-4.18532e-05
-4.24924e-05
-4.30386e-05
-4.3496e-05
-4.38685e-05
-4.41602e-05
-4.4375e-05
-4.45168e-05
-4.45895e-05
-4.45967e-05
-4.45422e-05
-4.44296e-05
-2.92825e-05
-3.15667e-05
-3.36975e-05
-3.56762e-05
-3.75068e-05
-3.91958e-05
-4.07467e-05
-4.21631e-05
-4.34492e-05
-4.46094e-05
-4.56481e-05
-4.65695e-05
-4.73783e-05
-4.80788e-05
-4.86755e-05
-4.91729e-05
-4.95754e-05
-4.98873e-05
-5.01131e-05
-5.0257e-05
-5.03234e-05
-5.03163e-05
-5.02399e-05
-5.00983e-05
-4.98953e-05
-4.96348e-05
-3.79563e-05
-4.01576e-05
-4.21978e-05
-4.40787e-05
-4.58049e-05
-4.73832e-05
-4.88175e-05
-5.01119e-05
-5.12709e-05
-5.22994e-05
-5.32021e-05
-5.39839e-05
-5.46495e-05
-5.5204e-05
-5.5652e-05
-5.59984e-05
-5.6248e-05
-5.64056e-05
-5.64759e-05
-5.64635e-05
-5.6373e-05
-5.62089e-05
-5.59755e-05
-5.56772e-05
-5.53182e-05
-5.49025e-05
-4.69092e-05
-4.90191e-05
-5.09603e-05
-5.27345e-05
-5.43471e-05
-5.58054e-05
-5.71137e-05
-5.82764e-05
-5.92987e-05
-6.01858e-05
-6.09428e-05
-6.15751e-05
-6.2088e-05
-6.24866e-05
-6.27763e-05
-6.29624e-05
-6.30498e-05
-6.30439e-05
-6.29497e-05
-6.27722e-05
-6.25162e-05
-6.21866e-05
-6.17881e-05
-6.13253e-05
-6.08025e-05
-6.02243e-05
-5.61412e-05
-5.81511e-05
-5.9984e-05
-6.16423e-05
-6.31317e-05
-6.44602e-05
-6.56325e-05
-6.66535e-05
-6.75289e-05
-6.82643e-05
-6.88655e-05
-6.93382e-05
-6.96881e-05
-6.9921e-05
-7.00425e-05
-7.00583e-05
-6.9974e-05
-6.97951e-05
-6.95271e-05
-6.91754e-05
-6.87452e-05
-6.82415e-05
-6.76696e-05
-6.70341e-05
-6.634e-05
-6.55917e-05
-6.56529e-05
-6.75533e-05
-6.92683e-05
-7.08006e-05
-7.21566e-05
-7.3345e-05
-7.43708e-05
-7.52396e-05
-7.59575e-05
-7.65307e-05
-7.69654e-05
-7.72679e-05
-7.74443e-05
-7.7501e-05
-7.7444e-05
-7.72794e-05
-7.70134e-05
-7.66518e-05
-7.62006e-05
-7.56654e-05
-7.50519e-05
-7.43655e-05
-7.36116e-05
-7.27954e-05
-7.19219e-05
-7.0996e-05
-7.54442e-05
-7.72253e-05
-7.88121e-05
-8.02079e-05
-8.14199e-05
-8.24573e-05
-8.33257e-05
-8.40312e-05
-8.45805e-05
-8.49803e-05
-8.52374e-05
-8.53587e-05
-8.53507e-05
-8.52204e-05
-8.49743e-05
-8.4619e-05
-8.4161e-05
-8.36067e-05
-8.29625e-05
-8.22343e-05
-8.14283e-05
-8.05503e-05
-7.96059e-05
-7.86007e-05
-7.754e-05
-7.64289e-05
-8.55153e-05
-8.71665e-05
-8.86144e-05
-8.98627e-05
-9.09194e-05
-9.17944e-05
-9.24938e-05
-9.30245e-05
-9.33935e-05
-9.36084e-05
-9.36764e-05
-9.3605e-05
-9.34014e-05
-9.30729e-05
-9.26267e-05
-9.20699e-05
-9.14095e-05
-9.06523e-05
-8.9805e-05
-8.88742e-05
-8.78664e-05
-8.67877e-05
-8.56441e-05
-8.44415e-05
-8.31856e-05
-8.18817e-05
-9.58661e-05
-9.73764e-05
-9.86739e-05
-9.9763e-05
-0.000100653
-0.000101353
-0.000101872
-0.000102215
-0.000102392
-0.00010241
-0.000102277
-0.000102001
-0.00010159
-0.000101052
-0.000100394
-9.96251e-05
-9.87514e-05
-9.77807e-05
-9.67203e-05
-9.55771e-05
-9.43579e-05
-9.30693e-05
-9.17177e-05
-9.03094e-05
-8.88502e-05
-8.73458e-05
-0.000106496
-0.000107854
-0.000108989