/*--------------------------------*- C++ -*----------------------------------*\
| =========                 |                                                 |
| \\      /  F ield         | OpenFOAM: The Open Source CFD Toolbox           |
|  \\    /   O peration     | Version:  2412                                  |
|   \\  /    A nd           | Website:  www.openfoam.com                      |
|    \\/     M anipulation  |                                                 |
\*---------------------------------------------------------------------------*/
FoamFile
{
    version     2.0;
    format      ascii;
    arch        "LSB;label=32;scalar=64";
    class       surfaceScalarField;
    location    "26.5";
    object      phi;
}
// * * * * * * * * * * * * * * * * * * * * * * * * * * * * * * * * * * * * * //

dimensions      [0 3 -1 0 0 0 0];

oriented        oriented;

internalField   nonuniform List<scalar> 
10424
(
0.00549148
0.00030311
-0.00550043
-0.00029416
0.00548255
0.000307579
-0.00029865
0.00547366
0.000311783
-0.000302891
0.00546482
0.000315709
-0.000306869
0.00545605
0.000319341
-0.00031057
0.00544736
0.000322669
-0.000313983
0.00543878
0.000325681
-0.000317098
0.00543032
0.000328369
-0.000319905
0.00542199
0.000330726
-0.000322396
0.00541381
0.000332744
-0.000324566
0.0054058
0.00033442
-0.000326408
0.00539797
0.000335747
-0.000327918
0.00539034
0.000336724
-0.000329092
0.00538291
0.000337347
-0.000329925
0.00537571
0.000337614
-0.000330415
0.00536875
0.000337523
-0.000330559
0.00536203
0.000337073
-0.000330354
0.00535557
0.000336264
-0.000329799
0.00534936
0.000335096
-0.000328893
0.00534343
0.00033357
-0.000327636
0.00533777
0.000331688
-0.00032603
0.00533239
0.000329455
-0.000324076
0.0053273
0.000326875
-0.000321778
0.00532248
0.000323957
-0.000319144
0.00531795
0.000320708
-0.00031618
0.00531371
0.00031714
-0.000312895
0.00530975
0.000313264
-0.000309301
0.00530607
0.000309094
-0.000305411
0.00530266
0.000304646
-0.000301238
0.00529952
0.000299936
-0.000296799
0.00529665
0.000294981
-0.000292109
0.00529404
0.000289799
-0.000287186
0.00529167
0.000284409
-0.000282047
0.00528956
0.00027883
-0.000276711
0.00528767
0.000273081
-0.000271196
0.00528601
0.000267179
-0.000265521
0.00528457
0.000261145
-0.000259702
0.00528333
0.000254995
-0.000253758
0.00528229
0.000248748
-0.000247705
0.00528143
0.000242418
-0.000241559
0.00528075
0.000236021
-0.000235334
0.00528022
0.00022957
-0.000229043
0.00527984
0.000223076
-0.000222696
0.00021655
-0.000216306
0.00549009
0.000312335
-0.00549931
0.00548089
0.000316775
0.00547174
0.000320933
0.00546266
0.000324796
0.00545365
0.000328349
0.00544474
0.000331579
0.00543594
0.000334477
0.00542728
0.000337034
0.00541876
0.000339241
0.00541041
0.000341095
0.00540224
0.000342588
0.00539427
0.000343719
0.00538651
0.000344483
0.00537898
0.00034488
0.00537169
0.000344909
0.00536464
0.000344567
0.00535786
0.000343856
0.00535135
0.000342777
0.00534511
0.00034133
0.00533916
0.00033952
0.0053335
0.000337348
0.00532813
0.000334822
0.00532306
0.000331947
0.00531829
0.000328731
0.00531381
0.000325186
0.00530963
0.000321323
0.00530574
0.000317154
0.00530213
0.000312696
0.00529882
0.000307965
0.00529577
0.000302976
0.005293
0.00029775
0.0052905
0.000292305
0.00528825
0.00028666
0.00528625
0.000280833
0.00528448
0.000274846
0.00528294
0.000268717
0.00528162
0.000262466
0.00528051
0.00025611
0.00527959
0.000249667
0.00527885
0.000243155
0.00527828
0.000236587
0.00527788
0.000229977
0.00527761
0.000223337
0.000216679
0.00548847
0.000321846
-0.00549798
0.005479
0.000326246
0.00546958
0.000330348
0.00546024
0.000334136
0.005451
0.000337597
0.00544186
0.000340718
0.00543285
0.000343488
0.00542398
0.000345899
0.00541528
0.000347943
0.00540676
0.000349616
0.00539843
0.000350913
0.00539032
0.00035183
0.00538244
0.000352366
0.0053748
0.000352521
0.00536741
0.000352293
0.0053603
0.000351685
0.00535346
0.000350696
0.0053469
0.00034933
0.00534065
0.000347589
0.00533469
0.000345478
0.00532903
0.000343002
0.00532369
0.000340167
0.00531865
0.000336983
0.00531393
0.000333458
0.00530951
0.000329604
0.0053054
0.000325435
0.00530159
0.000320964
0.00529807
0.000316209
0.00529485
0.000311185
0.00529192
0.000305913
0.00528926
0.000300409
0.00528687
0.000294695
0.00528474
0.00028879
0.00528286
0.000282714
0.00528122
0.000276487
0.0052798
0.000270129
0.00527861
0.000263659
0.00527763
0.000257096
0.00527683
0.000250459
0.00527622
0.000243765
0.00527578
0.000237027
0.0052755
0.000230261
0.00527536
0.000223478
0.000216689
0.0054866
0.000331651
-0.00549641
0.00547685
0.000336
0.00546716
0.000340033
0.00545756
0.000343734
0.00544807
0.00034709
0.0054387
0.000350087
0.00542947
0.000352715
0.00542041
0.000354966
0.00541152
0.000356831
0.00540283
0.000358307
0.00539435
0.00035939
0.0053861
0.000360077
0.0053781
0.000360368
0.00537036
0.000360263
0.00536289
0.000359762
0.00535571
0.000358868
0.00534882
0.000357585
0.00534223
0.000355914
0.00533596
0.000353863
0.00533
0.000351435
0.00532437
0.000348638
0.00531905
0.000345481
0.00531406
0.000341973
0.00530939
0.000338126
0.00530505
0.000333952
0.00530101
0.000329466
0.0052973
0.000324683
0.00529388
0.000319622
0.00529077
0.000314299
0.00528795
0.000308735
0.00528541
0.000302949
0.00528314
0.000296961
0.00528114
0.000290793
0.00527939
0.000284464
0.00527788
0.000277995
0.0052766
0.000271406
0.00527555
0.000264718
0.00527469
0.000257949
0.00527403
0.000251118
0.00527356
0.000244242
0.00527325
0.000237337
0.00527309
0.000230417
0.00527308
0.000223493
0.000216577
0.00548446
0.000341759
-0.00549457
0.00547442
0.000346045
0.00546446
0.000349996
0.00545459
0.000353597
0.00544485
0.000356833
0.00543525
0.000359691
0.0054258
0.000362161
0.00541653
0.000364234
0.00540746
0.000365904
0.0053986
0.000367166
0.00538997
0.000368018
0.00538159
0.000368456
0.00537348
0.000368483
0.00536564
0.000368099
0.0053581
0.000367307
0.00535086
0.00036611
0.00534393
0.000364513
0.00533732
0.000362521
0.00533104
0.000360141
0.0053251
0.00035738
0.00531949
0.000354248
0.00531422
0.000350753
0.00530928
0.000346908
0.00530468
0.000342725
0.00530042
0.000338219
0.00529648
0.000333405
0.00529286
0.0003283
0.00528956
0.000322924
0.00528656
0.000317295
0.00528386
0.000311433
0.00528145
0.000305359
0.00527932
0.000299094
0.00527746
0.000292659
0.00527584
0.000286074
0.00527448
0.000279362
0.00527334
0.000272542
0.00527242
0.000265636
0.00527171
0.000258661
0.00527119
0.000251638
0.00527085
0.000244583
0.00527067
0.000237513
0.00527065
0.000230441
0.00527076
0.000223379
0.000216339
0.00548203
0.00035218
-0.00549245
0.00547169
0.000356389
0.00546144
0.000360243
0.00545131
0.000363728
0.00544131
0.000366829
0.00543147
0.000369531
0.00542181
0.000371826
0.00541234
0.000373705
0.00540308
0.00037516
0.00539406
0.00037619
0.00538528
0.00037679
0.00537678
0.000376961
0.00536856
0.000376705
0.00536063
0.000376023
0.00535302
0.000374919
0.00534573
0.0003734
0.00533877
0.000371471
0.00533216
0.000369139
0.00532588
0.000366413
0.00531996
0.000363302
0.00531439
0.000359817
0.00530918
0.00035597
0.00530431
0.000351774
0.00529979
0.000347242
0.00529562
0.000342392
0.00529178
0.00033724
0.00528828
0.000331804
0.0052851
0.000326105
0.00528223
0.000320162
0.00527967
0.000313997
0.0052774
0.00030763
0.00527541
0.000301084
0.00527369
0.000294379
0.00527222
0.000287538
0.005271
0.000280582
0.00527001
0.000273531
0.00526924
0.000266406
0.00526868
0.000259227
0.0052683
0.000252013
0.0052681
0.000244782
0.00526807
0.000237549
0.00526818
0.000230329
0.00526843
0.000223133
0.000215973
0.00547928
0.000362923
-0.00549002
0.00546863
0.000367039
0.00545809
0.000370782
0.00544768
0.000374134
0.00543743
0.000377081
0.00542735
0.00037961
0.00541747
0.000381711
0.0054078
0.000383375
0.00539836
0.000384597
0.00538918
0.000385373
0.00538027
0.000385703
0.00537164
0.000385585
0.00536332
0.000385025
0.00535532
0.000384024
0.00534765
0.000382589
0.00534032
0.000380728
0.00533335
0.000378447
0.00532673
0.000375756
0.00532048
0.000372666
0.00531459
0.000369188
0.00530907
0.000365335
0.00530392
0.00036112
0.00529914
0.000356558
0.00529472
0.000351665
0.00529065
0.000346459
0.00528693
0.000340959
0.00528355
0.000335183
0.0052805
0.000329153
0.00527777
0.00032289
0.00527536
0.000316416
0.00527323
0.000309752
0.0052714
0.000302922
0.00526983
0.000295946
0.00526852
0.000288846
0.00526746
0.000281645
0.00526662
0.000274364
0.00526601
0.000267022
0.0052656
0.00025964
0.00526537
0.000252238
0.00526532
0.000244833
0.00526543
0.000237441
0.00526568
0.000230076
0.00526606
0.00022275
0.000215475
0.00547618
0.000373997
-0.00548726
0.00546522
0.000378005
0.00545438
0.000381617
0.0054437
0.000384818
0.00543318
0.000387593
0.00542287
0.000389928
0.00541276
0.000391814
0.00540289
0.000393243
0.00539328
0.00039421
0.00538394
0.000394712
0.0053749
0.000394748
0.00536616
0.000394321
0.00535775
0.000393434
0.00534968
0.000392093
0.00534197
0.000390306
0.00533461
0.000388081
0.00532763
0.000385429
0.00532103
0.00038236
0.00531481
0.000378887
0.00530897
0.000375025
0.00530352
0.000370786
0.00529845
0.000366188
0.00529376
0.000361246
0.00528945
0.00035598
0.0052855
0.000350407
0.00528191
0.000344548
0.00527867
0.000338424
0.00527577
0.000332056
0.00527319
0.000325467
0.00527093
0.000318679
0.00526896
0.000311715
0.00526729
0.000304597
0.00526589
0.000297348
0.00526474
0.00028999
0.00526384
0.000282545
0.00526317
0.000275033
0.00526272
0.000267477
0.00526247
0.000259895
0.0052624
0.000252307
0.0052625
0.000244732
0.00526275
0.000237184
0.00526315
0.000229679
0.00526367
0.000222228
0.000214841
0.00547271
0.000385412
-0.00548412
0.00546142
0.000389292
0.00545028
0.000392755
0.00543932
0.000395785
0.00542854
0.000398366
0.00541798
0.000400487
0.00540766
0.000402136
0.0053976
0.000403307
0.00538781
0.000403995
0.00537833
0.000404199
0.00536916
0.000403919
0.00536032
0.000403159
0.00535183
0.000401923
0.0053437
0.000400219
0.00533595
0.000398057
0.00532859
0.000395447
0.00532161
0.000392402
0.00531504
0.000388935
0.00530887
0.000385061
0.00530309
0.000380796
0.00529772
0.000376156
0.00529275
0.000371159
0.00528817
0.000365825
0.00528398
0.000360172
0.00528017
0.000354221
0.00527672
0.000347994
0.00527363
0.000341513
0.00527089
0.0003348
0.00526848
0.000327879
0.00526638
0.000320774
0.00526459
0.000313506
0.00526309
0.0003061
0.00526186
0.000298577
0.00526089
0.00029096
0.00526016
0.000283272
0.00525966
0.000275532
0.00525938
0.000267763
0.00525929
0.000259984
0.00525938
0.000252214
0.00525964
0.000244472
0.00526005
0.000236774
0.0052606
0.000229133
0.00526127
0.000221561
0.000214068
0.00546883
0.000397175
-0.00548059
0.00545721
0.000400908
0.00544577
0.000404201
0.00543452
0.000407038
0.00542348
0.000409403
0.00541268
0.000411284
0.00540215
0.000412672
0.00539189
0.000413561
0.00538194
0.000413946
0.00537231
0.000413827
0.00536302
0.000413206
0.0053541
0.000412088
0.00534554
0.000410478
0.00533737
0.000408388
0.0053296
0.000405828
0.00532224
0.000402811
0.00531529
0.000399351
0.00530876
0.000395466
0.00530265
0.000391172
0.00529696
0.000386486
0.00529168
0.000381428
0.00528682
0.000376018
0.00528237
0.000370277
0.00527832
0.000364225
0.00527465
0.000357886
0.00527137
0.000351281
0.00526844
0.000344436
0.00526587
0.000337373
0.00526364
0.000330115
0.00526172
0.000322688
0.00526011
0.000315115
0.00525879
0.000307419
0.00525775
0.000299622
0.00525696
0.000291748
0.00525641
0.000283817
0.0052561
0.000275852
0.00525598
0.000267873
0.00525607
0.0002599
0.00525633
0.000251953
0.00525675
0.000244049
0.00525732
0.000236205
0.00525802
0.000228434
0.00525884
0.000220746
0.000213154
0.00546451
0.000409296
-0.00547663
0.00545256
0.00041286
0.0054408
0.000415959
0.00542926
0.000418578
0.00541797
0.000420702
0.00540693
0.000422319
0.00539618
0.000423421
0.00538574
0.000424
0.00537563
0.000424056
0.00536587
0.000423588
0.00535648
0.000422599
0.00534747
0.000421096
0.00533886
0.000419088
0.00533066
0.000416586
0.00532289
0.000413603
0.00531554
0.000410156
0.00530863
0.000406261
0.00530216
0.000401936
0.00529613
0.000397201
0.00529054
0.000392077
0.00528539
0.000386585
0.00528066
0.000380746
0.00527635
0.000374585
0.00527245
0.000368123
0.00526895
0.000361385
0.00526584
0.000354395
0.0052631
0.000347178
0.00526071
0.000339759
0.00525866
0.000332161
0.00525694
0.00032441
0.00525553
0.00031653
0.0052544
0.000308543
0.00525355
0.000300473
0.00525296
0.000292342
0.0052526
0.000284173
0.00525247
0.000275985
0.00525254
0.0002678
0.0052528
0.000259638
0.00525324
0.000251518
0.00525383
0.000243457
0.00525456
0.000235473
0.00525542
0.000227577
0.00525639
0.00021978
0.000212094
0.00545972
0.000421781
-0.00547221
0.00544743
0.000425151
0.00543536
0.000428032
0.00542353
0.000430407
0.00541197
0.000432263
0.0054007
0.000433589
0.00538974
0.000434375
0.00537913
0.000434618
0.00536887
0.000434315
0.00535899
0.000433469
0.0053495
0.000432085
0.00534043
0.00043017
0.00533178
0.000427736
0.00532357
0.000424796
0.0053158
0.000421366
0.00530849
0.000417465
0.00530164
0.000413111
0.00529525
0.000408326
0.00528933
0.000403131
0.00528385
0.00039755
0.00527883
0.000391607
0.00527425
0.000385326
0.0052701
0.000378731
0.00526638
0.000371848
0.00526306
0.000364702
0.00526014
0.000357319
0.00525759
0.000349725
0.00525541
0.000341944
0.00525356
0.000334003
0.00525205
0.000325926
0.00525084
0.000317738
0.00524992
0.000309461
0.00524927
0.00030112
0.00524888
0.000292735
0.00524873
0.000284329
0.00524879
0.000275923
0.00524905
0.000267536
0.0052495
0.00025919
0.00525011
0.000250903
0.00525088
0.000242691
0.00525178
0.000234572
0.0052528
0.000226558
0.00525392
0.000218659
0.000210885
0.00545442
0.000434637
-0.00546727
0.00544178
0.000437787
0.00542939
0.000440421
0.00541727
0.000442525
0.00540545
0.000444084
0.00539395
0.000445088
0.0053828
0.000445529
0.00537201
0.000445404
0.00536162
0.000444713
0.00535163
0.00044346
0.00534206
0.00044165
0.00533294
0.000439294
0.00532427
0.000436406
0.00531606
0.000433001
0.00530833
0.000429098
0.00530108
0.000424718
0.00529431
0.000419882
0.00528802
0.000414615
0.00528221
0.000408941
0.00527687
0.000402886
0.005272
0.000396476
0.00526759
0.000389737
0.00526363
0.000382697
0.00526009
0.000375382
0.00525698
0.000367819
0.00525426
0.000360036
0.00525193
0.000352058
0.00524996
0.000343913
0.00524833
0.000335626
0.00524704
0.000327223
0.00524605
0.000318727
0.00524535
0.000310162
0.00524492
0.000301551
0.00524474
0.000292916
0.00524479
0.000284278
0.00524505
0.000275658
0.00524551
0.000267075
0.00524615
0.00025855
0.00524695
0.000250101
0.0052479
0.000241745
0.00524897
0.000233498
0.00525016
0.000225373
0.00525144
0.000217378
0.000209524
0.00544855
0.000447866
-0.00546178
0.00543557
0.000450768
0.00542287
0.000453127
0.00541046
0.000454928
0.00539839
0.000456159
0.00538667
0.000456809
0.00537532
0.000456873
0.00536438
0.000456349
0.00535385
0.000455237
0.00534377
0.000453544
0.00533414
0.000451278
0.00532498
0.000448451
0.00531631
0.000445079
0.00530813
0.000441181
0.00530045
0.000436778
0.00529328
0.000431893
0.00528661
0.000426552
0.00528044
0.000420781
0.00527477
0.000414608
0.0052696
0.000408061
0.0052649
0.000401168
0.00526068
0.000393958
0.00525692
0.000386461
0.0052536
0.000378704
0.0052507
0.000370717
0.00524821
0.000362527
0.0052461
0.000354162
0.00524437
0.00034565
0.00524298
0.000337016
0.00524191
0.000328286
0.00524116
0.000319484
0.00524069
0.000310633
0.00524048
0.000301757
0.00524052
0.000292875
0.00524079
0.00028401
0.00524127
0.000275181
0.00524193
0.000266408
0.00524277
0.000257711
0.00524377
0.000249107
0.0052449
0.000240614
0.00524615
0.000232247
0.0052475
0.000224017
0.00524895
0.000215935
0.000208008
0.00544208
0.000461473
-0.00545569
0.00542876
0.000464096
0.00541574
0.000466148
0.00540305
0.000467613
0.00539073
0.000468482
0.00537879
0.000468745
0.00536727
0.000468397
0.00535618
0.000467438
0.00534555
0.000465872
0.00533539
0.000463705
0.00532571
0.000460949
0.00531654
0.000457619
0.00530789
0.000453733
0.00529976
0.000449313
0.00529215
0.000444382
0.00528508
0.000438968
0.00527853
0.000433098
0.00527251
0.000426802
0.00526701
0.00042011
0.00526202
0.000413053
0.00525753
0.000405662
0.00525352
0.000397968
0.00524998
0.000390002
0.00524689
0.000381795
0.00524423
0.000373376
0.00524198
0.000364774
0.00524012
0.000356019
0.00523863
0.000347138
0.00523749
0.000338157
0.00523668
0.000329101
0.00523617
0.000319996
0.00523594
0.000310863
0.00523597
0.000301725
0.00523624
0.000292602
0.00523674
0.000283516
0.00523743
0.000274485
0.00523831
0.000265529
0.00523936
0.000256666
0.00524055
0.000247915
0.00524187
0.000239293
0.0052433
0.000230813
0.00524483
0.000222487
0.00524644
0.000214325
0.000206333
0.00543496
0.000475457
-0.00544894
0.00542129
0.000477767
0.00540796
0.000479477
0.005395
0.000480572
0.00538244
0.000481043
0.0053703
0.000480881
0.00535861
0.000480085
0.00534739
0.000478656
0.00533667
0.000476599
0.00532645
0.000473923
0.00531675
0.000470644
0.0053076
0.000466777
0.00529898
0.000462345
0.00529092
0.000457373
0.00528342
0.000451887
0.00527647
0.000445916
0.00527008
0.000439493
0.00526423
0.00043265
0.00525892
0.00042542
0.00525413
0.000417836
0.00524986
0.000409932
0.00524609
0.000401742
0.00524279
0.000393297
0.00523996
0.000384632
0.00523756
0.000375775
0.00523557
0.000366758
0.00523398
0.000357611
0.00523276
0.00034836
0.00523188
0.000339033
0.00523133
0.000329655
0.00523108
0.000320249
0.0052311
0.000310839
0.00523138
0.000301444
0.0052319
0.000292087
0.00523263
0.000282786
0.00523355
0.00027356
0.00523465
0.000264429
0.00523591
0.000255409
0.00523731
0.000246519
0.00523882
0.000237775
0.00524044
0.000229191
0.00524215
0.000220779
0.00524393
0.000212545
0.000204497
0.00542711
0.000489813
-0.00544147
0.0054131
0.000491776
0.00539947
0.000493107
0.00538625
0.000493794
0.00537346
0.000493828
0.00536114
0.000493204
0.0053493
0.000491921
0.00533798
0.000489983
0.00532718
0.000487397
0.00531693
0.000484176
0.00530724
0.000480336
0.00529811
0.000475899
0.00528957
0.000470889
0.00528161
0.000465333
0.00527423
0.000459263
0.00526744
0.00045271
0.00526122
0.00044571
0.00525557
0.000438298
0.00525048
0.000430511
0.00524593
0.000422384
0.00524191
0.000413953
0.0052384
0.000405255
0.00523537
0.000396323
0.00523281
0.000387192
0.0052307
0.000377893
0.005229
0.000368459
0.00522769
0.000358918
0.00522675
0.000349299
0.00522615
0.000339628
0.00522588
0.000329931
0.0052259
0.00032023
0.00522619
0.000310548
0.00522673
0.000300905
0.0052275
0.00029132
0.00522847
0.000281812
0.00522963
0.0002724
0.00523096
0.000263101
0.00523243
0.000253933
0.00523404
0.000244913
0.00523576
0.000236057
0.00523757
0.000227378
0.00523946
0.000218887
0.00524142
0.000210592
0.000202497
0.00541848
0.000504536
-0.0054332
0.00540414
0.000506113
0.00539022
0.000507025
0.00537675
0.000507264
0.00536376
0.000506821
0.00535127
0.000505694
0.00533931
0.000503883
0.0053279
0.000501395
0.00531705
0.000498241
0.00530679
0.000494436
0.00529713
0.000489999
0.00528807
0.000484956
0.00527963
0.000479334
0.0052718
0.000473164
0.00526458
0.000466481
0.00525797
0.000459319
0.00525196
0.000451719
0.00524654
0.000443717
0.0052417
0.000435354
0.00523742
0.000426668
0.00523367
0.000417698
0.00523044
0.000408481
0.00522771
0.000399054
0.00522545
0.000389452
0.00522364
0.000379708
0.00522224
0.000369854
0.00522124
0.000359921
0.0052206
0.000349936
0.00522031
0.000339925
0.00522032
0.000329914
0.00522063
0.000319925
0.0052212
0.000309978
0.00522201
0.000300094
0.00522304
0.00029029
0.00522427
0.000280584
0.00522567
0.000270995
0.00522723
0.000261538
0.00522893
0.000252231
0.00523076
0.000243092
0.00523268
0.000234133
0.00523469
0.000225369
0.00523677
0.00021681
0.0052389
0.000208462
0.00020033
0.00540899
0.000519612
-0.00542407
0.00539434
0.000520762
0.00538015
0.000521215
0.00536645
0.000520962
0.00535327
0.00052
0.00534064
0.000518326
0.00532858
0.000515945
0.00531711
0.000512865
0.00530625
0.000509102
0.00529601
0.000504673
0.00528641
0.000499602
0.00527745
0.000493916
0.00526914
0.000487648
0.00526147
0.000480832
0.00525444
0.000473506
0.00524805
0.000465711
0.00524228
0.000457486
0.00523713
0.000448874
0.00523256
0.000439918
0.00522857
0.000430658
0.00522513
0.000421137
0.00522222
0.000411393
0.00521981
0.000401464
0.00521788
0.000391387
0.00521639
0.000381196
0.00521532
0.000370924
0.00521464
0.0003606
0.00521432
0.000350253
0.00521434
0.000339908
0.00521467
0.00032959
0.00521527
0.00031932
0.00521613
0.000309117
0.00521722
0.000299
0.00521853
0.000288987
0.00522002
0.000279094
0.00522168
0.000269337
0.00522348
0.000259733
0.00522541
0.000250298
0.00522746
0.000241048
0.00522959
0.000231998
0.0052318
0.000223159
0.00523407
0.000214542
0.00523638
0.000206152
0.000197993
0.00539857
-0.00541399
0.00538363
0.00536919
0.00535529
0.00534196
0.00532921
0.00531708
0.00530558
0.00529474
0.00528456
0.00527505
0.00526622
0.00525808
0.00525061
0.00524381
0.00523767
0.00523218
0.00522732
0.00522307
0.0052194
0.0052163
0.00521373
0.00521167
0.00521009
0.00520895
0.00520823
0.0052079
0.00520792
0.00520827
0.00520891
0.00520983
0.005211
0.00521238
0.00521397
0.00521573
0.00521765
0.0052197
0.00522187
0.00522414
0.00522649
0.00522891
0.00523137
0.00523386
0.00575979
0.000208148
-0.000199459
0.00575075
0.000218463
-0.00020943
0.00574141
0.000228315
-0.000218967
0.00573177
0.0002377
-0.000228064
0.00572188
0.000246609
-0.000236715
0.00571175
0.000255037
-0.000244912
0.00570142
0.000262977
-0.000252651
0.00569092
0.000270425
-0.000259924
0.00568028
0.000277375
-0.000266728
0.00566951
0.000283825
-0.000273059
0.00565865
0.000289771
-0.000278914
0.00564773
0.000295212
-0.000284289
0.00563677
0.000300146
-0.000289184
0.00562579
0.000304575
-0.000293597
0.00561482
0.000308499
-0.00029753
0.00560388
0.000311922
-0.000300984
0.005593
0.000314847
-0.000303962
0.00558219
0.000317281
-0.000306469
0.00557147
0.000319232
-0.000308513
0.00556086
0.00032071
-0.000310103
0.00555038
0.000321726
-0.000311248
0.00554005
0.000322295
-0.000311961
0.00552987
0.000322433
-0.000312258
0.00551987
0.000322156
-0.000312154
0.00551005
0.000321484
-0.000311667
0.000320438
-0.000310816
0.0057699
0.000217308
0.00576038
0.00022798
0.00575054
0.000238159
0.0057404
0.000247838
0.00573
0.000257013
0.00571936
0.000265675
0.00570852
0.00027382
0.0056975
0.000281441
0.00568634
0.000288536
0.00567507
0.000295101
0.0056637
0.000301133
0.00565228
0.000306633
0.00564083
0.000311599
0.00562937
0.000316034
0.00561793
0.000319938
0.00560654
0.000323317
0.00559521
0.000326177
0.00558396
0.000328523
0.00557283
0.000330367
0.00556182
0.000331718
0.00555096
0.000332591
0.00554025
0.000333
0.00552972
0.000332962
0.00551938
0.000332497
0.00550924
0.000331624
0.000330366
0.00578038
0.00022697
0.00577035
0.000238011
0.00575998
0.000248527
0.00574931
0.00025851
0.00573837
0.000267956
0.00572718
0.000276857
0.0057158
0.000285207
0.00570424
0.000293003
0.00569253
0.00030024
0.00568072
0.000306915
0.00566882
0.000313029
0.00565688
0.000318579
0.00564491
0.000323568
0.00563294
0.000327997
0.00562101
0.000331871
0.00560913
0.000335194
0.00559734
0.000337973
0.00558564
0.000340217
0.00557407
0.000341937
0.00556265
0.000343146
0.00555138
0.000343858
0.00554029
0.00034409
0.00552939
0.00034386
0.0055187
0.000343189
0.00550823
0.000342098
0.000340611
0.00579124
0.000237166
0.00578066
0.000248588
0.00576973
0.000259451
0.0057585
0.000269747
0.00574698
0.00027947
0.00573523
0.000288613
0.00572326
0.000297172
0.00571112
0.00030514
0.00569885
0.000312517
0.00568646
0.000319299
0.00567401
0.000325486
0.00566151
0.00033108
0.00564899
0.000336081
0.0056365
0.000340493
0.00562405
0.000344323
0.00561166
0.000347575
0.00559938
0.000350258
0.00558721
0.000352384
0.00557519
0.000353964
0.00556332
0.000355012
0.00555163
0.000355546
0.00554014
0.000355582
0.00552886
0.000355142
0.0055178
0.000354246
0.00550698
0.000352918
0.000351183
0.00580248
0.000247927
0.00579133
0.000259745
0.00577981
0.000270966
0.00576797
0.000281583
0.00575585
0.000291589
0.00574349
0.000300979
0.00573092
0.000309746
0.00571817
0.000317887
0.00570529
0.0003254
0.0056923
0.000332283
0.00567925
0.000338537
0.00566617
0.000344164
0.00565308
0.000349167
0.00564002
0.00035355
0.00562703
0.00035732
0.00561411
0.000360487
0.00560131
0.000363058
0.00558865
0.000365048
0.00557615
0.000366469
0.00556382
0.000367338
0.00555169
0.000367673
0.00553978
0.000367494
0.0055281
0.000366823
0.00551666
0.000365682
0.00550548
0.000364098
0.000362094
0.00581413
0.000259291
0.00580236
0.000271518
0.00579022
0.000283108
0.00577775
0.000294054
0.00576498
0.00030435
0.00575197
0.000313989
0.00573875
0.000322966
0.00572536
0.000331278
0.00571184
0.000338923
0.00569822
0.000345901
0.00568455
0.000352214
0.00567085
0.000357864
0.00565716
0.000362856
0.00564351
0.000367196
0.00562994
0.000370893
0.00561647
0.000373956
0.00560313
0.000376398
0.00558994
0.000378232
0.00557694
0.000379475
0.00556413
0.000380144
0.00555154
0.00038026
0.00553919
0.000379844
0.0055271
0.00037892
0.00551526
0.000377513
0.00550371
0.000375649
0.000373356
0.0058262
0.000271294
0.00581377
0.000283945
0.00580096
0.000295916
0.00578782
0.000307199
0.00577438
0.00031779
0.00576068
0.000327681
0.00574678
0.000336869
0.00573271
0.00034535
0.00571851
0.000353123
0.00570422
0.000360189
0.00568988
0.000366551
0.00567553
0.000372214
0.00566121
0.000377182
0.00564694
0.000381464
0.00563276
0.000385071
0.00561871
0.000388013
0.0056048
0.000390305
0.00559107
0.000391964
0.00557754
0.000393007
0.00556423
0.000393454
0.00555116
0.000393327
0.00553835
0.000392651
0.00552582
0.000391451
0.00551358
0.000389753
0.00550165
0.000387586
0.000384979
0.00583869
0.000283979
0.00582556
0.000297067
0.00581205
0.00030943
0.00579819
0.000321059
0.00578403
0.00033195
0.00576961
0.000342097
0.00575499
0.000351495
0.00574019
0.000360142
0.00572528
0.000368038
0.00571028
0.000375185
0.00569525
0.000381586
0.00568022
0.000387248
0.00566522
0.000392178
0.0056503
0.000396386
0.00563548
0.000399884
0.00562081
0.000402686
0.00560631
0.000404808
0.005592
0.000406269
0.00557792
0.000407088
0.00556409
0.000407289
0.00555052
0.000406896
0.00553723
0.000405934
0.00552425
0.000404432
0.00551159
0.000402418
0.00549925
0.000399922
0.000396976
0.00585161
0.000297389
0.00583775
0.000310929
0.00582349
0.000323695
0.00580887
0.000335678
0.00579394
0.000346875
0.00577876
0.000357279
0.00576337
0.000366887
0.00574781
0.000375696
0.00573214
0.000383709
0.0057164
0.000390927
0.00570063
0.000397357
0.00568487
0.000403005
0.00566917
0.000407881
0.00565356
0.000411997
0.00563808
0.000415367
0.00562276
0.000418007
0.00560763
0.000419936
0.00559272
0.000421175
0.00557807
0.000421746
0.00556368
0.000421674
0.00554959
0.000420987
0.00553581
0.000419713
0.00552236
0.000417881
0.00550925
0.000415524
0.00549651
0.000412672
0.000409358
0.00586498
0.000311571
0.00585033
0.000325578
0.00583527
0.000338758
0.00581985
0.000351103
0.00580411
0.000362611
0.00578812
0.000373274
0.00577191
0.000383089
0.00575555
0.000392057
0.00573908
0.000400179
0.00572255
0.000407459
0.00570601
0.000413904
0.00568949
0.000419523
0.00567304
0.000424328
0.0056567
0.000428332
0.00564052
0.000431553
0.00562452
0.000434008
0.00560873
0.000435719
0.0055932
0.00043671
0.00557794
0.000437006
0.00556298
0.000436634
0.00554834
0.000435625
0.00553405
0.000434008
0.00552011
0.000431817
0.00550655
0.000429085
0.00549337
0.000425847
0.000422137
0.0058788
0.000326577
0.00586331
0.000341064
0.0058474
0.000354669
0.00583112
0.000367385
0.00581453
0.000379206
0.00579767
0.000390129
0.00578061
0.00040015
0.00576339
0.000409271
0.00574608
0.000417493
0.00572872
0.000424823
0.00571135
0.00043127
0.00569403
0.000436844
0.0056768
0.000441558
0.0056597
0.00044543
0.00564277
0.000448478
0.00562606
0.000450723
0.00560959
0.00045219
0.00559339
0.000452905
0.0055775
0.000452896
0.00556195
0.000452193
0.00554674
0.00045083
0.00553191
0.00044884
0.00551747
0.000446257
0.00550343
0.000443119
0.00548982
0.000439461
0.000435322
0.00589306
0.00034246
0.00587668
0.000357443
0.00585987
0.000371484
0.00584268
0.000384576
0.00582517
0.000396715
0.0058074
0.000407898
0.00578943
0.000418121
0.00577131
0.000427387
0.0057531
0.000435701
0.00573486
0.000443068
0.00571663
0.0004495
0.00569846
0.00045501
0.00568041
0.000459613
0.00566251
0.000463329
0.00564481
0.000466179
0.00562735
0.000468187
0.00561015
0.000469381
0.00559327
0.000469789
0.00557672
0.000469443
0.00556054
0.000468377
0.00554475
0.000466626
0.00552936
0.000464227
0.0055144
0.000461219
0.00549988
0.000457639
0.00548581
0.000453528
0.000448924
0.00590776
0.00035928
0.00589043
0.000374772
0.00587266
0.00038926
0.0058545
0.000402735
0.00583602
0.000415194
0.00581728
0.000426635
0.00579835
0.000437056
0.00577927
0.000446459
0.00576012
0.000454851
0.00574095
0.000462241
0.00572181
0.000468641
0.00570275
0.000474066
0.00568383
0.000478535
0.00566509
0.000482069
0.00564658
0.000484693
0.00562833
0.000486435
0.00561039
0.000487323
0.00559278
0.000487391
0.00557555
0.000486674
0.00555872
0.000485209
0.00554231
0.000483034
0.00552635
0.00048019
0.00551085
0.000476718
0.00549583
0.000472659
0.0054813
0.000468057
0.000462952
0.00592288
0.0003771
0.00590453
0.000393116
0.00588573
0.000408059
0.00586655
0.000421921
0.00584704
0.000434703
0.00582727
0.000446399
0.00580732
0.00045701
0.00578724
0.000466541
0.00576709
0.000474999
0.00574694
0.000482394
0.00572684
0.000488742
0.00570685
0.000494059
0.00568701
0.000498368
0.00566739
0.000501692
0.00564802
0.00050406
0.00562896
0.000505501
0.00561023
0.00050605
0.00559188
0.000505743
0.00557394
0.000504617
0.00555643
0.000502714
0.00553939
0.000500076
0.00552283
0.000496747
0.00550678
0.000492771
0.00549125
0.000488193
0.00547624
0.000483058
0.000477413
0.00593838
0.000395988
0.00591895
0.000412541
0.00589906
0.000427947
0.00587878
0.000442202
0.00585818
0.000455304
0.00583733
0.000467251
0.0058163
0.000478045
0.00579515
0.00048769
0.00577395
0.000496197
0.00575276
0.000503579
0.00573165
0.000509851
0.00571068
0.000515035
0.00568989
0.000519155
0.00566934
0.000522238
0.00564909
0.000524316
0.00562917
0.000525422
0.00560962
0.000525594
0.00559049
0.000524872
0.00557181
0.000523297
0.00555361
0.000520915
0.00553592
0.000517771