/*--------------------------------*- C++ -*----------------------------------*\
| =========                 |                                                 |
| \\      /  F ield         | OpenFOAM: The Open Source CFD Toolbox           |
|  \\    /   O peration     | Version:  2412                                  |
|   \\  /    A nd           | Website:  www.openfoam.com                      |
|    \\/     M anipulation  |                                                 |
\*---------------------------------------------------------------------------*/
FoamFile
{
    version     2.0;
    format      ascii;
    arch        "LSB;label=32;scalar=64";
    class       volVectorField;
    location    "26.5";
    object      U;
}
// * * * * * * * * * * * * * * * * * * * * * * * * * * * * * * * * * * * * * //

dimensions      [0 1 -1 0 0 0 0];

internalField   nonuniform List<vector> 
5285
(
(0.103836 0.00593799 0)
(0.103667 0.00590893 0)
(0.103498 0.00587384 0)
(0.103331 0.00583276 0)
(0.103164 0.00578581 0)
(0.102999 0.00573312 0)
(0.102836 0.00567486 0)
(0.102675 0.0056112 0)
(0.102516 0.00554238 0)
(0.10236 0.0054686 0)
(0.102207 0.00539013 0)
(0.102058 0.00530719 0)
(0.101911 0.00522004 0)
(0.101769 0.00512893 0)
(0.101631 0.00503412 0)
(0.101497 0.00493586 0)
(0.101368 0.00483439 0)
(0.101243 0.00472996 0)
(0.101124 0.00462283 0)
(0.101009 0.00451324 0)
(0.100899 0.00440144 0)
(0.100795 0.00428771 0)
(0.100696 0.00417231 0)
(0.100603 0.00405552 0)
(0.100514 0.00393762 0)
(0.100432 0.00381891 0)
(0.100354 0.00369967 0)
(0.100282 0.00358019 0)
(0.100215 0.00346078 0)
(0.100153 0.0033417 0)
(0.100097 0.00322325 0)
(0.100045 0.00310567 0)
(0.0999979 0.00298923 0)
(0.0999556 0.00287416 0)
(0.0999179 0.00276068 0)
(0.0998845 0.00264899 0)
(0.0998552 0.00253927 0)
(0.09983 0.00243169 0)
(0.0998085 0.00232637 0)
(0.0997906 0.00222345 0)
(0.0997761 0.00212301 0)
(0.0997647 0.00202511 0)
(0.0997562 0.00192982 0)
(0.0997504 0.00183716 0)
(0.103812 0.00611868 0)
(0.103638 0.0060856 0)
(0.103464 0.00604625 0)
(0.103292 0.00600072 0)
(0.103121 0.00594912 0)
(0.102952 0.00589159 0)
(0.102784 0.00582831 0)
(0.102619 0.00575948 0)
(0.102457 0.00568534 0)
(0.102298 0.00560614 0)
(0.102141 0.00552212 0)
(0.101989 0.00543356 0)
(0.10184 0.00534073 0)
(0.101696 0.00524391 0)
(0.101556 0.00514337 0)
(0.10142 0.00503938 0)
(0.10129 0.00493222 0)
(0.101164 0.00482215 0)
(0.101044 0.00470945 0)
(0.100928 0.00459438 0)
(0.100819 0.00447722 0)
(0.100715 0.00435824 0)
(0.100616 0.00423774 0)
(0.100523 0.00411601 0)
(0.100436 0.00399333 0)
(0.100354 0.00387002 0)
(0.100278 0.00374636 0)
(0.100207 0.00362266 0)
(0.100142 0.00349922 0)
(0.100082 0.00337632 0)
(0.100027 0.00325424 0)
(0.0999769 0.00313325 0)
(0.0999321 0.00301359 0)
(0.099892 0.00289551 0)
(0.0998564 0.00277921 0)
(0.0998253 0.0026649 0)
(0.0997983 0.00255276 0)
(0.0997754 0.00244294 0)
(0.0997563 0.00233558 0)
(0.0997407 0.00223079 0)
(0.0997285 0.00212866 0)
(0.0997193 0.00202925 0)
(0.0997131 0.0019326 0)
(0.0997095 0.00183875 0)
(0.103784 0.00630496 0)
(0.103604 0.00626755 0)
(0.103426 0.00622366 0)
(0.103249 0.00617337 0)
(0.103073 0.00611681 0)
(0.102899 0.00605413 0)
(0.102728 0.00598553 0)
(0.102559 0.00591123 0)
(0.102393 0.00583147 0)
(0.10223 0.00574653 0)
(0.102071 0.00565667 0)
(0.101916 0.0055622 0)
(0.101764 0.0054634 0)
(0.101618 0.00536057 0)
(0.101476 0.00525402 0)
(0.101339 0.00514404 0)
(0.101207 0.00503093 0)
(0.10108 0.00491497 0)
(0.100959 0.00479646 0)
(0.100844 0.00467569 0)
(0.100734 0.00455296 0)
(0.10063 0.00442856 0)
(0.100532 0.00430279 0)
(0.10044 0.00417595 0)
(0.100354 0.00404836 0)
(0.100273 0.00392033 0)
(0.100198 0.00379215 0)
(0.100129 0.00366414 0)
(0.100066 0.0035366 0)
(0.100008 0.00340981 0)
(0.0999549 0.00328407 0)
(0.0999072 0.00315962 0)
(0.0998646 0.00303673 0)
(0.0998268 0.00291562 0)
(0.0997936 0.00279651 0)
(0.0997648 0.00267959 0)
(0.0997403 0.00256503 0)
(0.0997198 0.002453 0)
(0.0997031 0.00234361 0)
(0.0996899 0.00223699 0)
(0.0996801 0.0021332 0)
(0.0996733 0.00203231 0)
(0.0996694 0.00193435 0)
(0.099668 0.00183935 0)
(0.103751 0.00649699 0)
(0.103566 0.00645494 0)
(0.103383 0.00640618 0)
(0.1032 0.00635081 0)
(0.10302 0.00628896 0)
(0.102842 0.00622081 0)
(0.102666 0.00614657 0)
(0.102493 0.00606646 0)
(0.102323 0.00598076 0)
(0.102157 0.00588976 0)
(0.101995 0.00579375 0)
(0.101837 0.00569304 0)
(0.101683 0.00558797 0)
(0.101535 0.00547884 0)
(0.101391 0.00536599 0)
(0.101253 0.00524974 0)
(0.10112 0.0051304 0)
(0.100992 0.0050083 0)
(0.100871 0.00488375 0)
(0.100755 0.00475706 0)
(0.100646 0.00462855 0)
(0.100542 0.00449853 0)
(0.100445 0.00436732 0)
(0.100354 0.00423523 0)
(0.100269 0.00410259 0)
(0.10019 0.00396971 0)
(0.100116 0.00383692 0)
(0.100049 0.00370451 0)
(0.0999876 0.0035728 0)
(0.0999316 0.00344208 0)
(0.099881 0.00331263 0)
(0.0998357 0.0031847 0)
(0.0997954 0.00305856 0)
(0.09976 0.00293442 0)
(0.0997293 0.00281249 0)
(0.0997031 0.00269297 0)
(0.0996811 0.00257602 0)
(0.0996631 0.0024618 0)
(0.099649 0.00235042 0)
(0.0996383 0.00224199 0)
(0.0996309 0.00213659 0)
(0.0996266 0.00203426 0)
(0.0996251 0.00193503 0)
(0.0996261 0.00183892 0)
(0.103714 0.00669496 0)
(0.103523 0.00664792 0)
(0.103334 0.00659394 0)
(0.103147 0.00653314 0)
(0.102961 0.00646566 0)
(0.102779 0.00639169 0)
(0.102599 0.00631145 0)
(0.102422 0.00622519 0)
(0.102248 0.00613321 0)
(0.102079 0.0060358 0)
(0.101914 0.0059333 0)
(0.101753 0.00582604 0)
(0.101597 0.00571436 0)
(0.101446 0.00559862 0)
(0.101301 0.00547917 0)
(0.101161 0.00535635 0)
(0.101027 0.00523052 0)
(0.1009 0.00510202 0)
(0.100778 0.00497118 0)
(0.100662 0.00483834 0)
(0.100553 0.00470384 0)
(0.100451 0.00456802 0)
(0.100354 0.00443119 0)
(0.100264 0.00429371 0)
(0.10018 0.00415588 0)
(0.100103 0.00401806 0)
(0.100032 0.00388055 0)
(0.0999664 0.00374367 0)
(0.099907 0.00360773 0)
(0.0998532 0.00347302 0)
(0.0998051 0.00333983 0)
(0.0997622 0.0032084 0)
(0.0997245 0.00307899 0)
(0.0996918 0.00295182 0)
(0.0996637 0.00282709 0)
(0.0996401 0.00270499 0)
(0.0996208 0.00258568 0)
(0.0996055 0.00246929 0)
(0.0995939 0.00235596 0)
(0.0995859 0.00224577 0)
(0.0995811 0.00213879 0)
(0.0995793 0.00203506 0)
(0.0995802 0.00193461 0)
(0.0995836 0.00183744 0)
(0.103671 0.00689906 0)
(0.103474 0.00684666 0)
(0.10328 0.00678708 0)
(0.103087 0.00672047 0)
(0.102897 0.00664698 0)
(0.102709 0.00656681 0)
(0.102525 0.00648019 0)
(0.102344 0.00638742 0)
(0.102167 0.00628878 0)
(0.101995 0.00618461 0)
(0.101826 0.00607526 0)
(0.101663 0.00596109 0)
(0.101505 0.00584248 0)
(0.101353 0.0057198 0)
(0.101206 0.00559343 0)
(0.101065 0.00546376 0)
(0.10093 0.00533115 0)
(0.100802 0.00519597 0)
(0.10068 0.0050586 0)
(0.100565 0.00491939 0)
(0.100457 0.00477869 0)
(0.100355 0.00463687 0)
(0.10026 0.00449427 0)
(0.100171 0.00435123 0)
(0.100089 0.0042081 0)
(0.100013 0.00406521 0)
(0.099944 0.0039229 0)
(0.099881 0.00378147 0)
(0.0998239 0.00364125 0)
(0.0997727 0.00350252 0)
(0.0997271 0.00336556 0)
(0.0996869 0.00323062 0)
(0.0996519 0.00309794 0)
(0.0996219 0.00296775 0)
(0.0995967 0.00284024 0)
(0.0995759 0.00271557 0)
(0.0995594 0.00259392 0)
(0.0995468 0.00247542 0)
(0.099538 0.00236016 0)
(0.0995327 0.00224826 0)
(0.0995305 0.00213975 0)
(0.0995313 0.00203468 0)
(0.0995348 0.00193306 0)
(0.0995407 0.00183489 0)
(0.103622 0.00710946 0)
(0.103419 0.0070513 0)
(0.103219 0.00698572 0)
(0.103021 0.00691289 0)
(0.102826 0.00683298 0)
(0.102634 0.0067462 0)
(0.102445 0.00665282 0)
(0.10226 0.00655312 0)
(0.10208 0.00644744 0)
(0.101904 0.00633612 0)
(0.101733 0.00621955 0)
(0.101567 0.00609811 0)
(0.101407 0.00597221 0)
(0.101253 0.00584225 0)
(0.101105 0.00570865 0)
(0.100963 0.0055718 0)
(0.100828 0.00543212 0)
(0.100699 0.00529001 0)
(0.100578 0.00514585 0)
(0.100463 0.00500003 0)
(0.100356 0.00485294 0)
(0.100255 0.00470493 0)
(0.100161 0.00455638 0)
(0.100074 0.00440765 0)
(0.0999939 0.00425909 0)
(0.0999204 0.00411104 0)
(0.0998535 0.00396383 0)
(0.0997928 0.0038178 0)
(0.0997384 0.00367324 0)
(0.0996898 0.00353045 0)
(0.099647 0.0033897 0)
(0.0996097 0.00325125 0)
(0.0995776 0.00311531 0)
(0.0995506 0.00298211 0)
(0.0995282 0.00285184 0)
(0.0995104 0.00272465 0)
(0.0994968 0.0026007 0)
(0.0994872 0.00248011 0)
(0.0994812 0.00236299 0)
(0.0994787 0.00224942 0)
(0.0994793 0.00213944 0)
(0.0994828 0.00203308 0)
(0.0994889 0.00193035 0)
(0.0994973 0.00183123 0)
(0.103566 0.00732637 0)
(0.103358 0.007262 0)
(0.103152 0.00718999 0)
(0.102948 0.0071105 0)
(0.102748 0.00702373 0)
(0.102551 0.00692991 0)
(0.102358 0.00682932 0)
(0.102169 0.00672228 0)
(0.101985 0.00660913 0)
(0.101806 0.00649027 0)
(0.101632 0.00636608 0)
(0.101464 0.00623698 0)
(0.101302 0.00610342 0)
(0.101147 0.00596583 0)
(0.100998 0.00582465 0)
(0.100855 0.00568032 0)
(0.10072 0.00553328 0)
(0.100591 0.00538395 0)
(0.10047 0.00523275 0)
(0.100356 0.0050801 0)
(0.10025 0.00492639 0)
(0.100151 0.00477202 0)
(0.100058 0.00461736 0)
(0.0999735 0.0044628 0)
(0.0998955 0.00430868 0)
(0.0998244 0.00415537 0)
(0.0997599 0.00400321 0)
(0.099702 0.0038525 0)
(0.0996503 0.00370357 0)
(0.0996047 0.0035567 0)
(0.0995649 0.00341216 0)
(0.0995306 0.00327018 0)
(0.0995016 0.003131 0)
(0.0994776 0.00299482 0)
(0.0994584 0.00286181 0)
(0.0994437 0.00273214 0)
(0.0994332 0.00260593 0)
(0.0994266 0.00248332 0)
(0.0994236 0.00236438 0)
(0.099424 0.0022492 0)
(0.0994275 0.00213781 0)
(0.0994337 0.00203022 0)
(0.0994425 0.00192644 0)
(0.0994535 0.00182643 0)
(0.103503 0.00754995 0)
(0.103289 0.00747891 0)
(0.103077 0.00739998 0)
(0.102868 0.00731337 0)
(0.102663 0.00721927 0)
(0.102461 0.00711794 0)
(0.102264 0.00700968 0)
(0.102071 0.00689484 0)
(0.101884 0.00677379 0)
(0.101701 0.00664694 0)
(0.101525 0.00651471 0)
(0.101355 0.00637757 0)
(0.101191 0.00623596 0)
(0.101034 0.00609037 0)
(0.100884 0.00594127 0)
(0.100741 0.00578913 0)
(0.100606 0.00563442 0)
(0.100478 0.00547759 0)
(0.100358 0.0053191 0)
(0.100245 0.00515938 0)
(0.10014 0.00499886 0)
(0.100042 0.00483794 0)
(0.0999518 0.00467702 0)
(0.099869 0.00451649 0)
(0.0997935 0.00435672 0)
(0.099725 0.00419806 0)
(0.0996633 0.00404086 0)
(0.0996083 0.00388544 0)
(0.0995597 0.0037321 0)
(0.0995172 0.00358114 0)
(0.0994806 0.00343279 0)
(0.0994496 0.00328732 0)
(0.0994239 0.00314491 0)
(0.0994032 0.00300578 0)
(0.0993873 0.00287008 0)
(0.0993758 0.00273797 0)
(0.0993685 0.00260956 0)
(0.099365 0.00248497 0)
(0.0993652 0.00236428 0)
(0.0993686 0.00224755 0)
(0.099375 0.00213481 0)
(0.0993841 0.00202607 0)
(0.0993957 0.0019213 0)
(0.0994093 0.00182047 0)
(0.103433 0.0077804 0)
(0.103212 0.00770217 0)
(0.102994 0.00761582 0)
(0.10278 0.00752156 0)
(0.102569 0.00741962 0)
(0.102363 0.00731029 0)
(0.102161 0.00719387 0)
(0.101965 0.00707075 0)
(0.101774 0.00694133 0)
(0.101589 0.00680603 0)
(0.10141 0.00666533 0)
(0.101238 0.0065197 0)
(0.101073 0.00636965 0)
(0.100915 0.00621568 0)
(0.100764 0.0060583 0)
(0.100621 0.00589802 0)
(0.100486 0.00573533 0)
(0.100359 0.00557073 0)
(0.100239 0.00540469 0)
(0.100128 0.00523767 0)
(0.100024 0.00507013 0)
(0.0999288 0.00490249 0)
(0.0998409 0.00473515 0)
(0.0997607 0.00456853 0)
(0.0996878 0.004403 0)
(0.0996223 0.00423892 0)
(0.0995637 0.00407663 0)
(0.0995119 0.00391645 0)
(0.0994666 0.00375869 0)
(0.0994274 0.00360362 0)
(0.0993943 0.00345149 0)
(0.0993667 0.00330253 0)
(0.0993445 0.00315694 0)
(0.0993273 0.0030149 0)
(0.0993148 0.00287656 0)
(0.0993067 0.00274206 0)
(0.0993027 0.00261151 0)
(0.0993026 0.00248501 0)
(0.0993059 0.00236264 0)
(0.0993125 0.00224443 0)
(0.0993219 0.00213041 0)
(0.099334 0.00202058 0)
(0.0993484 0.00191489 0)
(0.0993648 0.00181332 0)
(0.103355 0.00801787 0)
(0.103128 0.0079319 0)
(0.102904 0.00783758 0)
(0.102683 0.00773513 0)
(0.102467 0.00762482 0)
(0.102256 0.00750694 0)
(0.102051 0.00738184 0)
(0.10185 0.00724992 0)
(0.101656 0.00711162 0)
(0.101468 0.0069674 0)
(0.101287 0.00681776 0)
(0.101114 0.00666321 0)
(0.100947 0.0065043 0)
(0.100788 0.00634155 0)
(0.100637 0.00617552 0)
(0.100495 0.00600676 0)
(0.10036 0.00583578 0)
(0.100234 0.00566312 0)
(0.100116 0.00548928 0)
(0.100006 0.00531474 0)
(0.0999043 0.00513998 0)
(0.099811 0.00496544 0)
(0.0997257 0.00479156 0)
(0.0996483 0.00461873 0)
(0.0995785 0.00444734 0)
(0.0995162 0.00427777 0)
(0.0994609 0.00411034 0)
(0.0994126 0.00394538 0)
(0.0993708 0.00378319 0)
(0.0993354 0.00362402 0)
(0.0993058 0.00346812 0)
(0.099282 0.00331571 0)
(0.0992634 0.00316697 0)
(0.0992499 0.00302207 0)
(0.099241 0.00288115 0)
(0.0992365 0.00274433 0)
(0.099236 0.00261171 0)
(0.0992393 0.00248338 0)
(0.0992459 0.00235939 0)
(0.0992557 0.00223978 0)
(0.0992683 0.00212456 0)
(0.0992834 0.00201372 0)
(0.0993007 0.00190719 0)
(0.0993199 0.00180494 0)
(0.103268 0.00826252 0)
(0.103034 0.00816823 0)
(0.102803 0.00806534 0)
(0.102578 0.00795412 0)
(0.102356 0.00783484 0)
(0.102141 0.00770784 0)
(0.101931 0.0075735 0)
(0.101727 0.00743225 0)
(0.10153 0.00728454 0)
(0.101339 0.00713089 0)
(0.101156 0.00697182 0)
(0.100981 0.00680789 0)
(0.100813 0.00663968 0)
(0.100654 0.00646775 0)
(0.100503 0.0062927 0)
(0.100361 0.0061151 0)
(0.100227 0.00593552 0)
(0.100102 0.00575451 0)
(0.0999859 0.00557261 0)
(0.0998782 0.00539033 0)
(0.0997791 0.00520817 0)
(0.0996885 0.00502657 0)
(0.0996062 0.004846 0)
(0.0995319 0.00466686 0)
(0.0994655 0.00448954 0)
(0.0994066 0.00431441 0)
(0.0993551 0.00414182 0)
(0.0993105 0.00397206 0)
(0.0992726 0.00380543 0)
(0.099241 0.00364219 0)
(0.0992153 0.00348256 0)
(0.0991954 0.00332674 0)
(0.0991807 0.0031749 0)
(0.099171 0.00302721 0)
(0.0991659 0.00288377 0)
(0.0991651 0.0027447 0)
(0.0991683 0.00261009 0)
(0.0991751 0.00248 0)
(0.0991852 0.00235448 0)
(0.0991984 0.00223356 0)
(0.0992142 0.00211722 0)
(0.0992324 0.00200544 0)
(0.0992527 0.00189817 0)
(0.0992748 0.00179532 0)
(0.103171 0.00851449 0)
(0.10293 0.00841123 0)
(0.102694 0.00829915 0)
(0.102462 0.00817852 0)
(0.102236 0.00804967 0)
(0.102015 0.00791294 0)
(0.101801 0.00776876 0)
(0.101594 0.00761758 0)
(0.101394 0.00745991 0)
(0.101201 0.00729629 0)
(0.101016 0.00712729 0)
(0.10084 0.0069535 0)
(0.100672 0.00677553 0)
(0.100512 0.00659401 0)
(0.100362 0.00640955 0)
(0.10022 0.00622276 0)
(0.100088 0.00603426 0)
(0.0999644 0.00584463 0)
(0.0998502 0.00565442 0)
(0.0997449 0.00546418 0)
(0.0996486 0.00527443 0)
(0.0995611 0.00508563 0)
(0.0994821 0.00489824 0)
(0.0994113 0.00471269 0)
(0.0993486 0.00452938 0)
(0.0992936 0.00434865 0)
(0.099246 0.00417086 0)
(0.0992055 0.00399631 0)
(0.0991717 0.00382527 0)
(0.0991442 0.00365798 0)
(0.0991228 0.00349465 0)
(0.0991069 0.00333548 0)
(0.0990963 0.00318062 0)
(0.0990907 0.0030302 0)
(0.0990896 0.00288433 0)
(0.0990927 0.0027431 0)
(0.0990996 0.00260658 0)
(0.0991101 0.00247482 0)
(0.0991238 0.00234786 0)
(0.0991404 0.0022257 0)
(0.0991596 0.00210834 0)
(0.099181 0.00199572 0)
(0.0992044 0.00188778 0)
(0.0992294 0.00178442 0)
(0.103064 0.00877386 0)
(0.102816 0.00866097 0)
(0.102573 0.00853901 0)
(0.102336 0.00840832 0)
(0.102104 0.00826922 0)
(0.10188 0.00812212 0)
(0.101662 0.00796746 0)
(0.101451 0.00780576 0)
(0.101248 0.00763754 0)
(0.101053 0.00746339 0)
(0.100867 0.00728393 0)
(0.10069 0.00709978 0)
(0.100521 0.0069116 0)
(0.100362 0.00672004 0)
(0.100212 0.00652578 0)
(0.100072 0.00632945 0)
(0.0999412 0.00613171 0)
(0.09982 0.00593317 0)
(0.0997083 0.00573441 0)
(0.0996059 0.005536 0)
(0.0995128 0.00533848 0)
(0.0994287 0.00514233 0)
(0.0993534 0.00494803 0)
(0.0992866 0.00475599 0)
(0.0992279 0.00456662 0)
(0.0991771 0.00438028 0)
(0.0991339 0.00419729 0)
(0.0990977 0.00401795 0)
(0.0990683 0.00384252 0)
(0.0990453 0.00367123 0)
(0.0990282 0.00350428 0)
(0.0990167 0.00334182 0)
(0.0990104 0.00318401 0)
(0.099009 0.00303095 0)
(0.099012 0.00288273 0)
(0.0990192 0.00273943 0)
(0.0990301 0.00260109 0)
(0.0990444 0.00246777 0)
(0.0990618 0.00233946 0)
(0.099082 0.00221618 0)
(0.0991046 0.00209788 0)
(0.0991293 0.00198451 0)
(0.0991558 0.00187599 0)
(0.0991838 0.00177222 0)
(0.102945 0.00904073 0)
(0.10269 0.00891747 0)
(0.102441 0.00878492 0)
(0.102198 0.00864344 0)
(0.101962 0.0084934 0)
(0.101733 0.00833523 0)
(0.101511 0.00816944 0)
(0.101297 0.00799657 0)
(0.101092 0.00781719 0)
(0.100896 0.00763193 0)
(0.100708 0.00744145 0)
(0.10053 0.00724642 0)
(0.100362 0.00704754 0)
(0.100203 0.00684552 0)
(0.100055 0.00664105 0)
(0.099916 0.00643483 0)
(0.0997874 0.00622753 0)
(0.0996688 0.0060198 0)
(0.09956 0.00581226 0)
(0.099461 0.00560548 0)
(0.0993715 0.00540003 0)
(0.0992913 0.00519641 0)
(0.0992201 0.00499509 0)
(0.0991575 0.0047965 0)
(0.0991034 0.00460104 0)
(0.0990572 0.00440906 0)
(0.0990185 0.00422088 0)
(0.0989871 0.00403678 0)
(0.0989624 0.00385702 0)
(0.098944 0.00368179 0)
(0.0989316 0.00351128 0)
(0.0989247 0.00334563 0)
(0.098923 0.00318496 0)
(0.098926 0.00302935 0)
(0.0989333 0.00287889 0)
(0.0989447 0.00273362 0)
(0.0989597 0.00259357 0)
(0.098978 0.00245878 0)
(0.0989992 0.00232923 0)
(0.099023 0.00220492 0)
(0.0990492 0.0020858 0)
(0.0990773 0.00197178 0)
(0.099107 0.00186278 0)
(0.0991381 0.00175869 0)
(0.102813 0.00931509 0)
(0.102552 0.00918071 0)
(0.102297 0.0090368 0)
(0.102048 0.00888377 0)
(0.101807 0.00872205 0)
(0.101574 0.0085521 0)
(0.101349 0.00837448 0)
(0.101132 0.00818975 0)
(0.100925 0.00799857 0)
(0.100727 0.00780159 0)
(0.100539 0.00759952 0)
(0.100361 0.00739308 0)
(0.100193 0.00718302 0)
(0.100036 0.00697009 0)
(0.0998885 0.00675502 0)
(0.0997521 0.00653854 0)
(0.0996261 0.00632137 0)
(0.0995105 0.00610418 0)
(0.0994052 0.00588762 0)
(0.09931 0.00567229 0)
(0.0992246 0.00545877 0)
(0.0991487 0.00524755 0)
(0.099082 0.00503914 0)
(0.0990243 0.00483395 0)
(0.0989749 0.00463237 0)
(0.0989337 0.00443476 0)
(0.0989 0.00424142 0)
(0.0988736 0.00405262 0)
(0.0988539 0.00386858 0)
(0.0988406 0.0036895 0)
(0.0988331 0.00351552 0)
(0.0988311 0.00334677 0)
(0.0988341 0.00318334 0)
(0.0988417 0.0030253 0)
(0.0988536 0.0028727 0)
(0.0988693 0.00272558 0)
(0.0988885 0.00258394 0)
(0.0989109 0.00244779 0)
(0.0989361 0.00231712 0)
(0.0989637 0.00219189 0)
(0.0989934 0.00207205 0)
(0.099025 0.00195749 0)
(0.099058 0.00184812 0)
(0.0990922 0.00174379 0)
(0.102668 0.00959694 0)
(0.1024 0.0094506 0)
(0.102139 0.00929453 0)
(0.101885 0.00912916 0)
(0.10164 0.00895497 0)
(0.101402 0.00877248 0)
(0.101174 0.00858228 0)
(0.100955 0.00838501 0)
(0.100746 0.00818135 0)
(0.100547 0.00797202 0)
(0.100359 0.00775778 0)
(0.100181 0.00753939 0)
(0.100014 0.00731765 0)
(0.0998585 0.00709335 0)
(0.0997136 0.00686727 0)
(0.0995799 0.00664019 0)
(0.099457 0.00641284 0)
(0.099345 0.00618593 0)
(0.0992437 0.00596014 0)
(0.0991528 0.00573609 0)
(0.0990719 0.00551435 0)
(0.0990009 0.00529545 0)
(0.0989393 0.00507988 0)
(0.0988867 0.00486806 0)
(0.0988426 0.00466037 0)
(0.0988067 0.00445716 0)
(0.0987785 0.00425871 0)
(0.0987574 0.00406526 0)
(0.0987431 0.00387703 0)
(0.098735 0.00369418 0)
(0.0987327 0.00351684 0)
(0.0987357 0.00334511 0)
(0.0987437 0.00317904 0)
(0.0987562 0.00301869 0)
(0.0987728 0.00286409 0)
(0.098793 0.00271523 0)
(0.0988167 0.00257213 0)
(0.0988432 0.00243475 0)
(0.0988725 0.00230307 0)
(0.098904 0.00217704 0)
(0.0989374 0.00205659 0)
(0.0989725 0.00194161 0)
(0.0990089 0.00183197 0)
(0.0990463 0.00172752 0)
(0.102509 0.00988616 0)
(0.102234 0.00972701 0)
(0.101967 0.00955791 0)
(0.101708 0.00937936 0)
(0.101458 0.00919189 0)
(0.101217 0.00899606 0)
(0.100986 0.00879253 0)
(0.100765 0.00858198 0)
(0.100555 0.00836515 0)
(0.100356 0.00814282 0)
(0.100168 0.0079158 0)
(0.0999907 0.00768491 0)
(0.0998254 0.00745098 0)
(0.0996717 0.00721486 0)
(0.0995296 0.00697738 0)
(0.0993991 0.00673934 0)
(0.09928 0.00650151 0)
(0.0991722 0.00626464 0)
(0.0990754 0.00602941 0)
(0.0989893 0.00579648 0)
(0.0989136 0.00556641 0)
(0.0988479 0.00533976 0)
(0.0987918 0.00511699 0)
(0.0987448 0.00489853 0)
(0.0987065 0.00468476 0)
(0.0986763 0.00447599 0)
(0.0986538 0.00427249 0)
(0.0986385 0.0040745 0)
(0.0986298 0.00388218 0)
(0.0986273 0.00369568 0)
(0.0986305 0.0035151 0)
(0.0986389 0.00334051 0)
(0.098652 0.00317194 0)
(0.0986696 0.00300942 0)
(0.098691 0.00285294 0)
(0.098716 0.0027025 0)
(0.0987441 0.00255805 0)
(0.0987751 0.00241958 0)
(0.0988084 0.00228702 0)
(0.0988439 0.00216032 0)
(0.0988812 0.00203939 0)
(0.0989199 0.00192409 0)
(0.0989597 0.0018143 0)
(0.0990004 0.00170984 0)
(0.102332 0.0101826 0)
(0.102052 0.0100097 0)
(0.101779 0.00982666 0)
(0.101515 0.00963405 0)
(0.101261 0.00943244 0)
(0.101018 0.00922244 0)
(0.100784 0.00900478 0)
(0.100562 0.0087802 0)
(0.100351 0.0085495 0)
(0.100152 0.00831351 0)
(0.0999643 0.00807309 0)
(0.0997889 0.00782914 0)
(0.0996258 0.00758252 0)
(0.0994749 0.00733414 0)
(0.0993362 0.00708486 0)
(0.0992095 0.00683552 0)
(0.0990948 0.00658693 0)
(0.0989917 0.00633986 0)
(0.0989001 0.00609502 0)
(0.0988194 0.00585306 0)
(0.0987494 0.00561458 0)
(0.0986896 0.00538012 0)
(0.0986395 0.00515014 0)
(0.0985986 0.00492507 0)
(0.0985664 0.00470525 0)
(0.0985425 0.004491 0)
(0.0985261 0.00428255 0)
(0.0985169 0.00408011 0)
(0.0985142 0.00388383 0)
(0.0985176 0.00369382 0)
(0.0985265 0.00351014 0)
(0.0985405 0.00333284 0)
(0.0985591 0.00316193 0)
(0.0985818 0.00299738 0)
(0.0986083 0.00283918 0)
(0.0986382 0.00268729 0)
(0.098671 0.00254165 0)
(0.0987064 0.00240222 0)
(0.0987441 0.00226893 0)
(0.0987836 0.00214169 0)
(0.0988248 0.0020204 0)
(0.0988672 0.00190492 0)
(0.0989105 0.00179509 0)
(0.0989544 0.00169073 0)
(0.102139 0.0104858 0)
(0.101852 0.0102983 0)
(0.101574 0.0101004 0)
(0.101306 0.0098928 0)
(0.101049 0.00967615 0)
(0.100802 0.00945114 0)
(0.100567 0.00921854 0)
(0.100344 0.00897915 0)
(0.100133 0.00873385 0)
(0.0999345 0.00848353 0)
(0.0997486 0.00822911 0)
(0.0995755 0.00797153 0)
(0.0994152 0.00771173 0)
(0.0992677 0.00745064 0)
(0.0991331 0.00718918 0)
(0.099011 0.00692822 0)
(0.0989013 0.00666861 0)
(0.0988036 0.00641113 0)
(0.0987177 0.00615651 0)
(0.0986431 0.00590542 0)
(0.0985793 0.00565846 0)
(0.0985259 0.00541616 0)
(0.0984824 0.00517898 0)
(0.0984482 0.00494734 0)
(0.0984226 0.00472155 0)
(0.0984053 0.00450191 0)
(0.0983955 0.00428863 0)
(0.0983927 0.00408189 0)
(0.0983964 0.00388179 0)
(0.0984059 0.00368842 0)
(0.0984209 0.00350181 0)
(0.0984407 0.00332197 0)
(0.0984649 0.00314887 0)
(0.0984931 0.00298247 0)
(0.0985249 0.00282271 0)
(0.0985598 0.00266953 0)
(0.0985974 0.00252286 0)
(0.0986374 0.00238262 0)
(0.0986794 0.00224873 0)
(0.0987232 0.00212109 0)
(0.0987683 0.00199958 0)
(0.0988144 0.00188404 0)
(0.0988613 0.00177431 0)
(0.0989086 0.00167017 0)
(0.108905 0.00384837 0)
(0.108737 0.00403994 0)
(0.108564 0.00422306 0)
(0.108384 0.0043976 0)
(0.1082 0.00456346 0)
(0.10801 0.00472049 0)
(0.107817 0.00486859 0)
(0.10762 0.00500765 0)
(0.10742 0.00513759 0)
(0.107218 0.00525833 0)
(0.107013 0.00536983 0)
(0.106807 0.00547204 0)
(0.106601 0.00556493 0)
(0.106393 0.0056485 0)
(0.106186 0.00572277 0)
(0.105979 0.00578778 0)
(0.105772 0.0058436 0)
(0.105567 0.00589035 0)
(0.105364 0.00592815 0)
(0.105162 0.00595719 0)
(0.104963 0.00597768 0)
(0.104766 0.00598987 0)
(0.104573 0.00599404 0)
(0.104382 0.00599051 0)
(0.104195 0.00597964 0)
(0.104011 0.00596179 0)
(0.109101 0.00401684 0)
(0.108924 0.00421503 0)
(0.108741 0.00440421 0)
(0.108552 0.00458426 0)
(0.108358 0.00475506 0)
(0.108159 0.00491649 0)
(0.107956 0.00506842 0)
(0.107749 0.00521077 0)
(0.10754 0.00534346 0)
(0.107327 0.00546642 0)
(0.107113 0.0055796 0)
(0.106898 0.00568298 0)
(0.106682 0.00577656 0)
(0.106465 0.00586033 0)
(0.106249 0.00593434 0)
(0.106033 0.00599865 0)
(0.105818 0.00605336 0)
(0.105605 0.00609859 0)
(0.105394 0.0061345 0)
(0.105184 0.0061613 0)
(0.104978 0.00617922 0)
(0.104774 0.00618854 0)
(0.104573 0.00618956 0)
(0.104376 0.00618263 0)
(0.104182 0.00616811 0)
(0.103993 0.00614642 0)
(0.109303 0.00419451 0)
(0.109117 0.00439955 0)
(0.108924 0.00459499 0)
(0.108725 0.0047807 0)
(0.108521 0.00495657 0)
(0.108312 0.00512247 0)
(0.108099 0.00527828 0)
(0.107882 0.00542392 0)
(0.107662 0.00555931 0)
(0.107439 0.00568441 0)
(0.107215 0.00579917 0)
(0.10699 0.0059036 0)
(0.106764 0.00599768 0)
(0.106538 0.00608147 0)
(0.106312 0.006155 0)
(0.106087 0.00621838 0)
(0.105863 0.00627171 0)
(0.105641 0.00631515 0)
(0.105421 0.00634889 0)
(0.105204 0.00637315 0)
(0.104989 0.0063882 0)
(0.104778 0.00639434 0)
(0.10457 0.0063919 0)
(0.104366 0.00638125 0)
(0.104166 0.00636279 0)
(0.10397 0.00633694 0)
(0.109514 0.00438194 0)
(0.109317 0.00459408 0)
(0.109114 0.00479598 0)
(0.108904 0.00498751 0)
(0.108689 0.00516856 0)
(0.108469 0.005339 0)
(0.108245 0.00549872 0)
(0.108017 0.00564764 0)
(0.107786 0.0057857 0)
(0.107553 0.00591285 0)
(0.107318 0.00602908 0)
(0.107083 0.0061344 0)
(0.106846 0.00622882 0)
(0.10661 0.0063124 0)
(0.106374 0.00638523 0)
(0.106139 0.00644741 0)
(0.105906 0.00649908 0)
(0.105675 0.00654044 0)
(0.105446 0.0065717 0)
(0.105221 0.00659311 0)
(0.104998 0.00660496 0)
(0.104779 0.00660759 0)
(0.104564 0.00660135 0)
(0.104353 0.00658664 0)
(0.104146 0.00656389 0)
(0.103944 0.00653353 0)
(0.109731 0.00457975 0)
(0.109524 0.00479923 0)
(0.10931 0.0050078 0)
(0.109089 0.00520531 0)
(0.108863 0.00539165 0)
(0.108631 0.00556671 0)
(0.108395 0.00573037 0)
(0.108156 0.00588255 0)
(0.107914 0.00602322 0)
(0.107669 0.00615234 0)
(0.107423 0.0062699 0)
(0.107176 0.00637594 0)
(0.106929 0.00647049 0)
(0.106682 0.00655365 0)
(0.106435 0.00662551 0)
(0.10619 0.00668621 0)
(0.105947 0.00673594 0)
(0.105707 0.0067749 0)
(0.105469 0.00680334 0)
(0.105234 0.00682154 0)
(0.105003 0.00682984 0)
(0.104776 0.0068286 0)
(0.104553 0.00681819 0)
(0.104335 0.00679906 0)
(0.104121 0.00677165 0)
(0.103912 0.00673643 0)
(0.109957 0.00478859 0)
(0.109739 0.00501567 0)
(0.109512 0.0052311 0)
(0.10928 0.00543475 0)
(0.109041 0.00562651 0)
(0.108798 0.00580624 0)
(0.10855 0.00597386 0)
(0.108298 0.00612929 0)
(0.108044 0.0062725 0)
(0.107787 0.00640348 0)
(0.107529 0.00652223 0)
(0.10727 0.00662881 0)
(0.107011 0.00672328 0)
(0.106753 0.00680576 0)
(0.106496 0.00687637 0)
(0.10624 0.0069353 0)
(0.105987 0.00698275 0)
(0.105736 0.00701896 0)
(0.105488 0.00704422 0)
(0.105245 0.00705885 0)
(0.105005 0.00706322 0)
(0.104769 0.0070577 0)
(0.104538 0.00704274 0)
(0.104312 0.00701878 0)
(0.104091 0.00698631 0)
(0.103875 0.00694583 0)
(0.110191 0.00500914 0)
(0.10996 0.00524408 0)
(0.109722 0.0054666 0)
(0.109476 0.00567655 0)
(0.109225 0.00587383 0)
(0.108969 0.00605831 0)
(0.108708 0.0062299 0)
(0.108443 0.00638854 0)
(0.108176 0.00653422 0)
(0.107907 0.00666692 0)
(0.107636 0.0067867 0)
(0.107365 0.00689362 0)
(0.107094 0.00698777 0)
(0.106824 0.0070693 0)
(0.106555 0.00713837 0)
(0.106288 0.00719519 0)
(0.106024 0.00724001 0)
(0.105762 0.0072731 0)
(0.105505 0.0072948 0)
(0.105251 0.00730545 0)
(0.105002 0.00730546 0)
(0.104757 0.00729526 0)
(0.104518 0.00727531 0)
(0.104284 0.00724609 0)
(0.104055 0.00720813 0)
(0.103833 0.00716196 0)
(0.110434 0.00524216 0)
(0.11019 0.00548524 0)
(0.109938 0.00571505 0)
(0.109679 0.00593146 0)
(0.109414 0.00613436 0)
(0.109144 0.00632364 0)
(0.10887 0.00649921 0)
(0.108591 0.00666102 0)
(0.108311 0.00680906 0)
(0.108028 0.00694337 0)
(0.107744 0.00706399 0)
(0.10746 0.00717102 0)
(0.107176 0.0072646 0)
(0.106893 0.00734488 0)
(0.106612 0.00741208 0)
(0.106333 0.00746644 0)
(0.106058 0.00750825 0)
(0.105785 0.00753782 0)
(0.105517 0.00755552 0)
(0.105253 0.00756176 0)
(0.104994 0.00755697 0)
(0.10474 0.00754163 0)
(0.104492 0.00751622 0)
(0.10425 0.00748129 0)
(0.104014 0.00743737 0)
(0.103784 0.00738504 0)
(0.110685 0.00548846 0)
(0.110427 0.00573993 0)
(0.110161 0.00597725 0)
(0.109888 0.00620028 0)
(0.109609 0.00640891 0)
(0.109324 0.00660303 0)
(0.109035 0.00678257 0)
(0.108743 0.00694749 0)
(0.108447 0.0070978 0)
(0.10815 0.00723354 0)
(0.107853 0.00735481 0)
(0.107554 0.00746171 0)
(0.107257 0.00755443 0)
(0.106961 0.00763315 0)
(0.106667 0.00769812 0)
(0.106376 0.00774963 0)
(0.106088 0.00778801 0)
(0.105804 0.00781363 0)
(0.105525 0.00782689 0)
(0.105251 0.00782824 0)
(0.104981 0.00781816 0)
(0.104718 0.00779718 0)
(0.104461 0.00776582 0)
(0.10421 0.00772466 0)
(0.103966 0.00767428 0)
(0.103728 0.00761528 0)
(0.110945 0.00574888 0)
(0.110672 0.00600903 0)
(0.110391 0.00625407 0)
(0.110103 0.00648386 0)
(0.109809 0.00669831 0)
(0.109509 0.00689732 0)
(0.109204 0.0070808 0)
(0.108896 0.00724876 0)
(0.108586 0.00740121 0)
(0.108274 0.00753822 0)
(0.107961 0.0076599 0)
(0.107649 0.00776641 0)
(0.107337 0.00785795 0)
(0.107027 0.00793475 0)
(0.10672 0.00799712 0)
(0.106416 0.00804536 0)
(0.106115 0.00807987 0)
(0.105819 0.00810106 0)
(0.105528 0.00810938 0)
(0.105243 0.00810534 0)
(0.104963 0.00808945 0)
(0.10469 0.00806229 0)
(0.104423 0.00802443 0)
(0.104163 0.0079765 0)
(0.10391 0.00791911 0)
(0.103665 0.00785291 0)
(0.111214 0.00602435 0)
(0.110926 0.00629346 0)
(0.110629 0.00654643 0)
(0.110324 0.00678313 0)
(0.110013 0.00700349 0)
(0.109697 0.0072074 0)
(0.109377 0.0073948 0)
(0.109053 0.0075657 0)
(0.108726 0.00772014 0)
(0.108398 0.00785821 0)
(0.10807 0.00798006 0)
(0.107742 0.00808587 0)
(0.107415 0.00817589 0)
(0.107091 0.0082504 0)
(0.106769 0.00830973 0)
(0.106451 0.00835426 0)
(0.106138 0.00838442 0)
(0.105829 0.00840066 0)
(0.105526 0.00840352 0)
(0.105229 0.00839352 0)
(0.104938 0.00837126 0)
(0.104654 0.00833734 0)
(0.104377 0.0082924 0)
(0.104108 0.00823711 0)
(0.103847 0.00817212 0)
(0.103594 0.00809813 0)
(0.111492 0.00631588 0)
(0.111187 0.00659421 0)
(0.110873 0.00685532 0)
(0.110551 0.00709908 0)
(0.110223 0.00732541 0)
(0.10989 0.00753423 0)
(0.109552 0.00772549 0)
(0.109211 0.00789921 0)
(0.108867 0.00805546 0)
(0.108523 0.00819437 0)
(0.108178 0.00831611 0)
(0.107834 0.0084209 0)
(0.107491 0.00850902 0)
(0.107152 0.00858081 0)
(0.106815 0.00863665 0)
(0.106483 0.00867697 0)
(0.106155 0.00870224 0)
(0.105833 0.008713 0)
(0.105517 0.0087098 0)
(0.105208 0.00869326 0)
(0.104906 0.00866401 0)
(0.104611 0.00862271 0)
(0.104324 0.00857007 0)
(0.104046 0.00850677 0)
(0.103776 0.00843356 0)
(0.103514 0.00835114 0)
(0.111778 0.00662452 0)
(0.111455 0.00691235 0)
(0.111124 0.00718179 0)
(0.110784 0.00743273 0)
(0.110437 0.0076651 0)
(0.110085 0.00787881 0)
(0.109729 0.00807385 0)
(0.10937 0.00825026 0)
(0.109009 0.00840813 0)
(0.108646 0.00854761 0)
(0.108284 0.00866891 0)
(0.107923 0.00877231 0)