/*--------------------------------*- C++ -*----------------------------------*\
| =========                 |                                                 |
| \\      /  F ield         | OpenFOAM: The Open Source CFD Toolbox           |
|  \\    /   O peration     | Version:  2412                                  |
|   \\  /    A nd           | Website:  www.openfoam.com                      |
|    \\/     M anipulation  |                                                 |
\*---------------------------------------------------------------------------*/
FoamFile
{
    version     2.0;
    format      ascii;
    arch        "LSB;label=32;scalar=64";
    class       volVectorField;
    location    "8";
    object      vorticity;
}
// * * * * * * * * * * * * * * * * * * * * * * * * * * * * * * * * * * * * * //

dimensions      [0 0 -1 0 0 0 0];

internalField   nonuniform List<vector> 
5285
(
(0 -0 1.0157e-05)
(0 -0 9.78258e-06)
(0 -0 8.98518e-06)
(0 -0 7.65385e-06)
(0 -0 5.7371e-06)
(0 -0 3.22532e-06)
(0 -0 1.89925e-07)
(0 -0 -3.21175e-06)
(0 -0 -6.74489e-06)
(0 -0 -1.01242e-05)
(0 -0 -1.30559e-05)
(0 -0 -1.52851e-05)
(0 -0 -1.664e-05)
(0 -0 -1.70577e-05)
(0 -0 -1.65767e-05)
(0 -0 -1.53013e-05)
(0 -0 1.03034e-05)
(0 -0 9.93428e-06)
(0 -0 9.13091e-06)
(0 -0 7.82701e-06)
(0 -0 5.95417e-06)
(0 -0 3.51099e-06)
(0 -0 5.6596e-07)
(0 -0 -2.7251e-06)
(0 -0 -6.13294e-06)
(0 -0 -9.38141e-06)
(0 -0 -1.21879e-05)
(0 -0 -1.43092e-05)
(0 -0 -1.55825e-05)
(0 -0 -1.5949e-05)
(0 -0 -1.54445e-05)
(0 -0 -1.41758e-05)
(0 -0 9.98672e-06)
(0 -0 9.595e-06)
(0 -0 8.80108e-06)
(0 -0 7.50916e-06)
(0 -0 5.67315e-06)
(0 -0 3.28983e-06)
(0 -0 4.2789e-07)
(0 -0 -2.75908e-06)
(0 -0 -6.04762e-06)
(0 -0 -9.17063e-06)
(0 -0 -1.18567e-05)
(0 -0 -1.38737e-05)
(0 -0 -1.50668e-05)
(0 -0 -1.53775e-05)
(0 -0 -1.48254e-05)
(0 -0 -1.35249e-05)
(0 -0 9.51769e-06)
(0 -0 9.12204e-06)
(0 -0 8.3221e-06)
(0 -0 7.03964e-06)
(0 -0 5.23489e-06)
(0 -0 2.90667e-06)
(0 -0 1.23894e-07)
(0 -0 -2.96248e-06)
(0 -0 -6.13494e-06)
(0 -0 -9.13546e-06)
(0 -0 -1.17037e-05)
(0 -0 -1.36187e-05)
(0 -0 -1.47343e-05)
(0 -0 -1.49932e-05)
(0 -0 -1.44109e-05)
(0 -0 -1.3074e-05)
(0 -0 9.18273e-06)
(0 -0 8.77549e-06)
(0 -0 7.97174e-06)
(0 -0 6.70082e-06)
(0 -0 4.9281e-06)
(0 -0 2.65533e-06)
(0 -0 -4.80978e-08)
(0 -0 -3.03375e-06)
(0 -0 -6.09006e-06)
(0 -0 -8.96802e-06)
(0 -0 -1.14183e-05)
(0 -0 -1.32314e-05)
(0 -0 -1.42703e-05)
(0 -0 -1.4482e-05)
(0 -0 -1.38821e-05)
(0 -0 -1.25712e-05)
(0 -0 8.99968e-06)
(0 -0 8.58133e-06)
(0 -0 7.77628e-06)
(0 -0 6.51914e-06)
(0 -0 4.77998e-06)
(0 -0 2.56363e-06)
(0 -0 -5.98496e-08)
(0 -0 -2.9444e-06)
(0 -0 -5.88429e-06)
(0 -0 -8.63948e-06)
(0 -0 -1.09717e-05)
(0 -0 -1.26827e-05)
(0 -0 -1.36451e-05)
(0 -0 -1.38123e-05)
(0 -0 -1.32023e-05)
(0 -0 -1.19209e-05)
(0 -0 8.96123e-06)
(0 -0 8.53257e-06)
(0 -0 7.72762e-06)
(0 -0 6.48565e-06)
(0 -0 4.7811e-06)
(0 -0 2.62177e-06)
(0 -0 7.85199e-08)
(0 -0 -2.7049e-06)
(0 -0 -5.52848e-06)
(0 -0 -8.16106e-06)
(0 -0 -1.03753e-05)
(0 -0 -1.19844e-05)
(0 -0 -1.2871e-05)
(0 -0 -1.29952e-05)
(0 -0 -1.23782e-05)
(0 -0 -1.11271e-05)
(0 -0 9.11265e-06)
(0 -0 8.67545e-06)
(0 -0 7.87257e-06)
(0 -0 6.64772e-06)
(0 -0 4.97948e-06)
(0 -0 2.87859e-06)
(0 -0 4.16663e-07)
(0 -0 -2.26482e-06)
(0 -0 -4.97151e-06)
(0 -0 -7.48109e-06)
(0 -0 -9.57716e-06)
(0 -0 -1.10844e-05)
(0 -0 -1.18954e-05)
(0 -0 -1.19774e-05)
(0 -0 -1.1355e-05)
(0 -0 -1.01351e-05)
(0 -0 9.52827e-06)
(0 -0 9.08648e-06)
(0 -0 8.28976e-06)
(0 -0 7.08612e-06)
(0 -0 5.45814e-06)
(0 -0 3.41939e-06)
(0 -0 1.04214e-06)
(0 -0 -1.53441e-06)
(0 -0 -4.12168e-06)
(0 -0 -6.50618e-06)
(0 -0 -8.48249e-06)
(0 -0 -9.88677e-06)
(0 -0 -1.06217e-05)
(0 -0 -1.06618e-05)
(0 -0 -1.00349e-05)
(0 -0 -8.84714e-06)
(0 -0 1.02864e-05)
(0 -0 9.8478e-06)
(0 -0 9.06524e-06)
(0 -0 7.89093e-06)
(0 -0 6.31131e-06)
(0 -0 4.34259e-06)
(0 -0 2.05757e-06)
(0 -0 -4.07092e-07)
(0 -0 -2.86873e-06)
(0 -0 -5.12288e-06)
(0 -0 -6.97525e-06)
(0 -0 -8.27353e-06)
(0 -0 -8.93057e-06)
(0 -0 -8.928e-06)
(0 -0 -8.2972e-06)
(0 -0 -7.14295e-06)
(0 -0 1.14386e-05)
(0 -0 1.10167e-05)
(0 -0 1.02624e-05)
(0 -0 9.13185e-06)
(0 -0 7.61516e-06)
(0 -0 5.73096e-06)
(0 -0 3.5522e-06)
(0 -0 1.21264e-06)
(0 -0 -1.11141e-06)
(0 -0 -3.22493e-06)
(0 -0 -4.94503e-06)
(0 -0 -6.13117e-06)
(0 -0 -6.7064e-06)
(0 -0 -6.65947e-06)
(0 -0 -6.0249e-06)
(0 -0 -4.90582e-06)
(0 -0 1.2971e-05)
(0 -0 1.25875e-05)
(0 -0 1.18837e-05)
(0 -0 1.082e-05)
(0 -0 9.38987e-06)
(0 -0 7.61385e-06)
(0 -0 5.56453e-06)
(0 -0 3.37204e-06)
(0 -0 1.20561e-06)
(0 -0 -7.49892e-07)
(0 -0 -2.32362e-06)
(0 -0 -3.38716e-06)
(0 -0 -3.87389e-06)
(0 -0 -3.7795e-06)
(0 -0 -3.14117e-06)
(0 -0 -2.05974e-06)
(0 -0 1.47634e-05)
(0 -0 1.44492e-05)
(0 -0 1.38287e-05)
(0 -0 1.28659e-05)
(0 -0 1.15572e-05)
(0 -0 9.92465e-06)
(0 -0 8.03952e-06)
(0 -0 6.02728e-06)
(0 -0 4.04882e-06)
(0 -0 2.27772e-06)
(0 -0 8.71781e-07)
(0 -0 -5.33628e-08)
(0 -0 -4.41613e-07)
(0 -0 -2.95285e-07)
(0 -0 3.46487e-07)
(0 -0 1.38626e-06)
(0 -0 1.65562e-05)
(0 -0 1.63532e-05)
(0 -0 1.58602e-05)
(0 -0 1.50445e-05)
(0 -0 1.39051e-05)
(0 -0 1.24645e-05)
(0 -0 1.07916e-05)
(0 -0 9.00565e-06)
(0 -0 7.25741e-06)
(0 -0 5.7074e-06)
(0 -0 4.49894e-06)
(0 -0 3.7339e-06)
(0 -0 3.45752e-06)
(0 -0 3.66128e-06)
(0 -0 4.30518e-06)
(0 -0 5.29681e-06)
(0 -0 1.79443e-05)
(0 -0 1.79048e-05)
(0 -0 1.75946e-05)
(0 -0 1.69843e-05)
(0 -0 1.60749e-05)
(0 -0 1.48883e-05)
(0 -0 1.34893e-05)
(0 -0 1.19888e-05)
(0 -0 1.05251e-05)
(0 -0 9.24335e-06)
(0 -0 8.27034e-06)
(0 -0 7.69275e-06)
(0 -0 7.54453e-06)
(0 -0 7.8115e-06)
(0 -0 8.45424e-06)
(0 -0 9.38751e-06)
(0 -0 1.84096e-05)
(0 -0 1.85939e-05)
(0 -0 1.8531e-05)
(0 -0 1.81946e-05)
(0 -0 1.75867e-05)
(0 -0 1.67277e-05)
(0 -0 1.5676e-05)
(0 -0 1.45316e-05)
(0 -0 1.34175e-05)
(0 -0 1.24603e-05)
(0 -0 1.17676e-05)
(0 -0 1.14093e-05)
(0 -0 1.14073e-05)
(0 -0 1.17424e-05)
(0 -0 1.23776e-05)
(0 -0 1.32375e-05)
(0 -0 1.73987e-05)
(0 -0 1.78714e-05)
(0 -0 1.81255e-05)
(0 -0 1.81373e-05)
(0 -0 1.79095e-05)
(0 -0 1.7459e-05)
(0 -0 1.68358e-05)
(0 -0 1.61258e-05)
(0 -0 1.54334e-05)
(0 -0 1.48628e-05)
(0 -0 1.44997e-05)
(0 -0 1.43947e-05)
(0 -0 1.4557e-05)
(0 -0 1.49631e-05)
(0 -0 1.55804e-05)
(0 -0 1.63467e-05)
(0 -0 1.4439e-05)
(0 -0 1.52632e-05)
(0 -0 1.59032e-05)
(0 -0 1.63377e-05)
(0 -0 1.6569e-05)
(0 -0 1.6609e-05)
(0 -0 1.6497e-05)
(0 -0 1.63018e-05)
(0 -0 1.61046e-05)
(0 -0 1.59842e-05)
(0 -0 1.60002e-05)
(0 -0 1.61819e-05)
(0 -0 1.65249e-05)
(0 -0 1.70018e-05)
(0 -0 1.75869e-05)
(0 -0 1.82341e-05)
(0 -0 9.26497e-06)
(0 -0 1.04955e-05)
(0 -0 1.15842e-05)
(0 -0 1.25089e-05)
(0 -0 1.32712e-05)
(0 -0 1.38774e-05)
(0 -0 1.43533e-05)
(0 -0 1.47474e-05)
(0 -0 1.51144e-05)
(0 -0 1.5503e-05)
(0 -0 1.59438e-05)
(0 -0 1.64419e-05)
(0 -0 1.69783e-05)
(0 -0 1.75225e-05)
(0 -0 1.80575e-05)
(0 -0 1.85579e-05)
(0 -0 1.92237e-06)
(0 -0 3.60159e-06)
(0 -0 5.18381e-06)
(0 -0 6.6553e-06)
(0 -0 8.0062e-06)
(0 -0 9.23937e-06)
(0 -0 1.0366e-05)
(0 -0 1.1411e-05)
(0 -0 1.2399e-05)
(0 -0 1.33454e-05)
(0 -0 1.42482e-05)
(0 -0 1.50862e-05)
(0 -0 1.58244e-05)
(0 -0 1.64295e-05)
(0 -0 1.68953e-05)
(0 -0 1.722e-05)
(0 -0 0.000379337)
(0 -0 0.000810879)
(0 -0 0.00163117)
(0 -0 0.00217329)
(0 -0 0.0019575)
(0 -0 0.00113383)
(0 -0 0.000197724)
(0 -0 -0.00046044)
(0 -0 -0.000733384)
(0 -0 0.000386277)
(0 -0 0.000831704)
(0 -0 0.0016782)
(0 -0 0.00223731)
(0 -0 0.00201412)
(0 -0 0.00116393)
(0 -0 0.000198345)
(0 -0 -0.000479877)
(0 -0 -0.000760334)
(0 -0 -0.000741523)
(0 -0 -0.000579045)
(0 -0 -0.000391344)
(0 -0 -0.00023713)
(0 -0 -0.0001311)
(0 -0 -6.63986e-05)
(0 -0 -3.02913e-05)
(0 -0 -1.15253e-05)
(0 -0 -2.33306e-06)
(0 -0 1.94284e-06)
(0 -0 3.83677e-06)
(0 -0 4.63097e-06)
(0 -0 4.93793e-06)
(0 -0 5.03694e-06)
(0 -0 5.05062e-06)
(0 -0 5.03142e-06)
(0 -0 5.00159e-06)
(0 -0 4.9709e-06)
(0 -0 4.94422e-06)
(0 -0 4.92442e-06)
(0 -0 4.91361e-06)
(0 -0 4.91344e-06)
(0 -0 4.92525e-06)
(0 -0 4.95024e-06)
(0 -0 4.98949e-06)
(0 -0 5.04405e-06)
(0 -0 5.11505e-06)
(0 -0 5.2037e-06)
(0 -0 5.31135e-06)
(0 -0 5.43935e-06)
(0 -0 5.58908e-06)
(0 -0 5.76192e-06)
(0 -0 5.95915e-06)
(0 -0 6.18204e-06)
(0 -0 6.43179e-06)
(0 -0 6.70952e-06)
(0 -0 7.01617e-06)
(0 -0 7.35228e-06)
(0 -0 7.71747e-06)
(0 -0 8.10958e-06)
(0 -0 8.52322e-06)
(0 -0 8.94758e-06)
(0 -0 9.36372e-06)
(0 -0 9.74088e-06)
(0 -0 1.00358e-05)
(0 -0 1.01758e-05)
(0 -0 0.000392955)
(0 -0 0.000852687)
(0 -0 0.00172622)
(0 -0 0.00230288)
(0 -0 0.00207215)
(0 -0 0.00119475)
(0 -0 0.000198873)
(0 -0 -0.000499943)
(0 -0 -0.000788089)
(0 -0 -0.000767528)
(0 -0 -0.000598998)
(0 -0 -0.000404676)
(0 -0 -0.000245148)
(0 -0 -0.000135507)
(0 -0 -6.86161e-05)
(0 -0 -3.12923e-05)
(0 -0 -1.18958e-05)
(0 -0 -2.39536e-06)
(0 -0 2.02367e-06)
(0 -0 3.98106e-06)
(0 -0 4.80219e-06)
(0 -0 5.12011e-06)
(0 -0 5.22339e-06)
(0 -0 5.23868e-06)
(0 -0 5.22011e-06)
(0 -0 5.19061e-06)
(0 -0 5.16025e-06)
(0 -0 5.13404e-06)
(0 -0 5.11493e-06)
(0 -0 5.10508e-06)
(0 -0 5.10611e-06)
(0 -0 5.11935e-06)
(0 -0 5.14596e-06)
(0 -0 5.18695e-06)
(0 -0 5.24333e-06)
(0 -0 5.31621e-06)
(0 -0 5.40674e-06)
(0 -0 5.51624e-06)
(0 -0 5.64597e-06)
(0 -0 5.79722e-06)
(0 -0 5.97129e-06)
(0 -0 6.16935e-06)
(0 -0 6.39256e-06)
(0 -0 6.64206e-06)
(0 -0 6.91893e-06)
(0 -0 7.22403e-06)
(0 -0 7.55786e-06)
(0 -0 7.92002e-06)
(0 -0 8.30833e-06)
(0 -0 8.71744e-06)
(0 -0 9.13668e-06)
(0 -0 9.54755e-06)
(0 -0 9.92054e-06)
(0 -0 1.02096e-05)
(0 -0 1.03569e-05)
(0 -0 0.000399369)
(0 -0 0.000873859)
(0 -0 0.00177533)
(0 -0 0.00237019)
(0 -0 0.0021318)
(0 -0 0.00122644)
(0 -0 0.000199404)
(0 -0 -0.000520606)
(0 -0 -0.000816667)
(0 -0 -0.000794308)
(0 -0 -0.000619515)
(0 -0 -0.00041839)
(0 -0 -0.000253396)
(0 -0 -0.000140041)
(0 -0 -7.09028e-05)
(0 -0 -3.23326e-05)
(0 -0 -1.22929e-05)
(0 -0 -2.48074e-06)
(0 -0 2.08037e-06)
(0 -0 4.09798e-06)
(0 -0 4.94179e-06)
(0 -0 5.26591e-06)
(0 -0 5.36842e-06)
(0 -0 5.38007e-06)
(0 -0 5.35665e-06)
(0 -0 5.32179e-06)
(0 -0 5.28582e-06)
(0 -0 5.25385e-06)
(0 -0 5.22887e-06)
(0 -0 5.213e-06)
(0 -0 5.20783e-06)
(0 -0 5.21465e-06)
(0 -0 5.2345e-06)
(0 -0 5.26833e-06)
(0 -0 5.31708e-06)
(0 -0 5.3818e-06)
(0 -0 5.46359e-06)
(0 -0 5.56363e-06)
(0 -0 5.68312e-06)
(0 -0 5.82322e-06)
(0 -0 5.98505e-06)
(0 -0 6.16965e-06)
(0 -0 6.37807e-06)
(0 -0 6.61131e-06)
(0 -0 6.87033e-06)
(0 -0 7.15592e-06)
(0 -0 7.46849e-06)
(0 -0 7.80751e-06)
(0 -0 8.17076e-06)
(0 -0 8.55283e-06)
(0 -0 8.94317e-06)
(0 -0 9.32361e-06)
(0 -0 9.66568e-06)
(0 -0 9.92704e-06)
(0 -0 1.00466e-05)
(0 -0 0.000405508)
(0 -0 0.000895273)
(0 -0 0.00182568)
(0 -0 0.00243951)
(0 -0 0.00219336)
(0 -0 0.00125922)
(0 -0 0.000200052)
(0 -0 -0.000541845)
(0 -0 -0.000846105)
(0 -0 -0.000821902)
(0 -0 -0.000640647)
(0 -0 -0.000432507)
(0 -0 -0.000261883)
(0 -0 -0.000144705)
(0 -0 -7.32539e-05)
(0 -0 -3.34025e-05)
(0 -0 -1.27031e-05)
(0 -0 -2.57283e-06)
(0 -0 2.13161e-06)
(0 -0 4.20825e-06)
(0 -0 5.07242e-06)
(0 -0 5.3999e-06)
(0 -0 5.49855e-06)
(0 -0 5.50335e-06)
(0 -0 5.47183e-06)
(0 -0 5.42829e-06)
(0 -0 5.38335e-06)
(0 -0 5.34219e-06)
(0 -0 5.30782e-06)
(0 -0 5.2823e-06)
(0 -0 5.26718e-06)
(0 -0 5.26366e-06)
(0 -0 5.27273e-06)
(0 -0 5.29524e-06)
(0 -0 5.33212e-06)
(0 -0 5.38433e-06)
(0 -0 5.45293e-06)
(0 -0 5.53903e-06)
(0 -0 5.64373e-06)
(0 -0 5.76806e-06)
(0 -0 5.91302e-06)
(0 -0 6.07955e-06)
(0 -0 6.26856e-06)
(0 -0 6.48098e-06)
(0 -0 6.71767e-06)
(0 -0 6.97934e-06)
(0 -0 7.26631e-06)
(0 -0 7.57803e-06)
(0 -0 7.91218e-06)
(0 -0 8.26336e-06)
(0 -0 8.62113e-06)
(0 -0 8.96766e-06)
(0 -0 9.27531e-06)
(0 -0 9.50428e-06)
(0 -0 9.6011e-06)
(0 -0 0.000411385)
(0 -0 0.000916967)
(0 -0 0.00187746)
(0 -0 0.00251112)
(0 -0 0.00225714)
(0 -0 0.00129332)
(0 -0 0.000200914)
(0 -0 -0.000563657)
(0 -0 -0.000876439)
(0 -0 -0.000850338)
(0 -0 -0.000662434)
(0 -0 -0.000447062)
(0 -0 -0.000270626)
(0 -0 -0.0001495)
(0 -0 -7.56587e-05)
(0 -0 -3.44831e-05)
(0 -0 -1.31018e-05)
(0 -0 -2.64254e-06)
(0 -0 2.21029e-06)
(0 -0 4.34824e-06)
(0 -0 5.23379e-06)
(0 -0 5.56513e-06)
(0 -0 5.66025e-06)
(0 -0 5.65852e-06)
(0 -0 5.6193e-06)
(0 -0 5.56764e-06)
(0 -0 5.51443e-06)
(0 -0 5.46493e-06)
(0 -0 5.42213e-06)
(0 -0 5.38807e-06)
(0 -0 5.36421e-06)
(0 -0 5.35169e-06)
(0 -0 5.35143e-06)
(0 -0 5.36426e-06)
(0 -0 5.39104e-06)
(0 -0 5.43271e-06)
(0 -0 5.4903e-06)
(0 -0 5.56484e-06)
(0 -0 5.65734e-06)
(0 -0 5.76875e-06)
(0 -0 5.89996e-06)
(0 -0 6.0518e-06)
(0 -0 6.22511e-06)
(0 -0 6.42071e-06)
(0 -0 6.63938e-06)
(0 -0 6.88179e-06)
(0 -0 7.14816e-06)
(0 -0 7.43789e-06)
(0 -0 7.7486e-06)
(0 -0 8.07489e-06)
(0 -0 8.40643e-06)
(0 -0 8.72573e-06)
(0 -0 9.00591e-06)
(0 -0 9.20897e-06)
(0 -0 9.28595e-06)
(0 -0 0.000416986)
(0 -0 0.000939013)
(0 -0 0.00193091)
(0 -0 0.00258543)
(0 -0 0.00232355)
(0 -0 0.00132906)
(0 -0 0.000202178)
(0 -0 -0.000585979)
(0 -0 -0.000907682)
(0 -0 -0.000879696)
(0 -0 -0.000684941)
(0 -0 -0.00046209)
(0 -0 -0.000279637)
(0 -0 -0.000154419)
(0 -0 -7.80984e-05)
(0 -0 -3.55473e-05)
(0 -0 -1.34561e-05)
(0 -0 -2.653e-06)
(0 -0 2.35627e-06)
(0 -0 4.5602e-06)
(0 -0 5.47018e-06)
(0 -0 5.80765e-06)
(0 -0 5.90114e-06)
(0 -0 5.89461e-06)
(0 -0 5.8494e-06)
(0 -0 5.79132e-06)
(0 -0 5.73157e-06)
(0 -0 5.67549e-06)
(0 -0 5.62606e-06)
(0 -0 5.58524e-06)
(0 -0 5.55443e-06)
(0 -0 5.5347e-06)
(0 -0 5.52692e-06)
(0 -0 5.53187e-06)
(0 -0 5.5504e-06)
(0 -0 5.58342e-06)
(0 -0 5.63192e-06)
(0 -0 5.69688e-06)
(0 -0 5.77923e-06)
(0 -0 5.87983e-06)
(0 -0 5.99948e-06)
(0 -0 6.13894e-06)
(0 -0 6.29895e-06)
(0 -0 6.48025e-06)
(0 -0 6.68356e-06)
(0 -0 6.90946e-06)
(0 -0 7.1581e-06)
(0 -0 7.4288e-06)
(0 -0 7.71913e-06)
(0 -0 8.02369e-06)
(0 -0 8.33225e-06)
(0 -0 8.62763e-06)
(0 -0 8.88369e-06)
(0 -0 9.064e-06)
(0 -0 9.12288e-06)
(0 -0 0.000422299)
(0 -0 0.00096151)
(0 -0 0.00198635)
(0 -0 0.00266292)
(0 -0 0.00239308)
(0 -0 0.00136676)
(0 -0 0.000203954)
(0 -0 -0.000608854)
(0 -0 -0.000939949)
(0 -0 -0.000910088)
(0 -0 -0.000708256)
(0 -0 -0.00047765)
(0 -0 -0.000288946)
(0 -0 -0.000159471)
(0 -0 -8.0569e-05)
(0 -0 -3.65836e-05)
(0 -0 -1.37505e-05)
(0 -0 -2.58649e-06)
(0 -0 2.58844e-06)
(0 -0 4.86369e-06)
(0 -0 5.8015e-06)
(0 -0 6.14757e-06)
(0 -0 6.24141e-06)
(0 -0 6.23184e-06)
(0 -0 6.18225e-06)
(0 -0 6.11931e-06)
(0 -0 6.05456e-06)
(0 -0 5.99339e-06)
(0 -0 5.93877e-06)
(0 -0 5.89258e-06)
(0 -0 5.85616e-06)
(0 -0 5.83051e-06)
(0 -0 5.81643e-06)
(0 -0 5.81472e-06)
(0 -0 5.82618e-06)
(0 -0 5.85173e-06)
(0 -0 5.89229e-06)
(0 -0 5.94882e-06)
(0 -0 6.02217e-06)
(0 -0 6.11313e-06)
(0 -0 6.22244e-06)
(0 -0 6.35076e-06)
(0 -0 6.49877e-06)
(0 -0 6.66713e-06)
(0 -0 6.8565e-06)
(0 -0 7.06736e-06)
(0 -0 7.2998e-06)
(0 -0 7.55303e-06)
(0 -0 7.8246e-06)
(0 -0 8.10905e-06)
(0 -0 8.39628e-06)
(0 -0 8.66941e-06)
(0 -0 8.90302e-06)
(0 -0 9.0621e-06)
(0 -0 9.1038e-06)
(0 -0 0.000427317)
(0 -0 0.000984594)
(0 -0 0.00204417)
(0 -0 0.00274412)
(0 -0 0.00246617)
(0 -0 0.00140659)
(0 -0 0.00020616)
(0 -0 -0.000632529)
(0 -0 -0.000973535)
(0 -0 -0.000941773)
(0 -0 -0.00073257)
(0 -0 -0.000493862)
(0 -0 -0.000298618)
(0 -0 -0.000164687)
(0 -0 -8.30779e-05)
(0 -0 -3.75861e-05)
(0 -0 -1.39713e-05)
(0 -0 -2.42481e-06)
(0 -0 2.92795e-06)
(0 -0 5.28189e-06)
(0 -0 6.25257e-06)
(0 -0 6.61106e-06)
(0 -0 6.70848e-06)
(0 -0 6.69873e-06)
(0 -0 6.64741e-06)
(0 -0 6.58213e-06)
(0 -0 6.51476e-06)
(0 -0 6.45081e-06)
(0 -0 6.3932e-06)
(0 -0 6.34376e-06)
(0 -0 6.30374e-06)
(0 -0 6.27408e-06)
(0 -0 6.25558e-06)
(0 -0 6.24899e-06)
(0 -0 6.25513e-06)
(0 -0 6.27489e-06)
(0 -0 6.30918e-06)
(0 -0 6.3589e-06)
(0 -0 6.42486e-06)
(0 -0 6.5078e-06)
(0 -0 6.60838e-06)
(0 -0 6.72721e-06)
(0 -0 6.8649e-06)
(0 -0 7.02205e-06)
(0 -0 7.19922e-06)
(0 -0 7.39684e-06)
(0 -0 7.61489e-06)
(0 -0 7.85252e-06)
(0 -0 8.10717e-06)
(0 -0 8.37341e-06)
(0 -0 8.6412e-06)
(0 -0 8.89401e-06)
(0 -0 9.10707e-06)
(0 -0 9.24673e-06)
(0 -0 9.27274e-06)
(0 -0 0.000432035)
(0 -0 0.00100845)
(0 -0 0.00210482)
(0 -0 0.00282957)
(0 -0 0.00254312)
(0 -0 0.00144849)
(0 -0 0.000208375)
(0 -0 -0.000657597)
(0 -0 -0.00100903)
(0 -0 -0.000975235)
(0 -0 -0.000758229)
(0 -0 -0.000510949)
(0 -0 -0.000308788)
(0 -0 -0.000170139)
(0 -0 -8.5662e-05)
(0 -0 -3.85707e-05)
(0 -0 -1.41225e-05)
(0 -0 -2.1647e-06)
(0 -0 3.38268e-06)
(0 -0 5.8261e-06)
(0 -0 6.83745e-06)
(0 -0 7.21465e-06)
(0 -0 7.3211e-06)
(0 -0 7.31614e-06)
(0 -0 7.26775e-06)
(0 -0 7.20455e-06)
(0 -0 7.13881e-06)
(0 -0 7.07615e-06)
(0 -0 7.01948e-06)
(0 -0 6.97056e-06)
(0 -0 6.93059e-06)
(0 -0 6.90049e-06)
(0 -0 6.88102e-06)
(0 -0 6.87294e-06)
(0 -0 6.87709e-06)
(0 -0 6.89432e-06)
(0 -0 6.92556e-06)
(0 -0 6.97165e-06)
(0 -0 7.0334e-06)
(0 -0 7.11148e-06)
(0 -0 7.20651e-06)
(0 -0 7.31906e-06)
(0 -0 7.44967e-06)
(0 -0 7.59888e-06)
(0 -0 7.76719e-06)
(0 -0 7.95492e-06)
(0 -0 8.162e-06)
(0 -0 8.38744e-06)
(0 -0 8.62866e-06)
(0 -0 8.88019e-06)
(0 -0 9.13212e-06)
(0 -0 9.36819e-06)
(0 -0 9.56432e-06)
(0 -0 9.68814e-06)
(0 -0 9.70185e-06)
(0 -0 0.000436458)
(0 -0 0.00103334)
(0 -0 0.00216885)
(0 -0 0.00291977)
(0 -0 0.00262399)
(0 -0 0.00149192)
(0 -0 0.000209623)
(0 -0 -0.000685184)
(0 -0 -0.00104747)
(0 -0 -0.00101129)
(0 -0 -0.000785806)
(0 -0 -0.000529288)
(0 -0 -0.000319689)
(0 -0 -0.000175973)
(0 -0 -8.84129e-05)
(0 -0 -3.95988e-05)
(0 -0 -1.42484e-05)
(0 -0 -1.84051e-06)
(0 -0 3.92463e-06)
(0 -0 6.47288e-06)
(0 -0 7.5364e-06)
(0 -0 7.9419e-06)
(0 -0 8.06593e-06)
(0 -0 8.07369e-06)
(0 -0 8.03573e-06)
(0 -0 7.98178e-06)
(0 -0 7.92457e-06)
(0 -0 7.86987e-06)
(0 -0 7.82061e-06)
(0 -0 7.77854e-06)
(0 -0 7.7448e-06)
(0 -0 7.72031e-06)
(0 -0 7.70584e-06)
(0 -0 7.70217e-06)
(0 -0 7.71015e-06)
(0 -0 7.73065e-06)
(0 -0 7.76459e-06)
(0 -0 7.81281e-06)
(0 -0 7.8761e-06)
(0 -0 7.9551e-06)
(0 -0 8.0504e-06)
(0 -0 8.16252e-06)
(0 -0 8.29198e-06)
(0 -0 8.43926e-06)
(0 -0 8.60477e-06)
(0 -0 8.78877e-06)
(0 -0 8.99109e-06)
(0 -0 9.21067e-06)
(0 -0 9.44484e-06)
(0 -0 9.68816e-06)
(0 -0 9.9308e-06)
(0 -0 1.01568e-05)
(0 -0 1.03428e-05)
(0 -0 1.04577e-05)
(0 -0 1.04659e-05)
(0 -0 0.0004406)
(0 -0 0.00105958)
(0 -0 0.00223683)
(0 -0 0.00301503)
(0 -0 0.00270835)
(0 -0 0.00153562)
(0 -0 0.00020814)
(0 -0 -0.000717151)
(0 -0 -0.00109048)
(0 -0 -0.00105118)
(0 -0 -0.00081618)
(0 -0 -0.000549459)
(0 -0 -0.000331698)
(0 -0 -0.000182436)
(0 -0 -9.15057e-05)
(0 -0 -4.08047e-05)
(0 -0 -1.44611e-05)
(0 -0 -1.55199e-06)
(0 -0 4.46174e-06)
(0 -0 7.13557e-06)
(0 -0 8.26712e-06)
(0 -0 8.71434e-06)
(0 -0 8.8681e-06)
(0 -0 8.89998e-06)
(0 -0 8.88333e-06)
(0 -0 8.84912e-06)
(0 -0 8.81061e-06)
(0 -0 8.77378e-06)
(0 -0 8.74164e-06)
(0 -0 8.71593e-06)
(0 -0 8.69782e-06)
(0 -0 8.68824e-06)
(0 -0 8.688e-06)
(0 -0 8.69794e-06)
(0 -0 8.71892e-06)
(0 -0 8.75187e-06)
(0 -0 8.79771e-06)
(0 -0 8.85731e-06)
(0 -0 8.93143e-06)
(0 -0 9.02074e-06)
(0 -0 9.12579e-06)
(0 -0 9.24709e-06)
(0 -0 9.38512e-06)
(0 -0 9.54032e-06)
(0 -0 9.71306e-06)
(0 -0 9.9035e-06)
(0 -0 1.01114e-05)
(0 -0 1.03356e-05)
(0 -0 1.05735e-05)
(0 -0 1.08195e-05)
(0 -0 1.1064e-05)
(0 -0 1.12913e-05)
(0 -0 1.14788e-05)
(0 -0 1.15964e-05)
(0 -0 1.1611e-05)
(0 -0 0.000444493)
(0 -0 0.00108757)
(0 -0 0.00230933)
(0 -0 0.00311539)
(0 -0 0.00279514)
(0 -0 0.00157744)
(0 -0 0.000201156)
(0 -0 -0.000756265)
(0 -0 -0.00114042)
(0 -0 -0.00109669)
(0 -0 -0.000850588)
(0 -0 -0.000572288)
(0 -0 -0.000345365)
(0 -0 -0.000189911)
(0 -0 -9.5226e-05)
(0 -0 -4.24227e-05)
(0 -0 -1.49679e-05)
(0 -0 -1.49192e-06)
(0 -0 4.80953e-06)
(0 -0 7.63517e-06)
(0 -0 8.85483e-06)
(0 -0 9.36092e-06)
(0 -0 9.56007e-06)
(0 -0 9.6309e-06)
(0 -0 9.64984e-06)
(0 -0 9.64926e-06)
(0 -0 9.64302e-06)
(0 -0 9.63739e-06)
(0 -0 9.6355e-06)
(0 -0 9.63918e-06)
(0 -0 9.64964e-06)
(0 -0 9.66789e-06)
(0 -0 9.69482e-06)
(0 -0 9.73133e-06)
(0 -0 9.77837e-06)
(0 -0 9.83691e-06)
(0 -0 9.90792e-06)
(0 -0 9.9923e-06)
(0 -0 1.00908e-05)
(0 -0 1.02042e-05)
(0 -0 1.0333e-05)
(0 -0 1.04777e-05)
(0 -0 1.06388e-05)
(0 -0 1.08166e-05)
(0 -0 1.10116e-05)
(0 -0 1.12238e-05)
(0 -0 1.14529e-05)
(0 -0 1.16978e-05)
(0 -0 1.19556e-05)
(0 -0 1.22211e-05)
(0 -0 1.24845e-05)
(0 -0 1.27307e-05)
(0 -0 1.29376e-05)
(0 -0 1.30764e-05)
(0 -0 1.3116e-05)
(0 -0 0.000448189)
(0 -0 0.00111778)
(0 -0 0.00238687)
(0 -0 0.00322048)
(0 -0 0.00288247)
(0 -0 0.00161413)
(0 -0 0.000184785)
(0 -0 -0.000806277)
(0 -0 -0.00120038)
(0 -0 -0.00115015)
(0 -0 -0.000890642)
(0 -0 -0.000598855)
(0 -0 -0.000361421)
(0 -0 -0.000198921)
(0 -0 -9.99831e-05)
(0 -0 -4.48019e-05)
(0 -0 -1.60879e-05)
(0 -0 -1.96437e-06)
(0 -0 4.67163e-06)
(0 -0 7.67974e-06)
(0 -0 9.01069e-06)
(0 -0 9.59538e-06)
(0 -0 9.85805e-06)
(0 -0 9.98514e-06)
(0 -0 1.00565e-05)
(0 -0 1.01061e-05)
(0 -0 1.01485e-05)
(0 -0 1.01902e-05)
(0 -0 1.02347e-05)
(0 -0 1.02839e-05)
(0 -0 1.03391e-05)
(0 -0 1.04014e-05)
(0 -0 1.0472e-05)
(0 -0 1.05517e-05)
(0 -0 1.06416e-05)
(0 -0 1.07428e-05)
(0 -0 1.08564e-05)
(0 -0 1.09833e-05)
(0 -0 1.11243e-05)
(0 -0 1.12801e-05)
(0 -0 1.14514e-05)
(0 -0 1.16388e-05)
(0 -0 1.18425e-05)
(0 -0 1.20632e-05)
(0 -0 1.2301e-05)
(0 -0 1.25561e-05)
(0 -0 1.28282e-05)
(0 -0 1.3116e-05)
(0 -0 1.34167e-05)
(0 -0 1.37251e-05)
(0 -0 1.40317e-05)
(0 -0 1.43217e-05)
(0 -0 1.45736e-05)
(0 -0 1.476e-05)
(0 -0 1.48518e-05)
(0 -0 0.000451756)
(0 -0 0.00115071)
(0 -0 0.00246982)
(0 -0 0.00332944)
(0 -0 0.0029676)
(0 -0 0.00164137)
(0 -0 0.000154091)
(0 -0 -0.000871818)
(0 -0 -0.00127416)
(0 -0 -0.00121431)
(0 -0 -0.000938257)
(0 -0 -0.00063045)
(0 -0 -0.000380751)
(0 -0 -0.000210115)
(0 -0 -0.000106297)
(0 -0 -4.83979e-05)
(0 -0 -1.82461e-05)
(0 -0 -3.38107e-06)
(0 -0 3.64164e-06)
(0 -0 6.8648e-06)
(0 -0 8.33079e-06)
(0 -0 9.01405e-06)
(0 -0 9.35863e-06)
(0 -0 9.55971e-06)
(0 -0 9.70101e-06)
(0 -0 9.81814e-06)
(0 -0 9.92649e-06)
(0 -0 1.00331e-05)
(0 -0 1.01416e-05)
(0 -0 1.02541e-05)
(0 -0 1.03722e-05)
(0 -0 1.04971e-05)
(0 -0 1.06301e-05)
(0 -0 1.07722e-05)
(0 -0 1.09248e-05)
(0 -0 1.10889e-05)
(0 -0 1.12657e-05)
(0 -0 1.14564e-05)
(0 -0 1.16617e-05)
(0 -0 1.18825e-05)
(0 -0 1.21195e-05)
(0 -0 1.23732e-05)
(0 -0 1.26442e-05)
(0 -0 1.29329e-05)
(0 -0 1.32396e-05)
(0 -0 1.35645e-05)
(0 -0 1.39073e-05)
(0 -0 1.42666e-05)
(0 -0 1.46398e-05)
(0 -0 1.50217e-05)
(0 -0 1.5403e-05)
(0 -0 1.57695e-05)
(0 -0 1.61003e-05)
(0 -0 1.63692e-05)
(0 -0 1.6549e-05)
(0 -0 0.000455284)
(0 -0 0.00118685)
(0 -0 0.00255835)
(0 -0 0.00344089)
(0 -0 0.00304702)
(0 -0 0.00165405)
(0 -0 0.000103415)
(0 -0 -0.000958067)
(0 -0 -0.00136589)
(0 -0 -0.0012922)
(0 -0 -0.00099549)
(0 -0 -0.000668454)
(0 -0 -0.000404308)
(0 -0 -0.0002242)
(0 -0 -0.000114747)
(0 -0 -5.37288e-05)
(0 -0 -2.19344e-05)
(0 -0 -6.22501e-06)
(0 -0 1.2377e-06)
(0 -0 4.70635e-06)
(0 -0 6.32793e-06)
(0 -0 7.12635e-06)
(0 -0 7.56804e-06)
(0 -0 7.85805e-06)
(0 -0 8.08433e-06)
(0 -0 8.28437e-06)
(0 -0 8.47444e-06)
(0 -0 8.66207e-06)
(0 -0 8.85121e-06)
(0 -0 9.04425e-06)
(0 -0 9.24299e-06)
(0 -0 9.44891e-06)
(0 -0 9.66341e-06)
(0 -0 9.88786e-06)
(0 -0 1.01236e-05)
(0 -0 1.0372e-05)
(0 -0 1.06344e-05)
(0 -0 1.09118e-05)
(0 -0 1.12055e-05)
(0 -0 1.15161e-05)
(0 -0 1.18446e-05)
(0 -0 1.21916e-05)
(0 -0 1.25578e-05)
(0 -0 1.29436e-05)
(0 -0 1.33494e-05)
(0 -0 1.37755e-05)
(0 -0 1.42215e-05)
(0 -0 1.46863e-05)
(0 -0 1.51672e-05)
(0 -0 1.56592e-05)
(0 -0 1.61534e-05)
(0 -0 1.66359e-05)
(0 -0 1.70867e-05)
(0 -0 1.7481e-05)
(0 -0 1.77933e-05)
(0 -0 0.000458869)
(0 -0 0.0012266)
(0 -0 0.00265237)
(0 -0 0.00355305)
(0 -0 0.00311684)
(0 -0 0.00164678)
(0 -0 2.70103e-05)
(0 -0 -0.00107014)
(0 -0 -0.00147956)
(0 -0 -0.00138667)
(0 -0 -0.00106427)
(0 -0 -0.000714144)
(0 -0 -0.000432976)
(0 -0 -0.000241839)
(0 -0 -0.000125884)
(0 -0 -6.12946e-05)
(0 -0 -2.76351e-05)
(0 -0 -1.09764e-05)
(0 -0 -3.02509e-06)
(0 -0 7.12202e-07)
(0 -0 2.50197e-06)
(0 -0 3.42433e-06)
(0 -0 3.97102e-06)
(0 -0 4.35806e-06)
(0 -0 4.67812e-06)
(0 -0 4.97068e-06)
(0 -0 5.25296e-06)
(0 -0 5.53302e-06)
(0 -0 5.81512e-06)
(0 -0 6.102e-06)
(0 -0 6.39568e-06)
(0 -0 6.69792e-06)
(0 -0 7.01036e-06)
(0 -0 7.33458e-06)
(0 -0 7.67216e-06)
(0 -0 8.02461e-06)
(0 -0 8.3934e-06)
(0 -0 8.77984e-06)
(0 -0 9.18514e-06)
(0 -0 9.61033e-06)
(0 -0 1.00564e-05)
(0 -0 1.05241e-05)
(0 -0 1.10142e-05)
(0 -0 1.15274e-05)
(0 -0 1.20642e-05)
(0 -0 1.26248e-05)
(0 -0 1.32092e-05)
(0 -0 1.38163e-05)
(0 -0 1.44436e-05)
(0 -0 1.50862e-05)
(0 -0 1.57356e-05)
(0 -0 1.63784e-05)
(0 -0 1.69957e-05)
(0 -0 1.75638e-05)
(0 -0 1.80594e-05)
(0 -0 0.000462604)
(0 -0 0.00127022)
(0 -0 0.00275146)
(0 -0 0.0036639)
(0 -0 0.00317326)
(0 -0 0.00161466)
(0 -0 -8.00709e-05)
(0 -0 -0.00121228)
(0 -0 -0.00161839)
(0 -0 -0.00149992)
(0 -0 -0.00114602)
(0 -0 -0.000768454)
(0 -0 -0.000467383)
(0 -0 -0.000263501)
(0 -0 -0.000140104)
(0 -0 -7.14648e-05)
(0 -0 -3.5714e-05)
(0 -0 -1.80077e-05)
(0 -0 -9.53061e-06)
(0 -0 -5.51419e-06)
(0 -0 -3.55636e-06)
(0 -0 -2.51352e-06)
(0 -0 -1.86557e-06)
(0 -0 -1.38427e-06)
(0 -0 -9.71863e-07)
(0 -0 -5.86745e-07)
(0 -0 -2.10755e-07)
(0 -0 1.64662e-07)
(0 -0 5.44138e-07)
(0 -0 9.30675e-07)
(0 -0 1.32659e-06)
(0 -0 1.73389e-06)
(0 -0 2.15446e-06)
(0 -0 2.59014e-06)
(0 -0 3.04272e-06)
(0 -0 3.51393e-06)
(0 -0 4.0054e-06)
(0 -0 4.51865e-06)
(0 -0 5.05505e-06)
(0 -0 5.61585e-06)
(0 -0 6.20218e-06)
(0 -0 6.81506e-06)
(0 -0 7.45545e-06)
(0 -0 8.12421e-06)
(0 -0 8.82206e-06)
(0 -0 9.54946e-06)
(0 -0 1.03064e-05)
(0 -0 1.1092e-05)
(0 -0 1.19041e-05)
(0 -0 1.27379e-05)
(0 -0 1.35855e-05)
(0 -0 1.44342e-05)
(0 -0 1.52659e-05)
(0 -0 1.60585e-05)
(0 -0 1.67909e-05)
(0 -0 0.000466568)
(0 -0 0.00131768)
(0 -0 0.00285489)
(0 -0 0.0037715)
(0 -0 0.00321328)
(0 -0 0.00155428)
(0 -0 -0.000220949)
(0 -0 -0.00138689)
(0 -0 -0.00178401)
(0 -0 -0.00163296)
(0 -0 -0.00124135)
(0 -0 -0.000831704)
(0 -0 -0.000507721)
(0 -0 -0.000289321)
(0 -0 -0.000157523)
(0 -0 -8.43596e-05)
(0 -0 -4.63042e-05)
(0 -0 -2.74689e-05)
(0 -0 -1.8446e-05)
(0 -0 -1.41571e-05)
(0 -0 -1.20477e-05)
(0 -0 -1.09035e-05)
(0 -0 -1.01728e-05)
(0 -0 -9.61402e-06)
(0 -0 -9.12402e-06)
(0 -0 -8.65898e-06)
(0 -0 -8.19986e-06)
(0 -0 -7.73765e-06)
(0 -0 -7.26743e-06)
(0 -0 -6.78595e-06)
(0 -0 -6.29065e-06)
(0 -0 -5.77927e-06)
(0 -0 -5.24969e-06)
(0 -0 -4.69985e-06)
(0 -0 -4.12773e-06)
(0 -0 -3.5314e-06)
(0 -0 -2.909e-06)
(0 -0 -2.25884e-06)
(0 -0 -1.5793e-06)
(0 -0 -8.68929e-07)
(0 -0 -1.26351e-07)
(0 -0 6.49728e-07)
(0 -0 1.46052e-06)
(0 -0 2.30714e-06)
(0 -0 3.19056e-06)
(0 -0 4.11148e-06)
(0 -0 5.07013e-06)
(0 -0 6.06592e-06)
(0 -0 7.09683e-06)
(0 -0 8.15865e-06)
(0 -0 9.24378e-06)
(0 -0 1.03403e-05)
(0 -0 1.14314e-05)
(0 -0 1.24966e-05)
(0 -0 1.35168e-05)
(0 -0 0.000470803)
(0 -0 0.00136868)
(0 -0 0.00296161)
(0 -0 0.00387427)
(0 -0 0.00323533)
(0 -0 0.00146463)
(0 -0 -0.000395951)
(0 -0 -0.00159374)
(0 -0 -0.00197586)
(0 -0 -0.00178515)
(0 -0 -0.00134963)
(0 -0 -0.000903395)
(0 -0 -0.000553585)
(0 -0 -0.000318971)
(0 -0 -0.000177875)
(0 -0 -9.97544e-05)
(0 -0 -5.92129e-05)
(0 -0 -3.91923e-05)
(0 -0 -2.96253e-05)
(0 -0 -2.50897e-05)
(0 -0 -2.28631e-05)
(0 -0 -2.16532e-05)
(0 -0 -2.08741e-05)
(0 -0 -2.027e-05)
(0 -0 -1.97317e-05)
(0 -0 -1.92134e-05)
(0 -0 -1.86953e-05)
(0 -0 -1.81679e-05)
(0 -0 -1.76262e-05)
(0 -0 -1.70668e-05)
(0 -0 -1.64868e-05)
(0 -0 -1.5884e-05)
(0 -0 -1.52559e-05)
(0 -0 -1.46004e-05)
(0 -0 -1.39151e-05)
(0 -0 -1.31979e-05)
(0 -0 -1.24468e-05)
(0 -0 -1.16599e-05)
(0 -0 -1.08353e-05)
(0 -0 -9.97136e-06)
(0 -0 -9.06631e-06)
(0 -0 -8.11861e-06)
(0 -0 -7.12672e-06)
(0 -0 -6.08921e-06)
(0 -0 -5.00478e-06)
(0 -0 -3.87245e-06)
(0 -0 -2.69169e-06)
(0 -0 -1.4628e-06)
(0 -0 -1.87429e-07)
(0 -0 1.13061e-06)
(0 -0 2.48436e-06)
(0 -0 3.86274e-06)
(0 -0 5.2502e-06)
(0 -0 6.62792e-06)
(0 -0 7.97973e-06)
(0 -0 0.000475268)
(0 -0 0.00142251)
(0 -0 0.00307036)
(0 -0 0.0039713)
(0 -0 0.00323984)
(0 -0 0.0013477)
(0 -0 -0.000601933)
(0 -0 -0.00182932)
(0 -0 -0.00219074)
(0 -0 -0.00195389)
(0 -0 -0.00146892)
(0 -0 -0.000982094)
(0 -0 -0.000603913)
(0 -0 -0.000351626)
(0 -0 -0.000200472)
(0 -0 -0.000117044)
(0 -0 -7.38835e-05)
(0 -0 -5.26527e-05)
(0 -0 -4.25656e-05)
(0 -0 -3.78273e-05)
(0 -0 -3.55338e-05)
(0 -0 -3.43088e-05)
(0 -0 -3.353e-05)
(0 -0 -3.2926e-05)
(0 -0 -3.2382e-05)
(0 -0 -3.185e-05)
(0 -0 -3.13095e-05)
(0 -0 -3.0751e-05)
(0 -0 -3.01692e-05)
(0 -0 -2.95608e-05)
(0 -0 -2.89228e-05)
(0 -0 -2.82528e-05)
(0 -0 -2.75484e-05)
(0 -0 -2.6807e-05)
(0 -0 -2.60263e-05)
(0 -0 -2.5204e-05)
(0 -0 -2.43379e-05)
(0 -0 -2.34257e-05)
(0 -0 -2.24656e-05)
(0 -0 -2.14553e-05)
(0 -0 -2.03929e-05)
(0 -0 -1.92765e-05)
(0 -0 -1.81042e-05)
(0 -0 -1.68742e-05)
(0 -0 -1.55849e-05)
(0 -0 -1.42348e-05)
(0 -0 -1.28232e-05)
(0 -0 -1.135e-05)
(0 -0 -9.81636e-06)
(0 -0 -8.22572e-06)
(0 -0 -6.58431e-06)
(0 -0 -4.90224e-06)
(0 -0 -3.1938e-06)
(0 -0 -1.47526e-06)
(0 -0 2.37289e-07)
(0 -0 0.000479711)
(0 -0 0.001477)
(0 -0 0.00317745)
(0 -0 0.0040607)
(0 -0 0.00322983)
(0 -0 0.00121194)
(0 -0 -0.000827051)
(0 -0 -0.0020812)
(0 -0 -0.00241775)
(0 -0 -0.00213073)
(0 -0 -0.00159318)
(0 -0 -0.00106368)
(0 -0 -0.00065588)
(0 -0 -0.000385259)
(0 -0 -0.00022374)
(0 -0 -0.000134894)
(0 -0 -8.91044e-05)
(0 -0 -6.6699e-05)
(0 -0 -5.61466e-05)
(0 -0 -5.12663e-05)
(0 -0 -4.89666e-05)
(0 -0 -4.77854e-05)
(0 -0 -4.70625e-05)
(0 -0 -4.65115e-05)
(0 -0 -4.60116e-05)
(0 -0 -4.5513e-05)
(0 -0 -4.49946e-05)
(0 -0 -4.44468e-05)
(0 -0 -4.38647e-05)
(0 -0 -4.32448e-05)
(0 -0 -4.25843e-05)
(0 -0 -4.18807e-05)
(0 -0 -4.11316e-05)
(0 -0 -4.03343e-05)
(0 -0 -3.94864e-05)
(0 -0 -3.85854e-05)
(0 -0 -3.7629e-05)
(0 -0 -3.66147e-05)
(0 -0 -3.55403e-05)
(0 -0 -3.44034e-05)
(0 -0 -3.32017e-05)
(0 -0 -3.19329e-05)
(0 -0 -3.05947e-05)
(0 -0 -2.91849e-05)
(0 -0 -2.77015e-05)
(0 -0 -2.61427e-05)
(0 -0 -2.45075e-05)
(0 -0 -2.27952e-05)
(0 -0 -2.10068e-05)
(0 -0 -1.9145e-05)
(0 -0 -1.72153e-05)
(0 -0 -1.5227e-05)
(0 -0 -1.31925e-05)
(0 -0 -1.11278e-05)
(0 -0 -9.04239e-06)
(0 -0 0.000484054)
(0 -0 0.00153139)
(0 -0 0.00328244)
(0 -0 0.00414407)
(0 -0 0.00320989)
(0 -0 0.00106429)
(0 -0 -0.00106354)
(0 -0 -0.00234223)
(0 -0 -0.00265111)
(0 -0 -0.00231145)
(0 -0 -0.00171948)
(0 -0 -0.0011461)
(0 -0 -0.00070801)
(0 -0 -0.000418709)
(0 -0 -0.000246682)
(0 -0 -0.000152384)
(0 -0 -0.000103987)
(0 -0 -8.04556e-05)
(0 -0 -6.94964e-05)
(0 -0 -6.45356e-05)
(0 -0 -6.2291e-05)
(0 -0 -6.12127e-05)
(0 -0 -6.06027e-05)
(0 -0 -6.0159e-05)
(0 -0 -5.97552e-05)
(0 -0 -5.93395e-05)
(0 -0 -5.88905e-05)
(0 -0 -5.83989e-05)
(0 -0 -5.78598e-05)
(0 -0 -5.727e-05)
(0 -0 -5.6627e-05)
(0 -0 -5.59283e-05)
(0 -0 -5.51714e-05)
(0 -0 -5.43539e-05)
(0 -0 -5.3473e-05)
(0 -0 -5.25265e-05)
(0 -0 -5.15116e-05)
(0 -0 -5.04258e-05)