/*--------------------------------*- C++ -*----------------------------------*\
| =========                 |                                                 |
| \\      /  F ield         | OpenFOAM: The Open Source CFD Toolbox           |
|  \\    /   O peration     | Version:  2412                                  |
|   \\  /    A nd           | Website:  www.openfoam.com                      |
|    \\/     M anipulation  |                                                 |
\*---------------------------------------------------------------------------*/
FoamFile
{
    version     2.0;
    format      ascii;
    arch        "LSB;label=32;scalar=64";
    class       volScalarField;
    location    "23";
    object      p;
}
// * * * * * * * * * * * * * * * * * * * * * * * * * * * * * * * * * * * * * //

dimensions      [0 2 -2 0 0 0 0];

internalField   nonuniform List<scalar> 
63420
(
0.000927328
0.000927588
0.000928416
0.000929695
0.000931407
0.000933541
0.000936078
0.000939005
0.000942311
0.000945986
0.000950021
0.000954409
0.000959143
0.000964217
0.000969625
0.000975363
0.000981427
0.000987813
0.000994519
0.00100154
0.00100889
0.00101655
0.00102454
0.00103285
0.00104148
0.00105044
0.00105974
0.00106936
0.00107933
0.00108963
0.00110028
0.00111128
0.00112262
0.00113432
0.00114637
0.00115879
0.00117156
0.00118471
0.00119823
0.00121212
0.00122639
0.00124104
0.00125608
0.00127151
0.00128734
0.00130357
0.0013202
0.00133724
0.00135469
0.00137256
0.00139085
0.00140956
0.00142871
0.0014483
0.00146832
0.000927268
0.000927528
0.000928356
0.000929633
0.000931345
0.000933477
0.000936012
0.000938937
0.000942241
0.000945913
0.000949945
0.000954329
0.000959059
0.000964129
0.000969533
0.000975266
0.000981325
0.000987705
0.000994406
0.00100142
0.00100876
0.00101642
0.0010244
0.0010327
0.00104132
0.00105027
0.00105956
0.00106918
0.00107913
0.00108942
0.00110006
0.00111104
0.00112237
0.00113405
0.00114609
0.00115849
0.00117125
0.00118437
0.00119787
0.00121174
0.00122598
0.00124061
0.00125563
0.00127103
0.00128683
0.00130303
0.00131963
0.00133663
0.00135405
0.00137188
0.00139013
0.0014088
0.0014279
0.00144743
0.00146741
0.000927148
0.000927408
0.000928234
0.00092951
0.000931219
0.000933348
0.000935879
0.0009388
0.000942099
0.000945766
0.000949792
0.000954169
0.000958892
0.000963954
0.000969349
0.000975073
0.000981121
0.00098749
0.000994179
0.00100118
0.00100851
0.00101615
0.00102411
0.0010324
0.00104101
0.00104994
0.0010592
0.0010688
0.00107873
0.001089
0.00109961
0.00111057
0.00112187
0.00113352
0.00114552
0.00115789
0.00117061
0.0011837
0.00119715
0.00121098
0.00122518
0.00123976
0.00125473
0.00127008
0.00128582
0.00130195
0.00131849
0.00133542
0.00135276
0.00137052
0.00138868
0.00140727
0.00142628
0.00144571
0.00146558
0.000926968
0.000927228
0.000928052
0.000929325
0.000931031
0.000933155
0.000935681
0.000938596
0.000941887
0.000945545
0.000949562
0.000953929
0.000958641
0.000963691
0.000969073
0.000974782
0.000980815
0.000987168
0.000993839
0.00100083
0.00100813
0.00101575
0.00102369
0.00103195
0.00104053
0.00104944
0.00105867
0.00106824
0.00107814
0.00108837
0.00109894
0.00110986
0.00112111
0.00113272
0.00114468
0.00115699
0.00116966
0.00118269
0.00119608
0.00120985
0.00122398
0.00123849
0.00125337
0.00126864
0.0012843
0.00130034
0.00131678
0.00133361
0.00135084
0.00136848
0.00138653
0.00140498
0.00142385
0.00144314
0.00146285
0.000926729
0.000926988
0.00092781
0.000929079
0.00093078
0.000932898
0.000935417
0.000938323
0.000941604
0.000945252
0.000949256
0.00095361
0.000958307
0.00096334
0.000968705
0.000974395
0.000980408
0.000986739
0.000993386
0.00100035
0.00100763
0.00101522
0.00102313
0.00103135
0.0010399
0.00104877
0.00105797
0.00106749
0.00107734
0.00108753
0.00109805
0.00110891
0.00112011
0.00113166
0.00114355
0.0011558
0.00116839
0.00118135
0.00119466
0.00120834
0.00122238
0.00123679
0.00125158
0.00126674
0.00128228
0.0012982
0.00131451
0.00133121
0.0013483
0.00136578
0.00138367
0.00140195
0.00142064
0.00143973
0.00145924
0.00092643
0.000926688
0.000927507
0.000928772
0.000930466
0.000932577
0.000935087
0.000937982
0.000941252
0.000944885
0.000948875
0.000953212
0.00095789
0.000962903
0.000968246
0.000973913
0.0009799
0.000986204
0.000992822
0.000999753
0.001007
0.00101455
0.00102242
0.00103061
0.00103911
0.00104794
0.00105708
0.00106656
0.00107635
0.00108648
0.00109694
0.00110773
0.00111887
0.00113034
0.00114215
0.00115431
0.00116682
0.00117968
0.00119289
0.00120646
0.00122039
0.00123468
0.00124934
0.00126437
0.00127977
0.00129554
0.00131169
0.00132822
0.00134513
0.00136243
0.00138011
0.00139818
0.00141665
0.0014355
0.00145475
0.000926071
0.000926329
0.000927144
0.000928404
0.000930091
0.000932193
0.000934691
0.000937574
0.000940829
0.000944446
0.000948417
0.000952734
0.00095739
0.000962379
0.000967696
0.000973335
0.000979292
0.000985563
0.000992146
0.000999039
0.00100624
0.00101376
0.00102158
0.00102972
0.00103817
0.00104694
0.00105603
0.00106544
0.00107517
0.00108523
0.00109561
0.00110633
0.00111737
0.00112876
0.00114048
0.00115253
0.00116494
0.00117768
0.00119078
0.00120422
0.00121802
0.00123217
0.00124667
0.00126154
0.00127677
0.00129237
0.00130833
0.00132466
0.00134136
0.00135843
0.00137588
0.0013937
0.0014119
0.00143047
0.00144941
0.00148884
0.00151009
0.00153224
0.00155535
0.00157948
0.00160469
0.00163103
0.00165859
0.00168744
0.00171765
0.00174933
0.00178255
0.00181744
0.0018541
0.00189264
0.00193322
0.00197597
0.00202106
0.00206865
0.00211893
0.00217212
0.00222845
0.00228816
0.00235153
0.00241886
0.0024905
0.00256681
0.0026482
0.00273511
0.00282805
0.00292756
0.00303423
0.00314873
0.00327176
0.00340408
0.00354649
0.00369981
0.00386481
0.00404216
0.00423228
0.00443516
0.00465005
0.00487521
0.00510764
0.00534344
0.00557867
0.0058097
0.00604293
0.00634364
0.00680139
0.00148791
0.00150915
0.0015313
0.00155441
0.00157854
0.00160374
0.00163008
0.00165763
0.00168648
0.00171669
0.00174835
0.00178157
0.00181645
0.00185309
0.00189163
0.00193218
0.00197491
0.00201997
0.00206752
0.00211776
0.00217089
0.00222715
0.00228677
0.00235003
0.00241723
0.00248871
0.00256481
0.00264594
0.00273254
0.00282508
0.00292409
0.00303014
0.00314385
0.00326587
0.00339691
0.00353768
0.00368887
0.00385113
0.00402491
0.00421037
0.00440714
0.00461406
0.0048288
0.00504767
0.00526589
0.00547864
0.00568175
0.0058808
0.00613682
0.00653248
0.00148603
0.00150727
0.00152942
0.00155252
0.00157664
0.00160184
0.00162817
0.00165572
0.00168455
0.00171475
0.00174641
0.00177961
0.00181447
0.00185109
0.00188959
0.00193011
0.00197279
0.00201779
0.00206527
0.00211542
0.00216844
0.00222455
0.002284
0.00234705
0.00241399
0.00248514
0.00256084
0.00264147
0.00272744
0.00281921
0.00291724
0.00302206
0.00313421
0.00325426
0.00338277
0.00352029
0.0036673
0.00382411
0.0039908
0.00416698
0.00435158
0.00454251
0.0047363
0.00492781
0.00511055
0.00527784
0.00542469
0.00555517
0.00571783
0.00600174
0.00148322
0.00150445
0.00152659
0.00154969
0.0015738
0.00159898
0.0016253
0.00165284
0.00168166
0.00171184
0.00174347
0.00177665
0.00181147
0.00184805
0.0018865
0.00192696
0.00196956
0.00201446
0.00206183
0.00211183
0.00216468
0.00222057
0.00227975
0.00234247
0.00240901
0.00247965
0.00255473
0.00263459
0.00271961
0.00281018
0.00290672
0.00300967
0.00311946
0.00323651
0.00336121
0.00349385
0.00363457
0.00378323
0.00393932
0.00410165
0.0042681
0.00443521
0.00459777
0.0047485
0.00487832
0.0049777
0.0050403
0.00507136
0.00510409
0.00519116
0.00147949
0.00150072
0.00152285
0.00154593
0.00157003
0.00159521
0.00162152
0.00164905
0.00167785
0.00170801
0.00173963
0.00177278
0.00180756
0.0018441
0.0018825
0.00192288
0.0019654
0.00201019
0.00205741
0.00210723
0.00215986
0.00221548
0.00227432
0.00233661
0.00240261
0.0024726
0.00254686
0.0026257
0.00270945
0.00279843
0.00289298
0.00299342
0.00310004
0.00321306
0.00333261
0.00345864
0.00359082
0.00372844
0.00387015
0.0040137
0.0041556
0.00429057
0.00441115
0.00450732
0.00456675
0.00457614
0.00452646
0.00442586
0.00429642
0.00407938
0.00147486
0.00149609
0.00151823
0.00154132
0.00156544
0.00159064
0.00161698
0.00164453
0.00167336
0.00170356
0.0017352
0.00176839
0.00180321
0.00183978
0.00187821
0.00191862
0.00196115
0.00200594
0.00205315
0.00210294
0.0021555
0.00221101
0.0022697
0.00233177
0.00239747
0.00246705
0.00254076
0.00261886
0.00270164
0.00278935
0.00288222
0.00298046
0.00308417
0.00319335
0.00330778
0.00342696
0.00354991
0.00367501
0.00379965
0.00391988
0.0040299
0.00412146
0.00418336
0.00420118
0.00415761
0.0040343
0.00381776
0.00351697
0.00314581
0.00251846
0.00146931
0.00149047
0.00151256
0.0015356
0.00155967
0.00158482
0.00161111
0.00163862
0.0016674
0.00169756
0.00172915
0.00176229
0.00179706
0.00183358
0.00187194
0.00191229
0.00195474
0.00199945
0.00204655
0.00209622
0.00214862
0.00220395
0.00226239
0.00232417
0.0023895
0.00245859
0.0025317
0.00260903
0.00269082
0.00277725
0.00286847
0.00296454
0.00306543
0.00317087
0.0032803
0.00339273
0.00350644
0.00361873
0.00372544
0.00382035
0.00389452
0.00393546
0.00392662
0.00384733
0.00367367
0.00337996
0.00294929
0.0023948
0.00168018
0.000517202
-0.00349678
-0.00356616
-0.00358781
-0.00357556
-0.00354126
-0.00348783
-0.00341675
-0.00332948
-0.00323048
-0.00311861
-0.00299579
-0.0028638
-0.00272413
-0.00257817
-0.00242736
-0.00227324
-0.00211726
-0.00196085
-0.0018053
-0.00165187
-0.00150166
-0.00135566
-0.00121478
-0.00107987
-0.000951604
-0.000830441
-0.00071672
-0.000610708
-0.000512564
-0.000422328
-0.000339937
-0.000265247
-0.000198034
-0.000138012
-8.48414e-05
-3.81413e-05
2.49977e-06
3.75136e-05
6.7343e-05
9.24338e-05
0.000113227
0.000130154
0.000143628
0.000154046
0.000161777
0.00016717
0.000170542
0.000172187
0.000172367
0.000171321
-0.00357128
-0.00361908
-0.00362778
-0.00360782
-0.00356839
-0.00351158
-0.00343851
-0.00335075
-0.00325044
-0.00313807
-0.00301514
-0.00288327
-0.00274372
-0.00259785
-0.00244707
-0.00229287
-0.00213677
-0.00198013
-0.00182427
-0.00167043
-0.00151974
-0.00137317
-0.00123165
-0.00109604
-0.000967036
-0.00084511
-0.000730604
-0.000623796
-0.000524855
-0.000433828
-0.000350664
-0.000275221
-0.000207282
-0.000146565
-9.27328e-05
-4.54063e-05
-4.17543e-06
3.13913e-05
6.1737e-05
8.73079e-05
0.000108546
0.000125885
0.000139739
0.000150505
0.000158558
0.000164245
0.000167888
0.00016978
0.000170186
0.000169351
-0.00371945
-0.00372333
-0.00370633
-0.00367106
-0.0036212
-0.00355755
-0.00348023
-0.00339061
-0.00328848
-0.00317534
-0.00305229
-0.00292085
-0.00278087
-0.00263551
-0.0024849
-0.00233067
-0.00217439
-0.00201739
-0.00186099
-0.00170642
-0.00155483
-0.00140721
-0.00126449
-0.00112755
-0.000997123
-0.000873739
-0.000757729
-0.000649386
-0.000548903
-0.000456347
-0.000371681
-0.000294777
-0.000225426
-0.000163354
-0.000108231
-5.96815e-05
-1.72977e-05
1.93506e-05
5.07068e-05
7.72183e-05
9.93295e-05
0.000117475
0.000132073
0.000143525
0.000152208
0.000158473
0.000162646
0.000165025
0.000165875
0.000165454
-0.00394712
-0.00387153
-0.00382075
-0.00376237
-0.00369672
-0.00362294
-0.00353885
-0.00344631
-0.00334199
-0.00322775
-0.00310393
-0.00297274
-0.00283385
-0.00268862
-0.00253822
-0.00238411
-0.0022277
-0.00207029
-0.0019132
-0.00175768
-0.00160489
-0.00145585
-0.00131148
-0.0011727
-0.0010403
-0.00091485
-0.000796726
-0.000686218
-0.000583553
-0.000488827
-0.000402025
-0.000323037
-0.00025167
-0.000187661
-0.000130689
-8.03848e-05
-3.63452e-05
1.85852e-06
3.46693e-05
6.2536e-05
8.59054e-05
0.000105215
0.000120889
0.000133332
0.000142925
0.000150026
0.000154965
0.000158046
0.00015954
0.00015972
-0.00423453
-0.0040647
-0.00396839
-0.00387664
-0.0037897
-0.00370212
-0.00360768
-0.00351207
-0.0034053
-0.00329012
-0.00316665
-0.00303545
-0.00289704
-0.00275235
-0.00260251
-0.00244878
-0.00229243
-0.00213476
-0.00197707
-0.00182062
-0.00166657
-0.00151599
-0.00136982
-0.00122895
-0.00109427
-0.000966401
-0.000845761
-0.000732667
-0.000627375
-0.000530017
-0.000440607
-0.000359059
-0.0002852
-0.000218785
-0.000159505
-0.000107001
-6.08754e-05
-2.07046e-05
1.3953e-05
4.35465e-05
6.85246e-05
8.9328e-05
0.000106385
0.000120103
0.000130872
0.000139054
0.000144985
0.000148975
0.000151305
0.000152264
-0.00453727
-0.0043035
-0.00415088
-0.00401808
-0.00390107
-0.00379293
-0.00369183
-0.00358307
-0.00347093
-0.00335371
-0.0032298
-0.00309906
-0.00296175
-0.0028185
-0.00267015
-0.00251773
-0.00236241
-0.0022054
-0.00204794
-0.00189128
-0.00173661
-0.00158499
-0.0014374
-0.00129474
-0.00115791
-0.00102763
-0.000904414
-0.000788584
-0.000680444
-0.000580173
-0.000487823
-0.000403342
-0.000326588
-0.00025734
-0.000195311
-0.000140158
-9.14966e-05
-4.89126e-05
-1.19704e-05
1.97755e-05
4.67724e-05
6.94621e-05
8.82742e-05
0.000103621
0.000115896
0.000125465
0.000132672
0.000137831
0.000141237
0.000143188
-0.00482789
-0.00460262
-0.00439659
-0.0042118
-0.00405175
-0.00391053
-0.00379186
-0.00367219
-0.00355318
-0.0034318
-0.003306
-0.00317496
-0.00303835
-0.0028963
-0.00274931
-0.00259816
-0.00244383
-0.00228742
-0.00213009
-0.00197305
-0.00181749
-0.00166453
-0.00151516
-0.0013703
-0.00123088
-0.00109771
-0.000971362
-0.000852262
-0.000740736
-0.000637019
-0.000541207
-0.000453289
-0.000373158
-0.000300622
-0.000235417
-0.000177221
-0.000125663
-8.03382e-05
-4.08173e-05
-6.65725e-06
2.25895e-05
4.7367e-05
6.81092e-05
8.52345e-05
9.91412e-05
0.000110205
0.000118775
0.000125175
0.00012971
0.000132677
0.000169256
0.00016626
0.000162505
0.000158142
0.000153284
0.000148032
0.000142482
0.000136718
0.000130815
0.000124838
0.000118844
0.000112883
0.000106996
0.000101218
9.55771e-05
9.00968e-05
8.47944e-05
7.96831e-05
7.47724e-05
7.00681e-05
6.55735e-05
6.12892e-05
5.72142e-05
5.33456e-05
4.96796e-05
4.62113e-05
4.2935e-05
3.98447e-05
3.69343e-05
3.41971e-05
3.16268e-05
2.92168e-05
2.69606e-05
2.48517e-05
2.28836e-05
2.10498e-05
1.93437e-05
1.77586e-05
1.6288e-05
1.49252e-05
1.3664e-05
1.24975e-05
1.14212e-05
1.04252e-05
9.50895e-06
8.6686e-06
7.89095e-06
7.17689e-06
6.52209e-06
5.92153e-06
5.3714e-06
4.86809e-06
4.40814e-06
3.98832e-06
3.60557e-06
3.25705e-06
2.94008e-06
2.65215e-06
2.3909e-06
2.15414e-06
1.93983e-06
1.74608e-06
1.57109e-06
1.41325e-06
1.271e-06
1.14297e-06
1.02784e-06
9.24413e-07
8.31608e-07
7.48395e-07
6.7384e-07
6.07109e-07
5.47438e-07
4.94102e-07
4.46485e-07
4.03998e-07
3.66103e-07
3.32334e-07
3.02292e-07
2.75486e-07
2.51824e-07
2.30458e-07
2.12092e-07
1.94739e-07
1.81196e-07
1.66057e-07
1.57983e-07
1.42056e-07
1.42243e-07
1.19943e-07
1.35123e-07
9.59483e-08
1.39278e-07
6.53738e-08
1.58202e-07
2.383e-08
1.94206e-07
-2.9792e-08
2.44604e-07
-8.91579e-08
2.9763e-07
-1.37964e-07
3.33043e-07
-1.54337e-07
3.31124e-07
-1.25123e-07
2.9117e-07
-6.56703e-08
2.48931e-07
-3.10596e-08
2.76954e-07
-1.03984e-07
4.58339e-07
-3.62464e-07
8.44808e-07
0.000167509
0.000164632
0.000160989
0.000156747
0.000152006
0.000146864
0.000141416
0.000135747
0.000129931
0.000124035
0.000118115
0.000112222
0.000106397
0.000100675
9.50861e-05
8.96525e-05
8.43925e-05
7.93197e-05
7.44439e-05
6.97713e-05
6.53053e-05
6.10471e-05
5.69956e-05
5.31484e-05
4.95018e-05
4.6051e-05
4.27906e-05
3.97148e-05
3.68174e-05
3.40921e-05
3.15325e-05
2.91323e-05
2.68848e-05
2.47839e-05
2.28229e-05
2.09955e-05
1.92952e-05
1.77152e-05
1.62492e-05
1.48906e-05
1.3633e-05
1.24698e-05
1.13965e-05
1.04032e-05
9.48932e-06
8.65111e-06
7.87538e-06
7.16304e-06
6.50978e-06
5.9106e-06
5.36172e-06
4.85952e-06
4.40056e-06
3.98162e-06
3.59967e-06
3.25185e-06
2.9355e-06
2.64813e-06
2.38737e-06
2.15105e-06
1.93713e-06
1.74371e-06
1.56903e-06
1.41145e-06
1.26944e-06
1.14161e-06
1.02666e-06
9.23393e-07
8.30726e-07
7.47632e-07
6.73181e-07
6.06542e-07
5.4695e-07
4.93682e-07
4.46126e-07
4.0369e-07
3.6584e-07
3.32109e-07
3.02099e-07
2.75322e-07
2.51684e-07
2.30339e-07
2.11991e-07
1.94653e-07
1.8112e-07
1.65994e-07
1.57927e-07
1.42012e-07
1.42201e-07
1.19914e-07
1.35089e-07
9.59327e-08
1.39247e-07
6.53683e-08
1.58171e-07
2.38343e-08
1.94173e-07
-2.97814e-08
2.44572e-07
-8.91481e-08
2.97603e-07
-1.37961e-07
3.33025e-07
-1.54345e-07
3.31114e-07
-1.25136e-07
2.91161e-07
-6.56799e-08
2.48907e-07
-3.10471e-08
2.76915e-07
-1.03966e-07
4.58358e-07
-3.62514e-07
8.45051e-07
0.000164034
0.000161395
0.00015798
0.000153979
0.000149469
0.000144544
0.000139299
0.000133818
0.000128177
0.00012244
0.000116668
0.000110908
0.000105206
9.95962e-05
9.41089e-05
8.87679e-05
8.35922e-05
7.85959e-05
7.37895e-05
6.91799e-05
6.4771e-05
6.05645e-05
5.656e-05
5.27553e-05
4.91472e-05
4.57314e-05
4.25027e-05
3.94557e-05
3.65844e-05
3.38827e-05
3.13445e-05
2.89636e-05
2.67337e-05
2.46485e-05
2.27018e-05
2.08872e-05
1.91983e-05
1.76286e-05
1.61718e-05
1.48214e-05
1.35712e-05
1.24147e-05
1.13472e-05
1.03592e-05
9.45012e-06
8.61616e-06
7.84427e-06
7.13537e-06
6.4852e-06
5.88879e-06
5.34238e-06
4.84239e-06
4.38542e-06
3.96825e-06
3.58787e-06
3.24146e-06
2.92636e-06
2.6401e-06
2.38032e-06
2.14487e-06
1.93173e-06
1.73899e-06
1.56491e-06
1.40786e-06
1.26632e-06
1.1389e-06
1.02431e-06
9.21355e-07
8.28959e-07
7.46104e-07
6.71863e-07
6.05406e-07
5.45971e-07
4.92843e-07
4.45407e-07
4.03071e-07
3.65315e-07
3.31657e-07
3.01717e-07
2.74996e-07
2.51402e-07
2.30104e-07
2.11785e-07
1.9448e-07
1.80969e-07
1.65868e-07
1.57812e-07
1.41927e-07
1.42113e-07
1.19857e-07
1.3502e-07
9.58984e-08
1.39183e-07
6.53578e-08
1.58107e-07
2.38411e-08
1.9411e-07
-2.97654e-08
2.44509e-07
-8.91313e-08
2.97553e-07
-1.37957e-07
3.32988e-07
-1.54358e-07
3.31094e-07
-1.2516e-07
2.91139e-07
-6.56943e-08
2.48857e-07
-3.10154e-08
2.76827e-07
-1.0392e-07
4.58386e-07
-3.62607e-07
8.45532e-07
0.000158873
0.000156593
0.000153526
0.000149882
0.000145714
0.00014111
0.000136163
0.00013096
0.000125575
0.000120074
0.000114518
0.000108957
0.000103436
9.79914e-05
9.26549e-05
8.74514e-05
8.24006e-05
7.75179e-05
7.28145e-05
6.82985e-05
6.39745e-05
5.98449e-05
5.59102e-05
5.21688e-05
4.86181e-05
4.52544e-05
4.20729e-05
3.90688e-05
3.62363e-05
3.35699e-05
3.10637e-05
2.87116e-05
2.65078e-05
2.44462e-05
2.25207e-05
2.07251e-05
1.90534e-05
1.74991e-05
1.6056e-05
1.47179e-05
1.34787e-05
1.23321e-05
1.12735e-05
1.02934e-05
9.39145e-06
8.56384e-06
7.79771e-06
7.09396e-06
6.4484e-06
5.85612e-06
5.31342e-06
4.81676e-06
4.36275e-06
3.94822e-06
3.5702e-06
3.2259e-06
2.91267e-06
2.62807e-06
2.36977e-06
2.13563e-06
1.92363e-06
1.73192e-06
1.55874e-06
1.40248e-06
1.26164e-06
1.13483e-06
1.02078e-06
9.18301e-07
8.26314e-07
7.43815e-07
6.69889e-07
6.03706e-07
5.44506e-07
4.91586e-07
4.44328e-07
4.02144e-07
3.64525e-07
3.30979e-07
3.01141e-07
2.74503e-07
2.50979e-07
2.29747e-07
2.11475e-07
1.94219e-07
1.80743e-07
1.65678e-07
1.57641e-07
1.41795e-07
1.41982e-07
1.19769e-07
1.34916e-07
9.58463e-08
1.39088e-07
6.53396e-08
1.58012e-07
2.38493e-08
1.94016e-07
-2.97425e-08
2.44415e-07
-8.91086e-08
2.97479e-07
-1.37953e-07
3.32939e-07
-1.54381e-07
3.31068e-07
-1.25201e-07
2.91112e-07
-6.57184e-08
2.48785e-07
-3.09719e-08
2.76703e-07
-1.03858e-07
4.58434e-07
-3.62752e-07
8.46243e-07
0.000152091
0.000150292
0.000147697
0.000144523
0.000140801
0.000136613
0.000132055
0.000127212
0.000122159
0.000116966
0.000111691
0.000106389
0.000101105
9.58772e-05
9.07383e-05
8.57148e-05
8.0828e-05
7.60944e-05
7.15267e-05
6.71337e-05
6.29214e-05
5.88933e-05
5.50506e-05
5.13927e-05
4.79178e-05
4.46228e-05
4.15038e-05
3.85562e-05
3.57751e-05
3.31553e-05
3.06913e-05
2.83774e-05
2.62082e-05
2.41777e-05
2.22803e-05
2.051e-05
1.88609e-05
1.7327e-05
1.59022e-05
1.45804e-05
1.33559e-05
1.22223e-05
1.11754e-05
1.0206e-05
9.31346e-06
8.4943e-06
7.7358e-06
7.03889e-06
6.39947e-06
5.8127e-06
5.27492e-06
4.78267e-06
4.33259e-06
3.92159e-06
3.54671e-06
3.2052e-06
2.89446e-06
2.61207e-06
2.35573e-06
2.12332e-06
1.91287e-06
1.72251e-06
1.55053e-06
1.39532e-06
1.25541e-06
1.12943e-06
1.01609e-06
9.14234e-07
8.22793e-07
7.40771e-07
6.67263e-07
6.01443e-07
5.42557e-07
4.89913e-07
4.42891e-07
4.00911e-07
3.63472e-07
3.30076e-07
3.00371e-07
2.73845e-07
2.50415e-07
2.29269e-07
2.11063e-07
1.9387e-07
1.80441e-07
1.65425e-07
1.57415e-07
1.41618e-07
1.4181e-07
1.1965e-07
1.34778e-07
9.57744e-08
1.38963e-07
6.53098e-08
1.5789e-07
2.38522e-08
1.93899e-07
-2.9723e-08
2.44305e-07
-8.90935e-08
2.97397e-07
-1.37965e-07
3.32892e-07
-1.54429e-07
3.31053e-07
-1.25271e-07
2.91091e-07
-6.57615e-08
2.48701e-07
-3.09246e-08
2.76551e-07
-1.03791e-07
4.58516e-07
-3.62967e-07
8.47195e-07
0.000143774
0.000142587
0.000140587
0.000137986
0.000134804
0.00013112
0.000127031
0.000122624
0.000117975
0.000113153
0.000108221
0.000103234
9.8238e-05
9.32744e-05
8.8377e-05
8.35739e-05
7.88879e-05
7.43372e-05
6.99359e-05
6.56942e-05
6.16194e-05
5.77162e-05
5.39868e-05
5.04319e-05
4.70505e-05
4.38404e-05
4.07984e-05
3.79208e-05
3.52032e-05
3.2641e-05
3.02292e-05
2.79626e-05
2.58361e-05
2.38442e-05
2.19816e-05
2.02426e-05
1.86217e-05
1.7113e-05
1.57108e-05
1.44093e-05
1.3203e-05
1.20857e-05
1.10534e-05
1.00971e-05
9.21636e-06
8.40771e-06
7.65873e-06
6.97033e-06
6.33854e-06
5.75861e-06
5.22697e-06
4.7402e-06
4.29503e-06
3.88841e-06
3.51744e-06
3.17941e-06
2.87177e-06
2.59212e-06
2.33823e-06
2.10799e-06
1.89945e-06
1.71078e-06
1.54029e-06
1.38641e-06
1.24765e-06
1.12268e-06
1.01024e-06
9.09163e-07
8.18403e-07
7.36976e-07
6.63988e-07
5.98621e-07
5.40128e-07
4.87825e-07
4.41099e-07
3.99373e-07
3.62155e-07
3.28949e-07
2.99408e-07
2.73022e-07
2.49711e-07
2.2867e-07
2.10549e-07
1.93434e-07
1.80063e-07
1.65108e-07
1.57133e-07
1.41396e-07
1.41595e-07
1.195e-07
1.34605e-07
9.56845e-08
1.38807e-07
6.52726e-08
1.57737e-07
2.38572e-08
1.93749e-07
-2.96954e-08
2.44164e-07
-8.90703e-08
2.9729e-07
-1.37975e-07
3.3283e-07
-1.54485e-07
3.3103e-07
-1.25354e-07
2.91062e-07
-6.58124e-08
2.48595e-07
-3.08674e-08
2.76365e-07
-1.03711e-07
4.58613e-07
-3.63227e-07
8.48333e-07
0.000134024
0.00013359
0.000132311
0.000130376
0.000127813
0.000124709
0.000121161
0.000117255
0.000113071
0.000108679
0.000104144
9.95224e-05
9.48625e-05
9.02069e-05
8.55914e-05
8.10461e-05
7.65955e-05
7.22594e-05
6.80535e-05
6.39898e-05
6.00769e-05
5.63208e-05
5.27253e-05
4.92919e-05
4.6021e-05
4.29112e-05
3.99603e-05
3.71656e-05
3.45232e-05
3.20292e-05
2.96792e-05
2.74687e-05
2.53929e-05
2.34469e-05
2.16256e-05
1.99238e-05
1.83363e-05
1.68576e-05
1.54824e-05
1.42051e-05
1.30204e-05
1.19225e-05
1.09077e-05
9.96708e-06
9.10037e-06
8.30424e-06
7.56663e-06
6.88839e-06
6.26571e-06
5.69397e-06
5.16965e-06
4.68943e-06
4.25013e-06
3.84874e-06
3.48244e-06
3.14857e-06
2.84463e-06
2.56828e-06
2.3173e-06
2.08965e-06
1.88339e-06
1.69675e-06
1.52805e-06
1.37574e-06
1.23837e-06
1.11461e-06
1.00323e-06
9.03093e-07
8.13149e-07
7.32434e-07
6.60068e-07
5.95242e-07
5.37219e-07
4.85325e-07
4.38952e-07
3.97531e-07
3.60578e-07
3.27598e-07
2.98253e-07
2.72035e-07
2.48866e-07
2.27951e-07
2.09931e-07
1.92911e-07
1.79609e-07
1.64731e-07
1.56792e-07
1.41133e-07
1.41329e-07
1.19331e-07
1.34378e-07
9.56008e-08
1.38584e-07
6.52744e-08
1.57491e-07
2.39441e-08
1.93466e-07
-2.95371e-08
2.43847e-07
-8.88721e-08
2.96973e-07
-1.37787e-07
3.32552e-07
-1.54352e-07
3.30815e-07
-1.25287e-07
2.90888e-07
-6.57603e-08
2.48377e-07
-3.07195e-08
2.76056e-07
-1.03498e-07
4.58547e-07
-3.63272e-07
8.49313e-07
0.000122644
0.00012317
0.00012277
0.000121595
0.000119735
0.000117289
0.000114354
0.00011102
0.000107367
0.000103468
9.93887e-05
9.51872e-05
9.09147e-05
8.66151e-05
8.23264e-05
7.80803e-05
7.39033e-05
6.98172e-05
6.58394e-05
6.19836e-05
5.826e-05
5.46763e-05
5.12375e-05
4.79468e-05
4.48055e-05
4.18136e-05
3.897e-05
3.62727e-05
3.37188e-05
3.13052e-05
2.90282e-05
2.68838e-05
2.48678e-05
2.29759e-05
2.12034e-05
1.95456e-05
1.79976e-05
1.65545e-05
1.52111e-05
1.39625e-05
1.28034e-05
1.17287e-05
1.07344e-05
9.81248e-06
8.96243e-06
8.18117e-06
7.4571e-06
6.79093e-06
6.17908e-06
5.61705e-06
5.10144e-06
4.62902e-06
4.19668e-06
3.80152e-06
3.44077e-06
3.11185e-06
2.81232e-06
2.53987e-06
2.29237e-06
2.0678e-06
1.86427e-06
1.68004e-06
1.51346e-06
1.36302e-06
1.2273e-06
1.10499e-06
9.94881e-07
8.95855e-07
8.06883e-07
7.27018e-07
6.55393e-07
5.91212e-07
5.33749e-07
4.82342e-07
4.36389e-07
3.95332e-07
3.58693e-07
3.25985e-07
2.96872e-07
2.70854e-07
2.47856e-07
2.2709e-07
2.09192e-07
1.92286e-07
1.79063e-07
1.64283e-07
1.5638e-07
1.40827e-07
1.40998e-07
1.19149e-07
1.34077e-07
9.55431e-08
1.38257e-07
6.53587e-08
1.57085e-07
2.41908e-08
1.92945e-07
-2.91266e-08
2.43206e-07
-8.83346e-08
2.96261e-07
-1.37207e-07
3.31858e-07
-1.5384e-07
3.30232e-07
-1.2492e-07
2.90439e-07
-6.55061e-08
2.47965e-07
-3.04108e-08
2.7554e-07
-1.03039e-07
4.58151e-07
-3.62861e-07
8.49866e-07
0.000110118
0.000111585
0.000112073
0.000111718
0.000110625
0.000108901
0.000106644
0.000103944
0.000100882
9.75323e-05
9.39632e-05
9.02341e-05
8.63977e-05
8.25001e-05
7.85809e-05
7.46741e-05
7.08081e-05
6.70065e-05
6.32888e-05
5.96703e-05
5.61633e-05
5.2777e-05
4.95181e-05
4.63911e-05
4.33989e-05
4.05427e-05
3.78226e-05
3.52375e-05
3.27858e-05
3.04649e-05
2.82721e-05
2.62041e-05
2.42573e-05
2.2428e-05
2.0712e-05
1.91051e-05
1.7603e-05
1.62011e-05
1.48948e-05
1.36794e-05
1.25503e-05
1.15024e-05
1.05322e-05
9.63196e-06
8.80132e-06
8.03745e-06
7.32914e-06
6.67706e-06
6.07786e-06
5.52717e-06
5.02173e-06
4.55841e-06
4.13422e-06
3.74632e-06
3.39206e-06
3.06892e-06
2.77453e-06
2.50666e-06
2.26322e-06
2.04224e-06
1.8419e-06
1.66048e-06
1.49639e-06
1.34814e-06
1.21435e-06
1.09373e-06
9.8511e-07
8.87385e-07
7.99551e-07
7.2068e-07
6.49921e-07
5.86495e-07
5.29688e-07
4.78849e-07
4.33388e-07
3.92758e-07
3.56486e-07
3.24095e-07
2.95255e-07
2.69471e-07
2.46673e-07
2.26081e-07
2.08326e-07
1.91552e-07
1.78427e-07
1.63753e-07
1.55906e-07
1.40454e-07
1.40632e-07
1.18904e-07
1.33769e-07
9.54103e-08
1.37962e-07
6.5336e-08
1.56769e-07
2.42756e-08
1.92589e-07
-2.89531e-08
2.42816e-07
-8.81152e-08
2.95879e-07
-1.37007e-07
3.31534e-07
-1.53719e-07
3.3e-07
-1.24895e-07
2.90268e-07
-6.55138e-08
2.47754e-07
-3.03164e-08
2.75235e-07
-1.02885e-07
4.58194e-07
-3.63071e-07
8.5137e-07
9.68326e-05
9.92174e-05
0.000100594
0.000101081
0.000100788
9.98218e-05
9.82794e-05
9.62502e-05
9.38166e-05
9.10543e-05
8.80317e-05
8.48101e-05
8.14437e-05
7.79803e-05
7.44615e-05
7.09231e-05
6.73954e-05
6.39041e-05
6.04704e-05
5.71119e-05
5.38423e-05
5.06727e-05
4.76116e-05
4.46649e-05
4.1837e-05
3.91306e-05
3.65468e-05
3.40858e-05
3.1747e-05
2.95289e-05
2.74294e-05
2.5446e-05
2.3576e-05
2.1816e-05
2.01628e-05
1.86126e-05
1.71615e-05
1.58056e-05
1.45406e-05
1.33624e-05
1.22666e-05
1.12487e-05
1.03055e-05
9.42952e-06
8.62063e-06
7.87627e-06
7.18559e-06
6.54931e-06
5.96428e-06
5.42631e-06
4.93226e-06
4.47915e-06
4.06408e-06
3.68434e-06
3.33736e-06
3.0207e-06
2.73209e-06
2.46935e-06
2.23046e-06
2.01353e-06
1.81677e-06
1.63851e-06
1.47721e-06
1.33142e-06
1.19979e-06
1.08108e-06
9.74123e-07
8.7786e-07
7.91305e-07
7.13552e-07
6.43767e-07
5.81189e-07
5.25119e-07
4.74919e-07
4.30012e-07
3.89861e-07
3.54002e-07
3.21968e-07
2.93434e-07
2.67914e-07
2.4534e-07
2.24944e-07
2.07352e-07
1.90724e-07
1.77713e-07
1.63153e-07
1.55377e-07
1.40026e-07
1.40229e-07
1.18611e-07
1.33444e-07
9.52288e-08
1.37673e-07
6.52523e-08
1.56488e-07
2.42754e-08
1.92306e-07
-2.88991e-08
2.42542e-07
-8.80546e-08
2.95653e-07
-1.36998e-07
3.31391e-07
-1.53802e-07
3.29947e-07
-1.25062e-07
2.90253e-07
-6.56836e-08
2.47671e-07
-3.0371e-08
2.75073e-07
-1.02933e-07
4.58508e-07
-3.63651e-07
8.53488e-07
8.29108e-05
8.621e-05
8.84775e-05
8.98219e-05
9.03482e-05
9.01613e-05
8.93579e-05
8.80262e-05
8.62487e-05
8.41014e-05
8.16536e-05
7.89673e-05
7.60984e-05
7.3096e-05
7.00033e-05
6.68579e-05
6.3692e-05
6.05333e-05
5.74049e-05
5.4326e-05
5.13124e-05
4.83769e-05
4.55297e-05
4.27784e-05
4.01288e-05
3.75849e-05
3.51493e-05
3.28234e-05
3.06076e-05
2.85014e-05
2.65036e-05
2.46127e-05
2.28265e-05
2.11425e-05
1.9558e-05
1.80698e-05
1.66748e-05
1.53693e-05
1.41497e-05
1.30124e-05
1.19534e-05
1.09685e-05
1.0055e-05
9.20573e-06
8.42085e-06
7.69805e-06
7.02682e-06
6.40798e-06
5.83861e-06
5.31469e-06
4.83324e-06
4.39141e-06
3.98643e-06
3.61571e-06
3.27678e-06
2.9673e-06
2.68507e-06
2.42801e-06
2.19417e-06
1.98171e-06
1.78891e-06
1.61415e-06
1.45594e-06
1.31288e-06
1.18365e-06
1.06704e-06
9.61936e-07
8.67295e-07
7.82158e-07
7.05643e-07
6.36939e-07
5.75301e-07
5.20048e-07
4.70557e-07
4.26264e-07
3.86644e-07
3.51244e-07
3.19604e-07
2.9141e-07
2.66183e-07
2.4386e-07
2.2368e-07
2.0627e-07
1.89804e-07
1.7692e-07
1.62486e-07
1.5479e-07
1.39549e-07
1.39784e-07
1.18283e-07
1.33085e-07
9.50233e-08
1.37355e-07
6.5155e-08
1.56179e-07
2.4272e-08
1.91992e-07
-2.88389e-08
2.42235e-07
-8.7982e-08
2.95393e-07
-1.36979e-07
3.31224e-07
-1.53888e-07
3.29887e-07
-1.25252e-07
2.90252e-07
-6.59022e-08
2.47623e-07
-3.04928e-08
2.74963e-07
-1.03058e-07
4.58906e-07
-3.64331e-07
8.55858e-07
6.85014e-05
7.27111e-05
7.58672e-05
7.8071e-05
7.94236e-05
8.00272e-05
7.99766e-05
7.93587e-05
7.82555e-05
7.67428e-05
7.489e-05
7.27601e-05
7.04096e-05
6.78891e-05
6.52432e-05
6.2511e-05
5.97266e-05
5.69193e-05
5.4114e-05
5.13319e-05
4.85905e-05
4.59044e-05
4.32854e-05
4.07428e-05
3.82839e-05
3.59142e-05
3.36376e-05
3.14568e-05
2.93732e-05
2.73874e-05
2.54992e-05
2.37079e-05
2.20121e-05
2.04102e-05
1.88999e-05
1.74789e-05
1.61445e-05
1.48937e-05
1.37234e-05
1.26304e-05
1.16114e-05
1.06625e-05
9.78133e-06
8.96124e-06
8.20255e-06
7.50327e-06
6.85325e-06
6.25346e-06
5.70118e-06
5.19261e-06
4.72491e-06
4.29541e-06
3.90146e-06
3.5406e-06
3.21046e-06
2.90883e-06
2.63358e-06
2.38274e-06
2.15442e-06
1.94685e-06
1.75838e-06
1.58746e-06
1.43263e-06
1.29255e-06
1.16595e-06
1.05165e-06
9.48573e-07
8.55708e-07
7.72125e-07
6.96968e-07
6.29447e-07
5.68839e-07
5.14482e-07
4.65769e-07
4.22149e-07
3.83112e-07
3.48215e-07
3.17009e-07
2.89188e-07
2.64282e-07
2.42233e-07
2.22291e-07
2.0508e-07
1.88792e-07
1.76048e-07
1.61752e-07
1.54145e-07
1.39025e-07
1.39294e-07
1.17921e-07
1.32691e-07
9.47961e-08
1.37006e-07
6.50484e-08
1.55837e-07
2.42723e-08
1.91638e-07
-2.87618e-08
2.41881e-07
-8.78826e-08
2.95084e-07
-1.36932e-07
3.31014e-07
-1.53959e-07
3.29802e-07
-1.25452e-07
2.90253e-07
-6.61587e-08
2.47601e-07
-3.06765e-08
2.74898e-07
-1.03253e-07
4.59368e-07
-3.65083e-07
8.58411e-07
5.37634e-05
5.88673e-05
6.28987e-05
6.59535e-05
6.81288e-05
6.95234e-05
7.02295e-05
7.03325e-05
6.99131e-05
6.90464e-05
6.78018e-05
6.62423e-05
6.44254e-05
6.24023e-05