/*--------------------------------*- C++ -*----------------------------------*\
| =========                 |                                                 |
| \\      /  F ield         | OpenFOAM: The Open Source CFD Toolbox           |
|  \\    /   O peration     | Version:  2412                                  |
|   \\  /    A nd           | Website:  www.openfoam.com                      |
|    \\/     M anipulation  |                                                 |
\*---------------------------------------------------------------------------*/
FoamFile
{
    version     2.0;
    format      ascii;
    arch        "LSB;label=32;scalar=64";
    class       surfaceScalarField;
    location    "23";
    object      phi;
}
// * * * * * * * * * * * * * * * * * * * * * * * * * * * * * * * * * * * * * //

dimensions      [0 3 -1 0 0 0 0];

oriented        oriented;

internalField   nonuniform List<scalar> 
126304
(
0.00505063
1.29303e-07
1.86067e-11
0.00505025
3.7712e-07
3.68542e-11
0.00504964
6.1187e-07
4.16008e-11
0.0050488
8.35119e-07
4.52356e-11
0.00504776
1.04783e-06
5.49155e-11
0.0050465
1.25091e-06
7.27487e-11
0.00504506
1.44797e-06
9.4418e-11
0.00504341
1.64858e-06
1.05596e-10
0.00504154
1.86881e-06
8.06277e-11
0.00503941
2.12755e-06
-1.11448e-11
0.00503697
2.43937e-06
-1.92256e-10
0.00503417
2.80742e-06
-4.63727e-10
0.00503095
3.2199e-06
-7.97738e-10
0.0050273
3.65177e-06
-1.14024e-09
0.00502323
4.0708e-06
-1.4233e-09
0.00501878
4.44545e-06
-1.58238e-09
0.00501403
4.75177e-06
-1.57151e-09
0.00500906
4.97743e-06
-1.37195e-09
0.00500393
5.1223e-06
-9.93358e-10
0.00499874
5.19633e-06
-4.68931e-10
0.00499352
5.2159e-06
1.53331e-10
0.00498832
5.19994e-06
8.20843e-10
0.00498315
5.16664e-06
1.48517e-09
0.00497802
5.13132e-06
2.10741e-09
0.00497291
5.10537e-06
2.6604e-09
0.00496781
5.09616e-06
3.12892e-09
0.0049627
5.10753e-06
3.50808e-09
0.00495756
5.14062e-06
3.80077e-09
0.00495236
5.19469e-06
4.01503e-09
0.00494709
5.26789e-06
4.16159e-09
0.00494172
5.35788e-06
4.2521e-09
0.00493626
5.46226e-06
4.29775e-09
0.00493068
5.57879e-06
4.30845e-09
0.00492497
5.70554e-06
4.29251e-09
0.00491912
5.84096e-06
4.25672e-09
0.00491313
5.98382e-06
4.20638e-09
0.00490699
6.13322e-06
4.14553e-09
0.0049007
6.28851e-06
4.07705e-09
0.00489425
6.44923e-06
4.0029e-09
0.00488763
6.61507e-06
3.92444e-09
0.00488084
6.78585e-06
3.84263e-09
0.00487388
6.96143e-06
3.75814e-09
0.00486673
7.14177e-06
3.67138e-09
0.0048594
7.32684e-06
3.58268e-09
0.00485188
7.51663e-06
3.49224e-09
0.00484416
7.71115e-06
3.40016e-09
0.00483625
7.91045e-06
3.30654e-09
0.00482813
8.11455e-06
3.21148e-09
0.00481981
8.32352e-06
3.11504e-09
0.00481127
8.53744e-06
3.01729e-09
0.00480251
8.75644e-06
2.91829e-09
0.00479352
8.98084e-06
2.81813e-09
0.00478431
9.21147e-06
2.71696e-09
0.00477486
9.4507e-06
2.61489e-09
9.70531e-06
0.00476515
2.51213e-09
0.00505063
2.58539e-07
0.00505025
7.54006e-07
0.00504964
1.22335e-06
0.0050488
1.66969e-06
0.00504776
2.09498e-06
0.00504651
2.501e-06
0.00504506
2.895e-06
0.00504341
3.29596e-06
0.00504155
3.73594e-06
0.00503942
4.25258e-06
0.00503699
4.87494e-06
0.00503418
5.60942e-06
0.00503097
6.43262e-06
0.00502733
7.29475e-06
0.00502327
8.13161e-06
0.00501883
8.88037e-06
0.00501409
9.49322e-06
0.00500912
9.94543e-06
0.00500401
1.02366e-05
0.00499882
1.03864e-05
0.00499361
1.04275e-05
0.00498841
1.03974e-05
0.00498324
1.03324e-05
0.00497811
1.0263e-05
0.00497301
1.0212e-05
0.00496791
1.01941e-05
0.0049628
1.0217e-05
0.00495766
1.02831e-05
0.00495246
1.03909e-05
0.00494719
1.05368e-05
0.00494183
1.07162e-05
0.00493637
1.09243e-05
0.00493079
1.11566e-05
0.00492509
1.14093e-05
0.00491925
1.16794e-05
0.00491327
1.19643e-05
0.00490714
1.22623e-05
0.00490086
1.25721e-05
0.00489441
1.28927e-05
0.0048878
1.32236e-05
0.00488103
1.35643e-05
0.00487407
1.39145e-05
0.00486694
1.42743e-05
0.00485962
1.46435e-05
0.00485212
1.50221e-05
0.00484442
1.54101e-05
0.00483652
1.58076e-05
0.00482842
1.62146e-05
0.00482011
1.66314e-05
0.00481159
1.70579e-05
0.00480286
1.74945e-05
0.0047939
1.79418e-05
0.00478471
1.84013e-05
0.00477528
1.88776e-05
1.93838e-05
0.0047656
0.00505063
3.87603e-07
0.00505025
1.13035e-06
0.00504964
1.83397e-06
0.00504881
2.50307e-06
0.00504776
3.14063e-06
0.00504651
3.74933e-06
0.00504507
4.33993e-06
0.00504342
4.94076e-06
0.00504156
5.59958e-06
0.00503944
6.3726e-06
0.00503701
7.30335e-06
0.00503422
8.40159e-06
0.00503102
9.63271e-06
0.00502739
1.09226e-05
0.00502335
1.21755e-05
0.00501893
1.32976e-05
0.00501421
1.42173e-05
0.00500925
1.48975e-05
0.00500415
1.5337e-05
0.00499898
1.55651e-05
0.00499377
1.56301e-05
0.00498858
1.55881e-05
0.00498342
1.54932e-05
0.00497829
1.5391e-05
0.00497319
1.53156e-05
0.00496809
1.52891e-05
0.00496299
1.53232e-05
0.00495785
1.54215e-05
0.00495266
1.5582e-05
0.0049474
1.57994e-05
0.00494205
1.60668e-05
0.00493659
1.63771e-05
0.00493103
1.67238e-05
0.00492533
1.7101e-05
0.00491951
1.75042e-05
0.00491354
1.79298e-05
0.00490743
1.83749e-05
0.00490117
1.88377e-05
0.00489474
1.93167e-05
0.00488815
1.98111e-05
0.0048814
2.03201e-05
0.00487447
2.08436e-05
0.00486736
2.13811e-05
0.00486007
2.19327e-05
0.0048526
2.24983e-05
0.00484493
2.30779e-05
0.00483706
2.36716e-05
0.004829
2.42795e-05
0.00482073
2.49017e-05
0.00481225
2.55384e-05
0.00480355
2.619e-05
0.00479464
2.68573e-05
0.0047855
2.75425e-05
0.00477612
2.82518e-05
2.90035e-05
0.0047665
0.00505063
5.16413e-07
0.00505025
1.50588e-06
0.00504964
2.4433e-06
0.00504881
3.33467e-06
0.00504777
4.18405e-06
0.00504652
4.99501e-06
0.00504508
5.78175e-06
0.00504344
6.58168e-06
0.00504158
7.45801e-06
0.00503947
8.48522e-06
0.00503705
9.7212e-06
0.00503427
1.11793e-05
0.00503109
1.28142e-05
0.00502749
1.45282e-05
0.00502347
1.61946e-05
0.00501908
1.76889e-05
0.00501438
1.8916e-05
0.00500945
1.98259e-05
0.00500437
2.04169e-05
0.00499921
2.07268e-05
0.00499402
2.08195e-05
0.00498884
2.07688e-05
0.00498368
2.06466e-05
0.00497856
2.05133e-05
0.00497346
2.04144e-05
0.00496837
2.03794e-05
0.00496327
2.04242e-05
0.00495814
2.05536e-05
0.00495296
2.07653e-05
0.0049477
2.10523e-05
0.00494236
2.14057e-05
0.00493693
2.18162e-05
0.00493137
2.2275e-05
0.0049257
2.27745e-05
0.0049199
2.33087e-05
0.00491395
2.38727e-05
0.00490787
2.44627e-05
0.00490163
2.50763e-05
0.00489523
2.57116e-05
0.00488868
2.63672e-05
0.00488195
2.70424e-05
0.00487506
2.77365e-05
0.00486799
2.84494e-05
0.00486074
2.91808e-05
0.00485331
2.99308e-05
0.00484569
3.06992e-05
0.00483788
3.14862e-05
0.00482986
3.22918e-05
0.00482165
3.31161e-05
0.00481323
3.39595e-05
0.0048046
3.48223e-05
0.00479575
3.57054e-05
0.00478668
3.66113e-05
0.00477738
3.75475e-05
3.85353e-05
0.00476785
0.00505063
6.44887e-07
0.00505025
1.88033e-06
0.00504965
3.0509e-06
0.00504882
4.16391e-06
0.00504778
5.2245e-06
0.00504653
6.23715e-06
0.0050451
7.2194e-06
0.00504346
8.21747e-06
0.00504161
9.30958e-06
0.00503951
1.05881e-05
0.0050371
1.21253e-05
0.00503434
1.39383e-05
0.00503119
1.59718e-05
0.00502761
1.8105e-05
0.00502362
2.01814e-05
0.00501926
2.20465e-05
0.0050146
2.35815e-05
0.0050097
2.47237e-05
0.00500465
2.54699e-05
0.00499951
2.58662e-05
0.00499434
2.59911e-05
0.00498917
2.5936e-05
0.00498403
2.57898e-05
0.00497891
2.56277e-05
0.00497382
2.55065e-05
0.00496874
2.54632e-05
0.00496364
2.55177e-05
0.00495852
2.56768e-05
0.00495335
2.59376e-05
0.00494811
2.62919e-05
0.00494279
2.67287e-05
0.00493737
2.72365e-05
0.00493184
2.78046e-05
0.00492619
2.84236e-05
0.00492041
2.90859e-05
0.0049145
2.97854e-05
0.00490844
3.05176e-05
0.00490224
3.12791e-05
0.00489588
3.20677e-05
0.00488937
3.28816e-05
0.00488269
3.37198e-05
0.00487585
3.45817e-05
0.00486883
3.54667e-05
0.00486163
3.63746e-05
0.00485426
3.73053e-05
0.0048467
3.82589e-05
0.00483895
3.92352e-05
0.00483101
4.02344e-05
0.00482287
4.12566e-05
0.00481453
4.23019e-05
0.00480598
4.33708e-05
0.00479722
4.44642e-05
0.00478825
4.55846e-05
0.00477905
4.67397e-05
4.79515e-05
0.00476964
0.00505063
7.72949e-07
0.00505026
2.25342e-06
0.00504965
3.65637e-06
0.00504882
4.99019e-06
0.00504779
6.26124e-06
0.00504655
7.47489e-06
0.00504512
8.65186e-06
0.00504349
9.84687e-06
0.00504164
1.11527e-05
0.00503955
1.26792e-05
0.00503717
1.45127e-05
0.00503443
1.66747e-05
0.0050313
1.91003e-05
0.00502776
2.16472e-05
0.00502381
2.41296e-05
0.00501949
2.63635e-05
0.00501487
2.8207e-05
0.00501001
2.95844e-05
0.00500499
3.04902e-05
0.00499988
3.09782e-05
0.00499473
3.11407e-05
0.00498958
3.1086e-05
0.00498445
3.09197e-05
0.00497934
3.07316e-05
0.00497426
3.05893e-05
0.00496918
3.05378e-05
0.0049641
3.06013e-05
0.00495899
3.07882e-05
0.00495383
3.10957e-05
0.00494861
3.15143e-05
0.00494331
3.20313e-05
0.00493791
3.26331e-05
0.00493241
3.33071e-05
0.00492679
3.4042e-05
0.00492105
3.48289e-05
0.00491517
3.56605e-05
0.00490916
3.65313e-05
0.004903
3.74372e-05
0.00489669
3.83755e-05
0.00489023
3.93441e-05
0.00488361
4.03417e-05
0.00487682
4.13673e-05
0.00486987
4.24205e-05
0.00486274
4.35008e-05
0.00485544
4.46081e-05
0.00484796
4.57422e-05
0.00484029
4.69031e-05
0.00483243
4.80909e-05
0.00482438
4.93055e-05
0.00481614
5.05471e-05
0.00480769
5.1816e-05
0.00479904
5.3113e-05
0.00479019
5.44402e-05
0.00478112
5.58043e-05
5.72252e-05
0.00477185
0.00505063
9.00477e-07
0.00505026
2.62493e-06
0.00504966
4.25926e-06
0.00504883
5.81293e-06
0.0050478
7.29354e-06
0.00504657
8.70734e-06
0.00504514
1.00781e-05
0.00504352
1.14687e-05
0.00504169
1.29858e-05
0.00503961
1.47565e-05
0.00503724
1.68809e-05
0.00503453
1.9385e-05
0.00503144
2.21957e-05
0.00502793
2.51497e-05
0.00502403
2.80334e-05
0.00501976
3.06339e-05
0.00501518
3.27866e-05
0.00501036
3.4402e-05
0.00500538
3.54723e-05
0.0050003
3.60579e-05
0.00499518
3.62641e-05
0.00499005
3.62153e-05
0.00498493
3.60332e-05
0.00497984
3.58219e-05
0.00497477
3.56602e-05
0.00496971
3.56005e-05
0.00496464
3.56718e-05
0.00495954
3.58844e-05
0.0049544
3.62358e-05
0.0049492
3.67155e-05
0.00494392
3.73089e-05
0.00493856
3.80008e-05
0.00493309
3.87766e-05
0.00492751
3.96234e-05
0.0049218
4.05308e-05
0.00491597
4.14903e-05
0.00491001
4.24956e-05
0.0049039
4.35419e-05
0.00489765
4.46257e-05
0.00489125
4.57447e-05
0.0048847
4.68973e-05
0.00487798
4.80822e-05
0.00487111
4.92989e-05
0.00486406
5.05467e-05
0.00485684
5.18253e-05
0.00484945
5.31347e-05
0.00484188
5.44746e-05
0.00483412
5.5845e-05
0.00482618
5.72459e-05
0.00481805
5.86771e-05
0.00480973
6.0139e-05
0.00480121
6.16318e-05
0.00479249
6.31572e-05
0.00478358
6.47189e-05
0.00477448
6.63285e-05
0.00476541
-2.68287e-07
2.42136e-09
0.00476515
2.60834e-07
2.35538e-09
0.00476432
8.23314e-07
2.29389e-09
0.0047629
1.42376e-06
2.22559e-09
0.00476083
2.06474e-06
2.15201e-09
0.00475808
2.74974e-06
2.07361e-09
0.0047546
3.48269e-06
1.99021e-09
0.00475033
4.26798e-06
1.90143e-09
0.00474521
5.11048e-06
1.807e-09
0.0047392
6.01566e-06
1.70647e-09
0.0047322
6.98964e-06
1.59948e-09
0.00472416
8.03926e-06
1.48597e-09
0.00471499
9.17221e-06
1.36597e-09
0.00470459
1.03971e-05
1.24149e-09
0.00469287
1.17237e-05
1.10507e-09
0.0046797
1.3163e-05
9.75798e-10
0.00466497
1.47274e-05
8.10275e-10
0.00464854
1.6431e-05
6.31052e-10
0.00463025
1.82901e-05
4.59031e-10
0.00460993
2.03229e-05
2.66067e-10
0.00458738
2.25507e-05
8.48941e-11
0.00456238
2.4998e-05
-1.01118e-10
0.00453469
2.76931e-05
-2.93979e-10
0.00450402
3.06688e-05
-4.93869e-10
0.00447006
3.39638e-05
-7.00036e-10
0.00443243
3.76232e-05
-9.11415e-10
0.00439073
4.17008e-05
-1.12683e-09
0.00434448
4.62603e-05
-1.34481e-09
0.0042931
5.13782e-05
-1.56381e-09
0.00423595
5.71465e-05
-1.78276e-09
0.00417228
6.36767e-05
-2.00053e-09
0.00410118
7.11047e-05
-2.21625e-09
0.00402158
7.95966e-05
-2.42931e-09
0.00393223
8.93557e-05
-2.63955e-09
0.0038316
0.000100631
-2.84728e-09
0.00371788
0.000113725
-3.05291e-09
0.00358889
0.000128998
-3.25718e-09
0.00344202
0.00014687
-3.46119e-09
0.00327422
0.000167805
-3.66658e-09
0.00308196
0.000192263
-3.87521e-09
0.00286135
0.000220611
-4.08856e-09
0.00260841
0.000252947
-4.3075e-09
0.00231961
0.000288803
-4.5299e-09
0.00199294
0.000326672
-4.74631e-09
0.00162965
0.000363302
-4.93236e-09
0.00123696
0.000392692
-5.03516e-09
0.00083215
0.000404814
-4.95462e-09
0.00044815
0.000384005
-4.5232e-09
0.000141689
0.000306465
-3.49659e-09
0.000141691
-1.57714e-09
0.0047645
8.32968e-07
0.00476287
1.88804e-06
0.00476068
3.01189e-06
0.0047579
4.2105e-06
0.00475447
5.49007e-06
0.00475036
6.85762e-06
0.00474552
8.32102e-06
0.0047399
9.88906e-06
0.00473344
1.15716e-05
0.00472608
1.33795e-05
0.00471774
1.5325e-05
0.00470836
1.7422e-05
0.00469785
1.96857e-05
0.00468611
2.21334e-05
0.00467305
2.47847e-05
0.00465855
2.76616e-05
0.00464249
3.0789e-05
0.00462473
3.41951e-05
0.0046051
3.79124e-05
0.00458345
4.19777e-05
0.00455957
4.64336e-05
0.00453323
5.1329e-05
0.00450421
5.67205e-05
0.0044722
6.26741e-05
0.0044369
6.92669e-05
0.00439793
7.65897e-05
0.00435488
8.47496e-05
0.00430727
9.38742e-05
0.00425453
0.000104116
0.00419602
0.000115659
0.00413097
0.000128726
0.00405849
0.000143586
0.00397751
0.00016057
0.00388679
0.000180081
0.00378481
0.000202611
0.00366978
0.000228757
0.00353955
0.000259229
0.00339157
0.000294849
0.00322286
0.000336517
0.00303
0.00038512
0.00280926
0.000441347
0.00255688
0.000505336
0.00226959
0.000576088
0.00194572
0.000650539
0.00158686
0.000722169
0.00120051
0.000779041
0.000804073
0.000801247
0.000430147
0.000757931
0.000133399
0.000603213
0.00027509
0.00476269
4.64984e-06
0.00475835
6.22741e-06
0.00475345
7.90789e-06
0.00474796
9.70001e-06
0.00474184
1.16133e-05
0.00473504
1.36583e-05
0.00472751
1.5847e-05
0.00471921
1.81927e-05
0.00471007
2.07101e-05
0.00470003
2.34157e-05
0.00468903
2.6328e-05
0.00467698
2.94675e-05
0.00466381
3.28574e-05
0.00464942
3.65238e-05
0.00463371
4.04959e-05
0.00461657
4.48068e-05
0.00459786
4.94941e-05
0.00457746
5.46003e-05
0.00455519
6.01739e-05
0.0045309
6.62707e-05
0.00450438
7.29544e-05
0.00447541
8.02988e-05
0.00444374
8.8389e-05
0.00440909
9.7324e-05
0.00437114
0.00010722
0.00432952
0.000118213
0.0042838
0.000130463
0.00423351
0.000144163
0.00417809
0.000159541
0.00411688
0.00017687
0.00404912
0.000196483
0.00397392
0.000218782
0.00389024
0.000244256
0.00379682
0.000273501
0.00369219
0.000307243
0.00357459
0.000346354
0.00344195
0.000391869
0.00329182
0.000444975
0.00312138
0.000506957
0.00292745
0.000579056
0.00270661
0.000662186
0.00245553
0.000756415
0.00217153
0.00086009
0.00185357
0.000968493
0.0015039
0.00107184
0.00113048
0.00115247
0.000750721
0.001181
0.000396745
0.00111191
0.000120664
0.000879294
0.000395753
0.00476
1.24968e-05
0.00475164
1.45899e-05
0.00474273
1.68195e-05
0.00473323
1.91971e-05
0.00472311
2.17359e-05
0.00471232
2.44501e-05
0.00470081
2.73558e-05
0.00468853
3.04707e-05
0.00467543
3.38148e-05
0.00466143
3.74099e-05
0.00464648
4.12808e-05
0.00463049
4.54551e-05
0.00461339
4.99636e-05
0.00459507
5.48412e-05
0.00457544
6.0127e-05
0.00455438
6.58654e-05
0.00453177
7.21065e-05
0.00450746
7.89073e-05
0.0044813
8.63328e-05
0.00445311
9.44574e-05
0.0044227
0.000103367
0.00438984
0.000113159
0.00435428
0.000123948
0.00431574
0.000135867
0.00427389
0.00014907
0.00422836
0.000163739
0.00417874
0.000180089
0.00412453
0.000198375
0.00406517
0.000218899
0.00400001
0.000242027
0.0039283
0.000268196
0.00384914
0.000297936
0.00376151
0.00033189
0.00366418
0.000370835
0.00355571
0.000415712
0.00343442
0.000467646
0.00329833
0.000527954
0.00314517
0.000598132
0.00297237
0.000679765
0.00277709
0.000774336
0.00255643
0.000882838
0.00230776
0.00100509
0.00202924
0.00113861
0.00172084
0.0012769
0.00138572
0.00140697
0.00103233
0.00150585
0.000677639
0.00153569
0.000351917
0.00143763
0.000102618
0.00112859
0.000498371
0.0047565
2.56358e-05
0.00474285
2.82331e-05
0.00472867
3.09999e-05
0.00471392
3.39512e-05
0.00469855
3.71033e-05
0.00468253
4.04745e-05
0.0046658
4.40851e-05
0.00464831
4.79572e-05
0.00463001
5.21158e-05
0.00461083
5.65885e-05
0.00459071
6.14062e-05
0.00456956
6.66034e-05
0.0045473
7.22189e-05
0.00452385
7.82962e-05
0.00449909
8.48846e-05
0.00447292
9.20396e-05
0.0044452
9.98242e-05
0.0044158
0.00010831
0.00438455
0.000117578
0.00435129
0.000127723
0.0043158
0.000138851
0.00427787
0.000151086
0.00423725
0.00016457
0.00419365
0.000179471
0.00414674
0.000195981
0.00409615
0.000214329
0.00404145
0.000234783
0.00398217
0.000257661
0.00391773
0.000283339
0.00384748
0.000312271
0.00377068
0.000344998
0.00368644
0.000382172
0.00359375
0.000424579
0.00349143
0.000473162
0.00337809
0.000529054
0.00325214
0.000593593
0.00311177
0.000668324
0.00295493
0.000754966
0.00277941
0.000855288
0.0025829
0.000970851
0.00236322
0.00110252
0.0021187
0.00124961
0.00184873
0.00140857
0.00155464
0.00157099
0.0012408
0.00172081
0.000916169
0.00183048
0.000596383
0.00185548
0.000306881
0.00172713
8.48463e-05
0.00135063
0.000583218
0.00475223
4.52585e-05
0.00473212
4.83422e-05
0.00471149
5.16291e-05
0.0046903
5.51369e-05
0.00466852
5.88859e-05
0.0046461
6.28979e-05
0.00462298
6.71972e-05
0.00459913
7.18104e-05
0.00457448
7.67674e-05
0.00454897
8.21015e-05
0.00452252
8.78496e-05
0.00449507
9.40535e-05
0.00446653
0.00010076
0.00443681
0.000108021
0.0044058
0.000115895
0.00437339
0.000124451
0.00433945
0.000133764
0.00430384
0.00014392
0.0042664
0.000155017
0.00422695
0.000167169
0.0041853
0.000180503
0.00414121
0.00019517
0.00409444
0.000211342
0.0040447
0.000229218
0.00399164
0.000249033
0.00393491
0.000271059
0.00387408
0.000295619
0.00380865
0.000323093
0.00373805
0.000353933
0.00366165
0.000388676
0.00357868
0.000427964
0.00348829
0.000472564
0.00338948
0.000523391
0.0032811
0.000581538
0.00316187
0.000648292
0.00303031
0.000725152
0.00288482
0.000813809
0.00272371
0.000916078
0.00254526
0.00103373
0.00234796
0.00116816
0.00213071
0.00131977
0.00189331
0.001487
0.00163703
0.00166486
0.00136526
0.00184276
0.00108425
0.00200181
0.000803724
0.00211101
0.000537018
0.00212219
0.000299714
0.00196444
0.000103384
0.00154696
0.000686601
0.00474727
7.2463e-05
0.00471961
7.60065e-05
0.00469145
7.97899e-05
0.00466275
8.38321e-05
0.00463348
8.81561e-05
0.00460359
9.27871e-05
0.00457304
9.77531e-05
0.00454176
0.000103085
0.00450971
0.000108818
0.00447682
0.000114989
0.00444303
0.000121644
0.00440825
0.00012883
0.00437241
0.000136601
0.00433541
0.00014502
0.00429715
0.000154154
0.00425752
0.000164083
0.00421639
0.000174896
0.00417362
0.000186694
0.00412904
0.000199592
0.00408249
0.000213722
0.00403376
0.000229235
0.00398262
0.000246305
0.00392883
0.000265136
0.00387209
0.00028596
0.00381207
0.000309051
0.0037484
0.00033473
0.00368064
0.00036337
0.00360832
0.000395417
0.00353086
0.000431393
0.00344762
0.00047192
0.00335784
0.000517736
0.00326069
0.000569717
0.00315518
0.000628899
0.00304022
0.000696499
0.00291458
0.000773931
0.00277694
0.000862797
0.0026259
0.000964844
0.00246014
0.00108184
0.00227851
0.00121536
0.00208038
0.00136629
0.001866
0.00153415
0.00163705
0.00171596
0.0013973
0.00190461
0.0011533
0.00208676
0.000914803
0.00224031
0.00069438
0.00233143
0.000504868
0.0023117
0.000350585
0.00211872
0.000212214
0.00168533
0.000898815
-2.82567e-05
2.82572e-05
-4.43895e-10
-8.19412e-05
5.3686e-05
-1.49696e-09
-0.000142054
6.01158e-05
-2.67432e-09
-0.000197467
5.54163e-05
-3.86113e-09
-0.000241989
4.45269e-05
-4.97293e-09
-0.000272419
3.04361e-05
-5.95665e-09
-0.000287332
1.49194e-05
-6.7075e-09
-0.000286033
-1.29202e-06
-6.95835e-09
-0.000269614
-1.64107e-05
-7.61394e-09
-0.000238307
-3.12993e-05
-7.83441e-09
-0.000192917
-4.53824e-05
-7.71905e-09
-0.000134364
-5.85456e-05
-7.29562e-09
-6.35958e-05
-7.07618e-05
-6.53113e-09
1.83506e-05
-8.1941e-05
-5.40621e-09
0.000110447
-9.20921e-05
-3.86955e-09
0.00021169
-0.000101241
-1.86695e-09
0.000321082
-0.000109393
6.57235e-10
0.000437641
-0.000116562
3.74791e-09
0.000560405
-0.000122771
7.4333e-09
0.000688439
-0.000128046
1.18154e-08
0.00082084
-0.000132417
1.61925e-08
0.000956734
-0.000135914
2.09285e-08
0.00109528
-0.000138567
2.47662e-08
0.00123565
-0.000140406
2.74118e-08
0.0013771
-0.00014147
2.94178e-08
0.00151887
-0.000141807
2.97868e-08
0.00166031
-0.000141467
2.92646e-08
0.00180078
-0.000140497
2.79907e-08
0.0019397
-0.000138947
2.62695e-08
0.00207654
-0.000136866
2.43362e-08
0.00221082
-0.000134304
2.23323e-08
0.00234211
-0.000131311
2.03294e-08
0.00247003
-0.000127935
1.83494e-08
0.00259424
-0.000124225
1.63925e-08
0.00271446
-0.00012023
1.44519e-08
0.00283044
-0.000115995
1.25174e-08
0.00294199
-0.000111566
1.05853e-08
0.00304897
-0.000106985
8.65688e-09
0.00315126
-0.000102294
6.73872e-09
0.00324878
-9.7531e-05
4.84485e-09
0.00334151
-9.27314e-05
2.99148e-09
0.00342944
-8.79287e-05
1.19902e-09
0.00351259
-8.31532e-05
-5.0718e-10
0.00359103
-7.84324e-05
-2.10345e-09
0.00366482
-7.37908e-05
-3.56551e-09
0.00373408
-6.925e-05
-4.86931e-09
0.00379891
-6.48286e-05
-5.99459e-09
0.00385946
-6.05419e-05
-6.92314e-09
0.00391587
-5.64015e-05
-7.64062e-09
-5.24155e-05
0.00396829
-8.14406e-09
-2.47956e-05
5.30528e-05
-7.19495e-05
0.00010084
-0.000124476
0.000112642
-0.000172632
0.000103572
-0.00021081
8.27049e-05
-0.000236055
5.5681e-05
-0.000246948
2.58126e-05
-0.000243074
-5.16544e-06
-0.000224875
-3.46098e-05
-0.00019269
-6.34841e-05
-0.000147184
-9.08882e-05
-8.92033e-05
-0.000116527
-1.93986e-05
-0.000140567
6.10903e-05
-0.00016243
0.000151409
-0.000182411
0.000250638
-0.00020047
0.00035784
-0.000216596
0.000472092
-0.000230814
0.00059248
-0.00024316
0.000718115
-0.00025368
0.000848125
-0.000262428
0.00098167
-0.000269459
0.00111793
-0.000274827
0.00125612
-0.000278593
0.00139547
-0.000280828
0.00153529
-0.000281621
0.00167489
-0.00028107
0.00181366
-0.000279269
0.00195103
-0.000276314
0.00208646
-0.0002723
0.00221948
-0.000267324
0.00234966
-0.000261485
0.0024766
-0.000254878
0.00259998
-0.000247602
0.0027195
-0.00023975
0.00283492
-0.000231415
0.00294604
-0.000222685
0.0030527
-0.000213648
0.00315479
-0.000204383
0.00325222
-0.000194968
0.00334497
-0.000185475
0.00343301
-0.000175969
0.00351637
-0.000166512
0.00359509
-0.000157159
0.00366926
-0.000147958
0.00373896
-0.000138953
0.00380432
-0.000130182
0.00386545
-0.000121675
0.0039225
-0.000113456
-0.000105538
0.00397563
-1.87156e-05
7.17684e-05
-5.27772e-05
0.000134901
-9.07461e-05
0.000150611
-0.000125029
0.000137856
-0.000151127
0.000108802
-0.000166584
7.11387e-05
-0.000169985
2.92131e-05
-0.000161141
-1.40093e-05
-0.000139763
-5.59881e-05
-0.000106076
-9.71707e-05
-6.04221e-05
-0.000136542
-3.32355e-06
-0.000173625
6.40936e-05
-0.000207984
0.000141638
-0.000239974
0.000228465
-0.000269238
0.000323753
-0.000295758
0.000426695
-0.000319538
0.000536476
-0.000340595
0.000652279
-0.000358963
0.000773293
-0.000374694
0.000898716
-0.000387852
0.00102776
-0.000398506
0.00115967
-0.000406732
0.00129368
-0.000412605
0.00142908
-0.000416223
0.00156517
-0.000417712
0.0017013
-0.000417207
0.00183688
-0.000414845
0.00197133
-0.000410764
0.00210413
-0.0004051
0.0022348
-0.000397996
0.00236291
-0.000389593
0.00248807
-0.000380035
0.00260993
-0.000369464
0.0027282
-0.000358019
0.00284262
-0.000345838
0.00295299
-0.000333053
0.00305913
-0.000319791
0.00316093
-0.000306175
0.00325828
-0.00029232
0.00335113
-0.000278331
0.00343947
-0.000264311
0.00352331
-0.000250348
0.00360268
-0.000236528
0.00367764
-0.000222923
0.00374829
-0.000209599
0.00381472
-0.000196613
0.00387706
-0.000184011
0.00393543
-0.000171828
-0.000160083
0.00398997
-8.07639e-06
7.98448e-05
-2.48378e-05
0.000151663
-4.27643e-05
0.000168537
-5.7835e-05
0.000152926
-6.73894e-05
0.000118357
-6.96292e-05
7.33785e-05
-6.29634e-05
2.25473e-05
-4.75211e-05
-2.94516e-05
-2.21202e-05
-8.1389e-05
1.32008e-05
-0.000132492
5.83335e-05
-0.000181675
0.000113181
-0.000228473
0.000177589
-0.000272391
0.000250902
-0.000313287
0.000332646
-0.000350982
0.000422253
-0.000385365
0.000519097
-0.000416383
0.000622521
-0.000444018
0.000731837
-0.000468279
0.000846346
-0.000489203
0.000965342
-0.000506848
0.00108812
-0.000521283
0.00121397
-0.000532587
0.00134222
-0.000540846
0.00147216
-0.000546169
0.00160315
-0.000548702
0.00173456
-0.000548619
0.00186581
-0.00054609
0.00199633
-0.000541286
0.00212561
-0.000534382
0.00225317
-0.000525557
0.00237857
-0.000514995
0.00250142
-0.000502881
0.00262135
-0.0004894
0.00273807
-0.000474735
0.0028513
-0.000459066
0.00296081
-0.000442569
0.00306643
-0.000425411
0.00316801
-0.000407755
0.00326545
-0.000389753
0.00335867
-0.000371549
0.00344763
-0.000353274
0.00353233
-0.000335053
0.0036128
-0.000316995
0.00368908
-0.000299202
0.00376124
-0.000281761
0.00382938
-0.000264749
0.0038936
-0.000248228
0.00395401
-0.000232244
-0.000216819
0.00401075
5.88953e-06
7.39552e-05
1.13565e-05
0.000146196
1.80567e-05
0.000161837
2.56121e-05
0.000145371
3.51207e-05
0.000108848
4.77319e-05
6.07673e-05
6.56739e-05
4.60535e-06
8.79636e-05
-5.17413e-05
0.000117156
-0.000110582
0.000153616
-0.000168952
0.000197759
-0.000225818
0.000249735
-0.000280449
0.000309618
-0.000332274
0.000377273
-0.000380943
0.000452467
-0.000426176
0.000534873
-0.00046777
0.00062408
-0.00050559
0.000719612
-0.00053955
0.00082094
-0.000569607
0.000927496
-0.000595759
0.00103868
-0.000618034
0.00115389
-0.000636489
0.00127249
-0.00065119
0.00139386
-0.000662212
0.00151735
-0.000669663
0.00164235
-0.000673702
0.00176826
-0.000674526
0.0018945
-0.000672333
0.00202053
-0.00066732
0.00214584
-0.000659689
0.00226994
-0.000649655
0.00239238
-0.000637436
0.00251276
-0.000623257
0.0026307
-0.000607343
0.00274588
-0.000589917
0.00285802
-0.000571202
0.00296686
-0.000551412
0.00307221
-0.000530758
0.00317389
-0.00050944
0.00327179
-0.000487649
0.0033658
-0.000465564
0.00345588
-0.000443352
0.003542
-0.000421168
0.00362415
-0.000399152
0.00370238
-0.000377431
0.00377674
-0.000356116
0.00384729
-0.000335304
0.00391414
-0.000315076
0.00397739
-0.00029549
-0.000276568
0.00403713
2.05868e-05
5.33685e-05
5.21639e-05
0.000114619
8.59866e-05
0.000128015
0.000118545
0.000112813
0.000148821
7.85717e-05
0.000177897
3.16914e-05
0.00020509
-2.25877e-05
0.000234581
-8.12325e-05
0.000267019
-0.000143019
0.0003037
-0.000205633
0.000345581
-0.000267698
0.000393331
-0.000328199
0.000447416
-0.000386359
0.000508082
-0.000441609
0.00057541
-0.000493503
0.00064934
-0.0005417
0.000729691
-0.000585942
0.000816186
-0.000626044
0.000908461
-0.000661882
0.00100609
-0.000693387
0.00110859
-0.000720537
0.00121545
-0.00074335
0.00132613
-0.000761867
0.00144006
-0.000776137
0.00155664
-0.000786245
0.00167529
-0.000792352
0.00179543
-0.000794671
0.00191651
-0.000793413
0.00203799
-0.000788793
0.00215933
-0.000781037
0.00228007
-0.000770386
0.00239972
-0.000757091
0.00251787
-0.000741409
0.00263413
-0.000723603
0.00274815
-0.000703936
0.00285962
-0.000682669
0.00296826
-0.000660058
0.00307386
-0.000636353
0.00317621
-0.000611793
0.00327517
-0.000586608
0.00337062
-0.000561015
0.00346249
-0.000535215
0.00355071
-0.000509395
0.00363529
-0.000483726
0.00371622
-0.000458362
0.00379354
-0.000433441
0.00386732
-0.00040908
0.00393762
-0.000385379
0.00400454
-0.000362413
-0.000340206
0.00406818
3.7616e-05
1.57525e-05
9.98633e-05
5.23713e-05
0.000161966
6.59118e-05
0.000217903
5.68761e-05
0.000266462
3.00125e-05
0.000309196
-1.10424e-05
0.000345197
-5.85891e-05
0.000379235
-0.00011527
0.000412997
-0.000176781
0.000448251
-0.000240888
0.000486445
-0.000305892
0.000528713
-0.000370467
0.000575914
-0.00043356
0.000628647
-0.000494342
0.000687297
-0.000552153
0.000752064
-0.000606467
0.000822993
-0.000656871
0.000899994
-0.000703045
0.000982867
-0.000744755
0.00107132
-0.000781838
0.00116498
-0.000814198
0.00126343
-0.000841798
0.00136619
-0.000864631
0.00147276
-0.00088271
0.00158261
-0.000896086
0.00169515
-0.0009049
0.00180985
-0.000909364
0.00192614
-0.000909701
0.00204348
-0.000906134
0.00216134
-0.000898905
0.00227923
-0.000888276
0.00239667
-0.000874525
0.0025132
-0.000857941
0.00262842
-0.000838821
0.00274194
-0.000817462
0.00285344
-0.000794167
0.00296261
-0.000769229
0.0030692
-0.00074294
0.00317299
-0.000715578
0.00327379
-0.000687412
0.00337147
-0.000658696
0.00346592
-0.000629668
0.00355708
-0.000600551
0.0036449
-0.000571545
0.00372937
-0.000542835
0.00381051
-0.000514583
0.00388837
-0.000486934
0.00396299
-0.000460006
0.00403447
-0.000433891
0.00410291
-0.00040864
0.00402582
-5.75164e-05
-8.49911e-09
0.00408084
-5.50138e-05
-8.8237e-09
0.00413337
-5.25162e-05
-9.02626e-09
0.00418342
-5.0042e-05
-9.09785e-09
0.00423103
-4.76039e-05
-9.01493e-09
0.00427625
-4.52127e-05
-8.76475e-09
0.00431914
-4.28783e-05
-8.34601e-09
0.00435976
-4.06097e-05
-7.76759e-09
0.00439818
-3.84149e-05
-7.04543e-09
0.00443448
-3.63009e-05
-6.20133e-09
0.00446876
-3.42737e-05
-5.26047e-09
0.00450111
-3.2338e-05
-4.2461e-09
0.00453161
-3.04971e-05
-3.18116e-09
0.00456036
-2.87533e-05
-2.08902e-09
0.00458747
-2.71074e-05
-9.90765e-10
0.00461303
-2.5559e-05
9.7957e-11
0.00463713
-2.41066e-05
1.16189e-09
0.00465988
-2.27475e-05
2.1894e-09
0.00468135
-2.14781e-05
3.17436e-09
0.00470164
-2.0294e-05
4.11355e-09
0.00472083
-1.919e-05
5.00446e-09
0.00473898
-1.81601e-05
5.84773e-09
0.00475618
-1.71977e-05
6.646e-09
0.00477246
-1.62958e-05
7.39966e-09
0.0047879
-1.54468e-05
8.10694e-09
0.00480254
-1.46432e-05
8.76484e-09
0.0048164
-1.38776e-05
9.36733e-09
0.00482954
-1.31433e-05
9.90336e-09
0.00484196
-1.24347e-05
1.03602e-08
0.0048537
-1.17481e-05
1.07234e-08
0.00486477
-1.10818e-05
1.09761e-08
0.0048752
-1.04366e-05
1.11039e-08
0.004885
-9.81549e-06
1.10969e-08
0.00489421
-9.22309e-06
1.09497e-08
0.00490287
-8.66485e-06
1.06618e-08
0.004911
-8.14592e-06
1.02429e-08
0.00491866
-7.67007e-06
9.70813e-09
0.00492589
-7.23889e-06
9.0758e-09
0.00493274
-6.85141e-06
8.36952e-09
0.00493923
-6.50427e-06
7.6147e-09
0.00494542
-6.19223e-06
6.83342e-09
0.00495132
-5.90908e-06
6.04562e-09
0.00495696
-5.64845e-06
5.26964e-09
0.00496236
-5.40469e-06
4.52734e-09
0.00496753
-5.17285e-06
3.82033e-09
0.00497248
-4.94998e-06
3.1335e-09
0.00497721
-4.73398e-06
2.50094e-09
0.00498173
-4.52363e-06
1.91325e-09
0.00498605
-4.3185e-06
1.37291e-09
0.00499017
-4.11857e-06
8.78817e-10
0.00499409
-3.92406e-06
4.29621e-10
0.00499783
-3.73521e-06
2.10991e-11
0.00500138
-3.55224e-06
-3.51529e-10
0.00500476
-3.37529e-06
-6.95418e-10
0.00500796
-3.20442e-06
-1.02086e-09
0.005011
-3.03964e-06
-1.33716e-09
0.00501388
-2.88089e-06
-1.65393e-09