/*--------------------------------*- C++ -*----------------------------------*\
| =========                 |                                                 |
| \\      /  F ield         | OpenFOAM: The Open Source CFD Toolbox           |
|  \\    /   O peration     | Version:  2412                                  |
|   \\  /    A nd           | Website:  www.openfoam.com                      |
|    \\/     M anipulation  |                                                 |
\*---------------------------------------------------------------------------*/
FoamFile
{
    version     2.0;
    format      ascii;
    arch        "LSB;label=32;scalar=64";
    class       volVectorField;
    location    "23";
    object      U;
}
// * * * * * * * * * * * * * * * * * * * * * * * * * * * * * * * * * * * * * //

dimensions      [0 1 -1 0 0 0 0];

internalField   nonuniform List<vector> 
63420
(
(0.0999997 4.37606e-07 0)
(0.099995 1.30193e-06 0)
(0.0999851 2.15467e-06 0)
(0.0999707 2.99967e-06 0)
(0.0999521 3.83898e-06 0)
(0.0999293 4.67459e-06 0)
(0.0999026 5.51917e-06 0)
(0.099872 6.40954e-06 0)
(0.0998373 7.41149e-06 0)
(0.099798 8.60727e-06 0)
(0.0997531 1.00676e-05 0)
(0.0997015 1.182e-05 0)
(0.0996421 1.38296e-05 0)
(0.0995741 1.59996e-05 0)
(0.0994976 1.81928e-05 0)
(0.0994131 2.02639e-05 0)
(0.0993217 2.20918e-05 0)
(0.099225 2.3601e-05 0)
(0.0991247 2.47698e-05 0)
(0.0990222 2.56258e-05 0)
(0.0989189 2.62317e-05 0)
(0.0988157 2.66694e-05 0)
(0.098713 2.70237e-05 0)
(0.098611 2.73713e-05 0)
(0.0985097 2.77738e-05 0)
(0.0984088 2.82752e-05 0)
(0.0983078 2.8903e-05 0)
(0.0982064 2.96708e-05 0)
(0.0981041 3.0582e-05 0)
(0.0980005 3.16333e-05 0)
(0.0978953 3.28178e-05 0)
(0.0977882 3.41272e-05 0)
(0.0976789 3.55536e-05 0)
(0.0975672 3.70901e-05 0)
(0.0974528 3.87314e-05 0)
(0.0973357 4.0474e-05 0)
(0.0972157 4.2316e-05 0)
(0.0970927 4.42569e-05 0)
(0.0969666 4.62976e-05 0)
(0.0968372 4.84398e-05 0)
(0.0967045 5.0686e-05 0)
(0.0965684 5.30394e-05 0)
(0.0964288 5.55037e-05 0)
(0.0962855 5.80828e-05 0)
(0.0961385 6.07811e-05 0)
(0.0959877 6.36034e-05 0)
(0.0958331 6.65544e-05 0)
(0.0956744 6.96394e-05 0)
(0.0955117 7.28638e-05 0)
(0.0953447 7.62337e-05 0)
(0.0951735 7.97558e-05 0)
(0.0949979 8.34387e-05 0)
(0.0948178 8.72964e-05 0)
(0.0946331 9.13591e-05 0)
(0.0944436 9.57033e-05 0)
(0.0999997 1.31278e-06 0)
(0.099995 3.90537e-06 0)
(0.0999851 6.46307e-06 0)
(0.0999708 8.99753e-06 0)
(0.0999521 1.1515e-05 0)
(0.0999293 1.40215e-05 0)
(0.0999026 1.6555e-05 0)
(0.0998721 1.92252e-05 0)
(0.0998375 2.22288e-05 0)
(0.0997982 2.58114e-05 0)
(0.0997534 3.01846e-05 0)
(0.0997018 3.54314e-05 0)
(0.0996425 4.14477e-05 0)
(0.0995747 4.79451e-05 0)
(0.0994983 5.45144e-05 0)
(0.099414 6.0722e-05 0)
(0.0993228 6.62054e-05 0)
(0.0992263 7.07385e-05 0)
(0.0991261 7.42563e-05 0)
(0.0990238 7.68397e-05 0)
(0.0989206 7.86758e-05 0)
(0.0988174 8.0008e-05 0)
(0.0987147 8.10897e-05 0)
(0.0986128 8.21496e-05 0)
(0.0985115 8.33716e-05 0)
(0.0984106 8.48876e-05 0)
(0.0983097 8.67797e-05 0)
(0.0982083 8.9089e-05 0)
(0.098106 9.1826e-05 0)
(0.0980025 9.49812e-05 0)
(0.0978974 9.85343e-05 0)
(0.0977904 0.000102461 0)
(0.0976812 0.000106737 0)
(0.0975695 0.000111343 0)
(0.0974553 0.000116262 0)
(0.0973384 0.000121485 0)
(0.0972185 0.000127005 0)
(0.0970957 0.000132822 0)
(0.0969697 0.000138938 0)
(0.0968406 0.000145357 0)
(0.0967081 0.000152089 0)
(0.0965722 0.000159141 0)
(0.0964328 0.000166525 0)
(0.0962898 0.000174253 0)
(0.0961431 0.000182338 0)
(0.0959926 0.000190793 0)
(0.0958383 0.000199634 0)
(0.09568 0.000208876 0)
(0.0955176 0.000218536 0)
(0.095351 0.00022863 0)
(0.0951802 0.000239179 0)
(0.0950051 0.000250209 0)
(0.0948254 0.000261761 0)
(0.0946412 0.000273923 0)
(0.0944522 0.00028692 0)
(0.0999997 2.18708e-06 0)
(0.099995 6.50602e-06 0)
(0.0999851 1.07669e-05 0)
(0.0999708 1.4989e-05 0)
(0.0999522 1.91828e-05 0)
(0.0999294 2.33586e-05 0)
(0.0999028 2.75788e-05 0)
(0.0998723 3.20257e-05 0)
(0.0998377 3.70252e-05 0)
(0.0997985 4.2985e-05 0)
(0.0997538 5.02569e-05 0)
(0.0997024 5.89801e-05 0)
(0.0996433 6.89836e-05 0)
(0.0995758 7.97902e-05 0)
(0.0994997 9.07216e-05 0)
(0.0994157 0.000101058 0)
(0.0993249 0.000110197 0)
(0.0992287 0.000117762 0)
(0.0991288 0.000123641 0)
(0.0990268 0.000127969 0)
(0.0989238 0.000131053 0)
(0.0988208 0.000133296 0)
(0.0987182 0.000135118 0)
(0.0986164 0.000136899 0)
(0.0985152 0.000138946 0)
(0.0984143 0.000141477 0)
(0.0983134 0.000144629 0)
(0.0982121 0.000148473 0)
(0.0981099 0.000153026 0)
(0.0980065 0.000158273 0)
(0.0979016 0.00016418 0)
(0.0977947 0.000170709 0)
(0.0976857 0.000177819 0)
(0.0975743 0.000185478 0)
(0.0974603 0.000193658 0)
(0.0973436 0.000202343 0)
(0.0972241 0.000211524 0)
(0.0971016 0.000221197 0)
(0.096976 0.000231368 0)
(0.0968473 0.000242044 0)
(0.0967152 0.000253238 0)
(0.0965798 0.000264966 0)
(0.0964409 0.000277245 0)
(0.0962984 0.000290095 0)
(0.0961523 0.000303538 0)
(0.0960024 0.000317597 0)
(0.0958487 0.000332295 0)
(0.095691 0.000347659 0)
(0.0955294 0.000363714 0)
(0.0953636 0.00038049 0)
(0.0951936 0.00039802 0)
(0.0950193 0.000416346 0)
(0.0948406 0.000435532 0)
(0.0946574 0.000455721 0)
(0.0944694 0.000477266 0)
(0.0999997 3.05992e-06 0)
(0.099995 9.10197e-06 0)
(0.0999852 1.50632e-05 0)
(0.0999709 2.09698e-05 0)
(0.0999523 2.6837e-05 0)
(0.0999296 3.26791e-05 0)
(0.099903 3.85828e-05 0)
(0.0998725 4.48011e-05 0)
(0.0998381 5.17869e-05 0)
(0.099799 6.01082e-05 0)
(0.0997544 7.02557e-05 0)
(0.0997033 8.24262e-05 0)
(0.0996445 9.63848e-05 0)
(0.0995774 0.000111471 0)
(0.0995018 0.000126741 0)
(0.0994183 0.000141194 0)
(0.099328 0.000153989 0)
(0.0992323 0.000164596 0)
(0.0991329 0.000172859 0)
(0.0990312 0.000178957 0)
(0.0989285 0.000183317 0)
(0.0988257 0.000186497 0)
(0.0987234 0.000189082 0)
(0.0986216 0.0001916 0)
(0.0985205 0.000194478 0)
(0.0984197 0.000198025 0)
(0.098319 0.000202432 0)
(0.0982178 0.000207798 0)
(0.0981157 0.00021415 0)
(0.0980125 0.000221468 0)
(0.0979077 0.000229708 0)
(0.0978011 0.000238814 0)
(0.0976924 0.000248732 0)
(0.0975813 0.000259416 0)
(0.0974678 0.000270829 0)
(0.0973515 0.000282947 0)
(0.0972325 0.000295757 0)
(0.0971105 0.000309256 0)
(0.0969854 0.000323449 0)
(0.0968573 0.000338347 0)
(0.0967259 0.000353968 0)
(0.0965911 0.000370332 0)
(0.096453 0.000387466 0)
(0.0963113 0.000405394 0)
(0.096166 0.000424149 0)
(0.096017 0.00044376 0)
(0.0958642 0.00046426 0)
(0.0957076 0.000485686 0)
(0.095547 0.000508073 0)
(0.0953824 0.000531462 0)
(0.0952136 0.000555896 0)
(0.0950406 0.000581432 0)
(0.0948633 0.000608156 0)
(0.0946815 0.000636248 0)
(0.0944952 0.000666164 0)
(0.0999997 3.93079e-06 0)
(0.099995 1.16913e-05 0)
(0.0999852 1.93488e-05 0)
(0.0999709 2.69356e-05 0)
(0.0999524 3.44721e-05 0)
(0.0999298 4.19765e-05 0)
(0.0999033 4.9559e-05 0)
(0.0998729 5.75415e-05 0)
(0.0998385 6.65008e-05 0)
(0.0997996 7.7162e-05 0)
(0.0997553 9.01538e-05 0)
(0.0997045 0.000105732 0)
(0.0996461 0.000123602 0)
(0.0995795 0.000142926 0)
(0.0995046 0.000162504 0)
(0.0994217 0.000181057 0)
(0.0993321 0.000197507 0)
(0.0992371 0.000211173 0)
(0.0991382 0.000221847 0)
(0.099037 0.000229752 0)
(0.0989347 0.000235425 0)
(0.0988322 0.000239578 0)
(0.0987301 0.000242954 0)
(0.0986285 0.000246228 0)
(0.0985275 0.000249949 0)
(0.0984269 0.000254511 0)
(0.0983262 0.000260164 0)
(0.0982252 0.000267036 0)
(0.0981234 0.000275164 0)
(0.0980204 0.000284527 0)
(0.0979159 0.000295067 0)
(0.0978096 0.000306716 0)
(0.0977013 0.000319406 0)
(0.0975907 0.000333077 0)
(0.0974776 0.000347683 0)
(0.097362 0.000363194 0)
(0.0972435 0.000379592 0)
(0.0971222 0.000396873 0)
(0.0969979 0.000415042 0)
(0.0968706 0.000434114 0)
(0.09674 0.000454111 0)
(0.0966062 0.000475059 0)
(0.096469 0.000496989 0)
(0.0963283 0.000519936 0)
(0.0961842 0.000543936 0)
(0.0960364 0.000569029 0)
(0.0958848 0.000595257 0)
(0.0957295 0.000622663 0)
(0.0955704 0.000651294 0)
(0.0954072 0.000681198 0)
(0.0952401 0.000712431 0)
(0.0950688 0.000745059 0)
(0.0948933 0.000779185 0)
(0.0947135 0.000815012 0)
(0.0945293 0.000853053 0)
(0.0999997 4.79931e-06 0)
(0.0999951 1.42723e-05 0)
(0.0999853 2.3621e-05 0)
(0.0999711 3.28825e-05 0)
(0.0999526 4.20829e-05 0)
(0.09993 5.12443e-05 0)
(0.0999036 6.04997e-05 0)
(0.0998734 7.02371e-05 0)
(0.0998391 8.11539e-05 0)
(0.0998004 9.41285e-05 0)
(0.0997564 0.000109926 0)
(0.0997059 0.000128863 0)
(0.0996481 0.000150591 0)
(0.0995821 0.000174103 0)
(0.0995079 0.00019795 0)
(0.0994259 0.00022058 0)
(0.099337 0.000240683 0)
(0.0992428 0.000257427 0)
(0.0991446 0.000270546 0)
(0.099044 0.0002803 0)
(0.0989422 0.000287334 0)
(0.0988401 0.000292502 0)
(0.0987382 0.000296704 0)
(0.0986369 0.000300759 0)
(0.0985361 0.000305334 0)
(0.0984357 0.000310911 0)
(0.0983352 0.000317799 0)
(0.0982344 0.000326156 0)
(0.0981328 0.000336032 0)
(0.0980301 0.000347403 0)
(0.097926 0.000360205 0)
(0.0978202 0.000374354 0)
(0.0977123 0.00038977 0)
(0.0976023 0.00040638 0)
(0.0974899 0.00042413 0)
(0.0973749 0.000442982 0)
(0.0972573 0.000462915 0)
(0.0971368 0.000483922 0)
(0.0970134 0.00050601 0)
(0.0968871 0.000529196 0)
(0.0967576 0.000553504 0)
(0.0966249 0.000578968 0)
(0.0964889 0.000605623 0)
(0.0963496 0.00063351 0)
(0.0962068 0.000662673 0)
(0.0960604 0.00069316 0)
(0.0959105 0.000725019 0)
(0.0957568 0.000758302 0)
(0.0955994 0.000793064 0)
(0.0954381 0.000829362 0)
(0.0952729 0.00086726 0)
(0.0951038 0.000906832 0)
(0.0949305 0.000948188 0)
(0.0947531 0.000991536 0)
(0.0945715 0.00103739 0)
(0.0999997 5.66476e-06 0)
(0.0999951 1.68435e-05 0)
(0.0999853 2.78767e-05 0)
(0.0999712 3.88063e-05 0)
(0.0999528 4.96641e-05 0)
(0.0999303 6.04762e-05 0)
(0.099904 7.13972e-05 0)
(0.0998739 8.28786e-05 0)
(0.0998398 9.5734e-05 0)
(0.0998014 0.000110991 0)
(0.0997576 0.000129549 0)
(0.0997076 0.000151788 0)
(0.0996504 0.000177312 0)
(0.0995852 0.000204953 0)
(0.0995118 0.000233022 0)
(0.0994306 0.000259704 0)
(0.0993427 0.000283459 0)
(0.0992494 0.000303299 0)
(0.099152 0.000318901 0)
(0.0990521 0.000330554 0)
(0.0989509 0.000339001 0)
(0.0988492 0.000345233 0)
(0.0987478 0.0003503 0)
(0.0986467 0.000355164 0)
(0.0985462 0.000360606 0)
(0.0984459 0.000367197 0)
(0.0983457 0.000375305 0)
(0.0982452 0.000385122 0)
(0.0981439 0.000396711 0)
(0.0980416 0.00041005 0)
(0.097938 0.000425066 0)
(0.0978327 0.000441664 0)
(0.0977254 0.000459751 0)
(0.0976161 0.000479245 0)
(0.0975044 0.000500079 0)
(0.0973903 0.000522211 0)
(0.0972736 0.000545614 0)
(0.0971542 0.000570281 0)
(0.0970319 0.000596218 0)
(0.0969067 0.000623444 0)
(0.0967785 0.000651988 0)
(0.0966472 0.000681885 0)
(0.0965126 0.000713177 0)
(0.0963748 0.000745912 0)
(0.0962337 0.000780138 0)
(0.0960891 0.000815911 0)
(0.095941 0.000853286 0)
(0.0957893 0.000892323 0)
(0.095634 0.000933082 0)
(0.0954749 0.000975629 0)
(0.0953121 0.00102003 0)
(0.0951454 0.00106637 0)
(0.0949748 0.00111476 0)
(0.0948002 0.00116536 0)
(0.0946217 0.00121862 0)
(0.0942481 0.000100551 -4.46789e-24)
(0.0940448 0.000105671 -4.55575e-24)
(0.0938316 0.000111139 -3.173e-26)
(0.0936079 0.000116976 1.40014e-23)
(0.0933731 0.000123212 -4.63774e-24)
(0.0931263 0.000129881 -4.77454e-24)
(0.0928668 0.000137023 -1.47055e-23)
(0.0925937 0.000144681 1.46009e-23)
(0.0923059 0.000152903 4.9974e-24)
(0.0920025 0.000161743 0)
(0.0916822 0.000171263 5.16464e-24)
(0.0913438 0.00018153 -5.25459e-24)
(0.0909859 0.000192621 4.32363e-23)
(0.0906068 0.000204621 -9.26716e-23)
(0.090205 0.000217627 4.95388e-23)
(0.0897785 0.000231747 4.01581e-23)
(0.0893252 0.000247107 5.15308e-23)
(0.0888428 0.000263846 -5.90263e-24)
(0.0883286 0.000282123 6.0323e-24)
(0.0877797 0.000302124 -6.16939e-24)
(0.087193 0.000324057 0)
(0.0865647 0.000348166 6.46821e-24)
(0.0858907 0.000374733 -6.63125e-24)
(0.0851664 0.000404085 0)
(0.0843864 0.000436605 -6.98833e-24)
(0.0835449 0.000472743 0)
(0.0826348 0.000513034 -7.39269e-24)
(0.0816484 0.000558112 -1.23894e-22)
(0.0805764 0.000608737 1.31558e-22)
(0.0794083 0.000665826 -1.32059e-22)
(0.0781316 0.000730489 1.31857e-22)
(0.076732 0.000804079 0)
(0.0751922 0.000888251 0)
(0.0734919 0.000985033 1.6156e-22)
(0.0716068 0.0010969 -1.52011e-22)
(0.0695077 0.00122688 0)
(0.0671599 0.00137856 0)
(0.0645215 0.00155614 0)
(0.0615431 0.00176422 0)
(0.0581667 0.00200739 0)
(0.054327 0.00228929 0)
(0.0499536 0.00261085 0)
(0.0449779 0.00296731 0)
(0.0393461 0.00334357 0)
(0.0330438 0.00370711 -1.48718e-23)
(0.0261339 0.003998 -5.10093e-22)
(0.0187998 0.00411669 5.09328e-22)
(0.0114172 0.00391115 5.5314e-22)
(0.00488674 0.00314801 -5.5231e-22)
(0.000995882 0.00146287 0)
(0.0942572 0.000301421 -4.52061e-24)
(0.094054 0.000316765 -9.22227e-24)
(0.093841 0.000333134 -4.83645e-24)
(0.0936176 0.000350607 4.50223e-24)
(0.0933831 0.000369274 -4.70286e-24)
(0.0931366 0.00038924 3.37107e-23)
(0.0928775 0.000410622 -5.2943e-23)
(0.0926047 0.00043355 4.91845e-24)
(0.0923175 0.000458169 6.56658e-23)
(0.0920146 0.000484643 -9.06914e-23)
(0.0916949 0.000513152 -8.85942e-23)
(0.0913572 0.000543901 7.80662e-23)
(0.091 0.000577119 0)
(0.0906218 0.000613062 5.45398e-24)
(0.090221 0.00065202 -1.66707e-23)
(0.0897956 0.000694321 -1.89106e-22)
(0.0893435 0.000740336 1.81524e-22)
(0.0888624 0.000790484 -1.92966e-22)
(0.0883497 0.000845247 -1.81231e-23)
(0.0878026 0.000905173 6.18292e-24)
(0.0872179 0.000970896 0)
(0.0865918 0.00104314 -6.48497e-24)
(0.0859204 0.00112276 -2.09019e-22)
(0.0851991 0.00121072 4.36821e-22)
(0.0844226 0.00130818 2.4102e-22)
(0.083585 0.00141649 -4.54546e-22)
(0.0826796 0.00153724 4.89561e-22)
(0.0816986 0.00167234 -4.96767e-22)
(0.080633 0.00182406 -7.88383e-24)
(0.0794726 0.00199514 0)
(0.0782051 0.00218889 0)
(0.0768166 0.00240936 0)
(0.0752903 0.00266147 0)
(0.0736066 0.00295125 -9.36402e-24)
(0.0717422 0.00328609 -6.3484e-22)
(0.0696691 0.00367492 -2.66928e-23)
(0.0673541 0.0041284 6.59813e-22)
(0.0647575 0.00465889 7.18159e-22)
(0.0618322 0.00527992 -7.17208e-22)
(0.0585236 0.00600488 -2.38067e-23)
(0.0547696 0.0068442 -2.48573e-23)
(0.0505031 0.00780008 -8.56481e-22)
(0.0456574 0.00885766 8.28278e-22)
(0.0401779 0.00997113 -2.81967e-23)
(0.0340421 0.011043 1.49758e-23)
(0.0272935 0.0118943 -1.03726e-21)
(0.0200794 0.0122286 1.03687e-21)
(0.0127135 0.0115945 -2.16282e-21)
(0.00597445 0.00930781 2.12665e-21)
(0.00143771 0.00429404 -2.17882e-21)
(0.0942752 0.000501294 -2.67388e-23)
(0.0940724 0.000526785 -9.38786e-24)
(0.0938599 0.000553961 3.61985e-23)
(0.093637 0.000582966 -7.44881e-23)
(0.093403 0.000613956 1.59404e-22)
(0.0931572 0.000647103 -7.55192e-23)
(0.0928988 0.000682604 1.41799e-26)
(0.092627 0.000720675 9.80951e-24)
(0.0923407 0.00076156 1.7109e-22)
(0.0920389 0.00080553 -1.60938e-22)
(0.0917205 0.000852886 0)
(0.0913842 0.00090397 1.4574e-26)
(0.0910286 0.000959161 0)
(0.0906522 0.00101889 1.87355e-22)
(0.0902533 0.00108363 -1.65145e-22)
(0.0898301 0.00115394 -3.56143e-22)
(0.0893805 0.00123043 1.98379e-23)
(0.0889022 0.0013138 -3.75039e-22)
(0.0883927 0.00140485 1.21267e-23)
(0.0878492 0.00150449 -4.0186e-22)
(0.0872685 0.00161379 4.14171e-22)
(0.0866471 0.00173395 -4.22141e-22)
(0.0859811 0.00186637 4.35083e-22)
(0.0852658 0.00201269 1.36955e-23)
(0.0844964 0.00217481 -1.4072e-23)
(0.083667 0.00235498 1.4472e-23)
(0.082771 0.00255586 -4.84803e-22)
(0.0818012 0.0027806 4.99728e-22)
(0.0807488 0.00303297 5.31748e-22)
(0.0796039 0.0033175 -5.15428e-22)
(0.0783552 0.00363967 0)
(0.0769892 0.00400614 0)
(0.0754904 0.00442503 1.81083e-23)
(0.0738406 0.00490622 1.24762e-21)
(0.0720182 0.00546177 2.97188e-23)
(0.0699977 0.00610624 -1.25543e-21)
(0.067749 0.00685691 0)
(0.0652365 0.00773365 -2.1923e-23)
(0.0624185 0.00875807 1.52611e-21)
(0.0592463 0.00995116 -3.04604e-21)
(0.0556646 0.0113286 3.22784e-21)
(0.0516127 0.0128921 9.64663e-23)
(0.0470282 0.0146149 -1.67599e-21)
(0.0418538 0.016419 -1.81255e-21)
(0.0360514 0.018142 1.86799e-21)
(0.0296245 0.0194901 1.44113e-24)
(0.0226464 0.0199765 -3.173e-23)
(0.0153087 0.0188602 2.09002e-21)
(0.00813269 0.0150525 -2.02385e-21)
(0.00228667 0.00687928 -2.02437e-21)
(0.0943021 0.000699487 1.76163e-23)
(0.0940999 0.000734965 -8.94136e-24)
(0.0938881 0.00077278 1.94935e-26)
(0.093666 0.000813134 9.20367e-24)
(0.0934329 0.000856249 -1.95984e-26)
(0.0931882 0.000902368 1.52969e-22)
(0.092931 0.000951767 -2.89082e-22)
(0.0926606 0.00100475 1.55378e-22)
(0.0923758 0.00106166 -9.94997e-24)
(0.0920758 0.00112287 1.83954e-22)
(0.0917593 0.00118881 -1.63628e-22)
(0.0914252 0.00125994 -3.39698e-22)
(0.0910721 0.00133681 6.85961e-22)
(0.0906985 0.00142002 -6.99601e-22)
(0.0903027 0.00151022 7.13901e-22)
(0.0898829 0.00160819 -7.17595e-22)
(0.0894373 0.00171479 -3.7993e-22)
(0.0889634 0.001831 2.24913e-26)
(0.0884589 0.00195792 0)
(0.087921 0.00209686 -3.91334e-22)
(0.0873467 0.00224926 4.03618e-22)
(0.0867326 0.00241683 0)
(0.0860749 0.00260153 -8.71973e-22)
(0.0853692 0.00280562 8.57823e-22)
(0.0846107 0.00303178 1.42059e-23)
(0.0837941 0.00328313 -3.70298e-26)
(0.082913 0.00356337 1.50158e-23)
(0.0819605 0.00387688 0)
(0.0809286 0.00422888 -5.31023e-26)
(0.0798081 0.00462567 0)
(0.0785884 0.00507481 -1.70461e-23)
(0.0772575 0.00558547 1.15255e-21)
(0.0758012 0.00616878 -1.15224e-21)
(0.0742036 0.00683827 -1.90569e-23)
(0.0724456 0.00761032 3.94383e-23)
(0.0705057 0.00850459 -1.35912e-21)
(0.0683583 0.00954427 1.31687e-21)
(0.065974 0.0107557 2.23022e-23)
(0.0633187 0.0121672 -3.55403e-25)
(0.0603529 0.0138055 2.3771e-23)
(0.0570315 0.015689 -1.63134e-21)
(0.0533034 0.0178161 3.29701e-21)
(0.049112 0.0201454 -1.71829e-21)
(0.0443966 0.0225651 1.77546e-21)
(0.0390958 0.0248493 -1.85868e-21)
(0.0331522 0.0265971 -3.69094e-21)
(0.0265234 0.0271488 7.52976e-21)
(0.0192173 0.0254909 -3.81181e-21)
(0.011406 0.0201673 0)
(0.00354759 0.00910792 -3.58563e-21)
(0.0943378 0.000895347 -8.73728e-24)
(0.0941364 0.000940592 -3.5702e-23)
(0.0939255 0.000988803 1.08246e-22)
(0.0937046 0.00104025 -1.46187e-22)
(0.0934728 0.00109521 6.43911e-23)
(0.0932297 0.00115401 9.44588e-24)
(0.0929743 0.00121701 -9.60582e-24)
(0.0927058 0.00128459 -2.46135e-26)
(0.0924232 0.00135718 9.94806e-24)
(0.0921257 0.00143529 -2.0238e-23)
(0.0918121 0.00151944 -3.33126e-22)
(0.0914811 0.00161024 3.43801e-22)
(0.0911314 0.00170838 -3.35935e-22)
(0.0907617 0.00181461 3.46778e-22)
(0.0903703 0.0019298 0)
(0.0899555 0.00205493 -2.48052e-26)
(0.0895154 0.00219109 0)
(0.0890477 0.00233955 -3.75039e-22)
(0.0885502 0.00250173 3.99408e-22)
(0.0880203 0.00267926 -1.25555e-23)
(0.0874551 0.00287403 -8.46581e-22)
(0.0868512 0.00308819 8.34085e-22)
(0.0862052 0.00332426 -1.3571e-23)
(0.085513 0.00358514 0)
(0.0847701 0.00387423 0)
(0.0839714 0.00419552 -9.73397e-22)
(0.0831113 0.0045537 9.43824e-22)
(0.0821833 0.00495434 0)
(0.0811802 0.00540408 -3.23909e-23)
(0.0800937 0.00591086 0)
(0.0789147 0.00648421 1.73453e-23)
(0.0776326 0.00713562 -1.78741e-23)
(0.0762356 0.007879 -1.86172e-23)
(0.0747102 0.00873111 1.91851e-23)
(0.0730413 0.00971215 1.26233e-21)
(0.071212 0.0108461 -1.30286e-21)
(0.0692031 0.0121611 2.83125e-21)
(0.0669935 0.0136884 -2.83306e-21)
(0.0645589 0.015461 3.0056e-21)
(0.0618722 0.017509 8.53572e-23)
(0.0589015 0.0198507 -3.16616e-21)
(0.0556086 0.0224781 -2.52706e-23)
(0.0519452 0.0253326 1.25318e-24)
(0.0478469 0.0282683 1.65694e-24)
(0.0432235 0.0310011 2.18418e-24)
(0.0379415 0.0330374 -5.46192e-23)
(0.0318036 0.0335768 -2.50704e-23)
(0.0245603 0.0313726 -2.38487e-23)
(0.0159282 0.0246169 0)
(0.00524386 0.0109731 7.3847e-24)
(0.0943821 0.00108825 -4.33584e-23)
(0.0941817 0.00114303 2.60817e-23)
(0.0939722 0.00120142 8.92713e-24)
(0.0937529 0.00126374 1.37078e-22)
(0.093523 0.00133035 -1.37128e-22)
(0.093282 0.00140164 1.41928e-22)
(0.093029 0.00147804 -3.15078e-22)
(0.0927632 0.00156002 4.48684e-22)
(0.0924837 0.00164814 -3.14305e-22)
(0.0921895 0.00174296 -3.26185e-22)
(0.0918797 0.00184515 -1.64434e-23)
(0.0915529 0.00195546 6.62598e-22)
(0.091208 0.00207471 -6.98086e-22)
(0.0908435 0.00220384 3.25631e-22)
(0.090458 0.00234389 3.51566e-22)
(0.0900498 0.00249606 3.67672e-22)
(0.089617 0.0026617 -2.84602e-23)
(0.0891577 0.00284233 7.49342e-22)
(0.0886697 0.0030397 7.7413e-22)
(0.0881504 0.0032558 1.96997e-23)
(0.0875972 0.00349294 -8.20847e-22)
(0.0870072 0.00375374 0)
(0.0863769 0.00404127 0)
(0.0857027 0.00435906 -9.15623e-22)
(0.0849806 0.00471125 9.02472e-22)
(0.084206 0.00510269 9.7242e-22)
(0.0833738 0.00553908 -9.73861e-22)
(0.0824784 0.00602716 0)
(0.0815137 0.00657493 1.08749e-21)
(0.0804725 0.00719193 -1.08959e-21)
(0.0793474 0.00788957 0)
(0.0781298 0.00868148 -2.35809e-21)
(0.0768106 0.00958404 2.37994e-21)
(0.0753799 0.0106168 -1.96692e-23)
(0.0738271 0.011803 -2.63043e-21)
(0.0721412 0.0131698 2.65484e-21)
(0.0703109 0.0147481 0)
(0.068325 0.0165719 2.97831e-21)
(0.0661719 0.0186748 -2.95993e-21)
(0.0638394 0.0210847 2.39726e-23)
(0.0613125 0.0238133 3.26317e-21)
(0.0585698 0.0268381 -6.54545e-21)
(0.0555746 0.0300752 2.01915e-23)
(0.0522621 0.0333397 3.74028e-23)
(0.0485145 0.0362909 3.39226e-21)
(0.0441194 0.0383634 3.76687e-24)
(0.038708 0.0386645 -2.91399e-21)
(0.0317019 0.0358126 2.98729e-21)
(0.0221322 0.0278059 0)
(0.00762005 0.0121871 2.67206e-23)
(0.0944348 0.00127738 8.53841e-24)
(0.094236 0.00134116 7.86826e-23)
(0.0940285 0.00140922 -7.01689e-23)
(0.0938114 0.00148194 9.01076e-24)
(0.0935841 0.00155973 1.38553e-22)
(0.093346 0.00164304 -1.38771e-22)
(0.0930963 0.0017324 -2.97431e-22)
(0.0928341 0.00182835 4.38533e-24)
(0.0925587 0.00193154 -5.59651e-24)
(0.092269 0.00204265 3.30471e-22)
(0.0919642 0.00216248 -3.22928e-22)
(0.091643 0.00229189 6.85318e-22)
(0.0913043 0.00243188 -3.41514e-22)
(0.0909468 0.00258355 1.10425e-23)
(0.090569 0.00274815 1.13024e-23)
(0.0901695 0.00292711 7.47841e-22)
(0.0897465 0.00312201 -5.03656e-24)
(0.0892982 0.0033347 7.80794e-22)
(0.0888226 0.00356725 1.24833e-23)
(0.0883173 0.00382203 0)
(0.0877801 0.00410179 0)
(0.0872082 0.00440967 -8.77058e-22)
(0.0865987 0.00474931 8.79274e-22)
(0.0859484 0.00512493 0)
(0.0852537 0.00554148 1.47985e-23)
(0.0845108 0.00600471 0)
(0.0837155 0.0065214 -1.02222e-21)
(0.0828631 0.00709957 2.08123e-21)
(0.0819487 0.00774866 -1.05909e-21)
(0.0809671 0.00847992 -2.24454e-21)
(0.0799124 0.00930669 -7.52259e-23)
(0.0787788 0.0102448 -7.93006e-23)
(0.0775603 0.0113132 -8.32699e-23)
(0.0762512 0.0125339 2.52297e-21)
(0.0748461 0.0139328 2.70613e-21)
(0.0733407 0.0155392 -2.71257e-21)
(0.0717322 0.0173854 0)
(0.0700203 0.0195042 2.99946e-21)
(0.0682066 0.0219248 -3.00643e-21)
(0.0662951 0.0246645 -3.19025e-21)
(0.0642891 0.0277155 3.17268e-21)
(0.0621854 0.0310233 2.59236e-23)
(0.059963 0.0344563 3.18523e-21)
(0.0575624 0.0377655 -1.04752e-22)
(0.0548518 0.0405345 -3.14613e-21)
(0.0515648 0.0421283 2.40095e-23)
(0.0472121 0.0416305 0)
(0.0409697 0.0377181 -1.91532e-23)
(0.0310335 0.028593 -9.2021e-22)
(0.0122741 0.0121231 4.20019e-22)
(-0.000217933 0.000295144 0)
(-0.000947238 0.000560308 3.18991e-22)
(-0.00202988 0.000622075 -3.1947e-22)
(-0.00311686 0.000571501 -3.18288e-22)
(-0.00403895 0.000458806 3.18767e-22)
(-0.00472573 0.000313963 -9.81207e-24)
(-0.00514085 0.000155512 0)
(-0.0052662 -5.42163e-06 0)
(-0.005106 -0.000165163 0)
(-0.00467188 -0.000318492 0)
(-0.00397206 -0.000463022 0)
(-0.00302077 -0.00059789 0)
(-0.0018338 -0.000723333 0)
(-0.000427944 -0.000837855 0)
(0.00117884 -0.000941985 0)
(0.0029691 -0.00103593 9.9974e-23)
(0.00492556 -0.00111977 -9.40626e-23)
(0.00703094 -0.00119368 0)
(0.00926812 -0.00125791 0)
(0.0116203 -0.00131274 -7.22458e-23)
(0.0140712 -0.00135848 7.23562e-23)
(0.0166049 -0.00139545 -5.51483e-23)
(0.0192058 -0.00142393 3.51915e-24)
(0.0218588 -0.00144425 0)
(0.0245495 -0.0014568 2.76839e-24)
(0.027264 -0.00146208 0)
(0.0299892 -0.00146059 0)
(0.0327129 -0.00145282 0)
(0.0354238 -0.00143926 1.50612e-24)
(0.0381112 -0.0014204 0)
(0.0407655 -0.00139674 -1.00571e-24)
(0.0433777 -0.00136877 7.88287e-25)
(0.0459399 -0.00133699 -5.92082e-25)
(0.0484449 -0.00130188 3.02438e-24)
(0.0508866 -0.00126391 -2.87227e-24)
(0.0532593 -0.00122353 -2.95644e-25)
(0.0555586 -0.00118119 -5.41945e-26)
(0.0577807 -0.00113731 4.71364e-25)
(0.0599227 -0.0010923 1.903e-25)
(0.0619821 -0.00104653 -2.65407e-25)
(0.0639575 -0.00100035 0)
(0.065848 -0.000954089 -3.79251e-25)
(0.0676533 -0.000908048 2.18687e-24)
(0.0693736 -0.000862496 -2.22176e-24)
(0.0710097 -0.000817676 4.76717e-25)
(0.0725628 -0.0007738 -1.50071e-24)
(0.0740347 -0.000731053 5.03083e-25)
(0.0754272 -0.000689588 1.02647e-24)
(0.0767426 -0.000649521 -5.15978e-25)
(0.0779835 -0.000610937 5.11024e-25)
(-0.000282789 0.000848445 -1.21013e-21)
(-0.00105548 0.00160515 -1.32305e-21)
(-0.00204231 0.00178174 1.30416e-21)
(-0.00297901 0.00163439 -6.26078e-22)
(-0.00373782 0.00130637 6.2716e-22)
(-0.00426635 0.000884463 9.88016e-24)
(-0.00453759 0.000421963 -1.95593e-23)
(-0.00454049 -4.90869e-05 -6.17006e-22)
(-0.00427855 -0.000516305 5.98716e-22)
(-0.00375974 -0.000965779 -1.79191e-23)
(-0.00299296 -0.0013905 -1.72438e-23)
(-0.00199183 -0.00178753 5.12393e-22)
(-0.000768758 -0.00215809 -5.13074e-22)
(0.000661489 -0.00249591 -4.60612e-22)
(0.00228105 -0.00280398 2.78827e-23)
(0.0040745 -0.00308238 4.3392e-22)
(0.00602607 -0.00333114 -6.09324e-24)
(0.00811958 -0.00355071 -1.14676e-23)
(0.010339 -0.00374173 0)
(0.0126683 -0.003905 0)
(0.0150922 -0.00404141 0)
(0.0175954 -0.00415184 -3.93481e-24)
(0.0201632 -0.00423715 2.04346e-22)
(0.0227806 -0.00429827 -2.21806e-22)
(0.0254342 -0.00433641 1.6512e-22)
(0.0281105 -0.00435293 -9.50288e-23)
(0.0307968 -0.0043493 -1.36103e-22)
(0.0334812 -0.00432697 6.29959e-23)
(0.0361527 -0.00428739 -1.50999e-24)
(0.038801 -0.004232 -2.59507e-24)
(0.0414166 -0.00416226 1.0079e-24)
(0.043991 -0.00407965 -2.45604e-24)
(0.0465162 -0.0039856 1.58951e-23)
(0.0489852 -0.00388156 -2.82277e-23)
(0.0513921 -0.00376893 1.09056e-23)
(0.0537313 -0.00364907 -4.31703e-25)
(0.0559985 -0.00352331 2.47962e-27)
(0.0581898 -0.0033929 0)
(0.0603024 -0.00325905 3.6594e-24)
(0.062334 -0.00312288 -3.25737e-24)
(0.0642831 -0.00298544 -4.9335e-24)
(0.0661487 -0.00284773 6.65606e-24)
(0.0679306 -0.00271062 -4.20286e-25)
(0.069629 -0.00257493 -2.34652e-24)
(0.0712445 -0.00244138 4.12512e-24)
(0.0727786 -0.00231062 4.93553e-25)
(0.0742326 -0.00218319 3.50471e-24)
(0.0756085 -0.00205956 5.02991e-25)
(0.0769087 -0.00194006 -1.018e-24)
(0.0781353 -0.00182494 -1.527e-24)
(-0.000396133 0.00129643 -1.25549e-21)
(-0.00123261 0.00242534 1.37689e-21)
(-0.00201685 0.00269568 -1.33577e-21)
(-0.00265692 0.00246467 -2.0799e-23)
(-0.00309949 0.00195134 -3.69002e-25)
(-0.00332477 0.00129003 -1.26882e-21)
(-0.00332234 0.000561889 1.31044e-21)
(-0.00309174 -0.000182904 1.24534e-21)
(-0.00263666 -0.000923369 -2.05148e-23)
(-0.00195946 -0.00163922 -2.31593e-21)
(-0.00106766 -0.00231942 2.26342e-21)
(2.53385e-05 -0.00295814 -1.08364e-21)
(0.00131492 -0.0035518 -1.61827e-23)
(0.00278978 -0.00409862 0)
(0.00443078 -0.00459928 9.04354e-22)
(0.00622793 -0.00505259 -7.10607e-23)
(0.00816792 -0.00545866 -8.21319e-22)
(0.0102367 -0.00581806 2.34138e-23)
(0.01242 -0.00613161 0)
(0.014704 -0.00640041 0)
(0.0170745 -0.00662572 2.75236e-22)
(0.019518 -0.00680887 -2.67174e-22)
(0.0220205 -0.00695115 -2.1543e-22)
(0.0245691 -0.00705408 2.2938e-22)
(0.0271503 -0.00711929 5.93995e-24)
(0.0297523 -0.00714913 -5.21948e-24)
(0.0323629 -0.00714585 4.54057e-24)
(0.034971 -0.00711179 -1.08182e-22)
(0.0375662 -0.00704928 1.12193e-22)
(0.0401388 -0.00696066 -7.22236e-23)
(0.0426798 -0.00684829 7.76733e-23)
(0.0451808 -0.00671455 1.67276e-24)
(0.0476345 -0.00656181 3.64076e-23)
(0.050034 -0.00639242 -6.10885e-23)
(0.0523736 -0.00620869 2.61637e-23)
(0.0546481 -0.00601287 3.93696e-24)
(0.056853 -0.00580712 -3.47234e-24)
(0.0589849 -0.00559354 0)
(0.0610409 -0.0053741 -8.00418e-26)
(0.0630186 -0.00515068 0)
(0.0649167 -0.00492503 -1.03328e-23)
(0.0667342 -0.00469875 9.55465e-24)
(0.0684708 -0.00447336 -7.49959e-25)
(0.0701267 -0.00425017 -5.09914e-26)
(0.0717025 -0.00403042 -7.42969e-24)
(0.0731994 -0.00381515 1.41115e-23)
(0.0746189 -0.0036053 -7.68422e-24)
(0.0759627 -0.00340161 3.90809e-24)
(0.0772331 -0.00320467 -2.94119e-24)
(0.0784322 -0.00301482 -1.00722e-24)
(-0.00052787 0.00155359 -2.70863e-21)
(-0.00139239 0.00289479 0)
(-0.00184058 0.00323115 2.81244e-21)
(-0.00204991 0.0029352 -5.62475e-21)
(-0.0020449 0.00228481 2.83356e-21)
(-0.00184893 0.00144427 1.29764e-21)
(-0.00147046 0.000512767 -1.36148e-21)
(-0.000920447 -0.000447648 1.27115e-21)
(-0.000204131 -0.00140961 -2.52173e-21)
(0.000683852 -0.00234548 1.23115e-21)
(0.00174072 -0.00324062 1.83714e-23)
(0.00295907 -0.00408713 3.3719e-25)
(0.00433383 -0.00487647 1.6461e-23)
(0.00585913 -0.00561043 -9.96916e-22)
(0.00752461 -0.00628467 9.66581e-22)
(0.00932167 -0.00689765 2.8024e-23)
(0.0112402 -0.00744915 -1.29251e-23)
(0.0132695 -0.00793936 7.49053e-22)
(0.015398 -0.0083689 -7.48979e-22)
(0.0176143 -0.0087388 -1.0519e-23)
(0.0199064 -0.00905044 0)
(0.0222628 -0.00930532 3.20925e-25)
(0.0246715 -0.00950507 0)
(0.0271204 -0.00965128 7.0705e-24)
(0.0295983 -0.00974631 2.86799e-25)
(0.0320938 -0.0097928 5.26887e-24)
(0.0345965 -0.00979395 -2.84205e-22)
(0.0370958 -0.00975279 2.79969e-22)
(0.0395825 -0.0096724 0)
(0.0420475 -0.00955589 -8.38609e-23)
(0.0444823 -0.00940645 8.65954e-23)
(0.0468793 -0.00922728 0)
(0.0492314 -0.00902162 -1.7681e-25)
(0.0515324 -0.00879266 -3.11249e-23)
(0.0537766 -0.00854356 5.0912e-23)
(0.0559592 -0.00827742 -3.10026e-23)
(0.0580759 -0.00799723 1.44353e-23)
(0.0601235 -0.00770587 1.93707e-25)
(0.0620989 -0.00740608 -3.56746e-24)
(0.0640003 -0.00710046 -7.02953e-24)
(0.065826 -0.00679144 6.02661e-24)
(0.0675751 -0.00648128 5.76041e-25)
(0.0692473 -0.00617204 1.21273e-23)
(0.0708427 -0.00586562 -2.67271e-23)
(0.0723618 -0.00556369 1.30415e-23)
(0.0738059 -0.00526775 5.76067e-26)
(0.075176 -0.00497909 -9.42296e-25)
(0.0764741 -0.00469876 -4.76309e-26)
(0.077702 -0.00442758 9.66133e-25)
(0.0788618 -0.00416592 -1.89196e-24)
(-0.000585496 0.00154573 -1.62354e-24)
(-0.0013399 0.00293706 -2.52355e-23)
(-0.00132692 0.00330035 -2.44707e-23)
(-0.000993368 0.00297107 -2.37811e-23)
(-0.000445032 0.0022489 -4.56912e-23)
(0.000248131 0.0013088 -5.13974e-25)
(0.00106231 0.000262587 2.1494e-23)
(0.00197801 -0.00084892 -2.1332e-23)
(0.00299126 -0.00197114 -2.06647e-23)