/*--------------------------------*- C++ -*----------------------------------*\
| =========                 |                                                 |
| \\      /  F ield         | OpenFOAM: The Open Source CFD Toolbox           |
|  \\    /   O peration     | Version:  2412                                  |
|   \\  /    A nd           | Website:  www.openfoam.com                      |
|    \\/     M anipulation  |                                                 |
\*---------------------------------------------------------------------------*/
FoamFile
{
    version     2.0;
    format      ascii;
    arch        "LSB;label=32;scalar=64";
    class       volVectorField;
    location    "23";
    object      vorticity;
}
// * * * * * * * * * * * * * * * * * * * * * * * * * * * * * * * * * * * * * //

dimensions      [0 0 -1 0 0 0 0];

internalField   nonuniform List<vector> 
63420
(
(0 0 5.91467e-06)
(0 0 5.89311e-06)
(0 0 5.87358e-06)
(0 0 5.8445e-06)
(0 0 5.79907e-06)
(0 0 5.78185e-06)
(0 0 5.93081e-06)
(0 0 6.45526e-06)
(0 0 7.5307e-06)
(0 0 9.16005e-06)
(0 0 1.10886e-05)
(0 0 1.28338e-05)
(0 0 1.38259e-05)
(0 0 1.35937e-05)
(0 0 1.19168e-05)
(0 0 8.88635e-06)
(0 0 4.86612e-06)
(0 0 3.82277e-07)
(0 0 -4.00985e-06)
(0 0 -7.83996e-06)
(0 0 -1.07926e-05)
(0 0 -1.27274e-05)
(0 0 -1.36603e-05)
(0 0 -1.37203e-05)
(0 0 -1.31009e-05)
(0 0 -1.20147e-05)
(0 0 -1.0661e-05)
(0 0 -9.20587e-06)
(0 0 -7.77367e-06)
(0 0 -6.44764e-06)
(0 0 -5.27526e-06)
(0 0 -4.27615e-06)
(0 0 -3.4502e-06)
(0 0 -2.78482e-06)
(0 0 -2.26068e-06)
(0 0 -1.85594e-06)
(0 0 -1.54897e-06)
(0 0 -1.31997e-06)
(0 0 -1.15183e-06)
(0 0 -1.03026e-06)
(0 0 -9.43741e-07)
(0 0 -8.83206e-07)
(0 0 -8.41658e-07)
(0 0 -8.13788e-07)
(0 0 -7.95633e-07)
(0 0 -7.84243e-07)
(0 0 -7.77392e-07)
(0 0 -7.73158e-07)
(0 0 -7.6902e-07)
(0 0 -7.59105e-07)
(0 0 -7.25221e-07)
(0 0 -6.07945e-07)
(0 0 -2.16306e-07)
(0 0 1.04578e-06)
(0 4.43334e-23 4.97725e-06)
(0 0 1.77425e-05)
(0 0 1.76764e-05)
(0 0 1.76172e-05)
(0 0 1.75306e-05)
(0 0 1.73955e-05)
(0 0 1.73447e-05)
(0 0 1.77897e-05)
(0 0 1.93557e-05)
(0 0 2.25681e-05)
(0 0 2.74379e-05)
(0 0 3.32073e-05)
(0 0 3.84382e-05)
(0 0 4.14293e-05)
(0 0 4.07724e-05)
(0 0 3.58055e-05)
(0 0 2.67958e-05)
(0 0 1.48241e-05)
(0 0 1.45718e-06)
(0 0 -1.16492e-05)
(0 0 -2.30914e-05)
(0 0 -3.19261e-05)
(0 0 -3.77318e-05)
(0 0 -4.05525e-05)
(0 0 -4.07706e-05)
(0 0 -3.89601e-05)
(0 0 -3.5754e-05)
(0 0 -3.17457e-05)
(0 0 -2.74298e-05)
(0 0 -2.31775e-05)
(0 0 -1.92374e-05)
(0 0 -1.57517e-05)
(0 0 -1.27795e-05)
(0 0 -1.03212e-05)
(0 0 -8.33975e-06)
(0 0 -6.7781e-06)
(0 0 -5.57149e-06)
(0 0 -4.65572e-06)
(0 0 -3.97206e-06)
(0 0 -3.46956e-06)
(0 0 -3.10574e-06)
(0 0 -2.84634e-06)
(0 0 -2.66432e-06)
(0 0 -2.53885e-06)
(0 0 -2.45409e-06)
(0 0 -2.3982e-06)
(0 0 -2.36235e-06)
(0 0 -2.33987e-06)
(0 0 -2.32502e-06)
(0 0 -2.31035e-06)
(0 0 -2.27875e-06)
(0 0 -2.17742e-06)
(0 0 -1.83402e-06)
(0 0 -6.93847e-07)
(0 0 2.9775e-06)
(0 4.48018e-23 1.44231e-05)
(0 0 2.95582e-05)
(0 0 2.94475e-05)
(0 0 2.93486e-05)
(0 0 2.92046e-05)
(0 0 2.89807e-05)
(0 0 2.88956e-05)
(0 0 2.9631e-05)
(0 0 3.22247e-05)
(0 0 3.75527e-05)
(0 0 4.56426e-05)
(0 0 5.52484e-05)
(0 0 6.39934e-05)
(0 0 6.90584e-05)
(0 0 6.81018e-05)
(0 0 6.00122e-05)
(0 0 4.52151e-05)
(0 0 2.54848e-05)
(0 0 3.40596e-06)
(0 0 -1.82837e-05)
(0 0 -3.72575e-05)
(0 0 -5.19468e-05)
(0 0 -6.16446e-05)
(0 0 -6.64136e-05)
(0 0 -6.6878e-05)
(0 0 -6.3981e-05)
(0 0 -5.87655e-05)
(0 0 -5.22108e-05)
(0 0 -4.51345e-05)
(0 0 -3.81512e-05)
(0 0 -3.16734e-05)
(0 0 -2.59379e-05)
(0 0 -2.10443e-05)
(0 0 -1.69945e-05)
(0 0 -1.37288e-05)
(0 0 -1.1154e-05)
(0 0 -9.16386e-06)
(0 0 -7.65297e-06)
(0 0 -6.52469e-06)
(0 0 -5.69517e-06)
(0 0 -5.09448e-06)
(0 0 -4.66611e-06)
(0 0 -4.36553e-06)
(0 0 -4.15835e-06)
(0 0 -4.01845e-06)
(0 0 -3.92627e-06)
(0 0 -3.86725e-06)
(0 0 -3.83039e-06)
(0 0 -3.80632e-06)
(0 0 -3.78316e-06)
(0 0 -3.73416e-06)
(0 0 -3.57738e-06)
(0 0 -3.04518e-06)
(0 0 -1.27342e-06)
(0 0 4.45054e-06)
(0 2.64356e-22 2.23596e-05)
(0 0 4.13536e-05)
(0 0 4.11982e-05)
(0 0 4.10594e-05)
(0 0 4.08587e-05)
(0 0 4.0547e-05)
(0 0 4.04266e-05)
(0 0 4.14431e-05)
(0 0 4.50419e-05)
(0 0 5.24513e-05)
(0 0 6.37283e-05)
(0 0 7.71628e-05)
(0 0 8.94678e-05)
(0 0 9.67275e-05)
(0 0 9.56735e-05)
(0 0 8.47321e-05)
(0 0 6.4458e-05)
(0 0 3.72818e-05)
(0 0 6.76842e-06)
(0 0 -2.32919e-05)
(0 0 -4.96667e-05)
(0 0 -7.01659e-05)
(0 0 -8.37897e-05)
(0 0 -9.06045e-05)
(0 0 -9.14581e-05)
(0 0 -8.76438e-05)
(0 0 -8.05976e-05)
(0 0 -7.16717e-05)
(0 0 -6.19978e-05)
(0 0 -5.24282e-05)
(0 0 -4.35368e-05)
(0 0 -3.56548e-05)
(0 0 -2.89233e-05)
(0 0 -2.33485e-05)
(0 0 -1.88504e-05)
(0 0 -1.53021e-05)
(0 0 -1.25583e-05)
(0 0 -1.04746e-05)
(0 0 -8.91819e-06)
(0 0 -7.77376e-06)
(0 0 -6.94508e-06)
(0 0 -6.35434e-06)
(0 0 -5.94014e-06)
(0 0 -5.65505e-06)
(0 0 -5.46304e-06)
(0 0 -5.33714e-06)
(0 0 -5.25728e-06)
(0 0 -5.20834e-06)
(0 0 -5.17758e-06)
(0 0 -5.14945e-06)
(0 0 -5.09009e-06)
(0 0 -4.89708e-06)
(0 0 -4.23602e-06)
(0 0 -2.02234e-06)
(0 0 5.17269e-06)
(0 -1.73543e-22 2.78357e-05)
(0 0 5.31212e-05)
(0 0 5.29204e-05)
(0 0 5.27413e-05)
(0 0 5.24846e-05)
(0 0 5.20868e-05)
(0 0 5.19297e-05)
(0 0 5.3215e-05)
(0 0 5.77886e-05)
(0 0 6.72327e-05)
(0 0 8.16511e-05)
(0 0 9.89021e-05)
(0 0 0.000114826)
(0 0 0.000124439)
(0 0 0.000123555)
(0 0 0.000110122)
(0 0 8.47858e-05)
(0 0 5.05819e-05)
(0 0 1.2006e-05)
(0 0 -2.61388e-05)
(0 0 -5.97376e-05)
(0 0 -8.59845e-05)
(0 0 -0.000103577)
(0 0 -0.000112567)
(0 0 -0.000113999)
(0 0 -0.000109492)
(0 0 -0.000100853)
(0 0 -8.97901e-05)
(0 0 -7.77356e-05)
(0 0 -6.57726e-05)
(0 0 -5.46329e-05)
(0 0 -4.4742e-05)
(0 0 -3.62845e-05)
(0 0 -2.92732e-05)
(0 0 -2.36113e-05)
(0 0 -1.91419e-05)
(0 0 -1.56839e-05)
(0 0 -1.30565e-05)
(0 0 -1.10932e-05)
(0 0 -9.64917e-06)
(0 0 -8.60345e-06)
(0 0 -7.85805e-06)
(0 0 -7.33562e-06)
(0 0 -6.97638e-06)
(0 0 -6.7349e-06)
(0 0 -6.57716e-06)
(0 0 -6.47786e-06)
(0 0 -6.41797e-06)
(0 0 -6.38177e-06)
(0 0 -6.35093e-06)
(0 0 -6.28764e-06)
(0 0 -6.08015e-06)
(0 0 -5.36521e-06)
(0 0 -2.95943e-06)
(0 0 4.91981e-06)
(0 8.56709e-23 3.00162e-05)
(0 0 6.48545e-05)
(0 0 6.46059e-05)
(0 0 6.43859e-05)
(0 0 6.40743e-05)
(0 0 6.35925e-05)
(0 0 6.33969e-05)
(0 0 6.49363e-05)
(0 0 7.04476e-05)
(0 0 8.18691e-05)
(0 0 9.93724e-05)
(0 0 0.000120423)
(0 0 0.000140034)
(0 0 0.00015219)
(0 0 0.000151799)
(0 0 0.000136309)
(0 0 0.000106411)
(0 0 6.56859e-05)
(0 0 1.94989e-05)
(0 0 -2.63823e-05)
(0 0 -6.69888e-05)
(0 0 -9.8906e-05)
(0 0 -0.000120518)
(0 0 -0.000131836)
(0 0 -0.000134075)
(0 0 -0.000129147)
(0 0 -0.000119203)
(0 0 -0.000106285)
(0 0 -9.21121e-05)
(0 0 -7.79888e-05)
(0 0 -6.48008e-05)
(0 0 -5.30673e-05)
(0 0 -4.30183e-05)
(0 0 -3.46772e-05)
(0 0 -2.79343e-05)
(0 0 -2.26067e-05)
(0 0 -1.84814e-05)
(0 0 -1.53448e-05)
(0 0 -1.29996e-05)
(0 0 -1.12737e-05)
(0 0 -1.00232e-05)
(0 0 -9.13144e-06)
(0 0 -8.50624e-06)
(0 0 -8.07626e-06)
(0 0 -7.7873e-06)
(0 0 -7.59872e-06)
(0 0 -7.48031e-06)
(0 0 -7.40943e-06)
(0 0 -7.36774e-06)
(0 0 -7.33514e-06)
(0 0 -7.27324e-06)
(0 0 -7.07322e-06)
(0 0 -6.38718e-06)
(0 0 -4.08393e-06)
(0 0 3.49968e-06)
(0 4.22716e-22 2.81065e-05)
(0 0 7.65448e-05)
(0 0 7.62455e-05)
(0 0 7.59848e-05)
(0 0 7.56197e-05)
(0 0 7.50562e-05)
(0 0 7.48206e-05)
(0 0 7.65971e-05)
(0 0 8.30036e-05)
(0 0 9.63362e-05)
(0 0 0.000116858)
(0 0 0.000141685)
(0 0 0.000165055)
(0 0 0.000179965)
(0 0 0.000180426)
(0 0 0.000163369)
(0 0 0.000129475)
(0 0 8.28044e-05)
(0 0 2.95205e-05)
(0 0 -2.3699e-05)
(0 0 -7.1064e-05)
(0 0 -0.000108559)
(0 0 -0.000134244)
(0 0 -0.000148061)
(0 0 -0.000151361)
(0 0 -0.000146317)
(0 0 -0.000135393)
(0 0 -0.00012094)
(0 0 -0.000104945)
(0 0 -8.89258e-05)
(0 0 -7.39162e-05)
(0 0 -6.05287e-05)
(0 0 -4.90411e-05)
(0 0 -3.94911e-05)
(0 0 -3.1761e-05)
(0 0 -2.56467e-05)
(0 0 -2.09075e-05)
(0 0 -1.73009e-05)
(0 0 -1.4602e-05)
(0 0 -1.26143e-05)
(0 0 -1.11729e-05)
(0 0 -1.01442e-05)
(0 0 -9.42239e-06)
(0 0 -8.92555e-06)
(0 0 -8.59138e-06)
(0 0 -8.37312e-06)
(0 0 -8.23604e-06)
(0 0 -8.15421e-06)
(0 0 -8.10705e-06)
(0 0 -8.07354e-06)
(0 0 -8.01769e-06)
(0 0 -7.84473e-06)
(0 0 -7.26546e-06)
(0 0 -5.37099e-06)
(0 0 7.54489e-07)
(0 -8.2692e-23 2.11892e-05)
(-1.73417e-23 7.93494e-21 3.01661e-06)
(-1.45083e-22 7.802e-21 2.38603e-06)
(3.20704e-23 -1.94121e-22 1.53981e-06)
(3.83221e-23 -2.32906e-20 4.35628e-07)
(-9.0763e-23 7.95565e-21 -9.62408e-07)
(3.56113e-22 7.81397e-21 -2.68315e-06)
(-7.80879e-22 2.2782e-20 -4.75036e-06)
(3.06667e-22 -2.31471e-20 -7.18522e-06)
(6.17196e-22 -7.44861e-21 -1.00085e-05)
(-8.81134e-22 -3.67027e-24 -1.32423e-05)
(-8.80229e-22 -7.46191e-21 -1.69115e-05)
(7.70903e-22 7.08989e-21 -2.1045e-05)
(5.5938e-22 -5.83905e-20 -2.56762e-05)
(-1.03392e-21 1.2534e-19 -3.08441e-05)
(3.57174e-22 -6.74192e-20 -3.65917e-05)
(-1.20663e-21 -5.08299e-20 -4.29808e-05)
(2.32406e-21 -6.47274e-20 -5.00593e-05)
(-1.82235e-21 7.62412e-21 -5.79293e-05)
(-1.8488e-22 -7.11517e-21 -6.66342e-05)
(7.0371e-23 7.11906e-21 -7.62887e-05)
(-3.08797e-24 -1.26302e-22 -8.69783e-05)
(-6.53292e-23 -6.86617e-21 -9.88215e-05)
(-1.97499e-21 6.92455e-21 -0.000111949)
(4.12906e-21 1.26926e-23 -0.000126505)
(1.20373e-21 6.72157e-21 -0.000142654)
(-3.21715e-21 -5.22094e-24 -0.000160581)
(4.6281e-21 7.79972e-21 -0.000180501)
(-5.43948e-21 1.01241e-19 -0.000202671)
(6.85893e-22 -1.0871e-19 -0.000227409)
(-2.10505e-21 9.92659e-20 -0.000255133)
(2.05089e-21 -1.00388e-19 -0.000286414)
(4.7624e-23 1.31691e-21 -0.00032209)
(-6.19492e-23 -1.61575e-21 -0.000363453)
(2.74063e-21 -9.49191e-20 -0.000412587)
(-8.50414e-21 9.21107e-20 -0.000472973)
(-3.08077e-22 -1.51874e-21 -0.000550541)
(6.08386e-21 1.3306e-23 -0.000655454)
(6.60939e-21 1.44554e-23 -0.000805066)
(-6.58825e-21 -1.44091e-23 -0.00102857)
(-2.18278e-22 -4.77395e-25 -0.00137401)
(-2.27484e-22 -4.9753e-25 -0.00191808)
(-7.82354e-21 -1.71109e-23 -0.00277879)
(7.55182e-21 1.65166e-23 -0.00412988)
(-2.49168e-22 1.4817e-22 -0.00621405)
(-3.38437e-23 7.66569e-21 -0.00934943)
(-2.41493e-20 4.95842e-20 -0.0139212)
(2.32606e-20 -6.53451e-20 -0.0203461)
(-5.45352e-21 -9.2589e-21 -0.0289966)
(5.994e-21 2.53545e-20 -0.0400803)
(-1.99138e-20 -5.55925e-21 -0.0533945)
(-2.55193e-22 7.94575e-21 8.89682e-06)
(-1.04592e-22 1.56303e-20 6.94411e-06)
(2.95469e-22 7.60157e-21 4.28959e-06)
(-8.54744e-22 -7.81491e-21 8.07605e-07)
(1.58794e-21 7.45517e-21 -3.60276e-06)
(-4.84346e-22 -5.3374e-20 -9.02148e-06)
(-2.26583e-22 8.47447e-20 -1.55152e-05)
(-5.51216e-23 -8.8154e-21 -2.31452e-05)
(2.14899e-21 -9.7582e-20 -3.1974e-05)
(-2.24028e-21 1.37754e-19 -4.20701e-05)
(-8.32723e-22 1.25878e-19 -5.35125e-05)
(6.15893e-22 -1.13229e-19 -6.63933e-05)
(-3.85489e-22 7.22529e-22 -8.08198e-05)
(2.75085e-21 -7.21158e-21 -9.69159e-05)
(-2.14624e-21 2.39606e-20 -0.00011483)
(-5.91035e-21 2.38119e-19 -0.000134731)
(1.64364e-21 -2.23896e-19 -0.000156861)
(-5.53569e-21 2.3993e-19 -0.000181381)
(-2.95882e-22 1.94303e-20 -0.000208585)
(-3.76764e-21 -7.27555e-21 -0.000238715)
(3.98379e-21 1.4252e-22 -0.000272115)
(-3.99769e-21 9.02512e-21 -0.000309162)
(9.44408e-22 2.08292e-19 -0.000350271)
(5.93525e-21 -4.40955e-19 -0.000395905)
(4.50254e-21 -2.10614e-19 -0.000446588)
(-7.01465e-21 4.2639e-19 -0.000502916)
(3.7314e-21 -4.25031e-19 -0.000565578)
(-2.09293e-21 4.36085e-19 -0.000635401)
(3.22535e-21 1.46273e-21 -0.000713402)
(-3.65447e-21 -9.57684e-23 -0.000800901)
(-1.22777e-21 -2.68525e-24 -0.000899701)
(0 0 -0.00101241)
(1.81407e-22 9.4132e-23 -0.00114302)
(1.08399e-20 1.21635e-20 -0.00129794)
(-1.57066e-20 3.55431e-19 -0.00148779)
(-1.54818e-20 -2.39631e-20 -0.00173066)
(1.84966e-20 -3.50453e-19 -0.00205747)
(2.63286e-20 -3.02615e-19 -0.00252096)
(-9.47328e-21 3.23247e-19 -0.00320979)
(-3.05708e-20 2.14917e-21 -0.00426971)
(2.98128e-20 1.70118e-20 -0.00593319)
(-4.15498e-20 2.30125e-19 -0.00855757)
(2.2574e-20 -2.39362e-19 -0.0126684)
(-1.76395e-20 1.43789e-20 -0.018999)
(1.95428e-20 7.5529e-21 -0.02851)
(-5.86863e-20 1.10953e-19 -0.0423638)
(5.86078e-20 -1.08608e-19 -0.061814)
(-8.9874e-20 8.09933e-20 -0.0879615)
(8.67292e-20 -9.04528e-20 -0.121359)
(-1.83937e-20 -6.19662e-22 -0.160051)
(-5.13276e-23 4.70804e-20 1.42722e-05)
(-8.72568e-23 1.48877e-20 1.07629e-05)
(3.82264e-22 -6.16728e-20 5.89601e-06)
(-8.16138e-22 1.22674e-19 -5.23333e-07)
(1.7966e-21 -2.62586e-19 -8.6368e-06)
(3.53755e-22 1.24847e-19 -1.85542e-05)
(-2.40926e-21 -8.55106e-22 -3.03724e-05)
(1.54207e-21 -1.69522e-20 -4.41891e-05)
(1.51065e-21 -2.56183e-19 -6.01121e-05)
(6.79191e-22 2.44087e-19 -7.82663e-05)
(-8.43999e-22 -1.60149e-21 -9.8799e-05)
(-4.15102e-21 -1.54688e-23 -0.000121883)
(6.58263e-21 -1.82356e-21 -0.000147722)
(-3.83499e-21 -2.49805e-19 -0.000176551)
(5.0366e-21 2.26981e-19 -0.000208642)
(-1.14042e-20 4.51025e-19 -0.00024434)
(-4.76589e-21 -1.19787e-20 -0.000284023)
(-4.80704e-21 4.64019e-19 -0.000328114)
(4.08053e-22 -1.40839e-20 -0.000377027)
(-1.24026e-20 4.50518e-19 -0.00043131)
(1.2329e-20 -4.67872e-19 -0.000491584)
(-9.25891e-21 4.4672e-19 -0.000558559)
(2.56004e-21 -4.64628e-19 -0.000633014)
(5.17445e-21 -9.28596e-21 -0.00071583)
(-2.57371e-21 1.36134e-20 -0.000808001)
(5.48968e-21 -8.78764e-21 -0.000910661)
(-1.89214e-20 4.18548e-19 -0.00102513)
(1.7044e-20 -4.46052e-19 -0.00115296)
(1.85663e-20 -4.14379e-19 -0.00129608)
(-1.52813e-20 4.16251e-19 -0.00145693)
(-1.07146e-21 -5.1158e-21 -0.00163881)
(1.10863e-20 -1.19965e-22 -0.00184641)
(-1.26716e-20 -2.45241e-20 -0.00208677)
(5.34514e-20 -7.5583e-19 -0.00237106)
(1.64264e-20 5.59524e-20 -0.00271766)
(-7.0184e-20 7.11564e-19 -0.00315756)
(3.90764e-21 -1.21997e-20 -0.00374367)
(-1.13151e-20 -4.78149e-21 -0.00456598)
(1.09662e-19 -5.96556e-19 -0.0057756)
(-2.04043e-19 1.17138e-18 -0.00762064)
(2.08043e-19 -1.16339e-18 -0.0104963)
(7.02007e-20 8.42246e-20 -0.015009)
(-1.55807e-19 5.0904e-19 -0.0220499)
(-1.63229e-19 3.50874e-19 -0.0328611)
(1.54303e-19 -4.15969e-19 -0.0490712)
(-2.1867e-20 1.91721e-20 -0.0726528)
(5.40199e-20 -1.70526e-20 -0.105733)
(1.61969e-19 -1.00545e-19 -0.150137)
(-1.75359e-19 1.57053e-19 -0.206592)
(-2.50108e-20 -4.03098e-20 -0.267365)
(4.08958e-22 -3.10511e-20 1.8702e-05)
(-3.64625e-22 1.56984e-20 1.30906e-05)
(6.78483e-22 -1.68921e-22 5.15538e-06)
(-6.03448e-22 -1.54448e-20 -5.29942e-06)
(-9.48802e-22 -1.42673e-21 -1.8398e-05)
(3.37805e-21 -2.42404e-19 -3.42461e-05)
(-4.80585e-21 4.58975e-19 -5.29583e-05)
(2.35694e-21 -2.47096e-19 -7.46718e-05)
(-1.81007e-21 1.49084e-20 -9.95551e-05)
(4.90108e-21 -2.7056e-19 -0.000127813)
(-5.87246e-21 2.46832e-19 -0.000159689)
(-4.2745e-21 4.713e-19 -0.000195475)
(1.10811e-20 -9.53406e-19 -0.000235508)
(-1.32685e-20 9.52288e-19 -0.000280179)
(1.74866e-20 -9.47776e-19 -0.000329941)
(-1.16503e-20 9.39171e-19 -0.000385346)
(-1.00526e-20 4.77787e-19 -0.000447038)
(-7.02835e-22 -3.73391e-21 -0.000515671)
(4.46943e-21 3.88042e-21 -0.000591985)
(-7.82301e-21 4.40589e-19 -0.000676867)
(-1.66925e-21 -4.62677e-19 -0.00077134)
(1.46735e-20 1.26451e-20 -0.000876575)
(-3.39776e-20 8.88127e-19 -0.000993874)
(2.58848e-20 -8.91012e-19 -0.00112471)
(2.26211e-21 -5.34965e-21 -0.00127075)
(-9.67405e-21 -9.03456e-23 -0.00143391)
(1.47237e-20 -1.34625e-20 -0.00161641)
(-4.78162e-21 1.22617e-22 -0.00182086)
(-5.24805e-21 -6.47512e-23 -0.00205047)
(5.00004e-21 1.94301e-22 -0.00230922)
(-3.71321e-21 1.45712e-21 -0.0026024)
(6.37304e-20 -7.85978e-19 -0.00293733)
(-5.78587e-20 8.08299e-19 -0.00332475)
(-1.59636e-20 2.22565e-22 -0.00378133)
(1.86076e-20 -1.02734e-20 -0.00433408)
(-9.9352e-20 7.20722e-19 -0.00502811)
(1.15704e-19 -7.23881e-19 -0.00593994)
(-2.24925e-20 2.17825e-21 -0.00719935)
(1.58989e-20 -9.25364e-23 -0.00902398)
(3.7797e-20 6.34186e-21 -0.0117708)
(-2.46529e-19 5.39651e-19 -0.0160082)
(3.66108e-19 -1.09366e-18 -0.0226078)
(-1.78729e-19 5.54017e-19 -0.0328502)
(2.58696e-19 -4.23525e-19 -0.048525)
(-2.50486e-19 4.98884e-19 -0.0719908)
(-5.82045e-19 5.1417e-19 -0.106136)
(1.09839e-18 -1.08941e-18 -0.154122)
(-5.37423e-19 5.49997e-19 -0.218656)
(1.85573e-20 -2.1164e-21 -0.300454)
(4.46542e-21 -3.45709e-20 -0.378533)
(-7.31667e-22 1.57788e-20 2.16309e-05)
(-3.0826e-22 6.04439e-20 1.27408e-05)
(2.05461e-21 -1.83497e-19 1.18241e-07)
(-1.4458e-21 2.46213e-19 -1.62394e-05)
(-1.96343e-22 -1.09014e-19 -3.635e-05)
(1.18875e-22 -1.45789e-20 -6.02913e-05)
(-4.75224e-22 1.53597e-20 -8.82064e-05)
(2.99712e-21 -1.84677e-22 -0.000120301)
(-2.84096e-21 -1.50141e-20 -0.000156844)
(-5.20595e-21 3.36409e-20 -0.000198163)
(-7.1851e-21 4.79356e-19 -0.000244653)
(1.85242e-20 -4.98192e-19 -0.000296776)
(-2.28026e-20 4.64682e-19 -0.00035507)
(1.90571e-20 -4.83355e-19 -0.000420153)
(-2.97735e-21 3.36362e-21 -0.000492735)
(1.08865e-20 4.71342e-23 -0.000573664)
(4.13824e-21 3.68125e-21 -0.000663936)
(-5.54514e-21 4.51392e-19 -0.000764596)
(2.03894e-20 -4.88434e-19 -0.000876816)
(6.27374e-21 2.67586e-20 -0.00100199)
(-4.61049e-20 9.3043e-19 -0.00114173)
(2.95878e-20 -9.33006e-19 -0.00129787)
(1.00765e-20 2.24908e-20 -0.00147248)
(-1.78897e-20 -2.31223e-22 -0.00166792)
(1.17063e-20 9.55434e-21 -0.00188686)
(-3.95147e-20 8.93579e-19 -0.0021324)
(3.27572e-20 -8.85123e-19 -0.0024081)
(2.81277e-21 9.53937e-21 -0.0027182)
(9.42326e-21 2.7108e-20 -0.00306775)
(-1.14077e-20 -5.44872e-22 -0.00346304)
(1.18733e-21 -1.29579e-20 -0.00391213)
(-3.70086e-20 1.31542e-20 -0.00442587)
(3.4774e-20 1.25277e-20 -0.00501973)
(-3.06212e-21 -2.50576e-20 -0.00571696)
(8.34504e-20 -7.34568e-19 -0.00655441)
(-7.46321e-20 7.57175e-19 -0.00759262)
(2.7076e-19 -1.45587e-18 -0.00893329)
(-2.48581e-19 1.46997e-18 -0.0107482)
(3.07174e-19 -1.37432e-18 -0.0133248)
(7.06617e-20 1.31328e-19 -0.0171351)
(-3.52645e-19 1.30877e-18 -0.0229311)
(-1.19435e-19 -2.19341e-20 -0.0318687)
(1.62595e-20 3.83609e-22 -0.0456517)
(-1.80924e-20 5.55733e-22 -0.066679)
(5.34584e-20 1.64259e-21 -0.0981624)
(2.56846e-20 1.33999e-20 -0.144161)
(-1.11578e-19 5.06009e-21 -0.209377)
(6.35663e-20 4.90282e-21 -0.298203)
(-1.62766e-22 -3.05583e-22 -0.411845)
(3.5567e-20 6.28125e-22 -0.503634)
(-7.4727e-22 7.60745e-20 2.22354e-05)
(1.65303e-21 -4.63811e-20 7.4944e-06)
(-1.6393e-21 -1.63429e-20 -1.26905e-05)
(4.76358e-21 -2.27234e-19 -3.78145e-05)
(-2.41078e-21 2.29093e-19 -6.78049e-05)
(2.16815e-21 -2.26656e-19 -0.000102775)
(-1.1201e-20 4.99791e-19 -0.00014297)
(1.19532e-20 -6.9983e-19 -0.000188738)
(-7.74795e-21 4.94803e-19 -0.000240516)
(-6.23857e-21 4.8234e-19 -0.000298831)
(-2.20059e-21 3.96142e-21 -0.0003643)
(2.49184e-20 -9.47372e-19 -0.000437644)
(-2.19229e-20 9.85745e-19 -0.000519688)
(5.43966e-21 -4.63686e-19 -0.00061138)
(1.23947e-20 -4.6591e-19 -0.000713799)
(2.26493e-20 -4.58347e-19 -0.000828206)
(-3.25957e-21 6.53692e-21 -0.000956089)
(3.888e-20 -9.50427e-19 -0.0010991)
(3.03698e-20 -9.12335e-19 -0.00125903)
(6.56778e-21 2.11644e-20 -0.001438)
(-2.75278e-20 9.47417e-19 -0.00163849)
(-1.99416e-20 -8.00448e-21 -0.00186332)
(1.21765e-20 8.86574e-21 -0.0021157)
(-5.17005e-20 9.16811e-19 -0.00239929)
(4.22418e-20 -9.31187e-19 -0.00271831)
(7.37542e-20 -8.94244e-19 -0.00307763)
(-7.49741e-20 9.23596e-19 -0.0034829)
(1.49324e-20 -1.98317e-20 -0.00394076)
(6.90667e-20 -8.90859e-19 -0.00445916)
(-9.65699e-20 9.13524e-19 -0.00504774)
(4.334e-21 1.2227e-20 -0.00571864)
(-2.09651e-19 1.6718e-18 -0.00648768)
(1.90041e-19 -1.73435e-18 -0.00737653)
(4.7989e-20 6.14764e-20 -0.00841662)
(-2.69581e-19 1.58083e-18 -0.00965606)
(2.47562e-19 -1.6482e-18 -0.0111719)
(-3.12369e-20 -3.24235e-21 -0.0130917)
(4.71997e-19 -1.48444e-18 -0.015629)
(-4.42078e-19 1.53294e-18 -0.0191408)
(-6.54224e-20 -7.16691e-20 -0.0242144)
(6.75422e-19 -1.29363e-18 -0.0317895)
(-1.18904e-18 2.66669e-18 -0.0433195)
(-6.43156e-20 -1.54406e-19 -0.0609634)
(-8.61363e-20 -1.21259e-19 -0.0877986)
(7.63914e-19 -1.15892e-18 -0.128046)
(3.90039e-20 6.21948e-20 -0.187323)
(-8.57666e-19 7.66041e-19 -0.272941)
(8.40857e-19 -8.42609e-19 -0.393692)
(8.89216e-21 2.86142e-20 -0.555883)
(9.1589e-21 -2.6817e-21 -0.667077)
(6.07945e-22 -1.58367e-20 1.94363e-05)
(1.74908e-21 -1.3514e-19 -7.27496e-06)
(-1.86136e-21 1.21864e-19 -3.92458e-05)
(-1.24774e-21 -1.71365e-20 -7.6566e-05)
(5.43436e-21 -2.25808e-19 -0.000119454)
(-5.02899e-21 2.32201e-19 -0.000168268)
(-6.10338e-21 4.69046e-19 -0.000223455)
(-5.0483e-21 -1.9406e-20 -0.000285562)
(2.17664e-21 -4.57508e-21 -0.00035523)
(1.46877e-20 -5.00094e-19 -0.000433199)
(-1.20461e-20 4.67842e-19 -0.000520317)
(1.83732e-20 -9.8969e-19 -0.000617551)
(-4.44015e-21 4.94643e-19 -0.000726006)
(-3.60202e-21 -1.85875e-20 -0.000846934)
(-4.81199e-21 -2.2222e-20 -0.000981743)
(2.92298e-20 -9.70628e-19 -0.00113201)
(-1.62406e-21 -2.01913e-20 -0.0012996)
(2.81942e-20 -9.88555e-19 -0.00148667)
(-5.34413e-21 -7.71633e-21 -0.00169554)
(-1.69052e-22 1.18287e-22 -0.00192886)
(1.13521e-20 8.36692e-21 -0.00218965)
(-5.39322e-20 9.5054e-19 -0.00248136)
(4.82469e-20 -9.70868e-19 -0.00280783)
(1.2673e-20 8.27229e-21 -0.00317345)
(-8.61587e-21 -1.48739e-20 -0.00358311)
(-6.12319e-21 9.82641e-21 -0.00404235)
(-7.55685e-20 9.16818e-19 -0.00455742)
(1.62259e-19 -1.87003e-18 -0.00513544)
(-7.71133e-20 9.7492e-19 -0.00578451)
(-1.95144e-19 1.80634e-18 -0.00651408)
(-3.04089e-20 -4.56355e-20 -0.00733541)
(2.3841e-21 -2.68058e-20 -0.00826254)
(-6.57178e-20 -5.39265e-20 -0.00931407)
(2.62375e-19 -1.80363e-18 -0.0105167)
(4.0123e-19 -1.6689e-18 -0.0119116)
(-3.58887e-19 1.75136e-18 -0.0135674)
(-3.36249e-20 -5.43951e-20 -0.015602)
(4.74406e-19 -1.59401e-18 -0.0182226)
(-4.1928e-19 1.68805e-18 -0.0217905)
(-6.66611e-19 1.49829e-18 -0.0269242)
(5.67674e-19 -1.58214e-18 -0.0346511)
(7.73944e-20 -1.10612e-20 -0.0466138)
(8.62288e-19 -1.39549e-18 -0.0653304)
(1.18241e-19 1.21779e-19 -0.0944997)
(-9.94383e-19 1.36581e-18 -0.13936)
(-1.60294e-20 -3.91024e-20 -0.207177)
(3.31582e-20 5.20695e-22 -0.308573)
(-3.33503e-20 1.56187e-20 -0.462348)
(-5.04207e-19 5.2733e-19 -0.704872)
(4.95473e-19 -5.36596e-19 -0.967064)
(-1.07156e-20 -3.1622e-21 0.0097949)
(-1.0698e-20 -3.93567e-22 0.00525284)
(1.00278e-20 9.96095e-21 0.00141035)
(-6.92004e-21 2.34825e-21 -0.001801)
(7.44433e-21 -1.18294e-20 -0.00445675)
(6.19608e-23 3.53122e-21 -0.00663461)
(-1.73093e-22 -9.77398e-23 -0.00840767)
(-5.62555e-21 1.23036e-23 -0.00983766)
(5.46898e-21 -1.19612e-23 -0.0109744)
(-1.63989e-22 3.5866e-25 -0.0118613)
(-1.58104e-22 3.4579e-25 -0.0125342)
(4.70682e-21 -1.02943e-23 -0.0130215)
(-4.72195e-21 1.03274e-23 -0.0133466)
(-4.24711e-21 9.28886e-24 -0.0135307)
(2.98019e-22 -9.99049e-22 -0.0135917)
(6.24017e-21 5.85622e-21 -0.0135448)
(-2.24501e-21 -3.50752e-21 -0.0134041)
(-7.0473e-23 -9.40475e-22 -0.0131823)
(-2.60936e-23 7.21545e-22 -0.0128912)
(-2.3224e-21 -1.68796e-20 -0.0125411)
(2.36026e-21 1.60181e-20 -0.0121408)
(-1.6559e-21 -2.05738e-20 -0.0116984)
(1.57373e-21 1.00122e-21 -0.0112212)
(-2.08472e-21 1.21049e-23 -0.010717)
(1.37338e-21 1.98138e-21 -0.0101942)
(-5.10234e-22 2.96471e-23 -0.00965964)
(-1.28646e-21 2.81362e-24 -0.00911806)
(5.96991e-22 -1.63466e-23 -0.0085743)
(2.00952e-22 2.86567e-21 -0.00803285)
(-2.52883e-23 2.51605e-23 -0.00749769)
(-2.04383e-22 -3.31179e-21 -0.00697232)
(1.88868e-22 3.51562e-21 -0.00645976)
(-5.69768e-23 -3.75508e-21 -0.00596264)
(7.90222e-22 3.61116e-20 -0.00548317)
(-9.54698e-22 -3.63275e-20 -0.00502316)
(-5.92228e-22 -3.10466e-20 -0.00458408)
(1.34623e-21 6.7802e-20 -0.00416706)
(-7.5209e-22 -3.69921e-20 -0.0037729)
(-1.44527e-22 -4.90767e-21 -0.0034021)
(1.41863e-22 5.09494e-21 -0.00305492)
(-4.79375e-23 1.238e-24 -0.00273136)
(2.25167e-22 5.40864e-21 -0.00243118)
(-4.324e-22 -2.81701e-20 -0.00215399)
(3.9876e-22 2.84071e-20 -0.00189919)
(-9.91651e-23 -5.89754e-21 -0.00166605)
(2.62571e-22 1.81969e-20 -0.00145366)
(3.55671e-23 -6.0521e-21 -0.00126103)
(-1.65407e-22 -1.26256e-20 -0.00108695)
(4.07683e-23 6.36042e-21 -0.000930019)
(-1.22081e-22 -6.53939e-21 -0.000788503)
(-1.54197e-20 2.53636e-20 0.028378)
(3.1068e-20 -9.76419e-21 0.0148635)
(-2.51091e-20 -2.21275e-20 0.00333928)
(8.59534e-21 2.28456e-20 -0.00621396)
(-8.98231e-21 -2.23634e-20 -0.0140574)
(-1.26948e-20 6.15458e-21 -0.0204512)
(1.12987e-20 6.80542e-21 -0.0256305)
(1.11207e-20 1.62223e-20 -0.0297897)
(1.99405e-21 -2.78586e-20 -0.0330831)
(-2.26286e-20 6.67713e-21 -0.0356403)
(2.15292e-20 -5.05752e-21 -0.0375683)
(-9.93325e-22 -1.89935e-21 -0.0389519)
(-1.12104e-20 1.6599e-20 -0.0398604)
(-1.25168e-20 -1.27679e-20 -0.0403564)
(8.11221e-21 -1.75145e-20 -0.0404925)
(1.31039e-20 1.63139e-20 -0.040313)
(-7.55805e-21 4.04283e-21 -0.0398598)
(-5.10613e-22 -1.50925e-21 -0.0391704)
(1.28417e-23 -1.14425e-22 -0.0382788)
(6.72706e-22 -1.47127e-24 -0.0372159)
(1.92603e-21 3.00683e-23 -0.0360081)
(-2.03579e-21 -3.38426e-21 -0.0346785)
(1.82895e-20 1.06494e-19 -0.0332481)
(-2.04966e-20 -1.12816e-19 -0.0317424)
(2.20857e-20 1.33425e-19 -0.0301804)
(-1.13979e-20 -5.86047e-20 -0.0285857)
(-2.20739e-20 -1.5937e-19 -0.0269726)
(1.0204e-20 8.11463e-20 -0.0253549)
(7.79158e-22 -2.22552e-21 -0.0237456)
(-1.59302e-21 -6.37684e-21 -0.0221563)
(9.80599e-22 3.30908e-21 -0.020597)
(-1.0749e-21 -1.08815e-20 -0.0190768)
(9.88836e-21 1.20042e-19 -0.017603)
(-2.09613e-20 -2.58004e-19 -0.0161823)
(9.63218e-21 1.259e-19 -0.0148199)
(-9.5017e-22 -1.30642e-20 -0.0135201)
(1.58958e-22 4.54313e-21 -0.012286)
(-2.95465e-24 -3.64276e-23 -0.01112)
(-4.71022e-21 -8.52544e-20 -0.0100236)
(4.01362e-21 7.54147e-20 -0.00899728)
(3.08507e-21 7.49852e-20 -0.00804114)
(-4.51861e-21 -1.02261e-19 -0.00715443)
(1.18012e-22 5.6779e-21 -0.00633587)
(9.73506e-22 2.92084e-20 -0.00558368)
(-2.13788e-21 -5.25913e-20 -0.00489564)
(2.54547e-23 -6.01801e-21 -0.00426908)
(-1.38709e-21 -4.34043e-20 -0.00370097)
(-2.71519e-22 -6.72792e-21 -0.00318771)
(3.28851e-22 1.25228e-20 -0.002725)
(4.01115e-22 1.94568e-20 -0.00230738)
(-1.39679e-20 -1.08392e-21 0.043915)
(-1.43594e-20 -1.57029e-20 0.0216089)
(3.65124e-20 2.9772e-20 0.00243118)
(-4.38831e-20 -1.25624e-20 -0.0131815)
(1.80812e-20 1.21341e-20 -0.0258029)
(2.50449e-20 1.99505e-20 -0.0359658)
(-1.62488e-20 -5.8993e-20 -0.0441155)
(1.98429e-20 -1.63492e-20 -0.0506027)
(-3.0644e-20 4.1011e-20 -0.0556975)
(-1.49709e-20 1.53427e-20 -0.059613)
(4.97828e-20 -3.31591e-20 -0.062524)
(-3.58714e-20 2.81814e-20 -0.0645711)
(6.66748e-21 -1.12366e-20 -0.0658676)
(-3.34721e-21 -9.10266e-21 -0.0665104)
(5.8671e-20 5.58421e-20 -0.0665829)
(-3.83045e-21 3.4945e-20 -0.0661587)
(-5.22992e-20 -7.28159e-20 -0.065304)
(1.07578e-20 -4.85271e-21 -0.0640782)
(-7.27029e-21 2.7148e-22 -0.0625357)
(3.82676e-22 -2.73079e-21 -0.0607253)
(3.39295e-20 9.64377e-20 -0.0586897)
(-3.392e-20 -8.56805e-20 -0.0564662)
(-3.61797e-20 -1.21243e-19 -0.0540901)
(3.94317e-20 1.2146e-19 -0.0515947)
(-5.65466e-22 6.90601e-21 -0.0490193)
(-4.14368e-22 -4.97639e-21 -0.0463928)
(-2.3683e-22 6.43628e-21 -0.0437434)
(-3.29759e-20 -1.82816e-19 -0.0410921)
(3.67143e-20 1.87441e-19 -0.038459)
(-3.43803e-20 -2.01287e-19 -0.0358624)
(3.67557e-20 2.14224e-19 -0.0333182)
(8.52136e-22 7.65242e-21 -0.0308404)
(3.30776e-20 2.54555e-19 -0.0284411)
(-6.53861e-20 -5.12931e-19 -0.0261302)
(3.41411e-20 2.7498e-19 -0.0239161)
(1.59012e-20 1.54775e-19 -0.0218054)
(-1.41903e-20 -1.36386e-19 -0.0198031)
(4.54991e-24 -3.36877e-23 -0.0179127)
(-4.10528e-22 -1.47048e-22 -0.0161363)
(-4.35925e-23 1.0193e-22 -0.0144747)
(1.24507e-20 1.72836e-19 -0.0129277)
(-1.21002e-20 -1.62445e-19 -0.0114939)
(9.961e-22 1.14386e-20 -0.0101713)
(-5.1446e-22 -3.25881e-23 -0.00895661)
(5.01815e-21 9.54991e-20 -0.00784626)
(-9.35171e-21 -1.81484e-19 -0.00683581)
(4.63725e-21 9.79364e-20 -0.00592017)
(-2.41396e-21 -5.09224e-20 -0.00509339)
(1.8136e-21 3.79353e-20 -0.00434804)
(4.33645e-22 1.27748e-20 -0.00367414)
(1.95983e-21 2.66835e-20 0.0535255)
(8.62284e-21 -5.44184e-20 0.0228003)
(-7.36738e-20 1.55262e-20 -0.00379053)
(1.19868e-19 8.23918e-20 -0.0248074)
(-3.03193e-20 -1.113e-19 -0.0413849)
(-1.35048e-20 2.46943e-20 -0.0544804)
(-1.73052e-21 1.75488e-20 -0.0648215)
(-6.78713e-21 5.68337e-21 -0.0729385)
(-2.86355e-20 3.95991e-21 -0.0792251)
(7.4187e-20 -2.28341e-20 -0.0839737)
(-2.63913e-20 1.285e-20 -0.0874197)
(-1.3385e-20 6.47252e-22 -0.0897494)
(1.92195e-20 1.01715e-20 -0.0911123)
(-8.1133e-20 -8.00682e-20 -0.091633)
(6.4685e-20 5.84867e-20 -0.0914222)
(-9.84865e-21 1.28208e-20 -0.0905764)
(8.92238e-21 -8.73429e-21 -0.0891805)
(8.27312e-20 1.5706e-19 -0.0873117)
(-8.68613e-20 -1.41818e-19 -0.0850405)
(4.26036e-22 -1.05564e-20 -0.0824303)
(-2.62072e-21 -9.26495e-23 -0.0795386)
(2.78121e-21 4.91195e-22 -0.076412)
(2.09085e-21 -7.77187e-23 -0.0730989)
(-4.92775e-21 4.72197e-21 -0.0696412)
(4.69952e-21 4.4224e-22 -0.0660867)
(8.69511e-22 7.85481e-21 -0.0624766)
(-1.03031e-19 -3.82946e-19 -0.0588478)
(1.04137e-19 3.72524e-19 -0.0552264)
(-3.93636e-21 3.60538e-21 -0.0516386)
(-4.62003e-20 -2.26996e-19 -0.0481076)
(5.07371e-20 2.33224e-19 -0.0446543)
(-7.39987e-22 8.58884e-22 -0.0412966)
(-1.63313e-22 1.0567e-23 -0.0380501)
(-4.60375e-20 -2.84967e-19 -0.0349276)
(9.09328e-20 5.73104e-19 -0.0319398)
(-8.69436e-20 -5.86945e-19 -0.0290949)
(8.43096e-20 6.09719e-19 -0.0263991)
(-8.08913e-20 -6.31413e-19 -0.0238568)
(3.94397e-20 3.21103e-19 -0.0214703)
(1.82185e-20 1.70591e-19 -0.0192404)
(-1.59311e-20 -1.49174e-19 -0.0171663)
(-1.30152e-21 -1.12622e-20 -0.0152459)
(-1.55836e-20 -1.84022e-19 -0.0134761)
(3.28433e-20 3.96477e-19 -0.0118524)
(-1.52296e-20 -1.89097e-19 -0.0103696)
(1.64441e-22 2.51121e-22 -0.0090215)
(6.47638e-22 1.23501e-20 -0.00780114)
(-1.43576e-22 -1.14735e-22 -0.00670013)
(-6.36048e-22 -1.2766e-20 -0.00570777)
(1.38145e-21 2.60596e-20 -0.00480842)
(2.71989e-20 9.62772e-23 0.0533253)
(3.37504e-22 4.00757e-22 0.0145975)
(-6.14213e-20 4.51539e-22 -0.0186218)
(9.08936e-20 -2.8506e-22 -0.0437009)
(-2.71951e-20 1.59535e-23 -0.0627839)
(-4.35673e-20 -8.38891e-22 -0.0774554)
(1.41841e-20 9.06553e-23 -0.088801)
(-1.15557e-20 -1.67209e-22 -0.0975268)
(9.34431e-20 -2.55784e-20 -0.104128)
(3.47538e-20 1.02018e-19 -0.108974)
(5.44517e-22 7.34487e-20 -0.112336)
(-6.47828e-20 -1.52665e-19 -0.114429)
(1.14514e-19 1.87965e-19 -0.115426)
(-1.33173e-19 -1.79079e-19 -0.115472)
(6.10029e-20 1.20788e-19 -0.114692)
(-7.25579e-20 -1.27073e-19 -0.113195)
(5.23698e-21 -6.72397e-21 -0.11108)
(-2.62819e-20 -2.1501e-21 -0.108435)
(2.29831e-20 -3.91773e-21 -0.10534)
(1.65515e-21 3.12736e-21 -0.10187)