/*--------------------------------*- C++ -*----------------------------------*\
| =========                 |                                                 |
| \\      /  F ield         | OpenFOAM: The Open Source CFD Toolbox           |
|  \\    /   O peration     | Version:  2412                                  |
|   \\  /    A nd           | Website:  www.openfoam.com                      |
|    \\/     M anipulation  |                                                 |
\*---------------------------------------------------------------------------*/
FoamFile
{
    version     2.0;
    format      ascii;
    arch        "LSB;label=32;scalar=64";
    class       surfaceScalarField;
    location    "6.5";
    object      phi;
}
// * * * * * * * * * * * * * * * * * * * * * * * * * * * * * * * * * * * * * //

dimensions      [0 3 -1 0 0 0 0];

oriented        oriented;

internalField   nonuniform List<scalar> 
10387
(
0.00477293
9.2617e-06
-3.32956e-09
0.00476218
1.07549e-05
-3.25423e-09
0.00474972
1.24583e-05
-3.20036e-09
0.00473535
1.43807e-05
-3.16719e-09
0.00471882
1.65314e-05
-3.14679e-09
0.0046999
1.89225e-05
-3.14088e-09
0.00467833
2.15712e-05
-3.14063e-09
0.00465383
2.45015e-05
-3.14093e-09
0.00462609
2.77456e-05
-3.1343e-09
0.00459475
3.13453e-05
-3.11237e-09
0.0045594
3.53532e-05
-3.06726e-09
0.00451957
3.98342e-05
-2.99205e-09
0.0044747
4.48678e-05
-2.88269e-09
0.00442415
5.05509e-05
-2.7392e-09
0.00436715
5.70017e-05
-2.56653e-09
0.00430279
6.43652e-05
-2.37289e-09
0.00422997
7.28204e-05
-2.16795e-09
0.00414739
8.25895e-05
-1.96275e-09
0.00405344
9.39501e-05
-1.76726e-09
0.00394619
0.00010725
-1.58793e-09
0.00382327
0.00012292
-1.42788e-09
0.00368178
0.00014149
-1.28838e-09
0.0035182
0.000163585
-1.16881e-09
0.00332831
0.000189892
-1.06448e-09
0.00310724
0.000221069
-9.7127e-10
0.0028497
0.000257538
-8.85324e-10
0.00255059
0.00029911
-8.0223e-10
0.00220622
0.000344378
-7.18507e-10
0.00181642
0.000389794
-6.30214e-10
0.00138802
0.000428406
-5.36093e-10
0.000939724
0.000448293
-4.34807e-10
0.000509031
0.000430693
-3.29753e-10
0.000161806
0.000347226
-2.24912e-10
0.000161806
-1.00825e-10
0.00474974
1.99979e-05
0.0047375
2.29897e-05
0.00472356
2.63987e-05
0.0047077
3.02431e-05
0.00468969
3.45421e-05
0.00466929
3.9321e-05
0.00464624
4.46148e-05
0.00462027
5.04725e-05
0.00459106
5.69592e-05
0.00455825
6.41587e-05
0.00452142
7.21766e-05
0.00448011
8.1143e-05
0.00443377
9.12168e-05
0.00438172
0.000102592
0.00432322
0.000115503
0.00425735
0.00013024
0.00418301
0.000147159
0.0040989
0.000166701
0.00400343
0.000189417
0.00389469
0.000215994
0.00377032
0.000247283
0.00362749
0.000284326
0.00346272
0.000328346
0.00327194
0.000380679
0.00305042
0.000442586
0.00279312
0.000514838
0.00249526
0.000596974
0.00215354
0.000686091
0.00176828
0.000775056
0.00134667
0.00085002
0.000907647
0.000887313
0.000488358
0.000849982
0.000152277
0.000683308
0.000314082
0.00470378
3.36473e-05
0.00468862
3.81469e-05
0.00467176
4.3265e-05
0.00465297
4.90299e-05
0.00463204
5.54725e-05
0.00460873
6.26324e-05
0.00458278
7.05645e-05
0.00455391
7.93438e-05
0.0045218
8.90695e-05
0.00448609
9.98687e-05
0.00444636
0.0001119
0.00440215
0.00012536
0.00435288
0.000140487
0.0042979
0.000157569
0.00423644
0.000176959
0.0041676
0.000199089
0.00409027
0.000224487
0.00400316
0.000253807
0.00390472
0.000287864
0.00379304
0.000327668
0.00366586
0.000374469
0.0035204
0.00042978
0.00335338
0.000495366
0.00316093
0.000573134
0.00293868
0.000664833
0.00268208
0.000771438
0.00238701
0.000892048
0.00205098
0.00102212
0.00167516
0.00115087
0.0012674
0.00125778
0.000846798
0.00130791
0.000450036
0.00124674
0.000137652
0.000995691
0.000451734
0.00463591
5.1566e-05
0.00461647
5.75839e-05
0.00459532
6.44138e-05
0.00457226
7.20958e-05
0.00454706
8.06738e-05
0.00451949
9.02044e-05
0.00448929
0.000100764
0.00445617
0.000112456
0.00441983
0.000125415
0.00437989
0.000139812
0.00433592
0.000155861
0.00428746
0.000173824
0.00423393
0.000194018
0.00417467
0.000216827
0.00410891
0.000242719
0.00403574
0.000272263
0.00395407
0.000306156
0.00386262
0.000345256
0.00375986
0.000390625
0.00364396
0.000443572
0.00351272
0.000505705
0.00336355
0.000578951
0.00319338
0.000665531
0.00299873
0.000767789
0.00277577
0.000887788
0.00252073
0.00102648
0.00223048
0.00118229
0.00190378
0.00134882
0.00154298
0.00151168
0.0011567
0.00164406
0.000763688
0.00170092
0.000398653
0.00161178
0.000116791
0.00127755
0.000568526
0.0045473
7.50048e-05
0.00452234
8.25502e-05
0.00449566
9.10923e-05
0.00446707
0.000100685
0.00443636
0.000111386
0.00440329
0.000123273
0.00436761
0.000136445
0.00432902
0.000151037
0.00428722
0.00016722
0.00424182
0.000185211
0.0041924
0.00020528
0.00413847
0.000227754
0.00407946
0.00025303
0.0040147
0.000281586
0.00394342
0.000314002
0.0038647
0.000350981
0.00377748
0.00039338
0.00368048
0.000442248
0.00357224
0.00049887
0.00345099
0.000564823
0.00331468
0.000642014
0.00316093
0.000732699
0.00298704
0.00083942
0.00279005
0.000964776
0.00256695
0.00111089
0.00231505
0.00127839
0.00203267
0.00146467
0.0017202
0.00166129
0.00138157
0.0018503
0.00102619
0.00199945
0.000671556
0.00205556
0.000347055
0.00193628
9.62076e-05
0.0015284
0.000664733
0.00443941
0.000105096
0.00440779
0.000114175
0.00437445
0.000124426
0.00433922
0.000135919
0.00430188
0.00014873
0.00426219
0.000162956
0.00421991
0.000178724
0.00417475
0.0001962
0.00412637
0.000215597
0.00407441
0.000237179
0.00401842
0.000261271
0.0039579
0.000288268
0.00389229
0.000318646
0.0038209
0.000352976
0.00374295
0.000391948
0.00365754
0.000436393
0.0035636
0.00048732
0.0034599
0.000545949
0.003345
0.000613763
0.00321728
0.000692551
0.00307485
0.000784438
0.00291568
0.000891876
0.00273757
0.00101753
0.0025384
0.00116395
0.00231637
0.00133292
0.00207048
0.00152428
0.00180125
0.0017339
0.00151161
0.00195093
0.00120783
0.00215409
0.000900375
0.0023069
0.000604449
0.00235148
0.000338485
0.00220224
0.000117004
0.00174988
0.000781737
0.00431425
0.000142793
0.00427502
0.0001534
0.0042341
0.000165346
0.0041913
0.000178717
0.00414643
0.000193607
0.00409924
0.000210139
0.0040495
0.000228468
0.0039969
0.000248796
0.00394113
0.000271375
0.00388178
0.00029652
0.00381844
0.000324614
0.00375059
0.000356118
0.00367765
0.000391586
0.00359894
0.000431685
0.00351368
0.000477209
0.00342096
0.000529116
0.00331972
0.000588554
0.00320877
0.000656902
0.00308672
0.000735812
0.00295204
0.000827235
0.00280304
0.000933431
0.00263802
0.0010569
0.00245536
0.00120019
0.00225386
0.00136545
0.00203317
0.00155361
0.00179449
0.00176296
0.00154133
0.00198706
0.00128043
0.00221183
0.00102241
0.00241211
0.000781418
0.00254789
0.000572171
0.00256073
0.000400045
0.00237437
0.000243277
0.00190665
0.00102501
-2.12481e-05
2.12477e-05
4.60499e-10
-3.40158e-05
1.27663e-05
1.39086e-09
-1.28337e-05
-2.11842e-05
2.05368e-09
5.35107e-05
-6.63468e-05
2.44101e-09
0.000167632
-0.000114124
2.57941e-09
0.000326556
-0.000158926
2.53935e-09
0.000524006
-0.000197452
2.38466e-09
0.000752073
-0.00022807
2.18038e-09
0.00100232
-0.000250253
1.98467e-09
0.00126654
-0.000264213
1.85151e-09
0.00153717
-0.000270636
1.81533e-09
0.00180766
-0.000270491
1.89396e-09
0.00207254
-0.000264881
2.08588e-09
0.00232747
-0.00025494
2.37317e-09
0.00256923
-0.000241762
2.72252e-09
0.00279558
-0.00022635
3.09515e-09
0.00300516
-0.000209584
3.44577e-09
0.00319737
-0.000192212
3.73372e-09
0.00337221
-0.000174842
3.92087e-09
0.00353015
-0.000157946
3.96674e-09
0.00367201
-0.000141868
3.86058e-09
-0.000126844
3.45757e-09
-1.71929e-05
3.84406e-05
-1.99568e-05
1.55302e-05
1.05197e-05
-5.16608e-05
8.39845e-05
-0.000139812
0.000202756
-0.000232896
0.000363587
-0.000319757
0.000560368
-0.000394233
0.000785602
-0.000453304
0.00103136
-0.000496011
0.00128994
-0.000522788
0.00155428
-0.000534977
0.00181824
-0.000534451
0.00207669
-0.000523337
0.00232558
-0.000503823
0.00256183
-0.000478017
0.00278333
-0.000447853
0.00298879
-0.000415037
0.00317759
-0.000381016
0.00334972
-0.00034697
0.00350559
-0.00031382
0.00364597
-0.000282242
-0.000252699
-7.24155e-06
4.56821e-05
6.93233e-06
1.35634e-06
5.23601e-05
-9.70886e-05
0.000138373
-0.000225824
0.000264848
-0.000359372
0.000428199
-0.000483108
0.000622795
-0.000588828
0.000841978
-0.000672487
0.0010788
-0.000732829
0.00132652
-0.00077051
0.00157898
-0.000787437
0.00183078
-0.000786254
0.00207741
-0.000769963
0.00231523
-0.000741651
0.00254152
-0.000704299
0.00275431
-0.000660647
0.0029524
-0.000613122
0.00313517
-0.000563792
0.00330255
-0.000514349
0.00345485
-0.000466122
0.00359271
-0.000420098
-0.000376954
7.27644e-06
3.84057e-05
3.84779e-05
-2.98451e-05
0.000104676
-0.000163287
0.000205736
-0.000326885
0.000340146
-0.000493781
0.000504401
-0.000647363
0.000693821
-0.000778249
0.000903069
-0.000881735
0.00112659
-0.000956348
0.00135896
-0.00100288
0.00159515
-0.00102363
0.00183071
-0.00102181
0.00206183
-0.00100108
0.0022854
-0.00096522
0.002499
-0.000917901
0.00270088
-0.00086252
0.00288986
-0.000802103
0.00306531
-0.000739241
0.00322703
-0.000676077
0.00337522
-0.000614304
0.00351031
-0.000555193
-0.00049963
2.162e-05
1.67857e-05
7.5928e-05
-8.41531e-05
0.000162267
-0.000249626
0.000276243
-0.00044086
0.000414927
-0.000632464
0.000575467
-0.000807904
0.000754726
-0.000957508
0.000949156
-0.00107617
0.00115492
-0.00116211
0.00136808
-0.00121604
0.00158484
-0.0012404
0.00180168
-0.00123865
0.00201545
-0.00121485
0.00222349
-0.00117326
0.00242363
-0.00111804
0.0026142
-0.00105309
0.00279402
-0.000981925
0.00296235
-0.000907571
0.00311884
-0.000832564
0.00326347
-0.000758932
0.00339649
-0.000688214
0.00351837
-0.000621507
-0.000559516
4.36804e-05
-2.68947e-05
0.000123094
-0.000163567
0.000225339
-0.000351871
0.000344862
-0.000560383
0.000479434
-0.000767036
0.000627988
-0.000956457
0.000789611
-0.00111913
0.000962936
-0.00124949
0.00114601
-0.00134518
0.00133641
-0.00140645
0.00153146
-0.00143544
0.00172838
-0.00143557
0.00192452
-0.00141099
0.00211744
-0.00136618
0.00230505
-0.00130564
0.0024856
-0.00123365
0.00265777
-0.00115409
0.0028206
-0.0010704
0.00297352
-0.000985479
0.00311625
-0.000901665
0.00324882
-0.000820779
0.00337145
-0.00074414
-0.000672625
7.62414e-05
-0.000103136
0.000178588
-0.000265913
0.00028577
-0.000459053
0.000397398
-0.000672011
0.000515362
-0.000885001
0.000641741
-0.00108284
0.000778172
-0.00125556
0.000925355
-0.00139667
0.00108291
-0.00150273
0.00124952
-0.00157306
0.00142319
-0.00160911
0.00160155
-0.00161393
0.00178207
-0.00159152
0.00196231
-0.00154642
0.00214002
-0.00148335
0.00231324
-0.00140687
0.00248038
-0.00132124
0.00264023
-0.00123025
0.00279191
-0.00113716
0.0029349
-0.00104466
0.00306897
-0.000954852
0.00319414
-0.000869315
-0.000789121
0.00048392
-0.000468525
-0.000118531
0.000834236
-0.000616229
0.00116598
-0.000790799
0.00147645
-0.000982482
0.00176459
-0.00117314
0.00202983
-0.00134808
0.00227222
-0.00149795
0.00249254
-0.00161699
0.00269216
-0.00170235
0.00287278
-0.00175368
0.00303626
-0.0017726
0.0031845
-0.00176216
0.0033193
-0.00172631
0.00344233
-0.00166946
0.00355511
-0.00159612
0.00365893
-0.0015107
0.00375494
-0.00141724
0.00384406
-0.00131937
0.00392707
-0.00122017
0.00400461
-0.00112219
0.00407717
-0.00102741
0.00414517
-0.000937317
0.00420895
-0.000852902
0.00105129
-0.000804911
-0.000714907
0.00138354
-0.000948473
0.00169898
-0.00110624
0.00199086
-0.00127436
0.00225716
-0.00143944
0.00249779
-0.0015887
0.00271344
-0.0017136
0.00290551
-0.00180906
0.00307592
-0.00187276
0.00322687
-0.00190464
0.00336074
-0.00190647
0.00347986
-0.00188128
0.00358645
-0.0018329
0.00368254
-0.00176555
0.00376992
-0.00168351
0.00385011
-0.00159089
0.00392436
-0.00149149
0.00399367
-0.00138868
0.00405881
-0.00128531
0.00412036
-0.00118373
0.00417873
-0.00108578
0.00423422
-0.000992803
-0.000905702
0.00184306
-0.00107528
-0.00157269
0.00211382
-0.00121924
0.00237643
-0.00136886
0.00262121
-0.00151914
0.00284345
-0.00166168
0.00304173
-0.00178698
0.00321627
-0.00188814
0.00336834
-0.00196114
0.00349992
-0.00200434
0.00361341
-0.00201813
0.00371139
-0.00200444
0.0037964
-0.0019663
0.00387088
-0.00190738
0.003937
-0.00183167
0.00399666
-0.00174316
0.00405141
-0.00164565
0.00410253
-0.00154261
0.00415097
-0.00143711
0.0041974
-0.00133175
0.0042423
-0.00122863
0.00428594
-0.00112942
0.00432845
-0.00103532
-0.000947128
0.00274934
-0.00126539
-0.00255924
0.00294262
-0.00141252
0.00313368
-0.00155992
0.00331357
-0.00169902
0.00347639
-0.0018245
0.00361967
-0.00193026
0.00374297
-0.00201144
0.00384715
-0.00206532
0.00393398
-0.00209116
0.00400572
-0.00208987
0.00406487
-0.00206359
0.00411396
-0.00201538
0.00415534
-0.00194876
0.00419112
-0.00186746
0.00422311
-0.00177515
0.00425277
-0.00167531
0.00428123
-0.00157107
0.00430931
-0.00146519
0.00433755
-0.00135998
0.00436625
-0.00125733
0.00439552
-0.0011587
0.00442535
-0.00106514
-0.000977373
0.00367526
-0.00137412
-0.00356653
0.00378903
-0.00152628
0.00390376
-0.00167465
0.00401249
-0.00180775
0.00410969
-0.00192171
0.00419262
-0.00201318
0.00426048
-0.0020793
0.00431383
-0.00211867
0.00435412
-0.00213146
0.00438337
-0.00211911
0.00440382
-0.00208404
0.00441773
-0.0020293
0.00442725
-0.00195827
0.00443423
-0.00187444
0.00444024
-0.00178116
0.00444653
-0.0016816
0.00445401
-0.00157855
0.00446328
-0.00147447
0.00447471
-0.00137141
0.0044884
-0.00127103
0.00450431
-0.00117461
0.00452226
-0.00108308
-0.000997075
0.00454498
-0.00140879
-0.00451031
0.00458585
-0.00156715
0.00462899
-0.00171779
0.00466946
-0.00184822
0.00470293
-0.00195517
0.00472703
-0.00203729
0.00474105
-0.00209332
0.00474543
-0.00212305
0.00474139
-0.00212743
0.00473067
-0.00210839
0.00471519
-0.00206856
0.00469689
-0.002011
0.00467755
-0.00193893
0.00465871
-0.00185559
0.00464162
-0.00176407
0.00462723
-0.0016672
0.00461618
-0.00156751
0.00460887
-0.00146715
0.00460542
-0.00136796
0.00460578
-0.00127139
0.00460973
-0.00117856
0.00461696
-0.00109031
-0.00100718
0.00530542
-0.00138221
-0.00533201
0.00528526
-0.00154699
0.00526742
-0.00169995
0.00524866
-0.00182946
0.00522611
-0.00193263
0.00519818
-0.00200936
0.0051645
-0.00205964
0.0051256
-0.00208414
0.00508261
-0.00208443
0.00503701
-0.00206279
0.00499044
-0.00202199
0.00494447
-0.00196503
0.00490053
-0.00189499
0.0048598
-0.00181487
0.00482322
-0.00172748
0.0047914
-0.00163539
0.00476475
-0.00154086
0.00474341
-0.00144581
0.00472732
-0.00135187
0.00471626
-0.00126032
0.00470988
-0.00117218
0.00470774
-0.00108818
-0.0010088
0.00592653
-0.00131019
-0.00599854
0.00585989
-0.00148035
0.0057947
-0.00163477
0.00572909
-0.00176384
0.00566164
-0.00186518
0.00559167
-0.00193938
0.00551928
-0.00198726
0.00544523
-0.00201009
0.00537064
-0.00200984
0.00529686
-0.00198901
0.00522525
-0.00195038
0.00515709
-0.00189687
0.00509349
-0.00183139
0.0050353
-0.00175668
0.00498314
-0.00167533
0.00493739
-0.00158964
0.00489819
-0.00150165
0.00486548
-0.0014131
0.00483906
-0.00132544
0.00481855
-0.00123982
0.00480352
-0.00115715
0.00479344
-0.0010781
-0.00100312
0.00639892
-0.00120902
-0.00650009
0.00630082
-0.00138225
0.00620262
-0.00153657
0.00610359
-0.00166482
0.00600359
-0.00176517
0.0059028
-0.00183859
0.00580187
-0.00188633
0.00570181
-0.00191003
0.00560381
-0.00191185
0.00550914
-0.00189434
0.00541899
-0.00186023
0.0053344
-0.00181228
0.0052562
-0.00175319
0.00518501
-0.00168549
0.00512119
-0.00161151
0.00506491
-0.00153336
0.00501613
-0.00145287
0.00497464
-0.00137161
0.00494009
-0.00129089
0.00491205
-0.00121178
0.00488999
-0.0011351
0.00487335
-0.00106146
-0.000991306
0.00672955
-0.00109322
-0.00684535
0.00661369
-0.00126638
0.00649576
-0.00141864
0.00637603
-0.00154509
0.00625536
-0.0016445
0.00613471
-0.00171793
0.00601519
-0.00176681
0.00589808
-0.00179292
0.00578469
-0.00179846
0.00567623
-0.00178588
0.00557379
-0.00175779
0.00547824
-0.00171673
0.00539024
-0.00166519
0.00531021
-0.00160546
0.00523836
-0.00153966
0.0051747
-0.0014697
0.00511905
-0.00139722
0.00507111
-0.00132368
0.00503048
-0.00125026
0.00499664
-0.00117795
0.00496906
-0.00110751
0.00494714
-0.00103954
-0.000974455
0.00693632
-0.000974274
-0.00705527
0.00681393
-0.00114399
0.00668739
-0.00129211
0.00655782
-0.00141551
0.0064268
-0.00151349
0.00629589
-0.00158702
0.00616659
-0.00163751
0.0060404
-0.00166674
0.00591872
-0.00167678
0.00580278
-0.00166994
0.00569359
-0.00164859
0.00559192
-0.00161507
0.00549834
-0.0015716
0.00541313
-0.00152026
0.00533641
-0.00146294
0.00526809
-0.00140138
0.00520795
-0.00133708
0.00515562
-0.00127135
0.00511067
-0.00120531
0.00507258
-0.00113986
0.0050408
-0.00107573
0.00501475
-0.00101349
-0.00095356
0.0070427
-0.000860118
-0.00715685
0.00692205
-0.00102334
0.00679537
-0.00116543
0.0066644
-0.00128453
0.00653121
-0.0013803
0.00639775
-0.00145356
0.00626581
-0.00150557
0.00613704
-0.00153797
0.00601291
-0.00155265
0.00589466
-0.00155169
0.00578329
-0.00153721
0.00567951
-0.00151129
0.00558381
-0.0014759
0.00549645
-0.00143289
0.00541748
-0.00138397
0.00534678
-0.00133068
0.00528412
-0.00127441
0.00522912
-0.00121635
0.00518135
-0.00115754
0.00514032
-0.00109883
0.00510549
-0.00104091
0.00507633
-0.000984326
-0.000929501
0.00707328
-0.000755463
-0.00717793
0.00695977
-0.000909835
0.00683875
-0.00104441
0.00671234
-0.00115813
0.0065829
-0.00125086
0.00645257
-0.00132323
0.0063233
-0.0013763
0.00619684
-0.0014115
0.00607469
-0.0014305
0.00595809
-0.0014351
0.00584804
-0.00142716
0.00574523
-0.00140848
0.00565013
-0.0013808
0.00556297
-0.00134574
0.00548382
-0.00130482
0.00541256
-0.00125943
0.00534896
-0.00121081
0.00529269
-0.00116008
0.00524334
-0.00110819
0.00520045
-0.00105594
0.00516354
-0.001004
0.00513211
-0.000952895
-0.000903044
0.00705063
-0.000662463
-0.00714363
0.00694724
-0.000806453
0.00683535
-0.000932516
0.00671726
-0.00104004
0.0065954
-0.001129
0.00647198
-0.00119981
0.00634899
-0.00125331
0.00622819
-0.00129071
0.00611111
-0.00131341
0.00599897
-0.00132296
0.00589274
-0.00132093
0.00579312
-0.00130887
0.00570059
-0.00128827
0.00561539
-0.00126054
0.00553761
-0.00122704
0.00546716
-0.00118898
0.00540385
-0.0011475
0.0053474
-0.00110362
0.00529744
-0.00105823
0.00525359
-0.00101208
0.0052154
-0.000965809
0.00518243
-0.000919925
-0.000874841
0.00699356
-0.000581498
-0.00707452
0.00690147
-0.000714365
0.00680036
-0.000831406
0.00669256
-0.000932241
0.00658042
-0.00101685
0.00646609
-0.00108548
0.00635154
-0.00113876
0.00623848
-0.00117765
0.0061284
-0.00120332
0.00602249
-0.00121706
0.00592172
-0.00122016
0.00582679
-0.00121393
0.00573817
-0.00119965
0.00565614
-0.00117852
0.00558082
-0.00115172
0.00551218
-0.00112033
0.00545007
-0.00108539
0.00539427
-0.00104782
0.00534448
-0.00100844
0.00530036
-0.000967962
0.00526154
-0.000926987
0.00522763
-0.000886014
-0.000845446
0.00691657
-0.000511877
-0.00698619
0.00683573
-0.000633524
0.00674578
-0.000741456
0.00664893
-0.000835393
0.00654737
-0.00091529
0.00644312
-0.000981237
0.00633804
-0.00103368
0.00623377
-0.00107338
0.00613171
-0.00110126
0.00603302
-0.00111837
0.00593865
-0.00112578
0.00584927
-0.00112456
0.00576539
-0.00111577
0.00568732
-0.00110044
0.0056152
-0.0010796
0.00554905
-0.00105419
0.0054888
-0.00102514
0.00543426
-0.000993288
0.00538522
-0.000959396
0.00534138
-0.000924129
0.00530245
-0.000888056
0.00526809
-0.000851655
-0.00081532
0.00683006
-0.000452375
-0.00688956
0.00675971
-0.000563171
0.00668048
-0.000662226
0.00659438
-0.000749297
0.00650339
-0.000824297
0.00640935
-0.000887203
0.00631398
-0.000938311
0.0062188
-0.000978192
0.00612512
-0.00100758
0.00603405
-0.0010273
0.00594647
-0.00103821
0.00586308
-0.00104117
0.00578438
-0.00103706
0.00571069
-0.00102676
0.00564221
-0.00101111
0.005579
-0.000990981
0.00552104
-0.000967174
0.0054682
-0.000940457
0.00542033
-0.000911527
0.00537721
-0.000881003
0.00533858
-0.000849424
0.00530417
-0.000817245
-0.000784848
0.00674099
-0.000401599
-0.00679176
0.00668002
-0.000502203
0.00661062
-0.000592829
0.00653457
-0.000673246
0.0064536
-0.000743328
0.00636937
-0.000802973
0.00628342
-0.000852359
0.00619713
-0.000891908
0.00611173
-0.000922182
0.00602825
-0.000943815
0.00594752
-0.000957478
0.00587021
-0.000963864
0.00579683
-0.000963679
0.00572772
-0.000957645
0.0056631
-0.000946495
0.00560308
-0.000930965
0.00554769
-0.000911779
0.00549685
-0.000889624
0.00545047
-0.000865141
0.00540837
-0.000838903
0.00537036
-0.000811414
0.00533622
-0.000783106
-0.000754345
0.00665366
-0.000358191
-0.00669706
0.00660087
-0.000449417
0.00654023
-0.00053219
0.00647327
-0.000606285
0.00640149
-0.000671549
0.00632635
-0.000727834
0.00624922
-0.00077523
0.00617135
-0.000814038
0.00609385
-0.000844677
0.00601765
-0.000867624
0.00594357
-0.000883392
0.00587222
-0.000892519
0.00580411
-0.000895566
0.00573959
-0.000893123
0.0056789
-0.000885808
0.00562219
-0.000874256
0.00556952
-0.000859107
0.00552088
-0.000840978
0.00547619
-0.000820453
0.00543534
-0.00079806
0.0053982
-0.000774271
0.00536458
-0.00074949
-0.000724067
0.00657049
-0.000320939
-0.00660774
0.00652473
-0.000403653
0.00647174
-0.000479205
0.00641284
-0.000547381
0.00634931
-0.000608016
0.00628241
-0.000660937
0.00621335
-0.000706175
0.00614325
-0.000743936
0.0060731
-0.000774524
0.00600376
-0.000798286
0.00593597
-0.000815601
0.00587033
-0.000826875
0.00580731
-0.000832545
0.00574727
-0.000833086
0.00569047
-0.000829012
0.00563709
-0.000820871
0.0055872
-0.000809223
0.00554085
-0.000794622
0.005498
-0.000777599
0.00545857
-0.000758638
0.00542248
-0.000738177
0.00538958
-0.000716596
-0.000694222
0.00649266
-0.000288812
-0.00652479
0.00645288
-0.000363866
0.00640651
-0.000432838
0.00635466
-0.00049553
0.00629842
-0.000551777
0.00623889
-0.000601403
0.00617711
-0.000644398
0.00611407
-0.000680897
0.00605066
-0.000711111
0.00598765
-0.000735283
0.00592573
-0.00075368
0.00586545
-0.000766596
0.00580727
-0.000774362
0.00575154
-0.000777353
0.00569852
-0.000775996
0.00564841
-0.000770757
0.00560131
-0.000762127
0.00555729
-0.000750601
0.00551635
-0.000736659
0.00547846
-0.000720747
0.00544355
-0.000703267
0.00541153
-0.000684573
-0.000664973
0.00642056
-0.000260954
-0.00644842
0.00638584
-0.00032915
0.00634516
-0.00039216
0.00629944
-0.000449807
0.0062496
-0.000501941
0.00619659
-0.000548388
0.00614131
-0.000589119
0.00608463
-0.000624216
0.00602733
-0.000653815
0.00597013
-0.000678075
0.00591362
-0.000697172
0.00585833
-0.000711306
0.00580469
-0.000720719
0.00575303
-0.000725702
0.00570364
-0.000726601
0.0056567
-0.000723814
0.00561234
-0.00071777
0.00557065
-0.000708911
0.00553166
-0.000697669
0.00549537
-0.000684453
0.00546173
-0.000669632
0.00543069
-0.000653534
-0.000636447
0.00635411
-0.000236667
-0.0063784
0.0063237
-0.000298736
0.0062879
-0.000356362
0.00624749
-0.000409393
0.00620324
-0.000457697
0.00615597
-0.000501117
0.00610646
-0.000539611
0.00605547
-0.000573223
0.00600369
-0.000602033
0.00595175
-0.000626132
0.00590019
-0.000645621
0.00584951
-0.000660624
0.0058001
-0.000671305
0.00575228
-0.000677885
0.00570632
-0.000680643
0.00566242
-0.000679914
0.00562073
-0.000676074
0.00558133
-0.000669516
0.00554429
-0.000660631
0.00550963
-0.000649789
0.00547733
-0.000637331
0.00544735
-0.00062356
-0.000608742
0.00629303
-0.000215383
-0.00631431
0.00626628
-0.000271984
0.00623467
-0.000324755
0.00619885
-0.000373575
0.00615949
-0.000418333
0.00611726
-0.000458893
0.00607286
-0.00049521
0.00602694
-0.000527301
0.00598011
-0.000555202
0.00593293
-0.000578951
0.0058859
-0.000598587
0.00583944
-0.000614171
0.00579394
-0.000625806
0.00574971
-0.000633648
0.00570699
-0.000637922
0.00566598
-0.00063891
0.00562684
-0.000636938
0.00558968
-0.000632356
0.00555457
-0.000625518
0.00552154
-0.000616761
0.00549061
-0.000606396
0.00546175
-0.000594703
-0.000581928
0.0062369
-0.000196643
-0.00625564
0.00621327
-0.000248358
0.00618527
-0.000296755
0.00615344
-0.00034174
0.00611833
-0.000383227
0.00608054
-0.000421104
0.00604066
-0.000455326
0.00599925
-0.000485894
0.00595686
-0.000512809
0.00591398
-0.000536067
0.00587105
-0.000555658
0.00582847
-0.000571591
0.00578658
-0.000583915
0.00574567
-0.000592739
0.00570598
-0.000598236
0.00566772
-0.000600643
0.00563102
-0.000600246
0.00559602
-0.000597355
0.00556279
-0.000592289
0.00553139
-0.000585356
0.00550183
-0.000576839
0.00547412
-0.000566997
-0.000556054
0.00618529
-0.00018007
-0.00620187
0.00616435
-0.000227417
0.00613947
-0.00027187
0.00611109
-0.000313366
0.00607971
-0.000351844
0.00604582
-0.000387215
0.00600993
-0.000419439
0.00597254
-0.000448504
0.00593412
-0.00047439
0.00589511
-0.000497055
0.00585591
-0.000516451
0.00581686
-0.000532545
0.00577829
-0.000545344
0.00574046
-0.000554912
0.00570361
-0.000561383
0.00566792
-0.000564955
0.00563355
-0.000565875
0.00560062
-0.000564423
0.00556921
-0.000560885
0.0055394
-0.000555542
0.00551121
-0.000548653
0.00548467
-0.000540453
-0.000531151
0.00613779
-0.000165359
-0.0061525
0.00611916
-0.00020879
0.00609698
-0.000249685
0.00607162
-0.000288009
0.0060435
-0.000323722
0.00601304
-0.000356759
0.00598069
-0.00038709
0.00594688
-0.000414693
0.00591202
-0.000439529
0.0058765
-0.00046153
0.00584066
-0.000480618
0.00580484
-0.000496723
0.00576932
-0.000509818
0.00573434
-0.000519933
0.00570012
-0.000527166
0.00566685
-0.000531683
0.00563467
-0.0005337
0.00560372
-0.000533466
0.00557407
-0.00053124
0.00554581
-0.000527278
0.00551897
-0.000521817
0.00549359
-0.000515072
-0.000507233
0.00609399
-0.000152253
-0.00610709
0.00607737
-0.000192169
0.00605753
-0.000229852
0.00603481
-0.000265289
0.00600956
-0.000298465
0.00598213
-0.000329336
0.00595292
-0.00035788
0.0059223
-0.000384071
0.00589063
-0.000407857
0.00585825
-0.000429148
0.00582547
-0.00044784
0.00579258
-0.000463838
0.00575985
-0.000477085
0.0057275
-0.000487581
0.00569573
-0.000495398
0.00566472
-0.000500672
0.00563461
-0.000503593
0.00560553
-0.000504383
0.00557757
-0.000503279
0.0055508
-0.000500512
0.00552529
-0.000496301
0.00550106
-0.00049084
-0.000484305
0.00605353
-0.000140542
-0.00606524
0.00603866
-0.000177297
0.00602088
-0.000212075
0.00600048
-0.000244886
0.00597774
-0.000275734
0.005953
-0.000304596
0.00592658
-0.00033146
0.00589881
-0.000356298
0.00587
-0.000379045
0.00584045
-0.000399598
0.00581044
-0.000417831
0.00578023
-0.000433629
0.00575005
-0.000446909
0.00572012
-0.00045765
0.00569062
-0.000465899
0.00566172
-0.000471769
0.00563356
-0.000475428
0.00560625
-0.000477074
0.00557989
-0.000476924
0.00555457
-0.000475188
0.00553033
-0.000472066
0.00550723
-0.000467737
-0.00046236
0.00601609
-0.000130048
-0.00602659
0.00600275
-0.000163954
0.00598678
-0.000196103
0.00596841
-0.000226522
0.00594791
-0.000255235
0.00592556
-0.000282238
0.00590162
-0.000307527
0.0058764
-0.000331073
0.00585016
-0.000352804
0.00582316
-0.000372604
0.00579567
-0.000390333
0.00576789
-0.000405856
0.00574006
-0.000419074
0.00571235
-0.000429946
0.00568495
-0.0004385
0.00565801
-0.000444829
0.00563167
-0.000449082
0.00560603
-0.000451438
0.0055812
-0.000452094
0.00555726
-0.000451243
0.00553426
-0.000449069
0.00551226
-0.000445733
-0.000441382
0.00598139
-0.00599081
0.00596939
-0.000151957
0.00595501
-0.000181723
0.00593845
-0.000209963
0.00591993
-0.000236718
0.0058997
-0.000262001
0.00587798
-0.000285815
0.00585504
-0.000308133
0.00583112
-0.000328877
0.00580643
-0.00034792
0.00578121
-0.000365112
0.00575566
-0.000380304
0.00572997
-0.000393382
0.00570431
-0.00040429
0.00567885
-0.000413041
0.00565374
-0.000419713
0.00562909
-0.000424436
0.00560503
-0.000427374
0.00558164
-0.000428707
0.00555901
-0.000428613
0.0055372
-0.000427259
0.00551626
-0.000424794
-0.00042135
0.00593835
0.00592538
0.00591042
0.00589367
0.00587533
0.00585561
0.00583472
0.00581288
0.00579029
0.00576713
0.00574361
0.00571988
0.0056961
0.00567244
0.00564902
0.00562596
0.00560337
0.00558134
0.00555996
0.00553929
0.00551938
0.000879222
0.000119311
-0.000998534
0.000746129
0.000133093
0.000605917
0.000140212
0.000463659
0.000142258
0.00032255
0.000141109
0.000195017
0.000127533
7.64854e-05
0.00247553
0.000356334
-0.00271256
0.00220536
0.000403263
0.00191253
0.000433049
0.00160623
0.00044855
0.00129654
0.0004508
0.000997786
0.00042629
0.000359365
0.0038619
0.000625986
-0.00413156
0.00353993
0.000725243
0.00317848
0.000794497
0.00279015
0.000836874
0.0023866
0.00085435
0.00198035
0.000832545
0.000767026
0.00499549
0.000867764
-0.00523727
0.00468777
0.00103296
0.0043252
0.00115707
0.0039203
0.00124177
0.0034849
0.00128976
0.00302963
0.00128781
0.00123742
0.005854
0.0010479
-0.00603414
0.00560242
0.00128454
0.00528616
0.00147333
0.00491478
0.00161315
0.00449873
0.00170581
0.00404639
0.00174015
0.00171728
0.00644877
0.00115574
-0.00655662
0.00627261
0.00146071
0.00602973
0.0017162
0.00572506
0.00191782
0.00536577
0.0020651
0.00495736
0.00214856
0.00216433
0.00681682
0.00119702
-0.0068581
0.00671711
0.00156042
0.00655607
0.00187725
0.00633376
0.00214012
0.00605311
0.00234575
0.00571622
0.00248545
0.00254854
0.00700801
0.0011864
-0.00699738
0.00697378
0.00159464
0.0068889
0.00196213
0.00674954
0.00227948
0.00655454
0.00254075
0.00630261
0.00273739
0.00285261
0.00707228
0.00114051
-0.0070264
0.00708748
0.00157945
0.00706501
0.0019846
0.00699881
0.00234569
0.00688466
0.0026549
0.0067185
0.00290354
0.00307102
0.00705284
0.00107413
-0.00698646
0.00710115
0.00153113
0.00712465
0.0019611
0.00711653
0.00235381
0.00707094
0.00270049
0.00698212
0.00299236
0.00320779
0.00698299
0.000998478
-0.00690734
0.00705067
0.00146346
0.00710463
0.00190714
0.00713851
0.00231993
0.00714604
0.00269295
0.00712084
0.00301757
0.00327336
0.00688625
0.000921129
-0.0068089
0.00696306
0.00138665
0.00703489
0.00183531
0.00709639
0.00225843
0.00714177
0.00264757
0.00716487
0.00299447
0.00328137
0.00677811
0.000846626
-0.00670361
0.0068572
0.00130757
0.00693768
0.00175483
0.00701539
0.00218072
0.00708549
0.00257747
0.00714253
0.00293743
0.00324597
0.00666798
0.000777341
-0.0065987
0.00674522
0.00123033
0.00682823
0.00167183
0.00691395
0.002095
0.00699858
0.00249284
0.00707763
0.00285839
0.00317997
0.0065612
0.000714199
-0.00649805
0.00663441
0.00115711
0.00671625
0.00158999
0.00680456
0.0020067
0.00689648
0.00240092
0.00698847
0.00276639
0.00309392
0.00646048
0.000657278
-0.00640356
0.00652877
0.00108882
0.00660747
0.00151129
0.00669508
0.00191909
0.00678952
0.00230647
0.00688808