/*--------------------------------*- C++ -*----------------------------------*\
| =========                 |                                                 |
| \\      /  F ield         | OpenFOAM: The Open Source CFD Toolbox           |
|  \\    /   O peration     | Version:  2412                                  |
|   \\  /    A nd           | Website:  www.openfoam.com                      |
|    \\/     M anipulation  |                                                 |
\*---------------------------------------------------------------------------*/
FoamFile
{
    version     2.0;
    format      ascii;
    arch        "LSB;label=32;scalar=64";
    class       volScalarField;
    location    "30";
    object      error;
}
// * * * * * * * * * * * * * * * * * * * * * * * * * * * * * * * * * * * * * //

dimensions      [0 0 0 0 0 0 0];

internalField   nonuniform List<scalar> 
5285
(
0.0543044
0.0553361
0.0563801
0.0574348
0.0584986
0.05957
0.0606473
0.0617286
0.0628121
0.0638958
0.0649778
0.0660558
0.0671274
0.0681903
0.0692417
0.0702788
0.0550492
0.0561201
0.0572048
0.0583019
0.0594098
0.0605268
0.0616514
0.0627816
0.0639156
0.0650513
0.0661867
0.0673195
0.0684473
0.0695675
0.0706773
0.0717737
0.0557884
0.0568996
0.0580265
0.0591675
0.0603212
0.0614857
0.0626596
0.0638408
0.0650275
0.0662177
0.0674092
0.0685997
0.0697866
0.0709672
0.0721388
0.073298
0.05652
0.057673
0.0588434
0.0600299
0.061231
0.0624449
0.06367
0.0649044
0.0661462
0.0673934
0.0686437
0.0698946
0.0711437
0.0723882
0.073625
0.0748508
0.057242
0.0584379
0.0596534
0.0608869
0.0621371
0.0634022
0.0646806
0.0659704
0.0672697
0.0685764
0.0698882
0.0712027
0.0725172
0.0738289
0.0751345
0.0764308
0.0579523
0.0591925
0.0604543
0.0617365
0.0630374
0.0643556
0.0656893
0.0670367
0.0683959
0.0697647
0.0711409
0.0725219
0.0739051
0.0752875
0.0766658
0.0780365
0.0586486
0.0599343
0.061244
0.0625762
0.0639296
0.0653026
0.0666937
0.0681009
0.0695224
0.0709561
0.0723995
0.0738502
0.0753054
0.0767621
0.078217
0.0796663
0.0593288
0.0606611
0.0620198
0.0634036
0.0648111
0.0662409
0.0676913
0.0691606
0.0706468
0.0721479
0.0736615
0.0751851
0.0767158
0.0782505
0.0797859
0.0813182
0.0599902
0.0613704
0.0627794
0.0642162
0.0656795
0.0671677
0.0686795
0.070213
0.0717664
0.0733376
0.0749243
0.0765239
0.0781336
0.0797503
0.0813703
0.0829899
0.0606305
0.0620595
0.0635201
0.0650113
0.0665317
0.0680802
0.0696553
0.0712552
0.0728782
0.0745222
0.0761849
0.0778639
0.0795561
0.0812585
0.0829675
0.084679
0.0612469
0.0627257
0.064239
0.0657858
0.067365
0.0689754
0.0706156
0.072284
0.073979
0.0756985
0.0774402
0.0792017
0.08098
0.0827721
0.0845743
0.0863825
0.0618367
0.0633663
0.0649332
0.0665369
0.0681761
0.06985
0.0715571
0.0732962
0.0750654
0.0768629
0.0786865
0.0805338
0.0824019
0.0842877
0.0861875
0.0880972
0.0623971
0.0639781
0.0655997
0.0672612
0.0689618
0.0707006
0.0724764
0.0742879
0.0761337
0.0780118
0.0799202
0.0818565
0.0838179
0.0858014
0.0878032
0.0898192
0.0629251
0.0645581
0.0662351
0.0679554
0.0697185
0.0715235
0.0733696
0.0752555
0.0771798
0.079141
0.0811369
0.0831654
0.0852238
0.0873089
0.0894172
0.0915445
0.0634176
0.0651031
0.066836
0.068616
0.0704425
0.072315
0.0742327
0.0761947
0.0781997
0.0802462
0.0823323
0.0844561
0.0866148
0.0888055
0.0910248
0.0932684
0.0638715
0.0656098
0.0673991
0.0692392
0.07113
0.073071
0.0750616
0.0771012
0.0791886
0.0813226
0.0835015
0.0857235
0.087986
0.0902862
0.0926208
0.0949856
0.0642835
0.0660747
0.0679206
0.0698213
0.0717769
0.0737872
0.0758518
0.0779702
0.0801417
0.0823652
0.0846393
0.0869622
0.0893317
0.0917452
0.0941995
0.0966905
0.0646502
0.0664942
0.0683967
0.0703582
0.072379
0.0744591
0.0765985
0.0787969
0.0810539
0.0833687
0.08574
0.0881665
0.0906461
0.0931765
0.0957545
0.0983765
0.0649683
0.0668646
0.0688235
0.0708457
0.0729317
0.075082
0.0772968
0.079576
0.0819197
0.0843271
0.0867976
0.08933
0.0919225
0.0945731
0.097279
0.100037
0.0652342
0.0671823
0.0691971
0.0712796
0.0734307
0.0756511
0.0779415
0.0803021
0.0827331
0.0852345
0.0878058
0.090446
0.093154
0.095928
0.0987654
0.101663
0.00372821
0.00436944
0.00504757
0.00574921
0.00646731
0.00719849
0.00794112
0.00869427
0.00945793
0.0102347
0.0110327
0.0118682
0.012767
0.0137612
0.0148843
0.0161626
0.0176078
0.0192114
0.0209433
0.0227549
0.0245858
0.026372
0.0280548
0.029587
0.0309377
0.0320937
0.033058
0.0338474
0.0344886
0.0350138
0.0354573
0.035852
0.0362275
0.0366087
0.0370153
0.0374615
0.0379567
0.0385059
0.039111
0.039771
0.040483
0.0412428
0.0420456
0.0428861
0.043759
0.0446592
0.0455816
0.046522
0.0474761
0.0484403
0.0494112
0.0503859
0.0513617
0.0523363
0.0533076
0.00373946
0.00437352
0.00504484
0.00574016
0.0064524
0.00717817
0.00791583
0.00866446
0.00942407
0.0101972
0.0109917
0.0118236
0.0127176
0.0137055
0.0148196
0.0160861
0.0175165
0.0191029
0.0208166
0.0226104
0.0244258
0.0262005
0.0278771
0.0294093
0.0307668
0.0319361
0.0329196
0.0337334
0.0344029
0.0349593
0.0354358
0.0358643
0.0362738
0.0366885
0.0371277
0.0376055
0.0381311
0.0387098
0.0393433
0.0400311
0.0407704
0.0415572
0.042387
0.0432546
0.0441549
0.0450829
0.0460338
0.0470034
0.0479874
0.0489823
0.0499848
0.0509919
0.0520009
0.0530096
0.0540157
0.00375042
0.00437692
0.00504099
0.0057295
0.0064354
0.00715525
0.00788742
0.00863103
0.00938608
0.0101551
0.0109456
0.0117732
0.0126621
0.013643
0.0147477
0.0160017
0.0174167
0.0189854
0.0206801
0.0224555
0.0242546
0.026017
0.0276866
0.0292182
0.0305818
0.0317636
0.0327658
0.0336034
0.0343008
0.0348881
0.0353973
0.0358595
0.0363028
0.036751
0.0372229
0.0377323
0.0382885
0.0388968
0.0395591
0.0402749
0.0410417
0.0418559
0.042713
0.0436081
0.0445362
0.0454926
0.0464726
0.0474719
0.0484866
0.0495129
0.0505477
0.0515881
0.0526313
0.053675
0.054717
0.00376108
0.00437964
0.00503601
0.00571725
0.00641629
0.00712972
0.00785589
0.00859395
0.00934392
0.0101082
0.0108943
0.0117171
0.0126003
0.0135737
0.0146685
0.0159095
0.0173086
0.018859
0.0205343
0.0222905
0.0240727
0.0258221
0.0274839
0.0290141
0.0303828
0.0315765
0.0325966
0.0334573
0.034182
0.0347996
0.0353412
0.0358367
0.0363136
0.0367951
0.0372996
0.0378406
0.0384275
0.0390655
0.0397567
0.0405007
0.0412954
0.0421372
0.043022
0.043945
0.0449014
0.0458867
0.0468963
0.0479259
0.0489717
0.0500302
0.0510982
0.0521726
0.0532508
0.0543305
0.0554095
0.00377144
0.0043817
0.00502992
0.00570339
0.00639508
0.00710157
0.00782122
0.0085532
0.00929756
0.0100566
0.0108377
0.0116553
0.0125322
0.0134977
0.014582
0.0158096
0.0171923
0.0187239
0.0203792
0.0221158
0.0238804
0.025616
0.0272693
0.0287971
0.0301702
0.0313748
0.032412
0.033295
0.0340462
0.0346935
0.0352667
0.0357952
0.0363053
0.0368198
0.0373566
0.0379293
0.0385468
0.0392145
0.0399347
0.0407072
0.0415299
0.0423996
0.0433123
0.0442636
0.0452487
0.0462633
0.0473029
0.0483634
0.0494411
0.0505324
0.0516342
0.0527435
0.0538577
0.0549744
0.0560913
0.00378151
0.00438309
0.00502273
0.00568796
0.00637179
0.00707081
0.00778341
0.00850878
0.00924698
0.0100003
0.0107758
0.0115875
0.0124578
0.0134148
0.0144882
0.0157019
0.0170678
0.0185803
0.020215
0.0219314
0.0236779
0.025399
0.027043
0.0285676
0.0299441
0.0311587
0.0322119
0.0331163
0.0338931
0.0345693
0.0351735
0.0357342
0.0362771
0.0368241
0.0373931
0.037997
0.038645
0.0393425
0.0400917
0.0408927
0.0417436
0.0426415
0.0435824
0.0445622
0.0455764
0.0466206
0.0476908
0.0487827
0.0498928
0.0510176
0.0521539
0.0532988
0.0544498
0.0556043
0.0567603
0.00379128
0.00438383
0.00501444
0.00567094
0.00634641
0.00703744
0.00774246
0.00846067
0.00919216
0.00993918
0.0107085
0.0115139
0.0123769
0.013325
0.0143871
0.0155866
0.0169353
0.0184282
0.0200421
0.0217378
0.0234655
0.0251715
0.0268054
0.0283259
0.0297048
0.0309283
0.0319965
0.0329211
0.0337225
0.0344265
0.0350609
0.0356531
0.036228
0.0368072
0.0374078
0.0380428
0.0387211
0.0394482
0.0402264
0.0410559
0.0419351
0.0428612
0.0438305
0.0448391
0.0458826
0.046957
0.048058
0.0491819
0.0503249
0.0514837
0.0526552
0.0538365
0.055025
0.0562183
0.0574142
0.00380075
0.00438392
0.00500507
0.00565237
0.00631896
0.00700148
0.00769836
0.00840887
0.00913309
0.00987323
0.0106359
0.0114344
0.0122897
0.0132283
0.0142786
0.0154635
0.0167947
0.0182677
0.0198603
0.021535
0.0232434
0.0249336
0.0265566
0.0280721
0.0294523
0.0306836
0.0317656
0.0327093
0.0335342
0.034265
0.0349285
0.0355513
0.0361576
0.0367681
0.0373999
0.0380655
0.0387739
0.0395303
0.0403374
0.0411954
0.0421029
0.0430573
0.0440552
0.0450927
0.0461659
0.0472706
0.0484028
0.049559
0.0507354
0.0519287
0.053136
0.0543544
0.0555812
0.0568142
0.0580509
0.00380993
0.00438337
0.00499464
0.00563226
0.00628945
0.00696292
0.00765114
0.00835338
0.00906976
0.00980246
0.0105579
0.0113489
0.0121959
0.0131247
0.0141628
0.0153327
0.016646
0.0180988
0.0196699
0.0213231
0.0230117
0.0246855
0.0262968
0.0278063
0.0291869
0.0304247
0.0315193
0.0324808
0.0333279
0.0340843
0.0347759
0.0354283
0.036065
0.0367063
0.0373685
0.0380643
0.0388022
0.0395877
0.0404234
0.0413098
0.0422455
0.0432283
0.0442548
0.0453214
0.0464243
0.0475596
0.0487234
0.0499121
0.0511223
0.0523507
0.0535943
0.0548504
0.0561162
0.0573895
0.0586679
0.00381881
0.0043822
0.00498317
0.00561062
0.00625792
0.0069218
0.00760079
0.0082942
0.00900217
0.00972685
0.0104744
0.0112575
0.0120956
0.0130141
0.0140395
0.0151941
0.0164893
0.0179216
0.0194709
0.0211022
0.0227706
0.0244273
0.026026
0.0275286
0.0289084
0.0301517
0.0312574
0.0322355
0.0331035
0.0338842
0.0346026
0.0352835
0.0359497
0.0366208
0.0373129
0.0380382
0.0388052
0.0396194
0.0404835
0.0413979
0.0423618
0.0433727
0.0444278
0.0455236
0.0466563
0.0478223
0.0490179
0.0502395
0.0514838
0.0527476
0.0540279
0.0553221
0.0566276
0.0579419
0.0592628
0.0038274
0.00438042
0.00497067
0.00558749
0.00622437
0.00687814
0.00754734
0.00823134
0.00893033
0.00964639
0.0103856
0.01116
0.0119888
0.0128964
0.0139088
0.0150478
0.0163246
0.0177361
0.0192632
0.0208723
0.02252
0.024159
0.0257445
0.0272392
0.0286169
0.0298643
0.03098
0.0319732
0.0328606
0.0336644
0.0344084
0.0351166
0.0358112
0.0365112
0.0372323
0.0379864
0.0387819
0.0396243
0.0405163
0.0414586
0.0424503
0.0434893
0.0445729
0.0456977
0.0468603
0.0480571
0.0492845
0.0505391
0.0518177
0.0531172
0.0544347
0.0557675
0.0571131
0.058469
0.0598331
0.0038357
0.00437804
0.00495717
0.00556289
0.00618885
0.00683195
0.00749081
0.00816484
0.00885424
0.00956108
0.0102913
0.0110565
0.0118754
0.0127717
0.0137707
0.0148936
0.0161517
0.0175422
0.0190469
0.0206335
0.02226
0.0238807
0.025452
0.0269378
0.0283125
0.0295628
0.030687
0.0316938
0.0325993
0.0334246
0.0341929
0.0349272
0.035649
0.0363769
0.037126
0.0379082
0.0387315
0.0396016
0.040521
0.0414907
0.0425099
0.0435767
0.0446885
0.0458423
0.0470346
0.0482621
0.0495213
0.050809
0.052122
0.0534574
0.0548123
0.056184
0.0575701
0.0589682
0.0603761
0.0038437
0.00437508
0.0049427
0.00553685
0.00615138
0.00678328
0.00743123
0.00809469
0.00877392
0.00947094
0.0101915
0.010947
0.0117554
0.0126399
0.013625
0.0147315
0.0159706
0.0173399
0.0188219
0.0203856
0.0219904
0.0235922
0.0251487
0.0266246
0.0279951
0.0292469
0.0303782
0.0313972
0.0323193
0.0331647
0.0339558
0.0347149
0.0354627
0.0362173
0.0369936
0.0378028
0.0386533
0.0395502
0.0404965
0.0414931
0.0425394
0.0436336
0.0447734
0.0459558
0.0471776
0.0484356
0.0497266
0.0510473
0.0523948
0.0537661
0.0551585
0.0565694
0.0579963
0.0594369
0.060889
0.00385142
0.00437155
0.00492727
0.0055094
0.006112
0.00673216
0.00736863
0.00802095
0.0086894
0.00937598
0.0100863
0.0108314
0.0116288
0.0125009
0.0134717
0.0145615
0.0157813
0.0171291
0.0185881
0.0201285
0.0217113
0.0232936
0.0248344
0.0262995
0.0276645
0.0289165
0.0300536
0.0310833
0.0320204
0.0328844
0.0336968
0.0344793
0.0352519
0.0360321
0.0368343
0.0376697
0.0385464
0.0394695
0.040442
0.0414648
0.0425376
0.0436588
0.0448261
0.0460367
0.0472878
0.048576
0.0498985
0.0512521
0.0526339
0.0540411
0.055471
0.0569211
0.058389
0.0598724
0.0613691
0.00385886
0.00436747
0.00491093
0.00548059
0.00607076
0.00667863
0.00730306
0.00794364
0.0086007
0.00927623
0.00997568
0.0107098
0.0114956
0.0123548
0.0133109
0.0143835
0.0155837
0.0169096
0.0183454
0.0198623
0.0214225
0.0229846
0.0245089
0.0259622
0.0273207
0.0285717
0.029713
0.0307519
0.0317025
0.0325836
0.0334159
0.0342203
0.0350162
0.0358208
0.0366478
0.0375084
0.0384102
0.0393586
0.0403565
0.0414049
0.0425036
0.0436511
0.0448454
0.0460838
0.0473635
0.0486817
0.0500353
0.0514214
0.0528373
0.0542801
0.0557474
0.0572367
0.0587457
0.060272
0.0618134
0.00386601
0.00436287
0.0048937
0.00545046
0.0060277
0.00662275
0.00723457
0.00786282
0.00850787
0.00917172
0.00985968
0.0105822
0.0113558
0.0122016
0.0131424
0.0141975
0.0153777
0.0166815
0.0180937
0.0195866
0.0211238
0.0226652
0.0241723
0.0256128
0.0269636
0.0282121
0.0293563
0.0304029
0.0313654
0.032262
0.0331126
0.0339375
0.0347555
0.035583
0.0364337
0.0373182
0.0382442
0.039217
0.0402394
0.0413125
0.0424363
0.0436094
0.04483
0.0460955
0.0474034
0.0487509
0.0501351
0.0515533
0.0530029
0.0544811
0.0559855
0.0575137
0.0590635
0.0606326
0.0622189
0.00387288
0.00435776
0.00487563
0.00541906
0.00598287
0.00656457
0.0071632
0.00777852
0.00841096
0.00906249
0.00973831
0.0104486
0.0112094
0.0120412
0.0129663
0.0140035
0.0151633
0.0164447
0.017833
0.0193015
0.0208152
0.0223352
0.0238242
0.025251
0.0265929
0.0278378
0.0289834
0.0300361
0.0310091
0.0319195
0.0327869
0.0336308
0.0344693
0.0353184
0.0361914
0.0370987
0.0380479
0.0390439
0.0400898
0.0411867
0.0423347
0.0435326
0.0447787
0.0460706
0.047406
0.0487821
0.0501963
0.051646
0.0531286
0.0546416
0.0561827
0.0577495
0.0593399
0.0609516
0.0625826
0.00387948
0.00435216
0.00485674
0.00538643
0.00593633
0.00650415
0.00708903
0.00769082
0.00831001
0.00894859
0.00961163
0.0103091
0.0110564
0.0118737
0.0127825
0.0138013
0.0149404
0.016199
0.017563
0.0190068
0.0204965
0.0219944
0.0234646
0.0248766
0.0262086
0.0274485
0.0285941
0.0296515
0.0306332
0.0315561
0.0324387
0.0332999
0.0341574
0.0350268
0.0359208
0.0368496
0.0378206
0.0388388
0.0399071
0.0410268
0.042198
0.0434198
0.0446904
0.0460078
0.0473697
0.0487736
0.0502171
0.0516975
0.0532124
0.0547596
0.0563368
0.0579416
0.059572
0.0612259
0.0629013
0.00388581
0.0043461
0.00483708
0.00535262
0.00588816
0.00644156
0.00701213
0.00759979
0.00820511
0.00883007
0.00947969
0.0101636
0.0108969
0.0116991
0.0125911
0.013591
0.014709
0.0159443
0.0172837
0.0187023
0.0201675
0.0216428
0.0230933
0.0244896
0.0258104
0.0270441
0.0281883
0.0292488
0.0302378
0.0311714
0.0320676
0.0329447
0.0338197
0.0347078
0.0356214
0.0365704
0.037562
0.038601
0.0396906
0.040832
0.0420253
0.0432697
0.0445639
0.0459058
0.0472933
0.048724
0.0501957
0.0517059
0.0532524
0.0548328
0.0564452
0.0580873
0.059757
0.0614525
0.0631717
0.0418158
0.0430818
0.0443983
0.0457635
0.0471754
0.0486318
0.0501306
0.0516694
0.0532463
0.054859
0.0565056
0.058184
0.0598922
0.0616284
0.0633906
0.00199149
0.00204397
0.00209535
0.00214645
0.00219893
0.00225493
0.00231688
0.00238728
0.00246855
0.00256292
0.00267245
0.00279928
0.00294585
0.00311534
0.00331175
0.00353988
0.0038049
0.0041117
0.00446408
0.00486397
0.00531094
0.00580199
0.00633175
0.00689295
0.00747711
0.00807528
0.00867875
0.0092796
0.00987111
0.0104479
0.0110061
0.0115433
0.012058
0.0125499
0.0130195
0.0134679
0.0138963
0.0143064
0.0146998
0.0150781
0.0154427
0.0157952
0.0161367
0.0164684
0.016791
0.0171055
0.0174125
0.0177125
0.018006
0.0182933
0.0185747
0.0188505
0.0191209
0.019386
0.0196459
0.00204453
0.00213052
0.00221526
0.00229946
0.0023846
0.0024725
0.00256518
0.00266466
0.00277287
0.00289174
0.00302346
0.00317076
0.00333721
0.00352728
0.00374613
0.00399909
0.00429094
0.00462523
0.00500369
0.00542587
0.00588911
0.00638876
0.0069186
0.00747139
0.0080394
0.008615
0.00919109
0.00976141
0.0103208
0.0108653
0.0113919
0.0118991
0.0123859
0.0128523
0.0132988
0.0137265
0.0141365
0.0145302
0.0149091
0.0152744
0.0156277
0.0159699
0.0163021
0.0166254
0.0169404
0.0172478
0.0175482
0.017842
0.0181296
0.0184113
0.0186874
0.018958
0.0192234
0.0194836
0.0197388
0.00209717
0.00221597
0.00233338
0.00245
0.00256709
0.00268623
0.00280911
0.00293738
0.00307264
0.00321665
0.00337176
0.00354137
0.00373021
0.00394419
0.00418977
0.00447304
0.00479869
0.00516909
0.00558385
0.0060398
0.00653137
0.0070514
0.00759186
0.00814469
0.00870241
0.00925845
0.00980742
0.0103451
0.0108684
0.0113753
0.0118644
0.0123353
0.012788
0.0132231
0.0136412
0.0140434
0.0144308
0.0148047
0.0151661
0.0155161
0.0158559
0.0161862
0.0165079
0.0168217
0.0171282
0.0174279
0.0177212
0.0180084
0.0182899
0.0185658
0.0188364
0.0191017
0.019362
0.0196174
0.0198678
0.00214933
0.00230022
0.00244958
0.0025979
0.00274622
0.00289592
0.00304844
0.00320515
0.00336739
0.00353681
0.00371598
0.00390901
0.00412179
0.00436168
0.00463658
0.00495352
0.00531729
0.00572927
0.00618706
0.00668466
0.00721337
0.00776296
0.00832304
0.00888412
0.00943833
0.00997981
0.0105047
0.0110108
0.0114974
0.0119645
0.012413
0.0128439
0.0132585
0.013658
0.0140438
0.0144168
0.0147784
0.0151294
0.0154708
0.0158033
0.0161277
0.0164447
0.0167546
0.0170579
0.0173551
0.0176464
0.0179321
0.0182123
0.0184873
0.0187572
0.0190221
0.0192821
0.0195372
0.0197876
0.0200333
0.00220096
0.00238318
0.00256376
0.00274302
0.00292185
0.00310144
0.00328303
0.00346776
0.00365677
0.00385166
0.00405524
0.00427231
0.00450992
0.00477693
0.00508269
0.00543531
0.00583979
0.00629674
0.00680187
0.00734642
0.00791844
0.00850451
0.00909148
0.00966799
0.0102254
0.0107581
0.0112634
0.0117411
0.0121926
0.0126204
0.0130275
0.0134168
0.013791
0.0141525
0.0145032
0.0148444
0.0151776
0.0155034
0.0158227
0.0161359
0.0164434
0.0167455
0.0170425
0.0173344
0.0176215
0.0179038
0.0181813
0.0184542
0.0187224
0.018986
0.019245
0.0194994
0.0197493
0.0199947
0.0202356
0.00225203
0.00246478
0.0026758
0.00288525
0.00309386
0.00330266
0.00351273
0.00372502
0.00394051
0.00416077
0.00438888
0.00463031
0.00489326
0.00518806
0.00552557
0.00591499
0.00636171
0.00686566
0.00742081
0.00801576
0.00863537
0.00926293
0.00988241
0.0104803
0.0110469
0.0115764
0.0120671
0.0125204
0.0129399
0.0133304
0.013697
0.0140448
0.0143781
0.0147004
0.0150145
0.0153223
0.0156253
0.0159243
0.0162199
0.0165123
0.0168016
0.0170878
0.0173708
0.0176506
0.0179269
0.0181996
0.0184685
0.0187337
0.0189948
0.0192519
0.0195049
0.0197537
0.0199983
0.0202386
0.0204747
0.00230249
0.00254495
0.00278561
0.00302448
0.00326212
0.00349945
0.00373739
0.00397673
0.00421834
0.00446378
0.00471638
0.00498229
0.00527083
0.00559377
0.00596348
0.00639032
0.0068801
0.00743221
0.00803899
0.00868652
0.00935657
0.0100292
0.0106853
0.0113093
0.01189
0.0124214
0.0129023
0.0133355
0.0137266
0.0140826
0.0144108
0.0147184
0.0150112
0.0152943
0.0155714
0.0158451
0.016117
0.0163881
0.016659
0.0169296
0.0171998
0.0174694
0.0177378
0.0180047
0.0182697
0.0185324
0.0187925
0.0190496
0.0193036
0.019554
0.0198009
0.020044
0.0202833
0.0205185
0.0207498
0.0023523
0.00262361
0.0028931
0.00316061
0.00342654
0.0036917
0.00395688
0.00422276
0.00449007
0.0047604
0.00503734
0.0053277
0.0056419
0.00599313
0.00639524
0.00685976
0.00739299
0.00799383
0.00865313
0.00935455
0.0100768
0.0107969
0.0114927
0.0121463
0.0127451
0.0132825
0.0137579
0.0141751
0.0145416
0.0148662
0.0151586
0.0154277
0.0156815
0.0159263
0.0161667
0.0164062
0.0166469
0.0168898
0.0171355
0.0173839
0.0176346
0.0178869
0.0181404
0.0183941
0.0186476
0.0189001
0.0191511
0.0194002
0.0196468
0.0198907
0.0201314
0.0203689
0.0206029
0.0208332
0.0210598
0.00240142
0.00270071
0.00299821
0.00329354
0.00358702
0.00387929
0.00417108
0.00446293
0.0047555
0.00505037
0.00535143
0.00566611
0.00600591
0.00638543
0.00681995
0.00732221
0.00789898
0.00854876
0.00926097
0.010017
0.0107926
0.0115616
0.0122991
0.0129849
0.0136048
0.0141517
0.014625
0.0150299
0.015375
0.0156715
0.0159307
0.0161639
0.0163804
0.0165881
0.0167929
0.0169989
0.0172087
0.0174236
0.0176442
0.0178703
0.0181014
0.0183365
0.0185749
0.0188154
0.0190573
0.0192997
0.0195417
0.0197828
0.0200222
0.0202596
0.0204944
0.0207265
0.0209554
0.0211809
0.021403
0.00244982
0.00277619
0.00310084
0.00342321
0.00374345
0.00406214
0.00437988
0.00469712
0.00501446
0.00533349
0.00565836
0.00599716
0.00636242
0.0067701
0.00723695
0.00777683
0.00839704
0.00909572
0.00986089
0.0106717
0.0115012
0.01232
0.0131007
0.0138204
0.0144636
0.0150225
0.0154967
0.0158922
0.0162191
0.0164903
0.0167192
0.0169186
0.0170999
0.0172724
0.0174429
0.0176164
0.0177961
0.0179837
0.0181797
0.0183839
0.0185956
0.0188138
0.0190373
0.019265
0.0194955
0.019728
0.0199613
0.0201946
0.0204271
0.0206583
0.0208875
0.0211144
0.0213385
0.0215596
0.0217775
0.00249747
0.00285
0.00320095
0.00354953
0.00389577
0.00424013
0.00458316
0.00492521
0.00526679
0.00560955
0.0059579
0.00632054
0.00671104
0.0071467
0.00764567
0.00822296
0.0088864
0.00963373
0.0104517
0.0113173
0.0122007
0.0130699
0.0138943
0.0146492
0.0153173
0.0158902
0.0163676
0.0167561
0.0170674
0.0173159
0.0175169
0.0176851
0.0178333
0.0179722
0.0181101
0.0182525
0.0184033
0.0185645
0.0187366
0.0189197
0.0191127
0.0193145
0.0195237
0.0197389
0.0199586
0.0201816
0.0204066
0.0206326
0.0208587
0.0210841
0.0213082
0.0215303
0.0217501
0.0219672
0.0221813
0.00254434
0.0029221
0.00329846
0.00367243
0.00404388
0.0044132
0.00478083
0.00514706
0.00551235
0.00587837
0.00624981
0.00663598
0.00705145
0.00751483
0.00804567
0.00866008
0.0093664
0.010162
0.0110324
0.0119525
0.0128898
0.0138093
0.014678
0.0154687
0.0161627
0.016751
0.0172332
0.0176169
0.0179148
0.0181429
0.0183183
0.0184573
0.0185745
0.0186819
0.0187888
0.0189017
0.0190249
0.0191609
0.0193103
0.0194731
0.0196483
0.0198345
0.0200302
0.0202336
0.0204432
0.0206574
0.0208748
0.0210941
0.0213144
0.0215346
0.021754
0.021972
0.022188
0.0224016
0.0226125
0.00259039
0.00299243
0.00339333
0.00379185
0.00418772
0.00458124
0.00497279
0.00536258
0.00575101
0.0061398
0.00653391
0.00694323
0.00738335
0.00787416
0.00843655
0.00908772
0.00983651
0.01068
0.0116024
0.0125764
0.0135672
0.0145369
0.0154498
0.0162767
0.0169974
0.017602
0.0180904
0.0184708
0.0187571
0.0189668
0.0191186
0.0192305
0.0193187
0.0193965
0.0194741
0.0195591
0.0196563
0.0197684
0.0198963
0.02004
0.0201985
0.0203701
0.0205532
0.0207458
0.020946
0.0211522
0.0213628
0.0215762
0.0217914
0.0220072
0.0222227
0.0224372
0.02265
0.0228608
0.023069
0.0026356
0.00306096
0.00348551
0.00390773
0.00432722
0.0047442
0.00515896
0.00557167
0.00598265
0.0063937
0.00681001
0.00724211
0.00770651
0.00822439
0.00881796
0.00950548
0.0102963
0.0111871
0.0121608
0.0131883
0.0142321
0.0152515
0.0162085
0.0170716
0.0178192
0.0184409
0.0189365
0.0193148
0.019591
0.0197839
0.019914
0.0200007
0.0200618
0.0201117
0.0201619
0.0202206
0.0202933
0.020383
0.0204909
0.0206168
0.0207597
0.0209179
0.0210894
0.0212722
0.0214642
0.0216634
0.021868
0.0220765
0.0222874
0.0224996
0.022712
0.0229237
0.0231342
0.0233428
0.023549
0.00267995
0.00312767
0.00357495
0.00402003
0.00446233
0.004902
0.00533927
0.00577423
0.00620717
0.00663993
0.00707797
0.0075324
0.0080207
0.00856527
0.0091896
0.00991303
0.0107453
0.0116828
0.0127073
0.0137875
0.0148836
0.0159523
0.0169529
0.017852
0.0186267
0.0192658
0.0197693
0.0201465
0.0204138
0.0205914
0.0207013
0.0207646
0.0208002
0.0208241
0.0208486
0.0208827
0.0209325
0.0210014
0.0210906
0.0212001
0.0213288
0.0214748
0.0216361
0.0218102
0.021995
0.0221882
0.022388
0.0225925
0.0228001
0.0230096
0.0232198
0.0234298
0.0236387
0.023846
0.024051
0.00272342
0.00319251
0.00366162
0.00412869
0.00459299
0.00505458
0.00551364
0.00597018
0.00642446
0.00687838
0.00733764
0.00781395
0.00832571
0.00889655
0.00955122
0.01031
0.0111832
0.0121668
0.0132412
0.0143735
0.0155211
0.0166383
0.017682
0.0186168
0.0194185
0.0200752
0.0205869
0.0209638
0.0212232
0.0213868
0.0214779
0.0215192
0.0215311
0.0215306
0.021531
0.0215423
0.0215709
0.0216204
0.0216925
0.0217872
0.021903
0.0220383
0.0221905
0.0223573
0.0225361
0.0227246
0.0229206
0.0231222
0.0233277
0.0235356
0.0237445
0.0239536
0.0241619
0.0243687
0.0245734
0.00276598
0.00325547
0.0037455
0.00423369
0.00471917
0.0052019
0.00568201
0.00615945
0.00663444
0.00710893
0.0075889
0.00808661
0.00862138
0.00921803
0.00990255
0.0106962
0.0116097
0.0126386
0.0137623
0.0149457
0.016144
0.017309
0.018395
0.019365
0.0201933
0.0208676
0.0213879
0.021765
0.0220173
0.0221679
0.0222415
0.0222623
0.022252
0.0222287
0.0222068
0.0221968
0.0222057
0.0222376
0.0222942
0.0223754
0.02248
0.0226059
0.0227505
0.0229113
0.0230854
0.0232704
0.023464
0.0236639
0.0238683
0.0240756
0.0242844
0.0244936
0.0247023
0.0249096
0.0251149
0.00280761
0.00331652
0.00382655
0.00433499
0.00484083
0.00534392
0.00584433
0.00634198
0.00683704
0.00733151
0.00783164
0.00835024
0.00890755
0.00952953
0.0102434
0.0110714
0.0120244
0.0130979
0.01427
0.0155037
0.0167518
0.0179635
0.0190912
0.0200956
0.0209502
0.0216418
0.0221708
0.0225485
0.0227944
0.0229329
0.0229902
0.0229918
0.0229606
0.0229161
0.0228735
0.0228439
0.0228348
0.0228507
0.0228934
0.0229628
0.0230576
0.0231756
0.0233141
0.0234702
0.0236411
0.023824
0.0240163
0.0242157
0.0244203
0.0246282
0.024838
0.0250485
0.0252585
0.0254674
0.0256742
0.00284831
0.00337565
0.00390475
0.00443258
0.00495793
0.00548059
0.00600057
0.00651771
0.00703218
0.00754603
0.00806576
0.00860472
0.00918407
0.00983088
0.0105735
0.0114352
0.0124272
0.0135445
0.014764
0.0160469
0.0173438
0.0186014
0.0197697
0.0208079
0.0216881
0.0223968
0.0229344
0.023313
0.023553
0.0236803
0.0237222
0.0237058
0.0236553
0.023591
0.0235292
0.0234816
0.0234563
0.0234578
0.0234882
0.0235474
0.023634
0.0237457
0.0238795
0.0240326
0.0242016
0.0243837
0.0245761
0.0247764
0.0249823
0.0251921
0.0254041
0.0256169
0.0258295
0.0260409
0.0262504
0.00288807
0.00343284
0.0039801
0.00452643
0.00507046
0.0056119
0.00615068
0.00668661
0.00721983
0.00775243
0.00829118
0.00884997
0.00945083
0.0101219
0.0108928
0.0117875
0.0128177
0.0139779
0.0152439
0.016575
0.0179195
0.0192219
0.0204299
0.021501
0.0224062
0.0231316
0.0236777
0.0240572
0.0242918
0.0244085
0.0244361
0.0244029
0.0243342
0.0242517
0.0241722
0.0241083
0.0240683
0.0240571
0.0240769
0.0241275
0.0242076
0.0243146
0.0244454
0.0245968
0.0247654
0.0249482
0.0251421
0.0253446
0.0255533
0.0257662
0.0259815
0.0261979
0.0264142
0.0266292
0.0268423
0.00292686
0.00348809
0.00405257
0.00461653
0.0051784
0.00573782
0.00629465
0.00684865
0.00739993
0.00795066
0.00850783
0.00908589
0.00970771
0.0104026
0.0112011
0.0121281
0.0131957
0.014398
0.0157094
0.0170876
0.0184786
0.0198245
0.021071
0.0221741
0.0231035
0.023845
0.0243994
0.02478
0.0250096
0.0251163
0.0251304
0.0250815
0.0249961
0.0248967
0.0248012
0.0247225
0.0246695
0.0246473
0.0246581
0.0247019
0.0247771
0.024881
0.0250103
0.0251617
0.0253315
0.0255164
0.0257132
0.0259193
0.0261321
0.0263494
0.0265694
0.0267906
0.0270116
0.0272315
0.0274494
0.00296469
0.00354139
0.00412218
0.00470288
0.00528176
0.00585835
0.00643246
0.00700381
0.00757246
0.00814067
0.00871566
0.00931242
0.00995465
0.0106727
0.0114982
0.0124569
0.013561
0.0148043
0.0161601
0.0175842
0.0190204
0.0204086
0.0216925
0.0228264
0.0237792
0.0245363
0.0250986
0.0254803
0.0257051
0.0258025
0.025804
0.0257404
0.0256395
0.0255248
0.0254147
0.0253229
0.0252586
0.0252271
0.0252308
0.0252694
0.0253414
0.0254439
0.0255734
0.0257262
0.0258987
0.0260873
0.0262886
0.0264996
0.0267178
0.0269409
0.0271668
0.027394
0.0276211
0.027847
0.0280707
0.00300154
0.00359275
0.00418892
0.00478549
0.00538053
0.00597348
0.00656411
0.00715207
0.00773741
0.00832244
0.00891464
0.0095295
0.0101915
0.0109321
0.011784
0.0127736
0.0139134
0.0151967
0.0165957
0.0180644
0.0195444
0.0209736
0.0222936
0.0234572
0.0244325
0.0252045
0.0257744
0.0261571
0.0263774
0.0264659
0.0264557
0.0263786
0.0262635
0.0261348
0.0260117
0.0259085
0.0258346
0.0257956
0.0257938
0.0258291
0.0258996
0.0260023
0.0261336
0.0262897
0.0264664
0.0266601
0.0268673
0.0270848
0.0273098
0.02754
0.0277731
0.0280076
0.028242
0.028475
0.0287057
0.00303742
0.00364216
0.0042528
0.00486436
0.00547473
0.00608324
0.00668961
0.00729344
0.00789477
0.00849596
0.00910473
0.0097371
0.0104184
0.0111809
0.0120584
0.0130781
0.0142526
0.0155749
0.0170158
0.0185277
0.0200502
0.0215188
0.0228736
0.0240657
0.0250625
0.0258486
0.0264257
0.0268094
0.0270254
0.0271057
0.0270845
0.026995
0.026867
0.0267258
0.0265914
0.0264784
0.0263967
0.0263519
0.0263464
0.0263801
0.0264508
0.0265556
0.0266904
0.0268512
0.0270338
0.0272343
0.0274489
0.0276742
0.0279075
0.0281461
0.0283878
0.0286308
0.0288737
0.029115
0.0293539
0.00307231
0.00368964
0.00431384
0.00493952
0.00556437
0.00618764
0.00680897
0.00742793
0.00804454
0.00866122
0.00928594
0.00993519
0.0106351
0.0114189
0.0123213
0.0133702
0.0145785
0.0159385
0.0174201
0.0189737
0.0205371
0.0220437
0.0234318
0.0246512
0.0256683
0.0264679
0.0270517
0.0274362
0.0276482
0.0277209
0.0276897
0.0275888
0.0274493
0.0272971
0.027153
0.0270319
0.0269441
0.0268954
0.0268881
0.0269219
0.0269947
0.0271032
0.0272432
0.0274105
0.0276005
0.0278092
0.0280327
0.0282674
0.0285103
0.0287587
0.0290102
0.0292631
0.0295157
0.0297666
0.0300148
0.00310624
0.00373519
0.00437205
0.00501098
0.00564948
0.0062867
0.00692222
0.00755557
0.00818676
0.00881826
0.00945827
0.0101238
0.0108416
0.011646
0.0125726
0.0136498
0.0148908
0.0162873
0.0178081
0.0194019
0.0210046
0.0225476
0.0239674
0.0252127
0.0262492
0.0270614
0.0276515
0.0280368
0.0282451
0.0283107
0.0282703
0.0281593
0.0280096
0.0278481
0.0276959
0.0275686
0.0274765
0.0274257
0.0274183
0.0274542
0.0275308
0.0276448
0.0277917
0.027967
0.0281661
0.0283846
0.0286184
0.0288639
0.0291178
0.0293773
0.0296401
0.0299041
0.0301676
0.0304292
0.0306879
0.00313918
0.00377884
0.00442746
0.00507878
0.0057301
0.00638047
0.00702941
0.0076764
0.00832144
0.00896708
0.00962173
0.0103029
0.011038
0.0118623
0.0128122
0.0139168
0.0151894
0.0166211
0.0181795
0.0198119
0.0214521
0.0230298
0.0244798
0.0257496
0.0268043
0.0276282
0.0282242
0.0286102
0.0288151
0.0288744
0.0288259
0.028706
0.0285476
0.0283782
0.0282197
0.028088
0.0279936
0.0279425
0.027937
0.0279766
0.0280589
0.0281801
0.0283356
0.0285206
0.0287303
0.0289602
0.0292058
0.0294635
0.0297298
0.0300018
0.030277
0.0305533
0.030829
0.0311025
0.0313729
0.00317115
0.00382059
0.0044801
0.00514295
0.00580627
0.00646898
0.00713057
0.00779047
0.00844865