/*--------------------------------*- C++ -*----------------------------------*\
| =========                 |                                                 |
| \\      /  F ield         | OpenFOAM: The Open Source CFD Toolbox           |
|  \\    /   O peration     | Version:  2412                                  |
|   \\  /    A nd           | Website:  www.openfoam.com                      |
|    \\/     M anipulation  |                                                 |
\*---------------------------------------------------------------------------*/
FoamFile
{
    version     2.0;
    format      ascii;
    arch        "LSB;label=32;scalar=64";
    class       volVectorField;
    location    "30";
    object      UA;
}
// * * * * * * * * * * * * * * * * * * * * * * * * * * * * * * * * * * * * * //

dimensions      [0 1 -1 0 0 0 0];

internalField   nonuniform List<vector> 
5285
(
(0.1 0.00140928 0)
(0.100026 0.00143435 0)
(0.100053 0.00145938 0)
(0.100081 0.0014843 0)
(0.100112 0.00150906 0)
(0.100143 0.00153359 0)
(0.100176 0.00155783 0)
(0.100211 0.00158169 0)
(0.100248 0.0016051 0)
(0.100286 0.00162798 0)
(0.100326 0.00165023 0)
(0.100367 0.00167175 0)
(0.100411 0.00169244 0)
(0.100456 0.0017122 0)
(0.100503 0.0017309 0)
(0.100552 0.00174843 0)
(0.0999742 0.00143435 0)
(0.1 0.00146082 0)
(0.100027 0.00148728 0)
(0.100056 0.00151369 0)
(0.100086 0.00153999 0)
(0.100118 0.0015661 0)
(0.100151 0.00159197 0)
(0.100187 0.00161751 0)
(0.100224 0.00164264 0)
(0.100262 0.00166728 0)
(0.100303 0.00169133 0)
(0.100345 0.00171468 0)
(0.100389 0.00173724 0)
(0.100436 0.00175888 0)
(0.100484 0.00177949 0)
(0.100534 0.00179894 0)
(0.0999471 0.00145938 0)
(0.0999728 0.00148728 0)
(0.1 0.00151524 0)
(0.100029 0.0015432 0)
(0.100059 0.0015711 0)
(0.100091 0.00159887 0)
(0.100125 0.00162644 0)
(0.10016 0.00165374 0)
(0.100198 0.00168068 0)
(0.100237 0.00170717 0)
(0.100278 0.00173312 0)
(0.100321 0.00175842 0)
(0.100366 0.00178295 0)
(0.100414 0.0018066 0)
(0.100463 0.00182924 0)
(0.100514 0.00185074 0)
(0.0999185 0.0014843 0)
(0.0999441 0.00151369 0)
(0.0999712 0.0015432 0)
(0.1 0.00157276 0)
(0.10003 0.00160233 0)
(0.100063 0.00163182 0)
(0.100097 0.00166118 0)
(0.100132 0.00169033 0)
(0.10017 0.00171917 0)
(0.10021 0.00174761 0)
(0.100251 0.00177556 0)
(0.100295 0.00180291 0)
(0.100341 0.00182954 0)
(0.100389 0.00185532 0)
(0.10044 0.00188013 0)
(0.100492 0.00190383 0)
(0.0998884 0.00150906 0)
(0.0999139 0.00153999 0)
(0.0999409 0.0015711 0)
(0.0999696 0.00160233 0)
(0.1 0.00163362 0)
(0.100032 0.00166492 0)
(0.100066 0.00169614 0)
(0.100102 0.00172721 0)
(0.10014 0.00175804 0)
(0.10018 0.00178854 0)
(0.100223 0.0018186 0)
(0.100267 0.00184812 0)
(0.100314 0.00187697 0)
(0.100363 0.00190502 0)
(0.100414 0.00193214 0)
(0.100468 0.00195818 0)
(0.0998568 0.00153359 0)
(0.099882 0.0015661 0)
(0.0999089 0.00159887 0)
(0.0999374 0.00163182 0)
(0.0999678 0.00166492 0)
(0.1 0.00169808 0)
(0.100034 0.00173125 0)
(0.10007 0.00176434 0)
(0.100109 0.00179725 0)
(0.100149 0.00182991 0)
(0.100192 0.00186219 0)
(0.100237 0.00189399 0)
(0.100284 0.00192519 0)
(0.100334 0.00195565 0)
(0.100386 0.00198522 0)
(0.100441 0.00201376 0)
(0.0998237 0.00155783 0)
(0.0998486 0.00159197 0)
(0.0998751 0.00162644 0)
(0.0999035 0.00166118 0)
(0.0999337 0.00169614 0)
(0.0999658 0.00173125 0)
(0.1 0.00176644 0)
(0.100036 0.00180163 0)
(0.100075 0.00183673 0)
(0.100115 0.00187164 0)
(0.100159 0.00190626 0)
(0.100204 0.00194047 0)
(0.100252 0.00197415 0)
(0.100303 0.00200715 0)
(0.100356 0.00203934 0)
(0.100412 0.00207054 0)
(0.0997889 0.00158169 0)
(0.0998134 0.00161751 0)
(0.0998396 0.00165374 0)
(0.0998677 0.00169033 0)
(0.0998977 0.00172721 0)
(0.0999297 0.00176434 0)
(0.0999637 0.00180163 0)
(0.1 0.00183901 0)
(0.100039 0.00187638 0)
(0.100079 0.00191366 0)
(0.100123 0.00195074 0)
(0.100169 0.00198748 0)
(0.100217 0.00202378 0)
(0.100269 0.00205948 0)
(0.100323 0.00209443 0)
(0.10038 0.00212847 0)
(0.0997525 0.0016051 0)
(0.0997765 0.00164264 0)
(0.0998023 0.00168068 0)
(0.09983 0.00171917 0)
(0.0998596 0.00175804 0)
(0.0998914 0.00179725 0)
(0.0999253 0.00183673 0)
(0.0999615 0.00187638 0)
(0.1 0.00191614 0)
(0.100041 0.00195589 0)
(0.100085 0.00199553 0)
(0.100131 0.00203495 0)
(0.10018 0.002074 0)
(0.100232 0.00211255 0)
(0.100287 0.00215044 0)
(0.100345 0.0021875 0)
(0.0997143 0.00162798 0)
(0.0997378 0.00166728 0)
(0.0997631 0.00170717 0)
(0.0997903 0.00174761 0)
(0.0998195 0.00178854 0)
(0.0998509 0.00182991 0)
(0.0998845 0.00187164 0)
(0.0999205 0.00191366 0)
(0.099959 0.00195589 0)
(0.1 0.00199823 0)
(0.100044 0.00204056 0)
(0.10009 0.00208277 0)
(0.10014 0.00212473 0)
(0.100192 0.00216629 0)
(0.100248 0.00220728 0)
(0.100307 0.00224753 0)
(0.0996745 0.00165023 0)
(0.0996973 0.00169133 0)
(0.0997219 0.00173312 0)
(0.0997486 0.00177556 0)
(0.0997773 0.0018186 0)
(0.0998082 0.00186219 0)
(0.0998415 0.00190626 0)
(0.0998771 0.00195074 0)
(0.0999154 0.00199553 0)
(0.0999563 0.00204056 0)
(0.1 0.0020857 0)
(0.100047 0.00213085 0)
(0.100096 0.00217585 0)
(0.100149 0.00222058 0)
(0.100205 0.00226485 0)
(0.100265 0.0023085 0)
(0.0996328 0.00167175 0)
(0.0996549 0.00171468 0)
(0.0996788 0.00175842 0)
(0.0997048 0.00180291 0)
(0.0997329 0.00184812 0)
(0.0997632 0.00189399 0)
(0.0997959 0.00194047 0)
(0.0998312 0.00198748 0)
(0.0998691 0.00203495 0)
(0.0999098 0.00208277 0)
(0.0999533 0.00213085 0)
(0.1 0.00217905 0)
(0.10005 0.00222726 0)
(0.100103 0.00227532 0)
(0.10016 0.00232305 0)
(0.10022 0.00237029 0)
(0.0995894 0.00169244 0)
(0.0996106 0.00173724 0)
(0.0996337 0.00178295 0)
(0.0996588 0.00182954 0)
(0.0996862 0.00187697 0)
(0.0997158 0.00192519 0)
(0.0997479 0.00197415 0)
(0.0997826 0.00202378 0)
(0.09982 0.002074 0)
(0.0998603 0.00212473 0)
(0.0999036 0.00217585 0)
(0.0999501 0.00222726 0)
(0.1 0.00227882 0)
(0.100053 0.00233037 0)
(0.10011 0.00238175 0)
(0.100171 0.00243278 0)
(0.0995442 0.0017122 0)
(0.0995643 0.00175888 0)
(0.0995865 0.0018066 0)
(0.0996107 0.00185532 0)
(0.0996372 0.00190502 0)
(0.099666 0.00195565 0)
(0.0996973 0.00200715 0)
(0.0997313 0.00205948 0)
(0.0997681 0.00211255 0)
(0.0998078 0.00216629 0)
(0.0998507 0.00222058 0)
(0.0998969 0.00227532 0)
(0.0999466 0.00233037 0)
(0.1 0.00238559 0)
(0.100057 0.00244081 0)
(0.100118 0.00249583 0)
(0.0994971 0.0017309 0)
(0.0995162 0.00177949 0)
(0.0995372 0.00182924 0)
(0.0995604 0.00188013 0)
(0.0995858 0.00193214 0)
(0.0996137 0.00198522 0)
(0.099644 0.00203934 0)
(0.0996772 0.00209443 0)
(0.0997132 0.00215044 0)
(0.0997522 0.00220728 0)
(0.0997945 0.00226485 0)
(0.0998403 0.00232305 0)
(0.0998896 0.00238175 0)
(0.0999428 0.00244081 0)
(0.1 0.00250004 0)
(0.100061 0.00255928 0)
(0.0994481 0.00174843 0)
(0.099466 0.00179894 0)
(0.0994858 0.00185074 0)
(0.0995078 0.00190383 0)
(0.0995321 0.00195818 0)
(0.0995588 0.00201376 0)
(0.0995881 0.00207054 0)
(0.0996201 0.00212847 0)
(0.0996552 0.0021875 0)
(0.0996934 0.00224753 0)
(0.0997349 0.0023085 0)
(0.09978 0.00237029 0)
(0.0998288 0.00243278 0)
(0.0998816 0.00249583 0)
(0.0999386 0.00255928 0)
(0.1 0.00262294 0)
(0.0993974 0.00176466 0)
(0.0994138 0.00181709 0)
(0.0994323 0.00187096 0)
(0.0994529 0.00192626 0)
(0.0994759 0.00198298 0)
(0.0995013 0.0020411 0)
(0.0995293 0.0021006 0)
(0.0995602 0.00216142 0)
(0.099594 0.00222353 0)
(0.0996311 0.00228686 0)
(0.0996717 0.00235132 0)
(0.0997159 0.00241682 0)
(0.099764 0.00248324 0)
(0.0998162 0.00255046 0)
(0.0998728 0.0026183 0)
(0.0999339 0.0026866 0)
(0.0993447 0.00177945 0)
(0.0993597 0.0018338 0)
(0.0993767 0.00188974 0)
(0.0993958 0.00194727 0)
(0.0994172 0.00200638 0)
(0.0994411 0.00206707 0)
(0.0994677 0.00212931 0)
(0.0994972 0.00219309 0)
(0.0995297 0.00225835 0)
(0.0995655 0.00232504 0)
(0.0996048 0.00239309 0)
(0.0996479 0.00246242 0)
(0.099695 0.00253292 0)
(0.0997464 0.00260445 0)
(0.0998023 0.00267687 0)
(0.099863 0.00275001 0)
(0.0992902 0.00179267 0)
(0.0993036 0.00184893 0)
(0.0993189 0.00190694 0)
(0.0993363 0.00196669 0)
(0.0993561 0.0020282 0)
(0.0993783 0.00209148 0)
(0.0994032 0.0021565 0)
(0.0994311 0.00222326 0)
(0.099462 0.00229173 0)
(0.0994963 0.00236186 0)
(0.0995342 0.00243359 0)
(0.099576 0.00250685 0)
(0.0996219 0.00258154 0)
(0.0996721 0.00265755 0)
(0.0997271 0.00273473 0)
(0.099787 0.00281291 0)
(0.0992339 0.00180417 0)
(0.0992454 0.00186233 0)
(0.0992589 0.00192238 0)
(0.0992745 0.00198435 0)
(0.0992924 0.00204826 0)
(0.0993128 0.00211413 0)
(0.0993359 0.00218195 0)
(0.0993619 0.00225173 0)
(0.0993911 0.00232345 0)
(0.0994236 0.00239707 0)
(0.0994598 0.00247256 0)
(0.0994999 0.00254985 0)
(0.0995443 0.00262885 0)
(0.0995931 0.00270947 0)
(0.0996468 0.00279157 0)
(0.0997057 0.00287501 0)
(0.0997381 0.000228727 0)
(0.0997323 0.000239623 0)
(0.0997266 0.000250948 0)
(0.099721 0.000262711 0)
(0.0997154 0.00027492 0)
(0.0997099 0.000287585 0)
(0.0997045 0.000300715 0)
(0.0996993 0.000314315 0)
(0.0996941 0.000328395 0)
(0.0996892 0.000342961 0)
(0.0996844 0.000358018 0)
(0.0996797 0.000373571 0)
(0.0996754 0.000389625 0)
(0.0996712 0.000406182 0)
(0.0996673 0.000423246 0)
(0.0996637 0.000440817 0)
(0.0996604 0.000458896 0)
(0.0996574 0.000477481 0)
(0.0996548 0.000496571 0)
(0.0996525 0.00051616 0)
(0.0996506 0.000536246 0)
(0.0996492 0.000556821 0)
(0.0996482 0.000577878 0)
(0.0996477 0.000599407 0)
(0.0996477 0.000621398 0)
(0.0996483 0.000643839 0)
(0.0996494 0.000666716 0)
(0.099651 0.000690013 0)
(0.0996533 0.000713714 0)
(0.0996562 0.000737801 0)
(0.0996597 0.000762252 0)
(0.0996639 0.000787047 0)
(0.0996688 0.000812163 0)
(0.0996744 0.000837575 0)
(0.0996807 0.000863258 0)
(0.0996878 0.000889183 0)
(0.0996956 0.000915323 0)
(0.0997043 0.000941647 0)
(0.0997137 0.000968125 0)
(0.0997239 0.000994725 0)
(0.0997349 0.00102141 0)
(0.0997468 0.00104816 0)
(0.0997594 0.00107492 0)
(0.099773 0.00110167 0)
(0.0997873 0.00112837 0)
(0.0998025 0.00115498 0)
(0.0998185 0.00118148 0)
(0.0998354 0.00120781 0)
(0.0998531 0.00123395 0)
(0.0998716 0.00125986 0)
(0.0998909 0.0012855 0)
(0.099911 0.00131084 0)
(0.099932 0.00133585 0)
(0.0999536 0.00136049 0)
(0.0999761 0.00138472 0)
(0.0997342 0.000226624 0)
(0.0997283 0.00023749 0)
(0.0997223 0.000248788 0)
(0.0997164 0.000260528 0)
(0.0997106 0.000272722 0)
(0.0997048 0.000285377 0)
(0.0996991 0.000298504 0)
(0.0996936 0.000312111 0)
(0.0996881 0.000326205 0)
(0.0996828 0.000340794 0)
(0.0996777 0.000355885 0)
(0.0996727 0.000371484 0)
(0.0996679 0.000387595 0)
(0.0996634 0.000404224 0)
(0.0996591 0.000421373 0)
(0.0996551 0.000439044 0)
(0.0996513 0.00045724 0)
(0.0996479 0.000475959 0)
(0.0996448 0.000495201 0)
(0.0996421 0.000514964 0)
(0.0996398 0.000535243 0)
(0.0996379 0.000556033 0)
(0.0996364 0.000577329 0)
(0.0996354 0.000599121 0)
(0.0996349 0.0006214 0)
(0.0996349 0.000644156 0)
(0.0996354 0.000667376 0)
(0.0996365 0.000691044 0)
(0.0996382 0.000715147 0)
(0.0996406 0.000739665 0)
(0.0996436 0.00076458 0)
(0.0996472 0.000789871 0)
(0.0996515 0.000815517 0)
(0.0996566 0.000841493 0)
(0.0996624 0.000867773 0)
(0.0996689 0.000894332 0)
(0.0996762 0.000921141 0)
(0.0996843 0.000948171 0)
(0.0996932 0.000975391 0)
(0.0997029 0.00100277 0)
(0.0997135 0.00103027 0)
(0.0997248 0.00105787 0)
(0.0997371 0.00108552 0)
(0.0997501 0.00111319 0)
(0.0997641 0.00114085 0)
(0.0997789 0.00116845 0)
(0.0997945 0.00119597 0)
(0.0998111 0.00122336 0)
(0.0998285 0.00125059 0)
(0.0998467 0.00127762 0)
(0.0998658 0.00130441 0)
(0.0998857 0.00133093 0)
(0.0999064 0.00135714 0)
(0.099928 0.001383 0)
(0.0999504 0.00140849 0)
(0.0997304 0.00022444 0)
(0.0997242 0.000235269 0)
(0.099718 0.000246534 0)
(0.0997119 0.000258246 0)
(0.0997058 0.000270417 0)
(0.0996997 0.000283056 0)
(0.0996938 0.000296173 0)
(0.0996879 0.000309777 0)
(0.0996821 0.000323877 0)
(0.0996765 0.000338481 0)
(0.099671 0.000353598 0)
(0.0996656 0.000369232 0)
(0.0996605 0.000385392 0)
(0.0996555 0.000402082 0)
(0.0996508 0.000419306 0)
(0.0996464 0.000437067 0)
(0.0996422 0.000455369 0)
(0.0996383 0.000474211 0)
(0.0996348 0.000493595 0)
(0.0996316 0.000513519 0)
(0.0996288 0.00053398 0)
(0.0996264 0.000554974 0)
(0.0996244 0.000576496 0)
(0.0996229 0.00059854 0)
(0.0996218 0.000621097 0)
(0.0996213 0.000644156 0)
(0.0996213 0.000667707 0)
(0.0996218 0.000691737 0)
(0.099623 0.00071623 0)
(0.0996247 0.00074117 0)
(0.0996271 0.00076654 0)
(0.0996302 0.000792319 0)
(0.0996339 0.000818487 0)
(0.0996384 0.00084502 0)
(0.0996436 0.000871894 0)
(0.0996496 0.000899082 0)
(0.0996563 0.000926558 0)
(0.0996638 0.000954291 0)
(0.0996722 0.000982253 0)
(0.0996813 0.00101041 0)
(0.0996913 0.00103873 0)
(0.0997022 0.00106718 0)
(0.0997139 0.00109573 0)
(0.0997265 0.00112433 0)
(0.09974 0.00115296 0)
(0.0997544 0.00118157 0)
(0.0997696 0.00121013 0)
(0.0997858 0.0012386 0)
(0.0998028 0.00126694 0)
(0.0998207 0.00129512 0)
(0.0998395 0.00132308 0)
(0.0998592 0.00135081 0)
(0.0998797 0.00137826 0)
(0.0999011 0.00140538 0)
(0.0999233 0.00143216 0)
(0.0997266 0.000222175 0)
(0.0997202 0.00023296 0)
(0.0997138 0.000244186 0)
(0.0997074 0.000255864 0)
(0.099701 0.000268005 0)
(0.0996946 0.00028062 0)
(0.0996884 0.000293719 0)
(0.0996822 0.000307313 0)
(0.0996761 0.00032141 0)
(0.0996701 0.000336021 0)
(0.0996642 0.000351153 0)
(0.0996585 0.000366815 0)
(0.099653 0.000383012 0)
(0.0996477 0.000399753 0)
(0.0996426 0.000417041 0)
(0.0996377 0.000434881 0)
(0.0996331 0.000453278 0)
(0.0996287 0.000472232 0)
(0.0996247 0.000491746 0)
(0.099621 0.000511818 0)
(0.0996177 0.000532449 0)
(0.0996148 0.000553635 0)
(0.0996123 0.000575372 0)
(0.0996102 0.000597655 0)
(0.0996086 0.000620476 0)
(0.0996075 0.000643827 0)
(0.0996069 0.000667697 0)
(0.0996069 0.000692076 0)
(0.0996074 0.000716949 0)
(0.0996086 0.000742301 0)
(0.0996104 0.000768115 0)
(0.0996128 0.000794372 0)
(0.099616 0.000821053 0)
(0.0996198 0.000848135 0)
(0.0996244 0.000875595 0)
(0.0996298 0.000903407 0)
(0.0996359 0.000931544 0)
(0.0996428 0.000959979 0)
(0.0996505 0.000988681 0)
(0.0996591 0.00101762 0)
(0.0996685 0.00104676 0)
(0.0996788 0.00107607 0)
(0.09969 0.00110552 0)
(0.0997021 0.00113506 0)
(0.0997151 0.00116467 0)
(0.0997289 0.0011943 0)
(0.0997437 0.00122392 0)
(0.0997595 0.00125348 0)
(0.0997761 0.00128296 0)
(0.0997936 0.0013123 0)
(0.0998121 0.00134147 0)
(0.0998314 0.00137044 0)
(0.0998517 0.00139915 0)
(0.0998728 0.00142758 0)
(0.0998949 0.00145568 0)
(0.0997229 0.000219827 0)
(0.0997162 0.000230564 0)
(0.0997095 0.000241744 0)
(0.0997028 0.00025338 0)
(0.0996962 0.000265484 0)
(0.0996896 0.000278068 0)
(0.099683 0.000291141 0)
(0.0996765 0.000304716 0)
(0.0996701 0.000318803 0)
(0.0996637 0.000333411 0)
(0.0996575 0.00034855 0)
(0.0996514 0.000364228 0)
(0.0996455 0.000380453 0)
(0.0996398 0.000397234 0)
(0.0996342 0.000414575 0)
(0.0996289 0.000432483 0)
(0.0996239 0.000450962 0)
(0.0996191 0.000470016 0)
(0.0996146 0.000489647 0)
(0.0996104 0.000509857 0)
(0.0996065 0.000530644 0)
(0.0996031 0.000552008 0)
(0.0996 0.000573947 0)
(0.0995974 0.000596455 0)
(0.0995952 0.000619527 0)
(0.0995935 0.000643157 0)
(0.0995923 0.000667334 0)
(0.0995917 0.000692048 0)
(0.0995916 0.000717288 0)
(0.0995922 0.000743039 0)
(0.0995933 0.000769285 0)
(0.0995952 0.00079601 0)
(0.0995976 0.000823193 0)
(0.0996009 0.000850815 0)
(0.0996048 0.000878852 0)
(0.0996095 0.00090728 0)
(0.099615 0.000936073 0)
(0.0996212 0.000965203 0)
(0.0996283 0.000994642 0)
(0.0996363 0.00102436 0)
(0.0996451 0.00105432 0)
(0.0996548 0.00108449 0)
(0.0996654 0.00111484 0)
(0.0996769 0.00114533 0)
(0.0996893 0.00117593 0)
(0.0997026 0.00120659 0)
(0.0997169 0.00123728 0)
(0.0997321 0.00126796 0)
(0.0997483 0.00129858 0)
(0.0997654 0.00132912 0)
(0.0997835 0.00135952 0)
(0.0998025 0.00138975 0)
(0.0998224 0.00141976 0)
(0.0998432 0.00144953 0)
(0.099865 0.00147899 0)
(0.0997191 0.000217398 0)
(0.0997122 0.000228079 0)
(0.0997053 0.000239207 0)
(0.0996983 0.000250795 0)
(0.0996914 0.000262855 0)
(0.0996845 0.000275399 0)
(0.0996776 0.00028844 0)
(0.0996708 0.000301987 0)
(0.099664 0.000316054 0)
(0.0996574 0.00033065 0)
(0.0996508 0.000345785 0)
(0.0996443 0.00036147 0)
(0.099638 0.000377713 0)
(0.0996319 0.000394522 0)
(0.0996259 0.000411905 0)
(0.0996201 0.000429868 0)
(0.0996146 0.000448418 0)
(0.0996093 0.000467559 0)
(0.0996043 0.000487294 0)
(0.0995996 0.000507627 0)
(0.0995953 0.000528557 0)
(0.0995913 0.000550086 0)
(0.0995876 0.000572212 0)
(0.0995844 0.000594931 0)
(0.0995817 0.000618241 0)
(0.0995794 0.000642134 0)
(0.0995776 0.000666603 0)
(0.0995763 0.000691639 0)
(0.0995756 0.000717232 0)
(0.0995755 0.000743368 0)
(0.099576 0.000770034 0)
(0.0995772 0.000797213 0)
(0.099579 0.000824887 0)
(0.0995815 0.000853037 0)
(0.0995848 0.000881641 0)
(0.0995888 0.000910675 0)
(0.0995935 0.000940116 0)
(0.0995991 0.000969935 0)
(0.0996056 0.0010001 0)
(0.0996128 0.00103059 0)
(0.099621 0.00106137 0)
(0.09963 0.00109241 0)
(0.09964 0.00112366 0)
(0.0996508 0.00115511 0)
(0.0996626 0.0011867 0)
(0.0996754 0.0012184 0)
(0.0996891 0.00125017 0)
(0.0997038 0.00128197 0)
(0.0997194 0.00131377 0)
(0.099736 0.00134551 0)
(0.0997536 0.00137717 0)
(0.0997722 0.00140869 0)
(0.0997917 0.00144004 0)
(0.0998122 0.00147117 0)
(0.0998337 0.00150204 0)
(0.0997154 0.000214886 0)
(0.0997082 0.000225506 0)
(0.099701 0.000236575 0)
(0.0996938 0.000248108 0)
(0.0996866 0.000260117 0)
(0.0996794 0.000272614 0)
(0.0996723 0.000285612 0)
(0.0996651 0.000299124 0)
(0.099658 0.000313162 0)
(0.099651 0.000327736 0)
(0.0996441 0.000342858 0)
(0.0996372 0.000358538 0)
(0.0996305 0.000374787 0)
(0.0996239 0.000391614 0)
(0.0996175 0.000409027 0)
(0.0996113 0.000427033 0)
(0.0996053 0.000445641 0)
(0.0995996 0.000464855 0)
(0.0995941 0.000484681 0)
(0.0995888 0.000505123 0)
(0.0995839 0.000526182 0)
(0.0995794 0.000547861 0)
(0.0995752 0.000570159 0)
(0.0995714 0.000593074 0)
(0.099568 0.000616605 0)
(0.0995651 0.000640747 0)
(0.0995627 0.000665493 0)
(0.0995608 0.000690835 0)
(0.0995594 0.000716766 0)
(0.0995586 0.000743272 0)
(0.0995584 0.000770343 0)
(0.0995589 0.000797961 0)
(0.09956 0.000826113 0)
(0.0995618 0.000854777 0)
(0.0995643 0.000883936 0)
(0.0995676 0.000913566 0)
(0.0995717 0.000943643 0)
(0.0995765 0.000974142 0)
(0.0995822 0.00100504 0)
(0.0995888 0.00103629 0)
(0.0995962 0.00106789 0)
(0.0996045 0.00109978 0)
(0.0996138 0.00113194 0)
(0.099624 0.00116433 0)
(0.0996351 0.00119692 0)
(0.0996472 0.00122967 0)
(0.0996603 0.00126253 0)
(0.0996743 0.00129548 0)
(0.0996894 0.00132846 0)
(0.0997055 0.00136143 0)
(0.0997225 0.00139436 0)
(0.0997406 0.0014272 0)
(0.0997597 0.0014599 0)
(0.0997798 0.00149244 0)
(0.0998009 0.00152475 0)
(0.0997116 0.000212292 0)
(0.0997043 0.000222844 0)
(0.0996968 0.000233848 0)
(0.0996894 0.000245318 0)
(0.0996819 0.000257268 0)
(0.0996744 0.00026971 0)
(0.0996669 0.000282659 0)
(0.0996595 0.000296126 0)
(0.099652 0.000310125 0)
(0.0996446 0.000324668 0)
(0.0996373 0.000339766 0)
(0.0996301 0.000355432 0)
(0.099623 0.000371675 0)
(0.099616 0.000388507 0)
(0.0996092 0.000405937 0)
(0.0996025 0.000423974 0)
(0.099596 0.000442626 0)
(0.0995898 0.0004619 0)
(0.0995837 0.000481803 0)
(0.099578 0.000502338 0)
(0.0995725 0.000523511 0)
(0.0995674 0.000545324 0)
(0.0995626 0.000567779 0)
(0.0995582 0.000590874 0)
(0.0995542 0.00061461 0)
(0.0995507 0.000638984 0)
(0.0995476 0.000663989 0)
(0.099545 0.000689622 0)
(0.0995429 0.000715873 0)
(0.0995414 0.000742734 0)
(0.0995405 0.000770192 0)
(0.0995403 0.000798235 0)
(0.0995406 0.000826848 0)
(0.0995417 0.000856013 0)
(0.0995435 0.000885711 0)
(0.099546 0.000915923 0)
(0.0995493 0.000946625 0)
(0.0995534 0.000977792 0)
(0.0995583 0.0010094 0)
(0.0995641 0.00104142 0)
(0.0995708 0.00107382 0)
(0.0995783 0.00110656 0)
(0.0995868 0.00113963 0)
(0.0995963 0.00117297 0)
(0.0996067 0.00120656 0)
(0.0996181 0.00124036 0)
(0.0996305 0.00127432 0)
(0.0996439 0.00130841 0)
(0.0996583 0.00134259 0)
(0.0996737 0.00137681 0)
(0.0996902 0.00141103 0)
(0.0997077 0.00144521 0)
(0.0997263 0.0014793 0)
(0.0997459 0.00151326 0)
(0.0997665 0.00154705 0)
(0.099708 0.000209615 0)
(0.0997003 0.000220093 0)
(0.0996927 0.000231025 0)
(0.0996849 0.000242426 0)
(0.0996772 0.000254309 0)
(0.0996694 0.000266689 0)
(0.0996616 0.000279578 0)
(0.0996538 0.000292992 0)
(0.099646 0.000306943 0)
(0.0996383 0.000321444 0)
(0.0996306 0.000336508 0)
(0.099623 0.000352147 0)
(0.0996155 0.000368374 0)
(0.0996081 0.0003852 0)
(0.0996008 0.000402634 0)
(0.0995936 0.000420688 0)
(0.0995867 0.000439371 0)
(0.0995799 0.00045869 0)
(0.0995734 0.000478654 0)
(0.0995671 0.000499268 0)
(0.0995611 0.000520539 0)
(0.0995553 0.00054247 0)
(0.09955 0.000565064 0)
(0.0995449 0.000588322 0)
(0.0995403 0.000612246 0)
(0.0995361 0.000636833 0)
(0.0995323 0.000662081 0)
(0.099529 0.000687985 0)
(0.0995263 0.000714539 0)
(0.099524 0.000741736 0)
(0.0995224 0.000769564 0)
(0.0995214 0.000798014 0)
(0.099521 0.00082707 0)
(0.0995213 0.000856718 0)
(0.0995222 0.000886941 0)
(0.099524 0.000917719 0)
(0.0995265 0.000949031 0)
(0.0995297 0.000980854 0)
(0.0995339 0.00101316 0)
(0.0995388 0.00104593 0)
(0.0995447 0.00107912 0)
(0.0995514 0.00111272 0)
(0.0995591 0.00114668 0)
(0.0995678 0.00118097 0)
(0.0995774 0.00121556 0)
(0.099588 0.00125041 0)
(0.0995997 0.00128547 0)
(0.0996123 0.00132072 0)
(0.099626 0.0013561 0)
(0.0996408 0.00139158 0)
(0.0996566 0.00142711 0)
(0.0996735 0.00146265 0)
(0.0996914 0.00149815 0)
(0.0997105 0.00153357 0)
(0.0997306 0.00156886 0)
(0.0997043 0.000206855 0)
(0.0996964 0.000217253 0)
(0.0996885 0.000228106 0)
(0.0996805 0.00023943 0)
(0.0996725 0.000251239 0)
(0.0996644 0.000263548 0)
(0.0996563 0.00027637 0)
(0.0996482 0.000289721 0)
(0.0996401 0.000303614 0)
(0.099632 0.000318063 0)
(0.0996239 0.000333082 0)
(0.0996159 0.000348684 0)
(0.099608 0.000364882 0)
(0.0996001 0.000381688 0)
(0.0995924 0.000399114 0)
(0.0995848 0.000417171 0)
(0.0995773 0.00043587 0)
(0.0995701 0.00045522 0)
(0.099563 0.000475229 0)
(0.0995561 0.000495907 0)
(0.0995495 0.000517258 0)
(0.0995432 0.00053929 0)
(0.0995372 0.000562006 0)
(0.0995316 0.000585409 0)
(0.0995263 0.000609502 0)
(0.0995214 0.000634284 0)
(0.0995169 0.000659755 0)
(0.0995129 0.000685911 0)
(0.0995094 0.000712749 0)
(0.0995064 0.000740261 0)
(0.099504 0.000768441 0)
(0.0995022 0.000797277 0)
(0.099501 0.000826758 0)
(0.0995005 0.000856871 0)
(0.0995006 0.0008876 0)
(0.0995015 0.000918926 0)
(0.0995032 0.000950831 0)
(0.0995056 0.000983293 0)
(0.0995089 0.00101629 0)
(0.099513 0.00104979 0)
(0.0995179 0.00108377 0)
(0.0995238 0.0011182 0)
(0.0995307 0.00115305 0)
(0.0995385 0.00118828 0)
(0.0995472 0.00122386 0)
(0.099557 0.00125976 0)
(0.0995678 0.00129593 0)
(0.0995797 0.00133233 0)
(0.0995926 0.00136893 0)
(0.0996066 0.00140567 0)
(0.0996217 0.00144253 0)
(0.0996379 0.00147944 0)
(0.0996551 0.00151637 0)
(0.0996735 0.00155327 0)
(0.099693 0.0015901 0)
(0.0997007 0.000204013 0)
(0.0996926 0.000214324 0)
(0.0996844 0.000225092 0)
(0.0996762 0.000236332 0)
(0.0996678 0.000248059 0)
(0.0996595 0.000260288 0)
(0.0996511 0.000273034 0)
(0.0996426 0.000286312 0)
(0.0996342 0.000300138 0)
(0.0996257 0.000314524 0)
(0.0996173 0.000329487 0)
(0.0996089 0.00034504 0)
(0.0996005 0.000361197 0)
(0.0995922 0.000377971 0)
(0.099584 0.000395375 0)
(0.0995759 0.000413421 0)
(0.099568 0.000432121 0)
(0.0995602 0.000451485 0)
(0.0995526 0.000471525 0)
(0.0995451 0.000492248 0)
(0.099538 0.000513663 0)
(0.0995311 0.000535777 0)
(0.0995244 0.000558597 0)
(0.0995181 0.000582126 0)
(0.0995121 0.000606368 0)
(0.0995066 0.000631326 0)
(0.0995014 0.000656999 0)
(0.0994966 0.000683387 0)
(0.0994924 0.000710487 0)
(0.0994886 0.000738294 0)
(0.0994854 0.000766803 0)
(0.0994828 0.000796005 0)
(0.0994807 0.00082589 0)
(0.0994794 0.000856446 0)
(0.0994787 0.00088766 0)
(0.0994787 0.000919515 0)
(0.0994794 0.000951994 0)
(0.099481 0.000985076 0)
(0.0994833 0.00101874 0)
(0.0994865 0.00105296 0)
(0.0994906 0.00108771 0)
(0.0994956 0.00112296 0)
(0.0995015 0.00115869 0)
(0.0995083 0.00119485 0)
(0.0995162 0.00123142 0)
(0.0995251 0.00126836 0)
(0.099535 0.00130563 0)
(0.099546 0.00134319 0)
(0.0995581 0.001381 0)
(0.0995712 0.00141902 0)
(0.0995855 0.00145721 0)
(0.0996009 0.00149551 0)
(0.0996174 0.00153389 0)
(0.099635 0.0015723 0)
(0.0996538 0.00161068 0)
(0.0996971 0.000201089 0)
(0.0996887 0.000211306 0)
(0.0996803 0.000221982 0)
(0.0996718 0.00023313 0)
(0.0996632 0.000244767 0)
(0.0996545 0.000256908 0)
(0.0996458 0.000269569 0)
(0.0996371 0.000282766 0)
(0.0996283 0.000296513 0)
(0.0996194 0.000310827 0)
(0.0996106 0.000325722 0)
(0.0996018 0.000341214 0)
(0.099593 0.000357317 0)
(0.0995843 0.000374046 0)
(0.0995756 0.000391414 0)
(0.0995671 0.000409434 0)
(0.0995586 0.00042812 0)
(0.0995503 0.000447483 0)
(0.0995421 0.000467536 0)
(0.0995341 0.000488287 0)
(0.0995264 0.000509748 0)
(0.0995188 0.000531926 0)
(0.0995116 0.00055483 0)
(0.0995046 0.000578464 0)
(0.0994979 0.000602836 0)
(0.0994916 0.000627947 0)
(0.0994857 0.000653801 0)
(0.0994802 0.000680399 0)
(0.0994752 0.000707738 0)
(0.0994706 0.000735818 0)
(0.0994666 0.000764633 0)
(0.0994631 0.000794177 0)
(0.0994602 0.000824443 0)
(0.0994579 0.00085542 0)
(0.0994563 0.000887096 0)
(0.0994554 0.000919458 0)
(0.0994553 0.000952488 0)
(0.0994559 0.00098617 0)
(0.0994573 0.00102048 0)
(0.0994595 0.0010554 0)
(0.0994626 0.0010909 0)
(0.0994666 0.00112696 0)
(0.0994715 0.00116355 0)
(0.0994774 0.00120063 0)
(0.0994843 0.00123817 0)
(0.0994922 0.00127615 0)
(0.0995012 0.00131451 0)
(0.0995112 0.00135323 0)
(0.0995223 0.00139225 0)
(0.0995346 0.00143155 0)
(0.0995479 0.00147107 0)
(0.0995624 0.00151078 0)
(0.0995781 0.00155062 0)
(0.099595 0.00159054 0)
(0.099613 0.00163051 0)
(0.0996935 0.000198082 0)
(0.0996849 0.0002082 0)
(0.0996763 0.000218776 0)
(0.0996675 0.000229825 0)
(0.0996586 0.000241364 0)
(0.0996497 0.000253409 0)
(0.0996406 0.000265976 0)
(0.0996315 0.000279081 0)
(0.0996224 0.00029274 0)
(0.0996132 0.00030697 0)
(0.099604 0.000321786 0)
(0.0995948 0.000337205 0)
(0.0995856 0.000353241 0)
(0.0995764 0.000369911 0)
(0.0995673 0.000387228 0)
(0.0995582 0.000405208 0)
(0.0995493 0.000423864 0)
(0.0995404 0.00044321 0)
(0.0995317 0.000463258 0)
(0.0995231 0.00048402 0)
(0.0995147 0.000505507 0)
(0.0995066 0.00052773 0)
(0.0994987 0.000550697 0)
(0.099491 0.000574416 0)
(0.0994836 0.000598895 0)
(0.0994766 0.000624138 0)
(0.0994699 0.00065015 0)
(0.0994637 0.000676933 0)
(0.0994578 0.000704489 0)
(0.0994524 0.000732816 0)
(0.0994475 0.000761913 0)
(0.0994432 0.000791775 0)
(0.0994394 0.000822396 0)
(0.0994362 0.000853768 0)
(0.0994337 0.000885882 0)
(0.0994318 0.000918725 0)
(0.0994307 0.000952283 0)
(0.0994303 0.000986539 0)
(0.0994307 0.00102148 0)
(0.0994319 0.00105707 0)
(0.099434 0.00109331 0)
(0.099437 0.00113015 0)
(0.0994409 0.00116758 0)
(0.0994457 0.00120556 0)
(0.0994516 0.00124407 0)
(0.0994584 0.00128306 0)
(0.0994664 0.00132251 0)
(0.0994754 0.00136237 0)
(0.0994855 0.00140261 0)
(0.0994967 0.00144318 0)
(0.0995091 0.00148404 0)
(0.0995226 0.00152515 0)
(0.0995374 0.00156646 0)
(0.0995533 0.00160792 0)
(0.0995704 0.00164949 0)
(0.09969 0.000194994 0)
(0.0996812 0.000205005 0)
(0.0996723 0.000215474 0)
(0.0996632 0.000226417 0)
(0.0996541 0.00023785 0)
(0.0996448 0.00024979 0)
(0.0996355 0.000262253 0)
(0.099626 0.000275257 0)
(0.0996165 0.000288818 0)
(0.099607 0.000302953 0)
(0.0995974 0.000317679 0)
(0.0995878 0.000333012 0)
(0.0995782 0.000348968 0)
(0.0995686 0.000365565 0)
(0.099559 0.000382817 0)
(0.0995494 0.000400741 0)
(0.0995399 0.00041935 0)
(0.0995305 0.000438661 0)
(0.0995213 0.000458687 0)
(0.0995121 0.000479441 0)
(0.0995031 0.000500936 0)
(0.0994943 0.000523182 0)
(0.0994857 0.000546192 0)
(0.0994774 0.000569974 0)
(0.0994693 0.000594537 0)
(0.0994615 0.000619888 0)
(0.0994541 0.000646034 0)
(0.099447 0.000672978 0)
(0.0994403 0.000700724 0)
(0.0994341 0.000729273 0)
(0.0994283 0.000758625 0)
(0.0994231 0.000788777 0)
(0.0994184 0.000819727 0)
(0.0994142 0.000851467 0)
(0.0994107 0.000883991 0)
(0.0994079 0.000917288 0)
(0.0994057 0.000951346 0)
(0.0994043 0.000986151 0)
(0.0994036 0.00102169 0)
(0.0994038 0.00105793 0)
(0.0994048 0.00109487 0)
(0.0994067 0.00113248 0)
(0.0994095 0.00117073 0)
(0.0994132 0.00120959 0)
(0.099418 0.00124904 0)
(0.0994237 0.00128904 0)
(0.0994306 0.00132955 0)
(0.0994385 0.00137055 0)
(0.0994475 0.00141199 0)
(0.0994576 0.00145383 0)
(0.0994689 0.00149603 0)
(0.0994814 0.00153854 0)
(0.0994951 0.00158133 0)
(0.09951 0.00162433 0)
(0.0995262 0.00166751 0)
(0.0996865 0.000191824 0)
(0.0996775 0.000201722 0)
(0.0996683 0.000212077 0)
(0.099659 0.000222906 0)
(0.0996496 0.000234225 0)
(0.09964 0.000246051 0)
(0.0996304 0.000258402 0)
(0.0996206 0.000271295 0)
(0.0996108 0.000284747 0)
(0.0996008 0.000298775 0)
(0.0995909 0.000313398 0)
(0.0995809 0.000328633 0)
(0.0995708 0.000344496 0)
(0.0995607 0.000361006 0)
(0.0995507 0.000378178 0)
(0.0995406 0.000396029 0)
(0.0995306 0.000414577 0)
(0.0995207 0.000433835 0)
(0.0995108 0.00045382 0)
(0.0995011 0.000474547 0)
(0.0994915 0.000496028 0)
(0.099482 0.000518278 0)
(0.0994727 0.000541308 0)
(0.0994637 0.00056513 0)
(0.0994549 0.000589754 0)
(0.0994464 0.000615188 0)
(0.0994381 0.000641442 0)
(0.0994302 0.000668521 0)
(0.0994227 0.00069643 0)
(0.0994156 0.000725173 0)
(0.0994089 0.000754752 0)
(0.0994028 0.000785166 0)
(0.0993971 0.000816414 0)
(0.099392 0.000848493 0)
(0.0993875 0.000881397 0)
(0.0993836 0.000915118 0)
(0.0993804 0.000949646 0)
(0.0993779 0.00098497 0)
(0.0993761 0.00102108 0)
(0.0993752 0.00105795 0)
(0.099375 0.00109556 0)
(0.0993758 0.0011339 0)
(0.0993774 0.00117294 0)
(0.09938 0.00121266 0)
(0.0993836 0.00125303 0)
(0.0993881 0.00129401 0)
(0.0993938 0.00133557 0)
(0.0994005 0.00137769 0)
(0.0994083 0.00142031 0)
(0.0994173 0.00146341 0)
(0.0994274 0.00150694 0)
(0.0994388 0.00155086 0)
(0.0994513 0.00159511 0)
(0.0994651 0.00163967 0)
(0.0994802 0.00168446 0)
(0.0996831 0.000188573 0)
(0.0996738 0.000198351 0)
(0.0996644 0.000208585 0)
(0.0996548 0.000219292 0)
(0.0996451 0.000230489 0)
(0.0996353 0.000242193 0)
(0.0996253 0.000254422 0)
(0.0996152 0.000267193 0)
(0.099605 0.000280526 0)
(0.0995947 0.000294437 0)
(0.0995844 0.000308945 0)
(0.099574 0.000324068 0)
(0.0995635 0.000339825 0)
(0.099553 0.000356233 0)