/*--------------------------------*- C++ -*----------------------------------*\
| =========                 |                                                 |
| \\      /  F ield         | OpenFOAM: The Open Source CFD Toolbox           |
|  \\    /   O peration     | Version:  2412                                  |
|   \\  /    A nd           | Website:  www.openfoam.com                      |
|    \\/     M anipulation  |                                                 |
\*---------------------------------------------------------------------------*/
FoamFile
{
    version     2.0;
    format      ascii;
    arch        "LSB;label=32;scalar=64";
    class       volVectorField;
    location    "25.5";
    object      U;
}
// * * * * * * * * * * * * * * * * * * * * * * * * * * * * * * * * * * * * * //

dimensions      [0 1 -1 0 0 0 0];

internalField   nonuniform List<vector> 
5285
(
(0.0999997 4.39342e-07 0)
(0.099995 1.30676e-06 0)
(0.099985 2.16186e-06 0)
(0.0999706 3.009e-06 0)
(0.0999519 3.85254e-06 0)
(0.099929 4.6952e-06 0)
(0.0999022 5.53975e-06 0)
(0.0998715 6.39455e-06 0)
(0.0998371 7.28109e-06 0)
(0.0997988 8.23886e-06 0)
(0.0997565 9.32206e-06 0)
(0.0997094 1.05871e-05 0)
(0.0996569 1.20746e-05 0)
(0.0995981 1.37922e-05 0)
(0.0995323 1.5707e-05 0)
(0.099459 1.77479e-05 0)
(0.0993782 1.98196e-05 0)
(0.0992903 2.18212e-05 0)
(0.0991961 2.36648e-05 0)
(0.0990967 2.52898e-05 0)
(0.0989932 2.66691e-05 0)
(0.0988868 2.78086e-05 0)
(0.0987786 2.8741e-05 0)
(0.0986693 2.95167e-05 0)
(0.0985596 3.01944e-05 0)
(0.0984496 3.08327e-05 0)
(0.0983395 3.14841e-05 0)
(0.0982293 3.21917e-05 0)
(0.0981187 3.29878e-05 0)
(0.0980073 3.38945e-05 0)
(0.0978951 3.49248e-05 0)
(0.0977815 3.60851e-05 0)
(0.0976663 3.73766e-05 0)
(0.0975491 3.87975e-05 0)
(0.0974298 4.03445e-05 0)
(0.0973081 4.20137e-05 0)
(0.0971837 4.38017e-05 0)
(0.0970565 4.57055e-05 0)
(0.0969264 4.77232e-05 0)
(0.0967932 4.98541e-05 0)
(0.0966567 5.20982e-05 0)
(0.0965168 5.44567e-05 0)
(0.0963735 5.69316e-05 0)
(0.0962267 5.95255e-05 0)
(0.0960761 6.22418e-05 0)
(0.0959217 6.50841e-05 0)
(0.0957635 6.80569e-05 0)
(0.0956013 7.11649e-05 0)
(0.0954351 7.44132e-05 0)
(0.0952646 7.78075e-05 0)
(0.0950899 8.13545e-05 0)
(0.0949108 8.50626e-05 0)
(0.0947273 8.89459e-05 0)
(0.0945391 9.30348e-05 0)
(0.0943461 9.74063e-05 0)
(0.0999997 1.31802e-06 0)
(0.099995 3.92017e-06 0)
(0.0999851 6.48527e-06 0)
(0.0999707 9.02629e-06 0)
(0.0999519 1.15564e-05 0)
(0.0999291 1.40839e-05 0)
(0.0999023 1.66171e-05 0)
(0.0998716 1.9181e-05 0)
(0.0998372 2.18399e-05 0)
(0.099799 2.47117e-05 0)
(0.0997567 2.79584e-05 0)
(0.0997097 3.17488e-05 0)
(0.0996572 3.6204e-05 0)
(0.0995985 4.13479e-05 0)
(0.0995328 4.7082e-05 0)
(0.0994596 5.31949e-05 0)
(0.099379 5.94017e-05 0)
(0.0992912 6.5401e-05 0)
(0.0991972 7.09306e-05 0)
(0.0990979 7.58087e-05 0)
(0.0989945 7.99541e-05 0)
(0.0988883 8.33837e-05 0)
(0.0987802 8.61946e-05 0)
(0.098671 8.85369e-05 0)
(0.0985613 9.05855e-05 0)
(0.0984515 9.25153e-05 0)
(0.0983415 9.44831e-05 0)
(0.0982313 9.66176e-05 0)
(0.0981207 9.90155e-05 0)
(0.0980095 0.000101743 0)
(0.0978973 0.000104839 0)
(0.0977837 0.000108322 0)
(0.0976686 0.000112198 0)
(0.0975516 0.00011646 0)
(0.0974324 0.000121099 0)
(0.0973108 0.000126104 0)
(0.0971866 0.000131464 0)
(0.0970596 0.00013717 0)
(0.0969296 0.000143218 0)
(0.0967966 0.000149604 0)
(0.0966603 0.000156329 0)
(0.0965207 0.000163397 0)
(0.0963776 0.000170813 0)
(0.096231 0.000178586 0)
(0.0960807 0.000186725 0)
(0.0959267 0.000195241 0)
(0.0957688 0.000204148 0)
(0.0956069 0.000213459 0)
(0.095441 0.00022319 0)
(0.095271 0.000233358 0)
(0.0950967 0.000243983 0)
(0.094918 0.000255089 0)
(0.0947349 0.000266718 0)
(0.0945473 0.00027896 0)
(0.0943548 0.000292042 0)
(0.0999997 2.19581e-06 0)
(0.099995 6.53078e-06 0)
(0.0999851 1.08041e-05 0)
(0.0999707 1.50372e-05 0)
(0.099952 1.92521e-05 0)
(0.0999292 2.34625e-05 0)
(0.0999024 2.76825e-05 0)
(0.0998718 3.19535e-05 0)
(0.0998374 3.63821e-05 0)
(0.0997993 4.11639e-05 0)
(0.099757 4.65678e-05 0)
(0.0997101 5.28744e-05 0)
(0.0996578 6.02854e-05 0)
(0.0995993 6.88415e-05 0)
(0.0995338 7.83801e-05 0)
(0.0994608 8.85509e-05 0)
(0.0993805 9.88815e-05 0)
(0.099293 0.000108871 0)
(0.0991993 0.000118084 0)
(0.0991003 0.000126218 0)
(0.0989972 0.000133136 0)
(0.0988912 0.000138864 0)
(0.0987834 0.000143564 0)
(0.0986744 0.000147483 0)
(0.0985649 0.000150911 0)
(0.0984551 0.000154139 0)
(0.0983453 0.000157426 0)
(0.0982352 0.000160988 0)
(0.0981248 0.000164985 0)
(0.0980137 0.000169527 0)
(0.0979016 0.00017468 0)
(0.0977883 0.000180476 0)
(0.0976733 0.000186922 0)
(0.0975565 0.000194011 0)
(0.0974376 0.000201726 0)
(0.0973162 0.000210049 0)
(0.0971923 0.000218962 0)
(0.0970656 0.000228452 0)
(0.096936 0.000238509 0)
(0.0968034 0.000249129 0)
(0.0966675 0.000260312 0)
(0.0965284 0.000272065 0)
(0.0963858 0.000284397 0)
(0.0962397 0.000297322 0)
(0.09609 0.000310854 0)
(0.0959365 0.000325013 0)
(0.0957792 0.00033982 0)
(0.0956181 0.000355299 0)
(0.0954529 0.000371474 0)
(0.0952836 0.000388373 0)
(0.0951101 0.000406028 0)
(0.0949323 0.000424481 0)
(0.0947502 0.000443797 0)
(0.0945635 0.000464118 0)
(0.0943721 0.000485806 0)
(0.0999997 3.07215e-06 0)
(0.099995 9.1367e-06 0)
(0.0999851 1.51154e-05 0)
(0.0999708 2.10374e-05 0)
(0.0999521 2.69339e-05 0)
(0.0999293 3.28243e-05 0)
(0.0999026 3.8728e-05 0)
(0.0998721 4.47026e-05 0)
(0.0998378 5.08964e-05 0)
(0.0997997 5.75815e-05 0)
(0.0997576 6.51326e-05 0)
(0.0997108 7.39406e-05 0)
(0.0996587 8.42879e-05 0)
(0.0996004 9.6233e-05 0)
(0.0995352 0.000109552 0)
(0.0994626 0.000123757 0)
(0.0993827 0.000138193 0)
(0.0992957 0.000152161 0)
(0.0992024 0.000165054 0)
(0.0991038 0.000176446 0)
(0.0990012 0.000186146 0)
(0.0988956 0.000194188 0)
(0.098788 0.000200793 0)
(0.0986794 0.000206305 0)
(0.0985701 0.000211127 0)
(0.0984606 0.000215662 0)
(0.0983509 0.000220275 0)
(0.0982411 0.000225264 0)
(0.0981308 0.000230855 0)
(0.0980199 0.000237201 0)
(0.0979081 0.000244397 0)
(0.097795 0.000252488 0)
(0.0976804 0.000261484 0)
(0.0975639 0.000271375 0)
(0.0974453 0.00028214 0)
(0.0973243 0.000293753 0)
(0.0972009 0.000306189 0)
(0.0970747 0.00031943 0)
(0.0969456 0.000333462 0)
(0.0968135 0.00034828 0)
(0.0966783 0.000363884 0)
(0.0965398 0.000380282 0)
(0.096398 0.000397488 0)
(0.0962527 0.000415518 0)
(0.0961038 0.000434396 0)
(0.0959512 0.000454147 0)
(0.0957949 0.000474799 0)
(0.0956347 0.000496385 0)
(0.0954706 0.000518939 0)
(0.0953025 0.000542499 0)
(0.0951302 0.000567108 0)
(0.0949537 0.000592821 0)
(0.0947729 0.000619725 0)
(0.0945877 0.000648003 0)
(0.094398 0.000678115 0)
(0.0999997 3.94651e-06 0)
(0.099995 1.1736e-05 0)
(0.0999852 1.94161e-05 0)
(0.0999708 2.70228e-05 0)
(0.0999523 3.45966e-05 0)
(0.0999295 4.21625e-05 0)
(0.0999029 4.97455e-05 0)
(0.0998724 5.7419e-05 0)
(0.0998383 6.5372e-05 0)
(0.0998003 7.39513e-05 0)
(0.0997583 8.36353e-05 0)
(0.0997117 9.49245e-05 0)
(0.0996599 0.000108182 0)
(0.0996019 0.000123484 0)
(0.0995371 0.000140549 0)
(0.099465 0.000158758 0)
(0.0993856 0.000177274 0)
(0.0992991 0.000195204 0)
(0.0992064 0.00021177 0)
(0.0991084 0.000226425 0)
(0.0990064 0.00023892 0)
(0.0989013 0.000249295 0)
(0.0987942 0.000257827 0)
(0.0986859 0.000264953 0)
(0.098577 0.000271187 0)
(0.0984678 0.000277045 0)
(0.0983584 0.00028299 0)
(0.0982488 0.000289406 0)
(0.0981388 0.000296583 0)
(0.0980282 0.000304721 0)
(0.0979167 0.00031394 0)
(0.0978039 0.0003243 0)
(0.0976897 0.000335816 0)
(0.0975736 0.000348476 0)
(0.0974555 0.000362254 0)
(0.0973351 0.000377117 0)
(0.0972122 0.000393034 0)
(0.0970867 0.000409982 0)
(0.0969583 0.000427942 0)
(0.096827 0.000446908 0)
(0.0966927 0.000466881 0)
(0.0965551 0.000487869 0)
(0.0964142 0.00050989 0)
(0.0962699 0.000532964 0)
(0.0961221 0.00055712 0)
(0.0959707 0.00058239 0)
(0.0958157 0.000608811 0)
(0.0956568 0.000636421 0)
(0.0954941 0.000665264 0)
(0.0953275 0.000695388 0)
(0.0951568 0.000726844 0)
(0.0949821 0.0007597 0)
(0.0948031 0.000794056 0)
(0.0946199 0.00083012 0)
(0.0944322 0.000868411 0)
(0.0999997 4.81852e-06 0)
(0.099995 1.43269e-05 0)
(0.0999852 2.37033e-05 0)
(0.0999709 3.29892e-05 0)
(0.0999524 4.22348e-05 0)
(0.0999298 5.14707e-05 0)
(0.0999032 6.07274e-05 0)
(0.0998729 7.00937e-05 0)
(0.0998388 7.97979e-05 0)
(0.099801 9.02599e-05 0)
(0.0997592 0.00010206 0)
(0.0997129 0.000115805 0)
(0.0996613 0.000131939 0)
(0.0996037 0.00015056 0)
(0.0995394 0.00017133 0)
(0.0994679 0.000193503 0)
(0.0993891 0.000216066 0)
(0.0993033 0.000237937 0)
(0.0992114 0.000258168 0)
(0.0991141 0.000276091 0)
(0.0990127 0.000291397 0)
(0.0989082 0.000304127 0)
(0.0988017 0.000314613 0)
(0.0986939 0.00032338 0)
(0.0985854 0.000331049 0)
(0.0984765 0.000338243 0)
(0.0983675 0.000345529 0)
(0.0982583 0.000353371 0)
(0.0981486 0.000362126 0)
(0.0980384 0.000372037 0)
(0.0979272 0.000383253 0)
(0.0978149 0.00039585 0)
(0.0977012 0.000409849 0)
(0.0975857 0.000425237 0)
(0.0974682 0.000441981 0)
(0.0973484 0.000460044 0)
(0.0972263 0.000479389 0)
(0.0971016 0.000499987 0)
(0.0969741 0.000521816 0)
(0.0968438 0.000544868 0)
(0.0967105 0.000569143 0)
(0.096574 0.00059465 0)
(0.0964343 0.000621411 0)
(0.0962913 0.000649449 0)
(0.0961449 0.000678799 0)
(0.095995 0.000709498 0)
(0.0958414 0.00074159 0)
(0.0956843 0.00077512 0)
(0.0955233 0.000810139 0)
(0.0953586 0.000846703 0)
(0.0951899 0.000884872 0)
(0.0950172 0.00092472 0)
(0.0948405 0.000966357 0)
(0.0946597 0.00100999 0)
(0.0944747 0.00105615 0)
(0.0999997 5.68746e-06 0)
(0.0999951 1.69081e-05 0)
(0.0999853 2.79742e-05 0)
(0.0999711 3.89325e-05 0)
(0.0999526 4.98431e-05 0)
(0.0999301 6.07424e-05 0)
(0.0999036 7.16659e-05 0)
(0.0998734 8.27176e-05 0)
(0.0998395 9.41637e-05 0)
(0.0998019 0.000106495 0)
(0.0997603 0.000120389 0)
(0.0997143 0.000136561 0)
(0.099663 0.000155533 0)
(0.0996059 0.000177427 0)
(0.0995421 0.000201853 0)
(0.0994713 0.000227945 0)
(0.0993932 0.000254518 0)
(0.0993083 0.000280305 0)
(0.0992171 0.00030419 0)
(0.0991207 0.000325386 0)
(0.09902 0.00034352 0)
(0.0989163 0.000358631 0)
(0.0988104 0.0003711 0)
(0.0987032 0.000381537 0)
(0.0985952 0.000390665 0)
(0.0984868 0.000399214 0)
(0.0983782 0.000407848 0)
(0.0982694 0.000417115 0)
(0.0981602 0.000427435 0)
(0.0980504 0.000439097 0)
(0.0979398 0.00045228 0)
(0.097828 0.000467077 0)
(0.0977148 0.000483513 0)
(0.0976 0.000501577 0)
(0.0974832 0.000521232 0)
(0.0973643 0.000542436 0)
(0.0972431 0.000565145 0)
(0.0971194 0.000589325 0)
(0.096993 0.000614952 0)
(0.0968638 0.000642013 0)
(0.0967317 0.00067051 0)
(0.0965966 0.000700453 0)
(0.0964583 0.000731863 0)
(0.0963168 0.000764771 0)
(0.096172 0.000799212 0)
(0.0960238 0.000835231 0)
(0.0958722 0.000872877 0)
(0.095717 0.0009122 0)
(0.0955581 0.00095326 0)
(0.0953955 0.000996118 0)
(0.0952292 0.00104084 0)
(0.0950591 0.00108751 0)
(0.094885 0.00113622 0)
(0.0947071 0.00118716 0)
(0.0945251 0.00124076 0)
(0.0941472 0.000102284 -4.44641e-24)
(0.0939404 0.000107445 -4.53435e-24)
(0.0937237 0.000112948 -3.17355e-26)
(0.0934964 0.000118819 1.39375e-23)
(0.0932579 0.000125089 -4.61646e-24)
(0.0930074 0.000131793 -4.75329e-24)
(0.0927441 0.000138969 -1.46418e-23)
(0.0924671 0.000146661 1.45373e-23)
(0.0921755 0.000154918 4.97616e-24)
(0.0918681 0.000163792 0)
(0.0915438 0.000173346 5.14334e-24)
(0.0912013 0.000183645 -5.23323e-24)
(0.0908392 0.000194767 4.30642e-23)
(0.090456 0.000206798 -9.23053e-23)
(0.09005 0.000219832 4.93444e-23)
(0.0896192 0.000233981 4.00045e-23)
(0.0941563 0.000306643 -4.49919e-24)
(0.0939497 0.000322094 -9.17955e-24)
(0.0937332 0.000338566 -4.81517e-24)
(0.0935061 0.000356142 4.48092e-24)
(0.0932679 0.000374914 -4.6816e-24)
(0.0930177 0.000394984 3.3562e-23)
(0.0927548 0.000416471 -5.27095e-23)
(0.0924782 0.000439504 4.89722e-24)
(0.092187 0.000464227 6.53892e-23)
(0.0918802 0.000490803 -9.0309e-23)
(0.0915565 0.000519413 -8.82311e-23)
(0.0912147 0.000550261 7.77463e-23)
(0.0908534 0.000583573 0)
(0.090471 0.000619608 5.43242e-24)
(0.0900659 0.000658655 -1.66056e-23)
(0.0896362 0.000701041 -1.88382e-22)
(0.0941744 0.000510002 -2.66105e-23)
(0.0939681 0.000535659 -9.34534e-24)
(0.0937521 0.000563005 3.60282e-23)
(0.0935255 0.000592183 -7.41481e-23)
(0.0932879 0.000623346 1.58682e-22)
(0.0930384 0.000656667 -7.51798e-23)
(0.0927762 0.000692342 1.41824e-26)
(0.0925005 0.000730587 9.76707e-24)
(0.0922102 0.000771644 1.70367e-22)
(0.0919045 0.000815783 -1.60259e-22)
(0.091582 0.000863307 0)
(0.0912416 0.000914553 1.45688e-26)
(0.0908818 0.000969902 0)
(0.0905012 0.00102978 1.86618e-22)
(0.0900981 0.00109467 -1.64496e-22)
(0.0896706 0.00116512 -3.54778e-22)
(0.0942015 0.000711667 1.75313e-23)
(0.0939957 0.000747376 -8.89889e-24)
(0.0937803 0.000785426 1.95056e-26)
(0.0935546 0.000826019 9.16129e-24)
(0.0933178 0.000869372 -1.96062e-26)
(0.0930694 0.000915732 1.52291e-22)
(0.0928084 0.000965371 -2.8781e-22)
(0.092534 0.00101859 1.547e-22)
(0.0922454 0.00107574 -9.90749e-24)
(0.0919413 0.00113718 1.83187e-22)
(0.0916208 0.00120335 -1.62946e-22)
(0.0912826 0.00127472 -3.38323e-22)
(0.0909253 0.00135181 6.83204e-22)
(0.0905474 0.00143522 -6.96829e-22)
(0.0901473 0.00152563 7.11109e-22)
(0.0897233 0.0016238 -7.14824e-22)
(0.0942373 0.000910992 -8.69502e-24)
(0.0940324 0.000956529 -3.55331e-23)
(0.0938179 0.00100504 1.0774e-22)
(0.0935933 0.00105678 -1.45512e-22)
(0.0933578 0.00111204 6.40955e-23)
(0.0931109 0.00117115 9.40364e-24)
(0.0928516 0.00123445 -9.56353e-24)
(0.0925793 0.00130233 -2.46142e-26)
(0.0922928 0.00137523 9.90559e-24)
(0.0919912 0.00145363 -2.01528e-23)
(0.0916735 0.00153807 -3.31755e-22)
(0.0913384 0.00162916 3.42386e-22)
(0.0909845 0.00172757 -3.34592e-22)
(0.0906106 0.00183407 3.45391e-22)
(0.0902149 0.00194953 0)
(0.0897957 0.00207491 -2.47878e-26)
(0.0942818 0.00110735 -4.31488e-23)
(0.0940779 0.00116248 2.59556e-23)
(0.0938647 0.00122122 8.88515e-24)
(0.0936417 0.00128389 1.36448e-22)
(0.0934081 0.00135086 -1.36497e-22)
(0.0931633 0.00142251 1.41296e-22)
(0.0929064 0.00149927 -3.13685e-22)
(0.0926367 0.00158162 4.46736e-22)
(0.0923533 0.00167008 -3.12947e-22)
(0.0920551 0.00176526 -3.24819e-22)
(0.0917411 0.00186781 -1.63956e-23)
(0.0914102 0.00197846 6.59885e-22)
(0.091061 0.00209804 -6.95269e-22)
(0.0906923 0.00222749 3.24326e-22)
(0.0903024 0.00236786 3.50195e-22)
(0.0898898 0.00252033 3.66273e-22)
(0.0943347 0.00129991 8.49681e-24)
(0.0941324 0.00136408 7.83071e-23)
(0.0939212 0.00143255 -6.98343e-23)
(0.0937004 0.00150568 8.96889e-24)
(0.0934694 0.00158387 1.37923e-22)
(0.0932274 0.0016676 -1.38139e-22)
(0.0929738 0.00175737 -2.96122e-22)
(0.0927078 0.00185374 4.34472e-24)
(0.0924283 0.00195734 -5.59387e-24)
(0.0921346 0.00206886 3.29062e-22)
(0.0918256 0.00218909 -3.21593e-22)
(0.0915003 0.0023189 6.82504e-22)
(0.0911573 0.00245928 -3.40122e-22)
(0.0907955 0.00261133 1.09985e-23)
(0.0904134 0.0027763 1.1258e-23)
(0.0900094 0.00295561 7.44955e-22)
(0.0943969 0.00149193 0)
(0.0941974 0.00156357 0)
(0.0939893 0.00164007 0)
(0.0937719 0.0017218 0)
(0.0935446 0.00180921 0)
(0.0933068 0.0019028 0)
(0.0930578 0.00200311 0)
(0.0927967 0.00211076 0)
(0.0925229 0.00222644 0)
(0.0922353 0.00235092 0)
(0.0919332 0.00248505 0)
(0.0916154 0.0026298 0)
(0.0912808 0.00278625 0)
(0.0909283 0.00295562 0)
(0.0905566 0.00313927 0)
(0.0901642 0.00333877 0)
(0.0944696 0.00168556 0)
(0.0942742 0.00176538 0)
(0.0940704 0.00185058 0)
(0.0938577 0.00194158 0)
(0.0936355 0.00203887 0)
(0.0934033 0.00214297 0)
(0.0931602 0.00225449 0)
(0.0929058 0.00237407 0)
(0.0926391 0.00250247 0)
(0.0923595 0.00264051 0)
(0.0920661 0.0027891 0)
(0.0917579 0.00294928 0)
(0.0914339 0.0031222 0)
(0.0910932 0.00330916 0)
(0.0907345 0.00351161 0)
(0.0903567 0.00373121 0)
(0.0945508 0.00187475 0)
(0.0943603 0.00196264 0)
(0.0941618 0.00205638 0)
(0.0939547 0.00215644 0)
(0.0937386 0.00226334 0)
(0.0935128 0.00237766 0)
(0.0932769 0.00250002 0)
(0.0930302 0.00263114 0)
(0.092772 0.00277181 0)
(0.0925016 0.0029229 0)
(0.0922182 0.00308538 0)
(0.0919211 0.00326035 0)
(0.0916094 0.00344903 0)
(0.0912821 0.00365277 0)
(0.0909383 0.0038731 0)
(0.0905769 0.00411173 0)
(0.0946399 0.00205876 0)
(0.0944551 0.00215439 0)
(0.0942625 0.00225628 0)
(0.0940618 0.00236495 0)
(0.0938525 0.00248095 0)
(0.0936342 0.00260489 0)
(0.0934063 0.00273745 0)
(0.0931682 0.00287938 0)
(0.0929195 0.0030315 0)
(0.0926594 0.00319474 0)
(0.0923873 0.0033701 0)
(0.0921026 0.00355874 0)
(0.0918044 0.0037619 0)
(0.091492 0.00398101 0)
(0.0911646 0.00421764 0)
(0.0908214 0.00447355 0)
(0.0947365 0.00223711 0)
(0.0945577 0.00234006 0)
(0.0943717 0.00244966 0)
(0.094178 0.00256644 0)
(0.0939763 0.00269098 0)
(0.093766 0.00282394 0)
(0.0935469 0.00296602 0)
(0.0933184 0.00311798 0)
(0.09308 0.0032807 0)
(0.0928311 0.00345512 0)
(0.0925713 0.0036423 0)
(0.0923 0.00384339 0)
(0.0920164 0.00405971 0)
(0.0917201 0.00429268 0)
(0.0914104 0.00454392 0)
(0.0910866 0.00481521 0)
(0.0948401 0.00240937 0)
(0.0946678 0.0025192 0)
(0.0944888 0.00263601 0)
(0.0943026 0.00276038 0)
(0.0941089 0.00289289 0)
(0.0939074 0.00303422 0)
(0.0936977 0.00318508 0)
(0.0934794 0.00334629 0)
(0.093252 0.00351872 0)
(0.0930152 0.00370335 0)
(0.0927684 0.00390123 0)
(0.0925113 0.00411357 0)
(0.0922433 0.00434167 0)
(0.091964 0.00458699 0)
(0.0916728 0.00485114 0)
(0.0913694 0.0051359 0)
(0.0949502 0.00257518 0)
(0.0947848 0.0026914 0)
(0.0946131 0.00281491 0)
(0.0944348 0.00294629 0)
(0.0942497 0.00308615 0)
(0.0940574 0.00323516 0)
(0.0938576 0.00339406 0)
(0.09365 0.00356368 0)
(0.0934342 0.0037449 0)
(0.09321 0.00393871 0)
(0.0929769 0.00414618 0)
(0.0927347 0.00436851 0)
(0.0924829 0.004607 0)
(0.0922212 0.00486312 0)
(0.0919494 0.00513845 0)
(0.0916671 0.00543478 0)
(0.0950663 0.00273422 0)
(0.094908 0.00285633 0)
(0.094744 0.002986 0)
(0.094574 0.00312379 0)
(0.0943977 0.00327033 0)
(0.094215 0.00342632 0)
(0.0940255 0.00359248 0)
(0.0938291 0.00376965 0)
(0.0936254 0.00395872 0)
(0.0934142 0.00416066 0)
(0.0931953 0.00437657 0)
(0.0929684 0.00460762 0)
(0.0927333 0.00485511 0)
(0.0924898 0.00512047 0)
(0.0922377 0.00540527 0)
(0.091977 0.00571124 0)
(0.0951879 0.00288624 0)
(0.095037 0.00301372 0)
(0.0948809 0.00314897 0)
(0.0947194 0.00329256 0)
(0.0945523 0.00344513 0)
(0.0943795 0.00360735 0)
(0.0942006 0.00377998 0)
(0.0940157 0.00396383 0)
(0.0938243 0.00415979 0)
(0.0936265 0.00436883 0)
(0.0934221 0.00459202 0)
(0.0932108 0.00483052 0)
(0.0929927 0.0050856 0)
(0.0927677 0.00535867 0)
(0.0925356 0.00565124 0)
(0.0922967 0.00596499 0)
(0.0953145 0.00303101 0)
(0.0951712 0.00316334 0)
(0.0950232 0.0033036 0)
(0.0948705 0.00345237 0)
(0.0947127 0.00361029 0)
(0.09455 0.00377802 0)
(0.094382 0.00395631 0)
(0.0942087 0.00414596 0)
(0.0940299 0.00434786 0)
(0.0938457 0.00456295 0)
(0.0936559 0.00479228 0)
(0.0934605 0.00503698 0)
(0.0932595 0.00529829 0)
(0.093053 0.00557756 0)
(0.092841 0.00587625 0)
(0.0926239 0.00619598 0)
(0.0954455 0.00316837 0)
(0.09531 0.003305 0)
(0.0951703 0.0034497 0)
(0.0950264 0.00360304 0)
(0.0948782 0.00376563 0)
(0.0947256 0.00393813 0)
(0.0945686 0.00412129 0)
(0.0944071 0.00431588 0)
(0.0942411 0.00452277 0)
(0.0940705 0.00474289 0)
(0.0938954 0.00497723 0)
(0.0937159 0.00522691 0)
(0.093532 0.00549312 0)
(0.093344 0.00577714 0)
(0.0931521 0.00608037 0)
(0.0929565 0.00640433 0)
(0.0955805 0.00329817 0)
(0.0954528 0.0034386 0)
(0.0953215 0.00358717 0)
(0.0951866 0.00374444 0)
(0.095048 0.00391104 0)
(0.0949058 0.0040876 0)
(0.0947598 0.00427483 0)
(0.0946101 0.00447352 0)
(0.0944568 0.00468448 0)
(0.0942999 0.00490862 0)
(0.0941395 0.0051469 0)
(0.0939758 0.00540038 0)
(0.0938089 0.00567019 0)
(0.0936392 0.00595757 0)
(0.0934669 0.00626383 0)
(0.0932925 0.00659039 0)
(0.0957189 0.00342034 0)
(0.0955991 0.00356403 0)
(0.0954763 0.00371591 0)
(0.0953504 0.00387652 0)
(0.0952215 0.00404646 0)
(0.0950895 0.00422637 0)
(0.0949546 0.00441693 0)
(0.0948168 0.00461887 0)
(0.0946761 0.00483301 0)
(0.0945328 0.00506021 0)
(0.0943869 0.00530138 0)
(0.0942388 0.00555753 0)
(0.0940887 0.00582974 0)
(0.0939369 0.00611916 0)
(0.093784 0.00642702 0)
(0.0936303 0.00675465 0)
(0.0958603 0.00353481 0)
(0.0957484 0.00368126 0)
(0.0956341 0.0038359 0)
(0.0955172 0.00399926 0)
(0.0953979 0.00417191 0)
(0.0952762 0.00435448 0)
(0.0951523 0.00454761 0)
(0.0950262 0.00475203 0)
(0.0948981 0.00496849 0)
(0.0947681 0.00519782 0)
(0.0946366 0.00544088 0)
(0.0945038 0.00569864 0)
(0.0943701 0.00597209 0)
(0.0942359 0.00626231 0)
(0.0941018 0.00657044 0)
(0.0939683 0.00689772 0)
(0.0960042 0.00364158 0)
(0.0959002 0.00379029 0)
(0.0957943 0.00394715 0)
(0.0956864 0.00411268 0)
(0.0955767 0.00428743 0)
(0.0954652 0.004472 0)
(0.0953521 0.004667 0)
(0.0952376 0.00487312 0)
(0.0951218 0.00509109 0)
(0.095005 0.00532167 0)
(0.0948875 0.0055657 0)
(0.0947697 0.00582405 0)
(0.094652 0.00609766 0)
(0.0945349 0.00638753 0)
(0.0944189 0.00669472 0)
(0.0943048 0.00702034 0)
(0.09615 0.00374066 0)
(0.096054 0.00389115 0)
(0.0959564 0.00404972 0)
(0.0958574 0.00421687 0)
(0.0957571 0.00439313 0)
(0.0956557 0.00457906 0)
(0.0955533 0.00477526 0)
(0.0954501 0.00498236 0)
(0.0953464 0.00520106 0)
(0.0952425 0.00543207 0)
(0.0951388 0.00567618 0)
(0.0950355 0.00593418 0)
(0.0949333 0.00620696 0)
(0.0948326 0.00649543 0)
(0.0947342 0.00680055 0)
(0.0946387 0.00712332 0)
(0.0962974 0.00383211 0)
(0.0962092 0.00398391 0)
(0.0961199 0.0041437 0)
(0.0960297 0.00431194 0)
(0.0959387 0.00448915 0)
(0.0958472 0.00467584 0)
(0.0957552 0.00487259 0)
(0.0956632 0.00508 0)
(0.0955713 0.0052987 0)
(0.0954799 0.00552938 0)
(0.0953894 0.00577274 0)
(0.0953002 0.00602954 0)
(0.0952129 0.00630057 0)
(0.0951281 0.00658667 0)
(0.0950464 0.0068887 0)
(0.0949687 0.00720756 0)
(0.0964459 0.00391601 0)
(0.0963654 0.00406868 0)
(0.0962842 0.00422921 0)
(0.0962027 0.00439804 0)
(0.0961208 0.00457566 0)
(0.0960389 0.00476255 0)
(0.0959572 0.00495925 0)
(0.095876 0.00516633 0)
(0.0957956 0.00538436 0)
(0.0957163 0.00561399 0)
(0.0956386 0.00585585 0)
(0.095563 0.00611065 0)
(0.0954901 0.0063791 0)
(0.0954204 0.00666196 0)
(0.0953547 0.00695999 0)
(0.0952938 0.00727399 0)
(0.0965951 0.00399245 0)
(0.0965221 0.00414558 0)
(0.096449 0.0043064 0)
(0.0963759 0.00447536 0)
(0.096303 0.00465288 0)
(0.0962305 0.00483944 0)
(0.0961587 0.00503554 0)
(0.096088 0.00524168 0)
(0.0960186 0.00545843 0)
(0.0959511 0.00568634 0)
(0.0958857 0.00592603 0)
(0.0958231 0.00617811 0)
(0.0957639 0.00644323 0)
(0.0957086 0.00672206 0)
(0.0956581 0.00701528 0)
(0.0956132 0.0073236 0)
(0.0967446 0.00406159 0)
(0.0966791 0.00421476 0)
(0.0966138 0.00437546 0)
(0.0965489 0.00454409 0)
(0.0964846 0.00472106 0)
(0.0964213 0.0049068 0)
(0.0963592 0.00510176 0)
(0.0962986 0.00530643 0)
(0.0962399 0.00552131 0)
(0.0961836 0.00574692 0)
(0.09613 0.0059838 0)
(0.0960799 0.00623251 0)
(0.0960336 0.00649363 0)
(0.0959921 0.00676775 0)
(0.0959559 0.00705546 0)
(0.095926 0.00735736 0)
(0.096894 0.00412356 0)
(0.0968357 0.00427642 0)
(0.096778 0.0044366 0)
(0.0967212 0.00460449 0)
(0.0966653 0.00478046 0)
(0.0966109 0.00496491 0)
(0.096558 0.00515827 0)
(0.0965072 0.00536097 0)
(0.0964588 0.00557347 0)
(0.0964132 0.00579623 0)
(0.0963709 0.00602974 0)
(0.0963326 0.00627451 0)
(0.0962987 0.00653103 0)
(0.0962701 0.00679983 0)
(0.0962474 0.00708142 0)
(0.0962315 0.0073763 0)
(0.097043 0.00417855 0)
(0.0969918 0.00433073 0)
(0.0969415 0.00449003 0)
(0.0968924 0.00465679 0)
(0.0968447 0.00483137 0)
(0.0967987 0.00501412 0)
(0.0967549 0.00520543 0)
(0.0967134 0.00540571 0)
(0.0966748 0.00561535 0)
(0.0966394 0.00583478 0)
(0.0966079 0.00606444 0)
(0.0965807 0.00630475 0)
(0.0965585 0.00655616 0)
(0.096542 0.00681912 0)
(0.096532 0.00709406 0)
(0.0965292 0.0073814 0)
(0.0971912 0.00422675 0)
(0.0971469 0.00437793 0)
(0.0971037 0.00453601 0)
(0.0970621 0.00470129 0)
(0.0970223 0.00487409 0)
(0.0969845 0.00505476 0)
(0.0969492 0.00524364 0)
(0.0969167 0.00544108 0)
(0.0968874 0.00564745 0)
(0.0968618 0.00586312 0)
(0.0968405 0.00608847 0)
(0.0968238 0.00632389 0)
(0.0968126 0.00656974 0)
(0.0968075 0.00682642 0)
(0.0968092 0.00709428 0)
(0.0968186 0.00737365 0)
(0.0973384 0.00426835 0)
(0.0973007 0.00441824 0)
(0.0972645 0.00457477 0)
(0.0972301 0.00473825 0)
(0.0971978 0.00490896 0)
(0.0971679 0.0050872 0)
(0.0971408 0.00527328 0)
(0.0971168 0.00546752 0)
(0.0970964 0.00567024 0)
(0.09708 0.00588178 0)
(0.0970682 0.00610245 0)
(0.0970615 0.00633259 0)
(0.0970606 0.00657251 0)
(0.0970661 0.00682254 0)
(0.0970788 0.00708295 0)
(0.0970994 0.00735403 0)
(0.0974843 0.00430358 0)
(0.0974529 0.00445189 0)
(0.0974234 0.00460661 0)
(0.0973959 0.00476799 0)
(0.0973708 0.00493629 0)
(0.0973485 0.00511179 0)
(0.0973291 0.00529476 0)
(0.0973133 0.00548548 0)
(0.0973013 0.00568423 0)
(0.0972936 0.0058913 0)
(0.0972908 0.00610697 0)
(0.0972934 0.00633151 0)
(0.0973021 0.00656519 0)
(0.0973175 0.00680826 0)
(0.0973403 0.00706095 0)
(0.0973713 0.00732347 0)
(0.0976285 0.00433266 0)
(0.0976033 0.00447915 0)
(0.0975802 0.00463178 0)
(0.0975594 0.0047908 0)
(0.0975412 0.00495643 0)
(0.0975259 0.00512891 0)
(0.097514 0.00530849 0)
(0.0975058 0.0054954 0)
(0.0975018 0.00568991 0)
(0.0975023 0.00589223 0)
(0.097508 0.00610262 0)
(0.0975193 0.0063213 0)
(0.0975369 0.00654848 0)
(0.0975614 0.00678436 0)
(0.0975936 0.00702912 0)
(0.0976341 0.00728288 0)
(0.097771 0.00435582 0)
(0.0977517 0.00450026 0)
(0.0977346 0.00465059 0)
(0.0977202 0.004807 0)
(0.0977085 0.00496972 0)
(0.0977001 0.00513894 0)
(0.0976952 0.00531488 0)
(0.0976942 0.00549775 0)
(0.0976976 0.00568776 0)
(0.0977059 0.00588511 0)
(0.0977194 0.00608999 0)
(0.0977388 0.00630259 0)
(0.0977647 0.00652308 0)
(0.0977977 0.00675159 0)
(0.0978384 0.00698825 0)
(0.0978877 0.00723315 0)
(0.0979114 0.00437331 0)
(0.0978977 0.0045155 0)
(0.0978865 0.00466331 0)
(0.0978781 0.00481691 0)
(0.0978727 0.0049765 0)
(0.0978707 0.00514225 0)
(0.0978724 0.00531435 0)
(0.0978783 0.00549297 0)
(0.0978887 0.00567829 0)
(0.0979041 0.00587047 0)
(0.097925 0.00606966 0)
(0.0979519 0.00627602 0)
(0.0979854 0.00648966 0)
(0.0980262 0.00671068 0)
(0.0980747 0.00693915 0)
(0.0981319 0.0071751 0)
(0.0980496 0.00438538 0)
(0.0980413 0.00452513 0)
(0.0980357 0.00467023 0)
(0.098033 0.00482085 0)
(0.0980335 0.00497713 0)
(0.0980376 0.00513923 0)
(0.0980455 0.0053073 0)
(0.0980578 0.0054815 0)
(0.0980747 0.00566196 0)
(0.0980968 0.00584882 0)
(0.0981246 0.00604218 0)
(0.0981584 0.00624217 0)
(0.098199 0.00644886 0)
(0.0982468 0.00666231 0)
(0.0983025 0.00688254 0)
(0.0983668 0.00710955 0)
(0.0981854 0.00439225 0)
(0.0981823 0.00452941 0)
(0.0981819 0.00467165 0)
(0.0981846 0.00481911 0)
(0.0981907 0.00497193 0)
(0.0982005 0.00513023 0)
(0.0982143 0.00529413 0)
(0.0982326 0.00546377 0)
(0.0982556 0.00563924 0)
(0.0982839 0.00582066 0)
(0.098318 0.0060081 0)
(0.0983582 0.00620163 0)
(0.0984052 0.00640131 0)
(0.0984594 0.00660715 0)
(0.0985216 0.00681915 0)
(0.0985924 0.00703724 0)
(0.0999997 6.5719e-06 0)
(0.0999951 1.95398e-05 0)
(0.0999853 3.23268e-05 0)
(0.0999712 4.49898e-05 0)
(0.0999529 5.75973e-05 0)
(0.0999304 7.01915e-05 0)
(0.0999041 8.28136e-05 0)
(0.0998741 9.55821e-05 0)
(0.0998404 0.000108801 0)
(0.099803 0.000123029 0)
(0.0997616 0.000139045 0)
(0.0997159 0.000157668 0)
(0.0996651 0.000179502 0)
(0.0996084 0.000204694 0)
(0.0995453 0.000232809 0)
(0.0994752 0.00026286 0)
(0.099398 0.000293495 0)
(0.099314 0.000323262 0)
(0.0992238 0.000350877 0)
(0.0991283 0.000375427 0)
(0.0990286 0.000396474 0)
(0.0989256 0.00041405 0)
(0.0988205 0.000428582 0)
(0.098714 0.000440761 0)
(0.0986066 0.00045141 0)
(0.0984988 0.000461365 0)
(0.0983908 0.000471388 0)
(0.0982824 0.00048211 0)
(0.0981737 0.000494017 0)
(0.0980645 0.000507445 0)
(0.0979545 0.000522606 0)
(0.0978433 0.000539608 0)
(0.0977309 0.000558487 0)
(0.0976169 0.000579232 0)
(0.097501 0.000601802 0)
(0.0973831 0.00062615 0)
(0.0972629 0.000652228 0)
(0.0971404 0.000679996 0)
(0.0970152 0.000709426 0)
(0.0968874 0.000740504 0)
(0.0967568 0.000773229 0)
(0.0966233 0.000807613 0)
(0.0964867 0.000843678 0)
(0.096347 0.000881458 0)
(0.0962042 0.000920992 0)
(0.096058 0.000962329 0)
(0.0959086 0.00100552 0)
(0.0957556 0.00105063 0)
(0.0955993 0.00109772 0)
(0.0954393 0.00114685 0)
(0.0952758 0.00119809 0)
(0.0951085 0.00125154 0)
(0.0949376 0.00130727 0)
(0.0947629 0.00136543 0)
(0.0945845 0.00142623 0)
(0.0999997 7.47074e-06 0)
(0.0999951 2.2219e-05 0)
(0.0999854 3.6756e-05 0)
(0.0999714 5.11538e-05 0)
(0.0999531 6.54879e-05 0)
(0.0999309 7.98066e-05 0)
(0.0999047 9.41568e-05 0)
(0.0998748 0.000108671 0)
(0.0998413 0.00012369 0)
(0.0998042 0.000139842 0)
(0.0997631 0.000158001 0)
(0.0997178 0.000179092 0)
(0.0996674 0.000203803 0)
(0.0996114 0.00023231 0)
(0.099549 0.000264134 0)
(0.0994797 0.000298175 0)
(0.0994035 0.000332915 0)
(0.0993205 0.00036672 0)
(0.0992313 0.000398134 0)
(0.0991369 0.000426119 0)
(0.0990382 0.000450165 0)
(0.0989362 0.000470295 0)
(0.098832 0.000486973 0)
(0.0987262 0.000500969 0)
(0.0986196 0.000513203 0)
(0.0985125 0.000524616 0)
(0.098405 0.000536066 0)
(0.0982973 0.000548271 0)
(0.0981893 0.000561782 0)
(0.0980807 0.000576985 0)
(0.0979714 0.000594125 0)
(0.0978611 0.000613329 0)
(0.0977495 0.000634643 0)
(0.0976364 0.000658058 0)
(0.0975216 0.000683532 0)
(0.0974049 0.000711013 0)
(0.097286 0.000740447 0)
(0.0971648 0.00077179 0)
(0.0970412 0.000805009 0)
(0.096915 0.000840089 0)
(0.0967861 0.000877026 0)
(0.0966544 0.000915832 0)
(0.0965198 0.000956532 0)
(0.0963822 0.000999159 0)
(0.0962416 0.00104376 0)
(0.0960979 0.00109038 0)
(0.0959509 0.00113909 0)
(0.0958007 0.00118993 0)
(0.0956471 0.00124299 0)
(0.0954902 0.00129834 0)
(0.0953299 0.00135604 0)
(0.095166 0.00141618 0)
(0.0949986 0.00147886 0)
(0.0948277 0.00154417 0)
(0.0946532 0.00161227 0)
(0.0999997 8.36424e-06 0)
(0.0999951 2.48815e-05 0)
(0.0999855 4.11573e-05 0)
(0.0999716 5.72785e-05 0)
(0.0999535 7.33279e-05 0)
(0.0999313 8.93596e-05 0)
(0.0999054 0.000105426 0)
(0.0998757 0.000121674 0)
(0.0998424 0.000138478 0)
(0.0998055 0.000156532 0)
(0.0997648 0.000176803 0)
(0.0997199 0.000200321 0)
(0.09967 0.000227854 0)
(0.0996146 0.000259611 0)
(0.099553 0.000295075 0)
(0.0994846 0.000333039 0)
(0.0994094 0.00037183 0)
(0.0993275 0.000409632 0)
(0.0992395 0.000444826 0)
(0.0991462 0.000476246 0)
(0.0990486 0.000503307 0)