/*--------------------------------*- C++ -*----------------------------------*\
| =========                 |                                                 |
| \\      /  F ield         | OpenFOAM: The Open Source CFD Toolbox           |
|  \\    /   O peration     | Version:  2412                                  |
|   \\  /    A nd           | Website:  www.openfoam.com                      |
|    \\/     M anipulation  |                                                 |
\*---------------------------------------------------------------------------*/
FoamFile
{
    version     2.0;
    format      ascii;
    arch        "LSB;label=32;scalar=64";
    class       volVectorField;
    location    "3";
    object      vorticity;
}
// * * * * * * * * * * * * * * * * * * * * * * * * * * * * * * * * * * * * * //

dimensions      [0 0 -1 0 0 0 0];

internalField   nonuniform List<vector> 
5285
(
(0 -0 -6.80647e-05)
(0 -0 -6.80677e-05)
(0 -0 -6.79906e-05)
(0 -0 -6.78434e-05)
(0 -0 -6.76596e-05)
(0 -0 -6.74572e-05)
(0 -0 -6.72408e-05)
(0 -0 -6.70116e-05)
(0 -0 -6.67679e-05)
(0 -0 -6.65081e-05)
(0 -0 -6.62316e-05)
(0 -0 -6.59399e-05)
(0 -0 -6.56344e-05)
(0 -0 -6.53192e-05)
(0 -0 -6.49957e-05)
(0 -0 -6.4665e-05)
(0 -0 -6.43252e-05)
(0 -0 -6.39765e-05)
(0 -0 -6.36211e-05)
(0 -0 -6.32615e-05)
(0 -0 -6.28986e-05)
(0 -0 -6.25382e-05)
(0 -0 -6.21775e-05)
(0 -0 -6.18202e-05)
(0 -0 -6.14638e-05)
(0 -0 -6.11099e-05)
(0 -0 -6.07561e-05)
(0 -0 -6.04046e-05)
(0 -0 -6.00505e-05)
(0 -0 -5.97005e-05)
(0 -0 -5.9357e-05)
(0 -0 -5.90231e-05)
(0 -0 -5.86929e-05)
(0 -0 -5.83726e-05)
(0 -0 -5.80536e-05)
(0 -0 -5.77389e-05)
(0 -0 -5.74314e-05)
(0 -0 -5.71254e-05)
(0 -0 -5.68261e-05)
(0 -0 -5.65258e-05)
(0 -0 -5.62437e-05)
(0 -0 -5.59525e-05)
(0 -0 -5.56878e-05)
(0 -0 -5.54143e-05)
(0 -0 -5.51556e-05)
(0 -0 -5.49073e-05)
(0 -0 -5.46481e-05)
(0 -0 -5.44079e-05)
(0 -0 -5.41698e-05)
(0 -0 -5.3924e-05)
(0 -0 -5.36973e-05)
(0 -0 -5.34633e-05)
(0 -0 -5.32206e-05)
(0 -0 -5.29832e-05)
(0 -0 -5.27402e-05)
(0 -0 -5.24904e-05)
(0 -0 -5.22359e-05)
(0 -0 -5.19662e-05)
(0 -0 -5.16835e-05)
(0 -0 -5.14055e-05)
(0 -0 -5.10789e-05)
(0 -0 -5.07388e-05)
(0 -0 -5.03099e-05)
(0 -0 -4.99432e-05)
(0 -0 -4.92509e-05)
(0 -0 -4.90344e-05)
(0 -0 -4.71856e-05)
(0 -0 -4.98282e-05)
(0 -0 -3.92591e-05)
(0 -0 -6.66512e-05)
(0 -0 0.000297535)
(0 -0 -6.48571e-05)
(0 -0 -6.48166e-05)
(0 -0 -6.47207e-05)
(0 -0 -6.45763e-05)
(0 -0 -6.441e-05)
(0 -0 -6.42358e-05)
(0 -0 -6.40578e-05)
(0 -0 -6.38768e-05)
(0 -0 -6.36909e-05)
(0 -0 -6.34988e-05)
(0 -0 -6.32989e-05)
(0 -0 -6.30908e-05)
(0 -0 -6.28757e-05)
(0 -0 -6.26576e-05)
(0 -0 -6.2438e-05)
(0 -0 -6.22172e-05)
(0 -0 -6.19941e-05)
(0 -0 -6.17695e-05)
(0 -0 -6.15417e-05)
(0 -0 -6.13136e-05)
(0 -0 -6.10869e-05)
(0 -0 -6.08656e-05)
(0 -0 -6.06416e-05)
(0 -0 -6.04227e-05)
(0 -0 -6.02055e-05)
(0 -0 -5.99909e-05)
(0 -0 -5.97796e-05)
(0 -0 -5.95714e-05)
(0 -0 -5.93613e-05)
(0 -0 -5.91544e-05)
(0 -0 -5.89597e-05)
(0 -0 -5.87705e-05)
(0 -0 -5.85864e-05)
(0 -0 -5.84088e-05)
(0 -0 -5.82281e-05)
(0 -0 -5.80529e-05)
(0 -0 -5.78865e-05)
(0 -0 -5.7723e-05)
(0 -0 -5.75639e-05)
(0 -0 -5.74033e-05)
(0 -0 -5.72557e-05)
(0 -0 -5.70965e-05)
(0 -0 -5.69565e-05)
(0 -0 -5.68067e-05)
(0 -0 -5.6671e-05)
(0 -0 -5.65432e-05)
(0 -0 -5.64125e-05)
(0 -0 -5.62919e-05)
(0 -0 -5.61725e-05)
(0 -0 -5.60462e-05)
(0 -0 -5.59334e-05)
(0 -0 -5.58252e-05)
(0 -0 -5.57131e-05)
(0 -0 -5.56046e-05)
(0 -0 -5.54932e-05)
(0 -0 -5.53756e-05)
(0 -0 -5.52599e-05)
(0 -0 -5.51424e-05)
(0 -0 -5.50178e-05)
(0 -0 -5.49029e-05)
(0 -0 -5.47574e-05)
(0 -0 -5.46179e-05)
(0 -0 -5.44262e-05)
(0 -0 -5.43163e-05)
(0 -0 -5.39506e-05)
(0 -0 -5.40624e-05)
(0 -0 -5.30104e-05)
(0 -0 -5.50619e-05)
(0 -0 -4.21227e-05)
(0 -0 -0.000136543)
(0 -0 0.000386877)
(0 -0 -5.07677e-05)
(0 -0 -5.07261e-05)
(0 -0 -5.06431e-05)
(0 -0 -5.05252e-05)
(0 -0 -5.03947e-05)
(0 -0 -5.02637e-05)
(0 -0 -5.01355e-05)
(0 -0 -5.00101e-05)
(0 -0 -4.98859e-05)
(0 -0 -4.97614e-05)
(0 -0 -4.96349e-05)
(0 -0 -4.95041e-05)
(0 -0 -4.93714e-05)
(0 -0 -4.92393e-05)
(0 -0 -4.91098e-05)
(0 -0 -4.8982e-05)
(0 -0 -4.88562e-05)
(0 -0 -4.87336e-05)
(0 -0 -4.86096e-05)
(0 -0 -4.84878e-05)
(0 -0 -4.83701e-05)
(0 -0 -4.82589e-05)
(0 -0 -4.81435e-05)
(0 -0 -4.80334e-05)
(0 -0 -4.79259e-05)
(0 -0 -4.78192e-05)
(0 -0 -4.77183e-05)
(0 -0 -4.76195e-05)
(0 -0 -4.75204e-05)
(0 -0 -4.74229e-05)
(0 -0 -4.73414e-05)
(0 -0 -4.72608e-05)
(0 -0 -4.71865e-05)
(0 -0 -4.71144e-05)
(0 -0 -4.70368e-05)
(0 -0 -4.69644e-05)
(0 -0 -4.6901e-05)
(0 -0 -4.68411e-05)
(0 -0 -4.67837e-05)
(0 -0 -4.67251e-05)
(0 -0 -4.66746e-05)
(0 -0 -4.6613e-05)
(0 -0 -4.65618e-05)
(0 -0 -4.65023e-05)
(0 -0 -4.64543e-05)
(0 -0 -4.64109e-05)
(0 -0 -4.63731e-05)
(0 -0 -4.63366e-05)
(0 -0 -4.62995e-05)
(0 -0 -4.62592e-05)
(0 -0 -4.62248e-05)
(0 -0 -4.62022e-05)
(0 -0 -4.61808e-05)
(0 -0 -4.61598e-05)
(0 -0 -4.61372e-05)
(0 -0 -4.61086e-05)
(0 -0 -4.60872e-05)
(0 -0 -4.6074e-05)
(0 -0 -4.6056e-05)
(0 -0 -4.60473e-05)
(0 -0 -4.60238e-05)
(0 -0 -4.60193e-05)
(0 -0 -4.59863e-05)
(0 -0 -4.60462e-05)
(0 -0 -4.58958e-05)
(0 -0 -4.6216e-05)
(0 -0 -4.56804e-05)
(0 -0 -4.73566e-05)
(0 -0 -3.35713e-05)
(0 -0 -0.000162151)
(0 -0 0.000431877)
(0 -0 -3.17942e-05)
(0 -0 -3.17816e-05)
(0 -0 -3.1734e-05)
(0 -0 -3.16578e-05)
(0 -0 -3.15737e-05)
(0 -0 -3.14925e-05)
(0 -0 -3.14169e-05)
(0 -0 -3.13459e-05)
(0 -0 -3.12785e-05)
(0 -0 -3.12126e-05)
(0 -0 -3.11472e-05)
(0 -0 -3.10793e-05)
(0 -0 -3.10121e-05)
(0 -0 -3.09468e-05)
(0 -0 -3.08851e-05)
(0 -0 -3.08258e-05)
(0 -0 -3.07702e-05)
(0 -0 -3.072e-05)
(0 -0 -3.06683e-05)
(0 -0 -3.06201e-05)
(0 -0 -3.05767e-05)
(0 -0 -3.05394e-05)
(0 -0 -3.04971e-05)
(0 -0 -3.0459e-05)
(0 -0 -3.04242e-05)
(0 -0 -3.0388e-05)
(0 -0 -3.0359e-05)
(0 -0 -3.03304e-05)
(0 -0 -3.03038e-05)
(0 -0 -3.02767e-05)
(0 -0 -3.02668e-05)
(0 -0 -3.02539e-05)
(0 -0 -3.02476e-05)
(0 -0 -3.02396e-05)
(0 -0 -3.0226e-05)
(0 -0 -3.02161e-05)
(0 -0 -3.02141e-05)
(0 -0 -3.02161e-05)
(0 -0 -3.02192e-05)
(0 -0 -3.02219e-05)
(0 -0 -3.02287e-05)
(0 -0 -3.02267e-05)
(0 -0 -3.0227e-05)
(0 -0 -3.02221e-05)
(0 -0 -3.02247e-05)
(0 -0 -3.02292e-05)
(0 -0 -3.02458e-05)
(0 -0 -3.02571e-05)
(0 -0 -3.02662e-05)
(0 -0 -3.0276e-05)
(0 -0 -3.02848e-05)
(0 -0 -3.03081e-05)
(0 -0 -3.03364e-05)
(0 -0 -3.03616e-05)
(0 -0 -3.03862e-05)
(0 -0 -3.04048e-05)
(0 -0 -3.0433e-05)
(0 -0 -3.04753e-05)
(0 -0 -3.0513e-05)
(0 -0 -3.05561e-05)
(0 -0 -3.05957e-05)
(0 -0 -3.06598e-05)
(0 -0 -3.07084e-05)
(0 -0 -3.08507e-05)
(0 -0 -3.08101e-05)
(0 -0 -3.12207e-05)
(0 -0 -3.09461e-05)
(0 -0 -3.24038e-05)
(0 -0 -1.89447e-05)
(0 -0 -0.000155236)
(0 -0 0.000439245)
(0 -0 -1.4425e-05)
(0 -0 -1.44511e-05)
(0 -0 -1.44433e-05)
(0 -0 -1.44099e-05)
(0 -0 -1.43701e-05)
(0 -0 -1.43336e-05)
(0 -0 -1.43025e-05)
(0 -0 -1.42748e-05)
(0 -0 -1.42504e-05)
(0 -0 -1.42264e-05)
(0 -0 -1.42032e-05)
(0 -0 -1.41778e-05)
(0 -0 -1.41542e-05)
(0 -0 -1.41321e-05)
(0 -0 -1.41128e-05)
(0 -0 -1.4095e-05)
(0 -0 -1.40811e-05)
(0 -0 -1.40728e-05)
(0 -0 -1.40621e-05)
(0 -0 -1.40554e-05)
(0 -0 -1.40524e-05)
(0 -0 -1.40542e-05)
(0 -0 -1.40511e-05)
(0 -0 -1.40508e-05)
(0 -0 -1.40536e-05)
(0 -0 -1.40536e-05)
(0 -0 -1.40611e-05)
(0 -0 -1.4068e-05)
(0 -0 -1.40788e-05)
(0 -0 -1.40874e-05)
(0 -0 -1.41117e-05)
(0 -0 -1.41307e-05)
(0 -0 -1.41557e-05)
(0 -0 -1.41766e-05)
(0 -0 -1.41931e-05)
(0 -0 -1.42117e-05)
(0 -0 -1.42361e-05)
(0 -0 -1.42653e-05)
(0 -0 -1.42945e-05)
(0 -0 -1.43241e-05)
(0 -0 -1.43555e-05)
(0 -0 -1.43808e-05)
(0 -0 -1.44026e-05)
(0 -0 -1.44225e-05)
(0 -0 -1.44454e-05)
(0 -0 -1.44692e-05)
(0 -0 -1.4508e-05)
(0 -0 -1.4538e-05)
(0 -0 -1.45652e-05)
(0 -0 -1.45951e-05)
(0 -0 -1.46201e-05)
(0 -0 -1.46591e-05)
(0 -0 -1.47044e-05)
(0 -0 -1.47443e-05)
(0 -0 -1.47843e-05)
(0 -0 -1.48186e-05)
(0 -0 -1.48624e-05)
(0 -0 -1.4922e-05)
(0 -0 -1.49765e-05)
(0 -0 -1.50325e-05)
(0 -0 -1.50902e-05)
(0 -0 -1.51722e-05)
(0 -0 -1.52439e-05)
(0 -0 -1.54038e-05)
(0 -0 -1.53955e-05)
(0 -0 -1.58093e-05)
(0 -0 -1.56173e-05)
(0 -0 -1.69442e-05)
(0 -0 -4.50028e-06)
(0 -0 -0.000132225)
(0 -0 0.000420937)
(0 -0 -2.48947e-06)
(0 -0 -2.54748e-06)
(0 -0 -2.5713e-06)
(0 -0 -2.57103e-06)
(0 -0 -2.56466e-06)
(0 -0 -2.56021e-06)
(0 -0 -2.55943e-06)
(0 -0 -2.55946e-06)
(0 -0 -2.56063e-06)
(0 -0 -2.56007e-06)
(0 -0 -2.55934e-06)
(0 -0 -2.55653e-06)
(0 -0 -2.5556e-06)
(0 -0 -2.55521e-06)
(0 -0 -2.55574e-06)
(0 -0 -2.55692e-06)
(0 -0 -2.56125e-06)
(0 -0 -2.57017e-06)
(0 -0 -2.57586e-06)
(0 -0 -2.58568e-06)
(0 -0 -2.5975e-06)
(0 -0 -2.61222e-06)
(0 -0 -2.62284e-06)
(0 -0 -2.63498e-06)
(0 -0 -2.64969e-06)
(0 -0 -2.66116e-06)
(0 -0 -2.67986e-06)
(0 -0 -2.69756e-06)
(0 -0 -2.7204e-06)
(0 -0 -2.74016e-06)
(0 -0 -2.7725e-06)
(0 -0 -2.79886e-06)
(0 -0 -2.82994e-06)
(0 -0 -2.85624e-06)
(0 -0 -2.87963e-06)
(0 -0 -2.90406e-06)
(0 -0 -2.93215e-06)
(0 -0 -2.96574e-06)
(0 -0 -2.99838e-06)
(0 -0 -3.0324e-06)
(0 -0 -3.06702e-06)
(0 -0 -3.09757e-06)
(0 -0 -3.12193e-06)
(0 -0 -3.14705e-06)
(0 -0 -3.17123e-06)
(0 -0 -3.1967e-06)
(0 -0 -3.23697e-06)
(0 -0 -3.26723e-06)
(0 -0 -3.29544e-06)
(0 -0 -3.3265e-06)
(0 -0 -3.35157e-06)
(0 -0 -3.38819e-06)
(0 -0 -3.43052e-06)
(0 -0 -3.4667e-06)
(0 -0 -3.5035e-06)
(0 -0 -3.53566e-06)
(0 -0 -3.5751e-06)
(0 -0 -3.62917e-06)
(0 -0 -3.67795e-06)
(0 -0 -3.72578e-06)
(0 -0 -3.77605e-06)
(0 -0 -3.84716e-06)
(0 -0 -3.90861e-06)
(0 -0 -4.04958e-06)
(0 -0 -4.03272e-06)
(0 -0 -4.40023e-06)
(0 -0 -4.19917e-06)
(0 -0 -5.43362e-06)
(0 -0 5.74179e-06)
(0 -0 -0.000106555)
(0 -0 0.00038913)
(0 -0 3.49792e-06)
(0 -0 3.42083e-06)
(0 -0 3.37812e-06)
(0 -0 3.35809e-06)
(0 -0 3.3441e-06)
(0 -0 3.32988e-06)
(0 -0 3.3143e-06)
(0 -0 3.30094e-06)
(0 -0 3.28901e-06)
(0 -0 3.28105e-06)
(0 -0 3.27436e-06)
(0 -0 3.26946e-06)
(0 -0 3.263e-06)
(0 -0 3.25703e-06)
(0 -0 3.2519e-06)
(0 -0 3.24663e-06)
(0 -0 3.23927e-06)
(0 -0 3.22852e-06)
(0 -0 3.22138e-06)
(0 -0 3.21024e-06)
(0 -0 3.19893e-06)
(0 -0 3.18626e-06)
(0 -0 3.17673e-06)
(0 -0 3.16652e-06)
(0 -0 3.15431e-06)
(0 -0 3.14488e-06)
(0 -0 3.12892e-06)
(0 -0 3.11383e-06)
(0 -0 3.09324e-06)
(0 -0 3.0759e-06)
(0 -0 3.04946e-06)
(0 -0 3.02849e-06)
(0 -0 3.00429e-06)
(0 -0 2.98414e-06)
(0 -0 2.96577e-06)
(0 -0 2.94652e-06)
(0 -0 2.92551e-06)
(0 -0 2.89902e-06)
(0 -0 2.8738e-06)
(0 -0 2.84656e-06)
(0 -0 2.81913e-06)
(0 -0 2.79444e-06)
(0 -0 2.77616e-06)
(0 -0 2.75575e-06)
(0 -0 2.73859e-06)
(0 -0 2.71935e-06)
(0 -0 2.68758e-06)
(0 -0 2.66522e-06)
(0 -0 2.6437e-06)
(0 -0 2.62009e-06)
(0 -0 2.60168e-06)
(0 -0 2.57486e-06)
(0 -0 2.54393e-06)
(0 -0 2.51843e-06)
(0 -0 2.49207e-06)
(0 -0 2.46897e-06)
(0 -0 2.44165e-06)
(0 -0 2.40208e-06)
(0 -0 2.3678e-06)
(0 -0 2.33472e-06)
(0 -0 2.30128e-06)
(0 -0 2.25104e-06)
(0 -0 2.21209e-06)
(0 -0 2.10239e-06)
(0 -0 2.14116e-06)
(0 -0 1.83539e-06)
(0 -0 2.07334e-06)
(0 -0 9.20853e-07)
(0 -0 1.08501e-05)
(0 -0 -8.53973e-05)
(0 -0 0.000353155)
(0 -0 5.11776e-06)
(0 -0 5.03295e-06)
(0 -0 4.98209e-06)
(0 -0 4.95233e-06)
(0 -0 4.92833e-06)
(0 -0 4.90558e-06)
(0 -0 4.8837e-06)
(0 -0 4.86676e-06)
(0 -0 4.85357e-06)
(0 -0 4.84598e-06)
(0 -0 4.84046e-06)
(0 -0 4.83615e-06)
(0 -0 4.83074e-06)
(0 -0 4.82661e-06)
(0 -0 4.82463e-06)
(0 -0 4.82247e-06)
(0 -0 4.81937e-06)
(0 -0 4.81383e-06)
(0 -0 4.81174e-06)
(0 -0 4.80594e-06)
(0 -0 4.80144e-06)
(0 -0 4.79653e-06)
(0 -0 4.79388e-06)
(0 -0 4.79109e-06)
(0 -0 4.78658e-06)
(0 -0 4.78407e-06)
(0 -0 4.77594e-06)
(0 -0 4.76838e-06)
(0 -0 4.75561e-06)
(0 -0 4.74563e-06)
(0 -0 4.72955e-06)
(0 -0 4.71788e-06)
(0 -0 4.70436e-06)
(0 -0 4.69343e-06)
(0 -0 4.68375e-06)
(0 -0 4.67258e-06)
(0 -0 4.66111e-06)
(0 -0 4.64502e-06)
(0 -0 4.62996e-06)
(0 -0 4.61246e-06)
(0 -0 4.59492e-06)
(0 -0 4.57945e-06)
(0 -0 4.56908e-06)
(0 -0 4.55627e-06)
(0 -0 4.54747e-06)
(0 -0 4.53598e-06)
(0 -0 4.51497e-06)
(0 -0 4.50198e-06)
(0 -0 4.48858e-06)
(0 -0 4.47402e-06)
(0 -0 4.4631e-06)
(0 -0 4.44683e-06)
(0 -0 4.42803e-06)
(0 -0 4.41322e-06)
(0 -0 4.39774e-06)
(0 -0 4.38391e-06)
(0 -0 4.3688e-06)
(0 -0 4.34404e-06)
(0 -0 4.3244e-06)
(0 -0 4.30466e-06)
(0 -0 4.28751e-06)
(0 -0 4.25693e-06)
(0 -0 4.23981e-06)
(0 -0 4.1597e-06)
(0 -0 4.21774e-06)
(0 -0 3.9695e-06)
(0 -0 4.23762e-06)
(0 -0 3.16634e-06)
(0 -0 1.19983e-05)
(0 -0 -7.05019e-05)
(0 -0 0.00031863)
(0 -0 4.44483e-06)
(0 -0 4.35931e-06)
(0 -0 4.30682e-06)
(0 -0 4.27377e-06)
(0 -0 4.24593e-06)
(0 -0 4.22058e-06)
(0 -0 4.19804e-06)
(0 -0 4.1825e-06)
(0 -0 4.17239e-06)
(0 -0 4.16871e-06)
(0 -0 4.16747e-06)
(0 -0 4.16672e-06)
(0 -0 4.16541e-06)
(0 -0 4.16591e-06)
(0 -0 4.16937e-06)
(0 -0 4.17224e-06)
(0 -0 4.17525e-06)
(0 -0 4.17635e-06)
(0 -0 4.18044e-06)
(0 -0 4.1812e-06)
(0 -0 4.18412e-06)
(0 -0 4.18699e-06)
(0 -0 4.19159e-06)
(0 -0 4.19642e-06)
(0 -0 4.19945e-06)
(0 -0 4.20383e-06)
(0 -0 4.20368e-06)
(0 -0 4.20368e-06)
(0 -0 4.19911e-06)
(0 -0 4.19647e-06)
(0 -0 4.18989e-06)
(0 -0 4.18648e-06)
(0 -0 4.18254e-06)
(0 -0 4.17955e-06)
(0 -0 4.1778e-06)
(0 -0 4.17347e-06)
(0 -0 4.16994e-06)
(0 -0 4.16327e-06)
(0 -0 4.15688e-06)
(0 -0 4.14788e-06)
(0 -0 4.13898e-06)
(0 -0 4.13185e-06)
(0 -0 4.12794e-06)
(0 -0 4.12189e-06)
(0 -0 4.11968e-06)
(0 -0 4.1146e-06)
(0 -0 4.10268e-06)
(0 -0 4.09725e-06)
(0 -0 4.09044e-06)
(0 -0 4.08332e-06)
(0 -0 4.07816e-06)
(0 -0 4.0701e-06)
(0 -0 4.06068e-06)
(0 -0 4.05378e-06)
(0 -0 4.04667e-06)
(0 -0 4.03958e-06)
(0 -0 4.03368e-06)
(0 -0 4.02019e-06)
(0 -0 4.01169e-06)
(0 -0 4.00099e-06)
(0 -0 3.9958e-06)
(0 -0 3.9794e-06)
(0 -0 3.97813e-06)
(0 -0 3.92064e-06)
(0 -0 3.98969e-06)
(0 -0 3.78724e-06)
(0 -0 4.06767e-06)
(0 -0 3.07782e-06)
(0 -0 1.0986e-05)
(0 -0 -6.07192e-05)
(0 -0 0.000288026)
(0 -0 3.05582e-06)
(0 -0 2.97273e-06)
(0 -0 2.92157e-06)
(0 -0 2.88811e-06)
(0 -0 2.85918e-06)
(0 -0 2.83389e-06)
(0 -0 2.81309e-06)
(0 -0 2.80055e-06)
(0 -0 2.79444e-06)
(0 -0 2.79483e-06)
(0 -0 2.79765e-06)
(0 -0 2.80035e-06)
(0 -0 2.80314e-06)
(0 -0 2.80806e-06)
(0 -0 2.81645e-06)
(0 -0 2.82362e-06)
(0 -0 2.83175e-06)
(0 -0 2.83821e-06)
(0 -0 2.84728e-06)
(0 -0 2.85324e-06)
(0 -0 2.86166e-06)
(0 -0 2.86996e-06)
(0 -0 2.88e-06)
(0 -0 2.89051e-06)
(0 -0 2.89888e-06)
(0 -0 2.9083e-06)
(0 -0 2.91453e-06)
(0 -0 2.92021e-06)
(0 -0 2.92202e-06)
(0 -0 2.92471e-06)
(0 -0 2.92477e-06)
(0 -0 2.92677e-06)
(0 -0 2.92975e-06)
(0 -0 2.93206e-06)
(0 -0 2.93592e-06)
(0 -0 2.93605e-06)
(0 -0 2.93785e-06)
(0 -0 2.93814e-06)
(0 -0 2.93766e-06)
(0 -0 2.93468e-06)
(0 -0 2.93183e-06)
(0 -0 2.93075e-06)
(0 -0 2.93102e-06)
(0 -0 2.9296e-06)
(0 -0 2.9317e-06)
(0 -0 2.93118e-06)
(0 -0 2.92548e-06)
(0 -0 2.9249e-06)
(0 -0 2.92236e-06)
(0 -0 2.92046e-06)
(0 -0 2.91879e-06)
(0 -0 2.91586e-06)
(0 -0 2.91255e-06)
(0 -0 2.91054e-06)
(0 -0 2.90885e-06)
(0 -0 2.90566e-06)
(0 -0 2.90572e-06)
(0 -0 2.8992e-06)
(0 -0 2.89791e-06)
(0 -0 2.89203e-06)
(0 -0 2.89433e-06)
(0 -0 2.88656e-06)
(0 -0 2.89466e-06)
(0 -0 2.85273e-06)
(0 -0 2.92486e-06)
(0 -0 2.75624e-06)
(0 -0 3.03278e-06)
(0 -0 2.1225e-06)
(0 -0 9.25819e-06)
(0 -0 -5.41732e-05)
(0 -0 0.000261791)
(0 -0 1.78361e-06)
(0 -0 1.70411e-06)
(0 -0 1.65522e-06)
(0 -0 1.622e-06)
(0 -0 1.5926e-06)
(0 -0 1.56811e-06)
(0 -0 1.54958e-06)
(0 -0 1.53988e-06)
(0 -0 1.53704e-06)
(0 -0 1.54018e-06)
(0 -0 1.54549e-06)
(0 -0 1.55041e-06)
(0 -0 1.55612e-06)
(0 -0 1.56418e-06)
(0 -0 1.57611e-06)
(0 -0 1.58601e-06)
(0 -0 1.59725e-06)
(0 -0 1.60705e-06)
(0 -0 1.61949e-06)
(0 -0 1.62861e-06)
(0 -0 1.64008e-06)
(0 -0 1.65125e-06)
(0 -0 1.66473e-06)
(0 -0 1.6788e-06)
(0 -0 1.69026e-06)
(0 -0 1.70278e-06)
(0 -0 1.71369e-06)
(0 -0 1.72298e-06)
(0 -0 1.72897e-06)
(0 -0 1.73469e-06)
(0 -0 1.73842e-06)
(0 -0 1.74303e-06)
(0 -0 1.7505e-06)
(0 -0 1.75553e-06)
(0 -0 1.76283e-06)
(0 -0 1.7653e-06)
(0 -0 1.77032e-06)
(0 -0 1.77519e-06)
(0 -0 1.77815e-06)
(0 -0 1.77902e-06)
(0 -0 1.77946e-06)
(0 -0 1.78235e-06)
(0 -0 1.78485e-06)
(0 -0 1.78599e-06)
(0 -0 1.79079e-06)
(0 -0 1.79356e-06)
(0 -0 1.79133e-06)
(0 -0 1.79325e-06)
(0 -0 1.79297e-06)
(0 -0 1.79456e-06)
(0 -0 1.79435e-06)
(0 -0 1.79387e-06)
(0 -0 1.79427e-06)
(0 -0 1.79496e-06)
(0 -0 1.79638e-06)
(0 -0 1.79499e-06)
(0 -0 1.79866e-06)
(0 -0 1.79541e-06)
(0 -0 1.79836e-06)
(0 -0 1.79423e-06)
(0 -0 1.80086e-06)
(0 -0 1.79764e-06)
(0 -0 1.8101e-06)
(0 -0 1.77859e-06)
(0 -0 1.84831e-06)
(0 -0 1.70431e-06)
(0 -0 1.96666e-06)
(0 -0 1.1317e-06)
(0 -0 7.61246e-06)
(0 -0 -4.9363e-05)
(0 -0 0.000239406)
(0 -0 8.98552e-07)
(0 -0 8.23408e-07)
(0 -0 7.77048e-07)
(0 -0 7.43507e-07)
(0 -0 7.13102e-07)
(0 -0 6.89124e-07)
(0 -0 6.72409e-07)
(0 -0 6.64708e-07)
(0 -0 6.63966e-07)
(0 -0 6.6828e-07)
(0 -0 6.74476e-07)
(0 -0 6.80473e-07)
(0 -0 6.8784e-07)
(0 -0 6.97671e-07)
(0 -0 7.11711e-07)
(0 -0 7.22781e-07)
(0 -0 7.35208e-07)
(0 -0 7.46549e-07)
(0 -0 7.61102e-07)
(0 -0 7.71559e-07)
(0 -0 7.84104e-07)
(0 -0 7.96319e-07)
(0 -0 8.11854e-07)
(0 -0 8.28082e-07)
(0 -0 8.41076e-07)
(0 -0 8.55108e-07)
(0 -0 8.69413e-07)
(0 -0 8.80782e-07)
(0 -0 8.89175e-07)
(0 -0 8.96034e-07)
(0 -0 9.01111e-07)
(0 -0 9.06224e-07)
(0 -0 9.16564e-07)
(0 -0 9.22268e-07)
(0 -0 9.31654e-07)
(0 -0 9.34907e-07)
(0 -0 9.41944e-07)
(0 -0 9.49674e-07)
(0 -0 9.54428e-07)
(0 -0 9.57761e-07)
(0 -0 9.58796e-07)
(0 -0 9.64371e-07)
(0 -0 9.67777e-07)
(0 -0 9.70025e-07)
(0 -0 9.76829e-07)
(0 -0 9.82425e-07)
(0 -0 9.81418e-07)
(0 -0 9.84267e-07)
(0 -0 9.84819e-07)
(0 -0 9.88666e-07)
(0 -0 9.88318e-07)
(0 -0 9.88348e-07)
(0 -0 9.91202e-07)
(0 -0 9.93389e-07)
(0 -0 9.96602e-07)
(0 -0 9.95824e-07)
(0 -0 1.00162e-06)
(0 -0 9.98879e-07)
(0 -0 1.00432e-06)
(0 -0 1.00014e-06)
(0 -0 1.00918e-06)
(0 -0 1.00803e-06)
(0 -0 1.02164e-06)
(0 -0 9.97426e-07)
(0 -0 1.06169e-06)
(0 -0 9.36102e-07)
(0 -0 1.17977e-06)
(0 -0 4.13899e-07)
(0 -0 6.32836e-06)
(0 -0 -4.54083e-05)
(0 -0 0.00022008)
(0 -0 3.81879e-07)
(0 -0 3.12207e-07)
(0 -0 2.6858e-07)
(0 -0 2.33609e-07)
(0 -0 2.01035e-07)
(0 -0 1.76617e-07)
(0 -0 1.60778e-07)
(0 -0 1.54174e-07)
(0 -0 1.54459e-07)
(0 -0 1.58726e-07)
(0 -0 1.64735e-07)
(0 -0 1.71166e-07)
(0 -0 1.79233e-07)
(0 -0 1.89673e-07)
(0 -0 2.04495e-07)
(0 -0 2.155e-07)
(0 -0 2.27755e-07)
(0 -0 2.39383e-07)
(0 -0 2.55252e-07)
(0 -0 2.65883e-07)
(0 -0 2.78228e-07)
(0 -0 2.90548e-07)
(0 -0 3.07453e-07)
(0 -0 3.25318e-07)
(0 -0 3.39066e-07)
(0 -0 3.53244e-07)
(0 -0 3.69907e-07)
(0 -0 3.8244e-07)
(0 -0 3.92072e-07)
(0 -0 3.98726e-07)
(0 -0 4.03647e-07)
(0 -0 4.07954e-07)
(0 -0 4.20312e-07)
(0 -0 4.2521e-07)
(0 -0 4.36139e-07)
(0 -0 4.38894e-07)
(0 -0 4.47646e-07)
(0 -0 4.57223e-07)
(0 -0 4.62891e-07)
(0 -0 4.67988e-07)
(0 -0 4.6688e-07)
(0 -0 4.74543e-07)
(0 -0 4.78095e-07)
(0 -0 4.8079e-07)
(0 -0 4.89554e-07)
(0 -0 4.98166e-07)
(0 -0 4.96634e-07)
(0 -0 4.99558e-07)
(0 -0 4.99951e-07)
(0 -0 5.05022e-07)
(0 -0 5.03389e-07)
(0 -0 5.02689e-07)
(0 -0 5.07649e-07)
(0 -0 5.10999e-07)
(0 -0 5.15654e-07)
(0 -0 5.15018e-07)
(0 -0 5.21889e-07)
(0 -0 5.17756e-07)
(0 -0 5.24753e-07)
(0 -0 5.19999e-07)
(0 -0 5.30288e-07)
(0 -0 5.29925e-07)
(0 -0 5.42791e-07)
(0 -0 5.23979e-07)
(0 -0 5.8162e-07)
(0 -0 4.70547e-07)
(0 -0 6.95175e-07)
(0 -0 -9.34877e-09)
(0 -0 5.40729e-06)
(0 -0 -4.19019e-05)
(0 -0 0.000203107)
(0 -0 1.22887e-07)
(0 -0 6.00204e-08)
(0 -0 1.94223e-08)
(0 -0 -1.81002e-08)
(0 -0 -5.42301e-08)
(0 -0 -8.03813e-08)
(0 -0 -9.65297e-08)
(0 -0 -1.0276e-07)
(0 -0 -1.02207e-07)
(0 -0 -9.86753e-08)
(0 -0 -9.33795e-08)
(0 -0 -8.66964e-08)
(0 -0 -7.85933e-08)
(0 -0 -6.85185e-08)
(0 -0 -5.4316e-08)
(0 -0 -4.41059e-08)
(0 -0 -3.25133e-08)
(0 -0 -2.13396e-08)
(0 -0 -4.70315e-09)
(0 -0 5.88364e-09)
(0 -0 1.73605e-08)
(0 -0 2.95485e-08)
(0 -0 4.74942e-08)
(0 -0 6.71382e-08)
(0 -0 8.13612e-08)
(0 -0 9.44114e-08)
(0 -0 1.12296e-07)
(0 -0 1.25492e-07)
(0 -0 1.35754e-07)
(0 -0 1.41342e-07)
(0 -0 1.45427e-07)
(0 -0 1.48289e-07)
(0 -0 1.62255e-07)
(0 -0 1.65549e-07)
(0 -0 1.77945e-07)
(0 -0 1.78974e-07)
(0 -0 1.89755e-07)
(0 -0 2.0064e-07)
(0 -0 2.06883e-07)
(0 -0 2.1341e-07)
(0 -0 2.07687e-07)
(0 -0 2.16895e-07)
(0 -0 2.20301e-07)
(0 -0 2.23473e-07)
(0 -0 2.3432e-07)
(0 -0 2.46469e-07)
(0 -0 2.4331e-07)
(0 -0 2.45835e-07)
(0 -0 2.45414e-07)
(0 -0 2.50521e-07)
(0 -0 2.47099e-07)
(0 -0 2.45076e-07)
(0 -0 2.5223e-07)
(0 -0 2.57054e-07)
(0 -0 2.63536e-07)
(0 -0 2.63056e-07)
(0 -0 2.69887e-07)
(0 -0 2.63263e-07)
(0 -0 2.70973e-07)
(0 -0 2.66697e-07)
(0 -0 2.77333e-07)
(0 -0 2.77342e-07)
(0 -0 2.88175e-07)
(0 -0 2.73224e-07)
(0 -0 3.24487e-07)
(0 -0 2.25528e-07)
(0 -0 4.33279e-07)
(0 -0 -2.18718e-07)
(0 -0 4.75585e-06)
(0 -0 -3.86956e-05)
(0 -0 0.000187967)
(0 -0 1.40041e-08)
(0 -0 -4.12552e-08)
(0 -0 -7.8542e-08)
(0 -0 -1.19184e-07)
(0 -0 -1.59866e-07)
(0 -0 -1.88922e-07)
(0 -0 -2.06506e-07)
(0 -0 -2.12847e-07)
(0 -0 -2.12447e-07)
(0 -0 -2.09863e-07)
(0 -0 -2.05486e-07)
(0 -0 -1.98544e-07)
(0 -0 -1.90848e-07)
(0 -0 -1.81995e-07)
(0 -0 -1.69876e-07)
(0 -0 -1.60539e-07)
(0 -0 -1.49215e-07)
(0 -0 -1.38721e-07)
(0 -0 -1.21892e-07)
(0 -0 -1.1056e-07)
(0 -0 -1.00208e-07)
(0 -0 -8.7905e-08)
(0 -0 -6.93016e-08)
(0 -0 -4.75973e-08)
(0 -0 -3.29922e-08)
(0 -0 -2.20217e-08)
(0 -0 -4.35003e-09)
(0 -0 9.05397e-09)
(0 -0 1.97362e-08)
(0 -0 2.38158e-08)
(0 -0 2.7187e-08)
(0 -0 2.85482e-08)
(0 -0 4.37573e-08)
(0 -0 4.5676e-08)
(0 -0 5.92456e-08)
(0 -0 5.76274e-08)
(0 -0 7.08882e-08)
(0 -0 8.26375e-08)
(0 -0 8.94414e-08)
(0 -0 9.69518e-08)
(0 -0 8.55435e-08)
(0 -0 9.48463e-08)
(0 -0 9.83905e-08)
(0 -0 1.02402e-07)
(0 -0 1.15009e-07)
(0 -0 1.31153e-07)
(0 -0 1.26308e-07)
(0 -0 1.27951e-07)
(0 -0 1.26545e-07)
(0 -0 1.3021e-07)
(0 -0 1.25434e-07)
(0 -0 1.22243e-07)
(0 -0 1.31666e-07)
(0 -0 1.38517e-07)
(0 -0 1.47411e-07)
(0 -0 1.47298e-07)
(0 -0 1.52739e-07)
(0 -0 1.434e-07)
(0 -0 1.50376e-07)
(0 -0 1.49586e-07)
(0 -0 1.59552e-07)
(0 -0 1.6028e-07)
(0 -0 1.67852e-07)
(0 -0 1.54813e-07)
(0 -0 2.01113e-07)
(0 -0 1.12917e-07)
(0 -0 3.06956e-07)
(0 -0 -3.0148e-07)
(0 -0 4.27873e-06)
(0 -0 -3.57494e-05)
(0 -0 0.000174314)
(0 -0 -2.19615e-08)
(0 -0 -7.01428e-08)
(0 -0 -1.04104e-07)
(0 -0 -1.47378e-07)
(0 -0 -1.92449e-07)
(0 -0 -2.24774e-07)
(0 -0 -2.44427e-07)
(0 -0 -2.5111e-07)
(0 -0 -2.51026e-07)
(0 -0 -2.49295e-07)
(0 -0 -2.45895e-07)
(0 -0 -2.38704e-07)
(0 -0 -2.31669e-07)
(0 -0 -2.2463e-07)
(0 -0 -2.15798e-07)
(0 -0 -2.06805e-07)
(0 -0 -1.94815e-07)
(0 -0 -1.84614e-07)
(0 -0 -1.68417e-07)
(0 -0 -1.54861e-07)
(0 -0 -1.45627e-07)
(0 -0 -1.32661e-07)
(0 -0 -1.14096e-07)
(0 -0 -9.05586e-08)
(0 -0 -7.57781e-08)
(0 -0 -6.69135e-08)
(0 -0 -5.10382e-08)
(0 -0 -3.81498e-08)
(0 -0 -2.7081e-08)
(0 -0 -2.45915e-08)
(0 -0 -2.1131e-08)
(0 -0 -2.07475e-08)
(0 -0 -4.99389e-09)
(0 -0 -2.79912e-09)
(0 -0 1.06825e-08)
(0 -0 6.5734e-09)
(0 -0 2.21408e-08)
(0 -0 3.40929e-08)
(0 -0 4.16543e-08)
(0 -0 4.90478e-08)
(0 -0 3.39975e-08)
(0 -0 4.02467e-08)
(0 -0 4.5023e-08)
(0 -0 4.99524e-08)
(0 -0 6.29934e-08)
(0 -0 8.29861e-08)
(0 -0 7.7931e-08)
(0 -0 7.79772e-08)
(0 -0 7.62891e-08)
(0 -0 7.69229e-08)
(0 -0 7.2353e-08)
(0 -0 6.90437e-08)
(0 -0 8.03725e-08)
(0 -0 8.94406e-08)
(0 -0 1.00674e-07)
(0 -0 1.00977e-07)
(0 -0 1.03705e-07)
(0 -0 9.25704e-08)
(0 -0 9.64473e-08)
(0 -0 1.0382e-07)
(0 -0 1.11712e-07)
(0 -0 1.14368e-07)
(0 -0 1.17397e-07)
(0 -0 1.03668e-07)
(0 -0 1.47195e-07)
(0 -0 6.94481e-08)
(0 -0 2.52162e-07)
(0 -0 -3.19851e-07)
(0 -0 3.90796e-06)
(0 -0 -3.30555e-05)
(0 -0 0.00016192)
(0 -0 -3.36336e-08)
(0 -0 -7.66259e-08)
(0 -0 -1.0787e-07)
(0 -0 -1.52131e-07)
(0 -0 -1.99707e-07)
(0 -0 -2.34267e-07)
(0 -0 -2.55661e-07)
(0 -0 -2.62645e-07)
(0 -0 -2.62902e-07)
(0 -0 -2.61809e-07)
(0 -0 -2.59288e-07)
(0 -0 -2.51958e-07)
(0 -0 -2.45581e-07)
(0 -0 -2.40319e-07)
(0 -0 -2.35189e-07)
(0 -0 -2.2575e-07)
(0 -0 -2.123e-07)
(0 -0 -2.01405e-07)
(0 -0 -1.86968e-07)
(0 -0 -1.69795e-07)
(0 -0 -1.61452e-07)
(0 -0 -1.47228e-07)
(0 -0 -1.29685e-07)
(0 -0 -1.05567e-07)
(0 -0 -9.10873e-08)
(0 -0 -8.28993e-08)
(0 -0 -7.00249e-08)
(0 -0 -5.86601e-08)
(0 -0 -4.73e-08)
(0 -0 -4.61757e-08)
(0 -0 -4.15077e-08)
(0 -0 -4.10499e-08)
(0 -0 -2.59984e-08)
(0 -0 -2.05104e-08)
(0 -0 -9.6484e-09)
(0 -0 -1.4242e-08)
(0 -0 2.1207e-09)
(0 -0 1.33187e-08)
(0 -0 2.19146e-08)
(0 -0 2.72145e-08)
(0 -0 1.46448e-08)
(0 -0 1.33305e-08)
(0 -0 2.11729e-08)
(0 -0 2.62593e-08)
(0 -0 3.73131e-08)
(0 -0 5.97514e-08)
(0 -0 5.74849e-08)
(0 -0 5.51555e-08)
(0 -0 5.49522e-08)
(0 -0 5.14007e-08)
(0 -0 4.94756e-08)
(0 -0 4.78235e-08)
(0 -0 5.98895e-08)
(0 -0 7.04362e-08)
(0 -0 8.24502e-08)
(0 -0 8.28176e-08)
(0 -0 8.22489e-08)
(0 -0 7.1533e-08)
(0 -0 6.94765e-08)
(0 -0 8.9648e-08)
(0 -0 9.36603e-08)
(0 -0 1.00222e-07)
(0 -0 9.78628e-08)
(0 -0 8.08779e-08)
(0 -0 1.23756e-07)
(0 -0 5.72478e-08)
(0 -0 2.28261e-07)
(0 -0 -3.09952e-07)
(0 -0 3.60242e-06)
(0 -0 -3.06094e-05)
(0 -0 0.000150637)
(0 -0 -4.61356e-08)
(0 -0 -9.04679e-08)
(0 -0 -1.20642e-07)
(0 -0 -1.63544e-07)
(0 -0 -2.10044e-07)
(0 -0 -2.44262e-07)
(0 -0 -2.65805e-07)
(0 -0 -2.72721e-07)
(0 -0 -2.73255e-07)
(0 -0 -2.72499e-07)
(0 -0 -2.70435e-07)
(0 -0 -2.63111e-07)
(0 -0 -2.57007e-07)
(0 -0 -2.52479e-07)
(0 -0 -2.5017e-07)
(0 -0 -2.39567e-07)
(0 -0 -2.24668e-07)
(0 -0 -2.11835e-07)
(0 -0 -2.00247e-07)
(0 -0 -1.79094e-07)
(0 -0 -1.71135e-07)
(0 -0 -1.55328e-07)
(0 -0 -1.39758e-07)
(0 -0 -1.17311e-07)
(0 -0 -1.0371e-07)
(0 -0 -9.35629e-08)
(0 -0 -8.38101e-08)
(0 -0 -7.47564e-08)
(0 -0 -6.3357e-08)
(0 -0 -6.30812e-08)
(0 -0 -5.63356e-08)
(0 -0 -5.44505e-08)
(0 -0 -4.16707e-08)
(0 -0 -2.96e-08)
(0 -0 -2.43518e-08)
(0 -0 -2.57174e-08)
(0 -0 -1.13372e-08)
(0 -0 -1.94649e-09)
(0 -0 7.75944e-09)
(0 -0 8.81681e-09)
(0 -0 7.26981e-09)
(0 -0 -5.25292e-09)
(0 -0 7.36214e-09)
(0 -0 1.11083e-08)
(0 -0 1.74445e-08)
(0 -0 3.92163e-08)
(0 -0 4.31304e-08)
(0 -0 3.8182e-08)
(0 -0 4.16931e-08)
(0 -0 3.39814e-08)
(0 -0 3.71236e-08)
(0 -0 3.88414e-08)
(0 -0 4.95763e-08)
(0 -0 5.98458e-08)
(0 -0 6.95729e-08)
(0 -0 6.95306e-08)
(0 -0 6.64776e-08)
(0 -0 5.93113e-08)
(0 -0 4.92922e-08)
(0 -0 8.37957e-08)
(0 -0 8.23258e-08)
(0 -0 9.43648e-08)
(0 -0 8.75489e-08)
(0 -0 6.6493e-08)
(0 -0 1.09649e-07)
(0 -0 5.5714e-08)
(0 -0 2.10948e-07)
(0 -0 -2.90251e-07)
(0 -0 3.33971e-06)
(0 -0 -2.84025e-05)
(0 -0 0.000140353)
(0 -0 -7.3034e-08)
(0 -0 -1.22917e-07)
(0 -0 -1.55271e-07)
(0 -0 -1.94816e-07)
(0 -0 -2.35825e-07)
(0 -0 -2.66243e-07)
(0 -0 -2.85432e-07)
(0 -0 -2.91744e-07)
(0 -0 -2.92487e-07)
(0 -0 -2.91712e-07)
(0 -0 -2.89401e-07)
(0 -0 -2.82252e-07)
(0 -0 -2.75784e-07)
(0 -0 -2.70157e-07)
(0 -0 -2.68445e-07)
(0 -0 -2.56156e-07)
(0 -0 -2.4086e-07)
(0 -0 -2.25363e-07)
(0 -0 -2.17056e-07)
(0 -0 -1.93301e-07)
(0 -0 -1.8498e-07)
(0 -0 -1.67835e-07)
(0 -0 -1.54907e-07)
(0 -0 -1.36657e-07)
(0 -0 -1.242e-07)
(0 -0 -1.09781e-07)
(0 -0 -1.01866e-07)
(0 -0 -9.49112e-08)
(0 -0 -8.38417e-08)
(0 -0 -8.36372e-08)
(0 -0 -7.47144e-08)
(0 -0 -7.02307e-08)
(0 -0 -6.09376e-08)
(0 -0 -4.08082e-08)
(0 -0 -4.27785e-08)
(0 -0 -3.71726e-08)
(0 -0 -2.75562e-08)
(0 -0 -2.08352e-08)
(0 -0 -1.05552e-08)
(0 -0 -1.44377e-08)
(0 -0 1.20656e-09)
(0 -0 -2.19034e-08)
(0 -0 -4.55309e-09)
(0 -0 -3.3358e-09)
(0 -0 -3.25507e-09)
(0 -0 1.32883e-08)
(0 -0 2.50865e-08)
(0 -0 1.845e-08)
(0 -0 2.69294e-08)
(0 -0 1.67311e-08)
(0 -0 2.59983e-08)
(0 -0 3.16226e-08)
(0 -0 3.85736e-08)
(0 -0 4.64295e-08)
(0 -0 5.06752e-08)
(0 -0 5.05264e-08)
(0 -0 4.70274e-08)
(0 -0 4.64173e-08)
(0 -0 2.88047e-08)
(0 -0 7.34979e-08)
(0 -0 6.59062e-08)
(0 -0 8.33306e-08)
(0 -0 7.55509e-08)
(0 -0 5.14147e-08)
(0 -0 9.63744e-08)
(0 -0 5.24604e-08)
(0 -0 1.86626e-07)
(0 -0 -2.66863e-07)
(0 -0 3.10116e-06)
(0 -0 -2.6415e-05)
(0 -0 0.000130979)
(0 -0 -1.11505e-07)
(0 -0 -1.7084e-07)
(0 -0 -2.10489e-07)
(0 -0 -2.44649e-07)
(0 -0 -2.76434e-07)
(0 -0 -2.99969e-07)
(0 -0 -3.14373e-07)
(0 -0 -3.19799e-07)
(0 -0 -3.20746e-07)
(0 -0 -3.19859e-07)
(0 -0 -3.16653e-07)
(0 -0 -3.09828e-07)
(0 -0 -3.02199e-07)
(0 -0 -2.93534e-07)
(0 -0 -2.89828e-07)
(0 -0 -2.75506e-07)
(0 -0 -2.61172e-07)
(0 -0 -2.43288e-07)
(0 -0 -2.37606e-07)
(0 -0 -2.14139e-07)
(0 -0 -2.04611e-07)
(0 -0 -1.87e-07)
(0 -0 -1.76903e-07)
(0 -0 -1.64647e-07)
(0 -0 -1.52972e-07)
(0 -0 -1.33855e-07)
(0 -0 -1.25673e-07)
(0 -0 -1.19474e-07)
(0 -0 -1.0874e-07)
(0 -0 -1.0756e-07)
(0 -0 -9.70665e-08)
(0 -0 -8.94527e-08)
(0 -0 -8.38477e-08)
(0 -0 -5.79713e-08)
(0 -0 -6.53149e-08)
(0 -0 -5.12881e-08)
(0 -0 -4.74044e-08)
(0 -0 -4.37732e-08)
(0 -0 -3.41801e-08)
(0 -0 -4.08672e-08)
(0 -0 -9.37681e-09)
(0 -0 -3.62229e-08)
(0 -0 -1.72069e-08)
(0 -0 -1.78942e-08)
(0 -0 -2.35457e-08)
(0 -0 -1.66069e-08)
(0 -0 1.19509e-09)
(0 -0 -4.75978e-09)
(0 -0 7.60459e-09)
(0 -0 -2.2298e-09)
(0 -0 1.21698e-08)
(0 -0 2.03419e-08)
(0 -0 2.18713e-08)
(0 -0 2.60016e-08)
(0 -0 2.33447e-08)
(0 -0 2.47172e-08)
(0 -0 2.29072e-08)
(0 -0 3.03165e-08)
(0 -0 9.01075e-09)
(0 -0 5.42704e-08)
(0 -0 4.15804e-08)
(0 -0 6.11056e-08)
(0 -0 5.82848e-08)
(0 -0 3.49957e-08)
(0 -0 8.14438e-08)
(0 -0 4.25e-08)
(0 -0 1.51995e-07)
(0 -0 -2.45826e-07)
(0 -0 2.88292e-06)
(0 -0 -2.46325e-05)
(0 -0 0.000122445)
(0 -0 3.71043e-08)
(0 -0 1.90771e-08)
(0 -0 6.63449e-08)
(0 -0 2.43212e-08)
(0 -0 1.12407e-07)
(0 -0 -2.31455e-07)
(0 -0 2.68349e-06)
(0 -0 -2.30363e-05)
(0 -0 0.000114691)
(0 -0 -2.06499e-05)
(0 -0 -2.06405e-05)
(0 -0 -2.06155e-05)
(0 -0 -2.05731e-05)
(0 -0 -2.05178e-05)
(0 -0 -2.04532e-05)
(0 -0 -2.03766e-05)
(0 -0 -2.02927e-05)
(0 -0 -2.02036e-05)
(0 -0 -2.01064e-05)
(0 -0 -2.00021e-05)
(0 -0 -1.98924e-05)
(0 -0 -1.97773e-05)
(0 -0 -1.96549e-05)
(0 -0 -1.95225e-05)
(0 -0 -1.93828e-05)
(0 -0 -1.92401e-05)
(0 -0 -1.90965e-05)
(0 -0 -1.8952e-05)
(0 -0 -1.88033e-05)
(0 -0 -1.86496e-05)
(0 -0 -1.84931e-05)
(0 -0 -1.83343e-05)
(0 -0 -1.81733e-05)
(0 -0 -1.80109e-05)
(0 -0 -1.78465e-05)
(0 -0 -1.76834e-05)
(0 -0 -1.75168e-05)
(0 -0 -1.73457e-05)
(0 -0 -1.71786e-05)
(0 -0 -1.70156e-05)
(0 -0 -1.68505e-05)
(0 -0 -1.6681e-05)
(0 -0 -1.65083e-05)
(0 -0 -1.63375e-05)
(0 -0 -1.61759e-05)
(0 -0 -1.60132e-05)
(0 -0 -1.58469e-05)
(0 -0 -1.56853e-05)
(0 -0 -1.55286e-05)
(0 -0 -1.53747e-05)
(0 -0 -1.52203e-05)
(0 -0 -1.50631e-05)
(0 -0 -1.49102e-05)
(0 -0 -1.47643e-05)
(0 -0 -1.46273e-05)
(0 -0 -1.44914e-05)
(0 -0 -1.43541e-05)
(0 -0 -1.42224e-05)
(0 -0 -1.41011e-05)
(0 -0 -1.39884e-05)
(0 -0 -1.38779e-05)
(0 -0 -1.37716e-05)
(0 -0 -1.36755e-05)
(0 -0 -1.35958e-05)
(0 -0 -1.35289e-05)
(0 -0 -1.34775e-05)
(0 -0 -1.3443e-05)
(0 -0 -1.34293e-05)
(0 -0 -1.34377e-05)
(0 -0 -1.34757e-05)
(0 -0 -1.35462e-05)
(0 -0 -1.36634e-05)
(0 -0 -1.38185e-05)
(0 -0 -1.40833e-05)
(0 -0 -1.41058e-05)
(0 -0 -1.48668e-05)
(0 -0 -2.66452e-05)
(0 -0 7.70034e-05)
(0 -0 -0.00020132)
(0 -0 -3.69865e-05)