/*--------------------------------*- C++ -*----------------------------------*\
| =========                 |                                                 |
| \\      /  F ield         | OpenFOAM: The Open Source CFD Toolbox           |
|  \\    /   O peration     | Version:  2412                                  |
|   \\  /    A nd           | Website:  www.openfoam.com                      |
|    \\/     M anipulation  |                                                 |
\*---------------------------------------------------------------------------*/
FoamFile
{
    version     2.0;
    format      ascii;
    arch        "LSB;label=32;scalar=64";
    class       volScalarField;
    location    "30";
    object      error;
}
// * * * * * * * * * * * * * * * * * * * * * * * * * * * * * * * * * * * * * //

dimensions      [0 0 0 0 0 0 0];

internalField   nonuniform List<scalar> 
5285
(
0.017403
0.0161965
0.0150625
0.0139939
0.0129847
0.0120297
0.0111253
0.0102682
0.00945619
0.00868729
0.00795987
0.00727243
0.00662353
0.00601177
0.00543573
0.00489402
0.00438524
0.00390799
0.00346094
0.00304275
0.00265213
0.00228782
0.00194862
0.00163334
0.00134084
0.00107004
0.000819858
0.000589294
0.000377397
0.000183458
1.99468e-05
0.000158603
0.000305196
0.000438146
0.000558012
0.000665502
0.000761441
0.000846463
0.000921477
0.000986889
0.00104387
0.0010923
0.00113405
0.00116787
0.00119718
0.00121839
0.00123816
0.0012483
0.00126174
0.00126175
0.00127253
0.00126273
0.0012751
0.00125518
0.00127404
0.00124333
0.001274
0.00123202
0.00128001
0.00122722
0.0012979
0.00123646
0.00133544
0.00126886
0.00140409
0.00133714
0.00151469
0.00146827
0.00167941
0.00166749
0.00196686
0.0174078
0.0162005
0.0150657
0.0139965
0.0129868
0.0120315
0.0111268
0.0102696
0.00945751
0.00868858
0.00796116
0.00727375
0.00662489
0.00601317
0.00543719
0.00489553
0.0043868
0.00390962
0.00346263
0.00304451
0.00265396
0.00228975
0.00195066
0.00163553
0.00134324
0.00107271
0.000822965
0.000593121
0.000382654
0.000192804
5.90082e-05
0.000166884
0.000309017
0.000440462
0.000559585
0.000666637
0.00076229
0.000847114
0.000921984
0.000987288
0.00104418
0.00109256
0.00113425
0.00116803
0.0011973
0.00121849
0.00123824
0.00124836
0.00126178
0.00126178
0.00127254
0.00126274
0.0012751
0.00125517
0.00127402
0.00124331
0.00127398
0.00123199
0.00127997
0.00122717
0.00129785
0.00123641
0.00133536
0.00126885
0.0014039
0.00133727
0.00151441
0.00146831
0.00167948
0.0016673
0.0019669
0.0174171
0.0162083
0.0150721
0.0140017
0.0129911
0.0120351
0.0111299
0.0102724
0.00946013
0.00869114
0.00796373
0.00727637
0.00662759
0.00601597
0.0054401
0.00489855
0.00438993
0.00391286
0.003466
0.00304801
0.00265763
0.00229361
0.00195475
0.00163992
0.00134802
0.00107806
0.000829155
0.000600714
0.000392979
0.000210296
9.83268e-05
0.000182369
0.000316547
0.000445077
0.000562732
0.000668912
0.000763996
0.000848424
0.000923006
0.000988094
0.00104482
0.00109307
0.00113465
0.00116836
0.00119756
0.00121869
0.00123839
0.00124847
0.00126186
0.00126184
0.00127258
0.00126275
0.0012751
0.00125516
0.00127399
0.00124327
0.00127392
0.00123192
0.0012799
0.00122708
0.00129775
0.00123631
0.0013352
0.00126884
0.00140352
0.00133752
0.00151385
0.00146839
0.00167962
0.00166691
0.00196697
0.0174306
0.0162195
0.0150813
0.0140092
0.0129972
0.0120403
0.0111344
0.0102765
0.00946399
0.00869492
0.00796753
0.00728026
0.00663161
0.00602014
0.00544442
0.00490303
0.00439458
0.0039177
0.00347102
0.00305324
0.0026631
0.00229936
0.00196084
0.00164645
0.00135515
0.00108601
0.00083834
0.000611917
0.000407971
0.000234095
0.000137662
0.000203413
0.00032753
0.000451923
0.000567429
0.00067232
0.000766556
0.000850391
0.000924541
0.000989305
0.00104578
0.00109383
0.00113526
0.00116884
0.00119794
0.00121899
0.00123862
0.00124865
0.00126199
0.00126193
0.00127263
0.00126278
0.00127509
0.00125513
0.00127394
0.0012432
0.00127384
0.00123181
0.00127978
0.00122694
0.0012976
0.00123615
0.00133495
0.00126881
0.00140295
0.00133787
0.00151302
0.00146849
0.00167981
0.00166634
0.00196706
0.0174478
0.0162338
0.0150931
0.0140189
0.0130052
0.012047
0.0111403
0.0102818
0.00946905
0.00869989
0.00797255
0.0072854
0.00663692
0.00602565
0.00545014
0.00490897
0.00440075
0.0039241
0.00347768
0.00306018
0.00267035
0.00230697
0.00196892
0.00165511
0.00136457
0.0010965
0.000850413
0.000626523
0.000427122
0.00026247
0.000176978
0.00022847
0.000341626
0.000460895
0.000573635
0.00067684
0.000769957
0.000853009
0.000926585
0.000990918
0.00104706
0.00109485
0.00113607
0.00116948
0.00119844
0.00121938
0.00123892
0.00124887
0.00126214
0.00126204
0.00127268
0.0012628
0.00127507
0.00125509
0.00127386
0.0012431
0.00127371
0.00123166
0.00127961
0.00122673
0.00129738
0.00123592
0.0013346
0.00126874
0.0014022
0.00133829
0.00151192
0.0014686
0.00168003
0.00166556
0.00196717
0.017468
0.0162508
0.0151071
0.0140304
0.0130148
0.0120551
0.0111474
0.0102883
0.00947526
0.00870602
0.00797874
0.00729175
0.00664349
0.00603247
0.00545723
0.00491634
0.0044084
0.00393205
0.00348594
0.00306878
0.00267934
0.00231642
0.00197893
0.00166582
0.00137622
0.00110944
0.000865232
0.00064428
0.000449878
0.000294074
0.00021626
0.000256351
0.000358458
0.000471866
0.000581299
0.000682448
0.000774189
0.00085627
0.000929133
0.000992928
0.00104865
0.00109612
0.00113707
0.00117028
0.00119906
0.00121986
0.00123928
0.00124914
0.00126233
0.00126216
0.00127274
0.00126281
0.00127504
0.00125502
0.00127375
0.00124296
0.00127354
0.00123145
0.00127939
0.00122645
0.00129709
0.00123561
0.00133415
0.00126861
0.00140125
0.00133874
0.00151056
0.00146867
0.00168024
0.00166459
0.00196726
0.0174907
0.0162698
0.0151229
0.0140435
0.0130257
0.0120644
0.0111556
0.0102959
0.00948256
0.00871326
0.00798608
0.00729929
0.0066513
0.00604059
0.00546567
0.00492511
0.00441751
0.0039415
0.00349576
0.00307901
0.00269003
0.00232766
0.00199082
0.00167854
0.00139002
0.00112472
0.000882638
0.000664912
0.000475698
0.000327947
0.000255496
0.000286213
0.000377652
0.000484697
0.00059036
0.000689114
0.000779234
0.000860164
0.000932179
0.000995331
0.00105056
0.00109763
0.00113827
0.00117122
0.0011998
0.00122043
0.00123971
0.00124945
0.00126253
0.00126229
0.00127279
0.00126281
0.00127497
0.00125491
0.00127359
0.00124276
0.0012733
0.00123116
0.00127908
0.00122608
0.00129671
0.0012352
0.00133359
0.00126841
0.00140012
0.00133919
0.00150895
0.00146867
0.00168042
0.00166341
0.00196731
0.0175157
0.016291
0.0151407
0.0140583
0.0130382
0.0120752
0.0111653
0.0103049
0.00949121
0.00872186
0.00799482
0.00730829
0.00666063
0.00605027
0.00547573
0.00493556
0.00442836
0.00395276
0.00350746
0.00309119
0.00270274
0.002341
0.00200492
0.0016936
0.00140632
0.0011427
0.00090298
0.00068874
0.000504806
0.0003643
0.000295617
0.000318236
0.000399378
0.000499595
0.000601008
0.000696996
0.000785219
0.000864792
0.0009358
0.000998189
0.00105282
0.00109942
0.00113969
0.00117234
0.00120066
0.0012211
0.0012402
0.00124981
0.00126276
0.00126242
0.00127283
0.00126278
0.00127486
0.00125476
0.00127337
0.00124249
0.00127299
0.00123079
0.00127868
0.0012256
0.00129621
0.00123466
0.00133288
0.00126808
0.00139877
0.00133957
0.00150706
0.00146857
0.00168052
0.00166198
0.00196731
0.0175419
0.0163134
0.0151596
0.0140743
0.0130518
0.0120871
0.011176
0.010315
0.009501
0.00873166
0.00800483
0.00731863
0.00667136
0.00606144
0.00548735
0.00494764
0.00444091
0.00396579
0.003521
0.00310528
0.00271746
0.00235644
0.00202123
0.00171099
0.00142511
0.00116335
0.000926191
0.000715604
0.000536875
0.000402728
0.000336605
0.000352099
0.000423451
0.000516537
0.000613277
0.000706143
0.000792194
0.000870198
0.000940038
0.00100154
0.00105547
0.00110153
0.00114135
0.00117364
0.00120167
0.00122186
0.00124075
0.0012502
0.001263
0.00126255
0.00127284
0.00126272
0.00127471
0.00125454
0.00127308
0.00124214
0.00127258
0.00123031
0.00127817
0.00122499
0.00129558
0.00123396
0.001332
0.00126759
0.00139719
0.00133984
0.00150489
0.0014683
0.0016805
0.00166027
0.00196722
0.017568
0.016336
0.0151789
0.0140907
0.013066
0.0120997
0.0111875
0.0103259
0.00951176
0.0087425
0.00801594
0.00733013
0.00668333
0.0060739
0.00550032
0.00496113
0.00445492
0.00398035
0.00353612
0.00312101
0.00273388
0.00237365
0.00203939
0.00173032
0.00144593
0.00118614
0.000951631
0.000744687
0.00057084
0.000442044
0.000377514
0.000386749
0.000449065
0.000535016
0.000626842
0.000716334
0.0008
0.000876266
0.000944802
0.0010053
0.00105845
0.00110389
0.00114321
0.00117509
0.00120278
0.00122271
0.00124136
0.00125063
0.00126326
0.00126268
0.00127283
0.00126262
0.0012745
0.00125426
0.00127271
0.0012417
0.00127206
0.00122971
0.00127753
0.00122424
0.00129481
0.0012331
0.00133096
0.00126692
0.00139541
0.00133993
0.00150248
0.00146782
0.00168031
0.00165831
0.001967
0.0175931
0.016358
0.0151979
0.0141072
0.0130805
0.0121128
0.0111997
0.0103376
0.00952339
0.00875431
0.0080281
0.00734276
0.00669648
0.00608761
0.0055146
0.00497598
0.00447035
0.00399637
0.00355276
0.00313832
0.00275193
0.00239256
0.00205931
0.00175149
0.00146868
0.00121091
0.000979086
0.0007757
0.000606344
0.000481992
0.000418334
0.00042197
0.00047596
0.000554872
0.000641619
0.000727524
0.000808613
0.000882982
0.000950085
0.00100948
0.00106176
0.00110651
0.00114527
0.00117671
0.00120402
0.00122364
0.00124202
0.00125108
0.00126351
0.00126278
0.00127279
0.00126246
0.00127422
0.0012539
0.00127225
0.00124116
0.00127144
0.001229
0.00127676
0.00122334
0.00129389
0.00123206
0.00132975
0.00126603
0.00139344
0.00133978
0.00149986
0.00146709
0.00167991
0.00165609
0.00196663
0.0176164
0.0163788
0.0152163
0.0141235
0.0130951
0.0121262
0.0112124
0.01035
0.00953581
0.00876701
0.00804124
0.00735644
0.00671076
0.00610251
0.00553012
0.00499213
0.00448713
0.00401379
0.00357085
0.00315713
0.00277154
0.00241308
0.00208091
0.0017744
0.0014932
0.00123751
0.00100835
0.00080838
0.00064309
0.000522391
0.000459057
0.000457609
0.000503918
0.000575958
0.000657523
0.00073967
0.000818013
0.000890337
0.000955884
0.00101407
0.00106541
0.00110939
0.00114754
0.00117847
0.00120537
0.00122465
0.00124274
0.00125156
0.00126377
0.00126288
0.00127271
0.00126227
0.00127389
0.00125346
0.00127169
0.00124052
0.0012707
0.00122815
0.00127585
0.00122228
0.0012928
0.00123082
0.00132837
0.00126491
0.00139129
0.00133933
0.00149706
0.00146607
0.00167926
0.00165363
0.00196608
0.0176372
0.0163978
0.0152335
0.0141391
0.0131094
0.0121396
0.0112254
0.0103629
0.00954893
0.00878052
0.0080553
0.00737112
0.0067261
0.00611854
0.00554684
0.00500953
0.0045052
0.00403255
0.00359033
0.00317738
0.00279263
0.00243513
0.00210409
0.00179892
0.00151939
0.00126577
0.00103923
0.000842492
0.000680839
0.000563107
0.000499678
0.000493554
0.00053276
0.000598137
0.000674476
0.000752728
0.000828176
0.00089832
0.000962195
0.00101908
0.00106939
0.00111255
0.00115002
0.00118041
0.00120684
0.00122574
0.00124351
0.00125207
0.00126404
0.00126296
0.00127261
0.00126202
0.00127349
0.00125295
0.00127105
0.00123977
0.00126985
0.00122717
0.0012748
0.00122106
0.00129156
0.00122939
0.0013268
0.00126353
0.00138897
0.00133855
0.00149408
0.00146473
0.00167832
0.00165092
0.00196534
0.0176548
0.0164145
0.0152492
0.0141538
0.0131233
0.012153
0.0112386
0.0103763
0.00956264
0.00879478
0.0080702
0.00738673
0.00674246
0.00613564
0.00556468
0.0050281
0.00452451
0.00405259
0.00361113
0.00319899
0.00281512
0.00245862
0.00212874
0.00182496
0.00154711
0.00129555
0.00107155
0.000877827
0.000719393
0.000604039
0.000540191
0.000529724
0.00056234
0.000621291
0.000692402
0.000766656
0.000839081
0.000906923
0.000969018
0.00102451
0.0010737
0.00111597
0.00115271
0.00118251
0.00120844
0.00122694
0.00124435
0.00125261
0.00126432
0.00126303
0.00127247
0.00126173
0.00127303
0.00125237
0.00127032
0.00123892
0.00126888
0.00122606
0.00127361
0.00121968
0.00129015
0.00122774
0.00132506
0.00126187
0.0013865
0.00133739
0.00149097
0.00146305
0.00167708
0.00164796
0.00196438
0.0176687
0.0164285
0.0152629
0.0141672
0.0131365
0.0121661
0.0112519
0.01039
0.00957688
0.00880969
0.00808588
0.00740322
0.00675977
0.00615376
0.0055836
0.0050478
0.00454498
0.00407384
0.00363318
0.00322188
0.00283894
0.00248347
0.00215478
0.0018524
0.00157623
0.0013267
0.00110513
0.000914203
0.00075859
0.000645113
0.000580591
0.000566058
0.000592537
0.000645311
0.000711229
0.000781414
0.000850708
0.000916137
0.000976352
0.00103036
0.00107837
0.00111968
0.00115564
0.00118479
0.00121019
0.00122824
0.00124526
0.00125321
0.00126463
0.00126311
0.00127232
0.00126141
0.00127251
0.00125172
0.00126951
0.00123798
0.0012678
0.00122483
0.00127228
0.00121813
0.00128857
0.0012259
0.00132315
0.00125993
0.00138388
0.00133584
0.00148773
0.00146099
0.00167551
0.00164477
0.00196319
0.0176786
0.0164395
0.0152745
0.0141791
0.0131488
0.0121789
0.0112652
0.0104039
0.00959155
0.0088252
0.00810228
0.00742052
0.00677797
0.00617284
0.00560353
0.00506856
0.00456656
0.00409624
0.00365641
0.00324599
0.002864
0.0025096
0.00218211
0.00188114
0.00160663
0.00135908
0.00113982
0.00095146
0.000798299
0.000686272
0.000620875
0.000602509
0.000623254
0.000670102
0.000730891
0.000796961
0.000863036
0.000925955
0.000984196
0.00103664
0.00108339
0.00112369
0.0011588
0.00118727
0.00121208
0.00122965
0.00124626
0.00125387
0.00126497
0.0012632
0.00127217
0.00126107
0.00127196
0.00125101
0.00126862
0.00123695
0.00126661
0.00122347
0.00127083
0.00121643
0.00128684
0.00122385
0.00132107
0.00125771
0.00138115
0.00133386
0.0014844
0.00145855
0.00167362
0.00164136
0.00196177
0.0176843
0.0164473
0.0152838
0.0141895
0.0131601
0.0121911
0.0112783
0.0104179
0.00960657
0.00884124
0.00811933
0.00743858
0.006797
0.00619281
0.00562441
0.00509032
0.00458918
0.00411971
0.00368076
0.00327125
0.00289024
0.00253691
0.00221065
0.00191108
0.00163821
0.00139257
0.00117549
0.000989463
0.000838415
0.00072747
0.000661042
0.000639042
0.000654409
0.000695581
0.000751326
0.000813259
0.000876045
0.000936368
0.000992551
0.00104335
0.00108878
0.00112799
0.00116222
0.00118995
0.00121414
0.0012312
0.00124735
0.0012546
0.00126536
0.00126332
0.00127202
0.00126071
0.00127138
0.00125027
0.00126767
0.00123584
0.00126534
0.00122201
0.00126925
0.00121459
0.00128497
0.0012216
0.00131885
0.00125519
0.00137832
0.00133145
0.00148099
0.00145572
0.00167138
0.00163772
0.00196011
0.0176856
0.0164517
0.0152905
0.0141982
0.0131703
0.0122027
0.0112912
0.010432
0.00962189
0.00885774
0.00813697
0.00745733
0.00681681
0.00621363
0.00564619
0.00511303
0.00461278
0.00414421
0.00370615
0.00329758
0.00291757
0.00256534
0.0022403
0.00194213
0.00167086
0.00142705
0.00121202
0.00102809
0.000878848
0.000768676
0.00070109
0.000675629
0.000685936
0.000721674
0.000772475
0.000830271
0.000889715
0.000947369
0.00100142
0.00105051
0.00109453
0.00113261
0.0011659
0.00119285
0.00121638
0.00123289
0.00124857
0.00125541
0.00126581
0.00126349
0.00127189
0.00126036
0.00127079
0.00124949
0.00126668
0.00123467
0.00126399
0.00122046
0.00126756
0.00121262
0.00128296
0.00121918
0.00131648
0.0012524
0.0013754
0.00132861
0.00147753
0.00145251
0.00166882
0.00163389
0.00195822
0.0176826
0.0164527
0.0152948
0.0142051
0.0131794
0.0122136
0.0113038
0.0104462
0.00963745
0.00887465
0.00815516
0.00747672
0.00683734
0.00623524
0.00566882
0.00513662
0.00463732
0.00416966
0.00373254
0.00332493
0.00294593
0.0025948
0.00227099
0.00197419
0.00170448
0.00146242
0.00124928
0.00106725
0.000919529
0.000809863
0.00074102
0.000712249
0.000717779
0.000748315
0.000794287
0.000847962
0.000904025
0.000958947
0.00101079
0.0010581
0.00110067
0.00113756
0.00116985
0.00119599
0.00121882
0.00123475
0.00124991
0.00125634
0.00126635
0.00126371
0.0012718
0.00126004
0.00127019
0.0012487
0.00126566
0.00123346
0.00126258
0.00121883
0.00126579
0.00121054
0.00128084
0.00121658
0.00131399
0.00124934
0.00137241
0.00132534
0.00147404
0.00144892
0.00166593
0.00162986
0.0019561
0.0176753
0.0164504
0.0152966
0.0142102
0.0131872
0.0122238
0.011316
0.0104603
0.0096532
0.00889191
0.00817384
0.00749671
0.00685855
0.00625759
0.00569224
0.00516106
0.00466273
0.00419603
0.00375986
0.00335323
0.00297526
0.00262524
0.00230263
0.00200719
0.00173898
0.00149858
0.0012872
0.00110686
0.0009604
0.000851011
0.000780831
0.000748886
0.000749891
0.000775447
0.000816709
0.000866294
0.000918953
0.000971094
0.00102067
0.00106614
0.0011072
0.00114284
0.0011741
0.00119937
0.00122146
0.00123678
0.0012514
0.00125738
0.00126698
0.00126401
0.00127176
0.00125974
0.00126961
0.00124791
0.00126462
0.00123222
0.00126112
0.00121714
0.00126394
0.00120835
0.00127861
0.00121383
0.0013114
0.00124602
0.00136938
0.00132164
0.00147053
0.00144495
0.00166274
0.00162566
0.00195375
0.0176639
0.0164449
0.015296
0.0142135
0.0131939
0.0122333
0.0113279
0.0104743
0.00966909
0.0089095
0.00819297
0.00751726
0.0068804
0.00628065
0.00571642
0.0051863
0.00468898
0.00422326
0.00378807
0.00338243
0.00300549
0.00265657
0.00233517
0.00204105
0.00177429
0.00153545
0.00132568
0.00114683
0.00100142
0.000892106
0.000820526
0.000785525
0.000782234
0.000803017
0.000839694
0.000885233
0.000934476
0.000983795
0.00103106
0.00107462
0.00111412
0.00114847
0.00117864
0.00120301
0.00122433
0.001239
0.00125305
0.00125856
0.00126772
0.00126439
0.00127179
0.0012595
0.00126907
0.00124714
0.00126358
0.00123097
0.00125963
0.0012154
0.00126203
0.00120608
0.0012763
0.00121094
0.00130872
0.00124245
0.00136632
0.00131755
0.00146703
0.00144062
0.00165926
0.00162129
0.00195118
0.0176487
0.0164364
0.015293
0.0142152
0.0131994
0.012242
0.0113394
0.0104882
0.00968509
0.00892738
0.00821252
0.00753833
0.00690285
0.00630437
0.00574132
0.0052123
0.00471602
0.00425131
0.00381711
0.00341247
0.00303658
0.00268876
0.00236854
0.0020757
0.00181033
0.00157296
0.00136466
0.00118712
0.00104254
0.000933136
0.000860105
0.000822155
0.000814771
0.000830979
0.000863198
0.000904743
0.000950571
0.000997036
0.00104194
0.00108355
0.00112143
0.00115444
0.00118349
0.00120691
0.00122742
0.00124142
0.00125487
0.00125988
0.00126858
0.00126488
0.00127191
0.00125932
0.00126857
0.0012464
0.00126255
0.00122971
0.00125813
0.00121362
0.00126007
0.00120373
0.00127392
0.00120793
0.00130597
0.00123866
0.00136324
0.00131306
0.00146353
0.00143595
0.0016555
0.00161677
0.00194841
0.01763
0.0164251
0.0152879
0.0142152
0.0132038
0.0122501
0.0113506
0.010502
0.0097012
0.00894551
0.00823246
0.00755989
0.00692587
0.00632872
0.0057669
0.00523901
0.00474381
0.00428013
0.00384694
0.00344332
0.00306847
0.00272174
0.00240268
0.00211108
0.00184703
0.00161103
0.00140408
0.00122767
0.00108373
0.000974093
0.000899569
0.000858767
0.000847474
0.00085929
0.000887178
0.000924789
0.00096721
0.0010108
0.0010533
0.00109292
0.00112914
0.00116076
0.00118864
0.00121109
0.00123076
0.00124405
0.00125687
0.00126136
0.00126958
0.00126549
0.00127212
0.00125923
0.00126814
0.0012457
0.00126156
0.00122847
0.00125662
0.00121184
0.00125808
0.00120134
0.00127148
0.0012048
0.00130315
0.00123466
0.00136016
0.00130821
0.00146006
0.00143095
0.00165149
0.00161211
0.00194544
0.017608
0.0164111
0.0152807
0.0142138
0.0132071
0.0122574
0.0113613
0.0105156
0.00971738
0.00896389
0.00825277
0.00758191
0.00694944
0.00635368
0.00579312
0.00526642
0.00477231
0.00430969
0.00387753
0.00347494
0.00310112
0.00275547
0.00243755
0.00214714
0.00188434
0.00164962
0.00144387
0.00126844
0.00112498
0.00101497
0.000938921
0.000895352
0.000880315
0.000887911
0.000911592
0.000945334
0.000984366
0.00102507
0.00106514
0.00110273
0.00113724
0.00116744
0.00119411
0.00121554
0.00123434
0.00124689
0.00125906
0.00126301
0.00127071
0.00126621
0.00127243
0.00125921
0.00126777
0.00124506
0.0012606
0.00122726
0.00125512
0.00121004
0.00125607
0.0011989
0.001269
0.00120158
0.00130029
0.00123046
0.00135708
0.001303
0.00145662
0.00142563
0.00164725
0.00160731
0.00194228
0.0175831
0.0163948
0.0152717
0.0142109
0.0132095
0.0122642
0.0113717
0.0105292
0.00973364
0.00898249
0.00827342
0.00760437
0.00697351
0.00637921
0.00581998
0.00529448
0.00480151
0.00433997
0.00390885
0.00350727
0.0031345
0.00278991
0.00247308
0.00218382
0.00192221
0.00168867
0.001484
0.0013094
0.00116626
0.00105577
0.000978159
0.0009319
0.00091327
0.000916804
0.000936401
0.000966344
0.00100201
0.00103982
0.00107743
0.00111295
0.00114572
0.00117446
0.00119989
0.00122027
0.00123817
0.00124995
0.00126145
0.00126483
0.001272
0.00126707
0.00127285
0.0012593
0.00126748
0.00124449
0.00125969
0.00122608
0.00125364
0.00120825
0.00125405
0.00119642
0.00126648
0.00119828
0.00129738
0.00122607
0.00135402
0.00129746
0.00145321
0.00142002
0.00164278
0.00160239
0.00193893
0.0175556
0.0163763
0.015261
0.0142068
0.0132109
0.0122703
0.0113818
0.0105426
0.00974997
0.00900131
0.0082944
0.00762726
0.00699809
0.0064053
0.00584743
0.00532319
0.00483137
0.00437092
0.00394085
0.0035403
0.00316855
0.00282501
0.00250925
0.00222109
0.00196059
0.00172813
0.00152442
0.0013505
0.00120755
0.00109647
0.00101728
0.000968405
0.000946315
0.000945936
0.000961566
0.000987781
0.00102011
0.00105502
0.00109016
0.00112359
0.00115458
0.00118182
0.00120598
0.00122528
0.00124224
0.00125323
0.00126402
0.00126681
0.00127344
0.00126805
0.00127338
0.00125948
0.00126726
0.00124398
0.00125883
0.00122493
0.00125219
0.00120646
0.00125202
0.00119393
0.00126393
0.00119489
0.00129445
0.00122151
0.00135096
0.0012916
0.00144984
0.00141411
0.00163811
0.00159734
0.0019354
0.0175258
0.016356
0.0152488
0.0142015
0.0132115
0.0122759
0.0113916
0.010556
0.00976638
0.00902034
0.00831571
0.00765056
0.00702316
0.00643193
0.00587547
0.00535251
0.00486188
0.00440253
0.00397351
0.003574
0.00320326
0.00286073
0.00254601
0.0022589
0.00199944
0.00176796
0.0015651
0.00139173
0.00124883
0.00113708
0.0010563
0.00100486
0.000979429
0.000975272
0.000987048
0.00100961
0.00103864
0.00107066
0.00110331
0.00113462
0.00116381
0.00118951
0.00121236
0.00123055
0.00124655
0.00125673
0.00126679
0.00126897
0.00127502
0.00126917
0.00127403
0.00125976
0.00126713
0.00124354
0.00125802
0.00122383
0.00125075
0.00120469
0.00125
0.0011914
0.00126135
0.00119144
0.00129148
0.00121678
0.00134793
0.00128544
0.0014465
0.00140791
0.00163323
0.00159218
0.00193168
0.017494
0.016334
0.0152353
0.0141953
0.0132114
0.012281
0.0114011
0.0105693
0.00978287
0.00903958
0.00833734
0.00767427
0.00704869
0.00645908
0.00590407
0.00538242
0.004893
0.00443477
0.00400681
0.00360832
0.00323859
0.00289706
0.00258333
0.00229721
0.00203872
0.00180813
0.001606
0.00143306
0.0012901
0.00117759
0.00109519
0.00104125
0.00101259
0.00100478
0.00101281
0.00103179
0.00105756
0.0010867
0.00111685
0.00114601
0.00117337
0.00119752
0.00121903
0.00123608
0.00125109
0.00126043
0.00126974
0.00127129
0.00127675
0.00127042
0.00127479
0.00126013
0.00126708
0.00124317
0.00125726
0.00122277
0.00124935
0.00120293
0.00124797
0.00118886
0.00125875
0.00118791
0.00128848
0.0012119
0.0013449
0.00127898
0.00144319
0.00140144
0.00162815
0.0015869
0.00192778
0.0174605
0.0163106
0.0152206
0.0141881
0.0132107
0.0122856
0.0114104
0.0105825
0.00979945
0.00905904
0.00835928
0.00769837
0.00707468
0.00648674
0.00593323
0.00541292
0.00492472
0.00446762
0.00404073
0.00364325
0.00327451
0.00293395
0.00262118
0.00233599
0.00207839
0.00184861
0.00164709
0.00147447
0.00133134
0.001218
0.00113396
0.00107756
0.00104578
0.00103443
0.00103882
0.00105429
0.00107683
0.0011031
0.00113075
0.00115776
0.00118326
0.00120583
0.00122597
0.00124186
0.00125585
0.00126433
0.00127287
0.00127376
0.00127861
0.00127178
0.00127564
0.00126059
0.00126711
0.00124286
0.00125655
0.00122175
0.00124796
0.00120118
0.00124593
0.0011863
0.00125612
0.00118431
0.00128545
0.00120685
0.00134188
0.00127222
0.0014399
0.00139469
0.00162288
0.00158151
0.00192369
0.0174255
0.016286
0.0152049
0.0141802
0.0132093
0.01229
0.0114196
0.0105957
0.00981614
0.00907871
0.00838154
0.00772286
0.00710113
0.00651491
0.00596292
0.00544398
0.00495702
0.00450106
0.00407524
0.00367877
0.00331099
0.00297137
0.00265951
0.00237521
0.00211843
0.00188935
0.00168836
0.00151593
0.00137254
0.00125829
0.0011726
0.00111379
0.00107897
0.00106419
0.00106503
0.00107706
0.00109642
0.00111984
0.00114499
0.00116982
0.00119345
0.00121441
0.00123316
0.00124787
0.00126082
0.00126841
0.00127615
0.00127638
0.0012806
0.00127325
0.0012766
0.00126114
0.00126719
0.0012426
0.00125588
0.00122075
0.00124658
0.00119943
0.00124388
0.0011837
0.00125345
0.00118064
0.00128238
0.00120164
0.00133886
0.00126517
0.00143664
0.00138766
0.0016174
0.001576
0.0019194
0.0173893
0.0162603
0.0151884
0.0141716
0.0132075
0.012294
0.0114285
0.0106089
0.00983294
0.00909862
0.0084041
0.00774774
0.00712801
0.00654356
0.00599313
0.00547558
0.00498988
0.00453507
0.00411031
0.00371484
0.00334801
0.0030093
0.00269831
0.00241483
0.0021588
0.00193034
0.00172976
0.00155744
0.00141368
0.00129847
0.00121111
0.00114993
0.00111214
0.00109403
0.00109141
0.00110007
0.00111629
0.00113688
0.00115953
0.00118218
0.00120391
0.00122324
0.00124059
0.00125408
0.00126597
0.00127266
0.00127958
0.00127912
0.0012827
0.00127482
0.00127763
0.00126175
0.00126733
0.00124239
0.00125523
0.00121977
0.00124521
0.00119767
0.00124181
0.00118107
0.00125074
0.00117688
0.00127925
0.00119626
0.00133582
0.00125782
0.00143339
0.00138035
0.00161172
0.00157038
0.0019149
0.017352
0.0162337
0.0151712
0.0141624
0.0132053
0.0122977
0.0114374
0.0106221
0.00984988
0.00911875
0.00842698
0.00777299
0.00715534
0.00657269
0.00602386
0.00550772
0.00502329
0.00456964
0.00414593
0.00375145
0.00338554
0.0030477
0.00273755
0.00245482
0.00219946
0.00197154
0.00177128
0.00159896
0.00145475
0.00133851
0.00124947
0.00118595
0.00114527
0.00112391
0.00111792
0.00112328
0.00113641
0.00115418
0.00117433
0.00119479
0.00121462
0.0012323
0.00124821
0.00126048
0.00127129
0.00127705
0.00128314
0.00128198
0.00128489
0.00127647
0.00127872
0.00126241
0.00126751
0.0012422
0.0012546
0.00121879
0.00124383
0.0011959
0.00123971
0.00117838
0.00124797
0.00117304
0.00127606
0.00119071
0.00133276
0.00125017
0.00143013
0.00137274
0.00160581
0.00156464
0.00191017
0.0173139
0.0162064
0.0151533
0.0141527
0.0132028
0.0123013
0.0114462
0.0106354
0.00986696
0.00913912
0.00845018
0.00779863
0.00718309
0.00660229
0.00605508
0.00554038
0.00505723
0.00460473
0.00418208
0.00378856
0.00342356
0.00308656
0.00277718
0.00249516
0.0022404
0.00201293
0.00181289
0.00164047
0.00149573
0.00137841
0.00128767
0.00122183
0.00117833
0.00115381
0.00114452
0.00114664
0.00115671
0.00117171
0.00118936
0.00120763
0.00122554
0.00124156
0.00125602
0.00126703
0.00127674
0.00128156
0.0012868
0.00128492
0.00128714
0.00127817
0.00127985
0.0012631
0.0012677
0.00124202
0.00125396
0.0012178
0.00124242
0.00119408
0.00123755
0.00117564
0.00124513
0.00116909
0.00127279
0.00118498
0.00132965
0.0012422
0.00142686
0.00136481
0.00159966
0.00155877
0.0019052
0.0172751
0.0161784
0.0151349
0.0141427
0.0132
0.0123047
0.0114549
0.0106487
0.00988422
0.00915974
0.0084737
0.00782465
0.00721127
0.00663236
0.0060868
0.00557355
0.00509169
0.00464034
0.00421874
0.00382617
0.00346204
0.00312585
0.00281719
0.00253581
0.00228158
0.00205447
0.00185457
0.00168196
0.00153661
0.00141816
0.0013257
0.00125757
0.00121129
0.00118369
0.00117118
0.00117011
0.00117718
0.00118941
0.00120458
0.00122065
0.00123664
0.00125097
0.00126397
0.00127371
0.0012823
0.00128616
0.00129053
0.00128792
0.00128945
0.00127991
0.00128101
0.0012638
0.00126789
0.00124182
0.0012533
0.00121677
0.00124096
0.00119221
0.00123533
0.00117281
0.0012422
0.00116501
0.00126942
0.00117904
0.00132649
0.0012339
0.00142356
0.00135657
0.00159324
0.00155278
0.00189997
0.0172357
0.01615
0.0151161
0.0141323
0.0131969
0.012308
0.0114636
0.0106621
0.00990163
0.0091806
0.00849752
0.00785103
0.00723986
0.00666287
0.00611897
0.0056072
0.00512663
0.00467644
0.00425587
0.00386424
0.00350095
0.00316552
0.00285754
0.00257674
0.00232296
0.00209614
0.00189628
0.0017234
0.00157736
0.00145772
0.00136353
0.00129313
0.00124413
0.00121351
0.00119784
0.00119366
0.00119775
0.00120725
0.00121995
0.00123382
0.00124787
0.00126052
0.00127203
0.00128049
0.00128794
0.00129082
0.00129431
0.00129095
0.00129177
0.00128165
0.00128215
0.00126449
0.00126805
0.00124159
0.00125259
0.00121569
0.00123943
0.00119026
0.00123301
0.00116988
0.00123915
0.0011608
0.00126593
0.0011729
0.00132323
0.00122525
0.00142022
0.00134797
0.00158655
0.00154665
0.00189445
0.0171959
0.0161212
0.015097
0.0141218
0.0131938
0.0123112
0.0114724
0.0106757
0.00991929
0.00920177
0.00852171
0.00787782
0.0072689
0.00669385
0.00615165
0.00564135
0.00516208
0.00471304
0.00429348
0.00390276
0.00354028
0.00320557
0.00289821
0.00261793
0.00236453
0.0021379
0.001938
0.00176476
0.00161796
0.00149709
0.00140115
0.00132849
0.00127682
0.00124323
0.00122447
0.00121722
0.00121839
0.00122517
0.00123541
0.00124709
0.0012592
0.00127014
0.00128016
0.00128732
0.00129362
0.00129551
0.0012981
0.00129398
0.00129408
0.00128337
0.00128326
0.00126512
0.00126815
0.0012413
0.0012518
0.00121452
0.00123781
0.00118821
0.00123057
0.00116682
0.00123597
0.00115643
0.00126229
0.00116652
0.00131987
0.00121624
0.0014168
0.00133902
0.00157954
0.00154037
0.00188863
0.0171558
0.0160921
0.0150777
0.0141111
0.0131905
0.0123145
0.0114813
0.0106894
0.00993719
0.00922324
0.00854626
0.00790501
0.00729837
0.00672529
0.0061848
0.00567598
0.00519801
0.0047501
0.00433154
0.0039417
0.00358
0.00324595
0.00293917
0.00265933
0.00240623
0.00217972
0.00197969
0.00180601
0.00165838
0.00153622
0.0014385
0.00136361
0.0013093
0.0012728
0.00125102
0.00124075
0.00123903
0.00124313
0.00125092
0.00126041
0.00127057
0.00127981
0.00128832
0.00129417
0.00129931
0.00130019
0.00130187
0.00129698
0.00129634
0.00128503
0.0012843
0.00126569
0.00126816
0.00124091
0.0012509
0.00121325
0.00123606
0.00118602
0.001228
0.00116361
0.00123261
0.00115188
0.00125847
0.00115989
0.00131636
0.00120685
0.0014133
0.00132967
0.0015722
0.00153393
0.00188247
0.00139845
0.00134154
0.00130219
0.00127743
0.00126419
0.00125962
0.00126106
0.00126642
0.00127372
0.00128194
0.00128946
0.00129645
0.00130098
0.00130495
0.00130482
0.00130557
0.0012999
0.00129851
0.00128659
0.00128524
0.00126614
0.00126805
0.00124039
0.00124986
0.00121183
0.00123415
0.00118368
0.00122524
0.00116023
0.00122907
0.00114712
0.00125445
0.00115299
0.00131268
0.00119705
0.00140967
0.00131991
0.00156448
0.00152732
0.00187594
0.0177511
0.0165148
0.015354
0.0142621
0.013233
0.0122616
0.0113435
0.0104753