/*--------------------------------*- C++ -*----------------------------------*\
| =========                 |                                                 |
| \\      /  F ield         | OpenFOAM: The Open Source CFD Toolbox           |
|  \\    /   O peration     | Version:  2412                                  |
|   \\  /    A nd           | Website:  www.openfoam.com                      |
|    \\/     M anipulation  |                                                 |
\*---------------------------------------------------------------------------*/
FoamFile
{
    version     2.0;
    format      ascii;
    arch        "LSB;label=32;scalar=64";
    class       volVectorField;
    location    "30";
    object      UA;
}
// * * * * * * * * * * * * * * * * * * * * * * * * * * * * * * * * * * * * * //

dimensions      [0 1 -1 0 0 0 0];

internalField   nonuniform List<vector> 
5285
(
(0.09942 -4.46928e-06 0)
(0.0994409 -4.22992e-06 0)
(0.0994611 -4.00306e-06 0)
(0.0994805 -3.78808e-06 0)
(0.0994993 -3.58436e-06 0)
(0.0995175 -3.39134e-06 0)
(0.099535 -3.20848e-06 0)
(0.0995519 -3.03526e-06 0)
(0.0995682 -2.87118e-06 0)
(0.0995839 -2.71579e-06 0)
(0.0995991 -2.56862e-06 0)
(0.0996137 -2.42926e-06 0)
(0.0996278 -2.29732e-06 0)
(0.0996414 -2.17239e-06 0)
(0.0996546 -2.05413e-06 0)
(0.0996672 -1.94218e-06 0)
(0.0996794 -1.83621e-06 0)
(0.0996912 -1.73592e-06 0)
(0.0997026 -1.64102e-06 0)
(0.0997135 -1.5512e-06 0)
(0.0997241 -1.46622e-06 0)
(0.0997343 -1.38581e-06 0)
(0.0997441 -1.30975e-06 0)
(0.0997536 -1.23778e-06 0)
(0.0997627 -1.16971e-06 0)
(0.0997715 -1.10532e-06 0)
(0.0997799 -1.04443e-06 0)
(0.0997881 -9.86834e-07 0)
(0.099796 -9.3237e-07 0)
(0.0998036 -8.80868e-07 0)
(0.0998109 -8.32171e-07 0)
(0.0998179 -7.86128e-07 0)
(0.0998247 -7.42598e-07 0)
(0.0998312 -7.01446e-07 0)
(0.0998375 -6.62545e-07 0)
(0.0998436 -6.25773e-07 0)
(0.0998494 -5.91016e-07 0)
(0.0998551 -5.58166e-07 0)
(0.0998605 -5.2712e-07 0)
(0.0998657 -4.9778e-07 0)
(0.0998708 -4.70054e-07 0)
(0.0998756 -4.43855e-07 0)
(0.0998803 -4.191e-07 0)
(0.0998848 -3.9571e-07 0)
(0.0998891 -3.73611e-07 0)
(0.0998933 -3.52734e-07 0)
(0.0998973 -3.33011e-07 0)
(0.0999012 -3.1438e-07 0)
(0.0999049 -2.96781e-07 0)
(0.0999085 -2.80157e-07 0)
(0.0999119 -2.64456e-07 0)
(0.0999152 -2.49626e-07 0)
(0.0999184 -2.3562e-07 0)
(0.0999215 -2.22393e-07 0)
(0.0999245 -2.09902e-07 0)
(0.0999274 -1.98107e-07 0)
(0.0999301 -1.86969e-07 0)
(0.0999327 -1.76451e-07 0)
(0.0999353 -1.66521e-07 0)
(0.0999377 -1.57145e-07 0)
(0.0999401 -1.48293e-07 0)
(0.0999424 -1.39935e-07 0)
(0.0999446 -1.32045e-07 0)
(0.0999467 -1.24597e-07 0)
(0.0999487 -1.17566e-07 0)
(0.0999506 -1.10928e-07 0)
(0.0999525 -1.04663e-07 0)
(0.0999543 -9.87493e-08 0)
(0.0999561 -9.31674e-08 0)
(0.0999577 -8.7899e-08 0)
(0.0999593 -8.29266e-08 0)
(0.0994202 -1.34046e-05 0)
(0.0994411 -1.26869e-05 0)
(0.0994612 -1.20065e-05 0)
(0.0994807 -1.13618e-05 0)
(0.0994995 -1.07509e-05 0)
(0.0995176 -1.0172e-05 0)
(0.0995351 -9.62362e-06 0)
(0.099552 -9.10411e-06 0)
(0.0995683 -8.61203e-06 0)
(0.099584 -8.14597e-06 0)
(0.0995992 -7.7046e-06 0)
(0.0996138 -7.28664e-06 0)
(0.0996279 -6.8909e-06 0)
(0.0996415 -6.51621e-06 0)
(0.0996546 -6.16151e-06 0)
(0.0996673 -5.82573e-06 0)
(0.0996795 -5.50792e-06 0)
(0.0996913 -5.20712e-06 0)
(0.0997026 -4.92245e-06 0)
(0.0997136 -4.65306e-06 0)
(0.0997241 -4.39816e-06 0)
(0.0997343 -4.15699e-06 0)
(0.0997441 -3.92882e-06 0)
(0.0997536 -3.71297e-06 0)
(0.0997627 -3.50879e-06 0)
(0.0997715 -3.31566e-06 0)
(0.09978 -3.133e-06 0)
(0.0997881 -2.96024e-06 0)
(0.099796 -2.79688e-06 0)
(0.0998036 -2.64239e-06 0)
(0.0998109 -2.49632e-06 0)
(0.0998179 -2.35821e-06 0)
(0.0998247 -2.22763e-06 0)
(0.0998313 -2.10419e-06 0)
(0.0998376 -1.9875e-06 0)
(0.0998436 -1.8772e-06 0)
(0.0998495 -1.77294e-06 0)
(0.0998551 -1.6744e-06 0)
(0.0998605 -1.58127e-06 0)
(0.0998657 -1.49326e-06 0)
(0.0998708 -1.41009e-06 0)
(0.0998756 -1.3315e-06 0)
(0.0998803 -1.25724e-06 0)
(0.0998848 -1.18707e-06 0)
(0.0998891 -1.12078e-06 0)
(0.0998933 -1.05816e-06 0)
(0.0998973 -9.98991e-07 0)
(0.0999012 -9.43101e-07 0)
(0.0999049 -8.90307e-07 0)
(0.0999085 -8.40439e-07 0)
(0.0999119 -7.93338e-07 0)
(0.0999153 -7.48852e-07 0)
(0.0999185 -7.06837e-07 0)
(0.0999215 -6.67158e-07 0)
(0.0999245 -6.29687e-07 0)
(0.0999274 -5.94303e-07 0)
(0.0999301 -5.6089e-07 0)
(0.0999328 -5.29339e-07 0)
(0.0999353 -4.99549e-07 0)
(0.0999378 -4.71422e-07 0)
(0.0999401 -4.44867e-07 0)
(0.0999424 -4.19796e-07 0)
(0.0999446 -3.96127e-07 0)
(0.0999467 -3.73782e-07 0)
(0.0999487 -3.52689e-07 0)
(0.0999506 -3.32778e-07 0)
(0.0999525 -3.13983e-07 0)
(0.0999543 -2.96242e-07 0)
(0.0999561 -2.79497e-07 0)
(0.0999577 -2.63693e-07 0)
(0.0999593 -2.48776e-07 0)
(0.0994206 -2.23305e-05 0)
(0.0994415 -2.11351e-05 0)
(0.0994616 -2.00021e-05 0)
(0.099481 -1.89283e-05 0)
(0.0994998 -1.79108e-05 0)
(0.0995179 -1.69467e-05 0)
(0.0995354 -1.60333e-05 0)
(0.0995522 -1.5168e-05 0)
(0.0995685 -1.43483e-05 0)
(0.0995842 -1.3572e-05 0)
(0.0995994 -1.28368e-05 0)
(0.099614 -1.21406e-05 0)
(0.0996281 -1.14813e-05 0)
(0.0996417 -1.08572e-05 0)
(0.0996548 -1.02663e-05 0)
(0.0996674 -9.70691e-06 0)
(0.0996796 -9.17745e-06 0)
(0.0996914 -8.67633e-06 0)
(0.0997028 -8.20208e-06 0)
(0.0997137 -7.75329e-06 0)
(0.0997242 -7.32862e-06 0)
(0.0997344 -6.92681e-06 0)
(0.0997442 -6.54667e-06 0)
(0.0997537 -6.18704e-06 0)
(0.0997628 -5.84685e-06 0)
(0.0997716 -5.52507e-06 0)
(0.09978 -5.22072e-06 0)
(0.0997882 -4.93288e-06 0)
(0.0997961 -4.66068e-06 0)
(0.0998036 -4.40328e-06 0)
(0.0998109 -4.15989e-06 0)
(0.099818 -3.92976e-06 0)
(0.0998248 -3.71219e-06 0)
(0.0998313 -3.5065e-06 0)
(0.0998376 -3.31206e-06 0)
(0.0998436 -3.12826e-06 0)
(0.0998495 -2.95454e-06 0)
(0.0998551 -2.79034e-06 0)
(0.0998605 -2.63515e-06 0)
(0.0998658 -2.48849e-06 0)
(0.0998708 -2.3499e-06 0)
(0.0998756 -2.21894e-06 0)
(0.0998803 -2.09519e-06 0)
(0.0998848 -1.97827e-06 0)
(0.0998891 -1.8678e-06 0)
(0.0998933 -1.76344e-06 0)
(0.0998973 -1.66485e-06 0)
(0.0999012 -1.57171e-06 0)
(0.0999049 -1.48373e-06 0)
(0.0999085 -1.40063e-06 0)
(0.0999119 -1.32213e-06 0)
(0.0999153 -1.248e-06 0)
(0.0999185 -1.17798e-06 0)
(0.0999215 -1.11186e-06 0)
(0.0999245 -1.04941e-06 0)
(0.0999274 -9.90446e-07 0)
(0.0999301 -9.34762e-07 0)
(0.0999328 -8.82184e-07 0)
(0.0999353 -8.32538e-07 0)
(0.0999378 -7.85664e-07 0)
(0.0999401 -7.41408e-07 0)
(0.0999424 -6.99626e-07 0)
(0.0999446 -6.60181e-07 0)
(0.0999467 -6.22943e-07 0)
(0.0999487 -5.87791e-07 0)
(0.0999507 -5.54607e-07 0)
(0.0999525 -5.23285e-07 0)
(0.0999543 -4.93719e-07 0)
(0.0999561 -4.65812e-07 0)
(0.0999577 -4.39472e-07 0)
(0.0999594 -4.14612e-07 0)
(0.0994212 -3.12404e-05 0)
(0.099442 -2.95688e-05 0)
(0.0994621 -2.79844e-05 0)
(0.0994815 -2.64827e-05 0)
(0.0995003 -2.50597e-05 0)
(0.0995183 -2.37113e-05 0)
(0.0995358 -2.24337e-05 0)
(0.0995526 -2.12235e-05 0)
(0.0995689 -2.0077e-05 0)
(0.0995845 -1.89911e-05 0)
(0.0995997 -1.79626e-05 0)
(0.0996142 -1.69887e-05 0)
(0.0996283 -1.60665e-05 0)
(0.0996419 -1.51933e-05 0)
(0.099655 -1.43667e-05 0)
(0.0996676 -1.35841e-05 0)
(0.0996798 -1.28434e-05 0)
(0.0996916 -1.21423e-05 0)
(0.0997029 -1.14787e-05 0)
(0.0997138 -1.08508e-05 0)
(0.0997244 -1.02566e-05 0)
(0.0997345 -9.69438e-06 0)
(0.0997443 -9.16246e-06 0)
(0.0997538 -8.65924e-06 0)
(0.0997629 -8.18321e-06 0)
(0.0997717 -7.73293e-06 0)
(0.0997801 -7.30704e-06 0)
(0.0997883 -6.90424e-06 0)
(0.0997961 -6.52332e-06 0)
(0.0998037 -6.1631e-06 0)
(0.099811 -5.82249e-06 0)
(0.099818 -5.50044e-06 0)
(0.0998248 -5.19595e-06 0)
(0.0998313 -4.90809e-06 0)
(0.0998376 -4.63596e-06 0)
(0.0998437 -4.37873e-06 0)
(0.0998495 -4.13559e-06 0)
(0.0998552 -3.90577e-06 0)
(0.0998606 -3.68858e-06 0)
(0.0998658 -3.48331e-06 0)
(0.0998708 -3.28934e-06 0)
(0.0998757 -3.10604e-06 0)
(0.0998803 -2.93283e-06 0)
(0.0998848 -2.76918e-06 0)
(0.0998892 -2.61457e-06 0)
(0.0998933 -2.46849e-06 0)
(0.0998973 -2.33049e-06 0)
(0.0999012 -2.20012e-06 0)
(0.0999049 -2.07698e-06 0)
(0.0999085 -1.96066e-06 0)
(0.099912 -1.85079e-06 0)
(0.0999153 -1.74702e-06 0)
(0.0999185 -1.64901e-06 0)
(0.0999216 -1.55645e-06 0)
(0.0999245 -1.46904e-06 0)
(0.0999274 -1.3865e-06 0)
(0.0999301 -1.30856e-06 0)
(0.0999328 -1.23496e-06 0)
(0.0999353 -1.16546e-06 0)
(0.0999378 -1.09985e-06 0)
(0.0999401 -1.0379e-06 0)
(0.0999424 -9.79407e-07 0)
(0.0999446 -9.2419e-07 0)
(0.0999467 -8.72063e-07 0)
(0.0999487 -8.22855e-07 0)
(0.0999507 -7.76403e-07 0)
(0.0999525 -7.32556e-07 0)
(0.0999543 -6.91167e-07 0)
(0.0999561 -6.52102e-07 0)
(0.0999577 -6.15229e-07 0)
(0.0999594 -5.80428e-07 0)
(0.0994221 -4.01281e-05 0)
(0.0994428 -3.79823e-05 0)
(0.0994628 -3.59482e-05 0)
(0.0994822 -3.40203e-05 0)
(0.0995009 -3.21932e-05 0)
(0.0995189 -3.04619e-05 0)
(0.0995363 -2.88214e-05 0)
(0.0995531 -2.72673e-05 0)
(0.0995693 -2.5795e-05 0)
(0.099585 -2.44005e-05 0)
(0.0996 -2.30797e-05 0)
(0.0996146 -2.18288e-05 0)
(0.0996287 -2.06444e-05 0)
(0.0996422 -1.95228e-05 0)
(0.0996553 -1.8461e-05 0)
(0.0996679 -1.74558e-05 0)
(0.0996801 -1.65042e-05 0)
(0.0996918 -1.56036e-05 0)
(0.0997031 -1.47512e-05 0)
(0.099714 -1.39445e-05 0)
(0.0997246 -1.31811e-05 0)
(0.0997347 -1.24588e-05 0)
(0.0997445 -1.17754e-05 0)
(0.0997539 -1.11288e-05 0)
(0.099763 -1.05172e-05 0)
(0.0997718 -9.93861e-06 0)
(0.0997802 -9.39138e-06 0)
(0.0997884 -8.8738e-06 0)
(0.0997962 -8.38432e-06 0)
(0.0998038 -7.92144e-06 0)
(0.0998111 -7.48374e-06 0)
(0.0998181 -7.06988e-06 0)
(0.0998249 -6.67859e-06 0)
(0.0998314 -6.30866e-06 0)
(0.0998377 -5.95894e-06 0)
(0.0998438 -5.62835e-06 0)
(0.0998496 -5.31587e-06 0)
(0.0998552 -5.02052e-06 0)
(0.0998606 -4.74137e-06 0)
(0.0998658 -4.47756e-06 0)
(0.0998709 -4.22825e-06 0)
(0.0998757 -3.99266e-06 0)
(0.0998804 -3.77005e-06 0)
(0.0998849 -3.55971e-06 0)
(0.0998892 -3.36098e-06 0)
(0.0998933 -3.17322e-06 0)
(0.0998974 -2.99584e-06 0)
(0.0999012 -2.82827e-06 0)
(0.0999049 -2.66998e-06 0)
(0.0999085 -2.52047e-06 0)
(0.099912 -2.37924e-06 0)
(0.0999153 -2.24585e-06 0)
(0.0999185 -2.11987e-06 0)
(0.0999216 -2.0009e-06 0)
(0.0999245 -1.88854e-06 0)
(0.0999274 -1.78243e-06 0)
(0.0999301 -1.68224e-06 0)
(0.0999328 -1.58762e-06 0)
(0.0999353 -1.49829e-06 0)
(0.0999378 -1.41394e-06 0)
(0.0999401 -1.33431e-06 0)
(0.0999424 -1.25912e-06 0)
(0.0999446 -1.18814e-06 0)
(0.0999467 -1.12113e-06 0)
(0.0999487 -1.05787e-06 0)
(0.0999507 -9.98152e-07 0)
(0.0999525 -9.41784e-07 0)
(0.0999543 -8.88577e-07 0)
(0.0999561 -8.38356e-07 0)
(0.0999577 -7.90954e-07 0)
(0.0999594 -7.46216e-07 0)
(0.0994231 -4.89874e-05 0)
(0.0994438 -4.63697e-05 0)
(0.0994637 -4.38883e-05 0)
(0.099483 -4.15362e-05 0)
(0.0995016 -3.9307e-05 0)
(0.0995196 -3.71945e-05 0)
(0.099537 -3.51927e-05 0)
(0.0995537 -3.32962e-05 0)
(0.0995699 -3.14994e-05 0)
(0.0995855 -2.97974e-05 0)
(0.0996005 -2.81854e-05 0)
(0.0996151 -2.66586e-05 0)
(0.0996291 -2.52128e-05 0)
(0.0996426 -2.38438e-05 0)
(0.0996557 -2.25475e-05 0)
(0.0996683 -2.13203e-05 0)
(0.0996804 -2.01586e-05 0)
(0.0996921 -1.9059e-05 0)
(0.0997034 -1.80182e-05 0)
(0.0997143 -1.70332e-05 0)
(0.0997248 -1.61011e-05 0)
(0.0997349 -1.52191e-05 0)
(0.0997447 -1.43846e-05 0)
(0.0997541 -1.3595e-05 0)
(0.0997632 -1.28481e-05 0)
(0.099772 -1.21415e-05 0)
(0.0997804 -1.14732e-05 0)
(0.0997885 -1.08411e-05 0)
(0.0997964 -1.02432e-05 0)
(0.0998039 -9.67787e-06 0)
(0.0998112 -9.14325e-06 0)
(0.0998182 -8.63775e-06 0)
(0.099825 -8.15979e-06 0)
(0.0998315 -7.70792e-06 0)
(0.0998378 -7.28073e-06 0)
(0.0998438 -6.8769e-06 0)
(0.0998497 -6.49517e-06 0)
(0.0998553 -6.13437e-06 0)
(0.0998607 -5.79336e-06 0)
(0.0998659 -5.47107e-06 0)
(0.0998709 -5.16649e-06 0)
(0.0998758 -4.87868e-06 0)
(0.0998804 -4.60671e-06 0)
(0.0998849 -4.34973e-06 0)
(0.0998892 -4.10693e-06 0)
(0.0998934 -3.87753e-06 0)
(0.0998974 -3.66081e-06 0)
(0.0999013 -3.45608e-06 0)
(0.099905 -3.26268e-06 0)
(0.0999085 -3.07999e-06 0)
(0.099912 -2.90744e-06 0)
(0.0999153 -2.74446e-06 0)
(0.0999185 -2.59052e-06 0)
(0.0999216 -2.44515e-06 0)
(0.0999245 -2.30785e-06 0)
(0.0999274 -2.1782e-06 0)
(0.0999301 -2.05577e-06 0)
(0.0999328 -1.94016e-06 0)
(0.0999353 -1.831e-06 0)
(0.0999378 -1.72793e-06 0)
(0.0999401 -1.63062e-06 0)
(0.0999424 -1.53874e-06 0)
(0.0999446 -1.452e-06 0)
(0.0999467 -1.37012e-06 0)
(0.0999487 -1.29281e-06 0)
(0.0999507 -1.21984e-06 0)
(0.0999525 -1.15096e-06 0)
(0.0999543 -1.08594e-06 0)
(0.0999561 -1.02457e-06 0)
(0.0999578 -9.66638e-07 0)
(0.0999594 -9.11965e-07 0)
(0.0994243 -5.78119e-05 0)
(0.0994449 -5.47255e-05 0)
(0.0994648 -5.17995e-05 0)
(0.099484 -4.90258e-05 0)
(0.0995026 -4.63967e-05 0)
(0.0995205 -4.39051e-05 0)
(0.0995378 -4.1544e-05 0)
(0.0995544 -3.93068e-05 0)
(0.0995706 -3.71872e-05 0)
(0.0995861 -3.51792e-05 0)
(0.0996011 -3.32772e-05 0)
(0.0996156 -3.14758e-05 0)
(0.0996296 -2.97698e-05 0)
(0.0996431 -2.81542e-05 0)
(0.0996561 -2.66245e-05 0)
(0.0996687 -2.51762e-05 0)
(0.0996808 -2.38051e-05 0)
(0.0996925 -2.25072e-05 0)
(0.0997037 -2.12787e-05 0)
(0.0997146 -2.01161e-05 0)
(0.0997251 -1.90157e-05 0)
(0.0997352 -1.79745e-05 0)
(0.0997449 -1.69893e-05 0)
(0.0997543 -1.60571e-05 0)
(0.0997634 -1.51753e-05 0)
(0.0997721 -1.4341e-05 0)
(0.0997806 -1.35519e-05 0)
(0.0997887 -1.28055e-05 0)
(0.0997965 -1.20996e-05 0)
(0.0998041 -1.1432e-05 0)
(0.0998113 -1.08006e-05 0)
(0.0998183 -1.02037e-05 0)
(0.0998251 -9.63924e-06 0)
(0.0998316 -9.10558e-06 0)
(0.0998379 -8.60106e-06 0)
(0.0998439 -8.12412e-06 0)
(0.0998497 -7.67328e-06 0)
(0.0998554 -7.24713e-06 0)
(0.0998608 -6.84435e-06 0)
(0.099866 -6.46368e-06 0)
(0.099871 -6.10392e-06 0)
(0.0998758 -5.76395e-06 0)
(0.0998805 -5.44269e-06 0)
(0.0998849 -5.13913e-06 0)
(0.0998893 -4.85232e-06 0)
(0.0998934 -4.58134e-06 0)
(0.0998974 -4.32532e-06 0)
(0.0999013 -4.08347e-06 0)
(0.099905 -3.85499e-06 0)
(0.0999086 -3.63918e-06 0)
(0.099912 -3.43532e-06 0)
(0.0999153 -3.24277e-06 0)
(0.0999185 -3.06092e-06 0)
(0.0999216 -2.88916e-06 0)
(0.0999246 -2.72696e-06 0)
(0.0999274 -2.57378e-06 0)
(0.0999302 -2.42913e-06 0)
(0.0999328 -2.29254e-06 0)
(0.0999353 -2.16357e-06 0)
(0.0999378 -2.04179e-06 0)
(0.0999402 -1.92681e-06 0)
(0.0999424 -1.81826e-06 0)
(0.0999446 -1.71577e-06 0)
(0.0999467 -1.61902e-06 0)
(0.0999487 -1.52768e-06 0)
(0.0999507 -1.44145e-06 0)
(0.0999526 -1.36006e-06 0)
(0.0999544 -1.28324e-06 0)
(0.0999561 -1.21072e-06 0)
(0.0999578 -1.14227e-06 0)
(0.0999594 -1.07767e-06 0)
(0.0994258 -6.68056e-05 0)
(0.0994463 -6.32429e-05 0)
(0.0994661 -5.9865e-05 0)
(0.0994852 -5.66626e-05 0)
(0.0995036 -5.3627e-05 0)
(0.0995215 -5.07498e-05 0)
(0.0995387 -4.8023e-05 0)
(0.0995553 -4.54392e-05 0)
(0.0995714 -4.29909e-05 0)
(0.0995869 -4.06715e-05 0)
(0.0996018 -3.84743e-05 0)
(0.0996163 -3.6393e-05 0)
(0.0996302 -3.44219e-05 0)
(0.0996436 -3.25552e-05 0)
(0.0996566 -3.07875e-05 0)
(0.0996691 -2.91139e-05 0)
(0.0996812 -2.75293e-05 0)
(0.0996929 -2.60293e-05 0)
(0.0997041 -2.46094e-05 0)
(0.099715 -2.32654e-05 0)
(0.0997254 -2.19935e-05 0)
(0.0997355 -2.07899e-05 0)
(0.0997452 -1.96509e-05 0)
(0.0997546 -1.85732e-05 0)
(0.0997637 -1.75536e-05 0)
(0.0997724 -1.65891e-05 0)
(0.0997808 -1.56766e-05 0)
(0.0997889 -1.48136e-05 0)
(0.0997967 -1.39973e-05 0)
(0.0998042 -1.32253e-05 0)
(0.0998115 -1.24952e-05 0)
(0.0998185 -1.18048e-05 0)
(0.0998252 -1.1152e-05 0)
(0.0998317 -1.05348e-05 0)
(0.099838 -9.95127e-06 0)
(0.099844 -9.39963e-06 0)
(0.0998498 -8.87815e-06 0)
(0.0998554 -8.38523e-06 0)
(0.0998608 -7.91932e-06 0)
(0.099866 -7.47897e-06 0)
(0.0998711 -7.06281e-06 0)
(0.0998759 -6.66953e-06 0)
(0.0998805 -6.29788e-06 0)
(0.099885 -5.94671e-06 0)
(0.0998893 -5.61489e-06 0)
(0.0998935 -5.30139e-06 0)
(0.0998975 -5.0052e-06 0)
(0.0999013 -4.72538e-06 0)
(0.099905 -4.46104e-06 0)
(0.0999086 -4.21134e-06 0)
(0.0999121 -3.97547e-06 0)
(0.0999154 -3.75268e-06 0)
(0.0999186 -3.54226e-06 0)
(0.0999216 -3.34353e-06 0)
(0.0999246 -3.15585e-06 0)
(0.0999274 -2.9786e-06 0)
(0.0999302 -2.81122e-06 0)
(0.0999328 -2.65317e-06 0)
(0.0999354 -2.50393e-06 0)
(0.0999378 -2.36301e-06 0)
(0.0999402 -2.22996e-06 0)
(0.0999424 -2.10434e-06 0)
(0.0999446 -1.98574e-06 0)
(0.0999467 -1.87377e-06 0)
(0.0999487 -1.76807e-06 0)
(0.0999507 -1.66829e-06 0)
(0.0999526 -1.5741e-06 0)
(0.0999544 -1.48519e-06 0)
(0.0999561 -1.40127e-06 0)
(0.0999578 -1.32205e-06 0)
(0.0999594 -1.24729e-06 0)
(0.0994275 -7.59586e-05 0)
(0.0994479 -7.19129e-05 0)
(0.0994676 -6.80766e-05 0)
(0.0994866 -6.44393e-05 0)
(0.0995049 -6.0991e-05 0)
(0.0995227 -5.77223e-05 0)
(0.0995398 -5.46242e-05 0)
(0.0995564 -5.16881e-05 0)
(0.0995723 -4.89059e-05 0)
(0.0995878 -4.62699e-05 0)
(0.0996027 -4.37725e-05 0)
(0.099617 -4.14067e-05 0)
(0.0996309 -3.91659e-05 0)
(0.0996443 -3.70437e-05 0)
(0.0996572 -3.50339e-05 0)
(0.0996697 -3.31308e-05 0)
(0.0996818 -3.1329e-05 0)
(0.0996934 -2.96231e-05 0)
(0.0997046 -2.80083e-05 0)
(0.0997154 -2.64797e-05 0)
(0.0997258 -2.5033e-05 0)
(0.0997359 -2.36638e-05 0)
(0.0997456 -2.23681e-05 0)
(0.0997549 -2.11421e-05 0)
(0.0997639 -1.99822e-05 0)
(0.0997726 -1.88847e-05 0)
(0.099781 -1.78465e-05 0)
(0.0997891 -1.68645e-05 0)
(0.0997969 -1.59356e-05 0)
(0.0998044 -1.50571e-05 0)
(0.0998117 -1.42262e-05 0)
(0.0998187 -1.34405e-05 0)
(0.0998254 -1.26976e-05 0)
(0.0998319 -1.19951e-05 0)
(0.0998381 -1.13309e-05 0)
(0.0998442 -1.0703e-05 0)
(0.09985 -1.01095e-05 0)
(0.0998556 -9.54835e-06 0)
(0.0998609 -9.01798e-06 0)
(0.0998661 -8.5167e-06 0)
(0.0998711 -8.04294e-06 0)
(0.099876 -7.5952e-06 0)
(0.0998806 -7.17209e-06 0)
(0.0998851 -6.77227e-06 0)
(0.0998894 -6.39449e-06 0)
(0.0998935 -6.03754e-06 0)
(0.0998975 -5.7003e-06 0)
(0.0999014 -5.38169e-06 0)
(0.0999051 -5.08071e-06 0)
(0.0999087 -4.79638e-06 0)
(0.0999121 -4.5278e-06 0)
(0.0999154 -4.27411e-06 0)
(0.0999186 -4.0345e-06 0)
(0.0999217 -3.80819e-06 0)
(0.0999246 -3.59446e-06 0)
(0.0999275 -3.39261e-06 0)
(0.0999302 -3.202e-06 0)
(0.0999329 -3.022e-06 0)
(0.0999354 -2.85204e-06 0)
(0.0999378 -2.69155e-06 0)
(0.0999402 -2.54002e-06 0)
(0.0999425 -2.39695e-06 0)
(0.0999446 -2.26188e-06 0)
(0.0999467 -2.13436e-06 0)
(0.0999488 -2.01397e-06 0)
(0.0999507 -1.90033e-06 0)
(0.0999526 -1.79305e-06 0)
(0.0999544 -1.69178e-06 0)
(0.0999561 -1.59619e-06 0)
(0.0999578 -1.50597e-06 0)
(0.0999594 -1.42081e-06 0)
(0.0994294 -8.50529e-05 0)
(0.0994497 -8.05294e-05 0)
(0.0994692 -7.62394e-05 0)
(0.0994881 -7.21713e-05 0)
(0.0995064 -6.83142e-05 0)
(0.099524 -6.46576e-05 0)
(0.0995411 -6.11914e-05 0)
(0.0995575 -5.79062e-05 0)
(0.0995734 -5.47927e-05 0)
(0.0995888 -5.18425e-05 0)
(0.0996036 -4.90472e-05 0)
(0.0996179 -4.6399e-05 0)
(0.0996317 -4.38905e-05 0)
(0.0996451 -4.15144e-05 0)
(0.0996579 -3.92641e-05 0)
(0.0996704 -3.7133e-05 0)
(0.0996823 -3.51152e-05 0)
(0.0996939 -3.32047e-05 0)
(0.0997051 -3.1396e-05 0)
(0.0997159 -2.96838e-05 0)
(0.0997263 -2.80632e-05 0)
(0.0997363 -2.65293e-05 0)
(0.0997459 -2.50777e-05 0)
(0.0997553 -2.37041e-05 0)
(0.0997643 -2.24043e-05 0)
(0.0997729 -2.11746e-05 0)
(0.0997813 -2.00112e-05 0)
(0.0997894 -1.89106e-05 0)
(0.0997972 -1.78696e-05 0)
(0.0998047 -1.68849e-05 0)
(0.0998119 -1.59537e-05 0)
(0.0998189 -1.5073e-05 0)
(0.0998256 -1.42402e-05 0)
(0.099832 -1.34527e-05 0)
(0.0998383 -1.27081e-05 0)
(0.0998443 -1.20042e-05 0)
(0.0998501 -1.13387e-05 0)
(0.0998557 -1.07096e-05 0)
(0.0998611 -1.0115e-05 0)
(0.0998662 -9.55289e-06 0)
(0.0998712 -9.02166e-06 0)
(0.099876 -8.5196e-06 0)
(0.0998807 -8.04514e-06 0)
(0.0998852 -7.59679e-06 0)
(0.0998895 -7.17313e-06 0)
(0.0998936 -6.77283e-06 0)
(0.0998976 -6.39462e-06 0)
(0.0999014 -6.03729e-06 0)
(0.0999051 -5.69972e-06 0)
(0.0999087 -5.38083e-06 0)
(0.0999121 -5.07959e-06 0)
(0.0999155 -4.79505e-06 0)
(0.0999186 -4.52629e-06 0)
(0.0999217 -4.27244e-06 0)
(0.0999247 -4.0327e-06 0)
(0.0999275 -3.80629e-06 0)
(0.0999302 -3.59247e-06 0)
(0.0999329 -3.39056e-06 0)
(0.0999354 -3.1999e-06 0)
(0.0999379 -3.01987e-06 0)
(0.0999402 -2.84988e-06 0)
(0.0999425 -2.68938e-06 0)
(0.0999447 -2.53785e-06 0)
(0.0999468 -2.39479e-06 0)
(0.0999488 -2.25973e-06 0)
(0.0999507 -2.13224e-06 0)
(0.0999526 -2.01188e-06 0)
(0.0999544 -1.89827e-06 0)
(0.0999561 -1.79103e-06 0)
(0.0999578 -1.6898e-06 0)
(0.0999594 -1.59426e-06 0)
(0.0994316 -9.40818e-05 0)
(0.0994517 -8.90861e-05 0)
(0.0994711 -8.43476e-05 0)
(0.0994899 -7.98536e-05 0)
(0.099508 -7.5592e-05 0)
(0.0995255 -7.15514e-05 0)
(0.0995424 -6.77208e-05 0)
(0.0995588 -6.40896e-05 0)
(0.0995746 -6.0648e-05 0)
(0.0995899 -5.73864e-05 0)
(0.0996046 -5.42958e-05 0)
(0.0996189 -5.13674e-05 0)
(0.0996326 -4.85932e-05 0)
(0.0996459 -4.59653e-05 0)
(0.0996587 -4.34761e-05 0)
(0.0996711 -4.11188e-05 0)
(0.099683 -3.88864e-05 0)
(0.0996945 -3.67725e-05 0)
(0.0997057 -3.47712e-05 0)
(0.0997164 -3.28765e-05 0)
(0.0997267 -3.1083e-05 0)
(0.0997367 -2.93854e-05 0)
(0.0997464 -2.77787e-05 0)
(0.0997557 -2.62582e-05 0)
(0.0997646 -2.48194e-05 0)
(0.0997733 -2.34579e-05 0)
(0.0997816 -2.21699e-05 0)
(0.0997897 -2.09513e-05 0)
(0.0997974 -1.97986e-05 0)
(0.0998049 -1.87083e-05 0)
(0.0998121 -1.7677e-05 0)
(0.0998191 -1.67017e-05 0)
(0.0998258 -1.57794e-05 0)
(0.0998322 -1.49072e-05 0)
(0.0998385 -1.40825e-05 0)
(0.0998445 -1.33028e-05 0)
(0.0998502 -1.25657e-05 0)
(0.0998558 -1.18688e-05 0)
(0.0998612 -1.121e-05 0)
(0.0998664 -1.05874e-05 0)
(0.0998713 -9.99882e-06 0)
(0.0998762 -9.44258e-06 0)
(0.0998808 -8.9169e-06 0)
(0.0998852 -8.42013e-06 0)
(0.0998895 -7.95071e-06 0)
(0.0998937 -7.50715e-06 0)
(0.0998977 -7.08805e-06 0)
(0.0999015 -6.69209e-06 0)
(0.0999052 -6.31801e-06 0)
(0.0999088 -5.96461e-06 0)
(0.0999122 -5.63078e-06 0)
(0.0999155 -5.31544e-06 0)
(0.0999187 -5.01758e-06 0)
(0.0999217 -4.73625e-06 0)
(0.0999247 -4.47054e-06 0)
(0.0999275 -4.2196e-06 0)
(0.0999303 -3.98261e-06 0)
(0.0999329 -3.75881e-06 0)
(0.0999354 -3.54748e-06 0)
(0.0999379 -3.34793e-06 0)
(0.0999402 -3.15951e-06 0)
(0.0999425 -2.9816e-06 0)
(0.0999447 -2.81363e-06 0)
(0.0999468 -2.65505e-06 0)
(0.0999488 -2.50534e-06 0)
(0.0999507 -2.36401e-06 0)
(0.0999526 -2.23058e-06 0)
(0.0999544 -2.10464e-06 0)
(0.0999561 -1.98575e-06 0)
(0.0999578 -1.87354e-06 0)
(0.0999594 -1.76762e-06 0)
(0.099434 -0.000103039 0)
(0.0994539 -9.75769e-05 0)
(0.0994731 -9.23956e-05 0)
(0.0994918 -8.74808e-05 0)
(0.0995098 -8.28196e-05 0)
(0.0995272 -7.83994e-05 0)
(0.099544 -7.42083e-05 0)
(0.0995602 -7.0235e-05 0)
(0.0995759 -6.64685e-05 0)
(0.0995911 -6.28986e-05 0)
(0.0996058 -5.95154e-05 0)
(0.0996199 -5.63094e-05 0)
(0.0996336 -5.32719e-05 0)
(0.0996468 -5.03942e-05 0)
(0.0996595 -4.76682e-05 0)
(0.0996719 -4.50862e-05 0)
(0.0996837 -4.26409e-05 0)
(0.0996952 -4.03253e-05 0)
(0.0997063 -3.81326e-05 0)
(0.099717 -3.60567e-05 0)
(0.0997273 -3.40914e-05 0)
(0.0997372 -3.2231e-05 0)
(0.0997468 -3.04701e-05 0)
(0.0997561 -2.88036e-05 0)
(0.099765 -2.72265e-05 0)
(0.0997737 -2.57341e-05 0)
(0.099782 -2.43221e-05 0)
(0.09979 -2.29861e-05 0)
(0.0997977 -2.17223e-05 0)
(0.0998052 -2.05268e-05 0)
(0.0998124 -1.9396e-05 0)
(0.0998193 -1.83264e-05 0)
(0.099826 -1.73149e-05 0)
(0.0998324 -1.63584e-05 0)
(0.0998386 -1.54539e-05 0)
(0.0998446 -1.45987e-05 0)
(0.0998504 -1.37901e-05 0)
(0.099856 -1.30257e-05 0)
(0.0998613 -1.2303e-05 0)
(0.0998665 -1.16199e-05 0)
(0.0998715 -1.09742e-05 0)
(0.0998763 -1.0364e-05 0)
(0.0998809 -9.78723e-06 0)
(0.0998853 -9.24217e-06 0)
(0.0998896 -8.72709e-06 0)
(0.0998938 -8.24039e-06 0)
(0.0998977 -7.78051e-06 0)
(0.0999016 -7.346e-06 0)
(0.0999053 -6.93549e-06 0)
(0.0999088 -6.54767e-06 0)
(0.0999123 -6.1813e-06 0)
(0.0999156 -5.83522e-06 0)
(0.0999187 -5.50832e-06 0)
(0.0999218 -5.19955e-06 0)
(0.0999247 -4.90792e-06 0)
(0.0999276 -4.63249e-06 0)
(0.0999303 -4.37237e-06 0)
(0.0999329 -4.12672e-06 0)
(0.0999355 -3.89476e-06 0)
(0.0999379 -3.67571e-06 0)
(0.0999403 -3.46888e-06 0)
(0.0999425 -3.27359e-06 0)
(0.0999447 -3.08921e-06 0)
(0.0999468 -2.91512e-06 0)
(0.0999488 -2.75077e-06 0)
(0.0999507 -2.59562e-06 0)
(0.0999526 -2.44915e-06 0)
(0.0999544 -2.31088e-06 0)
(0.0999561 -2.18036e-06 0)
(0.0999578 -2.05716e-06 0)
(0.0999594 -1.94088e-06 0)
(0.0994365 -0.000111917 0)
(0.0994563 -0.000105996 0)
(0.0994754 -0.000100378 0)
(0.0994938 -9.50482e-05 0)
(0.0995117 -8.99925e-05 0)
(0.0995289 -8.51975e-05 0)
(0.0995456 -8.06503e-05 0)
(0.0995618 -7.63387e-05 0)
(0.0995774 -7.2251e-05 0)
(0.0995924 -6.8376e-05 0)
(0.099607 -6.47033e-05 0)
(0.0996211 -6.12226e-05 0)
(0.0996347 -5.79242e-05 0)
(0.0996478 -5.47991e-05 0)
(0.0996605 -5.18383e-05 0)
(0.0996727 -4.90337e-05 0)
(0.0996845 -4.63773e-05 0)
(0.099696 -4.38614e-05 0)
(0.099707 -4.14789e-05 0)
(0.0997176 -3.9223e-05 0)
(0.0997279 -3.70872e-05 0)
(0.0997378 -3.50652e-05 0)
(0.0997473 -3.31512e-05 0)
(0.0997566 -3.13396e-05 0)
(0.0997655 -2.9625e-05 0)
(0.0997741 -2.80025e-05 0)
(0.0997823 -2.64671e-05 0)
(0.0997903 -2.50144e-05 0)
(0.099798 -2.364e-05 0)
(0.0998055 -2.23398e-05 0)
(0.0998126 -2.11099e-05 0)
(0.0998196 -1.99466e-05 0)
(0.0998262 -1.88464e-05 0)
(0.0998327 -1.78059e-05 0)
(0.0998388 -1.68219e-05 0)
(0.0998448 -1.58915e-05 0)
(0.0998506 -1.50117e-05 0)
(0.0998561 -1.418e-05 0)
(0.0998615 -1.33937e-05 0)
(0.0998666 -1.26504e-05 0)
(0.0998716 -1.19478e-05 0)
(0.0998764 -1.12837e-05 0)
(0.099881 -1.0656e-05 0)
(0.0998854 -1.00628e-05 0)
(0.0998897 -9.50218e-06 0)
(0.0998938 -8.97244e-06 0)
(0.0998978 -8.47189e-06 0)
(0.0999016 -7.99893e-06 0)
(0.0999053 -7.55208e-06 0)
(0.0999089 -7.12991e-06 0)
(0.0999123 -6.73109e-06 0)
(0.0999156 -6.35434e-06 0)
(0.0999188 -5.99846e-06 0)
(0.0999218 -5.6623e-06 0)
(0.0999248 -5.3448e-06 0)
(0.0999276 -5.04493e-06 0)
(0.0999303 -4.76172e-06 0)
(0.099933 -4.49426e-06 0)
(0.0999355 -4.24169e-06 0)
(0.0999379 -4.00319e-06 0)
(0.0999403 -3.77798e-06 0)
(0.0999425 -3.56533e-06 0)
(0.0999447 -3.36455e-06 0)
(0.0999468 -3.17498e-06 0)
(0.0999488 -2.99602e-06 0)
(0.0999508 -2.82705e-06 0)
(0.0999526 -2.66755e-06 0)
(0.0999544 -2.51698e-06 0)
(0.0999562 -2.37484e-06 0)
(0.0999578 -2.24067e-06 0)
(0.0999594 -2.11403e-06 0)
(0.0994393 -0.00012071 0)
(0.0994589 -0.000114337 0)
(0.0994778 -0.000108289 0)
(0.0994961 -0.000102551 0)
(0.0995138 -9.71061e-05 0)
(0.0995309 -9.19414e-05 0)
(0.0995474 -8.70428e-05 0)
(0.0995634 -8.23972e-05 0)
(0.0995789 -7.79922e-05 0)
(0.0995939 -7.38159e-05 0)
(0.0996083 -6.98569e-05 0)
(0.0996223 -6.61044e-05 0)
(0.0996358 -6.2548e-05 0)
(0.0996489 -5.91779e-05 0)
(0.0996615 -5.59848e-05 0)
(0.0996736 -5.29596e-05 0)
(0.0996854 -5.00939e-05 0)
(0.0996968 -4.73795e-05 0)
(0.0997077 -4.48089e-05 0)
(0.0997183 -4.23745e-05 0)
(0.0997285 -4.00694e-05 0)
(0.0997384 -3.7887e-05 0)
(0.0997479 -3.5821e-05 0)
(0.0997571 -3.38653e-05 0)
(0.0997659 -3.20142e-05 0)
(0.0997745 -3.02623e-05 0)
(0.0997828 -2.86044e-05 0)
(0.0997907 -2.70356e-05 0)
(0.0997984 -2.55513e-05 0)
(0.0998058 -2.41471e-05 0)
(0.099813 -2.28186e-05 0)
(0.0998198 -2.1562e-05 0)
(0.0998265 -2.03734e-05 0)
(0.0998329 -1.92493e-05 0)
(0.0998391 -1.81862e-05 0)
(0.099845 -1.71809e-05 0)
(0.0998508 -1.62303e-05 0)
(0.0998563 -1.53316e-05 0)
(0.0998616 -1.44819e-05 0)
(0.0998668 -1.36786e-05 0)
(0.0998717 -1.29192e-05 0)
(0.0998765 -1.22014e-05 0)
(0.0998811 -1.1523e-05 0)
(0.0998856 -1.08818e-05 0)
(0.0998898 -1.02759e-05 0)
(0.0998939 -9.70322e-06 0)
(0.0998979 -9.1621e-06 0)
(0.0999017 -8.6508e-06 0)
(0.0999054 -8.16771e-06 0)
(0.099909 -7.71129e-06 0)
(0.0999124 -7.28009e-06 0)
(0.0999157 -6.87274e-06 0)
(0.0999188 -6.48794e-06 0)
(0.0999219 -6.12446e-06 0)
(0.0999248 -5.78114e-06 0)
(0.0999277 -5.45688e-06 0)
(0.0999304 -5.15062e-06 0)
(0.099933 -4.8614e-06 0)
(0.0999355 -4.58826e-06 0)
(0.099938 -4.33033e-06 0)
(0.0999403 -4.08677e-06 0)
(0.0999426 -3.85679e-06 0)
(0.0999447 -3.63964e-06 0)
(0.0999468 -3.43462e-06 0)
(0.0999489 -3.24105e-06 0)
(0.0999508 -3.05831e-06 0)
(0.0999527 -2.88578e-06 0)
(0.0999545 -2.72292e-06 0)
(0.0999562 -2.56918e-06 0)
(0.0999578 -2.42406e-06 0)
(0.0999594 -2.28707e-06 0)
(0.0994423 -0.000129411 0)
(0.0994616 -0.000122595 0)
(0.0994803 -0.000116124 0)
(0.0994985 -0.000109983 0)
(0.099516 -0.000104156 0)
(0.099533 -9.86271e-05 0)
(0.0995494 -9.33821e-05 0)
(0.0995652 -8.84073e-05 0)
(0.0995806 -8.36892e-05 0)
(0.0995954 -7.92154e-05 0)
(0.0996098 -7.49737e-05 0)
(0.0996237 -7.09525e-05 0)
(0.0996371 -6.71411e-05 0)
(0.09965 -6.35288e-05 0)
(0.0996625 -6.01056e-05 0)
(0.0996746 -5.68621e-05 0)
(0.0996863 -5.37892e-05 0)
(0.0996976 -5.08783e-05 0)
(0.0997085 -4.81211e-05 0)
(0.099719 -4.55098e-05 0)
(0.0997292 -4.3037e-05 0)
(0.099739 -4.06955e-05 0)
(0.0997485 -3.84786e-05 0)
(0.0997576 -3.63799e-05 0)
(0.0997665 -3.43932e-05 0)
(0.099775 -3.25129e-05 0)
(0.0997832 -3.07333e-05 0)
(0.0997911 -2.90492e-05 0)
(0.0997988 -2.74557e-05 0)
(0.0998062 -2.5948e-05 0)
(0.0998133 -2.45215e-05 0)
(0.0998201 -2.31721e-05 0)
(0.0998268 -2.18957e-05 0)
(0.0998332 -2.06884e-05 0)
(0.0998393 -1.95466e-05 0)
(0.0998453 -1.84668e-05 0)
(0.099851 -1.74457e-05 0)
(0.0998565 -1.64802e-05 0)
(0.0998618 -1.55673e-05 0)
(0.0998669 -1.47043e-05 0)
(0.0998719 -1.38884e-05 0)
(0.0998767 -1.31172e-05 0)
(0.0998812 -1.23882e-05 0)
(0.0998857 -1.16992e-05 0)
(0.0998899 -1.1048e-05 0)
(0.099894 -1.04326e-05 0)
(0.099898 -9.85105e-06 0)
(0.0999018 -9.30153e-06 0)
(0.0999055 -8.7823e-06 0)
(0.099909 -8.29171e-06 0)
(0.0999124 -7.82822e-06 0)
(0.0999157 -7.39035e-06 0)
(0.0999189 -6.97671e-06 0)
(0.0999219 -6.58597e-06 0)
(0.0999249 -6.2169e-06 0)
(0.0999277 -5.86829e-06 0)
(0.0999304 -5.53904e-06 0)
(0.0999331 -5.22809e-06 0)
(0.0999356 -4.93442e-06 0)
(0.099938 -4.6571e-06 0)
(0.0999404 -4.39523e-06 0)
(0.0999426 -4.14795e-06 0)
(0.0999448 -3.91446e-06 0)
(0.0999469 -3.69401e-06 0)
(0.0999489 -3.48586e-06 0)
(0.0999508 -3.28935e-06 0)
(0.0999527 -3.10383e-06 0)
(0.0999545 -2.9287e-06 0)
(0.0999562 -2.76337e-06 0)
(0.0999579 -2.6073e-06 0)
(0.0999595 -2.45999e-06 0)
(0.0994455 -0.000138016 0)
(0.0994646 -0.000130764 0)
(0.0994831 -0.000123878 0)
(0.099501 -0.000117342 0)
(0.0995184 -0.000111138 0)
(0.0995352 -0.000105251 0)
(0.0995514 -9.96647e-05 0)
(0.0995672 -9.43655e-05 0)
(0.0995824 -8.93389e-05 0)
(0.0995971 -8.45716e-05 0)
(0.0996113 -8.00509e-05 0)
(0.0996251 -7.57647e-05 0)
(0.0996384 -7.17013e-05 0)
(0.0996513 -6.78496e-05 0)
(0.0996637 -6.41991e-05 0)
(0.0996757 -6.07397e-05 0)
(0.0996873 -5.74618e-05 0)
(0.0996985 -5.43563e-05 0)
(0.0997094 -5.14144e-05 0)
(0.0997198 -4.86279e-05 0)