/*--------------------------------*- C++ -*----------------------------------*\
| =========                 |                                                 |
| \\      /  F ield         | OpenFOAM: The Open Source CFD Toolbox           |
|  \\    /   O peration     | Version:  2412                                  |
|   \\  /    A nd           | Website:  www.openfoam.com                      |
|    \\/     M anipulation  |                                                 |
\*---------------------------------------------------------------------------*/
FoamFile
{
    version     2.0;
    format      ascii;
    arch        "LSB;label=32;scalar=64";
    class       volVectorField;
    location    "16.5";
    object      vorticity;
}
// * * * * * * * * * * * * * * * * * * * * * * * * * * * * * * * * * * * * * //

dimensions      [0 0 -1 0 0 0 0];

internalField   nonuniform List<vector> 
5285
(
(0 -4.45202e-23 -5.91022e-05)
(0 2.5495e-21 -3.48188e-05)
(0 -0 -9.43139e-06)
(0 -0 -1.54443e-05)
(0 -0 -2.1934e-05)
(0 -0 -3.0302e-05)
(0 -0 -3.95737e-05)
(0 -0 -4.91596e-05)
(0 -0 -5.85923e-05)
(0 -0 -6.73106e-05)
(0 -0 -7.46852e-05)
(0 -0 -8.00503e-05)
(0 -0 -8.27627e-05)
(0 -0 -8.22821e-05)
(0 -0 -7.82623e-05)
(0 -0 -7.06379e-05)
(0 -0 -5.96871e-05)
(0 -0 -4.6057e-05)
(0 -0 -3.07381e-05)
(0 -0 -1.49816e-05)
(0 -0 -1.60206e-07)
(0 -0 1.24021e-05)
(0 -0 2.15445e-05)
(0 -0 2.62657e-05)
(0 -5.01028e-21 -1.96523e-05)
(0 -0 1.99996e-06)
(0 -0 -2.72719e-06)
(0 -0 -7.80945e-06)
(0 -0 -1.4125e-05)
(0 -0 -2.13273e-05)
(0 -0 -2.89244e-05)
(0 -0 -3.65038e-05)
(0 -0 -4.35437e-05)
(0 -0 -4.94474e-05)
(0 -0 -5.35812e-05)
(0 -0 -5.53324e-05)
(0 -0 -5.41901e-05)
(0 -0 -4.98318e-05)
(0 -0 -4.22076e-05)
(0 -0 -3.15991e-05)
(0 -0 -1.86414e-05)
(0 -0 -4.29563e-06)
(0 -0 1.02353e-05)
(0 -0 2.36414e-05)
(0 -0 3.46714e-05)
(0 -0 4.22356e-05)
(0 -0 4.54461e-05)
(0 2.38254e-21 -9.89218e-06)
(0 -0 8.50892e-06)
(0 -0 4.76529e-06)
(0 -0 2.90072e-07)
(0 -0 -5.241e-06)
(0 -0 -1.15208e-05)
(0 -0 -1.81625e-05)
(0 -0 -2.48248e-05)
(0 -0 -3.10346e-05)
(0 -0 -3.62301e-05)
(0 -0 -3.9805e-05)
(0 -0 -4.11699e-05)
(0 -0 -3.98314e-05)
(0 -0 -3.54792e-05)
(0 -0 -2.80659e-05)
(0 -0 -1.78635e-05)
(0 -0 -5.48378e-06)
(0 -0 8.15143e-06)
(0 -0 2.18924e-05)
(0 -0 3.44935e-05)
(0 -0 4.47744e-05)
(0 -0 5.17297e-05)
(0 -0 5.45517e-05)
(0 -3.23318e-23 -3.44101e-06)
(0 -0 1.17112e-05)
(0 -0 8.3704e-06)
(0 -0 4.17958e-06)
(0 -0 -1.05253e-06)
(0 -0 -7.01466e-06)
(0 -0 -1.33472e-05)
(0 -0 -1.97366e-05)
(0 -0 -2.57389e-05)
(0 -0 -3.08158e-05)
(0 -0 -3.43787e-05)
(0 -0 -3.5851e-05)
(0 -0 -3.47448e-05)
(0 -0 -3.07481e-05)
(0 -0 -2.38004e-05)
(0 -0 -1.41488e-05)
(0 -0 -2.36582e-06)
(0 -0 1.06792e-05)
(0 -0 2.38995e-05)
(0 -0 3.61179e-05)
(0 -0 4.6222e-05)
(0 -0 5.32779e-05)
(0 -0 5.6559e-05)
(0 -2.98213e-23 6.31702e-07)
(0 -0 1.26388e-05)
(0 -0 9.42343e-06)
(0 -0 5.29655e-06)
(0 -0 7.48439e-08)
(0 -0 -5.93335e-06)
(0 -0 -1.23739e-05)
(0 -0 -1.89403e-05)
(0 -0 -2.52002e-05)
(0 -0 -3.06261e-05)
(0 -0 -3.46355e-05)
(0 -0 -3.66517e-05)
(0 -0 -3.61798e-05)
(0 -0 -3.28891e-05)
(0 -0 -2.66892e-05)
(0 -0 -1.77835e-05)
(0 -0 -6.68738e-06)
(0 -0 5.79847e-06)
(0 -0 1.86627e-05)
(0 -0 3.08035e-05)
(0 -0 4.11743e-05)
(0 -0 4.8895e-05)
(0 -0 5.32937e-05)
(0 -8.67375e-22 3.1492e-06)
(0 -0 1.22358e-05)
(0 -0 8.91604e-06)
(0 -0 4.64144e-06)
(0 -0 -7.97265e-07)
(0 -0 -7.1135e-06)
(0 -0 -1.39627e-05)
(0 -0 -2.10419e-05)
(0 -0 -2.79238e-05)
(0 -0 -3.40823e-05)
(0 -0 -3.89316e-05)
(0 -0 -4.18831e-05)
(0 -0 -4.24198e-05)
(0 -0 -4.01764e-05)
(0 -0 -3.50135e-05)
(0 -0 -2.70712e-05)
(0 -0 -1.67878e-05)
(0 -0 -4.87821e-06)
(0 -0 7.73549e-06)
(0 -0 2.00345e-05)
(0 -0 3.10385e-05)
(0 -0 3.99094e-05)
(0 -0 4.60007e-05)
(0 1.63736e-21 4.57468e-06)
(0 -0 1.10275e-05)
(0 -0 7.43935e-06)
(0 -0 2.84432e-06)
(0 -0 -2.9977e-06)
(0 -0 -9.83035e-06)
(0 -0 -1.73258e-05)
(0 -0 -2.51872e-05)
(0 -0 -3.29906e-05)
(0 -0 -4.02069e-05)
(0 -0 -4.6239e-05)
(0 -0 -5.04761e-05)
(0 -0 -5.23651e-05)
(0 -0 -5.14898e-05)
(0 -0 -4.76432e-05)
(0 -0 -4.08817e-05)
(0 -0 -3.15475e-05)
(0 -0 -2.02517e-05)
(0 -0 -7.81377e-06)
(0 -0 4.83867e-06)
(0 -0 1.67919e-05)
(0 -0 2.72412e-05)
(0 -0 3.55467e-05)
(0 -1.55408e-21 5.17709e-06)
(0 -0 9.28862e-06)
(0 -0 5.3198e-06)
(0 -0 2.71894e-07)
(0 -0 -6.1238e-06)
(0 -0 -1.36438e-05)
(0 -0 -2.19819e-05)
(0 -0 -3.08503e-05)
(0 -0 -3.98282e-05)
(0 -0 -4.83812e-05)
(0 -0 -5.58948e-05)
(0 -0 -6.17268e-05)
(0 -0 -6.52757e-05)
(0 -0 -6.60588e-05)
(0 -0 -6.37837e-05)
(0 -0 -5.84045e-05)
(0 -0 -5.01487e-05)
(0 -0 -3.95075e-05)
(0 -0 -2.71849e-05)
(0 -0 -1.40107e-05)
(0 -0 -8.31616e-07)
(0 -0 1.15738e-05)
(0 -0 2.25561e-05)
(0 7.10676e-22 5.10831e-06)
(0 -0 7.15546e-06)
(0 -0 2.72857e-06)
(0 -0 -2.87089e-06)
(0 -0 -9.93813e-06)
(0 -0 -1.82836e-05)
(0 -0 -2.76252e-05)
(0 -0 -3.76862e-05)
(0 -0 -4.80495e-05)
(0 -0 -5.81733e-05)
(0 -0 -6.74209e-05)
(0 -0 -7.51104e-05)
(0 -0 -8.05817e-05)
(0 -0 -8.32713e-05)
(0 -0 -8.27859e-05)
(0 -0 -7.89608e-05)
(0 -0 -7.18928e-05)
(0 -0 -6.19391e-05)
(0 -0 -4.96781e-05)
(0 -0 -3.5836e-05)
(0 -0 -2.11934e-05)
(0 -0 -6.50973e-06)
(0 -0 7.54199e-06)
(0 -0 4.45e-06)
(0 -0 4.6895e-06)
(0 -0 -2.46694e-07)
(0 -0 -6.46723e-06)
(0 -0 -1.42927e-05)
(0 -0 -2.35682e-05)
(0 -0 -3.4037e-05)
(0 -0 -4.54348e-05)
(0 -0 -5.73483e-05)
(0 -0 -6.92262e-05)
(0 -0 -8.04057e-05)
(0 -0 -9.01591e-05)
(0 -0 -9.7758e-05)
(0 -0 -0.000102547)
(0 -0 -0.00010402)
(0 -0 -0.00010188)
(0 -0 -9.60802e-05)
(0 -0 -8.68327e-05)
(0 -0 -7.45833e-05)
(0 -0 -5.99515e-05)
(0 -0 -4.36533e-05)
(0 -0 -2.64362e-05)
(0 -0 -9.0088e-06)
(0 5.49886e-22 3.24694e-06)
(0 -0 1.91821e-06)
(0 -0 -3.55458e-06)
(0 -0 -1.04376e-05)
(0 -0 -1.90761e-05)
(0 -0 -2.93498e-05)
(0 -0 -4.10278e-05)
(0 -0 -5.3859e-05)
(0 -0 -6.74335e-05)
(0 -0 -8.11888e-05)
(0 -0 -9.44329e-05)
(0 -0 -0.000106388)
(0 -0 -0.00011625)
(0 -0 -0.000123266)
(0 -0 -0.000126805)
(0 -0 -0.00012643)
(0 -0 -0.000121942)
(0 -0 -0.000113402)
(0 -0 -0.000101119)
(0 -0 -8.56056e-05)
(0 -0 -6.75157e-05)
(0 -0 -4.75916e-05)
(0 -0 -2.6588e-05)
(0 -5.81868e-22 1.53444e-06)
(0 -0 -1.13453e-06)
(0 -0 -7.14706e-06)
(0 -0 -1.47054e-05)
(0 -0 -2.41785e-05)
(0 -0 -3.54791e-05)
(0 -0 -4.8402e-05)
(0 -0 -6.27089e-05)
(0 -0 -7.79925e-05)
(0 -0 -9.36784e-05)
(0 -0 -0.000109044)
(0 -0 -0.000123258)
(0 -0 -0.000135438)
(0 -0 -0.000144728)
(0 -0 -0.000150371)
(0 -0 -0.000151783)
(0 -0 -0.000148611)
(0 -0 -0.000140762)
(0 -0 -0.00012841)
(0 -0 -0.00011196)
(0 -0 -9.20104e-05)
(0 -0 -6.93029e-05)
(0 -0 -4.46463e-05)
(0 -2.51609e-22 -6.35145e-07)
(0 -0 -4.4236e-06)
(0 -0 -1.09559e-05)
(0 -0 -1.91756e-05)
(0 -0 -2.94715e-05)
(0 -0 -4.17868e-05)
(0 -0 -5.59402e-05)
(0 -0 -7.17051e-05)
(0 -0 -8.86766e-05)
(0 -0 -0.000106268)
(0 -0 -0.000123727)
(0 -0 -0.000140168)
(0 -0 -0.000154632)
(0 -0 -0.000166159)
(0 -0 -0.000173866)
(0 -0 -0.000177025)
(0 -0 -0.000175131)
(0 -0 -0.000167942)
(0 -0 -0.000155496)
(0 -0 -0.000138101)
(0 -0 -0.0001163)
(0 -0 -9.08428e-05)
(0 -0 -6.25947e-05)
(0 2.49234e-22 -3.16675e-06)
(0 -0 -7.86231e-06)
(0 -0 -1.4878e-05)
(0 -0 -2.3724e-05)
(0 -0 -3.48017e-05)
(0 -0 -4.80794e-05)
(0 -0 -6.33969e-05)
(0 -0 -8.05388e-05)
(0 -0 -9.91028e-05)
(0 -0 -0.000118492)
(0 -0 -0.000137925)
(0 -0 -0.000156467)
(0 -0 -0.000173086)
(0 -0 -0.000186723)
(0 -0 -0.000196377)
(0 -0 -0.000201182)
(0 -0 -0.000200488)
(0 -0 -0.000193911)
(0 -0 -0.000181366)
(0 -0 -0.000163067)
(0 -0 -0.000139511)
(0 -0 -0.000111454)
(0 -0 -7.98226e-05)
(0 -1.23395e-23 -5.89869e-06)
(0 -0 -1.13109e-05)
(0 -0 -1.87754e-05)
(0 -0 -2.82042e-05)
(0 -0 -3.99994e-05)
(0 -0 -5.41485e-05)
(0 -0 -7.0511e-05)
(0 -0 -8.88834e-05)
(0 -0 -0.000108868)
(0 -0 -0.000129862)
(0 -0 -0.000151059)
(0 -0 -0.000171482)
(0 -0 -0.000190034)
(0 -0 -0.000205569)
(0 -0 -0.000216975)
(0 -0 -0.000223265)
(0 -0 -0.000223657)
(0 -0 -0.000217638)
(0 -0 -0.00020501)
(0 -0 -0.000185903)
(0 -0 -0.000160773)
(0 -0 -0.000130386)
(0 -0 -9.57244e-05)
(0 -8.79759e-23 -8.58309e-06)
(0 -0 -1.45877e-05)
(0 -0 -2.25028e-05)
(0 -0 -3.24772e-05)
(0 -0 -4.49039e-05)
(0 -0 -5.97916e-05)
(0 -0 -7.70239e-05)
(0 -0 -9.64137e-05)
(0 -0 -0.000117573)
(0 -0 -0.000139895)
(0 -0 -0.00016256)
(0 -0 -0.000184556)
(0 -0 -0.000204734)
(0 -0 -0.000221873)
(0 -0 -0.000234771)
(0 -0 -0.000242335)
(0 -0 -0.000243667)
(0 -0 -0.000238146)
(0 -0 -0.000225474)
(0 -0 -0.000205709)
(0 -0 -0.000179272)
(0 -0 -0.000146936)
(0 -0 -0.000109733)
(0 7.75924e-23 -1.08743e-05)
(0 -0 -1.75435e-05)
(0 -0 -2.59908e-05)
(0 -0 -3.64687e-05)
(0 -0 -4.93973e-05)
(0 -0 -6.48329e-05)
(0 -0 -8.26962e-05)
(0 -0 -0.000102823)
(0 -0 -0.000124839)
(0 -0 -0.000148143)
(0 -0 -0.000171904)
(0 -0 -0.000195091)
(0 -0 -0.000216514)
(0 -0 -0.000234899)
(0 -0 -0.000248972)
(0 -0 -0.000257556)
(0 -0 -0.000259663)
(0 -0 -0.000254579)
(0 -0 -0.000241927)
(0 -0 -0.000221704)
(0 -0 -0.000194299)
(0 -0 -0.000160492)
(0 -0 -0.000121353)
(0 -8.93074e-24 -1.22936e-05)
(0 -0 -2.03649e-05)
(0 -0 -2.93615e-05)
(0 -0 -4.02249e-05)
(0 -0 -5.34144e-05)
(0 -0 -6.91218e-05)
(0 -0 -8.73096e-05)
(0 -0 -0.000107834)
(0 -0 -0.000130333)
(0 -0 -0.000154214)
(0 -0 -0.000178645)
(0 -0 -0.000202584)
(0 -0 -0.000224821)
(0 -0 -0.000244046)
(0 -0 -0.00025894)
(0 -0 -0.000268264)
(0 -0 -0.000270966)
(0 -0 -0.000266263)
(0 -0 -0.000253717)
(0 -0 -0.000233275)
(0 -0 -0.000205302)
(0 -0 -0.000170577)
(0 -0 -0.000130197)
(-4.82173e-22 9.26359e-21 0.000155912)
(1.62256e-21 -8.08881e-21 0.000123623)
(4.38711e-22 -9.75978e-21 0.000141453)
(-1.52524e-20 3.23087e-19 0.000110881)
(1.06713e-21 -1.81177e-20 7.94821e-05)
(1.40307e-21 -1.46023e-21 3.80343e-05)
(-1.73851e-20 5.93655e-19 -5.56394e-05)
(3.43749e-20 -1.20742e-18 -0.000346591)
(2.90512e-21 -2.33497e-20 -0.000701481)
(-5.1686e-22 1.013e-20 0.000125994)
(2.50181e-20 -5.80004e-19 9.84595e-05)
(2.42855e-20 -5.94479e-19 7.0415e-05)
(1.10035e-21 1.34916e-21 3.36495e-05)
(3.61373e-20 -1.23778e-18 -4.65538e-05)
(-3.15728e-20 1.24554e-18 -0.000290938)
(-2.81515e-20 1.23638e-18 -0.000594668)
(3.70246e-21 -8.26581e-20 0.000112003)
(-1.17717e-20 3.02169e-19 8.70852e-05)
(-4.26207e-20 1.16659e-18 6.18957e-05)
(-2.12533e-20 6.16434e-19 2.93769e-05)
(-1.48885e-20 6.11565e-19 -3.96055e-05)
(5.52037e-20 -2.425e-18 -0.000245207)
(4.63612e-20 -2.51268e-18 -0.000505209)
(-3.39875e-21 8.23047e-20 9.9042e-05)
(-7.5537e-22 1.02861e-20 7.65841e-05)
(1.93819e-20 -6.08581e-19 5.39045e-05)
(3.75858e-20 -1.21117e-18 2.48533e-05)
(-1.19198e-21 -3.06167e-21 -3.45775e-05)
(-9.41264e-21 6.28172e-19 -0.000207252)
(-1.7524e-20 1.23654e-18 -0.000429322)
(-2.79775e-21 6.36103e-20 8.71482e-05)
(-1.01872e-21 2.79745e-20 6.67078e-05)
(1.14045e-20 -3.14356e-19 4.61853e-05)
(-3.40092e-20 1.18652e-18 2.03564e-05)
(8.23454e-22 5.47358e-22 -3.06417e-05)
(-1.35846e-20 6.24859e-19 -0.000175026)
(-1.95465e-21 -1.74381e-20 -0.000364105)
(5.29442e-21 -1.36491e-19 7.62726e-05)
(3.00424e-22 -9.64464e-21 5.76461e-05)
(-8.47614e-21 2.77687e-19 3.90756e-05)
(3.14188e-20 -1.18314e-18 1.62103e-05)
(-1.45883e-20 5.91887e-19 -2.73179e-05)
(-1.49579e-20 6.38272e-19 -0.000147339)
(-4.72671e-22 -1.77938e-20 -0.000307679)
(-2.57853e-21 7.28426e-20 6.63719e-05)
(1.65082e-22 6.88859e-23 4.9435e-05)
(-3.68705e-22 -7.50451e-22 3.26776e-05)
(-1.41618e-20 5.91177e-19 1.25289e-05)
(1.38941e-20 -6.10041e-19 -2.43977e-05)
(2.26392e-20 -1.17538e-18 -0.000123468)
(1.03639e-20 -6.02498e-19 -0.000258769)
(-3.8901e-22 8.95573e-21 5.73603e-05)
(-4.86228e-21 1.54723e-19 4.20361e-05)
(6.05663e-23 1.81246e-22 2.69936e-05)
(-1.02223e-21 -5.5414e-22 9.34415e-06)
(-1.16638e-20 5.69094e-19 -2.17579e-05)
(-1.9818e-20 1.20422e-18 -0.00010286)
(-1.73415e-20 1.17733e-18 -0.000216353)
(2.77964e-22 -8.96217e-21 4.91329e-05)
(3.94624e-21 -1.36746e-19 3.53734e-05)
(-2.62185e-22 1.88007e-22 2.19719e-05)
(6.98939e-21 -2.91692e-19 6.6296e-06)
(1.15965e-20 -5.89005e-19 -1.93444e-05)
(-1.98487e-21 1.75238e-20 -8.5089e-05)
(1.53927e-20 -1.20373e-18 -0.000179607)
(1.20793e-24 1.01036e-22 4.16675e-05)
(3.84153e-21 -1.2678e-19 2.93845e-05)
(7.56294e-21 -2.91347e-19 1.75374e-05)
(-5.58626e-21 2.55694e-19 4.31795e-06)
(-2.36831e-23 3.74888e-20 -1.7155e-05)
(9.21605e-21 -5.88454e-19 -6.98325e-05)
(-5.9872e-21 5.70124e-19 -0.000147866)
(2.88992e-22 -9.21777e-21 3.48279e-05)
(-4.69509e-21 1.7248e-19 2.39468e-05)
(-6.55538e-21 2.73305e-19 1.35745e-05)
(-3.99451e-22 1.84809e-20 2.30828e-06)
(3.1856e-22 -1.7591e-20 -1.52267e-05)
(1.02589e-20 -5.82947e-19 -5.68441e-05)
(-1.50286e-22 -5.71922e-22 -0.000120576)
(-1.2853e-21 4.52594e-20 2.84444e-05)
(1.23598e-22 -9.01875e-21 1.89101e-05)
(1.51784e-22 -1.83925e-20 9.94414e-06)
(-6.31732e-21 2.90111e-19 4.7816e-07)
(-1.7334e-23 -6.9658e-22 -1.36222e-05)
(-1.32569e-20 9.07214e-19 -4.59326e-05)
(-6.90213e-21 5.62184e-19 -9.72717e-05)
(1.23169e-21 -4.5343e-20 2.23564e-05)
(-6.4981e-22 2.71687e-20 1.41155e-05)
(-2.69068e-23 5.17545e-22 6.49665e-06)
(1.19566e-20 -6.15939e-19 -1.30414e-06)
(-3.38156e-22 1.81127e-20 -1.24122e-05)
(7.18966e-21 -5.59067e-19 -3.69384e-05)
(5.99433e-21 -5.95714e-19 -7.75441e-05)
(-2.02447e-22 9.0579e-21 1.63863e-05)
(-1.94346e-22 9.16593e-21 9.40169e-06)
(3.191e-21 -1.44841e-19 3.08848e-06)
(-4.97698e-21 2.89503e-19 -3.1561e-06)
(4.01821e-22 -1.80751e-20 -1.16507e-05)
(-3.84714e-21 3.06107e-19 -2.97053e-05)
(3.96608e-21 -3.03609e-19 -6.1008e-05)
(2.06774e-22 -9.05934e-21 1.0364e-05)
(-1.92476e-22 8.88702e-21 4.63008e-06)
(-5.49146e-21 2.71232e-19 -3.88483e-07)
(-2.68782e-22 4.01732e-23 -5.1505e-06)
(-2.59352e-21 1.61762e-19 -1.13446e-05)
(3.68982e-21 -3.03806e-19 -2.40466e-05)
(-2.90356e-21 3.02446e-19 -4.72699e-05)
(2.16871e-22 -9.09437e-21 4.16258e-06)
(-1.34254e-21 6.33784e-20 -2.75142e-07)
(2.77204e-21 -1.44611e-19 -3.96493e-06)
(3.26979e-22 -1.78879e-20 -7.27272e-06)
(4.14138e-21 -2.86839e-19 -1.14113e-05)
(-3.51244e-21 3.0284e-19 -1.97078e-05)
(-1.38482e-22 -1.74294e-20 -3.58962e-05)
(-3.98141e-22 1.80971e-20 -2.23954e-06)
(-1.58328e-22 8.95481e-21 -5.26384e-06)
(-1.22071e-21 7.21155e-20 -7.53371e-06)
(5.86973e-23 -4.06478e-23 -9.36476e-06)
(-1.79229e-21 1.43057e-19 -1.16314e-05)
(5.922e-23 -1.75333e-20 -1.63324e-05)
(1.34516e-21 -1.40362e-19 -2.63938e-05)
(1.98709e-22 -9.05227e-21 -8.65924e-06)
(3.71557e-22 -1.81069e-20 -1.00689e-05)
(1.57508e-21 -9.02433e-20 -1.07748e-05)
(-3.1169e-22 1.78709e-20 -1.10617e-05)
(-5.55759e-22 3.5534e-20 -1.16026e-05)
(-9.50859e-22 8.80966e-20 -1.34486e-05)
(-1.00295e-21 1.22448e-19 -1.82014e-05)
(-1.77534e-22 9.06867e-21 -1.46353e-05)
(5.37959e-22 -2.71439e-20 -1.41329e-05)
(-2.46259e-22 1.80269e-20 -1.30366e-05)
(5.21576e-22 -3.57905e-20 -1.17436e-05)
(2.00147e-22 -1.77863e-20 -1.0712e-05)
(5.45823e-22 -5.27934e-20 -1.05441e-05)
(8.81758e-23 -1.73831e-20 -1.06773e-05)
(-1.83799e-20 2.86014e-19 0.000221888)
(-5.65374e-22 9.59246e-21 0.000188649)
(7.42363e-22 -2.04706e-20 0.000460032)
(-9.81756e-20 1.24073e-18 0.000325643)
(4.37107e-20 -6.10703e-19 0.00029439)
(-7.62878e-22 -6.98951e-22 0.000262692)
(9.29603e-22 -1.84495e-20 0.000231299)
(-1.73047e-21 2.74441e-20 0.000200015)
(5.19893e-22 -9.09762e-21 0.000170491)
(9.22923e-20 -1.22445e-18 0.000401724)
(8.32889e-20 -1.17577e-18 0.000289253)
(-3.99456e-20 5.73742e-19 0.000262434)
(-5.90499e-22 -2.17927e-22 0.000235238)
(-3.57665e-20 5.8438e-19 0.000207481)
(-1.72881e-20 3.01636e-19 0.000180494)
(-3.97674e-22 9.4847e-21 0.000153753)
(-1.7206e-19 2.38102e-18 0.000349717)
(-1.64149e-19 2.39819e-18 0.000256503)
(-5.40666e-22 2.20875e-21 0.000234003)
(3.48395e-20 -5.6596e-19 0.000210567)
(6.80499e-20 -1.18746e-18 0.00018639)
(3.06426e-20 -5.76111e-19 0.000161794)
(-3.12558e-21 6.32234e-20 0.000136998)
(8.26239e-20 -1.19467e-18 0.000303283)
(3.85096e-20 -5.76725e-19 0.000226791)
(5.32691e-23 -1.41338e-21 0.000208101)
(-6.7281e-20 1.15129e-18 0.000188014)
(-3.01273e-20 5.66981e-19 0.000166642)
(-1.49447e-20 3.01723e-19 0.000144447)
(2.89178e-21 -6.37298e-20 0.000121826)
(1.81188e-21 -1.80391e-20 0.000261803)
(3.64032e-20 -5.71239e-19 0.000199586)
(-3.29693e-22 5.17339e-22 0.000184201)
(6.41774e-20 -1.16742e-18 0.000167109)
(-1.458e-20 2.71469e-19 0.000148382)
(-1.68108e-21 2.75623e-20 0.000128494)
(3.80411e-21 -8.18212e-20 0.000107947)
(1.29259e-21 -1.8133e-20 0.000224841)
(3.22021e-20 -5.48266e-19 0.000174772)
(3.19557e-20 -5.83966e-19 0.000162231)
(-6.07491e-20 1.16429e-18 0.000147782)
(1.53344e-20 -3.08409e-19 0.000131469)
(3.70122e-22 -9.50604e-21 0.000113771)
(-6.51396e-21 1.54665e-19 9.52088e-05)
(-3.37638e-20 5.84462e-19 0.000191993)
(-6.62867e-20 1.18506e-18 0.000152234)
(-3.05036e-20 5.65724e-19 0.000142139)
(5.7357e-20 -1.16129e-18 0.000130008)
(2.60481e-22 -7.22312e-22 0.000115854)
(-9.09686e-23 6.5405e-23 0.000100197)
(2.83731e-21 -7.2834e-20 8.35515e-05)
(6.59195e-20 -1.18235e-18 0.000162861)
(6.01972e-20 -1.14383e-18 0.000131811)
(2.92052e-20 -5.98192e-19 0.000123823)
(-2.73365e-20 5.80034e-19 0.000113735)
(-5.09479e-23 4.07562e-22 0.000101554)
(5.5269e-21 -1.35714e-19 8.77427e-05)
(-2.94552e-22 8.95667e-21 7.28715e-05)
(-3.035e-20 5.6142e-19 0.000137068)
(-1.84721e-21 1.93582e-20 0.000113322)
(-2.80982e-20 5.78808e-19 0.000107147)
(-1.32026e-20 2.88978e-19 9.88684e-05)
(1.45346e-22 3.574e-23 8.84655e-05)
(-5.98649e-21 1.54079e-19 7.63173e-05)
(3.34899e-22 -8.93718e-21 6.30452e-05)
(2.91303e-20 -5.93152e-19 0.000114252)
(-2.83807e-20 5.76438e-19 9.65779e-05)
(-1.89911e-21 3.63227e-20 9.19465e-05)
(1.4122e-20 -3.25104e-19 8.52303e-05)
(-1.15335e-20 2.88276e-19 7.6387e-05)
(-6.16316e-21 1.62691e-19 6.58219e-05)
(1.50059e-24 9.31649e-23 5.40737e-05)
(-1.27357e-21 1.07919e-21 9.40688e-05)
(-2.593e-20 5.7292e-19 8.13824e-05)
(7.47042e-22 -1.78754e-20 7.80546e-05)
(-6.88821e-22 1.81342e-20 7.26976e-05)
(1.18623e-20 -3.06923e-19 6.52509e-05)
(4.21006e-21 -1.17808e-19 5.61342e-05)
(2.95346e-22 -9.10643e-21 4.5823e-05)
(-4.94566e-22 -1.65303e-20 7.61828e-05)
(3.61503e-20 -8.21373e-19 6.75315e-05)
(5.04034e-23 -2.53682e-23 6.52894e-05)
(1.11256e-20 -2.87096e-19 6.11064e-05)
(8.32498e-22 -1.80733e-20 5.49057e-05)
(4.06571e-22 -9.02623e-21 4.70801e-05)
(8.34121e-22 -2.71376e-20 3.80962e-05)
(-2.46672e-20 5.4877e-19 6.02686e-05)
(-2.43612e-20 5.8671e-19 5.48084e-05)
(-6.90683e-22 1.7796e-20 5.34441e-05)
(-2.00259e-20 5.38073e-19 5.02538e-05)
(3.46149e-24 8.06274e-23 4.5145e-05)
(-3.19843e-21 9.91691e-20 3.84874e-05)
(-8.10977e-22 2.72523e-20 3.07346e-05)
(-1.07805e-20 2.63629e-19 4.60024e-05)
(1.07606e-20 -2.65932e-19 4.29759e-05)
(6.40145e-22 -1.77821e-20 4.22834e-05)
(1.02453e-20 -2.86868e-19 3.99077e-05)
(-4.79105e-21 1.4363e-19 3.57475e-05)
(1.94424e-21 -6.32179e-20 3.01485e-05)
(-2.81233e-22 9.00485e-21 2.35457e-05)
(1.07684e-20 -2.62709e-19 3.30463e-05)
(-9.76152e-21 2.64384e-19 3.17546e-05)
(4.39524e-21 -1.24225e-19 3.15223e-05)
(1.06494e-22 9.61055e-23 2.97919e-05)
(9.73129e-21 -3.05445e-19 2.64536e-05)
(-2.32259e-22 8.9469e-21 2.18286e-05)
(-2.38573e-22 9.03535e-21 1.63265e-05)
(6.19087e-22 -1.74193e-20 2.10064e-05)
(9.7959e-21 -2.63893e-19 2.07752e-05)
(-9.75702e-21 2.83574e-19 2.07864e-05)
(5.58476e-22 -1.7878e-20 1.95565e-05)
(-4.44274e-21 1.43758e-19 1.69617e-05)
(2.22501e-22 -8.94654e-21 1.32855e-05)
(7.26146e-22 -2.71355e-20 8.89425e-06)
(-4.91094e-21 1.38414e-19 9.32692e-06)
(5.99477e-22 -1.75366e-20 9.48959e-06)
(6.98726e-21 -2.12249e-19 9.58073e-06)
(-2.90578e-23 -2.00785e-23 8.80791e-06)
(1.97776e-21 -7.17335e-20 6.98491e-06)
(-3.10069e-22 9.05853e-21 4.32979e-06)
(-2.67222e-24 1.60251e-25 1.14586e-06)
(5.52385e-21 -1.55176e-19 -3.02359e-06)
(1.66012e-21 -5.22684e-20 -2.98196e-06)
(-2.26636e-21 7.06177e-20 -2.71243e-06)
(-5.10596e-22 1.7808e-20 -2.82289e-06)
(-5.37354e-22 1.80408e-20 -3.65407e-06)
(-5.00533e-22 1.80827e-20 -5.07312e-06)
(-2.19689e-22 9.05957e-21 -6.84315e-06)
(5.36138e-22 -1.71424e-20 -1.86637e-05)
(-2.82998e-21 8.69621e-20 -1.78963e-05)
(-5.14592e-22 1.7598e-20 -1.65331e-05)
(1.00737e-21 -3.55619e-20 -1.54324e-05)
(-1.47349e-21 5.37922e-20 -1.48283e-05)
(-2.46479e-22 9.02858e-21 -1.46653e-05)
(-2.1766e-22 9.03954e-21 -1.46609e-05)
(0 -0 2.94328e-06)
(0 -0 3.14962e-06)
(0 -0 3.31857e-06)
(0 -0 2.66104e-06)
(0 -0 1.47379e-06)
(0 -0 1.41447e-07)
(0 -0 -1.30346e-06)
(0 -0 -2.81547e-06)
(0 -0 -4.33774e-06)
(0 -0 -5.80506e-06)
(0 -0 -7.15091e-06)
(0 -0 -8.31547e-06)
(0 -0 -9.25266e-06)
(0 -0 -9.9345e-06)
(0 -0 -1.03529e-05)
(0 -0 -1.05179e-05)
(0 -0 -1.04542e-05)
(0 -0 -1.01971e-05)
(0 -0 -9.78803e-06)
(0 -0 -9.27109e-06)
(0 -0 -8.68917e-06)
(0 -0 -8.08172e-06)
(0 -0 -7.48294e-06)
(0 -0 -6.92127e-06)
(0 -0 -6.42165e-06)
(0 -0 -6.01391e-06)
(0 -0 -5.7644e-06)
(0 -0 -5.89042e-06)
(0 -0 -7.17961e-06)
(0 -0 -1.25521e-05)
(0 -0 -3.29244e-05)
(0 -0 -0.00010941)
(0 -0 -0.000397993)
(0 1.57458e-23 -0.00158834)
(0 -0 3.06367e-06)
(0 -0 3.3023e-06)
(0 -0 3.63942e-06)
(0 -0 3.0174e-06)
(0 -0 1.88325e-06)
(0 -0 6.21727e-07)
(0 -0 -7.44522e-07)
(0 -0 -2.17591e-06)
(0 -0 -3.61922e-06)
(0 -0 -5.01193e-06)
(0 -0 -6.28962e-06)
(0 -0 -7.39412e-06)
(0 -0 -8.28048e-06)
(0 -0 -8.92157e-06)
(0 -0 -9.30903e-06)
(0 -0 -9.45218e-06)
(0 -0 -9.37491e-06)
(0 -0 -9.11147e-06)
(0 -0 -8.70221e-06)
(0 -0 -8.18955e-06)
(0 -0 -7.61479e-06)
(0 -0 -7.01597e-06)
(0 -0 -6.42605e-06)
(0 -0 -5.8724e-06)
(0 -0 -5.37883e-06)
(0 -0 -4.97301e-06)
(0 -0 -4.71443e-06)
(0 -0 -4.79651e-06)
(0 -0 -5.91963e-06)
(0 -0 -1.06768e-05)
(0 -0 -2.87425e-05)
(0 -0 -9.64624e-05)
(0 -0 -0.000351194)
(0 7.8191e-22 -0.00139481)
(0 -0 3.42081e-06)
(0 -0 3.78353e-06)
(0 -0 4.11098e-06)
(0 -0 3.49784e-06)
(0 -0 2.39705e-06)
(0 -0 1.18807e-06)
(0 -0 -1.14253e-07)
(0 -0 -1.47639e-06)
(0 -0 -2.84964e-06)
(0 -0 -4.17522e-06)
(0 -0 -5.39128e-06)
(0 -0 -6.44165e-06)
(0 -0 -7.28254e-06)
(0 -0 -7.8875e-06)
(0 -0 -8.24835e-06)
(0 -0 -8.37402e-06)
(0 -0 -8.28748e-06)
(0 -0 -8.02175e-06)
(0 -0 -7.6157e-06)
(0 -0 -7.11025e-06)
(0 -0 -6.54528e-06)
(0 -0 -5.95731e-06)
(0 -0 -5.37789e-06)
(0 -0 -4.83336e-06)
(0 -0 -4.34607e-06)
(0 -0 -3.9417e-06)
(0 -0 -3.67385e-06)
(0 -0 -3.71455e-06)
(0 -0 -4.68572e-06)
(0 -0 -8.88619e-06)
(0 -0 -2.48753e-05)
(0 -0 -8.47249e-05)
(0 -0 -0.000309262)
(0 -1.42732e-21 -0.00122232)
(0 -0 3.8169e-06)
(0 -0 4.2232e-06)
(0 -0 4.5883e-06)
(0 -0 4.01027e-06)
(0 -0 2.95122e-06)
(0 -0 1.79394e-06)
(0 -0 5.50836e-07)
(0 -0 -7.47913e-07)
(0 -0 -2.05708e-06)
(0 -0 -3.32101e-06)
(0 -0 -4.48066e-06)
(0 -0 -5.4816e-06)
(0 -0 -6.28168e-06)
(0 -0 -6.85502e-06)
(0 -0 -7.19368e-06)
(0 -0 -7.30637e-06)
(0 -0 -7.21522e-06)
(0 -0 -6.95206e-06)
(0 -0 -6.55431e-06)
(0 -0 -6.06132e-06)
(0 -0 -5.51137e-06)
(0 -0 -4.93943e-06)
(0 -0 -4.37569e-06)
(0 -0 -3.8452e-06)
(0 -0 -3.36911e-06)
(0 -0 -2.97091e-06)
(0 -0 -2.6988e-06)
(0 -0 -2.70563e-06)
(0 -0 -3.5425e-06)
(0 -0 -7.24333e-06)
(0 -0 -2.13645e-05)
(0 -0 -7.41436e-05)
(0 -0 -0.000271617)
(0 6.72377e-22 -0.00106868)
(0 -0 4.15615e-06)
(0 -0 4.62395e-06)
(0 -0 5.0479e-06)
(0 -0 4.52408e-06)
(0 -0 3.51975e-06)
(0 -0 2.42122e-06)
(0 -0 1.24027e-06)
(0 -0 5.37196e-09)
(0 -0 -1.24073e-06)
(0 -0 -2.44471e-06)
(0 -0 -3.54987e-06)
(0 -0 -4.50377e-06)
(0 -0 -5.26551e-06)
(0 -0 -5.81002e-06)
(0 -0 -6.12969e-06)
(0 -0 -6.23291e-06)
(0 -0 -6.14107e-06)
(0 -0 -5.88484e-06)
(0 -0 -5.50015e-06)
(0 -0 -5.02474e-06)
(0 -0 -4.49521e-06)
(0 -0 -3.9449e-06)
(0 -0 -3.40255e-06)
(0 -0 -2.89178e-06)
(0 -0 -2.43256e-06)
(0 -0 -2.04634e-06)
(0 -0 -1.77616e-06)
(0 -0 -1.75754e-06)
(0 -0 -2.47764e-06)
(0 -0 -5.73116e-06)
(0 -0 -1.81712e-05)
(0 -0 -6.45905e-05)
(0 -0 -0.000237784)
(0 9.64774e-24 -0.000931579)
(0 -0 4.4708e-06)
(0 -0 5.00127e-06)
(0 -0 5.49224e-06)
(0 -0 5.03439e-06)
(0 -0 4.09627e-06)
(0 -0 3.06577e-06)
(0 -0 1.95399e-06)
(0 -0 7.87952e-07)
(0 -0 -3.91531e-07)
(0 -0 -1.53332e-06)
(0 -0 -2.58252e-06)
(0 -0 -3.48864e-06)
(0 -0 -4.21197e-06)
(0 -0 -4.72835e-06)
(0 -0 -5.03036e-06)
(0 -0 -5.12607e-06)
(0 -0 -5.03615e-06)
(0 -0 -4.79005e-06)
(0 -0 -4.42217e-06)
(0 -0 -3.96854e-06)
(0 -0 -3.46399e-06)
(0 -0 -2.9401e-06)
(0 -0 -2.42407e-06)
(0 -0 -1.93814e-06)
(0 -0 -1.50077e-06)
(0 -0 -1.13165e-06)
(0 -0 -8.69025e-07)
(0 -0 -8.32544e-07)
(0 -0 -1.45155e-06)
(0 -0 -4.30452e-06)
(0 -0 -1.52297e-05)
(0 -0 -5.59222e-05)
(0 -0 -0.000207313)
(0 8.35588e-24 -0.000809132)
(0 -0 4.76141e-06)
(0 -0 5.35735e-06)
(0 -0 5.92112e-06)
(0 -0 5.53818e-06)
(0 -0 4.67652e-06)
(0 -0 3.72404e-06)
(0 -0 2.6905e-06)
(0 -0 1.60118e-06)
(0 -0 4.95035e-07)
(0 -0 -5.78988e-07)
(0 -0 -1.56793e-06)
(0 -0 -2.4229e-06)
(0 -0 -3.10557e-06)
(0 -0 -3.59258e-06)
(0 -0 -3.87664e-06)
(0 -0 -3.96552e-06)
(0 -0 -3.87905e-06)
(0 -0 -3.64535e-06)
(0 -0 -3.29721e-06)
(0 -0 -2.86881e-06)
(0 -0 -2.39309e-06)
(0 -0 -1.89984e-06)
(0 -0 -1.41443e-06)
(0 -0 -9.57743e-07)
(0 -0 -5.46736e-07)
(0 -0 -1.99192e-07)
(0 -0 5.10028e-08)
(0 -0 9.86425e-08)
(0 -0 -4.33074e-07)
(0 -0 -2.92707e-06)
(0 -0 -1.24858e-05)
(0 -0 -4.80159e-05)
(0 -0 -0.00017981)
(0 -1.79371e-22 -0.000699656)
(0 -0 5.0116e-06)
(0 -0 5.67967e-06)
(0 -0 6.3238e-06)
(0 -0 6.02544e-06)
(0 -0 5.25108e-06)
(0 -0 4.38776e-06)
(0 -0 3.4433e-06)
(0 -0 2.44088e-06)
(0 -0 1.41716e-06)
(0 -0 4.19058e-07)
(0 -0 -5.02807e-07)
(0 -0 -1.30111e-06)
(0 -0 -1.93897e-06)
(0 -0 -2.3937e-06)
(0 -0 -2.65819e-06)
(0 -0 -2.73982e-06)
(0 -0 -2.65743e-06)
(0 -0 -2.43768e-06)
(0 -0 -2.11161e-06)
(0 -0 -1.7114e-06)
(0 -0 -1.26794e-06)
(0 -0 -8.09046e-07)
(0 -0 -3.58281e-07)
(0 -0 6.52269e-08)
(0 -0 4.45833e-07)
(0 -0 7.67753e-07)
(0 -0 1.00114e-06)
(0 -0 1.05399e-06)
(0 -0 5.97183e-07)
(0 -0 -1.57497e-06)
(0 -0 -9.90011e-06)
(0 -0 -4.07724e-05)
(0 -0 -0.000154937)
(0 3.30209e-22 -0.000601682)
(0 -0 5.18874e-06)
(0 -0 5.93965e-06)
(0 -0 6.67503e-06)
(0 -0 6.47342e-06)
(0 -0 5.79936e-06)
(0 -0 5.03828e-06)
(0 -0 4.19579e-06)
(0 -0 3.29267e-06)
(0 -0 2.3629e-06)
(0 -0 1.45093e-06)
(0 -0 6.05179e-07)
(0 -0 -1.29051e-07)
(0 -0 -7.16228e-07)
(0 -0 -1.13436e-06)
(0 -0 -1.37653e-06)
(0 -0 -1.44957e-06)
(0 -0 -1.37118e-06)
(0 -0 -1.16642e-06)
(0 -0 -8.64355e-07)
(0 -0 -4.95015e-07)
(0 -0 -8.70207e-08)
(0 -0 3.34043e-07)
(0 -0 7.46436e-07)
(0 -0 1.13287e-06)
(0 -0 1.47931e-06)
(0 -0 1.77179e-06)
(0 -0 1.98428e-06)
(0 -0 2.03687e-06)
(0 -0 1.64372e-06)
(0 -0 -2.40106e-07)
(0 -0 -7.45089e-06)
(0 -0 -3.41176e-05)
(0 -0 -0.00013241)
(0 -1.4004e-22 -0.000513934)
(0 -0 5.24435e-06)
(0 -0 6.09256e-06)
(0 -0 6.93361e-06)
(0 -0 6.84406e-06)
(0 -0 6.28611e-06)
(0 -0 5.64302e-06)
(0 -0 4.91787e-06)
(0 -0 4.12866e-06)
(0 -0 3.30664e-06)
(0 -0 2.49321e-06)
(0 -0 1.73446e-06)
(0 -0 1.07345e-06)
(0 -0 5.44374e-07)
(0 -0 1.68372e-07)
(0 -0 -4.77422e-08)
(0 -0 -1.10093e-07)
(0 -0 -3.50555e-08)
(0 -0 1.54056e-07)
(0 -0 4.30391e-07)
(0 -0 7.66362e-07)
(0 -0 1.13577e-06)
(0 -0 1.5154e-06)
(0 -0 1.88579e-06)
(0 -0 2.23132e-06)
(0 -0 2.53976e-06)
(0 -0 2.79901e-06)
(0 -0 2.98661e-06)
(0 -0 3.03364e-06)
(0 -0 2.69374e-06)
(0 -0 1.06778e-06)
(0 -0 -5.1362e-06)
(0 -0 -2.80034e-05)
(0 -0 -0.000111996)
(0 8.79543e-23 -0.000435304)
(0 -0 5.11579e-06)
(0 -0 6.07909e-06)
(0 -0 7.04354e-06)
(0 -0 7.08457e-06)
(0 -0 6.66143e-06)
(0 -0 6.15479e-06)
(0 -0 5.56496e-06)
(0 -0 4.90673e-06)
(0 -0 4.20826e-06)
(0 -0 3.50786e-06)
(0 -0 2.84873e-06)
(0 -0 2.27169e-06)
(0 -0 1.8094e-06)
(0 -0 1.48209e-06)
(0 -0 1.29661e-06)
(0 -0 1.24767e-06)
(0 -0 1.32034e-06)
(0 -0 1.49337e-06)
(0 -0 1.74237e-06)
(0 -0 2.04242e-06)
(0 -0 2.37007e-06)
(0 -0 2.70462e-06)
(0 -0 3.02904e-06)
(0 -0 3.32977e-06)
(0 -0 3.59629e-06)
(0 -0 3.81836e-06)
(0 -0 3.97705e-06)
(0 -0 4.01334e-06)
(0 -0 3.71687e-06)
(0 -0 2.32084e-06)
(0 -0 -2.97378e-06)
(0 -0 -2.24073e-05)
(0 -0 -9.35088e-05)
(0 -2.7724e-23 -0.000364837)
(0 -0 4.73022e-06)
(0 -0 5.82903e-06)
(0 -0 6.93742e-06)
(0 -0 7.13031e-06)
(0 -0 6.86343e-06)
(0 -0 6.51419e-06)
(0 -0 6.07988e-06)
(0 -0 5.57198e-06)
(0 -0 5.01487e-06)
(0 -0 4.4437e-06)
(0 -0 3.89836e-06)
(0 -0 3.41741e-06)
(0 -0 3.03163e-06)
(0 -0 2.76044e-06)
(0 -0 2.61082e-06)
(0 -0 2.57839e-06)
(0 -0 2.64991e-06)
(0 -0 2.80648e-06)
(0 -0 3.02647e-06)
(0 -0 3.2879e-06)
(0 -0 3.57035e-06)
(0 -0 3.85601e-06)
(0 -0 4.13028e-06)
(0 -0 4.38199e-06)
(0 -0 4.60243e-06)
(0 -0 4.7832e-06)
(0 -0 4.90872e-06)
(0 -0 4.92914e-06)
(0 -0 4.66669e-06)
(0 -0 3.47478e-06)
(0 -0 -9.99101e-07)
(0 -0 -1.73289e-05)
(0 -0 -7.6806e-05)
(0 -2.40937e-23 -0.000301713)
(0 -0 4.01049e-06)
(0 -0 5.2672e-06)
(0 -0 6.5421e-06)
(0 -0 6.91014e-06)
(0 -0 6.823e-06)
(0 -0 6.65422e-06)
(0 -0 6.39756e-06)
(0 -0 6.06089e-06)
(0 -0 5.6647e-06)
(0 -0 5.24024e-06)
(0 -0 4.82416e-06)
(0 -0 4.45231e-06)
(0 -0 4.15358e-06)
(0 -0 3.94657e-06)
(0 -0 3.83844e-06)
(0 -0 3.82584e-06)
(0 -0 3.89751e-06)
(0 -0 4.03718e-06)
(0 -0 4.2263e-06)
(0 -0 4.44618e-06)
(0 -0 4.67966e-06)
(0 -0 4.91216e-06)
(0 -0 5.13186e-06)
(0 -0 5.33e-06)
(0 -0 5.49993e-06)
(0 -0 5.63512e-06)
(0 -0 5.72298e-06)
(0 -0 5.72229e-06)
(0 -0 5.48479e-06)
(0 -0 4.47301e-06)
(0 -0 7.38846e-07)
(0 -0 -1.27866e-05)
(0 -0 -6.17796e-05)
(0 -2.80886e-23 -0.000245229)
(0 -0 2.88281e-06)
(0 -0 4.32084e-06)
(0 -0 5.78607e-06)
(0 -0 6.35386e-06)
(0 -0 6.47116e-06)
(0 -0 6.50703e-06)
(0 -0 6.45148e-06)
(0 -0 6.30803e-06)
(0 -0 6.09318e-06)
(0 -0 5.8338e-06)
(0 -0 5.56312e-06)
(0 -0 5.31393e-06)
(0 -0 5.11321e-06)
(0 -0 4.97872e-06)
(0 -0 4.9178e-06)
(0 -0 4.92839e-06)
(0 -0 5.00145e-06)
(0 -0 5.12363e-06)
(0 -0 5.27973e-06)
(0 -0 5.4548e-06)
(0 -0 5.6353e-06)
(0 -0 5.81006e-06)
(0 -0 5.97038e-06)
(0 -0 6.11007e-06)
(0 -0 6.22472e-06)
(0 -0 6.30982e-06)
(0 -0 6.35547e-06)
(0 -0 6.32834e-06)
(0 -0 6.10707e-06)
(0 -0 5.2529e-06)
(0 -0 2.18367e-06)
(0 -0 -8.81051e-06)
(0 -0 -4.83514e-05)
(0 9.91812e-24 -0.000194787)
(0 -0 1.28556e-06)
(0 -0 2.9283e-06)
(0 -0 4.60785e-06)
(0 -0 5.40031e-06)
(0 -0 5.74714e-06)
(0 -0 6.01213e-06)
(0 -0 6.18126e-06)
(0 -0 6.25343e-06)
(0 -0 6.24038e-06)
(0 -0 6.16469e-06)
(0 -0 6.05558e-06)
(0 -0 5.94266e-06)
(0 -0 5.85094e-06)
(0 -0 5.79724e-06)
(0 -0 5.78916e-06)
(0 -0 5.82613e-06)
(0 -0 5.90161e-06)
(0 -0 6.00546e-06)
(0 -0 6.12619e-06)
(0 -0 6.25287e-06)
(0 -0 6.37606e-06)
(0 -0 6.48824e-06)
(0 -0 6.58417e-06)
(0 -0 6.66032e-06)
(0 -0 6.71472e-06)
(0 -0 6.74497e-06)
(0 -0 6.74386e-06)
(0 -0 6.685e-06)
(0 -0 6.47139e-06)
(0 -0 5.75341e-06)
(0 -0 3.27907e-06)
(0 -0 -5.43637e-06)
(0 -0 -3.6467e-05)
(0 -9.13694e-24 -0.000149884)
(0 -0 -8.22191e-07)
(0 -0 1.0479e-06)
(0 -0 2.96509e-06)
(0 -0 4.00629e-06)
(0 -0 4.60688e-06)
(0 -0 5.12475e-06)
(0 -0 5.54121e-06)
(0 -0 5.85051e-06)
(0 -0 6.05907e-06)