/*--------------------------------*- C++ -*----------------------------------*\
| =========                 |                                                 |
| \\      /  F ield         | OpenFOAM: The Open Source CFD Toolbox           |
|  \\    /   O peration     | Version:  2412                                  |
|   \\  /    A nd           | Website:  www.openfoam.com                      |
|    \\/     M anipulation  |                                                 |
\*---------------------------------------------------------------------------*/
FoamFile
{
    version     2.0;
    format      ascii;
    arch        "LSB;label=32;scalar=64";
    class       volScalarField;
    location    "26";
    object      p;
}
// * * * * * * * * * * * * * * * * * * * * * * * * * * * * * * * * * * * * * //

dimensions      [0 2 -2 0 0 0 0];

internalField   nonuniform List<scalar> 
5285
(
-0.000179245
-0.000172645
-0.000166071
-0.000159532
-0.000153042
-0.000146611
-0.000140252
-0.000133974
-0.000127789
-0.000121706
-0.000115737
-0.000109889
-0.000104172
-9.85941e-05
-9.31625e-05
-8.78841e-05
-8.2765e-05
-7.78103e-05
-7.30248e-05
-6.84121e-05
-6.39753e-05
-5.97165e-05
-5.56372e-05
-5.17381e-05
-4.80191e-05
-4.44794e-05
-4.11177e-05
-3.79319e-05
-3.49192e-05
-3.20765e-05
-2.93999e-05
-2.68854e-05
-2.45284e-05
-2.23238e-05
-2.02664e-05
-1.83508e-05
-1.65713e-05
-1.49219e-05
-1.33968e-05
-1.19899e-05
-1.06953e-05
-9.50684e-06
-8.41859e-06
-7.42488e-06
-0.000182819
-0.000175915
-0.000169046
-0.000162225
-0.000155463
-0.000148771
-0.000142163
-0.00013565
-0.000129241
-0.000122949
-0.000116781
-0.000110749
-0.00010486
-9.91229e-05
-9.35447e-05
-8.8132e-05
-8.28906e-05
-7.78255e-05
-7.29408e-05
-6.82399e-05
-6.37252e-05
-5.93985e-05
-5.52607e-05
-5.1312e-05
-4.75517e-05
-4.39785e-05
-4.05903e-05
-3.73846e-05
-3.4358e-05
-3.15069e-05
-2.88268e-05
-2.63132e-05
-2.39608e-05
-2.17643e-05
-1.97179e-05
-1.78158e-05
-1.60517e-05
-1.44196e-05
-1.29131e-05
-1.15258e-05
-1.02516e-05
-9.08403e-06
-8.01691e-06
-7.04445e-06
-0.000186283
-0.000179066
-0.000171897
-0.000164787
-0.000157748
-0.000150792
-0.000143933
-0.000137181
-0.000130548
-0.000124044
-0.00011768
-0.000111463
-0.000105404
-9.95101e-05
-9.3788e-05
-8.82442e-05
-8.28843e-05
-7.77127e-05
-7.27333e-05
-6.79488e-05
-6.33612e-05
-5.89718e-05
-5.47808e-05
-5.07877e-05
-4.69914e-05
-4.33899e-05
-3.99806e-05
-3.67602e-05
-3.37249e-05
-3.08703e-05
-2.81915e-05
-2.56833e-05
-2.33401e-05
-2.11559e-05
-1.91245e-05
-1.72396e-05
-1.54947e-05
-1.38832e-05
-1.23984e-05
-1.10337e-05
-9.78256e-06
-8.63842e-06
-7.59477e-06
-6.64568e-06
-0.000189622
-0.000182086
-0.00017461
-0.000167205
-0.000159884
-0.000152661
-0.000145548
-0.000138557
-0.000131698
-0.000124983
-0.000118422
-0.000112023
-0.000105795
-9.9747e-05
-9.38843e-05
-8.82133e-05
-8.27391e-05
-7.74658e-05
-7.23966e-05
-6.75337e-05
-6.28787e-05
-5.84321e-05
-5.41935e-05
-5.01619e-05
-4.63354e-05
-4.27113e-05
-3.92865e-05
-3.6057e-05
-3.30183e-05
-3.01654e-05
-2.74929e-05
-2.4995e-05
-2.26655e-05
-2.0498e-05
-1.84858e-05
-1.66221e-05
-1.49e-05
-1.33125e-05
-1.18527e-05
-1.05136e-05
-9.28832e-06
-8.17016e-06
-7.15232e-06
-6.22877e-06
-0.000192822
-0.000184959
-0.000177169
-0.000169465
-0.000161859
-0.000154364
-0.000146995
-0.000139763
-0.000132679
-0.000125753
-0.000118996
-0.000112417
-0.000106025
-9.98252e-05
-9.38259e-05
-8.80321e-05
-8.24485e-05
-7.70787e-05
-7.19252e-05
-6.69898e-05
-6.22733e-05
-5.77755e-05
-5.34956e-05
-4.94315e-05
-4.55809e-05
-4.19404e-05
-3.8506e-05
-3.52732e-05
-3.22368e-05
-2.93911e-05
-2.67302e-05
-2.42477e-05
-2.19367e-05
-1.97904e-05
-1.78016e-05
-1.59632e-05
-1.42677e-05
-1.27078e-05
-1.12762e-05
-9.96573e-06
-8.76913e-06
-7.67952e-06
-6.68986e-06
-5.79402e-06
-0.000195867
-0.00018767
-0.000179561
-0.000171552
-0.000163657
-0.000155889
-0.000148263
-0.000140789
-0.000133479
-0.000126344
-0.000119394
-0.000112637
-0.000106082
-9.97361e-05
-9.36048e-05
-8.76933e-05
-8.20059e-05
-7.65453e-05
-7.13137e-05
-6.63121e-05
-6.15406e-05
-5.69984e-05
-5.26836e-05
-4.85938e-05
-4.47257e-05
-4.10751e-05
-3.76375e-05
-3.44075e-05
-3.13793e-05
-2.85466e-05
-2.59028e-05
-2.34407e-05
-2.11533e-05
-1.90329e-05
-1.7072e-05
-1.52629e-05
-1.35978e-05
-1.20691e-05
-1.06691e-05
-9.39034e-06
-8.22528e-06
-7.16682e-06
-6.20773e-06
-5.34177e-06
-0.00019874
-0.000190203
-0.000181769
-0.000173451
-0.000165264
-0.00015722
-0.000149335
-0.00014162
-0.000134086
-0.000126743
-0.000119602
-0.000112672
-0.000105959
-9.94707e-05
-9.32127e-05
-8.71894e-05
-8.14043e-05
-7.58596e-05
-7.05567e-05
-6.54958e-05
-6.06764e-05
-5.60968e-05
-5.17544e-05
-4.76459e-05
-4.37672e-05
-4.01135e-05
-3.66793e-05
-3.34586e-05
-3.04448e-05
-2.7631e-05
-2.50099e-05
-2.25739e-05
-2.0315e-05
-1.82254e-05
-1.62969e-05
-1.45213e-05
-1.28907e-05
-1.13968e-05
-1.00318e-05
-8.78779e-06
-7.65712e-06
-6.63244e-06
-5.70631e-06
-4.8724e-06
-0.000201423
-0.000192539
-0.000183775
-0.000175145
-0.000166663
-0.000158343
-0.000150199
-0.000142243
-0.000134486
-0.000126939
-0.000119611
-0.00011251
-0.000105645
-9.902e-05
-9.26415e-05
-8.65129e-05
-8.06369e-05
-7.50153e-05
-6.96485e-05
-6.45361e-05
-5.96764e-05
-5.50671e-05
-5.07047e-05
-4.6585e-05
-4.27032e-05
-3.90536e-05
-3.56298e-05
-3.24252e-05
-2.94324e-05
-2.66437e-05
-2.40513e-05
-2.16468e-05
-1.94218e-05
-1.73679e-05
-1.54764e-05
-1.37388e-05
-1.21465e-05
-1.06912e-05
-9.36454e-06
-8.15848e-06
-7.06508e-06
-6.07681e-06
-5.18602e-06
-4.38634e-06
-0.000203897
-0.00019466
-0.000185563
-0.000176617
-0.000167838
-0.000159241
-0.000150839
-0.000142644
-0.000134667
-0.000126918
-0.000119407
-0.000112142
-0.000105129
-9.83749e-05
-9.18827e-05
-8.56561e-05
-7.96972e-05
-7.40066e-05
-6.8584e-05
-6.34282e-05
-5.85365e-05
-5.39057e-05
-4.95315e-05
-4.54088e-05
-4.15317e-05
-3.78937e-05
-3.44878e-05
-3.13063e-05
-2.83412e-05
-2.55842e-05
-2.30265e-05
-2.06593e-05
-1.84736e-05
-1.64605e-05
-1.46107e-05
-1.29154e-05
-1.13657e-05
-9.95264e-06
-8.66783e-06
-7.50287e-06
-6.44963e-06
-5.5004e-06
-4.64735e-06
-3.88405e-06
-0.000206142
-0.000196548
-0.000187112
-0.000177849
-0.000168773
-0.000159898
-0.000151239
-0.000142807
-0.000134614
-0.000126668
-0.00011898
-0.000111556
-0.000104403
-9.75261e-05
-9.09281e-05
-8.46118e-05
-7.85783e-05
-7.28274e-05
-6.7358e-05
-6.21677e-05
-5.7253e-05
-5.26096e-05
-4.82322e-05
-4.41149e-05
-4.02508e-05
-3.66326e-05
-3.32522e-05
-3.01012e-05
-2.71709e-05
-2.44521e-05
-2.19355e-05
-1.96115e-05
-1.74708e-05
-1.55035e-05
-1.37004e-05
-1.20518e-05
-1.05487e-05
-9.18173e-06
-7.94222e-06
-6.82155e-06
-5.81136e-06
-4.90378e-06
-4.09084e-06
-3.36606e-06
-0.000208137
-0.000198181
-0.000188405
-0.000178822
-0.000169448
-0.000160297
-0.000151384
-0.000142719
-0.000134313
-0.000126176
-0.000118317
-0.000110742
-0.000103456
-9.64646e-05
-8.97695e-05
-8.33725e-05
-7.72738e-05
-7.14722e-05
-6.59655e-05
-6.07502e-05
-5.5822e-05
-5.11754e-05
-4.68042e-05
-4.27013e-05
-3.88589e-05
-3.52688e-05
-3.1922e-05
-2.88093e-05
-2.5921e-05
-2.32474e-05
-2.07783e-05
-1.85037e-05
-1.64135e-05
-1.44975e-05
-1.27458e-05
-1.11486e-05
-9.69612e-06
-8.3791e-06
-7.18838e-06
-6.11515e-06
-5.15089e-06
-4.28758e-06
-3.5171e-06
-2.83296e-06
-0.00020986
-0.000199538
-0.00018942
-0.000179517
-0.000169846
-0.000160421
-0.000151256
-0.000142363
-0.000133751
-0.000125429
-0.000117406
-0.000109688
-0.000102278
-9.51813e-05
-8.83988e-05
-8.19311e-05
-7.57773e-05
-6.99353e-05
-6.44016e-05
-5.91718e-05
-5.42403e-05
-4.96006e-05
-4.52452e-05
-4.11662e-05
-3.73548e-05
-3.38015e-05
-3.04967e-05
-2.74302e-05
-2.45915e-05
-2.19701e-05
-1.95553e-05
-1.73363e-05
-1.53024e-05
-1.3443e-05
-1.17477e-05
-1.02063e-05
-8.8088e-06
-7.5455e-06
-6.40705e-06
-5.38443e-06
-4.46896e-06
-3.6525e-06
-2.92679e-06
-2.28539e-06
-0.000211288
-0.000200598
-0.000190135
-0.000179913
-0.000169947
-0.000160251
-0.00015084
-0.000141723
-0.000132912
-0.000124413
-0.000116235
-0.000108382
-0.000100859
-9.36671e-05
-8.68078e-05
-8.02804e-05
-7.40827e-05
-6.82115e-05
-6.2662e-05
-5.74287e-05
-5.25047e-05
-4.78824e-05
-4.35533e-05
-3.95082e-05
-3.57372e-05
-3.223e-05
-2.89759e-05
-2.59638e-05
-2.31825e-05
-2.06207e-05
-1.82669e-05
-1.61098e-05
-1.41381e-05
-1.23408e-05
-1.07069e-05
-9.22593e-06
-7.88754e-06
-6.68178e-06
-5.59907e-06
-4.63021e-06
-3.76636e-06
-2.99929e-06
-2.32066e-06
-1.72402e-06
-0.000212397
-0.000201337
-0.00019053
-0.00017999
-0.000169732
-0.00015977
-0.000150117
-0.000140785
-0.000131782
-0.000123115
-0.000114791
-0.000106815
-9.91883e-05
-9.19132e-05
-8.49889e-05
-7.84137e-05
-7.21842e-05
-6.62957e-05
-6.07425e-05
-5.55174e-05
-5.06125e-05
-4.60189e-05
-4.17269e-05
-3.77261e-05
-3.40055e-05
-3.05539e-05
-2.73595e-05
-2.44104e-05
-2.16944e-05
-1.91996e-05
-1.69138e-05
-1.48251e-05
-1.29216e-05
-1.11918e-05
-9.62437e-06
-8.20843e-06
-6.93335e-06
-5.78894e-06
-4.7654e-06
-3.8534e-06
-3.04397e-06
-2.32881e-06
-1.69948e-06
-1.1496e-06
-0.000213162
-0.000201731
-0.000190581
-0.000179726
-0.00016918
-0.000158957
-0.000149071
-0.000139531
-0.000130345
-0.000121521
-0.000113063
-0.000104974
-9.72569e-05
-8.9911e-05
-8.29346e-05
-7.63245e-05
-7.00762e-05
-6.41835e-05
-5.86392e-05
-5.34349e-05
-4.85614e-05
-4.40083e-05
-3.97647e-05
-3.58191e-05
-3.21594e-05
-2.87732e-05
-2.56478e-05
-2.27704e-05
-2.0128e-05
-1.77078e-05
-1.54971e-05
-1.34833e-05
-1.16539e-05
-9.99717e-06
-8.50126e-06
-7.15494e-06
-5.94735e-06
-4.86806e-06
-3.90711e-06
-3.05504e-06
-2.30277e-06
-1.64197e-06
-1.06413e-06
-5.6295e-07
-0.000213557
-0.000201756
-0.000190265
-0.000179099
-0.000168271
-0.000157795
-0.000147684
-0.000137945
-0.000128588
-0.000119617
-0.000111037
-0.00010285
-9.50551e-05
-8.76522e-05
-8.06376e-05
-7.40068e-05
-6.77536e-05
-6.18705e-05
-5.63487e-05
-5.11786e-05
-4.63492e-05
-4.1849e-05
-3.76658e-05
-3.37868e-05
-3.01987e-05
-2.68881e-05
-2.38413e-05
-2.10446e-05
-1.84841e-05
-1.61463e-05
-1.40178e-05
-1.20855e-05
-1.03364e-05
-8.75819e-06
-7.33882e-06
-6.0667e-06
-4.93073e-06
-3.9203e-06
-3.0253e-06
-2.23615e-06
-1.54374e-06
-9.39681e-07
-4.15461e-07
3.51431e-08
-0.000213554
-0.000201384
-0.000189557
-0.000178085
-0.000166982
-0.000156262
-0.000145935
-0.00013601
-0.000126494
-0.00011739
-0.000108702
-0.00010043
-9.25727e-05
-8.51277e-05
-7.80902e-05
-7.14538e-05
-6.52108e-05
-5.93521e-05
-5.38674e-05
-4.87453e-05
-4.39737e-05
-3.95395e-05
-3.54291e-05
-3.16285e-05
-2.81232e-05
-2.48988e-05
-2.19404e-05
-1.92335e-05
-1.67635e-05
-1.4516e-05
-1.2477e-05
-1.06328e-05
-8.97003e-06
-7.47596e-06
-6.13817e-06
-4.94481e-06
-3.88458e-06
-2.9467e-06
-2.12096e-06
-1.3977e-06
-7.67766e-07
-2.22795e-07
2.45743e-07
6.43951e-07
-0.000213122
-0.000200588
-0.00018843
-0.00017666
-0.000165291
-0.000154337
-0.000143807
-0.000133708
-0.000124047
-0.000114825
-0.000106044
-9.77031e-05
-8.97999e-05
-8.23295e-05
-7.52855e-05
-6.86599e-05
-6.24432e-05
-5.66247e-05
-5.11924e-05
-4.61334e-05
-4.14338e-05
-3.70792e-05
-3.30546e-05
-2.93447e-05
-2.59338e-05
-2.28063e-05
-1.99465e-05
-1.73388e-05
-1.49679e-05
-1.28186e-05
-1.08765e-05
-9.1271e-06
-7.55681e-06
-6.1524e-06
-4.90118e-06
-3.79109e-06
-2.81064e-06
-1.94893e-06
-1.19567e-06
-5.41174e-07
2.37331e-08
5.07375e-07
9.18254e-07
1.26233e-06
-0.000212236
-0.000199343
-0.000186861
-0.000174801
-0.000163178
-0.000152002
-0.000141283
-0.000131026
-0.000121235
-0.000111911
-0.000103055
-9.46629e-05
-8.67312e-05
-7.9253e-05
-7.22202e-05
-6.56228e-05
-5.94496e-05
-5.36879e-05
-4.83241e-05
-4.33435e-05
-3.87308e-05
-3.44699e-05
-3.05444e-05
-2.69378e-05
-2.3633e-05
-2.06135e-05
-1.78624e-05
-1.53633e-05
-1.31002e-05
-1.10572e-05
-9.21908e-06
-7.57119e-06
-6.09934e-06
-4.78999e-06
-3.63023e-06
-2.60778e-06
-1.71102e-06
-9.28966e-07
-2.51281e-07
3.31721e-07
8.29192e-07
1.24938e-06
1.60075e-06
1.88907e-06
-0.000210873
-0.000197628
-0.000184831
-0.000172495
-0.000160629
-0.000149245
-0.000138352
-0.000127953
-0.000118049
-0.000108642
-9.97287e-05
-9.13045e-05
-8.33631e-05
-7.5896e-05
-6.88929e-05
-6.23421e-05
-5.62301e-05
-5.05426e-05
-4.52639e-05
-4.03778e-05
-3.58671e-05
-3.17143e-05
-2.79015e-05
-2.44108e-05
-2.12241e-05
-1.83235e-05
-1.56914e-05
-1.33104e-05
-1.11636e-05
-9.23468e-06
-7.50785e-06
-5.96791e-06
-4.60035e-06
-3.39134e-06
-2.32776e-06
-1.39718e-06
-5.87866e-07
1.112e-07
7.1036e-07
1.21927e-06
1.64703e-06
2.00178e-06
2.29191e-06
2.52297e-06
-0.000369927
-0.000364731
-0.000359101
-0.000353072
-0.00034669
-0.000339997
-0.000333026
-0.00032581
-0.000318384
-0.000310781
-0.000303032
-0.000295168
-0.000287217
-0.000279205
-0.000271159
-0.000263103
-0.000255057
-0.000247045
-0.000239083
-0.000231191
-0.000223385
-0.000215679
-0.000208086
-0.000200619
-0.000193288
-0.000186102
-0.000387023
-0.000381231
-0.000374995
-0.000368353
-0.000361355
-0.000354044
-0.000346456
-0.000338626
-0.000330592
-0.000322387
-0.000314046
-0.0003056
-0.000297078
-0.000288509
-0.00027992
-0.000271335
-0.000262777
-0.000254269
-0.000245829
-0.000237476
-0.000229226
-0.000221095
-0.000213096
-0.00020524
-0.000197539
-0.000190002
-0.000404739
-0.000398306
-0.000391421
-0.000384123
-0.000376466
-0.000368496
-0.000360251
-0.000351769
-0.000343089
-0.000334247
-0.000325279
-0.000316217
-0.000307094
-0.000297938
-0.000288777
-0.000279638
-0.000270543
-0.000261516
-0.000252577
-0.000243743
-0.000235033
-0.000226461
-0.00021804
-0.000209783
-0.0002017
-0.0001938
-0.0004231
-0.000415979
-0.000408396
-0.000400397
-0.000392036
-0.000383363
-0.000374418
-0.000365243
-0.000355877
-0.000346359
-0.000336728
-0.000327016
-0.000317258
-0.000307484
-0.000297723
-0.000288001
-0.000278345
-0.000268775
-0.000259315
-0.000249981
-0.000240791
-0.000231761
-0.000222904
-0.000214233
-0.000205756
-0.000197483
-0.00044213
-0.000434269
-0.00042594
-0.000417189
-0.000408076
-0.000398654
-0.000388964
-0.00037905
-0.000368956
-0.000358723
-0.000348389
-0.000337991
-0.000327563
-0.000317138
-0.000306746
-0.000296415
-0.000286169
-0.000276033
-0.000266028
-0.000256174
-0.000246486
-0.000236982
-0.000227674
-0.000218573
-0.000209691
-0.000201035
-0.000461856
-0.000453201
-0.000444071
-0.000434515
-0.000424599
-0.000414376
-0.000403892
-0.000393194
-0.000382327
-0.000371335
-0.000360258
-0.000349135
-0.000338002
-0.000326892
-0.000315837
-0.000304865
-0.000294004
-0.000283276
-0.000272704
-0.000262307
-0.000252103
-0.000242106
-0.000232332
-0.00022279
-0.00021349
-0.000204441
-0.000482304
-0.000472796
-0.000462807
-0.00045239
-0.000441615
-0.000430538
-0.000419209
-0.000407677
-0.00039599
-0.000384193
-0.00037233
-0.000360441
-0.000348564
-0.000336734
-0.000324982
-0.00031334
-0.000301833
-0.000290487
-0.000279324
-0.000268363
-0.000257623
-0.000247117
-0.00023686
-0.000226863
-0.000217135
-0.000207682
-0.000503503
-0.000493078
-0.000482168
-0.000470829
-0.000459136
-0.000447148
-0.000434919
-0.000422499
-0.000409941
-0.000397293
-0.000384599
-0.000371901
-0.00035924
-0.000346651
-0.000334168
-0.000321822
-0.000309641
-0.00029765
-0.000285871
-0.000274324
-0.000263028
-0.000251996
-0.000241242
-0.000230776
-0.000220607
-0.000210741
-0.000525482
-0.000514072
-0.000502173
-0.000489848
-0.000477173
-0.000464214
-0.000451025
-0.000437663
-0.00042418
-0.000410629
-0.000397055
-0.000383504
-0.000370016
-0.00035663
-0.000343379
-0.000330297
-0.00031741
-0.000304746
-0.000292326
-0.000280171
-0.000268298
-0.000256722
-0.000245455
-0.000234507
-0.000223886
-0.000213599
-0.00054827
-0.000535801
-0.000522843
-0.000509461
-0.000495737
-0.000481741
-0.000467531
-0.000453166
-0.000438702
-0.000424194
-0.000409691
-0.000395238
-0.00038088
-0.000366655
-0.000352599
-0.000338744
-0.000325121
-0.000311755
-0.000298668
-0.000285882
-0.000273412
-0.000261274
-0.000249479
-0.000238036
-0.000226953
-0.000216234
-0.000571899
-0.000558292
-0.000544197
-0.000529684
-0.000514839
-0.000499736
-0.000484438
-0.000469007
-0.000453503
-0.000437981
-0.000422494
-0.000407091
-0.000391815
-0.000376709
-0.000361808
-0.000347146
-0.000332753
-0.000318655
-0.000304875
-0.000291434
-0.000278347
-0.000265629
-0.00025329
-0.00024134
-0.000229784
-0.000218626
-0.0005964
-0.00058157
-0.000566256
-0.000550531
-0.000534488
-0.000518205
-0.000501748
-0.000485184
-0.000468575
-0.00045198
-0.000435453
-0.000419047
-0.000402805
-0.000386772
-0.000370985
-0.000355478
-0.000340282
-0.000325422
-0.000310923
-0.000296803
-0.000283078
-0.000269762
-0.000256865
-0.000244395
-0.000232356
-0.000220751
-0.000621804
-0.000605661
-0.000589038
-0.000572016
-0.000554693
-0.000537151
-0.000519461
-0.000501692
-0.00048391
-0.000466179
-0.000448554
-0.000431089
-0.000413831
-0.000396825
-0.000380109
-0.000363718
-0.000347684
-0.000332031
-0.000316784
-0.000301962
-0.000287579
-0.000273648
-0.000260178
-0.000247176
-0.000234645
-0.000222587
-0.000648145
-0.00063059
-0.000612565
-0.000594154
-0.000575463
-0.000556578
-0.000537574
-0.000518524
-0.0004995
-0.000480565
-0.000461779
-0.000443198
-0.000424871
-0.000406843
-0.000389154
-0.00037184
-0.000354931
-0.000338455
-0.000322432
-0.000306883
-0.000291821
-0.000277258
-0.000263202
-0.000249657
-0.000236625
-0.000224106
-0.000675457
-0.000656385
-0.000636854
-0.000616958
-0.000596804
-0.000576486
-0.000556084
-0.000535674
-0.000515331
-0.000495122
-0.000475111
-0.000455353
-0.000435901
-0.0004168
-0.000398093
-0.000379814
-0.000361995
-0.000344662
-0.000327836
-0.000311537
-0.000295776
-0.000280564
-0.000265907
-0.000251808
-0.000238268
-0.000225285
-0.000703773
-0.000683071
-0.000661927
-0.000640439
-0.000618723
-0.000596878
-0.000574987
-0.000553132
-0.000531391
-0.000509834
-0.000488527
-0.00046753
-0.000446895
-0.000426669
-0.000406896
-0.000387611
-0.000368844
-0.000350621
-0.000332964
-0.00031589
-0.00029941
-0.000283533
-0.000268263
-0.000253601
-0.000239547
-0.000226094
-0.000733129
-0.000710676
-0.000687801
-0.000664611
-0.000641226
-0.000617752
-0.000594277
-0.000570886
-0.000547663
-0.00052468
-0.000502006
-0.000479703
-0.000457824
-0.000436419
-0.000415531
-0.000395195
-0.000375442
-0.000356298
-0.000337781
-0.000319909
-0.00030269
-0.000286132
-0.000270237
-0.000255005
-0.00024043
-0.000226505
-0.000763557
-0.000739222
-0.000714493
-0.00068948
-0.000664313
-0.000639103
-0.000613942
-0.000588921
-0.000564127
-0.000539636
-0.00051552
-0.000491841
-0.000468657
-0.000446016
-0.000423964
-0.000402535
-0.000381755
-0.000361654
-0.000342249
-0.000323555
-0.000305579
-0.000288326
-0.000271795
-0.000255984
-0.000240884
-0.000226487
-0.000795083
-0.000768729
-0.000742011
-0.00071505
-0.000687981
-0.00066092
-0.000633966
-0.000607216
-0.000580758
-0.000554674
-0.000529036
-0.000503912
-0.000479356
-0.000455423
-0.000432152
-0.000409585
-0.000387745
-0.000366652
-0.000346331
-0.000326792
-0.000308041
-0.000290079
-0.000272903
-0.000256507
-0.000240881
-0.000226011
-0.000440058
-0.000416305
-0.000393362
-0.000371252
-0.000349987
-0.000329583
-0.00031004
-0.000291357
-0.000273528
-0.000256544
-0.000240391
-0.000225052
9.85126e-05
9.56236e-05
9.27895e-05
9.00108e-05
8.72887e-05
8.46211e-05
8.20081e-05
7.94496e-05
7.69455e-05
7.44954e-05
7.20991e-05
6.9756e-05
6.7466e-05
6.52285e-05
6.3043e-05
6.09092e-05
5.88265e-05
5.67944e-05
5.48123e-05
5.28798e-05
5.09961e-05
4.91607e-05
4.73729e-05
4.56322e-05
4.39378e-05
4.22891e-05
9.80838e-05
9.5195e-05
9.23611e-05
8.95832e-05
8.6862e-05
8.41957e-05
8.15842e-05
7.90274e-05
7.65253e-05
7.40775e-05
7.16837e-05
6.93434e-05
6.70562e-05
6.48219e-05
6.26398e-05
6.05095e-05
5.84305e-05
5.64023e-05
5.44243e-05
5.24959e-05
5.06166e-05
4.87857e-05
4.70026e-05
4.52667e-05
4.35772e-05
4.19335e-05
9.72485e-05
9.43599e-05
9.15269e-05
8.87504e-05
8.60311e-05
8.33672e-05
8.07587e-05
7.82054e-05
7.57072e-05
7.32639e-05
7.08749e-05
6.85399e-05
6.62585e-05
6.40303e-05
6.18548e-05
5.97314e-05
5.76597e-05
5.56392e-05
5.36691e-05
5.17491e-05
4.98783e-05
4.80563e-05
4.62823e-05
4.45557e-05
4.28758e-05
4.12419e-05
9.60268e-05
9.31386e-05
9.03069e-05
8.75325e-05
8.48162e-05
8.2156e-05
7.95518e-05
7.70037e-05
7.45115e-05
7.20746e-05
6.96929e-05
6.73658e-05
6.5093e-05
6.28739e-05
6.0708e-05
5.85949e-05
5.6534e-05
5.45247e-05
5.25664e-05
5.06586e-05
4.88005e-05
4.69914e-05
4.52309e-05
4.3518e-05
4.18522e-05
4.02327e-05
9.44356e-05
9.15482e-05
8.87183e-05
8.59468e-05
8.32344e-05
8.05792e-05
7.7981e-05
7.54399e-05
7.29554e-05
7.05274e-05
6.81553e-05
6.58387e-05
6.35771e-05
6.13701e-05
5.9217e-05
5.71175e-05
5.50708e-05
5.30764e-05
5.11336e-05
4.92418e-05
4.74003e-05
4.56084e-05
4.38655e-05
4.21707e-05
4.05234e-05
3.89228e-05
9.24897e-05
8.96035e-05
8.67761e-05
8.40085e-05
8.13013e-05
7.86524e-05
7.60618e-05
7.35294e-05
7.10548e-05
6.86378e-05
6.62777e-05
6.39742e-05
6.17267e-05
5.95348e-05
5.73977e-05
5.5315e-05
5.32859e-05
5.131e-05
4.93864e-05
4.75145e-05
4.56936e-05
4.3923e-05
4.22019e-05
4.05295e-05
3.8905e-05
3.73278e-05
9.0202e-05
8.73176e-05
8.44935e-05
8.17308e-05
7.903e-05
7.6389e-05
7.38077e-05
7.12859e-05
6.88234e-05
6.64197e-05
6.40743e-05
6.17866e-05
5.95561e-05
5.73822e-05
5.52643e-05
5.32018e-05
5.11939e-05
4.924e-05
4.73394e-05
4.54914e-05
4.36951e-05
4.19497e-05
4.02546e-05
3.86088e-05
3.70116e-05
3.54621e-05
8.75836e-05
8.47016e-05
8.18819e-05
7.91253e-05
7.64323e-05
7.38008e-05
7.12307e-05
6.87217e-05
6.62735e-05
6.38856e-05
6.15574e-05
5.92883e-05
5.70778e-05
5.49252e-05
5.28298e-05
5.07909e-05
4.88078e-05
4.68797e-05
4.50059e-05
4.31856e-05
4.14179e-05
3.9702e-05
3.80371e-05
3.64223e-05
3.48567e-05
3.33394e-05
8.4644e-05
8.17654e-05
7.89511e-05
7.6202e-05
7.35185e-05
7.08984e-05
6.83414e-05
6.58474e-05
6.3416e-05
6.10465e-05
5.87383e-05
5.64909e-05
5.43035e-05
5.21754e-05
5.01059e-05
4.80942e-05
4.61395e-05
4.42411e-05
4.23981e-05
4.06095e-05
3.88746e-05
3.71923e-05
3.55619e-05
3.39824e-05
3.24528e-05
3.09722e-05
8.13915e-05
7.85174e-05
7.57099e-05
7.29698e-05
7.02975e-05
6.76908e-05
6.51492e-05
6.26727e-05
6.02606e-05
5.79123e-05
5.56272e-05
5.34045e-05
5.12435e-05
4.91434e-05
4.71034e-05
4.51226e-05
4.32003e-05
4.13354e-05
3.95271e-05
3.77745e-05
3.60765e-05
3.44323e-05
3.28407e-05
3.13009e-05
2.98118e-05
2.83724e-05
7.7833e-05
7.49648e-05
7.21656e-05
6.94364e-05
6.67773e-05
6.41862e-05
6.16625e-05
5.9206e-05
5.68161e-05
5.44921e-05
5.22331e-05
5.00385e-05
4.79074e-05
4.58388e-05
4.38321e-05
4.18861e-05
4e-05
3.81729e-05
3.64035e-05
3.46911e-05
3.30345e-05
3.14326e-05
2.98845e-05
2.8389e-05
2.69449e-05
2.55513e-05
7.39747e-05
7.11138e-05
6.83247e-05
6.56083e-05
6.29648e-05
6.03917e-05
5.78885e-05
5.54549e-05
5.30903e-05
5.07937e-05
4.85643e-05
4.64013e-05
4.43037e-05
4.22707e-05
4.03011e-05
3.8394e-05
3.65484e-05
3.47631e-05
3.30372e-05
3.13694e-05
2.97586e-05
2.82037e-05
2.67036e-05
2.5257e-05
2.38628e-05
2.25197e-05
6.98216e-05
6.69697e-05
6.41928e-05
6.14916e-05
5.8866e-05
5.63137e-05
5.38339e-05
5.14263e-05
4.90902e-05
4.68245e-05
4.46283e-05
4.25007e-05
4.04406e-05
3.8447e-05
3.65188e-05
3.46549e-05
3.28541e-05
3.11153e-05
2.94372e-05
2.78186e-05
2.62584e-05
2.47552e-05
2.33079e-05
2.1915e-05
2.05754e-05
1.92878e-05
6.53779e-05
6.25372e-05
5.97747e-05
5.70911e-05
5.44863e-05
5.19577e-05
4.95045e-05
4.71263e-05
4.48221e-05
4.2591e-05
4.04319e-05
3.83437e-05
3.63253e-05
3.43755e-05
3.2493e-05
3.06768e-05
2.89254e-05
2.72377e-05
2.56123e-05
2.40478e-05
2.2543e-05
2.10964e-05
1.97068e-05
1.83726e-05
1.70926e-05
1.58654e-05
6.06472e-05
5.782e-05
5.50745e-05
5.24113e-05
4.98303e-05
4.73286e-05
4.49055e-05
4.25603e-05
4.0292e-05
3.80995e-05
3.59816e-05
3.39371e-05
3.19647e-05
3.00632e-05
2.82312e-05
2.64673e-05
2.47702e-05
2.31385e-05
2.15707e-05
2.00653e-05
1.8621e-05
1.72361e-05
1.59093e-05
1.4639e-05
1.34237e-05
1.2262e-05
5.56325e-05
5.28214e-05
5.00957e-05
4.74561e-05
4.49022e-05
4.24309e-05
4.00416e-05
3.77333e-05
3.5505e-05
3.33554e-05
3.12831e-05
2.92869e-05
2.73653e-05
2.55169e-05
2.37402e-05
2.20337e-05
2.0396e-05
1.88254e-05
1.73204e-05
1.58793e-05
1.45007e-05
1.31828e-05
1.19242e-05
1.0723e-05
9.57778e-06
8.48686e-06
5.03363e-05
4.75441e-05
4.48414e-05
4.22287e-05
3.97055e-05
3.72686e-05
3.4917e-05
3.26499e-05
3.0466e-05
2.83639e-05
2.6342e-05
2.43989e-05
2.2533e-05
2.07428e-05
1.90267e-05
1.73829e-05
1.58098e-05
1.43057e-05
1.2869e-05
1.14977e-05
1.01903e-05
8.94493e-06
7.75987e-06
6.63334e-06
5.56361e-06
4.54892e-06
4.47602e-05
4.19902e-05
3.9314e-05
3.6732e-05
3.42435e-05
3.18451e-05
2.95357e-05
2.73144e-05
2.51796e-05
2.31298e-05
2.11634e-05
1.92786e-05
1.74738e-05
1.57471e-05
1.4097e-05
1.25214e-05
1.10186e-05
9.5867e-06
8.22384e-06
6.92811e-06
5.69761e-06
4.53044e-06
3.42469e-06
2.37846e-06
1.38985e-06
4.56983e-07
3.8906e-05
3.61617e-05
3.35157e-05
3.09685e-05
2.85189e-05
2.61636e-05
2.39012e-05
2.17305e-05
1.965e-05
1.76578e-05
1.57521e-05
1.39311e-05
1.21929e-05
1.05356e-05
8.95719e-06
7.45568e-06
6.02904e-06
4.67525e-06
3.39224e-06
2.17796e-06
1.03033e-06
-5.27219e-08
-1.07325e-06
-2.03333e-06
-2.935e-06
-3.78029e-06
3.27747e-05
3.006e-05
2.74485e-05
2.49404e-05
2.25345e-05
2.02271e-05
1.80167e-05
1.59019e-05
1.3881e-05
1.1952e-05
1.01129e-05
8.36151e-06
6.69591e-06
5.1139e-06
3.61332e-06
2.19199e-06
8.47692e-07
-4.2181e-07
-1.61876e-06
-2.7454e-06
-3.80398e-06
-4.79676e-06
-5.72596e-06
-6.59383e-06
-7.40257e-06
-8.15436e-06
2.63672e-05
2.36864e-05
2.11138e-05
1.86496e-05
1.62924e-05
1.40382e-05
1.18852e-05
9.83206e-06
7.87663e-06
6.01673e-06
4.25016e-06
2.57464e-06
9.87874e-07
-5.12483e-07
-1.92881e-06
-3.26351e-06
-4.51901e-06
-5.69775e-06
-6.80216e-06
-7.83471e-06
-8.79783e-06
-9.69396e-06
-1.05255e-05
-1.12949e-05
-1.20046e-05
-1.26568e-05
1.96839e-05
1.70416e-05
1.45129e-05
1.20979e-05
9.79484e-06
7.59938e-06
5.50977e-06
3.52419e-06
1.64039e-06
-1.44061e-07
-1.83162e-06
-3.42477e-06
-4.92607e-06
-6.33809e-06
-7.66345e-06
-8.90476e-06
-1.00647e-05
-1.11459e-05
-1.2151e-05
-1.30828e-05
-1.39438e-05
-1.47367e-05
-1.54641e-05
-1.61286e-05
-1.67327e-05
-1.72791e-05
1.27253e-05
1.01266e-05
7.64709e-06
5.28681e-06
3.04367e-06
9.13064e-07
-1.10699e-06
-3.01856e-06
-4.82415e-06
-6.52644e-06
-8.12816e-06
-9.63205e-06
-1.10409e-05
-1.23576e-05
-1.35849e-05
-1.47257e-05
-1.5783e-05
-1.67596e-05
-1.76585e-05
-1.84825e-05
-1.92344e-05
-1.99172e-05
-2.05337e-05
-2.10867e-05
-2.15789e-05
-2.2013e-05
5.49148e-06
2.94171e-06
5.17218e-07
-1.78231e-06
-3.95925e-06
-6.01853e-06
-7.96237e-06
-9.7931e-06
-1.15135e-05
-1.31265e-05
-1.46352e-05
-1.60425e-05
-1.73516e-05
-1.85655e-05
-1.96874e-05
-2.07204e-05
-2.16677e-05
-2.25323e-05
-2.33176e-05
-2.40266e-05
-2.46623e-05
-2.5228e-05
-2.57267e-05
-2.61612e-05
-2.65348e-05
-2.68501e-05
-2.01757e-06
-4.51246e-06
-6.87581e-06
-9.10813e-06
-1.12122e-05
-1.31932e-05
-1.50538e-05
-1.67964e-05
-1.84242e-05
-1.99405e-05
-2.13485e-05
-2.26516e-05
-2.38532e-05
-2.49566e-05
-2.59653e-05
-2.68827e-05
-2.77122e-05
-2.84573e-05
-2.91214e-05
-2.97079e-05
-3.02201e-05
-3.06614e-05
-3.1035e-05
-3.13442e-05
-3.15922e-05
-3.17821e-05
-9.80195e-06
-1.22356e-05
-1.45312e-05
-1.66894e-05
-1.87134e-05
-2.06089e-05
-2.23786e-05
-2.40254e-05
-2.55528e-05
-2.69644e-05
-2.82638e-05
-2.94546e-05
-3.05406e-05
-3.15254e-05
-3.24128e-05
-3.32065e-05
-3.39103e-05
-3.45279e-05
-3.5063e-05
-3.55192e-05
-3.59002e-05
-3.62096e-05
-3.64509e-05
-3.66276e-05
-3.6743e-05
-3.68005e-05
-1.78619e-05
-2.02275e-05
-2.24482e-05
-2.45249e-05
-2.64613e-05
-2.82634e-05
-2.99343e-05
-3.14772e-05
-3.28959e-05
-3.41944e-05
-3.53767e-05
-3.64468e-05
-3.74086e-05
-3.82664e-05
-3.9024e-05
-3.96857e-05
-4.02555e-05
-4.07373e-05
-4.11352e-05
-4.14532e-05
-4.16952e-05
-4.1865e-05
-4.19664e-05
-4.20031e-05
-4.19788e-05
-4.18971e-05
-2.61975e-05
-2.84879e-05
-3.06261e-05
-3.26135e-05
-3.44542e-05
-3.61546e-05
-3.77181e-05
-3.91485e-05
-4.04498e-05
-4.16265e-05
-4.26829e-05
-4.36233e-05
-4.44522e-05
-4.5174e-05
-4.57931e-05
-4.6314e-05
-4.67411e-05
-4.70786e-05
-4.7331e-05
-4.75025e-05
-4.75974e-05
-4.76196e-05
-4.75734e-05
-4.74627e-05
-4.72914e-05
-4.70633e-05
-3.48092e-05
-3.70165e-05
-3.90642e-05
-4.09539e-05
-4.26903e-05
-4.42802e-05
-4.57275e-05
-4.70362e-05
-4.8211e-05
-4.92566e-05
-5.01778e-05
-5.09793e-05
-5.16659e-05
-5.22426e-05
-5.2714e-05
-5.30851e-05
-5.33605e-05
-5.3545e-05
-5.36432e-05
-5.36597e-05
-5.35991e-05
-5.34657e-05
-5.3264e-05
-5.29982e-05
-5.26724e-05
-5.22907e-05
-4.36972e-05
-4.58131e-05
-4.77616e-05
-4.95448e-05
-5.11677e-05
-5.26379e-05
-5.39596e-05
-5.51372e-05
-5.61758e-05
-5.70806e-05
-5.78568e-05
-5.85097e-05
-5.90444e-05
-5.94663e-05
-5.97806e-05
-5.99924e-05
-6.01069e-05
-6.01292e-05
-6.00642e-05
-5.99171e-05
-5.96925e-05
-5.93952e-05
-5.903e-05
-5.86012e-05
-5.81134e-05
-5.75708e-05
-5.28617e-05
-5.48774e-05
-5.67177e-05
-5.83848e-05
-5.98848e-05
-6.12254e-05
-6.24115e-05
-6.34479e-05
-6.43401e-05
-6.5094e-05
-6.57152e-05
-6.62093e-05
-6.65821e-05
-6.68393e-05
-6.69865e-05
-6.70294e-05
-6.69734e-05
-6.68241e-05
-6.65869e-05
-6.6267e-05
-6.58698e-05
-6.54001e-05
-6.48631e-05
-6.42635e-05
-6.3606e-05
-6.28952e-05
-6.2303e-05
-6.4209e-05
-6.59313e-05
-6.74726e-05
-6.88393e-05
-7.00402e-05
-7.10801e-05
-7.19648e-05
-7.27002e-05
-7.32926e-05
-7.37481e-05
-7.40729e-05
-7.42733e-05
-7.43554e-05
-7.43254e-05
-7.41892e-05
-7.39529e-05
-7.36224e-05
-7.32035e-05
-7.27018e-05
-7.2123e-05
-7.14723e-05
-7.07552e-05
-6.99767e-05
-6.91418e-05
-6.82552e-05
-7.2021e-05
-7.38075e-05
-7.54016e-05
-7.68064e-05
-7.80293e-05
-7.90794e-05
-7.99624e-05
-8.06843e-05
-8.12518e-05
-8.16715e-05
-8.19504e-05
-8.2095e-05
-8.21121e-05
-8.20085e-05
-8.17906e-05
-8.14651e-05
-8.10383e-05
-8.05167e-05
-7.99064e-05
-7.92135e-05
-7.8444e-05
-7.76035e-05
-7.66978e-05
-7.57322e-05
-7.47121e-05
-7.36424e-05
-8.20159e-05
-8.36722e-05
-8.51273e-05
-8.63846e-05
-8.74524e-05
-8.83405e-05
-8.90549e-05
-8.96025e-05
-8.99905e-05
-9.02261e-05
-9.03168e-05
-9.02698e-05
-9.00925e-05
-8.9792e-05
-8.93754e-05
-8.88499e-05
-8.82223e-05
-8.74994e-05
-8.66878e-05
-8.57942e-05
-8.48247e-05
-8.37855e-05
-8.26826e-05
-8.15218e-05
-8.03085e-05
-7.90481e-05
-9.22874e-05
-9.38025e-05
-9.51071e-05
-9.62053e-05
-9.71062e-05
-9.78202e-05
-9.83542e-05
-9.87154e-05
-9.89118e-05
-9.89513e-05
-9.8842e-05
-9.85916e-05
-9.82082e-05
-9.76994e-05
-9.7073e-05
-9.63364e-05
-9.54973e-05
-9.45627e-05
-9.35399e-05
-9.24357e-05
-9.12568e-05
-9.00099e-05
-8.87012e-05
-8.73367e-05
-8.59224e-05
-8.44638e-05
-0.000102835
-0.000104197
-0.00010534
-0.000106266