/*--------------------------------*- C++ -*----------------------------------*\
| =========                 |                                                 |
| \\      /  F ield         | OpenFOAM: The Open Source CFD Toolbox           |
|  \\    /   O peration     | Version:  2412                                  |
|   \\  /    A nd           | Website:  www.openfoam.com                      |
|    \\/     M anipulation  |                                                 |
\*---------------------------------------------------------------------------*/
FoamFile
{
    version     2.0;
    format      ascii;
    arch        "LSB;label=32;scalar=64";
    class       volVectorField;
    location    "26";
    object      vorticity;
}
// * * * * * * * * * * * * * * * * * * * * * * * * * * * * * * * * * * * * * //

dimensions      [0 0 -1 0 0 0 0];

internalField   nonuniform List<vector> 
5285
(
(0 -0 -0.000120661)
(0 -0 -0.000130876)
(0 -0 -0.000138551)
(0 -0 -0.000143635)
(0 -0 -0.000146096)
(0 -0 -0.000145895)
(0 -0 -0.000143095)
(0 -0 -0.000137901)
(0 -0 -0.000130598)
(0 -0 -0.000121536)
(0 -0 -0.000111116)
(0 -0 -9.97634e-05)
(0 -0 -8.79109e-05)
(0 -0 -7.59715e-05)
(0 -0 -6.43199e-05)
(0 -0 -5.32746e-05)
(0 -0 -4.3086e-05)
(0 -0 -3.39296e-05)
(0 -0 -2.59059e-05)
(0 -0 -1.90451e-05)
(0 -0 -1.33174e-05)
(0 -0 -8.64529e-06)
(0 -0 -4.91827e-06)
(0 -0 -2.00707e-06)
(0 -0 2.23172e-07)
(0 -0 1.90191e-06)
(0 -0 3.14513e-06)
(0 -0 4.04991e-06)
(0 -0 4.69222e-06)
(0 -0 5.1272e-06)
(0 -0 5.39145e-06)
(0 -0 5.50673e-06)
(0 -0 5.48366e-06)
(0 -0 5.32442e-06)
(0 -0 5.0235e-06)
(0 -0 4.56684e-06)
(0 -0 3.92963e-06)
(0 -0 3.0753e-06)
(0 -0 1.95714e-06)
(0 -0 5.24655e-07)
(0 -0 -1.26575e-06)
(0 -0 -3.44362e-06)
(0 -0 -5.94204e-06)
(0 -0 -9.09347e-06)
(0 -0 -0.0001221)
(0 -0 -0.000132434)
(0 -0 -0.000140022)
(0 -0 -0.000145114)
(0 -0 -0.000147609)
(0 -0 -0.000147469)
(0 -0 -0.000144743)
(0 -0 -0.000139628)
(0 -0 -0.000132399)
(0 -0 -0.000123401)
(0 -0 -0.000113025)
(0 -0 -0.000101696)
(0 -0 -8.98408e-05)
(0 -0 -7.78741e-05)
(0 -0 -6.61727e-05)
(0 -0 -5.50591e-05)
(0 -0 -4.47888e-05)
(0 -0 -3.55432e-05)
(0 -0 -2.74283e-05)
(0 -0 -2.04797e-05)
(0 -0 -1.46712e-05)
(0 -0 -9.92846e-06)
(0 -0 -6.1423e-06)
(0 -0 -3.18381e-06)
(0 -0 -9.1753e-07)
(0 -0 7.87496e-07)
(0 -0 2.0489e-06)
(0 -0 2.96607e-06)
(0 -0 3.61731e-06)
(0 -0 4.06047e-06)
(0 -0 4.33514e-06)
(0 -0 4.46667e-06)
(0 -0 4.47e-06)
(0 -0 4.3522e-06)
(0 -0 4.11326e-06)
(0 -0 3.74468e-06)
(0 -0 3.2267e-06)
(0 -0 2.52641e-06)
(0 -0 1.59887e-06)
(0 -0 3.92766e-07)
(0 -0 -1.13919e-06)
(0 -0 -3.03291e-06)
(0 -0 -5.23034e-06)
(0 -0 -8.06901e-06)
(0 -0 -0.000122217)
(0 -0 -0.000132286)
(0 -0 -0.000139889)
(0 -0 -0.000144906)
(0 -0 -0.000147407)
(0 -0 -0.00014734)
(0 -0 -0.000144733)
(0 -0 -0.000139772)
(0 -0 -0.000132717)
(0 -0 -0.000123899)
(0 -0 -0.000113698)
(0 -0 -0.000102528)
(0 -0 -9.081e-05)
(0 -0 -7.89527e-05)
(0 -0 -6.73314e-05)
(0 -0 -5.62696e-05)
(0 -0 -4.60258e-05)
(0 -0 -3.67859e-05)
(0 -0 -2.86612e-05)
(0 -0 -2.16926e-05)
(0 -0 -1.58592e-05)
(0 -0 -1.10903e-05)
(0 -0 -7.27998e-06)
(0 -0 -4.30116e-06)
(0 -0 -2.01927e-06)
(0 -0 -3.03383e-07)
(0 -0 9.64855e-07)
(0 -0 1.88583e-06)
(0 -0 2.53943e-06)
(0 -0 2.98535e-06)
(0 -0 3.26583e-06)
(0 -0 3.4094e-06)
(0 -0 3.43493e-06)
(0 -0 3.35426e-06)
(0 -0 3.17285e-06)
(0 -0 2.88773e-06)
(0 -0 2.48424e-06)
(0 -0 1.93328e-06)
(0 -0 1.19181e-06)
(0 -0 2.07662e-07)
(0 -0 -1.07007e-06)
(0 -0 -2.68356e-06)
(0 -0 -4.5831e-06)
(0 -0 -7.11358e-06)
(0 -0 -0.000120546)
(0 -0 -0.000130469)
(0 -0 -0.000137891)
(0 -0 -0.000142818)
(0 -0 -0.00014533)
(0 -0 -0.000145364)
(0 -0 -0.000142935)
(0 -0 -0.00013821)
(0 -0 -0.000131433)
(0 -0 -0.000122918)
(0 -0 -0.000113027)
(0 -0 -0.000102158)
(0 -0 -9.07195e-05)
(0 -0 -7.9112e-05)
(0 -0 -6.77045e-05)
(0 -0 -5.68184e-05)
(0 -0 -4.6713e-05)
(0 -0 -3.75773e-05)
(0 -0 -2.95277e-05)
(0 -0 -2.26107e-05)
(0 -0 -1.68111e-05)
(0 -0 -1.20638e-05)
(0 -0 -8.26726e-06)
(0 -0 -5.29783e-06)
(0 -0 -3.0233e-06)
(0 -0 -1.31432e-06)
(0 -0 -5.29746e-08)
(0 -0 8.61044e-07)
(0 -0 1.5083e-06)
(0 -0 1.94972e-06)
(0 -0 2.22952e-06)
(0 -0 2.37902e-06)
(0 -0 2.42074e-06)
(0 -0 2.37117e-06)
(0 -0 2.24103e-06)
(0 -0 2.03289e-06)
(0 -0 1.73722e-06)
(0 -0 1.32887e-06)
(0 -0 7.66558e-07)
(0 -0 -2.70568e-09)
(0 -0 -1.03341e-06)
(0 -0 -2.37401e-06)
(0 -0 -3.98318e-06)
(0 -0 -6.21598e-06)
(0 -0 -0.000117366)
(0 -0 -0.000126965)
(0 -0 -0.00013416)
(0 -0 -0.000138972)
(0 -0 -0.000141496)
(0 -0 -0.000141658)
(0 -0 -0.000139456)
(0 -0 -0.000135041)
(0 -0 -0.000128638)
(0 -0 -0.000120536)
(0 -0 -0.000111077)
(0 -0 -0.000100639)
(0 -0 -8.96127e-05)
(0 -0 -7.83848e-05)
(0 -0 -6.73151e-05)
(0 -0 -5.67197e-05)
(0 -0 -4.68566e-05)
(0 -0 -3.7917e-05)
(0 -0 -3.00215e-05)
(0 -0 -2.32225e-05)
(0 -0 -1.75117e-05)
(0 -0 -1.28304e-05)
(0 -0 -9.08271e-06)
(0 -0 -6.15012e-06)
(0 -0 -3.90418e-06)
(0 -0 -2.21831e-06)
(0 -0 -9.76512e-07)
(0 -0 -7.93263e-08)
(0 -0 5.53564e-07)
(0 -0 9.83669e-07)
(0 -0 1.25654e-06)
(0 -0 1.40586e-06)
(0 -0 1.45763e-06)
(0 -0 1.43279e-06)
(0 -0 1.34726e-06)
(0 -0 1.20913e-06)
(0 -0 1.01396e-06)
(0 -0 7.40452e-07)
(0 -0 3.49077e-07)
(0 -0 -2.13991e-07)
(0 -0 -1.00693e-06)
(0 -0 -2.08446e-06)
(0 -0 -3.41341e-06)
(0 -0 -5.35963e-06)
(0 -0 -0.000112789)
(0 -0 -0.000121975)
(0 -0 -0.000128884)
(0 -0 -0.000133555)
(0 -0 -0.000136087)
(0 -0 -0.000136398)
(0 -0 -0.000134469)
(0 -0 -0.00013043)
(0 -0 -0.000124483)
(0 -0 -0.000116893)
(0 -0 -0.000107976)
(0 -0 -9.80846e-05)
(0 -0 -8.75882e-05)
(0 -0 -7.68556e-05)
(0 -0 -6.62341e-05)
(0 -0 -5.60317e-05)
(0 -0 -4.65034e-05)
(0 -0 -3.78411e-05)
(0 -0 -3.01695e-05)
(0 -0 -2.35472e-05)
(0 -0 -1.7973e-05)
(0 -0 -1.33958e-05)
(0 -0 -9.72707e-06)
(0 -0 -6.85437e-06)
(0 -0 -4.65451e-06)
(0 -0 -3.00484e-06)
(0 -0 -1.79244e-06)
(0 -0 -9.19723e-07)
(0 -0 -3.07434e-07)
(0 -0 1.05885e-07)
(0 -0 3.66655e-07)
(0 -0 5.10586e-07)
(0 -0 5.6687e-07)
(0 -0 5.60819e-07)
(0 -0 5.13522e-07)
(0 -0 4.38481e-07)
(0 -0 3.36272e-07)
(0 -0 1.89327e-07)
(0 -0 -4.02069e-08)
(0 -0 -4.07078e-07)
(0 -0 -9.73151e-07)
(0 -0 -1.79941e-06)
(0 -0 -2.86079e-06)
(0 -0 -4.53367e-06)
(0 -0 -0.000106897)
(0 -0 -0.000115603)
(0 -0 -0.000122184)
(0 -0 -0.000126691)
(0 -0 -0.000129234)
(0 -0 -0.000129718)
(0 -0 -0.000128105)
(0 -0 -0.000124505)
(0 -0 -0.000119094)
(0 -0 -0.000112106)
(0 -0 -0.00010383)
(0 -0 -9.45884e-05)
(0 -0 -8.47271e-05)
(0 -0 -7.45933e-05)
(0 -0 -6.45183e-05)
(0 -0 -5.48002e-05)
(0 -0 -4.56889e-05)
(0 -0 -3.73762e-05)
(0 -0 -2.99904e-05)
(0 -0 -2.35965e-05)
(0 -0 -1.82012e-05)
(0 -0 -1.37618e-05)
(0 -0 -1.01982e-05)
(0 -0 -7.40541e-06)
(0 -0 -5.26659e-06)
(0 -0 -3.66432e-06)
(0 -0 -2.4896e-06)
(0 -0 -1.64777e-06)
(0 -0 -1.06137e-06)
(0 -0 -6.69575e-07)
(0 -0 -4.25496e-07)
(0 -0 -2.91721e-07)
(0 -0 -2.36053e-07)
(0 -0 -2.28969e-07)
(0 -0 -2.44335e-07)
(0 -0 -2.63236e-07)
(0 -0 -2.80163e-07)
(0 -0 -3.09105e-07)
(0 -0 -3.86378e-07)
(0 -0 -5.67782e-07)
(0 -0 -9.19025e-07)
(0 -0 -1.50736e-06)
(0 -0 -2.31563e-06)
(0 -0 -3.73033e-06)
(0 -0 -9.97306e-05)
(0 -0 -0.00010792)
(0 -0 -0.000114149)
(0 -0 -0.000118488)
(0 -0 -0.000121055)
(0 -0 -0.000121742)
(0 -0 -0.000120492)
(0 -0 -0.000117392)
(0 -0 -0.000112588)
(0 -0 -0.000106285)
(0 -0 -9.87372e-05)
(0 -0 -9.02383e-05)
(0 -0 -8.11046e-05)
(0 -0 -7.16599e-05)
(0 -0 -6.22173e-05)
(0 -0 -5.30629e-05)
(0 -0 -4.44402e-05)
(0 -0 -3.654e-05)
(0 -0 -2.9494e-05)
(0 -0 -2.33737e-05)
(0 -0 -1.81942e-05)
(0 -0 -1.39222e-05)
(0 -0 -1.04868e-05)
(0 -0 -7.79154e-06)
(0 -0 -5.72712e-06)
(0 -0 -4.18237e-06)
(0 -0 -3.05306e-06)
(0 -0 -2.24825e-06)
(0 -0 -1.69288e-06)
(0 -0 -1.32743e-06)
(0 -0 -1.10489e-06)
(0 -0 -9.86365e-07)
(0 -0 -9.36805e-07)
(0 -0 -9.22681e-07)
(0 -0 -9.12885e-07)
(0 -0 -8.83129e-07)
(0 -0 -8.23051e-07)
(0 -0 -7.43189e-07)
(0 -0 -6.78532e-07)
(0 -0 -6.86181e-07)
(0 -0 -8.35821e-07)
(0 -0 -1.20095e-06)
(0 -0 -1.77221e-06)
(0 -0 -2.94563e-06)
(0 -0 -9.12951e-05)
(0 -0 -9.89692e-05)
(0 -0 -0.000104856)
(0 -0 -0.000109046)
(0 -0 -0.000111667)
(0 -0 -0.000112599)
(0 -0 -0.000111764)
(0 -0 -0.000109223)
(0 -0 -0.000105095)
(0 -0 -9.95508e-05)
(0 -0 -9.28108e-05)
(0 -0 -8.51342e-05)
(0 -0 -7.68075e-05)
(0 -0 -6.81287e-05)
(0 -0 -5.93913e-05)
(0 -0 -5.08673e-05)
(0 -0 -4.27933e-05)
(0 -0 -3.53586e-05)
(0 -0 -2.86979e-05)
(0 -0 -2.28893e-05)
(0 -0 -1.7957e-05)
(0 -0 -1.38775e-05)
(0 -0 -1.059e-05)
(0 -0 -8.00762e-06)
(0 -0 -6.02936e-06)
(0 -0 -4.55107e-06)
(0 -0 -3.47425e-06)
(0 -0 -2.71226e-06)
(0 -0 -2.19312e-06)
(0 -0 -1.85897e-06)
(0 -0 -1.66305e-06)
(0 -0 -1.56524e-06)
(0 -0 -1.52778e-06)
(0 -0 -1.51316e-06)
(0 -0 -1.4853e-06)
(0 -0 -1.41464e-06)
(0 -0 -1.28618e-06)
(0 -0 -1.10716e-06)
(0 -0 -9.11487e-07)
(0 -0 -7.57825e-07)
(0 -0 -7.19942e-07)
(0 -0 -8.77535e-07)
(0 -0 -1.22892e-06)
(0 -0 -2.17908e-06)
(0 -0 -8.15467e-05)
(0 -0 -8.87524e-05)
(0 -0 -9.43454e-05)
(0 -0 -9.84363e-05)
(0 -0 -0.000101166)
(0 -0 -0.000102401)
(0 -0 -0.000102042)
(0 -0 -0.000100126)
(0 -0 -9.67424e-05)
(0 -0 -9.20268e-05)
(0 -0 -8.61641e-05)
(0 -0 -7.93792e-05)
(0 -0 -7.19268e-05)
(0 -0 -6.40779e-05)
(0 -0 -5.61051e-05)
(0 -0 -4.82664e-05)
(0 -0 -4.07901e-05)
(0 -0 -3.38639e-05)
(0 -0 -2.76255e-05)
(0 -0 -2.21598e-05)
(0 -0 -1.75003e-05)
(0 -0 -1.36341e-05)
(0 -0 -1.05112e-05)
(0 -0 -8.05465e-06)
(0 -0 -6.17272e-06)
(0 -0 -4.76885e-06)
(0 -0 -3.75101e-06)
(0 -0 -3.03751e-06)
(0 -0 -2.55983e-06)
(0 -0 -2.26213e-06)
(0 -0 -2.0982e-06)
(0 -0 -2.02692e-06)
(0 -0 -2.00795e-06)
(0 -0 -1.99972e-06)
(0 -0 -1.9612e-06)
(0 -0 -1.8577e-06)
(0 -0 -1.6697e-06)
(0 -0 -1.40144e-06)
(0 -0 -1.08597e-06)
(0 -0 -7.83695e-07)
(0 -0 -5.72692e-07)
(0 -0 -5.38882e-07)
(0 -0 -6.88033e-07)
(0 -0 -1.43358e-06)
(0 -0 -7.03616e-05)
(0 -0 -7.72012e-05)
(0 -0 -8.25957e-05)
(0 -0 -8.66782e-05)
(0 -0 -8.96027e-05)
(0 -0 -9.12236e-05)
(0 -0 -9.14203e-05)
(0 -0 -9.02063e-05)
(0 -0 -8.76387e-05)
(0 -0 -8.38207e-05)
(0 -0 -7.89009e-05)
(0 -0 -7.30694e-05)
(0 -0 -6.65488e-05)
(0 -0 -5.9583e-05)
(0 -0 -5.24236e-05)
(0 -0 -4.53138e-05)
(0 -0 -3.84742e-05)
(0 -0 -3.20904e-05)
(0 -0 -2.63035e-05)
(0 -0 -2.12055e-05)
(0 -0 -1.68395e-05)
(0 -0 -1.32036e-05)
(0 -0 -1.02587e-05)
(0 -0 -7.93901e-06)
(0 -0 -6.16213e-06)
(0 -0 -4.83996e-06)
(0 -0 -3.88731e-06)
(0 -0 -3.22788e-06)
(0 -0 -2.79699e-06)
(0 -0 -2.54118e-06)
(0 -0 -2.41505e-06)
(0 -0 -2.37651e-06)
(0 -0 -2.38262e-06)
(0 -0 -2.38788e-06)
(0 -0 -2.34633e-06)
(0 -0 -2.21828e-06)
(0 -0 -1.97977e-06)
(0 -0 -1.6322e-06)
(0 -0 -1.20813e-06)
(0 -0 -7.69932e-07)
(0 -0 -4.0014e-07)
(0 -0 -1.90939e-07)
(0 -0 -1.55544e-07)
(0 -0 -7.15098e-07)
(0 -0 -5.75052e-05)
(0 -0 -6.41479e-05)
(0 -0 -6.94985e-05)
(0 -0 -7.37139e-05)
(0 -0 -7.69622e-05)
(0 -0 -7.90859e-05)
(0 -0 -7.99434e-05)
(0 -0 -7.95249e-05)
(0 -0 -7.78578e-05)
(0 -0 -7.50123e-05)
(0 -0 -7.1102e-05)
(0 -0 -6.62828e-05)
(0 -0 -6.07461e-05)
(0 -0 -5.47095e-05)
(0 -0 -4.84038e-05)
(0 -0 -4.20583e-05)
(0 -0 -3.58863e-05)
(0 -0 -3.00717e-05)
(0 -0 -2.47592e-05)
(0 -0 -2.00484e-05)
(0 -0 -1.59924e-05)
(0 -0 -1.26004e-05)
(0 -0 -9.84502e-06)
(0 -0 -7.67146e-06)
(0 -0 -6.00749e-06)
(0 -0 -4.77379e-06)
(0 -0 -3.89233e-06)
(0 -0 -3.29257e-06)
(0 -0 -2.91403e-06)
(0 -0 -2.70594e-06)
(0 -0 -2.62374e-06)
(0 -0 -2.62446e-06)
(0 -0 -2.66264e-06)
(0 -0 -2.68881e-06)
(0 -0 -2.65213e-06)
(0 -0 -2.50781e-06)
(0 -0 -2.2277e-06)
(0 -0 -1.81064e-06)
(0 -0 -1.28887e-06)
(0 -0 -7.27092e-07)
(0 -0 -2.12462e-07)
(0 -0 1.56549e-07)
(0 -0 3.59314e-07)
(0 -0 -3.22407e-08)
(0 -0 -4.25973e-05)
(0 -0 -4.92932e-05)
(0 -0 -5.48274e-05)
(0 -0 -5.93803e-05)
(0 -0 -6.31359e-05)
(0 -0 -6.59248e-05)
(0 -0 -6.7585e-05)
(0 -0 -6.80845e-05)
(0 -0 -6.7423e-05)
(0 -0 -6.56389e-05)
(0 -0 -6.28131e-05)
(0 -0 -5.9069e-05)
(0 -0 -5.45686e-05)
(0 -0 -4.95049e-05)
(0 -0 -4.40896e-05)
(0 -0 -3.85392e-05)
(0 -0 -3.30606e-05)
(0 -0 -2.78372e-05)
(0 -0 -2.30179e-05)
(0 -0 -1.87103e-05)
(0 -0 -1.49777e-05)
(0 -0 -1.18411e-05)
(0 -0 -9.28506e-06)
(0 -0 -7.26613e-06)
(0 -0 -5.72243e-06)
(0 -0 -4.58362e-06)
(0 -0 -3.77934e-06)
(0 -0 -3.24512e-06)
(0 -0 -2.92491e-06)
(0 -0 -2.7707e-06)
(0 -0 -2.73892e-06)
(0 -0 -2.78587e-06)
(0 -0 -2.86358e-06)
(0 -0 -2.9184e-06)
(0 -0 -2.89454e-06)
(0 -0 -2.74227e-06)
(0 -0 -2.42934e-06)
(0 -0 -1.95224e-06)
(0 -0 -1.34315e-06)
(0 -0 -6.69444e-07)
(0 -0 -2.3137e-08)
(0 -0 4.90939e-07)
(0 -0 8.44948e-07)
(0 -0 6.04469e-07)
(0 -0 -2.50757e-05)
(0 -0 -3.2173e-05)
(0 -0 -3.82069e-05)
(0 -0 -4.33817e-05)
(0 -0 -4.78977e-05)
(0 -0 -5.1574e-05)
(0 -0 -5.4229e-05)
(0 -0 -5.58102e-05)
(0 -0 -5.62917e-05)
(0 -0 -5.56828e-05)
(0 -0 -5.40343e-05)
(0 -0 -5.14402e-05)
(0 -0 -4.80364e-05)
(0 -0 -4.39935e-05)
(0 -0 -3.95067e-05)
(0 -0 -3.47821e-05)
(0 -0 -3.00217e-05)
(0 -0 -2.54099e-05)
(0 -0 -2.11009e-05)
(0 -0 -1.72107e-05)
(0 -0 -1.38137e-05)
(0 -0 -1.09431e-05)
(0 -0 -8.59558e-06)
(0 -0 -6.73929e-06)
(0 -0 -5.323e-06)
(0 -0 -4.2857e-06)
(0 -0 -3.56491e-06)
(0 -0 -3.10244e-06)
(0 -0 -2.84692e-06)
(0 -0 -2.75326e-06)
(0 -0 -2.77902e-06)
(0 -0 -2.87971e-06)
(0 -0 -3.00459e-06)
(0 -0 -3.09595e-06)
(0 -0 -3.09302e-06)
(0 -0 -2.94113e-06)
(0 -0 -2.6039e-06)
(0 -0 -2.07564e-06)
(0 -0 -1.38893e-06)
(0 -0 -6.14052e-07)
(0 -0 1.51938e-07)
(0 -0 7.97702e-07)
(0 -0 1.28824e-06)
(0 -0 1.18338e-06)
(0 -0 -4.15945e-06)
(0 -0 -1.21251e-05)
(0 -0 -1.90839e-05)
(0 -0 -2.52639e-05)
(0 -0 -3.08821e-05)
(0 -0 -3.57457e-05)
(0 -0 -3.96544e-05)
(0 -0 -4.25372e-05)
(0 -0 -4.43453e-05)
(0 -0 -4.50626e-05)
(0 -0 -4.47133e-05)
(0 -0 -4.33664e-05)
(0 -0 -4.11354e-05)
(0 -0 -3.81728e-05)
(0 -0 -3.46606e-05)
(0 -0 -3.07975e-05)
(0 -0 -2.67834e-05)
(0 -0 -2.28054e-05)
(0 -0 -1.90245e-05)
(0 -0 -1.55667e-05)
(0 -0 -1.25179e-05)
(0 -0 -9.9239e-06)
(0 -0 -7.79411e-06)
(0 -0 -6.10866e-06)
(0 -0 -4.82722e-06)
(0 -0 -3.89839e-06)
(0 -0 -3.26774e-06)
(0 -0 -2.88363e-06)
(0 -0 -2.69963e-06)
(0 -0 -2.67375e-06)
(0 -0 -2.76464e-06)
(0 -0 -2.9269e-06)
(0 -0 -3.10704e-06)
(0 -0 -3.24316e-06)
(0 -0 -3.26945e-06)
(0 -0 -3.12602e-06)
(0 -0 -2.77259e-06)
(0 -0 -2.20145e-06)
(0 -0 -1.44588e-06)
(0 -0 -5.79348e-07)
(0 -0 2.9574e-07)
(0 -0 1.06149e-06)
(0 -0 1.67558e-06)
(0 -0 1.69282e-06)
(0 -0 2.11875e-05)
(0 -0 1.17423e-05)
(0 -0 3.29874e-06)
(0 -0 -4.39331e-06)
(0 -0 -1.15668e-05)
(0 -0 -1.8017e-05)
(0 -0 -2.35248e-05)
(0 -0 -2.80032e-05)
(0 -0 -3.1384e-05)
(0 -0 -3.36296e-05)
(0 -0 -3.47431e-05)
(0 -0 -3.47735e-05)
(0 -0 -3.38172e-05)
(0 -0 -3.20137e-05)
(0 -0 -2.95368e-05)
(0 -0 -2.65815e-05)
(0 -0 -2.33493e-05)
(0 -0 -2.00326e-05)
(0 -0 -1.68015e-05)
(0 -0 -1.37932e-05)
(0 -0 -1.11067e-05)
(0 -0 -8.80109e-06)
(0 -0 -6.89905e-06)
(0 -0 -5.39314e-06)
(0 -0 -4.25431e-06)
(0 -0 -3.44116e-06)
(0 -0 -2.90762e-06)
(0 -0 -2.60893e-06)
(0 -0 -2.50368e-06)
(0 -0 -2.55307e-06)
(0 -0 -2.717e-06)
(0 -0 -2.94913e-06)
(0 -0 -3.19315e-06)
(0 -0 -3.38261e-06)
(0 -0 -3.44638e-06)
(0 -0 -3.31936e-06)
(0 -0 -2.95734e-06)
(0 -0 -2.35085e-06)
(0 -0 -1.53403e-06)
(0 -0 -5.83882e-07)
(0 -0 3.91503e-07)
(0 -0 1.26747e-06)
(0 -0 1.99421e-06)
(0 -0 2.12238e-06)
(0 -0 5.22955e-05)
(0 -0 4.0586e-05)
(0 -0 2.99291e-05)
(0 -0 2.0063e-05)
(0 -0 1.07404e-05)
(0 -0 2.17957e-06)
(0 -0 -5.38247e-06)
(0 -0 -1.18451e-05)
(0 -0 -1.71247e-05)
(0 -0 -2.11679e-05)
(0 -0 -2.39627e-05)
(0 -0 -2.55448e-05)
(0 -0 -2.60005e-05)
(0 -0 -2.54626e-05)
(0 -0 -2.41028e-05)
(0 -0 -2.21177e-05)
(0 -0 -1.97147e-05)
(0 -0 -1.70954e-05)
(0 -0 -1.44417e-05)
(0 -0 -1.19045e-05)
(0 -0 -9.59708e-06)
(0 -0 -7.59336e-06)
(0 -0 -5.93005e-06)
(0 -0 -4.61284e-06)
(0 -0 -3.62455e-06)
(0 -0 -2.9343e-06)
(0 -0 -2.50483e-06)
(0 -0 -2.29857e-06)
(0 -0 -2.2794e-06)
(0 -0 -2.4119e-06)
(0 -0 -2.65722e-06)
(0 -0 -2.96806e-06)
(0 -0 -3.28486e-06)
(0 -0 -3.53644e-06)
(0 -0 -3.64605e-06)
(0 -0 -3.54327e-06)
(0 -0 -3.17982e-06)
(0 -0 -2.54455e-06)
(0 -0 -1.67273e-06)
(0 -0 -6.45295e-07)
(0 -0 4.23667e-07)
(0 -0 1.40236e-06)
(0 -0 2.23321e-06)
(0 -0 2.46389e-06)
(0 -0 9.02821e-05)
(0 -0 7.5383e-05)
(0 -0 6.15824e-05)
(0 -0 4.87035e-05)
(0 -0 3.64842e-05)
(0 -0 2.51559e-05)
(0 -0 1.49726e-05)
(0 -0 6.04468e-06)
(0 -0 -1.53425e-06)
(0 -0 -7.70208e-06)
(0 -0 -1.24396e-05)
(0 -0 -1.57781e-05)
(0 -0 -1.78021e-05)
(0 -0 -1.86465e-05)
(0 -0 -1.84881e-05)
(0 -0 -1.75323e-05)
(0 -0 -1.5998e-05)
(0 -0 -1.41008e-05)
(0 -0 -1.20384e-05)
(0 -0 -9.97835e-06)
(0 -0 -8.05087e-06)
(0 -0 -6.34622e-06)
(0 -0 -4.91667e-06)
(0 -0 -3.78212e-06)
(0 -0 -2.93812e-06)
(0 -0 -2.36495e-06)
(0 -0 -2.03466e-06)
(0 -0 -1.91743e-06)
(0 -0 -1.98269e-06)
(0 -0 -2.19865e-06)
(0 -0 -2.52746e-06)
(0 -0 -2.92058e-06)
(0 -0 -3.31478e-06)
(0 -0 -3.63382e-06)
(0 -0 -3.79485e-06)
(0 -0 -3.72159e-06)
(0 -0 -3.36159e-06)
(0 -0 -2.70191e-06)
(0 -0 -1.77932e-06)
(0 -0 -6.79036e-07)
(0 -0 4.78476e-07)
(0 -0 1.55385e-06)
(0 -0 2.48134e-06)
(0 -0 2.80788e-06)
(0 -0 0.000134808)
(0 -0 0.000115401)
(0 -0 9.76005e-05)
(0 -0 8.07726e-05)
(0 -0 6.48589e-05)
(0 -0 5.00772e-05)
(0 -0 3.66954e-05)
(0 -0 2.48282e-05)
(0 -0 1.45711e-05)
(0 -0 5.98527e-06)
(0 -0 -9.13371e-07)
(0 -0 -6.16258e-06)
(0 -0 -9.85592e-06)
(0 -0 -1.21402e-05)
(0 -0 -1.32069e-05)
(0 -0 -1.32785e-05)
(0 -0 -1.25925e-05)
(0 -0 -1.13843e-05)
(0 -0 -9.87222e-06)
(0 -0 -8.24419e-06)
(0 -0 -6.64981e-06)
(0 -0 -5.19823e-06)
(0 -0 -3.95864e-06)
(0 -0 -2.96644e-06)
(0 -0 -2.23054e-06)
(0 -0 -1.74303e-06)
(0 -0 -1.48567e-06)
(0 -0 -1.43657e-06)
(0 -0 -1.57071e-06)
(0 -0 -1.8596e-06)
(0 -0 -2.266e-06)
(0 -0 -2.73937e-06)
(0 -0 -3.21212e-06)
(0 -0 -3.60184e-06)
(0 -0 -3.81892e-06)
(0 -0 -3.78028e-06)
(0 -0 -3.42876e-06)
(0 -0 -2.74936e-06)
(0 -0 -1.78065e-06)
(0 -0 -6.12385e-07)
(0 -0 6.28214e-07)
(0 -0 1.79368e-06)
(0 -0 2.8099e-06)
(0 -0 3.22351e-06)
(0 -0 0.000184882)
(0 -0 0.000159901)
(0 -0 0.00013665)
(0 -0 0.000115092)
(0 -0 9.46997e-05)
(0 -0 7.58213e-05)
(0 -0 5.87158e-05)
(0 -0 4.34943e-05)
(0 -0 3.02438e-05)
(0 -0 1.90133e-05)
(0 -0 9.80313e-06)
(0 -0 2.55743e-06)
(0 -0 -2.83831e-06)
(0 -0 -6.55387e-06)
(0 -0 -8.80516e-06)
(0 -0 -9.84031e-06)
(0 -0 -9.92344e-06)
(0 -0 -9.31632e-06)
(0 -0 -8.2624e-06)
(0 -0 -6.9739e-06)
(0 -0 -5.62362e-06)
(0 -0 -4.34082e-06)
(0 -0 -3.21361e-06)
(0 -0 -2.29351e-06)
(0 -0 -1.60435e-06)
(0 -0 -1.14926e-06)
(0 -0 -9.21126e-07)
(0 -0 -9.04398e-07)
(0 -0 -1.08042e-06)
(0 -0 -1.4227e-06)
(0 -0 -1.89437e-06)
(0 -0 -2.44147e-06)
(0 -0 -2.9913e-06)
(0 -0 -3.45319e-06)
(0 -0 -3.72865e-06)
(0 -0 -3.72797e-06)
(0 -0 -3.3884e-06)
(0 -0 -2.69256e-06)
(0 -0 -1.68018e-06)
(0 -0 -4.45877e-07)
(0 -0 8.75103e-07)
(0 -0 2.12679e-06)
(0 -0 3.22622e-06)
(0 -0 3.71986e-06)
(0 -0 7.55901e-05)
(0 -0 8.529e-05)
(0 -0 9.49363e-05)
(0 -0 0.000105381)
(0 -0 0.000115752)
(0 -0 0.000125237)
(0 -0 0.000133426)
(0 -0 0.0001399)
(0 -0 0.000144262)
(0 -0 0.000146155)
(0 -0 0.000145286)
(0 -0 0.000141446)
(0 -0 0.000134525)
(0 -0 0.00012452)
(0 -0 0.000111546)
(0 -0 9.58317e-05)
(0 -0 7.77151e-05)
(0 -0 5.76284e-05)
(0 -0 3.6082e-05)
(0 -0 1.36415e-05)
(0 -0 -9.09666e-06)
(0 -0 -3.15318e-05)
(0 -0 -5.3085e-05)
(0 -0 -7.32181e-05)
(0 -0 -9.14751e-05)
(0 -0 -0.000107349)
(0 -0 7.29365e-05)
(0 -0 8.24833e-05)
(0 -0 9.20533e-05)
(0 -0 0.000102321)
(0 -0 0.000112566)
(0 -0 0.000121937)
(0 -0 0.000130021)
(0 -0 0.0001364)
(0 -0 0.00014068)
(0 -0 0.000142509)
(0 -0 0.000141599)
(0 -0 0.000137745)
(0 -0 0.000130842)
(0 -0 0.000120892)
(0 -0 0.000108009)
(0 -0 9.24237e-05)
(0 -0 7.4469e-05)
(0 -0 5.45731e-05)
(0 -0 3.32391e-05)
(0 -0 1.10241e-05)
(0 -0 -1.14855e-05)
(0 -0 -3.36993e-05)
(0 -0 -5.50489e-05)
(0 -0 -7.50121e-05)
(0 -0 -9.3104e-05)
(0 -0 -0.000108974)
(0 -0 6.98644e-05)
(0 -0 7.92822e-05)
(0 -0 8.85037e-05)
(0 -0 9.8523e-05)
(0 -0 0.000108548)
(0 -0 0.000117704)
(0 -0 0.000125585)
(0 -0 0.000131782)
(0 -0 0.000135911)
(0 -0 0.000137628)
(0 -0 0.000136657)
(0 -0 0.000132802)
(0 -0 0.000125963)
(0 -0 0.000116147)
(0 -0 0.000103471)
(0 -0 8.81638e-05)
(0 -0 7.05524e-05)
(0 -0 5.10554e-05)
(0 -0 3.01635e-05)
(0 -0 8.4182e-06)
(0 -0 -1.36113e-05)
(0 -0 -3.53526e-05)
(0 -0 -5.62551e-05)
(0 -0 -7.58135e-05)
(0 -0 -9.35816e-05)
(0 -0 -0.000109121)
(0 -0 6.67222e-05)
(0 -0 7.57724e-05)
(0 -0 8.46225e-05)
(0 -0 9.43151e-05)
(0 -0 0.000104029)
(0 -0 0.000112876)
(0 -0 0.000120465)
(0 -0 0.0001264)
(0 -0 0.000130311)
(0 -0 0.000131872)
(0 -0 0.000130818)
(0 -0 0.000126967)
(0 -0 0.000120229)
(0 -0 0.000110618)
(0 -0 9.82539e-05)
(0 -0 8.33603e-05)
(0 -0 6.6258e-05)
(0 -0 4.7352e-05)
(0 -0 2.71149e-05)
(0 -0 6.06658e-06)
(0 -0 -1.52478e-05)
(0 -0 -3.62813e-05)
(0 -0 -5.65084e-05)
(0 -0 -7.54475e-05)
(0 -0 -9.26745e-05)
(0 -0 -0.000107804)
(0 -0 6.35451e-05)
(0 -0 7.21778e-05)
(0 -0 8.05758e-05)
(0 -0 8.9849e-05)
(0 -0 9.91613e-05)
(0 -0 0.000107611)
(0 -0 0.000114822)
(0 -0 0.000120418)
(0 -0 0.000124048)
(0 -0 0.000125404)
(0 -0 0.00012424)
(0 -0 0.000120391)
(0 -0 0.000113781)
(0 -0 0.00010443)
(0 -0 9.2463e-05)
(0 -0 7.80994e-05)
(0 -0 6.16501e-05)
(0 -0 4.35035e-05)
(0 -0 2.41097e-05)
(0 -0 3.96153e-06)
(0 -0 -1.64265e-05)
(0 -0 -3.65395e-05)
(0 -0 -5.58837e-05)
(0 -0 -7.40079e-05)
(0 -0 -9.05155e-05)
(0 -0 -0.000105047)
(0 -0 6.0568e-05)
(0 -0 6.87227e-05)
(0 -0 7.65902e-05)
(0 -0 8.53636e-05)
(0 -0 9.41932e-05)
(0 -0 0.000102164)
(0 -0 0.000108919)
(0 -0 0.000114104)
(0 -0 0.000117388)
(0 -0 0.000118489)
(0 -0 0.000117182)
(0 -0 0.000113322)
(0 -0 0.000106849)
(0 -0 9.77951e-05)
(0 -0 8.62873e-05)
(0 -0 7.25425e-05)
(0 -0 5.686e-05)
(0 -0 3.96091e-05)
(0 -0 2.12137e-05)
(0 -0 2.1345e-06)
(0 -0 -1.71498e-05)
(0 -0 -3.61622e-05)
(0 -0 -5.4447e-05)
(0 -0 -7.15888e-05)
(0 -0 -8.72234e-05)
(0 -0 -0.000101018)
(0 -0 5.81903e-05)
(0 -0 6.58233e-05)
(0 -0 7.31044e-05)
(0 -0 8.13176e-05)
(0 -0 8.96002e-05)
(0 -0 9.70245e-05)
(0 -0 0.000103255)
(0 -0 0.00010796)
(0 -0 0.000110837)
(0 -0 0.000111628)
(0 -0 0.000110136)
(0 -0 0.000106238)
(0 -0 9.98926e-05)
(0 -0 9.11457e-05)
(0 -0 8.01292e-05)
(0 -0 6.70569e-05)
(0 -0 5.22161e-05)
(0 -0 3.5955e-05)
(0 -0 1.86684e-05)
(0 -0 7.81691e-07)
(0 -0 -1.7267e-05)
(0 -0 -3.50435e-05)
(0 -0 -5.2135e-05)
(0 -0 -6.81667e-05)
(0 -0 -8.28109e-05)
(0 -0 -9.57642e-05)
(0 -0 5.69918e-05)
(0 -0 6.40848e-05)
(0 -0 7.07478e-05)
(0 -0 7.83621e-05)
(0 -0 8.60519e-05)
(0 -0 9.2876e-05)
(0 -0 9.85222e-05)
(0 -0 0.000102686)
(0 -0 0.000105093)
(0 -0 0.000105514)
(0 -0 0.000103781)
(0 -0 9.97989e-05)
(0 -0 9.35465e-05)
(0 -0 8.50851e-05)
(0 -0 7.45537e-05)
(0 -0 6.21639e-05)
(0 -0 4.81909e-05)
(0 -0 3.29612e-05)
(0 -0 1.68389e-05)
(0 -0 2.1117e-07)
(0 -0 -1.65273e-05)
(0 -0 -3.29886e-05)
(0 -0 -4.88064e-05)
(0 -0 -6.36508e-05)
(0 -0 -7.72336e-05)
(0 -0 -8.92835e-05)
(0 -0 5.77647e-05)
(0 -0 6.43266e-05)
(0 -0 7.03647e-05)
(0 -0 7.73632e-05)
(0 -0 8.4432e-05)
(0 -0 9.06154e-05)
(0 -0 9.5626e-05)
(0 -0 9.91875e-05)
(0 -0 0.000101056)
(0 -0 0.000101036)
(0 -0 9.89894e-05)
(0 -0 9.48498e-05)
(0 -0 8.86217e-05)
(0 -0 8.03833e-05)
(0 -0 7.0283e-05)
(0 -0 5.85316e-05)
(0 -0 4.53932e-05)
(0 -0 3.11726e-05)
(0 -0 1.62029e-05)
(0 -0 8.31985e-07)
(0 -0 -1.45904e-05)
(0 -0 -2.97249e-05)
(0 -0 -4.42543e-05)
(0 -0 -5.78954e-05)
(0 -0 -7.04026e-05)
(0 -0 -8.15384e-05)
(0 -0 6.15968e-05)
(0 -0 6.76658e-05)
(0 -0 7.30961e-05)
(0 -0 7.94816e-05)
(0 -0 8.59154e-05)
(0 -0 9.14258e-05)
(0 -0 9.57511e-05)
(0 -0 9.86446e-05)
(0 -0 9.98951e-05)
(0 -0 9.93405e-05)
(0 -0 9.68783e-05)
(0 -0 9.24725e-05)
(0 -0 8.61549e-05)
(0 -0 7.80245e-05)
(0 -0 6.8241e-05)
(0 -0 5.70169e-05)
(0 -0 4.46069e-05)
(0 -0 3.12957e-05)
(0 -0 1.73861e-05)
(0 -0 3.18728e-06)
(0 -0 -1.0996e-05)
(0 -0 -2.48732e-05)
(0 -0 -3.81771e-05)
(0 -0 -5.06727e-05)
(0 -0 -6.21582e-05)
(0 -0 -7.24308e-05)
(0 -0 6.9988e-05)
(0 -0 7.56302e-05)
(0 -0 8.04911e-05)
(0 -0 8.62807e-05)
(0 -0 9.20732e-05)
(0 -0 9.68781e-05)
(0 -0 0.00010046)
(0 -0 0.000102603)
(0 -0 0.00010313)
(0 -0 0.000101915)
(0 -0 9.88913e-05)
(0 -0 9.40579e-05)
(0 -0 8.74767e-05)
(0 -0 7.92699e-05)
(0 -0 6.96122e-05)
(0 -0 5.87204e-05)
(0 -0 4.68425e-05)
(0 -0 3.42459e-05)
(0 -0 2.12059e-05)
(0 -0 7.99538e-06)
(0 -0 -5.12444e-06)
(0 -0 -1.79105e-05)
(0 -0 -3.01448e-05)
(0 -0 -4.16402e-05)
(0 -0 -5.22386e-05)
(0 -0 -6.17727e-05)
(0 -0 8.50071e-05)
(0 -0 9.03121e-05)
(0 -0 9.46561e-05)
(0 -0 9.98718e-05)
(0 -0 0.000105012)
(0 -0 0.000109064)
(0 -0 0.00011182)
(0 -0 0.000113095)
(0 -0 0.000112749)
(0 -0 0.000110691)
(0 -0 0.000106897)
(0 -0 0.000101401)
(0 -0 9.42988e-05)
(0 -0 8.57402e-05)
(0 -0 7.59176e-05)
(0 -0 6.5056e-05)
(0 -0 5.34008e-05)
(0 -0 4.12068e-05)
(0 -0 2.87262e-05)
(0 -0 1.61997e-05)
(0 -0 3.84901e-06)
(0 -0 -8.12729e-06)
(0 -0 -1.95579e-05)
(0 -0 -3.03022e-05)
(0 -0 -4.02446e-05)
(0 -0 -4.92525e-05)
(0 -0 0.000109498)
(0 -0 0.000114569)
(0 -0 0.000118449)
(0 -0 0.000123101)
(0 -0 0.000127553)
(0 -0 0.000130768)
(0 -0 0.000132566)
(0 -0 0.000132795)
(0 -0 0.000131351)
(0 -0 0.000128186)
(0 -0 0.000123317)
(0 -0 0.000116818)
(0 -0 0.000108824)
(0 -0 9.95166e-05)
(0 -0 8.91081e-05)
(0 -0 7.78361e-05)
(0 -0 6.59499e-05)
(0 -0 5.36986e-05)
(0 -0 4.13187e-05)
(0 -0 2.90255e-05)
(0 -0 1.70069e-05)
(0 -0 5.4217e-06)
(0 -0 -5.60201e-06)
(0 -0 -1.5967e-05)
(0 -0 -2.55988e-05)
(0 -0 -3.43978e-05)
(0 -0 0.000147349)
(0 -0 0.000152283)
(0 -0 0.000155729)
(0 -0 0.000159788)
(0 -0 0.00016346)
(0 -0 0.000165682)
(0 -0 0.000166303)
(0 -0 0.000165207)
(0 -0 0.000162328)
(0 -0 0.000157665)
(0 -0 0.000151278)
(0 -0 0.00014329)
(0 -0 0.00013388)
(0 -0 0.000123262)
(0 -0 0.000111673)
(0 -0 9.9367e-05)
(0 -0 8.66086e-05)
(0 -0 7.36526e-05)
(0 -0 6.07309e-05)
(0 -0 4.8042e-05)
(0 -0 3.57471e-05)
(0 -0 2.39707e-05)
(0 -0 1.28022e-05)
(0 -0 2.29862e-06)
(0 -0 -7.50338e-06)
(0 -0 -1.65356e-05)
(0 -0 0.000203827)
(0 -0 0.000208684)
(0 -0 0.000211665)
(0 -0 0.000215021)
(0 -0 0.00021772)
(0 -0 0.000218673)
(0 -0 0.000217758)
(0 -0 0.000214899)
(0 -0 0.000210077)
(0 -0 0.000203339)
(0 -0 0.000194798)
(0 -0 0.000184631)
(0 -0 0.000173067)
(0 -0 0.000160364)
(0 -0 0.000146762)
(0 -0 0.000132552)
(0 -0 0.000118034)
(0 -0 0.000103488)
(0 -0 8.91563e-05)
(0 -0 7.52281e-05)
(0 -0 6.18447e-05)
(0 -0 4.91012e-05)
(0 -0 3.70527e-05)
(0 -0 2.572e-05)
(0 -0 1.5105e-05)
(0 -0 5.24789e-06)
(0 -0 0.000286007)
(0 -0 0.000290755)
(0 -0 0.00029313)
(0 -0 0.000295531)
(0 -0 0.000296895)
(0 -0 0.000296103)
(0 -0 0.000293076)
(0 -0 0.000287783)
(0 -0 0.000280258)
(0 -0 0.000270605)
(0 -0 0.000259)
(0 -0 0.000245683)
(0 -0 0.000230951)
(0 -0 0.000215106)
(0 -0 0.00019832)
(0 -0 0.000180987)
(0 -0 0.000163501)
(0 -0 0.00014619)
(0 -0 0.00012931)
(0 -0 0.000113047)
(0 -0 9.75236e-05)
(0 -0 8.28086e-05)
(0 -0 6.89268e-05)
(0 -0 5.58677e-05)
(0 -0 4.36024e-05)
(0 -0 3.21478e-05)
(0 -0 0.000402696)
(0 -0 0.000407079)
(0 -0 0.000408505)
(0 -0 0.000409448)
(0 -0 0.000408825)
(0 -0 0.000405502)
(0 -0 0.000399451)
(0 -0 0.0003907)
(0 -0 0.000379349)
(0 -0 0.000365572)
(0 -0 0.000349616)
(0 -0 0.000331802)
(0 -0 0.000312523)
(0 -0 0.000292183)
(0 -0 0.000271278)
(0 -0 0.000249045)
(0 -0 0.000226978)
(0 -0 0.000205391)
(0 -0 0.000184526)
(0 -0 0.000164547)
(0 -0 0.000145553)
(0 -0 0.00012759)
(0 -0 0.000110658)
(0 -0 9.47227e-05)
(0 -0 7.97318e-05)
(0 -0 6.56847e-05)
(0 -0 0.000563632)
(0 -0 0.000567015)
(0 -0 0.000566669)
(0 -0 0.000565178)
(0 -0 0.000561413)
(0 -0 0.000554251)
(0 -0 0.00054374)
(0 -0 0.000529981)
(0 -0 0.000513155)
(0 -0 0.000493518)
(0 -0 0.000471405)
(0 -0 0.00044724)
(0 -0 0.000421588)
(0 -0 0.000395129)
(0 -0 0.000368027)
(0 -0 0.000341228)
(0 -0 0.000312483)
(0 -0 0.000284805)
(0 -0 0.000258223)
(0 -0 0.000232837)
(0 -0 0.000208724)
(0 -0 0.000185917)
(0 -0 0.00016441)
(0 -0 0.000144158)
(0 -0 0.000125093)
(0 -0 0.000107222)
(0 -0 0.000781613)
(0 -0 0.000782929)
(0 -0 0.000779252)
(0 -0 0.000773605)
(0 -0 0.000764778)
(0 -0 0.000751729)
(0 -0 0.000734585)
(0 -0 0.000713541)
(0 -0 0.000688869)
(0 -0 0.00066093)
(0 -0 0.000630161)
(0 -0 0.0005971)
(0 -0 0.000562425)
(0 -0 0.000527226)
(0 -0 0.000492188)
(0 -0 0.000457066)
(0 -0 0.000422386)
(0 -0 0.000386699)
(0 -0 0.0003524)
(0 -0 0.000319571)
(0 -0 0.000288321)
(0 -0 0.000258718)
(0 -0 0.00023078)
(0 -0 0.000204471)
(0 -0 0.000179713)
(0 -0 0.000156509)
(0 -0 0.000652193)
(0 -0 0.000605243)
(0 -0 0.000559597)
(0 -0 0.000514156)
(0 -0 0.000469629)
(0 -0 0.000426728)
(0 -0 0.000385765)
(0 -0 0.000346917)
(0 -0 0.000310257)
(0 -0 0.00027577)
(0 -0 0.000243407)
(0 -0 0.000213066)
(0 -0 2.18746e-07)
(0 -0 2.27408e-07)
(0 -0 2.25359e-07)
(0 -0 2.24261e-07)
(0 -0 2.23986e-07)
(0 -0 2.22683e-07)
(0 -0 2.20097e-07)
(0 -0 2.16102e-07)
(0 -0 2.10631e-07)
(0 -0 2.03672e-07)
(0 -0 1.95287e-07)
(0 -0 1.85607e-07)
(0 -0 1.74829e-07)
(0 -0 1.63198e-07)
(0 -0 1.51003e-07)
(0 -0 1.38565e-07)
(0 -0 1.26223e-07)
(0 -0 1.14312e-07)
(0 -0 1.03149e-07)
(0 -0 9.30197e-08)
(0 -0 8.41655e-08)
(0 -0 7.67698e-08)
(0 -0 7.09506e-08)
(0 -0 6.67683e-08)
(0 -0 6.42324e-08)
(0 -0 6.33163e-08)
(0 -0 5.93213e-07)
(0 -0 6.0935e-07)
(0 -0 6.08123e-07)
(0 -0 6.06073e-07)
(0 -0 6.06824e-07)
(0 -0 6.04258e-07)
(0 -0 5.97826e-07)
(0 -0 5.87185e-07)
(0 -0 5.72152e-07)
(0 -0 5.52729e-07)
(0 -0 5.29107e-07)
(0 -0 5.01677e-07)
(0 -0 4.71008e-07)
(0 -0 4.37817e-07)
(0 -0 4.0295e-07)
(0 -0 3.6734e-07)
(0 -0 3.3196e-07)
(0 -0 2.97787e-07)
(0 -0 2.65744e-07)
(0 -0 2.3666e-07)
(0 -0 2.11234e-07)
(0 -0 1.89999e-07)
(0 -0 1.73304e-07)
(0 -0 1.61315e-07)
(0 -0 1.54044e-07)
(0 -0 1.51393e-07)
(0 -0 8.27299e-07)
(0 -0 8.44363e-07)
(0 -0 8.46107e-07)
(0 -0 8.43376e-07)
(0 -0 8.45976e-07)
(0 -0 8.43263e-07)
(0 -0 8.34503e-07)
(0 -0 8.19163e-07)
(0 -0 7.96955e-07)
(0 -0 7.67881e-07)
(0 -0 7.32236e-07)
(0 -0 6.90612e-07)
(0 -0 6.43887e-07)
(0 -0 5.93176e-07)
(0 -0 5.39789e-07)
(0 -0 4.85176e-07)
(0 -0 4.30857e-07)
(0 -0 3.78347e-07)
(0 -0 3.29089e-07)
(0 -0 2.84386e-07)
(0 -0 2.4533e-07)
(0 -0 2.12754e-07)
(0 -0 1.87208e-07)
(0 -0 1.68954e-07)
(0 -0 1.58002e-07)
(0 -0 1.5417e-07)
(0 -0 9.17218e-07)
(0 -0 9.37687e-07)
(0 -0 9.38718e-07)
(0 -0 9.34058e-07)
(0 -0 9.37638e-07)
(0 -0 9.34659e-07)
(0 -0 9.24149e-07)
(0 -0 9.054e-07)
(0 -0 8.78013e-07)
(0 -0 8.41953e-07)
(0 -0 7.97563e-07)
(0 -0 7.45567e-07)
(0 -0 6.87053e-07)
(0 -0 6.23422e-07)
(0 -0 5.56329e-07)
(0 -0 4.87615e-07)
(0 -0 4.19216e-07)
(0 -0 3.5307e-07)
(0 -0 2.91023e-07)
(0 -0 2.34738e-07)
(0 -0 1.85622e-07)
(0 -0 1.44753e-07)
(0 -0 1.12842e-07)
(0 -0 9.02304e-08)
(0 -0 7.69416e-08)
(0 -0 7.27514e-08)
(0 -0 8.946e-07)
(0 -0 9.17657e-07)
(0 -0 9.17187e-07)
(0 -0 9.1015e-07)
(0 -0 9.14578e-07)
(0 -0 9.11607e-07)
(0 -0 9.00121e-07)