/*--------------------------------*- C++ -*----------------------------------*\
| =========                 |                                                 |
| \\      /  F ield         | OpenFOAM: The Open Source CFD Toolbox           |
|  \\    /   O peration     | Version:  2412                                  |
|   \\  /    A nd           | Website:  www.openfoam.com                      |
|    \\/     M anipulation  |                                                 |
\*---------------------------------------------------------------------------*/
FoamFile
{
    version     2.0;
    format      ascii;
    arch        "LSB;label=32;scalar=64";
    class       volVectorField;
    location    "8.5";
    object      U;
}
// * * * * * * * * * * * * * * * * * * * * * * * * * * * * * * * * * * * * * //

dimensions      [0 1 -1 0 0 0 0];

internalField   nonuniform List<vector> 
5285
(
(0.0908555 0.000212687 5.49067e-23)
(0.0904416 0.000226539 -6.28361e-24)
(0.0900011 0.000242156 6.41777e-24)
(0.0895305 0.000259802 -6.55989e-24)
(0.0890261 0.000279735 0)
(0.0884834 0.000302218 6.87075e-24)
(0.0878975 0.000327519 -7.04099e-24)
(0.0872633 0.000355935 0)
(0.0865748 0.000387807 -7.41542e-24)
(0.0858255 0.000423538 0)
(0.0850083 0.000463619 -7.84197e-24)
(0.0841147 0.000508657 -1.31421e-22)
(0.0831355 0.000559396 1.3955e-22)
(0.0820598 0.000616762 -1.40134e-22)
(0.0808749 0.000681895 1.39921e-22)
(0.0795659 0.000756212 0)
(0.0781152 0.00084147 0)
(0.0765017 0.000939851 1.7185e-22)
(0.0746999 0.00105408 -1.61696e-22)
(0.0726794 0.00118751 0)
(0.0704027 0.0013443 0)
(0.0678249 0.00152941 0)
(0.0648911 0.00174854 0)
(0.0615363 0.00200775 0)
(0.0576847 0.00231246 0)
(0.0532524 0.0026655 0)
(0.0481537 0.00306364 0)
(0.0423157 0.00349209 0)
(0.0357054 0.00391614 -1.61862e-23)
(0.0283741 0.00426939 -5.57327e-22)
(0.0205076 0.00443965 5.56491e-22)
(0.0125095 0.00425431 6.05964e-22)
(0.00537641 0.00344856 -6.05055e-22)
(0.00110076 0.00161184 0)
(0.0908722 0.000637571 1.93302e-22)
(0.0904583 0.000679183 -2.05486e-22)
(0.0900179 0.00072608 -1.92819e-23)
(0.0895476 0.000779042 6.57428e-24)
(0.0890435 0.00083885 0)
(0.0885014 0.000906279 -6.88855e-24)
(0.0879166 0.000982142 -2.219e-22)
(0.0872838 0.00106733 4.63668e-22)
(0.0865972 0.00116286 2.55677e-22)
(0.0858505 0.00126994 -4.82292e-22)
(0.0850366 0.00139006 5.19328e-22)
(0.0841473 0.00152502 -5.26973e-22)
(0.0831734 0.00167708 -8.36342e-24)
(0.0821043 0.00184898 0)
(0.0809276 0.00204414 0)
(0.0796289 0.0022668 0)
(0.0781909 0.00252219 0)
(0.0765934 0.00281682 -9.95648e-24)
(0.074812 0.00315877 -6.76068e-22)
(0.0728171 0.00355806 -2.93034e-23)
(0.0705735 0.00402694 7.03538e-22)
(0.068038 0.0045801 7.68211e-22)
(0.0651591 0.00523437 -7.67194e-22)
(0.0618751 0.00600747 -2.55484e-23)
(0.0581144 0.00691513 -2.67414e-23)
(0.0537971 0.00796512 -9.25155e-22)
(0.0488406 0.00914703 8.94644e-22)
(0.0431715 0.0104158 -3.0602e-23)
(0.0367492 0.011667 1.62993e-23)
(0.0296038 0.0127027 -1.13322e-21)
(0.0218809 0.0131884 1.13287e-21)
(0.0139149 0.0126116 -2.36844e-21)
(0.00656512 0.0101962 2.32884e-21)
(0.00158599 0.00473162 -2.3863e-21)
(0.0909062 0.00106116 2.08816e-23)
(0.0904928 0.00113068 -3.99403e-22)
(0.0900528 0.00120897 1.29023e-23)
(0.0895832 0.00129731 -4.27229e-22)
(0.0890802 0.00139699 4.40315e-22)
(0.0885397 0.00150929 -4.48377e-22)
(0.0879572 0.00163558 4.62122e-22)
(0.0873275 0.00177733 1.45401e-23)
(0.0866452 0.00193624 -1.49359e-23)
(0.085904 0.00211435 1.53576e-23)
(0.085097 0.00231412 -5.1436e-22)
(0.0842166 0.00253858 5.30194e-22)
(0.0832537 0.00279144 5.64274e-22)
(0.0821983 0.00307729 -5.46954e-22)
(0.0810385 0.00340179 0)
(0.0797608 0.00377192 0)
(0.078349 0.00419632 1.92478e-23)
(0.0767841 0.00468567 1.32757e-21)
(0.0750438 0.00525323 3.30431e-23)
(0.0731012 0.00591533 -1.33728e-21)
(0.0709242 0.00669192 0)
(0.0684744 0.00760673 -2.34414e-23)
(0.0657061 0.00868676 1.63629e-21)
(0.0625647 0.00996012 -3.26988e-21)
(0.0589869 0.0114511 3.47359e-21)
(0.0549008 0.0131703 1.09247e-22)
(0.0502298 0.0150977 -1.81103e-21)
(0.0448995 0.0171561 -1.97053e-21)
(0.0388534 0.0191713 2.0308e-21)
(0.0320782 0.0208172 1.57098e-24)
(0.0246379 0.0215451 -3.46981e-23)
(0.0167297 0.0205138 2.28671e-21)
(0.00892416 0.0164877 -2.2143e-21)
(0.00251865 0.00758106 -2.21389e-21)
(0.0909594 0.00148184 -4.04898e-22)
(0.0905471 0.00157941 2.24977e-26)
(0.0901085 0.00168915 0)
(0.0896406 0.00181285 -4.16088e-22)
(0.0891398 0.00195227 4.29156e-22)
(0.0886024 0.00210921 0)
(0.088024 0.00228554 -9.25979e-22)
(0.0873999 0.00248336 9.10959e-22)
(0.0867247 0.00270504 1.5078e-23)
(0.0859926 0.00295346 -3.54128e-26)
(0.0851971 0.00323205 1.59374e-23)
(0.0843308 0.00354504 0)
(0.0833855 0.00389762 -5.11576e-26)
(0.0823517 0.00429617 0)
(0.0812185 0.00474851 -1.81054e-23)
(0.0799736 0.0052643 1.2249e-21)
(0.0786024 0.0058554 -1.22456e-21)
(0.0770881 0.00653648 -2.0272e-23)
(0.0754112 0.00732559 4.20031e-23)
(0.0735487 0.00824492 -1.45017e-21)
(0.0714737 0.00932133 1.40509e-21)
(0.0691547 0.0105865 2.38468e-23)
(0.0665544 0.0120762 -3.64964e-25)
(0.0636292 0.0138267 2.55394e-23)
(0.060328 0.0158681 -1.75883e-21)
(0.0565912 0.0182105 3.55989e-21)
(0.0523505 0.0208209 -1.85795e-21)
(0.0475302 0.0235872 1.93106e-21)
(0.0420498 0.0262663 -2.02164e-21)
(0.03583 0.0284121 -4.03146e-21)
(0.0288062 0.0292812 8.22698e-21)
(0.0209704 0.0277233 -4.16609e-21)
(0.0125029 0.0220858 0)
(0.00390462 0.0100365 -3.90953e-21)
(0.091034 0.00189798 0)
(0.0906241 0.00202366 -3.99251e-22)
(0.0901883 0.00216484 4.25194e-22)
(0.0897237 0.00232373 -1.33543e-23)
(0.0892272 0.00250258 -8.99888e-22)
(0.0886952 0.00270366 8.86604e-22)
(0.0881237 0.00292938 -1.44155e-23)
(0.0875082 0.00318241 0)
(0.086844 0.00346582 0)
(0.0861255 0.00378329 -1.03333e-21)
(0.0853468 0.00413925 1.00194e-21)
(0.0845012 0.00453909 0)
(0.0835811 0.00498943 -3.43899e-23)
(0.0825782 0.00549837 0)
(0.0814827 0.00607581 1.84231e-23)
(0.080284 0.00673387 -1.90032e-23)
(0.0789697 0.00748745 -1.97966e-23)
(0.0775259 0.00835477 2.04286e-23)
(0.0759369 0.0093582 1.34596e-21)
(0.0741849 0.0105249 -1.38915e-21)
(0.0722498 0.0118877 3.02762e-21)
(0.0701092 0.0134846 -3.02961e-21)
(0.0677374 0.0153578 3.22697e-21)
(0.0651051 0.0175492 9.97787e-23)
(0.0621773 0.0200913 -3.4076e-21)
(0.0589108 0.0229899 -2.73314e-23)
(0.055249 0.0261958 1.3199e-24)
(0.0511148 0.0295612 1.76441e-24)
(0.0463981 0.0327785 2.35143e-24)
(0.0409367 0.0352978 -5.96344e-23)
(0.0344935 0.0362155 -2.73702e-23)
(0.0267729 0.0341175 -2.59717e-23)
(0.0174481 0.0269517 0)
(0.00576899 0.0120881 8.21902e-24)
(0.0911327 0.00231201 -2.9843e-23)
(0.0907273 0.00246648 7.98271e-22)
(0.0902964 0.00263976 8.23766e-22)
(0.0898377 0.00283449 2.05458e-23)
(0.0893482 0.00305336 -8.73068e-22)
(0.0888247 0.00329911 0)
(0.0882637 0.00357467 0)
(0.0876612 0.00388332 -9.72563e-22)
(0.0870128 0.00422885 9.58593e-22)
(0.0863137 0.00461576 1.03263e-21)
(0.0855585 0.00504948 -1.03416e-21)
(0.0847413 0.00553661 0)
(0.0838557 0.0060852 1.1552e-21)
(0.0828945 0.00670502 -1.15744e-21)
(0.0818498 0.00740798 0)
(0.0807128 0.00820858 -2.50859e-21)
(0.079474 0.00912443 2.53182e-21)
(0.0781231 0.0101769 -2.0944e-23)
(0.0766492 0.011392 -2.80677e-21)
(0.0750409 0.0128008 2.8328e-21)
(0.0732867 0.0144398 0)
(0.0713752 0.0163509 3.19437e-21)
(0.0692953 0.0185784 -3.17471e-21)
(0.0670354 0.0211639 2.58185e-23)
(0.0645811 0.0241343 3.52705e-21)
(0.0619102 0.027482 -7.08564e-21)
(0.0589826 0.0311319 1.13659e-23)
(0.0557235 0.0348937 3.14726e-23)
(0.0519951 0.038397 3.69795e-21)
(0.0475481 0.0410094 4.10627e-24)
(0.0419542 0.041721 -3.17422e-21)
(0.0345494 0.0389607 3.25401e-21)
(0.0242456 0.0304503 0)
(0.00838408 0.0134255 2.84228e-23)
(0.0912603 0.00271877 -4.88387e-24)
(0.0908621 0.00290259 8.31882e-22)
(0.0904394 0.0031086 1.32883e-23)
(0.0899901 0.00333984 0)
(0.0895116 0.00359946 0)
(0.0890012 0.00389067 -9.32307e-22)
(0.0884558 0.00421699 9.34663e-22)
(0.087872 0.00458235 0)
(0.087246 0.0049913 1.57193e-23)
(0.0865738 0.00544928 0)
(0.0858509 0.00596282 -1.08582e-21)
(0.0850725 0.00653983 2.21085e-21)
(0.0842335 0.0071899 -1.12511e-21)
(0.0833282 0.00792465 -2.38587e-21)
(0.0823508 0.00875812 -8.1208e-23)
(0.0812952 0.00970726 -8.60414e-23)
(0.0801552 0.0107925 -9.08712e-23)
(0.0789247 0.0120384 2.6872e-21)
(0.0775985 0.013474 2.88901e-21)
(0.0761724 0.0151335 -2.89588e-21)
(0.0746443 0.0170559 0)
(0.0730149 0.0192831 3.22001e-21)
(0.0712884 0.0218565 -3.22748e-21)
(0.0694723 0.0248079 -3.44307e-21)
(0.0675745 0.0281449 3.42413e-21)
(0.0655964 0.0318259 2.80846e-23)
(0.0635192 0.035724 3.46924e-21)
(0.0612786 0.0395767 -1.06563e-22)
(0.0587246 0.0429259 -3.43408e-21)
(0.0555501 0.0450563 2.62235e-23)
(0.0511892 0.0449257 0)
(0.0446964 0.0410261 -2.07276e-23)
(0.0340489 0.0313046 -9.32676e-22)
(0.0135239 0.0133579 4.71721e-22)
(-0.000240353 0.000266013 0)
(-0.000784829 0.000312377 2.84683e-22)
(-0.00118046 8.76072e-05 -2.8511e-22)
(-0.00103197 -0.00027162 -2.64602e-22)
(-0.000174217 -0.000681471 2.64999e-22)
(0.00142197 -0.00108822 -7.55171e-24)
(0.00371888 -0.00146268 0)
(0.00664288 -0.00178604 0)
(0.0100957 -0.00204895 0)
(0.0139686 -0.00224875 0)
(0.0181518 -0.00238713 0)
(0.0225408 -0.00246856 0)
(0.0270397 -0.00249921 0)
(0.0315641 -0.00248612 0)
(0.0360415 -0.00243659 0)
(0.0404122 -0.0023578 1.84941e-23)
(0.0446286 -0.0022565 -1.74951e-23)
(0.0486544 -0.00213883 0)
(0.0524636 -0.00201026 0)
(0.0560393 -0.00187551 -4.37538e-24)
(0.0593728 -0.00173857 4.38206e-24)
(0.0624619 -0.00160271 -1.18385e-24)
(-0.000268393 0.000758625 -1.12588e-21)
(-0.00074573 0.000848111 -1.19451e-21)
(-0.00089849 0.000182631 1.177e-21)
(-0.000460943 -0.000887738 -5.25641e-22)
(0.000677665 -0.00208791 5.27339e-22)
(0.00251536 -0.00328446 7.60396e-24)
(0.00499963 -0.00438551 -1.42931e-23)
(0.00805649 -0.00533533 -3.91969e-22)
(0.0115896 -0.00610734 3.7962e-22)
(0.0154953 -0.0066939 -9.88245e-24)
(0.0196707 -0.00709989 -8.44973e-24)
(0.024019 -0.0073384 2.00758e-22)
(0.0284518 -0.00742747 -2.01025e-22)
(0.0328915 -0.00738772 -1.31237e-22)
(0.0372721 -0.00724059 2.83674e-23)
(0.041539 -0.00700713 1.03182e-22)
(0.0456491 -0.00670718 -1.03224e-24)
(0.0495696 -0.00635885 -1.7055e-24)
(0.0532772 -0.00597819 0)
(0.0567572 -0.00557914 0)
(0.0600018 -0.00517348 0)
(0.0630097 -0.00477082 -1.36108e-25)
(-0.000316573 0.00111735 -1.20198e-21)
(-0.000626897 0.00111542 1.26959e-21)
(-0.00029528 1.28806e-05 -1.2316e-21)
(0.000695763 -0.00169243 -1.80574e-23)
(0.00237483 -0.00361436 -7.43074e-25)
(0.0046569 -0.0055325 -9.71283e-22)
(0.00748762 -0.00729295 1.00325e-21)
(0.0107862 -0.00881061 8.13822e-22)
(0.0144607 -0.0100444 -8.57191e-23)
(0.0184186 -0.0109819 -1.30281e-21)
(0.022571 -0.0116305 1.13506e-21)
(0.0268355 -0.0120108 -5.1029e-22)
(0.031138 -0.0121512 -6.43134e-24)
(0.0354141 -0.0120844 0)
(0.0396092 -0.0118446 2.33624e-22)
(0.0436786 -0.0114655 -5.38563e-23)
(0.0475872 -0.0109787 -1.76637e-22)
(0.0513085 -0.0104135 3.75577e-24)
(0.0548244 -0.00979545 0)
(0.0581234 -0.00914719 0)
(0.0612003 -0.00848765 1.86472e-23)
(0.0640553 -0.00783241 -1.80779e-23)
(-0.000345687 0.00123589 -2.68529e-21)
(-0.000338028 0.00100267 0)
(0.000757652 -0.000510452 2.58145e-21)
(0.00252145 -0.00276991 -5.06225e-21)
(0.00489979 -0.00531673 2.49782e-21)
(0.00777599 -0.00783976 1.02544e-21)
(0.0110575 -0.0101525 -1.07686e-21)
(0.014659 -0.0121484 8.64126e-22)
(0.0184998 -0.0137731 -1.63974e-21)
(0.0225049 -0.0150092 7.63219e-22)
(0.0266055 -0.0158651 1.00173e-23)
(0.0307394 -0.0163665 7.02994e-25)
(0.034852 -0.01655 6.54149e-24)
(0.038896 -0.016458 -3.32782e-22)
(0.042832 -0.0161351 3.22596e-22)
(0.0466282 -0.0156256 7.3999e-24)
(0.0502598 -0.0149713 -2.68709e-24)
(0.0537085 -0.0142109 1.27365e-22)
(0.0569625 -0.0133787 -1.26987e-22)
(0.0600147 -0.0125046 -1.49039e-24)
(0.0628629 -0.0116142 0)
(0.0655089 -0.0107282 2.65848e-25)
(-0.000224364 0.00107256 -2.38311e-24)
(0.000380245 0.000534289 -2.54089e-23)
(0.00241599 -0.00140776 -2.39306e-23)
(0.00509465 -0.00415339 -2.24399e-23)
(0.008279 -0.00717239 -4.0692e-23)
(0.0118057 -0.0101474 -1.0603e-24)
(0.0155593 -0.012879 1.67809e-23)
(0.0194599 -0.0152445 -1.61118e-23)
(0.0234448 -0.0171778 -1.44291e-23)
(0.0274615 -0.0186551 1.45661e-21)
(0.0314656 -0.019683 -2.21637e-22)
(0.0354185 -0.0202888 -1.27676e-21)
(0.0392875 -0.0205136 9.00088e-22)
(0.0430448 -0.020406 -9.0178e-22)
(0.0466674 -0.0200183 3.08903e-22)
(0.0501373 -0.0194026 -3.17527e-22)
(0.0534408 -0.0186088 3.83624e-24)
(0.0565685 -0.0176832 -2.53595e-24)
(0.0595148 -0.0166674 -2.47905e-24)
(0.0622777 -0.015598 1.51635e-24)
(0.0648579 -0.0145059 0)
(0.0672588 -0.013417 -2.10903e-24)
(0.0694862 -0.0123519 0)
(0.000226616 0.000659065 5.37614e-23)
(0.00187854 -0.000384872 -2.6142e-24)
(0.00493214 -0.00268823 -3.13837e-21)
(0.00859666 -0.00570489 3.20882e-21)
(0.0125747 -0.0089895 -1.48512e-24)
(0.0166914 -0.0122399 -2.4918e-21)
(0.0208409 -0.0152514 2.19532e-22)
(0.024962 -0.0178876 2.56846e-22)
(0.0290159 -0.020068 3.93916e-21)
(0.032976 -0.0217566 -1.84327e-21)
(0.0368233 -0.0229515 2.40408e-23)
(0.040543 -0.0236753 1.22972e-21)
(0.0441235 -0.0239678 -1.21952e-21)
(0.0475555 -0.0238793 0)
(0.0508315 -0.0234659 -7.35196e-22)
(0.0539463 -0.0227849 7.38968e-22)
(0.0568965 -0.0218924 -3.93217e-24)
(0.0596806 -0.0208411 -4.04202e-22)
(0.0622991 -0.0196789 4.06155e-22)
(0.0647539 -0.0184482 -2.5957e-24)
(0.0670488 -0.0171857 1.05612e-22)
(0.0691888 -0.0159217 -1.02475e-22)
(0.07118 -0.0146811 0)
(0.00109986 -4.02157e-05 -7.55631e-21)
(0.00465703 -0.00185778 4.23629e-21)
(0.00887961 -0.00435779 -2.81838e-23)
(0.0133522 -0.00742686 0)
(0.0179037 -0.0107571 2.41916e-23)
(0.0223934 -0.0140989 2.8068e-21)
(0.0267432 -0.0172548 -2.41951e-22)
(0.0309209 -0.0200734 -2.5934e-21)
(0.0349143 -0.022453 1.66488e-23)
(0.0387204 -0.0243368 -1.85806e-21)
(0.0423412 -0.025706 1.84067e-21)
(0.0457806 -0.0265711 1.42003e-21)
(0.0490432 -0.0269649 -1.41661e-21)
(0.0521334 -0.0269348 0)
(0.0550556 -0.026537 8.82896e-22)
(0.057814 -0.0258321 -8.80724e-22)
(0.0604131 -0.0248804 -6.17837e-22)
(0.0628578 -0.0237402 1.04106e-22)
(0.065153 -0.0224652 8.80945e-23)
(0.0673043 -0.0211035 7.62966e-23)
(0.0693175 -0.0196971 3.47257e-22)
(0.0711989 -0.0182814 1.16227e-22)
(0.0729551 -0.0168854 -2.15239e-22)
(0.0025533 -0.00280566 0)
(0.00891175 -0.00457884 0)
(0.0143062 -0.00695172 0)
(0.0192438 -0.00990338 0)
(0.0240147 -0.0131387 0)
(0.0285726 -0.0164031 0)
(0.0328799 -0.0195069 0)
(0.0369354 -0.0223032 0)
(0.0407469 -0.0246862 0)
(0.0443253 -0.0265911 0)
(0.0476827 -0.0279894 0)
(0.0508319 -0.0288828 0)
(0.0537853 -0.0292965 0)
(0.0565546 -0.0292729 0)
(0.0591504 -0.0288649 0)
(0.0615831 -0.0281318 0)
(0.063862 -0.0271344 0)
(0.0659963 -0.0259322 0)
(0.0679947 -0.0245813 0)
(0.0698654 -0.0231324 0)
(0.0716163 -0.0216304 0)
(0.0732548 -0.0201133 0)
(0.0747879 -0.0186127 0)
(0.0762225 -0.0171536 0)
(0.0115623 -0.00870956 0)
(0.0179449 -0.010387 0)
(0.023395 -0.0125475 0)
(0.0282018 -0.0152144 0)
(0.032788 -0.0181442 0)
(0.0371144 -0.0210919 0)
(0.0411381 -0.0238737 0)
(0.0448644 -0.0263514 0)
(0.0483092 -0.0284266 0)
(0.0514898 -0.0300393 0)
(0.0544254 -0.0311643 0)
(0.0571358 -0.031805 0)
(0.059641 -0.0319871 0)
(0.0619597 -0.0317526 0)
(0.0641098 -0.0311537 0)
(0.0661076 -0.0302483 0)
(0.0679678 -0.0290959 0)
(0.069704 -0.0277544 0)
(0.0713279 -0.0262779 0)
(0.0728501 -0.0247158 0)
(0.0742797 -0.0231111 0)
(0.0756243 -0.0215007 0)
(0.0768911 -0.0199146 0)
(0.025204 -0.0135237 0)
(0.0306454 -0.0153353 0)
(0.0354253 -0.0174441 0)
(0.0395814 -0.0198977 0)
(0.0435722 -0.022543 0)
(0.047342 -0.0251801 0)
(0.0508203 -0.0276447 0)
(0.0540011 -0.0298114 0)
(0.0568972 -0.0315903 0)
(0.0595257 -0.0329266 0)
(0.061908 -0.0337978 0)
(0.0640679 -0.0342083 0)
(0.0660298 -0.0341839 0)
(0.0678178 -0.0337654 0)
(0.0694544 -0.0330039 0)
(0.0709604 -0.0319555 0)
(0.0723545 -0.0306775 0)
(0.0736528 -0.029226 0)
(0.0748693 -0.027653 0)
(0.0760154 -0.0260058 0)
(0.0771007 -0.0243256 0)
(0.0781326 -0.0226476 0)
(0.079117 -0.0210005 0)
(0.0415571 -0.0170364 0)
(0.0456545 -0.0190446 0)
(0.049383 -0.0212334 0)
(0.0525713 -0.0235941 0)
(0.0556728 -0.0260397 0)
(0.0586289 -0.0284254 0)
(0.0613462 -0.0306171 0)
(0.0638028 -0.0325081 0)
(0.0660034 -0.0340215 0)
(0.0679611 -0.0351107 0)
(0.0696955 -0.0357576 0)
(0.0712308 -0.0359688 0)
(0.0725931 -0.0357704 0)
(0.0738084 -0.0352026 0)
(0.0749016 -0.0343146 0)
(0.0758953 -0.0331604 0)
(0.0768097 -0.0317949 0)
(0.077662 -0.0302713 0)
(0.0784666 -0.0286392 0)
(0.0792349 -0.0269431 0)
(0.0799756 -0.0252222 0)
(0.0806951 -0.0235095 0)
(0.0813977 -0.0218319 0)
(0.0589187 -0.0193166 0)
(0.0615801 -0.0215534 0)
(0.0641131 -0.0238988 0)
(0.0662093 -0.026266 0)
(0.0682818 -0.0286002 0)
(0.0702843 -0.0308054 0)
(0.0721156 -0.03278 0)
(0.0737425 -0.0344403 0)
(0.0751622 -0.0357257 0)
(0.0763831 -0.0366008 0)
(0.0774217 -0.0370545 0)
(0.0783004 -0.0370971 0)
(0.0790444 -0.0367562 0)
(0.0796795 -0.0360715 0)
(0.0802301 -0.0350908 0)
(0.0807189 -0.0338653 0)
(0.0811656 -0.0324473 0)
(0.0815866 -0.0308868 0)
(0.0819954 -0.0292303 0)
(0.0824021 -0.0275195 0)
(0.0828138 -0.0257907 0)
(0.0832354 -0.0240745 0)
(0.0836692 -0.0223961 0)
(0.0758649 -0.0204056 0)
(0.0771881 -0.0228856 0)
(0.078543 -0.0254163 0)
(0.0795676 -0.0278512 0)
(0.0806075 -0.0301449 0)
(0.0816336 -0.032238 0)
(0.0825521 -0.0340589 0)
(0.0833261 -0.0355458 0)
(0.0839492 -0.0366555 0)
(0.0844264 -0.0373648 0)
(0.0847716 -0.0376709 0)
(0.0850047 -0.0375887 0)
(0.0851488 -0.0371474 0)
(0.0852277 -0.0363869 0)
(0.0852644 -0.0353532 0)
(0.0852795 -0.0340953 0)
(0.0852909 -0.0326622 0)
(0.0853132 -0.0311009 0)
(0.0853577 -0.0294545 0)
(0.0854325 -0.0277615 0)
(0.0855427 -0.0260556 0)
(0.085691 -0.0243649 0)
(0.0858778 -0.0227126 0)
(0.0913089 -0.020446 0)
(0.0915052 -0.0231664 0)
(0.0918077 -0.0258778 0)
(0.0918786 -0.0284059 0)
(0.0919823 -0.0307047 0)
(0.0921042 -0.03274 0)
(0.0921676 -0.0344643 0)
(0.0921396 -0.0358352 0)
(0.0920139 -0.0368251 0)
(0.0917951 -0.0374226 0)
(0.0914953 -0.0376325 0)
(0.0911325 -0.0374744 0)
(0.0907274 -0.0369794 0)
(0.0903017 -0.0361873 0)
(0.0898754 -0.0351426 0)
(0.0894668 -0.0338918 0)
(0.0890909 -0.0324808 0)
(0.0887599 -0.0309532 0)
(0.0884825 -0.0293491 0)
(0.0882643 -0.027704 0)
(0.0881082 -0.0260486 0)
(0.0880146 -0.024409 0)
(0.0879819 -0.0228062 0)
(0.10453 -0.0196578 0)
(0.103866 -0.0225962 0)
(0.103309 -0.0254606 0)
(0.102601 -0.0280787 0)
(0.101927 -0.0304032 0)
(0.101281 -0.0324156 0)
(0.100608 -0.0340868 0)
(0.0998839 -0.0353899 0)
(0.0991061 -0.0363099 0)
(0.0982807 -0.0368454 0)
(0.09742 -0.0370079 0)
(0.0965408 -0.0368208 0)
(0.0956621 -0.0363167 0)
(0.0948028 -0.035535 0)
(0.0939806 -0.0345184 0)
(0.093211 -0.0333109 0)
(0.0925061 -0.0319554 0)
(0.0918754 -0.0304924 0)
(0.0913249 -0.0289587 0)
(0.0908578 -0.027387 0)
(0.0904748 -0.0258056 0)
(0.0901741 -0.0242383 0)
(0.0899525 -0.0227045 0)
(0.115166 -0.0182906 0)
(0.113918 -0.0214023 0)
(0.112724 -0.0243759 0)
(0.111436 -0.0270604 0)
(0.110171 -0.0294104 0)
(0.108926 -0.0314164 0)
(0.107669 -0.0330621 0)
(0.106387 -0.0343324 0)
(0.105084 -0.0352218 0)
(0.103767 -0.0357364 0)
(0.102452 -0.0358927 0)
(0.101154 -0.0357166 0)
(0.0998921 -0.0352417 0)
(0.0986823 -0.0345062 0)
(0.0975404 -0.033551 0)
(0.0964791 -0.0324174 0)
(0.0955084 -0.0311453 0)
(0.094635 -0.029772 0)
(0.0938627 -0.0283314 0)
(0.0931926 -0.0268537 0)
(0.0926233 -0.0253647 0)
(0.0921514 -0.0238865 0)
(0.0917721 -0.0224368 0)
(0.123168 -0.0165864 0)
(0.121584 -0.0198079 0)
(0.119973 -0.0228365 0)
(0.118301 -0.0255512 0)
(0.116632 -0.0279116 0)
(0.114965 -0.0299127 0)
(0.113287 -0.0315462 0)
(0.111598 -0.0328052 0)
(0.109906 -0.0336911 0)
(0.108225 -0.0342146 0)
(0.10657 -0.0343957 0)
(0.104958 -0.0342615 0)
(0.103408 -0.0338452 0)
(0.101934 -0.0331837 0)
(0.100551 -0.0323155 0)
(0.0992686 -0.0312791 0)
(0.0980954 -0.0301114 0)
(0.097036 -0.0288467 0)
(0.0960924 -0.0275162 0)
(0.095264 -0.0261474 0)
(0.0945479 -0.0247643 0)
(0.0939396 -0.023387 0)
(0.0934331 -0.0220322 0)
(0.128722 -0.0147517 0)
(0.127004 -0.0180095 0)
(0.125172 -0.0210353 0)
(0.12329 -0.0237384 0)
(0.121387 -0.0260852 0)
(0.119461 -0.028072 0)
(0.117516 -0.0296951 0)
(0.115563 -0.0309527 0)
(0.113616 -0.0318503 0)
(0.111692 -0.0324016 0)
(0.10981 -0.0326276 0)
(0.107987 -0.0325559 0)
(0.106241 -0.0322183 0)
(0.104586 -0.0316496 0)
(0.103036 -0.0308858 0)
(0.1016 -0.0299622 0)
(0.100284 -0.0289129 0)
(0.0990921 -0.0277691 0)
(0.0980243 -0.0265594 0)
(0.0970792 -0.0253091 0)
(0.096253 -0.0240402 0)
(0.0955404 -0.0227715 0)
(0.0949348 -0.0215184 0)
(0.132166 -0.0129425 0)
(0.130461 -0.016163 0)
(0.128563 -0.019131 0)
(0.126613 -0.0217812 0)
(0.124615 -0.0240868 0)
(0.12257 -0.0260438 0)
(0.120492 -0.0276504 0)
(0.118402 -0.0289074 0)
(0.116318 -0.0298224 0)
(0.114262 -0.0304101 0)
(0.112252 -0.0306917 0)
(0.11031 -0.0306935 0)
(0.108451 -0.0304455 0)
(0.106691 -0.0299799 0)
(0.105041 -0.0293298 0)
(0.103511 -0.0285274 0)
(0.102106 -0.0276035 0)
(0.100828 -0.0265868 0)
(0.0996782 -0.0255033 0)
(0.0986535 -0.024376 0)
(0.0977498 -0.0232254 0)
(0.0969617 -0.0220687 0)
(0.0962824 -0.0209205 0)
(0.13391 -0.0112608 0)
(0.132311 -0.0143797 0)
(0.130459 -0.0172425 0)
(0.128545 -0.0198034 0)
(0.12656 -0.0220412 0)
(0.124504 -0.0239507 0)
(0.122401 -0.02553 0)
(0.120275 -0.0267811 0)
(0.118152 -0.027712 0)
(0.116054 -0.0283374 0)
(0.114002 -0.028677 0)
(0.112017 -0.0287554 0)
(0.110115 -0.0286002 0)
(0.108313 -0.0282407 0)
(0.106621 -0.0277067 0)
(0.105048 -0.0270273 0)
(0.103599 -0.0262303 0)
(0.102276 -0.0253415 0)
(0.10108 -0.0243846 0)
(0.100007 -0.0233807 0)
(0.0990541 -0.0223484 0)
(0.0982153 -0.0213039 0)
(0.0974841 -0.0202609 0)
(0.134365 -0.00976119 0)
(0.132923 -0.0127287 0)
(0.13119 -0.01545 0)
(0.129382 -0.0178928 0)
(0.127483 -0.0200402 0)
(0.125494 -0.0218852 0)
(0.123444 -0.0234251 0)
(0.121361 -0.0246617 0)
(0.119273 -0.0256026 0)
(0.117203 -0.0262612 0)
(0.115174 -0.0266556 0)
(0.113207 -0.0268078 0)
(0.111319 -0.0267427 0)
(0.109525 -0.0264863 0)
(0.107836 -0.0260653 0)
(0.106261 -0.0255057 0)
(0.104805 -0.0248321 0)
(0.103471 -0.0240679 0)
(0.102257 -0.0232342 0)
(0.101163 -0.0223504 0)
(0.100184 -0.0214336 0)
(0.0993151 -0.0204987 0)
(0.0985506 -0.0195585 0)
(0.133908 -0.00846206 0)
(0.132641 -0.011245 0)
(0.131065 -0.0138004 0)
(0.129403 -0.0161052 0)
(0.127635 -0.0181451 0)
(0.125764 -0.0199115 0)
(0.123819 -0.0214004 0)
(0.121833 -0.0226129 0)
(0.119832 -0.0235555 0)
(0.117841 -0.0242398 0)
(0.115883 -0.0246818 0)
(0.113979 -0.0249009 0)
(0.112145 -0.0249188 0)
(0.110397 -0.0247586 0)
(0.108747 -0.0244437 0)
(0.107201 -0.0239967 0)
(0.105767 -0.0234398 0)
(0.104446 -0.0227935 0)
(0.103238 -0.0220769 0)
(0.102143 -0.0213075 0)
(0.101157 -0.0205008 0)
(0.100275 -0.0196708 0)
(0.0994931 -0.0188295 0)
(0.132848 -0.00735775 0)
(0.131755 -0.00993825 0)
(0.13035 -0.012315 0)
(0.128851 -0.0144703 0)
(0.127237 -0.0163917 0)
(0.125511 -0.0180691 0)
(0.123704 -0.0194975 0)
(0.121848 -0.0206768 0)
(0.119968 -0.0216122 0)
(0.118089 -0.0223133 0)
(0.116233 -0.0227938 0)
(0.114421 -0.0230704 0)
(0.112671 -0.0231619 0)
(0.110996 -0.0230883 0)
(0.109408 -0.0228697 0)
(0.107915 -0.0225262 0)
(0.106522 -0.0220767 0)
(0.105234 -0.0215397 0)
(0.10405 -0.0209319 0)
(0.102971 -0.0202693 0)
(0.101992 -0.0195659 0)
(0.101111 -0.0188347 0)
(0.100323 -0.0180869 0)
(0.131431 -0.00642926 0)
(0.130496 -0.00880238 0)
(0.129259 -0.0109969 0)
(0.127925 -0.0129987 0)
(0.126472 -0.0147961 0)
(0.124903 -0.0163783 0)
(0.123249 -0.0177392 0)
(0.121538 -0.0188776 0)
(0.119797 -0.0197973 0)
(0.118048 -0.0205061 0)
(0.116314 -0.0210154 0)
(0.114613 -0.0213393 0)
(0.112963 -0.0214938 0)
(0.111378 -0.0214959 0)
(0.109868 -0.0213628 0)
(0.108443 -0.0211118 0)
(0.107107 -0.0207595 0)
(0.105865 -0.0203217 0)
(0.104718 -0.0198136 0)
(0.103665 -0.0192491 0)
(0.102705 -0.0186412 0)
(0.101835 -0.0180018 0)
(0.101051 -0.0173413 0)
(0.129832 -0.00565201 0)
(0.129036 -0.0078222 0)
(0.127956 -0.0098382 0)
(0.126778 -0.011688 0)
(0.125482 -0.0133607 0)
(0.12407 -0.0148451 0)
(0.122571 -0.0161341 0)
(0.121011 -0.0172259 0)
(0.119415 -0.0181228 0)
(0.117804 -0.0188309 0)
(0.116199 -0.0193596 0)
(0.114619 -0.0197206 0)
(0.113079 -0.0199272 0)
(0.111593 -0.0199938 0)
(0.110171 -0.019935 0)
(0.108822 -0.0197654 0)
(0.107552 -0.0194992 0)
(0.106365 -0.0191504 0)
(0.105263 -0.018732 0)
(0.104245 -0.0182566 0)
(0.103312 -0.017736 0)
(0.102461 -0.0171809 0)
(0.101689 -0.0166011 0)
(0.128175 -0.00500091 0)
(0.127497 -0.00697875 0)
(0.126557 -0.00882476 0)
(0.125522 -0.0105284 0)
(0.124372 -0.0120792 0)
(0.12311 -0.013466 0)
(0.12176 -0.0146813 0)
(0.120348 -0.0157226 0)
(0.118896 -0.016591 0)
(0.117423 -0.0172913 0)
(0.115949 -0.0178308 0)
(0.114491 -0.0182193 0)
(0.113063 -0.0184677 0)
(0.111679 -0.0185881 0)
(0.110349 -0.0185925 0)
(0.109081 -0.0184933 0)
(0.107882 -0.0183026 0)
(0.106755 -0.0180324 0)
(0.105703 -0.017694 0)
(0.104727 -0.0172987 0)
(0.103826 -0.0168569 0)
(0.102999 -0.0163784 0)
(0.102244 -0.0158725 0)
(0.126538 -0.00445307 0)
(0.125958 -0.00625266 0)
(0.125141 -0.0079401 0)
(0.124233 -0.00950589 0)
(0.123216 -0.0109401 0)
(0.122091 -0.0122318 0)
(0.120881 -0.0133735 0)
(0.119609 -0.0143621 0)
(0.118294 -0.015198 0)
(0.116954 -0.0158845 0)
(0.115607 -0.0164277 0)
(0.114268 -0.0168352 0)
(0.112951 -0.0171161 0)
(0.111669 -0.0172802 0)
(0.110431 -0.0173375 0)
(0.109246 -0.0172984 0)
(0.108119 -0.017173 0)
(0.107054 -0.0169714 0)
(0.106055 -0.0167037 0)
(0.105123 -0.0163796 0)
(0.104258 -0.0160084 0)
(0.10346 -0.0155993 0)
(0.102727 -0.0151605 0)
(0.124967 -0.00398904 0)
(0.12447 -0.00562595 0)
(0.123758 -0.00716756 0)
(0.122962 -0.00860526 0)
(0.122063 -0.00992973 0)
(0.121062 -0.0111304 0)
(0.11998 -0.0122001 0)
(0.118837 -0.0131353 0)
(0.117649 -0.0139359 0)
(0.116433 -0.0146043 0)
(0.115206 -0.015145 0)
(0.113981 -0.0155643 0)
(0.112771 -0.0158694 0)
(0.111587 -0.0160683 0)
(0.110439 -0.0161693 0)
(0.109334 -0.0161808 0)
(0.108279 -0.0161112 0)
(0.107278 -0.0159691 0)
(0.106333 -0.0157632 0)
(0.105447 -0.0155019 0)
(0.10462 -0.0151938 0)
(0.103853 -0.0148468 0)
(0.103144 -0.0144687 0)
(0.123488 -0.00359291 0)
(0.123059 -0.00508283 0)
(0.122437 -0.00649166 0)
(0.121737 -0.00781155 0)
(0.120942 -0.00903379 0)
(0.120052 -0.0101485 0)
(0.119085 -0.0111488 0)
(0.118059 -0.0120312 0)
(0.116988 -0.012795 0)
(0.115887 -0.0134419 0)
(0.114771 -0.0139753 0)
(0.113652 -0.0144003 0)
(0.112543 -0.0147226 0)
(0.111452 -0.0149487 0)
(0.11039 -0.015085 0)
(0.109363 -0.0151386 0)
(0.108378 -0.0151163 0)
(0.107438 -0.0150254 0)
(0.106548 -0.0148731 0)
(0.105708 -0.014667 0)
(0.104921 -0.0144146 0)
(0.104186 -0.0141231 0)
(0.103503 -0.0137995 0)
(0.122111 -0.003252 0)
(0.121737 -0.00460992 0)
(0.121193 -0.00589859 0)
(0.120576 -0.00711088 0)
(0.119872 -0.00823871 0)
(0.11908 -0.00927298 0)
(0.118215 -0.0102072 0)
(0.117294 -0.011038 0)
(0.116329 -0.0117645 0)
(0.115333 -0.0123876 0)
(0.114318 -0.0129102 0)
(0.113298 -0.013336 0)
(0.112281 -0.0136696 0)
(0.111279 -0.013916 0)
(0.110297 -0.0140806 0)
(0.109345 -0.0141688 0)
(0.108427 -0.0141863 0)
(0.107547 -0.0141389 0)
(0.106709 -0.0140331 0)
(0.105915 -0.0138751 0)
(0.105167 -0.0136717 0)
(0.104466 -0.0134295 0)
(0.103811 -0.0131547 0)
(0.120836 -0.00295634 0)
(0.12051 -0.00419611 0)
(0.120031 -0.00537644 0)
(0.119486 -0.00649086 0)
(0.118861 -0.00753197 0)
(0.118155 -0.00849146 0)
(0.117381 -0.0093634 0)
(0.116553 -0.0101445 0)
(0.115683 -0.0108338 0)
(0.114781 -0.0114318 0)
(0.11386 -0.0119407 0)
(0.112929 -0.0123634 0)
(0.111999 -0.0127035 0)
(0.111077 -0.0129648 0)
(0.110172 -0.0131515 0)
(0.109289 -0.0132678 0)
(0.108434 -0.0133183 0)
(0.107612 -0.0133079 0)
(0.106825 -0.0132418 0)
(0.106076 -0.0131257 0)
(0.105367 -0.0129653 0)
(0.104699 -0.0127666 0)
(0.104073 -0.0125354 0)
(0.119661 -0.00269811 0)
(0.119374 -0.00383225 0)
(0.118952 -0.00491507 0)
(0.118468 -0.0059407 0)
(0.117911 -0.00690243 0)
(0.117281 -0.00779275 0)
(0.116587 -0.00860627 0)
(0.115843 -0.00933999 0)
(0.115057 -0.00999278 0)
(0.114241 -0.010565 0)
(0.113404 -0.0110583 0)
(0.112555 -0.0114749 0)
(0.111703 -0.0118174 0)
(0.110856 -0.0120889 0)
(0.110021 -0.0122925 0)
(0.109203 -0.0124314 0)
(0.108409 -0.0125092 0)
(0.107641 -0.0125298 0)
(0.106903 -0.0124977 0)
(0.106198 -0.0124177 0)
(0.105527 -0.0122949 0)
(0.104892 -0.0121346 0)
(0.104293 -0.011942 0)
(0.118579 -0.00247114 0)
(0.118325 -0.00351083 0)
(0.117951 -0.0045059 0)
(0.117521 -0.00545109 0)
(0.117024 -0.00634032 0)
(0.116459 -0.00716685 0)
(0.115836 -0.00792587 0)
(0.115166 -0.00861463 0)
(0.114456 -0.00923206 0)
(0.113716 -0.00977839 0)
(0.112955 -0.0102548 0)
(0.11218 -0.0106629 0)
(0.1114 -0.0110048 0)
(0.110622 -0.0112827 0)
(0.109852 -0.0114987 0)
(0.109095 -0.0116554 0)
(0.108356 -0.0117555 0)
(0.107639 -0.0118021 0)
(0.106948 -0.0117988 0)
(0.106285 -0.0117499 0)
(0.105651 -0.0116597 0)
(0.105048 -0.011533 0)
(0.104478 -0.0113747 0)
(0.117582 -0.00227056 0)
(0.117356 -0.00322567 0)
(0.117024 -0.00414176 0)
(0.11664 -0.00501408 0)
(0.116195 -0.00583716 0)
(0.115688 -0.00660501 0)
(0.115128 -0.00731333 0)
(0.114523 -0.00795971 0)
(0.113881 -0.00854316 0)
(0.11321 -0.0090638 0)
(0.112517 -0.00952248 0)
(0.111809 -0.0099205 0)
(0.111095 -0.0102593 0)
(0.11038 -0.0105404 0)
(0.109669 -0.0107653 0)
(0.108968 -0.0109358 0)
(0.108282 -0.0110538 0)
(0.107613 -0.0111219 0)
(0.106966 -0.0111429 0)
(0.106342 -0.0111206 0)
(0.105744 -0.0110587 0)
(0.105173 -0.0109615 0)
(0.10463 -0.0108333 0)
(0.116662 -0.00209241 0)
(0.116461 -0.00297169 0)
(0.116165 -0.0038166 0)
(0.115821 -0.00462289 0)
(0.115422 -0.00538565 0)
(0.114966 -0.00609957 0)
(0.114461 -0.00676088 0)
(0.113915 -0.00736746 0)
(0.113333 -0.00791846 0)
(0.112723 -0.00841395 0)
(0.112091 -0.00885457 0)
(0.111445 -0.00924126 0)
(0.11079 -0.00957501 0)
(0.110132 -0.00985678 0)
(0.109477 -0.0100875 0)
(0.108828 -0.0102683 0)
(0.10819 -0.0104006 0)
(0.107567 -0.0104863 0)
(0.106961 -0.0105278 0)
(0.106375 -0.010528 0)
(0.105811 -0.0104905 0)
(0.10527 -0.010419 0)
(0.104754 -0.0103175 0)
(0.115814 -0.00193352 0)
(0.115634 -0.00274466 0)
(0.115368 -0.00352535 0)
(0.11506 -0.00427176 0)
(0.114701 -0.00497952 0)
(0.11429 -0.00564392 0)