/*--------------------------------*- C++ -*----------------------------------*\
| =========                 |                                                 |
| \\      /  F ield         | OpenFOAM: The Open Source CFD Toolbox           |
|  \\    /   O peration     | Version:  2412                                  |
|   \\  /    A nd           | Website:  www.openfoam.com                      |
|    \\/     M anipulation  |                                                 |
\*---------------------------------------------------------------------------*/
FoamFile
{
    version     2.0;
    format      ascii;
    arch        "LSB;label=32;scalar=64";
    class       volVectorField;
    location    "13.5";
    object      vorticity;
}
// * * * * * * * * * * * * * * * * * * * * * * * * * * * * * * * * * * * * * //

dimensions      [0 0 -1 0 0 0 0];

internalField   nonuniform List<vector> 
5285
(
(5.22494e-22 3.59784e-21 -0.00778246)
(-4.01435e-22 4.85499e-24 -0.00691946)
(3.8463e-22 4.23952e-21 -0.00611437)
(-8.96319e-23 3.62461e-24 -0.00537023)
(-5.25499e-23 1.14932e-25 -0.00468881)
(9.54813e-24 1.03693e-24 -0.00407027)
(2.07604e-22 5.14402e-21 -0.00351347)
(2.53572e-24 -3.0945e-24 -0.00301625)
(-1.8336e-22 -5.52462e-21 -0.00257571)
(1.75313e-22 5.70109e-21 -0.00218838)
(-2.31293e-22 -5.84378e-21 -0.00185038)
(8.36341e-22 5.46014e-20 -0.00155759)
(-7.45532e-22 -5.49106e-20 -0.00130574)
(-3.22392e-22 -4.44125e-20 -0.00109058)
(7.54455e-22 9.62058e-20 -0.000907948)
(-4.18254e-22 -5.19017e-20 -0.000753833)
(-6.34399e-23 -6.62926e-21 -0.000624472)
(5.94599e-23 6.75702e-21 -0.00051638)
(-2.57887e-23 -2.41188e-25 -0.000426386)
(1.12787e-22 6.93416e-21 -0.000351647)
(-2.02833e-22 -3.52523e-20 -0.000289653)
(1.88975e-22 3.54065e-20 -0.000238221)
(-4.89324e-23 -7.1894e-21 -0.000195476)
(1.12429e-22 2.18187e-20 -0.000159827)
(6.26486e-24 -7.27342e-21 -0.000129935)
(-7.14108e-23 -1.47989e-20 -0.000104669)
(2.04566e-23 7.42823e-21 -8.30605e-05)
(-4.51256e-23 -7.51184e-21 -6.42839e-05)
(2.4731e-20 2.38491e-19 -0.0228626)
(-2.73073e-20 -2.57873e-19 -0.0203153)
(2.40135e-20 2.77067e-19 -0.0179412)
(-1.28252e-20 -1.33567e-19 -0.0157496)
(-2.23276e-20 -3.04218e-19 -0.0137445)
(1.08658e-20 1.55704e-19 -0.0119259)
(-2.08001e-22 -5.15431e-21 -0.01029)
(-6.88301e-22 -1.08017e-20 -0.00883011)
(9.73364e-23 5.53961e-21 -0.00753747)
(-8.37981e-22 -1.71461e-20 -0.00640159)
(6.5732e-21 1.8463e-19 -0.00541087)
(-1.36568e-20 -3.9251e-19 -0.00455301)
(6.07093e-21 1.89692e-19 -0.00381542)
(-7.00538e-22 -1.90421e-20 -0.00318549)
(2.16995e-22 6.43867e-21 -0.00265093)
(-1.75969e-23 -3.92499e-23 -0.00219997)
(-2.51694e-21 -1.1395e-19 -0.00182154)
(2.14004e-21 1.00798e-19 -0.0015054)
(1.51521e-21 9.65213e-20 -0.00124225)
(-2.22292e-21 -1.31397e-19 -0.00102375)
(5.80123e-23 7.06838e-21 -0.000842542)
(4.34371e-22 3.57543e-20 -0.000692235)
(-9.51393e-22 -6.44083e-20 -0.000567336)
(-1.76647e-23 -7.24276e-21 -0.000463191)
(-5.77123e-22 -5.13186e-20 -0.000375875)
(-1.17914e-22 -7.56814e-21 -0.000302065)
(1.45103e-22 1.47458e-20 -0.000238873)
(1.70013e-22 2.24384e-20 -0.000183718)
(-4.32e-20 -2.52624e-19 -0.0365699)
(4.58155e-20 2.67194e-19 -0.0324571)
(1.29236e-21 9.46682e-21 -0.0286327)
(-1.32255e-21 -9.42201e-21 -0.0251084)
(1.20677e-21 9.848e-21 -0.0218898)
(-3.22842e-20 -3.21059e-19 -0.018975)
(3.38427e-20 3.31674e-19 -0.0163569)
(-2.76249e-20 -3.33228e-19 -0.0140236)
(2.95499e-20 3.55733e-19 -0.01196)
(6.55881e-22 1.16205e-20 -0.0101486)
(2.35344e-20 3.8541e-19 -0.00857032)
(-4.49123e-20 -7.68721e-19 -0.00720497)
(2.23229e-20 4.08011e-19 -0.00603205)
(1.01282e-20 2.17872e-19 -0.00503117)
(-8.95753e-21 -1.92732e-19 -0.00418248)
(2.37599e-22 6.75517e-23 -0.00346704)
(-3.42103e-22 -4.96826e-23 -0.00286708)
(-2.58041e-23 5.66513e-23 -0.00236622)
(6.18803e-21 2.21134e-19 -0.00194957)
(-6.005e-21 -2.07663e-19 -0.00160382)
(4.57375e-22 1.41466e-20 -0.00131725)
(-2.0691e-22 -1.18858e-23 -0.00107967)
(2.20703e-21 1.15235e-19 -0.000882343)
(-4.10015e-21 -2.17245e-19 -0.000717877)
(2.02273e-21 1.16455e-19 -0.000580026)
(-1.01479e-21 -5.90979e-20 -0.000463477)
(7.6169e-22 4.42481e-20 -0.000363485)
(1.82422e-22 1.48347e-20 -0.000275425)
(4.44756e-22 -1.55331e-23 -0.0482446)
(5.96347e-22 8.96952e-21 -0.0427417)
(1.48282e-21 3.1026e-22 -0.0376422)
(1.43377e-21 9.77855e-21 -0.032956)
(-1.01309e-19 -6.68338e-19 -0.0286863)
(1.00438e-19 6.58448e-19 -0.0248286)
(-1.34933e-22 1.79041e-22 -0.0213708)
(-4.07013e-20 -3.63429e-19 -0.0182952)
(4.25659e-20 3.75497e-19 -0.0155801)
(6.77132e-23 -4.54558e-23 -0.0132009)
(-1.91218e-22 -2.56967e-22 -0.0111311)
(-3.16397e-20 -4.12519e-19 -0.0093432)
(5.98573e-20 8.21304e-19 -0.00780947)
(-5.41048e-20 -8.23581e-19 -0.00650245)
(5.02463e-20 8.37482e-19 -0.0053956)
(-4.6209e-20 -8.50358e-19 -0.00446369)
(2.20162e-20 4.28538e-19 -0.00368315)
(9.32075e-21 2.19431e-19 -0.00303228)
(-8.21609e-21 -1.92135e-19 -0.00249146)
(-6.45983e-22 -1.39807e-20 -0.00204315)
(-7.27245e-21 -2.26419e-19 -0.00167197)
(1.51398e-20 4.83686e-19 -0.00136454)
(-6.93973e-21 -2.28793e-19 -0.00110946)
(8.36001e-23 7.29653e-23 -0.000897032)
(2.96061e-22 1.45566e-20 -0.000719113)
(-7.91857e-23 -2.97302e-23 -0.000568691)
(-2.63581e-22 -1.47492e-20 -0.000439283)
(5.71502e-22 2.97038e-20 -0.000323799)
(-1.5057e-19 -6.207e-19 -0.0508504)
(1.46817e-19 5.99548e-19 -0.0446814)
(-1.07708e-21 1.01038e-21 -0.0390316)
(1.00819e-21 -2.02103e-24 -0.0339004)
(-1.98607e-21 -1.06675e-20 -0.0292779)
(-1.12075e-19 -7.29648e-19 -0.0251461)
(1.10637e-19 7.17524e-19 -0.0214807)
(-1.46989e-21 -1.17146e-20 -0.0182529)
(-4.36768e-20 -3.80161e-19 -0.015431)
(4.64474e-20 4.04569e-19 -0.0129816)
(-2.64349e-22 -5.82065e-23 -0.0108702)
(5.18614e-22 1.24771e-22 -0.00906269)
(-1.73169e-22 -9.96076e-23 -0.00752537)
(-2.99351e-20 -4.26777e-19 -0.00622598)
(3.10386e-20 4.40197e-19 -0.00513401)
(-2.48284e-20 -4.23899e-19 -0.00422109)
(2.58869e-20 4.37255e-19 -0.00346122)
(-1.53797e-21 -2.78587e-20 -0.00283095)
(5.19606e-22 1.39875e-20 -0.00230942)
(1.83407e-22 4.67118e-23 -0.00187837)
(-4.72732e-22 -1.42128e-20 -0.00152197)
(4.56225e-22 1.43053e-20 -0.00122676)
(-4.16768e-21 -1.30226e-19 -0.000981322)
(7.18026e-21 2.32264e-19 -0.000776062)
(-5.13035e-21 -1.75042e-19 -0.000602653)
(1.60278e-21 5.85403e-20 -0.000453049)
(7.52404e-23 2.1229e-23 -0.000317247)
(1.80733e-19 6.53304e-19 -0.056749)
(-1.83657e-19 -6.48666e-19 -0.0497193)
(-1.63434e-19 -7.00578e-19 -0.0433086)
(1.61347e-19 6.85147e-19 -0.0375063)
(-8.7019e-22 7.38492e-22 -0.0322979)
(7.89184e-22 -1.47863e-22 -0.0276585)
(1.26638e-19 7.75995e-19 -0.0235562)
(-8.65297e-21 1.79501e-20 -0.019955)
(-1.21236e-19 -8.15601e-19 -0.0168161)
(-1.0309e-19 -8.33649e-19 -0.0140995)
(1.93157e-19 1.64e-18 -0.0117644)
(-5.14897e-20 -4.22544e-19 -0.00977091)
(-4.4515e-20 -4.3528e-19 -0.00808)
(-3.92256e-20 -4.59785e-19 -0.00665461)
(6.94867e-20 8.56224e-19 -0.00545995)
(-6.59152e-20 -8.92429e-19 -0.00446383)
(1.41243e-21 -1.83353e-20 -0.00363691)
(2.84935e-20 4.44649e-19 -0.00295288)
(2.43517e-20 4.51952e-19 -0.00238841)
(-3.6966e-20 -7.07049e-19 -0.00192314)
(2.07854e-20 4.41611e-19 -0.00153954)
(-1.10333e-20 -2.4271e-19 -0.00122268)
(9.50128e-21 2.45435e-19 -0.000960019)
(-9.40804e-21 -2.4506e-19 -0.000740968)
(4.28381e-22 1.45144e-20 -0.000556319)
(-2.26267e-21 -7.29858e-20 -0.000396739)
(9.18585e-22 2.90737e-20 -0.000248827)
(-2.23761e-19 -6.79938e-19 -0.0585506)
(2.21097e-21 -1.94023e-21 -0.0511654)
(8.23716e-22 -1.46093e-23 -0.044453)
(1.72563e-21 1.21159e-20 -0.038395)
(-1.70658e-19 -7.76983e-19 -0.0329711)
(1.70422e-19 7.72923e-19 -0.0281532)
(-3.50549e-22 5.79309e-22 -0.0239049)
(9.11464e-23 -1.69203e-24 -0.0201857)
(1.99168e-21 1.28482e-20 -0.0169526)
(-1.16806e-19 -8.31356e-19 -0.0141617)
(2.29409e-19 1.70896e-18 -0.0117692)
(-1.0911e-19 -8.51466e-19 -0.00973181)
(1.34725e-21 1.34772e-20 -0.00800819)
(1.20848e-21 1.36567e-20 -0.006559)
(3.94878e-20 4.43544e-19 -0.00534752)
(-7.43993e-20 -8.74927e-19 -0.00433999)
(3.70296e-20 4.59116e-19 -0.00350578)
(-2.95901e-20 -4.38007e-19 -0.0028175)
(2.37791e-21 -3.74723e-21 -0.00225099)
(2.79043e-21 1.0676e-20 -0.00178524)
(2.66488e-20 4.68708e-19 -0.0014022)
(1.17025e-20 2.43822e-19 -0.00108659)
(-1.16115e-20 -2.4314e-19 -0.000825569)
(5.45745e-22 1.43872e-20 -0.000608392)
(4.39434e-21 1.15598e-19 -0.000425686)
(-3.89071e-21 -1.00786e-19 -0.000267641)
(4.58395e-22 1.44481e-20 -0.000115814)
(0 7.48482e-25 -3.77748e-05)
(0 -0 -2.65236e-05)
(0 -0 -1.71227e-05)
(0 -0 -9.26426e-06)
(0 -0 -2.6707e-06)
(0 -0 2.91628e-06)
(0 -0 7.7402e-06)
(0 -0 1.20332e-05)
(0 -0 1.60188e-05)
(0 -0 1.99128e-05)
(0 -0 2.39183e-05)
(0 -0 2.82153e-05)
(0 -0 3.29406e-05)
(0 -0 3.81616e-05)
(0 -0 4.38448e-05)
(0 -0 4.98276e-05)
(0 -0 5.58035e-05)
(0 -0 6.133e-05)
(0 -0 6.58692e-05)
(0 -0 6.8862e-05)
(0 -0 6.98253e-05)
(0 -0 6.84547e-05)
(0 -0 6.47039e-05)
(0 -0 5.88175e-05)
(0 -0 5.13037e-05)
(0 -0 4.28487e-05)
(0 -0 3.41958e-05)
(0 -0 2.602e-05)
(0 -0 1.88297e-05)
(0 -0 1.29175e-05)
(0 -0 8.36192e-06)
(0 -0 5.07045e-06)
(0 -0 2.84332e-06)
(0 -0 1.43761e-06)
(0 -0 6.17359e-07)
(0 -0 1.83807e-07)
(0 -0 -1.31767e-08)
(0 -0 -7.69224e-08)
(0 -0 -7.27918e-08)
(0 -0 -3.89174e-08)
(0 -0 4.2883e-09)
(0 -0 4.69642e-08)
(0 -0 8.47952e-08)
(0 -0 1.18777e-07)
(0 -2.33331e-24 -0.000107098)
(0 -0 -7.46657e-05)
(0 -0 -4.7651e-05)
(0 -0 -2.51362e-05)
(0 -0 -6.28705e-06)
(0 -0 9.66858e-06)
(0 -0 2.34522e-05)
(0 -0 3.57463e-05)
(0 -0 4.72043e-05)
(0 -0 5.84542e-05)
(0 -0 7.00872e-05)
(0 -0 8.2625e-05)
(0 -0 9.64643e-05)
(0 -0 0.000111797)
(0 -0 0.000128519)
(0 -0 0.000146147)
(0 -0 0.000163773)
(0 -0 0.000180089)
(0 -0 0.000193505)
(0 -0 0.00020237)
(0 -0 0.000205256)
(0 -0 0.00020126)
(0 -0 0.000190242)
(0 -0 0.000172923)
(0 -0 0.000150798)
(0 -0 0.000125893)
(0 -0 0.000100398)
(0 -0 7.63075e-05)
(0 -0 5.51217e-05)
(0 -0 3.77051e-05)
(0 -0 2.42904e-05)
(0 -0 1.4605e-05)
(0 -0 8.05975e-06)
(0 -0 3.93765e-06)
(0 -0 1.54224e-06)
(0 -0 2.8671e-07)
(0 -0 -2.72143e-07)
(0 -0 -4.39277e-07)
(0 -0 -4.07458e-07)
(0 -0 -2.88948e-07)
(0 -0 -1.43782e-07)
(0 -0 -1.00126e-09)
(0 -0 1.26452e-07)
(0 -0 2.41669e-07)
(0 -1.66026e-24 -0.000157172)
(0 -0 -0.000107485)
(0 -0 -6.63758e-05)
(0 -0 -3.23089e-05)
(0 -0 -3.89311e-06)
(0 -0 2.0134e-05)
(0 -0 4.09291e-05)
(0 -0 5.95704e-05)
(0 -0 7.70833e-05)
(0 -0 9.44502e-05)
(0 -0 0.000112596)
(0 -0 0.000132338)
(0 -0 0.000154295)
(0 -0 0.000178761)
(0 -0 0.000205557)
(0 -0 0.000233896)
(0 -0 0.000262305)
(0 -0 0.000288668)
(0 -0 0.000310415)
(0 -0 0.000324868)
(0 -0 0.000329713)
(0 -0 0.000323478)
(0 -0 0.000305921)
(0 -0 0.000278188)
(0 -0 0.00024268)
(0 -0 0.000202655)
(0 -0 0.000161647)
(0 -0 0.000122871)
(0 -0 8.87539e-05)
(0 -0 6.06969e-05)
(0 -0 3.90817e-05)
(0 -0 2.34746e-05)
(0 -0 1.2929e-05)
(0 -0 6.29071e-06)
(0 -0 2.43743e-06)
(0 -0 4.22833e-07)
(0 -0 -4.68159e-07)
(0 -0 -7.27707e-07)
(0 -0 -6.6692e-07)
(0 -0 -4.66949e-07)
(0 -0 -2.24681e-07)
(0 -0 1.30228e-08)
(0 -0 2.2522e-07)
(0 -0 4.17362e-07)
(0 -2.43598e-24 -0.000177222)
(0 -0 -0.000116655)
(0 -0 -6.71404e-05)
(0 -0 -2.64589e-05)
(0 -0 7.32639e-06)
(0 -0 3.58974e-05)
(0 -0 6.07474e-05)
(0 -0 8.32449e-05)
(0 -0 0.000104683)
(0 -0 0.000126303)
(0 -0 0.000149278)
(0 -0 0.000174646)
(0 -0 0.000203193)
(0 -0 0.000235283)
(0 -0 0.000270655)
(0 -0 0.000308243)
(0 -0 0.000346073)
(0 -0 0.000381313)
(0 -0 0.00041052)
(0 -0 0.000430104)
(0 -0 0.000436953)
(0 -0 0.000429073)
(0 -0 0.000406109)
(0 -0 0.000369555)
(0 -0 0.000322588)
(0 -0 0.000269533)
(0 -0 0.000215097)
(0 -0 0.000163569)
(0 -0 0.000118195)
(0 -0 8.0858e-05)
(0 -0 5.20802e-05)
(0 -0 3.12956e-05)
(0 -0 1.72506e-05)
(0 -0 8.41186e-06)
(0 -0 3.28567e-06)
(0 -0 6.11194e-07)
(0 -0 -5.65055e-07)
(0 -0 -8.99724e-07)
(0 -0 -8.08045e-07)
(0 -0 -5.31771e-07)
(0 -0 -2.00155e-07)
(0 -0 1.24309e-07)
(0 -0 4.13609e-07)
(0 -0 6.76102e-07)
(0 1.878e-25 -0.000159708)
(0 -0 -9.6987e-05)
(0 -0 -4.66267e-05)
(0 -0 -5.64091e-06)
(0 -0 2.83297e-05)
(0 -0 5.71938e-05)
(0 -0 8.25905e-05)
(0 -0 0.000106009)
(0 -0 0.000128864)
(0 -0 0.00015253)
(0 -0 0.000178318)
(0 -0 0.0002074)
(0 -0 0.000240663)
(0 -0 0.000278497)
(0 -0 0.000320559)
(0 -0 0.000365543)
(0 -0 0.000411055)
(0 -0 0.000453663)
(0 -0 0.000489198)
(0 -0 0.000513306)
(0 -0 0.000522191)
(0 -0 0.000513404)
(0 -0 0.00048646)
(0 -0 0.000443108)
(0 -0 0.000387133)
(0 -0 0.000323719)
(0 -0 0.000258524)
(0 -0 0.000196722)
(0 -0 0.000142241)
(0 -0 9.73707e-05)
(0 -0 6.27645e-05)
(0 -0 3.77596e-05)
(0 -0 2.08603e-05)
(0 -0 1.02279e-05)
(0 -0 4.06723e-06)
(0 -0 8.60802e-07)
(0 -0 -5.40249e-07)
(0 -0 -9.27715e-07)
(0 -0 -8.02542e-07)
(0 -0 -4.56462e-07)
(0 -0 -4.54111e-08)
(0 -0 3.55316e-07)
(0 -0 7.11983e-07)
(0 -0 1.03615e-06)
(0 -1.98394e-24 -0.000101884)
(0 -0 -4.81739e-05)
(0 -0 -5.69973e-06)
(0 -0 2.88383e-05)
(0 -0 5.771e-05)
(0 -0 8.26481e-05)
(0 -0 0.000105147)
(0 -0 0.000126603)
(0 -0 0.00014839)
(0 -0 0.000171879)
(0 -0 0.000198411)
(0 -0 0.000229199)
(0 -0 0.000265162)
(0 -0 0.000306685)
(0 -0 0.000353342)
(0 -0 0.000403635)
(0 -0 0.000454847)
(0 -0 0.000503091)
(0 -0 0.000543637)
(0 -0 0.000571537)
(0 -0 0.000582454)
(0 -0 0.000573558)
(0 -0 0.000544224)
(0 -0 0.000496349)
(0 -0 0.000434139)
(0 -0 0.000363396)
(0 -0 0.00029048)
(0 -0 0.000221231)
(0 -0 0.000160098)
(0 -0 0.000109693)
(0 -0 7.07863e-05)
(0 -0 4.26587e-05)
(0 -0 2.3645e-05)
(0 -0 1.1686e-05)
(0 -0 4.76497e-06)
(0 -0 1.17376e-06)
(0 -0 -3.82469e-07)
(0 -0 -7.96988e-07)
(0 -0 -6.35307e-07)
(0 -0 -2.26888e-07)
(0 -0 2.52238e-07)
(0 -0 7.17207e-07)
(0 -0 1.13004e-06)
(0 -0 1.50591e-06)
(0 -6.98769e-25 -9.3975e-06)
(0 -0 2.23768e-05)
(0 -0 4.9303e-05)
(0 -0 7.19185e-05)
(0 -0 9.16094e-05)
(0 -0 0.000109356)
(0 -0 0.000126246)
(0 -0 0.000143416)
(0 -0 0.000162066)
(0 -0 0.00018346)
(0 -0 0.000208875)
(0 -0 0.000239494)
(0 -0 0.000276213)
(0 -0 0.000319384)
(0 -0 0.000368508)
(0 -0 0.000421957)
(0 -0 0.000476796)
(0 -0 0.000528836)
(0 -0 0.000572972)
(0 -0 0.000603842)
(0 -0 0.000616726)
(0 -0 0.000608496)
(0 -0 0.000578382)
(0 -0 0.000528323)
(0 -0 0.000462749)
(0 -0 0.00038783)
(0 -0 0.000310367)
(0 -0 0.000236629)
(0 -0 0.000171421)
(0 -0 0.000117583)
(0 -0 7.59853e-05)
(0 -0 4.58926e-05)
(0 -0 2.55461e-05)
(0 -0 1.27542e-05)
(0 -0 5.36252e-06)
(0 -0 1.54219e-06)
(0 -0 -9.55827e-08)
(0 -0 -5.10004e-07)
(0 -0 -3.08795e-07)
(0 -0 1.53902e-07)
(0 -0 6.8898e-07)
(0 -0 1.20545e-06)
(0 -0 1.66258e-06)
(0 -0 2.07921e-06)
(0 -0 8.49285e-05)
(0 -0 9.84763e-05)
(0 -0 0.000108691)
(0 -0 0.000117483)
(0 -0 0.000125819)
(0 -0 0.000134478)
(0 -0 0.00014402)
(0 -0 0.000155286)
(0 -0 0.000169252)
(0 -0 0.00018702)
(0 -0 0.000209749)
(0 -0 0.00023854)
(0 -0 0.00027423)
(0 -0 0.000317126)
(0 -0 0.000366681)
(0 -0 0.000421194)
(0 -0 0.000477629)
(0 -0 0.000531645)
(0 -0 0.000577945)
(0 -0 0.000610943)
(0 -0 0.000625682)
(0 -0 0.000618828)
(0 -0 0.000589463)
(0 -0 0.000539467)
(0 -0 0.000473305)
(0 -0 0.000397272)
(0 -0 0.000318354)
(0 -0 0.00024302)
(0 -0 0.000176261)
(0 -0 0.000121057)
(0 -0 7.83542e-05)
(0 -0 4.74421e-05)
(0 -0 2.65402e-05)
(0 -0 1.34098e-05)
(0 -0 5.84048e-06)
(0 -0 1.95066e-06)
(0 -0 3.0885e-07)
(0 -0 -7.49635e-08)
(0 -0 1.71497e-07)
(0 -0 6.82433e-07)
(0 -0 1.26273e-06)
(0 -0 1.81889e-06)
(0 -0 2.30909e-06)
(0 -0 2.75565e-06)
(0 -0 0.000176203)
(0 -0 0.00016733)
(0 -0 0.000160743)
(0 -0 0.000155899)
(0 -0 0.000153262)
(0 -0 0.000152835)
(0 -0 0.000154802)
(0 -0 0.000159739)
(0 -0 0.000168417)
(0 -0 0.000181773)
(0 -0 0.000200836)
(0 -0 0.000226605)
(0 -0 0.000259849)
(0 -0 0.000300831)
(0 -0 0.000348986)
(0 -0 0.000402616)
(0 -0 0.000458698)
(0 -0 0.000512902)
(0 -0 0.000559924)
(0 -0 0.000594144)
(0 -0 0.000610533)
(0 -0 0.000605645)
(0 -0 0.000578423)
(0 -0 0.000530594)
(0 -0 0.000466483)
(0 -0 0.00039227)
(0 -0 0.000314871)
(0 -0 0.000240735)
(0 -0 0.000174867)
(0 -0 0.000120292)
(0 -0 7.80178e-05)
(0 -0 4.73892e-05)
(0 -0 2.66758e-05)
(0 -0 1.36757e-05)
(0 -0 6.20257e-06)
(0 -0 2.38896e-06)
(0 -0 8.10693e-07)
(0 -0 4.81153e-07)
(0 -0 7.7406e-07)
(0 -0 1.32438e-06)
(0 -0 1.93761e-06)
(0 -0 2.52088e-06)
(0 -0 3.03268e-06)
(0 -0 3.49919e-06)
(0 -0 0.000230428)
(0 -0 0.000211366)
(0 -0 0.000194359)
(0 -0 0.000180065)
(0 -0 0.000169059)
(0 -0 0.000161282)
(0 -0 0.000156799)
(0 -0 0.000156065)
(0 -0 0.000159729)
(0 -0 0.000168611)
(0 -0 0.000183631)
(0 -0 0.000205699)
(0 -0 0.00023552)
(0 -0 0.000273332)
(0 -0 0.000318591)
(0 -0 0.000369673)
(0 -0 0.000423675)
(0 -0 0.000476426)
(0 -0 0.00052279)
(0 -0 0.000557288)
(0 -0 0.000574973)
(0 -0 0.000572387)
(0 -0 0.000548354)
(0 -0 0.000504382)
(0 -0 0.000444504)
(0 -0 0.000374587)
(0 -0 0.000301254)
(0 -0 0.000230728)
(0 -0 0.000167879)
(0 -0 0.00011569)
(0 -0 7.51988e-05)
(0 -0 4.58358e-05)
(0 -0 2.59779e-05)
(0 -0 1.35313e-05)
(0 -0 6.4034e-06)
(0 -0 2.79967e-06)
(0 -0 1.34771e-06)
(0 -0 1.09492e-06)
(0 -0 1.43589e-06)
(0 -0 2.01772e-06)
(0 -0 2.65259e-06)
(0 -0 3.25131e-06)
(0 -0 3.77399e-06)
(0 -0 4.25178e-06)
(0 -0 0.000252244)
(0 -0 0.000229238)
(0 -0 0.000207337)
(0 -0 0.000187838)
(0 -0 0.000171698)
(0 -0 0.00015901)
(0 -0 0.000149883)
(0 -0 0.000144768)
(0 -0 0.000144274)
(0 -0 0.000149154)
(0 -0 0.000160255)
(0 -0 0.000178418)
(0 -0 0.0002043)
(0 -0 0.000238135)
(0 -0 0.000279438)
(0 -0 0.000326717)
(0 -0 0.000377282)
(0 -0 0.00042724)
(0 -0 0.000471764)
(0 -0 0.000505668)
(0 -0 0.000524217)
(0 -0 0.00052403)
(0 -0 0.000503844)
(0 -0 0.000464903)
(0 -0 0.000410844)
(0 -0 0.000347062)
(0 -0 0.000279718)
(0 -0 0.000214648)
(0 -0 0.000156461)
(0 -0 0.00010802)
(0 -0 7.03705e-05)
(0 -0 4.30441e-05)
(0 -0 2.45675e-05)
(0 -0 1.30089e-05)
(0 -0 6.4235e-06)
(0 -0 3.13548e-06)
(0 -0 1.85932e-06)
(0 -0 1.70069e-06)
(0 -0 2.09058e-06)
(0 -0 2.69722e-06)
(0 -0 3.34443e-06)
(0 -0 3.94909e-06)
(0 -0 4.47402e-06)
(0 -0 4.95598e-06)
(0 -0 0.000248781)
(0 -0 0.000225437)
(0 -0 0.000202292)
(0 -0 0.000180914)
(0 -0 0.000162494)
(0 -0 0.000147261)
(0 -0 0.000135401)
(0 -0 0.000127401)
(0 -0 0.00012387)
(0 -0 0.000125527)
(0 -0 0.000133169)
(0 -0 0.000147584)
(0 -0 0.000169398)
(0 -0 0.000198859)
(0 -0 0.000235566)
(0 -0 0.000278207)
(0 -0 0.000324371)
(0 -0 0.000370529)
(0 -0 0.000412272)
(0 -0 0.000444817)
(0 -0 0.000463748)
(0 -0 0.00046584)
(0 -0 0.000449773)
(0 -0 0.000416513)
(0 -0 0.000369236)
(0 -0 0.000312762)
(0 -0 0.000252669)
(0 -0 0.00019429)
(0 -0 0.000141881)
(0 -0 9.8127e-05)
(0 -0 6.40568e-05)
(0 -0 3.93077e-05)
(0 -0 2.25831e-05)
(0 -0 1.21496e-05)
(0 -0 6.24667e-06)
(0 -0 3.34942e-06)
(0 -0 2.28386e-06)
(0 -0 2.23128e-06)
(0 -0 2.67011e-06)
(0 -0 3.29625e-06)
(0 -0 3.94873e-06)
(0 -0 4.55228e-06)
(0 -0 5.07309e-06)
(0 -0 5.55399e-06)
(0 -0 0.000227894)
(0 -0 0.000206242)
(0 -0 0.000184096)
(0 -0 0.000163087)
(0 -0 0.000144502)
(0 -0 0.000128625)
(0 -0 0.000115681)
(0 -0 0.000106186)
(0 -0 0.000100745)
(0 -0 0.000100054)
(0 -0 0.000104865)
(0 -0 0.000115923)
(0 -0 0.000133829)
(0 -0 0.000158854)
(0 -0 0.0001907)
(0 -0 0.000228258)
(0 -0 0.000269434)
(0 -0 0.000311122)
(0 -0 0.000349397)
(0 -0 0.000379956)
(0 -0 0.000398774)
(0 -0 0.000402845)
(0 -0 0.000390828)
(0 -0 0.000363419)
(0 -0 0.000323303)
(0 -0 0.000274675)
(0 -0 0.00022246)
(0 -0 0.000171421)
(0 -0 0.000125398)
(0 -0 8.68544e-05)
(0 -0 5.67829e-05)
(0 -0 3.49241e-05)
(0 -0 2.0169e-05)
(0 -0 1.10008e-05)
(0 -0 5.86344e-06)
(0 -0 3.40132e-06)
(0 -0 2.56649e-06)
(0 -0 2.62626e-06)
(0 -0 3.11321e-06)
(0 -0 3.75497e-06)
(0 -0 4.40792e-06)
(0 -0 5.00573e-06)
(0 -0 5.51838e-06)
(0 -0 5.99497e-06)
(0 -0 0.000196885)
(0 -0 0.000177958)
(0 -0 0.000158048)
(0 -0 0.000138761)
(0 -0 0.000121386)
(0 -0 0.000106194)
(0 -0 9.34033e-05)
(0 -0 8.35253e-05)
(0 -0 7.71469e-05)
(0 -0 7.49272e-05)
(0 -0 7.75728e-05)
(0 -0 8.57801e-05)
(0 -0 0.000100127)
(0 -0 0.000120908)
(0 -0 0.000147929)
(0 -0 0.000180292)
(0 -0 0.000216237)
(0 -0 0.000253099)
(0 -0 0.000287471)
(0 -0 0.000315571)
(0 -0 0.000333808)
(0 -0 0.000339435)
(0 -0 0.000331132)
(0 -0 0.000309343)
(0 -0 0.000276271)
(0 -0 0.000235478)
(0 -0 0.000191214)
(0 -0 0.000147641)
(0 -0 0.000108155)
(0 -0 7.49744e-05)
(0 -0 4.90357e-05)
(0 -0 3.01743e-05)
(0 -0 1.74666e-05)
(0 -0 9.61526e-06)
(0 -0 5.27444e-06)
(0 -0 3.26356e-06)
(0 -0 2.66606e-06)
(0 -0 2.8393e-06)
(0 -0 3.37277e-06)
(0 -0 4.02753e-06)
(0 -0 4.67823e-06)
(0 -0 5.26788e-06)
(0 -0 5.77046e-06)
(0 -0 6.2413e-06)
(0 -0 0.000161796)
(0 -0 0.000145971)
(0 -0 0.00012885)
(0 -0 0.000111968)
(0 -0 9.657e-05)
(0 -0 8.28726e-05)
(0 -0 7.10498e-05)
(0 -0 6.15795e-05)
(0 -0 5.50075e-05)
(0 -0 5.1943e-05)
(0 -0 5.30352e-05)
(0 -0 5.89267e-05)
(0 -0 7.01641e-05)
(0 -0 8.70606e-05)
(0 -0 0.000109518)
(0 -0 0.000136843)
(0 -0 0.000167597)
(0 -0 0.000199555)
(0 -0 0.000229825)
(0 -0 0.000255152)
(0 -0 0.000272399)
(0 -0 0.000279102)
(0 -0 0.000273991)
(0 -0 0.000257297)
(0 -0 0.000230771)
(0 -0 0.000197369)
(0 -0 0.000160685)
(0 -0 0.000124284)
(0 -0 9.11162e-05)
(0 -0 6.31436e-05)
(0 -0 4.12352e-05)
(0 -0 2.53065e-05)
(0 -0 1.46072e-05)
(0 -0 8.05003e-06)
(0 -0 4.49253e-06)
(0 -0 2.92503e-06)
(0 -0 2.55994e-06)
(0 -0 2.84334e-06)
(0 -0 3.42101e-06)
(0 -0 4.08718e-06)
(0 -0 4.7346e-06)
(0 -0 5.3155e-06)
(0 -0 5.80784e-06)
(0 -0 6.27297e-06)
(0 -0 0.000127105)
(0 -0 0.000114341)
(0 -0 0.000100108)
(0 -0 8.58548e-05)
(0 -0 7.27545e-05)
(0 -0 6.095e-05)
(0 -0 5.05505e-05)
(0 -0 4.19792e-05)
(0 -0 3.57249e-05)
(0 -0 3.23333e-05)
(0 -0 3.23873e-05)
(0 -0 3.64678e-05)
(0 -0 4.50823e-05)
(0 -0 5.85513e-05)
(0 -0 7.68594e-05)
(0 -0 9.94951e-05)
(0 -0 0.00012532)
(0 -0 0.00015252)
(0 -0 0.000178693)
(0 -0 0.000201093)
(0 -0 0.000217025)
(0 -0 0.000224322)
(0 -0 0.000221785)
(0 -0 0.000209476)
(0 -0 0.000188744)
(0 -0 0.00016199)
(0 -0 0.000132196)
(0 -0 0.000102366)
(0 -0 7.50239e-05)
(0 -0 5.18771e-05)
(0 -0 3.37181e-05)
(0 -0 2.0527e-05)
(0 -0 1.17078e-05)
(0 -0 6.36477e-06)
(0 -0 3.54324e-06)
(0 -0 2.39264e-06)
(0 -0 2.24597e-06)
(0 -0 2.63268e-06)
(0 -0 3.25164e-06)
(0 -0 3.92836e-06)
(0 -0 4.57271e-06)
(0 -0 5.14565e-06)
(0 -0 5.62883e-06)
(0 -0 6.08939e-06)
(0 -0 9.57299e-05)
(0 -0 8.57412e-05)
(0 -0 7.42201e-05)
(0 -0 6.25202e-05)
(0 -0 5.17367e-05)
(0 -0 4.19301e-05)
(0 -0 3.31367e-05)
(0 -0 2.57143e-05)
(0 -0 2.00855e-05)
(0 -0 1.67259e-05)
(0 -0 1.61456e-05)
(0 -0 1.88586e-05)
(0 -0 2.53261e-05)
(0 -0 3.58648e-05)
(0 -0 5.05234e-05)
(0 -0 6.89468e-05)
(0 -0 9.02604e-05)
(0 -0 0.00011302)
(0 -0 0.000135268)
(0 -0 0.000154727)
(0 -0 0.000169123)
(0 -0 0.000176575)
(0 -0 0.000175978)
(0 -0 0.000167261)
(0 -0 0.000151435)
(0 -0 0.000130412)
(0 -0 0.000106628)
(0 -0 8.25789e-05)
(0 -0 6.03933e-05)
(0 -0 4.15406e-05)
(0 -0 2.67322e-05)
(0 -0 1.59963e-05)
(0 -0 8.86815e-06)
(0 -0 4.61995e-06)
(0 -0 2.46343e-06)
(0 -0 1.69016e-06)
(0 -0 1.74151e-06)
(0 -0 2.22214e-06)
(0 -0 2.87895e-06)
(0 -0 3.56579e-06)
(0 -0 4.20808e-06)
(0 -0 4.77474e-06)
(0 -0 5.25061e-06)
(0 -0 5.70845e-06)
(0 -0 6.92294e-05)
(0 -0 6.16087e-05)
(0 -0 5.2473e-05)
(0 -0 4.30809e-05)
(0 -0 3.44476e-05)
(0 -0 2.65533e-05)
(0 -0 1.93607e-05)
(0 -0 1.31607e-05)
(0 -0 8.30704e-06)
(0 -0 5.20374e-06)
(0 -0 4.28719e-06)
(0 -0 6.00277e-06)
(0 -0 1.0761e-05)
(0 -0 1.88644e-05)
(0 -0 3.04075e-05)
(0 -0 4.51626e-05)
(0 -0 6.24785e-05)
(0 -0 8.12291e-05)
(0 -0 9.98484e-05)
(0 -0 0.000116477)
(0 -0 0.000129219)
(0 -0 0.000136465)
(0 -0 0.000137213)
(0 -0 0.000131301)
(0 -0 0.00011946)
(0 -0 0.00010319)
(0 -0 8.44549e-05)
(0 -0 6.53076e-05)
(0 -0 4.7525e-05)
(0 -0 3.23589e-05)
(0 -0 2.04399e-05)
(0 -0 1.18291e-05)
(0 -0 6.16931e-06)
(0 -0 2.87428e-06)
(0 -0 1.29814e-06)
(0 -0 8.54965e-07)
(0 -0 1.08007e-06)
(0 -0 1.6436e-06)
(0 -0 2.3344e-06)
(0 -0 3.0311e-06)
(0 -0 3.67275e-06)
(0 -0 4.23516e-06)
(0 -0 4.70597e-06)
(0 -0 5.16321e-06)
(0 -0 4.81054e-05)
(0 -0 4.24109e-05)
(0 -0 3.52737e-05)
(0 -0 2.78617e-05)
(0 -0 2.11135e-05)
(0 -0 1.49356e-05)
(0 -0 9.22265e-06)
(0 -0 4.20098e-06)
(0 -0 1.59169e-07)
(0 -0 -2.56747e-06)
(0 -0 -3.61293e-06)
(0 -0 -2.59861e-06)
(0 -0 8.33895e-07)
(0 -0 6.96589e-06)
(0 -0 1.59211e-05)
(0 -0 2.75704e-05)
(0 -0 4.1445e-05)
(0 -0 5.66843e-05)
(0 -0 7.20541e-05)
(0 -0 8.60548e-05)
(0 -0 9.71228e-05)
(0 -0 0.000103895)
(0 -0 0.000105477)
(0 -0 0.000101646)
(0 -0 9.29153e-05)
(0 -0 8.04459e-05)
(0 -0 6.581e-05)
(0 -0 5.06818e-05)
(0 -0 3.65367e-05)
(0 -0 2.4434e-05)
(0 -0 1.49274e-05)
(0 -0 8.09768e-06)
(0 -0 3.67274e-06)
(0 -0 1.18158e-06)
(0 -0 9.61599e-08)
(0 -0 -6.71618e-08)
(0 -0 3.05827e-07)
(0 -0 9.40517e-07)
(0 -0 1.66117e-06)
(0 -0 2.36742e-06)
(0 -0 3.00988e-06)
(0 -0 3.57014e-06)
(0 -0 4.03816e-06)
(0 -0 4.49688e-06)
(0 -0 3.21322e-05)
(0 -0 2.79417e-05)
(0 -0 2.24137e-05)
(0 -0 1.66326e-05)
(0 -0 1.14668e-05)
(0 -0 6.7584e-06)
(0 -0 2.34175e-06)
(0 -0 -1.61471e-06)
(0 -0 -4.88161e-06)
(0 -0 -7.18577e-06)
(0 -0 -8.22549e-06)
(0 -0 -7.68402e-06)
(0 -0 -5.25342e-06)
(0 -0 -6.78076e-07)
(0 -0 6.18133e-06)
(0 -0 1.52691e-05)
(0 -0 2.62595e-05)
(0 -0 3.85069e-05)
(0 -0 5.105e-05)
(0 -0 6.26899e-05)
(0 -0 7.21468e-05)
(0 -0 7.82733e-05)
(0 -0 8.028e-05)
(0 -0 7.79107e-05)
(0 -0 7.15138e-05)
(0 -0 6.19811e-05)
(0 -0 5.0566e-05)
(0 -0 3.86321e-05)
(0 -0 2.74018e-05)
(0 -0 1.77694e-05)
(0 -0 1.02178e-05)
(0 -0 4.8375e-06)
(0 -0 1.42073e-06)
(0 -0 -4.12238e-07)
(0 -0 -1.09481e-06)
(0 -0 -1.02773e-06)
(0 -0 -5.32451e-07)
(0 -0 1.61637e-07)
(0 -0 9.07885e-07)
(0 -0 1.62323e-06)
(0 -0 2.26773e-06)
(0 -0 2.82774e-06)
(0 -0 3.295e-06)
(0 -0 3.75703e-06)
(0 -0 2.06558e-05)
(0 -0 1.75965e-05)
(0 -0 1.33207e-05)
(0 -0 8.83779e-06)
(0 -0 4.95384e-06)
(0 -0 1.45649e-06)
(0 -0 -1.87046e-06)
(0 -0 -4.90865e-06)
(0 -0 -7.48006e-06)
(0 -0 -9.36568e-06)
(0 -0 -1.03201e-05)
(0 -0 -1.00817e-05)
(0 -0 -8.38886e-06)
(0 -0 -5.01347e-06)
(0 -0 1.8898e-07)
(0 -0 7.21488e-06)
(0 -0 1.58474e-05)
(0 -0 2.56097e-05)
(0 -0 3.57592e-05)
(0 -0 4.53415e-05)
(0 -0 5.33122e-05)
(0 -0 5.87083e-05)
(0 -0 6.08376e-05)
(0 -0 5.94316e-05)
(0 -0 5.47172e-05)
(0 -0 4.73792e-05)
(0 -0 3.84192e-05)
(0 -0 2.89514e-05)
(0 -0 1.99917e-05)
(0 -0 1.22968e-05)
(0 -0 6.28649e-06)
(0 -0 2.05353e-06)
(0 -0 -5.62483e-07)
(0 -0 -1.87125e-06)
(0 -0 -2.23224e-06)
(0 -0 -1.98076e-06)
(0 -0 -1.38719e-06)
(0 -0 -6.44897e-07)
(0 -0 1.22745e-07)
(0 -0 8.46511e-07)
(0 -0 1.49395e-06)
(0 -0 2.05524e-06)
(0 -0 2.52338e-06)
(0 -0 2.9902e-06)
(0 -0 1.28339e-05)
(0 -0 1.05955e-05)
(0 -0 7.26431e-06)
(0 -0 3.78416e-06)
(0 -0 9.06584e-07)
(0 -0 -1.62459e-06)
(0 -0 -4.0665e-06)
(0 -0 -6.34264e-06)
(0 -0 -8.31809e-06)
(0 -0 -9.81939e-06)
(0 -0 -1.06488e-05)
(0 -0 -1.05918e-05)
(0 -0 -9.42829e-06)
(0 -0 -6.95696e-06)
(0 -0 -3.03518e-06)
(0 -0 2.36848e-06)
(0 -0 9.1177e-06)
(0 -0 1.68645e-05)
(0 -0 2.50369e-05)
(0 -0 3.28751e-05)
(0 -0 3.9525e-05)
(0 -0 4.41773e-05)
(0 -0 4.62265e-05)
(0 -0 4.54055e-05)
(0 -0 4.18557e-05)
(0 -0 3.61063e-05)
(0 -0 2.89651e-05)
(0 -0 2.13506e-05)
(0 -0 1.41143e-05)
(0 -0 7.90038e-06)
(0 -0 3.07475e-06)
(0 -0 -2.7271e-07)
(0 -0 -2.26884e-06)
(0 -0 -3.17092e-06)
(0 -0 -3.28198e-06)
(0 -0 -2.88696e-06)
(0 -0 -2.21663e-06)
(0 -0 -1.43635e-06)
(0 -0 -6.51321e-07)
(0 -0 7.99586e-08)
(0 -0 7.30882e-07)
(0 -0 1.29454e-06)
(0 -0 1.76476e-06)
(0 -0 2.23743e-06)
(0 -0 7.80622e-06)
(0 -0 6.14218e-06)
(0 -0 3.50311e-06)
(0 -0 7.7621e-07)
(0 -0 -1.33363e-06)
(0 -0 -3.11642e-06)
(0 -0 -4.86118e-06)
(0 -0 -6.52534e-06)
(0 -0 -8.00909e-06)
(0 -0 -9.17616e-06)
(0 -0 -9.86802e-06)
(0 -0 -9.90946e-06)
(0 -0 -9.11601e-06)
(0 -0 -7.31123e-06)
(0 -0 -4.35857e-06)
(0 -0 -2.04533e-07)
(0 -0 5.07218e-06)
(0 -0 1.12199e-05)
(0 -0 1.77966e-05)
(0 -0 2.4194e-05)
(0 -0 2.97083e-05)
(0 -0 3.36555e-05)
(0 -0 3.55051e-05)
(0 -0 3.49997e-05)
(0 -0 3.22226e-05)
(0 -0 2.7589e-05)
(0 -0 2.17605e-05)
(0 -0 1.55053e-05)
(0 -0 9.54662e-06)
(0 -0 4.43902e-06)
(0 -0 5.03107e-07)
(0 -0 -2.17671e-06)
(0 -0 -3.70426e-06)
(0 -0 -4.29848e-06)
(0 -0 -4.22028e-06)
(0 -0 -3.71655e-06)
(0 -0 -2.98805e-06)
(0 -0 -2.17875e-06)
(0 -0 -1.38006e-06)
(0 -0 -6.42316e-07)
(0 -0 1.22975e-08)
(0 -0 5.78977e-07)
(0 -0 1.05206e-06)
(0 -0 1.53122e-06)
(0 -0 4.7998e-06)
(0 -0 3.52146e-06)
(0 -0 1.37491e-06)
(0 -0 -8.0121e-07)
(0 -0 -2.34149e-06)
(0 -0 -3.56094e-06)
(0 -0 -4.77221e-06)
(0 -0 -5.95949e-06)
(0 -0 -7.05085e-06)
(0 -0 -7.93976e-06)
(0 -0 -8.49913e-06)
(0 -0 -8.58574e-06)
(0 -0 -8.04466e-06)
(0 -0 -6.72177e-06)
(0 -0 -4.48873e-06)
(0 -0 -1.27921e-06)
(0 -0 2.86827e-06)
(0 -0 7.77207e-06)
(0 -0 1.30879e-05)
(0 -0 1.83223e-05)
(0 -0 2.2889e-05)
(0 -0 2.62033e-05)
(0 -0 2.77979e-05)
(0 -0 2.74294e-05)
(0 -0 2.51429e-05)
(0 -0 2.12719e-05)
(0 -0 1.63696e-05)
(0 -0 1.1091e-05)
(0 -0 6.06065e-06)
(0 -0 1.76309e-06)
(0 -0 -1.51796e-06)
(0 -0 -3.70476e-06)
(0 -0 -4.88572e-06)
(0 -0 -5.25223e-06)
(0 -0 -5.03425e-06)
(0 -0 -4.45049e-06)
(0 -0 -3.67927e-06)
(0 -0 -2.84859e-06)
(0 -0 -2.03956e-06)
(0 -0 -1.29647e-06)
(0 -0 -6.38252e-07)
(0 -0 -6.82433e-08)
(0 -0 4.08159e-07)
(0 -0 8.94104e-07)
(0 -0 3.17943e-06)
(0 -0 2.14723e-06)
(0 -0 3.40508e-07)
(0 -0 -1.44383e-06)
(0 -0 -2.57375e-06)
(0 -0 -3.38153e-06)
(0 -0 -4.19626e-06)
(0 -0 -5.02279e-06)
(0 -0 -5.81087e-06)
(0 -0 -6.47718e-06)
(0 -0 -6.91934e-06)
(0 -0 -7.01968e-06)
(0 -0 -6.64739e-06)
(0 -0 -5.66742e-06)
(0 -0 -3.96035e-06)
(0 -0 -1.45334e-06)
(0 -0 1.8423e-06)
(0 -0 5.79509e-06)
(0 -0 1.01324e-05)
(0 -0 1.44476e-05)
(0 -0 1.82439e-05)
(0 -0 2.10145e-05)
(0 -0 2.23438e-05)
(0 -0 2.20037e-05)
(0 -0 2.00154e-05)
(0 -0 1.66544e-05)
(0 -0 1.23946e-05)
(0 -0 7.80665e-06)
(0 -0 3.44065e-06)
(0 -0 -2.72885e-07)
(0 -0 -3.07966e-06)
(0 -0 -4.90863e-06)
(0 -0 -5.83806e-06)
(0 -0 -6.03969e-06)
(0 -0 -5.72101e-06)
(0 -0 -5.08005e-06)
(0 -0 -4.27857e-06)
(0 -0 -3.43281e-06)
(0 -0 -2.61634e-06)
(0 -0 -1.86899e-06)
(0 -0 -1.20746e-06)
(0 -0 -6.34059e-07)
(0 -0 -1.54202e-07)
(0 -0 3.38601e-07)
(0 -0 2.45961e-06)
(0 -0 1.5736e-06)
(0 -0 -6.94609e-09)
(0 -0 -1.52109e-06)
(0 -0 -2.365e-06)
(0 -0 -2.88175e-06)
(0 -0 -3.411e-06)
(0 -0 -3.97314e-06)
(0 -0 -4.53441e-06)
(0 -0 -5.02925e-06)
(0 -0 -5.37459e-06)
(0 -0 -5.47278e-06)
(0 -0 -5.21221e-06)
(0 -0 -4.47385e-06)
(0 -0 -3.147e-06)
(0 -0 -1.15631e-06)
(0 -0 1.50475e-06)
(0 -0 4.7402e-06)
(0 -0 8.32967e-06)
(0 -0 1.19307e-05)
(0 -0 1.51144e-05)
(0 -0 1.74342e-05)
(0 -0 1.85163e-05)
(0 -0 1.81471e-05)
(0 -0 1.6333e-05)
(0 -0 1.33089e-05)
(0 -0 9.49125e-06)
(0 -0 5.38814e-06)
(0 -0 1.49379e-06)
(0 -0 -1.80241e-06)
(0 -0 -4.26921e-06)
(0 -0 -5.8416e-06)