/*--------------------------------*- C++ -*----------------------------------*\
| =========                 |                                                 |
| \\      /  F ield         | OpenFOAM: The Open Source CFD Toolbox           |
|  \\    /   O peration     | Version:  2412                                  |
|   \\  /    A nd           | Website:  www.openfoam.com                      |
|    \\/     M anipulation  |                                                 |
\*---------------------------------------------------------------------------*/
FoamFile
{
    version     2.0;
    format      ascii;
    arch        "LSB;label=32;scalar=64";
    class       volVectorField;
    location    "19.5";
    object      U;
}
// * * * * * * * * * * * * * * * * * * * * * * * * * * * * * * * * * * * * * //

dimensions      [0 1 -1 0 0 0 0];

internalField   nonuniform List<vector> 
5285
(
(0.0985571 -1.83886e-05 0)
(0.0986426 -1.72554e-05 0)
(0.0987244 -1.61751e-05 0)
(0.0988026 -1.51472e-05 0)
(0.0988773 -1.41714e-05 0)
(0.0989486 -1.32469e-05 0)
(0.0990165 -1.23724e-05 0)
(0.0990811 -1.15463e-05 0)
(0.0991427 -1.07669e-05 0)
(0.0992012 -1.0032e-05 0)
(0.0992569 -9.33973e-06 0)
(0.0993097 -8.688e-06 0)
(0.0993598 -8.07479e-06 0)
(0.0994073 -7.49815e-06 0)
(0.0994523 -6.95623e-06 0)
(0.0994948 -6.44729e-06 0)
(0.0995351 -5.96969e-06 0)
(0.0995731 -5.52185e-06 0)
(0.0996089 -5.10222e-06 0)
(0.0996427 -4.70928e-06 0)
(0.0996746 -4.34154e-06 0)
(0.0997045 -3.99755e-06 0)
(0.0997326 -3.67601e-06 0)
(0.0997589 -3.37578e-06 0)
(0.0997836 -3.09582e-06 0)
(0.0998067 -2.83517e-06 0)
(0.0998283 -2.5928e-06 0)
(0.0998484 -2.36752e-06 0)
(0.0998671 -2.15808e-06 0)
(0.0998845 -1.96331e-06 0)
(0.0999007 -1.78229e-06 0)
(0.0999156 -1.61444e-06 0)
(0.0999295 -1.45942e-06 0)
(0.0999422 -1.31689e-06 0)
(0.099954 -1.18635e-06 0)
(0.0999648 -1.06704e-06 0)
(0.0999747 -9.58018e-07 0)
(0.0999838 -8.58354e-07 0)
(0.099992 -7.67162e-07 0)
(0.0999996 -6.83818e-07 0)
(0.100006 -6.07861e-07 0)
(0.100013 -5.39133e-07 0)
(0.100018 -4.77363e-07 0)
(0.100023 -4.22456e-07 0)
(0.100028 -3.73515e-07 0)
(0.100032 -3.30657e-07 0)
(0.100036 -2.92203e-07 0)
(0.100039 -2.60028e-07 0)
(0.100043 -2.30659e-07 0)
(0.100045 -2.09574e-07 0)
(0.100049 -1.88252e-07 0)
(0.10005 -1.79445e-07 0)
(0.100054 -1.64619e-07 0)
(0.100054 -1.69616e-07 0)
(0.10006 -1.5819e-07 0)
(0.100057 -1.79426e-07 0)
(0.100067 -1.70154e-07 0)
(0.10006 -2.10689e-07 0)
(0.100076 -2.03883e-07 0)
(0.100064 -2.64564e-07 0)
(0.100086 -2.66524e-07 0)
(0.100069 -3.42296e-07 0)
(0.1001 -3.64446e-07 0)
(0.100079 -4.54507e-07 0)
(0.100116 -4.94886e-07 0)
(0.100095 -6.27654e-07 0)
(0.100138 -6.63724e-07 0)
(0.100118 -7.70337e-07 0)
(0.100166 -1.09781e-06 0)
(0.100157 -7.95134e-07 0)
(0.100197 -1.12301e-06 0)
(0.0985581 -5.51209e-05 0)
(0.0986435 -5.17301e-05 0)
(0.0987253 -4.84971e-05 0)
(0.0988034 -4.54209e-05 0)
(0.098878 -4.25002e-05 0)
(0.0989492 -3.97326e-05 0)
(0.0990171 -3.71146e-05 0)
(0.0990817 -3.46413e-05 0)
(0.0991432 -3.23074e-05 0)
(0.0992017 -3.01071e-05 0)
(0.0992573 -2.80345e-05 0)
(0.0993101 -2.60836e-05 0)
(0.0993601 -2.42482e-05 0)
(0.0994076 -2.25225e-05 0)
(0.0994526 -2.0901e-05 0)
(0.0994951 -1.93782e-05 0)
(0.0995353 -1.7949e-05 0)
(0.0995733 -1.66085e-05 0)
(0.0996092 -1.53521e-05 0)
(0.0996429 -1.41751e-05 0)
(0.0996747 -1.30733e-05 0)
(0.0997046 -1.20425e-05 0)
(0.0997327 -1.10789e-05 0)
(0.0997591 -1.01789e-05 0)
(0.0997837 -9.33926e-06 0)
(0.0998068 -8.55671e-06 0)
(0.0998284 -7.82821e-06 0)
(0.0998485 -7.15062e-06 0)
(0.0998672 -6.52083e-06 0)
(0.0998846 -5.93591e-06 0)
(0.0999007 -5.39325e-06 0)
(0.0999157 -4.89064e-06 0)
(0.0999295 -4.4262e-06 0)
(0.0999423 -3.99815e-06 0)
(0.099954 -3.6046e-06 0)
(0.0999648 -3.24352e-06 0)
(0.0999747 -2.91275e-06 0)
(0.0999838 -2.61019e-06 0)
(0.0999921 -2.3338e-06 0)
(0.0999996 -2.08193e-06 0)
(0.100006 -1.85304e-06 0)
(0.100013 -1.64618e-06 0)
(0.100018 -1.4599e-06 0)
(0.100023 -1.29382e-06 0)
(0.100028 -1.14541e-06 0)
(0.100032 -1.0157e-06 0)
(0.100036 -8.99791e-07 0)
(0.100039 -8.03325e-07 0)
(0.100043 -7.15379e-07 0)
(0.100045 -6.51941e-07 0)
(0.100049 -5.87459e-07 0)
(0.10005 -5.59549e-07 0)
(0.100054 -5.12947e-07 0)
(0.100054 -5.25634e-07 0)
(0.10006 -4.89448e-07 0)
(0.100057 -5.50788e-07 0)
(0.100067 -5.20623e-07 0)
(0.10006 -6.3951e-07 0)
(0.100076 -6.17315e-07 0)
(0.100064 -7.96069e-07 0)
(0.100086 -8.00125e-07 0)
(0.100069 -1.02649e-06 0)
(0.1001 -1.09199e-06 0)
(0.100079 -1.3601e-06 0)
(0.100116 -1.48227e-06 0)
(0.100095 -1.87955e-06 0)
(0.100138 -1.98629e-06 0)
(0.100118 -2.30353e-06 0)
(0.100166 -3.27703e-06 0)
(0.100157 -2.37777e-06 0)
(0.100197 -3.35404e-06 0)
(0.09856 -9.18154e-05 0)
(0.0986453 -8.61669e-05 0)
(0.0987269 -8.07824e-05 0)
(0.098805 -7.56596e-05 0)
(0.0988795 -7.07961e-05 0)
(0.0989505 -6.61879e-05 0)
(0.0990183 -6.18286e-05 0)
(0.0990828 -5.77104e-05 0)
(0.0991442 -5.38244e-05 0)
(0.0992027 -5.01609e-05 0)
(0.0992582 -4.67099e-05 0)
(0.0993109 -4.34615e-05 0)
(0.0993609 -4.04056e-05 0)
(0.0994083 -3.75325e-05 0)
(0.0994532 -3.48327e-05 0)
(0.0994957 -3.22973e-05 0)
(0.0995358 -2.99177e-05 0)
(0.0995738 -2.76857e-05 0)
(0.0996096 -2.55934e-05 0)
(0.0996433 -2.36332e-05 0)
(0.0996751 -2.17981e-05 0)
(0.099705 -2.00813e-05 0)
(0.099733 -1.84762e-05 0)
(0.0997593 -1.69771e-05 0)
(0.099784 -1.55781e-05 0)
(0.099807 -1.42742e-05 0)
(0.0998286 -1.306e-05 0)
(0.0998487 -1.19304e-05 0)
(0.0998674 -1.08807e-05 0)
(0.0998848 -9.90588e-06 0)
(0.0999009 -9.00186e-06 0)
(0.0999158 -8.16476e-06 0)
(0.0999297 -7.39115e-06 0)
(0.0999424 -6.67777e-06 0)
(0.0999541 -6.02141e-06 0)
(0.0999649 -5.41872e-06 0)
(0.0999748 -4.86635e-06 0)
(0.0999839 -4.36103e-06 0)
(0.0999921 -3.89957e-06 0)
(0.0999997 -3.47928e-06 0)
(0.100007 -3.09756e-06 0)
(0.100013 -2.75265e-06 0)
(0.100018 -2.44195e-06 0)
(0.100023 -2.16477e-06 0)
(0.100028 -1.91695e-06 0)
(0.100032 -1.70043e-06 0)
(0.100036 -1.50712e-06 0)
(0.100039 -1.3464e-06 0)
(0.100043 -1.19991e-06 0)
(0.100045 -1.09416e-06 0)
(0.100049 -9.86539e-07 0)
(0.10005 -9.39546e-07 0)
(0.100054 -8.61181e-07 0)
(0.100054 -8.81572e-07 0)
(0.10006 -8.20631e-07 0)
(0.100057 -9.22102e-07 0)
(0.100067 -8.71025e-07 0)
(0.10006 -1.0683e-06 0)
(0.100076 -1.03066e-06 0)
(0.100064 -1.32756e-06 0)
(0.100086 -1.33364e-06 0)
(0.100069 -1.71058e-06 0)
(0.1001 -1.81977e-06 0)
(0.100079 -2.2647e-06 0)
(0.100116 -2.47217e-06 0)
(0.100095 -3.12635e-06 0)
(0.100138 -3.31652e-06 0)
(0.100118 -3.83272e-06 0)
(0.100166 -5.44958e-06 0)
(0.100157 -3.97676e-06 0)
(0.100198 -5.5879e-06 0)
(0.0985628 -0.000128447 0)
(0.098648 -0.00012054 0)
(0.0987294 -0.000113006 0)
(0.0988073 -0.00010584 0)
(0.0988816 -9.90372e-05 0)
(0.0989525 -9.25922e-05 0)
(0.0990201 -8.64958e-05 0)
(0.0990845 -8.07367e-05 0)
(0.0991458 -7.53022e-05 0)
(0.0992041 -7.0179e-05 0)
(0.0992595 -6.5353e-05 0)
(0.0993121 -6.08102e-05 0)
(0.099362 -5.65365e-05 0)
(0.0994093 -5.25185e-05 0)
(0.0994541 -4.87428e-05 0)
(0.0994965 -4.51969e-05 0)
(0.0995366 -4.18688e-05 0)
(0.0995745 -3.87469e-05 0)
(0.0996102 -3.58203e-05 0)
(0.0996439 -3.30785e-05 0)
(0.0996756 -3.05113e-05 0)
(0.0997055 -2.81095e-05 0)
(0.0997335 -2.58641e-05 0)
(0.0997597 -2.37667e-05 0)
(0.0997844 -2.18095e-05 0)
(0.0998074 -1.99848e-05 0)
(0.0998289 -1.82856e-05 0)
(0.0998489 -1.67048e-05 0)
(0.0998676 -1.52356e-05 0)
(0.099885 -1.38715e-05 0)
(0.0999011 -1.26066e-05 0)
(0.099916 -1.14354e-05 0)
(0.0999298 -1.0353e-05 0)
(0.0999426 -9.35465e-06 0)
(0.0999543 -8.43578e-06 0)
(0.0999651 -7.59178e-06 0)
(0.0999749 -6.81806e-06 0)
(0.099984 -6.1102e-06 0)
(0.0999922 -5.46387e-06 0)
(0.0999998 -4.87535e-06 0)
(0.100007 -4.34095e-06 0)
(0.100013 -3.85816e-06 0)
(0.100018 -3.42316e-06 0)
(0.100024 -3.035e-06 0)
(0.100028 -2.68786e-06 0)
(0.100032 -2.38464e-06 0)
(0.100036 -2.114e-06 0)
(0.100039 -1.8891e-06 0)
(0.100043 -1.68413e-06 0)
(0.100045 -1.53611e-06 0)
(0.100049 -1.38538e-06 0)
(0.10005 -1.31936e-06 0)
(0.100054 -1.20923e-06 0)
(0.100054 -1.23738e-06 0)
(0.10006 -1.15166e-06 0)
(0.100057 -1.29335e-06 0)
(0.100067 -1.22128e-06 0)
(0.10006 -1.49707e-06 0)
(0.100076 -1.44382e-06 0)
(0.100064 -1.85904e-06 0)
(0.100086 -1.86697e-06 0)
(0.100069 -2.39452e-06 0)
(0.1001 -2.54787e-06 0)
(0.100079 -3.16767e-06 0)
(0.100116 -3.46613e-06 0)
(0.100095 -4.36485e-06 0)
(0.100138 -4.6592e-06 0)
(0.100118 -5.35537e-06 0)
(0.100166 -7.61135e-06 0)
(0.100157 -5.60235e-06 0)
(0.100198 -7.82639e-06 0)
(0.0985667 -0.000164988 0)
(0.0986516 -0.000154825 0)
(0.0987328 -0.000145144 0)
(0.0988104 -0.000135938 0)
(0.0988845 -0.000127202 0)
(0.0989552 -0.000118925 0)
(0.0990226 -0.000111097 0)
(0.0990868 -0.000103703 0)
(0.0991479 -9.67253e-05 0)
(0.099206 -9.01473e-05 0)
(0.0992612 -8.39508e-05 0)
(0.0993137 -7.81178e-05 0)
(0.0993634 -7.26304e-05 0)
(0.0994106 -6.74709e-05 0)
(0.0994553 -6.26226e-05 0)
(0.0994976 -5.80692e-05 0)
(0.0995376 -5.37952e-05 0)
(0.0995754 -4.97859e-05 0)
(0.0996111 -4.60272e-05 0)
(0.0996447 -4.25056e-05 0)
(0.0996763 -3.92083e-05 0)
(0.0997061 -3.61232e-05 0)
(0.0997341 -3.32388e-05 0)
(0.0997603 -3.05445e-05 0)
(0.0997848 -2.80301e-05 0)
(0.0998078 -2.56859e-05 0)
(0.0998293 -2.35027e-05 0)
(0.0998493 -2.14714e-05 0)
(0.099868 -1.95836e-05 0)
(0.0998853 -1.78309e-05 0)
(0.0999014 -1.62058e-05 0)
(0.0999163 -1.47011e-05 0)
(0.0999301 -1.33105e-05 0)
(0.0999428 -1.20277e-05 0)
(0.0999545 -1.08467e-05 0)
(0.0999652 -9.76181e-06 0)
(0.0999751 -8.76709e-06 0)
(0.0999841 -7.85701e-06 0)
(0.0999924 -7.02609e-06 0)
(0.0999999 -6.2696e-06 0)
(0.100007 -5.58277e-06 0)
(0.100013 -4.96229e-06 0)
(0.100019 -4.40318e-06 0)
(0.100024 -3.9042e-06 0)
(0.100028 -3.45789e-06 0)
(0.100032 -3.0681e-06 0)
(0.100036 -2.72023e-06 0)
(0.100039 -2.43128e-06 0)
(0.100043 -2.16786e-06 0)
(0.100045 -1.9777e-06 0)
(0.100049 -1.78385e-06 0)
(0.10005 -1.69896e-06 0)
(0.100054 -1.55694e-06 0)
(0.100054 -1.59311e-06 0)
(0.10006 -1.48234e-06 0)
(0.100057 -1.66464e-06 0)
(0.100067 -1.57112e-06 0)
(0.10006 -1.92599e-06 0)
(0.100076 -1.8565e-06 0)
(0.100064 -2.39072e-06 0)
(0.100086 -2.39981e-06 0)
(0.100069 -3.07843e-06 0)
(0.1001 -3.27624e-06 0)
(0.100079 -4.06852e-06 0)
(0.100116 -4.46552e-06 0)
(0.100095 -5.59212e-06 0)
(0.100138 -6.01867e-06 0)
(0.100119 -6.86918e-06 0)
(0.100165 -9.75864e-06 0)
(0.100157 -7.26385e-06 0)
(0.100198 -1.00711e-05 0)
(0.0985715 -0.000201413 0)
(0.0986561 -0.000188994 0)
(0.098737 -0.00017717 0)
(0.0988142 -0.000165931 0)
(0.0988881 -0.000155267 0)
(0.0989585 -0.000145167 0)
(0.0990256 -0.000135615 0)
(0.0990896 -0.000126592 0)
(0.0991504 -0.000118078 0)
(0.0992084 -0.000110052 0)
(0.0992634 -0.000102491 0)
(0.0993157 -9.53729e-05 0)
(0.0993653 -8.86766e-05 0)
(0.0994123 -8.23803e-05 0)
(0.0994569 -7.64635e-05 0)
(0.099499 -7.09063e-05 0)
(0.0995389 -6.56899e-05 0)
(0.0995766 -6.07963e-05 0)
(0.0996122 -5.62083e-05 0)
(0.0996457 -5.19094e-05 0)
(0.0996772 -4.78842e-05 0)
(0.0997069 -4.41179e-05 0)
(0.0997348 -4.05965e-05 0)
(0.099761 -3.73071e-05 0)
(0.0997855 -3.4237e-05 0)
(0.0998084 -3.13747e-05 0)
(0.0998298 -2.87087e-05 0)
(0.0998498 -2.62282e-05 0)
(0.0998684 -2.39227e-05 0)
(0.0998857 -2.17824e-05 0)
(0.0999017 -1.97979e-05 0)
(0.0999166 -1.79605e-05 0)
(0.0999303 -1.62623e-05 0)
(0.099943 -1.46957e-05 0)
(0.0999547 -1.32532e-05 0)
(0.0999654 -1.19279e-05 0)
(0.0999753 -1.07126e-05 0)
(0.0999843 -9.60075e-06 0)
(0.0999925 -8.58561e-06 0)
(0.1 -7.66148e-06 0)
(0.100007 -6.82251e-06 0)
(0.100013 -6.06462e-06 0)
(0.100019 -5.38164e-06 0)
(0.100024 -4.77206e-06 0)
(0.100028 -4.22676e-06 0)
(0.100032 -3.75059e-06 0)
(0.100036 -3.3256e-06 0)
(0.100039 -2.97276e-06 0)
(0.100043 -2.65094e-06 0)
(0.100045 -2.41884e-06 0)
(0.100049 -2.18178e-06 0)
(0.10005 -2.0783e-06 0)
(0.100054 -1.90414e-06 0)
(0.100054 -1.94877e-06 0)
(0.10006 -1.81246e-06 0)
(0.100057 -2.03606e-06 0)
(0.100067 -1.92031e-06 0)
(0.10006 -2.3552e-06 0)
(0.100076 -2.26837e-06 0)
(0.100064 -2.92274e-06 0)
(0.100086 -2.93187e-06 0)
(0.100069 -3.76236e-06 0)
(0.1001 -4.00479e-06 0)
(0.100079 -4.96678e-06 0)
(0.100116 -5.47146e-06 0)
(0.100095 -6.80562e-06 0)
(0.100138 -7.39864e-06 0)
(0.100119 -8.37217e-06 0)
(0.100165 -1.18883e-05 0)
(0.100158 -8.96935e-06 0)
(0.100198 -1.23233e-05 0)
(0.0985772 -0.000237692 0)
(0.0986614 -0.000223021 0)
(0.0987419 -0.00020906 0)
(0.0988189 -0.000195795 0)
(0.0988923 -0.000183212 0)
(0.0989624 -0.000171297 0)
(0.0990293 -0.00016003 0)
(0.0990929 -0.000149387 0)
(0.0991535 -0.000139345 0)
(0.0992112 -0.000129878 0)
(0.099266 -0.00012096 0)
(0.0993181 -0.000112564 0)
(0.0993675 -0.000104665 0)
(0.0994143 -9.72372e-05 0)
(0.0994587 -9.02569e-05 0)
(0.0995007 -8.37005e-05 0)
(0.0995405 -7.75459e-05 0)
(0.099578 -7.17717e-05 0)
(0.0996134 -6.63578e-05 0)
(0.0996468 -6.12848e-05 0)
(0.0996783 -5.65345e-05 0)
(0.0997079 -5.20895e-05 0)
(0.0997357 -4.79335e-05 0)
(0.0997618 -4.40509e-05 0)
(0.0997862 -4.04271e-05 0)
(0.0998091 -3.70483e-05 0)
(0.0998304 -3.39011e-05 0)
(0.0998503 -3.09727e-05 0)
(0.0998689 -2.82509e-05 0)
(0.0998861 -2.57241e-05 0)
(0.0999021 -2.33812e-05 0)
(0.099917 -2.12121e-05 0)
(0.0999307 -1.92072e-05 0)
(0.0999433 -1.73575e-05 0)
(0.099955 -1.56542e-05 0)
(0.0999657 -1.40891e-05 0)
(0.0999755 -1.26539e-05 0)
(0.0999845 -1.13407e-05 0)
(0.0999927 -1.01418e-05 0)
(0.1 -9.05042e-06 0)
(0.100007 -8.05968e-06 0)
(0.100013 -7.16469e-06 0)
(0.100019 -6.35815e-06 0)
(0.100024 -5.63821e-06 0)
(0.100028 -4.99419e-06 0)
(0.100032 -4.43179e-06 0)
(0.100036 -3.92995e-06 0)
(0.10004 -3.51324e-06 0)
(0.100043 -3.13333e-06 0)
(0.100045 -2.85913e-06 0)
(0.100049 -2.57935e-06 0)
(0.10005 -2.45679e-06 0)
(0.100054 -2.25132e-06 0)
(0.100054 -2.30346e-06 0)
(0.10006 -2.14293e-06 0)
(0.100057 -2.40631e-06 0)
(0.100067 -2.27016e-06 0)
(0.10006 -2.78303e-06 0)
(0.100076 -2.68102e-06 0)
(0.100064 -3.45336e-06 0)
(0.100086 -3.46458e-06 0)
(0.100069 -4.44483e-06 0)
(0.1001 -4.73455e-06 0)
(0.100079 -5.86129e-06 0)
(0.100116 -6.48514e-06 0)
(0.100096 -8.00329e-06 0)
(0.100137 -8.80177e-06 0)
(0.10012 -9.86297e-06 0)
(0.100164 -1.3998e-05 0)
(0.100158 -1.07249e-05 0)
(0.100199 -1.45852e-05 0)
(0.0985841 -0.000274664 0)
(0.0986678 -0.00025769 0)
(0.0987479 -0.000241549 0)
(0.0988244 -0.000226218 0)
(0.0988974 -0.000211682 0)
(0.0989671 -0.000197919 0)
(0.0990336 -0.000184906 0)
(0.0990969 -0.000172616 0)
(0.0991572 -0.000161019 0)
(0.0992146 -0.000150086 0)
(0.0992691 -0.000139786 0)
(0.0993209 -0.00013009 0)
(0.0993701 -0.000120966 0)
(0.0994167 -0.000112387 0)
(0.0994609 -0.000104324 0)
(0.0995027 -9.67497e-05 0)
(0.0995423 -8.96393e-05 0)
(0.0995797 -8.2968e-05 0)
(0.099615 -7.67125e-05 0)
(0.0996482 -7.08506e-05 0)
(0.0996796 -6.53612e-05 0)
(0.0997091 -6.02244e-05 0)
(0.0997367 -5.54211e-05 0)
(0.0997627 -5.09337e-05 0)
(0.0997871 -4.67453e-05 0)
(0.0998098 -4.28396e-05 0)
(0.0998311 -3.92015e-05 0)
(0.099851 -3.58162e-05 0)
(0.0998695 -3.26696e-05 0)
(0.0998867 -2.97484e-05 0)
(0.0999026 -2.70398e-05 0)
(0.0999174 -2.45321e-05 0)
(0.0999311 -2.22142e-05 0)
(0.0999437 -2.00755e-05 0)
(0.0999553 -1.81061e-05 0)
(0.099966 -1.62962e-05 0)
(0.0999758 -1.46364e-05 0)
(0.0999847 -1.31177e-05 0)
(0.0999929 -1.17311e-05 0)
(0.1 -1.0469e-05 0)
(0.100007 -9.32334e-06 0)
(0.100013 -8.28834e-06 0)
(0.100019 -7.35568e-06 0)
(0.100024 -6.52297e-06 0)
(0.100029 -5.77831e-06 0)
(0.100033 -5.1276e-06 0)
(0.100036 -4.54769e-06 0)
(0.10004 -4.06511e-06 0)
(0.100043 -3.6269e-06 0)
(0.100045 -3.30821e-06 0)
(0.100049 -2.98697e-06 0)
(0.10005 -2.84193e-06 0)
(0.100054 -2.60859e-06 0)
(0.100054 -2.66307e-06 0)
(0.10006 -2.48466e-06 0)
(0.100057 -2.78038e-06 0)
(0.100067 -2.63327e-06 0)
(0.10006 -3.21481e-06 0)
(0.100076 -3.10928e-06 0)
(0.100064 -3.99007e-06 0)
(0.100086 -4.01532e-06 0)
(0.100069 -5.13796e-06 0)
(0.1001 -5.4861e-06 0)
(0.100079 -6.77095e-06 0)
(0.100116 -7.53251e-06 0)
(0.100096 -9.2119e-06 0)
(0.100137 -1.02637e-05 0)
(0.100121 -1.13765e-05 0)
(0.100164 -1.6136e-05 0)
(0.100158 -1.25774e-05 0)
(0.100199 -1.69149e-05 0)
(0.0985922 -0.000312276 0)
(0.0986754 -0.000292954 0)
(0.0987549 -0.000274591 0)
(0.0988309 -0.00025716 0)
(0.0989034 -0.000240637 0)
(0.0989727 -0.000224998 0)
(0.0990387 -0.000210212 0)
(0.0991016 -0.000196248 0)
(0.0991615 -0.000183072 0)
(0.0992185 -0.000170651 0)
(0.0992727 -0.000158948 0)
(0.0993242 -0.00014793 0)
(0.0993731 -0.000137563 0)
(0.0994195 -0.000127813 0)
(0.0994635 -0.000118649 0)
(0.0995051 -0.00011004 0)
(0.0995445 -0.000101958 0)
(0.0995817 -9.4374e-05 0)
(0.0996168 -8.72624e-05 0)
(0.0996499 -8.05977e-05 0)
(0.0996811 -7.4356e-05 0)
(0.0997104 -6.85149e-05 0)
(0.099738 -6.30528e-05 0)
(0.0997638 -5.79495e-05 0)
(0.0997881 -5.31859e-05 0)
(0.0998108 -4.87437e-05 0)
(0.099832 -4.46055e-05 0)
(0.0998517 -4.07546e-05 0)
(0.0998701 -3.71752e-05 0)
(0.0998873 -3.3852e-05 0)
(0.0999032 -3.07708e-05 0)
(0.0999179 -2.7918e-05 0)
(0.0999315 -2.52809e-05 0)
(0.0999441 -2.28477e-05 0)
(0.0999556 -2.06069e-05 0)
(0.0999663 -1.85474e-05 0)
(0.099976 -1.66587e-05 0)
(0.099985 -1.49304e-05 0)
(0.0999931 -1.33525e-05 0)
(0.100001 -1.19162e-05 0)
(0.100007 -1.06126e-05 0)
(0.100013 -9.43473e-06 0)
(0.100019 -8.3735e-06 0)
(0.100024 -7.42568e-06 0)
(0.100029 -6.57855e-06 0)
(0.100033 -5.83749e-06 0)
(0.100037 -5.17841e-06 0)
(0.10004 -4.62794e-06 0)
(0.100043 -4.13133e-06 0)
(0.100045 -3.76569e-06 0)
(0.100049 -3.40446e-06 0)
(0.10005 -3.23333e-06 0)
(0.100054 -2.9759e-06 0)
(0.100054 -3.02714e-06 0)
(0.10006 -2.83773e-06 0)
(0.100057 -3.15773e-06 0)
(0.100067 -3.00988e-06 0)
(0.10006 -3.64987e-06 0)
(0.100076 -3.55344e-06 0)
(0.100064 -4.53218e-06 0)
(0.100086 -4.5843e-06 0)
(0.100069 -5.84109e-06 0)
(0.1001 -6.2596e-06 0)
(0.100079 -7.69483e-06 0)
(0.100116 -8.61476e-06 0)
(0.100096 -1.04286e-05 0)
(0.100136 -1.17883e-05 0)
(0.100121 -1.29106e-05 0)
(0.100163 -1.82992e-05 0)
(0.100158 -1.45356e-05 0)
(0.1002 -1.93147e-05 0)
(0.0986013 -0.000349627 0)
(0.0986839 -0.000327967 0)
(0.0987628 -0.000307397 0)
(0.0988382 -0.00028788 0)
(0.0989102 -0.000269387 0)
(0.0989789 -0.000251886 0)
(0.0990444 -0.000235343 0)
(0.0991069 -0.000219721 0)
(0.0991664 -0.00020498 0)
(0.099223 -0.000191083 0)
(0.0992768 -0.00017799 0)
(0.099328 -0.000165662 0)
(0.0993766 -0.00015406 0)
(0.0994227 -0.000143149 0)
(0.0994664 -0.000132893 0)
(0.0995077 -0.000123258 0)
(0.0995469 -0.00011421 0)
(0.0995839 -0.00010572 0)
(0.0996188 -9.77582e-05 0)
(0.0996517 -9.0296e-05 0)
(0.0996828 -8.33069e-05 0)
(0.0997119 -7.67657e-05 0)
(0.0997394 -7.06486e-05 0)
(0.0997651 -6.4933e-05 0)
(0.0997892 -5.95974e-05 0)
(0.0998118 -5.46216e-05 0)
(0.0998329 -4.99859e-05 0)
(0.0998526 -4.56719e-05 0)
(0.0998709 -4.16617e-05 0)
(0.099888 -3.79386e-05 0)
(0.0999038 -3.44864e-05 0)
(0.0999184 -3.12901e-05 0)
(0.099932 -2.83354e-05 0)
(0.0999445 -2.5609e-05 0)
(0.099956 -2.3098e-05 0)
(0.0999666 -2.079e-05 0)
(0.0999764 -1.86732e-05 0)
(0.0999852 -1.67362e-05 0)
(0.0999934 -1.49678e-05 0)
(0.100001 -1.33581e-05 0)
(0.100008 -1.18971e-05 0)
(0.100014 -1.0577e-05 0)
(0.100019 -9.3877e-06 0)
(0.100024 -8.32521e-06 0)
(0.100029 -7.37604e-06 0)
(0.100033 -6.54494e-06 0)
(0.100037 -5.80708e-06 0)
(0.10004 -5.18886e-06 0)
(0.100043 -4.63427e-06 0)
(0.100045 -4.2216e-06 0)
(0.100049 -3.82093e-06 0)
(0.10005 -3.62328e-06 0)
(0.100054 -3.34262e-06 0)
(0.100054 -3.38972e-06 0)
(0.10006 -3.19064e-06 0)
(0.100057 -3.53343e-06 0)
(0.100067 -3.38661e-06 0)
(0.10006 -4.08312e-06 0)
(0.100076 -3.99775e-06 0)
(0.100064 -5.07243e-06 0)
(0.100086 -5.15322e-06 0)
(0.100069 -6.54222e-06 0)
(0.1001 -7.0338e-06 0)
(0.100079 -8.61352e-06 0)
(0.100116 -9.70631e-06 0)
(0.100096 -1.16244e-05 0)
(0.100136 -1.33422e-05 0)
(0.100122 -1.44288e-05 0)
(0.100162 -2.04376e-05 0)
(0.100158 -1.65589e-05 0)
(0.1002 -2.1728e-05 0)
(0.0986115 -0.00038668 0)
(0.0986933 -0.000362696 0)
(0.0987716 -0.000339935 0)
(0.0988463 -0.000318351 0)
(0.0989177 -0.000297906 0)
(0.0989858 -0.000278562 0)
(0.0990508 -0.00026028 0)
(0.0991128 -0.000243016 0)
(0.0991718 -0.000226726 0)
(0.099228 -0.000211368 0)
(0.0992814 -0.000196898 0)
(0.0993322 -0.000183271 0)
(0.0993804 -0.000170448 0)
(0.0994262 -0.000158386 0)
(0.0994696 -0.000147047 0)
(0.0995107 -0.000136393 0)
(0.0995496 -0.000126389 0)
(0.0995863 -0.000117 0)
(0.0996211 -0.000108194 0)
(0.0996538 -9.99396e-05 0)
(0.0996846 -9.22083e-05 0)
(0.0997137 -8.49719e-05 0)
(0.0997409 -7.82042e-05 0)
(0.0997665 -7.18802e-05 0)
(0.0997905 -6.59763e-05 0)
(0.099813 -6.047e-05 0)
(0.099834 -5.53398e-05 0)
(0.0998535 -5.05652e-05 0)
(0.0998718 -4.61268e-05 0)
(0.0998887 -4.20058e-05 0)
(0.0999045 -3.81847e-05 0)
(0.0999191 -3.46467e-05 0)
(0.0999325 -3.1376e-05 0)
(0.099945 -2.83579e-05 0)
(0.0999565 -2.5578e-05 0)
(0.099967 -2.30227e-05 0)
(0.0999767 -2.0679e-05 0)
(0.0999855 -1.85343e-05 0)
(0.0999936 -1.65762e-05 0)
(0.100001 -1.47939e-05 0)
(0.100008 -1.31762e-05 0)
(0.100014 -1.17145e-05 0)
(0.100019 -1.03977e-05 0)
(0.100024 -9.22107e-06 0)
(0.100029 -8.17031e-06 0)
(0.100033 -7.24959e-06 0)
(0.100037 -6.43326e-06 0)
(0.10004 -5.74766e-06 0)
(0.100043 -5.13524e-06 0)
(0.100045 -4.67591e-06 0)
(0.100049 -4.23577e-06 0)
(0.10005 -4.01204e-06 0)
(0.100054 -3.70787e-06 0)
(0.100054 -3.75147e-06 0)
(0.10006 -3.54208e-06 0)
(0.100057 -3.9086e-06 0)
(0.100067 -3.76173e-06 0)
(0.10006 -4.51604e-06 0)
(0.100076 -4.44017e-06 0)
(0.100064 -5.61244e-06 0)
(0.100086 -5.72007e-06 0)
(0.100069 -7.24261e-06 0)
(0.1001 -7.80718e-06 0)
(0.100079 -9.52754e-06 0)
(0.100116 -1.08064e-05 0)
(0.100096 -1.27993e-05 0)
(0.100135 -1.4925e-05 0)
(0.100122 -1.59309e-05 0)
(0.100161 -2.25519e-05 0)
(0.100159 -1.86471e-05 0)
(0.1002 -2.41546e-05 0)
(0.0986227 -0.000423396 0)
(0.0987037 -0.000397108 0)
(0.0987812 -0.000372176 0)
(0.0988553 -0.000348545 0)
(0.098926 -0.000326169 0)
(0.0989935 -0.000305004 0)
(0.0990579 -0.000285001 0)
(0.0991193 -0.000266114 0)
(0.0991778 -0.000248293 0)
(0.0992335 -0.00023149 0)
(0.0992865 -0.000215657 0)
(0.0993368 -0.000200747 0)
(0.0993847 -0.000186714 0)
(0.0994301 -0.000173512 0)
(0.0994732 -0.000161101 0)
(0.099514 -0.000149438 0)
(0.0995526 -0.000138485 0)
(0.0995891 -0.000128205 0)
(0.0996235 -0.000118562 0)
(0.0996561 -0.000109523 0)
(0.0996867 -0.000101055 0)
(0.0997155 -9.31287e-05 0)
(0.0997426 -8.57151e-05 0)
(0.0997681 -7.87871e-05 0)
(0.0997919 -7.23187e-05 0)
(0.0998142 -6.62855e-05 0)
(0.0998351 -6.06641e-05 0)
(0.0998546 -5.5432e-05 0)
(0.0998727 -5.05679e-05 0)
(0.0998896 -4.60516e-05 0)
(0.0999052 -4.18637e-05 0)
(0.0999197 -3.79859e-05 0)
(0.0999331 -3.44011e-05 0)
(0.0999455 -3.10928e-05 0)
(0.0999569 -2.80455e-05 0)
(0.0999674 -2.52444e-05 0)
(0.0999771 -2.26749e-05 0)
(0.0999859 -2.03235e-05 0)
(0.0999939 -1.81768e-05 0)
(0.100001 -1.62227e-05 0)
(0.100008 -1.44491e-05 0)
(0.100014 -1.28465e-05 0)
(0.100019 -1.14029e-05 0)
(0.100024 -1.01127e-05 0)
(0.100029 -8.96087e-06 0)
(0.100033 -7.95101e-06 0)
(0.100037 -7.05657e-06 0)
(0.10004 -6.30395e-06 0)
(0.100043 -5.63394e-06 0)
(0.100045 -5.12828e-06 0)
(0.100049 -4.64875e-06 0)
(0.10005 -4.39929e-06 0)
(0.100054 -4.0715e-06 0)
(0.100054 -4.11203e-06 0)
(0.10006 -3.89195e-06 0)
(0.100057 -4.28284e-06 0)
(0.100067 -4.13516e-06 0)
(0.10006 -4.94821e-06 0)
(0.100076 -4.88062e-06 0)
(0.100064 -6.15174e-06 0)
(0.100086 -6.2847e-06 0)
(0.100069 -7.94186e-06 0)
(0.100099 -8.5794e-06 0)
(0.100079 -1.04367e-05 0)
(0.100115 -1.19141e-05 0)
(0.100096 -1.39539e-05 0)
(0.100135 -1.65351e-05 0)
(0.100123 -1.74176e-05 0)
(0.100161 -2.46439e-05 0)
(0.100159 -2.07977e-05 0)
(0.100201 -2.6595e-05 0)
(0.0986349 -0.000459737 0)
(0.0987151 -0.000431167 0)
(0.0987918 -0.000404088 0)
(0.098865 -0.000378435 0)
(0.098935 -0.000354152 0)
(0.0990018 -0.000331188 0)
(0.0990655 -0.000309488 0)
(0.0991263 -0.000288998 0)
(0.0991843 -0.000269664 0)
(0.0992394 -0.000251434 0)
(0.0992919 -0.000234255 0)
(0.0993419 -0.000218076 0)
(0.0993893 -0.000202846 0)
(0.0994343 -0.000188518 0)
(0.0994771 -0.000175045 0)
(0.0995175 -0.000162384 0)
(0.0995558 -0.000150492 0)
(0.099592 -0.000139329 0)
(0.0996263 -0.000128857 0)
(0.0996585 -0.000119039 0)
(0.099689 -0.000109841 0)
(0.0997176 -0.000101231 0)
(0.0997445 -9.31769e-05 0)
(0.0997698 -8.56496e-05 0)
(0.0997935 -7.86211e-05 0)
(0.0998156 -7.20649e-05 0)
(0.0998364 -6.59557e-05 0)
(0.0998557 -6.02693e-05 0)
(0.0998737 -5.49825e-05 0)
(0.0998905 -5.00735e-05 0)
(0.099906 -4.55212e-05 0)
(0.0999205 -4.13059e-05 0)
(0.0999338 -3.74088e-05 0)
(0.0999461 -3.38123e-05 0)
(0.0999574 -3.04993e-05 0)
(0.0999679 -2.74536e-05 0)
(0.0999774 -2.46598e-05 0)
(0.0999862 -2.2103e-05 0)
(0.0999942 -1.97687e-05 0)
(0.100001 -1.76437e-05 0)
(0.100008 -1.57152e-05 0)
(0.100014 -1.39725e-05 0)
(0.10002 -1.24028e-05 0)
(0.100025 -1.09996e-05 0)
(0.100029 -9.74724e-06 0)
(0.100033 -8.64873e-06 0)
(0.100037 -7.6766e-06 0)
(0.10004 -6.85736e-06 0)
(0.100043 -6.13005e-06 0)
(0.100045 -5.57836e-06 0)
(0.100049 -5.05961e-06 0)
(0.10005 -4.78468e-06 0)
(0.100054 -4.4333e-06 0)
(0.100054 -4.47106e-06 0)
(0.10006 -4.24013e-06 0)
(0.100057 -4.65576e-06 0)
(0.100067 -4.50684e-06 0)
(0.10006 -5.37918e-06 0)
(0.100076 -5.31903e-06 0)
(0.100063 -6.68988e-06 0)
(0.100086 -6.84695e-06 0)
(0.100069 -8.63957e-06 0)
(0.100099 -9.35006e-06 0)
(0.100079 -1.13409e-05 0)
(0.100115 -1.30285e-05 0)
(0.100096 -1.50892e-05 0)
(0.100134 -1.81699e-05 0)
(0.100123 -1.88899e-05 0)
(0.10016 -2.67158e-05 0)
(0.100159 -2.30068e-05 0)
(0.100201 -2.90498e-05 0)
(0.0986482 -0.000495663 0)
(0.0987274 -0.00046484 0)
(0.0988032 -0.000435643 0)
(0.0988756 -0.000407995 0)
(0.0989447 -0.000381832 0)
(0.0990108 -0.000357093 0)
(0.0990738 -0.000333719 0)
(0.099134 -0.000311649 0)
(0.0991913 -0.000290824 0)
(0.0992459 -0.000271186 0)
(0.0992979 -0.000252678 0)
(0.0993473 -0.000235246 0)
(0.0993943 -0.000218834 0)
(0.099439 -0.000203393 0)
(0.0994813 -0.000188871 0)
(0.0995214 -0.000175222 0)
(0.0995594 -0.000162401 0)
(0.0995953 -0.000150365 0)
(0.0996292 -0.000139072 0)
(0.0996612 -0.000128483 0)
(0.0996914 -0.000118562 0)
(0.0997198 -0.000109274 0)
(0.0997465 -0.000100585 0)
(0.0997716 -9.24636e-05 0)
(0.0997951 -8.48797e-05 0)
(0.0998171 -7.78049e-05 0)
(0.0998377 -7.12118e-05 0)
(0.0998569 -6.50745e-05 0)
(0.0998748 -5.93682e-05 0)
(0.0998915 -5.40693e-05 0)
(0.0999069 -4.91553e-05 0)
(0.0999212 -4.46048e-05 0)
(0.0999345 -4.03977e-05 0)
(0.0999467 -3.65148e-05 0)
(0.099958 -3.29378e-05 0)
(0.0999684 -2.96493e-05 0)
(0.0999779 -2.66326e-05 0)
(0.0999866 -2.38716e-05 0)
(0.0999945 -2.13509e-05 0)
(0.100002 -1.90562e-05 0)
(0.100008 -1.69736e-05 0)
(0.100014 -1.50916e-05 0)
(0.10002 -1.33966e-05 0)
(0.100025 -1.18812e-05 0)
(0.100029 -1.05289e-05 0)
(0.100033 -9.34228e-06 0)
(0.100037 -8.29292e-06 0)
(0.10004 -7.40748e-06 0)
(0.100043 -6.62321e-06 0)
(0.100045 -6.02582e-06 0)
(0.100049 -5.46805e-06 0)
(0.10005 -5.16793e-06 0)
(0.100054 -4.793e-06 0)
(0.100054 -4.82826e-06 0)
(0.10006 -4.58634e-06 0)
(0.100057 -5.02707e-06 0)
(0.100067 -4.87646e-06 0)
(0.10006 -5.80866e-06 0)
(0.100075 -5.75507e-06 0)
(0.100063 -7.22657e-06 0)
(0.100086 -7.4064e-06 0)
(0.100069 -9.33548e-06 0)
(0.100099 -1.01186e-05 0)
(0.100079 -1.22402e-05 0)
(0.100115 -1.4148e-05 0)
(0.100096 -1.62069e-05 0)
(0.100134 -1.98263e-05 0)
(0.100123 -2.03487e-05 0)
(0.100159 -2.87704e-05 0)
(0.100158 -2.5269e-05 0)
(0.100201 -3.15193e-05 0)
(0.0986625 -0.000531135 0)
(0.0987407 -0.000498093 0)
(0.0988154 -0.00046681 0)
(0.0988869 -0.000437197 0)
(0.0989552 -0.000409183 0)
(0.0990205 -0.000382698 0)
(0.0990827 -0.000357676 0)
(0.0991422 -0.00033405 0)
(0.0991989 -0.000311755 0)
(0.0992529 -0.00029073 0)
(0.0993043 -0.000270913 0)
(0.0993532 -0.000252244 0)
(0.0993998 -0.000234667 0)
(0.0994439 -0.000218126 0)
(0.0994858 -0.000202569 0)
(0.0995256 -0.000187945 0)
(0.0995632 -0.000174205 0)
(0.0995988 -0.000161305 0)
(0.0996324 -0.0001492 0)
(0.0996642 -0.000137849 0)
(0.0996941 -0.000127213 0)
(0.0997223 -0.000117253 0)
(0.0997487 -0.000107935 0)
(0.0997736 -9.92252e-05 0)
(0.0997969 -9.10909e-05 0)
(0.0998188 -8.35019e-05 0)
(0.0998392 -7.64291e-05 0)
(0.0998583 -6.98448e-05 0)
(0.099876 -6.37224e-05 0)
(0.0998925 -5.80367e-05 0)
(0.0999079 -5.27638e-05 0)
(0.0999221 -4.78807e-05 0)
(0.0999353 -4.33658e-05 0)
(0.0999474 -3.91987e-05 0)
(0.0999586 -3.53597e-05 0)
(0.0999689 -3.18301e-05 0)
(0.0999783 -2.8592e-05 0)
(0.0999869 -2.56283e-05 0)
(0.0999948 -2.29224e-05 0)
(0.100002 -2.04592e-05 0)
(0.100009 -1.82236e-05 0)
(0.100015 -1.62033e-05 0)
(0.10002 -1.43837e-05 0)
(0.100025 -1.27568e-05 0)
(0.100029 -1.13053e-05 0)
(0.100033 -1.00312e-05 0)
(0.100037 -8.9051e-06 0)
(0.10004 -7.95392e-06 0)
(0.100043 -7.11303e-06 0)
(0.100045 -6.47032e-06 0)
(0.100049 -5.87373e-06 0)
(0.10005 -5.54873e-06 0)
(0.100054 -5.15029e-06 0)
(0.100054 -5.18338e-06 0)
(0.10006 -4.93029e-06 0)
(0.100057 -5.39653e-06 0)
(0.100067 -5.24372e-06 0)
(0.10006 -6.2364e-06 0)
(0.100075 -6.18836e-06 0)
(0.100063 -7.76154e-06 0)
(0.100086 -7.9626e-06 0)
(0.100069 -1.00294e-05 0)
(0.100099 -1.08842e-05 0)
(0.100078 -1.31347e-05 0)
(0.100115 -1.5271e-05 0)
(0.100095 -1.73085e-05 0)
(0.100133 -2.1501e-05 0)
(0.100123 -2.17957e-05 0)
(0.100158 -3.08108e-05 0)
(0.100158 -2.75784e-05 0)
(0.100201 -3.40039e-05 0)
(0.0986778 -0.000566115 0)
(0.0987549 -0.000530891 0)
(0.0988286 -0.000497558 0)
(0.098899 -0.000466016 0)
(0.0989664 -0.000436183 0)
(0.0990308 -0.000407982 0)
(0.0990923 -0.00038134 0)
(0.099151 -0.000356183 0)
(0.099207 -0.000332443 0)
(0.0992604 -0.000310052 0)
(0.0993112 -0.000288946 0)
(0.0993596 -0.00026906 0)
(0.0994056 -0.000250334 0)
(0.0994493 -0.000232709 0)
(0.0994907 -0.00021613 0)
(0.0995301 -0.000200543 0)
(0.0995673 -0.000185897 0)
(0.0996025 -0.000172143 0)
(0.0996359 -0.000159236 0)
(0.0996673 -0.000147131 0)
(0.0996969 -0.000135787 0)
(0.0997249 -0.000125163 0)
(0.0997511 -0.000115223 0)
(0.0997758 -0.00010593 0)
(0.0997989 -9.72511e-05 0)
(0.0998206 -8.91528e-05 0)
(0.0998408 -8.16048e-05 0)
(0.0998597 -7.45774e-05 0)
(0.0998773 -6.80425e-05 0)
(0.0998937 -6.19735e-05 0)
(0.0999089 -5.63446e-05 0)
(0.099923 -5.11317e-05 0)
(0.0999361 -4.63116e-05 0)
(0.0999481 -4.18625e-05 0)
(0.0999592 -3.77635e-05 0)
(0.0999694 -3.39947e-05 0)
(0.0999788 -3.05369e-05 0)
(0.0999874 -2.7372e-05 0)
(0.0999952 -2.44824e-05 0)
(0.100002 -2.18518e-05 0)
(0.100009 -1.94644e-05 0)