/*--------------------------------*- C++ -*----------------------------------*\
| =========                 |                                                 |
| \\      /  F ield         | OpenFOAM: The Open Source CFD Toolbox           |
|  \\    /   O peration     | Version:  2412                                  |
|   \\  /    A nd           | Website:  www.openfoam.com                      |
|    \\/     M anipulation  |                                                 |
\*---------------------------------------------------------------------------*/
FoamFile
{
    version     2.0;
    format      ascii;
    arch        "LSB;label=32;scalar=64";
    class       volScalarField;
    location    "14";
    object      p;
}
// * * * * * * * * * * * * * * * * * * * * * * * * * * * * * * * * * * * * * //

dimensions      [0 2 -2 0 0 0 0];

internalField   nonuniform List<scalar> 
5285
(
-0.000751071
-0.000693927
-0.000715732
-0.000726934
-0.000736731
-0.000744275
-0.000748557
-0.00074972
-0.000748063
-0.000743782
-0.000737059
-0.000728094
-0.000717097
-0.00070428
-0.000689851
-0.000674017
-0.000656981
-0.000638937
-0.000620071
-0.000600559
-0.000580569
-0.000560254
-0.000539756
-0.000519204
-0.000641065
-0.000662019
-0.000673556
-0.000683736
-0.00069181
-0.000696889
-0.000699095
-0.000698687
-0.000695836
-0.000690701
-0.000683459
-0.000674295
-0.000663396
-0.00065095
-0.000637143
-0.000622155
-0.000606164
-0.000589339
-0.000571843
-0.000553827
-0.000535435
-0.000516798
-0.00049804
-0.000592076
-0.000612218
-0.000623996
-0.000634465
-0.000642963
-0.000648705
-0.000651801
-0.000652473
-0.000650871
-0.000647132
-0.000641413
-0.000633878
-0.000624693
-0.000614026
-0.000602042
-0.000588907
-0.00057478
-0.000559815
-0.00054416
-0.000527955
-0.000511333
-0.000494417
-0.00047732
-0.000546599
-0.000565967
-0.000577913
-0.000588593
-0.000597422
-0.000603718
-0.000607571
-0.000609176
-0.000608662
-0.00060615
-0.000601778
-0.000595691
-0.000588037
-0.000578965
-0.000568625
-0.000557164
-0.000544728
-0.000531456
-0.000517484
-0.000502941
-0.000487947
-0.000472619
-0.000457062
-0.00050431
-0.000522942
-0.000534995
-0.000545821
-0.000554908
-0.00056166
-0.000566157
-0.000568567
-0.000569002
-0.000567569
-0.000564388
-0.000559588
-0.000553301
-0.00054566
-0.0005368
-0.000526853
-0.000515951
-0.000504221
-0.000491787
-0.000478766
-0.000465271
-0.000451409
-0.000437278
-0.000464918
-0.000482855
-0.000494961
-0.000505878
-0.00051516
-0.000522288
-0.000527331
-0.000530435
-0.000531697
-0.000531211
-0.000529083
-0.000525428
-0.000520362
-0.000514006
-0.000506479
-0.000497902
-0.000488392
-0.000478066
-0.000467037
-0.000455412
-0.000443296
-0.000430787
-0.000417977
-0.000428166
-0.000445443
-0.00045756
-0.000468524
-0.000477946
-0.000485381
-0.000490886
-0.000494587
-0.000496569
-0.000496915
-0.00049572
-0.000493083
-0.000489109
-0.000483906
-0.00047758
-0.000470241
-0.000461996
-0.000452949
-0.000443204
-0.00043286
-0.000422013
-0.000410753
-0.000399166
-0.000393822
-0.00041047
-0.000422567
-0.000433542
-0.000443061
-0.000450742
-0.000456635
-0.00046085
-0.000463459
-0.000464537
-0.000464165
-0.000462434
-0.000459437
-0.000455268
-0.000450026
-0.000443808
-0.00043671
-0.000428829
-0.000420259
-0.000411089
-0.000401409
-0.000391301
-0.000380847
-0.000361685
-0.000377736
-0.000389784
-0.000400739
-0.000410317
-0.000418193
-0.000424413
-0.000429067
-0.000432222
-0.000433941
-0.000434298
-0.000433373
-0.000431248
-0.00042801
-0.000423744
-0.00041854
-0.000412485
-0.000405666
-0.000398169
-0.000390076
-0.00038147
-0.000372427
-0.000363021
-0.00033157
-0.000347056
-0.00035903
-0.000369939
-0.000379545
-0.000387574
-0.000394064
-0.000399095
-0.000402723
-0.000405005
-0.000406007
-0.000405798
-0.000404454
-0.00040205
-0.000398666
-0.00039438
-0.000389271
-0.00038342
-0.000376905
-0.0003698
-0.000362182
-0.000354121
-0.000345686
-0.000303313
-0.000318263
-0.000330144
-0.000340987
-0.000350593
-0.000358737
-0.00036545
-0.000370801
-0.00037484
-0.000377616
-0.000379187
-0.000379616
-0.00037897
-0.000377316
-0.000374726
-0.000371271
-0.000367023
-0.000362054
-0.000356436
-0.000350238
-0.000343529
-0.000336374
-0.000328838
-0.000276765
-0.000291207
-0.000302979
-0.000313738
-0.000323323
-0.000331549
-0.000338445
-0.000344068
-0.000348461
-0.00035167
-0.000353744
-0.00035474
-0.000354717
-0.000353737
-0.000351863
-0.000349161
-0.000345695
-0.000341531
-0.000336733
-0.000331367
-0.000325494
-0.000319176
-0.000312472
-0.000251793
-0.000265753
-0.000277403
-0.000288064
-0.000297609
-0.00030589
-0.000312933
-0.000318785
-0.000323484
-0.00032707
-0.000329588
-0.000331088
-0.000331623
-0.000331249
-0.000330021
-0.000328001
-0.000325245
-0.000321814
-0.000317768
-0.000313164
-0.000308062
-0.000302516
-0.000296582
-0.000228275
-0.000241778
-0.000253295
-0.000263848
-0.000273336
-0.00028165
-0.000288808
-0.000294852
-0.000299814
-0.00030373
-0.000306639
-0.000308587
-0.000309621
-0.00030979
-0.000309146
-0.000307742
-0.000305633
-0.000302871
-0.000299512
-0.000295608
-0.000291214
-0.000286381
-0.00028116
-0.000206101
-0.000219171
-0.000230548
-0.000240982
-0.000250402
-0.000258727
-0.000265974
-0.000272177
-0.000277365
-0.000281567
-0.000284821
-0.000287167
-0.000288646
-0.000289303
-0.000289186
-0.000288341
-0.000286819
-0.000284667
-0.000281937
-0.000278676
-0.000274934
-0.000270759
-0.000266198
-0.000185171
-0.000197832
-0.000209062
-0.00021937
-0.000228711
-0.00023703
-0.000244343
-0.000250677
-0.000256055
-0.000260507
-0.000264065
-0.000266763
-0.00026864
-0.000269736
-0.000270094
-0.000269756
-0.000268767
-0.000267172
-0.000265017
-0.000262346
-0.000259205
-0.000255637
-0.000251687
-0.000165398
-0.000177671
-0.000188748
-0.000198924
-0.000208176
-0.000216476
-0.000223834
-0.000230273
-0.000235814
-0.000240481
-0.000244305
-0.000247316
-0.000249548
-0.000251038
-0.000251824
-0.000251945
-0.000251442
-0.000250355
-0.000248727
-0.000246598
-0.000244009
-0.000241003
-0.000237618
-0.000146707
-0.000158611
-0.000169525
-0.000179562
-0.000188719
-0.000196986
-0.000204372
-0.000210894
-0.000216571
-0.000221425
-0.000225482
-0.00022877
-0.000231319
-0.000233163
-0.000234335
-0.000234872
-0.000234811
-0.000234187
-0.000233041
-0.000231409
-0.00022933
-0.000226841
-0.00022398
-0.000539174
-0.00057904
-0.00049489
-0.000532436
-0.00056893
-0.000604306
-0.000638613
-0.000671251
-0.000700828
-0.000453744
-0.000489176
-0.000523588
-0.000556918
-0.000589197
-0.000619883
-0.000647804
-0.000415457
-0.000448957
-0.000481465
-0.000512923
-0.000543353
-0.000572265
-0.000598673
-0.000379784
-0.000411511
-0.000442273
-0.000472016
-0.000500756
-0.000528049
-0.000553068
-0.000346494
-0.000376592
-0.000405752
-0.000433922
-0.000461113
-0.000486926
-0.000510666
-0.000315377
-0.000343976
-0.000371662
-0.000398387
-0.000424155
-0.000448612
-0.000471172
-0.00028625
-0.000313466
-0.000339792
-0.000365185
-0.000389644
-0.000412854
-0.000434324
-0.000258949
-0.000284884
-0.000309954
-0.000334117
-0.000357367
-0.000379429
-0.00039989
-0.000233325
-0.000258073
-0.00028198
-0.000305004
-0.000327138
-0.00034814
-0.000367663
-0.000209243
-0.00023289
-0.000255717
-0.000277685
-0.000298785
-0.000318807
-0.00033746
-0.00018658
-0.000209204
-0.000231028
-0.000252016
-0.000272157
-0.00029127
-0.000309113
-0.000165225
-0.0001869
-0.000207792
-0.000227868
-0.000247117
-0.000265387
-0.000282475
-0.000145089
-0.000165876
-0.000185897
-0.000205123
-0.000223542
-0.000241026
-0.000257411
-0.000126082
-0.000146035
-0.000165242
-0.000183674
-0.000201319
-0.000218071
-0.000233798
-0.000108118
-0.000127291
-0.000145735
-0.000163426
-0.000180347
-0.000196416
-0.000211527
-9.11217e-05
-0.000109563
-0.000127294
-0.000144289
-0.000160533
-0.000175963
-0.000190498
-7.50251e-05
-9.278e-05
-0.000109841
-0.000126184
-0.000141794
-0.000156624
-0.000170619
-5.97672e-05
-7.68745e-05
-9.3304e-05
-0.000109034
-0.000124051
-0.000138323
-0.000151814
-4.5294e-05
-6.17998e-05
-7.7641e-05
-9.27981e-05
-0.000107257
-0.000121002
-0.000134011
-0.000456557
-0.000498319
-0.00020848
-0.000255216
-0.000295198
-0.000335757
-0.000376714
-0.000416991
-0.000456382
-0.000182945
-0.000226897
-0.000264865
-0.000303323
-0.000342073
-0.000380153
-0.00041738
-0.000158912
-0.000200336
-0.000236468
-0.000273003
-0.000309734
-0.000345806
-0.00038105
-0.000136283
-0.000175409
-0.00020986
-0.000244632
-0.000279511
-0.000313741
-0.000347171
-0.000114963
-0.000151995
-0.000184903
-0.000218053
-0.000251231
-0.000283769
-0.000315531
-9.48611e-05
-0.000129978
-0.000161466
-0.00019312
-0.000224731
-0.00025571
-0.000285934
-7.58926e-05
-0.000109256
-0.000139432
-0.000169704
-0.000199868
-0.000229407
-0.000258211
-5.79809e-05
-8.97339e-05
-0.000118696
-0.000147686
-0.000176511
-0.000204719
-0.000232208
-4.1055e-05
-7.13262e-05
-9.916e-05
-0.00012696
-0.000154544
-0.000181518
-0.000207789
-2.50491e-05
-5.39539e-05
-8.07373e-05
-0.000107429
-0.000133859
-0.000159684
-0.000184827
-9.90255e-06
-3.75448e-05
-6.33478e-05
-8.90044e-05
-0.000114356
-0.000139107
-0.000163201
4.44068e-06
-2.20328e-05
-4.69188e-05
-7.16074e-05
-9.59577e-05
-0.000119728
-0.000142816
1.80325e-05
-7.35706e-06
-3.13834e-05
-5.51653e-05
-7.85739e-05
-0.000101403
-0.000123582
3.09207e-05
6.53817e-06
-1.66808e-05
-3.96122e-05
-6.21418e-05
-8.40988e-05
-0.000105423
4.31495e-05
1.97042e-05
-2.75466e-06
-2.4887e-05
-4.65962e-05
-6.77351e-05
-8.82536e-05
5.47598e-05
3.2188e-05
1.04469e-05
-1.09328e-05
-3.18687e-05
-5.22392e-05
-7.20018e-05
6.57901e-05
4.40298e-05
2.29631e-05
2.2968e-06
-1.79042e-05
-3.75536e-05
-5.66054e-05
7.62745e-05
5.52782e-05
3.48535e-05
1.48585e-05
-4.65759e-06
-2.36273e-05
-4.20081e-05
8.62546e-05
6.59832e-05
4.61762e-05
2.6816e-05
7.94262e-06
-1.03923e-05
-2.81486e-05
0.00100678
0.000997276
0.000986723
0.000975048
0.000962178
0.000948039
0.000932557
0.000915654
0.000897253
0.000877278
0.000855653
0.000832303
0.000807159
0.000780152
0.000751223
0.000720317
0.00068739
0.000652405
0.000615341
0.000576189
0.000534958
0.000491674
0.000446382
0.000399151
0.000350074
0.000299266
0.000246873
0.000193064
0.000138038
8.20201e-05
2.52574e-05
-3.20191e-05
-8.92148e-05
-0.000145398
0.000984386
0.000974478
0.000963546
0.000951528
0.000938356
0.000923965
0.000908285
0.000891248
0.000872785
0.000852829
0.000831313
0.000808174
0.00078335
0.000756786
0.000728432
0.000698244
0.000666188
0.000632239
0.000596385
0.000558626
0.000518978
0.000477473
0.000434162
0.000389116
0.000342426
0.000294207
0.000244596
0.000193754
0.000141866
8.91413e-05
3.58056e-05
-1.79304e-05
-7.1527e-05
-0.000124139
0.000962876
0.000952616
0.000941364
0.000929062
0.000915649
0.000901064
0.000885246
0.000868134
0.000849667
0.000829785
0.000808431
0.000785549
0.000761088
0.000735002
0.00070725
0.000677799
0.000646622
0.000613703
0.000579039
0.000542637
0.000504519
0.000464721
0.000423298
0.000380321
0.00033588
0.000290087
0.000243072
0.000194987
0.000146004
9.63161e-05
4.61306e-05
-4.36014e-06
-5.46675e-05
-0.000104027
0.000942224
0.000931664
0.000920144
0.000907611
0.00089401
0.000879286
0.000863383
0.000846248
0.000827827
0.000808067
0.000786918
0.000764334
0.000740271
0.000714691
0.000687561
0.000658857
0.000628559
0.000596659
0.000563161
0.000528076
0.000491431
0.000453268
0.000413641
0.000372622
0.000330299
0.00028678
0.000242188
0.000196666
0.000150373
0.000103488
5.62024e-05
8.69044e-06
-3.86056e-05
-8.49964e-05
0.000922406
0.000911594
0.000899854
0.000887139
0.000873398
0.000858582
0.000842642
0.00082553
0.000807197
0.0007876
0.000766694
0.00074444
0.000720802
0.000695749
0.000669255
0.000641302
0.000611878
0.000580982
0.000548619
0.00051481
0.000479583
0.000442981
0.00040506
0.000365893
0.000325564
0.000284176
0.000241846
0.000198707
0.000154908
0.000110615
6.60005e-05
2.12265e-05
-2.33081e-05
-6.69835e-05
0.000903399
0.000892377
0.000880461
0.000867607
0.00085377
0.000838906
0.00082297
0.00080592
0.000787715
0.000768315
0.000747683
0.000725786
0.000702594
0.000678082
0.000652232
0.00062503
0.000596471
0.000566557
0.0005353
0.000502722
0.000468855
0.000433744
0.000397445
0.000360027
0.000321575
0.000282184
0.000241966
0.000201046
0.000159561
0.000117664
7.55152e-05
3.32618e-05
-8.73647e-06
-4.99236e-05
0.000885178
0.000873986
0.000861934
0.000848981
0.000835086
0.000820211
0.000804316
0.000787364
0.000769318
0.000750144
0.000729812
0.000708293
0.000685564
0.000661604
0.0006364
0.000609945
0.000582237
0.000553283
0.000523099
0.000491707
0.000459144
0.000425454
0.000390693
0.000354929
0.000318242
0.000280724
0.000242479
0.000203625
0.000164289
0.000124612
8.4741e-05
4.48113e-05
5.14637e-06
-3.37567e-05
0.000867717
0.000856392
0.000844239
0.000831222
0.000817305
0.000802453
0.000786631
0.000769806
0.000751947
0.000733025
0.000713013
0.000691889
0.000669633
0.000646231
0.000621673
0.000595956
0.000569083
0.000541064
0.000511917
0.000481668
0.000450353
0.000418016
0.000384714
0.000350512
0.000315486
0.000279724
0.000243325
0.000206396
0.000169058
0.000131439
9.36747e-05
5.589e-05
1.8375e-05
-1.84275e-05
0.000850991
0.000839564
0.000827343
0.000814294
0.000800386
0.000785586
0.000769865
0.000753194
0.000735545
0.000716894
0.000697219
0.000676502
0.000654727
0.000631885
0.000607969
0.00058298
0.000556924
0.000529813
0.000501667
0.000472516
0.000442394
0.000411346
0.000379427
0.0003467
0.000313238
0.000279124
0.00024445
0.000209317
0.000173837
0.000138128
0.000102316
6.65137e-05
3.09827e-05
-3.88473e-06
0.000834973
0.000823474
0.000811214
0.000798162
0.000784289
0.000769568
0.000753972
0.000737476
0.000720057
0.000701694
0.00068237
0.000662068
0.000640779
0.000618495
0.000595214
0.000570939
0.000545679
0.000519449
0.00049227
0.000464171
0.000435188
0.000405367
0.000374759
0.000343425
0.000311435
0.000278867
0.000245808
0.000212352
0.000178602
0.000144668
0.000110665
7.6699e-05
4.30015e-05
9.91973e-06
0.000819637
0.000808093
0.000795819
0.000782789
0.000768976
0.000754357
0.000738907
0.000722605
0.000705432
0.00068737
0.000668405
0.000648525
0.000627722
0.000605993
0.000583338
0.000559763
0.000535277
0.000509899
0.00048365
0.000456561
0.000428667
0.000400011
0.000370645
0.000340627
0.000310023
0.000278907
0.00024736
0.000215471
0.000183334
0.000151051
0.000118728
8.64626e-05
5.44619e-05
2.30307e-05
0.000804956
0.000793392
0.000781129
0.000768142
0.000754411
0.000739912
0.000724626
0.000708534
0.00069162
0.000673869
0.00065527
0.000635815
0.000615498
0.000594317
0.000572277
0.000549384
0.000525652
0.000501096
0.000475743
0.00044962
0.000422764
0.000395216
0.000367028
0.000338253
0.000308954
0.000279202
0.000249072
0.000218647
0.000188014
0.000157269
0.000126507
9.5821e-05
6.5393e-05
3.54898e-05
0.000790907
0.000779343
0.00076711
0.000754188
0.000740556
0.000726195
0.000711087
0.000695218
0.000678574
0.000661141
0.000642913
0.000623883
0.000604048
0.000583409
0.000561972
0.000539744
0.00051674
0.00049298
0.000468486
0.000443288
0.000417422
0.000390928
0.000363854
0.000336254
0.000308186
0.000279715
0.000250914
0.000221859
0.000192631
0.000163318
0.00013401
0.000104791
7.58224e-05
4.73361e-05
0.000777462
0.000765918
0.000753735
0.000740893
0.000727377
0.000713168
0.000698252
0.000682616
0.000666249
0.000649141
0.000631285
0.000612679
0.000593321
0.000573215
0.000552366
0.000530785
0.000508488
0.000485493
0.000461824
0.000437511
0.000412589
0.000387096
0.000361079
0.000334589
0.00030768
0.000280415
0.00025286
0.000225088
0.000197173
0.000169197
0.000141242
0.000113388
8.57764e-05
5.86057e-05
0.000764597
0.00075309
0.000740973
0.000728228
0.00071484
0.000700796
0.000686082
0.000670688
0.000654603
0.000637823
0.000620341
0.000602156
0.000583269
0.000563684
0.00054341
0.000522457
0.000500842
0.000478584
0.000455707
0.00043224
0.000408217
0.000383676
0.000358661
0.000333219
0.000307403
0.000281272
0.000254888
0.000228318
0.000201632
0.000174904
0.000148212
0.00012163
9.52796e-05
6.93323e-05
0.000752289
0.000740834
0.000728797
0.000716161
0.000702914
0.000689045
0.000674541
0.000659394
0.000643598
0.000627146
0.000610036
0.000592268
0.000573844
0.00055477
0.000535055
0.000514712
0.000493755
0.000472206
0.000450089
0.000427431
0.000404265
0.000380628
0.000356561
0.000332111
0.000307327
0.000282264
0.000256979
0.000231536
0.000206
0.00018044
0.000154927
0.00012953
0.000104355
7.95472e-05
0.000740514
0.000729124
0.000717179
0.000704664
0.000691568
0.000677882
0.000663595
0.000648701
0.000633194
0.000617071
0.000600331
0.000582974
0.000565005
0.00054643
0.000527259
0.000507505
0.000487184
0.000466317
0.000444927
0.000423041
0.000400692
0.000377914
0.000354748
0.000331235
0.000307425
0.000283367
0.000259117
0.000234732
0.000210274
0.000185806
0.000161394
0.000137104
0.000113026
8.928e-05
0.000729248
0.000717936
0.000706093
0.000693709
0.000680773
0.000667276
0.000653211
0.000638573
0.000623357
0.000607562
0.000591188
0.000574236
0.000556712
0.000538623
0.00051998
0.000500797
0.000481089
0.000460877
0.000440183
0.000419036
0.000397465
0.000375503
0.00035319
0.000330565
0.000307674
0.000284564
0.000261287
0.000237896
0.000214448
0.000191004
0.000167623
0.000144366
0.000121312
9.85583e-05
0.00071847
0.000707246
0.000695515
0.000683269
0.000670499
0.000657198
0.000643359
0.000628979
0.000614054
0.000598584
0.000582571
0.000566017
0.000548928
0.000531313
0.000513182
0.00049455
0.000475432
0.000455849
0.000435823
0.000415381
0.00039455
0.000373365
0.000351861
0.000330077
0.000308054
0.000285838
0.000263477
0.00024102
0.000218522
0.000196036
0.00017362
0.00015133
0.000129231
0.000107406
0.000708369
0.000697239
0.000685627
0.000673523
0.000660921
0.000647815
0.0006342
0.000620073
0.000605432
0.000590278
0.000574613
0.000558441
0.000541769
0.000524604
0.00050696
0.000488848
0.000470287
0.000451296
0.000431895
0.000412112
0.000391974
0.000371511
0.000350759
0.000329754
0.000308535
0.000287146
0.00026563
0.000244035
0.00022241
0.000200807
0.000179276
0.000157872
0.000136647
0.000115663
0.000698795
0.000687767
0.000676277
0.00066432
0.000651889
0.000638979
0.000625586
0.000611709
0.000597348
0.000582502
0.000567176
0.000551374
0.000535103
0.000518372
0.000501193
0.00048358
0.000465549
0.00044712
0.000428313
0.000409154
0.000389668
0.000369887
0.000349842
0.000329568
0.000309103
0.000288487
0.000267762
0.000246971
0.000226161
0.000205379
0.000184673
0.000164093
0.000143689
0.000123511
0.000689443
0.000678524
0.000667165
0.000655362
0.000643108
0.000630399
0.000617235
0.000603612
0.000589532
0.000574997
0.00056001
0.000544577
0.000528705
0.000512403
0.000495685
0.000478562
0.000461052
0.000443173
0.000424946
0.000406395
0.000387545
0.000368425
0.000349066
0.000329501
0.000309764
0.000289894
0.00026993
0.000249914
0.000229887
0.000209894
0.000189981
0.000170193
0.000150576
0.000131178
0.000680314
0.000669512
0.000658292
0.000646648
0.000634577
0.000622076
0.000609143
0.000595779
0.000581983
0.000567759
0.000553111
0.000538045
0.000522569
0.000506692
0.000490427
0.000473787
0.000456787
0.000439447
0.000421787
0.000403828
0.000385596
0.000367118
0.000348423
0.000329543
0.00031051
0.00029136
0.00027213
0.000252858
0.000233584
0.00021435
0.000195197
0.000176168
0.000157307
0.000138656
0.00067141
0.000660732
0.000649657
0.00063818
0.000626298
0.000614008
0.000601311
0.000588206
0.000574696
0.000560784
0.000546474
0.000531773
0.000516689
0.000501232
0.000485413
0.000469247
0.000452748
0.000435934
0.000418826
0.000401444
0.000383813
0.000365958
0.000347906
0.000329688
0.000311334
0.000292878
0.000274354
0.000255799
0.000237249
0.000218742
0.000200319
0.000182018
0.00016388
0.000145945
0.000662732
0.000652185
0.00064126
0.000629955
0.000618266
0.000606193
0.000593734
0.000580892
0.000567669
0.000554068
0.000540095
0.000525756
0.000511059
0.000496016
0.000480636
0.000464934
0.000448925
0.000432626
0.000416056
0.000399235
0.000382187
0.000364935
0.000347506
0.000329927
0.000312229
0.000294442
0.000276598
0.000258731
0.000240876
0.000223069
0.000205345
0.000187742
0.000170296
0.000153046
0.000664333
0.000654279
0.00064387
0.000633102
0.000621974
0.000610483
0.000598628
0.00058641
0.000573832
0.000560896
0.000547605
0.000533966
0.000519986
0.000505673
0.000491037
0.000476089
0.000460842
0.000445312
0.000429515
0.000413469
0.000397193
0.00038071
0.000364043
0.000347216
0.000330255
0.000313189
0.000296046
0.000278856
0.000261651
0.000244463
0.000227326
0.000210273
0.000193338
0.000176556
0.000159961
0.000655983
0.000646054
0.000635788
0.000625182
0.000614235
0.000602944
0.000591311
0.000579336
0.000567022
0.000554373
0.000541391
0.000528084
0.000514459
0.000500523
0.000486287
0.000471763
0.000456962
0.0004419
0.000426592
0.000411056
0.00039531
0.000379375
0.000363273
0.000347028
0.000330664
0.000314206
0.000297683
0.000281123
0.000264554
0.000248007
0.000231512
0.000215102
0.000198807
0.000182659
0.000166691
0.000647855
0.000638056
0.000627938
0.000617498
0.000606735
0.000595648
0.000584239
0.000572508
0.000560459
0.000548095
0.000535421
0.000522442
0.000509167
0.000495604
0.000481761
0.000467652
0.000453287
0.000438681
0.00042385
0.000408809
0.000393577
0.000378174
0.000362619
0.000346936
0.000331147
0.000315276
0.00029935
0.000283394
0.000267436
0.000251503
0.000235625
0.00021983
0.000204148
0.000188608
0.000173239
0.000639948
0.000630285
0.000620319
0.000610049
0.000599473
0.000588593
0.000577408
0.000565922
0.000554137
0.000542057
0.000529688
0.000517034
0.000504105
0.000490907
0.000477451
0.000463748
0.000449809
0.000435648
0.00042128
0.000406721
0.000391988
0.000377098
0.000362073
0.000346932
0.000331697
0.000316392
0.000301039
0.000285664
0.000270293
0.00025495
0.000239662
0.000224457
0.000209361
0.000194402
0.000179608
0.000632262
0.000622739
0.00061293
0.000602832
0.000592447
0.000581774
0.000570815
0.000559574
0.000548052
0.000536255
0.000524187
0.000511855
0.000499265
0.000486427
0.00047335
0.000460044
0.000446521
0.000432793
0.000418876
0.000404784
0.000390533
0.000376142
0.000361627
0.00034701
0.000332309
0.000317548
0.000302747
0.00028793
0.000273121
0.000258343
0.000243622
0.000228981
0.000214447
0.000200044
0.000185798
0.000624797
0.000615418
0.000605768
0.000595846
0.000585652
0.000575189
0.000564457
0.000553459
0.0005422
0.000530683
0.000518913
0.000506897
0.000494642
0.000482157
0.00046945
0.000456532
0.000443414
0.000430109
0.000416629
0.00040299
0.000389207
0.000375297
0.000361275
0.000347163
0.000332977
0.000318739
0.000304468
0.000290187
0.000275918
0.000261682
0.000247502
0.000233403
0.000219406
0.000205535
0.000191813
0.000617552
0.00060832
0.000598832
0.000589088
0.000579088
0.000568834
0.000558329
0.000547574
0.000536575
0.000525335
0.000513859
0.000502155
0.000490229
0.000478089
0.000465745
0.000453205
0.000440482
0.000427587
0.000414533
0.000401333
0.000388002
0.000374556
0.000361011
0.000347385
0.000333694
0.000319959
0.000306198
0.000292431
0.000278679
0.000264963
0.000251303
0.00023772
0.000224237
0.000210875
0.000197655
0.000610525
0.000601444
0.00059212
0.000582555
0.00057275
0.000562706
0.000552426
0.000541913
0.000531171
0.000520205
0.00050902
0.000497622
0.000486019
0.000474217
0.000462227
0.000450057
0.000437718
0.000425221
0.000412579
0.000399804
0.000386911
0.000373913
0.000360828
0.00034767
0.000334456
0.000321204
0.000307932
0.000294659
0.000281403
0.000268184
0.000255021
0.000241934
0.000228942
0.000216067
0.000203326
0.000603716
0.000594786
0.000585629
0.000576244
0.000566634
0.0005568
0.000546745
0.000536472
0.000525985
0.000515289
0.00050439
0.000493293
0.000482005
0.000470534
0.000458889
0.000447079
0.000435113
0.000423003
0.00041076
0.000398397
0.000385926
0.000373362
0.000360719
0.000348012
0.000335257
0.000322469
0.000309667
0.000296867
0.000284086
0.000271344
0.000258656
0.000246043
0.000233522
0.000221111
0.000208829
0.000597121
0.000588346
0.000579356
0.000570153
0.000560737
0.000551112
0.00054128
0.000531245
0.00052101
0.00051058
0.000499962
0.000489159
0.000478181
0.000467033
0.000455725
0.000444264
0.000432661
0.000420926
0.00040907
0.000397105
0.000385042
0.000372896
0.000360679
0.000348406
0.000336091
0.00032375
0.000311398
0.000299052
0.000286727
0.00027444
0.000262208
0.000250048
0.000237976
0.00022601
0.000214167
0.00059074
0.00058212
0.000573299
0.000564277
0.000555056
0.000545638
0.000536028
0.000526227
0.000516241
0.000506073
0.00049573
0.000485217
0.00047454
0.000463708
0.000452727
0.000441606
0.000430356
0.000418984
0.000407502
0.000395921
0.000384253
0.000372509
0.000360702
0.000348846
0.000336955
0.000325042
0.000313122
0.000301211
0.000289322
0.000277471
0.000265675
0.000253948
0.000242307
0.000230766
0.000219341
0.000584569
0.000576106
0.000567453
0.000558612
0.000549585
0.000540374
0.000530982
0.000521413
0.000511672
0.000501761
0.000491688
0.000481458
0.000471076
0.000460551
0.000449889
0.000439099
0.000428189
0.000417169
0.00040605
0.00039484
0.000383551
0.000372195
0.000360783
0.000349329
0.000337844
0.000326342
0.000314836
0.000303341
0.000291869
0.000280437
0.000269057
0.000257745
0.000246514
0.000235379
0.000224354
0.000578606
0.0005703
0.000561816
0.000553156
0.000544321
0.000535314
0.000526139
0.000516799
0.000507297
0.000497639
0.000487831
0.000477876
0.000467782
0.000457556
0.000447204
0.000436734
0.000426155
0.000415476
0.000404706
0.000393854
0.000382931
0.000371948
0.000360917
0.000349847
0.000338752
0.000327644
0.000316536
0.000305439
0.000294368
0.000283335
0.000272353
0.000261437
0.000250598
0.000239851
0.000229209
0.000572849
0.0005647
0.000556385
0.000547904
0.000539259
0.000530455
0.000521493
0.000512377
0.000503112
0.000493701
0.000484151
0.000474466
0.000464652
0.000454716
0.000444665
0.000434506
0.000424248
0.000413897
0.000403465
0.000392958
0.000382388
0.000371764
0.000361097
0.000350398
0.000339678
0.000328947
0.000318219
0.000307504
0.000296815
0.000286164
0.000275563
0.000265025
0.000254562
0.000244185
0.000233908
0.000567293
0.000559302
0.000551154
0.000542851
0.000534396
0.00052579
0.000517039
0.000508144
0.00049911
0.000489941
0.000480643
0.000471221
0.00046168
0.000452026
0.000442267
0.000432409
0.00042246
0.000412427
0.00040232
0.000392146
0.000381916
0.000371637
0.000361321
0.000350977
0.000340615
0.000330247
0.000319882
0.000309533
0.00029921
0.000288924
0.000278687
0.00026851
0.000258405
0.000248383
0.000238454
0.000561938
0.000554103
0.000546121
0.000537995
0.000529726
0.000521317
0.000512771
0.000504093
0.000495286
0.000486354
0.000477302
0.000468135
0.000458859
0.000449479
0.000440003
0.000430436
0.000420786
0.00041106
0.000401267
0.000391413
0.000381509
0.000371562
0.000361583
0.000351579
0.000341561
0.00033154
0.000321524
0.000311524
0.00030155
0.000291613
0.000281724
0.000271893
0.000262129
0.000252445
0.000242849
0.000556778
0.000549099
0.000541282
0.000533329
0.000525244
0.000517028
0.000508686
0.000500219
0.000491634
0.000482932
0.00047412
0.000465202
0.000456183
0.000447069
0.000437866
0.000428581
0.00041922
0.00040979
0.000400299
0.000390754
0.000381163
0.000371535
0.000361878
0.000352201
0.000342513
0.000332823
0.00032314
0.000313475
0.000303835
0.000294232
0.000284675
0.000275173
0.000265736
0.000256374
0.000247096
0.000551811
0.000544286
0.000536632
0.000528851
0.000520947
0.000512921
0.000504777
0.000496518
0.000488148
0.000479672
0.000471092
0.000462416
0.000453646
0.00044479
0.000435852
0.000426838
0.000417756
0.000408611
0.000399411
0.000390162
0.000380873
0.000371551
0.000362203
0.000352839
0.000343467
0.000334094
0.00032473
0.000315384
0.000306064
0.000296779
0.000287538
0.000278351
0.000269226
0.000260171
0.000251197
0.000547033
0.00053966
0.000532167
0.000524556
0.000516829
0.000508989
0.000501039
0.000492983
0.000484824
0.000476566
0.000468214
0.000459771
0.000451243
0.000442636
0.000433954
0.000425202
0.000416389
0.000407518
0.000398598
0.000389634
0.000380634
0.000371605
0.000362555
0.00035349
0.000344419
0.00033535
0.000326291
0.00031725
0.000308235
0.000299254
0.000290316
0.000281428
0.0002726
0.000263839
0.000255154
0.00054244
0.000535218
0.000527884
0.000520439
0.000512886
0.000505228
0.000497468
0.00048961
0.000481656
0.00047361
0.000465478
0.000457262
0.000448969
0.000440601
0.000432166
0.000423668
0.000415113
0.000406506
0.000397855
0.000389164
0.000380442
0.000371694
0.000362928
0.00035415
0.000345368
0.000336589
0.000327821
0.000319071
0.000310347
0.000301656
0.000293007
0.000284406
0.000275861
0.00026738
0.00025897
0.00053803
0.000530956
0.000523777
0.000516496
0.000509113
0.000501633
0.000494059
0.000486392
0.000478638
0.000470799
0.00046288
0.000454884
0.000446816
0.000438681
0.000430484
0.000422229
0.000413923
0.00040557
0.000397177
0.000388749
0.000380293
0.000371814
0.00036332
0.000354816
0.00034631
0.000337809
0.000329318
0.000320847
0.0003124
0.000303986
0.000295611
0.000287283
0.000279008
0.000270794
0.000262647
0.000533798
0.00052687
0.000519844
0.000512722
0.000505507
0.0004982
0.000490806
0.000483326
0.000475766
0.000468127
0.000460414
0.00045263
0.000444781
0.00043687
0.000428902
0.000420882
0.000412815
0.000404706
0.00039656
0.000388384
0.000380182
0.000371961
0.000363727
0.000355485
0.000347243
0.000339006
0.000330781
0.000322575
0.000314393
0.000306242
0.00029813
0.000290062
0.000282044
0.000274084
0.000266188
0.000529741
0.000522956
0.00051608
0.000509114
0.000502061
0.000494924
0.000487704
0.000480407
0.000473034
0.000465589
0.000458075
0.000450497
0.000442858
0.000435163
0.000427415
0.000419621
0.000411783
0.000403908
0.000396
0.000388064
0.000380106
0.000372132
0.000364146
0.000356155
0.000348164
0.00034018
0.000332208
0.000324254
0.000316325
0.000308425
0.000300562
0.000292742
0.00028497
0.000277252
0.000269594
0.000525856
0.000519211
0.000512481
0.000505667
0.000498772
0.000491799
0.00048475
0.000477629
0.000470437
0.000463179
0.000455858
0.000448478
0.000441042
0.000433554
0.000426019
0.000418441
0.000410824
0.000403172
0.000395492
0.000387787
0.000380062
0.000372323
0.000364574
0.000356822
0.000349072
0.000341328
0.000333597
0.000325884
0.000318195
0.000310535
0.00030291
0.000295325
0.000287786
0.000280299
0.000272868
0.000522138
0.00051563
0.000509042
0.000502377
0.000495636
0.000488823
0.000481939
0.000474988
0.000467972
0.000460895
0.00045376
0.00044657
0.000439329
0.000432041
0.000424709