/*--------------------------------*- C++ -*----------------------------------*\
| =========                 |                                                 |
| \\      /  F ield         | OpenFOAM: The Open Source CFD Toolbox           |
|  \\    /   O peration     | Version:  2412                                  |
|   \\  /    A nd           | Website:  www.openfoam.com                      |
|    \\/     M anipulation  |                                                 |
\*---------------------------------------------------------------------------*/
FoamFile
{
    version     2.0;
    format      ascii;
    arch        "LSB;label=32;scalar=64";
    class       volVectorField;
    location    "1";
    object      vorticity;
}
// * * * * * * * * * * * * * * * * * * * * * * * * * * * * * * * * * * * * * //

dimensions      [0 0 -1 0 0 0 0];

internalField   nonuniform List<vector> 
5285
(
(0 -0 -0.000251119)
(0 -0 -0.000236424)
(0 -0 -0.00027325)
(0 -0 -0.000319825)
(0 -0 -0.000338895)
(0 -0 -0.0003306)
(0 -0 -0.000312169)
(0 -0 -0.000295918)
(0 -0 -0.000285178)
(0 -0 -0.000278718)
(0 -0 -0.000274604)
(0 -0 -0.000271572)
(0 -0 -0.000269016)
(0 -0 -0.000266697)
(0 -0 -0.000264523)
(0 -0 -0.000262451)
(0 -0 -0.000260474)
(0 -0 -0.000258597)
(0 -0 -0.000256816)
(0 -0 -0.000255119)
(0 -0 -0.000253505)
(0 -0 -0.000251973)
(0 -0 -0.000250506)
(0 -0 -0.000249095)
(0 -0 -0.000247743)
(0 -0 -0.000246456)
(0 -0 -0.000245197)
(0 -0 -0.000243971)
(0 -0 -0.000242791)
(0 -0 -0.000241663)
(0 -0 -0.000240584)
(0 -0 -0.000239548)
(0 -0 -0.000238549)
(0 -0 -0.000237583)
(0 -0 -0.000236643)
(0 -0 -0.000235729)
(0 -0 -0.000234838)
(0 -0 -0.000233984)
(0 -0 -0.000233171)
(0 -0 -0.000232375)
(0 -0 -0.000231603)
(0 -0 -0.00023085)
(0 -0 -0.000230121)
(0 -0 -0.000229418)
(0 -0 -0.000152627)
(0 -0 -0.00013704)
(0 -0 -0.000175464)
(0 -0 -0.000225286)
(0 -0 -0.000247846)
(0 -0 -0.000242279)
(0 -0 -0.000225567)
(0 -0 -0.000210314)
(0 -0 -0.000200207)
(0 -0 -0.000194223)
(0 -0 -0.000190526)
(0 -0 -0.000187876)
(0 -0 -0.000185681)
(0 -0 -0.000183697)
(0 -0 -0.000181832)
(0 -0 -0.000180053)
(0 -0 -0.000178361)
(0 -0 -0.000176756)
(0 -0 -0.000175228)
(0 -0 -0.000173775)
(0 -0 -0.000172403)
(0 -0 -0.000171104)
(0 -0 -0.000169857)
(0 -0 -0.000168651)
(0 -0 -0.000167517)
(0 -0 -0.000166439)
(0 -0 -0.000165402)
(0 -0 -0.000164397)
(0 -0 -0.000163428)
(0 -0 -0.000162509)
(0 -0 -0.000161641)
(0 -0 -0.000160811)
(0 -0 -0.000160019)
(0 -0 -0.000159272)
(0 -0 -0.000158553)
(0 -0 -0.000157859)
(0 -0 -0.000157197)
(0 -0 -0.000156583)
(0 -0 -0.000156025)
(0 -0 -0.000155504)
(0 -0 -0.000155011)
(0 -0 -0.00015454)
(0 -0 -0.000154099)
(0 -0 -0.000153705)
(0 -0 1.39009e-05)
(0 -0 2.22727e-05)
(0 -0 -2.10727e-05)
(0 -0 -7.1221e-05)
(0 -0 -9.2036e-05)
(0 -0 -8.51532e-05)
(0 -0 -6.83892e-05)
(0 -0 -5.41242e-05)
(0 -0 -4.55514e-05)
(0 -0 -4.12997e-05)
(0 -0 -3.93638e-05)
(0 -0 -3.8435e-05)
(0 -0 -3.78938e-05)
(0 -0 -3.74885e-05)
(0 -0 -3.71266e-05)
(0 -0 -3.67864e-05)
(0 -0 -3.64721e-05)
(0 -0 -3.61756e-05)
(0 -0 -3.58942e-05)
(0 -0 -3.5638e-05)
(0 -0 -3.54083e-05)
(0 -0 -3.5191e-05)
(0 -0 -3.49706e-05)
(0 -0 -3.47465e-05)
(0 -0 -3.45442e-05)
(0 -0 -3.43522e-05)
(0 -0 -3.41702e-05)
(0 -0 -3.39837e-05)
(0 -0 -3.37929e-05)
(0 -0 -3.36124e-05)
(0 -0 -3.34432e-05)
(0 -0 -3.32716e-05)
(0 -0 -3.31053e-05)
(0 -0 -3.29596e-05)
(0 -0 -3.28102e-05)
(0 -0 -3.26523e-05)
(0 -0 -3.25065e-05)
(0 -0 -3.23881e-05)
(0 -0 -3.23028e-05)
(0 -0 -3.22411e-05)
(0 -0 -3.21815e-05)
(0 -0 -3.21145e-05)
(0 -0 -3.20586e-05)
(0 -0 -3.20355e-05)
(0 -0 0.000100264)
(0 -0 0.000101142)
(0 -0 5.35384e-05)
(0 -0 4.59302e-06)
(0 -0 -1.24358e-05)
(0 -0 -2.28495e-06)
(0 -0 1.60687e-05)
(0 -0 3.04921e-05)
(0 -0 3.84204e-05)
(0 -0 4.16864e-05)
(0 -0 4.25365e-05)
(0 -0 4.23779e-05)
(0 -0 4.1871e-05)
(0 -0 4.1277e-05)
(0 -0 4.06874e-05)
(0 -0 4.0119e-05)
(0 -0 3.95729e-05)
(0 -0 3.90515e-05)
(0 -0 3.85459e-05)
(0 -0 3.80518e-05)
(0 -0 3.75776e-05)
(0 -0 3.71335e-05)
(0 -0 3.67232e-05)
(0 -0 3.63473e-05)
(0 -0 3.59894e-05)
(0 -0 3.5649e-05)
(0 -0 3.53207e-05)
(0 -0 3.50214e-05)
(0 -0 3.47542e-05)
(0 -0 3.45087e-05)
(0 -0 3.42841e-05)
(0 -0 3.40846e-05)
(0 -0 3.39007e-05)
(0 -0 3.37296e-05)
(0 -0 3.35905e-05)
(0 -0 3.34708e-05)
(0 -0 3.33498e-05)
(0 -0 3.32214e-05)
(0 -0 3.30846e-05)
(0 -0 3.29433e-05)
(0 -0 3.28271e-05)
(0 -0 3.27333e-05)
(0 -0 3.26318e-05)
(0 -0 3.25159e-05)
(0 -0 0.000110398)
(0 -0 0.000105987)
(0 -0 5.54105e-05)
(0 -0 7.56627e-06)
(0 -0 -6.17322e-06)
(0 -0 7.08561e-06)
(0 -0 2.73249e-05)
(0 -0 4.24935e-05)
(0 -0 5.04745e-05)
(0 -0 5.34715e-05)
(0 -0 5.39406e-05)
(0 -0 5.33752e-05)
(0 -0 5.24704e-05)
(0 -0 5.14989e-05)
(0 -0 5.05493e-05)
(0 -0 4.96412e-05)
(0 -0 4.8776e-05)
(0 -0 4.79475e-05)
(0 -0 4.71487e-05)
(0 -0 4.63839e-05)
(0 -0 4.56582e-05)
(0 -0 4.49757e-05)
(0 -0 4.43422e-05)
(0 -0 4.37644e-05)
(0 -0 4.32222e-05)
(0 -0 4.26998e-05)
(0 -0 4.22007e-05)
(0 -0 4.17423e-05)
(0 -0 4.13245e-05)
(0 -0 4.09434e-05)
(0 -0 4.06016e-05)
(0 -0 4.02904e-05)
(0 -0 4.00071e-05)
(0 -0 3.97601e-05)
(0 -0 3.95478e-05)
(0 -0 3.9346e-05)
(0 -0 3.91537e-05)
(0 -0 3.89701e-05)
(0 -0 3.87889e-05)
(0 -0 3.86234e-05)
(0 -0 3.84953e-05)
(0 -0 3.83795e-05)
(0 -0 3.82563e-05)
(0 -0 3.81431e-05)
(0 -0 9.48419e-05)
(0 -0 8.68684e-05)
(0 -0 3.40264e-05)
(0 -0 -1.3342e-05)
(0 -0 -2.48751e-05)
(0 -0 -9.29667e-06)
(0 -0 1.25251e-05)
(0 -0 2.84896e-05)
(0 -0 3.67494e-05)
(0 -0 3.9773e-05)
(0 -0 4.01677e-05)
(0 -0 3.94957e-05)
(0 -0 3.84805e-05)
(0 -0 3.74061e-05)
(0 -0 3.63588e-05)
(0 -0 3.53556e-05)
(0 -0 3.43966e-05)
(0 -0 3.34787e-05)
(0 -0 3.2603e-05)
(0 -0 3.17732e-05)
(0 -0 3.09846e-05)
(0 -0 3.02425e-05)
(0 -0 2.95637e-05)
(0 -0 2.89502e-05)
(0 -0 2.83724e-05)
(0 -0 2.78128e-05)
(0 -0 2.72855e-05)
(0 -0 2.68e-05)
(0 -0 2.63533e-05)
(0 -0 2.59516e-05)
(0 -0 2.5597e-05)
(0 -0 2.52778e-05)
(0 -0 2.49966e-05)
(0 -0 2.47509e-05)
(0 -0 2.45233e-05)
(0 -0 2.43058e-05)
(0 -0 2.41105e-05)
(0 -0 2.39312e-05)
(0 -0 2.37616e-05)
(0 -0 2.36239e-05)
(0 -0 2.35147e-05)
(0 -0 2.3401e-05)
(0 -0 2.32937e-05)
(0 -0 2.32174e-05)
(0 -0 8.1191e-05)
(0 -0 7.04722e-05)
(0 -0 1.56026e-05)
(0 -0 -3.17684e-05)
(0 -0 -4.18347e-05)
(0 -0 -2.45209e-05)
(0 -0 -1.42436e-06)
(0 -0 1.52425e-05)
(0 -0 2.38079e-05)
(0 -0 2.69331e-05)
(0 -0 2.73387e-05)
(0 -0 2.66479e-05)
(0 -0 2.56092e-05)
(0 -0 2.45074e-05)
(0 -0 2.34294e-05)
(0 -0 2.23924e-05)
(0 -0 2.14021e-05)
(0 -0 2.04576e-05)
(0 -0 1.9561e-05)
(0 -0 1.87132e-05)
(0 -0 1.79111e-05)
(0 -0 1.71649e-05)
(0 -0 1.64917e-05)
(0 -0 1.58789e-05)
(0 -0 1.52968e-05)
(0 -0 1.47378e-05)
(0 -0 1.42134e-05)
(0 -0 1.37276e-05)
(0 -0 1.32828e-05)
(0 -0 1.28914e-05)
(0 -0 1.25477e-05)
(0 -0 1.22434e-05)
(0 -0 1.19786e-05)
(0 -0 1.17347e-05)
(0 -0 1.14968e-05)
(0 -0 1.12813e-05)
(0 -0 1.10945e-05)
(0 -0 1.09247e-05)
(0 -0 1.07748e-05)
(0 -0 1.0659e-05)
(0 -0 1.05565e-05)
(0 -0 1.04445e-05)
(0 -0 1.03568e-05)
(0 -0 1.03079e-05)
(0 -0 7.44448e-05)
(0 -0 6.12706e-05)
(0 -0 4.41491e-06)
(0 -0 -4.31997e-05)
(0 -0 -5.21402e-05)
(0 -0 -3.33705e-05)
(0 -0 -9.16148e-06)
(0 -0 8.14e-06)
(0 -0 1.69966e-05)
(0 -0 2.02265e-05)
(0 -0 2.06577e-05)
(0 -0 1.9969e-05)
(0 -0 1.89233e-05)
(0 -0 1.78008e-05)
(0 -0 1.66949e-05)
(0 -0 1.56363e-05)
(0 -0 1.46301e-05)
(0 -0 1.36702e-05)
(0 -0 1.27595e-05)
(0 -0 1.18962e-05)
(0 -0 1.10865e-05)
(0 -0 1.03493e-05)
(0 -0 9.68796e-06)
(0 -0 9.07522e-06)
(0 -0 8.4916e-06)
(0 -0 7.93662e-06)
(0 -0 7.41214e-06)
(0 -0 6.92679e-06)
(0 -0 6.49245e-06)
(0 -0 6.1168e-06)
(0 -0 5.78548e-06)
(0 -0 5.48973e-06)
(0 -0 5.2262e-06)
(0 -0 4.97647e-06)
(0 -0 4.73462e-06)
(0 -0 4.52363e-06)
(0 -0 4.34032e-06)
(0 -0 4.17557e-06)
(0 -0 4.04173e-06)
(0 -0 3.93464e-06)
(0 -0 3.83082e-06)
(0 -0 3.7246e-06)
(0 -0 3.6521e-06)
(0 -0 3.61563e-06)
(0 -0 7.21704e-05)
(0 -0 5.66243e-05)
(0 -0 -2.22511e-06)
(0 -0 -5.0179e-05)
(0 -0 -5.81168e-05)
(0 -0 -3.79908e-05)
(0 -0 -1.27285e-05)
(0 -0 5.17791e-06)
(0 -0 1.43088e-05)
(0 -0 1.76355e-05)
(0 -0 1.80933e-05)
(0 -0 1.74064e-05)
(0 -0 1.63472e-05)
(0 -0 1.52025e-05)
(0 -0 1.40731e-05)
(0 -0 1.29954e-05)
(0 -0 1.19679e-05)
(0 -0 1.09892e-05)
(0 -0 1.00636e-05)
(0 -0 9.18548e-06)
(0 -0 8.37295e-06)
(0 -0 7.64646e-06)
(0 -0 6.98762e-06)
(0 -0 6.36574e-06)
(0 -0 5.77771e-06)
(0 -0 5.2238e-06)
(0 -0 4.69894e-06)
(0 -0 4.21987e-06)
(0 -0 3.80062e-06)
(0 -0 3.43325e-06)
(0 -0 3.10404e-06)
(0 -0 2.80736e-06)
(0 -0 2.53723e-06)
(0 -0 2.28234e-06)
(0 -0 2.04324e-06)
(0 -0 1.83301e-06)
(0 -0 1.6452e-06)
(0 -0 1.48192e-06)
(0 -0 1.36062e-06)
(0 -0 1.25547e-06)
(0 -0 1.15064e-06)
(0 -0 1.05642e-06)
(0 -0 9.9288e-07)
(0 -0 9.61257e-07)
(0 -0 7.18847e-05)
(0 -0 5.39839e-05)
(0 -0 -6.87581e-06)
(0 -0 -5.52046e-05)
(0 -0 -6.21752e-05)
(0 -0 -4.07154e-05)
(0 -0 -1.44139e-05)
(0 -0 4.08578e-06)
(0 -0 1.3481e-05)
(0 -0 1.69e-05)
(0 -0 1.73801e-05)
(0 -0 1.66863e-05)
(0 -0 1.56056e-05)
(0 -0 1.44388e-05)
(0 -0 1.32891e-05)
(0 -0 1.21843e-05)
(0 -0 1.11274e-05)
(0 -0 1.01296e-05)
(0 -0 9.19005e-06)
(0 -0 8.30586e-06)
(0 -0 7.50079e-06)
(0 -0 6.78109e-06)
(0 -0 6.11393e-06)
(0 -0 5.47871e-06)
(0 -0 4.88188e-06)
(0 -0 4.32448e-06)
(0 -0 3.80511e-06)
(0 -0 3.34089e-06)
(0 -0 2.93262e-06)
(0 -0 2.55986e-06)
(0 -0 2.2232e-06)
(0 -0 1.92414e-06)
(0 -0 1.64946e-06)
(0 -0 1.39147e-06)
(0 -0 1.15369e-06)
(0 -0 9.37695e-07)
(0 -0 7.44403e-07)
(0 -0 5.86675e-07)
(0 -0 4.72433e-07)
(0 -0 3.64191e-07)
(0 -0 2.62848e-07)
(0 -0 1.8038e-07)
(0 -0 1.21492e-07)
(0 -0 9.21993e-08)
(0 -0 7.23337e-05)
(0 -0 5.20773e-05)
(0 -0 -1.08098e-05)
(0 -0 -5.95297e-05)
(0 -0 -6.55388e-05)
(0 -0 -4.27432e-05)
(0 -0 -1.54016e-05)
(0 -0 3.68791e-06)
(0 -0 1.33435e-05)
(0 -0 1.68503e-05)
(0 -0 1.7343e-05)
(0 -0 1.66309e-05)
(0 -0 1.55232e-05)
(0 -0 1.43307e-05)
(0 -0 1.31533e-05)
(0 -0 1.20146e-05)
(0 -0 1.0932e-05)
(0 -0 9.92162e-06)
(0 -0 8.97455e-06)
(0 -0 8.09624e-06)
(0 -0 7.30285e-06)
(0 -0 6.58107e-06)
(0 -0 5.90041e-06)
(0 -0 5.25278e-06)
(0 -0 4.64334e-06)
(0 -0 4.07847e-06)
(0 -0 3.56726e-06)
(0 -0 3.11651e-06)
(0 -0 2.70772e-06)
(0 -0 2.32453e-06)
(0 -0 1.9818e-06)
(0 -0 1.6805e-06)
(0 -0 1.40065e-06)
(0 -0 1.14142e-06)
(0 -0 9.02472e-07)
(0 -0 6.78057e-07)
(0 -0 4.84378e-07)
(0 -0 3.35334e-07)
(0 -0 2.1888e-07)
(0 -0 1.07693e-07)
(0 -0 1.21723e-08)
(0 -0 -6.34189e-08)
(0 -0 -1.18341e-07)
(0 -0 -1.54962e-07)
(0 -0 7.30432e-05)
(0 -0 5.04244e-05)
(0 -0 -1.45086e-05)
(0 -0 -6.36297e-05)
(0 -0 -6.86736e-05)
(0 -0 -4.4535e-05)
(0 -0 -1.61488e-05)
(0 -0 3.53274e-06)
(0 -0 1.34489e-05)
(0 -0 1.70385e-05)
(0 -0 1.75322e-05)
(0 -0 1.67905e-05)
(0 -0 1.565e-05)
(0 -0 1.4425e-05)
(0 -0 1.32124e-05)
(0 -0 1.2046e-05)
(0 -0 1.09515e-05)
(0 -0 9.9341e-06)
(0 -0 8.98511e-06)
(0 -0 8.11858e-06)
(0 -0 7.33042e-06)
(0 -0 6.59363e-06)
(0 -0 5.89466e-06)
(0 -0 5.23319e-06)
(0 -0 4.60931e-06)
(0 -0 4.03796e-06)
(0 -0 3.53384e-06)
(0 -0 3.08636e-06)
(0 -0 2.66833e-06)
(0 -0 2.28053e-06)
(0 -0 1.93777e-06)
(0 -0 1.63113e-06)
(0 -0 1.34493e-06)
(0 -0 1.0859e-06)
(0 -0 8.44286e-07)
(0 -0 6.1685e-07)
(0 -0 4.27387e-07)
(0 -0 2.80804e-07)
(0 -0 1.56615e-07)
(0 -0 4.61494e-08)
(0 -0 -4.43432e-08)
(0 -0 -1.17123e-07)
(0 -0 -1.71354e-07)
(0 -0 -2.27442e-07)
(0 -0 7.38512e-05)
(0 -0 4.8859e-05)
(0 -0 -1.81337e-05)
(0 -0 -6.7658e-05)
(0 -0 -7.17272e-05)
(0 -0 -4.62356e-05)
(0 -0 -1.67975e-05)
(0 -0 3.48381e-06)
(0 -0 1.36626e-05)
(0 -0 1.73265e-05)
(0 -0 1.78089e-05)
(0 -0 1.70298e-05)
(0 -0 1.58511e-05)
(0 -0 1.45888e-05)
(0 -0 1.3345e-05)
(0 -0 1.21638e-05)
(0 -0 1.10642e-05)
(0 -0 1.00377e-05)
(0 -0 9.08841e-06)
(0 -0 8.22695e-06)
(0 -0 7.42801e-06)
(0 -0 6.66542e-06)
(0 -0 5.94401e-06)
(0 -0 5.26545e-06)
(0 -0 4.62903e-06)
(0 -0 4.05843e-06)
(0 -0 3.55968e-06)
(0 -0 3.10567e-06)
(0 -0 2.67862e-06)
(0 -0 2.2914e-06)
(0 -0 1.94698e-06)
(0 -0 1.63413e-06)
(0 -0 1.34854e-06)
(0 -0 1.08757e-06)
(0 -0 8.39086e-07)
(0 -0 6.16897e-07)
(0 -0 4.34661e-07)
(0 -0 2.84403e-07)
(0 -0 1.55818e-07)
(0 -0 4.80256e-08)
(0 -0 -4.19117e-08)
(0 -0 -1.17731e-07)
(0 -0 -1.78022e-07)
(0 -0 -2.48999e-07)
(0 -0 7.47156e-05)
(0 -0 4.73394e-05)
(0 -0 -2.17218e-05)
(0 -0 -7.16462e-05)
(0 -0 -7.47305e-05)
(0 -0 -4.78732e-05)
(0 -0 -1.73695e-05)
(0 -0 3.51932e-06)
(0 -0 1.39557e-05)
(0 -0 1.76813e-05)
(0 -0 1.81438e-05)
(0 -0 1.73238e-05)
(0 -0 1.61047e-05)
(0 -0 1.4809e-05)
(0 -0 1.35443e-05)
(0 -0 1.2351e-05)
(0 -0 1.12383e-05)
(0 -0 1.01986e-05)
(0 -0 9.24323e-06)
(0 -0 8.36703e-06)
(0 -0 7.54162e-06)
(0 -0 6.75489e-06)
(0 -0 6.01169e-06)
(0 -0 5.31387e-06)
(0 -0 4.67209e-06)
(0 -0 4.10901e-06)
(0 -0 3.60829e-06)
(0 -0 3.14225e-06)
(0 -0 2.71335e-06)
(0 -0 2.32631e-06)
(0 -0 1.97331e-06)
(0 -0 1.65739e-06)
(0 -0 1.3766e-06)
(0 -0 1.10978e-06)
(0 -0 8.60259e-07)
(0 -0 6.49649e-07)
(0 -0 4.73108e-07)
(0 -0 3.19473e-07)
(0 -0 1.91535e-07)
(0 -0 8.45585e-08)
(0 -0 -1.37982e-08)
(0 -0 -9.44789e-08)
(0 -0 -1.63243e-07)
(0 -0 -2.36974e-07)
(0 -0 7.56591e-05)
(0 -0 4.58891e-05)
(0 -0 -2.52503e-05)
(0 -0 -7.55762e-05)
(0 -0 -7.76678e-05)
(0 -0 -4.94305e-05)
(0 -0 -1.78496e-05)
(0 -0 3.64182e-06)
(0 -0 1.43208e-05)
(0 -0 1.80991e-05)
(0 -0 1.85435e-05)
(0 -0 1.76886e-05)
(0 -0 1.64335e-05)
(0 -0 1.51077e-05)
(0 -0 1.38217e-05)
(0 -0 1.26079e-05)
(0 -0 1.14717e-05)
(0 -0 1.04142e-05)
(0 -0 9.43871e-06)
(0 -0 8.52921e-06)
(0 -0 7.67324e-06)
(0 -0 6.86713e-06)
(0 -0 6.10322e-06)
(0 -0 5.39075e-06)
(0 -0 4.75277e-06)
(0 -0 4.19067e-06)
(0 -0 3.67485e-06)
(0 -0 3.19942e-06)
(0 -0 2.7748e-06)
(0 -0 2.38543e-06)
(0 -0 2.02335e-06)
(0 -0 1.70429e-06)
(0 -0 1.41965e-06)
(0 -0 1.15072e-06)
(0 -0 9.17802e-07)
(0 -0 7.18234e-07)
(0 -0 5.42673e-07)
(0 -0 3.90648e-07)
(0 -0 2.61048e-07)
(0 -0 1.44984e-07)
(0 -0 3.53958e-08)
(0 -0 -4.74383e-08)
(0 -0 -1.23998e-07)
(0 -0 -1.97981e-07)
(0 -0 7.67021e-05)
(0 -0 4.45325e-05)
(0 -0 -2.86934e-05)
(0 -0 -7.94248e-05)
(0 -0 -8.05181e-05)
(0 -0 -5.08928e-05)
(0 -0 -1.82392e-05)
(0 -0 3.83797e-06)
(0 -0 1.47475e-05)
(0 -0 1.85817e-05)
(0 -0 1.90196e-05)
(0 -0 1.8138e-05)
(0 -0 1.68485e-05)
(0 -0 1.54906e-05)
(0 -0 1.41754e-05)
(0 -0 1.29297e-05)
(0 -0 1.17624e-05)
(0 -0 1.06799e-05)
(0 -0 9.67335e-06)
(0 -0 8.72669e-06)
(0 -0 7.84096e-06)
(0 -0 7.01074e-06)
(0 -0 6.22916e-06)
(0 -0 5.5134e-06)
(0 -0 4.87549e-06)
(0 -0 4.29383e-06)
(0 -0 3.75905e-06)
(0 -0 3.28565e-06)
(0 -0 2.8631e-06)
(0 -0 2.46907e-06)
(0 -0 2.10327e-06)
(0 -0 1.77518e-06)
(0 -0 1.48006e-06)
(0 -0 1.22216e-06)
(0 -0 1.01109e-06)
(0 -0 8.13758e-07)
(0 -0 6.38222e-07)
(0 -0 4.93314e-07)
(0 -0 3.51969e-07)
(0 -0 2.1878e-07)
(0 -0 1.05839e-07)
(0 -0 2.03411e-08)
(0 -0 -6.5399e-08)
(0 -0 -1.43985e-07)
(0 -0 7.77926e-05)
(0 -0 4.32221e-05)
(0 -0 -3.20937e-05)
(0 -0 -8.32313e-05)
(0 -0 -8.33258e-05)
(0 -0 -5.23181e-05)
(0 -0 -1.86085e-05)
(0 -0 4.04374e-06)
(0 -0 1.51902e-05)
(0 -0 1.90938e-05)
(0 -0 1.95323e-05)
(0 -0 1.8624e-05)
(0 -0 1.72988e-05)
(0 -0 1.59057e-05)
(0 -0 1.45509e-05)
(0 -0 1.32647e-05)
(0 -0 1.20648e-05)
(0 -0 1.0952e-05)
(0 -0 9.91098e-06)
(0 -0 8.93332e-06)
(0 -0 8.01237e-06)
(0 -0 7.15275e-06)
(0 -0 6.36546e-06)
(0 -0 5.65534e-06)
(0 -0 5.00052e-06)
(0 -0 4.3898e-06)
(0 -0 3.84777e-06)
(0 -0 3.37673e-06)
(0 -0 2.94479e-06)
(0 -0 2.55103e-06)
(0 -0 2.18908e-06)
(0 -0 1.84707e-06)
(0 -0 1.54342e-06)
(0 -0 1.30246e-06)
(0 -0 1.09744e-06)
(0 -0 8.99017e-07)
(0 -0 7.22016e-07)
(0 -0 5.79999e-07)
(0 -0 4.27723e-07)
(0 -0 2.87051e-07)
(0 -0 1.86058e-07)
(0 -0 9.69912e-08)
(0 -0 4.43357e-09)
(0 -0 -9.11994e-08)
(0 -0 7.87781e-05)
(0 -0 4.18004e-05)
(0 -0 -3.56159e-05)
(0 -0 -8.71556e-05)
(0 -0 -8.62553e-05)
(0 -0 -5.38777e-05)
(0 -0 -1.91175e-05)
(0 -0 4.12218e-06)
(0 -0 1.55233e-05)
(0 -0 1.95051e-05)
(0 -0 1.9945e-05)
(0 -0 1.90124e-05)
(0 -0 1.76563e-05)
(0 -0 1.62253e-05)
(0 -0 1.48231e-05)
(0 -0 1.3497e-05)
(0 -0 1.22682e-05)
(0 -0 1.1126e-05)
(0 -0 1.0053e-05)
(0 -0 9.05218e-06)
(0 -0 8.08967e-06)
(0 -0 7.20868e-06)
(0 -0 6.4314e-06)
(0 -0 5.73261e-06)
(0 -0 5.05864e-06)
(0 -0 4.43669e-06)
(0 -0 3.89557e-06)
(0 -0 3.40494e-06)
(0 -0 2.95638e-06)
(0 -0 2.57569e-06)
(0 -0 2.22472e-06)
(0 -0 1.86828e-06)
(0 -0 1.55145e-06)
(0 -0 1.31831e-06)
(0 -0 1.10413e-06)
(0 -0 9.19419e-07)
(0 -0 7.29511e-07)
(0 -0 5.85065e-07)
(0 -0 4.48159e-07)
(0 -0 3.10298e-07)
(0 -0 2.41156e-07)
(0 -0 1.53679e-07)
(0 -0 6.83377e-08)
(0 -0 -5.32626e-08)
(0 -0 7.94913e-05)
(0 -0 4.00727e-05)
(0 -0 -3.9457e-05)
(0 -0 -9.14045e-05)
(0 -0 -8.95067e-05)
(0 -0 -5.57611e-05)
(0 -0 -1.99396e-05)
(0 -0 3.91003e-06)
(0 -0 1.55832e-05)
(0 -0 1.96532e-05)
(0 -0 2.01026e-05)
(0 -0 1.9155e-05)
(0 -0 1.77766e-05)
(0 -0 1.6314e-05)
(0 -0 1.48749e-05)
(0 -0 1.3521e-05)
(0 -0 1.22677e-05)
(0 -0 1.11017e-05)
(0 -0 1.00038e-05)
(0 -0 8.98674e-06)
(0 -0 7.9961e-06)
(0 -0 7.1142e-06)
(0 -0 6.35249e-06)
(0 -0 5.66819e-06)
(0 -0 4.99575e-06)
(0 -0 4.38371e-06)
(0 -0 3.83797e-06)
(0 -0 3.31699e-06)
(0 -0 2.85979e-06)
(0 -0 2.491e-06)
(0 -0 2.14903e-06)
(0 -0 1.78451e-06)
(0 -0 1.45339e-06)
(0 -0 1.21963e-06)
(0 -0 9.96269e-07)
(0 -0 8.33855e-07)
(0 -0 6.31057e-07)
(0 -0 4.97894e-07)
(0 -0 3.90643e-07)
(0 -0 2.55859e-07)
(0 -0 2.17657e-07)
(0 -0 1.35751e-07)
(0 -0 7.30297e-08)
(0 -0 -2.88917e-08)
(0 -0 7.99058e-05)
(0 -0 3.80266e-05)
(0 -0 -4.3641e-05)
(0 -0 -9.60211e-05)
(0 -0 -9.31214e-05)
(0 -0 -5.79937e-05)
(0 -0 -2.10949e-05)
(0 -0 3.37603e-06)
(0 -0 1.53374e-05)
(0 -0 1.95145e-05)
(0 -0 1.999e-05)
(0 -0 1.90362e-05)
(0 -0 1.76411e-05)
(0 -0 1.61611e-05)
(0 -0 1.47137e-05)
(0 -0 1.33507e-05)
(0 -0 1.20801e-05)
(0 -0 1.08944e-05)
(0 -0 9.78302e-06)
(0 -0 8.75327e-06)
(0 -0 7.78082e-06)
(0 -0 6.91712e-06)
(0 -0 6.15321e-06)
(0 -0 5.46117e-06)
(0 -0 4.80802e-06)
(0 -0 4.2102e-06)
(0 -0 3.65537e-06)
(0 -0 3.13473e-06)
(0 -0 2.68743e-06)
(0 -0 2.3084e-06)
(0 -0 1.95675e-06)
(0 -0 1.60268e-06)
(0 -0 1.29015e-06)
(0 -0 1.05311e-06)
(0 -0 8.33833e-07)
(0 -0 6.64932e-07)
(0 -0 4.92874e-07)
(0 -0 3.73147e-07)
(0 -0 2.55944e-07)
(0 -0 1.41314e-07)
(0 -0 7.77649e-08)
(0 -0 -3.60543e-09)
(0 -0 -5.50748e-08)
(0 -0 -5.11332e-08)
(0 -0 -0.000317856)
(0 -0 -0.000316491)
(0 -0 -0.0003153)
(0 -0 -0.000314454)
(0 -0 -0.000313852)
(0 -0 -0.000313355)
(0 -0 -0.000312883)
(0 -0 -0.000312431)
(0 -0 -0.000312015)
(0 -0 -0.000311654)
(0 -0 -0.000311363)
(0 -0 -0.000311139)
(0 -0 -0.000310967)
(0 -0 -0.000310841)
(0 -0 -0.000310758)
(0 -0 -0.000310713)
(0 -0 -0.000310697)
(0 -0 -0.000310709)
(0 -0 -0.000310753)
(0 -0 -0.000310887)
(0 -0 -0.000311383)
(0 -0 -0.000313223)
(0 -0 -0.000318744)
(0 -0 -0.000328954)
(0 -0 -0.000331164)
(0 -0 -0.000300786)
(0 -0 -0.000219183)
(0 -0 -0.000219057)
(0 -0 -0.000218966)
(0 -0 -0.000219063)
(0 -0 -0.0002193)
(0 -0 -0.000219545)
(0 -0 -0.00021973)
(0 -0 -0.000219849)
(0 -0 -0.000219913)
(0 -0 -0.000219941)
(0 -0 -0.000219951)
(0 -0 -0.000219947)
(0 -0 -0.000219926)
(0 -0 -0.000219896)
(0 -0 -0.000219858)
(0 -0 -0.000219806)
(0 -0 -0.00021972)
(0 -0 -0.0002196)
(0 -0 -0.000219464)
(0 -0 -0.00021937)
(0 -0 -0.000219591)
(0 -0 -0.000221106)
(0 -0 -0.000226247)
(0 -0 -0.000236064)
(0 -0 -0.000237475)
(0 -0 -0.000204915)
(0 -0 -5.42901e-05)
(0 -0 -5.4565e-05)
(0 -0 -5.48293e-05)
(0 -0 -5.52159e-05)
(0 -0 -5.56963e-05)
(0 -0 -5.61653e-05)
(0 -0 -5.65552e-05)
(0 -0 -5.6853e-05)
(0 -0 -5.70707e-05)
(0 -0 -5.72234e-05)
(0 -0 -5.73262e-05)
(0 -0 -5.73857e-05)
(0 -0 -5.74141e-05)
(0 -0 -5.74255e-05)
(0 -0 -5.74204e-05)
(0 -0 -5.73834e-05)
(0 -0 -5.72954e-05)
(0 -0 -5.71563e-05)
(0 -0 -5.69884e-05)
(0 -0 -5.68453e-05)
(0 -0 -5.70008e-05)
(0 -0 -5.84301e-05)
(0 -0 -6.33538e-05)
(0 -0 -7.22964e-05)
(0 -0 -7.09019e-05)
(0 -0 -3.56435e-05)
(0 -0 3.12064e-05)
(0 -0 3.10598e-05)
(0 -0 3.09234e-05)
(0 -0 3.06488e-05)
(0 -0 3.02672e-05)
(0 -0 2.98844e-05)
(0 -0 2.95724e-05)
(0 -0 2.93405e-05)
(0 -0 2.91756e-05)
(0 -0 2.90626e-05)
(0 -0 2.89936e-05)
(0 -0 2.89594e-05)
(0 -0 2.89371e-05)
(0 -0 2.89166e-05)
(0 -0 2.89044e-05)
(0 -0 2.89164e-05)
(0 -0 2.89651e-05)
(0 -0 2.90498e-05)
(0 -0 2.91565e-05)
(0 -0 2.92275e-05)
(0 -0 2.89924e-05)
(0 -0 2.74884e-05)
(0 -0 2.2618e-05)
(0 -0 1.4378e-05)
(0 -0 1.80498e-05)
(0 -0 5.47149e-05)
(0 -0 4.09573e-05)
(0 -0 4.10394e-05)
(0 -0 4.10925e-05)
(0 -0 4.09812e-05)
(0 -0 4.07447e-05)
(0 -0 4.04984e-05)
(0 -0 4.0316e-05)
(0 -0 4.01953e-05)
(0 -0 4.01167e-05)
(0 -0 4.00671e-05)
(0 -0 4.00447e-05)
(0 -0 4.00419e-05)
(0 -0 4.0037e-05)
(0 -0 4.00277e-05)
(0 -0 4.00264e-05)
(0 -0 4.00363e-05)
(0 -0 4.00604e-05)
(0 -0 4.00965e-05)
(0 -0 4.01384e-05)
(0 -0 4.0125e-05)
(0 -0 3.97877e-05)
(0 -0 3.81896e-05)
(0 -0 3.33312e-05)
(0 -0 2.55589e-05)
(0 -0 3.06384e-05)
(0 -0 6.78929e-05)
(0 -0 2.49329e-05)
(0 -0 2.51645e-05)
(0 -0 2.53515e-05)
(0 -0 2.53502e-05)
(0 -0 2.52094e-05)
(0 -0 2.50569e-05)
(0 -0 2.4963e-05)
(0 -0 2.49148e-05)
(0 -0 2.48842e-05)
(0 -0 2.48682e-05)
(0 -0 2.48695e-05)
(0 -0 2.48819e-05)
(0 -0 2.4896e-05)
(0 -0 2.49162e-05)
(0 -0 2.49444e-05)
(0 -0 2.49712e-05)
(0 -0 2.49962e-05)
(0 -0 2.50132e-05)
(0 -0 2.50097e-05)
(0 -0 2.49323e-05)
(0 -0 2.4524e-05)
(0 -0 2.28727e-05)
(0 -0 1.80425e-05)
(0 -0 1.06106e-05)
(0 -0 1.66269e-05)
(0 -0 5.42827e-05)
(0 -0 1.06418e-05)
(0 -0 1.09594e-05)
(0 -0 1.12267e-05)
(0 -0 1.12892e-05)
(0 -0 1.11993e-05)
(0 -0 1.10945e-05)
(0 -0 1.10389e-05)
(0 -0 1.10194e-05)
(0 -0 1.10065e-05)
(0 -0 1.10027e-05)
(0 -0 1.10176e-05)
(0 -0 1.10446e-05)
(0 -0 1.10784e-05)
(0 -0 1.11264e-05)
(0 -0 1.11749e-05)
(0 -0 1.12166e-05)
(0 -0 1.12437e-05)
(0 -0 1.12466e-05)
(0 -0 1.12129e-05)
(0 -0 1.10997e-05)
(0 -0 1.06618e-05)
(0 -0 9.00103e-06)
(0 -0 4.22036e-06)
(0 -0 -2.92098e-06)
(0 -0 3.86324e-06)
(0 -0 4.19568e-05)
(0 -0 3.20252e-06)
(0 -0 3.57493e-06)
(0 -0 3.88448e-06)
(0 -0 3.97665e-06)
(0 -0 3.90888e-06)
(0 -0 3.82012e-06)
(0 -0 3.77233e-06)
(0 -0 3.75492e-06)
(0 -0 3.75037e-06)
(0 -0 3.75923e-06)
(0 -0 3.78969e-06)
(0 -0 3.82833e-06)
(0 -0 3.87115e-06)
(0 -0 3.92459e-06)
(0 -0 3.97378e-06)
(0 -0 4.01621e-06)
(0 -0 4.03395e-06)
(0 -0 4.01715e-06)
(0 -0 3.96758e-06)
(0 -0 3.84941e-06)
(0 -0 3.41713e-06)
(0 -0 1.76992e-06)
(0 -0 -2.94946e-06)
(0 -0 -9.81626e-06)
(0 -0 -2.30848e-06)
(0 -0 3.6279e-05)
(0 -0 2.2878e-07)
(0 -0 6.41489e-07)
(0 -0 9.76983e-07)
(0 -0 1.08182e-06)
(0 -0 1.02322e-06)
(0 -0 9.32309e-07)
(0 -0 8.77204e-07)
(0 -0 8.52867e-07)
(0 -0 8.54782e-07)
(0 -0 8.77876e-07)
(0 -0 9.17145e-07)
(0 -0 9.55287e-07)
(0 -0 9.97297e-07)
(0 -0 1.04247e-06)
(0 -0 1.08329e-06)
(0 -0 1.11123e-06)
(0 -0 1.10945e-06)
(0 -0 1.07911e-06)
(0 -0 1.03127e-06)
(0 -0 9.26837e-07)
(0 -0 5.17108e-07)
(0 -0 -1.11098e-06)
(0 -0 -5.76591e-06)
(0 -0 -1.23604e-05)
(0 -0 -4.13609e-06)
(0 -0 3.49793e-05)
(0 -0 -7.82146e-07)
(0 -0 -3.46567e-07)
(0 -0 2.51039e-09)
(0 -0 1.13556e-07)
(0 -0 5.73309e-08)
(0 -0 -4.14522e-08)
(0 -0 -1.06157e-07)
(0 -0 -1.31734e-07)
(0 -0 -1.19614e-07)
(0 -0 -8.21724e-08)
(0 -0 -4.15113e-08)
(0 -0 -8.43784e-09)
(0 -0 2.81125e-08)
(0 -0 5.90303e-08)
(0 -0 8.45032e-08)
(0 -0 9.13611e-08)
(0 -0 7.38084e-08)
(0 -0 4.52276e-08)
(0 -0 1.34897e-08)
(0 -0 -6.81982e-08)
(0 -0 -4.57767e-07)
(0 -0 -2.06736e-06)
(0 -0 -6.65655e-06)
(0 -0 -1.29763e-05)
(0 -0 -4.0328e-06)
(0 -0 3.56324e-05)
(0 -0 -1.11439e-06)
(0 -0 -6.83779e-07)
(0 -0 -3.42889e-07)
(0 -0 -2.32882e-07)
(0 -0 -2.87896e-07)
(0 -0 -3.84015e-07)
(0 -0 -4.42065e-07)
(0 -0 -4.48865e-07)
(0 -0 -4.1464e-07)
(0 -0 -3.63186e-07)
(0 -0 -3.24922e-07)
(0 -0 -3.02421e-07)
(0 -0 -2.79738e-07)
(0 -0 -2.62841e-07)
(0 -0 -2.5248e-07)
(0 -0 -2.59156e-07)
(0 -0 -2.76463e-07)
(0 -0 -2.90237e-07)
(0 -0 -3.02208e-07)
(0 -0 -3.61284e-07)
(0 -0 -7.37071e-07)
(0 -0 -2.32992e-06)
(0 -0 -6.85469e-06)
(0 -0 -1.29027e-05)
(0 -0 -3.23574e-06)
(0 -0 3.70014e-05)
(0 -0 -1.27832e-06)
(0 -0 -8.9154e-07)
(0 -0 -5.81517e-07)
(0 -0 -4.75167e-07)
(0 -0 -5.13714e-07)
(0 -0 -5.75683e-07)
(0 -0 -5.94232e-07)
(0 -0 -5.61854e-07)
(0 -0 -5.00623e-07)
(0 -0 -4.47242e-07)
(0 -0 -4.20739e-07)
(0 -0 -4.04827e-07)
(0 -0 -3.88352e-07)
(0 -0 -3.75802e-07)
(0 -0 -3.72862e-07)
(0 -0 -3.79912e-07)
(0 -0 -3.86678e-07)
(0 -0 -3.85277e-07)
(0 -0 -3.80535e-07)
(0 -0 -4.26407e-07)
(0 -0 -7.94218e-07)
(0 -0 -2.37665e-06)
(0 -0 -6.84393e-06)
(0 -0 -1.26239e-05)
(0 -0 -2.2209e-06)
(0 -0 3.86142e-05)
(0 -0 -1.47695e-06)
(0 -0 -1.19028e-06)
(0 -0 -9.29849e-07)
(0 -0 -8.07182e-07)
(0 -0 -7.81362e-07)
(0 -0 -7.57496e-07)
(0 -0 -6.96522e-07)
(0 -0 -6.0977e-07)
(0 -0 -5.24041e-07)
(0 -0 -4.70769e-07)
(0 -0 -4.4928e-07)
(0 -0 -4.26236e-07)
(0 -0 -4.05384e-07)
(0 -0 -3.94411e-07)
(0 -0 -3.99244e-07)
(0 -0 -4.06812e-07)
(0 -0 -4.06094e-07)
(0 -0 -3.961e-07)
(0 -0 -3.80323e-07)
(0 -0 -4.1873e-07)
(0 -0 -7.83559e-07)
(0 -0 -2.36375e-06)
(0 -0 -6.77871e-06)
(0 -0 -1.22857e-05)
(0 -0 -1.13091e-06)
(0 -0 4.0319e-05)
(0 -0 -1.84301e-06)
(0 -0 -1.75052e-06)
(0 -0 -1.56533e-06)
(0 -0 -1.37689e-06)
(0 -0 -1.18928e-06)
(0 -0 -9.83831e-07)
(0 -0 -7.76858e-07)
(0 -0 -6.02317e-07)
(0 -0 -4.82748e-07)
(0 -0 -4.19038e-07)
(0 -0 -3.86154e-07)
(0 -0 -3.53279e-07)
(0 -0 -3.33512e-07)
(0 -0 -3.3724e-07)
(0 -0 -3.62736e-07)
(0 -0 -3.88235e-07)
(0 -0 -3.96251e-07)
(0 -0 -3.82493e-07)
(0 -0 -3.54648e-07)
(0 -0 -3.81973e-07)
(0 -0 -7.42221e-07)
(0 -0 -2.31816e-06)
(0 -0 -6.67435e-06)
(0 -0 -1.19013e-05)
(0 -0 1.19798e-08)
(0 -0 4.20818e-05)
(0 -0 -2.50275e-06)
(0 -0 -2.74058e-06)
(0 -0 -2.66468e-06)
(0 -0 -2.3244e-06)
(0 -0 -1.82391e-06)
(0 -0 -1.29524e-06)
(0 -0 -8.51059e-07)
(0 -0 -5.42936e-07)
(0 -0 -3.63115e-07)
(0 -0 -2.69108e-07)
(0 -0 -2.10908e-07)
(0 -0 -1.71478e-07)
(0 -0 -1.64655e-07)
(0 -0 -2.07889e-07)
(0 -0 -2.90805e-07)
(0 -0 -3.74162e-07)
(0 -0 -4.14635e-07)
(0 -0 -3.93438e-07)
(0 -0 -3.32933e-07)
(0 -0 -3.26926e-07)
(0 -0 -6.65988e-07)
(0 -0 -2.22381e-06)
(0 -0 -6.5074e-06)
(0 -0 -1.14497e-05)
(0 -0 1.22464e-06)
(0 -0 4.39221e-05)
(0 -0 -3.40626e-06)
(0 -0 -4.07696e-06)
(0 -0 -4.14245e-06)
(0 -0 -3.57957e-06)
(0 -0 -2.64887e-06)
(0 -0 -1.69654e-06)
(0 -0 -9.50043e-07)
(0 -0 -4.7019e-07)
(0 -0 -1.98649e-07)
(0 -0 -4.98823e-08)
(0 -0 4.05791e-08)
(0 -0 8.30491e-08)
(0 -0 5.88746e-08)
(0 -0 -5.51838e-08)
(0 -0 -2.44244e-07)
(0 -0 -4.33455e-07)
(0 -0 -5.24024e-07)
(0 -0 -4.75431e-07)
(0 -0 -3.43436e-07)
(0 -0 -2.64293e-07)
(0 -0 -5.51215e-07)
(0 -0 -2.06766e-06)
(0 -0 -6.26806e-06)
(0 -0 -1.09223e-05)
(0 -0 2.51874e-06)
(0 -0 4.5856e-05)
(0 -0 -4.23095e-06)
(0 -0 -5.08412e-06)
(0 -0 -5.2642e-06)
(0 -0 -4.5438e-06)
(0 -0 -3.28941e-06)
(0 -0 -2.01555e-06)
(0 -0 -1.0394e-06)
(0 -0 -4.2653e-07)
(0 -0 -8.28951e-08)
(0 -0 1.08273e-07)
(0 -0 2.15156e-07)
(0 -0 2.51577e-07)
(0 -0 1.82327e-07)
(0 -0 -7.01706e-09)
(0 -0 -3.05271e-07)
(0 -0 -6.03522e-07)
(0 -0 -7.36007e-07)
(0 -0 -6.36442e-07)
(0 -0 -3.97988e-07)
(0 -0 -2.12917e-07)
(0 -0 -4.23706e-07)
(0 -0 -1.88358e-06)
(0 -0 -6.00171e-06)
(0 -0 -1.03703e-05)
(0 -0 3.84098e-06)
(0 -0 4.78302e-05)
(0 -0 -4.47922e-06)
(0 -0 -4.89627e-06)
(0 -0 -4.65937e-06)
(0 -0 -4.05679e-06)
(0 -0 -2.96988e-06)
(0 -0 -1.85266e-06)
(0 -0 -9.99573e-07)
(0 -0 -4.67461e-07)
(0 -0 -1.68162e-07)
(0 -0 1.04779e-09)
(0 -0 9.53304e-08)
(0 -0 1.15238e-07)
(0 -0 1.54539e-08)
(0 -0 -2.48394e-07)
(0 -0 -5.33016e-07)
(0 -0 -7.82175e-07)
(0 -0 -9.18835e-07)
(0 -0 -7.65044e-07)
(0 -0 -4.52042e-07)
(0 -0 -1.92419e-07)
(0 -0 -3.49883e-07)
(0 -0 -1.77516e-06)
(0 -0 -5.82945e-06)
(0 -0 -9.92374e-06)
(0 -0 5.05474e-06)
(0 -0 4.96981e-05)
(0 -0 -3.48514e-06)
(0 -0 -2.91425e-06)
(0 -0 -1.96346e-06)
(0 -0 -1.43848e-06)
(0 -0 -1.20788e-06)
(0 -0 -9.55366e-07)
(0 -0 -7.46346e-07)
(0 -0 -5.9643e-07)
(0 -0 -4.89704e-07)
(0 -0 -4.13829e-07)
(0 -0 -3.61321e-07)
(0 -0 -3.66826e-07)
(0 -0 -4.96775e-07)
(0 -0 -6.99736e-07)
(0 -0 -9.0215e-07)
(0 -0 -8.90563e-07)
(0 -0 -7.66615e-07)
(0 -0 -6.49543e-07)
(0 -0 -3.95719e-07)
(0 -0 -2.02294e-07)
(0 -0 -4.04497e-07)
(0 -0 -1.85853e-06)
(0 -0 -5.88237e-06)
(0 -0 -9.717e-06)
(0 -0 6.02365e-06)
(0 -0 5.13061e-05)
(0 -0 -1.06671e-06)
(0 -0 -7.32949e-07)
(0 -0 -3.78087e-07)
(0 -0 -2.06269e-07)
(0 -0 -1.95821e-07)
(0 -0 -2.39348e-07)
(0 -0 -6.10486e-07)
(0 -0 -2.1622e-06)
(0 -0 -6.18449e-06)
(0 -0 -9.76979e-06)
(0 -0 6.73228e-06)
(0 -0 5.26611e-05)
(0 -0 1.38729e-05)
(0 -0 1.38335e-05)
(0 -0 1.3816e-05)
(0 -0 1.38074e-05)
(0 -0 1.37974e-05)
(0 -0 1.37835e-05)
(0 -0 1.37673e-05)
(0 -0 1.37502e-05)
(0 -0 1.37321e-05)
(0 -0 1.37122e-05)
(0 -0 1.36898e-05)
(0 -0 1.36651e-05)
(0 -0 1.36382e-05)
(0 -0 1.36099e-05)
(0 -0 1.35805e-05)
(0 -0 1.35502e-05)
(0 -0 1.3519e-05)
(0 -0 1.34867e-05)
(0 -0 1.34526e-05)
(0 -0 1.34151e-05)
(0 -0 1.33659e-05)
(0 -0 1.32891e-05)
(0 -0 1.32731e-05)
(0 -0 1.41612e-05)
(0 -0 1.84261e-05)
(0 -0 2.42983e-05)
(0 -0 1.12267e-05)
(0 -0 1.11846e-05)
(0 -0 1.1169e-05)
(0 -0 1.1158e-05)
(0 -0 1.11405e-05)
(0 -0 1.11166e-05)
(0 -0 1.10903e-05)
(0 -0 1.10641e-05)
(0 -0 1.10376e-05)
(0 -0 1.10098e-05)
(0 -0 1.09801e-05)
(0 -0 1.09492e-05)
(0 -0 1.09183e-05)
(0 -0 1.08882e-05)
(0 -0 1.08593e-05)
(0 -0 1.08307e-05)
(0 -0 1.08011e-05)
(0 -0 1.07695e-05)
(0 -0 1.07348e-05)
(0 -0 1.06926e-05)
(0 -0 1.06182e-05)
(0 -0 1.04308e-05)
(0 -0 1.0096e-05)
(0 -0 1.06625e-05)
(0 -0 1.60984e-05)
(0 -0 2.53405e-05)
(0 -0 -4.45476e-06)
(0 -0 -4.46045e-06)
(0 -0 -4.45453e-06)
(0 -0 -4.4509e-06)
(0 -0 -4.45321e-06)
(0 -0 -4.45943e-06)
(0 -0 -4.46692e-06)
(0 -0 -4.47523e-06)
(0 -0 -4.4848e-06)
(0 -0 -4.49568e-06)
(0 -0 -4.50711e-06)
(0 -0 -4.51746e-06)
(0 -0 -4.5251e-06)
(0 -0 -4.52989e-06)
(0 -0 -4.53303e-06)
(0 -0 -4.53629e-06)
(0 -0 -4.54096e-06)
(0 -0 -4.5476e-06)
(0 -0 -4.5574e-06)
(0 -0 -4.5784e-06)
(0 -0 -4.65346e-06)
(0 -0 -4.94296e-06)
(0 -0 -5.78418e-06)
(0 -0 -6.97026e-06)
(0 -0 -5.42544e-06)
(0 -0 1.62524e-06)
(0 -0 -2.21995e-06)
(0 -0 -2.21899e-06)
(0 -0 -2.22155e-06)
(0 -0 -2.22753e-06)
(0 -0 -2.23362e-06)
(0 -0 -2.23908e-06)
(0 -0 -2.24446e-06)
(0 -0 -2.25124e-06)
(0 -0 -2.25995e-06)
(0 -0 -2.26935e-06)
(0 -0 -2.27746e-06)
(0 -0 -2.2832e-06)
(0 -0 -2.28714e-06)
(0 -0 -2.29082e-06)
(0 -0 -2.29548e-06)
(0 -0 -2.30176e-06)
(0 -0 -2.30928e-06)
(0 -0 -2.31754e-06)
(0 -0 -2.32851e-06)
(0 -0 -2.35343e-06)
(0 -0 -2.45229e-06)
(0 -0 -2.85567e-06)
(0 -0 -4.10443e-06)
(0 -0 -6.29243e-06)
(0 -0 -5.93687e-06)
(0 -0 2.04022e-06)
(0 -0 -6.05306e-07)
(0 -0 -6.01756e-07)
(0 -0 -5.90871e-07)
(0 -0 -5.86242e-07)
(0 -0 -5.91014e-07)
(0 -0 -6.03208e-07)
(0 -0 -6.19251e-07)
(0 -0 -6.36742e-07)
(0 -0 -6.53218e-07)
(0 -0 -6.66049e-07)
(0 -0 -6.74147e-07)
(0 -0 -6.78957e-07)
(0 -0 -6.83034e-07)
(0 -0 -6.87577e-07)
(0 -0 -6.92375e-07)
(0 -0 -6.96601e-07)
(0 -0 -6.99411e-07)