/*--------------------------------*- C++ -*----------------------------------*\
| =========                 |                                                 |
| \\      /  F ield         | OpenFOAM: The Open Source CFD Toolbox           |
|  \\    /   O peration     | Version:  2412                                  |
|   \\  /    A nd           | Website:  www.openfoam.com                      |
|    \\/     M anipulation  |                                                 |
\*---------------------------------------------------------------------------*/
FoamFile
{
    version     2.0;
    format      ascii;
    arch        "LSB;label=32;scalar=64";
    class       volScalarField;
    location    "6";
    object      p;
}
// * * * * * * * * * * * * * * * * * * * * * * * * * * * * * * * * * * * * * //

dimensions      [0 2 -2 0 0 0 0];

internalField   nonuniform List<scalar> 
5285
(
-1.5233e-05
-2.7597e-05
-3.90976e-05
-4.98171e-05
-5.97581e-05
-6.89177e-05
-7.73082e-05
-8.49479e-05
-9.18577e-05
-9.80608e-05
-0.000103583
-0.000108453
-0.000112701
-0.000116356
-0.000119453
-0.000122022
-0.000124097
-0.00012571
-0.000126892
-0.000127677
-0.000128093
-0.000128172
-0.000127942
-0.000127432
-3.14399e-05
-4.41149e-05
-5.57528e-05
-6.65803e-05
-7.65878e-05
-8.57594e-05
-9.41101e-05
-0.000101663
-0.000108442
-0.000114474
-0.000119789
-0.000124417
-0.000128393
-0.00013175
-0.000134525
-0.000136753
-0.00013847
-0.000139712
-0.000140513
-0.000140907
-0.000140929
-0.00014061
-0.00013998
-0.000139071
-4.85872e-05
-6.15799e-05
-7.3337e-05
-8.42596e-05
-9.43213e-05
-0.000103488
-0.000111778
-0.00011922
-0.000125841
-0.000131673
-0.000136747
-0.0001411
-0.000144769
-0.000147792
-0.000150209
-0.000152059
-0.000153381
-0.000154215
-0.000154598
-0.000154567
-0.000154159
-0.000153408
-0.000152348
-0.00015101
-6.67399e-05
-8.00582e-05
-9.19188e-05
-0.000102923
-0.000113023
-0.000122164
-0.000130369
-0.000137672
-0.000144105
-0.000149702
-0.000154501
-0.000158541
-0.000161864
-0.000164514
-0.000166532
-0.000167963
-0.00016885
-0.000169236
-0.000169162
-0.000168668
-0.000167793
-0.000166574
-0.000165048
-0.000163248
-8.59718e-05
-9.96255e-05
-0.000111572
-0.000122641
-0.000132761
-0.000141854
-0.000149945
-0.000157077
-0.000163286
-0.000168611
-0.000173095
-0.00017678
-0.000179715
-0.000181946
-0.000183522
-0.00018449
-0.000184897
-0.000184791
-0.000184217
-0.000183217
-0.000181835
-0.000180111
-0.000178082
-0.000175785
-0.000106368
-0.000120366
-0.00013238
-0.000143494
-0.000153612
-0.000162627
-0.000170572
-0.000177497
-0.000183443
-0.000188454
-0.000192576
-0.000195861
-0.000198359
-0.000200123
-0.000201207
-0.000201662
-0.000201542
-0.000200896
-0.000199775
-0.000198226
-0.000196293
-0.000194021
-0.000191451
-0.00018862
-0.000128022
-0.000142372
-0.00015443
-0.000165566
-0.000175656
-0.000184564
-0.000192325
-0.000199
-0.000204637
-0.000209285
-0.000212996
-0.000215828
-0.000217836
-0.000219079
-0.000219616
-0.000219505
-0.000218804
-0.000217567
-0.000215848
-0.0002137
-0.000211171
-0.000208307
-0.000205152
-0.000201747
-0.000151035
-0.000165746
-0.000177822
-0.000188954
-0.000198985
-0.000207747
-0.000215281
-0.000221659
-0.000226936
-0.000231166
-0.000234409
-0.000236728
-0.000238187
-0.000238849
-0.00023878
-0.000238043
-0.000236702
-0.000234817
-0.000232446
-0.000229646
-0.00022647
-0.000222966
-0.000219183
-0.000215162
-0.000175521
-0.000190599
-0.000202663
-0.00021376
-0.000223697
-0.00023227
-0.000239528
-0.000245554
-0.000250412
-0.000254162
-0.000256873
-0.000258614
-0.000259456
-0.00025947
-0.000258728
-0.0002573
-0.000255256
-0.000252661
-0.000249579
-0.00024607
-0.000242192
-0.000237998
-0.000233537
-0.000228856
-0.000201605
-0.000217056
-0.000229074
-0.000240098
-0.000249901
-0.000258235
-0.000265159
-0.000270771
-0.000275143
-0.000278344
-0.000280449
-0.000281537
-0.000281688
-0.00028098
-0.000279492
-0.000277301
-0.000274483
-0.00027111
-0.000267252
-0.000262973
-0.000258335
-0.000253396
-0.000248208
-0.000242819
-0.000229428
-0.000245257
-0.000257187
-0.000268096
-0.000277715
-0.000285752
-0.000292278
-0.000297404
-0.000301213
-0.000303784
-0.000305203
-0.000305556
-0.000304932
-0.000303418
-0.000301102
-0.000298069
-0.000294401
-0.000290176
-0.000285471
-0.000280356
-0.000274897
-0.000269154
-0.000263183
-0.000257037
-0.000259147
-0.000275357
-0.00028715
-0.000297892
-0.00030727
-0.000314945
-0.000320997
-0.000325555
-0.000328715
-0.000330566
-0.000331204
-0.000330728
-0.000329236
-0.000326825
-0.000323591
-0.000319627
-0.000315024
-0.000309868
-0.000304241
-0.000298217
-0.000291869
-0.00028526
-0.00027845
-0.000271494
-0.000290938
-0.00030753
-0.000319126
-0.000329641
-0.000338713
-0.000345947
-0.000351437
-0.000355334
-0.000357745
-0.000358774
-0.000358528
-0.000357117
-0.000354652
-0.000351241
-0.000346988
-0.000341998
-0.000336368
-0.000330193
-0.00032356
-0.000316551
-0.000309241
-0.0003017
-0.00029399
-0.000286168
-0.000324999
-0.00034197
-0.000353299
-0.000363515
-0.000372203
-0.000378906
-0.000383734
-0.000386861
-0.000388411
-0.000388501
-0.000387252
-0.000384788
-0.000381233
-0.000376707
-0.000371325
-0.000365202
-0.000358444
-0.000351154
-0.000343426
-0.000335348
-0.000327001
-0.000318457
-0.000309783
-0.000301037
-0.000361551
-0.000378894
-0.000389872
-0.000399705
-0.000407917
-0.000413985
-0.000418034
-0.000420268
-0.000420827
-0.000419844
-0.000417459
-0.000413809
-0.000409033
-0.000403264
-0.000396631
-0.000389257
-0.000381261
-0.000372752
-0.000363832
-0.000354596
-0.000345129
-0.000335508
-0.000325802
-0.000316071
-0.000400844
-0.000418548
-0.000429075
-0.000438424
-0.000446052
-0.000451361
-0.000454498
-0.000455694
-0.000455115
-0.00045291
-0.000449236
-0.000444251
-0.000438107
-0.000430954
-0.000422933
-0.00041418
-0.000404823
-0.000394982
-0.000384766
-0.000374276
-0.000363602
-0.000352824
-0.000342015
-0.000331236
-0.00044316
-0.000461206
-0.000471164
-0.000479908
-0.000486825
-0.000491233
-0.0004933
-0.000493295
-0.000491407
-0.000487808
-0.000482674
-0.000476184
-0.000468509
-0.000459814
-0.000450255
-0.000439981
-0.000429132
-0.000417836
-0.000406211
-0.000394364
-0.00038239
-0.000370372
-0.000358385
-0.000346493
-0.000488818
-0.000507182
-0.000516426
-0.000524424
-0.00053048
-0.000533818
-0.000534634
-0.000533238
-0.000529847
-0.000524656
-0.000517869
-0.000509684
-0.000500293
-0.00048988
-0.000478618
-0.000466668
-0.000454181
-0.000441298
-0.000428143
-0.00041483
-0.000401457
-0.000388112
-0.00037487
-0.000361796
-0.000521187
-0.000508037
-0.00049424
-0.00047996
-0.000465345
-0.00045053
-0.000435634
-0.000420758
-0.000405994
-0.000391418
-0.000377093
8.71705e-05
7.06862e-05
5.48141e-05
3.95706e-05
2.49678e-05
1.10176e-05
-2.26228e-06
7.46083e-05
5.75881e-05
4.11957e-05
2.54484e-05
1.03587e-05
-4.05185e-06
-1.77553e-05
6.1345e-05
4.3751e-05
2.6803e-05
1.05204e-05
-5.08401e-06
-1.99767e-05
-3.41171e-05
4.73303e-05
2.91315e-05
1.15974e-05
-5.25133e-06
-2.14018e-05
-3.68069e-05
-5.14101e-05
3.25058e-05
1.36675e-05
-4.48677e-06
-2.19345e-05
-3.86631e-05
-5.46092e-05
-6.96992e-05
1.68074e-05
-2.7091e-06
-2.15207e-05
-3.96035e-05
-5.69447e-05
-7.34627e-05
-8.90659e-05
1.64204e-07
-2.00718e-05
-3.95812e-05
-5.83379e-05
-7.63295e-05
-9.34537e-05
-0.0001096
-1.75021e-05
-3.85018e-05
-5.87524e-05
-7.82253e-05
-9.69084e-05
-0.000114677
-0.000131399
-3.62741e-05
-5.80878e-05
-7.91267e-05
-9.93621e-05
-0.000118781
-0.000137235
-0.00015457
-5.62463e-05
-7.8927e-05
-0.000100807
-0.000121855
-0.000142059
-0.000161243
-0.000179231
-7.75223e-05
-0.000101129
-0.000123907
-0.000145822
-0.000166864
-0.000186828
-0.000205511
-0.000100219
-0.000124815
-0.000148552
-0.000171395
-0.000193333
-0.000214129
-0.000233552
-0.000124467
-0.000150122
-0.000174886
-0.00019872
-0.000221616
-0.000243303
-0.000263515
-0.00015041
-0.000177201
-0.000203065
-0.000227962
-0.000251885
-0.000274524
-0.000295577
-0.00017821
-0.000206222
-0.000233268
-0.000259304
-0.000284328
-0.000307989
-0.000329938
-0.000208051
-0.000237376
-0.000265692
-0.000292955
-0.000319162
-0.000343918
-0.000366824
-0.000240136
-0.000270878
-0.000300564
-0.000329146
-0.000356627
-0.000382562
-0.000406489
-0.000274698
-0.000306972
-0.000338137
-0.000368143
-0.000396998
-0.000424202
-0.00044922
-0.000312001
-0.000345934
-0.0003787
-0.000410246
-0.000440586
-0.000469162
-0.000495347
-0.000352342
-0.000388079
0.000217549
0.000197519
0.00017793
0.000158772
0.000140077
0.000121892
0.000104247
0.000209096
0.000188391
0.000168229
0.000148486
0.000129203
0.000110442
9.22346e-05
0.000200167
0.000178762
0.000158013
0.000137656
0.00011775
9.83708e-05
7.95607e-05
0.000190739
0.000168584
0.000147215
0.000126209
0.000105641
8.56139e-05
6.61672e-05
0.000180768
0.00015781
0.000135789
0.000114099
9.28322e-05
7.21176e-05
5.19994e-05
0.000170213
0.000146397
0.000123689
0.000101276
7.92692e-05
5.78267e-05
3.69968e-05
0.000159032
0.000134295
0.000110862
8.76846e-05
6.48922e-05
4.26769e-05
2.1091e-05
0.000147177
0.000121451
9.72503e-05
7.3263e-05
4.96357e-05
2.65983e-05
4.20666e-06
0.000134596
0.000107805
8.27917e-05
5.7944e-05
3.3428e-05
9.5172e-06
-1.37235e-05
0.00012123
9.32915e-05
6.74161e-05
4.1653e-05
1.61891e-05
-8.65426e-06
-3.28066e-05
0.000107018
7.78396e-05
5.10465e-05
2.43074e-05
-2.16931e-06
-2.80085e-05
-5.31335e-05
9.18894e-05
6.13694e-05
3.35975e-05
5.81595e-06
-2.17452e-05
-4.86501e-05
-7.48148e-05
7.57689e-05
4.37929e-05
1.49748e-05
-1.3923e-05
-4.26477e-05
-7.06957e-05
-9.79746e-05
5.85725e-05
2.50129e-05
-4.92672e-06
-3.50226e-05
-6.49987e-05
-9.42751e-05
-0.00012275
4.0208e-05
4.92116e-06
-2.6224e-05
-5.7609e-05
-8.8934e-05
-0.000119534
-0.000149296
2.05736e-05
-1.66022e-05
-4.90475e-05
-8.18232e-05
-0.000114606
-0.000146634
-0.000177785
-4.43122e-07
-3.96907e-05
-7.35425e-05
-0.000107823
-0.000142185
-0.00017576
-0.00020841
-2.29663e-05
-6.44936e-05
-9.98723e-05
-0.000135786
-0.000171864
-0.000207117
-0.000241393
-4.71339e-05
-9.11764e-05
-0.00012822
-0.000165911
-0.00020386
-0.000240939
-0.000276982
-0.000277491
-0.000315459
0.000845239
0.00083405
0.000822355
0.000810146
0.000797414
0.000784152
0.000770355
0.00075602
0.000741143
0.000725726
0.000709768
0.000693276
0.000676255
0.000658714
0.000640665
0.000622122
0.000603102
0.000583627
0.000563719
0.000543406
0.000522716
0.000501684
0.000480345
0.000458738
0.000436906
0.000414894
0.000392748
0.000370519
0.000348258
0.000326019
0.000303857
0.000281827
0.000259989
0.000238422
0.000856596
0.00084533
0.000833533
0.000821195
0.000808307
0.000794861
0.000780849
0.000766267
0.000751111
0.00073538
0.000719074
0.000702197
0.000684754
0.000666754
0.000648208
0.000629131
0.000609539
0.000589454
0.0005689
0.000547904
0.000526498
0.000504716
0.000482597
0.000460182
0.000437516
0.000414647
0.000391625
0.000368505
0.000345343
0.000322195
0.000299122
0.000276183
0.000253451
0.000231018
0.000868451
0.000857117
0.000845227
0.000832769
0.000819733
0.000806107
0.000791884
0.000777057
0.000761622
0.000745575
0.000728915
0.000711646
0.000693772
0.0006753
0.000656241
0.00063661
0.000616423
0.000595702
0.000574472
0.000552761
0.000530601
0.00050803
0.000485088
0.000461817
0.000438268
0.000414489
0.000390537
0.000366469
0.000342345
0.000318228
0.000294182
0.000270271
0.000246581
0.000223223
0.000880825
0.000869436
0.000857464
0.000844896
0.000831719
0.000817921
0.000803492
0.000788424
0.00077271
0.000756345
0.000739329
0.000721661
0.000703345
0.000684388
0.000664801
0.000644596
0.000623791
0.000602407
0.00058047
0.000558009
0.000535058
0.000511655
0.000487843
0.000463668
0.000439181
0.000414437
0.000389495
0.000364416
0.000339267
0.000314114
0.000289028
0.000264076
0.00023936
0.000215015
0.000893742
0.000882311
0.00087027
0.000857603
0.000844296
0.000830334
0.000815706
0.0008004
0.00078441
0.000767728
0.000750352
0.000732279
0.000713514
0.00069406
0.000673928
0.00065313
0.000631683
0.000609609
0.000586933
0.000563686
0.000539903
0.000515623
0.000490892
0.000465759
0.000440278
0.000414508
0.000388511
0.000362355
0.00033611
0.000309849
0.000283649
0.000257582
0.000231767
0.000206363
0.000907225
0.000895768
0.000883672
0.00087092
0.000857494
0.000843379
0.00082856
0.000813024
0.000796761
0.000779764
0.000762025
0.000743544
0.00072432
0.000704358
0.000683666
0.000662255
0.000640143
0.00061735
0.000593902
0.000569831
0.000545173
0.00051997
0.000494268
0.000468119
0.000441583
0.00041472
0.0003876
0.000360293
0.000332877
0.000305431
0.000278037
0.000250772
0.000223777
0.000197238
0.0009213
0.000909834
0.0008977
0.000884878
0.000871348
0.000857091
0.000842091
0.000826333
0.000809804
0.000792493
0.000774394
0.0007555
0.000735812
0.00071533
0.000694063
0.00067202
0.000649218
0.000625677
0.000601423
0.000576489
0.000550911
0.000524733
0.000498005
0.000470781
0.000443123
0.000415098
0.000386779
0.000358243
0.000329572
0.000300855
0.000272179
0.000243629
0.000215364
0.000187605
0.000935992
0.000924537
0.000912383
0.000899508
0.000885889
0.000871506
0.000856338
0.000840368
0.000823581
0.000805962
0.000787503
0.000768196
0.000748037
0.000727027
0.00070517
0.000682476
0.00065896
0.000634641
0.000609547
0.000583708
0.000557164
0.000529959
0.000502145
0.00047378
0.00044493
0.000415667
0.000386068
0.000356216
0.000326202
0.000296121
0.000266068
0.000236134
0.000206502
0.000177429
0.000951327
0.000939904
0.000927752
0.000914844
0.000901156
0.000886662
0.000871341
0.000855173
0.000838137
0.000820218
0.000801404
0.000781683
0.00076105
0.000739502
0.000717043
0.000693679
0.000669425
0.000644299
0.000618328
0.000591542
0.000563982
0.000535694
0.000506732
0.000477158
0.00044704
0.000416456
0.000385489
0.00035423
0.000322774
0.000291226
0.000259691
0.000228265
0.000197159
0.00016667
0.00096733
0.000955965
0.000943838
0.00093092
0.000917183
0.0009026
0.000887144
0.000870792
0.000853521
0.000835312
0.000816148
0.000796017
0.000774907
0.000752816
0.000729743
0.000705692
0.000680676
0.000654713
0.000627827
0.000600051
0.000571424
0.000541994
0.000511818
0.00048096
0.000449493
0.0004175
0.00038507
0.000352301
0.000319298
0.000286172
0.000253039
0.000220004
0.000187305
0.000155286
0.00098403
0.000972749
0.000960673
0.000947771
0.00093401
0.00091936
0.00090379
0.000887274
0.000869784
0.000851297
0.000831794
0.000811256
0.000789672
0.000767032
0.000743334
0.000718581
0.000692781
0.00066595
0.000638113
0.0006093
0.000579553
0.000548919
0.000517458
0.000485238
0.000452335
0.000418838
0.000384842
0.000350453
0.000315785
0.000280959
0.000246101
0.000211327
0.000176905
0.000143229
0.00100145
0.000990286
0.000978292
0.000965434
0.000951677
0.000936986
0.000921327
0.000904668
0.000886978
0.000868231
0.0008484
0.000827465
0.000805409
0.000782219
0.000757889
0.000732418
0.000705811
0.000678084
0.000649258
0.000619363
0.000588439
0.000556537
0.000523718
0.000490051
0.000455619
0.000420514
0.000384841
0.000348712
0.00031225
0.00027559
0.000238869
0.000202211
0.000165921
0.000130448
0.00101963
0.00100861
0.000996727
0.000983946
0.000970224
0.000955523
0.000939803
0.000923027
0.000905161
0.000886173
0.000866031
0.000844711
0.000822189
0.00079845
0.000773483
0.000747281
0.000719849
0.000691197
0.000661343
0.000630319
0.000598162
0.000564924
0.000530667
0.000495464
0.000459402
0.00042258
0.000385107
0.000347108
0.000308714
0.000270073
0.000231334
0.000192633
0.000154314
0.000116888
0.00103858
0.00102774
0.00101601
0.00100334
0.000989694
0.000975016
0.000959267
0.000942406
0.000924392
0.000905186
0.000884755
0.000863065
0.000840089
0.000815806
0.000790199
0.000763258
0.000734981
0.000705376
0.000674459
0.000642257
0.000608809
0.000574164
0.000538387
0.000501553
0.000463754
0.000425094
0.000385691
0.000345678
0.000305199
0.000264414
0.000223487
0.000182568
0.000142041
0.000102489
0.00105833
0.00104772
0.00103618
0.00102367
0.00101013
0.000995513
0.000979773
0.000962861
0.000944731
0.000925339
0.000904642
0.000882604
0.00085919
0.000834371
0.000808126
0.000780439
0.000751303
0.000720721
0.000688704
0.000655277
0.000620476
0.000584352
0.000546967
0.000508402
0.000468751
0.000428124
0.000386648
0.000344466
0.000301734
0.000258627
0.000215325
0.000171991
0.000129056
8.71839e-05
0.00107891
0.00106857
0.00105727
0.00104496
0.00103157
0.00101706
0.00100137
0.000984452
0.000966244
0.0009467
0.00092577
0.00090341
0.000879577
0.000854238
0.000827362
0.000798927
0.000768919
0.000737336
0.000704186
0.000669486
0.000633273
0.000595592
0.00055651
0.000516107
0.00047448
0.000431748
0.000388045
0.000343524
0.000298355
0.000252728
0.000206842
0.000160876
0.000115312
7.09014e-05
0.00110035
0.00109033
0.00107932
0.00106725
0.00105407
0.00103971
0.00102412
0.00100724
0.000988998
0.000969343
0.000948217
0.000925567
0.000901344
0.000875504
0.000848008
0.000818828
0.000787942
0.00075534
0.000721023
0.000685006
0.000647317
0.000608004
0.000567129
0.000524775
0.000481043
0.000436056
0.000389957
0.000342911
0.000295103
0.00024674
0.000198039
0.000149198
0.000100757
5.3563e-05
0.00112267
0.00111302
0.00110235
0.00109058
0.00107766
0.00106352
0.00104808
0.00103129
0.00101306
0.000993345
0.000972068
0.000949168
0.000924588
0.000898273
0.000870178
0.000840261
0.000808495
0.000774859
0.000739347
0.000701968
0.000662744
0.000621719
0.000578953
0.000534529
0.000488552
0.00044115
0.000392474
0.000342701
0.000292032
0.000240691
0.000188919
0.000136932
8.5335e-05
3.5083e-05
0.000574284
0.000569314
0.000564317
0.000559296
0.00055425
0.000549181
0.000544091
0.00053898
0.00053385
0.000528702
0.000523537
0.000518357
0.000513162
0.000507954
0.000502735
0.000497505
0.000492267
0.00048702
0.000481768
0.00047651
0.000471249
0.000465986
0.000460722
0.000455458
0.000450196
0.000444938
0.000439684
0.000434437
0.000429196
0.000423965
0.000418743
0.000413533
0.000408336
0.000403152
0.000574492
0.000569514
0.000564509
0.000559478
0.000554424
0.000549346
0.000544247
0.000539127
0.000533987
0.00052883
0.000523655
0.000518465
0.00051326
0.000508042
0.000502813
0.000497573
0.000492324
0.000487068
0.000481805
0.000476537
0.000471265
0.000465991
0.000460717
0.000455443
0.00045017
0.000444901
0.000439637
0.000434379
0.000429128
0.000423886
0.000418655
0.000413434
0.000408227
0.000403034
0.000574898
0.000569903
0.000564882
0.000559835
0.000554763
0.000549668
0.00054455
0.000539412
0.000534254
0.000529078
0.000523885
0.000518675
0.000513451
0.000508214
0.000502965
0.000497705
0.000492436
0.00048716
0.000481876
0.000476588
0.000471296
0.000466002
0.000460707
0.000455412
0.00045012
0.00044483
0.000439546
0.000434267
0.000428996
0.000423734
0.000418483
0.000413243
0.000408016
0.000402803
0.000575492
0.000570474
0.000565428
0.000560356
0.000555259
0.000550138
0.000544995
0.00053983
0.000534645
0.000529442
0.000524221
0.000518983
0.000513731
0.000508465
0.000503187
0.000497899
0.000492601
0.000487294
0.000481982
0.000476664
0.000471342
0.000466018
0.000460693
0.000455368
0.000450045
0.000444726
0.000439412
0.000434104
0.000428803
0.000423512
0.000418231
0.000412962
0.000407706
0.000402465
0.000576267
0.000571217
0.00056614
0.000561036
0.000555906
0.000550752
0.000545575
0.000540376
0.000535156
0.000529917
0.00052466
0.000519386
0.000514097
0.000508794
0.000503478
0.000498151
0.000492815
0.00048747
0.000482119
0.000476762
0.000471401
0.000466038
0.000460674
0.00045531
0.000449949
0.000444591
0.000439237
0.00043389
0.000428551
0.000423221
0.000417902
0.000412595
0.000407302
0.000402023
0.000577215
0.000572128
0.000567012
0.000561869
0.000556699
0.000551504
0.000546285
0.000541044
0.000535781
0.000530499
0.000525197
0.000519879
0.000514545
0.000509196
0.000503835
0.000498461
0.000493078
0.000487687
0.000482288
0.000476883
0.000471475
0.000466064
0.000460652
0.00045524
0.000449831
0.000444424
0.000439023
0.000433629
0.000428242
0.000422865
0.000417499
0.000412146
0.000406806
0.000401482
0.000578332
0.000573201
0.000568039
0.00056285
0.000557633
0.00055239
0.000547123
0.000541831
0.000536518
0.000531185
0.000525832
0.000520461
0.000515073
0.000509671
0.000504255
0.000498827
0.000493389
0.000487942
0.000482487
0.000477027
0.000471562
0.000466094
0.000460626
0.000455158
0.000449691
0.000444229
0.000438771
0.000433321
0.000427878
0.000422446
0.000417024
0.000411616
0.000406222
0.000400844
0.000579612
0.00057443
0.000569218
0.000563975
0.000558705
0.000553407
0.000548083
0.000542736
0.000537365
0.000531972
0.00052656
0.000521129
0.00051568
0.000510216
0.000504738
0.000499248
0.000493746
0.000488235
0.000482717
0.000477192
0.000471662
0.00046613
0.000460596
0.000455063
0.000449532
0.000444005
0.000438482
0.000432967
0.00042746
0.000421964
0.000416479
0.000411008
0.000405552
0.000400112
0.000581052
0.000575814
0.000570544
0.000565242
0.000559911
0.000554552
0.000549166
0.000543754
0.000538318
0.00053286
0.00052738
0.000521882
0.000516365
0.000510831
0.000505283
0.000499722
0.000494149
0.000488567
0.000482976
0.000477378
0.000471776
0.000466171
0.000460564
0.000454958
0.000449353
0.000443752
0.000438157
0.000432569
0.00042699
0.000421422
0.000415866
0.000410323
0.000404797
0.000399288
0.00058265
0.000577349
0.000572015
0.000566648
0.00056125
0.000555823
0.000550367
0.000544885
0.000539377
0.000533846
0.000528292
0.000522718
0.000517125
0.000511515
0.00050589
0.00050025
0.000494598
0.000488936
0.000483265
0.000477587
0.000471904
0.000466217
0.000460529
0.000454841
0.000449155
0.000443473
0.000437797
0.000432128
0.000426468
0.00042082
0.000415184
0.000409563
0.000403958
0.000398371
0.000584402
0.000579033
0.000573629
0.000568191
0.00056272
0.000557218
0.000551686
0.000546127
0.000540541
0.000534929
0.000529295
0.000523639
0.000517962
0.000512268
0.000506557
0.000500831
0.000495092
0.000489342
0.000483583
0.000477817
0.000472045
0.000466269
0.000460491
0.000454714
0.000448939
0.000443167
0.000437401
0.000431644
0.000425895
0.000420159
0.000414436
0.000408728
0.000403037
0.000397365
0.000586307
0.000580864
0.000575385
0.000569869
0.00056432
0.000558737
0.000553123
0.00054748
0.000541808
0.00053611
0.000530388
0.000524642
0.000518875
0.000513089
0.000507285
0.000501465
0.000495632
0.000489787
0.000483932
0.000478069
0.0004722
0.000466327
0.000460452
0.000454577
0.000448704
0.000442835
0.000436972
0.000431117
0.000425272
0.000419439
0.000413621
0.000407818
0.000402034
0.000396269
0.000588364
0.000582842
0.000577282
0.000571683
0.000566049
0.00056038
0.000554677
0.000548943
0.00054318
0.000537388
0.000531571
0.000525728
0.000519864
0.000513978
0.000508074
0.000502154
0.000496218
0.00049027
0.000484311
0.000478344
0.00047237
0.000466391
0.000460411
0.00045443
0.000448451
0.000442477
0.000436508
0.000430548
0.000424599
0.000418662
0.00041274
0.000406835
0.000400949
0.000395084
0.000590572
0.000584966
0.000579319
0.000573633
0.000567907
0.000562145
0.000556348
0.000550518
0.000544656
0.000538764
0.000532844
0.000526899
0.000520929
0.000514937
0.000508926
0.000502896
0.000496851
0.000490792
0.000484721
0.000478642
0.000472555
0.000466463
0.000460369
0.000454274
0.000448181
0.000442093
0.000436011
0.000429938
0.000423876
0.000417827
0.000411793
0.000405778
0.000399782
0.000393809
0.000592931
0.000587237
0.000581498
0.000575717
0.000569896
0.000564035
0.000558137
0.000552204
0.000546237
0.000540238
0.00053421
0.000528154
0.000522072
0.000515967
0.00050984
0.000503694
0.000497531
0.000491353
0.000485163
0.000478963
0.000472756
0.000466542
0.000460326
0.00045411
0.000447895
0.000441684
0.000435481
0.000429286
0.000423103
0.000416934
0.000410781
0.000404647
0.000398534
0.000392445
0.000595442
0.000589653
0.000583818
0.000577938
0.000572014
0.000566049
0.000560044
0.000554002
0.000547924
0.000541812
0.000535668
0.000529494
0.000523293
0.000517067
0.000510818
0.000504548
0.00049826
0.000491956
0.000485638
0.00047931
0.000472973
0.00046663
0.000460284
0.000453937
0.000447592
0.000441251
0.000434917
0.000428593
0.000422281
0.000415983
0.000409703
0.000403442
0.000397204
0.00039099
0.000598105
0.000592217
0.00058628
0.000580295
0.000574264
0.000568189
0.000562072
0.000555914
0.000549718
0.000543486
0.00053722
0.000530922
0.000524594
0.00051824
0.000511861
0.000505459
0.000499038
0.0004926
0.000486147
0.000479682
0.000473208
0.000466728
0.000460243
0.000453757
0.000447273
0.000440794
0.000434321
0.000427859
0.000421409
0.000414974
0.000408558
0.000402163
0.000395791
0.000389446
0.00060092
0.000594929
0.000588885
0.00058279
0.000576647
0.000570456
0.00056422
0.000557941
0.000551621
0.000545262
0.000538867
0.000532438
0.000525977
0.000519487
0.000512971
0.00050643
0.000499868
0.000493287
0.000486691
0.000480082
0.000473462
0.000466835
0.000460204
0.000453571
0.000446939
0.000440312
0.000433693
0.000427083
0.000420487
0.000413908
0.000407347
0.000400809
0.000394295
0.00038781
0.00060389
0.00059779
0.000591635
0.000585426
0.000579164
0.000572852
0.000566492
0.000560085
0.000553635
0.000547143
0.000540612
0.000534045
0.000527443
0.00052081
0.000514149
0.000507461
0.00050075
0.00049402
0.000487271
0.000480509
0.000473735
0.000466953
0.000460167
0.000453378
0.00044659
0.000439807
0.000433032
0.000426267
0.000419516
0.000412782
0.000406069
0.000399379
0.000392715
0.000386081
0.000607015
0.000600803
0.000594532
0.000588203
0.000581818
0.000575379
0.000568889
0.000562349
0.000555762
0.000549131
0.000542457
0.000535745
0.000528995
0.000522212
0.000515397
0.000508555
0.000501688
0.000494798
0.00048789
0.000480966
0.00047403
0.000467084
0.000460133
0.00045318
0.000446227
0.000439279
0.000432339
0.00042541
0.000418495
0.000411599
0.000404723
0.000397873
0.000391051
0.00038426
0.000610298
0.00060397
0.000597578
0.000591124
0.000584611
0.00057804
0.000571413
0.000564734
0.000558005
0.000551227
0.000544404
0.000537539
0.000530635
0.000523693
0.000516719
0.000509714
0.000502681
0.000495625
0.000488548
0.000481454
0.000474347
0.000467229
0.000460105
0.000452977
0.000445851
0.000438728
0.000431614
0.000424511
0.000417424
0.000410355
0.000403309
0.00039629
0.0003893
0.000382343
0.000613741
0.000607292
0.000600774
0.000594191
0.000587544
0.000580836
0.000574068
0.000567244
0.000560365
0.000553435
0.000546456
0.000539432
0.000532365
0.000525258
0.000518115
0.000510939
0.000503734
0.000496502
0.000489248
0.000481976
0.000474688
0.000467389
0.000460082
0.000452771
0.000445461
0.000438156
0.000430858
0.000423572
0.000416302
0.000409052
0.000401827
0.000394628
0.000387462
0.000380331
0.000617345
0.000610771
0.000604125
0.000597408
0.000590622
0.000583771
0.000576856
0.000569881
0.000562847
0.000555758
0.000548616
0.000541425
0.000534188
0.000526908
0.000519589
0.000512235
0.000504848
0.000497432
0.000489992
0.000482532
0.000475054
0.000467564
0.000460066
0.000452563
0.00044506
0.000437561
0.00043007
0.000422592
0.00041513
0.000407689
0.000400274
0.000392888
0.000385535
0.000378221
0.000621114
0.000614412
0.000607631
0.000600776
0.000593847
0.000586848
0.000579781
0.000572648
0.000565453
0.000558198
0.000550887
0.000543522
0.000536108
0.000528647
0.000521144
0.000513602
0.000506025
0.000498417
0.000490782
0.000483125
0.000475449
0.000467758
0.000460059
0.000452353
0.000444647
0.000436945
0.000429251
0.000421571
0.000413907
0.000406266
0.000398651
0.000391067
0.000383519
0.000376011
0.00062505
0.000618215
0.000611297
0.000604299
0.000597223
0.00059007
0.000582845
0.000575549
0.000568187
0.000560759
0.000553272
0.000545726
0.000538127
0.000530478
0.000522783
0.000515045
0.000507269
0.00049946
0.000491621
0.000483757
0.000475872
0.000467972
0.000460061
0.000452144
0.000444225
0.000436309
0.000428402
0.000420508
0.000412633
0.000404781
0.000396956
0.000389165
0.000381412
0.000373701
0.000629156
0.000622185
0.000615126
0.00060798
0.000600751
0.000593441
0.000586052
0.000578588
0.000571051
0.000563446
0.000555774
0.000548041
0.00054025
0.000532404
0.000524508
0.000516566
0.000508583
0.000500563
0.00049251
0.00048443
0.000476328
0.000468208
0.000460075
0.000451935
0.000443793
0.000435653
0.000427523
0.000419406
0.000411307
0.000403234
0.00039519
0.00038718
0.000379211
0.000371288
0.000633434
0.000626324
0.000619119
0.000611823
0.000604437
0.000596963
0.000589406
0.000581768
0.000574051
0.00056626
0.000558399
0.00055047
0.000542479
0.000534428
0.000526324
0.000518169
0.000509969
0.000501729
0.000493454
0.000485148
0.000476817
0.000468467
0.000460102
0.000451729
0.000443352
0.000434979
0.000426613
0.000418262
0.00040993
0.000401624
0.00039335
0.000385112
0.000376916
0.000368769
0.000637887
0.000630635
0.000623282
0.00061583
0.000608283
0.000600642
0.000592911
0.000585092
0.00057719
0.000569207
0.000561149
0.000553017
0.000544818
0.000536555
0.000528233
0.000519857
0.000511432
0.000502962
0.000494454
0.000485912
0.000477343
0.000468752
0.000460144
0.000451527
0.000442905
0.000434286
0.000425675
0.000417078
0.000408501
0.000399952
0.000391435
0.000382958
0.000374525
0.000366144
0.00064252
0.000635122
0.000627617
0.000620007
0.000612293
0.00060448
0.00059657
0.000588566
0.000580472
0.000572291
0.000564028
0.000555687
0.000547272
0.000538789
0.000530241
0.000521634
0.000512974
0.000504265
0.000495514
0.000486726
0.000477907
0.000469065
0.000460204
0.000451331
0.000442453
0.000433576
0.000424707
0.000415853
0.00040702
0.000398216
0.000389446
0.000380717
0.000372036
0.00036341
0.000647334
0.000639788
0.000632128
0.000624355
0.000616472
0.000608482
0.000600388
0.000592193
0.000583901
0.000575516
0.000567042
0.000558484
0.000549846
0.000541133
0.000532351
0.000523504
0.000514599
0.000505641
0.000496637
0.000487592
0.000478514
0.000469408
0.000460282
0.000451142
0.000441996
0.00043285
0.000423712
0.000414589
0.000405487
0.000396415
0.00038738
0.000378388
0.000369448
0.000360565
0.000652333
0.000644637
0.000636819
0.00062888
0.000620823
0.000612652
0.000604369
0.000595977
0.000587482
0.000578886
0.000570194
0.000561411
0.000552542
0.000543592
0.000534566
0.000525471
0.000516312
0.000507095
0.000497827
0.000488515
0.000479165
0.000469785
0.000460382
0.000450963
0.000441537
0.000432109
0.000422689
0.000413284
0.000403902
0.00039455
0.000385237
0.00037597
0.000366757
0.000357605
0.00065752
0.000649672
0.000641692
0.000633585
0.000625351
0.000616994
0.000608517
0.000599924
0.000591219
0.000582406
0.00057349
0.000564475
0.000555367
0.000546171
0.000536893
0.000527539
0.000518116
0.000508629
0.000499087
0.000489496
0.000479864