/*--------------------------------*- C++ -*----------------------------------*\
| =========                 |                                                 |
| \\      /  F ield         | OpenFOAM: The Open Source CFD Toolbox           |
|  \\    /   O peration     | Version:  2412                                  |
|   \\  /    A nd           | Website:  www.openfoam.com                      |
|    \\/     M anipulation  |                                                 |
\*---------------------------------------------------------------------------*/
FoamFile
{
    version     2.0;
    format      ascii;
    arch        "LSB;label=32;scalar=64";
    class       volVectorField;
    location    "6";
    object      U;
}
// * * * * * * * * * * * * * * * * * * * * * * * * * * * * * * * * * * * * * //

dimensions      [0 1 -1 0 0 0 0];

internalField   nonuniform List<vector> 
5285
(
(0.106087 0.000899377 0)
(0.106048 0.00110559 0)
(0.106001 0.00130201 0)
(0.105948 0.00148786 0)
(0.105886 0.00166283 0)
(0.105817 0.00182687 0)
(0.105739 0.00198014 0)
(0.105652 0.00212288 0)
(0.105556 0.00225544 0)
(0.105451 0.00237826 0)
(0.105338 0.00249196 0)
(0.105217 0.00259734 0)
(0.10509 0.00269531 0)
(0.104957 0.00278682 0)
(0.104821 0.00287273 0)
(0.104681 0.00295371 0)
(0.10454 0.00303013 0)
(0.104397 0.00310213 0)
(0.104253 0.00316957 0)
(0.104109 0.00323216 0)
(0.103965 0.00328952 0)
(0.103821 0.00334127 0)
(0.103679 0.0033871 0)
(0.103537 0.00342678 0)
(0.106264 0.000934835 0)
(0.106224 0.0011484 0)
(0.106178 0.00135198 0)
(0.106124 0.00154525 0)
(0.106062 0.00172817 0)
(0.105992 0.0019008 0)
(0.105913 0.00206325 0)
(0.105823 0.00221556 0)
(0.105724 0.00235773 0)
(0.105614 0.00248981 0)
(0.105495 0.00261204 0)
(0.105367 0.00272492 0)
(0.105232 0.00282918 0)
(0.105091 0.00292572 0)
(0.104945 0.00301545 0)
(0.104796 0.00309914 0)
(0.104644 0.00317737 0)
(0.104491 0.00325041 0)
(0.104338 0.00331827 0)
(0.104184 0.00338079 0)
(0.104031 0.00343767 0)
(0.103878 0.00348857 0)
(0.103727 0.00353323 0)
(0.103578 0.00357144 0)
(0.106454 0.000970934 0)
(0.106414 0.00119172 0)
(0.106366 0.00140249 0)
(0.106311 0.00160334 0)
(0.106248 0.00179457 0)
(0.106175 0.00197638 0)
(0.106093 0.0021488 0)
(0.106 0.00231164 0)
(0.105896 0.00246449 0)
(0.105781 0.00260695 0)
(0.105655 0.00273882 0)
(0.10552 0.00286022 0)
(0.105377 0.00297164 0)
(0.105226 0.00307389 0)
(0.105071 0.00316791 0)
(0.104911 0.0032546 0)
(0.10475 0.00333472 0)
(0.104586 0.00340873 0)
(0.104423 0.00347683 0)
(0.104259 0.003539 0)
(0.104096 0.00359504 0)
(0.103935 0.00364471 0)
(0.103775 0.00368778 0)
(0.103617 0.00372409 0)
(0.106661 0.00100837 0)
(0.106618 0.00123659 0)
(0.106568 0.00145481 0)
(0.10651 0.00166361 0)
(0.106443 0.00186361 0)
(0.106367 0.00205518 0)
(0.106281 0.00223827 0)
(0.106183 0.00241244 0)
(0.106073 0.00257686 0)
(0.105951 0.00273064 0)
(0.105818 0.00287305 0)
(0.105674 0.0030038 0)
(0.105522 0.0031231 0)
(0.105362 0.00323164 0)
(0.105196 0.00333036 0)
(0.105026 0.00342031 0)
(0.104854 0.00350241 0)
(0.104681 0.00357734 0)
(0.104507 0.0036455 0)
(0.104333 0.00370704 0)
(0.10416 0.00376191 0)
(0.103989 0.00380996 0)
(0.103821 0.00385103 0)
(0.103654 0.003885 0)
(0.106884 0.00104803 0)
(0.106838 0.00128421 0)
(0.106784 0.00151044 0)
(0.106721 0.00172775 0)
(0.10665 0.00193711 0)
(0.106568 0.00213902 0)
(0.106475 0.00233342 0)
(0.10637 0.00251957 0)
(0.106253 0.00269623 0)
(0.106123 0.00286198 0)
(0.105981 0.00301559 0)
(0.105828 0.0031563 0)
(0.105666 0.00328404 0)
(0.105496 0.00339931 0)
(0.105321 0.00350307 0)
(0.10514 0.00359647 0)
(0.104958 0.00368061 0)
(0.104773 0.00375641 0)
(0.104589 0.00382448 0)
(0.104405 0.00388514 0)
(0.104222 0.00393852 0)
(0.104042 0.00398457 0)
(0.103863 0.00402322 0)
(0.103688 0.00405443 0)
(0.107124 0.00109083 0)
(0.107075 0.00133588 0)
(0.107014 0.00157096 0)
(0.106946 0.00179755 0)
(0.106867 0.00201697 0)
(0.106778 0.00222987 0)
(0.106677 0.00243612 0)
(0.106563 0.00263475 0)
(0.106437 0.0028241 0)
(0.106297 0.00300226 0)
(0.106146 0.00316746 0)
(0.105983 0.00331853 0)
(0.105811 0.00345503 0)
(0.10563 0.00357733 0)
(0.105444 0.00368634 0)
(0.105253 0.00378331 0)
(0.105059 0.00386954 0)
(0.104864 0.00394615 0)
(0.104669 0.00401396 0)
(0.104474 0.00407352 0)
(0.104281 0.00412509 0)
(0.104091 0.00416878 0)
(0.103903 0.00420461 0)
(0.103719 0.00423261 0)
(0.107382 0.00113772 0)
(0.107328 0.00139283 0)
(0.107261 0.00163788 0)
(0.107184 0.00187476 0)
(0.107097 0.00210508 0)
(0.106998 0.00232963 0)
(0.106887 0.00254825 0)
(0.106763 0.00275973 0)
(0.106626 0.00296206 0)
(0.106475 0.00315283 0)
(0.106313 0.00332981 0)
(0.106139 0.00349138 0)
(0.105955 0.0036368 0)
(0.105764 0.00376624 0)
(0.105566 0.0038806 0)
(0.105364 0.00398121 0)
(0.105159 0.0040695 0)
(0.104952 0.00414683 0)
(0.104746 0.00421422 0)
(0.104541 0.00427243 0)
(0.104337 0.00432189 0)
(0.104136 0.00436285 0)
(0.103939 0.00439545 0)
(0.103745 0.00441979 0)
(0.107659 0.00118955 0)
(0.107598 0.00145621 0)
(0.107523 0.0017126 0)
(0.107437 0.00196096 0)
(0.10734 0.00220315 0)
(0.10723 0.00244009 0)
(0.107107 0.00267158 0)
(0.106971 0.00289623 0)
(0.106821 0.00311168 0)
(0.106658 0.00331512 0)
(0.106483 0.00350386 0)
(0.106297 0.00367591 0)
(0.106101 0.00383022 0)
(0.105897 0.00396679 0)
(0.105688 0.00408647 0)
(0.105473 0.00419065 0)
(0.105256 0.00428094 0)
(0.105038 0.00435884 0)
(0.10482 0.00442563 0)
(0.104604 0.00448222 0)
(0.10439 0.00452925 0)
(0.104178 0.0045671 0)
(0.10397 0.00459604 0)
(0.103767 0.00461626 0)
(0.107954 0.00124712 0)
(0.107886 0.00152706 0)
(0.107802 0.00179636 0)
(0.107706 0.00205756 0)
(0.107597 0.00231272 0)
(0.107474 0.00256287 0)
(0.107337 0.00280776 0)
(0.107187 0.00304585 0)
(0.107024 0.00327451 0)
(0.106847 0.00349057 0)
(0.106658 0.00369095 0)
(0.106458 0.00387331 0)
(0.106249 0.00403635 0)
(0.106032 0.00417989 0)
(0.105809 0.00430475 0)
(0.105582 0.00441236 0)
(0.105353 0.00450446 0)
(0.105122 0.00458274 0)
(0.104892 0.00464866 0)
(0.104664 0.00470334 0)
(0.104438 0.00474758 0)
(0.104216 0.00478191 0)
(0.103997 0.00480672 0)
(0.103784 0.00482231 0)
(0.108267 0.00131118 0)
(0.108192 0.0016063 0)
(0.108097 0.00189026 0)
(0.10799 0.0021658 0)
(0.107868 0.00243516 0)
(0.107731 0.00269941 0)
(0.10758 0.0029583 0)
(0.107414 0.00321014 0)
(0.107235 0.00345208 0)
(0.107043 0.00368065 0)
(0.106839 0.00389247 0)
(0.106624 0.0040849 0)
(0.1064 0.00425639 0)
(0.106169 0.00440664 0)
(0.105932 0.00453642 0)
(0.105691 0.00464721 0)
(0.105448 0.00474087 0)
(0.105204 0.00481924 0)
(0.104961 0.00488397 0)
(0.10472 0.00493636 0)
(0.104483 0.00497738 0)
(0.104249 0.00500771 0)
(0.104019 0.00502788 0)
(0.103795 0.0050383 0)
(0.108601 0.00138244 0)
(0.108517 0.00169482 0)
(0.108411 0.00199531 0)
(0.108291 0.00228683 0)
(0.108155 0.00257171 0)
(0.108003 0.00285107 0)
(0.107835 0.00312461 0)
(0.107653 0.00339056 0)
(0.107457 0.00364588 0)
(0.107248 0.00388687 0)
(0.107027 0.0041099 0)
(0.106795 0.00431208 0)
(0.106555 0.00449169 0)
(0.106308 0.00464831 0)
(0.106055 0.00478265 0)
(0.1058 0.00489628 0)
(0.105542 0.00499113 0)
(0.105284 0.00506921 0)
(0.105027 0.00513233 0)
(0.104773 0.00518197 0)
(0.104523 0.00521926 0)
(0.104277 0.00524505 0)
(0.104036 0.00526 0)
(0.103801 0.00526463 0)
(0.108955 0.00146161 0)
(0.108862 0.00179346 0)
(0.108743 0.00211251 0)
(0.10861 0.00242175 0)
(0.108458 0.00272359 0)
(0.10829 0.00301915 0)
(0.108105 0.00330809 0)
(0.107904 0.00358858 0)
(0.107689 0.00385744 0)
(0.107462 0.00411079 0)
(0.107222 0.00434481 0)
(0.106973 0.00455642 0)
(0.106715 0.00474376 0)
(0.10645 0.00490631 0)
(0.106181 0.00504479 0)
(0.105909 0.00516078 0)
(0.105635 0.00525635 0)
(0.105362 0.00533364 0)
(0.105091 0.00539462 0)
(0.104822 0.00544094 0)
(0.104558 0.00547391 0)
(0.104299 0.00549453 0)
(0.104047 0.00550357 0)
(0.1038 0.00550171 0)
(0.109332 0.00154946 0)
(0.109228 0.00190313 0)
(0.109096 0.00224286 0)
(0.108948 0.00257169 0)
(0.10878 0.00289204 0)
(0.108593 0.003205 0)
(0.108389 0.0035102 0)
(0.108169 0.00380575 0)
(0.107934 0.00408837 0)
(0.107686 0.00435407 0)
(0.107426 0.00459888 0)
(0.107157 0.00481959 0)
(0.106879 0.00501422 0)
(0.106596 0.00518222 0)
(0.106308 0.0053243 0)
(0.106018 0.0054421 0)
(0.105727 0.0055378 0)
(0.105437 0.00561367 0)
(0.10515 0.00567186 0)
(0.104867 0.00571418 0)
(0.104589 0.0057421 0)
(0.104316 0.00575679 0)
(0.10405 0.00575916 0)
(0.103792 0.00575002 0)
(0.109732 0.00164683 0)
(0.109618 0.00202482 0)
(0.109471 0.00238751 0)
(0.109306 0.00273792 0)
(0.109121 0.00307844 0)
(0.108915 0.0034101 0)
(0.10869 0.00373252 0)
(0.108448 0.00404373 0)
(0.108191 0.00434042 0)
(0.107921 0.0046185 0)
(0.107639 0.00487391 0)
(0.107348 0.00510337 0)
(0.107049 0.00530484 0)
(0.106745 0.00547773 0)
(0.106437 0.00562278 0)
(0.106127 0.00574172 0)
(0.105818 0.00583682 0)
(0.10551 0.00591053 0)
(0.105206 0.00596513 0)
(0.104906 0.00600263 0)
(0.104613 0.00602466 0)
(0.104326 0.00603254 0)
(0.104047 0.00602735 0)
(0.103776 0.00601003 0)
(0.11016 0.00175465 0)
(0.110033 0.00215967 0)
(0.10987 0.00254773 0)
(0.109688 0.00292184 0)
(0.109483 0.00328432 0)
(0.109255 0.00363612 0)
(0.109008 0.0039768 0)
(0.108743 0.00430437 0)
(0.108462 0.00461548 0)
(0.108168 0.00490603 0)
(0.107862 0.00517189 0)
(0.107547 0.00540973 0)
(0.107224 0.00561752 0)
(0.106897 0.00579466 0)
(0.106567 0.00594197 0)
(0.106236 0.00606124 0)
(0.105906 0.0061549 0)
(0.105579 0.00622553 0)
(0.105257 0.00627561 0)
(0.10494 0.00630731 0)
(0.10463 0.00632245 0)
(0.104328 0.00632251 0)
(0.104035 0.00630875 0)
(0.103752 0.00628223 0)
(0.110615 0.00187403 0)
(0.110475 0.00230896 0)
(0.110295 0.00272503 0)
(0.110093 0.00312513 0)
(0.109867 0.0035115 0)
(0.109616 0.00388497 0)
(0.109344 0.00424506 0)
(0.109053 0.00458976 0)
(0.108746 0.00491572 0)
(0.108425 0.00521882 0)
(0.108093 0.00549496 0)
(0.107752 0.0057408 0)
(0.107404 0.00595432 0)
(0.107052 0.00613499 0)
(0.106698 0.0062837 0)
(0.106344 0.00640237 0)
(0.105992 0.00649357 0)
(0.105644 0.00656007 0)
(0.105302 0.00660453 0)
(0.104967 0.0066293 0)
(0.104639 0.00663639 0)
(0.104322 0.00662748 0)
(0.104014 0.00660397 0)
(0.103717 0.00656711 0)
(0.111103 0.00200623 0)
(0.110948 0.00247423 0)
(0.110748 0.00292114 0)
(0.110525 0.00334971 0)
(0.110275 0.00376205 0)
(0.109999 0.00415887 0)
(0.1097 0.00453961 0)
(0.109381 0.00490228 0)
(0.109045 0.00524354 0)
(0.108695 0.00555932 0)
(0.108333 0.00584553 0)
(0.107964 0.0060989 0)
(0.107588 0.00631748 0)
(0.107208 0.00650082 0)
(0.106828 0.00664994 0)
(0.106449 0.00676692 0)
(0.106074 0.00685449 0)
(0.105703 0.00691561 0)
(0.10534 0.00695315 0)
(0.104985 0.00696968 0)
(0.10464 0.00696741 0)
(0.104305 0.00694819 0)
(0.103982 0.00691363 0)
(0.103671 0.00686513 0)
(0.111626 0.00215271 0)
(0.111453 0.00265725 0)
(0.111232 0.00313809 0)
(0.110985 0.00359783 0)
(0.110709 0.00403841 0)
(0.110405 0.00446039 0)
(0.110076 0.00486313 0)
(0.109726 0.00524466 0)
(0.109358 0.00560169 0)
(0.108976 0.00593021 0)
(0.108583 0.00622624 0)
(0.108182 0.00648659 0)
(0.107775 0.00670943 0)
(0.107366 0.00689445 0)
(0.106958 0.00704282 0)
(0.106552 0.00715682 0)
(0.10615 0.00723937 0)
(0.105756 0.00729368 0)
(0.10537 0.00732282 0)
(0.104994 0.0073296 0)
(0.10463 0.00731644 0)
(0.104277 0.00728542 0)
(0.103938 0.00723833 0)
(0.103612 0.00717674 0)
(0.107524 0.00731834 0)
(0.107085 0.00746459 0)
(0.106649 0.0075741 0)
(0.10622 0.00765004 0)
(0.1058 0.00769585 0)
(0.10539 0.00771488 0)
(0.104992 0.00771019 0)
(0.104607 0.00768443 0)
(0.104236 0.00763991 0)
(0.10388 0.00757863 0)
(0.10354 0.00750235 0)
(0.106128 -0.000563787 2.36886e-25)
(0.106149 -0.000362764 1.47832e-25)
(0.10616 -0.000155732 2.81798e-25)
(0.106162 5.55837e-05 -4.7203e-25)
(0.106155 0.000268885 2.92566e-25)
(0.10614 0.000481517 2.12424e-25)
(0.106118 0.00069081 -2.54496e-26)
(0.106297 -0.000589055 2.03595e-25)
(0.106318 -0.000377828 2.22519e-25)
(0.10633 -0.000160831 6.12304e-25)
(0.106333 5.99797e-05 1.97875e-25)
(0.106327 0.000282096 -2.08542e-25)
(0.106313 0.00050271 -1.4549e-25)
(0.106293 0.000719131 1.27112e-24)
(0.106478 -0.000614756 -4.61417e-26)
(0.1065 -0.000392789 -1.1619e-25)
(0.106513 -0.000165426 -9.09288e-25)
(0.106517 6.51329e-05 -9.46327e-26)
(0.106512 0.00029618 5.35722e-25)
(0.1065 0.000524791 7.35518e-26)
(0.106482 0.000748292 -1.21087e-24)
(0.106672 -0.000641465 -1.14142e-25)
(0.106696 -0.000408193 -1.99284e-25)
(0.10671 -0.000169997 6.70503e-26)
(0.106716 7.06839e-05 -1.88159e-26)
(0.106713 0.000310957 -2.0459e-24)
(0.106702 0.00054781 4.04062e-24)
(0.106687 0.000778622 2.58055e-25)
(0.10688 -0.000669863 -6.8815e-26)
(0.106906 -0.000424636 6.87574e-26)
(0.106923 -0.000175013 5.27943e-25)
(0.106931 7.63366e-05 1.01376e-25)
(0.10693 0.000326357 1.24133e-24)
(0.106922 0.000571976 -3.94021e-24)
(0.10691 0.000810648 7.08546e-24)
(0.107103 -0.00070067 2.09704e-26)
(0.107132 -0.000442751 -9.30697e-26)
(0.107152 -0.000180972 -7.27628e-25)
(0.107162 8.17862e-05 4.54135e-24)
(0.107165 0.000342331 2.85619e-25)
(0.10716 0.00059755 7.39472e-24)
(0.10715 0.000844974 -6.99146e-24)
(0.107341 -0.000734598 -7.34152e-26)
(0.107374 -0.000463146 -2.06843e-25)
(0.107398 -0.000188336 -1.136e-25)
(0.107412 8.6768e-05 -1.04321e-23)
(0.107417 0.000358863 -3.98587e-25)
(0.107415 0.000624811 -1.83176e-23)
(0.107409 0.000882208 -2.21362e-23)
(0.107595 -0.000772301 1.97451e-26)
(0.107633 -0.000486354 8.30899e-26)
(0.10766 -0.000197486 4.06289e-25)
(0.107679 9.10926e-05 6.58781e-24)
(0.107688 0.000375994 1.07937e-25)
(0.107689 0.000654063 3.23296e-23)
(0.107686 0.000922934 2.35212e-23)
(0.107866 -0.000814336 1.398e-25)
(0.107908 -0.000512817 2.70081e-24)
(0.107941 -0.000208708 8.93545e-24)
(0.107963 9.46574e-05 -6.46398e-25)
(0.107976 0.00039383 6.46303e-25)
(0.107981 0.000685637 -2.38714e-23)
(0.107982 0.000967718 0)
(0.108153 -0.000861207 0)
(0.108201 -0.000542894 -3.77478e-24)
(0.108239 -0.000222201 -8.64813e-24)
(0.108266 9.74396e-05 1.41247e-23)
(0.108284 0.000412534 -1.68136e-24)
(0.108292 0.000719888 -3.31423e-23)
(0.108297 0.00101711 3.75879e-23)
(0.108458 -0.000913378 2.63848e-25)
(0.108513 -0.000576881 -5.60461e-24)
(0.108556 -0.000238095 0)
(0.108589 9.94822e-05 -1.26795e-23)
(0.108611 0.000432322 -3.41744e-23)
(0.108623 0.000757203 -6.19179e-24)
(0.108631 0.00107167 -7.73484e-23)
(0.108782 -0.000971262 -3.31834e-25)
(0.108843 -0.000615032 4.85877e-24)
(0.108892 -0.000256471 -1.37689e-25)
(0.108931 0.000100874 -1.326e-25)
(0.108957 0.000453452 3.52736e-23)
(0.108974 0.000797999 8.03708e-23)
(0.108987 0.00113196 9.07882e-23)
(0.109126 -0.00103529 3.23712e-24)
(0.109194 -0.000657592 0)
(0.10925 -0.000277395 0)
(0.109294 0.000101731 4.03982e-23)
(0.109326 0.000476211 -4.35889e-23)
(0.109347 0.000842731 -9.435e-23)
(0.109365 0.00119862 -4.76179e-23)
(0.109492 -0.00110591 -7.57779e-24)
(0.109567 -0.00070483 4.82127e-25)
(0.10963 -0.000300937 2.18592e-23)
(0.10968 0.000102174 -8.63617e-23)
(0.109718 0.000500912 4.513e-23)
(0.109743 0.000891897 4.61624e-23)
(0.109767 0.00127232 1.71152e-24)
(0.10988 -0.00118366 4.42237e-24)
(0.109963 -0.000757054 -1.85692e-24)
(0.110034 -0.000327192 -1.92738e-23)
(0.110092 0.000102324 9.83622e-23)
(0.110135 0.000527886 0)
(0.110166 0.000946043 6.04213e-23)
(0.110195 0.00135383 1.92002e-24)
(0.110293 -0.00126914 4.60102e-24)
(0.110386 -0.000814639 -8.23088e-25)
(0.110465 -0.000356295 -5.18571e-23)
(0.11053 0.000102288 -1.09277e-22)
(0.11058 0.000557488 1.51576e-25)
(0.110616 0.00100577 7.47179e-23)
(0.110653 0.00144403 1.49293e-22)
(0.110734 -0.00136308 -4.49797e-24)
(0.110836 -0.000878037 2.63514e-23)
(0.110924 -0.000388426 1.15249e-22)
(0.110997 0.000102162 5.69673e-23)
(0.111055 0.000590099 7.17169e-23)
(0.111098 0.00107177 -2.96432e-22)
(0.111142 0.0015439 -3.12899e-22)
(0.111204 -0.0014663 -8.49812e-25)
(0.111317 -0.000947788 -5.86816e-23)
(0.111415 -0.000423823 -6.02319e-23)
(0.111497 0.000102032 -1.74039e-25)
(0.111563 0.000626134 -1.49223e-22)
(0.111614 0.0011448 1.52344e-22)
(0.111666 0.00165461 1.68681e-22)
(0.111706 -0.0015798 9.59756e-25)
(0.111831 -0.00102455 2.74586e-23)
(0.111941 -0.00046278 2.1276e-24)
(0.112033 0.000101955 0)
(0.112108 0.000666052 8.24964e-23)
(0.112167 0.00122574 1.84234e-22)
(0.112229 0.0017775 2.93237e-24)
(0.112244 -0.00170474 -1.07842e-24)
(0.112383 -0.00110909 3.94714e-23)
(0.105729 -0.00177719 -1.20559e-24)
(0.105811 -0.00162242 -2.20343e-24)
(0.105884 -0.00146217 -1.14284e-25)
(0.105951 -0.00129606 -1.88749e-24)
(0.106008 -0.00112362 -7.15736e-25)
(0.106057 -0.000944336 -1.03482e-24)
(0.106097 -0.00075777 3.39339e-25)
(0.105889 -0.00186855 8.38845e-24)
(0.105973 -0.00170522 5.6905e-24)
(0.106049 -0.00153617 -3.85244e-24)
(0.106116 -0.00136094 8.24429e-25)
(0.106175 -0.00117901 -2.16766e-24)
(0.106226 -0.000989905 -5.54153e-25)
(0.106266 -0.000793261 -2.57271e-25)
(0.106058 -0.00196553 -9.57332e-24)
(0.106144 -0.00179297 -9.88592e-25)
(0.106222 -0.00161437 1.11868e-23)
(0.106292 -0.00142921 1.19492e-25)
(0.106353 -0.00123699 3.05977e-24)
(0.106404 -0.00103729 5.28046e-25)
(0.106446 -0.000829837 5.22901e-25)
(0.106236 -0.00206878 -1.05352e-24)
(0.106325 -0.00188625 1.64068e-23)
(0.106406 -0.0016973 -1.39033e-23)
(0.106478 -0.00150142 -6.87861e-25)
(0.106541 -0.00129812 -4.6047e-24)
(0.106595 -0.00108706 1.89423e-24)
(0.106639 -0.000868074 1.26233e-25)
(0.106424 -0.00217908 1.7504e-23)
(0.106517 -0.00198583 -1.63678e-23)
(0.1066 -0.00178575 7.43031e-24)
(0.106676 -0.00157836 -1.27409e-25)
(0.106742 -0.00136318 8.19929e-24)
(0.106798 -0.00113997 1.84839e-25)
(0.106844 -0.000908703 -5.37263e-25)
(0.106622 -0.00229731 -1.74864e-23)
(0.106719 -0.00209256 1.41698e-23)
(0.106806 -0.00188057 -6.65277e-25)
(0.106885 -0.00166085 9.09459e-24)
(0.106955 -0.001433 -3.96059e-24)
(0.107014 -0.00119683 1.46254e-24)
(0.107064 -0.000952502 1.41122e-25)
(0.106831 -0.00242442 -2.98274e-23)
(0.106933 -0.00220736 -2.44648e-23)
(0.107024 -0.00198264 5.87436e-25)
(0.107107 -0.00174978 -1.76315e-23)
(0.107181 -0.00150841 1.33593e-25)
(0.107245 -0.00125847 -7.79834e-25)
(0.107298 -0.00100025 -2.4515e-25)
(0.107052 -0.00256144 1.52105e-24)
(0.107158 -0.00233122 3.52134e-23)
(0.107254 -0.00209291 -1.4264e-25)
(0.107342 -0.00184603 7.48729e-24)
(0.107421 -0.00159027 -3.64476e-25)
(0.107489 -0.00132568 -4.57072e-26)
(0.107548 -0.00105269 1.95872e-25)
(0.107284 -0.00270945 2.46723e-24)
(0.107397 -0.00246515 -2.17094e-23)
(0.107497 -0.00221232 -4.16855e-25)
(0.107591 -0.0019505 4.16965e-25)
(0.107675 -0.00167941 2.22409e-24)
(0.107749 -0.00139922 1.41696e-25)
(0.107813 -0.00111048 6.20354e-27)
(0.107529 -0.00286959 2.37498e-23)
(0.107648 -0.00261024 -1.60676e-23)
(0.107755 -0.00234189 7.99576e-25)
(0.107855 -0.00206411 2.62943e-24)
(0.107945 -0.00177667 -2.20019e-24)
(0.108025 -0.00147982 1.86931e-27)
(0.108094 -0.00117422 0)
(0.107788 -0.00304313 -1.95659e-23)
(0.107914 -0.00276762 3.58025e-24)
(0.108027 -0.00248267 -8.02472e-24)
(0.108134 -0.00218783 -3.12279e-24)
(0.108231 -0.0018829 0)
(0.108317 -0.00156822 1.69164e-24)
(0.108393 -0.00124457 1.19773e-25)
(0.108062 -0.00323142 3.46725e-23)
(0.108195 -0.00293856 2.36907e-23)
(0.108315 -0.00263578 7.91073e-24)
(0.108429 -0.00232263 9.30969e-25)
(0.108534 -0.00199895 1.60943e-25)
(0.108627 -0.00166514 -1.83439e-24)
(0.10871 -0.00132207 -1.81974e-25)
(0.10835 -0.00343594 -1.61111e-23)
(0.108493 -0.0031244 -1.63876e-23)
(0.10862 -0.00280245 -1.12801e-24)
(0.108742 -0.00246962 -5.39762e-24)
(0.108854 -0.00212576 0)
(0.108956 -0.00177135 0)
(0.109047 -0.00140734 -2.59911e-24)
(0.108655 -0.00365834 -2.52553e-25)
(0.108807 -0.00332665 6.87001e-24)
(0.108943 -0.00298401 7.75377e-25)
(0.109073 -0.00262997 1.32119e-23)
(0.109195 -0.00226435 -6.96446e-24)
(0.109305 -0.0018877 3.19177e-25)
(0.109404 -0.00150101 5.47465e-24)
(0.108976 -0.00390046 -1.37253e-25)
(0.109139 -0.00354697 -9.80289e-25)
(0.109284 -0.00318198 0)
(0.109424 -0.002805 -2.19391e-23)
(0.109556 -0.00241585 7.86538e-24)
(0.109676 -0.00201511 -1.00701e-24)
(0.109784 -0.00160383 -2.7991e-24)
(0.109316 -0.00416436 3.89733e-24)
(0.10949 -0.00378724 -9.84319e-24)
(0.109646 -0.00339803 -1.93777e-25)
(0.109797 -0.0029962 3.14849e-23)
(0.109939 -0.00258153 2.494e-23)
(0.11007 -0.00215465 1.48435e-23)
(0.110188 -0.00171663 -5.00173e-24)
(0.109674 -0.00445236 7.62549e-25)
(0.109862 -0.00404957 3.06117e-23)
(0.110029 -0.00363407 0)
(0.110192 -0.00320525 -1.86529e-23)
(0.110347 -0.00276287 -5.29472e-23)
(0.110489 -0.00230755 -3.36245e-23)
(0.110618 -0.0018404 5.08138e-24)
(0.110054 -0.00476706 -4.29696e-24)
(0.110256 -0.00433636 -2.02384e-23)
(0.110436 -0.00389226 2.23852e-23)
(0.110612 -0.00343408 2.12656e-25)
(0.11078 -0.00296151 2.97139e-23)
(0.110935 -0.0024752 1.74718e-23)
(0.111076 -0.00197624 -6.54994e-25)
(0.110454 -0.00511144 4.20241e-25)
(0.110674 -0.00465032 -4.16046e-23)
(0.110868 -0.00417506 -2.10436e-23)
(0.111059 -0.00368487 0)
(0.111242 -0.00317937 1.30417e-24)
(0.111411 -0.00265921 -2.05581e-24)
(0.111566 -0.00212548 7.55193e-25)
(0.111919 -0.00286145 8.64999e-25)
(0.112089 -0.00228961 -8.63262e-25)
(0.101502 -0.00325262 0)
(0.101596 -0.00329155 0)
(0.101693 -0.00332819 0)
(0.101793 -0.00336233 0)
(0.101897 -0.00339373 0)
(0.102004 -0.00342213 0)
(0.102115 -0.00344727 0)
(0.10223 -0.00346886 0)
(0.102348 -0.00348663 0)
(0.102469 -0.00350027 0)
(0.102593 -0.0035095 0)
(0.10272 -0.003514 0)
(0.10285 -0.00351347 0)
(0.102983 -0.00350761 0)
(0.103118 -0.0034961 0)
(0.103256 -0.00347866 0)
(0.103395 -0.00345498 0)
(0.103536 -0.0034248 0)
(0.103678 -0.00338785 0)
(0.103821 -0.00334388 0)
(0.103964 -0.00329267 0)
(0.104108 -0.00323403 0)
(0.104251 -0.00316778 0)
(0.104393 -0.00309378 0)
(0.104533 -0.00301195 0)
(0.104672 -0.00292223 0)
(0.104808 -0.00282461 0)
(0.104941 -0.00271912 0)
(0.10507 -0.00260586 0)
(0.105195 -0.00248499 0)
(0.105314 -0.00235669 0)
(0.105429 -0.00222122 0)
(0.105537 -0.00207883 0)
(0.105638 -0.00192967 0)
(0.101462 -0.00334521 0)
(0.101558 -0.00338775 0)
(0.101657 -0.00342805 0)
(0.10176 -0.00346587 0)
(0.101867 -0.00350094 0)
(0.101977 -0.00353299 0)
(0.102092 -0.00356174 0)
(0.10221 -0.00358688 0)
(0.102332 -0.00360812 0)
(0.102457 -0.00362514 0)
(0.102586 -0.00363761 0)
(0.102718 -0.0036452 0)
(0.102853 -0.00364758 0)
(0.102992 -0.00364441 0)
(0.103133 -0.00363535 0)
(0.103277 -0.00362009 0)
(0.103422 -0.0035983 0)
(0.10357 -0.00356965 0)
(0.103719 -0.00353387 0)
(0.103869 -0.00349067 0)
(0.10402 -0.0034398 0)
(0.104172 -0.00338102 0)
(0.104322 -0.00331413 0)
(0.104472 -0.00323898 0)
(0.104621 -0.00315544 0)
(0.104768 -0.00306343 0)
(0.104912 -0.00296293 0)
(0.105053 -0.00285395 0)
(0.10519 -0.00273658 0)
(0.105322 -0.00261095 0)
(0.10545 -0.00247726 0)
(0.105571 -0.00233574 0)
(0.105686 -0.00218662 0)
(0.105794 -0.00202987 0)
(0.101418 -0.00343977 0)
(0.101516 -0.00348618 0)
(0.101617 -0.00353039 0)
(0.101723 -0.00357214 0)
(0.101833 -0.00361116 0)
(0.101946 -0.00364715 0)
(0.102064 -0.00367981 0)
(0.102186 -0.00370882 0)
(0.102312 -0.00373385 0)
(0.102442 -0.00375456 0)
(0.102576 -0.0037706 0)
(0.102713 -0.00378161 0)
(0.102854 -0.00378723 0)
(0.102998 -0.00378708 0)
(0.103145 -0.00378081 0)
(0.103295 -0.00376805 0)
(0.103448 -0.00374844 0)
(0.103603 -0.00372163 0)
(0.103759 -0.00368729 0)
(0.103918 -0.00364511 0)
(0.104076 -0.00359479 0)
(0.104236 -0.00353607 0)
(0.104395 -0.00346871 0)
(0.104554 -0.00339252 0)
(0.104711 -0.00330735 0)
(0.104867 -0.00321308 0)
(0.10502 -0.00310966 0)
(0.105169 -0.0029971 0)
(0.105315 -0.00287546 0)
(0.105456 -0.00274486 0)
(0.105591 -0.00260548 0)
(0.105721 -0.00245753 0)
(0.105843 -0.00230121 0)
(0.105958 -0.0021363 0)
(0.10137 -0.00353627 0)
(0.10147 -0.00358679 0)
(0.101574 -0.00363518 0)
(0.101682 -0.00368115 0)
(0.101794 -0.0037244 0)
(0.101911 -0.00376464 0)
(0.102033 -0.00380153 0)
(0.102159 -0.00383474 0)
(0.102289 -0.0038639 0)
(0.102423 -0.00388866 0)
(0.102562 -0.00390862 0)
(0.102704 -0.00392342 0)
(0.102851 -0.00393263 0)
(0.103001 -0.00393588 0)
(0.103155 -0.00393275 0)
(0.103312 -0.00392284 0)
(0.103472 -0.00390576 0)
(0.103634 -0.00388112 0)
(0.103798 -0.00384853 0)
(0.103965 -0.00380766 0)
(0.104132 -0.00375816 0)
(0.1043 -0.00369972 0)
(0.104469 -0.00363208 0)
(0.104636 -0.00355501 0)
(0.104803 -0.0034683 0)
(0.104968 -0.00337182 0)
(0.10513 -0.00326548 0)
(0.10529 -0.00314927 0)
(0.105445 -0.00302322 0)
(0.105595 -0.00288743 0)
(0.105739 -0.00274208 0)
(0.105877 -0.00258734 0)
(0.106008 -0.00242336 0)
(0.106131 -0.0022497 0)
(0.101318 -0.00363463 0)
(0.10142 -0.00368953 0)
(0.101526 -0.00374237 0)
(0.101636 -0.00379286 0)
(0.101752 -0.00384067 0)
(0.101872 -0.00388548 0)
(0.101997 -0.00392695 0)
(0.102126 -0.0039647 0)
(0.102261 -0.00399837 0)
(0.1024 -0.00402754 0)
(0.102543 -0.00405183 0)
(0.102692 -0.00407079 0)
(0.102844 -0.00408402 0)
(0.103 -0.00409105 0)
(0.103161 -0.00409146 0)
(0.103325 -0.0040848 0)
(0.103492 -0.00407063 0)
(0.103663 -0.00404852 0)
(0.103835 -0.00401805 0)
(0.10401 -0.00397881 0)
(0.104187 -0.00393043 0)
(0.104364 -0.00387256 0)
(0.104542 -0.00380487 0)
(0.10472 -0.00372708 0)
(0.104897 -0.00363898 0)
(0.105072 -0.00354037 0)
(0.105244 -0.00343113 0)
(0.105414 -0.00331122 0)
(0.105579 -0.00318064 0)
(0.105739 -0.00303948 0)
(0.105893 -0.00288787 0)
(0.106041 -0.00272598 0)
(0.10618 -0.00255389 0)
(0.106313 -0.00237092 0)
(0.101261 -0.00373478 0)
(0.101364 -0.00379434 0)
(0.101473 -0.00385193 0)
(0.101586 -0.00390724 0)
(0.101704 -0.00395993 0)
(0.101827 -0.00400967 0)
(0.101956 -0.00405608 0)
(0.102089 -0.00409876 0)
(0.102228 -0.00413732 0)
(0.102372 -0.00417133 0)
(0.10252 -0.00420035 0)
(0.102674 -0.00422392 0)
(0.102833 -0.00424158 0)
(0.102996 -0.00425285 0)
(0.103163 -0.00425724 0)
(0.103335 -0.00425427 0)
(0.10351 -0.00424344 0)
(0.103689 -0.00422428 0)
(0.10387 -0.00419632 0)
(0.104054 -0.00415909 0)
(0.10424 -0.00411218 0)
(0.104428 -0.00405518 0)
(0.104616 -0.00398771 0)
(0.104804 -0.00390945 0)
(0.104992 -0.00382012 0)
(0.105178 -0.0037195 0)
(0.105362 -0.00360742 0)
(0.105542 -0.00348379 0)
(0.105718 -0.00334859 0)
(0.105889 -0.00320187 0)
(0.106054 -0.00304376 0)
(0.106212 -0.00287437 0)
(0.106362 -0.00269372 0)
(0.106505 -0.00250087 0)
(0.101199 -0.00383661 0)
(0.101304 -0.00390111 0)
(0.101414 -0.00396376 0)
(0.10153 -0.00402423 0)
(0.101651 -0.00408216 0)
(0.101777 -0.00413719 0)
(0.101909 -0.00418892 0)
(0.102047 -0.00423695 0)
(0.10219 -0.00428083 0)
(0.102338 -0.00432011 0)
(0.102492 -0.00435432 0)
(0.102652 -0.00438297 0)
(0.102817 -0.00440555 0)
(0.102986 -0.00442153 0)
(0.103161 -0.00443038 0)
(0.10334 -0.00443158 0)
(0.103524 -0.00442457 0)
(0.103711 -0.00440883 0)
(0.103902 -0.00438382 0)
(0.104096 -0.00434905 0)
(0.104292 -0.00430401 0)
(0.10449 -0.00424824 0)
(0.10469 -0.00418132 0)
(0.104889 -0.00410286 0)
(0.105088 -0.00401253 0)
(0.105286 -0.00391005 0)
(0.105482 -0.00379521 0)
(0.105674 -0.00366788 0)
(0.105862 -0.00352799 0)
(0.106045 -0.00337557 0)
(0.106222 -0.00321071 0)
(0.106391 -0.00303349 0)
(0.106552 -0.00284384 0)
(0.106706 -0.00264053 0)
(0.101132 -0.00394 0)
(0.101238 -0.00400976 0)
(0.101351 -0.00407779 0)
(0.101468 -0.00414376 0)
(0.101592 -0.0042073 0)
(0.101722 -0.00426801 0)
(0.101857 -0.00432548 0)
(0.101998 -0.00437928 0)
(0.102146 -0.00442894 0)
(0.102299 -0.00447397 0)
(0.102459 -0.00451387 0)
(0.102624 -0.0045481 0)
(0.102795 -0.00457611 0)
(0.102972 -0.00459733 0)
(0.103154 -0.00461119 0)
(0.103341 -0.00461708 0)
(0.103534 -0.00461443 0)
(0.10373 -0.00460263 0)
(0.103931 -0.00458109 0)
(0.104135 -0.00454925 0)
(0.104342 -0.00450654 0)
(0.104551 -0.00445243 0)
(0.104762 -0.00438644 0)
(0.104974 -0.00430811 0)
(0.105186 -0.00421705 0)
(0.105396 -0.00411292 0)
(0.105605 -0.00399546 0)
(0.10581 -0.00386447 0)
(0.106011 -0.00371986 0)
(0.106207 -0.00356162 0)
(0.106397 -0.00338978 0)
(0.106579 -0.0032044 0)
(0.106752 -0.00300533 0)
(0.106918 -0.00279097 0)
(0.101059 -0.00404482 0)
(0.101167 -0.00412014 0)
(0.101281 -0.0041939 0)
(0.101401 -0.00426573 0)
(0.101527 -0.00433526 0)
(0.10166 -0.00440207 0)
(0.101798 -0.00446573 0)
(0.101944 -0.00452576 0)
(0.102096 -0.00458169 0)
(0.102254 -0.00463298 0)
(0.102419 -0.00467909 0)
(0.10259 -0.00471945 0)
(0.102768 -0.00475346 0)
(0.102952 -0.0047805 0)
(0.103142 -0.00479995 0)
(0.103338 -0.00481114 0)
(0.103539 -0.00481343 0)
(0.103745 -0.00480616 0)
(0.103956 -0.00478866 0)
(0.104171 -0.0047603 0)
(0.10439 -0.00472044 0)
(0.104611 -0.00466849 0)
(0.104834 -0.00460387 0)
(0.105059 -0.00452607 0)
(0.105284 -0.00443461 0)
(0.105508 -0.00432909 0)
(0.10573 -0.00420918 0)
(0.10595 -0.00407464 0)
(0.106166 -0.00392532 0)
(0.106376 -0.00376114 0)
(0.106579 -0.00358213 0)
(0.106775 -0.00338828 0)
(0.106961 -0.00317934 0)
(0.107142 -0.00295333 0)
(0.10098 -0.0041509 0)
(0.101089 -0.00423211 0)
(0.101205 -0.00431194 0)
(0.101327 -0.00439003 0)
(0.101456 -0.00446595 0)
(0.101591 -0.0045393 0)
(0.101733 -0.0046096 0)
(0.101883 -0.00467637 0)
(0.102039 -0.00473908 0)
(0.102202 -0.00479717 0)
(0.102372 -0.00485007 0)
(0.10255 -0.00489716 0)
(0.102734 -0.00493778 0)
(0.102926 -0.00497128 0)
(0.103124 -0.00499696 0)
(0.103328 -0.00501411 0)
(0.103539 -0.005022 0)
(0.103755 -0.0050199 0)
(0.103977 -0.00500709 0)
(0.104203 -0.00498283 0)
(0.104434 -0.00494643 0)
(0.104668 -0.00489719 0)
(0.104905 -0.00483446 0)
(0.105143 -0.00475764 0)
(0.105383 -0.00466618 0)
(0.105622 -0.0045596 0)
(0.105859 -0.00443749 0)
(0.106094 -0.00429955 0)
(0.106325 -0.00414555 0)
(0.106551 -0.00397538 0)
(0.10677 -0.00378901 0)
(0.10698 -0.00358639 0)
(0.107181 -0.00336714 0)
(0.107377 -0.00312885 0)
(0.100895 -0.00425806 0)
(0.101006 -0.00434549 0)
(0.101123 -0.00443176 0)
(0.101247 -0.00451649 0)
(0.101378 -0.00459924 0)
(0.101516 -0.00467958 0)
(0.101661 -0.00475702 0)
(0.101814 -0.00483104 0)
(0.101975 -0.00490109 0)
(0.102143 -0.00496658 0)
(0.102319 -0.00502688 0)
(0.102502 -0.00508134 0)
(0.102694 -0.00512925 0)
(0.102893 -0.00516989 0)
(0.103099 -0.00520251 0)
(0.103313 -0.00522633 0)
(0.103533 -0.00524054 0)
(0.10376 -0.00524435 0)
(0.103993 -0.00523694 0)
(0.104232 -0.0052175 0)
(0.104475 -0.00518523 0)
(0.104723 -0.00513935 0)
(0.104974 -0.00507911 0)
(0.105227 -0.00500383 0)
(0.105482 -0.00491285 0)
(0.105737 -0.0048056 0)
(0.105991 -0.0046816 0)
(0.106242 -0.00454045 0)
(0.10649 -0.00438187 0)
(0.106732 -0.00420568 0)