/*--------------------------------*- C++ -*----------------------------------*\
| =========                 |                                                 |
| \\      /  F ield         | OpenFOAM: The Open Source CFD Toolbox           |
|  \\    /   O peration     | Version:  2412                                  |
|   \\  /    A nd           | Website:  www.openfoam.com                      |
|    \\/     M anipulation  |                                                 |
\*---------------------------------------------------------------------------*/
FoamFile
{
    version     2.0;
    format      ascii;
    arch        "LSB;label=32;scalar=64";
    class       surfaceScalarField;
    location    "19";
    object      phi;
}
// * * * * * * * * * * * * * * * * * * * * * * * * * * * * * * * * * * * * * //

dimensions      [0 3 -1 0 0 0 0];

oriented        oriented;

internalField   nonuniform List<scalar> 
10424
(
0.0049817
-4.316e-06
1.68668e-09
0.00498583
-4.13097e-06
1.22431e-09
0.00498978
-3.94982e-06
7.94609e-10
0.00499355
-3.77296e-06
4.03094e-10
0.00499715
-3.60078e-06
4.72336e-11
0.00500059
-3.43355e-06
-2.77101e-10
0.00500386
-3.27144e-06
-5.76243e-10
0.00500697
-3.11453e-06
-8.58315e-10
0.00500994
-2.96284e-06
-1.13273e-09
0.00501275
-2.81634e-06
-1.40843e-09
0.00501543
-2.67496e-06
-1.69358e-09
0.00501797
-2.53861e-06
-1.9948e-09
0.00502038
-2.40718e-06
-2.31526e-09
0.00502266
-2.28057e-06
-2.65325e-09
0.00502483
-2.15866e-06
-3.00079e-09
0.00502687
-2.04135e-06
-3.34398e-09
0.0050288
-1.92853e-06
-3.66609e-09
0.00503063
-1.82011e-06
-3.95257e-09
0.00503235
-1.71597e-06
-4.19667e-09
0.00503397
-1.61601e-06
-4.40352e-09
0.00503549
-1.52009e-06
-4.58682e-09
0.00503692
-1.42811e-06
-4.75962e-09
0.00503827
-1.33997e-06
-4.92318e-09
0.00503953
-1.2556e-06
-5.0617e-09
0.00504071
-1.17493e-06
-5.14766e-09
0.00504181
-1.09789e-06
-5.15709e-09
0.00504284
-1.0244e-06
-5.0923e-09
0.0050438
-9.54344e-07
-4.9979e-09
0.0050447
-8.87562e-07
-4.9448e-09
0.00504552
-8.23922e-07
-4.99213e-09
0.00504629
-7.63344e-07
-5.14613e-09
0.005047
-7.05806e-07
-5.35059e-09
0.00504766
-6.51329e-07
-5.50636e-09
0.00504827
-5.99932e-07
-5.52276e-09
0.00504882
-5.51589e-07
-5.36317e-09
0.00504933
-5.06202e-07
-5.06302e-09
0.0050498
-4.63637e-07
-4.69674e-09
0.00505023
-4.23748e-07
-4.34996e-09
0.00505062
-3.8639e-07
-4.09609e-09
0.00505098
-3.51487e-07
-3.95867e-09
0.0050513
-3.1899e-07
-3.91494e-09
0.00505159
-2.88944e-07
-3.901e-09
0.00505186
-2.61314e-07
-3.83399e-09
0.0050521
-2.36195e-07
-3.70814e-09
0.00505231
-2.13305e-07
-3.55123e-09
0.00505251
-1.92942e-07
-3.4659e-09
0.00505269
-1.74379e-07
-3.46743e-09
0.00505285
-1.5882e-07
-3.55583e-09
0.005053
-1.44363e-07
-3.64888e-09
0.00505314
-1.3435e-07
-3.68256e-09
0.00505326
-1.2374e-07
-3.65585e-09
0.00505339
-1.20635e-07
-3.46055e-09
0.0050535
-1.13233e-07
-3.16004e-09
0.00505363
-1.19038e-07
-2.82915e-09
0.00505374
-1.13457e-07
-2.55434e-09
0.00505388
-1.31221e-07
-2.17669e-09
0.005054
-1.26749e-07
-1.78904e-09
0.00505417
-1.60151e-07
-1.3251e-09
0.00505432
-1.57428e-07
-1.01877e-09
0.00505453
-2.08897e-07
-3.9274e-10
0.00505475
-2.13182e-07
-7.82152e-11
0.00505503
-2.81037e-07
9.76383e-11
0.00505533
-3.03319e-07
3.23647e-10
0.00505572
-3.87316e-07
6.71791e-10
0.00505615
-4.28738e-07
6.79752e-10
0.0050567
-5.56951e-07
4.00031e-10
0.00505729
-5.92373e-07
1.73926e-09
0.00505801
-7.16986e-07
1.44612e-09
0.00505902
-1.01975e-06
3.38343e-09
0.00505976
-7.37226e-07
3.10651e-09
-1.09449e-06
3.86658e-09
0.00498175
-8.62724e-06
0.00498587
-8.25762e-06
0.00498982
-7.8958e-06
0.00499359
-7.54258e-06
0.00499719
-7.19871e-06
0.00500062
-6.86473e-06
0.00500389
-6.54097e-06
0.005007
-6.22761e-06
0.00500996
-5.92466e-06
0.00501278
-5.63209e-06
0.00501545
-5.34977e-06
0.00501799
-5.07751e-06
0.0050204
-4.8151e-06
0.00502268
-4.56234e-06
0.00502484
-4.31898e-06
0.00502688
-4.0848e-06
0.00502881
-3.85959e-06
0.00503064
-3.64313e-06
0.00503236
-3.43518e-06
0.00503398
-3.23554e-06
0.0050355
-3.04396e-06
0.00503693
-2.86024e-06
0.00503828
-2.68419e-06
0.00503954
-2.51564e-06
0.00504072
-2.35443e-06
0.00504182
-2.20041e-06
0.00504285
-2.05342e-06
0.00504381
-1.91325e-06
0.0050447
-1.77967e-06
0.00504553
-1.65247e-06
0.0050463
-1.53151e-06
0.00504701
-1.41666e-06
0.00504766
-1.30789e-06
0.00504827
-1.20515e-06
0.00504883
-1.10832e-06
0.00504934
-1.01727e-06
0.0050498
-9.31794e-07
0.00505023
-8.51687e-07
0.00505062
-7.76735e-07
0.00505098
-7.06808e-07
0.0050513
-6.41785e-07
0.00505159
-5.81693e-07
0.00505186
-5.26377e-07
0.0050521
-4.76022e-07
0.00505232
-4.30095e-07
0.00505251
-3.89294e-07
0.00505269
-3.52177e-07
0.00505285
-3.21154e-07
0.005053
-2.92338e-07
0.00505314
-2.72354e-07
0.00505327
-2.51114e-07
0.00505339
-2.44714e-07
0.00505351
-2.29608e-07
0.00505363
-2.40893e-07
0.00505374
-2.29454e-07
0.00505388
-2.64615e-07
0.00505401
-2.5527e-07
0.00505417
-3.21629e-07
0.00505433
-3.15847e-07
0.00505453
-4.18191e-07
0.00505475
-4.26414e-07
0.00505503
-5.61961e-07
0.00505533
-6.06368e-07
0.00505572
-7.73696e-07
0.00505615
-8.57519e-07
0.0050567
-1.11198e-06
0.00505729
-1.18549e-06
0.00505801
-1.43099e-06
0.00505902
-2.03423e-06
0.00505976
-1.47699e-06
-2.18576e-06
0.00498184
-1.29323e-05
0.00498596
-1.23781e-05
0.0049899
-1.18357e-05
0.00499366
-1.13063e-05
0.00499725
-1.0791e-05
0.00500068
-1.02906e-05
0.00500394
-9.80555e-06
0.00500705
-9.33605e-06
0.00501001
-8.88219e-06
0.00501282
-8.44386e-06
0.00501549
-8.02088e-06
0.00501803
-7.61299e-06
0.00502043
-7.21988e-06
0.00502271
-6.84121e-06
0.00502487
-6.47663e-06
0.00502691
-6.1258e-06
0.00502884
-5.7884e-06
0.00503066
-5.46407e-06
0.00503238
-5.15248e-06
0.005034
-4.85331e-06
0.00503552
-4.56622e-06
0.00503695
-4.2909e-06
0.00503829
-4.02706e-06
0.00503955
-3.77444e-06
0.00504073
-3.5328e-06
0.00504183
-3.3019e-06
0.00504286
-3.08149e-06
0.00504382
-2.87128e-06
0.00504471
-2.67098e-06
0.00504553
-2.4803e-06
0.0050463
-2.29901e-06
0.00504701
-2.12692e-06
0.00504767
-1.96392e-06
0.00504827
-1.80987e-06
0.00504883
-1.66462e-06
0.00504934
-1.52794e-06
0.00504981
-1.39959e-06
0.00505024
-1.2793e-06
0.00505063
-1.16679e-06
0.00505098
-1.06187e-06
0.0050513
-9.64352e-07
0.0050516
-8.7424e-07
0.00505186
-7.91263e-07
0.0050521
-7.15696e-07
0.00505232
-6.4675e-07
0.00505251
-5.85528e-07
0.00505269
-5.29873e-07
0.00505285
-4.83403e-07
0.005053
-4.40241e-07
0.00505314
-4.10298e-07
0.00505327
-3.7843e-07
0.00505339
-3.68747e-07
0.00505351
-3.45936e-07
0.00505363
-3.62718e-07
0.00505374
-3.45408e-07
0.00505388
-3.97995e-07
0.00505401
-3.8375e-07
0.00505417
-4.83105e-07
0.00505433
-4.74215e-07
0.00505454
-6.27494e-07
0.00505475
-6.39591e-07
0.00505503
-8.4285e-07
0.00505533
-9.09523e-07
0.00505572
-1.15956e-06
0.00505615
-1.28771e-06
0.0050567
-1.66401e-06
0.0050573
-1.78345e-06
0.00505801
-2.14196e-06
0.00505902
-3.04504e-06
0.00505977
-2.22783e-06
-3.2783e-06
0.00498197
-1.7228e-05
0.00498609
-1.64891e-05
0.00499002
-1.57664e-05
0.00499377
-1.50612e-05
0.00499736
-1.4375e-05
0.00500077
-1.37086e-05
0.00500403
-1.30627e-05
0.00500713
-1.24376e-05
0.00501008
-1.18333e-05
0.00501289
-1.12496e-05
0.00501555
-1.06865e-05
0.00501808
-1.01434e-05
0.00502048
-9.61994e-06
0.00502276
-9.11573e-06
0.00502491
-8.63027e-06
0.00502695
-8.16311e-06
0.00502888
-7.7138e-06
0.00503069
-7.28188e-06
0.00503241
-6.86691e-06
0.00503402
-6.46844e-06
0.00503554
-6.08605e-06
0.00503697
-5.71932e-06
0.00503831
-5.36788e-06
0.00503957
-5.03136e-06
0.00504075
-4.70945e-06
0.00504185
-4.40181e-06
0.00504287
-4.10811e-06
0.00504383
-3.828e-06
0.00504472
-3.56109e-06
0.00504555
-3.30703e-06
0.00504631
-3.06551e-06
0.00504702
-2.83628e-06
0.00504768
-2.61913e-06
0.00504828
-2.41385e-06
0.00504884
-2.22024e-06
0.00504935
-2.03801e-06
0.00504981
-1.86685e-06
0.00505024
-1.70643e-06
0.00505063
-1.55641e-06
0.00505099
-1.41655e-06
0.00505131
-1.28657e-06
0.0050516
-1.16648e-06
0.00505186
-1.05588e-06
0.0050521
-9.55136e-07
0.00505232
-8.63202e-07
0.00505252
-7.81586e-07
0.00505269
-7.07416e-07
0.00505286
-6.45522e-07
0.005053
-5.88031e-07
0.00505314
-5.48148e-07
0.00505327
-5.05661e-07
0.00505339
-4.92713e-07
0.00505351
-4.62196e-07
0.00505363
-4.84497e-07
0.00505375
-4.61302e-07
0.00505388
-5.31351e-07
0.00505401
-5.12165e-07
0.00505417
-6.44574e-07
0.00505433
-6.32498e-07
0.00505454
-8.36801e-07
0.00505475
-8.52677e-07
0.00505503
-1.12368e-06
0.00505533
-1.21282e-06
0.00505572
-1.54465e-06
0.00505615
-1.71995e-06
0.0050567
-2.21168e-06
0.0050573
-2.38846e-06
0.00505801
-2.84854e-06
0.00505902
-4.05053e-06
0.00505978
-2.99476e-06
-4.37269e-06
0.00498216
-2.15112e-05
0.00498626
-2.05877e-05
0.00499018
-1.96849e-05
0.00499392
-1.88043e-05
0.00499749
-1.79477e-05
0.0050009
-1.7116e-05
0.00500415
-1.63099e-05
0.00500724
-1.55299e-05
0.00501018
-1.47758e-05
0.00501298
-1.40475e-05
0.00501564
-1.33447e-05
0.00501816
-1.26669e-05
0.00502055
-1.20137e-05
0.00502282
-1.13845e-05
0.00502497
-1.07786e-05
0.005027
-1.01955e-05
0.00502892
-9.63468e-06
0.00503074
-9.09553e-06
0.00503245
-8.57751e-06
0.00503406
-8.08006e-06
0.00503558
-7.60265e-06
0.005037
-7.14478e-06
0.00503834
-6.70597e-06
0.00503959
-6.28579e-06
0.00504077
-5.88381e-06
0.00504187
-5.49962e-06
0.00504289
-5.13282e-06
0.00504385
-4.78296e-06
0.00504474
-4.4496e-06
0.00504556
-4.1323e-06
0.00504633
-3.83069e-06
0.00504703
-3.54443e-06
0.00504769
-3.27323e-06
0.00504829
-3.01684e-06
0.00504885
-2.77497e-06
0.00504935
-2.54727e-06
0.00504982
-2.33337e-06
0.00505025
-2.13291e-06
0.00505064
-1.94544e-06
0.00505099
-1.7707e-06
0.00505131
-1.60833e-06
0.0050516
-1.45831e-06
0.00505187
-1.32014e-06
0.00505211
-1.19426e-06
0.00505232
-1.07937e-06
0.00505252
-9.77402e-07
0.0050527
-8.84749e-07
0.00505286
-8.07458e-07
0.00505301
-7.35662e-07
0.00505314
-6.85865e-07
0.00505327
-6.32772e-07
0.0050534
-6.1658e-07
0.00505351
-5.78358e-07
0.00505363
-6.06205e-07
0.00505375
-5.77112e-07
0.00505388
-6.64663e-07
0.00505401
-6.40492e-07
0.00505417
-8.06021e-07
0.00505433
-7.90665e-07
0.00505454
-1.0461e-06
0.00505475
-1.06563e-06
0.00505503
-1.40443e-06
0.00505534
-1.51628e-06
0.00505572
-1.92876e-06
0.00505616
-2.15478e-06
0.0050567
-2.75377e-06
0.00505731
-3.00243e-06
0.00505801
-3.54953e-06
0.00505901
-5.04926e-06
0.0050598
-3.78222e-06
-5.46947e-06
0.00498239
-2.57786e-05
0.00498647
-2.46705e-05
0.00499037
-2.3588e-05
0.0049941
-2.25327e-05
0.00499766
-2.15064e-05
0.00500105
-2.05102e-05
0.00500429
-1.95448e-05
0.00500737
-1.86106e-05
0.0050103
-1.77076e-05
0.00501309
-1.68354e-05
0.00501574
-1.59937e-05
0.00501825
-1.5182e-05
0.00502064
-1.43997e-05
0.0050229
-1.3646e-05
0.00502504
-1.29202e-05
0.00502707
-1.22218e-05
0.00502898
-1.15499e-05
0.00503079
-1.0904e-05
0.0050325
-1.02833e-05
0.00503411
-9.68727e-06
0.00503562
-9.1152e-06
0.00503704
-8.56652e-06
0.00503838
-8.04065e-06
0.00503963
-7.53708e-06
0.0050408
-7.05529e-06
0.00504189
-6.59481e-06
0.00504292
-6.15512e-06
0.00504387
-5.73572e-06
0.00504475
-5.33609e-06
0.00504558
-4.95573e-06
0.00504634
-4.59418e-06
0.00504705
-4.25105e-06
0.0050477
-3.92596e-06
0.0050483
-3.61858e-06
0.00504886
-3.32856e-06
0.00504936
-3.0555e-06
0.00504983
-2.79898e-06
0.00505026
-2.55855e-06
0.00505064
-2.33373e-06
0.005051
-2.12418e-06
0.00505132
-1.92949e-06
0.00505161
-1.74961e-06
0.00505187
-1.58392e-06
0.00505211
-1.43297e-06
0.00505233
-1.29519e-06
0.00505252
-1.17291e-06
0.0050527
-1.06181e-06
0.00505286
-9.69158e-07
0.00505301
-8.83085e-07
0.00505315
-8.23403e-07
0.00505327
-7.59722e-07
0.0050534
-7.40313e-07
0.00505351
-6.94388e-07
0.00505364
-7.27814e-07
0.00505375
-6.92803e-07
0.00505388
-7.97908e-07
0.00505401
-7.68693e-07
0.00505417
-9.67426e-07
0.00505433
-9.48669e-07
0.00505454
-1.25537e-06
0.00505475
-1.2784e-06
0.00505504
-1.68506e-06
0.00505534
-1.8199e-06
0.00505572
-2.31168e-06
0.00505616
-2.59263e-06
0.0050567
-3.28926e-06
0.00505732
-3.62694e-06
0.00505801
-4.24392e-06
0.005059
-6.04011e-06
0.00505982
-4.59393e-06
-6.56912e-06
0.00498266
-3.00266e-05
0.00498673
-2.87342e-05
0.00499061
-2.74726e-05
0.00499432
-2.62434e-05
0.00499786
-2.50483e-05
0.00500124
-2.38886e-05
0.00500446
-2.2765e-05
0.00500753
-2.16776e-05
0.00501045
-2.06266e-05
0.00501322
-1.96114e-05
0.00501586
-1.86318e-05
0.00501837
-1.7687e-05
0.00502074
-1.67762e-05
0.005023
-1.58988e-05
0.00502513
-1.50539e-05
0.00502715
-1.42407e-05
0.00502906
-1.34584e-05
0.00503086
-1.27062e-05
0.00503256
-1.19834e-05
0.00503416
-1.12892e-05
0.00503567
-1.06229e-05
0.00503709
-9.98379e-06
0.00503842
-9.37123e-06
0.00503966
-8.7846e-06
0.00504083
-8.22333e-06
0.00504192
-7.68682e-06
0.00504294
-7.17451e-06
0.00504389
-6.68582e-06
0.00504478
-6.22015e-06
0.0050456
-5.77694e-06
0.00504636
-5.35566e-06
0.00504707
-4.95582e-06
0.00504772
-4.577e-06
0.00504832
-4.21879e-06
0.00504887
-3.88077e-06
0.00504938
-3.56249e-06
0.00504984
-3.26346e-06
0.00505027
-2.98318e-06
0.00505065
-2.72111e-06
0.00505101
-2.47685e-06
0.00505133
-2.24992e-06
0.00505162
-2.04026e-06
0.00505188
-1.84714e-06
0.00505212
-1.67116e-06
0.00505233
-1.51056e-06
0.00505253
-1.36801e-06
0.00505271
-1.23854e-06
0.00505287
-1.13053e-06
0.00505301
-1.03029e-06
0.00505315
-9.60641e-07
0.00505328
-8.86571e-07
0.0050534
-8.63718e-07
0.00505352
-8.10454e-07
0.00505364
-8.49006e-07
0.00505375
-8.087e-07
0.00505389
-9.30603e-07
0.00505402
-8.97267e-07
0.00505418
-1.12814e-06
0.00505433
-1.10713e-06
0.00505454
-1.4639e-06
0.00505476
-1.4916e-06
0.00505504
-1.96494e-06
0.00505534
-2.12411e-06
0.00505572
-2.69292e-06
0.00505616
-3.03393e-06
0.00505669
-3.81738e-06
0.00505733
-4.26303e-06
0.00505801
-4.93111e-06
0.005059
-7.02214e-06
0.00505984
-5.43265e-06
-7.6724e-06
0.00522188
-3.44539e-05
0.00522611
-3.29688e-05
0.00523016
-3.15203e-05
0.00523403
-3.01098e-05
0.00523772
-2.87391e-05
0.00524124
-2.74093e-05
0.00524459
-2.6121e-05
0.00524779
-2.48745e-05
0.00525083
-2.36695e-05
0.00525373
-2.25057e-05
0.00525648
-2.13826e-05
0.00525909
-2.02993e-05
0.00526157
-1.9255e-05
0.00526392
-1.82488e-05
0.00526615
-1.72798e-05
0.00526825
-1.63471e-05
0.00527024
-1.54498e-05
0.00527213
-1.4587e-05
0.0052739
-1.37577e-05
0.00527557
-1.29613e-05
0.00527715
-1.21968e-05
0.00527863
-1.14634e-05
0.00528001
-1.07604e-05
0.00528132
-1.00872e-05
0.00528254
-9.44301e-06
0.00528368
-8.8272e-06
0.00528474
-8.23912e-06
0.00528573
-7.67812e-06
0.00528666
-7.14353e-06
0.00528752
-6.63472e-06
0.00528831
-6.15107e-06
0.00528905
-5.69205e-06
0.00528973
-5.25713e-06
0.00529035
-4.84585e-06
0.00529093
-4.45771e-06
0.00529146
-4.0922e-06
0.00529195
-3.74877e-06
0.00529239
-3.42687e-06
0.00529279
-3.12589e-06
0.00529316
-2.84538e-06
0.0052935
-2.58479e-06
0.0052938
-2.34401e-06
0.00529408
-2.12225e-06
0.00529433
-1.9201e-06
0.00529455
-1.73573e-06
0.00529475
-1.57187e-06
0.00529494
-1.42343e-06
0.00529511
-1.29903e-06
0.00529526
-1.18453e-06
0.00529541
-1.10366e-06
0.00529554
-1.01994e-06
0.00529567
-9.91765e-07
0.00529579
-9.33273e-07
0.00529591
-9.73909e-07
0.00529604
-9.32399e-07
0.00529617
-1.06645e-06
0.00529631
-1.03543e-06
0.00529648
-1.29226e-06
0.00529665
-1.27745e-06
0.00529686
-1.67763e-06
0.00529709
-1.71916e-06
0.00529738
-2.25403e-06
0.0052977
-2.4461e-06
0.00529809
-3.08881e-06
0.00529856
-3.50097e-06
0.00529911
-4.3625e-06
0.00529979
-4.94203e-06
0.0053005
-5.64392e-06
0.00530152
-8.04076e-06
0.00530243
-6.34201e-06
-8.8347e-06
0.00522228
-3.88521e-05
0.00522649
-3.71749e-05
0.00523051
-3.55406e-05
0.00523435
-3.39502e-05
0.00523802
-3.24052e-05
0.00524151
-3.09068e-05
0.00524485
-2.94554e-05
0.00524802
-2.80511e-05
0.00525105
-2.66937e-05
0.00525392
-2.53827e-05
0.00525666
-2.41173e-05
0.00525926
-2.28967e-05
0.00526172
-2.172e-05
0.00526406
-2.05861e-05
0.00526627
-1.94941e-05
0.00526837
-1.84428e-05
0.00527035
-1.74313e-05
0.00527222
-1.64586e-05
0.00527399
-1.55236e-05
0.00527565
-1.46256e-05
0.00527722
-1.37635e-05
0.00527869
-1.29364e-05
0.00528008
-1.21436e-05
0.00528137
-1.13842e-05
0.00528259
-1.06576e-05
0.00528372
-9.96287e-06
0.00528478
-9.29941e-06
0.00528577
-8.66646e-06
0.00528669
-8.06329e-06
0.00528755
-7.48918e-06
0.00528834
-6.94346e-06
0.00528907
-6.42551e-06
0.00528975
-5.93474e-06
0.00529037
-5.47061e-06
0.00529095
-5.03256e-06
0.00529148
-4.62002e-06
0.00529196
-4.23238e-06
0.0052924
-3.86902e-06
0.00529281
-3.52929e-06
0.00529317
-3.21266e-06
0.00529351
-2.91853e-06
0.00529381
-2.64674e-06
0.00529408
-2.39646e-06
0.00529433
-2.16823e-06
0.00529456
-1.9602e-06
0.00529476
-1.7751e-06
0.00529494
-1.60779e-06
0.00529511
-1.46701e-06
0.00529527
-1.33837e-06
0.00529541
-1.24621e-06
0.00529554
-1.15307e-06
0.00529567
-1.11933e-06
0.00529579
-1.05601e-06
0.00529592
-1.09825e-06
0.00529604
-1.05621e-06
0.00529617
-1.20158e-06
0.00529631
-1.17389e-06
0.00529648
-1.45551e-06
0.00529665
-1.44814e-06
0.00529686
-1.89043e-06
0.00529709
-1.94702e-06
0.00529738
-2.54215e-06
0.0052977
-2.76859e-06
0.00529809
-3.48256e-06
0.00529856
-3.97203e-06
0.0052991
-4.89851e-06
0.00529979
-5.63498e-06
0.0053005
-6.34794e-06
0.0053015
-9.04899e-06
0.00530245
-7.28438e-06
-1.00018e-05
0.00522274
-4.32168e-05
0.00522691
-4.13487e-05
0.0052309
-3.95298e-05
0.00523471
-3.77611e-05
0.00523835
-3.60436e-05
0.00524182
-3.43783e-05
0.00524513
-3.27655e-05
0.00524829
-3.12051e-05
0.00525129
-2.96969e-05
0.00525415
-2.82401e-05
0.00525686
-2.68339e-05
0.00525944
-2.54774e-05
0.00526189
-2.41695e-05
0.00526422
-2.29091e-05
0.00526642
-2.16951e-05
0.0052685
-2.05263e-05
0.00527047
-1.94015e-05
0.00527233
-1.83198e-05
0.00527409
-1.728e-05
0.00527574
-1.62811e-05
0.0052773
-1.5322e-05
0.00527877
-1.44019e-05
0.00528014
-1.35199e-05
0.00528143
-1.26749e-05
0.00528264
-1.18663e-05
0.00528377
-1.10932e-05
0.00528483
-1.03548e-05
0.00528581
-9.6503e-06
0.00528673
-8.97891e-06
0.00528758
-8.33986e-06
0.00528837
-7.73239e-06
0.0052891
-7.15581e-06
0.00528977
-6.60947e-06
0.0052904
-6.09275e-06
0.00529097
-5.60503e-06
0.00529149
-5.14568e-06
0.00529198
-4.71402e-06
0.00529242
-4.3094e-06
0.00529282
-3.93107e-06
0.00529318
-3.57848e-06
0.00529352
-3.25097e-06
0.00529382
-2.94831e-06
0.00529409
-2.66962e-06
0.00529434
-2.41543e-06
0.00529456
-2.18384e-06
0.00529476
-1.97759e-06
0.00529495
-1.79148e-06
0.00529511
-1.63439e-06
0.00529527
-1.49169e-06
0.00529541
-1.38829e-06
0.00529554
-1.28576e-06
0.00529567
-1.24652e-06
0.00529579
-1.17837e-06
0.00529592
-1.22227e-06
0.00529604
-1.17966e-06
0.00529617
-1.33645e-06
0.00529631
-1.31195e-06
0.00529648
-1.61853e-06
0.00529665
-1.61834e-06
0.00529686
-2.103e-06
0.00529709
-2.17429e-06
0.00529737
-2.8299e-06
0.0052977
-3.0909e-06
0.00529809
-3.87441e-06
0.00529856
-4.44685e-06
0.00529909
-5.42526e-06
0.0052998
-6.34193e-06
0.00530049
-7.04293e-06
0.00530149
-1.00472e-05
0.00530247
-8.25997e-06
-1.11736e-05
0.00522325
-4.75437e-05
0.00522738
-4.54861e-05
0.00523134
-4.34844e-05
0.00523512
-4.15391e-05
0.00523872
-3.9651e-05
0.00524217
-3.78207e-05
0.00524545
-3.60485e-05
0.00524858
-3.43339e-05
0.00525156
-3.26766e-05
0.00525439
-3.10757e-05
0.00525709
-2.95304e-05
0.00525965
-2.80395e-05
0.00526208
-2.66019e-05
0.00526439
-2.52162e-05
0.00526658
-2.38814e-05
0.00526865
-2.25962e-05
0.0052706
-2.13592e-05
0.00527245
-2.01694e-05
0.0052742
-1.90257e-05
0.00527585
-1.79267e-05
0.00527739
-1.68715e-05
0.00527885
-1.58591e-05
0.00528022
-1.48884e-05
0.0052815
-1.39585e-05
0.00528271
-1.30685e-05
0.00528383
-1.22175e-05
0.00528488
-1.14047e-05
0.00528586
-1.06291e-05
0.00528677
-9.8899e-06
0.00528762
-9.18628e-06
0.0052884
-8.51742e-06
0.00528913
-7.88255e-06
0.0052898
-7.28095e-06
0.00529042
-6.71192e-06
0.00529099
-6.1748e-06
0.00529151
-5.66888e-06
0.00529199
-5.19344e-06
0.00529243
-4.74775e-06
0.00529283
-4.33103e-06
0.00529319
-3.94266e-06
0.00529353
-3.58192e-06
0.00529383
-3.24853e-06
0.0052941
-2.94158e-06
0.00529434
-2.66155e-06
0.00529457
-2.40651e-06
0.00529477
-2.17922e-06
0.00529495
-1.9744e-06
0.00529512
-1.80109e-06
0.00529527
-1.64438e-06
0.00529541
-1.52981e-06
0.00529554
-1.41792e-06
0.00529567
-1.37324e-06
0.00529579
-1.30026e-06
0.00529592
-1.3459e-06
0.00529604
-1.30265e-06
0.00529617
-1.47098e-06
0.00529631
-1.44952e-06
0.00529647
-1.78123e-06
0.00529664
-1.78794e-06
0.00529686
-2.31527e-06
0.00529708
-2.40085e-06
0.00529737
-3.1172e-06
0.00529769
-3.41287e-06
0.00529808
-4.26429e-06
0.00529856
-4.92514e-06
0.00529908
-5.94291e-06
0.0052998
-7.0623e-06
0.00530048
-7.72915e-06
0.00530147
-1.10359e-05
0.00530248
-9.26793e-06
-1.23504e-05
0.0052238
-5.18284e-05
0.0052279
-4.95831e-05
0.00523182
-4.74006e-05
0.00523556
-4.52809e-05
0.00523913
-4.32244e-05
0.00524254
-4.12314e-05
0.0052458
-3.93017e-05
0.0052489
-3.74351e-05
0.00525185
-3.56306e-05
0.00525466
-3.38876e-05
0.00525734
-3.22048e-05
0.00525988
-3.05811e-05
0.00526229
-2.90153e-05
0.00526458
-2.75059e-05
0.00526675
-2.60516e-05
0.00526881
-2.46511e-05
0.00527075
-2.33031e-05
0.00527259
-2.20064e-05
0.00527432
-2.07596e-05
0.00527596
-1.95615e-05
0.0052775
-1.84111e-05
0.00527894
-1.73071e-05
0.0052803
-1.62485e-05
0.00528158
-1.52343e-05
0.00528278
-1.42636e-05
0.00528389
-1.33352e-05
0.00528494
-1.24485e-05
0.00528591
-1.16023e-05
0.00528682
-1.07958e-05
0.00528766
-1.0028e-05
0.00528844
-9.29813e-06
0.00528916
-8.60533e-06
0.00528983
-7.9488e-06
0.00529044
-7.32779e-06
0.00529101
-6.74156e-06
0.00529153
-6.18934e-06
0.00529201
-5.67036e-06
0.00529245
-5.18384e-06
0.00529284
-4.72893e-06
0.00529321
-4.30497e-06
0.00529353
-3.91118e-06
0.00529383
-3.54724e-06
0.0052941
-3.21218e-06
0.00529435
-2.90645e-06
0.00529457
-2.62808e-06
0.00529477
-2.37985e-06
0.00529495
-2.15643e-06
0.00529512
-1.96699e-06
0.00529527
-1.79633e-06
0.00529541
-1.67068e-06
0.00529554
-1.54947e-06
0.00529567
-1.49941e-06
0.00529579
-1.42159e-06
0.00529591
-1.46906e-06
0.00529604
-1.42511e-06
0.00529617
-1.60508e-06
0.00529631
-1.58651e-06
0.00529647
-1.94354e-06
0.00529664
-1.95682e-06
0.00529685
-2.52715e-06
0.00529708
-2.62652e-06
0.00529736
-3.40394e-06
0.00529768
-3.73428e-06
0.00529807
-4.6522e-06
0.00529855
-5.40645e-06
0.00529906
-6.45184e-06
0.0052998
-7.79509e-06
0.00530047
-8.40706e-06
0.00530145
-1.20161e-05
0.00530249
-1.03065e-05
-1.35325e-05
0.00522441
-5.60664e-05
0.00522847
-5.36357e-05
0.00523234
-5.12748e-05
0.00523604
-4.89832e-05
0.00523958
-4.67607e-05
0.00524296
-4.46073e-05
0.00524618
-4.25227e-05
0.00524925
-4.05061e-05
0.00525217
-3.85567e-05
0.00525496
-3.66735e-05
0.00525761
-3.48552e-05
0.00526013
-3.31005e-05
0.00526252
-3.14081e-05
0.00526479
-2.97764e-05
0.00526694
-2.82041e-05
0.00526898
-2.66898e-05
0.00527091
-2.5232e-05
0.00527274
-2.38294e-05
0.00527446
-2.24806e-05
0.00527608
-2.11845e-05
0.00527761
-1.99396e-05
0.00527905
-1.87449e-05
0.0052804
-1.75993e-05
0.00528166
-1.65015e-05
0.00528285
-1.54507e-05
0.00528396
-1.44457e-05
0.005285
-1.34856e-05
0.00528597
-1.25693e-05
0.00528687
-1.16959e-05
0.0052877
-1.08645e-05
0.00528848
-1.00741e-05
0.0052892
-9.32374e-06
0.00528986
-8.61265e-06
0.00529047
-7.94e-06
0.00529104
-7.30497e-06
0.00529155
-6.70675e-06
0.00529203
-6.14451e-06
0.00529246
-5.6174e-06
0.00529286
-5.12455e-06
0.00529322
-4.6652e-06
0.00529354
-4.23856e-06
0.00529384
-3.84425e-06
0.00529411
-3.48124e-06
0.00529435
-3.14996e-06
0.00529457
-2.8484e-06
0.00529477
-2.57937e-06
0.00529495
-2.33744e-06
0.00529512
-2.13197e-06
0.00529527
-1.94744e-06
0.00529541
-1.81078e-06
0.00529554
-1.68029e-06
0.00529567
-1.62494e-06
0.00529579
-1.54228e-06
0.00529591
-1.59166e-06
0.00529603
-1.54693e-06
0.00529617
-1.73868e-06
0.0052963
-1.7228e-06
0.00529646
-2.10536e-06
0.00529663
-2.12485e-06
0.00529684
-2.73854e-06
0.00529707
-2.85116e-06
0.00529735
-3.69004e-06
0.00529767
-4.05489e-06
0.00529806
-5.03811e-06
0.00529854
-5.89023e-06
0.00529905
-6.95266e-06
0.00529979
-8.53899e-06
0.00530046
-9.07732e-06
0.00530143
-1.29888e-05
0.0053025
-1.13732e-05
-1.47203e-05
0.00522507
-6.02533e-05
0.00522908
-5.76398e-05
0.00523291
-5.51034e-05
0.00523657
-5.26426e-05
0.00524006
-5.02569e-05
0.0052434
-4.79459e-05
0.00524659
-4.57088e-05
0.00524963
-4.35447e-05
0.00525252
-4.14527e-05
0.00525528
-3.94314e-05
0.0052579
-3.74796e-05
0.0052604
-3.55959e-05
0.00526277
-3.37786e-05
0.00526502
-3.20264e-05
0.00526715
-3.03376e-05
0.00526917
-2.87109e-05
0.00527109
-2.71446e-05
0.0052729
-2.56374e-05
0.0052746
-2.41878e-05
0.00527621
-2.27946e-05
0.00527773
-2.14563e-05
0.00527916
-2.01719e-05
0.0052805
-1.89399e-05
0.00528175
-1.77594e-05
0.00528293
-1.66292e-05
0.00528404
-1.55482e-05
0.00528507
-1.45153e-05
0.00528603
-1.35296e-05
0.00528692
-1.25899e-05
0.00528775
-1.16953e-05
0.00528852
-1.08448e-05
0.00528923
-1.00374e-05
0.00528989
-9.27212e-06
0.0052905
-8.5482e-06
0.00529106
-7.86472e-06
0.00529158
-7.22083e-06
0.00529205
-6.61561e-06
0.00529248
-6.04819e-06
0.00529287
-5.51763e-06
0.00529323
-5.02314e-06
0.00529355
-4.56386e-06
0.00529385
-4.13936e-06
0.00529412
-3.74859e-06
0.00529436
-3.39192e-06
0.00529458
-3.06733e-06
0.00529478
-2.77763e-06
0.00529496
-2.5173e-06
0.00529512
-2.29591e-06
0.00529527
-2.0976e-06
0.00529541
-1.95002e-06
0.00529554
-1.81028e-06
0.00529566
-1.74972e-06
0.00529578
-1.66221e-06
0.00529591
-1.71359e-06
0.00529603
-1.66802e-06
0.00529616
-1.87167e-06
0.0052963
-1.85828e-06
0.00529646
-2.2666e-06
0.00529662
-2.2919e-06
0.00529683
-2.94933e-06
0.00529706
-3.07458e-06
0.00529734
-3.9754e-06
0.00529766
-4.37443e-06
0.00529805
-5.42207e-06
0.00529853
-6.37582e-06
0.00529903
-7.44609e-06
0.00529978
-9.29239e-06
0.00530044
-9.74072e-06
0.00530141
-1.39555e-05
0.0053025
-1.24652e-05
-1.59141e-05
0.00522579
-6.43845e-05
0.00522974
-6.15916e-05
0.00523352
-5.88828e-05
0.00523713
-5.62559e-05
0.00524058
-5.371e-05
0.00524388
-5.12442e-05
0.00524703
-4.88574e-05
0.00525003
-4.65485e-05
0.0052529
-4.43163e-05
0.00525563
-4.21594e-05
0.00525822
-4.00763e-05
0.00526069
-3.80654e-05
0.00526304
-3.61253e-05
0.00526527
-3.42543e-05
0.00526738
-3.24507e-05
0.00526938
-3.0713e-05
0.00527128
-2.90396e-05
0.00527307
-2.74291e-05
0.00527476
-2.588e-05
0.00527636
-2.43908e-05
0.00527786
-2.29603e-05
0.00527928
-2.1587e-05
0.00528061
-2.02697e-05
0.00528185
-1.90072e-05
0.00528302
-1.77984e-05
0.00528412
-1.66421e-05
0.00528514
-1.55372e-05
0.00528609
-1.44827e-05
0.00528698
-1.34773e-05
0.0052878
-1.252e-05
0.00528857
-1.16099e-05
0.00528928
-1.07458e-05
0.00528993
-9.92683e-06
0.00529054
-9.15204e-06
0.00529109
-8.42049e-06
0.0052916
-7.73125e-06
0.00529207
-7.08338e-06
0.0052925
-6.47595e-06
0.00529289
-5.90795e-06
0.00529324
-5.37857e-06
0.00529357
-4.88687e-06
0.00529386
-4.4324e-06
0.00529412
-4.01405e-06
0.00529436
-3.63218e-06
0.00529458
-3.28471e-06
0.00529478
-2.97448e-06
0.00529496
-2.69588e-06
0.00529512
-2.45869e-06
0.00529527
-2.24668e-06
0.00529541
-2.08828e-06
0.00529554
-1.93935e-06
0.00529566
-1.87366e-06
0.00529578
-1.78129e-06
0.0052959
-1.83477e-06
0.00529602
-1.78826e-06
0.00529615
-2.00395e-06
0.00529629
-1.99283e-06
0.00529645
-2.42714e-06
0.00529661
-2.45784e-06
0.00529682
-3.1594e-06
0.00529705
-3.29662e-06
0.00529733
-4.25991e-06
0.00529765
-4.69261e-06
0.00529803
-5.80411e-06
0.00529852
-6.86249e-06
0.005299
-7.93296e-06
0.00529977
-1.00535e-05
0.00530042
-1.03981e-05
0.00530138
-1.49175e-05
0.0053025
-1.3579e-05
-1.71143e-05
0.00522655
-6.84557e-05
0.00523044
-6.54871e-05
0.00523417
-6.26095e-05
0.00523773
-5.982e-05
0.00524114
-5.71171e-05
0.00524439
-5.44996e-05
0.0052475
-5.19662e-05
0.00525047
-4.95153e-05
0.0052533
-4.71455e-05
0.00525599
-4.48553e-05
0.00525856
-4.26432e-05
0.005261
-4.05075e-05
0.00526333
-3.84465e-05
0.00526553
-3.64585e-05
0.00526762
-3.45419e-05
0.0052696
-3.26949e-05
0.00527148
-3.0916e-05
0.00527325
-2.92036e-05
0.00527493
-2.75562e-05
0.00527651
-2.59723e-05
0.005278
-2.44505e-05
0.0052794
-2.29894e-05
0.00528072
-2.15877e-05
0.00528196
-2.02442e-05
0.00528312
-1.89577e-05
0.0052842
-1.77269e-05
0.00528522
-1.65507e-05
0.00528616
-1.54279e-05
0.00528704
-1.43574e-05
0.00528786
-1.33381e-05
0.00528862
-1.23688e-05
0.00528932
-1.14486e-05
0.00528997
-1.05764e-05
0.00529057
-9.75116e-06
0.00529112
-8.97193e-06
0.00529163
-8.23772e-06
0.00529209
-7.54755e-06
0.00529252
-6.9004e-06
0.0052929
-6.29526e-06
0.00529326
-5.73125e-06
0.00529358
-5.20739e-06
0.00529387
-4.72318e-06
0.00529413
-4.27746e-06
0.00529437
-3.87057e-06
0.00529459
-3.50038e-06
0.00529478
-3.16979e-06
0.00529496
-2.87306e-06
0.00529512
-2.62019e-06
0.00529527
-2.39457e-06
0.0052954
-2.22545e-06
0.00529553
-2.06738e-06
0.00529566
-1.99664e-06
0.00529577
-1.89942e-06
0.00529589
-1.95508e-06
0.00529601
-1.90755e-06
0.00529614
-2.13541e-06
0.00529628
-2.12635e-06
0.00529644
-2.58687e-06
0.0052966
-2.62252e-06
0.00529681
-3.36865e-06
0.00529703
-3.51707e-06
0.00529732
-4.54347e-06
0.00529763
-5.00914e-06
0.00529801
-6.18429e-06
0.0052985
-7.34945e-06
0.00529898
-8.41418e-06
0.00529975
-1.08206e-05
0.0053004
-1.10505e-05
0.00530136
-1.58763e-05
0.00530249
-1.47113e-05
-1.83213e-05
0.00522736
-7.24626e-05
0.00523119
-6.93225e-05
0.00523486
-6.628e-05
0.00523837
-6.33316e-05
0.00524173
-6.04754e-05
0.00524494
-5.77096e-05
0.00524801
-5.50326e-05
0.00525093
-5.24427e-05
0.00525373
-4.99382e-05
0.00525639
-4.75174e-05
0.00525893
-4.51788e-05
0.00526134
-4.29205e-05
0.00526363
-4.07407e-05
0.00526581
-3.86378e-05
0.00526788
-3.66099e-05
0.00526984
-3.46553e-05
0.0052717
-3.27724e-05
0.00527345
-3.09596e-05
0.00527511
-2.92153e-05
0.00527668
-2.75379e-05
0.00527815
-2.59261e-05
0.00527954
-2.43783e-05
0.00528085
-2.28933e-05
0.00528207
-2.14697e-05
0.00528322
-2.01063e-05
0.0052843
-1.88018e-05
0.0052853
-1.7555e-05
0.00528624
-1.63647e-05
0.00528711
-1.52298e-05
0.00528792
-1.4149e-05
0.00528867
-1.31213e-05
0.00528937
-1.21454e-05
0.00529001
-1.12204e-05
0.00529061
-1.03452e-05
0.00529115
-9.51872e-06
0.00529166
-8.73994e-06
0.00529212
-8.00781e-06
0.00529254
-7.3213e-06
0.00529292
-6.67933e-06
0.00529327
-6.08097e-06
0.00529359
-5.52521e-06
0.00529388
-5.01149e-06
0.00529414
-4.53862e-06
0.00529438
-4.10692e-06
0.00529459
-3.7142e-06
0.00529478
-3.3634e-06
0.00529496
-3.04868e-06
0.00529512
-2.78026e-06
0.00529527
-2.54114e-06
0.0052954
-2.36141e-06
0.00529553
-2.19426e-06
0.00529565
-2.11856e-06
0.00529577
-2.01649e-06
0.00529589
-2.07444e-06
0.005296
-2.02579e-06
0.00529614
-2.26596e-06
0.00529627