/*--------------------------------*- C++ -*----------------------------------*\
| =========                 |                                                 |
| \\      /  F ield         | OpenFOAM: The Open Source CFD Toolbox           |
|  \\    /   O peration     | Version:  2412                                  |
|   \\  /    A nd           | Website:  www.openfoam.com                      |
|    \\/     M anipulation  |                                                 |
\*---------------------------------------------------------------------------*/
FoamFile
{
    version     2.0;
    format      ascii;
    arch        "LSB;label=32;scalar=64";
    class       volVectorField;
    location    "21";
    object      U;
}
// * * * * * * * * * * * * * * * * * * * * * * * * * * * * * * * * * * * * * //

dimensions      [0 1 -1 0 0 0 0];

internalField   nonuniform List<vector> 
5285
(
(0.117066 0.00343348 0)
(0.116403 0.0032502 0)
(0.116564 0.00259844 0)
(0.116669 0.00194066 0)
(0.116745 0.00127849 0)
(0.116782 0.000614153 0)
(0.116778 -4.92315e-05 0)
(0.116734 -0.000708643 0)
(0.116652 -0.00136129 0)
(0.116532 -0.00200452 0)
(0.116375 -0.00263584 0)
(0.116183 -0.00325286 0)
(0.115957 -0.00385339 0)
(0.1157 -0.00443537 0)
(0.115412 -0.00499693 0)
(0.115096 -0.00553633 0)
(0.114754 -0.00605202 0)
(0.114388 -0.00654259 0)
(0.113999 -0.00700681 0)
(0.113591 -0.0074436 0)
(0.113165 -0.00785204 0)
(0.112723 -0.00823139 0)
(0.112268 -0.00858109 0)
(0.111803 -0.00890074 0)
(0.115779 0.00307801 0)
(0.11593 0.00246498 0)
(0.116031 0.00184612 0)
(0.116103 0.00122287 0)
(0.11614 0.000597341 0)
(0.116139 -2.76319e-05 0)
(0.116101 -0.000649267 0)
(0.116027 -0.00126499 0)
(0.115917 -0.00187234 0)
(0.115774 -0.00246898 0)
(0.115597 -0.0030527 0)
(0.115389 -0.00362145 0)
(0.115151 -0.0041733 0)
(0.114884 -0.00470648 0)
(0.114591 -0.00521936 0)
(0.114273 -0.00571047 0)
(0.113931 -0.00617847 0)
(0.113569 -0.00662219 0)
(0.113188 -0.00704059 0)
(0.112789 -0.00743278 0)
(0.112376 -0.00779804 0)
(0.11195 -0.00813581 0)
(0.111513 -0.00844568 0)
(0.115191 0.00291633 0)
(0.115333 0.00233906 0)
(0.115429 0.0017562 0)
(0.115498 0.00116904 0)
(0.115535 0.000579509 0)
(0.115536 -9.77254e-06 0)
(0.115502 -0.000596248 0)
(0.115435 -0.00117754 0)
(0.115335 -0.00175136 0)
(0.115203 -0.00231556 0)
(0.11504 -0.00286807 0)
(0.114848 -0.00340696 0)
(0.114627 -0.00393045 0)
(0.11438 -0.00443685 0)
(0.114107 -0.00492465 0)
(0.113811 -0.00539245 0)
(0.113493 -0.00583899 0)
(0.113155 -0.00626315 0)
(0.112798 -0.00666394 0)
(0.112426 -0.0070405 0)
(0.112039 -0.00739213 0)
(0.111639 -0.00771826 0)
(0.111229 -0.00801849 0)
(0.114637 0.00276459 0)
(0.11477 0.00222042 0)
(0.114861 0.0016709 0)
(0.114927 0.0011172 0)
(0.114963 0.000561107 0)
(0.114965 5.02045e-06 0)
(0.114936 -0.000548706 0)
(0.114875 -0.00109787 0)
(0.114784 -0.00164038 0)
(0.114662 -0.00217421 0)
(0.114512 -0.00269745 0)
(0.114334 -0.0032083 0)
(0.114129 -0.00370508 0)
(0.113899 -0.00418624 0)
(0.113645 -0.00465033 0)
(0.113369 -0.00509605 0)
(0.113072 -0.00552221 0)
(0.112756 -0.00592773 0)
(0.112423 -0.00631168 0)
(0.112074 -0.00667323 0)
(0.111712 -0.00701169 0)
(0.111337 -0.0073265 0)
(0.110952 -0.00761727 0)
(0.114113 0.0026222 0)
(0.114239 0.00210871 0)
(0.114325 0.0015901 0)
(0.114388 0.00106748 0)
(0.114423 0.000542475 0)
(0.114426 1.72907e-05 0)
(0.1144 -0.000505909 0)
(0.114345 -0.0010251 0)
(0.114261 -0.00153832 0)
(0.114149 -0.00204371 0)
(0.11401 -0.0025395 0)
(0.113844 -0.00302401 0)
(0.113654 -0.00349567 0)
(0.11344 -0.00395302 0)
(0.113204 -0.00439472 0)
(0.112946 -0.00481953 0)
(0.112669 -0.00522633 0)
(0.112374 -0.00561411 0)
(0.112062 -0.00598197 0)
(0.111735 -0.00632912 0)
(0.111395 -0.00665489 0)
(0.111044 -0.00695874 0)
(0.110682 -0.00724025 0)
(0.113619 0.00248856 0)
(0.113737 0.00200353 0)
(0.113819 0.00151366 0)
(0.113879 0.00101993 0)
(0.113912 0.000523852 0)
(0.113917 2.74578e-05 0)
(0.113893 -0.000467265 0)
(0.113843 -0.000958446 0)
(0.113766 -0.00144428 0)
(0.113662 -0.00192304 0)
(0.113533 -0.00239308 0)
(0.11338 -0.00285284 0)
(0.113203 -0.00330085 0)
(0.113004 -0.00373576 0)
(0.112783 -0.0041563 0)
(0.112543 -0.00456132 0)
(0.112283 -0.00494975 0)
(0.112007 -0.00532064 0)
(0.111715 -0.00567315 0)
(0.111409 -0.0060065 0)
(0.11109 -0.00632006 0)
(0.11076 -0.0066133 0)
(0.11042 -0.00688579 0)
(0.113152 0.0023631 0)
(0.113262 0.00190453 0)
(0.11334 0.00144137 0)
(0.113397 0.000974529 0)
(0.113429 0.000505409 0)
(0.113434 3.58633e-05 0)
(0.113414 -0.000432276 0)
(0.113367 -0.000897283 0)
(0.113296 -0.00135749 0)
(0.1132 -0.0018113 0)
(0.113081 -0.00225717 0)
(0.112938 -0.00269367 0)
(0.112773 -0.00311942 0)
(0.112588 -0.00353316 0)
(0.112382 -0.00393372 0)
(0.112157 -0.00431999 0)
(0.111915 -0.004691 0)
(0.111656 -0.00504584 0)
(0.111382 -0.00538369 0)
(0.111095 -0.00570384 0)
(0.110796 -0.00600566 0)
(0.110485 -0.00628863 0)
(0.110166 -0.00655234 0)
(0.112709 0.00224526 0)
(0.112813 0.00181132 0)
(0.112887 0.00137303 0)
(0.112941 0.000931258 0)
(0.112972 0.000487272 0)
(0.112978 4.27846e-05 0)
(0.112959 -0.00040052 0)
(0.112917 -0.000841048 0)
(0.112851 -0.00127726 0)
(0.112762 -0.00170767 0)
(0.112651 -0.00213086 0)
(0.112519 -0.00254549 0)
(0.112365 -0.00295028 0)
(0.112192 -0.00334407 0)
(0.111999 -0.00372574 0)
(0.111789 -0.00409428 0)
(0.111562 -0.00444875 0)
(0.11132 -0.00478831 0)
(0.111063 -0.00511219 0)
(0.110794 -0.0054197 0)
(0.110512 -0.00571024 0)
(0.11022 -0.00598331 0)
(0.10992 -0.00623849 0)
(0.112291 0.00213453 0)
(0.112388 0.00172354 0)
(0.112458 0.00130845 0)
(0.112509 0.000890055 0)
(0.112539 0.00046953 0)
(0.112545 4.84485e-05 0)
(0.112529 -0.000371636 0)
(0.11249 -0.000789255 0)
(0.112429 -0.00120298 0)
(0.112347 -0.00161145 0)
(0.112243 -0.00201334 0)
(0.11212 -0.0024074 0)
(0.111976 -0.00279246 0)
(0.111814 -0.00316742 0)
(0.111635 -0.00353124 0)
(0.111438 -0.00388299 0)
(0.111225 -0.00422178 0)
(0.110998 -0.00454681 0)
(0.110757 -0.00485737 0)
(0.110504 -0.00515279 0)
(0.11024 -0.0054325 0)
(0.109965 -0.00569601 0)
(0.109682 -0.00594292 0)
(0.111894 0.00203042 0)
(0.111985 0.00164085 0)
(0.112052 0.00124742 0)
(0.1121 0.000850846 0)
(0.112128 0.000452241 0)
(0.112135 5.30435e-05 0)
(0.11212 -0.000345317 0)
(0.112085 -0.000741482 0)
(0.112028 -0.00113414 0)
(0.111952 -0.00152201 0)
(0.111856 -0.00190388 0)
(0.11174 -0.0022786 0)
(0.111607 -0.00264506 0)
(0.111455 -0.00300226 0)
(0.111287 -0.00334922 0)
(0.111103 -0.00368506 0)
(0.110904 -0.00400897 0)
(0.11069 -0.00432019 0)
(0.110464 -0.00461804 0)
(0.110226 -0.00490191 0)
(0.109977 -0.00517122 0)
(0.109719 -0.00542552 0)
(0.109452 -0.0056644 0)
(0.111517 0.00193248 0)
(0.111603 0.00156292 0)
(0.111667 0.00118971 0)
(0.111713 0.00081355 0)
(0.111739 0.000435442 0)
(0.111746 5.67197e-05 0)
(0.111733 -0.000321299 0)
(0.1117 -0.00069736 0)
(0.111648 -0.00107025 0)
(0.111577 -0.00143879 0)
(0.111487 -0.00180184 0)
(0.11138 -0.00215835 0)
(0.111255 -0.0025073 0)
(0.111113 -0.00284772 0)
(0.110956 -0.00317874 0)
(0.110783 -0.00349953 0)
(0.110596 -0.00380932 0)
(0.110396 -0.0041074 0)
(0.110183 -0.00439314 0)
(0.109959 -0.00466595 0)
(0.109725 -0.00492529 0)
(0.109482 -0.00517071 0)
(0.10923 -0.00540181 0)
(0.11116 0.00184029 0)
(0.111241 0.00148943 0)
(0.111301 0.00113515 0)
(0.111345 0.000778077 0)
(0.11137 0.000419153 0)
(0.111377 5.96039e-05 0)
(0.111365 -0.000299354 0)
(0.111335 -0.000656564 0)
(0.111287 -0.0010109 0)
(0.111221 -0.00136127 0)
(0.111137 -0.00170664 0)
(0.111036 -0.00204601 0)
(0.11092 -0.00237843 0)
(0.110787 -0.00270303 0)
(0.110639 -0.00301898 0)
(0.110477 -0.0033255 0)
(0.110302 -0.00362189 0)
(0.110114 -0.00390748 0)
(0.109914 -0.00418167 0)
(0.109704 -0.0044439 0)
(0.109483 -0.00469367 0)
(0.109254 -0.00493053 0)
(0.109016 -0.00515409 0)
(0.11082 0.00175344 0)
(0.110897 0.0014201 0)
(0.110954 0.00108353 0)
(0.110995 0.000744338 0)
(0.11102 0.000403385 0)
(0.111027 6.18032e-05 0)
(0.111016 -0.000279284 0)
(0.110988 -0.000618806 0)
(0.110943 -0.000955722 0)
(0.110882 -0.00128903 0)
(0.110804 -0.00161775 0)
(0.11071 -0.00194097 0)
(0.1106 -0.00225781 0)
(0.110476 -0.00256747 0)
(0.110338 -0.00286916 0)
(0.110186 -0.00316217 0)
(0.110021 -0.00344584 0)
(0.109844 -0.00371954 0)
(0.109656 -0.00398272 0)
(0.109458 -0.00423484 0)
(0.10925 -0.00447541 0)
(0.109034 -0.00470402 0)
(0.10881 -0.00492028 0)
(0.110498 0.00167157 0)
(0.11057 0.00135464 0)
(0.110624 0.00103468 0)
(0.110663 0.000712244 0)
(0.110687 0.000388136 0)
(0.110694 6.34044e-05 0)
(0.110684 -0.000260915 0)
(0.110658 -0.000583831 0)
(0.110617 -0.000904382 0)
(0.110559 -0.00122163 0)
(0.110487 -0.00153469 0)
(0.110399 -0.0018427 0)
(0.110296 -0.00214485 0)
(0.11018 -0.00244038 0)
(0.11005 -0.00272859 0)
(0.109907 -0.00300879 0)
(0.109753 -0.00328038 0)
(0.109586 -0.00354278 0)
(0.109409 -0.00379545 0)
(0.109223 -0.00403789 0)
(0.109027 -0.00426964 0)
(0.108823 -0.00449029 0)
(0.108611 -0.00469947 0)
(0.110191 0.00159434 0)
(0.110259 0.00129281 0)
(0.110311 0.000988427 0)
(0.110348 0.000681705 0)
(0.11037 0.000373401 0)
(0.110377 6.44805e-05 0)
(0.110369 -0.000244097 0)
(0.110345 -0.000551415 0)
(0.110306 -0.000856581 0)
(0.110253 -0.00115873 0)
(0.110184 -0.00145704 0)
(0.110102 -0.00175071 0)
(0.110006 -0.00203899 0)
(0.109897 -0.00232118 0)
(0.109775 -0.00259662 0)
(0.109641 -0.00286469 0)
(0.109496 -0.00312481 0)
(0.109339 -0.00337644 0)
(0.109173 -0.00361908 0)
(0.108997 -0.00385226 0)
(0.108812 -0.00407554 0)
(0.10862 -0.00428852 0)
(0.10842 -0.00449084 0)
(0.109899 0.00152145 0)
(0.109963 0.00123438 0)
(0.110012 0.000944608 0)
(0.110048 0.000652635 0)
(0.110069 0.000359165 0)
(0.110076 6.50914e-05 0)
(0.110068 -0.000228698 0)
(0.110046 -0.000521355 0)
(0.11001 -0.000812052 0)
(0.10996 -0.00109999 0)
(0.109897 -0.0013844 0)
(0.10982 -0.00166455 0)
(0.10973 -0.00193974 0)
(0.109627 -0.00220932 0)
(0.109513 -0.00247268 0)
(0.109387 -0.00272924 0)
(0.10925 -0.00297846 0)
(0.109103 -0.00321984 0)
(0.108946 -0.00345291 0)
(0.10878 -0.00367722 0)
(0.108606 -0.00389235 0)
(0.108424 -0.00409793 0)
(0.108235 -0.0042936 0)
(0.109621 0.00145259 0)
(0.109682 0.00117911 0)
(0.109728 0.000903066 0)
(0.109762 0.000624943 0)
(0.109782 0.000345406 0)
(0.109789 6.52835e-05 0)
(0.109782 -0.000214605 0)
(0.109762 -0.000493472 0)
(0.109729 -0.000770553 0)
(0.109682 -0.00104511 0)
(0.109622 -0.00131642 0)
(0.10955 -0.00158381 0)
(0.109466 -0.00184664 0)
(0.10937 -0.00210429 0)
(0.109262 -0.00235621 0)
(0.109144 -0.00260185 0)
(0.109015 -0.00284072 0)
(0.108877 -0.00307233 0)
(0.108729 -0.00329626 0)
(0.108572 -0.00351208 0)
(0.108408 -0.00371939 0)
(0.108236 -0.00391782 0)
(0.108057 -0.00410704 0)
(0.109356 0.0013874 0)
(0.109413 0.00112677 0)
(0.109458 0.000863643 0)
(0.10949 0.000598532 0)
(0.109509 0.000332096 0)
(0.109516 6.50952e-05 0)
(0.10951 -0.000201715 0)
(0.109491 -0.000467604 0)
(0.10946 -0.000731863 0)
(0.109417 -0.000993803 0)
(0.109361 -0.00125276 0)
(0.109293 -0.00150812 0)
(0.109214 -0.00175926 0)
(0.109124 -0.00200564 0)
(0.109023 -0.00224672 0)
(0.108911 -0.002482 0)
(0.10879 -0.00271102 0)
(0.10866 -0.00293333 0)
(0.10852 -0.00314853 0)
(0.108372 -0.0033562 0)
(0.108217 -0.00355598 0)
(0.108055 -0.00374752 0)
(0.107886 -0.00393047 0)
(0.114835 0.00754315 1.88563e-24)
(0.115275 0.00703748 -1.89011e-24)
(0.114352 0.00714253 -1.75595e-24)
(0.114762 0.00666215 6.17594e-23)
(0.115167 0.00617094 -3.77893e-24)
(0.115567 0.00566983 0)
(0.11596 0.00515879 1.32372e-22)
(0.116346 0.00463402 -3.0256e-22)
(0.116753 0.0040784 -4.86182e-24)
(0.113894 0.00676856 1.63478e-24)
(0.114276 0.00631177 -1.06806e-22)
(0.114652 0.00584456 -1.11989e-22)
(0.115023 0.00536782 2.21948e-25)
(0.115386 0.00488159 -2.68373e-22)
(0.115742 0.0043828 2.75048e-22)
(0.116115 0.00385685 2.81187e-22)
(0.113458 0.00641907 -1.28314e-23)
(0.113814 0.00598439 5.39564e-23)
(0.114164 0.00553962 2.13337e-22)
(0.114508 0.00508566 1.15096e-22)
(0.114844 0.00462262 1.27445e-22)
(0.115172 0.004148 -5.17834e-22)
(0.115514 0.00364942 -5.54996e-22)
(0.113044 0.00609217 1.27426e-23)
(0.113375 0.00567822 1.62319e-24)
(0.113701 0.0052545 -1.07654e-22)
(0.11402 0.00482186 -2.19006e-22)
(0.114331 0.00438051 -1.91917e-25)
(0.114634 0.00392844 1.37956e-22)
(0.114948 0.00345521 2.65131e-22)
(0.112649 0.00578612 8.44175e-24)
(0.112958 0.00539162 4.14689e-24)
(0.113262 0.00498765 -4.81069e-23)
(0.113558 0.00457503 2.00696e-22)
(0.113845 0.00415403 0)
(0.114125 0.00372306 1.20636e-22)
(0.114413 0.00327339 -3.63724e-24)
(0.112273 0.00549929 -1.76002e-23)
(0.112562 0.0051231 -1.22322e-24)
(0.112844 0.00473769 4.24938e-23)
(0.113119 0.00434388 -1.8697e-22)
(0.113386 0.003942 9.56269e-23)
(0.113644 0.00353083 1.08041e-22)
(0.113907 0.00310311 -3.38229e-24)
(0.111914 0.00523025 9.0637e-24)
(0.112184 0.00487128 0)
(0.112448 0.00450335 0)
(0.112703 0.00412725 9.0047e-23)
(0.11295 0.00374337 -9.87142e-23)
(0.113188 0.0033508 -1.92731e-22)
(0.113429 0.00294358 -9.94844e-23)
(0.111572 0.00497766 1.05072e-24)
(0.111825 0.00463491 1.8065e-23)
(0.11207 0.00428346 1.63067e-25)
(0.112308 0.00392406 1.58424e-25)
(0.112537 0.00355714 8.02239e-23)
(0.112756 0.00318208 1.84882e-22)
(0.112977 0.00279404 1.88776e-22)
(0.111245 0.00474031 -9.7239e-25)
(0.111482 0.00441288 -1.58955e-23)
(0.111711 0.00407697 0)
(0.111932 0.00373332 -3.61008e-23)
(0.112144 0.00338241 -8.27875e-23)
(0.112347 0.00302386 -3.39602e-24)
(0.112549 0.00265378 -1.80841e-22)
(0.110933 0.0045171 0)
(0.111155 0.00420412 -1.2462e-23)
(0.111369 0.00388289 -3.1035e-23)
(0.111575 0.00355413 3.17696e-23)
(0.111771 0.00321835 4.62614e-24)
(0.111958 0.00287537 -8.12485e-23)
(0.112143 0.00252214 8.31582e-23)
(0.110635 0.00430701 -8.28448e-25)
(0.110843 0.00400768 1.70621e-23)
(0.111043 0.00370034 2.9409e-23)
(0.111234 0.00338566 2.07989e-24)
(0.111416 0.00306419 -2.07959e-24)
(0.111589 0.00273592 -7.01506e-23)
(0.111758 0.00239851 0)
(0.11035 0.00410911 3.54483e-24)
(0.110545 0.0038227 -7.62076e-25)
(0.110732 0.00352849 -1.79752e-24)
(0.11091 0.00322715 2.85266e-23)
(0.111079 0.00291922 -1.24737e-25)
(0.111238 0.00260485 1.06748e-22)
(0.111392 0.00228232 6.63645e-23)
(0.110077 0.00392254 -3.48639e-24)
(0.11026 0.00364836 2.23092e-24)
(0.110435 0.00336659 1.28867e-25)
(0.110601 0.00307788 -5.85497e-23)
(0.110758 0.00278279 1.77818e-24)
(0.110904 0.00248158 -6.04874e-23)
(0.111045 0.00217304 -7.03541e-23)
(0.109816 0.00374652 6.39911e-25)
(0.109988 0.00348393 7.67391e-25)
(0.110151 0.00321394 -1.11289e-23)
(0.110306 0.00293721 2.65725e-23)
(0.110451 0.00265429 -1.64001e-24)
(0.110587 0.00236554 3.18635e-23)
(0.110715 0.00207019 -3.11579e-23)
(0.109566 0.00358032 -5.83371e-25)
(0.109727 0.00332871 5.82883e-25)
(0.109881 0.00306992 2.01644e-23)
(0.110025 0.00280455 -1.13488e-25)
(0.110159 0.00253317 1.35267e-23)
(0.110284 0.00225624 -2.73e-23)
(0.110401 0.00197332 3.09388e-23)
(0.109326 0.00342327 -5.29624e-25)
(0.109478 0.00318209 3.83516e-24)
(0.109622 0.00293392 -1.02024e-23)
(0.109756 0.00267935 -1.28287e-24)
(0.109881 0.00241894 -2.30474e-23)
(0.109996 0.0021532 2.71291e-23)
(0.110102 0.00188201 -1.57201e-24)
(0.109096 0.00327478 9.03959e-25)
(0.10924 0.0030435 3.8417e-25)
(0.109374 0.00280543 4.3863e-24)
(0.109499 0.00256112 1.04196e-25)
(0.109615 0.00231114 1.11298e-23)
(0.109721 0.00205602 -1.35972e-24)
(0.109817 0.0017959 -1.14454e-23)
(0.108876 0.00313428 -4.26141e-25)
(0.109011 0.00291244 -1.06273e-24)
(0.109137 0.00268398 -5.35044e-24)
(0.109254 0.00244944 1.06441e-24)
(0.109361 0.00220937 2.30632e-24)
(0.109458 0.00196432 6.27602e-24)
(0.109546 0.00171461 1.00913e-23)
(0.108666 0.00300127 3.83572e-25)
(0.108792 0.0027884 -1.25023e-24)
(0.10891 0.00256909 9.68451e-25)
(0.109019 0.00234384 -2.02283e-24)
(0.109118 0.00211316 -1.25219e-24)
(0.109208 0.00187762 -3.71125e-24)
(0.109287 0.00163765 -1.20914e-24)
(0.113942 0.00851686 5.01278e-23)
(0.11439 0.00803659 1.62039e-24)
(0.11141 0.010134 -1.78816e-24)
(0.111839 0.00974977 1.31487e-22)
(0.112255 0.00935104 -6.8042e-23)
(0.112676 0.00893768 0)
(0.113099 0.00850949 -2.77096e-24)
(0.11352 0.00806706 4.26893e-24)
(0.113938 0.00761109 -1.50569e-24)
(0.111138 0.00960698 -9.23835e-23)
(0.111541 0.00924332 -1.05148e-22)
(0.111932 0.00886552 6.38976e-23)
(0.112327 0.00847352 -2.48052e-25)
(0.112723 0.00806718 7.50052e-23)
(0.113117 0.00764704 4.24603e-23)
(0.113507 0.00721393 1.39826e-24)
(0.110874 0.00911426 1.70908e-22)
(0.111253 0.00876979 2.05167e-22)
(0.11162 0.00841159 0)
(0.111992 0.00803958 -6.03165e-23)
(0.112363 0.0076537 -1.46982e-22)
(0.112732 0.00725451 -7.83219e-23)
(0.113097 0.00684271 9.14031e-24)
(0.110616 0.00865314 -8.16527e-23)
(0.110973 0.00832662 -5.14107e-23)
(0.11132 0.00798675 2.23291e-25)
(0.111669 0.00763349 1.18109e-22)
(0.112019 0.0072668 6.73864e-23)
(0.112365 0.00688722 3.9301e-23)
(0.112706 0.00649544 -9.25111e-24)
(0.110366 0.00822117 -1.20088e-24)
(0.110703 0.00791146 -4.27621e-23)
(0.11103 0.00758878 0)
(0.11136 0.00725309 -1.09971e-22)
(0.111688 0.00690441 2.749e-23)
(0.112013 0.00654324 3.13793e-24)
(0.112333 0.00617024 -1.00849e-23)
(0.110123 0.00781615 -1.07441e-24)
(0.110442 0.00752217 -3.33363e-23)
(0.110751 0.00721561 -4.16505e-23)
(0.111062 0.00689642 1.00842e-22)
(0.111371 0.00656464 -3.12128e-23)
(0.111677 0.00622077 -1.03109e-24)
(0.111977 0.00586543 1.83166e-23)
(0.109887 0.00743604 2.54838e-23)
(0.110189 0.00715682 6.86287e-23)
(0.110482 0.00686537 4.06915e-23)
(0.110776 0.00656168 -9.18273e-23)
(0.111068 0.00624579 0)
(0.111355 0.00591818 0)
(0.111637 0.00557946 -8.31443e-24)
(0.109659 0.00707899 -4.83909e-23)
(0.109944 0.00681362 -5.92111e-23)
(0.110223 0.00653637 -3.51928e-23)
(0.110501 0.00624724 4.35962e-23)
(0.110776 0.0059463 -1.83281e-25)
(0.111047 0.005634 -1.20684e-23)
(0.111312 0.00531092 8.76699e-25)
(0.109437 0.00674332 2.13379e-23)
(0.109708 0.00649095 4.11249e-24)
(0.109973 0.00622705 3.3967e-23)
(0.110236 0.00595162 1.79442e-23)
(0.110496 0.00566474 0)
(0.110752 0.00536687 1.35897e-23)
(0.111002 0.00505853 -8.06261e-25)
(0.109222 0.00642749 -1.65907e-23)
(0.10948 0.00618733 2.46069e-23)
(0.109732 0.00593598 1.78617e-24)
(0.109981 0.00567345 -2.00769e-23)
(0.110228 0.00539983 1.86068e-23)
(0.110469 0.00511555 1.20008e-23)
(0.110704 0.00482112 0)
(0.109014 0.00613008 2.80323e-24)
(0.10926 0.0059014 1.85112e-23)
(0.109499 0.00566187 -8.70785e-25)
(0.109736 0.00541149 8.71015e-25)
(0.10997 0.00515038 -1.9988e-23)
(0.110198 0.00487893 -8.82879e-24)
(0.11042 0.00459763 -6.76499e-25)
(0.108813 0.00584979 2.21275e-24)
(0.109047 0.00563192 -2.52294e-23)
(0.109275 0.00540352 1.57711e-25)
(0.109501 0.0051646 -1.26193e-23)
(0.109722 0.00491533 -9.26831e-25)
(0.109938 0.00465597 -6.16467e-25)
(0.110147 0.00438706 -1.88086e-24)
(0.108618 0.00558543 1.00219e-23)
(0.108841 0.00537774 1.45758e-23)
(0.109059 0.00515983 6.71815e-25)
(0.109274 0.0049317 2.25049e-23)
(0.109484 0.00469358 -1.48354e-25)
(0.109688 0.00444568 5.51045e-24)
(0.109886 0.0041885 1.94158e-24)
(0.108429 0.00533591 2.43341e-24)
(0.108643 0.00513782 -6.13064e-24)
(0.108851 0.00492984 -5.79625e-25)
(0.109056 0.00471204 -1.137e-23)
(0.109255 0.0044843 5.87433e-24)
(0.109449 0.00424719 -3.61626e-24)
(0.109636 0.00400112 5.05866e-25)
(0.108246 0.00510022 -2.50289e-24)
(0.108451 0.00491119 3.6647e-24)
(0.10865 0.00471259 -2.56753e-24)
(0.108845 0.0045044 1.39623e-25)
(0.109035 0.0042866 -1.19354e-23)
(0.109219 0.00405972 4.54167e-25)
(0.109396 0.00382416 4.70074e-25)
(0.108069 0.00487746 -1.33058e-25)
(0.108266 0.00469693 -3.73225e-24)
(0.108457 0.0045071 5.49115e-24)
(0.108643 0.00430789 -5.46062e-25)
(0.108824 0.00409962 5.14943e-24)
(0.108998 0.0038825 -3.15289e-25)
(0.109166 0.0036569 -1.33181e-24)
(0.107898 0.00466665 -2.80244e-25)
(0.108087 0.00449416 -1.98033e-25)
(0.10827 0.00431264 -3.47854e-24)
(0.108448 0.00412214 -1.29819e-25)
(0.10862 0.00392278 -2.07611e-24)
(0.108786 0.00371486 4.13338e-25)
(0.108945 0.00349872 -7.74151e-27)
(0.107733 0.00446702 2.81031e-25)
(0.107914 0.00430218 -1.25904e-25)
(0.10809 0.00412857 9.15791e-25)
(0.10826 0.00394625 3.8239e-25)
(0.108425 0.00375534 7.52714e-25)
(0.108583 0.00355614 6.98606e-25)
(0.108733 0.00334899 3.67506e-25)
(0.107574 0.00427797 6.37962e-26)
(0.107748 0.0041204 5.98473e-26)
(0.107917 0.00395427 1.8368e-25)
(0.10808 0.00377966 -4.91071e-25)
(0.108237 0.00359677 1.12249e-24)
(0.108387 0.00340584 2.56621e-25)
(0.10853 0.00320722 2.72597e-25)
(0.0992741 0.00677693 0)
(0.099378 0.00697869 0)
(0.0994921 0.0071845 0)
(0.0996172 0.00739404 0)
(0.0997539 0.00760693 0)
(0.0999029 0.00782273 0)
(0.100065 0.00804097 0)
(0.100241 0.00826108 0)
(0.100431 0.00848242 0)
(0.100637 0.00870425 0)
(0.100859 0.00892576 0)
(0.101097 0.00914602 0)
(0.101353 0.009364 0)
(0.101627 0.00957858 0)
(0.101919 0.00978849 0)
(0.102231 0.0099924 0)
(0.102562 0.0101888 0)
(0.102913 0.0103762 0)
(0.103285 0.0105528 0)
(0.103677 0.0107169 0)
(0.104089 0.0108665 0)
(0.104521 0.0109997 0)
(0.104973 0.0111145 0)
(0.105444 0.0112086 0)
(0.105933 0.0112801 0)
(0.106439 0.0113267 0)
(0.106961 0.0113462 0)
(0.107498 0.0113367 0)
(0.108047 0.011296 0)
(0.108606 0.0112221 0)
(0.109174 0.0111131 0)
(0.109746 0.0109658 0)
(0.110321 0.0107741 0)
(0.110906 0.0105176 0)
(0.0994687 0.00667577 0)
(0.0995763 0.0068677 0)
(0.099694 0.00706306 0)
(0.0998222 0.0072615 0)
(0.0999617 0.00746261 0)
(0.100113 0.00766596 0)
(0.100277 0.00787105 0)
(0.100454 0.00807732 0)
(0.100645 0.00828412 0)
(0.10085 0.00849074 0)
(0.101071 0.00869635 0)
(0.101307 0.00890007 0)
(0.10156 0.00910089 0)
(0.10183 0.00929774 0)
(0.102117 0.00948944 0)
(0.102421 0.00967468 0)
(0.102744 0.0098521 0)
(0.103086 0.0100202 0)
(0.103445 0.0101775 0)
(0.103824 0.0103222 0)
(0.104221 0.0104526 0)
(0.104635 0.0105669 0)
(0.105068 0.0106633 0)
(0.105518 0.0107399 0)
(0.105984 0.0107947 0)
(0.106465 0.0108258 0)
(0.10696 0.0108313 0)
(0.107467 0.0108094 0)
(0.107985 0.0107582 0)
(0.108512 0.0106761 0)
(0.109045 0.0105612 0)
(0.109582 0.0104109 0)
(0.11012 0.0102198 0)
(0.110667 0.00996981 0)
(0.0996538 0.00657101 0)
(0.0997647 0.00675338 0)
(0.0998852 0.0069386 0)
(0.100016 0.0071263 0)
(0.100158 0.00731607 0)
(0.100311 0.00750746 0)
(0.100476 0.00769997 0)
(0.100653 0.00789304 0)
(0.100844 0.00808602 0)
(0.101049 0.00827822 0)
(0.101268 0.00846883 0)
(0.101501 0.00865699 0)
(0.10175 0.00884175 0)
(0.102015 0.00902206 0)
(0.102296 0.0091968 0)
(0.102594 0.00936477 0)
(0.102908 0.00952465 0)
(0.103239 0.00967508 0)
(0.103587 0.0098146 0)
(0.103952 0.00994167 0)
(0.104334 0.0100547 0)
(0.104732 0.0101521 0)
(0.105147 0.010232 0)
(0.105576 0.0102929 0)
(0.10602 0.010333 0)
(0.106477 0.0103505 0)
(0.106946 0.0103438 0)
(0.107426 0.0103112 0)
(0.107915 0.0102512 0)
(0.108411 0.0101623 0)
(0.108913 0.0100429 0)
(0.109416 0.00989066 0)
(0.109921 0.00970085 0)
(0.110433 0.00945761 0)
(0.0998298 0.00646322 0)
(0.0999433 0.00663631 0)
(0.100066 0.00681172 0)
(0.100199 0.00698906 0)
(0.100342 0.00716792 0)
(0.100496 0.00734785 0)
(0.100662 0.00752834 0)
(0.10084 0.00770884 0)
(0.10103 0.00788872 0)
(0.101233 0.00806728 0)
(0.101449 0.00824375 0)
(0.10168 0.00841731 0)
(0.101925 0.00858703 0)
(0.102185 0.00875192 0)
(0.102459 0.00891093 0)
(0.102749 0.0090629 0)
(0.103055 0.00920663 0)
(0.103376 0.00934084 0)
(0.103712 0.00946416 0)
(0.104064 0.0095752 0)
(0.104432 0.00967249 0)
(0.104814 0.00975453 0)
(0.10521 0.00981978 0)
(0.10562 0.0098667 0)
(0.106042 0.00989373 0)
(0.106477 0.00989935 0)
(0.106922 0.00988206 0)
(0.107376 0.00984041 0)
(0.107838 0.00977303 0)
(0.108305 0.00967859 0)
(0.108777 0.00955572 0)
(0.10925 0.00940249 0)
(0.109723 0.00921463 0)
(0.110203 0.00897823 0)
(0.0999969 0.00635291 0)
(0.100113 0.00651702 0)
(0.100237 0.00668295 0)
(0.100371 0.00685033 0)
(0.100516 0.00701872 0)
(0.10067 0.00718769 0)
(0.100836 0.00735672 0)
(0.101013 0.00752528 0)
(0.101202 0.00769274 0)
(0.101403 0.00785842 0)
(0.101617 0.0080216 0)
(0.101844 0.00818145 0)
(0.102085 0.00833712 0)
(0.102339 0.00848766 0)
(0.102607 0.00863207 0)
(0.10289 0.00876927 0)
(0.103186 0.00889813 0)
(0.103497 0.00901745 0)
(0.103822 0.00912599 0)
(0.104161 0.00922246 0)
(0.104514 0.0093055 0)
(0.10488 0.00937376 0)
(0.10526 0.00942585 0)
(0.105651 0.00946035 0)
(0.106053 0.0094759 0)
(0.106466 0.00947111 0)
(0.106888 0.00944465 0)
(0.107318 0.00939526 0)
(0.107754 0.00932173 0)
(0.108195 0.00922289 0)
(0.108639 0.00909756 0)
(0.109084 0.00894405 0)
(0.109529 0.00875865 0)
(0.109977 0.00852914 0)
(0.100155 0.00624057 0)
(0.100273 0.00639599 0)
(0.100399 0.0065528 0)
(0.100534 0.0067106 0)
(0.100679 0.00686897 0)
(0.100834 0.00702747 0)
(0.100999 0.0071856 0)
(0.101175 0.00734282 0)
(0.101362 0.00749853 0)
(0.101561 0.00765208 0)
(0.101772 0.00780275 0)
(0.101995 0.00794978 0)
(0.102231 0.00809233 0)
(0.102479 0.00822952 0)
(0.102741 0.00836039 0)
(0.103015 0.00848395 0)
(0.103303 0.00859913 0)
(0.103604 0.00870482 0)
(0.103918 0.00879988 0)
(0.104244 0.00888311 0)
(0.104583 0.00895328 0)
(0.104934 0.00900916 0)
(0.105297 0.00904947 0)
(0.10567 0.00907295 0)
(0.106054 0.00907837 0)
(0.106446 0.0090645 0)
(0.106847 0.00903015 0)
(0.107254 0.0089742 0)
(0.107666 0.00889559 0)
(0.108082 0.00879332 0)
(0.108501 0.00866634 0)
(0.108919 0.0085132 0)
(0.109337 0.00833067 0)
(0.109758 0.00810805 0)
(0.100306 0.00612663 0)
(0.100424 0.00627367 0)
(0.100551 0.0064217 0)
(0.100687 0.00657033 0)
(0.100832 0.00671912 0)
(0.100986 0.00686764 0)
(0.101151 0.0070154 0)
(0.101325 0.00716188 0)
(0.101511 0.00730649 0)
(0.101707 0.00744861 0)
(0.101914 0.00758755 0)
(0.102133 0.00772257 0)
(0.102364 0.00785289 0)
(0.102607 0.00797767 0)
(0.102861 0.00809601 0)
(0.103128 0.00820698 0)
(0.103407 0.00830959 0)
(0.103698 0.00840281 0)
(0.104001 0.00848557 0)
(0.104315 0.00855679 0)
(0.104641 0.00861534 0)
(0.104977 0.00866008 0)
(0.105324 0.00868988 0)
(0.10568 0.0087036 0)
(0.106045 0.00870011 0)
(0.106418 0.00867833 0)
(0.106798 0.0086372 0)
(0.107184 0.00857573 0)
(0.107574 0.008493 0)
(0.107967 0.00838812 0)
(0.108362 0.0082602 0)
(0.108756 0.00810796 0)
(0.109148 0.00792862 0)
(0.109543 0.00771286 0)
(0.100448 0.00601148 0)
(0.100567 0.00615046 0)
(0.100695 0.00629007 0)
(0.100831 0.00642991 0)
(0.100975 0.00656955 0)
(0.101129 0.00670857 0)
(0.101292 0.0068465 0)
(0.101465 0.00698281 0)
(0.101648 0.00711695 0)
(0.101842 0.00724832 0)
(0.102045 0.00737625 0)
(0.10226 0.00750006 0)
(0.102486 0.00761898 0)
(0.102722 0.00773224 0)
(0.10297 0.00783899 0)
(0.103229 0.00793835 0)
(0.103499 0.00802941 0)
(0.10378 0.00811122 0)
(0.104072 0.00818279 0)
(0.104374 0.00824311 0)
(0.104687 0.00829117 0)
(0.105009 0.00832593 0)
(0.105341 0.00834635 0)
(0.105681 0.00835142 0)
(0.106029 0.00834011 0)
(0.106384 0.00831147 0)
(0.106744 0.00826455 0)
(0.10711 0.00819848 0)
(0.107479 0.00811245 0)
(0.10785 0.00800568 0)
(0.108223 0.0078774 0)
(0.108594 0.00772652 0)
(0.108963 0.00755063 0)
(0.109334 0.00734165 0)
(0.100582 0.0058955 0)
(0.100702 0.00602673 0)
(0.10083 0.00615827 0)
(0.100966 0.0062897 0)
(0.10111 0.00642063 0)
(0.101263 0.00655062 0)
(0.101424 0.00667922 0)
(0.101595 0.00680592 0)
(0.101776 0.0069302 0)
(0.101966 0.00705146 0)
(0.102166 0.00716909 0)
(0.102376 0.00728242 0)
(0.102596 0.00739074 0)
(0.102826 0.0074933 0)
(0.103067 0.00758933 0)
(0.103318 0.00767801 0)
(0.10358 0.00775847 0)
(0.103851 0.00782984 0)
(0.104132 0.00789122 0)
(0.104423 0.00794168 0)
(0.104723 0.00798028 0)
(0.105032 0.00800609 0)
(0.105349 0.00801816 0)
(0.105674 0.00801558 0)
(0.106006 0.00799743 0)
(0.106343 0.00796286 0)
(0.106686 0.00791102 0)
(0.107032 0.00784115 0)
(0.107381 0.00775253 0)
(0.107733 0.00764449 0)
(0.108084 0.00751636 0)
(0.108434 0.00736721 0)
(0.108782 0.00719496 0)
(0.10913 0.00699267 0)
(0.100709 0.00577901 0)
(0.100829 0.00590281 0)
(0.100957 0.00602662 0)
(0.101092 0.00615003 0)
(0.101236 0.00627266 0)
(0.101387 0.00639407 0)
(0.101547 0.00651384 0)
(0.101716 0.00663148 0)
(0.101893 0.00674646 0)
(0.10208 0.00685824 0)
(0.102276 0.00696622 0)
(0.102481 0.00706978 0)
(0.102696 0.00716823 0)
(0.10292 0.00726089 0)
(0.103154 0.00734702 0)
(0.103398 0.00742585 0)
(0.10365 0.0074966 0)
(0.103913 0.00755844 0)
(0.104184 0.00761055 0)
(0.104463 0.00765207 0)
(0.104751 0.00768216 0)
(0.105047 0.00769995 0)
(0.10535 0.0077046 0)
(0.10566 0.00769527 0)
(0.105976 0.00767116 0)
(0.106297 0.00763148 0)
(0.106623 0.0075755 0)
(0.106951 0.00750253 0)
(0.107282 0.00741194 0)
(0.107614 0.00730317 0)
(0.107946 0.00717561 0)
(0.108277 0.00702849 0)
(0.108605 0.00686004 0)
(0.108932 0.00666432 0)
(0.100829 0.00566231 0)
(0.100949 0.005779 0)
(0.101077 0.00589541 0)
(0.101211 0.00601119 0)
(0.101353 0.00612591 0)
(0.101503 0.0062392 0)
(0.101661 0.00635062 0)
(0.101827 0.0064597 0)
(0.102002 0.00656594 0)
(0.102185 0.00666883 0)
(0.102377 0.00676779 0)
(0.102577 0.00686223 0)
(0.102786 0.00695152 0)
(0.103005 0.007035 0)
(0.103232 0.00711199 0)
(0.103468 0.00718177 0)
(0.103712 0.00724361 0)
(0.103965 0.00729675 0)
(0.104226 0.00734044 0)
(0.104495 0.00737388 0)
(0.104771 0.00739631 0)
(0.105055 0.00740693 0)
(0.105345 0.00740499 0)
(0.105641 0.00738973 0)
(0.105942 0.00736043 0)
(0.106247 0.00731638 0)
(0.106557 0.00725693 0)
(0.106869 0.00718148 0)
(0.107182 0.00708948 0)
(0.107496 0.00698042 0)
(0.10781 0.0068538 0)
(0.108122 0.00670897 0)
(0.108431 0.00654441 0)
(0.10874 0.00635512 0)
(0.100942 0.00554569 0)
(0.101062 0.00565555 0)
(0.101189 0.00576492 0)
(0.101322 0.00587341 0)
(0.101463 0.00598064 0)
(0.101611 0.00608623 0)
(0.101767 0.00618975 0)
(0.10193 0.00629077 0)
(0.102102 0.0063888 0)
(0.102281 0.00648335 0)
(0.102469 0.00657388 0)
(0.102664 0.00665983 0)
(0.102868 0.00674061 0)
(0.10308 0.00681559 0)
(0.103301 0.00688415 0)
(0.103529 0.00694561 0)
(0.103765 0.00699929 0)
(0.104009 0.00704451 0)
(0.10426 0.00708054 0)
(0.104519 0.00710669 0)
(0.104784 0.00712223 0)
(0.105056 0.00712646 0)
(0.105333 0.00711869 0)
(0.105616 0.00709822 0)
(0.105903 0.00706442 0)
(0.106194 0.00701665 0)
(0.106488 0.00695434 0)
(0.106784 0.00687694 0)
(0.107081 0.00678399 0)
(0.107379 0.00667505 0)
(0.107676 0.00654968 0)
(0.107971 0.00640732 0)
(0.108262 0.00624674 0)
(0.108553 0.00606374 0)
(0.101049 0.00542937 0)
(0.101168 0.00553272 0)
(0.101294 0.00563536 0)
(0.101426 0.00573693 0)