/*--------------------------------*- C++ -*----------------------------------*\
| =========                 |                                                 |
| \\      /  F ield         | OpenFOAM: The Open Source CFD Toolbox           |
|  \\    /   O peration     | Version:  2412                                  |
|   \\  /    A nd           | Website:  www.openfoam.com                      |
|    \\/     M anipulation  |                                                 |
\*---------------------------------------------------------------------------*/
FoamFile
{
    version     2.0;
    format      ascii;
    arch        "LSB;label=32;scalar=64";
    class       surfaceScalarField;
    location    "24.5";
    object      phi;
}
// * * * * * * * * * * * * * * * * * * * * * * * * * * * * * * * * * * * * * //

dimensions      [0 3 -1 0 0 0 0];

oriented        oriented;

internalField   nonuniform List<scalar> 
10423
(
0.00520526
0.000230105
-0.0052052
0.00520546
0.000237107
0.00520583
0.000244354
0.00520638
0.000251853
0.00520712
0.000259608
0.00520807
0.000267624
0.00520925
0.000275906
0.00521068
0.000284458
0.00521238
0.000293285
0.00521438
0.000302388
0.00521669
0.000311771
0.00521936
0.000321434
0.00522239
0.000331377
0.00522583
0.000341599
0.0052297
0.000352096
0.000362862
0.00521225
0.000229809
-0.00521195
0.0052127
0.000236657
0.00521332
0.000243736
0.00521412
0.000251052
0.00521512
0.000258608
0.00521634
0.000266408
0.00521779
0.000274456
0.00521949
0.000282754
0.00522147
0.000291306
0.00522375
0.000300113
0.00522634
0.000309175
0.00522928
0.000318493
0.00523259
0.000328065
0.00523631
0.000337887
0.00524045
0.000347956
0.000358262
0.00521909
0.000229287
-0.00521857
0.00521977
0.000235976
0.00522062
0.000242882
0.00522166
0.000250011
0.00522291
0.000257364
0.00522437
0.000264944
0.00522607
0.000272755
0.00522803
0.000280798
0.00523026
0.000289073
0.00523279
0.000297583
0.00523564
0.000306325
0.00523883
0.000315299
0.0052424
0.000324502
0.00524635
0.00033393
0.00525073
0.000343576
0.000353431
0.00522577
0.000228551
-0.00522503
0.00522666
0.000235077
0.00522774
0.000241808
0.005229
0.000248746
0.00523047
0.000255893
0.00523217
0.000263252
0.0052341
0.000270823
0.00523629
0.000278608
0.00523875
0.000286608
0.00524152
0.00029482
0.0052446
0.000303244
0.00524802
0.000311878
0.00525181
0.000320716
0.00525598
0.000329754
0.00526057
0.000338985
0.000348398
0.00523228
0.000227615
-0.00523135
0.00523338
0.000233975
0.00523466
0.000240527
0.00523614
0.000247272
0.00523782
0.000254211
0.00523973
0.000261346
0.00524187
0.000268678
0.00524427
0.000276206
0.00524695
0.000283929
0.00524992
0.000291847
0.00525321
0.000299956
0.00525684
0.000308252
0.00526082
0.000316731
0.00526519
0.000325387
0.00526997
0.00033421
0.000343191
0.00523863
0.000226491
-0.00523751
0.00523993
0.000232683
0.0052414
0.000239053
0.00524307
0.000245603
0.00524494
0.000252334
0.00524704
0.000259246
0.00524939
0.000266337
0.00525198
0.000273609
0.00525485
0.000281058
0.00525802
0.000288683
0.00526149
0.00029648
0.0052653
0.000304444
0.00526946
0.00031257
0.005274
0.000320851
0.00527893
0.000329277
0.000337837
0.00524482
0.00022519
-0.00524352
0.00524629
0.000231212
0.00524794
0.0002374
0.00524979
0.000243755
0.00525184
0.000250277
0.00525413
0.000256965
0.00525665
0.000263818
0.00525942
0.000270835
0.00526247
0.000278012
0.0052658
0.000285348
0.00526944
0.000292838
0.00527341
0.000300476
0.00527773
0.000308256
0.00528241
0.00031617
0.00528747
0.000324209
0.00033236
0.00525083
0.000223725
-0.00524937
0.00525247
0.000229577
0.00525429
0.000235582
0.0052563
0.000241741
0.00525852
0.000248054
0.00526097
0.00025452
0.00526365
0.000261136
0.00526659
0.0002679
0.00526979
0.00027481
0.00527328
0.00028186
0.00527707
0.000289048
0.00528118
0.000296366
0.00528562
0.000303808
0.00529043
0.000311365
0.00529561
0.000319027
0.000326781
0.00525668
0.000222107
-0.00525506
0.00525847
0.000227787
0.00526044
0.00023361
0.00526261
0.000239575
0.00526498
0.00024568
0.00526758
0.000251925
0.00527041
0.000258306
0.00527349
0.000264821
0.00527683
0.000271466
0.00528045
0.000278237
0.00528437
0.000285129
0.0052886
0.000292134
0.00529317
0.000299246
0.00529808
0.000306455
0.00530335
0.000313751
0.000321121
0.00526236
0.000220347
-0.0052606
0.00526429
0.000225857
0.0052664
0.000231497
0.00526871
0.000237268
0.00527122
0.000243168
0.00527395
0.000249194
0.00527692
0.000255343
0.00528013
0.000261613
0.00528359
0.000267998
0.00528734
0.000274495
0.00529137
0.000281096
0.00529571
0.000287796
0.00530036
0.000294587
0.00530536
0.000301459
0.00531071
0.0003084
0.000315399
0.00526787
0.000218456
-0.00526598
0.00526994
0.000223795
0.00527218
0.000229255
0.00527461
0.000234834
0.00527725
0.00024053
0.0052801
0.00024634
0.00528319
0.000252261
0.00528651
0.000258289
0.00529009
0.00026442
0.00529393
0.000270648
0.00529806
0.000276967
0.00530249
0.00028337
0.00530723
0.000289848
0.0053123
0.000296392
0.0053177
0.000302991
0.000309632
0.00527322
0.000216444
-0.00527121
0.0052754
0.000221614
0.00527776
0.000226895
0.00528031
0.000232284
0.00528307
0.000237779
0.00528603
0.000243376
0.00528922
0.000249073
0.00529264
0.000254865
0.00529632
0.000260746
0.00530025
0.000266712
0.00530446
0.000272755
0.00530897
0.000278869
0.00531377
0.000285044
0.00531889
0.000291271
0.00532434
0.000297539
0.000303835
0.00527841
0.000214321
-0.00527629
0.0052807
0.000219324
0.00528317
0.000224427
0.00528582
0.000229629
0.00528867
0.000234926
0.00529174
0.000240315
0.00529502
0.000245791
0.00529853
0.000251351
0.00530229
0.000256989
0.0053063
0.000262699
0.00531058
0.000268474
0.00531514
0.000274307
0.00532
0.000280189
0.00532516
0.00028611
0.00533064
0.000292059
0.000298022
0.00528343
0.000212097
-0.00528121
0.00528582
0.000216935
0.00528839
0.000221863
0.00529114
0.00022688
0.00529408
0.000231982
0.00529723
0.000237166
0.00530059
0.000242427
0.00530419
0.00024776
0.00530801
0.000253161
0.00531209
0.000258622
0.00531643
0.000264137
0.00532104
0.000269698
0.00532593
0.000275296
0.00533112
0.000280922
0.00533661
0.000286563
0.000292207
0.0052883
0.000209781
-0.00528599
0.00529078
0.000214455
0.00529344
0.000219211
0.00529627
0.000224047
0.00529929
0.000228958
0.00530252
0.000233941
0.00530595
0.000238992
0.00530961
0.000244104
0.0053135
0.000249273
0.00531763
0.000254493
0.00532201
0.000259755
0.00532665
0.000265053
0.00533157
0.000270377
0.00533677
0.000275718
0.00534227
0.000281063
0.000286401
0.00529302
0.000207381
-0.00529062
0.00529558
0.000211894
0.00529831
0.000216481
0.00530122
0.000221139
0.00530431
0.000225863
0.0053076
0.00023065
0.0053111
0.000235495
0.00531481
0.000240393
0.00531875
0.000245337
0.00532292
0.000250322
0.00532733
0.00025534
0.005332
0.000260384
0.00533694
0.000265443
0.00534214
0.00027051
0.00534764
0.000275571
0.000280615
0.00529759
0.000204906
-0.00529511
0.00530022
0.000209262
0.00530302
0.000213683
0.00530599
0.000218166
0.00530915
0.000222707
0.00531249
0.000227303
0.00531604
0.000231948
0.0053198
0.000236636
0.00532377
0.000241362
0.00532798
0.00024612
0.00533241
0.000250902
0.0053371
0.000255699
0.00534204
0.000260504
0.00534724
0.000265307
0.00535272
0.000270096
0.000274859
0.00530201
0.000202364
-0.00529946
0.0053047
0.000206565
0.00530756
0.000210823
0.00531059
0.000215136
0.0053138
0.000219499
0.0053172
0.000223908
0.00532079
0.000228358
0.00532458
0.000232843
0.00532858
0.000237358
0.00533281
0.000241895
0.00533726
0.000246448
0.00534195
0.000251009
0.00534689
0.000255569
0.00535207
0.000260118
0.00535752
0.000264646
0.00026914
0.00530628
0.000199763
-0.00530368
0.00530904
0.000203811
0.00531195
0.000207911
0.00531503
0.000212057
0.00531828
0.000216246
0.00532172
0.000220473
0.00532534
0.000224734
0.00532916
0.000229022
0.00533319
0.000233332
0.00533743
0.000237657
0.00534188
0.000241989
0.00534657
0.000246322
0.00535149
0.000250647
0.00535666
0.000254953
0.00536208
0.00025923
0.000263467
0.00531042
-0.00530777
0.000197109
0.00531323
0.000201009
0.00531618
0.000204953
0.0053193
0.000208936
0.00532259
0.000212956
0.00532606
0.000217007
0.00532971
0.000221084
0.00533355
0.000225181
0.00533759
0.000229292
0.00534183
0.000233412
0.00534629
0.000237532
0.00535097
0.000241646
0.00535587
0.000245744
0.00536101
0.000249817
0.00536638
0.000253855
0.000257845
0.00529282
4.20295e-06
0.00529259
1.22602e-05
0.00529222
1.98725e-05
0.00529173
2.7097e-05
0.0052911
3.3977e-05
0.00529036
4.05401e-05
0.00528951
4.68224e-05
0.00528855
5.29266e-05
5.90823e-05
0.00529282
4.27776e-06
0.0052926
1.24784e-05
0.00529225
2.02257e-05
0.00529177
2.75777e-05
0.00529117
3.4578e-05
0.00529045
4.12543e-05
0.00528963
4.76432e-05
0.00528871
5.38502e-05
0.00528768
6.01121e-05
0.00528653
6.68099e-05
0.00528523
7.43993e-05
0.00528373
8.32717e-05
0.00528201
9.36027e-05
0.00528001
0.000105252
0.00527771
0.000117757
0.00527512
0.000130421
0.00527226
0.000142462
0.00526918
0.000153164
0.00526595
0.000162003
0.00526263
0.000168709
0.00525929
0.000173266
0.00525599
0.000175874
0.00525279
0.000176873
0.00524971
0.000176677
0.00524678
0.000175701
0.005244
0.000174322
0.00524138
0.000172847
0.00523891
0.000171506
0.00523657
0.000170454
0.00523436
0.000169779
0.00523226
0.000169519
0.00523026
0.000169674
0.00522834
0.00017022
0.00522651
0.000171119
0.00522475
0.000172324
0.00522305
0.000173789
0.00522143
0.00017547
0.00521986
0.000177325
0.00521836
0.00017932
0.00521692
0.000181421
0.00521555
0.000183604
0.00521425
0.000185845
0.00521302
0.000188124
0.00521186
0.000190425
0.00521079
0.000192735
0.00520979
0.000195041
0.00520888
0.000197333
0.00520806
0.0001996
0.00520734
0.000201836
0.00520671
0.000204032
0.00520619
0.000206181
0.00520577
0.000208278
0.00520547
0.000210316
0.00520527
0.000212291
0.000214197
0.00529282
4.34982e-06
0.00529261
1.26886e-05
0.00529227
2.05659e-05
0.00529181
2.80405e-05
0.00529123
3.51565e-05
0.00529054
4.19415e-05
0.00528975
4.84326e-05
0.00528887
5.47383e-05
0.00528788
6.11026e-05
0.00528677
6.79188e-05
0.00528551
7.56568e-05
0.00528406
8.47197e-05
0.00528238
9.5287e-05
0.00528042
0.000107211
0.00527816
0.000120014
0.00527561
0.000132973
0.00527279
0.000145281
0.00526975
0.000156199
0.00526657
0.000165189
0.0052633
0.000171972
0.00526003
0.000176537
0.00525682
0.00017909
0.00525371
0.000179985
0.00525073
0.000179651
0.00524792
0.000178517
0.00524527
0.000176972
0.00524278
0.000175332
0.00524045
0.000173836
0.00523826
0.000172639
0.00523621
0.000171834
0.00523427
0.000171459
0.00523243
0.000171511
0.00523069
0.000171965
0.00522903
0.000172781
0.00522744
0.00017391
0.00522593
0.000175304
0.00522448
0.000176917
0.0052231
0.000178706
0.00522178
0.000180634
0.00522053
0.000182669
0.00521936
0.000184783
0.00521825
0.000186953
0.00521721
0.000189158
0.00521626
0.000191382
0.00521538
0.000193611
0.00521459
0.000195832
0.00521389
0.000198034
0.00521328
0.000200209
0.00521277
0.000202347
0.00521236
0.000204442
0.00521205
0.000206487
0.00521186
0.000208475
0.00521177
0.000210401
0.0052118
0.000212259
0.000214046
0.00529282
4.41909e-06
0.00529262
1.28906e-05
0.0052923
2.08929e-05
0.00529185
2.84853e-05
0.00529129
3.57124e-05
0.00529063
4.26016e-05
0.00528988
4.91905e-05
0.00528902
5.55905e-05
0.00528807
6.20535e-05
0.00528701
6.89854e-05
0.00528579
7.68705e-05
0.00528439
8.61241e-05
0.00528275
9.69291e-05
0.00528083
0.000109131
0.00527861
0.000122233
0.00527609
0.000135489
0.00527331
0.000148063
0.00527032
0.000159194
0.00526718
0.000168328
0.00526397
0.00017518
0.00526077
0.00017974
0.00525763
0.000182226
0.00525461
0.000183006
0.00525174
0.00018252
0.00524904
0.000181216
0.00524652
0.000179494
0.00524417
0.000177681
0.00524198
0.00017602
0.00523995
0.000174673
0.00523805
0.000173733
0.00523627
0.000173236
0.0052346
0.000173182
0.00523303
0.000173541
0.00523154
0.000174271
0.00523012
0.000175322
0.00522878
0.000176643
0.00522752
0.000178186
0.00522632
0.000179907
0.00522518
0.000181767
0.00522412
0.000183732
0.00522313
0.000185775
0.00522221
0.000187871
0.00522137
0.00019
0.00522061
0.000192144
0.00521993
0.000194289
0.00521934
0.000196423
0.00521884
0.000198535
0.00521843
0.000200615
0.00521812
0.000202654
0.00521792
0.000204647
0.00521782
0.000206585
0.00521783
0.000208462
0.00521796
0.000210275
0.0052182
0.000212016
0.000213682
0.00529283
4.48557e-06
0.00529263
1.30845e-05
0.00529232
2.12066e-05
0.00529189
2.89121e-05
0.00529136
3.62455e-05
0.00529073
4.32344e-05
0.00529
4.99166e-05
0.00528918
5.64067e-05
0.00528827
6.29647e-05
0.00528725
7.00094e-05
0.00528608
7.80405e-05
0.00528472
8.74851e-05
0.00528312
9.85299e-05
0.00528124
0.000111013
0.00527905
0.000124416
0.00527657
0.00013797
0.00527383
0.000150809
0.00527087
0.00016215
0.00526778
0.000171421
0.00526462
0.000178332
0.00526149
0.000182878
0.00525843
0.000185284
0.0052555
0.000185933
0.00525274
0.000185285
0.00525015
0.000183799
0.00524776
0.000181889
0.00524555
0.000179893
0.00524351
0.00017806
0.00524163
0.000176555
0.00523989
0.000175474
0.00523827
0.000174853
0.00523676
0.000174688
0.00523536
0.000174949
0.00523404
0.000175591
0.0052328
0.000176562
0.00523163
0.000177808
0.00523054
0.000179279
0.00522951
0.000180929
0.00522856
0.000182719
0.00522768
0.000184614
0.00522687
0.000186584
0.00522614
0.000188605
0.00522548
0.000190655
0.00522491
0.000192718
0.00522442
0.000194778
0.00522402
0.000196823
0.00522371
0.000198842
0.0052235
0.000200825
0.00522339
0.000202765
0.00522338
0.000204653
0.00522348
0.000206484
0.0052237
0.000208251
0.00522402
0.000209948
0.00522447
0.000211573
0.000213119
0.00529283
4.54924e-06
0.00529264
1.32701e-05
0.00529234
2.15071e-05
0.00529194
2.93206e-05
0.00529143
3.67558e-05
0.00529082
4.38397e-05
0.00529013
5.06107e-05
0.00528935
5.71867e-05
0.00528847
6.38359e-05
0.00528749
7.09909e-05
0.00528637
7.91669e-05
0.00528505
8.88033e-05
0.00528349
0.00010009
0.00528164
0.000112857
0.00527949
0.000126566
0.00527705
0.000140419
0.00527433
0.000153522
0.00527141
0.000165069
0.00526837
0.00017447
0.00526527
0.000181431
0.00526219
0.000185949
0.00525922
0.000188262
0.00525638
0.000188769
0.00525372
0.000187943
0.00525126
0.000186263
0.00524899
0.000184154
0.00524692
0.000181966
0.00524503
0.000179953
0.0052433
0.000178285
0.00524171
0.000177058
0.00524026
0.000176308
0.00523892
0.00017603
0.00523768
0.000176191
0.00523652
0.000176743
0.00523545
0.000177631
0.00523446
0.000178801
0.00523354
0.000180199
0.00523269
0.000181778
0.00523191
0.000183497
0.00523121
0.000185319
0.00523058
0.000187215
0.00523002
0.000189159
0.00522955
0.00019113
0.00522916
0.00019311
0.00522885
0.000195083
0.00522864
0.000197038
0.00522852
0.000198963
0.00522849
0.000200849
0.00522857
0.000202687
0.00522875
0.000204471
0.00522904
0.000206193
0.00522944
0.000207849
0.00522996
0.000209433
0.00523059
0.00021094
0.000212366
0.00529283
4.61009e-06
0.00529266
1.34476e-05
0.00529237
2.17941e-05
0.00529198
2.97109e-05
0.00529149
3.72431e-05
0.00529091
4.44175e-05
0.00529025
5.12728e-05
0.00528951
5.79303e-05
0.00528868
6.46672e-05
0.00528774
7.19299e-05
0.00528665
8.025e-05
0.00528538
9.00793e-05
0.00528386
0.000101611
0.00528205
0.000114665
0.00527993
0.000128682
0.00527751
0.000142836
0.00527483
0.000156204
0.00527195
0.000167952
0.00526894
0.000177476
0.0052659
0.000184477
0.00526289
0.000188956
0.00525999
0.000191162
0.00525725
0.000191511
0.0052547
0.000190495
0.00525235
0.000188608
0.00525022
0.00018629
0.00524828
0.000183899
0.00524654
0.000181699
0.00524496
0.000179862
0.00524353
0.000178484
0.00524224
0.000177602
0.00524106
0.000177208
0.00523999
0.000177267
0.005239
0.000177728
0.0052381
0.000178534
0.00523727
0.000179626
0.00523652
0.00018095
0.00523584
0.000182457
0.00523524
0.000184103
0.0052347
0.000185852
0.00523425
0.000187673
0.00523387
0.00018954
0.00523357
0.00019143
0.00523335
0.000193326
0.00523322
0.000195212
0.00523319
0.000197075
0.00523324
0.000198906
0.0052334
0.000200693
0.00523366
0.00020243
0.00523402
0.000204109
0.00523449
0.000205723
0.00523507
0.000207267
0.00523577
0.000208737
0.00523658
0.000210127
0.000211435
0.00529284
4.6681e-06
0.00529267
1.36168e-05
0.00529239
2.20678e-05
0.00529202
3.00829e-05
0.00529156
3.77074e-05
0.00529101
4.49677e-05
0.00529038
5.19027e-05
0.00528967
5.86376e-05
0.00528888
6.54585e-05
0.00528798
7.28266e-05
0.00528694
8.12901e-05
0.00528571
9.13137e-05
0.00528423
0.000103093
0.00528245
0.000116438
0.00528037
0.000130768
0.00527798
0.000145225
0.00527533
0.000158855
0.00527248
0.0001708
0.00526951
0.00018044
0.00526652
0.00018747
0.00526358
0.000191896
0.00526076
0.000193982
0.00525811
0.000194159
0.00525567
0.000192939
0.00525344
0.000190833
0.00525144
0.000188295
0.00524964
0.000185693
0.00524804
0.000183298
0.00524662
0.000181286
0.00524535
0.000179754
0.00524422
0.000178737
0.0052432
0.000178225
0.00524229
0.00017818
0.00524146
0.000178549
0.00524073
0.000179271
0.00524007
0.000180285
0.00523948
0.000181535
0.00523897
0.000182969
0.00523853
0.000184542
0.00523817
0.000186218
0.00523788
0.000187963
0.00523766
0.000189751
0.00523753
0.00019156
0.00523749
0.000193372
0.00523753
0.00019517
0.00523766
0.000196942
0.00523789
0.000198677
0.00523822
0.000200367
0.00523865
0.000202002
0.00523918
0.000203575
0.00523982
0.000205082
0.00524057
0.000206516
0.00524144
0.000207872
0.00524242
0.000209147
0.000210337
0.00529284
4.72328e-06
0.00529268
1.37776e-05
0.00529242
2.2328e-05
0.00529206
3.04366e-05
0.00529162
3.81486e-05
0.0052911
4.54901e-05
0.0052905
5.25005e-05
0.00528983
5.93084e-05
0.00528908
6.62098e-05
0.00528823
7.36809e-05
0.00528723
8.22874e-05
0.00528604
9.25068e-05
0.00528459
0.000104538
0.00528285
0.000118177
0.0052808
0.000132823
0.00527844
0.000147585
0.00527581
0.000161477
0.005273
0.000173615
0.00527008
0.000183363
0.00526714
0.000190411
0.00526426
0.000194771
0.00526152
0.000196722
0.00525897
0.000196713
0.00525663
0.000195276
0.00525453
0.000192938
0.00525265
0.000190169
0.005251
0.000187348
0.00524955
0.000184751
0.00524827
0.000182558
0.00524716
0.000180868
0.00524618
0.000179713
0.00524533
0.000179081
0.00524458
0.000178932
0.00524392
0.000179208
0.00524334
0.000179846
0.00524284
0.000180782
0.00524242
0.000181957
0.00524207
0.000183318
0.0052418
0.000184819
0.00524159
0.000186421
0.00524146
0.00018809
0.00524142
0.0001898
0.00524145
0.000191528
0.00524157
0.000193254
0.00524177
0.000194965
0.00524207
0.000196645
0.00524246
0.000198286
0.00524295
0.000199877
0.00524354
0.00020141
0.00524424
0.00020288
0.00524504
0.000204279
0.00524595
0.000205603
0.00524697
0.000206848
0.00524811
0.000208009
0.000209082
0.00529284
4.77561e-06
0.00529269
1.39302e-05
0.00529244
2.25748e-05
0.00529211
3.07719e-05
0.00529169
3.85668e-05
0.00529119
4.59849e-05
0.00529063
5.3066e-05
0.00528999
5.99428e-05
0.00528928
6.69211e-05
0.00528847
7.44932e-05
0.00528752
8.32423e-05
0.00528636
9.36593e-05
0.00528496
0.000105945
0.00528325
0.000119884
0.00528122
0.000134849
0.00527889
0.000149917
0.0052763
0.00016407
0.00527352
0.000176397
0.00527064
0.000186244
0.00526775
0.000193299
0.00526494
0.00019758
0.00526228
0.000199382
0.00525982
0.000199172
0.00525759
0.000197503
0.00525561
0.000194921
0.00525387
0.000191911
0.00525235
0.000188861
0.00525105
0.000186057
0.00524993
0.000183679
0.00524897
0.000181827
0.00524815
0.000180532
0.00524745
0.000179779
0.00524686
0.000179525
0.00524636
0.000179708
0.00524594
0.000180262
0.0052456
0.00018112
0.00524534
0.000182222
0.00524515
0.00018351
0.00524503
0.000184939
0.00524498
0.000186467
0.00524501
0.000188061
0.00524512
0.000189692
0.00524531
0.000191339
0.00524558
0.000192981
0.00524594
0.000194603
0.0052464
0.000196193
0.00524694
0.000197739
0.00524759
0.000199232
0.00524833
0.000200665
0.00524918
0.000202031
0.00525014
0.000203324
0.0052512
0.00020454
0.00525238
0.000205674
0.00525366
0.000206722
0.000207682
0.00529284
4.8251e-06
0.0052927
1.40745e-05
0.00529247
2.28081e-05
0.00529215
3.10888e-05
0.00529175
3.89618e-05
0.00529129
4.6452e-05
0.00529075
5.35994e-05
0.00529016
6.05409e-05
0.00528948
6.75926e-05
0.00528871
7.52635e-05
0.0052878
8.41551e-05
0.00528669
9.47714e-05
0.00528532
0.000107315
0.00528365
0.000121558
0.00528165
0.000136845
0.00527934
0.000152222
0.00527678
0.000166635
0.00527403
0.000179144
0.00527119
0.000189083
0.00526836
0.000196133
0.00526562
0.000200322
0.00526304
0.000201959
0.00526068
0.000201535
0.00525856
0.000199621
0.0052567
0.000196783
0.00525509
0.000193521
0.00525371
0.000190236
0.00525255
0.000187216
0.00525158
0.000184649
0.00525078
0.000182632
0.00525011
0.000181196
0.00524957
0.000180322
0.00524913
0.000179962
0.00524879
0.000180053
0.00524853
0.000180523
0.00524834
0.000181305
0.00524823
0.000182332
0.00524819
0.000183549
0.00524823
0.000184906
0.00524833
0.000186361
0.00524851
0.000187879
0.00524877
0.000189433
0.00524911
0.000190999
0.00524954
0.000192557
0.00525005
0.000194092
0.00525065
0.000195591
0.00525134
0.000197043
0.00525214
0.00019844
0.00525303
0.000199773
0.00525402
0.000201037
0.00525512
0.000202225
0.00525633
0.000203334
0.00525764
0.000204359
0.00525906
0.000205297
0.000206145
0.00529285
4.87175e-06
0.00529271
1.42106e-05
0.00529249
2.3028e-05
0.00529219
3.13874e-05
0.00529182
3.93338e-05
0.00529138
4.68914e-05
0.00529088
5.41006e-05
0.00529032
6.11026e-05
0.00528969
6.82244e-05
0.00528896
7.5992e-05
0.00528809
8.50258e-05
0.00528702
9.58433e-05
0.00528568
0.000108648
0.00528404
0.000123199
0.00528207
0.000138813
0.0052798
0.000154499
0.00527726
0.00016917
0.00527455
0.000181857
0.00527175
0.000191878
0.00526897
0.000198912
0.0052663
0.000202995
0.00526381
0.000204454
0.00526154
0.000203801
0.00525953
0.000201628
0.00525779
0.000198523
0.00525631
0.000195
0.00525508
0.00019147
0.00525406
0.000188231
0.00525324
0.000185471
0.00525259
0.000183287
0.00525208
0.000181708
0.00525169
0.000180712
0.0052514
0.000180247
0.00525121
0.000180246
0.0052511
0.000180634
0.00525106
0.000181339
0.0052511
0.000182294
0.00525121
0.00018344
0.00525139
0.000184726
0.00525165
0.000186108
0.00525197
0.000187553
0.00525238
0.00018903
0.00525286
0.000190515
0.00525343
0.00019199
0.00525408
0.000193439
0.00525482
0.000194848
0.00525566
0.000196207
0.00525659
0.000197508
0.00525762
0.000198743
0.00525875
0.000199906
0.00525998
0.000200992
0.00526132
0.000201996
0.00526277
0.000202914
0.00526432
0.000203744
0.000204483
0.00529285
4.91556e-06
0.00529272
1.43383e-05
0.00529252
2.32345e-05
0.00529224
3.16677e-05
0.00529189
3.96827e-05
0.00529147
4.73032e-05
0.00529101
5.45698e-05
0.00529048
6.16282e-05
0.00528989
6.88167e-05
0.0052892
7.66789e-05
0.00528837
8.58547e-05
0.00528734
9.68751e-05
0.00528604
0.000109945
0.00528444
0.000124807
0.0052825
0.00014075
0.00528025
0.000156747
0.00527775
0.000171674
0.00527507
0.000184534
0.00527232
0.000194628
0.0052696
0.000201634
0.005267
0.000205598
0.00526459
0.000206865
0.00526242
0.000205968
0.00526052
0.000203525
0.0052589
0.000200141
0.00525756
0.000196347
0.00525646
0.000192567
0.00525559
0.000189103
0.00525491
0.000186146
0.00525441
0.000183793
0.00525405
0.00018207
0.00525381
0.000180952
0.00525367
0.000180383
0.00525362
0.000180291
0.00525366
0.000180597
0.00525377
0.000181228
0.00525395
0.000182111
0.00525421
0.000183188
0.00525453
0.000184404
0.00525492
0.000185715
0.00525539
0.000187087
0.00525593
0.000188487
0.00525655
0.000189894
0.00525725
0.000191287
0.00525804
0.00019265
0.00525892
0.000193971
0.00525989
0.000195239
0.00526095
0.000196445
0.00526211
0.000197584
0.00526337
0.000198647
0.00526473
0.000199632
0.00526619
0.000200533
0.00526776
0.000201347
0.00526943
0.000202072
0.000202704
0.00529285
4.95654e-06
0.00529273
1.44578e-05
0.00529254
2.34275e-05
0.00529228
3.19297e-05
0.00529195
4.00088e-05
0.00529157
4.76876e-05
0.00529113
5.50071e-05
0.00529064
6.21177e-05
0.00529009
6.93695e-05
0.00528944
7.73242e-05
0.00528866
8.66417e-05
0.00528766
9.78665e-05
0.00528641
0.000111203
0.00528483
0.000126381
0.00528293
0.000142656
0.00528071
0.000158964
0.00527824
0.000174143
0.0052756
0.00018717
0.0052729
0.000197329
0.00527024
0.000204296
0.00526771
0.000208128
0.00526539
0.000209188
0.00526332
0.000208035
0.00526154
0.000205309
0.00526004
0.000201636
0.00525882
0.000197564
0.00525786
0.000193527
0.00525713
0.000189833
0.0052566
0.000186677
0.00525624
0.000184154
0.00525602
0.000182287
0.00525593
0.000181048
0.00525594
0.000180375
0.00525603
0.000180193
0.00525621
0.00018042
0.00525646
0.000180976
0.00525678
0.00018179
0.00525717
0.000182798
0.00525763
0.000183946
0.00525816
0.000185188
0.00525876
0.000186487
0.00525943
0.000187813
0.00526018
0.000189142
0.00526102
0.000190454
0.00526193
0.000191733
0.00526294
0.000192967
0.00526403
0.000194145
0.00526522
0.000195259
0.0052665
0.000196302
0.00526788
0.000197268
0.00526936
0.000198154
0.00527094
0.000198955
0.00527262
0.000199667
0.0052744
0.000200289
0.000200817
0.00529286
4.9947e-06
0.00529274
1.4569e-05
0.00529256
2.36073e-05
0.00529232
3.21734e-05
0.00529202
4.03119e-05
0.00529166
4.80445e-05
0.00529126
5.54126e-05
0.0052908
6.25714e-05
0.00529029
6.98831e-05
0.00528968
7.79282e-05
0.00528894
8.73867e-05
0.00528799
9.88169e-05
0.00528677
0.000112424
0.00528523
0.000127918
0.00528336
0.000144527
0.00528118
0.000161146
0.00527875
0.000176576
0.00527615
0.000189763
0.0052735
0.000199978
0.00527091
0.000206894
0.00526845
0.000210581
0.00526622
0.000211423
0.00526425
0.000210002
0.00526258
0.000206982
0.00526121
0.00020301
0.00526012
0.000198653
0.00525929
0.000194353
0.0052587
0.000190426
0.00525831
0.000187068
0.00525809
0.000184374
0.00525801
0.000182363
0.00525806
0.000181002
0.00525821
0.000180227
0.00525844
0.000179957
0.00525876
0.000180106
0.00525914
0.00018059
0.0052596
0.000181336
0.00526012
0.000182278
0.0052607
0.000183358
0.00526136
0.000184532
0.00526209
0.00018576
0.00526289
0.000187013
0.00526376
0.000188265
0.00526472
0.000189498
0.00526576
0.000190694
0.00526688
0.000191843
0.00526809
0.000192932
0.0052694
0.000193956
0.00527079
0.000194906
0.00527228
0.000195778
0.00527387
0.000196566
0.00527556
0.000197269
0.00527734
0.000197882
0.00527923
0.000198404
0.000198832
0.00529286
5.03005e-06
0.00529276
1.46721e-05
0.00529259
2.37737e-05
0.00529236
3.23991e-05
0.00529208
4.05923e-05
0.00529175
4.83741e-05
0.00529138
5.57865e-05
0.00529096
6.29894e-05
0.00529049
7.03576e-05
0.00528992
7.84908e-05
0.00528922
8.80894e-05
0.00528831
9.97254e-05
0.00528713
0.000113603
0.00528563
0.000129417
0.0052838
0.00014636
0.00528166
0.000163288
0.00527927
0.000178965
0.00527672
0.000192307
0.00527413
0.000202569
0.0052716
0.000209424
0.00526923
0.000212955
0.00526709
0.000213566
0.00526522
0.000211866
0.00526366
0.000208542
0.00526241
0.000204264
0.00526145
0.000199614
0.00526075
0.000195047
0.0052603
0.000190884
0.00526004
0.000187322
0.00525996
0.000184457
0.00526002
0.000182302
0.0052602
0.000180822
0.00526048
0.000179946
0.00526085
0.000179589
0.00526129
0.000179661
0.00526181
0.000180076
0.00526239
0.000180755
0.00526304
0.000181632
0.00526375
0.000182647
0.00526452
0.000183754
0.00526537
0.000184913
0.00526629
0.000186094
0.00526729
0.000187272
0.00526836
0.000188426
0.00526951
0.000189542
0.00527075
0.000190606
0.00527207
0.000191609
0.00527348
0.000192544
0.00527498
0.000193403
0.00527658
0.000194182
0.00527827
0.000194877
0.00528005
0.000195484
0.00528193
0.000196001
0.00528391
0.000196426
0.000196757
0.00529286
5.0626e-06
0.00529277
1.4767e-05
0.00529261
2.39269e-05
0.00529241
3.26067e-05
0.00529215
4.085e-05
0.00529185
4.86767e-05
0.0052915
5.6129e-05
0.00529112
6.3372e-05
0.00529068
7.07933e-05
0.00529016
7.9012e-05
0.0052895
8.87493e-05
0.00528864
0.000100591
0.0052875
0.000114741
0.00528604
0.000130873
0.00528425
0.00014815
0.00528215
0.000165387
0.00527981
0.000181306
0.00527732
0.000194796
0.0052748
0.000205096
0.00527234
0.000211881
0.00527005
0.000215245
0.005268
0.000215615
0.00526624
0.000213625
0.00526479
0.000209989
0.00526366
0.000205398
0.00526282
0.00020045
0.00526226
0.000195612
0.00526193
0.000191211
0.00526181
0.000187446
0.00526186
0.000184408
0.00526205
0.000182111
0.00526236
0.000180512
0.00526277
0.000179537
0.00526326
0.000179095
0.00526383
0.000179092
0.00526447
0.000179439
0.00526517
0.000180054
0.00526593
0.000180866
0.00526676
0.000181818
0.00526766
0.00018286
0.00526862
0.000183952
0.00526965
0.000185062
0.00527075
0.000186167
0.00527193
0.000187245
0.00527319
0.000188281
0.00527454
0.000189264
0.00527596
0.000190183
0.00527748
0.000191031
0.00527908
0.000191801
0.00528077
0.00019249
0.00528255
0.000193093
0.00528443
0.000193608
0.0052864
0.000194032
0.00528846
0.000194363
0.0001946
0.00529286
5.09236e-06
0.00529278
1.48537e-05
0.00529264
2.40669e-05
0.00529245
3.27964e-05
0.00529221
4.10852e-05
0.00529194
4.89523e-05
0.00529163
5.64402e-05
0.00529128
6.37195e-05
0.00529088
7.11903e-05
0.0052904
7.94918e-05
0.00528978
8.93659e-05
0.00528896
0.000101412
0.00528787
0.000115833
0.00528646
0.000132284
0.00528472
0.000149894
0.00528267
0.000167435
0.00528038
0.000183592
0.00527796
0.000197223
0.0052755
0.000207554
0.00527312
0.000214258
0.00527092
0.000217446
0.00526897
0.000217567
0.00526732
0.000215279
0.00526598
0.000211324
0.00526496
0.000206414
0.00526425
0.000201165
0.00526381
0.000196054
0.00526361
0.000191413
0.00526361
0.000187443
0.00526378
0.000184234
0.0052641
0.000181795
0.00526453
0.00018008
0.00526506
0.000179007
0.00526568
0.000178481
0.00526636
0.000178406
0.00526711
0.000178686
0.00526793
0.000179238
0.00526881
0.000179989
0.00526975
0.000180879
0.00527075
0.000181857
0.00527182
0.000182883
0.00527296
0.000183925
0.00527417
0.000184958
0.00527545
0.000185961
0.00527681
0.000186921
0.00527825
0.000187823
0.00527978
0.00018866
0.00528138
0.000189423
0.00528308
0.000190108
0.00528486
0.000190709
0.00528673
0.000191223
0.00528869
0.000191648
0.00529074
0.000191981
0.00529288
0.000192222
0.000192369
0.00529287
5.11936e-06
0.00529279
1.49324e-05
0.00529266
2.41939e-05
0.00529249
3.29682e-05
0.00529228
4.1298e-05
0.00529203
4.92012e-05
0.00529175
5.67206e-05
0.00529143
6.4032e-05
0.00529108
7.15489e-05
0.00529064
7.993e-05
0.00529007
8.99384e-05
0.00528929
0.000102187
0.00528825
0.000116877
0.00528689
0.000133644
0.0052852
0.000151583
0.00528321
0.000169424
0.00528099
0.000185814
0.00527863
0.00019958