/*--------------------------------*- C++ -*----------------------------------*\
| =========                 |                                                 |
| \\      /  F ield         | OpenFOAM: The Open Source CFD Toolbox           |
|  \\    /   O peration     | Version:  2412                                  |
|   \\  /    A nd           | Website:  www.openfoam.com                      |
|    \\/     M anipulation  |                                                 |
\*---------------------------------------------------------------------------*/
FoamFile
{
    version     2.0;
    format      ascii;
    arch        "LSB;label=32;scalar=64";
    class       volVectorField;
    location    "24.5";
    object      U;
}
// * * * * * * * * * * * * * * * * * * * * * * * * * * * * * * * * * * * * * //

dimensions      [0 1 -1 0 0 0 0];

internalField   nonuniform List<vector> 
5285
(
(0.0983431 0.00434912 0)
(0.0983455 0.00448284 0)
(0.0983509 0.00462133 0)
(0.0983594 0.00476471 0)
(0.0983715 0.00491308 0)
(0.0983874 0.00506655 0)
(0.0984074 0.00522523 0)
(0.098432 0.0053892 0)
(0.0984615 0.00555854 0)
(0.0984963 0.00573333 0)
(0.0985369 0.00591362 0)
(0.0985838 0.00609945 0)
(0.0986375 0.00629083 0)
(0.0986985 0.00648775 0)
(0.0987674 0.00669014 0)
(0.0988447 0.00689793 0)
(0.0984729 0.00434572 0)
(0.0984799 0.00447659 0)
(0.0984899 0.00461195 0)
(0.0985033 0.00475192 0)
(0.0985202 0.00489657 0)
(0.0985411 0.005046 0)
(0.0985662 0.00520028 0)
(0.0985959 0.00535948 0)
(0.0986306 0.00552366 0)
(0.0986706 0.00569286 0)
(0.0987165 0.00586711 0)
(0.0987687 0.00604641 0)
(0.0988277 0.00623075 0)
(0.0988939 0.00642008 0)
(0.0989679 0.00661433 0)
(0.0990503 0.00681337 0)
(0.0985999 0.00433793 0)
(0.0986112 0.00446583 0)
(0.0986257 0.00459798 0)
(0.0986435 0.00473444 0)
(0.098665 0.0048753 0)
(0.0986905 0.00502061 0)
(0.0987203 0.00517043 0)
(0.0987548 0.00532481 0)
(0.0987942 0.00548378 0)
(0.0988391 0.00564736 0)
(0.0988899 0.00581555 0)
(0.0989468 0.00598834 0)
(0.0990105 0.00616568 0)
(0.0990814 0.00634751 0)
(0.0991601 0.00653371 0)
(0.0992469 0.00672413 0)
(0.0987241 0.00432599 0)
(0.0987394 0.00445085 0)
(0.098758 0.00457969 0)
(0.09878 0.00471258 0)
(0.0988058 0.00484957 0)
(0.0988356 0.00499071 0)
(0.0988698 0.00513603 0)
(0.0989086 0.00528555 0)
(0.0989525 0.00543929 0)
(0.0990018 0.00559726 0)
(0.0990569 0.00575941 0)
(0.0991182 0.00592573 0)
(0.0991862 0.00609614 0)
(0.0992613 0.00627055 0)
(0.099344 0.00644883 0)
(0.0994348 0.00663081 0)
(0.0988453 0.00431015 0)
(0.0988645 0.00443189 0)
(0.0988869 0.00455737 0)
(0.0989129 0.00468664 0)
(0.0989426 0.00481972 0)
(0.0989764 0.00495664 0)
(0.0990146 0.00509743 0)
(0.0990575 0.00524209 0)
(0.0991054 0.00539061 0)
(0.0991587 0.00554297 0)
(0.0992177 0.00569914 0)
(0.0992829 0.00585905 0)
(0.0993547 0.00602262 0)
(0.0994335 0.00618973 0)
(0.0995198 0.00636024 0)
(0.0996139 0.00653395 0)
(0.0989635 0.00429062 0)
(0.0989862 0.00440921 0)
(0.0990123 0.00453129 0)
(0.0990419 0.00465689 0)
(0.0990753 0.00478603 0)
(0.0991128 0.00491872 0)
(0.0991547 0.00505498 0)
(0.0992013 0.00519477 0)
(0.0992529 0.0053381 0)
(0.0993098 0.00548491 0)
(0.0993724 0.00563514 0)
(0.0994411 0.00578873 0)
(0.0995163 0.00594556 0)
(0.0995983 0.00610552 0)
(0.0996877 0.00626842 0)
(0.0997847 0.00643408 0)
(0.0990786 0.00426766 0)
(0.0991047 0.00438305 0)
(0.0991342 0.00450169 0)
(0.0991672 0.0046236 0)
(0.099204 0.0047488 0)
(0.0992449 0.00487726 0)
(0.0992902 0.00500899 0)
(0.0993401 0.00514395 0)
(0.099395 0.00528212 0)
(0.0994552 0.00542343 0)
(0.099521 0.00556781 0)
(0.0995928 0.00571517 0)
(0.099671 0.0058654 0)
(0.0997559 0.00601835 0)
(0.0998479 0.00617384 0)
(0.0999474 0.00633165 0)
(0.0991907 0.00424148 0)
(0.09922 0.00435365 0)
(0.0992525 0.00446884 0)
(0.0992887 0.00458706 0)
(0.0993286 0.0047083 0)
(0.0993727 0.00483255 0)
(0.099421 0.00495978 0)
(0.099474 0.00508995 0)
(0.0995319 0.00522301 0)
(0.0995951 0.00535889 0)
(0.0996637 0.00549752 0)
(0.0997383 0.00563877 0)
(0.099819 0.00578253 0)
(0.0999063 0.00592864 0)
(0.100001 0.00607691 0)
(0.100102 0.0062271 0)
(0.0992998 0.00421231 0)
(0.0993319 0.00432124 0)
(0.0993674 0.00443298 0)
(0.0994064 0.00454751 0)
(0.0994492 0.00466481 0)
(0.0994961 0.00478487 0)
(0.0995473 0.00490764 0)
(0.099603 0.00503307 0)
(0.0996636 0.00516109 0)
(0.0997294 0.00529164 0)
(0.0998006 0.00542461 0)
(0.0998775 0.00555989 0)
(0.0999605 0.00569733 0)
(0.10005 0.00583678 0)
(0.100146 0.00597803 0)
(0.100249 0.00612085 0)
(0.0994057 0.00418035 0)
(0.0994406 0.00428605 0)
(0.0994787 0.00439433 0)
(0.0995204 0.00450519 0)
(0.0995659 0.00461859 0)
(0.0996153 0.00473449 0)
(0.0996691 0.00485285 0)
(0.0997273 0.0049736 0)
(0.0997903 0.00509668 0)
(0.0998583 0.00522199 0)
(0.0999317 0.00534942 0)
(0.100011 0.00547885 0)
(0.100096 0.00561014 0)
(0.100187 0.00574311 0)
(0.100284 0.00587756 0)
(0.100389 0.00601324 0)
(0.0995087 0.00414581 0)
(0.099546 0.00424829 0)
(0.0995866 0.00435314 0)
(0.0996307 0.00446035 0)
(0.0996785 0.00456988 0)
(0.0997304 0.00468167 0)
(0.0997864 0.00479568 0)
(0.0998468 0.00491184 0)
(0.0999119 0.00503005 0)
(0.099982 0.00515022 0)
(0.100057 0.00527225 0)
(0.100138 0.00539599 0)
(0.100225 0.00552129 0)
(0.100317 0.00564798 0)
(0.100416 0.00577584 0)
(0.100522 0.00590462 0)
(0.0996086 0.00410889 0)
(0.0996481 0.00420816 0)
(0.099691 0.00430961 0)
(0.0997373 0.00441321 0)
(0.0997874 0.00451891 0)
(0.0998413 0.00462666 0)
(0.0998993 0.00473639 0)
(0.0999618 0.00484803 0)
(0.100029 0.00496148 0)
(0.100101 0.00507664 0)
(0.100178 0.00519338 0)
(0.10026 0.00531158 0)
(0.100348 0.00543107 0)
(0.100441 0.00555167 0)
(0.100541 0.00567316 0)
(0.100647 0.00579531 0)
(0.0997055 0.00406978 0)
(0.0997472 0.00416588 0)
(0.0997921 0.00426396 0)
(0.0998404 0.00436399 0)
(0.0998924 0.00446592 0)
(0.0999482 0.00456969 0)
(0.100008 0.00467522 0)
(0.100072 0.00478242 0)
(0.100141 0.00489122 0)
(0.100214 0.00500148 0)
(0.100292 0.00511309 0)
(0.100376 0.00522591 0)
(0.100465 0.00533976 0)
(0.100559 0.00545448 0)
(0.10066 0.00556983 0)
(0.100766 0.00568557 0)
(0.0997995 0.00402868 0)
(0.0998431 0.00412162 0)
(0.0998898 0.00421638 0)
(0.09994 0.00431289 0)
(0.0999937 0.00441111 0)
(0.100051 0.00451097 0)
(0.100113 0.00461238 0)
(0.100178 0.00471526 0)
(0.100248 0.00481951 0)
(0.100323 0.00492501 0)
(0.100402 0.00503163 0)
(0.100487 0.00513922 0)
(0.100577 0.00524762 0)
(0.100672 0.00535665 0)
(0.100773 0.00546608 0)
(0.100879 0.00557567 0)
(0.0998907 0.00398574 0)
(0.0999359 0.00407558 0)
(0.0999844 0.00416705 0)
(0.100036 0.00426011 0)
(0.100091 0.00435469 0)
(0.10015 0.00445071 0)
(0.100213 0.0045481 0)
(0.10028 0.00464675 0)
(0.100351 0.00474657 0)
(0.100427 0.00484744 0)
(0.100507 0.00494921 0)
(0.100593 0.00505175 0)
(0.100683 0.00515488 0)
(0.100779 0.00525842 0)
(0.10088 0.00536216 0)
(0.100986 0.00546584 0)
(0.099979 0.00394115 0)
(0.100026 0.00402793 0)
(0.100076 0.00411618 0)
(0.100129 0.00420584 0)
(0.100186 0.00429684 0)
(0.100246 0.00438912 0)
(0.10031 0.00448257 0)
(0.100378 0.00457711 0)
(0.10045 0.00467262 0)
(0.100527 0.00476898 0)
(0.100608 0.00486606 0)
(0.100694 0.00496371 0)
(0.100784 0.00506176 0)
(0.10088 0.00516002 0)
(0.100981 0.00525828 0)
(0.101088 0.00535629 0)
(0.100065 0.00389506 0)
(0.100113 0.00397883 0)
(0.100164 0.00406391 0)
(0.100219 0.00415024 0)
(0.100276 0.00423775 0)
(0.100338 0.00432637 0)
(0.100403 0.00441598 0)
(0.100472 0.00450651 0)
(0.100545 0.00459784 0)
(0.100622 0.00468984 0)
(0.100704 0.00478238 0)
(0.10079 0.0048753 0)
(0.100881 0.00496844 0)
(0.100976 0.00506162 0)
(0.101077 0.00515462 0)
(0.101183 0.00524721 0)
(0.100147 0.00384763 0)
(0.100197 0.00392844 0)
(0.100249 0.00401042 0)
(0.100305 0.00409349 0)
(0.100364 0.00417759 0)
(0.100426 0.00426263 0)
(0.100492 0.00434852 0)
(0.100562 0.00443515 0)
(0.100635 0.00452242 0)
(0.100713 0.00461019 0)
(0.100795 0.00469834 0)
(0.100881 0.0047867 0)
(0.100972 0.00487512 0)
(0.101068 0.00496342 0)
(0.101168 0.00505138 0)
(0.101274 0.00513877 0)
(0.100228 0.00379901 0)
(0.100278 0.00387692 0)
(0.100332 0.00395585 0)
(0.100388 0.00403575 0)
(0.100448 0.00411651 0)
(0.100511 0.00419807 0)
(0.100578 0.00428033 0)
(0.100648 0.00436318 0)
(0.100722 0.00444651 0)
(0.1008 0.0045302 0)
(0.100882 0.00461411 0)
(0.100969 0.00469808 0)
(0.10106 0.00478197 0)
(0.101155 0.00486557 0)
(0.101255 0.0049487 0)
(0.101359 0.00503112 0)
(0.100305 0.00374933 0)
(0.100357 0.0038244 0)
(0.100411 0.00390037 0)
(0.100469 0.00397715 0)
(0.100529 0.00405467 0)
(0.100593 0.00413285 0)
(0.10066 0.00421158 0)
(0.100731 0.00429077 0)
(0.100805 0.00437029 0)
(0.100884 0.00445003 0)
(0.100966 0.00452985 0)
(0.101052 0.0046096 0)
(0.101142 0.00468911 0)
(0.101237 0.00476822 0)
(0.101337 0.00484672 0)
(0.10144 0.00492439 0)
(0.0999998 2.81899e-05 0)
(0.0999971 8.38782e-05 0)
(0.0999915 0.000138678 0)
(0.0999833 0.000192878 0)
(0.0999727 0.000246692 0)
(0.0999598 0.000300238 0)
(0.0999447 0.000353712 0)
(0.0999276 0.000407835 0)
(0.0999085 0.000464376 0)
(0.0999998 2.87056e-05 0)
(0.0999972 8.54123e-05 0)
(0.0999918 0.000141211 0)
(0.0999839 0.000196394 0)
(0.0999736 0.000251177 0)
(0.0999612 0.000305676 0)
(0.0999467 0.000360088 0)
(0.0999302 0.000415154 0)
(0.0999118 0.000472699 0)
(0.0998913 0.000535841 0)
(0.0998683 0.000608554 0)
(0.0998422 0.000694584 0)
(0.099812 0.000796137 0)
(0.0997769 0.000912844 0)
(0.0997364 0.00104144 0)
(0.0996903 0.00117628 0)
(0.0996386 0.00131042 0)
(0.0995823 0.00143701 0)
(0.0995224 0.00155044 0)
(0.0994601 0.00164714 0)
(0.0993969 0.00172584 0)
(0.099334 0.00178734 0)
(0.0992724 0.00183404 0)
(0.0992129 0.00186931 0)
(0.099156 0.00189689 0)
(0.0991021 0.00192039 0)
(0.0990511 0.00194298 0)
(0.099003 0.00196722 0)
(0.0989576 0.00199497 0)
(0.0989147 0.00202751 0)
(0.098874 0.00206556 0)
(0.0988352 0.00210942 0)
(0.0987983 0.00215914 0)
(0.0987629 0.00221452 0)
(0.098729 0.00227527 0)
(0.0986963 0.00234106 0)
(0.098665 0.00241152 0)
(0.0986348 0.00248631 0)
(0.0986058 0.00256513 0)
(0.0985781 0.00264768 0)
(0.0985515 0.00273372 0)
(0.0985263 0.00282305 0)
(0.0985023 0.00291549 0)
(0.0984797 0.00301087 0)
(0.0984586 0.00310906 0)
(0.098439 0.00320995 0)
(0.098421 0.00331341 0)
(0.0984046 0.00341936 0)
(0.09839 0.00352769 0)
(0.0983772 0.00363831 0)
(0.0983663 0.00375114 0)
(0.0983574 0.00386609 0)
(0.0983506 0.00398306 0)
(0.0983459 0.00410197 0)
(0.0983434 0.00422272 0)
(0.0999998 2.92027e-05 0)
(0.0999973 8.6891e-05 0)
(0.0999921 0.000143653 0)
(0.0999845 0.000199783 0)
(0.0999746 0.000255498 0)
(0.0999626 0.000310913 0)
(0.0999487 0.000366225 0)
(0.0999328 0.000422197 0)
(0.0999151 0.00048071 0)
(0.0998954 0.000544982 0)
(0.0998733 0.00061911 0)
(0.0998479 0.000706954 0)
(0.0998186 0.000810776 0)
(0.0997843 0.000930177 0)
(0.0997446 0.00106177 0)
(0.0996991 0.0011997 0)
(0.0996482 0.00133679 0)
(0.0995926 0.00146597 0)
(0.0995335 0.00158146 0)
(0.0994723 0.0016796 0)
(0.0994102 0.00175907 0)
(0.0993487 0.00182074 0)
(0.0992887 0.00186708 0)
(0.0992311 0.00190161 0)
(0.0991763 0.00192818 0)
(0.0991246 0.00195052 0)
(0.0990761 0.00197191 0)
(0.0990307 0.00199496 0)
(0.0989881 0.00202162 0)
(0.0989481 0.00205316 0)
(0.0989104 0.00209032 0)
(0.0988748 0.00213342 0)
(0.098841 0.00218246 0)
(0.0988088 0.00223725 0)
(0.0987782 0.00229747 0)
(0.0987489 0.00236276 0)
(0.0987209 0.00243274 0)
(0.0986942 0.00250704 0)
(0.0986687 0.00258533 0)
(0.0986445 0.00266733 0)
(0.0986215 0.00275276 0)
(0.0985999 0.0028414 0)
(0.0985797 0.00293307 0)
(0.0985608 0.0030276 0)
(0.0985435 0.00312484 0)
(0.0985277 0.00322465 0)
(0.0985136 0.00332694 0)
(0.0985012 0.00343158 0)
(0.0984906 0.00353847 0)
(0.0984819 0.00364753 0)
(0.0984751 0.00375865 0)
(0.0984703 0.00387174 0)
(0.0984676 0.0039867 0)
(0.0984671 0.00410345 0)
(0.0984688 0.00422189 0)
(0.0999998 2.96811e-05 0)
(0.0999974 8.8314e-05 0)
(0.0999924 0.000146002 0)
(0.0999851 0.000203043 0)
(0.0999756 0.000259654 0)
(0.0999641 0.000315947 0)
(0.0999507 0.000372123 0)
(0.0999355 0.000428963 0)
(0.0999185 0.000488408 0)
(0.0998996 0.000553781 0)
(0.0998782 0.000629305 0)
(0.0998537 0.000718956 0)
(0.0998252 0.000825052 0)
(0.0997917 0.000947158 0)
(0.0997527 0.00108175 0)
(0.0997079 0.00122277 0)
(0.0996577 0.00136281 0)
(0.0996028 0.00149454 0)
(0.0995446 0.00161203 0)
(0.0994843 0.0017115 0)
(0.0994234 0.00179162 0)
(0.0993632 0.00185331 0)
(0.0993048 0.00189916 0)
(0.0992491 0.00193279 0)
(0.0991964 0.0019582 0)
(0.099147 0.00197924 0)
(0.099101 0.00199928 0)
(0.0990582 0.00202104 0)
(0.0990184 0.00204648 0)
(0.0989813 0.00207692 0)
(0.0989467 0.00211311 0)
(0.0989141 0.00215535 0)
(0.0988835 0.00220363 0)
(0.0988546 0.00225775 0)
(0.0988272 0.00231736 0)
(0.0988012 0.00238206 0)
(0.0987766 0.00245147 0)
(0.0987533 0.0025252 0)
(0.0987312 0.00260289 0)
(0.0987105 0.00268424 0)
(0.098691 0.00276896 0)
(0.098673 0.00285683 0)
(0.0986563 0.00294763 0)
(0.0986412 0.0030412 0)
(0.0986275 0.00313738 0)
(0.0986155 0.00323603 0)
(0.0986051 0.00333702 0)
(0.0985965 0.00344025 0)
(0.0985898 0.0035456 0)
(0.0985849 0.00365298 0)
(0.0985821 0.00376228 0)
(0.0985812 0.00387341 0)
(0.0985825 0.00398626 0)
(0.098586 0.00410074 0)
(0.0985917 0.00421676 0)
(0.0999998 3.01405e-05 0)
(0.0999975 8.96807e-05 0)
(0.0999927 0.000148258 0)
(0.0999857 0.000206173 0)
(0.0999766 0.000263643 0)
(0.0999656 0.000320778 0)
(0.0999527 0.000377779 0)
(0.0999381 0.000435449 0)
(0.0999219 0.000495792 0)
(0.0999037 0.000562236 0)
(0.0998832 0.000639137 0)
(0.0998595 0.00073059 0)
(0.0998318 0.000838968 0)
(0.0997991 0.000963795 0)
(0.0997608 0.00110141 0)
(0.0997167 0.00124553 0)
(0.0996671 0.00138848 0)
(0.0996129 0.00152273 0)
(0.0995554 0.00164214 0)
(0.0994961 0.00174285 0)
(0.0994363 0.00182351 0)
(0.0993775 0.00188508 0)
(0.0993207 0.00193028 0)
(0.0992668 0.00196285 0)
(0.0992163 0.00198694 0)
(0.0991692 0.00200654 0)
(0.0991257 0.00202511 0)
(0.0990856 0.00204544 0)
(0.0990487 0.00206955 0)
(0.0990145 0.00209879 0)
(0.0989828 0.00213391 0)
(0.0989534 0.00217521 0)
(0.0989259 0.00222266 0)
(0.0989002 0.00227602 0)
(0.098876 0.00233494 0)
(0.0988533 0.002399 0)
(0.098832 0.00246777 0)
(0.098812 0.00254084 0)
(0.0987933 0.00261785 0)
(0.098776 0.00269847 0)
(0.09876 0.0027824 0)
(0.0987454 0.0028694 0)
(0.0987322 0.00295925 0)
(0.0987206 0.00305177 0)
(0.0987105 0.00314679 0)
(0.0987021 0.00324418 0)
(0.0986954 0.00334379 0)
(0.0986905 0.00344551 0)
(0.0986874 0.00354922 0)
(0.0986863 0.00365482 0)
(0.0986872 0.00376221 0)
(0.0986901 0.00387128 0)
(0.0986952 0.00398193 0)
(0.0987024 0.00409406 0)
(0.0987119 0.00420756 0)
(0.0999998 3.0581e-05 0)
(0.0999976 9.0991e-05 0)
(0.099993 0.000150421 0)
(0.0999863 0.000209173 0)
(0.0999776 0.000267466 0)
(0.099967 0.000325405 0)
(0.0999547 0.000383192 0)
(0.0999408 0.000441654 0)
(0.0999253 0.00050286 0)
(0.0999079 0.000570347 0)
(0.0998882 0.00064861 0)
(0.0998654 0.000741863 0)
(0.0998384 0.000852534 0)
(0.0998065 0.000980101 0)
(0.0997688 0.00112075 0)
(0.0997253 0.00126798 0)
(0.0996763 0.00141385 0)
(0.0996228 0.00155057 0)
(0.0995661 0.00167183 0)
(0.0995076 0.00177366 0)
(0.099449 0.00185473 0)
(0.0993916 0.00191604 0)
(0.0993364 0.00196043 0)
(0.0992844 0.00199179 0)
(0.0992359 0.00201441 0)
(0.0991913 0.00203241 0)
(0.0991503 0.00204937 0)
(0.0991129 0.00206815 0)
(0.0990787 0.00209083 0)
(0.0990475 0.00211877 0)
(0.0990189 0.00215273 0)
(0.0989925 0.00219301 0)
(0.0989681 0.00223955 0)
(0.0989456 0.00229209 0)
(0.0989246 0.00235026 0)
(0.0989051 0.00241359 0)
(0.0988871 0.00248165 0)
(0.0988703 0.002554 0)
(0.098855 0.00263026 0)
(0.098841 0.00271007 0)
(0.0988283 0.00279314 0)
(0.0988171 0.00287919 0)
(0.0988074 0.00296801 0)
(0.0987991 0.0030594 0)
(0.0987925 0.00315319 0)
(0.0987876 0.00324922 0)
(0.0987844 0.00334736 0)
(0.098783 0.00344748 0)
(0.0987835 0.00354947 0)
(0.0987859 0.00365321 0)
(0.0987904 0.0037586 0)
(0.0987969 0.00386553 0)
(0.0988055 0.0039739 0)
(0.0988163 0.0040836 0)
(0.0988294 0.00419453 0)
(0.0999998 3.10025e-05 0)
(0.0999978 9.22446e-05 0)
(0.0999933 0.00015249 0)
(0.0999869 0.000212043 0)
(0.0999786 0.00027112 0)
(0.0999685 0.000329826 0)
(0.0999568 0.000388361 0)
(0.0999435 0.000447578 0)
(0.0999287 0.000509611 0)
(0.0999121 0.000578115 0)
(0.0998932 0.000657725 0)
(0.0998712 0.000752778 0)
(0.0998451 0.000865756 0)
(0.0998138 0.000996086 0)
(0.0997768 0.0011398 0)
(0.0997339 0.00129014 0)
(0.0996855 0.0014389 0)
(0.0996326 0.00157805 0)
(0.0995766 0.00170109 0)
(0.099519 0.00180395 0)
(0.0994615 0.00188529 0)
(0.0994054 0.00194619 0)
(0.0993519 0.00198961 0)
(0.0993018 0.00201959 0)
(0.0992554 0.00204059 0)
(0.0992131 0.00205684 0)
(0.0991747 0.00207206 0)
(0.09914 0.00208917 0)
(0.0991087 0.00211031 0)
(0.0990804 0.00213686 0)
(0.0990548 0.00216958 0)
(0.0990315 0.00220876 0)
(0.0990102 0.00225433 0)
(0.0989908 0.00230599 0)
(0.098973 0.00236333 0)
(0.0989567 0.00242588 0)
(0.0989418 0.00249317 0)
(0.0989283 0.00256474 0)
(0.0989161 0.00264018 0)
(0.0989054 0.00271913 0)
(0.098896 0.00280126 0)
(0.098888 0.0028863 0)
(0.0988816 0.00297401 0)
(0.0988767 0.00306419 0)
(0.0988734 0.00315667 0)
(0.0988718 0.00325127 0)
(0.098872 0.00334786 0)
(0.098874 0.00344632 0)
(0.0988779 0.0035465 0)
(0.0988837 0.00364832 0)
(0.0988915 0.00375164 0)
(0.0989014 0.00385636 0)
(0.0989135 0.00396238 0)
(0.0989277 0.00406959 0)
(0.0989442 0.00417788 0)
(0.0999999 3.14047e-05 0)
(0.0999979 9.34411e-05 0)
(0.0999936 0.000154464 0)
(0.0999875 0.000214781 0)
(0.0999796 0.000274606 0)
(0.09997 0.00033404 0)
(0.0999588 0.000393285 0)
(0.0999462 0.000453218 0)
(0.0999321 0.000516044 0)
(0.0999163 0.000585539 0)
(0.0998982 0.000666483 0)
(0.099877 0.000763339 0)
(0.0998516 0.000878642 0)
(0.0998211 0.00101176 0)
(0.0997847 0.00115856 0)
(0.0997424 0.00131202 0)
(0.0996945 0.00146367 0)
(0.0996422 0.00160521 0)
(0.0995869 0.00172994 0)
(0.0995302 0.00183372 0)
(0.0994738 0.00191519 0)
(0.0994191 0.00197552 0)
(0.0993672 0.00201781 0)
(0.099319 0.00204626 0)
(0.0992748 0.00206546 0)
(0.0992349 0.00207983 0)
(0.099199 0.00209317 0)
(0.099167 0.00210849 0)
(0.0991385 0.00212799 0)
(0.0991132 0.00215306 0)
(0.0990905 0.00218447 0)
(0.0990703 0.00222248 0)
(0.0990521 0.00226701 0)
(0.0990358 0.00231773 0)
(0.0990211 0.0023742 0)
(0.0990079 0.00243591 0)
(0.0989961 0.00250238 0)
(0.0989858 0.00257311 0)
(0.0989768 0.00264767 0)
(0.0989692 0.00272569 0)
(0.098963 0.00280682 0)
(0.0989582 0.00289079 0)
(0.0989549 0.00297733 0)
(0.0989532 0.00306624 0)
(0.0989532 0.00315734 0)
(0.0989548 0.00325045 0)
(0.0989582 0.00334543 0)
(0.0989634 0.00344214 0)
(0.0989705 0.00354047 0)
(0.0989796 0.00364028 0)
(0.0989907 0.00374147 0)
(0.0990038 0.00384393 0)
(0.099019 0.00394755 0)
(0.0990365 0.00405222 0)
(0.0990561 0.00415783 0)
(0.0999999 3.17878e-05 0)
(0.099998 9.45806e-05 0)
(0.0999939 0.000156344 0)
(0.0999881 0.000217387 0)
(0.0999806 0.000277924 0)
(0.0999715 0.000338048 0)
(0.0999609 0.000397964 0)
(0.0999489 0.000458575 0)
(0.0999355 0.000522161 0)
(0.0999205 0.00059262 0)
(0.0999033 0.000674887 0)
(0.0998829 0.000773552 0)
(0.0998582 0.0008912 0)
(0.0998283 0.00102714 0)
(0.0997926 0.00117704 0)
(0.0997507 0.00133364 0)
(0.0997034 0.00148817 0)
(0.0996517 0.00163204 0)
(0.0995971 0.00175839 0)
(0.0995413 0.00186297 0)
(0.099486 0.00194443 0)
(0.0994326 0.00200404 0)
(0.0993824 0.00204503 0)
(0.0993361 0.00207177 0)
(0.0992941 0.00208903 0)
(0.0992565 0.00210136 0)
(0.0992232 0.00211269 0)
(0.099194 0.00212612 0)
(0.0991683 0.00214387 0)
(0.0991459 0.00216738 0)
(0.0991262 0.0021974 0)
(0.099109 0.00223418 0)
(0.0990938 0.00227761 0)
(0.0990805 0.00232734 0)
(0.0990689 0.00238289 0)
(0.0990588 0.00244373 0)
(0.0990501 0.00250932 0)
(0.0990428 0.00257916 0)
(0.0990369 0.0026528 0)
(0.0990323 0.00272984 0)
(0.0990292 0.00280992 0)
(0.0990275 0.00289275 0)
(0.0990273 0.00297807 0)
(0.0990287 0.00306565 0)
(0.0990317 0.00315531 0)
(0.0990365 0.00324687 0)
(0.0990429 0.00334018 0)
(0.0990512 0.0034351 0)
(0.0990614 0.00353151 0)
(0.0990736 0.00362928 0)
(0.0990877 0.00372829 0)
(0.0991039 0.00382843 0)
(0.0991221 0.00392961 0)
(0.0991426 0.00403169 0)
(0.0991651 0.00413459 0)
(0.0999999 3.21517e-05 0)
(0.0999981 9.56628e-05 0)
(0.0999943 0.000158129 0)
(0.0999887 0.000219861 0)
(0.0999816 0.000281072 0)
(0.099973 0.000341849 0)
(0.0999629 0.000402398 0)
(0.0999516 0.000463649 0)
(0.099939 0.00052796 0)
(0.0999247 0.00059936 0)
(0.0999083 0.00068294 0)
(0.0998887 0.000783421 0)
(0.0998648 0.000903436 0)
(0.0998356 0.00104222 0)
(0.0998004 0.00119526 0)
(0.0997591 0.00135501 0)
(0.0997123 0.00151239 0)
(0.0996611 0.00165856 0)
(0.0996072 0.00178644 0)
(0.0995523 0.00189171 0)
(0.0994981 0.00197302 0)
(0.0994461 0.00203174 0)
(0.0993975 0.00207126 0)
(0.0993532 0.00209612 0)
(0.0993133 0.00211128 0)
(0.0992782 0.00212144 0)
(0.0992475 0.00213063 0)
(0.0992209 0.00214205 0)
(0.0991981 0.00215796 0)
(0.0991785 0.00217983 0)
(0.0991618 0.00220839 0)
(0.0991476 0.0022439 0)
(0.0991354 0.00228618 0)
(0.0991251 0.00233487 0)
(0.0991165 0.00238946 0)
(0.0991094 0.00244937 0)
(0.0991037 0.00251404 0)
(0.0990994 0.00258296 0)
(0.0990964 0.00265563 0)
(0.0990949 0.00273164 0)
(0.0990947 0.00281063 0)
(0.099096 0.00289228 0)
(0.0990988 0.00297632 0)
(0.0991031 0.00306253 0)
(0.0991091 0.0031507 0)
(0.0991168 0.00324066 0)
(0.0991262 0.00333225 0)
(0.0991374 0.00342533 0)
(0.0991505 0.00351977 0)
(0.0991656 0.00361545 0)
(0.0991826 0.00371224 0)
(0.0992016 0.00381004 0)
(0.0992228 0.00390873 0)
(0.099246 0.00400821 0)
(0.0992714 0.00410837 0)
(0.0999999 3.24963e-05 0)
(0.0999982 9.66877e-05 0)
(0.0999946 0.00015982 0)
(0.0999893 0.000222204 0)
(0.0999826 0.000284051 0)
(0.0999744 0.000345443 0)
(0.099965 0.000406586 0)
(0.0999543 0.00046844 0)
(0.0999424 0.000533443 0)
(0.0999289 0.00060576 0)
(0.0999133 0.000690644 0)
(0.0998945 0.000792949 0)
(0.0998713 0.000915355 0)
(0.0998428 0.00105702 0)
(0.0998081 0.00121322 0)
(0.0997674 0.00137614 0)
(0.0997211 0.00153636 0)
(0.0996705 0.00168476 0)
(0.0996173 0.00181409 0)
(0.0995632 0.00191992 0)
(0.0995102 0.00200093 0)
(0.0994596 0.00205861 0)
(0.0994127 0.00209648 0)
(0.0993703 0.00211931 0)
(0.0993327 0.00213221 0)
(0.0992999 0.00214005 0)
(0.0992718 0.00214698 0)
(0.0992479 0.00215629 0)
(0.0992279 0.00217028 0)
(0.0992112 0.00219042 0)
(0.0991974 0.00221748 0)
(0.0991861 0.00225164 0)
(0.0991769 0.00229274 0)
(0.0991696 0.00234036 0)
(0.0991639 0.00239394 0)
(0.0991597 0.00245289 0)
(0.0991569 0.00251662 0)
(0.0991555 0.00258456 0)
(0.0991554 0.00265623 0)
(0.0991567 0.00273118 0)
(0.0991594 0.00280903 0)
(0.0991636 0.00288946 0)
(0.0991692 0.00297219 0)
(0.0991764 0.00305697 0)
(0.0991852 0.00314362 0)
(0.0991957 0.00323193 0)
(0.0992079 0.00332177 0)
(0.0992219 0.00341297 0)
(0.0992378 0.00350541 0)
(0.0992556 0.00359896 0)
(0.0992754 0.0036935 0)
(0.0992971 0.00378892 0)
(0.0993209 0.00388511 0)
(0.0993467 0.00398197 0)
(0.0993747 0.00407938 0)
(0.0999999 3.28217e-05 0)
(0.0999983 9.76554e-05 0)
(0.0999949 0.000161416 0)
(0.09999 0.000224414 0)
(0.0999836 0.00028686 0)
(0.0999759 0.00034883 0)
(0.099967 0.000410529 0)
(0.099957 0.000472949 0)
(0.0999458 0.000538611 0)
(0.0999331 0.000611822 0)
(0.0999183 0.000698001 0)
(0.0999003 0.000802139 0)
(0.0998778 0.000926959 0)
(0.0998499 0.00107153 0)
(0.0998159 0.00123093 0)
(0.0997756 0.00139701 0)
(0.0997299 0.00156005 0)
(0.0996799 0.00171064 0)
(0.0996274 0.00184133 0)
(0.0995743 0.00194759 0)
(0.0995224 0.00202816 0)
(0.0994732 0.00208463 0)
(0.0994281 0.0021207 0)
(0.0993876 0.00214133 0)
(0.0993522 0.00215182 0)
(0.0993218 0.0021572 0)
(0.0992962 0.00216175 0)
(0.0992751 0.00216884 0)
(0.0992579 0.00218083 0)
(0.099244 0.00219919 0)
(0.0992331 0.00222468 0)
(0.0992247 0.00225746 0)
(0.0992183 0.00229733 0)
(0.0992139 0.00234384 0)
(0.099211 0.00239639 0)
(0.0992097 0.00245435 0)
(0.0992097 0.0025171 0)
(0.0992111 0.00258405 0)
(0.0992139 0.00265468 0)
(0.0992179 0.00272854 0)
(0.0992234 0.00280522 0)
(0.0992303 0.00288439 0)
(0.0992386 0.00296576 0)
(0.0992485 0.0030491 0)
(0.09926 0.00313417 0)
(0.0992732 0.00322081 0)
(0.0992881 0.00330885 0)
(0.0993048 0.00339815 0)
(0.0993233 0.00348855 0)
(0.0993437 0.00357995 0)
(0.099366 0.00367222 0)
(0.0993903 0.00376525 0)
(0.0994165 0.00385893 0)
(0.0994448 0.00395315 0)
(0.0994752 0.0040478 0)
(0.0999999 3.31278e-05 0)
(0.0999984 9.85658e-05 0)
(0.0999952 0.000162917 0)
(0.0999906 0.000226493 0)
(0.0999846 0.000289501 0)
(0.0999774 0.000352011 0)
(0.0999691 0.000414228 0)
(0.0999597 0.000477175 0)
(0.0999492 0.000543464 0)
(0.0999373 0.000617546 0)
(0.0999233 0.000705012 0)
(0.099906 0.000810992 0)
(0.0998843 0.000938247 0)
(0.0998571 0.00108576 0)
(0.0998236 0.00124837 0)
(0.099784 0.00141762 0)
(0.0997388 0.00158346 0)
(0.0996894 0.00173618 0)
(0.0996376 0.00186813 0)
(0.0995855 0.00197472 0)
(0.0995348 0.0020547 0)
(0.0994871 0.00210979 0)
(0.0994437 0.00214389 0)
(0.0994052 0.00216216 0)
(0.099372 0.00217009 0)
(0.099344 0.00217288 0)
(0.099321 0.00217495 0)
(0.0993025 0.00217973 0)
(0.099288 0.00218964 0)
(0.099277 0.00220616 0)
(0.0992689 0.00223002 0)
(0.0992633 0.00226139 0)
(0.0992598 0.0023 0)
(0.0992581 0.00234537 0)
(0.099258 0.00239687 0)
(0.0992595 0.00245381 0)
(0.0992622 0.00251556 0)
(0.0992663 0.00258149 0)
(0.0992717 0.00265106 0)
(0.0992785 0.00272379 0)
(0.0992866 0.00279927 0)
(0.0992961 0.00287716 0)
(0.0993071 0.00295715 0)
(0.0993195 0.003039 0)
(0.0993336 0.00312248 0)
(0.0993493 0.00320742 0)
(0.0993667 0.00329364 0)
(0.0993859 0.003381 0)
(0.0994069 0.00346935 0)
(0.0994297 0.00355858 0)
(0.0994544 0.00364857 0)
(0.0994811 0.00373919 0)
(0.0995097 0.00383035 0)
(0.0995403 0.00392193 0)
(0.0995729 0.00401384 0)
(0.0999999 3.34148e-05 0)
(0.0999985 9.94192e-05 0)
(0.0999955 0.000164324 0)
(0.0999912 0.000228441 0)
(0.0999856 0.000291974 0)
(0.0999789 0.000354986 0)
(0.0999711 0.000417682 0)
(0.0999624 0.000481121 0)
(0.0999526 0.000548004 0)
(0.0999415 0.000622934 0)
(0.0999282 0.000711678 0)
(0.0999118 0.000819505 0)
(0.0998908 0.000949216 0)
(0.0998643 0.00109969 0)
(0.0998314 0.00126553 0)
(0.0997923 0.00143796 0)
(0.0997477 0.00160657 0)
(0.099699 0.00176137 0)
(0.0996481 0.00189449 0)
(0.099597 0.00200127 0)
(0.0995475 0.00208051 0)
(0.0995014 0.00213407 0)
(0.0994597 0.00216605 0)
(0.0994232 0.0021818 0)
(0.0993922 0.00218704 0)
(0.0993666 0.00218712 0)
(0.0993462 0.00218659 0)
(0.0993303 0.00218898 0)
(0.0993185 0.00219673 0)
(0.0993102 0.00221136 0)
(0.0993048 0.00223356 0)
(0.099302 0.00226348 0)
(0.0993012 0.00230081 0)
(0.0993023 0.00234501 0)
(0.0993049 0.00239543 0)
(0.099309 0.00245134 0)
(0.0993144 0.00251206 0)
(0.0993211 0.00257695 0)
(0.0993291 0.00264544 0)
(0.0993384 0.00271702 0)
(0.099349 0.00279129 0)
(0.099361 0.00286786 0)
(0.0993745 0.00294645 0)
(0.0993894 0.00302679 0)
(0.0994059 0.00310866 0)
(0.0994241 0.00319187 0)
(0.0994439 0.00327626 0)
(0.0994654 0.00336166 0)
(0.0994887 0.00344795 0)
(0.0995138 0.003535 0)
(0.0995408 0.00362269 0)
(0.0995696 0.00371091 0)
(0.0996004 0.00379955 0)
(0.0996331 0.0038885 0)
(0.0996677 0.00397767 0)
(0.0999999 3.36826e-05 0)
(0.0999986 0.000100216 0)
(0.0999958 0.000165636 0)
(0.0999918 0.000230257 0)
(0.0999866 0.000294278 0)
(0.0999804 0.000357755 0)
(0.0999731 0.000420894 0)
(0.099965 0.000484787 0)
(0.099956 0.000552232 0)
(0.0999456 0.000627987 0)
(0.0999332 0.000717999 0)
(0.0999175 0.000827677 0)
(0.0998973 0.000959859 0)
(0.0998715 0.00111331 0)
(0.0998393 0.0012824 0)
(0.0998008 0.001458 0)
(0.0997569 0.00162935 0)
(0.099709 0.00178616 0)
(0.099659 0.00192035 0)
(0.0996089 0.00202721 0)
(0.0995608 0.00210558 0)
(0.0995162 0.00215746 0)
(0.0994763 0.00218716 0)
(0.0994418 0.00220025 0)
(0.099413 0.00220265 0)
(0.0993898 0.00219991 0)
(0.0993718 0.0021967 0)
(0.0993586 0.00219661 0)
(0.0993494 0.00220215 0)
(0.0993438 0.00221483 0)
(0.0993411 0.00223534 0)
(0.0993409 0.00226378 0)
(0.0993428 0.0022998 0)
(0.0993464 0.00234283 0)
(0.0993517 0.00239215 0)
(0.0993583 0.00244701 0)
(0.0993662 0.0025067 0)
(0.0993754 0.00257053 0)
(0.0993859 0.00263791 0)
(0.0993976 0.00270833 0)
(0.0994107 0.00278135 0)
(0.0994251 0.0028566 0)
(0.0994409 0.00293377 0)
(0.0994582 0.00301258 0)
(0.099477 0.00309282 0)
(0.0994974 0.00317429 0)
(0.0995195 0.00325683 0)
(0.0995432 0.00334027 0)
(0.0995687 0.00342448 0)
(0.0995959 0.00350935 0)
(0.099625 0.00359474 0)
(0.0996559 0.00368056 0)
(0.0996887 0.00376668 0)
(0.0997233 0.00385302 0)
(0.0997599 0.00393947 0)
(0.0999999 3.39314e-05 0)
(0.0999987 0.000100955 0)
(0.0999961 0.000166855 0)
(0.0999924 0.000231943 0)
(0.0999876 0.000296416 0)
(0.0999818 0.00036032 0)
(0.0999752 0.000423864 0)
(0.0999677 0.000488175 0)
(0.0999594 0.000556149 0)
(0.0999498 0.000632705 0)
(0.0999381 0.000723972 0)
(0.0999233 0.000835501 0)
(0.0999038 0.000970163 0)
(0.0998787 0.00112661 0)
(0.0998473 0.00129895 0)
(0.0998095 0.00147771 0)
(0.0997664 0.00165177 0)
(0.0997193 0.00181051 0)
(0.0996702 0.00194569 0)
(0.0996214 0.0020525 0)
(0.0995746 0.00212986 0)
(0.0995316 0.00217992 0)
(0.0994936 0.0022072 0)
(0.0994612 0.0022175 0)
(0.0994346 0.00221695 0)
(0.0994137 0.00221128 0)
(0.0993982 0.00220529 0)
(0.0993875 0.00220267 0)
(0.0993809 0.00220594 0)
(0.0993778 0.00221663 0)
(0.0993777 0.00223542 0)
(0.0993801 0.00226235 0)
(0.0993845 0.00229705 0)
(0.0993907 0.00233888 0)
(0.0993984 0.0023871 0)
(0.0994075 0.0024409 0)
(0.0994178 0.00249953 0)
(0.0994294 0.00256229 0)
(0.0994422 0.00262856 0)
(0.0994563 0.0026978 0)
(0.0994716 0.00276957 0)
(0.0994883 0.00284348 0)
(0.0995063 0.00291921 0)
(0.0995258 0.00299648 0)
(0.0995468 0.00307508 0)
(0.0995694 0.0031548 0)
(0.0995935 0.00323547 0)
(0.0996193 0.00331694 0)
(0.0996469 0.00339908 0)
(0.0996761 0.00348176 0)
(0.0997071 0.00356487 0)
(0.0997399 0.00364829 0)
(0.0997745 0.00373192 0)
(0.099811 0.00381566 0)
(0.0998493 0.00389941 0)
(0.0999999 3.41611e-05 0)
(0.0999988 0.000101639 0)
(0.0999964 0.00016798 0)
(0.099993 0.000233499 0)
(0.0999886 0.000298387 0)
(0.0999833 0.000362682 0)
(0.0999772 0.000426594 0)
(0.0999703 0.000491287 0)
(0.0999627 0.000559758 0)
(0.0999539 0.000637088 0)
(0.099943 0.000729594 0)
(0.099929 0.000842969 0)
(0.0999104 0.000980113 0)
(0.0998861 0.00113956 0)
(0.0998554 0.00131514 0)