/*--------------------------------*- C++ -*----------------------------------*\
| =========                 |                                                 |
| \\      /  F ield         | OpenFOAM: The Open Source CFD Toolbox           |
|  \\    /   O peration     | Version:  2412                                  |
|   \\  /    A nd           | Website:  www.openfoam.com                      |
|    \\/     M anipulation  |                                                 |
\*---------------------------------------------------------------------------*/
FoamFile
{
    version     2.0;
    format      ascii;
    arch        "LSB;label=32;scalar=64";
    class       volVectorField;
    location    "24.5";
    object      vorticity;
}
// * * * * * * * * * * * * * * * * * * * * * * * * * * * * * * * * * * * * * //

dimensions      [0 0 -1 0 0 0 0];

internalField   nonuniform List<vector> 
5285
(
(0 -0 4.39059e-06)
(0 -0 4.46968e-06)
(0 -0 4.60549e-06)
(0 -0 4.72254e-06)
(0 -0 4.81221e-06)
(0 -0 4.88465e-06)
(0 -0 4.9616e-06)
(0 -0 5.04495e-06)
(0 -0 5.13586e-06)
(0 -0 5.23407e-06)
(0 -0 5.33563e-06)
(0 -0 5.42599e-06)
(0 -0 5.45909e-06)
(0 -0 5.31426e-06)
(0 -0 4.83208e-06)
(0 -0 4.22523e-06)
(0 -0 4.77074e-06)
(0 -0 4.87346e-06)
(0 -0 5.00463e-06)
(0 -0 5.15627e-06)
(0 -0 5.26703e-06)
(0 -0 5.35758e-06)
(0 -0 5.45244e-06)
(0 -0 5.5536e-06)
(0 -0 5.66226e-06)
(0 -0 5.77824e-06)
(0 -0 5.89749e-06)
(0 -0 6.00498e-06)
(0 -0 6.05215e-06)
(0 -0 5.90533e-06)
(0 -0 5.4036e-06)
(0 -0 4.67272e-06)
(0 -0 4.72797e-06)
(0 -0 4.82753e-06)
(0 -0 4.98641e-06)
(0 -0 5.15135e-06)
(0 -0 5.27061e-06)
(0 -0 5.36951e-06)
(0 -0 5.47286e-06)
(0 -0 5.58254e-06)
(0 -0 5.69979e-06)
(0 -0 5.82435e-06)
(0 -0 5.95206e-06)
(0 -0 6.06772e-06)
(0 -0 6.12176e-06)
(0 -0 5.97996e-06)
(0 -0 5.4521e-06)
(0 -0 4.75931e-06)
(0 -0 4.39698e-06)
(0 -0 4.50771e-06)
(0 -0 4.67472e-06)
(0 -0 4.84452e-06)
(0 -0 4.96743e-06)
(0 -0 5.06959e-06)
(0 -0 5.17618e-06)
(0 -0 5.28909e-06)
(0 -0 5.40953e-06)
(0 -0 5.53721e-06)
(0 -0 5.66797e-06)
(0 -0 5.78658e-06)
(0 -0 5.84333e-06)
(0 -0 5.70517e-06)
(0 -0 5.19806e-06)
(0 -0 4.52466e-06)
(0 -0 3.94352e-06)
(0 -0 4.06103e-06)
(0 -0 4.23467e-06)
(0 -0 4.41039e-06)
(0 -0 4.53826e-06)
(0 -0 4.64488e-06)
(0 -0 4.75584e-06)
(0 -0 4.87306e-06)
(0 -0 4.99779e-06)
(0 -0 5.12974e-06)
(0 -0 5.26482e-06)
(0 -0 5.38779e-06)
(0 -0 5.44912e-06)
(0 -0 5.31661e-06)
(0 -0 4.82153e-06)
(0 -0 4.18045e-06)
(0 -0 3.37881e-06)
(0 -0 3.50513e-06)
(0 -0 3.68797e-06)
(0 -0 3.87264e-06)
(0 -0 4.00865e-06)
(0 -0 4.12302e-06)
(0 -0 4.24166e-06)
(0 -0 4.36656e-06)
(0 -0 4.49901e-06)
(0 -0 4.6388e-06)
(0 -0 4.78186e-06)
(0 -0 4.91305e-06)
(0 -0 4.98298e-06)
(0 -0 4.85965e-06)
(0 -0 4.37536e-06)
(0 -0 3.75007e-06)
(0 -0 2.66129e-06)
(0 -0 2.79961e-06)
(0 -0 2.99472e-06)
(0 -0 3.19152e-06)
(0 -0 3.33904e-06)
(0 -0 3.46462e-06)
(0 -0 3.5945e-06)
(0 -0 3.73075e-06)
(0 -0 3.87472e-06)
(0 -0 4.02625e-06)
(0 -0 4.18135e-06)
(0 -0 4.32496e-06)
(0 -0 4.40778e-06)
(0 -0 4.29769e-06)
(0 -0 3.82637e-06)
(0 -0 3.21445e-06)
(0 -0 1.74527e-06)
(0 -0 1.89884e-06)
(0 -0 2.10943e-06)
(0 -0 2.32156e-06)
(0 -0 2.48392e-06)
(0 -0 2.62419e-06)
(0 -0 2.76891e-06)
(0 -0 2.92025e-06)
(0 -0 3.07963e-06)
(0 -0 3.24695e-06)
(0 -0 3.4183e-06)
(0 -0 3.5787e-06)
(0 -0 3.67894e-06)
(0 -0 3.58664e-06)
(0 -0 3.13236e-06)
(0 -0 2.53653e-06)
(0 -0 5.83753e-07)
(0 -0 7.55603e-07)
(0 -0 9.84637e-07)
(0 -0 1.21513e-06)
(0 -0 1.39551e-06)
(0 -0 1.5538e-06)
(0 -0 1.71686e-06)
(0 -0 1.88695e-06)
(0 -0 2.06557e-06)
(0 -0 2.25268e-06)
(0 -0 2.44447e-06)
(0 -0 2.62607e-06)
(0 -0 2.74836e-06)
(0 -0 2.67867e-06)
(0 -0 2.24642e-06)
(0 -0 1.67151e-06)
(0 -0 -8.68688e-07)
(0 -0 -6.75907e-07)
(0 -0 -4.25802e-07)
(0 -0 -1.74203e-07)
(0 -0 2.70926e-08)
(0 -0 2.06494e-07)
(0 -0 3.91155e-07)
(0 -0 5.83433e-07)
(0 -0 7.84924e-07)
(0 -0 9.95687e-07)
(0 -0 1.212e-06)
(0 -0 1.41913e-06)
(0 -0 1.56805e-06)
(0 -0 1.5259e-06)
(0 -0 1.12101e-06)
(0 -0 5.72699e-07)
(0 -0 -2.65337e-06)
(0 -0 -2.43746e-06)
(0 -0 -2.16405e-06)
(0 -0 -1.889e-06)
(0 -0 -1.66422e-06)
(0 -0 -1.46098e-06)
(0 -0 -1.25179e-06)
(0 -0 -1.03419e-06)
(0 -0 -8.06468e-07)
(0 -0 -5.68458e-07)
(0 -0 -3.23762e-07)
(0 -0 -8.69634e-08)
(0 -0 9.30401e-08)
(0 -0 8.32776e-08)
(0 -0 -2.88892e-07)
(0 -0 -8.04719e-07)
(0 -0 -4.80514e-06)
(0 -0 -4.56443e-06)
(0 -0 -4.26595e-06)
(0 -0 -3.96559e-06)
(0 -0 -3.71523e-06)
(0 -0 -3.48584e-06)
(0 -0 -3.24963e-06)
(0 -0 -3.00397e-06)
(0 -0 -2.74705e-06)
(0 -0 -2.47855e-06)
(0 -0 -2.20194e-06)
(0 -0 -1.93163e-06)
(0 -0 -1.71635e-06)
(0 -0 -1.68911e-06)
(0 -0 -2.02337e-06)
(0 -0 -2.50106e-06)
(0 -0 -7.35028e-06)
(0 -0 -7.08363e-06)
(0 -0 -6.75891e-06)
(0 -0 -6.43187e-06)
(0 -0 -6.1544e-06)
(0 -0 -5.8971e-06)
(0 -0 -5.63188e-06)
(0 -0 -5.35596e-06)
(0 -0 -5.06736e-06)
(0 -0 -4.76561e-06)
(0 -0 -4.45401e-06)
(0 -0 -4.1468e-06)
(0 -0 -3.89247e-06)
(0 -0 -3.82398e-06)
(0 -0 -4.11544e-06)
(0 -0 -4.54973e-06)
(0 -0 -1.03043e-05)
(0 -0 -1.00112e-05)
(0 -0 -9.65961e-06)
(0 -0 -9.30519e-06)
(0 -0 -8.99969e-06)
(0 -0 -8.71337e-06)
(0 -0 -8.41783e-06)
(0 -0 -8.1101e-06)
(0 -0 -7.78797e-06)
(0 -0 -7.45084e-06)
(0 -0 -7.10179e-06)
(0 -0 -6.75488e-06)
(0 -0 -6.45833e-06)
(0 -0 -6.34486e-06)
(0 -0 -6.5891e-06)
(0 -0 -6.97511e-06)
(0 -0 -1.36697e-05)
(0 -0 -1.33503e-05)
(0 -0 -1.2972e-05)
(0 -0 -1.25902e-05)
(0 -0 -1.22566e-05)
(0 -0 -1.19409e-05)
(0 -0 -1.16146e-05)
(0 -0 -1.12742e-05)
(0 -0 -1.09175e-05)
(0 -0 -1.05436e-05)
(0 -0 -1.01554e-05)
(0 -0 -9.76674e-06)
(0 -0 -9.42548e-06)
(0 -0 -9.26406e-06)
(0 -0 -9.4574e-06)
(0 -0 -9.79078e-06)
(0 -0 -1.74348e-05)
(0 -0 -1.70897e-05)
(0 -0 -1.66855e-05)
(0 -0 -1.62772e-05)
(0 -0 -1.59163e-05)
(0 -0 -1.5572e-05)
(0 -0 -1.52152e-05)
(0 -0 -1.48424e-05)
(0 -0 -1.44509e-05)
(0 -0 -1.40397e-05)
(0 -0 -1.36115e-05)
(0 -0 -1.31798e-05)
(0 -0 -1.27922e-05)
(0 -0 -1.25808e-05)
(0 -0 -1.27205e-05)
(0 -0 -1.29979e-05)
(0 -0 -2.15715e-05)
(0 -0 -2.1202e-05)
(0 -0 -2.07737e-05)
(0 -0 -2.0341e-05)
(0 -0 -1.99548e-05)
(0 -0 -1.95836e-05)
(0 -0 -1.91978e-05)
(0 -0 -1.87936e-05)
(0 -0 -1.8368e-05)
(0 -0 -1.79199e-05)
(0 -0 -1.74517e-05)
(0 -0 -1.69767e-05)
(0 -0 -1.65421e-05)
(0 -0 -1.62796e-05)
(0 -0 -1.63642e-05)
(0 -0 -1.65835e-05)
(0 -0 -2.60355e-05)
(0 -0 -2.56427e-05)
(0 -0 -2.51937e-05)
(0 -0 -2.47408e-05)
(0 -0 -2.43327e-05)
(0 -0 -2.39374e-05)
(0 -0 -2.3525e-05)
(0 -0 -2.30913e-05)
(0 -0 -2.26332e-05)
(0 -0 -2.21494e-05)
(0 -0 -2.1642e-05)
(0 -0 -2.11243e-05)
(0 -0 -2.06431e-05)
(0 -0 -2.03296e-05)
(0 -0 -2.03593e-05)
(0 -0 -2.05202e-05)
(0 -0 -3.0764e-05)
(0 -0 -3.03509e-05)
(0 -0 -2.9888e-05)
(0 -0 -2.94216e-05)
(0 -0 -2.89963e-05)
(0 -0 -2.85804e-05)
(0 -0 -2.81441e-05)
(0 -0 -2.76833e-05)
(0 -0 -2.71948e-05)
(0 -0 -2.66772e-05)
(0 -0 -2.61326e-05)
(0 -0 -2.55737e-05)
(0 -0 -2.50474e-05)
(0 -0 -2.46846e-05)
(0 -0 -2.46614e-05)
(0 -0 -2.47668e-05)
(0 -0 -3.56898e-05)
(0 -0 -3.52529e-05)
(0 -0 -3.47789e-05)
(0 -0 -3.43191e-05)
(0 -0 -3.388e-05)
(0 -0 -3.34457e-05)
(0 -0 -3.29879e-05)
(0 -0 -3.25026e-05)
(0 -0 -3.19864e-05)
(0 -0 -3.14378e-05)
(0 -0 -3.08584e-05)
(0 -0 -3.02611e-05)
(0 -0 -2.96923e-05)
(0 -0 -2.92836e-05)
(0 -0 -2.92138e-05)
(0 -0 -2.92704e-05)
(0 -0 0.000381024)
(0 -0 0.000379487)
(0 -0 0.000378126)
(0 -0 0.000376805)
(0 -0 0.000375066)
(0 -0 0.000372958)
(0 -0 0.000372898)
(0 -0 0.000381269)
(0 -0 0.000407891)
(0 -0 0.000387994)
(0 -0 0.000386433)
(0 -0 0.000385053)
(0 -0 0.000383713)
(0 -0 0.000381939)
(0 -0 0.000379781)
(0 -0 0.000379737)
(0 -0 0.000388406)
(0 -0 0.000415933)
(0 -0 0.000472399)
(0 -0 0.000562488)
(0 -0 0.000681204)
(0 -0 0.000812972)
(0 -0 0.000934872)
(0 -0 0.00102268)
(0 -0 0.00105729)
(0 -0 0.00102932)
(0 -0 0.000940542)
(0 -0 0.000802427)
(0 -0 0.000632585)
(0 -0 0.000450618)
(0 -0 0.000274465)
(0 -0 0.00011795)
(0 -0 -1.0285e-05)
(0 -0 -0.000106668)
(0 -0 -0.000171791)
(0 -0 -0.000209144)
(0 -0 -0.00022383)
(0 -0 -0.000221476)
(0 -0 -0.000207449)
(0 -0 -0.000186376)
(0 -0 -0.000161931)
(0 -0 -0.000136808)
(0 -0 -0.000112819)
(0 -0 -9.10502e-05)
(0 -0 -7.20353e-05)
(0 -0 -5.59164e-05)
(0 -0 -4.25819e-05)
(0 -0 -3.17729e-05)
(0 -0 -2.3161e-05)
(0 -0 -1.64005e-05)
(0 -0 -1.11614e-05)
(0 -0 -7.14665e-06)
(0 -0 -4.10058e-06)
(0 -0 -1.80967e-06)
(0 -0 -1.00129e-07)
(0 -0 1.16664e-06)
(0 -0 2.09947e-06)
(0 -0 2.78246e-06)
(0 -0 3.2799e-06)
(0 -0 3.64018e-06)
(0 -0 3.89868e-06)
(0 -0 4.08149e-06)
(0 -0 4.20215e-06)
(0 -0 4.28132e-06)
(0 -0 0.000394713)
(0 -0 0.00039313)
(0 -0 0.000391732)
(0 -0 0.000390374)
(0 -0 0.000388565)
(0 -0 0.000386356)
(0 -0 0.000386331)
(0 -0 0.000395311)
(0 -0 0.000423778)
(0 -0 0.000482142)
(0 -0 0.000575226)
(0 -0 0.000697841)
(0 -0 0.000833876)
(0 -0 0.000959645)
(0 -0 0.00105013)
(0 -0 0.00108564)
(0 -0 0.0010565)
(0 -0 0.000964617)
(0 -0 0.000821865)
(0 -0 0.000646465)
(0 -0 0.000458676)
(0 -0 0.000277022)
(0 -0 0.000115762)
(0 -0 -1.62057e-05)
(0 -0 -0.000115222)
(0 -0 -0.000181928)
(0 -0 -0.000219955)
(0 -0 -0.000234592)
(0 -0 -0.000231667)
(0 -0 -0.00021673)
(0 -0 -0.000194567)
(0 -0 -0.000168971)
(0 -0 -0.000142723)
(0 -0 -0.000117692)
(0 -0 -9.49942e-05)
(0 -0 -7.51764e-05)
(0 -0 -5.83799e-05)
(0 -0 -4.44849e-05)
(0 -0 -3.32194e-05)
(0 -0 -2.42405e-05)
(0 -0 -1.71878e-05)
(0 -0 -1.17174e-05)
(0 -0 -7.52019e-06)
(0 -0 -4.33009e-06)
(0 -0 -1.92495e-06)
(0 -0 -1.23965e-07)
(0 -0 1.21705e-06)
(0 -0 2.21137e-06)
(0 -0 2.94653e-06)
(0 -0 3.48947e-06)
(0 -0 3.89062e-06)
(0 -0 4.18685e-06)
(0 -0 4.40376e-06)
(0 -0 4.56045e-06)
(0 -0 4.65547e-06)
(0 -0 0.000401178)
(0 -0 0.000399574)
(0 -0 0.000398161)
(0 -0 0.000396785)
(0 -0 0.000394941)
(0 -0 0.00039268)
(0 -0 0.000392677)
(0 -0 0.000401984)
(0 -0 0.000431434)
(0 -0 0.000491771)
(0 -0 0.000587957)
(0 -0 0.000714599)
(0 -0 0.000855024)
(0 -0 0.000984745)
(0 -0 0.00107793)
(0 -0 0.00111426)
(0 -0 0.00108382)
(0 -0 0.000988625)
(0 -0 0.000840992)
(0 -0 0.000659784)
(0 -0 0.000465943)
(0 -0 0.000278599)
(0 -0 0.000112459)
(0 -0 -2.3319e-05)
(0 -0 -0.000124991)
(0 -0 -0.000193256)
(0 -0 -0.000231895)
(0 -0 -0.000246397)
(0 -0 -0.000242801)
(0 -0 -0.000226851)
(0 -0 -0.000203495)
(0 -0 -0.000176653)
(0 -0 -0.000149196)
(0 -0 -0.00012305)
(0 -0 -9.93632e-05)
(0 -0 -7.86931e-05)
(0 -0 -6.11805e-05)
(0 -0 -4.66957e-05)
(0 -0 -3.49526e-05)
(0 -0 -2.55924e-05)
(0 -0 -1.82388e-05)
(0 -0 -1.25331e-05)
(0 -0 -8.15351e-06)
(0 -0 -4.82266e-06)
(0 -0 -2.30931e-06)
(0 -0 -4.25248e-07)
(0 -0 9.79681e-07)
(0 -0 2.02332e-06)
(0 -0 2.79684e-06)
(0 -0 3.36993e-06)
(0 -0 3.79504e-06)
(0 -0 4.11064e-06)
(0 -0 4.34322e-06)
(0 -0 4.50943e-06)
(0 -0 4.6121e-06)
(0 -0 0.000407389)
(0 -0 0.000405765)
(0 -0 0.000404337)
(0 -0 0.000402945)
(0 -0 0.000401065)
(0 -0 0.000398752)
(0 -0 0.000398773)
(0 -0 0.000408427)
(0 -0 0.000438904)
(0 -0 0.000501296)
(0 -0 0.000600702)
(0 -0 0.000731509)
(0 -0 0.000876445)
(0 -0 0.00101019)
(0 -0 0.00110607)
(0 -0 0.00114314)
(0 -0 0.0011112)
(0 -0 0.00101242)
(0 -0 0.000859613)
(0 -0 0.000672298)
(0 -0 0.000472138)
(0 -0 0.000278891)
(0 -0 0.000107727)
(0 -0 -3.1932e-05)
(0 -0 -0.000136265)
(0 -0 -0.000206038)
(0 -0 -0.000245198)
(0 -0 -0.000259449)
(0 -0 -0.00025505)
(0 -0 -0.000237953)
(0 -0 -0.000213275)
(0 -0 -0.00018507)
(0 -0 -0.000156299)
(0 -0 -0.000128949)
(0 -0 -0.000104198)
(0 -0 -8.26151e-05)
(0 -0 -6.43383e-05)
(0 -0 -4.92264e-05)
(0 -0 -3.69777e-05)
(0 -0 -2.72156e-05)
(0 -0 -1.95466e-05)
(0 -0 -1.35962e-05)
(0 -0 -9.02849e-06)
(0 -0 -5.55425e-06)
(0 -0 -2.9324e-06)
(0 -0 -9.66776e-07)
(0 -0 4.99096e-07)
(0 -0 1.588e-06)
(0 -0 2.39493e-06)
(0 -0 2.99249e-06)
(0 -0 3.43535e-06)
(0 -0 3.76362e-06)
(0 -0 4.00498e-06)
(0 -0 4.17657e-06)
(0 -0 4.28469e-06)
(0 -0 0.000413343)
(0 -0 0.0004117)
(0 -0 0.000410258)
(0 -0 0.000408852)
(0 -0 0.000406936)
(0 -0 0.000404569)
(0 -0 0.000404619)
(0 -0 0.00041464)
(0 -0 0.000446197)
(0 -0 0.000510737)
(0 -0 0.000613493)
(0 -0 0.000748605)
(0 -0 0.00089817)
(0 -0 0.00103599)
(0 -0 0.00113452)
(0 -0 0.00117216)
(0 -0 0.00113847)
(0 -0 0.00103579)
(0 -0 0.000877441)
(0 -0 0.000683668)
(0 -0 0.000476887)
(0 -0 0.000277509)
(0 -0 0.000101178)
(0 -0 -4.24191e-05)
(0 -0 -0.000149392)
(0 -0 -0.000220589)
(0 -0 -0.000260141)
(0 -0 -0.000273982)
(0 -0 -0.000268611)
(0 -0 -0.000250196)
(0 -0 -0.000224036)
(0 -0 -0.000194319)
(0 -0 -0.000164106)
(0 -0 -0.00013544)
(0 -0 -0.000109532)
(0 -0 -8.69595e-05)
(0 -0 -6.78567e-05)
(0 -0 -5.20686e-05)
(0 -0 -3.92754e-05)
(0 -0 -2.90812e-05)
(0 -0 -2.10734e-05)
(0 -0 -1.48602e-05)
(0 -0 -1.00904e-05)
(0 -0 -6.46198e-06)
(0 -0 -3.72319e-06)
(0 -0 -1.66933e-06)
(0 -0 -1.37119e-07)
(0 -0 1.00153e-06)
(0 -0 1.84572e-06)
(0 -0 2.47117e-06)
(0 -0 2.93492e-06)
(0 -0 3.27887e-06)
(0 -0 3.53207e-06)
(0 -0 3.71283e-06)
(0 -0 3.82972e-06)
(0 -0 0.000419039)
(0 -0 0.000417379)
(0 -0 0.000415925)
(0 -0 0.000414505)
(0 -0 0.000412553)
(0 -0 0.000410131)
(0 -0 0.000410214)
(0 -0 0.000420623)
(0 -0 0.000453317)
(0 -0 0.000520102)
(0 -0 0.000626338)
(0 -0 0.000765891)
(0 -0 0.000920187)
(0 -0 0.00106211)
(0 -0 0.0011632)
(0 -0 0.0012012)
(0 -0 0.00116545)
(0 -0 0.00105848)
(0 -0 0.000894181)
(0 -0 0.000693561)
(0 -0 0.000479828)
(0 -0 0.000274077)
(0 -0 9.24383e-05)
(0 -0 -5.51391e-05)
(0 -0 -0.000164706)
(0 -0 -0.000237214)
(0 -0 -0.000276994)
(0 -0 -0.000290234)
(0 -0 -0.000283686)
(0 -0 -0.000263751)
(0 -0 -0.000235917)
(0 -0 -0.000204517)
(0 -0 -0.000172709)
(0 -0 -0.000142597)
(0 -0 -0.000115423)
(0 -0 -9.17726e-05)
(0 -0 -7.17715e-05)
(0 -0 -5.52495e-05)
(0 -0 -4.18663e-05)
(0 -0 -3.12041e-05)
(0 -0 -2.28297e-05)
(0 -0 -1.63319e-05)
(0 -0 -1.1343e-05)
(0 -0 -7.54704e-06)
(0 -0 -4.68073e-06)
(0 -0 -2.53009e-06)
(0 -0 -9.24508e-07)
(0 -0 2.6982e-07)
(0 -0 1.1564e-06)
(0 -0 1.81432e-06)
(0 -0 2.30318e-06)
(0 -0 2.66682e-06)
(0 -0 2.93579e-06)
(0 -0 3.12984e-06)
(0 -0 3.25991e-06)
(0 -0 0.000424476)
(0 -0 0.0004228)
(0 -0 0.000421336)
(0 -0 0.000419903)
(0 -0 0.000417913)
(0 -0 0.000415435)
(0 -0 0.000415556)
(0 -0 0.000426377)
(0 -0 0.000460265)
(0 -0 0.000529397)
(0 -0 0.000639244)
(0 -0 0.000783372)
(0 -0 0.000942488)
(0 -0 0.00108851)
(0 -0 0.00119204)
(0 -0 0.00123016)
(0 -0 0.00119198)
(0 -0 0.00108028)
(0 -0 0.000909568)
(0 -0 0.000701673)
(0 -0 0.000480633)
(0 -0 0.000268255)
(0 -0 8.11673e-05)
(0 -0 -7.04218e-05)
(0 -0 -0.000182519)
(0 -0 -0.000256197)
(0 -0 -0.000296014)
(0 -0 -0.00030843)
(0 -0 -0.000300473)
(0 -0 -0.000278788)
(0 -0 -0.000249065)
(0 -0 -0.000215787)
(0 -0 -0.000182215)
(0 -0 -0.000150513)
(0 -0 -0.000121952)
(0 -0 -9.71243e-05)
(0 -0 -7.61451e-05)
(0 -0 -5.88254e-05)
(0 -0 -4.4802e-05)
(0 -0 -3.36327e-05)
(0 -0 -2.48611e-05)
(0 -0 -1.80551e-05)
(0 -0 -1.28289e-05)
(0 -0 -8.85106e-06)
(0 -0 -5.846e-06)
(0 -0 -3.58963e-06)
(0 -0 -1.90342e-06)
(0 -0 -6.47369e-07)
(0 -0 2.86775e-07)
(0 -0 9.81732e-07)
(0 -0 1.49986e-06)
(0 -0 1.88708e-06)
(0 -0 2.17558e-06)
(0 -0 2.38664e-06)
(0 -0 2.53354e-06)
(0 -0 0.000429654)
(0 -0 0.000427964)
(0 -0 0.00042649)
(0 -0 0.000425045)
(0 -0 0.000423018)
(0 -0 0.000420482)
(0 -0 0.000420645)
(0 -0 0.000431903)
(0 -0 0.000467047)
(0 -0 0.000538628)
(0 -0 0.000652218)
(0 -0 0.000801046)
(0 -0 0.000965055)
(0 -0 0.00111515)
(0 -0 0.00122095)
(0 -0 0.00125889)
(0 -0 0.00121786)
(0 -0 0.00110094)
(0 -0 0.000923314)
(0 -0 0.000707677)
(0 -0 0.000478952)
(0 -0 0.000259682)
(0 -0 6.70058e-05)
(0 -0 -8.8613e-05)
(0 -0 -0.000203154)
(0 -0 -0.000277835)
(0 -0 -0.000317467)
(0 -0 -0.000328805)
(0 -0 -0.000319175)
(0 -0 -0.000295482)
(0 -0 -0.00026363)
(0 -0 -0.000228259)
(0 -0 -0.000192734)
(0 -0 -0.000159282)
(0 -0 -0.000129201)
(0 -0 -0.000103087)
(0 -0 -8.10416e-05)
(0 -0 -6.28548e-05)
(0 -0 -4.81365e-05)
(0 -0 -3.64176e-05)
(0 -0 -2.72158e-05)
(0 -0 -2.00763e-05)
(0 -0 -1.45931e-05)
(0 -0 -1.04184e-05)
(0 -0 -7.26292e-06)
(0 -0 -4.89162e-06)
(0 -0 -3.11741e-06)
(0 -0 -1.79362e-06)
(0 -0 -8.06846e-07)
(0 -0 -7.04507e-08)
(0 -0 4.80883e-07)
(0 -0 8.95305e-07)
(0 -0 1.20677e-06)
(0 -0 1.43818e-06)
(0 -0 1.60507e-06)
(0 -0 0.000434572)
(0 -0 0.000432868)
(0 -0 0.000431387)
(0 -0 0.00042993)
(0 -0 0.000427865)
(0 -0 0.00042527)
(0 -0 0.000425481)
(0 -0 0.000437203)
(0 -0 0.000473664)
(0 -0 0.000547798)
(0 -0 0.00066526)
(0 -0 0.000818907)
(0 -0 0.000987863)
(0 -0 0.00114198)
(0 -0 0.00124985)
(0 -0 0.00128724)
(0 -0 0.00124289)
(0 -0 0.00112021)
(0 -0 0.000935114)
(0 -0 0.000711235)
(0 -0 0.000474421)
(0 -0 0.000247987)
(0 -0 4.95886e-05)
(0 -0 -0.000110062)
(0 -0 -0.000226937)
(0 -0 -0.000302425)
(0 -0 -0.000341616)
(0 -0 -0.000351591)
(0 -0 -0.000339992)
(0 -0 -0.000314007)
(0 -0 -0.000279761)
(0 -0 -0.000242058)
(0 -0 -0.000204373)
(0 -0 -0.000168996)
(0 -0 -0.00013725)
(0 -0 -0.00010973)
(0 -0 -8.65244e-05)
(0 -0 -6.73951e-05)
(0 -0 -5.19229e-05)
(0 -0 -3.96087e-05)
(0 -0 -2.99417e-05)
(0 -0 -2.24417e-05)
(0 -0 -1.66811e-05)
(0 -0 -1.22938e-05)
(0 -0 -8.97573e-06)
(0 -0 -6.48016e-06)
(0 -0 -4.61061e-06)
(0 -0 -3.21319e-06)
(0 -0 -2.16892e-06)
(0 -0 -1.38696e-06)
(0 -0 -7.98814e-07)
(0 -0 -3.53914e-07)
(0 -0 -1.64349e-08)
(0 -0 2.38228e-07)
(0 -0 4.27834e-07)
(0 -0 0.00043923)
(0 -0 0.000437514)
(0 -0 0.000436027)
(0 -0 0.000434559)
(0 -0 0.000432454)
(0 -0 0.000429799)
(0 -0 0.000430064)
(0 -0 0.000442277)
(0 -0 0.00048012)
(0 -0 0.000556909)
(0 -0 0.000678369)
(0 -0 0.00083694)
(0 -0 0.00101087)
(0 -0 0.00116891)
(0 -0 0.0012786)
(0 -0 0.00131505)
(0 -0 0.00126685)
(0 -0 0.00113781)
(0 -0 0.000944657)
(0 -0 0.000712004)
(0 -0 0.000466684)
(0 -0 0.000232808)
(0 -0 2.85607e-05)
(0 -0 -0.000135107)
(0 -0 -0.00025418)
(0 -0 -0.000330248)
(0 -0 -0.000368713)
(0 -0 -0.000377007)
(0 -0 -0.000363116)
(0 -0 -0.000334524)
(0 -0 -0.000297593)
(0 -0 -0.000257301)
(0 -0 -0.000217233)
(0 -0 -0.000179741)
(0 -0 -0.000146173)
(0 -0 -0.000117121)
(0 -0 -9.2652e-05)
(0 -0 -7.24997e-05)
(0 -0 -5.62109e-05)
(0 -0 -4.32529e-05)
(0 -0 -3.30835e-05)
(0 -0 -2.51948e-05)
(0 -0 -1.91353e-05)
(0 -0 -1.45192e-05)
(0 -0 -1.10263e-05)
(0 -0 -8.39714e-06)
(0 -0 -6.42503e-06)
(0 -0 -4.9483e-06)
(0 -0 -3.84198e-06)
(0 -0 -3.01069e-06)
(0 -0 -2.38249e-06)
(0 -0 -1.90425e-06)
(0 -0 -1.53812e-06)
(0 -0 -1.25773e-06)
(0 -0 -1.04315e-06)
(0 -0 0.000443628)
(0 -0 0.000441901)
(0 -0 0.000440409)
(0 -0 0.000438931)
(0 -0 0.000436786)
(0 -0 0.00043407)
(0 -0 0.000434394)
(0 -0 0.000447126)
(0 -0 0.000486414)
(0 -0 0.000565961)
(0 -0 0.000691537)
(0 -0 0.000855122)
(0 -0 0.00103404)
(0 -0 0.00119587)
(0 -0 0.0013071)
(0 -0 0.00134215)
(0 -0 0.00128952)
(0 -0 0.0011535)
(0 -0 0.000951646)
(0 -0 0.000709662)
(0 -0 0.000455403)
(0 -0 0.000213808)
(0 -0 3.59685e-06)
(0 -0 -0.000164052)
(0 -0 -0.000285163)
(0 -0 -0.000361557)
(0 -0 -0.00039898)
(0 -0 -0.000405246)
(0 -0 -0.00038871)
(0 -0 -0.000357173)
(0 -0 -0.000317248)
(0 -0 -0.000274089)
(0 -0 -0.000231399)
(0 -0 -0.00019159)
(0 -0 -0.000156034)
(0 -0 -0.000125314)
(0 -0 -9.94746e-05)
(0 -0 -7.82145e-05)
(0 -0 -6.10432e-05)
(0 -0 -4.73906e-05)
(0 -0 -3.66802e-05)
(0 -0 -2.83734e-05)
(0 -0 -2.19931e-05)
(0 -0 -1.71317e-05)
(0 -0 -1.34518e-05)
(0 -0 -1.06797e-05)
(0 -0 -8.59803e-06)
(0 -0 -7.03665e-06)
(0 -0 -5.86412e-06)
(0 -0 -4.98014e-06)
(0 -0 -4.30912e-06)
(0 -0 -3.79513e-06)
(0 -0 -3.39818e-06)
(0 -0 -3.09005e-06)
(0 -0 -2.8487e-06)
(0 -0 0.000447766)
(0 -0 0.00044603)
(0 -0 0.000444533)
(0 -0 0.000443047)
(0 -0 0.00044086)
(0 -0 0.000438081)
(0 -0 0.000438471)
(0 -0 0.000451751)
(0 -0 0.000492547)
(0 -0 0.000574949)
(0 -0 0.000704749)
(0 -0 0.000873424)
(0 -0 0.00105731)
(0 -0 0.00122277)
(0 -0 0.0013352)
(0 -0 0.00136837)
(0 -0 0.0013107)
(0 -0 0.00116701)
(0 -0 0.000955806)
(0 -0 0.00070392)
(0 -0 0.000440286)
(0 -0 0.000190701)
(0 -0 -2.55765e-05)
(0 -0 -0.000197152)
(0 -0 -0.000320117)
(0 -0 -0.000396556)
(0 -0 -0.000432593)
(0 -0 -0.00043646)
(0 -0 -0.000416905)
(0 -0 -0.000382065)
(0 -0 -0.000338815)
(0 -0 -0.000292499)
(0 -0 -0.000246935)
(0 -0 -0.0002046)
(0 -0 -0.00016688)
(0 -0 -0.000134352)
(0 -0 -0.00010703)
(0 -0 -8.45743e-05)
(0 -0 -6.64523e-05)
(0 -0 -5.20529e-05)
(0 -0 -4.07618e-05)
(0 -0 -3.20073e-05)
(0 -0 -2.52839e-05)
(0 -0 -2.01609e-05)
(0 -0 -1.62816e-05)
(0 -0 -1.33577e-05)
(0 -0 -1.116e-05)
(0 -0 -9.50904e-06)
(0 -0 -8.2666e-06)
(0 -0 -7.32711e-06)
(0 -0 -6.611e-06)
(0 -0 -6.05937e-06)
(0 -0 -5.62994e-06)
(0 -0 -5.29259e-06)
(0 -0 -5.02317e-06)
(0 -0 0.000451645)
(0 -0 0.0004499)
(0 -0 0.000448402)
(0 -0 0.000446907)
(0 -0 0.000444677)
(0 -0 0.000441834)
(0 -0 0.000442298)
(0 -0 0.000456153)
(0 -0 0.000498518)
(0 -0 0.000583865)
(0 -0 0.000717986)
(0 -0 0.000891806)
(0 -0 0.00108062)
(0 -0 0.00124952)
(0 -0 0.00136279)
(0 -0 0.00139354)
(0 -0 0.00133019)
(0 -0 0.00117813)
(0 -0 0.000956912)
(0 -0 0.000694548)
(0 -0 0.000421107)
(0 -0 0.00016327)
(0 -0 -5.91582e-05)
(0 -0 -0.000234586)
(0 -0 -0.000359197)
(0 -0 -0.000435378)
(0 -0 -0.000469668)
(0 -0 -0.000470746)
(0 -0 -0.000447779)
(0 -0 -0.000409264)
(0 -0 -0.00036235)
(0 -0 -0.000312576)
(0 -0 -0.00026388)
(0 -0 -0.0002188)
(0 -0 -0.00017874)
(0 -0 -0.00014426)
(0 -0 -0.000115341)
(0 -0 -9.15994e-05)
(0 -0 -7.24575e-05)
(0 -0 -5.72586e-05)
(0 -0 -4.53471e-05)
(0 -0 -3.61151e-05)
(0 -0 -2.90267e-05)
(0 -0 -2.36259e-05)
(0 -0 -1.95358e-05)
(0 -0 -1.64517e-05)
(0 -0 -1.41317e-05)
(0 -0 -1.2387e-05)
(0 -0 -1.10716e-05)
(0 -0 -1.00743e-05)
(0 -0 -9.31149e-06)
(0 -0 -8.72093e-06)
(0 -0 -8.25796e-06)
(0 -0 -7.89049e-06)
(0 -0 -7.59226e-06)
(0 -0 0.000455265)
(0 -0 0.000453513)
(0 -0 0.000452014)
(0 -0 0.000450512)
(0 -0 0.000448238)
(0 -0 0.00044533)
(0 -0 0.000445873)
(0 -0 0.00046033)
(0 -0 0.000504321)
(0 -0 0.000592697)
(0 -0 0.000731221)
(0 -0 0.000910221)
(0 -0 0.00110389)
(0 -0 0.00127602)
(0 -0 0.00138973)
(0 -0 0.00141752)
(0 -0 0.00134783)
(0 -0 0.00118671)
(0 -0 0.000954802)
(0 -0 0.000681392)
(0 -0 0.000397727)
(0 -0 0.000131396)
(0 -0 -9.72497e-05)
(0 -0 -0.000276436)
(0 -0 -0.00040247)
(0 -0 -0.000478076)
(0 -0 -0.000510243)
(0 -0 -0.00050813)
(0 -0 -0.000481353)
(0 -0 -0.000438783)
(0 -0 -0.000387861)
(0 -0 -0.000334325)
(0 -0 -0.000282237)
(0 -0 -0.000234195)
(0 -0 -0.000191615)
(0 -0 -0.000155038)
(0 -0 -0.000124408)
(0 -0 -9.92923e-05)
(0 -0 -7.90621e-05)
(0 -0 -6.30115e-05)
(0 -0 -5.04406e-05)
(0 -0 -4.07023e-05)
(0 -0 -3.32277e-05)
(0 -0 -2.75338e-05)
(0 -0 -2.32219e-05)
(0 -0 -1.997e-05)
(0 -0 -1.75226e-05)
(0 -0 -1.56805e-05)
(0 -0 -1.42898e-05)
(0 -0 -1.32333e-05)
(0 -0 -1.24228e-05)
(0 -0 -1.17927e-05)
(0 -0 -1.12958e-05)
(0 -0 -1.0898e-05)
(0 -0 -1.05708e-05)
(0 -0 0.000458627)
(0 -0 0.000456869)
(0 -0 0.00045537)
(0 -0 0.000453861)
(0 -0 0.000451544)
(0 -0 0.00044857)
(0 -0 0.0004492)
(0 -0 0.000464283)
(0 -0 0.00050995)
(0 -0 0.000601426)
(0 -0 0.000744419)
(0 -0 0.000928612)
(0 -0 0.00112705)
(0 -0 0.00130216)
(0 -0 0.00141592)
(0 -0 0.00144019)
(0 -0 0.0013635)
(0 -0 0.00119263)
(0 -0 0.000949395)
(0 -0 0.000664397)
(0 -0 0.000370116)
(0 -0 9.50727e-05)
(0 -0 -0.000139834)
(0 -0 -0.000322668)
(0 -0 -0.00044989)
(0 -0 -0.000524595)
(0 -0 -0.00055426)
(0 -0 -0.000548556)
(0 -0 -0.000517571)
(0 -0 -0.000470572)
(0 -0 -0.000415302)
(0 -0 -0.000357705)
(0 -0 -0.00030197)
(0 -0 -0.000250752)
(0 -0 -0.000205477)
(0 -0 -0.000166664)
(0 -0 -0.000134212)
(0 -0 -0.000107635)
(0 -0 -8.62506e-05)
(0 -0 -6.92985e-05)
(0 -0 -5.60308e-05)
(0 -0 -4.57588e-05)
(0 -0 -3.78782e-05)
(0 -0 -3.18773e-05)
(0 -0 -2.73338e-05)
(0 -0 -2.39074e-05)
(0 -0 -2.13284e-05)
(0 -0 -1.93863e-05)
(0 -0 -1.79188e-05)
(0 -0 -1.68025e-05)
(0 -0 -1.59441e-05)
(0 -0 -1.52747e-05)
(0 -0 -1.47442e-05)
(0 -0 -1.43164e-05)
(0 -0 -1.39609e-05)
(0 -0 0.000461733)
(0 -0 0.000459971)
(0 -0 0.000458473)
(0 -0 0.000456958)
(0 -0 0.000454595)
(0 -0 0.000451555)
(0 -0 0.000452277)
(0 -0 0.00046801)
(0 -0 0.000515397)
(0 -0 0.000610031)
(0 -0 0.000757539)
(0 -0 0.000946916)
(0 -0 0.00115001)
(0 -0 0.00132784)
(0 -0 0.00144124)
(0 -0 0.00146146)
(0 -0 0.00137715)
(0 -0 0.00119588)
(0 -0 0.000940705)
(0 -0 0.00064362)
(0 -0 0.000338371)
(0 -0 5.44302e-05)
(0 -0 -0.00018676)
(0 -0 -0.000373116)
(0 -0 -0.000501285)
(0 -0 -0.000574767)
(0 -0 -0.000601559)
(0 -0 -0.000591874)
(0 -0 -0.000556298)
(0 -0 -0.000504511)
(0 -0 -0.000444567)
(0 -0 -0.000382624)
(0 -0 -0.000322999)
(0 -0 -0.000268402)
(0 -0 -0.000220268)
(0 -0 -0.000179086)
(0 -0 -0.000144706)
(0 -0 -0.000116589)
(0 -0 -9.39874e-05)
(0 -0 -7.60873e-05)
(0 -0 -6.20884e-05)
(0 -0 -5.12576e-05)
(0 -0 -4.29534e-05)
(0 -0 -3.6633e-05)
(0 -0 -3.18496e-05)
(0 -0 -2.82435e-05)
(0 -0 -2.55297e-05)
(0 -0 -2.3486e-05)
(0 -0 -2.19413e-05)
(0 -0 -2.07652e-05)
(0 -0 -1.98598e-05)
(0 -0 -1.9152e-05)
(0 -0 -1.85891e-05)
(0 -0 -1.81325e-05)
(0 -0 -1.77498e-05)
(0 -0 0.000464584)
(0 -0 0.000462818)
(0 -0 0.000461323)
(0 -0 0.000459802)
(0 -0 0.000457393)
(0 -0 0.000454288)
(0 -0 0.000455108)
(0 -0 0.000471508)
(0 -0 0.00052065)
(0 -0 0.000618485)
(0 -0 0.000770533)
(0 -0 0.000965063)
(0 -0 0.00117268)
(0 -0 0.00135299)
(0 -0 0.00146563)
(0 -0 0.00148129)
(0 -0 0.00138877)
(0 -0 0.00119651)
(0 -0 0.000928855)
(0 -0 0.000619244)
(0 -0 0.000302727)
(0 -0 9.74171e-06)
(0 -0 -0.000237728)
(0 -0 -0.000427473)
(0 -0 -0.00055635)
(0 -0 -0.000628299)
(0 -0 -0.000651867)
(0 -0 -0.000637837)
(0 -0 -0.000597314)
(0 -0 -0.000540405)
(0 -0 -0.000475487)
(0 -0 -0.000408937)
(0 -0 -0.000345198)
(0 -0 -0.000287038)
(0 -0 -0.000235893)
(0 -0 -0.000192221)
(0 -0 -0.000155821)
(0 -0 -0.000126089)
(0 -0 -0.000102216)
(0 -0 -8.3326e-05)
(0 -0 -6.85656e-05)
(0 -0 -5.71544e-05)
(0 -0 -4.84112e-05)
(0 -0 -4.17611e-05)
(0 -0 -3.67314e-05)
(0 -0 -3.29418e-05)
(0 -0 -3.00913e-05)
(0 -0 -2.79456e-05)
(0 -0 -2.63242e-05)
(0 -0 -2.50896e-05)
(0 -0 -2.41386e-05)
(0 -0 -2.33944e-05)
(0 -0 -2.28009e-05)
(0 -0 -2.23174e-05)
(0 -0 -2.19093e-05)
(0 -0 0.00046718)
(0 -0 0.000465412)
(0 -0 0.000463921)
(0 -0 0.000462395)
(0 -0 0.000459941)
(0 -0 0.00045677)
(0 -0 0.000457692)
(0 -0 0.000474774)
(0 -0 0.000525695)
(0 -0 0.000626756)
(0 -0 0.000783345)
(0 -0 0.000982976)
(0 -0 0.00119497)
(0 -0 0.0013775)
(0 -0 0.00148903)
(0 -0 0.00149966)
(0 -0 0.00139843)
(0 -0 0.00119467)
(0 -0 0.000914079)
(0 -0 0.000591584)
(0 -0 0.000263563)
(0 -0 -3.85682e-05)
(0 -0 -0.000292288)
(0 -0 -0.000485282)
(0 -0 -0.000614641)
(0 -0 -0.00068477)
(0 -0 -0.000704796)
(0 -0 -0.000686096)
(0 -0 -0.000640309)
(0 -0 -0.000577985)
(0 -0 -0.00050783)
(0 -0 -0.000436443)
(0 -0 -0.000368397)
(0 -0 -0.000306513)
(0 -0 -0.000252226)
(0 -0 -0.000205961)
(0 -0 -0.000167459)
(0 -0 -0.000136049)
(0 -0 -0.000110857)
(0 -0 -9.09435e-05)
(0 -0 -7.53965e-05)
(0 -0 -6.33871e-05)
(0 -0 -5.4193e-05)
(0 -0 -4.72055e-05)
(0 -0 -4.1925e-05)
(0 -0 -3.79497e-05)
(0 -0 -3.49622e-05)
(0 -0 -3.27152e-05)
(0 -0 -3.10187e-05)
(0 -0 -2.97278e-05)
(0 -0 -2.87338e-05)
(0 -0 -2.79556e-05)
(0 -0 -2.73342e-05)
(0 -0 -2.6826e-05)
(0 -0 -2.63949e-05)
(0 -0 0.000469525)
(0 -0 0.000467756)
(0 -0 0.00046627)
(0 -0 0.00046474)
(0 -0 0.00046224)
(0 -0 0.000459003)
(0 -0 0.000460032)
(0 -0 0.000477804)
(0 -0 0.000530517)
(0 -0 0.000634808)
(0 -0 0.000795917)
(0 -0 0.00100057)
(0 -0 0.00121681)
(0 -0 0.00140132)
(0 -0 0.0015114)
(0 -0 0.00151662)
(0 -0 0.00140627)
(0 -0 0.0011906)
(0 -0 0.000896725)
(0 -0 0.000561081)
(0 -0 0.000221398)
(0 -0 -8.99271e-05)
(0 -0 -0.000349843)
(0 -0 -0.000545943)
(0 -0 -0.000675575)
(0 -0 -0.000743635)
(0 -0 -0.000759849)
(0 -0 -0.000736203)
(0 -0 -0.000684889)
(0 -0 -0.000616908)
(0 -0 -0.0005413)
(0 -0 -0.000464891)
(0 -0 -0.000392379)
(0 -0 -0.000326641)
(0 -0 -0.000269109)
(0 -0 -0.000220168)
(0 -0 -0.000179498)
(0 -0 -0.000146363)
(0 -0 -0.000119816)
(0 -0 -9.88506e-05)
(0 -0 -8.2498e-05)
(0 -0 -6.98776e-05)
(0 -0 -6.02243e-05)
(0 -0 -5.28946e-05)
(0 -0 -4.7361e-05)
(0 -0 -4.31997e-05)
(0 -0 -4.00762e-05)
(0 -0 -3.77299e-05)
(0 -0 -3.59609e-05)
(0 -0 -3.46169e-05)
(0 -0 -3.35831e-05)
(0 -0 -3.27744e-05)
(0 -0 -3.2128e-05)
(0 -0 -3.15975e-05)
(0 -0 -3.11476e-05)
(0 -0 0.000471619)
(0 -0 0.00046985)
(0 -0 0.00046837)
(0 -0 0.000466836)
(0 -0 0.000464292)
(0 -0 0.000460991)
(0 -0 0.000462128)
(0 -0 0.000480593)
(0 -0 0.000535096)
(0 -0 0.000642601)
(0 -0 0.000808182)
(0 -0 0.00101777)
(0 -0 0.00123808)
(0 -0 0.00142436)
(0 -0 0.00153274)
(0 -0 0.00153226)
(0 -0 0.00141247)
(0 -0 0.00118463)
(0 -0 0.000877245)
(0 -0 0.000528301)
(0 -0 0.000176884)
(0 -0 -0.000143625)
(0 -0 -0.000409656)
(0 -0 -0.000608723)
(0 -0 -0.00073845)
(0 -0 -0.000804237)
(0 -0 -0.000816425)
(0 -0 -0.000787623)
(0 -0 -0.000730585)
(0 -0 -0.000656766)
(0 -0 -0.000575548)
(0 -0 -0.00049398)
(0 -0 -0.000416892)
(0 -0 -0.000347207)
(0 -0 -0.000286356)
(0 -0 -0.00023468)
(0 -0 -0.000191799)
(0 -0 -0.000156904)
(0 -0 -0.000128976)
(0 -0 -0.000106943)
(0 -0 -8.97728e-05)
(0 -0 -7.65338e-05)
(0 -0 -6.64171e-05)
(0 -0 -5.87435e-05)
(0 -0 -5.2957e-05)
(0 -0 -4.86112e-05)
(0 -0 -4.5354e-05)
(0 -0 -4.29117e-05)
(0 -0 -4.10737e-05)
(0 -0 -3.96803e-05)
(0 -0 -3.86108e-05)
(0 -0 -3.77753e-05)
(0 -0 -3.71071e-05)
(0 -0 -3.65608e-05)
(0 -0 -3.60835e-05)
(0 -0 0.00047343)
(0 -0 0.00047166)
(0 -0 0.000470186)
(0 -0 0.000468649)
(0 -0 0.000466061)
(0 -0 0.0004627)
(0 -0 0.000463944)
(0 -0 0.000483085)
(0 -0 0.000539325)
(0 -0 0.000649938)
(0 -0 0.000819829)
(0 -0 0.00103414)
(0 -0 0.0012583)
(0 -0 0.00144613)
(0 -0 0.00155264)
(0 -0 0.00154639)
(0 -0 0.00141721)
(0 -0 0.00117732)
(0 -0 0.00085663)
(0 -0 0.000494636)
(0 -0 0.000131756)
(0 -0 -0.000197678)
(0 -0 -0.000469595)
(0 -0 -0.000671441)
(0 -0 -0.00080112)
(0 -0 -0.000864537)
(0 -0 -0.000872643)
(0 -0 -0.000838663)
(0 -0 -0.0007759)
(0 -0 -0.000696262)
(0 -0 -0.000609462)
(0 -0 -0.000522769)
(0 -0 -0.000441138)
(0 -0 -0.00036754)
(0 -0 -0.0003034)
(0 -0 -0.000249017)
(0 -0 -0.000203949)
(0 -0 -0.000167315)
(0 -0 -0.000138024)
(0 -0 -0.000114937)
(0 -0 -9.69621e-05)
(0 -0 -8.31149e-05)
(0 -0 -7.25436e-05)
(0 -0 -6.45337e-05)
(0 -0 -5.85008e-05)
(0 -0 -5.39762e-05)
(0 -0 -5.05904e-05)
(0 -0 -4.80562e-05)
(0 -0 -4.61533e-05)
(0 -0 -4.47139e-05)
(0 -0 -4.36118e-05)
(0 -0 -4.27524e-05)
(0 -0 -4.20663e-05)
(0 -0 -4.14967e-05)
(0 -0 -4.10128e-05)
(0 -0 0.000474991)
(0 -0 0.000473222)
(0 -0 0.000471755)
(0 -0 0.000470216)
(0 -0 0.000467587)
(0 -0 0.000464166)
(0 -0 0.000465517)
(0 -0 0.000485317)
(0 -0 0.000543247)
(0 -0 0.000656877)
(0 -0 0.000830938)
(0 -0 0.00104979)
(0 -0 0.00127762)
(0 -0 0.00146686)
(0 -0 0.00157141)
(0 -0 0.00155938)
(0 -0 0.00142088)
(0 -0 0.00116909)
(0 -0 0.000835315)
(0 -0 0.000460518)
(0 -0 8.64195e-05)