/*--------------------------------*- C++ -*----------------------------------*\
| =========                 |                                                 |
| \\      /  F ield         | OpenFOAM: The Open Source CFD Toolbox           |
|  \\    /   O peration     | Version:  2412                                  |
|   \\  /    A nd           | Website:  www.openfoam.com                      |
|    \\/     M anipulation  |                                                 |
\*---------------------------------------------------------------------------*/
FoamFile
{
    version     2.0;
    format      ascii;
    arch        "LSB;label=32;scalar=64";
    class       volScalarField;
    location    "4.5";
    object      p;
}
// * * * * * * * * * * * * * * * * * * * * * * * * * * * * * * * * * * * * * //

dimensions      [0 2 -2 0 0 0 0];

internalField   nonuniform List<scalar> 
5285
(
0.00103433
0.00102948
0.00102431
0.00101883
0.00101302
0.00100686
0.00100034
0.000993446
0.000986163
0.000978479
0.000970377
0.000961846
0.000952869
0.000943435
0.000933529
0.00092314
0.00104512
0.00104041
0.00103539
0.00103004
0.00102436
0.00101832
0.00101191
0.00100511
0.00099792
0.000990312
0.000982273
0.000973789
0.000964845
0.000955425
0.000945514
0.0009351
0.0010562
0.00105165
0.00104678
0.00104158
0.00103604
0.00103013
0.00102385
0.00101717
0.00101008
0.00100256
0.000994601
0.000986179
0.00097728
0.000967888
0.000957986
0.000947559
0.00106757
0.00106319
0.00105849
0.00105346
0.00104807
0.00104232
0.00103617
0.00102962
0.00102265
0.00101524
0.00100737
0.000999031
0.000990193
0.000980844
0.000970965
0.00096054
0.00107923
0.00107505
0.00107053
0.00106568
0.00106046
0.00105487
0.00104889
0.00104249
0.00103565
0.00102837
0.00102061
0.00101236
0.0010036
0.000994311
0.000984471
0.000974063
0.0010912
0.00108722
0.00108291
0.00107825
0.00107322
0.00106781
0.001062
0.00105577
0.00104909
0.00104194
0.00103432
0.00102618
0.00101752
0.00100831
0.000998526
0.000988153
0.00110347
0.00109971
0.00109561
0.00109117
0.00108635
0.00108115
0.00107553
0.00106948
0.00106297
0.00105599
0.00104851
0.00104051
0.00103197
0.00102285
0.00101315
0.00100283
0.00111604
0.00111252
0.00110866
0.00110445
0.00109986
0.00109487
0.00108947
0.00108363
0.00107732
0.00107052
0.00106321
0.00105537
0.00104696
0.00103797
0.00102836
0.00101812
0.00112892
0.00112566
0.00112205
0.00111809
0.00111375
0.00110901
0.00110384
0.00109822
0.00109213
0.00108554
0.00107843
0.00107076
0.00106252
0.00105367
0.00104419
0.00103405
0.00114211
0.00113912
0.00113579
0.0011321
0.00112803
0.00112355
0.00111864
0.00111327
0.00110743
0.00110107
0.00109417
0.00108672
0.00107866
0.00106998
0.00106065
0.00105063
0.0011556
0.00115291
0.00114987
0.00114648
0.0011427
0.00113851
0.00113388
0.00112879
0.00112321
0.00111711
0.00111046
0.00110324
0.0010954
0.00108692
0.00107777
0.00106791
0.0011694
0.00116702
0.00116431
0.00116123
0.00115776
0.00115388
0.00114956
0.00114478
0.00113949
0.00113368
0.00112731
0.00112035
0.00111276
0.00110451
0.00109556
0.00108589
0.0011835
0.00118146
0.00117909
0.00117635
0.00117322
0.00116968
0.0011657
0.00116124
0.00115628
0.00115079
0.00114472
0.00113805
0.00113075
0.00112276
0.00111406
0.0011046
0.00119791
0.00119623
0.00119421
0.00119184
0.00118908
0.0011859
0.00118228
0.00117819
0.00117358
0.00116844
0.00116271
0.00115637
0.00114938
0.00114169
0.00113327
0.00112407
0.00121261
0.00121131
0.00120969
0.0012077
0.00120533
0.00120255
0.00119932
0.00119562
0.0011914
0.00118664
0.00118129
0.00117532
0.00116868
0.00116133
0.00115323
0.00114433
0.0012276
0.00122671
0.0012255
0.00122393
0.00122198
0.00121962
0.00121682
0.00121354
0.00120974
0.0012054
0.00120046
0.0011949
0.00118865
0.00118168
0.00117394
0.00116539
0.00124288
0.00124242
0.00124164
0.00124052
0.00123902
0.00123711
0.00123477
0.00123195
0.00122861
0.00122472
0.00122024
0.00121512
0.00120931
0.00120277
0.00119544
0.00118727
0.00125844
0.00125843
0.00125812
0.00125747
0.00125645
0.00125503
0.00125317
0.00125084
0.001248
0.00124461
0.00124062
0.00123599
0.00123066
0.00122459
0.00121772
0.00121
0.00127426
0.00127473
0.00127491
0.00127476
0.00127425
0.00127335
0.00127202
0.00127022
0.00126792
0.00126506
0.00126161
0.00125752
0.00125272
0.00124718
0.00124082
0.00123359
0.00129033
0.00129132
0.00129201
0.00129239
0.00129243
0.00129208
0.00129131
0.00129008
0.00128835
0.00128608
0.00128321
0.0012797
0.00127549
0.00127052
0.00126474
0.00125807
0.00105759
0.00110965
0.00105957
0.00108407
0.00107981
0.00107821
0.00108044
0.00108064
0.00108112
0.00108187
0.00108255
0.00108324
0.00108395
0.00108467
0.00108538
0.00108609
0.00108677
0.00108744
0.00108807
0.00108867
0.00108922
0.00108973
0.00109018
0.00109056
0.00109087
0.0010911
0.00109125
0.0010913
0.00109126
0.00109111
0.00109085
0.00109047
0.00108997
0.00108933
0.00108856
0.00108765
0.0010866
0.00108539
0.00108403
0.0010825
0.00108082
0.00107896
0.00107694
0.00107474
0.00107237
0.00106982
0.00106709
0.00106419
0.0010611
0.00105783
0.00105438
0.00105075
0.00104695
0.00104296
0.0010388
0.00106029
0.0011123
0.00106217
0.00108689
0.00108256
0.00108105
0.00108334
0.00108357
0.00108411
0.00108493
0.00108569
0.00108647
0.00108728
0.0010881
0.00108892
0.00108974
0.00109055
0.00109135
0.00109212
0.00109286
0.00109356
0.00109422
0.00109483
0.00109537
0.00109585
0.00109626
0.00109658
0.00109682
0.00109696
0.001097
0.00109693
0.00109675
0.00109644
0.00109601
0.00109544
0.00109473
0.00109388
0.00109287
0.00109171
0.00109039
0.00108891
0.00108726
0.00108544
0.00108344
0.00108126
0.00107891
0.00107637
0.00107365
0.00107075
0.00106766
0.00106438
0.00106092
0.00105728
0.00105345
0.00104944
0.0010629
0.00111507
0.00106468
0.00108971
0.00108529
0.00108386
0.00108622
0.00108649
0.00108709
0.00108798
0.00108882
0.00108969
0.0010906
0.00109152
0.00109246
0.0010934
0.00109434
0.00109526
0.00109617
0.00109706
0.00109791
0.00109873
0.00109949
0.00110021
0.00110086
0.00110144
0.00110195
0.00110237
0.0011027
0.00110293
0.00110306
0.00110308
0.00110297
0.00110274
0.00110238
0.00110189
0.00110124
0.00110045
0.0010995
0.0010984
0.00109713
0.00109569
0.00109408
0.00109229
0.00109032
0.00108817
0.00108583
0.00108331
0.0010806
0.0010777
0.00107461
0.00107133
0.00106786
0.0010642
0.00106036
0.00106548
0.00111782
0.00106719
0.0010925
0.00108801
0.00108665
0.00108908
0.00108939
0.00109006
0.00109103
0.00109194
0.0010929
0.00109391
0.00109494
0.00109599
0.00109705
0.00109811
0.00109918
0.00110023
0.00110126
0.00110227
0.00110324
0.00110417
0.00110506
0.00110588
0.00110665
0.00110734
0.00110795
0.00110848
0.00110891
0.00110924
0.00110946
0.00110956
0.00110955
0.0011094
0.00110912
0.0011087
0.00110812
0.0011074
0.00110651
0.00110546
0.00110424
0.00110285
0.00110128
0.00109953
0.0010976
0.00109547
0.00109316
0.00109066
0.00108796
0.00108507
0.00108198
0.0010787
0.00107522
0.00107155
0.00106805
0.00112054
0.00106972
0.00109524
0.00109071
0.00108941
0.00109192
0.00109228
0.00109301
0.00109406
0.00109505
0.0010961
0.00109721
0.00109835
0.00109951
0.00110069
0.00110189
0.00110309
0.00110428
0.00110546
0.00110662
0.00110776
0.00110886
0.00110992
0.00111092
0.00111187
0.00111275
0.00111356
0.00111428
0.00111492
0.00111545
0.00111589
0.00111621
0.00111641
0.00111649
0.00111643
0.00111623
0.00111588
0.00111539
0.00111473
0.00111391
0.00111293
0.00111176
0.00111042
0.0011089
0.00110719
0.00110529
0.0011032
0.00110092
0.00109844
0.00109575
0.00109287
0.00108979
0.00108651
0.00108303
0.00107062
0.00112323
0.00107227
0.00109795
0.0010934
0.00109216
0.00109474
0.00109515
0.00109595
0.00109707
0.00109815
0.00109929
0.0011005
0.00110174
0.00110302
0.00110433
0.00110566
0.00110699
0.00110833
0.00110966
0.00111098
0.00111228
0.00111355
0.00111479
0.00111597
0.00111711
0.00111818
0.00111919
0.00112012
0.00112096
0.00112171
0.00112236
0.0011229
0.00112333
0.00112363
0.00112381
0.00112384
0.00112373
0.00112347
0.00112306
0.00112248
0.00112173
0.00112081
0.00111971
0.00111843
0.00111696
0.00111529
0.00111344
0.00111138
0.00110913
0.00110667
0.00110401
0.00110114
0.00109807
0.00109479
0.00107317
0.00112591
0.00107481
0.00110062
0.00109607
0.00109489
0.00109753
0.00109799
0.00109887
0.00110006
0.00110123
0.00110246
0.00110377
0.00110513
0.00110653
0.00110796
0.00110941
0.00111089
0.00111237
0.00111386
0.00111534
0.0011168
0.00111825
0.00111966
0.00112103
0.00112236
0.00112363
0.00112484
0.00112598
0.00112703
0.001128
0.00112887
0.00112964
0.0011303
0.00113084
0.00113125
0.00113153
0.00113166
0.00113165
0.00113148
0.00113115
0.00113066
0.00112999
0.00112914
0.0011281
0.00112688
0.00112547
0.00112386
0.00112205
0.00112003
0.00111781
0.00111539
0.00111275
0.0011099
0.00110684
0.00107572
0.00112855
0.00107735
0.00110327
0.00109873
0.00109759
0.00110029
0.00110082
0.00110176
0.00110304
0.00110429
0.00110562
0.00110703
0.0011085
0.00111001
0.00111157
0.00111316
0.00111478
0.00111641
0.00111805
0.00111969
0.00112132
0.00112294
0.00112454
0.0011261
0.00112762
0.00112909
0.00113051
0.00113186
0.00113313
0.00113432
0.00113543
0.00113643
0.00113732
0.0011381
0.00113876
0.00113929
0.00113967
0.00113991
0.00114
0.00113993
0.0011397
0.00113929
0.0011387
0.00113793
0.00113697
0.00113582
0.00113447
0.00113291
0.00113115
0.00112919
0.00112701
0.00112461
0.00112201
0.00111918
0.00107826
0.00113117
0.00107988
0.00110589
0.00110136
0.00110027
0.00110304
0.00110363
0.00110464
0.001106
0.00110734
0.00110876
0.00111027
0.00111185
0.00111348
0.00111517
0.00111689
0.00111865
0.00112043
0.00112223
0.00112403
0.00112584
0.00112764
0.00112941
0.00113117
0.00113289
0.00113456
0.00113619
0.00113776
0.00113925
0.00114067
0.00114201
0.00114325
0.00114439
0.00114542
0.00114633
0.00114711
0.00114776
0.00114826
0.00114862
0.00114882
0.00114885
0.00114871
0.0011484
0.0011479
0.00114722
0.00114634
0.00114526
0.00114398
0.00114249
0.00114079
0.00113887
0.00113673
0.00113438
0.00113181
0.00108079
0.00113376
0.0010824
0.00110848
0.00110397
0.00110292
0.00110576
0.00110641
0.00110749
0.00110893
0.00111036
0.00111188
0.00111349
0.00111518
0.00111694
0.00111875
0.00112061
0.00112251
0.00112444
0.0011264
0.00112837
0.00113034
0.00113232
0.00113429
0.00113624
0.00113816
0.00114004
0.00114188
0.00114367
0.00114539
0.00114704
0.00114862
0.0011501
0.00115149
0.00115278
0.00115395
0.00115499
0.00115591
0.00115669
0.00115732
0.0011578
0.00115811
0.00115826
0.00115823
0.00115802
0.00115762
0.00115703
0.00115623
0.00115524
0.00115403
0.00115261
0.00115097
0.00114911
0.00114703
0.00114472
0.0010833
0.00113632
0.00108491
0.00111104
0.00110656
0.00110555
0.00110845
0.00110917
0.00111032
0.00111184
0.00111336
0.00111497
0.00111669
0.00111849
0.00112037
0.00112231
0.0011243
0.00112635
0.00112843
0.00113055
0.00113269
0.00113484
0.001137
0.00113915
0.0011413
0.00114342
0.00114552
0.00114758
0.00114959
0.00115154
0.00115343
0.00115525
0.00115699
0.00115863
0.00116018
0.00116162
0.00116293
0.00116413
0.00116519
0.0011661
0.00116687
0.00116747
0.00116792
0.00116818
0.00116827
0.00116817
0.00116788
0.00116738
0.00116669
0.00116578
0.00116465
0.00116331
0.00116174
0.00115995
0.00115793
0.00108579
0.00113884
0.0010874
0.00111357
0.00110912
0.00110816
0.00111111
0.0011119
0.00111313
0.00111472
0.00111633
0.00111804
0.00111987
0.00112178
0.00112378
0.00112585
0.00112798
0.00113017
0.00113241
0.00113468
0.00113699
0.00113932
0.00114166
0.00114401
0.00114635
0.00114868
0.00115099
0.00115327
0.00115551
0.0011577
0.00115984
0.00116191
0.0011639
0.0011658
0.00116762
0.00116933
0.00117093
0.0011724
0.00117375
0.00117496
0.00117603
0.00117693
0.00117768
0.00117826
0.00117865
0.00117886
0.00117888
0.0011787
0.00117832
0.00117773
0.00117691
0.00117588
0.00117463
0.00117314
0.00117142
0.00108826
0.00114134
0.00108986
0.00111608
0.00111166
0.00111073
0.00111375
0.0011146
0.0011159
0.00111758
0.00111927
0.00112108
0.00112301
0.00112504
0.00112716
0.00112936
0.00113163
0.00113397
0.00113636
0.0011388
0.00114127
0.00114378
0.00114631
0.00114885
0.00115139
0.00115394
0.00115646
0.00115897
0.00116144
0.00116387
0.00116625
0.00116857
0.00117083
0.001173
0.00117509
0.00117708
0.00117896
0.00118073
0.00118238
0.00118389
0.00118526
0.00118648
0.00118755
0.00118844
0.00118916
0.0011897
0.00119004
0.00119019
0.00119014
0.00118987
0.00118939
0.00118869
0.00118775
0.00118659
0.00118519
0.0010907
0.0011438
0.0010923
0.00111855
0.00111416
0.00111328
0.00111636
0.00111727
0.00111865
0.00112041
0.00112219
0.0011241
0.00112613
0.00112828
0.00113052
0.00113284
0.00113525
0.00113774
0.00114028
0.00114288
0.00114553
0.00114822
0.00115093
0.00115367
0.00115642
0.00115917
0.00116192
0.00116465
0.00116736
0.00117003
0.00117267
0.00117525
0.00117777
0.00118021
0.00118258
0.00118486
0.00118704
0.00118911
0.00119106
0.00119289
0.00119457
0.00119612
0.00119751
0.00119873
0.00119979
0.00120066
0.00120135
0.00120184
0.00120213
0.00120221
0.00120207
0.00120171
0.00120113
0.00120031
0.00119925
0.00109311
0.00114623
0.00109471
0.001121
0.00111664
0.0011158
0.00111893
0.00111991
0.00112136
0.0011232
0.00112508
0.00112708
0.00112922
0.00113148
0.00113384
0.0011363
0.00113885
0.00114148
0.00114418
0.00114695
0.00114977
0.00115263
0.00115554
0.00115847
0.00116143
0.00116439
0.00116736
0.00117032
0.00117327
0.00117619
0.00117908
0.00118192
0.00118471
0.00118744
0.0011901
0.00119267
0.00119515
0.00119752
0.00119979
0.00120194
0.00120395
0.00120583
0.00120755
0.00120912
0.00121052
0.00121175
0.00121279
0.00121364
0.00121429
0.00121473
0.00121495
0.00121496
0.00121474
0.00121428
0.00121358
0.00109549
0.00114862
0.00109709
0.00112341
0.00111909
0.00111829
0.00112148
0.00112252
0.00112404
0.00112597
0.00112793
0.00113003
0.00113228
0.00113465
0.00113713
0.00113972
0.00114241
0.00114519
0.00114805
0.00115098
0.00115397
0.00115702
0.00116011
0.00116325
0.00116641
0.00116959
0.00117278
0.00117598
0.00117917
0.00118234
0.00118549
0.0011886
0.00119166
0.00119467
0.00119762
0.00120049
0.00120328
0.00120597
0.00120856
0.00121104
0.00121339
0.00121561
0.00121768
0.0012196
0.00122136
0.00122295
0.00122436
0.00122558
0.00122661
0.00122742
0.00122803
0.00122842
0.00122857
0.0012285
0.00122818
0.00109783
0.00115098
0.00109945
0.00112578
0.0011215
0.00112074
0.00112399
0.0011251
0.00112669
0.0011287
0.00113075
0.00113294
0.0011353
0.00113778
0.00114039
0.00114311
0.00114594
0.00114886
0.00115188
0.00115497
0.00115814
0.00116137
0.00116466
0.00116799
0.00117136
0.00117476
0.00117818
0.00118161
0.00118505
0.00118847
0.00119188
0.00119526
0.00119861
0.00120191
0.00120515
0.00120833
0.00121143
0.00121445
0.00121737
0.00122018
0.00122287
0.00122544
0.00122788
0.00123017
0.0012323
0.00123426
0.00123605
0.00123766
0.00123908
0.00124029
0.00124129
0.00124207
0.00124263
0.00124296
0.00124305
0.00110014
0.0011533
0.00110176
0.00112813
0.00112387
0.00112316
0.00112646
0.00112763
0.0011293
0.00113139
0.00113353
0.00113582
0.00113828
0.00114088
0.00114361
0.00114646
0.00114943
0.0011525
0.00115567
0.00115893
0.00116227
0.00116569
0.00116917
0.0011727
0.00117628
0.0011799
0.00118355
0.00118722
0.0011909
0.00119458
0.00119825
0.00120191
0.00120554
0.00120913
0.00121268
0.00121617
0.00121959
0.00122294
0.00122619
0.00122935
0.0012324
0.00123533
0.00123814
0.0012408
0.00124332
0.00124567
0.00124786
0.00124987
0.00125169
0.00125331
0.00125473
0.00125593
0.00125691
0.00125765
0.00125816
0.00110241
0.00115558
0.00110404
0.00113043
0.00112621
0.00112555
0.0011289
0.00113014
0.00113187
0.00113404
0.00113627
0.00113866
0.00114123
0.00114394
0.00114679
0.00114977
0.00115288
0.0011561
0.00115943
0.00116285
0.00116637
0.00116997
0.00117364
0.00117737
0.00118116
0.001185
0.00118888
0.00119279
0.00119672
0.00120066
0.0012046
0.00120854
0.00121246
0.00121635
0.0012202
0.00122401
0.00122775
0.00123143
0.00123504
0.00123855
0.00124196
0.00124526
0.00124845
0.0012515
0.00125441
0.00125717
0.00125976
0.00126219
0.00126443
0.00126648
0.00126832
0.00126996
0.00127138
0.00127257
0.00127353
0.00125154
0.00125523
0.0012588
0.00126225
0.00126556
0.00126874
0.00127175
0.00127461
0.00127728
0.00127978
0.00128207
0.00128417
0.00128604
0.0012877
0.00128912
0.000871424
0.000926711
0.000942282
0.00089844
0.000898516
0.000923299
0.000920849
0.000907751
0.000903728
0.000903741
0.000901759
0.000898422
0.000895106
0.000891865
0.000888477
0.000884914
0.000881216
0.000877399
0.000873468
0.000869429
0.000865291
0.000861061
0.000856746
0.000852353
0.000847889
0.00084336
0.000838774
0.000834135
0.000829451
0.000824727
0.000819969
0.000815181
0.00081037
0.000805539
0.000800695
0.000795841
0.000790982
0.000786123
0.000781266
0.000776417
0.000771578
0.000766754
0.000761947
0.00075716
0.000752397
0.000747661
0.000742953
0.000738277
0.000733634
0.000729028
0.000724459
0.000719929
0.000715441
0.000710996
0.000706596
0.000870953
0.000929397
0.000940969
0.000897749
0.000900462
0.000923866
0.00092013
0.000907734
0.000904313
0.000904212
0.00090207
0.000898736
0.000895455
0.000892223
0.000888836
0.000885277
0.000881583
0.00087777
0.000873842
0.000869807
0.000865672
0.000861444
0.000857132
0.000852742
0.00084828
0.000843753
0.000839169
0.000834532
0.000829849
0.000825126
0.000820368
0.00081558
0.000810769
0.000805938
0.000801094
0.000796239
0.000791379
0.000786518
0.00078166
0.000776809
0.000771968
0.000767142
0.000762332
0.000757543
0.000752777
0.000748038
0.000743327
0.000738647
0.000734001
0.00072939
0.000724817
0.000720283
0.000715791
0.000711342
0.000706937
0.0008721
0.000930492
0.000940621
0.000898322
0.000901944
0.000924237
0.000920024
0.000908243
0.000905157
0.000904941
0.0009027
0.000899384
0.000896136
0.000892916
0.000889533
0.000885981
0.000882295
0.00087849
0.000874569
0.00087054
0.000866411
0.00086219
0.000857883
0.000853497
0.000849039
0.000844517
0.000839936
0.000835302
0.000830621
0.000825899
0.000821143
0.000816356
0.000811545
0.000806714
0.000801868
0.000797013
0.000792151
0.000787287
0.000782427
0.000777572
0.000772727
0.000767896
0.000763082
0.000758288
0.000753516
0.000748771
0.000744053
0.000739367
0.000734713
0.000730095
0.000725515
0.000720973
0.000716473
0.000712015
0.000707601
0.000873355
0.000931982
0.000940942
0.000899156
0.000903446
0.000925
0.00092042
0.00090905
0.000906218
0.000905942
0.000903642
0.000900345
0.000897127
0.000893921
0.000890548
0.000887008
0.000883333
0.000879538
0.000875628
0.000871609
0.000867489
0.000863276
0.000858976
0.000854598
0.000850147
0.00084563
0.000841054
0.000836424
0.000831747
0.000827028
0.000822274
0.000817488
0.000812678
0.000807846
0.000802999
0.000798142
0.000793277
0.00078841
0.000783545
0.000778686
0.000773836
0.000768998
0.000764177
0.000759375
0.000754596
0.000749841
0.000745115
0.000740418
0.000735755
0.000731126
0.000726534
0.000721981
0.000717468
0.000712998
0.000708571
0.000874902
0.000933878
0.000941599
0.000900225
0.000905238
0.000926118
0.000921136
0.000910123
0.00090754
0.000907225
0.000904875
0.000901598
0.00089841
0.000895223
0.000891864
0.000888337
0.000884678
0.000880897
0.000877
0.000872993
0.000868885
0.000864683
0.000860394
0.000856025
0.000851583
0.000847073
0.000842504
0.00083788
0.000833208
0.000828493
0.000823741
0.000818957
0.000814147
0.000809316
0.000804468
0.000799608
0.00079474
0.000789869
0.000784999
0.000780133
0.000775276
0.000770431
0.000765601
0.000760789
0.000755999
0.000751234
0.000746495
0.000741786
0.000737109
0.000732467
0.00072786
0.000723292
0.000718764
0.000714277
0.000709834
0.000876735
0.000936059
0.000942516
0.000901585
0.000907303
0.000927485
0.000922119
0.00091147
0.000909128
0.00090877
0.000906377
0.000903124
0.000899969
0.000896803
0.000893461
0.000889952
0.000886311
0.000882547
0.000878666
0.000874675
0.000870581
0.000866393
0.000862117
0.00085776
0.000853328
0.000848829
0.000844268
0.000839651
0.000834985
0.000830275
0.000825527
0.000820746
0.000815937
0.000811106
0.000806256
0.000801394
0.000796522
0.000791646
0.00078677
0.000781897
0.000777032
0.000772177
0.000767337
0.000762514
0.000757711
0.000752932
0.00074818
0.000743456
0.000738763
0.000734103
0.000729479
0.000724893
0.000720346
0.00071584
0.000711377
0.000878823
0.000938489
0.000943674
0.000903211
0.000909608
0.000929077
0.000923356
0.000913082
0.000910966
0.000910562
0.00090813
0.000904906
0.000901787
0.000898644
0.000895323
0.000891835
0.000888215
0.000884471
0.000880609
0.000876637
0.000872561
0.000868389
0.000864128
0.000859785
0.000855366
0.000850878
0.000846328
0.00084172
0.000837062
0.000832358
0.000827615
0.000822837
0.00081803
0.000813199
0.000808349
0.000803484
0.000798608
0.000793727
0.000788844
0.000783964
0.000779089
0.000774224
0.000769371
0.000764535
0.000759719
0.000754924
0.000750155
0.000745414
0.000740702
0.000736024
0.000731379
0.000726772
0.000722203
0.000717675
0.000713188
0.00088115
0.000941151
0.000945048
0.000905082
0.000912143
0.000930885
0.000924831
0.00091494
0.00091304
0.000912585
0.00091012
0.000906929
0.000903849
0.000900731
0.000897433
0.00089397
0.000890373
0.000886652
0.000882813
0.000878861
0.000874806
0.000870653
0.00086641
0.000862084
0.00085768
0.000853206
0.000848668
0.000844071
0.000839422
0.000834726
0.000829989
0.000825216
0.000820412
0.000815582
0.000810731
0.000805863
0.000800984
0.000796098
0.000791208
0.000786319
0.000781434
0.000776557
0.000771692
0.000766841
0.000762009
0.000757197
0.00075241
0.000747649
0.000742917
0.000738217
0.00073355
0.000728919
0.000724326
0.000719772
0.000715259
0.000883698
0.000944027
0.000946615
0.000907181
0.000914894
0.000932891
0.000926524
0.000917027
0.000915333
0.000914824
0.00091233
0.000909177
0.000906137
0.000903048
0.000899775
0.000896339
0.00089277
0.000889075
0.000885261
0.000881334
0.000877301
0.00087317
0.000868948
0.000864641
0.000860255
0.000855797
0.000851274
0.00084669
0.000842052
0.000837365
0.000832635
0.000827867
0.000823067
0.000818239
0.000813388
0.000808519
0.000803637
0.000798745
0.000793848
0.000788949
0.000784054
0.000779165
0.000774286
0.00076942
0.00076457
0.000759741
0.000754933
0.000750151
0.000745397
0.000740673
0.000735981
0.000731324
0.000726704
0.000722122
0.000717581
0.000886449
0.000947098
0.000948357
0.000909491
0.000917846
0.000935079
0.000928421
0.000919327
0.000917831
0.000917265
0.000914745
0.000911634
0.000908637
0.000905579
0.000902335
0.000898929
0.00089539
0.000891724
0.000887938
0.000884038
0.000880032
0.000875926
0.000871727
0.000867441
0.000863076
0.000858637
0.00085413
0.000849561
0.000844936
0.00084026
0.00083554
0.000830779
0.000825984
0.000821159
0.000816309
0.000811439
0.000806553
0.000801656
0.000796752
0.000791845
0.000786939
0.000782037
0.000777143
0.000772261
0.000767394
0.000762544
0.000757716
0.000752911
0.000748132
0.000743383
0.000738664
0.000733979
0.00072933
0.000724717
0.000720145
0.000889387
0.000950346
0.000950256
0.000911996
0.00092098
0.000937432
0.000930506
0.000921825
0.000920518
0.000919891
0.000917352
0.000914286
0.000911334
0.00090831
0.000905098
0.000901725
0.000898218
0.000894585
0.00089083
0.000886961
0.000882983
0.000878905
0.000874732
0.000870471
0.000866129
0.000861711
0.000857223
0.000852671
0.000848061
0.000843399
0.000838689
0.000833937
0.000829149
0.000824328
0.00081948
0.00081461
0.000809722
0.000804821
0.00079991
0.000794994
0.000790077
0.000785162
0.000780254
0.000775355
0.000770469
0.000765599
0.000760748
0.000755919
0.000751115
0.000746338
0.000741591
0.000736877
0.000732196
0.000727551
0.000722945
0.000892496
0.000953754
0.000952295
0.000914682
0.000924281
0.000939936
0.000932765
0.000924507
0.000923378
0.000922689
0.000920135
0.000917119
0.000914215
0.000911225
0.000908048
0.000904711
0.000901241
0.000897643
0.000893923
0.000890087
0.000886141
0.000882094
0.00087795
0.000873717
0.0008694
0.000865006
0.00086054
0.000856008
0.000851416
0.000846769
0.000842072
0.000837331
0.00083255
0.000827736
0.000822891
0.000818022
0.000813133
0.000808228
0.000803311
0.000798387
0.000793459
0.000788532
0.000783608
0.000778692
0.000773787
0.000768896
0.000764022
0.000759169
0.000754338
0.000749533
0.000744756
0.00074001
0.000735296
0.000730617
0.000725975
0.000895759
0.000957305
0.000954458
0.000917534
0.000927733
0.000942576
0.000935186
0.000927358
0.000926398
0.000925645
0.000923081
0.000920118
0.000917264
0.000914313
0.000911173
0.000907876
0.000904445
0.000900886
0.000897203
0.000893403
0.000889493
0.000885479
0.000881368
0.000877165
0.000872877
0.00086851
0.000864069
0.000859559
0.000854987
0.000850357
0.000845676
0.000840947
0.000836177
0.00083137
0.000826531
0.000821665
0.000816776
0.000811868
0.000806946
0.000802015
0.000797077
0.000792137
0.000787199
0.000782265
0.000777341
0.000772429
0.000767531
0.000762652
0.000757794
0.00075296
0.000748152
0.000743373
0.000738625
0.00073391
0.000729231
0.000899164
0.000960984
0.000956731
0.000920541
0.000931321
0.000945337
0.000937756
0.000930366
0.000929563
0.000928744
0.000926178
0.000923272
0.000920469
0.000917559
0.00091446
0.000911205
0.000907817
0.000904299
0.000900657
0.000896897
0.000893026
0.000889049
0.000884973
0.000880805
0.000876548
0.000872211
0.000867797
0.000863312
0.000858763
0.000854154
0.00084949
0.000844777
0.000840019
0.000835222
0.00083039
0.000825528
0.00082064
0.000815732
0.000810806
0.000805868
0.000800921
0.000795969
0.000791016
0.000786067
0.000781123
0.000776189
0.000771268
0.000766363
0.000761477
0.000756612
0.000751772
0.00074696
0.000742176
0.000737424
0.000732706
0.000902696
0.000964776
0.0009591
0.000923689
0.00093503
0.000948207
0.000940463
0.000933517
0.00093286
0.000931975
0.000929411
0.000926566
0.000923817
0.00092095
0.000917895
0.000914686
0.000911344
0.000907871
0.000904273
0.000900556
0.000896727
0.000892791
0.000888754
0.000884622
0.000880401
0.000876096
0.000871713
0.000867257
0.000862733
0.000858147
0.000853504
0.000848809
0.000844066
0.000839281
0.000834458
0.000829602
0.000824718
0.00081981
0.000814882
0.000809938
0.000804983
0.000800021
0.000795055
0.000790089
0.000785126
0.000780171
0.000775226
0.000770295
0.000765381
0.000760486
0.000755613
0.000750766
0.000745946
0.000741156
0.000736398
0.000906341
0.000968666
0.000961552
0.000926967
0.000938848
0.000951172
0.000943296
0.000936799
0.000936275
0.000935324
0.000932769
0.000929989
0.000927296
0.000924475
0.000921468
0.000918308
0.000915014
0.000911589
0.000908039
0.000904369
0.000900585
0.000896693
0.000892698
0.000888607
0.000884424
0.000880156
0.000875807
0.000871382
0.000866887
0.000862327
0.000857707
0.000853032
0.000848307
0.000843537
0.000838726
0.000833878
0.000828999
0.000824094
0.000819165
0.000814218
0.000809256
0.000804284
0.000799306
0.000794325
0.000789344
0.000784368
0.0007794
0.000774443
0.0007695
0.000764575
0.000759669
0.000754787
0.000749929
0.0007451
0.000740301
0.000910088
0.00097264
0.000964074
0.000930365
0.00094276
0.000954221
0.000946245
0.000940199
0.000939796
0.000938779
0.000936241
0.000933529
0.000930894
0.000928122
0.000925165
0.000922057
0.000918816
0.000915443
0.000911944
0.000908323
0.000904588
0.000900744
0.000896795
0.000892748
0.000888607
0.000884379
0.000880067
0.000875677
0.000871214
0.000866684
0.00086209
0.000857439
0.000852734
0.000847981
0.000843184
0.000838348
0.000833477
0.000828576
0.000823649
0.0008187
0.000813733
0.000808753
0.000803764
0.000798768
0.000793771
0.000788775
0.000783784
0.000778802
0.000773831
0.000768875
0.000763936
0.000759018
0.000754123
0.000749254
0.000744414
0.000913925
0.000976686
0.000966654
0.000933872
0.000946753
0.000957342
0.000949298
0.000943707
0.000943411
0.00094233
0.000939814
0.000937174
0.0009346
0.00093188
0.000928976
0.000925924
0.000922738
0.00091942
0.000915975
0.000912409
0.000908727
0.000904933
0.000901034
0.000897035
0.00089294
0.000888754
0.000884483
0.000880132
0.000875705
0.000871207
0.000866644
0.000862019
0.000857338
0.000852605
0.000847825
0.000843003
0.000838142
0.000833248
0.000828325
0.000823376
0.000818407
0.00081342
0.000808421
0.000803413
0.0007984
0.000793386
0.000788373
0.000783366
0.000778367
0.000773381
0.00076841
0.000763456
0.000758524
0.000753615
0.000748732
0.00091784
0.00098079
0.000969282
0.000937478
0.000950815
0.000960525
0.000952447
0.00094731
0.000947109
0.000945966
0.00094348
0.000940915
0.000938403
0.000935737
0.00093289
0.000929897
0.00092677
0.000923511
0.000920124
0.000916615
0.000912989
0.00090925
0.000905405
0.000901457
0.000897411
0.000893273
0.000889046
0.000884737
0.000880349
0.000875888
0.000871358
0.000866763
0.000862109
0.0008574
0.00085264
0.000847835
0.000842987
0.000838103
0.000833186
0.00082824
0.00082327
0.00081828
0.000813273
0.000808254
0.000803227
0.000798195
0.000793162
0.000788131
0.000783106
0.00077809
0.000773086
0.000768098
0.000763127
0.000758178
0.000753253
0.000921823
0.000984941
0.000971947
0.000941174
0.000954934
0.00096376
0.000955683
0.000950999
0.000950878
0.000949675
0.000947227
0.00094474
0.000942293
0.000939684
0.000936897
0.000933966
0.000930901
0.000927704
0.000924379
0.000920931
0.000917365
0.000913685
0.000909897
0.000906004
0.000902011
0.000897924
0.000893746
0.000889483
0.000885139
0.000880717
0.000876224
0.000871664
0.00086704
0.000862358
0.000857622
0.000852836
0.000848005
0.000843134
0.000838226
0.000833285
0.000828317
0.000823325
0.000818313
0.000813285
0.000808246
0.000803198
0.000798145
0.000793092
0.000788042
0.000782997
0.000777962
0.000772939
0.000767931
0.000762942
0.000757974
0.000925863
0.000989127
0.000974639
0.000944953
0.000959098
0.000967038
0.000958997
0.000954762
0.000954708
0.000953449
0.000951046
0.000948641
0.000946259
0.00094371
0.000940987
0.000938121
0.000935122
0.000931991
0.000928731
0.000925348
0.000921845
0.000918228
0.0009145
0.000910667
0.000906732
0.000902699
0.000898574
0.000894361
0.000890063
0.000885686
0.000881234
0.000876711
0.000872121
0.00086747
0.000862761
0.000857999
0.000853188
0.000848332
0.000843436
0.000838505
0.000833541
0.00082855
0.000823535
0.000818501
0.000813451
0.000808389
0.00080332
0.000798246
0.000793171
0.000788099
0.000783033
0.000777976
0.000772932
0.000767904
0.000762894
0.000929952
0.000993337
0.000977349
0.000948804
0.000963296
0.000970349
0.000962382
0.00095859
0.000958588
0.000957278
0.000954927
0.000952606
0.000950292
0.000947806
0.00094515
0.000942353
0.000939424
0.000936361
0.00093317
0.000929855
0.00092642
0.000922869
0.000919206
0.000915436
0.000911562