/*--------------------------------*- C++ -*----------------------------------*\
| =========                 |                                                 |
| \\      /  F ield         | OpenFOAM: The Open Source CFD Toolbox           |
|  \\    /   O peration     | Version:  2412                                  |
|   \\  /    A nd           | Website:  www.openfoam.com                      |
|    \\/     M anipulation  |                                                 |
\*---------------------------------------------------------------------------*/
FoamFile
{
    version     2.0;
    format      ascii;
    arch        "LSB;label=32;scalar=64";
    class       volVectorField;
    location    "25.5";
    object      vorticity;
}
// * * * * * * * * * * * * * * * * * * * * * * * * * * * * * * * * * * * * * //

dimensions      [0 0 -1 0 0 0 0];

internalField   nonuniform List<vector> 
5285
(
(0 -0 2.63409e-06)
(0 -0 1.71412e-06)
(0 -0 1.08816e-06)
(0 -0 6.89641e-07)
(0 -0 4.5457e-07)
(0 -0 3.28225e-07)
(0 -0 2.69027e-07)
(0 -0 2.47907e-07)
(0 -0 2.4624e-07)
(0 -0 2.53031e-07)
(0 -0 2.6231e-07)
(0 -0 2.71181e-07)
(0 -0 2.78429e-07)
(0 -0 2.83669e-07)
(0 -0 2.86866e-07)
(0 -0 2.88107e-07)
(0 -0 2.87454e-07)
(0 -0 2.84968e-07)
(0 -0 2.80727e-07)
(0 -0 2.74909e-07)
(0 -0 2.6781e-07)
(0 -0 2.5984e-07)
(0 -0 2.51382e-07)
(0 -0 2.42651e-07)
(0 -0 2.33619e-07)
(0 -0 2.24096e-07)
(0 -0 2.13927e-07)
(0 -0 2.03281e-07)
(0 -0 1.92747e-07)
(0 -0 1.8304e-07)
(0 -0 1.74626e-07)
(0 -0 1.67254e-07)
(0 -0 1.59995e-07)
(0 -0 1.51755e-07)
(0 -0 1.41838e-07)
(0 -0 1.30451e-07)
(0 -0 1.18499e-07)
(0 -0 1.07076e-07)
(0 -0 9.70199e-08)
(0 -0 8.85521e-08)
(0 -0 8.12443e-08)
(0 -0 7.43173e-08)
(0 -0 6.69516e-08)
(0 -0 5.88762e-08)
(0 -0 5.03511e-08)
(0 -0 4.23049e-08)
(0 -0 3.48682e-08)
(0 -0 2.84655e-08)
(0 -0 2.17655e-08)
(0 -0 1.53221e-08)
(0 -0 7.45202e-09)
(0 -0 3.23083e-11)
(0 -0 -9.39047e-09)
(0 -0 -1.63421e-08)
(0 -0 -2.5271e-08)
(0 -0 -3.06764e-08)
(0 -0 -4.09577e-08)
(0 -0 -4.63524e-08)
(0 -0 -5.79419e-08)
(0 -0 -6.42595e-08)
(0 -0 -7.6487e-08)
(0 -0 -8.64867e-08)
(0 -0 -8.34685e-08)
(0 -0 -1.56786e-07)
(0 -0 1.92034e-08)
(0 -0 -4.54902e-07)
(0 -0 3.75789e-07)
(0 -0 -7.12996e-07)
(0 -0 -1.11973e-07)
(0 -0 1.84197e-07)
(0 -0 -3.31076e-07)
(0 -0 7.59368e-06)
(0 -0 4.88228e-06)
(0 -0 3.04056e-06)
(0 -0 1.87717e-06)
(0 -0 1.19627e-06)
(0 -0 8.36863e-07)
(0 -0 6.75738e-07)
(0 -0 6.26459e-07)
(0 -0 6.33533e-07)
(0 -0 6.64195e-07)
(0 -0 7.0057e-07)
(0 -0 7.34027e-07)
(0 -0 7.6094e-07)
(0 -0 7.80154e-07)
(0 -0 7.92068e-07)
(0 -0 7.97338e-07)
(0 -0 7.9656e-07)
(0 -0 7.90677e-07)
(0 -0 7.80181e-07)
(0 -0 7.65703e-07)
(0 -0 7.48145e-07)
(0 -0 7.28015e-07)
(0 -0 7.06133e-07)
(0 -0 6.82931e-07)
(0 -0 6.5841e-07)
(0 -0 6.32708e-07)
(0 -0 6.05877e-07)
(0 -0 5.78138e-07)
(0 -0 5.50185e-07)
(0 -0 5.23013e-07)
(0 -0 4.96868e-07)
(0 -0 4.71822e-07)
(0 -0 4.47124e-07)
(0 -0 4.21458e-07)
(0 -0 3.94594e-07)
(0 -0 3.66213e-07)
(0 -0 3.375e-07)
(0 -0 3.09419e-07)
(0 -0 2.82709e-07)
(0 -0 2.57971e-07)
(0 -0 2.34575e-07)
(0 -0 2.11896e-07)
(0 -0 1.89015e-07)
(0 -0 1.66014e-07)
(0 -0 1.42294e-07)
(0 -0 1.1969e-07)
(0 -0 9.70543e-08)
(0 -0 7.61501e-08)
(0 -0 5.41556e-08)
(0 -0 3.40092e-08)
(0 -0 1.06685e-08)
(0 -0 -9.54849e-09)
(0 -0 -3.50351e-08)
(0 -0 -5.38758e-08)
(0 -0 -8.03641e-08)
(0 -0 -9.66765e-08)
(0 -0 -1.27132e-07)
(0 -0 -1.43415e-07)
(0 -0 -1.78794e-07)
(0 -0 -1.96631e-07)
(0 -0 -2.34118e-07)
(0 -0 -2.66272e-07)
(0 -0 -2.58099e-07)
(0 -0 -4.7562e-07)
(0 -0 4.33211e-08)
(0 -0 -1.36582e-06)
(0 -0 1.10501e-06)
(0 -0 -2.1267e-06)
(0 -0 -3.39358e-07)
(0 -0 5.36331e-07)
(0 -0 -9.92705e-07)
(0 -0 1.23422e-05)
(0 -0 7.90592e-06)
(0 -0 4.9063e-06)
(0 -0 3.01212e-06)
(0 -0 1.90631e-06)
(0 -0 1.32581e-06)
(0 -0 1.06901e-06)
(0 -0 9.94523e-07)
(0 -0 1.01161e-06)
(0 -0 1.06655e-06)
(0 -0 1.13007e-06)
(0 -0 1.18813e-06)
(0 -0 1.23469e-06)
(0 -0 1.26797e-06)
(0 -0 1.28885e-06)
(0 -0 1.2984e-06)
(0 -0 1.29788e-06)
(0 -0 1.28909e-06)
(0 -0 1.27278e-06)
(0 -0 1.25022e-06)
(0 -0 1.22281e-06)
(0 -0 1.19111e-06)
(0 -0 1.15649e-06)
(0 -0 1.11946e-06)
(0 -0 1.08012e-06)
(0 -0 1.03897e-06)
(0 -0 9.9619e-07)
(0 -0 9.52054e-07)
(0 -0 9.07408e-07)
(0 -0 8.63478e-07)
(0 -0 8.20263e-07)
(0 -0 7.7827e-07)
(0 -0 7.36799e-07)
(0 -0 6.94381e-07)
(0 -0 6.51269e-07)
(0 -0 6.06518e-07)
(0 -0 5.61751e-07)
(0 -0 5.17647e-07)
(0 -0 4.74921e-07)
(0 -0 4.34552e-07)
(0 -0 3.95648e-07)
(0 -0 3.57813e-07)
(0 -0 3.20021e-07)
(0 -0 2.82675e-07)
(0 -0 2.44308e-07)
(0 -0 2.07736e-07)
(0 -0 1.70419e-07)
(0 -0 1.35563e-07)
(0 -0 9.88265e-08)
(0 -0 6.55136e-08)
(0 -0 2.72535e-08)
(0 -0 -5.21981e-09)
(0 -0 -4.62127e-08)
(0 -0 -7.6451e-08)
(0 -0 -1.19882e-07)
(0 -0 -1.46612e-07)
(0 -0 -1.96569e-07)
(0 -0 -2.23255e-07)
(0 -0 -2.8163e-07)
(0 -0 -3.10431e-07)
(0 -0 -3.7235e-07)
(0 -0 -4.25688e-07)
(0 -0 -4.12819e-07)
(0 -0 -7.68249e-07)
(0 -0 7.80632e-08)
(0 -0 -2.22399e-06)
(0 -0 1.81097e-06)
(0 -0 -3.46134e-06)
(0 -0 -5.5242e-07)
(0 -0 8.85647e-07)
(0 -0 -1.60968e-06)
(0 -0 1.67174e-05)
(0 -0 1.06944e-05)
(0 -0 6.61928e-06)
(0 -0 4.0495e-06)
(0 -0 2.55285e-06)
(0 -0 1.77078e-06)
(0 -0 1.42878e-06)
(0 -0 1.33437e-06)
(0 -0 1.3639e-06)
(0 -0 1.44415e-06)
(0 -0 1.53538e-06)
(0 -0 1.61832e-06)
(0 -0 1.68491e-06)
(0 -0 1.73299e-06)
(0 -0 1.76352e-06)
(0 -0 1.77823e-06)
(0 -0 1.77913e-06)
(0 -0 1.76837e-06)
(0 -0 1.7475e-06)
(0 -0 1.71818e-06)
(0 -0 1.68205e-06)
(0 -0 1.64027e-06)
(0 -0 1.59421e-06)
(0 -0 1.5447e-06)
(0 -0 1.49212e-06)
(0 -0 1.43695e-06)
(0 -0 1.37959e-06)
(0 -0 1.32052e-06)
(0 -0 1.26066e-06)
(0 -0 1.20117e-06)
(0 -0 1.14242e-06)
(0 -0 1.08475e-06)
(0 -0 1.02764e-06)
(0 -0 9.69927e-07)
(0 -0 9.11511e-07)
(0 -0 8.51894e-07)
(0 -0 7.92186e-07)
(0 -0 7.33254e-07)
(0 -0 6.75861e-07)
(0 -0 6.20879e-07)
(0 -0 5.67659e-07)
(0 -0 5.15798e-07)
(0 -0 4.64185e-07)
(0 -0 4.13268e-07)
(0 -0 3.61583e-07)
(0 -0 3.11727e-07)
(0 -0 2.60911e-07)
(0 -0 2.13029e-07)
(0 -0 1.62581e-07)
(0 -0 1.16834e-07)
(0 -0 6.47075e-08)
(0 -0 2.07316e-08)
(0 -0 -3.48413e-08)
(0 -0 -7.53073e-08)
(0 -0 -1.34943e-07)
(0 -0 -1.7108e-07)
(0 -0 -2.40072e-07)
(0 -0 -2.75642e-07)
(0 -0 -3.56417e-07)
(0 -0 -3.94619e-07)
(0 -0 -4.80501e-07)
(0 -0 -5.52588e-07)
(0 -0 -5.36748e-07)
(0 -0 -1.01906e-06)
(0 -0 1.28261e-07)
(0 -0 -2.99761e-06)
(0 -0 2.47738e-06)
(0 -0 -4.6692e-06)
(0 -0 -7.44704e-07)
(0 -0 1.22861e-06)
(0 -0 -2.15671e-06)
(0 -0 2.06405e-05)
(0 -0 1.31917e-05)
(0 -0 8.15379e-06)
(0 -0 4.98141e-06)
(0 -0 3.13813e-06)
(0 -0 2.17939e-06)
(0 -0 1.76496e-06)
(0 -0 1.65641e-06)
(0 -0 1.70042e-06)
(0 -0 1.80629e-06)
(0 -0 1.92487e-06)
(0 -0 2.03222e-06)
(0 -0 2.11849e-06)
(0 -0 2.1812e-06)
(0 -0 2.2215e-06)
(0 -0 2.24174e-06)
(0 -0 2.24456e-06)
(0 -0 2.23259e-06)
(0 -0 2.208e-06)
(0 -0 2.17287e-06)
(0 -0 2.12914e-06)
(0 -0 2.07842e-06)
(0 -0 2.02219e-06)
(0 -0 1.96149e-06)
(0 -0 1.89698e-06)
(0 -0 1.82919e-06)
(0 -0 1.75868e-06)
(0 -0 1.68611e-06)
(0 -0 1.61245e-06)
(0 -0 1.53888e-06)
(0 -0 1.46601e-06)
(0 -0 1.3941e-06)
(0 -0 1.32279e-06)
(0 -0 1.25116e-06)
(0 -0 1.17889e-06)
(0 -0 1.10575e-06)
(0 -0 1.03252e-06)
(0 -0 9.60122e-07)
(0 -0 8.89385e-07)
(0 -0 8.21132e-07)
(0 -0 7.54872e-07)
(0 -0 6.90254e-07)
(0 -0 6.26074e-07)
(0 -0 5.62847e-07)
(0 -0 4.99013e-07)
(0 -0 4.37115e-07)
(0 -0 3.73972e-07)
(0 -0 3.14253e-07)
(0 -0 2.51292e-07)
(0 -0 1.94282e-07)
(0 -0 1.2948e-07)
(0 -0 7.51437e-08)
(0 -0 6.21946e-09)
(0 -0 -4.34199e-08)
(0 -0 -1.1796e-07)
(0 -0 -1.62424e-07)
(0 -0 -2.49003e-07)
(0 -0 -2.92335e-07)
(0 -0 -3.93865e-07)
(0 -0 -4.40183e-07)
(0 -0 -5.48306e-07)
(0 -0 -6.36935e-07)
(0 -0 -6.19234e-07)
(0 -0 -1.21465e-06)
(0 -0 1.99755e-07)
(0 -0 -3.65829e-06)
(0 -0 3.09149e-06)
(0 -0 -5.70696e-06)
(0 -0 -9.07913e-07)
(0 -0 1.56419e-06)
(0 -0 -2.60801e-06)
(0 -0 2.40197e-05)
(0 -0 1.53413e-05)
(0 -0 9.47614e-06)
(0 -0 5.7887e-06)
(0 -0 3.65143e-06)
(0 -0 2.5453e-06)
(0 -0 2.07321e-06)
(0 -0 1.95685e-06)
(0 -0 2.01723e-06)
(0 -0 2.14856e-06)
(0 -0 2.29358e-06)
(0 -0 2.42441e-06)
(0 -0 2.52967e-06)
(0 -0 2.60661e-06)
(0 -0 2.65663e-06)
(0 -0 2.68264e-06)
(0 -0 2.68789e-06)
(0 -0 2.67549e-06)
(0 -0 2.64814e-06)
(0 -0 2.60832e-06)
(0 -0 2.5583e-06)
(0 -0 2.50001e-06)
(0 -0 2.43512e-06)
(0 -0 2.36485e-06)
(0 -0 2.29004e-06)
(0 -0 2.21136e-06)
(0 -0 2.12946e-06)
(0 -0 2.04516e-06)
(0 -0 1.95951e-06)
(0 -0 1.87368e-06)
(0 -0 1.78846e-06)
(0 -0 1.70413e-06)
(0 -0 1.62042e-06)
(0 -0 1.53661e-06)
(0 -0 1.45228e-06)
(0 -0 1.36732e-06)
(0 -0 1.2823e-06)
(0 -0 1.19815e-06)
(0 -0 1.11573e-06)
(0 -0 1.03587e-06)
(0 -0 9.58183e-07)
(0 -0 8.82386e-07)
(0 -0 8.07195e-07)
(0 -0 7.33209e-07)
(0 -0 6.58706e-07)
(0 -0 5.8628e-07)
(0 -0 5.12289e-07)
(0 -0 4.42191e-07)
(0 -0 3.68202e-07)
(0 -0 3.0136e-07)
(0 -0 2.25353e-07)
(0 -0 1.62052e-07)
(0 -0 8.12623e-08)
(0 -0 2.37778e-08)
(0 -0 -6.41553e-08)
(0 -0 -1.15549e-07)
(0 -0 -2.18092e-07)
(0 -0 -2.67641e-07)
(0 -0 -3.88177e-07)
(0 -0 -4.40788e-07)
(0 -0 -5.69418e-07)
(0 -0 -6.71557e-07)
(0 -0 -6.538e-07)
(0 -0 -1.34521e-06)
(0 -0 2.94632e-07)
(0 -0 -4.18405e-06)
(0 -0 3.63953e-06)
(0 -0 -6.54054e-06)
(0 -0 -1.03882e-06)
(0 -0 1.88864e-06)
(0 -0 -2.94567e-06)
(0 -0 2.67974e-05)
(0 -0 1.71168e-05)
(0 -0 1.05769e-05)
(0 -0 6.47251e-06)
(0 -0 4.09958e-06)
(0 -0 2.87802e-06)
(0 -0 2.36384e-06)
(0 -0 2.2458e-06)
(0 -0 2.32372e-06)
(0 -0 2.47943e-06)
(0 -0 2.64901e-06)
(0 -0 2.8014e-06)
(0 -0 2.92403e-06)
(0 -0 3.01401e-06)
(0 -0 3.07298e-06)
(0 -0 3.10437e-06)
(0 -0 3.11199e-06)
(0 -0 3.09941e-06)
(0 -0 3.06981e-06)
(0 -0 3.02605e-06)
(0 -0 2.9707e-06)
(0 -0 2.90596e-06)
(0 -0 2.83366e-06)
(0 -0 2.7552e-06)
(0 -0 2.67157e-06)
(0 -0 2.58356e-06)
(0 -0 2.49192e-06)
(0 -0 2.39759e-06)
(0 -0 2.30169e-06)
(0 -0 2.2054e-06)
(0 -0 2.1096e-06)
(0 -0 2.01464e-06)
(0 -0 1.92034e-06)
(0 -0 1.82612e-06)
(0 -0 1.73154e-06)
(0 -0 1.63653e-06)
(0 -0 1.54152e-06)
(0 -0 1.4474e-06)
(0 -0 1.35506e-06)
(0 -0 1.26535e-06)
(0 -0 1.17794e-06)
(0 -0 1.09265e-06)
(0 -0 1.00812e-06)
(0 -0 9.25035e-07)
(0 -0 8.41484e-07)
(0 -0 7.60166e-07)
(0 -0 6.76963e-07)
(0 -0 5.98086e-07)
(0 -0 5.1472e-07)
(0 -0 4.39615e-07)
(0 -0 3.54064e-07)
(0 -0 2.8332e-07)
(0 -0 1.92375e-07)
(0 -0 1.28486e-07)
(0 -0 2.89485e-08)
(0 -0 -2.79066e-08)
(0 -0 -1.44416e-07)
(0 -0 -1.98603e-07)
(0 -0 -3.35896e-07)
(0 -0 -3.93009e-07)
(0 -0 -5.39779e-07)
(0 -0 -6.5236e-07)
(0 -0 -6.36064e-07)
(0 -0 -1.40449e-06)
(0 -0 4.14144e-07)
(0 -0 -4.55903e-06)
(0 -0 4.11088e-06)
(0 -0 -7.14441e-06)
(0 -0 -1.13475e-06)
(0 -0 2.19943e-06)
(0 -0 -3.15963e-06)
(0 -0 2.89487e-05)
(0 -0 1.85005e-05)
(0 -0 1.14449e-05)
(0 -0 7.02398e-06)
(0 -0 4.4761e-06)
(0 -0 3.173e-06)
(0 -0 2.63382e-06)
(0 -0 2.52137e-06)
(0 -0 2.61897e-06)
(0 -0 2.79872e-06)
(0 -0 2.99154e-06)
(0 -0 3.16399e-06)
(0 -0 3.30271e-06)
(0 -0 3.40476e-06)
(0 -0 3.47208e-06)
(0 -0 3.5086e-06)
(0 -0 3.51863e-06)
(0 -0 3.5062e-06)
(0 -0 3.47495e-06)
(0 -0 3.42806e-06)
(0 -0 3.3684e-06)
(0 -0 3.29836e-06)
(0 -0 3.21996e-06)
(0 -0 3.13474e-06)
(0 -0 3.04381e-06)
(0 -0 2.94808e-06)
(0 -0 2.84839e-06)
(0 -0 2.74577e-06)
(0 -0 2.64141e-06)
(0 -0 2.53648e-06)
(0 -0 2.43194e-06)
(0 -0 2.32819e-06)
(0 -0 2.22514e-06)
(0 -0 2.12234e-06)
(0 -0 2.01936e-06)
(0 -0 1.91611e-06)
(0 -0 1.81293e-06)
(0 -0 1.71066e-06)
(0 -0 1.6102e-06)
(0 -0 1.51242e-06)
(0 -0 1.41705e-06)
(0 -0 1.32399e-06)
(0 -0 1.23181e-06)
(0 -0 1.14133e-06)
(0 -0 1.05038e-06)
(0 -0 9.61839e-07)
(0 -0 8.71082e-07)
(0 -0 7.85086e-07)
(0 -0 6.93996e-07)
(0 -0 6.12258e-07)
(0 -0 5.18806e-07)
(0 -0 4.42212e-07)
(0 -0 3.42787e-07)
(0 -0 2.74038e-07)
(0 -0 1.64651e-07)
(0 -0 1.03907e-07)
(0 -0 -2.46184e-08)
(0 -0 -8.17676e-08)
(0 -0 -2.33595e-07)
(0 -0 -2.93339e-07)
(0 -0 -4.55893e-07)
(0 -0 -5.75726e-07)
(0 -0 -5.62612e-07)
(0 -0 -1.38827e-06)
(0 -0 5.60486e-07)
(0 -0 -4.7761e-06)
(0 -0 4.50335e-06)
(0 -0 -7.50672e-06)
(0 -0 -1.19742e-06)
(0 -0 2.50036e-06)
(0 -0 -3.25292e-06)
(0 -0 3.04217e-05)
(0 -0 1.94558e-05)
(0 -0 1.20554e-05)
(0 -0 7.42591e-06)
(0 -0 4.76756e-06)
(0 -0 3.41842e-06)
(0 -0 2.8718e-06)
(0 -0 2.77226e-06)
(0 -0 2.89146e-06)
(0 -0 3.09472e-06)
(0 -0 3.30941e-06)
(0 -0 3.50053e-06)
(0 -0 3.65419e-06)
(0 -0 3.76753e-06)
(0 -0 3.84283e-06)
(0 -0 3.8845e-06)
(0 -0 3.89729e-06)
(0 -0 3.88567e-06)
(0 -0 3.85366e-06)
(0 -0 3.80479e-06)
(0 -0 3.74212e-06)
(0 -0 3.66826e-06)
(0 -0 3.58536e-06)
(0 -0 3.49508e-06)
(0 -0 3.39865e-06)
(0 -0 3.29707e-06)
(0 -0 3.1913e-06)
(0 -0 3.08241e-06)
(0 -0 2.97163e-06)
(0 -0 2.86015e-06)
(0 -0 2.74894e-06)
(0 -0 2.63848e-06)
(0 -0 2.52877e-06)
(0 -0 2.41946e-06)
(0 -0 2.31012e-06)
(0 -0 2.20066e-06)
(0 -0 2.09134e-06)
(0 -0 1.98295e-06)
(0 -0 1.87637e-06)
(0 -0 1.77252e-06)
(0 -0 1.67114e-06)
(0 -0 1.57222e-06)
(0 -0 1.47429e-06)
(0 -0 1.37824e-06)
(0 -0 1.28174e-06)
(0 -0 1.1878e-06)
(0 -0 1.09137e-06)
(0 -0 1.00003e-06)
(0 -0 9.03113e-07)
(0 -0 8.16456e-07)
(0 -0 7.17009e-07)
(0 -0 6.36216e-07)
(0 -0 5.30255e-07)
(0 -0 4.58248e-07)
(0 -0 3.41029e-07)
(0 -0 2.78057e-07)
(0 -0 1.39695e-07)
(0 -0 8.14259e-08)
(0 -0 -8.25222e-08)
(0 -0 -1.42792e-07)
(0 -0 -3.18584e-07)
(0 -0 -4.42215e-07)
(0 -0 -4.33923e-07)
(0 -0 -1.29572e-06)
(0 -0 7.30731e-07)
(0 -0 -4.82646e-06)
(0 -0 4.803e-06)
(0 -0 -7.60978e-06)
(0 -0 -1.22943e-06)
(0 -0 2.78306e-06)
(0 -0 -3.22027e-06)
(0 -0 3.11706e-05)
(0 -0 1.9949e-05)
(0 -0 1.23832e-05)
(0 -0 7.661e-06)
(0 -0 4.9611e-06)
(0 -0 3.60366e-06)
(0 -0 3.06794e-06)
(0 -0 2.98852e-06)
(0 -0 3.13069e-06)
(0 -0 3.35615e-06)
(0 -0 3.59055e-06)
(0 -0 3.7982e-06)
(0 -0 3.96504e-06)
(0 -0 4.08836e-06)
(0 -0 4.17087e-06)
(0 -0 4.21737e-06)
(0 -0 4.23304e-06)
(0 -0 4.22273e-06)
(0 -0 4.19079e-06)
(0 -0 4.14101e-06)
(0 -0 4.07665e-06)
(0 -0 4.00047e-06)
(0 -0 3.91474e-06)
(0 -0 3.82121e-06)
(0 -0 3.72121e-06)
(0 -0 3.61583e-06)
(0 -0 3.50609e-06)
(0 -0 3.39312e-06)
(0 -0 3.27814e-06)
(0 -0 3.16238e-06)
(0 -0 3.04678e-06)
(0 -0 2.93191e-06)
(0 -0 2.81783e-06)
(0 -0 2.70425e-06)
(0 -0 2.59081e-06)
(0 -0 2.47737e-06)
(0 -0 2.36416e-06)
(0 -0 2.25188e-06)
(0 -0 2.1414e-06)
(0 -0 2.03366e-06)
(0 -0 1.92842e-06)
(0 -0 1.82575e-06)
(0 -0 1.72415e-06)
(0 -0 1.6246e-06)
(0 -0 1.5246e-06)
(0 -0 1.42727e-06)
(0 -0 1.32723e-06)
(0 -0 1.23255e-06)
(0 -0 1.13187e-06)
(0 -0 1.04224e-06)
(0 -0 9.38859e-07)
(0 -0 8.55758e-07)
(0 -0 7.45359e-07)
(0 -0 6.71921e-07)
(0 -0 5.49051e-07)
(0 -0 4.85719e-07)
(0 -0 3.39926e-07)
(0 -0 2.8258e-07)
(0 -0 1.09216e-07)
(0 -0 5.07202e-08)
(0 -0 -1.35457e-07)
(0 -0 -2.59046e-07)
(0 -0 -2.57418e-07)
(0 -0 -1.13214e-06)
(0 -0 9.1499e-07)
(0 -0 -4.70818e-06)
(0 -0 4.99215e-06)
(0 -0 -7.44659e-06)
(0 -0 -1.23617e-06)
(0 -0 3.03435e-06)
(0 -0 -3.05108e-06)
(0 -0 3.12342e-05)
(0 -0 1.99982e-05)
(0 -0 1.24344e-05)
(0 -0 7.72772e-06)
(0 -0 5.05103e-06)
(0 -0 3.7208e-06)
(0 -0 3.21326e-06)
(0 -0 3.16074e-06)
(0 -0 3.32718e-06)
(0 -0 3.5737e-06)
(0 -0 3.82584e-06)
(0 -0 4.04803e-06)
(0 -0 4.22642e-06)
(0 -0 4.35862e-06)
(0 -0 4.4477e-06)
(0 -0 4.49885e-06)
(0 -0 4.51763e-06)
(0 -0 4.50923e-06)
(0 -0 4.47826e-06)
(0 -0 4.4287e-06)
(0 -0 4.364e-06)
(0 -0 4.28705e-06)
(0 -0 4.20017e-06)
(0 -0 4.10522e-06)
(0 -0 4.00358e-06)
(0 -0 3.89643e-06)
(0 -0 3.78484e-06)
(0 -0 3.66996e-06)
(0 -0 3.553e-06)
(0 -0 3.43518e-06)
(0 -0 3.31746e-06)
(0 -0 3.20042e-06)
(0 -0 3.0842e-06)
(0 -0 2.96859e-06)
(0 -0 2.85325e-06)
(0 -0 2.73802e-06)
(0 -0 2.62309e-06)
(0 -0 2.5091e-06)
(0 -0 2.39689e-06)
(0 -0 2.2874e-06)
(0 -0 2.1804e-06)
(0 -0 2.07604e-06)
(0 -0 1.97281e-06)
(0 -0 1.87175e-06)
(0 -0 1.77024e-06)
(0 -0 1.67149e-06)
(0 -0 1.56982e-06)
(0 -0 1.47376e-06)
(0 -0 1.3713e-06)
(0 -0 1.28061e-06)
(0 -0 1.17528e-06)
(0 -0 1.09172e-06)
(0 -0 9.78885e-07)
(0 -0 9.05817e-07)
(0 -0 7.79368e-07)
(0 -0 7.1753e-07)
(0 -0 5.66576e-07)
(0 -0 5.12191e-07)
(0 -0 3.31953e-07)
(0 -0 2.7753e-07)
(0 -0 8.36418e-08)
(0 -0 -3.61316e-08)
(0 -0 -4.29824e-08)
(0 -0 -9.08287e-07)
(0 -0 1.10475e-06)
(0 -0 -4.43577e-06)
(0 -0 5.06696e-06)
(0 -0 -7.03504e-06)
(0 -0 -1.22731e-06)
(0 -0 3.2479e-06)
(0 -0 -2.75442e-06)
(0 -0 3.06648e-05)
(0 -0 1.96355e-05)
(0 -0 1.22248e-05)
(0 -0 7.63115e-06)
(0 -0 5.03599e-06)
(0 -0 3.76494e-06)
(0 -0 3.30106e-06)
(0 -0 3.28146e-06)
(0 -0 3.47328e-06)
(0 -0 3.73977e-06)
(0 -0 4.00783e-06)
(0 -0 4.24273e-06)
(0 -0 4.43122e-06)
(0 -0 4.57132e-06)
(0 -0 4.66647e-06)
(0 -0 4.72218e-06)
(0 -0 4.74435e-06)
(0 -0 4.73848e-06)
(0 -0 4.70936e-06)
(0 -0 4.66117e-06)
(0 -0 4.59744e-06)
(0 -0 4.52118e-06)
(0 -0 4.43478e-06)
(0 -0 4.34013e-06)
(0 -0 4.23872e-06)
(0 -0 4.13172e-06)
(0 -0 4.02028e-06)
(0 -0 3.90553e-06)
(0 -0 3.78868e-06)
(0 -0 3.67092e-06)
(0 -0 3.55319e-06)
(0 -0 3.43611e-06)
(0 -0 3.31986e-06)
(0 -0 3.20429e-06)
(0 -0 3.08911e-06)
(0 -0 2.97415e-06)
(0 -0 2.85955e-06)
(0 -0 2.7459e-06)
(0 -0 2.63397e-06)
(0 -0 2.52473e-06)
(0 -0 2.41795e-06)
(0 -0 2.31382e-06)
(0 -0 2.21086e-06)
(0 -0 2.11016e-06)
(0 -0 2.00899e-06)
(0 -0 1.91066e-06)
(0 -0 1.80922e-06)
(0 -0 1.71362e-06)
(0 -0 1.61125e-06)
(0 -0 1.52127e-06)
(0 -0 1.41583e-06)
(0 -0 1.33356e-06)
(0 -0 1.22014e-06)
(0 -0 1.14914e-06)
(0 -0 1.02103e-06)
(0 -0 9.62442e-07)
(0 -0 8.08412e-07)
(0 -0 7.58925e-07)
(0 -0 5.74145e-07)
(0 -0 5.2598e-07)
(0 -0 3.26837e-07)
(0 -0 2.14413e-07)
(0 -0 1.97426e-07)
(0 -0 -6.37802e-07)
(0 -0 1.29051e-06)
(0 -0 -4.02972e-06)
(0 -0 5.02664e-06)
(0 -0 -6.40203e-06)
(0 -0 -1.21392e-06)
(0 -0 3.41813e-06)
(0 -0 -2.34856e-06)
(0 -0 2.95342e-05)
(0 -0 1.89036e-05)
(0 -0 1.17774e-05)
(0 -0 7.3809e-06)
(0 -0 4.91759e-06)
(0 -0 3.73321e-06)
(0 -0 3.32627e-06)
(0 -0 3.34466e-06)
(0 -0 3.56268e-06)
(0 -0 3.84809e-06)
(0 -0 4.13043e-06)
(0 -0 4.37644e-06)
(0 -0 4.57376e-06)
(0 -0 4.72093e-06)
(0 -0 4.82174e-06)
(0 -0 4.882e-06)
(0 -0 4.9079e-06)
(0 -0 4.90517e-06)
(0 -0 4.87877e-06)
(0 -0 4.83299e-06)
(0 -0 4.77146e-06)
(0 -0 4.69724e-06)
(0 -0 4.6128e-06)
(0 -0 4.52008e-06)
(0 -0 4.42056e-06)
(0 -0 4.31549e-06)
(0 -0 4.206e-06)
(0 -0 4.09325e-06)
(0 -0 3.97841e-06)
(0 -0 3.86263e-06)
(0 -0 3.74682e-06)
(0 -0 3.63161e-06)
(0 -0 3.51724e-06)
(0 -0 3.4036e-06)
(0 -0 3.29045e-06)
(0 -0 3.17761e-06)
(0 -0 3.06518e-06)
(0 -0 2.95371e-06)
(0 -0 2.8439e-06)
(0 -0 2.73671e-06)
(0 -0 2.63192e-06)
(0 -0 2.52977e-06)
(0 -0 2.4288e-06)
(0 -0 2.33013e-06)
(0 -0 2.23097e-06)
(0 -0 2.13471e-06)
(0 -0 2.03519e-06)
(0 -0 1.9417e-06)
(0 -0 1.84108e-06)
(0 -0 1.75343e-06)
(0 -0 1.64954e-06)
(0 -0 1.57012e-06)
(0 -0 1.45776e-06)
(0 -0 1.39038e-06)
(0 -0 1.2623e-06)
(0 -0 1.20858e-06)
(0 -0 1.05332e-06)
(0 -0 1.0105e-06)
(0 -0 8.23244e-07)
(0 -0 7.83331e-07)
(0 -0 5.81113e-07)
(0 -0 4.79218e-07)
(0 -0 4.50658e-07)
(0 -0 -3.36133e-07)
(0 -0 1.4625e-06)
(0 -0 -3.51487e-06)
(0 -0 4.87329e-06)
(0 -0 -5.58131e-06)
(0 -0 -1.20769e-06)
(0 -0 3.54049e-06)
(0 -0 -1.85534e-06)
(0 -0 2.79286e-05)
(0 -0 1.78546e-05)
(0 -0 1.11206e-05)
(0 -0 6.99046e-06)
(0 -0 4.70024e-06)
(0 -0 3.62497e-06)
(0 -0 3.28572e-06)
(0 -0 3.34612e-06)
(0 -0 3.59084e-06)
(0 -0 3.89414e-06)
(0 -0 4.1893e-06)
(0 -0 4.44509e-06)
(0 -0 4.65019e-06)
(0 -0 4.80373e-06)
(0 -0 4.90989e-06)
(0 -0 4.97477e-06)
(0 -0 5.00476e-06)
(0 -0 5.00575e-06)
(0 -0 4.98284e-06)
(0 -0 4.94041e-06)
(0 -0 4.88217e-06)
(0 -0 4.81121e-06)
(0 -0 4.73005e-06)
(0 -0 4.64065e-06)
(0 -0 4.54451e-06)
(0 -0 4.4429e-06)
(0 -0 4.33696e-06)
(0 -0 4.22784e-06)
(0 -0 4.11667e-06)
(0 -0 4.00454e-06)
(0 -0 3.89233e-06)
(0 -0 3.78067e-06)
(0 -0 3.66984e-06)
(0 -0 3.55978e-06)
(0 -0 3.45028e-06)
(0 -0 3.34116e-06)
(0 -0 3.2325e-06)
(0 -0 3.12479e-06)
(0 -0 3.01869e-06)
(0 -0 2.91511e-06)
(0 -0 2.81385e-06)
(0 -0 2.71519e-06)
(0 -0 2.61767e-06)
(0 -0 2.5225e-06)
(0 -0 2.42678e-06)
(0 -0 2.33405e-06)
(0 -0 2.23788e-06)
(0 -0 2.14794e-06)
(0 -0 2.0505e-06)
(0 -0 1.96659e-06)
(0 -0 1.86565e-06)
(0 -0 1.79046e-06)
(0 -0 1.68057e-06)
(0 -0 1.61816e-06)
(0 -0 1.49156e-06)
(0 -0 1.4441e-06)
(0 -0 1.2892e-06)
(0 -0 1.2546e-06)
(0 -0 1.06662e-06)
(0 -0 1.03671e-06)
(0 -0 8.33274e-07)
(0 -0 7.44654e-07)
(0 -0 7.03339e-07)
(0 -0 -1.94035e-08)
(0 -0 1.61132e-06)
(0 -0 -2.91859e-06)
(0 -0 4.61183e-06)
(0 -0 -4.61105e-06)
(0 -0 -1.22016e-06)
(0 -0 3.6117e-06)
(0 -0 -1.29804e-06)
(0 -0 2.59424e-05)
(0 -0 1.6546e-05)
(0 -0 1.02872e-05)
(0 -0 6.47664e-06)
(0 -0 4.39108e-06)
(0 -0 3.442e-06)
(0 -0 3.17843e-06)
(0 -0 3.28364e-06)
(0 -0 3.55527e-06)
(0 -0 3.87552e-06)
(0 -0 4.18223e-06)
(0 -0 4.44666e-06)
(0 -0 4.65869e-06)
(0 -0 4.8181e-06)
(0 -0 4.92941e-06)
(0 -0 4.99901e-06)
(0 -0 5.03342e-06)
(0 -0 5.03865e-06)
(0 -0 5.01991e-06)
(0 -0 4.98165e-06)
(0 -0 4.92763e-06)
(0 -0 4.86097e-06)
(0 -0 4.7842e-06)
(0 -0 4.69929e-06)
(0 -0 4.60779e-06)
(0 -0 4.51093e-06)
(0 -0 4.40987e-06)
(0 -0 4.30574e-06)
(0 -0 4.19962e-06)
(0 -0 4.09253e-06)
(0 -0 3.98532e-06)
(0 -0 3.8786e-06)
(0 -0 3.7727e-06)
(0 -0 3.66758e-06)
(0 -0 3.56306e-06)
(0 -0 3.45899e-06)
(0 -0 3.35541e-06)
(0 -0 3.25278e-06)
(0 -0 3.1517e-06)
(0 -0 3.05302e-06)
(0 -0 2.95656e-06)
(0 -0 2.86263e-06)
(0 -0 2.76979e-06)
(0 -0 2.67931e-06)
(0 -0 2.58823e-06)
(0 -0 2.5002e-06)
(0 -0 2.40858e-06)
(0 -0 2.32336e-06)
(0 -0 2.2303e-06)
(0 -0 2.15127e-06)
(0 -0 2.05446e-06)
(0 -0 1.98462e-06)
(0 -0 1.87837e-06)
(0 -0 1.82203e-06)
(0 -0 1.6981e-06)
(0 -0 1.65809e-06)
(0 -0 1.50481e-06)
(0 -0 1.47974e-06)
(0 -0 1.29244e-06)
(0 -0 1.27402e-06)
(0 -0 1.07085e-06)
(0 -0 9.97769e-07)
(0 -0 9.42787e-07)
(0 -0 2.96692e-07)
(0 -0 1.7287e-06)
(0 -0 -2.26902e-06)
(0 -0 4.24973e-06)
(0 -0 -3.53133e-06)
(0 -0 -1.26182e-06)
(0 -0 3.63e-06)
(0 -0 -7.00213e-07)
(0 -0 2.36725e-05)
(0 -0 1.50381e-05)
(0 -0 9.31272e-06)
(0 -0 5.85875e-06)
(0 -0 3.99974e-06)
(0 -0 3.18849e-06)
(0 -0 3.00582e-06)
(0 -0 3.1575e-06)
(0 -0 3.45587e-06)
(0 -0 3.79214e-06)
(0 -0 4.10932e-06)
(0 -0 4.38144e-06)
(0 -0 4.59976e-06)
(0 -0 4.76467e-06)
(0 -0 4.88104e-06)
(0 -0 4.95545e-06)
(0 -0 4.99458e-06)
(0 -0 5.00449e-06)
(0 -0 4.99048e-06)
(0 -0 4.95707e-06)
(0 -0 4.90803e-06)
(0 -0 4.8465e-06)
(0 -0 4.77502e-06)
(0 -0 4.69556e-06)
(0 -0 4.60968e-06)
(0 -0 4.5186e-06)
(0 -0 4.42348e-06)
(0 -0 4.3254e-06)
(0 -0 4.22541e-06)
(0 -0 4.12444e-06)
(0 -0 4.02333e-06)
(0 -0 3.92266e-06)
(0 -0 3.82276e-06)
(0 -0 3.72365e-06)
(0 -0 3.62515e-06)
(0 -0 3.52717e-06)
(0 -0 3.42969e-06)
(0 -0 3.33316e-06)
(0 -0 3.23811e-06)
(0 -0 3.14534e-06)
(0 -0 3.05467e-06)
(0 -0 2.96643e-06)
(0 -0 2.87922e-06)
(0 -0 2.79436e-06)
(0 -0 2.70884e-06)
(0 -0 2.62642e-06)
(0 -0 2.54028e-06)
(0 -0 2.46071e-06)
(0 -0 2.37293e-06)
(0 -0 2.2997e-06)
(0 -0 2.20791e-06)
(0 -0 2.1443e-06)
(0 -0 2.04256e-06)
(0 -0 1.99318e-06)
(0 -0 1.87282e-06)
(0 -0 1.84117e-06)
(0 -0 1.6905e-06)
(0 -0 1.67598e-06)
(0 -0 1.49043e-06)
(0 -0 1.48467e-06)
(0 -0 1.28289e-06)
(0 -0 1.22712e-06)
(0 -0 1.15782e-06)
(0 -0 5.97858e-07)
(0 -0 1.80799e-06)
(0 -0 -1.59334e-06)
(0 -0 3.79671e-06)
(0 -0 -2.38184e-06)
(0 -0 -1.34149e-06)
(0 -0 3.59525e-06)
(0 -0 -8.42663e-08)
(0 -0 2.12137e-05)
(0 -0 1.33909e-05)
(0 -0 8.23307e-06)
(0 -0 5.15756e-06)
(0 -0 3.53779e-06)
(0 -0 2.87084e-06)
(0 -0 2.77173e-06)
(0 -0 2.97036e-06)
(0 -0 3.29493e-06)
(0 -0 3.64633e-06)
(0 -0 3.97309e-06)
(0 -0 4.25216e-06)
(0 -0 4.47626e-06)
(0 -0 4.64643e-06)
(0 -0 4.76781e-06)
(0 -0 4.84714e-06)
(0 -0 4.89121e-06)
(0 -0 4.90616e-06)
(0 -0 4.89733e-06)
(0 -0 4.86927e-06)
(0 -0 4.82577e-06)
(0 -0 4.77e-06)
(0 -0 4.70448e-06)
(0 -0 4.63118e-06)
(0 -0 4.55163e-06)
(0 -0 4.46709e-06)
(0 -0 4.37866e-06)
(0 -0 4.28742e-06)
(0 -0 4.19433e-06)
(0 -0 4.10029e-06)
(0 -0 4.00607e-06)
(0 -0 3.91224e-06)
(0 -0 3.81913e-06)
(0 -0 3.72678e-06)
(0 -0 3.63505e-06)
(0 -0 3.54388e-06)
(0 -0 3.45324e-06)
(0 -0 3.36353e-06)
(0 -0 3.27523e-06)
(0 -0 3.1891e-06)
(0 -0 3.10492e-06)
(0 -0 3.02307e-06)
(0 -0 2.94216e-06)
(0 -0 2.86358e-06)
(0 -0 2.78427e-06)
(0 -0 2.70812e-06)
(0 -0 2.6281e-06)
(0 -0 2.55483e-06)
(0 -0 2.47299e-06)
(0 -0 2.4062e-06)
(0 -0 2.32006e-06)
(0 -0 2.26332e-06)
(0 -0 2.16671e-06)
(0 -0 2.1249e-06)
(0 -0 2.00875e-06)
(0 -0 1.98614e-06)
(0 -0 1.83874e-06)
(0 -0 1.83554e-06)
(0 -0 1.65245e-06)
(0 -0 1.66024e-06)
(0 -0 1.46057e-06)
(0 -0 1.4234e-06)
(0 -0 1.33937e-06)
(0 -0 8.7199e-07)
(0 -0 1.84456e-06)
(0 -0 -9.16373e-07)
(0 -0 3.26425e-06)
(0 -0 -1.19976e-06)
(0 -0 -1.4658e-06)
(0 -0 3.50897e-06)
(0 -0 5.29751e-07)
(0 -0 1.86547e-05)
(0 -0 1.16614e-05)
(0 -0 7.08367e-06)
(0 -0 4.39447e-06)
(0 -0 3.01821e-06)
(0 -0 2.49735e-06)
(0 -0 2.48207e-06)
(0 -0 2.72712e-06)
(0 -0 3.07702e-06)
(0 -0 3.44265e-06)
(0 -0 3.77826e-06)
(0 -0 4.06375e-06)
(0 -0 4.29327e-06)
(0 -0 4.46851e-06)
(0 -0 4.59489e-06)
(0 -0 4.67922e-06)
(0 -0 4.72841e-06)
(0 -0 4.74865e-06)
(0 -0 4.74532e-06)
(0 -0 4.72296e-06)
(0 -0 4.6854e-06)
(0 -0 4.6358e-06)
(0 -0 4.57667e-06)
(0 -0 4.50998e-06)
(0 -0 4.43724e-06)
(0 -0 4.35971e-06)
(0 -0 4.27846e-06)
(0 -0 4.19454e-06)
(0 -0 4.10885e-06)
(0 -0 4.02224e-06)
(0 -0 3.93541e-06)
(0 -0 3.84892e-06)
(0 -0 3.76308e-06)
(0 -0 3.67797e-06)
(0 -0 3.59348e-06)
(0 -0 3.50956e-06)
(0 -0 3.42621e-06)
(0 -0 3.34377e-06)
(0 -0 3.26267e-06)
(0 -0 3.18361e-06)
(0 -0 3.10636e-06)
(0 -0 3.03131e-06)
(0 -0 2.95712e-06)
(0 -0 2.88523e-06)
(0 -0 2.81252e-06)
(0 -0 2.74304e-06)
(0 -0 2.66955e-06)
(0 -0 2.60299e-06)
(0 -0 2.52748e-06)
(0 -0 2.46751e-06)
(0 -0 2.38742e-06)
(0 -0 2.33792e-06)
(0 -0 2.24681e-06)
(0 -0 2.21296e-06)
(0 -0 2.10139e-06)
(0 -0 2.08825e-06)
(0 -0 1.94449e-06)
(0 -0 1.95313e-06)
(0 -0 1.77286e-06)
(0 -0 1.79481e-06)
(0 -0 1.59763e-06)
(0 -0 1.57988e-06)
(0 -0 1.48092e-06)
(0 -0 1.10972e-06)
(0 -0 1.83604e-06)
(0 -0 -2.59434e-07)
(0 -0 2.66512e-06)
(0 -0 -1.81243e-08)
(0 -0 -1.63882e-06)
(0 -0 3.37418e-06)
(0 -0 1.12511e-06)
(0 -0 1.60746e-05)
(0 -0 9.9017e-06)
(0 -0 5.89798e-06)
(0 -0 3.59085e-06)
(0 -0 2.45501e-06)
(0 -0 2.07791e-06)
(0 -0 2.14462e-06)
(0 -0 2.43463e-06)
(0 -0 2.8087e-06)
(0 -0 3.1877e-06)
(0 -0 3.53156e-06)
(0 -0 3.82307e-06)
(0 -0 4.05778e-06)
(0 -0 4.23797e-06)
(0 -0 4.36932e-06)
(0 -0 4.45873e-06)
(0 -0 4.51315e-06)
(0 -0 4.53883e-06)
(0 -0 4.54117e-06)
(0 -0 4.52472e-06)
(0 -0 4.4933e-06)
(0 -0 4.45008e-06)
(0 -0 4.39758e-06)
(0 -0 4.33772e-06)
(0 -0 4.27203e-06)
(0 -0 4.20172e-06)
(0 -0 4.12789e-06)
(0 -0 4.0515e-06)
(0 -0 3.97345e-06)
(0 -0 3.89449e-06)
(0 -0 3.8153e-06)
(0 -0 3.73638e-06)
(0 -0 3.65802e-06)
(0 -0 3.58036e-06)
(0 -0 3.5033e-06)
(0 -0 3.42684e-06)
(0 -0 3.35095e-06)
(0 -0 3.27597e-06)
(0 -0 3.20226e-06)
(0 -0 3.13046e-06)
(0 -0 3.06032e-06)
(0 -0 2.99227e-06)
(0 -0 2.92496e-06)
(0 -0 2.85992e-06)
(0 -0 2.79398e-06)
(0 -0 2.73133e-06)
(0 -0 2.66453e-06)
(0 -0 2.60484e-06)
(0 -0 2.53583e-06)
(0 -0 2.48286e-06)
(0 -0 2.40895e-06)
(0 -0 2.36687e-06)
(0 -0 2.28139e-06)
(0 -0 2.25569e-06)
(0 -0 2.14881e-06)
(0 -0 2.14536e-06)
(0 -0 2.00535e-06)
(0 -0 2.02608e-06)
(0 -0 1.8487e-06)
(0 -0 1.88518e-06)
(0 -0 1.69051e-06)
(0 -0 1.69261e-06)
(0 -0 1.57866e-06)
(0 -0 1.30474e-06)
(0 -0 1.78232e-06)
(0 -0 3.60409e-07)
(0 -0 2.0128e-06)
(0 -0 1.1354e-06)
(0 -0 -1.86202e-06)
(0 -0 3.19524e-06)
(0 -0 1.689e-06)
(0 -0 1.35414e-05)
(0 -0 8.15751e-06)
(0 -0 4.7064e-06)
(0 -0 2.76714e-06)
(0 -0 1.86261e-06)
(0 -0 1.62352e-06)
(0 -0 1.76866e-06)
(0 -0 2.1014e-06)
(0 -0 2.49827e-06)
(0 -0 2.88979e-06)
(0 -0 3.24135e-06)
(0 -0 3.5386e-06)
(0 -0 3.77832e-06)
(0 -0 3.96338e-06)
(0 -0 4.09967e-06)
(0 -0 4.19418e-06)
(0 -0 4.25389e-06)
(0 -0 4.28508e-06)
(0 -0 4.29314e-06)
(0 -0 4.28266e-06)
(0 -0 4.25743e-06)
(0 -0 4.22064e-06)
(0 -0 4.17479e-06)
(0 -0 4.12179e-06)
(0 -0 4.06314e-06)
(0 -0 4.00008e-06)
(0 -0 3.93365e-06)
(0 -0 3.86479e-06)
(0 -0 3.79436e-06)
(0 -0 3.72305e-06)
(0 -0 3.65147e-06)
(0 -0 3.5801e-06)
(0 -0 3.50923e-06)
(0 -0 3.43898e-06)
(0 -0 3.36933e-06)
(0 -0 3.30027e-06)
(0 -0 3.23181e-06)
(0 -0 3.16424e-06)
(0 -0 3.09788e-06)
(0 -0 3.0333e-06)
(0 -0 2.97024e-06)
(0 -0 2.90915e-06)
(0 -0 2.84869e-06)
(0 -0 2.79046e-06)
(0 -0 2.73125e-06)
(0 -0 2.67538e-06)
(0 -0 2.61523e-06)
(0 -0 2.56238e-06)
(0 -0 2.49983e-06)
(0 -0 2.45382e-06)
(0 -0 2.38605e-06)
(0 -0 2.35135e-06)
(0 -0 2.27144e-06)
(0 -0 2.25385e-06)
(0 -0 2.1516e-06)
(0 -0 2.15785e-06)
(0 -0 2.02145e-06)
(0 -0 2.05436e-06)
(0 -0 1.87965e-06)
(0 -0 1.9308e-06)
(0 -0 1.73835e-06)
(0 -0 1.7604e-06)
(0 -0 1.63149e-06)
(0 -0 1.45383e-06)
(0 -0 1.68543e-06)
(0 -0 9.30745e-07)
(0 -0 1.32094e-06)
(0 -0 2.23921e-06)
(0 -0 -2.13431e-06)
(0 -0 2.9775e-06)
(0 -0 2.21284e-06)
(0 -0 1.11106e-05)
(0 -0 6.46729e-06)
(0 -0 3.53556e-06)
(0 -0 1.94228e-06)
(0 -0 1.25525e-06)
(0 -0 1.14579e-06)
(0 -0 1.36442e-06)
(0 -0 1.7371e-06)
(0 -0 2.15523e-06)
(0 -0 2.55842e-06)
(0 -0 2.91722e-06)
(0 -0 3.21994e-06)
(0 -0 3.46456e-06)
(0 -0 3.65442e-06)
(0 -0 3.79561e-06)
(0 -0 3.89521e-06)
(0 -0 3.9602e-06)
(0 -0 3.99686e-06)
(0 -0 4.0106e-06)
(0 -0 4.00599e-06)
(0 -0 3.98688e-06)
(0 -0 3.95639e-06)
(0 -0 3.91705e-06)
(0 -0 3.87075e-06)
(0 -0 3.81898e-06)
(0 -0 3.76296e-06)
(0 -0 3.70374e-06)
(0 -0 3.64221e-06)
(0 -0 3.57918e-06)
(0 -0 3.51531e-06)
(0 -0 3.45113e-06)
(0 -0 3.38709e-06)
(0 -0 3.32347e-06)
(0 -0 3.26042e-06)
(0 -0 3.19794e-06)
(0 -0 3.13607e-06)
(0 -0 3.07479e-06)
(0 -0 3.0144e-06)
(0 -0 2.95515e-06)
(0 -0 2.89758e-06)
(0 -0 2.84138e-06)
(0 -0 2.78703e-06)
(0 -0 2.7332e-06)
(0 -0 2.68157e-06)
(0 -0 2.62886e-06)
(0 -0 2.57957e-06)
(0 -0 2.52585e-06)
(0 -0 2.47964e-06)
(0 -0 2.42332e-06)
(0 -0 2.38407e-06)
(0 -0 2.32222e-06)
(0 -0 2.29471e-06)
(0 -0 2.22013e-06)
(0 -0 2.21047e-06)
(0 -0 2.11258e-06)
(0 -0 2.12838e-06)
(0 -0 1.99528e-06)
(0 -0 2.04025e-06)
(0 -0 1.86777e-06)
(0 -0 1.93357e-06)
(0 -0 1.74277e-06)
(0 -0 1.78463e-06)
(0 -0 1.64081e-06)
(0 -0 1.55673e-06)
(0 -0 1.54925e-06)
(0 -0 1.44386e-06)
(0 -0 6.02799e-07)
(0 -0 3.27804e-06)
(0 -0 -2.45231e-06)
(0 -0 2.72693e-06)
(0 -0 2.6922e-06)
(0 -0 8.82484e-06)
(0 -0 4.8619e-06)
(0 -0 2.4079e-06)
(0 -0 1.13318e-06)
(0 -0 6.46476e-07)
(0 -0 6.56366e-07)
(0 -0 9.42617e-07)
(0 -0 1.352e-06)
(0 -0 1.78971e-06)
(0 -0 2.20375e-06)
(0 -0 2.56937e-06)
(0 -0 2.87734e-06)
(0 -0 3.12675e-06)
(0 -0 3.32137e-06)
(0 -0 3.46742e-06)
(0 -0 3.57205e-06)
(0 -0 3.64224e-06)
(0 -0 3.68426e-06)
(0 -0 3.70351e-06)
(0 -0 3.70461e-06)
(0 -0 3.69138e-06)
(0 -0 3.66694e-06)
(0 -0 3.63383e-06)
(0 -0 3.59393e-06)
(0 -0 3.54872e-06)
(0 -0 3.49941e-06)
(0 -0 3.44703e-06)
(0 -0 3.39247e-06)
(0 -0 3.33647e-06)
(0 -0 3.27964e-06)
(0 -0 3.22248e-06)
(0 -0 3.16539e-06)
(0 -0 3.10864e-06)
(0 -0 3.0524e-06)
(0 -0 2.99672e-06)
(0 -0 2.94163e-06)
(0 -0 2.88715e-06)
(0 -0 2.83354e-06)
(0 -0 2.78102e-06)
(0 -0 2.73009e-06)