/*--------------------------------*- C++ -*----------------------------------*\
| =========                 |                                                 |
| \\      /  F ield         | OpenFOAM: The Open Source CFD Toolbox           |
|  \\    /   O peration     | Version:  2412                                  |
|   \\  /    A nd           | Website:  www.openfoam.com                      |
|    \\/     M anipulation  |                                                 |
\*---------------------------------------------------------------------------*/
FoamFile
{
    version     2.0;
    format      ascii;
    arch        "LSB;label=32;scalar=64";
    class       volVectorField;
    location    "25.5";
    object      vorticity;
}
// * * * * * * * * * * * * * * * * * * * * * * * * * * * * * * * * * * * * * //

dimensions      [0 0 -1 0 0 0 0];

internalField   nonuniform List<vector> 
5285
(
(0 1.40241e-23 -9.9153e-06)
(0 -0 -7.62701e-06)
(0 -0 -6.4334e-06)
(0 -0 -5.57171e-06)
(0 -0 -4.9233e-06)
(0 -0 -4.25003e-06)
(0 -0 -3.56824e-06)
(0 -0 -2.82315e-06)
(0 -0 -1.96225e-06)
(0 -0 -9.29633e-07)
(0 -0 3.36955e-07)
(0 -0 1.90738e-06)
(0 -0 3.85965e-06)
(0 -0 6.27915e-06)
(0 -0 9.25701e-06)
(0 -0 1.28872e-05)
(0 -0 1.72617e-05)
(0 -0 2.2466e-05)
(0 -0 2.85728e-05)
(0 -0 3.5641e-05)
(0 -0 4.37326e-05)
(0 -0 5.29783e-05)
(0 -0 6.35951e-05)
(0 -0 7.53175e-05)
(0 1.45141e-22 -8.71855e-06)
(0 -0 -8.29531e-06)
(0 -0 -7.707e-06)
(0 -0 -7.35758e-06)
(0 -0 -6.87815e-06)
(0 -0 -6.30666e-06)
(0 -0 -5.69373e-06)
(0 -0 -4.99886e-06)
(0 -0 -4.17728e-06)
(0 -0 -3.17782e-06)
(0 -0 -1.94131e-06)
(0 -0 -3.99986e-07)
(0 -0 1.5226e-06)
(0 -0 3.91057e-06)
(0 -0 6.85409e-06)
(0 -0 1.04461e-05)
(0 -0 1.47783e-05)
(0 -0 1.99351e-05)
(0 -0 2.5989e-05)
(0 -0 3.29984e-05)
(0 -0 4.10267e-05)
(0 -0 5.02101e-05)
(0 -0 6.07684e-05)
(0 -0 7.24542e-05)
(0 -1.30499e-22 -8.173e-06)
(0 -0 -8.50802e-06)
(0 -0 -8.60343e-06)
(0 -0 -8.61816e-06)
(0 -0 -8.38108e-06)
(0 -0 -7.97596e-06)
(0 -0 -7.48294e-06)
(0 -0 -6.87787e-06)
(0 -0 -6.12697e-06)
(0 -0 -5.18634e-06)
(0 -0 -4.00206e-06)
(0 -0 -2.51034e-06)
(0 -0 -6.3807e-07)
(0 -0 1.69612e-06)
(0 -0 4.57999e-06)
(0 -0 8.10417e-06)
(0 -0 1.23583e-05)
(0 -0 1.7425e-05)
(0 -0 2.33748e-05)
(0 -0 3.02653e-05)
(0 -0 3.81602e-05)
(0 -0 4.72019e-05)
(0 -0 5.76252e-05)
(0 -0 6.92109e-05)
(0 1.77364e-23 -8.29336e-06)
(0 -0 -9.11457e-06)
(0 -0 -9.43681e-06)
(0 -0 -9.66277e-06)
(0 -0 -9.5979e-06)
(0 -0 -9.32932e-06)
(0 -0 -8.94515e-06)
(0 -0 -8.42729e-06)
(0 -0 -7.7481e-06)
(0 -0 -6.86899e-06)
(0 -0 -5.74065e-06)
(0 -0 -4.3035e-06)
(0 -0 -2.48818e-06)
(0 -0 -2.16797e-07)
(0 -0 2.59488e-06)
(0 -0 6.03426e-06)
(0 -0 1.01876e-05)
(0 -0 1.51344e-05)
(0 -0 2.09427e-05)
(0 -0 2.76676e-05)
(0 -0 3.53734e-05)
(0 -0 4.42086e-05)
(0 -0 5.44252e-05)
(0 -0 6.57985e-05)
(0 3.06302e-22 -8.85189e-06)
(0 -0 -1.00468e-05)
(0 -0 -1.0409e-05)
(0 -0 -1.07055e-05)
(0 -0 -1.07167e-05)
(0 -0 -1.05209e-05)
(0 -0 -1.02035e-05)
(0 -0 -9.74474e-06)
(0 -0 -9.11788e-06)
(0 -0 -8.28658e-06)
(0 -0 -7.2045e-06)
(0 -0 -5.81524e-06)
(0 -0 -4.05309e-06)
(0 -0 -1.84389e-06)
(0 -0 8.92507e-07)
(0 -0 4.23949e-06)
(0 -0 8.27894e-06)
(0 -0 1.30865e-05)
(0 -0 1.87263e-05)
(0 -0 2.52506e-05)
(0 -0 3.27229e-05)
(0 -0 4.12984e-05)
(0 -0 5.12457e-05)
(0 -0 6.23412e-05)
(0 -3.06234e-22 -9.49544e-06)
(0 -0 -1.1167e-05)
(0 -0 -1.14968e-05)
(0 -0 -1.17859e-05)
(0 -0 -1.18028e-05)
(0 -0 -1.16214e-05)
(0 -0 -1.13236e-05)
(0 -0 -1.08858e-05)
(0 -0 -1.02799e-05)
(0 -0 -9.47036e-06)
(0 -0 -8.41226e-06)
(0 -0 -7.05176e-06)
(0 -0 -5.32646e-06)
(0 -0 -3.16621e-06)
(0 -0 -4.95216e-07)
(0 -0 2.76502e-06)
(0 -0 6.69147e-06)
(0 -0 1.13547e-05)
(0 -0 1.68139e-05)
(0 -0 2.3118e-05)
(0 -0 3.03288e-05)
(0 -0 3.86078e-05)
(0 -0 4.8241e-05)
(0 -0 5.90045e-05)
(0 -7.30098e-22 -9.95303e-06)
(0 -0 -1.22789e-05)
(0 -0 -1.25622e-05)
(0 -0 -1.28101e-05)
(0 -0 -1.27903e-05)
(0 -0 -1.25784e-05)
(0 -0 -1.2256e-05)
(0 -0 -1.17965e-05)
(0 -0 -1.1171e-05)
(0 -0 -1.03443e-05)
(0 -0 -9.2727e-06)
(0 -0 -7.90506e-06)
(0 -0 -6.18227e-06)
(0 -0 -4.03858e-06)
(0 -0 -1.40316e-06)
(0 -0 1.79684e-06)
(0 -0 5.63261e-06)
(0 -0 1.01685e-05)
(0 -0 1.54581e-05)
(0 -0 2.15452e-05)
(0 -0 2.84899e-05)
(0 -0 3.64596e-05)
(0 -0 4.57581e-05)
(0 -0 5.61619e-05)
(0 7.79273e-22 -1.00258e-05)
(0 -0 -1.32108e-05)
(0 -0 -1.34488e-05)
(0 -0 -1.3638e-05)
(0 -0 -1.35507e-05)
(0 -0 -1.32688e-05)
(0 -0 -1.28761e-05)
(0 -0 -1.23451e-05)
(0 -0 -1.16472e-05)
(0 -0 -1.0748e-05)
(0 -0 -9.60608e-06)
(0 -0 -8.17318e-06)
(0 -0 -6.39432e-06)
(0 -0 -4.20883e-06)
(0 -0 -1.55188e-06)
(0 -0 1.64275e-06)
(0 -0 5.439e-06)
(0 -0 9.89401e-06)
(0 -0 1.50544e-05)
(0 -0 2.0958e-05)
(0 -0 2.76619e-05)
(0 -0 3.53391e-05)
(0 -0 4.43118e-05)
(0 -0 5.43568e-05)
(0 -0 -9.56776e-06)
(0 -0 -1.38249e-05)
(0 -0 -1.40085e-05)
(0 -0 -1.41141e-05)
(0 -0 -1.39214e-05)
(0 -0 -1.35204e-05)
(0 -0 -1.29989e-05)
(0 -0 -1.23294e-05)
(0 -0 -1.14849e-05)
(0 -0 -1.0433e-05)
(0 -0 -9.1355e-06)
(0 -0 -7.54804e-06)
(0 -0 -5.62092e-06)
(0 -0 -3.29989e-06)
(0 -0 -5.27727e-07)
(0 -0 2.75362e-06)
(0 -0 6.5992e-06)
(0 -0 1.10575e-05)
(0 -0 1.61665e-05)
(0 -0 2.1957e-05)
(0 -0 2.84819e-05)
(0 -0 3.59188e-05)
(0 -0 4.4609e-05)
(0 -0 5.43285e-05)
(0 9.5751e-22 -8.44696e-06)
(0 -0 -1.39887e-05)
(0 -0 -1.4083e-05)
(0 -0 -1.40547e-05)
(0 -0 -1.36929e-05)
(0 -0 -1.30966e-05)
(0 -0 -1.23578e-05)
(0 -0 -1.14499e-05)
(0 -0 -1.03481e-05)
(0 -0 -9.02342e-06)
(0 -0 -7.44164e-06)
(0 -0 -5.56415e-06)
(0 -0 -3.34833e-06)
(0 -0 -7.48578e-07)
(0 -0 2.28264e-06)
(0 -0 5.79272e-06)
(0 -0 9.8261e-06)
(0 -0 1.44205e-05)
(0 -0 1.96038e-05)
(0 -0 2.53976e-05)
(0 -0 3.18493e-05)
(0 -0 3.91402e-05)
(0 -0 4.76304e-05)
(0 -0 5.70942e-05)
(0 -1.90197e-21 -6.50488e-06)
(0 -0 -1.35376e-05)
(0 -0 -1.34674e-05)
(0 -0 -1.32124e-05)
(0 -0 -1.25729e-05)
(0 -0 -1.16576e-05)
(0 -0 -1.05622e-05)
(0 -0 -9.26115e-06)
(0 -0 -7.73287e-06)
(0 -0 -5.95278e-06)
(0 -0 -3.89263e-06)
(0 -0 -1.52165e-06)
(0 -0 1.1927e-06)
(0 -0 4.28415e-06)
(0 -0 7.7869e-06)
(0 -0 1.17351e-05)
(0 -0 1.61599e-05)
(0 -0 2.10862e-05)
(0 -0 2.65297e-05)
(0 -0 3.25004e-05)
(0 -0 3.90382e-05)
(0 -0 4.63267e-05)
(0 -0 5.47441e-05)
(0 -0 6.40614e-05)
(0 2.10247e-21 -3.51282e-06)
(0 -0 -1.22261e-05)
(0 -0 -1.18584e-05)
(0 -0 -1.12207e-05)
(0 -0 -1.01269e-05)
(0 -0 -8.69527e-06)
(0 -0 -7.02508e-06)
(0 -0 -5.09189e-06)
(0 -0 -2.87861e-06)
(0 -0 -3.6707e-07)
(0 -0 2.46215e-06)
(0 -0 5.62859e-06)
(0 -0 9.15001e-06)
(0 -0 1.30422e-05)
(0 -0 1.73217e-05)
(0 -0 2.20061e-05)
(0 -0 2.71112e-05)
(0 -0 3.26465e-05)
(0 -0 3.86125e-05)
(0 -0 4.50051e-05)
(0 -0 5.18532e-05)
(0 -0 5.93404e-05)
(0 -0 6.78611e-05)
(0 -0 7.71817e-05)
(0 -1.07382e-21 8.83642e-07)
(0 -0 -9.66345e-06)
(0 -0 -8.78175e-06)
(0 -0 -7.51328e-06)
(0 -0 -5.68793e-06)
(0 -0 -3.43351e-06)
(0 -0 -8.52515e-07)
(0 -0 2.07727e-06)
(0 -0 5.36589e-06)
(0 -0 9.0212e-06)
(0 -0 1.30497e-05)
(0 -0 1.74535e-05)
(0 -0 2.22273e-05)
(0 -0 2.73584e-05)
(0 -0 3.28412e-05)
(0 -0 3.86754e-05)
(0 -0 4.48594e-05)
(0 -0 5.13849e-05)
(0 -0 5.82328e-05)
(0 -0 6.53804e-05)
(0 -0 7.28403e-05)
(0 -0 8.07922e-05)
(0 -0 8.9645e-05)
(0 -0 9.91561e-05)
(0 3.6306e-23 7.24497e-06)
(0 -0 -5.21998e-06)
(0 -0 -3.48609e-06)
(0 -0 -1.20573e-06)
(0 -0 1.7755e-06)
(0 -0 5.32036e-06)
(0 -0 9.32216e-06)
(0 -0 1.3797e-05)
(0 -0 1.87423e-05)
(0 -0 2.41492e-05)
(0 -0 3.00037e-05)
(0 -0 3.62818e-05)
(0 -0 4.29383e-05)
(0 -0 4.99112e-05)
(0 -0 5.71765e-05)
(0 -0 6.47204e-05)
(0 -0 7.25237e-05)
(0 -0 8.05544e-05)
(0 -0 8.87661e-05)
(0 -0 9.71085e-05)
(0 -0 0.000105571)
(0 -0 0.000114323)
(0 -0 0.000123786)
(0 -0 0.000133703)
(0 3.89223e-23 1.64674e-05)
(0 -0 2.117e-06)
(0 -0 5.21109e-06)
(0 -0 9.07644e-06)
(0 -0 1.38555e-05)
(0 -0 1.93985e-05)
(0 -0 2.55877e-05)
(0 -0 3.24235e-05)
(0 -0 3.988e-05)
(0 -0 4.79208e-05)
(0 -0 5.6501e-05)
(0 -0 6.55565e-05)
(0 -0 7.49683e-05)
(0 -0 8.45757e-05)
(0 -0 9.43846e-05)
(0 -0 0.000104386)
(0 -0 0.000114535)
(0 -0 0.000124759)
(0 -0 0.000134968)
(0 -0 0.00014507)
(0 -0 0.00015502)
(0 -0 0.000164974)
(0 -0 0.000175358)
(0 -0 0.0001859)
(0 2.82289e-21 2.99495e-05)
(0 -0 1.38639e-05)
(0 -0 1.90223e-05)
(0 -0 2.53086e-05)
(0 -0 3.28376e-05)
(0 -0 4.14249e-05)
(0 -0 5.0921e-05)
(0 -0 6.12922e-05)
(0 -0 7.24719e-05)
(0 -0 8.43806e-05)
(0 -0 9.693e-05)
(0 -0 0.00011)
(0 -0 0.000123329)
(0 -0 0.000136911)
(0 -0 0.000150214)
(0 -0 0.00016368)
(0 -0 0.000177158)
(0 -0 0.000190488)
(0 -0 0.000203506)
(0 -0 0.000216062)
(0 -0 0.00022807)
(0 -0 0.000239666)
(0 -0 0.000251279)
(0 -0 0.000262615)
(0 -5.81677e-21 4.937e-05)
(0 -0 3.21058e-05)
(0 -0 4.02476e-05)
(0 -0 5.01802e-05)
(0 -0 6.18528e-05)
(0 -0 7.4982e-05)
(0 -0 8.935e-05)
(0 -0 0.000104864)
(0 -0 0.000121395)
(0 -0 0.000138802)
(0 -0 0.000156944)
(0 -0 0.000175665)
(0 -0 0.000194946)
(0 -0 0.000213522)
(0 -0 0.000232282)
(0 -0 0.000250626)
(0 -0 0.000268759)
(0 -0 0.000286351)
(0 -0 0.000303143)
(0 -0 0.000318923)
(0 -0 0.000333572)
(0 -0 0.000347205)
(0 -0 0.000360258)
(0 -0 0.000372428)
(0 3.08747e-21 7.78031e-05)
(0 -0 5.93829e-05)
(0 -0 7.22907e-05)
(0 -0 8.80257e-05)
(0 -0 0.000105996)
(0 -0 0.000125846)
(0 -0 0.00014729)
(0 -0 0.000170159)
(0 -0 0.000194239)
(0 -0 0.000219306)
(0 -0 0.000245173)
(0 -0 0.000271742)
(0 -0 0.000298439)
(0 -0 0.000325542)
(0 -0 0.00035078)
(0 -0 0.000375305)
(0 -0 0.000399857)
(0 -0 0.000422987)
(0 -0 0.000444488)
(0 -0 0.000464144)
(0 -0 0.000481827)
(0 -0 0.000497654)
(0 -0 0.000512088)
(0 -0 0.000524792)
(0 -0 0.000487161)
(0 -0 0.00052174)
(0 -0 0.000554938)
(0 -0 0.000585831)
(0 -0 0.000615522)
(0 -0 0.000642354)
(0 -0 0.000666185)
(0 -0 0.000686905)
(0 -0 0.000704649)
(0 -0 0.000719908)
(0 -0 0.000732447)
(-3.05597e-22 -9.12962e-21 1.62462e-05)
(-3.07313e-22 -9.13357e-21 1.4058e-05)
(-5.64012e-22 -1.82132e-20 1.07168e-05)
(9.93609e-22 3.6151e-20 6.55414e-06)
(-9.53387e-22 -3.57629e-20 2.06055e-06)
(-2.50967e-21 -1.06629e-19 -1.21318e-06)
(5.3682e-22 1.74531e-20 -2.38126e-06)
(-3.23614e-22 -9.11443e-21 8.513e-06)
(-6.46275e-22 -1.82559e-20 8.49549e-06)
(-1.70269e-21 -5.46181e-20 7.6328e-06)
(-5.69435e-22 -1.81528e-20 5.92028e-06)
(1.09509e-21 3.58635e-20 4.74331e-06)
(1.397e-21 5.32693e-20 7.20591e-06)
(3.49224e-21 1.59034e-19 2.11339e-05)
(1.42966e-23 -1.59607e-23 -1.12163e-07)
(-3.21222e-22 -9.26467e-21 1.58929e-06)
(2.26428e-21 7.26851e-20 2.42076e-06)
(6.698e-23 -1.01102e-22 2.90054e-06)
(3.86532e-21 1.44363e-19 4.9444e-06)
(7.05121e-22 1.81635e-20 1.42213e-05)
(-3.35634e-21 -1.41838e-19 4.51199e-05)
(3.45484e-22 9.11576e-21 -8.94458e-06)
(3.13801e-22 9.20313e-21 -6.00955e-06)
(-4.76208e-21 -1.45922e-19 -3.71913e-06)
(5.94115e-22 1.82957e-20 -1.35672e-06)
(-8.42448e-21 -2.89615e-19 3.90516e-06)
(7.10922e-21 2.69802e-19 2.09421e-05)
(8.81727e-22 1.81491e-20 7.09407e-05)
(3.37995e-22 9.15051e-21 -1.7825e-05)
(-3.66703e-22 -9.37447e-21 -1.38548e-05)
(1.08551e-20 3.09982e-19 -1.03502e-05)
(2.40369e-22 1.83033e-22 -6.2899e-06)
(4.01384e-21 1.27106e-19 2.29033e-06)
(-7.34543e-21 -2.70774e-19 2.81524e-05)
(6.6442e-21 2.69688e-19 9.95234e-05)
(-3.97638e-22 -9.12547e-21 -2.67697e-05)
(-3.42168e-22 -9.02926e-21 -2.19031e-05)
(-5.45302e-21 -1.46198e-19 -1.73348e-05)
(9.63333e-21 2.91913e-19 -1.16665e-05)
(4.5817e-22 1.81547e-20 4.37086e-07)
(7.67842e-21 2.7292e-19 3.63686e-05)
(-7.97022e-21 -2.70659e-19 0.000131626)
(-1.19324e-21 -2.73367e-20 -3.59082e-05)
(-1.08372e-21 -2.7427e-20 -3.0221e-05)
(1.99745e-22 5.28955e-22 -2.46762e-05)
(-1.94715e-20 -5.48176e-19 -1.74216e-05)
(-6.41145e-22 -1.80956e-20 -1.49749e-06)
(-1.7439e-20 -6.00994e-19 4.59528e-05)
(-1.48342e-20 -5.65804e-19 0.000167919)
(1.23815e-21 2.7273e-20 -4.53857e-05)
(5.56273e-22 9.1363e-21 -3.8926e-05)
(1.07054e-21 1.802e-20 -3.24566e-05)
(1.11324e-20 2.92707e-19 -2.35942e-05)
(-1.05433e-23 -7.48279e-22 -3.47663e-06)
(2.67957e-20 8.42598e-19 5.71566e-05)
(1.77363e-20 6.04938e-19 0.000209005)
(3.91644e-22 9.01366e-21 -5.53848e-05)
(5.21459e-21 1.18707e-19 -4.81707e-05)
(1.28419e-20 3.12033e-19 -4.08029e-05)
(-5.61971e-22 -1.80225e-20 -3.02816e-05)
(6.36736e-22 1.91307e-20 -5.53243e-06)
(-2.09251e-20 -5.8865e-19 7.01723e-05)
(1.65227e-22 -7.56768e-22 0.00025546)
(1.84314e-24 1.79049e-22 -6.606e-05)
(-7.74132e-21 -1.64232e-19 -5.80952e-05)
(-1.2731e-20 -2.93898e-19 -4.98447e-05)
(1.32695e-20 3.31364e-19 -3.75968e-05)
(-2.28426e-21 -3.56599e-20 -7.72091e-06)
(-2.0168e-20 -5.94418e-19 8.5182e-05)
(1.78626e-20 6.12814e-19 0.000307884)
(4.41454e-22 9.34617e-21 -7.74954e-05)
(-7.30573e-21 -1.55914e-19 -6.88005e-05)
(3.4814e-22 2.22443e-22 -5.96904e-05)
(-1.25919e-20 -2.93882e-19 -4.56424e-05)
(-2.27574e-20 -5.94036e-19 -1.00914e-05)
(1.10665e-21 -1.92206e-20 0.000102395)
(-3.75172e-20 -1.17853e-18 0.000366944)
(-3.84747e-22 -9.32819e-21 -8.97938e-05)
(6.97352e-21 1.37311e-19 -8.03875e-05)
(5.55451e-23 1.24886e-22 -7.04374e-05)
(1.4116e-21 -8.44665e-22 -5.45032e-05)
(2.44195e-20 6.10801e-19 -1.26668e-05)
(4.23852e-20 1.1775e-18 0.000122077)
(4.28276e-20 1.227e-18 0.000433416)
(3.95489e-21 7.32003e-20 -0.000103059)
(-1.59229e-22 8.8888e-23 -9.29436e-05)
(5.14588e-22 -9.20944e-22 -8.2158e-05)
(2.59638e-20 5.95562e-19 -6.42292e-05)
(-2.5243e-20 -5.76915e-19 -1.54207e-05)
(-4.90483e-20 -1.22344e-18 0.000144587)
(-2.32472e-20 -6.08931e-19 0.000508227)
(-9.00349e-21 -1.5551e-19 -0.000117348)
(4.70402e-22 8.46176e-21 -0.000106513)
(1.60574e-20 3.1679e-19 -9.48765e-05)
(-5.61489e-20 -1.19148e-18 -7.48114e-05)
(2.7049e-20 5.96317e-19 -1.82475e-05)
(2.60286e-20 5.68369e-19 0.00017042)
(1.826e-21 2.03773e-20 0.00059252)
(5.2114e-21 8.23538e-20 -0.000132694)
(-1.59394e-21 -2.70768e-20 -0.000121096)
(-1.61465e-20 -2.79743e-19 -0.000108551)
(5.98085e-20 1.19448e-18 -8.61564e-05)
(-1.01097e-21 7.50432e-22 -2.09249e-05)
(2.64442e-20 5.91749e-19 0.000200275)
(3.46044e-21 2.11306e-20 0.000687751)
(3.98174e-21 6.42355e-20 -0.000149102)
(8.67519e-23 -8.07816e-21 -0.000136616)
(-3.03721e-20 -5.74432e-19 -0.000123032)
(-6.30883e-20 -1.18145e-18 -9.80497e-05)
(1.23712e-21 -3.3738e-21 -2.30599e-05)
(2.21928e-20 5.93877e-19 0.000235149)
(4.67897e-20 1.24708e-18 0.000795824)
(-4.29511e-21 -6.45786e-20 -0.000166533)
(1.72273e-20 2.84546e-19 -0.000152849)
(7.11036e-20 1.20974e-18 -0.000137923)
(3.34583e-20 5.82896e-19 -0.000110037)
(2.92363e-20 6.16476e-19 -2.39245e-05)
(-1.15895e-19 -2.48084e-18 0.000276641)
(-1.06778e-19 -2.49541e-18 0.000919024)
(-4.96311e-22 -8.1051e-21 -0.000184801)
(-3.94307e-20 -6.00669e-19 -0.000169787)
(-3.81309e-20 -5.97693e-19 -0.000153131)
(-1.05874e-21 1.35692e-21 -0.000121432)
(-6.43284e-20 -1.20758e-18 -2.2291e-05)
(6.73876e-20 1.21646e-18 0.000326708)
(6.20679e-20 1.28647e-18 0.00106081)
(6.49497e-22 8.7359e-21 -0.000204007)
(1.98671e-20 2.6854e-19 -0.000187118)
(9.85656e-22 1.91697e-20 -0.00016829)
(-1.49534e-21 -1.69114e-21 -0.000131814)
(3.40411e-20 6.29553e-19 -1.69132e-05)
(6.82621e-20 1.21815e-18 0.000388734)
(-1.95623e-21 2.23895e-20 0.00122621)
(-7.0574e-22 -9.93843e-21 -0.000222167)
(2.20875e-20 3.08843e-19 -0.000204333)
(7.64067e-22 1.72385e-20 2.57904e-05)
(1.59737e-21 3.50084e-20 2.4581e-05)
(4.27847e-23 -3.40444e-23 2.27643e-05)
(1.4597e-21 3.57692e-20 2.11585e-05)
(7.45161e-22 1.80839e-20 1.98352e-05)
(1.0378e-21 2.72653e-20 1.88125e-05)
(-3.28921e-22 -9.08976e-21 1.76555e-05)
(-5.88798e-21 -1.21257e-19 8.37082e-06)
(-3.97304e-21 -8.76441e-20 7.95703e-06)
(3.15694e-21 7.10012e-20 7.28859e-06)
(-7.55591e-22 -1.79284e-20 6.75616e-06)
(2.28702e-21 5.42064e-20 6.80199e-06)
(7.40352e-22 1.82165e-20 7.2859e-06)
(3.40064e-22 9.1319e-21 7.96856e-06)
(6.74174e-21 1.39075e-19 -4.62367e-06)
(7.67799e-22 1.76819e-20 -5.55617e-06)
(-9.86808e-21 -2.13341e-19 -6.40924e-06)
(-1.73592e-23 3.28427e-24 -6.50424e-06)
(-2.99261e-21 -7.2127e-20 -5.66679e-06)
(-3.73569e-22 -9.00226e-21 -4.11261e-06)
(-7.16695e-22 -1.81979e-20 -2.16187e-06)
(8.17386e-22 1.7576e-20 -1.66313e-05)
(-1.51797e-20 -3.005e-19 -1.76423e-05)
(1.36879e-20 2.84985e-19 -1.87443e-05)
(8.09434e-22 1.7984e-20 -1.86881e-05)
(6.38993e-21 1.4472e-19 -1.73655e-05)
(-2.66726e-21 -6.34084e-20 -1.50656e-05)
(-3.46746e-22 -9.16876e-21 -1.21492e-05)
(-1.62529e-20 -2.99042e-19 -2.89809e-05)
(1.52885e-20 3.01028e-19 -2.93671e-05)
(-7.94272e-21 -1.60536e-19 -3.05519e-05)
(-1.14259e-22 5.33374e-23 -3.02855e-05)
(-1.24751e-20 -2.71125e-19 -2.8549e-05)
(-4.10242e-22 -9.23469e-21 -2.56395e-05)
(1.1377e-21 2.7271e-20 -2.19427e-05)
(1.66191e-20 3.00131e-19 -4.22976e-05)
(-1.65521e-20 -3.02542e-19 -4.1389e-05)
(9.57444e-22 1.79576e-20 -4.24137e-05)
(-1.44522e-20 -2.88306e-19 -4.18038e-05)
(6.89998e-21 1.44483e-19 -3.96171e-05)
(-3.81198e-21 -8.16587e-20 -3.61086e-05)
(-3.87706e-22 -9.13854e-21 -3.16954e-05)
(3.47714e-20 5.86142e-19 -5.69766e-05)
(3.08734e-20 5.53619e-19 -5.41063e-05)
(-9.64056e-22 -1.80827e-20 -5.47224e-05)
(3.19701e-20 6.12839e-19 -5.36512e-05)
(-1.05486e-22 3.27889e-22 -5.09156e-05)
(2.14556e-21 4.52936e-20 -4.67429e-05)
(2.08518e-21 4.55998e-20 -4.16028e-05)
(2.45755e-21 1.91969e-20 -7.33066e-05)
(-5.29008e-20 -8.96122e-19 -6.77933e-05)
(5.58615e-23 -2.48775e-22 -6.78165e-05)
(-1.56613e-20 -2.88573e-19 -6.61096e-05)
(7.58479e-22 1.79351e-20 -6.2633e-05)
(2.67046e-22 9.14259e-21 -5.77109e-05)
(-2.15804e-21 -4.54855e-20 -5.18264e-05)
(1.39056e-21 7.68495e-22 -9.15426e-05)
(3.51034e-20 5.74962e-19 -8.26362e-05)
(1.02379e-21 1.83094e-20 -8.18786e-05)
(-1.07013e-21 -1.78422e-20 -7.93419e-05)
(-1.49492e-20 -2.72053e-19 -7.49752e-05)
(-9.04054e-21 -1.7298e-19 -6.92425e-05)
(4.9742e-22 8.94487e-21 -6.25813e-05)
(-3.58846e-20 -5.58915e-19 -0.000111943)
(3.7502e-20 5.78166e-19 -9.88008e-05)
(-1.85026e-21 -3.57075e-20 -9.70396e-05)
(-1.51791e-20 -2.54077e-19 -9.34796e-05)
(1.62628e-20 2.89689e-19 -8.81643e-05)
(6.97511e-21 1.27306e-19 -8.15486e-05)
(1.07028e-24 1.05032e-22 -7.40451e-05)
(4.18699e-20 5.9896e-19 -0.000134775)
(-4.60052e-22 -1.69509e-20 -0.000116451)
(3.78003e-20 5.80511e-19 -0.000113473)
(1.82037e-20 2.90236e-19 -0.000108724)
(-2.18124e-22 8.82422e-23 -0.000102324)
(7.65257e-21 1.3658e-19 -9.46942e-05)
(4.91684e-22 9.22159e-21 -8.62823e-05)
(-8.28926e-20 -1.14783e-18 -0.00016032)
(-8.17601e-20 -1.18306e-18 -0.000135744)
(-3.68842e-20 -5.64054e-19 -0.000131315)
(3.71218e-20 5.81894e-19 -0.000125201)
(-5.03351e-23 6.86534e-22 -0.000117545)
(-9.10612e-21 -1.54463e-19 -0.000108772)
(-6.24354e-22 -9.23929e-21 -9.93921e-05)
(4.37904e-20 5.85173e-19 -0.000188879)
(8.4175e-20 1.15074e-18 -0.000156835)
(4.30987e-20 6.03904e-19 -0.000150686)
(-7.79646e-20 -1.16461e-18 -0.00014299)
(-3.01294e-22 -9.92724e-22 -0.000133914)
(1.624e-22 8.1074e-23 -0.000123906)
(-4.19251e-21 -7.31838e-20 -0.000113496)
(1.14889e-21 1.89657e-20 -0.000220779)
(-4.7709e-20 -6.22363e-19 -0.000179886)
(-4.23443e-20 -5.85791e-19 -0.000171714)
(8.21706e-20 1.16704e-18 -0.000162191)
(-1.85523e-20 -2.72674e-19 -0.000151517)
(5.40827e-22 8.66011e-21 -0.000140165)
(8.38603e-21 1.3718e-19 -0.000128658)
(6.24378e-22 1.92905e-20 -0.000256369)
(-4.97705e-20 -6.08402e-19 -0.000205062)
(4.59201e-22 6.17823e-22 -0.00019452)
(-8.60345e-20 -1.16994e-18 -0.000182896)
(2.24633e-20 3.08575e-19 -0.000170427)
(-1.46698e-21 -2.69567e-20 -0.000157603)
(-4.27657e-21 -6.40097e-20 -0.000144923)
(-1.03911e-19 -1.19421e-18 -0.000296025)
(-5.18915e-20 -6.1389e-19 -0.000232528)
(6.40348e-23 -1.97863e-21 -0.000219219)
(9.23822e-20 1.18945e-18 -0.000205175)
(4.36718e-20 6.04918e-19 -0.000190699)
(1.95708e-20 2.84522e-19 -0.000176276)
(-5.43856e-21 -8.21369e-20 -0.000162337)
(2.19204e-19 2.41654e-18 -0.000339807)
(2.05739e-19 2.3613e-18 -0.000262477)
(7.00944e-22 2.81428e-21 -0.000245907)
(-4.90555e-20 -6.03185e-19 -0.000229052)
(-8.90828e-20 -1.15282e-18 -0.00021237)
(-4.37926e-20 -5.95981e-19 -0.000196279)
(5.78142e-21 8.15381e-20 -0.000180954)
(-1.11943e-19 -1.18508e-18 -0.000387248)
(-1.11974e-19 -1.21217e-18 -0.000293986)
(5.44526e-20 6.10243e-19 -0.000274757)
(6.32422e-22 -9.12786e-23 -0.00025454)
(4.78236e-20 5.85203e-19 -0.000235042)
(2.21359e-20 2.84164e-19 -0.000217243)
(-7.99994e-22 -8.72042e-21 -0.000200853)
(2.79318e-21 2.01995e-20 -0.00044037)
(-1.2343e-19 -1.23699e-18 -0.00032796)
(-5.25379e-20 -5.75919e-19 -0.00030442)
(9.25326e-22 -8.59797e-22 -0.000281604)
(1.71163e-21 1.8416e-20 -0.000259226)
(-2.65257e-21 -2.74484e-20 -0.000238493)
(7.20553e-22 9.10176e-21 -0.000220478)
(2.25743e-22 1.02181e-20 -0.000261343)
(-7.74578e-22 -9.14031e-21 -0.000240756)
(0 -0 2.97576e-05)
(0 -0 2.80608e-05)
(0 -0 2.62918e-05)
(0 -0 2.51423e-05)
(0 -0 2.42167e-05)
(0 -0 2.32482e-05)
(0 -0 2.22405e-05)
(0 -0 2.11945e-05)
(0 -0 2.01116e-05)
(0 -0 1.89936e-05)
(0 -0 1.78433e-05)
(0 -0 1.66642e-05)
(0 -0 1.54607e-05)
(0 -0 1.42385e-05)
(0 -0 1.30038e-05)
(0 -0 1.1764e-05)
(0 -0 1.05271e-05)
(0 -0 9.30152e-06)
(0 -0 8.09615e-06)
(0 -0 6.92e-06)
(0 -0 5.78193e-06)
(0 -0 4.69045e-06)
(0 -0 3.65343e-06)
(0 -0 2.67793e-06)
(0 -0 1.77012e-06)
(0 -0 9.35665e-07)
(0 -0 1.81314e-07)
(0 -0 -4.79508e-07)
(0 -0 -1.00861e-06)
(0 -0 -1.28472e-06)
(0 -0 -9.22816e-07)
(0 -0 1.24943e-06)
(0 -0 8.57998e-06)
(0 -1.11989e-24 2.87862e-05)
(0 -0 2.53682e-05)
(0 -0 2.37377e-05)
(0 -0 2.20552e-05)
(0 -0 2.09592e-05)
(0 -0 2.01063e-05)
(0 -0 1.92178e-05)
(0 -0 1.82975e-05)
(0 -0 1.7347e-05)
(0 -0 1.63679e-05)
(0 -0 1.53625e-05)
(0 -0 1.43337e-05)
(0 -0 1.32854e-05)
(0 -0 1.2222e-05)
(0 -0 1.11489e-05)
(0 -0 1.00723e-05)
(0 -0 8.99899e-06)
(0 -0 7.93606e-06)
(0 -0 6.89106e-06)
(0 -0 5.87158e-06)
(0 -0 4.88505e-06)
(0 -0 3.93852e-06)
(0 -0 3.03851e-06)
(0 -0 2.19077e-06)
(0 -0 1.4001e-06)
(0 -0 6.7047e-07)
(0 -0 5.69937e-09)
(0 -0 -5.88186e-07)
(0 -0 -1.09503e-06)
(0 -0 -1.4613e-06)
(0 -0 -1.50539e-06)
(0 -0 -6.16071e-07)
(0 -0 3.23839e-06)
(0 -0 1.67195e-05)
(0 9.33669e-24 6.19389e-05)
(0 -0 2.12156e-05)
(0 -0 1.96482e-05)
(0 -0 1.80192e-05)
(0 -0 1.69927e-05)
(0 -0 1.62172e-05)
(0 -0 1.54113e-05)
(0 -0 1.45798e-05)
(0 -0 1.37251e-05)
(0 -0 1.28495e-05)
(0 -0 1.19558e-05)
(0 -0 1.10473e-05)
(0 -0 1.01278e-05)
(0 -0 9.20203e-06)
(0 -0 8.2753e-06)
(0 -0 7.35346e-06)
(0 -0 6.44276e-06)
(0 -0 5.54968e-06)
(0 -0 4.68075e-06)
(0 -0 3.84232e-06)
(0 -0 3.04032e-06)
(0 -0 2.28008e-06)
(0 -0 1.56623e-06)
(0 -0 9.02416e-07)
(0 -0 2.91304e-07)
(0 -0 -2.65157e-07)
(0 -0 -7.64811e-07)
(0 -0 -1.2021e-06)
(0 -0 -1.55701e-06)
(0 -0 -1.75682e-06)
(0 -0 -1.54525e-06)
(0 -0 -3.08266e-08)
(0 -0 5.87118e-06)
(0 -0 2.68233e-05)
(0 -1.11163e-23 0.000100398)
(0 -0 1.73442e-05)
(0 -0 1.58305e-05)
(0 -0 1.42618e-05)
(0 -0 1.3305e-05)
(0 -0 1.26054e-05)
(0 -0 1.18811e-05)
(0 -0 1.11375e-05)
(0 -0 1.03774e-05)
(0 -0 9.60353e-06)
(0 -0 8.81917e-06)
(0 -0 8.0279e-06)
(0 -0 7.23388e-06)
(0 -0 6.44183e-06)
(0 -0 5.65698e-06)
(0 -0 4.88494e-06)
(0 -0 4.13151e-06)
(0 -0 3.40251e-06)
(0 -0 2.70354e-06)
(0 -0 2.03974e-06)
(0 -0 1.41566e-06)
(0 -0 8.35025e-07)
(0 -0 3.00613e-07)
(0 -0 -1.85905e-07)
(0 -0 -6.2382e-07)
(0 -0 -1.01309e-06)
(0 -0 -1.3531e-06)
(0 -0 -1.63841e-06)
(0 -0 -1.844e-06)
(0 -0 -1.87457e-06)
(0 -0 -1.38677e-06)
(0 -0 8.35675e-07)
(0 -0 9.08529e-06)
(0 -0 3.85198e-05)
(0 -3.05083e-24 0.000144033)
(0 -0 1.37976e-05)
(0 -0 1.23388e-05)
(0 -0 1.08311e-05)
(0 -0 9.94181e-06)
(0 -0 9.3154e-06)
(0 -0 8.67009e-06)
(0 -0 8.01143e-06)
(0 -0 7.34262e-06)
(0 -0 6.66687e-06)
(0 -0 5.98767e-06)
(0 -0 5.30895e-06)
(0 -0 4.63506e-06)
(0 -0 3.97082e-06)
(0 -0 3.32139e-06)
(0 -0 2.69218e-06)
(0 -0 2.08858e-06)
(0 -0 1.51576e-06)
(0 -0 9.78446e-07)
(0 -0 4.80715e-07)
(0 -0 2.57787e-08)
(0 -0 -3.84155e-07)
(0 -0 -7.48051e-07)
(0 -0 -1.06603e-06)
(0 -0 -1.33926e-06)
(0 -0 -1.5695e-06)
(0 -0 -1.75748e-06)
(0 -0 -1.89743e-06)
(0 -0 -1.95844e-06)
(0 -0 -1.81946e-06)
(0 -0 -1.03882e-06)
(0 -0 1.96435e-06)
(0 -0 1.28303e-05)
(0 -0 5.1702e-05)
(0 5.78239e-23 0.00019282)
(0 -0 1.06075e-05)
(0 -0 9.2034e-06)
(0 -0 7.75584e-06)
(0 -0 6.93144e-06)
(0 -0 6.37479e-06)
(0 -0 5.80457e-06)
(0 -0 5.22657e-06)
(0 -0 4.64433e-06)
(0 -0 4.06137e-06)
(0 -0 3.48152e-06)
(0 -0 2.90894e-06)
(0 -0 2.34817e-06)
(0 -0 1.80413e-06)
(0 -0 1.28198e-06)
(0 -0 7.86895e-07)
(0 -0 3.23901e-07)
(0 -0 -1.02388e-07)
(0 -0 -4.88054e-07)
(0 -0 -8.30031e-07)
(0 -0 -1.12634e-06)
(0 -0 -1.3762e-06)
(0 -0 -1.58016e-06)
(0 -0 -1.74003e-06)
(0 -0 -1.85877e-06)
(0 -0 -1.93977e-06)
(0 -0 -1.98487e-06)
(0 -0 -1.98761e-06)
(0 -0 -1.91038e-06)
(0 -0 -1.60325e-06)
(0 -0 -5.15416e-07)
(0 -0 3.33721e-06)
(0 -0 1.70829e-05)
(0 -0 6.63647e-05)
(0 -5.88151e-23 0.000247018)
(0 -0 7.78926e-06)
(0 -0 6.43811e-06)
(0 -0 5.04849e-06)
(0 -0 4.28572e-06)
(0 -0 3.7947e-06)
(0 -0 3.29482e-06)
(0 -0 2.79217e-06)
(0 -0 2.29062e-06)
(0 -0 1.79402e-06)
(0 -0 1.30649e-06)
(0 -0 8.32422e-07)
(0 -0 3.76583e-07)
(0 -0 -5.59988e-08)
(0 -0 -4.60193e-07)
(0 -0 -8.3096e-07)
(0 -0 -1.1636e-06)
(0 -0 -1.45403e-06)
(0 -0 -1.69904e-06)
(0 -0 -1.89651e-06)
(0 -0 -2.04556e-06)
(0 -0 -2.14674e-06)
(0 -0 -2.20206e-06)
(0 -0 -2.21495e-06)
(0 -0 -2.18997e-06)
(0 -0 -2.13197e-06)
(0 -0 -2.04372e-06)
(0 -0 -1.91783e-06)
(0 -0 -1.70897e-06)
(0 -0 -1.23525e-06)
(0 -0 1.74116e-07)
(0 -0 4.94631e-06)
(0 -0 2.18456e-05)
(0 -0 8.25704e-05)
(0 -1.61999e-22 0.000307033)
(0 -0 5.34387e-06)
(0 -0 4.04295e-06)
(0 -0 2.70822e-06)
(0 -0 2.00304e-06)
(0 -0 1.57275e-06)
(0 -0 1.13767e-06)
(0 -0 7.0422e-07)
(0 -0 2.76604e-07)
(0 -0 -1.40977e-07)
(0 -0 -5.44145e-07)
(0 -0 -9.28193e-07)
(0 -0 -1.28813e-06)
(0 -0 -1.61882e-06)
(0 -0 -1.91509e-06)
(0 -0 -2.172e-06)
(0 -0 -2.38514e-06)
(0 -0 -2.55091e-06)
(0 -0 -2.66671e-06)
(0 -0 -2.73123e-06)
(0 -0 -2.74465e-06)
(0 -0 -2.70872e-06)
(0 -0 -2.62683e-06)
(0 -0 -2.50383e-06)
(0 -0 -2.34576e-06)
(0 -0 -2.15881e-06)
(0 -0 -1.94652e-06)
(0 -0 -1.70026e-06)
(0 -0 -1.36596e-06)
(0 -0 -7.26615e-07)
(0 -0 1.01998e-06)
(0 -0 6.78663e-06)
(0 -0 2.71331e-05)
(0 -0 0.000100419)
(0 -3.17548e-23 0.000373388)
(0 -0 3.26009e-06)
(0 -0 2.00606e-06)
(0 -0 7.2254e-07)
(0 -0 7.01874e-08)
(0 -0 -3.05013e-07)
(0 -0 -6.81587e-07)
(0 -0 -1.05274e-06)
(0 -0 -1.41394e-06)
(0 -0 -1.76064e-06)
(0 -0 -2.0881e-06)
(0 -0 -2.39129e-06)
(0 -0 -2.66497e-06)
(0 -0 -2.90381e-06)
(0 -0 -3.10259e-06)
(0 -0 -3.25643e-06)
(0 -0 -3.36119e-06)
(0 -0 -3.4136e-06)
(0 -0 -3.41159e-06)
(0 -0 -3.35464e-06)
(0 -0 -3.24387e-06)
(0 -0 -3.08211e-06)
(0 -0 -2.87397e-06)
(0 -0 -2.62568e-06)
(0 -0 -2.34459e-06)
(0 -0 -2.03816e-06)
(0 -0 -1.71052e-06)
(0 -0 -1.35137e-06)
(0 -0 -8.96975e-07)
(0 -0 -9.18588e-08)
(0 -0 2.00995e-06)
(0 -0 8.85297e-06)
(0 -0 3.29662e-05)
(0 -0 0.000120037)
(0 -2.69361e-23 0.000446693)
(0 -0 1.51618e-06)
(0 -0 3.05369e-07)
(0 -0 -9.3112e-07)
(0 -0 -1.53604e-06)
(0 -0 -1.86251e-06)
(0 -0 -2.18757e-06)
(0 -0 -2.50409e-06)
(0 -0 -2.8071e-06)
(0 -0 -3.09168e-06)
(0 -0 -3.35263e-06)
(0 -0 -3.58454e-06)
(0 -0 -3.78188e-06)
(0 -0 -3.9391e-06)
(0 -0 -4.05089e-06)
(0 -0 -4.11244e-06)
(0 -0 -4.1197e-06)
(0 -0 -4.06968e-06)
(0 -0 -3.96086e-06)
(0 -0 -3.79337e-06)
(0 -0 -3.56914e-06)
(0 -0 -3.29201e-06)
(0 -0 -2.96775e-06)
(0 -0 -2.60379e-06)
(0 -0 -2.20877e-06)
(0 -0 -1.79122e-06)
(0 -0 -1.3558e-06)
(0 -0 -8.90092e-07)
(0 -0 -3.19732e-07)
(0 -0 6.5291e-07)
(0 -0 3.13107e-06)
(0 -0 1.11411e-05)
(0 -0 3.93721e-05)
(0 -0 0.000141572)
(0 2.03668e-22 0.000527647)
(0 -0 8.20732e-08)
(0 -0 -1.08939e-06)
(0 -0 -2.28348e-06)
(0 -0 -2.84704e-06)
(0 -0 -3.13187e-06)
(0 -0 -3.41321e-06)
(0 -0 -3.68346e-06)
(0 -0 -3.93713e-06)
(0 -0 -4.16875e-06)
(0 -0 -4.37262e-06)
(0 -0 -4.54292e-06)
(0 -0 -4.67379e-06)
(0 -0 -4.75944e-06)
(0 -0 -4.79443e-06)
(0 -0 -4.7739e-06)
(0 -0 -4.69386e-06)
(0 -0 -4.55161e-06)
(0 -0 -4.34604e-06)
(0 -0 -4.07785e-06)
(0 -0 -3.74971e-06)
(0 -0 -3.36642e-06)
(0 -0 -2.93479e-06)
(0 -0 -2.46337e-06)
(0 -0 -1.962e-06)
(0 -0 -1.44026e-06)
(0 -0 -9.03019e-07)
(0 -0 -3.35545e-07)
(0 -0 3.48335e-07)
(0 -0 1.4924e-06)
(0 -0 4.37179e-06)
(0 -0 1.36498e-05)
(0 -0 4.63859e-05)
(0 -0 0.0001652)
(0 -2.79869e-22 0.000617056)
(0 -0 -1.07808e-06)
(0 -0 -2.21434e-06)
(0 -0 -3.37132e-06)
(0 -0 -3.90051e-06)
(0 -0 -4.15179e-06)
(0 -0 -4.39805e-06)
(0 -0 -4.631e-06)
(0 -0 -4.84448e-06)
(0 -0 -5.03234e-06)
(0 -0 -5.18838e-06)
(0 -0 -5.30636e-06)
(0 -0 -5.38005e-06)
(0 -0 -5.40346e-06)
(0 -0 -5.37094e-06)
(0 -0 -5.2775e-06)
(0 -0 -5.11922e-06)
(0 -0 -4.8936e-06)
(0 -0 -4.5999e-06)
(0 -0 -4.23928e-06)
(0 -0 -3.81514e-06)
(0 -0 -3.33314e-06)
(0 -0 -2.80101e-06)
(0 -0 -2.22843e-06)
(0 -0 -1.62632e-06)
(0 -0 -1.00528e-06)
(0 -0 -3.70235e-07)
(0 -0 2.96193e-07)
(0 -0 1.09324e-06)
(0 -0 2.41514e-06)
(0 -0 5.72505e-06)
(0 -0 1.63841e-05)
(0 -0 5.4054e-05)
(0 -0 0.000191123)
(0 5.6565e-22 0.000715833)
(0 -0 -2.00318e-06)
(0 -0 -3.10899e-06)
(0 -0 -4.23553e-06)
(0 -0 -4.73888e-06)
(0 -0 -4.96595e-06)
(0 -0 -5.18656e-06)
(0 -0 -5.39141e-06)
(0 -0 -5.57353e-06)
(0 -0 -5.72616e-06)
(0 -0 -5.84267e-06)
(0 -0 -5.91648e-06)
(0 -0 -5.94106e-06)
(0 -0 -5.91015e-06)
(0 -0 -5.81787e-06)
(0 -0 -5.65907e-06)
(0 -0 -5.42986e-06)
(0 -0 -5.12792e-06)
(0 -0 -4.7527e-06)
(0 -0 -4.30586e-06)
(0 -0 -3.79144e-06)
(0 -0 -3.21584e-06)
(0 -0 -2.58773e-06)
(0 -0 -1.91786e-06)
(0 -0 -1.21822e-06)
(0 -0 -5.00287e-07)
(0 -0 2.30928e-07)
(0 -0 9.95913e-07)
(0 -0 1.90816e-06)
(0 -0 3.41717e-06)
(0 -0 7.19205e-06)
(0 -0 1.93588e-05)
(0 -0 6.24382e-05)
(0 -0 0.000219581)
(0 -3.04891e-22 0.000825007)
(0 -0 -2.73163e-06)
(0 -0 -3.81392e-06)
(0 -0 -4.91969e-06)
(0 -0 -5.40824e-06)
(0 -0 -5.62187e-06)
(0 -0 -5.82639e-06)
(0 -0 -6.01145e-06)
(0 -0 -6.16951e-06)
(0 -0 -6.29362e-06)
(0 -0 -6.37695e-06)
(0 -0 -6.41267e-06)
(0 -0 -6.3941e-06)
(0 -0 -6.31465e-06)
(0 -0 -6.16814e-06)
(0 -0 -5.94934e-06)
(0 -0 -5.65428e-06)
(0 -0 -5.2806e-06)
(0 -0 -4.828e-06)
(0 -0 -4.29856e-06)
(0 -0 -3.69684e-06)
(0 -0 -3.02995e-06)
(0 -0 -2.30752e-06)
(0 -0 -1.5413e-06)
(0 -0 -7.44445e-07)
(0 -0 7.07902e-08)
(0 -0 8.99356e-07)
(0 -0 1.76514e-06)
(0 -0 2.79731e-06)
(0 -0 4.50598e-06)
(0 -0 8.78591e-06)
(0 -0 2.26025e-05)
(0 -0 7.16201e-05)
(0 -0 0.000250855)
(0 -1.22834e-23 0.000945755)
(0 -0 -3.29712e-06)
(0 -0 -4.37015e-06)
(0 -0 -5.47117e-06)
(0 -0 -5.95914e-06)
(0 -0 -6.17021e-06)
(0 -0 -6.36625e-06)
(0 -0 -6.53685e-06)
(0 -0 -6.67491e-06)
(0 -0 -6.77389e-06)
(0 -0 -6.82718e-06)
(0 -0 -6.82798e-06)
(0 -0 -6.76936e-06)
(0 -0 -6.64439e-06)
(0 -0 -6.4466e-06)
(0 -0 -6.1705e-06)
(0 -0 -5.81184e-06)
(0 -0 -5.3682e-06)
(0 -0 -4.83943e-06)
(0 -0 -4.2279e-06)
(0 -0 -3.53866e-06)
(0 -0 -2.77958e-06)
(0 -0 -1.96117e-06)