/*--------------------------------*- C++ -*----------------------------------*\
| =========                 |                                                 |
| \\      /  F ield         | OpenFOAM: The Open Source CFD Toolbox           |
|  \\    /   O peration     | Version:  2412                                  |
|   \\  /    A nd           | Website:  www.openfoam.com                      |
|    \\/     M anipulation  |                                                 |
\*---------------------------------------------------------------------------*/
FoamFile
{
    version     2.0;
    format      ascii;
    arch        "LSB;label=32;scalar=64";
    class       volScalarField;
    location    "15";
    object      p;
}
// * * * * * * * * * * * * * * * * * * * * * * * * * * * * * * * * * * * * * //

dimensions      [0 2 -2 0 0 0 0];

internalField   nonuniform List<scalar> 
63420
(
0.000967011
0.000967268
0.000968088
0.000969355
0.000971052
0.000973165
0.000975678
0.000978577
0.000981849
0.000985481
0.000989461
0.00099378
0.000998431
0.00100341
0.00100872
0.00101435
0.0010203
0.00102658
0.00103319
0.00104012
0.00104737
0.00105496
0.00106286
0.0010711
0.00107967
0.00108856
0.00109779
0.00110736
0.00111727
0.00112751
0.0011381
0.00114904
0.00116033
0.00117197
0.00118397
0.00119633
0.00120905
0.00122215
0.00123562
0.00124946
0.00126369
0.0012783
0.00129331
0.0013087
0.0013245
0.0013407
0.00135731
0.00137433
0.00139177
0.00140964
0.00142793
0.00144665
0.00146581
0.00148542
0.00150547
0.000966951
0.000967208
0.000968028
0.000969294
0.000970989
0.000973101
0.000975612
0.000978509
0.000981779
0.000985408
0.000989385
0.000993701
0.000998348
0.00100332
0.00100862
0.00101425
0.0010202
0.00102648
0.00103308
0.00104
0.00104725
0.00105482
0.00106272
0.00107095
0.00107951
0.0010884
0.00109762
0.00110718
0.00111707
0.0011273
0.00113788
0.0011488
0.00116008
0.0011717
0.00118369
0.00119603
0.00120874
0.00122182
0.00123526
0.00124909
0.00126329
0.00127788
0.00129286
0.00130823
0.001324
0.00134017
0.00135674
0.00137373
0.00139113
0.00140896
0.00142721
0.00144589
0.001465
0.00148456
0.00150456
0.000966832
0.000967089
0.000967908
0.000969172
0.000970865
0.000972973
0.000975481
0.000978373
0.000981638
0.000985262
0.000989233
0.000993542
0.000998182
0.00100315
0.00100844
0.00101406
0.00102
0.00102627
0.00103285
0.00103977
0.001047
0.00105456
0.00106245
0.00107066
0.0010792
0.00108807
0.00109727
0.0011068
0.00111668
0.00112689
0.00113744
0.00114834
0.00115958
0.00117118
0.00118313
0.00119544
0.00120811
0.00122115
0.00123455
0.00124833
0.00126249
0.00127703
0.00129196
0.00130727
0.00132299
0.00133909
0.00135561
0.00137252
0.00138985
0.0014076
0.00142577
0.00144436
0.00146338
0.00148284
0.00150273
0.000966654
0.000966911
0.000967727
0.000968989
0.000970678
0.000972782
0.000975284
0.00097817
0.000981427
0.000985043
0.000989005
0.000993304
0.000997933
0.00100289
0.00100817
0.00101377
0.0010197
0.00102595
0.00103252
0.00103941
0.00104663
0.00105417
0.00106203
0.00107022
0.00107873
0.00108757
0.00109674
0.00110625
0.00111609
0.00112626
0.00113678
0.00114763
0.00115883
0.00117039
0.00118229
0.00119455
0.00120717
0.00122015
0.00123349
0.00124721
0.0012613
0.00127577
0.00129062
0.00130585
0.00132147
0.00133749
0.00135391
0.00137072
0.00138794
0.00140557
0.00142362
0.00144208
0.00146096
0.00148027
0.00150001
0.000966417
0.000966673
0.000967487
0.000968745
0.000970429
0.000972527
0.000975021
0.000977899
0.000981146
0.000984751
0.000988701
0.000992987
0.000997602
0.00100254
0.00100781
0.00101339
0.0010193
0.00102553
0.00103207
0.00103894
0.00104613
0.00105364
0.00106147
0.00106963
0.00107811
0.00108691
0.00109605
0.00110551
0.0011153
0.00112543
0.00113589
0.0011467
0.00115784
0.00116933
0.00118117
0.00119337
0.00120591
0.00121882
0.00123208
0.00124571
0.00125971
0.00127408
0.00128883
0.00130396
0.00131947
0.00133536
0.00135165
0.00136833
0.0013854
0.00140288
0.00142076
0.00143905
0.00145775
0.00147687
0.00149639
0.00096612
0.000966375
0.000967187
0.00096844
0.000970118
0.000972208
0.000974694
0.000977561
0.000980796
0.000984387
0.000988322
0.000992591
0.000997189
0.00100211
0.00100735
0.00101292
0.0010188
0.001025
0.00103152
0.00103835
0.00104551
0.00105299
0.00106078
0.00106889
0.00107733
0.00108609
0.00109517
0.00110458
0.00111432
0.00112439
0.00113479
0.00114553
0.00115661
0.00116802
0.00117978
0.00119189
0.00120435
0.00121716
0.00123032
0.00124385
0.00125773
0.00127199
0.00128661
0.0013016
0.00131697
0.00133271
0.00134884
0.00136535
0.00138225
0.00139954
0.00141722
0.00143529
0.00145377
0.00147264
0.00149191
0.000965765
0.000966019
0.000966827
0.000968075
0.000969746
0.000971827
0.000974301
0.000977155
0.000980376
0.000983951
0.000987868
0.000992117
0.000996693
0.00100159
0.00100681
0.00101234
0.0010182
0.00102437
0.00103085
0.00103765
0.00104477
0.0010522
0.00105995
0.00106802
0.0010764
0.00108511
0.00109413
0.00110348
0.00111315
0.00112315
0.00113348
0.00114414
0.00115513
0.00116646
0.00117812
0.00119013
0.00120248
0.00121518
0.00122822
0.00124162
0.00125537
0.00126948
0.00128395
0.00129879
0.00131399
0.00132955
0.00134549
0.0013618
0.00137849
0.00139555
0.001413
0.00143082
0.00144903
0.00146762
0.00148658
0.00152603
0.00154732
0.00156952
0.00159271
0.00161693
0.00164223
0.00166869
0.00169638
0.00172538
0.00175577
0.00178764
0.00182109
0.00185624
0.00189318
0.00193206
0.00197301
0.00201618
0.00206173
0.00210984
0.00216072
0.00221457
0.00227165
0.0023322
0.00239652
0.00246494
0.0025378
0.00261551
0.00269849
0.00278723
0.00288227
0.00298418
0.00309364
0.00321133
0.00333805
0.00347463
0.00362194
0.0037809
0.00395239
0.00413717
0.00433577
0.00454825
0.00477391
0.00501094
0.0052561
0.00550509
0.0057533
0.00599628
0.00624
0.00655204
0.00702611
0.00152509
0.00154638
0.0015686
0.00159177
0.00161598
0.00164128
0.00166773
0.00169542
0.00172441
0.0017548
0.00178666
0.00182011
0.00185524
0.00189218
0.00193104
0.00197197
0.00201511
0.00206063
0.00210871
0.00215954
0.00221333
0.00227033
0.0023308
0.00239502
0.0024633
0.002536
0.0026135
0.00269623
0.00278466
0.00287931
0.00298073
0.00308956
0.00320647
0.00333218
0.00346746
0.00361311
0.00376992
0.0039386
0.00411973
0.00431354
0.00451974
0.00473716
0.00496338
0.00519444
0.00542508
0.00564976
0.00586345
0.00607127
0.00633648
0.00674586
0.00152322
0.00154451
0.00156671
0.00158988
0.00161408
0.00163937
0.00166582
0.0016935
0.00172248
0.00175286
0.00178471
0.00181814
0.00185325
0.00189016
0.00192899
0.00196988
0.00201297
0.00205843
0.00210643
0.00215717
0.00221086
0.00226772
0.00232801
0.00239202
0.00246004
0.00253243
0.00260953
0.00269177
0.00277958
0.00287346
0.00297391
0.00308152
0.00319687
0.00332059
0.00345333
0.00359569
0.00374824
0.00391138
0.00408524
0.00426953
0.00446319
0.0046641
0.0048686
0.0050712
0.00526481
0.00544189
0.00559653
0.00573232
0.00589971
0.00619252
0.00152041
0.00154169
0.00156388
0.00158704
0.00161123
0.00163651
0.00166295
0.00169061
0.00171958
0.00174993
0.00178176
0.00181516
0.00185024
0.0018871
0.00192588
0.0019667
0.00200972
0.00205508
0.00210296
0.00215356
0.00220706
0.00226371
0.00232374
0.00238742
0.00245504
0.00252692
0.00260342
0.0026849
0.00277176
0.00286446
0.00296343
0.00306917
0.00318216
0.00330287
0.00343176
0.00356918
0.00371533
0.00387015
0.00403317
0.00420324
0.00437821
0.00455449
0.00472659
0.00488675
0.00502509
0.00513101
0.00519716
0.00522843
0.00525965
0.00534685
0.00151668
0.00153795
0.00156014
0.00158329
0.00160747
0.00163274
0.00165916
0.00168681
0.00171576
0.0017461
0.0017779
0.00181127
0.00184631
0.00188313
0.00192185
0.0019626
0.00200552
0.00205077
0.00209851
0.00214892
0.0022022
0.00225857
0.00231826
0.00238152
0.00244862
0.00251986
0.00259556
0.00267604
0.00276166
0.00285278
0.00294978
0.00305302
0.00316283
0.0032795
0.00340319
0.00353391
0.00367139
0.00381494
0.00396323
0.00411401
0.00426367
0.00440671
0.00453525
0.00463858
0.00470334
0.00471492
0.00466306
0.00455576
0.00441679
0.00418657
0.00151205
0.00153332
0.00155551
0.00157867
0.00160287
0.00162816
0.0016546
0.00168228
0.00171126
0.00174163
0.00177346
0.00180687
0.00184194
0.00187878
0.00191753
0.00195829
0.00200122
0.00204647
0.00209419
0.00214456
0.00219777
0.00225404
0.00231358
0.00237663
0.00244344
0.0025143
0.00258947
0.00266925
0.00275395
0.00284385
0.00293923
0.00304032
0.00314728
0.00326013
0.00337872
0.00350256
0.00363072
0.00376157
0.00389249
0.00401941
0.00413631
0.00423457
0.00430233
0.0043242
0.00428151
0.00415424
0.00392742
0.00360992
0.00321753
0.00255854
0.0015065
0.00152771
0.00154984
0.00157295
0.00159709
0.00162233
0.00164873
0.00167635
0.00170528
0.0017356
0.00176738
0.00180073
0.00183575
0.00187253
0.00191121
0.0019519
0.00199474
0.00203988
0.00208748
0.00213771
0.00219076
0.00224682
0.00230611
0.00236886
0.00243529
0.00250567
0.00258025
0.00265927
0.002743
0.00283164
0.00292539
0.00302434
0.00312847
0.00323758
0.00335113
0.00346815
0.00358694
0.00370477
0.0038174
0.00391841
0.00399848
0.00404452
0.00403897
0.00395977
0.00378116
0.00347536
0.00302359
0.00243947
0.0016879
0.000470694
-0.00343828
-0.00350305
-0.00350726
-0.00346548
-0.00339023
-0.00328504
-0.0031544
-0.00300028
-0.0028267
-0.00263781
-0.00243791
-0.00223113
-0.00202155
-0.00181296
-0.00160875
-0.00141187
-0.00122473
-0.00104923
-0.000886732
-0.000738126
-0.000603843
-0.000483926
-0.000378089
-0.000285779
-0.000206236
-0.000138546
-8.1705e-05
-3.46591e-05
3.65734e-06
3.42892e-05
5.82375e-05
7.64415e-05
8.97672e-05
9.90005e-05
0.000104844
0.000107917
0.00010876
0.000107837
0.000105543
0.000102211
9.81171e-05
9.34879e-05
8.85082e-05
8.33255e-05
7.80569e-05
7.27933e-05
6.76042e-05
6.25416e-05
5.76429e-05
5.29349e-05
-0.00353161
-0.00357113
-0.00356029
-0.0035099
-0.00342918
-0.00332108
-0.00318825
-0.00303307
-0.00285881
-0.00266949
-0.00246933
-0.00226216
-0.00205201
-0.00184266
-0.0016375
-0.00143947
-0.00125103
-0.00107411
-0.000910102
-0.000759937
-0.000624079
-0.000502598
-0.000395233
-0.000301451
-0.000220506
-0.000151496
-9.34216e-05
-4.5232e-05
-5.86199e-06
2.57349e-05
5.05627e-05
6.9565e-05
8.36128e-05
9.34971e-05
9.99261e-05
0.000103525
0.000104838
0.000104336
0.000102419
9.94226e-05
9.56276e-05
9.1265e-05
8.65223e-05
8.15506e-05
7.64696e-05
7.13728e-05
6.63322e-05
6.14018e-05
5.66205e-05
5.20183e-05
-0.00371824
-0.00370415
-0.00366411
-0.00359663
-0.00350454
-0.00339045
-0.00325319
-0.00309597
-0.00291982
-0.00273035
-0.00252973
-0.0023219
-0.00211079
-0.0019001
-0.00169321
-0.00149308
-0.00130221
-0.0011226
-0.000955733
-0.000802589
-0.000663703
-0.000539206
-0.000428882
-0.00033224
-0.000248565
-0.00017698
-0.000116494
-6.60641e-05
-2.46274e-05
8.86475e-06
3.54218e-05
5.59952e-05
7.14651e-05
8.26326e-05
9.02164e-05
9.4852e-05
9.70948e-05
9.74242e-05
9.62494e-05
9.39157e-05
9.07114e-05
8.68747e-05
8.26002e-05
7.80448e-05
7.33339e-05
6.85661e-05
6.3818e-05
5.91478e-05
5.45979e-05
5.02041e-05
-0.00400397
-0.00389298
-0.00381548
-0.00372184
-0.00361153
-0.00348811
-0.00334263
-0.00318334
-0.00300687
-0.00281641
-0.00261513
-0.00240652
-0.00219422
-0.00198179
-0.00177258
-0.0015696
-0.00137541
-0.00119208
-0.00102121
-0.000863883
-0.000720725
-0.00059195
-0.00047742
-0.000376699
-0.00028912
-0.000213839
-0.000149891
-9.62397e-05
-5.1827e-05
-1.56023e-05
1.34507e-05
3.62937e-05
5.38196e-05
6.68437e-05
7.60991e-05
8.22365e-05
8.58256e-05
8.73599e-05
8.72618e-05
8.58889e-05
8.35413e-05
8.04674e-05
7.68717e-05
7.292e-05
6.87458e-05
6.4455e-05
6.01308e-05
5.58375e-05
5.16232e-05
4.75318e-05
-0.00436005
-0.00413925
-0.0040098
-0.0038782
-0.00374465
-0.00360735
-0.00345547
-0.00329038
-0.00311132
-0.00291969
-0.00271778
-0.0025085
-0.00229512
-0.00208102
-0.00186947
-0.00166347
-0.00146565
-0.00127817
-0.00110274
-0.000940559
-0.000792375
-0.000658514
-0.000538925
-0.00043325
-0.000340892
-0.000261052
-0.000192799
-0.000135117
-8.69594e-05
-4.72772e-05
-1.50501e-05
1.06927e-05
3.08569e-05
4.62724e-05
5.76889e-05
6.57737e-05
7.11134e-05
7.4218e-05
7.55257e-05
7.54093e-05
7.41826e-05
7.21078e-05
6.94011e-05
6.624e-05
6.27681e-05
5.91009e-05
5.53303e-05
5.15283e-05
4.77508e-05
4.40521e-05
-0.00473491
-0.00444088
-0.00424152
-0.00406114
-0.00390229
-0.00373835
-0.00357264
-0.00339982
-0.00321718
-0.00302457
-0.00282307
-0.00261472
-0.00240217
-0.00218839
-0.00197641
-0.00176909
-0.00156906
-0.00137853
-0.00119932
-0.00103274
-0.000879703
-0.000740663
-0.000615706
-0.000504591
-0.000406816
-0.000321672
-0.000248299
-0.000185727
-0.000132943
-8.89215e-05
-5.26532e-05
-2.31705e-05
4.35464e-07
1.90029e-05
3.32926e-05
4.3986e-05
5.1685e-05
5.6916e-05
6.0134e-05
6.17283e-05
6.20295e-05
6.13156e-05
5.98182e-05
5.77294e-05
5.52065e-05
5.2378e-05
4.93475e-05
4.61977e-05
4.29956e-05
3.98047e-05
-0.00509202
-0.0048056
-0.00453186
-0.00430882
-0.00410195
-0.00390947
-0.00372476
-0.00353961
-0.00335002
-0.0031541
-0.00295147
-0.00274303
-0.00253061
-0.00231658
-0.00210359
-0.00189435
-0.0016914
-0.00149702
-0.0013131
-0.00114113
-0.00098217
-0.000836844
-0.000705391
-0.000587712
-0.000483423
-0.000391917
-0.000312411
-0.000244006
-0.000185724
-0.000136564
-9.55291e-05
-6.16539e-05
-3.4024e-05
-1.17897e-05
5.82556e-06
1.95217e-05
2.99215e-05
3.75726e-05
4.29519e-05
4.64707e-05
4.84805e-05
4.92797e-05
4.91195e-05
4.82097e-05
4.6725e-05
4.48091e-05
4.258e-05
4.01332e-05
3.75472e-05
3.48892e-05
4.84247e-05
4.40575e-05
3.98324e-05
3.57717e-05
3.18836e-05
2.81739e-05
2.46467e-05
2.13043e-05
1.81468e-05
1.51728e-05
1.23798e-05
9.76439e-06
7.32226e-06
5.04853e-06
2.93787e-06
9.84611e-07
-8.17076e-07
-2.47308e-06
-3.98924e-06
-5.37124e-06
-6.62456e-06
-7.75447e-06
-8.76604e-06
-9.66421e-06
-1.04539e-05
-1.114e-05
-1.17277e-05
-1.22221e-05
-1.26287e-05
-1.29531e-05
-1.32008e-05
-1.33774e-05
-1.34885e-05
-1.35394e-05
-1.35353e-05
-1.3481e-05
-1.33812e-05
-1.32401e-05
-1.3062e-05
-1.28507e-05
-1.26097e-05
-1.23424e-05
-1.20522e-05
-1.17416e-05
-1.14144e-05
-1.10725e-05
-1.07184e-05
-1.03548e-05
-9.98383e-06
-9.60751e-06
-9.22777e-06
-8.84639e-06
-8.46501e-06
-8.08515e-06
-7.70819e-06
-7.3354e-06
-6.96792e-06
-6.60678e-06
-6.25291e-06
-5.90712e-06
-5.57014e-06
-5.24259e-06
-4.925e-06
-4.61781e-06
-4.32139e-06
-4.03602e-06
-3.76192e-06
-3.49921e-06
-3.24798e-06
-3.00825e-06
-2.77999e-06
-2.56312e-06
-2.3575e-06
-2.16296e-06
-1.9793e-06
-1.80627e-06
-1.64359e-06
-1.49096e-06
-1.34807e-06
-1.21457e-06
-1.09012e-06
-9.74347e-07
-8.66845e-07
-7.67342e-07
-6.75182e-07
-5.90521e-07
-5.11766e-07
-4.41027e-07
-3.7285e-07
-3.16902e-07
-2.53428e-07
-2.18447e-07
-1.44997e-07
-1.5121e-07
-3.19721e-08
-1.30333e-07
1.11954e-07
-1.81889e-07
3.2027e-07
-3.30712e-07
6.09752e-07
-5.62894e-07
9.31077e-07
-7.72285e-07
1.12658e-06
-7.51263e-07
9.76984e-07
-3.10585e-07
3.92507e-07
4.85415e-07
-3.67548e-07
1.18874e-06
-7.32412e-07
1.20352e-06
-2.23115e-07
4.7618e-05
4.33207e-05
3.91578e-05
3.51581e-05
3.13267e-05
2.76685e-05
2.41884e-05
2.08889e-05
1.77704e-05
1.4832e-05
1.20713e-05
9.48529e-06
7.06987e-06
4.82045e-06
2.73192e-06
7.98838e-07
-9.84453e-07
-2.62367e-06
-4.12451e-06
-5.49251e-06
-6.73307e-06
-7.85135e-06
-8.85234e-06
-9.74092e-06
-1.05219e-05
-1.12002e-05
-1.17809e-05
-1.22691e-05
-1.26701e-05
-1.29895e-05
-1.32327e-05
-1.34054e-05
-1.3513e-05
-1.35608e-05
-1.35539e-05
-1.34972e-05
-1.33951e-05
-1.32521e-05
-1.30723e-05
-1.28593e-05
-1.2617e-05
-1.23484e-05
-1.20571e-05
-1.17456e-05
-1.14175e-05
-1.10749e-05
-1.07202e-05
-1.0356e-05
-9.98457e-06
-9.60784e-06
-9.22775e-06
-8.84608e-06
-8.46446e-06
-8.08439e-06
-7.70727e-06
-7.33435e-06
-6.96677e-06
-6.60556e-06
-6.25164e-06
-5.90582e-06
-5.56883e-06
-5.24128e-06
-4.9237e-06
-4.61653e-06
-4.32014e-06
-4.03482e-06
-3.76075e-06
-3.49809e-06
-3.24691e-06
-3.00724e-06
-2.77903e-06
-2.56221e-06
-2.35664e-06
-2.16216e-06
-1.97855e-06
-1.80557e-06
-1.64294e-06
-1.49036e-06
-1.34752e-06
-1.21407e-06
-1.08965e-06
-9.73922e-07
-8.66458e-07
-7.66989e-07
-6.74861e-07
-5.9023e-07
-5.11504e-07
-4.40791e-07
-3.7264e-07
-3.16711e-07
-2.53264e-07
-2.18289e-07
-1.44876e-07
-1.51076e-07
-3.18966e-08
-1.30209e-07
1.1198e-07
-1.81763e-07
3.20248e-07
-3.30581e-07
6.09699e-07
-5.62779e-07
9.31035e-07
-7.7223e-07
1.1266e-06
-7.51305e-07
9.77086e-07
-3.10704e-07
3.92652e-07
4.85291e-07
-3.67418e-07
1.18865e-06
-7.3227e-07
1.20334e-06
-2.23211e-07
4.60138e-05
4.1856e-05
3.78177e-05
3.39392e-05
3.02202e-05
2.66643e-05
2.32775e-05
2.00631e-05
1.70222e-05
1.41542e-05
1.14577e-05
8.92996e-06
6.56761e-06
4.36649e-06
2.32196e-06
4.28982e-07
-1.31773e-06
-2.92356e-06
-4.39391e-06
-5.73408e-06
-6.94925e-06
-8.04438e-06
-9.02433e-06
-9.89381e-06
-1.06576e-05
-1.13203e-05
-1.1887e-05
-1.23627e-05
-1.27526e-05
-1.30621e-05
-1.32965e-05
-1.34614e-05
-1.3562e-05
-1.36036e-05
-1.35912e-05
-1.35294e-05
-1.3423e-05
-1.32761e-05
-1.30927e-05
-1.28767e-05
-1.26315e-05
-1.23605e-05
-1.2067e-05
-1.17536e-05
-1.14238e-05
-1.10798e-05
-1.07237e-05
-1.03584e-05
-9.98604e-06
-9.60849e-06
-9.22771e-06
-8.84545e-06
-8.46334e-06
-8.08287e-06
-7.70543e-06
-7.33225e-06
-6.96448e-06
-6.60313e-06
-6.2491e-06
-5.90323e-06
-5.56621e-06
-5.23866e-06
-4.9211e-06
-4.61398e-06
-4.31766e-06
-4.03241e-06
-3.75843e-06
-3.49586e-06
-3.24478e-06
-3.00521e-06
-2.77711e-06
-2.5604e-06
-2.35494e-06
-2.16056e-06
-1.97706e-06
-1.80418e-06
-1.64165e-06
-1.48917e-06
-1.34642e-06
-1.21305e-06
-1.08872e-06
-9.73075e-07
-8.65685e-07
-7.66285e-07
-6.74221e-07
-5.8965e-07
-5.10981e-07
-4.40319e-07
-3.72222e-07
-3.16328e-07
-2.52935e-07
-2.17974e-07
-1.44633e-07
-1.50808e-07
-3.17466e-08
-1.29963e-07
1.12031e-07
-1.81509e-07
3.20201e-07
-3.30317e-07
6.09591e-07
-5.62549e-07
9.30951e-07
-7.72121e-07
1.12664e-06
-7.51385e-07
9.77286e-07
-3.10939e-07
3.9294e-07
4.8504e-07
-3.6716e-07
1.18847e-06
-7.31977e-07
1.20297e-06
-2.23389e-07
4.36325e-05
3.96813e-05
3.58301e-05
3.21316e-05
2.85785e-05
2.51739e-05
2.19251e-05
1.88366e-05
1.59103e-05
1.31468e-05
1.05452e-05
8.10398e-06
5.82035e-06
3.69093e-06
1.71174e-06
-1.21668e-07
-1.81402e-06
-3.37022e-06
-4.79525e-06
-6.09404e-06
-7.27144e-06
-8.33215e-06
-9.28079e-06
-1.01219e-05
-1.08599e-05
-1.14996e-05
-1.20455e-05
-1.25026e-05
-1.28759e-05
-1.31705e-05
-1.33918e-05
-1.3545e-05
-1.36352e-05
-1.36675e-05
-1.36468e-05
-1.35777e-05
-1.34647e-05
-1.33119e-05
-1.31233e-05
-1.29025e-05
-1.26532e-05
-1.23785e-05
-1.20818e-05
-1.17655e-05
-1.14332e-05
-1.10869e-05
-1.0729e-05
-1.0362e-05
-9.98822e-06
-9.60944e-06
-9.22762e-06
-8.84448e-06
-8.46165e-06
-8.08059e-06
-7.70266e-06
-7.3291e-06
-6.96103e-06
-6.59947e-06
-6.2453e-06
-5.89933e-06
-5.56227e-06
-5.23473e-06
-4.91721e-06
-4.61016e-06
-4.31393e-06
-4.02879e-06
-3.75494e-06
-3.49251e-06
-3.24158e-06
-3.00217e-06
-2.77423e-06
-2.55768e-06
-2.35238e-06
-2.15817e-06
-1.97482e-06
-1.8021e-06
-1.63972e-06
-1.48738e-06
-1.34477e-06
-1.21154e-06
-1.08733e-06
-9.71803e-07
-8.64526e-07
-7.65229e-07
-6.73261e-07
-5.8878e-07
-5.10198e-07
-4.39612e-07
-3.71595e-07
-3.15756e-07
-2.52444e-07
-2.17505e-07
-1.44271e-07
-1.50409e-07
-3.15208e-08
-1.29594e-07
1.1211e-07
-1.8113e-07
3.20138e-07
-3.29928e-07
6.09441e-07
-5.62216e-07
9.30841e-07
-7.71975e-07
1.12671e-06
-7.51524e-07
9.77599e-07
-3.11303e-07
3.93374e-07
4.84661e-07
-3.66779e-07
1.18821e-06
-7.31543e-07
1.20242e-06
-2.23613e-07
4.05045e-05
3.6824e-05
3.32217e-05
2.97591e-05
2.64227e-05
2.32157e-05
2.01474e-05
1.72235e-05
1.44472e-05
1.18204e-05
9.34335e-06
7.01554e-06
4.83526e-06
2.80004e-06
9.06745e-07
-8.48288e-07
-2.46909e-06
-3.95995e-06
-5.32529e-06
-6.56957e-06
-7.69721e-06
-8.71258e-06
-9.61995e-06
-1.04236e-05
-1.11278e-05
-1.17369e-05
-1.22554e-05
-1.26879e-05
-1.30392e-05
-1.33144e-05
-1.35182e-05
-1.36559e-05
-1.37323e-05
-1.37523e-05
-1.37206e-05
-1.36417e-05
-1.35199e-05
-1.33593e-05
-1.31637e-05
-1.29368e-05
-1.2682e-05
-1.24024e-05
-1.21014e-05
-1.17812e-05
-1.14456e-05
-1.10964e-05
-1.07359e-05
-1.03668e-05
-9.99106e-06
-9.61066e-06
-9.22746e-06
-8.84317e-06
-8.45936e-06
-8.07751e-06
-7.69894e-06
-7.32488e-06
-6.95643e-06
-6.59457e-06
-6.24021e-06
-5.89413e-06
-5.55702e-06
-5.22948e-06
-4.91202e-06
-4.60506e-06
-4.30895e-06
-4.02396e-06
-3.75028e-06
-3.48804e-06
-3.23732e-06
-2.99811e-06
-2.77039e-06
-2.55405e-06
-2.34897e-06
-2.15497e-06
-1.97184e-06
-1.79932e-06
-1.63714e-06
-1.485e-06
-1.34257e-06
-1.20951e-06
-1.08548e-06
-9.70107e-07
-8.62979e-07
-7.6382e-07
-6.71982e-07
-5.87621e-07
-5.09155e-07
-4.3867e-07
-3.7076e-07
-3.14994e-07
-2.51788e-07
-2.16881e-07
-1.43788e-07
-1.4988e-07
-3.12149e-08
-1.29109e-07
1.12228e-07
-1.80643e-07
3.20081e-07
-3.29443e-07
6.09288e-07
-5.61828e-07
9.3076e-07
-7.71855e-07
1.12689e-06
-7.51781e-07
9.78073e-07
-3.11828e-07
3.93962e-07
4.84169e-07
-3.66307e-07
1.1879e-06
-7.31006e-07
1.20173e-06
-2.2385e-07
3.66672e-05
3.33218e-05
3.00282e-05
2.68532e-05
2.37803e-05
2.08138e-05
1.79652e-05
1.52419e-05
1.26487e-05
1.01889e-05
7.86415e-06
5.67522e-06
3.62162e-06
1.70196e-06
-8.58719e-08
-1.74461e-06
-3.27746e-06
-4.68795e-06
-5.97985e-06
-7.15703e-06
-8.22342e-06
-9.18294e-06
-1.00395e-05
-1.0797e-05
-1.14595e-05
-1.20309e-05
-1.25155e-05
-1.29177e-05
-1.32419e-05
-1.34928e-05
-1.36751e-05
-1.37936e-05
-1.38528e-05
-1.38576e-05
-1.38122e-05
-1.37212e-05
-1.35885e-05
-1.34182e-05
-1.3214e-05
-1.29793e-05
-1.27176e-05
-1.2432e-05
-1.21256e-05
-1.18007e-05
-1.14609e-05
-1.11081e-05
-1.07445e-05
-1.03726e-05
-9.99452e-06
-9.61211e-06
-9.2272e-06
-8.84146e-06
-8.45646e-06
-8.07363e-06
-7.69427e-06
-7.31958e-06
-6.95064e-06
-6.58844e-06
-6.23384e-06
-5.88761e-06
-5.55044e-06
-5.22291e-06
-4.90551e-06
-4.59868e-06
-4.30273e-06
-4.01792e-06
-3.74446e-06
-3.48246e-06
-3.23199e-06
-2.99304e-06
-2.76559e-06
-2.54952e-06
-2.34471e-06
-2.15098e-06
-1.96811e-06
-1.79585e-06
-1.63392e-06
-1.48202e-06
-1.33982e-06
-1.20698e-06
-1.08316e-06
-9.67987e-07
-8.61046e-07
-7.6206e-07
-6.70385e-07
-5.86174e-07
-5.07853e-07
-4.37493e-07
-3.69716e-07
-3.14041e-07
-2.50971e-07
-2.16102e-07
-1.43185e-07
-1.49219e-07
-3.08336e-08
-1.285e-07
1.12375e-07
-1.80029e-07
3.20006e-07
-3.2883e-07
6.0909e-07
-5.61333e-07
9.30647e-07
-7.71693e-07
1.12709e-06
-7.52089e-07
9.78651e-07
-3.12475e-07
3.9469e-07
4.8355e-07
-3.65705e-07
1.18748e-06
-7.30294e-07
1.20081e-06
-2.23977e-07
3.21754e-05
2.92223e-05
2.62944e-05
2.34517e-05
2.06833e-05
1.7996e-05
1.54027e-05
1.29129e-05
1.05331e-05
8.26815e-06
6.12146e-06
4.09512e-06
2.18998e-06
4.05936e-07
-1.25801e-06
-2.80354e-06
-4.23291e-06
-5.54879e-06
-6.7542e-06
-7.85234e-06
-8.84654e-06
-9.74023e-06
-1.05369e-05
-1.124e-05
-1.18531e-05
-1.23801e-05
-1.28247e-05
-1.3191e-05
-1.3483e-05
-1.37052e-05
-1.38619e-05
-1.39575e-05
-1.39964e-05
-1.39829e-05
-1.39214e-05
-1.38158e-05
-1.36702e-05
-1.34883e-05
-1.32737e-05
-1.30299e-05
-1.27601e-05
-1.24672e-05
-1.21544e-05
-1.18239e-05
-1.14791e-05
-1.1122e-05
-1.07546e-05
-1.03794e-05
-9.99855e-06
-9.61374e-06
-9.22679e-06
-8.83935e-06
-8.45292e-06
-8.06892e-06
-7.68861e-06
-7.31318e-06
-6.94368e-06
-6.58106e-06
-6.22617e-06
-5.87977e-06
-5.54253e-06
-5.21502e-06
-4.89771e-06
-4.59101e-06
-4.29525e-06
-4.01068e-06
-3.73748e-06
-3.47576e-06
-3.22559e-06
-2.98696e-06
-2.75983e-06
-2.54409e-06
-2.33961e-06
-2.1462e-06
-1.96364e-06
-1.79169e-06
-1.63006e-06
-1.47844e-06
-1.33652e-06
-1.20395e-06
-1.08038e-06
-9.65444e-07
-8.58727e-07
-7.59949e-07
-6.6847e-07
-5.84438e-07
-5.06292e-07
-4.36082e-07
-3.68466e-07
-3.12896e-07
-2.49998e-07
-2.15157e-07
-1.42483e-07
-1.48393e-07
-3.0432e-08
-1.27683e-07
1.12419e-07
-1.79101e-07
3.19646e-07
-3.2773e-07
6.08381e-07
-5.60162e-07
9.29836e-07
-7.70756e-07
1.12658e-06
-7.51752e-07
9.78765e-07
-3.12875e-07
3.9544e-07
4.82652e-07
-3.64579e-07
1.1864e-06
-7.28781e-07
1.19914e-06
-2.23522e-07
2.69378e-05
2.44542e-05
2.19633e-05
1.95024e-05
1.70821e-05
1.47152e-05
1.24157e-05
1.0195e-05
8.06162e-06
6.02224e-06
4.08197e-06
2.24445e-06
5.12032e-07
-1.11406e-06
-2.63353e-06
-4.0469e-06
-5.35537e-06
-6.56065e-06
-7.66488e-06
-8.67051e-06
-9.5802e-06
-1.03968e-05
-1.11232e-05
-1.17625e-05
-1.23179e-05
-1.27926e-05
-1.31902e-05
-1.35142e-05
-1.37684e-05
-1.39567e-05
-1.40831e-05
-1.41517e-05
-1.41664e-05
-1.41314e-05
-1.40506e-05
-1.39278e-05
-1.37668e-05
-1.35713e-05
-1.33445e-05
-1.30897e-05
-1.28102e-05
-1.25088e-05
-1.21884e-05
-1.18512e-05
-1.15006e-05
-1.11383e-05
-1.07664e-05
-1.03874e-05
-1.00032e-05
-9.61556e-06
-9.2262e-06
-8.83672e-06
-8.44861e-06
-8.06322e-06
-7.68181e-06
-7.30549e-06
-6.93532e-06
-6.57221e-06
-6.21699e-06
-5.8704e-06
-5.53308e-06
-5.20558e-06
-4.88837e-06
-4.58185e-06
-4.28632e-06
-4.00202e-06
-3.72913e-06
-3.46776e-06
-3.21795e-06
-2.9797e-06
-2.75295e-06
-2.5376e-06
-2.33351e-06
-2.14048e-06
-1.95831e-06
-1.78672e-06
-1.62545e-06
-1.47418e-06
-1.33258e-06
-1.20033e-06
-1.07706e-06
-9.62408e-07
-8.55958e-07
-7.57428e-07
-6.66184e-07
-5.82367e-07
-5.0443e-07
-4.34395e-07
-3.66978e-07
-3.11523e-07
-2.4885e-07
-2.1401e-07
-1.41683e-07
-1.47347e-07
-3.00497e-08
-1.26555e-07
1.12241e-07
-1.77652e-07
3.18739e-07
-3.25768e-07
6.06697e-07
-5.57729e-07
9.27659e-07
-7.68312e-07
1.12461e-06
-7.50093e-07
9.77876e-07
-3.12698e-07
3.96141e-07
4.81272e-07
-3.62477e-07
1.18403e-06
-7.25783e-07
1.19613e-06
-2.21982e-07
2.10455e-05
1.9073e-05
1.70519e-05
1.50159e-05
1.29854e-05
1.09776e-05
9.0084e-06
7.09092e-06
5.23582e-06
3.45173e-06
1.74553e-06
1.22512e-07
-1.4134e-06
-2.85949e-06
-4.21412e-06
-5.47654e-06
-6.64677e-06
-7.72549e-06
-8.71387e-06
-9.61352e-06
-1.04264e-05
-1.11545e-05
-1.18004e-05
-1.23665e-05
-1.28554e-05
-1.32701e-05
-1.36135e-05
-1.38888e-05
-1.40994e-05
-1.42485e-05
-1.43399e-05
-1.43772e-05
-1.43639e-05
-1.43039e-05
-1.42007e-05
-1.40579e-05
-1.3879e-05
-1.36675e-05
-1.34265e-05
-1.31591e-05
-1.28683e-05
-1.25569e-05
-1.22276e-05
-1.18827e-05
-1.15253e-05
-1.1157e-05
-1.078e-05
-1.03965e-05
-1.00084e-05
-9.61744e-06
-9.22528e-06
-8.83345e-06
-8.44338e-06
-8.05639e-06
-7.67368e-06
-7.29635e-06
-6.9254e-06
-6.56173e-06
-6.20613e-06
-5.85932e-06
-5.52191e-06
-5.19444e-06
-4.87736e-06
-4.57105e-06
-4.27579e-06
-3.99183e-06
-3.71931e-06
-3.45834e-06
-3.20895e-06
-2.97115e-06
-2.74485e-06
-2.52997e-06
-2.32633e-06
-2.13376e-06
-1.95203e-06
-1.78088e-06
-1.62002e-06
-1.46916e-06
-1.32796e-06
-1.19608e-06
-1.07316e-06
-9.58837e-07
-8.52702e-07
-7.54465e-07
-6.63497e-07
-5.79932e-07
-5.0224e-07
-4.32416e-07
-3.65223e-07
-3.09921e-07
-2.4748e-07
-2.12697e-07
-1.40681e-07
-1.46217e-07
-2.94445e-08
-1.25467e-07
1.12385e-07
-1.76454e-07
3.18368e-07
-3.24381e-07
6.05881e-07
-5.56275e-07
9.26711e-07
-7.67177e-07
1.12405e-06
-7.49752e-07
9.78139e-07
-3.13351e-07
3.9728e-07
4.79891e-07
-3.60728e-07
1.18226e-06
-7.23334e-07
1.19344e-06
-2.20491e-07
1.47042e-05
1.32557e-05
1.17228e-05
1.01371e-05
8.52274e-06
6.89945e-06
5.28484e-06
3.69401e-06
2.13954e-06
6.31913e-07
-8.20255e-07
-2.20998e-06
-3.53177e-06
-4.78142e-06
-5.95588e-06
-7.05309e-06
-8.07188e-06
-9.01181e-06
-9.87306e-06
-1.06563e-05
-1.13627e-05
-1.19937e-05
-1.2551e-05
-1.30364e-05
-1.34522e-05
-1.38007e-05
-1.40843e-05
-1.43057e-05
-1.44679e-05
-1.45736e-05
-1.46261e-05
-1.46285e-05
-1.4584e-05
-1.44961e-05
-1.43679e-05
-1.42028e-05
-1.4004e-05
-1.37747e-05
-1.35178e-05
-1.32362e-05
-1.29329e-05
-1.26103e-05
-1.22712e-05
-1.19176e-05
-1.15525e-05
-1.11777e-05
-1.07948e-05
-1.04063e-05
-1.00139e-05
-9.61927e-06
-9.22398e-06
-8.82953e-06
-8.43728e-06
-8.04851e-06
-7.66436e-06
-7.28591e-06
-6.9141e-06
-6.5498e-06
-6.19379e-06
-5.84674e-06
-5.50925e-06
-5.18182e-06
-4.86489e-06
-4.55882e-06
-4.26388e-06
-3.98029e-06
-3.70819e-06
-3.44768e-06
-3.19878e-06
-2.96148e-06
-2.7357e-06
-2.52134e-06
-2.31822e-06
-2.12616e-06
-1.94494e-06
-1.77428e-06
-1.6139e-06
-1.46349e-06
-1.32273e-06
-1.19127e-06
-1.06875e-06
-9.54805e-07
-8.49024e-07
-7.51118e-07
-6.60461e-07
-5.77184e-07
-4.99766e-07
-4.30183e-07
-3.63237e-07
-3.08119e-07
-2.45922e-07
-2.11234e-07
-1.3952e-07
-1.44992e-07
-2.86816e-08
-1.24358e-07
1.12722e-07
-1.75344e-07
3.18278e-07
-3.2324e-07
6.0549e-07
-5.5526e-07
9.26347e-07
-7.66648e-07
1.12416e-06
-7.50052e-07
9.78996e-07
-3.14476e-07
3.98748e-07
4.78349e-07
-3.5893e-07
1.18053e-06
-7.20814e-07
1.19056e-06
-2.18553e-07
7.97532e-06
7.06465e-06
6.03615e-06
4.92023e-06
3.74196e-06
2.52294e-06
1.28247e-06
3.73723e-08
-1.198e-06
-2.41143e-06
-3.59261e-06
-4.73295e-06
-5.82538e-06
-6.86422e-06
-7.84503e-06
-8.76444e-06
-9.62004e-06
-1.04103e-05
-1.11343e-05
-1.17918e-05
-1.23832e-05
-1.2909e-05
-1.33703e-05
-1.37683e-05
-1.41048e-05
-1.43813e-05
-1.45999e-05
-1.47627e-05
-1.4872e-05
-1.49303e-05
-1.49402e-05
-1.49044e-05
-1.48258e-05
-1.47072e-05
-1.45516e-05
-1.43619e-05
-1.41412e-05
-1.38922e-05
-1.36178e-05
-1.33207e-05
-1.30035e-05
-1.26687e-05
-1.23188e-05
-1.19557e-05
-1.15822e-05
-1.12e-05
-1.08108e-05
-1.04168e-05
-1.00196e-05
-9.62095e-06
-9.22223e-06
-8.8249e-06
-8.43026e-06
-8.03953e-06
-7.65382e-06
-7.27413e-06
-6.90139e-06
-6.53642e-06
-6.17996e-06
-5.83266e-06
-5.49508e-06
-5.16771e-06
-4.85096e-06
-4.54516e-06
-4.25058e-06
-3.96741e-06
-3.69579e-06
-3.43579e-06
-3.18744e-06
-2.9507e-06
-2.7255e-06
-2.51172e-06
-2.30918e-06
-2.1177e-06
-1.93703e-06
-1.76692e-06
-1.60707e-06
-1.45718e-06
-1.31691e-06
-1.18591e-06
-1.06383e-06
-9.50312e-07
-8.44926e-07
-7.47389e-07
-6.5708e-07
-5.74123e-07
-4.9701e-07
-4.27697e-07
-3.61023e-07
-3.06113e-07
-2.44184e-07
-2.09611e-07
-1.38218e-07
-1.43638e-07
-2.78174e-08
-1.2314e-07
1.13119e-07
-1.7413e-07
3.18198e-07
-3.21979e-07
6.05048e-07
-5.54102e-07
9.25885e-07
-7.65975e-07
1.12418e-06
-7.50281e-07
9.79864e-07
-3.15694e-07
4.00422e-07
4.76489e-07
-3.56677e-07
1.17826e-06
-7.17575e-07
1.18694e-06
-2.15643e-07
9.20302e-07
5.61288e-07
5.0634e-08
-5.81585e-07
-1.30923e-06
-2.10915e-06
-2.96052e-06
-3.84496e-06
-4.74652e-06
-5.65139e-06
-6.54767e-06
-7.42522e-06
-8.27547e-06
-9.09132e-06
-9.86693e-06
-1.05977e-05
-1.12799e-05
-1.19108e-05
-1.24887e-05
-1.30122e-05
-1.34808e-05
-1.38944e-05
-1.42531e-05
-1.45578e-05
-1.48093e-05
-1.50087e-05
-1.51575e-05
-1.52572e-05
-1.53097e-05
-1.53168e-05
-1.52806e-05
-1.52035e-05
-1.50878e-05
-1.4936e-05
-1.47507e-05
-1.45344e-05
-1.42898e-05
-1.40195e-05
-1.37261e-05
-1.34121e-05
-1.30799e-05
-1.27318e-05
-1.23701e-05
-1.19966e-05
-1.1614e-05
-1.12239e-05
-1.08277e-05
-1.04277e-05
-1.00255e-05
-9.62238e-06
-9.21993e-06
-8.81948e-06
-8.42225e-06
-8.02941e-06
-7.642e-06