/*--------------------------------*- C++ -*----------------------------------*\
| =========                 |                                                 |
| \\      /  F ield         | OpenFOAM: The Open Source CFD Toolbox           |
|  \\    /   O peration     | Version:  2412                                  |
|   \\  /    A nd           | Website:  www.openfoam.com                      |
|    \\/     M anipulation  |                                                 |
\*---------------------------------------------------------------------------*/
FoamFile
{
    version     2.0;
    format      ascii;
    arch        "LSB;label=32;scalar=64";
    class       surfaceScalarField;
    location    "15";
    object      phi;
}
// * * * * * * * * * * * * * * * * * * * * * * * * * * * * * * * * * * * * * //

dimensions      [0 3 -1 0 0 0 0];

oriented        oriented;

internalField   nonuniform List<scalar> 
126304
(
0.00505063
1.28828e-07
1.83616e-11
0.00505025
3.74254e-07
6.94494e-11
0.00504966
5.96615e-07
1.37654e-10
0.00504884
8.19953e-07
1.92329e-10
0.00504772
1.1182e-06
1.24855e-10
0.00504614
1.5763e-06
-1.92733e-10
0.00504392
2.22148e-06
-7.95535e-10
0.00504094
2.98665e-06
-1.56097e-09
0.0050372
3.73572e-06
-2.24708e-09
0.00503288
4.32773e-06
-2.60326e-09
0.00502821
4.67504e-06
-2.47639e-09
0.00502344
4.76612e-06
-1.85706e-09
0.00501879
4.65241e-06
-8.59351e-10
0.00501437
4.41646e-06
3.39229e-10
0.00501023
4.14054e-06
1.56059e-09
0.00500634
3.88688e-06
2.66803e-09
0.00500265
3.69129e-06
3.58277e-09
0.00499908
3.56626e-06
4.27881e-09
0.00499556
3.50842e-06
4.76807e-09
0.00499205
3.50623e-06
5.08348e-09
0.0049885
3.54578e-06
5.2648e-09
0.00498488
3.61435e-06
5.35033e-09
0.00498117
3.70193e-06
5.37146e-09
0.00497737
3.80143e-06
5.35165e-09
0.00497345
3.90835e-06
5.3069e-09
0.00496943
4.02009e-06
5.24724e-09
0.00496529
4.13534e-06
5.17844e-09
0.00496103
4.25362e-06
5.1035e-09
0.00495665
4.37487e-06
5.02365e-09
0.00495214
4.49925e-06
4.93928e-09
0.00494751
4.62702e-06
4.85029e-09
0.00494275
4.75843e-06
4.75679e-09
0.00493785
4.89372e-06
4.65862e-09
0.00493281
5.03307e-06
4.55577e-09
0.00492763
5.17663e-06
4.44806e-09
0.0049223
5.32454e-06
4.3355e-09
0.00491682
5.47687e-06
4.21827e-09
0.00491118
5.6337e-06
4.09645e-09
0.00490539
5.79508e-06
3.97022e-09
0.00489942
5.96108e-06
3.8396e-09
0.00489329
6.13171e-06
3.7047e-09
0.00488697
6.30703e-06
3.56594e-09
0.00488048
6.48708e-06
3.42377e-09
0.00487381
6.67188e-06
3.27855e-09
0.00486694
6.86149e-06
3.13073e-09
0.00485989
7.05596e-06
2.98073e-09
0.00485263
7.25533e-06
2.82886e-09
0.00484516
7.45967e-06
2.67551e-09
0.00483749
7.66906e-06
2.52118e-09
0.00482961
7.88362e-06
2.3663e-09
0.0048215
8.10349e-06
2.2112e-09
0.00481317
8.32901e-06
2.05625e-09
0.00480461
8.56097e-06
1.90183e-09
0.0047958
8.80162e-06
1.74825e-09
9.0574e-06
0.00478675
1.59569e-09
0.00505063
2.57575e-07
0.00505025
7.48331e-07
0.00504966
1.19313e-06
0.00504884
1.63955e-06
0.00504772
2.23437e-06
0.00504615
3.14665e-06
0.00504394
4.43117e-06
0.00504097
5.95541e-06
0.00503726
7.44928e-06
0.00503295
8.63243e-06
0.0050283
9.32986e-06
0.00502355
9.51768e-06
0.0050189
9.29731e-06
0.00501449
8.83233e-06
0.00501034
8.28621e-06
0.00500645
7.78291e-06
0.00500274
7.39396e-06
0.00499917
7.14463e-06
0.00499564
7.0286e-06
0.00499213
7.02316e-06
0.00498857
7.10087e-06
0.00498495
7.23653e-06
0.00498124
7.41023e-06
0.00497744
7.60791e-06
0.00497352
7.82058e-06
0.0049695
8.04303e-06
0.00496536
8.27265e-06
0.00496111
8.50841e-06
0.00495673
8.75019e-06
0.00495223
8.9983e-06
0.00494761
9.25321e-06
0.00494285
9.51543e-06
0.00493796
9.7854e-06
0.00493293
1.00635e-05
0.00492776
1.035e-05
0.00492244
1.06452e-05
0.00491696
1.09492e-05
0.00491133
1.12621e-05
0.00490555
1.15842e-05
0.00489959
1.19154e-05
0.00489347
1.22558e-05
0.00488717
1.26056e-05
0.00488069
1.29648e-05
0.00487403
1.33335e-05
0.00486718
1.37117e-05
0.00486014
1.40995e-05
0.00485289
1.44971e-05
0.00484545
1.49046e-05
0.0048378
1.53221e-05
0.00482993
1.57498e-05
0.00482184
1.61881e-05
0.00481354
1.66375e-05
0.004805
1.70997e-05
0.00479622
1.75788e-05
1.80871e-05
0.00478719
0.00505063
3.86123e-07
0.00505026
1.12191e-06
0.00504966
1.78917e-06
0.00504884
2.45807e-06
0.00504773
3.34632e-06
0.00504617
4.70571e-06
0.00504398
6.61934e-06
0.00504104
8.89219e-06
0.00503737
1.11239e-05
0.00503311
1.28971e-05
0.00502849
1.39499e-05
0.00502376
1.42442e-05
0.00501913
1.3929e-05
0.00501471
1.32462e-05
0.00501056
1.24387e-05
0.00500665
1.16914e-05
0.00500293
1.11117e-05
0.00499934
1.07382e-05
0.00499581
1.05623e-05
0.00499228
1.0551e-05
0.00498872
1.06638e-05
0.00498509
1.08634e-05
0.00498138
1.11203e-05
0.00497757
1.14136e-05
0.00497366
1.17298e-05
0.00496965
1.20611e-05
0.00496552
1.24035e-05
0.00496127
1.27553e-05
0.0049569
1.31164e-05
0.00495241
1.34871e-05
0.0049478
1.3868e-05
0.00494305
1.42601e-05
0.00493818
1.46637e-05
0.00493316
1.50795e-05
0.004928
1.5508e-05
0.0049227
1.59493e-05
0.00491724
1.64039e-05
0.00491163
1.68718e-05
0.00490586
1.73533e-05
0.00489993
1.78485e-05
0.00489383
1.83574e-05
0.00488755
1.88802e-05
0.0048811
1.9417e-05
0.00487447
1.99679e-05
0.00486765
2.0533e-05
0.00486063
2.11124e-05
0.00485342
2.17063e-05
0.00484601
2.23148e-05
0.0048384
2.29382e-05
0.00483057
2.35767e-05
0.00482253
2.42307e-05
0.00481427
2.49012e-05
0.00480577
2.55902e-05
0.00479705
2.63037e-05
2.70588e-05
0.00478808
0.00505063
5.14378e-07
0.00505026
1.49474e-06
0.00504966
2.38448e-06
0.00504884
3.27494e-06
0.00504774
4.45211e-06
0.0050462
6.24843e-06
0.00504404
8.77639e-06
0.00504115
1.17827e-05
0.00503753
1.4742e-05
0.00503332
1.71037e-05
0.00502875
1.85192e-05
0.00502406
1.89343e-05
0.00501945
1.85412e-05
0.00501504
1.76567e-05
0.00501088
1.66007e-05
0.00500695
1.56176e-05
0.00500321
1.4851e-05
0.0049996
1.43534e-05
0.00499605
1.41153e-05
0.0049925
1.40942e-05
0.00498893
1.42376e-05
0.00498529
1.44968e-05
0.00498158
1.48328e-05
0.00497778
1.5218e-05
0.00497387
1.56345e-05
0.00496986
1.60718e-05
0.00496574
1.65245e-05
0.00496151
1.69903e-05
0.00495715
1.74688e-05
0.00495268
1.79604e-05
0.00494808
1.84659e-05
0.00494336
1.89861e-05
0.0049385
1.9522e-05
0.0049335
2.0074e-05
0.00492837
2.06429e-05
0.00492309
2.12289e-05
0.00491766
2.18323e-05
0.00491208
2.24536e-05
0.00490634
2.30927e-05
0.00490044
2.37499e-05
0.00489437
2.44253e-05
0.00488813
2.5119e-05
0.00488172
2.58312e-05
0.00487512
2.65619e-05
0.00486835
2.73113e-05
0.00486138
2.80796e-05
0.00485422
2.88668e-05
0.00484686
2.96733e-05
0.0048393
3.04992e-05
0.00483153
3.13448e-05
0.00482355
3.22107e-05
0.00481535
3.30979e-05
0.00480694
3.40089e-05
0.00479829
3.49506e-05
3.59433e-05
0.0047894
0.00505063
6.42247e-07
0.00505026
1.86657e-06
0.00504966
2.97875e-06
0.00504885
4.08964e-06
0.00504775
5.54999e-06
0.00504623
7.7704e-06
0.00504411
1.0894e-05
0.00504128
1.46146e-05
0.00503773
1.82885e-05
0.0050336
2.12365e-05
0.00502909
2.30241e-05
0.00502445
2.35776e-05
0.00501986
2.3128e-05
0.00501546
2.20623e-05
0.00501129
2.07738e-05
0.00500734
1.95655e-05
0.00500357
1.86168e-05
0.00499993
1.79954e-05
0.00499635
1.76921e-05
0.00499279
1.76564e-05
0.0049892
1.78248e-05
0.00498556
1.81378e-05
0.00498185
1.85475e-05
0.00497805
1.90198e-05
0.00497415
1.95324e-05
0.00497015
2.00722e-05
0.00496604
2.06322e-05
0.00496182
2.12093e-05
0.00495749
2.18028e-05
0.00495304
2.24131e-05
0.00494846
2.3041e-05
0.00494376
2.36876e-05
0.00493893
2.43536e-05
0.00493396
2.50399e-05
0.00492886
2.57471e-05
0.00492361
2.64757e-05
0.00491822
2.7226e-05
0.00491267
2.79982e-05
0.00490697
2.87926e-05
0.00490111
2.96093e-05
0.00489509
3.04485e-05
0.0048889
3.13103e-05
0.00488253
3.21949e-05
0.00487599
3.31022e-05
0.00486927
3.40326e-05
0.00486237
3.49861e-05
0.00485527
3.59629e-05
0.00484798
3.69632e-05
0.00484049
3.79872e-05
0.0048328
3.90353e-05
0.0048249
4.01081e-05
0.0048168
4.12064e-05
0.00480847
4.23329e-05
0.00479993
4.34947e-05
4.47129e-05
0.00479116
0.00505063
7.69648e-07
0.00505026
2.23712e-06
0.00504967
3.57169e-06
0.00504885
4.90162e-06
0.00504777
6.63849e-06
0.00504627
9.26801e-06
0.0050442
1.29654e-05
0.00504143
1.73779e-05
0.00503797
2.17511e-05
0.00503392
2.52825e-05
0.0050295
2.74526e-05
0.00502491
2.81651e-05
0.00502035
2.76839e-05
0.00501595
2.64608e-05
0.00501177
2.49588e-05
0.0050078
2.35376e-05
0.005004
2.24125e-05
0.00500033
2.16677e-05
0.00499673
2.12958e-05
0.00499314
2.12399e-05
0.00498954
2.14267e-05
0.00498589
2.17867e-05
0.00498217
2.22638e-05
0.00497838
2.28176e-05
0.00497449
2.34215e-05
0.0049705
2.40595e-05
0.00496641
2.4723e-05
0.00496221
2.54081e-05
0.0049579
2.61138e-05
0.00495347
2.68401e-05
0.00494893
2.75879e-05
0.00494426
2.83582e-05
0.00493946
2.91521e-05
0.00493453
2.99703e-05
0.00492946
3.08133e-05
0.00492425
3.16819e-05
0.0049189
3.25762e-05
0.00491341
3.34967e-05
0.00490775
3.44434e-05
0.00490195
3.54165e-05
0.00489598
3.64163e-05
0.00488985
3.74427e-05
0.00488355
3.84959e-05
0.00487707
3.95761e-05
0.00487042
4.06832e-05
0.00486359
4.18175e-05
0.00485657
4.29792e-05
0.00484937
4.41683e-05
0.00484197
4.53852e-05
0.00483438
4.663e-05
0.00482658
4.79033e-05
0.00481858
4.92059e-05
0.00481037
5.05402e-05
0.00480196
5.19123e-05
5.33412e-05
0.00479333
0.00505063
8.96454e-07
0.00505026
2.60619e-06
0.00504967
4.16293e-06
0.00504886
5.71033e-06
0.00504778
7.71637e-06
0.00504631
1.07386e-05
0.00504429
1.49858e-05
0.00504161
2.00652e-05
0.00503824
2.51206e-05
0.00503429
2.9232e-05
0.00502994
3.17959e-05
0.00502542
3.26895e-05
0.0050209
3.22041e-05
0.00501651
3.08497e-05
0.00501231
2.91552e-05
0.00500832
2.75348e-05
0.00500449
2.62397e-05
0.00500078
2.5372e-05
0.00499715
2.49278e-05
0.00499355
2.48456e-05
0.00498993
2.50434e-05
0.00498627
2.5443e-05
0.00498256
2.59805e-05
0.00497876
2.66095e-05
0.00497489
2.7299e-05
0.00497092
2.80303e-05
0.00496685
2.87931e-05
0.00496267
2.95826e-05
0.00495839
3.03969e-05
0.00495399
3.12361e-05
0.00494948
3.21009e-05
0.00494485
3.29922e-05
0.00494009
3.3911e-05
0.0049352
3.48581e-05
0.00493018
3.58341e-05
0.00492502
3.68396e-05
0.00491972
3.78749e-05
0.00491428
3.89402e-05
0.00490869
4.00358e-05
0.00490294
4.11617e-05
0.00489704
4.23181e-05
0.00489098
4.3505e-05
0.00488475
4.47226e-05
0.00487836
4.59708e-05
0.00487179
4.72499e-05
0.00486505
4.85599e-05
0.00485812
4.99008e-05
0.00485102
5.12729e-05
0.00484373
5.26763e-05
0.00483625
5.41112e-05
0.00482857
5.55779e-05
0.0048207
5.70771e-05
0.00481263
5.86102e-05
0.00480436
6.01811e-05
0.0047959
6.18007e-05
0.00478771
-9.68451e-07
1.45096e-09
0.00478817
-4.54465e-07
1.32032e-09
0.00478807
9.82264e-08
1.16913e-09
0.00478738
6.80935e-07
1.04327e-09
0.00478607
1.30843e-06
8.97755e-10
0.00478409
1.98001e-06
7.42146e-10
0.00478139
2.69979e-06
5.79682e-10
0.00477792
3.47209e-06
4.10542e-10
0.00477362
4.30161e-06
2.35292e-10
0.00476843
5.19348e-06
5.47324e-11
0.00476227
6.15334e-06
-1.30191e-10
0.00475509
7.18737e-06
-3.17764e-10
0.00474678
8.30236e-06
-5.06364e-10
0.00473728
9.50585e-06
-6.94702e-10
0.00472647
1.08063e-05
-8.80598e-10
0.00471426
1.22132e-05
-1.06897e-09
0.00470052
1.37376e-05
-1.25337e-09
0.00468513
1.53927e-05
-1.42273e-09
0.00466794
1.71935e-05
-1.57197e-09
0.00464879
1.91576e-05
-1.70137e-09
0.00462748
2.1306e-05
-1.8166e-09
0.00460382
2.36636e-05
-1.9181e-09
0.00457756
2.62599e-05
-2.00186e-09
0.00454843
2.91299e-05
-2.06869e-09
0.00451612
3.23151e-05
-2.11968e-09
0.00448026
3.58646e-05
-2.15597e-09
0.00444042
3.98362e-05
-2.17995e-09
0.00439613
4.42986e-05
-2.19375e-09
0.0043468
4.93336e-05
-2.19913e-09
0.00429176
5.50387e-05
-2.19843e-09
0.00423023
6.15312e-05
-2.19393e-09
0.00416128
6.89527e-05
-2.18715e-09
0.00408381
7.74759e-05
-2.17911e-09
0.0039965
8.73115e-05
-2.17071e-09
0.00389778
9.87174e-05
-2.16228e-09
0.00378578
0.000112008
-2.15377e-09
0.00365822
0.000127561
-2.14512e-09
0.0035124
0.000145818
-2.13622e-09
0.00334513
0.000167274
-2.1272e-09
0.0031527
0.00019243
-2.11887e-09
0.002931
0.000221702
-2.11275e-09
0.00267576
0.000255241
-2.11141e-09
0.00238315
0.000292621
-2.11789e-09
0.00205081
0.000332342
-2.13507e-09
0.00167973
0.000371082
-2.16364e-09
0.0012771
0.00040263
-2.19499e-09
0.000860572
0.000416529
-2.19798e-09
0.0004642
0.000396375
-2.09656e-09
0.000147
0.000317201
-1.74225e-09
0.000147001
-8.93522e-10
0.00478679
-5.66521e-07
0.00478587
4.61699e-07
0.00478441
1.55676e-06
0.00478237
2.7267e-06
0.0047797
3.97863e-06
0.00477636
5.31926e-06
0.0047723
6.75627e-06
0.00476748
8.29828e-06
0.00476182
9.95471e-06
0.00475528
1.17359e-05
0.00474778
1.36531e-05
0.00473925
1.57187e-05
0.00472961
1.79463e-05
0.00471876
2.0351e-05
0.00470662
2.29498e-05
0.00469307
2.57619e-05
0.004678
2.88094e-05
0.00466127
3.21186e-05
0.00464274
3.57198e-05
0.00462225
3.96485e-05
0.00459961
4.39465e-05
0.00457461
4.86638e-05
0.00454701
5.38598e-05
0.00451654
5.96044e-05
0.00448287
6.59807e-05
0.00444565
7.30868e-05
0.00440445
8.10386e-05
0.00435877
8.99733e-05
0.00430805
0.000100054
0.00425162
0.000111476
0.00418868
0.000124471
0.00411831
0.000139323
0.00403941
0.000156375
0.00395067
0.000176044
0.00385055
0.00019884
0.00373717
0.000225385
0.00360831
0.000256421
0.00346132
0.000292815
0.00329306
0.00033553
0.00309996
0.000385534
0.00287805
0.00044361
0.00262329
0.000510002
0.00233212
0.00058379
0.00200254
0.000661918
0.0016359
0.000737722
0.00123969
0.000798843
0.000831699
0.000824517
0.000445654
0.00078242
0.000138442
0.000624412
0.000285443
0.00478496
2.55496e-06
0.00478133
4.09041e-06
0.00477716
5.72855e-06
0.0047724
7.47886e-06
0.00476703
9.3511e-06
0.00476099
1.1356e-05
0.00475425
1.35053e-05
0.00474673
1.5812e-05
0.0047384
1.82904e-05
0.00472918
2.09558e-05
0.004719
2.38254e-05
0.00470781
2.69177e-05
0.0046955
3.02532e-05
0.00468199
3.38548e-05
0.0046672
3.77479e-05
0.004651
4.19615e-05
0.00463328
4.65292e-05
0.00461391
5.14904e-05
0.00459273
5.6891e-05
0.0045696
6.27843e-05
0.00454431
6.92337e-05
0.00451666
7.63145e-05
0.0044864
8.41157e-05
0.00445327
9.27428e-05
0.00441693
0.000102321
0.00437702
0.000112996
0.00433311
0.000124944
0.00428472
0.000138369
0.00423126
0.000153515
0.00417206
0.000170673
0.00410634
0.000190191
0.00403317
0.00021249
0.00395147
0.000238077
0.00385994
0.000267571
0.00375706
0.000301724
0.003641
0.000341446
0.0035096
0.000387819
0.00336031
0.000442099
0.00319018
0.000505663
0.00299584
0.00057987
0.00277368
0.000665778
0.00252008
0.000763599
0.00223208
0.000871794
0.00190835
0.000985644
0.00155094
0.00109514
0.00116781
0.00118197
0.000776828
0.0012155
0.000411236
0.00114801
0.000125311
0.000910337
0.000410755
0.00478225
9.71082e-06
0.00477459
1.17481e-05
0.0047664
1.39222e-05
0.00475763
1.6245e-05
0.00474825
1.87299e-05
0.00473822
2.13913e-05
0.00472748
2.42449e-05
0.00471598
2.73083e-05
0.00470367
3.06004e-05
0.00469048
3.4142e-05
0.00467635
3.79559e-05
0.0046612
4.20668e-05
0.00464496
4.65024e-05
0.00462752
5.12932e-05
0.00460879
5.64734e-05
0.00458867
6.20819e-05
0.00456704
6.81639e-05
0.00454375
7.47725e-05
0.00451868
8.1969e-05
0.00449164
8.98253e-05
0.00446244
9.84264e-05
0.00443088
0.000107873
0.00439671
0.000118285
0.00435965
0.000129803
0.00431938
0.000142594
0.00427552
0.000156855
0.00422765
0.000172816
0.00417527
0.000190753
0.00411779
0.000210988
0.00405456
0.000233907
0.00398478
0.000259971
0.00390754
0.000289733
0.00382175
0.000323859
0.00372617
0.000363158
0.00361928
0.000408606
0.00349935
0.000461376
0.00336432
0.000522851
0.00321181
0.000594616
0.00303909
0.000678378
0.00284319
0.000775773
0.00262099
0.000887977
0.0023696
0.00101499
0.00208692
0.00115446
0.00177269
0.00129988
0.0014299
0.00143792
0.00106709
0.00154478
0.000701665
0.00158093
0.000365019
0.00148466
0.000106639
0.00116872
0.000517394
0.0047787
2.21652e-05
0.00476576
2.46942e-05
0.00475229
2.73932e-05
0.00473825
3.02774e-05
0.00472362
3.33635e-05
0.00470834
3.66698e-05
0.00469237
4.02163e-05
0.00467565
4.40247e-05
0.00465814
4.8119e-05
0.00463975
5.2525e-05
0.00462044
5.72712e-05
0.00460011
6.23891e-05
0.0045787
6.7913e-05
0.00455612
7.38814e-05
0.00453225
8.03374e-05
0.004507
8.73301e-05
0.00448025
9.49164e-05
0.00445186
0.000103163
0.00442168
0.000112148
0.00438954
0.000121962
0.00435526
0.000132711
0.00431861
0.000144523
0.00427935
0.000157548
0.00423719
0.000171963
0.0041918
0.000187977
0.00414282
0.000205836
0.00408981
0.000225829
0.00403227
0.000248297
0.00396961
0.000273644
0.00390117
0.000302347
0.00382616
0.000334976
0.00374369
0.00037221
0.00365268
0.000414867
0.00355191
0.000463928
0.00343995
0.000520569
0.00331514
0.000586188
0.00317557
0.000662413
0.00301912
0.000751072
0.00284341
0.000854083
0.00264599
0.000973191
0.0024245
0.00110947
0.00217703
0.00126246
0.00190275
0.00142874
0.00160281
0.00159982
0.00128151
0.00175923
0.000947915
0.00187837
0.000618134
0.00191071
0.000318616
0.00178418
8.82551e-05
0.00139908
0.000605649
0.00477438
4.11122e-05
0.00475496
4.41163e-05
0.00473503
4.73242e-05
0.00471455
5.0754e-05
0.00469349
5.4426e-05
0.0046718
5.83619e-05
0.00464943
6.25859e-05
0.00462633
6.71239e-05
0.00460244
7.20046e-05
0.00457771
7.72592e-05
0.00455206
8.2922e-05
0.00452542
8.90305e-05
0.0044977
9.56264e-05
0.00446883
0.000102756
0.00443869
0.000110472
0.00440719
0.000118833
0.0043742
0.000127909
0.00433958
0.00013778
0.00430319
0.000148541
0.00426485
0.000160302
0.00422437
0.000173191
0.00418153
0.000187364
0.00413608
0.000203
0.00408772
0.000220315
0.00403614
0.000239559
0.00398095
0.000261028
0.00392171
0.00028507
0.00385791
0.000312093
0.00378898
0.000342577
0.00371424
0.000377091
0.0036329
0.000416308
0.00354409
0.00046103
0.00344674
0.000512209
0.00333969
0.00057098
0.00322157
0.000638686
0.00309086
0.000716897
0.00294588
0.000807399
0.00278481
0.000912137
0.00260584
0.00103305
0.00240729
0.00117174
0.00218792
0.00132885
0.00194735
0.00150303
0.00168668
0.0016894
0.00140924
0.00187726
0.00112129
0.00204718
0.000832736
0.00216692
0.000557391
0.00218605
0.000311559
0.00203001
0.000107626
0.00160301
0.000713275
0.00476936
6.76522e-05
0.00474237
7.1107e-05
0.0047149
7.48021e-05
0.00468689
7.87567e-05
0.00465832
8.29939e-05
0.00462915
8.75389e-05
0.00459931
9.24194e-05
0.00456877
9.76655e-05
0.00453747
0.000103311
0.00450533
0.000109391
0.00447231
0.000115947
0.00443832
0.000123022
0.00440328
0.000130665
0.00436711
0.00013893
0.0043297
0.000147879
0.00429095
0.000157582
0.00425074
0.000168119
0.00420893
0.000179588
0.00416538
0.000192098
0.0041199
0.000205779
0.00407231
0.000220783
0.00402238
0.000237292
0.00396986
0.000255519
0.00391446
0.000275714
0.00385585
0.000298173
0.00379363
0.00032324
0.00372738
0.000351321
0.00365658
0.000382891
0.00358065
0.000418507
0.00349892
0.000458827
0.0034106
0.000504623
0.00331482
0.000556812
0.00321056
0.00061647
0.00309667
0.000684867
0.00297188
0.00076348
0.00283478
0.000853994
0.00268392
0.000958265
0.00251784
0.00107821
0.00233531
0.00121558
0.00213557
0.00137149
0.00191873
0.00154569
0.00168638
0.00173538
0.00144225
0.00193353
0.00119294
0.00212657
0.000948442
0.00229169
0.000721688
0.00239367
0.000525983
0.00238176
0.000365922
0.00219007
0.000221552
0.00174738
0.000934827
-3.08571e-05
3.08574e-05
-2.80296e-10
-8.48342e-05
5.39775e-05
-3.85589e-10
-0.00013852
5.36856e-05
-1.84619e-10
-0.000178307
3.97871e-05
1.55773e-10
-0.000196744
1.84366e-05
5.7349e-10
-0.000190258
-6.48722e-06
1.01545e-09
-0.000158342
-3.19175e-05
1.51157e-09
-0.000101289
-5.70553e-05
2.04045e-09
-2.05199e-05
-8.07713e-05
2.60223e-09
8.19215e-05
-0.000102445
3.19316e-09
0.000203659
-0.000121741
3.79198e-09
0.00034215
-0.000138496
4.36288e-09
0.000494787
-0.000152641
4.86209e-09
0.000658978
-0.000164197
5.2466e-09
0.000832214
-0.000173241
5.47598e-09
0.0010121
-0.000179896
5.52258e-09
0.00119641
-0.000184316
5.37325e-09
0.00138309
-0.000186676
5.03775e-09
0.00157025
-0.000187167
4.53897e-09
0.00175623
-0.000185985
3.92433e-09
0.00193956
-0.000183332
3.36012e-09
0.00211896
-0.000179405
2.84199e-09
0.00229336
-0.000174399
2.7626e-09
0.00246185
-0.000168499
3.33886e-09
0.00262373
-0.000161878
4.2487e-09
0.00277842
-0.0001547
5.26728e-09
0.00292553
-0.000147115
6.07752e-09
0.00306478
-0.000139258
6.56736e-09
0.00319602
-0.00013125
6.76864e-09
0.00331922
-0.000123199
6.69538e-09
0.00343441
-0.000115199
6.37686e-09
0.00354173
-0.000107328
5.85374e-09
0.00364138
-9.96554e-05
5.1744e-09
0.00373361
-9.2235e-05
4.39006e-09
0.00381872
-8.51108e-05
3.55078e-09
0.00389703
-7.83158e-05
2.70676e-09
0.0039689
-7.18737e-05
1.90383e-09
0.0040347
-6.57995e-05
1.18088e-09
0.0040948
-6.01009e-05
5.68767e-10
0.00414958
-5.47789e-05
8.80695e-11
0.00419941
-4.98289e-05
-2.49899e-10
0.00424465
-4.5242e-05
-4.43891e-10
0.00428566
-4.10052e-05
-5.00823e-10
0.00432276
-3.7103e-05
-4.3279e-10
0.00435628
-3.35176e-05
-2.56598e-10
0.00438651
-3.02297e-05
9.9868e-12
0.00441373
-2.72196e-05
3.4727e-10
0.0044382
-2.44666e-05
7.37776e-10
0.00446014
-2.19505e-05
1.16546e-09
-1.96508e-05
0.00447979
1.61765e-09
-2.70731e-05
5.79305e-05
-7.38252e-05
0.00010073
-0.000119472
9.93321e-05
-0.000151994
7.23091e-05
-0.0001645
3.09427e-05
-0.000153884
-1.71031e-05
-0.000119314
-6.64871e-05
-6.10637e-05
-0.000115306
1.96781e-05
-0.000161513
0.00012102
-0.000203786
0.000240848
-0.000241569
0.000376814
-0.000274462
0.000526482
-0.000302309
0.000687413
-0.000325127
0.000857222
-0.000343051
0.00103363
-0.000356303
0.00121448
-0.000365171
0.0013978
-0.000369989
0.00158175
-0.00037112
0.00176471
-0.000368946
0.00194523
-0.000363856
0.00212207
-0.000356239
0.00229414
-0.000346473
0.00246056
-0.000334921
0.00262062
-0.000321929
0.00277373
-0.000307817
0.0029195
-0.000292884
0.00305764
-0.000277397
0.00318799
-0.000261598
0.00331049
-0.0002457
0.00342518
-0.000229891
0.00353218
-0.000214329
0.00363167
-0.000199149
0.0037239
-0.00018446
0.00380914
-0.000170352
0.00388772
-0.00015689
0.00395996
-0.000144122
0.00402624
-0.000132079
0.00408692
-0.000120777
0.00414236
-0.000110218
0.00419292
-0.000100395
0.00423897
-9.12893e-05
0.00428084
-8.28767e-05
0.00431887
-7.51263e-05
0.00435335
-6.80035e-05
0.00438459
-6.14705e-05
0.00441286
-5.54878e-05
0.00443841
-5.00153e-05
0.00446147
-4.50121e-05
-4.04376e-05
0.00448226
-2.02479e-05
7.81784e-05
-5.26165e-05
0.000133098
-8.29866e-05
0.000129702
-0.000101765
9.10877e-05
-0.00010311
3.2288e-05
-8.4826e-05
-3.53876e-05
-4.54109e-05
-0.000105902
1.4803e-05
-0.00017552
9.4927e-05
-0.000241637
0.000193808
-0.000302668
0.000309669
-0.00035743
0.000440528
-0.00040532
0.000584285
-0.000446067
0.000738792
-0.000479635
0.000901911
-0.00050617
0.00107156
-0.000525952
0.00124576
-0.000539365
0.00142263
-0.000546864
0.00160047
-0.000548957
0.0017777
-0.000546182
0.00195294
-0.000539096
0.00212496
-0.000528257
0.00229271
-0.000514216
0.00245529
-0.000497503
0.00261198
-0.000478625
0.00276222
-0.000458053
0.00290556
-0.000436228
0.00304172
-0.000413548
0.00317049
-0.00039037
0.0032918
-0.000367015
0.00340567
-0.000343759
0.00351218
-0.000320842
0.0036115
-0.000298466
0.00370384
-0.000276796
0.00378945
-0.000255966
0.00386864
-0.000236076
0.00394171
-0.0002172
0.00400902
-0.000199385
0.0040709
-0.000182657
0.0041277
-0.000167022
0.00417978
-0.000152469
0.00422746
-0.000138974
0.00427109
-0.000126501
0.00431097
-0.000115005
0.0043474
-0.000104436
0.00438067
-9.47398e-05
0.00441104
-8.58573e-05
0.00443875
-7.77296e-05
0.00446404
-7.02965e-05
-6.34959e-05
0.00448709
-7.83822e-06
8.60166e-05
-2.14046e-05
0.000146665
-3.07639e-05
0.000139061
-3.07115e-05
9.10353e-05
-1.69118e-05
1.84882e-05
1.11813e-05
-6.34806e-05
5.56176e-05
-0.000150338
0.000117283
-0.000237185
0.00019589
-0.000320244
0.000290557
-0.000397335
0.000400147
-0.000467019
0.000523238
-0.000528412
0.000658215
-0.000581043
0.000803337
-0.000624757
0.000956808
-0.00065964
0.00111682
-0.000685966
0.00128161
-0.000704156
0.00144948
-0.000714737
0.00161884
-0.000718316
0.00178822
-0.000715554
0.00195626
-0.000707143
0.00212179
-0.000693784
0.00228376
-0.000676182
0.00244127
-0.000655018
0.00259359
-0.000630948
0.00274013
-0.00060459
0.00288042
-0.000576516
0.00301412
-0.000547251
0.00314102
-0.000517269
0.003261
-0.000486991
0.00337403
-0.000456787
0.00348016
-0.000426977
0.00357953
-0.00039783
0.0036723
-0.00036957
0.00375871
-0.000342375
0.00383901
-0.000316382
0.00391351
-0.000291694
0.0039825
-0.000268375
0.0040463
-0.000246464
0.00410525
-0.00022597
0.00415967
-0.000206884
0.00420987
-0.000189175
0.00425617
-0.000172799
0.00429886
-0.0001577
0.00433824
-0.000143812
0.00437456
-0.000131065
0.00440809
-0.000119384
0.00443905
-0.000108691
0.00446766
-9.89082e-05
-8.9951e-05
0.00449412
7.567e-06
7.84496e-05
1.78675e-05
0.000136364
3.37009e-05
0.000123228
5.56224e-05
6.91138e-05
8.5117e-05
-1.10063e-05
0.000123741
-0.000102104
0.000173852
-0.00020045
0.000236178
-0.000299512
0.000311359
-0.000395424
0.000399484
-0.00048546
0.000500197
-0.000567732
0.000612771
-0.000640986
0.000736187
-0.000704459
0.000869207
-0.000757777
0.00101044
-0.000800875
0.00115841
-0.000833939
0.00131161
-0.000857353
0.00146853
-0.000871653
0.0016277
-0.000877491
0.00178775
-0.000875602
0.00194738
-0.000866775
0.00210543
-0.00085183
0.00226084
-0.000831594
0.00241271
-0.000806888
0.00256027
-0.000778505
0.00270287
-0.000747196
0.00284002
-0.000713664
0.00297133
-0.000678558
0.00309652
-0.000642462
0.00321543
-0.000605903
0.00332799
-0.000569343
0.0034342
-0.000533184
0.00353413
-0.000497765
0.00362793
-0.00046337
0.00371578
-0.000430226
0.00379791
-0.000398511
0.00387457
-0.000368353
0.00394604
-0.000339842
0.0040126
-0.000313029
0.00407457
-0.000287932
0.00413222
-0.000264543
0.00418588
-0.000242827
0.00423581
-0.000222735
0.00428231
-0.000204199
0.00432564
-0.000187143
0.00436606
-0.00017148
0.0044038
-0.000157122
0.00443908
-0.000143974
0.00447211
-0.000131939
-0.000120912
0.00450307
2.48055e-05
5.36441e-05
6.39358e-05
9.72338e-05
0.000108269
7.88952e-05
0.000154335
2.3047e-05
0.000199123
-5.57937e-05
0.000247533
-0.000150515
0.000300877
-0.000253793
0.00036121
-0.000359845
0.000430148
-0.000464363
0.00050877
-0.000564082
0.000597628
-0.00065659
0.000696791
-0.00074015
0.000805919
-0.000813587
0.000924335
-0.000876192
0.0010511
-0.000927641
0.00118509
-0.000967932
0.00132506
-0.000997321
0.00146969
-0.00101628
0.00161764
-0.00102544
0.00176759
-0.00102556
0.00191829
-0.00101748
0.00206857
-0.00100211
0.00221735
-0.000980373
0.00236367
-0.000953213
0.00250671
-0.000921544
0.00264577
-0.000886251
0.00278027
-0.000848162
0.00290975
-0.000808044
0.00303389
-0.000766601
0.00315245
-0.000724462
0.0032653
-0.000682188
0.00337238
-0.000640264
0.00347372
-0.000599105
0.0035694
-0.000559058
0.00365958
-0.000520404
0.00374443
-0.000483362
0.00382417
-0.000448095
0.00389905
-0.000414718
0.00396932
-0.000383299
0.00403526
-0.000353866
0.00409713
-0.000326415
0.00415521
-0.000300913
0.00420978
-0.000277302
0.00426109
-0.00025551
0.0043094
-0.000235447
0.00435493
-0.000217017
0.00439793
-0.000200115
0.00443858
-0.000184632
0.0044771
-0.000170456
-0.000157463
0.00451365
4.68195e-05
6.8246e-06
0.000119462
2.45909e-05
0.000193914
4.44353e-06
0.000257923
-4.09622e-05
0.000315798
-0.000113668
0.000369629
-0.000204346
0.000422304
-0.000306468
0.000476951
-0.000414492
0.000536282
-0.000523694
0.000602413
-0.000630213
0.000676817
-0.000730993
0.000760359
-0.000823692
0.000853364
-0.000906592
0.000955699
-0.000978528
0.00106686
-0.0010388
0.00118605
-0.00108712
0.00131225
-0.00112352
0.00144431
-0.00114834
0.00158099
-0.00116212
0.00172101
-0.00116558
0.00186313
-0.0011596
0.00200614
-0.00114512
0.00214891
-0.00112315
0.00229042
-0.00109472
0.00242977
-0.00106089
0.00256616
-0.00102264
0.00269894
-0.000980941
0.00282757
-0.00093668
0.00295165
-0.000890677
0.00307086
-0.000843675
0.00318501
-0.000796333
0.00329397
-0.000749229
0.00339772
-0.000702859
0.0034963
-0.000657638
0.0035898
-0.000613905
0.00367837
-0.000571927
0.00376218
-0.000531906
0.00384145
-0.000493985
0.0039164
-0.000458251
0.00398728
-0.000424748
0.00405434
-0.000393478
0.00411784
-0.000364409
0.00417802
-0.000337482
0.00423513
-0.000312616
0.00428939
-0.000289715
0.00434105
-0.00026867
0.00439029
-0.000249364
0.00443734
-0.000231675
0.00448236
-0.000215478
0.00452553
-0.000200638
0.00450721
-2.74138e-05
2.09699e-09
0.00453324
-2.60372e-05
2.62413e-09
0.00455798
-2.47389e-05
3.1591e-09
0.00458149
-2.35181e-05
3.68151e-09
0.00460386
-2.23717e-05
4.17774e-09
0.00462515
-2.12963e-05
4.64114e-09
0.00464543
-2.0288e-05
5.0707e-09
0.00466477
-1.93433e-05
5.46945e-09
0.00468322
-1.84584e-05
5.84258e-09
0.00470085
-1.76292e-05
6.19652e-09
0.00471769
-1.68518e-05
6.53816e-09
0.00473381
-1.61219e-05
6.87438e-09
0.00474923
-1.54348e-05
7.21113e-09
0.00476401
-1.47849e-05
7.55254e-09
0.00477817
-1.41663e-05
7.90051e-09
0.00479173
-1.3572e-05
8.25363e-09
0.00480472
-1.29948e-05
8.60647e-09
0.00481714
-1.24271e-05
8.94956e-09
0.00482899
-1.18621e-05
9.26985e-09
0.00484028
-1.12946e-05
9.55144e-09
0.00485099
-1.07218e-05
9.77685e-09
0.00486112
-1.01445e-05
9.92875e-09
0.00487068
-9.56706e-06
9.99203e-09
0.00487967
-8.99761e-06
9.95513e-09
0.0048881
-8.44685e-06
9.81154e-09
0.00489602
-7.92649e-06
9.56126e-09
0.00490346
-7.44728e-06
9.21044e-09
0.00491047
-7.01712e-06
8.77086e-09
0.0049171
-6.63976e-06
8.25827e-09
0.00492341
-6.31435e-06
7.69079e-09
0.00492943
-6.03584e-06
7.08699e-09
0.00493522
-5.79622e-06
6.46462e-09
0.0049408
-5.5861e-06
5.83857e-09
0.0049462
-5.39622e-06
5.22036e-09
0.00495141
-5.21863e-06
4.61868e-09
0.00495645
-5.04734e-06
4.03954e-09
0.00496133
-4.87846e-06
3.48615e-09
0.00496603
-4.70994e-06
2.95965e-09
0.00497057
-4.54112e-06
2.46043e-09
0.00497494
-4.37222e-06
1.98893e-09
0.00497915
-4.20395e-06
1.54571e-09
0.00498318
-4.03716e-06
1.13244e-09
0.00498705
-3.87267e-06
7.50809e-10
0.00499076
-3.71122e-06
4.031e-10
0.00499432
-3.55311e-06
1.02483e-10
0.00499772
-3.39907e-06
-1.79286e-10
0.00500097
-3.24929e-06
-4.43032e-10
0.00500407
-3.10382e-06
-6.87139e-10
0.00500703
-2.96271e-06
-9.16729e-10
0.00500986
-2.82599e-06
-1.14042e-09
0.00501256
-2.69365e-06
-1.36687e-09
0.00501512
-2.56562e-06
-1.60421e-09
0.00501757
-2.44185e-06
-1.85907e-09
0.00501989
-2.32225e-06
-2.1368e-09
0.0050221
-2.20672e-06
-2.4379e-09
0.0050242
-2.09518e-06
-2.75786e-09
0.00502619
-1.98755e-06
-3.08498e-09
0.00502808
-1.88376e-06
-3.40357e-09
0.00502986
-1.78373e-06
-3.6951e-09