/*--------------------------------*- C++ -*----------------------------------*\
| =========                 |                                                 |
| \\      /  F ield         | OpenFOAM: The Open Source CFD Toolbox           |
|  \\    /   O peration     | Version:  2412                                  |
|   \\  /    A nd           | Website:  www.openfoam.com                      |
|    \\/     M anipulation  |                                                 |
\*---------------------------------------------------------------------------*/
FoamFile
{
    version     2.0;
    format      ascii;
    arch        "LSB;label=32;scalar=64";
    class       volVectorField;
    location    "15";
    object      U;
}
// * * * * * * * * * * * * * * * * * * * * * * * * * * * * * * * * * * * * * //

dimensions      [0 1 -1 0 0 0 0];

internalField   nonuniform List<vector> 
63420
(
(0.0999997 4.36011e-07 0)
(0.099995 1.29191e-06 0)
(0.0999852 2.10044e-06 0)
(0.0999713 2.94463e-06 0)
(0.0999528 4.09779e-06 0)
(0.0999271 5.89602e-06 0)
(0.0998905 8.48016e-06 0)
(0.0998393 1.16325e-05 0)
(0.0997724 1.48414e-05 0)
(0.0996916 1.75345e-05 0)
(0.0996013 1.93144e-05 0)
(0.0995067 2.00758e-05 0)
(0.0994126 1.99783e-05 0)
(0.0993224 1.93332e-05 0)
(0.0992377 1.84771e-05 0)
(0.0991584 1.76829e-05 0)
(0.0990836 1.7122e-05 0)
(0.099012 1.68685e-05 0)
(0.0989422 1.69249e-05 0)
(0.0988729 1.72525e-05 0)
(0.0988032 1.77974e-05 0)
(0.0987323 1.85065e-05 0)
(0.0986598 1.93365e-05 0)
(0.0985855 2.02558e-05 0)
(0.0985091 2.12445e-05 0)
(0.0984305 2.22912e-05 0)
(0.0983497 2.3391e-05 0)
(0.0982666 2.45432e-05 0)
(0.0981811 2.57495e-05 0)
(0.0980932 2.70131e-05 0)
(0.0980028 2.83376e-05 0)
(0.0979098 2.9727e-05 0)
(0.0978142 3.11853e-05 0)
(0.0977159 3.27166e-05 0)
(0.0976147 3.43246e-05 0)
(0.0975107 3.60133e-05 0)
(0.0974038 3.77863e-05 0)
(0.0972937 3.96477e-05 0)
(0.0971805 4.16011e-05 0)
(0.0970641 4.36507e-05 0)
(0.0969444 4.58003e-05 0)
(0.0968212 4.80543e-05 0)
(0.0966945 5.04169e-05 0)
(0.0965642 5.28926e-05 0)
(0.0964302 5.54861e-05 0)
(0.0962924 5.82024e-05 0)
(0.0961508 6.10465e-05 0)
(0.0960051 6.40239e-05 0)
(0.0958553 6.71404e-05 0)
(0.0957013 7.04021e-05 0)
(0.0955431 7.3816e-05 0)
(0.0953804 7.73911e-05 0)
(0.0952132 8.1141e-05 0)
(0.0950414 8.5095e-05 0)
(0.0948647 8.93258e-05 0)
(0.0999997 1.30794e-06 0)
(0.099995 3.87583e-06 0)
(0.0999852 6.30243e-06 0)
(0.0999714 8.8347e-06 0)
(0.0999528 1.22873e-05 0)
(0.0999272 1.76635e-05 0)
(0.0998908 2.5386e-05 0)
(0.0998399 3.48089e-05 0)
(0.0997733 4.4409e-05 0)
(0.099693 5.24779e-05 0)
(0.099603 5.78285e-05 0)
(0.0995087 6.01424e-05 0)
(0.0994148 5.98915e-05 0)
(0.0993247 5.80017e-05 0)
(0.0992399 5.54757e-05 0)
(0.0991605 5.31273e-05 0)
(0.0990856 5.14693e-05 0)
(0.0990138 5.07243e-05 0)
(0.0989439 5.09011e-05 0)
(0.0988745 5.18861e-05 0)
(0.0988046 5.35189e-05 0)
(0.0987337 5.56423e-05 0)
(0.0986612 5.81273e-05 0)
(0.0985869 6.08803e-05 0)
(0.0985105 6.38413e-05 0)
(0.098432 6.69768e-05 0)
(0.0983512 7.02721e-05 0)
(0.0982682 7.37248e-05 0)
(0.0981828 7.73401e-05 0)
(0.0980949 8.1127e-05 0)
(0.0980046 8.50968e-05 0)
(0.0979118 8.92612e-05 0)
(0.0978163 9.36321e-05 0)
(0.0977181 9.82214e-05 0)
(0.0976171 0.000103041 0)
(0.0975133 0.000108101 0)
(0.0974065 0.000113415 0)
(0.0972966 0.000118992 0)
(0.0971836 0.000124846 0)
(0.0970674 0.000130987 0)
(0.0969479 0.000137427 0)
(0.0968249 0.00014418 0)
(0.0966985 0.000151258 0)
(0.0965685 0.000158674 0)
(0.0964347 0.000166443 0)
(0.0962972 0.000174579 0)
(0.0961559 0.000183097 0)
(0.0960105 0.000192014 0)
(0.0958611 0.000201347 0)
(0.0957075 0.000211114 0)
(0.0955497 0.000221336 0)
(0.0953874 0.00023204 0)
(0.0952207 0.000243266 0)
(0.0950493 0.000255099 0)
(0.0948732 0.000267752 0)
(0.0999997 2.17886e-06 0)
(0.099995 6.45719e-06 0)
(0.0999853 1.05019e-05 0)
(0.0999714 1.47189e-05 0)
(0.0999529 2.04532e-05 0)
(0.0999274 2.93665e-05 0)
(0.0998913 4.21666e-05 0)
(0.0998409 5.77956e-05 0)
(0.0997751 7.37405e-05 0)
(0.0996955 8.71743e-05 0)
(0.0996063 9.61238e-05 0)
(0.0995126 0.000100049 0)
(0.0994192 9.97191e-05 0)
(0.0993292 9.66577e-05 0)
(0.0992443 9.25217e-05 0)
(0.0991647 8.86596e-05 0)
(0.0990895 8.59247e-05 0)
(0.0990175 8.46909e-05 0)
(0.0989472 8.49781e-05 0)
(0.0988775 8.66023e-05 0)
(0.0988075 8.93011e-05 0)
(0.0987365 9.28158e-05 0)
(0.0986639 9.69335e-05 0)
(0.0985896 0.0001015 0)
(0.0985132 0.000106415 0)
(0.0984348 0.000111623 0)
(0.0983541 0.000117098 0)
(0.0982712 0.000122838 0)
(0.098186 0.00012885 0)
(0.0980984 0.000135148 0)
(0.0980083 0.000141752 0)
(0.0979157 0.000148679 0)
(0.0978204 0.000155951 0)
(0.0977225 0.000163586 0)
(0.0976218 0.000171603 0)
(0.0975183 0.000180022 0)
(0.0974118 0.000188861 0)
(0.0973023 0.000198139 0)
(0.0971897 0.000207875 0)
(0.0970739 0.000218089 0)
(0.0969548 0.000228801 0)
(0.0968323 0.000240031 0)
(0.0967064 0.000251801 0)
(0.0965769 0.000264132 0)
(0.0964437 0.000277049 0)
(0.0963068 0.000290575 0)
(0.096166 0.000304735 0)
(0.0960214 0.000319556 0)
(0.0958727 0.000335067 0)
(0.0957198 0.000351297 0)
(0.0955628 0.000368281 0)
(0.0954014 0.000386061 0)
(0.0952356 0.000404704 0)
(0.0950652 0.000424343 0)
(0.0948901 0.000445316 0)
(0.0999997 3.04809e-06 0)
(0.099995 9.03424e-06 0)
(0.0999853 1.46972e-05 0)
(0.0999714 2.05933e-05 0)
(0.099953 2.85807e-05 0)
(0.0999277 4.09653e-05 0)
(0.099892 5.87444e-05 0)
(0.0998424 8.04749e-05 0)
(0.0997777 0.00010269 0)
(0.0996993 0.00012147 0)
(0.0996112 0.000134063 0)
(0.0995184 0.000139695 0)
(0.0994255 0.000139406 0)
(0.0993357 0.000135291 0)
(0.0992508 0.000129642 0)
(0.0991709 0.000124332 0)
(0.0990953 0.000120553 0)
(0.0990228 0.000118835 0)
(0.0989521 0.000119216 0)
(0.0988821 0.00012145 0)
(0.0988118 0.000125179 0)
(0.0987406 0.000130048 0)
(0.0986679 0.000135762 0)
(0.0985936 0.000142108 0)
(0.0985173 0.000148947 0)
(0.098439 0.0001562 0)
(0.0983585 0.000163833 0)
(0.0982758 0.000171837 0)
(0.0981908 0.000180225 0)
(0.0981035 0.000189015 0)
(0.0980137 0.000198232 0)
(0.0979215 0.000207904 0)
(0.0978266 0.000218056 0)
(0.0977291 0.000228716 0)
(0.0976289 0.00023991 0)
(0.0975258 0.000251664 0)
(0.0974198 0.000264005 0)
(0.0973109 0.000276957 0)
(0.0971988 0.000290548 0)
(0.0970836 0.000304804 0)
(0.0969652 0.000319754 0)
(0.0968434 0.000335426 0)
(0.0967182 0.000351849 0)
(0.0965894 0.000369054 0)
(0.0964571 0.000387073 0)
(0.0963211 0.000405939 0)
(0.0961813 0.000425688 0)
(0.0960376 0.000446355 0)
(0.0958899 0.000467979 0)
(0.0957382 0.000490602 0)
(0.0955824 0.000514271 0)
(0.0954223 0.000539042 0)
(0.0952578 0.000565002 0)
(0.0950889 0.000592326 0)
(0.0949154 0.000621446 0)
(0.0999997 3.91505e-06 0)
(0.0999951 1.16052e-05 0)
(0.0999853 1.88863e-05 0)
(0.0999715 2.6454e-05 0)
(0.0999531 3.66563e-05 0)
(0.0999281 5.24241e-05 0)
(0.0998929 7.50504e-05 0)
(0.0998444 0.000102742 0)
(0.0997809 0.000131126 0)
(0.0997041 0.000155227 0)
(0.0996174 0.000171523 0)
(0.0995257 0.000178987 0)
(0.0994335 0.000178899 0)
(0.0993441 0.000173889 0)
(0.099259 0.000166857 0)
(0.0991788 0.000160186 0)
(0.0991027 0.000155407 0)
(0.0990296 0.000153211 0)
(0.0989584 0.000153665 0)
(0.098888 0.000156471 0)
(0.0988174 0.000161182 0)
(0.0987459 0.000167355 0)
(0.0986732 0.000174617 0)
(0.0985989 0.000182697 0)
(0.0985227 0.000191419 0)
(0.0984445 0.000200681 0)
(0.0983643 0.000210436 0)
(0.0982819 0.000220676 0)
(0.0981972 0.00023141 0)
(0.0981103 0.000242665 0)
(0.098021 0.00025447 0)
(0.0979292 0.000266858 0)
(0.0978348 0.000279864 0)
(0.0977379 0.000293521 0)
(0.0976382 0.000307861 0)
(0.0975358 0.000322919 0)
(0.0974305 0.000338726 0)
(0.0973222 0.000355316 0)
(0.0972109 0.000372722 0)
(0.0970965 0.000390979 0)
(0.0969789 0.000410121 0)
(0.0968581 0.000430185 0)
(0.0967338 0.000451208 0)
(0.0966061 0.000473228 0)
(0.0964749 0.000496287 0)
(0.09634 0.000520425 0)
(0.0962014 0.000545687 0)
(0.096059 0.000572119 0)
(0.0959128 0.000599769 0)
(0.0957626 0.000628689 0)
(0.0956083 0.000658936 0)
(0.0954499 0.000690579 0)
(0.0952873 0.00072372 0)
(0.0951203 0.000758558 0)
(0.0949489 0.00079558 0)
(0.0999997 4.7793e-06 0)
(0.0999951 1.41684e-05 0)
(0.0999854 2.30673e-05 0)
(0.0999716 3.22973e-05 0)
(0.0999533 4.46682e-05 0)
(0.0999285 6.37128e-05 0)
(0.0998941 9.1027e-05 0)
(0.0998466 0.00012451 0)
(0.0997848 0.00015894 0)
(0.0997096 0.000188329 0)
(0.0996247 0.000208397 0)
(0.0995343 0.000217845 0)
(0.099443 0.000218149 0)
(0.0993539 0.000212435 0)
(0.0992688 0.000204177 0)
(0.0991881 0.000196254 0)
(0.0991115 0.000190528 0)
(0.0990378 0.000187863 0)
(0.098966 0.000188364 0)
(0.0988951 0.000191693 0)
(0.0988241 0.000197329 0)
(0.0987525 0.000204743 0)
(0.0986797 0.000213494 0)
(0.0986053 0.000223253 0)
(0.0985293 0.000233807 0)
(0.0984514 0.000245032 0)
(0.0983714 0.00025687 0)
(0.0982894 0.000269306 0)
(0.0982052 0.000282352 0)
(0.0981187 0.000296037 0)
(0.0980299 0.000310395 0)
(0.0979387 0.000325467 0)
(0.097845 0.000341291 0)
(0.0977487 0.000357907 0)
(0.0976498 0.000375356 0)
(0.0975481 0.000393676 0)
(0.0974436 0.000412907 0)
(0.0973363 0.000433088 0)
(0.0972259 0.00045426 0)
(0.0971125 0.000476463 0)
(0.096996 0.00049974 0)
(0.0968763 0.000524133 0)
(0.0967532 0.000549687 0)
(0.0966268 0.00057645 0)
(0.0964969 0.000604467 0)
(0.0963635 0.000633791 0)
(0.0962264 0.000664473 0)
(0.0960857 0.000696567 0)
(0.0959411 0.000730131 0)
(0.0957928 0.000765224 0)
(0.0956405 0.000801915 0)
(0.0954841 0.00084028 0)
(0.0953237 0.000880429 0)
(0.0951592 0.000922566 0)
(0.0949904 0.000967181 0)
(0.0999997 5.64007e-06 0)
(0.0999951 1.67224e-05 0)
(0.0999854 2.72378e-05 0)
(0.0999717 3.81193e-05 0)
(0.0999534 5.26066e-05 0)
(0.099929 7.4808e-05 0)
(0.0998953 0.00010663 0)
(0.0998492 0.000145711 0)
(0.099789 0.000186045 0)
(0.0997159 0.000220683 0)
(0.0996327 0.0002446 0)
(0.0995439 0.0002562 0)
(0.0994536 0.000257112 0)
(0.0993649 0.00025091 0)
(0.0992798 0.000241605 0)
(0.0991987 0.000232549 0)
(0.0991214 0.00022594 0)
(0.0990471 0.000222815 0)
(0.0989747 0.000223334 0)
(0.0989033 0.000227134 0)
(0.098832 0.000233628 0)
(0.0987601 0.000242214 0)
(0.0986872 0.000252383 0)
(0.0986129 0.000263758 0)
(0.0985371 0.000276086 0)
(0.0984594 0.000289221 0)
(0.0983798 0.000303092 0)
(0.0982982 0.000317679 0)
(0.0982146 0.000332995 0)
(0.0981287 0.000349069 0)
(0.0980405 0.000365941 0)
(0.09795 0.000383654 0)
(0.097857 0.000402254 0)
(0.0977616 0.000421787 0)
(0.0976635 0.000442297 0)
(0.0975628 0.000463831 0)
(0.0974593 0.000486434 0)
(0.097353 0.00051015 0)
(0.0972438 0.000535027 0)
(0.0971316 0.000561111 0)
(0.0970163 0.000588451 0)
(0.0968979 0.000617098 0)
(0.0967763 0.000647102 0)
(0.0966514 0.000678516 0)
(0.0965231 0.000711397 0)
(0.0963914 0.000745802 0)
(0.0962561 0.00078179 0)
(0.0961173 0.000819423 0)
(0.0959749 0.000858767 0)
(0.0958287 0.00089989 0)
(0.0956787 0.000942864 0)
(0.0955248 0.000987773 0)
(0.095367 0.00103473 0)
(0.0952053 0.0010839 0)
(0.0950395 0.0011357 0)
(0.0946821 9.40442e-05 -4.57953e-24)
(0.0944918 9.90305e-05 -4.66733e-24)
(0.0942919 0.00010434 -3.18294e-26)
(0.0940817 0.000110064 1.43363e-23)
(0.0938605 0.00011619 -4.74911e-24)
(0.0936276 0.000122746 -4.88627e-24)
(0.0933822 0.000129776 -1.5042e-23)
(0.0931234 0.000137323 1.49365e-23)
(0.0928501 0.000145434 5.10978e-24)
(0.0925614 0.000154161 0)
(0.092256 0.00016356 5.27778e-24)
(0.0919327 0.000173692 -5.36822e-24)
(0.0915901 0.000184624 4.41535e-23)
(0.0912268 0.000196431 -9.46252e-23)
(0.090841 0.000209197 5.0576e-23)
(0.0904311 0.000223017 4.09792e-23)
(0.0899949 0.000238001 5.25846e-23)
(0.0895304 0.000254278 -6.02143e-24)
(0.089035 0.000271999 6.15244e-24)
(0.0885062 0.000291338 -6.29107e-24)
(0.0879407 0.000312505 0)
(0.0873352 0.000335748 6.59362e-24)
(0.0866857 0.000361359 -6.75891e-24)
(0.0859877 0.000389689 0)
(0.085236 0.00042115 -7.12148e-24)
(0.0844246 0.000456229 0)
(0.0835467 0.000495505 -7.53299e-24)
(0.0825941 0.000539662 -1.26251e-22)
(0.0815576 0.000589514 1.34061e-22)
(0.0804262 0.000646032 -1.34602e-22)
(0.0791871 0.000710385 1.34397e-22)
(0.0778253 0.000783986 0)
(0.076323 0.000868554 0)
(0.074659 0.000966192 1.6487e-22)
(0.0728083 0.00107947 -1.55127e-22)
(0.0707406 0.00121152 0)
(0.0684197 0.00136612 0)
(0.0658022 0.00154767 0)
(0.0628366 0.00176109 0)
(0.0594622 0.00201138 0)
(0.05561 0.00230266 0)
(0.0512053 0.00263638 0)
(0.046174 0.00300819 0)
(0.0404566 0.00340304 0)
(0.0340326 0.00378769 -1.53216e-23)
(0.0269618 0.00410007 -5.26273e-22)
(0.0194287 0.00423636 5.25483e-22)
(0.0118187 0.00403734 5.71247e-22)
(0.00506679 0.00325826 -5.7039e-22)
(0.00103454 0.00151758 0)
(0.094691 0.000281857 -4.63217e-24)
(0.0945009 0.000296798 -9.44549e-24)
(0.0943012 0.000312762 -4.94866e-24)
(0.0940913 0.000329871 4.61331e-24)
(0.0938705 0.000348184 -4.81439e-24)
(0.093638 0.0003678 3.44937e-23)
(0.093393 0.000388838 -5.41719e-23)
(0.0931346 0.000411428 5.03054e-24)
(0.0928618 0.00043571 6.71309e-23)
(0.0925737 0.000461837 -9.27166e-23)
(0.092269 0.000489977 -9.05235e-23)
(0.0919464 0.000520315 7.97662e-23)
(0.0916047 0.000553051 0)
(0.0912423 0.000588412 5.56898e-24)
(0.0908576 0.000626648 -1.70181e-23)
(0.0904487 0.000668044 -1.92978e-22)
(0.0900139 0.000712931 1.85198e-22)
(0.0895508 0.000761699 -1.96871e-22)
(0.089057 0.000814797 -1.84841e-23)
(0.0885299 0.000872753 6.30487e-24)
(0.0879664 0.000936193 0)
(0.0873631 0.00100586 -6.6107e-24)
(0.0867161 0.00108263 -2.13031e-22)
(0.086021 0.00116756 4.45185e-22)
(0.0852725 0.00126188 2.45592e-22)
(0.0844649 0.00136706 -4.63196e-22)
(0.0835913 0.00148481 4.98861e-22)
(0.0826439 0.0016172 -5.06204e-22)
(0.0816135 0.00176665 -8.03414e-24)
(0.0804894 0.00193607 0)
(0.0792591 0.00212894 0)
(0.077908 0.00234949 0)
(0.076419 0.00260283 0)
(0.0747715 0.00289523 -9.55395e-24)
(0.0729413 0.00323433 -6.48204e-22)
(0.0708996 0.00362942 -2.76519e-23)
(0.0686118 0.00409167 6.74099e-22)
(0.0660366 0.00463409 7.34781e-22)
(0.063125 0.00527116 -7.33807e-22)
(0.0598198 0.00601747 -2.43914e-23)
(0.0560554 0.00688487 -2.54936e-23)
(0.0517607 0.0078771 -8.79853e-22)
(0.0468638 0.00898048 8.50864e-22)
(0.0413043 0.0101493 -2.90169e-23)
(0.035054 0.0112838 1.54287e-23)
(0.0281524 0.0121988 -1.07004e-21)
(0.0207466 0.0125849 1.06966e-21)
(0.0131576 0.0119692 -2.23304e-21)
(0.00619275 0.00963438 2.1957e-21)
(0.00149256 0.00445515 -2.24999e-21)
(0.0947088 0.000468689 -2.74053e-23)
(0.0945191 0.000493529 -9.6109e-24)
(0.0943199 0.000520081 3.70867e-23)
(0.0941106 0.000548461 -7.6269e-23)
(0.0938904 0.000578839 1.63189e-22)
(0.0936586 0.000611391 -7.73009e-23)
(0.0934145 0.000646312 1.42089e-26)
(0.093157 0.000683815 1.00335e-23)
(0.0928854 0.000724131 1.74918e-22)
(0.0925984 0.000767517 -1.64539e-22)
(0.0922951 0.000814251 0)
(0.0919741 0.000864641 1.46351e-26)
(0.0916341 0.000919022 0)
(0.0912735 0.000977771 1.91286e-22)
(0.090891 0.00104131 -1.68611e-22)
(0.0904845 0.0011101 -3.63437e-22)
(0.0900523 0.00118472 2.01564e-23)
(0.0895921 0.0012658 -3.82635e-22)
(0.0891016 0.00135409 1.23683e-23)
(0.0885781 0.00145048 -4.09756e-22)
(0.0880187 0.00155602 4.22308e-22)
(0.0874199 0.00167193 -4.30303e-22)
(0.0867781 0.00179969 4.43495e-22)
(0.0860888 0.00194103 1.3958e-23)
(0.085347 0.00209803 -1.43406e-23)
(0.0845471 0.0022731 1.47476e-23)
(0.0836825 0.00246911 -4.94027e-22)
(0.0827457 0.00268947 5.09237e-22)
(0.0817277 0.0029382 5.41946e-22)
(0.0806186 0.0032201 -5.25313e-22)
(0.0794064 0.00354096 0)
(0.0780773 0.0039077 0)
(0.0766152 0.00432877 1.84713e-23)
(0.0750012 0.00481443 1.27335e-21)
(0.0732128 0.00537719 3.09875e-23)
(0.0712238 0.00603219 -1.28196e-21)
(0.0690028 0.00679754 0)
(0.0665128 0.00769423 -2.2425e-23)
(0.0637103 0.00874537 1.56295e-21)
(0.0605443 0.00997395 -3.12115e-21)
(0.0569566 0.011398 3.31077e-21)
(0.0528829 0.0130216 1.00958e-22)
(0.0482559 0.0148198 -1.72184e-21)
(0.043013 0.0167147 -1.86632e-21)
(0.0371105 0.01854 1.9234e-21)
(0.0305464 0.0199911 1.49236e-24)
(0.0233912 0.0205604 -3.27402e-23)
(0.0158386 0.0194716 2.15659e-21)
(0.00842731 0.0155822 -2.0883e-21)
(0.00237291 0.00713893 -2.08873e-21)
(0.0947353 0.000653869 1.80581e-23)
(0.0945463 0.000688458 -9.16247e-24)
(0.0943479 0.00072539 1.95149e-26)
(0.0941394 0.000764872 9.42534e-24)
(0.0939203 0.000807132 -1.96242e-26)
(0.0936897 0.000852419 1.56535e-22)
(0.0934468 0.000901005 -2.95777e-22)
(0.0931909 0.000953187 1.58953e-22)
(0.0929209 0.00100929 -1.01746e-23)
(0.0926359 0.00106968 1.88024e-22)
(0.0923347 0.00113473 -1.67245e-22)
(0.092016 0.00120489 -3.47014e-22)
(0.0916787 0.00128061 7.00641e-22)
(0.0913211 0.00136243 -7.14385e-22)
(0.0909419 0.00145094 7.28803e-22)
(0.0905391 0.00154679 -7.32396e-22)
(0.090111 0.00165077 -3.87719e-22)
(0.0896553 0.00176379 2.26683e-26)
(0.0891699 0.0018869 0)
(0.0886521 0.00202134 -3.9903e-22)
(0.0880991 0.00216856 4.11557e-22)
(0.0875075 0.0023303 0)
(0.0868737 0.00250861 -8.88747e-22)
(0.0861936 0.00270592 8.74326e-22)
(0.0854623 0.0029251 1.44771e-23)
(0.0846746 0.00316954 -3.70914e-26)
(0.0838241 0.00344322 1.53024e-23)
(0.0829039 0.00375086 0)
(0.0819055 0.00409805 -5.2907e-26)
(0.0808198 0.00449145 0)
(0.0796358 0.00493901 -1.73798e-23)
(0.0783409 0.00545031 1.17553e-21)
(0.0769207 0.00603692 -1.17521e-21)
(0.0753583 0.00671288 -1.94465e-23)
(0.0736343 0.0074952 4.02666e-23)
(0.071726 0.00840438 -1.38887e-21)
(0.0696071 0.00946472 1.34569e-21)
(0.067247 0.0107042 2.28128e-23)
(0.0646101 0.012153 -3.59403e-25)
(0.061655 0.0138407 2.43625e-23)
(0.0583344 0.0157889 -1.67434e-21)
(0.0545941 0.0179991 3.38578e-21)
(0.0503736 0.0204321 -1.7655e-21)
(0.0456075 0.0229759 1.82805e-21)
(0.0402281 0.0253988 -1.91375e-21)
(0.0341711 0.0272849 -3.80527e-21)
(0.0273867 0.0279461 7.76331e-21)
(0.0198772 0.0263204 -3.93022e-21)
(0.0118174 0.0208795 0)
(0.00368109 0.00945386 -3.69315e-21)
(0.0947705 0.000836735 -8.95662e-24)
(0.0945823 0.000880843 -3.65819e-23)
(0.094385 0.000927929 1.1089e-22)
(0.0941778 0.000978264 -1.49719e-22)
(0.09396 0.00103214 6.59382e-23)
(0.0937311 0.00108988 9.66785e-24)
(0.0934901 0.00115183 -9.82854e-24)
(0.0932363 0.00121838 -2.46736e-26)
(0.0929687 0.00128994 1.01726e-23)
(0.0926864 0.00136697 -2.06893e-23)
(0.0923882 0.00144997 -3.40408e-22)
(0.0920729 0.00153949 3.51314e-22)
(0.0917393 0.00163613 -3.43089e-22)
(0.0913859 0.00174058 3.54165e-22)
(0.0910113 0.00185357 0)
(0.0906137 0.00197598 -2.50054e-26)
(0.0901913 0.0021088 0)
(0.0897421 0.0022532 -3.82569e-22)
(0.0892639 0.00241053 4.07427e-22)
(0.0887541 0.00258238 -1.28038e-23)
(0.08821 0.00277063 -8.63114e-22)
(0.0876285 0.00297749 8.50373e-22)
(0.0870062 0.00320559 -1.3833e-23)
(0.0863391 0.00345803 0)
(0.0856229 0.00373849 0)
(0.0848524 0.00405126 -9.92004e-22)
(0.084022 0.00440142 9.61867e-22)
(0.0831252 0.00479497 0)
(0.0821546 0.00523898 -3.3015e-23)
(0.0811019 0.00574186 0)
(0.0799575 0.00631363 1.76847e-23)
(0.0787105 0.00696629 -1.82315e-23)
(0.0773487 0.0077143 -1.89929e-23)
(0.0758581 0.00857508 1.9584e-23)
(0.0742231 0.00956961 1.28945e-21)
(0.072426 0.010723 -1.33084e-21)
(0.070447 0.0120646 2.89586e-21)
(0.0682639 0.0136278 -2.89773e-21)
(0.0658517 0.0154482 3.07935e-21)
(0.063182 0.0175591 9.05099e-23)
(0.0602215 0.0199828 -3.24695e-21)
(0.0569299 0.0227149 -2.59595e-23)
(0.053256 0.0256993 1.28293e-24)
(0.0491311 0.0287893 1.70302e-24)
(0.0444588 0.0316928 2.25346e-24)
(0.039096 0.033898 -5.62761e-23)
(0.032832 0.0345687 -2.58102e-23)
(0.0254008 0.0323989 -2.45172e-23)
(0.0165027 0.02549 0)
(0.00544166 0.0113923 7.70413e-24)
(0.0948139 0.00101668 -4.44463e-23)
(0.094627 0.00107008 2.67361e-23)
(0.0944311 0.00112712 9.14603e-24)
(0.0942256 0.0011881 1.40376e-22)
(0.0940099 0.0012534 -1.4043e-22)
(0.0937832 0.0013234 1.45252e-22)
(0.0935448 0.00139853 -3.2241e-22)
(0.0932939 0.00147925 4.58959e-22)
(0.0930295 0.00156609 -3.21471e-22)
(0.0927507 0.00165959 -3.33426e-22)
(0.0924565 0.00176036 -1.67094e-23)
(0.0921457 0.00186908 6.77014e-22)
(0.091817 0.00198648 -7.13077e-22)
(0.0914692 0.0021134 3.32582e-22)
(0.0911007 0.00225075 3.58879e-22)
(0.09071 0.00239959 3.75138e-22)
(0.0902953 0.00256115 -2.88627e-23)
(0.0898547 0.00273686 7.64569e-22)
(0.089386 0.00292839 7.89523e-22)
(0.0888869 0.00313768 1.99383e-23)
(0.0883549 0.00336704 -8.37018e-22)
(0.087787 0.00361917 0)
(0.0871801 0.0038973 0)
(0.0865306 0.00420522 -9.33206e-22)
(0.0858345 0.00454737 9.19802e-22)
(0.0850873 0.004929 9.91052e-22)
(0.0842839 0.00535627 -9.9252e-22)
(0.0834187 0.00583641 0)
(0.0824854 0.00637797 1.10864e-21)
(0.0814768 0.00699103 -1.11078e-21)
(0.0803852 0.00768757 0)
(0.0792018 0.00848184 -2.40591e-21)
(0.0779171 0.00939088 2.42819e-21)
(0.0765208 0.010435 -2.00782e-23)
(0.0750019 0.0116385 -2.68767e-21)
(0.0733491 0.0130296 2.7126e-21)
(0.0715505 0.0146412 0)
(0.0695944 0.0165093 3.04977e-21)
(0.0674691 0.0186706 -3.03097e-21)
(0.0651619 0.0211569 2.45847e-23)
(0.0626576 0.0239839 3.35104e-21)
(0.0599338 0.0271332 -6.72514e-21)
(0.0569526 0.0305231 1.77187e-23)
(0.0536456 0.0339666 3.62317e-23)
(0.0498886 0.0371132 3.49254e-21)
(0.045457 0.0393753 3.90377e-24)
(0.0399616 0.03982 -2.99453e-21)
(0.0327932 0.0369974 3.06984e-21)
(0.022938 0.0288026 0)
(0.00791065 0.0126576 2.71007e-23)
(0.0948656 0.00119289 8.75413e-24)
(0.0946804 0.00125509 8.06361e-23)
(0.0944866 0.00132158 -7.19101e-23)
(0.0942835 0.00139275 9.22951e-24)
(0.0940705 0.001469 1.41853e-22)
(0.0938468 0.00155081 -1.42079e-22)
(0.0936118 0.00163866 -3.04327e-22)
(0.0933647 0.00173312 4.58359e-24)
(0.0931046 0.00183478 -5.62563e-24)
(0.0928305 0.00194431 3.37926e-22)
(0.0925415 0.00206242 -3.30019e-22)
(0.0922365 0.00218992 7.00267e-22)
(0.0919144 0.00232767 -3.48915e-22)
(0.0915738 0.00247668 1.12768e-23)
(0.0912133 0.00263805 1.15393e-23)
(0.0908316 0.00281303 7.63237e-22)
(0.0904269 0.0030031 -4.95369e-24)
(0.0899975 0.00320999 7.96676e-22)
(0.0895414 0.00343569 1.27329e-23)
(0.0890564 0.00368253 0)
(0.0885403 0.00395328 0)
(0.0879905 0.00425117 -8.94066e-22)
(0.0874041 0.00458007 8.96325e-22)
(0.086778 0.0049445 0)
(0.0861087 0.00534976 1.50823e-23)
(0.0853924 0.0058021 0)
(0.084625 0.00630882 -1.04187e-21)
(0.0838019 0.00687851 2.12136e-21)
(0.0829179 0.00752124 -1.07956e-21)
(0.0819678 0.00824889 -2.28881e-21)
(0.0809456 0.00907546 -7.73934e-23)
(0.0798454 0.0100175 -8.17651e-23)
(0.0786609 0.0110947 -8.60623e-23)
(0.0773861 0.0123301 2.57548e-21)
(0.0760154 0.0137507 2.76545e-21)
(0.0745445 0.0153873 -2.77204e-21)
(0.0729704 0.0172741 0)
(0.0712927 0.0194467 3.07217e-21)
(0.0695137 0.0219376 -3.0793e-21)
(0.0676379 0.0247681 -3.27377e-21)
(0.0656696 0.0279345 3.25574e-21)
(0.0636065 0.0313856 2.66383e-23)
(0.0614278 0.0349905 3.27729e-21)
(0.0590724 0.0384956 -1.06766e-22)
(0.0564023 0.0414705 -3.23804e-21)
(0.0531379 0.0432532 2.47053e-23)
(0.0487632 0.0428838 0)
(0.0424108 0.0389723 -1.95953e-23)
(0.0321939 0.029624 -9.03912e-22)
(0.0127547 0.0125977 4.40022e-22)
(-0.000248754 0.000321954 0)
(-0.00101835 0.000563096 3.12586e-22)
(-0.00205636 0.000555376 -3.13055e-22)
(-0.00294899 0.000410428 -3.0661e-22)
(-0.00349232 0.000191631 3.07071e-22)
(-0.00360236 -6.13745e-05 -9.26083e-24)
(-0.00324945 -0.000325439 0)
(-0.00243281 -0.000584108 0)
(-0.00116743 -0.000827667 0)
(0.000516868 -0.00104989 0)
(0.00258105 -0.00124764 0)
(0.00498152 -0.00141933 0)
(0.00767294 -0.00156436 0)
(0.0106092 -0.00168301 0)
(0.0137449 -0.00177614 0)
(0.017036 -0.00184507 6.00363e-23)
(0.0204408 -0.00189141 -5.65987e-23)
(0.0239204 -0.00191699 0)
(0.027439 -0.00192376 0)
(0.030964 -0.00191375 -3.07434e-23)
(0.0344663 -0.001889 3.07904e-23)
(0.0379204 -0.00185153 -1.83913e-23)
(0.041304 -0.0018033 1.11247e-24)
(0.0445985 -0.00174615 0)
(0.0477882 -0.00168184 6.15793e-25)
(0.0508606 -0.00161198 0)
(0.0538061 -0.00153807 0)
(0.0566175 -0.00146143 0)
(0.05929 -0.00138329 3.23554e-27)
(0.0618212 -0.00130468 0)
(0.0642103 -0.00122655 1.58413e-25)
(0.0664581 -0.00114967 -2.12926e-25)
(0.068567 -0.00107471 2.53244e-25)
(0.0705405 -0.00100221 -2.66741e-24)
(0.0723831 -0.000932597 2.68952e-24)
(0.0740999 -0.000866205 2.23354e-24)
(0.0756967 -0.000803264 -4.78066e-24)
(0.0771798 -0.000743924 2.55077e-24)
(0.0785557 -0.00068826 3.06606e-25)
(0.0798309 -0.000636284 -2.97739e-25)
(0.0810121 -0.000587953 0)
(0.0821059 -0.000543179 -2.73663e-25)
(0.0831185 -0.000501836 1.27936e-24)
(0.0840563 -0.000463773 -1.26627e-24)
(0.084925 -0.000428814 2.29965e-25)
(0.0857302 -0.000396772 -6.33407e-25)
(0.0864772 -0.000367451 2.19232e-25)
(0.0871708 -0.000340651 3.65014e-25)
(0.0878156 -0.000316172 -1.79977e-25)
(0.0884158 -0.000293816 1.57434e-25)
(-0.000312966 0.000925712 -1.19679e-21)
(-0.00110831 0.00160568 -1.30211e-21)
(-0.00201002 0.00157747 1.28338e-21)
(-0.00270709 0.00115227 -6.05194e-22)
(-0.0030448 0.000511241 6.06483e-22)
(-0.00296285 -0.000230173 9.32504e-24)
(-0.00244253 -0.0010046 -1.82107e-23)
(-0.00148634 -0.00176369 -5.51018e-22)
(-0.000110873 -0.00247977 5.34375e-22)
(0.00165512 -0.00313381 -1.53268e-23)
(0.00377452 -0.00371715 -1.42082e-23)
(0.00620691 -0.00422442 3.9284e-22)
(0.00891014 -0.00465359 -3.93363e-22)
(0.0118411 -0.00500526 -3.1774e-22)
(0.0149572 -0.00528181 3.68606e-23)
(0.018217 -0.00548696 2.81678e-22)
(0.0215813 -0.00562534 -3.54621e-24)
(0.0250132 -0.00570226 -6.30223e-24)
(0.0284788 -0.00572341 0)
(0.0319472 -0.00569473 0)
(0.0353907 -0.00562222 0)
(0.0387849 -0.00551183 -1.42257e-24)
(0.0421085 -0.00536931 6.08777e-23)
(0.0453438 -0.00520016 -6.62939e-23)
(0.0484757 -0.00500956 3.38474e-23)
(0.0514923 -0.00480235 -2.31509e-23)
(0.0543843 -0.00458295 -1.78158e-23)
(0.057145 -0.00435536 6.44857e-24)
(0.0597697 -0.00412316 -3.24387e-27)
(0.0622561 -0.00388951 1.00619e-25)
(0.0646034 -0.00365717 -1.58758e-25)
(0.0668127 -0.00342849 5.80159e-25)
(0.0688861 -0.00320546 -8.0936e-24)
(0.0708271 -0.00298969 1.76565e-23)
(0.0726401 -0.00278247 -8.82444e-24)
(0.07433 -0.00258479 8.93504e-25)
(0.0759026 -0.00239734 -3.14245e-25)
(0.0773639 -0.00222057 0)
(0.0787202 -0.00205472 5.04345e-24)
(0.079978 -0.00189983 -4.47271e-24)
(0.0811436 -0.00175577 -3.87195e-24)
(0.0822235 -0.00162228 5.23053e-24)
(0.0832239 -0.001499 -2.59604e-25)
(0.0841508 -0.00138547 -1.1586e-24)
(0.0850099 -0.00128118 2.09584e-24)
(0.0858066 -0.00118558 2.14698e-25)
(0.0865461 -0.00109808 1.34984e-24)
(0.0872331 -0.00101808 1.16939e-25)
(0.087872 -0.000945001 -3.81019e-25)
(0.0884669 -0.000878234 -4.82514e-25)
(-0.000426608 0.00141183 -1.25534e-21)
(-0.00124854 0.00240143 1.36549e-21)
(-0.00186516 0.00234337 -1.32469e-21)
(-0.00217966 0.00166624 -2.03072e-23)
(-0.00212168 0.000649272 -5.24311e-25)
(-0.00167312 -0.000528475 -1.19745e-21)
(-0.000835287 -0.00176157 1.23677e-21)
(0.000383084 -0.00297132 1.1218e-21)
(0.0019635 -0.00411579 -5.0157e-23)
(0.00387982 -0.00516677 -1.99091e-21)
(0.00609869 -0.00610761 1.87572e-21)
(0.00858672 -0.00692829 -8.80309e-22)
(0.0113076 -0.00762489 -1.24092e-23)
(0.014224 -0.00819767 0)
(0.0172987 -0.00864984 5.98769e-22)
(0.0204954 -0.00898687 -8.11713e-23)
(0.0237794 -0.00921582 -5.09748e-22)
(0.0271178 -0.00934492 1.30662e-23)
(0.0304803 -0.00938314 0)
(0.0338389 -0.00933992 0)
(0.0371687 -0.00922485 1.11773e-22)
(0.0404474 -0.00904751 -1.0859e-22)
(0.0436557 -0.00881719 -6.84587e-23)
(0.0467772 -0.00854288 7.27704e-23)
(0.0497982 -0.00823299 1.56836e-24)
(0.0527078 -0.00789544 -1.14121e-24)
(0.0554974 -0.0075375 7.78769e-25)
(0.0581608 -0.00716573 -8.00743e-24)
(0.0606939 -0.00678603 8.49063e-24)
(0.0630944 -0.00640362 4.07017e-24)
(0.0653619 -0.00602305 -4.15496e-24)
(0.0674972 -0.00564821 -3.68258e-25)
(0.0695026 -0.0052824 -1.45709e-23)
(0.0713812 -0.0049283 3.03186e-23)
(0.0731373 -0.00458806 -1.68357e-23)
(0.0747757 -0.00426331 -9.63001e-24)
(0.0763017 -0.00395524 8.51522e-24)
(0.0777211 -0.00366461 0)
(0.0790397 -0.00339182 -4.48218e-26)
(0.0802638 -0.00313695 0)
(0.0813995 -0.00289983 -8.44443e-24)
(0.0824527 -0.00268003 7.88893e-24)
(0.0834294 -0.00247698 -4.72797e-25)
(0.0843353 -0.00228993 -2.56258e-26)
(0.0851758 -0.00211806 -3.39513e-24)
(0.085956 -0.00196045 6.12887e-24)
(0.086681 -0.00181615 -3.17046e-24)
(0.0873551 -0.0016842 1.33882e-24)
(0.0879825 -0.00156361 -1.04842e-24)
(0.0885673 -0.00145337 -3.33862e-25)
(-0.000555441 0.00167825 -2.74796e-21)
(-0.00134229 0.00281459 0)
(-0.00150133 0.00271548 2.79543e-21)
(-0.00126759 0.00183022 -5.56052e-21)
(-0.00065623 0.000517294 2.78549e-21)
(0.000295956 -0.00101226 1.2372e-21)
(0.00156629 -0.00261762 -1.29844e-21)
(0.00313805 -0.00420409 1.15909e-21)
(0.00498649 -0.00571383 -2.26767e-21)
(0.00709433 -0.00710864 1.0912e-21)
(0.00943747 -0.00836317 1.56261e-23)
(0.0119897 -0.00946307 5.49035e-25)
(0.0147231 -0.0104016 1.26222e-23)
(0.0176084 -0.0111776 -7.16481e-22)
(0.0206162 -0.0117939 6.94655e-22)
(0.0237171 -0.0122567 1.84822e-23)
(0.0268826 -0.0125747 -7.86291e-24)
(0.0300853 -0.012758 4.16432e-22)
(0.0332997 -0.0128181 -4.16127e-22)
(0.0365019 -0.0127674 -5.30629e-24)
(0.0396706 -0.0126185 0)
(0.0427863 -0.0123841 3.52008e-25)
(0.0458323 -0.0120766 0)
(0.0487941 -0.0117081 2.3859e-24)
(0.0516597 -0.0112903 2.72609e-25)
(0.0544194 -0.0108337 1.152e-24)
(0.0570658 -0.0103483 -4.71956e-23)
(0.0595932 -0.00984317 4.66305e-23)
(0.0619981 -0.00932641 0)
(0.0642787 -0.00880521 -3.68895e-26)
(0.0664344 -0.00828587 2.0841e-25)
(0.0684662 -0.00777381 0)
(0.0703762 -0.00727359 -1.20126e-25)
(0.0721675 -0.00678897 1.39514e-23)
(0.0738439 -0.00632296 -2.888e-23)
(0.0754099 -0.00587785 3.08707e-23)
(0.0768704 -0.00545532 -3.22095e-23)
(0.0782307 -0.00505646 3.29184e-23)
(0.0794963 -0.00468188 -1.65942e-23)
(0.0806729 -0.00433173 -8.02343e-24)
(0.0817662 -0.00400578 7.04346e-24)
(0.0827816 -0.00370351 4.51814e-25)
(0.0837247 -0.00342414 7.13989e-24)
(0.0846008 -0.00316667 -1.46809e-23)
(0.0854149 -0.00292999 6.68884e-24)
(0.0861717 -0.00271287 2.8078e-26)
(0.0868759 -0.00251401 -3.67734e-25)
(0.0875315 -0.00233209 -2.26124e-26)
(0.0881427 -0.00216575 3.15363e-25)
(0.0887129 -0.00201357 -5.62178e-25)
(-0.000587586 0.001646 -2.01086e-24)
(-0.00116404 0.00276602 -2.58801e-23)
(-0.000716411 0.00260054 -2.48727e-23)
(0.000203011 0.00157444 -2.39186e-23)
(0.00147433 7.08942e-05 -4.51724e-23)
(0.00300814 -0.0017025 -7.56153e-25)
(0.00476552 -0.00357297 2.04478e-23)
(0.00672419 -0.00544033 -2.01164e-23)
(0.00886467 -0.00723237 -1.90207e-23)
(0.0111744 -0.00890083 2.14902e-21)