/*--------------------------------*- C++ -*----------------------------------*\
| =========                 |                                                 |
| \\      /  F ield         | OpenFOAM: The Open Source CFD Toolbox           |
|  \\    /   O peration     | Version:  2412                                  |
|   \\  /    A nd           | Website:  www.openfoam.com                      |
|    \\/     M anipulation  |                                                 |
\*---------------------------------------------------------------------------*/
FoamFile
{
    version     2.0;
    format      ascii;
    arch        "LSB;label=32;scalar=64";
    class       volVectorField;
    location    "15";
    object      vorticity;
}
// * * * * * * * * * * * * * * * * * * * * * * * * * * * * * * * * * * * * * //

dimensions      [0 0 -1 0 0 0 0];

internalField   nonuniform List<vector> 
63420
(
(0 0 5.8758e-06)
(0 0 5.70381e-06)
(0 0 5.72664e-06)
(0 0 7.05078e-06)
(0 0 1.05297e-05)
(0 0 1.54326e-05)
(0 0 1.93294e-05)
(0 0 1.946e-05)
(0 0 1.44318e-05)
(0 0 4.98355e-06)
(0 0 -6.5171e-06)
(0 0 -1.72729e-05)
(0 0 -2.51553e-05)
(0 0 -2.92288e-05)
(0 0 -2.9681e-05)
(0 0 -2.74082e-05)
(0 0 -2.35434e-05)
(0 0 -1.9106e-05)
(0 0 -1.48291e-05)
(0 0 -1.11315e-05)
(0 0 -8.17545e-06)
(0 0 -5.9521e-06)
(0 0 -4.36176e-06)
(0 0 -3.27207e-06)
(0 0 -2.55351e-06)
(0 0 -2.09637e-06)
(0 0 -1.8158e-06)
(0 0 -1.65028e-06)
(0 0 -1.5574e-06)
(0 0 -1.50901e-06)
(0 0 -1.48707e-06)
(0 0 -1.48032e-06)
(0 0 -1.48188e-06)
(0 0 -1.48765e-06)
(0 0 -1.49518e-06)
(0 0 -1.50305e-06)
(0 0 -1.51043e-06)
(0 0 -1.51681e-06)
(0 0 -1.5219e-06)
(0 0 -1.52552e-06)
(0 0 -1.52754e-06)
(0 0 -1.52785e-06)
(0 0 -1.52637e-06)
(0 0 -1.523e-06)
(0 0 -1.51765e-06)
(0 0 -1.5102e-06)
(0 0 -1.50044e-06)
(0 0 -1.48795e-06)
(0 0 -1.47131e-06)
(0 0 -1.44581e-06)
(0 0 -1.39523e-06)
(0 0 -1.26511e-06)
(0 0 -8.78257e-07)
(0 0 3.22932e-07)
(0 4.54411e-23 4.03353e-06)
(0 0 1.76275e-05)
(0 0 1.71161e-05)
(0 0 1.71817e-05)
(0 0 2.11224e-05)
(0 0 3.1494e-05)
(0 0 4.61405e-05)
(0 0 5.78373e-05)
(0 0 5.83551e-05)
(0 0 4.3519e-05)
(0 0 1.54943e-05)
(0 0 -1.86943e-05)
(0 0 -5.07261e-05)
(0 0 -7.42558e-05)
(0 0 -8.64804e-05)
(0 0 -8.79386e-05)
(0 0 -8.12825e-05)
(0 0 -6.98739e-05)
(0 0 -5.67428e-05)
(0 0 -4.40703e-05)
(0 0 -3.31054e-05)
(0 0 -2.43341e-05)
(0 0 -1.77338e-05)
(0 0 -1.30108e-05)
(0 0 -9.77349e-06)
(0 0 -7.63827e-06)
(0 0 -6.27989e-06)
(0 0 -5.44666e-06)
(0 0 -4.95599e-06)
(0 0 -4.68185e-06)
(0 0 -4.5406e-06)
(0 0 -4.47857e-06)
(0 0 -4.46221e-06)
(0 0 -4.47104e-06)
(0 0 -4.49275e-06)
(0 0 -4.52009e-06)
(0 0 -4.54877e-06)
(0 0 -4.57632e-06)
(0 0 -4.60126e-06)
(0 0 -4.62268e-06)
(0 0 -4.63999e-06)
(0 0 -4.65278e-06)
(0 0 -4.66075e-06)
(0 0 -4.66364e-06)
(0 0 -4.66117e-06)
(0 0 -4.653e-06)
(0 0 -4.63877e-06)
(0 0 -4.61791e-06)
(0 0 -4.5891e-06)
(0 0 -4.54833e-06)
(0 0 -4.48191e-06)
(0 0 -4.34289e-06)
(0 0 -3.97335e-06)
(0 0 -2.85876e-06)
(0 0 6.23234e-07)
(0 4.59074e-23 1.14134e-05)
(0 0 2.93673e-05)
(0 0 2.85248e-05)
(0 0 2.86236e-05)
(0 0 3.51084e-05)
(0 0 5.22418e-05)
(0 0 7.65414e-05)
(0 0 9.61382e-05)
(0 0 9.74353e-05)
(0 0 7.34536e-05)
(0 0 2.7646e-05)
(0 0 -2.84944e-05)
(0 0 -8.12811e-05)
(0 0 -0.000120229)
(0 0 -0.000140661)
(0 0 -0.000143399)
(0 0 -0.000132761)
(0 0 -0.000114251)
(0 0 -9.28466e-05)
(0 0 -7.21411e-05)
(0 0 -5.41993e-05)
(0 0 -3.98318e-05)
(0 0 -2.90118e-05)
(0 0 -2.12641e-05)
(0 0 -1.59507e-05)
(0 0 -1.24443e-05)
(0 0 -1.02127e-05)
(0 0 -8.84328e-06)
(0 0 -8.03663e-06)
(0 0 -7.58589e-06)
(0 0 -7.35378e-06)
(0 0 -7.25211e-06)
(0 0 -7.22574e-06)
(0 0 -7.24098e-06)
(0 0 -7.27759e-06)
(0 0 -7.32362e-06)
(0 0 -7.37206e-06)
(0 0 -7.41881e-06)
(0 0 -7.46144e-06)
(0 0 -7.49843e-06)
(0 0 -7.52882e-06)
(0 0 -7.55197e-06)
(0 0 -7.56735e-06)
(0 0 -7.57451e-06)
(0 0 -7.57295e-06)
(0 0 -7.56218e-06)
(0 0 -7.5416e-06)
(0 0 -7.5103e-06)
(0 0 -7.4662e-06)
(0 0 -7.40305e-06)
(0 0 -7.29965e-06)
(0 0 -7.08326e-06)
(0 0 -6.50877e-06)
(0 0 -4.77482e-06)
(0 0 6.5589e-07)
(0 2.70945e-22 1.75411e-05)
(0 0 4.10873e-05)
(0 0 3.9927e-05)
(0 0 4.00436e-05)
(0 0 4.89562e-05)
(0 0 7.264e-05)
(0 0 0.000106444)
(0 0 0.000134098)
(0 0 0.000136799)
(0 0 0.000104732)
(0 0 4.24148e-05)
(0 0 -3.44941e-05)
(0 0 -0.000107196)
(0 0 -0.000161192)
(0 0 -0.000189919)
(0 0 -0.000194374)
(0 0 -0.000180394)
(0 0 -0.000155491)
(0 0 -0.00012649)
(0 0 -9.8334e-05)
(0 0 -7.38817e-05)
(0 0 -5.42699e-05)
(0 0 -3.94827e-05)
(0 0 -2.88841e-05)
(0 0 -2.16094e-05)
(0 0 -1.68053e-05)
(0 0 -1.37454e-05)
(0 0 -1.18662e-05)
(0 0 -1.07583e-05)
(0 0 -1.01384e-05)
(0 0 -9.81862e-06)
(0 0 -9.67796e-06)
(0 0 -9.64084e-06)
(0 0 -9.66104e-06)
(0 0 -9.71079e-06)
(0 0 -9.7737e-06)
(0 0 -9.84013e-06)
(0 0 -9.90444e-06)
(0 0 -9.96328e-06)
(0 0 -1.00146e-05)
(0 0 -1.00571e-05)
(0 0 -1.00898e-05)
(0 0 -1.0112e-05)
(0 0 -1.01231e-05)
(0 0 -1.01224e-05)
(0 0 -1.01094e-05)
(0 0 -1.0083e-05)
(0 0 -1.00422e-05)
(0 0 -9.98432e-06)
(0 0 -9.90138e-06)
(0 0 -9.76698e-06)
(0 0 -9.49054e-06)
(0 0 -8.7661e-06)
(0 0 -6.5881e-06)
(0 0 2.50031e-07)
(0 -1.77895e-22 2.16268e-05)
(0 0 5.278e-05)
(0 0 5.13191e-05)
(0 0 5.14333e-05)
(0 0 6.26193e-05)
(0 0 9.25712e-05)
(0 0 0.000135678)
(0 0 0.000171586)
(0 0 0.000176511)
(0 0 0.000137757)
(0 0 6.0613e-05)
(0 0 -3.5496e-05)
(0 0 -0.000126997)
(0 0 -0.000195544)
(0 0 -0.000232673)
(0 0 -0.000239419)
(0 0 -0.000222943)
(0 0 -0.000192585)
(0 0 -0.00015688)
(0 0 -0.000122045)
(0 0 -9.16997e-05)
(0 0 -6.73099e-05)
(0 0 -4.88906e-05)
(0 0 -3.56714e-05)
(0 0 -2.6588e-05)
(0 0 -2.05832e-05)
(0 0 -1.67547e-05)
(0 0 -1.44009e-05)
(0 0 -1.30112e-05)
(0 0 -1.22322e-05)
(0 0 -1.18289e-05)
(0 0 -1.16501e-05)
(0 0 -1.16013e-05)
(0 0 -1.16246e-05)
(0 0 -1.16852e-05)
(0 0 -1.17626e-05)
(0 0 -1.18447e-05)
(0 0 -1.19244e-05)
(0 0 -1.19975e-05)
(0 0 -1.20615e-05)
(0 0 -1.21147e-05)
(0 0 -1.21559e-05)
(0 0 -1.21844e-05)
(0 0 -1.21992e-05)
(0 0 -1.21995e-05)
(0 0 -1.21845e-05)
(0 0 -1.21533e-05)
(0 0 -1.21044e-05)
(0 0 -1.20346e-05)
(0 0 -1.19354e-05)
(0 0 -1.17778e-05)
(0 0 -1.14636e-05)
(0 0 -1.0661e-05)
(0 0 -8.27326e-06)
(0 0 -7.63214e-07)
(0 8.78217e-23 2.29309e-05)
(0 0 6.44389e-05)
(0 0 6.26963e-05)
(0 0 6.27845e-05)
(0 0 7.60593e-05)
(0 0 0.000111938)
(0 0 0.000164097)
(0 0 0.000208483)
(0 0 0.000216591)
(0 0 0.000172805)
(0 0 8.28366e-05)
(0 0 -3.05996e-05)
(0 0 -0.000139559)
(0 0 -0.000222053)
(0 0 -0.000267705)
(0 0 -0.000277416)
(0 0 -0.000259447)
(0 0 -0.000224746)
(0 0 -0.0001834)
(0 0 -0.000142804)
(0 0 -0.000107303)
(0 0 -7.86916e-05)
(0 0 -5.70401e-05)
(0 0 -4.14756e-05)
(0 0 -3.07656e-05)
(0 0 -2.36765e-05)
(0 0 -1.91508e-05)
(0 0 -1.63644e-05)
(0 0 -1.47164e-05)
(0 0 -1.37901e-05)
(0 0 -1.33083e-05)
(0 0 -1.30925e-05)
(0 0 -1.30308e-05)
(0 0 -1.3055e-05)
(0 0 -1.31237e-05)
(0 0 -1.32127e-05)
(0 0 -1.33077e-05)
(0 0 -1.34002e-05)
(0 0 -1.34854e-05)
(0 0 -1.35601e-05)
(0 0 -1.36225e-05)
(0 0 -1.36712e-05)
(0 0 -1.3705e-05)
(0 0 -1.37231e-05)
(0 0 -1.37245e-05)
(0 0 -1.37082e-05)
(0 0 -1.36731e-05)
(0 0 -1.36176e-05)
(0 0 -1.35385e-05)
(0 0 -1.34269e-05)
(0 0 -1.32547e-05)
(0 0 -1.29272e-05)
(0 0 -1.21274e-05)
(0 0 -9.80822e-06)
(0 0 -2.54375e-06)
(0 4.33323e-22 2.07277e-05)
(0 0 7.60554e-05)
(0 0 7.40523e-05)
(0 0 7.40892e-05)
(0 0 8.92473e-05)
(0 0 0.000130669)
(0 0 0.000191586)
(0 0 0.000244675)
(0 0 0.000257011)
(0 0 0.000210011)
(0 0 0.000109435)
(0 0 -1.92454e-05)
(0 0 -0.000144164)
(0 0 -0.000239919)
(0 0 -0.000294208)
(0 0 -0.000307621)
(0 0 -0.000289261)
(0 0 -0.000251447)
(0 0 -0.000205637)
(0 0 -0.000160299)
(0 0 -0.00012046)
(0 0 -8.82456e-05)
(0 0 -6.38066e-05)
(0 0 -4.62032e-05)
(0 0 -3.40695e-05)
(0 0 -2.60255e-05)
(0 0 -2.08822e-05)
(0 0 -1.77101e-05)
(0 0 -1.58297e-05)
(0 0 -1.47693e-05)
(0 0 -1.42147e-05)
(0 0 -1.3963e-05)
(0 0 -1.38873e-05)
(0 0 -1.39098e-05)
(0 0 -1.39835e-05)
(0 0 -1.40809e-05)
(0 0 -1.41856e-05)
(0 0 -1.42881e-05)
(0 0 -1.43827e-05)
(0 0 -1.44659e-05)
(0 0 -1.45356e-05)
(0 0 -1.45901e-05)
(0 0 -1.46283e-05)
(0 0 -1.46491e-05)
(0 0 -1.46514e-05)
(0 0 -1.46342e-05)
(0 0 -1.45962e-05)
(0 0 -1.45357e-05)
(0 0 -1.44495e-05)
(0 0 -1.43295e-05)
(0 0 -1.41505e-05)
(0 0 -1.38318e-05)
(0 0 -1.31116e-05)
(0 0 -1.11508e-05)
(0 0 -5.22578e-06)
(0 -8.47811e-23 1.41766e-05)
(-1.625e-23 7.97238e-21 2.24003e-06)
(-1.47827e-22 7.83877e-21 1.68932e-06)
(3.37154e-23 -1.9804e-22 9.31628e-07)
(3.60154e-23 -2.34088e-20 -7.82828e-08)
(-9.29374e-23 7.99943e-21 -1.38475e-06)
(3.66075e-22 7.85776e-21 -3.03244e-06)
(-7.97176e-22 2.29077e-20 -5.06378e-06)
(3.11975e-22 -2.32803e-20 -7.52375e-06)
(6.29165e-22 -7.49001e-21 -1.04625e-05)
(-9.0081e-22 -3.72241e-24 -1.3936e-05)
(-9.01281e-22 -7.50784e-21 -1.80047e-05)
(7.89619e-22 7.13005e-21 -2.27315e-05)
(5.63211e-22 -5.87716e-20 -2.81789e-05)
(-1.03737e-21 1.26197e-19 -3.44037e-05)
(3.54293e-22 -6.79068e-20 -4.14481e-05)
(-1.2381e-21 -5.1206e-20 -4.9321e-05)
(2.35999e-21 -6.52001e-20 -5.8001e-05)
(-1.85682e-21 7.68891e-21 -6.74504e-05)
(-1.91106e-22 -7.1721e-21 -7.76393e-05)
(7.44564e-23 7.17871e-21 -8.84946e-05)
(-3.14833e-24 -1.28771e-22 -9.99155e-05)
(-6.96697e-23 -6.92662e-21 -0.000111802)
(-2.00961e-21 6.98927e-21 -0.000124074)
(4.20812e-21 1.29221e-23 -0.000136689)
(1.23029e-21 6.78928e-21 -0.000149662)
(-3.27838e-21 -5.32567e-24 -0.000163086)
(4.72034e-21 7.89574e-21 -0.000177149)
(-5.50496e-21 1.02434e-19 -0.000192154)
(6.56284e-22 -1.10002e-19 -0.000208532)
(-2.10351e-21 1.00572e-19 -0.000226868)
(2.04839e-21 -1.01717e-19 -0.00024794)
(4.85411e-23 1.34227e-21 -0.000272797)
(-6.32183e-23 -1.64885e-21 -0.000302916)
(2.74141e-21 -9.64595e-20 -0.000340501)
(-8.63247e-21 9.36209e-20 -0.000389047)
(-3.18197e-22 -1.54988e-21 -0.000454363)
(6.21559e-21 1.35941e-23 -0.000546361)
(6.76237e-21 1.479e-23 -0.000682077)
(-6.74073e-21 -1.47426e-23 -0.000890532)
(-2.23638e-22 -4.89119e-25 -0.00122014)
(-2.33308e-22 -5.10267e-25 -0.00174925)
(-8.03703e-21 -1.75778e-23 -0.00259996)
(7.75775e-21 1.6967e-23 -0.00395398)
(-2.56407e-22 1.52651e-22 -0.00606754)
(-2.97061e-23 7.90397e-21 -0.00927912)
(-2.48707e-20 5.11957e-20 -0.0140011)
(2.39538e-20 -6.74618e-20 -0.0206814)
(-5.62053e-21 -9.62527e-21 -0.0297214)
(6.17862e-21 2.62425e-20 -0.0413416)
(-2.05643e-20 -5.74123e-21 -0.055313)
(-2.58471e-22 7.98526e-21 6.35271e-06)
(-1.02265e-22 1.57081e-20 4.63448e-06)
(3.07719e-22 7.641e-21 2.24588e-06)
(-8.7667e-22 -7.8521e-21 -9.49853e-07)
(1.62731e-21 7.48903e-21 -5.08159e-06)
(-5.11273e-22 -5.3658e-20 -1.0271e-05)
(-2.02864e-22 8.5215e-20 -1.66413e-05)
(-5.81559e-23 -8.88592e-21 -2.43262e-05)
(2.16236e-21 -9.81525e-20 -3.34758e-05)
(-2.23945e-21 1.38605e-19 -4.42584e-05)
(-8.03243e-22 1.26651e-19 -5.68587e-05)
(5.89417e-22 -1.13961e-19 -7.14706e-05)
(-3.93647e-22 7.38302e-22 -8.8287e-05)
(2.80662e-21 -7.25848e-21 -0.000107487)
(-2.18071e-21 2.41557e-20 -0.000129207)
(-5.91683e-21 2.39852e-19 -0.000153487)
(1.56519e-21 -2.25604e-19 -0.000180261)
(-5.52766e-21 2.41785e-19 -0.000209455)
(-2.89073e-22 1.95617e-20 -0.000240991)
(-3.84437e-21 -7.33806e-21 -0.000274693)
(4.06205e-21 1.45308e-22 -0.000310277)
(-4.07193e-21 9.12678e-21 -0.000347463)
(1.12418e-21 2.1022e-19 -0.000386048)
(5.70866e-21 -4.45254e-19 -0.000425938)
(4.38274e-21 -2.12799e-19 -0.000467218)
(-6.7714e-21 4.30758e-19 -0.000510207)
(3.36833e-21 -4.29828e-19 -0.000555516)
(-1.68544e-21 4.41053e-19 -0.0006041)
(3.29238e-21 1.44685e-21 -0.000657307)
(-3.72447e-21 -9.7596e-23 -0.00071695)
(-1.25141e-21 -2.73696e-24 -0.000785431)
(0 0 -0.000865981)
(1.85046e-22 9.60411e-23 -0.000963133)
(1.10701e-20 1.23895e-20 -0.00108363)
(-1.5419e-20 3.61543e-19 -0.00123815)
(-1.58024e-20 -2.4093e-20 -0.00144439)
(1.82664e-20 -3.56857e-19 -0.00173252)
(2.62781e-20 -3.08734e-19 -0.00215436)
(-9.02077e-21 3.29836e-19 -0.00279811)
(-3.12951e-20 2.1891e-21 -0.00381074)
(3.06085e-20 1.74426e-20 -0.00542991)
(-4.20342e-20 2.36008e-19 -0.00802543)
(2.25823e-20 -2.45504e-19 -0.0121471)
(-1.81417e-20 1.47741e-20 -0.018569)
(2.01212e-20 7.79675e-21 -0.0283131)
(-6.02754e-20 1.14529e-19 -0.0426233)
(6.02062e-20 -1.12098e-19 -0.0628472)
(-9.29179e-20 8.38875e-20 -0.0901719)
(8.96648e-20 -9.36538e-20 -0.125189)
(-1.89789e-20 -6.44015e-22 -0.165814)
(-2.83947e-23 4.7301e-20 1.01571e-05)
(-8.26608e-23 1.49531e-20 7.06197e-06)
(3.63644e-22 -6.19581e-20 2.67659e-06)
(-7.67391e-22 1.23282e-19 -3.21889e-06)
(1.69788e-21 -2.63956e-19 -1.08133e-05)
(4.31613e-22 1.25538e-19 -2.02851e-05)
(-2.46162e-21 -8.75284e-22 -3.18242e-05)
(1.56706e-21 -1.70774e-20 -4.56472e-05)
(1.39185e-21 -2.57689e-19 -6.20054e-05)
(8.42826e-22 2.45577e-19 -8.1187e-05)
(-8.62966e-22 -1.63731e-21 -0.000103512)
(-4.23676e-21 -1.57944e-23 -0.000129319)
(6.72356e-21 -1.86181e-21 -0.000158954)
(-4.09556e-21 -2.51519e-19 -0.000192744)
(5.29943e-21 2.28634e-19 -0.000230949)
(-1.12866e-20 4.54341e-19 -0.000273678)
(-4.89647e-21 -1.21781e-20 -0.000320874)
(-4.52172e-21 4.67564e-19 -0.000372464)
(4.05678e-22 -1.41958e-20 -0.000428402)
(-1.21972e-20 4.54278e-19 -0.000488477)
(1.21051e-20 -4.71825e-19 -0.0005523)
(-8.92435e-21 4.50781e-19 -0.00061951)
(2.07743e-21 -4.68901e-19 -0.00068988)
(5.25309e-21 -9.33224e-21 -0.000763377)
(-2.59973e-21 1.37503e-20 -0.000840274)
(5.56974e-21 -8.84009e-21 -0.000921246)
(-1.85625e-20 4.23231e-19 -0.00100747)
(1.66315e-20 -4.51165e-19 -0.0011007)
(1.80872e-20 -4.19459e-19 -0.00120338)
(-1.47698e-20 4.21462e-19 -0.00131875)
(-1.09208e-21 -5.21392e-21 -0.00145105)
(1.13073e-20 -1.22376e-22 -0.00160596)
(-1.2961e-20 -2.49599e-20 -0.00179138)
(5.25257e-20 -7.68035e-19 -0.00201902)
(1.67708e-20 5.63276e-20 -0.00230726)
(-6.96598e-20 7.23697e-19 -0.00268649)
(3.99664e-21 -1.24571e-20 -0.00320835)
(-1.15391e-20 -4.94596e-21 -0.0039614)
(1.10026e-19 -6.09145e-19 -0.00509616)
(-2.04638e-19 1.19694e-18 -0.00686315)
(2.08913e-19 -1.19044e-18 -0.0096668)
(7.22827e-20 8.56316e-20 -0.0141353)
(-1.57972e-19 5.22021e-19 -0.021201)
(-1.66416e-19 3.60866e-19 -0.0321753)
(1.57187e-19 -4.27838e-19 -0.0487894)
(-2.2539e-20 1.97402e-20 -0.0731523)
(5.56896e-20 -1.75919e-20 -0.107549)
(1.67476e-19 -1.04145e-19 -0.153949)
(-1.81256e-19 1.62439e-19 -0.213145)
(-2.57273e-20 -4.1592e-20 -0.277031)
(3.98326e-22 -3.11919e-20 1.33454e-05)
(-3.64547e-22 1.57764e-20 8.37989e-06)
(6.98116e-22 -1.73227e-22 1.21156e-06)
(-6.27816e-22 -1.5523e-20 -8.39998e-06)
(-9.7437e-22 -1.45977e-21 -2.06479e-05)
(3.27065e-21 -2.43678e-19 -3.57344e-05)
(-4.55742e-21 4.61522e-19 -5.39018e-05)
(2.2137e-21 -2.48537e-19 -7.54489e-05)
(-1.83615e-21 1.49931e-20 -0.000100738)
(4.77584e-21 -2.72204e-19 -0.000130196)
(-5.79342e-21 2.48436e-19 -0.0001643)
(-3.92224e-21 4.74267e-19 -0.000203569)
(1.04262e-20 -9.59708e-19 -0.000248535)
(-1.26305e-20 9.58827e-19 -0.000299718)
(1.68965e-20 -9.54487e-19 -0.000357562)
(-1.09145e-20 9.46174e-19 -0.000422314)
(-9.73649e-21 4.81239e-19 -0.000493997)
(-7.117e-22 -3.81034e-21 -0.000572642)
(4.55893e-21 3.95674e-21 -0.000658348)
(-7.3659e-21 4.44276e-19 -0.000750991)
(-2.33919e-21 -4.66637e-19 -0.000850231)
(1.49589e-20 1.28901e-20 -0.00095579)
(-3.30869e-20 8.96453e-19 -0.0010676)
(2.48538e-20 -8.99531e-19 -0.00118589)
(2.28242e-21 -5.32594e-21 -0.00131134)
(-9.86694e-21 -9.1657e-23 -0.00144522)
(1.49698e-20 -1.36095e-20 -0.00158953)
(-4.8726e-21 1.24947e-22 -0.00174714)
(-5.35818e-21 -6.49448e-23 -0.00192189)
(5.09596e-21 1.98105e-22 -0.00211883)
(-3.74352e-21 1.40067e-21 -0.00234447)
(6.23897e-20 -7.97228e-19 -0.00260743)
(-5.64134e-20 8.19998e-19 -0.00291958)
(-1.62532e-20 1.74829e-22 -0.00329824)
(1.89126e-20 -1.03685e-20 -0.0037704)
(-9.85019e-20 7.33482e-19 -0.00438026)
(1.15328e-19 -7.36805e-19 -0.00520266)
(-2.30514e-20 2.25195e-21 -0.0063655)
(1.62812e-20 -9.10194e-23 -0.00808595)
(3.87126e-20 6.55844e-21 -0.0107252)
(-2.49873e-19 5.52225e-19 -0.0148656)
(3.69922e-19 -1.12009e-18 -0.0214113)
(-1.80642e-19 5.67811e-19 -0.0317031)
(2.64118e-19 -4.3538e-19 -0.0476301)
(-2.55527e-19 5.13029e-19 -0.071697)
(-5.98248e-19 5.30471e-19 -0.106986)
(1.13052e-18 -1.1246e-18 -0.156884)
(-5.54051e-19 5.68146e-19 -0.224308)
(1.91333e-20 -2.22017e-21 -0.310066)
(4.62164e-21 -3.56019e-20 -0.39228)
(-7.38226e-22 1.58581e-20 1.54358e-05)
(-2.6066e-22 6.07125e-20 7.51989e-06)
(1.9399e-21 -1.84379e-19 -3.93652e-06)
(-1.25232e-21 2.47466e-19 -1.90111e-05)
(-3.0381e-22 -1.09601e-19 -3.78152e-05)
(1.08514e-22 -1.4644e-20 -6.05486e-05)
(-4.72927e-22 1.54466e-20 -8.7512e-05)
(3.06215e-21 -1.88738e-22 -0.000119109)
(-2.92014e-21 -1.50998e-20 -0.000155845)
(-5.28852e-21 3.38981e-20 -0.000198321)
(-6.79116e-21 4.82355e-19 -0.000247217)
(1.83616e-20 -5.01369e-19 -0.000303279)
(-2.2726e-20 4.67831e-19 -0.000367287)
(1.88737e-20 -4.86676e-19 -0.000440024)
(-3.03954e-21 3.43528e-21 -0.000522204)
(1.11054e-20 4.8048e-23 -0.000614313)
(4.22463e-21 3.75518e-21 -0.000716577)
(-4.94721e-21 4.54926e-19 -0.000829282)
(2.00437e-20 -4.92351e-19 -0.000952836)
(6.41776e-21 2.71201e-20 -0.00108741)
(-4.52309e-20 9.38517e-19 -0.00123292)
(2.84117e-20 -9.41295e-19 -0.00138945)
(1.02979e-20 2.27836e-20 -0.00155736)
(-1.82335e-20 -2.35679e-22 -0.00173746)
(1.19309e-20 9.73698e-21 -0.00193119)
(-3.77692e-20 9.0308e-19 -0.00214081)
(3.09499e-20 -8.94691e-19 -0.00236959)
(2.86655e-21 9.72178e-21 -0.00262199)
(9.69644e-21 2.74337e-20 -0.00290384)
(-1.16296e-20 -5.55433e-22 -0.00322261)
(1.1661e-21 -1.31287e-20 -0.00358785)
(-3.76975e-20 1.33366e-20 -0.00401193)
(3.55238e-20 1.27106e-20 -0.00451161)
(-3.19094e-21 -2.55175e-20 -0.00511092)
(8.15682e-20 -7.46717e-19 -0.00584657)
(-7.24499e-20 7.69639e-19 -0.00677794)
(2.68898e-19 -1.48266e-18 -0.00800463)
(-2.46161e-19 1.49706e-18 -0.00969619)
(3.06516e-19 -1.40271e-18 -0.0121401)
(7.28641e-20 1.32766e-19 -0.0158147)
(-3.53218e-19 1.3373e-18 -0.0214924)
(-1.22601e-19 -2.25139e-20 -0.0303736)
(1.66839e-20 3.8886e-22 -0.0442446)
(-1.86437e-20 5.66857e-22 -0.0656383)
(5.50457e-20 1.68845e-21 -0.0979624)
(2.6534e-20 1.38079e-20 -0.145536)
(-1.14927e-19 5.22527e-21 -0.21337)
(6.5422e-20 5.07054e-21 -0.30616)
(-1.67924e-22 -3.15249e-22 -0.425241)
(3.66268e-20 6.50878e-22 -0.522039)
(-6.83666e-22 7.64221e-20 1.56888e-05)
(1.64706e-21 -4.6606e-20 2.42483e-06)
(-1.69492e-21 -1.64432e-20 -1.60048e-05)
(4.61713e-21 -2.28373e-19 -3.92505e-05)
(-2.20781e-21 2.30265e-19 -6.7332e-05)
(1.94355e-21 -2.27866e-19 -0.0001005)
(-1.08438e-20 5.02512e-19 -0.000139179)
(1.13439e-20 -7.03858e-19 -0.000183939)
(-7.303e-21 4.97804e-19 -0.000235489)
(-5.71935e-21 4.85273e-19 -0.000294667)
(-2.20635e-21 3.93141e-21 -0.000362423)
(2.41176e-20 -9.53408e-19 -0.000439802)
(-2.09646e-20 9.9238e-19 -0.000527914)
(4.88438e-21 -4.66975e-19 -0.000627908)
(1.1906e-20 -4.69277e-19 -0.000740887)
(2.22918e-20 -4.61827e-19 -0.000867722)
(-3.21004e-21 6.77181e-21 -0.00100902)
(3.79975e-20 -9.57829e-19 -0.00116552)
(2.91282e-20 -9.19749e-19 -0.0013382)
(6.57104e-21 2.12467e-20 -0.00152778)
(-2.60403e-20 9.55473e-19 -0.00173478)
(-2.03301e-20 -8.16215e-21 -0.00195999)
(1.24121e-20 9.036e-21 -0.00220464)
(-5.0026e-20 9.25763e-19 -0.00247059)
(4.04272e-20 -9.4053e-19 -0.00276057)
(7.21158e-20 -9.03649e-19 -0.00307843)
(-7.33534e-20 9.33548e-19 -0.0034294)
(1.522e-20 -2.02147e-20 -0.0038203)
(6.67138e-20 -9.01647e-19 -0.00425987)
(-9.47374e-20 9.24746e-19 -0.00475905)
(4.41859e-21 1.24835e-20 -0.00533158)
(-2.05557e-19 1.69516e-18 -0.00599496)
(1.85451e-19 -1.75887e-18 -0.0067723)
(4.90575e-20 6.26952e-20 -0.00769581)
(-2.66097e-19 1.60649e-18 -0.00881339)
(2.43512e-19 -1.67524e-18 -0.0102007)
(-3.19806e-20 -3.37745e-21 -0.0119827)
(4.73035e-19 -1.51262e-18 -0.0143705)
(-4.42502e-19 1.56233e-18 -0.0177216)
(-6.72344e-20 -7.34418e-20 -0.0226322)
(6.83388e-19 -1.32255e-18 -0.0300693)
(-1.20203e-18 2.72894e-18 -0.0415456)
(-6.7876e-20 -1.56397e-19 -0.0593292)
(-9.09025e-20 -1.22532e-19 -0.0866742)
(7.79506e-19 -1.19067e-18 -0.128059)
(4.01226e-20 6.39807e-20 -0.189451)
(-8.84564e-19 7.91724e-19 -0.278595)
(8.6738e-19 -8.70528e-19 -0.404775)
(9.61809e-21 2.94099e-20 -0.574616)
(9.55192e-21 -2.79097e-21 -0.691867)
(6.05991e-22 -1.59242e-20 1.31224e-05)
(1.61949e-21 -1.35772e-19 -1.11745e-05)
(-1.75175e-21 1.22462e-19 -4.06027e-05)
(-1.2964e-21 -1.72608e-20 -7.52739e-05)
(5.24717e-21 -2.26975e-19 -0.000115513)
(-4.83079e-21 2.33501e-19 -0.000161792)
(-5.55589e-21 4.71661e-19 -0.000214744)
(-5.16499e-21 -1.94792e-20 -0.000275154)
(2.24755e-21 -4.56262e-21 -0.000343953)
(1.42439e-20 -5.03042e-19 -0.000422216)
(-1.15394e-20 4.70777e-19 -0.000511153)
(1.71331e-20 -9.961e-19 -0.00061209)
(-3.71422e-21 4.97996e-19 -0.000726441)
(-3.7042e-21 -1.87654e-20 -0.000855685)
(-4.93771e-21 -2.24745e-20 -0.00100127)
(2.7903e-20 -9.7787e-19 -0.00116442)
(-1.58445e-21 -2.01093e-20 -0.00134607)
(2.67e-20 -9.96174e-19 -0.00154734)
(-5.48137e-21 -7.68785e-21 -0.00176964)
(-1.70817e-22 1.20657e-22 -0.00201416)
(1.15749e-20 8.52917e-21 -0.0022818)
(-5.219e-20 9.59137e-19 -0.00257378)
(4.63839e-20 -9.79822e-19 -0.00289179)
(1.2917e-20 8.43273e-21 -0.00323819)
(-8.82956e-21 -1.50235e-20 -0.00361621)
(-6.24024e-21 1.00153e-20 -0.00403021)
(-7.3112e-20 9.26829e-19 -0.00448586)
(1.57311e-19 -1.89122e-18 -0.00499035)
(-7.44345e-20 9.86532e-19 -0.00555254)
(-1.89808e-19 1.82912e-18 -0.00618309)
(-3.06498e-20 -4.52818e-20 -0.00689483)
(2.75433e-21 -2.60267e-20 -0.00770337)
(-6.67989e-20 -5.36652e-20 -0.00862855)
(2.572e-19 -1.83004e-18 -0.00969741)
(3.98636e-19 -1.69536e-18 -0.0109503)
(-3.55335e-19 1.77956e-18 -0.0124532)
(-3.44035e-20 -5.56537e-20 -0.0143197)
(4.73601e-19 -1.6236e-18 -0.0167518)
(-4.1705e-19 1.71994e-18 -0.0201085)
(-6.71522e-19 1.52928e-18 -0.0250144)
(5.70049e-19 -1.6153e-18 -0.0325238)
(7.9373e-20 -1.13978e-20 -0.0443453)
(8.77463e-19 -1.43083e-18 -0.0631256)
(1.24409e-19 1.225e-19 -0.0927819)
(-1.01589e-18 1.40301e-18 -0.138882)
(-1.65184e-20 -4.02557e-20 -0.209152)
(3.40743e-20 5.34563e-22 -0.314826)
(-3.46485e-20 1.57037e-20 -0.475634)
(-5.2284e-19 5.47277e-19 -0.729551)
(5.14258e-19 -5.56401e-19 -1.00439)
(-1.05991e-20 -3.09849e-21 0.0101434)
(-1.04852e-20 -5.76485e-22 0.00415171)
(9.82926e-21 9.89932e-21 -0.000888006)
(-7.15785e-21 1.65842e-21 -0.00505292)
(7.66902e-21 -1.08456e-20 -0.0084274)
(7.94875e-25 3.32148e-21 -0.0111003)
(-1.61096e-22 -9.22538e-23 -0.0131573)
(-5.02391e-21 1.09878e-23 -0.0146782)
(4.88126e-21 -1.06758e-23 -0.0157345)
(-1.40265e-22 3.06774e-25 -0.0163904)
(-1.30271e-22 2.84916e-25 -0.0167039)
(3.60862e-21 -7.89241e-24 -0.016728)
(-3.62021e-21 7.91777e-24 -0.0165109)
(-2.92975e-21 6.40765e-24 -0.0160965)
(3.64802e-22 -6.00354e-22 -0.0155245)
(5.46581e-21 2.39377e-20 -0.0148302)
(-2.68277e-21 -2.11831e-20 -0.014045)
(-3.68492e-23 -5.65908e-22 -0.0131964)
(-1.11039e-23 3.07045e-22 -0.0123082)
(-2.66478e-21 -4.14538e-20 -0.011401)
(2.68603e-21 4.11063e-20 -0.010492)
(-2.05263e-21 -4.66998e-20 -0.00959545)
(6.655e-22 3.11338e-21 -0.00872298)
(-6.23173e-22 6.33818e-24 -0.00788347)
(5.04381e-22 3.82166e-21 -0.00708443)
(-1.43698e-22 6.63615e-24 -0.00633091)
(-1.68397e-22 3.68301e-25 -0.00562652)
(6.10716e-23 -1.65881e-25 -0.00497344)
(2.20666e-22 4.76659e-21 -0.00437264)
(9.9355e-25 -1.55182e-24 -0.00382409)
(-1.99621e-22 -5.17639e-21 -0.00332688)
(1.92213e-22 5.3679e-21 -0.00287942)
(-2.53274e-22 -5.52421e-21 -0.00247952)
(9.37381e-22 5.19485e-20 -0.00212458)
(-8.42042e-22 -5.22792e-20 -0.00181167)
(-3.67605e-22 -4.25779e-20 -0.00153763)
(8.62248e-22 9.2398e-20 -0.00129919)
(-4.79598e-22 -4.99437e-20 -0.00109301)
(-6.67746e-23 -6.40125e-21 -0.000915829)
(6.343e-23 6.55018e-21 -0.000764428)
(-3.76092e-23 -1.62384e-25 -0.000635751)
(1.42826e-22 6.74796e-21 -0.000526917)
(-2.36988e-22 -3.44187e-20 -0.000435256)
(2.17028e-22 3.45897e-20 -0.000358326)
(-5.24884e-23 -7.04276e-21 -0.000293924)
(1.33299e-22 2.14096e-20 -0.000240084)
(1.26664e-23 -7.13723e-21 -0.000195071)
(-8.29099e-23 -1.45565e-20 -0.000157348)
(2.18876e-23 7.31022e-21 -0.000125552)
(-5.53729e-23 -7.4051e-21 -9.84777e-05)
(-1.53484e-20 2.50265e-20 0.0292951)
(2.99602e-20 -9.31766e-21 0.01145)
(-2.40612e-20 -2.2228e-20 -0.00363497)
(5.44825e-21 2.05283e-20 -0.0160044)
(-5.92245e-21 -1.99004e-20 -0.0259521)
(-1.19478e-20 6.02576e-21 -0.033777)
(1.04234e-20 5.7905e-21 -0.0397577)
(4.08721e-22 -1.51446e-21 -0.0441438)
(1.07634e-20 -9.30316e-21 -0.0471549)
(-1.99518e-20 5.11791e-21 -0.0489859)
(1.72728e-20 -4.90992e-21 -0.0498114)
(1.33783e-20 4.15274e-20 -0.0497896)
(-2.31758e-20 -3.06937e-20 -0.0490644)
(-2.51616e-20 -7.1382e-20 -0.0477661)
(5.14378e-21 -2.19898e-20 -0.0460115)
(2.56534e-20 8.37506e-20 -0.0439049)
(-4.90843e-21 1.2393e-21 -0.0415387)
(-1.05984e-21 -4.14427e-21 -0.0389933)
(7.05742e-24 -6.28845e-23 -0.0363386)
(2.86263e-22 -6.26085e-25 -0.0336342)
(7.69212e-22 1.04918e-23 -0.0309305)
(-1.08992e-21 -3.64608e-21 -0.0282686)
(2.47411e-20 2.12959e-19 -0.0256818)
(-2.7357e-20 -2.2991e-19 -0.0231965)
(2.48258e-20 2.50918e-19 -0.0208334)
(-1.31453e-20 -1.19753e-19 -0.0186078)
(-2.34371e-20 -2.78778e-19 -0.0165292)
(1.14073e-20 1.42942e-19 -0.0146037)
(-1.45147e-22 -4.72008e-21 -0.0128336)
(-7.90545e-22 -1.00887e-20 -0.0112186)
(1.5602e-22 5.18905e-21 -0.0097557)
(-9.25801e-22 -1.61544e-20 -0.00843992)
(7.37573e-21 1.75107e-19 -0.00726466)
(-1.53693e-20 -3.73083e-19 -0.00622205)
(6.85552e-21 1.8067e-19 -0.00530332)
(-8.08372e-22 -1.82573e-20 -0.00449907)
(2.58728e-22 6.18796e-21 -0.00379955)
(-2.22525e-23 -5.33342e-23 -0.00319494)
(-2.92755e-21 -1.10312e-19 -0.00267551)
(2.48893e-21 9.76121e-20 -0.00223182)
(1.75786e-21 9.38874e-20 -0.00185484)
(-2.58582e-21 -1.27877e-19 -0.0015361)
(6.3581e-23 6.91951e-21 -0.00126774)
(5.13536e-22 3.49958e-20 -0.00104259)
(-1.12836e-21 -6.30467e-20 -0.00085416)
(7.33131e-25 -7.10211e-21 -0.000696696)
(-6.87759e-22 -5.04315e-20 -0.000565089)
(-1.33382e-22 -7.4739e-21 -0.000454821)
(1.66669e-22 1.44991e-20 -0.000361823)
(1.9634e-22 2.21084e-20 -0.000282375)
(-1.44917e-20 -9.69954e-22 0.0449366)
(-1.26324e-20 -1.51363e-20 0.0154917)
(3.47532e-20 2.90121e-20 -0.00949722)
(-4.35945e-20 -1.25121e-20 -0.0296394)
(1.79205e-20 1.13772e-20 -0.0455874)
(3.76679e-21 1.60447e-22 -0.0579522)
(5.03197e-21 -3.5852e-20 -0.0672654)
(4.8823e-20 2.4462e-20 -0.0739776)
(-2.22142e-20 4.92545e-20 -0.0784695)
(-8.77526e-20 -9.87436e-20 -0.081068)
(1.26317e-19 1.14609e-19 -0.0820653)
(-7.24979e-20 -5.40345e-20 -0.0817231)
(4.3022e-21 -1.08285e-20 -0.0802761)
(-2.6354e-21 -6.04123e-21 -0.0779351)
(9.73993e-20 1.96071e-19 -0.0748885)
(-3.48837e-21 4.05055e-20 -0.0713036)
(-9.08537e-20 -2.22711e-19 -0.0673277)
(8.02458e-21 3.64298e-21 -0.0630887)
(-4.03942e-21 1.51405e-22 -0.058697)
(1.45414e-22 -1.10892e-21 -0.0542463)
(4.66264e-20 2.00004e-19 -0.0498151)
(-4.54364e-20 -1.90711e-19 -0.045468)
(-4.37342e-20 -2.2727e-19 -0.0412561)
(4.6519e-20 2.39361e-19 -0.0372205)
(1.14163e-21 8.90366e-21 -0.0333918)
(-1.28139e-21 -8.62858e-21 -0.029793)
(1.14702e-21 9.15483e-21 -0.0264383)
(-3.42955e-20 -2.97885e-19 -0.0233355)
(3.61349e-20 3.07592e-19 -0.0204874)
(-3.0162e-20 -3.12394e-19 -0.0178923)
(3.22527e-20 3.33461e-19 -0.0155445)
(7.21483e-22 1.10115e-20 -0.0134352)
(2.6348e-20 3.66181e-19 -0.0115533)
(-5.04814e-20 -7.31911e-19 -0.00988544)
(2.51943e-20 3.89311e-19 -0.00841718)
(1.16102e-20 2.09241e-19 -0.00713305)
(-1.02834e-20 -1.85149e-19 -0.00601714)
(3.1623e-22 8.32394e-23 -0.00505347)
(-4.27237e-22 -6.25901e-23 -0.00422625)
(-4.04391e-23 8.35549e-23 -0.00352024)
(7.26145e-21 2.15257e-19 -0.00292089)
(-7.03267e-21 -2.02197e-19 -0.00241455)
(5.55296e-22 1.38467e-20 -0.0019886)
(-2.81414e-22 -7.42141e-24 -0.00163154)
(2.60575e-21 1.12967e-19 -0.00133298)
(-4.81147e-21 -2.13181e-19 -0.00108371)
(2.36618e-21 1.14373e-19 -0.000875531)
(-1.1869e-21 -5.81921e-20 -0.000701195)
(8.93793e-22 4.35472e-20 -0.000554018)
(2.12667e-22 1.46042e-20 -0.000427464)
(1.80926e-21 2.70694e-20 0.0535972)
(8.81517e-21 -5.46394e-20 0.0131474)
(-5.68398e-20 2.64511e-20 -0.0212434)
(7.32363e-20 4.86348e-20 -0.0482014)
(-4.58791e-22 -8.71393e-20 -0.0690291)
(1.4379e-20 4.97236e-20 -0.0848122)
(-3.07458e-20 -9.33243e-21 -0.0964154)
(3.68661e-20 5.17231e-20 -0.104527)
(-1.17922e-19 -1.04659e-19 -0.109701)
(1.14188e-19 3.99083e-20 -0.1124)
(-2.18508e-20 1.27471e-20 -0.113026)
(-1.13483e-20 7.26079e-22 -0.111934)
(1.5984e-20 9.09077e-21 -0.109436)
(-1.35758e-19 -2.08468e-19 -0.105814)
(1.20739e-19 1.88381e-19 -0.101315)
(-4.22574e-21 1.47457e-20 -0.0961595)
(4.28468e-21 -8.07317e-21 -0.0905388)
(1.32287e-19 3.34543e-19 -0.0846187)
(-1.34277e-19 -3.25968e-19 -0.0785412)
(-1.21899e-21 -1.03175e-20 -0.072426)
(-1.06118e-21 -5.00135e-23 -0.0663731)
(1.48958e-21 4.19616e-22 -0.0604639)
(6.64157e-22 -2.36024e-23 -0.0547631)
(-4.45638e-23 8.17338e-21 -0.0493207)
(1.91548e-21 3.42298e-22 -0.0441745)
(1.4477e-21 9.21504e-21 -0.0393507)
(-1.06924e-19 -6.19471e-19 -0.0348656)
(1.06174e-19 6.09904e-19 -0.0307271)
(-4.21701e-22 4.62024e-22 -0.0269365)
(-4.41382e-20 -3.41906e-19 -0.0234894)
(4.63256e-20 3.53258e-19 -0.0203766)
(4.27576e-23 2.98677e-24 -0.0175849)
(-1.97827e-22 -2.98144e-22 -0.0150982)
(-3.56774e-20 -3.94343e-19 -0.0128979)
(6.77653e-20 7.86602e-19 -0.0109637)
(-6.16776e-20 -7.91368e-19 -0.0092746)
(5.76582e-20 8.07204e-19 -0.00780881)
(-5.33227e-20 -8.21954e-19 -0.00654474)
(2.54865e-20 4.1486e-19 -0.00546116)
(1.08409e-20 2.1333e-19 -0.00453762)
(-9.55494e-21 -1.86849e-19 -0.00375467)
(-7.72246e-22 -1.36514e-20 -0.00309415)
(-8.52854e-21 -2.21404e-19 -0.00253929)
(1.77553e-20 4.73516e-19 -0.00207484)
(-8.12833e-21 -2.24231e-19 -0.00168707)
(8.88937e-23 1.0991e-22 -0.00136379)
(3.3623e-22 1.43081e-20 -0.00109421)
(-8.14888e-23 -3.98948e-23 -0.000868671)
(-3.09035e-22 -1.45274e-20 -0.000678056)
(6.66634e-22 2.92999e-20 -0.000512583)
(2.76004e-20 9.62547e-23 0.0507716)
(2.94498e-22 3.51961e-22 -3.08754e-05)
(-6.19382e-20 3.12438e-22 -0.042574)
(9.05738e-20 -5.41246e-22 -0.0744893)
(-2.74499e-20 -6.43828e-22 -0.0982666)
(-4.23308e-20 -9.41628e-22 -0.115681)
(1.46943e-20 6.45181e-22 -0.128005)
(-1.07206e-20 -1.06543e-21 -0.136185)
(8.43301e-20 -2.3516e-20 -0.14094)
(1.6751e-19 2.66128e-19 -0.142847)
(9.7153e-21 9.05469e-20 -0.142395)
(-2.10302e-19 -3.41217e-19 -0.140006)
(2.64772e-19 4.30133e-19 -0.136054)
(-2.80798e-19 -4.23882e-19 -0.130867)
(1.41043e-19 2.71127e-19 -0.124736)
(-1.51681e-19 -2.83163e-19 -0.117914)
(5.32445e-21 -1.24574e-21 -0.110623)