/*--------------------------------*- C++ -*----------------------------------*\
| =========                 |                                                 |
| \\      /  F ield         | OpenFOAM: The Open Source CFD Toolbox           |
|  \\    /   O peration     | Version:  2412                                  |
|   \\  /    A nd           | Website:  www.openfoam.com                      |
|    \\/     M anipulation  |                                                 |
\*---------------------------------------------------------------------------*/
FoamFile
{
    version     2.0;
    format      ascii;
    arch        "LSB;label=32;scalar=64";
    class       surfaceScalarField;
    location    "6.5";
    object      phi;
}
// * * * * * * * * * * * * * * * * * * * * * * * * * * * * * * * * * * * * * //

dimensions      [0 3 -1 0 0 0 0];

oriented        oriented;

internalField   nonuniform List<scalar> 
10422
(
0.00562235
4.48018e-05
-0.00562422
-4.29358e-05
0.00562005
5.63621e-05
-5.40615e-05
0.00561734
6.74743e-05
-6.4766e-05
0.00561424
7.80795e-05
-7.49724e-05
0.00561073
8.81398e-05
-8.46299e-05
0.0056068
9.76346e-05
-9.37093e-05
0.00560244
0.000106559
-0.000102202
0.00559764
0.000114915
-0.000110112
0.00559239
0.00012271
-0.000117456
0.00558669
0.000129954
-0.000124256
0.00558057
0.000136663
-0.000130543
0.00557406
0.000142861
-0.000136354
0.00556722
0.000148579
-0.000141734
0.00556009
0.000153859
-0.000146728
0.00555273
0.000158743
-0.000151384
0.00554519
0.000163275
-0.000155741
0.00553753
0.000167489
-0.000159829
0.00552979
0.00017141
-0.000163668
0.005522
0.000175053
-0.000167264
0.0055142
0.000178418
-0.000170614
0.0055064
0.000181501
-0.000173704
0.00549864
0.000184288
-0.000176522
0.00549092
0.000186767
-0.000179049
0.000188926
-0.000181274
0.00563192
4.67284e-05
-0.00563385
0.00562957
5.87166e-05
0.00562681
7.02342e-05
0.00562365
8.12403e-05
0.00562007
9.17127e-05
0.00561607
0.000101642
0.0056116
0.000111026
0.00560665
0.000119867
0.0056012
0.00012816
0.00559525
0.000135902
0.00558882
0.000143088
0.00558196
0.000149725
0.00557471
0.000155832
0.00556713
0.000161438
0.00555929
0.000166583
0.00555125
0.000171312
0.00554308
0.000175664
0.00553481
0.000179672
0.00552651
0.000183357
0.0055182
0.000186729
0.00550991
0.000189788
0.00550167
0.000192528
0.0054935
0.000194938
0.000197011
0.00564222
4.87381e-05
-0.00564423
0.00563978
6.11607e-05
0.00563692
7.30918e-05
0.00563365
8.45099e-05
0.00562995
9.54105e-05
0.0056258
0.000105796
0.00562115
0.00011567
0.00561599
0.000125032
0.00561028
0.000133866
0.00560403
0.00014215
0.00559726
0.000149861
0.00559
0.000156984
0.00558231
0.000163521
0.00557426
0.00016949
0.00556592
0.000174926
0.00555736
0.000179871
0.00554865
0.000184373
0.00553985
0.00018847
0.00553101
0.000192194
0.00552218
0.000195563
0.00551338
0.000198585
0.00550465
0.000201258
0.00549601
0.00020358
0.000205544
0.00565333
5.08587e-05
-0.00565545
0.00565075
6.37374e-05
0.00564774
7.61037e-05
0.00564429
8.79563e-05
0.00564039
9.93094e-05
0.00563601
0.000110178
0.00563111
0.000120573
0.00562565
0.000130488
0.00561962
0.000139898
0.00561301
0.000148762
0.00560583
0.000157036
0.00559813
0.000164682
0.00558997
0.000171682
0.00558142
0.000178043
0.00557255
0.000183791
0.00556346
0.000188971
0.0055542
0.000193631
0.00554485
0.00019782
0.00553546
0.000201579
0.00552609
0.000204934
0.00551677
0.000207904
0.00550754
0.000210494
0.00549841
0.000212706
0.000214539
0.0056653
5.31222e-05
-0.00566757
0.00566255
6.64948e-05
0.00565932
7.93327e-05
0.00565562
9.16552e-05
0.00565143
0.000103495
0.00564673
0.000114879
0.00564148
0.000125825
0.00563564
0.000136323
0.0056292
0.000146338
0.00562216
0.000155811
0.00561452
0.000164674
0.00560633
0.000172868
0.00559766
0.000180356
0.00558857
0.000187128
0.00557916
0.000193205
0.0055695
0.000198629
0.00555968
0.000203454
0.00554976
0.000207736
0.00553982
0.000211523
0.0055299
0.000214856
0.00552004
0.000217759
0.00551029
0.000220247
0.00550066
0.000222329
0.000224009
0.00567819
5.55623e-05
-0.00568063
0.00567521
6.94827e-05
0.00567169
8.28438e-05
0.00566767
9.56842e-05
0.00566311
0.000108053
0.00565799
0.000119992
0.0056523
0.000131521
0.00564599
0.000142631
0.00563905
0.000153274
0.00563149
0.000163374
0.00562332
0.000172843
0.00561459
0.0001816
0.00560536
0.000189588
0.0055957
0.000196783
0.00558571
0.000203197
0.00557547
0.000208871
0.00556506
0.000213862
0.00555456
0.000218233
0.00554405
0.000222043
0.00553356
0.000225341
0.00552316
0.000228163
0.00551287
0.000230533
0.00550274
0.000232464
0.000233967
0.00569203
5.82134e-05
-0.00569468
0.00568876
7.27505e-05
0.0056849
8.67005e-05
0.00568047
0.000100119
0.00567545
0.000113071
0.00566983
0.000125608
0.0056636
0.000137756
0.00565673
0.000149503
0.00564921
0.000160793
0.00564105
0.000171533
0.00563228
0.000181616
0.00562293
0.000190941
0.00561309
0.000199431
0.00560282
0.000207051
0.00559222
0.000213803
0.00558136
0.000219726
0.00557034
0.000224879
0.00555924
0.000229333
0.00554813
0.000233157
0.00553706
0.000236409
0.00552609
0.000239134
0.00551526
0.000241365
0.0055046
0.000243124
0.000244427
0.00570682
6.11098e-05
-0.00570972
0.00570323
7.6346e-05
0.00569896
9.09631e-05
0.00569405
0.000105031
0.0056885
0.000118628
0.00568229
0.000131813
0.00567543
0.000144618
0.0056679
0.000157029
0.00565971
0.000168981
0.00565088
0.000180369
0.00564143
0.000191068
0.00563141
0.000200958
0.00562089
0.000209946
0.00560996
0.000217985
0.0055987
0.000225068
0.00558719
0.000231231
0.00557553
0.000236539
0.0055638
0.000241066
0.00555206
0.000244891
0.00554039
0.000248081
0.00552883
0.000250692
0.00551743
0.000252764
0.00550623
0.000254328
0.000255405
0.0057226
6.42857e-05
-0.00572578
0.00571863
8.0315e-05
0.00571391
9.56881e-05
0.00570845
0.000110486
0.00570229
0.000124797
0.00569541
0.000138687
0.00568784
0.000152191
0.00567957
0.000165294
0.00567063
0.000177924
0.00566104
0.000189965
0.00565083
0.000201276
0.00564006
0.000211722
0.00562881
0.000221198
0.00561715
0.000229642
0.00560518
0.000237043
0.00559297
0.000243435
0.00558063
0.000248882
0.00556823
0.000253468
0.00555584
0.000257277
0.00554354
0.000260387
0.00553136
0.000262862
0.00551938
0.000264752
0.00550761
0.000266095
0.00026692
0.0057394
6.77756e-05
-0.00574289
0.00573501
8.47022e-05
0.00572977
0.000100929
0.00572371
0.000116546
0.00571686
0.000131648
0.00570924
0.000146305
0.00570088
0.000160554
0.0056918
0.000174379
0.00568202
0.000187703
0.00567158
0.0002004
0.00566054
0.000212319
0.00564895
0.000223311
0.00563689
0.000233259
0.00562444
0.000242091
0.00561169
0.000249792
0.00559874
0.000256392
0.00558566
0.00026196
0.00557254
0.000266584
0.00555946
0.000270356
0.00554649
0.000273363
0.00553367
0.000275677
0.00552107
0.000277357
0.00550871
0.00027845
0.000278992
0.00575726
7.16156e-05
-0.0057611
0.00575241
8.95526e-05
0.0057466
0.00010674
0.00573987
0.000123272
0.00573227
0.000139247
0.00572384
0.000154738
0.00571461
0.000169782
0.00570463
0.000184363
0.00569393
0.0001984
0.00568257
0.000211759
0.00567061
0.00022428
0.00565812
0.000235805
0.00564517
0.000246206
0.00563186
0.000255405
0.00561827
0.000263382
0.00560449
0.000270167
0.00559062
0.000275831
0.00557674
0.000280467
0.00556292
0.000284174
0.00554924
0.000287049
0.00553574
0.000289172
0.00552249
0.000290611
0.00550952
0.000291421
0.000291644
0.00577623
7.58439e-05
-0.00578046
0.00577087
9.4913e-05
0.00576444
0.000113174
0.00575699
0.000130723
0.00574857
0.00014766
0.00573925
0.000164058
0.00572908
0.000179953
0.00571812
0.000195328
0.00570642
0.000210098
0.00569405
0.000224127
0.00568109
0.000237245
0.0056676
0.000249288
0.00565368
0.000260123
0.00563942
0.000269664
0.00562492
0.000277889
0.00561025
0.00028483
0.00559553
0.000290559
0.00558082
0.000295175
0.00556621
0.000298785
0.00555176
0.000301493
0.00553755
0.000303389
0.00552361
0.00030455
0.00550999
0.000305038
0.000304903
0.00579641
8.05026e-05
-0.00580106
0.00579048
0.000100834
0.00578337
0.00012029
0.00577513
0.000138966
0.00576582
0.000156961
0.00575554
0.000174343
0.00574434
0.000191149
0.00573231
0.000207359
0.00571952
0.000222888
0.00570606
0.000237595
0.00569199
0.000251307
0.00567743
0.000263855
0.00566245
0.0002751
0.00564716
0.000284957
0.00563165
0.000293399
0.00561602
0.00030046
0.00560036
0.000306217
0.00558476
0.000310774
0.0055693
0.000314247
0.00555404
0.000316747
0.00553906
0.000318374
0.0055244
0.000319212
0.0055101
0.000319333
0.000318795
0.00581787
8.56383e-05
-0.00582301
0.00581133
0.000107373
0.00580347
0.000128154
0.00579436
0.000148074
0.0057841
0.000167227
0.00577276
0.000185677
0.00576045
0.000203459
0.00574726
0.000220551
0.00573328
0.000236866
0.00571862
0.000252262
0.00570336
0.000266566
0.00568761
0.000279604
0.00567147
0.000291237
0.00565505
0.000301377
0.00563845
0.000309999
0.00562177
0.000317141
0.0056051
0.000322882
0.00558854
0.000327336
0.00557216
0.000330624
0.00555604
0.000332867
0.00554024
0.000334174
0.00552482
0.00033464
0.00550981
0.000334342
0.000333349
0.00584074
9.1304e-05
-0.00584641
0.00583352
0.000114594
0.00582484
0.00013684
0.00581478
0.000158128
0.00580346
0.000178548
0.00579098
0.000198156
0.00577746
0.000216984
0.005763
0.000235007
0.00574773
0.000252139
0.00573175
0.000268239
0.00571519
0.000283131
0.00569815
0.000296645
0.00568074
0.000308639
0.00566309
0.000319027
0.0056453
0.000327789
0.00562748
0.000334963
0.00560972
0.000340639
0.00559213
0.000344935
0.00557477
0.000347983
0.00555772
0.000349912
0.00554105
0.000350842
0.00552482
0.000350875
0.00550906
0.0003501
0.000348593
0.00586515
9.75598e-05
-0.00587141
0.00585718
0.00012257
0.00584758
0.000146432
0.00583649
0.000169225
0.00582401
0.000191028
0.00581027
0.000211891
0.00579542
0.000231839
0.00577958
0.000250847
0.00576289
0.00026883
0.00574548
0.000285647
0.00572749
0.000301125
0.00570903
0.000315096
0.00569025
0.000327421
0.00567126
0.000338018
0.00565218
0.00034687
0.00563312
0.000354025
0.00561418
0.000359576
0.00559546
0.000363653
0.00557705
0.000366395
0.00555902
0.000367944
0.00554143
0.000368429
0.00552435
0.000367963
0.0055078
0.000366644
0.000364557
0.00589124
0.000104475
-0.00589816
0.00588243
0.000131387
0.00587183
0.00015703
0.00585958
0.000181473
0.00584582
0.000204786
0.00583071
0.000227007
0.00581439
0.000248156
0.00579703
0.000268207
0.00577878
0.000287075
0.00575981
0.000304622
0.00574025
0.000320682
0.00572026
0.000335089
0.00569997
0.00034771
0.00567952
0.000358469
0.00565903
0.000367357
0.00563863
0.000374428
0.00561842
0.000379786
0.0055985
0.000383571
0.00557896
0.000385934
0.00555988
0.000387027
0.00554132
0.00038699
0.00552333
0.000385948
0.00550597
0.00038401
0.000381268
0.00591918
-0.00592684
0.00590943
0.00589771
0.00588418
0.00586901
0.00585236
0.00583443
0.0058154
0.00579544
0.00577474
0.00575347
0.00573179
0.00570986
0.00568782
0.00038051
0.00566581
0.000389368
0.00564395
0.000396282
0.00562237
0.000401369
0.00560116
0.000404778
0.00558042
0.000406676
0.00556022
0.000407225
0.00554063
0.00040658
0.00552171
0.000404875
0.00550348
0.000402232
0.000398753
0.00569611
0.00567244
0.00564902
0.00562596
0.00560337
0.00558135
0.00555997
0.00553929
0.00551938
0.00550027
0.00532065
-3.98778e-05
-0.00531242
3.16391e-05
0.00534164
-4.28066e-05
2.18163e-05
0.00537514
-4.51923e-05
1.16952e-05
0.00542075
-4.69387e-05
1.32848e-06
0.00547794
-4.79823e-05
-9.20411e-06
0.00554603
-4.82905e-05
-1.97995e-05
-4.7848e-05
-3.03421e-05
0.00532945
-4.81793e-05
-0.00532115
0.00535051
-6.38713e-05
0.0053841
-7.87809e-05
0.00542983
-9.2664e-05
0.00548716
-0.000105315
0.00555543
-0.000116564
-0.000126264
0.00533883
-5.65678e-05
-0.00533044
0.00535999
-8.50371e-05
0.0053937
-0.000112489
0.00543957
-0.000138534
0.00549708
-0.000162822
0.00556556
-0.000185048
-0.000204932
0.00534884
-6.50745e-05
-0.00534034
0.00537014
-0.000106338
0.00540401
-0.000146353
0.00545006
-0.000184584
0.00550778
-0.000220539
0.0055765
-0.000253775
-0.000283876
0.00535955
-7.37351e-05
-0.00535089
0.00538103
-0.000127811
0.00541509
-0.000180412
0.00546136
-0.000230854
0.00551932
-0.000278503
0.00558832
-0.000322776
-0.000363122
0.00537099
-8.25871e-05
-0.00536214
0.00539268
-0.000149498
0.00542698
-0.000214707
0.00547351
-0.000277384
0.00553175
-0.000336751
0.00560106
-0.000392084
-0.000442694
0.0053832
-9.1668e-05
-0.00537412
0.00540514
-0.000171436
0.00543971
-0.000249278
0.00548654
-0.000324213
0.00554511
-0.000395319
0.00561475
-0.00046173
-0.000522618
0.00539621
-0.000101014
-0.00538686
0.00541844
-0.000193664
0.00545332
-0.00028416
0.00550048
-0.000371376
0.0055594
-0.000454239
0.00562942
-0.000531744
-0.000602919
0.00541005
-0.000110659
-0.00540041
0.0054326
-0.000216215
0.00546783
-0.00031939
0.00551536
-0.000418906
0.00557467
-0.000513544
0.00564508
-0.000602153
-0.000683624
0.00542476
-0.000120637
-0.00541478
0.00544767
-0.000239122
0.00548328
-0.000354998
0.00553121
-0.000466833
0.00559092
-0.000573261
0.00566176
-0.000672986
-0.000764759
0.00544039
-0.000130977
-0.00543005
0.00546368
-0.000262416
0.0054997
-0.000391015
0.00554806
-0.000515189
0.00560822
-0.000633421
0.0056795
-0.000744272
-0.000846354
0.00545698
-0.000141714
-0.00544624
0.00548069
-0.000286131
0.00551715
-0.000427473
0.00556597
-0.000564003
0.0056266
-0.000694054
0.00569837
-0.000816043
-0.000928445
0.0054746
-0.000152882
-0.00546343
0.00549877
-0.000310299
0.0055357
-0.000464405
0.00558501
-0.000613309
0.00564615
-0.000755194
0.00571844
-0.000888335
-0.00101107
0.00549333
-0.000164519
-0.00548169
0.00551799
-0.000334959
0.00555543
-0.000501849
0.00560527
-0.000663146
0.00566695
-0.00081688
0.00573981
-0.00096119
-0.00109427
0.00551324
-0.000176668
-0.00550109
0.00553843
-0.000360152
0.00557643
-0.000539846
0.00562684
-0.000713554
0.00568912
-0.000879157
0.00576258
-0.00103465
-0.0011781
0.00553444
-0.000189376
-0.00552173
0.00556022
-0.000385927
0.00559882
-0.000578446
0.00564985
-0.000764585
0.00571277
-0.000942076
0.00578689
-0.00110878
-0.00126261
0.00555704
-0.000202701
-0.00554372
0.00558346
-0.000412339
0.00562271
-0.000617703
0.00567442
-0.000816294
0.00573804
-0.00100569
0.00581289
-0.00118363
-0.00134788
0.00558117
-0.000216706
-0.00556716
0.00560828
-0.000439453
0.00564826
-0.000657684
0.00570072
-0.000868747
0.0057651
-0.00107008
0.00584075
-0.00125927
-0.00143397
0.00560696
-0.000231467
-0.0055922
0.00563485
-0.000467344
0.00567563
0.0057289
0.00579414
0.00587065
0.00563458
-0.00561898
0.00552474
-1.69328e-05
-0.00559947
9.16638e-05
0.0054601
-1.93177e-05
8.3952e-05
0.0054064
-2.22654e-05
7.59682e-05
0.00536432
-2.56251e-05
6.7708e-05
0.0053344
-2.92362e-05
5.91593e-05
0.00531702
-3.29307e-05
5.03077e-05
-3.65342e-05
4.11376e-05
0.00553324
5.77939e-05
-0.00560797
0.00546863
4.52984e-05
0.00541495
3.14098e-05
0.00537291
1.64217e-05
0.00534302
6.45316e-07
0.00532569
-1.5602e-05
-3.19854e-05
0.00554221
0.000132507
-0.00561692
0.00547762
0.000109886
0.00542399
8.50441e-05
0.00538199
5.8418e-05
0.00535217
3.0465e-05
0.00533491
1.65962e-06
-2.75131e-05
0.00555166
0.000207193
-0.00562634
0.00548711
0.000174431
0.00543354
0.000138621
0.00539161
0.000100343
0.00536187
6.02037e-05
0.0053447
1.88272e-05
-2.31452e-05
0.00556162
0.000281837
-0.00563626
0.00549713
0.000238916
0.00544363
0.00019212
0.0054018
0.000142175
0.00537217
8.98346e-05
0.00535512
3.58729e-05
-1.89146e-05
0.00557211
0.000356423
-0.00564669
0.0055077
0.000303322
0.0054543
0.00024552
0.00541259
0.000183889
0.00538309
0.00011933
0.0053662
5.27652e-05
-1.48557e-05
0.00558316
0.000430932
-0.00565767
0.00551886
0.000367629
0.00546558
0.000298797
0.00542401
0.000225459
0.00539468
0.00014866
0.00537797
6.94718e-05
-1.10035e-05
0.00559482
0.000505346
-0.00566923
0.00553063
0.000431816
0.0054775
0.000351929
0.0054361
0.000266858
0.00540696
0.000177795
0.00539048
8.59606e-05
-7.39213e-06
0.0056071
0.000579647
-0.0056814
0.00554306
0.000495861
0.0054901
0.000404889
0.00544889
0.000308059
0.00541998
0.000206706
0.00540374
0.0001022
-4.05424e-06
0.00562005
0.000653811
-0.00569422
0.00555617
0.000559741
0.00550341
0.000457653
0.00546243
0.000349034
0.00543378
0.000235364
0.00541782
0.000118158
-1.0221e-06
0.00563371
0.000727816
-0.00570771
0.00557002
0.00062343
0.00551748
0.000510193
0.00547676
0.000389753
0.00544839
0.000263737
0.00543274
0.000133806
1.66732e-06
0.00564811
0.000801636
-0.00572193
0.00558464
0.0006869
0.00553236
0.000562479
0.00549192
0.000430186
0.00546387
0.000291795
0.00544856
0.000149109
3.98693e-06
0.00566331
0.000875241
-0.00573691
0.00560009
0.00075012
0.00554809
0.000614478
0.00550798
0.000470298
0.00548027
0.000319501
0.00546535
0.000164033
5.90097e-06
0.00567934
0.000948597
-0.0057527
0.00561641
0.000813055
0.00556473
0.000666154
0.00552498
0.000510052
0.00549766
0.000346817
0.00548316
0.000178538
7.37075e-06
0.00569627
0.00102166
-0.00576934
0.00563366
0.000875662
0.00558235
0.000717462
0.005543
0.000549403
0.00551612
0.0003737
0.00550208
0.000192582
8.35313e-06
0.00571414
0.00109439
-0.00578687
0.00565191
0.000937896
0.00560101
0.000768356
0.00556211
0.000588303
0.00553571
0.000400099
0.00552218
0.000206114
8.79901e-06
0.00573301
0.00116673
-0.00580535
0.00567121
0.000999699
0.00562079
0.000818778
0.0055824
0.000626694
0.00555654
0.000425958
0.00554357
0.000219078
8.65198e-06
0.00575295
0.00123861
-0.00582483
0.00569164
0.00106101
0.00564176
0.000868661
0.00560394
0.000664509
0.00557869
0.000451211
0.00556636
0.000231408
7.84701e-06
0.00577402
0.00571328
0.00566401
0.00562685
0.00560228
0.00559066
0.000243028
6.30907e-06
0.00561662
0.00537565
-0.000178252
0.000173338
0.00538075
-0.000180483
0.00017538
0.00538604
-0.000182595
0.000177302
0.00539153
-0.000184575
0.00017909
0.0053972
-0.000186409
0.000180733
0.00540307
-0.000188084
0.000182217
0.00540912
-0.000189584
0.000183529
0.00541536
-0.000190894
0.000184654
0.00542179
-0.000191999
0.000185578
0.00542838
-0.000192882
0.000186285
0.00543515
-0.000193526
0.000186761
0.00544207
-0.000193914
0.000186989
0.00544915
-0.00019403
0.000186953
0.00545637
-0.000193856
0.000186638
0.00546371
-0.000193374
0.000186029
0.00547117
-0.000192568
0.000185109
0.00547873
-0.000191421
0.000183864
0.00548637
-0.000189916
0.000182279
0.00549406
-0.00018804
0.000180341
0.0055018
-0.000185776
0.000178036
0.00550956
-0.000183113
0.000175355
0.00551731
-0.000180037
0.000172285
0.00552504
-0.000176539
0.000168818
0.0055327
-0.000172611
0.000164947
0.00554028
-0.000168244
0.000160667
0.00554774
-0.000163436
0.000155975
0.00555505
-0.000158185
0.000150869
0.00556219
-0.00015249
0.000145352
0.00556912
-0.000146357
0.000139428
0.00557581
-0.00013979
0.000133104
0.00558222
-0.000132801
0.000126389
0.00558833
-0.0001254
0.000119295
0.00559409
-0.000117601
0.000111837
-0.000109406
0.000104025
0.00537349
-0.000183273
0.00537871
-0.000185704
0.00538413
-0.00018802
0.00538976
-0.000190204
0.0053956
-0.000192244
0.00540164
-0.000194124
0.00540788
-0.000195828
0.00541433
-0.000197339
0.00542097
-0.000198642
0.00542781
-0.000199717
0.00543483
-0.000200547
0.00544203
-0.000201113
0.00544939
-0.000201397
0.00545692
-0.00020138
0.00546459
-0.000201043
0.00547239
-0.000200367
0.0054803
-0.000199334
0.00548831
-0.000197925
0.00549639
-0.000196124
0.00550453
-0.000193915
0.0055127
-0.000191281
0.00552087
-0.00018821
0.00552902
-0.00018469
0.00553712
-0.000180709
0.00554514
-0.000176261
0.00555304
-0.000171339
0.0055608
-0.00016594
0.00556837
-0.000160063
0.00557573
-0.000153713
0.00558283
-0.000146895
0.00558964
-0.000139616
0.00559613
-0.00013189
0.00560226
-0.000123725
-0.000115117
0.00537114
-0.000188396
0.00537647
-0.000191042
0.00538203
-0.000193574
0.0053878
-0.000195979
0.0053938
-0.000198239
0.00540001
-0.00020034
0.00540645
-0.000202265
0.0054131
-0.000203994
0.00541997
-0.000205512
0.00542706
-0.000206797
0.00543434
-0.000207831
0.00544182
-0.000208594
0.00544949
-0.000209065
0.00545733
-0.000209225
0.00546534
-0.000209051
0.0054735
-0.000208523
0.00548178
-0.000207621
0.00549019
-0.000206326
0.00549868
-0.000204616
0.00550724
-0.000202476
0.00551584
-0.000199886
0.00552446
-0.000196831
0.00553307
-0.000193298
0.00554164
-0.000189274
0.00555012
-0.000184748
0.0055585
-0.000179715
0.00556673
-0.000174168
0.00557477
-0.000168107
0.00558259
-0.000161534
0.00559015
-0.000154453
0.00559741
-0.000146872
0.00560432
-0.000138801
0.00561084
-0.000130249
-0.000121197
0.00536857
-0.000193618
0.00537402
-0.000196492
0.0053797
-0.000199257
0.00538562
-0.000201896
0.00539177
-0.000204394
0.00539817
-0.000206734
0.0054048
-0.000208896
0.00541166
-0.000210862
0.00541877
-0.000212613
0.0054261
-0.000214129
0.00543365
-0.000215387
0.00544143
-0.000216367
0.00544941
-0.000217046
0.00545758
-0.000217402
0.00546595
-0.000217412
0.00547448
-0.000217053
0.00548316
-0.000216302
0.00549197
-0.000215138
0.00550089
-0.000213539
0.0055099
-0.000211484
0.00551897
-0.000208954
0.00552807
-0.000205929
0.00553716
-0.000202395
0.00554623
-0.000198337
0.00555522
-0.000193742
0.00556411
-0.000188601
0.00557285
-0.000182909
0.0055814
-0.000176661
0.00558973
-0.000169859
0.00559778
-0.000162505
0.00560552
-0.000154608
0.00561289
-0.000146175
0.00561985
-0.000137212
-0.000127688
0.00536576
-0.000198936
0.00537132
-0.000202053
0.00537713
-0.000205065
0.00538319
-0.000207956
0.0053895
-0.000210708
0.00539607
-0.000213303
0.0054029
-0.000215723
0.00540998
-0.000217946
0.00541732
-0.000219951
0.00542491
-0.000221717
0.00543274
-0.000223222
0.00544082
-0.000224441
0.00544912
-0.00022535
0.00545764
-0.000225925
0.00546637
-0.000226141
0.0054753
-0.000225974
0.00548439
-0.000225397
0.00549364
-0.000224386
0.00550301
-0.000222917
0.0055125
-0.000220967
0.00552206
-0.000218514
0.00553166
-0.000215536
0.00554128
-0.000212015
0.00555088
-0.000207935
0.00556042
-0.000203279
0.00556986
-0.000198038
0.00557915
-0.000192202
0.00558826
-0.000185767
0.00559713
-0.000178731
0.00560572
-0.000171096
0.00561398
-0.00016287
0.00562186
-0.000154058
0.00562931
-0.000144661
-0.000134636
0.0053627
-0.000204345
0.00536837
-0.000207719
0.0053743
-0.000210995
0.00538049
-0.000214154
0.00538696
-0.000217179
0.00539371
-0.00022005
0.00540073
-0.000222746
0.00540804
-0.000225246
0.00541561
-0.000227528
0.00542346
-0.000229568
0.00543158
-0.000231342
0.00543997
-0.000232824
0.0054486
-0.000233988
0.00545749
-0.000234807
0.0054666
-0.000235255
0.00547593
-0.000235303
0.00548546
-0.000234924
0.00549516
-0.000234091
0.00550502
-0.000232776
0.00551501
-0.000230953
0.00552509
-0.000228597
0.00553524
-0.000225685
0.00554542
-0.000222194
0.00555559
-0.000218105
0.00556571
-0.000213401
0.00557574
-0.000208067
0.00558563
-0.000202092
0.00559533
-0.00019547
0.0056048
-0.000188198
0.00561398
-0.000180275
0.00562281
-0.000171707
0.00563126
-0.000162498
0.00563924
-0.000152646
-0.000142089
0.00535937
-0.000209838
0.00536513
-0.000213486
0.00537118
-0.000217042
0.00537751
-0.000220488
0.00538414
-0.000223804
0.00539106
-0.000226971
0.00539828
-0.000229965
0.0054058
-0.000232766
0.00541362
-0.000235348
0.00542174
-0.000237686
0.00543015
-0.000239754
0.00543885
-0.000241525
0.00544783
-0.000242971
0.00545709
-0.000244062
0.0054666
-0.000244768
0.00547636
-0.00024506
0.00548634
-0.000244906
0.00549652
-0.000244276
0.00550689
-0.000243141
0.00551741
-0.00024147
0.00552805
-0.000239236
0.00553877
-0.000236411
0.00554955
-0.00023297
0.00556033
-0.000228889
0.00557108
-0.00022415
0.00558175
-0.000218734
0.00559228
-0.000212628
0.00560264
-0.000205822
0.00561275
-0.000198311
0.00562257
-0.000190094
0.00563203
-0.000181173
0.00564109
-0.000171551
0.00564966
-0.00016122
-0.000150103
0.00535575
-0.000215409
0.00536161
-0.000219347
0.00536777
-0.000223201
0.00537423
-0.000226952
0.00538101
-0.00023058
0.0053881
-0.000234064
0.00539551
-0.00023738
0.00540325
-0.000240504
0.00541131
-0.000243411
0.0054197
-0.000246074
0.00542841
-0.000248464
0.00543744
-0.000250553
0.00544678
-0.000252309
0.00545642
-0.000253701
0.00546634
-0.000254696
0.00547655
-0.000255261
0.005487
-0.000255363
0.00549769
-0.000254968
0.00550859
-0.000254041
0.00551967
-0.000252551
0.0055309
-0.000250465
0.00554224
-0.000247751
0.00555366
-0.000244383
0.0055651
-0.000240332
0.00557652
-0.000235574
0.00558788
-0.00023009
0.00559911
-0.000223861
0.00561017
-0.000216877
0.00562098
-0.000209127
0.0056315
-0.000200611
0.00564165
-0.000191327
0.00565138
-0.000181276
0.0056606
-0.000170444
-0.000158734
0.00535183
-0.000221048
0.00535777
-0.000225293
0.00536404
-0.000229464
0.00537062
-0.00023354
0.00537755
-0.000237502
0.00538481
-0.000241325
0.00539241
-0.000244986
0.00540037
-0.00024846
0.00540868
-0.000251719
0.00541734
-0.000254734
0.00542635
-0.000257476
0.00543571
-0.000259913
0.00544541
-0.000262011
0.00545545
-0.000263737
0.00546581
-0.000265054
0.00547647
-0.000265927
0.00548743
-0.000266318
0.00549865
-0.000266189
0.00551011
-0.000265505
0.00552179
-0.000264227
0.00553364
-0.000262319
0.00554564
-0.000259747
0.00555773
-0.000256477
0.00556988
-0.000252478
0.00558203
-0.000247723
0.00559412
-0.000242187
0.00560611
-0.000235849
0.00561793
-0.000228693
0.00562951
-0.000220708
0.00564078
-0.000211888
0.00565169
-0.000202232
0.00566215
-0.000191736
0.00567209
-0.000180382
-0.000168046
0.00534759
-0.000226747
0.00535361
-0.000231317
0.00535997
-0.000235823
0.00536668
-0.000240246
0.00537374
-0.000244562
0.00538116
-0.000248749
0.00538896
-0.000252781
0.00539713
-0.000256631
0.00540568
-0.00026027
0.00541462
-0.000263669
0.00542393
-0.000266794
0.00543363
-0.000269612
0.00544371
-0.000272087
0.00545415
-0.000274182
0.00546496
-0.000275857
0.0054761
-0.000277074
0.00548758
-0.000277791
0.00549935
-0.000277967
0.00551141
-0.000277561
0.00552372
-0.000276531
0.00553623
-0.000274837
0.00554893
-0.000272438
0.00556175
-0.000269298
0.00557465
-0.00026538
0.00558758
-0.000260651
0.00560047
-0.000255083
0.00561328
-0.000248651
0.00562592
-0.000241335
0.00563833
-0.000233119
0.00565044
-0.000223996
0.00566216
-0.000213959
0.00567343
-0.000203004
0.00568415
-0.000191104
-0.000178109
0.00534303
-0.000232495
0.00534912
-0.000237407
0.00535556
-0.000242269
0.00536237
-0.000247058
0.00536957
-0.000251753
0.00537714
-0.000256328
0.00538512
-0.000260758
0.0053935
-0.000265013
0.0054023
-0.000269064
0.00541151
-0.000272878
0.00542113
-0.00027642
0.00543118
-0.000279655
0.00544163
-0.000282544
0.0054525
-0.000285046
0.00546376
-0.000287119
0.00547541
-0.000288721
0.00548742
-0.000289805
0.00549978
-0.000290328
0.00551246
-0.000290241
0.00552543
-0.0002895
0.00553865
-0.000288058
0.00555208
-0.000285871
0.00556568
-0.000282895
0.00557939
-0.00027909
0.00559316
-0.000274417
0.00560692
-0.000268842
0.0056206
-0.000262335
0.00563414
-0.000254872
0.00564745
-0.000246434
0.00566046
-0.000237008
0.00567309
-0.000226585
0.00568524
-0.000215157
0.00569682
-0.000202687
-0.000188997
0.00533811
-0.000238278
0.00534426
-0.000243552
0.00535078
-0.000248789
0.00535769
-0.000253968
0.005365
-0.000259065
0.00537273
-0.000264055
0.00538088
-0.00026891
0.00538947
-0.000273601
0.0053985
-0.000278095
0.00540798
-0.000282359
0.00541792
-0.000286355
0.00542831
-0.000290046
0.00543915
-0.000293388
0.00545044
-0.00029634
0.00546218
-0.000298854
0.00547434
-0.000300885
0.00548692
-0.000302382
0.00549989
-0.000303296
0.00551322
-0.000303575
0.00552689
-0.000303168
0.00554086
-0.000302024
0.00555508
-0.000300091
0.0055695
-0.000297321
0.00558408
-0.000293666
0.00559874
-0.000289082
0.00561343
-0.00028353
0.00562807
-0.000276973
0.00564258
-0.000269381
0.00565688
-0.000260732
0.00567087
-0.000251006
0.00568448
-0.000240194
0.00569761
-0.000228279
0.00571014
-0.000215216
-0.000200795
0.00533284
-0.000244083
0.00533903
-0.000249737
0.00534561
-0.000255371
0.0053526
-0.000260962
0.00536002
-0.000266486
0.00536789
-0.000271918
0.0053762
-0.000277229
0.00538499
-0.000282387
0.00539425
-0.000287359
0.005404
-0.000292109
0.00541424
-0.000296598
0.00542498
-0.000300784
0.00543622
-0.000304624
0.00544795
-0.000308071
0.00546017
-0.000311074
0.00547287
-0.000313583
0.00548603
-0.000315543
0.00549963
-0.0003169
0.00551365
-0.000317596
0.00552806
-0.000317574
0.00554281
-0.000316777
0.00555787
-0.000315147
0.00557318
-0.000312629
0.00558868
-0.000309168
0.00560431
-0.000304714
0.00562
-0.000299219
0.00563567
-0.000292642
0.00565123
-0.000284945
0.0056666
-0.000276099
0.00568168
-0.000266083
0.00569636
-0.000254878
0.00571055
-0.000242464
0.00572412
-0.000228786
-0.000213593
0.00532719
-0.000249894
0.0053334
-0.000255947
0.00534002
-0.000261998
0.00534709
-0.000268024
0.0053546
-0.000274002
0.00536259
-0.000279904
0.00537106
-0.000285701
0.00538003
-0.000291359
0.00538952
-0.000296845
0.00539953
-0.00030212
0.00541008
-0.000307144
0.00542116
-0.000311871
0.00543279
-0.000316256
0.00544497
-0.000320246
0.00545769
-0.00032379
0.00547093
-0.00032683
0.0054847
-0.000329308
0.00549896
-0.000331164
0.0055137
-0.000332334
0.00552888
-0.000332755
0.00554447
-0.000332362
0.00556041
-0.000331091
0.00557666
-0.000328878
0.00559315
-0.000325662
0.00560982
-0.000321384
0.00562659
-0.000315989
0.00564338
-0.000309426
0.00566008
-0.000301652
0.00567662
-0.000292631
0.00569287
-0.000282335
0.00570873
-0.000270739
0.00572408
-0.000257818
0.0057388
-0.000243501
-0.000227494
0.00532113
-0.000255692
0.00532735
-0.000262163
0.005334
-0.000268653
0.00534112
-0.000275139
0.00534871
-0.000281596
0.0053568
-0.000287997
0.00536542
-0.000294312
0.00537456
-0.000300506
0.00538426
-0.000306544
0.00539453
-0.000312386
0.00540537
-0.000317988
0.0054168
-0.000323303
0.00542883
-0.000328282
0.00544145
-0.00033287
0.00545467
-0.000337009
0.00546848
-0.00034064
0.00548287
-0.000343697
0.00549782
-0.000346114
0.00551331
-0.000347821
0.0055293
-0.000348749
0.00554576
-0.000348825
0.00556265
-0.000347975
0.0055799
-0.00034613
0.00559745
-0.000343217
0.00561524
-0.000339169
0.00563317
-0.000333922
0.00565116
-0.000327417
0.00566911
-0.000319602
0.00568692
-0.000310433
0.00570445
-0.000299873
0.00572161
-0.000287892
0.00573824
-0.000274455
0.00575422
-0.000259477
-0.000242612
0.00531466
-0.000261457
0.00532086
-0.000268365
0.00532752
-0.000275315
0.00533467
-0.000282285
0.00534232
-0.000289249
0.0053505
-0.00029618
0.00535924
-0.000303045
0.00536854
-0.000309811
0.00537844
-0.000316441
0.00538895
-0.000322892
0.00540008
-0.000329119