/*--------------------------------*- C++ -*----------------------------------*\
| =========                 |                                                 |
| \\      /  F ield         | OpenFOAM: The Open Source CFD Toolbox           |
|  \\    /   O peration     | Version:  2412                                  |
|   \\  /    A nd           | Website:  www.openfoam.com                      |
|    \\/     M anipulation  |                                                 |
\*---------------------------------------------------------------------------*/
FoamFile
{
    version     2.0;
    format      ascii;
    arch        "LSB;label=32;scalar=64";
    class       surfaceScalarField;
    location    "22";
    object      phi;
}
// * * * * * * * * * * * * * * * * * * * * * * * * * * * * * * * * * * * * * //

dimensions      [0 3 -1 0 0 0 0];

oriented        oriented;

internalField   nonuniform List<scalar> 
10424
(
0.00544311
0.000274542
-0.00545082
-0.000266829
0.00543547
0.000277426
-0.000269788
0.00542792
0.000280094
-0.000272545
0.00542048
0.00028254
-0.000275091
0.00541314
0.000284755
-0.000277421
0.00540593
0.000286731
-0.000279524
0.00539887
0.000288462
-0.000281393
0.00539195
0.000289938
-0.000283021
0.00538519
0.000291155
-0.0002844
0.00537861
0.000292104
-0.000285522
0.00537221
0.00029278
-0.000286381
0.005366
0.000293176
-0.000286969
0.00536
0.000293289
-0.000287282
0.0053542
0.000293113
-0.000287314
0.00534861
0.000292646
-0.000287062
0.00534325
0.000291887
-0.000286524
0.00533811
0.000290835
-0.000285698
0.00533321
0.000289492
-0.000284585
0.00532853
0.00028786
-0.000283187
0.00532409
0.000285944
-0.000281506
0.00531989
0.00028375
-0.000279549
0.00531593
0.000281285
-0.000277322
0.00531221
0.000278556
-0.000274831
0.00530872
0.000275574
-0.000272085
0.00530546
0.000272349
-0.000269094
0.00530244
0.000268892
-0.000265869
0.00529964
0.000265215
-0.000262421
0.00529707
0.000261331
-0.000258761
0.00529472
0.000257253
-0.000254902
0.00529259
0.000252994
-0.000250857
0.00529066
0.000248567
-0.000246638
0.00528893
0.000243986
-0.000242259
0.0052874
0.000239266
-0.000237733
0.00528605
0.000234419
-0.000233073
0.00528489
0.000229459
-0.000228292
0.00528389
0.000224398
-0.000223401
0.00528305
0.000219248
-0.000218412
0.00528237
0.00021402
-0.000213335
0.00528182
0.000208722
-0.000208177
0.00528141
0.000203361
-0.000202948
0.00528112
0.000197947
-0.000197654
0.00528094
0.000192485
-0.000192302
0.00528085
0.000186983
-0.000186901
0.00018145
-0.000181459
0.00544075
0.000282471
-0.00544868
0.00543291
0.000285269
0.00542516
0.000287839
0.00541753
0.000290171
0.00541003
0.00029226
0.00540266
0.000294096
0.00539545
0.000295674
0.0053884
0.000296986
0.00538153
0.000298026
0.00537485
0.000298788
0.00536836
0.000299266
0.00536208
0.000299456
0.00535602
0.000299354
0.00535018
0.000298956
0.00534456
0.00029826
0.00533918
0.000297267
0.00533404
0.000295976
0.00532914
0.00029439
0.00532449
0.000292514
0.00532008
0.000290351
0.00531592
0.000287909
0.00531201
0.000285196
0.00530835
0.000282221
0.00530493
0.000278994
0.00530175
0.000275527
0.00529881
0.000271832
0.0052961
0.000267921
0.00529363
0.000263808
0.00529137
0.000259506
0.00528934
0.000255029
0.00528751
0.000250391
0.00528589
0.000245606
0.00528447
0.000240689
0.00528324
0.000235654
0.00528218
0.000230515
0.00528129
0.000225284
0.00528057
0.000219974
0.00527999
0.000214595
0.00527956
0.000209156
0.00527925
0.000203667
0.00527907
0.000198133
0.00527899
0.000192563
0.00527901
0.000186963
0.000181342
0.00543813
0.000290619
-0.00544628
0.00543008
0.000293321
0.00542214
0.000295779
0.00541433
0.000297986
0.00540665
0.000299934
0.00539913
0.000301616
0.00539178
0.000303027
0.00538461
0.000304159
0.00537762
0.000305008
0.00537084
0.000305568
0.00536428
0.000305834
0.00535793
0.000305802
0.00535182
0.00030547
0.00534594
0.000304835
0.0053403
0.000303897
0.00533491
0.000302655
0.00532977
0.000301112
0.00532489
0.000299272
0.00532027
0.000297138
0.0053159
0.000294717
0.0053118
0.000292017
0.00530794
0.000289047
0.00530435
0.000285816
0.00530101
0.000282337
0.00529791
0.000278621
0.00529506
0.000274681
0.00529245
0.000270531
0.00529008
0.000266183
0.00528793
0.000261653
0.00528601
0.000256955
0.00528429
0.000252103
0.00528279
0.000247112
0.00528148
0.000241997
0.00528036
0.000236773
0.00527942
0.000231454
0.00527865
0.000226053
0.00527804
0.000220583
0.00527758
0.000215055
0.00527726
0.000209478
0.00527706
0.000203861
0.00527699
0.000198211
0.00527702
0.000192535
0.00527714
0.000186839
0.000181133
0.00543523
0.000298989
-0.0054436
0.00542697
0.000301582
0.00541884
0.000303915
0.00541084
0.000305982
0.005403
0.000307775
0.00539532
0.000309289
0.00538783
0.000310517
0.00538054
0.000311454
0.00537345
0.000312096
0.00536658
0.000312438
0.00535994
0.000312475
0.00535353
0.000312207
0.00534738
0.000311629
0.00534147
0.000310743
0.00533582
0.000309547
0.00533043
0.000308043
0.00532531
0.000306234
0.00532045
0.000304126
0.00531587
0.000301723
0.00531155
0.000299033
0.00530751
0.000296064
0.00530373
0.000292827
0.00530021
0.000289333
0.00529695
0.000285593
0.00529395
0.000281621
0.0052912
0.00027743
0.0052887
0.000273035
0.00528643
0.000268449
0.0052844
0.000263687
0.00528259
0.000258764
0.005281
0.000253696
0.00527961
0.000248498
0.00527843
0.000243184
0.00527743
0.000237771
0.00527661
0.000232272
0.00527596
0.000226702
0.00527547
0.000221073
0.00527513
0.000215397
0.00527493
0.000209683
0.00527485
0.000203941
0.00527488
0.000198176
0.00527502
0.000192397
0.00527525
0.000186609
0.000180821
0.00543202
0.000307583
-0.00544062
0.00542355
0.000310052
0.00541522
0.000312246
0.00540705
0.000314158
0.00539904
0.000315782
0.00539122
0.000317111
0.0053836
0.00031814
0.00537618
0.000318866
0.005369
0.000319284
0.00536204
0.00031939
0.00535534
0.000319183
0.00534888
0.000318661
0.00534269
0.000317823
0.00533676
0.000316669
0.00533111
0.0003152
0.00532573
0.00031342
0.00532063
0.000311332
0.00531582
0.000308943
0.00531128
0.000306258
0.00530703
0.000303288
0.00530305
0.00030004
0.00529935
0.000296527
0.00529592
0.00029276
0.00529276
0.000288752
0.00528987
0.000284518
0.00528723
0.00028007
0.00528484
0.000275424
0.00528269
0.000270595
0.00528078
0.000265599
0.00527909
0.000260449
0.00527763
0.000255163
0.00527637
0.000249756
0.00527531
0.000244243
0.00527444
0.00023864
0.00527375
0.000232962
0.00527323
0.000227224
0.00527286
0.000221438
0.00527264
0.000215616
0.00527256
0.000209768
0.0052726
0.000203902
0.00527275
0.000198026
0.005273
0.000192147
0.00527334
0.00018627
0.000180403
0.00542848
0.000316401
-0.0054373
0.0054198
0.000318732
0.00541128
0.000320771
0.00540293
0.000322512
0.00539476
0.000323949
0.00538679
0.000325076
0.00537904
0.00032589
0.00537152
0.000326386
0.00536424
0.000326563
0.00535722
0.000326418
0.00535045
0.000325949
0.00534396
0.000325156
0.00533774
0.00032404
0.00533181
0.000322603
0.00532616
0.000320846
0.0053208
0.000318775
0.00531574
0.000316394
0.00531097
0.000313711
0.0053065
0.000310733
0.00530232
0.00030747
0.00529842
0.000303934
0.00529482
0.000300135
0.00529149
0.000296087
0.00528844
0.000291804
0.00528565
0.0002873
0.00528313
0.000282591
0.00528087
0.00027769
0.00527885
0.000272615
0.00527707
0.00026738
0.00527551
0.000262002
0.00527418
0.000256497
0.00527306
0.000250879
0.00527213
0.000245167
0.0052714
0.000239375
0.00527084
0.000233519
0.00527045
0.000227614
0.00527021
0.000221673
0.00527012
0.000215707
0.00527016
0.000209727
0.00527032
0.000203742
0.00527059
0.000197758
0.00527096
0.000191782
0.00527141
0.000185819
0.000179877
0.00542459
0.000325443
-0.00543363
0.0054157
0.00032762
0.00540698
0.000329487
0.00539846
0.000331039
0.00539013
0.000332271
0.00538203
0.000333179
0.00537416
0.000333759
0.00536654
0.000334008
0.00535918
0.000333925
0.00535209
0.000333509
0.00534527
0.000332761
0.00533875
0.00033168
0.00533252
0.00033027
0.00532659
0.000328533
0.00532096
0.000326473
0.00531564
0.000324095
0.00531063
0.000321408
0.00530592
0.000318417
0.00530152
0.000315134
0.00529742
0.000311569
0.00529362
0.000307733
0.00529012
0.00030364
0.0052869
0.000299303
0.00528397
0.000294738
0.00528131
0.000289959
0.00527892
0.000284982
0.00527679
0.000279823
0.0052749
0.000274498
0.00527326
0.000269023
0.00527185
0.000263414
0.00527066
0.000257688
0.00526968
0.000251861
0.00526889
0.00024595
0.0052683
0.00023997
0.00526788
0.000233938
0.00526763
0.000227867
0.00526753
0.000221773
0.00526757
0.000215667
0.00526774
0.000209558
0.00526802
0.000203456
0.00526841
0.000197368
0.0052689
0.000191299
0.00526946
0.000185255
0.000179242
0.00542031
0.000334709
-0.00542957
0.00541121
0.000336713
0.00540231
0.00033839
0.00539361
0.000339735
0.00538514
0.000340744
0.00537691
0.000341412
0.00536893
0.000341739
0.00536122
0.000341721
0.00535378
0.00034136
0.00534663
0.000340655
0.00533979
0.000339608
0.00533325
0.000338222
0.00532702
0.0003365
0.0053211
0.000334446
0.00531551
0.000332067
0.00531024
0.000329369
0.00530528
0.00032636
0.00530065
0.000323049
0.00529634
0.000319449
0.00529234
0.00031557
0.00528864
0.000311425
0.00528525
0.000307029
0.00528216
0.000302395
0.00527936
0.000297541
0.00527684
0.000292481
0.00527459
0.000287233
0.0052726
0.000281811
0.00527086
0.000276234
0.00526937
0.000270517
0.0052681
0.000264677
0.00526706
0.00025873
0.00526623
0.000252693
0.0052656
0.000246584
0.00526515
0.000240418
0.00526488
0.000234211
0.00526476
0.000227978
0.0052648
0.000221734
0.00526498
0.00021549
0.00526528
0.000209257
0.0052657
0.000203042
0.00526621
0.000196853
0.00526681
0.000190695
0.0052675
0.000184574
0.000178495
0.00541561
0.000344198
-0.0054251
0.00540632
0.000346009
0.00539723
0.000347476
0.00538837
0.000348593
0.00537976
0.000349358
0.0053714
0.000349767
0.00536332
0.00034982
0.00535553
0.000349515
0.00534803
0.000348856
0.00534085
0.000347842
0.00533398
0.000346478
0.00532743
0.000344768
0.00532122
0.000342716
0.00531533
0.000340329
0.00530979
0.000337614
0.00530458
0.00033458
0.0052997
0.000331236
0.00529516
0.000327593
0.00529094
0.000323663
0.00528705
0.000319459
0.00528348
0.000314996
0.00528022
0.000310288
0.00527727
0.000305351
0.0052746
0.000300202
0.00527223
0.000294856
0.00527013
0.000289332
0.0052683
0.000283645
0.00526672
0.000277813
0.00526538
0.000271853
0.00526428
0.000265781
0.00526339
0.000259614
0.00526272
0.000253369
0.00526224
0.000247062
0.00526194
0.000240712
0.00526182
0.000234333
0.00526186
0.000227941
0.00526204
0.00022155
0.00526236
0.000215173
0.0052628
0.000208818
0.00526335
0.000202495
0.00526399
0.00019621
0.00526472
0.000189968
0.00526552
0.000183774
0.000177633
0.00541048
0.000353906
-0.00542019
0.00540099
0.000355504
0.00539173
0.000356739
0.00538271
0.000357607
0.00537397
0.000358106
0.0053655
0.000358234
0.00535733
0.000357991
0.00534946
0.000357378
0.00534192
0.000356399
0.00533471
0.000355056
0.00532783
0.000353355
0.00532129
0.000351302
0.00531511
0.000348902
0.00530927
0.000346165
0.00530379
0.000343099
0.00529865
0.000339713
0.00529387
0.00033602
0.00528943
0.000332032
0.00528533
0.000327761
0.00528157
0.000323223
0.00527813
0.000318432
0.00527502
0.000313405
0.00527221
0.000308157
0.0052697
0.000302707
0.00526749
0.000297072
0.00526555
0.000291268
0.00526388
0.000285314
0.00526247
0.000279226
0.0052613
0.000273021
0.00526037
0.000266717
0.00525965
0.000260331
0.00525914
0.000253879
0.00525882
0.000247378
0.00525869
0.000240846
0.00525872
0.000234298
0.00525892
0.000227751
0.00525925
0.000221217
0.00525971
0.00021471
0.00526029
0.000208239
0.00526097
0.000201812
0.00526175
0.000195436
0.0052626
0.000189115
0.00526352
0.000182853
0.000176655
0.00540488
0.00036383
-0.00541481
0.0053952
0.000365191
0.00538576
0.000366171
0.0053766
0.000366767
0.00536773
0.000366977
0.00535917
0.000366801
0.00535092
0.000366239
0.005343
0.000365296
0.00533542
0.000363976
0.0053282
0.000362283
0.00532133
0.000360225
0.00531482
0.000357809
0.00530868
0.000355043
0.00530291
0.000351938
0.0052975
0.000348504
0.00529246
0.000344752
0.00528779
0.000340696
0.00528347
0.00033635
0.0052795
0.000331727
0.00527588
0.000326844
0.0052726
0.000321717
0.00526964
0.000316363
0.00526699
0.0003108
0.00526466
0.000305044
0.00526261
0.000299115
0.00526085
0.000293029
0.00525936
0.000286806
0.00525813
0.000280461
0.00525714
0.000274012
0.00525638
0.000267477
0.00525583
0.000260873
0.0052555
0.000254215
0.00525535
0.000247523
0.00525539
0.000240812
0.00525558
0.0002341
0.00525593
0.000227401
0.00525642
0.000220729
0.00525703
0.000214097
0.00525776
0.000207515
0.00525858
0.000200989
0.00525949
0.000194527
0.00526047
0.000188132
0.00526152
0.000181808
0.000175559
0.00539879
0.000373965
-0.00540892
0.00538891
0.000375065
0.00537932
0.000375764
0.00537002
0.000376063
0.00536104
0.000375959
0.00535239
0.000375454
0.00534408
0.000374551
0.00533612
0.000373254
0.00532853
0.00037157
0.0053213
0.000369505
0.00531446
0.000367069
0.005308
0.00036427
0.00530192
0.00036112
0.00529623
0.000357629
0.00529092
0.000353811
0.005286
0.000349679
0.00528145
0.000345247
0.00527727
0.00034053
0.00527345
0.000335545
0.00526999
0.000330308
0.00526687
0.000324837
0.00526408
0.000319149
0.00526162
0.000313264
0.00525946
0.000307198
0.00525761
0.000300972
0.00525603
0.000294603
0.00525473
0.000288109
0.00525368
0.000281507
0.00525288
0.000274815
0.00525231
0.000268051
0.00525195
0.00026123
0.00525179
0.000254371
0.00525183
0.00024749
0.00525203
0.000240605
0.0052524
0.000233732
0.00525292
0.000226886
0.00525356
0.000220081
0.00525433
0.00021333
0.0052552
0.000206641
0.00525617
0.000200023
0.00525722
0.000193481
0.00525833
0.000187018
0.0052595
0.000180637
0.000174342
0.00539216
0.000384303
-0.0054025
0.00538211
0.000385115
0.00537237
0.000385509
0.00536294
0.000385483
0.00535386
0.00038504
0.00534514
0.00038418
0.00533678
0.00038291
0.0053288
0.000381235
0.00532121
0.000379163
0.00531401
0.000376704
0.00530721
0.000373868
0.00530081
0.000370667
0.00529482
0.000367113
0.00528923
0.000363219
0.00528404
0.000359001
0.00527924
0.000354473
0.00527484
0.000349652
0.00527082
0.000344553
0.00526717
0.000339195
0.00526388
0.000333595
0.00526094
0.000327772
0.00525835
0.000321745
0.00525608
0.000315533
0.00525412
0.000309155
0.00525246
0.00030263
0.00525109
0.000295976
0.00524999
0.000289211
0.00524914
0.000282353
0.00524854
0.00027542
0.00524816
0.000268428
0.00524799
0.000261395
0.00524803
0.000254337
0.00524825
0.000247272
0.00524863
0.000240217
0.00524918
0.000233188
0.00524986
0.0002262
0.00525068
0.000219268
0.0052516
0.000212403
0.00525263
0.000205614
0.00525374
0.00019891
0.00525493
0.000192293
0.00525618
0.000185768
0.00525748
0.000179337
0.000173002
0.00538497
0.000394838
-0.0053955
0.00537475
0.000395333
0.00536487
0.000395391
0.00535534
0.000395013
0.00534618
0.000394202
0.0053374
0.000392961
0.00532901
0.000391297
0.00532102
0.000389219
0.00531345
0.000386735
0.0053063
0.000383859
0.00529956
0.000380602
0.00529325
0.000376978
0.00528736
0.000373001
0.0052819
0.000368687
0.00527684
0.000364053
0.0052722
0.000359115
0.00526796
0.000353891
0.00526412
0.000348399
0.00526065
0.000342659
0.00525756
0.000336688
0.00525482
0.000330507
0.00525243
0.000324136
0.00525037
0.000317593
0.00524863
0.0003109
0.00524719
0.000304074
0.00524603
0.000297134
0.00524514
0.0002901
0.0052445
0.000282988
0.00524411
0.000275815
0.00524394
0.0002686
0.00524397
0.000261357
0.00524421
0.000254106
0.00524462
0.000246861
0.00524519
0.000239641
0.00524592
0.000232462
0.00524678
0.000225338
0.00524776
0.000218285
0.00524885
0.000211312
0.00525004
0.00020443
0.0052513
0.000197645
0.00525263
0.000190962
0.00525402
0.000184381
0.00525545
0.000177906
0.000171538
0.00537718
0.000405557
-0.0053879
0.00536681
0.000405705
0.0053568
0.000405397
0.00534718
0.000404638
0.00533795
0.00040343
0.00532913
0.000401779
0.00532074
0.000399694
0.00531277
0.000397186
0.00530524
0.000394266
0.00529815
0.000390948
0.00529151
0.000387247
0.0052853
0.00038318
0.00527954
0.000378761
0.00527422
0.00037401
0.00526933
0.000368944
0.00526486
0.000363582
0.00526081
0.000357943
0.00525716
0.000352048
0.0052539
0.000345916
0.00525103
0.000339567
0.00524851
0.000333022
0.00524634
0.000326302
0.00524451
0.000319427
0.00524299
0.000312416
0.00524178
0.000305289
0.00524085
0.000298065
0.00524018
0.000290763
0.00523977
0.000283399
0.0052396
0.000275991
0.00523964
0.000268555
0.00523989
0.000261109
0.00524033
0.000253668
0.00524094
0.000246249
0.00524171
0.000238871
0.00524263
0.000231547
0.00524367
0.000224294
0.00524483
0.000217126
0.00524609
0.000210053
0.00524743
0.000203085
0.00524885
0.000196227
0.00525033
0.000189483
0.00525186
0.000182854
0.00525342
0.000176342
0.000169947
0.00536876
0.000416448
-0.00537965
0.00535825
0.000416216
0.00534814
0.000415511
0.00533844
0.000414337
0.00532916
0.000412702
0.00532033
0.000410612
0.00531195
0.000408077
0.00530402
0.000405112
0.00529656
0.00040173
0.00528956
0.000397947
0.00528302
0.00039378
0.00527696
0.000389248
0.00527135
0.000384369
0.0052662
0.000379163
0.00526149
0.00037365
0.00525722
0.000367851
0.00525338
0.000361786
0.00524995
0.000355477
0.00524692
0.000348945
0.00524428
0.000342212
0.005242
0.000335299
0.00524007
0.000328227
0.00523848
0.000321016
0.00523721
0.000313688
0.00523624
0.000306261
0.00523555
0.000298755
0.00523513
0.000291187
0.00523495
0.000283575
0.00523501
0.000275936
0.00523528
0.000268285
0.00523575
0.000260639
0.0052364
0.000253015
0.00523722
0.00024543
0.00523819
0.000237898
0.0052393
0.000230438
0.00524053
0.000223063
0.00524187
0.000215787
0.0052433
0.000208622
0.00524481
0.000201574
0.00524639
0.000194651
0.00524802
0.000187854
0.00524969
0.000181184
0.00525139
0.000174642
0.000168228
0.00535967
0.000427496
-0.00537071
0.00534903
0.000426849
0.00533883
0.000425712
0.00532908
0.000424092
0.00531978
0.000421996
0.00531096
0.000419436
0.00530261
0.000416423
0.00529475
0.000412972
0.00528738
0.000409102
0.0052805
0.000404829
0.00527411
0.000400173
0.0052682
0.000395156
0.00526277
0.000389798
0.00525781
0.00038412
0.00525332
0.000378145
0.00524927
0.000371896
0.00524566
0.000365394
0.00524248
0.000358663
0.0052397
0.000351725
0.00523731
0.000344602
0.00523529
0.000337316
0.00523363
0.00032989
0.0052323
0.000322344
0.00523129
0.000314699
0.00523058
0.000306974
0.00523014
0.000299189
0.00522997
0.000291359
0.00523004
0.000283504
0.00523034
0.000275638
0.00523085
0.000267778
0.00523154
0.00025994
0.00523242
0.00025214
0.00523346
0.000244394
0.00523464
0.000236718
0.00523595
0.000229128
0.00523737
0.000221639
0.00523889
0.000214263
0.0052405
0.000207013
0.00524218
0.000199894
0.00524392
0.000192913
0.0052457
0.000186071
0.00524752
0.000179369
0.00524935
0.000172805
0.000166379
0.00534986
0.00043868
-0.00536104
0.00533912
0.000437582
0.00532886
0.000435977
0.00531907
0.000433876
0.00530978
0.000431288
0.00530099
0.000428224
0.00529271
0.000424702
0.00528495
0.000420738
0.0052777
0.000416352
0.00527096
0.000411564
0.00526474
0.000406398
0.00525902
0.000400874
0.0052538
0.000395018
0.00524907
0.000388853
0.00524481
0.000382402
0.00524101
0.000375691
0.00523766
0.000368742
0.00523475
0.000361581
0.00523224
0.00035423
0.00523013
0.000346714
0.00522839
0.000339054
0.00522701
0.000331273
0.00522596
0.000323392
0.00522523
0.000315433
0.00522479
0.000307413
0.00522463
0.000299352
0.00522472
0.000291266
0.00522505
0.000283173
0.0052256
0.000275088
0.00522635
0.000267026
0.00522729
0.000259003
0.0052284
0.000251034
0.00522965
0.000243135
0.00523105
0.000235322
0.00523257
0.000227611
0.00523419
0.000220016
0.0052359
0.00021255
0.00523769
0.000205223
0.00523955
0.000198042
0.00524145
0.000191012
0.00524339
0.000184133
0.00524535
0.000177407
0.00524733
0.000170829
0.000164398
0.00533928
0.000449979
-0.00535058
0.00532847
0.000448391
0.00531817
0.000446281
0.00530838
0.000443662
0.00529913
0.000440546
0.0052904
0.000436947
0.00528222
0.000432884
0.00527458
0.000428377
0.00526748
0.000423449
0.00526093
0.000418122
0.0052549
0.000412421
0.00524941
0.000406372
0.00524442
0.0004
0.00523995
0.000393332
0.00523596
0.000386392
0.00523244
0.000379208
0.00522938
0.000371804
0.00522675
0.000364206
0.00522455
0.000356438
0.00522273
0.000348525
0.0052213
0.00034049
0.00522022
0.000332355
0.00521947
0.000324142
0.00521903
0.000315871
0.00521888
0.000307561
0.005219
0.00029923
0.00521937
0.000290895
0.00521998
0.000282571
0.00522079
0.000274274
0.0052218
0.000266017
0.00522299
0.000257817
0.00522433
0.000249688
0.00522582
0.000241645
0.00522744
0.000233704
0.00522917
0.000225881
0.00523099
0.000218189
0.0052329
0.000210641
0.00523488
0.000203247
0.00523691
0.000196013
0.00523898
0.000188943
0.00524107
0.000182037
0.00524318
0.000175294
0.0052453
0.000168711
0.000162284
0.00532791
-0.0053393
0.00531705
0.00530674
0.00529699
0.00528779
0.00527917
0.00527112
0.00526364
0.00525673
0.00525038
0.0052446
0.00523935
0.00523464
0.00523045
0.00522676
0.00522355
0.0052208
0.0052185
0.00521661
0.00521513
0.00521402
0.00521326
0.00521282
0.0052127
0.00521286
0.00521328
0.00521394
0.00521483
0.00521592
0.00521719
0.00521864
0.00522023
0.00522196
0.0052238
0.00522575
0.00522779
0.00522989
0.00523206
0.00523427
0.00523651
0.00523876
0.00524103
0.00524329
0.00570068
0.000227592
-0.000218059
0.00569089
0.000236341
-0.000226555
0.00568089
0.000244569
-0.000234562
0.00567069
0.000252266
-0.000242069
0.00566033
0.000259422
-0.000249067
0.00564985
0.000266028
-0.000255545
0.00563927
0.000272077
-0.000261497
0.00562862
0.000277564
-0.000266915
0.00561793
0.000282486
-0.000271797
0.00560723
0.000286845
-0.000276142
0.00559654
0.000290644
-0.000279953
0.00558588
0.000293891
-0.000283235
0.00557528
0.000296596
-0.000285998
0.00556477
0.000298772
-0.000288254
0.00555435
0.000300435
-0.000290017
0.00554405
0.000301606
-0.000291307
0.00553389
0.000302304
-0.000292142
0.00552388
0.000302555
-0.000292545
0.00551403
0.000302383
-0.000292541
0.00550437
0.000301814
-0.000292153
0.00549491
0.000300875
-0.000291407
0.00548564
0.000299592
-0.00029033
0.0054766
0.000297993
-0.000288946
0.00546777
0.000296103
-0.000287279
0.00545918
0.000293948
-0.000285355
0.000291551
-0.000283196
0.00570892
0.000237645
0.00569861
0.000246652
0.00568808
0.000255104
0.00567735
0.00026299
0.00566647
0.000270301
0.00565547
0.000277029
0.00564438
0.000283169
0.00563323
0.000288716
0.00562204
0.000293669
0.00561086
0.000298031
0.0055997
0.000301807
0.00558858
0.000305005
0.00557754
0.000307638
0.00556659
0.00030972
0.00555576
0.000311269
0.00554506
0.000312305
0.00553451
0.000312853
0.00552413
0.000312936
0.00551393
0.00031258
0.00550393
0.000311814
0.00549414
0.000310666
0.00548457
0.000309162
0.00547523
0.000307332
0.00546613
0.000305203
0.00545728
0.0003028
0.00030015
0.00571744
0.000248253
0.00570657
0.000257523
0.00569548
0.000266199
0.00568419
0.000274273
0.00567276
0.000281736
0.0056612
0.000288582
0.00564957
0.000294805
0.00563788
0.000300403
0.00562618
0.000305376
0.00561448
0.000309729
0.00560282
0.000313468
0.00559122
0.000316603
0.00557971
0.000319149
0.00556831
0.000321121
0.00555704
0.000322539
0.00554592
0.000323425
0.00553497
0.000323804
0.0055242
0.000323702
0.00551363
0.000323147
0.00550328
0.000322167
0.00549315
0.000320791
0.00548327
0.00031905
0.00547363
0.000316971
0.00546425
0.000314585
0.00545513
0.000311918
0.000308997
0.00572625
0.000259453
0.00571478
0.000268988
0.00570309
0.000277891
0.00569121
0.000286151
0.00567918
0.000293763
0.00566704
0.00030072
0.00565483
0.000307018
0.00564258
0.000312656
0.00563032
0.000317638
0.00561808
0.000321968
0.00560589
0.000325655
0.00559378
0.000328712
0.00558178
0.000331154
0.0055699
0.000332999
0.00555817
0.000334268
0.00554661
0.000334986
0.00553523
0.000335178
0.00552406
0.000334873
0.00551311
0.000334098
0.00550239
0.000332885
0.00549192
0.000331263
0.00548171
0.000329264
0.00547176
0.000326919
0.00546209
0.000324256
0.0054527
0.000321305
0.000318095
0.00573534
0.000271282
0.00572324
0.000281088
0.00571092
0.000290218
0.00569841
0.000298664
0.00568575
0.000306419
0.00567299
0.00031348
0.00566016
0.000319844
0.00564731
0.000325512
0.00563446
0.000330489
0.00562164
0.000334781
0.0056089
0.000338401
0.00559625
0.000341362
0.00558372
0.000343681
0.00557134
0.00034538
0.00555913
0.000346481
0.0055471
0.00034701
0.00553529
0.000346995
0.00552369
0.000346464
0.00551234
0.00034545
0.00550124
0.000343982
0.00549041
0.000342093
0.00547986
0.000339816
0.0054696
0.000337182
0.00545963
0.000334223
0.00544997
0.000330968
0.000327447
0.00574475
0.000283782
0.00573197
0.000293864
0.00571897
0.000303222
0.00570578
0.000311851
0.00569245
0.000319746
0.00567903
0.000326903
0.00566555
0.000333322
0.00565206
0.000339008
0.00563858
0.000343965
0.00562516
0.000348203
0.00561182
0.000351737
0.0055986
0.000354583
0.00558552
0.00035676
0.00557261
0.000358292
0.00555989
0.000359202
0.00554738
0.00035952
0.0055351
0.000359274
0.00552307
0.000358496
0.0055113
0.000357218
0.00549981
0.000355473
0.00548861
0.000353294
0.00547771
0.000350715
0.00546712
0.00034777
0.00545685
0.000344491
0.00544691
0.00034091
0.000337057
0.00575446
0.000296999
0.00574096
0.000307359
0.00572724
0.000316947
0.00571333
0.000325757
0.00569929
0.000333785
0.00568517
0.00034103
0.00567099
0.000347494
0.00565682
0.000353183
0.00564268
0.000358104
0.00562861
0.000362272
0.00561465
0.0003657
0.00560082
0.00036841
0.00558716
0.000370422
0.00557369
0.000371763
0.00556043
0.000372459
0.00554741
0.00037254
0.00553465
0.000372039
0.00552216
0.000370987
0.00550995
0.00036942
0.00549806
0.000367371
0.00548647
0.000364876
0.00547522
0.000361971
0.0054643
0.000358689
0.00545372
0.000355066
0.0054435
0.000351134
0.000346926
0.00576448
0.000310979
0.00575022
0.000321623
0.00573573
0.000331441
0.00572106
0.000340428
0.00570626
0.000348583
0.00569138
0.000355907
0.00567647
0.000362403
0.00566158
0.00036808
0.00564673
0.000372949
0.00563198
0.000377025
0.00561735
0.000380327
0.00560288
0.000382876
0.00558861
0.000384699
0.00557455
0.000385823
0.00556073
0.000386278
0.00554717
0.000386096
0.0055339
0.000385311
0.00552093
0.000383958
0.00550828
0.000382073
0.00549596
0.000379692
0.00548398
0.000376854
0.00547236
0.000373593
0.0054611
0.000369948
0.00545021
0.000365953
0.0054397
0.000361644
0.000357054
0.00577483
0.000325776
0.00575975
0.000336706
0.00574443
0.000346753
0.00572895
0.000355914
0.00571334
0.000364189
0.00569767
0.000371581
0.00568197
0.000378096
0.00566631
0.000383744
0.00565072
0.000388541
0.00563524
0.000392504
0.00561991
0.000395655
0.00560477
0.00039802
0.00558984
0.000399626
0.00557516
0.000400505
0.00556075
0.000400689
0.00554663
0.000400213
0.00553283
0.000399113
0.00551936
0.000397428
0.00550624
0.000395194
0.00549348
0.000392451
0.0054811
0.000389237
0.0054691
0.000385591
0.00545749
0.000381552
0.00544629
0.000377156
0.00543549
0.000372442
0.000367443
0.00578549
0.000341443
0.00576953
0.000352664
0.00575335
0.000362939
0.00573699
0.000372269
0.00572053
0.000380655
0.005704
0.000388103
0.00568748
0.000394621
0.005671
0.000400223
0.00565462
0.000404926
0.00563837
0.000408752
0.0056223
0.000411727
0.00560644
0.000413878
0.00559083
0.000415238
0.00557549
0.00041584
0.00556046
0.000415721
0.00554575
0.000414918
0.0055314
0.00041347
0.00551741
0.000411417
0.0055038
0.000408801
0.00549059
0.000405661
0.00547779
0.000402038
0.00546541
0.000397974
0.00545345
0.000393508
0.00544193
0.00038868
0.00543084
0.000383529
0.000378091
0.00579647
0.000358041
0.00577958
0.000369554
0.00576246
0.000380057
0.00574518
0.00038955
0.0057278
0.000398038
0.00571038
0.000405527
0.00569297
0.000412031
0.00567562
0.000417566
0.0056584
0.000422152
0.00564133
0.000425815
0.00562448
0.000428584
0.00560786
0.000430491
0.00559153
0.000431571
0.00557551
0.000431863
0.00555982
0.000431404
0.0055445
0.000430238
0.00552957
0.000428405
0.00551504
0.000425948
0.00550093
0.00042291
0.00548725
0.000419336
0.00547402
0.000415268
0.00546125
0.000410748
0.00544894
0.000405821
0.00543709
0.000400526
0.00542571
0.000394905
0.000388996
0.00580776
0.000375634
0.00578987
0.000387441
0.00577176
0.000398169
0.00575349
0.000407817
0.00573514
0.000416395
0.00571675
0.000423911
0.0056984
0.000430381
0.00568014
0.000435826
0.00566203
0.000440269
0.0056441
0.000443739
0.00562642
0.000446271
0.00560901
0.000447899
0.00559192
0.000448664
0.00557517
0.000448607
0.00555881
0.00044777
0.00554284
0.0004462
0.00552731
0.000443941
0.00551222
0.000441039
0.00549759
0.00043754
0.00548343
0.00043349
0.00546976
0.000428936
0.00545659
0.000423923
0.00544392
0.000418495
0.00543175
0.000412696
0.00542008
0.000406569
0.000400155
0.00581935
0.00039429
0.0058004
0.000406393
0.00578123
0.00041734
0.00576191
0.000427136
0.00574251
0.000435789
0.00572311
0.000443314
0.00570376
0.000449729
0.00568453
0.000455058
0.00566547
0.000459328
0.00564664
0.000462574
0.00562807
0.000464833
0.00560983
0.000466145
0.00559194
0.000466554
0.00557444
0.000466107
0.00555736
0.00046485
0.00554073
0.000462832
0.00552457
0.000460102
0.00550889
0.00045671
0.00549373
0.000452705
0.00547908
0.000448136
0.00546497
0.000443052
0.00545139
0.000437502
0.00543835
0.000431533
0.00542586
0.00042519
0.00541391
0.000418519
0.000411563
0.00583122
0.000414083
0.00581113
0.000426481
0.00579083
0.000437642
0.00577039
0.000447573
0.00574989
0.000456288
0.00572941
0.000463801
0.005709
0.000470135
0.00568874
0.000475319
0.00566868
0.000479384
0.00564889
0.000482369
0.0056294
0.000484316
0.00561028
0.000485271
0.00559155
0.000485281
0.00557326
0.000484398
0.00555544
0.000482673
0.00553811
0.00048016
0.0055213
0.000476911
0.00550503
0.00047298
0.00548931
0.00046842
0.00547416
0.000463284
0.00545959
0.000457624
0.0054456
0.000451492
0.0054322
0.000444936
0.00541938
0.000438006
0.00540715
0.00043075
0.000423213
0.00584334
0.000435093
0.00582204
0.000447783
0.00580053
0.00045915
0.0057789
0.000469203
0.00575723
0.000477959
0.00573559
0.000485437
0.00571407
0.000491663
0.00569272
0.000496669
0.00567161
0.000500493
0.0056508
0.000503177
0.00563035
0.00050477
0.0056103
0.00050532
0.00559069
0.000504883
0.00557158
0.000503514
0.00555298
0.000501271
0.00553493
0.00049821
0.00551745
0.000494389
0.00550057
0.000489867
0.00548429
0.0004847
0.00546863
0.000478945
0.00545359
0.000472658
0.00543919
0.000465893