/*--------------------------------*- C++ -*----------------------------------*\
| =========                 |                                                 |
| \\      /  F ield         | OpenFOAM: The Open Source CFD Toolbox           |
|  \\    /   O peration     | Version:  2412                                  |
|   \\  /    A nd           | Website:  www.openfoam.com                      |
|    \\/     M anipulation  |                                                 |
\*---------------------------------------------------------------------------*/
FoamFile
{
    version     2.0;
    format      ascii;
    arch        "LSB;label=32;scalar=64";
    class       surfaceScalarField;
    location    "3.5";
    object      phi;
}
// * * * * * * * * * * * * * * * * * * * * * * * * * * * * * * * * * * * * * //

dimensions      [0 3 -1 0 0 0 0];

oriented        oriented;

internalField   nonuniform List<scalar> 
10424
(
0.00531639
-0.000117638
-0.00531413
0.000115387
0.00531874
-0.000120042
0.000117687
0.0053212
-0.000122452
0.000119991
0.00532377
-0.000124868
0.000122299
0.00532645
-0.000127287
0.000124608
0.00532925
-0.000129708
0.000126913
0.00533216
-0.000132123
0.000129206
0.00533521
-0.000134523
0.000131477
0.00533839
-0.000136899
0.000133717
0.00534172
-0.000139241
0.000135915
0.00534519
-0.000141539
0.000138065
0.00534882
-0.000143786
0.000140159
0.0053526
-0.000145975
0.000142192
0.00535654
-0.000148098
0.000144155
0.00536065
-0.000150147
0.000146042
-0.000152112
0.000147845
0.00531412
-0.000119876
-0.00531189
0.00531647
-0.000122389
0.00531893
-0.00012491
0.0053215
-0.000127438
0.00532419
-0.000129975
0.005327
-0.000132517
0.00532994
-0.000135061
0.00533301
-0.000137597
0.00533623
-0.000140116
0.00533959
-0.000142607
0.00534311
-0.000145061
0.0053468
-0.00014747
0.00535065
-0.000149823
0.00535466
-0.000152115
0.00535885
-0.000154334
-0.000156473
0.00531175
-0.000122095
-0.00530953
0.00531408
-0.000124722
0.00531653
-0.000127358
0.00531909
-0.000130006
0.00532179
-0.000132666
0.00532461
-0.000135337
0.00532756
-0.000138015
0.00533066
-0.000140694
0.0053339
-0.000143362
0.00533731
-0.000146011
0.00534087
-0.000148628
0.00534461
-0.000151205
0.00534852
-0.000153733
0.00535261
-0.000156202
0.00535687
-0.000158602
-0.000160926
0.00530922
-0.000124289
-0.00530703
0.00531153
-0.000127034
0.00531397
-0.000129792
0.00531652
-0.000132564
0.00531921
-0.000135354
0.00532204
-0.00013816
0.005325
-0.000140981
0.00532812
-0.000143809
0.00533139
-0.000146634
0.00533482
-0.000149446
0.00533843
-0.000152235
0.00534221
-0.000154989
0.00534618
-0.000157699
0.00535033
-0.000160355
0.00535468
-0.000162948
-0.000165467
0.00530653
-0.000126454
-0.00530437
0.00530882
-0.00012932
0.00531123
-0.000132204
0.00531377
-0.000135108
0.00531645
-0.000138033
0.00531927
-0.000140982
0.00532224
-0.000143951
0.00532537
-0.000146935
0.00532866
-0.000149924
0.00533212
-0.000152908
0.00533576
-0.000155876
0.00533959
-0.000158816
0.00534361
-0.000161718
0.00534783
-0.000164572
0.00535225
-0.000167367
-0.000170094
0.00530368
-0.000128583
-0.00530155
0.00530593
-0.000131576
0.00530832
-0.000134591
0.00531084
-0.000137631
0.00531351
-0.000140698
0.00531632
-0.000143795
0.00531929
-0.000146919
0.00532242
-0.000150066
0.00532572
-0.000153227
0.0053292
-0.00015639
0.00533287
-0.000159545
0.00533673
-0.000162679
0.0053408
-0.000165783
0.00534507
-0.000168846
0.00534956
-0.000171856
-0.000174802
0.00530067
-0.000130672
-0.00529858
0.00530289
-0.000133794
0.00530524
-0.000136945
0.00530774
-0.000140126
0.00531038
-0.000143341
0.00531318
-0.000146592
0.00531613
-0.000149878
0.00531926
-0.000153195
0.00532257
-0.000156534
0.00532606
-0.000159884
0.00532975
-0.000163235
0.00533365
-0.000166574
0.00533775
-0.000169889
0.00534208
-0.000173171
0.00534663
-0.000176407
-0.000179586
0.00529751
-0.000132713
-0.00529547
0.00529969
-0.00013597
0.00530201
-0.00013926
0.00530447
-0.000142587
0.00530708
-0.000145954
0.00530985
-0.000149365
0.00531279
-0.000152819
0.00531591
-0.000156313
0.00531922
-0.000159838
0.00532272
-0.000163383
0.00532642
-0.000166938
0.00533034
-0.000170491
0.00533448
-0.000174029
0.00533885
-0.000177541
0.00534345
-0.000181016
-0.000184442
0.00529422
-0.000134702
-0.00529223
0.00529635
-0.000138096
0.00529862
-0.000141529
0.00530104
-0.000145006
0.00530361
-0.000148531
0.00530635
-0.000152107
0.00530927
-0.000155735
0.00531237
-0.000159411
0.00531566
-0.000163129
0.00531916
-0.000166878
0.00532286
-0.000170647
0.0053268
-0.000174422
0.00533096
-0.000178193
0.00533537
-0.000181948
0.00534003
-0.000185675
-0.00018936
0.00529079
-0.000136631
-0.00528886
0.00529286
-0.000140164
0.00529508
-0.000143745
0.00529745
-0.000147376
0.00529998
-0.000151062
0.00530268
-0.000154808
0.00530556
-0.000158616
0.00530863
-0.000162482
0.0053119
-0.0001664
0.00531538
-0.00017036
0.00531909
-0.000174351
0.00532302
-0.000178359
0.00532721
-0.000182374
0.00533164
-0.000186383
0.00533634
-0.000190374
-0.000194334
0.00528723
-0.000138493
-0.00528537
0.00528923
-0.000142168
0.00529138
-0.000145898
0.0052937
-0.000149687
0.00529617
-0.000153539
0.00529882
-0.00015746
0.00530166
-0.000161452
0.00530469
-0.000165514
0.00530793
-0.00016964
0.00531139
-0.000173819
0.00531508
-0.00017804
0.00531901
-0.000182291
0.0053232
-0.000186561
0.00532765
-0.000190836
0.00533238
-0.000195105
-0.000199354
0.00528352
-0.000140279
-0.00528173
0.00528545
-0.000144098
0.00528753
-0.000147981
0.00528978
-0.00015193
0.00529219
-0.000155951
0.00529478
-0.000160051
0.00529756
-0.000164234
0.00530055
-0.000168497
0.00530374
-0.000172837
0.00530717
-0.000177242
0.00531083
-0.000181703
0.00531475
-0.000186207
0.00531893
-0.000190742
0.00532339
-0.000195296
0.00532814
-0.000199856
-0.000204409
0.00527967
-0.000141981
-0.00527797
0.00528152
-0.000145946
0.00528352
-0.000149983
0.00528569
-0.000154095
0.00528802
-0.000158289
0.00529055
-0.000162573
0.00529326
-0.00016695
0.00529619
-0.00017142
0.00529933
-0.00017598
0.00530271
-0.000180619
0.00530633
-0.000185328
0.00531022
-0.000190094
0.00531438
-0.000194905
0.00531883
-0.00019975
0.00532359
-0.000204614
-0.000209486
0.00527568
-0.00014359
-0.00527407
0.00527743
-0.000147702
0.00527934
-0.000151895
0.00528142
-0.000156173
0.00528367
-0.000160542
0.00528611
-0.000165012
0.00528875
-0.000169588
0.0052916
-0.000174271
0.00529468
-0.000179056
0.005298
-0.000183936
0.00530157
-0.000188901
0.00530541
-0.000193938
0.00530954
-0.000199036
0.00531398
-0.000204183
0.00531873
-0.000209366
-0.000214572
0.00527153
-0.000145097
-0.00527003
0.00527319
-0.000149356
0.005275
-0.000153706
0.00527698
-0.000158151
0.00527913
-0.000162698
0.00528148
-0.000167358
0.00528403
-0.000172136
0.00528679
-0.000177035
0.00528979
-0.000182052
0.00529303
-0.000187179
0.00529653
-0.000192407
0.00530032
-0.000197724
0.0053044
-0.00020312
0.0053088
-0.000208581
0.00531353
-0.000214095
-0.00021965
0.00526724
-0.000146491
-0.00526585
0.00526878
-0.000150898
0.00527048
-0.000155406
0.00527235
-0.000160018
0.0052744
-0.000164745
0.00527664
-0.000169596
0.00527908
-0.00017458
0.00528174
-0.000179699
0.00528464
-0.000184952
0.0052878
-0.000190332
0.00529122
-0.000195831
0.00529493
-0.000201436
0.00529895
-0.000207138
0.0053033
-0.000212925
0.00530798
-0.000218784
-0.000224704
0.0052628
-0.000147763
-0.00526153
0.00526422
-0.000152317
0.0052658
-0.000156982
0.00526754
-0.000161763
0.00526947
-0.00016667
0.00527158
-0.000171714
0.00527391
-0.000176905
0.00527646
-0.000182247
0.00527925
-0.000187741
0.00528229
-0.000193379
0.00528562
-0.000199154
0.00528924
-0.000205056
0.00529317
-0.000211074
0.00529744
-0.000217197
0.00530207
-0.000223414
-0.000229712
0.00525822
-0.000148902
-0.00525708
0.0052595
-0.000153602
0.00526094
-0.000158423
0.00526255
-0.000163371
0.00526434
-0.000168458
0.00526632
-0.000173696
0.00526851
-0.000179096
0.00527093
-0.000184664
0.00527359
-0.000190401
0.00527651
-0.000196302
0.00527972
-0.000202359
0.00528322
-0.000208564
0.00528706
-0.000214906
0.00529124
-0.000221376
0.00529578
-0.000227962
-0.000234653
0.00525348
-0.000149896
-0.00525249
0.00525462
-0.00015474
0.00525591
-0.000159716
0.00525737
-0.000164831
0.00525901
-0.000170097
0.00526084
-0.000175528
0.00526288
-0.000181138
0.00526515
-0.000186933
0.00526767
-0.000192915
0.00527045
-0.000199081
0.00527351
-0.000205425
0.00527689
-0.000211939
0.00528059
-0.000218613
0.00528466
-0.000225438
0.0052891
-0.000232406
-0.000239503
0.0052486
-0.00524776
0.00524958
0.00525072
0.00525201
0.00525349
0.00525515
0.00525703
0.00525913
0.00526148
0.00526409
0.005267
0.00527022
0.00527378
0.0052777
0.00528201
0.00529137
-1.76999e-05
1.92218e-05
0.00527735
-0.000228499
0.000242518
0.00526525
-0.000331659
0.000343766
0.00525772
-0.000296349
0.000303879
0.00525674
-0.000202429
0.000203407
0.00525927
-0.000124872
0.000122335
0.0052627
-8.12772e-05
7.78511e-05
0.00526591
-6.17464e-05
5.85343e-05
0.00526853
-5.48729e-05
5.22562e-05
0.00527055
-5.35347e-05
5.15162e-05
0.00527209
-5.43281e-05
5.27862e-05
0.00527328
-5.59002e-05
5.47138e-05
0.0052742
-5.77536e-05
5.68274e-05
0.00527494
-5.97068e-05
5.89702e-05
0.00527554
-6.16916e-05
6.10931e-05
0.00527604
-6.368e-05
6.31818e-05
0.00527646
-6.5659e-05
6.52327e-05
0.00527684
-6.76217e-05
6.72456e-05
0.00527718
-6.95641e-05
6.92211e-05
0.0052775
-7.14836e-05
7.11601e-05
0.00527782
-7.33783e-05
7.3063e-05
0.00527814
-7.52465e-05
7.49302e-05
0.00527846
-7.70866e-05
7.67613e-05
0.0052788
-7.8897e-05
7.8556e-05
0.00527916
-8.0676e-05
8.03134e-05
0.00527955
-8.24219e-05
8.20325e-05
0.00527997
-8.41327e-05
8.37119e-05
0.00528043
-8.58068e-05
8.53504e-05
0.00528093
-8.7442e-05
8.69463e-05
0.00528147
-8.90365e-05
8.84979e-05
0.00528205
-9.05881e-05
9.00037e-05
0.00528268
-9.20948e-05
9.14616e-05
0.00528337
-9.35547e-05
9.28701e-05
0.00528411
-9.49657e-05
9.42273e-05
0.0052849
-9.63257e-05
9.55313e-05
0.00528575
-9.76329e-05
9.67806e-05
0.00528667
-9.88855e-05
9.79734e-05
0.00528764
-0.000100081
9.91081e-05
0.00528867
-0.000101219
0.000100183
0.00528977
-0.000102297
0.000101197
0.00529094
-0.000103314
0.000102149
0.00529217
-0.000104268
0.000103037
0.00529347
-0.000105157
0.00010386
0.00529483
-0.000105982
0.000104618
0.00529626
-0.00010674
0.00010531
0.00529776
-0.000107431
0.000105934
0.00529932
-0.000108054
0.00010649
0.00530095
-0.000108609
0.000106978
0.00530265
-0.000109094
0.000107398
0.00530441
-0.000109509
0.000107749
0.00530623
-0.000109855
0.00010803
0.00530812
-0.000110128
0.000108241
0.00531007
-0.000110328
0.000108381
0.00531207
-0.000110453
0.000108448
-0.000110502
0.000108441
0.00529154
-1.63414e-05
0.00527909
-0.000216052
0.00526705
-0.00031962
0.00525949
-0.000288791
0.00525792
-0.000200862
0.00525984
-0.000126789
0.00526283
-8.42621e-05
0.00526574
-6.46584e-05
0.00526817
-5.73015e-05
0.00527007
-5.5438e-05
0.00527154
-5.57953e-05
0.00527267
-5.70337e-05
0.00527356
-5.86383e-05
0.00527426
-6.04076e-05
0.00527482
-6.22566e-05
0.00527529
-6.41454e-05
0.00527568
-6.60522e-05
0.00527602
-6.7964e-05
0.00527633
-6.98723e-05
0.00527662
-7.17713e-05
0.0052769
-7.36566e-05
0.00527718
-7.55247e-05
0.00527746
-7.73725e-05
0.00527776
-7.91975e-05
0.00527808
-8.09971e-05
0.00527843
-8.27687e-05
0.00527881
-8.45102e-05
0.00527922
-8.6219e-05
0.00527967
-8.78929e-05
0.00528016
-8.95295e-05
0.0052807
-9.11266e-05
0.00528129
-9.26817e-05
0.00528193
-9.41928e-05
0.00528262
-9.56574e-05
0.00528337
-9.70734e-05
0.00528417
-9.84387e-05
0.00528504
-9.97513e-05
0.00528597
-0.000101009
0.00528696
-0.00010221
0.00528801
-0.000103353
0.00528913
-0.000104435
0.00529032
-0.000105456
0.00529158
-0.000106413
0.0052929
-0.000107305
0.00529429
-0.000108132
0.00529575
-0.000108891
0.00529728
-0.000109583
0.00529888
-0.000110205
0.00530054
-0.000110758
0.00530227
-0.000111241
0.00530407
-0.000111652
0.00530593
-0.00011199
0.00530786
-0.000112253
0.00530984
-0.000112439
-0.000112546
0.00529187
-1.53129e-05
0.00528085
-0.000205031
0.00526932
-0.000308096
0.00526168
-0.000281154
0.00525953
-0.000198707
0.00526078
-0.000128037
0.00526324
-8.67255e-05
0.00526579
-6.72099e-05
0.00526799
-5.94969e-05
0.00526974
-5.71927e-05
0.00527111
-5.7164e-05
0.00527217
-5.80971e-05
0.005273
-5.94687e-05
0.00527366
-6.10625e-05
0.00527418
-6.27803e-05
0.00527461
-6.45716e-05
0.00527496
-6.6407e-05
0.00527527
-6.82678e-05
0.00527554
-7.01416e-05
0.00527578
-7.20192e-05
0.00527602
-7.38942e-05
0.00527626
-7.57611e-05
0.0052765
-7.76157e-05
0.00527676
-7.94542e-05
0.00527703
-8.12733e-05
0.00527734
-8.30698e-05
0.00527767
-8.48409e-05
0.00527803
-8.65836e-05
0.00527843
-8.82954e-05
0.00527888
-8.99735e-05
0.00527937
-9.16154e-05
0.0052799
-9.32185e-05
0.00528049
-9.47803e-05
0.00528113
-9.62983e-05
0.00528183
-9.77702e-05
0.00528258
-9.91936e-05
0.0052834
-0.000100566
0.00528428
-0.000101886
0.00528522
-0.000103151
0.00528622
-0.000104359
0.00528729
-0.000105508
0.00528843
-0.000106596
0.00528964
-0.000107621
0.00529092
-0.000108583
0.00529227
-0.000109479
0.00529369
-0.000110309
0.00529517
-0.00011107
0.00529673
-0.000111763
0.00529836
-0.000112385
0.00530005
-0.000112937
0.00530182
-0.000113416
0.00530365
-0.000113821
0.00530554
-0.00011415
0.00530751
-0.0001144
-0.000114569
0.00529217
-1.45914e-05
0.00528254
-0.000195396
0.00527164
-0.000297196
0.00526401
-0.000273527
0.00526132
-0.000196013
0.00526191
-0.000128628
0.00526383
-8.86489e-05
0.00526599
-6.93734e-05
0.00526793
-6.14318e-05
0.00526951
-5.87754e-05
0.00527076
-5.84153e-05
0.00527174
-5.90755e-05
0.00527251
-6.0233e-05
0.00527311
-6.16623e-05
0.00527358
-6.32551e-05
0.00527396
-6.49523e-05
0.00527427
-6.67179e-05
0.00527453
-6.85285e-05
0.00527476
-7.03676e-05
0.00527496
-7.22235e-05
0.00527516
-7.40874e-05
0.00527535
-7.59523e-05
0.00527554
-7.78127e-05
0.00527575
-7.96638e-05
0.00527598
-8.15014e-05
0.00527623
-8.33218e-05
0.00527652
-8.51215e-05
0.00527683
-8.68973e-05
0.00527718
-8.86461e-05
0.00527757
-9.03649e-05
0.00527801
-9.2051e-05
0.00527849
-9.37014e-05
0.00527902
-9.53134e-05
0.00527961
-9.68845e-05
0.00528025
-9.8412e-05
0.00528095
-9.98934e-05
0.00528171
-0.000101326
0.00528253
-0.000102708
0.00528342
-0.000104037
0.00528437
-0.00010531
0.00528539
-0.000106526
0.00528648
-0.000107683
0.00528763
-0.000108778
0.00528886
-0.000109809
0.00529016
-0.000110777
0.00529152
-0.000111677
0.00529297
-0.000112511
0.00529448
-0.000113275
0.00529606
-0.000113969
0.00529772
-0.000114591
0.00529944
-0.000115141
0.00530124
-0.000115616
0.0053031
-0.000116014
0.00530503
-0.000116331
-0.000116565
0.00529242
-1.41139e-05
0.00528399
-0.000186974
0.00527377
-0.00028697
0.00526623
-0.000265988
0.0052631
-0.000192883
0.0052631
-0.000128628
0.00526451
-9.00565e-05
0.00526628
-7.11496e-05
0.00526795
-6.30961e-05
0.00526934
-6.01723e-05
0.00527046
-5.95358e-05
0.00527135
-5.99572e-05
0.00527204
-6.09215e-05
0.00527257
-6.21989e-05
0.00527299
-6.36741e-05
0.00527332
-6.52816e-05
0.00527358
-6.698e-05
0.00527379
-6.87414e-05
0.00527397
-7.05463e-05
0.00527413
-7.23804e-05
0.00527428
-7.42328e-05
0.00527442
-7.6095e-05
0.00527457
-7.79604e-05
0.00527473
-7.98231e-05
0.0052749
-8.16783e-05
0.0052751
-8.35215e-05
0.00527533
-8.53489e-05
0.00527559
-8.71567e-05
0.00527588
-8.89417e-05
0.00527622
-9.07004e-05
0.0052766
-9.24298e-05
0.00527702
-9.41269e-05
0.0052775
-9.57886e-05
0.00527803
-9.74122e-05
0.00527861
-9.89949e-05
0.00527925
-0.000100534
0.00527995
-0.000102027
0.00528071
-0.000103471
0.00528154
-0.000104864
0.00528243
-0.000106203
0.00528339
-0.000107487
0.00528442
-0.000108712
0.00528552
-0.000109877
0.00528669
-0.00011098
0.00528794
-0.000112019
0.00528925
-0.000112993
0.00529064
-0.000113899
0.0052921
-0.000114737
0.00529364
-0.000115504
0.00529525
-0.0001162
0.00529693
-0.000116823
0.00529868
-0.00011737
0.00530051
-0.000117839
0.0053024
-0.000118226
-0.000118528
0.00529258
-1.37979e-05
0.00528516
-0.000179555
0.00527559
-0.000277398
0.0052682
-0.000258606
0.00526476
-0.000189436
0.00526426
-0.000128129
0.0052652
-9.09996e-05
0.00526661
-7.25591e-05
0.00526801
-6.44924e-05
0.00526921
-6.13778e-05
0.00527019
-6.05172e-05
0.00527097
-6.07338e-05
0.00527158
-6.15263e-05
0.00527204
-6.26653e-05
0.0052724
-6.40314e-05
0.00527267
-6.55544e-05
0.00527288
-6.71887e-05
0.00527304
-6.89028e-05
0.00527317
-7.06743e-05
0.00527328
-7.24867e-05
0.00527337
-7.43273e-05
0.00527346
-7.61864e-05
0.00527356
-7.8056e-05
0.00527366
-7.99294e-05
0.00527379
-8.18012e-05
0.00527393
-8.36663e-05
0.0052741
-8.55203e-05
0.00527431
-8.73592e-05
0.00527454
-8.91793e-05
0.00527482
-9.0977e-05
0.00527514
-9.27489e-05
0.0052755
-9.44918e-05
0.00527592
-9.62025e-05
0.00527638
-9.78781e-05
0.0052769
-9.95155e-05
0.00527748
-0.000101112
0.00527812
-0.000102665
0.00527882
-0.000104171
0.00527958
-0.000105628
0.00528041
-0.000107033
0.00528131
-0.000108384
0.00528228
-0.000109679
0.00528332
-0.000110915
0.00528443
-0.00011209
0.00528561
-0.000113202
0.00528687
-0.00011425
0.0052882
-0.000115231
0.00528961
-0.000116143
0.00529109
-0.000116986
0.00529264
-0.000117757
0.00529428
-0.000118455
0.00529598
-0.000119077
0.00529777
-0.00011962
0.00529962
-0.000120081
-0.000120455
0.00529266
-1.35688e-05
0.00528604
-0.000172928
0.00527706
-0.000268423
0.00526989
-0.000251431
0.00526623
-0.000185778
0.00526533
-0.000127232
0.00526587
-9.15406e-05
0.00526695
-7.36335e-05
0.00526809
-6.56322e-05
0.0052691
-6.23926e-05
0.00526994
-6.13555e-05
0.00527061
-6.13996e-05
0.00527112
-6.20417e-05
0.00527151
-6.30563e-05
0.0052718
-6.43224e-05
0.00527202
-6.57667e-05
0.00527217
-6.73405e-05
0.00527228
-6.90094e-05
0.00527235
-7.07486e-05
0.0052724
-7.25397e-05
0.00527244
-7.43685e-05
0.00527248
-7.62239e-05
0.00527252
-7.8097e-05
0.00527257
-7.99804e-05
0.00527264
-8.18678e-05
0.00527273
-8.37537e-05
0.00527284
-8.56333e-05
0.00527298
-8.75022e-05
0.00527316
-8.93564e-05
0.00527338
-9.1192e-05
0.00527363
-9.30054e-05
0.00527393
-9.47932e-05
0.00527428
-9.65521e-05
0.00527468
-9.82789e-05
0.00527514
-9.99704e-05
0.00527565
-0.000101624
0.00527622
-0.000103236
0.00527685
-0.000104804
0.00527755
-0.000106325
0.00527831
-0.000107796
0.00527914
-0.000109215
0.00528005
-0.00011058
0.00528102
-0.000111887
0.00528206
-0.000113135
0.00528318
-0.000114322
0.00528438
-0.000115444
0.00528565
-0.000116501
0.00528699
-0.00011749
0.00528842
-0.00011841
0.00528992
-0.000119259
0.0052915
-0.000120034
0.00529315
-0.000120733
0.00529489
-0.000121353
0.00529669
-0.00012189
-0.00012234
0.0052927
-1.33727e-05
0.00528669
-0.000166915
0.00527824
-0.000259974
0.00527129
-0.000244487
0.00526751
-0.000181999
0.00526631
-0.000126026
0.00526651
-9.17419e-05
0.00526728
-7.4408e-05
0.00526818
-6.65316e-05
0.00526901
-6.32217e-05
0.00526971
-6.205e-05
0.00527026
-6.19513e-05
0.00527068
-6.24638e-05
0.00527099
-6.33678e-05
0.00527121
-6.45433e-05
0.00527136
-6.5915e-05
0.00527145
-6.74321e-05
0.0052715
-6.90582e-05
0.00527152
-7.07665e-05
0.00527152
-7.25369e-05
0.0052715
-7.43539e-05
0.00527148
-7.62053e-05
0.00527147
-7.80813e-05
0.00527146
-7.99737e-05
0.00527147
-8.18758e-05
0.0052715
-8.37815e-05
0.00527155
-8.56856e-05
0.00527163
-8.75834e-05
0.00527174
-8.94705e-05
0.0052719
-9.13429e-05
0.00527209
-9.31968e-05
0.00527232
-9.50285e-05
0.0052726
-9.68346e-05
0.00527294
-9.86117e-05
0.00527332
-0.000100357
0.00527377
-0.000102066
0.00527427
-0.000103737
0.00527483
-0.000105366
0.00527546
-0.000106951
0.00527615
-0.000108488
0.00527691
-0.000109976
0.00527774
-0.00011141
0.00527864
-0.00011279
0.00527962
-0.000114111
0.00528067
-0.000115372
0.00528179
-0.000116571
0.005283
-0.000117705
0.00528428
-0.000118772
0.00528564
-0.000119771
0.00528708
-0.000120698
0.0052886
-0.000121553
0.0052902
-0.000122332
0.00529188
-0.000123032
0.00529364
-0.000123648
-0.000124177
0.0052927
-1.31781e-05
0.00528716
-0.000161376
0.00527917
-0.000251983
0.00527246
-0.000237781
0.00526863
-0.000178162
0.00526718
-0.000124583
0.0052671
-9.16587e-05
0.00526761
-7.49171e-05
0.00526829
-6.72085e-05
0.00526894
-6.38722e-05
0.00526949
-6.26021e-05
0.00526992
-6.23878e-05
0.00527025
-6.27899e-05
0.00527048
-6.3597e-05
0.00527063
-6.4691e-05
0.00527071
-6.59964e-05
0.00527074
-6.7461e-05
0.00527073
-6.90469e-05
0.00527069
-7.07258e-05
0.00527063
-7.24762e-05
0.00527055
-7.42815e-05
0.00527048
-7.61286e-05
0.0052704
-7.80069e-05
0.00527034
-7.99076e-05
0.00527028
-8.18234e-05
0.00527025
-8.37477e-05
0.00527024
-8.56751e-05
0.00527026
-8.76005e-05
0.00527031
-8.95193e-05
0.00527039
-9.14273e-05
0.00527051
-9.33204e-05
0.00527068
-9.51949e-05
0.00527089
-9.70471e-05
0.00527115
-9.88736e-05
0.00527147
-0.000100671
0.00527184
-0.000102435
0.00527227
-0.000104164
0.00527275
-0.000105855
0.00527331
-0.000107503
0.00527392
-0.000109106
0.00527461
-0.000110661
0.00527537
-0.000112166
0.00527619
-0.000113617
0.00527709
-0.000115013
0.00527807
-0.000116349
0.00527913
-0.000117625
0.00528026
-0.000118837
0.00528147
-0.000119984
0.00528276
-0.000121063
0.00528414
-0.000122072
0.00528559
-0.000123008
0.00528713
-0.000123869
0.00528875
-0.000124651
0.00529045
-0.00012535
-0.000125961
0.00529269
-1.29703e-05
0.00528752
-0.000156207
0.00527992
-0.000244387
0.00527345
-0.000231305
0.00526959
-0.000174309
0.00526797
-0.000122959
0.00526765
-9.13375e-05
0.00526792
-7.51917e-05
0.00526839
-6.76807e-05
0.00526887
-6.4353e-05
0.00526929
-6.3015e-05
0.00526961
-6.27091e-05
0.00526984
-6.30186e-05
0.00526998
-6.37416e-05
0.00527005
-6.47633e-05
0.00527007
-6.60087e-05
0.00527003
-6.7425e-05
0.00526996
-6.89734e-05
0.00526986
-7.06244e-05
0.00526973
-7.23556e-05
0.0052696
-7.41495e-05
0.00526947
-7.59921e-05
0.00526933
-7.7872e-05
0.0052692
-7.97802e-05
0.00526909
-8.17085e-05
0.00526899
-8.36504e-05
0.00526892
-8.55998e-05
0.00526887
-8.75515e-05
0.00526885
-8.95007e-05
0.00526886
-9.14429e-05
0.00526892
-9.3374e-05
0.00526901
-9.52899e-05
0.00526915
-9.7187e-05
0.00526934
-9.90616e-05
0.00526958
-0.00010091
0.00526987
-0.000102729
0.00527023
-0.000104515
0.00527064
-0.000106266
0.00527111
-0.000107977
0.00527165
-0.000109645
0.00527226
-0.000111268
0.00527293
-0.000112843
0.00527368
-0.000114366
0.00527451
-0.000115836
0.0052754
-0.000117248
0.00527638
-0.000118602
0.00527744
-0.000119893
0.00527857
-0.00012112
0.00527979
-0.000122281
0.00528109
-0.000123373
0.00528248
-0.000124393
0.00528395
-0.000125339
0.0052855
-0.000126206
0.00528714
-0.000126989
-0.000127685
0.00529267
-1.27453e-05
0.0052878
-0.000151335
0.00528054
-0.000237134
0.00527428
-0.000225043
0.00527044
-0.000170463
0.00526867
-0.000121196
0.00526815
-9.08154e-05
0.00526822
-7.5259e-05
0.0052685
-6.7965e-05
0.00526882
-6.46728e-05
0.0052691
-6.32926e-05
0.00526931
-6.29161e-05
0.00526944
-6.31494e-05
0.0052695
-6.38004e-05
0.00526949
-6.47584e-05
0.00526943
-6.59499e-05
0.00526933
-6.73222e-05
0.00526919
-6.88357e-05
0.00526903
-7.04606e-05
0.00526885
-7.21735e-05
0.00526865
-7.39561e-05
0.00526846
-7.57938e-05
0.00526826
-7.76749e-05
0.00526807
-7.95896e-05
0.00526789
-8.15295e-05
0.00526773
-8.34876e-05
0.00526758
-8.54577e-05
0.00526747
-8.74343e-05
0.00526738
-8.94124e-05
0.00526732
-9.13874e-05
0.0052673
-9.33549e-05
0.00526733
-9.5311e-05
0.00526739
-9.72516e-05
0.0052675
-9.9173e-05
0.00526766
-0.000101072
0.00526788
-0.000102944
0.00526815
-0.000104786
0.00526848
-0.000106596
0.00526887
-0.000108369
0.00526933
-0.000110102
0.00526985
-0.000111792
0.00527044
-0.000113436
0.00527111
-0.000115032
0.00527185
-0.000116576
0.00527267
-0.000118064
0.00527356
-0.000119496
0.00527454
-0.000120867
0.00527559
-0.000122176
0.00527673
-0.00012342
0.00527795
-0.000124596
0.00527926
-0.000125702
0.00528066
-0.000126734
0.00528214
-0.000127688
0.00528371
-0.000128559
-0.000129342
0.00529265
-1.25045e-05
0.00528803
-0.000146709
0.00528107
-0.00023018
0.00527501
-0.000218978
0.00527119
-0.000166641
0.00526931
-0.000119324
0.00526862
-9.01219e-05
0.0052685
-7.51419e-05
0.00526861
-6.80767e-05
0.00526878
-6.48409e-05
0.00526893
-6.34395e-05
0.00526902
-6.30108e-05
0.00526906
-6.31823e-05
0.00526903
-6.37725e-05
0.00526894
-6.46751e-05
0.00526881
-6.58186e-05
0.00526864
-6.71509e-05
0.00526844
-6.86324e-05
0.00526821
-7.02328e-05
0.00526797
-7.19282e-05
0.00526771
-7.36997e-05
0.00526745
-7.55324e-05
0.00526719
-7.74139e-05
0.00526693
-7.93342e-05
0.00526669
-8.12845e-05
0.00526646
-8.32576e-05
0.00526625
-8.52469e-05
0.00526606
-8.72469e-05
0.0052659
-8.92524e-05
0.00526577
-9.12586e-05
0.00526568
-9.3261e-05
0.00526562
-9.52554e-05
0.00526561
-9.7238e-05
0.00526564
-9.92048e-05
0.00526572
-0.000101152
0.00526585
-0.000103076
0.00526604
-0.000104974
0.00526628
-0.000106841
0.00526659
-0.000108675
0.00526696
-0.000110472
0.0052674
-0.000112229
0.0052679
-0.000113942
0.00526848
-0.00011561
0.00526913
-0.000117227
0.00526986
-0.000118792
0.00527067
-0.000120302
0.00527155
-0.000121754
0.00527252
-0.000123146
0.00527358
-0.000124473
0.00527471
-0.000125735
0.00527594
-0.000126928
0.00527725
-0.000128048
0.00527866
-0.000129091
0.00528015
-0.000130052
-0.000130926
0.00529264
-1.22517e-05
0.00528822
-0.000142289
0.00528153
-0.00022349
0.00527564
-0.000213092
0.00527185
-0.000162848
0.00526989
-0.000117362
0.00526905
-8.92804e-05
0.00526877
-7.48599e-05
0.00526872
-6.80297e-05
0.00526874
-6.48657e-05
0.00526877
-6.34605e-05
0.00526875
-6.29953e-05
0.00526869
-6.31182e-05
0.00526857
-6.36576e-05
0.00526841
-6.45125e-05
0.0052682
-6.56137e-05
0.00526796
-6.691e-05
0.00526769
-6.83621e-05
0.0052674
-6.99395e-05
0.00526709
-7.16182e-05
0.00526677
-7.33789e-05
0.00526644
-7.52062e-05
0.00526612
-7.70875e-05
0.00526579
-7.90124e-05
0.00526548
-8.09719e-05
0.00526518
-8.29585e-05
0.0052649
-8.49656e-05
0.00526464
-8.69874e-05
0.00526441
-8.90185e-05
0.0052642
-9.10541e-05
0.00526403
-9.30897e-05
0.0052639
-9.51209e-05
0.0052638
-9.71437e-05
0.00526375
-9.91541e-05
0.00526375
-0.000101148
0.00526379
-0.000103123
0.0052639
-0.000105074
0.00526405
-0.000106998
0.00526427
-0.000108892
0.00526455
-0.000110751
0.00526489
-0.000112574
0.00526531
-0.000114356
0.00526579
-0.000116094
0.00526635
-0.000117786
0.00526698
-0.000119427
0.0052677
-0.000121016
0.00526849
-0.000122548
0.00526937
-0.000124022
0.00527033
-0.000125435
0.00527138
-0.000126783
0.00527251
-0.000128064
0.00527374
-0.000129274
0.00527506
-0.000130408
0.00527647
-0.000131461
-0.000132428
0.00529263
-1.19906e-05
0.00528839
-0.000138047
0.00528193
-0.000217033
0.00527621
-0.000207367
0.00527245
-0.000159087
0.00527041
-0.000115327
0.00526944
-8.83095e-05
0.00526901
-7.44294e-05
0.00526882
-6.78361e-05
0.00526871
-6.47555e-05
0.00526861
-6.33607e-05
0.00526849
-6.28723e-05
0.00526833
-6.2958e-05
0.00526812
-6.34559e-05
0.00526788
-6.42702e-05
0.0052676
-6.53343e-05
0.00526729
-6.65983e-05
0.00526695
-6.80235e-05
0.00526659
-6.95796e-05
0.00526622
-7.12424e-05
0.00526583
-7.29923e-05
0.00526544
-7.48139e-05
0.00526504
-7.66943e-05
0.00526465
-7.86227e-05
0.00526427
-8.05901e-05
0.0052639
-8.25888e-05
0.00526355
-8.4612e-05
0.00526322
-8.66538e-05
0.00526291
-8.87088e-05
0.00526262
-9.07719e-05
0.00526237
-9.28387e-05
0.00526216
-9.49048e-05
0.00526198
-9.69659e-05
0.00526184
-9.90182e-05
0.00526175
-0.000101058
0.00526171
-0.000103081
0.00526172
-0.000105084
0.00526179
-0.000107063
0.00526191
-0.000109015
0.00526209
-0.000110936
0.00526234
-0.000112823
0.00526266
-0.000114673
0.00526305
-0.000116481
0.00526351
-0.000118246
0.00526404
-0.000119963
0.00526466
-0.00012163
0.00526535
-0.000123243
0.00526613
-0.0001248
0.00526699
-0.000126298
0.00526794
-0.000127733
0.00526898
-0.000129104
0.00527011
-0.000130404
0.00527134
-0.000131631
0.00527265
-0.000132779
-0.000133841
0.00529263
-1.17243e-05
0.00528854
-0.000133962
0.00528229
-0.000210786
0.00527672
-0.000201787
0.00527299
-0.000155358
0.00527089
-0.000113231
0.00526981
-8.72243e-05
0.00526924
-7.38643e-05
0.00526891
-6.7507e-05
0.00526867
-6.45179e-05
0.00526846
-6.31447e-05
0.00526823
-6.26446e-05
0.00526798
-6.27031e-05
0.00526769
-6.31678e-05
0.00526736
-6.3948e-05
0.00526701
-6.49798e-05
0.00526663
-6.62151e-05
0.00526622
-6.76158e-05
0.00526579
-6.9152e-05
0.00526535
-7.07995e-05
0.0052649
-7.25388e-05
0.00526444
-7.43543e-05
0.00526397
-7.62328e-05
0.00526352
-7.81637e-05
0.00526306
-8.01377e-05
0.00526262
-8.21469e-05
0.00526219
-8.41844e-05
0.00526178
-8.62444e-05
0.0052614
-8.83212e-05
0.00526103
-9.041e-05
0.0052607
-9.25059e-05
0.0052604
-9.46047e-05
0.00526014
-9.67022e-05
0.00525991
-9.87942e-05
0.00525973
-0.000100877
0.0052596
-0.000102947
0.00525952
-0.000105
0.00525948
-0.000107033
0.00525951
-0.000109041
0.0052596
-0.000111022
0.00525975
-0.000112972
0.00525996
-0.000114888
0.00526025
-0.000116766
0.0052606
-0.000118602
0.00526103
-0.000120394
0.00526154
-0.000122139
0.00526213
-0.000123833
0.00526281
-0.000125473
0.00526356
-0.000127056
0.00526441
-0.000128579
0.00526535
-0.000130039
0.00526637
-0.000131432
0.00526749
-0.000132753
0.00526871
-0.000133996
-0.000135155
0.00529262
-1.14552e-05
0.00528868
-0.000130015
0.00528262
-0.000204726
0.00527717
-0.00019634
0.00527347
-0.000151661
0.00527132
-0.000111081
0.00527014
-8.60369e-05
0.00526945
-7.31764e-05
0.00526899
-6.7052e-05
0.00526864
-6.416e-05
0.00526831
-6.28175e-05
0.00526798
-6.23152e-05
0.00526763
-6.23553e-05
0.00526726
-6.27941e-05
0.00526686
-6.3546e-05
0.00526643
-6.45502e-05
0.00526597
-6.57599e-05
0.00526549
-6.71383e-05
0.005265
-6.86559e-05
0.00526449
-7.02887e-05
0.00526397
-7.20174e-05
0.00526344
-7.38262e-05
0.00526291
-7.57021e-05
0.00526238
-7.76342e-05
0.00526185
-7.96132e-05
0.00526134
-8.16312e-05
0.00526083
-8.36813e-05
0.00526035
-8.57574e-05
0.00525988
-8.78541e-05
0.00525944
-8.99662e-05
0.00525902
-9.20891e-05
0.00525863
-9.42184e-05
0.00525828
-9.63499e-05
0.00525797
-9.84795e-05
0.00525769
-0.000100603
0.00525746
-0.000102718
0.00525728
-0.000104819
0.00525715
-0.000106903
0.00525708
-0.000108966
0.00525706
-0.000111005
0.0052571
-0.000113017
0.00525721
-0.000114997
0.00525739
-0.000116942
0.00525764
-0.00011885
0.00525796
-0.000120716
0.00525836
-0.000122538
0.00525884
-0.000124311
0.0052594
-0.000126034
0.00526004
-0.000127703
0.00526078
-0.000129314
0.0052616
-0.000130864
0.00526252
-0.000132349
0.00526353
-0.000133765
0.00526464
-0.000135104
-0.000136361
0.00529262