/*--------------------------------*- C++ -*----------------------------------*\
| =========                 |                                                 |
| \\      /  F ield         | OpenFOAM: The Open Source CFD Toolbox           |
|  \\    /   O peration     | Version:  2412                                  |
|   \\  /    A nd           | Website:  www.openfoam.com                      |
|    \\/     M anipulation  |                                                 |
\*---------------------------------------------------------------------------*/
FoamFile
{
    version     2.0;
    format      ascii;
    arch        "LSB;label=32;scalar=64";
    class       volVectorField;
    location    "28";
    object      U;
}
// * * * * * * * * * * * * * * * * * * * * * * * * * * * * * * * * * * * * * //

dimensions      [0 1 -1 0 0 0 0];

internalField   nonuniform List<vector> 
5285
(
(0.098897 -0.00167718 0)
(0.098946 -0.00157623 0)
(0.0989949 -0.00148065 0)
(0.0990434 -0.00139016 0)
(0.0990914 -0.00130447 0)
(0.0991387 -0.00122334 0)
(0.0991852 -0.00114652 0)
(0.0992306 -0.00107378 0)
(0.0992749 -0.00100492 0)
(0.0993181 -0.000939744 0)
(0.09936 -0.000878067 0)
(0.0994005 -0.000819728 0)
(0.0994397 -0.000764568 0)
(0.0994775 -0.000712444 0)
(0.0995139 -0.000663215 0)
(0.0995488 -0.000616752 0)
(0.0995823 -0.000572929 0)
(0.0996143 -0.000531629 0)
(0.0996449 -0.000492737 0)
(0.099674 -0.000456143 0)
(0.0997018 -0.000421742 0)
(0.0997281 -0.000389433 0)
(0.099753 -0.000359117 0)
(0.0997766 -0.000330702 0)
(0.0997989 -0.000304095 0)
(0.0998199 -0.00027921 0)
(0.0998396 -0.000255962 0)
(0.0998581 -0.000234271 0)
(0.0998754 -0.000214057 0)
(0.0998916 -0.000195246 0)
(0.0999067 -0.000177764 0)
(0.0989429 -0.00169798 0)
(0.0989887 -0.00159668 0)
(0.0990346 -0.00150066 0)
(0.0990803 -0.00140963 0)
(0.0991257 -0.00132334 0)
(0.0991705 -0.00124156 0)
(0.0992147 -0.00116405 0)
(0.099258 -0.0010906 0)
(0.0993003 -0.00102101 0)
(0.0993416 -0.000955083 0)
(0.0993817 -0.000892661 0)
(0.0994207 -0.00083358 0)
(0.0994584 -0.000777688 0)
(0.0994948 -0.000724842 0)
(0.0995298 -0.000674908 0)
(0.0995635 -0.000627757 0)
(0.0995959 -0.000583266 0)
(0.0996269 -0.00054132 0)
(0.0996565 -0.000501804 0)
(0.0996847 -0.00046461 0)
(0.0997116 -0.000429633 0)
(0.0997371 -0.000396774 0)
(0.0997613 -0.000365933 0)
(0.0997842 -0.000337017 0)
(0.0998059 -0.000309935 0)
(0.0998262 -0.000284599 0)
(0.0998454 -0.000260925 0)
(0.0998634 -0.000238832 0)
(0.0998803 -0.000218239 0)
(0.099896 -0.000199073 0)
(0.0999107 -0.000181258 0)
(0.0999244 -0.000164723 0)
(0.099937 -0.000149403 0)
(0.0999488 -0.000135231 0)
(0.0999596 -0.000122144 0)
(0.0999696 -0.000110081 0)
(0.0999787 -9.89833e-05 0)
(0.0999871 -8.87968e-05 0)
(0.0999948 -7.94661e-05 0)
(0.100002 -7.09429e-05 0)
(0.100008 -6.31736e-05 0)
(0.100014 -5.61196e-05 0)
(0.100019 -4.97239e-05 0)
(0.100024 -4.39662e-05 0)
(0.100028 -3.87733e-05 0)
(0.100031 -3.4163e-05 0)
(0.100035 -3.00177e-05 0)
(0.100038 -2.64342e-05 0)
(0.100041 -2.31934e-05 0)
(0.100043 -2.05503e-05 0)
(0.100045 -1.80795e-05 0)
(0.100046 -1.63307e-05 0)
(0.100049 -1.45037e-05 0)
(0.100049 -1.36509e-05 0)
(0.100053 -1.23574e-05 0)
(0.100051 -1.24489e-05 0)
(0.100057 -1.16178e-05 0)
(0.100053 -1.27304e-05 0)
(0.100061 -1.23903e-05 0)
(0.100056 -1.45614e-05 0)
(0.100066 -1.50021e-05 0)
(0.100058 -1.79979e-05 0)
(0.100073 -2.0216e-05 0)
(0.100063 -2.29384e-05 0)
(0.100083 -2.93153e-05 0)
(0.10007 -2.9879e-05 0)
(0.100096 -4.19805e-05 0)
(0.100084 -4.34861e-05 0)
(0.100112 -5.52047e-05 0)
(0.100106 -6.35486e-05 0)
(0.100141 -8.15451e-05 0)
(0.0989889 -0.00171733 0)
(0.0990315 -0.0016158 0)
(0.0990744 -0.00151943 0)
(0.0991174 -0.00142797 0)
(0.0991601 -0.00134118 0)
(0.0992025 -0.00125884 0)
(0.0992444 -0.00118072 0)
(0.0992855 -0.00110662 0)
(0.0993259 -0.00103636 0)
(0.0993653 -0.000969758 0)
(0.0994037 -0.000906649 0)
(0.0994411 -0.000846878 0)
(0.0994772 -0.0007903 0)
(0.0995122 -0.000736777 0)
(0.099546 -0.000686177 0)
(0.0995785 -0.000638375 0)
(0.0996097 -0.00059325 0)
(0.0996396 -0.000550687 0)
(0.0996682 -0.000510575 0)
(0.0996955 -0.000472807 0)
(0.0997215 -0.000437279 0)
(0.0997462 -0.00040389 0)
(0.0997697 -0.000372543 0)
(0.0997919 -0.000343145 0)
(0.0998129 -0.000315604 0)
(0.0998327 -0.000289833 0)
(0.0998513 -0.000265747 0)
(0.0998688 -0.000243264 0)
(0.0998852 -0.000222306 0)
(0.0999005 -0.000202794 0)
(0.0999147 -0.000184657 0)
(0.099928 -0.00016782 0)
(0.0999403 -0.000152217 0)
(0.0999517 -0.000137782 0)
(0.0999623 -0.00012445 0)
(0.099972 -0.00011216 0)
(0.0999809 -0.000100853 0)
(0.099989 -9.04735e-05 0)
(0.0999965 -8.09652e-05 0)
(0.100003 -7.22792e-05 0)
(0.100009 -6.43611e-05 0)
(0.100015 -5.71717e-05 0)
(0.10002 -5.06528e-05 0)
(0.100025 -4.47842e-05 0)
(0.100029 -3.94909e-05 0)
(0.100032 -3.47918e-05 0)
(0.100036 -3.05661e-05 0)
(0.100038 -2.69141e-05 0)
(0.100041 -2.36102e-05 0)
(0.100043 -2.09176e-05 0)
(0.100046 -1.8398e-05 0)
(0.100046 -1.66186e-05 0)
(0.100049 -1.47538e-05 0)
(0.100049 -1.38908e-05 0)
(0.100053 -1.25667e-05 0)
(0.100051 -1.26719e-05 0)
(0.100057 -1.18131e-05 0)
(0.100053 -1.29693e-05 0)
(0.100061 -1.25985e-05 0)
(0.100055 -1.48548e-05 0)
(0.100066 -1.52528e-05 0)
(0.100058 -1.83935e-05 0)
(0.100073 -2.05504e-05 0)
(0.100062 -2.34826e-05 0)
(0.100083 -2.98338e-05 0)
(0.100069 -3.0561e-05 0)
(0.100095 -4.29107e-05 0)
(0.100083 -4.43269e-05 0)
(0.100111 -5.6616e-05 0)
(0.100105 -6.50067e-05 0)
(0.10014 -8.36489e-05 0)
(0.0990349 -0.00173526 0)
(0.0990744 -0.0016336 0)
(0.0991144 -0.00153699 0)
(0.0991546 -0.0014452 0)
(0.0991947 -0.001358 0)
(0.0992347 -0.00127517 0)
(0.0992743 -0.00119652 0)
(0.0993133 -0.00112186 0)
(0.0993517 -0.001051 0)
(0.0993892 -0.000983774 0)
(0.0994259 -0.000920032 0)
(0.0994616 -0.000859623 0)
(0.0994963 -0.000802407 0)
(0.0995299 -0.000748249 0)
(0.0995623 -0.000697022 0)
(0.0995936 -0.000648604 0)
(0.0996236 -0.000602878 0)
(0.0996524 -0.00055973 0)
(0.0996801 -0.00051905 0)
(0.0997064 -0.000480733 0)
(0.0997316 -0.000444676 0)
(0.0997555 -0.00041078 0)
(0.0997782 -0.000378947 0)
(0.0997997 -0.000349085 0)
(0.09982 -0.000321102 0)
(0.0998392 -0.000294911 0)
(0.0998573 -0.000270427 0)
(0.0998742 -0.000247568 0)
(0.0998901 -0.000226255 0)
(0.099905 -0.00020641 0)
(0.0999188 -0.000187959 0)
(0.0999317 -0.000170829 0)
(0.0999437 -0.000154951 0)
(0.0999548 -0.000140261 0)
(0.099965 -0.000126691 0)
(0.0999744 -0.000114181 0)
(0.0999831 -0.00010267 0)
(0.099991 -9.21028e-05 0)
(0.0999982 -8.24217e-05 0)
(0.100005 -7.35772e-05 0)
(0.100011 -6.55142e-05 0)
(0.100016 -5.81929e-05 0)
(0.100021 -5.15541e-05 0)
(0.100025 -4.55774e-05 0)
(0.100029 -4.01864e-05 0)
(0.100033 -3.54008e-05 0)
(0.100036 -3.10969e-05 0)
(0.100039 -2.73782e-05 0)
(0.100041 -2.40128e-05 0)
(0.100043 -2.12721e-05 0)
(0.100046 -1.87048e-05 0)
(0.100047 -1.6896e-05 0)
(0.10005 -1.4994e-05 0)
(0.100049 -1.41219e-05 0)
(0.100053 -1.27674e-05 0)
(0.100051 -1.28871e-05 0)
(0.100056 -1.2e-05 0)
(0.100053 -1.3201e-05 0)
(0.10006 -1.27978e-05 0)
(0.100055 -1.51415e-05 0)
(0.100065 -1.54921e-05 0)
(0.100057 -1.87842e-05 0)
(0.100072 -2.08671e-05 0)
(0.100061 -2.4027e-05 0)
(0.100082 -3.03252e-05 0)
(0.100068 -3.12409e-05 0)
(0.100095 -4.38272e-05 0)
(0.100081 -4.51285e-05 0)
(0.10011 -5.80385e-05 0)
(0.100104 -6.64413e-05 0)
(0.100138 -8.57301e-05 0)
(0.099081 -0.00175178 0)
(0.0991174 -0.0016501 0)
(0.0991544 -0.00155335 0)
(0.0991919 -0.00146132 0)
(0.0992295 -0.00137379 0)
(0.099267 -0.00129057 0)
(0.0993043 -0.00121147 0)
(0.0993413 -0.0011363 0)
(0.0993776 -0.00106491 0)
(0.0994134 -0.000997125 0)
(0.0994483 -0.000932806 0)
(0.0994824 -0.00087181 0)
(0.0995155 -0.000814002 0)
(0.0995477 -0.000759252 0)
(0.0995788 -0.000707438 0)
(0.0996088 -0.000658441 0)
(0.0996377 -0.000612147 0)
(0.0996654 -0.000568443 0)
(0.099692 -0.000527224 0)
(0.0997175 -0.000488384 0)
(0.0997417 -0.000451823 0)
(0.0997648 -0.00041744 0)
(0.0997868 -0.000385141 0)
(0.0998076 -0.000354833 0)
(0.0998272 -0.000326425 0)
(0.0998458 -0.00029983 0)
(0.0998633 -0.000274963 0)
(0.0998797 -0.000251741 0)
(0.0998951 -0.000230085 0)
(0.0999095 -0.000209917 0)
(0.0999229 -0.000191163 0)
(0.0999354 -0.000173749 0)
(0.099947 -0.000157606 0)
(0.0999578 -0.000142667 0)
(0.0999677 -0.000128867 0)
(0.0999768 -0.000116143 0)
(0.0999852 -0.000104434 0)
(0.0999929 -9.36842e-05 0)
(0.0999999 -8.38351e-05 0)
(0.100006 -7.48366e-05 0)
(0.100012 -6.66327e-05 0)
(0.100017 -5.91831e-05 0)
(0.100022 -5.24276e-05 0)
(0.100026 -4.63459e-05 0)
(0.10003 -4.08597e-05 0)
(0.100033 -3.599e-05 0)
(0.100037 -3.16099e-05 0)
(0.100039 -2.78263e-05 0)
(0.100042 -2.4401e-05 0)
(0.100043 -2.16137e-05 0)
(0.100046 -1.89999e-05 0)
(0.100047 -1.71629e-05 0)
(0.10005 -1.52244e-05 0)
(0.100049 -1.4344e-05 0)
(0.100053 -1.29593e-05 0)
(0.100051 -1.30943e-05 0)
(0.100056 -1.21786e-05 0)
(0.100053 -1.34254e-05 0)
(0.10006 -1.29882e-05 0)
(0.100055 -1.54213e-05 0)
(0.100065 -1.572e-05 0)
(0.100057 -1.917e-05 0)
(0.100072 -2.11655e-05 0)
(0.10006 -2.45718e-05 0)
(0.100082 -3.07885e-05 0)
(0.100066 -3.19189e-05 0)
(0.100094 -4.47296e-05 0)
(0.10008 -4.58887e-05 0)
(0.100109 -5.94732e-05 0)
(0.100103 -6.78511e-05 0)
(0.100137 -8.77859e-05 0)
(0.0991269 -0.00176692 0)
(0.0991603 -0.00166532 0)
(0.0991945 -0.00156853 0)
(0.0992292 -0.00147634 0)
(0.0992643 -0.00138858 0)
(0.0992995 -0.00130504 0)
(0.0993345 -0.00122556 0)
(0.0993693 -0.00114996 0)
(0.0994038 -0.0010781 0)
(0.0994376 -0.00100981 0)
(0.0994708 -0.000944973 0)
(0.0995033 -0.00088344 0)
(0.0995349 -0.000825085 0)
(0.0995656 -0.000769787 0)
(0.0995954 -0.000717425 0)
(0.0996242 -0.000667884 0)
(0.0996519 -0.000621054 0)
(0.0996785 -0.000576826 0)
(0.0997041 -0.000535095 0)
(0.0997286 -0.000495758 0)
(0.099752 -0.000458716 0)
(0.0997742 -0.000423869 0)
(0.0997954 -0.000391125 0)
(0.0998155 -0.000360389 0)
(0.0998345 -0.000331573 0)
(0.0998524 -0.000304589 0)
(0.0998693 -0.000279352 0)
(0.0998852 -0.000255781 0)
(0.0999001 -0.000233794 0)
(0.099914 -0.000213314 0)
(0.0999271 -0.000194267 0)
(0.0999392 -0.000176578 0)
(0.0999504 -0.000160178 0)
(0.0999608 -0.000144999 0)
(0.0999704 -0.000130976 0)
(0.0999793 -0.000118044 0)
(0.0999874 -0.000106144 0)
(0.0999949 -9.52167e-05 0)
(0.100002 -8.52046e-05 0)
(0.100008 -7.60566e-05 0)
(0.100013 -6.77158e-05 0)
(0.100019 -6.01416e-05 0)
(0.100023 -5.32728e-05 0)
(0.100027 -4.7089e-05 0)
(0.100031 -4.15104e-05 0)
(0.100034 -3.65589e-05 0)
(0.100037 -3.21047e-05 0)
(0.100039 -2.82582e-05 0)
(0.100042 -2.47747e-05 0)
(0.100044 -2.19423e-05 0)
(0.100046 -1.92831e-05 0)
(0.100047 -1.74191e-05 0)
(0.10005 -1.54449e-05 0)
(0.100049 -1.45571e-05 0)
(0.100053 -1.31424e-05 0)
(0.100051 -1.32936e-05 0)
(0.100056 -1.23488e-05 0)
(0.100053 -1.36423e-05 0)
(0.10006 -1.31694e-05 0)
(0.100054 -1.56942e-05 0)
(0.100065 -1.59363e-05 0)
(0.100056 -1.95507e-05 0)
(0.100071 -2.14455e-05 0)
(0.10006 -2.51172e-05 0)
(0.100081 -3.12229e-05 0)
(0.100065 -3.25956e-05 0)
(0.100094 -4.56177e-05 0)
(0.100078 -4.66055e-05 0)
(0.100107 -6.09213e-05 0)
(0.100101 -6.92356e-05 0)
(0.100135 -8.98138e-05 0)
(0.0991728 -0.0017807 0)
(0.0992032 -0.00167927 0)
(0.0992345 -0.00158253 0)
(0.0992666 -0.00149029 0)
(0.0992992 -0.00140236 0)
(0.099332 -0.00131859 0)
(0.0993648 -0.0012388 0)
(0.0993975 -0.00116284 0)
(0.09943 -0.00109057 0)
(0.099462 -0.00102184 0)
(0.0994935 -0.000956532 0)
(0.0995243 -0.000894511 0)
(0.0995544 -0.000835656 0)
(0.0995837 -0.00077985 0)
(0.0996121 -0.000726979 0)
(0.0996396 -0.000676931 0)
(0.0996662 -0.000629599 0)
(0.0996917 -0.000584876 0)
(0.0997163 -0.000542662 0)
(0.0997398 -0.000502853 0)
(0.0997623 -0.000465353 0)
(0.0997837 -0.000430065 0)
(0.0998041 -0.000396894 0)
(0.0998235 -0.00036575 0)
(0.0998418 -0.000336543 0)
(0.0998591 -0.000309186 0)
(0.0998754 -0.000283595 0)
(0.0998908 -0.000259686 0)
(0.0999052 -0.000237381 0)
(0.0999186 -0.000216601 0)
(0.0999312 -0.000197271 0)
(0.0999429 -0.000179317 0)
(0.0999538 -0.000162668 0)
(0.0999638 -0.000147257 0)
(0.0999731 -0.000133017 0)
(0.0999817 -0.000119885 0)
(0.0999896 -0.000107799 0)
(0.0999968 -9.67e-05 0)
(0.100003 -8.65298e-05 0)
(0.100009 -7.72368e-05 0)
(0.100015 -6.87633e-05 0)
(0.10002 -6.10683e-05 0)
(0.100024 -5.40895e-05 0)
(0.100028 -4.78065e-05 0)
(0.100032 -4.21382e-05 0)
(0.100035 -3.71074e-05 0)
(0.100038 -3.25813e-05 0)
(0.10004 -2.86738e-05 0)
(0.100042 -2.51336e-05 0)
(0.100044 -2.22577e-05 0)
(0.100046 -1.95544e-05 0)
(0.100047 -1.76645e-05 0)
(0.10005 -1.56552e-05 0)
(0.100049 -1.47611e-05 0)
(0.100053 -1.33166e-05 0)
(0.100051 -1.34848e-05 0)
(0.100056 -1.25104e-05 0)
(0.100052 -1.38517e-05 0)
(0.100059 -1.33415e-05 0)
(0.100054 -1.59599e-05 0)
(0.100064 -1.61408e-05 0)
(0.100056 -1.99261e-05 0)
(0.100071 -2.17067e-05 0)
(0.100059 -2.56634e-05 0)
(0.100081 -3.16275e-05 0)
(0.100064 -3.3271e-05 0)
(0.100093 -4.64911e-05 0)
(0.100077 -4.7277e-05 0)
(0.100106 -6.23835e-05 0)
(0.1001 -7.05939e-05 0)
(0.100133 -9.18112e-05 0)
(0.0992184 -0.00179316 0)
(0.0992459 -0.00169199 0)
(0.0992746 -0.00159539 0)
(0.099304 -0.00150317 0)
(0.0993341 -0.00141517 0)
(0.0993645 -0.00133123 0)
(0.0993952 -0.0012512 0)
(0.0994258 -0.00117494 0)
(0.0994563 -0.00110232 0)
(0.0994865 -0.00103321 0)
(0.0995162 -0.000967485 0)
(0.0995454 -0.000905024 0)
(0.099574 -0.000845714 0)
(0.0996018 -0.000789442 0)
(0.0996289 -0.0007361 0)
(0.0996552 -0.00068558 0)
(0.0996806 -0.000637778 0)
(0.099705 -0.000592591 0)
(0.0997285 -0.000549921 0)
(0.0997511 -0.000509667 0)
(0.0997727 -0.000471733 0)
(0.0997933 -0.000436025 0)
(0.0998129 -0.000402449 0)
(0.0998315 -0.000370915 0)
(0.0998491 -0.000341334 0)
(0.0998658 -0.000313619 0)
(0.0998815 -0.000287687 0)
(0.0998963 -0.000263456 0)
(0.0999102 -0.000240844 0)
(0.0999232 -0.000219775 0)
(0.0999353 -0.000200173 0)
(0.0999466 -0.000181963 0)
(0.0999571 -0.000165074 0)
(0.0999669 -0.000149439 0)
(0.0999759 -0.000134991 0)
(0.0999841 -0.000121665 0)
(0.0999917 -0.000109398 0)
(0.0999987 -9.81334e-05 0)
(0.100005 -8.78103e-05 0)
(0.100011 -7.83768e-05 0)
(0.100016 -6.97747e-05 0)
(0.100021 -6.19626e-05 0)
(0.100025 -5.48773e-05 0)
(0.100029 -4.84983e-05 0)
(0.100032 -4.27429e-05 0)
(0.100035 -3.76353e-05 0)
(0.100038 -3.30395e-05 0)
(0.10004 -2.90729e-05 0)
(0.100043 -2.54778e-05 0)
(0.100044 -2.25599e-05 0)
(0.100046 -1.98136e-05 0)
(0.100047 -1.7899e-05 0)
(0.10005 -1.58555e-05 0)
(0.100049 -1.4956e-05 0)
(0.100052 -1.34819e-05 0)
(0.100051 -1.3668e-05 0)
(0.100055 -1.26635e-05 0)
(0.100052 -1.40535e-05 0)
(0.100059 -1.35045e-05 0)
(0.100053 -1.62184e-05 0)
(0.100064 -1.63337e-05 0)
(0.100055 -2.02963e-05 0)
(0.10007 -2.19489e-05 0)
(0.100058 -2.62102e-05 0)
(0.10008 -3.20016e-05 0)
(0.100062 -3.39453e-05 0)
(0.100093 -4.73495e-05 0)
(0.100075 -4.79016e-05 0)
(0.100105 -6.38605e-05 0)
(0.100099 -7.19251e-05 0)
(0.100131 -9.37754e-05 0)
(0.0992639 -0.0018043 0)
(0.0992886 -0.0017035 0)
(0.0993145 -0.00160711 0)
(0.0993413 -0.001515 0)
(0.099369 -0.00142699 0)
(0.0993971 -0.00134296 0)
(0.0994256 -0.00126276 0)
(0.0994541 -0.00118627 0)
(0.0994827 -0.00111337 0)
(0.099511 -0.00104392 0)
(0.099539 -0.000977831 0)
(0.0995666 -0.000914979 0)
(0.0995936 -0.000855257 0)
(0.0996201 -0.000798561 0)
(0.0996458 -0.000744786 0)
(0.0996708 -0.000693829 0)
(0.099695 -0.00064559 0)
(0.0997184 -0.00059997 0)
(0.0997408 -0.000556871 0)
(0.0997624 -0.000516197 0)
(0.0997831 -0.000477854 0)
(0.0998028 -0.000441747 0)
(0.0998216 -0.000407786 0)
(0.0998395 -0.00037588 0)
(0.0998565 -0.000345943 0)
(0.0998725 -0.000317887 0)
(0.0998877 -0.00029163 0)
(0.0999019 -0.000267088 0)
(0.0999153 -0.000244183 0)
(0.0999278 -0.000222836 0)
(0.0999395 -0.000202972 0)
(0.0999504 -0.000184516 0)
(0.0999605 -0.000167396 0)
(0.0999699 -0.000151545 0)
(0.0999785 -0.000136895 0)
(0.0999865 -0.000123382 0)
(0.0999938 -0.000110942 0)
(0.100001 -9.95165e-05 0)
(0.100007 -8.90454e-05 0)
(0.100012 -7.94762e-05 0)
(0.100017 -7.07498e-05 0)
(0.100022 -6.28244e-05 0)
(0.100026 -5.56359e-05 0)
(0.10003 -4.9164e-05 0)
(0.100033 -4.33244e-05 0)
(0.100036 -3.81425e-05 0)
(0.100038 -3.34791e-05 0)
(0.10004 -2.94554e-05 0)
(0.100043 -2.5807e-05 0)
(0.100044 -2.28487e-05 0)
(0.100046 -2.00606e-05 0)
(0.100047 -1.81227e-05 0)
(0.100049 -1.60456e-05 0)
(0.100049 -1.51416e-05 0)
(0.100052 -1.36382e-05 0)
(0.10005 -1.38429e-05 0)
(0.100055 -1.28079e-05 0)
(0.100051 -1.42477e-05 0)
(0.100059 -1.36582e-05 0)
(0.100053 -1.64697e-05 0)
(0.100063 -1.65148e-05 0)
(0.100054 -2.06609e-05 0)
(0.10007 -2.21721e-05 0)
(0.100057 -2.67578e-05 0)
(0.100079 -3.23449e-05 0)
(0.100061 -3.46187e-05 0)
(0.100092 -4.81925e-05 0)
(0.100073 -4.8478e-05 0)
(0.100103 -6.53526e-05 0)
(0.100097 -7.32288e-05 0)
(0.100129 -9.57038e-05 0)
(0.0993092 -0.00181417 0)
(0.099331 -0.0017138 0)
(0.0993542 -0.00161773 0)
(0.0993786 -0.00152579 0)
(0.0994038 -0.00143785 0)
(0.0994296 -0.0013538 0)
(0.0994559 -0.0012735 0)
(0.0994825 -0.00119684 0)
(0.0995091 -0.0011237 0)
(0.0995356 -0.00105398 0)
(0.0995619 -0.000987573 0)
(0.0995878 -0.000924376 0)
(0.0996134 -0.000864287 0)
(0.0996384 -0.000807207 0)
(0.0996628 -0.000753036 0)
(0.0996865 -0.000701677 0)
(0.0997095 -0.000653034 0)
(0.0997317 -0.00060701 0)
(0.0997532 -0.000563511 0)
(0.0997738 -0.000522443 0)
(0.0997935 -0.000483714 0)
(0.0998124 -0.000447231 0)
(0.0998304 -0.000412905 0)
(0.0998476 -0.000380647 0)
(0.0998638 -0.00035037 0)
(0.0998792 -0.000321989 0)
(0.0998938 -0.00029542 0)
(0.0999075 -0.000270583 0)
(0.0999203 -0.000247397 0)
(0.0999324 -0.000225783 0)
(0.0999436 -0.000205667 0)
(0.0999541 -0.000186975 0)
(0.0999638 -0.000169633 0)
(0.0999729 -0.000153574 0)
(0.0999812 -0.00013873 0)
(0.0999889 -0.000125036 0)
(0.0999959 -0.000112429 0)
(0.100002 -0.000100849 0)
(0.100008 -9.02349e-05 0)
(0.100014 -8.05347e-05 0)
(0.100018 -7.16882e-05 0)
(0.100023 -6.36534e-05 0)
(0.100027 -5.63652e-05 0)
(0.10003 -4.98035e-05 0)
(0.100033 -4.38825e-05 0)
(0.100036 -3.86287e-05 0)
(0.100039 -3.39e-05 0)
(0.100041 -2.98213e-05 0)
(0.100043 -2.61214e-05 0)
(0.100044 -2.31242e-05 0)
(0.100046 -2.02956e-05 0)
(0.100047 -1.83354e-05 0)
(0.100049 -1.62255e-05 0)
(0.100049 -1.53181e-05 0)
(0.100052 -1.37855e-05 0)
(0.10005 -1.40098e-05 0)
(0.100055 -1.29439e-05 0)
(0.100051 -1.44342e-05 0)
(0.100058 -1.38028e-05 0)
(0.100052 -1.67136e-05 0)
(0.100063 -1.66843e-05 0)
(0.100054 -2.10199e-05 0)
(0.100069 -2.23762e-05 0)
(0.100056 -2.73059e-05 0)
(0.100079 -3.2657e-05 0)
(0.100059 -3.5291e-05 0)
(0.100091 -4.902e-05 0)
(0.100071 -4.9005e-05 0)
(0.100102 -6.68597e-05 0)
(0.100096 -7.45041e-05 0)
(0.100127 -9.75941e-05 0)
(0.0993542 -0.00182279 0)
(0.0993733 -0.00172294 0)
(0.0993939 -0.00162724 0)
(0.0994157 -0.00153556 0)
(0.0994385 -0.00144776 0)
(0.0994621 -0.00136375 0)
(0.0994863 -0.00128341 0)
(0.0995108 -0.00120664 0)
(0.0995354 -0.00113333 0)
(0.0995601 -0.00106339 0)
(0.0995847 -0.000996714 0)
(0.0996091 -0.000933218 0)
(0.0996331 -0.000872805 0)
(0.0996567 -0.00081538 0)
(0.0996797 -0.000760851 0)
(0.0997022 -0.000709125 0)
(0.099724 -0.000660109 0)
(0.0997451 -0.000613711 0)
(0.0997655 -0.000569839 0)
(0.0997851 -0.000528403 0)
(0.099804 -0.000489311 0)
(0.099822 -0.000452474 0)
(0.0998392 -0.000417804 0)
(0.0998556 -0.000385212 0)
(0.0998712 -0.000354613 0)
(0.0998859 -0.000325923 0)
(0.0998999 -0.000299058 0)
(0.099913 -0.000273938 0)
(0.0999253 -0.000250483 0)
(0.0999369 -0.000228615 0)
(0.0999477 -0.000208259 0)
(0.0999578 -0.000189339 0)
(0.0999671 -0.000171784 0)
(0.0999758 -0.000155526 0)
(0.0999838 -0.000140495 0)
(0.0999912 -0.000126628 0)
(0.099998 -0.000113859 0)
(0.100004 -0.00010213 0)
(0.10001 -9.13785e-05 0)
(0.100015 -8.15519e-05 0)
(0.10002 -7.25897e-05 0)
(0.100024 -6.44494e-05 0)
(0.100028 -5.7065e-05 0)
(0.100031 -5.04168e-05 0)
(0.100034 -4.44171e-05 0)
(0.100037 -3.9094e-05 0)
(0.100039 -3.43022e-05 0)
(0.100041 -3.01704e-05 0)
(0.100043 -2.64207e-05 0)
(0.100044 -2.33863e-05 0)
(0.100046 -2.05183e-05 0)
(0.100047 -1.85373e-05 0)
(0.100049 -1.63952e-05 0)
(0.100048 -1.54854e-05 0)
(0.100052 -1.39239e-05 0)
(0.10005 -1.41686e-05 0)
(0.100054 -1.30712e-05 0)
(0.100051 -1.46131e-05 0)
(0.100058 -1.39382e-05 0)
(0.100052 -1.69501e-05 0)
(0.100062 -1.68421e-05 0)
(0.100053 -2.13731e-05 0)
(0.100068 -2.25614e-05 0)
(0.100055 -2.78542e-05 0)
(0.100078 -3.29379e-05 0)
(0.100058 -3.5962e-05 0)
(0.10009 -4.98315e-05 0)
(0.10007 -4.94822e-05 0)
(0.1001 -6.83811e-05 0)
(0.100094 -7.57506e-05 0)
(0.100124 -9.9444e-05 0)
(0.0993989 -0.00183019 0)
(0.0994153 -0.00173093 0)
(0.0994333 -0.00163568 0)
(0.0994527 -0.00154432 0)
(0.0994731 -0.00145674 0)
(0.0994945 -0.00137284 0)
(0.0995165 -0.00129252 0)
(0.099539 -0.00121569 0)
(0.0995618 -0.00114226 0)
(0.0995847 -0.00107214 0)
(0.0996076 -0.00100525 0)
(0.0996303 -0.000941506 0)
(0.0996528 -0.00088081 0)
(0.099675 -0.000823081 0)
(0.0996967 -0.00076823 0)
(0.0997179 -0.000716171 0)
(0.0997385 -0.000666814 0)
(0.0997585 -0.000620072 0)
(0.0997779 -0.000575855 0)
(0.0997965 -0.000534076 0)
(0.0998144 -0.000494646 0)
(0.0998316 -0.000457477 0)
(0.099848 -0.000422482 0)
(0.0998637 -0.000389575 0)
(0.0998785 -0.000358672 0)
(0.0998926 -0.000329688 0)
(0.099906 -0.000302542 0)
(0.0999185 -0.000277154 0)
(0.0999303 -0.000253443 0)
(0.0999414 -0.000231331 0)
(0.0999517 -0.000210745 0)
(0.0999614 -0.000191608 0)
(0.0999704 -0.000173849 0)
(0.0999787 -0.000157399 0)
(0.0999864 -0.00014219 0)
(0.0999935 -0.000128155 0)
(0.1 -0.000115232 0)
(0.100006 -0.000103359 0)
(0.100011 -9.24759e-05 0)
(0.100016 -8.25278e-05 0)
(0.100021 -7.34541e-05 0)
(0.100025 -6.52122e-05 0)
(0.100028 -5.77353e-05 0)
(0.100032 -5.10036e-05 0)
(0.100034 -4.49282e-05 0)
(0.100037 -3.95384e-05 0)
(0.100039 -3.46857e-05 0)
(0.100041 -3.05029e-05 0)
(0.100043 -2.67051e-05 0)
(0.100044 -2.3635e-05 0)
(0.100046 -2.0729e-05 0)
(0.100046 -1.87283e-05 0)
(0.100049 -1.65549e-05 0)
(0.100048 -1.56436e-05 0)
(0.100051 -1.40533e-05 0)
(0.100049 -1.43193e-05 0)
(0.100054 -1.31901e-05 0)
(0.10005 -1.47843e-05 0)
(0.100057 -1.40646e-05 0)
(0.100051 -1.71791e-05 0)
(0.100061 -1.69884e-05 0)
(0.100052 -2.17202e-05 0)
(0.100067 -2.2728e-05 0)
(0.100054 -2.84023e-05 0)
(0.100077 -3.31879e-05 0)
(0.100056 -3.66312e-05 0)
(0.10009 -5.06268e-05 0)
(0.100068 -4.99091e-05 0)
(0.100098 -6.99159e-05 0)
(0.100093 -7.69677e-05 0)
(0.100122 -0.000101252 0)
(0.0994432 -0.00183639 0)
(0.099457 -0.0017378 0)
(0.0994725 -0.00164307 0)
(0.0994894 -0.0015521 0)
(0.0995076 -0.00146479 0)
(0.0995268 -0.00138106 0)
(0.0995467 -0.00130082 0)
(0.0995672 -0.00122399 0)
(0.0995881 -0.0011505 0)
(0.0996092 -0.00108026 0)
(0.0996304 -0.0010132 0)
(0.0996516 -0.000949241 0)
(0.0996725 -0.000888305 0)
(0.0996933 -0.00083031 0)
(0.0997136 -0.000775174 0)
(0.0997336 -0.000722815 0)
(0.099753 -0.00067315 0)
(0.0997719 -0.000626092 0)
(0.0997902 -0.000581558 0)
(0.0998079 -0.000539462 0)
(0.0998249 -0.000499716 0)
(0.0998412 -0.000462237 0)
(0.0998568 -0.000426938 0)
(0.0998717 -0.000393735 0)
(0.0998858 -0.000362545 0)
(0.0998993 -0.000333284 0)
(0.099912 -0.000305872 0)
(0.099924 -0.000280228 0)
(0.0999353 -0.000256274 0)
(0.0999458 -0.000233931 0)
(0.0999558 -0.000213125 0)
(0.099965 -0.000193781 0)
(0.0999736 -0.000175827 0)
(0.0999815 -0.000159194 0)
(0.0999889 -0.000143813 0)
(0.0999957 -0.000129619 0)
(0.100002 -0.000116548 0)
(0.100008 -0.000104537 0)
(0.100013 -9.35269e-05 0)
(0.100017 -8.34621e-05 0)
(0.100022 -7.42814e-05 0)
(0.100026 -6.59419e-05 0)
(0.100029 -5.83759e-05 0)
(0.100032 -5.1564e-05 0)
(0.100035 -4.54157e-05 0)
(0.100037 -3.99617e-05 0)
(0.10004 -3.50505e-05 0)
(0.100041 -3.08188e-05 0)
(0.100043 -2.69746e-05 0)
(0.100044 -2.38705e-05 0)
(0.100046 -2.09277e-05 0)
(0.100046 -1.89086e-05 0)
(0.100049 -1.67045e-05 0)
(0.100048 -1.57928e-05 0)
(0.100051 -1.4174e-05 0)
(0.100049 -1.4462e-05 0)
(0.100053 -1.33005e-05 0)
(0.10005 -1.4948e-05 0)
(0.100056 -1.4182e-05 0)
(0.10005 -1.74006e-05 0)
(0.10006 -1.71234e-05 0)
(0.100051 -2.2061e-05 0)
(0.100066 -2.28762e-05 0)
(0.100052 -2.89496e-05 0)
(0.100076 -3.34075e-05 0)
(0.100055 -3.7298e-05 0)
(0.100089 -5.14056e-05 0)
(0.100066 -5.02863e-05 0)
(0.100096 -7.14623e-05 0)
(0.100091 -7.81548e-05 0)
(0.10012 -0.000103015 0)
(0.0994871 -0.00184142 0)
(0.0994983 -0.00174356 0)
(0.0995114 -0.00164942 0)
(0.099526 -0.00155891 0)
(0.0995419 -0.00147193 0)
(0.0995589 -0.00138843 0)
(0.0995768 -0.00130833 0)
(0.0995953 -0.00123156 0)
(0.0996143 -0.00115805 0)
(0.0996337 -0.00108774 0)
(0.0996532 -0.00102055 0)
(0.0996727 -0.000956427 0)
(0.0996922 -0.000895291 0)
(0.0997115 -0.000837068 0)
(0.0997305 -0.000781683 0)
(0.0997492 -0.000729059 0)
(0.0997675 -0.000679115 0)
(0.0997852 -0.000631772 0)
(0.0998025 -0.000586948 0)
(0.0998192 -0.000544559 0)
(0.0998352 -0.000504522 0)
(0.0998507 -0.000466754 0)
(0.0998655 -0.000431172 0)
(0.0998796 -0.000397692 0)
(0.0998931 -0.000366232 0)
(0.0999059 -0.00033671 0)
(0.099918 -0.000309046 0)
(0.0999294 -0.000283161 0)
(0.0999402 -0.000258976 0)
(0.0999502 -0.000236414 0)
(0.0999597 -0.000215399 0)
(0.0999685 -0.000195858 0)
(0.0999767 -0.000177718 0)
(0.0999843 -0.00016091 0)
(0.0999913 -0.000145366 0)
(0.0999978 -0.000131019 0)
(0.100004 -0.000117805 0)
(0.100009 -0.000105663 0)
(0.100014 -9.45314e-05 0)
(0.100019 -8.43548e-05 0)
(0.100023 -7.50714e-05 0)
(0.100026 -6.66383e-05 0)
(0.10003 -5.89868e-05 0)
(0.100033 -5.20979e-05 0)
(0.100035 -4.58797e-05 0)
(0.100037 -4.03642e-05 0)
(0.10004 -3.53967e-05 0)
(0.100041 -3.11181e-05 0)
(0.100043 -2.72293e-05 0)
(0.100044 -2.40929e-05 0)
(0.100046 -2.11145e-05 0)
(0.100046 -1.90782e-05 0)
(0.100048 -1.68443e-05 0)
(0.100047 -1.59331e-05 0)
(0.10005 -1.4286e-05 0)
(0.100048 -1.45968e-05 0)
(0.100053 -1.34027e-05 0)
(0.100049 -1.51042e-05 0)
(0.100056 -1.42906e-05 0)
(0.10005 -1.76146e-05 0)
(0.10006 -1.72474e-05 0)
(0.10005 -2.23952e-05 0)
(0.100066 -2.30067e-05 0)
(0.100051 -2.94952e-05 0)
(0.100075 -3.35975e-05 0)
(0.100053 -3.79615e-05 0)
(0.100088 -5.21675e-05 0)
(0.100064 -5.06145e-05 0)
(0.100095 -7.3018e-05 0)
(0.100089 -7.93116e-05 0)
(0.100117 -0.000104733 0)
(0.0995307 -0.00184532 0)
(0.0995394 -0.00174825 0)
(0.09955 -0.00165476 0)
(0.0995623 -0.00156476 0)
(0.099576 -0.00147818 0)
(0.0995908 -0.00139497 0)
(0.0996067 -0.00131506 0)
(0.0996233 -0.00123839 0)
(0.0996404 -0.00116492 0)
(0.099658 -0.00109458 0)
(0.0996759 -0.00102731 0)
(0.0996938 -0.000963066 0)
(0.0997118 -0.00090177 0)
(0.0997297 -0.000843357 0)
(0.0997474 -0.000787758 0)
(0.0997648 -0.000734901 0)
(0.0997819 -0.000684711 0)
(0.0997985 -0.000637111 0)
(0.0998147 -0.000592023 0)
(0.0998304 -0.000549368 0)
(0.0998456 -0.000509063 0)
(0.0998602 -0.000471029 0)
(0.0998741 -0.000435183 0)
(0.0998875 -0.000401444 0)
(0.0999003 -0.000369732 0)
(0.0999124 -0.000339965 0)
(0.0999239 -0.000312065 0)
(0.0999347 -0.000285953 0)
(0.099945 -0.000261549 0)
(0.0999546 -0.000238779 0)
(0.0999636 -0.000217567 0)
(0.099972 -0.000197838 0)
(0.0999798 -0.000179522 0)
(0.099987 -0.000162547 0)
(0.0999937 -0.000146847 0)
(0.0999999 -0.000132355 0)
(0.100006 -0.000119005 0)
(0.100011 -0.000106738 0)
(0.100015 -9.54894e-05 0)
(0.10002 -8.52058e-05 0)
(0.100024 -7.58242e-05 0)
(0.100027 -6.73015e-05 0)
(0.10003 -5.95682e-05 0)
(0.100033 -5.26056e-05 0)
(0.100036 -4.63203e-05 0)
(0.100038 -4.07459e-05 0)
(0.10004 -3.57244e-05 0)
(0.100041 -3.1401e-05 0)
(0.100043 -2.74694e-05 0)
(0.100044 -2.43022e-05 0)
(0.100046 -2.12895e-05 0)
(0.100046 -1.92372e-05 0)
(0.100048 -1.69743e-05 0)
(0.100047 -1.60646e-05 0)
(0.10005 -1.43893e-05 0)
(0.100048 -1.47239e-05 0)
(0.100052 -1.34967e-05 0)
(0.100048 -1.52529e-05 0)
(0.100055 -1.43905e-05 0)
(0.100049 -1.7821e-05 0)
(0.100059 -1.73605e-05 0)
(0.100049 -2.27226e-05 0)
(0.100065 -2.31201e-05 0)
(0.10005 -3.00383e-05 0)
(0.100074 -3.37591e-05 0)
(0.100051 -3.86206e-05 0)
(0.100086 -5.29122e-05 0)
(0.100062 -5.08953e-05 0)
(0.100093 -7.45801e-05 0)
(0.100087 -8.04377e-05 0)
(0.100115 -0.000106404 0)
(0.0995738 -0.0018481 0)
(0.09958 -0.00175189 0)
(0.0995883 -0.00165911 0)
(0.0995983 -0.00156968 0)
(0.0996098 -0.00148355 0)
(0.0996226 -0.00140067 0)
(0.0996364 -0.00132101 0)
(0.0996511 -0.0012445 0)
(0.0996664 -0.00117111 0)
(0.0996822 -0.00110079 0)
(0.0996984 -0.00103349 0)
(0.0997148 -0.000969162 0)
(0.0997313 -0.000907744 0)
(0.0997478 -0.000849179 0)
(0.0997641 -0.000793401 0)
(0.0997803 -0.000740344 0)
(0.0997962 -0.000689938 0)
(0.0998117 -0.00064211 0)
(0.0998269 -0.000596785 0)
(0.0998416 -0.000553888 0)
(0.0998558 -0.000513339 0)
(0.0998696 -0.000475059 0)
(0.0998827 -0.00043897 0)
(0.0998954 -0.000404992 0)
(0.0999074 -0.000373045 0)
(0.0999189 -0.00034305 0)
(0.0999297 -0.000314928 0)
(0.09994 -0.000288602 0)
(0.0999497 -0.000263993 0)
(0.0999588 -0.000241027 0)
(0.0999674 -0.000219628 0)
(0.0999753 -0.000199722 0)
(0.0999828 -0.000181238 0)
(0.0999896 -0.000164105 0)
(0.099996 -0.000148257 0)
(0.100002 -0.000133626 0)
(0.100007 -0.000120147 0)
(0.100012 -0.00010776 0)
(0.100017 -9.64009e-05 0)
(0.100021 -8.60152e-05 0)
(0.100024 -7.65399e-05 0)
(0.100028 -6.79315e-05 0)
(0.100031 -6.01201e-05 0)
(0.100033 -5.3087e-05 0)
(0.100036 -4.67375e-05 0)
(0.100038 -4.11069e-05 0)
(0.10004 -3.60337e-05 0)
(0.100041 -3.16677e-05 0)
(0.100043 -2.7695e-05 0)
(0.100043 -2.44986e-05 0)
(0.100045 -2.14528e-05 0)
(0.100045 -1.9386e-05 0)
(0.100047 -1.70947e-05 0)
(0.100046 -1.61875e-05 0)
(0.100049 -1.44843e-05 0)
(0.100047 -1.48434e-05 0)
(0.100051 -1.35827e-05 0)
(0.100047 -1.53944e-05 0)
(0.100054 -1.44819e-05 0)
(0.100048 -1.80199e-05 0)
(0.100058 -1.74632e-05 0)
(0.100048 -2.30428e-05 0)
(0.100063 -2.32171e-05 0)
(0.100049 -3.05777e-05 0)
(0.100073 -3.38936e-05 0)
(0.10005 -3.9274e-05 0)
(0.100085 -5.36394e-05 0)
(0.10006 -5.11305e-05 0)
(0.100091 -7.6145e-05 0)
(0.100086 -8.15325e-05 0)
(0.100112 -0.000108027 0)
(0.0996165 -0.0018498 0)
(0.0996203 -0.0017545 0)
(0.0996262 -0.00166248 0)
(0.099634 -0.00157367 0)
(0.0996434 -0.00148805 0)
(0.0996541 -0.00140557 0)
(0.0996659 -0.00132619 0)
(0.0996787 -0.0012499 0)
(0.0996922 -0.00117664 0)
(0.0997063 -0.00110638 0)
(0.0997209 -0.00103909 0)
(0.0997357 -0.000974717 0)
(0.0997507 -0.000913217 0)
(0.0997658 -0.000854535 0)
(0.0997808 -0.000798612 0)
(0.0997957 -0.000745388 0)