/*--------------------------------*- C++ -*----------------------------------*\
| =========                 |                                                 |
| \\      /  F ield         | OpenFOAM: The Open Source CFD Toolbox           |
|  \\    /   O peration     | Version:  2412                                  |
|   \\  /    A nd           | Website:  www.openfoam.com                      |
|    \\/     M anipulation  |                                                 |
\*---------------------------------------------------------------------------*/
FoamFile
{
    version     2.0;
    format      ascii;
    arch        "LSB;label=32;scalar=64";
    class       volVectorField;
    location    "28";
    object      vorticity;
}
// * * * * * * * * * * * * * * * * * * * * * * * * * * * * * * * * * * * * * //

dimensions      [0 0 -1 0 0 0 0];

internalField   nonuniform List<vector> 
5285
(
(0 -0 -2.54272e-06)
(0 -0 -3.33746e-06)
(0 -0 -3.67307e-06)
(0 -0 -3.59958e-06)
(0 -0 -3.25232e-06)
(0 -0 -2.71171e-06)
(0 -0 -2.0549e-06)
(0 -0 -1.35361e-06)
(0 -0 -6.62897e-07)
(0 -0 -1.83867e-08)
(0 -0 5.60197e-07)
(0 -0 1.06488e-06)
(0 -0 1.49496e-06)
(0 -0 1.85306e-06)
(0 -0 2.1427e-06)
(0 -0 2.37045e-06)
(0 -0 2.54384e-06)
(0 -0 2.67055e-06)
(0 -0 2.75858e-06)
(0 -0 2.81563e-06)
(0 -0 2.84762e-06)
(0 -0 2.85953e-06)
(0 -0 2.85637e-06)
(0 -0 2.84082e-06)
(0 -0 2.81536e-06)
(0 -0 2.783e-06)
(0 -0 2.74472e-06)
(0 -0 2.70243e-06)
(0 -0 2.65765e-06)
(0 -0 2.609e-06)
(0 -0 2.56825e-06)
(0 -0 -2.21077e-06)
(0 -0 -2.89578e-06)
(0 -0 -3.14765e-06)
(0 -0 -2.99856e-06)
(0 -0 -2.5991e-06)
(0 -0 -2.02313e-06)
(0 -0 -1.34376e-06)
(0 -0 -6.28675e-07)
(0 -0 6.95366e-08)
(0 -0 7.16334e-07)
(0 -0 1.29393e-06)
(0 -0 1.79572e-06)
(0 -0 2.22079e-06)
(0 -0 2.57208e-06)
(0 -0 2.85401e-06)
(0 -0 3.073e-06)
(0 -0 3.2361e-06)
(0 -0 3.35211e-06)
(0 -0 3.42911e-06)
(0 -0 3.47404e-06)
(0 -0 3.49393e-06)
(0 -0 3.49387e-06)
(0 -0 3.47801e-06)
(0 -0 3.44975e-06)
(0 -0 3.41197e-06)
(0 -0 3.36671e-06)
(0 -0 3.31585e-06)
(0 -0 3.26106e-06)
(0 -0 3.20442e-06)
(0 -0 3.14334e-06)
(0 -0 3.0917e-06)
(0 -0 3.02566e-06)
(0 -0 2.95038e-06)
(0 -0 2.88712e-06)
(0 -0 2.83012e-06)
(0 -0 2.776e-06)
(0 -0 2.72417e-06)
(0 -0 2.67427e-06)
(0 -0 2.62558e-06)
(0 -0 2.57938e-06)
(0 -0 2.53421e-06)
(0 -0 2.49167e-06)
(0 -0 2.44933e-06)
(0 -0 2.41077e-06)
(0 -0 2.36981e-06)
(0 -0 2.33648e-06)
(0 -0 2.29494e-06)
(0 -0 2.26939e-06)
(0 -0 2.22272e-06)
(0 -0 2.21066e-06)
(0 -0 2.1514e-06)
(0 -0 2.16232e-06)
(0 -0 2.07807e-06)
(0 -0 2.12688e-06)
(0 -0 1.99855e-06)
(0 -0 2.10487e-06)
(0 -0 1.91139e-06)
(0 -0 2.09357e-06)
(0 -0 1.82253e-06)
(0 -0 2.0793e-06)
(0 -0 1.73917e-06)
(0 -0 2.09595e-06)
(0 -0 1.45289e-06)
(0 -0 2.83794e-06)
(0 -0 -7.44913e-07)
(0 -0 7.26191e-06)
(0 -0 -7.32645e-06)
(0 -0 1.15079e-05)
(0 -0 -1.52801e-06)
(0 -0 -5.51202e-06)
(0 -0 9.57366e-06)
(0 -0 -1.77791e-06)
(0 -0 -2.45908e-06)
(0 -0 -2.64167e-06)
(0 -0 -2.43345e-06)
(0 -0 -1.981e-06)
(0 -0 -1.36276e-06)
(0 -0 -6.51037e-07)
(0 -0 8.81804e-08)
(0 -0 8.04048e-07)
(0 -0 1.46355e-06)
(0 -0 2.04987e-06)
(0 -0 2.55714e-06)
(0 -0 2.98517e-06)
(0 -0 3.33704e-06)
(0 -0 3.61754e-06)
(0 -0 3.83321e-06)
(0 -0 3.99155e-06)
(0 -0 4.10131e-06)
(0 -0 4.17096e-06)
(0 -0 4.20779e-06)
(0 -0 4.21867e-06)
(0 -0 4.20899e-06)
(0 -0 4.18296e-06)
(0 -0 4.14408e-06)
(0 -0 4.09526e-06)
(0 -0 4.03869e-06)
(0 -0 3.97636e-06)
(0 -0 3.90991e-06)
(0 -0 3.84154e-06)
(0 -0 3.76903e-06)
(0 -0 3.70294e-06)
(0 -0 3.63523e-06)
(0 -0 3.55632e-06)
(0 -0 3.48162e-06)
(0 -0 3.41217e-06)
(0 -0 3.34638e-06)
(0 -0 3.28282e-06)
(0 -0 3.22134e-06)
(0 -0 3.16213e-06)
(0 -0 3.10503e-06)
(0 -0 3.04973e-06)
(0 -0 2.99746e-06)
(0 -0 2.94526e-06)
(0 -0 2.89784e-06)
(0 -0 2.84758e-06)
(0 -0 2.80592e-06)
(0 -0 2.75566e-06)
(0 -0 2.72258e-06)
(0 -0 2.66745e-06)
(0 -0 2.6486e-06)
(0 -0 2.58118e-06)
(0 -0 2.58615e-06)
(0 -0 2.4934e-06)
(0 -0 2.53774e-06)
(0 -0 2.39989e-06)
(0 -0 2.50434e-06)
(0 -0 2.29926e-06)
(0 -0 2.48302e-06)
(0 -0 2.19657e-06)
(0 -0 2.46076e-06)
(0 -0 2.09789e-06)
(0 -0 2.47186e-06)
(0 -0 1.7923e-06)
(0 -0 3.21988e-06)
(0 -0 -4.52482e-07)
(0 -0 7.70771e-06)
(0 -0 -7.16025e-06)
(0 -0 1.20043e-05)
(0 -0 -1.14589e-06)
(0 -0 -5.638e-06)
(0 -0 1.03267e-05)
(0 -0 -1.38158e-06)
(0 -0 -2.02005e-06)
(0 -0 -2.16222e-06)
(0 -0 -1.89473e-06)
(0 -0 -1.38409e-06)
(0 -0 -7.14801e-07)
(0 -0 3.97477e-08)
(0 -0 8.14091e-07)
(0 -0 1.55837e-06)
(0 -0 2.24071e-06)
(0 -0 2.84514e-06)
(0 -0 3.36647e-06)
(0 -0 3.80511e-06)
(0 -0 4.16447e-06)
(0 -0 4.44966e-06)
(0 -0 4.66745e-06)
(0 -0 4.82577e-06)
(0 -0 4.93356e-06)
(0 -0 4.99953e-06)
(0 -0 5.03137e-06)
(0 -0 5.036e-06)
(0 -0 5.01896e-06)
(0 -0 4.98465e-06)
(0 -0 4.93672e-06)
(0 -0 4.87808e-06)
(0 -0 4.81113e-06)
(0 -0 4.73801e-06)
(0 -0 4.66037e-06)
(0 -0 4.58045e-06)
(0 -0 4.49709e-06)
(0 -0 4.41679e-06)
(0 -0 4.34514e-06)
(0 -0 4.25991e-06)
(0 -0 4.17504e-06)
(0 -0 4.0934e-06)
(0 -0 4.01498e-06)
(0 -0 3.93902e-06)
(0 -0 3.8654e-06)
(0 -0 3.79417e-06)
(0 -0 3.72552e-06)
(0 -0 3.65878e-06)
(0 -0 3.59547e-06)
(0 -0 3.53251e-06)
(0 -0 3.47458e-06)
(0 -0 3.41411e-06)
(0 -0 3.36256e-06)
(0 -0 3.30238e-06)
(0 -0 3.2601e-06)
(0 -0 3.19538e-06)
(0 -0 3.16815e-06)
(0 -0 3.09122e-06)
(0 -0 3.08901e-06)
(0 -0 2.98608e-06)
(0 -0 3.02497e-06)
(0 -0 2.87577e-06)
(0 -0 2.97737e-06)
(0 -0 2.75831e-06)
(0 -0 2.94355e-06)
(0 -0 2.63822e-06)
(0 -0 2.91042e-06)
(0 -0 2.52077e-06)
(0 -0 2.91269e-06)
(0 -0 2.19432e-06)
(0 -0 3.65384e-06)
(0 -0 -7.88126e-08)
(0 -0 8.1592e-06)
(0 -0 -6.8691e-06)
(0 -0 1.249e-05)
(0 -0 -7.12004e-07)
(0 -0 -5.69632e-06)
(0 -0 1.11289e-05)
(0 -0 -1.03711e-06)
(0 -0 -1.59694e-06)
(0 -0 -1.67154e-06)
(0 -0 -1.33431e-06)
(0 -0 -7.571e-07)
(0 -0 -2.79133e-08)
(0 -0 7.7862e-07)
(0 -0 1.59713e-06)
(0 -0 2.37841e-06)
(0 -0 3.09147e-06)
(0 -0 3.72112e-06)
(0 -0 4.26282e-06)
(0 -0 4.71755e-06)
(0 -0 5.08914e-06)
(0 -0 5.38312e-06)
(0 -0 5.60656e-06)
(0 -0 5.76783e-06)
(0 -0 5.87612e-06)
(0 -0 5.94046e-06)
(0 -0 5.96889e-06)
(0 -0 5.96852e-06)
(0 -0 5.94506e-06)
(0 -0 5.9031e-06)
(0 -0 5.84644e-06)
(0 -0 5.77809e-06)
(0 -0 5.70064e-06)
(0 -0 5.6164e-06)
(0 -0 5.52714e-06)
(0 -0 5.43506e-06)
(0 -0 5.33995e-06)
(0 -0 5.24494e-06)
(0 -0 5.16645e-06)
(0 -0 5.07277e-06)
(0 -0 4.97659e-06)
(0 -0 4.88204e-06)
(0 -0 4.79009e-06)
(0 -0 4.70055e-06)
(0 -0 4.61358e-06)
(0 -0 4.52904e-06)
(0 -0 4.44741e-06)
(0 -0 4.36786e-06)
(0 -0 4.292e-06)
(0 -0 4.21681e-06)
(0 -0 4.14684e-06)
(0 -0 4.07457e-06)
(0 -0 4.01156e-06)
(0 -0 3.93984e-06)
(0 -0 3.88674e-06)
(0 -0 3.81074e-06)
(0 -0 3.77355e-06)
(0 -0 3.68535e-06)
(0 -0 3.67443e-06)
(0 -0 3.55949e-06)
(0 -0 3.59157e-06)
(0 -0 3.42888e-06)
(0 -0 3.52668e-06)
(0 -0 3.291e-06)
(0 -0 3.47725e-06)
(0 -0 3.14965e-06)
(0 -0 3.43021e-06)
(0 -0 3.00927e-06)
(0 -0 3.41957e-06)
(0 -0 2.66104e-06)
(0 -0 4.1387e-06)
(0 -0 3.8284e-07)
(0 -0 8.60567e-06)
(0 -0 -6.43661e-06)
(0 -0 1.29532e-05)
(0 -0 -2.29444e-07)
(0 -0 -5.67518e-06)
(0 -0 1.19797e-05)
(0 -0 -6.64541e-07)
(0 -0 -1.10957e-06)
(0 -0 -1.09033e-06)
(0 -0 -6.6811e-07)
(0 -0 -1.35335e-08)
(0 -0 7.84547e-07)
(0 -0 1.65107e-06)
(0 -0 2.5209e-06)
(0 -0 3.34542e-06)
(0 -0 4.09445e-06)
(0 -0 4.75359e-06)
(0 -0 5.319e-06)
(0 -0 5.79231e-06)
(0 -0 6.17788e-06)
(0 -0 6.48172e-06)
(0 -0 6.71132e-06)
(0 -0 6.87551e-06)
(0 -0 6.98385e-06)
(0 -0 7.04571e-06)
(0 -0 7.06955e-06)
(0 -0 7.06268e-06)
(0 -0 7.03107e-06)
(0 -0 6.9795e-06)
(0 -0 6.91196e-06)
(0 -0 6.83164e-06)
(0 -0 6.7413e-06)
(0 -0 6.64344e-06)
(0 -0 6.53999e-06)
(0 -0 6.43317e-06)
(0 -0 6.32351e-06)
(0 -0 6.21238e-06)
(0 -0 6.11278e-06)
(0 -0 6.00583e-06)
(0 -0 5.89612e-06)
(0 -0 5.78704e-06)
(0 -0 5.68001e-06)
(0 -0 5.57527e-06)
(0 -0 5.47318e-06)
(0 -0 5.37359e-06)
(0 -0 5.27715e-06)
(0 -0 5.18298e-06)
(0 -0 5.09274e-06)
(0 -0 5.00343e-06)
(0 -0 4.91957e-06)
(0 -0 4.83358e-06)
(0 -0 4.75721e-06)
(0 -0 4.67202e-06)
(0 -0 4.60616e-06)
(0 -0 4.51694e-06)
(0 -0 4.46791e-06)
(0 -0 4.36641e-06)
(0 -0 4.34502e-06)
(0 -0 4.21598e-06)
(0 -0 4.23964e-06)
(0 -0 4.0611e-06)
(0 -0 4.15389e-06)
(0 -0 3.89874e-06)
(0 -0 4.08531e-06)
(0 -0 3.73179e-06)
(0 -0 4.02085e-06)
(0 -0 3.56398e-06)
(0 -0 3.99254e-06)
(0 -0 3.19343e-06)
(0 -0 4.67158e-06)
(0 -0 9.38641e-07)
(0 -0 9.03363e-06)
(0 -0 -5.84614e-06)
(0 -0 1.33797e-05)
(0 -0 2.96574e-07)
(0 -0 -5.56271e-06)
(0 -0 1.28777e-05)
(0 -0 -2.53728e-07)
(0 -0 -5.62937e-07)
(0 -0 -4.27077e-07)
(0 -0 9.81334e-08)
(0 -0 8.44323e-07)
(0 -0 1.72315e-06)
(0 -0 2.65985e-06)
(0 -0 3.58976e-06)
(0 -0 4.46498e-06)
(0 -0 5.25617e-06)
(0 -0 5.9498e-06)
(0 -0 6.54283e-06)
(0 -0 7.03767e-06)
(0 -0 7.43931e-06)
(0 -0 7.75433e-06)
(0 -0 7.99076e-06)
(0 -0 8.15795e-06)
(0 -0 8.26592e-06)
(0 -0 8.32448e-06)
(0 -0 8.34247e-06)
(0 -0 8.32753e-06)
(0 -0 8.28589e-06)
(0 -0 8.2226e-06)
(0 -0 8.14186e-06)
(0 -0 8.04708e-06)
(0 -0 7.94125e-06)
(0 -0 7.82705e-06)
(0 -0 7.70661e-06)
(0 -0 7.58223e-06)
(0 -0 7.45497e-06)
(0 -0 7.32548e-06)
(0 -0 7.20361e-06)
(0 -0 7.07874e-06)
(0 -0 6.95177e-06)
(0 -0 6.82501e-06)
(0 -0 6.69995e-06)
(0 -0 6.57709e-06)
(0 -0 6.45697e-06)
(0 -0 6.33948e-06)
(0 -0 6.22538e-06)
(0 -0 6.11381e-06)
(0 -0 6.00646e-06)
(0 -0 5.90032e-06)
(0 -0 5.79995e-06)
(0 -0 5.69761e-06)
(0 -0 5.60532e-06)
(0 -0 5.50411e-06)
(0 -0 5.42298e-06)
(0 -0 5.31806e-06)
(0 -0 5.25479e-06)
(0 -0 5.13763e-06)
(0 -0 5.10347e-06)
(0 -0 4.95807e-06)
(0 -0 4.9711e-06)
(0 -0 4.7745e-06)
(0 -0 4.86017e-06)
(0 -0 4.58334e-06)
(0 -0 4.76828e-06)
(0 -0 4.38644e-06)
(0 -0 4.68234e-06)
(0 -0 4.18694e-06)
(0 -0 4.631e-06)
(0 -0 3.79479e-06)
(0 -0 5.24924e-06)
(0 -0 1.59854e-06)
(0 -0 9.42962e-06)
(0 -0 -5.07523e-06)
(0 -0 1.37565e-05)
(0 -0 8.67407e-07)
(0 -0 -5.34076e-06)
(0 -0 1.38296e-05)
(0 -0 1.99121e-07)
(0 -0 4.06342e-08)
(0 -0 3.12539e-07)
(0 -0 9.59162e-07)
(0 -0 1.81309e-06)
(0 -0 2.7866e-06)
(0 -0 3.80545e-06)
(0 -0 4.80566e-06)
(0 -0 5.74017e-06)
(0 -0 6.58064e-06)
(0 -0 7.31452e-06)
(0 -0 7.93972e-06)
(0 -0 8.45953e-06)
(0 -0 8.87971e-06)
(0 -0 9.20751e-06)
(0 -0 9.45165e-06)
(0 -0 9.62207e-06)
(0 -0 9.72935e-06)
(0 -0 9.78379e-06)
(0 -0 9.79469e-06)
(0 -0 9.77003e-06)
(0 -0 9.71641e-06)
(0 -0 9.63917e-06)
(0 -0 9.54277e-06)
(0 -0 9.43091e-06)
(0 -0 9.30679e-06)
(0 -0 9.17332e-06)
(0 -0 9.03289e-06)
(0 -0 8.8879e-06)
(0 -0 8.73983e-06)
(0 -0 8.58916e-06)
(0 -0 8.44318e-06)
(0 -0 8.29638e-06)
(0 -0 8.14832e-06)
(0 -0 8.00043e-06)
(0 -0 7.85407e-06)
(0 -0 7.70988e-06)
(0 -0 7.56855e-06)
(0 -0 7.43003e-06)
(0 -0 7.29517e-06)
(0 -0 7.16316e-06)
(0 -0 7.03573e-06)
(0 -0 6.90981e-06)
(0 -0 6.79004e-06)
(0 -0 6.66848e-06)
(0 -0 6.55744e-06)
(0 -0 6.43743e-06)
(0 -0 6.33827e-06)
(0 -0 6.21493e-06)
(0 -0 6.13479e-06)
(0 -0 5.99938e-06)
(0 -0 5.94991e-06)
(0 -0 5.78567e-06)
(0 -0 5.78563e-06)
(0 -0 5.56854e-06)
(0 -0 5.64478e-06)
(0 -0 5.34386e-06)
(0 -0 5.525e-06)
(0 -0 5.11223e-06)
(0 -0 5.41306e-06)
(0 -0 4.87644e-06)
(0 -0 5.33261e-06)
(0 -0 4.4639e-06)
(0 -0 5.86634e-06)
(0 -0 2.36686e-06)
(0 -0 9.77729e-06)
(0 -0 -4.10855e-06)
(0 -0 1.40667e-05)
(0 -0 1.47524e-06)
(0 -0 -4.99825e-06)
(0 -0 1.48298e-05)
(0 -0 6.92199e-07)
(0 -0 6.9821e-07)
(0 -0 1.1238e-06)
(0 -0 1.91003e-06)
(0 -0 2.88875e-06)
(0 -0 3.97218e-06)
(0 -0 5.08648e-06)
(0 -0 6.16838e-06)
(0 -0 7.17183e-06)
(0 -0 8.06957e-06)
(0 -0 8.85019e-06)
(0 -0 9.51269e-06)
(0 -0 1.00614e-05)
(0 -0 1.05029e-05)
(0 -0 1.08454e-05)
(0 -0 1.10983e-05)
(0 -0 1.12724e-05)
(0 -0 1.13788e-05)
(0 -0 1.14284e-05)
(0 -0 1.14309e-05)
(0 -0 1.13949e-05)
(0 -0 1.13273e-05)
(0 -0 1.12338e-05)
(0 -0 1.11192e-05)
(0 -0 1.09874e-05)
(0 -0 1.08421e-05)
(0 -0 1.06863e-05)
(0 -0 1.05227e-05)
(0 -0 1.03539e-05)
(0 -0 1.01816e-05)
(0 -0 1.00066e-05)
(0 -0 9.83405e-06)
(0 -0 9.66164e-06)
(0 -0 9.48865e-06)
(0 -0 9.31596e-06)
(0 -0 9.14479e-06)
(0 -0 8.97583e-06)
(0 -0 8.80987e-06)
(0 -0 8.64694e-06)
(0 -0 8.48801e-06)
(0 -0 8.33227e-06)
(0 -0 8.18156e-06)
(0 -0 8.0327e-06)
(0 -0 7.89042e-06)
(0 -0 7.74655e-06)
(0 -0 7.61372e-06)
(0 -0 7.47188e-06)
(0 -0 7.35173e-06)
(0 -0 7.20704e-06)
(0 -0 7.10717e-06)
(0 -0 6.9507e-06)
(0 -0 6.8832e-06)
(0 -0 6.69742e-06)
(0 -0 6.68168e-06)
(0 -0 6.44146e-06)
(0 -0 6.50578e-06)
(0 -0 6.17814e-06)
(0 -0 6.35313e-06)
(0 -0 5.90662e-06)
(0 -0 6.21026e-06)
(0 -0 5.62965e-06)
(0 -0 6.09396e-06)
(0 -0 5.19842e-06)
(0 -0 6.51651e-06)
(0 -0 3.24667e-06)
(0 -0 1.00596e-05)
(0 -0 -2.93235e-06)
(0 -0 1.42924e-05)
(0 -0 2.11117e-06)
(0 -0 -4.52514e-06)
(0 -0 1.58718e-05)
(0 -0 1.22061e-06)
(0 -0 1.40568e-06)
(0 -0 2.00205e-06)
(0 -0 2.94586e-06)
(0 -0 4.06678e-06)
(0 -0 5.27612e-06)
(0 -0 6.50006e-06)
(0 -0 7.67598e-06)
(0 -0 8.75884e-06)
(0 -0 9.72256e-06)
(0 -0 1.0557e-05)
(0 -0 1.12624e-05)
(0 -0 1.18443e-05)
(0 -0 1.23103e-05)
(0 -0 1.26697e-05)
(0 -0 1.29328e-05)
(0 -0 1.3111e-05)
(0 -0 1.32164e-05)
(0 -0 1.32604e-05)
(0 -0 1.32534e-05)
(0 -0 1.32043e-05)
(0 -0 1.31207e-05)
(0 -0 1.30086e-05)
(0 -0 1.28732e-05)
(0 -0 1.27187e-05)
(0 -0 1.25491e-05)
(0 -0 1.23679e-05)
(0 -0 1.21778e-05)
(0 -0 1.19818e-05)
(0 -0 1.17819e-05)
(0 -0 1.15789e-05)
(0 -0 1.1377e-05)
(0 -0 1.11754e-05)
(0 -0 1.09736e-05)
(0 -0 1.07723e-05)
(0 -0 1.05727e-05)
(0 -0 1.03753e-05)
(0 -0 1.01811e-05)
(0 -0 9.9902e-06)
(0 -0 9.80368e-06)
(0 -0 9.62077e-06)
(0 -0 9.44337e-06)
(0 -0 9.26823e-06)
(0 -0 9.10015e-06)
(0 -0 8.93071e-06)
(0 -0 8.77285e-06)
(0 -0 8.60598e-06)
(0 -0 8.46169e-06)
(0 -0 8.29254e-06)
(0 -0 8.16991e-06)
(0 -0 7.98939e-06)
(0 -0 7.90096e-06)
(0 -0 7.69076e-06)
(0 -0 7.65654e-06)
(0 -0 7.39036e-06)
(0 -0 7.4401e-06)
(0 -0 7.08293e-06)
(0 -0 7.24925e-06)
(0 -0 6.76604e-06)
(0 -0 7.07016e-06)
(0 -0 6.44273e-06)
(0 -0 6.91067e-06)
(0 -0 5.99502e-06)
(0 -0 7.19269e-06)
(0 -0 4.23967e-06)
(0 -0 1.02598e-05)
(0 -0 -1.53506e-06)
(0 -0 1.44166e-05)
(0 -0 2.76572e-06)
(0 -0 -3.9128e-06)
(0 -0 1.69486e-05)
(0 -0 1.77852e-06)
(0 -0 2.15831e-06)
(0 -0 2.9426e-06)
(0 -0 4.0618e-06)
(0 -0 5.34238e-06)
(0 -0 6.69394e-06)
(0 -0 8.04226e-06)
(0 -0 9.3251e-06)
(0 -0 1.04984e-05)
(0 -0 1.15373e-05)
(0 -0 1.24331e-05)
(0 -0 1.31874e-05)
(0 -0 1.3807e-05)
(0 -0 1.4301e-05)
(0 -0 1.46797e-05)
(0 -0 1.49543e-05)
(0 -0 1.51374e-05)
(0 -0 1.52418e-05)
(0 -0 1.52795e-05)
(0 -0 1.52618e-05)
(0 -0 1.51981e-05)
(0 -0 1.50965e-05)
(0 -0 1.49634e-05)
(0 -0 1.48045e-05)
(0 -0 1.46244e-05)
(0 -0 1.44275e-05)
(0 -0 1.42175e-05)
(0 -0 1.39976e-05)
(0 -0 1.3771e-05)
(0 -0 1.35398e-05)
(0 -0 1.33054e-05)
(0 -0 1.30708e-05)
(0 -0 1.28364e-05)
(0 -0 1.2602e-05)
(0 -0 1.23683e-05)
(0 -0 1.21363e-05)
(0 -0 1.19068e-05)
(0 -0 1.16806e-05)
(0 -0 1.14581e-05)
(0 -0 1.12403e-05)
(0 -0 1.10267e-05)
(0 -0 1.08191e-05)
(0 -0 1.06142e-05)
(0 -0 1.04168e-05)
(0 -0 1.02184e-05)
(0 -0 1.00322e-05)
(0 -0 9.83695e-06)
(0 -0 9.66521e-06)
(0 -0 9.46836e-06)
(0 -0 9.3198e-06)
(0 -0 9.11211e-06)
(0 -0 8.99971e-06)
(0 -0 8.76207e-06)
(0 -0 8.70645e-06)
(0 -0 8.41135e-06)
(0 -0 8.44373e-06)
(0 -0 8.05409e-06)
(0 -0 8.20911e-06)
(0 -0 7.68608e-06)
(0 -0 7.98821e-06)
(0 -0 7.31109e-06)
(0 -0 7.77769e-06)
(0 -0 6.84959e-06)
(0 -0 7.88752e-06)
(0 -0 5.34621e-06)
(0 -0 1.0362e-05)
(0 -0 9.21553e-08)
(0 -0 1.44232e-05)
(0 -0 3.42932e-06)
(0 -0 -3.15433e-06)
(0 -0 1.8053e-05)
(0 -0 2.36058e-06)
(0 -0 2.95159e-06)
(0 -0 3.94105e-06)
(0 -0 5.25324e-06)
(0 -0 6.71079e-06)
(0 -0 8.22091e-06)
(0 -0 9.70843e-06)
(0 -0 1.11113e-05)
(0 -0 1.23862e-05)
(0 -0 1.35097e-05)
(0 -0 1.44746e-05)
(0 -0 1.5284e-05)
(0 -0 1.59462e-05)
(0 -0 1.64718e-05)
(0 -0 1.68721e-05)
(0 -0 1.71599e-05)
(0 -0 1.73487e-05)
(0 -0 1.7452e-05)
(0 -0 1.7483e-05)
(0 -0 1.74534e-05)
(0 -0 1.73735e-05)
(0 -0 1.72517e-05)
(0 -0 1.70953e-05)
(0 -0 1.69102e-05)
(0 -0 1.67017e-05)
(0 -0 1.64744e-05)
(0 -0 1.62323e-05)
(0 -0 1.59793e-05)
(0 -0 1.57185e-05)
(0 -0 1.54526e-05)
(0 -0 1.5183e-05)
(0 -0 1.49124e-05)
(0 -0 1.46415e-05)
(0 -0 1.43708e-05)
(0 -0 1.41008e-05)
(0 -0 1.38327e-05)
(0 -0 1.35671e-05)
(0 -0 1.33052e-05)
(0 -0 1.30472e-05)
(0 -0 1.27945e-05)
(0 -0 1.25464e-05)
(0 -0 1.2305e-05)
(0 -0 1.20668e-05)
(0 -0 1.18368e-05)
(0 -0 1.16059e-05)
(0 -0 1.13878e-05)
(0 -0 1.11608e-05)
(0 -0 1.09583e-05)
(0 -0 1.07304e-05)
(0 -0 1.05526e-05)
(0 -0 1.03146e-05)
(0 -0 1.01751e-05)
(0 -0 9.90689e-06)
(0 -0 9.82688e-06)
(0 -0 9.49983e-06)
(0 -0 9.51197e-06)
(0 -0 9.08683e-06)
(0 -0 9.22783e-06)
(0 -0 8.66182e-06)
(0 -0 8.95937e-06)
(0 -0 8.22971e-06)
(0 -0 8.68962e-06)
(0 -0 7.75758e-06)
(0 -0 8.59381e-06)
(0 -0 6.56523e-06)
(0 -0 1.03526e-05)
(0 -0 1.95486e-06)
(0 -0 1.42988e-05)
(0 -0 4.09301e-06)
(0 -0 -2.24485e-06)
(0 -0 1.91783e-05)
(0 -0 2.96312e-06)
(0 -0 3.78206e-06)
(0 -0 4.99381e-06)
(0 -0 6.5162e-06)
(0 -0 8.16757e-06)
(0 -0 9.85217e-06)
(0 -0 1.14934e-05)
(0 -0 1.30291e-05)
(0 -0 1.44168e-05)
(0 -0 1.56343e-05)
(0 -0 1.6676e-05)
(0 -0 1.75467e-05)
(0 -0 1.82563e-05)
(0 -0 1.8817e-05)
(0 -0 1.92416e-05)
(0 -0 1.95441e-05)
(0 -0 1.97392e-05)
(0 -0 1.98415e-05)
(0 -0 1.98652e-05)
(0 -0 1.98227e-05)
(0 -0 1.97249e-05)
(0 -0 1.95811e-05)
(0 -0 1.93991e-05)
(0 -0 1.91852e-05)
(0 -0 1.89454e-05)
(0 -0 1.86845e-05)
(0 -0 1.84073e-05)
(0 -0 1.81177e-05)
(0 -0 1.78193e-05)
(0 -0 1.75151e-05)
(0 -0 1.72067e-05)
(0 -0 1.68966e-05)
(0 -0 1.65857e-05)
(0 -0 1.62749e-05)
(0 -0 1.59648e-05)
(0 -0 1.56566e-05)
(0 -0 1.53512e-05)
(0 -0 1.50498e-05)
(0 -0 1.47526e-05)
(0 -0 1.44613e-05)
(0 -0 1.41751e-05)
(0 -0 1.38963e-05)
(0 -0 1.36213e-05)
(0 -0 1.3355e-05)
(0 -0 1.30882e-05)
(0 -0 1.28348e-05)
(0 -0 1.25726e-05)
(0 -0 1.23359e-05)
(0 -0 1.20736e-05)
(0 -0 1.18634e-05)
(0 -0 1.15918e-05)
(0 -0 1.14221e-05)
(0 -0 1.11202e-05)
(0 -0 1.10128e-05)
(0 -0 1.06507e-05)
(0 -0 1.06397e-05)
(0 -0 1.0176e-05)
(0 -0 1.03003e-05)
(0 -0 9.68809e-06)
(0 -0 9.97844e-06)
(0 -0 9.19347e-06)
(0 -0 9.64109e-06)
(0 -0 8.71427e-06)
(0 -0 9.3051e-06)
(0 -0 7.89439e-06)
(0 -0 1.02211e-05)
(0 -0 4.05486e-06)
(0 -0 1.40335e-05)
(0 -0 4.74906e-06)
(0 -0 -1.18172e-06)
(0 -0 2.03182e-05)
(0 -0 3.58489e-06)
(0 -0 4.64805e-06)
(0 -0 6.09859e-06)
(0 -0 7.84761e-06)
(0 -0 9.70882e-06)
(0 -0 1.1583e-05)
(0 -0 1.33918e-05)
(0 -0 1.50727e-05)
(0 -0 1.65839e-05)
(0 -0 1.79044e-05)
(0 -0 1.90302e-05)
(0 -0 1.99681e-05)
(0 -0 2.07297e-05)
(0 -0 2.13289e-05)
(0 -0 2.17802e-05)
(0 -0 2.20989e-05)
(0 -0 2.23011e-05)
(0 -0 2.24025e-05)
(0 -0 2.24183e-05)
(0 -0 2.23617e-05)
(0 -0 2.22446e-05)
(0 -0 2.20768e-05)
(0 -0 2.18669e-05)
(0 -0 2.16218e-05)
(0 -0 2.13478e-05)
(0 -0 2.10505e-05)
(0 -0 2.07349e-05)
(0 -0 2.04055e-05)
(0 -0 2.00662e-05)
(0 -0 1.97202e-05)
(0 -0 1.93695e-05)
(0 -0 1.90163e-05)
(0 -0 1.8662e-05)
(0 -0 1.83074e-05)
(0 -0 1.79536e-05)
(0 -0 1.76017e-05)
(0 -0 1.72528e-05)
(0 -0 1.69081e-05)
(0 -0 1.65681e-05)
(0 -0 1.62345e-05)
(0 -0 1.59067e-05)
(0 -0 1.55871e-05)
(0 -0 1.52717e-05)
(0 -0 1.49657e-05)
(0 -0 1.46596e-05)
(0 -0 1.43676e-05)
(0 -0 1.40668e-05)
(0 -0 1.37925e-05)
(0 -0 1.34926e-05)
(0 -0 1.32467e-05)
(0 -0 1.29383e-05)
(0 -0 1.27353e-05)
(0 -0 1.23967e-05)
(0 -0 1.22589e-05)
(0 -0 1.18588e-05)
(0 -0 1.18219e-05)
(0 -0 1.13166e-05)
(0 -0 1.14214e-05)
(0 -0 1.07599e-05)
(0 -0 1.10404e-05)
(0 -0 1.01975e-05)
(0 -0 1.06271e-05)
(0 -0 9.71513e-06)
(0 -0 1.00161e-05)
(0 -0 9.33012e-06)
(0 -0 9.96148e-06)
(0 -0 6.38986e-06)
(0 -0 1.36222e-05)
(0 -0 5.39154e-06)
(0 -0 3.52554e-08)
(0 -0 2.14683e-05)
(0 -0 4.22748e-06)
(0 -0 5.55005e-06)
(0 -0 7.25468e-06)
(0 -0 9.24552e-06)
(0 -0 1.13313e-05)
(0 -0 1.3409e-05)
(0 -0 1.53981e-05)
(0 -0 1.72355e-05)
(0 -0 1.88799e-05)
(0 -0 2.03117e-05)
(0 -0 2.15286e-05)
(0 -0 2.25391e-05)
(0 -0 2.3357e-05)
(0 -0 2.39978e-05)
(0 -0 2.44779e-05)
(0 -0 2.48142e-05)
(0 -0 2.5024e-05)
(0 -0 2.51246e-05)
(0 -0 2.51318e-05)
(0 -0 2.50601e-05)
(0 -0 2.49222e-05)
(0 -0 2.47286e-05)
(0 -0 2.44885e-05)
(0 -0 2.42098e-05)
(0 -0 2.3899e-05)
(0 -0 2.35624e-05)
(0 -0 2.32055e-05)
(0 -0 2.28332e-05)
(0 -0 2.24498e-05)
(0 -0 2.20588e-05)
(0 -0 2.16625e-05)
(0 -0 2.1263e-05)
(0 -0 2.08618e-05)
(0 -0 2.04601e-05)
(0 -0 2.0059e-05)
(0 -0 1.966e-05)
(0 -0 1.9264e-05)
(0 -0 1.88725e-05)
(0 -0 1.84863e-05)
(0 -0 1.81069e-05)
(0 -0 1.77342e-05)
(0 -0 1.73702e-05)
(0 -0 1.70113e-05)
(0 -0 1.66624e-05)
(0 -0 1.63137e-05)
(0 -0 1.59797e-05)
(0 -0 1.56371e-05)
(0 -0 1.53222e-05)
(0 -0 1.49814e-05)
(0 -0 1.46969e-05)
(0 -0 1.43486e-05)
(0 -0 1.41094e-05)
(0 -0 1.3731e-05)
(0 -0 1.356e-05)
(0 -0 1.31189e-05)
(0 -0 1.30534e-05)
(0 -0 1.25036e-05)
(0 -0 1.25864e-05)
(0 -0 1.18726e-05)
(0 -0 1.21408e-05)
(0 -0 1.12375e-05)
(0 -0 1.16434e-05)
(0 -0 1.07561e-05)
(0 -0 1.07233e-05)
(0 -0 1.08677e-05)
(0 -0 9.57236e-06)
(0 -0 8.95312e-06)
(0 -0 1.30649e-05)
(0 -0 6.01695e-06)
(0 -0 1.40369e-06)
(0 -0 2.26255e-05)
(0 -0 4.8954e-06)
(0 -0 6.4908e-06)
(0 -0 8.46305e-06)
(0 -0 1.07092e-05)
(0 -0 1.30325e-05)
(0 -0 1.53259e-05)
(0 -0 1.75065e-05)
(0 -0 1.95104e-05)
(0 -0 2.12966e-05)
(0 -0 2.2847e-05)
(0 -0 2.41609e-05)
(0 -0 2.52488e-05)
(0 -0 2.61266e-05)
(0 -0 2.68118e-05)
(0 -0 2.73225e-05)
(0 -0 2.76774e-05)
(0 -0 2.78954e-05)
(0 -0 2.79949e-05)
(0 -0 2.7993e-05)
(0 -0 2.79052e-05)
(0 -0 2.77449e-05)
(0 -0 2.75238e-05)
(0 -0 2.72517e-05)
(0 -0 2.6937e-05)
(0 -0 2.65871e-05)
(0 -0 2.62086e-05)
(0 -0 2.58075e-05)
(0 -0 2.53895e-05)
(0 -0 2.49591e-05)
(0 -0 2.452e-05)
(0 -0 2.4075e-05)
(0 -0 2.36262e-05)
(0 -0 2.31751e-05)
(0 -0 2.27231e-05)
(0 -0 2.22716e-05)
(0 -0 2.18221e-05)
(0 -0 2.13758e-05)
(0 -0 2.09344e-05)
(0 -0 2.04986e-05)
(0 -0 2.00704e-05)
(0 -0 1.96495e-05)
(0 -0 1.92383e-05)
(0 -0 1.88327e-05)
(0 -0 1.84378e-05)
(0 -0 1.80435e-05)
(0 -0 1.76646e-05)
(0 -0 1.72772e-05)
(0 -0 1.69187e-05)
(0 -0 1.65342e-05)
(0 -0 1.62081e-05)
(0 -0 1.58172e-05)
(0 -0 1.5539e-05)
(0 -0 1.51182e-05)
(0 -0 1.49113e-05)
(0 -0 1.44266e-05)
(0 -0 1.43298e-05)
(0 -0 1.37329e-05)
(0 -0 1.37912e-05)
(0 -0 1.30224e-05)
(0 -0 1.32759e-05)
(0 -0 1.231e-05)
(0 -0 1.26868e-05)
(0 -0 1.18339e-05)
(0 -0 1.1425e-05)
(0 -0 1.25016e-05)
(0 -0 9.05823e-06)
(0 -0 1.17333e-05)
(0 -0 1.2368e-05)
(0 -0 6.62448e-06)
(0 -0 2.91853e-06)
(0 -0 2.37889e-05)
(0 -0 5.59585e-06)
(0 -0 7.47509e-06)
(0 -0 9.72625e-06)
(0 -0 1.22389e-05)
(0 -0 1.48106e-05)
(0 -0 1.73299e-05)
(0 -0 1.97112e-05)
(0 -0 2.18897e-05)
(0 -0 2.3825e-05)
(0 -0 2.54999e-05)
(0 -0 2.69156e-05)
(0 -0 2.80849e-05)
(0 -0 2.90254e-05)
(0 -0 2.9757e-05)
(0 -0 3.02998e-05)
(0 -0 3.06741e-05)
(0 -0 3.09005e-05)
(0 -0 3.09986e-05)
(0 -0 3.09869e-05)
(0 -0 3.08819e-05)
(0 -0 3.06981e-05)
(0 -0 3.04478e-05)
(0 -0 3.01418e-05)
(0 -0 2.97891e-05)
(0 -0 2.93978e-05)
(0 -0 2.8975e-05)
(0 -0 2.85275e-05)
(0 -0 2.80612e-05)
(0 -0 2.75811e-05)
(0 -0 2.70914e-05)
(0 -0 2.6595e-05)
(0 -0 2.60941e-05)
(0 -0 2.55903e-05)
(0 -0 2.50852e-05)
(0 -0 2.45804e-05)
(0 -0 2.40777e-05)
(0 -0 2.35783e-05)
(0 -0 2.30841e-05)
(0 -0 2.25959e-05)
(0 -0 2.21161e-05)
(0 -0 2.16443e-05)
(0 -0 2.1183e-05)
(0 -0 2.0728e-05)
(0 -0 2.02845e-05)
(0 -0 1.98419e-05)
(0 -0 1.94155e-05)
(0 -0 1.89806e-05)
(0 -0 1.85758e-05)
(0 -0 1.8145e-05)
(0 -0 1.77748e-05)
(0 -0 1.73388e-05)
(0 -0 1.70191e-05)
(0 -0 1.65534e-05)
(0 -0 1.63083e-05)
(0 -0 1.57775e-05)
(0 -0 1.56472e-05)
(0 -0 1.50008e-05)
(0 -0 1.50325e-05)
(0 -0 1.42063e-05)
(0 -0 1.44428e-05)
(0 -0 1.34127e-05)
(0 -0 1.37553e-05)
(0 -0 1.29462e-05)
(0 -0 1.2122e-05)
(0 -0 1.4225e-05)
(0 -0 8.42952e-06)
(0 -0 1.47144e-05)
(0 -0 1.15443e-05)
(0 -0 7.21631e-06)
(0 -0 4.57202e-06)
(0 -0 2.49597e-05)
(0 -0 6.33828e-06)
(0 -0 8.50929e-06)
(0 -0 1.1048e-05)
(0 -0 1.38359e-05)
(0 -0 1.66643e-05)
(0 -0 1.94171e-05)
(0 -0 2.20061e-05)
(0 -0 2.43653e-05)
(0 -0 2.64547e-05)
(0 -0 2.82585e-05)
(0 -0 2.97797e-05)
(0 -0 3.1033e-05)
(0 -0 3.20384e-05)
(0 -0 3.28179e-05)
(0 -0 3.33935e-05)
(0 -0 3.37876e-05)
(0 -0 3.40223e-05)
(0 -0 3.41187e-05)
(0 -0 3.40964e-05)
(0 -0 3.39733e-05)
(0 -0 3.37646e-05)
(0 -0 3.34837e-05)
(0 -0 3.31422e-05)
(0 -0 3.27498e-05)
(0 -0 3.23152e-05)
(0 -0 3.18462e-05)
(0 -0 3.13501e-05)
(0 -0 3.08333e-05)
(0 -0 3.03015e-05)
(0 -0 2.97589e-05)
(0 -0 2.92088e-05)
(0 -0 2.86535e-05)
(0 -0 2.80947e-05)
(0 -0 2.75343e-05)
(0 -0 2.69739e-05)
(0 -0 2.64154e-05)
(0 -0 2.58606e-05)
(0 -0 2.53111e-05)
(0 -0 2.47683e-05)
(0 -0 2.42344e-05)
(0 -0 2.37094e-05)
(0 -0 2.31957e-05)
(0 -0 2.26891e-05)
(0 -0 2.21947e-05)
(0 -0 2.17016e-05)
(0 -0 2.12253e-05)
(0 -0 2.07408e-05)
(0 -0 2.02875e-05)
(0 -0 1.98081e-05)
(0 -0 1.93916e-05)
(0 -0 1.89083e-05)
(0 -0 1.85452e-05)
(0 -0 1.80324e-05)
(0 -0 1.77471e-05)
(0 -0 1.71681e-05)
(0 -0 1.70025e-05)
(0 -0 1.63045e-05)
(0 -0 1.63077e-05)
(0 -0 1.54222e-05)
(0 -0 1.56399e-05)
(0 -0 1.45441e-05)
(0 -0 1.48479e-05)
(0 -0 1.40914e-05)
(0 -0 1.28169e-05)
(0 -0 1.60305e-05)
(0 -0 7.70258e-06)
(0 -0 1.78756e-05)
(0 -0 1.0613e-05)
(0 -0 7.79751e-06)
(0 -0 6.35369e-06)
(0 -0 2.61412e-05)
(0 -0 7.13372e-06)
(0 -0 9.6005e-06)
(0 -0 1.24329e-05)
(0 -0 1.55018e-05)
(0 -0 1.85923e-05)
(0 -0 2.15834e-05)
(0 -0 2.43842e-05)
(0 -0 2.69279e-05)
(0 -0 2.91747e-05)
(0 -0 3.111e-05)
(0 -0 3.27386e-05)
(0 -0 3.40775e-05)
(0 -0 3.51488e-05)
(0 -0 3.59767e-05)
(0 -0 3.65855e-05)
(0 -0 3.69993e-05)
(0 -0 3.72419e-05)
(0 -0 3.7336e-05)
(0 -0 3.73025e-05)
(0 -0 3.71601e-05)
(0 -0 3.69255e-05)
(0 -0 3.66128e-05)
(0 -0 3.62344e-05)
(0 -0 3.58009e-05)
(0 -0 3.53215e-05)
(0 -0 3.48048e-05)
(0 -0 3.42585e-05)
(0 -0 3.36896e-05)
(0 -0 3.31042e-05)
(0 -0 3.2507e-05)
(0 -0 3.19014e-05)
(0 -0 3.12899e-05)
(0 -0 3.06744e-05)
(0 -0 3.00568e-05)
(0 -0 2.94389e-05)
(0 -0 2.8823e-05)
(0 -0 2.82108e-05)
(0 -0 2.76043e-05)
(0 -0 2.70049e-05)
(0 -0 2.64152e-05)
(0 -0 2.58351e-05)
(0 -0 2.52673e-05)
(0 -0 2.47073e-05)
(0 -0 2.41602e-05)
(0 -0 2.36148e-05)
(0 -0 2.30869e-05)
(0 -0 2.2551e-05)
(0 -0 2.20474e-05)
(0 -0 2.15178e-05)
(0 -0 2.10534e-05)
(0 -0 2.05211e-05)
(0 -0 2.01128e-05)
(0 -0 1.95514e-05)
(0 -0 1.92241e-05)
(0 -0 1.85955e-05)
(0 -0 1.83929e-05)
(0 -0 1.76419e-05)
(0 -0 1.76151e-05)
(0 -0 1.66686e-05)
(0 -0 1.68661e-05)
(0 -0 1.57038e-05)
(0 -0 1.5965e-05)
(0 -0 1.52687e-05)
(0 -0 1.35148e-05)
(0 -0 1.79095e-05)
(0 -0 6.89931e-06)
(0 -0 2.1192e-05)
(0 -0 9.59906e-06)
(0 -0 8.37575e-06)
(0 -0 8.25041e-06)
(0 -0 2.73384e-05)
(0 -0 7.99362e-06)
(0 -0 1.07557e-05)
(0 -0 1.38856e-05)
(0 -0 1.72384e-05)
(0 -0 2.05929e-05)
(0 -0 2.38238e-05)
(0 -0 2.68378e-05)
(0 -0 2.9567e-05)
(0 -0 3.1972e-05)
(0 -0 3.40395e-05)
(0 -0 3.5776e-05)
(0 -0 3.72006e-05)
(0 -0 3.83378e-05)
(0 -0 3.9214e-05)
(0 -0 3.98555e-05)
(0 -0 4.02884e-05)
(0 -0 4.05384e-05)
(0 -0 4.06294e-05)
(0 -0 4.05838e-05)
(0 -0 4.04215e-05)
(0 -0 4.016e-05)
(0 -0 3.98145e-05)
(0 -0 3.93982e-05)
(0 -0 3.89225e-05)
(0 -0 3.83972e-05)
(0 -0 3.78316e-05)
(0 -0 3.72339e-05)
(0 -0 3.66118e-05)
(0 -0 3.59717e-05)
(0 -0 3.53187e-05)
(0 -0 3.46565e-05)
(0 -0 3.39877e-05)
(0 -0 3.33142e-05)
(0 -0 3.26382e-05)
(0 -0 3.19617e-05)
(0 -0 3.12871e-05)
(0 -0 3.06163e-05)
(0 -0 2.99516e-05)
(0 -0 2.92944e-05)
(0 -0 2.86477e-05)
(0 -0 2.80114e-05)
(0 -0 2.73883e-05)
(0 -0 2.67736e-05)
(0 -0 2.61727e-05)
(0 -0 2.55738e-05)
(0 -0 2.4993e-05)
(0 -0 2.44044e-05)
(0 -0 2.38495e-05)
(0 -0 2.32684e-05)
(0 -0 2.27548e-05)
(0 -0 2.21724e-05)
(0 -0 2.17177e-05)
(0 -0 2.11065e-05)
(0 -0 2.07364e-05)
(0 -0 2.0057e-05)
(0 -0 1.98163e-05)
(0 -0 1.90111e-05)
(0 -0 1.89533e-05)
(0 -0 1.7945e-05)
(0 -0 1.81212e-05)
(0 -0 1.68919e-05)
(0 -0 1.71076e-05)
(0 -0 1.64781e-05)
(0 -0 1.42221e-05)
(0 -0 1.98526e-05)
(0 -0 6.04639e-06)
(0 -0 2.46342e-05)
(0 -0 8.53283e-06)
(0 -0 8.96071e-06)
(0 -0 1.02464e-05)
(0 -0 2.85603e-05)
(0 -0 8.89877e-06)
(0 -0 1.19502e-05)
(0 -0 1.53704e-05)
(0 -0 1.90007e-05)
(0 -0 2.26123e-05)
(0 -0 2.60767e-05)
(0 -0 2.92982e-05)
(0 -0 3.22079e-05)
(0 -0 3.47668e-05)
(0 -0 3.69627e-05)
(0 -0 3.8804e-05)
(0 -0 4.03118e-05)
(0 -0 4.15127e-05)
(0 -0 4.24354e-05)
(0 -0 4.31084e-05)
(0 -0 4.35595e-05)
(0 -0 4.3816e-05)
(0 -0 4.39036e-05)
(0 -0 4.38456e-05)
(0 -0 4.36632e-05)
(0 -0 4.33749e-05)
(0 -0 4.29968e-05)
(0 -0 4.2543e-05)
(0 -0 4.20255e-05)
(0 -0 4.1455e-05)
(0 -0 4.0841e-05)
(0 -0 4.01926e-05)
(0 -0 3.95179e-05)
(0 -0 3.88238e-05)
(0 -0 3.81158e-05)
(0 -0 3.73977e-05)
(0 -0 3.66722e-05)
(0 -0 3.59416e-05)
(0 -0 3.52079e-05)
(0 -0 3.44735e-05)
(0 -0 3.3741e-05)
(0 -0 3.30123e-05)
(0 -0 3.229e-05)
(0 -0 3.15758e-05)
(0 -0 3.08726e-05)
(0 -0 3.01808e-05)
(0 -0 2.9503e-05)
(0 -0 2.88343e-05)
(0 -0 2.81801e-05)
(0 -0 2.75282e-05)
(0 -0 2.68951e-05)
(0 -0 2.62544e-05)
(0 -0 2.56485e-05)
(0 -0 2.50165e-05)
(0 -0 2.44542e-05)
(0 -0 2.38221e-05)
(0 -0 2.33215e-05)
(0 -0 2.2661e-05)
(0 -0 2.22481e-05)
(0 -0 2.15185e-05)
(0 -0 2.124e-05)
(0 -0 2.03813e-05)
(0 -0 2.02926e-05)
(0 -0 1.92233e-05)
(0 -0 1.9378e-05)
(0 -0 1.80834e-05)
(0 -0 1.82527e-05)
(0 -0 1.76933e-05)
(0 -0 1.49312e-05)
(0 -0 2.18072e-05)
(0 -0 5.19224e-06)
(0 -0 2.8095e-05)
(0 -0 7.47082e-06)
(0 -0 9.55065e-06)
(0 -0 1.22798e-05)
(0 -0 2.97935e-05)
(0 -0 9.87616e-06)
(0 -0 1.32195e-05)
(0 -0 1.69224e-05)
(0 -0 2.08203e-05)
(0 -0 2.46808e-05)
(0 -0 2.83711e-05)
(0 -0 3.1793e-05)
(0 -0 3.48769e-05)
(0 -0 3.75841e-05)
(0 -0 3.99034e-05)
(0 -0 4.18451e-05)
(0 -0 4.34323e-05)
(0 -0 4.46938e-05)
(0 -0 4.56603e-05)
(0 -0 4.63624e-05)
(0 -0 4.68298e-05)
(0 -0 4.70913e-05)
(0 -0 4.7174e-05)
(0 -0 4.71027e-05)
(0 -0 4.68995e-05)
(0 -0 4.65839e-05)
(0 -0 4.6173e-05)
(0 -0 4.56816e-05)
(0 -0 4.51224e-05)
(0 -0 4.45066e-05)
(0 -0 4.38446e-05)
(0 -0 4.31458e-05)
(0 -0 4.2419e-05)
(0 -0 4.16714e-05)
(0 -0 4.09088e-05)
(0 -0 4.01353e-05)
(0 -0 3.93539e-05)
(0 -0 3.85667e-05)
(0 -0 3.7776e-05)
(0 -0 3.69844e-05)
(0 -0 3.61946e-05)
(0 -0 3.54088e-05)
(0 -0 3.46296e-05)
(0 -0 3.3859e-05)
(0 -0 3.31002e-05)
(0 -0 3.23534e-05)
(0 -0 3.16215e-05)
(0 -0 3.08995e-05)
(0 -0 3.01925e-05)
(0 -0 2.94883e-05)
(0 -0 2.88034e-05)
(0 -0 2.81111e-05)
(0 -0 2.74548e-05)
(0 -0 2.67725e-05)
(0 -0 2.61619e-05)
(0 -0 2.54808e-05)
(0 -0 2.49346e-05)
(0 -0 2.42253e-05)
(0 -0 2.37701e-05)
(0 -0 2.29909e-05)
(0 -0 2.26748e-05)
(0 -0 2.17634e-05)
(0 -0 2.16439e-05)
(0 -0 2.05147e-05)
(0 -0 2.0648e-05)
(0 -0 1.92893e-05)
(0 -0 1.94119e-05)
(0 -0 1.89252e-05)
(0 -0 1.56561e-05)
(0 -0 2.37797e-05)
(0 -0 4.35912e-06)
(0 -0 3.15719e-05)
(0 -0 6.43673e-06)
(0 -0 1.01617e-05)
(0 -0 1.43491e-05)
(0 -0 3.10515e-05)
(0 -0 1.09576e-05)
(0 -0 1.45996e-05)
(0 -0 1.85818e-05)
(0 -0 2.27431e-05)
(0 -0 2.68487e-05)
(0 -0 3.07613e-05)
(0 -0 3.43802e-05)
(0 -0 3.7635e-05)
(0 -0 4.04873e-05)
(0 -0 4.29274e-05)
(0 -0 4.49671e-05)
(0 -0 4.66314e-05)
(0 -0 4.79515e-05)
(0 -0 4.896e-05)