/*--------------------------------*- C++ -*----------------------------------*\
| =========                 |                                                 |
| \\      /  F ield         | OpenFOAM: The Open Source CFD Toolbox           |
|  \\    /   O peration     | Version:  2412                                  |
|   \\  /    A nd           | Website:  www.openfoam.com                      |
|    \\/     M anipulation  |                                                 |
\*---------------------------------------------------------------------------*/
FoamFile
{
    version     2.0;
    format      ascii;
    arch        "LSB;label=32;scalar=64";
    class       volVectorField;
    location    "16.5";
    object      U;
}
// * * * * * * * * * * * * * * * * * * * * * * * * * * * * * * * * * * * * * //

dimensions      [0 1 -1 0 0 0 0];

internalField   nonuniform List<vector> 
5285
(
(0.101964 0.00456085 0)
(0.101852 0.00450602 0)
(0.101743 0.00444823 0)
(0.101636 0.00438753 0)
(0.101531 0.00432401 0)
(0.101429 0.00425775 0)
(0.101329 0.00418886 0)
(0.101232 0.00411746 0)
(0.101138 0.00404367 0)
(0.101047 0.00396765 0)
(0.100959 0.00388955 0)
(0.100874 0.00380953 0)
(0.100792 0.00372776 0)
(0.100714 0.00364442 0)
(0.100639 0.0035597 0)
(0.100567 0.00347378 0)
(0.100499 0.00338684 0)
(0.100434 0.00329908 0)
(0.100373 0.00321069 0)
(0.100316 0.00312185 0)
(0.100262 0.00303273 0)
(0.100211 0.00294352 0)
(0.100164 0.00285439 0)
(0.10012 0.00276549 0)
(0.100079 0.00267699 0)
(0.100042 0.00258904 0)
(0.100008 0.0025018 0)
(0.0999772 0.00241541 0)
(0.0999494 0.00232999 0)
(0.0999245 0.00224568 0)
(0.0999025 0.00216257 0)
(0.0998833 0.00208075 0)
(0.0998666 0.00200029 0)
(0.0998524 0.00192124 0)
(0.0998405 0.00184364 0)
(0.0998308 0.00176754 0)
(0.0998231 0.00169297 0)
(0.0998173 0.00161996 0)
(0.0998132 0.00154857 0)
(0.0998107 0.00147883 0)
(0.0998097 0.00141078 0)
(0.09981 0.00134448 0)
(0.0998114 0.00127997 0)
(0.099814 0.00121728 0)
(0.101907 0.00468042 0)
(0.101793 0.00462112 0)
(0.101682 0.00455882 0)
(0.101573 0.0044936 0)
(0.101466 0.00442555 0)
(0.101362 0.00435477 0)
(0.101262 0.00428137 0)
(0.101163 0.00420549 0)
(0.101069 0.00412726 0)
(0.100977 0.00404684 0)
(0.100888 0.00396441 0)
(0.100803 0.00388012 0)
(0.100722 0.00379417 0)
(0.100643 0.00370673 0)
(0.100569 0.00361801 0)
(0.100498 0.00352819 0)
(0.10043 0.00343747 0)
(0.100367 0.00334605 0)
(0.100306 0.00325412 0)
(0.10025 0.00316186 0)
(0.100197 0.00306946 0)
(0.100148 0.0029771 0)
(0.100102 0.00288495 0)
(0.100059 0.00279317 0)
(0.10002 0.00270194 0)
(0.0999848 0.00261139 0)
(0.0999524 0.00252169 0)
(0.0999233 0.00243298 0)
(0.0998972 0.0023454 0)
(0.0998742 0.00225905 0)
(0.099854 0.00217405 0)
(0.0998365 0.00209049 0)
(0.0998217 0.00200842 0)
(0.0998093 0.0019279 0)
(0.0997992 0.00184897 0)
(0.0997913 0.00177166 0)
(0.0997853 0.00169601 0)
(0.0997813 0.00162204 0)
(0.0997789 0.00154979 0)
(0.0997781 0.00147929 0)
(0.0997787 0.00141059 0)
(0.0997806 0.00134371 0)
(0.0997836 0.00127871 0)
(0.0997876 0.0012156 0)
(0.101846 0.00480255 0)
(0.10173 0.00473849 0)
(0.101616 0.00467141 0)
(0.101505 0.0046014 0)
(0.101397 0.00452857 0)
(0.101292 0.00445302 0)
(0.10119 0.00437488 0)
(0.101091 0.00429429 0)
(0.100995 0.00421141 0)
(0.100903 0.00412641 0)
(0.100815 0.00403945 0)
(0.100729 0.00395073 0)
(0.100648 0.00386044 0)
(0.10057 0.00376877 0)
(0.100496 0.00367591 0)
(0.100426 0.00358208 0)
(0.100359 0.00348748 0)
(0.100296 0.0033923 0)
(0.100237 0.00329674 0)
(0.100182 0.00320099 0)
(0.10013 0.00310525 0)
(0.100082 0.00300969 0)
(0.100038 0.00291449 0)
(0.0999972 0.00281981 0)
(0.0999599 0.00272581 0)
(0.099926 0.00263266 0)
(0.0998955 0.00254049 0)
(0.0998681 0.00244946 0)
(0.0998439 0.00235971 0)
(0.0998227 0.00227134 0)
(0.0998044 0.00218447 0)
(0.0997889 0.00209917 0)
(0.0997759 0.00201552 0)
(0.0997654 0.00193356 0)
(0.0997572 0.00185332 0)
(0.0997511 0.00177484 0)
(0.099747 0.00169813 0)
(0.0997447 0.00162323 0)
(0.0997441 0.00155015 0)
(0.099745 0.00147894 0)
(0.0997473 0.00140961 0)
(0.0997508 0.0013422 0)
(0.0997554 0.00127673 0)
(0.099761 0.00121324 0)
(0.101779 0.00492717 0)
(0.101661 0.00485806 0)
(0.101546 0.00478591 0)
(0.101433 0.00471084 0)
(0.101323 0.00463296 0)
(0.101217 0.00455238 0)
(0.101114 0.00446926 0)
(0.101014 0.00438374 0)
(0.100918 0.004296 0)
(0.100826 0.00420621 0)
(0.100737 0.00411456 0)
(0.100652 0.00402124 0)
(0.100571 0.00392645 0)
(0.100493 0.00383039 0)
(0.10042 0.00373328 0)
(0.10035 0.00363533 0)
(0.100285 0.00353673 0)
(0.100223 0.0034377 0)
(0.100165 0.00333844 0)
(0.100111 0.00323915 0)
(0.100061 0.00314001 0)
(0.100015 0.00304121 0)
(0.0999722 0.00294292 0)
(0.0999332 0.0028453 0)
(0.0998977 0.00274853 0)
(0.0998657 0.00265275 0)
(0.0998371 0.00255812 0)
(0.0998117 0.00246478 0)
(0.0997894 0.00237286 0)
(0.0997702 0.00228249 0)
(0.0997539 0.00219376 0)
(0.0997403 0.00210676 0)
(0.0997293 0.00202155 0)
(0.0997207 0.00193817 0)
(0.0997145 0.00185666 0)
(0.0997103 0.00177703 0)
(0.0997081 0.00169931 0)
(0.0997076 0.00162351 0)
(0.0997088 0.00154965 0)
(0.0997115 0.00147775 0)
(0.0997155 0.00140783 0)
(0.0997207 0.00133992 0)
(0.0997269 0.00127403 0)
(0.0997341 0.0012102 0)
(0.101707 0.0050542 0)
(0.101587 0.00497973 0)
(0.10147 0.00490222 0)
(0.101356 0.0048218 0)
(0.101245 0.00473859 0)
(0.101137 0.00465274 0)
(0.101033 0.00456439 0)
(0.100933 0.00447372 0)
(0.100837 0.0043809 0)
(0.100744 0.00428612 0)
(0.100655 0.00418958 0)
(0.10057 0.00409149 0)
(0.10049 0.00399205 0)
(0.100413 0.00389147 0)
(0.10034 0.00378998 0)
(0.100272 0.00368779 0)
(0.100208 0.0035851 0)
(0.100147 0.00348215 0)
(0.100091 0.00337911 0)
(0.100038 0.00327621 0)
(0.09999 0.00317363 0)
(0.0999454 0.00307154 0)
(0.0999045 0.00297013 0)
(0.0998674 0.00286957 0)
(0.0998339 0.00277 0)
(0.0998038 0.0026716 0)
(0.0997772 0.0025745 0)
(0.0997539 0.00247886 0)
(0.0997337 0.00238479 0)
(0.0997166 0.00229243 0)
(0.0997023 0.00220187 0)
(0.0996908 0.00211319 0)
(0.0996819 0.00202645 0)
(0.0996754 0.00194169 0)
(0.0996711 0.00185894 0)
(0.0996689 0.00177821 0)
(0.0996686 0.00169951 0)
(0.0996701 0.00162285 0)
(0.0996731 0.00154824 0)
(0.0996776 0.0014757 0)
(0.0996833 0.00140524 0)
(0.0996902 0.00133687 0)
(0.0996981 0.0012706 0)
(0.0997068 0.00120645 0)
(0.10163 0.00518353 0)
(0.101507 0.00510339 0)
(0.101388 0.00502021 0)
(0.101273 0.00493415 0)
(0.101161 0.00484534 0)
(0.101052 0.00475395 0)
(0.100948 0.00466012 0)
(0.100847 0.00456406 0)
(0.10075 0.00446594 0)
(0.100658 0.00436598 0)
(0.100569 0.00426437 0)
(0.100485 0.00416133 0)
(0.100405 0.00405709 0)
(0.100329 0.00395186 0)
(0.100258 0.00384586 0)
(0.10019 0.00373932 0)
(0.100127 0.00363246 0)
(0.100068 0.00352549 0)
(0.100014 0.00341862 0)
(0.0999631 0.00331205 0)
(0.0999164 0.00320598 0)
(0.0998737 0.00310058 0)
(0.0998348 0.00299603 0)
(0.0997998 0.0028925 0)
(0.0997683 0.00279014 0)
(0.0997404 0.00268911 0)
(0.099716 0.00258956 0)
(0.0996948 0.00249163 0)
(0.0996768 0.00239544 0)
(0.0996619 0.00230111 0)
(0.0996498 0.00220875 0)
(0.0996405 0.00211842 0)
(0.0996337 0.00203019 0)
(0.0996293 0.00194409 0)
(0.0996271 0.00186014 0)
(0.0996269 0.00177835 0)
(0.0996286 0.00169871 0)
(0.099632 0.00162124 0)
(0.099637 0.00154593 0)
(0.0996433 0.00147279 0)
(0.0996508 0.00140182 0)
(0.0996594 0.00133303 0)
(0.099669 0.00126642 0)
(0.0996793 0.001202 0)
(0.101546 0.00531504 0)
(0.101422 0.00522889 0)
(0.101301 0.00513973 0)
(0.101184 0.00504773 0)
(0.101071 0.00495304 0)
(0.100962 0.00485583 0)
(0.100857 0.00475629 0)
(0.100756 0.00465459 0)
(0.100659 0.00455096 0)
(0.100567 0.00444561 0)
(0.100479 0.00433875 0)
(0.100396 0.0042306 0)
(0.100316 0.0041214 0)
(0.100242 0.00401138 0)
(0.100171 0.00390076 0)
(0.100106 0.00378978 0)
(0.100044 0.00367865 0)
(0.0999868 0.0035676 0)
(0.0999339 0.00345683 0)
(0.0998851 0.00334655 0)
(0.0998405 0.00323695 0)
(0.0997998 0.00312821 0)
(0.0997631 0.00302051 0)
(0.0997302 0.002914 0)
(0.0997011 0.00280885 0)
(0.0996754 0.00270521 0)
(0.0996533 0.00260321 0)
(0.0996344 0.00250301 0)
(0.0996188 0.00240472 0)
(0.0996061 0.00230847 0)
(0.0995963 0.00221434 0)
(0.0995892 0.00212241 0)
(0.0995847 0.00203273 0)
(0.0995825 0.00194533 0)
(0.0995824 0.00186022 0)
(0.0995844 0.0017774 0)
(0.0995881 0.00169688 0)
(0.0995935 0.00161864 0)
(0.0996004 0.00154267 0)
(0.0996086 0.00146898 0)
(0.099618 0.00139755 0)
(0.0996284 0.00132838 0)
(0.0996396 0.00126148 0)
(0.0996516 0.00119683 0)
(0.101456 0.00544857 0)
(0.10133 0.00535608 0)
(0.101208 0.00526062 0)
(0.10109 0.00516237 0)
(0.100976 0.00506151 0)
(0.100866 0.00495822 0)
(0.100761 0.00485269 0)
(0.10066 0.00474513 0)
(0.100563 0.00463577 0)
(0.100472 0.00452483 0)
(0.100384 0.00441253 0)
(0.100302 0.00429912 0)
(0.100224 0.00418482 0)
(0.10015 0.00406988 0)
(0.100081 0.00395452 0)
(0.100017 0.003839 0)
(0.0999574 0.00372352 0)
(0.0999021 0.00360832 0)
(0.0998512 0.0034936 0)
(0.0998046 0.00337956 0)
(0.0997621 0.00326641 0)
(0.0997238 0.00315431 0)
(0.0996894 0.00304345 0)
(0.0996588 0.00293397 0)
(0.0996321 0.00282603 0)
(0.0996089 0.00271979 0)
(0.0995891 0.00261537 0)
(0.0995727 0.00251293 0)
(0.0995595 0.00241258 0)
(0.0995493 0.00231443 0)
(0.0995419 0.00221857 0)
(0.0995371 0.00212508 0)
(0.0995349 0.002034 0)
(0.099535 0.00194535 0)
(0.0995371 0.00185913 0)
(0.0995413 0.00177535 0)
(0.0995471 0.00169399 0)
(0.0995546 0.00161503 0)
(0.0995635 0.00153845 0)
(0.0995736 0.00146425 0)
(0.0995848 0.00139241 0)
(0.099597 0.00132292 0)
(0.09961 0.00125576 0)
(0.0996237 0.00119093 0)
(0.101358 0.00558394 0)
(0.101231 0.00548476 0)
(0.101108 0.00538267 0)
(0.100989 0.00527787 0)
(0.100874 0.00517054 0)
(0.100764 0.00506089 0)
(0.100659 0.00494912 0)
(0.100558 0.00483547 0)
(0.100462 0.00472016 0)
(0.100371 0.00460343 0)
(0.100285 0.00448552 0)
(0.100203 0.00436667 0)
(0.100127 0.00424714 0)
(0.100055 0.00412715 0)
(0.0999878 0.00400696 0)
(0.0999254 0.0038868 0)
(0.0998676 0.0037669 0)
(0.0998144 0.00364749 0)
(0.0997657 0.00352877 0)
(0.0997214 0.00341095 0)
(0.0996813 0.00329422 0)
(0.0996454 0.00317876 0)
(0.0996135 0.00306473 0)
(0.0995856 0.00295229 0)
(0.0995613 0.00284158 0)
(0.0995407 0.00273276 0)
(0.0995236 0.00262596 0)
(0.0995097 0.00252131 0)
(0.0994991 0.00241893 0)
(0.0994914 0.00231893 0)
(0.0994865 0.0022214 0)
(0.0994842 0.00212639 0)
(0.0994844 0.00203396 0)
(0.0994868 0.00194411 0)
(0.0994913 0.00185685 0)
(0.0994976 0.00177215 0)
(0.0995057 0.00169001 0)
(0.0995153 0.00161038 0)
(0.0995262 0.00153325 0)
(0.0995383 0.0014586 0)
(0.0995514 0.00138639 0)
(0.0995654 0.00131662 0)
(0.0995802 0.00124926 0)
(0.0995956 0.00118429 0)
(0.101254 0.00572094 0)
(0.101125 0.00561473 0)
(0.101001 0.00550567 0)
(0.100881 0.005394 0)
(0.100767 0.00527991 0)
(0.100656 0.00516362 0)
(0.100551 0.00504536 0)
(0.100451 0.00492537 0)
(0.100356 0.0048039 0)
(0.100266 0.00468119 0)
(0.100181 0.00455749 0)
(0.100101 0.00443306 0)
(0.100025 0.00430815 0)
(0.0999554 0.00418301 0)
(0.0998903 0.00405788 0)
(0.09983 0.00393301 0)
(0.0997744 0.00380862 0)
(0.0997236 0.00368495 0)
(0.0996773 0.0035622 0)
(0.0996355 0.00344057 0)
(0.0995981 0.00332026 0)
(0.0995648 0.00320142 0)
(0.0995356 0.00308424 0)
(0.0995104 0.00296885 0)
(0.0994889 0.0028554 0)
(0.099471 0.00274403 0)
(0.0994566 0.00263488 0)
(0.0994455 0.00252806 0)
(0.0994375 0.00242371 0)
(0.0994324 0.00232191 0)
(0.0994301 0.00222275 0)
(0.0994304 0.00212629 0)
(0.0994331 0.00203257 0)
(0.099438 0.00194158 0)
(0.0994448 0.00185332 0)
(0.0994535 0.00176777 0)
(0.0994638 0.0016849 0)
(0.0994755 0.00160467 0)
(0.0994886 0.00152704 0)
(0.0995027 0.00145199 0)
(0.0995178 0.00137947 0)
(0.0995336 0.00130947 0)
(0.0995502 0.00124196 0)
(0.0995673 0.0011769 0)
(0.101142 0.00585935 0)
(0.101012 0.00574574 0)
(0.100887 0.00562937 0)
(0.100767 0.0055105 0)
(0.100652 0.00538935 0)
(0.100542 0.00526615 0)
(0.100437 0.00514114 0)
(0.100338 0.00501459 0)
(0.100244 0.00488674 0)
(0.100155 0.00475786 0)
(0.100071 0.00462821 0)
(0.099993 0.00449805 0)
(0.0999198 0.00436764 0)
(0.0998518 0.00423723 0)
(0.0997889 0.00410707 0)
(0.0997309 0.00397742 0)
(0.0996779 0.00384849 0)
(0.0996297 0.00372052 0)
(0.0995861 0.00359371 0)
(0.099547 0.00346826 0)
(0.0995124 0.00334436 0)
(0.099482 0.00322216 0)
(0.0994556 0.00310184 0)
(0.0994333 0.00298353 0)
(0.0994147 0.00286737 0)
(0.0993997 0.0027535 0)
(0.0993882 0.00264204 0)
(0.0993799 0.00253311 0)
(0.0993748 0.00242683 0)
(0.0993725 0.00232329 0)
(0.0993729 0.00222257 0)
(0.0993759 0.00212472 0)
(0.0993812 0.00202976 0)
(0.0993886 0.0019377 0)
(0.0993979 0.00184852 0)
(0.0994089 0.00176218 0)
(0.0994215 0.00167864 0)
(0.0994355 0.00159786 0)
(0.0994506 0.0015198 0)
(0.0994668 0.0014444 0)
(0.0994839 0.00137164 0)
(0.0995017 0.00130146 0)
(0.0995201 0.00123385 0)
(0.0995389 0.00116875 0)
(0.101021 0.00599889 0)
(0.100891 0.00587752 0)
(0.100765 0.0057535 0)
(0.100645 0.00562711 0)
(0.10053 0.0054986 0)
(0.100421 0.00536821 0)
(0.100317 0.0052362 0)
(0.100219 0.00510285 0)
(0.100126 0.00496842 0)
(0.100039 0.00483319 0)
(0.0999569 0.00469743 0)
(0.0998805 0.0045614 0)
(0.0998096 0.00442537 0)
(0.0997439 0.00428959 0)
(0.0996835 0.00415433 0)
(0.0996282 0.00401983 0)
(0.0995779 0.00388632 0)
(0.0995325 0.00375402 0)
(0.0994919 0.00362314 0)
(0.0994558 0.00349386 0)
(0.0994242 0.00336638 0)
(0.0993968 0.00324084 0)
(0.0993736 0.00311741 0)
(0.0993543 0.00299621 0)
(0.0993388 0.00287739 0)
(0.0993269 0.00276106 0)
(0.0993184 0.00264734 0)
(0.0993131 0.00253637 0)
(0.0993109 0.00242822 0)
(0.0993116 0.00232301 0)
(0.0993148 0.00222079 0)
(0.0993206 0.00212162 0)
(0.0993285 0.0020255 0)
(0.0993386 0.00193244 0)
(0.0993504 0.00184239 0)
(0.0993639 0.00175533 0)
(0.0993789 0.0016712 0)
(0.0993951 0.00158994 0)
(0.0994125 0.0015115 0)
(0.0994308 0.00143582 0)
(0.0994499 0.00136287 0)
(0.0994696 0.00129258 0)
(0.0994898 0.00122491 0)
(0.0995104 0.00115982 0)
(0.100892 0.00613929 0)
(0.100761 0.00600977 0)
(0.100636 0.00587774 0)
(0.100516 0.00574351 0)
(0.100402 0.00560734 0)
(0.100293 0.00546948 0)
(0.10019 0.00533023 0)
(0.100093 0.00518986 0)
(0.100002 0.00504865 0)
(0.0999169 0.0049069 0)
(0.0998372 0.00476487 0)
(0.0997632 0.00462284 0)
(0.0996947 0.00448108 0)
(0.0996317 0.00433986 0)
(0.0995741 0.00419943 0)
(0.0995217 0.00406003 0)
(0.0994745 0.0039219 0)
(0.0994322 0.00378525 0)
(0.0993947 0.00365029 0)
(0.0993619 0.00351721 0)
(0.0993335 0.00338616 0)
(0.0993095 0.00325732 0)
(0.0992895 0.00313081 0)
(0.0992735 0.00300678 0)
(0.0992613 0.00288534 0)
(0.0992526 0.00276661 0)
(0.0992473 0.00265071 0)
(0.0992452 0.00253774 0)
(0.099246 0.00242781 0)
(0.0992497 0.00232099 0)
(0.0992559 0.00221735 0)
(0.0992645 0.00211693 0)
(0.0992753 0.00201973 0)
(0.099288 0.00192573 0)
(0.0993025 0.00183491 0)
(0.0993185 0.0017472 0)
(0.0993359 0.00166254 0)
(0.0993545 0.00158087 0)
(0.0993741 0.00150212 0)
(0.0993945 0.00142623 0)
(0.0994157 0.00135314 0)
(0.0994374 0.0012828 0)
(0.0994595 0.00121514 0)
(0.0994819 0.00115012 0)
(0.100754 0.0062802 0)
(0.100623 0.00614216 0)
(0.100498 0.00600177 0)
(0.100379 0.00585937 0)
(0.100265 0.00571523 0)
(0.100158 0.00556964 0)
(0.100057 0.0054229 0)
(0.0999616 0.00527529 0)
(0.0998724 0.00512712 0)
(0.0997893 0.00497867 0)
(0.0997121 0.00483023 0)
(0.0996407 0.00468209 0)
(0.0995751 0.00453451 0)
(0.0995151 0.00438777 0)
(0.0994606 0.00424211 0)
(0.0994115 0.00409778 0)
(0.0993676 0.00395502 0)
(0.0993287 0.00381402 0)
(0.0992946 0.003675 0)
(0.0992653 0.00353812 0)
(0.0992404 0.00340355 0)
(0.0992199 0.00327144 0)
(0.0992034 0.00314191 0)
(0.0991909 0.0030151 0)
(0.0991821 0.00289111 0)
(0.0991768 0.00277005 0)
(0.0991749 0.00265203 0)
(0.099176 0.00253715 0)
(0.0991801 0.0024255 0)
(0.0991869 0.00231716 0)
(0.0991962 0.00221219 0)
(0.0992078 0.00211059 0)
(0.0992215 0.00201239 0)
(0.099237 0.00191755 0)
(0.0992542 0.00182602 0)
(0.0992728 0.00173774 0)
(0.0992927 0.00165264 0)
(0.0993137 0.00157063 0)
(0.0993356 0.00149164 0)
(0.0993582 0.00141561 0)
(0.0993814 0.00134245 0)
(0.0994051 0.00127211 0)
(0.0994291 0.00120452 0)
(0.0994533 0.00113962 0)
(0.100607 0.00642127 0)
(0.100476 0.00627431 0)
(0.100351 0.00612521 0)
(0.100233 0.00597432 0)
(0.100121 0.00582192 0)
(0.100015 0.00566833 0)
(0.099916 0.00551385 0)
(0.099823 0.0053588 0)
(0.0997363 0.00520348 0)
(0.0996558 0.00504819 0)
(0.0995815 0.00489322 0)
(0.0995132 0.00473886 0)
(0.0994507 0.00458538 0)
(0.0993941 0.00443305 0)
(0.0993431 0.00428213 0)
(0.0992975 0.00413286 0)
(0.0992572 0.00398545 0)
(0.099222 0.00384012 0)
(0.0991916 0.00369705 0)
(0.099166 0.00355642 0)
(0.0991449 0.00341837 0)
(0.0991281 0.00328305 0)
(0.0991153 0.00315057 0)
(0.0991065 0.00302104 0)
(0.0991013 0.00289457 0)
(0.0990996 0.00277127 0)
(0.0991012 0.00265121 0)
(0.0991058 0.00253451 0)
(0.0991133 0.00242124 0)
(0.0991233 0.00231146 0)
(0.0991358 0.00220523 0)
(0.0991505 0.00210256 0)
(0.0991671 0.00200344 0)
(0.0991855 0.00190784 0)
(0.0992055 0.0018157 0)
(0.0992268 0.00172693 0)
(0.0992492 0.00164146 0)
(0.0992726 0.00155919 0)
(0.0992969 0.00148004 0)
(0.0993217 0.00140393 0)
(0.0993471 0.00133078 0)
(0.0993728 0.0012605 0)
(0.0993988 0.00119304 0)
(0.0994248 0.00112832 0)
(0.10045 0.00656209 0)
(0.10032 0.00640583 0)
(0.100196 0.00624766 0)
(0.100079 0.00608794 0)
(0.0999687 0.005927 0)
(0.0998651 0.00576515 0)
(0.0997681 0.00560272 0)
(0.0996777 0.00544002 0)
(0.0995938 0.00527738 0)
(0.0995164 0.00511511 0)
(0.0994453 0.00495349 0)
(0.0993804 0.00479282 0)
(0.0993215 0.00463338 0)
(0.0992686 0.00447543 0)
(0.0992214 0.00431923 0)
(0.0991797 0.004165 0)
(0.0991433 0.00401296 0)
(0.0991121 0.00386332 0)
(0.0990858 0.00371626 0)
(0.0990642 0.00357192 0)
(0.099047 0.00343046 0)
(0.0990342 0.00329199 0)
(0.0990254 0.00315663 0)
(0.0990204 0.00302448 0)
(0.099019 0.00289562 0)
(0.0990211 0.00277016 0)
(0.0990263 0.00264816 0)
(0.0990345 0.00252972 0)
(0.0990455 0.00241492 0)
(0.099059 0.00230381 0)
(0.0990747 0.00219642 0)
(0.0990926 0.00209277 0)
(0.0991123 0.00199283 0)
(0.0991337 0.00189656 0)
(0.0991565 0.00180389 0)
(0.0991805 0.00171473 0)
(0.0992056 0.00162897 0)
(0.0992315 0.00154653 0)
(0.0992581 0.00146729 0)
(0.0992852 0.00139118 0)
(0.0993128 0.0013181 0)
(0.0993405 0.00124797 0)
(0.0993684 0.0011807 0)
(0.0993963 0.00111622 0)
(0.100282 0.00670222 0)
(0.100153 0.00653626 0)
(0.100031 0.00636866 0)
(0.0999161 0.00619981 0)
(0.099808 0.00603004 0)
(0.0997069 0.00585968 0)
(0.0996127 0.00568907 0)
(0.0995253 0.00551855 0)
(0.0994447 0.00534845 0)
(0.0993708 0.00517906 0)
(0.0993034 0.0050107 0)
(0.0992424 0.00484366 0)
(0.0991875 0.00467821 0)
(0.0991386 0.00451462 0)
(0.0990956 0.00435312 0)
(0.0990581 0.00419395 0)
(0.099026 0.00403732 0)
(0.0989991 0.00388342 0)
(0.098977 0.00373241 0)
(0.0989597 0.00358444 0)
(0.0989468 0.00343964 0)
(0.0989382 0.00329812 0)
(0.0989335 0.00315997 0)
(0.0989326 0.00302529 0)
(0.0989353 0.00289414 0)
(0.0989413 0.00276661 0)
(0.0989503 0.00264278 0)
(0.0989623 0.00252271 0)
(0.0989769 0.00240648 0)
(0.0989939 0.00229413 0)
(0.0990131 0.00218569 0)
(0.0990342 0.00208116 0)
(0.0990571 0.00198051 0)
(0.0990815 0.00188367 0)
(0.0991072 0.00179057 0)
(0.099134 0.0017011 0)
(0.0991618 0.00161515 0)
(0.0991903 0.00153261 0)
(0.0992193 0.00145338 0)
(0.0992488 0.00137735 0)
(0.0992785 0.00130442 0)
(0.0993083 0.00123449 0)
(0.0993382 0.00116748 0)
(0.099368 0.0011033 0)
(0.100104 0.00684117 0)
(0.099977 0.00666513 0)
(0.0998569 0.00648775 0)
(0.0997441 0.00630944 0)
(0.0996387 0.00613057 0)
(0.0995406 0.00595146 0)
(0.0994497 0.00577248 0)
(0.0993659 0.00559397 0)
(0.099289 0.00541626 0)
(0.0992191 0.00523966 0)
(0.0991558 0.00506449 0)
(0.099099 0.00489102 0)
(0.0990485 0.00471953 0)
(0.0990042 0.00455029 0)
(0.0989657 0.00438352 0)
(0.0989328 0.00421945 0)
(0.0989053 0.00405828 0)
(0.098883 0.00390018 0)
(0.0988655 0.0037453 0)
(0.0988528 0.00359378 0)
(0.0988444 0.00344574 0)
(0.0988402 0.00330126 0)
(0.0988399 0.00316043 0)
(0.0988433 0.00302332 0)
(0.0988502 0.00289 0)
(0.0988602 0.00276052 0)
(0.0988733 0.00263496 0)
(0.0988891 0.00251338 0)
(0.0989075 0.00239584 0)
(0.0989281 0.00228237 0)
(0.0989508 0.00217299 0)
(0.0989754 0.00206769 0)
(0.0990015 0.00196642 0)
(0.0990291 0.00186912 0)
(0.0990578 0.00177569 0)
(0.0990875 0.00168601 0)
(0.0991179 0.00159997 0)
(0.099149 0.00151743 0)
(0.0991805 0.00143829 0)
(0.0992123 0.00136241 0)
(0.0992442 0.0012897 0)
(0.0992762 0.00122006 0)
(0.0993081 0.00115337 0)
(0.0993397 0.00108956 0)
(0.0999155 0.00697838 0)
(0.0997902 0.00679186 0)
(0.0996726 0.00660437 0)
(0.0995628 0.00641631 0)
(0.0994606 0.00622807 0)
(0.099366 0.00604 0)
(0.0992789 0.00585247 0)
(0.0991991 0.00566581 0)
(0.0991266 0.00548038 0)
(0.0990611 0.00529649 0)
(0.0990024 0.00511444 0)
(0.0989504 0.00493452 0)
(0.0989047 0.004757 0)
(0.0988652 0.00458212 0)
(0.0988317 0.00441012 0)
(0.0988037 0.00424121 0)
(0.0987812 0.00407556 0)
(0.0987638 0.00391335 0)
(0.0987513 0.00375471 0)
(0.0987434 0.00359975 0)
(0.0987398 0.00344858 0)
(0.0987402 0.00330126 0)
(0.0987446 0.00315787 0)
(0.0987525 0.00301846 0)
(0.0987637 0.00288308 0)
(0.0987781 0.00275178 0)
(0.0987953 0.00262462 0)
(0.0988151 0.00250165 0)
(0.0988374 0.00238292 0)
(0.0988618 0.00226845 0)
(0.0988881 0.00215825 0)
(0.0989162 0.00205229 0)
(0.0989457 0.00195053 0)
(0.0989764 0.00185288 0)
(0.0990082 0.00175922 0)
(0.0990408 0.00166944 0)
(0.099074 0.0015834 0)
(0.0991078 0.00150096 0)
(0.0991418 0.00142199 0)
(0.0991759 0.00134636 0)
(0.0992101 0.00127396 0)
(0.0992442 0.00120466 0)
(0.0992781 0.00113837 0)
(0.0993116 0.001075 0)
(0.0997152 0.00711323 0)
(0.0995926 0.00691589 0)
(0.0994781 0.00671793 0)
(0.0993717 0.00651985 0)
(0.0992734 0.006322 0)
(0.0991829 0.00612476 0)
(0.0991002 0.0059285 0)
(0.0990251 0.00573359 0)
(0.0989573 0.00554035 0)
(0.0988968 0.0053491 0)
(0.0988432 0.00516015 0)
(0.0987964 0.00497378 0)
(0.098756 0.00479024 0)
(0.0987219 0.00460978 0)
(0.0986936 0.00443262 0)
(0.0986711 0.00425894 0)
(0.0986539 0.00408892 0)
(0.0986417 0.00392271 0)
(0.0986344 0.00376041 0)
(0.0986316 0.00360214 0)
(0.0986331 0.00344797 0)
(0.0986385 0.00329795 0)
(0.0986476 0.00315214 0)
(0.0986602 0.00301056 0)
(0.098676 0.00287326 0)
(0.0986948 0.00274028 0)
(0.0987164 0.00261166 0)
(0.0987404 0.00248743 0)
(0.0987667 0.00236764 0)
(0.098795 0.0022523 0)
(0.098825 0.0021414 0)
(0.0988567 0.00203492 0)
(0.0988896 0.00193278 0)
(0.0989236 0.00183489 0)
(0.0989585 0.00174113 0)
(0.0989941 0.00165135 0)
(0.0990302 0.00156542 0)
(0.0990666 0.00148317 0)
(0.0991031 0.00140447 0)
(0.0991397 0.00132917 0)
(0.0991762 0.00125716 0)
(0.0992124 0.0011883 0)
(0.0992483 0.00112248 0)
(0.0992837 0.0010596 0)
(0.106286 0.00441157 0)
(0.106101 0.00451929 0)
(0.105914 0.00461553 0)
(0.105726 0.00470049 0)
(0.105536 0.00477445 0)
(0.105347 0.00483776 0)
(0.105158 0.00489086 0)
(0.104969 0.00493422 0)
(0.104782 0.00496838 0)
(0.104596 0.00499387 0)
(0.104412 0.00501126 0)
(0.104231 0.0050211 0)
(0.104052 0.00502394 0)
(0.103876 0.00502028 0)
(0.103704 0.00501063 0)
(0.103535 0.00499544 0)
(0.10337 0.00497511 0)
(0.103209 0.00495003 0)
(0.103053 0.00492055 0)
(0.1029 0.00488698 0)
(0.102752 0.00484961 0)
(0.102609 0.00480871 0)
(0.10247 0.00476451 0)
(0.102336 0.00471727 0)
(0.102206 0.0046672 0)
(0.102081 0.00461453 0)
(0.106399 0.00460018 0)
(0.106205 0.00470994 0)
(0.106008 0.00480768 0)
(0.105811 0.0048936 0)
(0.105613 0.00496801 0)
(0.105415 0.00503127 0)
(0.105217 0.00508385 0)
(0.10502 0.00512622 0)
(0.104824 0.00515894 0)
(0.10463 0.00518257 0)
(0.104439 0.00519769 0)
(0.10425 0.00520488 0)
(0.104064 0.00520471 0)
(0.103881 0.00519772 0)
(0.103702 0.00518445 0)
(0.103527 0.00516538 0)
(0.103356 0.00514095 0)
(0.103189 0.00511159 0)
(0.103027 0.00507767 0)
(0.102869 0.00503954 0)
(0.102717 0.00499752 0)
(0.102569 0.0049519 0)
(0.102426 0.00490295 0)
(0.102288 0.00485094 0)
(0.102155 0.00479611 0)
(0.102027 0.00473869 0)
(0.106515 0.00479841 0)
(0.10631 0.00491011 0)
(0.106104 0.00500922 0)
(0.105897 0.00509597 0)
(0.105689 0.00517068 0)
(0.105482 0.00523373 0)
(0.105275 0.0052856 0)
(0.105069 0.00532679 0)
(0.104865 0.00535786 0)
(0.104662 0.00537939 0)
(0.104463 0.00539199 0)
(0.104266 0.00539626 0)
(0.104072 0.0053928 0)
(0.103882 0.00538218 0)
(0.103696 0.00536497 0)
(0.103514 0.00534168 0)
(0.103337 0.00531282 0)
(0.103164 0.00527881 0)
(0.102996 0.0052401 0)
(0.102834 0.00519704 0)
(0.102676 0.00515001 0)
(0.102524 0.00509931 0)
(0.102377 0.00504526 0)
(0.102236 0.00498813 0)
(0.102099 0.0049282 0)
(0.101968 0.00486571 0)
(0.106633 0.005007 0)
(0.106417 0.00512052 0)
(0.106201 0.00522086 0)
(0.105983 0.00530826 0)
(0.105766 0.00538308 0)
(0.105548 0.00544572 0)
(0.105332 0.00549665 0)
(0.105116 0.00553642 0)
(0.104903 0.00556558 0)
(0.104691 0.00558475 0)
(0.104483 0.00559454 0)
(0.104278 0.00559558 0)
(0.104076 0.00558849 0)
(0.103878 0.0055739 0)
(0.103685 0.0055524 0)
(0.103496 0.00552453 0)
(0.103313 0.00549084 0)
(0.103134 0.00545181 0)
(0.102961 0.00540791 0)
(0.102793 0.00535954 0)
(0.102631 0.00530711 0)
(0.102474 0.00525096 0)
(0.102323 0.00519142 0)
(0.102178 0.00512882 0)
(0.102038 0.00506344 0)
(0.101904 0.00499555 0)
(0.106753 0.00522676 0)
(0.106526 0.00534195 0)
(0.106298 0.00544333 0)
(0.10607 0.00553119 0)
(0.105841 0.00560589 0)
(0.105613 0.00566786 0)
(0.105386 0.00571759 0)
(0.105161 0.00575564 0)
(0.104937 0.00578259 0)
(0.104717 0.00579907 0)
(0.104499 0.0058057 0)
(0.104285 0.00580316 0)
(0.104076 0.00579209 0)
(0.10387 0.00577314 0)
(0.103669 0.00574693 0)
(0.103474 0.00571408 0)
(0.103283 0.00567515 0)
(0.103099 0.00563069 0)
(0.10292 0.00558118 0)
(0.102747 0.00552708 0)
(0.10258 0.00546884 0)
(0.102419 0.00540683 0)
(0.102264 0.00534143 0)
(0.102115 0.00527296 0)
(0.101972 0.00520176 0)
(0.101835 0.00512811 0)
(0.106876 0.00545858 0)
(0.106637 0.00557527 0)
(0.106397 0.00567748 0)
(0.106156 0.00576554 0)
(0.105916 0.00583984 0)
(0.105676 0.00590083 0)
(0.105438 0.00594905 0)
(0.105202 0.00598503 0)
(0.104969 0.00600941 0)
(0.104738 0.00602281 0)
(0.104511 0.0060259 0)
(0.104288 0.00601935 0)
(0.10407 0.00600387 0)
(0.103856 0.00598012 0)
(0.103648 0.00594878 0)
(0.103445 0.0059105 0)
(0.103248 0.00586588 0)
(0.103057 0.00581552 0)
(0.102872 0.00575996 0)
(0.102694 0.00569969 0)
(0.102522 0.0056352 0)
(0.102357 0.00556691 0)
(0.102198 0.00549522 0)
(0.102045 0.0054205 0)
(0.101899 0.00534309 0)
(0.10176 0.00526332 0)
(0.107001 0.00570341 0)
(0.106749 0.00582138 0)
(0.106495 0.00592417 0)
(0.106242 0.00601214 0)
(0.105989 0.00608571 0)
(0.105737 0.00614538 0)
(0.105487 0.00619168 0)
(0.10524 0.0062252 0)
(0.104996 0.00624657 0)
(0.104755 0.00625645 0)
(0.104518 0.00625553 0)
(0.104286 0.00624452 0)
(0.104058 0.00622413 0)
(0.103836 0.0061951 0)
(0.10362 0.00615814 0)
(0.10341 0.00611392 0)
(0.103206 0.00606313 0)
(0.103009 0.00600638 0)
(0.102818 0.00594428 0)
(0.102635 0.00587737 0)
(0.102458 0.00580617 0)
(0.102288 0.00573114 0)
(0.102125 0.00565273 0)
(0.101969 0.00557133 0)
(0.10182 0.00548733 0)
(0.101678 0.00540105 0)
(0.107128 0.00596228 0)
(0.106861 0.0060813 0)
(0.106594 0.00618436 0)
(0.106326 0.00627189 0)
(0.10606 0.00634435 0)
(0.105795 0.00640227 0)
(0.105533 0.0064462 0)
(0.105274 0.00647677 0)
(0.105018 0.00649464 0)
(0.104766 0.00650048 0)
(0.104519 0.00649502 0)
(0.104277 0.00647901 0)
(0.10404 0.00645319 0)
(0.10381 0.00641833 0)
(0.103585 0.00637518 0)
(0.103368 0.0063245 0)
(0.103157 0.00626698 0)
(0.102953 0.00620332 0)
(0.102757 0.00613416 0)
(0.102568 0.0060601 0)
(0.102386 0.0059817 0)
(0.102212 0.00589946 0)
(0.102046 0.00581387 0)
(0.101887 0.00572536 0)
(0.101735 0.00563434 0)
(0.10159 0.00554117 0)
(0.107257 0.00623628 0)
(0.106975 0.00635605 0)
(0.106692 0.00645905 0)
(0.10641 0.00654574 0)
(0.106129 0.00661664 0)
(0.105851 0.00667231 0)
(0.105575 0.00671335 0)
(0.105303 0.00674043 0)
(0.105035 0.00675421 0)
(0.104772 0.00675543 0)
(0.104514 0.00674483 0)
(0.104261 0.0067232 0)
(0.104015 0.00669133 0)
(0.103776 0.00665002 0)
(0.103543 0.0066001 0)
(0.103318 0.00654234 0)
(0.1031 0.00647752 0)
(0.10289 0.00640638 0)
(0.102688 0.0063296 0)
(0.102493 0.00624784 0)
(0.102307 0.00616171 0)
(0.102129 0.00607177 0)
(0.101959 0.00597852 0)
(0.101796 0.00588245 0)
(0.101642 0.00578397 0)
(0.101495 0.0056835 0)
(0.107388 0.00652657 0)
(0.107088 0.00664677 0)
(0.106789 0.0067493 0)
(0.106491 0.00683468 0)
(0.106195 0.0069035 0)
(0.105902 0.00695635 0)
(0.105612 0.00699391 0)
(0.105327 0.00701685 0)
(0.105046 0.0070259 0)
(0.10477 0.00702181 0)
(0.104501 0.0070054 0)
(0.104238 0.00697746 0)
(0.103982 0.00693886 0)
(0.103733 0.00689044 0)
(0.103492 0.00683306 0)
(0.103259 0.00676758 0)
(0.103034 0.00669481 0)
(0.102818 0.00661556 0)
(0.10261 0.00653056 0)
(0.10241 0.00644053 0)
(0.10222 0.00634613 0)
(0.102037 0.00624794 0)
(0.101863 0.00614654 0)
(0.101698 0.00604242 0)
(0.101541 0.00593605 0)
(0.101392 0.00582785 0)
(0.107519 0.00683437 0)
(0.107202 0.00695461 0)
(0.106885 0.00705621 0)
(0.10657 0.00713976 0)
(0.106258 0.0072059 0)
(0.105949 0.0072553 0)
(0.105644 0.00728867 0)
(0.105344 0.00730676 0)
(0.10505 0.00731033 0)
(0.104762 0.00730019 0)
(0.104481 0.00727718 0)
(0.104207 0.00724218 0)
(0.10394 0.00719608 0)
(0.103682 0.00713979 0)
(0.103433 0.00707423 0)
(0.103192 0.0070003 0)
(0.10296 0.0069189 0)
(0.102737 0.00683086 0)
(0.102523 0.00673701 0)
(0.102318 0.00663809 0)
(0.102123 0.00653482 0)
(0.101937 0.00642784 0)
(0.10176 0.00631775 0)
(0.101591 0.00620509 0)
(0.101432 0.00609036 0)
(0.101281 0.00597399 0)
(0.107652 0.00716098 0)
(0.107315 0.00728082 0)
(0.106979 0.00738095 0)
(0.106646 0.00746206 0)
(0.106316 0.00752484 0)
(0.105991 0.00757005 0)
(0.10567 0.00759847 0)
(0.105355 0.00761089 0)
(0.105047 0.00760814 0)
(0.104746 0.0075911 0)
(0.104452 0.00756065 0)
(0.104167 0.00751773 0)
(0.10389 0.00746329 0)
(0.103622 0.00739831 0)
(0.103363 0.00732375 0)
(0.103114 0.00724061 0)
(0.102875 0.00714981 0)
(0.102646 0.00705227 0)
(0.102426 0.00694887 0)
(0.102217 0.00684041 0)
(0.102017 0.00672765 0)
(0.101827 0.00661128 0)
(0.101647 0.00649196 0)
(0.101476 0.00637024 0)
(0.101314 0.00624666 0)
(0.101161 0.00612168 0)
(0.107784 0.00750777 0)
(0.107427 0.00762669 0)
(0.107071 0.00772475 0)
(0.106719 0.00780272 0)
(0.10637 0.00786138 0)