/*--------------------------------*- C++ -*----------------------------------*\
| =========                 |                                                 |
| \\      /  F ield         | OpenFOAM: The Open Source CFD Toolbox           |
|  \\    /   O peration     | Version:  2412                                  |
|   \\  /    A nd           | Website:  www.openfoam.com                      |
|    \\/     M anipulation  |                                                 |
\*---------------------------------------------------------------------------*/
FoamFile
{
    version     2.0;
    format      ascii;
    arch        "LSB;label=32;scalar=64";
    class       surfaceScalarField;
    location    "15.5";
    object      phi;
}
// * * * * * * * * * * * * * * * * * * * * * * * * * * * * * * * * * * * * * //

dimensions      [0 3 -1 0 0 0 0];

oriented        oriented;

internalField   nonuniform List<scalar> 
10424
(
0.00538629
0.000224311
-0.00539191
-0.000218687
0.00538077
0.000225853
-0.000220333
0.00537536
0.00022722
-0.000221811
0.00537007
0.000228404
-0.000223115
0.00536491
0.000229402
-0.000224239
0.00535988
0.000230207
-0.000225177
0.00535498
0.000230816
-0.000225924
0.00535024
0.000231225
-0.000226478
0.00534564
0.000231431
-0.000226835
0.0053412
0.000231433
-0.000226993
0.00533692
0.00023123
-0.00022695
0.0053328
0.000230822
-0.000226706
0.00532885
0.00023021
-0.000226261
0.00532508
0.000229395
-0.000225616
0.00532147
0.000228379
-0.000224772
0.00531804
0.000227166
-0.000223733
0.00531478
0.000225758
-0.000222501
0.00531169
0.000224161
-0.000221079
0.00530879
0.000222379
-0.000219473
0.00530606
0.000220417
-0.000217686
0.0053035
0.00021828
-0.000215724
0.00530112
0.000215975
-0.000213591
0.0052989
0.000213508
-0.000211295
0.00529686
0.000210886
-0.000208842
0.00529498
0.000208116
-0.000206238
0.00529327
0.000205206
-0.00020349
0.00529171
0.000202166
-0.000200608
0.0052903
0.000199003
-0.000197599
0.00528905
0.000195725
-0.000194471
0.00528794
0.000192341
-0.00019123
0.00528697
0.000188857
-0.000187883
0.00528612
0.000185278
-0.000184435
0.0052854
0.00018161
-0.000180891
0.0052848
0.000177857
-0.000177255
0.00528431
0.000174024
-0.00017353
0.00528392
0.000170115
-0.000169723
0.00528362
0.000166135
-0.000165837
0.00528341
0.00016209
-0.00016188
0.00528328
0.000157988
-0.000157859
0.00528322
0.000153837
-0.00015378
0.00528323
0.000149643
-0.000149653
0.0052833
0.000145416
-0.000145487
0.00528343
0.000141164
-0.000141289
0.000136896
-0.000137069
0.00538317
0.000230049
-0.00538891
0.00537755
0.000231476
0.00537205
0.000232719
0.00536668
0.000233773
0.00536145
0.000234634
0.00535636
0.000235295
0.00535142
0.000235754
0.00534664
0.000236007
0.00534202
0.000236052
0.00533756
0.000235889
0.00533327
0.000235517
0.00532916
0.000234935
0.00532522
0.000234147
0.00532147
0.000233153
0.00531789
0.000231957
0.00531449
0.000230562
0.00531128
0.000228972
0.00530825
0.000227193
0.0053054
0.000225229
0.00530273
0.000223086
0.00530024
0.00022077
0.00529793
0.000218287
0.00529579
0.000215645
0.00529383
0.00021285
0.00529203
0.000209911
0.0052904
0.000206837
0.00528893
0.000203635
0.00528762
0.000200316
0.00528645
0.000196888
0.00528543
0.00019336
0.00528455
0.000189738
0.0052838
0.000186028
0.00528318
0.000182237
0.00528267
0.000178368
0.00528226
0.000174426
0.00528196
0.000170416
0.00528176
0.000166343
0.00528163
0.000162212
0.00528159
0.000158032
0.00528162
0.000153809
0.00528171
0.000149551
0.00528186
0.000145266
0.00528206
0.000140961
0.000136647
0.00537981
0.000235897
-0.00538566
0.00537409
0.000237197
0.0053685
0.000238305
0.00536306
0.000239217
0.00535777
0.000239928
0.00535263
0.000240434
0.00534765
0.000240732
0.00534284
0.000240818
0.0053382
0.000240692
0.00533373
0.000240353
0.00532945
0.000239801
0.00532535
0.000239037
0.00532143
0.000238063
0.0053177
0.000236883
0.00531416
0.000235498
0.00531081
0.000233914
0.00530765
0.000232135
0.00530467
0.000230166
0.00530189
0.000228014
0.00529929
0.000225685
0.00529687
0.000223184
0.00529464
0.00022052
0.00529259
0.000217698
0.00529071
0.000214728
0.005289
0.000211618
0.00528746
0.000208376
0.00528609
0.000205012
0.00528487
0.000201535
0.0052838
0.000197956
0.00528288
0.000194282
0.00528209
0.000190522
0.00528144
0.000186682
0.00528091
0.000182767
0.0052805
0.000178782
0.00528019
0.000174733
0.00527998
0.000170623
0.00527987
0.000166459
0.00527983
0.000162245
0.00527988
0.000157988
0.00527999
0.000153695
0.00528017
0.000149375
0.0052804
0.000145034
0.00528068
0.00014068
0.000136321
0.0053762
0.000241851
-0.00538215
0.00537038
0.000243011
0.00536472
0.000243972
0.0053592
0.000244729
0.00535385
0.00024528
0.00534867
0.000245619
0.00534366
0.000245743
0.00533882
0.000245652
0.00533417
0.000245343
0.00532971
0.000244818
0.00532543
0.000244076
0.00532135
0.000243119
0.00531746
0.000241951
0.00531377
0.000240575
0.00531028
0.000238993
0.00530698
0.000237212
0.00530387
0.000235237
0.00530097
0.000233073
0.00529825
0.000230728
0.00529573
0.000228206
0.0052934
0.000225517
0.00529125
0.000222666
0.00528929
0.000219662
0.00528751
0.000216513
0.00528589
0.000213228
0.00528445
0.000209817
0.00528318
0.000206288
0.00528206
0.000202654
0.00528109
0.000198922
0.00528027
0.000195103
0.00527959
0.000191205
0.00527904
0.000187234
0.00527861
0.000183197
0.00527829
0.000179098
0.00527808
0.000174942
0.00527797
0.000170735
0.00527795
0.00016648
0.00527801
0.000162184
0.00527814
0.000157853
0.00527834
0.000153494
0.00527861
0.000149113
0.00527892
0.000144718
0.00527928
0.000140317
0.000135918
0.00537231
0.000247906
-0.00537836
0.00536641
0.000248912
0.00536066
0.000249713
0.00535509
0.000250304
0.00534969
0.000250681
0.00534447
0.00025084
0.00533943
0.000250779
0.00533459
0.000250498
0.00532993
0.000249996
0.00532548
0.000249273
0.00532122
0.000248332
0.00531717
0.000247173
0.00531332
0.000245801
0.00530967
0.00024422
0.00530623
0.000242434
0.00530299
0.000240449
0.00529996
0.00023827
0.00529713
0.000235905
0.0052945
0.00023336
0.00529206
0.000230642
0.00528982
0.000227759
0.00528777
0.000224718
0.0052859
0.000221528
0.00528422
0.000218198
0.00528271
0.000214736
0.00528137
0.000211153
0.0052802
0.00020746
0.00527919
0.000203666
0.00527833
0.000199782
0.00527761
0.000195817
0.00527704
0.000191781
0.00527659
0.000187681
0.00527626
0.000183523
0.00527605
0.000179311
0.00527594
0.000175051
0.00527593
0.000170747
0.005276
0.000166405
0.00527616
0.000162029
0.00527639
0.000157626
0.00527668
0.000153202
0.00527703
0.000148764
0.00527743
0.000144319
0.00527787
0.000139873
0.000135436
0.00536813
0.000254054
-0.00537428
0.00536215
0.000254894
0.00535634
0.000255521
0.00535071
0.000255932
0.00534527
0.000256122
0.00534002
0.000256089
0.00533497
0.000255832
0.00533012
0.000255349
0.00532547
0.000254642
0.00532103
0.000253711
0.00531681
0.000252559
0.00531279
0.000251188
0.00530899
0.000249604
0.0053054
0.000247809
0.00530202
0.000245811
0.00529886
0.000243614
0.0052959
0.000241226
0.00529316
0.000238653
0.00529061
0.000235903
0.00528827
0.000232983
0.00528613
0.000229902
0.00528418
0.000226668
0.00528242
0.000223289
0.00528084
0.000219775
0.00527944
0.000216135
0.00527821
0.000212379
0.00527716
0.000208519
0.00527626
0.000204566
0.00527551
0.000200529
0.00527491
0.00019642
0.00527444
0.000192247
0.0052741
0.000188019
0.00527388
0.00018374
0.00527378
0.000179418
0.00527377
0.000175055
0.00527386
0.000170658
0.00527404
0.00016623
0.00527429
0.000161777
0.00527461
0.000157305
0.00527499
0.000152819
0.00527543
0.000148326
0.00527592
0.000143833
0.00527644
0.000139346
0.000134873
0.00536364
0.000260288
-0.00536987
0.00535758
0.000260949
0.00535172
0.000261388
0.00534604
0.000261605
0.00534057
0.000261595
0.0053353
0.000261357
0.00533025
0.00026089
0.0053254
0.000260193
0.00532077
0.000259269
0.00531637
0.000258119
0.00531218
0.000256746
0.00530821
0.000255154
0.00530447
0.000253347
0.00530095
0.000251331
0.00529764
0.000249112
0.00529456
0.000246697
0.00529169
0.000244092
0.00528904
0.000241306
0.0052866
0.000238346
0.00528436
0.000235221
0.00528232
0.000231938
0.00528048
0.000228507
0.00527884
0.000224937
0.00527737
0.000221237
0.00527609
0.000217417
0.00527498
0.000213487
0.00527404
0.000209461
0.00527326
0.000205347
0.00527263
0.000201159
0.00527215
0.000196906
0.0052718
0.000192598
0.00527157
0.000188242
0.00527147
0.000183846
0.00527147
0.000179414
0.00527157
0.000174952
0.00527177
0.000170463
0.00527204
0.000165953
0.0052724
0.000161426
0.00527281
0.000156887
0.00527329
0.000152342
0.00527382
0.000147798
0.00527439
0.00014326
0.005275
0.000138735
0.00013423
0.00535882
0.0002666
-0.00536513
0.0053527
0.000267066
0.00534679
0.000267303
0.00534108
0.000267312
0.00533559
0.000267088
0.00533031
0.000266632
0.00532526
0.000265942
0.00532043
0.00026502
0.00531583
0.000263867
0.00531147
0.000262487
0.00530733
0.000260883
0.00530342
0.000259059
0.00529975
0.000257021
0.00529631
0.000254776
0.00529309
0.000252328
0.0052901
0.000249687
0.00528733
0.00024686
0.00528478
0.000243855
0.00528245
0.000240681
0.00528032
0.000237345
0.00527841
0.000233858
0.00527669
0.000230227
0.00527516
0.000226463
0.00527382
0.000222575
0.00527266
0.000218574
0.00527168
0.000214471
0.00527086
0.000210277
0.00527021
0.000206004
0.0052697
0.000201665
0.00526934
0.00019727
0.00526911
0.000192828
0.005269
0.000188347
0.00526901
0.000183836
0.00526913
0.000179297
0.00526934
0.000174738
0.00526965
0.000170161
0.00527003
0.00016557
0.00527048
0.000160972
0.005271
0.00015637
0.00527157
0.000151769
0.00527219
0.000147177
0.00527286
0.000142598
0.00527355
0.000138038
0.000133504
0.00535366
0.00027298
-0.00536004
0.00534749
0.000273235
0.00534153
0.000273256
0.0053358
0.000273042
0.0053303
0.000272591
0.00532503
0.000271902
0.00532
0.000270977
0.0053152
0.000269816
0.00531064
0.000268424
0.00530633
0.000266802
0.00530225
0.000264956
0.00529842
0.000262891
0.00529483
0.000260613
0.00529148
0.000258129
0.00528836
0.000255447
0.00528547
0.000252574
0.00528281
0.000249518
0.00528038
0.000246289
0.00527817
0.000242895
0.00527616
0.000239346
0.00527437
0.000235651
0.00527278
0.000231818
0.00527138
0.000227859
0.00527018
0.000223782
0.00526915
0.000219599
0.0052683
0.000215322
0.00526762
0.000210961
0.00526709
0.000206531
0.00526672
0.000202041
0.00526648
0.000197505
0.00526638
0.000192932
0.00526639
0.000188329
0.00526653
0.000183704
0.00526676
0.000179063
0.00526709
0.000174409
0.0052675
0.000169746
0.00526799
0.00016508
0.00526855
0.000160413
0.00526917
0.000155751
0.00526984
0.000151099
0.00527056
0.000146462
0.00527131
0.000141845
0.00527209
0.000137253
0.000132694
0.00534812
0.000279415
-0.00535456
0.00534192
0.000279445
0.00533594
0.000279234
0.0053302
0.000278782
0.0053247
0.000278089
0.00531945
0.000277155
0.00531444
0.00027598
0.00530969
0.000274569
0.00530519
0.000272924
0.00530094
0.00027105
0.00529695
0.000268952
0.0052932
0.000266637
0.0052897
0.00026411
0.00528645
0.00026138
0.00528344
0.000258455
0.00528067
0.000255343
0.00527814
0.000252054
0.00527583
0.000248596
0.00527375
0.00024498
0.00527188
0.000241214
0.00527022
0.000237308
0.00526877
0.000233271
0.00526751
0.000229115
0.00526645
0.000224849
0.00526556
0.000220484
0.00526485
0.000216033
0.00526431
0.000211507
0.00526392
0.000206919
0.00526368
0.000202282
0.00526357
0.000197607
0.0052636
0.000192905
0.00526375
0.000188183
0.005264
0.000183448
0.00526436
0.000178706
0.00526481
0.000173961
0.00526534
0.000169218
0.00526594
0.000164478
0.0052666
0.000159748
0.00526732
0.00015503
0.00526809
0.000150329
0.00526891
0.000145651
0.00526975
0.000140999
0.00527062
0.00013638
0.000131799
0.00534221
0.000285894
-0.00534869
0.00533597
0.000285682
0.00532998
0.000285223
0.00532425
0.000284518
0.00531877
0.000283569
0.00531355
0.000282374
0.00530859
0.000280938
0.0053039
0.000279263
0.00529947
0.000277355
0.0052953
0.000275217
0.00529139
0.000272857
0.00528775
0.000270282
0.00528436
0.000267498
0.00528123
0.000264514
0.00527834
0.00026134
0.0052757
0.000257984
0.0052733
0.000254456
0.00527113
0.000250765
0.00526919
0.000246922
0.00526747
0.000242936
0.00526596
0.000238818
0.00526465
0.000234576
0.00526354
0.000230222
0.00526263
0.000225767
0.00526189
0.00022122
0.00526133
0.000216596
0.00526093
0.000211906
0.00526068
0.000207163
0.00526058
0.000202381
0.00526062
0.00019757
0.00526078
0.000192741
0.00526106
0.000187903
0.00526145
0.000183062
0.00526193
0.000178224
0.0052625
0.000173392
0.00526315
0.000168571
0.00526386
0.000163763
0.00526464
0.000158972
0.00526547
0.000154202
0.00526634
0.000149457
0.00526725
0.000144742
0.00526819
0.000140061
0.00526915
0.000135418
0.000130819
0.00533589
0.000292401
-0.0053424
0.00532964
0.00029193
0.00532366
0.000291208
0.00531794
0.000290235
0.0053125
0.000289014
0.00530732
0.000287545
0.00530243
0.000285834
0.00529781
0.000283883
0.00529347
0.000281699
0.0052894
0.000279287
0.0052856
0.000276655
0.00528207
0.000273811
0.0052788
0.000270762
0.0052758
0.000267517
0.00527305
0.000264087
0.00527056
0.000260482
0.0052683
0.00025671
0.00526628
0.000252783
0.00526449
0.000248711
0.00526293
0.000244503
0.00526158
0.000240171
0.00526043
0.000235723
0.00525948
0.000231172
0.00525872
0.000226527
0.00525814
0.0002218
0.00525773
0.000217004
0.00525749
0.000212152
0.00525739
0.000207257
0.00525744
0.000202331
0.00525762
0.000197388
0.00525793
0.000192436
0.00525835
0.000187486
0.00525887
0.000182543
0.00525948
0.000177612
0.00526017
0.000172698
0.00526094
0.000167803
0.00526177
0.000162931
0.00526266
0.000158084
0.0052636
0.000153267
0.00526457
0.000148482
0.00526558
0.000143734
0.00526661
0.000139027
0.00526767
0.000134365
0.000129752
0.00532915
0.000298921
-0.00533567
0.00532291
0.000298175
0.00531694
0.000297172
0.00531126
0.000295915
0.00530587
0.000294407
0.00530076
0.00029265
0.00529595
0.00029065
0.00529142
0.000288411
0.00528718
0.00028594
0.00528322
0.000283243
0.00527955
0.00028033
0.00527615
0.000277207
0.00527303
0.000273886
0.00527017
0.000270374
0.00526757
0.000266683
0.00526523
0.000262823
0.00526314
0.000258804
0.00526129
0.000254637
0.00525966
0.000250333
0.00525826
0.000245903
0.00525708
0.000241355
0.0052561
0.000236702
0.00525532
0.000231953
0.00525473
0.00022712
0.00525431
0.000222214
0.00525407
0.000217249
0.00525398
0.000212237
0.00525405
0.000207192
0.00525425
0.000202127
0.00525459
0.000197054
0.00525504
0.000191984
0.0052556
0.000186926
0.00525626
0.000181885
0.005257
0.000176866
0.00525783
0.000171874
0.00525872
0.00016691
0.00525967
0.000161979
0.00526067
0.000157081
0.00526172
0.000152221
0.0052628
0.000147401
0.00526391
0.000142625
0.00526504
0.000137896
0.00526618
0.000133219
0.000128597
0.00532197
0.000305436
-0.00532848
0.00531575
0.000304396
0.00530982
0.000303096
0.0053042
0.000301539
0.00529887
0.00029973
0.00529385
0.000297671
0.00528914
0.000295368
0.00528472
0.000292829
0.0052806
0.000290059
0.00527677
0.000287068
0.00527324
0.000283863
0.00526999
0.000280455
0.00526703
0.000276853
0.00526433
0.000273068
0.0052619
0.000269111
0.00525973
0.000264992
0.00525781
0.000260723
0.00525614
0.000256314
0.00525469
0.000251777
0.00525347
0.000247122
0.00525247
0.00024236
0.00525167
0.000237501
0.00525107
0.000232556
0.00525065
0.000227536
0.00525041
0.000222454
0.00525034
0.000217322
0.00525042
0.000212153
0.00525065
0.000206962
0.00525102
0.000201762
0.00525151
0.000196564
0.00525211
0.00019138
0.00525282
0.000186218
0.00525362
0.000181084
0.0052545
0.000175982
0.00525546
0.000170917
0.00525648
0.00016589
0.00525755
0.000160904
0.00525867
0.000155961
0.00525983
0.000151063
0.00526102
0.000146212
0.00526223
0.000141413
0.00526346
0.000136668
0.0052647
0.00013198
0.000127353
0.00531433
0.000311926
-0.00532082
0.00530815
0.000310576
0.00530228
0.000308961
0.00529673
0.000307088
0.0052915
0.000304962
0.00528659
0.000302586
0.00528199
0.000299968
0.0052777
0.000297116
0.00527372
0.000294037
0.00527005
0.000290741
0.00526667
0.000287237
0.00526359
0.000283536
0.0052608
0.000279648
0.00525828
0.000275584
0.00525604
0.000271356
0.00525406
0.000266975
0.00525233
0.000262453
0.00525084
0.0002578
0.00524959
0.000253029
0.00524856
0.00024815
0.00524775
0.000243173
0.00524714
0.00023811
0.00524672
0.000232971
0.00524649
0.000227767
0.00524644
0.000222511
0.00524654
0.000217215
0.0052468
0.000211894
0.0052472
0.000206561
0.00524774
0.000201229
0.00524839
0.000195911
0.00524915
0.000190618
0.00525001
0.000185357
0.00525096
0.000180135
0.00525199
0.000174957
0.00525308
0.000169824
0.00525423
0.000164739
0.00525543
0.000159704
0.00525667
0.00015472
0.00525794
0.00014979
0.00525924
0.000144915
0.00526056
0.000140097
0.00526188
0.000135341
0.00526322
0.000130647
0.00012602
0.00530621
0.000318371
-0.00531265
0.00530009
0.000316691
0.00529431
0.000314744
0.00528886
0.000312539
0.00528374
0.00031008
0.00527895
0.000307374
0.00527449
0.000304428
0.00527036
0.000301252
0.00526654
0.000297853
0.00526304
0.000294243
0.00525984
0.000290432
0.00525695
0.00028643
0.00525435
0.00028225
0.00525203
0.000277902
0.00524998
0.0002734
0.00524821
0.000268754
0.00524668
0.000263977
0.0052454
0.000259081
0.00524435
0.000254076
0.00524353
0.000248973
0.00524292
0.000243784
0.00524251
0.000238518
0.0052423
0.000233187
0.00524226
0.000227803
0.00524239
0.000222376
0.00524269
0.000216921
0.00524313
0.000211451
0.00524371
0.000205981
0.00524442
0.000200523
0.00524524
0.00019509
0.00524616
0.000189693
0.00524718
0.000184339
0.00524828
0.000179036
0.00524945
0.000173785
0.00525069
0.000168591
0.00525197
0.000163454
0.0052533
0.000158376
0.00525466
0.000153358
0.00525605
0.000148401
0.00525746
0.000143506
0.00525888
0.000138676
0.00526031
0.000133913
0.00526174
0.000129219
0.000124596
0.00529759
0.000324746
-0.00530397
0.00529157
0.000322717
0.00528589
0.000320422
0.00528056
0.000317868
0.00527558
0.000315062
0.00527094
0.000312011
0.00526664
0.000308725
0.00526268
0.000305213
0.00525905
0.000301485
0.00525574
0.000297552
0.00525275
0.000293426
0.00525006
0.000289118
0.00524767
0.00028464
0.00524557
0.000280006
0.00524374
0.000275226
0.00524218
0.000270314
0.00524087
0.000265282
0.00523981
0.000260141
0.00523899
0.000254903
0.00523838
0.000249579
0.00523799
0.000244179
0.00523779
0.000238714
0.00523778
0.000233195
0.00523795
0.000227633
0.00523829
0.000222041
0.00523878
0.000216431
0.00523941
0.000210818
0.00524018
0.000205215
0.00524106
0.000199636
0.00524206
0.000194094
0.00524315
0.000188599
0.00524433
0.000183159
0.00524559
0.00017778
0.00524691
0.000172465
0.00524828
0.000167215
0.00524971
0.000162033
0.00525116
0.000156918
0.00525265
0.000151871
0.00525416
0.000146893
0.00525568
0.000141985
0.00525721
0.000137148
0.00525874
0.000132384
0.00526026
0.000127694
0.000123081
0.00528846
0.000331025
-0.00529474
0.00528255
0.00032863
0.00527701
0.000325968
0.00527182
0.000323049
0.00526701
0.000319881
0.00526254
0.000316473
0.00525844
0.000312834
0.00525467
0.000308976
0.00525125
0.000304909
0.00524816
0.000300646
0.00524538
0.000296198
0.00524292
0.000291578
0.00524076
0.0002868
0.00523889
0.000281875
0.0052373
0.000276817
0.00523598
0.000271638
0.00523491
0.000266351
0.00523409
0.000260967
0.00523349
0.000255498
0.00523312
0.000249954
0.00523295
0.000244347
0.00523298
0.000238687
0.00523319
0.000232984
0.00523357
0.000227249
0.00523412
0.000221496
0.00523481
0.000215737
0.00523564
0.000209986
0.0052366
0.000204257
0.00523767
0.000198564
0.00523885
0.000192919
0.00524012
0.000187333
0.00524146
0.000181813
0.00524288
0.000176364
0.00524435
0.000170991
0.00524587
0.000165693
0.00524744
0.000160471
0.00524903
0.000155326
0.00525064
0.000150258
0.00525227
0.000145265
0.0052539
0.00014035
0.00525554
0.000135512
0.00525717
0.000130752
0.00525879
0.000126073
0.000121474
0.0052788
0.00033718
-0.00528496
0.00527303
0.000334399
0.00526765
0.000331354
0.00526264
0.000328054
0.00525801
0.00032451
0.00525376
0.000320731
0.00524986
0.000316728
0.00524632
0.000312514
0.00524313
0.0003081
0.00524028
0.000303499
0.00523775
0.000298725
0.00523554
0.000293789
0.00523363
0.000288707
0.00523202
0.00028349
0.00523068
0.000278153
0.00522961
0.000272707
0.0052288
0.000267166
0.00522822
0.000261542
0.00522787
0.000255844
0.00522774
0.000250086
0.00522781
0.000244276
0.00522808
0.000238424
0.00522852
0.000232543
0.00522913
0.000226641
0.00522989
0.000220733
0.0052308
0.00021483
0.00523183
0.000208948
0.00523299
0.000203099
0.00523426
0.000197298
0.00523562
0.000191558
0.00523706
0.000185887
0.00523858
0.000180295
0.00524016
0.000174785
0.00524179
0.00016936
0.00524346
0.000164021
0.00524517
0.000158768
0.00524689
0.0001536
0.00524863
0.000148516
0.00525038
0.000143516
0.00525213
0.000138599
0.00525388
0.000133766
0.00525561
0.000129018
0.00525733
0.000124354
0.000119776
0.00526859
-0.00527459
0.005263
0.0052578
0.005253
0.0052486
0.00524457
0.00524092
0.00523763
0.0052347
0.00523211
0.00522985
0.00522791
0.00522628
0.00522494
0.00522388
0.00522308
0.00522253
0.00522222
0.00522214
0.00522226
0.00522259
0.0052231
0.00522378
0.00522462
0.00522561
0.00522674
0.00522799
0.00522935
0.00523081
0.00523237
0.00523399
0.00523569
0.00523743
0.00523922
0.00524105
0.0052429
0.00524476
0.00524663
0.00524851
0.00525037
0.00525223
0.00525407
0.00525588
0.00560583
0.000237823
-0.000228155
0.00559607
0.000242883
-0.000233125
0.00558625
0.000247335
-0.000237515
0.0055764
0.000251197
-0.000241343
0.00556654
0.000254491
-0.000244629
0.00555669
0.000257244
-0.000247399
0.00554689
0.000259483
-0.000249681
0.00553715
0.000261238
-0.000251503
0.00552751
0.00026254
-0.000252895
0.00551798
0.000263419
-0.000253886
0.00550858
0.000263904
-0.000254503
0.00549933
0.000264024
-0.000254775
0.00549025
0.000263807
-0.000254726
0.00548135
0.000263276
-0.000254378
0.00547265
0.000262455
-0.000253753
0.00546415
0.000261364
-0.000252869
0.00545587
0.000260022
-0.000251744
0.00544782
0.000258446
-0.000250392
0.00544
0.000256651
-0.000248828
0.00543241
0.000254653
-0.000247065
0.00542506
0.000252465
-0.000245115
0.00541795
0.0002501
-0.00024299
0.00541108
0.00024757
-0.000240701
0.00540445
0.000244888
-0.000238259
0.00539806
0.000242066
-0.000235677
0.000239115
-0.000232964
0.00561115
0.000247971
0.00560092
0.000253117
0.00559063
0.000257626
0.00558031
0.000261517
0.00556999
0.000264813
0.00555969
0.000267541
0.00554944
0.000269729
0.00553927
0.000271407
0.00552921
0.000272608
0.00551926
0.000273363
0.00550946
0.000273703
0.00549983
0.000273658
0.00549038
0.000273257
0.00548113
0.000272526
0.00547209
0.000271491
0.00546328
0.000270174
0.00545471
0.000268597
0.00544638
0.000266777
0.00543829
0.000264733
0.00543047
0.000262482
0.00542289
0.000260037
0.00541558
0.000257413
0.00540853
0.000254624
0.00540173
0.000251684
0.00539519
0.000248605
0.0002454
0.00561656
0.000258635
0.00560581
0.000263861
0.00559502
0.00026842
0.0055842
0.000272333
0.00557339
0.000275623
0.00556261
0.000278316
0.0055519
0.000280443
0.00554127
0.000282034
0.00553076
0.000283121
0.00552039
0.000283738
0.00551017
0.000283917
0.00550014
0.00028369
0.00549031
0.000283088
0.00548069
0.000282139
0.00547132
0.000280871
0.00546218
0.000279309
0.0054533
0.000277475
0.00544469
0.000275392
0.00543634
0.000273078
0.00542827
0.000270552
0.00542048
0.00026783
0.00541296
0.000264929
0.00540572
0.000261862
0.00539876
0.000258645
0.00539208
0.000255293
0.000251817
0.00562204
0.000269857
0.00561074
0.000275155
0.00559941
0.000279756
0.00558806
0.000283681
0.00557673
0.000286954
0.00556544
0.000289601
0.00555423
0.000291654
0.00554313
0.000293142
0.00553215
0.000294101
0.00552132
0.000294563
0.00551067
0.000294564
0.00550023
0.000294136
0.00549
0.000293313
0.00548002
0.000292125
0.00547028
0.000290603
0.00546082
0.000288774
0.00545163
0.000286663
0.00544273
0.000284294
0.00543412
0.000281688
0.00542581
0.000278866
0.00541779
0.000275847
0.00541007
0.000272646
0.00540265
0.000269282
0.00539553
0.00026577
0.00538869
0.000262125
0.000258361
0.00562759
0.00028168
0.0056157
0.000287042
0.00560378
0.000291674
0.00559186
0.000295599
0.00557998
0.000298841
0.00556815
0.000301427
0.00555641
0.000303389
0.0055448
0.000304758
0.00553333
0.00030557
0.00552204
0.000305858
0.00551094
0.00030566
0.00550006
0.00030501
0.00548943
0.000303944
0.00547906
0.000302495
0.00546897
0.000300696
0.00545917
0.000298576
0.00544967
0.000296164
0.00544048
0.000293486
0.0054316
0.000290565
0.00542304
0.000287425
0.0054148
0.000284085
0.00540688
0.000280564
0.00539929
0.000276882
0.005392
0.000273054
0.00538503
0.000269098
0.000265027
0.00563319
0.000294154
0.00562066
0.000299568
0.00560812
0.000304218
0.00559559
0.000308127
0.00558311
0.000311321
0.00557071
0.000313828
0.00555842
0.00031568
0.00554626
0.000316909
0.00553428
0.000317552
0.0055225
0.000317644
0.00551093
0.000317223
0.00549962
0.000316327
0.00548857
0.000314993
0.0054778
0.000313258
0.00546734
0.000311156
0.0054572
0.00030872
0.00544738
0.000305982
0.0054379
0.000302969
0.00542875
0.000299709
0.00541995
0.000296226
0.00541149
0.000292542
0.00540338
0.000288679
0.0053956
0.000284657
0.00538817
0.000280493
0.00538106
0.000276205
0.000271809
0.00563883
0.000307332
0.00562561
0.000312783
0.00561239
0.000317434
0.00559921
0.000321309
0.0055861
0.000324435
0.00557309
0.000326841
0.00556021
0.00032856
0.00554749
0.000329624
0.00553497
0.000330072
0.00552267
0.000329942
0.00551062
0.000329272
0.00549885
0.000328102
0.00548737
0.000326473
0.0054762
0.000324423
0.00546537
0.000321991
0.00545488
0.000319212
0.00544474
0.000316119
0.00543496
0.000312746
0.00542555
0.00030912
0.00541651
0.000305268
0.00540784
0.000301216
0.00539953
0.000296987
0.00539159
0.000292601
0.005384
0.00028808
0.00537676
0.00028344
0.0002787
0.00564449
0.000321269
0.00563053
0.00032674
0.00561659
0.000331373
0.00560271
0.000335192
0.00558892
0.000338225
0.00557526
0.000340504
0.00556175
0.000342062
0.00554845
0.000342933
0.00553536
0.000343158
0.00552253
0.000342774
0.00550998
0.000341824
0.00549773
0.00034035
0.00548581
0.000338395
0.00547423
0.000336
0.00546301
0.000333206
0.00545217
0.000330054
0.00544171
0.000326578
0.00543165
0.000322814
0.00542197
0.000318794
0.00541269
0.000314548
0.00540381
0.000310101
0.00539531
0.000305481
0.0053872
0.000300709
0.00537948
0.000295807
0.00537212
0.000290795
0.000285691
0.00565016
0.000336024
0.0056354
0.000341496
0.00562069
0.000346086
0.00560606
0.000349823
0.00559155
0.000352736
0.00557719
0.000354857
0.00556303
0.000356222
0.0055491
0.000356868
0.00553542
0.000356834
0.00552203
0.000356163
0.00550896
0.000354899
0.00549622
0.000353086
0.00548385
0.00035077
0.00547185
0.000347996
0.00546025
0.000344808
0.00544905
0.000341249
0.00543827
0.000337358
0.00542791
0.000333174
0.00541798
0.00032873
0.00540847
0.00032406
0.00539937
0.000319192
0.0053907
0.000314154
0.00538244
0.000308971
0.00537458
0.000303666
0.00536711
0.000298259
0.000292771
0.00565581
0.00035166
0.0056402
0.000357109
0.00562465
0.00036163
0.00560922
0.000365254
0.00559394
0.000368013
0.00557886
0.000369942
0.005564
0.000371078
0.00554941
0.00037146
0.00553512
0.00037113
0.00552115
0.000370133
0.00550753
0.000368515
0.00549429
0.000366324
0.00548145
0.00036361
0.00546903
0.000360419
0.00545704
0.000356801
0.00544548
0.0003528
0.00543438
0.00034846
0.00542373
0.000343822
0.00541354
0.000338923
0.0054038
0.000333799
0.00539451
0.000328481
0.00538567
0.000322999
0.00537726
0.000317379
0.00536928
0.000311646
0.00536172
0.000305823
0.000299928
0.00566142
0.000368243
0.00564489
0.000373641
0.00562846
0.000378062
0.00561218
0.000381539
0.00559608
0.000384106
0.00558022
0.000385802
0.00556463
0.000386667
0.00554935
0.000386742
0.00553441
0.000386073
0.00551984
0.000384706
0.00550566
0.000382692
0.0054919
0.000380081
0.00547859
0.000376925
0.00546573
0.000373278
0.00545334
0.000369189
0.00544143
0.000364708
0.00543001
0.000359882
0.00541908
0.000354754
0.00540863
0.000349367
0.00539868
0.000343757
0.0053892
0.000337959
0.00538019
0.000332004
0.00537165
0.000325921
0.00536356
0.000319736
0.00535591
0.000313472
0.000307151
0.00566698
0.000385841
0.00564946
0.000391157
0.00563208
0.000395441
0.00561489
0.000398731
0.00559793
0.000401064
0.00558125
0.000402483
0.00556489
0.000403029
0.00554888
0.00040275
0.00553326
0.000401692
0.00551806
0.000399907
0.0055033
0.000397448
0.00548901
0.000394369
0.00547521
0.000390727
0.00546191
0.000386577
0.00544913
0.000381975
0.00543686
0.000376972
0.00542512
0.000371621
0.00541391
0.000365967
0.00540322
0.000360055
0.00539305
0.000353926
0.0053834
0.000347616
0.00537424
0.000341159
0.00536558
0.000334585
0.00535739
0.000327922
0.00534967
0.000321194
0.000314423
0.00567243
0.000404526
0.00565386
0.000409724
0.00563547
0.000413831
0.00561732
0.000416888
0.00559944
0.000418939
0.0055819
0.000420029
0.00556472
0.000420205
0.00554795
0.000419517
0.00553163
0.000418017
0.00551578
0.00041576
0.00550042
0.000412803
0.00548559
0.000409205
0.00547129
0.000405025
0.00545754
0.000400324
0.00544435
0.000395161
0.00543173
0.000389593
0.00541968
0.000383673
0.0054082
0.000377453
0.00539727
0.000370979
0.0053869
0.000364295
0.00537708
0.00035744
0.00536779
0.000350449
0.00535902
0.000343356
0.00535075
0.000336188
0.00534298
0.000328971
0.000321729
0.00567776
0.000424375
0.00565807
0.000429414
0.0056386
0.000433296
0.00561942
0.00043607
0.00560058
0.000437783
0.00558212
0.000438488
0.00556409
0.000438234
0.00554653
0.000437079
0.00552947
0.000435077
0.00551294
0.000432288
0.00549697
0.000428775
0.00548157
0.0004246
0.00546677
0.000419828
0.00545257
0.000414523
0.00543898
0.000408749
0.00542601
0.000402566
0.00541365
0.000396033
0.0054019
0.000389203
0.00539075
0.000382127
0.0053802
0.000374851
0.00537022
0.000367416
0.00536081
0.00035986
0.00535195
0.000352217
0.00534362
0.000344516
0.0053358
0.000336786
0.00032905
0.00568292
0.000445467
0.00566203
0.000450299
0.00564142
0.000453904
0.00562116
0.000456337
0.00560129
0.000457653
0.00558187
0.000457907
0.00556294
0.00045716
0.00554455
0.00045547
0.00552673
0.0004529
0.0055095
0.000449514
0.0054929
0.000445381
0.00547693
0.000440567
0.00546161
0.000435143
0.00544696
0.000429177
0.00543297
0.000422737
0.00541965
0.000415888
0.00540699
0.000408693
0.00539499
0.000401208
0.00538362
0.000393488
0.0053729
0.00038558
0.00536278
0.000377528
0.00535327