/*--------------------------------*- C++ -*----------------------------------*\
| =========                 |                                                 |
| \\      /  F ield         | OpenFOAM: The Open Source CFD Toolbox           |
|  \\    /   O peration     | Version:  2412                                  |
|   \\  /    A nd           | Website:  www.openfoam.com                      |
|    \\/     M anipulation  |                                                 |
\*---------------------------------------------------------------------------*/
FoamFile
{
    version     2.0;
    format      ascii;
    arch        "LSB;label=32;scalar=64";
    class       surfaceScalarField;
    location    "11.5";
    object      phi;
}
// * * * * * * * * * * * * * * * * * * * * * * * * * * * * * * * * * * * * * //

dimensions      [0 3 -1 0 0 0 0];

oriented        oriented;

internalField   nonuniform List<scalar> 
10387
(
0.00472157
1.28575e-05
-1.76979e-09
0.00470718
1.43951e-05
-1.79013e-09
0.00469111
1.60721e-05
-1.79803e-09
0.0046732
1.79114e-05
-1.79209e-09
0.00465326
1.99397e-05
-1.77423e-09
0.00463107
2.21875e-05
-1.74381e-09
0.00460639
2.46896e-05
-1.69868e-09
0.0045789
2.74852e-05
-1.64182e-09
0.00454829
3.06186e-05
-1.57712e-09
0.00451415
3.41398e-05
-1.50779e-09
0.00447604
3.81066e-05
-1.43588e-09
0.00443346
4.25857e-05
-1.36261e-09
0.0043858
4.7656e-05
-1.28869e-09
0.00433239
5.34117e-05
-1.21399e-09
0.00427243
5.99666e-05
-1.13722e-09
0.00420497
6.746e-05
-1.0564e-09
0.00412891
7.60632e-05
-9.70313e-10
0.00404292
8.5988e-05
-8.78717e-10
0.00394542
9.74963e-05
-7.81298e-10
0.00383451
0.000110911
-6.78312e-10
0.00370789
0.000126623
-5.72123e-10
0.00356279
0.000145098
-4.6668e-10
0.00339593
0.000166858
-3.66417e-10
0.00320349
0.000192447
-2.77208e-10
0.00298116
0.000222328
-2.05529e-10
0.00272446
0.000256701
-1.57475e-10
0.00242928
0.000295183
-1.38685e-10
0.00209299
0.000336282
-1.525e-10
0.00171638
0.00037662
-1.99596e-10
0.00130656
0.000409818
-2.74482e-10
0.000881469
0.000425088
-3.6151e-10
0.000476011
0.000405459
-4.3323e-10
0.00015091
0.000325102
-4.38445e-10
0.00015091
-2.72459e-10
0.00469904
2.7055e-05
0.0046833
3.01328e-05
0.00466588
3.34905e-05
0.00464662
3.71739e-05
0.00462533
4.12363e-05
0.00460177
4.57389e-05
0.00457571
5.07511e-05
0.00454685
5.63511e-05
0.00451484
6.26273e-05
0.0044793
6.968e-05
0.00443978
7.76241e-05
0.00439577
8.65933e-05
0.00434668
9.67451e-05
0.00429183
0.000108267
0.00423041
0.000121387
0.00416149
0.000136382
0.00408396
0.000153592
0.00399651
0.000173439
0.00389756
0.00019644
0.00378524
0.000223233
0.00365728
0.00025459
0.00351095
0.00029142
0.00334306
0.000334747
0.00314989
0.000385618
0.00292731
0.000444913
0.00267104
0.000512971
0.00237727
0.000588952
0.00204374
0.000669812
0.00167159
0.000748771
0.00126827
0.000813135
0.000851883
0.000841474
0.000456987
0.000800355
0.000142126
0.000639963
0.000293036
0.00465431
4.39129e-05
0.00463591
4.85349e-05
0.00461582
5.35796e-05
0.00459388
5.91155e-05
0.0045699
6.52225e-05
0.00454364
7.19923e-05
0.00451486
7.95287e-05
0.00448327
8.7949e-05
0.00444851
9.73852e-05
0.0044102
0.000107988
0.0043679
0.000119928
0.00432108
0.000133408
0.00426917
0.000148661
0.00421146
0.00016597
0.00414718
0.000185673
0.00407538
0.000208182
0.00399497
0.000234005
0.00390464
0.000263763
0.00380286
0.000298222
0.00368777
0.000338317
0.00355719
0.000385175
0.00340849
0.000440115
0.00323864
0.000504603
0.00304414
0.000580117
0.0028212
0.000667853
0.00256601
0.000768164
0.00227534
0.000879619
0.00194764
0.000997508
0.00158478
0.00111163
0.00119473
0.00120319
0.000795666
0.00124054
0.000421683
0.00117434
0.000128653
0.000932992
0.000421689
0.00458806
6.47033e-05
0.00456572
7.08736e-05
0.00454168
7.76119e-05
0.00451579
8.50098e-05
0.00448784
9.31737e-05
0.00445761
0.000102226
0.00442483
0.000112304
0.00438922
0.000123563
0.00435042
0.000136181
0.00430805
0.000150356
0.00426166
0.000166317
0.00421074
0.000184332
0.00415469
0.000204711
0.00409283
0.00022783
0.00402437
0.000254136
0.00394837
0.000284175
0.00386377
0.000318611
0.00376927
0.000358259
0.00366338
0.000404114
0.00354431
0.000457384
0.00340998
0.000519511
0.00325793
0.000592165
0.00308536
0.000677172
0.00288916
0.000776319
0.00266605
0.00089096
0.00241294
0.00102127
0.00212752
0.00116503
0.00180931
0.00131572
0.00146119
0.00145975
0.00109174
0.00157264
0.00071869
0.00161359
0.000374276
0.00151875
0.000109462
0.00119781
0.000531151
0.00450123
9.06331e-05
0.00447375
9.83529e-05
0.00444457
0.000106789
0.00441353
0.000116057
0.00438041
0.000126289
0.004345
0.000137637
0.00430703
0.000150273
0.0042662
0.000164392
0.00422217
0.000180212
0.00417455
0.000197982
0.00412287
0.000217988
0.00406664
0.000240562
0.00400526
0.000266093
0.00393805
0.000295043
0.00386421
0.00032797
0.00378284
0.000365545
0.00369287
0.000408583
0.00359306
0.000458076
0.00348194
0.000515226
0.00335785
0.000581476
0.00321883
0.000658527
0.00306269
0.000748315
0.00288696
0.000852898
0.00268907
0.000974209
0.0024665
0.00111353
0.00221717
0.0012706
0.00194008
0.00144213
0.0016362
0.0016196
0.00130977
0.00178619
0.000969949
0.00191246
0.000633191
0.00195035
0.000326691
0.00182525
9.05637e-05
0.00143393
0.000621715
0.00439511
0.000122827
0.00436137
0.000132094
0.00432593
0.000142229
0.00428861
0.000153371
0.00424922
0.000165679
0.00420753
0.000179335
0.00416325
0.000194544
0.00411611
0.00021154
0.00406574
0.000230583
0.00401175
0.000251972
0.00395369
0.000276048
0.00389104
0.000303208
0.00382322
0.000333917
0.00374953
0.000368727
0.00366921
0.000408297
0.00358133
0.00045342
0.00348486
0.000505051
0.0033786
0.000564338
0.00326117
0.000632659
0.003131
0.00071164
0.00298638
0.000803155
0.00282542
0.000909274
0.00264621
0.0010321
0.00244697
0.00117345
0.00222633
0.00133418
0.00198376
0.00151316
0.00172025
0.00170564
0.00143904
0.00190081
0.00114639
0.00207884
0.000852367
0.00220648
0.000571121
0.00223159
0.000319494
0.00207688
0.000110441
0.00164299
0.000732156
0.00427153
0.000162265
0.00423056
0.000173062
0.00418791
0.000184882
0.0041434
0.000197887
0.00409681
0.000212262
0.00404793
0.000228219
0.00399648
0.000245997
0.00394215
0.000265866
0.0038846
0.000288131
0.00382344
0.000313137
0.0037582
0.000341283
0.00368838
0.000373027
0.00361339
0.000408912
0.00353254
0.000449575
0.00344506
0.000495776
0.00335006
0.000548424
0.00324651
0.000608601
0.00313325
0.000677599
0.00300897
0.000756936
0.00287224
0.000848366
0.00272155
0.000953851
0.00255537
0.00107545
0.00237238
0.00121509
0.00217171
0.00137412
0.00195338
0.00155251
0.00171889
0.00174766
0.00147192
0.0019526
0.00121913
0.00215361
0.000970639
0.00232732
0.000739692
0.00243743
0.000539929
0.00243136
0.000376138
0.00224067
0.00022789
0.00179124
0.000960046
-2.94342e-05
2.94319e-05
2.24612e-09
-7.51221e-05
4.56824e-05
5.55418e-09
-0.000111767
3.66373e-05
7.68654e-09
-0.000125085
1.33089e-05
8.81881e-09
-0.000108564
-1.65301e-05
9.03341e-09
-5.98911e-05
-4.86814e-05
8.82528e-09
2.06458e-05
-8.05453e-05
8.33634e-09
0.000130812
-0.000110174
7.67062e-09
0.000267389
-0.000136583
6.89884e-09
0.000426569
-0.000159187
6.07206e-09
0.000604296
-0.000177731
5.21097e-09
0.000796494
-0.000192203
4.32643e-09
0.000999238
-0.000202748
3.42222e-09
0.00120886
-0.00020962
2.50346e-09
0.001422
-0.000213147
1.57968e-09
0.00163569
-0.000213693
6.62956e-10
0.00184734
-0.000211647
-2.24216e-10
0.00205474
-0.000207395
-1.04133e-09
0.00225606
-0.000201317
-1.73989e-09
0.00244983
-0.00019377
-2.26219e-09
0.00263492
-0.000185088
-2.42817e-09
-0.000175573
-2.31571e-09
-2.5787e-05
5.52189e-05
-6.40707e-05
8.39661e-05
-9.28378e-05
6.54044e-05
-9.91183e-05
1.95893e-05
-7.74886e-05
-3.81598e-05
-2.53564e-05
-0.000100814
5.67122e-05
-0.000162614
0.000166871
-0.000220333
0.000302166
-0.000271879
0.000459049
-0.000316069
0.000633717
-0.000352399
0.000822331
-0.000380818
0.00102117
-0.000401585
0.00122673
-0.000415178
0.0014358
-0.000422217
0.00164551
-0.000423407
0.00185336
-0.000419495
0.0020572
-0.000411235
0.00225525
-0.000399365
0.00244606
-0.000384586
0.00262853
-0.000367551
-0.000348856
-1.87899e-05
7.40089e-05
-4.26499e-05
0.000107826
-5.69987e-05
7.97532e-05
-4.97659e-05
1.23565e-05
-1.85301e-05
-6.93956e-05
3.90847e-05
-0.000158428
0.000123473
-0.000247002
0.000233084
-0.000329944
0.000365415
-0.000404209
0.000517454
-0.000468109
0.000685913
-0.000520857
0.000867402
-0.000562307
0.00105859
-0.000592769
0.00125628
-0.000612875
0.00145754
-0.000623476
0.00165969
-0.000625558
0.00186038
-0.000620179
0.00205756
-0.000608418
0.00224953
-0.000591336
0.00243489
-0.000569947
0.00261254
-0.000545201
-0.000517969
-5.45761e-06
7.94665e-05
-1.05068e-05
0.000112875
-3.25094e-06
7.24973e-05
1.87988e-05
-9.69323e-06
6.07434e-05
-0.00011134
0.000125111
-0.000222796
0.000211536
-0.000333427
0.000319068
-0.000437475
0.000446055
-0.000531196
0.000590302
-0.000612355
0.000749257
-0.000679813
0.000920178
-0.000733229
0.00110027
-0.000772857
0.00128677
-0.000799382
0.00147709
-0.000813789
0.00166879
-0.000817263
0.00185971
-0.0008111
0.00204794
-0.000796642
0.00223183
-0.000775227
0.00241003
-0.000748146
0.00258144
-0.000716617
-0.000681761
9.25991e-06
7.02066e-05
2.7075e-05
9.50603e-05
5.68563e-05
4.2716e-05
9.77617e-05
-5.05987e-05
0.000153301
-0.00016688
0.000223811
-0.000293306
0.000310299
-0.000419915
0.000412983
-0.00054016
0.000531367
-0.00064958
0.000664333
-0.000745322
0.000810281
-0.000825761
0.000967267
-0.000890214
0.00113314
-0.000938727
0.00130565
-0.000971892
0.00148256
-0.000990702
0.00166173
-0.000996431
0.00184115
-0.000990524
0.00201903
-0.000974517
0.00219377
-0.000949967
0.00236402
-0.0009184
0.00252867
-0.000881269
0.00268684
-0.000839927
-0.000795604
2.80334e-05
4.21731e-05
7.4647e-05
4.84466e-05
0.000130358
-1.29952e-05
0.000189322
-0.000109563
0.00025485
-0.000232407
0.000327907
-0.000366364
0.000410427
-0.000502435
0.000503969
-0.000633702
0.000609421
-0.000755032
0.000726949
-0.00086285
0.000856059
-0.000954871
0.000995715
-0.00102987
0.00114447
-0.00108748
0.00130062
-0.00112803
0.00146228
-0.00115237
0.00162755
-0.00116171
0.00179457
-0.00115755
0.00196159
-0.00114153
0.00212701
-0.00111539
0.00228944
-0.00108083
0.00244768
-0.00103951
0.00260077
-0.000993009
-0.000942758
5.37608e-05
-1.15877e-05
0.000133332
-3.11248e-05
0.000209573
-8.92357e-05
0.000283447
-0.000183437
0.000353673
-0.000302633
0.000423431
-0.000436122
0.000496338
-0.000575341
0.000575638
-0.000713003
0.00066377
-0.000843163
0.000762229
-0.000961309
0.00087162
-0.00106426
0.00099177
-0.00115002
0.00112189
-0.0012176
0.00126071
-0.00126686
0.00140668
-0.00129833
0.00155805
-0.00131307
0.00171301
-0.00131251
0.00186981
-0.00129833
0.00202677
-0.00127235
0.0021824
-0.00123646
0.00233539
-0.0011925
0.00248463
-0.00114225
-0.00108734
0.000226062
-0.000207227
-3.04227e-05
0.000431475
-0.000236538
0.000636197
-0.000293957
0.000837104
-0.000384343
0.0010324
-0.000497925
0.00122123
-0.000624957
0.00140339
-0.000757498
0.00157911
-0.000888724
0.00174887
-0.00101292
0.00191317
-0.00112561
0.00207246
-0.00122356
0.00222707
-0.00130463
0.00237716
-0.00136769
0.00252279
-0.00141249
0.00266389
-0.00143944
0.00280035
-0.00144953
0.00293198
-0.00144414
0.00305861
-0.00142496
0.00318006
-0.00139381
0.00329622
-0.00135262
0.00340698
-0.00130326
0.00351231
-0.00124757
0.00361221
-0.00118724
0.000637854
-0.000407441
-0.000437639
0.000847074
-0.000445758
0.00105549
-0.000502376
0.00125739
-0.000586243
0.00145091
-0.000691442
0.00163542
-0.000809469
0.0018109
-0.000932981
0.00197775
-0.00105557
0.00213656
-0.00117173
0.00228803
-0.00127708
0.00243279
-0.00136832
0.00257142
-0.00144325
0.00270436
-0.00150063
0.00283195
-0.00154008
0.00295442
-0.00156191
0.00307192
-0.00156703
0.00318456
-0.00155678
0.0032924
-0.00153279
0.00339548
-0.00149689
0.00349385
-0.00145099
0.00358757
-0.00139698
0.00367671
-0.00133671
-0.00127189
0.00125107
-0.000571045
-0.00108747
0.00142741
-0.000622095
0.00160983
-0.000684795
0.0017905
-0.000766914
0.00196524
-0.000866189
0.00213208
-0.000976309
0.00229014
-0.00109104
0.00243925
-0.00120467
0.00257968
-0.00131217
0.00271196
-0.00140936
0.00283669
-0.00149306
0.00295453
-0.00156109
0.00306605
-0.00161216
0.00317179
-0.00164582
0.00327222
-0.00166233
0.00336772
-0.00166253
0.00345861
-0.00164767
0.00354519
-0.00161936
0.00362767
-0.00157938
0.00370628
-0.0015296
0.00378119
-0.0014719
0.00385258
-0.0014081
-0.00133991
0.00199544
-0.000684639
-0.00188185
0.00212441
-0.000751064
0.00226492
-0.000825307
0.00240928
-0.000911273
0.00255198
-0.00100888
0.00268974
-0.00111407
0.00282067
-0.00122198
0.00294385
-0.00132785
0.003059
-0.00142731
0.00316628
-0.00151664
0.00326612
-0.0015929
0.0033591
-0.00165406
0.00344582
-0.00169888
0.00352692
-0.00172692
0.003603
-0.00173841
0.00367459
-0.00173412
0.0037422
-0.00171528
0.00380624
-0.00168341
0.00386711
-0.00164024
0.00392511
-0.0015876
0.00398054
-0.00152732
0.00403362
-0.00146118
-0.00139085
0.00280507
-0.00074609
-0.00274362
0.00288326
-0.000829253
0.00297597
-0.000918012
0.00307668
-0.00101199
0.00317968
-0.00111188
0.00328106
-0.00121545
0.00337824
-0.00131916
0.00346965
-0.00141926
0.0035545
-0.00151217
0.0036326
-0.00159473
0.0037041
-0.00166441
0.00376946
-0.00171942
0.00382924
-0.00175866
0.00388407
-0.00178176
0.00393462
-0.00178896
0.00398151
-0.00178101
0.00402532
-0.00175909
0.00406658
-0.00172467
0.00410575
-0.00167941
0.00414322
-0.00162508
0.00417933
-0.00156343
0.00421433
-0.00149619
-0.00142497
0.00362053
-0.000759627
-0.00360699
0.00365109
-0.000859816
0.00369697
-0.000963891
0.00375308
-0.0010681
0.00381421
-0.00117301
0.00387643
-0.00127767
0.00393691
-0.00137964
0.00399377
-0.00147611
0.00404588
-0.00156428
0.00409275
-0.0016416
0.00413436
-0.00170602
0.00417099
-0.00175605
0.00420314
-0.0017908
0.0042314
-0.00181002
0.00425644
-0.001814
0.00427891
-0.00180348
0.00429943
-0.00177961
0.00431857
-0.00174381
0.00433681
-0.00169766
0.00435459
-0.00164285
0.00437225
-0.00158108
0.00439004
-0.00151398
-0.0014431
0.00439227
-0.000733357
-0.00441854
0.00438233
-0.000849869
0.00438683
-0.000968395
0.00440198
-0.00108324
0.00442345
-0.00119449
0.00444771
-0.00130193
0.00447209
-0.00140402
0.00449466
-0.00149868
0.00451422
-0.00158383
0.00453014
-0.00165752
0.00454227
-0.00171815
0.00455079
-0.00176457
0.00455612
-0.00179614
0.00455883
-0.00181273
0.00455955
-0.00181471
0.00455892
-0.00180285
0.00455755
-0.00177825
0.00455603
-0.00174228
0.00455484
-0.00169647
0.0045544
-0.00164241
0.00455503
-0.00158171
0.00455698
-0.00151594
-0.00144654
0.00508316
-0.000677555
-0.00513896
0.00504193
-0.000808638
0.00501307
-0.000939534
0.00499382
-0.001064
0.00498091
-0.00118157
0.00497143
-0.00129245
0.0049631
-0.00139569
0.00495425
-0.00148983
0.00494376
-0.00157334
0.00493102
-0.00164479
0.00491587
-0.001703
0.00489846
-0.00174715
0.00487915
-0.00177684
0.00485849
-0.00179207
0.00483708
-0.00179329
0.00481553
-0.0017813
0.00479444
-0.00175717
0.00477437
-0.00172221
0.00475579
-0.00167788
0.00473908
-0.0016257
0.00472454
-0.00156717
0.00471238
-0.00150378
-0.0014369
0.00566961
-0.000603071
-0.0057441
0.00560693
-0.000745952
0.00555372
-0.000886323
0.00550809
-0.00101837
0.00546777
-0.00114125
0.00543062
-0.0012553
0.0053949
-0.00135997
0.00535931
-0.00145424
0.00532296
-0.00153699
0.00528541
-0.00160724
0.00524656
-0.00166415
0.00520657
-0.00170717
0.00516585
-0.00173611
0.0051249
-0.00175112
0.00508431
-0.0017527
0.00504468
-0.00174167
0.00500658
-0.00171907
0.00497054
-0.00168617
0.00493698
-0.00164433
0.00490628
-0.00159499
0.00487869
-0.00153958
0.00485438
-0.00147947
-0.00141597
0.00614111
-0.000519944
-0.00622423
0.00606622
-0.00067107
0.00599747
-0.000817569
0.00593368
-0.000954576
0.0058735
-0.00108107
0.00581556
-0.00119736
0.00575868
-0.0013031
0.00570201
-0.00139756
0.005645
-0.00147998
0.00558741
-0.00154965
0.00552927
-0.00160601
0.00547086
-0.00164876
0.00541259
-0.00167784
0.005355
-0.00169353
0.00529867
-0.00169637
0.00524418
-0.00168718
0.0051921
-0.00166699
0.00514291
-0.00163698
0.00509703
-0.00159845
0.00505478
-0.00155274
0.00501639
-0.00150119
0.004982
-0.00144508
-0.00138563
0.0064983
-0.000436405
-0.00658183
0.00641907
-0.00059184
0.00634252
-0.00074102
0.00626811
-0.000880166
0.00619527
-0.00100824
0.00612331
-0.0011254
0.00605162
-0.00123141
0.00597978
-0.00132573
0.00590759
-0.00140779
0.00583506
-0.00147712
0.0057624
-0.00153335
0.00568999
-0.00157635
0.00561832
-0.00160617
0.00554796
-0.00162317
0.0054795
-0.00162792
0.00541354
-0.00162122
0.0053506
-0.00160405
0.00529117
-0.00157755
0.00523564
-0.00154292
0.00518431
-0.00150141
0.00513738
-0.00145426
0.00509496
-0.00140266
-0.00134775
0.00675022
-0.000358375
-0.00682825
0.00667263
-0.000514251
0.00659448
-0.000662871
0.00651575
-0.000801439
0.00643649
-0.00092898
0.00635659
-0.00104549
0.00627592
-0.00115073
0.00619447
-0.00124427
0.00611235
-0.00132568
0.00602983
-0.0013946
0.00594729
-0.00145081
0.00586523
-0.00149429
0.00578422
-0.00152517
0.00570488
-0.00154383
0.00562783
-0.00155087
0.00555366
-0.00154704
0.00548291
-0.0015333
0.00541604
-0.00151068
0.00535344
-0.00148032
0.00529539
-0.00144335
0.00524207
-0.00140094
0.00519358
-0.00135417
-0.0013041
0.0069112
-0.000289447
-0.00698013
0.00683929
-0.00044234
0.00676401
-0.000587597
0.00668578
-0.000723203
0.00660508
-0.000848281
0.00652224
-0.000962652
0.00643754
-0.00106603
0.00635128
-0.00115802
0.00626387
-0.00123827
0.00617578
-0.0013065
0.00608755
-0.00136258
0.00599979
-0.00140653
0.00591316
-0.00143854
0.00582832
-0.00145899
0.00574591
-0.00146846
0.00566655
-0.00146768
0.00559077
-0.00145752
0.00551904
-0.00143895
0.00545173
-0.00141301
0.00538911
-0.00138074
0.00533138
-0.0013432
0.00527861
-0.00130141
-0.0012563
0.00699801
-0.000231191
-0.00705626
0.00693404
-0.000378369
0.00686449
-0.00051805
0.00679006
-0.000648779
0.00671155
-0.00076977
0.00662959
-0.000880688
0.00654474
-0.000981176
0.00645756
-0.00107085
0.00636866
-0.00114937
0.00627869
-0.00121652
0.00618831
-0.0012722
0.00609823
-0.00131645
0.00600916
-0.00134947
0.00592182
-0.00137165
0.00583688
-0.00138351
0.00575494
-0.00138575
0.00567657
-0.00137915
0.00560222
-0.00136461
0.00553227
-0.00134306
0.005467
-0.00131547
0.00540658
-0.00128279
0.00535111
-0.00124594
-0.00120579
0.00702751
-0.000183661
-0.00707504
0.00697233
-0.000323186
0.00690999
-0.000455714
0.00684138
-0.000580169
0.00676745
-0.000695836
0.00668901
-0.000802253
0.00660683
-0.00089899
0.00652163
-0.000985647
0.00643416
-0.0010619
0.00634519
-0.00112755
0.00625546
-0.00118248
0.00616577
-0.00122676
0.00607686
-0.00126057
0.00598948
-0.00128426
0.0059043
-0.00129834
0.00582197
-0.00130341
0.00574303
-0.0013002
0.00566794
-0.00128952
0.00559709
-0.00127221
0.00553076
-0.00124913
0.00546912
-0.00122115
0.00541229
-0.0011891
-0.00115378
0.00701512
-0.000145948
-0.00705283
0.00696858
-0.00027664
0.00691391
-0.000401046
0.00685207
-0.000518329
0.00678406
-0.000627831
0.0067108
-0.000728995
0.00663314
-0.00082133
0.00655192
-0.000904419
0.00646795
-0.000977936
0.00638206
-0.00104166
0.00629508
-0.0010955
0.00620782
-0.00113949
0.00612104
-0.00117379
0.00603551
-0.00119873
0.00595191
-0.00121474
0.00587088
-0.00122238
0.00579298
-0.0012223
0.00571866
-0.0012152
0.0056483
-0.00120186
0.0055822
-0.00118303
0.00552055
-0.0011595
0.00546346
-0.00113201
-0.00110128
0.00697391
-0.000116649
-0.00700321
0.00693524
-0.000237973
0.006888
-0.000353802
0.00683312
-0.000463456
0.00677161
-0.000566314
0.00670437
-0.000661761
0.00663231
-0.000749264
0.00655628
-0.000828388
0.00647714
-0.0008988
0.00639575
-0.00096027
0.00631294
-0.00101269
0.00622952
-0.00105607
0.00614629
-0.00109056
0.00606398
-0.00111642
0.00598329
-0.00113405
0.00590483
-0.00114393
0.00582916
-0.00114663
0.00575675
-0.00114279
0.00568796
-0.00113307
0.0056231
-0.00111817
0.00556237
-0.00109877
0.00550589
-0.00107553
-0.0010491
0.0069143
-9.42143e-05
-0.00693674
0.00688246
-0.000206129
0.00684199
-0.000313335
0.00679379
-0.000415253
0.00673877
-0.000511294
0.00667782
-0.000600813
0.00661181
-0.000683255
0.0065416
-0.000758177
0.00646803
-0.000825236
0.00639196
-0.000884193
0.00631419
-0.000934922
0.00623554
-0.000977416
0.00615676
-0.00101178
0.00607859
-0.00103826
0.0060017
-0.00105716
0.0059267
-0.00106893
0.00585412
-0.00107405
0.00578443
-0.00107309
0.00571799
-0.00106663
0.00565511
-0.00105529
0.005596
-0.00103965
0.00554079
-0.00102032
-0.000997863
0.0068442
-7.71713e-05
-0.00686124
0.00681805
-0.000179981
0.00678353
-0.000278811
0.00674142
-0.000373147
0.00669256
-0.000462432
0.00663776
-0.000546017
0.00657785
-0.000623342
0.00651363
-0.000693962
0.00644593
-0.000757532
0.00637554
-0.000813805
0.00630326
-0.000862641
0.00622985
-0.000904009
0.00615606
-0.000937989
0.00608257
-0.000964767
0.00601003
-0.000984625
0.00593904
-0.000997929
0.0058701
-0.00100511
0.00580367
-0.00100666
0.00574011
-0.00100308
0.00567972
-0.000994901
0.00562272
-0.000982657
0.00556927
-0.000966866
-0.00094803
0.00676927
-6.42435e-05
-0.0067822
0.00674776
-0.00015847
0.00671831
-0.000249357
0.0066816
-0.000336443
0.00663837
-0.000419202
0.00658936
-0.000496998
0.0065353
-0.000569284
0.00647695
-0.000635619
0.00641508
-0.000695661
0.00635044
-0.00074916
0.00628376
-0.000795963
0.00621577
-0.000836021
0.00614717
-0.000869386
0.00607861
-0.000896205
0.0060107
-0.000916717
0.005944
-0.000931231
0.00587901
-0.000940121
0.00581615
-0.000943803
0.0057558
-0.000942723
0.00569824
-0.000937337
0.00564369
-0.000928108
0.00559231
-0.000915489
-0.000899923
0.00669341
-5.43912e-05
-0.00670326
0.00667561
-0.00014067
0.00665041
-0.000224155
0.00661839
-0.00030443
0.00658019
-0.000381002
0.00653646
-0.000453261
0.00648785
-0.000520681
0.00643507
-0.000582835
0.0063788
-0.000639388
0.00631973
-0.000690089
0.00625854
-0.00073478
0.00619592
-0.000773396
0.0061325
-0.000805963
0.00606889
-0.000832599
0.00600567
-0.000853498
0.00594337
-0.000868926
0.00588244
-0.000879198
0.00582331
-0.000884674
0.00576633
-0.000885736
0.00571177
-0.000882778
0.00565986
-0.000876201
0.00561077
-0.000866399
-0.000853758
0.00661911
-4.68055e-05
-0.00662669
0.00660425
-0.000125814
0.00658258
-0.000202486
0.00655459
-0.000276444
0.00652082
-0.000347228
0.00648182
-0.000414265
0.0064382
-0.000477056
0.00639056
-0.000535194
0.00633953
-0.000588355
0.00628573
-0.000636291
0.00622979
-0.000678841
0.00617232
-0.000715928
0.00611392
-0.00074756
0.00605514
-0.000773827
0.00599653
-0.000794888
0.00593857
-0.000810965
0.0058817
-0.000822329
0.00582631
-0.000829284
0.00577274
-0.000832159
0.00572125
-0.000831292
0.00567208
-0.000827027
0.00562538
-0.000819704
-0.00080966
0.00654787
-4.08788e-05
-0.0065538
0.00653534
-0.000113288
0.0065166
-0.000183739
0.00649204
-0.000251889
0.00646213
-0.000317312
0.00642734
-0.000379477
0.0063882
-0.000437914
0.00634524
-0.00049224
0.00629903
-0.000542144
0.00625013
-0.000587387
0.00619909
-0.000627807
0.00614649
-0.000663319
0.00609284
-0.000693918
0.00603869
-0.000719669
0.0059845
-0.000740702
0.00593074
-0.000757204
0.00587781
-0.000769403
0.00582609
-0.000777558
0.00577588
-0.000781949
0.00572745
-0.000782864
0.00568102
-0.000780597
0.00563676
-0.000775441
-0.000767687
0.0064805
-3.61663e-05
-0.00648522
0.00646983
-0.000102615
0.00645351
-0.000167415
0.00643187
-0.000230256
0.00640531
-0.000290747
0.00637423
-0.000348397
0.00633909
-0.000402771
0.00630036
-0.00045351
0.00625853
-0.000500319
0.00621411
-0.000542969
0.00616761
-0.000581301
0.00611951
-0.000615226
0.00607032
-0.000644726
0.0060205
-0.000669849
0.0059705
-0.000690701
0.00592073
-0.000707437
0.00587158
-0.00072025
0.00582338
-0.000729359
0.00577643
-0.000735001
0.00573099
-0.000737421
0.00568726
-0.00073687
0.00564542
-0.000733596
-0.00072785
0.00641735
-3.23478e-05
-0.00642117
0.00640816
-9.34254e-05
0.00639385
-0.000153107
0.00637471
-0.000211113
0.00635105
-0.000267086
0.00632323
-0.000320575
0.00629163
-0.00037118
0.00625669
-0.000418565
0.00621883
-0.000462454
0.00617849
-0.000502629
0.00613612
-0.000538936
0.00609218
-0.000571284
0.0060471
-0.000599648
0.00600132
-0.000624062
0.00595522
-0.00064461
0.00590921
-0.000661423
0.00586362
-0.000674661
0.00581878
-0.000684512
0.00577495
-0.000691174
0.00573238
-0.000694854
0.00569127
-0.000695763
0.00565179
-0.000694113
-0.000690118
0.00635846
-2.91949e-05
-0.00636161
0.00635047
-8.5436e-05
0.00633785
-0.000140488
0.00632084
-0.000194101
0.00629969
-0.000245946
0.00627473
-0.000295613
0.00624629
-0.000342733
0.00621472
-0.000386997
0.00618041
-0.000428146
0.00614376
-0.000465975
0.00610515
-0.000500335
0.00606501
-0.000531137
0.00602371
-0.00055835
0.00598164
-0.000581997
0.00593918
-0.000602146
0.00589666
-0.000618907
0.00585442
-0.000632414
0.00581273
-0.000642824
0.00577186
-0.000650304
0.00573203
-0.000655027
0.00569344
-0.000657172
0.00565624
-0.000656916
-0.000654441
0.00630369
-2.65454e-05
-0.00630634
0.00629669
-7.843e-05
0.0062855
-0.000129297
0.00627031
-0.000178919
0.00625137
-0.000226998
0.00622891
-0.000273161
0.00620325
-0.00031707
0.00617469
-0.000358438
0.00614357
-0.000397026
0.00611024
-0.00043264
0.00607504
-0.000465141
0.00603835
-0.00049444
0.0060005
-0.000520505
0.00596185
-0.000543349
0.00592274
-0.000563028
0.00588346
-0.000579633
0.00584432
-0.000593277
0.00580559
-0.000604092
0.00576751
-0.000612216
0.00573027
-0.000617795
0.00569408
-0.000620976
0.00565907
-0.000621909
-0.000620746
0.00625284
-2.42834e-05
-0.00625511
0.00624665
-7.22394e-05
0.00623668
-0.000119319
0.00622308
-0.000165317
0.00620604
-0.000209963
0.0061858
-0.000252917
0.0061626
-0.000293869
0.00613672
-0.000332558
0.00610845
-0.000368758
0.0060781
-0.000402291
0.00604598
-0.000433024
0.00601242
-0.000460874
0.00597772
-0.000485806
0.0059422
-0.000507828
0.00590615
-0.000526985
0.00586987
-0.000543353
0.00583362
-0.000557026
0.00579764
-0.000568115
0.00576216
-0.000576735
0.00572737
-0.000583006
0.00569345
-0.000587049
0.00566053
-0.00058899
-0.000588955
0.00620564
-2.23252e-05
-0.0062076
0.00620013
-6.67331e-05
0.0061912
-0.000110382
0.00617897
-0.000153088
0.00616361
-0.000194603
0.00614531
-0.000234618
0.00612429
-0.000272853
0.0061008
-0.000309062
0.00607508
-0.000343042
0.00604741
-0.000374624
0.00601807
-0.000403685
0.00598735
-0.000430145
0.00595551
-0.00045397
0.00592285
-0.000475164
0.00588962
-0.000493763
0.0058561
-0.000509829
0.00582252
-0.000523444
0.0057891
-0.000534698
0.00575605
-0.000543687
0.00572356
-0.000550509
0.00569177
-0.000555263
0.00566083
-0.000558051
-0.00055898
0.0061618
-2.06093e-05
-0.00616352
0.00615688
-6.18067e-05
0.00614884
-0.000102344
0.0061378
-0.000142055
0.00612392
-0.000180713
0.00610734
-0.000218039
0.00608826
-0.000253774
0.00606689
-0.000287695
0.00604346
-0.000319611
0.0060182
-0.000349368
0.00599137
-0.000376851
0.00596321
-0.000401986
0.00593398
-0.000424737
0.00590392
-0.000445106
0.00587328
-0.000463124
0.00584229
-0.000478842
0.00581118
-0.000492328
0.00578013
-0.000503656
0.00574935
-0.000512906
0.005719
-0.000520157
0.00568923
-0.000525489
0.00566016
-0.000528984
-0.000530731
0.00612106
-0.00612258
0.00611663
-5.73763e-05
0.00610938
-9.50869e-05
0.00609939
-0.00013207
0.0060868
-0.00016812
0.00607174
-0.000202982
0.00605438
-0.000236419
0.00603492
-0.000268226
0.00601353
-0.000298228
0.00599045
-0.000326281
0.00596588
-0.00035228
0.00594004
-0.000376154
0.00591318
-0.00039787
0.0058855
-0.000417428
0.00585723
-0.000434852
0.00582857
-0.000450186
0.00579973
-0.000463486
0.00577089
-0.000474814
0.00574221
-0.000484234
0.00571387
-0.000491809
0.00568598
-0.000497603
0.00565868
-0.000501683
-0.00050412
0.00607916
0.00607259
0.00606353
0.00605208
0.00603837
0.00602255
0.00600478
0.00598524
0.0059641
0.00594158
0.00591786
0.00589314
0.00586764
0.00584153
0.00581502
0.00578828
0.00576147
0.00573476
0.00570828
0.00568217
0.00565653
0.000741276
0.000116559
-0.000857836
0.000615002
0.000126274
0.000485098
0.000129904
0.000355842
0.000129256
0.000229203
0.000126639
0.000112723
0.00011648
8.23003e-05
0.00209814
0.0003591
-0.00234068
0.00183009
0.000394326
0.00154675
0.000413246
0.00125648
0.000419522
0.000967806
0.000415312
0.000692526
0.00039176
0.000337187
0.00330481
0.000649624
-0.00359533
0.0029711
0.000728031
0.00260758
0.000776767
0.00222665
0.000800455
0.00183946
0.000802498
0.00145848
0.000772743
0.0007082
0.00433283
0.000929067
-0.00461227
0.00399533
0.00106553
0.00361263
0.00115946
0.00319831
0.00121478
0.00276487
0.00123594
0.00232429
0.00121333
0.00115064
0.00516058
0.00115993
-0.00539145
0.0048626
0.00136352
0.00450707
0.00151499
0.00410596
0.00161589
0.00367156
0.00167034
0.00321473
0.00167016
0.00162175
0.00578694
0.00132473
-0.00595173
0.00555359
0.00159687
0.00525632
0.00181225
0.00490327
0.00196894
0.0045045
0.0020691
0.00406897
0.00210569
0.00208373
0.00622891
0.00142146
-0.00632564
0.00606921
0.00175657
0.00584608
0.00203539
0.00556279
0.00225224
0.0052256
0.00240629
0.00484067
0.00249062
0.00250586
0.00651542
0.00145831
-0.00655227
0.00642611
0.00184588
0.00627982
0.00218167
0.00607517
0.00245689
0.00581407
0.00266738
0.00549915
0.00280555
0.00286604
0.00667989
0.00144827
-0.00666985
0.00665029
0.00187548
0.0065741
0.00225786
0.0064464
0.00258459
0.00626517
0.00284862
0.00602944
0.00304128
0.00315138
0.00675446
0.00140506
-0.00671125
0.00677088
0.00185906
0.00675272
0.00227602
0.00669306
0.00264425
0.00658697
0.00295471
0.00643052
0.00319773
0.00335766
0.0067668
0.00134092
-0.00670266
0.00681558
0.00181028
0.00684156
0.00225004
0.00683722
0.00264859
0.00679601
0.00299591
0.00671203
0.00328171
0.00348786
0.00673839
0.00126538
-0.00666285
0.00680784
0.00174084
0.0068648
0.00219307
0.00690219
0.00261121
0.00691302
0.00298508
0.00689047
0.00330427
0.00355008
0.00668507
0.00118527
-0.00660496
0.00676607
0.00165983
0.00684293
0.00211621
0.00690953
0.0025446
0.00695933
0.00293528
0.00698546
0.00327814
0.00355541
0.0066179
0.00110516
-0.00653778
0.00670391
0.00157382
0.00679205
0.00202806
0.00687745
0.0024592
0.00695444
0.0028583
0.00701674
0.00321584
0.00351588
0.00654426
0.00102782
-0.00646693
0.00663088
0.0014872
0.00672411
0.00193483
0.00682027
0.00236305
0.00691475
0.00276382
0.00700218
0.00312841
0.00344302
0.00646888
0.000954828
-0.00639588
0.00655336
0.00140272
0.0066475