/*--------------------------------*- C++ -*----------------------------------*\
| =========                 |                                                 |
| \\      /  F ield         | OpenFOAM: The Open Source CFD Toolbox           |
|  \\    /   O peration     | Version:  2412                                  |
|   \\  /    A nd           | Website:  www.openfoam.com                      |
|    \\/     M anipulation  |                                                 |
\*---------------------------------------------------------------------------*/
FoamFile
{
    version     2.0;
    format      ascii;
    arch        "LSB;label=32;scalar=64";
    class       volVectorField;
    location    "4.5";
    object      vorticity;
}
// * * * * * * * * * * * * * * * * * * * * * * * * * * * * * * * * * * * * * //

dimensions      [0 0 -1 0 0 0 0];

internalField   nonuniform List<vector> 
5285
(
(0 -0 -2.08033e-05)
(0 -0 -1.97907e-05)
(0 -0 -1.82739e-05)
(0 -0 -1.64447e-05)
(0 -0 -1.48151e-05)
(0 -0 -1.40233e-05)
(0 -0 -1.45693e-05)
(0 -0 -1.6471e-05)
(0 -0 -1.91547e-05)
(0 -0 -2.16479e-05)
(0 -0 -2.30113e-05)
(0 -0 -2.27642e-05)
(0 -0 -2.10685e-05)
(0 -0 -1.85942e-05)
(0 -0 -1.61855e-05)
(0 -0 -1.45302e-05)
(0 -0 -1.39793e-05)
(0 -0 -1.45457e-05)
(0 -0 -1.60179e-05)
(0 -0 -1.80991e-05)
(0 -0 -2.05103e-05)
(0 -0 -2.304e-05)
(0 -0 -2.55506e-05)
(0 -0 -2.79642e-05)
(0 -0 -3.0242e-05)
(0 -0 -3.23679e-05)
(0 -0 -3.43374e-05)
(0 -0 -3.61521e-05)
(0 -0 -3.78163e-05)
(0 -0 -3.9336e-05)
(0 -0 -4.07179e-05)
(0 -0 -4.19691e-05)
(0 -0 -4.30972e-05)
(0 -0 -4.41091e-05)
(0 -0 -4.50116e-05)
(0 -0 -4.58106e-05)
(0 -0 -4.65116e-05)
(0 -0 -4.71205e-05)
(0 -0 -4.7643e-05)
(0 -0 -4.80848e-05)
(0 -0 -4.84501e-05)
(0 -0 -4.87425e-05)
(0 -0 -4.89695e-05)
(0 -0 -4.91015e-05)
(0 -0 -3.26069e-05)
(0 -0 -3.15414e-05)
(0 -0 -2.99153e-05)
(0 -0 -2.79226e-05)
(0 -0 -2.6032e-05)
(0 -0 -2.49312e-05)
(0 -0 -2.51842e-05)
(0 -0 -2.68889e-05)
(0 -0 -2.95326e-05)
(0 -0 -3.21518e-05)
(0 -0 -3.37508e-05)
(0 -0 -3.37455e-05)
(0 -0 -3.21835e-05)
(0 -0 -2.96486e-05)
(0 -0 -2.69492e-05)
(0 -0 -2.47874e-05)
(0 -0 -2.35618e-05)
(0 -0 -2.33454e-05)
(0 -0 -2.3983e-05)
(0 -0 -2.52208e-05)
(0 -0 -2.68087e-05)
(0 -0 -2.85515e-05)
(0 -0 -3.03199e-05)
(0 -0 -3.20388e-05)
(0 -0 -3.36696e-05)
(0 -0 -3.51948e-05)
(0 -0 -3.66084e-05)
(0 -0 -3.79102e-05)
(0 -0 -3.91027e-05)
(0 -0 -4.01897e-05)
(0 -0 -4.11755e-05)
(0 -0 -4.2065e-05)
(0 -0 -4.28633e-05)
(0 -0 -4.35757e-05)
(0 -0 -4.42071e-05)
(0 -0 -4.47618e-05)
(0 -0 -4.52442e-05)
(0 -0 -4.56587e-05)
(0 -0 -4.60099e-05)
(0 -0 -4.63028e-05)
(0 -0 -4.6541e-05)
(0 -0 -4.67269e-05)
(0 -0 -4.68666e-05)
(0 -0 -4.6931e-05)
(0 -0 -3.65264e-05)
(0 -0 -3.54031e-05)
(0 -0 -3.36959e-05)
(0 -0 -3.15714e-05)
(0 -0 -2.95102e-05)
(0 -0 -2.82254e-05)
(0 -0 -2.83256e-05)
(0 -0 -2.99569e-05)
(0 -0 -3.26368e-05)
(0 -0 -3.53946e-05)
(0 -0 -3.71855e-05)
(0 -0 -3.73494e-05)
(0 -0 -3.58571e-05)
(0 -0 -3.32396e-05)
(0 -0 -3.02884e-05)
(0 -0 -2.77221e-05)
(0 -0 -2.59768e-05)
(0 -0 -2.51695e-05)
(0 -0 -2.51842e-05)
(0 -0 -2.57969e-05)
(0 -0 -2.67766e-05)
(0 -0 -2.79391e-05)
(0 -0 -2.91603e-05)
(0 -0 -3.03667e-05)
(0 -0 -3.15196e-05)
(0 -0 -3.26006e-05)
(0 -0 -3.36028e-05)
(0 -0 -3.45249e-05)
(0 -0 -3.53682e-05)
(0 -0 -3.6135e-05)
(0 -0 -3.68281e-05)
(0 -0 -3.74504e-05)
(0 -0 -3.80052e-05)
(0 -0 -3.84963e-05)
(0 -0 -3.89274e-05)
(0 -0 -3.9302e-05)
(0 -0 -3.96235e-05)
(0 -0 -3.98955e-05)
(0 -0 -4.01221e-05)
(0 -0 -4.03074e-05)
(0 -0 -4.04545e-05)
(0 -0 -4.05652e-05)
(0 -0 -4.06445e-05)
(0 -0 -4.06632e-05)
(0 -0 -3.35517e-05)
(0 -0 -3.23762e-05)
(0 -0 -3.06062e-05)
(0 -0 -2.84107e-05)
(0 -0 -2.62797e-05)
(0 -0 -2.49463e-05)
(0 -0 -2.50417e-05)
(0 -0 -2.67277e-05)
(0 -0 -2.95206e-05)
(0 -0 -3.24269e-05)
(0 -0 -3.43609e-05)
(0 -0 -3.46159e-05)
(0 -0 -3.31247e-05)
(0 -0 -3.03995e-05)
(0 -0 -2.72347e-05)
(0 -0 -2.43677e-05)
(0 -0 -2.22619e-05)
(0 -0 -2.10614e-05)
(0 -0 -2.06724e-05)
(0 -0 -2.08864e-05)
(0 -0 -2.14818e-05)
(0 -0 -2.22797e-05)
(0 -0 -2.31578e-05)
(0 -0 -2.40432e-05)
(0 -0 -2.48967e-05)
(0 -0 -2.56995e-05)
(0 -0 -2.6444e-05)
(0 -0 -2.71285e-05)
(0 -0 -2.77539e-05)
(0 -0 -2.83218e-05)
(0 -0 -2.88337e-05)
(0 -0 -2.92912e-05)
(0 -0 -2.96965e-05)
(0 -0 -3.00521e-05)
(0 -0 -3.03611e-05)
(0 -0 -3.06268e-05)
(0 -0 -3.0852e-05)
(0 -0 -3.10402e-05)
(0 -0 -3.11947e-05)
(0 -0 -3.13192e-05)
(0 -0 -3.14165e-05)
(0 -0 -3.14876e-05)
(0 -0 -3.15373e-05)
(0 -0 -3.15362e-05)
(0 -0 -2.6234e-05)
(0 -0 -2.50181e-05)
(0 -0 -2.32161e-05)
(0 -0 -2.10091e-05)
(0 -0 -1.89026e-05)
(0 -0 -1.76435e-05)
(0 -0 -1.78656e-05)
(0 -0 -1.97178e-05)
(0 -0 -2.26884e-05)
(0 -0 -2.57474e-05)
(0 -0 -2.7776e-05)
(0 -0 -2.80465e-05)
(0 -0 -2.64881e-05)
(0 -0 -2.36245e-05)
(0 -0 -2.02701e-05)
(0 -0 -1.71845e-05)
(0 -0 -1.48493e-05)
(0 -0 -1.34212e-05)
(0 -0 -1.28137e-05)
(0 -0 -1.28214e-05)
(0 -0 -1.32238e-05)
(0 -0 -1.38414e-05)
(0 -0 -1.45515e-05)
(0 -0 -1.52804e-05)
(0 -0 -1.59881e-05)
(0 -0 -1.66555e-05)
(0 -0 -1.72749e-05)
(0 -0 -1.78447e-05)
(0 -0 -1.83658e-05)
(0 -0 -1.88394e-05)
(0 -0 -1.92665e-05)
(0 -0 -1.96479e-05)
(0 -0 -1.99849e-05)
(0 -0 -2.02796e-05)
(0 -0 -2.05346e-05)
(0 -0 -2.07533e-05)
(0 -0 -2.09387e-05)
(0 -0 -2.1094e-05)
(0 -0 -2.12224e-05)
(0 -0 -2.13268e-05)
(0 -0 -2.14096e-05)
(0 -0 -2.14716e-05)
(0 -0 -2.15178e-05)
(0 -0 -2.15186e-05)
(0 -0 -1.74923e-05)
(0 -0 -1.62508e-05)
(0 -0 -1.4445e-05)
(0 -0 -1.22765e-05)
(0 -0 -1.02694e-05)
(0 -0 -9.17897e-06)
(0 -0 -9.62718e-06)
(0 -0 -1.1728e-05)
(0 -0 -1.49213e-05)
(0 -0 -1.81308e-05)
(0 -0 -2.02097e-05)
(0 -0 -2.04292e-05)
(0 -0 -1.87408e-05)
(0 -0 -1.5703e-05)
(0 -0 -1.21645e-05)
(0 -0 -8.9094e-06)
(0 -0 -6.43156e-06)
(0 -0 -4.88982e-06)
(0 -0 -4.19348e-06)
(0 -0 -4.13108e-06)
(0 -0 -4.4762e-06)
(0 -0 -5.04502e-06)
(0 -0 -5.71195e-06)
(0 -0 -6.4015e-06)
(0 -0 -7.07296e-06)
(0 -0 -7.70688e-06)
(0 -0 -8.29584e-06)
(0 -0 -8.83853e-06)
(0 -0 -9.33608e-06)
(0 -0 -9.78976e-06)
(0 -0 -1.02003e-05)
(0 -0 -1.05681e-05)
(0 -0 -1.08941e-05)
(0 -0 -1.11801e-05)
(0 -0 -1.14289e-05)
(0 -0 -1.16441e-05)
(0 -0 -1.18291e-05)
(0 -0 -1.19871e-05)
(0 -0 -1.21208e-05)
(0 -0 -1.22328e-05)
(0 -0 -1.23247e-05)
(0 -0 -1.23977e-05)
(0 -0 -1.24569e-05)
(0 -0 -1.24731e-05)
(0 -0 -9.60824e-06)
(0 -0 -8.3526e-06)
(0 -0 -6.56392e-06)
(0 -0 -4.46803e-06)
(0 -0 -2.60984e-06)
(0 -0 -1.7493e-06)
(0 -0 -2.48656e-06)
(0 -0 -4.88675e-06)
(0 -0 -8.32779e-06)
(0 -0 -1.16803e-05)
(0 -0 -1.3773e-05)
(0 -0 -1.38882e-05)
(0 -0 -1.20172e-05)
(0 -0 -8.76881e-06)
(0 -0 -5.03583e-06)
(0 -0 -1.62942e-06)
(0 -0 9.47733e-07)
(0 -0 2.54147e-06)
(0 -0 3.25383e-06)
(0 -0 3.30858e-06)
(0 -0 2.9424e-06)
(0 -0 2.34629e-06)
(0 -0 1.6503e-06)
(0 -0 9.3229e-07)
(0 -0 2.33927e-07)
(0 -0 -4.25255e-07)
(0 -0 -1.03815e-06)
(0 -0 -1.60387e-06)
(0 -0 -2.12384e-06)
(0 -0 -2.59946e-06)
(0 -0 -3.03147e-06)
(0 -0 -3.4203e-06)
(0 -0 -3.76677e-06)
(0 -0 -4.07275e-06)
(0 -0 -4.34137e-06)
(0 -0 -4.57657e-06)
(0 -0 -4.78221e-06)
(0 -0 -4.96146e-06)
(0 -0 -5.11668e-06)
(0 -0 -5.2497e-06)
(0 -0 -5.36196e-06)
(0 -0 -5.45478e-06)
(0 -0 -5.53378e-06)
(0 -0 -5.57024e-06)
(0 -0 -3.77326e-06)
(0 -0 -2.50976e-06)
(0 -0 -7.49291e-07)
(0 -0 1.25576e-06)
(0 -0 2.93922e-06)
(0 -0 3.53832e-06)
(0 -0 2.48026e-06)
(0 -0 -2.43615e-07)
(0 -0 -3.94178e-06)
(0 -0 -7.42785e-06)
(0 -0 -9.50733e-06)
(0 -0 -9.48048e-06)
(0 -0 -7.38755e-06)
(0 -0 -3.89681e-06)
(0 -0 4.91004e-08)
(0 -0 3.60984e-06)
(0 -0 6.27535e-06)
(0 -0 7.89951e-06)
(0 -0 8.59949e-06)
(0 -0 8.61482e-06)
(0 -0 8.19498e-06)
(0 -0 7.53978e-06)
(0 -0 6.7846e-06)
(0 -0 6.00999e-06)
(0 -0 5.25861e-06)
(0 -0 4.55001e-06)
(0 -0 3.89098e-06)
(0 -0 3.28203e-06)
(0 -0 2.72153e-06)
(0 -0 2.20791e-06)
(0 -0 1.74025e-06)
(0 -0 1.31796e-06)
(0 -0 9.39961e-07)
(0 -0 6.04116e-07)
(0 -0 3.0693e-07)
(0 -0 4.40512e-08)
(0 -0 -1.88684e-07)
(0 -0 -3.94406e-07)
(0 -0 -5.75043e-07)
(0 -0 -7.31835e-07)
(0 -0 -8.65998e-07)
(0 -0 -9.79187e-07)
(0 -0 -1.07747e-06)
(0 -0 -1.13272e-06)
(0 -0 -1.7795e-07)
(0 -0 1.09244e-06)
(0 -0 2.82177e-06)
(0 -0 4.73041e-06)
(0 -0 6.2308e-06)
(0 -0 6.55822e-06)
(0 -0 5.1693e-06)
(0 -0 2.11518e-06)
(0 -0 -1.84015e-06)
(0 -0 -5.45115e-06)
(0 -0 -7.50033e-06)
(0 -0 -7.30827e-06)
(0 -0 -4.96798e-06)
(0 -0 -1.21118e-06)
(0 -0 2.96661e-06)
(0 -0 6.6946e-06)
(0 -0 9.45543e-06)
(0 -0 1.11121e-05)
(0 -0 1.17985e-05)
(0 -0 1.17714e-05)
(0 -0 1.12941e-05)
(0 -0 1.0576e-05)
(0 -0 9.75803e-06)
(0 -0 8.92367e-06)
(0 -0 8.11648e-06)
(0 -0 7.35605e-06)
(0 -0 6.64886e-06)
(0 -0 5.99521e-06)
(0 -0 5.3934e-06)
(0 -0 4.84174e-06)
(0 -0 4.33907e-06)
(0 -0 3.88441e-06)
(0 -0 3.47626e-06)
(0 -0 3.11206e-06)
(0 -0 2.78797e-06)
(0 -0 2.49935e-06)
(0 -0 2.24187e-06)
(0 -0 2.01249e-06)
(0 -0 1.80971e-06)
(0 -0 1.63276e-06)
(0 -0 1.4805e-06)
(0 -0 1.35096e-06)
(0 -0 1.23768e-06)
(0 -0 1.16815e-06)
(0 -0 1.60526e-06)
(0 -0 2.88511e-06)
(0 -0 4.58568e-06)
(0 -0 6.40013e-06)
(0 -0 7.71944e-06)
(0 -0 7.77704e-06)
(0 -0 6.05932e-06)
(0 -0 2.67762e-06)
(0 -0 -1.5308e-06)
(0 -0 -5.26053e-06)
(0 -0 -7.27055e-06)
(0 -0 -6.9018e-06)
(0 -0 -4.30063e-06)
(0 -0 -2.63077e-07)
(0 -0 4.16138e-06)
(0 -0 8.07073e-06)
(0 -0 1.09399e-05)
(0 -0 1.2641e-05)
(0 -0 1.33247e-05)
(0 -0 1.32654e-05)
(0 -0 1.27403e-05)
(0 -0 1.19686e-05)
(0 -0 1.1097e-05)
(0 -0 1.02114e-05)
(0 -0 9.35655e-06)
(0 -0 8.55192e-06)
(0 -0 7.80384e-06)
(0 -0 7.1126e-06)
(0 -0 6.47657e-06)
(0 -0 5.894e-06)
(0 -0 5.36343e-06)
(0 -0 4.88334e-06)
(0 -0 4.45168e-06)
(0 -0 4.06544e-06)
(0 -0 3.72049e-06)
(0 -0 3.41207e-06)
(0 -0 3.13582e-06)
(0 -0 2.88887e-06)
(0 -0 2.67004e-06)
(0 -0 2.47883e-06)
(0 -0 2.31406e-06)
(0 -0 2.17343e-06)
(0 -0 2.05031e-06)
(0 -0 1.97144e-06)
(0 -0 2.21412e-06)
(0 -0 3.50754e-06)
(0 -0 5.1841e-06)
(0 -0 6.90988e-06)
(0 -0 8.05443e-06)
(0 -0 7.84907e-06)
(0 -0 5.80931e-06)
(0 -0 2.10599e-06)
(0 -0 -2.35076e-06)
(0 -0 -6.19562e-06)
(0 -0 -8.16336e-06)
(0 -0 -7.61428e-06)
(0 -0 -4.74711e-06)
(0 -0 -4.21782e-07)
(0 -0 4.25845e-06)
(0 -0 8.35997e-06)
(0 -0 1.13495e-05)
(0 -0 1.31079e-05)
(0 -0 1.38021e-05)
(0 -0 1.37237e-05)
(0 -0 1.31638e-05)
(0 -0 1.23511e-05)
(0 -0 1.14376e-05)
(0 -0 1.05122e-05)
(0 -0 9.62012e-06)
(0 -0 8.7811e-06)
(0 -0 8.00143e-06)
(0 -0 7.28151e-06)
(0 -0 6.61988e-06)
(0 -0 6.01477e-06)
(0 -0 5.46435e-06)
(0 -0 4.96653e-06)
(0 -0 4.51861e-06)
(0 -0 4.11714e-06)
(0 -0 3.75781e-06)
(0 -0 3.43589e-06)
(0 -0 3.14715e-06)
(0 -0 2.88888e-06)
(0 -0 2.66008e-06)
(0 -0 2.46027e-06)
(0 -0 2.28807e-06)
(0 -0 2.14099e-06)
(0 -0 2.01232e-06)
(0 -0 1.92803e-06)
(0 -0 2.22044e-06)
(0 -0 3.53158e-06)
(0 -0 5.18903e-06)
(0 -0 6.83199e-06)
(0 -0 7.80865e-06)
(0 -0 7.34769e-06)
(0 -0 4.99297e-06)
(0 -0 9.73878e-07)
(0 -0 -3.72743e-06)
(0 -0 -7.68578e-06)
(0 -0 -9.61126e-06)
(0 -0 -8.88241e-06)
(0 -0 -5.74911e-06)
(0 -0 -1.13409e-06)
(0 -0 3.8061e-06)
(0 -0 8.10626e-06)
(0 -0 1.12246e-05)
(0 -0 1.30499e-05)
(0 -0 1.37653e-05)
(0 -0 1.36787e-05)
(0 -0 1.3095e-05)
(0 -0 1.22518e-05)
(0 -0 1.13066e-05)
(0 -0 1.03505e-05)
(0 -0 9.42992e-06)
(0 -0 8.56461e-06)
(0 -0 7.76104e-06)
(0 -0 7.01981e-06)
(0 -0 6.33964e-06)
(0 -0 5.71871e-06)
(0 -0 5.15485e-06)
(0 -0 4.64532e-06)
(0 -0 4.18681e-06)
(0 -0 3.77542e-06)
(0 -0 3.40679e-06)
(0 -0 3.07637e-06)
(0 -0 2.78015e-06)
(0 -0 2.51557e-06)
(0 -0 2.28159e-06)
(0 -0 2.07752e-06)
(0 -0 1.90164e-06)
(0 -0 1.75136e-06)
(0 -0 1.62004e-06)
(0 -0 1.53285e-06)
(0 -0 2.01541e-06)
(0 -0 3.34743e-06)
(0 -0 4.98963e-06)
(0 -0 6.55441e-06)
(0 -0 7.3685e-06)
(0 -0 6.65763e-06)
(0 -0 3.99338e-06)
(0 -0 -3.3721e-07)
(0 -0 -5.28055e-06)
(0 -0 -9.35193e-06)
(0 -0 -1.12364e-05)
(0 -0 -1.03299e-05)
(0 -0 -6.93242e-06)
(0 -0 -2.02843e-06)
(0 -0 3.17271e-06)
(0 -0 7.67445e-06)
(0 -0 1.09263e-05)
(0 -0 1.28245e-05)
(0 -0 1.35678e-05)
(0 -0 1.34803e-05)
(0 -0 1.28801e-05)
(0 -0 1.20135e-05)
(0 -0 1.10431e-05)
(0 -0 1.00625e-05)
(0 -0 9.11891e-06)
(0 -0 8.23262e-06)
(0 -0 7.41026e-06)
(0 -0 6.65266e-06)
(0 -0 5.95866e-06)
(0 -0 5.32633e-06)
(0 -0 4.75313e-06)
(0 -0 4.23576e-06)
(0 -0 3.77028e-06)
(0 -0 3.3524e-06)
(0 -0 2.97779e-06)
(0 -0 2.64222e-06)
(0 -0 2.34197e-06)
(0 -0 2.07454e-06)
(0 -0 1.83868e-06)
(0 -0 1.63321e-06)
(0 -0 1.45605e-06)
(0 -0 1.30454e-06)
(0 -0 1.17223e-06)
(0 -0 1.08347e-06)
(0 -0 1.80923e-06)
(0 -0 3.16404e-06)
(0 -0 4.79319e-06)
(0 -0 6.28255e-06)
(0 -0 6.93723e-06)
(0 -0 5.97988e-06)
(0 -0 3.00929e-06)
(0 -0 -1.6303e-06)
(0 -0 -6.81432e-06)
(0 -0 -1.09988e-05)
(0 -0 -1.28437e-05)
(0 -0 -1.17616e-05)
(0 -0 -8.10207e-06)
(0 -0 -2.9107e-06)
(0 -0 2.55093e-06)
(0 -0 7.2551e-06)
(0 -0 1.06425e-05)
(0 -0 1.26168e-05)
(0 -0 1.33917e-05)
(0 -0 1.33074e-05)
(0 -0 1.26946e-05)
(0 -0 1.18084e-05)
(0 -0 1.08163e-05)
(0 -0 9.81426e-06)
(0 -0 8.85072e-06)
(0 -0 7.94641e-06)
(0 -0 7.10824e-06)
(0 -0 6.3372e-06)
(0 -0 5.63212e-06)
(0 -0 4.99089e-06)
(0 -0 4.4106e-06)
(0 -0 3.88746e-06)
(0 -0 3.41698e-06)
(0 -0 2.99453e-06)
(0 -0 2.61587e-06)
(0 -0 2.27716e-06)
(0 -0 1.97502e-06)
(0 -0 1.70692e-06)
(0 -0 1.47122e-06)
(0 -0 1.26611e-06)
(0 -0 1.08905e-06)
(0 -0 9.37396e-07)
(0 -0 8.04945e-07)
(0 -0 7.15264e-07)
(0 -0 1.68294e-06)
(0 -0 3.06087e-06)
(0 -0 4.67752e-06)
(0 -0 6.09231e-06)
(0 -0 6.58873e-06)
(0 -0 5.38615e-06)
(0 -0 2.1104e-06)
(0 -0 -2.83725e-06)
(0 -0 -8.26156e-06)
(0 -0 -1.25595e-05)
(0 -0 -1.43656e-05)
(0 -0 -1.31094e-05)
(0 -0 -9.18938e-06)
(0 -0 -3.71194e-06)
(0 -0 2.00946e-06)
(0 -0 6.91608e-06)
(0 -0 1.04398e-05)
(0 -0 1.24915e-05)
(0 -0 1.32999e-05)
(0 -0 1.32207e-05)
(0 -0 1.25972e-05)
(0 -0 1.1693e-05)
(0 -0 1.06805e-05)
(0 -0 9.65841e-06)
(0 -0 8.67627e-06)
(0 -0 7.75547e-06)
(0 -0 6.90318e-06)
(0 -0 6.1204e-06)
(0 -0 5.40578e-06)
(0 -0 4.75694e-06)
(0 -0 4.17064e-06)
(0 -0 3.64268e-06)
(0 -0 3.16812e-06)
(0 -0 2.74208e-06)
(0 -0 2.36042e-06)
(0 -0 2.01974e-06)
(0 -0 1.71694e-06)
(0 -0 1.44944e-06)
(0 -0 1.21507e-06)
(0 -0 1.01131e-06)
(0 -0 8.35133e-07)
(0 -0 6.83921e-07)
(0 -0 5.51779e-07)
(0 -0 4.61518e-07)
(0 -0 1.64628e-06)
(0 -0 3.04599e-06)
(0 -0 4.64936e-06)
(0 -0 5.98912e-06)
(0 -0 6.32691e-06)
(0 -0 4.87869e-06)
(0 -0 1.2974e-06)
(0 -0 -3.95866e-06)
(0 -0 -9.62359e-06)
(0 -0 -1.40352e-05)
(0 -0 -1.58031e-05)
(0 -0 -1.43734e-05)
(0 -0 -1.01936e-05)
(0 -0 -4.43071e-06)
(0 -0 1.55006e-06)
(0 -0 6.65908e-06)
(0 -0 1.03194e-05)
(0 -0 1.24493e-05)
(0 -0 1.32919e-05)
(0 -0 1.32186e-05)
(0 -0 1.25851e-05)
(0 -0 1.16634e-05)
(0 -0 1.0631e-05)
(0 -0 9.58924e-06)
(0 -0 8.58916e-06)
(0 -0 7.65279e-06)
(0 -0 6.78748e-06)
(0 -0 5.99407e-06)
(0 -0 5.27086e-06)
(0 -0 4.6151e-06)
(0 -0 4.02326e-06)
(0 -0 3.49085e-06)
(0 -0 3.01262e-06)
(0 -0 2.58348e-06)
(0 -0 2.19942e-06)
(0 -0 1.85741e-06)
(0 -0 1.55463e-06)
(0 -0 1.28837e-06)
(0 -0 1.05592e-06)
(0 -0 8.54018e-07)
(0 -0 6.79165e-07)
(0 -0 5.28743e-07)
(0 -0 3.972e-07)
(0 -0 3.0654e-07)
(0 -0 1.67947e-06)
(0 -0 3.09807e-06)
(0 -0 4.68711e-06)
(0 -0 5.95126e-06)
(0 -0 6.12925e-06)
(0 -0 4.43377e-06)
(0 -0 5.45237e-07)
(0 -0 -5.02068e-06)
(0 -0 -1.09272e-05)
(0 -0 -1.5453e-05)
(0 -0 -1.71827e-05)
(0 -0 -1.55795e-05)
(0 -0 -1.11399e-05)
(0 -0 -5.09161e-06)
(0 -0 1.14855e-06)
(0 -0 6.46014e-06)
(0 -0 1.02574e-05)
(0 -0 1.24658e-05)
(0 -0 1.33431e-05)
(0 -0 1.3276e-05)
(0 -0 1.26326e-05)
(0 -0 1.16935e-05)
(0 -0 1.06413e-05)
(0 -0 9.58016e-06)
(0 -0 8.56267e-06)
(0 -0 7.6115e-06)
(0 -0 6.73409e-06)
(0 -0 5.93092e-06)
(0 -0 5.19981e-06)
(0 -0 4.53758e-06)
(0 -0 3.94046e-06)
(0 -0 3.40376e-06)
(0 -0 2.92203e-06)
(0 -0 2.4901e-06)
(0 -0 2.10404e-06)
(0 -0 1.76112e-06)
(0 -0 1.45869e-06)
(0 -0 1.19393e-06)
(0 -0 9.63615e-07)
(0 -0 7.63785e-07)
(0 -0 5.90495e-07)
(0 -0 4.41084e-07)
(0 -0 3.10391e-07)
(0 -0 2.19209e-07)
(0 -0 1.74994e-06)
(0 -0 3.18563e-06)
(0 -0 4.75906e-06)
(0 -0 5.94831e-06)
(0 -0 5.96424e-06)
(0 -0 4.0182e-06)
(0 -0 -1.80859e-07)
(0 -0 -6.05924e-06)
(0 -0 -1.22089e-05)
(0 -0 -1.68497e-05)
(0 -0 -1.85413e-05)
(0 -0 -1.67644e-05)
(0 -0 -1.20648e-05)
(0 -0 -5.73087e-06)
(0 -0 7.68904e-07)
(0 -0 6.28328e-06)
(0 -0 1.02178e-05)
(0 -0 1.25049e-05)
(0 -0 1.34172e-05)
(0 -0 1.33564e-05)
(0 -0 1.27034e-05)
(0 -0 1.1747e-05)
(0 -0 1.06753e-05)
(0 -0 9.59534e-06)
(0 -0 8.56123e-06)
(0 -0 7.59625e-06)
(0 -0 6.70776e-06)
(0 -0 5.8958e-06)
(0 -0 5.15759e-06)
(0 -0 4.48953e-06)
(0 -0 3.88756e-06)
(0 -0 3.34692e-06)
(0 -0 2.86209e-06)
(0 -0 2.42787e-06)
(0 -0 2.04044e-06)
(0 -0 1.69714e-06)
(0 -0 1.39546e-06)
(0 -0 1.13247e-06)
(0 -0 9.04498e-07)
(0 -0 7.06993e-07)
(0 -0 5.35607e-07)
(0 -0 3.8756e-07)
(0 -0 2.58192e-07)
(0 -0 1.65711e-07)
(0 -0 1.81883e-06)
(0 -0 3.26761e-06)
(0 -0 4.82354e-06)
(0 -0 5.94251e-06)
(0 -0 5.79103e-06)
(0 -0 3.58811e-06)
(0 -0 -9.26322e-07)
(0 -0 -7.12043e-06)
(0 -0 -1.3515e-05)
(0 -0 -1.82711e-05)
(0 -0 -1.99243e-05)
(0 -0 -1.79728e-05)
(0 -0 -1.30122e-05)
(0 -0 -6.3918e-06)
(0 -0 3.68297e-07)
(0 -0 6.08611e-06)
(0 -0 1.01586e-05)
(0 -0 1.25253e-05)
(0 -0 1.34733e-05)
(0 -0 1.34199e-05)
(0 -0 1.27582e-05)
(0 -0 1.17858e-05)
(0 -0 1.06958e-05)
(0 -0 9.5986e-06)
(0 -0 8.54962e-06)
(0 -0 7.5726e-06)
(0 -0 6.6748e-06)
(0 -0 5.85567e-06)
(0 -0 5.11192e-06)
(0 -0 4.43936e-06)
(0 -0 3.83372e-06)
(0 -0 3.2903e-06)
(0 -0 2.80354e-06)
(0 -0 2.36828e-06)
(0 -0 1.9807e-06)
(0 -0 1.63816e-06)
(0 -0 1.33815e-06)
(0 -0 1.07764e-06)
(0 -0 8.52602e-07)
(0 -0 6.57956e-07)
(0 -0 4.89175e-07)
(0 -0 3.43214e-07)
(0 -0 2.15884e-07)
(0 -0 1.2323e-07)
(0 -0 1.85562e-06)
(0 -0 3.31529e-06)
(0 -0 4.86753e-06)
(0 -0 5.89766e-06)
(0 -0 5.58152e-06)
(0 -0 3.11284e-06)
(0 -0 -1.72201e-06)
(0 -0 -8.23432e-06)
(0 -0 -1.48743e-05)
(0 -0 -1.97448e-05)
(0 -0 -2.13578e-05)
(0 -0 -1.92297e-05)
(0 -0 -1.40063e-05)
(0 -0 -7.09799e-06)
(0 -0 -7.64178e-08)
(0 -0 5.84589e-06)
(0 -0 1.00574e-05)
(0 -0 1.2505e-05)
(0 -0 1.34902e-05)
(0 -0 1.34456e-05)
(0 -0 1.27769e-05)
(0 -0 1.17902e-05)
(0 -0 1.06842e-05)
(0 -0 9.57197e-06)
(0 -0 8.51037e-06)
(0 -0 7.52349e-06)
(0 -0 6.61838e-06)
(0 -0 5.79406e-06)
(0 -0 5.04669e-06)
(0 -0 4.3716e-06)
(0 -0 3.76407e-06)
(0 -0 3.21933e-06)
(0 -0 2.73215e-06)
(0 -0 2.29761e-06)
(0 -0 1.91164e-06)
(0 -0 1.5713e-06)
(0 -0 1.27405e-06)
(0 -0 1.0169e-06)
(0 -0 7.95555e-07)
(0 -0 6.04603e-07)
(0 -0 4.39174e-07)
(0 -0 2.9601e-07)
(0 -0 1.7145e-07)
(0 -0 7.89928e-08)
(0 -0 -3.83224e-05)
(0 -0 -3.52493e-05)
(0 -0 -3.31396e-05)
(0 -0 -3.14684e-05)
(0 -0 -3.00761e-05)
(0 -0 -2.88844e-05)
(0 -0 -2.78154e-05)
(0 -0 -2.68421e-05)
(0 -0 -2.59586e-05)
(0 -0 -2.51663e-05)
(0 -0 -2.44653e-05)
(0 -0 -2.38523e-05)
(0 -0 -2.33207e-05)
(0 -0 -2.28621e-05)
(0 -0 -2.24682e-05)
(0 -0 -2.21322e-05)
(0 -0 -2.18489e-05)
(0 -0 -2.16152e-05)
(0 -0 -2.14308e-05)
(0 -0 -2.12996e-05)
(0 -0 -2.12292e-05)
(0 -0 -2.1229e-05)
(0 -0 -2.12989e-05)
(0 -0 -2.14078e-05)
(0 -0 -2.14596e-05)
(0 -0 -2.12943e-05)
(0 -0 -4.74138e-05)
(0 -0 -4.45861e-05)
(0 -0 -4.27362e-05)
(0 -0 -4.13201e-05)
(0 -0 -4.01752e-05)
(0 -0 -3.92118e-05)
(0 -0 -3.83534e-05)
(0 -0 -3.7572e-05)
(0 -0 -3.68617e-05)
(0 -0 -3.62247e-05)
(0 -0 -3.56623e-05)
(0 -0 -3.51719e-05)
(0 -0 -3.47476e-05)
(0 -0 -3.43818e-05)
(0 -0 -3.40669e-05)
(0 -0 -3.37966e-05)
(0 -0 -3.35664e-05)
(0 -0 -3.33742e-05)
(0 -0 -3.32206e-05)
(0 -0 -3.31104e-05)
(0 -0 -3.30527e-05)
(0 -0 -3.30587e-05)
(0 -0 -3.31306e-05)
(0 -0 -3.32386e-05)
(0 -0 -3.32923e-05)
(0 -0 -3.31089e-05)
(0 -0 -4.8494e-05)
(0 -0 -4.59623e-05)
(0 -0 -4.44166e-05)
(0 -0 -4.32874e-05)
(0 -0 -4.24001e-05)
(0 -0 -4.16767e-05)
(0 -0 -4.10384e-05)
(0 -0 -4.04569e-05)
(0 -0 -3.9927e-05)
(0 -0 -3.94515e-05)
(0 -0 -3.90329e-05)
(0 -0 -3.86697e-05)
(0 -0 -3.83566e-05)
(0 -0 -3.80868e-05)
(0 -0 -3.78532e-05)
(0 -0 -3.76502e-05)
(0 -0 -3.74742e-05)
(0 -0 -3.73239e-05)
(0 -0 -3.72008e-05)
(0 -0 -3.71108e-05)
(0 -0 -3.70642e-05)
(0 -0 -3.70734e-05)
(0 -0 -3.71419e-05)
(0 -0 -3.7241e-05)
(0 -0 -3.72777e-05)
(0 -0 -3.70735e-05)
(0 -0 -4.29481e-05)
(0 -0 -4.07115e-05)
(0 -0 -3.94533e-05)
(0 -0 -3.85828e-05)
(0 -0 -3.79329e-05)
(0 -0 -3.74275e-05)
(0 -0 -3.69872e-05)
(0 -0 -3.65842e-05)
(0 -0 -3.62147e-05)
(0 -0 -3.5883e-05)
(0 -0 -3.55924e-05)
(0 -0 -3.53425e-05)
(0 -0 -3.51287e-05)
(0 -0 -3.49447e-05)
(0 -0 -3.47839e-05)
(0 -0 -3.46416e-05)
(0 -0 -3.45145e-05)
(0 -0 -3.44023e-05)
(0 -0 -3.43074e-05)
(0 -0 -3.42365e-05)
(0 -0 -3.42006e-05)
(0 -0 -3.42128e-05)
(0 -0 -3.4277e-05)
(0 -0 -3.43644e-05)
(0 -0 -3.43804e-05)
(0 -0 -3.41422e-05)
(0 -0 -3.35906e-05)
(0 -0 -3.15996e-05)
(0 -0 -3.05715e-05)
(0 -0 -2.99083e-05)
(0 -0 -2.9446e-05)
(0 -0 -2.91113e-05)
(0 -0 -2.88252e-05)
(0 -0 -2.85608e-05)
(0 -0 -2.83157e-05)
(0 -0 -2.80954e-05)
(0 -0 -2.79044e-05)
(0 -0 -2.77428e-05)
(0 -0 -2.76068e-05)
(0 -0 -2.74905e-05)
(0 -0 -2.73879e-05)
(0 -0 -2.72945e-05)
(0 -0 -2.72078e-05)
(0 -0 -2.7128e-05)
(0 -0 -2.7058e-05)
(0 -0 -2.70051e-05)
(0 -0 -2.69809e-05)
(0 -0 -2.69983e-05)
(0 -0 -2.70609e-05)
(0 -0 -2.71385e-05)
(0 -0 -2.71345e-05)
(0 -0 -2.68646e-05)
(0 -0 -2.3423e-05)
(0 -0 -2.16138e-05)
(0 -0 -2.07502e-05)
(0 -0 -2.02296e-05)
(0 -0 -1.98943e-05)
(0 -0 -1.96748e-05)
(0 -0 -1.94923e-05)
(0 -0 -1.9321e-05)
(0 -0 -1.91595e-05)
(0 -0 -1.9014e-05)
(0 -0 -1.88901e-05)
(0 -0 -1.87886e-05)
(0 -0 -1.8706e-05)
(0 -0 -1.86368e-05)
(0 -0 -1.85754e-05)
(0 -0 -1.85176e-05)
(0 -0 -1.84613e-05)
(0 -0 -1.8407e-05)
(0 -0 -1.8358e-05)
(0 -0 -1.83219e-05)
(0 -0 -1.83103e-05)
(0 -0 -1.83357e-05)
(0 -0 -1.84004e-05)
(0 -0 -1.84721e-05)
(0 -0 -1.84521e-05)
(0 -0 -1.81553e-05)
(0 -0 -1.46789e-05)
(0 -0 -1.29909e-05)
(0 -0 -1.22316e-05)
(0 -0 -1.17958e-05)
(0 -0 -1.15334e-05)
(0 -0 -1.13801e-05)
(0 -0 -1.12568e-05)
(0 -0 -1.11383e-05)
(0 -0 -1.10237e-05)
(0 -0 -1.09204e-05)
(0 -0 -1.08344e-05)
(0 -0 -1.07668e-05)
(0 -0 -1.07148e-05)
(0 -0 -1.06731e-05)
(0 -0 -1.06365e-05)
(0 -0 -1.06012e-05)
(0 -0 -1.05651e-05)
(0 -0 -1.0529e-05)
(0 -0 -1.04964e-05)
(0 -0 -1.0475e-05)
(0 -0 -1.04758e-05)
(0 -0 -1.05106e-05)
(0 -0 -1.05798e-05)
(0 -0 -1.06485e-05)
(0 -0 -1.06159e-05)
(0 -0 -1.0297e-05)
(0 -0 -8.42729e-06)
(0 -0 -6.81256e-06)
(0 -0 -6.11319e-06)
(0 -0 -5.7208e-06)
(0 -0 -5.493e-06)
(0 -0 -5.37089e-06)
(0 -0 -5.27496e-06)
(0 -0 -5.18012e-06)
(0 -0 -5.08599e-06)
(0 -0 -5.00019e-06)
(0 -0 -4.92931e-06)
(0 -0 -4.87506e-06)
(0 -0 -4.83499e-06)
(0 -0 -4.80443e-06)
(0 -0 -4.77864e-06)
(0 -0 -4.75393e-06)
(0 -0 -4.72881e-06)
(0 -0 -4.70393e-06)
(0 -0 -4.68281e-06)
(0 -0 -4.67271e-06)
(0 -0 -4.68418e-06)
(0 -0 -4.72767e-06)
(0 -0 -4.80145e-06)
(0 -0 -4.86804e-06)
(0 -0 -4.82385e-06)
(0 -0 -4.48472e-06)
(0 -0 -4.71556e-06)
(0 -0 -3.14232e-06)
(0 -0 -2.47632e-06)
(0 -0 -2.1034e-06)
(0 -0 -1.88884e-06)
(0 -0 -1.77856e-06)
(0 -0 -1.69216e-06)
(0 -0 -1.60427e-06)
(0 -0 -1.51448e-06)
(0 -0 -1.43065e-06)
(0 -0 -1.35981e-06)
(0 -0 -1.30436e-06)
(0 -0 -1.26264e-06)
(0 -0 -1.23071e-06)
(0 -0 -1.20448e-06)
(0 -0 -1.18099e-06)
(0 -0 -1.15883e-06)
(0 -0 -1.13863e-06)
(0 -0 -1.12402e-06)
(0 -0 -1.12148e-06)
(0 -0 -1.14076e-06)
(0 -0 -1.19074e-06)
(0 -0 -1.26729e-06)
(0 -0 -1.33e-06)
(0 -0 -1.27297e-06)
(0 -0 -9.12798e-07)
(0 -0 -2.99077e-06)
(0 -0 -1.4413e-06)
(0 -0 -7.96557e-07)
(0 -0 -4.33445e-07)
(0 -0 -2.24089e-07)
(0 -0 -1.18826e-07)
(0 -0 -3.5629e-08)
(0 -0 5.186e-08)
(0 -0 1.44494e-07)
(0 -0 2.34183e-07)
(0 -0 3.13559e-07)
(0 -0 3.79397e-07)
(0 -0 4.32202e-07)
(0 -0 4.74536e-07)
(0 -0 5.09557e-07)
(0 -0 5.39421e-07)
(0 -0 5.65078e-07)
(0 -0 5.85694e-07)
(0 -0 5.98247e-07)
(0 -0 5.96822e-07)
(0 -0 5.72903e-07)
(0 -0 5.1944e-07)
(0 -0 4.42961e-07)
(0 -0 3.8703e-07)
(0 -0 4.59816e-07)
(0 -0 8.43773e-07)
(0 -0 -2.5246e-06)
(0 -0 -9.90958e-07)
(0 -0 -3.64312e-07)
(0 -0 -1.01788e-08)
(0 -0 1.93507e-07)
(0 -0 2.92742e-07)
(0 -0 3.71917e-07)
(0 -0 4.58797e-07)
(0 -0 5.55318e-07)
(0 -0 6.53563e-07)
(0 -0 7.45783e-07)
(0 -0 8.27322e-07)
(0 -0 8.97153e-07)
(0 -0 9.56205e-07)
(0 -0 1.00594e-06)
(0 -0 1.04747e-06)
(0 -0 1.08128e-06)
(0 -0 1.10626e-06)
(0 -0 1.12011e-06)
(0 -0 1.11773e-06)
(0 -0 1.09196e-06)
(0 -0 1.03778e-06)
(0 -0 9.64423e-07)
(0 -0 9.18452e-07)
(0 -0 1.01045e-06)
(0 -0 1.42173e-06)
(0 -0 -2.69094e-06)
(0 -0 -1.16972e-06)
(0 -0 -5.61975e-07)
(0 -0 -2.19352e-07)
(0 -0 -2.49835e-08)
(0 -0 6.39082e-08)
(0 -0 1.3492e-07)
(0 -0 2.18094e-07)
(0 -0 3.16663e-07)
(0 -0 4.2332e-07)
(0 -0 5.29631e-07)
(0 -0 6.29364e-07)
(0 -0 7.19414e-07)
(0 -0 7.98643e-07)
(0 -0 8.66523e-07)
(0 -0 9.22994e-07)
(0 -0 9.67607e-07)
(0 -0 9.99634e-07)
(0 -0 1.01695e-06)
(0 -0 1.01562e-06)
(0 -0 9.90197e-07)
(0 -0 9.37617e-07)
(0 -0 8.69983e-07)
(0 -0 8.36854e-07)
(0 -0 9.51117e-07)
(0 -0 1.39291e-06)
(0 -0 -3.07413e-06)
(0 -0 -1.562e-06)
(0 -0 -9.73462e-07)
(0 -0 -6.44109e-07)
(0 -0 -4.61942e-07)
(0 -0 -3.8695e-07)
(0 -0 -3.27801e-07)
(0 -0 -2.51547e-07)
(0 -0 -1.53337e-07)
(0 -0 -3.97336e-08)
(0 -0 7.98679e-08)
(0 -0 1.97791e-07)
(0 -0 3.08374e-07)
(0 -0 4.08173e-07)
(0 -0 4.94829e-07)
(0 -0 5.66954e-07)
(0 -0 6.23316e-07)
(0 -0 6.63242e-07)
(0 -0 6.85151e-07)
(0 -0 6.86258e-07)
(0 -0 6.62686e-07)
(0 -0 6.1354e-07)
(0 -0 5.53595e-07)
(0 -0 5.35496e-07)
(0 -0 6.74456e-07)
(0 -0 1.14925e-06)
(0 -0 -3.46302e-06)
(0 -0 -1.95269e-06)
(0 -0 -1.37918e-06)
(0 -0 -1.06087e-06)
(0 -0 -8.90025e-07)
(0 -0 -8.29291e-07)
(0 -0 -7.82677e-07)
(0 -0 -7.1453e-07)
(0 -0 -6.17952e-07)
(0 -0 -4.99103e-07)
(0 -0 -3.68295e-07)
(0 -0 -2.35043e-07)
(0 -0 -1.07076e-07)
(0 -0 9.87874e-09)
(0 -0 1.1262e-07)
(0 -0 1.98427e-07)
(0 -0 2.65584e-07)
(0 -0 3.12943e-07)
(0 -0 3.39714e-07)
(0 -0 3.4413e-07)
(0 -0 3.23644e-07)
(0 -0 2.79478e-07)
(0 -0 2.28913e-07)
(0 -0 2.27561e-07)
(0 -0 3.92873e-07)
(0 -0 9.02205e-07)
(0 -0 -3.79904e-06)
(0 -0 -2.27226e-06)
(0 -0 -1.70174e-06)
(0 -0 -1.38707e-06)
(0 -0 -1.2226e-06)
(0 -0 -1.17194e-06)
(0 -0 -1.13435e-06)
(0 -0 -1.07142e-06)
(0 -0 -9.75196e-07)
(0 -0 -8.52076e-07)
(0 -0 -7.13219e-07)
(0 -0 -5.70139e-07)
(0 -0 -4.32202e-07)
(0 -0 -3.05352e-07)
(0 -0 -1.92384e-07)
(0 -0 -9.64789e-08)
(0 -0 -2.07485e-08)
(0 -0 3.31413e-08)
(0 -0 6.47566e-08)
(0 -0 7.32282e-08)
(0 -0 5.72684e-08)
(0 -0 1.97231e-08)
(0 -0 -1.98384e-08)
(0 -0 -3.01286e-09)
(0 -0 1.89563e-07)
(0 -0 7.33899e-07)
(0 -0 -4.1216e-06)
(0 -0 -2.53558e-06)
(0 -0 -1.94516e-06)
(0 -0 -1.62456e-06)
(0 -0 -1.4599e-06)
(0 -0 -1.41166e-06)
(0 -0 -1.37455e-06)
(0 -0 -1.30912e-06)
(0 -0 -1.20823e-06)
(0 -0 -1.07962e-06)
(0 -0 -9.36007e-07)
(0 -0 -7.90518e-07)
(0 -0 -6.54157e-07)
(0 -0 -5.28993e-07)
(0 -0 -4.12896e-07)
(0 -0 -3.09232e-07)
(0 -0 -2.25689e-07)
(0 -0 -1.65609e-07)
(0 -0 -1.28827e-07)
(0 -0 -1.15134e-07)
(0 -0 -1.24744e-07)
(0 -0 -1.53608e-07)
(0 -0 -1.80357e-07)
(0 -0 -1.44231e-07)
(0 -0 7.60717e-08)
(0 -0 6.5525e-07)
(0 -0 -4.50869e-06)
(0 -0 -2.76045e-06)
(0 -0 -2.11498e-06)
(0 -0 -1.78607e-06)
(0 -0 -1.61989e-06)
(0 -0 -1.5672e-06)
(0 -0 -1.51934e-06)
(0 -0 -1.44025e-06)
(0 -0 -1.32667e-06)
(0 -0 -1.18997e-06)
(0 -0 -1.04541e-06)
(0 -0 -9.08503e-07)
(0 -0 -7.92477e-07)
(0 -0 -6.87158e-07)
(0 -0 -5.78573e-07)
(0 -0 -4.66956e-07)
(0 -0 -3.69725e-07)
(0 -0 -3.02231e-07)
(0 -0 -2.59699e-07)
(0 -0 -2.39437e-07)
(0 -0 -2.40654e-07)
(0 -0 -2.58514e-07)
(0 -0 -2.70416e-07)
(0 -0 -2.13876e-07)
(0 -0 3.42157e-08)
(0 -0 6.47864e-07)
(0 -0 -4.97775e-06)
(0 -0 -3.00794e-06)
(0 -0 -2.12003e-06)
(0 -0 -1.80682e-06)
(0 -0 -1.65078e-06)
(0 -0 -1.5902e-06)
(0 -0 -1.52243e-06)
(0 -0 -1.42065e-06)
(0 -0 -1.29005e-06)
(0 -0 -1.14755e-06)
(0 -0 -1.0116e-06)
(0 -0 -9.02283e-07)
(0 -0 -8.26329e-07)
(0 -0 -7.7045e-07)
(0 -0 -6.89474e-07)
(0 -0 -5.84179e-07)
(0 -0 -4.78289e-07)
(0 -0 -3.95276e-07)
(0 -0 -3.48934e-07)
(0 -0 -3.23161e-07)
(0 -0 -3.15499e-07)
(0 -0 -3.21136e-07)
(0 -0 -3.17183e-07)
(0 -0 -2.40033e-07)
(0 -0 3.55032e-08)
(0 -0 6.79724e-07)
(0 -0 -5.18154e-06)
(0 -0 -3.17047e-06)
(0 -0 -2.11181e-06)
(0 -0 -1.62444e-06)
(0 -0 -1.48217e-06)
(0 -0 -1.40019e-06)
(0 -0 -1.30049e-06)
(0 -0 -1.17069e-06)
(0 -0 -1.02542e-06)
(0 -0 -8.86689e-07)
(0 -0 -7.75468e-07)
(0 -0 -7.10927e-07)
(0 -0 -7.02403e-07)
(0 -0 -7.2659e-07)
(0 -0 -6.84811e-07)
(0 -0 -5.84057e-07)
(0 -0 -5.09958e-07)
(0 -0 -4.466e-07)
(0 -0 -4.01543e-07)
(0 -0 -3.78157e-07)
(0 -0 -3.66732e-07)
(0 -0 -3.63585e-07)
(0 -0 -3.46731e-07)
(0 -0 -2.52006e-07)
(0 -0 4.71793e-08)
(0 -0 7.11673e-07)
(0 -0 -5.62278e-07)
(0 -0 -5.0101e-07)
(0 -0 -3.96539e-07)
(0 -0 -4.02674e-07)
(0 -0 -4.02516e-07)
(0 -0 -3.98125e-07)
(0 -0 -3.93963e-07)
(0 -0 -3.90839e-07)
(0 -0 -3.68632e-07)
(0 -0 -2.62723e-07)
(0 -0 4.64331e-08)
(0 -0 7.37756e-07)
(0 -0 3.18526e-06)
(0 -0 3.17393e-06)
(0 -0 3.16389e-06)
(0 -0 3.15415e-06)
(0 -0 3.1447e-06)
(0 -0 3.13528e-06)
(0 -0 3.12609e-06)
(0 -0 3.11732e-06)
(0 -0 3.10907e-06)
(0 -0 3.10137e-06)
(0 -0 3.09413e-06)
(0 -0 3.0872e-06)
(0 -0 3.08042e-06)
(0 -0 3.07364e-06)
(0 -0 3.06673e-06)
(0 -0 3.05962e-06)
(0 -0 3.05226e-06)
(0 -0 3.04462e-06)
(0 -0 3.03672e-06)
(0 -0 3.02866e-06)
(0 -0 3.02088e-06)
(0 -0 3.01467e-06)
(0 -0 3.01305e-06)
(0 -0 3.02169e-06)
(0 -0 3.04898e-06)
(0 -0 3.10349e-06)
(0 -0 4.70483e-06)
(0 -0 4.68176e-06)
(0 -0 4.66097e-06)
(0 -0 4.64085e-06)
(0 -0 4.62183e-06)
(0 -0 4.60306e-06)
(0 -0 4.58486e-06)
(0 -0 4.56756e-06)
(0 -0 4.55134e-06)
(0 -0 4.53615e-06)
(0 -0 4.52178e-06)
(0 -0 4.50793e-06)
(0 -0 4.49429e-06)
(0 -0 4.48059e-06)
(0 -0 4.46666e-06)
(0 -0 4.45237e-06)
(0 -0 4.43769e-06)
(0 -0 4.42253e-06)
(0 -0 4.40679e-06)
(0 -0 4.39034e-06)
(0 -0 4.37341e-06)
(0 -0 4.35764e-06)
(0 -0 4.34797e-06)
(0 -0 4.35536e-06)
(0 -0 4.39816e-06)
(0 -0 4.49889e-06)
(0 -0 1.3932e-06)
(0 -0 1.37193e-06)
(0 -0 1.3527e-06)
(0 -0 1.33446e-06)
(0 -0 1.31834e-06)
(0 -0 1.30283e-06)
(0 -0 1.28812e-06)
(0 -0 1.27434e-06)
(0 -0 1.26148e-06)
(0 -0 1.24937e-06)
(0 -0 1.23773e-06)
(0 -0 1.22627e-06)
(0 -0 1.21473e-06)
(0 -0 1.20297e-06)
(0 -0 1.19094e-06)
(0 -0 1.17863e-06)
(0 -0 1.16605e-06)
(0 -0 1.15304e-06)
(0 -0 1.13915e-06)
(0 -0 1.1235e-06)
(0 -0 1.10482e-06)
(0 -0 1.08228e-06)
(0 -0 1.0578e-06)
(0 -0 1.04012e-06)
(0 -0 1.04947e-06)
(0 -0 1.11871e-06)
(0 -0 -5.81904e-07)
(0 -0 -6.00151e-07)
(0 -0 -6.16128e-07)
(0 -0 -6.30549e-07)
(0 -0 -6.41651e-07)
(0 -0 -6.51751e-07)
(0 -0 -6.60953e-07)
(0 -0 -6.69436e-07)
(0 -0 -6.77486e-07)
(0 -0 -6.85438e-07)
(0 -0 -6.93595e-07)
(0 -0 -7.02156e-07)
(0 -0 -7.11186e-07)
(0 -0 -7.20628e-07)
(0 -0 -7.30348e-07)
(0 -0 -7.4021e-07)
(0 -0 -7.50188e-07)
(0 -0 -7.60538e-07)
(0 -0 -7.72086e-07)
(0 -0 -7.86607e-07)
(0 -0 -8.07087e-07)
(0 -0 -8.37236e-07)
(0 -0 -8.79043e-07)
(0 -0 -9.27259e-07)
(0 -0 -9.6129e-07)
(0 -0 -9.38739e-07)
(0 -0 -7.64121e-07)
(0 -0 -7.81805e-07)
(0 -0 -7.96715e-07)
(0 -0 -8.0929e-07)
(0 -0 -8.17301e-07)