/*--------------------------------*- C++ -*----------------------------------*\
| =========                 |                                                 |
| \\      /  F ield         | OpenFOAM: The Open Source CFD Toolbox           |
|  \\    /   O peration     | Version:  2412                                  |
|   \\  /    A nd           | Website:  www.openfoam.com                      |
|    \\/     M anipulation  |                                                 |
\*---------------------------------------------------------------------------*/
FoamFile
{
    version     2.0;
    format      ascii;
    arch        "LSB;label=32;scalar=64";
    class       volScalarField;
    location    "27";
    object      p;
}
// * * * * * * * * * * * * * * * * * * * * * * * * * * * * * * * * * * * * * //

dimensions      [0 2 -2 0 0 0 0];

internalField   nonuniform List<scalar> 
5285
(
4.02683e-06
4.12476e-06
4.17861e-06
4.19609e-06
4.18235e-06
4.14147e-06
4.07755e-06
3.99424e-06
3.89479e-06
3.78214e-06
3.6589e-06
3.52737e-06
3.38962e-06
3.24745e-06
3.10246e-06
2.95603e-06
2.8094e-06
2.66359e-06
2.51951e-06
2.37796e-06
2.23954e-06
2.1048e-06
1.9742e-06
1.84808e-06
1.72671e-06
1.61032e-06
1.49904e-06
1.39296e-06
1.29212e-06
1.19654e-06
1.10618e-06
3.38147e-06
3.53338e-06
3.63745e-06
3.70152e-06
3.73088e-06
3.72982e-06
3.70262e-06
3.6531e-06
3.58473e-06
3.50059e-06
3.40348e-06
3.29586e-06
3.17996e-06
3.05775e-06
2.93094e-06
2.80107e-06
2.66951e-06
2.53739e-06
2.40574e-06
2.27546e-06
2.14725e-06
2.02176e-06
1.89952e-06
1.78096e-06
1.66642e-06
1.55619e-06
1.45046e-06
1.34939e-06
1.25307e-06
1.16155e-06
1.07484e-06
9.92889e-07
9.15718e-07
8.43125e-07
7.75162e-07
7.11471e-07
6.52314e-07
5.96859e-07
5.46111e-07
4.97914e-07
4.55435e-07
4.13e-07
3.79289e-07
3.40146e-07
3.16996e-07
2.76933e-07
2.68433e-07
2.20428e-07
2.33986e-07
1.67554e-07
2.14126e-07
1.1566e-07
2.08402e-07
6.399e-08
2.14106e-07
1.49536e-08
2.25178e-07
-2.56857e-08
2.33633e-07
-5.1864e-08
2.34431e-07
-6.36592e-08
2.32938e-07
-7.44578e-08
2.50216e-07
-1.12272e-07
3.20708e-07
-2.14953e-07
4.90477e-07
-4.31403e-07
8.23279e-07
2.74219e-06
2.94674e-06
3.1e-06
3.2098e-06
3.28153e-06
3.31968e-06
3.32868e-06
3.31255e-06
3.2749e-06
3.219e-06
3.14779e-06
3.06392e-06
2.96974e-06
2.86737e-06
2.75868e-06
2.64533e-06
2.5288e-06
2.41037e-06
2.29115e-06
2.17214e-06
2.05417e-06
1.93795e-06
1.8241e-06
1.71313e-06
1.60545e-06
1.50142e-06
1.40128e-06
1.30526e-06
1.21349e-06
1.12608e-06
1.04305e-06
9.64437e-07
8.90261e-07
8.20361e-07
7.54817e-07
6.93305e-07
6.36101e-07
5.82403e-07
5.33226e-07
4.86455e-07
4.45224e-07
4.03958e-07
3.71216e-07
3.33056e-07
3.1062e-07
2.71425e-07
2.63383e-07
2.16219e-07
2.29948e-07
1.64412e-07
2.10847e-07
1.13391e-07
2.057e-07
6.23999e-08
2.1186e-07
1.38482e-08
2.23329e-07
-2.64843e-08
2.32109e-07
-5.24376e-08
2.33066e-07
-6.39691e-08
2.31482e-07
-7.43619e-08
2.4831e-07
-1.1143e-07
3.17585e-07
-2.12359e-07
4.84719e-07
-4.25812e-07
8.13806e-07
2.1099e-06
2.36578e-06
2.56723e-06
2.7218e-06
2.83509e-06
2.91176e-06
2.95639e-06
2.97315e-06
2.96582e-06
2.93783e-06
2.89225e-06
2.8319e-06
2.75927e-06
2.67661e-06
2.58594e-06
2.48903e-06
2.38748e-06
2.28269e-06
2.17588e-06
2.06815e-06
1.96041e-06
1.85347e-06
1.74803e-06
1.64467e-06
1.54388e-06
1.44607e-06
1.35157e-06
1.26062e-06
1.17343e-06
1.09016e-06
1.01084e-06
9.35598e-07
8.64441e-07
7.97263e-07
7.34165e-07
6.74857e-07
6.19629e-07
5.67714e-07
5.20128e-07
4.74802e-07
4.34837e-07
3.94758e-07
3.63e-07
3.25838e-07
3.04128e-07
2.65816e-07
2.58238e-07
2.11932e-07
2.25831e-07
1.61212e-07
2.07501e-07
1.11082e-07
2.0294e-07
6.07847e-08
2.09564e-07
1.27287e-08
2.21435e-07
-2.72866e-08
2.30539e-07
-5.30019e-08
2.31645e-07
-6.42411e-08
2.29936e-07
-7.41848e-08
2.46263e-07
-1.10452e-07
3.14251e-07
-2.0955e-07
4.78616e-07
-4.1987e-07
8.0367e-07
1.48556e-06
1.79169e-06
2.04009e-06
2.2384e-06
2.39235e-06
2.50677e-06
2.58637e-06
2.63548e-06
2.65801e-06
2.65752e-06
2.63727e-06
2.60017e-06
2.54887e-06
2.48576e-06
2.41296e-06
2.33238e-06
2.24574e-06
2.15453e-06
2.06009e-06
1.96361e-06
1.86608e-06
1.76842e-06
1.6714e-06
1.57566e-06
1.48178e-06
1.39021e-06
1.30135e-06
1.21551e-06
1.13293e-06
1.05381e-06
9.78246e-07
9.06405e-07
8.38285e-07
7.73851e-07
7.13223e-07
6.56143e-07
6.02913e-07
5.52802e-07
5.06826e-07
4.62964e-07
4.24283e-07
3.85405e-07
3.54646e-07
3.18498e-07
2.97524e-07
2.6011e-07
2.53002e-07
2.0757e-07
2.21638e-07
1.57958e-07
2.04091e-07
1.08735e-07
2.00123e-07
5.91462e-08
2.07218e-07
1.15962e-08
2.19496e-07
-2.80916e-08
2.28924e-07
-5.35553e-08
2.30167e-07
-6.44726e-08
2.28296e-07
-7.39201e-08
2.44068e-07
-1.09325e-07
3.10692e-07
-2.06518e-07
4.72157e-07
-4.13574e-07
7.92864e-07
8.70748e-07
1.22555e-06
1.51957e-06
1.76048e-06
1.95412e-06
2.10545e-06
2.21931e-06
2.30014e-06
2.35201e-06
2.3786e-06
2.38329e-06
2.36914e-06
2.33892e-06
2.29514e-06
2.24005e-06
2.17567e-06
2.10382e-06
2.02612e-06
1.94398e-06
1.85869e-06
1.77136e-06
1.68296e-06
1.59434e-06
1.50622e-06
1.41924e-06
1.33393e-06
1.25073e-06
1.17001e-06
1.09205e-06
1.01711e-06
9.45315e-07
8.76865e-07
8.11808e-07
7.50142e-07
6.92007e-07
6.37176e-07
5.85964e-07
5.37677e-07
4.93328e-07
4.50948e-07
4.13567e-07
3.75906e-07
3.4616e-07
3.11039e-07
2.90812e-07
2.54311e-07
2.47677e-07
2.03137e-07
2.17372e-07
1.5465e-07
2.00618e-07
1.06352e-07
1.97251e-07
5.74857e-08
2.04824e-07
1.04523e-08
2.17514e-07
-2.88985e-08
2.27265e-07
-5.40956e-08
2.2863e-07
-6.466e-08
2.2656e-07
-7.35592e-08
2.41717e-07
-1.08038e-07
3.06899e-07
-2.03248e-07
4.65337e-07
-4.06914e-07
7.81387e-07
2.6616e-07
6.68015e-07
1.00628e-06
1.2886e-06
1.52091e-06
1.70826e-06
1.85561e-06
1.96752e-06
2.04816e-06
2.10135e-06
2.13059e-06
2.13905e-06
2.12962e-06
2.10494e-06
2.06736e-06
2.01903e-06
1.96185e-06
1.89755e-06
1.82764e-06
1.7535e-06
1.67631e-06
1.59713e-06
1.51689e-06
1.43639e-06
1.35632e-06
1.27726e-06
1.19973e-06
1.12413e-06
1.05081e-06
9.80068e-07
9.12059e-07
8.47027e-07
7.85056e-07
7.26176e-07
6.70551e-07
6.17985e-07
5.68809e-07
5.22362e-07
4.79655e-07
4.38774e-07
4.02705e-07
3.66276e-07
3.37554e-07
3.03473e-07
2.84e-07
2.48427e-07
2.42269e-07
1.98637e-07
2.13037e-07
1.51295e-07
1.97086e-07
1.03936e-07
1.94325e-07
5.58054e-08
2.02382e-07
9.29801e-09
2.15488e-07
-2.97072e-08
2.25561e-07
-5.46233e-08
2.27032e-07
-6.48034e-08
2.24722e-07
-7.30994e-08
2.39195e-07
-1.06584e-07
3.02851e-07
-1.99737e-07
4.5814e-07
-3.99897e-07
7.6923e-07
-3.27481e-07
1.19805e-07
5.00894e-07
8.23397e-07
1.09328e-06
1.31571e-06
1.49574e-06
1.63802e-06
1.74684e-06
1.82612e-06
1.87946e-06
1.91016e-06
1.92122e-06
1.91538e-06
1.8951e-06
1.86263e-06
1.81997e-06
1.76895e-06
1.71118e-06
1.64811e-06
1.58101e-06
1.51102e-06
1.43914e-06
1.36623e-06
1.29305e-06
1.22025e-06
1.14838e-06
1.07792e-06
1.00925e-06
9.42707e-07
8.78503e-07
8.16906e-07
7.58037e-07
7.0196e-07
6.48861e-07
5.98576e-07
5.51452e-07
5.06861e-07
4.65812e-07
4.26443e-07
3.917e-07
3.56516e-07
3.28829e-07
2.95802e-07
2.77091e-07
2.42458e-07
2.3678e-07
1.94073e-07
2.08633e-07
1.47893e-07
1.93495e-07
1.01489e-07
1.91347e-07
5.41061e-08
1.99893e-07
8.13434e-09
2.13419e-07
-3.05167e-08
2.23813e-07
-5.51366e-08
2.25373e-07
-6.48986e-08
2.22777e-07
-7.2532e-08
2.36496e-07
-1.04949e-07
2.98541e-07
-1.95969e-07
4.50562e-07
-3.92514e-07
7.56403e-07
-9.09386e-07
-4.18336e-07
4.10514e-09
3.65486e-07
6.71811e-07
9.28334e-07
1.14018e-06
1.31209e-06
1.44844e-06
1.55325e-06
1.63022e-06
1.68276e-06
1.71397e-06
1.72668e-06
1.72346e-06
1.70665e-06
1.67835e-06
1.64048e-06
1.59474e-06
1.54265e-06
1.48557e-06
1.42471e-06
1.36114e-06
1.2958e-06
1.22949e-06
1.16294e-06
1.09673e-06
1.03141e-06
9.67392e-07
9.0506e-07
8.44671e-07
7.86521e-07
7.30767e-07
6.77507e-07
6.26949e-07
5.7896e-07
5.33901e-07
4.91181e-07
4.51803e-07
4.1396e-07
3.80556e-07
3.46631e-07
3.19989e-07
2.88027e-07
2.70086e-07
2.36409e-07
2.31212e-07
1.89446e-07
2.04162e-07
1.44445e-07
1.89845e-07
9.90104e-08
1.88317e-07
5.2389e-08
1.97358e-07
6.96228e-09
2.11308e-07
-3.13258e-08
2.2202e-07
-5.5634e-08
2.23651e-07
-6.4942e-08
2.20722e-07
-7.18492e-08
2.33611e-07
-1.0312e-07
2.93956e-07
-1.91934e-07
4.426e-07
-3.84763e-07
7.42916e-07
-1.4788e-06
-9.45708e-07
-4.8344e-07
-8.45271e-08
2.57056e-07
5.46635e-07
7.89393e-07
9.90146e-07
1.15334e-06
1.28309e-06
1.3832e-06
1.45714e-06
1.50812e-06
1.53906e-06
1.55264e-06
1.55127e-06
1.53715e-06
1.51227e-06
1.47843e-06
1.43722e-06
1.39008e-06
1.33829e-06
1.28299e-06
1.22517e-06
1.16572e-06
1.10538e-06
1.04483e-06
9.84642e-07
9.25276e-07
8.67159e-07
8.10591e-07
7.55895e-07
7.03267e-07
6.52834e-07
6.04829e-07
5.59149e-07
5.1617e-07
4.75332e-07
4.37639e-07
4.01335e-07
3.69281e-07
3.36625e-07
3.11039e-07
2.80154e-07
2.62989e-07
2.3028e-07
2.25567e-07
1.84758e-07
1.99627e-07
1.40953e-07
1.8614e-07
9.65034e-08
1.85235e-07
5.06554e-08
1.94776e-07
5.78289e-09
2.09154e-07
-3.21339e-08
2.20184e-07
-5.61142e-08
2.21867e-07
-6.49309e-08
2.18554e-07
-7.1044e-08
2.3053e-07
-1.01083e-07
2.89085e-07
-1.8762e-07
4.34251e-07
-3.76641e-07
7.28782e-07
-2.03502e-06
-1.46166e-06
-9.61133e-07
-5.2608e-07
-1.50465e-07
1.71089e-07
4.43814e-07
6.72582e-07
8.61908e-07
1.01598e-06
1.13867e-06
1.23356e-06
1.30392e-06
1.35276e-06
1.38284e-06
1.39667e-06
1.39652e-06
1.38447e-06
1.36238e-06
1.33194e-06
1.29464e-06
1.25185e-06
1.20476e-06
1.15442e-06
1.10177e-06
1.04764e-06
9.92728e-07
9.37655e-07
8.82936e-07
8.29033e-07
7.76288e-07
7.25051e-07
6.75557e-07
6.27961e-07
5.82519e-07
5.39158e-07
4.98268e-07
4.59325e-07
4.23327e-07
3.88574e-07
3.5788e-07
3.26506e-07
3.01984e-07
2.72188e-07
2.55805e-07
2.24077e-07
2.19848e-07
1.80012e-07
1.95029e-07
1.37419e-07
1.82379e-07
9.39691e-08
1.82105e-07
4.89067e-08
1.9215e-07
4.59721e-09
2.0696e-07
-3.29401e-08
2.18304e-07
-5.65765e-08
2.20018e-07
-6.48626e-08
2.16268e-07
-7.01096e-08
2.27245e-07
-9.88287e-08
2.83917e-07
-1.83019e-07
4.25509e-07
-3.68149e-07
7.14016e-07
-2.57741e-06
-1.96558e-06
-1.42841e-06
-9.58643e-07
-5.50263e-07
-1.97849e-07
1.03861e-07
3.59784e-07
5.74489e-07
7.52229e-07
8.96944e-07
1.01228e-06
1.10159e-06
1.16797e-06
1.21425e-06
1.24301e-06
1.25661e-06
1.2572e-06
1.24671e-06
1.22691e-06
1.19935e-06
1.16547e-06
1.12651e-06
1.0836e-06
1.03773e-06
9.8976e-07
9.4046e-07
8.90489e-07
8.40408e-07
7.90713e-07
7.4179e-07
6.94014e-07
6.47657e-07
6.02904e-07
5.60033e-07
5.19e-07
4.8021e-07
4.43171e-07
4.08878e-07
3.75685e-07
3.46361e-07
3.16279e-07
2.92829e-07
2.64133e-07
2.48537e-07
2.17802e-07
2.14059e-07
1.75212e-07
1.90371e-07
1.33846e-07
1.78564e-07
9.14093e-08
1.78925e-07
4.71442e-08
1.89479e-07
3.40629e-09
2.04724e-07
-3.37437e-08
2.16381e-07
-5.70197e-08
2.18104e-07
-6.47344e-08
2.13861e-07
-6.90393e-08
2.23748e-07
-9.63438e-08
2.78439e-07
-1.78121e-07
4.16374e-07
-3.59288e-07
6.98638e-07
-3.10537e-06
-2.45691e-06
-1.88473e-06
-1.38172e-06
-9.41874e-07
-5.5975e-07
-2.3007e-07
5.21154e-08
2.91418e-07
4.9214e-07
6.58283e-07
7.93552e-07
9.01373e-07
9.84905e-07
1.04705e-06
1.09046e-06
1.11757e-06
1.1306e-06
1.13154e-06
1.12223e-06
1.1043e-06
1.07923e-06
1.04833e-06
1.01278e-06
9.73629e-07
9.3179e-07
8.88073e-07
8.43184e-07
7.97725e-07
7.52229e-07
7.07123e-07
6.62806e-07
6.19588e-07
5.77682e-07
5.37387e-07
4.98688e-07
4.62005e-07
4.26879e-07
3.94299e-07
3.62677e-07
3.3473e-07
3.0595e-07
2.83579e-07
2.55993e-07
2.41189e-07
2.1146e-07
2.08202e-07
1.70359e-07
1.85654e-07
1.30236e-07
1.74698e-07
8.88258e-08
1.75698e-07
4.53693e-08
1.86764e-07
2.21121e-09
2.02448e-07
-3.45439e-08
2.14414e-07
-5.74431e-08
2.16126e-07
-6.45442e-08
2.1133e-07
-6.7827e-08
2.20028e-07
-9.36173e-08
2.72641e-07
-1.72916e-07
4.06843e-07
-3.5006e-07
6.82669e-07
-3.61835e-06
-2.93512e-06
-2.32961e-06
-1.79485e-06
-1.32486e-06
-9.14211e-07
-5.57604e-07
-2.50079e-07
1.30107e-08
2.36006e-07
4.22955e-07
5.77619e-07
7.0348e-07
8.03759e-07
8.8142e-07
9.39187e-07
9.79552e-07
1.0048e-06
1.01699e-06
1.01802e-06
1.00958e-06
9.93211e-07
9.70284e-07
9.42028e-07
9.09537e-07
8.73782e-07
8.35612e-07
7.95778e-07
7.54921e-07
7.13611e-07
6.72312e-07
6.31451e-07
5.91371e-07
5.52312e-07
5.14596e-07
4.78237e-07
4.43667e-07
4.1046e-07
3.79601e-07
3.49557e-07
3.22995e-07
2.95526e-07
2.7424e-07
2.47773e-07
2.33765e-07
2.05053e-07
2.0228e-07
1.65456e-07
1.80881e-07
1.2659e-07
1.70781e-07
8.62203e-08
1.72424e-07
4.35835e-08
1.84006e-07
1.01299e-09
2.00132e-07
-3.53401e-08
2.12406e-07
-5.78459e-08
2.14082e-07
-6.42898e-08
2.08672e-07
-6.64667e-08
2.16079e-07
-9.06384e-08
2.66514e-07
-1.67397e-07
3.96917e-07
-3.40469e-07
6.66133e-07
-4.11586e-06
-3.39974e-06
-2.76259e-06
-2.19759e-06
-1.69883e-06
-1.26085e-06
-8.78391e-07
-5.46471e-07
-2.6043e-07
-1.5896e-08
1.91216e-07
3.64711e-07
5.08123e-07
6.24723e-07
7.17534e-07
7.89337e-07
8.42685e-07
8.79915e-07
9.03161e-07
9.14363e-07
9.15279e-07
9.07497e-07
8.92444e-07
8.71401e-07
8.45509e-07
8.15784e-07
7.8312e-07
7.48309e-07
7.1203e-07
6.74888e-07
6.37384e-07
5.99971e-07
5.63024e-07
5.26812e-07
4.91676e-07
4.57659e-07
4.25206e-07
3.93924e-07
3.64792e-07
3.36333e-07
3.11163e-07
2.85011e-07
2.64817e-07
2.39478e-07
2.26269e-07
1.98585e-07
1.96297e-07
1.60507e-07
1.76054e-07
1.22911e-07
1.66816e-07
8.35945e-08
1.69104e-07
4.1788e-08
1.81206e-07
-1.87576e-10
1.97778e-07
-3.61319e-08
2.10356e-07
-5.82278e-08
2.11973e-07
-6.39697e-08
2.05885e-07
-6.49531e-08
2.11894e-07
-8.73975e-08
2.60047e-07
-1.61557e-07
3.86596e-07
-3.3052e-07
6.49056e-07
-4.59745e-06
-3.85034e-06
-3.18326e-06
-2.58956e-06
-2.06339e-06
-1.59932e-06
-1.1921e-06
-8.36754e-07
-5.2862e-07
-2.63304e-07
-3.66938e-08
1.5505e-07
3.15502e-07
4.47981e-07
5.55557e-07
6.41064e-07
7.07108e-07
7.5608e-07
7.90168e-07
8.11366e-07
8.21485e-07
8.22164e-07
8.1488e-07
8.00962e-07
7.81597e-07
7.57844e-07
7.30641e-07
7.00815e-07
6.69086e-07
6.3609e-07
6.02365e-07
5.68389e-07
5.34568e-07
5.01199e-07
4.68642e-07
4.36969e-07
4.06635e-07
3.77283e-07
3.49881e-07
3.23013e-07
2.9924e-07
2.74413e-07
2.55315e-07
2.31112e-07
2.18705e-07
1.9206e-07
1.90255e-07
1.55513e-07
1.71175e-07
1.19201e-07
1.62803e-07
8.095e-08
1.65741e-07
3.9984e-08
1.78365e-07
-1.38962e-09
1.95385e-07
-3.69189e-08
2.08265e-07
-5.85887e-08
2.09799e-07
-6.35825e-08
2.02966e-07
-6.32816e-08
2.07465e-07
-8.38856e-08
2.53235e-07
-1.55391e-07
3.75883e-07
-3.20219e-07
6.31463e-07
-5.06271e-06
-4.28651e-06
-3.59123e-06
-2.97038e-06
-2.4182e-06
-1.92929e-06
-1.49842e-06
-1.12064e-06
-7.91289e-07
-5.05968e-07
-2.60545e-07
-5.11548e-08
1.25811e-07
2.73708e-07
3.95649e-07
4.94512e-07
5.72951e-07
6.33407e-07
6.78116e-07
7.09121e-07
7.28283e-07
7.37288e-07
7.3766e-07
7.30773e-07
7.17856e-07
7.00012e-07
6.78216e-07
6.53334e-07
6.26121e-07
5.97247e-07
5.6728e-07
5.36727e-07
5.06024e-07
4.75491e-07
4.4551e-07
4.1618e-07
3.87966e-07
3.60545e-07
3.34878e-07
3.09605e-07
2.87233e-07
2.63738e-07
2.45739e-07
2.2268e-07
2.11077e-07
1.85481e-07
1.84157e-07
1.50478e-07
1.66246e-07
1.15463e-07
1.58744e-07
7.82897e-08
1.62332e-07
3.81746e-08
1.75482e-07
-2.58993e-09
1.92953e-07
-3.76979e-08
2.06132e-07
-5.89255e-08
2.07558e-07
-6.31246e-08
1.99911e-07
-6.14457e-08
2.02787e-07
-8.00926e-08
2.46066e-07
-1.4889e-07
3.64777e-07
-3.09567e-07
6.13376e-07
-5.5113e-06
-4.70792e-06
-3.98616e-06
-3.33973e-06
-2.76294e-06
-2.25045e-06
-1.79706e-06
-1.39785e-06
-1.04818e-06
-7.43653e-07
-4.80119e-07
-2.53701e-07
-6.07657e-08
1.02073e-07
2.37963e-07
3.49821e-07
4.40343e-07
5.12012e-07
5.67109e-07
6.07723e-07
6.35758e-07
6.52945e-07
6.60851e-07
6.60892e-07
6.54339e-07
6.42333e-07
6.25887e-07
6.05903e-07
5.83169e-07
5.58386e-07
5.32156e-07
5.05009e-07
4.77411e-07
4.49705e-07
4.22296e-07
3.95305e-07
3.6921e-07
3.43722e-07
3.19791e-07
2.96117e-07
2.7515e-07
2.52991e-07
2.36095e-07
2.14188e-07
2.03389e-07
1.78852e-07
1.78006e-07
1.45406e-07
1.61268e-07
1.11701e-07
1.54637e-07
7.56182e-08
1.58877e-07
3.63657e-08
1.72552e-07
-3.78155e-09
1.90476e-07
-3.84615e-08
2.0395e-07
-5.92307e-08
2.05244e-07
-6.25884e-08
1.96714e-07
-5.94368e-08
1.97848e-07
-7.60067e-08
2.38531e-07
-1.42044e-07
3.53272e-07
-2.98558e-07
5.94803e-07
-5.9429e-06
-5.11424e-06
-4.36774e-06
-3.69729e-06
-3.09732e-06
-2.56251e-06
-2.08775e-06
-1.66814e-06
-1.29907e-06
-9.76135e-07
-6.95209e-07
-4.52397e-07
-2.4405e-07
-6.67605e-08
8.2649e-08
2.07128e-07
3.09407e-07
3.92007e-07
4.57249e-07
5.07262e-07
5.43991e-07
5.69208e-07
5.84519e-07
5.91379e-07
5.91098e-07
5.84854e-07
5.73695e-07
5.58557e-07
5.40261e-07
5.19537e-07
4.97017e-07
4.73257e-07
4.48748e-07
4.2386e-07
3.99013e-07
3.74357e-07
3.5038e-07
3.26823e-07
3.0463e-07
2.82557e-07
2.62996e-07
2.42179e-07
2.26388e-07
2.05638e-07
1.95646e-07
1.72177e-07
1.71806e-07
1.40298e-07
1.56246e-07
1.07914e-07
1.50489e-07
7.29323e-08
1.55382e-07
3.45509e-08
1.69586e-07
-4.9739e-09
1.87966e-07
-3.92217e-08
2.01733e-07
-5.95175e-08
2.0287e-07
-6.19859e-08
1.93385e-07
-5.72626e-08
1.92655e-07
-7.1633e-08
2.30636e-07
-1.34864e-07
3.4139e-07
-2.87225e-07
5.75799e-07
-6.35724e-06
-5.50522e-06
-4.73571e-06
-4.04282e-06
-3.42109e-06
-2.86525e-06
-2.37026e-06
-1.93129e-06
-1.54373e-06
-1.20322e-06
-9.05628e-07
-6.47069e-07
-4.23883e-07
-2.32645e-07
-7.01574e-08
6.65558e-08
1.80255e-07
2.73495e-07
3.48629e-07
4.07823e-07
4.53059e-07
4.86145e-07
5.08724e-07
5.22289e-07
5.28183e-07
5.2762e-07
5.21681e-07
5.11333e-07
4.97429e-07
4.80727e-07
4.61888e-07
4.41493e-07
4.20055e-07
3.97971e-07
3.75678e-07
3.53351e-07
3.31486e-07
3.0986e-07
2.89404e-07
2.68933e-07
2.50782e-07
2.31306e-07
2.16625e-07
1.97035e-07
1.87855e-07
1.65452e-07
1.65568e-07
1.35144e-07
1.51198e-07
1.04081e-07
1.46331e-07
7.01959e-08
1.51896e-07
3.26745e-08
1.6665e-07
-6.2433e-09
1.85509e-07
-4.00703e-08
1.99579e-07
-5.98816e-08
2.00529e-07
-6.14027e-08
1.90003e-07
-5.49932e-08
1.87276e-07
-6.70389e-08
2.22464e-07
-1.27453e-07
3.29275e-07
-2.75745e-07
5.56585e-07
-6.74593e-06
-5.87293e-06
-5.0826e-06
-4.36927e-06
-3.7276e-06
-3.15243e-06
-2.63876e-06
-2.18183e-06
-1.77707e-06
-1.42016e-06
-1.10698e-06
-8.33639e-07
-5.96488e-07
-3.92092e-07
-2.17236e-07
-6.89277e-08
5.56187e-08
1.58983e-07
2.4355e-07
3.11515e-07
3.64892e-07
4.05521e-07
4.35079e-07
4.55091e-07
4.66933e-07
4.71849e-07
4.70952e-07
4.65237e-07
4.55586e-07
4.42785e-07
4.27519e-07
4.10393e-07
3.91945e-07
3.72592e-07
3.52789e-07
3.32734e-07
3.12934e-07
2.93195e-07
2.74438e-07
2.55536e-07
2.38766e-07
2.20606e-07
2.07017e-07
1.88559e-07
1.80184e-07
1.58819e-07
1.59429e-07
1.30049e-07
1.4624e-07
1.00274e-07
1.42264e-07
6.74499e-08
1.48514e-07
3.07497e-08
1.63841e-07
-7.5993e-09
1.83199e-07
-4.1033e-08
1.97577e-07
-6.03601e-08
1.98314e-07
-6.08897e-08
1.86673e-07
-5.27053e-08
1.8185e-07
-6.2347e-08
2.14219e-07
-1.20015e-07
3.17249e-07
-2.64441e-07
5.37651e-07
-7.11373e-06
-6.22177e-06
-5.41247e-06
-4.68039e-06
-4.02034e-06
-3.42726e-06
-2.89621e-06
-2.42251e-06
-2.00163e-06
-1.62928e-06
-1.30138e-06
-1.01406e-06
-7.63651e-07
-5.46733e-07
-3.60082e-07
-2.00687e-07
-6.57486e-08
4.73372e-08
1.40978e-07
2.17396e-07
2.78632e-07
3.26557e-07
3.62877e-07
3.89144e-07
4.06766e-07
4.17014e-07
4.2103e-07
4.19837e-07
4.14343e-07
4.05357e-07
3.93592e-07
3.79673e-07
3.6416e-07
3.47491e-07
3.30137e-07
3.12321e-07
2.94554e-07
2.76677e-07
2.59597e-07
2.42247e-07
2.26839e-07
2.09987e-07
1.97467e-07
1.8015e-07
1.72546e-07
1.52249e-07
1.53294e-07
1.25029e-07
1.41247e-07
9.65694e-08
1.38111e-07
6.4852e-08
1.44984e-07
2.90318e-08
1.60813e-07
-8.68904e-09
1.80612e-07
-4.16862e-08
1.95264e-07
-6.05109e-08
1.95775e-07
-6.00404e-08
1.82999e-07
-5.00413e-08
1.76008e-07
-5.71848e-08
2.05448e-07
-1.11998e-07
3.04581e-07
-2.52427e-07
5.17864e-07
-7.47176e-06
-6.56222e-06
-5.73522e-06
-4.98551e-06
-4.3081e-06
-3.69798e-06
-3.15033e-06
-2.66054e-06
-2.22413e-06
-1.83687e-06
-1.49469e-06
-1.19375e-06
-9.30407e-07
-7.01233e-07
-5.03005e-07
-3.32705e-07
-1.87519e-07
-6.4826e-08
3.78009e-08
1.22607e-07
1.91657e-07
2.46849e-07
2.89915e-07
3.22434e-07
3.45842e-07
3.61437e-07
3.70387e-07
3.7374e-07
3.72431e-07
3.67293e-07
3.59062e-07
3.48384e-07
3.3584e-07
3.2189e-07
3.07021e-07
2.91476e-07
2.75776e-07
2.59793e-07
2.44419e-07
2.28652e-07
2.14629e-07
1.99116e-07
1.87682e-07
1.71539e-07
1.6471e-07
1.45525e-07
1.46985e-07
1.19901e-07
1.36093e-07
9.28081e-08
1.33797e-07
6.22503e-08
1.41279e-07
2.73625e-08
1.57595e-07
-9.68531e-09
1.77821e-07
-4.22141e-08
1.92738e-07
-6.05089e-08
1.92999e-07
-5.8984e-08
1.79009e-07
-4.70533e-08
1.697e-07
-5.15305e-08
1.96036e-07
-1.03362e-07
2.91141e-07
-2.39662e-07
4.97005e-07
-7.81908e-06
-6.89341e-06
-6.05002e-06
-5.28389e-06
-4.59017e-06
-3.96397e-06
-3.40057e-06
-2.89542e-06
-2.44413e-06
-2.04251e-06
-1.68654e-06
-1.3724e-06
-1.09647e-06
-8.55342e-07
-6.45787e-07
-4.64789e-07
-3.09524e-07
-1.77361e-07
-6.58559e-08
2.72554e-08
1.0406e-07
1.66475e-07
2.1626e-07
2.55018e-07
2.84209e-07
3.05156e-07
3.19053e-07
3.26972e-07
3.29872e-07
3.28609e-07
3.23941e-07
3.16537e-07
3.06995e-07
2.95797e-07
2.83444e-07
2.70204e-07
2.56601e-07
2.42544e-07
2.28904e-07
2.14749e-07
2.02138e-07
1.87991e-07
1.77662e-07
1.62719e-07
1.56679e-07
1.38636e-07
1.40515e-07
1.14647e-07
1.30803e-07
8.8955e-08
1.29363e-07
5.95884e-08
1.37466e-07
2.56586e-08
1.5428e-07
-1.06997e-08
1.74946e-07
-4.27497e-08
1.90133e-07
-6.04927e-08
1.90116e-07
-5.78466e-08
1.74817e-07
-4.38464e-08
1.63021e-07
-4.54855e-08
1.86101e-07
-9.42532e-08
2.7712e-07
-2.26396e-07
4.75389e-07
-8.15466e-06
-7.21438e-06
-6.35602e-06
-5.57474e-06
-4.86585e-06
-4.22459e-06
-3.64633e-06
-3.12662e-06
-2.66115e-06
-2.24577e-06
-1.87654e-06
-1.54966e-06
-1.26155e-06
-1.00879e-06
-7.88195e-07
-5.96735e-07
-4.31587e-07
-2.90113e-07
-1.69857e-07
-6.85415e-08
1.59387e-08
8.55215e-08
1.41985e-07
1.86956e-07
2.21918e-07
2.48215e-07
2.67065e-07
2.79563e-07
2.8669e-07
2.89325e-07
2.88247e-07
2.84143e-07
2.77633e-07
2.69217e-07
2.59412e-07
2.48507e-07
2.37033e-07
2.24931e-07
2.13054e-07
2.00539e-07
1.89364e-07
1.76609e-07
1.67407e-07
1.53691e-07
1.48454e-07
1.31579e-07
1.33884e-07
1.09262e-07
1.25377e-07
8.50065e-08
1.24811e-07
5.68616e-08
1.3355e-07
2.39142e-08
1.50875e-07
-1.17395e-08
1.71995e-07
-4.33022e-08
1.8746e-07
-6.0473e-08
1.87138e-07
-5.66385e-08
1.70431e-07
-4.04278e-08
1.55976e-07
-3.90537e-08
1.75643e-07
-8.46772e-08
2.62527e-07
-2.12643e-07
4.53058e-07
-8.47746e-06
-7.52421e-06
-6.65236e-06
-5.85727e-06
-5.13442e-06
-4.47917e-06
-3.88701e-06
-3.35359e-06
-2.87469e-06
-2.44623e-06
-2.0643e-06
-1.72519e-06
-1.42531e-06
-1.16131e-06
-9.29981e-07
-7.28324e-07
-5.53516e-07
-4.02915e-07
-2.74059e-07
-1.64659e-07
-7.25973e-08
4.08018e-09
6.71698e-08
1.18317e-07
1.59026e-07
1.90662e-07
2.14463e-07
2.31546e-07
2.42914e-07
2.49463e-07
2.51996e-07
2.51218e-07
2.47766e-07
2.42162e-07
2.34932e-07
2.26393e-07
2.17075e-07
2.06958e-07
1.96871e-07
1.86023e-07
1.7631e-07
1.64972e-07
1.56919e-07
1.44453e-07
1.40035e-07
1.24353e-07
1.27091e-07
1.03748e-07
1.19813e-07
8.0964e-08
1.20139e-07
5.40739e-08
1.29523e-07
2.21363e-08
1.47369e-07
-1.27945e-08
1.68955e-07
-4.38597e-08
1.84705e-07
-6.04391e-08
1.84054e-07
-5.53512e-08
1.65843e-07
-3.67899e-08
1.48556e-07
-3.2226e-08
1.64651e-07
-7.46212e-08
2.47345e-07
-1.98384e-07
4.30007e-07
-8.78646e-06
-7.82193e-06
-6.93815e-06
-6.13066e-06
-5.39512e-06
-4.72703e-06
-4.12199e-06
-3.57577e-06
-3.08424e-06
-2.6434e-06
-2.24942e-06
-1.8986e-06
-1.58744e-06
-1.31259e-06
-1.07089e-06
-8.5933e-07
-6.75111e-07
-5.15592e-07
-3.78307e-07
-2.60964e-07
-1.61433e-07
-7.7749e-08
-8.10076e-09
4.9174e-08
9.55955e-08
1.32549e-07
1.61292e-07
1.82959e-07
1.98573e-07
2.09051e-07
2.15212e-07
2.1778e-07
2.1741e-07
2.14641e-07
2.10014e-07
2.03867e-07
1.96733e-07
1.88628e-07
1.80358e-07
1.71203e-07
1.62976e-07
1.53081e-07
1.46196e-07
1.35005e-07
1.31421e-07
1.16959e-07
1.20136e-07
9.81029e-08
1.14111e-07
7.68269e-08
1.15344e-07
5.12253e-08
1.25384e-07
2.03264e-08
1.43759e-07
-1.38622e-08
1.65823e-07
-4.44195e-08
1.81865e-07
-6.03894e-08
1.80862e-07
-5.39852e-08
1.61053e-07
-3.29343e-08
1.40762e-07
-2.50039e-08
1.53126e-07
-6.40865e-08
2.31575e-07
-1.83617e-07
4.06246e-07
-9.08063e-06
-8.1066e-06
-7.21251e-06
-6.3941e-06
-5.64721e-06
-4.96747e-06
-4.35064e-06
-3.79259e-06
-3.28929e-06
-2.83683e-06
-2.43145e-06
-2.06953e-06
-1.7476e-06
-1.46234e-06
-1.21064e-06
-9.89512e-07
-7.96161e-07
-6.27957e-07
-4.8244e-07
-3.57314e-07
-2.50445e-07
-1.5986e-07
-8.37349e-08
-2.03953e-08
3.16942e-08
7.39347e-08
1.076e-07
1.33843e-07
1.53703e-07
1.68115e-07
1.77916e-07
1.83847e-07
1.86579e-07
1.86668e-07
1.84668e-07
1.80938e-07
1.76014e-07
1.69946e-07
1.63519e-07
1.56082e-07
1.49365e-07
1.40936e-07
1.3524e-07
1.25348e-07
1.22614e-07
1.09396e-07
1.13019e-07
9.23263e-08
1.08272e-07
7.25937e-08
1.10428e-07
4.83145e-08
1.21133e-07
1.84836e-08
1.40045e-07
-1.49428e-08
1.62598e-07
-4.49824e-08
1.78942e-07
-6.03268e-08
1.77565e-07
-5.25457e-08
1.56066e-07
-2.88673e-08
1.326e-07
-1.73956e-08
1.41076e-07
-5.30826e-08
2.15225e-07
-1.68355e-07
3.81795e-07
-9.35892e-06
-8.37723e-06
-7.47454e-06
-6.64675e-06
-5.8899e-06
-5.19979e-06
-4.57231e-06
-4.00345e-06
-3.48929e-06
-3.02603e-06
-2.60997e-06
-2.23757e-06
-1.90542e-06
-1.61025e-06
-1.34896e-06
-1.11862e-06
-9.16445e-07
-7.39818e-07
-5.86287e-07
-4.53561e-07
-3.39505e-07
-2.42139e-07
-1.59635e-07
-9.03063e-08
-3.26062e-08
1.48798e-08
5.34394e-08
8.42413e-08
1.08341e-07
1.26688e-07
1.40136e-07
1.49443e-07
1.55292e-07
1.58258e-07
1.58906e-07
1.57615e-07
1.54926e-07
1.50919e-07
1.46359e-07
1.40664e-07
1.35479e-07
1.28539e-07
1.24054e-07
1.15482e-07
1.13615e-07
1.01664e-07
1.05742e-07
8.6417e-08
1.02296e-07
6.82632e-08
1.05391e-07
4.53402e-08
1.16771e-07
1.66071e-08
1.36226e-07
-1.60367e-08
1.59279e-07
-4.5549e-08
1.75936e-07
-6.0254e-08
1.74167e-07
-5.10383e-08
1.50888e-07
-2.45976e-08
1.24079e-07
-9.41303e-09
1.28513e-07
-4.1623e-08
1.98309e-07
-1.52609e-07
3.5667e-07
-9.62032e-06
-8.63289e-06
-7.72334e-06
-6.88778e-06
-6.12244e-06
-5.42328e-06
-4.78634e-06
-4.20775e-06
-3.6837e-06
-3.21049e-06
-2.78452e-06
-2.40232e-06
-2.06054e-06
-1.75597e-06
-1.48556e-06
-1.2464e-06
-1.03573e-06
-8.5097e-07
-6.8967e-07
-5.49548e-07
-4.28474e-07
-3.24469e-07
-2.35698e-07
-1.6047e-07
-9.72285e-08
-4.45495e-08
-1.13283e-09
3.4203e-08
6.2527e-08
8.48037e-08
1.01901e-07
1.14589e-07
1.23568e-07
1.29427e-07
1.32742e-07
1.33911e-07
1.33477e-07
1.31554e-07
1.28883e-07
1.24953e-07
1.21323e-07
1.15894e-07
1.1264e-07
1.05408e-07
1.04425e-07
9.37619e-08
9.83066e-08
8.03746e-08
9.61859e-08
6.38342e-08
1.00234e-07
4.23015e-08
1.12297e-07
1.46968e-08
1.32303e-07
-1.71434e-08
1.55866e-07
-4.61196e-08
1.72847e-07
-6.01735e-08
1.70672e-07
-4.94695e-08
1.45527e-07
-2.01358e-08
1.15212e-07
-1.0721e-09
1.15454e-07
-2.97256e-08
1.80843e-07
-1.36394e-07
3.30884e-07
-9.8638e-06
-8.87261e-06
-7.95802e-06
-7.11636e-06
-6.34405e-06
-5.63723e-06
-4.99208e-06
-4.40488e-06
-3.87196e-06
-3.38972e-06
-2.95465e-06
-2.56337e-06
-2.21259e-06
-1.89918e-06
-1.62013e-06
-1.37257e-06
-1.15379e-06
-9.61203e-07
-7.92401e-07
-6.45111e-07
-5.17209e-07
-4.06722e-07
-3.11814e-07
-2.3079e-07
-1.62091e-07
-1.04282e-07
-5.60563e-08
-1.62204e-08
1.63062e-08
4.25e-08
6.32414e-08
7.93147e-08
9.14306e-08
1.00195e-07
1.06191e-07
1.09838e-07
1.11679e-07
1.1186e-07
1.11099e-07
1.08955e-07
1.06901e-07
1.03003e-07
1.01e-07
9.51292e-08
9.50463e-08
8.56917e-08
9.07139e-08
7.41986e-08
8.99422e-08
5.9306e-08
9.49597e-08
3.91976e-08
1.07713e-07
1.27521e-08
1.28274e-07
-1.82626e-08
1.52359e-07
-4.6694e-08
1.69676e-07
-6.0088e-08
1.67084e-07
-4.78466e-08
1.39993e-07
-1.54951e-08
1.06015e-07
7.60683e-09
1.01921e-07
-1.7413e-08
1.62848e-07
-1.19732e-07
3.04452e-07
-1.00884e-05
-9.09545e-06
-8.1777e-06
-7.33165e-06
-6.55395e-06
-5.8409e-06
-5.18886e-06
-4.59424e-06
-4.05351e-06
-3.56319e-06
-3.11988e-06
-2.72028e-06
-2.36119e-06
-2.03954e-06
-1.75237e-06
-1.49687e-06
-1.27036e-06
-1.0703e-06
-8.94287e-07
-7.40078e-07
-6.05561e-07
-4.88767e-07
-3.87867e-07
-3.01168e-07
-2.27106e-07
-1.64244e-07
-1.11266e-07
-6.69732e-08
-3.02743e-08
-1.82791e-10
2.41925e-08
4.36475e-08
5.89037e-08
7.05803e-08
7.92699e-08
8.54092e-08
8.95425e-08
9.18457e-08
9.30153e-08
9.26762e-08
9.22188e-08
8.98709e-08
8.91389e-08
8.46469e-08
8.54827e-08
7.74542e-08
8.29665e-08
6.78893e-08
8.35675e-08
5.46779e-08
8.95689e-08
3.60275e-08
1.03019e-07
1.07731e-08
1.24141e-07
-1.93937e-08
1.48756e-07
-4.72723e-08
1.66425e-07
-6.00003e-08
1.63407e-07
-4.61778e-08
1.34296e-07
-1.06911e-08
9.65069e-08
1.65988e-08
8.79413e-08
-4.71357e-09
1.44348e-07
-1.02645e-07
2.7739e-07
-1.02931e-05
-9.30049e-06
-8.38151e-06
-7.53285e-06
-6.75138e-06
-6.0336e-06
-5.37602e-06
-4.77522e-06
-4.2278e-06
-3.7304e-06
-3.27975e-06
-2.87263e-06
-2.50594e-06
-2.17668e-06
-1.88196e-06
-1.61901e-06
-1.3852e-06
-1.17803e-06
-9.95128e-07
-8.34273e-07
-6.93371e-07
-5.70467e-07
-4.63739e-07
-3.71498e-07
-2.92183e-07
-2.24355e-07
-1.66694e-07
-1.17996e-07
-7.71636e-08
-4.32012e-08
-1.52087e-08
7.61936e-09
2.60142e-08
4.06072e-08
5.19986e-08
6.06419e-08
6.70817e-08
7.15231e-08
7.46407e-08
7.61243e-08
7.72829e-08
7.65028e-08
7.70612e-08
7.39647e-08
7.57371e-08
6.9051e-08
7.50673e-08
6.14469e-08
7.70641e-08
4.99494e-08
8.40642e-08
3.27907e-08
9.82178e-08
8.75933e-09
1.19902e-07
-2.05361e-08
1.45056e-07
-4.7854e-08
1.63093e-07
-5.99135e-08
1.59649e-07
-4.44726e-08
1.2845e-07
-5.74217e-09
8.6712e-08
2.58743e-08
7.35488e-08
8.3392e-09
1.25376e-07
-8.51623e-08
2.4972e-07
-1.0477e-05
-9.48685e-06
-8.56859e-06
-7.71915e-06
-6.93559e-06
-6.21461e-06
-5.55289e-06
-4.94719e-06
-4.39424e-06
-3.89082e-06
-3.43377e-06
-3.01999e-06
-2.64646e-06
-2.31026e-06
-2.00857e-06
-1.73869e-06
-1.49804e-06
-1.28416e-06
-1.09472e-06
-9.27512e-07
-7.80479e-07
-6.51678e-07
-5.39303e-07
-4.41671e-07
-3.57226e-07
-2.84531e-07
-2.22268e-07
-1.69227e-07
-1.24308e-07
-8.65086e-08
-5.49226e-08
-2.87356e-08
-7.20886e-09
1.03e-08
2.43978e-08
3.55534e-08
4.43114e-08
5.09044e-08
5.5986e-08
5.9308e-08
6.21005e-08
6.29045e-08
6.47722e-08
6.30863e-08
6.58136e-08
6.04842e-08
6.70196e-08
5.48723e-08
7.04352e-08
4.51203e-08
7.8448e-08
2.94864e-08
9.33104e-08
6.7108e-09
1.1556e-07
-2.16891e-08
1.41261e-07
-4.84389e-08
1.59681e-07
-5.98305e-08
1.55813e-07
-4.27411e-08
1.22471e-07
-6.69161e-10
7.66573e-08
3.53991e-08
5.87817e-08
2.1706e-08
1.05968e-07
-6.73196e-08
2.21465e-07
-1.06392e-05
-9.65366e-06
-8.73813e-06
-7.88976e-06
-7.10583e-06
-6.38324e-06
-5.71885e-06
-5.10956e-06
-4.55229e-06
-4.04395e-06
-3.58148e-06
-3.16192e-06
-2.78234e-06
-2.4399e-06