/*--------------------------------*- C++ -*----------------------------------*\
| =========                 |                                                 |
| \\      /  F ield         | OpenFOAM: The Open Source CFD Toolbox           |
|  \\    /   O peration     | Version:  2412                                  |
|   \\  /    A nd           | Website:  www.openfoam.com                      |
|    \\/     M anipulation  |                                                 |
\*---------------------------------------------------------------------------*/
FoamFile
{
    version     2.0;
    format      ascii;
    arch        "LSB;label=32;scalar=64";
    class       surfaceScalarField;
    location    "11";
    object      phi;
}
// * * * * * * * * * * * * * * * * * * * * * * * * * * * * * * * * * * * * * //

dimensions      [0 3 -1 0 0 0 0];

oriented        oriented;

internalField   nonuniform List<scalar> 
10423
(
0.00522899
0.000189473
-0.00522839
0.00522974
0.000195551
0.00523066
0.000201832
0.00523176
0.000208321
0.00523306
0.000215022
0.00523458
0.000221937
0.00523633
0.000229068
0.00523833
0.000236417
0.00524061
0.000243985
0.00524318
0.000251771
0.00524608
0.000259775
0.00524932
0.000267993
0.00525293
0.000276424
0.00525694
0.000285062
0.00526137
0.000293903
0.000302939
0.00523504
0.000188678
-0.00523425
0.005236
0.000194596
0.00523712
0.000200706
0.00523843
0.000207008
0.00523995
0.000213507
0.00524168
0.000220203
0.00524365
0.000227098
0.00524588
0.000234192
0.00524838
0.000241485
0.00525118
0.000248975
0.00525429
0.00025666
0.00525775
0.000264536
0.00526157
0.0002726
0.00526579
0.000280845
0.00527043
0.000289265
0.00029785
0.00524094
0.000187696
-0.00523995
0.00524208
0.000193453
0.0052434
0.000199387
0.00524491
0.0002055
0.00524662
0.000211794
0.00524855
0.000218269
0.00525072
0.000224927
0.00525315
0.000231765
0.00525585
0.000238784
0.00525885
0.000245979
0.00526216
0.000253348
0.00526581
0.000260887
0.00526982
0.000268589
0.00527422
0.000276448
0.00527903
0.000284455
0.000292602
0.00524667
0.000186541
-0.00524551
0.00524799
0.000192133
0.00524948
0.000197889
0.00525117
0.00020381
0.00525307
0.000209898
0.00525519
0.000216153
0.00525754
0.000222573
0.00526015
0.000229157
0.00526303
0.000235902
0.0052662
0.000242806
0.00526969
0.000249863
0.00527351
0.000257069
0.00527768
0.000264416
0.00528223
0.000271896
0.00528718
0.000279502
0.000287222
0.00525223
0.000185224
-0.00525092
0.00525372
0.000190649
0.00525538
0.000196226
0.00525724
0.000201955
0.0052593
0.000207837
0.00526158
0.00021387
0.0052641
0.000220053
0.00526687
0.000226384
0.00526992
0.000232859
0.00527325
0.000239475
0.00527688
0.000246225
0.00528085
0.000253104
0.00528516
0.000260103
0.00528984
0.000267215
0.00529492
0.00027443
0.000281736
0.00525763
0.000183757
-0.00525617
0.00525927
0.000189014
0.00526108
0.000194411
0.00526309
0.000199947
0.0052653
0.000205623
0.00526774
0.000211436
0.00527041
0.000217384
0.00527333
0.000223465
0.00527651
0.000229673
0.00527998
0.000236005
0.00528375
0.000242454
0.00528784
0.000249013
0.00529227
0.000255673
0.00529706
0.000262427
0.00530223
0.000269262
0.000276168
0.00526287
0.000182151
-0.00526126
0.00526464
0.00018724
0.00526659
0.000192456
0.00526874
0.000197801
0.00527109
0.000203271
0.00527366
0.000208866
0.00527646
0.000214582
0.00527951
0.000220415
0.00528283
0.000226361
0.00528642
0.000232415
0.0052903
0.000238568
0.0052945
0.000244815
0.00529903
0.000251146
0.0053039
0.000257551
0.00530914
0.00026402
0.00027054
0.00526793
0.000180418
-0.00526619
0.00526983
0.000185338
0.00527191
0.000190375
0.00527418
0.000195528
0.00527666
0.000200795
0.00527935
0.000206174
0.00528227
0.00021166
0.00528544
0.000217251
0.00528886
0.000222939
0.00529255
0.00022872
0.00529654
0.000234586
0.00530082
0.000240529
0.00530543
0.000246539
0.00531037
0.000252608
0.00531567
0.000258722
0.000264871
0.00527282
0.000178567
-0.00527097
0.00527484
0.000183319
0.00527704
0.000188178
0.00527942
0.000193142
0.00528201
0.000198208
0.00528481
0.000203373
0.00528784
0.000208634
0.0052911
0.000213986
0.00529462
0.000219422
0.0052984
0.000224937
0.00530247
0.000230522
0.00530682
0.00023617
0.00531149
0.000241871
0.00531649
0.000247614
0.00532182
0.000253387
0.000259179
0.00527754
0.00017661
-0.00527558
0.00527967
0.000181195
0.00528197
0.000185877
0.00528446
0.000190653
0.00528714
0.000195521
0.00529004
0.000200476
0.00529316
0.000205516
0.00529651
0.000210634
0.00530011
0.000215824
0.00530397
0.000221079
0.0053081
0.000226393
0.00531251
0.000231755
0.00531723
0.000237156
0.00532226
0.000242585
0.00532761
0.000248031
0.000253481
0.0052821
0.000174554
-0.00528004
0.00528432
0.000178974
0.00528671
0.000183481
0.00528929
0.000188073
0.00529207
0.000192745
0.00529505
0.000197495
0.00529825
0.000202318
0.00530167
0.000207207
0.00530534
0.000212158
0.00530926
0.000217162
0.00531344
0.000222211
0.0053179
0.000227296
0.00532264
0.000232409
0.00532769
0.000237536
0.00533306
0.000242668
0.000247791
0.00528648
0.000172411
-0.00528434
0.00528879
0.000176668
0.00529127
0.000181002
0.00529393
0.000185412
0.00529678
0.000189893
0.00529984
0.000194441
0.0053031
0.000199052
0.00530659
0.000203719
0.00531031
0.000208436
0.00531428
0.000213195
0.0053185
0.000217989
0.00532299
0.000222808
0.00532776
0.000227642
0.00533281
0.00023248
0.00533817
0.000237311
0.000242121
0.00529071
0.000170188
-0.00528848
0.00529309
0.000174284
0.00529564
0.000178449
0.00529838
0.00018268
0.00530129
0.000186973
0.00530441
0.000191325
0.00530773
0.000195729
0.00531127
0.000200179
0.00531504
0.00020467
0.00531904
0.000209193
0.00532329
0.00021374
0.0053278
0.000218302
0.00533257
0.000222868
0.00533762
0.000227429
0.00534296
0.000231972
0.000236484
0.00529477
0.000167895
-0.00529247
0.00529722
0.000171832
0.00529984
0.000175831
0.00530263
0.000179887
0.00530561
0.000183997
0.00530878
0.000188156
0.00531215
0.000192358
0.00531573
0.000196599
0.00531953
0.00020087
0.00532356
0.000205164
0.00532782
0.000209473
0.00533234
0.000213788
0.00533711
0.000218098
0.00534214
0.000222393
0.00534745
0.000226661
0.00023089
0.00529867
0.000165539
-0.00529632
0.00530118
0.000169321
0.00530386
0.000173156
0.0053067
0.000177041
0.00530973
0.000180972
0.00531294
0.000184943
0.00531635
0.00018895
0.00531996
0.000192987
0.00532379
0.000197046
0.00532783
0.00020112
0.0053321
0.0002052
0.00533662
0.000209277
0.00534137
0.000213341
0.00534638
0.000217382
0.00535166
0.000221388
0.000225347
0.00530243
0.000163129
-0.00530002
0.00530499
0.000166758
0.00530771
0.000170433
0.0053106
0.000174151
0.00531367
0.000177907
0.00531691
0.000181697
0.00532035
0.000185514
0.00532398
0.000189353
0.00532782
0.000193207
0.00533187
0.000197068
0.00533615
0.000200928
0.00534065
0.000204777
0.00534538
0.000208606
0.00535036
0.000212405
0.00535558
0.000216162
0.000219865
0.00530603
0.000160671
-0.00530358
0.00530864
0.000164151
0.0053114
0.00016767
0.00531433
0.000171225
0.00531743
0.000174811
0.0053207
0.000178424
0.00532416
0.000182057
0.0053278
0.000185706
0.00533165
0.000189362
0.0053357
0.000193018
0.00533996
0.000196666
0.00534444
0.000200297
0.00534914
0.000203902
0.00535408
0.00020747
0.00535925
0.000210989
0.000214449
0.0053095
0.000158174
-0.005307
0.00531215
0.000161507
0.00531494
0.000164874
0.0053179
0.00016827
0.00532102
0.000171691
0.00532431
0.000175133
0.00532778
0.000178588
0.00533143
0.000182052
0.00533527
0.000185518
0.00533931
0.000188977
0.00534356
0.000192423
0.00534801
0.000195845
0.00535268
0.000199235
0.00535756
0.000202583
0.00536268
0.000205877
0.000209107
0.00531284
0.000155642
-0.00531031
0.00531551
0.000158833
0.00531833
0.000162052
0.00532131
0.000165294
0.00532445
0.000168555
0.00532775
0.000171831
0.00533122
0.000175114
0.00533487
0.000178401
0.00533871
0.000181683
0.00534273
0.000184953
0.00534695
0.000188204
0.00535137
0.000191427
0.00535599
0.000194612
0.00536083
0.000197751
0.00536587
0.000200832
0.000203844
0.00531605
-0.00531349
0.000153084
0.00531875
0.000156137
0.00532159
0.000159211
0.00532458
0.000162303
0.00532773
0.000165409
0.00533103
0.000168524
0.0053345
0.000171642
0.00533815
0.000174757
0.00534197
0.000177863
0.00534597
0.000180952
0.00535016
0.000184017
0.00535453
0.000187049
0.00535911
0.00019004
0.00536388
0.00019298
0.00536885
0.000195858
0.000198664
0.00529282
4.22472e-06
0.00529261
1.16006e-05
0.00529224
1.99984e-05
0.0052915
3.47713e-05
0.00529009
5.90025e-05
0.00528782
8.95899e-05
0.00528475
0.000118992
0.00528115
0.000140104
0.000149768
0.00529282
4.3008e-06
0.00529262
1.17981e-05
0.00529226
2.03568e-05
0.00529153
3.55028e-05
0.00529012
6.0413e-05
0.00528784
9.18748e-05
0.00528473
0.000122095
0.0052811
0.000143741
0.00527731
0.000153558
0.00527369
0.000152709
0.00527046
0.000144886
0.00526769
0.000134122
0.00526534
0.000123451
0.00526335
0.000114538
0.00526163
0.000107937
0.0052601
0.00010353
0.00525868
0.000100917
0.00525735
9.9649e-05
0.00525606
9.9345e-05
0.00525479
9.97192e-05
0.00525354
0.000100574
0.0052523
0.000101776
0.00525106
0.00010324
0.00524982
0.000104906
0.00524858
0.000106735
0.00524735
0.000108698
0.00524612
0.000110772
0.0052449
0.000112939
0.00524368
0.000115185
0.00524249
0.000117497
0.00524131
0.000119865
0.00524014
0.000122278
0.00523901
0.000124729
0.0052379
0.000127209
0.00523682
0.000129711
0.00523578
0.000132229
0.00523477
0.000134757
0.00523381
0.000137287
0.0052329
0.000139816
0.00523205
0.000142337
0.00523124
0.000144846
0.0052305
0.000147337
0.00522983
0.000149806
0.00522922
0.000152247
0.00522869
0.000154657
0.00522824
0.000157031
0.00522787
0.000159364
0.00522759
0.000161652
0.0052274
0.000163892
0.0052273
0.000166079
0.0052273
0.000168208
0.00522741
0.000170277
0.00522763
0.000172282
0.00522795
0.000174219
0.000176084
0.00529282
4.37423e-06
0.00529263
1.19869e-05
0.00529229
2.07023e-05
0.00529156
3.62253e-05
0.00529015
6.18287e-05
0.00528784
9.41838e-05
0.0052847
0.000125236
0.00528102
0.000147415
0.00527721
0.000157373
0.0052736
0.000156322
0.0052704
0.000148086
0.00526768
0.00013684
0.00526541
0.000125716
0.00526352
0.000116431
0.00526191
0.000109552
0.00526048
0.000104953
0.00525918
0.000102215
0.00525796
0.000100871
0.00525678
0.000100523
0.00525563
0.000100873
0.00525449
0.000101715
0.00525335
0.000102912
0.00525222
0.000104373
0.00525109
0.000106038
0.00524996
0.000107865
0.00524883
0.000109824
0.00524771
0.000111891
0.0052466
0.000114049
0.0052455
0.000116283
0.00524442
0.000118579
0.00524336
0.000120927
0.00524232
0.000123318
0.00524131
0.000125741
0.00524032
0.000128191
0.00523938
0.000130658
0.00523847
0.000133137
0.00523761
0.000135621
0.00523679
0.000138104
0.00523602
0.000140581
0.00523531
0.000143047
0.00523466
0.000145495
0.00523408
0.000147922
0.00523356
0.000150321
0.00523312
0.00015269
0.00523276
0.000155022
0.00523247
0.000157314
0.00523228
0.000159562
0.00523217
0.00016176
0.00523215
0.000163906
0.00523224
0.000165995
0.00523242
0.000168023
0.00523271
0.000169987
0.00523311
0.000171884
0.00523362
0.000173708
0.000175459
0.00529282
4.445e-06
0.00529264
1.21667e-05
0.00529231
2.10349e-05
0.0052916
3.69398e-05
0.00529017
6.32525e-05
0.00528783
9.65218e-05
0.00528465
0.000128421
0.00528093
0.000151134
0.00527709
0.000161215
0.00527347
0.000159935
0.0052703
0.000151256
0.00526765
0.000139498
0.00526547
0.000127896
0.00526367
0.000118223
0.00526217
0.000111056
0.00526086
0.000106261
0.00525968
0.000103397
0.00525857
0.000101977
0.00525751
0.000101586
0.00525647
0.000101914
0.00525544
0.000102747
0.00525441
0.00010394
0.00525338
0.0001054
0.00525236
0.000107063
0.00525134
0.000108888
0.00525032
0.000110842
0.00524931
0.000112902
0.00524831
0.000115049
0.00524732
0.000117268
0.00524635
0.000119547
0.00524541
0.000121873
0.00524449
0.000124238
0.0052436
0.000126632
0.00524274
0.000129047
0.00524192
0.000131476
0.00524115
0.000133913
0.00524042
0.00013635
0.00523974
0.000138783
0.00523912
0.000141205
0.00523855
0.000143611
0.00523805
0.000145996
0.00523762
0.000148355
0.00523726
0.000150683
0.00523697
0.000152975
0.00523676
0.000155228
0.00523664
0.000157436
0.00523661
0.000159595
0.00523667
0.000161702
0.00523682
0.000163752
0.00523708
0.000165741
0.00523743
0.000167667
0.0052379
0.000169525
0.00523847
0.000171311
0.00523915
0.000173024
0.000174659
0.00529283
4.5131e-06
0.00529266
1.23373e-05
0.00529234
2.13544e-05
0.00529163
3.76474e-05
0.00529019
6.4688e-05
0.00528782
9.88949e-05
0.00528458
0.000131657
0.00528081
0.000154903
0.00527694
0.000165091
0.00527332
0.000163551
0.00527018
0.000154395
0.00526759
0.000142092
0.0052655
0.000129988
0.00526381
0.000119909
0.00526242
0.000112445
0.00526124
0.000107449
0.00526018
0.000104458
0.00525919
0.000102964
0.00525824
0.000102533
0.00525731
0.000102842
0.00525639
0.000103667
0.00525547
0.000104859
0.00525456
0.000106319
0.00525364
0.000107982
0.00525272
0.000109804
0.00525181
0.000111753
0.00525091
0.000113804
0.00525002
0.000115939
0.00524914
0.000118143
0.00524829
0.000120401
0.00524746
0.000122704
0.00524665
0.00012504
0.00524588
0.000127402
0.00524515
0.00012978
0.00524446
0.000132169
0.00524381
0.00013456
0.00524321
0.000136948
0.00524267
0.000139327
0.00524218
0.000141691
0.00524176
0.000144035
0.0052414
0.000146354
0.00524111
0.000148643
0.0052409
0.000150896
0.00524076
0.00015311
0.00524071
0.00015528
0.00524075
0.000157402
0.00524087
0.000159471
0.00524109
0.000161484
0.0052414
0.000163437
0.00524182
0.000165326
0.00524234
0.000167148
0.00524296
0.000168898
0.0052437
0.000170575
0.00524455
0.000172175
0.000173695
0.00529283
4.5785e-06
0.00529267
1.24986e-05
0.00529236
2.1661e-05
0.00529166
3.83498e-05
0.00529021
6.61394e-05
0.00528779
0.00010131
0.0052845
0.000134953
0.00528067
0.000158731
0.00527676
0.000169004
0.00527314
0.000167171
0.00527003
0.000157499
0.00526751
0.000144618
0.00526551
0.000131985
0.00526394
0.000121482
0.00526267
0.000113712
0.00526161
0.000108511
0.00526067
0.000105395
0.0052598
0.000103829
0.00525898
0.000103362
0.00525816
0.000103656
0.00525735
0.000104476
0.00525654
0.000105669
0.00525573
0.00010713
0.00525492
0.000108795
0.00525411
0.000110615
0.0052533
0.000112558
0.00525251
0.000114601
0.00525172
0.000116723
0.00525096
0.000118909
0.00525021
0.000121145
0.0052495
0.000123422
0.00524881
0.000125727
0.00524816
0.000128054
0.00524754
0.000130393
0.00524697
0.000132738
0.00524645
0.000135082
0.00524598
0.000137418
0.00524557
0.000139741
0.00524522
0.000142045
0.00524493
0.000144324
0.00524471
0.000146574
0.00524456
0.00014879
0.00524449
0.000150967
0.0052445
0.0001531
0.00524459
0.000155186
0.00524478
0.000157219
0.00524505
0.000159197
0.00524542
0.000161115
0.00524589
0.00016297
0.00524645
0.000164757
0.00524713
0.000166475
0.00524791
0.000168118
0.0052488
0.000169685
0.0052498
0.000171173
0.000172578
0.00529283
4.64121e-06
0.00529268
1.26502e-05
0.00529239
2.19547e-05
0.00529169
3.9049e-05
0.00529021
6.76123e-05
0.00528775
0.000103776
0.00528438
0.000138317
0.00528049
0.000162625
0.00527653
0.00017296
0.00527291
0.000170796
0.00526984
0.000160566
0.00526739
0.000147069
0.00526549
0.00013388
0.00526404
0.000122937
0.0052629
0.000114851
0.00526197
0.000109443
0.00526116
0.000106202
0.00526042
0.000104569
0.00525971
0.00010407
0.00525902
0.000104353
0.00525832
0.000105173
0.00525762
0.000106369
0.00525691
0.000107835
0.00525621
0.000109502
0.0052555
0.000111321
0.0052548
0.000113259
0.00525411
0.000115292
0.00525343
0.0001174
0.00525277
0.000119567
0.00525214
0.00012178
0.00525153
0.000124029
0.00525096
0.000126302
0.00525042
0.000128592
0.00524992
0.00013089
0.00524947
0.000133189
0.00524907
0.000135482
0.00524873
0.000137764
0.00524844
0.000140028
0.00524821
0.000142269
0.00524806
0.000144482
0.00524797
0.000146661
0.00524796
0.000148802
0.00524802
0.0001509
0.00524817
0.000152951
0.00524841
0.000154951
0.00524873
0.000156895
0.00524915
0.00015878
0.00524966
0.000160603
0.00525027
0.000162358
0.00525099
0.000164044
0.0052518
0.000165657
0.00525273
0.000167193
0.00525376
0.000168651
0.00525491
0.000170027
0.000171319
0.00529283
4.70118e-06
0.00529269
1.2792e-05
0.00529241
2.22357e-05
0.00529171
3.97476e-05
0.00529021
6.91131e-05
0.00528769
0.000106303
0.00528424
0.000141762
0.00528027
0.000166596
0.00527627
0.000176963
0.00527264
0.000174425
0.00526961
0.000163592
0.00526724
0.00014944
0.00526545
0.000135666
0.00526413
0.000124264
0.00526312
0.000115854
0.00526233
0.000110239
0.00526165
0.000106877
0.00526104
0.000105181
0.00526046
0.000104656
0.00525987
0.000104933
0.00525929
0.000105758
0.0052587
0.000106962
0.0052581
0.000108434
0.0052575
0.000110105
0.00525689
0.000111923
0.0052563
0.000113857
0.00525571
0.00011588
0.00525513
0.000117973
0.00525458
0.00012012
0.00525405
0.000122309
0.00525355
0.000124528
0.00525309
0.000126767
0.00525266
0.000129017
0.00525228
0.000131272
0.00525195
0.000133523
0.00525166
0.000135764
0.00525144
0.000137989
0.00525127
0.000140193
0.00525117
0.000142369
0.00525114
0.000144513
0.00525118
0.000146619
0.0052513
0.000148684
0.0052515
0.000150702
0.00525178
0.00015267
0.00525215
0.000154582
0.00525261
0.000156437
0.00525316
0.000158228
0.00525381
0.000159954
0.00525456
0.000161611
0.00525541
0.000163195
0.00525636
0.000164703
0.00525742
0.000166133
0.00525859
0.000167482
0.00525987
0.000168748
0.000169928
0.00529284
4.75841e-06
0.00529271
1.29235e-05
0.00529244
2.25044e-05
0.00529174
4.04488e-05
0.0052902
7.06492e-05
0.0052876
0.000108901
0.00528406
0.0001453
0.00528001
0.000170651
0.00527595
0.000181019
0.00527232
0.000178059
0.00526934
0.000166572
0.00526706
0.000151722
0.00526539
0.000137332
0.0052642
0.000125455
0.00526334
0.000116715
0.00526268
0.000110893
0.00526215
0.000107414
0.00526166
0.000105662
0.0052612
0.000105118
0.00526074
0.000105396
0.00526027
0.00010623
0.00525978
0.000107446
0.00525929
0.000108928
0.00525879
0.000110604
0.00525829
0.000112424
0.00525779
0.000114354
0.00525731
0.000116367
0.00525683
0.000118444
0.00525638
0.000120571
0.00525596
0.000122733
0.00525557
0.000124921
0.00525521
0.000127124
0.00525489
0.000129334
0.00525462
0.000131543
0.0052544
0.000133745
0.00525423
0.000135932
0.00525412
0.000138099
0.00525407
0.00014024
0.00525409
0.000142349
0.00525418
0.000144423
0.00525435
0.000146455
0.00525459
0.000148442
0.00525491
0.000150379
0.00525532
0.000152262
0.00525582
0.000154087
0.0052564
0.00015585
0.00525708
0.000157548
0.00525786
0.000159177
0.00525874
0.000160734
0.00525972
0.000162217
0.0052608
0.000163622
0.00526198
0.000164946
0.00526328
0.000166188
0.00526468
0.000167345
0.000168415
0.00529284
4.81284e-06
0.00529272
1.30444e-05
0.00529246
2.27614e-05
0.00529175
4.11564e-05
0.00529017
7.22294e-05
0.00528749
0.000111584
0.00528385
0.000148942
0.0052797
0.000174802
0.00527559
0.000185132
0.00527195
0.000181694
0.00526902
0.000169499
0.00526684
0.000153906
0.0052653
0.00013887
0.00526425
0.000126501
0.00526354
0.000117426
0.00526304
0.000111399
0.00526264
0.00010781
0.00526229
0.000106011
0.00526196
0.000105456
0.00526161
0.000105741
0.00526125
0.000106591
0.00526087
0.000107822
0.00526048
0.000109318
0.00526009
0.000111003
0.00525968
0.000112825
0.00525929
0.000114751
0.0052589
0.000116754
0.00525853
0.000118816
0.00525818
0.000120921
0.00525785
0.000123057
0.00525756
0.000125212
0.00525731
0.000127378
0.0052571
0.000129545
0.00525694
0.000131708
0.00525682
0.000133858
0.00525677
0.000135989
0.00525677
0.000138096
0.00525684
0.000140173
0.00525697
0.000142214
0.00525718
0.000144216
0.00525746
0.000146173
0.00525782
0.000148081
0.00525826
0.000149936
0.00525879
0.000151733
0.00525941
0.00015347
0.00526012
0.000155142
0.00526092
0.000156746
0.00526182
0.000158279
0.00526281
0.000159737
0.00526391
0.000161119
0.00526511
0.000162421
0.00526641
0.000163642
0.00526783
0.000164778
0.00526934
0.000165827
0.000166789
0.00529284
4.86443e-06
0.00529273
1.31545e-05
0.00529249
2.30072e-05
0.00529177
4.18746e-05
0.00529013
7.38629e-05
0.00528735
0.000114364
0.00528359
0.000152704
0.00527934
0.000179058
0.00527517
0.000189304
0.00527153
0.000185329
0.00526866
0.000172366
0.00526659
0.000155982
0.00526519
0.000140268
0.0052643
0.000127391
0.00526375
0.000117979
0.0052634
0.000111751
0.00526314
0.000108061
0.00526293
0.000106224
0.00526272
0.000105667
0.00526249
0.000105969
0.00526224
0.000106841
0.00526197
0.000108094
0.00526168
0.000109607
0.00526138
0.000111302
0.00526108
0.000113128
0.00526078
0.000115051
0.00526049
0.000117045
0.00526022
0.00011909
0.00525996
0.000121173
0.00525974
0.000123281
0.00525955
0.000125403
0.0052594
0.00012753
0.00525929
0.000129654
0.00525923
0.000131768
0.00525922
0.000133865
0.00525927
0.000135939
0.00525938
0.000137985
0.00525956
0.000139997
0.0052598
0.000141969
0.00526012
0.000143898
0.00526051
0.000145779
0.00526099
0.000147607
0.00526154
0.000149379
0.00526219
0.000151091
0.00526292
0.000152739
0.00526374
0.00015432
0.00526466
0.00015583
0.00526567
0.000157267
0.00526678
0.000158627
0.00526799
0.000159909
0.0052693
0.00016111
0.00527071
0.000162227
0.00527223
0.000163259
0.00527386
0.000164204
0.00016506
0.00529285
4.91311e-06
0.00529275
1.32533e-05
0.00529251
2.32427e-05
0.00529178
4.2608e-05
0.00529008
7.55595e-05
0.00528719
0.000117255
0.0052833
0.000156596
0.00527893
0.000183426
0.0052747
0.000193538
0.00527107
0.000188959
0.00526827
0.000175162
0.00526631
0.000157937
0.00526507
0.000141515
0.00526434
0.000128118
0.00526395
0.000118366
0.00526376
0.000111945
0.00526366
0.000108164
0.00526358
0.0001063
0.0052635
0.000105752
0.00526338
0.000106079
0.00526324
0.000106981
0.00526308
0.000108261
0.00526289
0.000109795
0.00526269
0.000111504
0.00526248
0.000113336
0.00526227
0.000115257
0.00526208
0.000117241
0.0052619
0.000119271
0.00526174
0.000121331
0.00526161
0.00012341
0.00526152
0.000125497
0.00526146
0.000127585
0.00526145
0.000129664
0.00526149
0.000131728
0.00526159
0.000133772
0.00526174
0.000135787
0.00526195
0.00013777
0.00526223
0.000139716
0.00526258
0.000141618
0.00526301
0.000143473
0.00526351
0.000145277
0.00526409
0.000147025
0.00526476
0.000148714
0.00526551
0.00015034
0.00526635
0.000151899
0.00526728
0.000153389
0.0052683
0.000154806
0.00526942
0.000156148
0.00527064
0.000157412
0.00527195
0.000158595
0.00527336
0.000159696
0.00527488
0.000160712
0.0052765
0.000161642
0.00527822
0.000162484
0.000163237
0.00529285
4.95882e-06
0.00529276
1.33406e-05
0.00529253
2.3469e-05
0.00529178
4.33616e-05
0.00529001
7.73289e-05
0.005287
0.000120268
0.00528296
0.000160631
0.00527848
0.000187913
0.00527418
0.000197833
0.00527056
0.000192576
0.00526785
0.000177878
0.00526602
0.000159761
0.00526494
0.000142601
0.00526439
0.00012867
0.00526417
0.000118581
0.00526414
0.000111976
0.00526419
0.000108117
0.00526425
0.00010624
0.00526429
0.000105713
0.00526429
0.000106075
0.00526426
0.000107013
0.00526419
0.000108326
0.0052641
0.000109885
0.00526399
0.000111611
0.00526388
0.000113451
0.00526377
0.000115371
0.00526366
0.000117346
0.00526357
0.000119359
0.00526351
0.000121396
0.00526347
0.000123446
0.00526347
0.000125498
0.00526351
0.000127545
0.00526359
0.000129578
0.00526373
0.000131592
0.00526392
0.00013358
0.00526417
0.000135537
0.00526449
0.000137456
0.00526487
0.000139334
0.00526532
0.000141166
0.00526585
0.000142947
0.00526645
0.000144674
0.00526713
0.000146341
0.0052679
0.000147947
0.00526875
0.000149487
0.0052697
0.000150958
0.00527073
0.000152357
0.00527185
0.000153682
0.00527307
0.00015493
0.00527438
0.000156097
0.0052758
0.000157184
0.00527731
0.000158186
0.00527891
0.000159103
0.00528062
0.000159933
0.00528243
0.000160675
0.000161328
0.00529285
5.00146e-06
0.00529278
1.34162e-05
0.00529256
2.3687e-05
0.00529178
4.41397e-05
0.00528993
7.91793e-05
0.00528678
0.000123415
0.0052826
0.000164816
0.00527799
0.000192523
0.00527363
0.000202185
0.00527004
0.000196174
0.00526741
0.000180504
0.00526573
0.000161443
0.00526482
0.000143515
0.00526444
0.000129042
0.00526441
0.000118619
0.00526454
0.000111842
0.00526474
0.00010792
0.00526493
0.000106043
0.0052651
0.00010555
0.00526521
0.000105957
0.00526529
0.000106941
0.00526532
0.000108293
0.00526532
0.000109882
0.00526531
0.000111626
0.00526528
0.000113476
0.00526526
0.000115396
0.00526524
0.000117363
0.00526524
0.00011936
0.00526526
0.000121373
0.00526532
0.000123393
0.00526541
0.000125409
0.00526554
0.000127414
0.00526571
0.000129401
0.00526594
0.000131363
0.00526623
0.000133295
0.00526657
0.000135192
0.00526698
0.000137047
0.00526746
0.000138857
0.00526801
0.000140618
0.00526863
0.000142324
0.00526933
0.000143973
0.00527011
0.00014556
0.00527098
0.000147083
0.00527192
0.000148538
0.00527296
0.000149921
0.00527409
0.000151231
0.00527531
0.000152464
0.00527662
0.000153618
0.00527802
0.000154692
0.00527952
0.000155683
0.00528112
0.000156589
0.00528282
0.000157409
0.00528461
0.000158142
0.0052865
0.000158786
0.000159341
0.00529285
5.04096e-06
0.00529279
1.34798e-05
0.00529258
2.38979e-05
0.00529177
4.49461e-05
0.00528984
8.11172e-05
0.00528655
0.000126701
0.00528221
0.000169156
0.00527748
0.000197253
0.00527307
0.00020659
0.00526951
0.000199742
0.00526698
0.000183027
0.00526545
0.000162972
0.00526472
0.00014425
0.00526453
0.000129228
0.00526467
0.000118479
0.00526497
0.000111543
0.00526532
0.000107573
0.00526565
0.000105713
0.00526593
0.000105267
0.00526616
0.00010573
0.00526633
0.000106768
0.00526646
0.000108164
0.00526656
0.000109787
0.00526663
0.000111554
0.00526669
0.000113414
0.00526675
0.000115335
0.00526682
0.000117294
0.0052669
0.000119275
0.00526701
0.000121265
0.00526715
0.000123254
0.00526733
0.000125233
0.00526755
0.000127196
0.00526781
0.000129135
0.00526813
0.000131046
0.0052685
0.000132921
0.00526894
0.000134756
0.00526944
0.000136547
0.00527001
0.000138289
0.00527065
0.000139978
0.00527136
0.00014161
0.00527215
0.000143181
0.00527303
0.000144688
0.00527398
0.000146128
0.00527502
0.000147498
0.00527615
0.000148794
0.00527736
0.000150015
0.00527867
0.000151158
0.00528007
0.000152221
0.00528156
0.000153202
0.00528314
0.000154099
0.00528482
0.000154911
0.00528659
0.000155636
0.00528846
0.000156274
0.00529042
0.000156824
0.000157284
0.00529286
5.07724e-06
0.00529281
1.35315e-05
0.0052926
2.41026e-05
0.00529176
4.57832e-05
0.00528974
8.31455e-05
0.00528631
0.000130128
0.00528182
0.000173648
0.00527697
0.000202098
0.00527253
0.000211037
0.005269
0.00020327
0.00526659
0.000185439
0.00526522
0.000164341
0.00526467
0.000144801
0.00526467
0.000129227
0.00526499
0.000118159
0.00526545
0.000111081
0.00526594
0.000107081
0.0052664
0.000105253
0.0052668
0.000104867
0.00526713
0.000105398
0.0052674
0.000106497
0.00526762
0.000107944
0.00526781
0.000109604
0.00526796
0.000111397
0.00526811
0.00011327
0.00526825
0.000115193
0.0052684
0.000117144
0.00526857
0.000119109
0.00526876
0.000121074
0.00526898
0.000123032
0.00526924
0.000124975
0.00526954
0.000126894
0.00526989
0.000128786
0.00527029
0.000130643
0.00527075
0.000132461
0.00527127
0.000134235
0.00527186
0.000135961
0.00527251
0.000137634
0.00527324
0.000139252
0.00527404
0.000140809
0.00527492
0.000142303
0.00527588
0.00014373
0.00527692
0.000145088
0.00527804
0.000146373
0.00527925
0.000147584
0.00528055
0.000148717
0.00528194
0.000149771
0.00528341
0.000150744
0.00528498
0.000151634
0.00528664
0.00015244
0.00528839
0.00015316
0.00529024
0.000153793
0.00529217
0.000154339
0.0052942
0.000154796
0.000155166
0.00529286
5.11026e-06
0.00529282
1.35714e-05
0.00529262
2.43016e-05
0.00529175
4.66514e-05
0.00528964
8.52625e-05
0.00528607
0.000133691
0.00528144
0.000178281
0.00527649
0.000207045
0.00527202
0.000215513
0.00526854
0.000206746
0.00526625
0.000187731
0.00526505
0.000165545
0.00526468
0.000145167
0.00526487
0.00012904
0.00526536
0.000117666
0.00526598
0.000110461
0.00526661
0.000106448
0.0052672
0.00010467
0.00526771
0.000104358
0.00526814
0.000104966
0.0052685
0.000106134
0.00526881
0.000107637
0.00526907
0.000109339
0.00526931
0.000111159
0.00526953
0.000113047
0.00526976
0.000114973
0.00526998
0.000116916
0.00527023
0.000118864
0.0052705
0.000120805
0.0052708
0.000122732
0.00527114
0.000124636
0.00527152
0.000126513
0.00527195
0.000128355
0.00527243
0.000130159
0.00527297
0.00013192
0.00527357
0.000133632
0.00527424
0.000135293
0.00527498
0.000136898
0.00527579
0.000138443
0.00527667
0.000139926
0.00527763
0.000141343
0.00527867
0.000142691
0.00527979
0.000143967
0.00528099
0.00014517
0.00528228
0.000146295
0.00528366
0.000147343
0.00528512
0.00014831
0.00528667
0.000149194
0.00528831
0.000149995
0.00529003
0.000150712
0.00529185
0.000151342
0.00529376
0.000151886
0.00529576
0.000152342
0.00529784
0.000152711
0.000152992
0.00529286
5.13998e-06
0.00529284
1.36e-05
0.00529264
2.44954e-05
0.00529174
4.75488e-05
0.00528955
8.7461e-05
0.00528586
0.000137375
0.0052811
0.000183038
0.00527608
0.000212072
0.00527159
0.000219999
0.00526818
0.000210156
0.00526602
0.000189895
0.00526498
0.000166584
0.00526479
0.000145352
0.00526516
0.000128674
0.00526582
0.000117007
0.00526659
0.000109693
0.00526735
0.000105685
0.00526805
0.000103971
0.00526866
0.000103745
0.00526919
0.00010444
0.00526963
0.000105685
0.00527002
0.000107249
0.00527037
0.000108996
0.00527068
0.000110845
0.00527098
0.000112749
0.00527127
0.000114678
0.00527157
0.000116614
0.00527189
0.000118545
0.00527224
0.000120462
0.00527261
0.000122356
0.00527303
0.000124223
0.00527348
0.000126055
0.00527399
0.000127849
0.00527455
0.000129599
0.00527517
0.000131301
0.00527585
0.000132952
0.0052766
0.000134547
0.00527741
0.000136084
0.0052783
0.000137558
0.00527925
0.000138967
0.00528029
0.000140307
0.00528141
0.000141577
0.0052826
0.000142773
0.00528388
0.000143893
0.00528524
0.000144935
0.00528668
0.000145898
0.00528821
0.000146779
0.00528983
0.000147577
0.00529153
0.000148292
0.00529332
0.000148921
0.0052952
0.000149464
0.00529717
0.000149921
0.00529922
0.000150291
0.00530135
0.000150574
0.00015077
0.00529287
5.16642e-06
0.00529285
1.36177e-05
0.00529266
2.46837e-05
0.00529174
4.84704e-05
0.00528947
8.97274e-05
0.00528569
0.000141158
0.00528084
0.00018789
0.00527576
0.000217153
0.00527128
0.000224473
0.00526795
0.000213488
0.00526592
0.000191929
0.00526504
0.000167462
0.00526503
0.000145367
0.00526556
0.000128143
0.00526637
0.000116195
0.00526727
0.000108789
0.00526815
0.000104803
0.00526896
0.000103167
0.00526966