/*--------------------------------*- C++ -*----------------------------------*\
| =========                 |                                                 |
| \\      /  F ield         | OpenFOAM: The Open Source CFD Toolbox           |
|  \\    /   O peration     | Version:  2412                                  |
|   \\  /    A nd           | Website:  www.openfoam.com                      |
|    \\/     M anipulation  |                                                 |
\*---------------------------------------------------------------------------*/
FoamFile
{
    version     2.0;
    format      ascii;
    arch        "LSB;label=32;scalar=64";
    class       volVectorField;
    location    "9";
    object      U;
}
// * * * * * * * * * * * * * * * * * * * * * * * * * * * * * * * * * * * * * //

dimensions      [0 1 -1 0 0 0 0];

internalField   nonuniform List<vector> 
5285
(
(0.0991843 -1.06421e-05 0)
(0.0992339 -9.98473e-06 0)
(0.0992813 -9.36191e-06 0)
(0.0993266 -8.77205e-06 0)
(0.09937 -8.21355e-06 0)
(0.0994114 -7.68491e-06 0)
(0.0994509 -7.18473e-06 0)
(0.0994885 -6.71171e-06 0)
(0.0995244 -6.26467e-06 0)
(0.0995586 -5.8425e-06 0)
(0.0995911 -5.44413e-06 0)
(0.099622 -5.06852e-06 0)
(0.0996514 -4.71462e-06 0)
(0.0996792 -4.38133e-06 0)
(0.0997056 -4.06753e-06 0)
(0.0997306 -3.7721e-06 0)
(0.0997542 -3.49401e-06 0)
(0.0997766 -3.23238e-06 0)
(0.0997977 -2.98656e-06 0)
(0.0998175 -2.75614e-06 0)
(0.0998362 -2.54062e-06 0)
(0.0998538 -2.33924e-06 0)
(0.0998704 -2.15105e-06 0)
(0.0998858 -1.97494e-06 0)
(0.0999003 -1.80986e-06 0)
(0.0999139 -1.65485e-06 0)
(0.0999265 -1.50964e-06 0)
(0.0999383 -1.37434e-06 0)
(0.0999492 -1.24922e-06 0)
(0.0999594 -1.13389e-06 0)
(0.0999688 -1.02823e-06 0)
(0.0999775 -9.31205e-07 0)
(0.0999856 -8.42136e-07 0)
(0.099993 -7.59798e-07 0)
(0.0999998 -6.83757e-07 0)
(0.100006 -6.13567e-07 0)
(0.100012 -5.4902e-07 0)
(0.100017 -4.89944e-07 0)
(0.100022 -4.36875e-07 0)
(0.100026 -3.89243e-07 0)
(0.10003 -3.46921e-07 0)
(0.100034 -3.09332e-07 0)
(0.100037 -2.76004e-07 0)
(0.10004 -2.46211e-07 0)
(0.100043 -2.2051e-07 0)
(0.100045 -1.98618e-07 0)
(0.100048 -1.81221e-07 0)
(0.10005 -1.67513e-07 0)
(0.100052 -1.58425e-07 0)
(0.100054 -1.53268e-07 0)
(0.100056 -1.52028e-07 0)
(0.100058 -1.55269e-07 0)
(0.10006 -1.60433e-07 0)
(0.100062 -1.7332e-07 0)
(0.100066 -1.85486e-07 0)
(0.100066 -2.1378e-07 0)
(0.100074 -2.27549e-07 0)
(0.10007 -2.81728e-07 0)
(0.100087 -2.86516e-07 0)
(0.100071 -3.87023e-07 0)
(0.100109 -3.642e-07 0)
(0.100069 -5.33956e-07 0)
(0.100143 -4.77944e-07 0)
(0.100065 -7.12497e-07 0)
(0.100186 -6.45557e-07 0)
(0.100072 -9.26555e-07 0)
(0.100225 -7.88002e-07 0)
(0.100102 -1.36419e-06 0)
(0.10026 -6.81516e-07 0)
(0.100149 -1.02843e-06 0)
(0.100272 -2.53386e-06 0)
(0.0991849 -3.19345e-05 0)
(0.0992344 -2.99658e-05 0)
(0.0992818 -2.81005e-05 0)
(0.0993271 -2.63342e-05 0)
(0.0993704 -2.46621e-05 0)
(0.0994118 -2.30798e-05 0)
(0.0994512 -2.15833e-05 0)
(0.0994889 -2.01684e-05 0)
(0.0995247 -1.88314e-05 0)
(0.0995589 -1.75687e-05 0)
(0.0995914 -1.6377e-05 0)
(0.0996223 -1.52528e-05 0)
(0.0996516 -1.41928e-05 0)
(0.0996794 -1.3194e-05 0)
(0.0997058 -1.22532e-05 0)
(0.0997308 -1.13674e-05 0)
(0.0997544 -1.05339e-05 0)
(0.0997767 -9.75e-06 0)
(0.0997978 -9.01352e-06 0)
(0.0998177 -8.32248e-06 0)
(0.0998364 -7.6749e-06 0)
(0.099854 -7.06857e-06 0)
(0.0998705 -6.50121e-06 0)
(0.0998859 -5.97044e-06 0)
(0.0999004 -5.47403e-06 0)
(0.099914 -5.00989e-06 0)
(0.0999266 -4.57658e-06 0)
(0.0999384 -4.17308e-06 0)
(0.0999493 -3.79859e-06 0)
(0.0999595 -3.45175e-06 0)
(0.0999689 -3.13155e-06 0)
(0.0999776 -2.83611e-06 0)
(0.0999857 -2.56402e-06 0)
(0.099993 -2.31324e-06 0)
(0.0999999 -2.08249e-06 0)
(0.100006 -1.87061e-06 0)
(0.100012 -1.67657e-06 0)
(0.100017 -1.49961e-06 0)
(0.100022 -1.33967e-06 0)
(0.100026 -1.19561e-06 0)
(0.10003 -1.06672e-06 0)
(0.100034 -9.51961e-07 0)
(0.100037 -8.50627e-07 0)
(0.10004 -7.61556e-07 0)
(0.100043 -6.84943e-07 0)
(0.100045 -6.20128e-07 0)
(0.100048 -5.67497e-07 0)
(0.10005 -5.26204e-07 0)
(0.100052 -4.96967e-07 0)
(0.100054 -4.79508e-07 0)
(0.100056 -4.72897e-07 0)
(0.100058 -4.79925e-07 0)
(0.10006 -4.94296e-07 0)
(0.100062 -5.30992e-07 0)
(0.100066 -5.64841e-07 0)
(0.100067 -6.47146e-07 0)
(0.100074 -6.86229e-07 0)
(0.10007 -8.47403e-07 0)
(0.100087 -8.58718e-07 0)
(0.100071 -1.15997e-06 0)
(0.100109 -1.09158e-06 0)
(0.100069 -1.59912e-06 0)
(0.100143 -1.42989e-06 0)
(0.100065 -2.13514e-06 0)
(0.100186 -1.93349e-06 0)
(0.100072 -2.7683e-06 0)
(0.100225 -2.35608e-06 0)
(0.100102 -4.06765e-06 0)
(0.10026 -2.04744e-06 0)
(0.10015 -3.07495e-06 0)
(0.100272 -7.5424e-06 0)
(0.099186 -5.31998e-05 0)
(0.0992354 -4.99221e-05 0)
(0.0992827 -4.68167e-05 0)
(0.099328 -4.38759e-05 0)
(0.0993712 -4.10921e-05 0)
(0.0994125 -3.8458e-05 0)
(0.0994519 -3.59666e-05 0)
(0.0994895 -3.36113e-05 0)
(0.0995253 -3.13857e-05 0)
(0.0995594 -2.92838e-05 0)
(0.0995919 -2.72997e-05 0)
(0.0996227 -2.54279e-05 0)
(0.099652 -2.36629e-05 0)
(0.0996798 -2.19994e-05 0)
(0.0997062 -2.04323e-05 0)
(0.0997312 -1.89569e-05 0)
(0.0997548 -1.75685e-05 0)
(0.0997771 -1.62629e-05 0)
(0.0997981 -1.50363e-05 0)
(0.099818 -1.38851e-05 0)
(0.0998366 -1.28058e-05 0)
(0.0998542 -1.17949e-05 0)
(0.0998707 -1.08487e-05 0)
(0.0998862 -9.96358e-06 0)
(0.0999007 -9.13614e-06 0)
(0.0999142 -8.36312e-06 0)
(0.0999268 -7.64194e-06 0)
(0.0999386 -6.97045e-06 0)
(0.0999495 -6.34677e-06 0)
(0.0999597 -5.7686e-06 0)
(0.0999691 -5.234e-06 0)
(0.0999778 -4.74028e-06 0)
(0.0999858 -4.28528e-06 0)
(0.0999932 -3.86616e-06 0)
(0.1 -3.4808e-06 0)
(0.100006 -3.12731e-06 0)
(0.100012 -2.80385e-06 0)
(0.100017 -2.50909e-06 0)
(0.100022 -2.24234e-06 0)
(0.100026 -2.0019e-06 0)
(0.10003 -1.78648e-06 0)
(0.100034 -1.5946e-06 0)
(0.100037 -1.42529e-06 0)
(0.10004 -1.27698e-06 0)
(0.100043 -1.14949e-06 0)
(0.100045 -1.04177e-06 0)
(0.100048 -9.53919e-07 0)
(0.10005 -8.85071e-07 0)
(0.100052 -8.35694e-07 0)
(0.100054 -8.05936e-07 0)
(0.100056 -7.93957e-07 0)
(0.100058 -8.0479e-07 0)
(0.100061 -8.28384e-07 0)
(0.100062 -8.88918e-07 0)
(0.100066 -9.44462e-07 0)
(0.100067 -1.08078e-06 0)
(0.100074 -1.14519e-06 0)
(0.10007 -1.41339e-06 0)
(0.100087 -1.43125e-06 0)
(0.100072 -1.9333e-06 0)
(0.100109 -1.81933e-06 0)
(0.100069 -2.66476e-06 0)
(0.100144 -2.38242e-06 0)
(0.100065 -3.55831e-06 0)
(0.100186 -3.22338e-06 0)
(0.100072 -4.60718e-06 0)
(0.100225 -3.94009e-06 0)
(0.100103 -6.73409e-06 0)
(0.100259 -3.47839e-06 0)
(0.100152 -5.123e-06 0)
(0.100271 -1.24288e-05 0)
(0.0991877 -7.44199e-05 0)
(0.099237 -6.98372e-05 0)
(0.0992842 -6.54954e-05 0)
(0.0993293 -6.13836e-05 0)
(0.0993725 -5.74913e-05 0)
(0.0994137 -5.38082e-05 0)
(0.099453 -5.03246e-05 0)
(0.0994905 -4.70313e-05 0)
(0.0995263 -4.39194e-05 0)
(0.0995603 -4.09802e-05 0)
(0.0995927 -3.82057e-05 0)
(0.0996235 -3.5588e-05 0)
(0.0996527 -3.31194e-05 0)
(0.0996805 -3.07925e-05 0)
(0.0997068 -2.86004e-05 0)
(0.0997317 -2.65364e-05 0)
(0.0997553 -2.45942e-05 0)
(0.0997775 -2.27679e-05 0)
(0.0997986 -2.10519e-05 0)
(0.0998184 -1.94413e-05 0)
(0.099837 -1.79311e-05 0)
(0.0998546 -1.65162e-05 0)
(0.0998711 -1.51917e-05 0)
(0.0998865 -1.39528e-05 0)
(0.099901 -1.27948e-05 0)
(0.0999145 -1.17133e-05 0)
(0.0999271 -1.07046e-05 0)
(0.0999389 -9.76547e-06 0)
(0.0999498 -8.89292e-06 0)
(0.0999599 -8.0837e-06 0)
(0.0999693 -7.33495e-06 0)
(0.099978 -6.64318e-06 0)
(0.099986 -6.00547e-06 0)
(0.0999934 -5.41816e-06 0)
(0.1 -4.87837e-06 0)
(0.100006 -4.38339e-06 0)
(0.100012 -3.93068e-06 0)
(0.100017 -3.5182e-06 0)
(0.100022 -3.14475e-06 0)
(0.100027 -2.80801e-06 0)
(0.10003 -2.50616e-06 0)
(0.100034 -2.23724e-06 0)
(0.100037 -2.00003e-06 0)
(0.10004 -1.79251e-06 0)
(0.100043 -1.61419e-06 0)
(0.100046 -1.46359e-06 0)
(0.100048 -1.34056e-06 0)
(0.10005 -1.24419e-06 0)
(0.100052 -1.17469e-06 0)
(0.100054 -1.13264e-06 0)
(0.100056 -1.11532e-06 0)
(0.100058 -1.12999e-06 0)
(0.100061 -1.16281e-06 0)
(0.100063 -1.24725e-06 0)
(0.100066 -1.32448e-06 0)
(0.100067 -1.51487e-06 0)
(0.100074 -1.60454e-06 0)
(0.100071 -1.97992e-06 0)
(0.100087 -2.00418e-06 0)
(0.100072 -2.70734e-06 0)
(0.10011 -2.54746e-06 0)
(0.100069 -3.73142e-06 0)
(0.100144 -3.33559e-06 0)
(0.100065 -4.98259e-06 0)
(0.100186 -4.51619e-06 0)
(0.100072 -6.44156e-06 0)
(0.100226 -5.54984e-06 0)
(0.100103 -9.34071e-06 0)
(0.100258 -5.01438e-06 0)
(0.100155 -7.17291e-06 0)
(0.10027 -1.71187e-05 0)
(0.0991899 -9.5577e-05 0)
(0.0992391 -8.96948e-05 0)
(0.0992861 -8.41218e-05 0)
(0.0993311 -7.88438e-05 0)
(0.0993741 -7.38473e-05 0)
(0.0994152 -6.91194e-05 0)
(0.0994544 -6.46474e-05 0)
(0.0994918 -6.04194e-05 0)
(0.0995275 -5.64242e-05 0)
(0.0995614 -5.26506e-05 0)
(0.0995937 -4.90882e-05 0)
(0.0996244 -4.57268e-05 0)
(0.0996536 -4.25567e-05 0)
(0.0996813 -3.95684e-05 0)
(0.0997076 -3.67531e-05 0)
(0.0997324 -3.41021e-05 0)
(0.099756 -3.16075e-05 0)
(0.0997782 -2.92617e-05 0)
(0.0997992 -2.70576e-05 0)
(0.0998189 -2.49887e-05 0)
(0.0998376 -2.30484e-05 0)
(0.0998551 -2.12304e-05 0)
(0.0998715 -1.95284e-05 0)
(0.099887 -1.79364e-05 0)
(0.0999014 -1.64484e-05 0)
(0.0999149 -1.50591e-05 0)
(0.0999275 -1.37634e-05 0)
(0.0999392 -1.25571e-05 0)
(0.0999501 -1.14361e-05 0)
(0.0999603 -1.03963e-05 0)
(0.0999697 -9.43371e-06 0)
(0.0999783 -8.54423e-06 0)
(0.0999863 -7.72408e-06 0)
(0.0999937 -6.96884e-06 0)
(0.100001 -6.27483e-06 0)
(0.100007 -5.63855e-06 0)
(0.100012 -5.05677e-06 0)
(0.100018 -4.52676e-06 0)
(0.100022 -4.04674e-06 0)
(0.100027 -3.61383e-06 0)
(0.100031 -3.22566e-06 0)
(0.100034 -2.87982e-06 0)
(0.100038 -2.57478e-06 0)
(0.100041 -2.30814e-06 0)
(0.100043 -2.07905e-06 0)
(0.100046 -1.88563e-06 0)
(0.100048 -1.72745e-06 0)
(0.10005 -1.60361e-06 0)
(0.100053 -1.51402e-06 0)
(0.100055 -1.45969e-06 0)
(0.100057 -1.43705e-06 0)
(0.100059 -1.45561e-06 0)
(0.100061 -1.49767e-06 0)
(0.100063 -1.60613e-06 0)
(0.100067 -1.70492e-06 0)
(0.100067 -1.94966e-06 0)
(0.100074 -2.06417e-06 0)
(0.100071 -2.54752e-06 0)
(0.100088 -2.577e-06 0)
(0.100072 -3.48318e-06 0)
(0.10011 -3.27485e-06 0)
(0.10007 -4.80091e-06 0)
(0.100144 -4.28788e-06 0)
(0.100066 -6.41001e-06 0)
(0.100187 -5.81153e-06 0)
(0.100073 -8.27055e-06 0)
(0.100226 -7.1943e-06 0)
(0.100105 -1.18666e-05 0)
(0.100257 -6.69206e-06 0)
(0.100159 -9.22247e-06 0)
(0.100268 -2.15501e-05 0)
(0.0991927 -0.000116653 0)
(0.0992416 -0.000109479 0)
(0.0992885 -0.000102681 0)
(0.0993333 -9.62432e-05 0)
(0.0993762 -9.01482e-05 0)
(0.0994171 -8.43805e-05 0)
(0.0994562 -7.89247e-05 0)
(0.0994934 -7.37665e-05 0)
(0.099529 -6.88918e-05 0)
(0.0995628 -6.42874e-05 0)
(0.099595 -5.99404e-05 0)
(0.0996256 -5.58383e-05 0)
(0.0996547 -5.19694e-05 0)
(0.0996823 -4.83221e-05 0)
(0.0997085 -4.48857e-05 0)
(0.0997333 -4.16498e-05 0)
(0.0997568 -3.86046e-05 0)
(0.099779 -3.5741e-05 0)
(0.0997999 -3.30503e-05 0)
(0.0998196 -3.05244e-05 0)
(0.0998382 -2.81553e-05 0)
(0.0998557 -2.59354e-05 0)
(0.0998721 -2.38569e-05 0)
(0.0998875 -2.19126e-05 0)
(0.0999019 -2.00956e-05 0)
(0.0999154 -1.83991e-05 0)
(0.0999279 -1.68172e-05 0)
(0.0999396 -1.53443e-05 0)
(0.0999505 -1.39754e-05 0)
(0.0999606 -1.27054e-05 0)
(0.09997 -1.15295e-05 0)
(0.0999787 -1.04428e-05 0)
(0.0999867 -9.44054e-06 0)
(0.0999941 -8.51769e-06 0)
(0.100001 -7.66974e-06 0)
(0.100007 -6.89243e-06 0)
(0.100013 -6.18181e-06 0)
(0.100018 -5.53447e-06 0)
(0.100023 -4.94808e-06 0)
(0.100027 -4.41917e-06 0)
(0.100031 -3.94484e-06 0)
(0.100035 -3.52223e-06 0)
(0.100038 -3.14949e-06 0)
(0.100041 -2.82381e-06 0)
(0.100044 -2.54403e-06 0)
(0.100046 -2.30783e-06 0)
(0.100049 -2.11457e-06 0)
(0.100051 -1.96333e-06 0)
(0.100053 -1.85369e-06 0)
(0.100055 -1.78712e-06 0)
(0.100057 -1.75918e-06 0)
(0.100059 -1.78171e-06 0)
(0.100061 -1.83298e-06 0)
(0.100063 -1.96564e-06 0)
(0.100067 -2.08577e-06 0)
(0.100068 -2.38535e-06 0)
(0.100075 -2.52386e-06 0)
(0.100071 -3.11667e-06 0)
(0.100088 -3.14914e-06 0)
(0.100073 -4.26184e-06 0)
(0.10011 -4.00034e-06 0)
(0.10007 -5.87487e-06 0)
(0.100145 -5.23778e-06 0)
(0.100066 -7.84227e-06 0)
(0.100187 -7.10907e-06 0)
(0.100073 -1.00933e-05 0)
(0.100226 -8.88094e-06 0)
(0.100106 -1.42947e-05 0)
(0.100255 -8.54086e-06 0)
(0.100164 -1.12694e-05 0)
(0.100267 -2.56732e-05 0)
(0.099196 -0.000137632 0)
(0.0992447 -0.000129174 0)
(0.0992913 -0.000121159 0)
(0.0993359 -0.000113569 0)
(0.0993786 -0.000106382 0)
(0.0994193 -9.95806e-05 0)
(0.0994582 -9.31468e-05 0)
(0.0994954 -8.70635e-05 0)
(0.0995307 -8.13142e-05 0)
(0.0995645 -7.58832e-05 0)
(0.0995965 -7.07555e-05 0)
(0.0996271 -6.59163e-05 0)
(0.099656 -6.13518e-05 0)
(0.0996836 -5.70486e-05 0)
(0.0997096 -5.29938e-05 0)
(0.0997344 -4.91754e-05 0)
(0.0997578 -4.55819e-05 0)
(0.0997799 -4.22025e-05 0)
(0.0998007 -3.9027e-05 0)
(0.0998204 -3.60458e-05 0)
(0.0998389 -3.32494e-05 0)
(0.0998564 -3.06288e-05 0)
(0.0998727 -2.81751e-05 0)
(0.0998881 -2.58797e-05 0)
(0.0999024 -2.37346e-05 0)
(0.0999159 -2.17319e-05 0)
(0.0999284 -1.98645e-05 0)
(0.0999401 -1.81258e-05 0)
(0.099951 -1.65098e-05 0)
(0.0999611 -1.50102e-05 0)
(0.0999704 -1.36216e-05 0)
(0.0999791 -1.23381e-05 0)
(0.0999871 -1.11542e-05 0)
(0.0999944 -1.00641e-05 0)
(0.100001 -9.0626e-06 0)
(0.100007 -8.14457e-06 0)
(0.100013 -7.3054e-06 0)
(0.100018 -6.54102e-06 0)
(0.100023 -5.84848e-06 0)
(0.100027 -5.22378e-06 0)
(0.100031 -4.66349e-06 0)
(0.100035 -4.1643e-06 0)
(0.100038 -3.72399e-06 0)
(0.100041 -3.3394e-06 0)
(0.100044 -3.00902e-06 0)
(0.100046 -2.73013e-06 0)
(0.100049 -2.50187e-06 0)
(0.100051 -2.32328e-06 0)
(0.100053 -2.19365e-06 0)
(0.100055 -2.11486e-06 0)
(0.100057 -2.08171e-06 0)
(0.100059 -2.10816e-06 0)
(0.100062 -2.16889e-06 0)
(0.100064 -2.32542e-06 0)
(0.100067 -2.46764e-06 0)
(0.100068 -2.82078e-06 0)
(0.100075 -2.98558e-06 0)
(0.100072 -3.68413e-06 0)
(0.100088 -3.72552e-06 0)
(0.100073 -5.03618e-06 0)
(0.100111 -4.73342e-06 0)
(0.10007 -6.94163e-06 0)
(0.100145 -6.19829e-06 0)
(0.100067 -9.26692e-06 0)
(0.100188 -8.41909e-06 0)
(0.100074 -1.19044e-05 0)
(0.100226 -1.06119e-05 0)
(0.100107 -1.66252e-05 0)
(0.100254 -1.0563e-05 0)
(0.100169 -1.33326e-05 0)
(0.100265 -2.94333e-05 0)
(0.0991999 -0.000158995 0)
(0.0992483 -0.000149233 0)
(0.0992947 -0.000139983 0)
(0.099339 -0.00013122 0)
(0.0993814 -0.000122924 0)
(0.099422 -0.000115072 0)
(0.0994607 -0.000107643 0)
(0.0994976 -0.000100619 0)
(0.0995328 -9.39796e-05 0)
(0.0995664 -8.77074e-05 0)
(0.0995983 -8.17849e-05 0)
(0.0996287 -7.61953e-05 0)
(0.0996576 -7.09225e-05 0)
(0.099685 -6.59511e-05 0)
(0.099711 -6.12663e-05 0)
(0.0997356 -5.68544e-05 0)
(0.0997589 -5.27021e-05 0)
(0.0997809 -4.87971e-05 0)
(0.0998017 -4.51274e-05 0)
(0.0998213 -4.16819e-05 0)
(0.0998398 -3.84498e-05 0)
(0.0998571 -3.54206e-05 0)
(0.0998734 -3.25841e-05 0)
(0.0998887 -2.99306e-05 0)
(0.0999031 -2.74507e-05 0)
(0.0999165 -2.51356e-05 0)
(0.099929 -2.29769e-05 0)
(0.0999406 -2.0967e-05 0)
(0.0999515 -1.90986e-05 0)
(0.0999615 -1.73648e-05 0)
(0.0999709 -1.57591e-05 0)
(0.0999795 -1.42746e-05 0)
(0.0999875 -1.29053e-05 0)
(0.0999948 -1.16445e-05 0)
(0.100002 -1.04861e-05 0)
(0.100008 -9.42441e-06 0)
(0.100013 -8.45396e-06 0)
(0.100019 -7.57006e-06 0)
(0.100023 -6.76913e-06 0)
(0.100028 -6.0466e-06 0)
(0.100032 -5.39855e-06 0)
(0.100035 -4.82115e-06 0)
(0.100038 -4.31184e-06 0)
(0.100041 -3.86707e-06 0)
(0.100044 -3.485e-06 0)
(0.100047 -3.1625e-06 0)
(0.100049 -2.8985e-06 0)
(0.100051 -2.69196e-06 0)
(0.100053 -2.54198e-06 0)
(0.100056 -2.45062e-06 0)
(0.100058 -2.41242e-06 0)
(0.10006 -2.44246e-06 0)
(0.100062 -2.51396e-06 0)
(0.100064 -2.69294e-06 0)
(0.100067 -2.86168e-06 0)
(0.100068 -3.26261e-06 0)
(0.100075 -3.46662e-06 0)
(0.100072 -4.25325e-06 0)
(0.100088 -4.33535e-06 0)
(0.100073 -5.80257e-06 0)
(0.100111 -5.52097e-06 0)
(0.100071 -7.9909e-06 0)
(0.100145 -7.23176e-06 0)
(0.100067 -1.06806e-05 0)
(0.100188 -9.80201e-06 0)
(0.100074 -1.37343e-05 0)
(0.100227 -1.24233e-05 0)
(0.100108 -1.89383e-05 0)
(0.100252 -1.27707e-05 0)
(0.100174 -1.55186e-05 0)
(0.100263 -3.28372e-05 0)
(0.0992044 -0.000180713 0)
(0.0992525 -0.00016963 0)
(0.0992985 -0.000159126 0)
(0.0993426 -0.000149175 0)
(0.0993847 -0.000139753 0)
(0.099425 -0.000130834 0)
(0.0994635 -0.000122396 0)
(0.0995002 -0.000114416 0)
(0.0995352 -0.000106873 0)
(0.0995686 -9.97468e-05 0)
(0.0996004 -9.30168e-05 0)
(0.0996306 -8.66644e-05 0)
(0.0996593 -8.06715e-05 0)
(0.0996866 -7.50206e-05 0)
(0.0997124 -6.96951e-05 0)
(0.0997369 -6.46794e-05 0)
(0.0997601 -5.99586e-05 0)
(0.099782 -5.55185e-05 0)
(0.0998027 -5.13458e-05 0)
(0.0998223 -4.74277e-05 0)
(0.0998407 -4.37519e-05 0)
(0.099858 -4.03066e-05 0)
(0.0998742 -3.70802e-05 0)
(0.0998895 -3.40618e-05 0)
(0.0999037 -3.12409e-05 0)
(0.0999171 -2.86074e-05 0)
(0.0999295 -2.61519e-05 0)
(0.0999411 -2.38654e-05 0)
(0.099952 -2.17399e-05 0)
(0.099962 -1.97674e-05 0)
(0.0999713 -1.79402e-05 0)
(0.0999799 -1.6251e-05 0)
(0.0999878 -1.46926e-05 0)
(0.0999952 -1.32577e-05 0)
(0.100002 -1.19394e-05 0)
(0.100008 -1.0731e-05 0)
(0.100014 -9.6267e-06 0)
(0.100019 -8.62089e-06 0)
(0.100024 -7.7094e-06 0)
(0.100028 -6.8871e-06 0)
(0.100032 -6.14952e-06 0)
(0.100035 -5.49238e-06 0)
(0.100039 -4.91268e-06 0)
(0.100042 -4.40651e-06 0)
(0.100044 -3.97167e-06 0)
(0.100047 -3.60467e-06 0)
(0.100049 -3.30423e-06 0)
(0.100052 -3.06918e-06 0)
(0.100054 -2.8985e-06 0)
(0.100056 -2.79423e-06 0)
(0.100058 -2.75118e-06 0)
(0.10006 -2.78444e-06 0)
(0.100062 -2.86809e-06 0)
(0.100064 -3.06796e-06 0)
(0.100068 -3.26795e-06 0)
(0.100068 -3.7104e-06 0)
(0.100076 -3.96741e-06 0)
(0.100072 -4.82292e-06 0)
(0.100089 -4.97994e-06 0)
(0.100074 -6.55867e-06 0)
(0.100111 -6.36574e-06 0)
(0.100071 -9.0189e-06 0)
(0.100146 -8.3422e-06 0)
(0.100067 -1.20791e-05 0)
(0.100188 -1.12616e-05 0)
(0.100074 -1.55804e-05 0)
(0.100227 -1.43199e-05 0)
(0.10011 -2.12268e-05 0)
(0.10025 -1.51782e-05 0)
(0.100179 -1.78328e-05 0)
(0.100261 -3.58404e-05 0)
(0.0992095 -0.000202267 0)
(0.0992572 -0.000189876 0)
(0.0993028 -0.000178132 0)
(0.0993466 -0.000167006 0)
(0.0993884 -0.000156468 0)
(0.0994284 -0.000146494 0)
(0.0994666 -0.000137056 0)
(0.0995031 -0.000128129 0)
(0.0995379 -0.00011969 0)
(0.099571 -0.000111716 0)
(0.0996026 -0.000104185 0)
(0.0996327 -9.70758e-05 0)
(0.0996612 -9.03682e-05 0)
(0.0996883 -8.40427e-05 0)
(0.099714 -7.8081e-05 0)
(0.0997384 -7.24657e-05 0)
(0.0997615 -6.71801e-05 0)
(0.0997833 -6.22084e-05 0)
(0.0998039 -5.75357e-05 0)
(0.0998233 -5.31477e-05 0)
(0.0998416 -4.90308e-05 0)
(0.0998588 -4.51717e-05 0)
(0.099875 -4.15575e-05 0)
(0.0998902 -3.81762e-05 0)
(0.0999044 -3.5016e-05 0)
(0.0999177 -3.20657e-05 0)
(0.0999301 -2.93147e-05 0)
(0.0999417 -2.67531e-05 0)
(0.0999524 -2.43716e-05 0)
(0.0999624 -2.21614e-05 0)
(0.0999717 -2.01139e-05 0)
(0.0999803 -1.82207e-05 0)
(0.0999882 -1.64741e-05 0)
(0.0999955 -1.48658e-05 0)
(0.100002 -1.33881e-05 0)
(0.100008 -1.20337e-05 0)
(0.100014 -1.0796e-05 0)
(0.100019 -9.66878e-06 0)
(0.100024 -8.64717e-06 0)
(0.100028 -7.72548e-06 0)
(0.100032 -6.89873e-06 0)
(0.100036 -6.16216e-06 0)
(0.100039 -5.51234e-06 0)
(0.100042 -4.94498e-06 0)
(0.100045 -4.45756e-06 0)
(0.100047 -4.04623e-06 0)
(0.10005 -3.7095e-06 0)
(0.100052 -3.44603e-06 0)
(0.100054 -3.25475e-06 0)
(0.100056 -3.13764e-06 0)
(0.100058 -3.08985e-06 0)
(0.10006 -3.12633e-06 0)
(0.100062 -3.22237e-06 0)
(0.100064 -3.44283e-06 0)
(0.100068 -3.67473e-06 0)
(0.100069 -4.15748e-06 0)
(0.100076 -4.46963e-06 0)
(0.100072 -5.39045e-06 0)
(0.100089 -5.62805e-06 0)
(0.100074 -7.30998e-06 0)
(0.100111 -7.21734e-06 0)
(0.100071 -1.00392e-05 0)
(0.100146 -9.46266e-06 0)
(0.100067 -1.34695e-05 0)
(0.100188 -1.27344e-05 0)
(0.100075 -1.74131e-05 0)
(0.100227 -1.62683e-05 0)
(0.100111 -2.34076e-05 0)
(0.100248 -1.77781e-05 0)
(0.100183 -2.01604e-05 0)
(0.100259 -3.84406e-05 0)
(0.099215 -0.000223638 0)
(0.0992623 -0.000209956 0)
(0.0993076 -0.000196986 0)
(0.099351 -0.000184697 0)
(0.0993925 -0.000173057 0)
(0.0994321 -0.000162038 0)
(0.09947 -0.00015161 0)
(0.0995063 -0.000141746 0)
(0.0995408 -0.00013242 0)
(0.0995737 -0.000123606 0)
(0.0996051 -0.000115282 0)
(0.0996349 -0.000107422 0)
(0.0996633 -0.000100006 0)
(0.0996902 -9.30114e-05 0)
(0.0997158 -8.64185e-05 0)
(0.09974 -8.02081e-05 0)
(0.0997629 -7.43618e-05 0)
(0.0997846 -6.88624e-05 0)
(0.0998051 -6.36931e-05 0)
(0.0998244 -5.88385e-05 0)
(0.0998426 -5.42833e-05 0)
(0.0998597 -5.00129e-05 0)
(0.0998758 -4.60134e-05 0)
(0.0998909 -4.22712e-05 0)
(0.0999051 -3.87736e-05 0)
(0.0999183 -3.55083e-05 0)
(0.0999307 -3.24634e-05 0)
(0.0999422 -2.96281e-05 0)
(0.0999529 -2.69921e-05 0)
(0.0999628 -2.45453e-05 0)
(0.099972 -2.22786e-05 0)
(0.0999806 -2.01826e-05 0)
(0.0999885 -1.82486e-05 0)
(0.0999957 -1.64676e-05 0)
(0.100002 -1.48313e-05 0)
(0.100009 -1.33316e-05 0)
(0.100014 -1.19611e-05 0)
(0.100019 -1.0713e-05 0)
(0.100024 -9.58177e-06 0)
(0.100028 -8.56113e-06 0)
(0.100032 -7.64562e-06 0)
(0.100036 -6.82998e-06 0)
(0.100039 -6.11034e-06 0)
(0.100042 -5.48206e-06 0)
(0.100045 -4.94226e-06 0)
(0.100047 -4.48678e-06 0)
(0.10005 -4.11392e-06 0)
(0.100052 -3.82218e-06 0)
(0.100054 -3.61041e-06 0)
(0.100056 -3.48055e-06 0)
(0.100058 -3.4281e-06 0)
(0.10006 -3.46791e-06 0)
(0.100062 -3.5763e-06 0)
(0.100064 -3.81755e-06 0)
(0.100068 -4.08103e-06 0)
(0.100069 -4.60472e-06 0)
(0.100076 -4.97084e-06 0)
(0.100072 -5.95884e-06 0)
(0.100089 -6.27402e-06 0)
(0.100074 -8.06366e-06 0)
(0.100111 -8.06509e-06 0)
(0.100071 -1.10641e-05 0)
(0.100146 -1.05786e-05 0)
(0.100067 -1.48651e-05 0)
(0.100188 -1.42091e-05 0)
(0.100075 -1.92376e-05 0)
(0.100227 -1.82679e-05 0)
(0.100111 -2.54809e-05 0)
(0.100246 -2.05697e-05 0)
(0.100187 -2.24788e-05 0)
(0.100257 -4.06927e-05 0)
(0.0992211 -0.000244808 0)
(0.0992679 -0.000229852 0)
(0.0993127 -0.000215672 0)
(0.0993557 -0.000202235 0)
(0.0993968 -0.000189507 0)
(0.0994362 -0.000177455 0)
(0.0994738 -0.000166048 0)
(0.0995097 -0.000155258 0)
(0.0995439 -0.000145054 0)
(0.0995766 -0.00013541 0)
(0.0996077 -0.000126299 0)
(0.0996373 -0.000117697 0)
(0.0996655 -0.000109578 0)
(0.0996922 -0.000101921 0)
(0.0997176 -9.47021e-05 0)
(0.0997417 -8.79016e-05 0)
(0.0997645 -8.14992e-05 0)
(0.099786 -7.54761e-05 0)
(0.0998064 -6.98142e-05 0)
(0.0998256 -6.44963e-05 0)
(0.0998437 -5.95059e-05 0)
(0.0998607 -5.48272e-05 0)
(0.0998767 -5.04449e-05 0)
(0.0998917 -4.63443e-05 0)
(0.0999058 -4.25115e-05 0)
(0.0999189 -3.8933e-05 0)
(0.0999312 -3.55961e-05 0)
(0.0999426 -3.24888e-05 0)
(0.0999533 -2.95996e-05 0)
(0.0999632 -2.69178e-05 0)
(0.0999724 -2.4433e-05 0)
(0.0999809 -2.21352e-05 0)
(0.0999887 -2.00149e-05 0)
(0.0999959 -1.80622e-05 0)
(0.100003 -1.62681e-05 0)
(0.100009 -1.46238e-05 0)
(0.100014 -1.31212e-05 0)
(0.100019 -1.17528e-05 0)
(0.100024 -1.05125e-05 0)
(0.100028 -9.3934e-06 0)
(0.100032 -8.38958e-06 0)
(0.100036 -7.49526e-06 0)
(0.100039 -6.70616e-06 0)
(0.100042 -6.01725e-06 0)
(0.100045 -5.42531e-06 0)
(0.100047 -4.9259e-06 0)
(0.10005 -4.5171e-06 0)
(0.100052 -4.19723e-06 0)
(0.100054 -3.9651e-06 0)
(0.100056 -3.82261e-06 0)
(0.100058 -3.76556e-06 0)
(0.10006 -3.8088e-06 0)
(0.100062 -3.92954e-06 0)
(0.100064 -4.19172e-06 0)
(0.100068 -4.48655e-06 0)
(0.100069 -5.05155e-06 0)
(0.100076 -5.47089e-06 0)
(0.100072 -6.52721e-06 0)
(0.100089 -6.91802e-06 0)
(0.100074 -8.81823e-06 0)
(0.100111 -8.9097e-06 0)
(0.100071 -1.20913e-05 0)
(0.100145 -1.16909e-05 0)
(0.100067 -1.62639e-05 0)
(0.100188 -1.56859e-05 0)
(0.100074 -2.10546e-05 0)
(0.100227 -2.03129e-05 0)
(0.100112 -2.74636e-05 0)
(0.100245 -2.35256e-05 0)
(0.10019 -2.47887e-05 0)
(0.100255 -4.26429e-05 0)
(0.0992276 -0.000265759 0)
(0.0992739 -0.000249547 0)
(0.0993183 -0.000234175 0)
(0.0993609 -0.000219606 0)
(0.0994016 -0.000205804 0)
(0.0994406 -0.000192733 0)
(0.0994778 -0.00018036 0)
(0.0995134 -0.000168654 0)
(0.0995473 -0.000157582 0)
(0.0995797 -0.000147117 0)
(0.0996106 -0.000137229 0)
(0.09964 -0.000127892 0)
(0.0996679 -0.000119078 0)
(0.0996944 -0.000110764 0)
(0.0997196 -0.000102926 0)
(0.0997435 -9.55409e-05 0)
(0.0997661 -8.85875e-05 0)
(0.0997875 -8.20453e-05 0)
(0.0998077 -7.58948e-05 0)
(0.0998268 -7.01174e-05 0)
(0.0998448 -6.46954e-05 0)
(0.0998617 -5.96114e-05 0)
(0.0998776 -5.48492e-05 0)
(0.0998925 -5.03927e-05 0)
(0.0999065 -4.62271e-05 0)
(0.0999195 -4.23377e-05 0)
(0.0999317 -3.87107e-05 0)
(0.0999431 -3.53331e-05 0)
(0.0999537 -3.21924e-05 0)
(0.0999635 -2.9277e-05 0)
(0.0999727 -2.65756e-05 0)
(0.0999811 -2.40774e-05 0)
(0.0999889 -2.17718e-05 0)
(0.0999961 -1.96484e-05 0)
(0.100003 -1.76974e-05 0)
(0.100009 -1.59093e-05 0)
(0.100014 -1.42753e-05 0)
(0.100019 -1.27874e-05 0)
(0.100024 -1.14386e-05 0)
(0.100028 -1.02216e-05 0)
(0.100032 -9.12995e-06 0)
(0.100036 -8.15741e-06 0)
(0.100039 -7.29923e-06 0)
(0.100042 -6.55001e-06 0)
(0.100045 -5.90622e-06 0)
(0.100047 -5.36313e-06 0)
(0.100049 -4.9186e-06 0)
(0.100052 -4.57077e-06 0)
(0.100054 -4.31841e-06 0)
(0.100056 -4.1634e-06 0)
(0.100058 -4.10185e-06 0)
(0.10006 -4.14862e-06 0)
(0.100062 -4.28173e-06 0)
(0.100064 -4.56489e-06 0)
(0.100068 -4.89095e-06 0)
(0.100068 -5.49739e-06 0)
(0.100075 -5.96955e-06 0)
(0.100072 -7.09466e-06 0)
(0.100088 -7.56015e-06 0)
(0.100073 -9.57227e-06 0)
(0.100111 -9.75173e-06 0)
(0.100071 -1.31189e-05 0)
(0.100145 -1.28005e-05 0)
(0.100067 -1.76637e-05 0)
(0.100188 -1.7165e-05 0)
(0.100074 -2.28646e-05 0)
(0.100226 -2.23965e-05 0)
(0.100112 -2.93747e-05 0)
(0.100243 -2.66143e-05 0)
(0.100193 -2.70918e-05 0)
(0.100253 -4.43454e-05 0)
(0.0992347 -0.000286473 0)
(0.0992805 -0.000269026 0)
(0.0993244 -0.00025248 0)
(0.0993665 -0.000236796 0)
(0.0994068 -0.000221935 0)
(0.0994453 -0.00020786 0)
(0.0994822 -0.000194535 0)
(0.0995174 -0.000181924 0)
(0.099551 -0.000169997 0)
(0.0995831 -0.00015872 0)
(0.0996137 -0.000148064 0)
(0.0996428 -0.000138 0)
(0.0996705 -0.0001285 0)
(0.0996968 -0.000119536 0)
(0.0997218 -0.000111085 0)
(0.0997455 -0.000103121 0)
(0.0997679 -9.56219e-05 0)
(0.0997891 -8.85655e-05 0)
(0.0998092 -8.19309e-05 0)
(0.0998281 -7.56982e-05 0)
(0.0998459 -6.98482e-05 0)
(0.0998627 -6.43625e-05 0)
(0.0998785 -5.92234e-05 0)
(0.0998933 -5.4414e-05 0)
(0.0999072 -4.9918e-05 0)
(0.0999202 -4.57201e-05 0)
(0.0999323 -4.18051e-05 0)
(0.0999436 -3.81592e-05 0)
(0.0999541 -3.47689e-05 0)
(0.0999639 -3.16215e-05 0)
(0.0999729 -2.8705e-05 0)
(0.0999813 -2.60076e-05 0)
(0.0999891 -2.3518e-05 0)
(0.0999962 -2.1225e-05 0)
(0.100003 -1.91181e-05 0)
(0.100009 -1.71871e-05 0)
(0.100014 -1.54226e-05 0)
(0.100019 -1.38158e-05 0)
(0.100024 -1.23593e-05 0)
(0.100028 -1.1045e-05 0)
(0.100032 -9.86608e-06 0)
(0.100036 -8.81581e-06 0)
(0.100039 -7.88897e-06 0)
(0.100042 -7.07982e-06 0)
(0.100044 -6.38448e-06 0)
(0.100047 -5.79799e-06 0)
(0.100049 -5.31795e-06 0)
(0.100051 -4.94236e-06 0)
(0.100053 -4.66993e-06 0)
(0.100055 -4.50253e-06 0)
(0.100058 -4.43657e-06 0)
(0.10006 -4.48695e-06 0)
(0.100062 -4.63243e-06 0)
(0.100064 -4.93661e-06 0)
(0.100067 -5.29377e-06 0)
(0.100068 -5.94177e-06 0)
(0.100075 -6.46635e-06 0)
(0.100072 -7.66067e-06 0)
(0.100088 -8.19985e-06 0)
(0.100073 -1.03252e-05 0)
(0.10011 -1.05906e-05 0)
(0.10007 -1.41462e-05 0)
(0.100145 -1.39068e-05 0)
(0.100066 -1.90641e-05 0)
(0.100188 -1.86452e-05 0)
(0.100074 -2.46688e-05 0)
(0.100226 -2.45115e-05 0)
(0.100112 -3.12332e-05 0)
(0.100242 -2.98056e-05 0)
(0.100194 -2.93877e-05 0)
(0.100252 -4.5861e-05 0)
(0.0992424 -0.000306933 0)
(0.0992876 -0.000288272 0)
(0.0993309 -0.000270572 0)
(0.0993725 -0.000253792 0)
(0.0994123 -0.000237889 0)
(0.0994504 -0.000222825 0)
(0.0994869 -0.000208561 0)
(0.0995217 -0.00019506 0)
(0.099555 -0.000182288 0)
(0.0995868 -0.000170211 0)
(0.099617 -0.000158797 0)
(0.0996459 -0.000148015 0)
(0.0996733 -0.000137836 0)
(0.0996994 -0.000128231 0)
(0.0997241 -0.000119173 0)
(0.0997476 -0.000110637 0)
(0.0997698 -0.000102598 0)
(0.0997909 -9.50325e-05 0)
(0.0998108 -8.79187e-05 0)
(0.0998295 -8.1235e-05 0)
(0.0998472 -7.49611e-05 0)
(0.0998639 -6.90772e-05 0)
(0.0998795 -6.35646e-05 0)
(0.0998942 -5.84053e-05 0)
(0.099908 -5.35819e-05 0)
(0.0999209 -4.90779e-05 0)
(0.0999329 -4.48773e-05 0)
(0.0999441 -4.09652e-05 0)
(0.0999545 -3.73272e-05 0)
(0.0999642 -3.39496e-05 0)
(0.0999732 -3.08196e-05 0)
(0.0999816 -2.79245e-05 0)
(0.0999893 -2.52522e-05 0)
(0.0999963 -2.27909e-05 0)
(0.100003 -2.05292e-05 0)
(0.100009 -1.84563e-05 0)
(0.100014 -1.65622e-05 0)
(0.100019 -1.48374e-05 0)
(0.100024 -1.32738e-05 0)
(0.100028 -1.18629e-05 0)
(0.100032 -1.05973e-05 0)
(0.100035 -9.46982e-06 0)
(0.100039 -8.4748e-06 0)
(0.100042 -7.60612e-06 0)
(0.100044 -6.85959e-06 0)
(0.100047 -6.22999e-06 0)
(0.100049 -5.71471e-06 0)
(0.100051 -5.31155e-06 0)
(0.100053 -5.01922e-06 0)
(0.100055 -4.83957e-06 0)
(0.100057 -4.7693e-06 0)
(0.100059 -4.82337e-06 0)
(0.100062 -4.98122e-06 0)
(0.100063 -5.30647e-06 0)
(0.100067 -5.69457e-06 0)
(0.100068 -6.38424e-06 0)
(0.100075 -6.96075e-06 0)
(0.100071 -8.22476e-06 0)
(0.100088 -8.83649e-06 0)
(0.100073 -1.10765e-05 0)
(0.10011 -1.14254e-05 0)
(0.10007 -1.51727e-05 0)
(0.100144 -1.50084e-05 0)
(0.100066 -2.04648e-05 0)
(0.100187 -2.01247e-05 0)
(0.100073 -2.6469e-05 0)
(0.100225 -2.66509e-05 0)
(0.100112 -3.30574e-05 0)
(0.100241 -3.30706e-05 0)
(0.100195 -3.16762e-05 0)
(0.100251 -4.72507e-05 0)
(0.0992506 -0.000327123 0)
(0.0992952 -0.000307271 0)
(0.0993379 -0.000288438 0)
(0.099379 -0.00027058 0)
(0.0994183 -0.000253654 0)
(0.099456 -0.000237617 0)
(0.099492 -0.000222429 0)
(0.0995264 -0.000208051 0)
(0.0995593 -0.000194447 0)
(0.0995907 -0.000181581 0)
(0.0996207 -0.00016942 0)
(0.0996492 -0.00015793 0)
(0.0996763 -0.000147081 0)
(0.0997021 -0.000136842 0)
(0.0997267 -0.000127185 0)
(0.0997499 -0.000118083 0)
(0.0997719 -0.000109511 0)
(0.0997928 -0.000101442 0)
(0.0998125 -9.38541e-05 0)
(0.0998311 -8.67242e-05 0)
(0.0998486 -8.00306e-05 0)
(0.0998651 -7.37526e-05 0)
(0.0998806 -6.78702e-05 0)
(0.0998952 -6.23642e-05 0)
(0.0999089 -5.72163e-05 0)
(0.0999216 -5.2409e-05 0)
(0.0999336 -4.79253e-05 0)
(0.0999447 -4.37492e-05 0)
(0.099955 -3.98656e-05 0)
(0.0999647 -3.62598e-05 0)
(0.0999736 -3.2918e-05 0)
(0.0999818 -2.98268e-05 0)
(0.0999895 -2.69733e-05 0)
(0.0999965 -2.43449e-05 0)
(0.100003 -2.19296e-05 0)
(0.100009 -1.97159e-05 0)
(0.100014 -1.76931e-05 0)
(0.100019 -1.58512e-05 0)
(0.100024 -1.41813e-05 0)
(0.100028 -1.26746e-05 0)
(0.100032 -1.1323e-05 0)