/*--------------------------------*- C++ -*----------------------------------*\
| =========                 |                                                 |
| \\      /  F ield         | OpenFOAM: The Open Source CFD Toolbox           |
|  \\    /   O peration     | Version:  2412                                  |
|   \\  /    A nd           | Website:  www.openfoam.com                      |
|    \\/     M anipulation  |                                                 |
\*---------------------------------------------------------------------------*/
FoamFile
{
    version     2.0;
    format      ascii;
    arch        "LSB;label=32;scalar=64";
    class       surfaceScalarField;
    location    "22.5";
    object      phi;
}
// * * * * * * * * * * * * * * * * * * * * * * * * * * * * * * * * * * * * * //

dimensions      [0 3 -1 0 0 0 0];

oriented        oriented;

internalField   nonuniform List<scalar> 
10424
(
0.0052468
-0.000159528
0.00524903
-0.000153239
0.00525124
-0.000147105
0.0052534
-0.000141119
0.00525552
-0.00013528
0.00525759
-0.000129584
0.00525961
-0.000124031
0.00526157
-0.00011862
0.00526348
-0.000113348
0.00526533
-0.000108215
0.00526712
-0.00010322
0.00526884
-9.8362e-05
0.0052705
-9.36407e-05
0.0052721
-8.90555e-05
0.00527363
-8.46058e-05
0.0052751
-8.02911e-05
0.0052765
-7.61105e-05
0.00527784
-7.20636e-05
0.00527912
-6.81494e-05
0.00528034
-6.43671e-05
0.00528149
-6.07159e-05
0.00528258
-5.71948e-05
0.00528362
-5.38027e-05
0.00528459
-5.05386e-05
0.00528551
-4.74013e-05
0.00528637
-4.43895e-05
0.00528718
-4.15018e-05
0.00528794
-3.87369e-05
0.00528865
-3.60931e-05
0.00528931
-3.35689e-05
-3.11627e-05
0.0052486
-0.00016166
0.00525071
-0.000155353
0.0052528
-0.000149193
0.00525485
-0.000143176
0.00525687
-0.000137299
0.00525885
-0.000131562
0.00526078
-0.000125963
0.00526267
-0.000120502
0.0052645
-0.000115178
0.00526627
-0.000109991
0.00526799
-0.000104939
0.00526965
-0.000100023
0.00527125
-9.52427e-05
0.0052728
-9.05973e-05
0.00527428
-8.6087e-05
0.0052757
-8.17112e-05
0.00527706
-7.74696e-05
0.00527835
-7.33618e-05
0.00527959
-6.93871e-05
0.00528077
-6.5545e-05
0.00528189
-6.18347e-05
0.00528295
-5.82554e-05
0.00528395
-5.48062e-05
0.0052849
-5.14862e-05
0.00528579
-4.82943e-05
0.00528663
-4.52294e-05
0.00528742
-4.22901e-05
0.00528816
-3.94751e-05
0.00528885
-3.6783e-05
0.00528949
-3.42122e-05
0.00529009
-3.17611e-05
0.00529065
-2.94278e-05
0.00529116
-2.72108e-05
0.00529164
-2.51081e-05
0.00529207
-2.31177e-05
0.00529247
-2.12377e-05
0.00529284
-1.9466e-05
0.00529318
-1.78006e-05
0.00529348
-1.62391e-05
0.00529376
-1.47797e-05
0.00529401
-1.34199e-05
0.00529424
-1.21586e-05
0.00529444
-1.09921e-05
0.00529463
-9.92213e-06
0.00529479
-8.94133e-06
0.00529494
-8.05884e-06
0.00529507
-7.2562e-06
0.00529519
-6.56274e-06
0.00529529
-5.92963e-06
0.00529539
-5.43677e-06
0.00529548
-4.96101e-06
0.00529556
-4.69784e-06
0.00529564
-4.36079e-06
0.00529571
-4.38355e-06
0.00529579
-4.15887e-06
0.00529587
-4.5583e-06
0.00529595
-4.42031e-06
0.00529605
-5.31881e-06
0.00529614
-5.27419e-06
0.00529628
-6.79579e-06
0.0052964
-6.96573e-06
0.00529661
-9.13394e-06
0.00529678
-9.97349e-06
0.00529708
-1.23911e-05
0.00529735
-1.52466e-05
0.00529776
-1.64825e-05
0.00529826
-2.37679e-05
0.00529877
-2.31395e-05
0.00529965
-3.30443e-05
0.0053005
-3.68441e-05
-4.62911e-05
0.00525041
-0.000163663
0.0052524
-0.000157346
0.00525437
-0.000151167
0.00525632
-0.000145125
0.00525824
-0.000139218
0.00526012
-0.000133445
0.00526197
-0.000127806
0.00526377
-0.000122302
0.00526552
-0.000116931
0.00526722
-0.000111694
0.00526888
-0.00010659
0.00527047
-0.000101621
0.00527202
-9.6785e-05
0.0052735
-9.20834e-05
0.00527493
-8.75159e-05
0.0052763
-8.30825e-05
0.00527761
-7.8783e-05
0.00527887
-7.46173e-05
0.00528007
-7.0585e-05
0.00528121
-6.66856e-05
0.00528229
-6.29187e-05
0.00528332
-5.92836e-05
0.00528429
-5.57795e-05
0.00528521
-5.24057e-05
0.00528608
-4.91612e-05
0.0052869
-4.60449e-05
0.00528766
-4.30557e-05
0.00528838
-4.01923e-05
0.00528905
-3.74534e-05
0.00528967
-3.48373e-05
0.00529026
-3.23427e-05
0.0052908
-2.99676e-05
0.0052913
-2.77105e-05
0.00529176
-2.55695e-05
0.00529218
-2.35426e-05
0.00529257
-2.1628e-05
0.00529293
-1.98234e-05
0.00529326
-1.8127e-05
0.00529355
-1.65363e-05
0.00529382
-1.50495e-05
0.00529407
-1.3664e-05
0.00529429
-1.23789e-05
0.00529449
-1.11903e-05
0.00529466
-1.01e-05
0.00529482
-9.10058e-06
0.00529497
-8.20135e-06
0.00529509
-7.38342e-06
0.00529521
-6.67693e-06
0.00529531
-6.03167e-06
0.0052954
-5.52988e-06
0.00529549
-5.04472e-06
0.00529557
-4.77765e-06
0.00529564
-4.4332e-06
0.00529571
-4.45888e-06
0.00529578
-4.2274e-06
0.00529586
-4.6397e-06
0.00529594
-4.49338e-06
0.00529604
-5.41962e-06
0.00529612
-5.3622e-06
0.00529626
-6.93386e-06
0.00529638
-7.08234e-06
0.00529658
-9.33468e-06
0.00529675
-1.01385e-05
0.00529704
-1.2689e-05
0.0052973
-1.55028e-05
0.00529772
-1.68979e-05
0.0052982
-2.42484e-05
0.0052987
-2.36424e-05
0.00529959
-3.39353e-05
0.00530041
-3.76679e-05
-4.76233e-05
0.00525222
-0.000165539
0.00525409
-0.000159218
0.00525596
-0.000153029
0.0052578
-0.000146969
0.00525962
-0.000141037
0.00526141
-0.000135235
0.00526316
-0.000129562
0.00526488
-0.000124019
0.00526656
-0.000118606
0.00526819
-0.000113324
0.00526977
-0.000108174
0.0052713
-0.000103154
0.00527279
-9.82674e-05
0.00527422
-9.35132e-05
0.00527559
-8.88921e-05
0.00527691
-8.44044e-05
0.00527818
-8.00503e-05
0.00527939
-7.58296e-05
0.00528055
-7.17425e-05
0.00528165
-6.77885e-05
0.0052827
-6.39675e-05
0.0052837
-6.02789e-05
0.00528464
-5.67221e-05
0.00528553
-5.32966e-05
0.00528637
-5.00014e-05
0.00528716
-4.68357e-05
0.0052879
-4.37983e-05
0.0052886
-4.08882e-05
0.00528925
-3.81039e-05
0.00528986
-3.54441e-05
0.00529042
-3.29073e-05
0.00529095
-3.04917e-05
0.00529143
-2.81956e-05
0.00529188
-2.60174e-05
0.00529229
-2.39552e-05
0.00529267
-2.20068e-05
0.00529302
-2.01703e-05
0.00529333
-1.84437e-05
0.00529362
-1.68246e-05
0.00529388
-1.53111e-05
0.00529412
-1.39007e-05
0.00529433
-1.25923e-05
0.00529453
-1.13822e-05
0.0052947
-1.02722e-05
0.00529485
-9.25456e-06
0.00529499
-8.33903e-06
0.00529511
-7.50618e-06
0.00529522
-6.78702e-06
0.00529532
-6.12992e-06
0.00529541
-5.61948e-06
0.00529549
-5.12512e-06
0.00529557
-4.85436e-06
0.00529564
-4.50257e-06
0.00529571
-4.53138e-06
0.00529578
-4.29298e-06
0.00529585
-4.71836e-06
0.00529592
-4.56333e-06
0.00529602
-5.51763e-06
0.00529611
-5.44652e-06
0.00529624
-7.06901e-06
0.00529635
-7.19402e-06
0.00529655
-9.53282e-06
0.00529671
-1.02955e-05
0.00529701
-1.29867e-05
0.00529725
-1.57441e-05
0.00529767
-1.7318e-05
0.00529813
-2.47111e-05
0.00529862
-2.41351e-05
0.00529953
-3.4838e-05
0.00530032
-3.84637e-05
-4.89533e-05
0.00525404
-0.000167289
0.0052558
-0.000160972
0.00525755
-0.000154778
0.00525928
-0.000148707
0.005261
-0.000142757
0.0052627
-0.000136931
0.00526437
-0.00013123
0.005266
-0.000125654
0.0052676
-0.000120204
0.00526916
-0.000114882
0.00527067
-0.000109688
0.00527214
-0.000104624
0.00527356
-9.96894e-05
0.00527494
-9.48864e-05
0.00527626
-9.02153e-05
0.00527753
-8.56766e-05
0.00527875
-8.12709e-05
0.00527992
-7.69984e-05
0.00528104
-7.28592e-05
0.0052821
-6.88533e-05
0.00528312
-6.49806e-05
0.00528408
-6.12409e-05
0.00528499
-5.76337e-05
0.00528585
-5.41585e-05
0.00528667
-5.08147e-05
0.00528743
-4.76014e-05
0.00528815
-4.45177e-05
0.00528882
-4.15624e-05
0.00528946
-3.87344e-05
0.00529004
-3.60322e-05
0.00529059
-3.34546e-05
0.0052911
-3.09997e-05
0.00529157
-2.8666e-05
0.005292
-2.64518e-05
0.0052924
-2.43551e-05
0.00529277
-2.23741e-05
0.00529311
-2.05066e-05
0.00529341
-1.87506e-05
0.00529369
-1.71038e-05
0.00529395
-1.55645e-05
0.00529418
-1.41298e-05
0.00529438
-1.27988e-05
0.00529457
-1.15678e-05
0.00529473
-1.04385e-05
0.00529488
-9.40319e-06
0.00529502
-8.47181e-06
0.00529513
-7.62444e-06
0.00529524
-6.89297e-06
0.00529533
-6.22432e-06
0.00529542
-5.70552e-06
0.0052955
-5.20216e-06
0.00529557
-4.92794e-06
0.00529564
-4.56889e-06
0.00529571
-4.60099e-06
0.00529577
-4.35558e-06
0.00529584
-4.79424e-06
0.00529591
-4.6301e-06
0.00529601
-5.61279e-06
0.00529609
-5.52712e-06
0.00529622
-7.20117e-06
0.00529633
-7.3007e-06
0.00529652
-9.72828e-06
0.00529667
-1.04444e-05
0.00529697
-1.32844e-05
0.00529719
-1.59698e-05
0.00529762
-1.77433e-05
0.00529806
-2.51553e-05
0.00529855
-2.4617e-05
0.00529946
-3.57536e-05
0.00530023
-3.92293e-05
-5.02788e-05
0.00525587
-0.000168915
0.00525751
-0.000162608
0.00525914
-0.000156417
0.00526078
-0.00015034
0.0052624
-0.000144378
0.005264
-0.000138534
0.00526558
-0.000132809
0.00526713
-0.000127205
0.00526865
-0.000121724
0.00527014
-0.000116366
0.00527158
-0.000111134
0.00527299
-0.000106028
0.00527435
-0.000101051
0.00527566
-9.62027e-05
0.00527693
-9.1485e-05
0.00527816
-8.68988e-05
0.00527933
-8.24447e-05
0.00528046
-7.81232e-05
0.00528153
-7.39348e-05
0.00528256
-6.98796e-05
0.00528353
-6.59578e-05
0.00528446
-6.21694e-05
0.00528534
-5.8514e-05
0.00528618
-5.49913e-05
0.00528696
-5.16008e-05
0.0052877
-4.83417e-05
0.0052884
-4.52134e-05
0.00528905
-4.22147e-05
0.00528966
-3.93445e-05
0.00529023
-3.66015e-05
0.00529076
-3.39844e-05
0.00529125
-3.14916e-05
0.00529171
-2.91214e-05
0.00529213
-2.68723e-05
0.00529251
-2.47423e-05
0.00529287
-2.27295e-05
0.00529319
-2.0832e-05
0.00529349
-1.90475e-05
0.00529376
-1.7374e-05
0.00529401
-1.58094e-05
0.00529423
-1.43512e-05
0.00529443
-1.29983e-05
0.00529461
-1.17469e-05
0.00529477
-1.05989e-05
0.00529491
-9.5464e-06
0.00529504
-8.59962e-06
0.00529515
-7.73813e-06
0.00529525
-6.99472e-06
0.00529534
-6.31483e-06
0.00529543
-5.78795e-06
0.0052955
-5.2758e-06
0.00529557
-4.99835e-06
0.00529563
-4.6321e-06
0.0052957
-4.6677e-06
0.00529576
-4.41516e-06
0.00529583
-4.8673e-06
0.0052959
-4.69366e-06
0.00529599
-5.70506e-06
0.00529607
-5.60393e-06
0.0052962
-7.3303e-06
0.0052963
-7.40233e-06
0.00529649
-9.92097e-06
0.00529663
-1.0585e-05
0.00529693
-1.3582e-05
0.00529714
-1.61794e-05
0.00529757
-1.81742e-05
0.00529799
-2.55797e-05
0.00529846
-2.50877e-05
0.00529939
-3.66832e-05
0.00530013
-3.99624e-05
-5.15978e-05
0.0052577
-0.000170417
0.00525922
-0.000164127
0.00526074
-0.000157945
0.00526227
-0.000151868
0.0052638
-0.000145901
0.00526531
-0.000140045
0.0052668
-0.000134302
0.00526827
-0.000128675
0.00526971
-0.000123166
0.00527112
-0.000117777
0.0052725
-0.000112511
0.00527384
-0.000107368
0.00527514
-0.000102351
0.0052764
-9.74618e-05
0.00527761
-9.27011e-05
0.00527879
-8.80706e-05
0.00527991
-8.35712e-05
0.00528099
-7.92037e-05
0.00528203
-7.49689e-05
0.00528301
-7.08671e-05
0.00528395
-6.68988e-05
0.00528485
-6.30639e-05
0.0052857
-5.93625e-05
0.0052865
-5.57944e-05
0.00528726
-5.23593e-05
0.00528797
-4.90564e-05
0.00528865
-4.58852e-05
0.00528928
-4.28447e-05
0.00528987
-3.99339e-05
0.00529042
-3.71516e-05
0.00529093
-3.44965e-05
0.0052914
-3.1967e-05
0.00529184
-2.95616e-05
0.00529225
-2.72787e-05
0.00529262
-2.51165e-05
0.00529297
-2.30731e-05
0.00529328
-2.11464e-05
0.00529357
-1.93344e-05
0.00529383
-1.76349e-05
0.00529407
-1.60459e-05
0.00529428
-1.45648e-05
0.00529447
-1.31906e-05
0.00529464
-1.19195e-05
0.0052948
-1.07533e-05
0.00529494
-9.68413e-06
0.00529506
-8.7224e-06
0.00529517
-7.84721e-06
0.00529527
-7.09223e-06
0.00529535
-6.4014e-06
0.00529543
-5.86675e-06
0.0052955
-5.34601e-06
0.00529557
-5.06555e-06
0.00529563
-4.69218e-06
0.00529569
-4.73147e-06
0.00529575
-4.47168e-06
0.00529582
-4.93752e-06
0.00529588
-4.75398e-06
0.00529597
-5.79441e-06
0.00529604
-5.67693e-06
0.00529617
-7.45632e-06
0.00529627
-7.49887e-06
0.00529645
-1.01108e-05
0.00529659
-1.07171e-05
0.00529688
-1.38796e-05
0.00529708
-1.63724e-05
0.00529751
-1.86112e-05
0.00529792
-2.59834e-05
0.00529838
-2.55465e-05
0.00529932
-3.7628e-05
0.00530002
-4.06608e-05
-5.29079e-05
0.00525952
-0.000171798
0.00526093
-0.000165532
0.00526235
-0.000159363
0.00526377
-0.000153294
0.0052652
-0.000147326
0.00526661
-0.000141462
0.00526802
-0.000135707
0.00526941
-0.000130062
0.00527077
-0.000124531
0.00527211
-0.000119116
0.00527342
-0.000113819
0.00527469
-0.000108643
0.00527593
-0.000103591
0.00527713
-9.86635e-05
0.0052783
-9.38633e-05
0.00527942
-8.91917e-05
0.0052805
-8.46501e-05
0.00528153
-8.02397e-05
0.00528252
-7.59612e-05
0.00528347
-7.18155e-05
0.00528438
-6.78031e-05
0.00528524
-6.39242e-05
0.00528605
-6.01792e-05
0.00528683
-5.65678e-05
0.00528756
-5.309e-05
0.00528825
-4.97452e-05
0.00528889
-4.6533e-05
0.0052895
-4.34524e-05
0.00529007
-4.05026e-05
0.0052906
-3.76824e-05
0.0052911
-3.49907e-05
0.00529156
-3.24259e-05
0.00529198
-2.99865e-05
0.00529237
-2.76711e-05
0.00529273
-2.54777e-05
0.00529306
-2.34046e-05
0.00529337
-2.14498e-05
0.00529365
-1.96111e-05
0.0052939
-1.78864e-05
0.00529412
-1.62738e-05
0.00529433
-1.47706e-05
0.00529452
-1.33758e-05
0.00529468
-1.20854e-05
0.00529483
-1.09017e-05
0.00529496
-9.81633e-06
0.00529508
-8.84012e-06
0.00529518
-7.95163e-06
0.00529528
-7.18546e-06
0.00529536
-6.48402e-06
0.00529544
-5.94189e-06
0.0052955
-5.41276e-06
0.00529557
-5.12953e-06
0.00529562
-4.74911e-06
0.00529568
-4.79229e-06
0.00529574
-4.52514e-06
0.0052958
-5.00488e-06
0.00529586
-4.81103e-06
0.00529595
-5.88081e-06
0.00529602
-5.74609e-06
0.00529614
-7.5792e-06
0.00529623
-7.59027e-06
0.00529642
-1.02978e-05
0.00529654
-1.08409e-05
0.00529684
-1.41771e-05
0.00529702
-1.65484e-05
0.00529746
-1.90547e-05
0.00529784
-2.63655e-05
0.00529829
-2.59931e-05
0.00529925
-3.85888e-05
0.00529991
-4.13224e-05
-5.42068e-05
0.00526135
-0.00017306
0.00526264
-0.000166822
0.00526395
-0.000160674
0.00526527
-0.000154617
0.0052666
-0.000148654
0.00526793
-0.000142789
0.00526924
-0.000137025
0.00527055
-0.000131367
0.00527184
-0.000125818
0.0052731
-0.000120381
0.00527434
-0.000115058
0.00527555
-0.000109853
0.00527673
-0.000104769
0.00527787
-9.98076e-05
0.00527898
-9.49713e-05
0.00528005
-9.0262e-05
0.00528108
-8.56814e-05
0.00528207
-8.12308e-05
0.00528302
-7.69116e-05
0.00528393
-7.27246e-05
0.0052848
-6.86706e-05
0.00528563
-6.47501e-05
0.00528641
-6.09636e-05
0.00528715
-5.73111e-05
0.00528786
-5.37927e-05
0.00528852
-5.04079e-05
0.00528914
-4.71564e-05
0.00528973
-4.40375e-05
0.00529028
-4.10503e-05
0.00529079
-3.81937e-05
0.00529126
-3.54668e-05
0.00529171
-3.2868e-05
0.00529212
-3.03959e-05
0.00529249
-2.80491e-05
0.00529284
-2.58257e-05
0.00529316
-2.3724e-05
0.00529345
-2.17419e-05
0.00529372
-1.98775e-05
0.00529396
-1.81285e-05
0.00529418
-1.64931e-05
0.00529438
-1.49684e-05
0.00529456
-1.35536e-05
0.00529472
-1.22448e-05
0.00529486
-1.1044e-05
0.00529498
-9.94297e-06
0.0052951
-8.95274e-06
0.0052952
-8.05137e-06
0.00529529
-7.27439e-06
0.00529536
-6.56266e-06
0.00529544
-6.01335e-06
0.0052955
-5.47604e-06
0.00529556
-5.19028e-06
0.00529561
-4.80288e-06
0.00529567
-4.85015e-06
0.00529572
-4.57552e-06
0.00529579
-5.06936e-06
0.00529584
-4.86479e-06
0.00529592
-5.96423e-06
0.00529599
-5.81139e-06
0.00529611
-7.69888e-06
0.00529619
-7.67653e-06
0.00529638
-1.04817e-05
0.00529649
-1.09561e-05
0.00529679
-1.44744e-05
0.00529695
-1.67069e-05
0.0052974
-1.9505e-05
0.00529776
-2.67252e-05
0.00529819
-2.64269e-05
0.00529917
-3.95664e-05
0.00529979
-4.19455e-05
-5.5492e-05
0.00526317
-0.000174203
0.00526435
-0.000168001
0.00526555
-0.000161879
0.00526677
-0.000155839
0.005268
-0.000149886
0.00526924
-0.000144024
0.00527047
-0.000138257
0.00527169
-0.000132591
0.0052729
-0.000127028
0.0052741
-0.000121573
0.00527527
-0.000116228
0.00527641
-0.000110998
0.00527753
-0.000105886
0.00527862
-0.000100894
0.00527967
-9.60251e-05
0.00528069
-9.12812e-05
0.00528167
-8.66646e-05
0.00528262
-8.2177e-05
0.00528353
-7.78197e-05
0.0052844
-7.3594e-05
0.00528523
-6.9501e-05
0.00528602
-6.55413e-05
0.00528677
-6.17156e-05
0.00528748
-5.80242e-05
0.00528816
-5.44671e-05
0.00528879
-5.10443e-05
0.00528939
-4.77554e-05
0.00528995
-4.45998e-05
0.00529048
-4.15768e-05
0.00529097
-3.86854e-05
0.00529143
-3.59247e-05
0.00529186
-3.32932e-05
0.00529225
-3.07897e-05
0.00529261
-2.84127e-05
0.00529295
-2.61604e-05
0.00529325
-2.40311e-05
0.00529354
-2.20228e-05
0.00529379
-2.01336e-05
0.00529402
-1.83611e-05
0.00529423
-1.67036e-05
0.00529442
-1.51583e-05
0.00529459
-1.37242e-05
0.00529475
-1.23974e-05
0.00529488
-1.11802e-05
0.005295
-1.0064e-05
0.00529511
-9.06024e-06
0.00529521
-8.14641e-06
0.00529529
-7.359e-06
0.00529537
-6.6373e-06
0.00529543
-6.08112e-06
0.00529549
-5.53584e-06
0.00529555
-5.24778e-06
0.0052956
-4.85349e-06
0.00529566
-4.90503e-06
0.0052957
-4.62281e-06
0.00529577
-5.13097e-06
0.00529582
-4.91527e-06
0.0052959
-6.04467e-06
0.00529596
-5.87282e-06
0.00529607
-7.81534e-06
0.00529616
-7.75765e-06
0.00529634
-1.06625e-05
0.00529644
-1.10628e-05
0.00529674
-1.47715e-05
0.00529688
-1.6848e-05
0.00529734
-1.99622e-05
0.00529768
-2.7062e-05
0.0052981
-2.68475e-05
0.00529909
-4.0561e-05
0.00529967
-4.25285e-05
-5.67611e-05
0.00526498
-0.000175231
0.00526605
-0.000169069
0.00526715
-0.000162978
0.00526827
-0.000156961
0.00526941
-0.000151022
0.00527055
-0.000145168
0.0052717
-0.000139403
0.00527284
-0.000133733
0.00527397
-0.000128161
0.00527509
-0.000122692
0.00527619
-0.00011733
0.00527727
-0.000112079
0.00527833
-0.000106942
0.00527936
-0.000101923
0.00528036
-9.70245e-05
0.00528132
-9.22494e-05
0.00528226
-8.75998e-05
0.00528316
-8.30779e-05
0.00528403
-7.86854e-05
0.00528486
-7.44237e-05
0.00528565
-7.02941e-05
0.00528641
-6.62977e-05
0.00528713
-6.2435e-05
0.00528781
-5.87068e-05
0.00528845
-5.51131e-05
0.00528906
-5.16541e-05
0.00528964
-4.83296e-05
0.00529018
-4.51391e-05
0.00529068
-4.20819e-05
0.00529115
-3.91573e-05
0.00529159
-3.63642e-05
0.005292
-3.37015e-05
0.00529238
-3.11678e-05
0.00529273
-2.87618e-05
0.00529305
-2.64818e-05
0.00529335
-2.43259e-05
0.00529361
-2.22924e-05
0.00529386
-2.03792e-05
0.00529408
-1.85842e-05
0.00529429
-1.69054e-05
0.00529447
-1.53401e-05
0.00529463
-1.38875e-05
0.00529478
-1.25434e-05
0.00529491
-1.13103e-05
0.00529502
-1.01794e-05
0.00529512
-9.1626e-06
0.00529521
-8.23674e-06
0.00529529
-7.43929e-06
0.00529537
-6.70795e-06
0.00529543
-6.14521e-06
0.00529549
-5.59218e-06
0.00529554
-5.30206e-06
0.00529559
-4.90094e-06
0.00529564
-4.95696e-06
0.00529568
-4.66703e-06
0.00529574
-5.1897e-06
0.00529579
-4.96246e-06
0.00529587
-6.12213e-06
0.00529592
-5.93039e-06
0.00529604
-7.92854e-06
0.00529611
-7.83364e-06
0.00529629
-1.08401e-05
0.00529639
-1.1161e-05
0.00529669
-1.50681e-05
0.00529681
-1.69714e-05
0.00529727
-2.04261e-05
0.00529759
-2.73754e-05
0.00529799
-2.72546e-05
0.00529901
-4.15728e-05
0.00529955
-4.30702e-05
-5.8012e-05
0.00526679
-0.000176145
0.00526774
-0.000170028
0.00526874
-0.000163973
0.00526976
-0.000157983
0.0052708
-0.000152065
0.00527186
-0.000146223
0.00527292
-0.000140464
0.00527398
-0.000134794
0.00527504
-0.000129217
0.00527608
-0.000123739
0.00527712
-0.000118363
0.00527813
-0.000113094
0.00527913
-0.000107937
0.0052801
-0.000102894
0.00528104
-9.79695e-05
0.00528196
-9.31662e-05
0.00528285
-8.84868e-05
0.0052837
-8.39336e-05
0.00528453
-7.95086e-05
0.00528532
-7.52135e-05
0.00528607
-7.10499e-05
0.00528679
-6.7019e-05
0.00528748
-6.31217e-05
0.00528813
-5.93587e-05
0.00528875
-5.57306e-05
0.00528933
-5.22374e-05
0.00528988
-4.88791e-05
0.0052904
-4.56553e-05
0.00529088
-4.25656e-05
0.00529133
-3.96092e-05
0.00529176
-3.67853e-05
0.00529215
-3.40927e-05
0.00529251
-3.15301e-05
0.00529284
-2.90963e-05
0.00529315
-2.67896e-05
0.00529343
-2.46083e-05
0.00529369
-2.25506e-05
0.00529393
-2.06144e-05
0.00529414
-1.87976e-05
0.00529433
-1.70984e-05
0.00529451
-1.55139e-05
0.00529466
-1.40433e-05
0.0052948
-1.26826e-05
0.00529493
-1.14342e-05
0.00529504
-1.02892e-05
0.00529513
-9.25983e-06
0.00529522
-8.32237e-06
0.00529529
-7.51528e-06
0.00529536
-6.77463e-06
0.00529542
-6.20563e-06
0.00529547
-5.64507e-06
0.00529553
-5.35313e-06
0.00529557
-4.94526e-06
0.00529562
-5.00595e-06
0.00529566
-4.70819e-06
0.00529572
-5.24557e-06
0.00529576
-5.00639e-06
0.00529583
-6.1966e-06
0.00529589
-5.98412e-06
0.005296
-8.03846e-06
0.00529607
-7.90453e-06
0.00529624
-1.10144e-05
0.00529633
-1.12509e-05
0.00529663
-1.53641e-05
0.00529674
-1.70774e-05
0.00529721
-2.08965e-05
0.0052975
-2.76652e-05
0.00529789
-2.76477e-05
0.00529892
-4.26013e-05
0.00529942
-4.357e-05
-5.92423e-05
0.00526858
-0.000176946
0.00526943
-0.000170879
0.00527032
-0.000164865
0.00527125
-0.000158908
0.0052722
-0.000153014
0.00527316
-0.000147189
0.00527414
-0.000141441
0.00527512
-0.000135775
0.0052761
-0.000130197
0.00527708
-0.000124713
0.00527804
-0.000119327
0.00527899
-0.000114045
0.00527993
-0.00010887
0.00528084
-0.000103807
0.00528173
-9.88601e-05
0.0052826
-9.40318e-05
0.00528343
-8.93256e-05
0.00528424
-8.47439e-05
0.00528502
-8.02891e-05
0.00528577
-7.59633e-05
0.00528649
-7.17682e-05
0.00528718
-6.77052e-05
0.00528783
-6.37755e-05
0.00528845
-5.998e-05
0.00528904
-5.63193e-05
0.0052896
-5.27938e-05
0.00529012
-4.94036e-05
0.00529062
-4.61484e-05
0.00529108
-4.30278e-05
0.00529151
-4.00412e-05
0.00529191
-3.71878e-05
0.00529229
-3.44667e-05
0.00529263
-3.18765e-05
0.00529295
-2.94162e-05
0.00529325
-2.7084e-05
0.00529352
-2.48783e-05
0.00529376
-2.27973e-05
0.00529399
-2.08391e-05
0.00529419
-1.90015e-05
0.00529438
-1.72826e-05
0.00529454
-1.56796e-05
0.00529469
-1.41919e-05
0.00529482
-1.28151e-05
0.00529494
-1.1552e-05
0.00529505
-1.03935e-05
0.00529514
-9.35196e-06
0.00529522
-8.40332e-06
0.00529529
-7.58699e-06
0.00529535
-6.83736e-06
0.00529541
-6.26241e-06
0.00529546
-5.69454e-06
0.00529551
-5.40101e-06
0.00529555
-4.98647e-06
0.0052956
-5.05204e-06
0.00529563
-4.74633e-06
0.00529569
-5.29862e-06
0.00529573
-5.04709e-06
0.0052958
-6.26812e-06
0.00529585
-6.03402e-06
0.00529596
-8.14509e-06
0.00529602
-7.97037e-06
0.00529619
-1.11853e-05
0.00529627
-1.13325e-05
0.00529657
-1.5659e-05
0.00529666
-1.71661e-05
0.00529713
-2.13729e-05
0.0052974
-2.79315e-05
0.00529778
-2.80266e-05
0.00529882
-4.36455e-05
0.00529928
-4.40277e-05
-6.04501e-05
0.00527036
-0.000177638
0.00527111
-0.000171625
0.0052719
-0.000165657
0.00527273
-0.000159736
0.00527359
-0.00015387
0.00527446
-0.000148067
0.00527536
-0.000142334
0.00527626
-0.000136676
0.00527716
-0.000131102
0.00527807
-0.000125616
0.00527896
-0.000120224
0.00527985
-0.000114931
0.00528072
-0.000109743
0.00528158
-0.000104663
0.00528241
-9.96963e-05
0.00528323
-9.48462e-05
0.00528402
-9.0116e-05
0.00528478
-8.55087e-05
0.00528552
-8.10269e-05
0.00528623
-7.6673e-05
0.00528691
-7.24488e-05
0.00528756
-6.83561e-05
0.00528818
-6.43963e-05
0.00528877
-6.05704e-05
0.00528933
-5.68793e-05
0.00528986
-5.33235e-05
0.00529036
-4.99031e-05
0.00529083
-4.66182e-05
0.00529127
-4.34683e-05
0.00529168
-4.04531e-05
0.00529207
-3.75718e-05
0.00529242
-3.48235e-05
0.00529276
-3.22071e-05
0.00529306
-2.97213e-05
0.00529334
-2.73648e-05
0.0052936
-2.51358e-05
0.00529383
-2.30326e-05
0.00529405
-2.10533e-05
0.00529424
-1.91957e-05
0.00529442
-1.7458e-05
0.00529458
-1.58373e-05
0.00529472
-1.43331e-05
0.00529484
-1.29409e-05
0.00529495
-1.16637e-05
0.00529505
-1.04921e-05
0.00529514
-9.439e-06
0.00529522
-8.47964e-06
0.00529528
-7.65445e-06
0.00529534
-6.89618e-06
0.0052954
-6.31559e-06
0.00529544
-5.74063e-06
0.00529549
-5.44576e-06
0.00529552
-5.02463e-06
0.00529557
-5.09526e-06
0.0052956
-4.78148e-06
0.00529565
-5.34889e-06
0.00529569
-5.08458e-06
0.00529576
-6.33671e-06
0.00529581
-6.08015e-06
0.00529591
-8.24843e-06
0.00529597
-8.03125e-06
0.00529614
-1.13526e-05
0.00529621
-1.14062e-05
0.0052965
-1.59524e-05
0.00529658
-1.72383e-05
0.00529706
-2.18543e-05
0.0052973
-2.81748e-05
0.00529767
-2.83911e-05
0.00529872
-4.47038e-05
0.00529914
-4.44436e-05
-6.16337e-05
0.00527214
-0.000178221
0.00527278
-0.000172268
0.00527347
-0.000166348
0.0052742
-0.000160468
0.00527497
-0.000154636
0.00527576
-0.000148858
0.00527657
-0.000143143
0.00527739
-0.000137498
0.00527822
-0.000131931
0.00527905
-0.000126447
0.00527988
-0.000121052
0.0052807
-0.000115753
0.00528151
-0.000110554
0.00528231
-0.000105461
0.00528309
-0.000100478
0.00528386
-9.56093e-05
0.0052846
-9.08582e-05
0.00528532
-8.62281e-05
0.00528601
-8.17221e-05
0.00528668
-7.73425e-05
0.00528732
-7.30918e-05
0.00528794
-6.89718e-05
0.00528853
-6.49841e-05
0.00528909
-6.113e-05
0.00528962
-5.74105e-05
0.00529012
-5.38262e-05
0.0052906
-5.03776e-05
0.00529104
-4.70646e-05
0.00529146
-4.38872e-05
0.00529185
-4.08449e-05
0.00529222
-3.79371e-05
0.00529256
-3.5163e-05
0.00529287
-3.25216e-05
0.00529316
-3.00118e-05
0.00529343
-2.76321e-05
0.00529368
-2.53809e-05
0.0052939
-2.32565e-05
0.0052941
-2.1257e-05
0.00529429
-1.93803e-05
0.00529445
-1.76246e-05
0.0052946
-1.5987e-05
0.00529474
-1.44669e-05
0.00529486
-1.30601e-05
0.00529496
-1.17693e-05
0.00529506
-1.05852e-05
0.00529514
-9.52102e-06
0.00529521
-8.55136e-06
0.00529527
-7.71773e-06
0.00529533
-6.95114e-06
0.00529538
-6.36524e-06
0.00529542
-5.7834e-06
0.00529546
-5.48742e-06
0.0052955
-5.05978e-06
0.00529554
-5.13567e-06
0.00529557
-4.8137e-06
0.00529562
-5.39642e-06
0.00529565
-5.11892e-06
0.00529572
-6.40242e-06
0.00529576
-6.12256e-06
0.00529586
-8.3485e-06
0.00529592
-8.08725e-06
0.00529608
-1.15164e-05
0.00529615
-1.14721e-05
0.00529644
-1.6244e-05
0.00529649
-1.72944e-05
0.00529698
-2.23397e-05
0.0052972
-2.83956e-05
0.00529755
-2.8741e-05
0.00529862
-4.5774e-05
0.00529899
-4.48189e-05
-6.27914e-05
0.00527389
-0.000178699
0.00527443
-0.000172808
0.00527503
-0.000166942
0.00527566
-0.000161107
0.00527634
-0.000155311
0.00527704
-0.000149562
0.00527777
-0.00014387
0.00527851
-0.000138242
0.00527927
-0.000132685
0.00528003
-0.000127207
0.00528079
-0.000121813
0.00528155
-0.000116511
0.0052823
-0.000111305
0.00528304
-0.000106202
0.00528377
-0.000101206
0.00528448
-9.63212e-05
0.00528517
-9.15521e-05
0.00528585
-8.69021e-05
0.0052865
-8.23745e-05
0.00528713
-7.7972e-05
0.00528773
-7.36972e-05
0.00528832
-6.95522e-05
0.00528887
-6.55388e-05
0.0052894
-6.16586e-05
0.0052899
-5.79127e-05
0.00529038
-5.4302e-05
0.00529083
-5.0827e-05
0.00529125
-4.74878e-05
0.00529165
-4.42844e-05
0.00529202
-4.12166e-05
0.00529236
-3.82838e-05
0.00529269
-3.54853e-05
0.00529299
-3.28203e-05
0.00529326
-3.02875e-05
0.00529351
-2.78858e-05
0.00529375
-2.56135e-05
0.00529396
-2.34689e-05
0.00529415
-2.14502e-05
0.00529433
-1.95553e-05
0.00529449
-1.77824e-05
0.00529463
-1.61287e-05
0.00529475
-1.45935e-05
0.00529487
-1.31726e-05
0.00529497
-1.18689e-05
0.00529505
-1.06729e-05
0.00529513
-9.59805e-06
0.0052952
-8.61855e-06
0.00529526
-7.77687e-06
0.00529531
-7.00231e-06
0.00529535
-6.4114e-06
0.00529539
-5.82291e-06
0.00529543
-5.52607e-06
0.00529547
-5.09199e-06
0.0052955
-5.17334e-06
0.00529553
-4.84305e-06
0.00529558
-5.44128e-06
0.00529561
-5.15018e-06
0.00529567
-6.46529e-06
0.00529571
-6.16131e-06
0.00529581
-8.44529e-06
0.00529586
-8.13848e-06
0.00529602
-1.16764e-05
0.00529608
-1.15305e-05
0.00529637
-1.65331e-05
0.00529641
-1.73355e-05
0.00529689
-2.28276e-05
0.00529709
-2.85951e-05
0.00529743
-2.90762e-05
0.00529851
-4.68533e-05
0.00529884
-4.51552e-05
-6.39221e-05
0.00527563
-0.000179072
0.00527607
-0.000173247
0.00527657
-0.000167439
0.00527712
-0.000161652
0.0052777
-0.000155897
0.00527832
-0.000150181
0.00527897
-0.000144516
0.00527963
-0.000138908
0.00528031
-0.000133365
0.005281
-0.000127896
0.0052817
-0.000122507
0.00528239
-0.000117205
0.00528308
-0.000111996
0.00528376
-0.000106886
0.00528444
-0.00010188
0.0052851
-9.69821e-05
0.00528574
-9.21979e-05
0.00528637
-8.75307e-05
0.00528698
-8.29842e-05
0.00528757
-7.85613e-05
0.00528814
-7.42648e-05
0.00528868
-7.00972e-05
0.00528921
-6.60605e-05
0.0052897
-6.21563e-05
0.00529018
-5.83861e-05
0.00529063
-5.47509e-05
0.00529105
-5.12513e-05
0.00529145
-4.78876e-05
0.00529183
-4.46599e-05
0.00529218
-4.15681e-05
0.00529251
-3.86118e-05
0.00529281
-3.57904e-05
0.00529309
-3.3103e-05
0.00529335
-3.05486e-05
0.00529359
-2.8126e-05
0.00529381
-2.58337e-05
0.00529402
-2.36699e-05
0.0052942
-2.16331e-05
0.00529436
-1.97209e-05
0.00529451
-1.79316e-05
0.00529465
-1.62625e-05
0.00529477
-1.4713e-05
0.00529487
-1.32786e-05
0.00529497
-1.19626e-05
0.00529505
-1.07551e-05
0.00529512
-9.67019e-06
0.00529518
-8.68128e-06
0.00529524
-7.83196e-06
0.00529529
-7.04977e-06
0.00529533
-6.45417e-06
0.00529536
-5.85925e-06
0.0052954
-5.56178e-06
0.00529543
-5.12135e-06
0.00529546
-5.20834e-06
0.00529549
-4.86962e-06
0.00529553
-5.48354e-06
0.00529556
-5.17843e-06
0.00529562
-6.5254e-06
0.00529566
-6.19648e-06
0.00529575
-8.53885e-06
0.0052958
-8.18505e-06
0.00529595
-1.18325e-05
0.005296
-1.15818e-05
0.00529629
-1.68191e-05
0.00529632
-1.73627e-05
0.00529681
-2.33163e-05
0.00529699
-2.87747e-05
0.00529731
-2.93968e-05
0.00529839
-4.79382e-05
0.00529869
-4.54546e-05
-6.50248e-05
0.00527736
-0.000179343
0.0052777
-0.000173588
0.0052781
-0.00016784
0.00527855
-0.000162106
0.00527905
-0.000156395
0.00527959
-0.000150716
0.00528015
-0.00014508
0.00528074
-0.000139496
0.00528135
-0.000133972
0.00528197
-0.000128516
0.00528259
-0.000123135
0.00528322
-0.000117836
0.00528385
-0.000112627
0.00528448
-0.000107512
0.0052851
-0.000102499
0.00528571
-9.75921e-05
0.00528631
-9.27957e-05
0.00528689
-8.81141e-05
0.00528746
-8.35513e-05
0.00528801
-7.91106e-05
0.00528854
-7.47949e-05
0.00528905
-7.0607e-05
0.00528954
-6.65491e-05
0.00529
-6.26232e-05
0.00529045
-5.88307e-05
0.00529087
-5.51729e-05
0.00529127
-5.16505e-05
0.00529165
-4.82641e-05
0.005292
-4.50138e-05
0.00529233
-4.18996e-05
0.00529264
-3.89213e-05
0.00529293
-3.60782e-05
0.0052932
-3.33698e-05
0.00529344
-3.07951e-05
0.00529367
-2.83528e-05
0.00529388
-2.60415e-05
0.00529407
-2.38597e-05
0.00529424
-2.18055e-05
0.00529439
-1.98769e-05
0.00529454
-1.80722e-05
0.00529466
-1.63885e-05
0.00529477
-1.48252e-05
0.00529487
-1.33781e-05
0.00529496
-1.20503e-05
0.00529504
-1.08321e-05
0.00529511
-9.73751e-06
0.00529516
-8.73965e-06
0.00529521
-7.88309e-06
0.00529526
-7.0936e-06
0.0052953
-6.49363e-06
0.00529533
-5.8925e-06
0.00529536
-5.59465e-06
0.00529539
-5.14793e-06
0.00529542
-5.24077e-06
0.00529545
-4.89347e-06
0.00529549
-5.52329e-06
0.00529551
-5.20375e-06
0.00529557
-6.58282e-06
0.0052956
-6.22816e-06
0.00529569
-8.62922e-06
0.00529573
-8.22711e-06
0.00529589
-1.19847e-05
0.00529593
-1.16264e-05