/*--------------------------------*- C++ -*----------------------------------*\
| =========                 |                                                 |
| \\      /  F ield         | OpenFOAM: The Open Source CFD Toolbox           |
|  \\    /   O peration     | Version:  2412                                  |
|   \\  /    A nd           | Website:  www.openfoam.com                      |
|    \\/     M anipulation  |                                                 |
\*---------------------------------------------------------------------------*/
FoamFile
{
    version     2.0;
    format      ascii;
    arch        "LSB;label=32;scalar=64";
    class       volScalarField;
    location    "9.5";
    object      p;
}
// * * * * * * * * * * * * * * * * * * * * * * * * * * * * * * * * * * * * * //

dimensions      [0 2 -2 0 0 0 0];

internalField   nonuniform List<scalar> 
63420
(
0.00102021
0.00102062
0.00102133
0.00102267
0.00102437
0.0010265
0.00102903
0.00103192
0.00103517
0.00103879
0.00104275
0.00104706
0.00105172
0.00105672
0.00106206
0.00106773
0.00107373
0.00108006
0.00108672
0.00109371
0.00110103
0.00110868
0.00111665
0.00112496
0.0011336
0.00114258
0.00115189
0.00116154
0.00117153
0.00118187
0.00119255
0.00120359
0.00121498
0.00122673
0.00123884
0.00125132
0.00126417
0.00127739
0.00129099
0.00130497
0.00131934
0.0013341
0.00134926
0.00136482
0.00138078
0.00139716
0.00141395
0.00143116
0.0014488
0.00146687
0.00148537
0.00150432
0.00152371
0.00154356
0.00156386
0.00102016
0.00102056
0.00102127
0.00102261
0.00102431
0.00102643
0.00102896
0.00103185
0.0010351
0.00103871
0.00104267
0.00104698
0.00105164
0.00105663
0.00106197
0.00106763
0.00107363
0.00107996
0.00108661
0.00109359
0.0011009
0.00110854
0.00111651
0.00112481
0.00113344
0.00114241
0.00115171
0.00116135
0.00117133
0.00118166
0.00119233
0.00120335
0.00121473
0.00122646
0.00123856
0.00125102
0.00126385
0.00127705
0.00129063
0.00130459
0.00131894
0.00133367
0.00134881
0.00136434
0.00138027
0.00139662
0.00141338
0.00143055
0.00144815
0.00146618
0.00148465
0.00150355
0.00152289
0.00154269
0.00156294
0.00102004
0.00102044
0.00102115
0.00102248
0.00102418
0.00102631
0.00102883
0.00103171
0.00103496
0.00103857
0.00104252
0.00104683
0.00105147
0.00105646
0.00106178
0.00106744
0.00107343
0.00107974
0.00108639
0.00109336
0.00110065
0.00110828
0.00111623
0.00112452
0.00113313
0.00114208
0.00115136
0.00116098
0.00117094
0.00118124
0.00119189
0.00120288
0.00121423
0.00122593
0.001238
0.00125042
0.00126322
0.00127638
0.00128992
0.00130383
0.00131813
0.00133282
0.0013479
0.00136338
0.00137926
0.00139554
0.00141223
0.00142934
0.00144687
0.00146482
0.0014832
0.00150201
0.00152126
0.00154096
0.0015611
0.00101986
0.00102026
0.00102097
0.0010223
0.00102399
0.00102611
0.00102863
0.00103151
0.00103475
0.00103835
0.00104229
0.00104659
0.00105123
0.0010562
0.00106151
0.00106715
0.00107313
0.00107942
0.00108605
0.001093
0.00110028
0.00110788
0.00111581
0.00112407
0.00113266
0.00114158
0.00115083
0.00116042
0.00117035
0.00118061
0.00119122
0.00120218
0.00121348
0.00122514
0.00123715
0.00124953
0.00126227
0.00127537
0.00128885
0.0013027
0.00131693
0.00133155
0.00134655
0.00136195
0.00137774
0.00139393
0.00141052
0.00142753
0.00144494
0.00146278
0.00148103
0.00149971
0.00151883
0.00153837
0.00155835
0.00101963
0.00102002
0.00102073
0.00102205
0.00102374
0.00102585
0.00102836
0.00103123
0.00103447
0.00103805
0.00104199
0.00104627
0.00105089
0.00105585
0.00106115
0.00106677
0.00107272
0.001079
0.0010856
0.00109253
0.00109978
0.00110736
0.00111526
0.00112348
0.00113204
0.00114092
0.00115013
0.00115968
0.00116956
0.00117978
0.00119034
0.00120124
0.00121249
0.00122408
0.00123604
0.00124834
0.00126101
0.00127404
0.00128743
0.0013012
0.00131534
0.00132986
0.00134476
0.00136004
0.00137572
0.00139178
0.00140825
0.00142512
0.00144239
0.00146007
0.00147816
0.00149667
0.00151559
0.00153494
0.00155471
0.00101933
0.00101972
0.00102043
0.00102175
0.00102343
0.00102553
0.00102803
0.00103089
0.00103411
0.00103769
0.00104161
0.00104588
0.00105048
0.00105542
0.00106069
0.00106629
0.00107222
0.00107847
0.00108505
0.00109194
0.00109916
0.0011067
0.00111456
0.00112275
0.00113126
0.00114009
0.00114926
0.00115875
0.00116858
0.00117874
0.00118923
0.00120007
0.00121125
0.00122277
0.00123464
0.00124686
0.00125944
0.00127237
0.00128567
0.00129932
0.00131335
0.00132775
0.00134252
0.00135767
0.0013732
0.00138912
0.00140542
0.00142212
0.00143921
0.0014567
0.00147459
0.00149288
0.00151158
0.00153068
0.0015502
0.00101898
0.00101937
0.00102006
0.00102138
0.00102306
0.00102515
0.00102763
0.00103048
0.00103369
0.00103725
0.00104116
0.0010454
0.00104999
0.0010549
0.00106015
0.00106572
0.00107162
0.00107784
0.00108438
0.00109124
0.00109841
0.00110591
0.00111373
0.00112187
0.00113032
0.00113911
0.00114821
0.00115764
0.0011674
0.00117749
0.00118791
0.00119867
0.00120976
0.0012212
0.00123297
0.00124509
0.00125756
0.00127038
0.00128356
0.00129709
0.00131098
0.00132523
0.00133985
0.00135484
0.0013702
0.00138594
0.00140205
0.00141855
0.00143543
0.00145269
0.00147034
0.00148837
0.0015068
0.00152562
0.00154482
0.00158469
0.00160625
0.00162875
0.00165223
0.00167678
0.00170244
0.00172927
0.00175736
0.00178678
0.00181763
0.00184999
0.00188396
0.00191965
0.00195719
0.0019967
0.00203833
0.00208223
0.0021286
0.0021776
0.00222945
0.00228439
0.00234267
0.00240459
0.00247045
0.0025406
0.00261542
0.00269533
0.00278081
0.00287237
0.00297057
0.00307607
0.00318956
0.00331182
0.00344369
0.00358611
0.00374006
0.00390659
0.00408673
0.00428143
0.0044914
0.00471688
0.0049573
0.00521083
0.00547403
0.00574197
0.00600907
0.00626956
0.00652856
0.0068565
0.00735264
0.00158374
0.0016053
0.0016278
0.00165131
0.00167584
0.00170148
0.00172831
0.00175639
0.00178581
0.00181665
0.001849
0.00188296
0.00191864
0.00195617
0.00199566
0.00203727
0.00208116
0.0021275
0.00217647
0.00222828
0.00228317
0.0023414
0.00240323
0.00246899
0.00253902
0.00261368
0.0026934
0.00277863
0.00286987
0.00296769
0.00307268
0.00318554
0.00330699
0.00343783
0.00357892
0.00373118
0.0038955
0.00407276
0.0042637
0.00446873
0.00468772
0.00491959
0.00516187
0.0054103
0.00565894
0.00590116
0.00613056
0.00635138
0.00662963
0.00705752
0.00158184
0.00160341
0.00162592
0.00164939
0.00167392
0.00169956
0.00172638
0.00175446
0.00178386
0.00181469
0.00184702
0.00188097
0.00191663
0.00195413
0.00199359
0.00203517
0.00207902
0.0021253
0.00217421
0.00222594
0.00228074
0.00233884
0.00240053
0.0024661
0.00253588
0.00261024
0.00268957
0.00277431
0.00286494
0.00296198
0.00306599
0.0031776
0.00329746
0.00342628
0.00356477
0.00371366
0.00387362
0.0040452
0.00422869
0.00442391
0.00462994
0.00484469
0.00506434
0.00528299
0.00549266
0.00568456
0.00585129
0.00599553
0.00617001
0.00647473
0.00157901
0.00160057
0.00162306
0.00164652
0.00167104
0.00169667
0.00172348
0.00175154
0.00178093
0.00181173
0.00184404
0.00187795
0.00191358
0.00195104
0.00199046
0.00203197
0.00207575
0.00212195
0.00217076
0.00222237
0.00227701
0.00233492
0.00239637
0.00246164
0.00253104
0.00260493
0.00268366
0.00276765
0.00285733
0.00295318
0.00305569
0.00316541
0.00328286
0.00340861
0.00354318
0.00368701
0.00384043
0.0040035
0.00417584
0.00435643
0.00454316
0.00473238
0.00491829
0.00509249
0.00524398
0.0053606
0.00543332
0.00546633
0.00549638
0.00558377
0.00157525
0.0015968
0.00161928
0.00164274
0.00166724
0.00169286
0.00171966
0.0017477
0.00177707
0.00180785
0.00184013
0.00187402
0.00190961
0.00194702
0.00198638
0.00202784
0.00207153
0.00211764
0.00216633
0.00221779
0.00227224
0.00232992
0.00239106
0.00245595
0.00252487
0.00259813
0.00267608
0.00275909
0.00284752
0.00294179
0.00304231
0.00314949
0.00326373
0.00338536
0.00351464
0.00365165
0.00379623
0.00394776
0.00410502
0.00426578
0.00442639
0.00458116
0.00472168
0.00483634
0.00491032
0.00492705
0.00487432
0.00475971
0.00460908
0.00436152
0.00157059
0.00159214
0.00161462
0.00163809
0.00166261
0.00168824
0.00171506
0.00174312
0.00177252
0.00180332
0.00183562
0.00186953
0.00190514
0.00194258
0.00198196
0.00202344
0.00206717
0.0021133
0.00216201
0.00221348
0.00226792
0.00232555
0.00238661
0.00245134
0.00252003
0.00259296
0.00267043
0.00275276
0.00284029
0.00293334
0.00303223
0.00313725
0.00324861
0.0033664
0.00349054
0.00362064
0.00375582
0.00389454
0.00403419
0.00417065
0.00429771
0.00440628
0.00448369
0.00451319
0.00447416
0.00434417
0.00410596
0.0037681
0.00334894
0.002649
0.001565
0.00158648
0.0016089
0.00163232
0.00165679
0.00168237
0.00170913
0.00173714
0.00176648
0.00179723
0.00182947
0.00186331
0.00189885
0.00193622
0.00197554
0.00201694
0.00206059
0.00210664
0.00215525
0.00220661
0.00226093
0.0023184
0.00237926
0.00244373
0.00251207
0.00258455
0.00266144
0.00274301
0.00282955
0.00292131
0.00301853
0.00312135
0.00322982
0.00334379
0.00346283
0.00358601
0.00371173
0.00383729
0.00395842
0.00406853
0.0041579
0.00421263
0.00421383
0.00413746
0.00395517
0.00363615
0.00315897
0.00253781
0.00173967
0.000453978
-0.00325043
-0.00327933
-0.00323474
-0.00313118
-0.0029831
-0.00279663
-0.00258017
-0.00234241
-0.00209256
-0.00183943
-0.00159082
-0.00135329
-0.00113188
-0.000930138
-0.000750156
-0.000592768
-0.000457763
-0.00034413
-0.000250293
-0.000174336
-0.000114151
-6.75213e-05
-3.23032e-05
-6.63465e-06
1.10973e-05
2.24789e-05
2.89963e-05
3.17977e-05
3.17794e-05
2.96959e-05
2.61597e-05
2.16515e-05
1.65429e-05
1.11168e-05
5.58419e-06
9.9127e-08
-5.22922e-06
-1.03263e-05
-1.51441e-05
-1.9654e-05
-2.38422e-05
-2.77057e-05
-3.12484e-05
-3.44798e-05
-3.74125e-05
-4.00613e-05
-4.2442e-05
-4.45712e-05
-4.64652e-05
-4.81397e-05
-0.00336212
-0.00336334
-0.0033021
-0.00319037
-0.0030356
-0.0028447
-0.00262633
-0.00238698
-0.00213568
-0.00188102
-0.00163066
-0.00139113
-0.00116751
-0.000963365
-0.000780874
-0.000620934
-0.000483397
-0.000367304
-0.000271121
-0.000192958
-0.000130727
-8.22283e-05
-4.5301e-05
-1.80808e-05
1.03246e-06
1.36412e-05
2.12423e-05
2.50013e-05
2.58261e-05
2.44821e-05
2.15924e-05
1.76487e-05
1.30323e-05
8.03488e-06
2.87557e-06
-2.28448e-06
-7.32978e-06
-1.21802e-05
-1.67827e-05
-2.11046e-05
-2.51284e-05
-2.88475e-05
-3.22635e-05
-3.53832e-05
-3.82173e-05
-4.07787e-05
-4.30819e-05
-4.51418e-05
-4.69741e-05
-4.8593e-05
-0.00358859
-0.00352625
-0.00343212
-0.00330609
-0.00313318
-0.00293794
-0.0027153
-0.0024728
-0.00221883
-0.00196136
-0.00170782
-0.00146461
-0.00123684
-0.00102818
-0.000840925
-0.000676105
-0.000533698
-0.00041285
-0.000312111
-0.000229654
-0.000163433
-0.000111263
-7.10036e-05
-4.07397e-05
-1.88708e-05
-3.84394e-06
5.89235e-06
1.15427e-05
1.4036e-05
1.41562e-05
1.25474e-05
9.72224e-06
6.08131e-06
1.93373e-06
-2.48558e-06
-7.00141e-06
-1.14858e-05
-1.58474e-05
-2.00236e-05
-2.39733e-05
-2.76714e-05
-3.11051e-05
-3.42703e-05
-3.71692e-05
-3.98083e-05
-4.21971e-05
-4.4347e-05
-4.62706e-05
-4.79812e-05
-4.94902e-05
-0.00393017
-0.0037608
-0.00360599
-0.00346202
-0.00327915
-0.00307176
-0.00284201
-0.00259492
-0.00233713
-0.00207576
-0.00181782
-0.00156953
-0.00133601
-0.00112105
-0.000927104
-0.0007554
-0.00060609
-0.000478479
-0.00037124
-0.000282638
-0.000210692
-0.000153272
-0.000108199
-7.35731e-05
-4.77543e-05
-2.91879e-05
-1.63662e-05
-7.98323e-06
-3.07593e-06
-8.3605e-07
-5.8983e-07
-1.7946e-06
-4.02203e-06
-6.9378e-06
-1.02843e-05
-1.38661e-05
-1.75369e-05
-2.11897e-05
-2.47475e-05
-2.8157e-05
-3.13825e-05
-3.4402e-05
-3.72032e-05
-3.97815e-05
-4.21376e-05
-4.42757e-05
-4.6203e-05
-4.79284e-05
-4.94621e-05
-5.0811e-05
-0.00434716
-0.0040538
-0.0038782
-0.00367165
-0.00345986
-0.00323592
-0.00299612
-0.00274254
-0.00247989
-0.00221407
-0.00195133
-0.00169757
-0.00145777
-0.00123581
-0.0010343
-0.000854656
-0.000697257
-0.0005616
-0.000446524
-0.000350424
-0.000271414
-0.000207441
-0.000156376
-0.000116226
-8.53703e-05
-6.22994e-05
-4.54639e-05
-3.35386e-05
-2.54918e-05
-2.04866e-05
-1.78142e-05
-1.68953e-05
-1.72674e-05
-1.85646e-05
-2.05008e-05
-2.28542e-05
-2.54554e-05
-2.81765e-05
-3.0922e-05
-3.36225e-05
-3.62282e-05
-3.87047e-05
-4.10291e-05
-4.31877e-05
-4.51733e-05
-4.69837e-05
-4.86202e-05
-5.00869e-05
-5.13895e-05
-5.25301e-05
-0.00478042
-0.00439877
-0.00415076
-0.00389865
-0.00365352
-0.00340762
-0.0031548
-0.00289424
-0.00262816
-0.00236054
-0.00209624
-0.00184027
-0.00159717
-0.00137061
-0.00116328
-0.000976769
-0.000811705
-0.000667863
-0.000544345
-0.000439777
-0.000352475
-0.000280548
-0.000221978
-0.000174821
-0.000137401
-0.000108283
-8.60073e-05
-6.91941e-05
-5.67742e-05
-4.78824e-05
-4.17743e-05
-3.78315e-05
-3.55522e-05
-3.45325e-05
-3.44494e-05
-3.50468e-05
-3.61233e-05
-3.75214e-05
-3.91193e-05
-4.08239e-05
-4.25642e-05
-4.42876e-05
-4.59554e-05
-4.754e-05
-4.90225e-05
-5.03907e-05
-5.16377e-05
-5.27605e-05
-5.37585e-05
-5.46289e-05
-0.00520086
-0.0048696
-0.00452367
-0.00420518
-0.00391423
-0.00363703
-0.00336375
-0.00309041
-0.00281644
-0.00254352
-0.00227483
-0.00201425
-0.00176565
-0.00153246
-0.00131732
-0.001122
-0.00094736
-0.00079346
-0.000659682
-0.000544901
-0.000447644
-0.000366206
-0.000298694
-0.000243186
-0.00019804
-0.000161812
-0.000133079
-0.000110497
-9.2931e-05
-7.94737e-05
-6.93371e-05
-6.18563e-05
-5.64821e-05
-5.27648e-05
-5.03372e-05
-4.89019e-05
-4.82187e-05
-4.80952e-05
-4.8378e-05
-4.89454e-05
-4.97019e-05
-5.05728e-05
-5.15008e-05
-5.24421e-05
-5.33638e-05
-5.42422e-05
-5.50602e-05
-5.58067e-05
-5.64743e-05
-5.70584e-05
-4.96131e-05
-5.09239e-05
-5.20798e-05
-5.30818e-05
-5.39359e-05
-5.46482e-05
-5.52245e-05
-5.5671e-05
-5.59938e-05
-5.61991e-05
-5.62929e-05
-5.62808e-05
-5.6168e-05
-5.59591e-05
-5.56584e-05
-5.52696e-05
-5.47963e-05
-5.42423e-05
-5.36113e-05
-5.29076e-05
-5.21359e-05
-5.13011e-05
-5.04085e-05
-4.94637e-05
-4.8472e-05
-4.74387e-05
-4.6369e-05
-4.52679e-05
-4.41398e-05
-4.2989e-05
-4.18195e-05
-4.06351e-05
-3.94391e-05
-3.82349e-05
-3.70257e-05
-3.58143e-05
-3.46036e-05
-3.33962e-05
-3.21944e-05
-3.10008e-05
-2.98174e-05
-2.86466e-05
-2.74892e-05
-2.635e-05
-2.52268e-05
-2.41209e-05
-2.30388e-05
-2.19783e-05
-2.09403e-05
-1.99267e-05
-1.89383e-05
-1.79758e-05
-1.70401e-05
-1.61317e-05
-1.52511e-05
-1.43987e-05
-1.35749e-05
-1.278e-05
-1.20139e-05
-1.12768e-05
-1.05687e-05
-9.88926e-06
-9.23859e-06
-8.61619e-06
-8.02187e-06
-7.45534e-06
-6.91595e-06
-6.40342e-06
-5.91706e-06
-5.45615e-06
-5.02029e-06
-4.60857e-06
-4.22033e-06
-3.85491e-06
-3.51167e-06
-3.18949e-06
-2.88781e-06
-2.60588e-06
-2.34282e-06
-2.09813e-06
-1.8704e-06
-1.65947e-06
-1.46387e-06
-1.28304e-06
-1.11616e-06
-9.62236e-07
-8.20532e-07
-6.90309e-07
-5.71021e-07
-4.61643e-07
-3.61141e-07
-2.7069e-07
-1.83583e-07
-1.13932e-07
-2.76703e-08
2.48704e-09
1.3208e-07
4.7347e-08
3.63052e-07
-6.89896e-08
8.07681e-07
-5.17472e-07
1.65552e-06
-1.42666e-06
2.89099e-06
-2.47952e-06
3.7903e-06
-2.494e-06
2.87581e-06
-7.25632e-08
-5.74695e-07
4.22413e-06
-4.40832e-06
6.89489e-06
-4.68048e-06
-5.00112e-05
-5.12849e-05
-5.24081e-05
-5.33788e-05
-5.42039e-05
-5.489e-05
-5.54424e-05
-5.5867e-05
-5.61697e-05
-5.63567e-05
-5.64336e-05
-5.64059e-05
-5.62788e-05
-5.60569e-05
-5.57441e-05
-5.53444e-05
-5.48612e-05
-5.42981e-05
-5.36591e-05
-5.29483e-05
-5.21703e-05
-5.13301e-05
-5.04327e-05
-4.94837e-05
-4.84884e-05
-4.74519e-05
-4.63795e-05
-4.52759e-05
-4.41457e-05
-4.2993e-05
-4.18218e-05
-4.06359e-05
-3.94386e-05
-3.82334e-05
-3.70232e-05
-3.5811e-05
-3.45996e-05
-3.33916e-05
-3.21893e-05
-3.09953e-05
-2.98116e-05
-2.86406e-05
-2.7483e-05
-2.63437e-05
-2.52205e-05
-2.41145e-05
-2.30326e-05
-2.1972e-05
-2.09342e-05
-1.99207e-05
-1.89324e-05
-1.79701e-05
-1.70346e-05
-1.61263e-05
-1.5246e-05
-1.43938e-05
-1.35702e-05
-1.27755e-05
-1.20096e-05
-1.12727e-05
-1.05648e-05
-9.88557e-06
-9.23512e-06
-8.61291e-06
-8.01878e-06
-7.45246e-06
-6.91322e-06
-6.40088e-06
-5.91469e-06
-5.45394e-06
-5.01824e-06
-4.60666e-06
-4.21856e-06
-3.85328e-06
-3.51017e-06
-3.1881e-06
-2.88654e-06
-2.60473e-06
-2.34176e-06
-2.09718e-06
-1.86952e-06
-1.65868e-06
-1.46314e-06
-1.28237e-06
-1.11557e-06
-9.61701e-07
-8.20053e-07
-6.89878e-07
-5.70649e-07
-4.6129e-07
-3.6085e-07
-2.70418e-07
-1.83359e-07
-1.13737e-07
-2.75132e-08
2.64139e-09
1.3219e-07
4.74973e-08
3.6305e-07
-6.87711e-08
8.07511e-07
-5.17162e-07
1.65525e-06
-1.42637e-06
2.89077e-06
-2.47942e-06
3.79042e-06
-2.49438e-06
2.87635e-06
-7.31676e-08
-5.74231e-07
4.22388e-06
-4.4084e-06
6.89512e-06
-4.68316e-06
-5.0802e-05
-5.2002e-05
-5.30599e-05
-5.39683e-05
-5.47363e-05
-5.53703e-05
-5.58752e-05
-5.62562e-05
-5.65192e-05
-5.66696e-05
-5.67129e-05
-5.66545e-05
-5.64991e-05
-5.62511e-05
-5.59145e-05
-5.5493e-05
-5.499e-05
-5.44092e-05
-5.37542e-05
-5.30293e-05
-5.22389e-05
-5.13877e-05
-5.04809e-05
-4.95236e-05
-4.8521e-05
-4.74783e-05
-4.64004e-05
-4.52919e-05
-4.41574e-05
-4.30009e-05
-4.18264e-05
-4.06375e-05
-3.94377e-05
-3.82303e-05
-3.70182e-05
-3.58043e-05
-3.45915e-05
-3.33823e-05
-3.21792e-05
-3.09844e-05
-2.98e-05
-2.86285e-05
-2.74707e-05
-2.63311e-05
-2.52078e-05
-2.41019e-05
-2.302e-05
-2.19596e-05
-2.09219e-05
-1.99087e-05
-1.89207e-05
-1.79587e-05
-1.70235e-05
-1.61157e-05
-1.52357e-05
-1.43839e-05
-1.35608e-05
-1.27664e-05
-1.2001e-05
-1.12645e-05
-1.0557e-05
-9.87824e-06
-9.22817e-06
-8.60638e-06
-8.01264e-06
-7.44665e-06
-6.90781e-06
-6.39579e-06
-5.90992e-06
-5.44953e-06
-5.01411e-06
-4.60283e-06
-4.21503e-06
-3.85004e-06
-3.50715e-06
-3.18535e-06
-2.88404e-06
-2.60244e-06
-2.33971e-06
-2.09525e-06
-1.86783e-06
-1.65706e-06
-1.46169e-06
-1.28106e-06
-1.11437e-06
-9.60617e-07
-8.19092e-07
-6.89055e-07
-5.69854e-07
-4.60658e-07
-3.6021e-07
-2.69902e-07
-1.82887e-07
-1.1337e-07
-2.71811e-08
2.94486e-09
1.32389e-07
4.78702e-08
3.63031e-07
-6.83439e-08
8.07157e-07
-5.16531e-07
1.65469e-06
-1.42573e-06
2.89032e-06
-2.47926e-06
3.79069e-06
-2.49513e-06
2.8774e-06
-7.43679e-08
-5.73207e-07
4.22336e-06
-4.40857e-06
6.89553e-06
-4.68842e-06
-5.19736e-05
-5.3065e-05
-5.40255e-05
-5.48417e-05
-5.55252e-05
-5.60822e-05
-5.65166e-05
-5.68333e-05
-5.70372e-05
-5.71335e-05
-5.71272e-05
-5.70231e-05
-5.68257e-05
-5.65392e-05
-5.61673e-05
-5.57136e-05
-5.51814e-05
-5.45742e-05
-5.38957e-05
-5.31499e-05
-5.2341e-05
-5.14737e-05
-5.05527e-05
-4.95831e-05
-4.85697e-05
-4.75176e-05
-4.64314e-05
-4.53156e-05
-4.41747e-05
-4.30126e-05
-4.18331e-05
-4.06398e-05
-3.94362e-05
-3.82255e-05
-3.70105e-05
-3.57942e-05
-3.45793e-05
-3.33684e-05
-3.21638e-05
-3.09679e-05
-2.97827e-05
-2.86105e-05
-2.74521e-05
-2.63123e-05
-2.51888e-05
-2.40829e-05
-2.30011e-05
-2.19409e-05
-2.09035e-05
-1.98906e-05
-1.89031e-05
-1.79416e-05
-1.70069e-05
-1.60996e-05
-1.52203e-05
-1.43691e-05
-1.35466e-05
-1.27529e-05
-1.1988e-05
-1.12522e-05
-1.05453e-05
-9.86722e-06
-9.21775e-06
-8.59657e-06
-8.00342e-06
-7.43796e-06
-6.89969e-06
-6.38818e-06
-5.9028e-06
-5.44291e-06
-5.00794e-06
-4.59711e-06
-4.20975e-06
-3.84517e-06
-3.50264e-06
-3.18123e-06
-2.88028e-06
-2.599e-06
-2.3366e-06
-2.09236e-06
-1.86524e-06
-1.65466e-06
-1.45953e-06
-1.27909e-06
-1.11257e-06
-9.59006e-07
-8.17659e-07
-6.87799e-07
-5.68692e-07
-4.59677e-07
-3.59287e-07
-2.69119e-07
-1.82193e-07
-1.1279e-07
-2.66925e-08
3.42395e-09
1.32678e-07
4.84009e-08
3.63009e-07
-6.77106e-08
8.06675e-07
-5.15625e-07
1.65388e-06
-1.42482e-06
2.8897e-06
-2.47908e-06
3.79115e-06
-2.49632e-06
2.87903e-06
-7.61743e-08
-5.71714e-07
4.22265e-06
-4.40887e-06
6.89618e-06
-4.696e-06
-5.3509e-05
-5.44592e-05
-5.5291e-05
-5.59865e-05
-5.65594e-05
-5.70156e-05
-5.73579e-05
-5.75902e-05
-5.77168e-05
-5.77422e-05
-5.76708e-05
-5.75069e-05
-5.72545e-05
-5.69175e-05
-5.64994e-05
-5.60035e-05
-5.54331e-05
-5.47914e-05
-5.4082e-05
-5.33088e-05
-5.24757e-05
-5.15871e-05
-5.06476e-05
-4.96617e-05
-4.86341e-05
-4.75694e-05
-4.64722e-05
-4.53468e-05
-4.41974e-05
-4.30277e-05
-4.18417e-05
-4.06426e-05
-3.9434e-05
-3.82188e-05
-3.70001e-05
-3.57806e-05
-3.45629e-05
-3.33497e-05
-3.21433e-05
-3.09458e-05
-2.97594e-05
-2.85863e-05
-2.74274e-05
-2.62871e-05
-2.51635e-05
-2.40575e-05
-2.29758e-05
-2.19159e-05
-2.0879e-05
-1.98666e-05
-1.88796e-05
-1.79188e-05
-1.69848e-05
-1.60783e-05
-1.51997e-05
-1.43494e-05
-1.35277e-05
-1.27348e-05
-1.19708e-05
-1.12358e-05
-1.05298e-05
-9.85253e-06
-9.20386e-06
-8.58349e-06
-7.99112e-06
-7.4264e-06
-6.88886e-06
-6.37805e-06
-5.89334e-06
-5.43411e-06
-4.99974e-06
-4.5895e-06
-4.20272e-06
-3.83867e-06
-3.49664e-06
-3.17574e-06
-2.87525e-06
-2.59441e-06
-2.33242e-06
-2.08853e-06
-1.86177e-06
-1.65147e-06
-1.45664e-06
-1.27647e-06
-1.1102e-06
-9.5687e-07
-8.15753e-07
-6.86114e-07
-5.67162e-07
-4.5835e-07
-3.58075e-07
-2.68069e-07
-1.81278e-07
-1.11997e-07
-2.6045e-08
4.07446e-09
1.33058e-07
4.90837e-08
3.62993e-07
-6.68917e-08
8.06098e-07
-5.14501e-07
1.65292e-06
-1.42376e-06
2.88907e-06
-2.47908e-06
3.792e-06
-2.49812e-06
2.88138e-06
-7.864e-08
-5.69807e-07
4.22191e-06
-4.40951e-06
6.89731e-06
-4.70575e-06
-5.5389e-05
-5.61658e-05
-5.68385e-05
-5.73868e-05
-5.78251e-05
-5.81583e-05
-5.83881e-05
-5.85172e-05
-5.85493e-05
-5.8488e-05
-5.8337e-05
-5.80999e-05
-5.77803e-05
-5.73816e-05
-5.6907e-05
-5.63596e-05
-5.57424e-05
-5.50586e-05
-5.43115e-05
-5.35047e-05
-5.26419e-05
-5.17272e-05
-5.07647e-05
-4.97587e-05
-4.87135e-05
-4.76333e-05
-4.65225e-05
-4.53851e-05
-4.42251e-05
-4.30462e-05
-4.18519e-05
-4.06457e-05
-3.94308e-05
-3.82101e-05
-3.69867e-05
-3.57632e-05
-3.45422e-05
-3.33262e-05
-3.21174e-05
-3.0918e-05
-2.97302e-05
-2.8556e-05
-2.73963e-05
-2.62555e-05
-2.51317e-05
-2.40258e-05
-2.29442e-05
-2.18847e-05
-2.08482e-05
-1.98365e-05
-1.88502e-05
-1.78902e-05
-1.69571e-05
-1.60516e-05
-1.5174e-05
-1.43247e-05
-1.35041e-05
-1.27122e-05
-1.19493e-05
-1.12154e-05
-1.05104e-05
-9.83417e-06
-9.18652e-06
-8.56715e-06
-7.97575e-06
-7.41197e-06
-6.87535e-06
-6.3654e-06
-5.88153e-06
-5.42311e-06
-4.98951e-06
-4.58001e-06
-4.19393e-06
-3.83056e-06
-3.48915e-06
-3.16887e-06
-2.86896e-06
-2.58866e-06
-2.32718e-06
-2.08373e-06
-1.85742e-06
-1.64749e-06
-1.45303e-06
-1.2732e-06
-1.10724e-06
-9.54209e-07
-8.13377e-07
-6.84001e-07
-5.65261e-07
-4.56682e-07
-3.56574e-07
-2.66756e-07
-1.80141e-07
-1.10996e-07
-2.52391e-08
4.89635e-09
1.33526e-07
4.99269e-08
3.62969e-07
-6.58619e-08
8.05385e-07
-5.13096e-07
1.65171e-06
-1.42243e-06
2.88826e-06
-2.47905e-06
3.79303e-06
-2.50035e-06
2.88428e-06
-8.17002e-08
-5.67432e-07
4.22094e-06
-4.41018e-06
6.89854e-06
-4.71684e-06
-5.75859e-05
-5.81607e-05
-5.86465e-05
-5.90237e-05
-5.9306e-05
-5.94961e-05
-5.95945e-05
-5.96033e-05
-5.9525e-05
-5.93624e-05
-5.91182e-05
-5.87956e-05
-5.83974e-05
-5.79266e-05
-5.7386e-05
-5.67784e-05
-5.61067e-05
-5.53736e-05
-5.45823e-05
-5.37361e-05
-5.28385e-05
-5.1893e-05
-5.09034e-05
-4.98735e-05
-4.88074e-05
-4.77089e-05
-4.65818e-05
-4.54302e-05
-4.42575e-05
-4.30675e-05
-4.18635e-05
-4.06487e-05
-3.94264e-05
-3.81993e-05
-3.69703e-05
-3.5742e-05
-3.4517e-05
-3.32976e-05
-3.2086e-05
-3.08845e-05
-2.96949e-05
-2.85194e-05
-2.73589e-05
-2.62175e-05
-2.50934e-05
-2.39876e-05
-2.29062e-05
-2.18472e-05
-2.08113e-05
-1.98003e-05
-1.8815e-05
-1.78559e-05
-1.69239e-05
-1.60195e-05
-1.51431e-05
-1.42951e-05
-1.34757e-05
-1.26851e-05
-1.19235e-05
-1.11908e-05
-1.04871e-05
-9.81214e-06
-9.16571e-06
-8.54754e-06
-7.95732e-06
-7.39467e-06
-6.85914e-06
-6.35024e-06
-5.86737e-06
-5.40992e-06
-4.97724e-06
-4.56863e-06
-4.1834e-06
-3.82083e-06
-3.48018e-06
-3.16063e-06
-2.86141e-06
-2.58176e-06
-2.32088e-06
-2.07798e-06
-1.85219e-06
-1.64273e-06
-1.4487e-06
-1.26929e-06
-1.1037e-06
-9.51026e-07
-8.1053e-07
-6.81463e-07
-5.62988e-07
-4.54674e-07
-3.54783e-07
-2.65179e-07
-1.78785e-07
-1.09782e-07
-2.42859e-08
5.91134e-09
1.34036e-07
5.1018e-08
3.62777e-07
-6.43473e-08
8.04082e-07
-5.107e-07
1.64921e-06
-1.41937e-06
2.88543e-06
-2.4768e-06
3.79191e-06
-2.50084e-06
2.8862e-06
-8.4812e-08
-5.63851e-07
4.21773e-06
-4.40784e-06
6.89648e-06
-4.72551e-06
-6.01471e-05
-6.04814e-05
-6.07425e-05
-6.0923e-05
-6.10255e-05
-6.10504e-05
-6.0997e-05
-6.08665e-05
-6.06603e-05
-6.03802e-05
-6.00281e-05
-5.96062e-05
-5.91169e-05
-5.85625e-05
-5.79455e-05
-5.72683e-05
-5.65332e-05
-5.57431e-05
-5.49005e-05
-5.40085e-05
-5.30701e-05
-5.20884e-05
-5.10669e-05
-5.0009e-05
-4.89181e-05
-4.77977e-05
-4.66515e-05
-4.54828e-05
-4.42952e-05
-4.3092e-05
-4.18764e-05
-4.06516e-05
-3.94204e-05
-3.81856e-05
-3.69501e-05
-3.57162e-05
-3.44864e-05
-3.32631e-05
-3.20483e-05
-3.08442e-05
-2.96526e-05
-2.84756e-05
-2.7314e-05
-2.6172e-05
-2.50476e-05
-2.39419e-05
-2.28608e-05
-2.18023e-05
-2.07672e-05
-1.97571e-05
-1.87728e-05
-1.7815e-05
-1.68843e-05
-1.59812e-05
-1.51062e-05
-1.42597e-05
-1.34418e-05
-1.26527e-05
-1.18926e-05
-1.11615e-05
-1.04593e-05
-9.78583e-06
-9.14087e-06
-8.52414e-06
-7.93532e-06
-7.37402e-06
-6.8398e-06
-6.33215e-06
-5.85048e-06
-5.39418e-06
-4.9626e-06
-4.55505e-06
-4.17083e-06
-3.80922e-06
-3.46948e-06
-3.15079e-06
-2.8524e-06
-2.57351e-06
-2.31335e-06
-2.07111e-06
-1.84594e-06
-1.63704e-06
-1.44354e-06
-1.26462e-06
-1.09948e-06
-9.47231e-07
-8.07133e-07
-6.7843e-07
-5.60278e-07
-4.52273e-07
-3.52651e-07
-2.63295e-07
-1.77173e-07
-1.08318e-07
-2.31682e-08
7.16676e-09
1.34561e-07
5.24646e-08
3.62269e-07
-6.20549e-08
8.01734e-07
-5.06581e-07
1.64435e-06
-1.41311e-06
2.87866e-06
-2.4701e-06
3.78628e-06
-2.49748e-06
2.88565e-06
-8.7559e-08
-5.58174e-07
4.2101e-06
-4.3993e-06
6.8876e-06
-4.72833e-06
-6.30382e-05
-6.31056e-05
-6.31214e-05
-6.30797e-05
-6.29794e-05
-6.28175e-05
-6.25924e-05
-6.23041e-05
-6.19529e-05
-6.15394e-05
-6.10647e-05
-6.05302e-05
-5.99374e-05
-5.92881e-05
-5.85843e-05
-5.78279e-05
-5.7021e-05
-5.61659e-05
-5.52649e-05
-5.43206e-05
-5.33356e-05
-5.23127e-05
-5.12546e-05
-5.01643e-05
-4.90448e-05
-4.78992e-05
-4.67307e-05
-4.55424e-05
-4.43375e-05
-4.31191e-05
-4.18901e-05
-4.06535e-05
-3.94121e-05
-3.81685e-05
-3.69253e-05
-3.5685e-05
-3.44498e-05
-3.32219e-05
-3.20034e-05
-3.07963e-05
-2.96024e-05
-2.84237e-05
-2.7261e-05
-2.61181e-05
-2.49935e-05
-2.38879e-05
-2.28072e-05
-2.17493e-05
-2.07152e-05
-1.97062e-05
-1.87232e-05
-1.77668e-05
-1.68376e-05
-1.59361e-05
-1.50629e-05
-1.4218e-05
-1.34019e-05
-1.26147e-05
-1.18564e-05
-1.11271e-05
-1.04266e-05
-9.75489e-06
-9.11165e-06
-8.49662e-06
-7.90945e-06
-7.34975e-06
-6.81707e-06
-6.31089e-06
-5.83063e-06
-5.37569e-06
-4.9454e-06
-4.53909e-06
-4.15605e-06
-3.79557e-06
-3.4569e-06
-3.13923e-06
-2.84179e-06
-2.56381e-06
-2.3045e-06
-2.06303e-06
-1.83859e-06
-1.63035e-06
-1.43748e-06
-1.25913e-06
-1.09453e-06
-9.42775e-07
-8.03142e-07
-6.74865e-07
-5.57095e-07
-4.4945e-07
-3.50149e-07
-2.61086e-07
-1.75271e-07
-1.06614e-07
-2.18151e-08
8.56628e-09
1.35324e-07
5.38856e-08
3.62149e-07
-6.01558e-08
8.00247e-07
-5.03651e-07
1.64135e-06
-1.40937e-06
2.87518e-06
-2.46733e-06
3.78488e-06
-2.49814e-06
2.88816e-06
-9.17464e-08
-5.5314e-07
4.20525e-06
-4.39506e-06
6.88352e-06
-4.73637e-06
-6.6159e-05
-6.5947e-05
-6.57037e-05
-6.54242e-05
-6.5105e-05
-6.47414e-05
-6.43305e-05
-6.38712e-05
-6.33627e-05
-6.28045e-05
-6.21966e-05
-6.15397e-05
-6.08344e-05
-6.0082e-05
-5.92838e-05
-5.84413e-05
-5.75562e-05
-5.66304e-05
-5.56657e-05
-5.46642e-05
-5.36282e-05
-5.25597e-05
-5.14613e-05
-5.03352e-05
-4.91841e-05
-4.80105e-05
-4.68172e-05
-4.5607e-05
-4.43829e-05
-4.31474e-05
-4.19036e-05
-4.06539e-05
-3.94012e-05
-3.81478e-05
-3.68962e-05
-3.56486e-05
-3.44074e-05
-3.31745e-05
-3.19519e-05
-3.07416e-05
-2.95452e-05
-2.83646e-05
-2.72006e-05
-2.6057e-05
-2.49321e-05
-2.38267e-05
-2.27464e-05
-2.16894e-05
-2.06563e-05
-1.96486e-05
-1.8667e-05
-1.77122e-05
-1.67848e-05
-1.58852e-05
-1.50138e-05
-1.41709e-05
-1.33569e-05
-1.25717e-05
-1.18154e-05
-1.10881e-05
-1.03897e-05
-9.71994e-06
-9.07866e-06
-8.46554e-06
-7.88023e-06
-7.32234e-06
-6.79139e-06
-6.28687e-06
-5.80822e-06
-5.3548e-06
-4.92598e-06
-4.52107e-06
-4.13938e-06
-3.78017e-06
-3.4427e-06
-3.12617e-06
-2.82982e-06
-2.55286e-06
-2.29449e-06
-2.05391e-06
-1.83028e-06
-1.6228e-06
-1.43064e-06
-1.25294e-06
-1.08894e-06
-9.37749e-07
-7.98638e-07
-6.70838e-07
-5.53503e-07
-4.46261e-07
-3.47327e-07
-2.58596e-07
-1.7312e-07
-1.04698e-07
-2.02639e-08
1.01027e-08
1.36268e-07
5.53341e-08
3.62267e-07
-5.84267e-08
7.99215e-07
-5.01278e-07
1.63924e-06
-1.40679e-06
2.87321e-06
-2.46633e-06
3.78537e-06
-2.50063e-06
2.89214e-06
-9.67947e-08
-5.48014e-07
4.2011e-06
-4.39198e-06
6.88075e-06
-4.74565e-06
-6.94778e-05
-6.89745e-05
-6.84602e-05
-6.79297e-05
-6.73788e-05
-6.68012e-05
-6.61928e-05
-6.55515e-05
-6.48752e-05
-6.41625e-05
-6.34124e-05
-6.26246e-05
-6.17992e-05
-6.09366e-05
-6.00375e-05
-5.91029e-05
-5.81342e-05
-5.71325e-05
-5.60993e-05
-5.50363e-05
-5.39451e-05
-5.28275e-05
-5.16852e-05
-5.05202e-05
-4.93344e-05
-4.81302e-05
-4.69098e-05
-4.56757e-05
-4.44304e-05
-4.31764e-05
-4.19162e-05
-4.06523e-05
-3.93871e-05
-3.8123e-05
-3.68622e-05
-3.56069e-05
-3.43591e-05
-3.31207e-05
-3.18937e-05
-3.06799e-05
-2.94807e-05
-2.82982e-05
-2.71329e-05
-2.59885e-05
-2.48634e-05
-2.37582e-05
-2.26785e-05
-2.16224e-05
-2.05905e-05
-1.95842e-05
-1.86043e-05
-1.76513e-05
-1.67258e-05
-1.58283e-05
-1.49591e-05
-1.41184e-05
-1.33066e-05
-1.25237e-05
-1.17697e-05
-1.10447e-05
-1.03485e-05
-9.68098e-06
-9.04188e-06
-8.4309e-06
-7.84767e-06
-7.29179e-06
-6.76278e-06
-6.26012e-06
-5.78325e-06
-5.33154e-06
-4.90436e-06
-4.50101e-06
-4.12081e-06
-3.76301e-06
-3.42689e-06
-3.11163e-06
-2.81648e-06
-2.54065e-06
-2.28334e-06
-2.04374e-06
-1.82103e-06
-1.6144e-06
-1.42302e-06
-1.24605e-06
-1.08272e-06
-9.32152e-07
-7.9362e-07
-6.66352e-07
-5.49503e-07
-4.42708e-07
-3.44186e-07
-2.55824e-07
-1.70723e-07
-1.02568e-07
-1.85266e-08
1.17991e-08
1.37344e-07
5.6899e-08
3.62464e-07
-5.65885e-08
7.98175e-07
-4.98741e-07
1.63696e-06
-1.40389e-06
2.87083e-06
-2.46484e-06
3.78534e-06
-2.50274e-06
2.89598e-06
-1.02142e-07
-5.42045e-07
4.19557e-06
-4.38691e-06
6.87577e-06
-4.75223e-06
-7.29635e-05
-7.21575e-05
-7.13615e-05
-7.05698e-05
-6.9777e-05
-6.89755e-05
-6.81603e-05
-6.73279e-05
-6.64754e-05
-6.56001e-05
-6.47004e-05
-6.37748e-05
-6.28227e-05
-6.18439e-05
-6.08384e-05
-5.98068e-05
-5.87495e-05
-5.76676e-05
-5.65618e-05
-5.54335e-05
-5.42835e-05
-5.31133e-05
-5.1924e-05
-5.07171e-05
-4.94941e-05
-4.82569e-05
-4.70072e-05
-4.57472e-05
-4.44791e-05
-4.32049e-05
-4.19271e-05
-4.06479e-05
-3.93693e-05
-3.80937e-05
-3.6823e-05
-3.55593e-05
-3.43044e-05
-3.30603e-05
-3.18286e-05
-3.0611e-05