/*--------------------------------*- C++ -*----------------------------------*\
| =========                 |                                                 |
| \\      /  F ield         | OpenFOAM: The Open Source CFD Toolbox           |
|  \\    /   O peration     | Version:  2412                                  |
|   \\  /    A nd           | Website:  www.openfoam.com                      |
|    \\/     M anipulation  |                                                 |
\*---------------------------------------------------------------------------*/
FoamFile
{
    version     2.0;
    format      ascii;
    arch        "LSB;label=32;scalar=64";
    class       surfaceScalarField;
    location    "9.5";
    object      phi;
}
// * * * * * * * * * * * * * * * * * * * * * * * * * * * * * * * * * * * * * //

dimensions      [0 3 -1 0 0 0 0];

oriented        oriented;

internalField   nonuniform List<scalar> 
126304
(
0.00505065
1.11968e-07
5.63049e-11
0.0050503
3.40213e-07
1.25133e-10
0.00504934
9.6431e-07
-2.91441e-10
0.00504715
2.19674e-06
-1.47894e-09
0.00504346
3.69211e-06
-3.01801e-09
0.00503861
4.84715e-06
-4.07003e-09
0.00503334
5.2748e-06
-4.02397e-09
0.00502835
4.99695e-06
-2.84601e-09
0.00502404
4.30878e-06
-9.569e-10
0.0050205
3.54366e-06
1.09877e-09
0.00501757
2.92328e-06
2.90672e-09
0.00501504
2.52908e-06
4.26796e-09
0.00501269
2.34466e-06
5.16233e-09
0.00501037
2.31162e-06
5.67144e-09
0.00500799
2.36876e-06
5.90955e-09
0.00500552
2.46973e-06
5.98128e-09
0.00500293
2.58596e-06
5.96407e-09
0.00500022
2.70293e-06
5.9072e-09
0.0049974
2.81507e-06
5.83738e-09
0.00499447
2.92158e-06
5.76586e-09
0.00499144
3.02372e-06
5.69493e-09
0.00498831
3.12335e-06
5.62294e-09
0.00498508
3.22224e-06
5.54734e-09
0.00498176
3.32184e-06
5.46574e-09
0.00497833
3.42326e-06
5.37624e-09
0.0049748
3.5273e-06
5.27775e-09
0.00497116
3.63451e-06
5.17009e-09
0.00496741
3.74528e-06
5.05364e-09
0.00496354
3.85988e-06
4.92898e-09
0.00495956
3.97851e-06
4.79658e-09
0.00495545
4.10128e-06
4.65665e-09
0.00495122
4.22829e-06
4.50911e-09
0.00494685
4.35963e-06
4.3537e-09
0.00494235
4.49534e-06
4.19017e-09
0.00493772
4.63548e-06
4.01872e-09
0.00493293
4.78011e-06
3.84006e-09
0.004928
4.92927e-06
3.65516e-09
0.00492291
5.08301e-06
3.46502e-09
0.00491767
5.24141e-06
3.27047e-09
0.00491226
5.40452e-06
3.07208e-09
0.00490668
5.57241e-06
2.87034e-09
0.00490094
5.74518e-06
2.6656e-09
0.00489501
5.92291e-06
2.45812e-09
0.0048889
6.10572e-06
2.24829e-09
0.00488261
6.29372e-06
2.03652e-09
0.00487612
6.48705e-06
1.82318e-09
0.00486943
6.68587e-06
1.60883e-09
0.00486254
6.89037e-06
1.39412e-09
0.00485544
7.10074e-06
1.17957e-09
0.00484812
7.31724e-06
9.65782e-10
0.00484058
7.54018e-06
7.5337e-10
0.00483281
7.77002e-06
5.42921e-10
0.0048248
8.00764e-06
3.35191e-10
0.00481654
8.25527e-06
1.31179e-10
8.51898e-06
0.00480803
-6.82859e-11
0.00505064
2.24533e-07
0.0050503
6.80621e-07
0.00504935
1.91864e-06
0.00504718
4.36335e-06
0.00504354
7.33489e-06
0.00503875
9.6387e-06
0.00503352
1.05041e-05
0.00502855
9.96925e-06
0.00502424
8.61576e-06
0.00502068
7.10354e-06
0.00501773
5.87324e-06
0.00501517
5.08835e-06
0.0050128
4.7182e-06
0.00501046
4.64833e-06
0.00500807
4.75806e-06
0.00500559
4.95567e-06
0.00500299
5.18447e-06
0.00500027
5.41554e-06
0.00499745
5.63765e-06
0.00499452
5.84905e-06
0.0049915
6.05211e-06
0.00498837
6.25043e-06
0.00498514
6.44746e-06
0.00498182
6.64604e-06
0.00497839
6.84834e-06
0.00497487
7.05591e-06
0.00497123
7.26985e-06
0.00496749
7.49091e-06
0.00496363
7.71964e-06
0.00495965
7.95639e-06
0.00495555
8.20142e-06
0.00495132
8.45492e-06
0.00494696
8.71702e-06
0.00494247
8.98785e-06
0.00493784
9.26751e-06
0.00493306
9.5561e-06
0.00492814
9.85371e-06
0.00492306
1.01605e-05
0.00491783
1.04765e-05
0.00491243
1.08018e-05
0.00490686
1.11367e-05
0.00490113
1.14813e-05
0.00489522
1.18358e-05
0.00488912
1.22004e-05
0.00488284
1.25752e-05
0.00487637
1.29607e-05
0.00486969
1.33571e-05
0.00486282
1.37647e-05
0.00485574
1.41839e-05
0.00484844
1.46153e-05
0.00484092
1.50594e-05
0.00483317
1.55172e-05
0.00482519
1.59902e-05
0.00481696
1.64828e-05
1.70066e-05
0.00480847
0.00505064
3.3815e-07
0.0050503
1.02115e-06
0.00504937
2.85407e-06
0.00504726
6.47414e-06
0.0050437
1.08874e-05
0.00503901
1.43297e-05
0.00503386
1.56523e-05
0.00502894
1.48989e-05
0.00502463
1.29209e-05
0.00502104
1.06927e-05
0.00501805
8.86934e-06
0.00501544
7.69796e-06
0.00501302
7.13787e-06
0.00501064
7.02282e-06
0.00500822
7.17578e-06
0.00500572
7.46146e-06
0.00500311
7.79576e-06
0.00500039
8.13544e-06
0.00499756
8.4634e-06
0.00499463
8.77664e-06
0.00499161
9.07837e-06
0.00498848
9.37368e-06
0.00498526
9.66753e-06
0.00498195
9.96403e-06
0.00497853
1.02663e-05
0.00497501
1.05766e-05
0.00497138
1.08965e-05
0.00496764
1.12272e-05
0.00496379
1.15693e-05
0.00495983
1.19235e-05
0.00495574
1.229e-05
0.00495152
1.26692e-05
0.00494718
1.30613e-05
0.0049427
1.34664e-05
0.00493808
1.38846e-05
0.00493332
1.43162e-05
0.00492842
1.47612e-05
0.00492336
1.52199e-05
0.00491814
1.56923e-05
0.00491276
1.61787e-05
0.00490722
1.66793e-05
0.00490151
1.71942e-05
0.00489562
1.77239e-05
0.00488955
1.82685e-05
0.0048833
1.88284e-05
0.00487686
1.9404e-05
0.00487022
1.99958e-05
0.00486338
2.06042e-05
0.00485633
2.12298e-05
0.00484907
2.18733e-05
0.0048416
2.25355e-05
0.0048339
2.32178e-05
0.00482597
2.39223e-05
0.00481779
2.4655e-05
2.5432e-05
0.00480937
0.00505064
4.5326e-07
0.0050503
1.36183e-06
0.00504939
3.76243e-06
0.00504736
8.50491e-06
0.00504394
1.43104e-05
0.00503939
1.88764e-05
0.00503436
2.06838e-05
0.00502949
1.97666e-05
0.00502519
1.72226e-05
0.00502156
1.43231e-05
0.0050185
1.19312e-05
0.00501582
1.03795e-05
0.00501333
9.62352e-06
0.0050109
9.45137e-06
0.00500845
9.63418e-06
0.00500591
9.99563e-06
0.00500328
1.04252e-05
0.00500055
1.08656e-05
0.00499772
1.12935e-05
0.00499479
1.17041e-05
0.00499177
1.21013e-05
0.00498865
1.24911e-05
0.00498544
1.28798e-05
0.00498213
1.32727e-05
0.00497873
1.36736e-05
0.00497522
1.40854e-05
0.0049716
1.45102e-05
0.00496788
1.49494e-05
0.00496405
1.54039e-05
0.0049601
1.58744e-05
0.00495602
1.63613e-05
0.00495183
1.68651e-05
0.0049475
1.73859e-05
0.00494305
1.79239e-05
0.00493845
1.84794e-05
0.00493371
1.90526e-05
0.00492883
1.96435e-05
0.0049238
2.02524e-05
0.00491861
2.08794e-05
0.00491327
2.15249e-05
0.00490776
2.21891e-05
0.00490208
2.28723e-05
0.00489623
2.35748e-05
0.0048902
2.4297e-05
0.00488399
2.50392e-05
0.00487759
2.58021e-05
0.004871
2.65861e-05
0.00486421
2.73919e-05
0.00485722
2.82201e-05
0.00485002
2.90716e-05
0.00484261
2.99475e-05
0.00483498
3.08491e-05
0.00482712
3.17793e-05
0.00481903
3.2745e-05
3.37652e-05
0.0048107
0.00505064
5.70211e-07
0.0050503
1.70261e-06
0.00504942
4.637e-06
0.00504749
1.04357e-05
0.00504423
1.75714e-05
0.00503987
2.3242e-05
0.00503498
2.55685e-05
0.00503019
2.45558e-05
0.0050259
2.1519e-05
0.00502222
1.80043e-05
0.00501907
1.50744e-05
0.0050163
1.31505e-05
0.00501373
1.21914e-05
0.00501124
1.19473e-05
0.00500873
1.21433e-05
0.00500616
1.25651e-05
0.00500351
1.30772e-05
0.00500076
1.36083e-05
0.00499793
1.41285e-05
0.004995
1.4631e-05
0.00499198
1.51193e-05
0.00498888
1.56005e-05
0.00498567
1.60816e-05
0.00498238
1.65688e-05
0.00497898
1.70666e-05
0.00497549
1.75784e-05
0.0049719
1.81066e-05
0.00496819
1.86529e-05
0.00496438
1.92183e-05
0.00496045
1.98037e-05
0.0049564
2.04096e-05
0.00495223
2.10364e-05
0.00494793
2.16844e-05
0.0049435
2.23537e-05
0.00493893
2.30446e-05
0.00493423
2.37574e-05
0.00492938
2.44921e-05
0.00492438
2.52491e-05
0.00491924
2.60285e-05
0.00491393
2.68306e-05
0.00490846
2.76557e-05
0.00490283
2.85042e-05
0.00489703
2.93765e-05
0.00489105
3.02729e-05
0.0048849
3.1194e-05
0.00487856
3.21403e-05
0.00487203
3.31124e-05
0.00486532
3.4111e-05
0.0048584
3.5137e-05
0.00485128
3.61912e-05
0.00484395
3.72748e-05
0.00483641
3.83893e-05
0.00482865
3.95376e-05
0.00482067
4.07269e-05
4.19768e-05
0.00481246
0.00505064
6.89218e-07
0.0050503
2.04343e-06
0.00504946
5.47285e-06
0.00504765
1.22519e-05
0.00504457
2.06462e-05
0.00504041
2.73989e-05
0.0050357
3.02829e-05
0.005031
2.92527e-05
0.00502671
2.58071e-05
0.00502298
2.17418e-05
0.00501974
1.83098e-05
0.00501687
1.60232e-05
0.00501421
1.48531e-05
0.00501163
1.45204e-05
0.00500907
1.47104e-05
0.00500646
1.51748e-05
0.00500378
1.57547e-05
0.00500102
1.63648e-05
0.00499818
1.69686e-05
0.00499526
1.75563e-05
0.00499225
1.81309e-05
0.00498915
1.86996e-05
0.00498596
1.92701e-05
0.00498268
1.98491e-05
0.0049793
2.04417e-05
0.00497583
2.10516e-05
0.00497225
2.16815e-05
0.00496857
2.23331e-05
0.00496479
2.30078e-05
0.00496088
2.37064e-05
0.00495686
2.44294e-05
0.00495272
2.51773e-05
0.00494846
2.59504e-05
0.00494406
2.67489e-05
0.00493953
2.7573e-05
0.00493487
2.8423e-05
0.00493006
2.92991e-05
0.00492511
3.02014e-05
0.00492001
3.11302e-05
0.00491475
3.20859e-05
0.00490934
3.30687e-05
0.00490376
3.4079e-05
0.00489802
3.51172e-05
0.00489211
3.61838e-05
0.00488603
3.72793e-05
0.00487976
3.84043e-05
0.00487331
3.95594e-05
0.00486668
4.07454e-05
0.00485985
4.19632e-05
0.00485283
4.32136e-05
0.00484561
4.44978e-05
0.00483818
4.58173e-05
0.00483054
4.71747e-05
0.00482269
4.85762e-05
5.00396e-05
0.00481463
0.00505064
8.10393e-07
0.0050503
2.38405e-06
0.0050495
6.26731e-06
0.00504781
1.39449e-05
0.00504493
2.35201e-05
0.005041
3.13295e-05
0.00503647
3.48114e-05
0.00503188
3.38472e-05
0.0050276
3.00832e-05
0.00502381
2.55376e-05
0.00502048
2.16427e-05
0.00501749
1.90046e-05
0.00501473
1.76152e-05
0.00501208
1.71761e-05
0.00500945
1.73396e-05
0.00500679
1.78274e-05
0.00500409
1.84589e-05
0.00500132
1.91354e-05
0.00499848
1.98131e-05
0.00499555
2.04787e-05
0.00499255
2.1134e-05
0.00498946
2.1786e-05
0.00498629
2.24425e-05
0.00498303
2.31105e-05
0.00497968
2.37954e-05
0.00497623
2.45012e-05
0.00497268
2.52306e-05
0.00496902
2.59855e-05
0.00496527
2.67674e-05
0.00496139
2.7577e-05
0.00495741
2.8415e-05
0.0049533
2.92818e-05
0.00494908
3.01777e-05
0.00494472
3.11029e-05
0.00494024
3.20576e-05
0.00493562
3.3042e-05
0.00493086
3.40563e-05
0.00492596
3.51007e-05
0.00492092
3.61756e-05
0.00491572
3.72811e-05
0.00491037
3.84177e-05
0.00490487
3.95856e-05
0.0048992
4.07853e-05
0.00489337
4.20173e-05
0.00488736
4.32821e-05
0.00488119
4.45803e-05
0.00487483
4.59125e-05
0.0048683
4.72796e-05
0.00486158
4.86822e-05
0.00485467
5.01214e-05
0.00484757
5.15981e-05
0.00484028
5.31136e-05
0.00483278
5.46698e-05
0.00482509
5.62707e-05
0.0048172
5.79261e-05
0.00480957
-1.54934e-06
-2.64808e-10
0.00481061
-1.038e-06
-4.66088e-10
0.0048111
-4.9085e-07
-6.66712e-10
0.00481101
9.91997e-08
-8.52556e-10
0.00481029
7.16752e-07
-1.0693e-09
0.00480891
1.38077e-06
-1.2668e-09
0.00480683
2.08527e-06
-1.45138e-09
0.004804
2.83083e-06
-1.62424e-09
0.00480038
3.61771e-06
-1.78286e-09
0.00479594
4.44645e-06
-1.92522e-09
0.00479062
5.3186e-06
-2.0496e-09
0.00478439
6.23743e-06
-2.15442e-09
0.00477718
7.20868e-06
-2.23852e-09
0.00476894
8.24123e-06
-2.29614e-09
0.0047596
9.34757e-06
-2.34195e-09
0.00474905
1.05439e-05
-2.32066e-09
0.00473721
1.18499e-05
-2.32556e-09
0.00472392
1.32879e-05
-2.31936e-09
0.00470904
1.48833e-05
-2.28049e-09
0.00469238
1.66634e-05
-2.27637e-09
0.00467372
1.86575e-05
-2.22119e-09
0.00465283
2.08961e-05
-2.15329e-09
0.00462942
2.34116e-05
-2.08233e-09
0.00460318
2.6239e-05
-2.01178e-09
0.00457377
2.9417e-05
-1.94303e-09
0.00454078
3.29898e-05
-1.87579e-09
0.00450377
3.70091e-05
-1.80865e-09
0.00446224
4.15368e-05
-1.73928e-09
0.00441559
4.66478e-05
-1.66408e-09
0.00436316
5.2434e-05
-1.57943e-09
0.00430415
5.90085e-05
-1.48184e-09
0.00423764
6.65114e-05
-1.36837e-09
0.00416253
7.51165e-05
-1.23736e-09
0.00407749
8.50397e-05
-1.08887e-09
0.00398094
9.65497e-05
-9.25561e-10
0.00387096
0.000109979
-7.50881e-10
0.00374523
0.000125733
-5.70002e-10
0.00360093
0.000144297
-3.89461e-10
0.00343471
0.000166223
-2.16014e-10
0.00324262
0.000192094
-5.61621e-11
0.0030202
0.000222419
8.34373e-11
0.00276275
0.000257451
1.97101e-10
0.0024659
0.000296844
2.78284e-10
0.00212678
0.000339119
3.21038e-10
0.00174594
0.000380846
3.21241e-10
0.00133044
0.000415494
2.80484e-10
0.000898466
0.000431976
2.1394e-10
0.000485626
0.00041284
1.54075e-10
0.000154087
0.000331539
1.37822e-10
0.000154087
1.28255e-10
0.00480866
-1.73083e-06
0.00480833
-7.10137e-07
0.00480745
3.85624e-07
0.004806
1.54907e-06
0.00480393
2.79198e-06
0.00480119
4.1159e-06
0.00479775
5.52174e-06
0.00479358
7.01005e-06
0.00478861
8.58139e-06
0.00478282
1.02371e-05
0.00477616
1.19805e-05
0.00476858
1.38183e-05
0.00476002
1.57622e-05
0.00475044
1.78299e-05
0.00473974
2.00467e-05
0.00472784
2.24447e-05
0.00471462
2.50631e-05
0.00469996
2.79467e-05
0.0046837
3.11456e-05
0.00466565
3.47143e-05
0.0046456
3.87111e-05
0.0046233
4.31969e-05
0.00459847
4.82363e-05
0.00457081
5.38991e-05
0.00453997
6.02629e-05
0.00450554
6.74161e-05
0.00446709
7.54623e-05
0.0044241
8.45253e-05
0.00437599
9.47553e-05
0.00432209
0.000106336
0.0042616
0.000119493
0.00419361
0.000134505
0.00411701
0.000151718
0.00403049
0.000171562
0.00393247
0.000194567
0.00382106
0.000221392
0.00369395
0.000252836
0.0035484
0.00028985
0.00338111
0.000333514
0.00318825
0.000384953
0.00296553
0.00044514
0.00270847
0.000514513
0.002413
0.000592309
0.00207662
0.0006755
0.00170027
0.000757199
0.00129135
0.000824406
0.00086823
0.0008551
0.00046617
0.0008149
0.000145104
0.000652605
0.000299191
0.00480683
8.0737e-07
0.00480379
2.33257e-06
0.00480021
3.96422e-06
0.00479605
5.70579e-06
0.00479128
7.56405e-06
0.00478585
9.54268e-06
0.00477973
1.16441e-05
0.00477287
1.38698e-05
0.00476523
1.6221e-05
0.00475677
1.87002e-05
0.00474744
2.13129e-05
0.00473718
2.40696e-05
0.00472596
2.69882e-05
0.00471369
3.00958e-05
0.00470031
3.343e-05
0.00468571
3.70393e-05
0.0046698
4.09818e-05
0.00465242
4.53242e-05
0.00463342
5.01412e-05
0.00461262
5.55141e-05
0.00458981
6.15292e-05
0.00456472
6.82775e-05
0.00453711
7.58557e-05
0.00450664
8.43682e-05
0.00447297
9.39315e-05
0.0044357
0.000104679
0.0043944
0.000116765
0.00434855
0.000130378
0.00429756
0.000145741
0.00424077
0.00016313
0.00417738
0.000182883
0.00410647
0.000205416
0.00402695
0.000231242
0.00393751
0.000260997
0.00383661
0.000295466
0.00372239
0.000335615
0.00359261
0.000382612
0.00344462
0.000437838
0.00327529
0.000502844
0.00308103
0.000579223
0.00285786
0.000668304
0.00260179
0.000770583
0.00230936
0.000884736
0.0019788
0.00100607
0.00161179
0.0011242
0.00121631
0.00121989
0.000810796
0.00126062
0.00043007
0.00119563
0.000131326
0.000951349
0.000430517
0.00480413
7.37853e-06
0.00479706
9.40082e-06
0.00478946
1.15628e-05
0.0047813
1.38723e-05
0.00477252
1.63363e-05
0.00476311
1.89604e-05
0.004753
2.17484e-05
0.00474217
2.47029e-05
0.00473056
2.78264e-05
0.00471814
3.11231e-05
0.00470485
3.4601e-05
0.00469065
3.82751e-05
0.00467546
4.21699e-05
0.00465924
4.6322e-05
0.00464189
5.07818e-05
0.00462331
5.56134e-05
0.0046034
6.08941e-05
0.00458201
6.6712e-05
0.00455899
7.31652e-05
0.00453414
8.03612e-05
0.00450726
8.84139e-05
0.00447809
9.74438e-05
0.00444637
0.000107579
0.00441178
0.000118959
0.00437397
0.000131738
0.00433255
0.000146095
0.00428708
0.000162238
0.00423704
0.000180416
0.00418185
0.00020093
0.00412084
0.000224145
0.00405321
0.000250509
0.00397806
0.000280572
0.00389429
0.000315011
0.00380063
0.000354658
0.00369556
0.000400534
0.00357728
0.000453888
0.00344368
0.000516219
0.00329224
0.000589275
0.00312009
0.000674996
0.002924
0.000775316
0.00270054
0.000891761
0.00244643
0.00102469
0.00215918
0.001172
0.00183808
0.00132716
0.00148591
0.00147637
0.00111127
0.00159453
0.000732196
0.00163969
0.000381606
0.00154622
0.000111682
0.00122127
0.0005422
0.00480059
1.9248e-05
0.00478824
2.17558e-05
0.00477536
2.44366e-05
0.00476193
2.73006e-05
0.00474791
3.03572e-05
0.00473326
3.36136e-05
0.00471793
3.70754e-05
0.00470189
4.07466e-05
0.00468508
4.46314e-05
0.00466747
4.8736e-05
0.004649
5.3072e-05
0.00462962
5.76593e-05
0.00460926
6.25294e-05
0.00458785
6.77288e-05
0.00456531
7.33206e-05
0.00454154
7.93848e-05
0.00451642
8.60171e-05
0.0044898
9.33263e-05
0.00446153
0.000101434
0.00443142
0.000110472
0.00439925
0.000120582
0.00436479
0.000131912
0.00432774
0.000144622
0.00428782
0.000158885
0.00424466
0.000174897
0.00419787
0.000192879
0.00414702
0.000213094
0.00409158
0.000235853
0.00403098
0.000261532
0.00396454
0.000290587
0.00389147
0.000323574
0.00381087
0.000361172
0.00372167
0.000404213
0.00362262
0.00045371
0.00351225
0.0005109
0.00338887
0.000577276
0.00325048
0.00065461
0.00309482
0.000744934
0.00291937
0.000850446
0.00272143
0.000973251
0.00249835
0.00111484
0.0022479
0.00127514
0.00196887
0.00145102
0.00166212
0.00163392
0.0013318
0.00180669
0.000987159
0.00193917
0.000644941
0.00198191
0.000332964
0.00185819
9.23328e-05
0.0014619
0.000634532
0.00479627
3.7611e-05
0.00477744
4.05869e-05
0.0047581
4.37693e-05
0.00473823
4.71707e-05
0.00471779
5.08027e-05
0.00469673
5.46744e-05
0.00467501
5.87933e-05
0.00465259
6.3165e-05
0.00462943
6.7796e-05
0.00460547
7.26953e-05
0.00458066
7.78782e-05
0.00455495
8.33701e-05
0.00452827
8.92105e-05
0.00450054
9.5456e-05
0.00447168
0.000102182
0.00444158
0.000109486
0.00441012
0.00011748
0.00437715
0.000126293
0.00434251
0.00013607
0.00430602
0.000146967
0.00426745
0.000159151
0.00422656
0.000172798
0.00418309
0.000188099
0.00413671
0.000205262
0.00408709
0.00022452
0.00403382
0.000246143
0.00397647
0.000270445
0.00391452
0.000297802
0.00384739
0.000328664
0.0037744
0.000363579
0.00369477
0.000403206
0.00360759
0.000448351
0.00351182
0.000499985
0.00340624
0.00055929
0.00328945
0.000627682
0.00315988
0.000706848
0.00301574
0.000798746
0.00285512
0.000905563
0.002676
0.00102956
0.00247652
0.00117274
0.00225517
0.00133619
0.00201131
0.001519
0.00174581
0.00171652
0.00146182
0.0019179
0.00116563
0.00210289
0.000867412
0.00223738
0.000581612
0.00226771
0.000325523
0.00211428
0.000112559
0.00167487
0.000747091
0.00479124
6.35698e-05
0.00476484
6.69892e-05
0.00473796
7.06508e-05
0.00471056
7.45677e-05
0.00468261
7.87531e-05
0.00465407
8.32183e-05
0.00462489
8.79722e-05
0.00459503
9.30227e-05
0.00456445
9.83785e-05
0.00453309
0.000104052
0.00450091
0.000110062
0.00446783
0.000116442
0.00443381
0.000123238
0.00439875
0.000130517
0.00436256
0.000138369
0.00432514
0.000146906
0.00428636
0.000156258
0.00424608
0.000166575
0.00420413
0.000178022
0.00416032
0.000190779
0.00411443
0.000205037
0.00406623
0.000221001
0.00401543
0.00023889
0.00396175
0.000258947
0.00390482
0.000281446
0.00384427
0.000306699
0.00377963
0.000335078
0.00371042
0.00036702
0.00363603
0.000403054
0.00355579
0.000443813
0.00346894
0.000490063
0.00337456
0.000542727
0.00327163
0.000602913
0.00315898
0.000671947
0.00303526
0.000751399
0.00289901
0.000843094
0.00274867
0.000949088
0.00258266
0.00107158
0.00239956
0.00121265
0.00219843
0.00137388
0.00197917
0.00155545
0.0017432
0.00175496
0.00149419
0.00196553
0.00123879
0.0021733
0.000987298
0.00235438
0.000753177
0.0024715
0.000550372
0.00247052
0.00038383
0.00228082
0.000232736
0.00182596
0.000979827
-2.7076e-05
2.70721e-05
3.86631e-09
-6.3156e-05
3.60723e-05
7.7679e-09
-8.21618e-05
1.89968e-05
9.03726e-09
-7.06867e-05
-1.14839e-05
8.83402e-09
-2.31374e-05
-4.75575e-05
8.10935e-09
6.16119e-05
-8.47563e-05
7.06324e-09
0.000181438
-0.000119832
5.87663e-09
0.000332489
-0.000151056
4.70191e-09
0.000509897
-0.000177411
3.59065e-09
0.000708363
-0.000198469
2.57288e-09
0.000922565
-0.000214203
1.6679e-09
0.00114741
-0.000224849
8.8667e-10
0.00137823
-0.000230818
2.37861e-10
0.00161085
-0.00023262
-2.87141e-10
0.00184167
-0.00023082
-6.86568e-10
0.00206767
-0.000225996
-9.58215e-10
0.00228638
-0.000218714
-1.09312e-09
0.00249589
-0.000209508
-1.07029e-09
0.00269476
-0.000198869
-8.45686e-10
0.002882
-0.000187238
-2.51357e-10
0.003057
-0.000175001
2.7842e-10
0.00321949
-0.000162488
1.62102e-09
0.00336946
-0.000149977
2.07857e-09
0.00350716
-0.000137695
2.28382e-09
0.00363297
-0.000125819
3.11564e-09
0.00374746
-0.000114486
3.00625e-09
0.00385125
-0.000103794
3.32103e-09
0.00394505
-9.38064e-05
3.39879e-09
0.0040296
-8.45571e-05
3.24652e-09
0.00410565
-7.60548e-05
2.97035e-09
0.00417394
-6.82887e-05
2.67299e-09
0.00423517
-6.12328e-05
2.43347e-09
0.00429002
-5.48502e-05
2.2951e-09
0.00433911
-4.90962e-05
2.27771e-09
0.00438303
-4.39221e-05
2.38058e-09
0.00442231
-3.92772e-05
2.59008e-09
0.00445742
-3.5111e-05
2.88704e-09
0.00448879
-3.1375e-05
3.24655e-09
0.00451681
-2.80231e-05
3.64283e-09
0.00454182
-2.50131e-05
4.05225e-09
0.00456412
-2.23062e-05
4.45146e-09
0.00458398
-1.98679e-05
4.82317e-09
0.00460164
-1.76673e-05
5.15625e-09
0.00461731
-1.56774e-05
5.44231e-09
0.00463118
-1.38743e-05
5.68011e-09
0.00464341
-1.22374e-05
5.87336e-09
0.00465416
-1.07486e-05
6.02681e-09
0.00466354
-9.39203e-06
6.14859e-09
0.00467169
-8.15391e-06
6.24732e-09
-7.02182e-06
0.00467871
6.32738e-09
-2.34514e-05
5.05235e-05
-5.17943e-05
6.44152e-05
-6.26169e-05
2.98193e-05
-4.45663e-05
-2.95345e-05
8.03971e-06
-0.000100163
9.55174e-05
-0.000172234
0.000216203
-0.000240518
0.000366474
-0.000301327
0.000541748
-0.000352685
0.000737045
-0.000393766
0.00094734
-0.000424498
0.00116782
-0.000445325
0.00139402
-0.000457025
0.00162199
-0.000460585
0.00184826
-0.000457092
0.00206993
-0.000447669
0.00228463
-0.000433415
0.0024905
-0.000415371
0.00268612
-0.000394497
0.00287054
-0.000371655
0.00304314
-0.000347601
0.00320364
-0.000322985
0.00335201
-0.000298349
0.00348846
-0.000274148
0.00361338
-0.000250737
0.00372727
-0.000228378
0.00383075
-0.000207266
0.00392447
-0.000187531
0.00400916
-0.000169243
0.00408552
-0.000152421
0.00415428
-0.000137046
0.00421611
-0.000123067
0.00427168
-0.000110415
0.00432158
-9.90017e-05
0.0043664
-8.87328e-05
0.00440663
-7.95091e-05
0.00444275
-7.1232e-05
0.00447518
-6.3806e-05
0.0045043
-5.71407e-05
0.00453044
-5.11529e-05
0.0045539
-4.57664e-05
0.00457494
-4.0913e-05
0.00459381
-3.65318e-05
0.0046107
-3.25691e-05
0.0046258
-2.8978e-05
0.00463928
-2.57173e-05
0.00465128
-2.27512e-05
0.00466194
-2.00484e-05
0.00467137
-1.75812e-05
-1.53244e-05
0.00467967
-1.6014e-05
6.65374e-05
-3.017e-05
7.85712e-05
-2.52931e-05
2.49424e-05
5.19971e-06
-6.00272e-05
6.55015e-05
-0.000160465
0.000157449
-0.000264182
0.000279077
-0.000362146
0.000427188
-0.000449438
0.000597824
-0.000523321
0.00078663
-0.000582572
0.000989165
-0.000627033
0.00120112
-0.000657279
0.00141847
-0.00067438
0.0016376
-0.000679713
0.00185533
-0.000674816
0.00206894
-0.000661285
0.00227622
-0.000640696
0.0024754
-0.000614547
0.00266513
-0.000584224
0.00284445
-0.000550977
0.00301275
-0.000515907
0.00316973
-0.000479957
0.00331531
-0.000443931
0.00344965
-0.000408486
0.00357306
-0.000374156
0.00368603
-0.00034134
0.00378907
-0.000310312
0.00388282
-0.000281276
0.00396791
-0.000254338
0.00404502
-0.000229533
0.00411482
-0.000206837
0.00417793
-0.000186182
0.00423498
-0.000167468
0.00428655
-0.000150571
0.00433317
-0.000135355
0.00437534
-0.000121676
0.0044135
-0.000109391
0.00444806
-9.8362e-05
0.00447937
-8.84565e-05
0.00450777
-7.95526e-05
0.00453354
-7.1539e-05
0.00455695
-6.43153e-05
0.00457821
-5.77921e-05
0.00459753
-5.18902e-05
0.00461509
-4.65403e-05
0.00463105
-4.16816e-05
0.00464556
-3.72611e-05
0.00465875
-3.32322e-05
0.00467072
-2.95537e-05
-2.61871e-05
0.00468158
-2.88587e-06
6.94233e-05
2.52567e-06
7.31597e-05
2.57643e-05
1.70371e-06
6.99518e-05
-0.000104215
0.000140742
-0.000231256
0.000237352
-0.000360792
0.000358561
-0.000483355
0.000502098
-0.000592974
0.000664958
-0.000686181
0.000843711
-0.000761325
0.00103474
-0.000818061
0.00123444
-0.000856975
0.00143935
-0.000879294
0.0016463
-0.000886661
0.00185243
-0.000880952
0.00205529
-0.000864145
0.00225281
-0.00083821
0.0024433
-0.000805037
0.00262546
-0.00076639
0.00279835
-0.000723867
0.00296133
-0.000678882
0.00311403
-0.000632655
0.00325631
-0.000586216
0.00338827
-0.00054044
0.00351013
-0.000496018
0.00362226
-0.000453476
0.00372515
-0.000413199
0.00381932
-0.000375444
0.00390535
-0.000340366
0.00398383
-0.000308019
0.00405538
-0.000278381
0.00412057
-0.000251373
0.00417997
-0.000226871
0.00423412
-0.000204722
0.00428352
-0.000184754
0.00432863
-0.000166785
0.00436987
-0.000150632
0.00440763
-0.000136117
0.00444224
-0.00012307
0.00447402
-0.000111334
0.00450325
-0.000100766
0.00453017
-9.12341e-05
0.004555
-8.26227e-05
0.00457794
-7.48287e-05
0.00459916
-6.77614e-05
0.00461882
-6.13413e-05
0.00463706
-5.54989e-05
0.004654
-5.0173e-05
0.00466975
-4.53089e-05
-4.08544e-05
0.00468442
1.18366e-05
5.75867e-05
3.97076e-05
4.52887e-05
8.24816e-05
-4.10703e-05
0.000144857
-0.00016659
0.000225309
-0.000311707
0.000324443
-0.000459926
0.00044209
-0.000601002
0.000577299
-0.000728183
0.000728398
-0.00083728
0.000893158
-0.000926086
0.00106898
-0.000993885
0.00125308
-0.00104108
0.00144265
-0.00106886
0.00163498
-0.00107898
0.00182754
-0.00107351
0.00201809
-0.00105469
0.00220467
-0.00102479
0.00238566
-0.000986028
0.00255975
-0.000940485
0.00272596
-0.000890074
0.00288357
-0.000836494
0.00303214
-0.000781226
0.00317145
-0.000725526
0.00330146
-0.000670451
0.00342231
-0.000616868
0.00353428
-0.000565438
0.00363772
-0.00051664
0.00373309
-0.000470813
0.00382088
-0.000428157
0.00390161
-0.000388753
0.00397582
-0.00035259
0.00404403
-0.000319585
0.00410676
-0.0002896
0.00416449
-0.000262457
0.0042177
-0.000237956
0.00426679
-0.000215881
0.00431218
-0.000196017
0.00435421
-0.000178149
0.00439321
-0.000162076
0.00442949
-0.000147608
0.00446329
-0.000134569
0.00449486
-0.000122804
0.00452441
-0.000112169
0.00455212
-0.00010254
0.00457816
-9.3806e-05
0.00460269
-8.58697e-05
0.00462584
-7.86459e-05
0.00464772
-7.20595e-05
0.00466846
-6.60428e-05
-6.05294e-05
0.00468813
3.15247e-05
2.6062e-05
8.73054e-05
-1.0492e-05
0.000152262
-0.000106027
0.000228168
-0.000242496
0.000313821
-0.00039736
0.00041032
-0.000556426
0.000518943
-0.000709625
0.00064042
-0.00084966
0.000774696
-0.000971557
0.000920952
-0.00107234
0.00107774
-0.00115067
0.00124315
-0.00120649
0.00141501
-0.00124073
0.00159104
-0.00125501
0.00176898
-0.00125145
0.0019467
-0.00123241
0.00212229
-0.00120038
0.00229409
-0.00115782
0.0024607
-0.0011071
0.00262102
-0.0010504
0.00277422
-0.000989698
0.00291973
-0.00092673
0.00305718
-0.000862976
0.00318642
-0.000799689
0.00330744
-0.000737893
0.00342041
-0.000678401
0.00352558
-0.000621814
0.00362331
-0.000568545
0.00371401
-0.000518856
0.00379812
-0.000472864
0.00387611
-0.000430578
0.00394844
-0.00039192
0.00401559
-0.000356744
0.00407799
-0.000324858
0.00413607
-0.000296037
0.00419023
-0.000270041
0.00424084
-0.000246623
0.00428823
-0.00022554
0.00433271
-0.000206558
0.00437456
-0.00018946
0.00441404
-0.000174042
0.00445135
-0.000160122
0.00448672
-0.000147535
0.00452032
-0.000136135
0.0045523
-0.000125791
0.00458282
-0.00011639
0.00461201
-0.000107831
0.00463997
-0.000100027
0.00466683
-9.28963e-05
-8.63607e-05
0.00469266
5.94568e-05
-3.33948e-05
0.000141693
-9.27281e-05
0.000227038
-0.000191371
0.00031027
-0.000325729
0.000393331
-0.000480421
0.000479501
-0.000642596
0.000572205
-0.000802329
0.000674161
-0.000951615
0.000787018
-0.00108441
0.000911333
-0.00119666
0.00104671
-0.00128604
0.00119199
-0.00135177
0.00134551
-0.00139424
0.00150526
-0.00141477
0.00166912
-0.00141531
0.00183496
-0.00139826
0.0020008
-0.00136622
0.00216484
-0.00132186
0.00232553
-0.00126779
0.0024816
-0.00120647
0.00263205
-0.00114014
0.00277612
-0.0010708
0.00291331
-0.00100016
0.0030433
-0.000929681
0.00316597
-0.000860565
0.00328135
-0.000793779
0.00338959
-0.000730055
0.00349096
-0.000669915
0.00358578
-0.000613679
0.00367443
-0.000561517
0.00375732
-0.000513468
0.00383487
-0.000469466
0.00390749
-0.000429367
0.0039756
-0.000392968
0.00403959
-0.000360028
0.00409984
-0.000330285
0.00415668
-0.000303467
0.00421045
-0.000279303
0.00426142
-0.000257532
0.00430987
-0.00023791
0.00435604
-0.000220208
0.00440013
-0.000204219
0.00444235
-0.000189757
0.00448287
-0.000176654
0.00452184
-0.000164763
0.00455941
-0.000153954
0.00459569
-0.000144112
0.0046308
-0.000135137
0.00466484
-0.000126937
0.00469791
-0.000119427
0.00469492
-1.62185e-05
6.42479e-09
0.00471051
-1.55979e-05
6.59447e-09
0.00472552
-1.50154e-05
6.74543e-09
0.00473998
-1.44697e-05
6.88841e-09
0.00475393
-1.39586e-05
7.04084e-09
0.0047674
-1.34783e-05
7.21522e-09
0.00478042
-1.30236e-05
7.4169e-09
0.004793
-1.25872e-05
7.64689e-09
0.00480515
-1.21596e-05
7.9027e-09
0.00481687
-1.17293e-05
8.17515e-09
0.00482815
-1.1284e-05
8.45026e-09
0.00483895
-1.08117e-05
8.71465e-09
0.00484925
-1.03036e-05
8.95073e-09
0.00485899
-9.75611e-06
9.13712e-09
0.00486816
-9.17336e-06
9.25398e-09
0.00487671
-8.56787e-06
9.28557e-09
0.00488467
-7.95964e-06
9.21837e-09
0.00489203
-7.37325e-06
9.04562e-09
0.00489885
-6.83353e-06
8.77142e-09
0.00490521
-6.36086e-06
8.4067e-09
0.00491117
-5.96747e-06
7.96613e-09
0.00491681
-5.6556e-06
7.47009e-09
0.00492223
-5.41809e-06
6.94129e-09
0.00492746
-5.2409e-06
6.39759e-09
0.00493256
-5.10664e-06
5.8528e-09
0.00493755
-4.99803e-06
5.31921e-09
0.00494245
-4.90052e-06
4.80446e-09
0.00494725
-4.80359e-06
4.31069e-09
0.00495195
-4.70094e-06
3.83938e-09
0.00495653
-4.58979e-06
3.3911e-09
0.004961
-4.46985e-06
2.96311e-09
0.00496534
-4.34234e-06
2.55324e-09
0.00496955
-4.20911e-06
2.16159e-09
0.00497362
-4.07213e-06
1.78651e-09
0.00497755
-3.93319e-06
1.42531e-09
0.00498134
-3.79376e-06
1.07906e-09
0.00498499
-3.655e-06
7.49777e-10
0.00498851
-3.51777e-06
4.39792e-10
0.00499189
-3.3827e-06
1.54793e-10
0.00499515
-3.25025e-06
-9.91368e-11
0.00499827
-3.12071e-06
-3.22615e-10
0.00500126
-2.99431e-06
-5.19522e-10
0.00500413
-2.87114e-06
-6.96944e-10
0.00500688
-2.75129e-06
-8.58424e-10
0.00500952
-2.63479e-06
-1.03034e-09
0.00501204
-2.52158e-06
-1.20939e-09
0.00501446
-2.41169e-06
-1.38289e-09
0.00501676
-2.30508e-06
-1.56917e-09
0.00501897
-2.20168e-06
-1.77373e-09
0.00502107
-2.10143e-06
-2.00468e-09
0.00502308
-2.00426e-06
-2.26584e-09
0.00502499
-1.91012e-06
-2.55516e-09
0.00502681
-1.81895e-06
-2.86357e-09
0.00502854
-1.73072e-06
-3.17286e-09
0.00503019
-1.64539e-06
-3.46472e-09
0.00503176
-1.5629e-06
-3.72071e-09
0.00503325
-1.48322e-06
-3.92589e-09
0.00503466
-1.40627e-06
-4.08041e-09
0.00503599
-1.332e-06
-4.19832e-09
0.00503726
-1.26032e-06
-4.30445e-09