/*--------------------------------*- C++ -*----------------------------------*\
| =========                 |                                                 |
| \\      /  F ield         | OpenFOAM: The Open Source CFD Toolbox           |
|  \\    /   O peration     | Version:  2412                                  |
|   \\  /    A nd           | Website:  www.openfoam.com                      |
|    \\/     M anipulation  |                                                 |
\*---------------------------------------------------------------------------*/
FoamFile
{
    version     2.0;
    format      ascii;
    arch        "LSB;label=32;scalar=64";
    class       volVectorField;
    location    "9.5";
    object      U;
}
// * * * * * * * * * * * * * * * * * * * * * * * * * * * * * * * * * * * * * //

dimensions      [0 1 -1 0 0 0 0];

internalField   nonuniform List<vector> 
63420
(
(0.100001 3.78302e-07 0)
(0.0999952 1.17393e-06 0)
(0.0999866 3.4051e-06 0)
(0.0999579 7.92095e-06 0)
(0.0998996 1.35793e-05 0)
(0.0998122 1.81754e-05 0)
(0.099708 2.01588e-05 0)
(0.0996034 1.94576e-05 0)
(0.0995101 1.70894e-05 0)
(0.0994327 1.4312e-05 0)
(0.0993696 1.20224e-05 0)
(0.0993167 1.05961e-05 0)
(0.0992693 1.00149e-05 0)
(0.0992236 1.00731e-05 0)
(0.0991775 1.0534e-05 0)
(0.0991296 1.12092e-05 0)
(0.0990795 1.19775e-05 0)
(0.099027 1.27749e-05 0)
(0.0989723 1.35752e-05 0)
(0.0989153 1.43739e-05 0)
(0.0988564 1.51767e-05 0)
(0.0987954 1.59925e-05 0)
(0.0987325 1.68308e-05 0)
(0.0986676 1.76999e-05 0)
(0.0986007 1.86069e-05 0)
(0.0985319 1.95575e-05 0)
(0.0984609 2.05567e-05 0)
(0.0983877 2.16086e-05 0)
(0.0983124 2.2717e-05 0)
(0.0982347 2.38853e-05 0)
(0.0981547 2.51167e-05 0)
(0.0980722 2.64143e-05 0)
(0.0979871 2.77815e-05 0)
(0.0978994 2.92213e-05 0)
(0.0978089 3.07371e-05 0)
(0.0977157 3.23322e-05 0)
(0.0976195 3.40102e-05 0)
(0.0975204 3.57748e-05 0)
(0.0974182 3.76298e-05 0)
(0.0973127 3.95793e-05 0)
(0.0972041 4.16276e-05 0)
(0.097092 4.37792e-05 0)
(0.0969765 4.6039e-05 0)
(0.0968574 4.84119e-05 0)
(0.0967347 5.09035e-05 0)
(0.0966081 5.35195e-05 0)
(0.0964778 5.62661e-05 0)
(0.0963434 5.915e-05 0)
(0.0962049 6.21784e-05 0)
(0.0960622 6.53592e-05 0)
(0.0959151 6.87013e-05 0)
(0.0957636 7.22154e-05 0)
(0.0956075 7.59169e-05 0)
(0.0954466 7.98353e-05 0)
(0.0952807 8.4041e-05 0)
(0.100001 1.13753e-06 0)
(0.0999951 3.52377e-06 0)
(0.0999866 1.01766e-05 0)
(0.0999582 2.36374e-05 0)
(0.0999007 4.05218e-05 0)
(0.0998143 5.42706e-05 0)
(0.0997112 6.0255e-05 0)
(0.0996073 5.82431e-05 0)
(0.0995142 5.125e-05 0)
(0.0994366 4.30159e-05 0)
(0.0993731 3.62147e-05 0)
(0.0993196 3.19707e-05 0)
(0.0992717 3.02367e-05 0)
(0.0992256 3.04047e-05 0)
(0.0991792 3.17737e-05 0)
(0.099131 3.37837e-05 0)
(0.0990807 3.60745e-05 0)
(0.0990282 3.84548e-05 0)
(0.0989733 4.08467e-05 0)
(0.0989164 4.32362e-05 0)
(0.0988574 4.56395e-05 0)
(0.0987965 4.80833e-05 0)
(0.0987336 5.05952e-05 0)
(0.0986688 5.31999e-05 0)
(0.098602 5.59183e-05 0)
(0.0985332 5.87677e-05 0)
(0.0984623 6.17626e-05 0)
(0.0983893 6.49155e-05 0)
(0.098314 6.82374e-05 0)
(0.0982365 7.17386e-05 0)
(0.0981565 7.54286e-05 0)
(0.0980741 7.93171e-05 0)
(0.0979892 8.34135e-05 0)
(0.0979016 8.77273e-05 0)
(0.0978113 9.22683e-05 0)
(0.0977182 9.70467e-05 0)
(0.0976222 0.000102073 0)
(0.0975232 0.000107358 0)
(0.0974212 0.000112914 0)
(0.097316 0.000118753 0)
(0.0972075 0.000124887 0)
(0.0970957 0.00013133 0)
(0.0969804 0.000138096 0)
(0.0968616 0.000145201 0)
(0.0967391 0.000152661 0)
(0.0966129 0.000160493 0)
(0.0964828 0.000168715 0)
(0.0963487 0.000177347 0)
(0.0962106 0.000186412 0)
(0.0960683 0.000195932 0)
(0.0959217 0.000205933 0)
(0.0957706 0.000216448 0)
(0.0956149 0.000227522 0)
(0.0954546 0.000239241 0)
(0.0952892 0.00025181 0)
(0.100001 1.90223e-06 0)
(0.0999951 5.8743e-06 0)
(0.0999866 1.68461e-05 0)
(0.0999589 3.90463e-05 0)
(0.099903 6.69574e-05 0)
(0.0998186 8.97903e-05 0)
(0.0997174 9.98785e-05 0)
(0.0996147 9.67753e-05 0)
(0.0995221 8.54005e-05 0)
(0.0994441 7.19023e-05 0)
(0.0993798 6.06998e-05 0)
(0.0993254 5.36708e-05 0)
(0.0992764 5.07624e-05 0)
(0.0992295 5.09902e-05 0)
(0.0991824 5.32083e-05 0)
(0.0991338 5.64972e-05 0)
(0.0990832 6.02628e-05 0)
(0.0990304 6.41881e-05 0)
(0.0989755 6.81422e-05 0)
(0.0989186 7.21e-05 0)
(0.0988596 7.60866e-05 0)
(0.0987987 8.01448e-05 0)
(0.098736 8.43193e-05 0)
(0.0986712 8.86503e-05 0)
(0.0986046 9.31717e-05 0)
(0.0985359 9.7912e-05 0)
(0.0984652 0.000102895 0)
(0.0983923 0.000108141 0)
(0.0983173 0.000113668 0)
(0.0982399 0.000119494 0)
(0.0981602 0.000125634 0)
(0.098078 0.000132104 0)
(0.0979933 0.00013892 0)
(0.097906 0.000146096 0)
(0.097816 0.000153651 0)
(0.0977232 0.0001616 0)
(0.0976276 0.00016996 0)
(0.0975289 0.000178751 0)
(0.0974273 0.000187991 0)
(0.0973224 0.000197701 0)
(0.0972144 0.000207901 0)
(0.097103 0.000218614 0)
(0.0969882 0.000229863 0)
(0.0968699 0.000241674 0)
(0.0967479 0.000254074 0)
(0.0966223 0.00026709 0)
(0.0964928 0.000280753 0)
(0.0963594 0.000295096 0)
(0.096222 0.000310154 0)
(0.0960805 0.000325966 0)
(0.0959347 0.000342574 0)
(0.0957845 0.000360029 0)
(0.0956298 0.000378406 0)
(0.0954704 0.00039784 0)
(0.0953062 0.000418654 0)
(0.100001 2.67568e-06 0)
(0.099995 8.2258e-06 0)
(0.0999866 2.33516e-05 0)
(0.0999599 5.39608e-05 0)
(0.0999061 9.25773e-05 0)
(0.0998247 0.000124383 0)
(0.0997263 0.000138739 0)
(0.0996255 0.000134897 0)
(0.0995334 0.000119531 0)
(0.099455 0.000101079 0)
(0.0993895 8.56534e-05 0)
(0.0993336 7.58929e-05 0)
(0.0992833 7.17761e-05 0)
(0.0992352 7.19834e-05 0)
(0.0991871 7.49557e-05 0)
(0.0991379 7.94335e-05 0)
(0.0990868 8.45973e-05 0)
(0.0990338 9.00061e-05 0)
(0.0989787 9.54748e-05 0)
(0.0989217 0.000100965 0)
(0.0988628 0.000106507 0)
(0.098802 0.000112157 0)
(0.0987394 0.000117976 0)
(0.0986748 0.000124018 0)
(0.0986084 0.000130328 0)
(0.0985399 0.000136946 0)
(0.0984695 0.000143905 0)
(0.0983969 0.000151231 0)
(0.0983221 0.000158951 0)
(0.098245 0.000167088 0)
(0.0981657 0.000175663 0)
(0.0980839 0.000184699 0)
(0.0979995 0.000194216 0)
(0.0979126 0.000204238 0)
(0.0978231 0.000214786 0)
(0.0977307 0.000225884 0)
(0.0976355 0.000237556 0)
(0.0975374 0.000249827 0)
(0.0974363 0.000262724 0)
(0.097332 0.000276274 0)
(0.0972246 0.000290507 0)
(0.0971139 0.000305454 0)
(0.0969998 0.000321148 0)
(0.0968822 0.000337622 0)
(0.0967611 0.000354914 0)
(0.0966363 0.000373062 0)
(0.0965078 0.00039211 0)
(0.0963754 0.0004121 0)
(0.0962391 0.000433082 0)
(0.0960987 0.000455107 0)
(0.0959541 0.000478234 0)
(0.0958052 0.000502532 0)
(0.0956519 0.000528097 0)
(0.0954941 0.000555106 0)
(0.0953316 0.000583973 0)
(0.100001 3.46052e-06 0)
(0.0999949 1.05785e-05 0)
(0.0999866 2.96396e-05 0)
(0.0999611 6.82203e-05 0)
(0.0999101 0.000117115 0)
(0.0998323 0.000157745 0)
(0.0997374 0.000176583 0)
(0.0996389 0.000172467 0)
(0.0995477 0.000153629 0)
(0.0994687 0.000130635 0)
(0.0994018 0.000111223 0)
(0.0993441 9.88035e-05 0)
(0.099292 9.34345e-05 0)
(0.0992424 9.35156e-05 0)
(0.0991932 9.71169e-05 0)
(0.0991431 0.000102664 0)
(0.0990914 0.000109124 0)
(0.0990381 0.000115934 0)
(0.0989829 0.000122854 0)
(0.0989258 0.000129827 0)
(0.098867 0.000136886 0)
(0.0988063 0.000144098 0)
(0.0987439 0.000151537 0)
(0.0986796 0.000159268 0)
(0.0986134 0.000167349 0)
(0.0985452 0.000175827 0)
(0.0984751 0.000184743 0)
(0.0984028 0.000194132 0)
(0.0983284 0.000204026 0)
(0.0982518 0.000214454 0)
(0.0981729 0.000225445 0)
(0.0980915 0.000237024 0)
(0.0980077 0.000249221 0)
(0.0979213 0.000262062 0)
(0.0978323 0.000275577 0)
(0.0977406 0.000289794 0)
(0.0976461 0.000304745 0)
(0.0975486 0.000320461 0)
(0.0974482 0.000336976 0)
(0.0973448 0.000354326 0)
(0.0972382 0.000372546 0)
(0.0971283 0.000391677 0)
(0.0970152 0.00041176 0)
(0.0968986 0.000432838 0)
(0.0967786 0.000454957 0)
(0.0966549 0.000478166 0)
(0.0965276 0.000502519 0)
(0.0963966 0.000528069 0)
(0.0962616 0.000554878 0)
(0.0961227 0.00058301 0)
(0.0959797 0.000612537 0)
(0.0958326 0.000643541 0)
(0.0956812 0.000676137 0)
(0.0955254 0.000710527 0)
(0.0953651 0.00074718 0)
(0.100001 4.25875e-06 0)
(0.0999948 1.29322e-05 0)
(0.0999866 3.56686e-05 0)
(0.0999625 8.16991e-05 0)
(0.0999146 0.000140361 0)
(0.0998411 0.000189632 0)
(0.0997502 0.000213205 0)
(0.0996545 0.000209367 0)
(0.0995642 0.000187674 0)
(0.0994845 0.000160631 0)
(0.0994161 0.00013752 0)
(0.0993563 0.000122531 0)
(0.0993022 0.000115859 0)
(0.0992509 0.000115689 0)
(0.0992003 0.00011977 0)
(0.0991493 0.000126243 0)
(0.099097 0.000133876 0)
(0.0990433 0.000141989 0)
(0.0989879 0.000150283 0)
(0.0989308 0.000158679 0)
(0.0988721 0.000167209 0)
(0.0988116 0.000175947 0)
(0.0987494 0.000184974 0)
(0.0986853 0.000194368 0)
(0.0986195 0.000204195 0)
(0.0985517 0.00021451 0)
(0.098482 0.000225361 0)
(0.0984102 0.000236791 0)
(0.0983363 0.000248835 0)
(0.0982601 0.000261531 0)
(0.0981817 0.00027491 0)
(0.098101 0.000289006 0)
(0.0980178 0.000303852 0)
(0.0979321 0.000319481 0)
(0.0978438 0.000335927 0)
(0.0977528 0.000353226 0)
(0.0976591 0.000371414 0)
(0.0975625 0.00039053 0)
(0.097463 0.000410615 0)
(0.0973605 0.00043171 0)
(0.0972549 0.000453861 0)
(0.0971462 0.000477112 0)
(0.0970342 0.000501515 0)
(0.0969189 0.000527121 0)
(0.0968002 0.000553984 0)
(0.096678 0.000582163 0)
(0.0965522 0.00061172 0)
(0.0964227 0.000642721 0)
(0.0962895 0.000675236 0)
(0.0961524 0.00070934 0)
(0.0960115 0.000745115 0)
(0.0958665 0.000782657 0)
(0.0957174 0.000822087 0)
(0.0955641 0.000863614 0)
(0.0954065 0.000907711 0)
(0.100001 5.07184e-06 0)
(0.0999947 1.52853e-05 0)
(0.0999867 4.14125e-05 0)
(0.0999641 9.43122e-05 0)
(0.0999195 0.000162171 0)
(0.0998506 0.000219874 0)
(0.0997641 0.000248455 0)
(0.0996713 0.000245504 0)
(0.0995821 0.000221641 0)
(0.0995019 0.0001911 0)
(0.0994317 0.000164611 0)
(0.0993698 0.000147156 0)
(0.0993136 0.00013913 0)
(0.0992604 0.000138572 0)
(0.0992084 0.000142967 0)
(0.0991563 0.000150207 0)
(0.0991034 0.000158876 0)
(0.0990492 0.00016818 0)
(0.0989937 0.00017776 0)
(0.0989366 0.000187511 0)
(0.098878 0.000197458 0)
(0.0988177 0.000207678 0)
(0.0987558 0.000218258 0)
(0.0986921 0.000229284 0)
(0.0986266 0.000240828 0)
(0.0985593 0.000252952 0)
(0.0984901 0.000265712 0)
(0.0984188 0.000279154 0)
(0.0983455 0.000293322 0)
(0.0982699 0.000308255 0)
(0.0981922 0.000323992 0)
(0.0981121 0.000340571 0)
(0.0980297 0.00035803 0)
(0.0979448 0.000376407 0)
(0.0978573 0.000395742 0)
(0.0977672 0.000416076 0)
(0.0976744 0.000437452 0)
(0.0975789 0.000459915 0)
(0.0974805 0.00048351 0)
(0.0973791 0.000508287 0)
(0.0972748 0.000534296 0)
(0.0971673 0.000561593 0)
(0.0970567 0.000590232 0)
(0.0969429 0.000620274 0)
(0.0968258 0.000651782 0)
(0.0967053 0.000684822 0)
(0.0965813 0.000719465 0)
(0.0964537 0.000755784 0)
(0.0963226 0.00079386 0)
(0.0961877 0.000833776 0)
(0.0960491 0.000875624 0)
(0.0959066 0.000919503 0)
(0.0957602 0.000965536 0)
(0.0956098 0.00101391 0)
(0.0954555 0.00106501 0)
(0.0951087 8.87354e-05 -4.75559e-24)
(0.094929 9.3717e-05 -4.84427e-24)
(0.0947397 9.90355e-05 -3.22215e-26)
(0.0945401 0.000104692 1.48704e-23)
(0.0943295 0.000110803 -4.92651e-24)
(0.0941073 0.00011731 -5.06546e-24)
(0.0938727 0.000124208 -1.55845e-23)
(0.093625 0.000131506 1.54769e-23)
(0.0933634 0.000139206 5.29168e-24)
(0.0930874 0.000147317 0)
(0.0927961 0.000155852 5.46188e-24)
(0.0924888 0.000164845 -5.55356e-24)
(0.0921646 0.000174353 4.5654e-23)
(0.0918226 0.000184464 -9.78241e-23)
(0.0914616 0.000195305 5.22759e-23)
(0.0910802 0.000207036 4.23277e-23)
(0.0906766 0.000219855 5.43154e-23)
(0.0902487 0.000233988 -6.21678e-24)
(0.0897939 0.000249685 6.35008e-24)
(0.0893092 0.000267223 -6.49126e-24)
(0.0887909 0.000286892 0)
(0.088235 0.000308997 6.79989e-24)
(0.0876368 0.000333862 -6.96882e-24)
(0.086991 0.000361834 0)
(0.0862918 0.000393299 -7.34022e-24)
(0.0855325 0.000428696 0)
(0.0847058 0.000468539 -7.76309e-24)
(0.0838031 0.000513443 -1.30105e-22)
(0.0828149 0.000564155 1.38154e-22)
(0.0817302 0.000621588 -1.38736e-22)
(0.080536 0.000686872 1.38525e-22)
(0.0792174 0.0007614 0)
(0.0777567 0.000846906 0)
(0.0761326 0.000945546 1.70122e-22)
(0.0743199 0.00106 -1.60071e-22)
(0.0722879 0.00119358 0)
(0.0699996 0.00135035 0)
(0.0674103 0.00153513 0)
(0.064466 0.00175345 0)
(0.0611026 0.00201108 0)
(0.057246 0.00231311 0)
(0.0528144 0.00266198 0)
(0.0477253 0.00305415 0)
(0.0419091 0.00347472 0)
(0.0353361 0.00388934 -1.59814e-23)
(0.0280601 0.00423269 -5.49969e-22)
(0.0202665 0.00439464 5.49145e-22)
(0.0123547 0.00420576 5.9773e-22)
(0.00530713 0.00340584 -5.96833e-22)
(0.00108601 0.00159074 0)
(0.0951178 0.000265834 -4.8087e-24)
(0.0949383 0.000280729 -9.80034e-24)
(0.0947493 0.000296652 -5.1291e-24)
(0.0945501 0.000313696 4.78892e-24)
(0.09434 0.000331947 -4.99266e-24)
(0.0941183 0.00035138 3.57516e-23)
(0.0938842 0.000372006 -5.61466e-23)
(0.0936372 0.00039384 5.21142e-24)
(0.0933763 0.000416893 6.95061e-23)
(0.093101 0.000441181 -9.59993e-23)
(0.0928104 0.000466754 -9.36664e-23)
(0.0925038 0.000493711 8.25356e-23)
(0.0921804 0.000522224 0)
(0.0918391 0.00055256 5.75729e-24)
(0.0914788 0.000585095 -1.75877e-23)
(0.091098 0.000620315 -1.99337e-22)
(0.0906951 0.000658805 1.91237e-22)
(0.0902678 0.000701238 -2.0329e-22)
(0.0898136 0.000748365 -1.90783e-23)
(0.0893295 0.000801006 6.5055e-24)
(0.0888121 0.000860033 0)
(0.0882572 0.000926357 -6.8175e-24)
(0.0876603 0.00100094 -2.19631e-22)
(0.0870162 0.00108483 4.58939e-22)
(0.0863191 0.00117917 2.53099e-22)
(0.0855626 0.00128529 -4.77409e-22)
(0.0847392 0.00140473 5.14109e-22)
(0.0838409 0.00153932 -5.21677e-22)
(0.0828581 0.0016913 -8.27975e-24)
(0.08178 0.00186342 0)
(0.0805942 0.00205904 0)
(0.0792859 0.00228233 0)
(0.0778381 0.00253846 0)
(0.0762302 0.00283384 -9.85657e-24)
(0.0744378 0.00317646 -6.69216e-22)
(0.0724317 0.00357616 -2.89426e-23)
(0.0701766 0.00404494 6.96344e-22)
(0.0676298 0.0045971 7.60141e-22)
(0.0647403 0.00524889 -7.59134e-22)
(0.0614475 0.00601725 -2.52711e-23)
(0.0576813 0.00691684 -2.64436e-23)
(0.0533637 0.00795436 -9.14402e-22)
(0.048415 0.00911845 8.84252e-22)
(0.0427652 0.0103638 -3.02258e-23)
(0.0363769 0.0115871 1.60932e-23)
(0.0292826 0.0125936 -1.11822e-21)
(0.0216286 0.0130549 1.11785e-21)
(0.013746 0.0124681 -2.33622e-21)
(0.00648207 0.0100703 2.29716e-21)
(0.00156519 0.00466985 -2.35395e-21)
(0.0951357 0.000441865 -2.84571e-23)
(0.0949568 0.000466603 -9.9675e-24)
(0.0947686 0.000493074 3.84941e-23)
(0.0945702 0.000521417 -7.91104e-23)
(0.094361 0.000551649 1.69239e-22)
(0.0941402 0.000583848 -8.0153e-23)
(0.0939073 0.000618054 1.43454e-26)
(0.0936615 0.000654288 1.03949e-23)
(0.093402 0.000692565 1.81121e-22)
(0.0931282 0.000732923 -1.70372e-22)
(0.0928391 0.000775445 0)
(0.0925341 0.000820304 1.48137e-26)
(0.0922121 0.000867792 0)
(0.0918723 0.000918356 1.97728e-22)
(0.0915135 0.00097262 -1.7429e-22)
(0.0911341 0.00103139 -3.75419e-22)
(0.0907325 0.00109563 2.06933e-23)
(0.0903066 0.00116645 -3.95127e-22)
(0.0898538 0.00124509 1.27661e-23)
(0.0893714 0.0013329 -4.22763e-22)
(0.0888558 0.00143132 4.35712e-22)
(0.0883032 0.00154187 -4.43752e-22)
(0.0877091 0.00166612 4.57356e-22)
(0.0870687 0.00180582 1.43911e-23)
(0.0863762 0.00196287 -1.47836e-23)
(0.0856254 0.00213948 1.52018e-23)
(0.0848093 0.00233821 -5.09178e-22)
(0.08392 0.00256212 5.24853e-22)
(0.0829483 0.00281493 5.58615e-22)
(0.0818841 0.00310118 -5.4147e-22)
(0.0807153 0.00342645 0)
(0.0794282 0.00379762 0)
(0.0780067 0.00422322 1.90542e-23)
(0.0764317 0.00471379 1.31416e-21)
(0.0746807 0.0052824 3.26158e-23)
(0.0727271 0.0059451 -1.32368e-21)
(0.0705389 0.00672142 0)
(0.068078 0.00763445 -2.3195e-23)
(0.0652992 0.00871024 1.61866e-21)
(0.0621486 0.0099756 -3.23421e-21)
(0.0585641 0.0114531 3.43469e-21)
(0.0544758 0.0131516 1.07316e-22)
(0.0498092 0.0150498 -1.7898e-21)
(0.0444931 0.0170699 -1.94573e-21)
(0.0384742 0.0190398 2.00524e-21)
(0.0317422 0.0206386 1.55512e-24)
(0.0243627 0.0213278 -3.42314e-23)
(0.0165322 0.0202815 2.25551e-21)
(0.00881388 0.0162854 -2.18409e-21)
(0.00248629 0.00748265 -2.18392e-21)
(0.0951625 0.00061614 1.87543e-23)
(0.0949845 0.000650562 -9.51216e-24)
(0.0947973 0.00068739 1.97096e-26)
(0.0946 0.000726745 9.77837e-24)
(0.0943922 0.000768744 -1.97976e-26)
(0.0941731 0.00081349 1.6226e-22)
(0.0939419 0.000861043 -3.06542e-22)
(0.093698 0.00091144 1.6471e-22)
(0.0934407 0.000964716 -1.05378e-23)
(0.093169 0.00102094 1.94633e-22)
(0.0928823 0.00108023 -1.73121e-22)
(0.0925797 0.00114285 -3.58956e-22)
(0.0922602 0.00120921 7.24625e-22)
(0.0919228 0.00127995 -7.38586e-22)
(0.0915663 0.00135593 7.53238e-22)
(0.0911893 0.00143826 -7.56701e-22)
(0.0907901 0.00152829 -4.00519e-22)
(0.0903666 0.00162754 2.26622e-26)
(0.0899165 0.00173772 0)
(0.0894369 0.00186069 -4.11725e-22)
(0.0889247 0.00199845 4.24654e-22)
(0.0883762 0.00215306 0)
(0.0877871 0.00232674 -9.16449e-22)
(0.0871528 0.0025219 9.01582e-22)
(0.0864679 0.00274121 1.49243e-23)
(0.0857266 0.00298773 -3.57518e-26)
(0.0849222 0.00326504 1.57756e-23)
(0.0840473 0.00357742 0)
(0.0830934 0.00393004 -5.14008e-26)
(0.082051 0.00432921 0)
(0.080909 0.00478265 -1.79229e-23)
(0.079655 0.00529988 1.21256e-21)
(0.0782743 0.00589262 -1.21222e-21)
(0.0767502 0.00657531 -2.00672e-23)
(0.0750631 0.00736576 4.15747e-23)
(0.07319 0.00828576 -1.43517e-21)
(0.0711042 0.0093616 1.39056e-21)
(0.0687743 0.0106241 2.35961e-23)
(0.0661634 0.0121076 -3.64265e-25)
(0.0632284 0.0138468 2.52559e-23)
(0.0599189 0.0158693 -1.7386e-21)
(0.0561767 0.0181831 3.51823e-21)
(0.0519353 0.0207533 -1.83584e-21)
(0.0471216 0.0234675 1.90639e-21)
(0.0416582 0.0260856 -1.9958e-21)
(0.0354699 0.0281689 -3.97694e-21)
(0.0284956 0.0289874 8.11499e-21)
(0.0207299 0.0274118 -4.109e-21)
(0.0123515 0.0218174 0)
(0.00385519 0.00990749 -3.85679e-21)
(0.0951978 0.000787967 -9.30221e-24)
(0.095021 0.000831806 -3.79752e-23)
(0.0948352 0.000878683 1.15086e-22)
(0.0946396 0.000928777 -1.5534e-22)
(0.0944337 0.00098225 6.84042e-23)
(0.0942167 0.00103923 1.00236e-23)
(0.0939879 0.00109981 -1.01866e-23)
(0.0937467 0.00116405 -2.49205e-26)
(0.0934922 0.00123201 1.05358e-23)
(0.0932237 0.0013038 -2.1421e-23)
(0.0929402 0.00137961 -3.5226e-22)
(0.092641 0.00145977 3.63544e-22)
(0.092325 0.00154484 -3.54786e-22)
(0.0919912 0.00163563 3.66243e-22)
(0.0916383 0.00173324 0)
(0.091265 0.00183909 -2.53617e-26)
(0.0908695 0.00195487 0)
(0.0904499 0.00208251 -3.94986e-22)
(0.0900041 0.00222415 4.20651e-22)
(0.0895293 0.00238215 -1.32135e-23)
(0.0890226 0.00255899 -8.90469e-22)
(0.0884805 0.00275731 8.77324e-22)
(0.0878992 0.00297991 -1.42663e-23)
(0.0872743 0.00322986 0)
(0.086601 0.00351056 0)
(0.0858738 0.00382592 -1.02279e-21)
(0.0850866 0.00418051 9.91725e-22)
(0.0842326 0.00457978 0)
(0.0833042 0.00503034 -3.40418e-23)
(0.0822929 0.00554016 0)
(0.0811889 0.00611904 1.82374e-23)
(0.0799814 0.00677892 -1.88102e-23)
(0.078658 0.00753448 -1.95963e-23)
(0.0772048 0.00840371 2.02193e-23)
(0.075606 0.00940863 1.33205e-21)
(0.0738439 0.010576 -1.37481e-21)
(0.0718985 0.0119377 2.99551e-21)
(0.0697472 0.0135308 -2.99748e-21)
(0.0673647 0.0153958 3.19128e-21)
(0.0647216 0.0175725 9.76419e-23)
(0.0617833 0.0200906 -3.36887e-21)
(0.058507 0.022953 -2.69999e-23)
(0.0548376 0.0261087 1.31412e-24)
(0.0506997 0.0294099 1.75366e-24)
(0.0459869 0.0325526 2.33292e-24)
(0.0405416 0.0349966 -5.88149e-23)
(0.0341332 0.0358545 -2.69822e-23)
(0.0264732 0.0337376 -2.56048e-23)
(0.0172407 0.0266283 0)
(0.00569702 0.0119351 8.10873e-24)
(0.0952415 0.000956693 -4.61611e-23)
(0.0950662 0.0010097 2.77674e-23)
(0.0948822 0.00106639 9.49315e-24)
(0.0946888 0.00112698 1.45631e-22)
(0.0944853 0.00119168 -1.4569e-22)
(0.0942711 0.00126066 1.50583e-22)
(0.0940455 0.00133404 -3.34189e-22)
(0.0938077 0.00141192 4.75527e-22)
(0.093557 0.0014944 -3.33037e-22)
(0.0932926 0.00158163 -3.45174e-22)
(0.0930135 0.00167388 -1.71703e-23)
(0.0927188 0.00177158 7.0049e-22)
(0.0924076 0.00187544 -7.37543e-22)
(0.0920787 0.00198645 3.43937e-22)
(0.0917309 0.00210597 3.70876e-22)
(0.0913628 0.00223571 3.87435e-22)
(0.0909729 0.0023777 -2.95801e-23)
(0.0905593 0.00253426 7.8965e-22)
(0.09012 0.00270795 8.14987e-22)
(0.0896525 0.00290159 2.03851e-23)
(0.0891541 0.00311817 -8.63821e-22)
(0.0886217 0.00336084 0)
(0.088052 0.00363299 0)
(0.0874408 0.00393833 -9.62497e-22)
(0.086784 0.00428101 9.48672e-22)
(0.0860766 0.00466577 1.02204e-21)
(0.0853132 0.0050982 -1.02356e-21)
(0.084488 0.00558495 0)
(0.0835944 0.00613399 1.14346e-21)
(0.0826251 0.00675499 -1.14567e-21)
(0.0815721 0.0074597 0)
(0.0804266 0.00826241 -2.48299e-21)
(0.0791791 0.00918047 2.50598e-21)
(0.0778192 0.010235 -2.07295e-23)
(0.0763361 0.0114515 -2.77747e-21)
(0.0747183 0.0128604 2.80322e-21)
(0.0729542 0.0144975 0)
(0.0710323 0.0164031 3.15919e-21)
(0.0689414 0.0186199 -3.13974e-21)
(0.0666693 0.0211869 2.55184e-23)
(0.0642015 0.0241279 3.48437e-21)
(0.0615154 0.0274324 -6.99814e-21)
(0.0585713 0.0310234 1.30897e-23)
(0.0552958 0.034711 3.29301e-23)
(0.0515544 0.0381299 3.64756e-21)
(0.0471041 0.0406587 4.06578e-24)
(0.0415259 0.0413059 -3.12841e-21)
(0.0341688 0.0385289 3.20706e-21)
(0.0239609 0.0300879 0)
(0.00828079 0.0132581 2.80347e-23)
(0.0952932 0.00112152 9.09353e-24)
(0.09512 0.00118315 8.37247e-23)
(0.0949385 0.00124913 -7.46635e-23)
(0.0947478 0.00131971 9.57737e-24)
(0.0945476 0.00139514 1.47128e-22)
(0.094337 0.00147562 -1.47366e-22)
(0.0941154 0.00156131 -3.15418e-22)
(0.093882 0.00165235 4.86857e-24)
(0.0936361 0.00174889 -5.70515e-24)
(0.0933768 0.00185115 3.49986e-22)
(0.0931033 0.00195949 -3.41549e-22)
(0.0928147 0.00207446 7.24602e-22)
(0.0925098 0.00219691 -3.60975e-22)
(0.0921876 0.00232806 1.16601e-23)
(0.0918468 0.00246951 1.19274e-23)
(0.0914863 0.00262328 7.88553e-22)
(0.0911045 0.00279176 -4.88645e-24)
(0.0906996 0.00297765 8.22862e-22)
(0.0902699 0.00318393 1.31458e-23)
(0.0898132 0.00341388 0)
(0.0893271 0.00367098 0)
(0.088809 0.00395893 -9.22492e-22)
(0.0882558 0.00428172 9.24823e-22)
(0.0876642 0.00464374 0)
(0.0870304 0.00504991 1.55565e-23)
(0.0863504 0.00550592 0)
(0.0856198 0.00601843 -1.07467e-21)
(0.0848337 0.00659537 2.18819e-21)
(0.0839869 0.00724626 -1.1136e-21)
(0.0830737 0.00798256 -2.36151e-21)
(0.0820884 0.00881811 -8.03435e-23)
(0.0810246 0.00976961 -8.5071e-23)
(0.0798762 0.0108572 -8.97782e-23)
(0.0786372 0.012105 2.65947e-21)
(0.0773022 0.0135416 2.85857e-21)
(0.075867 0.0152005 -2.86537e-21)
(0.0743292 0.0171195 0)
(0.0726894 0.0193391 3.1839e-21)
(0.0709513 0.0218983 -3.19129e-21)
(0.0691213 0.0248265 -3.40174e-21)
(0.0672065 0.028128 3.38302e-21)
(0.0652071 0.0317587 2.77319e-23)
(0.0631035 0.0355902 3.42172e-21)
(0.060832 0.0393619 -1.07119e-22)
(0.0582455 0.0426226 -3.38504e-21)
(0.0550437 0.04467 2.58401e-23)
(0.0506727 0.0444817 0)
(0.0442052 0.0405769 -2.04238e-23)
(0.0336483 0.0309375 -9.18531e-22)
(0.0133573 0.0131936 4.65042e-22)
(-0.000244963 0.000282649 0)
(-0.00085293 0.000378275 2.90458e-22)
(-0.00141382 0.000202118 -2.90893e-22)
(-0.00151642 -0.000109586 -2.73449e-22)
(-0.000983345 -0.000483153 2.7386e-22)
(0.000232471 -0.000865609 -7.90846e-24)
(0.00211523 -0.0012259 0)
(0.00460877 -0.00154636 0)
(0.00763472 -0.00181677 0)
(0.0111018 -0.0020329 0)
(0.0149146 -0.00219462 0)
(0.0189794 -0.0023045 0)
(0.0232083 -0.00236686 0)
(0.0275212 -0.002387 0)
(0.0318475 -0.00237076 0)
(0.0361266 -0.00232407 2.39205e-23)
(0.0403081 -0.0022527 -2.26153e-23)
(0.0443513 -0.00216206 0)
(0.0482247 -0.00205711 0)
(0.0519052 -0.00194229 -6.60879e-24)
(0.0553769 -0.00182148 6.61889e-24)
(0.0586311 -0.00169797 -2.07856e-24)
(0.0616639 -0.00157451 1.11692e-25)
(0.0644764 -0.00145334 0)
(0.0670733 -0.00133623 -1.74574e-26)
(0.069463 -0.00122453 0)
(0.071655 -0.00111921 0)
(0.073661 -0.0010209 0)
(0.0754937 -0.000929902 -8.36076e-26)
(0.0771662 -0.000846309 0)
(0.0786915 -0.000770007 6.95234e-26)
(0.0800826 -0.000700734 -5.73063e-26)
(0.0813518 -0.00063812 4.31914e-26)
(0.0825109 -0.00058172 -2.23455e-25)
(0.0835706 -0.000531047 2.08136e-25)
(0.0845409 -0.000485597 -5.70377e-26)
(0.085431 -0.00044487 2.2481e-25)
(0.0862491 -0.000408381 -1.83214e-25)
(0.0870025 -0.000375675 -4.70747e-26)
(0.0876978 -0.000346331 6.01887e-26)
(0.0883409 -0.000319968 0)
(0.088937 -0.000296242 8.37711e-26)
(0.0894906 -0.000274849 -4.84279e-25)
(0.0900059 -0.000255521 4.94471e-25)
(0.0904865 -0.000238023 -1.12552e-25)
(0.0909355 -0.000222152 3.66442e-25)
(0.0913559 -0.00020773 -1.18658e-25)
(0.0917501 -0.000194601 -2.70255e-25)
(0.0921206 -0.00018263 1.36331e-25)
(0.0924693 -0.000171696 -1.45102e-25)
(-0.000282582 0.000809527 -1.13948e-21)
(-0.000849812 0.00104786 -1.21728e-21)
(-0.00119387 0.000516966 1.19951e-21)
(-0.00102967 -0.000401067 -5.42653e-22)
(-0.000236809 -0.00150112 5.44294e-22)
(0.00121106 -0.00262209 7.9632e-24)
(0.00328086 -0.00368087 -1.51022e-23)
(0.0059124 -0.00462305 -4.23398e-22)
(0.00902944 -0.00541826 4.10183e-22)
(0.0125446 -0.0060541 -1.0907e-23)
(0.0163679 -0.00653003 -9.48942e-24)
(0.0204119 -0.00685345 2.3298e-22)
(0.0245949 -0.00703686 -2.3329e-22)
(0.0288428 -0.00709586 -1.59247e-22)
(0.0330902 -0.00704748 3.13055e-23)
(0.0372815 -0.00690915 1.28325e-22)
(0.04137 -0.00669782 -1.34818e-24)
(0.0453186 -0.00642945 -2.23886e-24)
(0.0490984 -0.00611866 0)
(0.0526882 -0.00577852 0)
(0.056074 -0.00542048 0)
(0.0592478 -0.0050543 -2.15999e-25)
(0.0622067 -0.00468811 5.40767e-24)
(0.0649516 -0.00432862 -6.03447e-24)
(0.0674878 -0.00398108 -1.34241e-24)
(0.0698234 -0.00364944 -2.56575e-25)
(0.0719677 -0.0033366 3.76863e-24)
(0.0739318 -0.00304442 -2.15101e-24)
(0.0757281 -0.00277389 8.38231e-26)
(0.0773691 -0.00252527 1.12483e-25)
(0.0788673 -0.00229824 -6.96751e-26)
(0.0802351 -0.00209203 1.3732e-25)
(0.0814845 -0.00190557 -9.73852e-25)
(0.0826266 -0.00173753 1.52734e-24)
(0.0836719 -0.0015865 -5.23523e-25)
(0.0846299 -0.00145098 -3.05475e-26)
(0.0855095 -0.00132949 1.84819e-26)
(0.0863186 -0.00122061 0)
(0.0870643 -0.00112298 -9.5582e-25)
(0.0877529 -0.00103536 8.35301e-25)
(0.0883903 -0.000956622 1.12127e-24)
(0.0889813 -0.000885743 -1.5406e-24)
(0.0895305 -0.000821821 9.42023e-26)
(0.0900419 -0.00076406 5.55231e-25)
(0.090519 -0.000711763 -9.95303e-25)
(0.090965 -0.000664321 -1.20391e-25)
(0.0913826 -0.000621204 -9.14561e-25)
(0.0917744 -0.000581951 -1.62291e-25)
(0.0921427 -0.000546154 2.65166e-25)
(0.0924893 -0.00051345 4.31062e-25)
(-0.00035027 0.00121288 -1.21186e-21)
(-0.000814764 0.00146494 1.28957e-21)
(-0.000711464 0.000578424 -1.25104e-21)
(-2.939e-05 -0.00089647 -1.85646e-23)
(0.00125902 -0.00264836 -7.00514e-25)
(0.00314371 -0.00444111 -1.01845e-21)
(0.00555746 -0.0061366 1.05195e-21)
(0.00844146 -0.00764538 8.75065e-22)
(0.0117217 -0.00891992 -8.08782e-23)
(0.0153188 -0.00994022 -1.43241e-21)
(0.0191539 -0.0107048 1.26894e-21)
(0.0231516 -0.0112248 -5.75767e-22)
(0.0272421 -0.0115199 -7.418e-24)
(0.0313624 -0.0116144 0)
(0.0354574 -0.0115357 2.85416e-22)
(0.03948 -0.0113113 -6.09624e-23)
(0.0433912 -0.0109686 -2.20669e-22)
(0.0471598 -0.0105331 4.84305e-24)
(0.0507619 -0.0100284 0)
(0.0541801 -0.00947558 0)
(0.0574031 -0.00889319 2.55241e-23)
(0.060425 -0.00829701 -2.47783e-23)
(0.0632436 -0.00770031 -1.00637e-23)
(0.0658613 -0.00711397 1.05842e-23)
(0.0682822 -0.00654673 1.94981e-25)
(0.0705151 -0.00600509 -9.70278e-26)
(0.0725687 -0.00549364 3.11354e-26)
(0.0744533 -0.00501556 2.3828e-24)
(0.0761802 -0.00457253 -2.39501e-24)
(0.0777611 -0.00416504 2.35092e-24)
(0.0792076 -0.00379261 -2.505e-24)
(0.080531 -0.00345408 -8.02154e-26)
(0.0817424 -0.00314769 -8.0341e-25)
(0.0828519 -0.00287138 7.1679e-25)
(0.0838694 -0.00262284 5.09597e-26)
(0.0848037 -0.00239966 8.98681e-25)
(0.085663 -0.00219945 -7.86467e-25)
(0.0864547 -0.0020199 0)
(0.0871854 -0.00185882 -2.3553e-26)
(0.0878611 -0.00171418 0)
(0.0884872 -0.00158413 2.76457e-24)
(0.0890684 -0.00146702 -2.60813e-24)
(0.089609 -0.00136136 2.11934e-25)
(0.0901129 -0.00126585 -1.30595e-26)
(0.0905833 -0.00117935 1.9372e-24)
(0.0910233 -0.00110087 -3.75222e-24)
(0.0914355 -0.00102952 2.05131e-24)
(0.0918225 -0.000964553 -1.13142e-24)
(0.0921864 -0.000905289 8.33451e-25)
(0.0925291 -0.000851114 2.82469e-25)
(-0.000405556 0.00138193 -2.69765e-21)
(-0.000648014 0.00149896 0)
(0.000136804 0.00032787 2.62121e-21)
(0.00156546 -0.00165369 -5.16333e-21)
(0.00352625 -0.0039727 2.55995e-21)
(0.00598208 -0.00633912 1.07039e-21)
(0.00884896 -0.00857231 -1.12391e-21)
(0.0120562 -0.0105621 9.23428e-22)
(0.0155362 -0.012247 -1.76365e-21)
(0.0192232 -0.0135993 8.26845e-22)
(0.0230547 -0.0146153 1.10469e-23)
(0.0269724 -0.0153083 6.85443e-25)
(0.0309229 -0.0157027 7.54509e-24)
(0.0348584 -0.0158301 -3.91262e-22)
(0.0387371 -0.0157254 3.79302e-22)
(0.0425236 -0.0154253 8.93305e-24)
(0.0461884 -0.0149656 -3.34845e-24)
(0.0497084 -0.0143802 1.60134e-22)
(0.053066 -0.0137007 -1.59756e-22)
(0.0562485 -0.0129552 -1.86345e-24)
(0.0592483 -0.0121686 0)
(0.0620616 -0.0113623 2.83804e-25)
(0.0646885 -0.010554 0)
(0.0671307 -0.00975875 5.60229e-25)
(0.0693945 -0.00898836 1.96375e-25)
(0.071486 -0.00825186 9.79461e-26)
(0.0734147 -0.00755561 -4.62275e-24)
(0.0751895 -0.00690395 4.7262e-24)
(0.0768204 -0.00629932 0)
(0.078318 -0.00574251 -3.21595e-26)
(0.0796924 -0.00523302 1.89388e-25)
(0.0809538 -0.00476933 0)
(0.0821119 -0.0043492 -6.90725e-26)
(0.0831758 -0.00396988 -1.64271e-24)
(0.0841542 -0.00362832 4.00292e-24)
(0.0850549 -0.0033213 -5.25435e-24)
(0.0858854 -0.00304563 6.67663e-24)
(0.0866523 -0.00279817 -8.01316e-24)
(0.0873616 -0.00257599 4.31702e-24)
(0.0880187 -0.00237633 2.81955e-24)
(0.0886287 -0.0021967 -2.44541e-24)
(0.0891958 -0.00203484 -2.16564e-25)
(0.0897241 -0.00188874 -3.62939e-24)
(0.090217 -0.00175661 8.00935e-24)
(0.0906777 -0.0016369 -3.90191e-24)
(0.091109 -0.00152823 1.41991e-26)
(0.0915135 -0.00142942 2.68649e-25)
(0.0918935 -0.00133941 -1.13258e-26)
(0.092251 -0.00125727 -2.89295e-25)
(0.092588 -0.00118213 6.04678e-25)
(-0.000324785 0.00125254 -2.33861e-24)
(-4.66919e-05 0.00111566 -2.54991e-23)
(0.00157106 -0.000363031 -2.42055e-23)
(0.00382644 -0.00275722 -2.28098e-23)
(0.00658431 -0.00549523 -4.17117e-23)
(0.0096899 -0.00828202 -1.01412e-24)
(0.0130452 -0.0109209 1.75618e-23)
(0.0165839 -0.0132838 -1.69516e-23)
(0.0202523 -0.0152955 -1.53555e-23)
(0.0240035 -0.0169192 1.5871e-21)
(0.0277953 -0.0181469 -2.21897e-22)