/*--------------------------------*- C++ -*----------------------------------*\
| =========                 |                                                 |
| \\      /  F ield         | OpenFOAM: The Open Source CFD Toolbox           |
|  \\    /   O peration     | Version:  2412                                  |
|   \\  /    A nd           | Website:  www.openfoam.com                      |
|    \\/     M anipulation  |                                                 |
\*---------------------------------------------------------------------------*/
FoamFile
{
    version     2.0;
    format      ascii;
    arch        "LSB;label=32;scalar=64";
    class       volVectorField;
    location    "9.5";
    object      vorticity;
}
// * * * * * * * * * * * * * * * * * * * * * * * * * * * * * * * * * * * * * //

dimensions      [0 0 -1 0 0 0 0];

internalField   nonuniform List<vector> 
63420
(
(0 0 5.22998e-06)
(0 0 1.07638e-05)
(0 0 2.38082e-05)
(0 0 3.30825e-05)
(0 0 2.63031e-05)
(0 0 2.87251e-06)
(0 0 -2.66392e-05)
(0 0 -4.9902e-05)
(0 0 -6.04206e-05)
(0 0 -5.87377e-05)
(0 0 -4.93874e-05)
(0 0 -3.73658e-05)
(0 0 -2.61531e-05)
(0 0 -1.73588e-05)
(0 0 -1.12315e-05)
(0 0 -7.33149e-06)
(0 0 -5.02708e-06)
(0 0 -3.75179e-06)
(0 0 -3.08947e-06)
(0 0 -2.76947e-06)
(0 0 -2.63039e-06)
(0 0 -2.58222e-06)
(0 0 -2.5774e-06)
(0 0 -2.59189e-06)
(0 0 -2.61403e-06)
(0 0 -2.63837e-06)
(0 0 -2.66243e-06)
(0 0 -2.6851e-06)
(0 0 -2.70582e-06)
(0 0 -2.72426e-06)
(0 0 -2.74017e-06)
(0 0 -2.75333e-06)
(0 0 -2.76356e-06)
(0 0 -2.77073e-06)
(0 0 -2.77472e-06)
(0 0 -2.77541e-06)
(0 0 -2.77266e-06)
(0 0 -2.76629e-06)
(0 0 -2.75609e-06)
(0 0 -2.74177e-06)
(0 0 -2.72302e-06)
(0 0 -2.6995e-06)
(0 0 -2.67083e-06)
(0 0 -2.63661e-06)
(0 0 -2.59637e-06)
(0 0 -2.54957e-06)
(0 0 -2.4956e-06)
(0 0 -2.43372e-06)
(0 0 -2.36273e-06)
(0 0 -2.27935e-06)
(0 0 -2.17161e-06)
(0 0 -1.99532e-06)
(0 0 -1.59656e-06)
(0 0 -4.69279e-07)
(0 4.71882e-23 2.96662e-06)
(0 0 1.57083e-05)
(0 0 3.21325e-05)
(0 0 7.09746e-05)
(0 0 9.87934e-05)
(0 0 7.90129e-05)
(0 0 9.69283e-06)
(0 0 -7.78808e-05)
(0 0 -0.000147085)
(0 0 -0.000178554)
(0 0 -0.000173812)
(0 0 -0.000146267)
(0 0 -0.000110734)
(0 0 -7.75476e-05)
(0 0 -5.14999e-05)
(0 0 -3.33416e-05)
(0 0 -2.17784e-05)
(0 0 -1.49419e-05)
(0 0 -1.11554e-05)
(0 0 -9.18664e-06)
(0 0 -8.23397e-06)
(0 0 -7.81912e-06)
(0 0 -7.67514e-06)
(0 0 -7.66077e-06)
(0 0 -7.70454e-06)
(0 0 -7.77159e-06)
(0 0 -7.84548e-06)
(0 0 -7.91861e-06)
(0 0 -7.98752e-06)
(0 0 -8.0505e-06)
(0 0 -8.10661e-06)
(0 0 -8.15514e-06)
(0 0 -8.19555e-06)
(0 0 -8.22737e-06)
(0 0 -8.25016e-06)
(0 0 -8.26348e-06)
(0 0 -8.26688e-06)
(0 0 -8.25987e-06)
(0 0 -8.24188e-06)
(0 0 -8.21226e-06)
(0 0 -8.17027e-06)
(0 0 -8.11505e-06)
(0 0 -8.04561e-06)
(0 0 -7.96082e-06)
(0 0 -7.85938e-06)
(0 0 -7.73977e-06)
(0 0 -7.60025e-06)
(0 0 -7.43884e-06)
(0 0 -7.25321e-06)
(0 0 -7.03972e-06)
(0 0 -6.78874e-06)
(0 0 -6.46561e-06)
(0 0 -5.94237e-06)
(0 0 -4.77244e-06)
(0 0 -1.48463e-06)
(0 4.76569e-23 8.52344e-06)
(0 0 2.62155e-05)
(0 0 5.30766e-05)
(0 0 0.000117043)
(0 0 0.000163583)
(0 0 0.000132481)
(0 0 1.99581e-05)
(0 0 -0.000123148)
(0 0 -0.000236855)
(0 0 -0.000289174)
(0 0 -0.000282289)
(0 0 -0.000237944)
(0 0 -0.000180316)
(0 0 -0.000126336)
(0 0 -8.38981e-05)
(0 0 -5.4281e-05)
(0 0 -3.54051e-05)
(0 0 -2.42375e-05)
(0 0 -1.80482e-05)
(0 0 -1.48281e-05)
(0 0 -1.32688e-05)
(0 0 -1.25892e-05)
(0 0 -1.2353e-05)
(0 0 -1.23292e-05)
(0 0 -1.2401e-05)
(0 0 -1.25111e-05)
(0 0 -1.26327e-05)
(0 0 -1.27533e-05)
(0 0 -1.28671e-05)
(0 0 -1.29712e-05)
(0 0 -1.30642e-05)
(0 0 -1.3145e-05)
(0 0 -1.32128e-05)
(0 0 -1.32666e-05)
(0 0 -1.3306e-05)
(0 0 -1.333e-05)
(0 0 -1.3338e-05)
(0 0 -1.33292e-05)
(0 0 -1.33026e-05)
(0 0 -1.32571e-05)
(0 0 -1.31917e-05)
(0 0 -1.31049e-05)
(0 0 -1.29952e-05)
(0 0 -1.28607e-05)
(0 0 -1.26992e-05)
(0 0 -1.25084e-05)
(0 0 -1.22854e-05)
(0 0 -1.20269e-05)
(0 0 -1.17291e-05)
(0 0 -1.13865e-05)
(0 0 -1.09841e-05)
(0 0 -1.04689e-05)
(0 0 -9.64346e-06)
(0 0 -7.81437e-06)
(0 0 -2.68446e-06)
(0 2.81344e-22 1.29659e-05)
(0 0 3.67665e-05)
(0 0 7.33385e-05)
(0 0 0.000161349)
(0 0 0.000226904)
(0 0 0.000187187)
(0 0 3.57766e-05)
(0 0 -0.000158801)
(0 0 -0.000314705)
(0 0 -0.00038772)
(0 0 -0.000380165)
(0 0 -0.000321259)
(0 0 -0.000243812)
(0 0 -0.000170936)
(0 0 -0.000113493)
(0 0 -7.3335e-05)
(0 0 -4.7709e-05)
(0 0 -3.25327e-05)
(0 0 -2.41146e-05)
(0 0 -1.97313e-05)
(0 0 -1.76068e-05)
(0 0 -1.66797e-05)
(0 0 -1.63568e-05)
(0 0 -1.63237e-05)
(0 0 -1.64211e-05)
(0 0 -1.65713e-05)
(0 0 -1.67375e-05)
(0 0 -1.69026e-05)
(0 0 -1.70588e-05)
(0 0 -1.72022e-05)
(0 0 -1.73308e-05)
(0 0 -1.74431e-05)
(0 0 -1.75381e-05)
(0 0 -1.76147e-05)
(0 0 -1.76719e-05)
(0 0 -1.77088e-05)
(0 0 -1.77244e-05)
(0 0 -1.77176e-05)
(0 0 -1.76871e-05)
(0 0 -1.76317e-05)
(0 0 -1.75496e-05)
(0 0 -1.74391e-05)
(0 0 -1.7298e-05)
(0 0 -1.71241e-05)
(0 0 -1.69143e-05)
(0 0 -1.66654e-05)
(0 0 -1.63735e-05)
(0 0 -1.60345e-05)
(0 0 -1.56432e-05)
(0 0 -1.51926e-05)
(0 0 -1.46647e-05)
(0 0 -1.39945e-05)
(0 0 -1.29382e-05)
(0 0 -1.06306e-05)
(0 0 -4.17656e-06)
(0 -1.84754e-22 1.56032e-05)
(0 0 4.73733e-05)
(0 0 9.26961e-05)
(0 0 0.000203327)
(0 0 0.000288278)
(0 0 0.000243509)
(0 0 5.89073e-05)
(0 0 -0.000181779)
(0 0 -0.000376832)
(0 0 -0.000470331)
(0 0 -0.000464046)
(0 0 -0.000393533)
(0 0 -0.000299269)
(0 0 -0.000209996)
(0 0 -0.000139376)
(0 0 -8.98886e-05)
(0 0 -5.82542e-05)
(0 0 -3.94936e-05)
(0 0 -2.9075e-05)
(0 0 -2.36437e-05)
(0 0 -2.10078e-05)
(0 0 -1.98551e-05)
(0 0 -1.94516e-05)
(0 0 -1.9408e-05)
(0 0 -1.95269e-05)
(0 0 -1.97118e-05)
(0 0 -1.99171e-05)
(0 0 -2.01217e-05)
(0 0 -2.03157e-05)
(0 0 -2.04945e-05)
(0 0 -2.06555e-05)
(0 0 -2.07969e-05)
(0 0 -2.09174e-05)
(0 0 -2.10159e-05)
(0 0 -2.10911e-05)
(0 0 -2.11419e-05)
(0 0 -2.1167e-05)
(0 0 -2.11652e-05)
(0 0 -2.11349e-05)
(0 0 -2.10744e-05)
(0 0 -2.09819e-05)
(0 0 -2.08551e-05)
(0 0 -2.06915e-05)
(0 0 -2.04882e-05)
(0 0 -2.02416e-05)
(0 0 -1.99478e-05)
(0 0 -1.9602e-05)
(0 0 -1.91992e-05)
(0 0 -1.87336e-05)
(0 0 -1.81973e-05)
(0 0 -1.75712e-05)
(0 0 -1.67873e-05)
(0 0 -1.55861e-05)
(0 0 -1.30331e-05)
(0 0 -5.94927e-06)
(0 9.12102e-23 1.59209e-05)
(0 0 5.80412e-05)
(0 0 0.000110979)
(0 0 0.000242538)
(0 0 0.000347328)
(0 0 0.00030172)
(0 0 9.06698e-05)
(0 0 -0.000189772)
(0 0 -0.000420355)
(0 0 -0.000534083)
(0 0 -0.000531359)
(0 0 -0.000452733)
(0 0 -0.000345203)
(0 0 -0.000242493)
(0 0 -0.000160859)
(0 0 -0.000103476)
(0 0 -6.67099e-05)
(0 0 -4.48669e-05)
(0 0 -3.27172e-05)
(0 0 -2.63734e-05)
(0 0 -2.32883e-05)
(0 0 -2.19346e-05)
(0 0 -2.14565e-05)
(0 0 -2.13997e-05)
(0 0 -2.15335e-05)
(0 0 -2.17454e-05)
(0 0 -2.19819e-05)
(0 0 -2.22183e-05)
(0 0 -2.24431e-05)
(0 0 -2.26509e-05)
(0 0 -2.28385e-05)
(0 0 -2.30042e-05)
(0 0 -2.31464e-05)
(0 0 -2.32636e-05)
(0 0 -2.33546e-05)
(0 0 -2.34181e-05)
(0 0 -2.34526e-05)
(0 0 -2.34566e-05)
(0 0 -2.34284e-05)
(0 0 -2.3366e-05)
(0 0 -2.32674e-05)
(0 0 -2.31299e-05)
(0 0 -2.29507e-05)
(0 0 -2.27263e-05)
(0 0 -2.24529e-05)
(0 0 -2.21258e-05)
(0 0 -2.17398e-05)
(0 0 -2.1289e-05)
(0 0 -2.07672e-05)
(0 0 -2.01664e-05)
(0 0 -1.94692e-05)
(0 0 -1.86136e-05)
(0 0 -1.73605e-05)
(0 0 -1.48337e-05)
(0 0 -7.98078e-06)
(0 4.50041e-22 1.34311e-05)
(0 0 6.87729e-05)
(0 0 0.000128078)
(0 0 0.000278692)
(0 0 0.000403764)
(0 0 0.000361895)
(0 0 0.000131767)
(0 0 -0.000181456)
(0 0 -0.000443578)
(0 0 -0.000577223)
(0 0 -0.000580546)
(0 0 -0.000497618)
(0 0 -0.000380707)
(0 0 -0.000267802)
(0 0 -0.000177524)
(0 0 -0.000113814)
(0 0 -7.28789e-05)
(0 0 -4.85028e-05)
(0 0 -3.49165e-05)
(0 0 -2.78075e-05)
(0 0 -2.43405e-05)
(0 0 -2.28115e-05)
(0 0 -2.2264e-05)
(0 0 -2.21896e-05)
(0 0 -2.23301e-05)
(0 0 -2.25591e-05)
(0 0 -2.28167e-05)
(0 0 -2.30752e-05)
(0 0 -2.33218e-05)
(0 0 -2.35502e-05)
(0 0 -2.37571e-05)
(0 0 -2.39404e-05)
(0 0 -2.40984e-05)
(0 0 -2.42297e-05)
(0 0 -2.43329e-05)
(0 0 -2.44063e-05)
(0 0 -2.44486e-05)
(0 0 -2.4458e-05)
(0 0 -2.44326e-05)
(0 0 -2.43704e-05)
(0 0 -2.4269e-05)
(0 0 -2.41255e-05)
(0 0 -2.39368e-05)
(0 0 -2.36991e-05)
(0 0 -2.34083e-05)
(0 0 -2.30591e-05)
(0 0 -2.2646e-05)
(0 0 -2.21627e-05)
(0 0 -2.16028e-05)
(0 0 -2.09589e-05)
(0 0 -2.02172e-05)
(0 0 -1.93302e-05)
(0 0 -1.81143e-05)
(0 0 -1.58961e-05)
(0 0 -1.02971e-05)
(0 -8.80682e-23 7.42865e-06)
(-1.5362e-23 8.00985e-21 1.09156e-06)
(-1.52634e-22 7.87398e-21 1.93703e-07)
(3.58439e-23 -2.04699e-22 -1.20511e-06)
(3.42147e-23 -2.35223e-20 -3.27596e-06)
(-9.64017e-23 8.04457e-21 -6.1985e-06)
(3.8108e-22 7.90119e-21 -1.01484e-05)
(-8.24382e-22 2.30238e-20 -1.52687e-05)
(3.21544e-22 -2.34097e-20 -2.16238e-05)
(6.4954e-22 -7.52685e-21 -2.9165e-05)
(-9.32704e-22 -3.81676e-24 -3.7698e-05)
(-9.34778e-22 -7.55037e-21 -4.68623e-05)
(8.19464e-22 7.16246e-21 -5.61375e-05)
(5.70865e-22 -5.91234e-20 -6.48771e-05)
(-1.04508e-21 1.27021e-19 -7.23717e-05)
(3.50011e-22 -6.8398e-20 -7.7937e-05)
(-1.29111e-21 -5.15855e-20 -8.10585e-05)
(2.41699e-21 -6.56704e-20 -8.14065e-05)
(-1.91277e-21 7.76203e-21 -7.90005e-05)
(-2.02236e-22 -7.23312e-21 -7.39548e-05)
(8.21751e-23 7.24512e-21 -6.68111e-05)
(-3.24763e-24 -1.32834e-22 -5.82703e-05)
(-7.77911e-23 -6.99634e-21 -4.92242e-05)
(-2.0657e-21 7.06691e-21 -4.06031e-05)
(4.33813e-21 1.32976e-23 -3.3305e-05)
(1.27429e-21 6.87308e-21 -2.81254e-05)
(-3.37903e-21 -5.50181e-24 -2.57156e-05)
(4.87126e-21 8.02601e-21 -2.6569e-05)
(-5.61875e-21 1.0395e-19 -3.10366e-05)
(6.15164e-22 -1.11655e-19 -3.93652e-05)
(-2.11166e-21 1.02243e-19 -5.17547e-05)
(2.05495e-21 -1.03427e-19 -6.84373e-05)
(5.00321e-23 1.3835e-21 -8.97879e-05)
(-6.52322e-23 -1.70137e-21 -0.000116492)
(2.75496e-21 -9.83905e-20 -0.000149839)
(-8.84516e-21 9.55351e-20 -0.000192259)
(-3.3212e-22 -1.59928e-21 -0.000248314)
(6.4207e-21 1.40427e-23 -0.000326514)
(6.99576e-21 1.53004e-23 -0.000442494)
(-6.97338e-21 -1.52515e-23 -0.000624303)
(-2.31705e-22 -5.06761e-25 -0.000920672)
(-2.42001e-22 -5.29281e-25 -0.001413)
(-8.35263e-21 -1.8268e-23 -0.00223113)
(8.06217e-21 1.76328e-23 -0.00357146)
(-2.67078e-22 1.59226e-22 -0.00571369)
(-2.11052e-23 8.24135e-21 -0.00902906)
(-2.58874e-20 5.33148e-20 -0.0139698)
(2.49293e-20 -7.0321e-20 -0.0210253)
(-5.90537e-21 -1.00707e-20 -0.0306284)
(6.48901e-21 2.74513e-20 -0.0430055)
(-2.15145e-20 -6.00738e-21 -0.0578753)
(-2.65347e-22 8.02529e-21 3.23969e-06)
(-1.01353e-22 1.57838e-20 5.31379e-07)
(3.24283e-22 7.67666e-21 -3.70911e-06)
(-9.10786e-22 -7.88852e-21 -9.98989e-06)
(1.68926e-21 7.51737e-21 -1.88454e-05)
(-5.45422e-22 -5.39218e-20 -3.07946e-05)
(-1.81676e-22 8.56685e-20 -4.62495e-05)
(-6.20484e-23 -8.97068e-21 -6.54077e-05)
(2.20151e-21 -9.86763e-20 -8.81368e-05)
(-2.26391e-21 1.39431e-19 -0.000113874)
(-7.73285e-22 1.27356e-19 -0.00014157)
(5.616e-22 -1.14666e-19 -0.000169702)
(-4.06999e-22 7.63985e-22 -0.000196378)
(2.89823e-21 -7.30109e-21 -0.000219517)
(-2.23724e-21 2.43725e-20 -0.000237132)
(-5.90904e-21 2.41568e-19 -0.000247658)
(1.40804e-21 -2.27362e-19 -0.00025034)
(-5.48374e-21 2.43719e-19 -0.000244895)
(-2.73594e-22 1.96789e-20 -0.000232002)
(-3.97177e-21 -7.40911e-21 -0.00021297)
(4.19098e-21 1.49895e-22 -0.000190032)
(-4.19329e-21 9.26416e-21 -0.00016583)
(1.45447e-21 2.12494e-19 -0.000143114)
(5.27737e-21 -4.50494e-19 -0.000124544)
(4.19075e-21 -2.15476e-19 -0.000112491)
(-6.35337e-21 4.36154e-19 -0.000108909)
(2.81995e-21 -4.35882e-19 -0.000115301)
(-1.06672e-21 4.47361e-19 -0.000132761)
(3.40092e-21 1.39246e-21 -0.000162091)
(-3.83907e-21 -1.00583e-22 -0.000203971)
(-1.28985e-21 -2.82103e-24 -0.000259197)
(0 0 -0.000329003)
(1.90887e-22 9.90832e-23 -0.00041558)
(1.14336e-20 1.27159e-20 -0.000522952)
(-1.50751e-20 3.69161e-19 -0.000658612)
(-1.62748e-20 -2.43547e-20 -0.000836539)
(1.79791e-20 -3.64876e-19 -0.00108272)
(2.61814e-20 -3.16278e-19 -0.00144478)
(-8.31499e-21 3.38104e-19 -0.0020081)
(-3.2382e-20 2.19334e-21 -0.00292076)
(3.18029e-20 1.80345e-20 -0.00442982)
(-4.25538e-20 2.43493e-19 -0.00692867)
(2.24033e-20 -2.53413e-19 -0.0110115)
(-1.88734e-20 1.53246e-20 -0.0175232)
(2.09724e-20 8.16727e-21 -0.0275836)
(-6.23394e-20 1.19194e-19 -0.0425559)
(6.22839e-20 -1.16642e-19 -0.063911)
(-9.6909e-20 8.76709e-20 -0.0929315)
(9.35059e-20 -9.79009e-20 -0.130225)
(-1.98438e-20 -6.73597e-22 -0.173485)
(-5.44649e-24 4.75193e-20 5.2055e-06)
(-7.92624e-23 1.50068e-20 5.57003e-07)
(3.4983e-22 -6.22273e-20 -6.75325e-06)
(-7.29085e-22 1.23852e-19 -1.75459e-05)
(1.62223e-21 -2.65279e-19 -3.26817e-05)
(5.15703e-22 1.26227e-19 -5.29893e-05)
(-2.54775e-21 -9.0733e-22 -7.91357e-05)
(1.61314e-21 -1.7222e-20 -0.000111458)
(1.277e-21 -2.59089e-19 -0.000149774)
(1.03267e-21 2.47015e-19 -0.000193214)
(-8.93678e-22 -1.69536e-21 -0.000240133)
(-4.37796e-21 -1.60252e-23 -0.000288124)
(6.9538e-21 -1.9245e-21 -0.000334188)
(-4.5094e-21 -2.53159e-19 -0.000375018)
(5.7191e-21 2.30311e-19 -0.000407448)
(-1.10402e-20 4.57641e-19 -0.000429058)
(-5.14953e-21 -1.24536e-20 -0.000438524)
(-3.96218e-21 4.71194e-19 -0.000435678)
(3.98395e-22 -1.43131e-20 -0.000421324)
(-1.17081e-20 4.5838e-19 -0.000397784)
(1.15805e-20 -4.7618e-19 -0.00036864)
(-8.23958e-21 4.55474e-19 -0.000338183)
(1.14391e-21 -4.7388e-19 -0.000310891)
(5.38056e-21 -9.3459e-21 -0.000291118)
(-2.641e-21 1.39138e-20 -0.00028278)
(5.70176e-21 -8.86494e-21 -0.000289159)
(-1.80598e-20 4.29e-19 -0.00031285)
(1.60438e-20 -4.57583e-19 -0.000355834)
(1.74951e-20 -4.25717e-19 -0.000419671)
(-1.41179e-20 4.27999e-19 -0.000505778)
(-1.12575e-21 -5.37429e-21 -0.000615813)
(1.16635e-20 -1.26241e-22 -0.000752225)
(-1.34167e-20 -2.55862e-20 -0.000919108)
(5.14967e-20 -7.83053e-19 -0.0011237)
(1.72328e-20 5.70075e-20 -0.00137915)
(-6.9172e-20 7.38591e-19 -0.00170967)
(4.13425e-21 -1.2862e-20 -0.00215997)
(-1.18798e-20 -5.25507e-21 -0.00281172)
(1.10327e-19 -6.24462e-19 -0.00381094)
(-2.04875e-19 1.22843e-18 -0.0054105)
(2.0923e-19 -1.2243e-18 -0.00803133)
(7.52348e-20 8.75677e-20 -0.0123421)
(-1.6051e-19 5.38492e-19 -0.0193505)
(-1.70275e-19 3.73476e-19 -0.0304866)
(1.6057e-19 -4.43159e-19 -0.0476446)
(-2.35543e-20 2.05739e-20 -0.0731313)
(5.82321e-20 -1.84126e-20 -0.109436)
(1.74688e-19 -1.08749e-19 -0.158689)
(-1.89105e-19 1.69719e-19 -0.221707)
(-2.68442e-20 -4.34934e-20 -0.289809)
(3.9285e-22 -3.13295e-20 6.76626e-06)
(-3.69461e-22 1.58555e-20 -1.76997e-07)
(7.27599e-22 -1.79845e-22 -1.11113e-05)
(-6.61044e-22 -1.5599e-20 -2.70919e-05)
(-1.0135e-21 -1.51312e-21 -4.92301e-05)
(3.20539e-21 -2.44861e-19 -7.86144e-05)
(-4.36276e-21 4.63968e-19 -0.00011615)
(2.09425e-21 -2.4996e-19 -0.000162331)
(-1.88597e-21 1.50702e-20 -0.00021698)
(4.67801e-21 -2.73747e-19 -0.000279028)
(-5.75857e-21 2.50039e-19 -0.000346377)
(-3.47549e-21 4.76984e-19 -0.000415933)
(9.56729e-21 -9.65704e-19 -0.000483808)
(-1.17071e-20 9.65148e-19 -0.000545707)
(1.59513e-20 -9.6105e-19 -0.000597511)
(-9.62764e-21 9.53267e-19 -0.000636076)
(-9.14925e-21 4.84597e-19 -0.000659795)
(-7.25925e-22 -3.93708e-21 -0.000668408)
(4.70653e-21 4.08263e-21 -0.000663125)
(-6.42696e-21 4.48237e-19 -0.000647067)
(-3.63714e-21 -4.70977e-19 -0.000625079)
(1.54304e-20 1.32946e-20 -0.000602968)
(-3.13661e-20 9.0598e-19 -0.000586822)
(2.29041e-20 -9.09439e-19 -0.000582619)
(2.31464e-21 -5.22338e-21 -0.000595817)
(-1.01852e-20 -8.90803e-23 -0.000631109)
(1.53802e-20 -1.37834e-20 -0.000692366)
(-5.02202e-21 1.28787e-22 -0.000782741)
(-5.53584e-21 -6.00699e-23 -0.000904933)
(5.25273e-21 2.04314e-22 -0.00106157)
(-3.80396e-21 1.23933e-21 -0.00125572)
(6.09353e-20 -8.10763e-19 -0.0014917)
(-5.47872e-20 8.34264e-19 -0.00177621)
(-1.67229e-20 2.42615e-23 -0.0021205)
(1.94105e-20 -1.03792e-20 -0.00254432)
(-9.74859e-20 7.48686e-19 -0.00308333)
(1.15033e-19 -7.52411e-19 -0.00380269)
(-2.39123e-20 2.43781e-21 -0.00482081)
(1.68622e-20 -8.22771e-23 -0.00634888)
(4.00743e-20 6.94635e-21 -0.00875218)
(-2.5406e-19 5.67341e-19 -0.0126378)
(3.73794e-19 -1.1525e-18 -0.0189688)
(-1.82466e-19 5.84897e-19 -0.0291947)
(2.70906e-19 -4.50261e-19 -0.0453731)
(-2.6168e-19 5.31201e-19 -0.0702391)
(-6.19477e-19 5.50688e-19 -0.107152)
(1.17241e-18 -1.16973e-18 -0.159787)
(-5.7578e-19 5.92022e-19 -0.231292)
(1.99937e-20 -2.36421e-21 -0.322507)
(4.84622e-21 -3.71772e-20 -0.410277)
(-7.54924e-22 1.59415e-20 7.67363e-06)
(-2.15702e-22 6.09594e-20 -2.43685e-06)
(1.84981e-21 -1.85227e-19 -1.81767e-05)
(-1.07313e-21 2.48694e-19 -4.06351e-05)
(-4.16929e-22 -1.10196e-19 -7.10569e-05)
(9.95124e-23 -1.4696e-20 -0.000110741)
(-4.76893e-22 1.55316e-20 -0.000160827)
(3.16883e-21 -1.95793e-22 -0.000222003)
(-3.04048e-21 -1.5179e-20 -0.000294186)
(-5.43818e-21 3.41931e-20 -0.000376246)
(-6.35629e-21 4.8518e-19 -0.00046584)
(1.83086e-20 -5.04415e-19 -0.000559434)
(-2.27086e-20 4.70875e-19 -0.000652548)
(1.86882e-20 -4.89933e-19 -0.000740208)
(-3.14151e-21 3.55244e-21 -0.000817637)
(1.14655e-20 4.98893e-23 -0.000881218)
(4.36611e-21 3.8771e-21 -0.000929194)
(-3.79581e-21 4.58512e-19 -0.000961413)
(1.92982e-20 -4.96423e-19 -0.000979431)
(6.66239e-21 2.76462e-20 -0.000987147)
(-4.33673e-20 9.4721e-19 -0.000990578)
(2.60543e-20 -9.5039e-19 -0.00099693)
(1.06686e-20 2.31983e-20 -0.00101382)
(-1.8804e-20 -2.43058e-22 -0.00104883)
(1.23045e-20 1.00392e-20 -0.00110905)
(-3.51171e-20 9.1406e-19 -0.0012008)
(2.81898e-20 -9.05918e-19 -0.00132957)
(2.95554e-21 1.00236e-20 -0.0015002)
(1.0125e-20 2.78182e-20 -0.00171716)
(-1.19949e-20 -5.72752e-22 -0.00198506)
(1.14389e-21 -1.33318e-20 -0.00230932)
(-3.88238e-20 1.35498e-20 -0.00269709)
(3.67196e-20 1.29274e-20 -0.00315883)
(-3.38005e-21 -2.61607e-20 -0.00371102)
(7.91777e-20 -7.60809e-19 -0.0043813)
(-6.96063e-20 7.84084e-19 -0.00521815)
(2.6622e-19 -1.51381e-18 -0.00630879)
(-2.42627e-19 1.52865e-18 -0.00781062)
(3.04482e-19 -1.43626e-18 -0.0100037)
(7.55724e-20 1.3479e-19 -0.0133725)
(-3.52413e-19 1.37097e-18 -0.0187229)
(-1.27359e-19 -2.3464e-20 -0.0273354)
(1.73113e-20 3.86846e-22 -0.0411416)
(-1.94754e-20 5.73208e-22 -0.0628986)
(5.74764e-20 1.74705e-21 -0.0963183)
(2.78743e-20 1.43223e-20 -0.146087)
(-1.20064e-19 5.4254e-21 -0.217608)
(6.83967e-20 5.2842e-21 -0.315906)
(-1.75706e-22 -3.29849e-22 -0.442373)
(3.82468e-20 6.81059e-22 -0.545832)
(-6.27473e-22 7.67621e-20 7.41227e-06)
(1.66305e-21 -4.68356e-20 -7.92091e-06)
(-1.7746e-21 -1.65574e-20 -3.07626e-05)
(4.52991e-21 -2.29466e-19 -6.18525e-05)
(-2.03051e-21 2.31412e-19 -0.000102548)
(1.73695e-21 -2.29016e-19 -0.000154371)
(-1.06114e-20 5.0511e-19 -0.000218736)
(1.0831e-20 -7.07758e-19 -0.000296599)
(-6.91072e-21 5.00817e-19 -0.000388092)
(-5.16446e-21 4.88063e-19 -0.000492201)
(-2.18611e-21 3.76683e-21 -0.000606576)
(2.32573e-20 -9.59151e-19 -0.000727552)
(-1.97501e-20 9.98862e-19 -0.000850406)
(4.11335e-21 -4.70313e-19 -0.000969862)
(1.1109e-20 -4.72596e-19 -0.00108084)
(2.1572e-20 -4.65271e-19 -0.00117952)
(-2.99862e-21 7.03909e-21 -0.00126421)
(3.62984e-20 -9.65367e-19 -0.00133512)
(2.66731e-20 -9.27314e-19 -0.00139415)
(6.55349e-21 2.14005e-20 -0.00144599)
(-2.31412e-20 9.63912e-19 -0.00149781)
(-2.09761e-20 -8.42349e-21 -0.00155817)
(1.28056e-20 9.31963e-21 -0.00163622)
(-4.7215e-20 9.35569e-19 -0.00174128)
(3.73809e-20 -9.51058e-19 -0.00188233)
(6.97795e-20 -9.1406e-19 -0.00206774)
(-7.10484e-20 9.44858e-19 -0.00230525)
(1.57007e-20 -2.08483e-20 -0.00260216)
(6.38074e-20 -9.13871e-19 -0.00296574)
(-9.26972e-20 9.37665e-19 -0.00340381)
(4.55798e-21 1.28903e-20 -0.0039255)
(-2.01176e-19 1.72161e-18 -0.0045424)
(1.80307e-19 -1.78709e-18 -0.00527042)
(5.07469e-20 6.45459e-20 -0.00613297)
(-2.61971e-19 1.63537e-18 -0.00716718)
(2.38512e-19 -1.70616e-18 -0.00843558)
(-3.31162e-20 -3.56318e-21 -0.0100479)
(4.74026e-19 -1.54431e-18 -0.0122002)
(-4.42536e-19 1.59593e-18 -0.0152402)
(-7.00115e-20 -7.60484e-20 -0.0197714)
(6.92506e-19 -1.35528e-18 -0.0268033)
(-1.21507e-18 2.80149e-18 -0.0379503)
(-7.26245e-20 -1.588e-19 -0.0556681)
(-9.75733e-20 -1.23827e-19 -0.0835024)
(7.98026e-19 -1.22887e-18 -0.12633)
(4.19189e-20 6.68154e-20 -0.190606)
(-9.19417e-19 8.23595e-19 -0.284623)
(9.01362e-19 -9.05849e-19 -0.418212)
(1.03452e-20 3.07282e-20 -0.598253)
(1.00502e-20 -2.92523e-21 -0.723435)
(6.12067e-22 -1.60219e-20 5.22962e-06)
(1.50775e-21 -1.36385e-19 -2.05424e-05)
(-1.66232e-21 1.23062e-19 -5.39824e-05)
(-1.36357e-21 -1.74123e-20 -9.64025e-05)
(5.12299e-21 -2.28098e-19 -0.000149459)
(-4.68976e-21 2.34836e-19 -0.000215048)
(-5.04496e-21 4.74192e-19 -0.000294904)
(-5.33235e-21 -1.95957e-20 -0.000390296)
(2.38128e-21 -4.59773e-21 -0.000501641)
(1.38971e-20 -5.05868e-19 -0.000628163)
(-1.09977e-20 4.73588e-19 -0.000767691)
(1.56537e-20 -1.00234e-18 -0.000916663)
(-2.77043e-21 5.01356e-19 -0.0010704)
(-3.86715e-21 -1.89867e-20 -0.00122363)
(-5.14239e-21 -2.28181e-20 -0.00137124)
(2.56243e-20 -9.85056e-19 -0.00150933)
(-1.38583e-21 -1.99747e-20 -0.00163626)
(2.40033e-20 -1.0038e-18 -0.00175251)
(-5.71463e-21 -7.56384e-21 -0.00186038)
(-1.74279e-22 1.24577e-22 -0.00196488)
(1.19449e-20 8.80036e-21 -0.00207378)
(-4.90418e-20 9.68081e-19 -0.00219629)
(4.30331e-20 -9.89342e-19 -0.00234234)
(1.33237e-20 8.70088e-21 -0.00252206)
(-9.18323e-21 -1.51876e-20 -0.00274525)
(-6.43449e-21 1.03306e-20 -0.00302104)
(-6.98571e-20 9.37589e-19 -0.0033578)
(1.50975e-19 -1.91451e-18 -0.00376327)
(-7.10432e-20 9.99762e-19 -0.00424478)
(-1.83709e-19 1.85421e-18 -0.00480972)
(-3.11887e-20 -4.51071e-20 -0.00546597)
(3.35919e-21 -2.51845e-20 -0.00622272)
(-6.83605e-20 -5.36703e-20 -0.00709176)
(2.51395e-19 -1.85946e-18 -0.0080901)
(3.96064e-19 -1.72393e-18 -0.00924545)
(-3.51256e-19 1.81083e-18 -0.0106076)
(-3.56114e-20 -5.76064e-20 -0.0122707)
(4.71451e-19 -1.65581e-18 -0.0144154)
(-4.12709e-19 1.75563e-18 -0.0173833)
(-6.76164e-19 1.56301e-18 -0.0217984)
(5.70824e-19 -1.65241e-18 -0.0287526)
(8.23245e-20 -1.18442e-20 -0.040063)
(8.95099e-19 -1.47165e-18 -0.0585928)
(1.33193e-19 1.23262e-19 -0.0886152)
(-1.04234e-18 1.44682e-18 -0.136207)
(-1.73678e-20 -4.19955e-20 -0.209744)
(3.55975e-20 5.58299e-22 -0.32124)
(-3.63811e-20 1.6142e-20 -0.491509)
(-5.46503e-19 5.72276e-19 -0.76033)
(5.3778e-19 -5.81559e-19 -1.05117)
(-1.00955e-20 -2.8786e-21 0.00756944)
(-9.25229e-21 1.8084e-22 -0.00017948)
(8.64464e-21 8.36621e-21 -0.00649747)
(-7.77996e-21 -2.59081e-21 -0.011482)
(8.24947e-21 -5.71541e-21 -0.015242)
(-1.29363e-22 2.68326e-21 -0.0179082)
(-1.33483e-22 -7.87908e-23 -0.0196216)
(-3.86033e-21 8.44292e-24 -0.0205224)
(3.74682e-21 -8.19467e-24 -0.0207487)
(-9.98169e-23 2.1831e-25 -0.0204317)
(-8.70062e-23 1.90291e-25 -0.0196923)
(2.14015e-21 -4.68071e-24 -0.0186389)
(-2.14703e-21 4.69576e-24 -0.0173666)
(-1.46835e-21 3.21142e-24 -0.0159569)
(2.98876e-22 -2.39537e-22 -0.0144773)
(4.25291e-21 4.79022e-20 -0.0129829)
(-2.76469e-21 -4.43451e-20 -0.0115169)
(-1.21287e-23 -2.26127e-22 -0.0101122)
(-2.38695e-24 6.60043e-23 -0.00879295)
(-2.42558e-21 -6.75304e-20 -0.00757533)
(2.43455e-21 6.75564e-20 -0.00646872)
(-1.80549e-21 -7.1239e-20 -0.00547728)
(2.76963e-22 4.87748e-21 -0.00460002)
(-5.67508e-23 1.41541e-24 -0.00383349)
(2.06242e-22 5.34298e-21 -0.00317211)
(-9.70903e-24 -1.69296e-25 -0.00261016)
(3.56215e-23 -7.79078e-26 -0.00213681)
(-2.03928e-23 8.79552e-25 -0.00174204)
(1.50055e-22 6.05417e-21 -0.00141609)
(1.10688e-24 -1.53282e-24 -0.00114936)
(-1.24825e-22 -6.33351e-21 -0.000932781)
(1.14477e-22 6.45869e-21 -0.000758018)
(-1.12547e-22 -6.5719e-21 -0.000617632)
(4.67097e-22 6.04276e-20 -0.000505129)
(-4.5003e-22 -6.06429e-20 -0.000414967)
(-2.24554e-22 -4.83668e-20 -0.000342512)
(5.11285e-22 1.04309e-19 -0.000283969)
(-2.80267e-22 -5.60268e-20 -0.000236281)
(-7.00623e-23 -7.11847e-21 -0.000197034)
(6.41568e-23 7.18734e-21 -0.000164348)
(1.08949e-23 -2.58483e-25 -0.000136777)
(3.27899e-23 7.3248e-21 -0.000113224)
(-1.34621e-22 -3.69875e-20 -9.28609e-05)
(1.38047e-22 3.71011e-20 -7.5064e-05)
(-4.7994e-23 -7.49346e-21 -5.93611e-05)
(7.01023e-23 2.26765e-20 -4.53886e-05)
(-1.15538e-23 -7.55551e-21 -3.28545e-05)
(-4.96922e-23 -1.53134e-20 -2.15052e-05)
(1.97216e-23 7.67792e-21 -1.10935e-05)
(-2.29757e-23 -7.73997e-21 -1.37137e-06)
(-1.47444e-20 2.35991e-20 0.0214252)
(2.11644e-20 -1.323e-20 -0.00172961)
(-1.56583e-20 -1.67285e-20 -0.0205693)
(-3.26333e-21 9.57146e-21 -0.0352852)
(2.66326e-21 -8.68637e-21 -0.0462659)
(-1.00794e-20 5.67643e-21 -0.0539487)
(8.35404e-21 3.57498e-21 -0.0587885)
(-1.70307e-20 -4.24047e-20 -0.0612247)
(2.47049e-20 3.29702e-20 -0.0616829)
(-1.51706e-20 2.07542e-21 -0.0605601)
(1.08159e-20 -5.24566e-21 -0.0582186)
(2.89502e-20 1.1453e-19 -0.0549809)
(-3.52614e-20 -1.08562e-19 -0.0511274)
(-3.50471e-20 -1.57683e-19 -0.0468957)
(3.49681e-21 -2.40407e-20 -0.0424825)
(3.42126e-20 1.77118e-19 -0.0380461)
(-2.3738e-21 -1.90113e-21 -0.0337102)
(-1.29149e-21 -7.30052e-21 -0.0295683)
(2.50714e-24 -2.23397e-23 -0.0256875)
(6.15367e-23 -1.34587e-25 -0.0221129)
(1.79613e-22 1.30262e-24 -0.0188701)
(-4.78435e-22 -4.72958e-21 -0.0159684)
(2.15961e-20 3.086e-19 -0.0134042)
(-2.37931e-20 -3.34365e-19 -0.0111706)
(1.9273e-20 3.45087e-19 -0.009241)
(-1.0577e-20 -1.69894e-19 -0.00760051)
(-1.71235e-20 -3.68493e-19 -0.00622006)
(8.20817e-21 1.87261e-19 -0.00506979)
(-1.69373e-22 -6.09761e-21 -0.00412063)
(-5.1671e-22 -1.24855e-20 -0.00334429)
(9.91283e-23 6.35247e-21 -0.00271411)
(-5.62248e-22 -1.9454e-20 -0.0022057)
(4.40378e-21 2.05872e-19 -0.00179733)
(-9.12285e-21 -4.35325e-19 -0.00147004)
(4.06142e-21 2.09324e-19 -0.00120768)
(-3.82901e-22 -2.06762e-20 -0.000996779)
(6.26008e-23 6.96759e-21 -0.000826282)
(1.34215e-24 9.70431e-24 -0.000687321)
(-1.59499e-21 -1.21578e-19 -0.000572882)
(1.35893e-21 1.07432e-19 -0.000477509)
(1.02782e-21 1.02031e-19 -0.000397012)
(-1.48158e-21 -1.38707e-19 -0.000328208)
(5.25952e-23 7.35738e-21 -0.000268694)
(2.72512e-22 3.73434e-20 -0.00021666)
(-5.85603e-22 -6.72445e-20 -0.000170736)
(-7.72034e-23 -7.53949e-21 -0.000129862)
(-3.49955e-22 -5.31897e-20 -9.31886e-05)
(-9.22622e-23 -7.77879e-21 -5.99651e-05)
(1.06668e-22 1.52649e-20 -2.94342e-05)
(1.21317e-22 2.31446e-20 -7.58181e-07)
(-1.46537e-20 -6.57997e-22 0.0310909)
(3.33705e-22 -7.4304e-21 -0.00716629)
(2.08434e-20 2.05082e-20 -0.0380913)
(-4.09101e-20 -1.20972e-20 -0.061746)
(1.66074e-20 9.51819e-21 -0.0790003)
(-3.92941e-20 -5.35668e-20 -0.0907275)
(4.79536e-20 2.57864e-20 -0.0977882)
(9.42331e-20 1.14023e-19 -0.100977)
(-1.29124e-20 5.99025e-20 -0.101028)
(-1.86981e-19 -3.22259e-19 -0.0986106)
(2.18808e-19 3.82976e-19 -0.0943228)
(-1.13965e-19 -1.97769e-19 -0.0886894)
(1.35695e-21 -1.03452e-20 -0.0821593)
(-1.65807e-21 -2.89233e-21 -0.0751077)
(1.21575e-19 3.87734e-19 -0.0678403)
(-7.14479e-21 3.89126e-20 -0.0606)
(-1.11407e-19 -4.16176e-19 -0.0535736)
(5.3372e-21 1.29114e-20 -0.0468997)
(-1.55046e-21 5.64057e-23 -0.0406755)
(2.69128e-23 -2.53195e-22 -0.0349641)
(4.40102e-20 3.02232e-19 -0.0297985)
(-4.25843e-20 -2.92189e-19 -0.0251882)
(-3.70588e-20 -3.21999e-19 -0.0211278)
(3.91099e-20 3.42555e-19 -0.0175914)
(1.25057e-21 1.11893e-20 -0.0145555)
(-1.14752e-21 -1.14441e-20 -0.0119661)
(9.77058e-22 1.17572e-20 -0.00979124)
(-2.37642e-20 -3.77376e-19 -0.00798123)
(2.48223e-20 3.89986e-19 -0.00648902)
(-1.92836e-20 -3.81692e-19 -0.00526924)
(2.06543e-20 4.07447e-19 -0.00427946)
(4.5156e-22 1.30398e-20 -0.00348103)
(1.54733e-20 4.28247e-19 -0.00283958)
(-2.94702e-20 -8.49739e-19 -0.00232526)
(1.47212e-20 4.48608e-19 -0.00191265)
(6.26947e-21 2.36486e-19 -0.00158057)
(-5.52096e-21 -2.08902e-19 -0.00131173)
(-7.80061e-23 -7.15059e-24 -0.00109223)
(-6.74775e-23 -2.4657e-23 -0.000911101)
(2.12697e-23 -2.77691e-23 -0.000759836)
(3.87234e-21 2.33407e-19 -0.000631898)
(-3.81074e-21 -2.1903e-19 -0.00052233)
(2.32363e-22 1.47461e-20 -0.000427391)
(-7.71506e-24 -3.19547e-23 -0.000344264)
(1.40012e-21 1.20006e-19 -0.000270813)
(-2.69902e-21 -2.25779e-19 -0.000205385)
(1.35654e-21 1.20821e-19 -0.000146638)
(-6.81668e-22 -6.10197e-20 -9.33624e-05)
(5.03469e-22 4.57303e-20 -4.42469e-05)
(1.24705e-22 1.53289e-20 2.42159e-06)
(1.56328e-21 2.65599e-20 0.0324484)
(8.65147e-21 -5.24274e-20 -0.0201027)
(4.44926e-21 6.85449e-20 -0.0620729)
(-7.03464e-20 -6.96949e-20 -0.0930771)
(8.15323e-20 -7.59577e-21 -0.114818)
(7.08967e-20 1.11077e-19 -0.12889)
(-8.8828e-20 -7.70999e-20 -0.136671)
(1.07256e-19 1.49346e-19 -0.139358)
(-2.53127e-19 -3.24533e-19 -0.138009)
(1.69203e-19 1.62619e-19 -0.133558)
(-1.43681e-20 1.23607e-20 -0.126822)
(-7.93458e-21 7.74511e-22 -0.118498)
(1.12923e-20 8.53029e-21 -0.109171)
(-1.75855e-19 -3.92046e-19 -0.0993215)
(1.63774e-19 3.72622e-19 -0.0893324)
(7.65223e-22 1.76733e-20 -0.079502)
(4.5913e-22 -8.78869e-21 -0.0700547)
(1.46251e-19 5.37033e-19 -0.0611522)
(-1.46667e-19 -5.3368e-19 -0.052904)
(-1.94643e-21 -1.09399e-20 -0.0453757)
(-2.40227e-22 -1.98542e-23 -0.0385979)
(6.95197e-22 2.93639e-22 -0.0325707)
(9.75643e-23 -3.24638e-24 -0.0272806)
(1.30536e-21 1.10791e-20 -0.0226926)
(7.62246e-22 2.03819e-22 -0.0187585)
(1.1569e-21 1.16413e-20 -0.0154178)
(-7.66439e-20 -7.88788e-19 -0.012612)
(7.59048e-20 7.77265e-19 -0.010281)
(-7.2616e-23 4.72972e-23 -0.00836165)
(-2.84106e-20 -4.13465e-19 -0.00679419)
(2.97331e-20 4.26847e-19 -0.00552303)
(-3.03213e-23 2.72291e-24 -0.00449786)
(-1.54238e-22 -5.23448e-23 -0.00367413)
(-2.0486e-20 -4.5241e-19 -0.00301326)
(3.88341e-20 8.96729e-19 -0.00248252)
(-3.49556e-20 -8.92775e-19 -0.00205472)
(3.21535e-20 9.0197e-19 -0.00170768)
(-2.94192e-20 -9.1037e-19 -0.00142363)
(1.39599e-20 4.57207e-19 -0.0011886)
(6.06686e-21 2.32308e-19 -0.000991751)
(-5.32773e-21 -2.03172e-19 -0.000824782)
(-3.52949e-22 -1.4674e-20 -0.000681403)
(-4.71062e-21 -2.3696e-19 -0.000556877)
(9.84618e-21 5.04989e-19 -0.000447634)
(-4.56648e-21 -2.38316e-19 -0.000350964)
(8.2895e-23 -2.49093e-23 -0.000264764)
(2.28122e-22 1.50818e-20 -0.000187305)
(-8.51373e-23 -7.8333e-24 -0.000116976)
(-1.74695e-22 -1.52247e-20 -5.18539e-05)
(3.86908e-22 3.05719e-20 1.10682e-05)
(2.7095e-20 7.56127e-23 0.020612)
(-3.2803e-24 1.08468e-22 -0.0454966)
(-5.96824e-20 -1.63263e-22 -0.0963172)
(8.47794e-20 -1.2308e-21 -0.131794)
(-2.70858e-20 -2.37581e-21 -0.155215)
(-3.7784e-20 -1.07662e-21 -0.169149)
(1.48386e-20 1.92835e-21 -0.175579)
(-9.13156e-21 -2.87956e-21 -0.17612)
(6.55775e-20 -1.98851e-20 -0.172134)
(3.43159e-19 5.54089e-19 -0.164777)
(3.71425e-21 1.01362e-19 -0.155031)
(-3.8133e-19 -6.54256e-19 -0.143712)
(4.02892e-19 7.87686e-19 -0.131492)