/*--------------------------------*- C++ -*----------------------------------*\
| =========                 |                                                 |
| \\      /  F ield         | OpenFOAM: The Open Source CFD Toolbox           |
|  \\    /   O peration     | Version:  2412                                  |
|   \\  /    A nd           | Website:  www.openfoam.com                      |
|    \\/     M anipulation  |                                                 |
\*---------------------------------------------------------------------------*/
FoamFile
{
    version     2.0;
    format      ascii;
    arch        "LSB;label=32;scalar=64";
    class       volVectorField;
    location    "23.5";
    object      U;
}
// * * * * * * * * * * * * * * * * * * * * * * * * * * * * * * * * * * * * * //

dimensions      [0 1 -1 0 0 0 0];

internalField   nonuniform List<vector> 
5285
(
(0.103205 0.00558622 0)
(0.103052 0.00554226 0)
(0.102899 0.00549354 0)
(0.102748 0.00544018 0)
(0.102599 0.00538232 0)
(0.102452 0.00532011 0)
(0.102308 0.00525372 0)
(0.102166 0.00518328 0)
(0.102027 0.00510898 0)
(0.101891 0.00503096 0)
(0.101758 0.0049494 0)
(0.101629 0.00486445 0)
(0.101503 0.0047763 0)
(0.101382 0.0046851 0)
(0.101264 0.00459105 0)
(0.101151 0.00449434 0)
(0.101042 0.00439516 0)
(0.100938 0.00429373 0)
(0.100838 0.00419028 0)
(0.100743 0.00408503 0)
(0.100652 0.00397823 0)
(0.100567 0.00387015 0)
(0.100486 0.00376103 0)
(0.10041 0.00365114 0)
(0.100339 0.00354074 0)
(0.100272 0.00343011 0)
(0.10021 0.0033195 0)
(0.100153 0.00320915 0)
(0.1001 0.00309932 0)
(0.100052 0.00299024 0)
(0.100008 0.00288211 0)
(0.0999685 0.00277516 0)
(0.0999329 0.00266957 0)
(0.0999012 0.00256552 0)
(0.0998733 0.00246317 0)
(0.099849 0.00236267 0)
(0.0998282 0.00226413 0)
(0.0998107 0.00216767 0)
(0.0997963 0.00207336 0)
(0.0997847 0.00198126 0)
(0.0997758 0.00189142 0)
(0.0997694 0.00180387 0)
(0.0997653 0.00171863 0)
(0.0997633 0.00163572 0)
(0.103168 0.00575076 0)
(0.10301 0.00570234 0)
(0.102854 0.00564897 0)
(0.102699 0.00559082 0)
(0.102546 0.00552802 0)
(0.102396 0.00546075 0)
(0.102248 0.00538918 0)
(0.102103 0.00531348 0)
(0.101961 0.00523384 0)
(0.101822 0.00515043 0)
(0.101687 0.00506345 0)
(0.101556 0.00497307 0)
(0.101429 0.00487949 0)
(0.101306 0.0047829 0)
(0.101187 0.00468349 0)
(0.101073 0.00458149 0)
(0.100964 0.0044771 0)
(0.100859 0.00437055 0)
(0.10076 0.00426209 0)
(0.100665 0.00415196 0)
(0.100575 0.00404041 0)
(0.10049 0.00392771 0)
(0.10041 0.00381414 0)
(0.100335 0.00369996 0)
(0.100265 0.00358545 0)
(0.1002 0.00347087 0)
(0.100139 0.00335649 0)
(0.100084 0.00324256 0)
(0.100033 0.00312933 0)
(0.0999866 0.00301703 0)
(0.0999446 0.00290587 0)
(0.0999069 0.00279607 0)
(0.0998733 0.00268782 0)
(0.0998438 0.00258128 0)
(0.099818 0.00247662 0)
(0.0997959 0.00237398 0)
(0.0997773 0.00227348 0)
(0.099762 0.00217522 0)
(0.0997497 0.00207929 0)
(0.0997403 0.00198572 0)
(0.0997335 0.00189457 0)
(0.0997292 0.00180586 0)
(0.0997272 0.00171959 0)
(0.0997271 0.00163579 0)
(0.103127 0.00592006 0)
(0.102964 0.00586687 0)
(0.102803 0.00580857 0)
(0.102645 0.00574532 0)
(0.102488 0.00567729 0)
(0.102334 0.00560465 0)
(0.102183 0.0055276 0)
(0.102035 0.00544633 0)
(0.10189 0.00536105 0)
(0.101749 0.00527196 0)
(0.101612 0.00517927 0)
(0.101479 0.00508318 0)
(0.10135 0.0049839 0)
(0.101226 0.00488165 0)
(0.101106 0.00477664 0)
(0.100992 0.00466912 0)
(0.100882 0.0045593 0)
(0.100777 0.00444743 0)
(0.100678 0.00433377 0)
(0.100583 0.00421858 0)
(0.100494 0.00410212 0)
(0.10041 0.00398469 0)
(0.100331 0.00386654 0)
(0.100257 0.00374796 0)
(0.100188 0.00362924 0)
(0.100125 0.00351064 0)
(0.100066 0.00339243 0)
(0.100013 0.00327486 0)
(0.0999636 0.00315819 0)
(0.0999192 0.00304264 0)
(0.0998793 0.00292844 0)
(0.0998438 0.00281578 0)
(0.0998124 0.00270485 0)
(0.0997851 0.00259583 0)
(0.0997616 0.00248888 0)
(0.0997418 0.00238412 0)
(0.0997255 0.00228168 0)
(0.0997124 0.00218166 0)
(0.0997024 0.00208413 0)
(0.0996952 0.00198913 0)
(0.0996906 0.0018967 0)
(0.0996885 0.00180686 0)
(0.0996885 0.00171961 0)
(0.0996905 0.00163496 0)
(0.10308 0.00609421 0)
(0.102913 0.00603595 0)
(0.102748 0.00597238 0)
(0.102585 0.00590371 0)
(0.102424 0.00583012 0)
(0.102267 0.00575179 0)
(0.102112 0.00566894 0)
(0.101961 0.00558178 0)
(0.101814 0.00549056 0)
(0.101671 0.00539548 0)
(0.101531 0.00529677 0)
(0.101397 0.00519468 0)
(0.101267 0.00508942 0)
(0.101141 0.00498125 0)
(0.101021 0.00487039 0)
(0.100906 0.0047571 0)
(0.100796 0.00464162 0)
(0.100691 0.00452423 0)
(0.100592 0.00440519 0)
(0.100498 0.00428477 0)
(0.100409 0.00416325 0)
(0.100326 0.00404093 0)
(0.100249 0.00391809 0)
(0.100176 0.00379502 0)
(0.100109 0.00367199 0)
(0.100048 0.0035493 0)
(0.0999908 0.0034272 0)
(0.0999391 0.00330595 0)
(0.0998922 0.00318581 0)
(0.09985 0.00306699 0)
(0.0998124 0.00294972 0)
(0.0997792 0.0028342 0)
(0.0997502 0.00272061 0)
(0.0997252 0.00260912 0)
(0.0997041 0.00249988 0)
(0.0996867 0.00239303 0)
(0.0996727 0.00228869 0)
(0.099662 0.00218693 0)
(0.0996543 0.00208784 0)
(0.0996494 0.00199144 0)
(0.0996471 0.00189778 0)
(0.0996472 0.00180686 0)
(0.0996494 0.00171867 0)
(0.0996535 0.00163322 0)
(0.103027 0.0062733 0)
(0.102856 0.00620961 0)
(0.102686 0.00614045 0)
(0.102519 0.00606601 0)
(0.102355 0.00598651 0)
(0.102194 0.00590214 0)
(0.102036 0.00581315 0)
(0.101882 0.00571978 0)
(0.101732 0.00562227 0)
(0.101587 0.00552088 0)
(0.101446 0.00541586 0)
(0.101309 0.00530746 0)
(0.101178 0.00519594 0)
(0.101052 0.00508156 0)
(0.100931 0.00496459 0)
(0.100815 0.00484529 0)
(0.100705 0.00472394 0)
(0.100601 0.00460082 0)
(0.100502 0.0044762 0)
(0.100409 0.00435038 0)
(0.100321 0.00422366 0)
(0.10024 0.00409632 0)
(0.100163 0.00396867 0)
(0.100093 0.003841 0)
(0.100028 0.00371359 0)
(0.0999677 0.00358673 0)
(0.099913 0.00346069 0)
(0.0998635 0.00333572 0)
(0.0998188 0.00321208 0)
(0.099779 0.00308998 0)
(0.0997438 0.00296964 0)
(0.099713 0.00285126 0)
(0.0996865 0.00273501 0)
(0.099664 0.00262107 0)
(0.0996455 0.00250958 0)
(0.0996305 0.00240067 0)
(0.099619 0.00229444 0)
(0.0996108 0.00219099 0)
(0.0996055 0.00209038 0)
(0.099603 0.00199263 0)
(0.099603 0.00189778 0)
(0.0996054 0.00180582 0)
(0.0996098 0.00171674 0)
(0.099616 0.00163053 0)
(0.102969 0.00645741 0)
(0.102792 0.00638793 0)
(0.102618 0.00631279 0)
(0.102447 0.00623222 0)
(0.102279 0.00614644 0)
(0.102115 0.00605568 0)
(0.101954 0.00596019 0)
(0.101797 0.00586024 0)
(0.101645 0.00575611 0)
(0.101497 0.00564807 0)
(0.101354 0.0055364 0)
(0.101217 0.00542138 0)
(0.101084 0.00530331 0)
(0.100957 0.00518245 0)
(0.100836 0.0050591 0)
(0.10072 0.00493355 0)
(0.10061 0.0048061 0)
(0.100506 0.00467703 0)
(0.100408 0.00454666 0)
(0.100316 0.00441527 0)
(0.10023 0.00428319 0)
(0.10015 0.00415071 0)
(0.100075 0.00401813 0)
(0.100006 0.00388577 0)
(0.099943 0.0037539 0)
(0.0998853 0.00362282 0)
(0.0998329 0.00349279 0)
(0.0997857 0.00336407 0)
(0.0997435 0.0032369 0)
(0.0997062 0.00311151 0)
(0.0996735 0.0029881 0)
(0.0996454 0.00286687 0)
(0.0996215 0.00274799 0)
(0.0996016 0.00263162 0)
(0.0995857 0.0025179 0)
(0.0995734 0.00240696 0)
(0.0995645 0.0022989 0)
(0.0995588 0.00219379 0)
(0.099556 0.0020917 0)
(0.099556 0.00199266 0)
(0.0995584 0.00189667 0)
(0.0995631 0.00180372 0)
(0.0995697 0.0017138 0)
(0.0995782 0.00162688 0)
(0.102903 0.00664662 0)
(0.102722 0.00657094 0)
(0.102544 0.00648943 0)
(0.102369 0.00640233 0)
(0.102197 0.00630987 0)
(0.102029 0.00621232 0)
(0.101865 0.00610996 0)
(0.101706 0.00600307 0)
(0.101551 0.00589195 0)
(0.101402 0.00577691 0)
(0.101257 0.00565826 0)
(0.101118 0.00553631 0)
(0.100985 0.00541137 0)
(0.100857 0.00528374 0)
(0.100736 0.00515375 0)
(0.10062 0.00502171 0)
(0.100511 0.00488792 0)
(0.100407 0.00475271 0)
(0.10031 0.00461638 0)
(0.100219 0.00447927 0)
(0.100135 0.00434168 0)
(0.100056 0.00420393 0)
(0.0999834 0.00406633 0)
(0.0999166 0.00392918 0)
(0.0998556 0.00379279 0)
(0.0998002 0.00365743 0)
(0.0997503 0.00352337 0)
(0.0997057 0.00339087 0)
(0.0996661 0.00326017 0)
(0.0996315 0.00313148 0)
(0.0996016 0.00300501 0)
(0.0995762 0.00288094 0)
(0.0995551 0.00275945 0)
(0.099538 0.00264069 0)
(0.0995248 0.00252478 0)
(0.0995152 0.00241185 0)
(0.099509 0.002302 0)
(0.099506 0.00219529 0)
(0.0995058 0.00209178 0)
(0.0995083 0.00199148 0)
(0.0995132 0.00189441 0)
(0.0995203 0.00180053 0)
(0.0995293 0.00170982 0)
(0.09954 0.00162224 0)
(0.102831 0.00684098 0)
(0.102645 0.00675867 0)
(0.102462 0.00667036 0)
(0.102283 0.0065763 0)
(0.102108 0.00647676 0)
(0.101937 0.00637201 0)
(0.10177 0.00626236 0)
(0.101608 0.00614814 0)
(0.101451 0.00602966 0)
(0.101299 0.00590726 0)
(0.101154 0.00578128 0)
(0.101013 0.00565206 0)
(0.100879 0.00551994 0)
(0.100752 0.00538526 0)
(0.10063 0.00524836 0)
(0.100515 0.00510957 0)
(0.100406 0.00496922 0)
(0.100304 0.00482765 0)
(0.100208 0.0046852 0)
(0.100119 0.00454219 0)
(0.100036 0.00439896 0)
(0.0999588 0.00425582 0)
(0.0998883 0.0041131 0)
(0.0998239 0.00397109 0)
(0.0997653 0.0038301 0)
(0.0997125 0.00369042 0)
(0.0996653 0.0035523 0)
(0.0996234 0.00341601 0)
(0.0995867 0.00328176 0)
(0.099555 0.00314979 0)
(0.099528 0.00302027 0)
(0.0995055 0.0028934 0)
(0.0994873 0.00276933 0)
(0.0994732 0.0026482 0)
(0.0994629 0.00253015 0)
(0.0994562 0.00241529 0)
(0.0994528 0.00230369 0)
(0.0994525 0.00219544 0)
(0.099455 0.00209056 0)
(0.0994601 0.00198907 0)
(0.0994676 0.00189097 0)
(0.0994771 0.00179622 0)
(0.0994885 0.00170477 0)
(0.0995015 0.0016166 0)
(0.102751 0.00704054 0)
(0.10256 0.00695114 0)
(0.102373 0.00685556 0)
(0.10219 0.00675409 0)
(0.102011 0.00664702 0)
(0.101837 0.00653464 0)
(0.101667 0.00641729 0)
(0.101503 0.00629531 0)
(0.101344 0.00616907 0)
(0.101191 0.00603894 0)
(0.101043 0.00590527 0)
(0.100903 0.00576845 0)
(0.100768 0.00562884 0)
(0.10064 0.00548681 0)
(0.100519 0.00534271 0)
(0.100404 0.00519692 0)
(0.100296 0.00504979 0)
(0.100195 0.00490167 0)
(0.100101 0.00475291 0)
(0.100013 0.00460386 0)
(0.0999325 0.00445485 0)
(0.099858 0.00430621 0)
(0.0997899 0.00415826 0)
(0.099728 0.00401133 0)
(0.0996722 0.0038657 0)
(0.0996222 0.00372165 0)
(0.0995779 0.00357945 0)
(0.099539 0.00343935 0)
(0.0995053 0.00330157 0)
(0.0994767 0.00316632 0)
(0.0994528 0.00303379 0)
(0.0994334 0.00290414 0)
(0.0994183 0.00277753 0)
(0.0994072 0.00265409 0)
(0.0993999 0.00253395 0)
(0.0993961 0.0024172 0)
(0.0993957 0.00230392 0)
(0.0993982 0.00219418 0)
(0.0994035 0.002088 0)
(0.0994114 0.00198538 0)
(0.0994215 0.00188631 0)
(0.0994335 0.00179075 0)
(0.0994474 0.00169864 0)
(0.0994627 0.00160994 0)
(0.102662 0.00724534 0)
(0.102467 0.00714834 0)
(0.102276 0.00704501 0)
(0.102089 0.00693564 0)
(0.101906 0.00682056 0)
(0.101728 0.00670008 0)
(0.101556 0.00657458 0)
(0.10139 0.00644443 0)
(0.101229 0.00631002 0)
(0.101074 0.00617176 0)
(0.100926 0.00603004 0)
(0.100785 0.00588526 0)
(0.10065 0.00573783 0)
(0.100523 0.00558814 0)
(0.100402 0.00543659 0)
(0.100288 0.00528356 0)
(0.100182 0.00512942 0)
(0.100082 0.00497454 0)
(0.0999896 0.0048193 0)
(0.0999041 0.00466405 0)
(0.0998254 0.00450914 0)
(0.0997534 0.0043549 0)
(0.099688 0.00420165 0)
(0.0996289 0.00404972 0)
(0.0995761 0.0038994 0)
(0.0995291 0.00375097 0)
(0.099488 0.00360468 0)
(0.0994523 0.00346077 0)
(0.0994219 0.00331947 0)
(0.0993965 0.00318098 0)
(0.0993758 0.00304546 0)
(0.0993597 0.00291307 0)
(0.0993479 0.00278397 0)
(0.09934 0.00265828 0)
(0.0993359 0.0025361 0)
(0.0993352 0.00241753 0)
(0.0993378 0.00230263 0)
(0.0993433 0.00219147 0)
(0.0993515 0.00208405 0)
(0.0993621 0.00198037 0)
(0.0993749 0.00188041 0)
(0.0993896 0.00178411 0)
(0.0994059 0.0016914 0)
(0.0994237 0.00160223 0)
(0.102565 0.00745539 0)
(0.102365 0.00735026 0)
(0.102169 0.00723864 0)
(0.101978 0.00712086 0)
(0.101792 0.00699725 0)
(0.101612 0.0068682 0)
(0.101437 0.00673407 0)
(0.101269 0.0065953 0)
(0.101106 0.00645229 0)
(0.100951 0.00630549 0)
(0.100802 0.00615533 0)
(0.10066 0.00600225 0)
(0.100526 0.00584668 0)
(0.100399 0.00568904 0)
(0.100279 0.00552975 0)
(0.100166 0.00536922 0)
(0.100061 0.00520785 0)
(0.0999638 0.00504604 0)
(0.0998734 0.00488415 0)
(0.0997903 0.00472256 0)
(0.0997142 0.00456162 0)
(0.0996451 0.00440169 0)
(0.0995826 0.00424307 0)
(0.0995266 0.0040861 0)
(0.099477 0.00393105 0)
(0.0994334 0.00377821 0)
(0.0993956 0.00362783 0)
(0.0993634 0.00348014 0)
(0.0993364 0.00333534 0)
(0.0993145 0.00319363 0)
(0.0992973 0.00305517 0)
(0.0992846 0.00292011 0)
(0.0992762 0.00278857 0)
(0.0992717 0.00266068 0)
(0.0992708 0.00253653 0)
(0.0992734 0.00241621 0)
(0.0992791 0.00229977 0)
(0.0992877 0.00218726 0)
(0.0992989 0.00207868 0)
(0.0993124 0.00197401 0)
(0.0993279 0.00187323 0)
(0.0993453 0.00177626 0)
(0.0993642 0.00168302 0)
(0.0993844 0.00159345 0)
(0.102459 0.0076707 0)
(0.102254 0.00755685 0)
(0.102054 0.00743637 0)
(0.101859 0.00730962 0)
(0.10167 0.00717697 0)
(0.101487 0.00703881 0)
(0.10131 0.00689557 0)
(0.101139 0.0067477 0)
(0.100976 0.00659565 0)
(0.100819 0.0064399 0)
(0.10067 0.00628092 0)
(0.100528 0.00611916 0)
(0.100394 0.00595511 0)
(0.100268 0.00578921 0)
(0.10015 0.00562192 0)
(0.100039 0.00545365 0)
(0.0999356 0.00528484 0)
(0.0998402 0.00511589 0)
(0.0997524 0.0049472 0)
(0.099672 0.00477914 0)
(0.0995988 0.00461208 0)
(0.0995328 0.00444637 0)
(0.0994736 0.00428232 0)
(0.0994211 0.00412026 0)
(0.0993749 0.00396047 0)
(0.0993349 0.00380323 0)
(0.0993008 0.00364877 0)
(0.0992722 0.00349731 0)
(0.0992489 0.00334905 0)
(0.0992307 0.00320417 0)
(0.0992172 0.00306282 0)
(0.0992081 0.00292514 0)
(0.0992032 0.00279124 0)
(0.0992022 0.00266122 0)
(0.0992048 0.00253518 0)
(0.0992108 0.00241318 0)
(0.0992198 0.00229528 0)
(0.0992315 0.00218149 0)
(0.0992457 0.00207183 0)
(0.0992622 0.00196626 0)
(0.0992806 0.00186474 0)
(0.0993007 0.00176717 0)
(0.0993222 0.00167348 0)
(0.0993449 0.00158358 0)
(0.102342 0.00789122 0)
(0.102132 0.00776803 0)
(0.101928 0.00763809 0)
(0.10173 0.00750179 0)
(0.101538 0.00735952 0)
(0.101352 0.00721172 0)
(0.101173 0.00705885 0)
(0.101001 0.0069014 0)
(0.100836 0.00673985 0)
(0.100679 0.00657471 0)
(0.10053 0.0064065 0)
(0.100389 0.00623571 0)
(0.100256 0.00606284 0)
(0.100131 0.00588838 0)
(0.100014 0.00571281 0)
(0.0999049 0.00553657 0)
(0.0998042 0.00536011 0)
(0.0997113 0.00518385 0)
(0.0996264 0.00500821 0)
(0.099549 0.00483356 0)
(0.0994792 0.00466028 0)
(0.0994166 0.00448871 0)
(0.099361 0.00431919 0)
(0.0993122 0.00415202 0)
(0.0992698 0.00398748 0)
(0.0992337 0.00382584 0)
(0.0992035 0.00366732 0)
(0.0991788 0.00351213 0)
(0.0991595 0.00336047 0)
(0.0991451 0.00321248 0)
(0.0991355 0.00306831 0)
(0.0991302 0.00292807 0)
(0.0991291 0.00279188 0)
(0.0991317 0.00265982 0)
(0.0991379 0.00253197 0)
(0.0991473 0.00240838 0)
(0.0991597 0.00228909 0)
(0.0991747 0.00217413 0)
(0.0991921 0.00206347 0)
(0.0992116 0.00195708 0)
(0.0992329 0.00185489 0)
(0.0992558 0.00175682 0)
(0.09928 0.00166276 0)
(0.0993053 0.0015726 0)
(0.102214 0.00811688 0)
(0.102 0.0079837 0)
(0.101792 0.00784366 0)
(0.10159 0.00769719 0)
(0.101395 0.00754471 0)
(0.101207 0.0073867 0)
(0.101026 0.00722366 0)
(0.100853 0.00705611 0)
(0.100688 0.00688458 0)
(0.100531 0.00670961 0)
(0.100382 0.00653176 0)
(0.100242 0.00635157 0)
(0.10011 0.00616955 0)
(0.0999862 0.00598623 0)
(0.0998713 0.0058021 0)
(0.0997649 0.00561766 0)
(0.0996668 0.00543335 0)
(0.099577 0.00524962 0)
(0.0994952 0.00506688 0)
(0.0994214 0.00488554 0)
(0.0993552 0.00470596 0)
(0.0992964 0.00452849 0)
(0.0992448 0.00435346 0)
(0.0992 0.00418116 0)
(0.0991618 0.00401188 0)
(0.0991298 0.00384587 0)
(0.0991037 0.00368333 0)
(0.0990832 0.00352447 0)
(0.099068 0.00336945 0)
(0.0990578 0.00321842 0)
(0.0990522 0.00307151 0)
(0.099051 0.00292881 0)
(0.0990537 0.00279041 0)
(0.0990602 0.0026564 0)
(0.0990701 0.00252682 0)
(0.0990831 0.00240174 0)
(0.099099 0.00228117 0)
(0.0991174 0.00216511 0)
(0.099138 0.00205355 0)
(0.0991606 0.00194643 0)
(0.0991849 0.00184367 0)
(0.0992107 0.00174517 0)
(0.0992376 0.00165082 0)
(0.0992655 0.00156049 0)
(0.102075 0.0083476 0)
(0.101857 0.00820373 0)
(0.101645 0.0080529 0)
(0.10144 0.0078956 0)
(0.101242 0.00773229 0)
(0.101052 0.00756347 0)
(0.10087 0.00738969 0)
(0.100696 0.00721151 0)
(0.10053 0.00702951 0)
(0.100373 0.00684427 0)
(0.100225 0.00665637 0)
(0.100086 0.00646639 0)
(0.0999558 0.00627488 0)
(0.0998345 0.0060824 0)
(0.099722 0.00588947 0)
(0.0996184 0.0056966 0)
(0.0995235 0.00550425 0)
(0.099437 0.00531289 0)
(0.099359 0.00512294 0)
(0.099289 0.00493481 0)
(0.0992268 0.00474886 0)
(0.0991723 0.00456545 0)
(0.0991249 0.00438489 0)
(0.0990845 0.00420748 0)
(0.0990507 0.00403348 0)
(0.0990232 0.00386313 0)
(0.0990016 0.00369663 0)
(0.0989855 0.00353416 0)
(0.0989747 0.00337587 0)
(0.0989688 0.00322189 0)
(0.0989675 0.00307231 0)
(0.0989704 0.00292724 0)
(0.0989772 0.00278674 0)
(0.0989877 0.00265087 0)
(0.0990015 0.00251968 0)
(0.0990182 0.0023932 0)
(0.0990377 0.00227144 0)
(0.0990595 0.00215439 0)
(0.0990835 0.00204203 0)
(0.0991094 0.00193427 0)
(0.0991367 0.00183103 0)
(0.0991654 0.0017322 0)
(0.0991951 0.00163764 0)
(0.0992257 0.00154723 0)
(0.101924 0.00858322 0)
(0.101701 0.00842791 0)
(0.101485 0.00826558 0)
(0.101277 0.00809676 0)
(0.101077 0.00792195 0)
(0.100886 0.00774171 0)
(0.100702 0.00755661 0)
(0.100528 0.00736727 0)
(0.100363 0.0071743 0)
(0.100206 0.00697831 0)
(0.10006 0.00677994 0)
(0.099922 0.0065798 0)
(0.0997939 0.00637847 0)
(0.0996751 0.00617654 0)
(0.0995656 0.00597455 0)
(0.0994653 0.00577303 0)
(0.099374 0.00557247 0)
(0.0992914 0.00537333 0)
(0.0992174 0.00517607 0)
(0.0991518 0.00498106 0)
(0.0990941 0.0047887 0)
(0.0990441 0.00459933 0)
(0.0990014 0.00441325 0)
(0.0989657 0.00423075 0)
(0.0989367 0.00405207 0)
(0.0989139 0.00387744 0)
(0.098897 0.00370705 0)
(0.0988857 0.00354105 0)
(0.0988795 0.00337958 0)
(0.0988782 0.00322274 0)
(0.0988813 0.00307061 0)
(0.0988886 0.00292327 0)
(0.0988997 0.00278077 0)
(0.0989143 0.00264316 0)
(0.098932 0.00251046 0)
(0.0989527 0.00238269 0)
(0.0989758 0.00225985 0)
(0.0990013 0.00214192 0)
(0.0990287 0.00202885 0)
(0.0990578 0.00192057 0)
(0.0990883 0.00181695 0)
(0.09912 0.00171789 0)
(0.0991526 0.00162322 0)
(0.0991858 0.0015328 0)
(0.101759 0.00882354 0)
(0.101532 0.008656 0)
(0.101313 0.00848142 0)
(0.101103 0.00830037 0)
(0.100901 0.00811338 0)
(0.100708 0.00792107 0)
(0.100524 0.00772405 0)
(0.100349 0.00752298 0)
(0.100185 0.00731851 0)
(0.10003 0.00711132 0)
(0.0998845 0.00690206 0)
(0.0997491 0.00669138 0)
(0.0996237 0.0064799 0)
(0.099508 0.00626823 0)
(0.0994019 0.00605694 0)
(0.0993054 0.00584657 0)
(0.0992182 0.00563764 0)
(0.09914 0.00543061 0)
(0.0990706 0.00522593 0)
(0.0990097 0.00502401 0)
(0.0989569 0.00482521 0)
(0.0989118 0.00462987 0)
(0.0988742 0.00443828 0)
(0.0988437 0.00425073 0)
(0.0988197 0.00406744 0)
(0.098802 0.00388861 0)
(0.0987902 0.00371442 0)
(0.0987838 0.00354499 0)
(0.0987825 0.00338044 0)
(0.098786 0.00322085 0)
(0.0987938 0.00306629 0)
(0.0988056 0.0029168 0)
(0.0988211 0.00277242 0)
(0.09884 0.00263318 0)
(0.0988619 0.00249909 0)
(0.0988865 0.00237015 0)
(0.0989135 0.00224635 0)
(0.0989427 0.00212766 0)
(0.0989736 0.002014 0)
(0.0990061 0.00190529 0)
(0.0990398 0.0018014 0)
(0.0990745 0.0017022 0)
(0.0991099 0.00160751 0)
(0.0991459 0.00151718 0)
(0.10158 0.0090683 0)
(0.101349 0.00888772 0)
(0.101127 0.0087001 0)
(0.100915 0.00850605 0)
(0.100711 0.00830618 0)
(0.100517 0.00810112 0)
(0.100333 0.00789156 0)
(0.10016 0.00767819 0)
(0.0999959 0.00746171 0)
(0.0998426 0.00724284 0)
(0.0996997 0.00702227 0)
(0.0995671 0.00680068 0)
(0.0994449 0.00657873 0)
(0.0993328 0.00635704 0)
(0.0992308 0.00613622 0)
(0.0991386 0.00591683 0)
(0.099056 0.00569938 0)
(0.0989827 0.00548435 0)
(0.0989184 0.00527219 0)
(0.0988627 0.00506331 0)
(0.0988152 0.00485806 0)
(0.0987756 0.00465677 0)
(0.0987435 0.00445973 0)
(0.0987184 0.00426719 0)
(0.0986999 0.00407937 0)
(0.0986876 0.00389644 0)
(0.0986811 0.00371854 0)
(0.0986799 0.0035458 0)
(0.0986838 0.0033783 0)
(0.0986923 0.00321609 0)
(0.098705 0.00305922 0)
(0.0987215 0.00290772 0)
(0.0987416 0.00276159 0)
(0.0987649 0.00262085 0)
(0.0987911 0.0024855 0)
(0.0988198 0.00235552 0)
(0.0988508 0.00223088 0)
(0.0988837 0.00211154 0)
(0.0989183 0.00199741 0)
(0.0989542 0.00188839 0)
(0.0989912 0.00178434 0)
(0.099029 0.0016851 0)
(0.0990674 0.0015905 0)
(0.0991061 0.00150036 0)
(0.101385 0.00931715 0)
(0.101152 0.00912266 0)
(0.100927 0.00892117 0)
(0.100713 0.00871335 0)
(0.100508 0.00849985 0)
(0.100314 0.00828137 0)
(0.100131 0.00805863 0)
(0.0999579 0.00783238 0)
(0.0997959 0.00760337 0)
(0.0996449 0.00737235 0)
(0.0995049 0.00714005 0)
(0.0993757 0.00690719 0)
(0.0992573 0.00667446 0)
(0.0991495 0.0064425 0)
(0.0990521 0.00621194 0)
(0.0989648 0.00598335 0)
(0.0988874 0.00575726 0)
(0.0988195 0.00553416 0)
(0.0987608 0.00531448 0)
(0.0987108 0.00509862 0)
(0.0986691 0.00488694 0)
(0.0986354 0.00467975 0)
(0.0986091 0.00447733 0)
(0.0985899 0.00427989 0)
(0.0985772 0.00408763 0)
(0.0985706 0.00390071 0)
(0.0985698 0.00371925 0)
(0.0985742 0.00354333 0)
(0.0985834 0.00337302 0)
(0.0985971 0.00320833 0)
(0.0986149 0.0030493 0)
(0.0986364 0.00289593 0)
(0.0986613 0.0027482 0)
(0.0986892 0.0026061 0)
(0.0987197 0.00246963 0)
(0.0987527 0.00233874 0)
(0.0987877 0.0022134 0)
(0.0988245 0.00209353 0)
(0.0988628 0.00197905 0)
(0.0989022 0.00186984 0)
(0.0989425 0.00176575 0)
(0.0989835 0.00166659 0)
(0.0990248 0.00157218 0)
(0.0990664 0.00148233 0)
(0.101174 0.00956964 0)
(0.100938 0.00936035 0)
(0.100712 0.00914414 0)
(0.100496 0.00892175 0)
(0.100291 0.00869387 0)
(0.100097 0.00846127 0)
(0.0999149 0.00822471 0)
(0.0997438 0.007985 0)
(0.0995843 0.00774293 0)
(0.0994363 0.00749929 0)
(0.0992998 0.00725485 0)
(0.0991746 0.00701037 0)
(0.0990607 0.00676656 0)
(0.0989578 0.0065241 0)
(0.0988656 0.00628361 0)
(0.0987839 0.00604569 0)
(0.0987123 0.00581086 0)
(0.0986504 0.00557962 0)
(0.0985978 0.0053524 0)
(0.098554 0.00512959 0)
(0.0985187 0.00491152 0)
(0.0984913 0.00469851 0)
(0.0984713 0.00449078 0)
(0.0984583 0.00428856 0)
(0.0984518 0.004092 0)
(0.0984513 0.00390124 0)
(0.0984564 0.00371635 0)
(0.0984666 0.00353741 0)
(0.0984815 0.00336444 0)
(0.0985006 0.00319744 0)
(0.0985237 0.00303641 0)
(0.0985503 0.00288132 0)
(0.0985801 0.00273215 0)
(0.0986127 0.00258885 0)
(0.0986479 0.0024514 0)
(0.0986852 0.00231975 0)
(0.0987244 0.00219384 0)
(0.0987651 0.00207359 0)
(0.0988071 0.00195889 0)
(0.0988501 0.00184961 0)
(0.0988939 0.00174559 0)
(0.098938 0.00164663 0)
(0.0989824 0.00155252 0)
(0.0990268 0.00146305 0)
(0.108181 0.00410158 0)
(0.108003 0.00427489 0)
(0.107819 0.00443915 0)
(0.107631 0.0045942 0)
(0.107439 0.00473988 0)
(0.107243 0.00487601 0)
(0.107044 0.00500244 0)
(0.106844 0.00511904 0)
(0.106641 0.0052257 0)
(0.106437 0.00532236 0)
(0.106233 0.00540899 0)
(0.106029 0.00548561 0)
(0.105824 0.00555227 0)
(0.105621 0.00560908 0)
(0.105419 0.00565621 0)
(0.105218 0.00569386 0)
(0.105019 0.00572231 0)
(0.104822 0.00574186 0)
(0.104628 0.00575288 0)
(0.104437 0.00575574 0)
(0.104249 0.00575087 0)
(0.104065 0.00573872 0)
(0.103884 0.00571976 0)
(0.103707 0.00569446 0)
(0.103534 0.00566328 0)
(0.103365 0.0056267 0)
(0.108355 0.00428194 0)
(0.108166 0.00446077 0)
(0.107973 0.00462994 0)
(0.107775 0.00478929 0)
(0.107572 0.00493866 0)
(0.107367 0.00507789 0)
(0.107158 0.00520683 0)
(0.106948 0.00532537 0)
(0.106736 0.00543342 0)
(0.106523 0.00553094 0)
(0.106309 0.00561791 0)
(0.106095 0.00569437 0)
(0.105882 0.0057604 0)
(0.10567 0.00581615 0)
(0.105459 0.00586179 0)
(0.10525 0.00589757 0)
(0.105044 0.00592378 0)
(0.10484 0.00594076 0)
(0.104638 0.00594888 0)
(0.10444 0.00594856 0)
(0.104246 0.00594024 0)
(0.104055 0.00592441 0)
(0.103868 0.00590154 0)
(0.103685 0.00587213 0)
(0.103507 0.00583668 0)
(0.103333 0.00579568 0)
(0.108534 0.00447223 0)
(0.108335 0.00465672 0)
(0.108131 0.0048309 0)
(0.107923 0.00499459 0)
(0.10771 0.00514767 0)
(0.107494 0.00528996 0)
(0.107275 0.00542134 0)
(0.107054 0.00554171 0)
(0.106832 0.005651 0)
(0.106609 0.00574919 0)
(0.106385 0.00583629 0)
(0.106162 0.00591237 0)
(0.105939 0.00597753 0)
(0.105718 0.00603194 0)
(0.105498 0.00607583 0)
(0.105281 0.00610944 0)
(0.105066 0.00613311 0)
(0.104854 0.0061472 0)
(0.104645 0.00615212 0)
(0.10444 0.00614831 0)
(0.104239 0.00613624 0)
(0.104041 0.0061164 0)
(0.103848 0.00608931 0)
(0.103659 0.00605549 0)
(0.103475 0.00601546 0)
(0.103296 0.00596972 0)
(0.10872 0.00467308 0)
(0.10851 0.00486338 0)
(0.108295 0.00504266 0)
(0.108075 0.00521075 0)
(0.107851 0.00536752 0)
(0.107624 0.00551284 0)
(0.107394 0.00564657 0)
(0.107162 0.00576865 0)
(0.106929 0.00587902 0)
(0.106695 0.00597769 0)
(0.106461 0.00606469 0)
(0.106228 0.00614013 0)
(0.105995 0.00620415 0)
(0.105764 0.00625694 0)
(0.105536 0.00629875 0)
(0.105309 0.00632988 0)
(0.105086 0.00635068 0)
(0.104865 0.00636156 0)
(0.104649 0.00636293 0)
(0.104436 0.00635529 0)
(0.104227 0.00633911 0)
(0.104023 0.00631493 0)
(0.103823 0.00628328 0)
(0.103629 0.00624471 0)
(0.103439 0.00619975 0)
(0.103254 0.00614894 0)
(0.108912 0.00488517 0)
(0.108691 0.00508142 0)
(0.108464 0.0052659 0)
(0.108232 0.00543843 0)
(0.107996 0.00559891 0)
(0.107757 0.00574719 0)
(0.107516 0.00588318 0)
(0.107272 0.00600681 0)
(0.107027 0.00611808 0)
(0.106782 0.00621701 0)
(0.106537 0.00630368 0)
(0.106293 0.00637821 0)
(0.10605 0.00644078 0)
(0.105809 0.00649162 0)
(0.105571 0.00653102 0)
(0.105335 0.00655932 0)
(0.105102 0.0065769 0)
(0.104873 0.00658419 0)
(0.104648 0.00658166 0)
(0.104427 0.0065698 0)
(0.104211 0.00654914 0)
(0.104 0.00652024 0)
(0.103794 0.00648366 0)
(0.103593 0.00643995 0)
(0.103397 0.0063897 0)
(0.103207 0.00633345 0)
(0.109111 0.00510922 0)
(0.108878 0.00531158 0)
(0.108638 0.00550135 0)
(0.108394 0.00567836 0)
(0.108145 0.00584252 0)
(0.107894 0.00599371 0)
(0.107639 0.00613184 0)
(0.107384 0.00625689 0)
(0.107127 0.00636886 0)
(0.10687 0.00646781 0)
(0.106613 0.00655387 0)
(0.106357 0.00662718 0)
(0.106103 0.00668798 0)
(0.105852 0.00673653 0)
(0.105603 0.00677316 0)
(0.105357 0.00679824 0)
(0.105115 0.0068122 0)
(0.104877 0.0068155 0)
(0.104643 0.00680865 0)
(0.104414 0.00679216 0)
(0.10419 0.00676662 0)
(0.103972 0.00673258 0)
(0.103758 0.00669065 0)
(0.103551 0.00664141 0)
(0.103349 0.00658545 0)
(0.103153 0.00652336 0)
(0.109318 0.005346 0)
(0.109071 0.00555462 0)
(0.108818 0.00574978 0)
(0.10856 0.00593131 0)
(0.108298 0.00609914 0)
(0.108033 0.00625315 0)
(0.107766 0.0063933 0)
(0.107497 0.00651958 0)
(0.107227 0.00663204 0)
(0.106957 0.00673076 0)
(0.106688 0.00681591 0)
(0.10642 0.00688768 0)
(0.106155 0.00694635 0)
(0.105892 0.00699222 0)
(0.105632 0.00702568 0)
(0.105376 0.00704713 0)
(0.105124 0.00705703 0)
(0.104876 0.0070559 0)
(0.104633 0.00704428 0)
(0.104396 0.00702272 0)
(0.104164 0.00699183 0)
(0.103937 0.0069522 0)
(0.103717 0.00690447 0)
(0.103503 0.00684924 0)
(0.103295 0.00678715 0)
(0.103093 0.00671879 0)
(0.109531 0.00559634 0)
(0.10927 0.00581138 0)
(0.109003 0.00601201 0)
(0.108731 0.0061981 0)
(0.108455 0.00636956 0)
(0.108175 0.00652632 0)
(0.107894 0.00666835 0)
(0.107611 0.00679567 0)
(0.107327 0.00690836 0)
(0.107044 0.00700657 0)
(0.106762 0.00709049 0)
(0.106482 0.00716037 0)
(0.106204 0.00721651 0)
(0.105929 0.0072593 0)
(0.105658 0.00728913 0)
(0.105391 0.00730649 0)
(0.105128 0.00731187 0)
(0.104871 0.00730583 0)
(0.104618 0.00728894 0)
(0.104372 0.00726181 0)
(0.104131 0.00722507 0)
(0.103897 0.00717937 0)
(0.103669 0.00712534 0)
(0.103448 0.00706364 0)
(0.103234 0.00699492 0)
(0.103026 0.00691981 0)
(0.109752 0.00586114 0)
(0.109476 0.00608275 0)
(0.109194 0.00628895 0)
(0.108906 0.0064796 0)
(0.108615 0.00665465 0)
(0.108321 0.00681405 0)
(0.108024 0.0069578 0)
(0.107726 0.00708595 0)
(0.107428 0.00719863 0)
(0.107131 0.00729601 0)
(0.106835 0.00737834 0)
(0.106541 0.00744593 0)
(0.10625 0.00749913 0)
(0.105963 0.00753836 0)
(0.10568 0.0075641 0)
(0.105401 0.00757686 0)
(0.105127 0.0075772 0)
(0.104859 0.00756572 0)
(0.104597 0.00754303 0)
(0.104341 0.00750979 0)
(0.104092 0.00746666 0)
(0.103849 0.00741433 0)
(0.103614 0.00735346 0)
(0.103386 0.00728476 0)
(0.103165 0.0072089 0)
(0.102951 0.00712653 0)
(0.10998 0.00614135 0)
(0.109688 0.00636969 0)
(0.10939 0.00658152 0)
(0.109086 0.00677675 0)
(0.108779 0.00695535 0)
(0.108468 0.00711727 0)
(0.108156 0.00726255 0)
(0.107843 0.00739129 0)
(0.107529 0.00750365 0)
(0.107217 0.00759987 0)
(0.106906 0.00768023 0)
(0.106598 0.00774509 0)
(0.106294 0.00779488 0)
(0.105993 0.00783007 0)
(0.105697 0.00785119 0)
(0.105406 0.00785881 0)
(0.105121 0.00785354 0)
(0.104842 0.00783603 0)
(0.104569 0.00780696 0)
(0.104304 0.00776701 0)
(0.104045 0.0077169 0)
(0.103794 0.00765734 0)
(0.103551 0.00758906 0)
(0.103315 0.00751277 0)
(0.103088 0.00742919 0)
(0.102868 0.00733902 0)
(0.110216 0.006438 0)
(0.109907 0.00667321 0)
(0.109591 0.00689076 0)
(0.109271 0.00709057 0)
(0.108946 0.00727262 0)
(0.108618 0.00743692 0)
(0.108289 0.00758354 0)
(0.107959 0.0077126 0)
(0.10763 0.00782433 0)
(0.107301 0.00791899 0)
(0.106975 0.00799695 0)
(0.106652 0.00805863 0)
(0.106333 0.00810449 0)
(0.106018 0.00813509 0)
(0.105709 0.00815101 0)
(0.105405 0.00815289 0)
(0.105108 0.0081414 0)
(0.104818 0.00811723 0)
(0.104534 0.00808113 0)
(0.104259 0.00803382 0)
(0.103991 0.00797608 0)
(0.103731 0.00790866 0)
(0.10348 0.00783232 0)
(0.103237 0.00774782 0)
(0.103002 0.00765591 0)
(0.102777 0.00755732 0)
(0.110459 0.00675221 0)
(0.110132 0.00699442 0)
(0.109798 0.00721774 0)
(0.109459 0.0074221 0)
(0.109116 0.00760753 0)
(0.10877 0.00777404 0)
(0.108423 0.00792175 0)
(0.108076 0.00805084 0)
(0.107729 0.00816156 0)
(0.107384 0.00825426 0)
(0.107041 0.00832935 0)
(0.106702 0.00838732 0)
(0.106368 0.0084287 0)
(0.106039 0.00845411 0)
(0.105715 0.00846421 0)
(0.105398 0.00845969 0)
(0.105088 0.0084413 0)
(0.104786 0.00840979 0)
(0.104491 0.00836596 0)
(0.104205 0.00831059 0)
(0.103927 0.00824451 0)
(0.103659 0.00816852 0)
(0.103399 0.00808343 0)
(0.103148 0.00799004 0)
(0.102907 0.00788913 0)
(0.102675 0.00778149 0)
(0.11071 0.00708516 0)
(0.110363 0.0073345 0)
(0.11001 0.00756363 0)
(0.109651 0.00777251 0)
(0.109289 0.00796118 0)
(0.108924 0.00812971 0)
(0.108558 0.00827824 0)
(0.108192 0.00840701 0)
(0.107826 0.00851633 0)
(0.107463 0.0086066 0)