/*--------------------------------*- C++ -*----------------------------------*\
| =========                 |                                                 |
| \\      /  F ield         | OpenFOAM: The Open Source CFD Toolbox           |
|  \\    /   O peration     | Version:  2412                                  |
|   \\  /    A nd           | Website:  www.openfoam.com                      |
|    \\/     M anipulation  |                                                 |
\*---------------------------------------------------------------------------*/
FoamFile
{
    version     2.0;
    format      ascii;
    arch        "LSB;label=32;scalar=64";
    class       volScalarField;
    location    "5.5";
    object      p;
}
// * * * * * * * * * * * * * * * * * * * * * * * * * * * * * * * * * * * * * //

dimensions      [0 2 -2 0 0 0 0];

internalField   nonuniform List<scalar> 
5285
(
-3.346e-06
-1.59611e-05
-2.77161e-05
-3.86916e-05
-4.88908e-05
-5.83116e-05
-6.69664e-05
-7.48737e-05
-8.20543e-05
-8.85314e-05
-9.43307e-05
-9.94801e-05
-0.000104009
-0.000107948
-0.000111328
-0.000114182
-0.00011654
-0.000118436
-0.000119899
-0.000120962
-0.000121655
-0.000122006
-0.000122044
-0.000121797
-1.94346e-05
-3.23652e-05
-4.42637e-05
-5.53527e-05
-6.5624e-05
-7.50627e-05
-8.36843e-05
-9.15118e-05
-9.85695e-05
-0.000104884
-0.000110483
-0.0001154
-0.000119666
-0.000123316
-0.000126385
-0.000128907
-0.000130917
-0.000132451
-0.000133543
-0.000134225
-0.000134532
-0.000134493
-0.000134141
-0.000133504
-3.64563e-05
-4.97085e-05
-6.17324e-05
-7.29223e-05
-8.32534e-05
-9.26933e-05
-0.000101261
-0.000108985
-0.000115893
-0.000122015
-0.000127384
-0.000132034
-0.000136004
-0.00013933
-0.00014205
-0.000144204
-0.000145831
-0.000146967
-0.00014765
-0.000147918
-0.000147804
-0.000147344
-0.000146569
-0.000145511
-5.44755e-05
-6.80565e-05
-8.01899e-05
-9.14666e-05
-0.000101842
-0.000111263
-0.000119753
-0.000127346
-0.000134074
-0.000139971
-0.000145074
-0.000149422
-0.000153057
-0.000156019
-0.000158352
-0.000160098
-0.0001613
-0.000161999
-0.000162236
-0.00016205
-0.00016148
-0.000160562
-0.000159331
-0.000157821
-7.35647e-05
-8.74835e-05
-9.97093e-05
-0.000111057
-0.000121458
-0.000130837
-0.000139221
-0.000146652
-0.000153166
-0.000158801
-0.000163599
-0.000167603
-0.00017086
-0.000173415
-0.000175317
-0.000176611
-0.000177345
-0.000177563
-0.000177311
-0.000176632
-0.000175565
-0.000174152
-0.000172429
-0.000170432
-9.38077e-05
-0.000108072
-0.000120371
-0.000131769
-0.000142175
-0.000151485
-0.000159731
-0.000166964
-0.000173225
-0.000178556
-0.000183004
-0.000186619
-0.000189451
-0.000191552
-0.000192973
-0.000193767
-0.000193985
-0.000193676
-0.00019289
-0.000191671
-0.000190066
-0.000188117
-0.000185863
-0.000183342
-0.000115295
-0.000129914
-0.000142263
-0.00015369
-0.000164074
-0.000173283
-0.000181355
-0.000188348
-0.000194311
-0.000199291
-0.000203341
-0.000206515
-0.000208869
-0.000210461
-0.000211349
-0.00021159
-0.000211239
-0.000210352
-0.000208981
-0.000207177
-0.000204987
-0.000202457
-0.000199631
-0.000196548
-0.000138127
-0.000153107
-0.000165481
-0.00017691
-0.000187243
-0.000196315
-0.00020417
-0.000210877
-0.000216491
-0.000221067
-0.000224661
-0.000227336
-0.000229154
-0.000230179
-0.000230475
-0.000230103
-0.000229127
-0.000227606
-0.000225596
-0.000223153
-0.000220329
-0.000217173
-0.00021373
-0.000210043
-0.000162415
-0.000177762
-0.000190133
-0.000201533
-0.000211779
-0.000220671
-0.00022826
-0.000234628
-0.000239836
-0.000243945
-0.000247021
-0.000249133
-0.000250349
-0.000250741
-0.000250378
-0.000249331
-0.000247666
-0.000245449
-0.000242743
-0.000239606
-0.000236094
-0.000232261
-0.000228154
-0.000223819
-0.000188283
-0.000204004
-0.000216335
-0.000227671
-0.00023779
-0.000246453
-0.00025372
-0.000259686
-0.000264422
-0.000267996
-0.000270482
-0.000271957
-0.000272498
-0.000272183
-0.000271091
-0.000269296
-0.000266874
-0.000263895
-0.000260428
-0.000256537
-0.000252281
-0.000247717
-0.000242896
-0.000237867
-0.000215868
-0.000231967
-0.00024422
-0.000255447
-0.000265391
-0.000273768
-0.000280648
-0.000286142
-0.000290331
-0.000293292
-0.000295107
-0.000295864
-0.000295647
-0.000294545
-0.000292642
-0.000290022
-0.000286767
-0.000282954
-0.000278657
-0.000273946
-0.000268884
-0.000263533
-0.000257945
-0.000252173
-0.000245328
-0.000261807
-0.000273931
-0.000285
-0.000294712
-0.000302737
-0.000309156
-0.000314097
-0.000317653
-0.000319911
-0.000320965
-0.000320911
-0.000319845
-0.000317864
-0.000315062
-0.000311531
-0.00030736
-0.000302634
-0.000297433
-0.000291831
-0.000285898
-0.000279697
-0.000273287
-0.00026672
-0.000276834
-0.000293693
-0.000305631
-0.000316481
-0.000325896
-0.000333492
-0.000339364
-0.000343659
-0.000346484
-0.000347939
-0.000348128
-0.000347159
-0.000345141
-0.00034218
-0.00033838
-0.000333843
-0.000328666
-0.000322941
-0.000316754
-0.000310187
-0.000303312
-0.000296197
-0.000288904
-0.000281488
-0.000310581
-0.000327818
-0.000339498
-0.000350059
-0.000359099
-0.000366177
-0.000371402
-0.000374945
-0.000376928
-0.000377463
-0.000376671
-0.000374672
-0.000371586
-0.000367532
-0.000362626
-0.000356978
-0.000350696
-0.000343878
-0.000336618
-0.000329003
-0.000321112
-0.000313014
-0.000304776
-0.000296453
-0.000346788
-0.000364394
-0.000375734
-0.000385921
-0.000394495
-0.000400951
-0.000405414
-0.000408082
-0.000409095
-0.000408581
-0.000406675
-0.000403513
-0.000399231
-0.00039396
-0.000387827
-0.000380954
-0.000373457
-0.000365444
-0.000357017
-0.000348267
-0.000339278
-0.000330125
-0.000320875
-0.000311587
-0.0003857
-0.000403663
-0.000414562
-0.000424275
-0.000432277
-0.000437989
-0.000441556
-0.000443208
-0.000443104
-0.000441392
-0.000438223
-0.000433752
-0.00042813
-0.000421501
-0.000414008
-0.000405783
-0.000396953
-0.000387636
-0.000377938
-0.00036796
-0.000357788
-0.000347502
-0.000337171
-0.000326856
-0.000427593
-0.000445893
-0.000456234
-0.000465353
-0.000472656
-0.000477482
-0.000479999
-0.000480472
-0.000479084
-0.000476004
-0.000471404
-0.000465458
-0.000458333
-0.000450193
-0.000441192
-0.000431476
-0.000421184
-0.000410441
-0.000399364
-0.000388056
-0.000376611
-0.00036511
-0.000353626
-0.00034222
-0.000472783
-0.000491392
-0.000501032
-0.000509416
-0.000515871
-0.000519643
-0.00052093
-0.000520036
-0.000517172
-0.00051253
-0.000506308
-0.000498698
-0.000489892
-0.000480067
-0.000469397
-0.000458039
-0.000446142
-0.000433845
-0.000421269
-0.000408526
-0.000395711
-0.000382911
-0.000370198
-0.000357635
-0.000511155
-0.000498634
-0.000485467
-0.000471814
-0.000457821
-0.000443621
-0.000429328
-0.000415043
-0.000400854
-0.000386835
-0.000373049
0.000100618
8.39225e-05
6.78351e-05
5.23724e-05
3.7547e-05
2.33707e-05
9.8611e-06
8.81943e-05
7.09595e-05
5.43478e-05
3.83772e-05
2.30608e-05
8.41985e-06
-5.51772e-06
7.50774e-05
5.72648e-05
4.00934e-05
2.35833e-05
7.74796e-06
-7.37947e-06
-2.17585e-05
6.1217e-05
4.27954e-05
2.50336e-05
7.95311e-06
-8.43261e-06
-2.40769e-05
-3.89233e-05
4.65553e-05
2.74899e-05
9.10361e-06
-8.58041e-06
-2.55487e-05
-4.17386e-05
-5.70768e-05
3.10281e-05
1.12807e-05
-7.76726e-06
-2.60908e-05
-4.36761e-05
-6.04427e-05
-7.62995e-05
1.45663e-05
-5.90459e-06
-2.56545e-05
-4.46566e-05
-6.28968e-05
-8.02743e-05
-9.66797e-05
-2.90395e-06
-2.41449e-05
-4.46409e-05
-6.43641e-05
-8.33002e-05
-0.000101326
-0.000118314
-2.14696e-05
-4.35285e-05
-6.48182e-05
-8.53084e-05
-0.000104985
-0.000123701
-0.000141307
-4.12223e-05
-6.41525e-05
-8.62876e-05
-0.000107595
-0.00012806
-0.000147511
-0.000165775
-6.22652e-05
-8.61247e-05
-0.000109161
-0.00013134
-0.000152646
-0.00017288
-0.000191845
-8.47128e-05
-0.000109565
-0.000133564
-0.000156672
-0.000178877
-0.000199946
-0.000219656
-0.000108693
-0.000134607
-0.000159636
-0.000183738
-0.000206902
-0.000228863
-0.000249367
-0.00013435
-0.000161401
-0.000187532
-0.000212698
-0.000236889
-0.000259803
-0.000281153
-0.000161842
-0.000190115
-0.000217427
-0.000243734
-0.000269025
-0.00029296
-0.00031521
-0.000191351
-0.000220937
-0.000249519
-0.00027705
-0.000303523
-0.000328551
-0.000351761
-0.000223079
-0.00025408
-0.000284029
-0.000312876
-0.000340619
-0.000366822
-0.000391057
-0.000257256
-0.000289784
-0.000321207
-0.000351474
-0.000380585
-0.000408052
-0.00043338
-0.000294143
-0.000328323
-0.00036134
-0.00039314
-0.000423727
-0.000452556
-0.000479054
-0.000334033
-0.000370008
0.000232325
0.000212121
0.000192352
0.000173009
0.000154125
0.000135745
0.0001179
0.000224037
0.000203156
0.000182809
0.000162878
0.000143402
0.000124442
0.00010603
0.000215282
0.000193698
0.000172759
0.00015221
0.000132106
0.000112525
9.35067e-05
0.000206036
0.000183699
0.000162136
0.000140933
0.000120164
9.99303e-05
8.02716e-05
0.000196255
0.000173114
0.000150894
0.000129002
0.000107531
8.66052e-05
6.62704e-05
0.000185901
0.000161897
0.000138986
0.000116368
9.41521e-05
7.24943e-05
5.14426e-05
0.00017493
0.000150003
0.000126362
0.000102976
7.997e-05
5.75352e-05
3.57219e-05
0.000163295
0.000137377
0.000112965
8.87638e-05
6.49199e-05
4.16611e-05
1.90466e-05
0.000150945
0.000123961
9.87315e-05
7.3666e-05
4.89298e-05
2.47928e-05
1.31834e-06
0.000137822
0.000109689
8.35934e-05
5.76086e-05
3.1921e-05
6.84818e-06
-1.7541e-05
0.000123865
9.44917e-05
6.74743e-05
4.051e-05
1.38065e-05
-1.22655e-05
-3.76303e-05
0.000109005
7.82895e-05
5.029e-05
2.22799e-05
-5.5109e-06
-3.26515e-05
-5.90591e-05
9.31672e-05
6.09955e-05
3.19467e-05
2.81754e-06
-2.61391e-05
-5.4425e-05
-8.19491e-05
7.62673e-05
4.25129e-05
1.23403e-05
-1.79891e-05
-4.81986e-05
-7.77145e-05
-0.000106436
5.82141e-05
2.27345e-05
-8.64514e-06
-4.0265e-05
-7.18241e-05
-0.000102664
-0.000132673
3.89064e-05
1.54097e-06
-3.11391e-05
-6.41501e-05
-9.71665e-05
-0.000129434
-0.000160831
1.8232e-05
-2.12007e-05
-5.52862e-05
-8.98011e-05
-0.000124395
-0.000158207
-0.000191102
-3.93271e-06
-4.5639e-05
-8.12488e-05
-0.000117394
-0.000153701
-0.000189187
-0.000223704
-2.77261e-05
-7.19395e-05
-0.000109209
-0.000147128
-0.000185299
-0.000222605
-0.000258882
-0.000258725
-0.000296917
0.000863699
0.000852463
0.000840719
0.000828457
0.000815669
0.000802349
0.00078849
0.000774088
0.000759142
0.000743652
0.000727618
0.000711045
0.000693939
0.00067631
0.000658168
0.000639529
0.000620409
0.000600829
0.000580813
0.000560386
0.00053958
0.000518426
0.000496961
0.000475225
0.000453258
0.000431107
0.000408818
0.000386441
0.000364029
0.000341634
0.000319311
0.000297116
0.000275109
0.000253367
0.000875201
0.00086389
0.000852045
0.000839657
0.000826716
0.000813212
0.00079914
0.000784493
0.00076927
0.000753467
0.000737086
0.000720129
0.000702603
0.000684516
0.000665879
0.000646706
0.000627014
0.000606825
0.000586163
0.000565055
0.000543532
0.000521629
0.000499384
0.000476839
0.000454038
0.00043103
0.000407865
0.000384597
0.000361282
0.000337977
0.000314743
0.000291638
0.000268735
0.000246126
0.000887204
0.000875827
0.000863892
0.000851386
0.000838298
0.000824617
0.000810336
0.000795446
0.000779945
0.000763828
0.000747094
0.000729747
0.000711791
0.000693233
0.000674084
0.000654358
0.000634073
0.000613248
0.000591911
0.000570087
0.000547812
0.00052512
0.000502051
0.000478651
0.000454967
0.000431049
0.000406954
0.000382737
0.00035846
0.000334186
0.000309978
0.000285899
0.000262038
0.000238502
0.00089973
0.0008883
0.000876286
0.000863672
0.000850445
0.000836594
0.000822109
0.00080698
0.000791202
0.000774769
0.00075768
0.000739936
0.00072154
0.000702499
0.000682822
0.000662524
0.000641621
0.000620135
0.000598091
0.000575519
0.000552452
0.000528928
0.000504991
0.000480686
0.000456064
0.000431181
0.000406095
0.000380868
0.000355565
0.000330255
0.000305006
0.000279886
0.000254998
0.000230473
0.000912802
0.000901334
0.000889253
0.000876542
0.000863188
0.000849175
0.000834492
0.000819129
0.000803076
0.000786328
0.000768882
0.000750735
0.00073189
0.000712353
0.000692134
0.000671243
0.0006497
0.000627525
0.000604743
0.000581385
0.000557486
0.000533087
0.000508231
0.000482968
0.000457353
0.000431443
0.000405303
0.000378998
0.000352599
0.000326181
0.000299818
0.000273582
0.000247594
0.000222011
0.000926446
0.000914954
0.000902821
0.000890027
0.000876557
0.000862393
0.000847522
0.00083193
0.000815607
0.000798546
0.000780739
0.000762185
0.000742884
0.000722841
0.000702062
0.000680561
0.000658353
0.00063546
0.000611907
0.000587727
0.000562954
0.000537631
0.000511804
0.000485527
0.000458857
0.000431855
0.000404591
0.000377136
0.000349566
0.000321962
0.000294405
0.000266972
0.000239803
0.000213084
0.000940684
0.000929187
0.000917018
0.000904157
0.000890585
0.000876283
0.000861233
0.000845422
0.000828835
0.000811463
0.000793297
0.000774333
0.00075457
0.000734008
0.000712656
0.000690524
0.000667628
0.000643988
0.000619631
0.000594588
0.000568896
0.0005426
0.000515748
0.000488395
0.000460604
0.000432441
0.000403978
0.000375294
0.00034647
0.000317595
0.000288756
0.000260038
0.000231599
0.000203659
0.000955544
0.00094406
0.000931875
0.000918965
0.000905307
0.00089088
0.000875666
0.000859645
0.000842803
0.000825126
0.000806603
0.000787227
0.000766995
0.000745907
0.000723968
0.000701186
0.000677578
0.000653162
0.000627965
0.000602018
0.000575361
0.000548039
0.000520102
0.00049161
0.000462627
0.000433226
0.000403483
0.000373484
0.000343318
0.000313078
0.000282863
0.000252761
0.000222956
0.000193703
0.000971051
0.000959603
0.000947422
0.000934483
0.000920758
0.000906225
0.000890861
0.000874644
0.000857556
0.000839581
0.000820706
0.000800919
0.000780215
0.000758592
0.000736052
0.000712603
0.000688258
0.000663037
0.000636964
0.000610072
0.0005824
0.000553996
0.000524912
0.000495211
0.000464961
0.00043424
0.000403131
0.000371724
0.000340117
0.000308412
0.000276714
0.000245122
0.000213843
0.000183174
0.000987231
0.000975844
0.000963692
0.000950745
0.000936976
0.000922356
0.00090686
0.000890464
0.000873144
0.000854881
0.000835659
0.000815464
0.000794287
0.000772123
0.000748971
0.000724837
0.000699733
0.000673675
0.00064669
0.000618809
0.000590071
0.000560526
0.000530229
0.000499245
0.000467648
0.000435519
0.000402948
0.000370032
0.000336877
0.000303595
0.000270301
0.000237101
0.00020423
0.000172031
0.00100411
0.000992813
0.000980716
0.000967789
0.000953999
0.000939316
0.00092371
0.000907152
0.000889616
0.000871079
0.00085152
0.000830923
0.000809273
0.000786563
0.000762789
0.000737955
0.000712068
0.000685145
0.000657211
0.000628295
0.000598439
0.000567691
0.000536111
0.000503766
0.000470734
0.000437101
0.000402965
0.000368431
0.000333612
0.000298631
0.000263614
0.000228675
0.000194083
0.000160229
0.00102172
0.00101054
0.000998528
0.000985649
0.000971867
0.000957147
0.000941455
0.000924758
0.000907027
0.000888232
0.00086835
0.000847358
0.000825239
0.000801982
0.000777579
0.000752029
0.000725339
0.000697522
0.0006686
0.000638603
0.000607573
0.000575559
0.000542621
0.000508831
0.00047427
0.000439032
0.000403219
0.000366947
0.000330337
0.000293523
0.000256644
0.000219823
0.000183364
0.000147715
0.00104008
0.00102905
0.00101716
0.00100436
0.000990621
0.000975895
0.000960146
0.000943337
0.000925433
0.000906401
0.000886211
0.000864837
0.000842257
0.000818454
0.000793416
0.000767139
0.000739626
0.000710886
0.000680939
0.000649815
0.000617554
0.000584205
0.000549832
0.000514507
0.000478318
0.000441363
0.000403753
0.000365611
0.000327071
0.000288277
0.000249382
0.00021052
0.000172035
0.000134436
0.00105923
0.00104839
0.00103665
0.00102397
0.0010103
0.000995605
0.000979832
0.000962942
0.000944894
0.000925649
0.000905173
0.000883434
0.000860403
0.000836059
0.000810385
0.000783371
0.000755016
0.000725327
0.000694319
0.00066202
0.000628469
0.000593715
0.000557823
0.00052087
0.000482945
0.000444154
0.000404616
0.000364462
0.000323838
0.000282903
0.000241822
0.000200744
0.000160054
0.000120332
0.00107918
0.00106857
0.00105703
0.00104451
0.00103096
0.00101633
0.00100057
0.00098363
0.000965471
0.000946044
0.000925308
0.000903224
0.000879758
0.000854883
0.000828575
0.000800819
0.000771607
0.000740943
0.000708838
0.000675317
0.000640416
0.000604184
0.000566687
0.000528004
0.000488229
0.000447473
0.000405863
0.000363542
0.000320668
0.000277413
0.000233959
0.000190469
0.000147376
0.000105337
0.00109997
0.00108963
0.00107833
0.00106602
0.00105263
0.00103811
0.0010224
0.00100546
0.000987229
0.000967655
0.00094669
0.000924289
0.00090041
0.000875018
0.000848082
0.000819582
0.000789503
0.000757841
0.000724605
0.000689814
0.000653503
0.000615718
0.000576526
0.000536006
0.000494258
0.000451399
0.000407563
0.000362905
0.000317596
0.000271824
0.00022579
0.000179671
0.000133953
8.93812e-05
0.00112162
0.00111161
0.0011006
0.00108853
0.00107535
0.00106099
0.0010454
0.0010285
0.00101024
0.000990557
0.000969402
0.000946716
0.000922451
0.000896562
0.000869012
0.00083977
0.000808816
0.000776139
0.00074174
0.000705634
0.000667851
0.000628436
0.000587453
0.000544985
0.000501133
0.000456021
0.000409792
0.000362612
0.000314666
0.000266161
0.000217315
0.000168325
0.000119734
7.23862e-05
0.00114415
0.00113452
0.00112385
0.0011121
0.00109918
0.00108504
0.0010696
0.0010528
0.00103456
0.00101483
0.000993525
0.000970595
0.000945978
0.00091962
0.000891475
0.000861502
0.000829672
0.000795965
0.000760375
0.00072291
0.000683594
0.00064247
0.000599598
0.000555063
0.000508968
0.000461443
0.00041264
0.000362735
0.00031193
0.000260451
0.000208537
0.000156407
0.000104666
5.42672e-05
0.000587942
0.000582903
0.000577837
0.000572745
0.000567629
0.000562489
0.000557326
0.000552142
0.000546939
0.000541716
0.000536477
0.000531221
0.00052595
0.000520665
0.000515368
0.000510061
0.000504743
0.000499418
0.000494085
0.000488748
0.000483405
0.000478061
0.000472714
0.000467368
0.000462023
0.000456681
0.000451343
0.000446011
0.000440685
0.000435368
0.000430061
0.000424764
0.00041948
0.000414209
0.000588156
0.000583109
0.000578034
0.000572933
0.000567808
0.000562659
0.000557487
0.000552294
0.000547081
0.000541849
0.000536599
0.000531333
0.000526053
0.000520758
0.000515451
0.000510133
0.000504806
0.00049947
0.000494127
0.000488778
0.000483426
0.00047807
0.000472714
0.000467357
0.000462001
0.000456649
0.0004513
0.000445957
0.000440621
0.000435294
0.000429976
0.000424669
0.000419374
0.000414094
0.000588573
0.000583509
0.000578418
0.0005733
0.000568157
0.000562991
0.000557801
0.00055259
0.000547358
0.000542107
0.000536839
0.000531554
0.000526253
0.000520939
0.000515612
0.000510275
0.000504927
0.000499571
0.000494207
0.000488839
0.000483465
0.000478089
0.000472712
0.000467335
0.000461958
0.000456585
0.000451216
0.000445853
0.000440496
0.000435148
0.00042981
0.000424483
0.000419169
0.000413869
0.000589182
0.000584095
0.000578979
0.000573837
0.000568669
0.000563476
0.00055826
0.000553023
0.000547764
0.000542486
0.000537189
0.000531876
0.000526548
0.000521205
0.000515849
0.000510482
0.000505104
0.000499719
0.000494326
0.000488927
0.000483524
0.000478117
0.00047271
0.000467302
0.000461896
0.000456492
0.000451093
0.0004457
0.000440314
0.000434936
0.000429568
0.000424212
0.000418868
0.000413539
0.000589977
0.000584859
0.000579711
0.000574537
0.000569336
0.00056411
0.00055886
0.000553587
0.000548293
0.00054298
0.000537647
0.000532297
0.000526931
0.000521551
0.000516157
0.000510752
0.000505336
0.000499912
0.00049448
0.000489042
0.0004836
0.000478154
0.000472707
0.00046726
0.000461814
0.000456371
0.000450933
0.0004455
0.000440075
0.000434658
0.000429252
0.000423858
0.000418476
0.000413109
0.00059095
0.000585794
0.000580608
0.000575394
0.000570153
0.000564886
0.000559594
0.000554279
0.000548942
0.000543585
0.000538208
0.000532813
0.000527402
0.000521976
0.000516536
0.000511084
0.000505621
0.000500149
0.000494669
0.000489183
0.000483693
0.000478199
0.000472704
0.000467208
0.000461714
0.000456223
0.000450736
0.000445256
0.000439783
0.000434318
0.000428865
0.000423423
0.000417995
0.000412582
0.000592096
0.000586895
0.000581664
0.000576403
0.000571115
0.0005658
0.000560459
0.000555094
0.000549707
0.000544298
0.000538869
0.000533421
0.000527957
0.000522476
0.000516982
0.000511475
0.000505957
0.000500429
0.000494893
0.00048935
0.000483803
0.000478253
0.0004727
0.000467148
0.000461597
0.000456048
0.000450505
0.000444968
0.000439438
0.000433918
0.000428408
0.000422912
0.000417429
0.000411961
0.000593409
0.000588158
0.000582875
0.000577561
0.000572219
0.000566849
0.000561452
0.00055603
0.000550584
0.000545117
0.000539628
0.00053412
0.000528594
0.000523052
0.000517495
0.000511924
0.000506342
0.00050075
0.00049515
0.000489543
0.00048393
0.000478314
0.000472697
0.000467079
0.000461462
0.000455848
0.000450239
0.000444637
0.000439043
0.000433458
0.000427884
0.000422324
0.000416778
0.000411248
0.000594886
0.000589578
0.000584237
0.000578864
0.000573461
0.000568029
0.00056257
0.000557084
0.000551573
0.000546039
0.000540483
0.000534907
0.000529312
0.0005237
0.000518073
0.000512431
0.000506778
0.000501113
0.00049544
0.00048976
0.000484074
0.000478385
0.000472693
0.000467001
0.000461311
0.000455623
0.000449941
0.000444265
0.000438597
0.00043294
0.000427294
0.000421662
0.000416045
0.000410445
0.000596524
0.000591154
0.000585748
0.00058031
0.00057484
0.00056934
0.000563811
0.000558254
0.000552671
0.000547063
0.000541433
0.000535781
0.00053011
0.000524421
0.000518715
0.000512995
0.000507262
0.000501517
0.000495764
0.000490002
0.000484235
0.000478463
0.00047269
0.000466916
0.000461143
0.000455374
0.00044961
0.000443852
0.000438103
0.000432365
0.000426639
0.000420927
0.000415231
0.000409552
0.000598321
0.000592882
0.000587407
0.000581897
0.000576354
0.000570779
0.000565173
0.000559538
0.000553877
0.000548189
0.000542477
0.000536743
0.000530988
0.000525214
0.000519422
0.000513615
0.000507795
0.000501962
0.00049612
0.000490269
0.000484412
0.000478551
0.000472687
0.000466823
0.00046096
0.000455101
0.000449246
0.000443399
0.000437561
0.000431733
0.000425919
0.000420119
0.000414336
0.000408572
0.000600274
0.000594761
0.00058921
0.000583623
0.000578001
0.000572345
0.000566656
0.000560938
0.00055519
0.000549415
0.000543615
0.000537791
0.000531945
0.000526078
0.000520194
0.000514292
0.000508377
0.000502448
0.000496509
0.000490562
0.000484607
0.000478648
0.000472686
0.000466723
0.000460762
0.000454804
0.000448851
0.000442906
0.00043697
0.000431046
0.000425135
0.00041924
0.000413362
0.000407504
0.000602382
0.00059679
0.000591158
0.000585488
0.00057978
0.000574037
0.00056826
0.000562451
0.000556611
0.000550742
0.000544846
0.000538925
0.000532981
0.000527015
0.000521029
0.000515026
0.000509008
0.000502976
0.000496932
0.000490879
0.000484819
0.000478754
0.000472686
0.000466616
0.000460549
0.000454484
0.000448425
0.000442374
0.000436333
0.000430303
0.000424288
0.000418289
0.000412309
0.000406349
0.000604645
0.000598969
0.00059325
0.000587491
0.000581693
0.000575857
0.000569985
0.000564078
0.000558139
0.00055217
0.000546172
0.000540147
0.000534097
0.000528024
0.00052193
0.000515818
0.000509689
0.000503545
0.000497389
0.000491223
0.00048505
0.00047887
0.000472687
0.000466504
0.000460321
0.000454142
0.000447968
0.000441803
0.000435648
0.000429505
0.000423377
0.000417267
0.000411176
0.000405106
0.000607062
0.000601297
0.000595486
0.000589633
0.000583738
0.000577803
0.00057183
0.00056582
0.000559776
0.000553699
0.000547592
0.000541456
0.000535293
0.000529106
0.000522897
0.000516667
0.00051042
0.000504157
0.000497881
0.000491594
0.000485299
0.000478997
0.000472692
0.000466385
0.000460079
0.000453777
0.00044748
0.000441192
0.000434915
0.000428652
0.000422403
0.000416173
0.000409964
0.000403777
0.000609634
0.000603774
0.000597867
0.000591914
0.000585917
0.000579877
0.000573797
0.000567678
0.000561522
0.000555331
0.000549108
0.000542854
0.000536571
0.000530263
0.00052393
0.000517576
0.000511203
0.000504813
0.000498409
0.000491993
0.000485567
0.000479135
0.000472699
0.000466261
0.000459823
0.00045339
0.000446962
0.000440544
0.000434136
0.000427743
0.000421366
0.000415008
0.000408672
0.00040236
0.00061236
0.000606402
0.000600393
0.000594335
0.00058823
0.00058208
0.000575886
0.000569652
0.000563378
0.000557067
0.000550721
0.000544342
0.000537932
0.000531495
0.000525032
0.000518546
0.000512039
0.000505514
0.000498973
0.00049242
0.000485856
0.000479285
0.00047271
0.000466132
0.000459555
0.000452981
0.000446414
0.000439856
0.00043331
0.000426779
0.000420264
0.000413771
0.0004073
0.000400854
0.000615243
0.000609181
0.000603065
0.000596897
0.000590679
0.000584413
0.000578101
0.000571744
0.000565346
0.000558908
0.000552432
0.000545921
0.000539378
0.000532804
0.000526203
0.000519577
0.000512929
0.000506261
0.000499576
0.000492877
0.000486167
0.000479449
0.000472725
0.000465999
0.000459274
0.000452552
0.000445836
0.00043913
0.000432437
0.000425759
0.000419099
0.000412461
0.000405846
0.000399259
0.000618283
0.000612112
0.000605885
0.000599602
0.000593265
0.000586878
0.000580441
0.000573957
0.000567428
0.000560856
0.000554244
0.000547595
0.00054091
0.000534193
0.000527446
0.000520672
0.000513874
0.000507055
0.000500218
0.000493365
0.0004865
0.000479626
0.000472746
0.000465863
0.00045898
0.000452101
0.000445228
0.000438366
0.000431516
0.000424683
0.000417869
0.000411077
0.000404312
0.000397575
0.000621481
0.000615198
0.000608854
0.000602451
0.000595991
0.000589477
0.000582909
0.000576291
0.000569625
0.000562914
0.000556159
0.000549363
0.00054253
0.000535662
0.000528762
0.000521833
0.000514877
0.000507899
0.0005009
0.000493885
0.000486857
0.000479818
0.000472773
0.000465724
0.000458675
0.00045163
0.000444591
0.000437563
0.000430548
0.00042355
0.000416573
0.00040962
0.000402694
0.000395799
0.00062484
0.00061844
0.000611975
0.000605447
0.000598859
0.000592212
0.000585508
0.000578751
0.000571941
0.000565083
0.000558178
0.00055123
0.000544241
0.000537215
0.000530154
0.000523061
0.00051594
0.000508794
0.000501626
0.00049444
0.000487239
0.000480027
0.000472807
0.000465583
0.000458359
0.000451138
0.000443925
0.000436721
0.000429532
0.000422361
0.000415212
0.000408088
0.000400993
0.00039393
0.000628361
0.00062184
0.00061525
0.000608593
0.000601871
0.000595086
0.00058824
0.000581337
0.000574378
0.000567367
0.000560306
0.000553198
0.000546046
0.000538853
0.000531623
0.000524359
0.000517064
0.000509742
0.000502396
0.00049503
0.000487648
0.000480253
0.00047285
0.000465442
0.000458033
0.000450628
0.000443229
0.000435841
0.000428469
0.000421115
0.000413784
0.00040648
0.000399207
0.000391968
0.000632046
0.000625401
0.000618681
0.00061189
0.000605029
0.000598101
0.000591109
0.000584054
0.000576939
0.000569769
0.000562544
0.000555269
0.000547947
0.00054058
0.000533173
0.000525729
0.000518252
0.000510745
0.000503212
0.000495658
0.000488085
0.000480499
0.000472903
0.000465301
0.000457698
0.000450098
0.000442505
0.000434923
0.000427357
0.000419811
0.000412289
0.000404796
0.000397335
0.00038991
0.000635899
0.000629124
0.000622271
0.000615341
0.000608337
0.000601261
0.000594116
0.000586903
0.000579627
0.00057229
0.000564896
0.000557447
0.000549946
0.000542398
0.000534807
0.000527175
0.000519507
0.000511806
0.000504078
0.000496325
0.000488553
0.000480765
0.000472966
0.000465161
0.000457354
0.00044955
0.000441752
0.000433967
0.000426197
0.000418449
0.000410726
0.000403033
0.000395375
0.000387756
0.000639921
0.000633014
0.000626023
0.00061895
0.000611798
0.000604569
0.000597265
0.00058989
0.000582446
0.000574936
0.000567364
0.000559734
0.000552048
0.000544311
0.000536526
0.000528698
0.000520831
0.000512928
0.000504994
0.000497034
0.000489053
0.000481054
0.000473043
0.000465024
0.000457003
0.000448984
0.000440972
0.000432972
0.000424989
0.000417028
0.000409094
0.000401192
0.000393326
0.000385503
0.000644115
0.000637072
0.00062994
0.00062272
0.000615415
0.000608027
0.00060056
0.000593016
0.000585398
0.000577709
0.000569954
0.000562135
0.000554256
0.000546322
0.000538336
0.000530303
0.000522227
0.000514113
0.000505965
0.000497788
0.000489587
0.000481367
0.000473133
0.000464891
0.000456645
0.000448401
0.000440163
0.000431939
0.000423732
0.000415548
0.000407392
0.00039927
0.000391187
0.000383149
0.000648484
0.000641302
0.000634024
0.000626653
0.000619191
0.000611641
0.000604004
0.000596286
0.000588487
0.000580613
0.000572667
0.000564652
0.000556573
0.000548434
0.000540239
0.000531992
0.000523699
0.000515364
0.000506992
0.000498588
0.000490158
0.000481707
0.00047324
0.000464763
0.000456281
0.000447801
0.000439328
0.000430867
0.000422425
0.000414007
0.00040562
0.000397267
0.000388956
0.000380692
0.000653031
0.000645707
0.00063828
0.000630754
0.000623131
0.000615412
0.000607602
0.000599703
0.000591719
0.000583653
0.000575509
0.000567291
0.000559004
0.000550651
0.000542238
0.000533769
0.000525249
0.000516684
0.000508078
0.000499438
0.000490768
0.000482075
0.000473364
0.000464642
0.000455914
0.000447187
0.000438466
0.000429758
0.00042107
0.000412407
0.000403775
0.000395182
0.000386632
0.000378132
0.000657758
0.00065029
0.000642711
0.000635026
0.000627237
0.000619346
0.000611357
0.000603272
0.000595096
0.000586831
0.000578483
0.000570055
0.000561551
0.000552977
0.000544338
0.000535638
0.000526882
0.000518077
0.000509227
0.000500339
0.00049142
0.000482474
0.000473508
0.000464529
0.000455543
0.000446557
0.000437578
0.000428612
0.000419665
0.000410745
0.000401858
0.000393012
0.000384212
0.000375464
0.00066267
0.000655054
0.00064732
0.000639473
0.000631514
0.000623446
0.000615273
0.000606997
0.000598622
0.000590153
0.000581594
0.000572948
0.000564221
0.000555417
0.000546542
0.000537602
0.000528601
0.000519546
0.000510442
0.000501297
0.000492116
0.000482906
0.000473674
0.000464427
0.000455171
0.000445915
0.000436664
0.000427427
0.000418211
0.000409022
0.000399868
0.000390756
0.000381694
0.000372688
0.000667769
0.000660002
0.000652111
0.000644098
0.000635965
0.000627716
0.000619354
0.000610882
0.000602303
0.000593623
0.000584845
0.000575975
0.000567016
0.000557974
0.000548856
0.000539665
0.00053041
0.000521094
0.000511727
0.000502313
0.000492859
0.000483374
0.000473864
0.000464337
0.0004548
0.00044526
0.000435726
0.000426206
0.000416707
0.000407236
0.000397803
0.000388414
0.000379078
0.000369801
0.000673058
0.000665139
0.000657087
0.000648905
0.000640596
0.000632161
0.000623605
0.000614931
0.000606143
0.000597246
0.000588243
0.00057914
0.000569942
0.000560654
0.000551282
0.000541833
0.000532312
0.000522727
0.000513084
0.00050339
0.000493654