/*--------------------------------*- C++ -*----------------------------------*\
| =========                 |                                                 |
| \\      /  F ield         | OpenFOAM: The Open Source CFD Toolbox           |
|  \\    /   O peration     | Version:  2412                                  |
|   \\  /    A nd           | Website:  www.openfoam.com                      |
|    \\/     M anipulation  |                                                 |
\*---------------------------------------------------------------------------*/
FoamFile
{
    version     2.0;
    format      ascii;
    arch        "LSB;label=32;scalar=64";
    class       volVectorField;
    location    "26.5";
    object      U;
}
// * * * * * * * * * * * * * * * * * * * * * * * * * * * * * * * * * * * * * //

dimensions      [0 1 -1 0 0 0 0];

internalField   nonuniform List<vector> 
5285
(
(0.0980181 -2.53641e-05 0)
(0.0981355 -2.36691e-05 0)
(0.0982474 -2.21141e-05 0)
(0.0983541 -2.06733e-05 0)
(0.0984558 -1.93271e-05 0)
(0.0985529 -1.80616e-05 0)
(0.0986454 -1.68676e-05 0)
(0.0987334 -1.57393e-05 0)
(0.0988173 -1.46728e-05 0)
(0.098897 -1.36655e-05 0)
(0.0989726 -1.27153e-05 0)
(0.0990444 -1.18202e-05 0)
(0.0991125 -1.0978e-05 0)
(0.099177 -1.01865e-05 0)
(0.099238 -9.44339e-06 0)
(0.0992957 -8.74632e-06 0)
(0.0993501 -8.09292e-06 0)
(0.0994016 -7.4809e-06 0)
(0.09945 -6.90807e-06 0)
(0.0994957 -6.37232e-06 0)
(0.0995386 -5.87165e-06 0)
(0.099579 -5.40416e-06 0)
(0.0996169 -4.968e-06 0)
(0.0996524 -4.56134e-06 0)
(0.0996857 -4.18249e-06 0)
(0.0997168 -3.8298e-06 0)
(0.0997459 -3.50183e-06 0)
(0.099773 -3.19721e-06 0)
(0.0997983 -2.91468e-06 0)
(0.0998217 -2.65297e-06 0)
(0.0998435 -2.4107e-06 0)
(0.0998637 -2.18649e-06 0)
(0.0998824 -1.97907e-06 0)
(0.0998996 -1.78738e-06 0)
(0.0999155 -1.61066e-06 0)
(0.0999301 -1.44832e-06 0)
(0.0999435 -1.29973e-06 0)
(0.0999558 -1.16423e-06 0)
(0.099967 -1.04086e-06 0)
(0.0999772 -9.28682e-07 0)
(0.0999865 -8.26592e-07 0)
(0.0999949 -7.33913e-07 0)
(0.100003 -6.49617e-07 0)
(0.100009 -5.73881e-07 0)
(0.100016 -5.05443e-07 0)
(0.100021 -4.45342e-07 0)
(0.100026 -3.9095e-07 0)
(0.100031 -3.448e-07 0)
(0.100035 -3.01905e-07 0)
(0.100038 -2.68321e-07 0)
(0.100042 -2.35131e-07 0)
(0.100044 -2.14015e-07 0)
(0.100049 -1.89411e-07 0)
(0.100049 -1.81507e-07 0)
(0.100055 -1.6445e-07 0)
(0.100053 -1.69707e-07 0)
(0.10006 -1.5945e-07 0)
(0.100057 -1.78052e-07 0)
(0.100067 -1.76308e-07 0)
(0.100062 -2.0712e-07 0)
(0.100074 -2.18891e-07 0)
(0.100068 -2.60388e-07 0)
(0.100084 -2.90135e-07 0)
(0.100076 -3.45425e-07 0)
(0.100096 -3.95401e-07 0)
(0.100088 -4.60811e-07 0)
(0.100113 -5.82442e-07 0)
(0.100107 -5.56461e-07 0)
(0.100135 -8.40906e-07 0)
(0.100135 -8.40451e-07 0)
(0.100169 -9.79348e-07 0)
(0.0980192 -7.59838e-05 0)
(0.0981366 -7.09138e-05 0)
(0.0982484 -6.62627e-05 0)
(0.0983551 -6.19527e-05 0)
(0.0984568 -5.79256e-05 0)
(0.0985538 -5.414e-05 0)
(0.0986462 -5.0568e-05 0)
(0.0987342 -4.71919e-05 0)
(0.098818 -4.40006e-05 0)
(0.0988976 -4.0986e-05 0)
(0.0989732 -3.81419e-05 0)
(0.099045 -3.54623e-05 0)
(0.099113 -3.2941e-05 0)
(0.0991775 -3.05713e-05 0)
(0.0992384 -2.83467e-05 0)
(0.0992961 -2.62599e-05 0)
(0.0993505 -2.43041e-05 0)
(0.0994019 -2.24724e-05 0)
(0.0994503 -2.07581e-05 0)
(0.099496 -1.91547e-05 0)
(0.0995389 -1.76563e-05 0)
(0.0995792 -1.62568e-05 0)
(0.0996171 -1.49507e-05 0)
(0.0996526 -1.37327e-05 0)
(0.0996859 -1.25976e-05 0)
(0.099717 -1.15407e-05 0)
(0.099746 -1.05576e-05 0)
(0.0997731 -9.64397e-06 0)
(0.0997984 -8.79594e-06 0)
(0.0998218 -8.00971e-06 0)
(0.0998436 -7.28149e-06 0)
(0.0998638 -6.60767e-06 0)
(0.0998824 -5.98479e-06 0)
(0.0998997 -5.40977e-06 0)
(0.0999156 -4.8799e-06 0)
(0.0999302 -4.39274e-06 0)
(0.0999436 -3.94594e-06 0)
(0.0999558 -3.53722e-06 0)
(0.099967 -3.164e-06 0)
(0.0999773 -2.82406e-06 0)
(0.0999866 -2.5146e-06 0)
(0.099995 -2.23412e-06 0)
(0.100003 -1.97957e-06 0)
(0.100009 -1.75119e-06 0)
(0.100016 -1.54473e-06 0)
(0.100021 -1.3631e-06 0)
(0.100026 -1.19851e-06 0)
(0.100031 -1.05889e-06 0)
(0.100035 -9.29619e-07 0)
(0.100038 -8.28578e-07 0)
(0.100043 -7.28978e-07 0)
(0.100044 -6.654e-07 0)
(0.100049 -5.90904e-07 0)
(0.100049 -5.65554e-07 0)
(0.100055 -5.12559e-07 0)
(0.100053 -5.26109e-07 0)
(0.10006 -4.93303e-07 0)
(0.100057 -5.46302e-07 0)
(0.100067 -5.38941e-07 0)
(0.100062 -6.28738e-07 0)
(0.100074 -6.61268e-07 0)
(0.100068 -7.83131e-07 0)
(0.100084 -8.71321e-07 0)
(0.100076 -1.03524e-06 0)
(0.100096 -1.18386e-06 0)
(0.100088 -1.38032e-06 0)
(0.100113 -1.74365e-06 0)
(0.100107 -1.66681e-06 0)
(0.100135 -2.51362e-06 0)
(0.100135 -2.51149e-06 0)
(0.100169 -2.92544e-06 0)
(0.0980215 -0.000126579 0)
(0.0981388 -0.000118132 0)
(0.0982505 -0.000110383 0)
(0.0983571 -0.000103202 0)
(0.0984587 -9.64923e-05 0)
(0.0985555 -9.01856e-05 0)
(0.0986479 -8.42357e-05 0)
(0.0987358 -7.86128e-05 0)
(0.0988194 -7.3298e-05 0)
(0.098899 -6.82779e-05 0)
(0.0989745 -6.35419e-05 0)
(0.0990461 -5.90799e-05 0)
(0.0991141 -5.48815e-05 0)
(0.0991784 -5.09358e-05 0)
(0.0992393 -4.72314e-05 0)
(0.0992969 -4.37567e-05 0)
(0.0993512 -4.05001e-05 0)
(0.0994025 -3.74502e-05 0)
(0.0994509 -3.45957e-05 0)
(0.0994965 -3.19261e-05 0)
(0.0995394 -2.94309e-05 0)
(0.0995797 -2.71004e-05 0)
(0.0996175 -2.49254e-05 0)
(0.099653 -2.28968e-05 0)
(0.0996862 -2.10062e-05 0)
(0.0997173 -1.92458e-05 0)
(0.0997463 -1.76081e-05 0)
(0.0997734 -1.6086e-05 0)
(0.0997986 -1.4673e-05 0)
(0.099822 -1.33627e-05 0)
(0.0998438 -1.21489e-05 0)
(0.0998639 -1.10258e-05 0)
(0.0998826 -9.98781e-06 0)
(0.0998998 -9.02975e-06 0)
(0.0999157 -8.147e-06 0)
(0.0999303 -7.33526e-06 0)
(0.0999437 -6.59046e-06 0)
(0.0999559 -5.90871e-06 0)
(0.0999671 -5.28581e-06 0)
(0.0999773 -4.71828e-06 0)
(0.0999866 -4.20158e-06 0)
(0.099995 -3.73341e-06 0)
(0.100003 -3.30873e-06 0)
(0.10001 -2.9278e-06 0)
(0.100016 -2.58341e-06 0)
(0.100021 -2.28033e-06 0)
(0.100027 -2.00561e-06 0)
(0.100031 -1.77258e-06 0)
(0.100035 -1.55698e-06 0)
(0.100038 -1.38853e-06 0)
(0.100043 -1.22256e-06 0)
(0.100044 -1.11656e-06 0)
(0.100049 -9.92196e-07 0)
(0.100049 -9.49425e-07 0)
(0.100055 -8.60498e-07 0)
(0.100053 -8.82369e-07 0)
(0.10006 -8.27006e-07 0)
(0.100057 -9.14437e-07 0)
(0.100067 -9.01424e-07 0)
(0.100062 -1.05023e-06 0)
(0.100074 -1.10354e-06 0)
(0.100068 -1.30556e-06 0)
(0.100083 -1.45283e-06 0)
(0.100076 -1.72384e-06 0)
(0.100096 -1.97396e-06 0)
(0.100088 -2.29755e-06 0)
(0.100113 -2.90541e-06 0)
(0.100107 -2.78001e-06 0)
(0.100135 -4.18128e-06 0)
(0.100135 -4.1842e-06 0)
(0.100169 -4.8749e-06 0)
(0.098025 -0.00017713 0)
(0.0981421 -0.000165306 0)
(0.0982537 -0.000154455 0)
(0.0983601 -0.000144399 0)
(0.0984615 -0.000135005 0)
(0.0985582 -0.000126176 0)
(0.0986504 -0.000117849 0)
(0.0987381 -0.000109981 0)
(0.0988216 -0.000102545 0)
(0.098901 -9.55221e-05 0)
(0.0989763 -8.88976e-05 0)
(0.0990478 -8.26567e-05 0)
(0.0991156 -7.67846e-05 0)
(0.0991798 -7.12661e-05 0)
(0.0992406 -6.60852e-05 0)
(0.099298 -6.12255e-05 0)
(0.0993523 -5.66708e-05 0)
(0.0994035 -5.24052e-05 0)
(0.0994518 -4.84128e-05 0)
(0.0994973 -4.46789e-05 0)
(0.0995401 -4.11889e-05 0)
(0.0995804 -3.79291e-05 0)
(0.0996181 -3.48866e-05 0)
(0.0996535 -3.20488e-05 0)
(0.0996867 -2.9404e-05 0)
(0.0997177 -2.69412e-05 0)
(0.0997467 -2.46499e-05 0)
(0.0997738 -2.25202e-05 0)
(0.0997989 -2.0543e-05 0)
(0.0998223 -1.87093e-05 0)
(0.0998441 -1.70107e-05 0)
(0.0998642 -1.54389e-05 0)
(0.0998828 -1.39863e-05 0)
(0.0999 -1.26457e-05 0)
(0.0999159 -1.14105e-05 0)
(0.0999304 -1.02746e-05 0)
(0.0999438 -9.23214e-06 0)
(0.099956 -8.2777e-06 0)
(0.0999672 -7.40542e-06 0)
(0.0999774 -6.61053e-06 0)
(0.0999867 -5.88683e-06 0)
(0.0999951 -5.23119e-06 0)
(0.100003 -4.63656e-06 0)
(0.10001 -4.10323e-06 0)
(0.100016 -3.62107e-06 0)
(0.100021 -3.19667e-06 0)
(0.100027 -2.81194e-06 0)
(0.100031 -2.4856e-06 0)
(0.100035 -2.18376e-06 0)
(0.100038 -1.94798e-06 0)
(0.100043 -1.7157e-06 0)
(0.100044 -1.56733e-06 0)
(0.100049 -1.39313e-06 0)
(0.100049 -1.33302e-06 0)
(0.100055 -1.20815e-06 0)
(0.100053 -1.23841e-06 0)
(0.10006 -1.16043e-06 0)
(0.100057 -1.2824e-06 0)
(0.100067 -1.26364e-06 0)
(0.100062 -1.47153e-06 0)
(0.100074 -1.54562e-06 0)
(0.100068 -1.82748e-06 0)
(0.100083 -2.03484e-06 0)
(0.100076 -2.41043e-06 0)
(0.100096 -2.76674e-06 0)
(0.100088 -3.21106e-06 0)
(0.100113 -4.06805e-06 0)
(0.100107 -3.89788e-06 0)
(0.100135 -5.84065e-06 0)
(0.100135 -5.85967e-06 0)
(0.100169 -6.82985e-06 0)
(0.0980296 -0.000227616 0)
(0.0981466 -0.000212412 0)
(0.098258 -0.000198456 0)
(0.0983641 -0.000185522 0)
(0.0984654 -0.000173441 0)
(0.0985618 -0.000162089 0)
(0.0986537 -0.000151385 0)
(0.0987412 -0.000141274 0)
(0.0988245 -0.00013172 0)
(0.0989036 -0.000122699 0)
(0.0989788 -0.000114191 0)
(0.0990501 -0.000106176 0)
(0.0991177 -9.86354e-05 0)
(0.0991817 -9.15488e-05 0)
(0.0992423 -8.48957e-05 0)
(0.0992996 -7.86551e-05 0)
(0.0993538 -7.28062e-05 0)
(0.0994048 -6.73282e-05 0)
(0.099453 -6.22012e-05 0)
(0.0994984 -5.74058e-05 0)
(0.0995411 -5.29235e-05 0)
(0.0995813 -4.87368e-05 0)
(0.099619 -4.48289e-05 0)
(0.0996543 -4.11838e-05 0)
(0.0996874 -3.77865e-05 0)
(0.0997184 -3.46228e-05 0)
(0.0997473 -3.16793e-05 0)
(0.0997743 -2.89434e-05 0)
(0.0997994 -2.64031e-05 0)
(0.0998227 -2.40471e-05 0)
(0.0998444 -2.18645e-05 0)
(0.0998645 -1.98449e-05 0)
(0.0998831 -1.79785e-05 0)
(0.0999003 -1.6256e-05 0)
(0.0999161 -1.4669e-05 0)
(0.0999306 -1.32094e-05 0)
(0.099944 -1.18698e-05 0)
(0.0999562 -1.06432e-05 0)
(0.0999674 -9.52189e-06 0)
(0.0999775 -8.50001e-06 0)
(0.0999868 -7.56964e-06 0)
(0.0999952 -6.72682e-06 0)
(0.100003 -5.96249e-06 0)
(0.10001 -5.27702e-06 0)
(0.100016 -4.65728e-06 0)
(0.100021 -4.11175e-06 0)
(0.100027 -3.61716e-06 0)
(0.100031 -3.19769e-06 0)
(0.100035 -2.80969e-06 0)
(0.100038 -2.50674e-06 0)
(0.100043 -2.20817e-06 0)
(0.100044 -2.01761e-06 0)
(0.100049 -1.79353e-06 0)
(0.100049 -1.71625e-06 0)
(0.100055 -1.55531e-06 0)
(0.100053 -1.59419e-06 0)
(0.10006 -1.4934e-06 0)
(0.100057 -1.65017e-06 0)
(0.100067 -1.62539e-06 0)
(0.100062 -1.89263e-06 0)
(0.100074 -1.98734e-06 0)
(0.100068 -2.34877e-06 0)
(0.100083 -2.61743e-06 0)
(0.100076 -3.09435e-06 0)
(0.100096 -3.56306e-06 0)
(0.100088 -4.11959e-06 0)
(0.100113 -5.23177e-06 0)
(0.100107 -5.02217e-06 0)
(0.100135 -7.48861e-06 0)
(0.100135 -7.53907e-06 0)
(0.100169 -8.79206e-06 0)
(0.0980355 -0.00027801 0)
(0.0981522 -0.000259426 0)
(0.0982633 -0.000242362 0)
(0.0983692 -0.000226546 0)
(0.0984702 -0.000211775 0)
(0.0985663 -0.0001979 0)
(0.0986579 -0.00018482 0)
(0.0987451 -0.00017247 0)
(0.0988281 -0.000160804 0)
(0.0989069 -0.00014979 0)
(0.0989818 -0.000139405 0)
(0.0990529 -0.000129622 0)
(0.0991203 -0.000120419 0)
(0.0991841 -0.00011177 0)
(0.0992445 -0.000103651 0)
(0.0993016 -9.60345e-05 0)
(0.0993556 -8.88961e-05 0)
(0.0994065 -8.22103e-05 0)
(0.0994545 -7.59526e-05 0)
(0.0994998 -7.00994e-05 0)
(0.0995424 -6.46282e-05 0)
(0.0995824 -5.95175e-05 0)
(0.09962 -5.47469e-05 0)
(0.0996552 -5.0297e-05 0)
(0.0996882 -4.61494e-05 0)
(0.0997191 -4.22869e-05 0)
(0.099748 -3.8693e-05 0)
(0.0997749 -3.53524e-05 0)
(0.0997999 -3.22505e-05 0)
(0.0998233 -2.93735e-05 0)
(0.0998449 -2.67082e-05 0)
(0.0998649 -2.42418e-05 0)
(0.0998835 -2.19625e-05 0)
(0.0999006 -1.9859e-05 0)
(0.0999164 -1.79209e-05 0)
(0.0999309 -1.61385e-05 0)
(0.0999442 -1.45024e-05 0)
(0.0999564 -1.30041e-05 0)
(0.0999676 -1.16343e-05 0)
(0.0999777 -1.03859e-05 0)
(0.099987 -9.2493e-06 0)
(0.0999953 -8.21967e-06 0)
(0.100003 -7.28598e-06 0)
(0.10001 -6.44867e-06 0)
(0.100016 -5.69161e-06 0)
(0.100021 -5.02522e-06 0)
(0.100027 -4.42094e-06 0)
(0.100031 -3.90856e-06 0)
(0.100035 -3.4345e-06 0)
(0.100038 -3.06461e-06 0)
(0.100043 -2.69976e-06 0)
(0.100044 -2.46725e-06 0)
(0.100049 -2.19318e-06 0)
(0.100049 -2.09904e-06 0)
(0.100055 -1.90181e-06 0)
(0.100053 -1.94967e-06 0)
(0.10006 -1.82572e-06 0)
(0.100057 -2.01775e-06 0)
(0.100067 -1.98649e-06 0)
(0.100062 -2.3135e-06 0)
(0.100074 -2.42853e-06 0)
(0.100068 -2.86929e-06 0)
(0.100083 -3.20065e-06 0)
(0.100076 -3.775e-06 0)
(0.100096 -4.36364e-06 0)
(0.100089 -5.02198e-06 0)
(0.100113 -6.39668e-06 0)
(0.100108 -6.15442e-06 0)
(0.100135 -9.12237e-06 0)
(0.100135 -9.2235e-06 0)
(0.100169 -1.07631e-05 0)
(0.0980427 -0.000328281 0)
(0.098159 -0.000306319 0)
(0.0982698 -0.000286145 0)
(0.0983754 -0.000267445 0)
(0.0984759 -0.000249982 0)
(0.0985717 -0.000233584 0)
(0.098663 -0.000218132 0)
(0.0987498 -0.000203547 0)
(0.0988324 -0.000189774 0)
(0.0989109 -0.000176776 0)
(0.0989855 -0.00016452 0)
(0.0990563 -0.000152978 0)
(0.0991233 -0.00014212 0)
(0.0991869 -0.000131917 0)
(0.0992471 -0.000122338 0)
(0.099304 -0.000113352 0)
(0.0993577 -0.000104931 0)
(0.0994085 -9.70423e-05 0)
(0.0994563 -8.96588e-05 0)
(0.0995014 -8.27523e-05 0)
(0.0995439 -7.62962e-05 0)
(0.0995837 -7.02652e-05 0)
(0.0996212 -6.46353e-05 0)
(0.0996563 -5.93835e-05 0)
(0.0996893 -5.44884e-05 0)
(0.09972 -4.99294e-05 0)
(0.0997488 -4.56873e-05 0)
(0.0997756 -4.1744e-05 0)
(0.0998006 -3.80824e-05 0)
(0.0998239 -3.4686e-05 0)
(0.0998454 -3.15393e-05 0)
(0.0998654 -2.86275e-05 0)
(0.0998839 -2.59365e-05 0)
(0.099901 -2.34531e-05 0)
(0.0999167 -2.11649e-05 0)
(0.0999312 -1.90605e-05 0)
(0.0999445 -1.71287e-05 0)
(0.0999567 -1.53594e-05 0)
(0.0999678 -1.37418e-05 0)
(0.0999779 -1.22674e-05 0)
(0.0999871 -1.09251e-05 0)
(0.0999955 -9.70909e-06 0)
(0.100003 -8.60646e-06 0)
(0.10001 -7.61765e-06 0)
(0.100016 -6.72364e-06 0)
(0.100022 -5.93661e-06 0)
(0.100027 -5.223e-06 0)
(0.100031 -4.61782e-06 0)
(0.100035 -4.05807e-06 0)
(0.100038 -3.62117e-06 0)
(0.100043 -3.19048e-06 0)
(0.100044 -2.91578e-06 0)
(0.100049 -2.59228e-06 0)
(0.100049 -2.48082e-06 0)
(0.100055 -2.24797e-06 0)
(0.100053 -2.30419e-06 0)
(0.10006 -2.15784e-06 0)
(0.100057 -2.3844e-06 0)
(0.100067 -2.34742e-06 0)
(0.100062 -2.73342e-06 0)
(0.100074 -2.86966e-06 0)
(0.100068 -3.38828e-06 0)
(0.100083 -3.7851e-06 0)
(0.100076 -4.45123e-06 0)
(0.100096 -5.16966e-06 0)
(0.100089 -5.91653e-06 0)
(0.100112 -7.5637e-06 0)
(0.100108 -7.29487e-06 0)
(0.100135 -1.07409e-05 0)
(0.100135 -1.09122e-05 0)
(0.100169 -1.27465e-05 0)
(0.0980513 -0.000379594 0)
(0.0981673 -0.000354179 0)
(0.0982776 -0.00033082 0)
(0.0983827 -0.000309166 0)
(0.0984828 -0.000288947 0)
(0.0985782 -0.000269968 0)
(0.098669 -0.000252091 0)
(0.0987554 -0.000235224 0)
(0.0988376 -0.000219303 0)
(0.0989157 -0.000204281 0)
(0.0989899 -0.00019012 0)
(0.0990603 -0.000176785 0)
(0.099127 -0.000164242 0)
(0.0991903 -0.000152456 0)
(0.0992502 -0.000141391 0)
(0.0993068 -0.000131011 0)
(0.0993603 -0.000121282 0)
(0.0994108 -0.000112169 0)
(0.0994585 -0.000103639 0)
(0.0995034 -9.56595e-05 0)
(0.0995456 -8.81998e-05 0)
(0.0995854 -8.12309e-05 0)
(0.0996227 -7.47249e-05 0)
(0.0996577 -6.86557e-05 0)
(0.0996905 -6.29983e-05 0)
(0.0997211 -5.77291e-05 0)
(0.0997498 -5.28259e-05 0)
(0.0997765 -4.82679e-05 0)
(0.0998014 -4.40352e-05 0)
(0.0998246 -4.01089e-05 0)
(0.0998461 -3.64711e-05 0)
(0.099866 -3.31047e-05 0)
(0.0998845 -2.99936e-05 0)
(0.0999015 -2.71225e-05 0)
(0.0999172 -2.4477e-05 0)
(0.0999316 -2.20439e-05 0)
(0.0999448 -1.98102e-05 0)
(0.099957 -1.77643e-05 0)
(0.099968 -1.58938e-05 0)
(0.0999781 -1.41887e-05 0)
(0.0999873 -1.26363e-05 0)
(0.0999956 -1.123e-05 0)
(0.100003 -9.955e-06 0)
(0.10001 -8.81133e-06 0)
(0.100016 -7.77774e-06 0)
(0.100022 -6.86716e-06 0)
(0.100027 -6.04242e-06 0)
(0.100031 -5.34178e-06 0)
(0.100035 -4.69548e-06 0)
(0.100038 -4.18893e-06 0)
(0.100043 -3.6926e-06 0)
(0.100044 -3.37283e-06 0)
(0.100049 -3.00128e-06 0)
(0.100049 -2.86929e-06 0)
(0.100055 -2.6034e-06 0)
(0.100053 -2.66449e-06 0)
(0.10006 -2.49932e-06 0)
(0.100057 -2.75696e-06 0)
(0.100067 -2.71855e-06 0)
(0.100062 -3.16046e-06 0)
(0.100074 -3.32297e-06 0)
(0.100068 -3.91623e-06 0)
(0.100083 -4.38647e-06 0)
(0.100076 -5.13697e-06 0)
(0.100096 -6.00273e-06 0)
(0.100089 -6.8217e-06 0)
(0.100112 -8.76318e-06 0)
(0.100108 -8.46905e-06 0)
(0.100135 -1.23844e-05 0)
(0.100135 -1.26416e-05 0)
(0.100169 -1.47966e-05 0)
(0.0980617 -0.000431886 0)
(0.0981771 -0.000402947 0)
(0.0982869 -0.000376333 0)
(0.0983914 -0.000351658 0)
(0.098491 -0.000328622 0)
(0.0985858 -0.000307006 0)
(0.0986761 -0.000286655 0)
(0.098762 -0.000267462 0)
(0.0988437 -0.000249352 0)
(0.0989213 -0.000232271 0)
(0.098995 -0.000216172 0)
(0.099065 -0.000201016 0)
(0.0991314 -0.00018676 0)
(0.0991943 -0.000173365 0)
(0.0992538 -0.000160789 0)
(0.0993101 -0.000148992 0)
(0.0993633 -0.000137934 0)
(0.0994136 -0.000127576 0)
(0.099461 -0.000117879 0)
(0.0995057 -0.000108808 0)
(0.0995477 -0.000100327 0)
(0.0995873 -9.24038e-05 0)
(0.0996244 -8.50064e-05 0)
(0.0996593 -7.8105e-05 0)
(0.0996919 -7.16714e-05 0)
(0.0997224 -6.5679e-05 0)
(0.099751 -6.01026e-05 0)
(0.0997776 -5.49184e-05 0)
(0.0998024 -5.01039e-05 0)
(0.0998255 -4.56377e-05 0)
(0.0998469 -4.14995e-05 0)
(0.0998667 -3.76699e-05 0)
(0.0998851 -3.41306e-05 0)
(0.099902 -3.08642e-05 0)
(0.0999177 -2.78546e-05 0)
(0.099932 -2.50864e-05 0)
(0.0999452 -2.2545e-05 0)
(0.0999573 -2.0217e-05 0)
(0.0999683 -1.80886e-05 0)
(0.0999784 -1.61482e-05 0)
(0.0999876 -1.43817e-05 0)
(0.0999958 -1.27812e-05 0)
(0.100003 -1.13306e-05 0)
(0.10001 -1.00288e-05 0)
(0.100016 -8.8531e-06 0)
(0.100022 -7.81614e-06 0)
(0.100027 -6.87861e-06 0)
(0.100031 -6.07987e-06 0)
(0.100036 -5.34628e-06 0)
(0.100038 -4.76739e-06 0)
(0.100043 -4.2058e-06 0)
(0.100044 -3.83798e-06 0)
(0.100049 -3.41998e-06 0)
(0.100049 -3.26405e-06 0)
(0.100055 -2.96798e-06 0)
(0.100053 -3.03016e-06 0)
(0.10006 -2.85011e-06 0)
(0.100057 -3.13502e-06 0)
(0.100067 -3.09983e-06 0)
(0.100062 -3.59422e-06 0)
(0.100074 -3.7884e-06 0)
(0.100068 -4.45262e-06 0)
(0.100083 -5.00491e-06 0)
(0.100076 -5.83114e-06 0)
(0.100095 -6.86382e-06 0)
(0.100089 -7.73568e-06 0)
(0.100112 -9.99548e-06 0)
(0.100108 -9.67824e-06 0)
(0.100134 -1.405e-05 0)
(0.100134 -1.44124e-05 0)
(0.100169 -1.69165e-05 0)
(0.0980735 -0.0004839 0)
(0.0981883 -0.000451454 0)
(0.0982974 -0.000421595 0)
(0.0984013 -0.000393905 0)
(0.0985003 -0.000368059 0)
(0.0985945 -0.000343814 0)
(0.0986841 -0.000320998 0)
(0.0987694 -0.000299491 0)
(0.0988505 -0.000279206 0)
(0.0989276 -0.000260079 0)
(0.0990008 -0.000242058 0)
(0.0990704 -0.000225093 0)
(0.0991363 -0.000209138 0)
(0.0991987 -0.000194146 0)
(0.0992579 -0.000180072 0)
(0.0993139 -0.000166869 0)
(0.0993668 -0.000154492 0)
(0.0994167 -0.000142897 0)
(0.0994639 -0.000132043 0)
(0.0995083 -0.000121887 0)
(0.0995501 -0.000112392 0)
(0.0995894 -0.000103521 0)
(0.0996264 -9.52371e-05 0)
(0.099661 -8.75086e-05 0)
(0.0996935 -8.03035e-05 0)
(0.0997239 -7.3592e-05 0)
(0.0997523 -6.73461e-05 0)
(0.0997788 -6.15391e-05 0)
(0.0998035 -5.61458e-05 0)
(0.0998264 -5.11425e-05 0)
(0.0998477 -4.65063e-05 0)
(0.0998675 -4.22157e-05 0)
(0.0998858 -3.82502e-05 0)
(0.0999027 -3.45905e-05 0)
(0.0999182 -3.12183e-05 0)
(0.0999325 -2.81165e-05 0)
(0.0999457 -2.52687e-05 0)
(0.0999577 -2.266e-05 0)
(0.0999687 -2.02747e-05 0)
(0.0999787 -1.81e-05 0)
(0.0999878 -1.61203e-05 0)
(0.0999961 -1.43264e-05 0)
(0.100004 -1.27008e-05 0)
(0.10001 -1.12415e-05 0)
(0.100016 -9.92436e-06 0)
(0.100022 -8.76146e-06 0)
(0.100027 -7.71168e-06 0)
(0.100031 -6.81509e-06 0)
(0.100036 -5.99475e-06 0)
(0.100039 -5.34358e-06 0)
(0.100043 -4.71726e-06 0)
(0.100044 -4.30125e-06 0)
(0.100049 -3.83742e-06 0)
(0.100049 -3.65717e-06 0)
(0.100055 -3.3316e-06 0)
(0.100053 -3.39434e-06 0)
(0.10006 -3.20011e-06 0)
(0.100057 -3.51169e-06 0)
(0.100067 -3.48033e-06 0)
(0.100062 -4.02655e-06 0)
(0.100074 -4.25316e-06 0)
(0.100067 -4.98676e-06 0)
(0.100083 -5.62438e-06 0)
(0.100076 -6.51907e-06 0)
(0.100095 -7.73161e-06 0)
(0.100089 -8.63876e-06 0)
(0.100111 -1.12299e-05 0)
(0.100108 -1.08983e-05 0)
(0.100134 -1.56944e-05 0)
(0.100134 -1.61895e-05 0)
(0.100169 -1.90533e-05 0)
(0.098087 -0.000535573 0)
(0.0982009 -0.000499644 0)
(0.0983093 -0.000466556 0)
(0.0984124 -0.000435864 0)
(0.0985106 -0.000407219 0)
(0.0986041 -0.000380357 0)
(0.098693 -0.000355091 0)
(0.0987777 -0.000331284 0)
(0.0988582 -0.000308839 0)
(0.0989347 -0.000287684 0)
(0.0990073 -0.000267755 0)
(0.0990763 -0.000248998 0)
(0.0991417 -0.000231359 0)
(0.0992037 -0.000214785 0)
(0.0992625 -0.000199225 0)
(0.0993181 -0.000184628 0)
(0.0993706 -0.000170944 0)
(0.0994202 -0.000158123 0)
(0.0994671 -0.00014612 0)
(0.0995112 -0.000134889 0)
(0.0995528 -0.000124387 0)
(0.0995918 -0.000114574 0)
(0.0996286 -0.000105411 0)
(0.099663 -9.68611e-05 0)
(0.0996953 -8.88896e-05 0)
(0.0997255 -8.14636e-05 0)
(0.0997538 -7.45523e-05 0)
(0.0997801 -6.81262e-05 0)
(0.0998047 -6.21576e-05 0)
(0.0998275 -5.66202e-05 0)
(0.0998487 -5.14889e-05 0)
(0.0998684 -4.67398e-05 0)
(0.0998866 -4.23504e-05 0)
(0.0999034 -3.82994e-05 0)
(0.0999188 -3.45664e-05 0)
(0.0999331 -3.11327e-05 0)
(0.0999461 -2.79801e-05 0)
(0.0999581 -2.50919e-05 0)
(0.0999691 -2.2451e-05 0)
(0.099979 -2.00431e-05 0)
(0.0999881 -1.78512e-05 0)
(0.0999963 -1.58648e-05 0)
(0.100004 -1.4065e-05 0)
(0.10001 -1.24489e-05 0)
(0.100017 -1.09909e-05 0)
(0.100022 -9.70267e-06 0)
(0.100027 -8.54108e-06 0)
(0.100031 -7.54717e-06 0)
(0.100036 -6.64035e-06 0)
(0.100039 -5.91736e-06 0)
(0.100043 -5.22644e-06 0)
(0.100044 -4.76267e-06 0)
(0.100049 -4.25296e-06 0)
(0.100049 -4.04886e-06 0)
(0.100055 -3.69354e-06 0)
(0.100053 -3.7574e-06 0)
(0.10006 -3.54852e-06 0)
(0.100057 -3.88743e-06 0)
(0.100067 -3.85918e-06 0)
(0.100062 -4.45793e-06 0)
(0.100074 -4.71636e-06 0)
(0.100067 -5.51906e-06 0)
(0.100083 -6.24402e-06 0)
(0.100076 -7.20107e-06 0)
(0.100095 -8.60527e-06 0)
(0.100089 -9.53123e-06 0)
(0.100111 -1.24654e-05 0)
(0.100108 -1.213e-05 0)
(0.100134 -1.73157e-05 0)
(0.100134 -1.79745e-05 0)
(0.100169 -2.12057e-05 0)
(0.098102 -0.00058684 0)
(0.098215 -0.00054746 0)
(0.0983224 -0.000511166 0)
(0.0984247 -0.00047749 0)
(0.0985221 -0.000446063 0)
(0.0986147 -0.000416602 0)
(0.0987029 -0.000388901 0)
(0.0987868 -0.000362813 0)
(0.0988666 -0.000338228 0)
(0.0989424 -0.000315062 0)
(0.0990145 -0.000293245 0)
(0.0990828 -0.000272713 0)
(0.0991477 -0.000253407 0)
(0.0992092 -0.000235267 0)
(0.0992675 -0.000218237 0)
(0.0993227 -0.000202259 0)
(0.0993748 -0.000187279 0)
(0.0994241 -0.000173244 0)
(0.0994706 -0.000160102 0)
(0.0995144 -0.000147805 0)
(0.0995557 -0.000136305 0)
(0.0995945 -0.000125558 0)
(0.099631 -0.000115522 0)
(0.0996652 -0.000106157 0)
(0.0996973 -9.74246e-05 0)
(0.0997273 -8.92893e-05 0)
(0.0997554 -8.17172e-05 0)
(0.0997816 -7.46762e-05 0)
(0.099806 -6.81361e-05 0)
(0.0998287 -6.20679e-05 0)
(0.0998498 -5.64445e-05 0)
(0.0998693 -5.12397e-05 0)
(0.0998874 -4.64289e-05 0)
(0.0999041 -4.19888e-05 0)
(0.0999195 -3.78972e-05 0)
(0.0999337 -3.41334e-05 0)
(0.0999467 -3.06776e-05 0)
(0.0999586 -2.75114e-05 0)
(0.0999695 -2.46163e-05 0)
(0.0999794 -2.19764e-05 0)
(0.0999884 -1.95734e-05 0)
(0.0999966 -1.73954e-05 0)
(0.100004 -1.54224e-05 0)
(0.100011 -1.36503e-05 0)
(0.100017 -1.20521e-05 0)
(0.100022 -1.06392e-05 0)
(0.100027 -9.36637e-06 0)
(0.100031 -8.27566e-06 0)
(0.100036 -7.28274e-06 0)
(0.100039 -6.48837e-06 0)
(0.100043 -5.73307e-06 0)
(0.100044 -5.22194e-06 0)
(0.100049 -4.66639e-06 0)
(0.100049 -4.43885e-06 0)
(0.100055 -4.05364e-06 0)
(0.100053 -4.11906e-06 0)
(0.10006 -3.89517e-06 0)
(0.100057 -4.26197e-06 0)
(0.100066 -4.23622e-06 0)
(0.100061 -4.8881e-06 0)
(0.100074 -5.17779e-06 0)
(0.100067 -6.04928e-06 0)
(0.100083 -6.86355e-06 0)
(0.100076 -7.8769e-06 0)
(0.100095 -9.48438e-06 0)
(0.100089 -1.04129e-05 0)
(0.100111 -1.37017e-05 0)
(0.100108 -1.33728e-05 0)
(0.100134 -1.89145e-05 0)
(0.100133 -1.97672e-05 0)
(0.100169 -2.33742e-05 0)
(0.0981187 -0.000637626 0)
(0.0982305 -0.000594838 0)
(0.0983369 -0.000555371 0)
(0.0984382 -0.000518737 0)
(0.0985346 -0.00048455 0)
(0.0986264 -0.000452511 0)
(0.0987137 -0.000422399 0)
(0.0987968 -0.000394051 0)
(0.0988758 -0.000367347 0)
(0.0989509 -0.000342192 0)
(0.0990222 -0.000318507 0)
(0.09909 -0.000296221 0)
(0.0991543 -0.000275266 0)
(0.0992153 -0.000255577 0)
(0.099273 -0.000237092 0)
(0.0993277 -0.000219749 0)
(0.0993794 -0.000203487 0)
(0.0994283 -0.000188249 0)
(0.0994744 -0.00017398 0)
(0.0995179 -0.000160627 0)
(0.0995589 -0.000148138 0)
(0.0995974 -0.000136466 0)
(0.0996336 -0.000125564 0)
(0.0996676 -0.000115391 0)
(0.0996995 -0.000105904 0)
(0.0997293 -9.70646e-05 0)
(0.0997572 -8.88367e-05 0)
(0.0997832 -8.11853e-05 0)
(0.0998075 -7.40777e-05 0)
(0.09983 -6.74826e-05 0)
(0.099851 -6.13705e-05 0)
(0.0998704 -5.5713e-05 0)
(0.0998884 -5.04836e-05 0)
(0.099905 -4.56568e-05 0)
(0.0999203 -4.12088e-05 0)
(0.0999343 -3.7117e-05 0)
(0.0999473 -3.33598e-05 0)
(0.0999591 -2.99174e-05 0)
(0.0999699 -2.67695e-05 0)
(0.0999798 -2.3899e-05 0)
(0.0999888 -2.1286e-05 0)
(0.0999969 -1.89176e-05 0)
(0.100004 -1.67722e-05 0)
(0.100011 -1.48451e-05 0)
(0.100017 -1.31075e-05 0)
(0.100022 -1.15706e-05 0)
(0.100027 -1.01871e-05 0)
(0.100031 -9.00012e-06 0)
(0.100036 -7.92154e-06 0)
(0.100039 -7.05623e-06 0)
(0.100043 -6.23684e-06 0)
(0.100044 -5.67873e-06 0)
(0.100049 -5.07748e-06 0)
(0.100049 -4.82682e-06 0)
(0.100055 -4.41171e-06 0)
(0.100053 -4.47904e-06 0)
(0.10006 -4.2399e-06 0)
(0.100057 -4.63502e-06 0)
(0.100066 -4.61127e-06 0)
(0.100061 -5.31678e-06 0)
(0.100074 -5.63724e-06 0)
(0.100067 -6.57716e-06 0)
(0.100083 -7.48258e-06 0)
(0.100076 -8.54646e-06 0)
(0.100095 -1.03683e-05 0)
(0.100089 -1.12837e-05 0)
(0.10011 -1.49385e-05 0)
(0.100108 -1.46255e-05 0)
(0.100134 -2.04914e-05 0)
(0.100133 -2.15669e-05 0)
(0.100169 -2.55589e-05 0)
(0.098137 -0.000687858 0)
(0.0982476 -0.000641713 0)
(0.0983528 -0.000599113 0)
(0.0984529 -0.000559555 0)
(0.0985483 -0.000522638 0)
(0.098639 -0.000488048 0)
(0.0987254 -0.000455551 0)
(0.0988076 -0.000424969 0)
(0.0988857 -0.000396171 0)
(0.09896 -0.000369051 0)
(0.0990307 -0.000343522 0)
(0.0990977 -0.000319502 0)
(0.0991614 -0.000296919 0)
(0.0992218 -0.000275701 0)
(0.099279 -0.000255778 0)
(0.0993332 -0.000237085 0)
(0.0993844 -0.000219556 0)
(0.0994329 -0.00020313 0)
(0.0994786 -0.000187746 0)
(0.0995217 -0.000173347 0)
(0.0995623 -0.000159879 0)
(0.0996006 -0.00014729 0)
(0.0996365 -0.000135532 0)
(0.0996702 -0.000124557 0)
(0.0997019 -0.000114322 0)
(0.0997315 -0.000104785 0)
(0.0997592 -9.59067e-05 0)
(0.099785 -8.765e-05 0)
(0.0998091 -7.99793e-05 0)
(0.0998315 -7.28613e-05 0)
(0.0998523 -6.6264e-05 0)
(0.0998715 -6.01572e-05 0)
(0.0998894 -5.45121e-05 0)
(0.0999059 -4.93014e-05 0)
(0.0999211 -4.44994e-05 0)
(0.0999351 -4.00818e-05 0)
(0.0999479 -3.60253e-05 0)
(0.0999597 -3.23083e-05 0)
(0.0999704 -2.89093e-05 0)
(0.0999802 -2.58096e-05 0)
(0.0999891 -2.29881e-05 0)
(0.0999972 -2.04304e-05 0)
(0.100005 -1.81138e-05 0)
(0.100011 -1.60324e-05 0)
(0.100017 -1.41563e-05 0)
(0.100022 -1.24962e-05 0)
(0.100027 -1.10027e-05 0)
(0.100031 -9.72009e-06 0)
(0.100036 -8.55634e-06 0)
(0.100039 -7.62058e-06 0)
(0.100043 -6.73744e-06 0)
(0.100045 -6.13272e-06 0)
(0.100049 -5.48595e-06 0)
(0.100049 -5.21251e-06 0)
(0.100054 -4.7675e-06 0)
(0.100053 -4.83709e-06 0)
(0.10006 -4.58247e-06 0)
(0.100057 -5.00637e-06 0)
(0.100066 -4.98407e-06 0)
(0.100061 -5.74375e-06 0)
(0.100074 -6.09436e-06 0)
(0.100067 -7.10254e-06 0)
(0.100083 -8.10063e-06 0)
(0.100075 -9.20977e-06 0)
(0.100094 -1.12562e-05 0)
(0.100089 -1.21439e-05 0)
(0.10011 -1.6175e-05 0)
(0.100108 -1.58871e-05 0)
(0.100133 -2.20475e-05 0)
(0.100132 -2.33733e-05 0)
(0.100169 -2.77594e-05 0)
(0.098157 -0.000737458 0)
(0.0982661 -0.000688019 0)
(0.0983699 -0.000642335 0)
(0.0984689 -0.000599895 0)
(0.098563 -0.000560284 0)
(0.0986527 -0.000523177 0)
(0.098738 -0.000488325 0)
(0.0988192 -0.00045554 0)
(0.0988964 -0.000424676 0)
(0.0989699 -0.000395618 0)
(0.0990397 -0.000368269 0)
(0.0991061 -0.000342541 0)
(0.099169 -0.000318351 0)
(0.0992288 -0.000295624 0)
(0.0992854 -0.000274283 0)
(0.0993391 -0.000254257 0)
(0.0993898 -0.000235477 0)
(0.0994378 -0.000217876 0)
(0.0994831 -0.000201389 0)
(0.0995258 -0.000185957 0)
(0.0995661 -0.00017152 0)
(0.099604 -0.000158025 0)
(0.0996396 -0.000145418 0)
(0.0996731 -0.00013365 0)
(0.0997044 -0.000122674 0)
(0.0997338 -0.000112446 0)
(0.0997613 -0.000102923 0)
(0.0997869 -9.40665e-05 0)
(0.0998108 -8.58376e-05 0)
(0.099833 -7.8201e-05 0)
(0.0998537 -7.11225e-05 0)
(0.0998728 -6.45699e-05 0)
(0.0998905 -5.85123e-05 0)
(0.0999069 -5.29207e-05 0)
(0.099922 -4.77673e-05 0)
(0.0999359 -4.30263e-05 0)
(0.0999486 -3.86725e-05 0)
(0.0999603 -3.4683e-05 0)
(0.099971 -3.10347e-05 0)
(0.0999807 -2.77074e-05 0)
(0.0999895 -2.46786e-05 0)
(0.0999976 -2.1933e-05 0)
(0.100005 -1.94462e-05 0)
(0.100011 -1.72118e-05 0)
(0.100017 -1.5198e-05 0)
(0.100023 -1.34155e-05 0)
(0.100028 -1.18127e-05 0)
(0.100032 -1.04351e-05 0)
(0.100036 -9.18674e-06 0)
(0.100039 -8.18104e-06 0)
(0.100043 -7.23451e-06 0)
(0.100045 -6.5836e-06 0)
(0.100049 -5.89151e-06 0)
(0.100049 -5.59565e-06 0)
(0.100054 -5.12073e-06 0)
(0.100053 -5.19297e-06 0)
(0.10006 -4.92262e-06 0)
(0.100057 -5.37578e-06 0)
(0.100066 -5.35432e-06 0)
(0.100061 -6.16881e-06 0)
(0.100073 -6.5488e-06 0)
(0.100067 -7.62527e-06 0)
(0.100082 -8.71709e-06 0)
(0.100075 -9.86696e-06 0)
(0.100094 -1.21468e-05 0)
(0.100088 -1.2994e-05 0)
(0.100109 -1.74108e-05 0)
(0.100108 -1.71561e-05 0)
(0.100133 -2.35843e-05 0)
(0.100132 -2.51857e-05 0)
(0.100168 -2.99753e-05 0)
(0.0981786 -0.000786349 0)
(0.098286 -0.000733686 0)
(0.0983884 -0.000684979 0)
(0.098486 -0.000639707 0)
(0.0985788 -0.000597446 0)
(0.0986673 -0.000557861 0)
(0.0987515 -0.000520691 0)
(0.0988316 -0.000485735 0)
(0.0989079 -0.000452837 0)
(0.0989805 -0.000421871 0)
(0.0990494 -0.00039273 0)
(0.099115 -0.000365318 0)
(0.0991772 -0.000339547 0)
(0.0992363 -0.000315332 0)
(0.0992923 -0.000292593 0)
(0.0993454 -0.000271253 0)
(0.0993956 -0.000251238 0)
(0.0994431 -0.000232477 0)
(0.0994879 -0.000214902 0)
(0.0995302 -0.000198449 0)
(0.0995701 -0.000183056 0)
(0.0996077 -0.000168664 0)
(0.099643 -0.000155218 0)
(0.0996761 -0.000142665 0)
(0.0997072 -0.000130956 0)
(0.0997363 -0.000120043 0)
(0.0997635 -0.000109883 0)
(0.0997889 -0.000100431 0)
(0.0998126 -9.16492e-05 0)
(0.0998347 -8.34987e-05 0)
(0.0998552 -7.59432e-05 0)
(0.0998742 -6.89486e-05 0)
(0.0998917 -6.2482e-05 0)
(0.099908 -5.65125e-05 0)
(0.0999229 -5.10106e-05 0)
(0.0999367 -4.59487e-05 0)
(0.0999494 -4.13001e-05 0)
(0.0999609 -3.70401e-05 0)