/*--------------------------------*- C++ -*----------------------------------*\
| =========                 |                                                 |
| \\      /  F ield         | OpenFOAM: The Open Source CFD Toolbox           |
|  \\    /   O peration     | Version:  2412                                  |
|   \\  /    A nd           | Website:  www.openfoam.com                      |
|    \\/     M anipulation  |                                                 |
\*---------------------------------------------------------------------------*/
FoamFile
{
    version     2.0;
    format      ascii;
    arch        "LSB;label=32;scalar=64";
    class       volVectorField;
    location    "25";
    object      vorticity;
}
// * * * * * * * * * * * * * * * * * * * * * * * * * * * * * * * * * * * * * //

dimensions      [0 0 -1 0 0 0 0];

internalField   nonuniform List<vector> 
5285
(
(0 -0 -0.000122785)
(0 -0 -0.000102762)
(0 -0 -8.4236e-05)
(0 -0 -6.64886e-05)
(0 -0 -8.6611e-05)
(0 -0 -7.11889e-05)
(0 -0 -5.65705e-05)
(0 -0 -4.28698e-05)
(0 -0 -3.0441e-05)
(0 -0 -1.96803e-05)
(0 -0 -1.10322e-05)
(0 -0 -2.6966e-06)
(0 -0 3.98196e-06)
(0 -0 9.0504e-06)
(0 -0 1.25862e-05)
(0 -0 1.47203e-05)
(0 -0 1.56303e-05)
(0 -0 1.55268e-05)
(0 -0 1.46402e-05)
(0 -0 1.32036e-05)
(0 -0 1.14382e-05)
(0 -0 9.53856e-06)
(0 -0 7.66408e-06)
(0 -0 5.93371e-06)
(0 -0 4.42679e-06)
(0 -0 3.18509e-06)
(0 -0 2.22274e-06)
(0 -0 1.5312e-06)
(0 -0 1.09114e-06)
(0 -0 8.77588e-07)
(0 -0 8.65496e-07)
(0 -0 1.02997e-06)
(0 -0 1.3453e-06)
(0 -0 1.77674e-06)
(0 -0 2.27784e-06)
(0 -0 2.78302e-06)
(0 -0 3.21067e-06)
(0 -0 3.46913e-06)
(0 -0 3.47205e-06)
(0 -0 3.15714e-06)
(0 -0 2.50503e-06)
(0 -0 1.54913e-06)
(0 -0 3.7685e-07)
(0 -0 -8.83882e-07)
(0 -0 -2.08742e-06)
(0 -0 -3.09411e-06)
(0 -0 -3.8544e-06)
(0 -0 -4.03123e-06)
(0 -0 -5.30311e-05)
(0 -0 -4.10559e-05)
(0 -0 -3.00372e-05)
(0 -0 -1.98706e-05)
(0 -0 -1.07042e-05)
(0 -0 -3.18257e-06)
(0 -0 3.43084e-06)
(0 -0 9.07251e-06)
(0 -0 1.358e-05)
(0 -0 1.68544e-05)
(0 -0 1.88963e-05)
(0 -0 1.97873e-05)
(0 -0 1.96688e-05)
(0 -0 1.87236e-05)
(0 -0 1.71577e-05)
(0 -0 1.51829e-05)
(0 -0 1.29995e-05)
(0 -0 1.07833e-05)
(0 -0 8.67622e-06)
(0 -0 6.78066e-06)
(0 -0 5.16062e-06)
(0 -0 3.8453e-06)
(0 -0 2.83566e-06)
(0 -0 2.11447e-06)
(0 -0 1.65264e-06)
(0 -0 1.41834e-06)
(0 -0 1.38095e-06)
(0 -0 1.51204e-06)
(0 -0 1.78321e-06)
(0 -0 2.16122e-06)
(0 -0 2.60092e-06)
(0 -0 3.04246e-06)
(0 -0 3.4102e-06)
(0 -0 3.62045e-06)
(0 -0 3.59361e-06)
(0 -0 3.27257e-06)
(0 -0 2.63929e-06)
(0 -0 1.72644e-06)
(0 -0 6.17726e-07)
(0 -0 -5.65701e-07)
(0 -0 -1.68603e-06)
(0 -0 -2.61098e-06)
(0 -0 -3.2951e-06)
(0 -0 -3.3937e-06)
(0 -0 -2.30767e-05)
(0 -0 -1.39247e-05)
(0 -0 -5.73142e-06)
(0 -0 1.7017e-06)
(0 -0 8.33702e-06)
(0 -0 1.37638e-05)
(0 -0 1.83055e-05)
(0 -0 2.19289e-05)
(0 -0 2.45479e-05)
(0 -0 2.61157e-05)
(0 -0 2.66483e-05)
(0 -0 2.62241e-05)
(0 -0 2.49738e-05)
(0 -0 2.30671e-05)
(0 -0 2.06951e-05)
(0 -0 1.8054e-05)
(0 -0 1.53278e-05)
(0 -0 1.26762e-05)
(0 -0 1.02248e-05)
(0 -0 8.06106e-06)
(0 -0 6.2344e-06)
(0 -0 4.76093e-06)
(0 -0 3.62997e-06)
(0 -0 2.81351e-06)
(0 -0 2.2739e-06)
(0 -0 1.97174e-06)
(0 -0 1.87025e-06)
(0 -0 1.93686e-06)
(0 -0 2.14056e-06)
(0 -0 2.44757e-06)
(0 -0 2.81476e-06)
(0 -0 3.18593e-06)
(0 -0 3.49096e-06)
(0 -0 3.65218e-06)
(0 -0 3.59612e-06)
(0 -0 3.2701e-06)
(0 -0 2.65812e-06)
(0 -0 1.79168e-06)
(0 -0 7.50108e-07)
(0 -0 -3.5131e-07)
(0 -0 -1.38218e-06)
(0 -0 -2.21731e-06)
(0 -0 -2.81947e-06)
(0 -0 -2.84908e-06)
(0 -0 2.18113e-06)
(0 -0 9.35416e-06)
(0 -0 1.5566e-05)
(0 -0 2.10346e-05)
(0 -0 2.58064e-05)
(0 -0 2.97385e-05)
(0 -0 3.27101e-05)
(0 -0 3.47101e-05)
(0 -0 3.57252e-05)
(0 -0 3.57671e-05)
(0 -0 3.48885e-05)
(0 -0 3.31877e-05)
(0 -0 3.08039e-05)
(0 -0 2.79076e-05)
(0 -0 2.46852e-05)
(0 -0 2.13241e-05)
(0 -0 1.79974e-05)
(0 -0 1.48516e-05)
(0 -0 1.19986e-05)
(0 -0 9.5121e-06)
(0 -0 7.42806e-06)
(0 -0 5.74999e-06)
(0 -0 4.45578e-06)
(0 -0 3.50714e-06)
(0 -0 2.85776e-06)
(0 -0 2.46068e-06)
(0 -0 2.27313e-06)
(0 -0 2.25805e-06)
(0 -0 2.38162e-06)
(0 -0 2.6092e-06)
(0 -0 2.89901e-06)
(0 -0 3.19793e-06)
(0 -0 3.44069e-06)
(0 -0 3.55511e-06)
(0 -0 3.47313e-06)
(0 -0 3.14614e-06)
(0 -0 2.56002e-06)
(0 -0 1.74519e-06)
(0 -0 7.77017e-07)
(0 -0 -2.35048e-07)
(0 -0 -1.16769e-06)
(0 -0 -1.90264e-06)
(0 -0 -2.41068e-06)
(0 -0 -2.32277e-06)
(0 -0 2.35188e-05)
(0 -0 2.93492e-05)
(0 -0 3.4175e-05)
(0 -0 3.82206e-05)
(0 -0 4.16564e-05)
(0 -0 4.42759e-05)
(0 -0 4.59103e-05)
(0 -0 4.65464e-05)
(0 -0 4.61979e-05)
(0 -0 4.49119e-05)
(0 -0 4.27734e-05)
(0 -0 3.99054e-05)
(0 -0 3.64642e-05)
(0 -0 3.26288e-05)
(0 -0 2.85881e-05)
(0 -0 2.45264e-05)
(0 -0 2.06096e-05)
(0 -0 1.69744e-05)
(0 -0 1.37208e-05)
(0 -0 1.091e-05)
(0 -0 8.5655e-06)
(0 -0 6.67877e-06)
(0 -0 5.21685e-06)
(0 -0 4.13164e-06)
(0 -0 3.36836e-06)
(0 -0 2.87297e-06)
(0 -0 2.59699e-06)
(0 -0 2.49896e-06)
(0 -0 2.54249e-06)
(0 -0 2.69206e-06)
(0 -0 2.90698e-06)
(0 -0 3.1371e-06)
(0 -0 3.32167e-06)
(0 -0 3.39375e-06)
(0 -0 3.29045e-06)
(0 -0 2.96717e-06)
(0 -0 2.41171e-06)
(0 -0 1.65368e-06)
(0 -0 7.64904e-07)
(0 -0 -1.50768e-07)
(0 -0 -9.76831e-07)
(0 -0 -1.60186e-06)
(0 -0 -2.00426e-06)
(0 -0 -1.80211e-06)
(0 -0 4.19291e-05)
(0 -0 4.68942e-05)
(0 -0 5.07664e-05)
(0 -0 5.37677e-05)
(0 -0 5.6102e-05)
(0 -0 5.75795e-05)
(0 -0 5.8037e-05)
(0 -0 5.7469e-05)
(0 -0 5.59084e-05)
(0 -0 5.34288e-05)
(0 -0 5.01428e-05)
(0 -0 4.6198e-05)
(0 -0 4.17699e-05)
(0 -0 3.705e-05)
(0 -0 3.22336e-05)
(0 -0 2.75048e-05)
(0 -0 2.30253e-05)
(0 -0 1.89234e-05)
(0 -0 1.52888e-05)
(0 -0 1.21708e-05)
(0 -0 9.58094e-06)
(0 -0 7.49901e-06)
(0 -0 5.88149e-06)
(0 -0 4.67067e-06)
(0 -0 3.80354e-06)
(0 -0 3.21927e-06)
(0 -0 2.86386e-06)
(0 -0 2.6917e-06)
(0 -0 2.66402e-06)
(0 -0 2.74444e-06)
(0 -0 2.89341e-06)
(0 -0 3.06362e-06)
(0 -0 3.19865e-06)
(0 -0 3.23671e-06)
(0 -0 3.12005e-06)
(0 -0 2.80811e-06)
(0 -0 2.29075e-06)
(0 -0 1.59708e-06)
(0 -0 7.95799e-07)
(0 -0 -1.45811e-08)
(0 -0 -7.24178e-07)
(0 -0 -1.22837e-06)
(0 -0 -1.51287e-06)
(0 -0 -1.19163e-06)
(0 -0 5.81644e-05)
(0 -0 6.26177e-05)
(0 -0 6.58506e-05)
(0 -0 6.80793e-05)
(0 -0 6.9518e-05)
(0 -0 7.00065e-05)
(0 -0 6.9408e-05)
(0 -0 6.77386e-05)
(0 -0 6.50563e-05)
(0 -0 6.1462e-05)
(0 -0 5.70954e-05)
(0 -0 5.21295e-05)
(0 -0 4.67595e-05)
(0 -0 4.11917e-05)
(0 -0 3.5629e-05)
(0 -0 3.02579e-05)
(0 -0 2.52366e-05)
(0 -0 2.06864e-05)
(0 -0 1.66871e-05)
(0 -0 1.32768e-05)
(0 -0 1.04551e-05)
(0 -0 8.19044e-06)
(0 -0 6.42868e-06)
(0 -0 5.10267e-06)
(0 -0 4.14144e-06)
(0 -0 3.47743e-06)
(0 -0 3.05129e-06)
(0 -0 2.81362e-06)
(0 -0 2.72329e-06)
(0 -0 2.74321e-06)
(0 -0 2.8349e-06)
(0 -0 2.95389e-06)
(0 -0 3.04794e-06)
(0 -0 3.06039e-06)
(0 -0 2.9386e-06)
(0 -0 2.64616e-06)
(0 -0 2.17521e-06)
(0 -0 1.55468e-06)
(0 -0 8.50461e-07)
(0 -0 1.56006e-07)
(0 -0 -4.2527e-07)
(0 -0 -7.95561e-07)
(0 -0 -9.47793e-07)
(0 -0 -4.965e-07)
(0 -0 7.27556e-05)
(0 -0 7.69534e-05)
(0 -0 7.97727e-05)
(0 -0 8.14235e-05)
(0 -0 8.21249e-05)
(0 -0 8.17472e-05)
(0 -0 8.01873e-05)
(0 -0 7.74914e-05)
(0 -0 7.37484e-05)
(0 -0 6.909e-05)
(0 -0 6.36857e-05)
(0 -0 5.77344e-05)
(0 -0 5.1453e-05)
(0 -0 4.50628e-05)
(0 -0 3.87759e-05)
(0 -0 3.27816e-05)
(0 -0 2.72356e-05)
(0 -0 2.22527e-05)
(0 -0 1.7903e-05)
(0 -0 1.42136e-05)
(0 -0 1.11722e-05)
(0 -0 8.73598e-06)
(0 -0 6.84024e-06)
(0 -0 5.40855e-06)
(0 -0 4.36202e-06)
(0 -0 3.62657e-06)
(0 -0 3.13777e-06)
(0 -0 2.84256e-06)
(0 -0 2.69754e-06)
(0 -0 2.66506e-06)
(0 -0 2.70776e-06)
(0 -0 2.78388e-06)
(0 -0 2.84533e-06)
(0 -0 2.84055e-06)
(0 -0 2.72207e-06)
(0 -0 2.45773e-06)
(0 -0 2.04223e-06)
(0 -0 1.50459e-06)
(0 -0 9.08223e-07)
(0 -0 3.41827e-07)
(0 -0 -9.75396e-08)
(0 -0 -3.19011e-07)
(0 -0 -3.22743e-07)
(0 -0 2.7347e-07)
(0 -0 8.60381e-05)
(0 -0 9.01607e-05)
(0 -0 9.27251e-05)
(0 -0 9.39357e-05)
(0 -0 9.40162e-05)
(0 -0 9.2867e-05)
(0 -0 9.04214e-05)
(0 -0 8.67591e-05)
(0 -0 8.20042e-05)
(0 -0 7.63222e-05)
(0 -0 6.99145e-05)
(0 -0 6.30077e-05)
(0 -0 5.58409e-05)
(0 -0 4.86516e-05)
(0 -0 4.16613e-05)
(0 -0 3.50625e-05)
(0 -0 2.9009e-05)
(0 -0 2.36088e-05)
(0 -0 1.8923e-05)
(0 -0 1.49672e-05)
(0 -0 1.17179e-05)
(0 -0 9.12057e-06)
(0 -0 7.10029e-06)
(0 -0 5.57151e-06)
(0 -0 4.44757e-06)
(0 -0 3.64812e-06)
(0 -0 3.10389e-06)
(0 -0 2.75829e-06)
(0 -0 2.56589e-06)
(0 -0 2.48855e-06)
(0 -0 2.49e-06)
(0 -0 2.53117e-06)
(0 -0 2.56818e-06)
(0 -0 2.55452e-06)
(0 -0 2.44791e-06)
(0 -0 2.22063e-06)
(0 -0 1.87014e-06)
(0 -0 1.42591e-06)
(0 -0 9.49222e-07)
(0 -0 5.24237e-07)
(0 -0 2.4173e-07)
(0 -0 1.85515e-07)
(0 -0 3.48075e-07)
(0 -0 1.1066e-06)
(0 -0 9.81849e-05)
(0 -0 0.000102353)
(0 -0 0.000104771)
(0 -0 0.000105637)
(0 -0 0.000105182)
(0 -0 0.000103335)
(0 -0 0.000100067)
(0 -0 9.54928e-05)
(0 -0 8.97728e-05)
(0 -0 8.31086e-05)
(0 -0 7.57345e-05)
(0 -0 6.79059e-05)
(0 -0 5.98844e-05)
(0 -0 5.1924e-05)
(0 -0 4.42559e-05)
(0 -0 3.70759e-05)
(0 -0 3.05355e-05)
(0 -0 2.47367e-05)
(0 -0 1.97311e-05)
(0 -0 1.55233e-05)
(0 -0 1.20783e-05)
(0 -0 9.33075e-06)
(0 -0 7.19528e-06)
(0 -0 5.57757e-06)
(0 -0 4.38351e-06)
(0 -0 3.52684e-06)
(0 -0 2.93367e-06)
(0 -0 2.54414e-06)
(0 -0 2.31099e-06)
(0 -0 2.19568e-06)
(0 -0 2.16308e-06)
(0 -0 2.1769e-06)
(0 -0 2.19739e-06)
(0 -0 2.18307e-06)
(0 -0 2.09694e-06)
(0 -0 1.91588e-06)
(0 -0 1.64037e-06)
(0 -0 1.30068e-06)
(0 -0 9.56221e-07)
(0 -0 6.86856e-07)
(0 -0 5.77158e-07)
(0 -0 7.0376e-07)
(0 -0 1.05153e-06)
(0 -0 1.99142e-06)
(0 -0 0.000109243)
(0 -0 0.000113532)
(0 -0 0.000115873)
(0 -0 0.000116462)
(0 -0 0.000115534)
(0 -0 0.00011305)
(0 -0 0.000109018)
(0 -0 0.000103586)
(0 -0 9.69525e-05)
(0 -0 8.93554e-05)
(0 -0 8.1062e-05)
(0 -0 7.23556e-05)
(0 -0 6.3521e-05)
(0 -0 5.48279e-05)
(0 -0 4.65169e-05)
(0 -0 3.8787e-05)
(0 -0 3.17876e-05)
(0 -0 2.56143e-05)
(0 -0 2.03095e-05)
(0 -0 1.58672e-05)
(0 -0 1.22412e-05)
(0 -0 9.35541e-06)
(0 -0 7.11472e-06)
(0 -0 5.41639e-06)
(0 -0 4.1594e-06)
(0 -0 3.25192e-06)
(0 -0 2.61578e-06)
(0 -0 2.18821e-06)
(0 -0 1.92036e-06)
(0 -0 1.77342e-06)
(0 -0 1.71355e-06)
(0 -0 1.70722e-06)
(0 -0 1.71883e-06)
(0 -0 1.71194e-06)
(0 -0 1.65488e-06)
(0 -0 1.52933e-06)
(0 -0 1.33902e-06)
(0 -0 1.11528e-06)
(0 -0 9.16e-07)
(0 -0 8.1698e-07)
(0 -0 8.96645e-07)
(0 -0 1.22427e-06)
(0 -0 1.77684e-06)
(0 -0 2.91803e-06)
(0 -0 0.000119171)
(0 -0 0.000123619)
(0 -0 0.000125924)
(0 -0 0.000126281)
(0 -0 0.000124931)
(0 -0 0.000121866)
(0 -0 0.000117126)
(0 -0 0.000110896)
(0 -0 0.000103411)
(0 -0 9.49431e-05)
(0 -0 8.5791e-05)
(0 -0 7.62659e-05)
(0 -0 6.6674e-05)
(0 -0 5.73002e-05)
(0 -0 4.83936e-05)
(0 -0 4.01561e-05)
(0 -0 3.27346e-05)
(0 -0 2.62184e-05)
(0 -0 2.0641e-05)
(0 -0 1.59861e-05)
(0 -0 1.21969e-05)
(0 -0 9.18697e-06)
(0 -0 6.85237e-06)
(0 -0 5.08254e-06)
(0 -0 3.77008e-06)
(0 -0 2.81808e-06)
(0 -0 2.14466e-06)
(0 -0 1.68456e-06)
(0 -0 1.38761e-06)
(0 -0 1.21494e-06)
(0 -0 1.13413e-06)
(0 -0 1.1145e-06)
(0 -0 1.12456e-06)
(0 -0 1.13297e-06)
(0 -0 1.11349e-06)
(0 -0 1.05268e-06)
(0 -0 9.57767e-07)
(0 -0 8.61472e-07)
(0 -0 8.20462e-07)
(0 -0 9.0665e-07)
(0 -0 1.19235e-06)
(0 -0 1.73931e-06)
(0 -0 2.51634e-06)
(0 -0 3.87895e-06)
(0 -0 0.00012787)
(0 -0 0.000132488)
(0 -0 0.000134778)
(0 -0 0.000134934)
(0 -0 0.000133205)
(0 -0 0.00012961)
(0 -0 0.000124225)
(0 -0 0.000117267)
(0 -0 0.000109005)
(0 -0 9.97418e-05)
(0 -0 8.98083e-05)
(0 -0 7.95401e-05)
(0 -0 6.92631e-05)
(0 -0 5.92757e-05)
(0 -0 4.98347e-05)
(0 -0 4.11438e-05)
(0 -0 3.33473e-05)
(0 -0 2.65283e-05)
(0 -0 2.07115e-05)
(0 -0 1.5871e-05)
(0 -0 1.19401e-05)
(0 -0 8.8231e-06)
(0 -0 6.40775e-06)
(0 -0 4.57658e-06)
(0 -0 3.2166e-06)
(0 -0 2.22658e-06)
(0 -0 1.52155e-06)
(0 -0 1.03419e-06)
(0 -0 7.13337e-07)
(0 -0 5.20409e-07)
(0 -0 4.24591e-07)
(0 -0 3.9812e-07)
(0 -0 4.13651e-07)
(0 -0 4.44971e-07)
(0 -0 4.71309e-07)
(0 -0 4.84245e-07)
(0 -0 4.94768e-07)
(0 -0 5.37249e-07)
(0 -0 6.67367e-07)
(0 -0 9.53319e-07)
(0 -0 1.46135e-06)
(0 -0 2.24552e-06)
(0 -0 3.26614e-06)
(0 -0 4.86981e-06)
(0 -0 0.000135214)
(0 -0 0.00013999)
(0 -0 0.00014227)
(0 -0 0.000142247)
(0 -0 0.000140178)
(0 -0 0.00013611)
(0 -0 0.000130149)
(0 -0 0.000122544)
(0 -0 0.000113591)
(0 -0 0.000103626)
(0 -0 9.30056e-05)
(0 -0 8.20868e-05)
(0 -0 7.12132e-05)
(0 -0 6.06947e-05)
(0 -0 5.07942e-05)
(0 -0 4.17165e-05)
(0 -0 3.36025e-05)
(0 -0 2.65292e-05)
(0 -0 2.05131e-05)
(0 -0 1.55194e-05)
(0 -0 1.14724e-05)
(0 -0 8.26807e-06)
(0 -0 5.78709e-06)
(0 -0 3.90603e-06)
(0 -0 2.50727e-06)
(0 -0 1.48611e-06)
(0 -0 7.55153e-07)
(0 -0 2.45552e-07)
(0 -0 -9.43058e-08)
(0 -0 -3.02338e-07)
(0 -0 -4.07615e-07)
(0 -0 -4.34899e-07)
(0 -0 -4.07309e-07)
(0 -0 -3.45881e-07)
(0 -0 -2.65858e-07)
(0 -0 -1.70502e-07)
(0 -0 -4.48844e-08)
(0 -0 1.47217e-07)
(0 -0 4.60704e-07)
(0 -0 9.60223e-07)
(0 -0 1.70599e-06)
(0 -0 2.74421e-06)
(0 -0 4.02639e-06)
(0 -0 5.88964e-06)
(0 -0 0.000141072)
(0 -0 0.000145977)
(0 -0 0.000148238)
(0 -0 0.000148053)
(0 -0 0.000145686)
(0 -0 0.000141206)
(0 -0 0.000134748)
(0 -0 0.000126587)
(0 -0 0.000117047)
(0 -0 0.000106489)
(0 -0 9.52902e-05)
(0 -0 8.38292e-05)
(0 -0 7.24628e-05)
(0 -0 6.15099e-05)
(0 -0 5.12377e-05)
(0 -0 4.18506e-05)
(0 -0 3.34862e-05)
(0 -0 2.62149e-05)
(0 -0 2.00461e-05)
(0 -0 1.49366e-05)
(0 -0 1.08028e-05)
(0 -0 7.53377e-06)
(0 -0 5.00424e-06)
(0 -0 3.08607e-06)
(0 -0 1.65805e-06)
(0 -0 6.12981e-07)
(0 -0 -1.38187e-07)
(0 -0 -6.65083e-07)
(0 -0 -1.01924e-06)
(0 -0 -1.23761e-06)
(0 -0 -1.34729e-06)
(0 -0 -1.36986e-06)
(0 -0 -1.32409e-06)
(0 -0 -1.22583e-06)
(0 -0 -1.08474e-06)
(0 -0 -8.98836e-07)
(0 -0 -6.49116e-07)
(0 -0 -2.97345e-07)
(0 -0 2.1079e-07)
(0 -0 9.36511e-07)
(0 -0 1.93401e-06)
(0 -0 3.24151e-06)
(0 -0 4.80147e-06)
(0 -0 6.94102e-06)
(0 -0 0.000145328)
(0 -0 0.000150315)
(0 -0 0.000152544)
(0 -0 0.000152213)
(0 -0 0.00014959)
(0 -0 0.000144767)
(0 -0 0.000137901)
(0 -0 0.000129288)
(0 -0 0.000119276)
(0 -0 0.000108245)
(0 -0 9.65931e-05)
(0 -0 8.47119e-05)
(0 -0 7.29693e-05)
(0 -0 6.16907e-05)
(0 -0 5.11452e-05)
(0 -0 4.15359e-05)
(0 -0 3.2996e-05)
(0 -0 2.55902e-05)
(0 -0 1.93204e-05)
(0 -0 1.41367e-05)
(0 -0 9.94873e-06)
(0 -0 6.64008e-06)
(0 -0 4.08081e-06)
(0 -0 2.13942e-06)
(0 -0 6.92362e-07)
(0 -0 -3.69014e-07)
(0 -0 -1.13453e-06)
(0 -0 -1.67384e-06)
(0 -0 -2.03788e-06)
(0 -0 -2.26227e-06)
(0 -0 -2.37178e-06)
(0 -0 -2.3846e-06)
(0 -0 -2.31509e-06)
(0 -0 -2.17386e-06)
(0 -0 -1.96497e-06)
(0 -0 -1.68111e-06)
(0 -0 -1.29915e-06)
(0 -0 -7.78711e-07)
(0 -0 -6.59548e-08)
(0 -0 8.97014e-07)
(0 -0 2.15836e-06)
(0 -0 3.7482e-06)
(0 -0 5.59974e-06)
(0 -0 8.02994e-06)
(0 -0 0.000147895)
(0 -0 0.000152897)
(0 -0 0.000155073)
(0 -0 0.000154618)
(0 -0 0.000151794)
(0 -0 0.000146705)
(0 -0 0.000139528)
(0 -0 0.000130577)
(0 -0 0.000120217)
(0 -0 0.000108846)
(0 -0 9.68739e-05)
(0 -0 8.47047e-05)
(0 -0 7.27125e-05)
(0 -0 6.12259e-05)
(0 -0 5.05139e-05)
(0 -0 4.07766e-05)
(0 -0 3.21425e-05)
(0 -0 2.46703e-05)
(0 -0 1.83557e-05)
(0 -0 1.31426e-05)
(0 -0 8.93564e-06)
(0 -0 5.61422e-06)
(0 -0 3.04534e-06)
(0 -0 1.09557e-06)
(0 -0 -3.59668e-07)
(0 -0 -1.42943e-06)
(0 -0 -2.20332e-06)
(0 -0 -2.75032e-06)
(0 -0 -3.12014e-06)
(0 -0 -3.3466e-06)
(0 -0 -3.45183e-06)
(0 -0 -3.45041e-06)
(0 -0 -3.35221e-06)
(0 -0 -3.16257e-06)
(0 -0 -2.87989e-06)
(0 -0 -2.49152e-06)
(0 -0 -1.97022e-06)
(0 -0 -1.27341e-06)
(0 -0 -3.47676e-07)
(0 -0 8.61608e-07)
(0 -0 2.39656e-06)
(0 -0 4.27915e-06)
(0 -0 6.43315e-06)
(0 -0 9.16552e-06)
(0 -0 0.000148677)
(0 -0 0.000153693)
(0 -0 0.000155749)
(0 -0 0.000155214)
(0 -0 0.000152253)
(0 -0 0.000146982)
(0 -0 0.000139596)
(0 -0 0.000130424)
(0 -0 0.000119846)
(0 -0 0.000108272)
(0 -0 9.61216e-05)
(0 -0 8.38033e-05)
(0 -0 7.16944e-05)
(0 -0 6.01235e-05)
(0 -0 4.9357e-05)
(0 -0 3.95907e-05)
(0 -0 3.09476e-05)
(0 -0 2.34805e-05)
(0 -0 1.71798e-05)
(0 -0 1.19844e-05)
(0 -0 7.79527e-06)
(0 -0 4.48924e-06)
(0 -0 1.9319e-06)
(0 -0 -1.06558e-08)
(0 -0 -1.46277e-06)
(0 -0 -2.53273e-06)
(0 -0 -3.30897e-06)
(0 -0 -3.85899e-06)
(0 -0 -4.23072e-06)
(0 -0 -4.45566e-06)
(0 -0 -4.55294e-06)
(0 -0 -4.53339e-06)
(0 -0 -4.40221e-06)
(0 -0 -4.1594e-06)
(0 -0 -3.79773e-06)
(0 -0 -3.2993e-06)
(0 -0 -2.63276e-06)
(0 -0 -1.75341e-06)
(0 -0 -6.08202e-07)
(0 -0 8.54176e-07)
(0 -0 2.66981e-06)
(0 -0 4.85247e-06)
(0 -0 7.31638e-06)
(0 -0 1.03594e-05)
(0 -0 0.000147766)
(0 -0 0.000152594)
(0 -0 0.000154633)
(0 -0 0.000154018)
(0 -0 0.000150985)
(0 -0 0.00014561)
(0 -0 0.000138114)
(0 -0 0.00012884)
(0 -0 0.000118177)
(0 -0 0.00010654)
(0 -0 9.43544e-05)
(0 -0 8.20288e-05)
(0 -0 6.99392e-05)
(0 -0 5.84106e-05)
(0 -0 4.77041e-05)
(0 -0 3.80098e-05)
(0 -0 2.94446e-05)
(0 -0 2.20557e-05)
(0 -0 1.58286e-05)
(0 -0 1.06989e-05)
(0 -0 6.56522e-06)
(0 -0 3.30342e-06)
(0 -0 7.79298e-07)
(0 -0 -1.14008e-06)
(0 -0 -2.5775e-06)
(0 -0 -3.63932e-06)
(0 -0 -4.41184e-06)
(0 -0 -4.96035e-06)
(0 -0 -5.33036e-06)
(0 -0 -5.55056e-06)
(0 -0 -5.63676e-06)
(0 -0 -5.59576e-06)
(0 -0 -5.42799e-06)
(0 -0 -5.12804e-06)
(0 -0 -4.68311e-06)
(0 -0 -4.07019e-06)
(0 -0 -3.25392e-06)
(0 -0 -2.18754e-06)
(0 -0 -8.18476e-07)
(0 -0 9.01229e-07)
(0 -0 3.00163e-06)
(0 -0 5.48826e-06)
(0 -0 8.2657e-06)
(0 -0 1.16247e-05)
(0 -0 -0.00096221)
(0 -0 -0.000962367)
(0 -0 -0.00095645)
(0 -0 -0.000946019)
(0 -0 -0.000931065)
(0 -0 -0.000910648)
(0 -0 -0.000885104)
(0 -0 -0.00085484)
(0 -0 -0.00082036)
(0 -0 -0.000782261)
(0 -0 -0.000741218)
(0 -0 -0.000697959)
(0 -0 -0.000653241)
(0 -0 -0.000607811)
(0 -0 -0.000562375)
(0 -0 -0.000517569)
(0 -0 -0.000473933)
(0 -0 -0.000431894)
(0 -0 -0.000391758)
(0 -0 -0.000353716)
(0 -0 -0.000317855)
(0 -0 -0.000284177)
(0 -0 -0.000252621)
(0 -0 -0.000223086)
(0 -0 -0.000195449)
(0 -0 -0.000169541)
(0 -0 -0.000145404)
(0 -0 -0.000686886)
(0 -0 -0.000690052)
(0 -0 -0.000689209)
(0 -0 -0.000685626)
(0 -0 -0.000678199)
(0 -0 -0.000666146)
(0 -0 -0.000649767)
(0 -0 -0.000629394)
(0 -0 -0.000605425)
(0 -0 -0.000578335)
(0 -0 -0.000548673)
(0 -0 -0.000517037)
(0 -0 -0.000484054)
(0 -0 -0.000450346)
(0 -0 -0.000416505)
(0 -0 -0.00038306)
(0 -0 -0.000350458)
(0 -0 -0.000319047)
(0 -0 -0.000289069)
(0 -0 -0.000260668)
(0 -0 -0.000233897)
(0 -0 -0.000208736)
(0 -0 -0.000185117)
(0 -0 -0.000162942)
(0 -0 -0.000142095)
(0 -0 -0.000122477)
(0 -0 -0.000104058)
(0 -0 -0.000491072)
(0 -0 -0.000494517)
(0 -0 -0.000494332)
(0 -0 -0.000493474)
(0 -0 -0.00049004)
(0 -0 -0.00048303)
(0 -0 -0.00047256)
(0 -0 -0.000458819)
(0 -0 -0.000442078)
(0 -0 -0.000422693)
(0 -0 -0.000401092)
(0 -0 -0.000377759)
(0 -0 -0.000353208)
(0 -0 -0.000327958)
(0 -0 -0.000302501)
(0 -0 -0.000277282)
(0 -0 -0.000252674)
(0 -0 -0.000228966)
(0 -0 -0.000206355)
(0 -0 -0.000184951)
(0 -0 -0.000164788)
(0 -0 -0.000145838)
(0 -0 -0.000128034)
(0 -0 -0.000111285)
(0 -0 -9.54913e-05)
(0 -0 -8.0567e-05)
(0 -0 -6.65031e-05)
(0 -0 -0.000351688)
(0 -0 -0.000354179)
(0 -0 -0.000354158)
(0 -0 -0.000354199)
(0 -0 -0.000352849)
(0 -0 -0.000348856)
(0 -0 -0.000342168)
(0 -0 -0.000332841)
(0 -0 -0.000321031)
(0 -0 -0.000306983)
(0 -0 -0.000291022)
(0 -0 -0.000273531)
(0 -0 -0.00025493)
(0 -0 -0.000235647)
(0 -0 -0.000216098)
(0 -0 -0.00019666)
(0 -0 -0.000177649)
(0 -0 -0.000159314)
(0 -0 -0.000141823)
(0 -0 -0.000125271)
(0 -0 -0.000109685)
(0 -0 -9.50425e-05)
(0 -0 -8.1286e-05)
(0 -0 -6.83402e-05)
(0 -0 -5.61237e-05)
(0 -0 -4.45663e-05)
(0 -0 -3.36709e-05)
(0 -0 -0.00025139)
(0 -0 -0.000253976)
(0 -0 -0.000254634)
(0 -0 -0.000255607)
(0 -0 -0.000255716)
(0 -0 -0.000253761)
(0 -0 -0.00024964)
(0 -0 -0.000243339)
(0 -0 -0.000234935)
(0 -0 -0.000224591)
(0 -0 -0.000212549)
(0 -0 -0.000199108)
(0 -0 -0.00018461)
(0 -0 -0.000169414)
(0 -0 -0.000153874)
(0 -0 -0.000138314)
(0 -0 -0.000123016)
(0 -0 -0.0001082)
(0 -0 -9.40246e-05)
(0 -0 -8.0582e-05)
(0 -0 -6.79093e-05)
(0 -0 -5.59992e-05)
(0 -0 -4.48154e-05)
(0 -0 -3.43056e-05)
(0 -0 -2.44119e-05)
(0 -0 -1.50842e-05)
(0 -0 -6.33781e-06)
(0 -0 -0.000180231)
(0 -0 -0.00018373)
(0 -0 -0.000185305)
(0 -0 -0.000187282)
(0 -0 -0.000188629)
(0 -0 -0.000188239)
(0 -0 -0.000186005)
(0 -0 -0.000181879)
(0 -0 -0.00017589)
(0 -0 -0.000168141)
(0 -0 -0.00015881)
(0 -0 -0.000148133)
(0 -0 -0.00013639)
(0 -0 -0.000123884)
(0 -0 -0.000110922)
(0 -0 -9.77946e-05)
(0 -0 -8.47602e-05)
(0 -0 -7.203e-05)
(0 -0 -5.9763e-05)
(0 -0 -4.80654e-05)
(0 -0 -3.69951e-05)
(0 -0 -2.65722e-05)
(0 -0 -1.67904e-05)
(0 -0 -7.62827e-06)
(0 -0 9.43522e-07)
(0 -0 8.95073e-06)
(0 -0 1.63621e-05)
(0 -0 -0.000131741)
(0 -0 -0.000135843)
(0 -0 -0.000138267)
(0 -0 -0.000141184)
(0 -0 -0.000143617)
(0 -0 -0.000144515)
(0 -0 -0.000143758)
(0 -0 -0.000141273)
(0 -0 -0.00013705)
(0 -0 -0.000131146)
(0 -0 -0.000123689)
(0 -0 -0.000114863)
(0 -0 -0.000104898)
(0 -0 -9.40576e-05)
(0 -0 -8.26145e-05)
(0 -0 -7.0838e-05)
(0 -0 -5.89761e-05)
(0 -0 -4.72433e-05)
(0 -0 -3.58132e-05)
(0 -0 -2.48164e-05)
(0 -0 -1.4343e-05)
(0 -0 -4.45004e-06)
(0 -0 4.83035e-06)
(0 -0 1.34823e-05)
(0 -0 2.15017e-05)
(0 -0 2.88868e-05)
(0 -0 3.55885e-05)
(0 -0 -9.98746e-05)
(0 -0 -0.000104457)
(0 -0 -0.000107631)
(0 -0 -0.000111394)
(0 -0 -0.000114784)
(0 -0 -0.000116779)
(0 -0 -0.000117231)
(0 -0 -0.000116035)
(0 -0 -0.000113145)
(0 -0 -0.000108575)
(0 -0 -0.000102409)
(0 -0 -9.4787e-05)
(0 -0 -8.59016e-05)
(0 -0 -7.59823e-05)
(0 -0 -6.52806e-05)
(0 -0 -5.40542e-05)
(0 -0 -4.25524e-05)
(0 -0 -3.10031e-05)
(0 -0 -1.96047e-05)
(0 -0 -8.52221e-06)
(0 -0 2.11297e-06)
(0 -0 1.21991e-05)
(0 -0 2.16584e-05)
(0 -0 3.04325e-05)
(0 -0 3.84799e-05)
(0 -0 4.57689e-05)
(0 -0 5.22314e-05)
(0 -0 -7.99826e-05)
(0 -0 -8.50415e-05)
(0 -0 -8.89222e-05)
(0 -0 -9.34668e-05)
(0 -0 -9.77214e-05)
(0 -0 -0.000100677)
(0 -0 -0.000102154)
(0 -0 -0.000102008)
(0 -0 -0.000100153)
(0 -0 -9.65638e-05)
(0 -0 -9.12809e-05)
(0 -0 -8.44073e-05)
(0 -0 -7.61018e-05)
(0 -0 -6.65689e-05)
(0 -0 -5.60456e-05)
(0 -0 -4.47865e-05)
(0 -0 -3.30505e-05)
(0 -0 -2.10874e-05)
(0 -0 -9.12887e-06)
(0 -0 2.61814e-06)
(0 -0 1.39739e-05)
(0 -0 2.47853e-05)
(0 -0 3.49242e-05)
(0 -0 4.42852e-05)
(0 -0 5.27865e-05)
(0 -0 6.03647e-05)
(0 -0 6.69321e-05)
(0 -0 -6.85728e-05)
(0 -0 -7.41587e-05)
(0 -0 -7.87489e-05)
(0 -0 -8.40474e-05)
(0 -0 -8.91088e-05)
(0 -0 -9.29347e-05)
(0 -0 -9.53074e-05)
(0 -0 -9.6045e-05)
(0 -0 -9.5019e-05)
(0 -0 -9.21633e-05)
(0 -0 -8.74786e-05)
(0 -0 -8.10322e-05)
(0 -0 -7.29542e-05)
(0 -0 -6.34291e-05)
(0 -0 -5.26846e-05)
(0 -0 -4.09787e-05)
(0 -0 -2.85859e-05)
(0 -0 -1.57846e-05)
(0 -0 -2.84552e-06)
(0 -0 9.97643e-06)
(0 -0 2.24481e-05)
(0 -0 3.43608e-05)
(0 -0 4.55321e-05)
(0 -0 5.58072e-05)
(0 -0 6.50618e-05)
(0 -0 7.31999e-05)
(0 -0 8.01141e-05)
(0 -0 -6.30681e-05)
(0 -0 -6.92433e-05)
(0 -0 -7.45656e-05)
(0 -0 -8.06125e-05)
(0 -0 -8.64478e-05)
(0 -0 -9.10823e-05)
(0 -0 -9.42616e-05)
(0 -0 -9.57647e-05)
(0 -0 -9.54217e-05)
(0 -0 -9.3126e-05)
(0 -0 -8.884e-05)
(0 -0 -8.25979e-05)
(0 -0 -7.45038e-05)
(0 -0 -6.47257e-05)
(0 -0 -5.34865e-05)
(0 -0 -4.10517e-05)
(0 -0 -2.77165e-05)
(0 -0 -1.37918e-05)
(0 -0 4.0838e-07)
(0 -0 1.45775e-05)
(0 -0 2.84256e-05)
(0 -0 4.16862e-05)
(0 -0 5.41206e-05)
(0 -0 6.55229e-05)
(0 -0 7.57259e-05)
(0 -0 8.46008e-05)
(0 -0 9.20206e-05)
(0 -0 -6.15889e-05)
(0 -0 -6.8404e-05)
(0 -0 -7.44785e-05)
(0 -0 -8.12726e-05)
(0 -0 -8.78591e-05)
(0 -0 -9.32566e-05)
(0 -0 -9.71758e-05)
(0 -0 -9.93572e-05)
(0 -0 -9.95916e-05)
(0 -0 -9.7733e-05)
(0 -0 -9.37074e-05)
(0 -0 -8.75179e-05)
(0 -0 -7.92453e-05)
(0 -0 -6.90442e-05)
(0 -0 -5.71356e-05)
(0 -0 -4.37956e-05)
(0 -0 -2.93429e-05)
(0 -0 -1.41236e-05)
(0 -0 1.50244e-06)
(0 -0 1.71757e-05)
(0 -0 3.25484e-05)
(0 -0 4.7295e-05)
(0 -0 6.11203e-05)
(0 -0 7.37675e-05)
(0 -0 8.50272e-05)
(0 -0 9.47384e-05)
(0 -0 0.000102755)
(0 -0 -6.27715e-05)
(0 -0 -7.02528e-05)
(0 -0 -7.70844e-05)
(0 -0 -8.46158e-05)
(0 -0 -9.19278e-05)
(0 -0 -9.80461e-05)
(0 -0 -0.000102648)
(0 -0 -0.000105438)
(0 -0 -0.00010617)
(0 -0 -0.000104659)
(0 -0 -0.000100799)
(0 -0 -9.45634e-05)
(0 -0 -8.60121e-05)
(0 -0 -7.52888e-05)
(0 -0 -6.26149e-05)
(0 -0 -4.82792e-05)
(0 -0 -3.26251e-05)
(0 -0 -1.60352e-05)
(0 -0 1.08473e-06)
(0 -0 1.8322e-05)
(0 -0 3.52716e-05)
(0 -0 5.155e-05)
(0 -0 6.68068e-05)
(0 -0 8.07364e-05)
(0 -0 9.30882e-05)
(0 -0 0.000103671)
(0 -0 0.000112321)
(0 -0 -6.56235e-05)
(0 -0 -7.37699e-05)
(0 -0 -8.13409e-05)
(0 -0 -8.95825e-05)
(0 -0 -9.75828e-05)
(0 -0 -0.000104374)
(0 -0 -0.000109602)
(0 -0 -0.000112938)
(0 -0 -0.000114101)
(0 -0 -0.000112872)
(0 -0 -0.000109113)
(0 -0 -0.000102772)
(0 -0 -9.38894e-05)
(0 -0 -8.26013e-05)
(0 -0 -6.91304e-05)
(0 -0 -5.37792e-05)
(0 -0 -3.69162e-05)
(0 -0 -1.89599e-05)
(0 -0 -3.60563e-07)
(0 -0 1.84174e-05)
(0 -0 3.69145e-05)
(0 -0 5.46918e-05)
(0 -0 7.1347e-05)
(0 -0 8.65279e-05)
(0 -0 9.99459e-05)
(0 -0 0.000111381)
(0 -0 0.000120655)
(0 -0 -6.94172e-05)
(0 -0 -7.81987e-05)
(0 -0 -8.64666e-05)
(0 -0 -9.53702e-05)
(0 -0 -0.000104005)
(0 -0 -0.000111409)
(0 -0 -0.000117201)
(0 -0 -0.000121021)
(0 -0 -0.000122555)
(0 -0 -0.000121556)
(0 -0 -0.000117855)
(0 -0 -0.000111379)
(0 -0 -0.000102152)
(0 -0 -9.03019e-05)
(0 -0 -7.60553e-05)
(0 -0 -5.97279e-05)
(0 -0 -4.17127e-05)
(0 -0 -2.2462e-05)
(0 -0 -2.46839e-06)
(0 -0 1.77563e-05)
(0 -0 3.77015e-05)
(0 -0 5.68777e-05)
(0 -0 7.48347e-05)
(0 -0 9.11782e-05)
(0 -0 0.000105585)
(0 -0 0.000117811)
(0 -0 0.000127662)
(0 -0 -7.361e-05)
(0 -0 -8.29692e-05)
(0 -0 -9.18669e-05)
(0 -0 -0.000101363)
(0 -0 -0.00011056)
(0 -0 -0.000118504)
(0 -0 -0.000124788)
(0 -0 -0.000129025)
(0 -0 -0.000130875)
(0 -0 -0.000130061)
(0 -0 -0.000126392)
(0 -0 -0.000119774)
(0 -0 -0.000110218)
(0 -0 -9.78472e-05)
(0 -0 -8.28898e-05)
(0 -0 -6.56754e-05)
(0 -0 -4.66189e-05)
(0 -0 -2.62036e-05)
(0 -0 -4.95993e-06)
(0 -0 1.65574e-05)
(0 -0 3.77925e-05)
(0 -0 5.82111e-05)
(0 -0 7.73206e-05)
(0 -0 9.46898e-05)
(0 -0 0.000109966)
(0 -0 0.000122882)
(0 -0 0.000133233)
(0 -0 -7.77912e-05)
(0 -0 -8.76459e-05)
(0 -0 -9.70844e-05)
(0 -0 -0.000107083)
(0 -0 -0.000116754)
(0 -0 -0.00012515)
(0 -0 -0.000131844)
(0 -0 -0.000136427)
(0 -0 -0.000138534)
(0 -0 -0.000137868)
(0 -0 -0.000134216)
(0 -0 -0.000127468)
(0 -0 -0.000117625)
(0 -0 -0.000104803)
(0 -0 -8.9236e-05)
(0 -0 -7.12643e-05)
(0 -0 -5.13222e-05)
(0 -0 -2.99196e-05)
(0 -0 -7.61934e-06)
(0 -0 1.49872e-05)
(0 -0 3.73057e-05)
(0 -0 5.87637e-05)
(0 -0 7.88332e-05)
(0 -0 9.70523e-05)
(0 -0 0.000113043)
(0 -0 0.000126521)
(0 -0 0.000137272)
(0 -0 -8.16417e-05)
(0 -0 -9.18922e-05)
(0 -0 -0.000101766)
(0 -0 -0.000112162)
(0 -0 -0.000122202)
(0 -0 -0.00013095)
(0 -0 -0.000137964)
(0 -0 -0.000142815)
(0 -0 -0.000145122)
(0 -0 -0.000144569)
(0 -0 -0.000140929)
(0 -0 -0.000134076)
(0 -0 -0.000124005)
(0 -0 -0.000110828)
(0 -0 -9.47813e-05)
(0 -0 -7.62149e-05)
(0 -0 -5.55785e-05)
(0 -0 -3.34036e-05)
(0 -0 -1.02791e-05)
(0 -0 1.31744e-05)
(0 -0 3.63319e-05)
(0 -0 5.85905e-05)
(0 -0 7.93946e-05)
(0 -0 9.82579e-05)
(0 -0 0.000114783)
(0 -0 0.000128671)
(0 -0 0.000139702)
(0 -0 -8.49186e-05)
(0 -0 -9.54503e-05)
(0 -0 -0.00010565)
(0 -0 -0.000116327)
(0 -0 -0.000126621)
(0 -0 -0.000135611)
(0 -0 -0.000142845)
(0 -0 -0.000147882)
(0 -0 -0.00015033)
(0 -0 -0.000149859)
(0 -0 -0.00014623)
(0 -0 -0.000139311)
(0 -0 -0.000129087)
(0 -0 -0.000115669)
(0 -0 -9.92945e-05)
(0 -0 -8.03204e-05)
(0 -0 -5.92077e-05)
(0 -0 -3.65033e-05)
(0 -0 -1.28151e-05)
(0 -0 1.12151e-05)
(0 -0 3.494e-05)
(0 -0 5.77353e-05)
(0 -0 7.90254e-05)
(0 -0 9.83072e-05)
(0 -0 0.000115169)
(0 -0 0.000129299)
(0 -0 0.000140494)
(0 -0 -8.75179e-05)
(0 -0 -9.81563e-05)
(0 -0 -0.00010857)
(0 -0 -0.000119398)
(0 -0 -0.00012982)
(0 -0 -0.000138934)
(0 -0 -0.000146283)
(0 -0 -0.000151423)
(0 -0 -0.000153951)
(0 -0 -0.000153534)
(0 -0 -0.000149925)
(0 -0 -0.000142984)
(0 -0 -0.000132693)
(0 -0 -0.000119161)
(0 -0 -0.000102626)
(0 -0 -8.34477e-05)
(0 -0 -6.20939e-05)
(0 -0 -3.91204e-05)
(0 -0 -1.51466e-05)
(0 -0 9.17311e-06)
(0 -0 3.31782e-05)
(0 -0 5.62317e-05)
(0 -0 7.77466e-05)
(0 -0 9.72101e-05)
(0 -0 0.000114201)
(0 -0 0.000128415)
(0 -0 0.000139583)
(0 -0 -8.94521e-05)
(0 -0 -0.000100076)
(0 -0 -0.000110471)
(0 -0 -0.000121307)
(0 -0 -0.00013171)
(0 -0 -0.000140813)
(0 -0 -0.000148159)
(0 -0 -0.000153303)
(0 -0 -0.000155844)
(0 -0 -0.000155443)
(0 -0 -0.000151853)
(0 -0 -0.00014493)
(0 -0 -0.000134654)
(0 -0 -0.000121132)
(0 -0 -0.000104601)
(0 -0 -8.542e-05)
(0 -0 -6.40585e-05)
(0 -0 -4.1075e-05)
(0 -0 -1.70919e-05)
(0 -0 7.2321e-06)
(0 -0 3.12326e-05)
(0 -0 5.42689e-05)
(0 -0 7.57509e-05)
(0 -0 9.51637e-05)
(0 -0 0.000112087)
(0 -0 0.000126197)
(0 -0 0.000137283)
(0 -0 -9.0319e-05)
(0 -0 -0.000100899)
(0 -0 -0.000111152)
(0 -0 -0.000121854)
(0 -0 -0.000132127)
(0 -0 -0.000141122)
(0 -0 -0.000148387)
(0 -0 -0.000153479)
(0 -0 -0.000156)
(0 -0 -0.000155614)
(0 -0 -0.000152075)
(0 -0 -0.000145239)
(0 -0 -0.000135085)
(0 -0 -0.000121717)
(0 -0 -0.000105369)
(0 -0 -8.63985e-05)
(0 -0 -6.52698e-05)
(0 -0 -4.25379e-05)
(0 -0 -1.88211e-05)
(0 -0 5.226e-06)
(0 -0 2.89434e-05)
(0 -0 5.16949e-05)
(0 -0 7.28954e-05)
(0 -0 9.20348e-05)
(0 -0 0.000108696)
(0 -0 0.000122566)
(0 -0 0.000133407)
(0 -0 -9.0131e-05)
(0 -0 -0.000100532)
(0 -0 -0.000110571)
(0 -0 -0.000121014)
(0 -0 -0.000131037)
(0 -0 -0.000139816)
(0 -0 -0.000146905)
(0 -0 -0.000151872)
(0 -0 -0.000154327)
(0 -0 -0.000153941)
(0 -0 -0.000150472)
(0 -0 -0.00014378)
(0 -0 -0.000133842)
(0 -0 -0.000120761)
(0 -0 -0.000104767)
(0 -0 -8.62085e-05)
(0 -0 -6.55431e-05)
(0 -0 -4.33148e-05)
(0 -0 -2.01307e-05)
(0 -0 3.36695e-06)
(0 -0 2.65308e-05)
(0 -0 4.8737e-05)
(0 -0 6.94132e-05)
(0 -0 8.80609e-05)
(0 -0 0.000104273)
(0 -0 0.000117744)
(0 -0 0.000128238)
(0 -0 -8.87896e-05)
(0 -0 -9.89006e-05)
(0 -0 -0.000108626)
(0 -0 -0.000118697)
(0 -0 -0.000128361)
(0 -0 -0.000136821)
(0 -0 -0.000143647)
(0 -0 -0.000148423)
(0 -0 -0.00015077)
(0 -0 -0.000150373)
(0 -0 -0.000146996)
(0 -0 -0.000140506)
(0 -0 -0.000130881)
(0 -0 -0.000118221)
(0 -0 -0.000102749)
(0 -0 -8.48039e-05)
(0 -0 -6.48292e-05)
(0 -0 -4.33523e-05)
(0 -0 -2.09619e-05)
(0 -0 1.71993e-06)
(0 -0 2.40663e-05)
(0 -0 4.54743e-05)
(0 -0 6.53908e-05)
(0 -0 8.33353e-05)
(0 -0 9.89167e-05)
(0 -0 0.000111841)
(0 -0 0.000121894)
(0 -0 -8.63318e-05)
(0 -0 -9.60264e-05)
(0 -0 -0.000105321)
(0 -0 -0.000114913)
(0 -0 -0.000124114)
(0 -0 -0.00013216)
(0 -0 -0.000138643)
(0 -0 -0.000143166)
(0 -0 -0.00014537)
(0 -0 -0.000144954)
(0 -0 -0.000141695)
(0 -0 -0.000135466)
(0 -0 -0.000126248)
(0 -0 -0.000114138)
(0 -0 -9.93497e-05)
(0 -0 -8.22092e-05)
(0 -0 -6.31407e-05)