/*--------------------------------*- C++ -*----------------------------------*\
| =========                 |                                                 |
| \\      /  F ield         | OpenFOAM: The Open Source CFD Toolbox           |
|  \\    /   O peration     | Version:  2412                                  |
|   \\  /    A nd           | Website:  www.openfoam.com                      |
|    \\/     M anipulation  |                                                 |
\*---------------------------------------------------------------------------*/
FoamFile
{
    version     2.0;
    format      ascii;
    arch        "LSB;label=32;scalar=64";
    class       volVectorField;
    location    "6";
    object      U;
}
// * * * * * * * * * * * * * * * * * * * * * * * * * * * * * * * * * * * * * //

dimensions      [0 1 -1 0 0 0 0];

internalField   nonuniform List<vector> 
5285
(
(0.099915 0.000664444 0)
(0.0999191 0.000630072 0)
(0.0999234 0.000596846 0)
(0.0999279 0.000564765 0)
(0.0999326 0.000533824 0)
(0.0999375 0.000504018 0)
(0.0999424 0.000475339 0)
(0.0999473 0.000447776 0)
(0.0999523 0.000421312 0)
(0.0999573 0.000395933 0)
(0.0999623 0.000371621 0)
(0.0999672 0.000348358 0)
(0.0999721 0.000326123 0)
(0.0999768 0.000304896 0)
(0.0999815 0.000284656 0)
(0.099986 0.00026538 0)
(0.0999905 0.000247045 0)
(0.0999947 0.000229629 0)
(0.0999988 0.000213106 0)
(0.100003 0.000197454 0)
(0.100007 0.000182647 0)
(0.10001 0.00016866 0)
(0.100014 0.000155468 0)
(0.100017 0.000143045 0)
(0.10002 0.000131364 0)
(0.100023 0.000120399 0)
(0.100025 0.000110124 0)
(0.100028 0.000100514 0)
(0.10003 9.15433e-05 0)
(0.100032 8.3188e-05 0)
(0.100034 7.54236e-05 0)
(0.100036 6.82255e-05 0)
(0.100038 6.15698e-05 0)
(0.100039 5.54333e-05 0)
(0.10004 4.9793e-05 0)
(0.100041 4.46275e-05 0)
(0.100042 3.99161e-05 0)
(0.100043 3.56403e-05 0)
(0.100044 3.17823e-05 0)
(0.100045 2.83252e-05 0)
(0.100045 2.52525e-05 0)
(0.100046 2.25483e-05 0)
(0.100046 2.01996e-05 0)
(0.100047 1.81932e-05 0)
(0.100047 1.6522e-05 0)
(0.100047 1.51785e-05 0)
(0.100047 1.41589e-05 0)
(0.100048 1.34674e-05 0)
(0.100048 1.31011e-05 0)
(0.100048 1.30759e-05 0)
(0.100048 1.33978e-05 0)
(0.100049 1.40916e-05 0)
(0.100049 1.51802e-05 0)
(0.10005 1.67148e-05 0)
(0.10005 1.8707e-05 0)
(0.100051 2.13083e-05 0)
(0.100053 2.43469e-05 0)
(0.100053 2.85209e-05 0)
(0.100057 3.24919e-05 0)
(0.100053 3.96782e-05 0)
(0.100069 4.32381e-05 0)
(0.100047 5.74778e-05 0)
(0.100098 5.61165e-05 0)
(0.100026 8.59904e-05 0)
(0.100156 7.21238e-05 0)
(0.0999906 0.000127278 0)
(0.100236 9.92749e-05 0)
(0.0999721 0.000178411 0)
(0.100328 0.000156543 0)
(0.099994 0.000206218 0)
(0.100431 0.000339687 0)
(0.0999018 0.00066252 0)
(0.0999067 0.00062808 0)
(0.0999118 0.000594808 0)
(0.0999171 0.000562698 0)
(0.0999225 0.000531747 0)
(0.099928 0.000501945 0)
(0.0999336 0.000473284 0)
(0.0999392 0.000445749 0)
(0.0999447 0.000419325 0)
(0.0999503 0.000393994 0)
(0.0999558 0.000369737 0)
(0.0999613 0.000346535 0)
(0.0999666 0.000324367 0)
(0.0999719 0.000303211 0)
(0.099977 0.000283046 0)
(0.099982 0.000263847 0)
(0.0999868 0.000245591 0)
(0.0999914 0.000228254 0)
(0.0999959 0.000211812 0)
(0.1 0.000196239 0)
(0.100004 0.000181511 0)
(0.100008 0.000167601 0)
(0.100012 0.000154485 0)
(0.100015 0.000142135 0)
(0.100019 0.000130525 0)
(0.100022 0.000119628 0)
(0.100025 0.00010942 0)
(0.100027 9.98723e-05 0)
(0.10003 9.09619e-05 0)
(0.100032 8.26635e-05 0)
(0.100034 7.49528e-05 0)
(0.100036 6.7805e-05 0)
(0.100038 6.11963e-05 0)
(0.100039 5.51034e-05 0)
(0.100041 4.95036e-05 0)
(0.100042 4.43755e-05 0)
(0.100043 3.96985e-05 0)
(0.100044 3.54538e-05 0)
(0.100045 3.16237e-05 0)
(0.100046 2.81913e-05 0)
(0.100046 2.51402e-05 0)
(0.100047 2.24545e-05 0)
(0.100047 2.01214e-05 0)
(0.100048 1.81282e-05 0)
(0.100048 1.64672e-05 0)
(0.100049 1.51316e-05 0)
(0.100049 1.41171e-05 0)
(0.100049 1.34276e-05 0)
(0.100049 1.30606e-05 0)
(0.10005 1.30314e-05 0)
(0.10005 1.33465e-05 0)
(0.10005 1.403e-05 0)
(0.100051 1.51046e-05 0)
(0.100051 1.66202e-05 0)
(0.100052 1.85891e-05 0)
(0.100053 2.11584e-05 0)
(0.100054 2.41653e-05 0)
(0.100055 2.82806e-05 0)
(0.100059 3.22266e-05 0)
(0.100055 3.9274e-05 0)
(0.100072 4.28918e-05 0)
(0.10005 5.67383e-05 0)
(0.100101 5.57538e-05 0)
(0.100029 8.45687e-05 0)
(0.100159 7.18151e-05 0)
(0.0999934 0.000124632 0)
(0.10024 9.89795e-05 0)
(0.0999767 0.00017291 0)
(0.100331 0.000156917 0)
(0.100005 0.00019774 0)
(0.10043 0.000319058 0)
(0.0998883 0.000660231 0)
(0.099894 0.000625743 0)
(0.0998999 0.000592443 0)
(0.099906 0.000560325 0)
(0.0999121 0.000529381 0)
(0.0999183 0.000499601 0)
(0.0999246 0.000470974 0)
(0.0999308 0.000443484 0)
(0.099937 0.000417114 0)
(0.0999432 0.000391845 0)
(0.0999492 0.000367658 0)
(0.0999552 0.000344531 0)
(0.0999611 0.000322442 0)
(0.0999668 0.00030137 0)
(0.0999724 0.00028129 0)
(0.0999778 0.000262179 0)
(0.099983 0.000244012 0)
(0.099988 0.000226764 0)
(0.0999928 0.00021041 0)
(0.0999974 0.000194925 0)
(0.100002 0.000180283 0)
(0.100006 0.000166458 0)
(0.10001 0.000153423 0)
(0.100014 0.000141153 0)
(0.100017 0.00012962 0)
(0.100021 0.000118798 0)
(0.100024 0.00010866 0)
(0.100027 9.91806e-05 0)
(0.100029 9.03347e-05 0)
(0.100032 8.20973e-05 0)
(0.100034 7.4444e-05 0)
(0.100036 6.735e-05 0)
(0.100038 6.07915e-05 0)
(0.10004 5.47453e-05 0)
(0.100041 4.91886e-05 0)
(0.100043 4.41004e-05 0)
(0.100044 3.94598e-05 0)
(0.100045 3.52484e-05 0)
(0.100046 3.1448e-05 0)
(0.100047 2.8042e-05 0)
(0.100047 2.5014e-05 0)
(0.100048 2.23481e-05 0)
(0.100049 2.00319e-05 0)
(0.100049 1.80527e-05 0)
(0.100049 1.64029e-05 0)
(0.10005 1.50757e-05 0)
(0.10005 1.40669e-05 0)
(0.10005 1.33798e-05 0)
(0.100051 1.30125e-05 0)
(0.100051 1.29793e-05 0)
(0.100051 1.32875e-05 0)
(0.100052 1.39607e-05 0)
(0.100052 1.50208e-05 0)
(0.100053 1.6517e-05 0)
(0.100054 1.84619e-05 0)
(0.100054 2.09984e-05 0)
(0.100056 2.3972e-05 0)
(0.100056 2.80286e-05 0)
(0.100062 3.19448e-05 0)
(0.100057 3.88576e-05 0)
(0.100074 4.25186e-05 0)
(0.100052 5.59914e-05 0)
(0.100104 5.53419e-05 0)
(0.100031 8.3153e-05 0)
(0.100163 7.1426e-05 0)
(0.0999964 0.000121999 0)
(0.100244 9.85715e-05 0)
(0.0999816 0.000167491 0)
(0.100333 0.000156918 0)
(0.100018 0.000189419 0)
(0.100427 0.000299275 0)
(0.0998746 0.000657574 0)
(0.0998811 0.000623058 0)
(0.0998878 0.000589751 0)
(0.0998946 0.000557643 0)
(0.0999015 0.000526724 0)
(0.0999084 0.000496984 0)
(0.0999153 0.000468408 0)
(0.0999222 0.000440979 0)
(0.099929 0.000414679 0)
(0.0999358 0.000389487 0)
(0.0999424 0.000365382 0)
(0.0999489 0.000342343 0)
(0.0999553 0.000320347 0)
(0.0999615 0.000299369 0)
(0.0999675 0.000279386 0)
(0.0999733 0.000260373 0)
(0.0999789 0.000242305 0)
(0.0999844 0.000225155 0)
(0.0999895 0.000208899 0)
(0.0999945 0.00019351 0)
(0.0999992 0.000178962 0)
(0.100004 0.000165229 0)
(0.100008 0.000152283 0)
(0.100012 0.000140099 0)
(0.100016 0.000128649 0)
(0.100019 0.000117906 0)
(0.100023 0.000107845 0)
(0.100026 9.84379e-05 0)
(0.100029 8.96609e-05 0)
(0.100031 8.14886e-05 0)
(0.100034 7.38965e-05 0)
(0.100036 6.68597e-05 0)
(0.100038 6.03546e-05 0)
(0.10004 5.43579e-05 0)
(0.100041 4.88471e-05 0)
(0.100043 4.38012e-05 0)
(0.100044 3.91994e-05 0)
(0.100045 3.50232e-05 0)
(0.100047 3.12544e-05 0)
(0.100047 2.78765e-05 0)
(0.100048 2.4873e-05 0)
(0.100049 2.22284e-05 0)
(0.10005 1.99302e-05 0)
(0.10005 1.79661e-05 0)
(0.100051 1.63282e-05 0)
(0.100051 1.50102e-05 0)
(0.100051 1.40077e-05 0)
(0.100052 1.33234e-05 0)
(0.100052 1.2956e-05 0)
(0.100052 1.29191e-05 0)
(0.100053 1.32204e-05 0)
(0.100053 1.3883e-05 0)
(0.100054 1.49284e-05 0)
(0.100054 1.64046e-05 0)
(0.100055 1.83248e-05 0)
(0.100056 2.08278e-05 0)
(0.100058 2.37668e-05 0)
(0.100058 2.77634e-05 0)
(0.100064 3.1648e-05 0)
(0.100059 3.84248e-05 0)
(0.100077 4.21246e-05 0)
(0.100054 5.52259e-05 0)
(0.100107 5.48976e-05 0)
(0.100033 8.17204e-05 0)
(0.100166 7.09827e-05 0)
(0.0999994 0.000119358 0)
(0.100248 9.80584e-05 0)
(0.0999865 0.000162188 0)
(0.100334 0.000156467 0)
(0.100031 0.000181362 0)
(0.100423 0.000280481 0)
(0.0998605 0.000654543 0)
(0.0998679 0.000620021 0)
(0.0998754 0.000586726 0)
(0.0998829 0.000554648 0)
(0.0998906 0.000523774 0)
(0.0998982 0.000494091 0)
(0.0999058 0.000465583 0)
(0.0999133 0.000438231 0)
(0.0999207 0.000412016 0)
(0.0999281 0.000386916 0)
(0.0999353 0.000362909 0)
(0.0999423 0.000339972 0)
(0.0999492 0.00031808 0)
(0.0999558 0.000297209 0)
(0.0999623 0.000277334 0)
(0.0999686 0.00025843 0)
(0.0999746 0.00024047 0)
(0.0999804 0.000223428 0)
(0.099986 0.000207279 0)
(0.0999913 0.000191994 0)
(0.0999963 0.000177548 0)
(0.100001 0.000163914 0)
(0.100006 0.000151064 0)
(0.10001 0.000138972 0)
(0.100014 0.000127611 0)
(0.100018 0.000116953 0)
(0.100021 0.000106973 0)
(0.100025 9.76434e-05 0)
(0.100028 8.89397e-05 0)
(0.100031 8.08365e-05 0)
(0.100033 7.33094e-05 0)
(0.100036 6.63334e-05 0)
(0.100038 5.98849e-05 0)
(0.10004 5.39408e-05 0)
(0.100041 4.84786e-05 0)
(0.100043 4.34774e-05 0)
(0.100045 3.89167e-05 0)
(0.100046 3.47777e-05 0)
(0.100047 3.10424e-05 0)
(0.100048 2.76942e-05 0)
(0.100049 2.47168e-05 0)
(0.10005 2.20948e-05 0)
(0.10005 1.98158e-05 0)
(0.100051 1.78678e-05 0)
(0.100051 1.62428e-05 0)
(0.100052 1.49347e-05 0)
(0.100052 1.3939e-05 0)
(0.100053 1.3258e-05 0)
(0.100053 1.28908e-05 0)
(0.100053 1.28504e-05 0)
(0.100054 1.31447e-05 0)
(0.100054 1.37965e-05 0)
(0.100055 1.48268e-05 0)
(0.100056 1.62827e-05 0)
(0.100057 1.81775e-05 0)
(0.100058 2.06461e-05 0)
(0.10006 2.35494e-05 0)
(0.10006 2.74849e-05 0)
(0.100065 3.13356e-05 0)
(0.100061 3.79758e-05 0)
(0.100079 4.17092e-05 0)
(0.100056 5.44424e-05 0)
(0.10011 5.44196e-05 0)
(0.100035 8.02727e-05 0)
(0.10017 7.04837e-05 0)
(0.100002 0.000116715 0)
(0.100251 9.74351e-05 0)
(0.0999912 0.000157025 0)
(0.100334 0.000155544 0)
(0.100045 0.000173616 0)
(0.100417 0.000262785 0)
(0.099846 0.000651137 0)
(0.0998542 0.00061663 0)
(0.0998626 0.000583368 0)
(0.0998709 0.000551339 0)
(0.0998793 0.000520528 0)
(0.0998876 0.000490921 0)
(0.0998959 0.000462498 0)
(0.099904 0.00043524 0)
(0.0999121 0.000409126 0)
(0.09992 0.000384133 0)
(0.0999278 0.000360237 0)
(0.0999354 0.000337415 0)
(0.0999428 0.00031564 0)
(0.0999499 0.000294888 0)
(0.0999569 0.000275133 0)
(0.0999636 0.000256348 0)
(0.09997 0.000238507 0)
(0.0999762 0.000221583 0)
(0.0999821 0.000205548 0)
(0.0999878 0.000190376 0)
(0.0999932 0.00017604 0)
(0.0999983 0.000162512 0)
(0.100003 0.000149765 0)
(0.100008 0.000137771 0)
(0.100012 0.000126505 0)
(0.100016 0.000115938 0)
(0.10002 0.000106044 0)
(0.100023 9.67967e-05 0)
(0.100027 8.81707e-05 0)
(0.10003 8.01408e-05 0)
(0.100032 7.26824e-05 0)
(0.100035 6.57707e-05 0)
(0.100037 5.9382e-05 0)
(0.100039 5.34934e-05 0)
(0.100041 4.80825e-05 0)
(0.100043 4.31286e-05 0)
(0.100044 3.86111e-05 0)
(0.100046 3.45114e-05 0)
(0.100047 3.08115e-05 0)
(0.100048 2.74947e-05 0)
(0.100049 2.4545e-05 0)
(0.10005 2.19469e-05 0)
(0.100051 1.96883e-05 0)
(0.100051 1.77575e-05 0)
(0.100052 1.61463e-05 0)
(0.100052 1.48487e-05 0)
(0.100053 1.38605e-05 0)
(0.100053 1.31832e-05 0)
(0.100054 1.28165e-05 0)
(0.100054 1.27728e-05 0)
(0.100055 1.30602e-05 0)
(0.100055 1.37011e-05 0)
(0.100056 1.4716e-05 0)
(0.100057 1.61509e-05 0)
(0.100058 1.80197e-05 0)
(0.100059 2.04531e-05 0)
(0.100061 2.33196e-05 0)
(0.100061 2.71929e-05 0)
(0.100067 3.10074e-05 0)
(0.100063 3.7511e-05 0)
(0.100081 4.12714e-05 0)
(0.100057 5.36424e-05 0)
(0.100112 5.39063e-05 0)
(0.100037 7.88133e-05 0)
(0.100173 6.99262e-05 0)
(0.100005 0.000114075 0)
(0.100254 9.66983e-05 0)
(0.0999958 0.000152012 0)
(0.100334 0.00015416 0)
(0.100058 0.0001662 0)
(0.10041 0.000246237 0)
(0.0998312 0.000647349 0)
(0.0998403 0.000612879 0)
(0.0998494 0.000579671 0)
(0.0998586 0.000547712 0)
(0.0998677 0.000516984 0)
(0.0998767 0.000487471 0)
(0.0998857 0.000459151 0)
(0.0998945 0.000432004 0)
(0.0999032 0.000406007 0)
(0.0999117 0.000381136 0)
(0.0999201 0.000357366 0)
(0.0999282 0.000334672 0)
(0.0999361 0.000313028 0)
(0.0999437 0.000292407 0)
(0.0999511 0.000272782 0)
(0.0999582 0.000254128 0)
(0.0999651 0.000236415 0)
(0.0999717 0.000219618 0)
(0.099978 0.000203707 0)
(0.099984 0.000188656 0)
(0.0999897 0.000174437 0)
(0.0999951 0.000161023 0)
(0.1 0.000148385 0)
(0.100005 0.000136497 0)
(0.10001 0.000125331 0)
(0.100014 0.00011486 0)
(0.100018 0.000105058 0)
(0.100022 9.58977e-05 0)
(0.100025 8.73538e-05 0)
(0.100028 7.94012e-05 0)
(0.100031 7.20154e-05 0)
(0.100034 6.51714e-05 0)
(0.100036 5.88457e-05 0)
(0.100039 5.30155e-05 0)
(0.100041 4.76587e-05 0)
(0.100043 4.27546e-05 0)
(0.100044 3.82826e-05 0)
(0.100046 3.42242e-05 0)
(0.100047 3.05615e-05 0)
(0.100048 2.72778e-05 0)
(0.100049 2.43573e-05 0)
(0.10005 2.17846e-05 0)
(0.100051 1.95476e-05 0)
(0.100052 1.76351e-05 0)
(0.100052 1.60385e-05 0)
(0.100053 1.47522e-05 0)
(0.100053 1.3772e-05 0)
(0.100054 1.30989e-05 0)
(0.100054 1.2733e-05 0)
(0.100055 1.26862e-05 0)
(0.100056 1.29667e-05 0)
(0.100056 1.35965e-05 0)
(0.100057 1.45957e-05 0)
(0.100058 1.60092e-05 0)
(0.100059 1.78514e-05 0)
(0.10006 2.02489e-05 0)
(0.100062 2.30773e-05 0)
(0.100062 2.68874e-05 0)
(0.100068 3.06633e-05 0)
(0.100064 3.70303e-05 0)
(0.100082 4.08115e-05 0)
(0.100059 5.28262e-05 0)
(0.100114 5.33576e-05 0)
(0.100039 7.73433e-05 0)
(0.100175 6.93102e-05 0)
(0.100007 0.000111442 0)
(0.100257 9.58482e-05 0)
(0.1 0.000147154 0)
(0.100334 0.000152347 0)
(0.10007 0.000159122 0)
(0.100402 0.000230831 0)
(0.0998162 0.000643177 0)
(0.0998261 0.000608766 0)
(0.0998361 0.000575635 0)
(0.099846 0.000543766 0)
(0.0998559 0.000513141 0)
(0.0998656 0.00048374 0)
(0.0998753 0.000455541 0)
(0.0998848 0.000428522 0)
(0.0998941 0.000402659 0)
(0.0999032 0.000377925 0)
(0.0999121 0.000354295 0)
(0.0999207 0.000331743 0)
(0.0999292 0.000310242 0)
(0.0999373 0.000289764 0)
(0.0999451 0.000270282 0)
(0.0999527 0.000251769 0)
(0.09996 0.000234195 0)
(0.099967 0.000217533 0)
(0.0999736 0.000201756 0)
(0.09998 0.000186834 0)
(0.099986 0.00017274 0)
(0.0999917 0.000159447 0)
(0.0999971 0.000146926 0)
(0.100002 0.000135149 0)
(0.100007 0.00012409 0)
(0.100012 0.000113721 0)
(0.100016 0.000104015 0)
(0.10002 9.49463e-05 0)
(0.100023 8.6489e-05 0)
(0.100027 7.86179e-05 0)
(0.10003 7.13082e-05 0)
(0.100033 6.45355e-05 0)
(0.100035 5.8276e-05 0)
(0.100038 5.25073e-05 0)
(0.10004 4.72073e-05 0)
(0.100042 4.23553e-05 0)
(0.100044 3.79311e-05 0)
(0.100045 3.39161e-05 0)
(0.100047 3.02924e-05 0)
(0.100048 2.70435e-05 0)
(0.100049 2.41537e-05 0)
(0.10005 2.16077e-05 0)
(0.100051 1.93936e-05 0)
(0.100052 1.75003e-05 0)
(0.100052 1.59193e-05 0)
(0.100053 1.46451e-05 0)
(0.100054 1.36734e-05 0)
(0.100054 1.3005e-05 0)
(0.100055 1.26403e-05 0)
(0.100055 1.25905e-05 0)
(0.100056 1.28642e-05 0)
(0.100057 1.34827e-05 0)
(0.100057 1.44659e-05 0)
(0.100058 1.58577e-05 0)
(0.10006 1.76726e-05 0)
(0.100061 2.00334e-05 0)
(0.100063 2.28226e-05 0)
(0.100063 2.65686e-05 0)
(0.100069 3.03035e-05 0)
(0.100065 3.65341e-05 0)
(0.100084 4.03296e-05 0)
(0.10006 5.19943e-05 0)
(0.100116 5.27743e-05 0)
(0.10004 7.58635e-05 0)
(0.100178 6.86372e-05 0)
(0.100009 0.00010882 0)
(0.100259 9.48877e-05 0)
(0.100004 0.000142451 0)
(0.100333 0.000150148 0)
(0.100081 0.000152378 0)
(0.100395 0.000216522 0)
(0.0998009 0.000638617 0)
(0.0998118 0.000604289 0)
(0.0998225 0.000571255 0)
(0.0998333 0.000539498 0)
(0.0998439 0.000508995 0)
(0.0998544 0.000479726 0)
(0.0998647 0.000451667 0)
(0.0998749 0.000424794 0)
(0.0998848 0.000399079 0)
(0.0998945 0.000374498 0)
(0.099904 0.000351024 0)
(0.0999132 0.000328628 0)
(0.0999221 0.000307283 0)
(0.0999307 0.000286961 0)
(0.099939 0.000267633 0)
(0.099947 0.000249271 0)
(0.0999547 0.000231846 0)
(0.0999621 0.00021533 0)
(0.0999691 0.000199694 0)
(0.0999758 0.000184911 0)
(0.0999822 0.00017095 0)
(0.0999882 0.000157785 0)
(0.0999939 0.000145387 0)
(0.0999993 0.000133728 0)
(0.100004 0.000122781 0)
(0.100009 0.000112519 0)
(0.100014 0.000102915 0)
(0.100018 9.3943e-05 0)
(0.100021 8.55766e-05 0)
(0.100025 7.77909e-05 0)
(0.100028 7.05613e-05 0)
(0.100031 6.38631e-05 0)
(0.100034 5.76731e-05 0)
(0.100037 5.19688e-05 0)
(0.100039 4.67282e-05 0)
(0.100041 4.1931e-05 0)
(0.100043 3.75567e-05 0)
(0.100045 3.3587e-05 0)
(0.100046 3.00042e-05 0)
(0.100047 2.67918e-05 0)
(0.100049 2.39342e-05 0)
(0.10005 2.14164e-05 0)
(0.100051 1.92264e-05 0)
(0.100052 1.73534e-05 0)
(0.100052 1.57888e-05 0)
(0.100053 1.45273e-05 0)
(0.100054 1.35648e-05 0)
(0.100054 1.29016e-05 0)
(0.100055 1.25384e-05 0)
(0.100056 1.24858e-05 0)
(0.100056 1.27527e-05 0)
(0.100057 1.33598e-05 0)
(0.100058 1.43267e-05 0)
(0.100059 1.56962e-05 0)
(0.10006 1.74833e-05 0)
(0.100061 1.98067e-05 0)
(0.100064 2.25555e-05 0)
(0.100064 2.62366e-05 0)
(0.10007 2.99281e-05 0)
(0.100066 3.60227e-05 0)
(0.100085 3.98261e-05 0)
(0.100061 5.1147e-05 0)
(0.100118 5.21571e-05 0)
(0.100041 7.43747e-05 0)
(0.10018 6.79083e-05 0)
(0.100011 0.00010621 0)
(0.100261 9.38209e-05 0)
(0.100008 0.000137896 0)
(0.100333 0.000147615 0)
(0.10009 0.000145958 0)
(0.100387 0.000203247 0)
(0.0997856 0.000633665 0)
(0.0997973 0.000599443 0)
(0.0998089 0.000566531 0)
(0.0998204 0.000534906 0)
(0.0998318 0.000504547 0)
(0.0998431 0.00047543 0)
(0.0998541 0.000447529 0)
(0.0998649 0.000420818 0)
(0.0998755 0.00039527 0)
(0.0998858 0.000370857 0)
(0.0998958 0.000347552 0)
(0.0999055 0.000325326 0)
(0.099915 0.000304151 0)
(0.0999241 0.000283996 0)
(0.0999329 0.000264834 0)
(0.0999413 0.000246635 0)
(0.0999494 0.000229369 0)
(0.0999571 0.000213009 0)
(0.0999645 0.000197524 0)
(0.0999715 0.000182886 0)
(0.0999782 0.000169066 0)
(0.0999846 0.000156037 0)
(0.0999906 0.000143768 0)
(0.0999962 0.000132234 0)
(0.100002 0.000121406 0)
(0.100006 0.000111256 0)
(0.100011 0.000101759 0)
(0.100015 9.2888e-05 0)
(0.10002 8.46168e-05 0)
(0.100023 7.69206e-05 0)
(0.100027 6.97747e-05 0)
(0.10003 6.31547e-05 0)
(0.100033 5.70373e-05 0)
(0.100035 5.14002e-05 0)
(0.100038 4.62218e-05 0)
(0.10004 4.14817e-05 0)
(0.100042 3.71596e-05 0)
(0.100044 3.32373e-05 0)
(0.100045 2.96972e-05 0)
(0.100047 2.6523e-05 0)
(0.100048 2.3699e-05 0)
(0.100049 2.12107e-05 0)
(0.10005 1.90459e-05 0)
(0.100051 1.71943e-05 0)
(0.100052 1.5647e-05 0)
(0.100053 1.43991e-05 0)
(0.100054 1.34462e-05 0)
(0.100054 1.27887e-05 0)
(0.100055 1.24273e-05 0)
(0.100056 1.23722e-05 0)
(0.100056 1.26323e-05 0)
(0.100057 1.32279e-05 0)
(0.100058 1.41782e-05 0)
(0.100059 1.55251e-05 0)
(0.10006 1.72837e-05 0)
(0.100062 1.9569e-05 0)
(0.100064 2.22763e-05 0)
(0.100065 2.58916e-05 0)
(0.100071 2.95374e-05 0)
(0.100067 3.54963e-05 0)
(0.100086 3.93014e-05 0)
(0.100062 5.0285e-05 0)
(0.10012 5.15068e-05 0)
(0.100043 7.2878e-05 0)
(0.100182 6.71249e-05 0)
(0.100012 0.000103615 0)
(0.100263 9.2653e-05 0)
(0.100011 0.000133482 0)
(0.100332 0.000144803 0)
(0.100099 0.000139845 0)
(0.10038 0.000190932 0)
(0.0997703 0.000628318 0)
(0.0997828 0.000594228 0)
(0.0997953 0.000561459 0)
(0.0998076 0.00052999 0)
(0.0998198 0.000499795 0)
(0.0998317 0.000470849 0)
(0.0998434 0.000443125 0)
(0.0998549 0.000416594 0)
(0.0998661 0.000391229 0)
(0.099877 0.000367001 0)
(0.0998876 0.000343881 0)
(0.0998979 0.000321839 0)
(0.0999078 0.000300846 0)
(0.0999174 0.000280872 0)
(0.0999267 0.000261887 0)
(0.0999355 0.000243861 0)
(0.099944 0.000226766 0)
(0.0999521 0.00021057 0)
(0.0999599 0.000195244 0)
(0.0999673 0.000180761 0)
(0.0999743 0.00016709 0)
(0.0999809 0.000154203 0)
(0.0999872 0.000142072 0)
(0.0999931 0.000130668 0)
(0.0999987 0.000119964 0)
(0.100004 0.000109933 0)
(0.100009 0.000100547 0)
(0.100013 9.17818e-05 0)
(0.100018 8.36101e-05 0)
(0.100021 7.60074e-05 0)
(0.100025 6.8949e-05 0)
(0.100028 6.24105e-05 0)
(0.100031 5.63688e-05 0)
(0.100034 5.08019e-05 0)
(0.100037 4.56883e-05 0)
(0.100039 4.10078e-05 0)
(0.100041 3.674e-05 0)
(0.100043 3.28671e-05 0)
(0.100045 2.93715e-05 0)
(0.100046 2.62371e-05 0)
(0.100048 2.34483e-05 0)
(0.100049 2.09908e-05 0)
(0.10005 1.88525e-05 0)
(0.100051 1.70232e-05 0)
(0.100052 1.54942e-05 0)
(0.100053 1.42604e-05 0)
(0.100053 1.33179e-05 0)
(0.100054 1.26664e-05 0)
(0.100055 1.23071e-05 0)
(0.100056 1.22497e-05 0)
(0.100056 1.25031e-05 0)
(0.100057 1.30871e-05 0)
(0.100058 1.40205e-05 0)
(0.100059 1.53444e-05 0)
(0.100061 1.7074e-05 0)
(0.100062 1.93204e-05 0)
(0.100065 2.19852e-05 0)
(0.100065 2.55338e-05 0)
(0.100072 2.91317e-05 0)
(0.100067 3.49553e-05 0)
(0.100087 3.87559e-05 0)
(0.100063 4.94087e-05 0)
(0.100121 5.0824e-05 0)
(0.100044 7.13744e-05 0)
(0.100184 6.62885e-05 0)
(0.100014 0.000101037 0)
(0.100265 9.13894e-05 0)
(0.100014 0.000129203 0)
(0.100331 0.00014176 0)
(0.100107 0.000134024 0)
(0.100373 0.000179504 0)
(0.0997549 0.000622574 0)
(0.0997684 0.000588639 0)
(0.0997817 0.000556039 0)
(0.0997948 0.000524747 0)
(0.0998077 0.000494738 0)
(0.0998204 0.000465984 0)
(0.0998328 0.000438455 0)
(0.099845 0.000412123 0)
(0.0998568 0.000386958 0)
(0.0998683 0.000362931 0)
(0.0998795 0.000340011 0)
(0.0998903 0.000318167 0)
(0.0999007 0.00029737 0)
(0.0999108 0.000277589 0)
(0.0999205 0.000258792 0)
(0.0999298 0.000240951 0)
(0.0999387 0.000224035 0)
(0.0999472 0.000208013 0)
(0.0999553 0.000192857 0)
(0.099963 0.000178536 0)
(0.0999703 0.000165022 0)
(0.0999773 0.000152285 0)
(0.0999838 0.000140297 0)
(0.09999 0.00012903 0)
(0.0999958 0.000118456 0)
(0.100001 0.000108548 0)
(0.100006 9.92801e-05 0)
(0.100011 9.06249e-05 0)
(0.100015 8.25571e-05 0)
(0.10002 7.50519e-05 0)
(0.100023 6.80845e-05 0)
(0.100027 6.16309e-05 0)
(0.10003 5.56681e-05 0)
(0.100033 5.01743e-05 0)
(0.100036 4.51281e-05 0)
(0.100038 4.05095e-05 0)
(0.10004 3.62982e-05 0)
(0.100042 3.24767e-05 0)
(0.100044 2.90274e-05 0)
(0.100046 2.59344e-05 0)
(0.100047 2.31823e-05 0)
(0.100048 2.07568e-05 0)
(0.10005 1.86462e-05 0)
(0.100051 1.68403e-05 0)
(0.100052 1.53304e-05 0)
(0.100052 1.41115e-05 0)
(0.100053 1.31798e-05 0)
(0.100054 1.25349e-05 0)
(0.100055 1.21781e-05 0)
(0.100056 1.21186e-05 0)
(0.100056 1.23653e-05 0)
(0.100057 1.29375e-05 0)
(0.100058 1.38539e-05 0)
(0.10006 1.51542e-05 0)
(0.100061 1.68542e-05 0)
(0.100062 1.90612e-05 0)
(0.100065 2.16823e-05 0)
(0.100066 2.51637e-05 0)
(0.100072 2.87112e-05 0)
(0.100068 3.44001e-05 0)
(0.100088 3.81901e-05 0)
(0.100063 4.85189e-05 0)
(0.100122 5.01097e-05 0)
(0.100045 6.98648e-05 0)
(0.100185 6.54008e-05 0)
(0.100016 9.84785e-05 0)
(0.100266 9.0036e-05 0)
(0.100017 0.000125052 0)
(0.10033 0.000138534 0)
(0.100113 0.000128477 0)
(0.100367 0.000168891 0)
(0.0997397 0.000616429 0)
(0.099754 0.000582677 0)
(0.0997682 0.000550269 0)
(0.0997821 0.000519178 0)
(0.0997958 0.000489376 0)
(0.0998092 0.000460834 0)
(0.0998223 0.00043352 0)
(0.0998351 0.000407405 0)
(0.0998476 0.000382458 0)
(0.0998597 0.000358647 0)
(0.0998714 0.000335941 0)
(0.0998827 0.00031431 0)
(0.0998937 0.000293723 0)
(0.0999042 0.000274146 0)
(0.0999144 0.000255551 0)
(0.0999241 0.000237905 0)
(0.0999334 0.000221179 0)
(0.0999423 0.000205341 0)
(0.0999507 0.000190362 0)
(0.0999588 0.000176212 0)
(0.0999664 0.000162862 0)
(0.0999737 0.000150283 0)
(0.0999805 0.000138445 0)
(0.0999869 0.000127321 0)
(0.099993 0.000116883 0)
(0.0999986 0.000107105 0)
(0.100004 9.79582e-05 0)
(0.100009 8.94179e-05 0)
(0.100013 8.14583e-05 0)
(0.100018 7.40544e-05 0)
(0.100022 6.71818e-05 0)
(0.100025 6.08165e-05 0)
(0.100029 5.49356e-05 0)
(0.100032 4.95176e-05 0)
(0.100035 4.45415e-05 0)
(0.100037 3.99872e-05 0)
(0.100039 3.58346e-05 0)
(0.100041 3.20664e-05 0)
(0.100043 2.86652e-05 0)
(0.100045 2.56151e-05 0)
(0.100047 2.29012e-05 0)
(0.100048 2.05091e-05 0)
(0.100049 1.84272e-05 0)
(0.10005 1.66457e-05 0)
(0.100051 1.51558e-05 0)
(0.100052 1.39525e-05 0)
(0.100053 1.30323e-05 0)
(0.100054 1.23944e-05 0)
(0.100055 1.20404e-05 0)
(0.100056 1.19789e-05 0)
(0.100057 1.22189e-05 0)
(0.100057 1.27793e-05 0)
(0.100059 1.36783e-05 0)
(0.10006 1.49549e-05 0)
(0.100061 1.66247e-05 0)
(0.100063 1.87916e-05 0)
(0.100065 2.13679e-05 0)
(0.100066 2.47813e-05 0)
(0.100073 2.82764e-05 0)
(0.100068 3.38312e-05 0)
(0.100089 3.76045e-05 0)
(0.100064 4.7616e-05 0)
(0.100124 4.93648e-05 0)
(0.100045 6.83501e-05 0)
(0.100187 6.44635e-05 0)
(0.100017 9.59401e-05 0)
(0.100268 8.85988e-05 0)
(0.10002 0.00012102 0)
(0.100329 0.000135163 0)
(0.100119 0.000123188 0)
(0.10036 0.000159029 0)
(0.0997245 0.000609884 0)
(0.0997397 0.000576339 0)
(0.0997547 0.000544148 0)
(0.0997695 0.000513281 0)
(0.0997839 0.000483709 0)
(0.0997981 0.000455399 0)
(0.0998119 0.00042832 0)
(0.0998253 0.00040244 0)
(0.0998384 0.000377727 0)
(0.0998511 0.000354149 0)
(0.0998634 0.000331674 0)
(0.0998753 0.00031027 0)
(0.0998867 0.000289905 0)
(0.0998977 0.000270547 0)
(0.0999083 0.000252164 0)
(0.0999185 0.000234724 0)
(0.0999282 0.000218198 0)
(0.0999374 0.000202554 0)
(0.0999462 0.000187761 0)
(0.0999546 0.000173791 0)
(0.0999626 0.000160613 0)
(0.0999701 0.000148198 0)
(0.0999772 0.000136517 0)
(0.0999839 0.000125542 0)
(0.0999902 0.000115246 0)
(0.0999961 0.000105602 0)
(0.100002 9.65823e-05 0)
(0.100007 8.81615e-05 0)
(0.100012 8.03142e-05 0)
(0.100016 7.30156e-05 0)
(0.10002 6.62413e-05 0)
(0.100024 5.99676e-05 0)
(0.100027 5.41717e-05 0)
(0.100031 4.88324e-05 0)
(0.100033 4.39289e-05 0)
(0.100036 3.94412e-05 0)
(0.100038 3.53495e-05 0)
(0.100041 3.16365e-05 0)
(0.100043 2.82851e-05 0)
(0.100044 2.52796e-05 0)
(0.100046 2.26052e-05 0)
(0.100047 2.02478e-05 0)
(0.100049 1.81958e-05 0)
(0.10005 1.64396e-05 0)
(0.100051 1.49706e-05 0)
(0.100052 1.37836e-05 0)
(0.100053 1.28754e-05 0)
(0.100054 1.2245e-05 0)
(0.100055 1.1894e-05 0)
(0.100056 1.18307e-05 0)
(0.100057 1.20642e-05 0)
(0.100058 1.26126e-05 0)
(0.100059 1.34941e-05 0)
(0.10006 1.47465e-05 0)
(0.100062 1.63856e-05 0)
(0.100063 1.85117e-05 0)
(0.100066 2.10423e-05 0)
(0.100067 2.4387e-05 0)
(0.100073 2.78274e-05 0)
(0.100069 3.32488e-05 0)
(0.10009 3.69995e-05 0)
(0.100065 4.67005e-05 0)
(0.100125 4.85899e-05 0)
(0.100046 6.6831e-05 0)
(0.100189 6.34783e-05 0)
(0.100019 9.34233e-05 0)
(0.100269 8.70836e-05 0)
(0.100023 0.000117102 0)
(0.100328 0.000131683 0)
(0.100124 0.000118145 0)
(0.100354 0.000149859 0)
(0.0997094 0.000602935 0)
(0.0997255 0.000569625 0)
(0.0997414 0.000537676 0)
(0.0997569 0.000507057 0)
(0.0997722 0.000477736 0)
(0.099787 0.00044968 0)
(0.0998016 0.000422856 0)
(0.0998157 0.00039723 0)
(0.0998294 0.000372769 0)
(0.0998426 0.00034944 0)
(0.0998555 0.000327211 0)
(0.0998679 0.000306048 0)
(0.0998798 0.000285919 0)
(0.0998913 0.000266791 0)
(0.0999024 0.000248632 0)
(0.0999129 0.00023141 0)
(0.099923 0.000215094 0)
(0.0999327 0.000199652 0)
(0.0999418 0.000185055 0)
(0.0999505 0.000171273 0)
(0.0999588 0.000158274 0)
(0.0999666 0.000146031 0)
(0.099974 0.000134513 0)
(0.0999809 0.000123694 0)
(0.0999875 0.000113546 0)
(0.0999936 0.000104041 0)
(0.0999993 9.5153e-05 0)
(0.100005 8.68563e-05 0)
(0.10001 7.91255e-05 0)
(0.100014 7.19361e-05 0)
(0.100018 6.52636e-05 0)
(0.100022 5.90847e-05 0)
(0.100026 5.33768e-05 0)
(0.100029 4.81191e-05 0)
(0.100032 4.32906e-05 0)
(0.100035 3.88718e-05 0)
(0.100038 3.48431e-05 0)
(0.10004 3.11873e-05 0)
(0.100042 2.78874e-05 0)
(0.100044 2.49281e-05 0)
(0.100045 2.22945e-05 0)
(0.100047 1.99732e-05 0)
(0.100048 1.79521e-05 0)
(0.10005 1.62223e-05 0)
(0.100051 1.4775e-05 0)
(0.100052 1.3605e-05 0)
(0.100053 1.27093e-05 0)
(0.100054 1.20868e-05 0)
(0.100055 1.17392e-05 0)
(0.100056 1.16743e-05 0)
(0.100057 1.19012e-05 0)
(0.100058 1.24377e-05 0)
(0.100059 1.33014e-05 0)
(0.10006 1.45293e-05 0)
(0.100062 1.6137e-05 0)
(0.100063 1.82218e-05 0)
(0.100066 2.07056e-05 0)
(0.100067 2.3981e-05 0)
(0.100074 2.73646e-05 0)
(0.10007 3.26533e-05 0)
(0.10009 3.63756e-05 0)
(0.100066 4.5773e-05 0)
(0.100126 4.77862e-05 0)
(0.100047 6.53083e-05 0)
(0.10019 6.2447e-05 0)
(0.10002 9.09289e-05 0)
(0.10027 8.54962e-05 0)
(0.100026 0.000113293 0)
(0.100327 0.000128122 0)
(0.100128 0.000113332 0)
(0.100349 0.000141331 0)
(0.0996945 0.000595582 0)
(0.0997115 0.000562534 0)
(0.0997282 0.000530853 0)
(0.0997445 0.000500506 0)
(0.0997605 0.000471459 0)
(0.0997761 0.000443678 0)
(0.0997913 0.000417128 0)
(0.0998061 0.000391774 0)
(0.0998204 0.000367583 0)
(0.0998343 0.00034452 0)
(0.0998477 0.000322552 0)
(0.0998606 0.000301644 0)
(0.0998731 0.000281764 0)
(0.099885 0.000262879 0)
(0.0998965 0.000244956 0)
(0.0999075 0.000227962 0)
(0.0999179 0.000211867 0)
(0.099928 0.000196638 0)
(0.0999375 0.000182245 0)
(0.0999465 0.000168658 0)
(0.0999551 0.000155847 0)
(0.0999632 0.000143782 0)
(0.0999708 0.000132435 0)
(0.099978 0.000121778 0)
(0.0999848 0.000111782 0)
(0.0999911 0.000102422 0)
(0.099997 9.36711e-05 0)
(0.100003 8.5503e-05 0)
(0.100008 7.78928e-05 0)
(0.100012 7.08163e-05 0)
(0.100017 6.42491e-05 0)
(0.100021 5.81684e-05 0)
(0.100025 5.25515e-05 0)
(0.100028 4.7378e-05 0)
(0.100031 4.26271e-05 0)
(0.100034 3.82795e-05 0)
(0.100037 3.43158e-05 0)
(0.100039 3.07191e-05 0)
(0.100041 2.74725e-05 0)
(0.100043 2.45608e-05 0)
(0.100045 2.19695e-05 0)
(0.100047 1.96853e-05 0)
(0.100048 1.76964e-05 0)
(0.100049 1.59939e-05 0)
(0.10005 1.45691e-05 0)
(0.100052 1.34168e-05 0)
(0.100053 1.25342e-05 0)
(0.100054 1.19199e-05 0)
(0.100055 1.1576e-05 0)
(0.100056 1.15098e-05 0)
(0.100057 1.17301e-05 0)
(0.100058 1.22545e-05 0)
(0.100059 1.31003e-05 0)
(0.10006 1.43033e-05 0)
(0.100062 1.58793e-05 0)
(0.100064 1.79221e-05 0)
(0.100067 2.03581e-05 0)
(0.100067 2.35636e-05 0)
(0.100075 2.68884e-05 0)
(0.10007 3.2045e-05 0)
(0.100091 3.57333e-05 0)
(0.100066 4.48339e-05 0)
(0.100127 4.69543e-05 0)
(0.100048 6.37827e-05 0)
(0.100192 6.13714e-05 0)
(0.100021 8.84577e-05 0)
(0.100272 8.3842e-05 0)
(0.100028 0.000109587 0)
(0.100326 0.000124504 0)
(0.100132 0.000108737 0)
(0.100343 0.000133396 0)
(0.0996796 0.000587824 0)
(0.0996975 0.000555066 0)
(0.0997151 0.000523678 0)
(0.0997323 0.000493627 0)
(0.099749 0.000464878 0)
(0.0997654 0.000437393 0)
(0.0997812 0.000411137 0)
(0.0997967 0.000386075 0)
(0.0998116 0.000362171 0)
(0.099826 0.00033939 0)
(0.09984 0.000317698 0)
(0.0998534 0.000297061 0)
(0.0998664 0.000277444 0)
(0.0998788 0.000258814 0)
(0.0998907 0.000241138 0)
(0.0999021 0.000224384 0)
(0.099913 0.000208519 0)
(0.0999233 0.000193512 0)
(0.0999332 0.000179332 0)
(0.0999425 0.000165949 0)
(0.0999514 0.000153333 0)
(0.0999598 0.000141454 0)