/*--------------------------------*- C++ -*----------------------------------*\
| =========                 |                                                 |
| \\      /  F ield         | OpenFOAM: The Open Source CFD Toolbox           |
|  \\    /   O peration     | Version:  2412                                  |
|   \\  /    A nd           | Website:  www.openfoam.com                      |
|    \\/     M anipulation  |                                                 |
\*---------------------------------------------------------------------------*/
FoamFile
{
    version     2.0;
    format      ascii;
    arch        "LSB;label=32;scalar=64";
    class       volVectorField;
    location    "30";
    object      UA;
}
// * * * * * * * * * * * * * * * * * * * * * * * * * * * * * * * * * * * * * //

dimensions      [0 1 -1 0 0 0 0];

internalField   nonuniform List<vector> 
5285
(
(0.0996832 -0.000361953 0)
(0.0996879 -0.00034682 0)
(0.0996928 -0.000332176 0)
(0.0996979 -0.000318014 0)
(0.0997031 -0.000304329 0)
(0.0997084 -0.000291114 0)
(0.0997139 -0.000278362 0)
(0.0997194 -0.000266064 0)
(0.099725 -0.000254211 0)
(0.0997307 -0.000242796 0)
(0.0997364 -0.000231809 0)
(0.0997422 -0.000221239 0)
(0.0997479 -0.000211078 0)
(0.0997537 -0.000201314 0)
(0.0997595 -0.000191938 0)
(0.0997652 -0.00018294 0)
(0.099771 -0.000174307 0)
(0.0997767 -0.000166031 0)
(0.0997823 -0.0001581 0)
(0.0997879 -0.000150503 0)
(0.0997935 -0.000143231 0)
(0.099799 -0.000136271 0)
(0.0998044 -0.000129615 0)
(0.0998098 -0.00012325 0)
(0.0998151 -0.000117169 0)
(0.0998203 -0.000111359 0)
(0.0998254 -0.000105811 0)
(0.0998305 -0.000100516 0)
(0.0998354 -9.54634e-05 0)
(0.0998403 -9.06445e-05 0)
(0.0998451 -8.605e-05 0)
(0.0998497 -8.1671e-05 0)
(0.0998543 -7.74988e-05 0)
(0.0998588 -7.35248e-05 0)
(0.0998631 -6.9741e-05 0)
(0.0998674 -6.61393e-05 0)
(0.0998716 -6.2712e-05 0)
(0.0998756 -5.94516e-05 0)
(0.0998796 -5.63509e-05 0)
(0.0998835 -5.34029e-05 0)
(0.0998873 -5.06007e-05 0)
(0.0998909 -4.79379e-05 0)
(0.0998945 -4.54082e-05 0)
(0.099898 -4.30055e-05 0)
(0.0999014 -4.0724e-05 0)
(0.0999047 -3.85581e-05 0)
(0.0999079 -3.65023e-05 0)
(0.099911 -3.45515e-05 0)
(0.099914 -3.27007e-05 0)
(0.0999169 -3.09451e-05 0)
(0.0999198 -2.92802e-05 0)
(0.0999225 -2.77016e-05 0)
(0.0999252 -2.62051e-05 0)
(0.0999278 -2.47867e-05 0)
(0.0999303 -2.34425e-05 0)
(0.0999327 -2.21689e-05 0)
(0.0999351 -2.09623e-05 0)
(0.0999374 -1.98194e-05 0)
(0.0999396 -1.87371e-05 0)
(0.0999417 -1.77122e-05 0)
(0.0999438 -1.67419e-05 0)
(0.0999458 -1.58233e-05 0)
(0.0999477 -1.49539e-05 0)
(0.0999496 -1.4131e-05 0)
(0.0999514 -1.33524e-05 0)
(0.0999532 -1.26157e-05 0)
(0.0999549 -1.19188e-05 0)
(0.0999565 -1.12595e-05 0)
(0.0999581 -1.0636e-05 0)
(0.0999596 -1.00463e-05 0)
(0.0999611 -9.48863e-06 0)
(0.0996764 -0.000359831 0)
(0.0996815 -0.000344661 0)
(0.0996867 -0.000329991 0)
(0.0996921 -0.000315812 0)
(0.0996976 -0.00030212 0)
(0.0997033 -0.000288905 0)
(0.099709 -0.00027616 0)
(0.0997148 -0.000263876 0)
(0.0997207 -0.000252044 0)
(0.0997266 -0.000240654 0)
(0.0997325 -0.000229697 0)
(0.0997385 -0.000219161 0)
(0.0997445 -0.000209038 0)
(0.0997504 -0.000199315 0)
(0.0997564 -0.000189983 0)
(0.0997623 -0.00018103 0)
(0.0997683 -0.000172445 0)
(0.0997741 -0.000164218 0)
(0.0997799 -0.000156337 0)
(0.0997857 -0.000148791 0)
(0.0997914 -0.00014157 0)
(0.099797 -0.000134663 0)
(0.0998026 -0.000128059 0)
(0.0998081 -0.000121746 0)
(0.0998135 -0.000115716 0)
(0.0998188 -0.000109958 0)
(0.099824 -0.000104461 0)
(0.0998292 -9.92156e-05 0)
(0.0998342 -9.42124e-05 0)
(0.0998391 -8.94418e-05 0)
(0.099844 -8.48947e-05 0)
(0.0998487 -8.05619e-05 0)
(0.0998533 -7.64348e-05 0)
(0.0998579 -7.25048e-05 0)
(0.0998623 -6.87638e-05 0)
(0.0998666 -6.52037e-05 0)
(0.0998709 -6.18167e-05 0)
(0.099875 -5.85954e-05 0)
(0.099879 -5.55325e-05 0)
(0.0998829 -5.2621e-05 0)
(0.0998867 -4.98542e-05 0)
(0.0998904 -4.72254e-05 0)
(0.099894 -4.47285e-05 0)
(0.0998976 -4.23574e-05 0)
(0.099901 -4.01062e-05 0)
(0.0999043 -3.79694e-05 0)
(0.0999075 -3.59417e-05 0)
(0.0999107 -3.40177e-05 0)
(0.0999137 -3.21927e-05 0)
(0.0999166 -3.04619e-05 0)
(0.0999195 -2.88206e-05 0)
(0.0999223 -2.72647e-05 0)
(0.099925 -2.57898e-05 0)
(0.0999276 -2.43921e-05 0)
(0.0999301 -2.30677e-05 0)
(0.0999326 -2.18129e-05 0)
(0.0999349 -2.06244e-05 0)
(0.0999372 -1.94987e-05 0)
(0.0999394 -1.84328e-05 0)
(0.0999416 -1.74235e-05 0)
(0.0999437 -1.6468e-05 0)
(0.0999457 -1.55636e-05 0)
(0.0999476 -1.47077e-05 0)
(0.0999495 -1.38977e-05 0)
(0.0999513 -1.31313e-05 0)
(0.0999531 -1.24062e-05 0)
(0.0999548 -1.17203e-05 0)
(0.0999564 -1.10716e-05 0)
(0.099958 -1.0458e-05 0)
(0.0999595 -9.87774e-06 0)
(0.099961 -9.32909e-06 0)
(0.0996696 -0.000357552 0)
(0.099675 -0.000342354 0)
(0.0996806 -0.000327666 0)
(0.0996863 -0.000313479 0)
(0.0996922 -0.000299787 0)
(0.0996981 -0.00028658 0)
(0.0997041 -0.00027385 0)
(0.0997102 -0.000261587 0)
(0.0997163 -0.000249782 0)
(0.0997225 -0.000238423 0)
(0.0997286 -0.000227502 0)
(0.0997348 -0.000217006 0)
(0.099741 -0.000206926 0)
(0.0997472 -0.000197249 0)
(0.0997534 -0.000187965 0)
(0.0997595 -0.000179062 0)
(0.0997656 -0.000170529 0)
(0.0997716 -0.000162355 0)
(0.0997776 -0.000154528 0)
(0.0997835 -0.000147037 0)
(0.0997893 -0.00013987 0)
(0.0997951 -0.000133018 0)
(0.0998008 -0.000126468 0)
(0.0998064 -0.000120211 0)
(0.0998119 -0.000114235 0)
(0.0998173 -0.00010853 0)
(0.0998226 -0.000103086 0)
(0.0998278 -9.78924e-05 0)
(0.099833 -9.29403e-05 0)
(0.099838 -8.82197e-05 0)
(0.0998429 -8.37214e-05 0)
(0.0998477 -7.94363e-05 0)
(0.0998524 -7.53557e-05 0)
(0.099857 -7.14709e-05 0)
(0.0998615 -6.77738e-05 0)
(0.0998659 -6.42563e-05 0)
(0.0998701 -6.09107e-05 0)
(0.0998743 -5.77293e-05 0)
(0.0998784 -5.47051e-05 0)
(0.0998823 -5.18309e-05 0)
(0.0998862 -4.91e-05 0)
(0.0998899 -4.65059e-05 0)
(0.0998936 -4.40423e-05 0)
(0.0998971 -4.17033e-05 0)
(0.0999006 -3.9483e-05 0)
(0.0999039 -3.73759e-05 0)
(0.0999072 -3.53765e-05 0)
(0.0999103 -3.34799e-05 0)
(0.0999134 -3.1681e-05 0)
(0.0999164 -2.99752e-05 0)
(0.0999192 -2.83579e-05 0)
(0.099922 -2.68249e-05 0)
(0.0999247 -2.53719e-05 0)
(0.0999274 -2.39951e-05 0)
(0.0999299 -2.26907e-05 0)
(0.0999324 -2.1455e-05 0)
(0.0999348 -2.02846e-05 0)
(0.0999371 -1.91763e-05 0)
(0.0999393 -1.81269e-05 0)
(0.0999415 -1.71334e-05 0)
(0.0999435 -1.61929e-05 0)
(0.0999456 -1.53028e-05 0)
(0.0999475 -1.44605e-05 0)
(0.0999494 -1.36634e-05 0)
(0.0999512 -1.29093e-05 0)
(0.099953 -1.21959e-05 0)
(0.0999547 -1.15212e-05 0)
(0.0999563 -1.08829e-05 0)
(0.0999579 -1.02794e-05 0)
(0.0999595 -9.70867e-06 0)
(0.0999609 -9.16906e-06 0)
(0.0996628 -0.000355113 0)
(0.0996686 -0.000339897 0)
(0.0996745 -0.0003252 0)
(0.0996805 -0.000311013 0)
(0.0996867 -0.000297329 0)
(0.0996929 -0.000284138 0)
(0.0996992 -0.00027143 0)
(0.0997056 -0.000259196 0)
(0.099712 -0.000247424 0)
(0.0997184 -0.000236103 0)
(0.0997248 -0.000225224 0)
(0.0997312 -0.000214774 0)
(0.0997376 -0.000204741 0)
(0.099744 -0.000195115 0)
(0.0997503 -0.000185884 0)
(0.0997566 -0.000177036 0)
(0.0997629 -0.000168559 0)
(0.0997691 -0.000160441 0)
(0.0997752 -0.000152672 0)
(0.0997813 -0.000145239 0)
(0.0997873 -0.000138131 0)
(0.0997931 -0.000131336 0)
(0.099799 -0.000124844 0)
(0.0998047 -0.000118644 0)
(0.0998103 -0.000112724 0)
(0.0998158 -0.000107075 0)
(0.0998212 -0.000101686 0)
(0.0998265 -9.65466e-05 0)
(0.0998317 -9.16472e-05 0)
(0.0998368 -8.69783e-05 0)
(0.0998418 -8.25304e-05 0)
(0.0998467 -7.82944e-05 0)
(0.0998515 -7.42616e-05 0)
(0.0998561 -7.04233e-05 0)
(0.0998607 -6.67712e-05 0)
(0.0998651 -6.32974e-05 0)
(0.0998694 -5.9994e-05 0)
(0.0998737 -5.68535e-05 0)
(0.0998778 -5.38686e-05 0)
(0.0998818 -5.10325e-05 0)
(0.0998857 -4.83382e-05 0)
(0.0998894 -4.57795e-05 0)
(0.0998931 -4.33499e-05 0)
(0.0998967 -4.10435e-05 0)
(0.0999002 -3.88545e-05 0)
(0.0999036 -3.67775e-05 0)
(0.0999068 -3.4807e-05 0)
(0.09991 -3.2938e-05 0)
(0.0999131 -3.11656e-05 0)
(0.0999161 -2.94851e-05 0)
(0.099919 -2.78921e-05 0)
(0.0999218 -2.63822e-05 0)
(0.0999245 -2.49514e-05 0)
(0.0999272 -2.35958e-05 0)
(0.0999297 -2.23115e-05 0)
(0.0999322 -2.10951e-05 0)
(0.0999346 -1.99431e-05 0)
(0.0999369 -1.88523e-05 0)
(0.0999392 -1.78196e-05 0)
(0.0999413 -1.6842e-05 0)
(0.0999434 -1.59166e-05 0)
(0.0999455 -1.50409e-05 0)
(0.0999474 -1.42123e-05 0)
(0.0999493 -1.34282e-05 0)
(0.0999511 -1.26865e-05 0)
(0.0999529 -1.19849e-05 0)
(0.0999546 -1.13213e-05 0)
(0.0999563 -1.06937e-05 0)
(0.0999579 -1.01002e-05 0)
(0.0999594 -9.53907e-06 0)
(0.0999609 -9.00854e-06 0)
(0.0996559 -0.000352513 0)
(0.0996621 -0.000337288 0)
(0.0996684 -0.000322591 0)
(0.0996748 -0.000308414 0)
(0.0996812 -0.000294746 0)
(0.0996878 -0.000281579 0)
(0.0996944 -0.000268901 0)
(0.099701 -0.000256701 0)
(0.0997076 -0.000244969 0)
(0.0997143 -0.000233693 0)
(0.0997209 -0.000222862 0)
(0.0997276 -0.000212463 0)
(0.0997342 -0.000202484 0)
(0.0997408 -0.000192914 0)
(0.0997473 -0.000183741 0)
(0.0997538 -0.000174952 0)
(0.0997602 -0.000166535 0)
(0.0997666 -0.000158478 0)
(0.0997729 -0.00015077 0)
(0.0997791 -0.000143398 0)
(0.0997852 -0.000136351 0)
(0.0997912 -0.000129618 0)
(0.0997972 -0.000123186 0)
(0.099803 -0.000117046 0)
(0.0998087 -0.000111185 0)
(0.0998143 -0.000105594 0)
(0.0998198 -0.000100262 0)
(0.0998252 -9.51782e-05 0)
(0.0998305 -9.03334e-05 0)
(0.0998357 -8.57177e-05 0)
(0.0998408 -8.13218e-05 0)
(0.0998457 -7.71363e-05 0)
(0.0998506 -7.31526e-05 0)
(0.0998553 -6.93619e-05 0)
(0.0998599 -6.57561e-05 0)
(0.0998644 -6.23269e-05 0)
(0.0998688 -5.90667e-05 0)
(0.099873 -5.59679e-05 0)
(0.0998772 -5.30233e-05 0)
(0.0998812 -5.02259e-05 0)
(0.0998851 -4.7569e-05 0)
(0.099889 -4.50462e-05 0)
(0.0998927 -4.26512e-05 0)
(0.0998963 -4.03779e-05 0)
(0.0998998 -3.82208e-05 0)
(0.0999032 -3.61743e-05 0)
(0.0999065 -3.42331e-05 0)
(0.0999097 -3.23921e-05 0)
(0.0999128 -3.06465e-05 0)
(0.0999158 -2.89917e-05 0)
(0.0999187 -2.74232e-05 0)
(0.0999216 -2.59368e-05 0)
(0.0999243 -2.45284e-05 0)
(0.099927 -2.31941e-05 0)
(0.0999295 -2.19303e-05 0)
(0.099932 -2.07333e-05 0)
(0.0999344 -1.95998e-05 0)
(0.0999368 -1.85267e-05 0)
(0.099939 -1.75108e-05 0)
(0.0999412 -1.65492e-05 0)
(0.0999433 -1.56391e-05 0)
(0.0999453 -1.47779e-05 0)
(0.0999473 -1.3963e-05 0)
(0.0999492 -1.31921e-05 0)
(0.0999511 -1.24628e-05 0)
(0.0999528 -1.17731e-05 0)
(0.0999545 -1.11207e-05 0)
(0.0999562 -1.05038e-05 0)
(0.0999578 -9.92047e-06 0)
(0.0999593 -9.36895e-06 0)
(0.0999608 -8.84755e-06 0)
(0.0996491 -0.000349749 0)
(0.0996556 -0.000334525 0)
(0.0996623 -0.000319838 0)
(0.099669 -0.000305679 0)
(0.0996758 -0.000292036 0)
(0.0996826 -0.000278901 0)
(0.0996895 -0.00026626 0)
(0.0996964 -0.000254104 0)
(0.0997033 -0.000242419 0)
(0.0997102 -0.000231194 0)
(0.0997171 -0.000220416 0)
(0.099724 -0.000210074 0)
(0.0997308 -0.000200155 0)
(0.0997376 -0.000190646 0)
(0.0997443 -0.000181535 0)
(0.099751 -0.00017281 0)
(0.0997576 -0.000164457 0)
(0.0997641 -0.000156465 0)
(0.0997706 -0.000148822 0)
(0.0997769 -0.000141515 0)
(0.0997832 -0.000134532 0)
(0.0997893 -0.000127863 0)
(0.0997954 -0.000121494 0)
(0.0998013 -0.000115416 0)
(0.0998072 -0.000109617 0)
(0.0998129 -0.000104086 0)
(0.0998185 -9.88131e-05 0)
(0.099824 -9.37873e-05 0)
(0.0998294 -8.89989e-05 0)
(0.0998346 -8.44382e-05 0)
(0.0998397 -8.00957e-05 0)
(0.0998448 -7.59622e-05 0)
(0.0998497 -7.20289e-05 0)
(0.0998544 -6.82871e-05 0)
(0.0998591 -6.47285e-05 0)
(0.0998637 -6.1345e-05 0)
(0.0998681 -5.81289e-05 0)
(0.0998724 -5.50727e-05 0)
(0.0998766 -5.21692e-05 0)
(0.0998807 -4.94113e-05 0)
(0.0998846 -4.67925e-05 0)
(0.0998885 -4.43062e-05 0)
(0.0998922 -4.19463e-05 0)
(0.0998959 -3.97067e-05 0)
(0.0998994 -3.7582e-05 0)
(0.0999028 -3.55664e-05 0)
(0.0999062 -3.36549e-05 0)
(0.0999094 -3.18423e-05 0)
(0.0999125 -3.01239e-05 0)
(0.0999156 -2.8495e-05 0)
(0.0999185 -2.69514e-05 0)
(0.0999213 -2.54887e-05 0)
(0.0999241 -2.41029e-05 0)
(0.0999268 -2.27902e-05 0)
(0.0999294 -2.15469e-05 0)
(0.0999319 -2.03696e-05 0)
(0.0999343 -1.92548e-05 0)
(0.0999366 -1.81995e-05 0)
(0.0999389 -1.72005e-05 0)
(0.0999411 -1.62551e-05 0)
(0.0999432 -1.53604e-05 0)
(0.0999452 -1.45138e-05 0)
(0.0999472 -1.37128e-05 0)
(0.0999491 -1.29551e-05 0)
(0.099951 -1.22384e-05 0)
(0.0999527 -1.15605e-05 0)
(0.0999545 -1.09195e-05 0)
(0.0999561 -1.03133e-05 0)
(0.0999577 -9.74015e-06 0)
(0.0999593 -9.19831e-06 0)
(0.0999608 -8.6861e-06 0)
(0.0996423 -0.00034682 0)
(0.0996492 -0.000331607 0)
(0.0996562 -0.000316939 0)
(0.0996632 -0.000302807 0)
(0.0996703 -0.000289199 0)
(0.0996775 -0.000276103 0)
(0.0996847 -0.000263508 0)
(0.0996918 -0.000251402 0)
(0.099699 -0.000239771 0)
(0.0997062 -0.000228603 0)
(0.0997133 -0.000217887 0)
(0.0997204 -0.000207607 0)
(0.0997275 -0.000197753 0)
(0.0997345 -0.00018831 0)
(0.0997414 -0.000179267 0)
(0.0997482 -0.000170609 0)
(0.099755 -0.000162325 0)
(0.0997617 -0.000154402 0)
(0.0997683 -0.000146827 0)
(0.0997748 -0.000139589 0)
(0.0997812 -0.000132674 0)
(0.0997874 -0.000126071 0)
(0.0997936 -0.000119769 0)
(0.0997997 -0.000113756 0)
(0.0998056 -0.000108021 0)
(0.0998114 -0.000102552 0)
(0.0998171 -9.73403e-05 0)
(0.0998227 -9.23742e-05 0)
(0.0998282 -8.76439e-05 0)
(0.0998335 -8.31398e-05 0)
(0.0998387 -7.88523e-05 0)
(0.0998438 -7.47722e-05 0)
(0.0998488 -7.08905e-05 0)
(0.0998536 -6.71988e-05 0)
(0.0998583 -6.36886e-05 0)
(0.0998629 -6.03518e-05 0)
(0.0998674 -5.71808e-05 0)
(0.0998718 -5.41681e-05 0)
(0.099876 -5.13064e-05 0)
(0.0998801 -4.85888e-05 0)
(0.0998841 -4.60087e-05 0)
(0.099888 -4.35595e-05 0)
(0.0998918 -4.12353e-05 0)
(0.0998955 -3.903e-05 0)
(0.099899 -3.6938e-05 0)
(0.0999025 -3.49538e-05 0)
(0.0999058 -3.30724e-05 0)
(0.0999091 -3.12886e-05 0)
(0.0999122 -2.95977e-05 0)
(0.0999153 -2.79951e-05 0)
(0.0999182 -2.64765e-05 0)
(0.0999211 -2.50378e-05 0)
(0.0999239 -2.36749e-05 0)
(0.0999266 -2.2384e-05 0)
(0.0999292 -2.11615e-05 0)
(0.0999317 -2.0004e-05 0)
(0.0999341 -1.89081e-05 0)
(0.0999365 -1.78707e-05 0)
(0.0999387 -1.68889e-05 0)
(0.0999409 -1.59597e-05 0)
(0.0999431 -1.50805e-05 0)
(0.0999451 -1.42486e-05 0)
(0.0999471 -1.34616e-05 0)
(0.099949 -1.27172e-05 0)
(0.0999509 -1.20131e-05 0)
(0.0999527 -1.13472e-05 0)
(0.0999544 -1.07175e-05 0)
(0.0999561 -1.01222e-05 0)
(0.0999577 -9.55929e-06 0)
(0.0999592 -9.02717e-06 0)
(0.0999607 -8.52418e-06 0)
(0.0996355 -0.000343723 0)
(0.0996427 -0.000328531 0)
(0.0996501 -0.000313894 0)
(0.0996575 -0.000299798 0)
(0.0996649 -0.000286233 0)
(0.0996724 -0.000273186 0)
(0.0996798 -0.000260644 0)
(0.0996873 -0.000248595 0)
(0.0996947 -0.000237026 0)
(0.0997022 -0.000225923 0)
(0.0997095 -0.000215273 0)
(0.0997169 -0.000205062 0)
(0.0997241 -0.000195278 0)
(0.0997313 -0.000185907 0)
(0.0997384 -0.000176936 0)
(0.0997455 -0.000168351 0)
(0.0997524 -0.00016014 0)
(0.0997593 -0.00015229 0)
(0.099766 -0.000144787 0)
(0.0997726 -0.00013762 0)
(0.0997792 -0.000130777 0)
(0.0997856 -0.000124244 0)
(0.0997919 -0.000118011 0)
(0.099798 -0.000112065 0)
(0.0998041 -0.000106396 0)
(0.09981 -0.000100992 0)
(0.0998158 -9.58435e-05 0)
(0.0998215 -9.09389e-05 0)
(0.099827 -8.62687e-05 0)
(0.0998324 -8.18228e-05 0)
(0.0998377 -7.75917e-05 0)
(0.0998429 -7.35664e-05 0)
(0.0998479 -6.97378e-05 0)
(0.0998528 -6.60972e-05 0)
(0.0998576 -6.26365e-05 0)
(0.0998622 -5.93475e-05 0)
(0.0998667 -5.62225e-05 0)
(0.0998711 -5.32541e-05 0)
(0.0998754 -5.0435e-05 0)
(0.0998796 -4.77584e-05 0)
(0.0998836 -4.52176e-05 0)
(0.0998876 -4.28063e-05 0)
(0.0998914 -4.05183e-05 0)
(0.0998951 -3.83477e-05 0)
(0.0998987 -3.6289e-05 0)
(0.0999021 -3.43367e-05 0)
(0.0999055 -3.24857e-05 0)
(0.0999088 -3.0731e-05 0)
(0.099912 -2.90679e-05 0)
(0.099915 -2.7492e-05 0)
(0.099918 -2.59988e-05 0)
(0.0999209 -2.45843e-05 0)
(0.0999237 -2.32444e-05 0)
(0.0999264 -2.19756e-05 0)
(0.099929 -2.07741e-05 0)
(0.0999315 -1.96365e-05 0)
(0.099934 -1.85597e-05 0)
(0.0999363 -1.75405e-05 0)
(0.0999386 -1.65758e-05 0)
(0.0999408 -1.56631e-05 0)
(0.099943 -1.47994e-05 0)
(0.099945 -1.39823e-05 0)
(0.099947 -1.32094e-05 0)
(0.0999489 -1.24784e-05 0)
(0.0999508 -1.1787e-05 0)
(0.0999526 -1.11332e-05 0)
(0.0999543 -1.05149e-05 0)
(0.099956 -9.93045e-06 0)
(0.0999576 -9.37788e-06 0)
(0.0999592 -8.85553e-06 0)
(0.0999607 -8.36181e-06 0)
(0.0996287 -0.000340458 0)
(0.0996363 -0.000325298 0)
(0.099644 -0.0003107 0)
(0.0996517 -0.00029665 0)
(0.0996595 -0.000283137 0)
(0.0996673 -0.000270148 0)
(0.099675 -0.000257668 0)
(0.0996828 -0.000245684 0)
(0.0996905 -0.000234183 0)
(0.0996982 -0.000223151 0)
(0.0997058 -0.000212574 0)
(0.0997133 -0.000202439 0)
(0.0997208 -0.000192731 0)
(0.0997282 -0.000183436 0)
(0.0997355 -0.000174542 0)
(0.0997427 -0.000166035 0)
(0.0997499 -0.000157901 0)
(0.0997569 -0.000150128 0)
(0.0997638 -0.000142702 0)
(0.0997705 -0.00013561 0)
(0.0997772 -0.00012884 0)
(0.0997837 -0.000122381 0)
(0.0997901 -0.000116219 0)
(0.0997964 -0.000110344 0)
(0.0998026 -0.000104743 0)
(0.0998086 -9.94064e-05 0)
(0.0998145 -9.43228e-05 0)
(0.0998202 -8.94818e-05 0)
(0.0998259 -8.48732e-05 0)
(0.0998314 -8.04872e-05 0)
(0.0998367 -7.63142e-05 0)
(0.0998419 -7.2345e-05 0)
(0.099847 -6.85707e-05 0)
(0.099852 -6.49826e-05 0)
(0.0998568 -6.15724e-05 0)
(0.0998615 -5.83322e-05 0)
(0.0998661 -5.52541e-05 0)
(0.0998705 -5.23308e-05 0)
(0.0998749 -4.95552e-05 0)
(0.0998791 -4.69203e-05 0)
(0.0998831 -4.44195e-05 0)
(0.0998871 -4.20465e-05 0)
(0.0998909 -3.97953e-05 0)
(0.0998947 -3.766e-05 0)
(0.0998983 -3.5635e-05 0)
(0.0999018 -3.3715e-05 0)
(0.0999052 -3.18948e-05 0)
(0.0999085 -3.01697e-05 0)
(0.0999117 -2.85348e-05 0)
(0.0999148 -2.69857e-05 0)
(0.0999178 -2.55182e-05 0)
(0.0999207 -2.41281e-05 0)
(0.0999235 -2.28116e-05 0)
(0.0999262 -2.1565e-05 0)
(0.0999288 -2.03847e-05 0)
(0.0999314 -1.92673e-05 0)
(0.0999338 -1.82097e-05 0)
(0.0999362 -1.72087e-05 0)
(0.0999385 -1.62614e-05 0)
(0.0999407 -1.53651e-05 0)
(0.0999428 -1.45172e-05 0)
(0.0999449 -1.3715e-05 0)
(0.0999469 -1.29563e-05 0)
(0.0999488 -1.22387e-05 0)
(0.0999507 -1.15601e-05 0)
(0.0999525 -1.09184e-05 0)
(0.0999543 -1.03117e-05 0)
(0.0999559 -9.73814e-06 0)
(0.0999575 -9.19593e-06 0)
(0.0999591 -8.68341e-06 0)
(0.0999606 -8.199e-06 0)
(0.0996219 -0.000337021 0)
(0.0996299 -0.000321905 0)
(0.099638 -0.000307357 0)
(0.099646 -0.000293363 0)
(0.0996541 -0.000279912 0)
(0.0996622 -0.000266988 0)
(0.0996703 -0.000254578 0)
(0.0996783 -0.000242668 0)
(0.0996863 -0.000231243 0)
(0.0996942 -0.000220289 0)
(0.0997021 -0.000209791 0)
(0.0997098 -0.000199737 0)
(0.0997175 -0.000190111 0)
(0.0997251 -0.000180899 0)
(0.0997326 -0.000172087 0)
(0.09974 -0.000163662 0)
(0.0997473 -0.000155609 0)
(0.0997545 -0.000147917 0)
(0.0997615 -0.00014057 0)
(0.0997685 -0.000133557 0)
(0.0997752 -0.000126865 0)
(0.0997819 -0.000120482 0)
(0.0997884 -0.000114394 0)
(0.0997948 -0.000108592 0)
(0.0998011 -0.000103062 0)
(0.0998072 -9.77948e-05 0)
(0.0998132 -9.27786e-05 0)
(0.099819 -8.8003e-05 0)
(0.0998247 -8.34579e-05 0)
(0.0998303 -7.91334e-05 0)
(0.0998357 -7.50199e-05 0)
(0.099841 -7.11082e-05 0)
(0.0998462 -6.73894e-05 0)
(0.0998512 -6.38549e-05 0)
(0.0998561 -6.04964e-05 0)
(0.0998608 -5.73059e-05 0)
(0.0998654 -5.42757e-05 0)
(0.0998699 -5.13984e-05 0)
(0.0998743 -4.8667e-05 0)
(0.0998785 -4.60745e-05 0)
(0.0998827 -4.36144e-05 0)
(0.0998866 -4.12804e-05 0)
(0.0998905 -3.90665e-05 0)
(0.0998943 -3.69669e-05 0)
(0.0998979 -3.49761e-05 0)
(0.0999015 -3.30888e-05 0)
(0.0999049 -3.12999e-05 0)
(0.0999082 -2.96046e-05 0)
(0.0999114 -2.79982e-05 0)
(0.0999145 -2.64763e-05 0)
(0.0999175 -2.50347e-05 0)
(0.0999205 -2.36694e-05 0)
(0.0999233 -2.23764e-05 0)
(0.099926 -2.11522e-05 0)
(0.0999286 -1.99933e-05 0)
(0.0999312 -1.88963e-05 0)
(0.0999337 -1.7858e-05 0)
(0.0999361 -1.68754e-05 0)
(0.0999384 -1.59457e-05 0)
(0.0999406 -1.5066e-05 0)
(0.0999427 -1.42339e-05 0)
(0.0999448 -1.34467e-05 0)
(0.0999468 -1.27023e-05 0)
(0.0999488 -1.19982e-05 0)
(0.0999506 -1.13325e-05 0)
(0.0999524 -1.0703e-05 0)
(0.0999542 -1.01079e-05 0)
(0.0999559 -9.54525e-06 0)
(0.0999575 -9.01345e-06 0)
(0.0999591 -8.51081e-06 0)
(0.0999606 -8.03576e-06 0)
(0.0996151 -0.000333413 0)
(0.0996235 -0.000318351 0)
(0.0996319 -0.000303863 0)
(0.0996404 -0.000289936 0)
(0.0996488 -0.000276556 0)
(0.0996572 -0.000263707 0)
(0.0996655 -0.000251375 0)
(0.0996738 -0.000239546 0)
(0.0996821 -0.000228204 0)
(0.0996903 -0.000217335 0)
(0.0996984 -0.000206924 0)
(0.0997064 -0.000196957 0)
(0.0997143 -0.000187418 0)
(0.0997221 -0.000178294 0)
(0.0997298 -0.000169569 0)
(0.0997373 -0.000161231 0)
(0.0997448 -0.000153264 0)
(0.0997521 -0.000145656 0)
(0.0997593 -0.000138394 0)
(0.0997664 -0.000131463 0)
(0.0997733 -0.000124852 0)
(0.0997801 -0.000118547 0)
(0.0997868 -0.000112537 0)
(0.0997933 -0.00010681 0)
(0.0997996 -0.000101354 0)
(0.0998058 -9.61578e-05 0)
(0.0998119 -9.1211e-05 0)
(0.0998178 -8.65027e-05 0)
(0.0998236 -8.20228e-05 0)
(0.0998293 -7.77614e-05 0)
(0.0998348 -7.37089e-05 0)
(0.0998401 -6.98561e-05 0)
(0.0998453 -6.61942e-05 0)
(0.0998504 -6.27144e-05 0)
(0.0998553 -5.94087e-05 0)
(0.0998601 -5.62689e-05 0)
(0.0998648 -5.32875e-05 0)
(0.0998693 -5.0457e-05 0)
(0.0998738 -4.77705e-05 0)
(0.099878 -4.52211e-05 0)
(0.0998822 -4.28023e-05 0)
(0.0998862 -4.05079e-05 0)
(0.0998901 -3.83319e-05 0)
(0.0998939 -3.62686e-05 0)
(0.0998976 -3.43125e-05 0)
(0.0999011 -3.24583e-05 0)
(0.0999046 -3.0701e-05 0)
(0.0999079 -2.90359e-05 0)
(0.0999112 -2.74583e-05 0)
(0.0999143 -2.59639e-05 0)
(0.0999173 -2.45485e-05 0)
(0.0999202 -2.32081e-05 0)
(0.0999231 -2.19389e-05 0)
(0.0999258 -2.07374e-05 0)
(0.0999285 -1.96e-05 0)
(0.099931 -1.85235e-05 0)
(0.0999335 -1.75047e-05 0)
(0.0999359 -1.65407e-05 0)
(0.0999382 -1.56286e-05 0)
(0.0999405 -1.47657e-05 0)
(0.0999426 -1.39494e-05 0)
(0.0999447 -1.31774e-05 0)
(0.0999467 -1.24473e-05 0)
(0.0999487 -1.17569e-05 0)
(0.0999506 -1.11041e-05 0)
(0.0999524 -1.04869e-05 0)
(0.0999541 -9.90336e-06 0)
(0.0999558 -9.3518e-06 0)
(0.0999574 -8.83046e-06 0)
(0.099959 -8.33773e-06 0)
(0.0999605 -7.87208e-06 0)
(0.0996084 -0.000329632 0)
(0.0996171 -0.000314636 0)
(0.0996259 -0.000300219 0)
(0.0996347 -0.000286369 0)
(0.0996435 -0.000273069 0)
(0.0996522 -0.000260304 0)
(0.0996608 -0.000248059 0)
(0.0996694 -0.000236319 0)
(0.0996779 -0.000225068 0)
(0.0996864 -0.000214291 0)
(0.0996947 -0.000203973 0)
(0.0997029 -0.000194099 0)
(0.0997111 -0.000184653 0)
(0.0997191 -0.000175622 0)
(0.0997269 -0.00016699 0)
(0.0997347 -0.000158743 0)
(0.0997423 -0.000150866 0)
(0.0997498 -0.000143348 0)
(0.0997572 -0.000136172 0)
(0.0997644 -0.000129327 0)
(0.0997714 -0.0001228 0)
(0.0997783 -0.000116577 0)
(0.0997851 -0.000110647 0)
(0.0997917 -0.000104998 0)
(0.0997982 -9.9618e-05 0)
(0.0998045 -9.44956e-05 0)
(0.0998107 -8.96202e-05 0)
(0.0998167 -8.49811e-05 0)
(0.0998225 -8.05682e-05 0)
(0.0998282 -7.63715e-05 0)
(0.0998338 -7.23815e-05 0)
(0.0998392 -6.8589e-05 0)
(0.0998445 -6.49851e-05 0)
(0.0998496 -6.15613e-05 0)
(0.0998546 -5.83093e-05 0)
(0.0998595 -5.52213e-05 0)
(0.0998642 -5.22895e-05 0)
(0.0998688 -4.95067e-05 0)
(0.0998732 -4.68659e-05 0)
(0.0998775 -4.43603e-05 0)
(0.0998817 -4.19835e-05 0)
(0.0998858 -3.97293e-05 0)
(0.0998897 -3.75917e-05 0)
(0.0998935 -3.55651e-05 0)
(0.0998972 -3.36441e-05 0)
(0.0999008 -3.18234e-05 0)
(0.0999043 -3.00981e-05 0)
(0.0999076 -2.84635e-05 0)
(0.0999109 -2.69151e-05 0)
(0.099914 -2.54484e-05 0)
(0.0999171 -2.40595e-05 0)
(0.09992 -2.27443e-05 0)
(0.0999229 -2.14992e-05 0)
(0.0999256 -2.03205e-05 0)
(0.0999283 -1.92048e-05 0)
(0.0999309 -1.8149e-05 0)
(0.0999334 -1.71498e-05 0)
(0.0999358 -1.62045e-05 0)
(0.0999381 -1.53102e-05 0)
(0.0999404 -1.44641e-05 0)
(0.0999425 -1.36639e-05 0)
(0.0999446 -1.29071e-05 0)
(0.0999466 -1.21915e-05 0)
(0.0999486 -1.15148e-05 0)
(0.0999505 -1.08749e-05 0)
(0.0999523 -1.02701e-05 0)
(0.099954 -9.69826e-06 0)
(0.0999557 -9.15779e-06 0)
(0.0999574 -8.64696e-06 0)
(0.0999589 -8.1642e-06 0)
(0.0999605 -7.70799e-06 0)
(0.0996016 -0.000325677 0)
(0.0996108 -0.000310758 0)
(0.09962 -0.000296424 0)
(0.0996291 -0.00028266 0)
(0.0996382 -0.00026945 0)
(0.0996472 -0.000256779 0)
(0.0996562 -0.000244629 0)
(0.099665 -0.000232986 0)
(0.0996738 -0.000221834 0)
(0.0996825 -0.000211157 0)
(0.0996911 -0.000200938 0)
(0.0996995 -0.000191163 0)
(0.0997079 -0.000181817 0)
(0.0997161 -0.000172884 0)
(0.0997241 -0.000164349 0)
(0.0997321 -0.000156198 0)
(0.0997399 -0.000148416 0)
(0.0997475 -0.00014099 0)
(0.099755 -0.000133906 0)
(0.0997624 -0.000127151 0)
(0.0997695 -0.00012071 0)
(0.0997766 -0.000114573 0)
(0.0997835 -0.000108726 0)
(0.0997902 -0.000103157 0)
(0.0997968 -9.7855e-05 0)
(0.0998032 -9.28085e-05 0)
(0.0998094 -8.80066e-05 0)
(0.0998155 -8.34386e-05 0)
(0.0998215 -7.90943e-05 0)
(0.0998272 -7.49639e-05 0)
(0.0998329 -7.10379e-05 0)
(0.0998384 -6.7307e-05 0)
(0.0998437 -6.37625e-05 0)
(0.0998489 -6.03957e-05 0)
(0.0998539 -5.71986e-05 0)
(0.0998588 -5.41632e-05 0)
(0.0998636 -5.1282e-05 0)
(0.0998682 -4.85476e-05 0)
(0.0998727 -4.59533e-05 0)
(0.099877 -4.34922e-05 0)
(0.0998813 -4.1158e-05 0)
(0.0998853 -3.89445e-05 0)
(0.0998893 -3.68458e-05 0)
(0.0998932 -3.48565e-05 0)
(0.0998969 -3.2971e-05 0)
(0.0999005 -3.11842e-05 0)
(0.099904 -2.94914e-05 0)
(0.0999074 -2.78876e-05 0)
(0.0999106 -2.63686e-05 0)
(0.0999138 -2.493e-05 0)
(0.0999169 -2.35678e-05 0)
(0.0999198 -2.22781e-05 0)
(0.0999227 -2.10572e-05 0)
(0.0999255 -1.99015e-05 0)
(0.0999281 -1.88078e-05 0)
(0.0999307 -1.77728e-05 0)
(0.0999332 -1.67935e-05 0)
(0.0999357 -1.58669e-05 0)
(0.099938 -1.49905e-05 0)
(0.0999402 -1.41615e-05 0)
(0.0999424 -1.33774e-05 0)
(0.0999445 -1.26359e-05 0)
(0.0999465 -1.19347e-05 0)
(0.0999485 -1.12718e-05 0)
(0.0999504 -1.06451e-05 0)
(0.0999522 -1.00526e-05 0)
(0.099954 -9.49255e-06 0)
(0.0999557 -8.96323e-06 0)
(0.0999573 -8.46296e-06 0)
(0.0999589 -7.99021e-06 0)
(0.0999604 -7.54348e-06 0)
(0.099595 -0.000321547 0)
(0.0996045 -0.000306717 0)
(0.099614 -0.000292476 0)
(0.0996235 -0.00027881 0)
(0.0996329 -0.0002657 0)
(0.0996423 -0.000253131 0)
(0.0996515 -0.000241086 0)
(0.0996607 -0.000229549 0)
(0.0996697 -0.000218503 0)
(0.0996787 -0.000207931 0)
(0.0996875 -0.000197819 0)
(0.0996962 -0.00018815 0)
(0.0997047 -0.000178908 0)
(0.0997131 -0.000170079 0)
(0.0997214 -0.000161647 0)
(0.0997295 -0.000153596 0)
(0.0997374 -0.000145914 0)
(0.0997452 -0.000138585 0)
(0.0997529 -0.000131596 0)
(0.0997604 -0.000124933 0)
(0.0997677 -0.000118583 0)
(0.0997749 -0.000112534 0)
(0.0997818 -0.000106772 0)
(0.0997887 -0.000101287 0)
(0.0997953 -9.60652e-05 0)
(0.0998018 -9.10968e-05 0)
(0.0998082 -8.63703e-05 0)
(0.0998144 -8.18752e-05 0)
(0.0998204 -7.76014e-05 0)
(0.0998262 -7.35389e-05 0)
(0.099832 -6.96783e-05 0)
(0.0998375 -6.60104e-05 0)
(0.0998429 -6.25264e-05 0)
(0.0998481 -5.92178e-05 0)
(0.0998532 -5.60765e-05 0)
(0.0998582 -5.30948e-05 0)
(0.099863 -5.0265e-05 0)
(0.0998676 -4.75799e-05 0)
(0.0998722 -4.50328e-05 0)
(0.0998766 -4.26169e-05 0)
(0.0998808 -4.03258e-05 0)
(0.0998849 -3.81536e-05 0)
(0.0998889 -3.60945e-05 0)
(0.0998928 -3.41428e-05 0)
(0.0998965 -3.22933e-05 0)
(0.0999002 -3.05409e-05 0)
(0.0999037 -2.88808e-05 0)
(0.0999071 -2.73083e-05 0)
(0.0999104 -2.5819e-05 0)
(0.0999136 -2.44087e-05 0)
(0.0999167 -2.30735e-05 0)
(0.0999196 -2.18095e-05 0)
(0.0999225 -2.0613e-05 0)
(0.0999253 -1.94805e-05 0)
(0.099928 -1.84089e-05 0)
(0.0999306 -1.73949e-05 0)
(0.0999331 -1.64356e-05 0)
(0.0999355 -1.5528e-05 0)
(0.0999379 -1.46696e-05 0)
(0.0999401 -1.38576e-05 0)
(0.0999423 -1.30898e-05 0)
(0.0999444 -1.23637e-05 0)
(0.0999465 -1.16772e-05 0)
(0.0999484 -1.10281e-05 0)
(0.0999503 -1.04145e-05 0)
(0.0999522 -9.83448e-06 0)
(0.0999539 -9.28626e-06 0)
(0.0999556 -8.76813e-06 0)
(0.0999573 -8.27848e-06 0)
(0.0999588 -7.81578e-06 0)
(0.0999604 -7.37858e-06 0)
(0.0995883 -0.000317241 0)
(0.0995983 -0.000302512 0)
(0.0996082 -0.000288377 0)
(0.099618 -0.000274818 0)
(0.0996277 -0.000261819 0)
(0.0996374 -0.000249362 0)
(0.0996469 -0.00023743 0)
(0.0996564 -0.000226006 0)
(0.0996657 -0.000215074 0)
(0.0996749 -0.000204616 0)
(0.0996839 -0.000194617 0)
(0.0996928 -0.00018506 0)
(0.0997016 -0.000175929 0)
(0.0997102 -0.000167209 0)
(0.0997186 -0.000158884 0)
(0.0997269 -0.000150939 0)
(0.0997351 -0.00014336 0)
(0.099743 -0.000136132 0)
(0.0997508 -0.000129242 0)
(0.0997584 -0.000122675 0)
(0.0997659 -0.000116419 0)
(0.0997732 -0.00011046 0)
(0.0997803 -0.000104787 0)
(0.0997872 -9.93874e-05 0)
(0.099794 -9.42489e-05 0)
(0.0998006 -8.93607e-05 0)
(0.099807 -8.47117e-05 0)
(0.0998132 -8.02914e-05 0)
(0.0998193 -7.60897e-05 0)
(0.0998253 -7.20966e-05 0)
(0.099831 -6.83028e-05 0)
(0.0998367 -6.46992e-05 0)
(0.0998421 -6.1277e-05 0)
(0.0998474 -5.80278e-05 0)
(0.0998525 -5.49434e-05 0)
(0.0998575 -5.20162e-05 0)
(0.0998624 -4.92387e-05 0)
(0.0998671 -4.66037e-05 0)
(0.0998717 -4.41045e-05 0)
(0.0998761 -4.17344e-05 0)
(0.0998804 -3.94872e-05 0)
(0.0998845 -3.73569e-05 0)
(0.0998885 -3.53377e-05 0)
(0.0998924 -3.34242e-05 0)
(0.0998962 -3.16111e-05 0)
(0.0998999 -2.98935e-05 0)
(0.0999034 -2.82664e-05 0)
(0.0999068 -2.67255e-05 0)
(0.0999101 -2.52663e-05 0)
(0.0999133 -2.38846e-05 0)
(0.0999164 -2.25766e-05 0)
(0.0999194 -2.13385e-05 0)
(0.0999223 -2.01666e-05 0)
(0.0999251 -1.90576e-05 0)
(0.0999278 -1.80083e-05 0)
(0.0999304 -1.70154e-05 0)
(0.099933 -1.60762e-05 0)
(0.0999354 -1.51877e-05 0)
(0.0999378 -1.43474e-05 0)
(0.09994 -1.35527e-05 0)
(0.0999422 -1.28012e-05 0)
(0.0999443 -1.20906e-05 0)
(0.0999464 -1.14187e-05 0)
(0.0999483 -1.07836e-05 0)
(0.0999502 -1.01832e-05 0)
(0.0999521 -9.61574e-06 0)
(0.0999539 -9.07939e-06 0)
(0.0999556 -8.57251e-06 0)
(0.0999572 -8.09352e-06 0)
(0.0999588 -7.64091e-06 0)
(0.0999603 -7.21328e-06 0)
(0.0995817 -0.000312759 0)
(0.0995921 -0.000298143 0)
(0.0996023 -0.000284125 0)
(0.0996125 -0.000270685 0)
(0.0996226 -0.000257806 0)
(0.0996325 -0.00024547 0)
(0.0996424 -0.00023366 0)
(0.0996521 -0.000222358 0)
(0.0996617 -0.000211548 0)
(0.0996711 -0.000201211 0)
(0.0996804 -0.000191331 0)
(0.0996895 -0.000181893 0)
(0.0996985 -0.000172878 0)
(0.0997073 -0.000164273 0)
(0.0997159 -0.00015606 0)
(0.0997244 -0.000148226 0)
(0.0997327 -0.000140755 0)
(0.0997408 -0.000133632 0)
(0.0997487 -0.000126844 0)
(0.0997565 -0.000120377 0)
(0.0997641 -0.000114218 0)