/*--------------------------------*- C++ -*----------------------------------*\
| =========                 |                                                 |
| \\      /  F ield         | OpenFOAM: The Open Source CFD Toolbox           |
|  \\    /   O peration     | Version:  2412                                  |
|   \\  /    A nd           | Website:  www.openfoam.com                      |
|    \\/     M anipulation  |                                                 |
\*---------------------------------------------------------------------------*/
FoamFile
{
    version     2.0;
    format      ascii;
    arch        "LSB;label=32;scalar=64";
    class       volVectorField;
    location    "30";
    object      vorticity;
}
// * * * * * * * * * * * * * * * * * * * * * * * * * * * * * * * * * * * * * //

dimensions      [0 0 -1 0 0 0 0];

internalField   nonuniform List<vector> 
5285
(
(0 -0 -4.06431e-06)
(0 -0 -6.33215e-06)
(0 -0 -9.09246e-06)
(0 -0 -1.22455e-05)
(0 -0 -1.55844e-05)
(0 -0 -1.89807e-05)
(0 -0 -2.23158e-05)
(0 -0 -2.54825e-05)
(0 -0 -2.83954e-05)
(0 -0 -3.09975e-05)
(0 -0 -3.326e-05)
(0 -0 -3.51786e-05)
(0 -0 -3.67661e-05)
(0 -0 -3.80446e-05)
(0 -0 -3.90406e-05)
(0 -0 -3.97808e-05)
(0 -0 -4.02919e-05)
(0 -0 -4.05999e-05)
(0 -0 -4.07301e-05)
(0 -0 -4.07066e-05)
(0 -0 -4.05526e-05)
(0 -0 -4.02893e-05)
(0 -0 -3.99359e-05)
(0 -0 -3.95092e-05)
(0 -0 -3.90234e-05)
(0 -0 -3.84903e-05)
(0 -0 -3.79191e-05)
(0 -0 -3.7317e-05)
(0 -0 -3.66898e-05)
(0 -0 -3.60423e-05)
(0 -0 -3.53788e-05)
(0 -0 -3.47036e-05)
(0 -0 -3.40209e-05)
(0 -0 -3.33346e-05)
(0 -0 -3.26479e-05)
(0 -0 -3.19633e-05)
(0 -0 -3.1282e-05)
(0 -0 -3.06055e-05)
(0 -0 -2.99341e-05)
(0 -0 -2.92703e-05)
(0 -0 -2.86135e-05)
(0 -0 -2.79681e-05)
(0 -0 -2.73292e-05)
(0 -0 -2.67041e-05)
(0 -0 -2.60797e-05)
(0 -0 -2.54753e-05)
(0 -0 -2.48623e-05)
(0 -0 -2.42879e-05)
(0 -0 -2.36866e-05)
(0 -0 -2.31586e-05)
(0 -0 -2.25599e-05)
(0 -0 -2.20948e-05)
(0 -0 -2.14731e-05)
(0 -0 -2.10941e-05)
(0 -0 -2.04128e-05)
(0 -0 -2.0159e-05)
(0 -0 -1.93649e-05)
(0 -0 -1.92787e-05)
(0 -0 -1.83016e-05)
(0 -0 -1.84101e-05)
(0 -0 -1.7287e-05)
(0 -0 -1.72581e-05)
(0 -0 -1.71224e-05)
(0 -0 -1.39857e-05)
(0 -0 -2.06349e-05)
(0 -0 -6.89713e-06)
(0 -0 -2.24337e-05)
(0 -0 -1.21636e-05)
(0 -0 -9.49973e-06)
(0 -0 -7.2474e-06)
(0 -0 -2.76511e-05)
(0 -0 -3.6193e-06)
(0 -0 -5.61116e-06)
(0 -0 -8.08382e-06)
(0 -0 -1.09463e-05)
(0 -0 -1.40034e-05)
(0 -0 -1.71329e-05)
(0 -0 -2.0222e-05)
(0 -0 -2.31675e-05)
(0 -0 -2.5886e-05)
(0 -0 -2.83211e-05)
(0 -0 -3.04434e-05)
(0 -0 -3.22469e-05)
(0 -0 -3.37422e-05)
(0 -0 -3.49495e-05)
(0 -0 -3.58925e-05)
(0 -0 -3.65961e-05)
(0 -0 -3.70849e-05)
(0 -0 -3.73832e-05)
(0 -0 -3.75148e-05)
(0 -0 -3.75024e-05)
(0 -0 -3.73678e-05)
(0 -0 -3.71309e-05)
(0 -0 -3.68099e-05)
(0 -0 -3.64206e-05)
(0 -0 -3.59762e-05)
(0 -0 -3.54878e-05)
(0 -0 -3.49641e-05)
(0 -0 -3.44117e-05)
(0 -0 -3.38362e-05)
(0 -0 -3.3242e-05)
(0 -0 -3.26331e-05)
(0 -0 -3.20136e-05)
(0 -0 -3.13872e-05)
(0 -0 -3.07578e-05)
(0 -0 -3.01281e-05)
(0 -0 -2.95004e-05)
(0 -0 -2.8876e-05)
(0 -0 -2.82562e-05)
(0 -0 -2.76413e-05)
(0 -0 -2.70337e-05)
(0 -0 -2.64327e-05)
(0 -0 -2.58423e-05)
(0 -0 -2.52581e-05)
(0 -0 -2.46869e-05)
(0 -0 -2.4116e-05)
(0 -0 -2.35643e-05)
(0 -0 -2.30038e-05)
(0 -0 -2.24805e-05)
(0 -0 -2.19301e-05)
(0 -0 -2.14505e-05)
(0 -0 -2.09011e-05)
(0 -0 -2.04813e-05)
(0 -0 -1.99083e-05)
(0 -0 -1.9571e-05)
(0 -0 -1.8939e-05)
(0 -0 -1.8722e-05)
(0 -0 -1.79802e-05)
(0 -0 -1.79243e-05)
(0 -0 -1.70066e-05)
(0 -0 -1.71382e-05)
(0 -0 -1.60723e-05)
(0 -0 -1.61116e-05)
(0 -0 -1.58503e-05)
(0 -0 -1.33184e-05)
(0 -0 -1.86282e-05)
(0 -0 -7.56056e-06)
(0 -0 -1.95405e-05)
(0 -0 -1.22893e-05)
(0 -0 -9.34908e-06)
(0 -0 -5.61767e-06)
(0 -0 -2.62314e-05)
(0 -0 -3.23963e-06)
(0 -0 -4.95506e-06)
(0 -0 -7.13854e-06)
(0 -0 -9.71327e-06)
(0 -0 -1.24903e-05)
(0 -0 -1.53545e-05)
(0 -0 -1.81989e-05)
(0 -0 -2.09242e-05)
(0 -0 -2.34493e-05)
(0 -0 -2.57182e-05)
(0 -0 -2.77006e-05)
(0 -0 -2.93892e-05)
(0 -0 -3.07925e-05)
(0 -0 -3.19282e-05)
(0 -0 -3.28179e-05)
(0 -0 -3.34843e-05)
(0 -0 -3.39503e-05)
(0 -0 -3.42383e-05)
(0 -0 -3.43706e-05)
(0 -0 -3.43685e-05)
(0 -0 -3.42524e-05)
(0 -0 -3.40411e-05)
(0 -0 -3.37516e-05)
(0 -0 -3.33987e-05)
(0 -0 -3.29948e-05)
(0 -0 -3.25502e-05)
(0 -0 -3.20729e-05)
(0 -0 -3.15693e-05)
(0 -0 -3.10444e-05)
(0 -0 -3.05024e-05)
(0 -0 -2.99471e-05)
(0 -0 -2.93821e-05)
(0 -0 -2.88111e-05)
(0 -0 -2.82374e-05)
(0 -0 -2.76636e-05)
(0 -0 -2.70919e-05)
(0 -0 -2.65232e-05)
(0 -0 -2.59591e-05)
(0 -0 -2.53996e-05)
(0 -0 -2.4847e-05)
(0 -0 -2.43007e-05)
(0 -0 -2.37644e-05)
(0 -0 -2.32337e-05)
(0 -0 -2.27153e-05)
(0 -0 -2.21969e-05)
(0 -0 -2.16968e-05)
(0 -0 -2.11877e-05)
(0 -0 -2.07144e-05)
(0 -0 -2.02139e-05)
(0 -0 -1.97817e-05)
(0 -0 -1.92805e-05)
(0 -0 -1.8905e-05)
(0 -0 -1.83796e-05)
(0 -0 -1.8083e-05)
(0 -0 -1.74994e-05)
(0 -0 -1.73183e-05)
(0 -0 -1.66278e-05)
(0 -0 -1.66014e-05)
(0 -0 -1.57422e-05)
(0 -0 -1.58959e-05)
(0 -0 -1.48872e-05)
(0 -0 -1.49911e-05)
(0 -0 -1.46121e-05)
(0 -0 -1.2661e-05)
(0 -0 -1.66844e-05)
(0 -0 -8.1884e-06)
(0 -0 -1.67437e-05)
(0 -0 -1.24056e-05)
(0 -0 -9.18825e-06)
(0 -0 -4.06605e-06)
(0 -0 -2.48493e-05)
(0 -0 -2.90869e-06)
(0 -0 -4.34985e-06)
(0 -0 -6.25072e-06)
(0 -0 -8.54288e-06)
(0 -0 -1.10446e-05)
(0 -0 -1.36481e-05)
(0 -0 -1.62523e-05)
(0 -0 -1.87614e-05)
(0 -0 -2.10967e-05)
(0 -0 -2.32022e-05)
(0 -0 -2.50473e-05)
(0 -0 -2.66229e-05)
(0 -0 -2.79354e-05)
(0 -0 -2.90004e-05)
(0 -0 -2.98372e-05)
(0 -0 -3.04667e-05)
(0 -0 -3.09096e-05)
(0 -0 -3.11869e-05)
(0 -0 -3.13192e-05)
(0 -0 -3.13266e-05)
(0 -0 -3.12281e-05)
(0 -0 -3.10414e-05)
(0 -0 -3.07822e-05)
(0 -0 -3.04645e-05)
(0 -0 -3.00997e-05)
(0 -0 -2.96974e-05)
(0 -0 -2.9265e-05)
(0 -0 -2.88087e-05)
(0 -0 -2.83328e-05)
(0 -0 -2.78415e-05)
(0 -0 -2.73382e-05)
(0 -0 -2.68261e-05)
(0 -0 -2.63087e-05)
(0 -0 -2.5789e-05)
(0 -0 -2.52695e-05)
(0 -0 -2.47519e-05)
(0 -0 -2.42374e-05)
(0 -0 -2.37271e-05)
(0 -0 -2.32214e-05)
(0 -0 -2.27222e-05)
(0 -0 -2.22289e-05)
(0 -0 -2.1745e-05)
(0 -0 -2.12661e-05)
(0 -0 -2.07989e-05)
(0 -0 -2.03312e-05)
(0 -0 -1.98811e-05)
(0 -0 -1.94218e-05)
(0 -0 -1.89969e-05)
(0 -0 -1.85447e-05)
(0 -0 -1.81583e-05)
(0 -0 -1.7704e-05)
(0 -0 -1.73712e-05)
(0 -0 -1.68919e-05)
(0 -0 -1.66346e-05)
(0 -0 -1.60979e-05)
(0 -0 -1.59513e-05)
(0 -0 -1.53109e-05)
(0 -0 -1.53124e-05)
(0 -0 -1.45106e-05)
(0 -0 -1.46847e-05)
(0 -0 -1.3733e-05)
(0 -0 -1.38968e-05)
(0 -0 -1.34103e-05)
(0 -0 -1.20079e-05)
(0 -0 -1.48151e-05)
(0 -0 -8.75842e-06)
(0 -0 -1.4067e-05)
(0 -0 -1.24961e-05)
(0 -0 -9.00432e-06)
(0 -0 -2.6046e-06)
(0 -0 -2.35028e-05)
(0 -0 -2.61219e-06)
(0 -0 -3.78645e-06)
(0 -0 -5.41233e-06)
(0 -0 -7.42948e-06)
(0 -0 -9.66347e-06)
(0 -0 -1.20137e-05)
(0 -0 -1.43845e-05)
(0 -0 -1.6684e-05)
(0 -0 -1.8835e-05)
(0 -0 -2.07823e-05)
(0 -0 -2.24941e-05)
(0 -0 -2.396e-05)
(0 -0 -2.51843e-05)
(0 -0 -2.61805e-05)
(0 -0 -2.69659e-05)
(0 -0 -2.75591e-05)
(0 -0 -2.79792e-05)
(0 -0 -2.82457e-05)
(0 -0 -2.83776e-05)
(0 -0 -2.83938e-05)
(0 -0 -2.8312e-05)
(0 -0 -2.81487e-05)
(0 -0 -2.79186e-05)
(0 -0 -2.76345e-05)
(0 -0 -2.73072e-05)
(0 -0 -2.69455e-05)
(0 -0 -2.65563e-05)
(0 -0 -2.61452e-05)
(0 -0 -2.57165e-05)
(0 -0 -2.52739e-05)
(0 -0 -2.48204e-05)
(0 -0 -2.43592e-05)
(0 -0 -2.38934e-05)
(0 -0 -2.34256e-05)
(0 -0 -2.29581e-05)
(0 -0 -2.24926e-05)
(0 -0 -2.203e-05)
(0 -0 -2.15715e-05)
(0 -0 -2.11174e-05)
(0 -0 -2.06695e-05)
(0 -0 -2.0227e-05)
(0 -0 -1.97933e-05)
(0 -0 -1.93642e-05)
(0 -0 -1.8946e-05)
(0 -0 -1.8527e-05)
(0 -0 -1.81248e-05)
(0 -0 -1.77132e-05)
(0 -0 -1.73346e-05)
(0 -0 -1.69289e-05)
(0 -0 -1.65863e-05)
(0 -0 -1.61768e-05)
(0 -0 -1.58848e-05)
(0 -0 -1.54498e-05)
(0 -0 -1.523e-05)
(0 -0 -1.47384e-05)
(0 -0 -1.46245e-05)
(0 -0 -1.40323e-05)
(0 -0 -1.40601e-05)
(0 -0 -1.33139e-05)
(0 -0 -1.35066e-05)
(0 -0 -1.26112e-05)
(0 -0 -1.28295e-05)
(0 -0 -1.22467e-05)
(0 -0 -1.13548e-05)
(0 -0 -1.30295e-05)
(0 -0 -9.25245e-06)
(0 -0 -1.15287e-05)
(0 -0 -1.25483e-05)
(0 -0 -8.78451e-06)
(0 -0 -1.24222e-06)
(0 -0 -2.21904e-05)
(0 -0 -2.33853e-06)
(0 -0 -3.25607e-06)
(0 -0 -4.6169e-06)
(0 -0 -6.36913e-06)
(0 -0 -8.34555e-06)
(0 -0 -1.04524e-05)
(0 -0 -1.25992e-05)
(0 -0 -1.46977e-05)
(0 -0 -1.66723e-05)
(0 -0 -1.8468e-05)
(0 -0 -2.00523e-05)
(0 -0 -2.14131e-05)
(0 -0 -2.25529e-05)
(0 -0 -2.34832e-05)
(0 -0 -2.4219e-05)
(0 -0 -2.47773e-05)
(0 -0 -2.51755e-05)
(0 -0 -2.54313e-05)
(0 -0 -2.55626e-05)
(0 -0 -2.55869e-05)
(0 -0 -2.55209e-05)
(0 -0 -2.53797e-05)
(0 -0 -2.51771e-05)
(0 -0 -2.4925e-05)
(0 -0 -2.46333e-05)
(0 -0 -2.43102e-05)
(0 -0 -2.39621e-05)
(0 -0 -2.35941e-05)
(0 -0 -2.32102e-05)
(0 -0 -2.28137e-05)
(0 -0 -2.24077e-05)
(0 -0 -2.19949e-05)
(0 -0 -2.15781e-05)
(0 -0 -2.11597e-05)
(0 -0 -2.07417e-05)
(0 -0 -2.03256e-05)
(0 -0 -1.99124e-05)
(0 -0 -1.95031e-05)
(0 -0 -1.90979e-05)
(0 -0 -1.86987e-05)
(0 -0 -1.83044e-05)
(0 -0 -1.79185e-05)
(0 -0 -1.75365e-05)
(0 -0 -1.71648e-05)
(0 -0 -1.6792e-05)
(0 -0 -1.64352e-05)
(0 -0 -1.60689e-05)
(0 -0 -1.57342e-05)
(0 -0 -1.53724e-05)
(0 -0 -1.50713e-05)
(0 -0 -1.47043e-05)
(0 -0 -1.4451e-05)
(0 -0 -1.4058e-05)
(0 -0 -1.38735e-05)
(0 -0 -1.34248e-05)
(0 -0 -1.33415e-05)
(0 -0 -1.27956e-05)
(0 -0 -1.28475e-05)
(0 -0 -1.21549e-05)
(0 -0 -1.23641e-05)
(0 -0 -1.15239e-05)
(0 -0 -1.17904e-05)
(0 -0 -1.11239e-05)
(0 -0 -1.06992e-05)
(0 -0 -1.13362e-05)
(0 -0 -9.65619e-06)
(0 -0 -9.14564e-06)
(0 -0 -1.25518e-05)
(0 -0 -8.52078e-06)
(0 -0 1.29891e-08)
(0 -0 -2.09127e-05)
(0 -0 -2.07889e-06)
(0 -0 -2.75133e-06)
(0 -0 -3.85898e-06)
(0 -0 -5.3584e-06)
(0 -0 -7.08936e-06)
(0 -0 -8.96466e-06)
(0 -0 -1.08989e-05)
(0 -0 -1.28068e-05)
(0 -0 -1.46144e-05)
(0 -0 -1.62667e-05)
(0 -0 -1.77304e-05)
(0 -0 -1.89918e-05)
(0 -0 -2.00519e-05)
(0 -0 -2.09197e-05)
(0 -0 -2.16087e-05)
(0 -0 -2.21338e-05)
(0 -0 -2.25111e-05)
(0 -0 -2.27567e-05)
(0 -0 -2.28874e-05)
(0 -0 -2.29193e-05)
(0 -0 -2.2868e-05)
(0 -0 -2.27477e-05)
(0 -0 -2.2571e-05)
(0 -0 -2.23491e-05)
(0 -0 -2.2091e-05)
(0 -0 -2.18042e-05)
(0 -0 -2.14948e-05)
(0 -0 -2.11674e-05)
(0 -0 -2.08257e-05)
(0 -0 -2.04729e-05)
(0 -0 -2.01116e-05)
(0 -0 -1.97444e-05)
(0 -0 -1.93737e-05)
(0 -0 -1.90018e-05)
(0 -0 -1.86303e-05)
(0 -0 -1.82608e-05)
(0 -0 -1.7894e-05)
(0 -0 -1.7531e-05)
(0 -0 -1.71719e-05)
(0 -0 -1.68184e-05)
(0 -0 -1.64695e-05)
(0 -0 -1.61284e-05)
(0 -0 -1.57907e-05)
(0 -0 -1.54627e-05)
(0 -0 -1.51332e-05)
(0 -0 -1.48191e-05)
(0 -0 -1.44952e-05)
(0 -0 -1.42017e-05)
(0 -0 -1.38811e-05)
(0 -0 -1.3619e-05)
(0 -0 -1.32919e-05)
(0 -0 -1.30746e-05)
(0 -0 -1.27212e-05)
(0 -0 -1.25696e-05)
(0 -0 -1.21614e-05)
(0 -0 -1.21064e-05)
(0 -0 -1.16041e-05)
(0 -0 -1.16781e-05)
(0 -0 -1.10366e-05)
(0 -0 -1.12599e-05)
(0 -0 -1.04734e-05)
(0 -0 -1.07815e-05)
(0 -0 -1.00446e-05)
(0 -0 -1.00401e-05)
(0 -0 -9.74243e-06)
(0 -0 -9.96016e-06)
(0 -0 -6.93041e-06)
(0 -0 -1.24999e-05)
(0 -0 -8.20734e-06)
(0 -0 1.15536e-06)
(0 -0 -1.967e-05)
(0 -0 -1.82694e-06)
(0 -0 -2.26733e-06)
(0 -0 -3.13542e-06)
(0 -0 -4.39586e-06)
(0 -0 -5.8953e-06)
(0 -0 -7.5527e-06)
(0 -0 -9.28729e-06)
(0 -0 -1.10166e-05)
(0 -0 -1.26678e-05)
(0 -0 -1.41861e-05)
(0 -0 -1.55372e-05)
(0 -0 -1.6706e-05)
(0 -0 -1.76915e-05)
(0 -0 -1.85011e-05)
(0 -0 -1.91463e-05)
(0 -0 -1.96405e-05)
(0 -0 -1.99982e-05)
(0 -0 -2.02343e-05)
(0 -0 -2.03643e-05)
(0 -0 -2.04033e-05)
(0 -0 -2.03658e-05)
(0 -0 -2.02649e-05)
(0 -0 -2.01125e-05)
(0 -0 -1.99187e-05)
(0 -0 -1.9692e-05)
(0 -0 -1.94392e-05)
(0 -0 -1.91659e-05)
(0 -0 -1.88764e-05)
(0 -0 -1.85742e-05)
(0 -0 -1.8262e-05)
(0 -0 -1.79424e-05)
(0 -0 -1.76177e-05)
(0 -0 -1.729e-05)
(0 -0 -1.69614e-05)
(0 -0 -1.66334e-05)
(0 -0 -1.63073e-05)
(0 -0 -1.59837e-05)
(0 -0 -1.56638e-05)
(0 -0 -1.53475e-05)
(0 -0 -1.50366e-05)
(0 -0 -1.473e-05)
(0 -0 -1.44305e-05)
(0 -0 -1.41339e-05)
(0 -0 -1.38465e-05)
(0 -0 -1.35573e-05)
(0 -0 -1.32827e-05)
(0 -0 -1.29983e-05)
(0 -0 -1.2743e-05)
(0 -0 -1.24607e-05)
(0 -0 -1.22346e-05)
(0 -0 -1.19447e-05)
(0 -0 -1.17608e-05)
(0 -0 -1.14442e-05)
(0 -0 -1.13228e-05)
(0 -0 -1.09524e-05)
(0 -0 -1.09233e-05)
(0 -0 -1.0462e-05)
(0 -0 -1.05556e-05)
(0 -0 -9.96245e-06)
(0 -0 -1.01974e-05)
(0 -0 -9.46302e-06)
(0 -0 -9.80576e-06)
(0 -0 -9.01188e-06)
(0 -0 -9.37829e-06)
(0 -0 -8.25404e-06)
(0 -0 -1.01595e-05)
(0 -0 -4.89285e-06)
(0 -0 -1.23891e-05)
(0 -0 -7.8424e-06)
(0 -0 2.18063e-06)
(0 -0 -1.84637e-05)
(0 -0 -1.57935e-06)
(0 -0 -1.80176e-06)
(0 -0 -2.445e-06)
(0 -0 -3.48163e-06)
(0 -0 -4.76482e-06)
(0 -0 -6.21926e-06)
(0 -0 -7.76835e-06)
(0 -0 -9.33202e-06)
(0 -0 -1.08387e-05)
(0 -0 -1.22332e-05)
(0 -0 -1.34805e-05)
(0 -0 -1.45639e-05)
(0 -0 -1.54807e-05)
(0 -0 -1.62366e-05)
(0 -0 -1.68414e-05)
(0 -0 -1.73071e-05)
(0 -0 -1.76467e-05)
(0 -0 -1.7874e-05)
(0 -0 -1.80035e-05)
(0 -0 -1.8049e-05)
(0 -0 -1.80243e-05)
(0 -0 -1.79415e-05)
(0 -0 -1.78115e-05)
(0 -0 -1.76438e-05)
(0 -0 -1.74461e-05)
(0 -0 -1.72248e-05)
(0 -0 -1.69849e-05)
(0 -0 -1.67304e-05)
(0 -0 -1.64645e-05)
(0 -0 -1.61899e-05)
(0 -0 -1.59088e-05)
(0 -0 -1.56232e-05)
(0 -0 -1.53353e-05)
(0 -0 -1.50467e-05)
(0 -0 -1.47587e-05)
(0 -0 -1.44726e-05)
(0 -0 -1.41889e-05)
(0 -0 -1.39086e-05)
(0 -0 -1.36319e-05)
(0 -0 -1.33602e-05)
(0 -0 -1.30924e-05)
(0 -0 -1.28312e-05)
(0 -0 -1.25725e-05)
(0 -0 -1.23224e-05)
(0 -0 -1.20702e-05)
(0 -0 -1.1832e-05)
(0 -0 -1.15838e-05)
(0 -0 -1.13635e-05)
(0 -0 -1.11165e-05)
(0 -0 -1.09234e-05)
(0 -0 -1.06677e-05)
(0 -0 -1.05143e-05)
(0 -0 -1.02316e-05)
(0 -0 -1.01378e-05)
(0 -0 -9.80237e-06)
(0 -0 -9.79646e-06)
(0 -0 -9.3735e-06)
(0 -0 -9.48427e-06)
(0 -0 -8.93652e-06)
(0 -0 -9.18063e-06)
(0 -0 -8.49635e-06)
(0 -0 -8.86671e-06)
(0 -0 -8.02936e-06)
(0 -0 -8.71638e-06)
(0 -0 -6.87577e-06)
(0 -0 -1.02538e-05)
(0 -0 -3.03956e-06)
(0 -0 -1.2219e-05)
(0 -0 -7.42748e-06)
(0 -0 3.08625e-06)
(0 -0 -1.72962e-05)
(0 -0 -1.33583e-06)
(0 -0 -1.35481e-06)
(0 -0 -1.7886e-06)
(0 -0 -2.61738e-06)
(0 -0 -3.70035e-06)
(0 -0 -4.96752e-06)
(0 -0 -6.34599e-06)
(0 -0 -7.75787e-06)
(0 -0 -9.13228e-06)
(0 -0 -1.04139e-05)
(0 -0 -1.15665e-05)
(0 -0 -1.25721e-05)
(0 -0 -1.34264e-05)
(0 -0 -1.41334e-05)
(0 -0 -1.47015e-05)
(0 -0 -1.51412e-05)
(0 -0 -1.54643e-05)
(0 -0 -1.56837e-05)
(0 -0 -1.58127e-05)
(0 -0 -1.58643e-05)
(0 -0 -1.58513e-05)
(0 -0 -1.5785e-05)
(0 -0 -1.56757e-05)
(0 -0 -1.55318e-05)
(0 -0 -1.53607e-05)
(0 -0 -1.51681e-05)
(0 -0 -1.49588e-05)
(0 -0 -1.47363e-05)
(0 -0 -1.45037e-05)
(0 -0 -1.42634e-05)
(0 -0 -1.40175e-05)
(0 -0 -1.37678e-05)
(0 -0 -1.35161e-05)
(0 -0 -1.3264e-05)
(0 -0 -1.30126e-05)
(0 -0 -1.2763e-05)
(0 -0 -1.25156e-05)
(0 -0 -1.22716e-05)
(0 -0 -1.20309e-05)
(0 -0 -1.17949e-05)
(0 -0 -1.15624e-05)
(0 -0 -1.13362e-05)
(0 -0 -1.11119e-05)
(0 -0 -1.08957e-05)
(0 -0 -1.06772e-05)
(0 -0 -1.0472e-05)
(0 -0 -1.02568e-05)
(0 -0 -1.00684e-05)
(0 -0 -9.85336e-06)
(0 -0 -9.69024e-06)
(0 -0 -9.46558e-06)
(0 -0 -9.3398e-06)
(0 -0 -9.08819e-06)
(0 -0 -9.01902e-06)
(0 -0 -8.71576e-06)
(0 -0 -8.73039e-06)
(0 -0 -8.34281e-06)
(0 -0 -8.46822e-06)
(0 -0 -7.96291e-06)
(0 -0 -8.21362e-06)
(0 -0 -7.57737e-06)
(0 -0 -7.9684e-06)
(0 -0 -7.10071e-06)
(0 -0 -8.05837e-06)
(0 -0 -5.61101e-06)
(0 -0 -1.02468e-05)
(0 -0 -1.37399e-06)
(0 -0 -1.19922e-05)
(0 -0 -6.96715e-06)
(0 -0 3.87141e-06)
(0 -0 -1.61703e-05)
(0 -0 -1.09888e-06)
(0 -0 -9.29089e-07)
(0 -0 -1.16907e-06)
(0 -0 -1.80619e-06)
(0 -0 -2.70527e-06)
(0 -0 -3.80119e-06)
(0 -0 -5.02427e-06)
(0 -0 -6.2984e-06)
(0 -0 -7.55319e-06)
(0 -0 -8.73284e-06)
(0 -0 -9.80019e-06)
(0 -0 -1.07358e-05)
(0 -0 -1.15338e-05)
(0 -0 -1.21969e-05)
(0 -0 -1.27319e-05)
(0 -0 -1.31482e-05)
(0 -0 -1.34565e-05)
(0 -0 -1.36688e-05)
(0 -0 -1.37973e-05)
(0 -0 -1.38545e-05)
(0 -0 -1.38522e-05)
(0 -0 -1.38009e-05)
(0 -0 -1.37103e-05)
(0 -0 -1.35881e-05)
(0 -0 -1.3441e-05)
(0 -0 -1.32745e-05)
(0 -0 -1.30928e-05)
(0 -0 -1.28994e-05)
(0 -0 -1.26968e-05)
(0 -0 -1.24875e-05)
(0 -0 -1.22734e-05)
(0 -0 -1.20561e-05)
(0 -0 -1.18372e-05)
(0 -0 -1.16181e-05)
(0 -0 -1.13997e-05)
(0 -0 -1.1183e-05)
(0 -0 -1.09684e-05)
(0 -0 -1.07571e-05)
(0 -0 -1.05489e-05)
(0 -0 -1.03451e-05)
(0 -0 -1.01445e-05)
(0 -0 -9.94964e-06)
(0 -0 -9.75644e-06)
(0 -0 -9.57074e-06)
(0 -0 -9.38255e-06)
(0 -0 -9.20709e-06)
(0 -0 -9.02157e-06)
(0 -0 -8.86167e-06)
(0 -0 -8.6755e-06)
(0 -0 -8.53922e-06)
(0 -0 -8.34265e-06)
(0 -0 -8.24152e-06)
(0 -0 -8.01799e-06)
(0 -0 -7.97072e-06)
(0 -0 -7.69673e-06)
(0 -0 -7.72923e-06)
(0 -0 -7.37416e-06)
(0 -0 -7.51166e-06)
(0 -0 -7.0458e-06)
(0 -0 -7.30059e-06)
(0 -0 -6.71016e-06)
(0 -0 -7.11515e-06)
(0 -0 -6.2296e-06)
(0 -0 -7.40937e-06)
(0 -0 -4.4618e-06)
(0 -0 -1.01457e-05)
(0 -0 1.03415e-07)
(0 -0 -1.17137e-05)
(0 -0 -6.46848e-06)
(0 -0 4.53693e-06)
(0 -0 -1.50894e-05)
(0 -0 -8.73497e-07)
(0 -0 -5.29339e-07)
(0 -0 -5.9093e-07)
(0 -0 -1.05235e-06)
(0 -0 -1.78375e-06)
(0 -0 -2.72428e-06)
(0 -0 -3.80708e-06)
(0 -0 -4.95739e-06)
(0 -0 -6.10505e-06)
(0 -0 -7.19368e-06)
(0 -0 -8.18503e-06)
(0 -0 -9.05833e-06)
(0 -0 -9.80632e-06)
(0 -0 -1.04302e-05)
(0 -0 -1.09357e-05)
(0 -0 -1.13312e-05)
(0 -0 -1.16263e-05)
(0 -0 -1.18322e-05)
(0 -0 -1.19604e-05)
(0 -0 -1.20226e-05)
(0 -0 -1.20298e-05)
(0 -0 -1.19921e-05)
(0 -0 -1.19181e-05)
(0 -0 -1.18154e-05)
(0 -0 -1.16899e-05)
(0 -0 -1.15467e-05)
(0 -0 -1.13898e-05)
(0 -0 -1.12222e-05)
(0 -0 -1.10466e-05)
(0 -0 -1.08651e-05)
(0 -0 -1.06793e-05)
(0 -0 -1.0491e-05)
(0 -0 -1.03014e-05)
(0 -0 -1.01117e-05)
(0 -0 -9.92285e-06)
(0 -0 -9.73556e-06)
(0 -0 -9.55035e-06)
(0 -0 -9.36813e-06)
(0 -0 -9.18889e-06)
(0 -0 -9.01383e-06)
(0 -0 -8.84168e-06)
(0 -0 -8.6748e-06)
(0 -0 -8.50924e-06)
(0 -0 -8.3507e-06)
(0 -0 -8.18951e-06)
(0 -0 -8.04048e-06)
(0 -0 -7.88138e-06)
(0 -0 -7.74687e-06)
(0 -0 -7.58638e-06)
(0 -0 -7.47389e-06)
(0 -0 -7.3024e-06)
(0 -0 -7.22303e-06)
(0 -0 -7.0247e-06)
(0 -0 -6.99657e-06)
(0 -0 -6.74903e-06)
(0 -0 -6.79679e-06)
(0 -0 -6.4714e-06)
(0 -0 -6.61852e-06)
(0 -0 -6.18914e-06)
(0 -0 -6.44557e-06)
(0 -0 -5.89869e-06)
(0 -0 -6.3113e-06)
(0 -0 -5.41948e-06)
(0 -0 -6.77525e-06)
(0 -0 -3.4288e-06)
(0 -0 -9.96077e-06)
(0 -0 1.39498e-06)
(0 -0 -1.13907e-05)
(0 -0 -5.94048e-06)
(0 -0 5.0852e-06)
(0 -0 -1.40572e-05)
(0 -0 -6.66864e-07)
(0 -0 -1.62087e-07)
(0 -0 -5.99732e-08)
(0 -0 -3.61022e-07)
(0 -0 -9.40301e-07)
(0 -0 -1.74072e-06)
(0 -0 -2.69778e-06)
(0 -0 -3.73772e-06)
(0 -0 -4.79034e-06)
(0 -0 -5.79851e-06)
(0 -0 -6.72284e-06)
(0 -0 -7.54124e-06)
(0 -0 -8.24512e-06)
(0 -0 -8.83446e-06)
(0 -0 -9.31399e-06)
(0 -0 -9.69101e-06)
(0 -0 -9.97451e-06)
(0 -0 -1.01747e-05)
(0 -0 -1.03026e-05)
(0 -0 -1.03692e-05)
(0 -0 -1.03848e-05)
(0 -0 -1.0359e-05)
(0 -0 -1.02998e-05)
(0 -0 -1.02142e-05)
(0 -0 -1.01079e-05)
(0 -0 -9.98533e-06)
(0 -0 -9.85029e-06)
(0 -0 -9.70566e-06)
(0 -0 -9.55384e-06)
(0 -0 -9.3968e-06)
(0 -0 -9.23619e-06)
(0 -0 -9.07344e-06)
(0 -0 -8.90974e-06)
(0 -0 -8.7461e-06)
(0 -0 -8.58325e-06)
(0 -0 -8.42196e-06)
(0 -0 -8.26263e-06)
(0 -0 -8.10616e-06)
(0 -0 -7.9525e-06)
(0 -0 -7.80276e-06)
(0 -0 -7.65566e-06)
(0 -0 -7.51343e-06)
(0 -0 -7.37221e-06)
(0 -0 -7.23759e-06)
(0 -0 -7.10017e-06)
(0 -0 -6.97439e-06)
(0 -0 -6.83857e-06)
(0 -0 -6.72635e-06)
(0 -0 -6.5885e-06)
(0 -0 -6.49685e-06)
(0 -0 -6.34755e-06)
(0 -0 -6.28714e-06)
(0 -0 -6.11125e-06)
(0 -0 -6.09958e-06)
(0 -0 -5.87578e-06)
(0 -0 -5.93625e-06)
(0 -0 -5.63783e-06)
(0 -0 -5.7922e-06)
(0 -0 -5.39639e-06)
(0 -0 -5.65219e-06)
(0 -0 -5.14656e-06)
(0 -0 -5.56095e-06)
(0 -0 -4.67334e-06)
(0 -0 -6.16219e-06)
(0 -0 -2.51134e-06)
(0 -0 -9.70396e-06)
(0 -0 2.50552e-06)
(0 -0 -1.10313e-05)
(0 -0 -5.39348e-06)
(0 -0 5.52007e-06)
(0 -0 -1.30772e-05)
(0 -0 -4.87843e-07)
(0 -0 1.64928e-07)
(0 -0 4.17132e-07)
(0 -0 2.62198e-07)
(0 -0 -1.79413e-07)
(0 -0 -8.54016e-07)
(0 -0 -1.699e-06)
(0 -0 -2.64124e-06)
(0 -0 -3.61022e-06)
(0 -0 -4.54788e-06)
(0 -0 -5.41362e-06)
(0 -0 -6.18409e-06)
(0 -0 -6.84947e-06)
(0 -0 -7.40867e-06)
(0 -0 -7.86543e-06)
(0 -0 -8.22624e-06)
(0 -0 -8.49941e-06)
(0 -0 -8.69454e-06)
(0 -0 -8.82204e-06)
(0 -0 -8.89233e-06)
(0 -0 -8.9153e-06)
(0 -0 -8.89982e-06)
(0 -0 -8.85356e-06)
(0 -0 -8.78296e-06)
(0 -0 -8.69326e-06)
(0 -0 -8.58875e-06)
(0 -0 -8.47283e-06)
(0 -0 -8.34822e-06)
(0 -0 -8.21716e-06)
(0 -0 -8.08153e-06)
(0 -0 -7.94285e-06)
(0 -0 -7.80242e-06)
(0 -0 -7.66132e-06)
(0 -0 -7.52041e-06)
(0 -0 -7.38032e-06)
(0 -0 -7.24172e-06)
(0 -0 -7.105e-06)
(0 -0 -6.971e-06)
(0 -0 -6.83964e-06)
(0 -0 -6.71198e-06)
(0 -0 -6.5867e-06)
(0 -0 -6.46594e-06)
(0 -0 -6.34591e-06)
(0 -0 -6.23211e-06)
(0 -0 -6.11541e-06)
(0 -0 -6.00985e-06)
(0 -0 -5.89431e-06)
(0 -0 -5.80144e-06)
(0 -0 -5.68333e-06)
(0 -0 -5.60971e-06)
(0 -0 -5.47986e-06)
(0 -0 -5.43574e-06)
(0 -0 -5.27965e-06)
(0 -0 -5.28192e-06)
(0 -0 -5.07928e-06)
(0 -0 -5.15007e-06)
(0 -0 -4.87604e-06)
(0 -0 -5.03541e-06)
(0 -0 -4.67041e-06)
(0 -0 -4.92348e-06)
(0 -0 -4.45678e-06)
(0 -0 -4.86767e-06)
(0 -0 -3.99353e-06)
(0 -0 -5.57634e-06)
(0 -0 -1.70741e-06)
(0 -0 -9.38859e-06)
(0 -0 3.44202e-06)
(0 -0 -1.06447e-05)
(0 -0 -4.83843e-06)
(0 -0 5.84669e-06)
(0 -0 -1.21527e-05)
(0 -0 -3.46341e-07)
(0 -0 4.43238e-07)
(0 -0 8.33312e-07)
(0 -0 8.11743e-07)
(0 -0 4.94765e-07)
(0 -0 -6.69507e-08)
(0 -0 -8.1232e-07)
(0 -0 -1.66845e-06)
(0 -0 -2.56424e-06)
(0 -0 -3.44054e-06)
(0 -0 -4.25549e-06)
(0 -0 -4.9845e-06)
(0 -0 -5.61655e-06)
(0 -0 -6.14959e-06)
(0 -0 -6.58652e-06)
(0 -0 -6.93313e-06)
(0 -0 -7.19716e-06)
(0 -0 -7.38772e-06)
(0 -0 -7.5147e-06)
(0 -0 -7.58805e-06)
(0 -0 -7.6172e-06)
(0 -0 -7.61056e-06)
(0 -0 -7.57534e-06)
(0 -0 -7.51761e-06)
(0 -0 -7.44226e-06)
(0 -0 -7.35327e-06)
(0 -0 -7.25383e-06)
(0 -0 -7.14646e-06)
(0 -0 -7.0333e-06)
(0 -0 -6.91612e-06)
(0 -0 -6.79634e-06)
(0 -0 -6.67516e-06)
(0 -0 -6.55354e-06)
(0 -0 -6.43223e-06)
(0 -0 -6.31176e-06)
(0 -0 -6.19276e-06)
(0 -0 -6.07554e-06)
(0 -0 -5.96092e-06)
(0 -0 -5.8488e-06)
(0 -0 -5.74014e-06)
(0 -0 -5.63365e-06)
(0 -0 -5.53137e-06)
(0 -0 -5.42957e-06)
(0 -0 -5.33368e-06)
(0 -0 -5.23481e-06)
(0 -0 -5.14662e-06)
(0 -0 -5.04856e-06)
(0 -0 -4.97229e-06)
(0 -0 -4.87122e-06)
(0 -0 -4.81299e-06)
(0 -0 -4.70001e-06)
(0 -0 -4.6697e-06)
(0 -0 -4.53095e-06)
(0 -0 -4.54479e-06)
(0 -0 -4.36091e-06)
(0 -0 -4.43979e-06)
(0 -0 -4.18772e-06)
(0 -0 -4.35001e-06)
(0 -0 -4.01321e-06)
(0 -0 -4.26166e-06)
(0 -0 -3.83157e-06)
(0 -0 -4.23433e-06)
(0 -0 -3.38164e-06)
(0 -0 -5.02344e-06)
(0 -0 -1.0138e-06)
(0 -0 -9.02842e-06)
(0 -0 4.21326e-06)
(0 -0 -1.02401e-05)
(0 -0 -4.28631e-06)
(0 -0 6.07134e-06)
(0 -0 -1.12865e-05)
(0 -0 -2.52816e-07)
(0 -0 6.63862e-07)
(0 -0 1.18134e-06)
(0 -0 1.28233e-06)
(0 -0 1.07882e-06)
(0 -0 6.18752e-07)
(0 -0 -3.79378e-08)
(0 -0 -8.18261e-07)
(0 -0 -1.65024e-06)
(0 -0 -2.47343e-06)
(0 -0 -3.24467e-06)
(0 -0 -3.93804e-06)
(0 -0 -4.54143e-06)
(0 -0 -5.05192e-06)
(0 -0 -5.47167e-06)
(0 -0 -5.80586e-06)
(0 -0 -6.06179e-06)
(0 -0 -6.24816e-06)
(0 -0 -6.37443e-06)
(0 -0 -6.45016e-06)
(0 -0 -6.4844e-06)
(0 -0 -6.48512e-06)
(0 -0 -6.45918e-06)
(0 -0 -6.41235e-06)
(0 -0 -6.34913e-06)
(0 -0 -6.2733e-06)
(0 -0 -6.18786e-06)
(0 -0 -6.09513e-06)
(0 -0 -5.99718e-06)
(0 -0 -5.89568e-06)
(0 -0 -5.79196e-06)
(0 -0 -5.68716e-06)
(0 -0 -5.58213e-06)
(0 -0 -5.4775e-06)
(0 -0 -5.37376e-06)
(0 -0 -5.27146e-06)
(0 -0 -5.17086e-06)
(0 -0 -5.07274e-06)
(0 -0 -4.97699e-06)
(0 -0 -4.88451e-06)
(0 -0 -4.794e-06)
(0 -0 -4.70741e-06)
(0 -0 -4.62112e-06)
(0 -0 -4.54043e-06)
(0 -0 -4.45674e-06)
(0 -0 -4.3833e-06)
(0 -0 -4.30013e-06)
(0 -0 -4.23791e-06)
(0 -0 -4.15137e-06)
(0 -0 -4.10611e-06)
(0 -0 -4.00763e-06)
(0 -0 -3.98883e-06)
(0 -0 -3.86514e-06)
(0 -0 -3.88837e-06)
(0 -0 -3.72103e-06)
(0 -0 -3.80594e-06)
(0 -0 -3.5736e-06)
(0 -0 -3.73694e-06)
(0 -0 -3.42588e-06)
(0 -0 -3.66804e-06)
(0 -0 -3.2723e-06)
(0 -0 -3.66294e-06)
(0 -0 -2.83835e-06)
(0 -0 -4.50851e-06)
(0 -0 -4.26186e-07)
(0 -0 -8.63696e-06)
(0 -0 4.82944e-06)
(0 -0 -9.82627e-06)
(0 -0 -3.74757e-06)
(0 -0 6.20121e-06)
(0 -0 -1.04807e-05)
(0 -0 -2.18094e-07)
(0 -0 8.17223e-07)
(0 -0 1.45386e-06)
(0 -0 1.66905e-06)
(0 -0 1.57016e-06)
(0 -0 1.20251e-06)
(0 -0 6.25282e-07)
(0 -0 -8.80751e-08)
(0 -0 -8.64414e-07)
(0 -0 -1.64178e-06)
(0 -0 -2.37554e-06)
(0 -0 -3.03849e-06)
(0 -0 -3.61734e-06)
(0 -0 -4.10848e-06)
(0 -0 -4.51338e-06)
(0 -0 -4.8367e-06)
(0 -0 -5.08542e-06)
(0 -0 -5.2679e-06)
(0 -0 -5.39325e-06)
(0 -0 -5.47069e-06)
(0 -0 -5.50898e-06)
(0 -0 -5.51567e-06)
(0 -0 -5.49737e-06)
(0 -0 -5.45959e-06)
(0 -0 -5.40646e-06)
(0 -0 -5.34162e-06)
(0 -0 -5.2679e-06)
(0 -0 -5.18741e-06)
(0 -0 -5.10219e-06)
(0 -0 -5.01382e-06)
(0 -0 -4.92356e-06)
(0 -0 -4.83251e-06)
(0 -0 -4.7414e-06)
(0 -0 -4.65078e-06)
(0 -0 -4.56111e-06)
(0 -0 -4.47286e-06)
(0 -0 -4.38622e-06)
(0 -0 -4.302e-06)
(0 -0 -4.22e-06)
(0 -0 -4.14109e-06)
(0 -0 -4.064e-06)
(0 -0 -3.99056e-06)
(0 -0 -3.91728e-06)
(0 -0 -3.84932e-06)
(0 -0 -3.7784e-06)
(0 -0 -3.71731e-06)
(0 -0 -3.64669e-06)
(0 -0 -3.59619e-06)
(0 -0 -3.52191e-06)
(0 -0 -3.4874e-06)
(0 -0 -3.40125e-06)
(0 -0 -3.39185e-06)
(0 -0 -3.28118e-06)
(0 -0 -3.31182e-06)
(0 -0 -3.159e-06)
(0 -0 -3.24809e-06)
(0 -0 -3.03344e-06)
(0 -0 -3.19611e-06)
(0 -0 -2.90853e-06)
(0 -0 -3.14298e-06)
(0 -0 -2.77935e-06)
(0 -0 -3.15455e-06)
(0 -0 -2.3634e-06)
(0 -0 -4.03567e-06)
(0 -0 6.06989e-08)
(0 -0 -8.22686e-06)
(0 -0 5.30177e-06)
(0 -0 -9.41148e-06)
(0 -0 -3.23163e-06)
(0 -0 6.24419e-06)
(0 -0 -9.73656e-06)
(0 -0 -1.60336e-07)
(0 -0 9.86977e-07)
(0 -0 1.73556e-06)
(0 -0 2.05734e-06)
(0 -0 2.05415e-06)
(0 -0 1.76899e-06)
(0 -0 1.26073e-06)
(0 -0 6.0378e-07)
(0 -0 -1.27187e-07)
(0 -0 -8.68355e-07)
(0 -0 -1.57347e-06)
(0 -0 -2.2139e-06)
(0 -0 -2.77517e-06)
(0 -0 -3.25309e-06)
(0 -0 -3.64841e-06)
(0 -0 -3.96534e-06)
(0 -0 -4.21066e-06)
(0 -0 -4.39246e-06)
(0 -0 -4.51953e-06)
(0 -0 -4.60079e-06)
(0 -0 -4.64482e-06)
(0 -0 -4.65874e-06)
(0 -0 -4.64899e-06)
(0 -0 -4.62091e-06)
(0 -0 -4.57818e-06)
(0 -0 -4.52444e-06)
(0 -0 -4.46234e-06)
(0 -0 -4.39377e-06)
(0 -0 -4.32079e-06)
(0 -0 -4.24489e-06)
(0 -0 -4.16729e-06)
(0 -0 -4.08908e-06)
(0 -0 -4.01084e-06)
(0 -0 -3.93305e-06)
(0 -0 -3.85625e-06)
(0 -0 -3.78074e-06)
(0 -0 -3.70667e-06)
(0 -0 -3.63492e-06)
(0 -0 -3.56516e-06)
(0 -0 -3.49827e-06)
(0 -0 -3.43301e-06)
(0 -0 -3.37108e-06)
(0 -0 -3.30917e-06)
(0 -0 -3.25227e-06)
(0 -0 -3.19242e-06)
(0 -0 -3.14196e-06)
(0 -0 -3.08216e-06)
(0 -0 -3.04165e-06)
(0 -0 -2.97784e-06)
(0 -0 -2.95242e-06)
(0 -0 -2.87678e-06)
(0 -0 -2.87522e-06)
(0 -0 -2.77564e-06)
(0 -0 -2.81234e-06)
(0 -0 -2.67187e-06)
(0 -0 -2.76409e-06)
(0 -0 -2.56455e-06)
(0 -0 -2.72595e-06)
(0 -0 -2.45853e-06)
(0 -0 -2.68537e-06)
(0 -0 -2.34988e-06)
(0 -0 -2.70857e-06)
(0 -0 -1.95565e-06)
(0 -0 -3.60796e-06)
(0 -0 4.52885e-07)
(0 -0 -7.80952e-06)
(0 -0 5.64208e-06)
(0 -0 -9.00279e-06)
(0 -0 -2.74659e-06)
(0 -0 6.2086e-06)
(0 -0 -9.05456e-06)
(0 -0 -2.74805e-08)
(0 -0 1.22626e-06)
(0 -0 2.08029e-06)
(0 -0 2.50165e-06)
(0 -0 2.58483e-06)
(0 -0 2.37121e-06)
(0 -0 1.92e-06)
(0 -0 1.30714e-06)
(0 -0 6.09281e-07)
(0 -0 -1.07481e-07)
(0 -0 -7.95013e-07)
(0 -0 -1.42313e-06)
(0 -0 -1.97602e-06)
(0 -0 -2.44907e-06)
(0 -0 -2.84224e-06)
(0 -0 -3.15933e-06)
(0 -0 -3.40705e-06)
(0 -0 -3.59325e-06)
(0 -0 -3.72648e-06)
(0 -0 -3.81536e-06)
(0 -0 -3.86844e-06)
(0 -0 -3.89233e-06)
(0 -0 -3.89346e-06)
(0 -0 -3.87703e-06)
(0 -0 -3.84624e-06)
(0 -0 -3.80488e-06)
(0 -0 -3.75538e-06)
(0 -0 -3.69938e-06)
(0 -0 -3.6391e-06)
(0 -0 -3.57588e-06)
(0 -0 -3.51094e-06)
(0 -0 -3.4454e-06)
(0 -0 -3.37968e-06)
(0 -0 -3.31421e-06)
(0 -0 -3.24967e-06)
(0 -0 -3.18618e-06)
(0 -0 -3.12383e-06)
(0 -0 -3.06361e-06)
(0 -0 -3.00504e-06)
(0 -0 -2.94907e-06)
(0 -0 -2.89444e-06)
(0 -0 -2.84278e-06)
(0 -0 -2.79097e-06)
(0 -0 -2.74379e-06)
(0 -0 -2.69366e-06)
(0 -0 -2.65243e-06)
(0 -0 -2.60204e-06)
(0 -0 -2.57005e-06)
(0 -0 -2.5152e-06)
(0 -0 -2.49747e-06)
(0 -0 -2.43075e-06)
(0 -0 -2.43569e-06)
(0 -0 -2.34553e-06)
(0 -0 -2.38714e-06)
(0 -0 -2.25706e-06)
(0 -0 -2.35157e-06)
(0 -0 -2.16478e-06)
(0 -0 -2.32449e-06)
(0 -0 -2.07415e-06)
(0 -0 -2.29363e-06)
(0 -0 -1.98244e-06)
(0 -0 -2.32392e-06)
(0 -0 -1.60975e-06)
(0 -0 -3.22629e-06)
(0 -0 7.61014e-07)
(0 -0 -7.39295e-06)
(0 -0 5.8678e-06)
(0 -0 -8.60265e-06)
(0 -0 -2.29217e-06)
(0 -0 6.10904e-06)
(0 -0 -8.42429e-06)
(0 -0 1.74075e-07)
(0 -0 1.53046e-06)
(0 -0 2.48898e-06)
(0 -0 3.0054e-06)
(0 -0 3.16843e-06)
(0 -0 3.01758e-06)
(0 -0 2.61285e-06)
(0 -0 2.0327e-06)
(0 -0 1.35687e-06)
(0 -0 6.53053e-07)
(0 -0 -2.72968e-08)
(0 -0 -6.53021e-07)
(0 -0 -1.20744e-06)
(0 -0 -1.6836e-06)
(0 -0 -2.08176e-06)
(0 -0 -2.40636e-06)
(0 -0 -2.66254e-06)
(0 -0 -2.85796e-06)
(0 -0 -3.00216e-06)
(0 -0 -3.10274e-06)
(0 -0 -3.16778e-06)
(0 -0 -3.20515e-06)
(0 -0 -3.21995e-06)
(0 -0 -3.2167e-06)
(0 -0 -3.20016e-06)
(0 -0 -3.17282e-06)
(0 -0 -3.13653e-06)
(0 -0 -3.09443e-06)
(0 -0 -3.04775e-06)
(0 -0 -2.99748e-06)
(0 -0 -2.94575e-06)
(0 -0 -2.89263e-06)
(0 -0 -2.83926e-06)
(0 -0 -2.78653e-06)
(0 -0 -2.73341e-06)
(0 -0 -2.68148e-06)
(0 -0 -2.63081e-06)
(0 -0 -2.58084e-06)
(0 -0 -2.53294e-06)
(0 -0 -2.48696e-06)
(0 -0 -2.44166e-06)
(0 -0 -2.39978e-06)
(0 -0 -2.35655e-06)
(0 -0 -2.31837e-06)
(0 -0 -2.27664e-06)
(0 -0 -2.24365e-06)
(0 -0 -2.20119e-06)
(0 -0 -2.17675e-06)
(0 -0 -2.12946e-06)
(0 -0 -2.1181e-06)
(0 -0 -2.05909e-06)
(0 -0 -2.06951e-06)
(0 -0 -1.98738e-06)
(0 -0 -2.03261e-06)
(0 -0 -1.91132e-06)
(0 -0 -2.00741e-06)
(0 -0 -1.83104e-06)
(0 -0 -1.98906e-06)
(0 -0 -1.7528e-06)
(0 -0 -1.96526e-06)
(0 -0 -1.67476e-06)
(0 -0 -1.99948e-06)
(0 -0 -1.32341e-06)
(0 -0 -2.89143e-06)
(0 -0 9.92014e-07)
(0 -0 -6.98524e-06)
(0 -0 5.99087e-06)
(0 -0 -8.21554e-06)
(0 -0 -1.87341e-06)
(0 -0 5.95395e-06)
(0 -0 -7.84286e-06)
(0 -0 -1.09316e-06)
(0 -0 -2.60287e-06)
(0 -0 1.15293e-06)
(0 -0 -6.59218e-06)
(0 -0 6.0226e-06)
(0 -0 -7.84437e-06)
(0 -0 -1.49322e-06)
(0 -0 5.75144e-06)
(0 -0 -7.3073e-06)
(0 -0 -1.47604e-06)
(0 -0 -1.69419e-06)
(0 -0 -1.90412e-06)
(0 -0 -2.09926e-06)
(0 -0 -2.27705e-06)
(0 -0 -2.43544e-06)
(0 -0 -2.57371e-06)
(0 -0 -2.692e-06)
(0 -0 -2.79115e-06)
(0 -0 -2.87239e-06)
(0 -0 -2.93717e-06)
(0 -0 -2.98705e-06)
(0 -0 -3.02365e-06)
(0 -0 -3.04851e-06)
(0 -0 -3.06306e-06)
(0 -0 -3.06859e-06)
(0 -0 -3.06631e-06)
(0 -0 -3.05728e-06)
(0 -0 -3.04239e-06)
(0 -0 -3.02247e-06)
(0 -0 -2.99826e-06)
(0 -0 -2.97038e-06)
(0 -0 -2.93937e-06)
(0 -0 -2.90568e-06)
(0 -0 -2.86973e-06)
(0 -0 -2.83187e-06)
(0 -0 -2.79245e-06)
(0 -0 -2.75176e-06)
(0 -0 -2.71011e-06)
(0 -0 -2.66769e-06)
(0 -0 -2.62467e-06)
(0 -0 -2.58119e-06)
(0 -0 -2.53737e-06)
(0 -0 -2.49332e-06)
(0 -0 -2.44914e-06)
(0 -0 -2.40498e-06)
(0 -0 -2.36094e-06)