/*--------------------------------*- C++ -*----------------------------------*\
| =========                 |                                                 |
| \\      /  F ield         | OpenFOAM: The Open Source CFD Toolbox           |
|  \\    /   O peration     | Version:  2412                                  |
|   \\  /    A nd           | Website:  www.openfoam.com                      |
|    \\/     M anipulation  |                                                 |
\*---------------------------------------------------------------------------*/
FoamFile
{
    version     2.0;
    format      ascii;
    arch        "LSB;label=32;scalar=64";
    class       surfaceScalarField;
    location    "23";
    object      phi;
}
// * * * * * * * * * * * * * * * * * * * * * * * * * * * * * * * * * * * * * //

dimensions      [0 3 -1 0 0 0 0];

oriented        oriented;

internalField   nonuniform List<scalar> 
10421
(
0.00109528
-0.000138567
2.47662e-08
0.00123565
-0.000140406
2.74118e-08
0.0013771
-0.00014147
2.94178e-08
0.00151887
-0.000141807
2.97868e-08
0.00166031
-0.000141467
2.92646e-08
0.00180078
-0.000140497
2.79907e-08
0.0019397
-0.000138947
2.62695e-08
0.00207654
-0.000136866
2.43362e-08
0.00221082
-0.000134304
2.23323e-08
0.00234211
-0.000131311
2.03294e-08
0.00247003
-0.000127935
1.83494e-08
0.00259424
-0.000124225
1.63925e-08
0.00271446
-0.00012023
1.44519e-08
0.00283044
-0.000115995
1.25174e-08
0.00294199
-0.000111566
1.05853e-08
0.00304897
-0.000106985
8.65688e-09
0.00315126
-0.000102294
6.73872e-09
0.00324878
-9.7531e-05
4.84485e-09
0.00334151
-9.27314e-05
2.99148e-09
0.00342944
-8.79287e-05
1.19902e-09
0.00351259
-8.31532e-05
-5.0718e-10
0.00359103
-7.84324e-05
-2.10345e-09
0.00366482
-7.37908e-05
-3.56551e-09
0.00373408
-6.925e-05
-4.86931e-09
0.00379891
-6.48286e-05
-5.99459e-09
0.00385946
-6.05419e-05
-6.92314e-09
0.00391587
-5.64015e-05
-7.64062e-09
-5.24155e-05
0.00396829
-8.14406e-09
0.00111793
-0.000274827
0.00125612
-0.000278593
0.00139547
-0.000280828
0.00153529
-0.000281621
0.00167489
-0.00028107
0.00181366
-0.000279269
0.00195103
-0.000276314
0.00208646
-0.0002723
0.00221948
-0.000267324
0.00234966
-0.000261485
0.0024766
-0.000254878
0.00259998
-0.000247602
0.0027195
-0.00023975
0.00283492
-0.000231415
0.00294604
-0.000222685
0.0030527
-0.000213648
0.00315479
-0.000204383
0.00325222
-0.000194968
0.00334497
-0.000185475
0.00343301
-0.000175969
0.00351637
-0.000166512
0.00359509
-0.000157159
0.00366926
-0.000147958
0.00373896
-0.000138953
0.00380432
-0.000130182
0.00386545
-0.000121675
0.0039225
-0.000113456
-0.000105538
0.00397563
0.00115967
-0.000406732
0.00129368
-0.000412605
0.00142908
-0.000416223
0.00156517
-0.000417712
0.0017013
-0.000417207
0.00183688
-0.000414845
0.00197133
-0.000410764
0.00210413
-0.0004051
0.0022348
-0.000397996
0.00236291
-0.000389593
0.00248807
-0.000380035
0.00260993
-0.000369464
0.0027282
-0.000358019
0.00284262
-0.000345838
0.00295299
-0.000333053
0.00305913
-0.000319791
0.00316093
-0.000306175
0.00325828
-0.00029232
0.00335113
-0.000278331
0.00343947
-0.000264311
0.00352331
-0.000250348
0.00360268
-0.000236528
0.00367764
-0.000222923
0.00374829
-0.000209599
0.00381472
-0.000196613
0.00387706
-0.000184011
0.00393543
-0.000171828
-0.000160083
0.00398997
0.00121397
0.00134222
-0.000540846
0.00147216
-0.000546169
0.00160315
-0.000548702
0.00173456
-0.000548619
0.00186581
-0.00054609
0.00199633
-0.000541286
0.00212561
-0.000534382
0.00225317
-0.000525557
0.00237857
-0.000514995
0.00250142
-0.000502881
0.00262135
-0.0004894
0.00273807
-0.000474735
0.0028513
-0.000459066
0.00296081
-0.000442569
0.00306643
-0.000425411
0.00316801
-0.000407755
0.00326545
-0.000389753
0.00335867
-0.000371549
0.00344763
-0.000353274
0.00353233
-0.000335053
0.0036128
-0.000316995
0.00368908
-0.000299202
0.00376124
-0.000281761
0.00382938
-0.000264749
0.0038936
-0.000248228
0.00395401
-0.000232244
-0.000216819
0.00401075
0.00139386
-0.000662212
0.00151735
-0.000669663
0.00164235
-0.000673702
0.00176826
-0.000674526
0.0018945
-0.000672333
0.00202053
-0.00066732
0.00214584
-0.000659689
0.00226994
-0.000649655
0.00239238
-0.000637436
0.00251276
-0.000623257
0.0026307
-0.000607343
0.00274588
-0.000589917
0.00285802
-0.000571202
0.00296686
-0.000551412
0.00307221
-0.000530758
0.00317389
-0.00050944
0.00327179
-0.000487649
0.0033658
-0.000465564
0.00345588
-0.000443352
0.003542
-0.000421168
0.00362415
-0.000399152
0.00370238
-0.000377431
0.00377674
-0.000356116
0.00384729
-0.000335304
0.00391414
-0.000315076
0.00397739
-0.00029549
-0.000276568
0.00403713
0.00144006
-0.000776137
0.00155664
-0.000786245
0.00167529
-0.000792352
0.00179543
-0.000794671
0.00191651
-0.000793413
0.00203799
-0.000788793
0.00215933
-0.000781037
0.00228007
-0.000770386
0.00239972
-0.000757091
0.00251787
-0.000741409
0.00263413
-0.000723603
0.00274815
-0.000703936
0.00285962
-0.000682669
0.00296826
-0.000660058
0.00307386
-0.000636353
0.00317621
-0.000611793
0.00327517
-0.000586608
0.00337062
-0.000561015
0.00346249
-0.000535215
0.00355071
-0.000509395
0.00363529
-0.000483726
0.00371622
-0.000458362
0.00379354
-0.000433441
0.00386732
-0.00040908
0.00393762
-0.000385379
0.00400454
-0.000362413
-0.000340206
0.00406818
0.00147276
0.00158261
-0.000896086
0.00169515
-0.0009049
0.00180985
-0.000909364
0.00192614
-0.000909701
0.00204348
-0.000906134
0.00216134
-0.000898905
0.00227923
-0.000888276
0.00239667
-0.000874525
0.0025132
-0.000857941
0.00262842
-0.000838821
0.00274194
-0.000817462
0.00285344
-0.000794167
0.00296261
-0.000769229
0.0030692
-0.00074294
0.00317299
-0.000715578
0.00327379
-0.000687412
0.00337147
-0.000658696
0.00346592
-0.000629668
0.00355708
-0.000600551
0.0036449
-0.000571545
0.00372937
-0.000542835
0.00381051
-0.000514583
0.00388837
-0.000486934
0.00396299
-0.000460006
0.00403447
-0.000433891
0.00410291
-0.00040864
0.00402582
-5.75164e-05
-8.49911e-09
0.00408084
-5.50138e-05
-8.8237e-09
0.00413337
-5.25162e-05
-9.02626e-09
0.00418342
-5.0042e-05
-9.09785e-09
0.00423103
-4.76039e-05
-9.01493e-09
0.00427625
-4.52127e-05
-8.76475e-09
0.00431914
-4.28783e-05
-8.34601e-09
0.00435976
-4.06097e-05
-7.76759e-09
0.00439818
-3.84149e-05
-7.04543e-09
0.00443448
-3.63009e-05
-6.20133e-09
0.00446876
-3.42737e-05
-5.26047e-09
0.00450111
-3.2338e-05
-4.2461e-09
0.00453161
-3.04971e-05
-3.18116e-09
0.00456036
-2.87533e-05
-2.08902e-09
0.00458747
-2.71074e-05
-9.90765e-10
0.00461303
-2.5559e-05
9.7957e-11
0.00463713
-2.41066e-05
1.16189e-09
0.00465988
-2.27475e-05
2.1894e-09
0.00468135
-2.14781e-05
3.17436e-09
0.00470164
-2.0294e-05
4.11355e-09
0.00472083
-1.919e-05
5.00446e-09
0.00473898
-1.81601e-05
5.84773e-09
0.00475618
-1.71977e-05
6.646e-09
0.00477246
-1.62958e-05
7.39966e-09
0.0047879
-1.54468e-05
8.10694e-09
0.00480254
-1.46432e-05
8.76484e-09
0.0048164
-1.38776e-05
9.36733e-09
0.00482954
-1.31433e-05
9.90336e-09
0.00484196
-1.24347e-05
1.03602e-08
0.0048537
-1.17481e-05
1.07234e-08
0.00486477
-1.10818e-05
1.09761e-08
0.0048752
-1.04366e-05
1.11039e-08
0.004885
-9.81549e-06
1.10969e-08
0.00489421
-9.22309e-06
1.09497e-08
0.00490287
-8.66485e-06
1.06618e-08
0.004911
-8.14592e-06
1.02429e-08
0.00491866
-7.67007e-06
9.70813e-09
0.00492589
-7.23889e-06
9.0758e-09
0.00493274
-6.85141e-06
8.36952e-09
0.00493923
-6.50427e-06
7.6147e-09
0.00494542
-6.19223e-06
6.83342e-09
0.00495132
-5.90908e-06
6.04562e-09
0.00495696
-5.64845e-06
5.26964e-09
-5.40469e-06
4.52734e-09
0.0040324
-0.000114292
0.00408674
-0.000109349
0.00413864
-0.000104415
0.00418812
-9.95248e-05
0.00423522
-9.47036e-05
0.00427998
-8.9972e-05
0.00432245
-8.53498e-05
0.00436269
-8.0855e-05
0.00440078
-7.6504e-05
0.00443679
-7.2311e-05
0.00447081
-6.8288e-05
0.00450291
-6.44448e-05
0.00453321
-6.07884e-05
0.00456178
-5.73233e-05
0.00458872
-5.40515e-05
0.00461413
-5.09724e-05
0.00463811
-4.80831e-05
0.00466074
-4.53785e-05
0.00468211
-4.28516e-05
0.00470231
-4.04937e-05
0.00472142
-3.82945e-05
0.0047395
-3.62422e-05
0.00475663
-3.4324e-05
0.00477286
-3.25259e-05
0.00478824
-3.0833e-05
0.00480283
-2.92304e-05
0.00481666
-2.77035e-05
0.00482975
-2.6239e-05
0.00484214
-2.48259e-05
0.00485385
-2.34568e-05
0.0048649
-2.21284e-05
0.0048753
-2.08422e-05
0.00488509
-1.96041e-05
0.00489429
-1.84234e-05
0.00490294
-1.73106e-05
0.00491107
-1.6276e-05
0.00491873
-1.5327e-05
0.00492595
-1.44668e-05
0.0049328
-1.36935e-05
0.00493929
-1.30003e-05
0.00494548
-1.2377e-05
0.00495138
-1.18112e-05
0.00495702
-1.12903e-05
-1.0803e-05
0.00404529
-0.000169612
0.00409829
-0.000162347
0.00414897
-0.000155095
0.00419735
-0.000147903
0.00424345
-0.000140804
0.00428731
-0.000133831
0.00432897
-0.000127011
0.00436849
-0.000120373
0.00440593
-0.000113942
0.00444136
-0.000107739
0.00447485
-0.000101783
0.0045065
-9.60891e-05
0.00453638
-9.06685e-05
0.00456458
-8.55283e-05
0.0045912
-8.06719e-05
0.00461633
-7.60988e-05
0.00464005
-7.18051e-05
0.00466245
-6.77836e-05
0.00468363
-6.40244e-05
0.00470365
-6.05146e-05
0.00472259
-5.72393e-05
0.00474053
-5.41815e-05
0.00475753
-5.1322e-05
0.00477364
-4.86405e-05
0.00478893
-4.61151e-05
0.00480342
-4.37239e-05
0.00481716
-4.14453e-05
0.00483018
-3.92597e-05
0.00484251
-3.71511e-05
0.00485416
-3.51083e-05
0.00486516
-3.31266e-05
0.00487552
-3.1208e-05
0.00488528
-2.93613e-05
0.00489446
-2.75997e-05
0.00490309
-2.59392e-05
0.0049112
-2.43946e-05
0.00491885
-2.29769e-05
0.00492608
-2.16907e-05
0.00493292
-2.05334e-05
0.00493941
-1.9495e-05
0.0049456
-1.85603e-05
0.0049515
-1.77112e-05
0.00495713
-1.69291e-05
-1.61975e-05
0.00406398
-0.000222847
0.00411507
-0.000213433
0.00416401
-0.000204033
0.0042108
-0.000194698
0.00425547
-0.000185472
0.00429803
-0.000176394
0.00433853
-0.000167504
0.00437699
-0.00015884
0.00441349
-0.000150436
0.00444807
-0.000142321
0.00448081
-0.000134522
0.00451178
-0.000127059
0.00454106
-0.000119948
0.00456873
-0.000113199
0.00459488
-0.000106818
0.00461958
-0.000100804
0.00464293
-9.51529e-05
0.004665
-8.98563e-05
0.00468588
-8.49014e-05
0.00470564
-8.02719e-05
0.00472435
-7.59486e-05
0.00474207
-7.19096e-05
0.00475888
-6.81303e-05
0.00477483
-6.45841e-05
0.00478995
-6.1243e-05
0.00480431
-5.80784e-05
0.00481792
-5.50622e-05
0.00483083
-5.21692e-05
0.00484306
-4.93782e-05
0.00485463
-4.66747e-05
0.00486555
-4.40526e-05
0.00487586
-4.15143e-05
0.00488557
-3.90709e-05
0.00489471
-3.67398e-05
0.00490331
-3.45414e-05
0.00491141
-3.24951e-05
0.00491905
-3.06152e-05
0.00492627
-2.89077e-05
0.0049331
-2.73691e-05
0.00493959
-2.59866e-05
0.00494578
-2.47407e-05
0.00495167
-2.36076e-05
0.00495731
-2.25632e-05
-2.15859e-05
0.00408777
-0.000273482
0.00413647
-0.000262137
0.00418324
-0.000250797
0.00422805
-0.000239515
0.00427092
-0.000228341
0.00431185
-0.000217326
0.00435087
-0.000206521
0.00438801
-0.000195974
0.0044233
-0.000185729
0.0044568
-0.000175824
0.00448857
-0.000166293
0.00451868
-0.000157163
0.00454718
-0.000148454
0.00457416
-0.000140181
0.0045997
-0.00013235
0.00462386
-0.000124963
0.00464672
-0.000118015
0.00466836
-0.000111497
0.00468885
-0.000105393
0.00470826
-9.96854e-05
0.00472667
-9.43503e-05
0.00474412
-8.93617e-05
0.00476068
-8.46901e-05
0.0047764
-8.03038e-05
0.00479132
-7.61688e-05
0.0048055
-7.22506e-05
0.00481895
-6.85154e-05
0.00483171
-6.49324e-05
0.00484381
-6.14761e-05
0.00485526
-5.81289e-05
0.00486609
-5.4883e-05
0.00487632
-5.17413e-05
0.00488597
-4.8717e-05
0.00489506
-4.58309e-05
0.00490363
-4.31076e-05
0.0049117
-4.05704e-05
0.00491932
-3.82367e-05
0.00492653
-3.61139e-05
0.00493336
-3.41977e-05
0.00493984
-3.2473e-05
0.00494602
-3.0916e-05
0.00495191
-2.94981e-05
0.00495754
-2.819e-05
-2.69655e-05
0.00411584
-0.000321136
0.00416181
-0.000308111
0.00420608
-0.000295064
0.00424861
-0.000282049
0.0042894
-0.000269125
0.00432843
-0.000256358
0.00436572
-0.00024381
0.00440128
-0.00023154
0.00443516
-0.000219604
0.00446738
-0.000208047
0.004498
-0.000196913
0.00452707
-0.000186234
0.00455465
-0.000176035
0.00458081
-0.000166335
0.0046056
-0.000157144
0.0046291
-0.000148464
0.00465138
-0.000140291
0.00467249
-0.000132614
0.00469252
-0.000125418
0.00471152
-0.000118681
0.00472954
-0.000112378
0.00474666
-0.000106477
0.00476292
-0.000100947
0.00477836
-9.57499e-05
0.00479304
-9.08474e-05
0.00480699
-8.61996e-05
0.00482024
-8.17677e-05
0.00483282
-7.75161e-05
0.00484476
-7.34152e-05
0.00485608
-6.94446e-05
0.00486679
-6.55951e-05
0.00487692
-6.18697e-05
0.00488649
-5.82833e-05
0.00489552
-5.48597e-05
0.00490403
-5.1627e-05
0.00491208
-4.86121e-05
0.00491967
-4.5835e-05
0.00492687
-4.33043e-05
0.00493368
-4.10154e-05
0.00494016
-3.89508e-05
0.00494633
-3.70832e-05
0.00495221
-3.53798e-05
0.00495783
-3.38066e-05
-3.23334e-05
0.00414735
-0.000365578
0.00419038
-0.000351146
0.00423194
-0.000336627
0.00427198
-0.000322089
0.00431047
-0.000307614
0.0043474
-0.000293283
0.00438276
-0.000279171
0.00441657
-0.000265349
0.00444885
-0.000251882
0.00447963
-0.000238825
0.00450894
-0.000226228
0.00453684
-0.000214129
0.00456336
-0.000202561
0.00458857
-0.000191544
0.00461252
-0.000181091
0.00463526
-0.000171208
0.00465686
-0.00016189
0.00467737
-0.000153127
0.00469686
-0.000144902
0.00471537
-0.000137192
0.00473296
-0.000129969
0.00474968
-0.000123201
0.00476559
-0.00011685
0.00478071
-0.000110877
0.0047951
-0.000105237
0.00480879
-9.98874e-05
0.00482181
-9.47846e-05
0.00483418
-8.9889e-05
0.00484593
-8.51674e-05
0.00485708
-8.05969e-05
0.00486766
-7.61668e-05
0.00487767
-7.18803e-05
0.00488714
-6.77534e-05
0.00489609
-6.38124e-05
0.00490455
-6.00883e-05
0.00491255
-5.66109e-05
0.00492012
-5.34025e-05
0.00492729
-5.04728e-05
0.00493409
-4.78168e-05
0.00494055
-4.54153e-05
0.00494671
-4.32382e-05
0.00495258
-4.12488e-05
0.00495818
-3.94093e-05
-3.76858e-05
0.00438285
-0.000408751
-0.00433968
0.00442473
-0.00039303
0.00446526
-0.000377156
0.0045044
-0.000361223
0.00454211
-0.000345325
0.00457838
-0.000329555
0.00461321
-0.000313998
0.00464659
-0.000298737
0.00467856
-0.000283844
0.00470911
-0.000269384
0.0047383
-0.000255412
0.00476614
-0.000241975
0.00479269
-0.000229108
0.00481798
-0.000216837
0.00484207
-0.000205178
0.004865
-0.000194138
0.00488683
-0.000183714
0.0049076
-0.000173897
0.00492736
-0.000164668
0.00494618
-0.000156006
0.00496408
-0.000147879
0.00498114
-0.000140253
0.00499737
-0.000133088
0.00501284
-0.000126341
0.00502757
-0.000119965
0.00504159
-0.000113914
0.00505495
-0.000108139
0.00506766
-0.000102598
0.00507974
-9.72541e-05
0.00509123
-9.20829e-05
0.00510213
-8.7072e-05
0.00511248
-8.22242e-05
0.00512228
-7.75567e-05
0.00513157
-7.30974e-05
0.00514036
-6.88797e-05
0.00514868
-6.49359e-05
0.00515657
-6.12901e-05
0.00516405
-5.79531e-05
0.00517115
-5.49198e-05
0.00517791
-5.21695e-05
0.00518434
-4.96697e-05
0.00519047
-4.73805e-05
0.00519632
-4.52609e-05
-4.32737e-05
0.00442298
-0.000448369
-0.00438337
0.00446147
-0.000431519
0.00449879
-0.000414475
0.00453491
-0.000397342
0.00456981
-0.000380223
0.00460347
-0.000363215
0.00463588
-0.000346413
0.00466705
-0.000329906
0.00469698
-0.000313774
0.00472569
-0.000298089
0.00475319
-0.000282912
0.0047795
-0.000268293
0.00480467
-0.000254275
0.00482872
-0.000240885
0.00485168
-0.000228144
0.00487361
-0.000216059
0.00489452
-0.000204632
0.00491448
-0.000193852
0.00493351
-0.000183703
0.00495167
-0.00017416
0.00496898
-0.000165194
0.0049855
-0.000156767
0.00500125
-0.00014884
0.00501628
-0.000141365
0.00503061
-0.000134295
0.00504427
-0.000127578
0.0050573
-0.000121166
0.00506971
-0.000115012
0.00508154
-0.000109079
0.00509279
-0.000103338
0.0051035
-9.77766e-05
0.00511367
-9.23973e-05
0.00512333
-8.72176e-05
0.0051325
-8.22664e-05
0.0051412
-7.7579e-05
0.00514945
-7.31891e-05
0.00515728
-6.91224e-05
0.00516472
-6.53906e-05
0.00517179
-6.19886e-05
0.00517852
-5.88948e-05
0.00518492
-5.60748e-05
0.00519103
-5.34867e-05
0.00519685
-5.10866e-05
-4.88346e-05
0.00446531
-0.000484284
-0.00442939
0.00450028
-0.000466492
0.00453428
-0.000448476
0.00456729
-0.000430345
0.00459927
-0.000412208
0.00463022
-0.000394166
0.00466013
-0.00037632
0.00468898
-0.000358763
0.00471679
-0.000341581
0.00474355
-0.000324851
0.00476928
-0.000308639
0.00479399
-0.000293001
0.00481769
-0.000277981
0.00484042
-0.000263612
0.00486219
-0.000249916
0.00488304
-0.000236905
0.00490299
-0.000224581
0.00492207
-0.000212934
0.00494032
-0.00020195
0.00495776
-0.000191605
0.00497444
-0.000181867
0.00499037
-0.000172701
0.00500559
-0.000164065
0.00502014
-0.000155911
0.00503404
-0.00014819
0.00504731
-0.000140848
0.00505998
-0.000133836
0.00507207
-0.000127105
0.00508361
-0.000120616
0.00509461
-0.000114338
0.00510509
-0.000108259
0.00511507
-0.000102379
0.00512457
-9.67173e-05
0.00513361
-9.13023e-05
0.0051422
-8.61702e-05
0.00515036
-8.1356e-05
0.00515813
-7.68864e-05
0.00516551
-7.27736e-05
0.00517254
-6.90127e-05
0.00517922
-6.55818e-05
0.00518559
-6.24453e-05
0.00519167
-5.95597e-05
0.00519746
-5.68794e-05
-5.43625e-05
0.00450939
-0.000516375
-0.0044773
0.00454075
-0.000497852
0.00457135
-0.000479074
0.00460116
-0.000460156
0.00463016
-0.00044121
0.00465834
-0.00042234
0.00468567
-0.000403652
0.00471215
-0.000385241
0.00473777
-0.000367199
0.00476252
-0.000349606
0.00478642
-0.000332532
0.00480945
-0.000316036
0.00483164
-0.000300166
0.00485299
-0.000284959
0.00487351
-0.00027044
0.00489322
-0.000256622
0.00491215
-0.000243508
0.00493031
-0.000231094
0.00494773
-0.000219364
0.00496442
-0.000208295
0.00498041
-0.000197858
0.00499572
-0.000188016
0.00501038
-0.000178728
0.00502442
-0.000169946
0.00503785
-0.00016162
0.0050507
-0.000153696
0.00506298
-0.000146123
0.00507473
-0.000138852
0.00508596
-0.000131842
0.00509668
-0.000125062
0.00510692
-0.000118498
0.00511669
-0.000112151
0.00512601
-0.000106038
0.0051349
-0.000100188
0.00514336
-9.46372e-05
0.00515143
-8.94215e-05
0.00515911
-8.45678e-05
0.00516643
-8.0089e-05
0.00517339
-7.59803e-05
0.00518003
-7.22198e-05
0.00518636
-6.87716e-05
0.00519239
-6.55912e-05
0.00519814
-6.26319e-05
-5.98506e-05
0.00455478
-0.000544578
-0.00452658
0.00458247
-0.000525543
0.00460962
-0.000506222
0.0046362
-0.000486733
0.00466218
-0.000467189
0.00468754
-0.0004477
0.00471226
-0.000428371
0.00473632
-0.000409304
0.00475971
-0.00039059
0.00478242
-0.000372314
0.00480444
-0.000354549
0.00482576
-0.000337358
0.00484638
-0.00032079
0.00486631
-0.000304886
0.00488554
-0.000289673
0.00490409
-0.000275167
0.00492195
-0.000261375
0.00493915
-0.000248292
0.0049557
-0.000235906
0.0049716
-0.000224195
0.00498687
-0.000213132
0.00500153
-0.00020268
0.0050156
-0.000192799
0.0050291
-0.000183442
0.00504204
-0.000174558
0.00505444
-0.000166096
0.00506632
-0.000158003
0.0050777
-0.00015023
0.00508859
-0.000142736
0.00509902
-0.00013549
0.005109
-0.000128475
0.00511854
-0.000121694
0.00512766
-0.000115161
0.00513638
-0.000108906
0.00514471
-0.000102963
0.00515265
-9.73698e-05
0.00516024
-9.21519e-05
0.00516747
-8.73229e-05
0.00517437
-8.28786e-05
0.00518095
-7.87973e-05
0.00518722
-7.50431e-05
0.0051932
-7.15718e-05
0.0051989
-6.83359e-05
-6.52917e-05
0.004601
-0.000568894
-0.00457668
0.00462502
-0.000549565
0.00464872
-0.000529918
0.00467206
-0.000510072
0.00469501
-0.000490142
0.00471755
-0.000470239
0.00473965
-0.00045047
0.00476128
-0.000430939
0.00478243
-0.00041174
0.00480307
-0.000392958
0.0048232
-0.000374671
0.00484278
-0.000356942
0.00486182
-0.000339826
0.00488029
-0.000323364
0.00489821
-0.000307587
0.00491555
-0.000292513
0.00493233
-0.000278151
0.00494854
-0.0002645
0.00496418
-0.000251548
0.00497926
-0.000239278
0.00499379
-0.000227661
0.00500778
-0.000216666
0.00502123
-0.000206252
0.00503416
-0.000196374
0.00504659
-0.000186983
0.00505852
-0.000178028
0.00506997
-0.000169457
0.00508096
-0.000161222
0.00509151
-0.000153281
0.00510162
-0.000145604
0.00511132
-0.000138174
0.00512062
-0.000130991
0.00512953
-0.00012407
0.00513806
-0.000117439
0.00514623
-0.000111132
0.00515405
-0.000105185
0.00516152
-9.96231e-05
0.00516865
-9.44608e-05
0.00517547
-8.9694e-05
0.00518197
-8.53018e-05
0.00518818
-8.1249e-05
0.0051941
-7.74917e-05
0.00519975
-7.39828e-05
-7.06784e-05
0.00464757
-0.00058938
-0.00462708
0.00466797
-0.00056997
0.00468826
-0.000550208
0.0047084
-0.000530214
0.00472836
-0.000510102
0.00474811
-0.000489983
0.00476761
-0.000469968
0.00478683
-0.00045016
0.00480574
-0.000430655
0.00482433
-0.000411541
0.00484255
-0.000392895
0.00486039
-0.000374784
0.00487783
-0.000357264
0.00489485
-0.000340381
0.00491142
-0.000324165
0.00492755
-0.00030864
0.00494322
-0.000293816
0.00495841
-0.000279695
0.00497313
-0.000266268
0.00498737
-0.00025352
0.00500114
-0.000241425
0.00501443
-0.000229953
0.00502724
-0.000219067
0.00503959
-0.000208723
0.00505148
-0.000198875
0.00506293
-0.000189473
0.00507394
-0.000180467
0.00508453
-0.000171809
0.0050947
-0.00016346
0.00510449
-0.000155388
0.00511389
-0.000147578
0.00512293
-0.000140027
0.00513161
-0.000132749
0.00513994
-0.000125772
0.00514794
-0.000119128
0.0051556
-0.00011285
0.00516295
-0.000106966
0.00516997
-0.000101488
0.00517669
-9.64128e-05
0.00518311
-9.17208e-05
0.00518924
-8.73777e-05
0.00519509
-8.33408e-05
0.00520067
-7.95637e-05
-7.60029e-05
0.00469404
-0.000606153
-0.00467727
0.00471093
-0.000586862
0.00472791
-0.000567183
0.00474493
-0.000547236
0.00476196
-0.000527135
0.00477897
-0.000506992
0.00479592
-0.000486914
0.00481276
-0.000467008
0.00482948
-0.000447368
0.00484602
-0.000428085
0.00486236
-0.000409237
0.00487847
-0.000390892
0.00489432
-0.000373109
0.00490987
-0.000355934
0.00492511
-0.000339403
0.00494001
-0.000323541
0.00495455
-0.00030836
0.00496872
-0.000293865
0.00498251
-0.000280051
0.00499589
-0.000266906
0.00500887
-0.000254406
0.00502145
-0.000242525
0.00503361
-0.000231228
0.00504536
-0.000220475
0.0050567
-0.00021022
0.00506765
-0.000200418
0.0050782
-0.00019102
0.00508837
-0.00018198
0.00509817
-0.00017326
0.00510761
-0.00016483
0.00511671
-0.000156673
0.00512547
-0.000148787
0.0051339
-0.000141184
0.00514202
-0.00013389
0.00514983
-0.000126935
0.00515733
-0.000120351
0.00516453
-0.000114165
0.00517143
-0.000108389
0.00517804
-0.000103021
0.00518436
-9.80413e-05
0.0051904
-9.34177e-05
0.00519616
-8.91088e-05
0.00520167
-8.50695e-05
-8.12572e-05
0.00474
-0.000619375
-0.00472678
0.00475352
-0.000600385
0.00476731
-0.000580973
0.00478133
-0.000561255
0.00479554
-0.000541344
0.0048099
-0.000521351
0.00482437
-0.000501383
0.0048389
-0.000481544
0.00485347
-0.000461931
0.00486801
-0.000442633
0.00488251
-0.00042373
0.00489691
-0.000405291
0.00491117
-0.000387377
0.00492528
-0.000370036
0.00493918
-0.000353307
0.00495285
-0.000337215
0.00496627
-0.000321778
0.00497941
-0.000307004
0.00499225
-0.00029289
0.00500477
-0.000279426
0.00501696
-0.000266595
0.00502881
-0.000254371
0.0050403
-0.000242724
0.00505144
-0.000231616
0.00506223
-0.000221006
0.00507266
-0.00021085
0.00508274
-0.000201103
0.00509249
-0.000191722
0.0051019
-0.000182669
0.00511098
-0.000173917
0.00511976
-0.000165447
0.00512823
-0.000157258
0.0051364
-0.00014936
0.00514429
-0.000141777
0.0051519
-0.000134538
0.00515922
-0.000127673
0.00516626
-0.000121206
0.00517302
-0.000115151
0.0051795
-0.000109505
0.00518571
-0.000104251
0.00519165
-9.93576e-05
0.00519733
-9.47855e-05
0.00520275
-9.04913e-05
-8.64335e-05
0.00478506
-0.00062925
-0.00477519
0.0047954
-0.000610725
0.00480617
-0.000591742
0.00481734
-0.000572416
0.00482885
-0.000552858
0.00484067
-0.000533174
0.00485276
-0.000513472
0.00486507
-0.000493853
0.00487755
-0.000474414
0.00489016
-0.000455243
0.00490285
-0.000436421
0.00491558
-0.000418019
0.0049283
-0.000400098
0.00494098
-0.000382709
0.00495356
-0.00036589
0.00496602
-0.000349674
0.00497832
-0.000334078
0.00499043
-0.000319113
0.00500232
-0.000304782
0.00501397
-0.000291078
0.00502536
-0.000277985
0.00503647
-0.000265484
0.00504729
-0.000253546
0.00505782
-0.000242139
0.00506803
-0.000231224
0.00507795
-0.000220761
0.00508755
-0.000210709
0.00509686
-0.000201026
0.00510587
-0.000191679
0.00511459
-0.000182638
0.00512303
-0.00017389
0.0051312
-0.000165429
0.00513911
-0.000157266
0.00514675
-0.000149422
0.00515414
-0.000141924
0.00516127
-0.000134801
0.00516813
-0.000128075
0.00517474
-0.000121759
0.00518109
-0.000115852
0.00518718
-0.000110337
0.00519301
-0.000105186
0.00519858
-0.000100361
0.00520391
-9.58202e-05
-9.15242e-05
0.00482892
-0.00063601
-0.00482216
0.00483628
-0.000618091
0.00484422
-0.000599681
0.0048527
-0.000580892
0.00486167
-0.000561828
0.00487109
-0.000542595
0.00488092
-0.000523298
0.0048911
-0.000504035
0.00490159
-0.000484903
0.00491233
-0.000465989
0.00492329
-0.000447373
0.00493439
-0.000429127
0.00494561
-0.000411313
0.00495688
-0.000393983
0.00496817
-0.000377179
0.00497943
-0.000360934
0.00499062
-0.00034527
0.00500171
-0.000330201
0.00501266
-0.000315732
0.00502344
-0.00030186
0.00503403
-0.000288575
0.00504441
-0.00027586
0.00505455
-0.00026369
0.00506445
-0.000252038
0.0050741
-0.000240868
0.00508348
-0.000230145
0.0050926
-0.00021983
0.00510146
-0.000209886
0.00511006
-0.00020028
0.00511841
-0.000190987
0.00512651
-0.000181992
0.00513438
-0.00017329
0.005142
-0.000164891
0.00514939
-0.000156813
0.00515655
-0.000149081
0.00516347
-0.000141723
0.00517015
-0.000134759
0.0051766
-0.000128201
0.00518279
-0.00012205
0.00518875
-0.000116289
0.00519445
-0.000110893
0.00519992
-0.000105825
0.00520514
-0.000101048
-9.65217e-05
0.00487129
-0.000639908
-0.0048674
0.00487592
-0.000622715
0.00488124
-0.000605001
0.00488721
-0.00058687
0.00489381
-0.000568424
0.00490098
-0.000549765
0.00490868
-0.000530993
0.00491685
-0.000512207
0.00492544
-0.000493498
0.00493441
-0.000474955
0.00494369
-0.000456657
0.00495324
-0.000438674
0.004963
-0.00042107
0.00497291
-0.000403899
0.00498294
-0.000387204
0.00499303
-0.00037102
0.00500313
-0.000355373
0.00501321
-0.00034028
0.00502322
-0.000325748
0.00503314
-0.00031178
0.00504294
-0.000298369
0.00505258
-0.000285501
0.00506204
-0.000273156
0.00507132
-0.000261311
0.00508039
-0.000249936
0.00508924
-0.000238998
0.00509787
-0.000228462
0.00510628
-0.000218296
0.00511447
-0.000208469
0.00512244
-0.000198957
0.00513019
-0.000189746
0.00513774
-0.000180833
0.00514507
-0.000172225
0.0051522
-0.000163939
0.00515911
-0.000155999
0.00516582
-0.000148427
0.00517231
-0.000141246
0.00517857
-0.000134466
0.00518461
-0.000128087
0.00519041
-0.000122096
0.00519599
-0.000116468
0.00520133
-0.00011117
0.00520645
-0.000106166
-0.000101419
0.00491198
-0.000641208
-0.00491068
0.00491411
-0.00062484
0.00491703
-0.000607921
0.00492071
-0.00059055
0.00492511
-0.000572825
0.00493019
-0.000554843
0.0049359
-0.0005367
0.00494218
-0.000518493
0.00494899
-0.00050031
0.00495628
-0.000482238
0.00496397
-0.000464354
0.00497203
-0.00044673
0.00498039
-0.000429429
0.00498899
-0.000412505
0.00499779
-0.000396005
0.00500674
-0.000379964
0.00501578
-0.000364413
0.00502487
-0.000349369
0.00503397
-0.000334846
0.00504303
-0.000320848
0.00505204
-0.000307372
0.00506095
-0.00029441
0.00506974
-0.000281946
0.00507839
-0.00026996
0.00508688
-0.000258427
0.0050952
-0.000247318
0.00510334
-0.000236603
0.00511129
-0.000226253
0.00511906
-0.000216239
0.00512665
-0.000206542
0.00513405
-0.000197147
0.00514127
-0.000188052
0.00514831
-0.000179262
0.00515516
-0.000170793
0.00516183
-0.000162667
0.0051683
-0.000154905
0.00517459
-0.000147526
0.00518066
-0.000140543
0.00518653
-0.000133954
0.00519218
-0.000127748
0.00519761
-0.000121902
0.00520283
-0.000116387
0.00520783
-0.000111167
-0.00010621
0.00495084
-0.000640179
-0.00495186
0.00495071
-0.000624713
0.00495146
-0.000608668
0.00495304
-0.000592139
0.00495544
-0.000575218
0.00495859
-0.000557997
0.00496246
-0.000540569
0.00496699
-0.000523026
0.00497214
-0.000505454
0.00497784
-0.000487937
0.00498404
-0.000470552
0.00499067
-0.00045337
0.0049977
-0.000436452
0.00500505
-0.000419855
0.00501267
-0.000403626
0.00502051
-0.000387804
0.00502851
-0.000372418
0.00503664
-0.000357493
0.00504484
-0.000343044
0.00505307
-0.000329078
0.00506129
-0.000315597
0.00506948
-0.000302597
0.0050776
-0.000290066
0.00508562
-0.000277988
0.00509354
-0.000266343
0.00510133
-0.000255106
0.00510898
-0.000244252
0.00511648
-0.000233755
0.00512383
-0.00022359
0.00513103
-0.00021374
0.00513807
-0.000204191
0.00514496
-0.00019494
0.00515169
-0.000185995
0.00515826
-0.000177367
0.00516468
-0.000169078
0.00517092
-0.000161146
0.00517698
-0.000153591
0.00518286
-0.000146422
0.00518855
-0.000139641
0.00519404
-0.000133236
0.00519932
-0.000127188
0.0052044
-0.000121468
0.00520928
-0.000116045
-0.000110887
0.00498775
-0.000637087
-0.00499084
0.00498562
-0.000622579
0.00498442
-0.000607468
0.00498412
-0.000591843
0.00498469
-0.00057579
0.00498609
-0.000559396
0.00498827
-0.000542751
0.00499119
-0.000525941
0.00499478
-0.000509051
0.00499901
-0.00049216
0.0050038
-0.000475344
0.0050091
-0.000458673
0.00501486
-0.000442209
0.00502101
-0.000426008
0.0050275
-0.000410117
0.00503428
-0.000394579
0.00504128
-0.000379424
0.00504847
-0.00036468
0.00505579
-0.000350364
0.0050632
-0.000336488
0.00507066
-0.000323057
0.00507813
-0.000310071
0.00508559
-0.000297522
0.005093
-0.0002854
0.00510035
-0.000273687
0.00510761
-0.000262365
0.00511476
-0.000251411
0.00512181
-0.000240803
0.00512874
-0.00023052
0.00513555
-0.000220547
0.00514223
-0.000210873
0.00514879
-0.000201495
0.00515521
-0.000192418
0.0051615
-0.000183656
0.00516765
-0.000175225
0.00517365
-0.000167145
0.00517949
-0.000159433
0.00518516
-0.000152098
0.00519066
-0.000145141
0.00519598
-0.000138554
0.00520111
-0.000132318
0.00520605
-0.000126408
0.0052108
-0.000120793
-0.000115446
0.00502267
-0.00063219
-0.00502757
0.00501877
-0.000618677
0.00501584
-0.000604541
0.00501386
-0.000589863
0.0050128
-0.000574725
0.00501261
-0.000559209
0.00501326
-0.000543398
0.00501469
-0.000527375
0.00501686
-0.000511221
0.00501972
-0.000495013
0.0050232
-0.000478824
0.00502725
-0.000462723
0.00503181
-0.000446771
0.00503682
-0.000431025
0.00504224
-0.000415532
0.00504799
-0.000400334
0.00505404
-0.000385468
0.00506032
-0.00037096
0.00506679
-0.000356832
0.0050734
-0.000343099
0.00508011
-0.000329769
0.00508689
-0.000316846
0.00509369
-0.000304327
0.0051005
-0.000292205
0.00510728
-0.000280467
0.00511401
-0.000269098
0.00512068
-0.000258081
0.00512727
-0.000247398