/*--------------------------------*- C++ -*----------------------------------*\
| =========                 |                                                 |
| \\      /  F ield         | OpenFOAM: The Open Source CFD Toolbox           |
|  \\    /   O peration     | Version:  2412                                  |
|   \\  /    A nd           | Website:  www.openfoam.com                      |
|    \\/     M anipulation  |                                                 |
\*---------------------------------------------------------------------------*/
FoamFile
{
    version     2.0;
    format      ascii;
    arch        "LSB;label=32;scalar=64";
    class       volScalarField;
    location    "18";
    object      p;
}
// * * * * * * * * * * * * * * * * * * * * * * * * * * * * * * * * * * * * * //

dimensions      [0 2 -2 0 0 0 0];

internalField   nonuniform List<scalar> 
5285
(
-3.80335e-06
-3.88734e-06
-3.94071e-06
-3.96586e-06
-3.96555e-06
-3.94264e-06
-3.89969e-06
-3.8391e-06
-3.76314e-06
-3.67389e-06
-3.57327e-06
-3.46311e-06
-3.34507e-06
-3.22068e-06
-3.09138e-06
-2.95846e-06
-2.82305e-06
-2.68627e-06
-2.54904e-06
-2.41225e-06
-2.27668e-06
-2.14299e-06
-2.01174e-06
-1.88347e-06
-1.75863e-06
-1.63764e-06
-1.52081e-06
-1.4084e-06
-1.30062e-06
-1.19761e-06
-1.09942e-06
-1.00612e-06
-9.17694e-07
-8.34072e-07
-7.55196e-07
-6.80973e-07
-6.11299e-07
-5.46108e-07
-4.85129e-07
-4.28672e-07
-3.75684e-07
-3.27834e-07
-2.81458e-07
-2.42913e-07
-1.99798e-07
-1.7382e-07
-1.26553e-07
-1.231e-07
-5.46347e-08
-9.70056e-08
2.79273e-08
-1.05784e-07
1.36818e-07
-1.60749e-07
2.82419e-07
-2.63643e-07
4.54667e-07
-3.83627e-07
6.06619e-07
-4.48835e-07
6.53055e-07
-3.6907e-07
5.21524e-07
-1.06521e-07
2.36188e-07
2.41384e-07
-2.80428e-08
4.39681e-07
-1.25801e-08
2.42263e-07
4.56408e-07
-3.81218e-06
-3.89497e-06
-3.94728e-06
-3.97148e-06
-3.97034e-06
-3.94669e-06
-3.90309e-06
-3.84193e-06
-3.76546e-06
-3.67577e-06
-3.57478e-06
-3.46428e-06
-3.34596e-06
-3.22133e-06
-3.09183e-06
-2.95873e-06
-2.82318e-06
-2.68628e-06
-2.54896e-06
-2.41208e-06
-2.27645e-06
-2.1427e-06
-2.01143e-06
-1.88313e-06
-1.75827e-06
-1.63728e-06
-1.52045e-06
-1.40805e-06
-1.30028e-06
-1.19727e-06
-1.09908e-06
-1.0058e-06
-9.17385e-07
-8.33775e-07
-7.54915e-07
-6.80708e-07
-6.11055e-07
-5.45882e-07
-4.84925e-07
-4.28487e-07
-3.75515e-07
-3.27677e-07
-2.81317e-07
-2.42781e-07
-1.99681e-07
-1.73711e-07
-1.26461e-07
-1.23001e-07
-5.45643e-08
-9.69076e-08
2.79757e-08
-1.05691e-07
1.36828e-07
-1.60663e-07
2.82396e-07
-2.63561e-07
4.54644e-07
-3.83565e-07
6.0661e-07
-4.48823e-07
6.53077e-07
-3.69096e-07
5.21565e-07
-1.06571e-07
2.36229e-07
2.41363e-07
-2.8047e-08
4.39691e-07
-1.25177e-08
2.42139e-07
4.56666e-07
-3.82982e-06
-3.91022e-06
-3.96039e-06
-3.98271e-06
-3.97989e-06
-3.95476e-06
-3.90986e-06
-3.84756e-06
-3.77009e-06
-3.67953e-06
-3.57777e-06
-3.46662e-06
-3.34774e-06
-3.22263e-06
-3.09272e-06
-2.95927e-06
-2.82344e-06
-2.6863e-06
-2.54878e-06
-2.41175e-06
-2.27599e-06
-2.14214e-06
-2.01079e-06
-1.88245e-06
-1.75758e-06
-1.63657e-06
-1.51974e-06
-1.40734e-06
-1.29958e-06
-1.19658e-06
-1.09842e-06
-1.00515e-06
-9.1675e-07
-8.33166e-07
-7.54331e-07
-6.80163e-07
-6.10541e-07
-5.4542e-07
-4.84505e-07
-4.2811e-07
-3.75176e-07
-3.27372e-07
-2.81034e-07
-2.42512e-07
-1.99457e-07
-1.73488e-07
-1.26294e-07
-1.22807e-07
-5.44331e-08
-9.67047e-08
2.80711e-08
-1.05483e-07
1.36837e-07
-1.6052e-07
2.82336e-07
-2.63399e-07
4.54625e-07
-3.83452e-07
6.06594e-07
-4.48803e-07
6.53128e-07
-3.69156e-07
5.21668e-07
-1.06695e-07
2.36351e-07
2.4127e-07
-2.79842e-08
4.39635e-07
-1.23041e-08
2.41813e-07
4.57216e-07
-3.85622e-06
-3.93304e-06
-3.98002e-06
-3.9995e-06
-3.99418e-06
-3.96683e-06
-3.91998e-06
-3.85597e-06
-3.77701e-06
-3.68514e-06
-3.58225e-06
-3.47012e-06
-3.35039e-06
-3.22457e-06
-3.09405e-06
-2.96009e-06
-2.82383e-06
-2.68632e-06
-2.54851e-06
-2.41125e-06
-2.27529e-06
-2.1413e-06
-2.00985e-06
-1.88144e-06
-1.75652e-06
-1.63549e-06
-1.51866e-06
-1.40627e-06
-1.29852e-06
-1.19554e-06
-1.09741e-06
-1.00417e-06
-9.15805e-07
-8.32261e-07
-7.53471e-07
-6.79358e-07
-6.0979e-07
-5.44733e-07
-4.83878e-07
-4.27541e-07
-3.74662e-07
-3.26905e-07
-2.80607e-07
-2.42113e-07
-1.99115e-07
-1.73158e-07
-1.26035e-07
-1.22521e-07
-5.42377e-08
-9.6422e-08
2.82014e-08
-1.05201e-07
1.36856e-07
-1.60295e-07
2.82266e-07
-2.63167e-07
4.54584e-07
-3.83289e-07
6.06573e-07
-4.48771e-07
6.53205e-07
-3.69252e-07
5.21825e-07
-1.06878e-07
2.36528e-07
2.41126e-07
-2.78732e-08
4.39535e-07
-1.19748e-08
2.41333e-07
4.58031e-07
-3.89127e-06
-3.96334e-06
-4.00607e-06
-4.02179e-06
-4.01315e-06
-3.98286e-06
-3.93342e-06
-3.86714e-06
-3.78619e-06
-3.69258e-06
-3.58819e-06
-3.47476e-06
-3.35391e-06
-3.22714e-06
-3.09581e-06
-2.96116e-06
-2.82433e-06
-2.68635e-06
-2.54815e-06
-2.41057e-06
-2.27436e-06
-2.14018e-06
-2.00858e-06
-1.88008e-06
-1.75511e-06
-1.63405e-06
-1.51721e-06
-1.40483e-06
-1.2971e-06
-1.19415e-06
-1.09606e-06
-1.00287e-06
-9.1455e-07
-8.31064e-07
-7.52337e-07
-6.78295e-07
-6.08798e-07
-5.43822e-07
-4.83043e-07
-4.26781e-07
-3.73973e-07
-3.26276e-07
-2.80037e-07
-2.41582e-07
-1.98657e-07
-1.72719e-07
-1.25683e-07
-1.22144e-07
-5.3976e-08
-9.60626e-08
2.83716e-08
-1.04853e-07
1.36896e-07
-1.60003e-07
2.82206e-07
-2.62888e-07
4.54548e-07
-3.83109e-07
6.06586e-07
-4.48768e-07
6.53345e-07
-3.69416e-07
5.2206e-07
-1.07134e-07
2.36765e-07
2.40936e-07
-2.77239e-08
4.39399e-07
-1.15375e-08
2.40697e-07
4.59123e-07
-3.93486e-06
-4.00101e-06
-4.03847e-06
-4.0495e-06
-4.03672e-06
-4.00278e-06
-3.95013e-06
-3.88103e-06
-3.7976e-06
-3.70183e-06
-3.59557e-06
-3.48052e-06
-3.35828e-06
-3.23032e-06
-3.09798e-06
-2.96248e-06
-2.82494e-06
-2.68637e-06
-2.54768e-06
-2.40971e-06
-2.2732e-06
-2.13877e-06
-2.007e-06
-1.87838e-06
-1.75333e-06
-1.63223e-06
-1.51538e-06
-1.40301e-06
-1.29531e-06
-1.19241e-06
-1.09437e-06
-1.00123e-06
-9.12985e-07
-8.29573e-07
-7.50927e-07
-6.76974e-07
-6.07567e-07
-5.42686e-07
-4.82002e-07
-4.25829e-07
-3.73109e-07
-3.25487e-07
-2.79322e-07
-2.4092e-07
-1.98082e-07
-1.72171e-07
-1.25241e-07
-1.21673e-07
-5.36513e-08
-9.56219e-08
2.85756e-08
-1.04428e-07
1.36943e-07
-1.5963e-07
2.82135e-07
-2.62536e-07
4.54489e-07
-3.82877e-07
6.06591e-07
-4.48751e-07
6.53508e-07
-3.69612e-07
5.22345e-07
-1.07445e-07
2.37055e-07
2.40694e-07
-2.75217e-08
4.39208e-07
-1.09722e-08
2.39896e-07
4.60495e-07
-3.98685e-06
-4.04594e-06
-4.07711e-06
-4.08256e-06
-4.06483e-06
-4.02652e-06
-3.97003e-06
-3.89756e-06
-3.81118e-06
-3.71285e-06
-3.60435e-06
-3.48737e-06
-3.36347e-06
-3.2341e-06
-3.10055e-06
-2.96404e-06
-2.82564e-06
-2.68637e-06
-2.5471e-06
-2.40867e-06
-2.27178e-06
-2.13707e-06
-2.00509e-06
-1.87633e-06
-1.75119e-06
-1.63004e-06
-1.51317e-06
-1.40082e-06
-1.29316e-06
-1.19031e-06
-1.09234e-06
-9.99276e-07
-9.11109e-07
-8.27789e-07
-7.49242e-07
-6.75394e-07
-6.06096e-07
-5.41327e-07
-4.80754e-07
-4.24687e-07
-3.72071e-07
-3.24537e-07
-2.78465e-07
-2.40125e-07
-1.97396e-07
-1.71507e-07
-1.24722e-07
-1.21091e-07
-5.32942e-08
-9.50539e-08
2.87453e-08
-1.03829e-07
1.36864e-07
-1.58994e-07
2.81818e-07
-2.61821e-07
4.54058e-07
-3.82198e-07
6.0616e-07
-4.48281e-07
6.53273e-07
-3.69472e-07
5.22398e-07
-1.07639e-07
2.37344e-07
2.40344e-07
-2.71292e-08
4.3879e-07
-1.01364e-08
2.38884e-07
4.62099e-07
-4.04858e-06
-4.09929e-06
-4.12297e-06
-4.12179e-06
-4.0982e-06
-4.05471e-06
-3.99365e-06
-3.91717e-06
-3.82729e-06
-3.7259e-06
-3.61475e-06
-3.49549e-06
-3.36963e-06
-3.23856e-06
-3.10359e-06
-2.96586e-06
-2.82646e-06
-2.68634e-06
-2.5464e-06
-2.40741e-06
-2.27009e-06
-2.13504e-06
-2.00281e-06
-1.87387e-06
-1.74863e-06
-1.62742e-06
-1.51054e-06
-1.3982e-06
-1.29058e-06
-1.1878e-06
-1.08991e-06
-9.96936e-07
-9.08872e-07
-8.25664e-07
-7.47236e-07
-6.73514e-07
-6.04345e-07
-5.39708e-07
-4.79267e-07
-4.23323e-07
-3.70832e-07
-3.234e-07
-2.77445e-07
-2.39172e-07
-1.96584e-07
-1.70701e-07
-1.24122e-07
-1.20363e-07
-5.29237e-08
-9.43e-08
2.88214e-08
-1.02947e-07
1.36528e-07
-1.57907e-07
2.81025e-07
-2.60445e-07
4.52912e-07
-3.80672e-07
6.04867e-07
-4.46923e-07
6.52233e-07
-3.68648e-07
5.21958e-07
-1.07569e-07
2.37607e-07
2.39801e-07
-2.63794e-08
4.37945e-07
-8.849e-09
2.37573e-07
4.63965e-07
-4.12048e-06
-4.1614e-06
-4.17636e-06
-4.16745e-06
-4.13702e-06
-4.0875e-06
-4.02112e-06
-3.93997e-06
-3.846e-06
-3.74105e-06
-3.62681e-06
-3.50489e-06
-3.37673e-06
-3.24371e-06
-3.10706e-06
-2.96793e-06
-2.82735e-06
-2.68626e-06
-2.54552e-06
-2.40589e-06
-2.26806e-06
-2.13263e-06
-2.00011e-06
-1.87097e-06
-1.74559e-06
-1.62432e-06
-1.50742e-06
-1.3951e-06
-1.28754e-06
-1.18483e-06
-1.08704e-06
-9.9418e-07
-9.06239e-07
-8.23165e-07
-7.4488e-07
-6.71307e-07
-6.02289e-07
-5.37806e-07
-4.77517e-07
-4.21719e-07
-3.69372e-07
-3.22063e-07
-2.76241e-07
-2.38059e-07
-1.95615e-07
-1.69776e-07
-1.2338e-07
-1.19562e-07
-5.24052e-08
-9.35448e-08
2.90893e-08
-1.02175e-07
1.36485e-07
-1.5709e-07
2.80686e-07
-2.59554e-07
4.52415e-07
-3.79841e-07
6.04381e-07
-4.46376e-07
6.52008e-07
-3.6855e-07
5.22122e-07
-1.07931e-07
2.38109e-07
2.39186e-07
-2.56665e-08
4.37158e-07
-7.45945e-09
2.35936e-07
4.66533e-07
-4.20086e-06
-4.23083e-06
-4.23603e-06
-4.21847e-06
-4.18039e-06
-4.12411e-06
-4.05178e-06
-3.96541e-06
-3.86687e-06
-3.75794e-06
-3.64024e-06
-3.51533e-06
-3.38461e-06
-3.24939e-06
-3.11088e-06
-2.97018e-06
-2.82828e-06
-2.68611e-06
-2.54448e-06
-2.40413e-06
-2.26574e-06
-2.12987e-06
-1.99703e-06
-1.86766e-06
-1.74215e-06
-1.6208e-06
-1.50388e-06
-1.39159e-06
-1.28409e-06
-1.18147e-06
-1.08379e-06
-9.91061e-07
-9.03263e-07
-8.20344e-07
-7.42221e-07
-6.68815e-07
-5.9997e-07
-5.35659e-07
-4.75542e-07
-4.19907e-07
-3.6772e-07
-3.20552e-07
-2.74877e-07
-2.36807e-07
-1.94514e-07
-1.68741e-07
-1.22524e-07
-1.18687e-07
-5.17788e-08
-9.27585e-08
2.94774e-08
-1.01431e-07
1.36604e-07
-1.56382e-07
2.8058e-07
-2.58877e-07
4.52234e-07
-3.79333e-07
6.04289e-07
-4.46218e-07
6.5219e-07
-3.68829e-07
5.22621e-07
-1.08562e-07
2.38808e-07
2.3843e-07
-2.48415e-08
4.36247e-07
-5.82921e-09
2.33941e-07
4.69745e-07
-4.28943e-06
-4.30732e-06
-4.30177e-06
-4.27467e-06
-4.22814e-06
-4.16441e-06
-4.08551e-06
-3.99338e-06
-3.88981e-06
-3.77648e-06
-3.65498e-06
-3.52677e-06
-3.39322e-06
-3.25558e-06
-3.11501e-06
-2.97257e-06
-2.82923e-06
-2.68586e-06
-2.54325e-06
-2.40212e-06
-2.2631e-06
-2.12675e-06
-1.99356e-06
-1.86395e-06
-1.73828e-06
-1.61685e-06
-1.49992e-06
-1.38766e-06
-1.28023e-06
-1.17772e-06
-1.08016e-06
-9.87581e-07
-8.99944e-07
-8.17199e-07
-7.39258e-07
-6.66041e-07
-5.97387e-07
-5.33267e-07
-4.7334e-07
-4.17886e-07
-3.65878e-07
-3.18868e-07
-2.73356e-07
-2.35412e-07
-1.93285e-07
-1.67591e-07
-1.21566e-07
-1.17718e-07
-5.10756e-08
-9.18946e-08
2.99162e-08
-1.00617e-07
1.36746e-07
-1.55598e-07
2.80467e-07
-2.5812e-07
4.52014e-07
-3.78741e-07
6.04149e-07
-4.45999e-07
6.52351e-07
-3.69107e-07
5.23165e-07
-1.09287e-07
2.39649e-07
2.37475e-07
-2.37618e-08
4.35034e-07
-3.80882e-09
2.31537e-07
4.73562e-07
-4.38585e-06
-4.39058e-06
-4.37332e-06
-4.33582e-06
-4.28009e-06
-4.20823e-06
-4.12218e-06
-4.02377e-06
-3.9147e-06
-3.79659e-06
-3.67093e-06
-3.53913e-06
-3.40249e-06
-3.26222e-06
-3.11941e-06
-2.97508e-06
-2.83016e-06
-2.68549e-06
-2.54182e-06
-2.39983e-06
-2.26014e-06
-2.12327e-06
-1.9897e-06
-1.85983e-06
-1.73399e-06
-1.61248e-06
-1.49553e-06
-1.38331e-06
-1.27596e-06
-1.17357e-06
-1.07616e-06
-9.83737e-07
-8.96282e-07
-8.1373e-07
-7.35992e-07
-6.62983e-07
-5.94541e-07
-5.30632e-07
-4.70914e-07
-4.15659e-07
-3.63845e-07
-3.17011e-07
-2.71679e-07
-2.33876e-07
-1.9193e-07
-1.66326e-07
-1.20507e-07
-1.16654e-07
-5.02983e-08
-9.09495e-08
3.03998e-08
-9.97245e-08
1.36901e-07
-1.54724e-07
2.80327e-07
-2.57256e-07
4.51727e-07
-3.78032e-07
6.03923e-07
-4.45679e-07
6.5245e-07
-3.6935e-07
5.23725e-07
-1.10086e-07
2.40623e-07
2.36317e-07
-2.24133e-08
4.33498e-07
-1.37779e-09
2.28713e-07
4.77998e-07
-4.48973e-06
-4.48026e-06
-4.45037e-06
-4.40167e-06
-4.33601e-06
-4.25539e-06
-4.16163e-06
-4.05644e-06
-3.94144e-06
-3.81816e-06
-3.68802e-06
-3.55235e-06
-3.41238e-06
-3.26926e-06
-3.12403e-06
-2.97767e-06
-2.83105e-06
-2.68497e-06
-2.54016e-06
-2.39725e-06
-2.25684e-06
-2.11942e-06
-1.98544e-06
-1.85528e-06
-1.72927e-06
-1.60768e-06
-1.49071e-06
-1.37854e-06
-1.27128e-06
-1.16902e-06
-1.07176e-06
-9.79528e-07
-8.92275e-07
-8.09938e-07
-7.32423e-07
-6.59643e-07
-5.91432e-07
-5.27753e-07
-4.68262e-07
-4.13225e-07
-3.61624e-07
-3.14982e-07
-2.69846e-07
-2.322e-07
-1.90448e-07
-1.64946e-07
-1.19348e-07
-1.15496e-07
-4.94449e-08
-8.9927e-08
3.09337e-08
-9.87621e-08
1.37079e-07
-1.53776e-07
2.8018e-07
-2.56312e-07
4.51401e-07
-3.7724e-07
6.03649e-07
-4.45296e-07
6.52525e-07
-3.6959e-07
5.24325e-07
-1.10972e-07
2.41733e-07
2.3496e-07
-2.0807e-08
4.31649e-07
1.45558e-09
2.2547e-07
4.8307e-07
-4.60067e-06
-4.57603e-06
-4.53263e-06
-4.47194e-06
-4.39567e-06
-4.30568e-06
-4.20367e-06
-4.09124e-06
-3.9699e-06
-3.84109e-06
-3.70615e-06
-3.56633e-06
-3.4228e-06
-3.27664e-06
-3.12883e-06
-2.9803e-06
-2.83187e-06
-2.68429e-06
-2.53825e-06
-2.39437e-06
-2.25318e-06
-2.11517e-06
-1.98076e-06
-1.85031e-06
-1.72412e-06
-1.60243e-06
-1.48545e-06
-1.37334e-06
-1.26619e-06
-1.16406e-06
-1.06699e-06
-9.74955e-07
-8.87923e-07
-8.05822e-07
-7.28551e-07
-6.5602e-07
-5.8806e-07
-5.24632e-07
-4.65386e-07
-4.10584e-07
-3.59215e-07
-3.12781e-07
-2.67858e-07
-2.30384e-07
-1.8884e-07
-1.63451e-07
-1.18088e-07
-1.14245e-07
-4.85154e-08
-8.88281e-08
3.15189e-08
-9.77315e-08
1.37283e-07
-1.52757e-07
2.80029e-07
-2.55293e-07
4.51045e-07
-3.76374e-07
6.03337e-07
-4.44862e-07
6.52586e-07
-3.69834e-07
5.24972e-07
-1.11951e-07
2.4298e-07
2.33407e-07
-1.89457e-08
4.29487e-07
4.68982e-09
2.21809e-07
4.88795e-07
-4.71824e-06
-4.67751e-06
-4.61979e-06
-4.54638e-06
-4.45884e-06
-4.3589e-06
-4.24813e-06
-4.128e-06
-3.99994e-06
-3.86526e-06
-3.72522e-06
-3.58101e-06
-3.4337e-06
-3.2843e-06
-3.13376e-06
-2.98292e-06
-2.83257e-06
-2.6834e-06
-2.53607e-06
-2.39115e-06
-2.24915e-06
-2.11052e-06
-1.97566e-06
-1.8449e-06
-1.71852e-06
-1.59674e-06
-1.47976e-06
-1.3677e-06
-1.26067e-06
-1.15871e-06
-1.06183e-06
-9.70016e-07
-8.83226e-07
-8.01381e-07
-7.24375e-07
-6.52115e-07
-5.84427e-07
-5.21267e-07
-4.62287e-07
-4.07739e-07
-3.56618e-07
-3.1041e-07
-2.65715e-07
-2.28427e-07
-1.87107e-07
-1.61843e-07
-1.16728e-07
-1.12902e-07
-4.75101e-08
-8.76528e-08
3.21548e-08
-9.66323e-08
1.37512e-07
-1.51667e-07
2.79875e-07
-2.54198e-07
4.50656e-07
-3.75432e-07
6.02985e-07
-4.44375e-07
6.52629e-07
-3.70082e-07
5.25662e-07
-1.13018e-07
2.4436e-07
2.31657e-07
-1.68296e-08
4.27012e-07
8.32569e-09
2.17731e-07
4.95185e-07
-4.84198e-06
-4.7843e-06
-4.71148e-06
-4.62466e-06
-4.52525e-06
-4.41482e-06
-4.29481e-06
-4.16658e-06
-4.03141e-06
-3.89055e-06
-3.74514e-06
-3.59627e-06
-3.44498e-06
-3.29218e-06
-3.13875e-06
-2.98549e-06
-2.83311e-06
-2.68227e-06
-2.53358e-06
-2.38757e-06
-2.24472e-06
-2.10545e-06
-1.97012e-06
-1.83904e-06
-1.71247e-06
-1.5906e-06
-1.47362e-06
-1.36164e-06
-1.25473e-06
-1.15295e-06
-1.05628e-06
-9.6471e-07
-8.78183e-07
-7.96615e-07
-7.19895e-07
-6.47926e-07
-5.80532e-07
-5.17661e-07
-4.58964e-07
-4.04689e-07
-3.53833e-07
-3.07869e-07
-2.63419e-07
-2.26332e-07
-1.85248e-07
-1.60122e-07
-1.15268e-07
-1.11467e-07
-4.64299e-08
-8.64009e-08
3.28407e-08
-9.54639e-08
1.37765e-07
-1.50505e-07
2.79714e-07
-2.53026e-07
4.50234e-07
-3.74414e-07
6.02591e-07
-4.43832e-07
6.52654e-07
-3.7033e-07
5.26393e-07
-1.14172e-07
2.45872e-07
2.29712e-07
-1.44612e-08
4.24224e-07
1.23607e-08
2.13239e-07
5.02248e-07
-4.97142e-06
-4.89598e-06
-4.80735e-06
-4.70649e-06
-4.59464e-06
-4.47322e-06
-4.34352e-06
-4.20678e-06
-4.06417e-06
-3.91682e-06
-3.76578e-06
-3.61205e-06
-3.45658e-06
-3.30022e-06
-3.14377e-06
-2.98796e-06
-2.83345e-06
-2.68087e-06
-2.53076e-06
-2.38362e-06
-2.23988e-06
-2.09995e-06
-1.96413e-06
-1.83272e-06
-1.70595e-06
-1.58401e-06
-1.46703e-06
-1.35513e-06
-1.24837e-06
-1.14678e-06
-1.05034e-06
-9.59037e-07
-8.72793e-07
-7.91523e-07
-7.15112e-07
-6.43456e-07
-5.76374e-07
-5.13813e-07
-4.55419e-07
-4.01434e-07
-3.50863e-07
-3.05159e-07
-2.60969e-07
-2.24098e-07
-1.83266e-07
-1.58288e-07
-1.1371e-07
-1.09939e-07
-4.52752e-08
-8.50729e-08
3.35762e-08
-9.42264e-08
1.3804e-07
-1.49272e-07
2.79547e-07
-2.51777e-07
4.49777e-07
-3.73318e-07
6.02154e-07
-4.43233e-07
6.52658e-07
-3.70577e-07
5.27163e-07
-1.1541e-07
2.47511e-07
2.27577e-07
-1.18456e-08
4.21126e-07
1.67883e-08
2.08339e-07
5.09989e-07
-5.10605e-06
-5.01212e-06
-4.90701e-06
-4.79151e-06
-4.6667e-06
-4.53382e-06
-4.39403e-06
-4.24843e-06
-4.09806e-06
-3.94394e-06
-3.78703e-06
-3.62824e-06
-3.46841e-06
-3.30833e-06
-3.14873e-06
-2.99027e-06
-2.83356e-06
-2.67916e-06
-2.52758e-06
-2.37926e-06
-2.23461e-06
-2.09399e-06
-1.95768e-06
-1.82593e-06
-1.69897e-06
-1.57694e-06
-1.45998e-06
-1.34818e-06
-1.24158e-06
-1.1402e-06
-1.04402e-06
-9.52995e-07
-8.67055e-07
-7.86106e-07
-7.10025e-07
-6.38703e-07
-5.71956e-07
-5.09723e-07
-4.51653e-07
-3.97977e-07
-3.47707e-07
-3.0228e-07
-2.58367e-07
-2.21727e-07
-1.8116e-07
-1.56341e-07
-1.12053e-07
-1.08321e-07
-4.40466e-08
-8.36688e-08
3.43606e-08
-9.29198e-08
1.38338e-07
-1.47967e-07
2.79372e-07
-2.50451e-07
4.49285e-07
-3.72144e-07
6.01673e-07
-4.42577e-07
6.52642e-07
-3.70823e-07
5.27969e-07
-1.1673e-07
2.49272e-07
2.25255e-07
-8.99046e-09
4.17725e-07
2.15981e-08
2.03042e-07
5.1841e-07
-5.24534e-06
-5.13226e-06
-5.01008e-06
-4.87941e-06
-4.74115e-06
-4.59639e-06
-4.44613e-06
-4.29132e-06
-4.1329e-06
-3.97177e-06
-3.80877e-06
-3.64472e-06
-3.48038e-06
-3.31645e-06
-3.15358e-06
-2.99238e-06
-2.83338e-06
-2.6771e-06
-2.524e-06
-2.37447e-06
-2.22888e-06
-2.08755e-06
-1.95074e-06
-1.81866e-06
-1.6915e-06
-1.5694e-06
-1.45247e-06
-1.34078e-06
-1.23436e-06
-1.13321e-06
-1.0373e-06
-9.46584e-07
-8.60971e-07
-7.80364e-07
-7.04635e-07
-6.33669e-07
-5.67277e-07
-5.05394e-07
-4.47665e-07
-3.94317e-07
-3.44366e-07
-2.99233e-07
-2.55613e-07
-2.19218e-07
-1.7893e-07
-1.54283e-07
-1.10299e-07
-1.06611e-07
-4.27448e-08
-8.21891e-08
3.51935e-08
-9.15441e-08
1.38657e-07
-1.4659e-07
2.79188e-07
-2.49046e-07
4.48756e-07
-3.70892e-07
6.01148e-07
-4.41864e-07
6.52603e-07
-3.71064e-07
5.28808e-07
-1.18127e-07
2.5115e-07
2.22753e-07
-5.90533e-09
4.14033e-07
2.67764e-08
1.97361e-07
5.27505e-07
-5.38875e-06
-5.25592e-06
-5.11614e-06
-4.96982e-06
-4.81768e-06
-4.66065e-06
-4.49958e-06
-4.33528e-06
-4.16855e-06
-4.00017e-06
-3.83088e-06
-3.66141e-06
-3.4924e-06
-3.32449e-06
-3.15825e-06
-2.99422e-06
-2.83287e-06
-2.67466e-06
-2.51999e-06
-2.36922e-06
-2.22268e-06
-2.08063e-06
-1.9433e-06
-1.81089e-06
-1.68354e-06
-1.56138e-06
-1.4445e-06
-1.33293e-06
-1.22671e-06
-1.12581e-06
-1.0302e-06
-9.39803e-07
-8.54539e-07
-7.74297e-07
-6.98942e-07
-6.28354e-07
-5.62339e-07
-5.00824e-07
-4.43457e-07
-3.90456e-07
-3.40841e-07
-2.96019e-07
-2.52708e-07
-2.16572e-07
-1.76579e-07
-1.52113e-07
-1.08448e-07
-1.04811e-07
-4.13702e-08
-8.06338e-08
3.60741e-08
-9.00994e-08
1.38997e-07
-1.45141e-07
2.78996e-07
-2.47563e-07
4.48191e-07
-3.69561e-07
6.00577e-07
-4.41093e-07
6.5254e-07
-3.71301e-07
5.29678e-07
-1.19599e-07
2.53139e-07
2.20079e-07
-2.60201e-09
4.1006e-07
3.23059e-08
1.91314e-07
5.37265e-07
-5.53575e-06
-5.38264e-06
-5.22477e-06
-5.06237e-06
-4.89597e-06
-4.72634e-06
-4.55415e-06
-4.38008e-06
-4.20481e-06
-4.02898e-06
-3.85323e-06
-3.67818e-06
-3.50438e-06
-3.33238e-06
-3.16268e-06
-2.99574e-06
-2.83198e-06
-2.67179e-06
-2.51553e-06
-2.36349e-06
-2.21597e-06
-2.0732e-06
-1.93535e-06
-1.80261e-06
-1.67508e-06
-1.55287e-06
-1.43604e-06
-1.32463e-06
-1.21862e-06
-1.11799e-06
-1.0227e-06
-9.32652e-07
-8.47758e-07
-7.67905e-07
-6.92947e-07
-6.22758e-07
-5.5714e-07
-4.96016e-07
-4.3903e-07
-3.86394e-07
-3.37133e-07
-2.92638e-07
-2.49652e-07
-2.1379e-07
-1.74105e-07
-1.49832e-07
-1.065e-07
-1.02921e-07
-3.99235e-08
-7.90032e-08
3.7002e-08
-8.85856e-08
1.39358e-07
-1.43621e-07
2.78793e-07
-2.46002e-07
4.47589e-07
-3.68151e-07
5.99961e-07
-4.40264e-07
6.52453e-07
-3.71532e-07
5.30576e-07
-1.21141e-07
2.55231e-07
2.17242e-07
9.05695e-10
4.05823e-07
3.81657e-08
1.8492e-07
5.47671e-07
-5.68575e-06
-5.51191e-06
-5.33554e-06
-5.15669e-06
-4.9757e-06
-4.79316e-06
-4.60959e-06
-4.42553e-06
-4.24151e-06
-4.05805e-06
-3.87569e-06
-3.69491e-06
-3.51621e-06
-3.34003e-06
-3.16679e-06
-2.99688e-06
-2.83067e-06
-2.66846e-06
-2.51056e-06
-2.35725e-06
-2.20874e-06
-2.06523e-06
-1.92688e-06
-1.7938e-06
-1.66611e-06
-1.54386e-06
-1.42711e-06
-1.31586e-06
-1.21009e-06
-1.10976e-06
-1.0148e-06
-9.25128e-07
-8.4063e-07
-7.61187e-07
-6.86649e-07
-6.16882e-07
-5.51683e-07
-4.90969e-07
-4.34385e-07
-3.82132e-07
-3.33243e-07
-2.89092e-07
-2.46447e-07
-2.10872e-07
-1.71509e-07
-1.4744e-07
-1.04456e-07
-1.00941e-07
-3.84054e-08
-7.72976e-08
3.79766e-08
-8.70028e-08
1.39738e-07
-1.42028e-07
2.78579e-07
-2.44362e-07
4.46948e-07
-3.66661e-07
5.99297e-07
-4.39376e-07
6.5234e-07
-3.71754e-07
5.31498e-07
-1.22748e-07
2.57418e-07
2.14251e-07
4.6021e-09
4.01338e-07
4.43315e-08
1.78204e-07
5.58702e-07
-5.83817e-06
-5.64322e-06
-5.44802e-06
-5.2524e-06
-5.05654e-06
-4.86084e-06
-4.66567e-06
-4.47141e-06
-4.27846e-06
-4.08722e-06
-3.89811e-06
-3.7115e-06
-3.5278e-06
-3.34735e-06
-3.17051e-06
-2.99759e-06
-2.82887e-06
-2.66462e-06
-2.50507e-06
-2.35046e-06
-2.20096e-06
-2.05672e-06
-1.91785e-06
-1.78446e-06
-1.65661e-06
-1.53435e-06
-1.41769e-06
-1.30662e-06
-1.20111e-06
-1.1011e-06
-1.00651e-06
-9.17232e-07
-8.33154e-07
-7.54145e-07
-6.8005e-07
-6.10727e-07
-5.45968e-07
-4.85686e-07
-4.29522e-07
-3.77671e-07
-3.29172e-07
-2.85381e-07
-2.43092e-07
-2.0782e-07
-1.68793e-07
-1.4494e-07
-1.02318e-07
-9.88719e-08
-3.68167e-08
-7.55173e-08
3.8997e-08
-8.53512e-08
1.40137e-07
-1.40363e-07
2.78353e-07
-2.42642e-07
4.46268e-07
-3.65092e-07
5.98585e-07
-4.38428e-07
6.52199e-07
-3.71966e-07
5.32441e-07
-1.24415e-07
2.59692e-07
2.11118e-07
8.46973e-09
3.96627e-07
5.07757e-08
1.71192e-07
5.70327e-07
-5.99243e-06
-5.77607e-06
-5.56175e-06
-5.34911e-06
-5.13815e-06
-4.92908e-06
-4.72212e-06
-4.5175e-06
-4.31547e-06
-4.11633e-06
-3.92035e-06
-3.72783e-06
-3.53904e-06
-3.35427e-06
-3.17378e-06
-2.99779e-06
-2.82654e-06
-2.66022e-06
-2.49902e-06
-2.3431e-06
-2.1926e-06
-2.04763e-06
-1.90827e-06
-1.77458e-06
-1.64659e-06
-1.52433e-06
-1.40778e-06
-1.29692e-06
-1.19169e-06
-1.09203e-06
-9.97821e-07
-9.08964e-07
-8.25329e-07
-7.46779e-07
-6.73149e-07
-6.04293e-07
-5.39997e-07
-4.80166e-07
-4.24443e-07
-3.73013e-07
-3.2492e-07
-2.81507e-07
-2.39589e-07
-2.04633e-07
-1.65958e-07
-1.4233e-07
-1.00086e-07
-9.67149e-08
-3.51579e-08
-7.36628e-08
4.00627e-08
-8.36308e-08
1.40553e-07
-1.38625e-07
2.78115e-07
-2.40843e-07
4.45548e-07
-3.63442e-07
5.97825e-07
-4.3742e-07
6.5203e-07
-3.72166e-07
5.33402e-07
-1.26138e-07
2.62043e-07
2.07856e-07
1.24894e-08
3.91709e-07
5.74676e-08
1.63915e-07
5.8251e-07
-6.14793e-06
-5.90993e-06
-5.67628e-06
-5.44643e-06
-5.22018e-06
-4.99758e-06
-4.77868e-06
-4.56357e-06
-4.35236e-06
-4.14521e-06
-3.94228e-06
-3.74377e-06
-3.54984e-06
-3.3607e-06
-3.17651e-06
-2.99744e-06
-2.82363e-06
-2.65522e-06
-2.49236e-06
-2.33513e-06
-2.18364e-06
-2.03796e-06
-1.89811e-06
-1.76413e-06
-1.63602e-06
-1.51378e-06
-1.39737e-06
-1.28674e-06
-1.18182e-06
-1.08253e-06
-9.88732e-07
-9.00321e-07
-8.17155e-07
-7.39088e-07
-6.65948e-07
-5.97581e-07
-5.3377e-07
-4.74412e-07
-4.19148e-07
-3.68157e-07
-3.20488e-07
-2.7747e-07
-2.3594e-07
-2.01313e-07
-1.63003e-07
-1.39612e-07
-9.77603e-08
-9.44701e-08
-3.34298e-08
-7.17342e-08
4.11728e-08
-8.18416e-08
1.40986e-07
-1.36815e-07
2.77863e-07
-2.38963e-07
4.44787e-07
-3.6171e-07
5.97016e-07
-4.36351e-07
6.51831e-07
-3.72352e-07
5.34375e-07
-1.2791e-07
2.64461e-07
2.04477e-07
1.66405e-08
3.86609e-07
6.43736e-08
1.56407e-07
5.95206e-07
-6.30407e-06
-6.04428e-06
-5.79116e-06
-5.54396e-06
-5.3023e-06
-5.06604e-06
-4.8351e-06
-4.6094e-06
-4.38892e-06
-4.17369e-06
-3.96376e-06
-3.7592e-06
-3.56009e-06
-3.36654e-06
-3.17863e-06
-2.99645e-06
-2.82008e-06
-2.64959e-06
-2.48505e-06
-2.32653e-06
-2.17406e-06
-2.02767e-06
-1.88735e-06
-1.7531e-06
-1.6249e-06
-1.5027e-06
-1.38646e-06
-1.27609e-06
-1.1715e-06
-1.0726e-06
-9.79243e-07
-8.91304e-07
-8.08632e-07
-7.31073e-07
-6.58446e-07
-5.90592e-07
-5.27288e-07
-4.68423e-07
-4.13639e-07
-3.63105e-07
-3.15879e-07
-2.73271e-07
-2.32144e-07
-1.97862e-07
-1.59931e-07
-1.36788e-07
-9.53425e-08
-9.21382e-08
-3.16332e-08
-6.9732e-08
4.23268e-08
-7.99837e-08
1.41436e-07
-1.34933e-07
2.77596e-07
-2.37003e-07
4.43985e-07
-3.59898e-07
5.96155e-07
-4.3522e-07
6.51599e-07
-3.72523e-07
5.35356e-07
-1.29724e-07
2.66935e-07
2.00996e-07
2.09008e-08
3.81353e-07
7.14573e-08
1.48705e-07
6.08364e-07
-6.46025e-06
-6.1786e-06
-5.90592e-06
-5.64129e-06
-5.38414e-06
-5.13417e-06
-4.89111e-06
-4.65476e-06
-4.42497e-06
-4.20161e-06
-3.98463e-06
-3.77399e-06
-3.56969e-06
-3.37171e-06
-3.18007e-06
-2.99478e-06
-2.81583e-06
-2.64326e-06
-2.47707e-06
-2.31727e-06
-2.16383e-06
-2.01675e-06
-1.87599e-06
-1.74149e-06
-1.61322e-06
-1.49109e-06
-1.37503e-06
-1.26495e-06
-1.16072e-06
-1.06224e-06
-9.69352e-07
-8.81912e-07
-7.9976e-07
-7.22735e-07
-6.50645e-07
-5.83328e-07
-5.20552e-07
-4.62201e-07
-4.07917e-07
-3.57859e-07
-3.11093e-07
-2.68912e-07
-2.28203e-07
-1.94279e-07
-1.56742e-07
-1.33857e-07
-9.28334e-08
-8.97197e-08
-2.97687e-08
-6.76566e-08
4.35236e-08
-7.80572e-08
1.419e-07
-1.32978e-07
2.77314e-07
-2.34963e-07
4.43139e-07
-3.58003e-07
5.95244e-07
-4.34027e-07
6.51334e-07
-3.72675e-07
5.36343e-07
-1.31576e-07
2.69454e-07
1.97428e-07
2.52469e-08
3.75968e-07
7.86794e-08
1.40849e-07
6.21925e-07
-6.61587e-06
-6.31235e-06
-6.0201e-06
-5.73802e-06
-5.46536e-06
-5.20164e-06
-4.94645e-06
-4.69943e-06
-4.46029e-06
-4.22879e-06
-4.00475e-06
-3.78803e-06
-3.57852e-06
-3.37611e-06
-3.18074e-06
-2.99234e-06
-2.81084e-06
-2.6362e-06
-2.46838e-06
-2.3073e-06
-2.15292e-06
-2.00518e-06
-1.86399e-06
-1.72928e-06
-1.60096e-06
-1.47893e-06
-1.36309e-06
-1.25332e-06
-1.14948e-06
-1.05145e-06
-9.59058e-07
-8.72145e-07
-7.90539e-07
-7.14073e-07
-6.42545e-07
-5.75789e-07
-5.13564e-07
-4.55748e-07
-4.01983e-07
-3.5242e-07
-3.06131e-07
-2.64394e-07
-2.24119e-07
-1.90566e-07
-1.53437e-07
-1.30821e-07
-9.0234e-08
-8.72153e-08
-2.78372e-08
-6.55085e-08
4.47626e-08
-7.60623e-08
1.4238e-07
-1.3095e-07
2.77016e-07
-2.32841e-07
4.4225e-07
-3.56026e-07
5.9428e-07
-4.32771e-07
6.51035e-07
-3.72808e-07
5.37329e-07
-1.33458e-07
2.72007e-07
1.93789e-07
2.96541e-08
3.70482e-07
8.59981e-08
1.32882e-07
6.35825e-07
-6.77034e-06
-6.44502e-06
-6.13325e-06
-5.83375e-06
-5.5456e-06
-5.26817e-06
-5.00086e-06
-4.74317e-06
-4.49469e-06
-4.25506e-06
-4.02397e-06
-3.80118e-06
-3.58647e-06
-3.37966e-06
-3.18057e-06
-2.98908e-06
-2.80505e-06
-2.62837e-06
-2.45892e-06
-2.29661e-06
-2.14131e-06
-1.99293e-06
-1.85135e-06
-1.71645e-06
-1.58812e-06
-1.46622e-06
-1.35062e-06
-1.24119e-06
-1.13778e-06
-1.04023e-06
-9.4836e-07
-8.62001e-07
-7.80968e-07
-7.05088e-07
-6.34147e-07
-5.67976e-07
-5.06325e-07
-4.49063e-07
-3.95838e-07
-3.46788e-07
-3.00996e-07
-2.59719e-07
-2.19892e-07
-1.86726e-07
-1.50018e-07
-1.27681e-07
-8.75453e-08
-8.46257e-08
-2.58396e-08
-6.32882e-08
4.6043e-08
-7.39991e-08
1.42872e-07
-1.2885e-07
2.767e-07
-2.30638e-07
4.41316e-07
-3.53966e-07
5.93263e-07
-4.31452e-07
6.50699e-07
-3.72919e-07
5.3831e-07
-1.35362e-07
2.74579e-07
1.90097e-07
3.40963e-08
3.64925e-07
9.3369e-08
1.24848e-07
6.49989e-07
-6.92305e-06
-6.57606e-06
-6.2449e-06
-5.92808e-06
-5.62453e-06
-5.33343e-06
-5.05405e-06
-4.78576e-06
-4.52799e-06
-4.28026e-06
-4.04215e-06
-3.81332e-06
-3.59344e-06
-3.38225e-06
-3.17948e-06
-2.98493e-06
-2.7984e-06
-2.6197e-06
-2.44868e-06
-2.28515e-06
-2.12898e-06
-1.97999e-06
-1.83805e-06
-1.703e-06
-1.57468e-06
-1.45294e-06
-1.33763e-06
-1.22857e-06
-1.12561e-06
-1.02857e-06
-9.37256e-07
-8.51481e-07
-7.71049e-07
-6.9578e-07
-6.25453e-07
-5.59889e-07
-4.98834e-07
-4.42148e-07
-3.89483e-07
-3.40966e-07
-2.95687e-07
-2.54888e-07
-2.15525e-07
-1.82758e-07
-1.46486e-07
-1.24438e-07
-8.47685e-08
-8.19515e-08
-2.37768e-08
-6.09961e-08
4.73638e-08
-7.18677e-08
1.43377e-07
-1.26676e-07
2.76365e-07
-2.28352e-07
4.40336e-07
-3.51823e-07
5.92192e-07
-4.30069e-07
6.50325e-07
-3.73005e-07
5.39282e-07
-1.37283e-07
2.77159e-07
1.86368e-07
3.85468e-08
3.59329e-07
1.00745e-07
1.16798e-07
6.64337e-07
-7.07341e-06
-6.70498e-06
-6.35459e-06
-6.02061e-06
-5.70177e-06
-5.39713e-06
-5.10578e-06
-4.82696e-06
-4.55996e-06
-4.3042e-06
-4.05914e-06
-3.82432e-06
-3.59933e-06
-3.38379e-06
-3.17739e-06
-2.97982e-06
-2.79083e-06
-2.61016e-06
-2.43759e-06
-2.2729e-06
-2.11588e-06
-1.96634e-06
-1.82407e-06
-1.6889e-06
-1.56064e-06
-1.4391e-06
-1.32409e-06
-1.21545e-06
-1.11297e-06
-1.01647e-06
-9.25745e-07
-8.40585e-07
-7.6078e-07
-6.86152e-07
-6.16462e-07
-5.51531e-07
-4.91095e-07
-4.35006e-07
-3.82921e-07
-3.34956e-07
-2.90208e-07
-2.49903e-07
-2.11018e-07
-1.78664e-07
-1.42842e-07
-1.21093e-07
-8.19046e-08
-7.91935e-08
-2.16495e-08
-5.86329e-08
4.87242e-08
-6.96683e-08
1.43893e-07
-1.2443e-07
2.76011e-07
-2.25984e-07
4.3931e-07
-3.49595e-07
5.91066e-07
-4.28621e-07
6.49911e-07
-3.73065e-07
5.4024e-07
-1.39211e-07
2.79733e-07
1.82621e-07
4.29774e-08
3.53726e-07
1.08078e-07
1.08782e-07
6.78784e-07
-7.22084e-06
-6.83125e-06
-6.46188e-06
-6.11093e-06
-5.777e-06
-5.45896e-06
-5.15578e-06
-4.86653e-06
-4.59042e-06
-4.32672e-06
-4.07478e-06
-3.83405e-06
-3.604e-06
-3.3842e-06
-3.17421e-06
-2.97369e-06
-2.78229e-06
-2.5997e-06
-2.42564e-06
-2.25983e-06
-2.102e-06
-1.95194e-06
-1.80939e-06
-1.67414e-06
-1.54597e-06
-1.42467e-06
-1.31002e-06
-1.20182e-06
-1.09986e-06
-1.00394e-06
-9.13827e-07
-8.2931e-07
-7.50162e-07
-6.76202e-07
-6.07176e-07
-5.42902e-07
-4.83107e-07
-4.27636e-07
-3.76153e-07
-3.28758e-07
-2.84559e-07
-2.44766e-07
-2.06373e-07
-1.74447e-07
-1.39088e-07
-1.17647e-07
-7.89549e-08
-7.63524e-08
-1.94586e-08
-5.61993e-08
5.01231e-08
-6.74012e-08
1.4442e-07
-1.22111e-07
2.75637e-07
-2.23533e-07
4.38235e-07
-3.47284e-07
5.89884e-07
-4.27107e-07
6.49457e-07
-3.73097e-07
5.41178e-07
-1.41141e-07
2.82288e-07
1.78875e-07
4.73589e-08
3.4815e-07
1.15314e-07
1.00854e-07
6.93236e-07
-7.3648e-06
-6.95439e-06
-6.56635e-06
-6.1987e-06
-5.8499e-06
-5.51865e-06
-5.2038e-06
-4.90429e-06
-4.61919e-06
-4.34766e-06
-4.08895e-06
-3.8424e-06
-3.60739e-06
-3.38339e-06
-3.1699e-06
-2.96648e-06