/*--------------------------------*- C++ -*----------------------------------*\
| =========                 |                                                 |
| \\      /  F ield         | OpenFOAM: The Open Source CFD Toolbox           |
|  \\    /   O peration     | Version:  2412                                  |
|   \\  /    A nd           | Website:  www.openfoam.com                      |
|    \\/     M anipulation  |                                                 |
\*---------------------------------------------------------------------------*/
FoamFile
{
    version     2.0;
    format      ascii;
    arch        "LSB;label=32;scalar=64";
    class       volScalarField;
    location    "16.5";
    object      p;
}
// * * * * * * * * * * * * * * * * * * * * * * * * * * * * * * * * * * * * * //

dimensions      [0 2 -2 0 0 0 0];

internalField   nonuniform List<scalar> 
5285
(
0.00095749
0.000957748
0.00095857
0.000959838
0.000961536
0.000963652
0.000966168
0.00096907
0.000972347
0.000975988
0.00097998
0.000984315
0.000988984
0.000993981
0.000999303
0.00100495
0.00101092
0.0010172
0.00102382
0.00103075
0.00103801
0.0010456
0.00105351
0.00106175
0.00107032
0.00107922
0.00108846
0.00109803
0.00110793
0.00111818
0.00112878
0.00113972
0.00115101
0.00116265
0.00117465
0.00118701
0.00119974
0.00121283
0.0012263
0.00124014
0.00125437
0.00126898
0.00128398
0.00129937
0.00131516
0.00133136
0.00134796
0.00136497
0.0013824
0.00140025
0.00141853
0.00143724
0.00145638
0.00147597
0.001496
0.000957431
0.000957689
0.000958509
0.000959777
0.000961474
0.000963588
0.000966102
0.000969002
0.000972277
0.000975915
0.000979904
0.000984236
0.000988901
0.000993894
0.000999212
0.00100485
0.00101081
0.0010171
0.00102371
0.00103064
0.00103789
0.00104547
0.00105337
0.0010616
0.00107017
0.00107906
0.00108828
0.00109784
0.00110774
0.00111797
0.00112855
0.00113948
0.00115076
0.00116239
0.00117437
0.00118671
0.00119942
0.0012125
0.00122595
0.00123977
0.00125397
0.00126856
0.00128353
0.0012989
0.00131466
0.00133082
0.00134739
0.00136437
0.00138176
0.00139957
0.00141781
0.00143647
0.00145557
0.00147511
0.00149509
0.000957312
0.000957569
0.000958389
0.000959654
0.000961349
0.00096346
0.00096597
0.000968866
0.000972136
0.000975768
0.000979752
0.000984077
0.000988735
0.00099372
0.000999029
0.00100466
0.00101061
0.00101689
0.00102348
0.0010304
0.00103764
0.0010452
0.00105309
0.00106131
0.00106985
0.00107873
0.00108793
0.00109747
0.00110734
0.00111756
0.00112811
0.00113901
0.00115026
0.00116186
0.00117381
0.00118612
0.00119879
0.00121183
0.00122524
0.00123902
0.00125317
0.00126771
0.00128263
0.00129794
0.00131365
0.00132975
0.00134625
0.00136316
0.00138048
0.00139822
0.00141637
0.00143495
0.00145395
0.00147339
0.00149327
0.000957133
0.000957391
0.000958208
0.000959471
0.000961162
0.000963269
0.000965773
0.000968663
0.000971925
0.000975549
0.000979524
0.000983838
0.000988485
0.000993459
0.000998755
0.00100437
0.00101031
0.00101657
0.00102315
0.00103005
0.00103727
0.00104481
0.00105268
0.00106087
0.00106938
0.00107823
0.0010874
0.00109691
0.00110675
0.00111693
0.00112745
0.00113831
0.00114951
0.00116107
0.00117297
0.00118523
0.00119785
0.00121083
0.00122417
0.00123789
0.00125198
0.00126644
0.00128129
0.00129652
0.00131213
0.00132814
0.00134455
0.00136136
0.00137857
0.00139619
0.00141422
0.00143267
0.00145154
0.00147083
0.00149054
0.000956896
0.000957152
0.000957968
0.000959227
0.000960913
0.000963014
0.000965511
0.000968392
0.000971645
0.000975258
0.00097922
0.000983521
0.000988154
0.000993111
0.000998391
0.00100399
0.00100991
0.00101614
0.0010227
0.00102957
0.00103677
0.00104428
0.00105212
0.00106028
0.00106876
0.00107757
0.00108671
0.00109617
0.00110597
0.0011161
0.00112657
0.00113737
0.00114852
0.00116001
0.00117185
0.00118405
0.00119659
0.0012095
0.00122276
0.00123639
0.00125039
0.00126476
0.0012795
0.00129462
0.00131013
0.00132601
0.00134229
0.00135896
0.00137603
0.0013935
0.00141137
0.00142964
0.00144833
0.00146742
0.00148693
0.000956599
0.000956855
0.000957667
0.000958922
0.000960603
0.000962695
0.000965183
0.000968054
0.000971294
0.000974893
0.00097884
0.000983125
0.000987739
0.000992678
0.000997936
0.00100351
0.00100941
0.00101561
0.00102214
0.00102899
0.00103615
0.00104363
0.00105142
0.00105954
0.00106798
0.00107675
0.00108583
0.00109525
0.00110499
0.00111506
0.00112546
0.0011362
0.00114728
0.0011587
0.00117046
0.00118257
0.00119503
0.00120784
0.001221
0.00123452
0.00124841
0.00126266
0.00127728
0.00129226
0.00130763
0.00132337
0.00133948
0.00135599
0.00137288
0.00139015
0.00140782
0.00142588
0.00144434
0.0014632
0.00148245
0.000956244
0.000956499
0.000957307
0.000958557
0.00096023
0.000962313
0.000964791
0.000967648
0.000970874
0.000974457
0.000978386
0.000982651
0.000987243
0.000992158
0.000997391
0.00100294
0.0010088
0.00101498
0.00102147
0.00102828
0.0010354
0.00104284
0.00105059
0.00105866
0.00106705
0.00107576
0.00108479
0.00109414
0.00110382
0.00111382
0.00112415
0.00113481
0.0011458
0.00115713
0.0011688
0.00118081
0.00119316
0.00120586
0.0012189
0.0012323
0.00124605
0.00126016
0.00127462
0.00128945
0.00130464
0.0013202
0.00133613
0.00135244
0.00136911
0.00138617
0.0014036
0.00142141
0.0014396
0.00145817
0.00147712
0.00151654
0.00153781
0.00155999
0.00158315
0.00160732
0.00163259
0.00165901
0.00168665
0.0017156
0.00174594
0.00177775
0.00181114
0.00184621
0.00188307
0.00192186
0.00196271
0.0015156
0.00153687
0.00155906
0.00158221
0.00160638
0.00163164
0.00165806
0.0016857
0.00171464
0.00174497
0.00177678
0.00181016
0.00184521
0.00188207
0.00192084
0.00196167
0.00151373
0.001535
0.00155717
0.00158031
0.00160448
0.00162974
0.00165615
0.00168378
0.00171272
0.00174303
0.00177483
0.00180819
0.00184323
0.00188005
0.0019188
0.00195959
0.00151092
0.00153218
0.00155435
0.00157748
0.00160163
0.00162688
0.00165328
0.00168089
0.00170981
0.00174011
0.00177188
0.00180521
0.00184022
0.001877
0.00191569
0.00195642
0.00150719
0.00152845
0.0015506
0.00157372
0.00159787
0.00162311
0.00164949
0.0016771
0.001706
0.00173628
0.00176803
0.00180133
0.0018363
0.00187304
0.00191167
0.00195232
0.00150257
0.00152382
0.00154598
0.00156911
0.00159328
0.00161853
0.00164494
0.00167257
0.0017015
0.00173181
0.00176359
0.00179693
0.00183193
0.0018687
0.00190736
0.00194803
0.00149702
0.00151821
0.00154031
0.00156339
0.0015875
0.00161271
0.00163906
0.00166665
0.00169553
0.00172579
0.00175752
0.00179081
0.00182575
0.00186246
0.00190105
0.00194165
0.00149043
0.00151124
0.00153295
0.00155561
0.00157925
0.00160395
0.00162974
0.00165671
0.00168491
0.00171441
0.0017453
0.00177765
0.00181156
0.0018471
0.00188439
0.00192353
0.00148271
0.00150308
0.00152431
0.00154643
0.0015695
0.00159357
0.00161869
0.00164492
0.00167232
0.00170095
0.00173088
0.00176218
0.00179493
0.00182921
0.0018651
0.00190269
0.00147409
0.00149393
0.00151458
0.00153609
0.00155849
0.00158183
0.00160616
0.00163152
0.00165798
0.00168559
0.0017144
0.00174448
0.00177589
0.0018087
0.00184298
0.00187879
0.00146463
0.00148389
0.00150392
0.00152475
0.00154642
0.00156897
0.00159245
0.00161688
0.00164233
0.00166884
0.00169645
0.00172521
0.00175518
0.00178641
0.00181896
0.00185286
0.00145436
0.00147301
0.00149237
0.00151249
0.00153338
0.0015551
0.00157766
0.00160111
0.00162549
0.00165083
0.00167717
0.00170455
0.00173301
0.00176259
0.00179332
0.00182523
0.00144333
0.00146133
0.00147999
0.00149935
0.00151942
0.00154025
0.00156186
0.00158427
0.00160752
0.00163164
0.00165665
0.00168259
0.00170948
0.00173733
0.00176618
0.00179605
0.0014316
0.0014489
0.00146683
0.00148539
0.00150461
0.00152451
0.00154512
0.00156645
0.00158854
0.00161139
0.00163502
0.00165947
0.00168473
0.00171082
0.00173774
0.0017655
0.0014192
0.00143579
0.00145295
0.00147068
0.00148901
0.00150796
0.00152753
0.00154775
0.00156863
0.00159018
0.00161241
0.00163532
0.00165892
0.00168321
0.00170818
0.00173381
0.00140619
0.00142204
0.0014384
0.00145529
0.00147271
0.00149067
0.00150918
0.00152826
0.00154791
0.00156813
0.00158892
0.00161029
0.00163221
0.00165469
0.00167768
0.00170118
0.00139262
0.00140771
0.00142326
0.00143928
0.00145576
0.00147272
0.00149016
0.00150808
0.00152648
0.00154535
0.0015647
0.0015845
0.00160474
0.00162539
0.00164643
0.00166779
0.00137854
0.00139286
0.00140759
0.00142271
0.00143825
0.00145419
0.00147054
0.00148729
0.00150443
0.00152196
0.00153985
0.00155809
0.00157665
0.00159549
0.00161458
0.00163384
0.00136401
0.00137754
0.00139143
0.00140566
0.00142024
0.00143516
0.00145041
0.00146598
0.00148187
0.00149805
0.0015145
0.00153119
0.00154808
0.00156514
0.0015823
0.00159951
0.00134907
0.00136181
0.00137485
0.00138818
0.0014018
0.00141569
0.00142985
0.00144426
0.00145889
0.00147373
0.00148875
0.00150391
0.00151916
0.00153447
0.00154975
0.00156495
0.00133377
0.00134572
0.00135792
0.00137035
0.00138301
0.00139588
0.00140895
0.00142219
0.00143559
0.00144911
0.00146272
0.00147637
0.00149002
0.00150361
0.00151707
0.00153032
0.00131817
0.00132933
0.00134068
0.00135221
0.00136392
0.00137578
0.00138777
0.00139987
0.00141204
0.00142427
0.00143649
0.00144868
0.00146077
0.0014727
0.00148439
0.00149576
0.00130231
0.00131268
0.00132319
0.00133384
0.0013446
0.00135546
0.00136639
0.00137736
0.00138834
0.0013993
0.00141018
0.00142094
0.00143151
0.00144183
0.00145183
0.0014614
0.00128624
0.00129583
0.00130551
0.00131528
0.00132512
0.00133499
0.00134488
0.00135475
0.00136456
0.00137428
0.00138386
0.00139323
0.00140235
0.00141113
0.0014195
0.00142735
0.00127001
0.00127882
0.00128769
0.00129659
0.00130552
0.00131443
0.0013233
0.0013321
0.00134078
0.0013493
0.00135761
0.00136566
0.00137337
0.00138068
0.00138749
0.00139372
0.00125365
0.0012617
0.00126977
0.00127783
0.00128586
0.00129383
0.00130172
0.00130947
0.00131705
0.00132442
0.00133152
0.00133829
0.00134466
0.00135056
0.0013559
0.00136059
0.00123721
0.00124451
0.0012518
0.00125903
0.0012662
0.00127326
0.00128018
0.00128693
0.00129345
0.00129971
0.00130564
0.00131119
0.00131629
0.00132085
0.0013248
0.00132804
0.00122072
0.0012273
0.00123382
0.00124025
0.00124657
0.00125275
0.00125875
0.00126452
0.00127003
0.00127522
0.00128005
0.00128443
0.00128832
0.00129162
0.00129426
0.00129614
0.00120423
0.0012101
0.00121587
0.00122153
0.00122704
0.00123236
0.00123746
0.0012423
0.00124684
0.00125102
0.00125478
0.00125807
0.00126081
0.00126292
0.00126433
0.00126495
0.00118777
0.00119294
0.001198
0.0012029
0.00120762
0.00121212
0.00121637
0.00122032
0.00122392
0.00122714
0.00122989
0.00123214
0.0012338
0.00123481
0.00123507
0.0012345
0.00117136
0.00117587
0.00118023
0.0011844
0.00118837
0.00119208
0.00119551
0.00119861
0.00120133
0.00120362
0.00120543
0.0012067
0.00120735
0.00120731
0.0012065
0.00120484
0.00115504
0.00115891
0.00116259
0.00116607
0.00116931
0.00117227
0.00117491
0.0011772
0.00117908
0.00118051
0.00118142
0.00118177
0.00118147
0.00118047
0.00117867
0.001176
0.00113884
0.00114208
0.00114513
0.00114793
0.00115047
0.00115272
0.00115462
0.00115613
0.00115722
0.00115783
0.00115791
0.00115739
0.00115621
0.00115431
0.0011516
0.001148
0.00112278
0.00112543
0.00112785
0.00113001
0.00113189
0.00113345
0.00113464
0.00113543
0.00113577
0.00113562
0.0011349
0.00113358
0.00113159
0.00112885
0.0011253
0.00112086
0.00110688
0.00110896
0.00111079
0.00111234
0.00111359
0.0011145
0.00111502
0.00111512
0.00111476
0.00111388
0.00111244
0.00111037
0.00110761
0.00110411
0.00109979
0.00109457
0.00109117
0.00109269
0.00109396
0.00109493
0.00109558
0.00109587
0.00109577
0.00109523
0.0010942
0.00109265
0.00109052
0.00108776
0.00108431
0.0010801
0.00107507
0.00106916
0.00107566
0.00107666
0.00107739
0.00107781
0.00107789
0.0010776
0.0010769
0.00107575
0.00107411
0.00107193
0.00106917
0.00106577
0.00106167
0.00105682
0.00105115
0.0010446
0.000955819
0.000956074
0.000956878
0.000958121
0.000959786
0.000961858
0.000964322
0.000967165
0.000970373
0.000973937
0.000977844
0.000982085
0.000986652
0.000991539
0.000996741
0.00100226
0.00100809
0.00101423
0.00102068
0.00102744
0.00103452
0.0010419
0.0010496
0.00105762
0.00106594
0.00107459
0.00108355
0.00109282
0.00110242
0.00111234
0.00112258
0.00113315
0.00114404
0.00115527
0.00116682
0.00117871
0.00119094
0.0012035
0.0012164
0.00122965
0.00124324
0.00125718
0.00127147
0.00128611
0.0013011
0.00131645
0.00133216
0.00134823
0.00136466
0.00138145
0.0013986
0.00141611
0.001434
0.00145224
0.00147085
0.000955322
0.000955575
0.000956373
0.000957609
0.000959264
0.000961324
0.000963773
0.000966597
0.000969785
0.000973326
0.000977208
0.000981421
0.000985958
0.000990812
0.000995979
0.00100146
0.00100724
0.00101334
0.00101974
0.00102646
0.00103348
0.0010408
0.00104844
0.00105639
0.00106464
0.00107321
0.00108209
0.00109128
0.00110079
0.00111061
0.00112075
0.00113121
0.00114198
0.00115309
0.00116451
0.00117626
0.00118834
0.00120075
0.00121349
0.00122656
0.00123996
0.00125371
0.00126779
0.00128221
0.00129697
0.00131208
0.00132753
0.00134332
0.00135946
0.00137594
0.00139277
0.00140995
0.00142747
0.00144534
0.00146356
0.00095476
0.000955012
0.000955805
0.000957032
0.000958675
0.000960721
0.000963153
0.000965957
0.000969123
0.000972637
0.000976491
0.000980673
0.000985176
0.000989993
0.00099512
0.00100056
0.0010063
0.00101234
0.00101869
0.00102535
0.00103231
0.00103957
0.00104713
0.00105501
0.00106318
0.00107166
0.00108045
0.00108955
0.00109895
0.00110866
0.00111869
0.00112902
0.00113967
0.00115063
0.00116191
0.00117351
0.00118542
0.00119766
0.00121021
0.00122309
0.00123629
0.00124981
0.00126367
0.00127784
0.00129235
0.00130718
0.00132234
0.00133783
0.00135365
0.0013698
0.00138627
0.00140307
0.00142019
0.00143765
0.00145542
0.000954135
0.000954385
0.000955172
0.00095639
0.000958021
0.000960051
0.000962463
0.000965246
0.000968386
0.000971872
0.000975694
0.000979841
0.000984306
0.000989083
0.000994166
0.000999553
0.00100524
0.00101123
0.00101752
0.00102411
0.001031
0.00103819
0.00104568
0.00105347
0.00106156
0.00106995
0.00107863
0.00108762
0.00109691
0.00110651
0.0011164
0.0011266
0.00113711
0.00114792
0.00115903
0.00117046
0.00118219
0.00119424
0.00120659
0.00121925
0.00123223
0.00124551
0.00125911
0.00127302
0.00128724
0.00130178
0.00131662
0.00133178
0.00134725
0.00136302
0.00137911
0.0013955
0.00141219
0.00142918
0.00144648
0.000953448
0.000953696
0.000954476
0.000955684
0.000957301
0.000959313
0.000961705
0.000964463
0.000967575
0.00097103
0.000974817
0.000978927
0.000983351
0.000988082
0.000993117
0.000998452
0.00100408
0.00101001
0.00101624
0.00102276
0.00102958
0.00103669
0.00104409
0.00105179
0.00105978
0.00106806
0.00107664
0.00108551
0.00109468
0.00110414
0.0011139
0.00112395
0.0011343
0.00114494
0.00115589
0.00116712
0.00117866
0.0011905
0.00120263
0.00121506
0.00122779
0.00124081
0.00125414
0.00126776
0.00128167
0.00129589
0.00131039
0.00132519
0.00134028
0.00135565
0.00137131
0.00138726
0.00140349
0.00141999
0.00143677
0.000952698
0.000952944
0.000953717
0.000954914
0.000956515
0.000958509
0.000960878
0.00096361
0.000966692
0.000970113
0.000973863
0.000977931
0.00098231
0.000986992
0.000991974
0.000997252
0.00100282
0.00100869
0.00101484
0.00102129
0.00102802
0.00103505
0.00104236
0.00104995
0.00105784
0.00106601
0.00107447
0.00108322
0.00109225
0.00110157
0.00111118
0.00112107
0.00113125
0.00114172
0.00115247
0.00116351
0.00117483
0.00118644
0.00119834
0.00121052
0.00122298
0.00123573
0.00124876
0.00126207
0.00127566
0.00128952
0.00130366
0.00131808
0.00133276
0.00134771
0.00136292
0.0013784
0.00139413
0.00141011
0.00142634
0.000951887
0.000952131
0.000952895
0.00095408
0.000955666
0.000957639
0.000959984
0.000962687
0.000965737
0.000969121
0.00097283
0.000976854
0.000981184
0.000985815
0.00099074
0.000995956
0.00100146
0.00100725
0.00101333
0.0010197
0.00102634
0.00103327
0.00104049
0.00104798
0.00105575
0.0010638
0.00107214
0.00108075
0.00108964
0.00109881
0.00110825
0.00111797
0.00112797
0.00113825
0.0011488
0.00115962
0.00117072
0.00118209
0.00119374
0.00120565
0.00121783
0.00123028
0.001243
0.00125597
0.00126921
0.00128271
0.00129646
0.00131047
0.00132472
0.00133922
0.00135396
0.00136894
0.00138414
0.00139957
0.00141522
0.000951015
0.000951256
0.000952012
0.000953184
0.000954752
0.000956704
0.000959023
0.000961695
0.00096471
0.000968056
0.000971721
0.000975697
0.000979976
0.00098455
0.000989414
0.000994565
0.001
0.00100572
0.00101171
0.00101799
0.00102454
0.00103137
0.00103848
0.00104586
0.00105351
0.00106144
0.00106964
0.0010781
0.00108684
0.00109585
0.00110512
0.00111466
0.00112447
0.00113454
0.00114488
0.00115547
0.00116633
0.00117745
0.00118882
0.00120046
0.00121234
0.00122448
0.00123686
0.00124949
0.00126236
0.00127547
0.00128882
0.00130239
0.0013162
0.00133022
0.00134446
0.00135892
0.00137357
0.00138843
0.00140348
0.000950083
0.000950321
0.000951068
0.000952227
0.000953776
0.000955704
0.000957995
0.000960636
0.000963613
0.000966917
0.000970537
0.000974462
0.000978686
0.0009832
0.000987999
0.00099308
0.000998439
0.00100408
0.00100999
0.00101617
0.00102262
0.00102935
0.00103634
0.0010436
0.00105113
0.00105892
0.00106697
0.00107529
0.00108386
0.0010927
0.00110179
0.00111114
0.00112075
0.0011306
0.00114071
0.00115107
0.00116168
0.00117253
0.00118362
0.00119495
0.00120653
0.00121833
0.00123037
0.00124263
0.00125512
0.00126783
0.00128075
0.00129388
0.00130721
0.00132074
0.00133446
0.00134837
0.00136246
0.00137672
0.00139114
0.00094909
0.000949326
0.000950064
0.000951208
0.000952737
0.000954641
0.000956903
0.000959509
0.000962447
0.000965707
0.000969278
0.00097315
0.000977315
0.000981765
0.000986496
0.000991503
0.000996782
0.00100233
0.00100815
0.00101424
0.00102059
0.0010272
0.00103408
0.00104121
0.0010486
0.00105625
0.00106415
0.00107231
0.00108071
0.00108937
0.00109827
0.00110742
0.00111681
0.00112644
0.00113631
0.00114642
0.00115676
0.00116733
0.00117813
0.00118916
0.0012004
0.00121187
0.00122354
0.00123542
0.00124751
0.0012598
0.00127227
0.00128494
0.00129779
0.00131081
0.001324
0.00133734
0.00135084
0.00136449
0.00137827
0.00094804
0.000948271
0.000949
0.000950128
0.000951637
0.000953515
0.000955746
0.000958316
0.000961213
0.000964427
0.000967946
0.000971761
0.000975865
0.000980248
0.000984906
0.000989835
0.000995031
0.00100049
0.00100621
0.0010122
0.00101844
0.00102493
0.00103168
0.00103869
0.00104594
0.00105344
0.00106118
0.00106917
0.0010774
0.00108586
0.00109457
0.0011035
0.00111267
0.00112207
0.00113169
0.00114154
0.00115161
0.00116189
0.00117238
0.00118308
0.00119399
0.00120509
0.00121639
0.00122788
0.00123955
0.00125141
0.00126343
0.00127561
0.00128796
0.00130046
0.00131309
0.00132587
0.00133876
0.00135178
0.0013649
0.00094693
0.000947159
0.000947877
0.000948989
0.000950477
0.000952328
0.000954526
0.000957058
0.000959912
0.000963077
0.000966542
0.000970298
0.000974337
0.00097865
0.000983232
0.000988079
0.000993187
0.000998553
0.00100417
0.00101005
0.00101617
0.00102255
0.00102917
0.00103603
0.00104314
0.00105048
0.00105806
0.00106587
0.00107391
0.00108219
0.00109068
0.0010994
0.00110834
0.00111749
0.00112686
0.00113643
0.00114621
0.00115619
0.00116637
0.00117674
0.0011873
0.00119803
0.00120895
0.00122003
0.00123127
0.00124268
0.00125423
0.00126593
0.00127776
0.00128972
0.00130179
0.00131398
0.00132626
0.00133863
0.00135109
0.000945764
0.000945989
0.000946696
0.000947792
0.000949257
0.000951079
0.000953243
0.000955735
0.000958544
0.000961658
0.000965067
0.000968762
0.000972732
0.000976972
0.000981475
0.000986236
0.000991252
0.00099652
0.00100204
0.0010078
0.0010138
0.00102005
0.00102653
0.00103325
0.00104021
0.00104739
0.00105479
0.00106242
0.00107028
0.00107834
0.00108663
0.00109512
0.00110382
0.00111272
0.00112182
0.00113111
0.0011406
0.00115027
0.00116012
0.00117015
0.00118034
0.0011907
0.00120122
0.00121188
0.00122269
0.00123364
0.00124471
0.00125591
0.00126722
0.00127863
0.00129013
0.00130172
0.00131338
0.0013251
0.00133687
0.000944541
0.000944763
0.000945459
0.000946537
0.000947978
0.000949771
0.000951899
0.00095435
0.000957112
0.000960173
0.000963523
0.000967153
0.000971053
0.000975216
0.000979637
0.000984309
0.000989229
0.000994394
0.000999801
0.00100545
0.00101133
0.00101744
0.00102379
0.00103036
0.00103715
0.00104416
0.00105139
0.00105883
0.00106649
0.00107434
0.00108241
0.00109066
0.00109912
0.00110776
0.00111658
0.00112559
0.00113477
0.00114413
0.00115364
0.00116332
0.00117314
0.00118311
0.00119322
0.00120347
0.00121383
0.00122431
0.0012349
0.00124558
0.00125636
0.00126721
0.00127814
0.00128912
0.00130015
0.00131122
0.00132231
0.000943263
0.000943481
0.000944165
0.000945225
0.000946641
0.000948403
0.000950495
0.000952903
0.000955616
0.000958622
0.000961911
0.000965474
0.000969301
0.000973385
0.000977719
0.000982299
0.00098712
0.000992179
0.000997472
0.001003
0.00100875
0.00101473
0.00102092
0.00102734
0.00103397
0.00104081
0.00104786
0.0010551
0.00106255
0.00107019
0.00107803
0.00108605
0.00109424
0.00110262
0.00111117
0.00111988
0.00112875
0.00113777
0.00114695
0.00115626
0.00116571
0.00117529
0.00118499
0.0011948
0.00120471
0.00121472
0.00122481
0.00123498
0.00124522
0.00125551
0.00126585
0.00127623
0.00128662
0.00129703
0.00130744
0.00094193
0.000942144
0.000942816
0.000943857
0.000945248
0.000946978
0.000949031
0.000951395
0.000954057
0.000957007
0.000960233
0.000963726
0.000967477
0.000971478
0.000975724
0.000980208
0.000984926
0.000989875
0.000995051
0.00100045
0.00100607
0.00101191
0.00101795
0.00102421
0.00103067
0.00103733
0.00104419
0.00105124
0.00105848
0.0010659
0.0010735
0.00108127
0.00108921
0.00109731
0.00110557
0.00111398
0.00112254
0.00113123
0.00114006
0.00114901
0.00115807
0.00116725
0.00117653
0.0011859
0.00119535
0.00120488
0.00121448
0.00122413
0.00123383
0.00124355
0.00125331
0.00126307
0.00127284
0.00128259
0.00129231
0.000940544
0.000940754
0.000941413
0.000942434
0.000943799
0.000945496
0.00094751
0.000949828
0.000952437
0.000955328
0.000958489
0.00096191
0.000965583
0.0009695
0.000973653
0.000978039
0.000982651
0.000987487
0.000992542
0.000997813
0.0010033
0.00100899
0.00101488
0.00102097
0.00102726
0.00103374
0.00104041
0.00104725
0.00105427
0.00106147
0.00106883
0.00107635
0.00108402
0.00109185
0.00109981
0.00110792
0.00111615
0.00112451
0.00113298
0.00114156
0.00115024
0.00115901
0.00116786
0.00117679
0.00118579
0.00119483
0.00120393
0.00121306
0.00122221
0.00123137
0.00124054
0.00124969
0.00125883
0.00126792
0.00127697
0.000939105
0.00093931
0.000939957
0.000940958
0.000942296
0.000943959
0.000945932
0.000948202
0.000950758
0.000953588
0.000956682
0.000960029
0.000963622
0.000967451
0.00097151
0.000975794
0.000980297
0.000985017
0.000989948
0.000995087
0.00100043
0.00100597
0.00101171
0.00101763
0.00102374
0.00103004
0.0010365
0.00104314
0.00104994
0.00105691
0.00106402
0.00107129
0.00107869
0.00108623
0.0010939
0.00110169
0.0011096
0.00111761
0.00112573
0.00113393
0.00114222
0.00115058
0.00115901
0.0011675
0.00117603
0.00118459
0.00119318
0.00120179
0.0012104
0.001219
0.00122758
0.00123613
0.00124463
0.00125308
0.00126145
0.000937614
0.000937816
0.000938449
0.000939429
0.000940739
0.000942367
0.000944298
0.000946519
0.00094902
0.000951788
0.000954812
0.000958084
0.000961593
0.000965333
0.000969295
0.000973474
0.000977866
0.000982466
0.00098727
0.000992274
0.000997472
0.00100286
0.00100844
0.00101419
0.00102012
0.00102622
0.00103249
0.00103891
0.00104549
0.00105222
0.00105909
0.00106609
0.00107322
0.00108048
0.00108785
0.00109532
0.0011029
0.00111057
0.00111832
0.00112615
0.00113404
0.00114199
0.00114999
0.00115803
0.0011661
0.00117418
0.00118227
0.00119035
0.00119842
0.00120646
0.00121446
0.0012224
0.00123028
0.00123809
0.0012458
0.000936073
0.00093627
0.000936889
0.000937848
0.000939129
0.000940721
0.00094261
0.000944781
0.000947225
0.000949929
0.000952883
0.000956076
0.000959501
0.000963148
0.000967011
0.000971083
0.000975361
0.000979839
0.000984513
0.000989378
0.00099443
0.000999663
0.00100507
0.00101065
0.0010164
0.00102231
0.00102837
0.00103458
0.00104093
0.00104742
0.00105403
0.00106077
0.00106763
0.00107459
0.00108166
0.00108882
0.00109606
0.00110338
0.00111077
0.00111822
0.00112572
0.00113326
0.00114083
0.00114842
0.00115602
0.00116362
0.0011712
0.00117877
0.0011863
0.00119378
0.0012012
0.00120856
0.00121582
0.00122299
0.00123005
0.000934482
0.000934675
0.00093528
0.000936217
0.000937469
0.000939024
0.000940868
0.000942989
0.000945374
0.000948013
0.000950894
0.000954008
0.000957346
0.000960899
0.00096466
0.000968623
0.000972784
0.000977137
0.000981678
0.000986403
0.000991305
0.00099638
0.00100162
0.00100703
0.00101259
0.00101829
0.00102415
0.00103014
0.00103626
0.0010425
0.00104887
0.00105534
0.00106192
0.00106859
0.00107535
0.00108218
0.00108909
0.00109606
0.00110309
0.00111016
0.00111726
0.00112438
0.00113153
0.00113867
0.00114581
0.00115293
0.00116002
0.00116707
0.00117407
0.001181
0.00118785
0.00119462
0.00120128
0.00120783
0.00121425
0.000932844
0.000933032
0.000933623
0.000934537
0.000935759
0.000937276
0.000939075
0.000941144
0.000943469
0.000946041
0.000948848
0.000951881
0.00095513
0.000958587
0.000962244
0.000966096
0.000970138
0.000974364
0.00097877
0.000983351
0.000988101
0.000993015
0.000998086
0.00100331
0.00100868
0.00101419
0.00101983
0.0010256
0.00103149
0.00103749
0.0010436
0.0010498
0.00105609
0.00106247
0.00106892
0.00107544
0.00108201
0.00108863
0.00109529
0.00110198
0.00110868
0.0011154
0.00112211
0.00112882
0.00113549
0.00114214
0.00114874
0.00115528
0.00116175
0.00116814
0.00117443
0.00118062
0.00118669
0.00119263
0.00119842
0.000931158
0.000931341
0.000931917
0.000932809
0.000934
0.000935479
0.000937232
0.000939247
0.000941511
0.000944015
0.000946747
0.000949697
0.000952855
0.000956214
0.000959766
0.000963505
0.000967425
0.000971522
0.000975791
0.000980226
0.000984821
0.000989572
0.000994471
0.000999513
0.00100469
0.00101
0.00101543
0.00102097
0.00102663
0.00103238
0.00103823
0.00104416
0.00105017
0.00105625
0.00106239
0.00106859
0.00107482
0.00108109
0.00108739
0.0010937
0.00110001
0.00110632
0.00111261
0.00111887
0.00112509
0.00113126
0.00113737
0.00114341
0.00114936
0.00115522
0.00116096
0.00116659
0.00117208
0.00117742
0.0011826
0.000929426
0.000929605
0.000930166
0.000931034
0.000932193
0.000933633
0.00093534
0.0009373
0.000939503
0.000941937
0.000944592
0.000947457
0.000950524
0.000953783
0.000957227
0.000960851
0.000964649
0.000968615
0.000972744
0.000977031
0.00098147
0.000986055
0.00099078
0.000995637
0.00100062
0.00100572
0.00101094
0.00101626
0.00102167
0.00102718
0.00103277
0.00103843
0.00104416
0.00104994
0.00105577
0.00106164
0.00106754
0.00107346
0.0010794
0.00108533
0.00109125
0.00109715
0.00110302
0.00110884
0.00111462
0.00112032
0.00112596
0.0011315
0.00113694
0.00114227
0.00114748
0.00115255
0.00115747
0.00116223
0.00116682
0.000927649
0.000927823
0.000928369
0.000929213
0.000930341
0.000931741
0.0009334
0.000935305
0.000937444
0.000939808
0.000942385
0.000945164
0.000948137
0.000951295
0.000954631
0.000958138
0.000961811
0.000965644
0.000969632
0.00097377
0.000978051
0.000982469
0.000987017
0.000991688
0.000996476
0.00100137
0.00100637
0.00101146
0.00101664
0.0010219
0.00102723
0.00103262
0.00103806
0.00104355
0.00104907
0.00105462
0.00106018
0.00106576
0.00107133
0.00107688
0.00108241
0.00108791
0.00109336
0.00109876
0.00110409
0.00110934
0.0011145
0.00111956
0.0011245
0.00112932
0.001134
0.00113853
0.0011429
0.0011471
0.00115111
0.000925829
0.000925998
0.000926528
0.000927349
0.000928444
0.000929803
0.000931413
0.000933262
0.000935338
0.00093763
0.000940127
0.00094282
0.000945698
0.000948754
0.000951979
0.000955368
0.000958914
0.000962613
0.000966459
0.000970446
0.000974567
0.000978816
0.000983186
0.00098767
0.000992261
0.000996951
0.00100173
0.0010066
0.00101154
0.00101655
0.00102161
0.00102673
0.00103189
0.00103708
0.00104229
0.00104752
0.00105275
0.00105798
0.00106319
0.00106838
0.00107352
0.00107862
0.00108366
0.00108864
0.00109353
0.00109833
0.00110303
0.00110761
0.00111206
0.00111638
0.00112055
0.00112455
0.00112839
0.00113204
0.00113549
0.000923967
0.00092413
0.000924645
0.000925441
0.000926503
0.000927822
0.000929382
0.000931174
0.000933185
0.000935404
0.000937821
0.000940426
0.000943208
0.00094616
0.000949274
0.000952543
0.000955962
0.000959526
0.000963227
0.000967062
0.000971022
0.000975101
0.000979292
0.000983588
0.000987981
0.000992463
0.000997027
0.00100166
0.00100637
0.00101112
0.00101593
0.00102077
0.00102565
0.00103055
0.00103545
0.00104036
0.00104526
0.00105015
0.001055
0.00105982
0.00106459
0.00106929
0.00107393
0.00107849
0.00108295
0.00108731
0.00109155
0.00109567
0.00109965
0.00110348
0.00110715
0.00111064
0.00111396
0.00111708
0.00111999
0.000922063
0.000922222
0.00092272
0.000923492
0.000924521
0.000925797
0.000927308
0.000929042
0.000930987
0.000933132
0.000935468
0.000937984
0.000940669
0.000943516
0.000946517
0.000949666
0.000952957
0.000956383
0.00095994
0.000963621
0.000967419
0.000971328
0.000975339
0.000979446
0.000983641
0.000987915
0.00099226
0.000996668
0.00100113
0.00100564
0.00101019
0.00101476
0.00101935
0.00102395
0.00102856
0.00103315
0.00103772
0.00104227
0.00104677
0.00105123
0.00105562
0.00105994
0.00106418
0.00106833
0.00107237
0.00107629
0.00108009
0.00108376
0.00108727
0.00109063
0.00109381
0.00109682
0.00109963
0.00110224
0.00110464
0.00092012
0.000920273
0.000920756
0.000921502
0.000922497
0.000923732
0.000925192
0.000926867
0.000928746
0.000930817
0.00093307
0.000935496
0.000938083
0.000940825
0.000943712
0.00094674
0.000949901
0.00095319
0.000956601
0.000960127
0.000963763
0.0009675
0.000971331
0.000975248
0.000979244
0.000983309
0.000987436
0.000991616
0.000995841
0.0010001
0.00100439
0.00100869
0.001013
0.00101732
0.00102162
0.0010259
0.00103015
0.00103435
0.00103851
0.00104261
0.00104663
0.00105057
0.00105442
0.00105817
0.0010618
0.0010653
0.00106867
0.00107189
0.00107496
0.00107785
0.00108057
0.0010831
0.00108542
0.00108754
0.00108944
0.00092846
0.00093063
0.000932965
0.000935453
0.000938088
0.000940861
0.000943766
0.000946796
0.000949947
0.000953211
0.000956583
0.000960055
0.000963621
0.000967271
0.000970999
0.000974795
0.000978652
0.000982562
0.000986514
0.000990501
0.000994513
0.000998543
0.00100258
0.00100661
0.00101064
0.00101464
0.00101861
0.00102254
0.00102641
0.00103023
0.00103397
0.00103764
0.00104121
0.00104467
0.00104803