/*--------------------------------*- C++ -*----------------------------------*\
| =========                 |                                                 |
| \\      /  F ield         | OpenFOAM: The Open Source CFD Toolbox           |
|  \\    /   O peration     | Version:  2412                                  |
|   \\  /    A nd           | Website:  www.openfoam.com                      |
|    \\/     M anipulation  |                                                 |
\*---------------------------------------------------------------------------*/
FoamFile
{
    version     2.0;
    format      ascii;
    arch        "LSB;label=32;scalar=64";
    class       surfaceScalarField;
    location    "16.5";
    object      phi;
}
// * * * * * * * * * * * * * * * * * * * * * * * * * * * * * * * * * * * * * //

dimensions      [0 3 -1 0 0 0 0];

oriented        oriented;

internalField   nonuniform List<scalar> 
10424
(
0.00505063
1.28437e-07
3.42687e-12
0.00505025
3.755e-07
3.58455e-11
0.00504965
6.04783e-07
8.5559e-11
0.00504883
8.19068e-07
1.46301e-10
0.00504778
1.04953e-06
1.72842e-10
0.00504642
1.35602e-06
7.44973e-11
0.00504463
1.79474e-06
-2.3485e-10
0.00504225
2.37612e-06
-7.65096e-10
0.00503921
3.04646e-06
-1.41457e-09
0.0050355
3.70636e-06
-1.99946e-09
0.00503125
4.25173e-06
-2.32778e-09
0.00502664
4.61196e-06
-2.27226e-09
0.00502188
4.76784e-06
-1.80747e-09
0.00501713
4.7469e-06
-1.00295e-09
0.00501253
4.60474e-06
1.3509e-11
0.00500812
4.40378e-06
1.10006e-09
0.00500392
4.19729e-06
2.13544e-09
0.0049999
4.02173e-06
3.03729e-09
0.004996
3.89595e-06
3.76477e-09
0.00499217
3.8248e-06
4.31142e-09
0.00498836
3.80406e-06
4.6936e-09
0.00498453
3.82509e-06
4.93926e-09
0.00498065
3.87819e-06
5.07954e-09
0.00497669
3.95453e-06
5.14318e-09
0.00497264
4.04707e-06
5.15403e-09
0.00496848
4.15069e-06
5.12985e-09
0.00496421
4.26199e-06
5.08319e-09
0.00495983
4.37886e-06
5.02204e-09
0.00495532
4.50014e-06
4.95154e-09
0.00495069
4.62528e-06
4.87454e-09
0.00494594
4.75409e-06
4.79268e-09
0.00494104
4.88658e-06
4.70649e-09
0.00493602
5.02288e-06
4.61614e-09
0.00493085
5.16312e-06
4.52161e-09
0.00492554
5.30746e-06
4.42303e-09
0.00492008
5.45602e-06
4.32055e-09
0.00491446
5.60892e-06
4.21411e-09
0.00490869
5.76625e-06
4.1036e-09
0.00490276
5.92809e-06
3.98903e-09
0.00489666
6.09449e-06
3.87057e-09
0.00489039
6.2655e-06
3.74842e-09
0.00488395
6.44117e-06
3.62287e-09
0.00487732
6.62154e-06
3.49412e-09
0.00487051
6.80664e-06
3.36229e-09
0.00486351
6.99652e-06
3.22764e-09
0.00485632
7.19121e-06
3.09058e-09
0.00484893
7.39077e-06
2.9515e-09
0.00484133
7.59525e-06
2.81071e-09
0.00483352
7.80471e-06
2.66859e-09
0.0048255
8.01926e-06
2.52551e-09
0.00481726
8.23905e-06
2.38182e-09
0.00480879
8.46438e-06
2.23789e-09
0.00480009
8.69607e-06
2.09408e-09
0.00479115
8.93639e-06
1.95066e-09
9.19185e-06
0.00478196
1.80791e-09
0.00505063
2.56788e-07
0.00505025
7.50758e-07
0.00504965
1.20929e-06
0.00504883
1.63783e-06
0.00504778
2.09827e-06
0.00504643
2.70958e-06
0.00504464
3.58375e-06
0.00504227
4.74201e-06
0.00503924
6.07806e-06
0.00503555
7.39455e-06
0.00503132
8.48431e-06
0.00502673
9.20643e-06
0.00502197
9.52206e-06
0.00501723
9.48534e-06
0.00501263
9.20644e-06
0.00500823
8.80934e-06
0.00500402
8.4001e-06
0.00499999
8.05143e-06
0.00499609
7.80111e-06
0.00499225
7.65906e-06
0.00498844
7.61713e-06
0.00498461
7.65831e-06
0.00498072
7.76339e-06
0.00497676
7.91488e-06
0.00497271
8.09878e-06
0.00496856
8.30493e-06
0.00496429
8.52652e-06
0.00495991
8.75936e-06
0.00495541
9.0011e-06
0.00495079
9.25062e-06
0.00494603
9.50753e-06
0.00494115
9.77185e-06
0.00493613
1.00438e-05
0.00493097
1.03236e-05
0.00492566
1.06117e-05
0.00492021
1.09081e-05
0.0049146
1.12132e-05
0.00490884
1.15272e-05
0.00490292
1.18501e-05
0.00489683
1.21822e-05
0.00489058
1.25234e-05
0.00488414
1.28739e-05
0.00487753
1.32337e-05
0.00487073
1.3603e-05
0.00486375
1.39817e-05
0.00485657
1.43701e-05
0.00484919
1.47681e-05
0.00484161
1.51758e-05
0.00483382
1.55935e-05
0.00482582
1.60212e-05
0.0048176
1.64594e-05
0.00480916
1.69084e-05
0.00480048
1.737e-05
0.00479157
1.78485e-05
1.83561e-05
0.00478241
0.00505063
3.84959e-07
0.00505025
1.12546e-06
0.00504965
1.81306e-06
0.00504883
2.4557e-06
0.00504779
3.1451e-06
0.00504644
4.05814e-06
0.00504466
5.36197e-06
0.00504231
7.08932e-06
0.00503931
9.08333e-06
0.00503565
1.1051e-05
0.00503145
1.26839e-05
0.00502689
1.3771e-05
0.00502215
1.4253e-05
0.00501743
1.4209e-05
0.00501284
1.3802e-05
0.00500843
1.32161e-05
0.00500422
1.26094e-05
0.00500018
1.20906e-05
0.00499626
1.17168e-05
0.00499242
1.15033e-05
0.0049886
1.14385e-05
0.00498476
1.14976e-05
0.00498087
1.16522e-05
0.00497691
1.18764e-05
0.00497286
1.21493e-05
0.00496871
1.24559e-05
0.00496445
1.27859e-05
0.00496007
1.3133e-05
0.00495558
1.34937e-05
0.00495097
1.38663e-05
0.00494622
1.42501e-05
0.00494135
1.46451e-05
0.00493634
1.50515e-05
0.0049312
1.54699e-05
0.00492591
1.59005e-05
0.00492047
1.63438e-05
0.00491489
1.68e-05
0.00490914
1.72694e-05
0.00490324
1.77522e-05
0.00489718
1.82485e-05
0.00489094
1.87586e-05
0.00488453
1.92825e-05
0.00487794
1.98203e-05
0.00487118
2.03721e-05
0.00486422
2.0938e-05
0.00485707
2.15181e-05
0.00484973
2.21126e-05
0.00484218
2.27216e-05
0.00483443
2.33452e-05
0.00482647
2.39837e-05
0.00481829
2.46376e-05
0.00480989
2.53076e-05
0.00480126
2.59958e-05
0.0047924
2.67084e-05
2.74625e-05
0.0047833
0.00505063
5.12863e-07
0.00505026
1.49932e-06
0.00504965
2.41573e-06
0.00504884
3.27219e-06
0.00504779
4.1891e-06
0.00504645
5.39942e-06
0.00504469
7.12451e-06
0.00504237
9.40967e-06
0.0050394
1.20504e-05
0.00503579
1.46614e-05
0.00503164
1.68354e-05
0.00502712
1.8292e-05
0.00502242
1.895e-05
0.00501772
1.89109e-05
0.00501313
1.83882e-05
0.00500872
1.76241e-05
0.00500451
1.68276e-05
0.00500045
1.61432e-05
0.00499652
1.56473e-05
0.00499267
1.53616e-05
0.00498883
1.52717e-05
0.00498498
1.53455e-05
0.00498109
1.5546e-05
0.00497713
1.58392e-05
0.00497308
1.61978e-05
0.00496893
1.66017e-05
0.00496468
1.70374e-05
0.00496032
1.74963e-05
0.00495584
1.79738e-05
0.00495124
1.84675e-05
0.00494651
1.89763e-05
0.00494166
1.95002e-05
0.00493667
2.00396e-05
0.00493154
2.05948e-05
0.00492628
2.11664e-05
0.00492087
2.17548e-05
0.00491531
2.23604e-05
0.00490959
2.29834e-05
0.00490372
2.36243e-05
0.00489769
2.42831e-05
0.00489148
2.49599e-05
0.00488511
2.5655e-05
0.00487856
2.63685e-05
0.00487183
2.71005e-05
0.00486492
2.7851e-05
0.00485782
2.86202e-05
0.00485052
2.94083e-05
0.00484303
3.02153e-05
0.00483533
3.10416e-05
0.00482743
3.18874e-05
0.00481931
3.27531e-05
0.00481098
3.36397e-05
0.00480243
3.45498e-05
0.00479365
3.54902e-05
3.64816e-05
0.00478463
0.00505063
6.40417e-07
0.00505026
1.87206e-06
0.00504966
3.01692e-06
0.00504884
4.08684e-06
0.0050478
5.22937e-06
0.00504647
6.73132e-06
0.00504473
8.86704e-06
0.00504244
1.16957e-05
0.00503952
1.49688e-05
0.00503597
1.82132e-05
0.00503188
2.09257e-05
0.00502741
2.27572e-05
0.00502276
2.36031e-05
0.00501809
2.35846e-05
0.00501351
2.29619e-05
0.00500911
2.20331e-05
0.00500488
2.10566e-05
0.00500081
2.02121e-05
0.00499686
1.95961e-05
0.00499298
1.92371e-05
0.00498914
1.91191e-05
0.00498528
1.92035e-05
0.00498138
1.94453e-05
0.00497741
1.98031e-05
0.00497337
2.0243e-05
0.00496923
2.07402e-05
0.00496499
2.1278e-05
0.00496064
2.18456e-05
0.00495618
2.24371e-05
0.0049516
2.30492e-05
0.00494689
2.36807e-05
0.00494206
2.43313e-05
0.0049371
2.50013e-05
0.004932
2.56913e-05
0.00492677
2.64017e-05
0.00492139
2.71331e-05
0.00491586
2.78858e-05
0.00491019
2.86602e-05
0.00490435
2.94567e-05
0.00489836
3.02753e-05
0.0048922
3.11163e-05
0.00488588
3.19798e-05
0.00487938
3.2866e-05
0.00487271
3.37749e-05
0.00486585
3.47066e-05
0.00485881
3.56614e-05
0.00485158
3.66392e-05
0.00484416
3.76403e-05
0.00483653
3.86649e-05
0.00482871
3.97132e-05
0.00482067
4.07858e-05
0.00481243
4.18835e-05
0.00480397
4.3009e-05
0.00479529
4.41694e-05
4.53859e-05
0.00478639
0.00505063
7.67542e-07
0.00505026
2.24341e-06
0.00504966
3.61623e-06
0.00504885
4.89914e-06
0.00504781
6.26507e-06
0.00504649
8.05202e-06
0.00504477
1.05859e-05
0.00504253
1.39413e-05
0.00503967
1.78299e-05
0.00503618
2.16958e-05
0.00503216
2.49436e-05
0.00502777
2.71564e-05
0.00502316
2.82041e-05
0.00501852
2.82241e-05
0.00501397
2.75198e-05
0.00500956
2.64421e-05
0.00500532
2.5297e-05
0.00500123
2.42991e-05
0.00499726
2.35653e-05
0.00499337
2.31319e-05
0.0049895
2.29823e-05
0.00498563
2.30725e-05
0.00498173
2.33503e-05
0.00497777
2.3767e-05
0.00497373
2.42831e-05
0.0049696
2.4869e-05
0.00496537
2.55046e-05
0.00496104
2.61771e-05
0.0049566
2.68791e-05
0.00495204
2.76065e-05
0.00494736
2.83578e-05
0.00494256
2.91323e-05
0.00493763
2.99304e-05
0.00493257
3.07525e-05
0.00492737
3.1599e-05
0.00492204
3.24707e-05
0.00491655
3.33678e-05
0.00491092
3.42907e-05
0.00490514
3.52397e-05
0.0048992
3.62151e-05
0.0048931
3.72169e-05
0.00488683
3.82453e-05
0.0048804
3.93005e-05
0.00487379
4.03824e-05
0.00486701
4.14913e-05
0.00486004
4.26271e-05
0.00485289
4.379e-05
0.00484555
4.49802e-05
0.00483802
4.61978e-05
0.00483029
4.7443e-05
0.00482236
4.87162e-05
0.00481422
5.00182e-05
0.00480588
5.13514e-05
0.00479733
5.27219e-05
5.4149e-05
0.00478857
0.00505063
8.94115e-07
0.00505026
2.61314e-06
0.00504966
4.21328e-06
0.00504885
5.70857e-06
0.00504782
7.2954e-06
0.00504652
9.36002e-06
0.00504482
1.22783e-05
0.00504262
1.61419e-05
0.00503983
2.06271e-05
0.00503642
2.51012e-05
0.00503248
2.88805e-05
0.00502816
3.14812e-05
0.00502362
3.27459e-05
0.00501902
3.28241e-05
0.00501448
3.20586e-05
0.00501007
3.08495e-05
0.00500582
2.95484e-05
0.00500171
2.84047e-05
0.00499772
2.75556e-05
0.00499381
2.70466e-05
0.00498993
2.68616e-05
0.00498605
2.69521e-05
0.00498214
2.72599e-05
0.00497818
2.77296e-05
0.00497414
2.8316e-05
0.00497003
2.89851e-05
0.00496582
2.97137e-05
0.00496151
3.04867e-05
0.00495709
3.12953e-05
0.00495257
3.21345e-05
0.00494792
3.30021e-05
0.00494316
3.38973e-05
0.00493827
3.48203e-05
0.00493325
3.57714e-05
0.0049281
3.6751e-05
0.00492281
3.77597e-05
0.00491738
3.87979e-05
0.0049118
3.9866e-05
0.00490608
4.09641e-05
0.0049002
4.20924e-05
0.00489417
4.32511e-05
0.00488797
4.44403e-05
0.00488161
4.56601e-05
0.00487508
4.69104e-05
0.00486838
4.81914e-05
0.00486151
4.95032e-05
0.00485445
5.08457e-05
0.00484721
5.22191e-05
0.00483979
5.36235e-05
0.00483217
5.50589e-05
0.00482436
5.65257e-05
0.00481635
5.80244e-05
0.00480815
5.95564e-05
0.00479975
6.11257e-05
0.00479115
6.27432e-05
0.00478278
-8.22564e-07
1.67434e-09
0.00478309
-3.0541e-07
1.56055e-09
0.00478284
2.47222e-07
1.43233e-09
0.004782
8.3477e-07
1.30987e-09
0.00478054
1.46432e-06
1.17762e-09
0.0047784
2.13805e-06
1.03761e-09
0.00477554
2.85993e-06
8.90677e-10
0.0047719
3.63436e-06
7.36726e-10
0.00476743
4.46617e-06
5.75852e-10
0.00476207
5.36073e-06
4.0822e-10
0.00475575
6.32397e-06
2.33991e-10
0.00474839
7.36247e-06
5.39827e-11
0.0047399
8.48349e-06
-1.312e-10
0.00473021
9.69509e-06
-3.20998e-10
0.0047192
1.10063e-05
-5.14276e-10
1.24272e-05
-7.14557e-10
0.00478186
-2.74565e-07
0.0047808
7.57521e-07
0.00477919
1.85816e-06
0.00477699
3.03346e-06
0.00477416
4.29015e-06
0.00477066
5.6352e-06
0.00476645
7.07651e-06
0.00476146
8.62285e-06
0.00475564
1.0284e-05
0.00474893
1.20706e-05
0.00474126
1.39946e-05
0.00473255
1.60693e-05
0.00472273
1.8309e-05
0.00471169
2.073e-05
0.00469935
2.33504e-05
2.61904e-05
0.00478003
2.99111e-06
0.00477626
4.53433e-06
0.00477193
6.18035e-06
0.00476703
7.9382e-06
0.0047615
9.81755e-06
0.00475531
1.18292e-05
0.0047484
1.3985e-05
0.00474072
1.62984e-05
0.00473222
1.87839e-05
0.00472284
2.14577e-05
0.00471249
2.43377e-05
0.00470112
2.74437e-05
0.00468863
3.07976e-05
0.00467494
3.44238e-05
0.00465994
3.83493e-05
4.26047e-05
0.00477733
1.02907e-05
0.00476952
1.23386e-05
0.00476118
1.45231e-05
0.00475226
1.68559e-05
0.00474273
1.93502e-05
0.00473254
2.20205e-05
0.00472164
2.4883e-05
0.00470998
2.79554e-05
0.00469751
3.12573e-05
0.00468416
3.48103e-05
0.00466986
3.86384e-05
0.00465453
4.2768e-05
0.0046381
4.72284e-05
0.00462047
5.20522e-05
0.00460155
5.72756e-05
6.29398e-05
0.00477379
2.28875e-05
0.0047607
2.54297e-05
0.00474708
2.81415e-05
0.0047329
3.1038e-05
0.00471811
3.41358e-05
0.00470268
3.74534e-05
0.00468655
4.10111e-05
0.00466968
4.48309e-05
0.004652
4.89377e-05
0.00463345
5.33584e-05
0.00461396
5.81229e-05
0.00459347
6.32645e-05
0.00457188
6.88198e-05
0.0045491
7.48297e-05
0.00452503
8.13399e-05
8.84018e-05
0.00476948
4.19751e-05
0.00474991
4.49948e-05
0.00472984
4.82178e-05
0.00470921
5.16621e-05
0.004688
5.53479e-05
0.00466616
5.92974e-05
0.00464363
6.35348e-05
0.00462038
6.80868e-05
0.00459633
7.29828e-05
0.00457144
7.82555e-05
0.00454562
8.39407e-05
0.0045188
9.00783e-05
0.00449091
9.67125e-05
0.00446185
0.000103892
0.00443151
0.000111673
0.000120117
0.00476447
6.86531e-05
0.00473734
7.21256e-05
0.00470972
7.58378e-05
0.00468158
7.98089e-05
0.00465286
8.40621e-05
0.00462354
8.86227e-05
0.00459355
9.35189e-05
0.00456286
9.87815e-05
0.0045314
0.000104445
0.0044991
0.000110547
0.00446592
0.000117129
0.00443176
0.000124239
0.00439654
0.000131927
0.00436018
0.000140251
0.00432258
0.000149276
0.000159075
0.00501441
7.82465e-05
-0.005024
0.00500439
8.21494e-05
0.0049939
8.63216e-05
0.00498293
9.07853e-05
0.00497142
9.55648e-05
0.00495936
0.000100688
0.00494669
0.000106184
0.00493339
0.000112088
0.0049194
0.000118437
0.00490467
0.000125273
0.00488916
0.00013264
0.00487281
0.000140589
0.00485556
0.000149177
0.00483734
0.000158467
0.00481809
0.000168527
0.000179436
0.00501828
8.76249e-05
-0.00502766
0.00500848
9.19469e-05
0.00499824
9.65641e-05
0.00498753
0.000101501
0.00497631
0.000106784
0.00496455
0.000112443
0.00495222
0.000118511
0.00493929
0.000125024
0.0049257
0.000132022
0.00491143
0.00013955
0.00489641
0.000147655
0.00488061
0.000156393
0.00486396
0.000165823
0.00484642
0.000176012
0.00482791
0.000187033
0.00019897
0.0050226
9.67489e-05
-0.00503173
0.00501308
0.000101475
0.00500312
0.000106518
0.00499272
0.000111907
0.00498183
0.000117668
0.00497044
0.000123835
0.00495851
0.000130442
0.00494601
0.000137527
0.0049329
0.000145134
0.00491914
0.000153308
0.00490469
0.000162101
0.00488952
0.00017157
0.00487356
0.000181777
0.00485678
0.000192793
0.00483912
0.000204694
0.000217566
0.00502735
0.000105589
-0.00503619
0.00501813
0.000110699
0.0050085
0.000116147
0.00499844
0.000121962
0.00498794
0.000128174
0.00497695
0.000134817
0.00496547
0.000141928
0.00495345
0.000149546
0.00494087
0.000157717
0.00492769
0.000166488
0.00491387
0.000175913
0.00489939
0.000186051
0.0048842
0.000196966
0.00486827
0.000208732
0.00485153
0.000221425
0.000235136
0.00503249
0.000114122
-0.00504102
0.00502359
0.000119592
0.00501432
0.00012542
0.00500465
0.000131634
0.00499455
0.000138266
0.00498402
0.000145352
0.00497302
0.000152928
0.00496153
0.000161037
0.00494952
0.000169725
0.00493697
0.00017904
0.00492384
0.000189039
0.00491011
0.000199781
0.00489575
0.000211332
0.00488071
0.000223766
0.00486498
0.000237162
0.000251609
0.00503798
0.000122327
-0.00504619
0.00502944
0.000128133
0.00502055
0.000134313
0.00501129
0.000140896
0.00500164
0.000147916
0.00499158
0.000155408
0.0049811
0.00016341
0.00497017
0.000171965
0.00495878
0.000181121
0.00494689
0.000190926
0.00493449
0.000201438
0.00492156
0.000212717
0.00490806
0.000224829
0.00489398
0.000237848
0.00487929
0.000251853
0.000266934
0.00504382
0.000130187
-0.00505168
0.00503565
0.000136302
0.00502715
0.000142806
0.00501832
0.000149727
0.00500914
0.0001571
0.00499959
0.00016496
0.00498965
0.000173347
0.00497931
0.000182303
0.00496856
0.000191875
0.00495737
0.000202115
0.00494573
0.000213079
0.00493362
0.000224826
0.00492103
0.000237423
0.00490793
0.000250943
0.00489432
0.000265466
0.000281077
0.00504996
0.000137688
-0.00505746
0.00504217
0.000144086
0.0050341
0.000150883
0.00502571
0.00015811
0.00501701
0.0001658
0.00500798
0.00017399
0.00499861
0.000182718
0.00498889
0.000192029
0.00497879
0.000201967
0.00496832
0.000212586
0.00495747
0.000223938
0.00494621
0.000236085
0.00493454
0.000249092
0.00492245
0.000263031
0.00490994
0.000277978
0.000294018
0.00505638
0.000144818
-0.00506351
0.00504899
0.00015147
0.00504134
0.000158531
0.00503342
0.000166031
0.00502522
0.000174003
0.00501673
0.000182483
0.00500793
0.000191511
0.00499883
0.000201128
0.00498942
0.000211382
0.00497968
0.000222322
0.00496962
0.000234002
0.00495922
0.000246482
0.00494849
0.000259824
0.00493742
0.000274099
0.00492602
0.000289381
0.000305752
0.00506304
0.000151568
-0.00506979
0.00505607
0.000158447
0.00504886
0.00016574
0.00504141
0.00017348
0.00503371
0.000181698
0.00502577
0.000190429
0.00501756
0.000199714
0.0050091
0.000209592
0.00500037
0.00022011
0.00499138
0.000231317
0.00498212
0.000243264
0.00497259
0.00025601
0.0049628
0.000269616
0.00495275
0.000284148
0.00494245
0.000299678
0.000316284
0.00506994
0.000157931
-0.0050763
0.00506337
0.000165008
0.00505661
0.000172505
0.00504964
0.000180451
0.00504246
0.000188879
0.00503506
0.000197824
0.00502745
0.000207322
0.00501963
0.000217416
0.00501159
0.000228149
0.00500334
0.000239568
0.00499488
0.000251724
0.00498622
0.000264672
0.00497736
0.000278471
0.00496833
0.000293185
0.00495912
0.000308881
0.000325632
0.00507702
0.000163901
-0.00508299
0.00507088
0.000171149
0.00506456
0.000178819
0.00505808
0.00018694
0.00505141
0.000195543
0.00504457
0.000204663
0.00503756
0.000214336
0.00503037
0.000224601
0.00502302
0.0002355
0.00501551
0.000247079
0.00500785
0.000259387
0.00500004
0.000272476
0.00499211
0.000286402
0.00498407
0.000301226
0.00497594
0.000317009
0.000333822
0.00508427
0.000169477
-0.00508985
0.00507855
0.000176869
0.00507269
0.000184683
0.00506668
0.000192947
0.00506054
0.000201691
0.00505425
0.00021095
0.00504783
0.000220756
0.00504128
0.000231149
0.00503461
0.000242169
0.00502783
0.000253859
0.00502095
0.000266265
0.00501399
0.000279437
0.00500697
0.000293428
0.0049999
0.000308293
0.00499282
0.000324092
0.000340888
0.00509167
0.000174658
-0.00509685
0.00508637
0.000182167
0.00508096
0.000190096
0.00507543
0.000198473
0.0050698
0.000207326
0.00506406
0.000216687
0.00505823
0.00022659
0.00505231
0.00023707
0.00504631
0.000248166
0.00504025
0.00025992
0.00503414
0.000272374
0.005028
0.000285574
0.00502186
0.000299571
0.00501574
0.000314415
0.00500967
0.000330162
0.000346869
0.00509918
0.000179445
-0.00510397
0.0050943
0.000187046
0.00508933
0.000195063
0.00508428
0.000203522
0.00507916
0.000212452
0.00507396
0.000221883
0.00506871
0.000231845
0.0050634
0.000242374
0.00505806
0.000253505
0.00505271
0.000265278
0.00504735
0.000277731
0.00504201
0.00029091
0.00503673
0.000304858
0.00503152
0.000319625
0.00502642
0.000335258
0.000351812
0.00510678
0.00018384
-0.00511117
0.00510232
0.000191508
0.00509779
0.000199587
0.00509321
0.000208101
0.00508859
0.000217078
0.00508392
0.000226546
0.00507924
0.000236534
0.00507453
0.000247075
0.00506984
0.000258202
0.00506516
0.000269952
0.00506053
0.000282362
0.00505597
0.000295471
0.00505151
0.000309322
0.00504717
0.000323957
0.00504301
0.000339422
0.000355763
0.00511444
0.000187848
-0.00511845
0.00511039
0.00019556
0.0051063
0.000203676
0.00510219
0.000212218
0.00509805
0.000221214
0.00509391
0.000230688
0.00508977
0.00024067
0.00508566
0.000251189
0.00508159
0.000262276
0.00507757
0.000273965
0.00507364
0.00028629
0.00506983
0.000299288
0.00506615
0.000312996
0.00506266
0.000327453
0.00505938
0.000342699
0.000358776
0.00512215
0.000191476
-0.00512578
0.0051185
0.000199209
0.00511484
0.000207337
0.00511118
0.000215883
0.00510752
0.00022487
0.00510389
0.000234323
0.00510029
0.000244269
0.00509674
0.000254734
0.00509327
0.000265748
0.00508989
0.000277341
0.00508664
0.000289544
0.00508354
0.000302391
0.00508062
0.000315916
0.00507792
0.000330152
0.00507548
0.000345136
0.000360904
0.00512988
0.000194729
-0.00513313
0.00512663
0.000202463
0.00512338
0.000210582
0.00512016
0.000219107
0.00511697
0.000228061
0.00511382
0.000237466
0.00511074
0.000247348
0.00510775
0.00025773
0.00510486
0.00026864
0.00510209
0.000280105
0.00509948
0.000292154
0.00509706
0.000304815
0.00509485
0.00031812
0.00509291
0.000332099
0.00509126
0.000346782
0.0003622
0.00513761
0.000197618
-0.0051405
0.00513474
0.000205332
0.0051319
0.000213421
0.0051291
0.000221903
0.00512636
0.000230801
0.0051237
0.000240134
0.00512112
0.000249926
0.00511865
0.000260198
0.00511631
0.000270977
0.00511413
0.000282285
0.00511214
0.000294149
0.00511036
0.000306594
0.00510883
0.000319648
0.00510759
0.000333336
0.00510669
0.000347686
0.000362722
0.00514532
0.000200151
-0.00514785
0.00514282
0.000207827
0.00514038
0.000215865
0.00513799
0.000224285
0.00513569
0.000233105
0.00513348
0.000242344
0.00513138
0.000252023
0.00512942
0.000262162
0.00512761
0.000272784
0.00512599
0.000283909
0.00512457
0.000295562
0.00512341
0.000307764
0.00512251
0.000320539
0.00512194
0.000333909
0.00512173
0.000347896
0.000362522
0.00515298
0.000202339
-0.00515517
0.00515085
0.000209959
0.00514879
0.00021793
0.0051468
0.000226268
0.00514492
0.000234991
0.00514315
0.000244115
0.00514151
0.00025366
0.00514003
0.000263644
0.00513873
0.000274086
0.00513763
0.000285007
0.00513677
0.000296425
0.00513617
0.00030836
0.00513588
0.000320832
0.00513592
0.000333861
0.00513636
0.000347463
0.000361656
0.0051606
0.000204192
-0.00516245
0.00515881
0.000211741
0.00515712
0.000219628
0.00515552
0.000227867
0.00515403
0.000236475
0.00515268
0.000245466
0.00515148
0.000254859
0.00515046
0.000264668
0.00514963
0.000274912
0.00514903
0.000285607
0.00514869
0.00029677
0.00514863
0.000308418
0.00514889
0.000320568
0.00514952
0.000333235
0.00515055
0.000346433
0.000360176
0.00516814
0.000205724
-0.00516967
0.00516669
0.000213187
0.00516535
0.000220974
0.00516412
0.000229099
0.00516301
0.000237575
0.00516206
0.000246418
0.00516128
0.000255641
0.00516069
0.000265259
0.00516032
0.000275287
0.00516018
0.000285739
0.00516032
0.000296631
0.00516077
0.000307975
0.00516155
0.000319786
0.00516271
0.000332076
0.00516429
0.000344855
0.000358133
0.00517559
0.000206945
-0.00517681
0.00517447
0.000214309
0.00517346
0.000221983
0.00517258
0.000229979
0.00517185
0.00023831
0.00517127
0.000246989
0.00517089
0.000256028
0.0051707
0.00026544
0.00517075
0.000275237
0.00517106
0.000285433
0.00517165
0.000296038
0.00517256
0.000307065
0.00517382
0.000318524
0.00517548
0.000330424
0.00517756
0.000342774
0.000355578
0.00518295
0.000207868
-0.00518387
0.00518213
0.000215121
0.00518145
0.00022267
0.0051809
0.000230526
0.00518051
0.000238699
0.0051803
0.000247201
0.00518028
0.000256044
0.00518049
0.000265237
0.00518093
0.000274791
0.00518165
0.000284717
0.00518266
0.000295025
0.005184
0.000305723
0.00518571
0.00031682
0.00518781
0.000328322
0.00519035
0.000340234
0.000352558
0.00519019
0.000208508
-0.00519083
0.00518967
0.000215639
0.00518929
0.000223051
0.00518906
0.000230755
0.005189
0.00023876
0.00518913
0.000247075
0.00518946
0.000255709
0.00519003
0.000264673
0.00519084
0.000273974
0.00519194
0.000283621
0.00519334
0.000293621
0.00519508
0.000303982
0.00519719
0.000314709
0.00519971
0.000325807
0.00520267
0.000337277
0.000349119
0.00519731
0.000208875
-0.00519768
0.00519707
0.000215875
0.00519698
0.000223142
0.00519705
0.000230684
0.0051973
0.000238511
0.00519775
0.000246629
0.00519841
0.000255047
0.00519931
0.000263772
0.00520047
0.000272811
0.00520192
0.000282171
0.00520369
0.000291858
0.00520579
0.000301876
0.00520827
0.000312229
0.00521116
0.000322918
0.0052145
0.000333944
0.000345303
0.0052043
0.000208985
-0.00520441
0.00520433
0.000215845
0.00520451
0.000222958
0.00520486
0.000230331
0.0052054
0.000237971
0.00520615
0.000245884
0.00520712
0.000254078
0.00520833
0.000262558
0.00520981
0.000271329
0.00521159
0.000280396
0.00521368
0.000289764
0.00521612
0.000299435
0.00521894
0.00030941
0.00522217
0.000319691
0.00522584
0.000330273
0.000341153
0.00521115
-0.00521101
0.00521143
0.00521187
0.00521249
0.0052133
0.00521433
0.00521558
0.00521709
0.00521886
0.00522094
0.00522333
0.00522608
0.0052292
0.00523273
0.00523671
0.00529276
1.02578e-06
0.00529238
2.99892e-06
0.00529175
4.83599e-06
0.00529091
6.55313e-06
0.00528984
8.36855e-06
0.00528848
1.07158e-05
0.00528674
1.40213e-05
0.00528448
1.83962e-05
0.00528162
2.34853e-05
0.00527814
2.85812e-05
0.00527411
3.29127e-05
0.00526967
3.5927e-05
0.00526498
3.7436e-05
0.0052602
3.75977e-05
0.00525547
3.67909e-05
0.00525086
3.54638e-05
0.00524639
3.4014e-05
0.00524207
3.27258e-05
0.00523787
3.17591e-05
0.00523374
3.11695e-05
0.00522966
3.0943e-05
0.00522559
3.10278e-05
0.00522149
3.13599e-05
0.00521734
3.18781e-05
0.00521312
3.25314e-05
0.00520883
3.32815e-05
0.00520444
3.41019e-05
0.00519995
3.4975e-05
0.00519535
3.58905e-05
0.00519065
3.68424e-05
0.00518582
3.78279e-05
0.00518087
3.88458e-05
0.0051758
3.98959e-05
0.00517059
4.09783e-05
0.00516525
4.20936e-05
0.00515976
4.32421e-05
0.00515414
4.44241e-05
0.00514836
4.564e-05
0.00514244
4.68899e-05
0.00513636
4.8174e-05
0.00513012
4.94923e-05
0.00512371
5.08449e-05
0.00511714
5.22318e-05
0.0051104
5.36529e-05
0.00510348
5.51084e-05
0.00509639
5.65982e-05
0.00508911
5.81222e-05
0.00508165
5.96804e-05
0.005074
6.1273e-05
0.00506616
6.28998e-05
0.00505812
6.45609e-05
0.00504989
6.62567e-05
0.00504146
6.79879e-05
0.00503283
6.97563e-05
7.15659e-05
0.00529276
1.15664e-06
0.00529238
3.38234e-06
0.00529176
5.45528e-06
0.00529092
7.39331e-06
0.00528985
9.43419e-06
0.00528852
1.20553e-05
0.0052868
1.57317e-05
0.00528461
2.05957e-05
0.00528182
2.62659e-05
0.00527844
3.19673e-05
0.00527451
3.68455e-05
0.00527015
4.02805e-05
0.00526554
4.20509e-05
0.00526082
4.23189e-05
0.00525611
4.14947e-05
0.00525151
4.00704e-05
0.00524703
3.8487e-05
0.0052427
3.70635e-05
0.00523847
3.59822e-05
0.00523433
3.53108e-05
0.00523024
3.50382e-05
0.00522615
3.51108e-05
0.00522205
3.546e-05
0.00521791
3.60189e-05
0.00521371
3.67318e-05
0.00520944
3.75562e-05
0.00520508
3.84621e-05
0.00520062
3.94297e-05
0.00519607
4.04469e-05
0.0051914
4.15067e-05
0.00518662
4.26054e-05
0.00518173
4.37414e-05
0.00517671
4.49142e-05
0.00517156
4.61238e-05
0.00516629
4.73703e-05
0.00516088
4.8654e-05
0.00515532
4.99752e-05
0.00514963
5.13342e-05
0.00514379
5.27309e-05
0.0051378
5.41654e-05
0.00513165
5.56377e-05
0.00512535
5.71479e-05
0.00511889
5.86957e-05
0.00511226
6.02812e-05
0.00510546
6.19042e-05
0.00509849
6.35647e-05
0.00509135
6.52625e-05
0.00508404
6.69975e-05
0.00507654
6.87696e-05
0.00506886
7.05787e-05
0.005061
7.24248e-05
0.00505295
7.43078e-05
0.00504471
7.6228e-05
0.00503628
7.81861e-05
8.0184e-05
0.00529276
1.28664e-06
0.00529238
3.76306e-06
0.00529177
6.07066e-06
0.00529093
8.22843e-06
0.00528988
1.04916e-05
0.00528855
1.33779e-05
0.00528688
1.74091e-05
0.00528473
2.27403e-05
0.00528203
2.89692e-05
0.00527874
3.52592e-05
0.0052749
4.06781e-05
0.00527064
4.454e-05
0.00526611
4.65882e-05
0.00526144
4.69845e-05
0.00525677
4.61661e-05
0.00525217
4.4665e-05
0.0052477
4.2963e-05
0.00524335
4.14131e-05
0.00523911
4.02207e-05
0.00523496
3.94661e-05
0.00523085
3.9143e-05
0.00522676
3.9197e-05
0.00522267
3.95557e-05
0.00521854
4.01478e-05
0.00521436
4.09129e-05
0.00521011
4.18044e-05
0.00520578
4.27893e-05
0.00520137
4.38453e-05
0.00519686
4.49587e-05
0.00519224
4.61212e-05
0.00518752
4.73282e-05
0.00518268
4.85776e-05
0.00517773
4.98684e-05
0.00517265
5.12002e-05
0.00516745
5.25731e-05
0.00516212
5.39872e-05
0.00515665
5.54425e-05
0.00515104
5.69392e-05
0.0051453
5.84771e-05
0.00513941
6.00562e-05
0.00513337
6.16765e-05
0.00512718
6.33377e-05
0.00512083
6.50397e-05
0.00511433
6.67823e-05
0.00510767
6.85653e-05
0.00510085
7.03884e-05
0.00509386
7.22515e-05
0.0050867
7.41544e-05
0.00507937
7.60967e-05
0.00507187
7.80783e-05
0.0050642
8.00988e-05
0.00505635
8.21582e-05
0.00504832
8.42563e-05
0.00504011
8.63934e-05
8.85698e-05
0.00529276
1.41567e-06
0.00529239
4.14081e-06
0.00529178
6.68163e-06
0.00529095
9.05781e-06
0.0052899
1.154e-05
0.00528859
1.46832e-05
0.00528695
1.90539e-05
0.00528486
2.48314e-05
0.00528223
3.15972e-05
0.00527903
3.84594e-05
0.00527529
4.44127e-05
0.00527113
4.87065e-05
0.00526667
5.10472e-05
0.00526206
5.15925e-05
0.00525743
5.08016e-05
0.00525285
4.92428e-05
0.00524837
4.74367e-05
0.00524402
4.5769e-05
0.00523977
4.44687e-05
0.00523561
4.36299e-05
0.0052315
4.32519e-05
0.00522741
4.32809e-05
0.00522333
4.36419e-05
0.00521922
4.42596e-05
0.00521506
4.50694e-05
0.00521084
4.6021e-05
0.00520655
4.70782e-05
0.00520218
4.82166e-05
0.00519772
4.94203e-05
0.00519316
5.068e-05
0.0051885
5.19901e-05
0.00518373
5.33477e-05
0.00517885
5.47514e-05
0.00517385
5.62004e-05
0.00516873
5.76945e-05
0.00516348
5.92335e-05
0.0051581
6.08174e-05
0.0051526
6.2446e-05
0.00514696
6.41191e-05
0.00514118
6.58365e-05
0.00513525
6.7598e-05
0.00512919
6.94033e-05
0.00512298
7.1252e-05
0.00511661
7.31439e-05
0.0051101
7.50787e-05
0.00510343
7.70559e-05
0.00509661
7.90752e-05
0.00508963
8.11362e-05
0.00508249
8.32387e-05
0.00507518
8.53821e-05
0.00506771
8.7566e-05
0.00506008
8.97901e-05
0.00505229
9.2054e-05
0.00504432
9.43575e-05
9.67004e-05
0.00529277
1.54362e-06
0.00529239
4.51532e-06
0.00529179
7.2877e-06
0.00529096
9.88075e-06
0.00528992
1.25787e-05
0.00528864
1.59712e-05
0.00528702
2.06672e-05
0.00528498
2.68717e-05
0.00528243
3.41541e-05
0.00527931
4.15729e-05
0.00527567
4.80537e-05
0.00527159
5.27831e-05
0.00526721
5.5429e-05
0.00526266
5.61415e-05
0.00525807
5.53977e-05
0.00525351
5.37987e-05
0.00524905
5.19016e-05
0.00524469
5.01242e-05
0.00524044
4.87191e-05
0.00523628
4.77949e-05
0.00523217
4.7358e-05
0.00522809
4.73561e-05
0.00522402
4.77124e-05
0.00521993
4.83484e-05
0.00521581
4.91956e-05
0.00521163
5.02003e-05
0.00520738
5.13233e-05
0.00520306
5.25377e-05
0.00519866
5.3826e-05
0.00519416
5.51772e-05
0.00518957
5.65849e-05
0.00518487
5.80453e-05
0.00518006
5.95565e-05
0.00517515
6.11172e-05
0.00517011
6.2727e-05
0.00516496
6.43852e-05
0.00515969
6.60917e-05
0.00515429
6.7846e-05
0.00514876
6.96478e-05
0.0051431
7.14967e-05
0.0051373
7.33923e-05
0.00513137
7.53341e-05
0.0051253
7.73217e-05
0.00511909
7.93546e-05
0.00511274
8.14323e-05
0.00510624
8.35544e-05
0.0050996
8.57202e-05
0.0050928
8.79292e-05
0.00508586
9.0181e-05
0.00507877
9.24749e-05
0.00507152
9.48104e-05
0.00506413
9.71869e-05
0.00505658
9.96037e-05