/*--------------------------------*- C++ -*----------------------------------*\
| =========                 |                                                 |
| \\      /  F ield         | OpenFOAM: The Open Source CFD Toolbox           |
|  \\    /   O peration     | Version:  2412                                  |
|   \\  /    A nd           | Website:  www.openfoam.com                      |
|    \\/     M anipulation  |                                                 |
\*---------------------------------------------------------------------------*/
FoamFile
{
    version     2.0;
    format      ascii;
    arch        "LSB;label=32;scalar=64";
    class       volVectorField;
    location    "4.5";
    object      U;
}
// * * * * * * * * * * * * * * * * * * * * * * * * * * * * * * * * * * * * * //

dimensions      [0 1 -1 0 0 0 0];

internalField   nonuniform List<vector> 
5285
(
(0.111169 -0.00253024 0)
(0.110661 -0.00234312 0)
(0.110468 -0.00279051 0)
(0.110231 -0.00323023 0)
(0.109973 -0.00366397 0)
(0.109692 -0.00408907 0)
(0.109387 -0.00449897 0)
(0.109061 -0.00488541 0)
(0.108718 -0.00524021 0)
(0.108362 -0.00555697 0)
(0.107995 -0.00583212 0)
(0.10762 -0.00606513 0)
(0.107239 -0.006258 0)
(0.106857 -0.0064143 0)
(0.106475 -0.00653817 0)
(0.106095 -0.00663356 0)
(0.10572 -0.00670379 0)
(0.105351 -0.00675145 0)
(0.104991 -0.00677853 0)
(0.10464 -0.00678656 0)
(0.1043 -0.00677688 0)
(0.103972 -0.00675072 0)
(0.103655 -0.00670932 0)
(0.103352 -0.00665395 0)
(0.110188 -0.00217494 0)
(0.110014 -0.00259027 0)
(0.109801 -0.00300076 0)
(0.109568 -0.00340805 0)
(0.109313 -0.00380946 0)
(0.109036 -0.00419847 0)
(0.108739 -0.00456681 0)
(0.108426 -0.00490635 0)
(0.1081 -0.0052107 0)
(0.107762 -0.00547627 0)
(0.107416 -0.00570248 0)
(0.107064 -0.00589124 0)
(0.106709 -0.00604599 0)
(0.106353 -0.00617067 0)
(0.105999 -0.00626901 0)
(0.105648 -0.00634411 0)
(0.105302 -0.00639834 0)
(0.104963 -0.00643345 0)
(0.104631 -0.00645076 0)
(0.104309 -0.0064514 0)
(0.103997 -0.0064364 0)
(0.103696 -0.00640683 0)
(0.103406 -0.00636378 0)
(0.109746 -0.00202379 0)
(0.10959 -0.00240994 0)
(0.109398 -0.00279364 0)
(0.109188 -0.00317649 0)
(0.108957 -0.00355576 0)
(0.108705 -0.003925 0)
(0.108434 -0.00427598 0)
(0.108148 -0.00460063 0)
(0.107848 -0.00489259 0)
(0.107537 -0.00514833 0)
(0.107218 -0.00536725 0)
(0.106892 -0.0055512 0)
(0.106562 -0.0057035 0)
(0.106231 -0.00582795 0)
(0.105899 -0.0059281 0)
(0.105571 -0.00600683 0)
(0.105246 -0.00606631 0)
(0.104926 -0.00610807 0)
(0.104613 -0.00613326 0)
(0.104308 -0.00614281 0)
(0.104012 -0.00613756 0)
(0.103725 -0.00611842 0)
(0.103449 -0.00608635 0)
(0.109333 -0.00188806 0)
(0.109193 -0.00224766 0)
(0.10902 -0.00260678 0)
(0.108831 -0.00296697 0)
(0.108621 -0.00332551 0)
(0.108392 -0.00367599 0)
(0.108146 -0.00401028 0)
(0.107884 -0.00432037 0)
(0.107608 -0.00460001 0)
(0.107322 -0.00484572 0)
(0.107026 -0.00505695 0)
(0.106724 -0.00523552 0)
(0.106417 -0.00538465 0)
(0.106108 -0.00550802 0)
(0.105798 -0.005609 0)
(0.10549 -0.00569031 0)
(0.105184 -0.00575392 0)
(0.104883 -0.00580117 0)
(0.104588 -0.00583303 0)
(0.104299 -0.00585024 0)
(0.104018 -0.00585351 0)
(0.103745 -0.00584357 0)
(0.103481 -0.00582124 0)
(0.108947 -0.00176645 0)
(0.108821 -0.00210188 0)
(0.108666 -0.00243843 0)
(0.108495 -0.00277758 0)
(0.108306 -0.00311663 0)
(0.108098 -0.00344924 0)
(0.107873 -0.00376739 0)
(0.107633 -0.0040632 0)
(0.10738 -0.00433057 0)
(0.107115 -0.0045661 0)
(0.106841 -0.00476932 0)
(0.10656 -0.00494202 0)
(0.106274 -0.00508739 0)
(0.105985 -0.00520898 0)
(0.105695 -0.00531 0)
(0.105406 -0.00539301 0)
(0.105119 -0.0054598 0)
(0.104835 -0.00551155 0)
(0.104555 -0.00554903 0)
(0.104282 -0.00557284 0)
(0.104015 -0.00558353 0)
(0.103755 -0.0055817 0)
(0.103504 -0.00556803 0)
(0.108585 -0.00165788 0)
(0.108472 -0.00197134 0)
(0.108334 -0.00228713 0)
(0.10818 -0.00260669 0)
(0.108009 -0.00292732 0)
(0.10782 -0.00324281 0)
(0.107615 -0.00354528 0)
(0.107395 -0.00382702 0)
(0.107162 -0.00408211 0)
(0.106917 -0.00430731 0)
(0.106663 -0.00450222 0)
(0.106402 -0.00466868 0)
(0.106135 -0.0048098 0)
(0.105864 -0.00492904 0)
(0.105592 -0.00502947 0)
(0.10532 -0.00511347 0)
(0.10505 -0.00518267 0)
(0.104782 -0.00523807 0)
(0.104518 -0.00528029 0)
(0.104258 -0.00530978 0)
(0.104005 -0.00532695 0)
(0.103758 -0.00533226 0)
(0.103518 -0.00532628 0)
(0.108244 -0.0015615 0)
(0.108145 -0.00185501 0)
(0.108022 -0.0021517 0)
(0.107884 -0.00245294 0)
(0.10773 -0.00275608 0)
(0.107559 -0.00305504 0)
(0.107372 -0.00334214 0)
(0.10717 -0.00360991 0)
(0.106955 -0.00385266 0)
(0.106728 -0.00406735 0)
(0.106492 -0.0042537 0)
(0.106248 -0.00441359 0)
(0.105998 -0.00455008 0)
(0.105745 -0.00466653 0)
(0.105489 -0.00476586 0)
(0.105233 -0.00485029 0)
(0.104978 -0.00492127 0)
(0.104725 -0.00497964 0)
(0.104475 -0.00502587 0)
(0.104229 -0.00506025 0)
(0.103989 -0.00508308 0)
(0.103754 -0.00509469 0)
(0.103525 -0.00509555 0)
(0.107924 -0.00147664 0)
(0.107836 -0.00175211 0)
(0.107728 -0.0020312 0)
(0.107606 -0.00231523 0)
(0.107467 -0.00260161 0)
(0.107313 -0.00288445 0)
(0.107142 -0.00315634 0)
(0.106957 -0.00341013 0)
(0.106758 -0.0036404 0)
(0.106548 -0.00384438 0)
(0.106328 -0.00402193 0)
(0.106099 -0.00417498 0)
(0.105865 -0.00430655 0)
(0.105627 -0.00441989 0)
(0.105386 -0.00451776 0)
(0.105145 -0.00460219 0)
(0.104904 -0.00467447 0)
(0.104665 -0.00473526 0)
(0.104428 -0.00478488 0)
(0.104196 -0.0048235 0)
(0.103967 -0.00485128 0)
(0.103743 -0.00486845 0)
(0.103525 -0.00487539 0)
(0.107622 -0.00140275 0)
(0.107546 -0.00166196 0)
(0.107451 -0.00192483 0)
(0.107343 -0.00219259 0)
(0.10722 -0.00246277 0)
(0.107081 -0.00272973 0)
(0.106925 -0.00298641 0)
(0.106755 -0.00322605 0)
(0.106571 -0.00344363 0)
(0.106376 -0.00363666 0)
(0.10617 -0.00380518 0)
(0.105956 -0.00395119 0)
(0.105735 -0.00407766 0)
(0.105511 -0.00418767 0)
(0.105284 -0.00428384 0)
(0.105056 -0.00436798 0)
(0.104828 -0.0044412 0)
(0.104602 -0.00450398 0)
(0.104378 -0.00455651 0)
(0.104157 -0.00459881 0)
(0.10394 -0.00463093 0)
(0.103727 -0.00465303 0)
(0.10352 -0.00466538 0)
(0.107337 -0.00133934 0)
(0.107272 -0.00158397 0)
(0.107191 -0.00183184 0)
(0.107096 -0.00208413 0)
(0.106987 -0.00233849 0)
(0.106861 -0.00258963 0)
(0.10672 -0.00283095 0)
(0.106564 -0.00305618 0)
(0.106393 -0.00326077 0)
(0.10621 -0.00344259 0)
(0.106017 -0.0036019 0)
(0.105816 -0.00374073 0)
(0.105608 -0.00386198 0)
(0.105396 -0.00396858 0)
(0.105182 -0.00406292 0)
(0.104967 -0.00414661 0)
(0.104751 -0.00422051 0)
(0.104537 -0.00428497 0)
(0.104325 -0.00434001 0)
(0.104115 -0.00438553 0)
(0.103909 -0.00442148 0)
(0.103707 -0.00444794 0)
(0.103509 -0.0044651 0)
(0.107069 -0.00128584 0)
(0.107014 -0.00151746 0)
(0.106945 -0.00175144 0)
(0.106863 -0.0019889 0)
(0.106766 -0.00222767 0)
(0.106654 -0.00246291 0)
(0.106525 -0.00268859 0)
(0.106381 -0.00289907 0)
(0.106222 -0.00309034 0)
(0.106051 -0.00326071 0)
(0.105869 -0.00341066 0)
(0.105679 -0.00354226 0)
(0.105483 -0.00365831 0)
(0.105283 -0.00376151 0)
(0.10508 -0.003854 0)
(0.104876 -0.00393715 0)
(0.104672 -0.0040116 0)
(0.104469 -0.00407751 0)
(0.104268 -0.00413473 0)
(0.10407 -0.00418308 0)
(0.103874 -0.00422242 0)
(0.103681 -0.00425274 0)
(0.103493 -0.00427417 0)
(0.106816 -0.00124149 0)
(0.106771 -0.00146153 0)
(0.106712 -0.00168259 0)
(0.106641 -0.00190574 0)
(0.106556 -0.00212906 0)
(0.106455 -0.00234824 0)
(0.106338 -0.00255795 0)
(0.106204 -0.00275332 0)
(0.106056 -0.00293099 0)
(0.105895 -0.00308973 0)
(0.105724 -0.00323027 0)
(0.105544 -0.0033547 0)
(0.105359 -0.00346564 0)
(0.105169 -0.00356556 0)
(0.104978 -0.00365628 0)
(0.104785 -0.0037389 0)
(0.104592 -0.00381381 0)
(0.1044 -0.00388098 0)
(0.104209 -0.00394014 0)
(0.104021 -0.00399098 0)
(0.103835 -0.0040333 0)
(0.103652 -0.00406702 0)
(0.103473 -0.00409224 0)
(0.106578 -0.00120515 0)
(0.106541 -0.0014149 0)
(0.106492 -0.00162391 0)
(0.106431 -0.00183319 0)
(0.106355 -0.00204114 0)
(0.106264 -0.00224411 0)
(0.106156 -0.0024376 0)
(0.106032 -0.0026176 0)
(0.105893 -0.00278151 0)
(0.105742 -0.00292859 0)
(0.10558 -0.00305982 0)
(0.10541 -0.00317724 0)
(0.105235 -0.00328329 0)
(0.105055 -0.00338011 0)
(0.104874 -0.0034692 0)
(0.104692 -0.00355132 0)
(0.104509 -0.00362665 0)
(0.104328 -0.00369493 0)
(0.104147 -0.00375578 0)
(0.103969 -0.0038088 0)
(0.103793 -0.00385372 0)
(0.103619 -0.00389043 0)
(0.103448 -0.00391898 0)
(0.106356 -0.00117524 0)
(0.106324 -0.00137577 0)
(0.106282 -0.00157349 0)
(0.106228 -0.00176933 0)
(0.106161 -0.00196209 0)
(0.106077 -0.00214885 0)
(0.105977 -0.00232607 0)
(0.105861 -0.00249069 0)
(0.105731 -0.0026409 0)
(0.105588 -0.00277651 0)
(0.105435 -0.00289868 0)
(0.105275 -0.00300942 0)
(0.105109 -0.00311087 0)
(0.10494 -0.00320484 0)
(0.104769 -0.00329245 0)
(0.104597 -0.00337413 0)
(0.104425 -0.0034498 0)
(0.104253 -0.00351904 0)
(0.104083 -0.00358133 0)
(0.103914 -0.00363621 0)
(0.103747 -0.00368337 0)
(0.103582 -0.00372265 0)
(0.10342 -0.0037541 0)
(0.106148 -0.00114966 0)
(0.10612 -0.00134185 0)
(0.106082 -0.00152894 0)
(0.106033 -0.00171184 0)
(0.105971 -0.00188977 0)
(0.105893 -0.00206062 0)
(0.105799 -0.00222186 0)
(0.105691 -0.00237144 0)
(0.105568 -0.00250838 0)
(0.105433 -0.00263298 0)
(0.105289 -0.00274659 0)
(0.105138 -0.00285108 0)
(0.104982 -0.00294832 0)
(0.104823 -0.00303969 0)
(0.104662 -0.00312594 0)
(0.1045 -0.00320718 0)
(0.104338 -0.00328309 0)
(0.104177 -0.00335308 0)
(0.104016 -0.00341653 0)
(0.103857 -0.00347294 0)
(0.103699 -0.00352195 0)
(0.103542 -0.0035634 0)
(0.103388 -0.00359732 0)
(0.105954 -0.00112596 0)
(0.105927 -0.00131044 0)
(0.105891 -0.00148753 0)
(0.105844 -0.00165812 0)
(0.105784 -0.00182188 0)
(0.10571 -0.00197752 0)
(0.105621 -0.00212356 0)
(0.105518 -0.00225892 0)
(0.105402 -0.00238341 0)
(0.105276 -0.00249779 0)
(0.10514 -0.00260353 0)
(0.104999 -0.00270235 0)
(0.104853 -0.00279577 0)
(0.104704 -0.00288477 0)
(0.104553 -0.00296974 0)
(0.104402 -0.00305047 0)
(0.10425 -0.00312643 0)
(0.104099 -0.00319689 0)
(0.103947 -0.00326118 0)
(0.103797 -0.00331873 0)
(0.103648 -0.0033692 0)
(0.1035 -0.00341241 0)
(0.103354 -0.00344838 0)
(0.105774 -0.00110159 0)
(0.105745 -0.00127874 0)
(0.105707 -0.00144645 0)
(0.10566 -0.00160555 0)
(0.105601 -0.00175616 0)
(0.105529 -0.00189778 0)
(0.105443 -0.00202989 0)
(0.105345 -0.00215234 0)
(0.105236 -0.00226564 0)
(0.105117 -0.00237091 0)
(0.10499 -0.00246968 0)
(0.104858 -0.00256347 0)
(0.104723 -0.00265347 0)
(0.104584 -0.00274029 0)
(0.104444 -0.00282395 0)
(0.104303 -0.002904 0)
(0.104161 -0.00297973 0)
(0.104019 -0.00305033 0)
(0.103878 -0.00311506 0)
(0.103736 -0.00317335 0)
(0.103595 -0.00322486 0)
(0.103456 -0.00326941 0)
(0.103317 -0.00330702 0)
(0.105605 -0.0010743 0)
(0.105573 -0.00124429 0)
(0.105532 -0.00140322 0)
(0.105482 -0.00155186 0)
(0.105422 -0.00169069 0)
(0.10535 -0.00181993 0)
(0.105267 -0.00193988 0)
(0.105173 -0.00205117 0)
(0.10507 -0.00215486 0)
(0.104958 -0.00225236 0)
(0.104841 -0.00234519 0)
(0.104719 -0.00243465 0)
(0.104593 -0.00252161 0)
(0.104465 -0.00260633 0)
(0.104336 -0.00268858 0)
(0.104205 -0.0027677 0)
(0.104073 -0.00284285 0)
(0.103941 -0.00291317 0)
(0.103808 -0.00297792 0)
(0.103675 -0.00303652 0)
(0.103542 -0.00308865 0)
(0.10341 -0.00313412 0)
(0.103279 -0.00317297 0)
(0.111486 0.00106674 9.04561e-25)
(0.111581 0.000499835 -9.06701e-25)
(0.110971 0.000980565 -7.89621e-25)
(0.111057 0.000453728 2.77747e-23)
(0.111126 -6.80359e-05 -1.7923e-24)
(0.111178 -0.000581235 0)
(0.111211 -0.00108471 6.72045e-23)
(0.111227 -0.00157874 -1.64233e-22)
(0.111245 -0.0020632 -2.61487e-24)
(0.110492 0.00090222 6.83091e-25)
(0.110569 0.000411661 -4.61839e-23)
(0.110631 -7.27975e-05 -4.95826e-23)
(0.110677 -0.000547742 1.81082e-25)
(0.110705 -0.00101213 -1.33312e-22)
(0.110718 -0.00146655 1.37646e-22)
(0.110731 -0.00191146 1.44372e-22)
(0.110043 0.000830881 -4.51969e-24)
(0.110113 0.000373197 2.24435e-23)
(0.110169 -7.75334e-05 9.14813e-23)
(0.110209 -0.00051794 5.04648e-23)
(0.110234 -0.000947112 6.17622e-23)
(0.110244 -0.0013659 -2.53199e-22)
(0.110253 -0.00177531 -2.7923e-22)
(0.109623 0.000765856 4.43367e-24)
(0.109686 0.000337966 6.69092e-25)
(0.109736 -8.22589e-05 -4.44087e-23)
(0.109772 -0.000491498 -9.29571e-23)
(0.109793 -0.000888935 -1.58557e-25)
(0.109801 -0.00127566 6.86186e-23)
(0.109806 -0.00165317 1.30472e-22)
(0.109228 0.00070657 2.18451e-24)
(0.109286 0.000305678 1.38896e-24)
(0.109331 -8.69835e-05 -1.66831e-23)
(0.109362 -0.00046812 7.90789e-23)
(0.10938 -0.000836986 0)
(0.109386 -0.00119488 5.45657e-23)
(0.109389 -0.00154372 -1.63135e-24)
(0.108857 0.00065256 -4.25236e-24)
(0.108909 0.000276107 -3.2632e-25)
(0.10895 -9.16896e-05 1.474e-23)
(0.108978 -0.000447542 -6.76968e-23)
(0.108993 -0.000790746 3.56238e-23)
(0.108997 -0.00112275 4.30901e-23)
(0.108998 -0.00144588 -1.42852e-24)
(0.108508 0.000603465 1.9867e-24)
(0.108555 0.000249098 0)
(0.108591 -9.63337e-05 0)
(0.108616 -0.000429524 3.09935e-23)
(0.108629 -0.00074977 -3.68489e-23)
(0.108632 -0.00105863 -7.39347e-23)
(0.108631 -0.00135875 -3.89047e-23)
(0.108179 0.000559019 1.80518e-25)
(0.108221 0.00022456 3.28351e-24)
(0.108253 -0.000100841 1.44267e-25)
(0.108274 -0.000413836 1.39187e-25)
(0.108286 -0.000713679 2.44508e-23)
(0.108288 -0.00100197 6.51258e-23)
(0.108286 -0.00128162 7.11262e-23)
(0.107868 0.000519039 -1.1445e-25)
(0.107905 0.000202467 -2.84309e-24)
(0.107933 -0.000105104 0)
(0.107952 -0.000400254 -8.17363e-24)
(0.107962 -0.000682139 -2.52358e-23)
(0.107963 -0.000952338 -4.01378e-24)
(0.107961 -0.00121394 -6.24317e-23)
(0.107574 0.000483402 0)
(0.107607 0.000182836 -6.77081e-25)
(0.107631 -0.000108986 -3.83911e-24)
(0.107647 -0.000388543 7.29448e-24)
(0.107656 -0.000654842 1.13398e-24)
(0.107657 -0.000909349 -2.43004e-23)
(0.107654 -0.00115523 2.74128e-23)
(0.107297 0.000452015 6.17019e-27)
(0.107325 0.000165714 1.03573e-24)
(0.107346 -0.000112326 3.85542e-24)
(0.107359 -0.000378459 3.72941e-25)
(0.107366 -0.000631476 -3.72886e-25)
(0.107367 -0.000872641 -1.54698e-23)
(0.107365 -0.00110507 0)
(0.107036 0.000424761 -5.38752e-25)
(0.10706 0.000151136 6.13163e-26)
(0.107077 -0.000114959 -1.29583e-25)
(0.107088 -0.000369729 2.00301e-24)
(0.107093 -0.000611691 -1.14037e-25)
(0.107094 -0.0008418 2.19757e-23)
(0.107092 -0.00106298 1.42233e-23)
(0.106791 0.000401444 5.91571e-25)
(0.106811 0.000139082 -2.16166e-25)
(0.106824 -0.000116736 1.19479e-25)
(0.106833 -0.000362053 -2.60772e-24)
(0.106837 -0.000595054 1.31375e-25)
(0.106837 -0.000816282 -9.12492e-24)
(0.106835 -0.00102831 -1.49998e-23)
(0.106563 0.00038173 -1.62635e-25)
(0.106579 0.000129427 -4.28248e-26)
(0.106589 -0.000117552 1.68059e-24)
(0.106595 -0.000355093 4.47489e-25)
(0.106597 -0.000581007 -2.12085e-26)
(0.106597 -0.000795325 4.00367e-24)
(0.106594 -0.00100011 -3.74003e-24)
(0.106352 0.000365095 2.0923e-25)
(0.106365 0.000121908 -2.09055e-25)
(0.106372 -0.000117367 -3.70957e-24)
(0.106375 -0.000348477 -1.07017e-25)
(0.106376 -0.000568834 -7.24613e-25)
(0.106373 -0.000777886 -4.04481e-25)
(0.10637 -0.000977039 3.6204e-24)
(0.106158 0.000350821 2.53384e-25)
(0.106169 0.000116105 -1.63054e-24)
(0.106174 -0.000116221 2.44324e-24)
(0.106174 -0.000341804 2.84696e-25)
(0.106172 -0.000557664 2.0593e-24)
(0.106168 -0.000762622 2.99831e-25)
(0.106162 -0.000957338 -1.23575e-26)
(0.105981 0.00033805 -6.37371e-25)
(0.10599 0.000111481 -3.51398e-25)
(0.105993 -0.000114222 -1.77045e-24)
(0.105992 -0.000334661 1.00015e-25)
(0.105987 -0.000546507 -1.32145e-24)
(0.105979 -0.000747966 1.76476e-25)
(0.10597 -0.000938916 7.0534e-25)
(0.10582 0.000325877 3.42629e-25)
(0.105829 0.000107456 4.97337e-25)
(0.105831 -0.00011151 2.33785e-24)
(0.105827 -0.00032665 -4.59316e-25)
(0.105819 -0.000534363 -7.10789e-25)
(0.105807 -0.000732312 -1.23682e-24)
(0.105793 -0.000919629 -5.26262e-25)
(0.105673 0.000313484 -3.73087e-25)
(0.105682 0.000103439 1.02725e-24)
(0.105683 -0.000108328 -5.42563e-25)
(0.105677 -0.000317555 9.85689e-25)
(0.105666 -0.000520481 2.67278e-25)
(0.105651 -0.000714353 7.90146e-25)
(0.105631 -0.000897665 2.63461e-25)
(0.111245 0.00219104 2.1155e-23)
(0.111374 0.00163232 6.82475e-25)
(0.109981 0.00443471 -1.53825e-26)
(0.110165 0.00398277 1.52523e-23)
(0.110323 0.00351675 -9.76772e-24)
(0.110477 0.00303552 0)
(0.110622 0.00253881 -9.41199e-25)
(0.110753 0.0020283 1.51681e-24)
(0.11087 0.00150729 -5.78114e-25)
(0.109582 0.00412836 2.08436e-23)
(0.109751 0.00370668 4.41595e-24)
(0.109897 0.00327154 9.17548e-24)
(0.11004 0.00282192 -2.19334e-25)
(0.110173 0.00235765 1.79063e-23)
(0.110293 0.00188045 1.26309e-23)
(0.110399 0.0013937 4.81346e-25)
(0.109205 0.00384916 -4.90377e-23)
(0.109362 0.00345515 -1.80494e-23)
(0.109498 0.00304823 0)
(0.109629 0.00262747 -6.10051e-24)
(0.109752 0.00219279 -3.14917e-23)
(0.109862 0.00174595 -2.16319e-23)
(0.109959 0.00129035 2.79062e-24)
(0.108849 0.00359436 2.85712e-23)
(0.108995 0.00322569 2.39447e-24)
(0.109122 0.00284461 2.00321e-25)
(0.109243 0.00245026 8.40007e-24)
(0.109356 0.00204262 1.25606e-23)
(0.109457 0.00162348 9.77697e-24)
(0.109546 0.00119625 -2.87928e-24)
(0.108513 0.00336156 5.08704e-25)
(0.108649 0.00301614 1.01445e-23)
(0.108767 0.00265878 0)
(0.10888 0.00228863 3.36802e-25)
(0.108984 0.00190575 1.57461e-24)
(0.109077 0.00151191 5.05589e-25)
(0.109159 0.00111054 -2.12917e-24)
(0.108196 0.00314865 6.16689e-25)
(0.108323 0.00282462 1.68819e-23)
(0.108433 0.00248906 1.22369e-23)
(0.108538 0.00214116 -8.33165e-24)
(0.108634 0.00178099 -1.80903e-24)
(0.10872 0.0014103 -1.56794e-25)
(0.108794 0.00103252 3.37964e-24)
(0.107896 0.00295376 -2.75368e-23)
(0.108015 0.00264947 -3.9567e-23)
(0.108118 0.00233403 -1.15258e-23)
(0.108216 0.00200663 1.6159e-23)
(0.108305 0.00166733 0)
(0.108383 0.00131787 0)
(0.108451 0.000961614 -1.32254e-24)
(0.107613 0.00277526 5.85564e-23)
(0.107724 0.00248925 4.45245e-23)
(0.107821 0.00219242 1.92246e-23)
(0.107912 0.00188396 -1.00985e-23)
(0.107994 0.00156393 -1.67011e-25)
(0.108065 0.00123396 5.82921e-25)
(0.108127 0.000897369 2.42977e-26)
(0.107345 0.00261169 -2.93048e-23)
(0.107449 0.00234265 1.97661e-24)
(0.10754 0.00206313 -1.87646e-23)
(0.107625 0.00177226 -8.31446e-24)
(0.1077 0.00147004 0)
(0.107766 0.00115802 -7.58307e-25)
(0.107821 0.000839429 3.58541e-26)
(0.107092 0.00246173 3.62013e-23)
(0.10719 0.00220855 -2.71594e-23)
(0.107275 0.00194517 -1.45585e-24)
(0.107354 0.0016707 9.45669e-24)
(0.107423 0.00138504 -7.53216e-24)
(0.107483 0.00108962 -2.8235e-24)
(0.107533 0.000787513 0)
(0.106852 0.0023242 2.31759e-24)
(0.106944 0.00208585 -3.21619e-23)
(0.107025 0.00183762 7.37552e-25)
(0.107098 0.00157851 -7.37746e-25)
(0.107162 0.00130833 7.82148e-24)
(0.107216 0.00102831 1.90844e-24)
(0.107261 0.000741367 1.4572e-25)
(0.106626 0.00219794 3.2995e-24)
(0.106713 0.00197357 4.72727e-23)
(0.106789 0.0017396 1.48027e-25)
(0.106857 0.00149496 1.27669e-23)
(0.106915 0.00123931 6.75948e-25)
(0.106965 0.000973663 1.95928e-25)
(0.107004 0.000700712 5.45966e-25)
(0.106412 0.00208187 -3.82283e-23)
(0.106495 0.00187067 -3.67393e-23)
(0.106567 0.00165019 -8.99664e-25)
(0.10663 0.00141924 -2.48563e-23)
(0.106684 0.0011773 -1.39007e-25)
(0.106729 0.000925148 -3.253e-24)
(0.106764 0.000665181 -4.99656e-25)
(0.106211 0.00197489 -2.03864e-23)
(0.106289 0.00177613 1.70568e-23)
(0.106358 0.00156842 9.736e-25)
(0.106417 0.00135046 1.37606e-23)
(0.106468 0.00112151 -6.62584e-24)
(0.106508 0.000882087 1.97129e-24)
(0.10654 0.000634253 -2.88346e-25)
(0.106021 0.0018759 2.02711e-23)
(0.106096 0.00168887 -1.90046e-23)
(0.106161 0.00149324 8.09141e-24)
(0.106218 0.00128758 1.32457e-25)
(0.106265 0.00107097 1.4513e-23)
(0.106303 0.00084361 -3.30557e-25)
(0.106332 0.000607203 -3.0895e-25)
(0.105841 0.00178377 1.36173e-24)
(0.105914 0.00160775 1.89219e-23)
(0.105978 0.00142349 -1.87603e-23)
(0.106032 0.00122947 9.85283e-25)
(0.106078 0.00102455 -7.23128e-24)
(0.106113 0.000808657 4.42226e-25)
(0.10614 0.000583099 1.01193e-24)
(0.105673 0.00169742 -1.20099e-23)
(0.105744 0.00153165 1.2892e-24)
(0.105806 0.001358 1.45474e-23)
(0.105859 0.00117489 -1.24287e-25)
(0.105904 0.000981029 3.98733e-24)
(0.105939 0.000776041 -3.85406e-25)
(0.105964 0.000560871 -1.11163e-26)
(0.105514 0.00161592 1.34365e-23)
(0.105584 0.00145955 4.24958e-24)
(0.105645 0.00129566 -5.04613e-24)
(0.105699 0.00112266 -1.11599e-24)
(0.105743 0.000939162 -8.0832e-25)
(0.105778 0.000744544 -8.44737e-25)
(0.105803 0.000539409 -3.98878e-25)
(0.105365 0.00153829 1.50113e-24)
(0.105434 0.00139053 -7.21636e-24)
(0.105495 0.00123555 -1.28461e-24)
(0.105549 0.00107184 2.46979e-24)
(0.105593 0.000897979 -3.36931e-24)
(0.105629 0.000713181 -5.02027e-25)
(0.105656 0.000517769 -4.80513e-25)
(0.100028 0.00483472 0)
(0.100134 0.00497571 0)
(0.10025 0.00511827 0)
(0.100375 0.00526201 0)
(0.100511 0.00540647 0)
(0.100658 0.00555114 0)
(0.100816 0.00569541 0)
(0.100986 0.00583861 0)
(0.101169 0.00597998 0)
(0.101366 0.00611865 0)
(0.101576 0.00625368 0)
(0.1018 0.006384 0)
(0.102039 0.00650847 0)
(0.102293 0.00662582 0)
(0.102562 0.00673467 0)
(0.102846 0.00683356 0)
(0.103146 0.00692091 0)
(0.103462 0.00699503 0)
(0.103792 0.00705416 0)
(0.104137 0.00709647 0)
(0.104497 0.00712003 0)
(0.104869 0.0071229 0)
(0.105253 0.00710311 0)
(0.105648 0.00705869 0)
(0.106053 0.00698773 0)
(0.106464 0.00688837 0)
(0.10688 0.0067589 0)
(0.107299 0.00659775 0)
(0.107718 0.00640358 0)
(0.108133 0.00617526 0)
(0.108542 0.00591188 0)
(0.10894 0.00561241 0)
(0.109324 0.00527467 0)
(0.10971 0.00488978 0)
(0.100164 0.00473181 0)
(0.100271 0.004864 0)
(0.100388 0.00499724 0)
(0.100514 0.00513111 0)
(0.10065 0.00526516 0)
(0.100796 0.00539887 0)
(0.100954 0.00553165 0)
(0.101122 0.00566282 0)
(0.101303 0.00579166 0)
(0.101496 0.00591732 0)
(0.101701 0.00603889 0)
(0.10192 0.00615537 0)
(0.102152 0.00626566 0)
(0.102398 0.00636857 0)
(0.102658 0.00646283 0)
(0.102932 0.00654708 0)
(0.10322 0.00661985 0)
(0.103521 0.00667962 0)
(0.103836 0.00672478 0)
(0.104163 0.00675368 0)
(0.104503 0.00676461 0)
(0.104854 0.00675583 0)
(0.105216 0.00672561 0)
(0.105586 0.00667224 0)
(0.105964 0.00659405 0)
(0.106347 0.00648947 0)
(0.106734 0.00635703 0)
(0.107122 0.00619546 0)
(0.107508 0.00600363 0)
(0.107891 0.00578067 0)
(0.108266 0.00552587 0)
(0.108631 0.00523846 0)
(0.108982 0.00491663 0)
(0.109333 0.00455276 0)
(0.100291 0.00462752 0)
(0.1004 0.00475127 0)
(0.100517 0.00487558 0)
(0.100643 0.00500005 0)
(0.100779 0.00512422 0)
(0.100924 0.00524757 0)
(0.10108 0.00536952 0)
(0.101246 0.00548942 0)
(0.101424 0.00560656 0)
(0.101613 0.00572012 0)
(0.101814 0.00582924 0)
(0.102027 0.00593296 0)
(0.102252 0.00603026 0)
(0.10249 0.00612002 0)
(0.10274 0.00620105 0)
(0.103004 0.0062721 0)
(0.103279 0.00633183 0)
(0.103567 0.00637884 0)
(0.103866 0.00641169 0)
(0.104177 0.00642888 0)
(0.104499 0.00642889 0)
(0.10483 0.00641019 0)
(0.10517 0.00637124 0)
(0.105517 0.00631056 0)
(0.10587 0.00622671 0)
(0.106227 0.00611834 0)
(0.106586 0.00598422 0)
(0.106946 0.00582329 0)
(0.107303 0.00563463 0)
(0.107656 0.00541758 0)
(0.108001 0.00517158 0)
(0.108335 0.00489606 0)
(0.108657 0.00458954 0)
(0.108977 0.00424546 0)
(0.10041 0.00452232 0)
(0.100519 0.00463798 0)
(0.100637 0.00475378 0)
(0.100763 0.00486931 0)
(0.100898 0.00498412 0)
(0.101042 0.0050977 0)
(0.101196 0.00520949 0)
(0.101359 0.00531884 0)
(0.101534 0.00542506 0)
(0.101718 0.0055274 0)
(0.101914 0.00562502 0)
(0.102121 0.00571702 0)
(0.102339 0.00580243 0)
(0.102569 0.00588022 0)
(0.10281 0.00594929 0)
(0.103063 0.00600847 0)
(0.103326 0.00605655 0)
(0.103601 0.00609225 0)
(0.103886 0.00611427 0)
(0.104181 0.00612127 0)
(0.104485 0.00611189 0)
(0.104797 0.00608477 0)
(0.105116 0.00603858 0)
(0.105442 0.00597201 0)
(0.105772 0.00588383 0)
(0.106105 0.00577288 0)
(0.106439 0.00563814 0)
(0.106772 0.00547872 0)
(0.107103 0.00529389 0)
(0.107428 0.00508312 0)
(0.107746 0.00484603 0)
(0.108053 0.00458216 0)
(0.108347 0.00429032 0)
(0.10864 0.00396488 0)
(0.100522 0.00441661 0)
(0.100631 0.00452456 0)
(0.100748 0.00463226 0)
(0.100874 0.00473931 0)
(0.101007 0.00484529 0)
(0.10115 0.00494967 0)
(0.101301 0.00505192 0)
(0.101462 0.00515141 0)
(0.101632 0.0052475 0)
(0.101813 0.00533944 0)
(0.102003 0.00542645 0)
(0.102204 0.0055077 0)
(0.102415 0.00558226 0)
(0.102637 0.00564917 0)
(0.102869 0.00570743 0)
(0.103111 0.00575596 0)
(0.103363 0.00579365 0)
(0.103625 0.00581936 0)
(0.103896 0.00583188 0)
(0.104175 0.00583004 0)
(0.104462 0.00581262 0)
(0.104757 0.00577842 0)
(0.105057 0.00572627 0)
(0.105362 0.00565504 0)
(0.105671 0.00556366 0)
(0.105982 0.00545116 0)
(0.106292 0.00531666 0)
(0.106602 0.00515945 0)
(0.106908 0.00497894 0)
(0.107208 0.00477473 0)
(0.107501 0.00454653 0)
(0.107783 0.00429403 0)
(0.108053 0.00401625 0)
(0.10832 0.00370836 0)
(0.100626 0.00431079 0)
(0.100735 0.00441137 0)
(0.100852 0.00451138 0)
(0.100976 0.00461043 0)
(0.101108 0.00470806 0)
(0.101248 0.00480381 0)
(0.101397 0.00489713 0)
(0.101555 0.00498744 0)
(0.101722 0.0050741 0)
(0.101897 0.00515643 0)
(0.102082 0.00523369 0)
(0.102277 0.00530507 0)
(0.102481 0.00536974 0)
(0.102694 0.0054268 0)
(0.102917 0.00547532 0)
(0.103149 0.00551431 0)
(0.10339 0.00554276 0)
(0.103639 0.00555964 0)
(0.103897 0.00556387 0)
(0.104162 0.00555438 0)
(0.104433 0.00553011 0)
(0.104711 0.00548999 0)
(0.104993 0.00543301 0)
(0.105279 0.00535816 0)
(0.105568 0.00526456 0)
(0.105858 0.00515135 0)
(0.106147 0.00501783 0)
(0.106435 0.00486339 0)
(0.106718 0.00468757 0)
(0.106996 0.00449008 0)
(0.107266 0.00427072 0)
(0.107526 0.00402927 0)
(0.107774 0.00376493 0)
(0.108018 0.00347358 0)
(0.100723 0.00420517 0)
(0.100832 0.00429877 0)
(0.100947 0.00439149 0)
(0.10107 0.00448296 0)
(0.101201 0.00457275 0)
(0.101339 0.00466039 0)
(0.101485 0.00474537 0)
(0.101639 0.00482714 0)
(0.101802 0.00490507 0)
(0.101973 0.00497853 0)
(0.102152 0.00504682 0)
(0.10234 0.00510919 0)
(0.102537 0.00516485 0)
(0.102743 0.00521299 0)
(0.102956 0.00525274 0)
(0.103178 0.0052832 0)
(0.103408 0.00530346 0)
(0.103646 0.00531256 0)
(0.10389 0.00530957 0)
(0.104141 0.00529351 0)
(0.104398 0.00526343 0)
(0.10466 0.00521842 0)
(0.104925 0.00515756 0)
(0.105194 0.00508002 0)
(0.105464 0.004985 0)
(0.105735 0.00487181 0)
(0.106005 0.00473985 0)
(0.106272 0.00458862 0)
(0.106535 0.00441777 0)
(0.106792 0.00422709 0)
(0.107041 0.00401646 0)
(0.10728 0.00378572 0)
(0.107508 0.00353423 0)
(0.107732 0.00325848 0)
(0.100814 0.00410007 0)
(0.100921 0.00418702 0)
(0.101036 0.00427286 0)
(0.101157 0.00435719 0)
(0.101286 0.00443961 0)
(0.101421 0.00451967 0)
(0.101564 0.00459687 0)
(0.101715 0.00467069 0)
(0.101873 0.00474054 0)
(0.102039 0.00480583 0)
(0.102213 0.00486588 0)
(0.102395 0.00492002 0)
(0.102585 0.0049675 0)
(0.102782 0.00500758 0)
(0.102987 0.00503945 0)
(0.1032 0.00506231 0)
(0.103419 0.0050753 0)
(0.103645 0.00507759 0)
(0.103878 0.00506832 0)
(0.104116 0.00504663 0)
(0.104358 0.00501168 0)
(0.104605 0.00496266 0)
(0.104855 0.00489878 0)
(0.105107 0.0048193 0)
(0.10536 0.00472357 0)
(0.105613 0.00461099 0)
(0.105864 0.00448106 0)
(0.106113 0.00433339 0)
(0.106357 0.00416771 0)
(0.106595 0.00398387 0)
(0.106825 0.00378181 0)
(0.107046 0.00356144 0)
(0.107256 0.00332225 0)
(0.107461 0.00306125 0)
(0.100898 0.00399573 0)
(0.101005 0.0040764 0)
(0.101118 0.00415572 0)
(0.101237 0.00423334 0)
(0.101363 0.00430885 0)
(0.101496 0.00438181 0)
(0.101636 0.00445177 0)
(0.101783 0.00451822 0)
(0.101937 0.00458061 0)
(0.102098 0.00463837 0)
(0.102266 0.00469089 0)
(0.102442 0.00473752 0)
(0.102625 0.00477758 0)
(0.102815 0.00481038 0)
(0.103011 0.00483519 0)
(0.103214 0.00485127 0)
(0.103424 0.00485786 0)
(0.103639 0.00485418 0)
(0.10386 0.00483949 0)
(0.104085 0.004813 0)
(0.104314 0.00477399 0)
(0.104547 0.00472173 0)
(0.104782 0.00465555 0)
(0.105019 0.00457481 0)
(0.105256 0.00447895 0)
(0.105493 0.00436746 0)
(0.105727 0.00423995 0)
(0.105958 0.00409611 0)
(0.106185 0.00393572 0)
(0.106406 0.00375871 0)
(0.106619 0.00356505 0)
(0.106823 0.00335472 0)
(0.107016 0.00312729 0)
(0.107204 0.00288025 0)
(0.100976 0.00389239 0)
(0.101082 0.00396712 0)
(0.101193 0.0040403 0)
(0.101311 0.0041116 0)
(0.101434 0.00418064 0)
(0.101564 0.00424699 0)
(0.101701 0.00431021 0)
(0.101844 0.00436983 0)
(0.101993 0.00442533 0)
(0.10215 0.00447618 0)
(0.102313 0.00452179 0)
(0.102482 0.00456159 0)
(0.102658 0.00459493 0)
(0.10284 0.00462118 0)
(0.103029 0.00463967 0)
(0.103223 0.00464973 0)
(0.103422 0.00465067 0)
(0.103627 0.00464179 0)
(0.103837 0.00462243 0)
(0.10405 0.00459189 0)
(0.104267 0.00454953 0)
(0.104487 0.00449471 0)
(0.104708 0.00442685 0)
(0.104931 0.00434541 0)
(0.105153 0.0042499 0)
(0.105374 0.00413992 0)
(0.105593 0.00401513 0)
(0.105809 0.00387531 0)
(0.10602 0.00372029 0)
(0.106225 0.00355005 0)
(0.106422 0.00336461 0)
(0.10661 0.00316397 0)
(0.106789 0.00294782 0)
(0.106961 0.00271403 0)
(0.101049 0.00379024 0)
(0.101153 0.00385936 0)
(0.101262 0.00392677 0)
(0.101378 0.00399214 0)
(0.101499 0.00405512 0)
(0.101626 0.00411531 0)
(0.101759 0.00417227 0)
(0.101898 0.00422557 0)
(0.102043 0.00427473 0)
(0.102195 0.00431923 0)
(0.102352 0.00435854 0)
(0.102515 0.00439212 0)
(0.102685 0.00441938 0)
(0.10286 0.00443974 0)
(0.10304 0.00445259 0)
(0.103226 0.00445731 0)
(0.103416 0.00445328 0)
(0.103611 0.00443989 0)
(0.10381 0.00441653 0)
(0.104012 0.00438259 0)
(0.104217 0.0043375 0)
(0.104425 0.00428071 0)
(0.104633 0.00421171 0)
(0.104842 0.00413004 0)
(0.105051 0.00403529 0)
(0.105258 0.00392714 0)
(0.105463 0.00380531 0)
(0.105664 0.00366964 0)
(0.10586 0.00352002 0)
(0.106051 0.00335647 0)
(0.106234 0.00317904 0)
(0.106408 0.00298777 0)
(0.106573 0.00278244 0)
(0.106731 0.00256125 0)
(0.101116 0.00368947 0)
(0.101218 0.00375328 0)
(0.101326 0.00381526 0)
(0.101439 0.00387509 0)
(0.101558 0.00393241 0)
(0.101682 0.00398685 0)
(0.101811 0.00403802 0)
(0.101946 0.00408548 0)
(0.102087 0.00412879 0)
(0.102234 0.00416747 0)
(0.102386 0.00420104 0)
(0.102543 0.00422897 0)
(0.102706 0.00425074 0)
(0.102874 0.00426581 0)
(0.103046 0.00427363 0)
(0.103224 0.00427363 0)
(0.103405 0.00426526 0)
(0.103591 0.00424796 0)
(0.10378 0.0042212 0)
(0.103971 0.00418443 0)
(0.104165 0.00413715 0)
(0.104361 0.00407889 0)
(0.104558 0.0040092 0)
(0.104754 0.00392771 0)