/*--------------------------------*- C++ -*----------------------------------*\
| =========                 |                                                 |
| \\      /  F ield         | OpenFOAM: The Open Source CFD Toolbox           |
|  \\    /   O peration     | Version:  2412                                  |
|   \\  /    A nd           | Website:  www.openfoam.com                      |
|    \\/     M anipulation  |                                                 |
\*---------------------------------------------------------------------------*/
FoamFile
{
    version     2.0;
    format      ascii;
    arch        "LSB;label=32;scalar=64";
    class       volVectorField;
    location    "13.5";
    object      vorticity;
}
// * * * * * * * * * * * * * * * * * * * * * * * * * * * * * * * * * * * * * //

dimensions      [0 0 -1 0 0 0 0];

internalField   nonuniform List<vector> 
5285
(
(0 -0 2.09383e-05)
(0 -0 1.97097e-05)
(0 -0 1.83521e-05)
(0 -0 1.69725e-05)
(0 -0 1.5545e-05)
(0 -0 1.41035e-05)
(0 -0 1.26173e-05)
(0 -0 1.10947e-05)
(0 -0 9.5485e-06)
(0 -0 7.99386e-06)
(0 -0 6.44744e-06)
(0 -0 4.93132e-06)
(0 -0 3.49696e-06)
(0 -0 2.29119e-06)
(0 -0 1.54076e-06)
(0 -0 9.49362e-07)
(0 -0 1.43146e-05)
(0 -0 1.32281e-05)
(0 -0 1.20498e-05)
(0 -0 1.07852e-05)
(0 -0 9.55123e-06)
(0 -0 8.31881e-06)
(0 -0 7.05745e-06)
(0 -0 5.77691e-06)
(0 -0 4.49187e-06)
(0 -0 3.21931e-06)
(0 -0 1.97692e-06)
(0 -0 7.86694e-07)
(0 -0 -3.0118e-07)
(0 -0 -1.14091e-06)
(0 -0 -1.52934e-06)
(0 -0 -1.72197e-06)
(0 -0 8.47171e-06)
(0 -0 7.53262e-06)
(0 -0 6.46749e-06)
(0 -0 5.3657e-06)
(0 -0 4.31357e-06)
(0 -0 3.27918e-06)
(0 -0 2.23141e-06)
(0 -0 1.18092e-06)
(0 -0 1.43989e-07)
(0 -0 -8.60917e-07)
(0 -0 -1.81523e-06)
(0 -0 -2.69702e-06)
(0 -0 -3.45725e-06)
(0 -0 -3.95215e-06)
(0 -0 -3.97727e-06)
(0 -0 -3.81693e-06)
(0 -0 3.52121e-06)
(0 -0 2.70856e-06)
(0 -0 1.78071e-06)
(0 -0 8.31467e-07)
(0 -0 -5.26504e-08)
(0 -0 -9.04497e-07)
(0 -0 -1.7552e-06)
(0 -0 -2.59322e-06)
(0 -0 -3.40093e-06)
(0 -0 -4.15861e-06)
(0 -0 -4.84697e-06)
(0 -0 -5.44411e-06)
(0 -0 -5.90186e-06)
(0 -0 -6.07768e-06)
(0 -0 -5.76946e-06)
(0 -0 -5.26761e-06)
(0 -0 -4.79729e-07)
(0 -0 -1.17036e-06)
(0 -0 -1.96867e-06)
(0 -0 -2.77768e-06)
(0 -0 -3.50984e-06)
(0 -0 -4.19752e-06)
(0 -0 -4.8712e-06)
(0 -0 -5.51828e-06)
(0 -0 -6.11995e-06)
(0 -0 -6.65531e-06)
(0 -0 -7.10437e-06)
(0 -0 -7.44523e-06)
(0 -0 -7.63036e-06)
(0 -0 -7.5181e-06)
(0 -0 -6.90821e-06)
(0 -0 -6.09886e-06)
(0 -0 -3.54341e-06)
(0 -0 -4.12434e-06)
(0 -0 -4.80638e-06)
(0 -0 -5.49099e-06)
(0 -0 -6.08958e-06)
(0 -0 -6.63367e-06)
(0 -0 -7.15273e-06)
(0 -0 -7.63305e-06)
(0 -0 -8.05458e-06)
(0 -0 -8.39536e-06)
(0 -0 -8.63465e-06)
(0 -0 -8.75042e-06)
(0 -0 -8.69555e-06)
(0 -0 -8.32897e-06)
(0 -0 -7.45218e-06)
(0 -0 -6.37104e-06)
(0 -0 -5.7462e-06)
(0 -0 -6.2328e-06)
(0 -0 -6.81499e-06)
(0 -0 -7.39331e-06)
(0 -0 -7.87838e-06)
(0 -0 -8.30079e-06)
(0 -0 -8.68893e-06)
(0 -0 -9.02794e-06)
(0 -0 -9.29651e-06)
(0 -0 -9.47163e-06)
(0 -0 -9.53181e-06)
(0 -0 -9.4547e-06)
(0 -0 -9.19332e-06)
(0 -0 -8.60695e-06)
(0 -0 -7.4985e-06)
(0 -0 -6.18099e-06)
(0 -0 -7.20855e-06)
(0 -0 -7.61737e-06)
(0 -0 -8.11732e-06)
(0 -0 -8.60833e-06)
(0 -0 -9.00044e-06)
(0 -0 -9.32336e-06)
(0 -0 -9.60438e-06)
(0 -0 -9.82744e-06)
(0 -0 -9.97007e-06)
(0 -0 -1.00082e-05)
(0 -0 -9.9194e-06)
(0 -0 -9.68096e-06)
(0 -0 -9.24577e-06)
(0 -0 -8.47314e-06)
(0 -0 -7.16714e-06)
(0 -0 -5.64723e-06)
(0 -0 -8.07504e-06)
(0 -0 -8.42253e-06)
(0 -0 -8.85772e-06)
(0 -0 -9.28005e-06)
(0 -0 -9.59922e-06)
(0 -0 -9.84405e-06)
(0 -0 -1.00407e-05)
(0 -0 -1.0172e-05)
(0 -0 -1.02143e-05)
(0 -0 -1.01424e-05)
(0 -0 -9.933e-06)
(0 -0 -9.56272e-06)
(0 -0 -8.98418e-06)
(0 -0 -8.05645e-06)
(0 -0 -6.58451e-06)
(0 -0 -4.89368e-06)
(0 -0 -8.49563e-06)
(0 -0 -8.79734e-06)
(0 -0 -9.18418e-06)
(0 -0 -9.55528e-06)
(0 -0 -9.82008e-06)
(0 -0 -1.00065e-05)
(0 -0 -1.01397e-05)
(0 -0 -1.02012e-05)
(0 -0 -1.01664e-05)
(0 -0 -1.00089e-05)
(0 -0 -9.70438e-06)
(0 -0 -9.2287e-06)
(0 -0 -8.53398e-06)
(0 -0 -7.47886e-06)
(0 -0 -5.86908e-06)
(0 -0 -4.03525e-06)
(0 -0 -8.61036e-06)
(0 -0 -8.88035e-06)
(0 -0 -9.23357e-06)
(0 -0 -9.569e-06)
(0 -0 -9.79591e-06)
(0 -0 -9.94136e-06)
(0 -0 -1.00293e-05)
(0 -0 -1.00405e-05)
(0 -0 -9.94877e-06)
(0 -0 -9.72676e-06)
(0 -0 -9.34907e-06)
(0 -0 -8.79072e-06)
(0 -0 -8.00309e-06)
(0 -0 -6.84424e-06)
(0 -0 -5.12054e-06)
(0 -0 -3.16731e-06)
(0 -0 -8.53831e-06)
(0 -0 -8.78868e-06)
(0 -0 -9.12093e-06)
(0 -0 -9.43399e-06)
(0 -0 -9.63699e-06)
(0 -0 -9.75616e-06)
(0 -0 -9.81439e-06)
(0 -0 -9.79123e-06)
(0 -0 -9.65953e-06)
(0 -0 -9.39059e-06)
(0 -0 -8.95797e-06)
(0 -0 -8.33565e-06)
(0 -0 -7.47419e-06)
(0 -0 -6.23097e-06)
(0 -0 -4.41271e-06)
(0 -0 -2.35887e-06)
(0 -0 -8.37085e-06)
(0 -0 -8.61153e-06)
(0 -0 -8.9332e-06)
(0 -0 -9.23467e-06)
(0 -0 -9.4251e-06)
(0 -0 -9.52989e-06)
(0 -0 -9.57078e-06)
(0 -0 -9.52624e-06)
(0 -0 -9.36798e-06)
(0 -0 -9.06608e-06)
(0 -0 -8.59289e-06)
(0 -0 -7.92132e-06)
(0 -0 -7.00096e-06)
(0 -0 -5.68821e-06)
(0 -0 -3.78976e-06)
(0 -0 -1.64823e-06)
(0 -0 -8.16924e-06)
(0 -0 -8.40799e-06)
(0 -0 -8.72702e-06)
(0 -0 -9.02514e-06)
(0 -0 -9.21167e-06)
(0 -0 -9.31112e-06)
(0 -0 -9.34406e-06)
(0 -0 -9.28791e-06)
(0 -0 -9.11322e-06)
(0 -0 -8.78882e-06)
(0 -0 -8.28581e-06)
(0 -0 -7.57593e-06)
(0 -0 -6.60761e-06)
(0 -0 -5.2357e-06)
(0 -0 -3.26545e-06)
(0 -0 -1.04024e-06)
(0 -0 -7.96609e-06)
(0 -0 -8.20844e-06)
(0 -0 -8.53044e-06)
(0 -0 -8.83099e-06)
(0 -0 -9.01965e-06)
(0 -0 -9.12003e-06)
(0 -0 -9.15154e-06)
(0 -0 -9.0906e-06)
(0 -0 -8.90654e-06)
(0 -0 -8.56689e-06)
(0 -0 -8.04153e-06)
(0 -0 -7.30087e-06)
(0 -0 -6.29182e-06)
(0 -0 -4.86651e-06)
(0 -0 -2.82466e-06)
(0 -0 -5.02311e-07)
(0 -0 -7.77001e-06)
(0 -0 -8.01964e-06)
(0 -0 -8.34811e-06)
(0 -0 -8.65448e-06)
(0 -0 -8.84874e-06)
(0 -0 -8.95376e-06)
(0 -0 -8.98783e-06)
(0 -0 -8.92625e-06)
(0 -0 -8.73714e-06)
(0 -0 -8.38674e-06)
(0 -0 -7.84361e-06)
(0 -0 -7.07676e-06)
(0 -0 -6.03106e-06)
(0 -0 -4.55369e-06)
(0 -0 -2.42827e-06)
(0 -0 4.70647e-08)
(0 -0 -7.57298e-06)
(0 -0 -7.83235e-06)
(0 -0 -8.16902e-06)
(0 -0 -8.48214e-06)
(0 -0 -8.68307e-06)
(0 -0 -8.79417e-06)
(0 -0 -8.83252e-06)
(0 -0 -8.77219e-06)
(0 -0 -8.58009e-06)
(0 -0 -8.22115e-06)
(0 -0 -7.66244e-06)
(0 -0 -6.87161e-06)
(0 -0 -5.79122e-06)
(0 -0 -4.26085e-06)
(0 -0 -2.02083e-06)
(0 -0 5.79728e-07)
(0 -0 -7.36006e-06)
(0 -0 -7.63218e-06)
(0 -0 -7.97749e-06)
(0 -0 -8.29529e-06)
(0 -0 -8.50173e-06)
(0 -0 -8.6186e-06)
(0 -0 -8.66124e-06)
(0 -0 -8.60249e-06)
(0 -0 -8.40778e-06)
(0 -0 -8.04065e-06)
(0 -0 -7.4668e-06)
(0 -0 -6.65254e-06)
(0 -0 -5.53911e-06)
(0 -0 -3.95847e-06)
(0 -0 -1.67485e-06)
(0 -0 1.02498e-06)
(0 -0 -7.13674e-06)
(0 -0 -7.41433e-06)
(0 -0 -7.77217e-06)
(0 -0 -8.09034e-06)
(0 -0 -8.30037e-06)
(0 -0 -8.42251e-06)
(0 -0 -8.46942e-06)
(0 -0 -8.41215e-06)
(0 -0 -8.2147e-06)
(0 -0 -7.83918e-06)
(0 -0 -7.24994e-06)
(0 -0 -6.41235e-06)
(0 -0 -5.26935e-06)
(0 -0 -3.66679e-06)
(0 -0 -1.4211e-06)
(0 -0 1.19674e-06)
(0 -0 -6.93981e-06)
(0 -0 -7.23088e-06)
(0 -0 -7.56179e-06)
(0 -0 -7.89485e-06)
(0 -0 -8.10852e-06)
(0 -0 -8.23845e-06)
(0 -0 -8.29132e-06)
(0 -0 -8.2368e-06)
(0 -0 -8.0376e-06)
(0 -0 -7.6545e-06)
(0 -0 -7.05059e-06)
(0 -0 -6.19061e-06)
(0 -0 -5.02073e-06)
(0 -0 -3.41484e-06)
(0 -0 -1.21141e-06)
(0 -0 1.16225e-06)
(0 -0 -0.000463612)
(0 -0 -0.000441672)
(0 -0 -0.000489972)
(0 -0 -0.000771244)
(0 -0 -0.00133956)
(0 -0 -0.00201486)
(0 -0 -0.00247057)
(0 -0 -0.00244856)
(0 -0 -0.00191104)
(0 -0 -0.0010338)
(0 -0 -8.64758e-05)
(0 -0 0.000698517)
(0 -0 0.0011982)
(0 -0 0.00140205)
(0 -0 0.00137327)
(0 -0 0.00120183)
(0 -0 0.000970091)
(0 -0 0.000736556)
(0 -0 0.000533834)
(0 -0 0.000374205)
(0 -0 0.000257202)
(0 -0 0.000176129)
(0 -0 0.000122468)
(0 -0 8.82803e-05)
(0 -0 6.71855e-05)
(0 -0 5.45104e-05)
(0 -0 4.7051e-05)
(0 -0 4.27196e-05)
(0 -0 4.02099e-05)
(0 -0 3.87314e-05)
(0 -0 3.78194e-05)
(0 -0 3.72067e-05)
(0 -0 3.6743e-05)
(0 -0 3.63452e-05)
(0 -0 3.59676e-05)
(0 -0 3.55857e-05)
(0 -0 3.51861e-05)
(0 -0 3.47615e-05)
(0 -0 3.43076e-05)
(0 -0 3.38221e-05)
(0 -0 3.33031e-05)
(0 -0 3.27495e-05)
(0 -0 3.21603e-05)
(0 -0 3.15346e-05)
(0 -0 3.08715e-05)
(0 -0 3.01704e-05)
(0 -0 2.94305e-05)
(0 -0 2.86511e-05)
(0 -0 2.78317e-05)
(0 -0 2.69719e-05)
(0 -0 2.60714e-05)
(0 -0 2.51307e-05)
(0 -0 2.41472e-05)
(0 -0 2.31314e-05)
(0 -0 2.20304e-05)
(0 -0 -0.000461762)
(0 -0 -0.000440655)
(0 -0 -0.000486113)
(0 -0 -0.000755461)
(0 -0 -0.00130419)
(0 -0 -0.00196294)
(0 -0 -0.0024184)
(0 -0 -0.00241886)
(0 -0 -0.00192205)
(0 -0 -0.00109176)
(0 -0 -0.000184686)
(0 -0 0.000575206)
(0 -0 0.00106713)
(0 -0 0.00127776)
(0 -0 0.00126504)
(0 -0 0.00111361)
(0 -0 0.000901736)
(0 -0 0.000685491)
(0 -0 0.000496501)
(0 -0 0.000347041)
(0 -0 0.000237151)
(0 -0 0.00016082)
(0 -0 0.000110189)
(0 -0 7.78648e-05)
(0 -0 5.78746e-05)
(0 -0 4.58298e-05)
(0 -0 3.87149e-05)
(0 -0 3.45619e-05)
(0 -0 3.21374e-05)
(0 -0 3.06947e-05)
(0 -0 2.97937e-05)
(0 -0 2.91816e-05)
(0 -0 2.87158e-05)
(0 -0 2.83173e-05)
(0 -0 2.79427e-05)
(0 -0 2.75686e-05)
(0 -0 2.71821e-05)
(0 -0 2.67762e-05)
(0 -0 2.63467e-05)
(0 -0 2.58913e-05)
(0 -0 2.54083e-05)
(0 -0 2.48965e-05)
(0 -0 2.43549e-05)
(0 -0 2.37826e-05)
(0 -0 2.31788e-05)
(0 -0 2.25429e-05)
(0 -0 2.18741e-05)
(0 -0 2.11718e-05)
(0 -0 2.04356e-05)
(0 -0 1.9665e-05)
(0 -0 1.886e-05)
(0 -0 1.80212e-05)
(0 -0 1.71503e-05)
(0 -0 1.62369e-05)
(0 -0 1.52999e-05)
(0 -0 -0.000459655)
(0 -0 -0.000439376)
(0 -0 -0.000482114)
(0 -0 -0.000739794)
(0 -0 -0.00126901)
(0 -0 -0.00191065)
(0 -0 -0.00236438)
(0 -0 -0.00238508)
(0 -0 -0.00192657)
(0 -0 -0.00114126)
(0 -0 -0.00027336)
(0 -0 0.000461503)
(0 -0 0.000944907)
(0 -0 0.00116102)
(0 -0 0.00116288)
(0 -0 0.00103003)
(0 -0 0.000836791)
(0 -0 0.000636867)
(0 -0 0.000460899)
(0 -0 0.000321116)
(0 -0 0.000218016)
(0 -0 0.000146228)
(0 -0 9.85131e-05)
(0 -0 6.79927e-05)
(0 -0 4.90813e-05)
(0 -0 3.76615e-05)
(0 -0 3.08975e-05)
(0 -0 2.69353e-05)
(0 -0 2.46119e-05)
(0 -0 2.32216e-05)
(0 -0 2.23489e-05)
(0 -0 2.17541e-05)
(0 -0 2.13024e-05)
(0 -0 2.09186e-05)
(0 -0 2.05616e-05)
(0 -0 2.0209e-05)
(0 -0 1.98485e-05)
(0 -0 1.94733e-05)
(0 -0 1.90795e-05)
(0 -0 1.86647e-05)
(0 -0 1.82273e-05)
(0 -0 1.77661e-05)
(0 -0 1.72801e-05)
(0 -0 1.67685e-05)
(0 -0 1.62306e-05)
(0 -0 1.56656e-05)
(0 -0 1.5073e-05)
(0 -0 1.44521e-05)
(0 -0 1.38025e-05)
(0 -0 1.31239e-05)
(0 -0 1.24162e-05)
(0 -0 1.16801e-05)
(0 -0 1.09175e-05)
(0 -0 1.01285e-05)
(0 -0 9.3048e-06)
(0 -0 -0.000457286)
(0 -0 -0.000437818)
(0 -0 -0.000478006)
(0 -0 -0.000724415)
(0 -0 -0.00123438)
(0 -0 -0.0018584)
(0 -0 -0.00230874)
(0 -0 -0.002347)
(0 -0 -0.00192378)
(0 -0 -0.0011809)
(0 -0 -0.000350673)
(0 -0 0.000359436)
(0 -0 0.000833535)
(0 -0 0.00105367)
(0 -0 0.00106836)
(0 -0 0.000952354)
(0 -0 0.00077625)
(0 -0 0.000591454)
(0 -0 0.000427622)
(0 -0 0.000296897)
(0 -0 0.00020018)
(0 -0 0.000132678)
(0 -0 8.77267e-05)
(0 -0 5.89264e-05)
(0 -0 4.10531e-05)
(0 -0 3.02431e-05)
(0 -0 2.38296e-05)
(0 -0 2.00661e-05)
(0 -0 1.78554e-05)
(0 -0 1.65314e-05)
(0 -0 1.5701e-05)
(0 -0 1.51376e-05)
(0 -0 1.47132e-05)
(0 -0 1.43567e-05)
(0 -0 1.40291e-05)
(0 -0 1.37089e-05)
(0 -0 1.33844e-05)
(0 -0 1.30491e-05)
(0 -0 1.26993e-05)
(0 -0 1.23326e-05)
(0 -0 1.19475e-05)
(0 -0 1.15427e-05)
(0 -0 1.11175e-05)
(0 -0 1.06708e-05)
(0 -0 1.02021e-05)
(0 -0 9.71075e-06)
(0 -0 9.19604e-06)
(0 -0 8.65752e-06)
(0 -0 8.09476e-06)
(0 -0 7.50751e-06)
(0 -0 6.89574e-06)
(0 -0 6.26021e-06)
(0 -0 5.60301e-06)
(0 -0 4.92576e-06)
(0 -0 4.22696e-06)
(0 -0 -0.000454651)
(0 -0 -0.000435972)
(0 -0 -0.000473802)
(0 -0 -0.000709433)
(0 -0 -0.00120055)
(0 -0 -0.00180656)
(0 -0 -0.0022518)
(0 -0 -0.00230473)
(0 -0 -0.00191343)
(0 -0 -0.00121002)
(0 -0 -0.000415625)
(0 -0 0.000270203)
(0 -0 0.000734263)
(0 -0 0.000956873)
(0 -0 0.000982488)
(0 -0 0.000881438)
(0 -0 0.000720796)
(0 -0 0.000549786)
(0 -0 0.00039709)
(0 -0 0.00027472)
(0 -0 0.000183915)
(0 -0 0.000120401)
(0 -0 7.80339e-05)
(0 -0 5.08517e-05)
(0 -0 3.39631e-05)
(0 -0 2.37391e-05)
(0 -0 1.76693e-05)
(0 -0 1.41071e-05)
(0 -0 1.20167e-05)
(0 -0 1.07686e-05)
(0 -0 9.99088e-06)
(0 -0 9.4691e-06)
(0 -0 9.08198e-06)
(0 -0 8.76202e-06)
(0 -0 8.47208e-06)
(0 -0 8.19183e-06)
(0 -0 7.91008e-06)
(0 -0 7.62059e-06)
(0 -0 7.31975e-06)
(0 -0 7.00532e-06)
(0 -0 6.67578e-06)
(0 -0 6.33002e-06)
(0 -0 5.96714e-06)
(0 -0 5.58638e-06)
(0 -0 5.18705e-06)
(0 -0 4.76853e-06)
(0 -0 4.33028e-06)
(0 -0 3.8718e-06)
(0 -0 3.39275e-06)
(0 -0 2.89287e-06)
(0 -0 2.3722e-06)
(0 -0 1.83159e-06)
(0 -0 1.27329e-06)
(0 -0 6.99674e-07)
(0 -0 1.1107e-07)
(0 -0 -0.000451746)
(0 -0 -0.000433829)
(0 -0 -0.000469508)
(0 -0 -0.000694929)
(0 -0 -0.00116774)
(0 -0 -0.00175548)
(0 -0 -0.00219397)
(0 -0 -0.00225862)
(0 -0 -0.00189569)
(0 -0 -0.00122859)
(0 -0 -0.000467975)
(0 -0 0.000194206)
(0 -0 0.000647585)
(0 -0 0.000871156)
(0 -0 0.000905762)
(0 -0 0.000817704)
(0 -0 0.000670783)
(0 -0 0.000512153)
(0 -0 0.000369534)
(0 -0 0.000254771)
(0 -0 0.000169376)
(0 -0 0.000109529)
(0 -0 6.95489e-05)
(0 -0 4.38704e-05)
(0 -0 2.79041e-05)
(0 -0 1.8235e-05)
(0 -0 1.24962e-05)
(0 -0 9.1328e-06)
(0 -0 7.16552e-06)
(0 -0 5.99864e-06)
(0 -0 5.28e-06)
(0 -0 4.8063e-06)
(0 -0 4.46251e-06)
(0 -0 4.18453e-06)
(0 -0 3.93706e-06)
(0 -0 3.70074e-06)
(0 -0 3.46492e-06)
(0 -0 3.22362e-06)
(0 -0 2.97338e-06)
(0 -0 2.71203e-06)
(0 -0 2.43815e-06)
(0 -0 2.15065e-06)
(0 -0 1.84869e-06)
(0 -0 1.53153e-06)
(0 -0 1.19853e-06)
(0 -0 8.4911e-07)
(0 -0 4.82739e-07)
(0 -0 9.89765e-08)
(0 -0 -3.02519e-07)
(0 -0 -7.21957e-07)
(0 -0 -1.15926e-06)
(0 -0 -1.61351e-06)
(0 -0 -2.0823e-06)
(0 -0 -2.56288e-06)
(0 -0 -3.05395e-06)
(0 -0 -0.000448571)
(0 -0 -0.00043138)
(0 -0 -0.00046512)
(0 -0 -0.000680939)
(0 -0 -0.00113609)
(0 -0 -0.00170545)
(0 -0 -0.00213572)
(0 -0 -0.00220926)
(0 -0 -0.00187118)
(0 -0 -0.00123717)
(0 -0 -0.000508172)
(0 -0 0.000131131)
(0 -0 0.000573314)
(0 -0 0.000796429)
(0 -0 0.000838168)
(0 -0 0.000761184)
(0 -0 0.000626264)
(0 -0 0.000478613)
(0 -0 0.000345013)
(0 -0 0.000237102)
(0 -0 0.000156607)
(0 -0 0.000100097)
(0 -0 6.23003e-05)
(0 -0 3.80044e-05)
(0 -0 2.2892e-05)
(0 -0 1.37414e-05)
(0 -0 8.31602e-06)
(0 -0 5.14425e-06)
(0 -0 3.29857e-06)
(0 -0 2.21421e-06)
(0 -0 1.55706e-06)
(0 -0 1.1341e-06)
(0 -0 8.36073e-07)
(0 -0 6.0203e-07)
(0 -0 3.98375e-07)
(0 -0 2.06669e-07)
(0 -0 1.67534e-08)
(0 -0 -1.77074e-07)
(0 -0 -3.78142e-07)
(0 -0 -5.88512e-07)
(0 -0 -8.09564e-07)
(0 -0 -1.04231e-06)
(0 -0 -1.28757e-06)
(0 -0 -1.54602e-06)
(0 -0 -1.81828e-06)
(0 -0 -2.10489e-06)
(0 -0 -2.40635e-06)
(0 -0 -2.72308e-06)
(0 -0 -3.05543e-06)
(0 -0 -3.40357e-06)
(0 -0 -3.76738e-06)
(0 -0 -4.1459e-06)
(0 -0 -4.53661e-06)
(0 -0 -4.93643e-06)
(0 -0 -5.34331e-06)
(0 -0 -0.000445124)
(0 -0 -0.000428624)
(0 -0 -0.000460626)
(0 -0 -0.000667465)
(0 -0 -0.00110567)
(0 -0 -0.00165671)
(0 -0 -0.00207752)
(0 -0 -0.00215734)
(0 -0 -0.00184081)
(0 -0 -0.00123675)
(0 -0 -0.000537203)
(0 -0 8.00905e-05)
(0 -0 0.000510713)
(0 -0 0.000732121)
(0 -0 0.000779283)
(0 -0 0.00071158)
(0 -0 0.000587037)
(0 -0 0.00044903)
(0 -0 0.000323432)
(0 -0 0.000221644)
(0 -0 0.000145554)
(0 -0 9.20573e-05)
(0 -0 5.62418e-05)
(0 -0 3.32067e-05)
(0 -0 1.88772e-05)
(0 -0 1.02056e-05)
(0 -0 5.07221e-06)
(0 -0 2.08128e-06)
(0 -0 3.52049e-07)
(0 -0 -6.52097e-07)
(0 -0 -1.24881e-06)
(0 -0 -1.62168e-06)
(0 -0 -1.87471e-06)
(0 -0 -2.06594e-06)
(0 -0 -2.22737e-06)
(0 -0 -2.37659e-06)
(0 -0 -2.52329e-06)
(0 -0 -2.67295e-06)
(0 -0 -2.82873e-06)
(0 -0 -2.99261e-06)
(0 -0 -3.16591e-06)
(0 -0 -3.3496e-06)
(0 -0 -3.54443e-06)
(0 -0 -3.75104e-06)
(0 -0 -3.97001e-06)
(0 -0 -4.20186e-06)
(0 -0 -4.44706e-06)
(0 -0 -4.70604e-06)
(0 -0 -4.97914e-06)
(0 -0 -5.26653e-06)
(0 -0 -5.56805e-06)
(0 -0 -5.88272e-06)
(0 -0 -6.20792e-06)
(0 -0 -6.54023e-06)
(0 -0 -6.8768e-06)
(0 -0 -0.000441405)
(0 -0 -0.000425557)
(0 -0 -0.00045601)
(0 -0 -0.000654482)
(0 -0 -0.00107651)
(0 -0 -0.00160946)
(0 -0 -0.00201982)
(0 -0 -0.00210366)
(0 -0 -0.00180566)
(0 -0 -0.00122863)
(0 -0 -0.000556419)
(0 -0 3.97972e-05)
(0 -0 0.00045865)
(0 -0 0.000677298)
(0 -0 0.000728379)
(0 -0 0.000668348)
(0 -0 0.000552701)
(0 -0 0.000423113)
(0 -0 0.000304577)
(0 -0 0.000208235)
(0 -0 0.000136084)
(0 -0 8.5297e-05)
(0 -0 5.12697e-05)
(0 -0 2.93774e-05)
(0 -0 1.57607e-05)
(0 -0 7.52709e-06)
(0 -0 2.66246e-06)
(0 -0 -1.61035e-07)
(0 -0 -1.78176e-06)
(0 -0 -2.7108e-06)
(0 -0 -3.25085e-06)
(0 -0 -3.57694e-06)
(0 -0 -3.78824e-06)
(0 -0 -3.94014e-06)
(0 -0 -4.06318e-06)
(0 -0 -4.17417e-06)
(0 -0 -4.28238e-06)
(0 -0 -4.39304e-06)
(0 -0 -4.50919e-06)
(0 -0 -4.63273e-06)
(0 -0 -4.76492e-06)
(0 -0 -4.90667e-06)
(0 -0 -5.05869e-06)
(0 -0 -5.22156e-06)
(0 -0 -5.39581e-06)
(0 -0 -5.58196e-06)
(0 -0 -5.78047e-06)
(0 -0 -5.99179e-06)
(0 -0 -6.21624e-06)
(0 -0 -6.45402e-06)
(0 -0 -6.70498e-06)
(0 -0 -6.96811e-06)
(0 -0 -7.24064e-06)
(0 -0 -7.51887e-06)
(0 -0 -7.79905e-06)
(0 -0 -0.000437416)
(0 -0 -0.000422181)
(0 -0 -0.000451253)
(0 -0 -0.000641941)
(0 -0 -0.00104859)
(0 -0 -0.0015638)
(0 -0 -0.00196301)
(0 -0 -0.002049)
(0 -0 -0.00176689)
(0 -0 -0.00121424)
(0 -0 -0.000567372)
(0 -0 8.73016e-06)
(0 -0 0.000415752)
(0 -0 0.000630803)
(0 -0 0.00068453)
(0 -0 0.000630775)
(0 -0 0.000522726)
(0 -0 0.00040047)
(0 -0 0.000288156)
(0 -0 0.00019665)
(0 -0 0.000128017)
(0 -0 7.966e-05)
(0 -0 4.72431e-05)
(0 -0 2.63833e-05)
(0 -0 1.34124e-05)
(0 -0 5.57689e-06)
(0 -0 9.56909e-07)
(0 -0 -1.714e-06)
(0 -0 -3.23592e-06)
(0 -0 -4.09687e-06)
(0 -0 -4.58594e-06)
(0 -0 -4.87037e-06)
(0 -0 -5.04495e-06)
(0 -0 -5.16262e-06)
(0 -0 -5.25261e-06)
(0 -0 -5.33099e-06)
(0 -0 -5.40667e-06)
(0 -0 -5.48465e-06)
(0 -0 -5.56786e-06)
(0 -0 -5.65813e-06)
(0 -0 -5.75667e-06)
(0 -0 -5.86433e-06)
(0 -0 -5.98176e-06)
(0 -0 -6.10949e-06)
(0 -0 -6.24802e-06)
(0 -0 -6.39784e-06)
(0 -0 -6.55944e-06)
(0 -0 -6.73326e-06)
(0 -0 -6.9197e-06)
(0 -0 -7.11893e-06)
(0 -0 -7.33084e-06)
(0 -0 -7.5544e-06)
(0 -0 -7.78673e-06)
(0 -0 -8.02374e-06)
(0 -0 -8.26077e-06)
(0 -0 -0.000433157)
(0 -0 -0.000418497)
(0 -0 -0.000446335)
(0 -0 -0.000629783)
(0 -0 -0.00102184)
(0 -0 -0.00151978)
(0 -0 -0.00190743)
(0 -0 -0.00199406)
(0 -0 -0.0017256)
(0 -0 -0.00119499)
(0 -0 -0.000571656)
(0 -0 -1.47073e-05)
(0 -0 0.000380552)
(0 -0 0.00059138)
(0 -0 0.000646721)
(0 -0 0.000598075)
(0 -0 0.000496518)
(0 -0 0.000380657)
(0 -0 0.000273836)
(0 -0 0.00018663)
(0 -0 0.000121144)
(0 -0 7.49697e-05)
(0 -0 4.40038e-05)
(0 -0 2.40765e-05)
(0 -0 1.16899e-05)
(0 -0 4.21456e-06)
(0 -0 -1.84285e-07)
(0 -0 -2.7178e-06)
(0 -0 -4.15147e-06)
(0 -0 -4.95232e-06)
(0 -0 -5.39714e-06)
(0 -0 -5.64604e-06)
(0 -0 -5.78983e-06)
(0 -0 -5.87922e-06)
(0 -0 -5.94223e-06)
(0 -0 -5.99428e-06)
(0 -0 -6.04392e-06)
(0 -0 -6.09597e-06)
(0 -0 -6.15326e-06)
(0 -0 -6.21757e-06)
(0 -0 -6.29007e-06)
(0 -0 -6.37154e-06)
(0 -0 -6.46257e-06)
(0 -0 -6.56366e-06)
(0 -0 -6.67525e-06)
(0 -0 -6.79784e-06)
(0 -0 -6.93192e-06)
(0 -0 -7.07798e-06)
(0 -0 -7.23642e-06)
(0 -0 -7.40751e-06)
(0 -0 -7.59114e-06)
(0 -0 -7.78624e-06)
(0 -0 -7.98984e-06)
(0 -0 -8.19746e-06)
(0 -0 -8.40338e-06)
(0 -0 -0.00042863)
(0 -0 -0.000414509)
(0 -0 -0.000441236)
(0 -0 -0.000617939)
(0 -0 -0.000996167)
(0 -0 -0.00147741)
(0 -0 -0.00185332)
(0 -0 -0.00193945)
(0 -0 -0.0016828)
(0 -0 -0.00117223)
(0 -0 -0.00057079)
(0 -0 -3.20607e-05)
(0 -0 0.000351614)
(0 -0 0.000557785)
(0 -0 0.000613934)
(0 -0 0.00056945)
(0 -0 0.00047347)
(0 -0 0.000363221)
(0 -0 0.000261273)
(0 -0 0.000177913)
(0 -0 0.000115254)
(0 -0 7.10476e-05)
(0 -0 4.13934e-05)
(0 -0 2.23105e-05)
(0 -0 1.0453e-05)
(0 -0 3.30343e-06)
(0 -0 -8.96249e-07)
(0 -0 -3.30702e-06)
(0 -0 -4.66291e-06)
(0 -0 -5.41187e-06)
(0 -0 -5.81943e-06)
(0 -0 -6.0392e-06)
(0 -0 -6.15835e-06)
(0 -0 -6.22555e-06)
(0 -0 -6.26771e-06)
(0 -0 -6.29968e-06)
(0 -0 -6.32968e-06)
(0 -0 -6.36235e-06)
(0 -0 -6.40047e-06)
(0 -0 -6.4458e-06)
(0 -0 -6.49948e-06)
(0 -0 -6.5622e-06)
(0 -0 -6.63448e-06)
(0 -0 -6.71678e-06)
(0 -0 -6.80953e-06)
(0 -0 -6.91324e-06)
(0 -0 -7.02838e-06)
(0 -0 -7.15551e-06)
(0 -0 -7.29506e-06)
(0 -0 -7.44735e-06)
(0 -0 -7.61229e-06)
(0 -0 -7.7888e-06)
(0 -0 -7.97377e-06)
(0 -0 -8.16234e-06)
(0 -0 -8.34761e-06)
(0 -0 -0.000423837)
(0 -0 -0.000410221)
(0 -0 -0.000435939)
(0 -0 -0.00060634)
(0 -0 -0.000971473)
(0 -0 -0.00143663)
(0 -0 -0.00180082)
(0 -0 -0.00188565)
(0 -0 -0.00163933)
(0 -0 -0.00114711)
(0 -0 -0.000566128)
(0 -0 -4.47315e-05)
(0 -0 0.000327616)
(0 -0 0.000528862)
(0 -0 0.000585215)
(0 -0 0.000544149)
(0 -0 0.000453008)
(0 -0 0.000347729)
(0 -0 0.000250143)
(0 -0 0.000170247)
(0 -0 0.000110147)
(0 -0 6.77277e-05)
(0 -0 3.92664e-05)
(0 -0 2.09518e-05)
(0 -0 9.57553e-06)
(0 -0 2.72134e-06)
(0 -0 -1.29884e-06)
(0 -0 -3.60023e-06)
(0 -0 -4.88809e-06)
(0 -0 -5.59287e-06)
(0 -0 -5.96977e-06)
(0 -0 -6.16646e-06)
(0 -0 -6.26673e-06)
(0 -0 -6.31741e-06)
(0 -0 -6.34439e-06)
(0 -0 -6.36197e-06)
(0 -0 -6.37808e-06)
(0 -0 -6.39723e-06)
(0 -0 -6.42217e-06)
(0 -0 -6.4548e-06)
(0 -0 -6.4962e-06)
(0 -0 -6.54677e-06)
(0 -0 -6.60693e-06)
(0 -0 -6.67721e-06)
(0 -0 -6.75815e-06)
(0 -0 -6.85023e-06)
(0 -0 -6.95393e-06)
(0 -0 -7.0698e-06)
(0 -0 -7.19832e-06)
(0 -0 -7.33983e-06)
(0 -0 -7.49427e-06)
(0 -0 -7.66054e-06)
(0 -0 -7.8354e-06)
(0 -0 -8.01356e-06)
(0 -0 -8.18679e-06)
(0 -0 -0.000418779)
(0 -0 -0.000405636)
(0 -0 -0.00043043)
(0 -0 -0.000594922)
(0 -0 -0.000947642)
(0 -0 -0.00139736)
(0 -0 -0.00175)
(0 -0 -0.00183298)
(0 -0 -0.00159586)
(0 -0 -0.00112059)
(0 -0 -0.00055881)
(0 -0 -5.39205e-05)
(0 -0 0.000307411)
(0 -0 0.000503596)
(0 -0 0.000559721)
(0 -0 0.000521502)
(0 -0 0.000434621)
(0 -0 0.000333795)
(0 -0 0.000240156)
(0 -0 0.000163413)
(0 -0 0.00010565)
(0 -0 6.48657e-05)
(0 -0 3.74978e-05)
(0 -0 1.98875e-05)
(0 -0 8.95174e-06)
(0 -0 2.36698e-06)
(0 -0 -1.49064e-06)
(0 -0 -3.69425e-06)
(0 -0 -4.92255e-06)
(0 -0 -5.58987e-06)
(0 -0 -5.94186e-06)
(0 -0 -6.12069e-06)
(0 -0 -6.20703e-06)
(0 -0 -6.24599e-06)
(0 -0 -6.26254e-06)
(0 -0 -6.27047e-06)
(0 -0 -6.27744e-06)
(0 -0 -6.28786e-06)
(0 -0 -6.30457e-06)
(0 -0 -6.33003e-06)
(0 -0 -6.36506e-06)
(0 -0 -6.40906e-06)
(0 -0 -6.46231e-06)
(0 -0 -6.52579e-06)
(0 -0 -6.6004e-06)
(0 -0 -6.68666e-06)
(0 -0 -6.78504e-06)
(0 -0 -6.89595e-06)
(0 -0 -7.0199e-06)
(0 -0 -7.15717e-06)
(0 -0 -7.30772e-06)
(0 -0 -7.47044e-06)
(0 -0 -7.64194e-06)
(0 -0 -7.81643e-06)
(0 -0 -7.98433e-06)
(0 -0 -0.000413458)
(0 -0 -0.000400761)
(0 -0 -0.000424698)
(0 -0 -0.000583624)
(0 -0 -0.000924562)
(0 -0 -0.0013595)
(0 -0 -0.00170086)
(0 -0 -0.00178167)
(0 -0 -0.00155287)
(0 -0 -0.0010934)
(0 -0 -0.000549741)
(0 -0 -6.06011e-05)
(0 -0 0.000290054)
(0 -0 0.000481143)
(0 -0 0.000536742)
(0 -0 0.000500944)
(0 -0 0.00041787)
(0 -0 0.00032109)
(0 -0 0.000231066)
(0 -0 0.000157222)
(0 -0 0.000101615)
(0 -0 6.23427e-05)
(0 -0 3.59863e-05)
(0 -0 1.90276e-05)
(0 -0 8.4987e-06)
(0 -0 2.16192e-06)
(0 -0 -1.54715e-06)
(0 -0 -3.6625e-06)
(0 -0 -4.83817e-06)
(0 -0 -5.47345e-06)
(0 -0 -5.8051e-06)
(0 -0 -5.97015e-06)
(0 -0 -6.04639e-06)
(0 -0 -6.07731e-06)
(0 -0 -6.08702e-06)
(0 -0 -6.08883e-06)
(0 -0 -6.09017e-06)
(0 -0 -6.09536e-06)
(0 -0 -6.10763e-06)
(0 -0 -6.13132e-06)
(0 -0 -6.16607e-06)
(0 -0 -6.20801e-06)
(0 -0 -6.2575e-06)
(0 -0 -6.31709e-06)
(0 -0 -6.38871e-06)
(0 -0 -6.47313e-06)
(0 -0 -6.5706e-06)
(0 -0 -6.6813e-06)
(0 -0 -6.80549e-06)
(0 -0 -6.94342e-06)
(0 -0 -7.09499e-06)
(0 -0 -7.25905e-06)
(0 -0 -7.43206e-06)
(0 -0 -7.60773e-06)
(0 -0 -7.77494e-06)
(0 -0 -0.000407877)
(0 -0 -0.0003956)
(0 -0 -0.000418735)
(0 -0 -0.000572398)
(0 -0 -0.000902132)
(0 -0 -0.00132291)
(0 -0 -0.00165335)
(0 -0 -0.00173183)
(0 -0 -0.00151066)
(0 -0 -0.00106605)
(0 -0 -0.000539591)
(0 -0 -6.55166e-05)
(0 -0 0.000274809)
(0 -0 0.00046083)
(0 -0 0.000515708)
(0 -0 0.000482013)
(0 -0 0.000402399)
(0 -0 0.000309344)
(0 -0 0.000222669)
(0 -0 0.000151523)
(0 -0 9.79259e-05)
(0 -0 6.00652e-05)
(0 -0 3.46541e-05)
(0 -0 1.83043e-05)
(0 -0 8.15516e-06)
(0 -0 2.0492e-06)
(0 -0 -1.52235e-06)
(0 -0 -3.5568e-06)
(0 -0 -4.68504e-06)
(0 -0 -5.29224e-06)
(0 -0 -5.60678e-06)
(0 -0 -5.76089e-06)
(0 -0 -5.8296e-06)
(0 -0 -5.8549e-06)
(0 -0 -5.86008e-06)
(0 -0 -5.85801e-06)
(0 -0 -5.85591e-06)
(0 -0 -5.85802e-06)
(0 -0 -5.86851e-06)
(0 -0 -5.89755e-06)
(0 -0 -5.94024e-06)
(0 -0 -5.98352e-06)
(0 -0 -6.02919e-06)
(0 -0 -6.0843e-06)
(0 -0 -6.15329e-06)
(0 -0 -6.23741e-06)
(0 -0 -6.33636e-06)
(0 -0 -6.44968e-06)
(0 -0 -6.57717e-06)
(0 -0 -6.71886e-06)
(0 -0 -6.87453e-06)
(0 -0 -7.04294e-06)
(0 -0 -7.22042e-06)
(0 -0 -7.40015e-06)
(0 -0 -7.56927e-06)
(0 -0 -0.000402036)
(0 -0 -0.000390156)
(0 -0 -0.000412537)
(0 -0 -0.000561205)
(0 -0 -0.000880265)
(0 -0 -0.0012875)
(0 -0 -0.00160739)
(0 -0 -0.00168346)
(0 -0 -0.00146942)
(0 -0 -0.00103887)
(0 -0 -0.000528815)
(0 -0 -6.91924e-05)
(0 -0 0.000261138)
(0 -0 0.000442159)
(0 -0 0.000496183)
(0 -0 0.000464353)
(0 -0 0.000387926)
(0 -0 0.000298343)
(0 -0 0.000214804)
(0 -0 0.000146194)
(0 -0 9.44899e-05)
(0 -0 5.79607e-05)
(0 -0 3.34422e-05)
(0 -0 1.76674e-05)
(0 -0 7.87693e-06)
(0 -0 1.9886e-06)
(0 -0 -1.45368e-06)
(0 -0 -3.41254e-06)
(0 -0 -4.49691e-06)
(0 -0 -5.07858e-06)
(0 -0 -5.37799e-06)
(0 -0 -5.52275e-06)
(0 -0 -5.58532e-06)
(0 -0 -5.60626e-06)
(0 -0 -5.60804e-06)
(0 -0 -5.60315e-06)
(0 -0 -5.59855e-06)
(0 -0 -5.59834e-06)
(0 -0 -5.60834e-06)
(0 -0 -5.65497e-06)
(0 -0 -5.71907e-06)
(0 -0 -5.76272e-06)
(0 -0 -5.79918e-06)
(0 -0 -5.84456e-06)
(0 -0 -5.90779e-06)
(0 -0 -5.99046e-06)
(0 -0 -6.091e-06)
(0 -0 -6.20773e-06)
(0 -0 -6.33964e-06)
(0 -0 -6.48622e-06)
(0 -0 -6.64711e-06)
(0 -0 -6.82095e-06)
(0 -0 -7.00399e-06)
(0 -0 -7.18889e-06)
(0 -0 -7.36035e-06)
(0 -0 -0.000395939)
(0 -0 -0.000384437)
(0 -0 -0.000406095)
(0 -0 -0.000549989)
(0 -0 -0.000858837)
(0 -0 -0.00125309)
(0 -0 -0.00156284)
(0 -0 -0.00163654)
(0 -0 -0.00142926)
(0 -0 -0.00101214)
(0 -0 -0.000517786)
(0 -0 -7.20546e-05)
(0 -0 0.000248617)
(0 -0 0.000424744)
(0 -0 0.000477847)
(0 -0 0.00044771)
(0 -0 0.00037426)
(0 -0 0.000287943)
(0 -0 0.000207369)
(0 -0 0.000141158)
(0 -0 9.12502e-05)
(0 -0 5.59853e-05)
(0 -0 3.23148e-05)
(0 -0 1.70865e-05)
(0 -0 7.63684e-06)
(0 -0 1.95519e-06)
(0 -0 -1.36454e-06)
(0 -0 -3.25196e-06)
(0 -0 -4.29512e-06)
(0 -0 -4.85302e-06)
(0 -0 -5.13852e-06)
(0 -0 -5.27485e-06)
(0 -0 -5.33199e-06)
(0 -0 -5.3491e-06)
(0 -0 -5.34792e-06)
(0 -0 -5.34051e-06)
(0 -0 -5.33356e-06)
(0 -0 -5.33061e-06)
(0 -0 -5.33738e-06)
(0 -0 -5.35414e-06)
(0 -0 -5.46795e-06)
(0 -0 -5.57016e-06)
(0 -0 -5.57738e-06)
(0 -0 -5.60361e-06)
(0 -0 -5.65592e-06)
(0 -0 -5.73422e-06)
(0 -0 -5.83468e-06)
(0 -0 -5.95367e-06)
(0 -0 -6.08906e-06)
(0 -0 -6.2397e-06)
(0 -0 -6.40494e-06)
(0 -0 -6.58332e-06)
(0 -0 -6.77121e-06)
(0 -0 -6.96076e-06)
(0 -0 -7.13298e-06)
(0 -0 -0.000389587)
(0 -0 -0.000378446)
(0 -0 -0.000399413)
(0 -0 -0.00053873)
(0 -0 -0.000837773)
(0 -0 -0.00121955)
(0 -0 -0.00151954)
(0 -0 -0.00159094)
(0 -0 -0.00139013)
(0 -0 -0.00098593)
(0 -0 -0.000506713)
(0 -0 -7.4389e-05)
(0 -0 0.000236933)
(0 -0 0.00040829)
(0 -0 0.000460446)
(0 -0 0.000431882)
(0 -0 0.00036125)
(0 -0 0.00027804)
(0 -0 0.000200288)
(0 -0 0.000136366)
(0 -0 8.81707e-05)
(0 -0 5.41115e-05)
(0 -0 3.12494e-05)
(0 -0 1.65421e-05)
(0 -0 7.41678e-06)
(0 -0 1.93151e-06)
(0 -0 -1.27217e-06)
(0 -0 -3.09231e-06)
(0 -0 -4.09701e-06)
(0 -0 -4.6331e-06)
(0 -0 -4.90616e-06)
(0 -0 -5.03524e-06)
(0 -0 -5.08791e-06)
(0 -0 -5.10204e-06)
(0 -0 -5.09869e-06)
(0 -0 -5.08952e-06)
(0 -0 -5.0808e-06)
(0 -0 -5.07407e-06)
(0 -0 -5.06481e-06)
(0 -0 -5.0919e-06)
(0 -0 -5.12653e-06)
(0 -0 -5.2537e-06)
(0 -0 -5.36089e-06)
(0 -0 -5.35724e-06)
(0 -0 -5.39704e-06)
(0 -0 -5.46985e-06)
(0 -0 -5.56851e-06)
(0 -0 -5.68766e-06)
(0 -0 -5.82412e-06)
(0 -0 -5.97635e-06)
(0 -0 -6.14338e-06)
(0 -0 -6.32376e-06)
(0 -0 -6.51431e-06)
(0 -0 -6.70448e-06)
(0 -0 -6.89681e-06)
(0 -0 -4.83374e-06)
(0 -0 -4.94202e-06)
(0 -0 -5.02647e-06)
(0 -0 -5.10411e-06)
(0 -0 -5.1454e-06)
(0 -0 -5.2188e-06)
(0 -0 -5.31736e-06)
(0 -0 -5.4363e-06)
(0 -0 -5.57273e-06)
(0 -0 -5.7251e-06)
(0 -0 -5.89242e-06)
(0 -0 -6.07319e-06)
(0 -0 -6.26292e-06)
(0 -0 -6.46833e-06)
(0 -0 -6.65364e-06)
(0 -0 -1.04623e-05)
(0 -0 -9.87855e-06)
(0 -0 -1.19431e-05)
(0 -0 -2.15215e-05)
(0 -0 -3.934e-05)
(0 -0 -5.87082e-05)
(0 -0 -6.90193e-05)
(0 -0 -6.27753e-05)
(0 -0 -4.00719e-05)
(0 -0 -7.7928e-06)
(0 -0 2.46809e-05)
(0 -0 4.97947e-05)
(0 -0 6.39952e-05)
(0 -0 6.75776e-05)
(0 -0 6.32177e-05)
(0 -0 5.43219e-05)
(0 -0 4.38682e-05)
(0 -0 3.38937e-05)
(0 -0 2.54735e-05)
(0 -0 1.8949e-05)
(0 -0 1.4214e-05)
(0 -0 1.09551e-05)
(0 -0 8.80976e-06)
(0 -0 7.45113e-06)
(0 -0 6.6203e-06)
(0 -0 6.12888e-06)
(0 -0 5.84808e-06)
(0 -0 5.69391e-06)
(0 -0 5.61372e-06)
(0 -0 5.57551e-06)
(0 -0 5.56038e-06)
(0 -0 5.5574e-06)
(0 -0 5.56038e-06)
(0 -0 5.56587e-06)
(0 -0 5.57196e-06)
(0 -0 5.57759e-06)
(0 -0 5.58213e-06)
(0 -0 5.58523e-06)
(0 -0 5.58661e-06)
(0 -0 5.58609e-06)
(0 -0 5.58351e-06)
(0 -0 5.57871e-06)
(0 -0 5.57158e-06)
(0 -0 5.56199e-06)
(0 -0 5.54983e-06)
(0 -0 5.535e-06)
(0 -0 5.51741e-06)
(0 -0 5.49697e-06)
(0 -0 5.47358e-06)
(0 -0 5.44717e-06)
(0 -0 5.41765e-06)
(0 -0 5.38495e-06)
(0 -0 5.34899e-06)
(0 -0 5.30972e-06)
(0 -0 5.26706e-06)
(0 -0 -3.12327e-05)
(0 -0 -2.94746e-05)
(0 -0 -3.53978e-05)
(0 -0 -6.34829e-05)
(0 -0 -0.000116271)
(0 -0 -0.000174413)
(0 -0 -0.000206699)
(0 -0 -0.000190665)
(0 -0 -0.00012598)
(0 -0 -3.23765e-05)
(0 -0 6.27617e-05)
(0 -0 0.000137121)
(0 -0 0.000179976)
(0 -0 0.000191874)
(0 -0 0.000180421)
(0 -0 0.000155465)
(0 -0 0.000125688)
(0 -0 9.7076e-05)
(0 -0 7.28205e-05)
(0 -0 5.39716e-05)
(0 -0 4.02636e-05)
(0 -0 3.08131e-05)
(0 -0 2.4583e-05)
(0 -0 2.06324e-05)
(0 -0 1.82135e-05)
(0 -0 1.67806e-05)
(0 -0 1.59603e-05)
(0 -0 1.55087e-05)
(0 -0 1.52726e-05)
(0 -0 1.5159e-05)
(0 -0 1.51128e-05)
(0 -0 1.51023e-05)
(0 -0 1.51093e-05)
(0 -0 1.51238e-05)
(0 -0 1.51402e-05)
(0 -0 1.51554e-05)
(0 -0 1.51677e-05)
(0 -0 1.51759e-05)
(0 -0 1.51793e-05)
(0 -0 1.51774e-05)
(0 -0 1.51697e-05)
(0 -0 1.51558e-05)
(0 -0 1.51354e-05)
(0 -0 1.51082e-05)
(0 -0 1.50738e-05)
(0 -0 1.50319e-05)
(0 -0 1.49824e-05)
(0 -0 1.4925e-05)
(0 -0 1.48594e-05)
(0 -0 1.47853e-05)
(0 -0 1.47027e-05)
(0 -0 1.46112e-05)
(0 -0 1.45107e-05)
(0 -0 1.44011e-05)
(0 -0 1.42821e-05)
(0 -0 -5.16179e-05)
(0 -0 -4.87014e-05)
(0 -0 -5.78948e-05)
(0 -0 -0.000102974)
(0 -0 -0.000189111)
(0 -0 -0.000285977)
(0 -0 -0.000343145)
(0 -0 -0.000323263)