/*--------------------------------*- C++ -*----------------------------------*\
| =========                 |                                                 |
| \\      /  F ield         | OpenFOAM: The Open Source CFD Toolbox           |
|  \\    /   O peration     | Version:  2412                                  |
|   \\  /    A nd           | Website:  www.openfoam.com                      |
|    \\/     M anipulation  |                                                 |
\*---------------------------------------------------------------------------*/
FoamFile
{
    version     2.0;
    format      ascii;
    arch        "LSB;label=32;scalar=64";
    class       volScalarField;
    location    "11.5";
    object      p;
}
// * * * * * * * * * * * * * * * * * * * * * * * * * * * * * * * * * * * * * //

dimensions      [0 2 -2 0 0 0 0];

internalField   nonuniform List<scalar> 
63420
(
0.000995944
0.000996211
0.000997021
0.000998291
0.000999987
0.0010021
0.00100462
0.00100751
0.00101076
0.00101437
0.00101832
0.00102262
0.00102725
0.00103222
0.00103752
0.00104315
0.00104911
0.0010554
0.00106202
0.00106897
0.00107624
0.00108384
0.00109176
0.00110002
0.00110861
0.00111752
0.00112678
0.00113637
0.0011463
0.00115657
0.00116719
0.00117816
0.00118948
0.00120116
0.00121319
0.00122559
0.00123836
0.00125149
0.00126501
0.0012789
0.00129318
0.00130784
0.0013229
0.00133836
0.00135422
0.00137049
0.00138717
0.00140426
0.00142178
0.00143973
0.0014581
0.00147692
0.00149618
0.00151588
0.00153604
0.000995884
0.000996152
0.000996961
0.00099823
0.000999925
0.00100204
0.00100455
0.00100744
0.00101069
0.0010143
0.00101825
0.00102254
0.00102716
0.00103213
0.00103743
0.00104305
0.00104901
0.0010553
0.00106191
0.00106885
0.00107611
0.00108371
0.00109162
0.00109987
0.00110845
0.00111736
0.0011266
0.00113618
0.0011461
0.00115636
0.00116697
0.00117792
0.00118923
0.00120089
0.00121291
0.00122529
0.00123804
0.00125116
0.00126465
0.00127852
0.00129278
0.00130742
0.00132245
0.00133788
0.00135371
0.00136995
0.0013866
0.00140366
0.00142114
0.00143905
0.00145738
0.00147615
0.00149536
0.00151502
0.00153512
0.000995765
0.000996032
0.00099684
0.000998108
0.0009998
0.00100191
0.00100442
0.0010073
0.00101055
0.00101415
0.00101809
0.00102238
0.001027
0.00103196
0.00103724
0.00104286
0.00104881
0.00105509
0.00106169
0.00106861
0.00107586
0.00108344
0.00109135
0.00109958
0.00110814
0.00111703
0.00112625
0.00113581
0.00114571
0.00115595
0.00116653
0.00117746
0.00118873
0.00120036
0.00121235
0.0012247
0.00123741
0.00125049
0.00126394
0.00127777
0.00129198
0.00130657
0.00132155
0.00133693
0.0013527
0.00136888
0.00138546
0.00140245
0.00141986
0.00143769
0.00145594
0.00147462
0.00149374
0.0015133
0.0015333
0.000995587
0.000995853
0.000996659
0.000997924
0.000999612
0.00100172
0.00100422
0.0010071
0.00101034
0.00101393
0.00101787
0.00102214
0.00102675
0.0010317
0.00103697
0.00104258
0.00104851
0.00105477
0.00106135
0.00106826
0.00107549
0.00108305
0.00109093
0.00109914
0.00110767
0.00111653
0.00112573
0.00113526
0.00114512
0.00115532
0.00116587
0.00117675
0.00118799
0.00119957
0.00121151
0.00122381
0.00123647
0.00124949
0.00126288
0.00127664
0.00129078
0.0013053
0.00132021
0.0013355
0.00135119
0.00136727
0.00138375
0.00140064
0.00141794
0.00143565
0.00145378
0.00147234
0.00149131
0.00151072
0.00153056
0.000995349
0.000995614
0.000996418
0.000997679
0.000999363
0.00100146
0.00100396
0.00100683
0.00101006
0.00101364
0.00101756
0.00102182
0.00102642
0.00103135
0.00103661
0.0010422
0.00104811
0.00105435
0.00106091
0.00106779
0.001075
0.00108252
0.00109037
0.00109855
0.00110705
0.00111587
0.00112503
0.00113452
0.00114434
0.00115449
0.00116498
0.00117582
0.001187
0.00119852
0.0012104
0.00122262
0.00123521
0.00124816
0.00126147
0.00127514
0.00128919
0.00130362
0.00131842
0.0013336
0.00134918
0.00136514
0.00138149
0.00139824
0.0014154
0.00143296
0.00145092
0.0014693
0.0014881
0.00150731
0.00152694
0.000995052
0.000995317
0.000996117
0.000997374
0.000999051
0.00100114
0.00100363
0.00100649
0.00100971
0.00101328
0.00101718
0.00102143
0.00102601
0.00103092
0.00103616
0.00104172
0.00104761
0.00105382
0.00106035
0.0010672
0.00107438
0.00108187
0.00108968
0.00109781
0.00110627
0.00111505
0.00112416
0.00113359
0.00114336
0.00115345
0.00116388
0.00117465
0.00118576
0.00119721
0.00120901
0.00122115
0.00123365
0.0012465
0.00125971
0.00127328
0.00128721
0.00130152
0.00131619
0.00133125
0.00134667
0.00136248
0.00137868
0.00139526
0.00141224
0.0014296
0.00144737
0.00146553
0.0014841
0.00150307
0.00152244
0.000994696
0.00099496
0.000995757
0.000997008
0.000998678
0.00100076
0.00100323
0.00100608
0.00100929
0.00101284
0.00101673
0.00102096
0.00102552
0.0010304
0.00103562
0.00104115
0.00104701
0.00105319
0.00105969
0.0010665
0.00107363
0.00108108
0.00108885
0.00109694
0.00110534
0.00111407
0.00112312
0.00113249
0.00114219
0.00115221
0.00116257
0.00117326
0.00118428
0.00119564
0.00120734
0.00121939
0.00123178
0.00124452
0.00125761
0.00127105
0.00128485
0.00129901
0.00131354
0.00132843
0.00134369
0.00135932
0.00137532
0.00139171
0.00140847
0.00142561
0.00144314
0.00146105
0.00147935
0.00149803
0.00151709
0.00155672
0.00157813
0.00160046
0.00162378
0.00164814
0.00167361
0.00170024
0.00172811
0.00175731
0.00178791
0.00182002
0.00185372
0.00188913
0.00192637
0.00196557
0.00200686
0.00205039
0.00209635
0.00214491
0.00219628
0.00225068
0.00230836
0.0023696
0.00243471
0.00250401
0.00257788
0.00265674
0.00274104
0.00283128
0.00292803
0.0030319
0.00314356
0.00326378
0.00339336
0.00353319
0.00368421
0.0038474
0.0040237
0.00421399
0.00441888
0.00463851
0.00487224
0.00511823
0.00537313
0.00563228
0.00589059
0.00614289
0.00639475
0.00671537
0.00720153
0.00155577
0.00157718
0.00159952
0.00162284
0.0016472
0.00167265
0.00169928
0.00172715
0.00175634
0.00178694
0.00181904
0.00185273
0.00188813
0.00192536
0.00196454
0.00200581
0.00204932
0.00209525
0.00214377
0.0021951
0.00224944
0.00230706
0.00236822
0.00243322
0.0025024
0.00257611
0.00265477
0.00273883
0.00282876
0.00292511
0.00302849
0.00313953
0.00325895
0.00338751
0.00352603
0.00367536
0.00383635
0.00400981
0.00419638
0.00439639
0.00460962
0.00483493
0.00506985
0.00531026
0.00555053
0.00578454
0.00600656
0.00622126
0.00649347
0.00691299
0.00155389
0.00157531
0.00159764
0.00162094
0.00164529
0.00167074
0.00169736
0.00172522
0.0017544
0.00178499
0.00181707
0.00185075
0.00188613
0.00192333
0.00196247
0.0020037
0.00204717
0.00209304
0.00214149
0.00219273
0.00224697
0.00230446
0.00236546
0.00243026
0.00249919
0.0025726
0.00265088
0.00273444
0.00282377
0.00291935
0.00302175
0.00313156
0.00324941
0.00337596
0.0035119
0.0036579
0.00381457
0.0039824
0.00416159
0.00435189
0.00455233
0.00476076
0.00497344
0.00518464
0.00538678
0.00557167
0.00573262
0.00587278
0.00604389
0.00634321
0.00155107
0.00157248
0.0015948
0.00161809
0.00164243
0.00166787
0.00169448
0.00172232
0.00175148
0.00178205
0.00181411
0.00184775
0.0018831
0.00192025
0.00195934
0.00200051
0.0020439
0.00208967
0.00213802
0.00218912
0.00224319
0.00230048
0.00236122
0.00242572
0.00249426
0.00256719
0.00264487
0.00272769
0.00281608
0.00291049
0.0030114
0.00311933
0.00323479
0.0033583
0.00349034
0.00363132
0.0037815
0.00394089
0.00410904
0.00428488
0.00446625
0.00464952
0.00482902
0.00499662
0.00514185
0.00525328
0.00532268
0.0053546
0.00538498
0.00547221
0.00154733
0.00156873
0.00159104
0.00161432
0.00163865
0.00166408
0.00169067
0.00171851
0.00174765
0.0017782
0.00181023
0.00184384
0.00187915
0.00191625
0.00195529
0.00199638
0.00203968
0.00208534
0.00213355
0.00218448
0.00223835
0.00229538
0.00235581
0.00241991
0.00248796
0.00256027
0.00263716
0.002719
0.00280615
0.00289899
0.00299793
0.00310334
0.0032156
0.00333502
0.0034618
0.00359601
0.0037374
0.00388534
0.00403854
0.00419475
0.00435031
0.00449962
0.00463449
0.00474371
0.00481315
0.00482713
0.0047744
0.00466275
0.00451713
0.0042772
0.00154269
0.00156408
0.0015864
0.0016097
0.00163404
0.00165948
0.0016861
0.00171396
0.00174313
0.0017737
0.00180576
0.0018394
0.00187473
0.00191186
0.00195091
0.00199202
0.00203532
0.00208099
0.00212918
0.0021801
0.00223392
0.00229088
0.0023512
0.00241513
0.00248293
0.00255489
0.00263131
0.00271249
0.00279874
0.00289037
0.00298769
0.00309096
0.00320034
0.00331592
0.00343757
0.00356485
0.00369686
0.00383199
0.00396763
0.00409967
0.00422197
0.00432564
0.00439837
0.00442401
0.00438287
0.00425363
0.0040201
0.00369103
0.0032836
0.00260173
0.00153713
0.00155845
0.00158071
0.00160395
0.00162824
0.00165363
0.0016802
0.001708
0.00173713
0.00176764
0.00179965
0.00183323
0.00186849
0.00190555
0.00194453
0.00198555
0.00202877
0.00207433
0.00212241
0.00217319
0.00222687
0.00228364
0.00234374
0.00240739
0.00247485
0.00254637
0.00262221
0.00270264
0.00278793
0.0028783
0.00297397
0.00307506
0.00318159
0.00329337
0.00340992
0.0035303
0.00365285
0.00377485
0.00389201
0.00399783
0.00408274
0.0041332
0.00413092
0.00405277
0.0038716
0.003558
0.00309176
0.00248681
0.00170913
0.000453486
-0.00333466
-0.00338233
-0.00336169
-0.00328645
-0.00317102
-0.00302054
-0.00283948
-0.00263424
-0.00241176
-0.00217889
-0.00194227
-0.00170792
-0.00148109
-0.00126604
-0.00106603
-0.000883285
-0.000719119
-0.000574006
-0.00044774
-0.000339571
-0.000248351
-0.000172661
-0.000110929
-6.15182e-05
-2.27991e-05
6.78651e-06
2.86846e-05
4.42131e-05
5.45471e-05
6.07115e-05
6.35867e-05
6.3917e-05
6.23229e-05
5.93137e-05
5.53019e-05
5.06167e-05
4.55173e-05
4.0204e-05
3.48296e-05
2.95077e-05
2.43211e-05
1.93278e-05
1.45668e-05
1.00627e-05
5.82854e-06
1.86936e-06
-1.81598e-06
-5.23296e-06
-8.39027e-06
-1.12981e-05
-0.00343879
-0.00345968
-0.00342307
-0.00333862
-0.00321833
-0.00306428
-0.0028808
-0.00267433
-0.00245089
-0.00221707
-0.00197937
-0.00174374
-0.00151539
-0.0012986
-0.00109667
-0.00091189
-0.000745613
-0.000598372
-0.000470005
-0.0003598
-0.000266637
-0.000189116
-0.00012568
-7.46986e-05
-3.45431e-05
-3.65358e-06
1.94211e-05
3.60065e-05
4.72858e-05
5.42924e-05
5.79156e-05
5.89089e-05
5.79008e-05
5.54088e-05
5.18529e-05
4.7569e-05
4.28224e-05
3.78195e-05
3.27177e-05
2.76354e-05
2.26593e-05
1.78511e-05
1.32532e-05
8.8926e-06
4.78517e-06
9.37986e-07
-2.64815e-06
-5.97704e-06
-9.05606e-06
-1.18933e-05
-0.0036493
-0.00360964
-0.00354402
-0.00343905
-0.00330967
-0.00314728
-0.00296002
-0.0027513
-0.00252609
-0.00229062
-0.00205102
-0.00181307
-0.00158193
-0.00136192
-0.00115639
-0.000967748
-0.000797447
-0.000646122
-0.000513704
-0.000399556
-0.000302617
-0.00022153
-0.000154764
-0.000100703
-5.77299e-05
-2.42783e-05
1.11335e-06
1.97822e-05
3.29265e-05
4.15965e-05
4.66984e-05
4.90024e-05
4.91538e-05
4.76854e-05
4.50317e-05
4.15422e-05
3.74943e-05
3.31054e-05
2.85432e-05
2.39348e-05
1.93752e-05
1.49331e-05
1.06573e-05
6.5804e-06
2.72316e-06
-9.02985e-07
-4.29343e-06
-7.44867e-06
-1.03733e-05
-1.30716e-05
-0.00397112
-0.00382374
-0.00372486
-0.00357699
-0.00343536
-0.00326589
-0.00307302
-0.00286053
-0.00263279
-0.00239506
-0.00215291
-0.00191183
-0.0016769
-0.00145245
-0.00124193
-0.00104789
-0.000871926
-0.000714829
-0.000576661
-0.000456898
-0.000354566
-0.000268371
-0.000196827
-0.000138344
-9.13105e-05
-5.41639e-05
-2.5429e-05
-3.7505e-06
1.20903e-05
2.31667e-05
3.0409e-05
3.46113e-05
3.64424e-05
3.64574e-05
3.51117e-05
3.27738e-05
2.9739e-05
2.62407e-05
2.24609e-05
1.854e-05
1.45843e-05
1.06733e-05
6.86466e-06
3.19929e-06
-2.9501e-07
-3.6005e-06
-6.70709e-06
-9.61052e-06
-1.23111e-05
-1.48074e-05
-0.00436446
-0.00410219
-0.00394272
-0.0037804
-0.00360133
-0.00341331
-0.00321076
-0.0029927
-0.00276148
-0.00252102
-0.00227608
-0.00203172
-0.00179277
-0.00156351
-0.00134749
-0.00114736
-0.0009649
-0.00080107
-0.000656099
-0.000529606
-0.000420737
-0.000328293
-0.000250846
-0.000186851
-0.000134726
-9.29092e-05
-5.9922e-05
-3.43951e-05
-1.50893e-05
-9.06726e-07
9.10908e-06
1.57799e-05
1.98017e-05
2.1756e-05
2.21233e-05
2.12959e-05
1.95909e-05
1.72621e-05
1.451e-05
1.14918e-05
8.32902e-06
5.11452e-06
1.91821e-06
-1.20829e-06
-4.22774e-06
-7.11413e-06
-9.85017e-06
-1.24254e-05
-1.48342e-05
-1.70679e-05
-0.00477884
-0.00443689
-0.00419684
-0.00398833
-0.00377824
-0.00356896
-0.00335318
-0.00312787
-0.00289328
-0.00265156
-0.00240614
-0.00216116
-0.00192088
-0.00168928
-0.00146979
-0.00126512
-0.00107719
-0.000907164
-0.000755473
-0.000621951
-0.000505934
-0.000406382
-0.000322006
-0.000251357
-0.000192921
-0.000145194
-0.000106721
-7.61435e-05
-5.22216e-05
-3.38474e-05
-2.00472e-05
-9.97706e-06
-2.91619e-06
1.74383e-06
4.51084e-06
5.80461e-06
5.96897e-06
5.28315e-06
3.97214e-06
2.21575e-06
1.56587e-07
-2.09324e-06
-4.4464e-06
-6.83566e-06
-9.20988e-06
-1.15309e-05
-1.37708e-05
-1.591e-05
-1.79344e-05
-1.98287e-05
-0.00517601
-0.00485275
-0.00456498
-0.00427381
-0.0040166
-0.00377644
-0.00354007
-0.00330204
-0.00306014
-0.0028143
-0.00256627
-0.00231898
-0.0020759
-0.00184056
-0.00161621
-0.00140557
-0.00121069
-0.00103293
-0.000872968
-0.00073086
-0.00060616
-0.000498018
-0.000405294
-0.000326658
-0.00026068
-0.000205901
-0.000160902
-0.000124335
-9.49566e-05
-7.16438e-05
-5.34002e-05
-3.93538e-05
-2.87518e-05
-2.09518e-05
-1.54116e-05
-1.16771e-05
-9.37127e-06
-8.1831e-06
-7.85777e-06
-8.18771e-06
-9.00484e-06
-1.01739e-05
-1.15868e-05
-1.31577e-05
-1.48192e-05
-1.65187e-05
-1.8216e-05
-1.98809e-05
-2.14905e-05
-2.30261e-05
-1.39736e-05
-1.64677e-05
-1.87909e-05
-2.09399e-05
-2.29183e-05
-2.47305e-05
-2.6381e-05
-2.78745e-05
-2.92165e-05
-3.04127e-05
-3.14692e-05
-3.2392e-05
-3.31871e-05
-3.38603e-05
-3.44172e-05
-3.48631e-05
-3.52027e-05
-3.54407e-05
-3.55813e-05
-3.56286e-05
-3.55867e-05
-3.546e-05
-3.52531e-05
-3.49709e-05
-3.46186e-05
-3.42015e-05
-3.37249e-05
-3.31944e-05
-3.26152e-05
-3.19925e-05
-3.13309e-05
-3.06352e-05
-2.99095e-05
-2.9158e-05
-2.83843e-05
-2.7592e-05
-2.67844e-05
-2.59646e-05
-2.51356e-05
-2.43003e-05
-2.34611e-05
-2.26207e-05
-2.17813e-05
-2.0945e-05
-2.01143e-05
-1.92907e-05
-1.84761e-05
-1.76721e-05
-1.68803e-05
-1.61021e-05
-1.53387e-05
-1.45913e-05
-1.38609e-05
-1.31485e-05
-1.24549e-05
-1.17807e-05
-1.11266e-05
-1.04931e-05
-9.88053e-06
-9.28927e-06
-8.71955e-06
-8.17149e-06
-7.64519e-06
-7.14062e-06
-6.65771e-06
-6.19632e-06
-5.75624e-06
-5.33721e-06
-4.93891e-06
-4.56096e-06
-4.20293e-06
-3.86437e-06
-3.5448e-06
-3.24368e-06
-2.96046e-06
-2.69456e-06
-2.44536e-06
-2.21227e-06
-1.99463e-06
-1.79181e-06
-1.60315e-06
-1.42799e-06
-1.26567e-06
-1.11554e-06
-9.76932e-07
-8.49222e-07
-7.31638e-07
-6.23886e-07
-5.24479e-07
-4.34808e-07
-3.49824e-07
-2.7869e-07
-2.00156e-07
-1.56381e-07
-6.12468e-08
-8.02553e-08
9.86962e-08
-8.82985e-08
3.44057e-07
-2.55315e-07
7.69628e-07
-6.62398e-07
1.42527e-06
-1.26455e-06
2.1298e-06
-1.68492e-06
2.31863e-06
-1.22387e-06
1.32269e-06
5.34246e-07
-7.66938e-07
2.82178e-06
-2.53102e-06
3.81207e-06
-2.19664e-06
-1.44972e-05
-1.6944e-05
-1.92255e-05
-2.13342e-05
-2.32754e-05
-2.50539e-05
-2.66735e-05
-2.81389e-05
-2.94552e-05
-3.06281e-05
-3.16633e-05
-3.25665e-05
-3.33437e-05
-3.40006e-05
-3.45425e-05
-3.49746e-05
-3.53017e-05
-3.55283e-05
-3.56584e-05
-3.56962e-05
-3.56458e-05
-3.55114e-05
-3.52977e-05
-3.50095e-05
-3.46519e-05
-3.42301e-05
-3.37494e-05
-3.32153e-05
-3.26329e-05
-3.20073e-05
-3.13432e-05
-3.06453e-05
-2.99176e-05
-2.91644e-05
-2.83891e-05
-2.75954e-05
-2.67866e-05
-2.59658e-05
-2.51359e-05
-2.42998e-05
-2.34599e-05
-2.2619e-05
-2.1779e-05
-2.09424e-05
-2.01113e-05
-1.92875e-05
-1.84727e-05
-1.76685e-05
-1.68766e-05
-1.60983e-05
-1.53349e-05
-1.45875e-05
-1.38572e-05
-1.31449e-05
-1.24513e-05
-1.17772e-05
-1.11232e-05
-1.04898e-05
-9.87733e-06
-9.28621e-06
-8.71661e-06
-8.16869e-06
-7.64251e-06
-7.13808e-06
-6.65531e-06
-6.19405e-06
-5.75411e-06
-5.33521e-06
-4.93703e-06
-4.5592e-06
-4.20129e-06
-3.86285e-06
-3.54339e-06
-3.24237e-06
-2.95925e-06
-2.69344e-06
-2.44433e-06
-2.21132e-06
-1.99377e-06
-1.79102e-06
-1.60243e-06
-1.42733e-06
-1.26507e-06
-1.115e-06
-9.76442e-07
-8.48778e-07
-7.3124e-07
-6.23527e-07
-5.24163e-07
-4.34522e-07
-3.49579e-07
-2.78466e-07
-1.99968e-07
-1.56205e-07
-6.11114e-08
-8.01014e-08
9.87544e-08
-8.81274e-08
3.44029e-07
-2.55116e-07
7.69516e-07
-6.62167e-07
1.42512e-06
-1.26438e-06
2.12974e-06
-1.68494e-06
2.31878e-06
-1.22412e-06
1.32302e-06
5.33928e-07
-7.66649e-07
2.82162e-06
-2.53094e-06
3.812e-06
-2.19795e-06
-1.55379e-05
-1.78905e-05
-2.00888e-05
-2.21174e-05
-2.39848e-05
-2.56963e-05
-2.72548e-05
-2.86644e-05
-2.99298e-05
-3.10563e-05
-3.2049e-05
-3.29135e-05
-3.36553e-05
-3.42796e-05
-3.47918e-05
-3.51966e-05
-3.54987e-05
-3.57024e-05
-3.58118e-05
-3.58308e-05
-3.57634e-05
-3.56139e-05
-3.53867e-05
-3.50865e-05
-3.47182e-05
-3.42871e-05
-3.37982e-05
-3.32568e-05
-3.26681e-05
-3.20368e-05
-3.13677e-05
-3.06653e-05
-2.99338e-05
-2.9177e-05
-2.83987e-05
-2.76023e-05
-2.67911e-05
-2.59682e-05
-2.51365e-05
-2.42987e-05
-2.34575e-05
-2.26155e-05
-2.17746e-05
-2.09371e-05
-2.01054e-05
-1.92811e-05
-1.84659e-05
-1.76614e-05
-1.68693e-05
-1.60909e-05
-1.53274e-05
-1.458e-05
-1.38497e-05
-1.31375e-05
-1.24441e-05
-1.17701e-05
-1.11163e-05
-1.04831e-05
-9.87095e-06
-9.28007e-06
-8.71073e-06
-8.16308e-06
-7.63717e-06
-7.13301e-06
-6.65051e-06
-6.18952e-06
-5.74984e-06
-5.3312e-06
-4.93327e-06
-4.55568e-06
-4.19801e-06
-3.85979e-06
-3.54055e-06
-3.23974e-06
-2.95682e-06
-2.6912e-06
-2.44227e-06
-2.20943e-06
-1.99203e-06
-1.78943e-06
-1.60098e-06
-1.42601e-06
-1.26388e-06
-1.11391e-06
-9.75461e-07
-8.47893e-07
-7.30444e-07
-6.22813e-07
-5.23527e-07
-4.33957e-07
-3.49083e-07
-2.78021e-07
-1.99595e-07
-1.55846e-07
-6.08546e-08
-7.97858e-08
9.8876e-08
-8.7798e-08
3.43981e-07
-2.54714e-07
7.69289e-07
-6.6171e-07
1.42481e-06
-1.26403e-06
2.12962e-06
-1.68498e-06
2.31909e-06
-1.22463e-06
1.32368e-06
5.33275e-07
-7.66071e-07
2.82129e-06
-2.53079e-06
3.81185e-06
-2.2005e-06
-1.70817e-05
-1.92955e-05
-2.13689e-05
-2.32789e-05
-2.50373e-05
-2.66495e-05
-2.81175e-05
-2.94445e-05
-3.06346e-05
-3.16922e-05
-3.26221e-05
-3.34291e-05
-3.41182e-05
-3.46943e-05
-3.51623e-05
-3.55267e-05
-3.57917e-05
-3.59616e-05
-3.60402e-05
-3.60312e-05
-3.59387e-05
-3.57667e-05
-3.55193e-05
-3.52013e-05
-3.48173e-05
-3.43722e-05
-3.38711e-05
-3.33189e-05
-3.27206e-05
-3.20809e-05
-3.14043e-05
-3.06953e-05
-2.99578e-05
-2.91958e-05
-2.84129e-05
-2.76124e-05
-2.67976e-05
-2.59716e-05
-2.51372e-05
-2.42971e-05
-2.34539e-05
-2.26101e-05
-2.17678e-05
-2.09292e-05
-2.00965e-05
-1.92714e-05
-1.84556e-05
-1.76507e-05
-1.68583e-05
-1.60797e-05
-1.53161e-05
-1.45687e-05
-1.38386e-05
-1.31265e-05
-1.24332e-05
-1.17596e-05
-1.11061e-05
-1.04732e-05
-9.86137e-06
-9.27086e-06
-8.70192e-06
-8.15466e-06
-7.62916e-06
-7.12541e-06
-6.64331e-06
-6.18273e-06
-5.74344e-06
-5.32519e-06
-4.92764e-06
-4.55041e-06
-4.19309e-06
-3.85522e-06
-3.5363e-06
-3.2358e-06
-2.95318e-06
-2.68784e-06
-2.43918e-06
-2.20659e-06
-1.98943e-06
-1.78705e-06
-1.59881e-06
-1.42404e-06
-1.26209e-06
-1.11229e-06
-9.73992e-07
-8.46568e-07
-7.29253e-07
-6.21744e-07
-5.22575e-07
-4.33109e-07
-3.48339e-07
-2.77353e-07
-1.99034e-07
-1.55306e-07
-6.04677e-08
-7.93127e-08
9.90607e-08
-8.73064e-08
3.43915e-07
-2.54119e-07
7.68959e-07
-6.61042e-07
1.42438e-06
-1.26354e-06
2.12946e-06
-1.68507e-06
2.31958e-06
-1.22542e-06
1.32469e-06
5.32292e-07
-7.65216e-07
2.8208e-06
-2.53057e-06
3.81165e-06
-2.20416e-06
-1.91081e-05
-2.11407e-05
-2.30489e-05
-2.48033e-05
-2.64192e-05
-2.79016e-05
-2.92511e-05
-3.04699e-05
-3.15612e-05
-3.25286e-05
-3.3376e-05
-3.41076e-05
-3.47276e-05
-3.52404e-05
-3.56503e-05
-3.59614e-05
-3.61778e-05
-3.63033e-05
-3.63414e-05
-3.62958e-05
-3.61702e-05
-3.59685e-05
-3.56947e-05
-3.53532e-05
-3.49483e-05
-3.44849e-05
-3.39676e-05
-3.34011e-05
-3.27901e-05
-3.21392e-05
-3.14527e-05
-3.07349e-05
-2.99896e-05
-2.92207e-05
-2.84316e-05
-2.76257e-05
-2.68062e-05
-2.5976e-05
-2.5138e-05
-2.42949e-05
-2.3449e-05
-2.26029e-05
-2.17587e-05
-2.09185e-05
-2.00846e-05
-1.92585e-05
-1.84419e-05
-1.76364e-05
-1.68435e-05
-1.60647e-05
-1.5301e-05
-1.45537e-05
-1.38236e-05
-1.31117e-05
-1.24188e-05
-1.17455e-05
-1.10924e-05
-1.046e-05
-9.84859e-06
-9.25859e-06
-8.69016e-06
-8.14344e-06
-7.61848e-06
-7.11527e-06
-6.63372e-06
-6.17367e-06
-5.73491e-06
-5.31717e-06
-4.92012e-06
-4.54338e-06
-4.18654e-06
-3.84911e-06
-3.53063e-06
-3.23055e-06
-2.94832e-06
-2.68336e-06
-2.43506e-06
-2.2028e-06
-1.98596e-06
-1.78388e-06
-1.59592e-06
-1.42141e-06
-1.2597e-06
-1.11012e-06
-9.72035e-07
-8.44804e-07
-7.27667e-07
-6.20321e-07
-5.21309e-07
-4.31979e-07
-3.47347e-07
-2.76462e-07
-1.98284e-07
-1.54588e-07
-5.99491e-08
-7.86859e-08
9.93148e-08
-8.66635e-08
3.43846e-07
-2.5336e-07
7.68567e-07
-6.60223e-07
1.42389e-06
-1.26301e-06
2.1294e-06
-1.68535e-06
2.32039e-06
-1.2266e-06
1.3261e-06
5.30979e-07
-7.64142e-07
2.82029e-06
-2.53041e-06
3.81152e-06
-2.20885e-06
-2.15927e-05
-2.34023e-05
-2.51059e-05
-2.66707e-05
-2.8113e-05
-2.9437e-05
-3.06419e-05
-3.17286e-05
-3.26991e-05
-3.35561e-05
-3.43025e-05
-3.49416e-05
-3.54768e-05
-3.5912e-05
-3.62507e-05
-3.64967e-05
-3.66534e-05
-3.67243e-05
-3.67127e-05
-3.66222e-05
-3.6456e-05
-3.62179e-05
-3.59116e-05
-3.55411e-05
-3.51106e-05
-3.46244e-05
-3.4087e-05
-3.35028e-05
-3.28761e-05
-3.22113e-05
-3.15125e-05
-3.07837e-05
-3.00288e-05
-2.92512e-05
-2.84546e-05
-2.7642e-05
-2.68166e-05
-2.59813e-05
-2.51388e-05
-2.42918e-05
-2.34426e-05
-2.25938e-05
-2.17472e-05
-2.09051e-05
-2.00696e-05
-1.92422e-05
-1.84246e-05
-1.76184e-05
-1.68251e-05
-1.6046e-05
-1.52822e-05
-1.45349e-05
-1.38049e-05
-1.30933e-05
-1.24007e-05
-1.17279e-05
-1.10753e-05
-1.04434e-05
-9.83262e-06
-9.24325e-06
-8.67547e-06
-8.12942e-06
-7.60514e-06
-7.1026e-06
-6.62173e-06
-6.16235e-06
-5.72425e-06
-5.30716e-06
-4.91074e-06
-4.53461e-06
-4.17834e-06
-3.84149e-06
-3.52355e-06
-3.22399e-06
-2.94226e-06
-2.67776e-06
-2.42991e-06
-2.19808e-06
-1.98163e-06
-1.77992e-06
-1.59231e-06
-1.41812e-06
-1.25671e-06
-1.10742e-06
-9.69592e-07
-8.42601e-07
-7.25687e-07
-6.18546e-07
-5.19727e-07
-4.30568e-07
-3.46108e-07
-2.75347e-07
-1.97347e-07
-1.53689e-07
-5.93012e-08
-7.79014e-08
9.96307e-08
-8.58567e-08
3.43756e-07
-2.52407e-07
7.68068e-07
-6.59189e-07
1.42327e-06
-1.26234e-06
2.1293e-06
-1.68568e-06
2.32138e-06
-1.22806e-06
1.32784e-06
5.29344e-07
-7.62785e-07
2.8196e-06
-2.53012e-06
3.81124e-06
-2.2141e-06
-2.45003e-05
-2.60496e-05
-2.7512e-05
-2.8857e-05
-3.00983e-05
-3.1238e-05
-3.22743e-05
-3.32067e-05
-3.40362e-05
-3.4764e-05
-3.53922e-05
-3.59229e-05
-3.63589e-05
-3.67029e-05
-3.69581e-05
-3.71275e-05
-3.72142e-05
-3.72211e-05
-3.71514e-05
-3.7008e-05
-3.67942e-05
-3.65132e-05
-3.61686e-05
-3.57639e-05
-3.53031e-05
-3.47901e-05
-3.42289e-05
-3.36236e-05
-3.29783e-05
-3.22969e-05
-3.15834e-05
-3.08416e-05
-3.0075e-05
-2.92873e-05
-2.84816e-05
-2.7661e-05
-2.68287e-05
-2.59872e-05
-2.51395e-05
-2.42879e-05
-2.34348e-05
-2.25826e-05
-2.17333e-05
-2.08888e-05
-2.00514e-05
-1.92226e-05
-1.84038e-05
-1.75968e-05
-1.68029e-05
-1.60234e-05
-1.52595e-05
-1.45122e-05
-1.37825e-05
-1.30712e-05
-1.23791e-05
-1.17067e-05
-1.10547e-05
-1.04235e-05
-9.81345e-06
-9.22484e-06
-8.65785e-06
-8.11259e-06
-7.58912e-06
-7.08741e-06
-6.60734e-06
-6.14877e-06
-5.71146e-06
-5.29514e-06
-4.89948e-06
-4.52408e-06
-4.16852e-06
-3.83235e-06
-3.51506e-06
-3.21612e-06
-2.93498e-06
-2.67105e-06
-2.42374e-06
-2.19241e-06
-1.97644e-06
-1.77517e-06
-1.58798e-06
-1.41418e-06
-1.25314e-06
-1.10418e-06
-9.66663e-07
-8.39961e-07
-7.23315e-07
-6.16419e-07
-5.17832e-07
-4.28875e-07
-3.44624e-07
-2.74005e-07
-1.96228e-07
-1.52596e-07
-5.85507e-08
-7.69116e-08
9.99248e-08
-8.47452e-08
3.43415e-07
-2.50905e-07
7.66938e-07
-6.57206e-07
1.42153e-06
-1.26029e-06
2.12776e-06
-1.68455e-06
2.32112e-06
-1.22865e-06
1.32929e-06
5.27362e-07
-7.60401e-07
2.81736e-06
-2.52789e-06
3.80896e-06
-2.21795e-06
-2.78922e-05
-2.91316e-05
-3.03051e-05
-3.13969e-05
-3.24073e-05
-3.33347e-05
-3.41763e-05
-3.49304e-05
-3.55964e-05
-3.61744e-05
-3.66652e-05
-3.70699e-05
-3.73903e-05
-3.76284e-05
-3.77863e-05
-3.78666e-05
-3.78717e-05
-3.78041e-05
-3.76666e-05
-3.74616e-05
-3.71922e-05
-3.68612e-05
-3.64717e-05
-3.6027e-05
-3.55305e-05
-3.49858e-05
-3.43965e-05
-3.37663e-05
-3.30988e-05
-3.23978e-05
-3.16669e-05
-3.09097e-05
-3.01294e-05
-2.93295e-05
-2.85131e-05
-2.76831e-05
-2.68425e-05
-2.59938e-05
-2.51398e-05
-2.42828e-05
-2.34251e-05
-2.2569e-05
-2.17164e-05
-2.08692e-05
-2.00296e-05
-1.9199e-05
-1.83789e-05
-1.75709e-05
-1.67763e-05
-1.59964e-05
-1.52324e-05
-1.44851e-05
-1.37556e-05
-1.30447e-05
-1.23531e-05
-1.16814e-05
-1.10301e-05
-1.03997e-05
-9.79055e-06
-9.20284e-06
-8.63679e-06
-8.0925e-06
-7.57e-06
-7.06926e-06
-6.59017e-06
-6.13256e-06
-5.69619e-06
-5.2808e-06
-4.88603e-06
-4.5115e-06
-4.15679e-06
-3.82143e-06
-3.50492e-06
-3.20673e-06
-2.9263e-06
-2.66305e-06
-2.41637e-06
-2.18564e-06
-1.97023e-06
-1.7695e-06
-1.58281e-06
-1.40947e-06
-1.24886e-06
-1.10031e-06
-9.63167e-07
-8.36809e-07
-7.20484e-07
-6.1388e-07
-5.15571e-07
-4.26852e-07
-3.42854e-07
-2.72396e-07
-1.94905e-07
-1.51267e-07
-5.76998e-08
-7.56463e-08
1.00129e-07
-8.31688e-08
3.42603e-07
-2.48481e-07
7.64652e-07
-6.53518e-07
1.41769e-06
-1.25565e-06
2.12335e-06
-1.68049e-06
2.31822e-06
-1.2273e-06
1.32987e-06
5.24913e-07
-7.56132e-07
2.81208e-06
-2.5218e-06
3.80272e-06
-2.21858e-06
-3.17218e-05
-3.26188e-05
-3.34777e-05
-3.42855e-05
-3.50355e-05
-3.57234e-05
-3.63451e-05
-3.68973e-05
-3.7378e-05
-3.77859e-05
-3.81205e-05
-3.8382e-05
-3.85708e-05
-3.86881e-05
-3.87352e-05
-3.87139e-05
-3.8626e-05
-3.84734e-05
-3.82584e-05
-3.79833e-05
-3.76503e-05
-3.7262e-05
-3.68211e-05
-3.63305e-05
-3.5793e-05
-3.52118e-05
-3.45901e-05
-3.3931e-05
-3.32379e-05
-3.25142e-05
-3.17631e-05
-3.09879e-05
-3.01917e-05
-2.93777e-05
-2.85489e-05
-2.7708e-05
-2.68577e-05
-2.60007e-05
-2.51394e-05
-2.42761e-05
-2.34131e-05
-2.25525e-05
-2.1696e-05
-2.08457e-05
-2.00036e-05
-1.91709e-05
-1.83493e-05
-1.75402e-05
-1.67448e-05
-1.59645e-05
-1.52003e-05
-1.44532e-05
-1.3724e-05
-1.30135e-05
-1.23226e-05
-1.16516e-05
-1.10012e-05
-1.03718e-05
-9.76359e-06
-9.17695e-06
-8.61201e-06
-8.06885e-06
-7.5475e-06
-7.04791e-06
-6.56996e-06
-6.11348e-06
-5.67824e-06
-5.26393e-06
-4.87022e-06
-4.49672e-06
-4.143e-06
-3.8086e-06
-3.493e-06
-3.19569e-06
-2.91609e-06
-2.65363e-06
-2.4077e-06
-2.17768e-06
-1.96294e-06
-1.76284e-06
-1.57673e-06
-1.40394e-06
-1.24384e-06
-1.09576e-06
-9.59058e-07
-8.33106e-07
-7.17157e-07
-6.10897e-07
-5.12912e-07
-4.24478e-07
-3.40769e-07
-2.70517e-07
-1.93325e-07
-1.4975e-07
-5.66164e-08
-7.43048e-08
1.00618e-07
-8.17223e-08
3.42287e-07
-2.46594e-07
7.63343e-07
-6.51063e-07
1.41561e-06
-1.25314e-06
2.12147e-06
-1.67913e-06
2.31798e-06
-1.22818e-06
1.33189e-06
5.22095e-07
-7.52629e-07
2.80862e-06
-2.51804e-06
3.79882e-06
-2.22158e-06
-3.58565e-05
-3.63971e-05
-3.69261e-05
-3.74301e-05
-3.79002e-05
-3.83301e-05
-3.87142e-05
-3.90479e-05
-3.93276e-05
-3.95507e-05
-3.97155e-05
-3.98208e-05
-3.98662e-05
-3.98517e-05
-3.97778e-05
-3.96455e-05
-3.9456e-05
-3.92106e-05
-3.8911e-05
-3.85589e-05
-3.81563e-05
-3.77052e-05
-3.72078e-05
-3.66665e-05
-3.60838e-05
-3.54623e-05
-3.48045e-05
-3.41135e-05
-3.33919e-05
-3.26428e-05
-3.18692e-05
-3.1074e-05
-3.02601e-05
-2.94305e-05
-2.85878e-05
-2.77347e-05
-2.68737e-05
-2.60074e-05
-2.5138e-05
-2.42678e-05
-2.33988e-05
-2.25332e-05
-2.16725e-05
-2.08188e-05
-1.99738e-05
-1.91389e-05
-1.83156e-05
-1.75053e-05
-1.67091e-05
-1.59283e-05
-1.51639e-05
-1.44169e-05
-1.36881e-05
-1.29782e-05
-1.2288e-05
-1.16179e-05
-1.09685e-05
-1.03401e-05
-9.73311e-06
-9.14769e-06
-8.584e-06
-8.04213e-06
-7.52207e-06
-7.02378e-06
-6.54713e-06
-6.09194e-06
-5.65795e-06
-5.24487e-06
-4.85236e-06
-4.48002e-06
-4.12743e-06
-3.7941e-06
-3.47954e-06
-3.18322e-06
-2.90456e-06
-2.643e-06
-2.39792e-06
-2.1687e-06
-1.95471e-06
-1.75532e-06
-1.56986e-06
-1.3977e-06
-1.23817e-06
-1.09063e-06
-9.5442e-07
-8.28926e-07
-7.13402e-07
-6.07531e-07
-5.09911e-07
-4.21799e-07
-3.3841e-07
-2.68402e-07
-1.91526e-07
-1.48062e-07
-5.53472e-08
-7.28691e-08
1.01303e-07
-8.02996e-08
3.42253e-07
-2.44936e-07
7.62523e-07
-6.49165e-07
1.41435e-06
-1.25158e-06
2.12077e-06
-1.67902e-06
2.31898e-06
-1.23015e-06
1.33472e-06
5.18886e-07
-7.49139e-07
2.80556e-06
-2.51477e-06
3.79537e-06
-2.22488e-06
-4.02556e-05
-4.0427e-05
-4.06115e-05
-4.0796e-05
-4.09707e-05
-4.11276e-05
-4.12597e-05
-4.1361e-05
-4.14264e-05
-4.14522e-05
-4.14353e-05
-4.13733e-05
-4.12649e-05
-4.1109e-05
-4.09053e-05
-4.06538e-05
-4.03551e-05
-4.00099e-05
-3.96192e-05
-3.91843e-05
-3.87066e-05
-3.81876e-05
-3.76291e-05
-3.70329e-05
-3.6401e-05
-3.57355e-05
-3.50385e-05
-3.43124e-05
-3.35596e-05
-3.27828e-05
-3.19845e-05
-3.11673e-05
-3.0334e-05
-2.94871e-05
-2.86292e-05
-2.77628e-05
-2.68901e-05
-2.60136e-05
-2.51354e-05
-2.42576e-05
-2.33821e-05
-2.25109e-05
-2.16457e-05
-2.07882e-05
-1.99402e-05
-1.91029e-05
-1.82777e-05
-1.7466e-05
-1.6669e-05
-1.58877e-05
-1.51232e-05
-1.43764e-05
-1.3648e-05
-1.29388e-05
-1.22493e-05
-1.15802e-05
-1.09319e-05
-1.03048e-05
-9.69909e-06
-9.11504e-06
-8.55276e-06
-8.01232e-06
-7.49372e-06
-6.99689e-06
-6.52168e-06
-6.06792e-06
-5.63533e-06
-5.22363e-06
-4.83246e-06
-4.46142e-06
-4.11007e-06
-3.77795e-06
-3.46455e-06
-3.16932e-06
-2.89172e-06
-2.63115e-06
-2.38702e-06
-2.15869e-06
-1.94554e-06
-1.74693e-06
-1.56222e-06
-1.39074e-06
-1.23186e-06
-1.08491e-06
-9.49253e-07
-8.2427e-07
-7.0922e-07
-6.03782e-07
-5.06567e-07
-4.18816e-07
-3.35782e-07
-2.66048e-07
-1.89518e-07
-1.4619e-07
-5.39196e-08
-7.12913e-08
1.02096e-07
-7.87575e-08
3.42267e-07
-2.43147e-07
7.6166e-07
-6.47075e-07
1.41291e-06
-1.24975e-06
2.11978e-06
-1.67862e-06
2.31976e-06
-1.23204e-06
1.33769e-06
5.15259e-07
-7.44895e-07
2.80148e-06
-2.51013e-06
3.79046e-06
-2.22637e-06
-4.48794e-05
-4.46685e-05
-4.44962e-05
-4.43492e-05
-4.42165e-05
-4.40885e-05
-4.3957e-05
-4.38145e-05
-4.36548e-05
-4.34728e-05
-4.32643e-05
-4.30259e-05
-4.27549e-05
-4.24494e-05
-4.21082e-05
-4.17305e-05
-4.13161e-05
-4.0865e-05
-4.03776e-05
-3.98547e-05
-3.9297e-05
-3.87057e-05
-3.80819e-05
-3.7427e-05
-3.67423e-05
-3.60294e-05
-3.52901e-05
-3.45262e-05
-3.37398e-05
-3.29329e-05
-3.21078e-05
-3.12669e-05
-3.04125e-05
-2.9547e-05
-2.86727e-05
-2.77918e-05
-2.69065e-05
-2.60189e-05
-2.51311e-05
-2.42451e-05
-2.33626e-05
-2.24855e-05
-2.16154e-05