/*--------------------------------*- C++ -*----------------------------------*\
| =========                 |                                                 |
| \\      /  F ield         | OpenFOAM: The Open Source CFD Toolbox           |
|  \\    /   O peration     | Version:  2412                                  |
|   \\  /    A nd           | Website:  www.openfoam.com                      |
|    \\/     M anipulation  |                                                 |
\*---------------------------------------------------------------------------*/
FoamFile
{
    version     2.0;
    format      ascii;
    arch        "LSB;label=32;scalar=64";
    class       surfaceScalarField;
    location    "11.5";
    object      phi;
}
// * * * * * * * * * * * * * * * * * * * * * * * * * * * * * * * * * * * * * //

dimensions      [0 3 -1 0 0 0 0];

oriented        oriented;

internalField   nonuniform List<scalar> 
126304
(
0.00505063
1.29715e-07
1.93673e-11
0.00505028
3.46185e-07
1.30247e-10
0.00504966
6.18266e-07
1.41827e-10
0.0050485
1.16526e-06
-2.39874e-10
0.00504641
2.08732e-06
-1.14466e-09
0.0050432
3.21879e-06
-2.31919e-09
0.00503897
4.2265e-06
-3.248e-09
0.00503415
4.82877e-06
-3.4781e-09
0.00502921
4.93737e-06
-2.85808e-09
0.00502456
4.65171e-06
-1.5529e-09
0.0050204
4.16203e-06
1.00142e-10
0.00501675
3.64921e-06
1.76026e-09
0.00501352
3.23016e-06
3.18901e-09
0.00501056
2.95098e-06
4.27732e-09
0.00500775
2.80713e-06
5.01993e-09
0.00500497
2.76917e-06
5.47182e-09
0.00500217
2.80239e-06
5.70926e-09
0.00499928
2.87742e-06
5.80487e-09
0.0049963
2.9736e-06
5.81574e-09
0.00499322
3.07848e-06
5.7813e-09
0.00499003
3.18565e-06
5.72558e-09
0.00498673
3.29253e-06
5.66112e-09
0.00498332
3.39866e-06
5.5928e-09
0.00497981
3.50459e-06
5.52136e-09
0.0049762
3.61119e-06
5.44606e-09
0.00497247
3.71935e-06
5.36593e-09
0.00496864
3.82983e-06
5.28017e-09
0.00496469
3.94325e-06
5.18797e-09
0.00496062
4.06006e-06
5.08872e-09
0.00495644
4.18058e-06
4.98218e-09
0.00495213
4.30507e-06
4.86865e-09
0.00494769
4.43369e-06
4.74862e-09
0.00494312
4.56657e-06
4.62227e-09
0.00493841
4.70379e-06
4.4894e-09
0.00493356
4.84543e-06
4.34978e-09
0.00492857
4.99155e-06
4.20358e-09
0.00492342
5.14218e-06
4.05129e-09
0.00491812
5.29738e-06
3.89345e-09
0.00491266
5.45719e-06
3.7304e-09
0.00490703
5.62166e-06
3.56245e-09
0.00490124
5.79083e-06
3.39019e-09
0.00489527
5.96476e-06
3.21448e-09
0.00488912
6.14351e-06
3.03615e-09
0.00488279
6.32715e-06
2.85566e-09
0.00487627
6.51575e-06
2.67313e-09
0.00486956
6.7094e-06
2.48878e-09
0.00486265
6.90819e-06
2.30317e-09
0.00485554
7.11225e-06
2.11701e-09
0.00484821
7.32171e-06
1.93081e-09
0.00484068
7.53672e-06
1.74482e-09
0.00483292
7.75751e-06
1.55926e-09
0.00482493
7.98446e-06
1.37455e-09
0.00481671
8.21841e-06
1.19135e-09
0.00480825
8.46159e-06
1.01018e-09
8.72024e-06
0.00479953
8.31112e-10
0.00505063
2.59398e-07
0.00505028
6.92849e-07
0.00504966
1.23557e-06
0.00504851
2.32264e-06
0.00504644
4.1546e-06
0.00504325
6.40515e-06
0.00503906
8.41411e-06
0.00503427
9.62124e-06
0.00502936
9.84888e-06
0.00502472
9.29184e-06
0.00502056
8.32633e-06
0.00501689
7.31123e-06
0.00501365
6.47934e-06
0.00501067
5.92329e-06
0.00500785
5.63507e-06
0.00500506
5.557e-06
0.00500224
5.62062e-06
0.00499935
5.76779e-06
0.00499636
5.95757e-06
0.00499328
6.16517e-06
0.00499009
6.37775e-06
0.00498679
6.59011e-06
0.00498339
6.80127e-06
0.00497988
7.01224e-06
0.00497626
7.2247e-06
0.00497254
7.44038e-06
0.00496871
7.66078e-06
0.00496477
7.88708e-06
0.00496071
8.12017e-06
0.00495653
8.3607e-06
0.00495222
8.60916e-06
0.00494779
8.86587e-06
0.00494323
9.13107e-06
0.00493853
9.40493e-06
0.00493368
9.68761e-06
0.0049287
9.97919e-06
0.00492356
1.02798e-05
0.00491827
1.05895e-05
0.00491282
1.09083e-05
0.0049072
1.12365e-05
0.00490142
1.1574e-05
0.00489546
1.19209e-05
0.00488933
1.22775e-05
0.00488301
1.26438e-05
0.00487651
1.30199e-05
0.00486981
1.34061e-05
0.00486292
1.38024e-05
0.00485582
1.42093e-05
0.00484851
1.46268e-05
0.004841
1.50554e-05
0.00483326
1.54954e-05
0.00482529
1.59475e-05
0.0048171
1.64135e-05
0.00480866
1.68974e-05
1.74113e-05
0.00479997
0.00505063
3.88975e-07
0.00505028
1.04018e-06
0.00504967
1.85071e-06
0.00504852
3.46512e-06
0.00504649
6.18506e-06
0.00504336
9.53279e-06
0.00503925
1.25322e-05
0.00503452
1.43496e-05
0.00502965
1.47153e-05
0.00502503
1.39122e-05
0.00502086
1.24946e-05
0.00501718
1.09946e-05
0.0050139
9.75922e-06
0.00501089
8.92871e-06
0.00500804
8.4937e-06
0.00500522
8.37047e-06
0.00500238
8.45852e-06
0.00499948
8.67205e-06
0.00499649
8.95035e-06
0.0049934
9.25647e-06
0.0049902
9.57114e-06
0.00498691
9.88638e-06
0.00498351
1.02005e-05
0.00498
1.05149e-05
0.0049764
1.08319e-05
0.00497268
1.1154e-05
0.00496886
1.14834e-05
0.00496493
1.18217e-05
0.00496088
1.21702e-05
0.00495671
1.253e-05
0.00495241
1.29016e-05
0.00494799
1.32855e-05
0.00494344
1.36822e-05
0.00493876
1.40918e-05
0.00493393
1.45146e-05
0.00492896
1.49507e-05
0.00492384
1.54002e-05
0.00491856
1.58632e-05
0.00491313
1.634e-05
0.00490754
1.68305e-05
0.00490178
1.7335e-05
0.00489585
1.78535e-05
0.00488974
1.83864e-05
0.00488345
1.89336e-05
0.00487697
1.94956e-05
0.0048703
2.00724e-05
0.00486344
2.06643e-05
0.00485638
2.12718e-05
0.00484911
2.1895e-05
0.00484163
2.25346e-05
0.00483394
2.3191e-05
0.00482602
2.38653e-05
0.00481787
2.45597e-05
0.00480949
2.52801e-05
2.60431e-05
0.00480086
0.00505063
5.18389e-07
0.00505028
1.38842e-06
0.00504967
2.46271e-06
0.00504855
4.58621e-06
0.00504657
8.1626e-06
0.00504353
1.2576e-05
0.00503951
1.655e-05
0.00503487
1.89854e-05
0.00503007
1.95165e-05
0.00502548
1.85035e-05
0.00502131
1.66681e-05
0.00501759
1.47081e-05
0.00501427
1.30828e-05
0.00501122
1.19814e-05
0.00500831
1.13962e-05
0.00500546
1.12206e-05
0.0050026
1.13245e-05
0.00499967
1.15961e-05
0.00499667
1.19556e-05
0.00499357
1.23542e-05
0.00499038
1.27661e-05
0.00498708
1.31805e-05
0.00498369
1.35946e-05
0.00498019
1.40101e-05
0.00497659
1.44297e-05
0.00497289
1.48566e-05
0.00496908
1.52935e-05
0.00496516
1.57424e-05
0.00496113
1.62052e-05
0.00495697
1.66829e-05
0.0049527
1.71765e-05
0.0049483
1.76865e-05
0.00494377
1.82133e-05
0.0049391
1.87574e-05
0.0049343
1.93189e-05
0.00492935
1.98979e-05
0.00492425
2.04948e-05
0.00491901
2.11096e-05
0.00491361
2.17424e-05
0.00490804
2.23935e-05
0.00490231
2.30629e-05
0.00489642
2.3751e-05
0.00489035
2.44578e-05
0.0048841
2.51836e-05
0.00487766
2.59287e-05
0.00487104
2.66934e-05
0.00486423
2.74779e-05
0.00485722
2.82827e-05
0.00485
2.91082e-05
0.00484258
2.99549e-05
0.00483495
3.08236e-05
0.0048271
3.17155e-05
0.00481903
3.26331e-05
0.00481072
3.35835e-05
3.45862e-05
0.00480218
0.00505063
6.47577e-07
0.00505028
1.73774e-06
0.00504967
3.07072e-06
0.00504858
5.68046e-06
0.00504667
1.00738e-05
0.00504373
1.55132e-05
0.00503984
2.04419e-05
0.00503532
2.35044e-05
0.0050306
2.42349e-05
0.00502604
2.30574e-05
0.00502187
2.0847e-05
0.00501812
1.84585e-05
0.00501474
1.64606e-05
0.00501163
1.5093e-05
0.00500867
1.43534e-05
0.00500577
1.41164e-05
0.00500287
1.42255e-05
0.00499992
1.45446e-05
0.0049969
1.4976e-05
0.0049938
1.54595e-05
0.0049906
1.59625e-05
0.00498731
1.64711e-05
0.00498392
1.69815e-05
0.00498044
1.7495e-05
0.00497685
1.80148e-05
0.00497317
1.85443e-05
0.00496937
1.90868e-05
0.00496547
1.96448e-05
0.00496146
2.02201e-05
0.00495732
2.08143e-05
0.00495307
2.14282e-05
0.0049487
2.20626e-05
0.00494419
2.27179e-05
0.00493955
2.33946e-05
0.00493478
2.4093e-05
0.00492987
2.48131e-05
0.0049248
2.55552e-05
0.00491959
2.63195e-05
0.00491423
2.71062e-05
0.00490871
2.79153e-05
0.00490303
2.87471e-05
0.00489717
2.96018e-05
0.00489115
3.04796e-05
0.00488496
3.13807e-05
0.00487858
3.23056e-05
0.00487202
3.32544e-05
0.00486527
3.42276e-05
0.00485833
3.52255e-05
0.00485118
3.62487e-05
0.00484384
3.72977e-05
0.00483629
3.83733e-05
0.00482853
3.94767e-05
0.00482055
4.06108e-05
0.00481235
4.17825e-05
4.30124e-05
0.00480393
0.00505063
7.76474e-07
0.00505028
2.08816e-06
0.00504967
3.67403e-06
0.00504861
6.74376e-06
0.00504678
1.19085e-05
0.00504396
1.83279e-05
0.00504022
2.41877e-05
0.00503583
2.78876e-05
0.00503121
2.88562e-05
0.0050267
2.75664e-05
0.00502252
2.50306e-05
0.00501873
2.22502e-05
0.00501529
1.98998e-05
0.00501211
1.82715e-05
0.00500909
1.7373e-05
0.00500614
1.70644e-05
0.0050032
1.71662e-05
0.00500023
1.75207e-05
0.00499719
1.80134e-05
0.00499407
1.85727e-05
0.00499088
1.91597e-05
0.00498759
1.97569e-05
0.00498421
2.0359e-05
0.00498074
2.09669e-05
0.00497717
2.15838e-05
0.0049735
2.22134e-05
0.00496973
2.28593e-05
0.00496585
2.35242e-05
0.00496186
2.42101e-05
0.00495776
2.49186e-05
0.00495353
2.56509e-05
0.00494919
2.64077e-05
0.00494472
2.71895e-05
0.00494012
2.79967e-05
0.00493538
2.88296e-05
0.0049305
2.96884e-05
0.00492549
3.05732e-05
0.00492032
3.14843e-05
0.00491501
3.24219e-05
0.00490954
3.3386e-05
0.00490391
3.43768e-05
0.00489811
3.53947e-05
0.00489215
3.64398e-05
0.00488602
3.75123e-05
0.00487971
3.86127e-05
0.00487323
3.97411e-05
0.00486656
4.08981e-05
0.0048597
4.20839e-05
0.00485265
4.32992e-05
0.0048454
4.45445e-05
0.00483795
4.58204e-05
0.0048303
4.71283e-05
0.00482244
4.84705e-05
0.00481437
4.98532e-05
5.1295e-05
0.00480609
0.00505063
9.04962e-07
0.00505028
2.43965e-06
0.00504968
4.27209e-06
0.00504865
7.77345e-06
0.0050469
1.36602e-05
0.00504422
2.10094e-05
0.00504063
2.77741e-05
0.0050364
3.21215e-05
0.00503188
3.33698e-05
0.00502742
3.20241e-05
0.00502324
2.92168e-05
0.0050194
2.60846e-05
0.0050159
2.34041e-05
0.00501265
2.15217e-05
0.00500956
2.04595e-05
0.00500656
2.00682e-05
0.00500358
2.01495e-05
0.00500057
2.05261e-05
0.00499752
2.10683e-05
0.0049944
2.16936e-05
0.0049912
2.23565e-05
0.00498792
2.30359e-05
0.00498455
2.37246e-05
0.0049811
2.44227e-05
0.00497755
2.51333e-05
0.0049739
2.58601e-05
0.00497015
2.66067e-05
0.0049663
2.7376e-05
0.00496234
2.81702e-05
0.00495827
2.89908e-05
0.00495408
2.98392e-05
0.00494977
3.07159e-05
0.00494534
3.16217e-05
0.00494078
3.25568e-05
0.00493609
3.35215e-05
0.00493126
3.45161e-05
0.00492629
3.55406e-05
0.00492118
3.65953e-05
0.00491592
3.76804e-05
0.00491052
3.87958e-05
0.00490495
3.99419e-05
0.00489923
4.11188e-05
0.00489334
4.23268e-05
0.00488729
4.3566e-05
0.00488106
4.48369e-05
0.00487466
4.61397e-05
0.00486809
4.74748e-05
0.00486133
4.88425e-05
0.00485438
5.02434e-05
0.00484725
5.16779e-05
0.00483992
5.31467e-05
0.0048324
5.46507e-05
0.00482468
5.61916e-05
0.00481676
5.77734e-05
0.00480865
5.94066e-05
0.00480086
-1.33322e-06
6.56499e-10
0.00480168
-8.22894e-07
4.87074e-10
0.00480196
-2.76733e-07
3.09929e-10
0.00480165
3.07594e-07
1.25307e-10
0.00480072
9.30254e-07
-6.16127e-11
0.00479912
1.59853e-06
-2.50689e-10
0.00479681
2.31372e-06
-4.39407e-10
0.00479373
3.07882e-06
-6.25075e-10
0.00478984
3.8969e-06
-8.05031e-10
0.00478507
4.77108e-06
-9.76762e-10
0.00477936
5.70475e-06
-1.13804e-09
0.00477266
6.70181e-06
-1.28675e-09
0.0047649
7.76697e-06
-1.42104e-09
0.00475599
8.90622e-06
-1.53955e-09
0.00474587
1.01273e-05
-1.63865e-09
0.00473443
1.14402e-05
-1.7195e-09
0.00472157
1.28575e-05
-1.76979e-09
0.00470718
1.43951e-05
-1.79013e-09
0.00469111
1.60721e-05
-1.79803e-09
0.0046732
1.79114e-05
-1.79209e-09
0.00465326
1.99397e-05
-1.77423e-09
0.00463107
2.21875e-05
-1.74381e-09
0.00460639
2.46896e-05
-1.69868e-09
0.0045789
2.74852e-05
-1.64182e-09
0.00454829
3.06186e-05
-1.57712e-09
0.00451415
3.41398e-05
-1.50779e-09
0.00447604
3.81066e-05
-1.43588e-09
0.00443346
4.25857e-05
-1.36261e-09
0.0043858
4.7656e-05
-1.28869e-09
0.00433239
5.34117e-05
-1.21399e-09
0.00427243
5.99666e-05
-1.13722e-09
0.00420497
6.746e-05
-1.0564e-09
0.00412891
7.60632e-05
-9.70313e-10
0.00404292
8.5988e-05
-8.78717e-10
0.00394542
9.74963e-05
-7.81298e-10
0.00383451
0.000110911
-6.78312e-10
0.00370789
0.000126623
-5.72123e-10
0.00356279
0.000145098
-4.6668e-10
0.00339593
0.000166858
-3.66417e-10
0.00320349
0.000192447
-2.77208e-10
0.00298116
0.000222328
-2.05529e-10
0.00272446
0.000256701
-1.57475e-10
0.00242928
0.000295183
-1.38685e-10
0.00209299
0.000336282
-1.525e-10
0.00171638
0.00037662
-1.99596e-10
0.00130656
0.000409818
-2.74482e-10
0.000881469
0.000425088
-3.6151e-10
0.000476011
0.000405459
-4.3323e-10
0.00015091
0.000325102
-4.38445e-10
0.00015091
-2.72459e-10
0.00479994
-1.2973e-06
0.00479939
-2.76535e-07
0.0047983
8.11353e-07
0.00479663
1.97514e-06
0.00479434
3.22089e-06
0.00479139
4.55459e-06
0.00478772
5.9821e-06
0.00478329
7.50943e-06
0.00477804
9.14271e-06
0.00477193
1.08883e-05
0.00476488
1.27532e-05
0.00475683
1.47451e-05
0.00474773
1.68737e-05
0.00473748
1.9151e-05
0.00472602
2.15927e-05
0.00471324
2.42189e-05
0.00469904
2.7055e-05
0.0046833
3.01328e-05
0.00466588
3.34905e-05
0.00464662
3.71739e-05
0.00462533
4.12363e-05
0.00460177
4.57389e-05
0.00457571
5.07511e-05
0.00454685
5.63511e-05
0.00451484
6.26273e-05
0.0044793
6.968e-05
0.00443978
7.76241e-05
0.00439577
8.65933e-05
0.00434668
9.67451e-05
0.00429183
0.000108267
0.00423041
0.000121387
0.00416149
0.000136382
0.00408396
0.000153592
0.00399651
0.000173439
0.00389756
0.00019644
0.00378524
0.000223233
0.00365728
0.00025459
0.00351095
0.00029142
0.00334306
0.000334747
0.00314989
0.000385618
0.00292731
0.000444913
0.00267104
0.000512971
0.00237727
0.000588952
0.00204374
0.000669812
0.00167159
0.000748771
0.00126827
0.000813135
0.000851883
0.000841474
0.000456987
0.000800355
0.000142126
0.000639963
0.000293036
0.0047981
1.46015e-06
0.00479484
2.9829e-06
0.00479104
4.60999e-06
0.00478667
6.3504e-06
0.00478168
8.2131e-06
0.00477602
1.0207e-05
0.00476966
1.23414e-05
0.00476255
1.46254e-05
0.00475462
1.70683e-05
0.00474583
1.968e-05
0.00473611
2.2471e-05
0.0047254
2.54534e-05
0.00471364
2.86418e-05
0.00470073
3.20547e-05
0.00468661
3.57158e-05
0.00467117
3.96557e-05
0.00465431
4.39129e-05
0.00463591
4.85349e-05
0.00461582
5.35796e-05
0.00459388
5.91155e-05
0.0045699
6.52225e-05
0.00454364
7.19923e-05
0.00451486
7.95287e-05
0.00448327
8.7949e-05
0.00444851
9.73852e-05
0.0044102
0.000107988
0.0043679
0.000119928
0.00432108
0.000133408
0.00426917
0.000148661
0.00421146
0.00016597
0.00414718
0.000185673
0.00407538
0.000208182
0.00399497
0.000234005
0.00390464
0.000263763
0.00380286
0.000298222
0.00368777
0.000338317
0.00355719
0.000385175
0.00340849
0.000440115
0.00323864
0.000504603
0.00304414
0.000580117
0.0028212
0.000667853
0.00256601
0.000768164
0.00227534
0.000879619
0.00194764
0.000997508
0.00158478
0.00111163
0.00119473
0.00120319
0.000795666
0.00124054
0.000421683
0.00117434
0.000128653
0.000932992
0.000421689
0.00479539
8.25271e-06
0.0047881
1.02723e-05
0.00478028
1.2431e-05
0.00477189
1.474e-05
0.00476289
1.72112e-05
0.00475324
1.98569e-05
0.00474289
2.26893e-05
0.0047318
2.57211e-05
0.0047199
2.8965e-05
0.00470715
3.24343e-05
0.00469347
3.61433e-05
0.00467882
4.01088e-05
0.00466311
4.43506e-05
0.00464627
4.88941e-05
0.00462821
5.37715e-05
0.00460885
5.90239e-05
0.00458806
6.47033e-05
0.00456572
7.08736e-05
0.00454168
7.76119e-05
0.00451579
8.50098e-05
0.00448784
9.31737e-05
0.00445761
0.000102226
0.00442483
0.000112304
0.00438922
0.000123563
0.00435042
0.000136181
0.00430805
0.000150356
0.00426166
0.000166317
0.00421074
0.000184332
0.00415469
0.000204711
0.00409283
0.00022783
0.00402437
0.000254136
0.00394837
0.000284175
0.00386377
0.000318611
0.00376927
0.000358259
0.00366338
0.000404114
0.00354431
0.000457384
0.00340998
0.000519511
0.00325793
0.000592165
0.00308536
0.000677172
0.00288916
0.000776319
0.00266605
0.00089096
0.00241294
0.00102127
0.00212752
0.00116503
0.00180931
0.00131572
0.00146119
0.00145975
0.00109174
0.00157264
0.00071869
0.00161359
0.000374276
0.00151875
0.000109462
0.00119781
0.000531151
0.00479184
2.03457e-05
0.00477926
2.2852e-05
0.00476616
2.55309e-05
0.0047525
2.83967e-05
0.00473825
3.14645e-05
0.00472335
3.47496e-05
0.00470777
3.82678e-05
0.00469146
4.20349e-05
0.00467436
4.60673e-05
0.00465641
5.03818e-05
0.00463756
5.49971e-05
0.00461773
5.99345e-05
0.00459686
6.52198e-05
0.00457487
7.08853e-05
0.00455167
7.69723e-05
0.00452716
8.3533e-05
0.00450123
9.06331e-05
0.00447375
9.83529e-05
0.00444457
0.000106789
0.00441353
0.000116057
0.00438041
0.000126289
0.004345
0.000137637
0.00430703
0.000150273
0.0042662
0.000164392
0.00422217
0.000180212
0.00417455
0.000197982
0.00412287
0.000217988
0.00406664
0.000240562
0.00400526
0.000266093
0.00393805
0.000295043
0.00386421
0.00032797
0.00378284
0.000365545
0.00369287
0.000408583
0.00359306
0.000458076
0.00348194
0.000515226
0.00335785
0.000581476
0.00321883
0.000658527
0.00306269
0.000748315
0.00288696
0.000852898
0.00268907
0.000974209
0.0024665
0.00111353
0.00221717
0.0012706
0.00194008
0.00144213
0.0016362
0.0016196
0.00130977
0.00178619
0.000969949
0.00191246
0.000633191
0.00195035
0.000326691
0.00182525
9.05637e-05
0.00143393
0.000621715
0.0047875
3.89342e-05
0.00476844
4.19106e-05
0.00474888
4.50936e-05
0.00472878
4.85001e-05
0.00470809
5.21484e-05
0.00468678
5.60569e-05
0.00466481
6.02447e-05
0.00464211
6.47309e-05
0.00461864
6.95353e-05
0.00459435
7.46788e-05
0.00456916
8.01843e-05
0.00454302
8.60781e-05
0.00451584
9.23923e-05
0.00448756
9.91669e-05
0.00445808
0.000106452
0.0044273
0.000114312
0.00439511
0.000122827
0.00436137
0.000132094
0.00432593
0.000142229
0.00428861
0.000153371
0.00424922
0.000165679
0.00420753
0.000179335
0.00416325
0.000194544
0.00411611
0.00021154
0.00406574
0.000230583
0.00401175
0.000251972
0.00395369
0.000276048
0.00389104
0.000303208
0.00382322
0.000333917
0.00374953
0.000368727
0.00366921
0.000408297
0.00358133
0.00045342
0.00348486
0.000505051
0.0033786
0.000564338
0.00326117
0.000632659
0.003131
0.00071164
0.00298638
0.000803155
0.00282542
0.000909274
0.00264621
0.0010321
0.00244697
0.00117345
0.00222633
0.00133418
0.00198376
0.00151316
0.00172025
0.00170564
0.00143904
0.00190081
0.00114639
0.00207884
0.000852367
0.00220648
0.000571121
0.00223159
0.000319494
0.00207688
0.000110441
0.00164299
0.000732156
0.00478246
6.51198e-05
0.00475583
6.85424e-05
0.00472872
7.22078e-05
0.00470108
7.6134e-05
0.00467289
8.03418e-05
0.00464409
8.48527e-05
0.00461465
8.96884e-05
0.00458451
9.48716e-05
0.00455362
0.000100425
0.00452192
0.000106375
0.00448936
0.000112747
0.00445586
0.000119574
0.00442136
0.000126893
0.00438578
0.000134754
0.00434901
0.000143216
0.00431097
0.000152355
0.00427153
0.000162265
0.00423056
0.000173062
0.00418791
0.000184882
0.0041434
0.000197887
0.00409681
0.000212262
0.00404793
0.000228219
0.00399648
0.000245997
0.00394215
0.000265866
0.0038846
0.000288131
0.00382344
0.000313137
0.0037582
0.000341283
0.00368838
0.000373027
0.00361339
0.000408912
0.00353254
0.000449575
0.00344506
0.000495776
0.00335006
0.000548424
0.00324651
0.000608601
0.00313325
0.000677599
0.00300897
0.000756936
0.00287224
0.000848366
0.00272155
0.000953851
0.00255537
0.00107545
0.00237238
0.00121509
0.00217171
0.00137412
0.00195338
0.00155251
0.00171889
0.00174766
0.00147192
0.0019526
0.00121913
0.00215361
0.000970639
0.00232732
0.000739692
0.00243743
0.000539929
0.00243136
0.000376138
0.00224067
0.00022789
0.00179124
0.000960046
-2.94342e-05
2.94319e-05
2.24612e-09
-7.51221e-05
4.56824e-05
5.55418e-09
-0.000111767
3.66373e-05
7.68654e-09
-0.000125085
1.33089e-05
8.81881e-09
-0.000108564
-1.65301e-05
9.03341e-09
-5.98911e-05
-4.86814e-05
8.82528e-09
2.06458e-05
-8.05453e-05
8.33634e-09
0.000130812
-0.000110174
7.67062e-09
0.000267389
-0.000136583
6.89884e-09
0.000426569
-0.000159187
6.07206e-09
0.000604296
-0.000177731
5.21097e-09
0.000796494
-0.000192203
4.32643e-09
0.000999238
-0.000202748
3.42222e-09
0.00120886
-0.00020962
2.50346e-09
0.001422
-0.000213147
1.57968e-09
0.00163569
-0.000213693
6.62956e-10
0.00184734
-0.000211647
-2.24216e-10
0.00205474
-0.000207395
-1.04133e-09
0.00225606
-0.000201317
-1.73989e-09
0.00244983
-0.00019377
-2.26219e-09
0.00263492
-0.000185088
-2.42817e-09
0.00281049
-0.000175573
-2.31571e-09
0.00297599
-0.000165498
-1.56836e-09
0.00313109
-0.0001551
-1.50423e-10
0.00327567
-0.000144584
1.55421e-09
0.0034098
-0.000134124
3.25603e-09
0.00353366
-0.000123866
4.5036e-09
0.00364758
-0.000113925
5.14077e-09
0.00375197
-0.000104394
5.25706e-09
0.0038473
-9.53406e-05
4.95815e-09
0.00393411
-8.68113e-05
4.37539e-09
0.00401294
-7.88347e-05
3.64482e-09
0.00408436
-7.14235e-05
2.88598e-09
0.00414894
-6.45774e-05
2.1901e-09
0.00420722
-5.82849e-05
1.61812e-09
0.00425974
-5.25263e-05
1.20275e-09
0.00430702
-4.72756e-05
9.52564e-10
0.00434952
-4.25021e-05
8.60967e-10
0.00438769
-3.81726e-05
9.10086e-10
0.00442194
-3.42525e-05
1.07602e-09
0.00445265
-3.07069e-05
1.33263e-09
0.00448015
-2.75018e-05
1.65366e-09
0.00450475
-2.46046e-05
2.01527e-09
0.00452673
-2.19847e-05
2.39644e-09
0.00454634
-1.96136e-05
2.77915e-09
0.00456381
-1.74655e-05
3.14995e-09
0.00457932
-1.55167e-05
3.49954e-09
0.00459306
-1.37459e-05
3.82106e-09
0.00460519
-1.21342e-05
4.11043e-09
-1.06642e-05
0.00461585
4.36575e-09
-2.5787e-05
5.52189e-05
-6.40707e-05
8.39661e-05
-9.28378e-05
6.54044e-05
-9.91183e-05
1.95893e-05
-7.74886e-05
-3.81598e-05
-2.53564e-05
-0.000100814
5.67122e-05
-0.000162614
0.000166871
-0.000220333
0.000302166
-0.000271879
0.000459049
-0.000316069
0.000633717
-0.000352399
0.000822331
-0.000380818
0.00102117
-0.000401585
0.00122673
-0.000415178
0.0014358
-0.000422217
0.00164551
-0.000423407
0.00185336
-0.000419495
0.0020572
-0.000411235
0.00225525
-0.000399365
0.00244606
-0.000384586
0.00262853
-0.000367551
0.00280181
-0.000348856
0.00296535
-0.000329034
0.0031188
-0.000308557
0.00326205
-0.000287829
0.00339512
-0.000267197
0.0035182
-0.000246947
0.00363159
-0.000227313
0.00373567
-0.000208477
0.00383091
-0.000190574
0.00391779
-0.000173699
0.00399687
-0.00015791
0.00406868
-0.000143233
0.00413377
-0.000129668
0.00419268
-0.000117194
0.00424592
-0.000105773
0.004294
-9.5355e-05
0.00433738
-8.58799e-05
0.00437649
-7.72826e-05
0.00441173
-6.94952e-05
0.00444348
-6.24494e-05
0.00447205
-5.6078e-05
0.00449776
-5.0317e-05
0.00452089
-4.51059e-05
0.00454166
-4.03887e-05
0.00456031
-3.6114e-05
0.00457703
-3.22352e-05
0.00459199
-2.87102e-05
0.00460536
-2.55011e-05
-2.25731e-05
0.00461727
-1.87899e-05
7.40089e-05
-4.26499e-05
0.000107826
-5.69987e-05
7.97532e-05
-4.97659e-05
1.23565e-05
-1.85301e-05
-6.93956e-05
3.90847e-05
-0.000158428
0.000123473
-0.000247002
0.000233084
-0.000329944
0.000365415
-0.000404209
0.000517454
-0.000468109
0.000685913
-0.000520857
0.000867402
-0.000562307
0.00105859
-0.000592769
0.00125628
-0.000612875
0.00145754
-0.000623476
0.00165969
-0.000625558
0.00186038
-0.000620179
0.00205756
-0.000608418
0.00224953
-0.000591336
0.00243489
-0.000569947
0.00261254
-0.000545201
0.00278165
-0.000517969
0.00294165
-0.000489033
0.00309218
-0.000459084
0.00323307
-0.000428722
0.00336434
-0.000398459
0.00348611
-0.000368721
0.00359865
-0.000339856
0.00370231
-0.000312136
0.0037975
-0.000285765
0.00388469
-0.000260885
0.00396437
-0.000237586
0.00403704
-0.000215911
0.00410324
-0.000195863
0.00416346
-0.000177413
0.0042182
-0.00016051
0.00426792
-0.00014508
0.00431308
-0.000131037
0.00435408
-0.000118288
0.00439132
-0.000106733
0.00442514
-9.62729e-05
0.00445588
-8.68094e-05
0.00448381
-7.82487e-05
0.0045092
-7.05019e-05
0.0045323
-6.34867e-05
0.00455331
-5.71275e-05
0.00457243
-5.13556e-05
0.00458983
-4.61089e-05
0.00460566
-4.13308e-05
-3.69686e-05
0.00462006
-5.45761e-06
7.94665e-05
-1.05068e-05
0.000112875
-3.25094e-06
7.24973e-05
1.87988e-05
-9.69323e-06
6.07434e-05
-0.00011134
0.000125111
-0.000222796
0.000211536
-0.000333427
0.000319068
-0.000437475
0.000446055
-0.000531196
0.000590302
-0.000612355
0.000749257
-0.000679813
0.000920178
-0.000733229
0.00110027
-0.000772857
0.00128677
-0.000799382
0.00147709
-0.000813789
0.00166879
-0.000817263
0.00185971
-0.0008111
0.00204794
-0.000796642
0.00223183
-0.000775227
0.00241003
-0.000748146
0.00258144
-0.000716617
0.00274523
-0.000681761
0.00290079
-0.000644592
0.00304772
-0.000606012
0.00318581
-0.000566806
0.00331499
-0.000527648
0.00343537
-0.000489101
0.00354714
-0.000451625
0.00365059
-0.000415583
0.00374608
-0.000381251
0.00383401
-0.00034882
0.00391484
-0.000318416
0.00398903
-0.000290099
0.00405705
-0.000263881
0.00411936
-0.000239731
0.00417644
-0.000217584
0.00422871
-0.00019735
0.00427659
-0.000178921
0.00432048
-0.000162176
0.00436074
-0.000146989
0.0043977
-0.000133232
0.00443166
-0.000120778
0.00446292
-0.000109505
0.00449172
-9.92997e-05
0.00451829
-9.00538e-05
0.00454283
-8.1669e-05
0.00456553
-7.4056e-05
0.00458655
-6.71334e-05
0.00460605
-6.08268e-05
-5.5065e-05
0.00462415
9.25991e-06
7.02066e-05
2.7075e-05
9.50603e-05
5.68563e-05
4.2716e-05
9.77617e-05
-5.05987e-05
0.000153301
-0.00016688
0.000223811
-0.000293306
0.000310299
-0.000419915
0.000412983
-0.00054016
0.000531367
-0.00064958
0.000664333
-0.000745322
0.000810281
-0.000825761
0.000967267
-0.000890214
0.00113314
-0.000938727
0.00130565
-0.000971892
0.00148256
-0.000990702
0.00166173
-0.000996431
0.00184115
-0.000990524
0.00201903
-0.000974517
0.00219377
-0.000949967
0.00236402
-0.0009184
0.00252867
-0.000881269
0.00268684
-0.000839927
0.00283785
-0.000795604
0.00298124
-0.000749402
0.00311672
-0.00070229
0.00324417
-0.000655097
0.0033636
-0.000608525
0.00347512
-0.000563151
0.00357897
-0.00051943
0.00367543
-0.000477711
0.00376485
-0.000438243
0.00384763
-0.000401188
0.00392416
-0.000366632
0.00399488
-0.000334599
0.00406021
-0.000305059
0.00412056
-0.00027794
0.00417635
-0.000253139
0.00422796
-0.000230529
0.00427575
-0.000209969
0.00432007
-0.000191306
0.00436123
-0.000174388
0.00439951
-0.000159063
0.00443519
-0.000145183
0.0044685
-0.00013261
0.00449966
-0.000121214
0.00452887
-0.000110876
0.0045563
-0.000101485
0.0045821
-9.2943e-05
0.00460644
-8.51587e-05
-7.8042e-05
0.00462941
2.80334e-05
4.21731e-05
7.4647e-05
4.84466e-05
0.000130358
-1.29952e-05
0.000189322
-0.000109563
0.00025485
-0.000232407
0.000327907
-0.000366364
0.000410427
-0.000502435
0.000503969
-0.000633702
0.000609421
-0.000755032
0.000726949
-0.00086285
0.000856059
-0.000954871
0.000995715
-0.00102987
0.00114447
-0.00108748
0.00130062
-0.00112803
0.00146228
-0.00115237
0.00162755
-0.00116171
0.00179457
-0.00115755
0.00196159
-0.00114153
0.00212701
-0.00111539
0.00228944
-0.00108083
0.00244768
-0.00103951
0.00260077
-0.000993009
0.00274792
-0.000942758
0.00288858
-0.000890057
0.00302234
-0.000836055
0.00314899
-0.000781746
0.00326844
-0.000727977
0.00338073
-0.000675441
0.003486
-0.000624699
0.00358447
-0.000576178
0.00367641
-0.000530189
0.00376216
-0.00048694
0.00384208
-0.000446547
0.00391653
-0.000409052
0.00398591
-0.000374433
0.00405058
-0.000342615
0.00411093
-0.000313487
0.00416731
-0.000286907
0.00422005
-0.000262714
0.00426948
-0.000240739
0.0043159
-0.000220803
0.00435957
-0.000202733
0.00440074
-0.000186358
0.00443965
-0.000171517
0.0044765
-0.00015806
0.00451147
-0.000145846
0.00454473
-0.000134749
0.00457644
-0.000124652
0.00460673
-0.000115448
-0.000107032
0.00463572
5.37608e-05
-1.15877e-05
0.000133332
-3.11248e-05
0.000209573
-8.92357e-05
0.000283447
-0.000183437
0.000353673
-0.000302633
0.000423431
-0.000436122
0.000496338
-0.000575341
0.000575638
-0.000713003
0.00066377
-0.000843163
0.000762229
-0.000961309
0.00087162
-0.00106426
0.00099177
-0.00115002
0.00112189
-0.0012176
0.00126071
-0.00126686
0.00140668
-0.00129833
0.00155805
-0.00131307
0.00171301
-0.00131251
0.00186981
-0.00129833
0.00202677
-0.00127235
0.0021824
-0.00123646
0.00233539
-0.0011925
0.00248463
-0.00114225
0.00262921
-0.00108734
0.00276844
-0.00102928
0.00290179
-0.000969412
0.00302894
-0.000908894
0.00314969
-0.000848726
0.00326399
-0.000789738
0.00337189
-0.000732597
0.00347353
-0.000677823
0.00356914
-0.000625797
0.00365898
-0.00057678
0.00374336
-0.000530926
0.00382261
-0.0004883
0.00389707
-0.000448894
0.00396709
-0.000412636
0.00403301
-0.00037941
0.00409517
-0.000349064
0.00415388
-0.000321422
0.00420943
-0.000296295
0.00426212
-0.000273487
0.00431218
-0.000252801
0.00435987
-0.000234047
0.0044054
-0.000217043
0.00444896
-0.000201618
0.00449073
-0.000187615
0.00453087
-0.000174888
0.00456952
-0.000163307
0.00460682
-0.00015275
0.00464289
-0.000143101
0.00463528
-1.94361e-05
4.61177e-09
0.00465388
-1.85985e-05
4.89518e-09
0.00467168
-1.78101e-05
5.1543e-09
0.00468875
-1.70697e-05
5.39036e-09
0.00470512
-1.6375e-05
5.60922e-09
0.00472083
-1.57234e-05
5.82084e-09
0.00473594
-1.51119e-05
6.03683e-09
0.00475047
-1.45369e-05
6.26716e-09
0.00476446
-1.39941e-05
6.51862e-09
0.00477793
-1.34775e-05
6.79418e-09
0.0047909
-1.29803e-05
7.09218e-09
0.00480339
-1.2494e-05
7.40723e-09
0.00481539
-1.20092e-05
7.72988e-09
0.0048269
-1.15163e-05
8.04692e-09
0.0048379
-1.10071e-05
8.34248e-09
0.00484836
-1.04761e-05
8.59875e-09
0.00485828
-9.92198e-06
8.79706e-09
0.00486762
-9.34934e-06
8.91986e-09
0.00487638
-8.7685e-06
8.95267e-09
0.00488456
-8.19469e-06
8.88565e-09
0.0048922
-7.64583e-06
8.71527e-09
0.00489933
-7.13956e-06
8.4454e-09
0.00490601
-6.69004e-06
8.08672e-09
0.00491231
-6.3055e-06
7.65453e-09
0.00491829
-5.9871e-06
7.1667e-09
0.00492401
-5.7293e-06
6.64201e-09
0.00492953
-5.52157e-06
6.09839e-09
0.00493487
-5.35084e-06
5.55093e-09
0.00494007
-5.20395e-06
5.01042e-09
0.00494514
-5.06952e-06
4.48407e-09
0.00495007
-4.93904e-06
3.97634e-09
0.00495488
-4.8071e-06
3.48987e-09
0.00495955
-4.67103e-06
3.02534e-09
0.00496407
-4.53015e-06
2.58199e-09
0.00496846
-4.38507e-06
2.15826e-09
0.00497269
-4.23703e-06
1.75334e-09
0.00497678
-4.08745e-06
1.36708e-09
0.00498071
-3.93767e-06
1.00007e-09
0.0049845
-3.78881e-06
6.54191e-10
0.00498814
-3.64179e-06
3.32609e-10
0.00499164
-3.49726e-06
3.99295e-11
0.004995
-3.3557e-06
-2.22079e-10
0.00499821
-3.21745e-06
-4.53789e-10
0.0050013
-3.08271e-06
-6.60329e-10
0.00500425
-2.95164e-06
-8.52257e-10
0.00500708
-2.82422e-06
-1.03389e-09
0.00500978
-2.70051e-06
-1.21272e-09
0.00501236
-2.58051e-06
-1.3962e-09
0.00501482
-2.46419e-06
-1.58865e-09
0.00501718
-2.35147e-06
-1.79721e-09
0.00501942
-2.2423e-06
-2.02681e-09
0.00502156
-2.1366e-06
-2.28393e-09
0.0050236
-2.0343e-06
-2.56813e-09
0.00502554
-1.93534e-06
-2.87239e-09
0.00502738
-1.83966e-06
-3.18425e-09
0.00502913
-1.74721e-06
-3.4837e-09
0.00503079
-1.65793e-06
-3.75312e-09
0.00503237
-1.57177e-06
-3.9768e-09
0.00503386
-1.48866e-06
-4.15195e-09