/*--------------------------------*- C++ -*----------------------------------*\
| =========                 |                                                 |
| \\      /  F ield         | OpenFOAM: The Open Source CFD Toolbox           |
|  \\    /   O peration     | Version:  2412                                  |
|   \\  /    A nd           | Website:  www.openfoam.com                      |
|    \\/     M anipulation  |                                                 |
\*---------------------------------------------------------------------------*/
FoamFile
{
    version     2.0;
    format      ascii;
    arch        "LSB;label=32;scalar=64";
    class       volVectorField;
    location    "11.5";
    object      U;
}
// * * * * * * * * * * * * * * * * * * * * * * * * * * * * * * * * * * * * * //

dimensions      [0 1 -1 0 0 0 0];

internalField   nonuniform List<vector> 
63420
(
(0.0999997 4.38972e-07 0)
(0.099995 1.19428e-06 0)
(0.0999863 2.17744e-06 0)
(0.0999706 4.19282e-06 0)
(0.0999403 7.66817e-06 0)
(0.0998882 1.20642e-05 0)
(0.0998131 1.61549e-05 0)
(0.0997211 1.88172e-05 0)
(0.0996221 1.96117e-05 0)
(0.0995257 1.88298e-05 0)
(0.0994379 1.71667e-05 0)
(0.0993608 1.53357e-05 0)
(0.0992932 1.38324e-05 0)
(0.0992327 1.28807e-05 0)
(0.0991762 1.2494e-05 0)
(0.0991213 1.25718e-05 0)
(0.0990663 1.298e-05 0)
(0.0990101 1.35981e-05 0)
(0.0989521 1.43379e-05 0)
(0.0988921 1.51444e-05 0)
(0.09883 1.59885e-05 0)
(0.0987658 1.68583e-05 0)
(0.0986994 1.77523e-05 0)
(0.098631 1.86739e-05 0)
(0.0985605 1.96287e-05 0)
(0.0984878 2.06228e-05 0)
(0.098413 2.16619e-05 0)
(0.098336 2.27511e-05 0)
(0.0982567 2.38953e-05 0)
(0.098175 2.50984e-05 0)
(0.098091 2.63645e-05 0)
(0.0980044 2.7697e-05 0)
(0.0979152 2.90995e-05 0)
(0.0978234 3.05753e-05 0)
(0.0977288 3.21279e-05 0)
(0.0976314 3.37607e-05 0)
(0.097531 3.54773e-05 0)
(0.0974276 3.72812e-05 0)
(0.0973211 3.91762e-05 0)
(0.0972114 4.11664e-05 0)
(0.0970984 4.32557e-05 0)
(0.096982 4.54485e-05 0)
(0.0968621 4.77492e-05 0)
(0.0967387 5.01626e-05 0)
(0.0966115 5.26937e-05 0)
(0.0964806 5.53478e-05 0)
(0.0963458 5.81304e-05 0)
(0.096207 6.10474e-05 0)
(0.0960641 6.41053e-05 0)
(0.095917 6.73108e-05 0)
(0.0957656 7.06718e-05 0)
(0.0956098 7.41979e-05 0)
(0.0954494 7.79034e-05 0)
(0.0952844 8.18177e-05 0)
(0.0951144 8.60123e-05 0)
(0.0999997 1.317e-06 0)
(0.099995 3.58586e-06 0)
(0.0999863 6.53037e-06 0)
(0.0999706 1.25472e-05 0)
(0.0999405 2.29176e-05 0)
(0.099889 3.60441e-05 0)
(0.0998146 4.82776e-05 0)
(0.0997233 5.62685e-05 0)
(0.0996249 5.86976e-05 0)
(0.0995288 5.64237e-05 0)
(0.0994411 5.15111e-05 0)
(0.0993638 4.60839e-05 0)
(0.099296 4.1621e-05 0)
(0.0992351 3.87927e-05 0)
(0.0991782 3.76432e-05 0)
(0.0991231 3.78761e-05 0)
(0.0990678 3.90939e-05 0)
(0.0990115 4.09387e-05 0)
(0.0989534 4.31486e-05 0)
(0.0988933 4.55595e-05 0)
(0.0988312 4.80845e-05 0)
(0.098767 5.06882e-05 0)
(0.0987006 5.33655e-05 0)
(0.0986322 5.61265e-05 0)
(0.0985618 5.89878e-05 0)
(0.0984892 6.19671e-05 0)
(0.0984144 6.50816e-05 0)
(0.0983375 6.83466e-05 0)
(0.0982583 7.17761e-05 0)
(0.0981767 7.53824e-05 0)
(0.0980928 7.9177e-05 0)
(0.0980063 8.31707e-05 0)
(0.0979173 8.73737e-05 0)
(0.0978256 9.17963e-05 0)
(0.0977312 9.64487e-05 0)
(0.0976339 0.000101341 0)
(0.0975337 0.000106484 0)
(0.0974305 0.000111888 0)
(0.0973242 0.000117566 0)
(0.0972147 0.000123527 0)
(0.0971019 0.000129785 0)
(0.0969857 0.000136353 0)
(0.0968661 0.000143244 0)
(0.0967428 0.000150472 0)
(0.096616 0.000158052 0)
(0.0964853 0.000166 0)
(0.0963508 0.000174332 0)
(0.0962124 0.000183066 0)
(0.0960698 0.000192221 0)
(0.0959231 0.000201818 0)
(0.0957722 0.000211879 0)
(0.0956168 0.000222433 0)
(0.0954569 0.000233522 0)
(0.0952923 0.000245233 0)
(0.0951229 0.000257773 0)
(0.0999997 2.1945e-06 0)
(0.099995 5.98103e-06 0)
(0.0999862 1.08717e-05 0)
(0.0999707 2.08196e-05 0)
(0.0999411 3.79603e-05 0)
(0.0998905 5.96878e-05 0)
(0.0998175 7.99946e-05 0)
(0.0997276 9.33386e-05 0)
(0.0996303 9.75109e-05 0)
(0.0995349 9.38961e-05 0)
(0.0994473 8.58819e-05 0)
(0.0993697 7.69708e-05 0)
(0.0993013 6.96123e-05 0)
(0.0992398 6.49275e-05 0)
(0.0991823 6.30029e-05 0)
(0.0991266 6.33597e-05 0)
(0.0990709 6.53481e-05 0)
(0.0990142 6.83805e-05 0)
(0.0989559 7.2025e-05 0)
(0.0988957 7.60101e-05 0)
(0.0988335 8.01912e-05 0)
(0.0987693 8.45086e-05 0)
(0.098703 8.89528e-05 0)
(0.0986347 9.35397e-05 0)
(0.0985643 9.82957e-05 0)
(0.0984919 0.00010325 0)
(0.0984173 0.00010843 0)
(0.0983405 0.000113862 0)
(0.0982615 0.000119568 0)
(0.0981802 0.000125568 0)
(0.0980964 0.000131882 0)
(0.0980102 0.000138527 0)
(0.0979214 0.00014552 0)
(0.09783 0.000152878 0)
(0.0977359 0.000160618 0)
(0.0976389 0.000168757 0)
(0.097539 0.000177312 0)
(0.0974362 0.000186302 0)
(0.0973302 0.000195744 0)
(0.0972211 0.000205659 0)
(0.0971088 0.000216067 0)
(0.096993 0.000226988 0)
(0.0968739 0.000238446 0)
(0.0967512 0.000250463 0)
(0.0966248 0.000263064 0)
(0.0964948 0.000276275 0)
(0.0963609 0.000290124 0)
(0.0962231 0.000304638 0)
(0.0960813 0.000319851 0)
(0.0959353 0.000335794 0)
(0.0957852 0.000352506 0)
(0.0956307 0.000370034 0)
(0.0954717 0.000388444 0)
(0.0953081 0.000407874 0)
(0.0951398 0.000428651 0)
(0.0999997 3.07109e-06 0)
(0.099995 8.38179e-06 0)
(0.0999862 1.51942e-05 0)
(0.0999708 2.896e-05 0)
(0.0999419 5.26701e-05 0)
(0.0998927 8.279e-05 0)
(0.0998216 0.000111057 0)
(0.0997338 0.000129793 0)
(0.0996381 0.000135882 0)
(0.0995436 0.00013117 0)
(0.0994563 0.000120292 0)
(0.0993783 0.000108078 0)
(0.0993091 9.7928e-05 0)
(0.0992466 9.14194e-05 0)
(0.0991882 8.87002e-05 0)
(0.0991317 8.91311e-05 0)
(0.0990753 9.18275e-05 0)
(0.0990182 9.59842e-05 0)
(0.0989596 0.000101006 0)
(0.0988992 0.000106516 0)
(0.0988369 0.000112313 0)
(0.0987727 0.000118312 0)
(0.0987065 0.000124496 0)
(0.0986383 0.000130886 0)
(0.0985681 0.000137518 0)
(0.0984959 0.000144431 0)
(0.0984215 0.000151661 0)
(0.098345 0.000159244 0)
(0.0982663 0.000167212 0)
(0.0981853 0.000175591 0)
(0.0981019 0.000184408 0)
(0.098016 0.000193688 0)
(0.0979276 0.000203453 0)
(0.0978366 0.000213728 0)
(0.0977429 0.000224536 0)
(0.0976464 0.000235899 0)
(0.097547 0.000247843 0)
(0.0974447 0.000260393 0)
(0.0973393 0.000273573 0)
(0.0972308 0.000287411 0)
(0.0971191 0.000301936 0)
(0.097004 0.000317175 0)
(0.0968856 0.000333161 0)
(0.0967636 0.000349925 0)
(0.0966381 0.000367502 0)
(0.0965089 0.000385926 0)
(0.096376 0.000405236 0)
(0.0962392 0.000425471 0)
(0.0960984 0.000446674 0)
(0.0959536 0.000468892 0)
(0.0958046 0.000492174 0)
(0.0956514 0.000516584 0)
(0.0954938 0.000542212 0)
(0.0953317 0.000569232 0)
(0.095165 0.000598068 0)
(0.0999997 3.94639e-06 0)
(0.099995 1.07896e-05 0)
(0.0999862 1.94912e-05 0)
(0.099971 3.6925e-05 0)
(0.0999429 6.69375e-05 0)
(0.0998955 0.000105172 0)
(0.0998268 0.000141247 0)
(0.0997415 0.000165424 0)
(0.099648 0.000173661 0)
(0.0995547 0.000168173 0)
(0.0994676 0.000154748 0)
(0.0993891 0.000139472 0)
(0.099319 0.00012667 0)
(0.0992553 0.000118382 0)
(0.0991957 0.000114844 0)
(0.0991382 0.000115283 0)
(0.0990811 0.000118604 0)
(0.0990233 0.000123801 0)
(0.0989643 0.000130123 0)
(0.0989037 0.000137093 0)
(0.0988414 0.000144452 0)
(0.0987772 0.000152087 0)
(0.0987111 0.000159975 0)
(0.0986431 0.000168139 0)
(0.0985731 0.00017662 0)
(0.0985011 0.000185467 0)
(0.0984271 0.000194726 0)
(0.098351 0.00020444 0)
(0.0982726 0.000214648 0)
(0.098192 0.000225385 0)
(0.098109 0.000236684 0)
(0.0980237 0.000248576 0)
(0.0979358 0.000261089 0)
(0.0978453 0.000274255 0)
(0.0977522 0.000288102 0)
(0.0976563 0.00030266 0)
(0.0975576 0.00031796 0)
(0.0974559 0.000334034 0)
(0.0973513 0.000350914 0)
(0.0972436 0.000368634 0)
(0.0971327 0.00038723 0)
(0.0970185 0.000406738 0)
(0.096901 0.000427198 0)
(0.0967801 0.000448651 0)
(0.0966557 0.000471139 0)
(0.0965276 0.000494707 0)
(0.0963959 0.000519402 0)
(0.0962604 0.000545274 0)
(0.096121 0.000572378 0)
(0.0959777 0.000600768 0)
(0.0958303 0.00063051 0)
(0.0956788 0.000661678 0)
(0.095523 0.000694378 0)
(0.0953629 0.000728811 0)
(0.0951983 0.000765455 0)
(0.0999997 4.82013e-06 0)
(0.099995 1.32052e-05 0)
(0.0999861 2.37575e-05 0)
(0.0999712 4.468e-05 0)
(0.0999441 8.06755e-05 0)
(0.0998987 0.00012669 0)
(0.0998329 0.000170388 0)
(0.0997505 0.000200062 0)
(0.0996594 0.000210718 0)
(0.0995675 0.000204841 0)
(0.0994808 0.000189249 0)
(0.0994018 0.000171202 0)
(0.0993306 0.000155916 0)
(0.0992656 0.000145904 0)
(0.0992047 0.000141517 0)
(0.099146 0.000141886 0)
(0.0990879 0.000145733 0)
(0.0990295 0.000151868 0)
(0.0989701 0.000159398 0)
(0.0989093 0.000167749 0)
(0.0988468 0.000176603 0)
(0.0987827 0.00018582 0)
(0.0987167 0.000195368 0)
(0.0986489 0.000205267 0)
(0.0985793 0.000215566 0)
(0.0985076 0.000226318 0)
(0.098434 0.000237579 0)
(0.0983583 0.000249397 0)
(0.0982804 0.00026182 0)
(0.0982003 0.000274888 0)
(0.0981179 0.000288641 0)
(0.0980331 0.000303115 0)
(0.0979459 0.000318346 0)
(0.0978561 0.000334369 0)
(0.0977637 0.00035122 0)
(0.0976685 0.000368934 0)
(0.0975706 0.000387548 0)
(0.0974699 0.000407101 0)
(0.0973661 0.000427631 0)
(0.0972594 0.00044918 0)
(0.0971495 0.000471789 0)
(0.0970365 0.000495504 0)
(0.0969202 0.00052037 0)
(0.0968005 0.000546437 0)
(0.0966774 0.000573756 0)
(0.0965508 0.000602379 0)
(0.0964206 0.000632363 0)
(0.0962867 0.000663768 0)
(0.096149 0.000696656 0)
(0.0960076 0.000731093 0)
(0.0958621 0.000767153 0)
(0.0957127 0.000804922 0)
(0.0955592 0.000844513 0)
(0.0954015 0.000886133 0)
(0.0952396 0.000930264 0)
(0.0999997 5.69166e-06 0)
(0.099995 1.56288e-05 0)
(0.0999861 2.79888e-05 0)
(0.0999714 5.22007e-05 0)
(0.0999454 9.38222e-05 0)
(0.0999022 0.000147242 0)
(0.0998394 0.000198352 0)
(0.0997603 0.000233581 0)
(0.0996719 0.000246957 0)
(0.0995816 0.000241118 0)
(0.0994953 0.000223782 0)
(0.0994158 0.000203291 0)
(0.0993434 0.000185713 0)
(0.099277 0.000174042 0)
(0.0992147 0.000168777 0)
(0.0991547 0.000168989 0)
(0.0990957 0.00017325 0)
(0.0990366 0.00018021 0)
(0.0989767 0.000188844 0)
(0.0989156 0.000198484 0)
(0.0988531 0.000208758 0)
(0.0987891 0.000219496 0)
(0.0987233 0.00023065 0)
(0.0986558 0.000242242 0)
(0.0985865 0.000254319 0)
(0.0985153 0.000266942 0)
(0.0984421 0.000280172 0)
(0.0983669 0.000294063 0)
(0.0982896 0.000308669 0)
(0.0982101 0.000324036 0)
(0.0981284 0.000340209 0)
(0.0980443 0.00035723 0)
(0.0979578 0.000375141 0)
(0.0978688 0.000393981 0)
(0.0977772 0.000413793 0)
(0.097683 0.000434616 0)
(0.0975861 0.000456495 0)
(0.0974864 0.000479472 0)
(0.0973837 0.000503593 0)
(0.0972782 0.000528906 0)
(0.0971696 0.000555459 0)
(0.0970578 0.000583304 0)
(0.0969429 0.000612495 0)
(0.0968248 0.000643087 0)
(0.0967032 0.000675138 0)
(0.0965783 0.000708711 0)
(0.0964499 0.000743869 0)
(0.0963179 0.00078068 0)
(0.0961823 0.000819214 0)
(0.096043 0.000859547 0)
(0.0958999 0.00090176 0)
(0.0957529 0.000945943 0)
(0.0956021 0.000992212 0)
(0.0954472 0.00104075 0)
(0.0952884 0.00109195 0)
(0.0949385 9.06934e-05 -4.67164e-24)
(0.0947549 9.56569e-05 -4.75979e-24)
(0.0945617 0.000100953 -3.19971e-26)
(0.0943583 0.000106627 1.4615e-23)
(0.0941439 0.000112729 -4.84171e-24)
(0.0939179 0.000119265 -4.97965e-24)
(0.0936794 0.00012626 -1.53244e-23)
(0.0934275 0.000133746 1.52178e-23)
(0.0931613 0.000141754 5.20437e-24)
(0.0928799 0.000150314 0)
(0.0925822 0.000159461 5.37339e-24)
(0.0922672 0.000169233 -5.46442e-24)
(0.0919337 0.000179676 4.49317e-23)
(0.0915805 0.000190851 -9.6284e-23)
(0.0912062 0.000202834 5.14573e-23)
(0.0908093 0.000215724 4.16778e-23)
(0.0903881 0.000229648 5.34813e-23)
(0.0899406 0.000244763 -6.12257e-24)
(0.0894645 0.000261261 6.25472e-24)
(0.0889572 0.000279369 -6.39463e-24)
(0.0884156 0.000299355 0)
(0.087836 0.000321523 6.70023e-24)
(0.0872142 0.00034622 -6.86736e-24)
(0.0865455 0.000373837 0)
(0.0858241 0.000404815 -7.23443e-24)
(0.0850437 0.000439654 0)
(0.0841969 0.000478928 -7.65185e-24)
(0.0832752 0.000523302 -1.28244e-22)
(0.082269 0.000573561 1.36177e-22)
(0.0811669 0.000630644 -1.36746e-22)
(0.079956 0.000695686 1.36538e-22)
(0.078621 0.000770072 0)
(0.0771439 0.000855511 0)
(0.0755036 0.000954114 1.67625e-22)
(0.0736747 0.0010685 -1.5772e-22)
(0.0716267 0.00120187 0)
(0.0693229 0.00135815 0)
(0.0667191 0.00154197 0)
(0.0637626 0.00175854 0)
(0.0603908 0.00201327 0)
(0.0565322 0.00231074 0)
(0.0521082 0.00265292 0)
(0.0470406 0.00303586 0)
(0.0412645 0.00344456 0)
(0.0347551 0.00384523 -1.56757e-23)
(0.0275688 0.00417409 -5.38988e-22)
(0.0198908 0.00432397 5.3818e-22)
(0.0121141 0.00413019 5.85452e-22)
(0.00519931 0.00333952 -5.84573e-22)
(0.00106297 0.00155791 0)
(0.0949474 0.000271758 -4.72443e-24)
(0.0947641 0.000286596 -9.63075e-24)
(0.0945711 0.000302482 -5.04263e-24)
(0.0943681 0.000319505 4.70509e-24)
(0.0941541 0.000337755 -4.90736e-24)
(0.0939285 0.000357302 3.5149e-23)
(0.0936905 0.00037823 -5.52005e-23)
(0.0934391 0.000400631 5.12466e-24)
(0.0931735 0.000424597 6.83655e-23)
(0.0928928 0.000450223 -9.4423e-23)
(0.0925959 0.00047761 -9.21553e-23)
(0.0922817 0.000506873 8.1204e-23)
(0.0919491 0.000538155 0)
(0.0915968 0.000571634 5.66663e-24)
(0.0912235 0.000607543 -1.73133e-23)
(0.0908276 0.000646181 -1.96272e-22)
(0.0904075 0.000687927 1.88325e-22)
(0.0899612 0.000733254 -2.00195e-22)
(0.0894864 0.000782734 -1.87916e-23)
(0.0889805 0.000837051 6.40866e-24)
(0.0884403 0.000897002 0)
(0.0878624 0.0009635 -6.71759e-24)
(0.0872426 0.00103758 -2.1644e-22)
(0.0865761 0.00112042 4.52288e-22)
(0.0858574 0.00121333 2.49468e-22)
(0.0850801 0.00131781 -4.70535e-22)
(0.0842371 0.00143558 5.0674e-22)
(0.08332 0.00156862 -5.142e-22)
(0.0823194 0.00171929 -8.16123e-24)
(0.0812242 0.00189039 0)
(0.0800217 0.00208531 0)
(0.0786972 0.0023082 0)
(0.0772331 0.00256413 0)
(0.0756091 0.00285941 -9.71241e-24)
(0.0738007 0.0032018 -6.59264e-22)
(0.0717786 0.00360085 -2.83715e-23)
(0.069508 0.00406815 6.85848e-22)
(0.0669468 0.00461738 7.48264e-22)
(0.0640449 0.00526389 -7.47272e-22)
(0.0607432 0.00602349 -2.48609e-23)
(0.0569739 0.00690944 -2.60017e-23)
(0.0526622 0.00792695 -8.98377e-22)
(0.0477323 0.00906351 8.68766e-22)
(0.0421188 0.0102736 -2.9665e-23)
(0.0357888 0.0114555 1.57853e-23)
(0.0287783 0.0124192 -1.09586e-21)
(0.0212341 0.0128452 1.09549e-21)
(0.0134824 0.0122444 -2.28829e-21)
(0.0063525 0.00987457 2.25004e-21)
(0.00153269 0.00457362 -2.30574e-21)
(0.0949652 0.000451813 -2.79555e-23)
(0.0947823 0.000476468 -9.79687e-24)
(0.09459 0.000502867 3.78222e-23)
(0.0943876 0.000531138 -7.77516e-23)
(0.0941744 0.000561407 1.66344e-22)
(0.0939496 0.000593827 -7.87879e-23)
(0.0937126 0.000628548 1.42657e-26)
(0.0934623 0.000665723 1.02216e-23)
(0.093198 0.000705504 1.78143e-22)
(0.0929186 0.000748048 -1.67571e-22)
(0.0926232 0.000793529 0)
(0.0923107 0.000842142 1.47216e-26)
(0.0919799 0.000894127 0)
(0.0916295 0.000949785 1.94626e-22)
(0.0912583 0.00100951 -1.71555e-22)
(0.0908646 0.00107379 -3.69643e-22)
(0.0904468 0.00114328 2.04311e-23)
(0.090003 0.00121875 -3.89102e-22)
(0.0895308 0.00130117 1.25741e-23)
(0.0890278 0.00139165 -4.1648e-22)
(0.0884908 0.00149153 4.29237e-22)
(0.0879164 0.00160233 -4.3725e-22)
(0.0873007 0.00172576 4.50654e-22)
(0.0866388 0.00186376 1.41816e-23)
(0.0859256 0.00201851 -1.45693e-23)
(0.0851549 0.0021925 1.49821e-23)
(0.0843198 0.00238858 -5.01857e-22)
(0.0834122 0.00261004 5.17307e-22)
(0.0824232 0.00286079 5.50582e-22)
(0.0813422 0.00314545 -5.33684e-22)
(0.0801571 0.00346965 0)
(0.0788539 0.00384021 0)
(0.0774165 0.00426552 1.87758e-23)
(0.0758256 0.0047559 1.29476e-21)
(0.0740588 0.00532409 3.1914e-23)
(0.0720895 0.00598566 -1.30393e-21)
(0.0698859 0.00675942 0)
(0.0674105 0.00766743 -2.28335e-23)
(0.0646187 0.00873432 1.59264e-21)
(0.0614582 0.009985 -3.18146e-21)
(0.0578686 0.0114398 3.37701e-21)
(0.0537826 0.0131052 1.04395e-22)
(0.0491293 0.014958 -1.75822e-21)
(0.0438416 0.0169204 -1.90884e-21)
(0.0378709 0.0188231 1.96722e-21)
(0.031211 0.0203529 1.52838e-24)
(0.0239299 0.0209858 -3.35379e-23)
(0.0162226 0.0199189 2.20937e-21)
(0.0086412 0.0159702 -2.13941e-21)
(0.00243563 0.00732888 -2.13956e-21)
(0.0949917 0.00063019 1.84224e-23)
(0.0948096 0.000664524 -9.34531e-24)
(0.0946181 0.000701241 1.95931e-26)
(0.0944167 0.000740539 9.60962e-24)
(0.0942047 0.000782621 -1.96982e-26)
(0.0939813 0.000827696 1.59518e-22)
(0.0937457 0.000875978 -3.01383e-22)
(0.0934972 0.000927679 1.6195e-22)
(0.0932348 0.000983016 -1.03635e-23)
(0.0929576 0.00104221 1.91458e-22)
(0.0926645 0.00110552 -1.70298e-22)
(0.0923546 0.00117322 -3.53211e-22)
(0.0920265 0.00124564 7.13083e-22)
(0.0916792 0.00132322 -7.26933e-22)
(0.0913112 0.00140652 7.41465e-22)
(0.090921 0.00149623 -7.44985e-22)
(0.0905069 0.00159325 -3.94347e-22)
(0.090067 0.00169868 2.27694e-26)
(0.0895991 0.00181384 0)
(0.0891006 0.00194033 -4.05589e-22)
(0.0885688 0.00207996 4.18323e-22)
(0.0880002 0.00223486 0)
(0.087391 0.00240741 -9.03043e-22)
(0.0867367 0.0026003 8.88392e-22)
(0.0860324 0.00281655 1.47079e-23)
(0.0852723 0.00305963 -3.64286e-26)
(0.0844498 0.00333348 1.55469e-23)
(0.0835574 0.0036427 0)
(0.0825867 0.00399267 -5.19943e-26)
(0.0815279 0.00438984 0)
(0.0803701 0.00484196 -1.76623e-23)
(0.0791004 0.00535845 1.19485e-21)
(0.0777042 0.00595083 -1.19453e-21)
(0.0761646 0.00663326 -1.97717e-23)
(0.0744619 0.00742306 4.09544e-23)
(0.0725733 0.00834135 -1.41333e-21)
(0.0704723 0.00941342 1.36939e-21)
(0.0681276 0.0106687 2.32284e-23)
(0.0655032 0.0121395 -3.62441e-25)
(0.0625565 0.013858 2.48381e-23)
(0.0592386 0.0158489 -1.70865e-21)
(0.0554933 0.0181169 3.45652e-21)
(0.0512568 0.0206249 -1.80308e-21)
(0.0464598 0.0232606 1.86986e-21)
(0.0410296 0.025788 -1.95754e-21)
(0.0348962 0.0277793 -3.8966e-21)
(0.0280038 0.0285241 7.95021e-21)
(0.0203507 0.026924 -4.02514e-21)
(0.0121136 0.0213979 0)
(0.00377757 0.00970511 -3.77973e-21)
(0.0950268 0.000806212 -9.13747e-24)
(0.0948456 0.000849975 -3.73102e-23)
(0.0946554 0.000896763 1.13082e-22)
(0.0944554 0.000946833 -1.52654e-22)
(0.094245 0.00100045 6.72252e-23)
(0.0940235 0.00105788 9.85326e-24)
(0.09379 0.00111941 -1.0015e-23)
(0.0935439 0.0011853 -2.47755e-26)
(0.0932842 0.00125584 1.03615e-23)
(0.0930099 0.00133134 -2.10696e-23)
(0.0927201 0.0014121 -3.46562e-22)
(0.0924137 0.0014985 3.57664e-22)
(0.0920896 0.00159099 -3.49155e-22)
(0.0917465 0.00169013 3.60429e-22)
(0.091383 0.00179664 0)
(0.0909977 0.00191142 -2.52592e-26)
(0.0905889 0.00203563 0)
(0.0901546 0.00217068 -3.88986e-22)
(0.0896929 0.00231826 4.14262e-22)
(0.0892013 0.00248039 -1.30154e-23)
(0.088677 0.00265941 -8.77228e-22)
(0.0881168 0.00285799 8.64279e-22)
(0.0875173 0.00307917 -1.40566e-23)
(0.0868742 0.00332635 0)
(0.0861829 0.00360339 0)
(0.0854381 0.00391467 -1.0079e-21)
(0.0846338 0.0042652 9.77286e-22)
(0.0837633 0.0046608 0)
(0.0828188 0.00510833 -3.35471e-23)
(0.0817918 0.00561591 0)
(0.0806724 0.00619334 1.79722e-23)
(0.0794496 0.00685244 -1.85336e-23)
(0.0781111 0.00760763 -1.93084e-23)
(0.0766428 0.00847649 1.99174e-23)
(0.0750289 0.00948045 1.31189e-21)
(0.0732516 0.0106454 -1.354e-21)
(0.0712911 0.0120019 2.94861e-21)
(0.0691248 0.0135854 -2.95054e-21)
(0.0667275 0.015434 3.13885e-21)
(0.0640704 0.0175841 9.43811e-23)
(0.0611192 0.0200618 -3.31184e-21)
(0.0578324 0.0228666 -2.65125e-23)
(0.0541565 0.0259446 1.30222e-24)
(0.0500196 0.0291486 1.73343e-24)
(0.0453198 0.0321805 2.3001e-24)
(0.0399066 0.0345132 -5.76181e-23)
(0.0335588 0.0352836 -2.64235e-23)
(0.0259981 0.0331408 -2.50819e-23)
(0.016913 0.0261207 0)
(0.0055835 0.0116938 7.93112e-24)
(0.0950701 0.000979257 -4.53436e-23)
(0.0948903 0.00103222 2.72757e-23)
(0.0947017 0.00108886 9.32741e-24)
(0.0945036 0.00114949 1.43119e-22)
(0.0942954 0.00121442 -1.43175e-22)
(0.0940763 0.001284 1.4803e-22)
(0.0938457 0.00135856 -3.28546e-22)
(0.0936027 0.00143843 4.67583e-22)
(0.0933465 0.00152399 -3.27491e-22)
(0.0930762 0.00161558 -3.39532e-22)
(0.0927907 0.00171362 -1.69448e-23)
(0.092489 0.00181858 6.89203e-22)
(0.09217 0.00193101 -7.25771e-22)
(0.0918325 0.00205162 3.38471e-22)
(0.0914751 0.0021813 3.65091e-22)
(0.0910964 0.00232119 3.81493e-22)
(0.0906947 0.00247269 -2.92201e-23)
(0.0902683 0.00263754 7.77531e-22)
(0.0898151 0.00281781 8.02659e-22)
(0.0893328 0.00301595 2.01594e-23)
(0.088819 0.0032348 -8.50835e-22)
(0.0882707 0.00347759 0)
(0.0876847 0.00374799 0)
(0.0870571 0.00405013 -9.48303e-22)
(0.0863839 0.00438868 9.34682e-22)
(0.0856603 0.00476891 1.00706e-21)
(0.0848811 0.0051969 -1.00855e-21)
(0.0840403 0.00567969 0)
(0.0831313 0.00622553 1.12672e-21)
(0.082147 0.00684422 -1.1289e-21)
(0.0810791 0.00754747 0)
(0.0799189 0.00834938 -2.44623e-21)
(0.0786568 0.00926698 2.46888e-21)
(0.0772823 0.0103209 -2.04199e-23)
(0.0757844 0.0115358 -2.73499e-21)
(0.0741516 0.0129411 2.76035e-21)
(0.0723724 0.0145712 0)
(0.070435 0.0164643 3.10776e-21)
(0.0683278 0.0186602 -3.08862e-21)
(0.0660385 0.0211942 2.50794e-23)
(0.063552 0.0240863 3.42179e-21)
(0.0608458 0.0273219 -6.8699e-21)
(0.0578808 0.0308217 1.54299e-23)
(0.0545862 0.0343972 3.4745e-23)
(0.0508321 0.03769 3.57426e-21)
(0.0463846 0.0400948 3.99709e-24)
(0.0408384 0.0406475 -3.06363e-21)
(0.0335617 0.0378479 3.14066e-21)
(0.0235084 0.0295165 0)
(0.00811691 0.0129923 2.75389e-23)
(0.0951216 0.00114853 8.93179e-24)
(0.0949437 0.00121017 8.22511e-23)
(0.0947573 0.00127617 -7.33498e-23)
(0.0945617 0.00134687 9.41116e-24)
(0.0943564 0.00142265 1.44605e-22)
(0.0941407 0.00150389 -1.44837e-22)
(0.0939137 0.001591 -3.10104e-22)
(0.0936748 0.00168439 4.73603e-24)
(0.0934231 0.00178448 -5.66304e-24)
(0.0931578 0.00189171 3.44199e-22)
(0.0928778 0.00200658 -3.36008e-22)
(0.0925823 0.00212967 7.12904e-22)
(0.0922699 0.00226166 -3.55175e-22)
(0.0919397 0.00240342 1.14755e-23)
(0.0915903 0.00255603 1.17403e-23)
(0.0912203 0.00272086 7.76327e-22)
(0.0908281 0.0028996 -4.9017e-24)
(0.0904122 0.00309433 8.10198e-22)
(0.0899706 0.00330751 1.29459e-23)
(0.0895012 0.00354206 0)
(0.0890018 0.00380134 0)
(0.0884698 0.00408916 -9.08689e-22)
(0.0879023 0.00440986 9.10985e-22)
(0.0872961 0.00476832 0)
(0.0866477 0.00517003 1.53267e-23)
(0.085953 0.00562127 0)
(0.0852077 0.00612922 -1.05884e-21)
(0.084407 0.0067022 2.15598e-21)
(0.0835456 0.00734998 -1.09721e-21)
(0.0826181 0.00808412 -2.32669e-21)
(0.0816185 0.00891836 -7.9026e-23)
(0.0805405 0.00986917 -8.35906e-23)
(0.0793778 0.0109562 -8.81082e-23)
(0.0781245 0.012203 2.61955e-21)
(0.0767749 0.0136372 2.81451e-21)
(0.0753247 0.0152909 -2.82121e-21)
(0.0737714 0.0172003 0)
(0.072115 0.0194034 3.13126e-21)
(0.0703584 0.0219361 -3.13854e-21)
(0.0685072 0.0248239 -3.34144e-21)
(0.0665669 0.0280669 3.32304e-21)
(0.0645365 0.0316176 2.72167e-23)
(0.0623955 0.0353463 3.35305e-21)
(0.0600816 0.0389955 -1.07389e-22)
(0.0574519 0.0421238 -3.31471e-21)
(0.0542159 0.0440482 2.5294e-23)
(0.0498375 0.0437753 0)
(0.0434166 0.0398655 -2.00096e-23)
(0.0330076 0.0303557 -9.0556e-22)
(0.0130918 0.0129311 4.54109e-22)
(-0.000250894 0.000306939 0)
(-0.000950899 0.000476827 3.00711e-22)
(-0.00176168 0.000380367 -3.01163e-22)
(-0.00225529 0.000141496 -2.88798e-22)
(-0.00223473 -0.000164715 2.89232e-22)
(-0.00163705 -0.000496962 -8.53012e-24)
(-0.000449143 -0.000824479 0)
(0.00130504 -0.00112863 0)
(0.00357611 -0.00139943 0)
(0.00630135 -0.00163111 0)
(0.00941072 -0.00182123 0)
(0.0128315 -0.00196978 0)
(0.016492 -0.00207834 0)
(0.0203238 -0.00214964 0)
(0.0242636 -0.00218706 0)
(0.0282538 -0.00219441 3.64869e-23)
(0.0322437 -0.00217565 -3.44545e-23)
(0.0361891 -0.00213476 0)
(0.0400525 -0.00207558 0)
(0.0438034 -0.00200174 -1.34686e-23)
(0.0474169 -0.00191658 1.34892e-23)
(0.0508742 -0.00182314 -5.99678e-24)
(0.0541615 -0.00172415 3.40423e-25)
(0.0572698 -0.00162195 0)
(0.0601939 -0.00151861 8.2789e-26)
(0.0629325 -0.00141582 0)
(0.0654868 -0.00131503 0)
(0.0678609 -0.00121738 0)
(0.0700606 -0.00112377 -1.4781e-25)
(0.0720933 -0.00103487 0)
(0.0739677 -0.000951146 1.76918e-25)
(0.0756929 -0.000872876 -1.79124e-25)
(0.0772789 -0.000800184 1.75602e-25)
(0.0787356 -0.000733063 -1.50927e-24)
(0.0800729 -0.000671402 1.50052e-24)
(0.0813006 -0.000615003 9.84529e-25)
(0.0824278 -0.000563609 -2.00845e-24)
(0.0834635 -0.000516916 1.00949e-24)
(0.0844161 -0.000474595 9.95857e-26)
(0.0852931 -0.000436303 -8.43778e-26)
(0.0861017 -0.000401696 0)
(0.0868484 -0.000370437 -5.50697e-26)
(0.0875391 -0.000342204 1.8742e-25)
(0.0881792 -0.000316694 -1.7454e-25)
(0.0887733 -0.000293626 1.57947e-26)
(0.0893259 -0.000272745 -4.33931e-27)
(0.0898407 -0.000253818 6.81982e-27)
(0.0903213 -0.000236636 -3.7132e-26)
(0.0907707 -0.000221011 2.04029e-26)
(0.0911917 -0.000206773 -3.47875e-26)
(-0.000303482 0.000882509 -1.16541e-21)
(-0.000997854 0.00134632 -1.25684e-21)
(-0.00163364 0.00105621 1.23862e-21)
(-0.00189293 0.000350356 -5.71687e-22)
(-0.00163608 -0.00054924 5.73147e-22)
(-0.00082592 -0.00152552 8.58922e-24)
(0.000543133 -0.00248619 -1.65131e-23)
(0.00243991 -0.00338045 -4.7958e-22)
(0.00481407 -0.00417781 4.64835e-22)
(0.00760618 -0.00486063 -1.27951e-23)
(0.01075 -0.00542155 -1.14556e-23)
(0.0141773 -0.00586029 2.96767e-22)
(0.0178208 -0.00618136 -2.97162e-22)
(0.0216168 -0.00639253 -2.18687e-22)
(0.0255058 -0.00650368 3.53539e-23)
(0.0294342 -0.00652592 1.83869e-22)
(0.0333544 -0.00647087 -2.0981e-24)
(0.037225 -0.00635021 -3.57084e-24)
(0.0410113 -0.00617525 0)
(0.0446843 -0.00595669 0)
(0.0482211 -0.00570445 0)
(0.0516039 -0.0054275 -5.21732e-25)
(0.0548201 -0.00513388 1.73627e-23)
(0.0578612 -0.00483063 -1.90472e-23)
(0.0607226 -0.0045238 3.45514e-24)
(0.0634032 -0.00421852 -4.27471e-24)
(0.0659044 -0.00391905 3.30765e-24)
(0.0682302 -0.00362883 -2.57837e-24)
(0.0703864 -0.00335055 1.48191e-25)
(0.0723801 -0.0030862 2.7933e-25)
(0.0742198 -0.00283717 -1.77303e-25)
(0.0759144 -0.00260429 4.94754e-25)
(0.0774735 -0.00238795 -5.16862e-24)
(0.0789065 -0.00218812 1.05106e-23)
(0.0802232 -0.00200449 -4.90919e-24)
(0.0814328 -0.00183648 4.06052e-25)
(0.0825445 -0.00168333 -1.29963e-25)
(0.0835667 -0.00154414 0)
(0.0845075 -0.00141794 1.50558e-24)
(0.0853744 -0.00130373 -1.34202e-24)
(0.0861742 -0.00120048 -8.34396e-25)
(0.0869133 -0.00110718 1.1122e-24)
(0.0875973 -0.0010229 -4.12615e-26)
(0.0882315 -0.000946734 -8.83939e-26)
(0.0888206 -0.000877843 1.69265e-25)
(0.0893686 -0.00081547 4.18052e-27)
(0.0898795 -0.000758924 -7.88174e-26)
(0.0903566 -0.000707582 -6.16316e-26)
(0.0908029 -0.000660885 2.72681e-26)
(0.0912211 -0.000618322 9.74703e-26)
(-0.000398284 0.00133906 -1.23224e-21)
(-0.00105537 0.00196861 1.32573e-21)
(-0.00133015 0.00148802 -1.28607e-21)
(-0.00113515 0.000348906 -1.93678e-23)
(-0.000423621 -0.00108877 -6.23883e-25)
(0.000790751 -0.00264272 -1.1005e-21)
(0.00249985 -0.00417693 1.13666e-21)
(0.00465914 -0.00561033 9.84222e-22)
(0.00722154 -0.00689093 -6.98256e-23)
(0.0101332 -0.00798993 -1.67124e-21)
(0.0133354 -0.00889494 1.52205e-21)
(0.0167685 -0.00960465 -7.01225e-22)
(0.0203742 -0.0101255 -9.39469e-24)
(0.024097 -0.0104694 0)
(0.0278857 -0.0106517 3.99418e-22)
(0.0316934 -0.0106899 -7.22167e-23)
(0.0354788 -0.0106025 -3.21958e-22)
(0.0392058 -0.0104082 7.54747e-24)
(0.0428441 -0.0101252 0)
(0.0463685 -0.00977073 0)
(0.0497588 -0.00936089 4.87026e-23)
(0.0529998 -0.00891029 -4.73237e-23)
(0.0560806 -0.00843196 -2.2966e-23)
(0.0589938 -0.00793742 2.43164e-23)
(0.0617359 -0.00743658 4.35335e-25)
(0.0643061 -0.00693785 -2.29635e-25)
(0.0667062 -0.00644824 7.16642e-26)
(0.0689402 -0.00597341 4.88442e-24)
(0.0710134 -0.00551781 -4.93542e-24)
(0.0729329 -0.00508473 7.80512e-24)
(0.0747064 -0.00467649 -8.28291e-24)
(0.0763424 -0.00429449 -3.16519e-25)
(0.0778498 -0.00393939 -9.16467e-24)
(0.0792376 -0.00361121 1.75853e-23)
(0.0805147 -0.00330944 -9.01561e-24)
(0.0816899 -0.00303319 -3.9871e-24)
(0.0827715 -0.00278122 3.53009e-24)
(0.0837677 -0.00255211 0)
(0.0846859 -0.00234427 -3.03308e-26)
(0.0855332 -0.00215607 0)
(0.086316 -0.00198585 -1.64837e-24)
(0.0870402 -0.00183198 1.52889e-24)
(0.0877113 -0.00169292 -5.19306e-26)
(0.0883342 -0.00156718 -1.69046e-26)
(0.0889133 -0.00145343 -5.83336e-26)
(0.0894527 -0.0013504 -6.69512e-26)
(0.0899558 -0.00125696 1.11661e-25)
(0.090426 -0.00117211 -2.23201e-25)
(0.0908662 -0.0010949 1.40394e-25)
(0.0912788 -0.00102448 5.67477e-26)
(-0.000497086 0.00156274 -2.72562e-21)
(-0.00101919 0.00220663 0)
(-0.000735134 0.00153157 2.70798e-21)
(9.90227e-05 5.64435e-05 -5.35229e-21)
(0.00144941 -0.00183523 2.66331e-21)
(0.00321395 -0.00387682 1.14771e-21)
(0.00536983 -0.00589735 -1.20483e-21)
(0.00787184 -0.00778957 1.02855e-21)
(0.0106746 -0.00948572 -1.98579e-21)
(0.013732 -0.0109473 9.42104e-22)
(0.0169968 -0.0121561 1.29792e-23)
(0.0204219 -0.0131084 6.43329e-25)
(0.0239617 -0.0138109 9.55575e-24)
(0.0275725 -0.0142779 -5.14471e-22)
(0.0312136 -0.0145288 4.98774e-22)
(0.0348477 -0.014586 1.23644e-23)
(0.0384418 -0.0144736 -4.90313e-24)
(0.0419668 -0.0142162 2.43179e-22)
(0.0453982 -0.013838 -2.42813e-22)
(0.0487155 -0.0133621 -2.90235e-24)
(0.0519026 -0.01281 0)
(0.0549472 -0.0122014 3.15021e-25)
(0.0578405 -0.0115541 0)
(0.060577 -0.0108837 9.5893e-25)
(0.0631542 -0.0102038 2.27361e-25)
(0.0655719 -0.00952579 2.31807e-25)
(0.0678321 -0.00885938 -5.57417e-24)
(0.0699388 -0.00821238 5.66393e-24)
(0.0718971 -0.00759093 0)
(0.0737134 -0.00699962 5.18231e-24)
(0.075395 -0.00644169 -5.17447e-24)
(0.0769494 -0.00591914 0)
(0.0783848 -0.00543296 -8.68313e-26)
(0.0797093 -0.00498324 7.01267e-24)
(0.0809309 -0.00456938 -1.33539e-23)
(0.0820576 -0.00419019 1.23331e-23)
(0.0830971 -0.00384407 -1.11579e-23)
(0.0840565 -0.00352909 9.90761e-24)
(0.0849428 -0.00324316 -4.65253e-24)
(0.0857623 -0.00298405 -1.56861e-24)
(0.0865208 -0.00274954 1.40087e-24)
(0.087224 -0.00253743 4.67094e-26)
(0.0878766 -0.00234561 5.02969e-25)
(0.0884833 -0.00217208 -6.49781e-25)
(0.0890482 -0.002015 1.17142e-25)
(0.089575 -0.00187267 1.8425e-26)
(0.0900671 -0.00174353 3.26385e-26)
(0.0905274 -0.0016262 -1.47695e-26)
(0.0909587 -0.0015194 -6.73441e-26)
(0.0913634 -0.00142192 1.77418e-25)
(-0.000478223 0.00148694 -2.2221e-24)
(-0.000657823 0.00199662 -2.57592e-23)
(0.000383676 0.00113376 -2.45376e-23)
(0.00199432 -0.000607147 -2.34063e-23)
(0.00404762 -0.00283551 -4.3408e-23)
(0.00644213 -0.00523024 -9.15271e-25)
(0.00909822 -0.00761121 1.89016e-23)
(0.0119686 -0.00985541 -1.84051e-23)
(0.0150169 -0.0118814 -1.69973e-23)
(0.0182099 -0.01364 1.82818e-21)