/*--------------------------------*- C++ -*----------------------------------*\
| =========                 |                                                 |
| \\      /  F ield         | OpenFOAM: The Open Source CFD Toolbox           |
|  \\    /   O peration     | Version:  2412                                  |
|   \\  /    A nd           | Website:  www.openfoam.com                      |
|    \\/     M anipulation  |                                                 |
\*---------------------------------------------------------------------------*/
FoamFile
{
    version     2.0;
    format      ascii;
    arch        "LSB;label=32;scalar=64";
    class       volVectorField;
    location    "11.5";
    object      vorticity;
}
// * * * * * * * * * * * * * * * * * * * * * * * * * * * * * * * * * * * * * //

dimensions      [0 0 -1 0 0 0 0];

internalField   nonuniform List<vector> 
63420
(
(0 0 5.533e-06)
(0 0 6.00764e-06)
(0 0 1.07106e-05)
(0 0 1.93424e-05)
(0 0 2.60067e-05)
(0 0 2.38891e-05)
(0 0 1.10396e-05)
(0 0 -8.40837e-06)
(0 0 -2.75273e-05)
(0 0 -4.07321e-05)
(0 0 -4.58854e-05)
(0 0 -4.39907e-05)
(0 0 -3.76574e-05)
(0 0 -2.96048e-05)
(0 0 -2.18165e-05)
(0 0 -1.53457e-05)
(0 0 -1.05033e-05)
(0 0 -7.15767e-06)
(0 0 -4.99204e-06)
(0 0 -3.66685e-06)
(0 0 -2.89672e-06)
(0 0 -2.47182e-06)
(0 0 -2.25114e-06)
(0 0 -2.14607e-06)
(0 0 -2.10379e-06)
(0 0 -2.09416e-06)
(0 0 -2.10061e-06)
(0 0 -2.11433e-06)
(0 0 -2.13074e-06)
(0 0 -2.14751e-06)
(0 0 -2.16341e-06)
(0 0 -2.17781e-06)
(0 0 -2.19032e-06)
(0 0 -2.20074e-06)
(0 0 -2.20889e-06)
(0 0 -2.21465e-06)
(0 0 -2.2179e-06)
(0 0 -2.21853e-06)
(0 0 -2.21645e-06)
(0 0 -2.21153e-06)
(0 0 -2.20361e-06)
(0 0 -2.19249e-06)
(0 0 -2.17797e-06)
(0 0 -2.15981e-06)
(0 0 -2.13776e-06)
(0 0 -2.11154e-06)
(0 0 -2.08075e-06)
(0 0 -2.04482e-06)
(0 0 -2.00235e-06)
(0 0 -1.94905e-06)
(0 0 -1.87015e-06)
(0 0 -1.71501e-06)
(0 0 -1.31623e-06)
(0 0 -1.40614e-07)
(0 4.63551e-23 3.44642e-06)
(0 0 1.66107e-05)
(0 0 1.8014e-05)
(0 0 3.20002e-05)
(0 0 5.77397e-05)
(0 0 7.7735e-05)
(0 0 7.16876e-05)
(0 0 3.37131e-05)
(0 0 -2.39785e-05)
(0 0 -8.08211e-05)
(0 0 -0.00012019)
(0 0 -0.000135685)
(0 0 -0.000130242)
(0 0 -0.000111584)
(0 0 -8.77813e-05)
(0 0 -6.47265e-05)
(0 0 -4.55563e-05)
(0 0 -3.12018e-05)
(0 0 -2.12793e-05)
(0 0 -1.48534e-05)
(0 0 -1.09194e-05)
(0 0 -8.63209e-06)
(0 0 -7.36964e-06)
(0 0 -6.71406e-06)
(0 0 -6.40253e-06)
(0 0 -6.27836e-06)
(0 0 -6.25204e-06)
(0 0 -6.27422e-06)
(0 0 -6.31849e-06)
(0 0 -6.37106e-06)
(0 0 -6.42488e-06)
(0 0 -6.47637e-06)
(0 0 -6.52364e-06)
(0 0 -6.56559e-06)
(0 0 -6.6015e-06)
(0 0 -6.63089e-06)
(0 0 -6.6534e-06)
(0 0 -6.66874e-06)
(0 0 -6.67654e-06)
(0 0 -6.67641e-06)
(0 0 -6.66791e-06)
(0 0 -6.65059e-06)
(0 0 -6.62398e-06)
(0 0 -6.5875e-06)
(0 0 -6.54043e-06)
(0 0 -6.48196e-06)
(0 0 -6.41119e-06)
(0 0 -6.32703e-06)
(0 0 -6.22773e-06)
(0 0 -6.10926e-06)
(0 0 -5.95906e-06)
(0 0 -5.73422e-06)
(0 0 -5.28802e-06)
(0 0 -4.13448e-06)
(0 0 -7.22853e-07)
(0 4.68218e-23 9.70997e-06)
(0 0 2.77022e-05)
(0 0 2.99755e-05)
(0 0 5.29517e-05)
(0 0 9.54764e-05)
(0 0 0.000128941)
(0 0 0.000119889)
(0 0 5.83525e-05)
(0 0 -3.59005e-05)
(0 0 -0.000129209)
(0 0 -0.000194207)
(0 0 -0.000220219)
(0 0 -0.000211898)
(0 0 -0.000181814)
(0 0 -0.000143162)
(0 0 -0.000105614)
(0 0 -7.43381e-05)
(0 0 -5.08919e-05)
(0 0 -3.46707e-05)
(0 0 -2.41584e-05)
(0 0 -1.77184e-05)
(0 0 -1.39718e-05)
(0 0 -1.19026e-05)
(0 0 -1.08272e-05)
(0 0 -1.03159e-05)
(0 0 -1.01119e-05)
(0 0 -1.00686e-05)
(0 0 -1.01051e-05)
(0 0 -1.0178e-05)
(0 0 -1.02648e-05)
(0 0 -1.03538e-05)
(0 0 -1.04392e-05)
(0 0 -1.05178e-05)
(0 0 -1.05878e-05)
(0 0 -1.06481e-05)
(0 0 -1.06979e-05)
(0 0 -1.07367e-05)
(0 0 -1.07639e-05)
(0 0 -1.07789e-05)
(0 0 -1.0781e-05)
(0 0 -1.07697e-05)
(0 0 -1.07441e-05)
(0 0 -1.07034e-05)
(0 0 -1.06467e-05)
(0 0 -1.05729e-05)
(0 0 -1.04806e-05)
(0 0 -1.03684e-05)
(0 0 -1.02345e-05)
(0 0 -1.00761e-05)
(0 0 -9.8869e-06)
(0 0 -9.6474e-06)
(0 0 -9.29132e-06)
(0 0 -8.59125e-06)
(0 0 -6.79088e-06)
(0 0 -1.46601e-06)
(0 2.76385e-22 1.48604e-05)
(0 0 3.88151e-05)
(0 0 4.18647e-05)
(0 0 7.33602e-05)
(0 0 0.000132149)
(0 0 0.0001793)
(0 0 0.00016872)
(0 0 8.61211e-05)
(0 0 -4.19975e-05)
(0 0 -0.000169754)
(0 0 -0.000259516)
(0 0 -0.000296321)
(0 0 -0.000286196)
(0 0 -0.000246122)
(0 0 -0.000194065)
(0 0 -0.00014326)
(0 0 -0.000100832)
(0 0 -6.89682e-05)
(0 0 -4.68942e-05)
(0 0 -3.25736e-05)
(0 0 -2.37927e-05)
(0 0 -1.86796e-05)
(0 0 -1.58531e-05)
(0 0 -1.43826e-05)
(0 0 -1.3682e-05)
(0 0 -1.34014e-05)
(0 0 -1.33406e-05)
(0 0 -1.33891e-05)
(0 0 -1.34877e-05)
(0 0 -1.36056e-05)
(0 0 -1.37269e-05)
(0 0 -1.38434e-05)
(0 0 -1.39509e-05)
(0 0 -1.40469e-05)
(0 0 -1.413e-05)
(0 0 -1.41991e-05)
(0 0 -1.42535e-05)
(0 0 -1.42923e-05)
(0 0 -1.43147e-05)
(0 0 -1.43199e-05)
(0 0 -1.4307e-05)
(0 0 -1.42749e-05)
(0 0 -1.42226e-05)
(0 0 -1.41488e-05)
(0 0 -1.40519e-05)
(0 0 -1.39302e-05)
(0 0 -1.37818e-05)
(0 0 -1.36042e-05)
(0 0 -1.33938e-05)
(0 0 -1.31425e-05)
(0 0 -1.28261e-05)
(0 0 -1.23625e-05)
(0 0 -1.14683e-05)
(0 0 -9.196e-06)
(0 0 -2.4842e-06)
(0 -1.81484e-22 1.81826e-05)
(0 0 4.99551e-05)
(0 0 5.36573e-05)
(0 0 9.30496e-05)
(0 0 0.00016741)
(0 0 0.000228517)
(0 0 0.000218341)
(0 0 0.000117969)
(0 0 -4.04627e-05)
(0 0 -0.000199999)
(0 0 -0.000313378)
(0 0 -0.000361329)
(0 0 -0.000350809)
(0 0 -0.000302633)
(0 0 -0.00023907)
(0 0 -0.000176641)
(0 0 -0.000124315)
(0 0 -8.49219e-05)
(0 0 -5.7583e-05)
(0 0 -3.98214e-05)
(0 0 -2.8917e-05)
(0 0 -2.256e-05)
(0 0 -1.90413e-05)
(0 0 -1.72076e-05)
(0 0 -1.63316e-05)
(0 0 -1.59785e-05)
(0 0 -1.58993e-05)
(0 0 -1.59566e-05)
(0 0 -1.60769e-05)
(0 0 -1.62215e-05)
(0 0 -1.63709e-05)
(0 0 -1.65147e-05)
(0 0 -1.66477e-05)
(0 0 -1.67669e-05)
(0 0 -1.68704e-05)
(0 0 -1.69571e-05)
(0 0 -1.70258e-05)
(0 0 -1.70756e-05)
(0 0 -1.71056e-05)
(0 0 -1.71146e-05)
(0 0 -1.71015e-05)
(0 0 -1.70652e-05)
(0 0 -1.70043e-05)
(0 0 -1.6917e-05)
(0 0 -1.68017e-05)
(0 0 -1.66562e-05)
(0 0 -1.64781e-05)
(0 0 -1.62644e-05)
(0 0 -1.60109e-05)
(0 0 -1.57086e-05)
(0 0 -1.53313e-05)
(0 0 -1.47902e-05)
(0 0 -1.37796e-05)
(0 0 -1.12682e-05)
(0 0 -3.88334e-06)
(0 8.95949e-23 1.90226e-05)
(0 0 6.11254e-05)
(0 0 6.53334e-05)
(0 0 0.000111883)
(0 0 0.000200978)
(0 0 0.000276337)
(0 0 0.000268826)
(0 0 0.000154555)
(0 0 -2.9984e-05)
(0 0 -0.000218132)
(0 0 -0.000353749)
(0 0 -0.000413248)
(0 0 -0.000403982)
(0 0 -0.00034993)
(0 0 -0.000277106)
(0 0 -0.000204982)
(0 0 -0.000144242)
(0 0 -9.83729e-05)
(0 0 -6.64656e-05)
(0 0 -4.56979e-05)
(0 0 -3.29278e-05)
(0 0 -2.54717e-05)
(0 0 -2.13378e-05)
(0 0 -1.91786e-05)
(0 0 -1.8143e-05)
(0 0 -1.77217e-05)
(0 0 -1.76228e-05)
(0 0 -1.76849e-05)
(0 0 -1.78215e-05)
(0 0 -1.79875e-05)
(0 0 -1.81596e-05)
(0 0 -1.83258e-05)
(0 0 -1.84799e-05)
(0 0 -1.86183e-05)
(0 0 -1.87391e-05)
(0 0 -1.88407e-05)
(0 0 -1.89219e-05)
(0 0 -1.89816e-05)
(0 0 -1.90186e-05)
(0 0 -1.90317e-05)
(0 0 -1.90197e-05)
(0 0 -1.89811e-05)
(0 0 -1.89143e-05)
(0 0 -1.88175e-05)
(0 0 -1.86886e-05)
(0 0 -1.8525e-05)
(0 0 -1.83242e-05)
(0 0 -1.80826e-05)
(0 0 -1.77957e-05)
(0 0 -1.74544e-05)
(0 0 -1.70331e-05)
(0 0 -1.64473e-05)
(0 0 -1.54071e-05)
(0 0 -1.29319e-05)
(0 0 -5.76228e-06)
(0 4.42071e-22 1.67407e-05)
(0 0 7.23241e-05)
(0 0 7.68779e-05)
(0 0 0.000129766)
(0 0 0.000232656)
(0 0 0.000322551)
(0 0 0.000320145)
(0 0 0.000196204)
(0 0 -9.82719e-06)
(0 0 -0.000223087)
(0 0 -0.0003794)
(0 0 -0.000450857)
(0 0 -0.000444635)
(0 0 -0.000387139)
(0 0 -0.00030751)
(0 0 -0.000227804)
(0 0 -0.000160283)
(0 0 -0.000109093)
(0 0 -7.33834e-05)
(0 0 -5.0088e-05)
(0 0 -3.57356e-05)
(0 0 -2.73399e-05)
(0 0 -2.26751e-05)
(0 0 -2.02315e-05)
(0 0 -1.90536e-05)
(0 0 -1.85686e-05)
(0 0 -1.8448e-05)
(0 0 -1.85098e-05)
(0 0 -1.86567e-05)
(0 0 -1.88375e-05)
(0 0 -1.90259e-05)
(0 0 -1.92086e-05)
(0 0 -1.93783e-05)
(0 0 -1.95313e-05)
(0 0 -1.96651e-05)
(0 0 -1.97781e-05)
(0 0 -1.9869e-05)
(0 0 -1.99366e-05)
(0 0 -1.99794e-05)
(0 0 -1.99963e-05)
(0 0 -1.99857e-05)
(0 0 -1.99462e-05)
(0 0 -1.98759e-05)
(0 0 -1.97727e-05)
(0 0 -1.96343e-05)
(0 0 -1.94581e-05)
(0 0 -1.9241e-05)
(0 0 -1.89793e-05)
(0 0 -1.86683e-05)
(0 0 -1.82995e-05)
(0 0 -1.78505e-05)
(0 0 -1.72503e-05)
(0 0 -1.62629e-05)
(0 0 -1.41102e-05)
(0 0 -8.21554e-06)
(0 -8.65018e-23 1.05673e-05)
(-1.56887e-23 7.99476e-21 1.69982e-06)
(-1.50286e-22 7.86011e-21 1.10428e-06)
(3.48832e-23 -2.01467e-22 2.29028e-07)
(3.48638e-23 -2.34775e-20 -1.01294e-06)
(-9.47457e-23 8.02609e-21 -2.71619e-06)
(3.73999e-22 7.88372e-21 -4.98406e-06)
(-8.11254e-22 2.29787e-20 -7.92462e-06)
(3.16854e-22 -2.33581e-20 -1.16416e-05)
(6.39682e-22 -7.5128e-21 -1.62242e-05)
(-9.17389e-22 -3.77023e-24 -2.17322e-05)
(-9.1869e-22 -7.53368e-21 -2.81772e-05)
(8.05093e-22 7.15064e-21 -3.55048e-05)
(5.67509e-22 -5.89836e-20 -4.35814e-05)
(-1.04227e-21 1.26686e-19 -5.21896e-05)
(3.52683e-22 -6.81937e-20 -6.10375e-05)
(-1.26506e-21 -5.14258e-20 -6.97794e-05)
(2.39033e-21 -6.54735e-20 -7.80565e-05)
(-1.88595e-21 7.72991e-21 -8.55136e-05)
(-1.96739e-22 -7.20668e-21 -9.1873e-05)
(7.83721e-23 7.21598e-21 -9.69491e-05)
(-3.19968e-24 -1.30872e-22 -0.000100707)
(-7.39342e-23 -6.96558e-21 -0.000103273)
(-2.03843e-21 7.03242e-21 -0.000104939)
(4.27527e-21 1.31155e-23 -0.000106144)
(1.25332e-21 6.83603e-21 -0.000107449)
(-3.33035e-21 -5.41622e-24 -0.000109491)
(4.79874e-21 7.96719e-21 -0.000112951)
(-5.56018e-21 1.03292e-19 -0.000118517)
(6.31016e-22 -1.10936e-19 -0.000126868)
(-2.10446e-21 1.01523e-19 -0.000138673)
(2.04852e-21 -1.02688e-19 -0.00015463)
(4.93146e-23 1.36365e-21 -0.000175555)
(-6.42745e-23 -1.67639e-21 -0.000202542)
(2.74708e-21 -9.75688e-20 -0.000237285)
(-8.74313e-21 9.47155e-20 -0.00028265)
(-3.25894e-22 -1.57579e-21 -0.000343714)
(6.32392e-21 1.3831e-23 -0.000429599)
(6.88645e-21 1.50614e-23 -0.000556595)
(-6.86442e-21 -1.50132e-23 -0.000753244)
(-2.27943e-22 -4.98534e-25 -0.00106817)
(-2.37957e-22 -5.20436e-25 -0.0015813)
(-8.20624e-21 -1.79479e-23 -0.00241865)
(7.92097e-21 1.7324e-23 -0.00376929)
(-2.62127e-22 1.5618e-22 -0.00590132)
(-2.55486e-23 8.08684e-21 -0.00917012)
(-2.54227e-20 5.23697e-20 -0.0140092)
(2.44837e-20 -6.90328e-20 -0.0208894)
(-5.7669e-21 -9.87814e-21 -0.030231)
(6.33873e-21 2.69048e-20 -0.0422608)
(-2.10739e-20 -5.88399e-21 -0.056725)
(-2.6187e-22 8.00906e-21 4.78696e-06)
(-1.01468e-22 1.57537e-20 2.94761e-06)
(3.16703e-22 7.66301e-21 2.2701e-07)
(-8.9457e-22 -7.874e-21 -3.63319e-06)
(1.65973e-21 7.50704e-21 -8.91248e-06)
(-5.30008e-22 -5.38192e-20 -1.59117e-05)
(-1.90074e-22 8.54885e-20 -2.49449e-05)
(-6.02728e-23 -8.93357e-21 -3.632e-05)
(2.18162e-21 -9.84726e-20 -5.03055e-05)
(-2.25053e-21 1.391e-19 -6.70837e-05)
(-7.87713e-22 1.27081e-19 -8.66973e-05)
(5.74961e-22 -1.14383e-19 -0.000108996)
(-4.00571e-22 7.51638e-22 -0.000133597)
(2.85421e-21 -7.28423e-21 -0.00015987)
(-2.21066e-21 2.42788e-20 -0.000186962)
(-5.92089e-21 2.40853e-19 -0.000213873)
(1.49125e-21 -2.26615e-19 -0.000239535)
(-5.51295e-21 2.42894e-19 -0.000262965)
(-2.8166e-22 1.96316e-20 -0.000283328)
(-3.91015e-21 -7.37774e-21 -0.000300108)
(4.1287e-21 1.4768e-22 -0.000313209)
(-4.13454e-21 9.20069e-21 -0.000323021)
(1.30394e-21 2.11494e-19 -0.00033043)
(5.46347e-21 -4.48172e-19 -0.000336766)
(4.26351e-21 -2.14313e-19 -0.000343714)
(-6.52271e-21 4.33781e-19 -0.0003532)
(3.04331e-21 -4.33241e-19 -0.000367278)
(-1.3228e-21 4.44602e-19 -0.000388034)
(3.34911e-21 1.42368e-21 -0.000417535)
(-3.78382e-21 -9.9142e-23 -0.000457844)
(-1.27135e-21 -2.78057e-24 -0.000511127)
(0 0 -0.000579911)
(1.88098e-22 9.76341e-23 -0.000667598)
(1.12611e-20 1.25667e-20 -0.000779415)
(-1.52308e-20 3.65915e-19 -0.000924161)
(-1.6059e-20 -2.42288e-20 -0.00111736)
(1.81163e-20 -3.61443e-19 -0.00138684)
(2.62454e-20 -3.13056e-19 -0.00178221)
(-8.66366e-21 3.34541e-19 -0.00239026)
(-3.18762e-20 2.20064e-21 -0.0033587)
(3.12454e-20 1.77675e-20 -0.00493008)
(-4.23559e-20 2.40217e-19 -0.00748612)
(2.25282e-20 -2.49934e-19 -0.0115989)
(-1.85354e-20 1.50744e-20 -0.0180783)
(2.05775e-20 7.9934e-21 -0.0279969)
(-6.14258e-20 1.17119e-19 -0.0426619)
(6.13637e-20 -1.14622e-19 -0.0634893)
(-9.51298e-20 8.59853e-20 -0.0917233)
(9.1795e-20 -9.5998e-20 -0.127973)
(-1.94408e-20 -6.60602e-22 -0.170045)
(-1.48583e-23 4.74319e-20 7.6822e-06)
(-8.04269e-23 1.49875e-20 4.41359e-06)
(3.54603e-22 -6.2122e-20 -4.77613e-07)
(-7.42919e-22 1.2363e-19 -7.40559e-06)
(1.64924e-21 -2.64755e-19 -1.6807e-05)
(4.79915e-22 1.25949e-19 -2.91542e-05)
(-2.50628e-21 -8.92035e-22 -4.49493e-05)
(1.59052e-21 -1.71596e-20 -6.46948e-05)
(1.32698e-21 -2.58541e-19 -8.88387e-05)
(9.46468e-22 2.46441e-19 -0.000117698)
(-8.78935e-22 -1.66749e-21 -0.000151372)
(-4.31005e-21 -1.59102e-23 -0.000189649)
(6.843e-21 -1.89431e-21 -0.000231951)
(-4.30093e-21 -2.52495e-19 -0.000277303)
(5.50879e-21 2.29614e-19 -0.000324372)
(-1.11823e-20 4.56267e-19 -0.000371584)
(-5.02677e-21 -1.23205e-20 -0.000417282)
(-4.25587e-21 4.69661e-19 -0.000459911)
(4.0237e-22 -1.42629e-20 -0.000498199)
(-1.19493e-20 4.56603e-19 -0.000531373)
(1.18388e-20 -4.74288e-19 -0.000559336)
(-8.5516e-21 4.53417e-19 -0.000582796)
(1.57536e-21 -4.71691e-19 -0.00060327)
(5.31736e-21 -9.3467e-21 -0.000623007)
(-2.61916e-21 1.38426e-20 -0.000644842)
(5.6357e-21 -8.86135e-21 -0.000672024)
(-1.82345e-20 4.26507e-19 -0.000708035)
(1.62579e-20 -4.54786e-19 -0.000756444)
(1.77097e-20 -4.23048e-19 -0.000820834)
(-1.43639e-20 4.25184e-19 -0.000904828)
(-1.10953e-21 -5.29701e-21 -0.00101228)
(1.14932e-20 -1.24396e-22 -0.00114771)
(-1.32006e-20 -2.53001e-20 -0.00131719)
(5.19382e-20 -7.76691e-19 -0.00152993)
(1.70392e-20 5.6682e-20 -0.00180124)
(-6.93837e-20 7.32276e-19 -0.00215793)
(4.06949e-21 -1.26702e-20 -0.00264779)
(-1.17214e-20 -5.10033e-21 -0.00335577)
(1.10278e-19 -6.17929e-19 -0.00443022)
(-2.04968e-19 1.2149e-18 -0.00612316)
(2.09333e-19 -1.20961e-18 -0.00884762)
(7.38783e-20 8.67075e-20 -0.0132523)
(-1.59475e-19 5.31281e-19 -0.0203074)
(-1.68638e-19 3.67947e-19 -0.0313846)
(1.59159e-19 -4.36381e-19 -0.0482992)
(-2.30778e-20 2.01873e-20 -0.0732657)
(5.70361e-20 -1.80269e-20 -0.108683)
(1.71473e-19 -1.06712e-19 -0.156616)
(-1.85584e-19 1.6643e-19 -0.217886)
(-2.63137e-20 -4.26068e-20 -0.28409)
(3.94161e-22 -3.12747e-20 1.01353e-05)
(-3.66533e-22 1.58234e-20 4.9901e-06)
(7.13709e-22 -1.76723e-22 -2.78263e-06)
(-6.45801e-22 -1.55688e-20 -1.36872e-05)
(-9.94969e-22 -1.48752e-21 -2.82552e-05)
(3.22546e-21 -2.44401e-19 -4.70867e-05)
(-4.4355e-21 4.62999e-19 -7.08478e-05)
(2.14081e-21 -2.49388e-19 -0.000100228)
(-1.86147e-21 1.50404e-20 -0.000135865)
(4.72033e-21 -2.73139e-19 -0.000178235)
(-5.7713e-21 2.49387e-19 -0.000227534)
(-3.69719e-21 4.75919e-19 -0.000283561)
(1.00023e-20 -9.63303e-19 -0.000345625)
(-1.21884e-20 9.62588e-19 -0.000412519)
(1.64562e-20 -9.58367e-19 -0.000482565)
(-1.03047e-20 9.50313e-19 -0.000553765)
(-9.46351e-21 4.83219e-19 -0.00062402)
(-7.1908e-22 -3.87554e-21 -0.000691376)
(4.63521e-21 4.02178e-21 -0.000754268)
(-6.88382e-21 4.46541e-19 -0.000811795)
(-3.00644e-21 -4.69106e-19 -0.000863994)
(1.52023e-20 1.30989e-20 -0.000911986)
(-3.21051e-20 9.0186e-19 -0.000957996)
(2.3755e-20 -9.05128e-19 -0.00100526)
(2.29713e-21 -5.28106e-21 -0.00105784)
(-1.0032e-20 -9.09265e-23 -0.00112041)
(1.51785e-20 -1.37091e-20 -0.001198)
(-4.94982e-21 1.26929e-22 -0.00129586)
(-5.45096e-21 -6.28677e-23 -0.00141936)
(5.17718e-21 2.01334e-22 -0.001574)
(-3.77229e-21 1.32802e-21 -0.00176578)
(6.1505e-20 -8.05077e-19 -0.00200174)
(-5.54394e-20 8.28228e-19 -0.00229124)
(-1.64983e-20 1.09007e-22 -0.00264824)
(1.91731e-20 -1.03979e-20 -0.00309551)
(-9.79797e-20 7.42296e-19 -0.00367236)
(1.15188e-19 -7.45807e-19 -0.0044483)
(-2.35064e-20 2.33836e-21 -0.00554635)
(1.65898e-20 -8.70225e-23 -0.0071809)
(3.94424e-20 6.75522e-21 -0.00971569)
(-2.52297e-19 5.60878e-19 -0.0137461)
(3.72388e-19 -1.13851e-18 -0.0202062)
(-1.8183e-19 5.77479e-19 -0.0304917)
(2.67971e-19 -4.43742e-19 -0.0465772)
(-2.59054e-19 5.23164e-19 -0.0710871)
(-6.10032e-19 5.4185e-19 -0.107251)
(1.15379e-18 -1.14973e-18 -0.158618)
(-5.66103e-19 5.81335e-19 -0.228243)
(1.95913e-20 -2.29965e-21 -0.31697)
(4.74291e-21 -3.64344e-20 -0.402244)
(-7.46232e-22 1.59071e-20 1.17441e-05)
(-2.33662e-22 6.08642e-20 3.71854e-06)
(1.8823e-21 -1.84892e-19 -8.33114e-06)
(-1.14415e-21 2.48203e-19 -2.48132e-05)
(-3.69407e-22 -1.09954e-19 -4.62551e-05)
(1.03006e-22 -1.46775e-20 -7.33453e-05)
(-4.74224e-22 1.54976e-20 -0.000106906)
(3.11751e-21 -1.92333e-22 -0.000147826)
(-2.98335e-21 -1.51481e-20 -0.000196958)
(-5.36538e-21 3.40659e-20 -0.000254984)
(-6.56284e-21 4.84062e-19 -0.000322265)
(1.83316e-20 -5.03198e-19 -0.0003987)
(-2.2733e-20 4.69648e-19 -0.000483616)
(1.87938e-20 -4.88611e-19 -0.000575726)
(-3.09242e-21 3.49604e-21 -0.000673191)
(1.12919e-20 4.87406e-23 -0.000773797)
(4.29801e-21 3.81819e-21 -0.000875223)
(-4.37704e-21 4.57019e-19 -0.000975338)
(1.96846e-20 -4.9471e-19 -0.0010725)
(6.54372e-21 2.73992e-20 -0.00116589)
(-4.42272e-20 9.43521e-19 -0.00125588)
(2.71534e-20 -9.46499e-19 -0.00134415)
(1.04906e-20 2.30056e-20 -0.00143379)
(-1.85277e-20 -2.39485e-22 -0.00152918)
(1.21235e-20 9.89307e-21 -0.00163577)
(-3.61712e-20 9.094e-19 -0.00175987)
(2.93023e-20 -9.01119e-19 -0.00190836)
(2.91251e-21 9.87765e-21 -0.00208855)
(9.92635e-21 2.76558e-20 -0.00230804)
(-1.18193e-20 -5.6442e-22 -0.00257488)
(1.15165e-21 -1.32465e-20 -0.00289793)
(-3.82834e-20 1.34607e-20 -0.00328766)
(3.61508e-20 1.28368e-20 -0.00375775)
(-3.29197e-21 -2.5869e-20 -0.00432805)
(8.0286e-20 -7.54949e-19 -0.00503004)
(-7.0928e-20 7.78082e-19 -0.00591696)
(2.67627e-19 -1.50078e-18 -0.00708171)
(-2.44438e-19 1.51541e-18 -0.00868768)
(3.05772e-19 -1.42205e-18 -0.0110191)
(7.43888e-20 1.33898e-19 -0.0145582)
(-3.53219e-19 1.35669e-18 -0.0200952)
(-1.25135e-19 -2.30084e-20 -0.0288714)
(1.70202e-20 3.89019e-22 -0.0427469)
(-1.90856e-20 5.71564e-22 -0.064369)
(5.63312e-20 1.72095e-21 -0.0973036)
(2.72368e-20 1.40958e-20 -0.146067)
(-1.17642e-19 5.33851e-21 -0.215888)
(6.6974e-20 5.18954e-21 -0.311661)
(-1.72054e-22 -3.22995e-22 -0.434777)
(3.74829e-20 6.67486e-22 -0.535251)
(-6.49225e-22 7.66266e-20 1.18601e-05)
(1.65252e-21 -4.67421e-20 -1.31284e-06)
(-1.73753e-21 -1.65085e-20 -2.01737e-05)
(4.55524e-21 -2.29033e-19 -4.47612e-05)
(-2.09889e-21 2.30954e-19 -7.55692e-05)
(1.81994e-21 -2.28562e-19 -0.000113406)
(-1.06886e-20 5.04082e-19 -0.000159296)
(1.10352e-20 -7.06202e-19 -0.000214374)
(-7.071e-21 4.99593e-19 -0.000279761)
(-5.41688e-21 4.86957e-19 -0.000356412)
(-2.20516e-21 3.85763e-21 -0.000444949)
(2.36725e-20 -9.56867e-19 -0.000545494)
(-2.03573e-20 9.96245e-19 -0.000657549)
(4.49959e-21 -4.6894e-19 -0.000779948)
(1.15244e-20 -4.71244e-19 -0.000910926)
(2.19551e-20 -4.63862e-19 -0.00104832)
(-3.09677e-21 6.92072e-21 -0.00118986)
(3.71814e-20 -9.62244e-19 -0.00133354)
(2.78778e-20 -9.24179e-19 -0.00147792)
(6.52433e-21 2.13183e-20 -0.00162259)
(-2.45243e-20 9.60381e-19 -0.00176847)
(-2.06629e-20 -8.29687e-21 -0.00191811)
(1.26146e-20 9.18219e-21 -0.00207571)
(-4.8366e-20 9.31454e-19 -0.00224706)
(3.86494e-20 -9.46584e-19 -0.00243936)
(7.06356e-20 -9.09721e-19 -0.00266094)
(-7.18892e-20 9.40086e-19 -0.00292106)
(1.5469e-20 -2.05429e-20 -0.00322974)
(6.49269e-20 -9.08795e-19 -0.00359768)
(-9.34006e-20 9.32257e-19 -0.00403648)
(4.49106e-21 1.26975e-20 -0.0045591)
(-2.02922e-19 1.71071e-18 -0.00518087)
(1.82411e-19 -1.77535e-18 -0.00592137)
(4.99459e-20 6.36807e-20 -0.00680798)
(-2.63885e-19 1.62348e-18 -0.00788247)
(2.40839e-19 -1.69332e-18 -0.00921318)
(-3.25832e-20 -3.47853e-21 -0.010917)
(4.73869e-19 -1.53118e-18 -0.0131976)
(-4.4283e-19 1.58189e-18 -0.0164085)
(-6.87018e-20 -7.48381e-20 -0.0211506)
(6.88858e-19 -1.34159e-18 -0.0284141)
(-1.21029e-18 2.7707e-18 -0.0397643)
(-7.04583e-20 -1.57787e-19 -0.0575651)
(-9.44837e-20 -1.23333e-19 -0.0852202)
(7.90188e-19 -1.21237e-18 -0.127416)
(4.10591e-20 6.54629e-20 -0.190381)
(-9.03916e-19 8.09617e-19 -0.282167)
(8.86316e-19 -8.90238e-19 -0.41238)
(1.00611e-20 3.00909e-20 -0.587819)
(9.8308e-21 -2.86665e-21 -0.709459)
(6.08128e-22 -1.59805e-20 9.59219e-06)
(1.55046e-21 -1.36142e-19 -1.41572e-05)
(-1.69544e-21 1.22819e-19 -4.36723e-05)
(-1.33263e-21 -1.73457e-20 -7.94316e-05)
(5.16346e-21 -2.27652e-19 -0.000122241)
(-4.73817e-21 2.34289e-19 -0.000173175)
(-5.25423e-21 4.73182e-19 -0.000233518)
(-5.25785e-21 -1.95411e-20 -0.000304673)
(2.31038e-21 -4.57539e-21 -0.000388036)
(1.4037e-20 -5.04745e-19 -0.000484844)
(-1.12514e-20 4.72469e-19 -0.00059599)
(1.6362e-20 -9.99833e-19 -0.000721858)
(-3.22853e-21 4.99986e-19 -0.00086219)
(-3.78806e-21 -1.88882e-20 -0.00101603)
(-5.04275e-21 -2.26604e-20 -0.00118177)
(2.6788e-20 -9.82132e-19 -0.00135743)
(-1.47288e-21 -2.00398e-20 -0.00154088)
(2.53623e-20 -1.00068e-18 -0.00173027)
(-5.60125e-21 -7.63261e-21 -0.00192438)
(-1.72506e-22 1.22679e-22 -0.00212308)
(1.17656e-20 8.66868e-21 -0.00232766)
(-5.04137e-20 9.64391e-19 -0.00254116)
(4.45028e-20 -9.85375e-19 -0.00276835)
(1.31265e-20 8.57067e-21 -0.0030157)
(-9.01591e-21 -1.51189e-20 -0.00329112)
(-6.34044e-21 1.01785e-20 -0.00360372)
(-7.10957e-20 9.33178e-19 -0.00396342)
(1.53367e-19 -1.90488e-18 -0.00438078)
(-7.2346e-20 9.94206e-19 -0.00486673)
(-1.86077e-19 1.84391e-18 -0.00543259)
(-3.10079e-20 -4.5115e-20 -0.0060903)
(2.97659e-21 -2.55162e-20 -0.00685303)
(-6.7724e-20 -5.3605e-20 -0.00773663)
(2.53888e-19 -1.84735e-18 -0.00876261)
(3.97265e-19 -1.71233e-18 -0.00996417)
(-3.53171e-19 1.79796e-18 -0.0113982)
(-3.50413e-20 -5.66847e-20 -0.0131683)
(4.72849e-19 -1.64261e-18 -0.0154658)
(-4.15141e-19 1.7408e-18 -0.0186418)
(-6.74632e-19 1.54914e-18 -0.0233225)
(5.71109e-19 -1.63694e-18 -0.0305834)
(8.09484e-20 -1.16429e-20 -0.0421899)
(8.87746e-19 -1.45431e-18 -0.0609005)
(1.29104e-19 1.22968e-19 -0.0908158)
(-1.03092e-18 1.42804e-18 -0.13777)
(-1.69514e-20 -4.11776e-20 -0.209835)
(3.48603e-20 5.46716e-22 -0.318681)
(-3.56024e-20 1.58871e-20 -0.484661)
(-5.36035e-19 5.61263e-19 -0.7468)
(5.27436e-19 -5.70412e-19 -1.03056)
(-1.03232e-20 -2.98051e-21 0.00899018)
(-9.85921e-21 -2.56766e-22 0.00200046)
(9.22923e-21 9.1633e-21 -0.00379298)
(-7.47269e-21 -4.2207e-22 -0.00847102)
(7.96129e-21 -8.29245e-21 -0.0121315)
(-6.97386e-23 2.9863e-21 -0.0148805)
(-1.46013e-22 -8.49799e-23 -0.0168283)
(-4.37257e-21 9.56324e-24 -0.0180843)
(4.24605e-21 -9.28653e-24 -0.0187501)
(-1.17096e-22 2.561e-25 -0.0189222)
(-1.05033e-22 2.29719e-25 -0.0186912)
(2.72609e-21 -5.96223e-24 -0.0181398)
(-2.73485e-21 5.98139e-24 -0.0173423)
(-2.01642e-21 4.41011e-24 -0.0163642)
(3.41358e-22 -3.65125e-22 -0.0152624)
(4.7486e-21 3.80782e-20 -0.0140856)
(-2.78183e-21 -3.48863e-20 -0.0128741)
(-1.99639e-23 -3.44503e-22 -0.011661)
(-4.86457e-24 1.34516e-22 -0.0104727)
(-2.58379e-21 -5.74988e-20 -0.00932964)
(2.59668e-21 5.74061e-20 -0.00824713)
(-1.96715e-21 -6.21455e-20 -0.00723587)
(3.72338e-22 4.2493e-21 -0.0063029)
(-1.79082e-22 2.96919e-24 -0.00545158)
(2.68575e-22 4.80112e-21 -0.00468331)
(-3.68755e-23 9.16164e-25 -0.00399686)
(3.12644e-23 -6.83783e-26 -0.00338972)
(-2.44568e-23 1.5296e-24 -0.00285797)
(1.82161e-22 5.62281e-21 -0.00239657)
(2.73478e-24 -3.25093e-24 -0.00199979)
(-1.5588e-22 -5.95556e-21 -0.00166153)
(1.46654e-22 6.10754e-21 -0.00137553)
(-1.80204e-22 -6.23385e-21 -0.00113555)
(6.6258e-22 5.77589e-20 -0.000935626)
(-5.99371e-22 -5.80259e-20 -0.000770096)
(-2.67875e-22 -4.65641e-20 -0.000633756)
(6.21157e-22 1.00632e-19 -0.0005219)
(-3.42593e-22 -5.41614e-20 -0.000430354)
(-6.39672e-23 -6.89489e-21 -0.000355485)
(5.91147e-23 6.99289e-21 -0.000294181)
(-8.10179e-24 -2.7616e-25 -0.000243824)
(7.21961e-23 7.14702e-21 -0.000202245)
(-1.64357e-22 -3.6199e-20 -0.000167671)
(1.59079e-22 3.63319e-20 -0.000138676)
(-4.69993e-23 -7.35521e-21 -0.000114122)
(8.89411e-23 2.22841e-20 -9.31108e-05)
(-2.51869e-24 -7.42719e-21 -7.49314e-05)
(-5.90623e-23 -1.50765e-20 -5.90088e-05)
(1.95838e-23 7.5631e-21 -4.48553e-05)
(-3.32203e-23 -7.63457e-21 -3.20523e-05)
(-1.50218e-20 2.42583e-20 0.0257986)
(2.56876e-20 -1.09676e-20 0.00492228)
(-1.99913e-20 -1.97201e-20 -0.0123988)
(8.91618e-22 1.50886e-20 -0.0262604)
(-1.43683e-21 -1.43204e-20 -0.0370082)
(-1.09363e-20 5.83079e-21 -0.0450062)
(9.29994e-21 4.58613e-21 -0.0506076)
(-9.52309e-21 -2.33611e-20 -0.0541534)
(1.87166e-20 1.33501e-20 -0.0559566)
(-1.72287e-20 3.4361e-21 -0.0563123)
(1.34919e-20 -5.01979e-21 -0.0554928)
(2.30776e-20 8.27003e-20 -0.0537447)
(-3.08123e-20 -7.48248e-20 -0.0512887)
(-3.18308e-20 -1.21285e-19 -0.0483183)
(3.90479e-21 -2.36339e-20 -0.0450009)
(3.16497e-20 1.38399e-19 -0.0414778)
(-3.27238e-21 -6.97681e-22 -0.0378668)
(-1.24888e-21 -6.04393e-21 -0.0342633)
(3.99873e-24 -3.56303e-23 -0.0307433)
(1.25411e-22 -2.74286e-25 -0.027365)
(3.34587e-22 3.59519e-24 -0.0241717)
(-6.63517e-22 -4.23697e-21 -0.0211934)
(2.37515e-20 2.73652e-19 -0.0184492)
(-2.61891e-20 -2.96294e-19 -0.0159485)
(2.20914e-20 3.11884e-19 -0.0136937)
(-1.19534e-20 -1.52085e-19 -0.0116814)
(-2.00897e-20 -3.37469e-19 -0.00990313)
(9.7299e-21 1.72158e-19 -0.00834665)
(-2.23644e-22 -5.67058e-21 -0.00699689)
(-5.83824e-22 -1.16938e-20 -0.00583681)
(7.17704e-23 5.97297e-21 -0.00484829)
(-7.03078e-22 -1.83741e-20 -0.00401281)
(5.45838e-21 1.96088e-19 -0.00331205)
(-1.13096e-20 -4.15691e-19 -0.00272838)
(5.01834e-21 2.00364e-19 -0.00224524)
(-5.41904e-22 -1.99428e-20 -0.00184735)
(1.45028e-22 6.72845e-21 -0.00152094)
(-9.01722e-24 -1.62768e-23 -0.0012538)
(-2.01394e-21 -1.18122e-19 -0.00103532)
(1.71343e-21 1.04436e-19 -0.000856407)
(1.23911e-21 9.95287e-20 -0.000709423)
(-1.80593e-21 -1.35398e-19 -0.000588036)
(5.35998e-23 7.23017e-21 -0.00048708)
(3.44452e-22 3.6618e-20 -0.000402394)
(-7.48975e-22 -6.59533e-20 -0.000330666)
(-4.57648e-23 -7.40349e-21 -0.000269275)
(-4.52008e-22 -5.23312e-20 -0.000216148)
(-1.0262e-22 -7.67955e-21 -0.000169595)
(1.22703e-22 1.50269e-20 -0.00012815)
(1.42179e-22 2.28182e-20 -9.04536e-05)
(-1.46246e-20 -8.08469e-22 0.0388292)
(-6.49133e-21 -1.16192e-20 0.00430527)
(2.81363e-20 2.50627e-20 -0.0242857)
(-4.21908e-20 -1.22828e-20 -0.0467405)
(1.72098e-20 1.0374e-20 -0.0638236)
(-1.97552e-20 -2.75935e-20 -0.0762924)
(2.84724e-20 -3.81899e-21 -0.0848047)
(7.47915e-20 7.24033e-20 -0.0899693)
(-1.63289e-20 5.55465e-20 -0.0923371)
(-1.46362e-19 -2.20862e-19 -0.092409)
(1.82427e-19 2.63473e-19 -0.090637)
(-9.80267e-20 -1.34414e-19 -0.0874264)
(2.51024e-21 -1.04974e-20 -0.0831353)
(-2.04367e-21 -4.03936e-21 -0.078075)
(1.14815e-19 3.08506e-19 -0.0725114)
(-5.30881e-21 4.05474e-20 -0.0666677)
(-1.06399e-19 -3.37495e-19 -0.0607273)
(6.3058e-21 9.36848e-21 -0.0548377)
(-2.35689e-21 8.75837e-23 -0.0491146)
(5.76611e-23 -4.83156e-22 -0.043646)
(4.67384e-20 2.63834e-19 -0.0384955)
(-4.52955e-20 -2.54326e-19 -0.0337073)
(-4.1012e-20 -2.87477e-19 -0.0293065)
(4.33634e-20 3.05207e-19 -0.0253065)
(1.35374e-21 1.02981e-20 -0.021707)
(-1.28639e-21 -1.04654e-20 -0.0185004)
(1.15828e-21 1.08077e-20 -0.0156713)
(-2.84922e-20 -3.50605e-19 -0.0131986)
(2.97527e-20 3.62307e-19 -0.0110568)
(-2.36174e-20 -3.59035e-19 -0.00921812)
(2.52781e-20 3.83288e-19 -0.00765281)
(5.55697e-22 1.23743e-20 -0.00633094)
(1.94679e-20 4.0852e-19 -0.00522303)
(-3.70378e-20 -8.12591e-19 -0.00430082)
(1.83854e-20 4.30089e-19 -0.00353783)
(8.12014e-21 2.27993e-19 -0.00290972)
(-7.16696e-21 -2.0156e-19 -0.0023946)
(9.44109e-23 3.4822e-23 -0.00197308)
(-2.0993e-22 -3.54032e-23 -0.00162834)
(-3.34752e-24 1.60774e-23 -0.00134599)
(4.91405e-21 2.27837e-19 -0.00111396)
(-4.79274e-21 -2.1388e-19 -0.000922248)
(3.3737e-22 1.44785e-20 -0.000762719)
(-1.06628e-22 -2.06843e-23 -0.000628816)
(1.75794e-21 1.17823e-19 -0.000515327)
(-3.31288e-21 -2.21875e-19 -0.000418131)
(1.64661e-21 1.18824e-19 -0.000333956)
(-8.27489e-22 -6.01354e-20 -0.000260112)
(6.16992e-22 4.50493e-20 -0.000194156)
(1.49805e-22 1.51004e-20 -0.000133487)
(1.66356e-21 2.68435e-20 0.0441214)
(8.75964e-21 -5.3558e-20 -0.00327164)
(-2.59453e-20 4.63479e-20 -0.0423503)
(-2.62767e-22 -9.00973e-21 -0.0721616)
(4.19591e-20 -4.75755e-20 -0.0941641)
(4.5169e-20 8.14485e-20 -0.109682)
(-6.24023e-20 -4.44085e-20 -0.119817)
(7.70079e-20 1.03867e-19 -0.12549)
(-1.96e-19 -2.23301e-19 -0.127504)
(1.46516e-19 1.06683e-19 -0.12656)
(-1.75432e-20 1.25103e-20 -0.123281)
(-9.36674e-21 7.57463e-22 -0.118214)
(1.31819e-20 8.60785e-21 -0.111835)
(-1.63415e-19 -3.15054e-19 -0.104553)
(1.50058e-19 2.95608e-19 -0.096712)
(-9.39486e-22 1.63841e-20 -0.0885981)
(1.7325e-21 -8.30609e-21 -0.0804424)
(1.45828e-19 4.57658e-19 -0.0724283)
(-1.4674e-19 -4.52595e-19 -0.0646974)
(-1.79764e-21 -1.05617e-20 -0.0573549)
(-4.60536e-22 -2.92073e-23 -0.0504753)
(9.32909e-22 3.49289e-22 -0.0441069)
(2.22704e-22 -7.53866e-24 -0.0382776)
(1.147e-21 1.00432e-20 -0.0329961)
(1.03522e-21 2.60564e-22 -0.0282585)
(1.3366e-21 1.06615e-20 -0.0240493)
(-9.04824e-20 -7.31232e-19 -0.0203445)
(8.95987e-20 7.20647e-19 -0.0171132)
(1.6178e-23 4.68619e-24 -0.01432)
(-3.49295e-20 -3.90072e-19 -0.0119259)
(3.64623e-20 4.02905e-19 -0.00989102)
(4.4601e-23 -5.03646e-23 -0.0081749)
(-1.75093e-22 -1.67652e-22 -0.00673827)
(-2.59429e-20 -4.34117e-19 -0.0055437)
(4.89842e-20 8.62256e-19 -0.00455627)
(-4.40354e-20 -8.6126e-19 -0.00374401)
(4.06258e-20 8.72657e-19 -0.00307824)
(-3.71888e-20 -8.8314e-19 -0.00253367)
(1.76669e-20 4.44233e-19 -0.00208838)
(7.51907e-21 2.26444e-19 -0.00172367)
(-6.62103e-21 -1.98169e-19 -0.00142388)
(-4.89632e-22 -1.43579e-20 -0.00117609)
(-5.84176e-21 -2.32148e-19 -0.000969776)
(1.21792e-20 4.95274e-19 -0.000796479)
(-5.60752e-21 -2.33977e-19 -0.000649492)
(8.10063e-23 2.38303e-23 -0.000523517)
(2.55461e-22 1.48408e-20 -0.000414331)
(-8.01782e-23 -1.80564e-23 -0.00031841)
(-2.13866e-22 -1.50049e-20 -0.000232343)
(4.68085e-22 3.01702e-20 -0.000151858)
(2.73784e-20 8.75215e-23 0.0370806)
(1.56106e-22 2.39168e-22 -0.0225172)
(-6.08361e-20 8.15387e-23 -0.0704347)
(8.76181e-20 -8.83869e-22 -0.105257)
(-2.72155e-20 -1.51856e-21 -0.129782)
(-3.99409e-20 -1.01324e-21 -0.14619)
(1.48241e-20 1.31516e-21 -0.156101)
(-9.81032e-21 -2.03364e-21 -0.160766)
(7.38734e-20 -2.13864e-20 -0.161218)
(2.72341e-19 4.25333e-19 -0.158337)
(8.62533e-21 9.87212e-20 -0.152879)
(-3.15296e-19 -5.16457e-19 -0.1455)
(3.54875e-19 6.35879e-19 -0.136759)
(-3.68307e-19 -6.31576e-19 -0.12713)