/*--------------------------------*- C++ -*----------------------------------*\
| =========                 |                                                 |
| \\      /  F ield         | OpenFOAM: The Open Source CFD Toolbox           |
|  \\    /   O peration     | Version:  2412                                  |
|   \\  /    A nd           | Website:  www.openfoam.com                      |
|    \\/     M anipulation  |                                                 |
\*---------------------------------------------------------------------------*/
FoamFile
{
    version     2.0;
    format      ascii;
    arch        "LSB;label=32;scalar=64";
    class       volVectorField;
    location    "22.5";
    object      vorticity;
}
// * * * * * * * * * * * * * * * * * * * * * * * * * * * * * * * * * * * * * //

dimensions      [0 0 -1 0 0 0 0];

internalField   nonuniform List<vector> 
5285
(
(0 -0 7.57365e-07)
(0 -0 4.65116e-07)
(0 -0 3.10088e-07)
(0 -0 2.39462e-07)
(0 -0 2.16469e-07)
(0 -0 2.17279e-07)
(0 -0 2.28226e-07)
(0 -0 2.42091e-07)
(0 -0 2.55409e-07)
(0 -0 2.66726e-07)
(0 -0 2.75603e-07)
(0 -0 2.82043e-07)
(0 -0 2.86225e-07)
(0 -0 2.88329e-07)
(0 -0 2.88455e-07)
(0 -0 2.86649e-07)
(0 -0 2.82939e-07)
(0 -0 2.77424e-07)
(0 -0 2.70366e-07)
(0 -0 2.62164e-07)
(0 -0 2.53293e-07)
(0 -0 2.4412e-07)
(0 -0 2.34735e-07)
(0 -0 2.24968e-07)
(0 -0 2.14533e-07)
(0 -0 2.03312e-07)
(0 -0 1.91631e-07)
(0 -0 1.80243e-07)
(0 -0 1.69985e-07)
(0 -0 1.61213e-07)
(0 -0 1.53407e-07)
(0 -0 1.45408e-07)
(0 -0 1.36004e-07)
(0 -0 1.24614e-07)
(0 -0 1.11664e-07)
(0 -0 9.83156e-08)
(0 -0 8.5782e-08)
(0 -0 7.48618e-08)
(0 -0 6.56903e-08)
(0 -0 5.76895e-08)
(0 -0 4.99785e-08)
(0 -0 4.16858e-08)
(0 -0 3.25224e-08)
(0 -0 2.28743e-08)
(0 -0 1.35622e-08)
(0 -0 5.28195e-09)
(0 -0 -2.31381e-09)
(0 -0 -9.40278e-09)
(0 -0 -1.73151e-08)
(0 -0 -2.5355e-08)
(0 -0 -3.48614e-08)
(0 -0 -4.39058e-08)
(0 -0 -5.43032e-08)
(0 -0 -6.17478e-08)
(0 -0 -7.14618e-08)
(0 -0 -7.8176e-08)
(0 -0 -9.03214e-08)
(0 -0 -9.67802e-08)
(0 -0 -1.1102e-07)
(0 -0 -1.18139e-07)
(0 -0 -1.33684e-07)
(0 -0 -1.42289e-07)
(0 -0 -1.52448e-07)
(0 -0 -2.04516e-07)
(0 -0 -7.14459e-08)
(0 -0 -5.36279e-07)
(0 -0 4.5422e-07)
(0 -0 -1.22051e-06)
(0 -0 3.15335e-07)
(0 -0 4.16749e-08)
(0 -0 -7.15196e-07)
(0 -0 2.07853e-06)
(0 -0 1.23307e-06)
(0 -0 7.89336e-07)
(0 -0 5.96977e-07)
(0 -0 5.42561e-07)
(0 -0 5.56957e-07)
(0 -0 6.00015e-07)
(0 -0 6.50288e-07)
(0 -0 6.97309e-07)
(0 -0 7.36668e-07)
(0 -0 7.67077e-07)
(0 -0 7.88657e-07)
(0 -0 8.02213e-07)
(0 -0 8.0873e-07)
(0 -0 8.08984e-07)
(0 -0 8.0371e-07)
(0 -0 7.93515e-07)
(0 -0 7.78936e-07)
(0 -0 7.60735e-07)
(0 -0 7.39598e-07)
(0 -0 7.16309e-07)
(0 -0 6.91495e-07)
(0 -0 6.65366e-07)
(0 -0 6.38016e-07)
(0 -0 6.09267e-07)
(0 -0 5.79203e-07)
(0 -0 5.4831e-07)
(0 -0 5.17428e-07)
(0 -0 4.87495e-07)
(0 -0 4.58962e-07)
(0 -0 4.31378e-07)
(0 -0 4.03739e-07)
(0 -0 3.74994e-07)
(0 -0 3.44425e-07)
(0 -0 3.12573e-07)
(0 -0 2.80354e-07)
(0 -0 2.49056e-07)
(0 -0 2.19466e-07)
(0 -0 1.91867e-07)
(0 -0 1.65789e-07)
(0 -0 1.40265e-07)
(0 -0 1.14518e-07)
(0 -0 8.82021e-08)
(0 -0 6.16368e-08)
(0 -0 3.54084e-08)
(0 -0 1.03711e-08)
(0 -0 -1.43549e-08)
(0 -0 -3.7978e-08)
(0 -0 -6.29235e-08)
(0 -0 -8.67799e-08)
(0 -0 -1.13488e-07)
(0 -0 -1.37443e-07)
(0 -0 -1.65897e-07)
(0 -0 -1.87321e-07)
(0 -0 -2.17204e-07)
(0 -0 -2.37321e-07)
(0 -0 -2.73407e-07)
(0 -0 -2.9305e-07)
(0 -0 -3.35895e-07)
(0 -0 -3.56281e-07)
(0 -0 -4.04825e-07)
(0 -0 -4.32607e-07)
(0 -0 -4.62172e-07)
(0 -0 -6.1798e-07)
(0 -0 -2.27061e-07)
(0 -0 -1.60482e-06)
(0 -0 1.33982e-06)
(0 -0 -3.6293e-06)
(0 -0 9.29674e-07)
(0 -0 1.12177e-07)
(0 -0 -2.12957e-06)
(0 -0 3.34615e-06)
(0 -0 1.96508e-06)
(0 -0 1.25227e-06)
(0 -0 9.45831e-07)
(0 -0 8.63516e-07)
(0 -0 8.92708e-07)
(0 -0 9.68021e-07)
(0 -0 1.05441e-06)
(0 -0 1.13475e-06)
(0 -0 1.20184e-06)
(0 -0 1.25362e-06)
(0 -0 1.29028e-06)
(0 -0 1.31332e-06)
(0 -0 1.32449e-06)
(0 -0 1.32518e-06)
(0 -0 1.31686e-06)
(0 -0 1.30069e-06)
(0 -0 1.2776e-06)
(0 -0 1.24889e-06)
(0 -0 1.21549e-06)
(0 -0 1.17849e-06)
(0 -0 1.1388e-06)
(0 -0 1.0967e-06)
(0 -0 1.05256e-06)
(0 -0 1.00633e-06)
(0 -0 9.58253e-07)
(0 -0 9.08997e-07)
(0 -0 8.59474e-07)
(0 -0 8.107e-07)
(0 -0 7.63207e-07)
(0 -0 7.16684e-07)
(0 -0 6.70201e-07)
(0 -0 6.22904e-07)
(0 -0 5.74006e-07)
(0 -0 5.24037e-07)
(0 -0 4.73795e-07)
(0 -0 4.24496e-07)
(0 -0 3.77039e-07)
(0 -0 3.3178e-07)
(0 -0 2.88347e-07)
(0 -0 2.45751e-07)
(0 -0 2.0328e-07)
(0 -0 1.60506e-07)
(0 -0 1.1774e-07)
(0 -0 7.53315e-08)
(0 -0 3.41894e-08)
(0 -0 -6.93957e-09)
(0 -0 -4.64576e-08)
(0 -0 -8.77576e-08)
(0 -0 -1.26775e-07)
(0 -0 -1.69946e-07)
(0 -0 -2.08167e-07)
(0 -0 -2.53907e-07)
(0 -0 -2.88721e-07)
(0 -0 -3.38e-07)
(0 -0 -3.70925e-07)
(0 -0 -4.29996e-07)
(0 -0 -4.62194e-07)
(0 -0 -5.32591e-07)
(0 -0 -5.65547e-07)
(0 -0 -6.45849e-07)
(0 -0 -6.91854e-07)
(0 -0 -7.4022e-07)
(0 -0 -9.94859e-07)
(0 -0 -3.5887e-07)
(0 -0 -2.6053e-06)
(0 -0 2.19698e-06)
(0 -0 -5.90138e-06)
(0 -0 1.5206e-06)
(0 -0 2.01179e-07)
(0 -0 -3.45747e-06)
(0 -0 4.49986e-06)
(0 -0 2.63871e-06)
(0 -0 1.67846e-06)
(0 -0 1.27026e-06)
(0 -0 1.16582e-06)
(0 -0 1.21205e-06)
(0 -0 1.3201e-06)
(0 -0 1.44236e-06)
(0 -0 1.55571e-06)
(0 -0 1.65038e-06)
(0 -0 1.7235e-06)
(0 -0 1.77556e-06)
(0 -0 1.8086e-06)
(0 -0 1.82502e-06)
(0 -0 1.82703e-06)
(0 -0 1.81665e-06)
(0 -0 1.79553e-06)
(0 -0 1.7652e-06)
(0 -0 1.72724e-06)
(0 -0 1.68297e-06)
(0 -0 1.63376e-06)
(0 -0 1.58062e-06)
(0 -0 1.52413e-06)
(0 -0 1.46474e-06)
(0 -0 1.4026e-06)
(0 -0 1.33813e-06)
(0 -0 1.27209e-06)
(0 -0 1.2055e-06)
(0 -0 1.13945e-06)
(0 -0 1.07455e-06)
(0 -0 1.01058e-06)
(0 -0 9.46821e-07)
(0 -0 8.82439e-07)
(0 -0 8.16738e-07)
(0 -0 7.50119e-07)
(0 -0 6.83282e-07)
(0 -0 6.17427e-07)
(0 -0 5.53455e-07)
(0 -0 4.91867e-07)
(0 -0 4.32387e-07)
(0 -0 3.7402e-07)
(0 -0 3.16112e-07)
(0 -0 2.58128e-07)
(0 -0 2.00455e-07)
(0 -0 1.42977e-07)
(0 -0 8.69087e-08)
(0 -0 3.04792e-08)
(0 -0 -2.37378e-08)
(0 -0 -8.01994e-08)
(0 -0 -1.33149e-07)
(0 -0 -1.91732e-07)
(0 -0 -2.43114e-07)
(0 -0 -3.05056e-07)
(0 -0 -3.52097e-07)
(0 -0 -4.19642e-07)
(0 -0 -4.6409e-07)
(0 -0 -5.45093e-07)
(0 -0 -5.88411e-07)
(0 -0 -6.85131e-07)
(0 -0 -7.28879e-07)
(0 -0 -8.39884e-07)
(0 -0 -9.01664e-07)
(0 -0 -9.69014e-07)
(0 -0 -1.31337e-06)
(0 -0 -4.54498e-07)
(0 -0 -3.4969e-06)
(0 -0 3.0057e-06)
(0 -0 -7.95396e-06)
(0 -0 2.07046e-06)
(0 -0 3.18298e-07)
(0 -0 -4.64851e-06)
(0 -0 5.54175e-06)
(0 -0 3.25372e-06)
(0 -0 2.07714e-06)
(0 -0 1.58295e-06)
(0 -0 1.46311e-06)
(0 -0 1.52821e-06)
(0 -0 1.66851e-06)
(0 -0 1.82536e-06)
(0 -0 1.97028e-06)
(0 -0 2.09129e-06)
(0 -0 2.18492e-06)
(0 -0 2.25187e-06)
(0 -0 2.2947e-06)
(0 -0 2.31651e-06)
(0 -0 2.32019e-06)
(0 -0 2.30832e-06)
(0 -0 2.28309e-06)
(0 -0 2.24649e-06)
(0 -0 2.2004e-06)
(0 -0 2.14652e-06)
(0 -0 2.08641e-06)
(0 -0 2.02127e-06)
(0 -0 1.9519e-06)
(0 -0 1.87882e-06)
(0 -0 1.8024e-06)
(0 -0 1.72319e-06)
(0 -0 1.64206e-06)
(0 -0 1.56013e-06)
(0 -0 1.47852e-06)
(0 -0 1.3979e-06)
(0 -0 1.31822e-06)
(0 -0 1.23887e-06)
(0 -0 1.15908e-06)
(0 -0 1.07827e-06)
(0 -0 9.96654e-07)
(0 -0 9.14927e-07)
(0 -0 8.34153e-07)
(0 -0 7.55325e-07)
(0 -0 6.79033e-07)
(0 -0 6.05078e-07)
(0 -0 5.32508e-07)
(0 -0 4.60707e-07)
(0 -0 3.8902e-07)
(0 -0 3.17931e-07)
(0 -0 2.46912e-07)
(0 -0 1.77379e-07)
(0 -0 1.07187e-07)
(0 -0 3.97102e-08)
(0 -0 -3.04304e-08)
(0 -0 -9.59075e-08)
(0 -0 -1.68365e-07)
(0 -0 -2.31512e-07)
(0 -0 -3.08073e-07)
(0 -0 -3.66002e-07)
(0 -0 -4.50168e-07)
(0 -0 -5.04771e-07)
(0 -0 -6.05775e-07)
(0 -0 -6.58719e-07)
(0 -0 -7.79582e-07)
(0 -0 -8.32504e-07)
(0 -0 -9.71681e-07)
(0 -0 -1.04701e-06)
(0 -0 -1.13223e-06)
(0 -0 -1.5555e-06)
(0 -0 -5.01474e-07)
(0 -0 -4.24425e-06)
(0 -0 3.75042e-06)
(0 -0 -9.7143e-06)
(0 -0 2.56695e-06)
(0 -0 4.73306e-07)
(0 -0 -5.65557e-06)
(0 -0 6.44615e-06)
(0 -0 3.79752e-06)
(0 -0 2.44196e-06)
(0 -0 1.88041e-06)
(0 -0 1.75262e-06)
(0 -0 1.83821e-06)
(0 -0 2.00971e-06)
(0 -0 2.19915e-06)
(0 -0 2.37356e-06)
(0 -0 2.51915e-06)
(0 -0 2.63198e-06)
(0 -0 2.71298e-06)
(0 -0 2.76523e-06)
(0 -0 2.79244e-06)
(0 -0 2.79816e-06)
(0 -0 2.78547e-06)
(0 -0 2.75707e-06)
(0 -0 2.71535e-06)
(0 -0 2.66251e-06)
(0 -0 2.60053e-06)
(0 -0 2.53118e-06)
(0 -0 2.45582e-06)
(0 -0 2.37541e-06)
(0 -0 2.29061e-06)
(0 -0 2.20193e-06)
(0 -0 2.11007e-06)
(0 -0 2.01598e-06)
(0 -0 1.92084e-06)
(0 -0 1.82581e-06)
(0 -0 1.73163e-06)
(0 -0 1.63838e-06)
(0 -0 1.54557e-06)
(0 -0 1.4525e-06)
(0 -0 1.35868e-06)
(0 -0 1.26417e-06)
(0 -0 1.16961e-06)
(0 -0 1.076e-06)
(0 -0 9.8436e-07)
(0 -0 8.9537e-07)
(0 -0 8.08918e-07)
(0 -0 7.24085e-07)
(0 -0 6.40289e-07)
(0 -0 5.56785e-07)
(0 -0 4.74112e-07)
(0 -0 3.91403e-07)
(0 -0 3.10246e-07)
(0 -0 2.28142e-07)
(0 -0 1.49213e-07)
(0 -0 6.72155e-08)
(0 -0 -9.06225e-09)
(0 -0 -9.35505e-08)
(0 -0 -1.66745e-07)
(0 -0 -2.56068e-07)
(0 -0 -3.23192e-07)
(0 -0 -4.22054e-07)
(0 -0 -4.8503e-07)
(0 -0 -6.03915e-07)
(0 -0 -6.64435e-07)
(0 -0 -8.07141e-07)
(0 -0 -8.66898e-07)
(0 -0 -1.03173e-06)
(0 -0 -1.11736e-06)
(0 -0 -1.21982e-06)
(0 -0 -1.70831e-06)
(0 -0 -4.93383e-07)
(0 -0 -4.82062e-06)
(0 -0 4.41419e-06)
(0 -0 -1.11253e-05)
(0 -0 2.99482e-06)
(0 -0 6.71067e-07)
(0 -0 -6.44455e-06)
(0 -0 7.20301e-06)
(0 -0 4.27432e-06)
(0 -0 2.78159e-06)
(0 -0 2.17301e-06)
(0 -0 2.04476e-06)
(0 -0 2.15173e-06)
(0 -0 2.35239e-06)
(0 -0 2.57134e-06)
(0 -0 2.77214e-06)
(0 -0 2.93962e-06)
(0 -0 3.0695e-06)
(0 -0 3.16294e-06)
(0 -0 3.22353e-06)
(0 -0 3.25557e-06)
(0 -0 3.26315e-06)
(0 -0 3.24986e-06)
(0 -0 3.21883e-06)
(0 -0 3.1728e-06)
(0 -0 3.11426e-06)
(0 -0 3.04545e-06)
(0 -0 2.9683e-06)
(0 -0 2.88432e-06)
(0 -0 2.7946e-06)
(0 -0 2.69992e-06)
(0 -0 2.60095e-06)
(0 -0 2.49846e-06)
(0 -0 2.3935e-06)
(0 -0 2.28728e-06)
(0 -0 2.18101e-06)
(0 -0 2.07547e-06)
(0 -0 1.97084e-06)
(0 -0 1.86676e-06)
(0 -0 1.76263e-06)
(0 -0 1.65795e-06)
(0 -0 1.55274e-06)
(0 -0 1.44754e-06)
(0 -0 1.34327e-06)
(0 -0 1.241e-06)
(0 -0 1.14146e-06)
(0 -0 1.04463e-06)
(0 -0 9.49616e-07)
(0 -0 8.55878e-07)
(0 -0 7.62596e-07)
(0 -0 6.70338e-07)
(0 -0 5.77955e-07)
(0 -0 4.87189e-07)
(0 -0 3.95212e-07)
(0 -0 3.06825e-07)
(0 -0 2.14996e-07)
(0 -0 1.29838e-07)
(0 -0 3.53732e-08)
(0 -0 -4.59801e-08)
(0 -0 -1.45956e-07)
(0 -0 -2.20427e-07)
(0 -0 -3.3173e-07)
(0 -0 -4.01183e-07)
(0 -0 -5.35381e-07)
(0 -0 -6.01396e-07)
(0 -0 -7.63006e-07)
(0 -0 -8.27331e-07)
(0 -0 -1.01446e-06)
(0 -0 -1.10728e-06)
(0 -0 -1.22552e-06)
(0 -0 -1.76446e-06)
(0 -0 -4.26339e-07)
(0 -0 -5.20817e-06)
(0 -0 4.98389e-06)
(0 -0 -1.21463e-05)
(0 -0 3.34254e-06)
(0 -0 9.14761e-07)
(0 -0 -6.99423e-06)
(0 -0 7.795e-06)
(0 -0 4.67372e-06)
(0 -0 3.09152e-06)
(0 -0 2.45781e-06)
(0 -0 2.33807e-06)
(0 -0 2.46845e-06)
(0 -0 2.697e-06)
(0 -0 2.94296e-06)
(0 -0 3.16748e-06)
(0 -0 3.35446e-06)
(0 -0 3.49945e-06)
(0 -0 3.6039e-06)
(0 -0 3.67188e-06)
(0 -0 3.70823e-06)
(0 -0 3.71756e-06)
(0 -0 3.70394e-06)
(0 -0 3.67084e-06)
(0 -0 3.62134e-06)
(0 -0 3.55819e-06)
(0 -0 3.48383e-06)
(0 -0 3.40033e-06)
(0 -0 3.30935e-06)
(0 -0 3.21208e-06)
(0 -0 3.10942e-06)
(0 -0 3.00213e-06)
(0 -0 2.89108e-06)
(0 -0 2.77737e-06)
(0 -0 2.66226e-06)
(0 -0 2.54695e-06)
(0 -0 2.43227e-06)
(0 -0 2.3185e-06)
(0 -0 2.20538e-06)
(0 -0 2.0924e-06)
(0 -0 1.9791e-06)
(0 -0 1.8654e-06)
(0 -0 1.75179e-06)
(0 -0 1.6391e-06)
(0 -0 1.52841e-06)
(0 -0 1.4205e-06)
(0 -0 1.31545e-06)
(0 -0 1.21237e-06)
(0 -0 1.11079e-06)
(0 -0 1.0098e-06)
(0 -0 9.10006e-07)
(0 -0 8.09998e-07)
(0 -0 7.11683e-07)
(0 -0 6.11886e-07)
(0 -0 5.16085e-07)
(0 -0 4.16447e-07)
(0 -0 3.24417e-07)
(0 -0 2.22006e-07)
(0 -0 1.34488e-07)
(0 -0 2.5917e-08)
(0 -0 -5.39374e-08)
(0 -0 -1.75488e-07)
(0 -0 -2.49391e-07)
(0 -0 -3.96375e-07)
(0 -0 -4.65702e-07)
(0 -0 -6.43269e-07)
(0 -0 -7.09828e-07)
(0 -0 -9.15816e-07)
(0 -0 -1.01268e-06)
(0 -0 -1.14529e-06)
(0 -0 -1.7193e-06)
(0 -0 -2.97453e-07)
(0 -0 -5.39888e-06)
(0 -0 5.4565e-06)
(0 -0 -1.27607e-05)
(0 -0 3.60323e-06)
(0 -0 1.21261e-06)
(0 -0 -7.30431e-06)
(0 -0 8.20563e-06)
(0 -0 4.97992e-06)
(0 -0 3.35686e-06)
(0 -0 2.72044e-06)
(0 -0 2.61787e-06)
(0 -0 2.7733e-06)
(0 -0 3.02823e-06)
(0 -0 3.29862e-06)
(0 -0 3.54423e-06)
(0 -0 3.74844e-06)
(0 -0 3.90685e-06)
(0 -0 4.02121e-06)
(0 -0 4.096e-06)
(0 -0 4.13653e-06)
(0 -0 4.14791e-06)
(0 -0 4.13457e-06)
(0 -0 4.10036e-06)
(0 -0 4.04861e-06)
(0 -0 3.98229e-06)
(0 -0 3.90402e-06)
(0 -0 3.816e-06)
(0 -0 3.71998e-06)
(0 -0 3.61726e-06)
(0 -0 3.50881e-06)
(0 -0 3.3955e-06)
(0 -0 3.27827e-06)
(0 -0 3.15825e-06)
(0 -0 3.03671e-06)
(0 -0 2.91484e-06)
(0 -0 2.79352e-06)
(0 -0 2.6731e-06)
(0 -0 2.55343e-06)
(0 -0 2.43408e-06)
(0 -0 2.31461e-06)
(0 -0 2.1949e-06)
(0 -0 2.07533e-06)
(0 -0 1.95668e-06)
(0 -0 1.84001e-06)
(0 -0 1.72614e-06)
(0 -0 1.61522e-06)
(0 -0 1.50641e-06)
(0 -0 1.39926e-06)
(0 -0 1.29283e-06)
(0 -0 1.18774e-06)
(0 -0 1.08236e-06)
(0 -0 9.78711e-07)
(0 -0 8.73381e-07)
(0 -0 7.7233e-07)
(0 -0 6.6717e-07)
(0 -0 5.70349e-07)
(0 -0 4.62327e-07)
(0 -0 3.70654e-07)
(0 -0 2.55887e-07)
(0 -0 1.72604e-07)
(0 -0 4.33547e-08)
(0 -0 -3.29396e-08)
(0 -0 -1.8987e-07)
(0 -0 -2.60186e-07)
(0 -0 -4.50549e-07)
(0 -0 -5.16711e-07)
(0 -0 -7.38006e-07)
(0 -0 -8.35379e-07)
(0 -0 -9.80772e-07)
(0 -0 -1.57369e-06)
(0 -0 -1.09734e-07)
(0 -0 -5.38631e-06)
(0 -0 5.81542e-06)
(0 -0 -1.29435e-05)
(0 -0 3.76046e-06)
(0 -0 1.55871e-06)
(0 -0 -7.36464e-06)
(0 -0 8.41874e-06)
(0 -0 5.17569e-06)
(0 -0 3.55919e-06)
(0 -0 2.94345e-06)
(0 -0 2.8668e-06)
(0 -0 3.04859e-06)
(0 -0 3.32787e-06)
(0 -0 3.61955e-06)
(0 -0 3.88305e-06)
(0 -0 4.10178e-06)
(0 -0 4.27154e-06)
(0 -0 4.39438e-06)
(0 -0 4.47517e-06)
(0 -0 4.51963e-06)
(0 -0 4.53325e-06)
(0 -0 4.52085e-06)
(0 -0 4.4865e-06)
(0 -0 4.4338e-06)
(0 -0 4.36588e-06)
(0 -0 4.28548e-06)
(0 -0 4.1949e-06)
(0 -0 4.09599e-06)
(0 -0 3.9901e-06)
(0 -0 3.87828e-06)
(0 -0 3.76146e-06)
(0 -0 3.64063e-06)
(0 -0 3.51696e-06)
(0 -0 3.39169e-06)
(0 -0 3.266e-06)
(0 -0 3.14079e-06)
(0 -0 3.01647e-06)
(0 -0 2.89298e-06)
(0 -0 2.76998e-06)
(0 -0 2.64702e-06)
(0 -0 2.52396e-06)
(0 -0 2.40111e-06)
(0 -0 2.27917e-06)
(0 -0 2.15917e-06)
(0 -0 2.04198e-06)
(0 -0 1.92776e-06)
(0 -0 1.81575e-06)
(0 -0 1.70552e-06)
(0 -0 1.59612e-06)
(0 -0 1.48815e-06)
(0 -0 1.37985e-06)
(0 -0 1.27329e-06)
(0 -0 1.16489e-06)
(0 -0 1.061e-06)
(0 -0 9.52759e-07)
(0 -0 8.53474e-07)
(0 -0 7.4229e-07)
(0 -0 6.48728e-07)
(0 -0 5.30269e-07)
(0 -0 4.45788e-07)
(0 -0 3.11518e-07)
(0 -0 2.35156e-07)
(0 -0 7.12965e-08)
(0 -0 2.54383e-09)
(0 -0 -1.97195e-07)
(0 -0 -2.60132e-07)
(0 -0 -4.92859e-07)
(0 -0 -5.86929e-07)
(0 -0 -7.43437e-07)
(0 -0 -1.3378e-06)
(0 -0 1.23915e-07)
(0 -0 -5.17458e-06)
(0 -0 6.03935e-06)
(0 -0 -1.26886e-05)
(0 -0 3.79738e-06)
(0 -0 1.9387e-06)
(0 -0 -7.16733e-06)
(0 -0 8.44029e-06)
(0 -0 5.25521e-06)
(0 -0 3.68758e-06)
(0 -0 3.11338e-06)
(0 -0 3.07063e-06)
(0 -0 3.28002e-06)
(0 -0 3.58182e-06)
(0 -0 3.89194e-06)
(0 -0 4.17049e-06)
(0 -0 4.40137e-06)
(0 -0 4.58072e-06)
(0 -0 4.71088e-06)
(0 -0 4.79707e-06)
(0 -0 4.8454e-06)
(0 -0 4.86166e-06)
(0 -0 4.85094e-06)
(0 -0 4.81755e-06)
(0 -0 4.76526e-06)
(0 -0 4.69733e-06)
(0 -0 4.61661e-06)
(0 -0 4.52547e-06)
(0 -0 4.4258e-06)
(0 -0 4.31901e-06)
(0 -0 4.20619e-06)
(0 -0 4.08832e-06)
(0 -0 3.96645e-06)
(0 -0 3.84171e-06)
(0 -0 3.71535e-06)
(0 -0 3.58849e-06)
(0 -0 3.46205e-06)
(0 -0 3.33649e-06)
(0 -0 3.21183e-06)
(0 -0 3.08777e-06)
(0 -0 2.96392e-06)
(0 -0 2.84009e-06)
(0 -0 2.71653e-06)
(0 -0 2.59386e-06)
(0 -0 2.47309e-06)
(0 -0 2.35507e-06)
(0 -0 2.24003e-06)
(0 -0 2.12725e-06)
(0 -0 2.01632e-06)
(0 -0 1.90629e-06)
(0 -0 1.79777e-06)
(0 -0 1.68888e-06)
(0 -0 1.58172e-06)
(0 -0 1.4726e-06)
(0 -0 1.36817e-06)
(0 -0 1.25917e-06)
(0 -0 1.15965e-06)
(0 -0 1.04762e-06)
(0 -0 9.54346e-07)
(0 -0 8.34543e-07)
(0 -0 7.51016e-07)
(0 -0 6.14229e-07)
(0 -0 5.40062e-07)
(0 -0 3.72073e-07)
(0 -0 3.07381e-07)
(0 -0 1.01421e-07)
(0 -0 4.44959e-08)
(0 -0 -1.96106e-07)
(0 -0 -2.83152e-07)
(0 -0 -4.49273e-07)
(0 -0 -1.02854e-06)
(0 -0 3.89147e-07)
(0 -0 -4.78683e-06)
(0 -0 6.1242e-06)
(0 -0 -1.20322e-05)
(0 -0 3.70818e-06)
(0 -0 2.34043e-06)
(0 -0 -6.73634e-06)
(0 -0 8.27566e-06)
(0 -0 5.21694e-06)
(0 -0 3.73528e-06)
(0 -0 3.22059e-06)
(0 -0 3.21854e-06)
(0 -0 3.45643e-06)
(0 -0 3.77902e-06)
(0 -0 4.10498e-06)
(0 -0 4.39605e-06)
(0 -0 4.63698e-06)
(0 -0 4.82437e-06)
(0 -0 4.96088e-06)
(0 -0 5.05203e-06)
(0 -0 5.10423e-06)
(0 -0 5.12355e-06)
(0 -0 5.11527e-06)
(0 -0 5.08389e-06)
(0 -0 5.0333e-06)
(0 -0 4.96689e-06)
(0 -0 4.88754e-06)
(0 -0 4.79769e-06)
(0 -0 4.69923e-06)
(0 -0 4.59363e-06)
(0 -0 4.48201e-06)
(0 -0 4.36539e-06)
(0 -0 4.2448e-06)
(0 -0 4.12139e-06)
(0 -0 3.99634e-06)
(0 -0 3.87077e-06)
(0 -0 3.74555e-06)
(0 -0 3.62119e-06)
(0 -0 3.49777e-06)
(0 -0 3.37505e-06)
(0 -0 3.25267e-06)
(0 -0 3.13042e-06)
(0 -0 3.00848e-06)
(0 -0 2.88743e-06)
(0 -0 2.76822e-06)
(0 -0 2.65168e-06)
(0 -0 2.53808e-06)
(0 -0 2.42673e-06)
(0 -0 2.31729e-06)
(0 -0 2.20878e-06)
(0 -0 2.10182e-06)
(0 -0 1.99445e-06)
(0 -0 1.88883e-06)
(0 -0 1.78113e-06)
(0 -0 1.67825e-06)
(0 -0 1.57061e-06)
(0 -0 1.4729e-06)
(0 -0 1.36212e-06)
(0 -0 1.27113e-06)
(0 -0 1.1521e-06)
(0 -0 1.07151e-06)
(0 -0 9.34469e-07)
(0 -0 8.64594e-07)
(0 -0 6.94995e-07)
(0 -0 6.36679e-07)
(0 -0 4.2734e-07)
(0 -0 3.79003e-07)
(0 -0 1.33742e-07)
(0 -0 5.71157e-08)
(0 -0 -1.17203e-07)
(0 -0 -6.66498e-07)
(0 -0 6.69614e-07)
(0 -0 -4.25344e-06)
(0 -0 6.06991e-06)
(0 -0 -1.10257e-05)
(0 -0 3.49052e-06)
(0 -0 2.75046e-06)
(0 -0 -6.10841e-06)
(0 -0 7.93695e-06)
(0 -0 5.06242e-06)
(0 -0 3.69771e-06)
(0 -0 3.25729e-06)
(0 -0 3.30135e-06)
(0 -0 3.56829e-06)
(0 -0 3.91006e-06)
(0 -0 4.24961e-06)
(0 -0 4.551e-06)
(0 -0 4.80018e-06)
(0 -0 4.99433e-06)
(0 -0 5.13641e-06)
(0 -0 5.23221e-06)
(0 -0 5.28837e-06)
(0 -0 5.31115e-06)
(0 -0 5.30603e-06)
(0 -0 5.27762e-06)
(0 -0 5.22993e-06)
(0 -0 5.16639e-06)
(0 -0 5.08994e-06)
(0 -0 5.00302e-06)
(0 -0 4.90755e-06)
(0 -0 4.805e-06)
(0 -0 4.69652e-06)
(0 -0 4.58314e-06)
(0 -0 4.4659e-06)
(0 -0 4.34592e-06)
(0 -0 4.22433e-06)
(0 -0 4.10218e-06)
(0 -0 3.98034e-06)
(0 -0 3.85933e-06)
(0 -0 3.73927e-06)
(0 -0 3.61999e-06)
(0 -0 3.50115e-06)
(0 -0 3.38253e-06)
(0 -0 3.26427e-06)
(0 -0 3.14688e-06)
(0 -0 3.03126e-06)
(0 -0 2.91821e-06)
(0 -0 2.80802e-06)
(0 -0 2.70005e-06)
(0 -0 2.59399e-06)
(0 -0 2.48887e-06)
(0 -0 2.38533e-06)
(0 -0 2.28134e-06)
(0 -0 2.17911e-06)
(0 -0 2.07469e-06)
(0 -0 1.97522e-06)
(0 -0 1.87078e-06)
(0 -0 1.77667e-06)
(0 -0 1.66897e-06)
(0 -0 1.58201e-06)
(0 -0 1.4656e-06)
(0 -0 1.3897e-06)
(0 -0 1.25435e-06)
(0 -0 1.19063e-06)
(0 -0 1.0216e-06)
(0 -0 9.71706e-07)
(0 -0 7.61445e-07)
(0 -0 7.23972e-07)
(0 -0 4.76845e-07)
(0 -0 4.13594e-07)
(0 -0 2.32381e-07)
(0 -0 -2.74164e-07)
(0 -0 9.48192e-07)
(0 -0 -3.60951e-06)
(0 -0 5.88027e-06)
(0 -0 -9.73136e-06)
(0 -0 3.14543e-06)
(0 -0 3.15505e-06)
(0 -0 -5.32645e-06)
(0 -0 7.4417e-06)
(0 -0 4.79658e-06)
(0 -0 3.57292e-06)
(0 -0 3.21799e-06)
(0 -0 3.31207e-06)
(0 -0 3.60823e-06)
(0 -0 3.96772e-06)
(0 -0 4.31893e-06)
(0 -0 4.62884e-06)
(0 -0 4.88483e-06)
(0 -0 5.08471e-06)
(0 -0 5.23179e-06)
(0 -0 5.33205e-06)
(0 -0 5.3923e-06)
(0 -0 5.41897e-06)
(0 -0 5.41766e-06)
(0 -0 5.3931e-06)
(0 -0 5.34934e-06)
(0 -0 5.28985e-06)
(0 -0 5.21759e-06)
(0 -0 5.13502e-06)
(0 -0 5.04403e-06)
(0 -0 4.94611e-06)
(0 -0 4.84242e-06)
(0 -0 4.73397e-06)
(0 -0 4.62182e-06)
(0 -0 4.50704e-06)
(0 -0 4.39069e-06)
(0 -0 4.27378e-06)
(0 -0 4.15713e-06)
(0 -0 4.04126e-06)
(0 -0 3.92635e-06)
(0 -0 3.81226e-06)
(0 -0 3.69868e-06)
(0 -0 3.58541e-06)
(0 -0 3.47253e-06)
(0 -0 3.36052e-06)
(0 -0 3.25019e-06)
(0 -0 3.14231e-06)
(0 -0 3.03718e-06)
(0 -0 2.93419e-06)
(0 -0 2.83311e-06)
(0 -0 2.73294e-06)
(0 -0 2.63435e-06)
(0 -0 2.53529e-06)
(0 -0 2.43799e-06)
(0 -0 2.33842e-06)
(0 -0 2.24389e-06)
(0 -0 2.14417e-06)
(0 -0 2.05517e-06)
(0 -0 1.95205e-06)
(0 -0 1.8706e-06)
(0 -0 1.75832e-06)
(0 -0 1.68857e-06)
(0 -0 1.55654e-06)
(0 -0 1.50053e-06)
(0 -0 1.33386e-06)
(0 -0 1.29412e-06)
(0 -0 1.08496e-06)
(0 -0 1.06026e-06)
(0 -0 8.1357e-07)
(0 -0 7.66152e-07)
(0 -0 5.79194e-07)
(0 -0 1.25772e-07)
(0 -0 1.20831e-06)
(0 -0 -2.89218e-06)
(0 -0 5.56274e-06)
(0 -0 -8.21741e-06)
(0 -0 2.67739e-06)
(0 -0 3.54113e-06)
(0 -0 -4.43602e-06)
(0 -0 6.81137e-06)
(0 -0 4.42764e-06)
(0 -0 3.36195e-06)
(0 -0 3.10013e-06)
(0 -0 3.24664e-06)
(0 -0 3.57178e-06)
(0 -0 3.94766e-06)
(0 -0 4.30892e-06)
(0 -0 4.62594e-06)
(0 -0 4.88764e-06)
(0 -0 5.09252e-06)
(0 -0 5.2442e-06)
(0 -0 5.34884e-06)
(0 -0 5.41336e-06)
(0 -0 5.44431e-06)
(0 -0 5.4474e-06)
(0 -0 5.42743e-06)
(0 -0 5.38846e-06)
(0 -0 5.334e-06)
(0 -0 5.26701e-06)
(0 -0 5.18992e-06)
(0 -0 5.10463e-06)
(0 -0 5.01261e-06)
(0 -0 4.91501e-06)
(0 -0 4.81286e-06)
(0 -0 4.70718e-06)
(0 -0 4.59901e-06)
(0 -0 4.48933e-06)
(0 -0 4.3791e-06)
(0 -0 4.26907e-06)
(0 -0 4.15978e-06)
(0 -0 4.05142e-06)
(0 -0 3.94389e-06)
(0 -0 3.83694e-06)
(0 -0 3.73036e-06)
(0 -0 3.62421e-06)
(0 -0 3.51891e-06)
(0 -0 3.4152e-06)
(0 -0 3.31382e-06)
(0 -0 3.21504e-06)
(0 -0 3.11831e-06)
(0 -0 3.02342e-06)
(0 -0 2.92943e-06)
(0 -0 2.83701e-06)
(0 -0 2.74408e-06)
(0 -0 2.65293e-06)
(0 -0 2.55942e-06)
(0 -0 2.47104e-06)
(0 -0 2.37725e-06)
(0 -0 2.29452e-06)
(0 -0 2.19717e-06)
(0 -0 2.12237e-06)
(0 -0 2.01541e-06)
(0 -0 1.95297e-06)
(0 -0 1.82551e-06)
(0 -0 1.77845e-06)
(0 -0 1.61554e-06)
(0 -0 1.58731e-06)
(0 -0 1.38079e-06)
(0 -0 1.37042e-06)
(0 -0 1.12592e-06)
(0 -0 1.09627e-06)
(0 -0 9.04523e-07)
(0 -0 5.12068e-07)
(0 -0 1.43519e-06)
(0 -0 -2.13815e-06)
(0 -0 5.12813e-06)
(0 -0 -6.55381e-06)
(0 -0 2.09415e-06)
(0 -0 3.89729e-06)
(0 -0 -3.48238e-06)
(0 -0 6.07008e-06)
(0 -0 3.96688e-06)
(0 -0 3.06903e-06)
(0 -0 2.90446e-06)
(0 -0 3.10433e-06)
(0 -0 3.45783e-06)
(0 -0 3.84889e-06)
(0 -0 4.21897e-06)
(0 -0 4.542e-06)
(0 -0 4.80863e-06)
(0 -0 5.01802e-06)
(0 -0 5.17406e-06)
(0 -0 5.28307e-06)
(0 -0 5.35206e-06)
(0 -0 5.38768e-06)
(0 -0 5.39566e-06)
(0 -0 5.38086e-06)
(0 -0 5.34738e-06)
(0 -0 5.29871e-06)
(0 -0 5.2378e-06)
(0 -0 5.16706e-06)
(0 -0 5.08837e-06)
(0 -0 5.0032e-06)
(0 -0 4.91268e-06)
(0 -0 4.81783e-06)
(0 -0 4.71965e-06)
(0 -0 4.61912e-06)
(0 -0 4.51717e-06)
(0 -0 4.41466e-06)
(0 -0 4.31232e-06)
(0 -0 4.21064e-06)
(0 -0 4.10986e-06)
(0 -0 4.00991e-06)
(0 -0 3.91056e-06)
(0 -0 3.81164e-06)
(0 -0 3.71319e-06)
(0 -0 3.61556e-06)
(0 -0 3.51945e-06)
(0 -0 3.42551e-06)
(0 -0 3.33402e-06)
(0 -0 3.24445e-06)
(0 -0 3.15667e-06)
(0 -0 3.06973e-06)
(0 -0 2.98434e-06)
(0 -0 2.89841e-06)
(0 -0 2.8143e-06)
(0 -0 2.72772e-06)
(0 -0 2.64635e-06)
(0 -0 2.55935e-06)
(0 -0 2.48375e-06)
(0 -0 2.393e-06)
(0 -0 2.3257e-06)
(0 -0 2.22488e-06)
(0 -0 2.17059e-06)
(0 -0 2.04859e-06)
(0 -0 2.01139e-06)
(0 -0 1.8532e-06)
(0 -0 1.83751e-06)
(0 -0 1.63472e-06)
(0 -0 1.63981e-06)
(0 -0 1.39873e-06)
(0 -0 1.38824e-06)
(0 -0 1.19245e-06)
(0 -0 8.66291e-07)
(0 -0 1.61683e-06)
(0 -0 -1.38134e-06)
(0 -0 4.59011e-06)
(0 -0 -4.80795e-06)
(0 -0 1.40642e-06)
(0 -0 4.21452e-06)
(0 -0 -2.50783e-06)
(0 -0 5.24347e-06)
(0 -0 3.42815e-06)
(0 -0 2.70151e-06)
(0 -0 2.63508e-06)
(0 -0 2.88791e-06)
(0 -0 3.2688e-06)
(0 -0 3.67397e-06)
(0 -0 4.0519e-06)
(0 -0 4.38021e-06)
(0 -0 4.65122e-06)
(0 -0 4.86483e-06)
(0 -0 5.02516e-06)
(0 -0 5.13859e-06)
(0 -0 5.21226e-06)
(0 -0 5.25283e-06)
(0 -0 5.26609e-06)
(0 -0 5.25691e-06)
(0 -0 5.22941e-06)
(0 -0 5.18706e-06)
(0 -0 5.13279e-06)
(0 -0 5.06899e-06)
(0 -0 4.99752e-06)
(0 -0 4.91982e-06)
(0 -0 4.83703e-06)
(0 -0 4.75015e-06)
(0 -0 4.66014e-06)
(0 -0 4.56793e-06)
(0 -0 4.47438e-06)
(0 -0 4.38029e-06)
(0 -0 4.2863e-06)
(0 -0 4.19292e-06)
(0 -0 4.10037e-06)
(0 -0 4.00864e-06)
(0 -0 3.91752e-06)
(0 -0 3.82686e-06)
(0 -0 3.7367e-06)
(0 -0 3.64735e-06)
(0 -0 3.55944e-06)
(0 -0 3.47354e-06)
(0 -0 3.38993e-06)
(0 -0 3.30811e-06)
(0 -0 3.22798e-06)
(0 -0 3.14864e-06)
(0 -0 3.07084e-06)
(0 -0 2.99244e-06)
(0 -0 2.91591e-06)
(0 -0 2.83682e-06)
(0 -0 2.76301e-06)
(0 -0 2.68333e-06)
(0 -0 2.61538e-06)
(0 -0 2.53177e-06)
(0 -0 2.47247e-06)
(0 -0 2.3783e-06)
(0 -0 2.33269e-06)
(0 -0 2.21671e-06)
(0 -0 2.18995e-06)
(0 -0 2.03707e-06)
(0 -0 2.03457e-06)
(0 -0 1.83613e-06)
(0 -0 1.85745e-06)
(0 -0 1.62047e-06)
(0 -0 1.63006e-06)
(0 -0 1.43073e-06)
(0 -0 1.17383e-06)
(0 -0 1.74467e-06)
(0 -0 -6.51096e-07)
(0 -0 3.96454e-06)
(0 -0 -3.04108e-06)
(0 -0 6.27395e-07)
(0 -0 4.48668e-06)
(0 -0 -1.54937e-06)
(0 -0 4.35762e-06)
(0 -0 2.82732e-06)
(0 -0 2.26956e-06)
(0 -0 2.29933e-06)
(0 -0 2.60351e-06)
(0 -0 3.01051e-06)
(0 -0 3.4288e-06)
(0 -0 3.81386e-06)
(0 -0 4.14695e-06)
(0 -0 4.42207e-06)
(0 -0 4.63976e-06)
(0 -0 4.80437e-06)
(0 -0 4.92234e-06)
(0 -0 5.00084e-06)
(0 -0 5.0466e-06)
(0 -0 5.06542e-06)
(0 -0 5.06217e-06)
(0 -0 5.04094e-06)
(0 -0 5.00523e-06)
(0 -0 4.95792e-06)
(0 -0 4.90137e-06)
(0 -0 4.83745e-06)
(0 -0 4.76757e-06)
(0 -0 4.69284e-06)
(0 -0 4.61426e-06)
(0 -0 4.53275e-06)
(0 -0 4.4492e-06)
(0 -0 4.36439e-06)
(0 -0 4.27904e-06)
(0 -0 4.19376e-06)
(0 -0 4.109e-06)
(0 -0 4.025e-06)
(0 -0 3.94177e-06)
(0 -0 3.85916e-06)
(0 -0 3.77704e-06)
(0 -0 3.69545e-06)
(0 -0 3.61465e-06)
(0 -0 3.53521e-06)
(0 -0 3.45763e-06)
(0 -0 3.38217e-06)
(0 -0 3.30834e-06)
(0 -0 3.23613e-06)
(0 -0 3.16463e-06)
(0 -0 3.09464e-06)
(0 -0 3.02403e-06)
(0 -0 2.95531e-06)
(0 -0 2.88395e-06)
(0 -0 2.81795e-06)
(0 -0 2.74582e-06)
(0 -0 2.68577e-06)
(0 -0 2.60951e-06)
(0 -0 2.55845e-06)
(0 -0 2.47115e-06)
(0 -0 2.43446e-06)
(0 -0 2.3247e-06)
(0 -0 2.30868e-06)
(0 -0 2.16132e-06)
(0 -0 2.17234e-06)
(0 -0 1.97846e-06)
(0 -0 2.01643e-06)
(0 -0 1.78376e-06)
(0 -0 1.81388e-06)
(0 -0 1.61128e-06)
(0 -0 1.42449e-06)
(0 -0 1.81395e-06)
(0 -0 2.90147e-08)
(0 -0 3.26873e-06)
(0 -0 -1.30572e-06)
(0 -0 -2.27891e-07)
(0 -0 4.71071e-06)
(0 -0 -6.37062e-07)
(0 -0 3.43796e-06)
(0 -0 2.18141e-06)
(0 -0 1.78558e-06)
(0 -0 1.90727e-06)
(0 -0 2.26021e-06)
(0 -0 2.69177e-06)
(0 -0 3.12226e-06)
(0 -0 3.51391e-06)
(0 -0 3.85148e-06)
(0 -0 4.13058e-06)
(0 -0 4.35234e-06)
(0 -0 4.52127e-06)
(0 -0 4.6439e-06)
(0 -0 4.72739e-06)
(0 -0 4.77849e-06)
(0 -0 4.80302e-06)
(0 -0 4.80583e-06)
(0 -0 4.79102e-06)
(0 -0 4.76203e-06)
(0 -0 4.72177e-06)
(0 -0 4.67257e-06)
(0 -0 4.61627e-06)
(0 -0 4.55426e-06)
(0 -0 4.48766e-06)
(0 -0 4.41743e-06)
(0 -0 4.34446e-06)
(0 -0 4.26959e-06)
(0 -0 4.19355e-06)
(0 -0 4.11698e-06)
(0 -0 4.04042e-06)
(0 -0 3.9643e-06)
(0 -0 3.88886e-06)
(0 -0 3.81414e-06)
(0 -0 3.74002e-06)
(0 -0 3.66642e-06)
(0 -0 3.59336e-06)
(0 -0 3.52109e-06)
(0 -0 3.45011e-06)
(0 -0 3.38084e-06)
(0 -0 3.3135e-06)
(0 -0 3.24766e-06)
(0 -0 3.18333e-06)
(0 -0 3.11965e-06)
(0 -0 3.05745e-06)
(0 -0 2.99458e-06)
(0 -0 2.93366e-06)
(0 -0 2.87001e-06)
(0 -0 2.8118e-06)
(0 -0 2.7472e-06)
(0 -0 2.69502e-06)
(0 -0 2.62607e-06)
(0 -0 2.58322e-06)
(0 -0 2.50274e-06)
(0 -0 2.47497e-06)
(0 -0 2.37138e-06)
(0 -0 2.36611e-06)
(0 -0 2.22417e-06)
(0 -0 2.24878e-06)
(0 -0 2.05928e-06)
(0 -0 2.11401e-06)
(0 -0 1.88542e-06)
(0 -0 1.93616e-06)
(0 -0 1.73032e-06)
(0 -0 1.6127e-06)
(0 -0 1.82366e-06)
(0 -0 6.41935e-07)
(0 -0 2.52065e-06)
(0 -0 3.56134e-07)
(0 -0 -1.14328e-06)
(0 -0 4.88648e-06)
(0 -0 2.06932e-07)
(0 -0 2.50839e-06)
(0 -0 1.5079e-06)
(0 -0 1.26345e-06)
(0 -0 1.47098e-06)
(0 -0 1.86934e-06)
(0 -0 2.3237e-06)
(0 -0 2.7655e-06)
(0 -0 3.16334e-06)
(0 -0 3.50525e-06)
(0 -0 3.78831e-06)
(0 -0 4.01418e-06)
(0 -0 4.18752e-06)
(0 -0 4.3149e-06)
(0 -0 4.40347e-06)
(0 -0 4.45999e-06)
(0 -0 4.49026e-06)
(0 -0 4.49915e-06)
(0 -0 4.4907e-06)
(0 -0 4.46838e-06)
(0 -0 4.43505e-06)
(0 -0 4.39307e-06)
(0 -0 4.34424e-06)
(0 -0 4.28995e-06)
(0 -0 4.23129e-06)
(0 -0 4.16921e-06)
(0 -0 4.10456e-06)
(0 -0 4.03814e-06)
(0 -0 3.97064e-06)
(0 -0 3.9026e-06)
(0 -0 3.83453e-06)
(0 -0 3.76681e-06)
(0 -0 3.69968e-06)
(0 -0 3.63321e-06)
(0 -0 3.56732e-06)
(0 -0 3.50197e-06)
(0 -0 3.43718e-06)
(0 -0 3.37317e-06)
(0 -0 3.31037e-06)
(0 -0 3.24915e-06)
(0 -0 3.1897e-06)
(0 -0 3.13159e-06)
(0 -0 3.07489e-06)
(0 -0 3.01878e-06)
(0 -0 2.96411e-06)
(0 -0 2.90875e-06)
(0 -0 2.85537e-06)
(0 -0 2.79918e-06)
(0 -0 2.74851e-06)
(0 -0 2.69119e-06)
(0 -0 2.64665e-06)
(0 -0 2.58476e-06)
(0 -0 2.54989e-06)
(0 -0 2.47596e-06)
(0 -0 2.45688e-06)
(0 -0 2.35918e-06)
(0 -0 2.36445e-06)
(0 -0 2.22757e-06)
(0 -0 2.26557e-06)
(0 -0 2.07998e-06)
(0 -0 2.15136e-06)
(0 -0 1.92622e-06)
(0 -0 1.99738e-06)
(0 -0 1.78808e-06)
(0 -0 1.73729e-06)
(0 -0 1.77625e-06)
(0 -0 1.17721e-06)
(0 -0 1.73804e-06)
(0 -0 1.91376e-06)
(0 -0 -2.10227e-06)
(0 -0 5.01648e-06)
(0 -0 9.68588e-07)
(0 -0 1.59058e-06)
(0 -0 8.23923e-07)
(0 -0 7.17774e-07)
(0 -0 1.0038e-06)
(0 -0 1.4437e-06)
(0 -0 1.91894e-06)
(0 -0 2.37121e-06)
(0 -0 2.77492e-06)
(0 -0 3.12112e-06)
(0 -0 3.40819e-06)
(0 -0 3.63826e-06)
(0 -0 3.81609e-06)
(0 -0 3.94828e-06)
(0 -0 4.04196e-06)
(0 -0 4.10389e-06)
(0 -0 4.13984e-06)
(0 -0 4.15467e-06)
(0 -0 4.15241e-06)
(0 -0 4.13651e-06)
(0 -0 4.10986e-06)
(0 -0 4.0748e-06)
(0 -0 4.03311e-06)
(0 -0 3.98619e-06)
(0 -0 3.93509e-06)
(0 -0 3.88074e-06)
(0 -0 3.824e-06)
(0 -0 3.7656e-06)
(0 -0 3.70618e-06)
(0 -0 3.64624e-06)
(0 -0 3.58621e-06)
(0 -0 3.52644e-06)
(0 -0 3.46717e-06)
(0 -0 3.40849e-06)
(0 -0 3.35037e-06)
(0 -0 3.29279e-06)
(0 -0 3.2358e-06)
(0 -0 3.17957e-06)
(0 -0 3.12451e-06)
(0 -0 3.07089e-06)
(0 -0 3.01889e-06)
(0 -0 2.96808e-06)
(0 -0 2.91858e-06)
(0 -0 2.86961e-06)
(0 -0 2.82205e-06)
(0 -0 2.77376e-06)
(0 -0 2.7275e-06)
(0 -0 2.67836e-06)
(0 -0 2.63481e-06)
(0 -0 2.58435e-06)
(0 -0 2.54703e-06)
(0 -0 2.49178e-06)
(0 -0 2.46448e-06)
(0 -0 2.39666e-06)
(0 -0 2.38588e-06)
(0 -0 2.29359e-06)
(0 -0 2.30902e-06)
(0 -0 2.17662e-06)
(0 -0 2.22765e-06)
(0 -0 2.04526e-06)
(0 -0 2.13295e-06)
(0 -0 1.91035e-06)
(0 -0 2.00152e-06)
(0 -0 1.7883e-06)
(0 -0 1.80103e-06)
(0 -0 1.67706e-06)
(0 -0 1.63061e-06)
(0 -0 9.37659e-07)
(0 -0 3.34764e-06)
(0 -0 -3.08878e-06)
(0 -0 5.10524e-06)
(0 -0 1.64172e-06)
(0 -0 7.03245e-07)
(0 -0 1.45535e-07)
(0 -0 1.631e-07)
(0 -0 5.19511e-07)
(0 -0 9.96742e-07)
(0 -0 1.49086e-06)
(0 -0 1.95277e-06)
(0 -0 2.36209e-06)
(0 -0 2.71255e-06)
(0 -0 3.0037e-06)
(0 -0 3.23805e-06)
(0 -0 3.42045e-06)
(0 -0 3.55747e-06)
(0 -0 3.65625e-06)
(0 -0 3.72348e-06)
(0 -0 3.76495e-06)
(0 -0 3.78548e-06)
(0 -0 3.78911e-06)
(0 -0 3.7793e-06)
(0 -0 3.75893e-06)
(0 -0 3.73035e-06)
(0 -0 3.69535e-06)
(0 -0 3.65528e-06)
(0 -0 3.61121e-06)
(0 -0 3.56406e-06)
(0 -0 3.51463e-06)
(0 -0 3.46366e-06)
(0 -0 3.41173e-06)
(0 -0 3.35927e-06)
(0 -0 3.30666e-06)
(0 -0 3.25424e-06)
(0 -0 3.20223e-06)
(0 -0 3.15073e-06)
(0 -0 3.09977e-06)
(0 -0 3.04936e-06)
(0 -0 2.99955e-06)
(0 -0 2.95051e-06)
(0 -0 2.90257e-06)