/*--------------------------------*- C++ -*----------------------------------*\
| =========                 |                                                 |
| \\      /  F ield         | OpenFOAM: The Open Source CFD Toolbox           |
|  \\    /   O peration     | Version:  2412                                  |
|   \\  /    A nd           | Website:  www.openfoam.com                      |
|    \\/     M anipulation  |                                                 |
\*---------------------------------------------------------------------------*/
FoamFile
{
    version     2.0;
    format      ascii;
    arch        "LSB;label=32;scalar=64";
    class       volScalarField;
    location    "3.5";
    object      p;
}
// * * * * * * * * * * * * * * * * * * * * * * * * * * * * * * * * * * * * * //

dimensions      [0 2 -2 0 0 0 0];

internalField   nonuniform List<scalar> 
5285
(
-0.000163937
-0.000159622
-0.00015538
-0.00015121
-0.00016005
-0.000155865
-0.000151749
-0.000147699
-0.000143718
-0.000139804
-0.000135957
-0.000132178
-0.000128465
-0.000124819
-0.000121238
-0.000117723
-0.000114271
-0.000110883
-0.000107557
-0.000104293
-0.000101089
-9.79459e-05
-9.48616e-05
-9.18357e-05
-8.88674e-05
-8.59561e-05
-8.3101e-05
-8.03015e-05
-7.75571e-05
-7.4867e-05
-7.2231e-05
-6.96484e-05
-6.71188e-05
-6.46419e-05
-6.22173e-05
-5.98447e-05
-5.75239e-05
-5.52547e-05
-5.30367e-05
-5.08699e-05
-4.87541e-05
-4.66891e-05
-4.46748e-05
-4.27111e-05
-4.07979e-05
-3.89351e-05
-3.71225e-05
-3.53599e-05
-0.000156016
-0.000151969
-0.000147983
-0.00014406
-0.0001402
-0.000136403
-0.000132668
-0.000128997
-0.000125388
-0.000121842
-0.000118358
-0.000114935
-0.000111574
-0.000108273
-0.000105031
-0.000101849
-9.8725e-05
-9.56588e-05
-9.26497e-05
-8.96969e-05
-8.67999e-05
-8.39581e-05
-8.11708e-05
-7.84375e-05
-7.57577e-05
-7.31308e-05
-7.05564e-05
-6.80341e-05
-6.55635e-05
-6.31442e-05
-6.0776e-05
-5.84584e-05
-5.61914e-05
-5.39747e-05
-5.1808e-05
-4.96913e-05
-4.76243e-05
-4.56069e-05
-4.3639e-05
-4.17205e-05
-3.98513e-05
-3.80312e-05
-3.62601e-05
-3.45379e-05
-0.000151844
-0.00014794
-0.000144092
-0.0001403
-0.000136567
-0.000132891
-0.000129274
-0.000125715
-0.000122214
-0.000118773
-0.00011539
-0.000112065
-0.000108797
-0.000105587
-0.000102434
-9.93374e-05
-9.62965e-05
-9.33108e-05
-9.03799e-05
-8.75033e-05
-8.46804e-05
-8.19107e-05
-7.91937e-05
-7.6529e-05
-7.3916e-05
-7.13544e-05
-6.88437e-05
-6.63836e-05
-6.39738e-05
-6.16138e-05
-5.93035e-05
-5.70425e-05
-5.48307e-05
-5.26679e-05
-5.05538e-05
-4.84884e-05
-4.64714e-05
-4.45027e-05
-4.25823e-05
-4.071e-05
-3.88857e-05
-3.71093e-05
-3.53807e-05
-3.36997e-05
-0.000147544
-0.000143787
-0.000140081
-0.000136426
-0.000132823
-0.000129274
-0.000125778
-0.000122336
-0.000118949
-0.000115616
-0.000112338
-0.000109114
-0.000105945
-0.00010283
-9.97686e-05
-9.67607e-05
-9.3806e-05
-9.09039e-05
-8.80543e-05
-8.52565e-05
-8.25104e-05
-7.98154e-05
-7.71711e-05
-7.45772e-05
-7.20332e-05
-6.95389e-05
-6.70939e-05
-6.46978e-05
-6.23505e-05
-6.00515e-05
-5.78007e-05
-5.55978e-05
-5.34426e-05
-5.1335e-05
-4.92748e-05
-4.72618e-05
-4.5296e-05
-4.33772e-05
-4.15053e-05
-3.96802e-05
-3.79018e-05
-3.617e-05
-3.44847e-05
-3.28457e-05
-0.000143124
-0.000139518
-0.000135958
-0.000132444
-0.000128976
-0.000125558
-0.000122187
-0.000118867
-0.000115596
-0.000112376
-0.000109207
-0.000106088
-0.000103021
-0.000100004
-9.70373e-05
-9.41214e-05
-9.12559e-05
-8.84404e-05
-8.56747e-05
-8.29585e-05
-8.02916e-05
-7.76737e-05
-7.51044e-05
-7.25835e-05
-7.01106e-05
-6.76856e-05
-6.53081e-05
-6.29778e-05
-6.06946e-05
-5.84582e-05
-5.62684e-05
-5.4125e-05
-5.20278e-05
-4.99767e-05
-4.79716e-05
-4.60123e-05
-4.40988e-05
-4.22309e-05
-4.04085e-05
-3.86316e-05
-3.69e-05
-3.52136e-05
-3.35725e-05
-3.19763e-05
-0.000138592
-0.000135142
-0.000131731
-0.000128361
-0.000125033
-0.000121748
-0.000118507
-0.000115311
-0.000112161
-0.000109057
-0.000106
-0.00010299
-0.000100027
-9.71112e-05
-9.4243e-05
-9.14221e-05
-8.86486e-05
-8.59223e-05
-8.32432e-05
-8.06111e-05
-7.80258e-05
-7.54872e-05
-7.29951e-05
-7.05493e-05
-6.81495e-05
-6.57957e-05
-6.34874e-05
-6.12247e-05
-5.90072e-05
-5.68349e-05
-5.47075e-05
-5.2625e-05
-5.05871e-05
-4.85939e-05
-4.6645e-05
-4.47406e-05
-4.28804e-05
-4.10644e-05
-3.92925e-05
-3.75647e-05
-3.58808e-05
-3.42408e-05
-3.26446e-05
-3.1092e-05
-0.000133959
-0.000130666
-0.000127408
-0.000124185
-0.000120999
-0.000117851
-0.000114743
-0.000111675
-0.000108648
-0.000105664
-0.000102722
-9.98228e-05
-9.69675e-05
-9.41561e-05
-9.13887e-05
-8.86655e-05
-8.59866e-05
-8.33521e-05
-8.0762e-05
-7.82163e-05
-7.57149e-05
-7.32578e-05
-7.08449e-05
-6.84761e-05
-6.61513e-05
-6.38703e-05
-6.16331e-05
-5.94395e-05
-5.72893e-05
-5.51826e-05
-5.31191e-05
-5.10987e-05
-4.91214e-05
-4.71871e-05
-4.52957e-05
-4.34472e-05
-4.16414e-05
-3.98783e-05
-3.81578e-05
-3.648e-05
-3.48447e-05
-3.32519e-05
-3.17015e-05
-3.01933e-05
-0.000129232
-0.0001261
-0.000122996
-0.000119923
-0.000116882
-0.000113874
-0.000110901
-0.000107963
-0.000105063
-0.0001022
-9.93759e-05
-9.65911e-05
-9.38462e-05
-9.11415e-05
-8.84775e-05
-8.58544e-05
-8.32726e-05
-8.07321e-05
-7.82332e-05
-7.57761e-05
-7.33607e-05
-7.09871e-05
-6.86553e-05
-6.63654e-05
-6.41173e-05
-6.1911e-05
-5.97463e-05
-5.76234e-05
-5.5542e-05
-5.35022e-05
-5.15039e-05
-4.9547e-05
-4.76315e-05
-4.57573e-05
-4.39245e-05
-4.21328e-05
-4.03824e-05
-3.86732e-05
-3.70052e-05
-3.53782e-05
-3.37923e-05
-3.22474e-05
-3.07436e-05
-2.92805e-05
-0.000124421
-0.000121451
-0.000118504
-0.000115582
-0.000112688
-0.000109822
-0.000106986
-0.000104181
-0.000101409
-9.86708e-05
-9.59671e-05
-9.32987e-05
-9.06664e-05
-8.80708e-05
-8.55124e-05
-8.29917e-05
-8.05091e-05
-7.80648e-05
-7.56593e-05
-7.32927e-05
-7.09652e-05
-6.86769e-05
-6.64281e-05
-6.42188e-05
-6.20491e-05
-5.99189e-05
-5.78284e-05
-5.57776e-05
-5.37664e-05
-5.17948e-05
-4.9863e-05
-4.79708e-05
-4.61182e-05
-4.43053e-05
-4.2532e-05
-4.07983e-05
-3.91043e-05
-3.74499e-05
-3.5835e-05
-3.42598e-05
-3.27241e-05
-3.1228e-05
-2.97714e-05
-2.83541e-05
-0.000119534
-0.000116727
-0.000113938
-0.000111169
-0.000108423
-0.000105701
-0.000103004
-0.000100335
-9.7693e-05
-9.5081e-05
-9.24995e-05
-8.99495e-05
-8.7432e-05
-8.49475e-05
-8.24968e-05
-8.00804e-05
-7.7699e-05
-7.53528e-05
-7.30425e-05
-7.07682e-05
-6.85304e-05
-6.63293e-05
-6.4165e-05
-6.20379e-05
-5.99481e-05
-5.78956e-05
-5.58807e-05
-5.39033e-05
-5.19636e-05
-5.00616e-05
-4.81974e-05
-4.6371e-05
-4.45825e-05
-4.28318e-05
-4.11191e-05
-3.94444e-05
-3.78076e-05
-3.62088e-05
-3.46481e-05
-3.31254e-05
-3.16407e-05
-3.0194e-05
-2.87854e-05
-2.74146e-05
-0.000114581
-0.000111937
-0.000109307
-0.000106692
-0.000104096
-0.000101518
-9.89622e-05
-9.64286e-05
-9.39191e-05
-9.1435e-05
-8.89775e-05
-8.65478e-05
-8.41466e-05
-8.1775e-05
-7.94338e-05
-7.71235e-05
-7.4845e-05
-7.25987e-05
-7.03852e-05
-6.8205e-05
-6.60584e-05
-6.3946e-05
-6.18679e-05
-5.98245e-05
-5.78159e-05
-5.58425e-05
-5.39045e-05
-5.20018e-05
-5.01348e-05
-4.83035e-05
-4.65081e-05
-4.47486e-05
-4.30252e-05
-4.13378e-05
-3.96867e-05
-3.80717e-05
-3.64931e-05
-3.49509e-05
-3.3445e-05
-3.19756e-05
-3.05426e-05
-2.91461e-05
-2.77861e-05
-2.64624e-05
-0.000109568
-0.000107088
-0.000104617
-0.000102157
-9.97109e-05
-9.72796e-05
-9.48649e-05
-9.24687e-05
-9.00925e-05
-8.77377e-05
-8.54056e-05
-8.30974e-05
-8.08142e-05
-7.8557e-05
-7.63267e-05
-7.41241e-05
-7.195e-05
-6.9805e-05
-6.76899e-05
-6.56052e-05
-6.35514e-05
-6.1529e-05
-5.95385e-05
-5.75801e-05
-5.56542e-05
-5.37611e-05
-5.19011e-05
-5.00745e-05
-4.82813e-05
-4.65218e-05
-4.47963e-05
-4.31047e-05
-4.14473e-05
-3.98242e-05
-3.82354e-05
-3.66812e-05
-3.51615e-05
-3.36766e-05
-3.22264e-05
-3.0811e-05
-2.94304e-05
-2.80847e-05
-2.6774e-05
-2.54981e-05
-0.000104505
-0.000102188
-9.98765e-05
-9.75716e-05
-9.52757e-05
-9.29907e-05
-9.07183e-05
-8.84602e-05
-8.62181e-05
-8.39936e-05
-8.17879e-05
-7.96025e-05
-7.74384e-05
-7.52969e-05
-7.31788e-05
-7.10851e-05
-6.90168e-05
-6.69745e-05
-6.49591e-05
-6.29712e-05
-6.10115e-05
-5.90804e-05
-5.71786e-05
-5.53065e-05
-5.34645e-05
-5.16529e-05
-4.98722e-05
-4.81225e-05
-4.64043e-05
-4.47176e-05
-4.30629e-05
-4.14402e-05
-3.98497e-05
-3.82917e-05
-3.67663e-05
-3.52735e-05
-3.38136e-05
-3.23867e-05
-3.09929e-05
-2.96322e-05
-2.83047e-05
-2.70105e-05
-2.57497e-05
-2.45222e-05
-9.93994e-05
-9.72453e-05
-9.5092e-05
-9.29417e-05
-9.07963e-05
-8.86577e-05
-8.65278e-05
-8.44083e-05
-8.2301e-05
-8.02073e-05
-7.81289e-05
-7.60671e-05
-7.40231e-05
-7.19982e-05
-6.99934e-05
-6.80098e-05
-6.60483e-05
-6.41098e-05
-6.21953e-05
-6.03053e-05
-5.84408e-05
-5.66022e-05
-5.47903e-05
-5.30055e-05
-5.12484e-05
-4.95194e-05
-4.78189e-05
-4.61473e-05
-4.45049e-05
-4.28921e-05
-4.13091e-05
-3.97561e-05
-3.82335e-05
-3.67414e-05
-3.528e-05
-3.38495e-05
-3.24501e-05
-3.1082e-05
-2.97451e-05
-2.84398e-05
-2.7166e-05
-2.5924e-05
-2.47136e-05
-2.3535e-05
-9.42583e-05
-9.22659e-05
-9.02704e-05
-8.8274e-05
-8.62787e-05
-8.42864e-05
-8.22989e-05
-8.03181e-05
-7.83458e-05
-7.63835e-05
-7.44328e-05
-7.24952e-05
-7.0572e-05
-6.86645e-05
-6.67738e-05
-6.4901e-05
-6.30473e-05
-6.12136e-05
-5.94008e-05
-5.76098e-05
-5.58415e-05
-5.40964e-05
-5.23753e-05
-5.06789e-05
-4.90077e-05
-4.73622e-05
-4.57429e-05
-4.41502e-05
-4.25846e-05
-4.10464e-05
-3.95359e-05
-3.80536e-05
-3.65995e-05
-3.51741e-05
-3.37775e-05
-3.241e-05
-3.10718e-05
-2.9763e-05
-2.84839e-05
-2.72346e-05
-2.60151e-05
-2.48257e-05
-2.36664e-05
-2.25372e-05
-8.90892e-05
-8.7257e-05
-8.54182e-05
-8.35748e-05
-8.17289e-05
-7.98823e-05
-7.80369e-05
-7.61947e-05
-7.43573e-05
-7.25264e-05
-7.07038e-05
-6.88907e-05
-6.70887e-05
-6.52991e-05
-6.35231e-05
-6.17619e-05
-6.00167e-05
-5.82885e-05
-5.65783e-05
-5.48871e-05
-5.32157e-05
-5.15649e-05
-4.99356e-05
-4.83283e-05
-4.67438e-05
-4.51827e-05
-4.36454e-05
-4.21325e-05
-4.06445e-05
-3.91817e-05
-3.77446e-05
-3.63335e-05
-3.49488e-05
-3.35908e-05
-3.22597e-05
-3.09558e-05
-2.96794e-05
-2.84307e-05
-2.72098e-05
-2.6017e-05
-2.48524e-05
-2.37162e-05
-2.26084e-05
-2.15292e-05
-8.3899e-05
-8.22254e-05
-8.05418e-05
-7.88501e-05
-7.71525e-05
-7.54509e-05
-7.3747e-05
-7.20428e-05
-7.03401e-05
-6.86406e-05
-6.69458e-05
-6.52575e-05
-6.35769e-05
-6.19055e-05
-6.02446e-05
-5.85954e-05
-5.69592e-05
-5.53371e-05
-5.37301e-05
-5.21393e-05
-5.05656e-05
-4.90099e-05
-4.7473e-05
-4.59556e-05
-4.44586e-05
-4.29825e-05
-4.1528e-05
-4.00956e-05
-3.86858e-05
-3.72992e-05
-3.59361e-05
-3.4597e-05
-3.32823e-05
-3.19923e-05
-3.07273e-05
-2.94877e-05
-2.82736e-05
-2.70855e-05
-2.59235e-05
-2.47877e-05
-2.36785e-05
-2.2596e-05
-2.15403e-05
-2.05115e-05
-7.86944e-05
-7.71774e-05
-7.56472e-05
-7.41058e-05
-7.25553e-05
-7.09974e-05
-6.94341e-05
-6.78673e-05
-6.62987e-05
-6.47301e-05
-6.31631e-05
-6.15993e-05
-6.00401e-05
-5.8487e-05
-5.69414e-05
-5.54045e-05
-5.38777e-05
-5.2362e-05
-5.08587e-05
-4.93688e-05
-4.78933e-05
-4.64332e-05
-4.49893e-05
-4.35625e-05
-4.21536e-05
-4.07632e-05
-3.93921e-05
-3.80408e-05
-3.67099e-05
-3.54e-05
-3.41116e-05
-3.28451e-05
-3.1601e-05
-3.03795e-05
-2.91813e-05
-2.80064e-05
-2.68553e-05
-2.57283e-05
-2.46256e-05
-2.35475e-05
-2.24941e-05
-2.14657e-05
-2.04625e-05
-1.94846e-05
-7.34818e-05
-7.21191e-05
-7.07404e-05
-6.93475e-05
-6.79425e-05
-6.65271e-05
-6.51033e-05
-6.36729e-05
-6.22377e-05
-6.07993e-05
-5.93596e-05
-5.79199e-05
-5.6482e-05
-5.50471e-05
-5.36168e-05
-5.21923e-05
-5.07749e-05
-4.9366e-05
-4.79666e-05
-4.6578e-05
-4.52011e-05
-4.3837e-05
-4.24866e-05
-4.11509e-05
-3.98305e-05
-3.85264e-05
-3.72391e-05
-3.59695e-05
-3.47181e-05
-3.34855e-05
-3.22722e-05
-3.10789e-05
-2.99058e-05
-2.87535e-05
-2.76224e-05
-2.65129e-05
-2.54252e-05
-2.43598e-05
-2.33169e-05
-2.22968e-05
-2.12997e-05
-2.03259e-05
-1.93756e-05
-1.84489e-05
-0.000385363
-0.000372899
-0.000360716
-0.000348847
-0.000337315
-0.000326136
-0.000315322
-0.000304878
-0.000294807
-0.000285109
-0.000275778
-0.00026681
-0.000258195
-0.000249925
-0.000241988
-0.000234375
-0.000227072
-0.000220068
-0.00021335
-0.000206906
-0.000200724
-0.000194793
-0.000189099
-0.000183632
-0.000178381
-0.000173335
-0.000168485
-0.000368387
-0.000357055
-0.000345927
-0.000335037
-0.000324411
-0.000314069
-0.000304028
-0.000294297
-0.000284883
-0.000275789
-0.000267014
-0.000258556
-0.000250411
-0.000242572
-0.000235033
-0.000227784
-0.000220817
-0.000214122
-0.000207689
-0.000201508
-0.000195569
-0.000189861
-0.000184375
-0.000179101
-0.00017403
-0.000169151
-0.000164456
-0.000351415
-0.000341162
-0.000331043
-0.000321094
-0.000311343
-0.000301816
-0.000292529
-0.000283497
-0.000274729
-0.000266232
-0.000258009
-0.000250061
-0.000242386
-0.000234981
-0.000227842
-0.000220963
-0.000214337
-0.000207957
-0.000201816
-0.000195905
-0.000190216
-0.000184741
-0.00017947
-0.000174397
-0.000169511
-0.000164806
-0.000160274
-0.000334504
-0.000325276
-0.00031612
-0.000307073
-0.000298166
-0.000289425
-0.000280871
-0.000272521
-0.000264387
-0.000256478
-0.000248801
-0.000241358
-0.000234152
-0.000227181
-0.000220444
-0.000213937
-0.000207656
-0.000201596
-0.000195752
-0.000190116
-0.000184683
-0.000179446
-0.000174397
-0.00016953
-0.000164837
-0.000160312
-0.000155948
-0.000317703
-0.000309446
-0.000301206
-0.000293021
-0.000284924
-0.000276943
-0.000269099
-0.000261412
-0.000253897
-0.000246565
-0.000239424
-0.000232481
-0.000225739
-0.0002192
-0.000212864
-0.00020673
-0.000200797
-0.000195059
-0.000189515
-0.000184159
-0.000178986
-0.000173992
-0.000169169
-0.000164514
-0.000160019
-0.00015568
-0.000151489
-0.000301054
-0.000293716
-0.000286345
-0.000278983
-0.000271662
-0.00026441
-0.000257251
-0.000250207
-0.000243294
-0.000236525
-0.000229911
-0.000223459
-0.000217176
-0.000211065
-0.000205128
-0.000199366
-0.00019378
-0.000188367
-0.000183124
-0.00017805
-0.000173141
-0.000168393
-0.000163801
-0.000159361
-0.000155068
-0.000150918
-0.000146906
-0.000284594
-0.000278121
-0.000271576
-0.000264996
-0.000258415
-0.000251863
-0.000245365
-0.000238942
-0.000232612
-0.000226392
-0.000220291
-0.000214322
-0.000208489
-0.000202801
-0.000197259
-0.000191867
-0.000186627
-0.000181537
-0.000176597
-0.000171807
-0.000167163
-0.000162663
-0.000158304
-0.000154083
-0.000149996
-0.000146038
-0.000142208
-0.000268353
-0.000262697
-0.00025693
-0.000251093
-0.000245219
-0.000239336
-0.000233471
-0.000227647
-0.000221882
-0.000216194
-0.000210594
-0.000205095
-0.000199705
-0.000194432
-0.000189281
-0.000184255
-0.000179357
-0.000174589
-0.000169952
-0.000165445
-0.000161067
-0.000156817
-0.000152693
-0.000148692
-0.000144813
-0.000141051
-0.000137405
-0.000252359
-0.000247469
-0.000242439
-0.000237305
-0.000232102
-0.000226858
-0.0002216
-0.000216352
-0.000211132
-0.000205958
-0.000200845
-0.000195805
-0.000190848
-0.000185982
-0.000181213
-0.000176548
-0.00017199
-0.000167541
-0.000163204
-0.00015898
-0.000154868
-0.000150868
-0.000146979
-0.000143201
-0.000139531
-0.000135967
-0.000132506
-0.000236632
-0.000232463
-0.000228125
-0.000223658
-0.000219092
-0.000214457
-0.000209779
-0.000205082
-0.000200387
-0.000195711
-0.000191069
-0.000186474
-0.000181938
-0.00017747
-0.000173078
-0.000168767
-0.000164543
-0.00016041
-0.000156371
-0.000152427
-0.000148579
-0.000144829
-0.000141176
-0.00013762
-0.00013416
-0.000130795
-0.000127522
-0.000221191
-0.000217697
-0.000214012
-0.000210173
-0.000206211
-0.000202154
-0.00019803
-0.000193862
-0.00018967
-0.000185473
-0.000181286
-0.000177124
-0.000172997
-0.000168917
-0.000164892
-0.000160929
-0.000157035
-0.000153212
-0.000149467
-0.000145801
-0.000142216
-0.000138714
-0.000135296
-0.000131962
-0.000128712
-0.000125545
-0.000122461
-0.00020605
-0.000203189
-0.000200117
-0.00019687
-0.000193479
-0.000189972
-0.000186375
-0.000182712
-0.000179003
-0.000175266
-0.000171518
-0.000167773
-0.000164044
-0.000160342
-0.000156675
-0.000153052
-0.000149479
-0.000145963
-0.000142507
-0.000139115
-0.00013579
-0.000132534
-0.00012935
-0.000126237
-0.000123196
-0.000120228
-0.000117333
-0.000191222
-0.000188951
-0.000186454
-0.000183766
-0.000180914
-0.000177928
-0.000174832
-0.00017165
-0.000168403
-0.000165108
-0.000161782
-0.000158441
-0.000155097
-0.00015176
-0.000148442
-0.000145151
-0.000141893
-0.000138676
-0.000135504
-0.000132383
-0.000129314
-0.000126302
-0.000123348
-0.000120455
-0.000117623
-0.000114853
-0.000112146
-0.000176713
-0.000174995
-0.000173037
-0.000170873
-0.000168531
-0.000166037
-0.000163418
-0.000160694
-0.000157887
-0.000155016
-0.000152096
-0.000149143
-0.00014617
-0.000143188
-0.000140209
-0.00013724
-0.00013429
-0.000131366
-0.000128473
-0.000125616
-0.0001228
-0.000120028
-0.000117303
-0.000114627
-0.000112002
-0.000109429
-0.000106909
-0.000162532
-0.000161328
-0.000159875
-0.000158204
-0.000156342
-0.000154314
-0.000152145
-0.000149858
-0.000147471
-0.000145005
-0.000142474
-0.000139895
-0.000137279
-0.000134641
-0.000131989
-0.000129334
-0.000126683
-0.000124044
-0.000121424
-0.000118828
-0.00011626
-0.000113724
-0.000111224
-0.000108763
-0.000106342
-0.000103964
-0.000101631
-0.000148681
-0.000147957
-0.000146977
-0.000145768
-0.000144357
-0.000142769
-0.000141027
-0.000139154
-0.000137168
-0.000135088
-0.00013293
-0.000130709
-0.000128438
-0.00012613
-0.000123795
-0.000121444
-0.000119084
-0.000116724
-0.00011437
-0.000112027
-0.000109702
-0.000107399
-0.00010512
-0.000102871
-0.000100652
-9.84674e-05
-9.63178e-05
-0.000135163
-0.000134887
-0.000134347
-0.000133571
-0.000132585
-0.000131412
-0.000130074
-0.000128593
-0.000126988
-0.000125276
-0.000123474
-0.000121597
-0.000119658
-0.000117668
-0.00011564
-0.000113582
-0.000111505
-0.000109415
-0.00010732
-0.000105226
-0.000103139
-0.000101063
-9.90018e-05
-9.69602e-05
-9.49408e-05
-9.29463e-05
-9.09789e-05
-0.00012198
-0.00012212
-0.000121991
-0.000121621
-0.000121033
-0.00012025
-0.000119294
-0.000118185
-0.000116942
-0.000115581
-0.000114119
-0.000112571
-0.000110949
-0.000109266
-0.000107533
-0.00010576
-0.000103955
-0.000102128
-0.000100285
-9.84333e-05
-9.65778e-05
-9.47241e-05
-9.28766e-05
-9.10393e-05
-8.92156e-05
-8.74086e-05
-8.56209e-05
-0.00010913
-0.000109656
-0.000109911
-0.000109921
-0.000109707
-0.000109291
-0.000108695
-0.000107938
-0.000107038
-0.000106011
-0.000104873
-0.000103639
-0.000102322
-0.000100933
-9.94846e-05
-9.79855e-05
-9.64455e-05
-9.48726e-05
-9.32744e-05
-9.16577e-05
-9.00283e-05
-8.83918e-05
-8.67529e-05
-8.51158e-05
-8.34843e-05
-8.18617e-05
-8.02508e-05
-9.66111e-05
-9.74966e-05
-9.81094e-05
-9.84735e-05
-9.86101e-05
-9.854e-05
-9.82832e-05
-9.78586e-05
-9.72834e-05
-9.65739e-05
-9.57453e-05
-9.48115e-05
-9.37854e-05
-9.26791e-05
-9.15035e-05
-9.02686e-05
-8.89836e-05
-8.76569e-05
-8.6296e-05
-8.49078e-05
-8.34985e-05
-8.20737e-05
-8.06385e-05
-7.91972e-05
-7.7754e-05
-7.63123e-05
-7.48754e-05
-8.46706e-05
-8.58825e-05
-8.68215e-05
-8.75101e-05
-8.79684e-05
-8.82161e-05
-8.82725e-05
-8.81555e-05
-8.78819e-05
-8.74674e-05
-8.69267e-05
-8.62734e-05
-8.55202e-05
-8.46789e-05
-8.37603e-05
-8.27744e-05
-8.17303e-05
-8.06365e-05
-7.95005e-05
-7.83295e-05
-7.71296e-05
-7.59068e-05
-7.46661e-05
-7.34122e-05
-7.21494e-05
-7.08814e-05
-6.96116e-05
-7.31669e-05
-7.46792e-05
-7.5919e-05
-7.69077e-05
-7.76643e-05
-7.82077e-05
-7.85561e-05
-7.87268e-05
-7.87359e-05
-7.85985e-05
-7.83289e-05
-7.79403e-05
-7.74452e-05
-7.6855e-05
-7.61806e-05
-7.54316e-05
-7.46173e-05
-7.37459e-05
-7.28254e-05
-7.18625e-05
-7.08639e-05
-6.98353e-05
-6.87821e-05
-6.77092e-05
-6.66208e-05
-6.55209e-05
-6.44132e-05
-6.17428e-05
-6.35394e-05
-6.5065e-05
-6.63397e-05
-6.73814e-05
-6.8208e-05
-6.8837e-05
-6.92847e-05
-6.95666e-05
-6.96974e-05
-6.96907e-05
-6.95594e-05
-6.93157e-05
-6.89707e-05
-6.8535e-05
-6.80183e-05
-6.74296e-05
-6.67772e-05
-6.60689e-05
-6.53117e-05
-6.45121e-05
-6.36761e-05
-6.2809e-05
-6.19158e-05
-6.10011e-05
-6.0069e-05
-5.9123e-05
-5.04071e-05
-5.24725e-05
-5.4269e-05
-5.58156e-05
-5.71292e-05
-5.82266e-05
-5.91245e-05
-5.98385e-05
-6.03834e-05
-6.07731e-05
-6.10209e-05
-6.11393e-05
-6.114e-05
-6.1034e-05
-6.08314e-05
-6.0542e-05
-6.01745e-05
-5.97372e-05
-5.92377e-05
-5.86832e-05
-5.80802e-05
-5.74346e-05
-5.67519e-05
-5.60372e-05
-5.52951e-05
-5.45298e-05
-5.37452e-05
-3.91688e-05
-4.14877e-05
-4.35405e-05
-4.53451e-05
-4.69174e-05
-4.82733e-05
-4.94285e-05
-5.03979e-05
-5.11956e-05
-5.1835e-05
-5.23288e-05
-5.2689e-05
-5.29269e-05
-5.30532e-05
-5.30779e-05
-5.30104e-05
-5.28593e-05
-5.26329e-05
-5.23386e-05
-5.19836e-05
-5.15743e-05
-5.11167e-05
-5.06164e-05
-5.00784e-05
-4.95076e-05
-4.89082e-05
-4.8284e-05
-2.80364e-05
-3.05937e-05
-3.28884e-05
-3.49373e-05
-3.67553e-05
-3.83574e-05
-3.97583e-05
-4.09723e-05
-4.20127e-05
-4.28923e-05
-4.36232e-05
-4.42171e-05
-4.46848e-05
-4.50368e-05
-4.52825e-05
-4.54313e-05
-4.54917e-05
-4.54716e-05
-4.53785e-05
-4.52194e-05
-4.50007e-05
-4.47284e-05
-4.44081e-05
-4.4045e-05
-4.36438e-05
-4.32088e-05
-4.27441e-05
-1.70179e-05
-1.97991e-05
-2.23216e-05
-2.46013e-05
-2.66522e-05
-2.84881e-05
-3.01233e-05
-3.15709e-05
-3.28437e-05
-3.3954e-05
-3.49132e-05
-3.57326e-05
-3.64225e-05
-3.6993e-05
-3.74535e-05
-3.78128e-05
-3.80792e-05
-3.82607e-05
-3.83644e-05
-3.83974e-05
-3.83659e-05
-3.82759e-05
-3.81331e-05
-3.79425e-05
-3.77089e-05
-3.74368e-05
-3.71303e-05
-6.12129e-06
-9.112e-06
-1.18486e-05
-1.43459e-05
-1.66169e-05
-1.86747e-05
-2.05325e-05
-2.22029e-05
-2.3698e-05
-2.50293e-05
-2.62078e-05
-2.72443e-05
-2.81486e-05
-2.89306e-05
-2.95991e-05
-3.01628e-05
-3.06298e-05
-3.10077e-05
-3.13037e-05
-3.15246e-05
-3.16767e-05
-3.17658e-05
-3.17974e-05
-3.17768e-05
-3.17087e-05
-3.15975e-05
-3.14475e-05
4.64581e-06
1.45946e-06
-1.47777e-06
-4.17957e-06
-6.65823e-06
-8.92592e-06
-1.0995e-05
-1.28774e-05
-1.45845e-05
-1.61271e-05
-1.75159e-05
-1.8761e-05
-1.98719e-05
-2.08578e-05
-2.17276e-05
-2.24894e-05
-2.31512e-05
-2.37203e-05
-2.42038e-05
-2.46083e-05
-2.49399e-05
-2.52045e-05
-2.54075e-05
-2.55541e-05
-2.56489e-05
-2.56965e-05
-2.57011e-05
1.52761e-05
1.19076e-05
8.78293e-06
5.88928e-06
3.21523e-06
7.49435e-07
-1.51971e-06
-3.60334e-06
-5.51218e-06
-7.25658e-06
-8.84651e-06
-1.02916e-05
-1.1601e-05
-1.27835e-05
-1.38475e-05
-1.4801e-05
-1.56516e-05
-1.64064e-05
-1.70723e-05
-1.76557e-05
-1.81627e-05
-1.8599e-05
-1.89699e-05
-1.92806e-05
-1.95357e-05
-1.97396e-05
-1.98966e-05
2.57626e-05
2.22251e-05
1.89257e-05
1.58527e-05
1.29952e-05
1.03429e-05
7.88484e-06
5.6106e-06
3.51011e-06
1.57362e-06
-2.08326e-07
-1.84481e-06
-3.34459e-06
-4.71606e-06
-5.96722e-06
-7.10577e-06
-8.13898e-06
-9.07383e-06
-9.9169e-06
-1.06744e-05
-1.13524e-05
-1.19563e-05
-1.24915e-05
-1.2963e-05
-1.33753e-05
-1.37329e-05
-1.404e-05
3.60987e-05
3.24049e-05
2.89433e-05
2.57028e-05
2.26737e-05
1.98462e-05
1.72102e-05
1.47558e-05
1.24737e-05
1.03547e-05
8.38988e-06
6.5706e-06
4.88858e-06
3.33584e-06
1.90473e-06
5.87894e-07
-6.21672e-07
-1.73066e-06
-2.74546e-06
-3.67211e-06
-4.51638e-06
-5.28371e-06
-5.97927e-06
-6.60794e-06
-7.17431e-06
-7.68274e-06
-8.13729e-06
4.62781e-05
4.24402e-05
3.88284e-05
3.54323e-05
3.2243e-05
2.92514e-05
2.64481e-05
2.3824e-05
2.13702e-05
1.90782e-05
1.69395e-05
1.4946e-05
1.309e-05
1.13637e-05
9.75991e-06
8.27163e-06
6.89214e-06
5.61501e-06
4.43409e-06
3.34353e-06
2.33775e-06
1.41146e-06
5.59625e-07
-2.22521e-07
-9.39496e-07
-1.59557e-06
-2.19478e-06
5.62949e-05
5.23248e-05
4.85743e-05
4.5034e-05
4.16957e-05
3.85508e-05
3.55908e-05
3.2807e-05
3.01913e-05
2.77356e-05
2.54321e-05
2.3273e-05
2.12511e-05
1.9359e-05
1.75899e-05
1.59371e-05
1.43942e-05
1.2955e-05
1.16137e-05
1.03646e-05
9.2023e-06
8.12168e-06
7.11785e-06
6.18617e-06
5.32223e-06
4.52183e-06
3.78102e-06
6.61436e-05
6.20525e-05
5.81745e-05
5.45011e-05
5.10245e-05
4.77369e-05
4.46303e-05
4.16969e-05
3.89289e-05
3.63188e-05
3.38593e-05
3.15432e-05
2.93634e-05
2.73133e-05
2.53863e-05
2.35759e-05
2.18762e-05
2.02813e-05
1.87854e-05
1.73832e-05
1.60695e-05
1.48393e-05
1.36879e-05
1.26109e-05
1.16038e-05
1.06626e-05
9.7834e-06
7.58187e-05
7.16176e-05
6.76231e-05
6.38271e-05
6.02226e-05
5.68025e-05
5.35594e-05
5.0486e-05
4.75751e-05
4.48198e-05
4.22131e-05
3.97483e-05
3.74189e-05
3.52184e-05
3.31408e-05
3.11799e-05
2.933e-05
2.75855e-05
2.5941e-05
2.43913e-05
2.29315e-05
2.15567e-05
2.02624e-05
1.90442e-05
1.78979e-05
1.68196e-05
1.58055e-05
8.53156e-05
8.10148e-05
7.6914e-05
7.30057e-05
6.92834e-05
6.57408e-05
6.23709e-05
5.91669e-05
5.61224e-05
5.32306e-05
5.04854e-05
4.78802e-05
4.54091e-05
4.3066e-05
4.08451e-05
3.87407e-05
3.67473e-05
3.48597e-05
3.30725e-05
3.1381e-05
2.97804e-05
2.8266e-05
2.68334e-05
2.54785e-05
2.41973e-05
2.29857e-05
2.18402e-05
9.46295e-05
9.02391e-05
8.60418e-05
8.2031e-05
7.82007e-05
7.45451e-05
7.10577e-05
6.77325e-05
6.45632e-05
6.15438e-05
5.86684e-05
5.59312e-05
5.33263e-05
5.08481e-05
4.84912e-05
4.62503e-05
4.41201e-05
4.20955e-05
4.01718e-05
3.83443e-05
3.66082e-05
3.49594e-05
3.33934e-05
3.19064e-05
3.04944e-05
2.91536e-05
2.78804e-05
0.000103756
9.92856e-05
9.50014e-05
9.08975e-05
8.69685e-05
8.32091e-05
7.96134e-05
7.61757e-05
7.28904e-05
6.97519e-05
6.67547e-05
6.38933e-05
6.11624e-05
5.85567e-05
5.60711e-05
5.37005e-05
5.14401e-05
4.92851e-05
4.72309e-05
4.5273e-05
4.34071e-05
4.1629e-05
3.99346e-05
3.83201e-05
3.67816e-05
3.53157e-05
3.39188e-05
0.000112692
0.00010815
0.000103788
9.95998e-05
9.55811e-05
9.17267e-05
8.80315e-05
8.449e-05
8.10972e-05
7.78478e-05
7.47369e-05
7.17592e-05
6.89099e-05
6.6184e-05
6.35768e-05
6.10834e-05
5.86995e-05
5.64203e-05
5.42417e-05
5.21593e-05
5.0169e-05
4.82669e-05
4.6449e-05
4.47118e-05
4.30515e-05
4.14646e-05
3.9948e-05
0.000121433
0.000116828
0.000112396
0.000108133
0.000104033
0.000100092
9.63059e-05
9.26689e-05
8.91767e-05
8.58246e-05
8.26077e-05
7.95214e-05
7.65612e-05
7.37224e-05
7.10005e-05
6.83913e-05
6.58902e-05
6.34933e-05
6.11962e-05
5.89951e-05
5.68861e-05
5.48652e-05
5.2929e-05
5.10738e-05
4.92961e-05
4.75927e-05
4.59604e-05
0.000129975
0.000125316
0.000120823
0.000116492
0.000112319
0.0001083
0.000104431
0.000100706
9.71227e-05
9.36754e-05
9.03603e-05
8.71729e-05
8.4109e-05
8.11643e-05
7.83348e-05
7.56162e-05
7.30047e-05
7.04961e-05
6.80867e-05
6.57727e-05
6.35503e-05
6.14161e-05
5.93665e-05
5.73982e-05
5.55079e-05
5.36923e-05
5.19484e-05
0.000138316
0.00013361
0.000129064
0.000124673
0.000120435
0.000116345
0.000112401
0.000108596
0.000104929
0.000101394
9.79879e-05
9.47066e-05
9.15461e-05
8.85026e-05
8.55721e-05
8.27508e-05
8.0035e-05
7.7421e-05
7.49052e-05
7.2484e-05
7.01539e-05
6.79116e-05
6.57538e-05
6.36773e-05
6.16789e-05
5.97556e-05
5.79045e-05
0.000146454
0.000141707
0.000137115
0.000132672
0.000128376
0.000124223
0.00012021
0.000116333
0.000112589
0.000108974
0.000105484
0.000102116
9.88657e-05
9.573e-05
9.27051e-05
8.97875e-05
8.69738e-05
8.42604e-05
8.1644e-05
7.91213e-05
7.6689e-05
7.4344e-05
7.2083e-05
6.99031e-05
6.78014e-05
6.57748e-05
6.38208e-05
0.000154384
0.000149605
0.000144972
0.000140484
0.000136137
0.000131928
0.000127854
0.000123912
0.000120098
0.000116409
0.000112842
0.000109394
0.000106061
0.000102839
9.97266e-05
9.67191e-05
9.38135e-05
9.10067e-05
8.82956e-05
8.5677e-05
8.31479e-05
8.07053e-05
7.83462e-05
7.60679e-05
7.38675e-05
7.17422e-05
6.96895e-05
0.000162106
0.000157299
0.000152633
0.000148106
0.000143714
0.000139456
0.000135327
0.000131326
0.000127449
0.000123694
0.000120057
0.000116535
0.000113125
0.000109824
0.00010663
0.000103538
0.000100547
9.76524e-05
9.48522e-05
9.21432e-05
8.95227e-05
8.69878e-05
8.45357e-05
8.21638e-05
7.98694e-05
7.765e-05
7.5503e-05
0.000169616
0.000164787
0.000160094
0.000155534
0.000151104
0.000146802
0.000142626
0.000138572
0.000134639
0.000130823
0.000127121
0.000123532
0.000120052
0.000116678
0.000113408
0.000110238
0.000107167
0.00010419
0.000101307
9.85126e-05
9.58059e-05
9.31838e-05
9.06437e-05
8.8183e-05
8.57993e-05
8.34902e-05
8.12532e-05
0.000176912
0.000172068
0.000167353
0.000162765
0.000158303
0.000153963
0.000149745
0.000145645
0.00014166
0.00013779
0.00013403
0.00013038
0.000126835
0.000123394
0.000120053
0.000116812
0.000113666
0.000110613
0.000107651
0.000104778
0.00010199
9.92856e-05
9.66624e-05
9.41177e-05
9.16494e-05
8.9255e-05
8.69325e-05
0.000183993
0.000179138
0.000174406
0.000169796
0.000165306
0.000160935
0.00015668
0.000152539
0.00014851
0.00014459
0.000140778
0.000137072
0.000133468
0.000129965
0.000126561
0.000123252
0.000120037
0.000116913
0.000113879
0.000110931
0.000108067
0.000105286
0.000102584
9.99602e-05
9.74118e-05
9.49367e-05
9.25328e-05
0.000190858
0.000185995
0.000181251
0.000176624
0.000172112
0.000167714
0.000163427
0.00015925
0.000155181
0.000151219
0.00014736
0.000143603
0.000139946
0.000136387
0.000132923
0.000129553
0.000126274
0.000123085
0.000119982
0.000116965
0.00011403
0.000111176
0.000108401
0.000105703
0.000103079
0.000100527
9.80463e-05
0.000197503
0.000192638
0.000187886
0.000183246
0.000178716
0.000174296
0.000169982
0.000165775
0.000161671
0.00015767
0.000153769
0.000149967
0.000146262
0.000142652
0.000139134
0.000135708
0.00013237
0.00012912
0.000125955
0.000122873
0.000119872
0.00011695
0.000114106
0.000111337
0.000108642
0.000106019
0.000103465
0.000203927
0.000199063
0.000194308
0.000189659
0.000185116
0.000180677
0.000176342
0.000172108
0.000167975
0.00016394
0.000160002
0.00015616
0.000152411
0.000148754
0.000145187
0.000141709
0.000138318
0.000135012
0.000131789
0.000128647
0.000125584
0.0001226
0.000119691
0.000116857
0.000114095
0.000111403
0.000108781
0.00021013
0.00020527
0.000200514
0.00019586
0.000191307
0.000186855
0.000182502
0.000178246
0.000174087
0.000170023
0.000166052
0.000162174
0.000158387
0.000154688
0.000151077
0.000147552
0.000144112
0.000140754
0.000137477
0.00013428
0.000131161
0.000128117
0.000125149
0.000122253
0.000119428
0.000116673
0.000113986
0.000216108
0.000211256
0.000206503
0.000201847
0.000197288
0.000192826
0.000188458
0.000184185
0.000180004
0.000175915
0.000171916
0.000168006
0.000164184
0.000160448
0.000156797
0.00015323
0.000149744
0.000146339
0.000143014
0.000139765
0.000136593
0.000133496
0.000130471
0.000127518
0.000124635
0.000121821
0.000119073
0.000221861
0.000217019
0.000212271
0.000207617
0.000203055
0.000198586
0.000194207
0.00018992
0.000185721
0.00018161