/*--------------------------------*- C++ -*----------------------------------*\
| =========                 |                                                 |
| \\      /  F ield         | OpenFOAM: The Open Source CFD Toolbox           |
|  \\    /   O peration     | Version:  2412                                  |
|   \\  /    A nd           | Website:  www.openfoam.com                      |
|    \\/     M anipulation  |                                                 |
\*---------------------------------------------------------------------------*/
FoamFile
{
    version     2.0;
    format      ascii;
    arch        "LSB;label=32;scalar=64";
    class       volScalarField;
    location    "8.5";
    object      p;
}
// * * * * * * * * * * * * * * * * * * * * * * * * * * * * * * * * * * * * * //

dimensions      [0 2 -2 0 0 0 0];

internalField   nonuniform List<scalar> 
5285
(
-8.11324e-05
-7.88099e-05
-7.65021e-05
-7.42115e-05
-7.19411e-05
-6.96936e-05
-6.74717e-05
-6.52777e-05
-6.3114e-05
-6.09826e-05
-5.88857e-05
-5.68249e-05
-5.4802e-05
-5.28185e-05
-5.08757e-05
-4.89749e-05
-4.7117e-05
-4.53029e-05
-4.35333e-05
-4.18088e-05
-4.01297e-05
-3.84963e-05
-3.69086e-05
-3.53667e-05
-3.38705e-05
-3.24197e-05
-3.1014e-05
-2.9653e-05
-2.8336e-05
-2.70627e-05
-2.58322e-05
-2.4644e-05
-2.34971e-05
-2.23908e-05
-2.13242e-05
-2.02964e-05
-1.93064e-05
-1.83535e-05
-1.74365e-05
-1.65545e-05
-1.57065e-05
-1.48917e-05
-1.41089e-05
-1.33576e-05
-8.47119e-05
-8.22451e-05
-7.97977e-05
-7.73724e-05
-7.49717e-05
-7.25986e-05
-7.02557e-05
-6.79453e-05
-6.56697e-05
-6.34309e-05
-6.12308e-05
-5.90712e-05
-5.69535e-05
-5.48794e-05
-5.28499e-05
-5.08661e-05
-4.89289e-05
-4.7039e-05
-4.51971e-05
-4.34033e-05
-4.16582e-05
-3.99616e-05
-3.83136e-05
-3.6714e-05
-3.51626e-05
-3.36589e-05
-3.22026e-05
-3.07931e-05
-2.94297e-05
-2.81118e-05
-2.68385e-05
-2.5609e-05
-2.44226e-05
-2.32781e-05
-2.21748e-05
-2.11115e-05
-2.00874e-05
-1.91014e-05
-1.81525e-05
-1.72396e-05
-1.63618e-05
-1.55181e-05
-1.47074e-05
-1.3929e-05
-8.82355e-05
-8.56238e-05
-8.30364e-05
-8.0476e-05
-7.7945e-05
-7.54465e-05
-7.29831e-05
-7.0557e-05
-6.81704e-05
-6.58251e-05
-6.35231e-05
-6.12659e-05
-5.9055e-05
-5.68917e-05
-5.4777e-05
-5.27119e-05
-5.06971e-05
-4.87332e-05
-4.68206e-05
-4.49594e-05
-4.31499e-05
-4.13919e-05
-3.96853e-05
-3.80297e-05
-3.64247e-05
-3.48699e-05
-3.33646e-05
-3.19081e-05
-3.04997e-05
-2.91386e-05
-2.78238e-05
-2.65545e-05
-2.53296e-05
-2.41482e-05
-2.30092e-05
-2.19115e-05
-2.08542e-05
-1.98361e-05
-1.88561e-05
-1.79133e-05
-1.70064e-05
-1.61346e-05
-1.52965e-05
-1.44918e-05
-9.16958e-05
-8.89386e-05
-8.6211e-05
-8.35154e-05
-8.08545e-05
-7.82313e-05
-7.56483e-05
-7.31075e-05
-7.0611e-05
-6.81606e-05
-6.57582e-05
-6.3405e-05
-6.11026e-05
-5.88519e-05
-5.66539e-05
-5.45094e-05
-5.24189e-05
-5.03829e-05
-4.84015e-05
-4.6475e-05
-4.4603e-05
-4.27855e-05
-4.10221e-05
-3.93123e-05
-3.76556e-05
-3.60513e-05
-3.44987e-05
-3.29969e-05
-3.1545e-05
-3.01422e-05
-2.87873e-05
-2.74795e-05
-2.62175e-05
-2.50003e-05
-2.38269e-05
-2.2696e-05
-2.16064e-05
-2.05572e-05
-1.95471e-05
-1.85751e-05
-1.76399e-05
-1.67407e-05
-1.58761e-05
-1.50456e-05
-9.50847e-05
-9.21818e-05
-8.93141e-05
-8.6484e-05
-8.3694e-05
-8.0947e-05
-7.82454e-05
-7.55913e-05
-7.29865e-05
-7.04328e-05
-6.79317e-05
-6.54845e-05
-6.30925e-05
-6.07565e-05
-5.84773e-05
-5.62555e-05
-5.40916e-05
-5.19856e-05
-4.99377e-05
-4.79478e-05
-4.60156e-05
-4.41407e-05
-4.23225e-05
-4.05606e-05
-3.8854e-05
-3.72021e-05
-3.56039e-05
-3.40585e-05
-3.25648e-05
-3.11218e-05
-2.97284e-05
-2.83835e-05
-2.70858e-05
-2.58341e-05
-2.46274e-05
-2.34643e-05
-2.23437e-05
-2.12643e-05
-2.0225e-05
-1.92247e-05
-1.82621e-05
-1.73362e-05
-1.64458e-05
-1.55902e-05
-9.83937e-05
-9.53456e-05
-9.23384e-05
-8.93747e-05
-8.64567e-05
-8.35873e-05
-8.07688e-05
-7.80031e-05
-7.52919e-05
-7.26369e-05
-7.00393e-05
-6.75003e-05
-6.5021e-05
-6.26021e-05
-6.02441e-05
-5.79475e-05
-5.57124e-05
-5.35389e-05
-5.14269e-05
-4.9376e-05
-4.73858e-05
-4.54557e-05
-4.3585e-05
-4.1773e-05
-4.00186e-05
-3.83211e-05
-3.66792e-05
-3.5092e-05
-3.35582e-05
-3.20768e-05
-3.06464e-05
-2.92658e-05
-2.79338e-05
-2.6649e-05
-2.54102e-05
-2.42161e-05
-2.30655e-05
-2.19571e-05
-2.08896e-05
-1.98618e-05
-1.88727e-05
-1.79209e-05
-1.70053e-05
-1.61254e-05
-0.000101614
-9.84216e-05
-9.52762e-05
-9.21801e-05
-8.91358e-05
-8.61459e-05
-8.32125e-05
-8.03374e-05
-7.75221e-05
-7.47681e-05
-7.20766e-05
-6.94484e-05
-6.68845e-05
-6.43853e-05
-6.19512e-05
-5.95824e-05
-5.72789e-05
-5.50405e-05
-5.28669e-05
-5.07576e-05
-4.87118e-05
-4.6729e-05
-4.48081e-05
-4.29482e-05
-4.11483e-05
-3.94072e-05
-3.77237e-05
-3.60966e-05
-3.45245e-05
-3.30063e-05
-3.15406e-05
-3.01259e-05
-2.8761e-05
-2.74444e-05
-2.61749e-05
-2.49511e-05
-2.37716e-05
-2.26351e-05
-2.15404e-05
-2.04862e-05
-1.94713e-05
-1.84945e-05
-1.75546e-05
-1.66509e-05
-0.000104737
-0.000101402
-9.81195e-05
-9.4893e-05
-9.17245e-05
-8.86163e-05
-8.55705e-05
-8.25885e-05
-7.96719e-05
-7.68218e-05
-7.40392e-05
-7.13248e-05
-6.86792e-05
-6.61027e-05
-6.35954e-05
-6.11574e-05
-5.87884e-05
-5.6488e-05
-5.42557e-05
-5.20906e-05
-4.99921e-05
-4.7959e-05
-4.59904e-05
-4.40851e-05
-4.22419e-05
-4.04594e-05
-3.87364e-05
-3.70714e-05
-3.5463e-05
-3.39098e-05
-3.24104e-05
-3.09632e-05
-2.9567e-05
-2.82201e-05
-2.69211e-05
-2.56688e-05
-2.44616e-05
-2.32982e-05
-2.21772e-05
-2.10975e-05
-2.00578e-05
-1.90568e-05
-1.80933e-05
-1.71666e-05
-0.000107754
-0.000104277
-0.00010086
-9.75059e-05
-9.42157e-05
-9.0992e-05
-8.78367e-05
-8.47511e-05
-8.17363e-05
-7.87933e-05
-7.59229e-05
-7.31255e-05
-7.04015e-05
-6.7751e-05
-6.51739e-05
-6.267e-05
-6.02386e-05
-5.78793e-05
-5.55912e-05
-5.33734e-05
-5.12249e-05
-4.91444e-05
-4.71307e-05
-4.51825e-05
-4.32984e-05
-4.14769e-05
-3.97165e-05
-3.80157e-05
-3.63729e-05
-3.47866e-05
-3.32553e-05
-3.17773e-05
-3.03512e-05
-2.89754e-05
-2.76485e-05
-2.63688e-05
-2.51351e-05
-2.39459e-05
-2.27998e-05
-2.16956e-05
-2.06319e-05
-1.96076e-05
-1.86212e-05
-1.76723e-05
-0.000110655
-0.000107039
-0.000103491
-0.000100011
-9.66025e-05
-9.32667e-05
-9.00053e-05
-8.68195e-05
-8.37101e-05
-8.06779e-05
-7.77233e-05
-7.48467e-05
-7.2048e-05
-6.93272e-05
-6.66838e-05
-6.41173e-05
-6.16271e-05
-5.92121e-05
-5.68716e-05
-5.46042e-05
-5.24087e-05
-5.02837e-05
-4.82277e-05
-4.62393e-05
-4.43168e-05
-4.24587e-05
-4.06632e-05
-3.89287e-05
-3.72536e-05
-3.56362e-05
-3.40748e-05
-3.25677e-05
-3.11134e-05
-2.97102e-05
-2.83566e-05
-2.7051e-05
-2.5792e-05
-2.45781e-05
-2.34079e-05
-2.22801e-05
-2.11934e-05
-2.01466e-05
-1.91382e-05
-1.81678e-05
-0.00011343
-0.000109679
-0.000106002
-0.000102401
-9.88777e-05
-9.54336e-05
-9.20701e-05
-8.87881e-05
-8.55882e-05
-8.24709e-05
-7.94363e-05
-7.64845e-05
-7.36152e-05
-7.08279e-05
-6.81221e-05
-6.5497e-05
-6.29515e-05
-6.04846e-05
-5.8095e-05
-5.57813e-05
-5.3542e-05
-5.13756e-05
-4.92803e-05
-4.72544e-05
-4.52963e-05
-4.3404e-05
-4.15758e-05
-3.981e-05
-3.81046e-05
-3.6458e-05
-3.48684e-05
-3.33339e-05
-3.1853e-05
-3.0424e-05
-2.90451e-05
-2.7715e-05
-2.64319e-05
-2.51945e-05
-2.40013e-05
-2.28509e-05
-2.17421e-05
-2.06737e-05
-1.9644e-05
-1.86529e-05
-0.000116071
-0.000112188
-0.000108387
-0.000104668
-0.000101034
-9.74863e-05
-9.40253e-05
-9.06517e-05
-8.73658e-05
-8.41679e-05
-8.10579e-05
-7.80353e-05
-7.50997e-05
-7.22503e-05
-6.94863e-05
-6.68065e-05
-6.42098e-05
-6.16947e-05
-5.92598e-05
-5.69033e-05
-5.46237e-05
-5.2419e-05
-5.02874e-05
-4.8227e-05
-4.62359e-05
-4.43121e-05
-4.24537e-05
-4.06588e-05
-3.89254e-05
-3.72516e-05
-3.56357e-05
-3.40757e-05
-3.25699e-05
-3.11165e-05
-2.97139e-05
-2.83605e-05
-2.70546e-05
-2.57948e-05
-2.45797e-05
-2.34078e-05
-2.22779e-05
-2.11886e-05
-2.01386e-05
-1.91275e-05
-0.000118567
-0.000114556
-0.000110635
-0.000106805
-0.000103065
-9.94185e-05
-9.58649e-05
-9.24047e-05
-8.9038e-05
-8.57646e-05
-8.25839e-05
-7.94955e-05
-7.64983e-05
-7.35915e-05
-7.07737e-05
-6.80437e-05
-6.53999e-05
-6.28407e-05
-6.03643e-05
-5.79688e-05
-5.56523e-05
-5.34127e-05
-5.12481e-05
-4.91562e-05
-4.7135e-05
-4.51824e-05
-4.32963e-05
-4.14747e-05
-3.97155e-05
-3.80167e-05
-3.63763e-05
-3.47926e-05
-3.32636e-05
-3.17875e-05
-3.03626e-05
-2.89873e-05
-2.76599e-05
-2.6379e-05
-2.5143e-05
-2.39506e-05
-2.28005e-05
-2.16913e-05
-2.06217e-05
-1.95914e-05
-0.000120908
-0.000116776
-0.00011274
-0.000108803
-0.000104964
-0.000101224
-9.75832e-05
-9.40421e-05
-9.06001e-05
-8.72566e-05
-8.40108e-05
-8.08617e-05
-7.78081e-05
-7.48488e-05
-7.19821e-05
-6.92065e-05
-6.65201e-05
-6.3921e-05
-6.14072e-05
-5.89765e-05
-5.66269e-05
-5.43559e-05
-5.21615e-05
-5.00413e-05
-4.79929e-05
-4.60143e-05
-4.41031e-05
-4.22572e-05
-4.04745e-05
-3.87528e-05
-3.70901e-05
-3.54844e-05
-3.39339e-05
-3.24367e-05
-3.09911e-05
-2.95952e-05
-2.82476e-05
-2.69467e-05
-2.5691e-05
-2.44792e-05
-2.33098e-05
-2.21816e-05
-2.10933e-05
-2.00445e-05
-0.000123084
-0.000118836
-0.000114693
-0.000110655
-0.000106722
-0.000102896
-9.91746e-05
-9.55588e-05
-9.20476e-05
-8.86399e-05
-8.53347e-05
-8.21307e-05
-7.90262e-05
-7.60196e-05
-7.31092e-05
-7.02928e-05
-6.75685e-05
-6.4934e-05
-6.23871e-05
-5.99254e-05
-5.75464e-05
-5.52477e-05
-5.30269e-05
-5.08815e-05
-4.88091e-05
-4.68073e-05
-4.48737e-05
-4.30061e-05
-4.12021e-05
-3.94597e-05
-3.77766e-05
-3.6151e-05
-3.45807e-05
-3.30641e-05
-3.15991e-05
-3.01842e-05
-2.88177e-05
-2.7498e-05
-2.62237e-05
-2.49933e-05
-2.38056e-05
-2.26594e-05
-2.15531e-05
-2.04866e-05
-0.000125086
-0.00012073
-0.000116486
-0.000112354
-0.000108335
-0.000104428
-0.000100634
-9.695e-05
-9.33761e-05
-8.99108e-05
-8.65525e-05
-8.32995e-05
-8.015e-05
-7.71018e-05
-7.4153e-05
-7.13011e-05
-6.85438e-05
-6.58786e-05
-6.33029e-05
-6.08143e-05
-5.841e-05
-5.60874e-05
-5.38438e-05
-5.16766e-05
-4.95832e-05
-4.75611e-05
-4.56078e-05
-4.3721e-05
-4.18982e-05
-4.01372e-05
-3.84358e-05
-3.67921e-05
-3.52039e-05
-3.36693e-05
-3.21866e-05
-3.0754e-05
-2.93698e-05
-2.80326e-05
-2.67408e-05
-2.5493e-05
-2.4288e-05
-2.31246e-05
-2.20012e-05
-2.09178e-05
-0.000126905
-0.000122448
-0.00011811
-0.000113893
-0.000109795
-0.000105816
-0.000101955
-9.82111e-05
-9.45817e-05
-9.10656e-05
-8.76609e-05
-8.43655e-05
-8.11771e-05
-7.80933e-05
-7.51117e-05
-7.22297e-05
-6.94445e-05
-6.67535e-05
-6.41538e-05
-6.16426e-05
-5.92171e-05
-5.68744e-05
-5.46116e-05
-5.2426e-05
-5.03148e-05
-4.82755e-05
-4.63052e-05
-4.44017e-05
-4.25625e-05
-4.07852e-05
-3.90676e-05
-3.74076e-05
-3.58032e-05
-3.42524e-05
-3.27535e-05
-3.13046e-05
-2.99041e-05
-2.85505e-05
-2.72423e-05
-2.59782e-05
-2.47568e-05
-2.3577e-05
-2.24373e-05
-2.13377e-05
-0.00012853
-0.000123981
-0.000119559
-0.000115265
-0.000111097
-0.000107054
-0.000103135
-9.9338e-05
-9.56608e-05
-9.21014e-05
-8.86574e-05
-8.53263e-05
-8.21055e-05
-7.89924e-05
-7.59839e-05
-7.30774e-05
-7.02697e-05
-6.75579e-05
-6.4939e-05
-6.24098e-05
-5.99672e-05
-5.76084e-05
-5.53301e-05
-5.31296e-05
-5.10038e-05
-4.89502e-05
-4.69658e-05
-4.50482e-05
-4.31949e-05
-4.14036e-05
-3.96718e-05
-3.79976e-05
-3.63787e-05
-3.48134e-05
-3.32997e-05
-3.18359e-05
-3.04204e-05
-2.90516e-05
-2.77282e-05
-2.64487e-05
-2.52119e-05
-2.40166e-05
-2.28615e-05
-2.17465e-05
-0.000129954
-0.000125322
-0.000120826
-0.000116464
-0.000112235
-0.000108137
-0.000104169
-0.000100327
-9.66101e-05
-9.30151e-05
-8.95393e-05
-8.61797e-05
-8.29335e-05
-7.97974e-05
-7.67684e-05
-7.38432e-05
-7.10185e-05
-6.82912e-05
-6.56579e-05
-6.31152e-05
-6.066e-05
-5.8289e-05
-5.59991e-05
-5.37871e-05
-5.16501e-05
-4.95851e-05
-4.75895e-05
-4.56605e-05
-4.37956e-05
-4.19924e-05
-4.02486e-05
-3.85619e-05
-3.69304e-05
-3.53521e-05
-3.38252e-05
-3.23479e-05
-3.09187e-05
-2.9536e-05
-2.81983e-05
-2.69045e-05
-2.56532e-05
-2.44434e-05
-2.32736e-05
-2.2144e-05
-0.000131166
-0.000126463
-0.000121903
-0.000117483
-0.000113203
-0.00010906
-0.000105051
-0.000101174
-9.74264e-05
-9.38042e-05
-9.03045e-05
-8.6924e-05
-8.36594e-05
-8.05073e-05
-7.7464e-05
-7.45262e-05
-7.16903e-05
-6.89528e-05
-6.63101e-05
-6.37588e-05
-6.12953e-05
-5.89163e-05
-5.66185e-05
-5.43987e-05
-5.22537e-05
-5.01805e-05
-4.81764e-05
-4.62386e-05
-4.43645e-05
-4.25517e-05
-4.07978e-05
-3.91007e-05
-3.74584e-05
-3.58687e-05
-3.43301e-05
-3.28407e-05
-3.1399e-05
-3.00035e-05
-2.86528e-05
-2.73456e-05
-2.60808e-05
-2.48573e-05
-2.36737e-05
-2.25302e-05
-0.00015335
-0.000151309
-0.000149066
-0.000146644
-0.000144077
-0.000141391
-0.000138601
-0.000135727
-0.000132786
-0.000129793
-0.000126765
-0.000123714
-0.000120653
-0.000117592
-0.000114542
-0.00011151
-0.000108506
-0.000105536
-0.000102605
-9.97196e-05
-9.68833e-05
-9.41002e-05
-9.13732e-05
-8.87049e-05
-8.60974e-05
-8.35522e-05
-0.000164626
-0.000162152
-0.000159483
-0.000156642
-0.000153666
-0.00015058
-0.000147402
-0.000144151
-0.000140845
-0.0001375
-0.000134132
-0.000130755
-0.000127379
-0.000124017
-0.000120679
-0.000117372
-0.000114104
-0.000110883
-0.000107713
-0.0001046
-0.000101547
-9.85577e-05
-9.56352e-05
-9.27814e-05
-8.99979e-05
-8.72856e-05
-0.000176178
-0.00017324
-0.000170116
-0.00016683
-0.000163419
-0.00015991
-0.000156322
-0.000152674
-0.000148984
-0.00014527
-0.000141547
-0.000137829
-0.000134127
-0.000130452
-0.000126815
-0.000123224
-0.000119685
-0.000116205
-0.00011279
-0.000109443
-0.000106169
-0.000102971
-9.98493e-05
-9.68073e-05
-9.38456e-05
-9.09648e-05
-0.000188004
-0.000184571
-0.000180962
-0.000177201
-0.000173329
-0.000169373
-0.000165352
-0.000161286
-0.000157194
-0.000153093
-0.000148999
-0.000144925
-0.000140884
-0.000136885
-0.000132939
-0.000129054
-0.000125236
-0.000121492
-0.000117825
-0.00011424
-0.000110741
-0.000107329
-0.000104006
-0.000100774
-9.7632e-05
-9.45814e-05
-0.000200103
-0.00019614
-0.000192013
-0.000187748
-0.000183387
-0.000178958
-0.000174481
-0.000169975
-0.000165461
-0.000160955
-0.000156474
-0.000152031
-0.000147637
-0.000143304
-0.000139039
-0.000134851
-0.000130747
-0.000126731
-0.000122807
-0.00011898
-0.000115251
-0.000111623
-0.000108096
-0.000104671
-0.000101348
-9.81269e-05
-0.00021247
-0.000207941
-0.000203263
-0.000198463
-0.000193584
-0.000188655
-0.000183696
-0.000178729
-0.000173772
-0.000168844
-0.00016396
-0.000159132
-0.000154374
-0.000149694
-0.000145101
-0.000140602
-0.000136204
-0.00013191
-0.000127724
-0.00012365
-0.000119689
-0.000115841
-0.000112108
-0.00010849
-0.000104985
-0.000101593
-0.000225101
-0.000219968
-0.000214702
-0.000209334
-0.000203906
-0.000198449
-0.000192985
-0.000187533
-0.000182114
-0.000176744
-0.00017144
-0.000166215
-0.000161078
-0.00015604
-0.00015111
-0.000146292
-0.000141593
-0.000137015
-0.000132563
-0.000128239
-0.000124042
-0.000119973
-0.000116033
-0.00011222
-0.000108532
-0.000104969
-0.000237987
-0.000232209
-0.000226319
-0.000220348
-0.00021434
-0.000208327
-0.00020233
-0.000196371
-0.000190468
-0.000184639
-0.000178899
-0.00017326
-0.000167734
-0.000162328
-0.00015705
-0.000151906
-0.000146899
-0.000142034
-0.000137311
-0.000132732
-0.000128298
-0.000124007
-0.000119858
-0.00011585
-0.000111981
-0.000108247
-0.00025112
-0.000244654
-0.0002381
-0.00023149
-0.000224869
-0.000218271
-0.000211715
-0.000205224
-0.000198816
-0.000192509
-0.000186317
-0.000180251
-0.000174322
-0.000168538
-0.000162905
-0.000157427
-0.000152108
-0.000146949
-0.000141953
-0.000137118
-0.000132444
-0.00012793
-0.000123573
-0.00011937
-0.00011532
-0.000111418
-0.000264486
-0.000257288
-0.000250029
-0.000242742
-0.000235475
-0.00022826
-0.000221118
-0.000214071
-0.000207137
-0.000200334
-0.000193674
-0.000187168
-0.000180825
-0.000174653
-0.000168656
-0.000162838
-0.000157201
-0.000151746
-0.000146473
-0.00014138
-0.000136466
-0.000131729
-0.000127164
-0.000122769
-0.000118539
-0.000114469
-0.00027807
-0.000270092
-0.000262086
-0.000254083
-0.000246134
-0.000238272
-0.000230517
-0.00022289
-0.00021541
-0.000208091
-0.000200947
-0.000193988
-0.000187221
-0.000180651
-0.000174284
-0.00016812
-0.000162162
-0.000156407
-0.000150856
-0.000145505
-0.000140351
-0.000135391
-0.00013062
-0.000126034
-0.000121626
-0.000117393
-0.000291855
-0.000283048
-0.000274248
-0.00026549
-0.000256824
-0.000248283
-0.000239887
-0.000231655
-0.000223607
-0.000215756
-0.000208113
-0.000200688
-0.000193486
-0.000186512
-0.000179768
-0.000173254
-0.000166971
-0.000160915
-0.000155085
-0.000149476
-0.000144083
-0.000138902
-0.000133928
-0.000129153
-0.000124572
-0.000120178
-0.000305818
-0.000296129
-0.00028649
-0.000276936
-0.000267516
-0.000258263
-0.000249198
-0.000240338
-0.000231702
-0.000223301
-0.000215146
-0.000207243
-0.000199597
-0.000192211
-0.000185085
-0.000178218
-0.000171608
-0.000165251
-0.000159142
-0.000153276
-0.000147647
-0.000142249
-0.000137073
-0.000132114
-0.000127363
-0.000122813
-0.000319933
-0.000309309
-0.000298783
-0.000288389
-0.000278177
-0.000268182
-0.000258419
-0.000248909
-0.000239664
-0.000230697
-0.000222016
-0.000213625
-0.000205528
-0.000197725
-0.000190213
-0.000182991
-0.000176053
-0.000169395
-0.00016301
-0.00015689
-0.000151027
-0.000145415
-0.000140044
-0.000134905
-0.00012999
-0.000125289
-0.00033417
-0.000322554
-0.000311091
-0.000299814
-0.000288775
-0.000278003
-0.000267517
-0.000257332
-0.00024746
-0.000237913
-0.000228694
-0.000219806
-0.000211251
-0.000203026
-0.000195127
-0.000187549
-0.000180285
-0.000173327
-0.000166668
-0.000160298
-0.000154208
-0.000148387
-0.000142825
-0.000137512
-0.000132439
-0.000127594
-0.000348493
-0.000335828
-0.000323377
-0.000311174
-0.000299268
-0.000287689
-0.000276452
-0.000265571
-0.000255055
-0.000244913
-0.000235146
-0.000225754
-0.000216736
-0.000208087
-0.0001998
-0.000191867
-0.000184279
-0.000177027
-0.000170099
-0.000163484
-0.000157171
-0.000151148
-0.000145403
-0.000139924
-0.000134699
-0.000129717
-0.000362861
-0.000349087
-0.000335598
-0.000322424
-0.000309614
-0.000297197
-0.000285184
-0.000273585
-0.00026241
-0.000251661
-0.000241337
-0.000231436
-0.000221953
-0.000212879
-0.000204205
-0.000195921
-0.000188014
-0.000180471
-0.000173281
-0.000166429
-0.000159901
-0.000153684
-0.000147764
-0.000142126
-0.000136759
-0.000131649
-0.000377228
-0.000362284
-0.000347703
-0.000333515
-0.000319765
-0.000306479
-0.000293666
-0.000281333
-0.000269483
-0.000258117
-0.000247231
-0.000236818
-0.000226869
-0.000217372
-0.000208315
-0.000199685
-0.000191464
-0.00018364
-0.000176195
-0.000169114
-0.000162381
-0.000155979
-0.000149893
-0.000144108
-0.000138607
-0.000133378
-0.000391541
-0.000375365
-0.00035964
-0.000344393
-0.000329668
-0.000315485
-0.00030185
-0.000288765
-0.00027623
-0.00026424
-0.000252788
-0.000241861
-0.000231448
-0.000221533
-0.000212099
-0.000203131
-0.000194607
-0.000186509
-0.00017882
-0.000171521
-0.000164594
-0.000158018
-0.000151778
-0.000145855
-0.000140233
-0.000134895
-0.000215527
-0.000206229
-0.000197413
-0.000189056
-0.000181135
-0.000173631
-0.000166522
-0.000159786
-0.000153404
-0.000147356
-0.000141624
-0.00013619
0.000198395
0.000194867
0.000191383
0.000187945
0.000184555
0.000181211
0.000177912
0.000174659
0.000171453
0.000168292
0.000165177
0.000162107
0.000159083
0.000156105
0.000153172
0.000150284
0.00014744
0.000144641
0.000141887
0.000139176
0.000136509
0.000133885
0.000131305
0.000128767
0.000126271
0.000123818
0.000198041
0.000194511
0.000191027
0.000187589
0.000184198
0.000180854
0.000177555
0.000174302
0.000171096
0.000167936
0.000164821
0.000161753
0.00015873
0.000155753
0.000152822
0.000149935
0.000147093
0.000144296
0.000141544
0.000138835
0.000136171
0.000133549
0.000130971
0.000128436
0.000125943
0.000123493
0.000197352
0.00019382
0.000190333
0.000186894
0.000183503
0.000180158
0.000176859
0.000173607
0.000170402
0.000167243
0.00016413
0.000161063
0.000158043
0.000155069
0.00015214
0.000149256
0.000146418
0.000143625
0.000140877
0.000138173
0.000135512
0.000132896
0.000130323
0.000127793
0.000125306
0.000122861
0.000196343
0.000192808
0.00018932
0.000185879
0.000182487
0.000179141
0.000175843
0.000172591
0.000169387
0.00016623
0.00016312
0.000160056
0.000157039
0.000154069
0.000151144
0.000148266
0.000145433
0.000142645
0.000139903
0.000137205
0.000134552
0.000131943
0.000129377
0.000126855
0.000124376
0.000121939
0.000195031
0.000191492
0.000188001
0.000184558
0.000181165
0.000177819
0.000174521
0.00017127
0.000168068
0.000164913
0.000161806
0.000158747
0.000155734
0.000152769
0.00014985
0.000146978
0.000144152
0.000141372
0.000138638
0.000135949
0.000133304
0.000130705
0.000128149
0.000125637
0.000123168
0.000120742
0.000193427
0.000189884
0.000186389
0.000182944
0.000179549
0.000176203
0.000172906
0.000169657
0.000166457
0.000163306
0.000160203
0.000157149
0.000154142
0.000151184
0.000148272
0.000145408
0.000142591
0.000139821
0.000137096
0.000134418
0.000131785
0.000129196
0.000126653
0.000124154
0.000121698
0.000119286
0.000191542
0.000187994
0.000184496
0.000181049
0.000177653
0.000174307
0.000171011
0.000167764
0.000164568
0.000161421
0.000158324
0.000155276
0.000152276
0.000149326
0.000146423
0.000143569
0.000140763
0.000138003
0.000135291
0.000132625
0.000130006
0.000127432
0.000124903
0.000122419
0.000119979
0.000117583
0.000189386
0.000185834
0.000182332
0.000178883
0.000175486
0.000172141
0.000168846
0.000165603
0.000162411
0.000159269
0.000156179
0.000153138
0.000150147
0.000147207
0.000144315
0.000141472
0.000138678
0.000135933
0.000133235
0.000130584
0.00012798
0.000125422
0.000122911
0.000120444
0.000118023
0.000115646
0.000186968
0.000183411
0.000179906
0.000176455
0.000173058
0.000169714
0.000166422
0.000163182
0.000159996
0.000156861
0.000153778
0.000150747
0.000147766
0.000144837
0.000141958
0.000139129
0.00013635
0.00013362
0.000130938
0.000128304
0.000125719
0.00012318
0.000120688
0.000118242
0.000115842
0.000113486
0.000184296
0.000180734
0.000177226
0.000173773
0.000170377
0.000167034
0.000163746
0.000160512
0.000157332
0.000154205
0.000151132
0.000148111
0.000145143
0.000142227
0.000139363
0.000136549
0.000133787
0.000131075
0.000128412
0.000125798
0.000123233
0.000120716
0.000118246
0.000115823
0.000113446
0.000111115
0.000181376
0.000177809
0.000174298
0.000170845
0.00016745
0.00016411
0.000160827
0.000157599
0.000154427
0.00015131
0.000148248
0.00014524
0.000142286
0.000139386
0.000136538
0.000133743
0.000130999
0.000128307
0.000125666
0.000123074
0.000120533
0.00011804
0.000115595
0.000113198
0.000110848
0.000108544
0.000178213
0.000174642
0.00017113
0.000167677
0.000164284
0.000160949
0.000157672
0.000154452
0.00015129
0.000148184
0.000145135
0.000142142
0.000139204
0.000136321
0.000133493
0.000130718
0.000127996
0.000125327
0.000122709
0.000120143
0.000117627
0.000115161
0.000112744
0.000110376
0.000108055
0.000105781
0.000174813
0.000171239
0.000167726
0.000164274
0.000160885
0.000157556
0.000154286
0.000151076
0.000147926
0.000144834
0.0001418
0.000138824
0.000135905
0.000133042
0.000130235
0.000127483
0.000124785
0.000122142
0.000119551
0.000117013
0.000114526
0.00011209
0.000109704
0.000107367
0.000105079
0.000102838
0.000171181
0.000167605
0.000164092
0.000160643
0.000157259
0.000153937
0.000150677
0.000147479
0.000144342
0.000141266
0.00013825
0.000135293
0.000132395
0.000129555
0.000126772
0.000124046
0.000121376
0.00011876
0.000116199
0.000113692
0.000111237
0.000108834
0.000106482
0.00010418
0.000101927
9.97225e-05
0.00016732
0.000163743
0.000160232
0.000156788
0.000153411
0.000150099
0.00014685
0.000143666
0.000140545
0.000137487
0.000134491
0.000131556
0.000128682
0.000125867
0.000123112
0.000120414
0.000117774
0.00011519
0.000112662
0.000110189
0.000107769
0.000105402
0.000103087
0.000100823
9.86089e-05
9.64442e-05
0.000163234
0.000159658
0.000156151
0.000152713
0.000149345
0.000146044
0.00014281
0.000139642
0.00013654
0.000133502
0.000130529
0.000127619
0.000124772
0.000121986
0.000119261
0.000116595
0.000113988
0.000111439
0.000108947
0.000106511
0.00010413
0.000101802
9.95277e-05
9.73051e-05
9.51333e-05
9.30114e-05
0.000158926
0.000155353
0.000151851
0.000148422
0.000145065
0.000141779
0.000138561
0.000135412
0.000132332
0.000129318
0.000126371
0.000123489
0.000120672
0.000117918
0.000115226
0.000112595
0.000110025
0.000107515
0.000105062
0.000102667
0.000100327
9.80428e-05
9.58122e-05
9.36344e-05
9.15082e-05
8.94326e-05
0.0001544
0.000150831
0.000147337
0.000143919
0.000140577
0.000137307
0.000134108
0.000130982
0.000127926
0.000124939
0.000122021
0.000119171
0.000116387
0.000113668
0.000111013
0.000108422
0.000105892
0.000103423
0.000101014
9.86629e-05
9.63691e-05
9.41312e-05
9.19482e-05
8.98188e-05
8.77418e-05
8.57161e-05
0.000149657
0.000146095
0.000142612
0.000139208
0.000135882
0.000132632
0.000129456
0.000126355
0.000123327
0.000120371
0.000117486
0.000114671
0.000111924
0.000109244
0.00010663
0.000104081
0.000101596
9.91723e-05
9.68099e-05
9.45071e-05
9.22626e-05
9.00751e-05
8.79434e-05
8.58662e-05
8.38421e-05
8.18699e-05
0.0001447
0.000141148
0.000137678
0.000134291
0.000130985
0.000127758
0.000124609
0.000121537
0.000118541
0.000115619
0.00011277
0.000109994
0.000107288
0.000104651
0.000102082
9.95794e-05
9.71421e-05
9.47684e-05
9.2457e-05
9.02064e-05
8.80152e-05
8.58821e-05
8.38056e-05
8.17843e-05
7.98169e-05
7.79019e-05
0.000139532
0.000135993
0.000132539
0.000129172
0.00012589
0.00012269
0.000119571
0.000116531
0.000113571
0.000110687
0.000107879
0.000105145
0.000102484
9.98949e-05
9.7375e-05
9.49233e-05
9.25383e-05
9.02185e-05
8.79622e-05
8.57679e-05
8.36342e-05
8.15594e-05
7.95421e-05
7.75808e-05
7.56739e-05
7.38201e-05
0.000134153
0.000130631
0.000127198
0.000123854
0.0001206
0.000117431
0.000114345
0.000111343
0.000108422
0.000105581
0.000102818
0.000100131
9.752e-05
9.4982e-05
9.25156e-05
9.01191e-05
8.77909e-05
8.55292e-05
8.33324e-05
8.11988e-05
7.91267e-05
7.71145e-05
7.51605e-05
7.32632e-05
7.1421e-05
6.96321e-05
0.000128567
0.000125065
0.000121656
0.00011834
0.000115118
0.000111983
0.000108936
0.000105975
0.000103099
0.000100305
9.75913e-05
9.4957e-05
9.23999e-05
8.99181e-05
8.75098e-05
8.51731e-05
8.29062e-05
8.07073e-05
7.85745e-05
7.6506e-05
7.45e-05
7.25547e-05
7.06684e-05
6.88392e-05
6.70656e-05
6.53458e-05
0.000122776
0.000119297
0.000115916
0.000112634
0.000109447
0.000106352
0.000103348
0.000100433
9.76059e-05
9.48638e-05
9.22051e-05
8.96277e-05
8.71297e-05
8.4709e-05
8.23637e-05
8.00917e-05
7.7891e-05
7.57596e-05
7.36954e-05
7.16967e-05
6.97613e-05
6.78873e-05
6.6073e-05
6.43163e-05
6.26155e-05
6.09688e-05
0.00011678
0.000113331
0.000109982
0.000106737
0.000103591
0.000100541
9.7585e-05
9.47214e-05
9.19483e-05
8.92633e-05
8.66642e-05
8.41489e-05
8.17152e-05
7.93608e-05
7.70836e-05
7.48813e-05
7.27517e-05
7.06927e-05
6.87022e-05
6.67779e-05
6.49177e-05
6.31197e-05
6.13818e-05
5.97019e-05
5.80782e-05
5.65087e-05
0.000110583
0.000107166
0.000103856
0.000100653
9.75533e-05
9.45531e-05
9.16506e-05
8.88437e-05
8.61303e-05
8.35079e-05
8.0974e-05
7.85263e-05
7.61623e-05
7.38795e-05
7.16757e-05
6.95484e-05
6.74951e-05
6.55137e-05
6.36016e-05
6.17567e-05
5.99766e-05
5.82592e-05
5.66023e-05
5.50037e-05
5.34614e-05
5.19733e-05
0.000104185
0.000100808
9.75406e-05
9.43847e-05
9.13372e-05
8.83926e-05
8.55492e-05
8.28048e-05
8.01569e-05
7.76028e-05
7.51398e-05
7.27653e-05
7.04767e-05
6.82713e-05
6.61464e-05
6.40994e-05
6.21279e-05
6.02292e-05
5.84008e-05
5.66403e-05
5.49452e-05
5.33132e-05
5.17419e-05
5.0229e-05
4.87725e-05
4.737e-05
9.75898e-05
9.42563e-05
9.10384e-05
8.79361e-05
8.49463e-05
8.20633e-05
7.92851e-05
7.66092e-05
7.40329e-05
7.15532e-05
6.91672e-05
6.68719e-05
6.46646e-05
6.25422e-05
6.0502e-05
5.85412e-05
5.66568e-05
5.48463e-05
5.31069e-05
5.14359e-05
4.98308e-05
4.8289e-05
4.6808e-05
4.53855e-05
4.40191e-05
4.27065e-05
9.07985e-05
8.75152e-05
8.43524e-05
8.131e-05
7.83843e-05
7.55693e-05
7.28627e-05
7.02617e-05
6.77634e-05
6.53645e-05
6.30617e-05
6.0852e-05
5.8732e-05
5.66988e-05
5.47493e-05
5.28803e-05
5.10888e-05
4.9372e-05
4.7727e-05
4.61508e-05
4.46408e-05
4.31941e-05
4.18083e-05
4.04807e-05
3.92089e-05
3.79904e-05
8.38135e-05
8.05869e-05
7.74859e-05
7.45099e-05
7.16551e-05
6.89148e-05
6.62865e-05
6.37673e-05
6.13537e-05
5.90422e-05
5.68292e-05
5.47114e-05
5.26853e-05
5.07475e-05
4.88947e-05
4.71236e-05
4.54309e-05
4.38136e-05
4.22684e-05
4.07924e-05
3.93825e-05
3.80361e-05
3.67502e-05
3.55221e-05
3.43493e-05
3.32292e-05
7.66371e-05
7.34742e-05
7.04419e-05
6.75396e-05
6.47627e-05
6.21043e-05
5.95614e-05
5.7131e-05
5.48091e-05
5.2592e-05
5.04757e-05
4.84566e-05
4.65309e-05
4.4695e-05
4.29453e-05
4.12782e-05
3.96903e-05
3.81781e-05
3.67384e-05
3.5368e-05
3.40636e-05
3.28224e-05
3.16412e-05
3.05173e-05
2.9448e-05
2.84305e-05
6.92719e-05
6.618e-05
6.32239e-05
6.04027e-05
5.77112e-05
5.51422e-05
5.26923e-05
5.03581e-05
4.81353e-05
4.60197e-05
4.40072e-05
4.20938e-05
4.02754e-05
3.8548e-05
3.69079e-05
3.53511e-05
3.3874e-05
3.2473e-05
3.11445e-05
2.98851e-05
2.86915e-05
2.75605e-05
2.6489e-05
2.54739e-05
2.45124e-05
2.36018e-05
6.17206e-05
5.87075e-05
5.58355e-05
5.31033e-05
5.05052e-05
4.80334e-05
4.56844e-05
4.3454e-05
4.13379e-05
3.93314e-05
3.74301e-05
3.56296e-05
3.39254e-05
3.23135e-05
3.07896e-05
2.93496e-05
2.79895e-05
2.67056e-05
2.54941e-05
2.43513e-05
2.32738e-05
2.22581e-05
2.13011e-05
2.03994e-05
1.95502e-05
1.87505e-05
5.39861e-05
5.10601e-05
4.82805e-05
4.56457e-05
4.31493e-05
4.0783e-05
3.85429e-05
3.64245e-05
3.44231e-05
3.25335e-05
3.07509e-05
2.90707e-05
2.74881e-05
2.59986e-05
2.45976e-05
2.32809e-05
2.20443e-05
2.08836e-05
1.97949e-05
1.87743e-05
1.78181e-05
1.69229e-05
1.60851e-05
1.53014e-05
1.45688e-05
1.38842e-05
4.60715e-05
4.32414e-05
4.0563e-05
3.80344e-05
3.56484e-05
3.33962e-05
3.12735e-05
2.92756e-05
2.7397e-05
2.56323e-05
2.39764e-05
2.24241e-05
2.09704e-05
1.96105e-05
1.83394e-05
1.71527e-05
1.60459e-05
1.50145e-05
1.40544e-05
1.31616e-05
1.23321e-05
1.15623e-05
1.08486e-05
1.01874e-05
9.57563e-06
9.01007e-06
3.79803e-05
3.52553e-05
3.26873e-05
3.0274e-05
2.80075e-05
2.58785e-05
2.38822e-05
2.20133e-05
2.02661e-05
1.86346e-05
1.71134e-05
1.56969e-05
1.43797e-05
1.31566e-05
1.20225e-05
1.09726e-05
1.00019e-05
9.10603e-06
8.28047e-06
7.52098e-06
6.8235e-06
6.18413e-06
5.59913e-06
5.06494e-06
4.57816e-06
4.13557e-06
2.97161e-05
2.71058e-05
2.4658e-05
2.23697e-05
2.02323e-05
1.82357e-05
1.63749e-05
1.46441e-05