/*--------------------------------*- C++ -*----------------------------------*\
| =========                 |                                                 |
| \\      /  F ield         | OpenFOAM: The Open Source CFD Toolbox           |
|  \\    /   O peration     | Version:  2412                                  |
|   \\  /    A nd           | Website:  www.openfoam.com                      |
|    \\/     M anipulation  |                                                 |
\*---------------------------------------------------------------------------*/
FoamFile
{
    version     2.0;
    format      ascii;
    arch        "LSB;label=32;scalar=64";
    class       surfaceScalarField;
    location    "8.5";
    object      phi;
}
// * * * * * * * * * * * * * * * * * * * * * * * * * * * * * * * * * * * * * //

dimensions      [0 3 -1 0 0 0 0];

oriented        oriented;

internalField   nonuniform List<scalar> 
10424
(
0.00534384
0.000166198
-0.0053474
-0.000162636
0.00534036
0.000166801
-0.00016333
0.00533699
0.000167284
-0.000163907
0.00533371
0.000167645
-0.000164366
0.00533053
0.000167882
-0.000164704
0.00532746
0.000167994
-0.000164921
0.00532449
0.000167981
-0.000165015
0.00532163
0.000167843
-0.000164987
0.00531889
0.00016758
-0.000164836
0.00531626
0.000167192
-0.000164562
0.00531374
0.000166679
-0.000164164
0.00531135
0.000166042
-0.000163644
0.00530907
0.00016528
-0.000163
0.0053069
0.000164394
-0.000162232
0.00530486
0.000163385
-0.000161342
0.00530294
0.000162255
-0.000160331
0.00530113
0.000161008
-0.000159203
0.00529944
0.000159647
-0.000157961
0.00529788
0.00015818
-0.000156611
0.00529642
0.00015661
-0.000155158
0.00529509
0.000154943
-0.000153606
0.00529386
0.000153182
-0.000151957
0.00529275
0.000151328
-0.000150212
0.00529174
0.000149383
-0.000148373
0.00529083
0.000147346
-0.000146437
0.00529002
0.000145219
-0.000144407
0.0052893
0.000143001
-0.000142283
0.00528867
0.000140696
-0.000140066
0.00528812
0.000138306
-0.000137759
0.00528765
0.000135836
-0.000135368
0.00528726
0.000133289
-0.000132895
0.00528694
0.000130671
-0.000130347
0.00528668
0.000127987
-0.000127729
0.00528648
0.000125243
-0.000125047
0.00528634
0.000122445
-0.000122306
0.00528626
0.000119599
-0.000119513
0.00528622
0.000116709
-0.000116672
0.00528623
0.000113782
-0.000113791
0.00528628
0.000110824
-0.000110874
0.00528637
0.000107839
-0.000107927
0.00528649
0.000104834
-0.000104956
0.00528664
0.000101813
-0.000101965
0.00528682
9.87817e-05
-9.89614e-05
9.57448e-05
-9.59488e-05
0.00534092
0.000169791
-0.00534452
0.00533743
0.000170296
0.00533404
0.000170678
0.00533075
0.000170934
0.00532756
0.000171064
0.00532449
0.000171065
0.00532153
0.00017094
0.00531869
0.000170686
0.00531597
0.000170305
0.00531336
0.000169798
0.00531087
0.000169165
0.00530851
0.000168406
0.00530627
0.000167523
0.00530415
0.000166514
0.00530215
0.000165382
0.00530028
0.000164129
0.00529853
0.000162759
0.0052969
0.000161277
0.00529539
0.000159689
0.005294
0.000158
0.00529272
0.000156216
0.00529156
0.000154341
0.00529051
0.000152377
0.00528957
0.000150325
0.00528873
0.000148186
0.00528799
0.00014596
0.00528734
0.00014365
0.00528678
0.000141256
0.00528631
0.000138783
0.00528591
0.000136233
0.00528558
0.000133612
0.00528533
0.000130925
0.00528514
0.000128176
0.00528501
0.000125372
0.00528494
0.000122518
0.00528492
0.000119619
0.00528495
0.000116682
0.00528502
0.000113711
0.00528513
0.000110713
0.00528528
0.000107692
0.00528546
0.000104654
0.00528566
0.000101605
0.0052859
9.85475e-05
9.54882e-05
0.00533785
0.000173409
-0.00534146
0.00533433
0.00017381
0.00533093
0.000174084
0.00532763
0.000174229
0.00532445
0.000174244
0.00532139
0.000174129
0.00531844
0.000173884
0.00531562
0.000173509
0.00531292
0.000173006
0.00531034
0.000172374
0.00530789
0.000171616
0.00530557
0.000170731
0.00530337
0.000169721
0.0053013
0.000168585
0.00529936
0.000167327
0.00529754
0.000165948
0.00529584
0.000164452
0.00529428
0.000162846
0.00529283
0.000161134
0.00529151
0.000159324
0.0052903
0.000157422
0.00528921
0.000155431
0.00528823
0.000153355
0.00528736
0.000151196
0.0052866
0.000148953
0.00528593
0.00014663
0.00528535
0.000144226
0.00528486
0.000141744
0.00528446
0.000139187
0.00528413
0.000136559
0.00528388
0.000133864
0.0052837
0.000131108
0.00528358
0.000128295
0.00528352
0.000125431
0.00528352
0.000122522
0.00528356
0.000119573
0.00528366
0.000116589
0.00528379
0.000113576
0.00528396
0.00011054
0.00528417
0.000107485
0.00528441
0.000104416
0.00528467
0.000101339
0.00528496
9.82582e-05
9.51784e-05
0.00533459
0.000177047
-0.00533823
0.00533106
0.000177337
0.00532765
0.000177496
0.00532436
0.000177522
0.00532118
0.000177417
0.00531813
0.000177178
0.00531521
0.000176808
0.00531241
0.000176306
0.00530974
0.000175674
0.00530721
0.000174913
0.0053048
0.000174025
0.00530252
0.000173009
0.00530037
0.000171868
0.00529835
0.000170602
0.00529647
0.000169214
0.00529471
0.000167705
0.00529308
0.000166081
0.00529158
0.000164347
0.00529021
0.00016251
0.00528895
0.000160577
0.00528782
0.000158554
0.0052868
0.000156447
0.0052859
0.000154259
0.00528511
0.000151991
0.00528441
0.000149645
0.00528382
0.000147223
0.00528332
0.000144726
0.00528291
0.000142155
0.00528258
0.000139515
0.00528233
0.000136809
0.00528215
0.000134042
0.00528204
0.000131217
0.00528199
0.000128342
0.00528201
0.00012542
0.00528207
0.000122457
0.00528218
0.000119458
0.00528234
0.00011643
0.00528254
0.000113377
0.00528278
0.000110304
0.00528305
0.000107216
0.00528335
0.000104118
0.00528367
0.000101016
0.00528402
9.79131e-05
9.48146e-05
0.00533114
0.000180699
-0.00533479
0.0053276
0.000180869
0.00532419
0.000180906
0.00532091
0.000180808
0.00531775
0.000180574
0.00531472
0.000180206
0.00531182
0.000179705
0.00530906
0.00017907
0.00530643
0.000178304
0.00530393
0.000177409
0.00530157
0.000176385
0.00529935
0.000175235
0.00529726
0.000173959
0.0052953
0.000172558
0.00529348
0.000171036
0.00529179
0.000169394
0.00529023
0.000167638
0.0052888
0.000165775
0.0052875
0.000163811
0.00528633
0.000161753
0.00528527
0.000159609
0.00528434
0.000157385
0.00528351
0.000155083
0.0052828
0.000152707
0.00528218
0.000150258
0.00528167
0.000147737
0.00528125
0.000145147
0.00528091
0.000142489
0.00528066
0.000139766
0.00528049
0.000136983
0.00528039
0.000134143
0.00528035
0.000131252
0.00528038
0.000128315
0.00528047
0.000125336
0.0052806
0.000122321
0.00528079
0.000119275
0.00528101
0.000116203
0.00528128
0.000113111
0.00528158
0.000110003
0.00528191
0.000106884
0.00528227
0.00010376
0.00528265
0.000100634
0.00528305
9.75115e-05
9.43962e-05
0.00532748
0.000184357
-0.00533114
0.00532395
0.000184401
0.00532054
0.000184308
0.00531727
0.000184077
0.00531414
0.00018371
0.00531114
0.000183206
0.00530828
0.000182567
0.00530555
0.000181794
0.00530297
0.000180889
0.00530052
0.000179854
0.00529822
0.00017869
0.00529605
0.0001774
0.00529403
0.000175985
0.00529214
0.000174446
0.00529039
0.000172787
0.00528877
0.000171009
0.00528729
0.000169119
0.00528594
0.000167124
0.00528472
0.000165031
0.00528363
0.000162847
0.00528266
0.000160581
0.0052818
0.000158239
0.00528106
0.000155823
0.00528043
0.000153339
0.0052799
0.000150786
0.00527947
0.000148168
0.00527913
0.000145485
0.00527888
0.00014274
0.00527871
0.000139936
0.00527862
0.000137077
0.0052786
0.000134166
0.00527864
0.000131209
0.00527874
0.000128211
0.0052789
0.000125177
0.00527911
0.000122111
0.00527936
0.00011902
0.00527966
0.000115907
0.00527999
0.000112777
0.00528036
0.000109637
0.00528075
0.00010649
0.00528117
0.00010334
0.00528162
0.000100193
0.00528207
9.70525e-05
9.39227e-05
0.0053236
0.000188014
-0.00532726
0.00532008
0.000187923
0.00531669
0.000187693
0.00531345
0.000187324
0.00531034
0.000186815
0.00530738
0.000186169
0.00530456
0.000185386
0.00530188
0.000184469
0.00529935
0.000183419
0.00529697
0.000182239
0.00529473
0.000180932
0.00529263
0.000179498
0.00529067
0.00017794
0.00528886
0.000176259
0.00528719
0.000174459
0.00528566
0.000172543
0.00528426
0.000170517
0.00528299
0.000168388
0.00528186
0.000166164
0.00528085
0.000163853
0.00527997
0.000161465
0.00527921
0.000159004
0.00527855
0.000156475
0.00527801
0.000153882
0.00527757
0.000151227
0.00527723
0.000148512
0.00527697
0.000145737
0.00527681
0.000142906
0.00527672
0.000140021
0.00527671
0.000137087
0.00527677
0.000134107
0.00527689
0.000131087
0.00527707
0.00012803
0.00527731
0.000124942
0.00527759
0.000121827
0.00527792
0.000118692
0.00527829
0.000115539
0.00527869
0.000112375
0.00527912
0.000109204
0.00527958
0.00010603
0.00528007
0.000102858
0.00528057
9.96918e-05
0.00528108
9.65356e-05
9.33934e-05
0.00531949
0.00019166
-0.00532314
0.00531599
0.000191428
0.00531263
0.000191053
0.00530942
0.000190537
0.00530635
0.000189881
0.00530343
0.000189085
0.00530067
0.000188153
0.00529805
0.000187086
0.00529558
0.000185887
0.00529326
0.000184558
0.00529109
0.000183101
0.00528907
0.00018152
0.0052872
0.000179815
0.00528547
0.00017799
0.00528388
0.000176046
0.00528243
0.000173989
0.00528113
0.000171824
0.00527995
0.00016956
0.00527891
0.000167204
0.005278
0.000164766
0.00527721
0.000162254
0.00527654
0.000159675
0.00527598
0.000157033
0.00527553
0.000154333
0.00527518
0.000151576
0.00527493
0.000148764
0.00527477
0.000145899
0.00527469
0.000142983
0.0052747
0.000140019
0.00527477
0.000137012
0.00527492
0.000133964
0.00527512
0.000130881
0.00527538
0.000127768
0.0052757
0.000124628
0.00527606
0.000121467
0.00527646
0.000118289
0.0052769
0.0001151
0.00527737
0.000111903
0.00527787
0.000108704
0.0052784
0.000105505
0.00527894
0.000102313
0.0052795
9.91296e-05
0.00528008
9.596e-05
9.28076e-05
0.00531515
0.000195287
-0.00531878
0.00531167
0.000194905
0.00530835
0.000194378
0.00530518
0.000193708
0.00530216
0.000192897
0.0052993
0.000191947
0.00529659
0.000190859
0.00529404
0.000189637
0.00529165
0.000188283
0.0052894
0.0001868
0.00528732
0.00018519
0.00528538
0.000183457
0.00528359
0.000181603
0.00528195
0.000179629
0.00528046
0.00017754
0.00527911
0.000175339
0.0052779
0.000173034
0.00527682
0.000170633
0.00527588
0.000168144
0.00527507
0.000165578
0.00527438
0.000162943
0.00527381
0.000160246
0.00527335
0.000157492
0.005273
0.000154685
0.00527275
0.000151827
0.00527259
0.00014892
0.00527253
0.000145966
0.00527254
0.000142967
0.00527264
0.000139926
0.0052728
0.000136847
0.00527303
0.000133734
0.00527332
0.000130591
0.00527367
0.000127422
0.00527406
0.000124233
0.0052745
0.000121028
0.00527498
0.000117811
0.00527549
0.000114586
0.00527604
0.000111359
0.00527661
0.000108134
0.0052772
0.000104914
0.00527781
0.000101703
0.00527843
9.85055e-05
0.00527907
9.53249e-05
9.21648e-05
0.00531056
0.000198885
-0.00531416
0.00530712
0.000198344
0.00530384
0.000197657
0.00530072
0.000196827
0.00529777
0.000195855
0.00529497
0.000194743
0.00529234
0.000193494
0.00528986
0.000192111
0.00528755
0.000190597
0.00528539
0.000188956
0.00528339
0.000187189
0.00528155
0.000185301
0.00527986
0.000183294
0.00527832
0.000181169
0.00527692
0.000178932
0.00527568
0.000176586
0.00527457
0.00017414
0.0052736
0.0001716
0.00527277
0.000168978
0.00527206
0.000166284
0.00527148
0.000163525
0.00527102
0.000160711
0.00527066
0.000157846
0.00527041
0.000154933
0.00527027
0.000151976
0.00527021
0.000148975
0.00527024
0.000145934
0.00527035
0.000142854
0.00527054
0.000139738
0.0052708
0.00013659
0.00527112
0.000133413
0.0052715
0.000130212
0.00527193
0.000126991
0.00527241
0.000123755
0.00527293
0.000120508
0.00527349
0.000117254
0.00527407
0.000113997
0.00527469
0.000110743
0.00527533
0.000107494
0.00527599
0.000104254
0.00527667
0.000101028
0.00527735
9.78188e-05
0.00527805
9.46297e-05
9.14642e-05
0.00530572
0.000202441
-0.00530927
0.00530233
0.000201733
0.00529911
0.00020088
0.00529605
0.000199882
0.00529316
0.000198742
0.00529044
0.000197463
0.00528789
0.000196047
0.0052855
0.000194498
0.00528328
0.00019282
0.00528122
0.000191016
0.00527932
0.000189089
0.00527758
0.000187043
0.00527599
0.000184879
0.00527456
0.000182602
0.00527328
0.000180214
0.00527214
0.000177722
0.00527115
0.000175132
0.0052703
0.000172455
0.00526958
0.000169699
0.00526898
0.000166876
0.00526851
0.000163996
0.00526816
0.000161065
0.00526792
0.000158089
0.00526778
0.000155073
0.00526774
0.000152018
0.00526778
0.000148926
0.00526792
0.000145799
0.00526813
0.00014264
0.00526842
0.000139452
0.00526877
0.000136236
0.00526919
0.000132999
0.00526966
0.000129742
0.00527018
0.000126472
0.00527074
0.000123191
0.00527134
0.000119905
0.00527198
0.000116617
0.00527264
0.000113331
0.00527334
0.000110052
0.00527405
0.000106782
0.00527478
0.000103526
0.00527552
0.000100287
0.00527627
9.70686e-05
0.00527702
9.38737e-05
9.07055e-05
0.00530061
0.000205943
-0.00530412
0.00529729
0.000205062
0.00529413
0.000204034
0.00529115
0.000202862
0.00528835
0.000201547
0.00528572
0.000200094
0.00528326
0.000198506
0.00528097
0.000196787
0.00527885
0.00019494
0.00527689
0.000192969
0.0052751
0.000190879
0.00527348
0.000188671
0.00527201
0.000186349
0.00527069
0.000183917
0.00526953
0.000181378
0.00526851
0.000178738
0.00526764
0.000176005
0.00526691
0.000173188
0.00526631
0.0001703
0.00526583
0.000167349
0.00526548
0.000164347
0.00526524
0.000161301
0.00526512
0.000158217
0.00526509
0.000155098
0.00526516
0.000151947
0.00526532
0.000148767
0.00526556
0.000145557
0.00526588
0.000142322
0.00526627
0.000139063
0.00526672
0.000135784
0.00526723
0.000132488
0.0052678
0.000129179
0.00526841
0.000125862
0.00526906
0.00012254
0.00526974
0.000119218
0.00527046
0.000115899
0.00527121
0.000112587
0.00527197
0.000109285
0.00527276
0.000105998
0.00527356
0.000102728
0.00527436
9.94793e-05
0.00527518
9.62543e-05
0.005276
9.30563e-05
8.9888e-05
0.00529525
0.000209379
-0.00529868
0.00529199
0.000208316
0.00528892
0.000207106
0.00528603
0.000205752
0.00528332
0.000204257
0.00528079
0.000202625
0.00527843
0.00020086
0.00527625
0.000198965
0.00527425
0.000196946
0.00527241
0.000194806
0.00527074
0.000192548
0.00526924
0.000190177
0.00526789
0.000187695
0.0052667
0.000185106
0.00526567
0.000182414
0.00526478
0.000179625
0.00526404
0.000176749
0.00526343
0.000173794
0.00526296
0.000170772
0.00526261
0.000167695
0.00526239
0.000164573
0.00526227
0.000161413
0.00526227
0.000158222
0.00526236
0.000155004
0.00526255
0.00015176
0.00526282
0.000148493
0.00526318
0.000145204
0.0052636
0.000141895
0.0052641
0.000138569
0.00526465
0.000135229
0.00526526
0.000131878
0.00526592
0.00012852
0.00526663
0.00012516
0.00526737
0.0001218
0.00526814
0.000118444
0.00526894
0.000115097
0.00526977
0.000111762
0.00527061
0.000108442
0.00527147
0.00010514
0.00527234
0.000101859
0.00527321
9.86036e-05
0.00527409
9.53752e-05
0.00527497
9.21769e-05
8.90114e-05
0.0052896
0.000212733
-0.00529296
0.00528644
0.000211481
0.00528346
0.000210082
0.00528067
0.000208541
0.00527807
0.000206859
0.00527565
0.000205043
0.00527342
0.000203096
0.00527136
0.000201022
0.00526948
0.000198826
0.00526777
0.000196513
0.00526624
0.000194086
0.00526486
0.000191549
0.00526365
0.000188905
0.0052626
0.000186158
0.0052617
0.000183313
0.00526095
0.000180376
0.00526035
0.000177356
0.00525988
0.000174263
0.00525954
0.00017111
0.00525933
0.000167908
0.00525923
0.000164667
0.00525925
0.000161396
0.00525937
0.0001581
0.00525959
0.000154785
0.0052599
0.000151451
0.00526029
0.0001481
0.00526076
0.000144734
0.0052613
0.000141355
0.0052619
0.000137965
0.00526257
0.000134568
0.00526328
0.000131165
0.00526404
0.000127762
0.00526483
0.000124362
0.00526567
0.000120967
0.00526653
0.000117582
0.00526742
0.000114211
0.00526832
0.000110856
0.00526924
0.00010752
0.00527018
0.000104207
0.00527112
0.000100919
0.00527206
9.76596e-05
0.005273
9.44307e-05
0.00527395
9.12351e-05
8.80752e-05
0.00528368
0.000215991
-0.00528694
0.00528062
0.000214542
0.00527776
0.000212948
0.00527509
0.000211212
0.00527261
0.000209339
0.00527032
0.000207333
0.00526821
0.0002052
0.00526629
0.000202943
0.00526455
0.000200568
0.00526298
0.000198079
0.00526159
0.000195481
0.00526036
0.000192776
0.0052593
0.00018997
0.00525839
0.000187065
0.00525764
0.000184066
0.00525703
0.000180981
0.00525657
0.000177818
0.00525624
0.000174589
0.00525605
0.000171305
0.00525598
0.000167979
0.00525602
0.000164622
0.00525618
0.000161242
0.00525643
0.000157845
0.00525678
0.000154435
0.00525722
0.000151014
0.00525773
0.000147584
0.00525832
0.000144145
0.00525898
0.000140699
0.00525969
0.000137249
0.00526046
0.000133798
0.00526128
0.000130348
0.00526214
0.000126903
0.00526304
0.000123466
0.00526396
0.000120041
0.00526492
0.000116631
0.00526589
0.000113238
0.00526688
0.000109867
0.00526788
0.000106519
0.00526889
0.000103198
0.0052699
9.99065e-05
0.00527091
9.66464e-05
0.00527192
9.34202e-05
0.00527293
9.02305e-05
8.70792e-05
0.00527748
0.000219136
-0.00528063
0.00527454
0.000217483
0.0052718
0.000215687
0.00526926
0.000213751
0.00526692
0.000211681
0.00526477
0.000209482
0.00526281
0.000207158
0.00526104
0.000204715
0.00525945
0.000202158
0.00525804
0.000199492
0.0052568
0.000196721
0.00525573
0.000193848
0.00525482
0.000190878
0.00525407
0.000187815
0.00525347
0.000184663
0.00525302
0.00018143
0.00525271
0.000178126
0.00525254
0.000174762
0.00525249
0.00017135
0.00525257
0.000167903
0.00525276
0.000164433
0.00525306
0.000160947
0.00525345
0.000157452
0.00525393
0.000153951
0.0052545
0.000150446
0.00525515
0.000146939
0.00525586
0.000143431
0.00525664
0.000139923
0.00525747
0.000136417
0.00525835
0.000132916
0.00525928
0.000129422
0.00526024
0.00012594
0.00526124
0.000122471
0.00526226
0.000119019
0.0052633
0.000115587
0.00526436
0.000112178
0.00526543
0.000108794
0.00526651
0.000105438
0.0052676
0.000102113
0.00526869
9.88208e-05
0.00526977
9.55635e-05
0.00527085
9.23434e-05
0.00527191
8.91626e-05
8.6023e-05
0.00527099
0.00022215
-0.00527401
0.00526819
0.000220287
0.00526559
0.000218282
0.0052632
0.000216142
0.00526101
0.00021387
0.00525902
0.000211473
0.00525722
0.000208956
0.00525561
0.000206325
0.00525419
0.000203584
0.00525294
0.000200739
0.00525187
0.000197794
0.00525096
0.000194753
0.00525022
0.00019162
0.00524964
0.000188399
0.00524921
0.000185095
0.00524892
0.000181716
0.00524878
0.000178272
0.00524876
0.000174775
0.00524888
0.000171237
0.00524911
0.000167672
0.00524945
0.000164091
0.00524989
0.000160503
0.00525043
0.000156913
0.00525106
0.000153325
0.00525176
0.000149741
0.00525254
0.000146162
0.00525338
0.000142589
0.00525428
0.000139022
0.00525523
0.000135465
0.00525623
0.000131919
0.00525727
0.000128386
0.00525833
0.00012487
0.00525943
0.000121374
0.00526055
0.0001179
0.00526169
0.00011445
0.00526284
0.000111028
0.00526399
0.000107636
0.00526516
0.000104276
0.00526632
0.000100951
0.00526748
9.76614e-05
0.00526863
9.44106e-05
0.00526977
9.11999e-05
0.00527091
8.80314e-05
8.49066e-05
0.00526421
0.000225014
-0.00526707
0.00526156
0.000222934
0.00525913
0.000220717
0.0052569
0.000218367
0.00525488
0.00021589
0.00525307
0.000213292
0.00525144
0.000210579
0.00525001
0.000207757
0.00524876
0.000204831
0.0052477
0.000201806
0.0052468
0.000198687
0.00524608
0.000195478
0.00524551
0.000192183
0.00524511
0.000188805
0.00524485
0.000185351
0.00524474
0.000181828
0.00524477
0.000178247
0.00524492
0.000174619
0.0052452
0.000170959
0.00524559
0.00016728
0.00524609
0.000163592
0.00524669
0.000159904
0.00524738
0.000156224
0.00524815
0.000152553
0.005249
0.000148894
0.00524991
0.000145248
0.00525088
0.000141614
0.00525191
0.000137995
0.00525299
0.000134391
0.0052541
0.000130804
0.00525525
0.000127237
0.00525643
0.000123693
0.00525763
0.000120174
0.00525885
0.000116681
0.00526008
0.000113219
0.00526132
0.000109789
0.00526256
0.000106393
0.0052638
0.000103032
0.00526504
9.97103e-05
0.00526628
9.64279e-05
0.0052675
9.31871e-05
0.00526871
8.99894e-05
0.00526991
8.68365e-05
8.37297e-05
0.00525713
0.000227709
-0.00525983
0.00525466
0.000225407
0.00525241
0.000222971
0.00525037
0.000220407
0.00524853
0.000217722
0.0052469
0.000214921
0.00524547
0.00021201
0.00524423
0.000208996
0.00524318
0.000205885
0.00524231
0.00020268
0.0052416
0.000199388
0.00524107
0.000196012
0.0052407
0.000192556
0.00524048
0.000189024
0.00524041
0.000185422
0.00524048
0.000181758
0.00524068
0.000178042
0.00524101
0.000174288
0.00524147
0.000170508
0.00524203
0.000166718
0.00524269
0.000162927
0.00524345
0.000159146
0.0052443
0.000155379
0.00524522
0.000151631
0.00524621
0.000147902
0.00524727
0.000144193
0.00524838
0.000140504
0.00524953
0.000136836
0.00525073
0.000133191
0.00525197
0.000129569
0.00525323
0.000125973
0.00525452
0.000122405
0.00525583
0.000118868
0.00525714
0.000115363
0.00525847
0.000111892
0.0052598
0.000108458
0.00526113
0.000105062
0.00526246
0.000101706
0.00526378
9.83914e-05
0.00526509
9.51199e-05
0.00526638
9.18929e-05
0.00526766
8.87117e-05
0.00526892
8.55779e-05
8.24925e-05
0.00524976
-0.00525226
0.00524748
0.00524543
0.00524359
0.00524196
0.00524054
0.00523932
0.00523828
0.00523744
0.00523677
0.00523627
0.00523594
0.00523577
0.00523575
0.00523588
0.00523614
0.00523653
0.00523705
0.00523768
0.00523842
0.00523925
0.00524018
0.00524119
0.00524226
0.00524341
0.00524461
0.00524586
0.00524715
0.00524848
0.00524984
0.00525122
0.00525262
0.00525403
0.00525545
0.00525687
0.0052583
0.00525971
0.00526112
0.00526252
0.0052639
0.00526527
0.00526661
0.00526794
0.00550322
0.000205214
-0.000196886
0.00549497
0.000207065
-0.000198817
0.00548682
0.000208604
-0.000200455
0.00547879
0.000209832
-0.000201798
0.00547089
0.00021075
-0.000202847
0.00546313
0.000211362
-0.000203602
0.00545552
0.000211674
-0.000204068
0.00544808
0.000211692
-0.000204251
0.00544081
0.000211428
-0.00020416
0.00543373
0.000210892
-0.000203805
0.00542683
0.0002101
-0.0002032
0.00542012
0.000209065
-0.000202359
0.00541361
0.000207803
-0.000201295
0.00540731
0.000206332
-0.000200025
0.0054012
0.000204666
-0.000198563
0.0053953
0.000202823
-0.000196925
0.00538961
0.000200817
-0.000195125
0.00538413
0.000198665
-0.000193179
0.00537884
0.000196381
-0.000191099
0.00537376
0.000193978
-0.0001889
0.00536889
0.000191471
-0.000186593
0.00536421
0.000188871
-0.000184191
0.00535972
0.000186191
-0.000181706
0.00535543
0.000183441
-0.000179148
0.00535132
0.000180633
-0.000176527
0.000177776
-0.000173852
0.00550577
0.000214007
0.00549707
0.00021576
0.0054885
0.00021718
0.00548006
0.000218271
0.00547177
0.000219038
0.00546365
0.000219486
0.0054557
0.000219621
0.00544794
0.000219453
0.00544037
0.000218994
0.00543301
0.000218256
0.00542585
0.000217255
0.00541891
0.000216007
0.00541219
0.000214529
0.00540568
0.000212838
0.00539939
0.000210951
0.00539333
0.000208886
0.00538749
0.000206659
0.00538187
0.000204286
0.00537647
0.000201783
0.00537128
0.000199164
0.00536631
0.000196443
0.00536155
0.000193633
0.00535699
0.000190746
0.00535264
0.000187795
0.00534848
0.00018479
0.00018174
0.00550823
0.000223282
0.00549907
0.000224919
0.00549005
0.0002262
0.00548119
0.000227132
0.0054725
0.000227724
0.005464
0.000227983
0.00545571
0.000227919
0.00544762
0.000227541
0.00543975
0.000226864
0.0054321
0.000225902
0.00542468
0.000224672
0.0054175
0.00022319
0.00541055
0.000221475
0.00540385
0.000219546
0.00539738
0.000217419
0.00539115
0.000215115
0.00538516
0.000212649
0.00537941
0.00021004
0.00537389
0.000207303
0.0053686
0.000204453
0.00536354
0.000201505
0.0053587
0.000198472
0.00535407
0.000195368
0.00534967
0.000192204
0.00534546
0.000188991
0.00018574
0.00551055
0.000233055
0.00550092
0.000234556
0.00549144
0.000235676
0.00548215
0.000236427
0.00547305
0.00023682
0.00546417
0.000236866
0.00545551
0.000236577
0.00544709
0.000235965
0.0054389
0.000235047
0.00543097
0.000233837
0.00542329
0.000232354
0.00541586
0.000230616
0.00540869
0.000228643
0.00540178
0.000226455
0.00539513
0.00022407
0.00538874
0.000221507
0.0053826
0.000218786
0.00537672
0.000215924
0.00537109
0.000212937
0.0053657
0.000209841
0.00536055
0.000206653
0.00535564
0.000203385
0.00535095
0.00020005
0.0053465
0.000196662
0.00534226
0.000193232
0.000189769
0.00551271
0.000243342
0.00550258
0.000244686
0.00549264
0.000245622
0.0054829
0.000246166
0.00547338
0.000246335
0.00546411
0.000246143
0.00545508
0.000245603
0.00544631
0.000244732
0.00543781
0.000243546
0.00542959
0.000242064
0.00542164
0.000240304
0.00541397
0.000238288
0.00540657
0.000236034
0.00539946
0.000233565
0.00539263
0.000230901
0.00538608
0.000228062
0.0053798
0.000225066
0.00537379
0.000221933
0.00536804
0.000218681
0.00536256
0.000215325
0.00535733
0.000211881
0.00535235
0.000208364
0.00534761
0.000204788
0.00534311
0.000201164
0.00533884
0.000197505
0.000193822
0.00551467
0.000254158
0.00550403
0.000255322
0.00549361
0.000256049
0.00548341
0.000256362
0.00547346
0.00025628
0.00546379
0.000255822
0.00545438
0.000255004
0.00544527
0.000253846
0.00543645
0.000252367
0.00542793
0.000250586
0.00541971
0.000248525
0.00541179
0.000246205
0.00540418
0.000243648
0.00539686
0.000240876
0.00538985
0.000237912
0.00538314
0.000234775
0.00537672
0.000231486
0.00537059
0.000228065
0.00536474
0.00022453
0.00535917
0.000220897
0.00535387
0.000217184
0.00534883
0.000213404
0.00534404
0.000209573
0.0053395
0.000205702
0.0053352
0.000201804
0.00019789
0.00551639
0.00026552
0.00550524
0.00026648
0.00549431
0.000266972
0.00548365
0.000267025
0.00547327
0.000266664
0.00546318
0.000265911
0.00545339
0.000264788
0.00544393
0.000263314
0.00543478
0.000261513
0.00542596
0.000259406
0.00541747
0.000257016
0.0054093
0.000254367
0.00540147
0.000251482
0.00539396
0.000248385
0.00538678
0.000245097
0.00537991
0.000241642
0.00537335
0.000238041
0.00536711
0.000234313
0.00536116
0.000230477
0.0053555
0.000226552
0.00535013
0.000222554
0.00534504
0.000218498
0.00534022
0.000214398
0.00533565
0.000210269
0.00533133
0.000206121
0.000201965
0.00551786
0.000277447
0.00550616
0.000278175
0.00549473
0.000278404
0.00548359
0.000278168
0.00547275
0.000277498
0.00546225
0.00027642
0.00545207
0.000274959
0.00544225
0.00027314
0.00543277
0.000270987
0.00542365
0.000268526
0.00541489
0.00026578
0.00540648
0.000262775
0.00539843
0.000259536
0.00539073
0.000256088
0.00538337
0.000252454
0.00537636
0.000248659
0.00536967
0.000244723
0.00536332
0.000240669
0.00535728
0.000236515
0.00535155
0.000232281
0.00534612
0.000227982
0.00534098
0.000223636
0.00533613
0.000219255
0.00533154
0.000214854
0.00532721
0.000210445
0.000206039
0.00551903
0.000289959
0.00550678
0.000290425
0.00549483
0.000290359
0.00548319
0.000289802
0.0054719
0.00028879
0.00546096
0.000287355
0.0054504
0.000285525
0.00544021
0.000283328
0.00543041
0.000280793
0.00542099
0.000277945
0.00541195
0.000274814
0.0054033
0.000271424
0.00539503
0.000267804
0.00538714
0.00026398
0.00537962
0.000259976
0.00537246
0.000255817
0.00536566
0.000251527
0.0053592
0.000247126
0.00535308
0.000242636
0.00534729
0.000238075
0.00534181
0.00023346
0.00533664
0.000228808
0.00533176
0.000224133
0.00532716
0.000219449
0.00532284
0.000214768
0.0002101
0.0055199
0.000303083
0.00550707
0.000303252
0.00549457
0.000302856
0.00548243
0.000301943
0.00547067
0.000300554
0.0054593
0.000298725
0.00544833
0.000296491
0.00543778
0.000293882
0.00542764
0.00029093
0.00541792
0.000287665
0.00540862
0.000284116
0.00539973
0.000280312
0.00539125
0.000276283
0.00538318
0.000272055
0.0053755
0.000267656
0.00536821
0.00026311
0.00536129
0.000258442
0.00535474
0.000253675
0.00534855
0.000248829
0.0053427
0.000243923
0.00533718
0.000238977
0.00533199
0.000234004
0.0053271
0.000229022
0.00532251
0.000224042
0.0053182
0.000219078
0.000214139
0.00552042
0.000316843
0.005507
0.000316677
0.00549394
0.000315913
0.00548128
0.000314604
0.00546903
0.000312799
0.00545722
0.000310539
0.00544585
0.000307863
0.00543493
0.000304805
0.00542446
0.000301401
0.00541444
0.000297683
0.00540487
0.000293684
0.00539575
0.000289434
0.00538706
0.000284965
0.00537881
0.000280306
0.00537098
0.000275485
0.00536357
0.000270527
0.00535655
0.000265459
0.00534992
0.000260304
0.00534367
0.000255082
0.00533778
0.000249815
0.00533223
0.000244519
0.00532703
0.000239212
0.00532214
0.000233908
0.00531756
0.000228621
0.00531328
0.000223362
0.000218143
0.00552058
0.000331272
0.00550653
0.000330726
0.00549289
0.00032955
0.0054797
0.000327803
0.00546696
0.000325539
0.00545469
0.000322805
0.00544291
0.000319645
0.00543161
0.000316099
0.00542081
0.000312204
0.0054105
0.000307997
0.00540067
0.000303512
0.00539132
0.000298784
0.00538244
0.000293844
0.00537402
0.000288724
0.00536605
0.000283452
0.00535852
0.000278058
0.00535142
0.000272566
0.00534472
0.000267
0.00533842
0.000261383
0.0053325
0.000255735
0.00532694
0.000250074
0.00532174
0.000244417
0.00531687
0.000238778
0.00531232
0.000233171
0.00530807
0.000227608
0.000222099
0.00552033
0.0003464
0.00550563
0.000345426
0.00549139
0.000343788
0.00547764
0.000341554
0.0054644
0.000338784
0.00545167
0.000335532
0.00543947
0.000331844
0.0054278
0.000327766
0.00541667
0.000323339
0.00540606
0.000318603
0.00539598
0.000313595
0.00538641
0.000308352
0.00537735
0.000302908
0.00536878
0.000297296
0.00536068
0.000291546
0.00535305
0.000285688
0.00534587
0.000279747
0.00533912
0.00027375
0.00533279
0.000267717
0.00532685
0.00026167
0.0053213
0.000255627
0.00531611
0.000249605
0.00531127
0.000243618
0.00530677
0.000237679
0.00530257
0.000231801
0.000225992
0.00551964
0.000362263
0.00550426
0.000360804
0.0054894
0.00035865
0.00547508
0.000355876
0.00546131
0.000352548
0.00544812
0.000348725
0.0054355
0.000344461
0.00542346
0.000339804
0.005412
0.000334801
0.00540111
0.000329494
0.00539078
0.000323924
0.005381
0.000318129
0.00537177
0.000312146
0.00536305
0.00030601
0.00535485
0.000299752
0.00534713
0.000293402
0.00533989
0.000286988
0.0053331
0.000280535
0.00532676
0.000274066
0.00532082
0.000267602
0.00531529
0.00026116
0.00531014
0.000254758
0.00530535
0.000248409
0.0053009
0.000242128
0.00529677
0.000235924
0.000229807
0.00551844
0.000378894
0.00550236
0.000376888
0.00548685
0.000374157
0.00547195
0.000370783
0.00545765
0.00036684
0.00544399
0.000362392
0.00543095
0.000357498
0.00541854
0.000352213
0.00540676
0.000346585
0.00539559
0.000340662
0.00538503
0.000334487
0.00537505
0.000328102
0.00536566
0.000321543
0.00535682
0.000314849
0.00534852
0.000308052
0.00534073
0.000301183
0.00533345
0.00029427
0.00532665
0.000287339
0.0053203
0.000280413
0.00531439
0.000273512
0.0053089