/*--------------------------------*- C++ -*----------------------------------*\
| =========                 |                                                 |
| \\      /  F ield         | OpenFOAM: The Open Source CFD Toolbox           |
|  \\    /   O peration     | Version:  2412                                  |
|   \\  /    A nd           | Website:  www.openfoam.com                      |
|    \\/     M anipulation  |                                                 |
\*---------------------------------------------------------------------------*/
FoamFile
{
    version     2.0;
    format      ascii;
    arch        "LSB;label=32;scalar=64";
    class       volVectorField;
    location    "8.5";
    object      U;
}
// * * * * * * * * * * * * * * * * * * * * * * * * * * * * * * * * * * * * * //

dimensions      [0 1 -1 0 0 0 0];

internalField   nonuniform List<vector> 
5285
(
(0.100995 0.00326981 0)
(0.100929 0.00321837 0)
(0.100864 0.00316543 0)
(0.100801 0.00311107 0)
(0.10074 0.00305538 0)
(0.100681 0.00299846 0)
(0.100624 0.00294041 0)
(0.100569 0.00288134 0)
(0.100516 0.00282135 0)
(0.100466 0.00276053 0)
(0.100417 0.002699 0)
(0.100371 0.00263684 0)
(0.100326 0.00257412 0)
(0.100284 0.00251096 0)
(0.100245 0.00244742 0)
(0.100207 0.00238363 0)
(0.100172 0.00231969 0)
(0.100139 0.00225573 0)
(0.100108 0.0021919 0)
(0.10008 0.00212829 0)
(0.100053 0.00206502 0)
(0.100029 0.00200216 0)
(0.100007 0.00193976 0)
(0.0999871 0.00187786 0)
(0.099969 0.00181649 0)
(0.0999528 0.00175567 0)
(0.0999383 0.00169545 0)
(0.0999256 0.00163586 0)
(0.0999145 0.00157696 0)
(0.099905 0.00151881 0)
(0.0998969 0.00146147 0)
(0.0998901 0.00140501 0)
(0.0998847 0.00134948 0)
(0.0998804 0.00129495 0)
(0.0998773 0.00124146 0)
(0.0998752 0.00118907 0)
(0.099874 0.00113782 0)
(0.0998738 0.00108775 0)
(0.0998743 0.00103889 0)
(0.0998757 0.000991267 0)
(0.0998777 0.000944911 0)
(0.0998803 0.000899839 0)
(0.0998834 0.000856066 0)
(0.0998871 0.000813604 0)
(0.100941 0.00334098 0)
(0.100874 0.00328631 0)
(0.100809 0.00323017 0)
(0.100745 0.00317264 0)
(0.100684 0.00311383 0)
(0.100625 0.00305383 0)
(0.100568 0.00299275 0)
(0.100513 0.0029307 0)
(0.100461 0.00286779 0)
(0.10041 0.00280413 0)
(0.100362 0.00273982 0)
(0.100317 0.00267495 0)
(0.100273 0.00260961 0)
(0.100232 0.00254389 0)
(0.100193 0.00247789 0)
(0.100156 0.00241171 0)
(0.100122 0.00234547 0)
(0.10009 0.0022793 0)
(0.100061 0.00221334 0)
(0.100033 0.00214771 0)
(0.100008 0.00208251 0)
(0.0999852 0.00201782 0)
(0.0999643 0.0019537 0)
(0.0999455 0.00189019 0)
(0.0999287 0.00182731 0)
(0.0999138 0.0017651 0)
(0.0999007 0.00170358 0)
(0.0998893 0.0016428 0)
(0.0998796 0.00158281 0)
(0.0998714 0.00152366 0)
(0.0998646 0.00146541 0)
(0.0998591 0.00140812 0)
(0.099855 0.00135184 0)
(0.099852 0.00129663 0)
(0.0998501 0.00124254 0)
(0.0998493 0.00118961 0)
(0.0998494 0.00113787 0)
(0.0998503 0.00108737 0)
(0.0998521 0.00103814 0)
(0.0998545 0.000990192 0)
(0.0998576 0.000943557 0)
(0.0998613 0.000898247 0)
(0.0998655 0.000854276 0)
(0.0998702 0.000811651 0)
(0.100883 0.00341272 0)
(0.100815 0.00335467 0)
(0.10075 0.00329519 0)
(0.100687 0.00323437 0)
(0.100625 0.0031723 0)
(0.100566 0.00310911 0)
(0.10051 0.00304489 0)
(0.100455 0.00297977 0)
(0.100403 0.00291386 0)
(0.100353 0.00284727 0)
(0.100306 0.00278011 0)
(0.100261 0.00271247 0)
(0.100218 0.00264445 0)
(0.100178 0.00257613 0)
(0.10014 0.00250762 0)
(0.100104 0.00243901 0)
(0.100071 0.00237044 0)
(0.10004 0.00230204 0)
(0.100012 0.00223393 0)
(0.0999856 0.00216625 0)
(0.0999617 0.00209911 0)
(0.0999401 0.00203259 0)
(0.0999206 0.00196675 0)
(0.0999031 0.00190163 0)
(0.0998877 0.00183726 0)
(0.0998742 0.00177366 0)
(0.0998624 0.00171086 0)
(0.0998524 0.00164891 0)
(0.099844 0.00158785 0)
(0.0998372 0.00152772 0)
(0.0998317 0.00146858 0)
(0.0998277 0.00141048 0)
(0.0998248 0.00135347 0)
(0.0998232 0.00129761 0)
(0.0998226 0.00124293 0)
(0.099823 0.00118948 0)
(0.0998244 0.00113729 0)
(0.0998265 0.00108639 0)
(0.0998295 0.00103681 0)
(0.0998331 0.000988566 0)
(0.0998373 0.000941677 0)
(0.0998421 0.000896156 0)
(0.0998474 0.000852012 0)
(0.099853 0.000809248 0)
(0.100821 0.0034849 0)
(0.100754 0.00342334 0)
(0.100688 0.00336038 0)
(0.100625 0.00329613 0)
(0.100564 0.0032307 0)
(0.100505 0.00316419 0)
(0.100448 0.00309674 0)
(0.100394 0.00302845 0)
(0.100343 0.00295946 0)
(0.100294 0.00288986 0)
(0.100247 0.00281978 0)
(0.100203 0.00274931 0)
(0.100161 0.00267855 0)
(0.100121 0.00260758 0)
(0.100085 0.00253651 0)
(0.10005 0.00246545 0)
(0.100018 0.00239452 0)
(0.0999886 0.00232385 0)
(0.0999615 0.00225359 0)
(0.0999367 0.00218386 0)
(0.0999142 0.00211477 0)
(0.0998939 0.00204642 0)
(0.0998758 0.00197887 0)
(0.0998598 0.00191215 0)
(0.0998458 0.00184629 0)
(0.0998337 0.00178132 0)
(0.0998234 0.00171727 0)
(0.0998148 0.00165416 0)
(0.0998078 0.00159204 0)
(0.0998024 0.00153095 0)
(0.0997984 0.00147094 0)
(0.0997957 0.00141206 0)
(0.0997942 0.00135435 0)
(0.0997939 0.00129786 0)
(0.0997947 0.00124263 0)
(0.0997964 0.00118869 0)
(0.099799 0.00113607 0)
(0.0998024 0.0010848 0)
(0.0998065 0.00103489 0)
(0.0998113 0.000986379 0)
(0.0998167 0.000939265 0)
(0.0998226 0.000893559 0)
(0.0998289 0.000849267 0)
(0.0998356 0.000806391 0)
(0.100756 0.00355743 0)
(0.100688 0.0034922 0)
(0.100623 0.00342562 0)
(0.100559 0.00335781 0)
(0.100499 0.00328888 0)
(0.10044 0.00321896 0)
(0.100384 0.00314817 0)
(0.100331 0.00307663 0)
(0.10028 0.00300446 0)
(0.100231 0.00293179 0)
(0.100185 0.00285872 0)
(0.100142 0.00278536 0)
(0.100101 0.0027118 0)
(0.100063 0.00263815 0)
(0.100027 0.00256449 0)
(0.0999943 0.00249094 0)
(0.0999637 0.00241762 0)
(0.0999355 0.00234468 0)
(0.0999097 0.00227224 0)
(0.0998864 0.00220045 0)
(0.0998653 0.00212943 0)
(0.0998465 0.00205926 0)
(0.0998299 0.00199 0)
(0.0998154 0.00192169 0)
(0.0998029 0.00185437 0)
(0.0997923 0.00178804 0)
(0.0997835 0.00172275 0)
(0.0997764 0.00165851 0)
(0.0997709 0.00159536 0)
(0.0997669 0.00153333 0)
(0.0997644 0.00147248 0)
(0.0997631 0.00141285 0)
(0.0997631 0.00135446 0)
(0.0997641 0.00129737 0)
(0.0997662 0.00124161 0)
(0.0997693 0.00118721 0)
(0.0997732 0.00113419 0)
(0.0997779 0.00108257 0)
(0.0997833 0.00103238 0)
(0.0997892 0.000983624 0)
(0.0997958 0.000936312 0)
(0.0998028 0.000890449 0)
(0.0998102 0.000846037 0)
(0.099818 0.000803073 0)
(0.100687 0.00363016 0)
(0.100619 0.0035611 0)
(0.100554 0.00349077 0)
(0.100491 0.00341927 0)
(0.10043 0.00334674 0)
(0.100372 0.00327329 0)
(0.100317 0.00319906 0)
(0.100264 0.00312417 0)
(0.100214 0.00304875 0)
(0.100166 0.00297293 0)
(0.100122 0.00289681 0)
(0.100079 0.0028205 0)
(0.10004 0.00274411 0)
(0.100003 0.00266772 0)
(0.0999684 0.00259144 0)
(0.0999366 0.00251538 0)
(0.0999074 0.00243966 0)
(0.0998807 0.00236442 0)
(0.0998564 0.00228981 0)
(0.0998346 0.00221597 0)
(0.0998151 0.00214301 0)
(0.0997979 0.00207102 0)
(0.0997829 0.00200008 0)
(0.0997699 0.0019302 0)
(0.099759 0.00186143 0)
(0.09975 0.00179378 0)
(0.0997427 0.00172727 0)
(0.0997372 0.00166192 0)
(0.0997333 0.00159777 0)
(0.0997308 0.00153484 0)
(0.0997297 0.00147317 0)
(0.09973 0.00141281 0)
(0.0997314 0.00135378 0)
(0.0997339 0.00129612 0)
(0.0997374 0.00123986 0)
(0.0997418 0.00118503 0)
(0.099747 0.00113164 0)
(0.099753 0.00107971 0)
(0.0997596 0.00102926 0)
(0.0997668 0.000980291 0)
(0.0997745 0.00093281 0)
(0.0997827 0.000886818 0)
(0.0997912 0.000842313 0)
(0.0998 0.00079929 0)
(0.100614 0.00370294 0)
(0.100546 0.00362991 0)
(0.100481 0.00355568 0)
(0.100418 0.00348037 0)
(0.100358 0.00340411 0)
(0.100301 0.00332703 0)
(0.100246 0.00324926 0)
(0.100194 0.00317094 0)
(0.100145 0.00309219 0)
(0.100099 0.00301315 0)
(0.100055 0.00293393 0)
(0.100014 0.00285463 0)
(0.0999757 0.00277536 0)
(0.0999401 0.0026962 0)
(0.0999072 0.00261727 0)
(0.0998769 0.00253867 0)
(0.0998493 0.00246053 0)
(0.0998241 0.002383 0)
(0.0998015 0.00230622 0)
(0.0997813 0.00223033 0)
(0.0997635 0.00215544 0)
(0.099748 0.00208166 0)
(0.0997346 0.00200905 0)
(0.0997234 0.00193763 0)
(0.0997141 0.00186744 0)
(0.0997067 0.00179849 0)
(0.0997012 0.00173079 0)
(0.0996972 0.00166436 0)
(0.0996949 0.00159923 0)
(0.099694 0.00153543 0)
(0.0996945 0.00147298 0)
(0.0996963 0.00141192 0)
(0.0996992 0.00135228 0)
(0.0997031 0.00129409 0)
(0.0997081 0.00123737 0)
(0.0997139 0.00118214 0)
(0.0997205 0.00112841 0)
(0.0997277 0.0010762 0)
(0.0997357 0.00102552 0)
(0.0997441 0.00097637 0)
(0.099753 0.00092875 0)
(0.0997623 0.000882659 0)
(0.099772 0.000838091 0)
(0.0997819 0.000795035 0)
(0.100536 0.00377561 0)
(0.100468 0.00369846 0)
(0.100404 0.0036202 0)
(0.100342 0.00354094 0)
(0.100282 0.00346084 0)
(0.100226 0.00338002 0)
(0.100172 0.00329863 0)
(0.100121 0.00321679 0)
(0.100073 0.00313465 0)
(0.100028 0.00305233 0)
(0.0999856 0.00296995 0)
(0.099946 0.00288761 0)
(0.0999092 0.00280542 0)
(0.0998752 0.00272347 0)
(0.0998439 0.00264187 0)
(0.0998152 0.00256072 0)
(0.0997892 0.00248015 0)
(0.0997658 0.00240032 0)
(0.099745 0.00232137 0)
(0.0997266 0.00224344 0)
(0.0997105 0.00216666 0)
(0.0996968 0.0020911 0)
(0.0996852 0.00201685 0)
(0.0996757 0.00194392 0)
(0.0996682 0.00187234 0)
(0.0996626 0.00180211 0)
(0.0996587 0.00173326 0)
(0.0996565 0.00166579 0)
(0.0996558 0.00159972 0)
(0.0996566 0.00153508 0)
(0.0996587 0.00147188 0)
(0.099662 0.00141017 0)
(0.0996664 0.00134995 0)
(0.0996719 0.00129126 0)
(0.0996783 0.0012341 0)
(0.0996855 0.00117851 0)
(0.0996935 0.00112448 0)
(0.0997022 0.00107203 0)
(0.0997114 0.00102115 0)
(0.0997211 0.000971851 0)
(0.0997312 0.000924125 0)
(0.0997417 0.000877966 0)
(0.0997525 0.000833363 0)
(0.0997634 0.000790305 0)
(0.100454 0.00384799 0)
(0.100387 0.00376657 0)
(0.100322 0.00368414 0)
(0.100261 0.00360082 0)
(0.100203 0.00351676 0)
(0.100147 0.00343211 0)
(0.100094 0.003347 0)
(0.100045 0.00326157 0)
(0.0999981 0.00317597 0)
(0.0999543 0.00309031 0)
(0.0999134 0.00300472 0)
(0.0998754 0.00291931 0)
(0.0998402 0.00283417 0)
(0.0998079 0.00274941 0)
(0.0997783 0.00266511 0)
(0.0997515 0.0025814 0)
(0.0997273 0.00249842 0)
(0.0997058 0.00241629 0)
(0.0996868 0.00233519 0)
(0.0996703 0.00225524 0)
(0.0996561 0.00217657 0)
(0.0996443 0.00209927 0)
(0.0996346 0.0020234 0)
(0.0996269 0.00194899 0)
(0.0996213 0.00187606 0)
(0.0996175 0.0018046 0)
(0.0996154 0.00173463 0)
(0.099615 0.00166616 0)
(0.099616 0.00159919 0)
(0.0996185 0.00153374 0)
(0.0996223 0.00146984 0)
(0.0996272 0.0014075 0)
(0.0996333 0.00134675 0)
(0.0996403 0.0012876 0)
(0.0996482 0.00123005 0)
(0.0996569 0.00117413 0)
(0.0996663 0.00111984 0)
(0.0996763 0.00106718 0)
(0.0996868 0.00101614 0)
(0.0996978 0.000966724 0)
(0.0997092 0.000918925 0)
(0.0997209 0.00087273 0)
(0.0997328 0.000828124 0)
(0.0997449 0.000785092 0)
(0.100367 0.00391988 0)
(0.1003 0.00383405 0)
(0.100237 0.00374731 0)
(0.100176 0.00365981 0)
(0.100119 0.0035717 0)
(0.100065 0.00348311 0)
(0.100013 0.00339421 0)
(0.0999651 0.00330512 0)
(0.0999199 0.00321599 0)
(0.0998777 0.00312695 0)
(0.0998384 0.00303811 0)
(0.0998021 0.00294959 0)
(0.0997688 0.00286148 0)
(0.0997383 0.00277388 0)
(0.0997106 0.00268689 0)
(0.0996857 0.00260062 0)
(0.0996635 0.00251521 0)
(0.099644 0.00243081 0)
(0.099627 0.00234757 0)
(0.0996125 0.00226562 0)
(0.0996003 0.0021851 0)
(0.0995905 0.00210609 0)
(0.0995828 0.00202864 0)
(0.0995771 0.00195279 0)
(0.0995734 0.00187855 0)
(0.0995715 0.0018059 0)
(0.0995713 0.00173486 0)
(0.0995727 0.00166542 0)
(0.0995756 0.00159759 0)
(0.0995798 0.00153139 0)
(0.0995853 0.00146682 0)
(0.099592 0.00140391 0)
(0.0995997 0.00134266 0)
(0.0996083 0.00128309 0)
(0.0996177 0.00122519 0)
(0.0996279 0.00116899 0)
(0.0996388 0.00111447 0)
(0.0996502 0.00106163 0)
(0.0996621 0.00101047 0)
(0.0996744 0.00096098 0)
(0.099687 0.000913142 0)
(0.0996999 0.000866944 0)
(0.099713 0.000822367 0)
(0.0997262 0.000779392 0)
(0.100275 0.00399107 0)
(0.100209 0.00390068 0)
(0.100147 0.00380952 0)
(0.100087 0.00371772 0)
(0.100031 0.00362545 0)
(0.0999783 0.00353284 0)
(0.0999286 0.00344006 0)
(0.0998819 0.00334725 0)
(0.0998384 0.00325454 0)
(0.099798 0.00316207 0)
(0.0997606 0.00306996 0)
(0.0997262 0.00297831 0)
(0.0996948 0.00288721 0)
(0.0996663 0.00279677 0)
(0.0996407 0.00270708 0)
(0.0996179 0.00261826 0)
(0.0995978 0.00253044 0)
(0.0995804 0.00244377 0)
(0.0995656 0.00235842 0)
(0.0995532 0.00227451 0)
(0.0995432 0.00219217 0)
(0.0995355 0.00211148 0)
(0.0995299 0.00203251 0)
(0.0995263 0.00195526 0)
(0.0995246 0.00187974 0)
(0.0995247 0.00180595 0)
(0.0995265 0.00173388 0)
(0.0995298 0.00166353 0)
(0.0995346 0.00159489 0)
(0.0995407 0.00152798 0)
(0.0995479 0.00146279 0)
(0.0995563 0.00139935 0)
(0.0995657 0.00133765 0)
(0.099576 0.0012777 0)
(0.099587 0.00121951 0)
(0.0995987 0.00116306 0)
(0.0996111 0.00110835 0)
(0.0996239 0.00105539 0)
(0.0996372 0.00100414 0)
(0.0996508 0.000954609 0)
(0.0996647 0.000906768 0)
(0.0996788 0.000860601 0)
(0.099693 0.000816087 0)
(0.0997074 0.0007732 0)
(0.100178 0.00406132 0)
(0.100113 0.00396624 0)
(0.100052 0.00387053 0)
(0.0999941 0.00377433 0)
(0.0999395 0.0036778 0)
(0.0998882 0.00358109 0)
(0.0998401 0.00348437 0)
(0.0997953 0.00338777 0)
(0.0997537 0.00329145 0)
(0.0997152 0.00319551 0)
(0.0996799 0.0031001 0)
(0.0996476 0.0030053 0)
(0.0996184 0.00291121 0)
(0.0995921 0.00281792 0)
(0.0995687 0.00272554 0)
(0.0995481 0.00263418 0)
(0.0995303 0.00254398 0)
(0.0995152 0.00245508 0)
(0.0995026 0.00236764 0)
(0.0994925 0.0022818 0)
(0.0994848 0.00219769 0)
(0.0994793 0.00211537 0)
(0.0994759 0.00203491 0)
(0.0994745 0.00195631 0)
(0.099475 0.00187958 0)
(0.0994772 0.0018047 0)
(0.099481 0.00173166 0)
(0.0994863 0.00166044 0)
(0.099493 0.00159105 0)
(0.099501 0.00152347 0)
(0.0995102 0.00145772 0)
(0.0995203 0.0013938 0)
(0.0995314 0.0013317 0)
(0.0995434 0.00127143 0)
(0.099556 0.00121297 0)
(0.0995693 0.00115633 0)
(0.0995832 0.00110148 0)
(0.0995975 0.00104842 0)
(0.0996122 0.000997137 0)
(0.0996271 0.000947601 0)
(0.0996423 0.000899795 0)
(0.0996577 0.000853695 0)
(0.0996731 0.000809277 0)
(0.0996885 0.000766513 0)
(0.100076 0.00413038 0)
(0.100013 0.00403048 0)
(0.0999528 0.0039301 0)
(0.0998965 0.00382939 0)
(0.0998436 0.00372852 0)
(0.0997941 0.00362765 0)
(0.099748 0.00352693 0)
(0.0997052 0.0034265 0)
(0.0996657 0.00332651 0)
(0.0996294 0.0032271 0)
(0.0995963 0.00312836 0)
(0.0995664 0.0030304 0)
(0.0995395 0.00293332 0)
(0.0995156 0.00283721 0)
(0.0994946 0.00274215 0)
(0.0994764 0.00264828 0)
(0.0994611 0.00255572 0)
(0.0994484 0.00246462 0)
(0.0994382 0.00237514 0)
(0.0994305 0.00228742 0)
(0.0994252 0.00220157 0)
(0.099422 0.00211768 0)
(0.0994209 0.00203579 0)
(0.0994218 0.0019559 0)
(0.0994245 0.001878 0)
(0.0994289 0.00180209 0)
(0.0994349 0.00172813 0)
(0.0994423 0.00165611 0)
(0.099451 0.00158601 0)
(0.099461 0.00151784 0)
(0.099472 0.00145158 0)
(0.099484 0.00138723 0)
(0.0994969 0.00132478 0)
(0.0995106 0.00126423 0)
(0.0995249 0.00120557 0)
(0.0995398 0.00114877 0)
(0.0995552 0.00109383 0)
(0.099571 0.00104073 0)
(0.0995871 0.000989444 0)
(0.0996034 0.000939947 0)
(0.0996199 0.000892215 0)
(0.0996365 0.00084622 0)
(0.0996531 0.000801934 0)
(0.0996697 0.000759324 0)
(0.0999683 0.00419798 0)
(0.0999067 0.00409313 0)
(0.0998487 0.00398798 0)
(0.0997943 0.00388267 0)
(0.0997434 0.00377739 0)
(0.099696 0.00367228 0)
(0.0996521 0.00356751 0)
(0.0996116 0.00346322 0)
(0.0995744 0.00335955 0)
(0.0995406 0.00325663 0)
(0.09951 0.00315457 0)
(0.0994825 0.00305346 0)
(0.0994581 0.0029534 0)
(0.0994368 0.00285447 0)
(0.0994184 0.00275677 0)
(0.0994028 0.00266042 0)
(0.0993901 0.00256553 0)
(0.0993799 0.00247228 0)
(0.0993723 0.0023808 0)
(0.0993672 0.00229125 0)
(0.0993643 0.00220373 0)
(0.0993637 0.00211832 0)
(0.099365 0.00203506 0)
(0.0993683 0.00195394 0)
(0.0993733 0.00187495 0)
(0.09938 0.00179806 0)
(0.0993882 0.00172325 0)
(0.0993977 0.00165049 0)
(0.0994086 0.00157976 0)
(0.0994206 0.00151104 0)
(0.0994336 0.00144433 0)
(0.0994475 0.00137961 0)
(0.0994622 0.00131687 0)
(0.0994777 0.0012561 0)
(0.0994937 0.00119728 0)
(0.0995102 0.00114038 0)
(0.0995272 0.0010854 0)
(0.0995445 0.0010323 0)
(0.099562 0.000981055 0)
(0.0995797 0.000931639 0)
(0.0995975 0.000884021 0)
(0.0996154 0.00083817 0)
(0.0996332 0.000794052 0)
(0.099651 0.000751632 0)
(0.0998555 0.00426381 0)
(0.0997959 0.00415391 0)
(0.0997399 0.00404389 0)
(0.0996876 0.00393391 0)
(0.099639 0.00382414 0)
(0.099594 0.00371475 0)
(0.0995525 0.00360589 0)
(0.0995145 0.00349771 0)
(0.0994799 0.00339034 0)
(0.0994487 0.00328392 0)
(0.0994208 0.00317854 0)
(0.099396 0.0030743 0)
(0.0993744 0.00297128 0)
(0.0993558 0.00286957 0)
(0.0993402 0.00276926 0)
(0.0993274 0.00267046 0)
(0.0993174 0.00257331 0)
(0.09931 0.00247795 0)
(0.0993051 0.00238454 0)
(0.0993026 0.00229321 0)
(0.0993024 0.00220409 0)
(0.0993043 0.00211722 0)
(0.0993082 0.00203265 0)
(0.099314 0.00195037 0)
(0.0993214 0.00187036 0)
(0.0993305 0.00179257 0)
(0.099341 0.00171697 0)
(0.0993528 0.00164353 0)
(0.0993658 0.00157223 0)
(0.0993799 0.00150304 0)
(0.0993949 0.00143594 0)
(0.0994108 0.00137091 0)
(0.0994274 0.00130794 0)
(0.0994446 0.001247 0)
(0.0994624 0.00118808 0)
(0.0994806 0.00113114 0)
(0.0994991 0.00107616 0)
(0.099518 0.00102311 0)
(0.099537 0.00097196 0)
(0.0995561 0.00092267 0)
(0.0995752 0.000875208 0)
(0.0995943 0.00082954 0)
(0.0996134 0.000785627 0)
(0.0996323 0.000743433 0)
(0.0997373 0.00432757 0)
(0.0996798 0.00421251 0)
(0.0996262 0.00409753 0)
(0.0995763 0.00398281 0)
(0.0995303 0.00386851 0)
(0.0994879 0.0037548 0)
(0.0994491 0.00364183 0)
(0.0994139 0.00352974 0)
(0.0993822 0.00341868 0)
(0.0993538 0.00330876 0)
(0.0993288 0.00320008 0)
(0.099307 0.00309273 0)
(0.0992883 0.0029868 0)
(0.0992727 0.00288235 0)
(0.09926 0.00277948 0)
(0.0992502 0.00267829 0)
(0.0992431 0.00257892 0)
(0.0992386 0.00248152 0)
(0.0992365 0.00238624 0)
(0.0992369 0.00229321 0)
(0.0992394 0.00220254 0)
(0.0992441 0.0021143 0)
(0.0992506 0.0020285 0)
(0.099259 0.00194513 0)
(0.099269 0.00186416 0)
(0.0992805 0.00178554 0)
(0.0992933 0.00170924 0)
(0.0993074 0.0016352 0)
(0.0993227 0.00156339 0)
(0.0993389 0.00149379 0)
(0.099356 0.00142637 0)
(0.0993739 0.00136111 0)
(0.0993924 0.00129797 0)
(0.0994115 0.00123693 0)
(0.099431 0.00117796 0)
(0.0994509 0.00112104 0)
(0.0994711 0.00106612 0)
(0.0994915 0.00101317 0)
(0.099512 0.000962152 0)
(0.0995325 0.000913032 0)
(0.099553 0.00086577 0)
(0.0995734 0.000820325 0)
(0.0995937 0.000776657 0)
(0.0996137 0.000734724 0)
(0.0996134 0.00438891 0)
(0.0995585 0.0042686 0)
(0.0995075 0.0041486 0)
(0.0994604 0.00402908 0)
(0.0994172 0.00391021 0)
(0.0993777 0.00379216 0)
(0.099342 0.00367506 0)
(0.0993098 0.00355908 0)
(0.0992812 0.00344433 0)
(0.099256 0.00333094 0)
(0.0992341 0.003219 0)
(0.0992155 0.00310859 0)
(0.0992 0.00299978 0)
(0.0991875 0.00289264 0)
(0.0991779 0.00278727 0)
(0.0991712 0.00268376 0)
(0.0991672 0.00258224 0)
(0.0991657 0.00248287 0)
(0.0991667 0.00238579 0)
(0.09917 0.00229114 0)
(0.0991755 0.00219901 0)
(0.0991829 0.00210947 0)
(0.0991923 0.00202252 0)
(0.0992033 0.00193814 0)
(0.0992159 0.0018563 0)
(0.09923 0.00177694 0)
(0.0992453 0.0017 0)
(0.0992618 0.00162544 0)
(0.0992793 0.00155321 0)
(0.0992978 0.00148328 0)
(0.099317 0.00141561 0)
(0.0993369 0.00135017 0)
(0.0993574 0.00128693 0)
(0.0993784 0.00122586 0)
(0.0993997 0.00116691 0)
(0.0994213 0.00111005 0)
(0.0994431 0.00105525 0)
(0.0994651 0.00100245 0)
(0.099487 0.000951622 0)
(0.099509 0.000902721 0)
(0.0995309 0.000855702 0)
(0.0995526 0.000810523 0)
(0.0995741 0.000767138 0)
(0.0995953 0.000725505 0)
(0.0994838 0.00444746 0)
(0.0994318 0.00432184 0)
(0.0993838 0.00419676 0)
(0.0993398 0.00407241 0)
(0.0992998 0.00394895 0)
(0.0992636 0.00382655 0)
(0.0992311 0.00370534 0)
(0.0992023 0.00358548 0)
(0.099177 0.00346708 0)
(0.0991552 0.00335025 0)
(0.0991367 0.00323509 0)
(0.0991215 0.00312167 0)
(0.0991094 0.00301005 0)
(0.0991002 0.0029003 0)
(0.099094 0.00279249 0)
(0.0990906 0.00268673 0)
(0.0990898 0.00258315 0)
(0.0990916 0.00248189 0)
(0.0990957 0.0023831 0)
(0.0991021 0.0022869 0)
(0.0991106 0.0021934 0)
(0.099121 0.00210265 0)
(0.0991332 0.00201464 0)
(0.099147 0.00192935 0)
(0.0991624 0.00184672 0)
(0.099179 0.0017667 0)
(0.0991969 0.00168922 0)
(0.0992159 0.00161422 0)
(0.0992358 0.00154165 0)
(0.0992565 0.00147146 0)
(0.0992779 0.00140362 0)
(0.0992999 0.00133809 0)
(0.0993224 0.00127482 0)
(0.0993453 0.00121377 0)
(0.0993684 0.0011549 0)
(0.0993918 0.00109818 0)
(0.0994153 0.00104354 0)
(0.0994388 0.000990953 0)
(0.0994623 0.000940365 0)
(0.0994856 0.00089173 0)
(0.0995089 0.000845001 0)
(0.0995319 0.00080013 0)
(0.0995546 0.00075707 0)
(0.099577 0.000715773 0)
(0.0993485 0.00450284 0)
(0.0992997 0.00437185 0)
(0.0992551 0.00424167 0)
(0.0992146 0.00411247 0)
(0.099178 0.00398442 0)
(0.0991454 0.00385767 0)
(0.0991165 0.00373238 0)
(0.0990913 0.00360867 0)
(0.0990697 0.00348667 0)
(0.0990515 0.00336647 0)
(0.0990367 0.00324815 0)
(0.0990251 0.00313179 0)
(0.0990166 0.00301744 0)
(0.099011 0.00290514 0)
(0.0990083 0.00279499 0)
(0.0990084 0.00268707 0)
(0.099011 0.00258151 0)
(0.0990161 0.00247846 0)
(0.0990236 0.00237805 0)
(0.0990332 0.00228041 0)
(0.0990448 0.00218564 0)
(0.0990583 0.00209376 0)
(0.0990735 0.00200479 0)
(0.0990903 0.00191868 0)
(0.0991084 0.00183537 0)
(0.0991278 0.00175478 0)
(0.0991483 0.00167684 0)
(0.0991697 0.00160149 0)
(0.0991921 0.00152867 0)
(0.0992151 0.00145831 0)
(0.0992387 0.00139038 0)
(0.0992629 0.00132483 0)
(0.0992874 0.0012616 0)
(0.0993122 0.00120065 0)
(0.0993372 0.00114193 0)
(0.0993623 0.0010854 0)
(0.0993875 0.00103099 0)
(0.0994126 0.00097867 0)
(0.0994376 0.000928374 0)
(0.0994624 0.000880056 0)
(0.099487 0.000833663 0)
(0.0995113 0.000789144 0)
(0.0995353 0.00074645 0)
(0.0995589 0.000705528 0)
(0.0992073 0.00455464 0)
(0.0991622 0.00441825 0)
(0.0991214 0.00428295 0)
(0.0990846 0.0041489 0)
(0.0990519 0.00401628 0)
(0.0990232 0.00388523 0)
(0.0989982 0.0037559 0)
(0.098977 0.0036284 0)
(0.0989593 0.00350286 0)
(0.098945 0.00337936 0)
(0.0989341 0.00325797 0)
(0.0989263 0.00313875 0)
(0.0989216 0.00302175 0)
(0.0989199 0.00290702 0)
(0.0989209 0.00279462 0)
(0.0989246 0.00268464 0)
(0.0989309 0.00257721 0)
(0.0989395 0.00247246 0)
(0.0989504 0.00237054 0)
(0.0989634 0.00227157 0)
(0.0989783 0.00217562 0)
(0.098995 0.00208274 0)
(0.0990133 0.00199291 0)
(0.099033 0.00190608 0)
(0.099054 0.00182218 0)
(0.0990762 0.00174112 0)
(0.0990994 0.00166283 0)
(0.0991235 0.00158723 0)
(0.0991482 0.00151424 0)
(0.0991736 0.0014438 0)
(0.0991996 0.00137587 0)
(0.0992259 0.00131037 0)
(0.0992524 0.00124726 0)
(0.0992792 0.00118649 0)
(0.0993061 0.00112799 0)
(0.099333 0.00107171 0)
(0.0993599 0.0010176 0)
(0.0993866 0.000965596 0)
(0.0994131 0.000915647 0)
(0.0994394 0.000867695 0)
(0.0994654 0.000821686 0)
(0.099491 0.000777565 0)
(0.0995162 0.000735278 0)
(0.099541 0.000694771 0)
(0.104052 0.00379634 0)
(0.103895 0.00383215 0)
(0.10374 0.00386224 0)
(0.103588 0.00388663 0)
(0.103437 0.00390531 0)
(0.103289 0.00391833 0)
(0.103144 0.00392577 0)
(0.103001 0.00392777 0)
(0.102862 0.00392451 0)
(0.102727 0.0039162 0)
(0.102595 0.00390309 0)
(0.102466 0.00388545 0)
(0.102341 0.00386357 0)
(0.10222 0.00383776 0)
(0.102103 0.00380829 0)
(0.10199 0.00377548 0)
(0.10188 0.00373961 0)
(0.101775 0.00370096 0)
(0.101673 0.0036598 0)
(0.101575 0.00361639 0)
(0.101481 0.00357097 0)
(0.101391 0.00352378 0)
(0.101304 0.00347504 0)
(0.101221 0.00342494 0)
(0.101142 0.0033737 0)
(0.101066 0.00332149 0)
(0.104105 0.00395799 0)
(0.103939 0.00399211 0)
(0.103776 0.00402016 0)
(0.103615 0.00404217 0)
(0.103457 0.00405819 0)
(0.103302 0.00406831 0)
(0.10315 0.00407264 0)
(0.103002 0.00407134 0)
(0.102857 0.0040646 0)
(0.102716 0.00405268 0)
(0.102579 0.00403583 0)
(0.102445 0.00401436 0)
(0.102316 0.00398857 0)
(0.102191 0.00395879 0)
(0.10207 0.00392532 0)
(0.101954 0.00388847 0)
(0.101841 0.00384857 0)
(0.101733 0.00380589 0)
(0.101629 0.00376074 0)
(0.101529 0.00371336 0)
(0.101433 0.00366403 0)
(0.101341 0.00361299 0)
(0.101253 0.00356046 0)
(0.101169 0.00350665 0)
(0.101089 0.00345178 0)
(0.101012 0.00339603 0)
(0.104155 0.00412858 0)
(0.103981 0.00416069 0)
(0.103809 0.00418631 0)
(0.10364 0.00420554 0)
(0.103475 0.00421848 0)
(0.103312 0.00422527 0)
(0.103153 0.00422605 0)
(0.102999 0.00422101 0)
(0.102848 0.00421039 0)
(0.102701 0.00419444 0)
(0.102559 0.00417347 0)
(0.102421 0.00414778 0)
(0.102287 0.00411772 0)
(0.102158 0.00408361 0)
(0.102034 0.00404579 0)
(0.101914 0.00400459 0)
(0.101799 0.00396035 0)
(0.101688 0.00391336 0)
(0.101581 0.00386392 0)
(0.101479 0.00381233 0)
(0.101381 0.00375884 0)
(0.101288 0.00370371 0)
(0.101199 0.00364717 0)
(0.101113 0.00358945 0)
(0.101032 0.00353076 0)
(0.100954 0.00347129 0)
(0.104204 0.00430845 0)
(0.104021 0.00433819 0)
(0.10384 0.00436097 0)
(0.103662 0.00437699 0)
(0.103489 0.00438641 0)
(0.103319 0.00438941 0)
(0.103153 0.00438619 0)
(0.102992 0.00437697 0)
(0.102835 0.00436201 0)
(0.102682 0.00434161 0)
(0.102535 0.00431608 0)
(0.102392 0.00428578 0)
(0.102254 0.00425104 0)
(0.102121 0.00421224 0)
(0.101993 0.00416972 0)
(0.10187 0.00412383 0)
(0.101752 0.00407492 0)
(0.101638 0.0040233 0)
(0.101529 0.0039693 0)
(0.101425 0.00391321 0)
(0.101326 0.00385531 0)
(0.101231 0.00379585 0)
(0.10114 0.00373509 0)
(0.101054 0.00367325 0)
(0.100972 0.00361054 0)
(0.100894 0.00354716 0)
(0.10425 0.00449787 0)
(0.104057 0.00452485 0)
(0.103867 0.00454438 0)
(0.103681 0.00455674 0)
(0.103499 0.00456217 0)
(0.103321 0.00456091 0)
(0.103148 0.00455321 0)
(0.10298 0.00453933 0)
(0.102817 0.00451957 0)
(0.102659 0.00449426 0)
(0.102506 0.00446374 0)
(0.102359 0.00442839 0)
(0.102216 0.00438858 0)
(0.102079 0.00434468 0)
(0.101948 0.00429708 0)
(0.101821 0.00424614 0)
(0.1017 0.00419223 0)
(0.101584 0.00413568 0)
(0.101473 0.00407681 0)
(0.101367 0.00401594 0)
(0.101266 0.00395336 0)
(0.101169 0.00388933 0)
(0.101077 0.0038241 0)
(0.10099 0.00375792 0)
(0.100907 0.003691 0)
(0.100829 0.00362354 0)
(0.104291 0.00469715 0)
(0.104089 0.00472096 0)
(0.10389 0.00473679 0)
(0.103695 0.00474501 0)
(0.103504 0.00474596 0)
(0.103319 0.00473994 0)
(0.103139 0.00472725 0)
(0.102964 0.00470821 0)
(0.102794 0.00468316 0)
(0.10263 0.00465246 0)
(0.102472 0.00461649 0)
(0.10232 0.00457564 0)
(0.102173 0.00453032 0)
(0.102032 0.00448092 0)
(0.101897 0.00442785 0)
(0.101767 0.00437149 0)
(0.101643 0.00431222 0)
(0.101525 0.0042504 0)
(0.101411 0.00418635 0)
(0.101303 0.00412041 0)
(0.101201 0.00405287 0)
(0.101103 0.00398401 0)
(0.10101 0.00391409 0)
(0.100922 0.00384336 0)
(0.100839 0.00377202 0)
(0.10076 0.00370029 0)
(0.104329 0.00490658 0)
(0.104116 0.00492676 0)
(0.103908 0.00493841 0)
(0.103703 0.004942 0)
(0.103505 0.00493795 0)
(0.103311 0.00492665 0)
(0.103123 0.00490845 0)
(0.102941 0.00488373 0)
(0.102766 0.00485288 0)
(0.102596 0.00481628 0)
(0.102432 0.00477436 0)
(0.102275 0.00472755 0)
(0.102124 0.00467626 0)
(0.101979 0.00462093 0)
(0.10184 0.00456198 0)
(0.101707 0.00449981 0)
(0.101581 0.00443481 0)
(0.10146 0.00436737 0)
(0.101345 0.00429782 0)
(0.101235 0.00422651 0)
(0.101131 0.00415373 0)
(0.101032 0.00407978 0)
(0.100938 0.00400492 0)
(0.10085 0.0039294 0)
(0.100766 0.00385345 0)
(0.100687 0.00377726 0)
(0.104362 0.00512648 0)
(0.104139 0.00514256 0)
(0.10392 0.00514951 0)
(0.103707 0.00514794 0)
(0.103499 0.00513834 0)
(0.103297 0.00512119 0)
(0.103102 0.00509692 0)
(0.102913 0.00506597 0)
(0.102731 0.00502876 0)
(0.102555 0.00498574 0)
(0.102386 0.00493737 0)
(0.102224 0.00488409 0)
(0.102068 0.00482636 0)
(0.10192 0.00476464 0)
(0.101777 0.00469938 0)
(0.101642 0.00463099 0)
(0.101512 0.00455989 0)
(0.101389 0.00448647 0)
(0.101272 0.00441108 0)
(0.101161 0.00433408 0)
(0.101055 0.00425578 0)
(0.100956 0.00417647 0)
(0.100861 0.00409643 0)
(0.100772 0.0040159 0)
(0.100688 0.00393512 0)
(0.100609 0.00385428 0)
(0.10439 0.00535724 0)
(0.104155 0.00536867 0)
(0.103927 0.00537037 0)
(0.103704 0.00536304 0)
(0.103487 0.0053473 0)
(0.103277 0.00532372 0)
(0.103074 0.00529279 0)
(0.102878 0.00525502 0)
(0.102689 0.00521088 0)
(0.102507 0.00516088 0)
(0.102333 0.00510549 0)
(0.102166 0.00504523 0)
(0.102006 0.00498056 0)
(0.101853 0.00491199 0)
(0.101708 0.00483996 0)
(0.101569 0.00476493 0)
(0.101437 0.00468733 0)
(0.101312 0.00460756 0)
(0.101193 0.00452599 0)
(0.101081 0.00444298 0)
(0.100974 0.00435886 0)
(0.100874 0.00427392 0)
(0.100779 0.00418844 0)
(0.10069 0.00410268 0)
(0.100605 0.00401686 0)
(0.100526 0.00393118 0)
(0.104412 0.00559929 0)
(0.104166 0.00560546 0)
(0.103927 0.00560127 0)
(0.103694 0.00558756 0)
(0.103468 0.00556505 0)
(0.10325 0.00553439 0)
(0.103038 0.00549616 0)
(0.102835 0.00545094 0)
(0.10264 0.00539927 0)
(0.102452 0.00534168 0)
(0.102272 0.00527872 0)
(0.102101 0.00521092 0)
(0.101937 0.00513879 0)
(0.10178 0.00506286 0)
(0.101631 0.0049836 0)
(0.10149 0.00490149 0)
(0.101356 0.00481697 0)
(0.101229 0.00473047 0)
(0.101108 0.00464236 0)
(0.100995 0.00455302 0)
(0.100887 0.00446277 0)
(0.100786 0.00437192 0)
(0.100691 0.00428076 0)
(0.100602 0.00418953 0)
(0.100517 0.00409846 0)
(0.100439 0.00400776 0)
(0.104427 0.00585312 0)
(0.10417 0.00585333 0)
(0.10392 0.00584257 0)
(0.103677 0.00582178 0)
(0.103442 0.00579179 0)
(0.103214 0.00575336 0)
(0.102995 0.00570715 0)
(0.102785 0.00565381 0)
(0.102582 0.00559394 0)
(0.102389 0.00552814 0)
(0.102204 0.005457 0)
(0.102027 0.00538108 0)
(0.101859 0.00530094 0)
(0.101699 0.00521713 0)
(0.101547 0.00513015 0)
(0.101403 0.0050405 0)
(0.101267 0.00494864 0)
(0.101138 0.00485501 0)
(0.101017 0.00475999 0)
(0.100902 0.00466398 0)
(0.100794 0.0045673 0)
(0.100693 0.00447026 0)
(0.100597 0.00437315 0)
(0.100508 0.00427623 0)
(0.100424 0.00417971 0)
(0.100346 0.0040838 0)
(0.104436 0.00611926 0)
(0.104167 0.00611275 0)
(0.103905 0.00609464 0)
(0.103652 0.00606599 0)
(0.103407 0.00602776 0)
(0.10317 0.00598079 0)
(0.102943 0.00592586 0)
(0.102725 0.00586368 0)
(0.102516 0.00579491 0)
(0.102317 0.00572023 0)
(0.102127 0.00564025 0)
(0.101946 0.00555561 0)
(0.101773 0.00546688 0)
(0.10161 0.00537464 0)
(0.101455 0.00527943 0)
(0.101309 0.00518176 0)
(0.101171 0.00508212 0)
(0.101041 0.00498095 0)
(0.100918 0.00487866 0)
(0.100802 0.00477563 0)
(0.100694 0.0046722 0)
(0.100593 0.0045687 0)
(0.100497 0.00446539 0)