/*--------------------------------*- C++ -*----------------------------------*\
| =========                 |                                                 |
| \\      /  F ield         | OpenFOAM: The Open Source CFD Toolbox           |
|  \\    /   O peration     | Version:  2412                                  |
|   \\  /    A nd           | Website:  www.openfoam.com                      |
|    \\/     M anipulation  |                                                 |
\*---------------------------------------------------------------------------*/
FoamFile
{
    version     2.0;
    format      ascii;
    arch        "LSB;label=32;scalar=64";
    class       volScalarField;
    location    "25";
    object      p;
}
// * * * * * * * * * * * * * * * * * * * * * * * * * * * * * * * * * * * * * //

dimensions      [0 2 -2 0 0 0 0];

internalField   nonuniform List<scalar> 
5285
(
1.37536e-06
1.55291e-06
1.69052e-06
1.79492e-06
1.87046e-06
1.92047e-06
1.94837e-06
1.95725e-06
1.94983e-06
1.92859e-06
1.89573e-06
1.85322e-06
1.80283e-06
1.74607e-06
1.68436e-06
1.61889e-06
1.55072e-06
1.48078e-06
1.40988e-06
1.33872e-06
1.26789e-06
1.19792e-06
1.1292e-06
1.06211e-06
9.96945e-07
9.33907e-07
8.73213e-07
8.14991e-07
7.59354e-07
7.06353e-07
6.56064e-07
8.58208e-07
1.08083e-06
1.26027e-06
1.40335e-06
1.51456e-06
1.59743e-06
1.65552e-06
1.6921e-06
1.71005e-06
1.71201e-06
1.70032e-06
1.67712e-06
1.64429e-06
1.6035e-06
1.55628e-06
1.50393e-06
1.44764e-06
1.38844e-06
1.32724e-06
1.26481e-06
1.20185e-06
1.13895e-06
1.07658e-06
1.01519e-06
9.55132e-07
8.96674e-07
8.40073e-07
7.85512e-07
7.33143e-07
6.83068e-07
6.3537e-07
5.90051e-07
5.47221e-07
5.06769e-07
4.68781e-07
4.33071e-07
3.99859e-07
3.68568e-07
3.4006e-07
3.1262e-07
2.88963e-07
2.64278e-07
2.46316e-07
2.22204e-07
2.12283e-07
1.84457e-07
1.87665e-07
1.4832e-07
1.74129e-07
1.10451e-07
1.73691e-07
6.77843e-08
1.87404e-07
1.93672e-08
2.13031e-07
-3.10157e-08
2.42894e-07
-7.36939e-08
2.64538e-07
-9.62566e-08
2.6703e-07
-9.31792e-08
2.53095e-07
-7.82718e-08
2.49624e-07
-8.97812e-08
3.06013e-07
-1.81615e-07
4.84419e-07
-4.15208e-07
8.60194e-07
3.47031e-07
6.13563e-07
8.33913e-07
1.01492e-06
1.16115e-06
1.27632e-06
1.36414e-06
1.42803e-06
1.47104e-06
1.49593e-06
1.50521e-06
1.50113e-06
1.48573e-06
1.4608e-06
1.42797e-06
1.38869e-06
1.34424e-06
1.29574e-06
1.2442e-06
1.1905e-06
1.1354e-06
1.07957e-06
1.02357e-06
9.6789e-07
9.12952e-07
8.59089e-07
8.06599e-07
7.5572e-07
7.06638e-07
6.59507e-07
6.14421e-07
5.71456e-07
5.30712e-07
4.92121e-07
4.55787e-07
4.21551e-07
3.89649e-07
3.59526e-07
3.3205e-07
3.05541e-07
2.82687e-07
2.58757e-07
2.414e-07
2.17927e-07
2.08414e-07
1.81186e-07
1.84584e-07
1.45884e-07
1.71606e-07
1.08729e-07
1.7154e-07
6.66672e-08
1.85493e-07
1.87332e-08
2.11312e-07
-3.13429e-08
2.41404e-07
-7.39126e-08
2.63311e-07
-9.64968e-08
2.65998e-07
-9.33987e-08
2.5202e-07
-7.82851e-08
2.48164e-07
-8.92722e-08
3.03521e-07
-1.79664e-07
4.79541e-07
-4.10482e-07
8.51969e-07
-1.57382e-07
1.51906e-07
4.12293e-07
6.30382e-07
8.10914e-07
9.57762e-07
1.0748e-06
1.16555e-06
1.23324e-06
1.28075e-06
1.31073e-06
1.32557e-06
1.32741e-06
1.31819e-06
1.29966e-06
1.27335e-06
1.24066e-06
1.20281e-06
1.16091e-06
1.11591e-06
1.06865e-06
1.01988e-06
9.70239e-07
9.20273e-07
8.70463e-07
8.21203e-07
7.72838e-07
7.25651e-07
6.79871e-07
6.35698e-07
5.93235e-07
5.52645e-07
5.14e-07
4.77282e-07
4.42617e-07
4.0987e-07
3.7929e-07
3.5035e-07
3.23916e-07
2.98351e-07
2.76309e-07
2.53144e-07
2.364e-07
2.13576e-07
2.04477e-07
1.77858e-07
1.81447e-07
1.43406e-07
1.69034e-07
1.06979e-07
1.69344e-07
6.55355e-08
1.83539e-07
1.80947e-08
2.09552e-07
-3.16669e-08
2.39873e-07
-7.41224e-08
2.62045e-07
-9.67199e-08
2.64916e-07
-9.35774e-08
2.50857e-07
-7.82088e-08
2.46554e-07
-8.86073e-08
3.00789e-07
-1.77465e-07
4.74264e-07
-4.05346e-07
8.42966e-07
-6.54222e-07
-3.03105e-07
-3.76469e-09
2.50482e-07
4.64517e-07
6.4236e-07
7.88011e-07
9.05138e-07
9.97068e-07
1.06684e-06
1.11722e-06
1.15072e-06
1.1696e-06
1.17593e-06
1.17154e-06
1.15809e-06
1.13707e-06
1.1098e-06
1.07747e-06
1.04113e-06
1.00168e-06
9.5996e-07
9.1666e-07
8.724e-07
8.27718e-07
7.83062e-07
7.38826e-07
6.9534e-07
6.52872e-07
6.11665e-07
5.7185e-07
5.33645e-07
4.97102e-07
4.62269e-07
4.29287e-07
3.9804e-07
3.68794e-07
3.41049e-07
3.15666e-07
2.91055e-07
2.69836e-07
2.47445e-07
2.31321e-07
2.09156e-07
2.00475e-07
1.74476e-07
1.78254e-07
1.40889e-07
1.66416e-07
1.05202e-07
1.67103e-07
6.43902e-08
1.81541e-07
1.74529e-08
2.07751e-07
-3.19866e-08
2.38303e-07
-7.43231e-08
2.6074e-07
-9.69245e-08
2.63782e-07
-9.37119e-08
2.49603e-07
-7.80353e-08
2.44783e-07
-8.77726e-08
2.97801e-07
-1.75002e-07
4.68571e-07
-3.99791e-07
8.33167e-07
-1.14207e-06
-7.5052e-07
-4.13406e-07
-1.24002e-07
1.2267e-07
3.3076e-07
5.04382e-07
6.47322e-07
7.63027e-07
8.54654e-07
9.25088e-07
9.76955e-07
1.01264e-06
1.03429e-06
1.04388e-06
1.04315e-06
1.03368e-06
1.0169e-06
9.94073e-07
9.6632e-07
9.34644e-07
8.99929e-07
8.62945e-07
8.24373e-07
7.84805e-07
7.44746e-07
7.04636e-07
6.6485e-07
6.25698e-07
5.87459e-07
5.50298e-07
5.14459e-07
4.80033e-07
4.47096e-07
4.15806e-07
3.8607e-07
3.58168e-07
3.31628e-07
3.07307e-07
2.8366e-07
2.63271e-07
2.41664e-07
2.26166e-07
2.04668e-07
1.9641e-07
1.71041e-07
1.75009e-07
1.38332e-07
1.63751e-07
1.03398e-07
1.64819e-07
6.32317e-08
1.79502e-07
1.68088e-08
2.05909e-07
-3.23007e-08
2.36694e-07
-7.45135e-08
2.59396e-07
-9.71093e-08
2.62594e-07
-9.37981e-08
2.48253e-07
-7.77557e-08
2.42842e-07
-8.67517e-08
2.94543e-07
-1.72258e-07
4.62451e-07
-3.93801e-07
8.22561e-07
-1.62036e-06
-1.1898e-06
-8.16122e-07
-4.92607e-07
-2.14208e-07
2.33366e-08
2.24245e-07
3.92406e-07
5.31376e-07
6.44423e-07
7.34539e-07
8.04459e-07
8.56671e-07
8.93436e-07
9.16806e-07
9.28636e-07
9.30597e-07
9.24193e-07
9.10776e-07
8.91548e-07
8.67582e-07
8.39831e-07
8.09131e-07
7.76222e-07
7.41751e-07
7.06277e-07
6.70285e-07
6.34197e-07
5.98359e-07
5.6309e-07
5.28588e-07
4.95127e-07
4.62829e-07
4.31795e-07
4.02204e-07
3.73986e-07
3.47436e-07
3.22108e-07
2.98856e-07
2.76181e-07
2.56628e-07
2.35812e-07
2.20946e-07
2.00124e-07
1.92291e-07
1.67561e-07
1.71716e-07
1.35742e-07
1.61043e-07
1.01573e-07
1.62495e-07
6.20626e-08
1.77422e-07
1.6164e-08
2.04026e-07
-3.26088e-08
2.35045e-07
-7.46943e-08
2.58012e-07
-9.72756e-08
2.6135e-07
-9.38365e-08
2.468e-07
-7.73669e-08
2.40714e-07
-8.55355e-08
2.9099e-07
-1.69221e-07
4.5588e-07
-3.87377e-07
8.11132e-07
-2.08848e-06
-1.62033e-06
-1.21134e-06
-8.54808e-07
-5.45643e-07
-2.7948e-07
-5.20131e-08
1.40738e-07
3.0243e-07
4.36428e-07
5.45824e-07
6.33453e-07
7.01901e-07
7.53525e-07
7.90472e-07
8.14687e-07
8.27926e-07
8.31779e-07
8.27673e-07
8.16888e-07
8.00566e-07
7.79727e-07
7.5527e-07
7.27992e-07
6.98595e-07
6.67687e-07
6.35803e-07
6.03404e-07
5.70878e-07
5.38576e-07
5.06738e-07
4.7566e-07
4.45494e-07
4.16369e-07
3.88483e-07
3.6179e-07
3.36598e-07
3.1249e-07
2.90315e-07
2.68617e-07
2.49907e-07
2.29891e-07
2.1566e-07
1.95522e-07
1.88116e-07
1.64036e-07
1.68376e-07
1.33119e-07
1.58294e-07
9.97258e-08
1.60131e-07
6.08833e-08
1.75302e-07
1.55191e-08
2.02104e-07
-3.29101e-08
2.33357e-07
-7.48643e-08
2.56587e-07
-9.74216e-08
2.60049e-07
-9.38228e-08
2.45241e-07
-7.68592e-08
2.38391e-07
-8.41071e-08
2.87129e-07
-1.65874e-07
4.48849e-07
-3.80506e-07
7.98882e-07
-2.54574e-06
-2.04147e-06
-1.59846e-06
-1.21007e-06
-8.71143e-07
-5.77243e-07
-3.23986e-07
-1.07313e-07
7.6519e-08
2.30965e-07
3.59209e-07
4.64175e-07
5.4854e-07
6.14754e-07
6.65047e-07
7.0145e-07
7.25805e-07
7.39776e-07
7.44868e-07
7.42431e-07
7.33677e-07
7.19687e-07
7.01423e-07
6.79737e-07
6.55382e-07
6.29018e-07
6.01224e-07
5.72502e-07
5.43279e-07
5.13942e-07
4.84766e-07
4.56071e-07
4.2804e-07
4.00828e-07
3.74651e-07
3.49488e-07
3.25662e-07
3.02779e-07
2.81686e-07
2.60973e-07
2.43112e-07
2.23901e-07
2.1031e-07
1.90864e-07
1.83888e-07
1.60466e-07
1.64989e-07
1.30462e-07
1.55503e-07
9.78576e-08
1.57727e-07
5.96946e-08
1.73143e-07
1.48751e-08
2.00141e-07
-3.32038e-08
2.3163e-07
-7.50227e-08
2.55123e-07
-9.7546e-08
2.5869e-07
-9.37539e-08
2.43571e-07
-7.62241e-08
2.35862e-07
-8.24503e-08
2.82945e-07
-1.62197e-07
4.4135e-07
-3.73177e-07
7.85815e-07
-2.9915e-06
-2.45263e-06
-1.97695e-06
-1.55788e-06
-1.19024e-06
-8.69524e-07
-5.91286e-07
-3.51396e-07
-1.46037e-07
2.83243e-08
1.74954e-07
2.96858e-07
3.96799e-07
4.77307e-07
5.40695e-07
5.89074e-07
6.24362e-07
6.483e-07
6.62462e-07
6.68268e-07
6.66993e-07
6.59781e-07
6.47651e-07
6.31509e-07
6.1216e-07
5.90311e-07
5.66583e-07
5.41522e-07
5.15592e-07
4.8921e-07
4.62692e-07
4.36378e-07
4.10482e-07
3.85184e-07
3.6072e-07
3.37091e-07
3.14633e-07
2.92981e-07
2.72976e-07
2.53254e-07
2.36247e-07
2.17847e-07
2.04901e-07
1.86153e-07
1.79608e-07
1.56855e-07
1.61559e-07
1.27775e-07
1.52671e-07
9.59697e-08
1.55284e-07
5.84978e-08
1.70944e-07
1.42328e-08
1.98138e-07
-3.3489e-08
2.29865e-07
-7.5169e-08
2.53618e-07
-9.76479e-08
2.57274e-07
-9.36269e-08
2.41786e-07
-7.54539e-08
2.33117e-07
-8.055e-08
2.7842e-07
-1.58176e-07
4.33371e-07
-3.65385e-07
7.71941e-07
-3.42516e-06
-2.85324e-06
-2.34628e-06
-1.89776e-06
-1.5025e-06
-1.15592e-06
-8.53543e-07
-5.91175e-07
-3.64936e-07
-1.71221e-07
-6.69473e-09
1.31725e-07
2.46875e-07
3.41363e-07
4.17577e-07
4.77701e-07
5.23726e-07
5.57463e-07
5.80555e-07
5.94486e-07
6.00593e-07
6.00077e-07
5.94014e-07
5.83362e-07
5.68975e-07
5.51605e-07
5.31917e-07
5.10496e-07
4.87841e-07
4.64405e-07
4.40536e-07
4.16597e-07
3.92834e-07
3.69451e-07
3.467e-07
3.24609e-07
3.03523e-07
2.83105e-07
2.64192e-07
2.45466e-07
2.29316e-07
2.11734e-07
1.99435e-07
1.81392e-07
1.75281e-07
1.53203e-07
1.58085e-07
1.25058e-07
1.49801e-07
9.40635e-08
1.52803e-07
5.7294e-08
1.68705e-07
1.35934e-08
1.96096e-07
-3.37652e-08
2.28062e-07
-7.53026e-08
2.52075e-07
-9.77268e-08
2.55799e-07
-9.34397e-08
2.39883e-07
-7.45412e-08
2.30145e-07
-7.83914e-08
2.73539e-07
-1.53794e-07
4.24903e-07
-3.57125e-07
7.57272e-07
-3.84617e-06
-3.24279e-06
-2.70596e-06
-2.22926e-06
-1.8075e-06
-1.43605e-06
-1.11041e-06
-8.26332e-07
-5.79885e-07
-3.67407e-07
-1.85498e-07
-3.10103e-08
9.89623e-08
2.07095e-07
2.95846e-07
3.67467e-07
4.24018e-07
4.67375e-07
4.99245e-07
5.21171e-07
5.34551e-07
5.40642e-07
5.40571e-07
5.35347e-07
5.25871e-07
5.1294e-07
4.9726e-07
4.79452e-07
4.60054e-07
4.39548e-07
4.18318e-07
3.96747e-07
3.75113e-07
3.53641e-07
3.32604e-07
3.1205e-07
2.92338e-07
2.73157e-07
2.55339e-07
2.37613e-07
2.22325e-07
2.05564e-07
1.93917e-07
1.76585e-07
1.70907e-07
1.49515e-07
1.54572e-07
1.22314e-07
1.46892e-07
9.21405e-08
1.50285e-07
5.60845e-08
1.66429e-07
1.29578e-08
1.94014e-07
-3.40313e-08
2.2622e-07
-7.5423e-08
2.50492e-07
-9.7782e-08
2.54264e-07
-9.31899e-08
2.37858e-07
-7.34789e-08
2.26934e-07
-7.596e-08
2.68286e-07
-1.49037e-07
4.15938e-07
-3.48393e-07
7.41827e-07
-4.25401e-06
-3.6208e-06
-3.05555e-06
-2.55196e-06
-2.10485e-06
-1.70956e-06
-1.36155e-06
-1.05656e-06
-7.90609e-07
-5.59982e-07
-3.61228e-07
-1.91141e-07
-4.67538e-08
7.46701e-08
1.75652e-07
2.58508e-07
3.25359e-07
3.78142e-07
4.18624e-07
4.48407e-07
4.68942e-07
4.8154e-07
4.87378e-07
4.87514e-07
4.82893e-07
4.74355e-07
4.62644e-07
4.48421e-07
4.32255e-07
4.14662e-07
3.96058e-07
3.76845e-07
3.57333e-07
3.37768e-07
3.18442e-07
2.99424e-07
2.81087e-07
2.63145e-07
2.46425e-07
2.29701e-07
2.15277e-07
1.99344e-07
1.88349e-07
1.71734e-07
1.6649e-07
1.45791e-07
1.51019e-07
1.19544e-07
1.43948e-07
9.02021e-08
1.4773e-07
5.48703e-08
1.64114e-07
1.23272e-08
1.91893e-07
-3.42867e-08
2.24341e-07
-7.55297e-08
2.4887e-07
-9.78131e-08
2.5267e-07
-9.28756e-08
2.35707e-07
-7.22602e-08
2.23476e-07
-7.32414e-08
2.62644e-07
-1.4389e-07
4.06471e-07
-3.39187e-07
7.25626e-07
-4.64822e-06
-3.98682e-06
-3.39463e-06
-2.86547e-06
-2.39418e-06
-1.9761e-06
-1.60666e-06
-1.28158e-06
-9.96843e-07
-7.48706e-07
-5.33666e-07
-3.48468e-07
-1.90094e-07
-5.57498e-08
5.71415e-08
1.50953e-07
2.27864e-07
2.89868e-07
3.38786e-07
3.76275e-07
4.03839e-07
4.22836e-07
4.34493e-07
4.39914e-07
4.40085e-07
4.35888e-07
4.28105e-07
4.17432e-07
4.04472e-07
3.8977e-07
3.73774e-07
3.56908e-07
3.39508e-07
3.21844e-07
3.04225e-07
2.86742e-07
2.69779e-07
2.53076e-07
2.37455e-07
2.21736e-07
2.08178e-07
1.93075e-07
1.82735e-07
1.66842e-07
1.62032e-07
1.42034e-07
1.47429e-07
1.1675e-07
1.40968e-07
8.82497e-08
1.4514e-07
5.36529e-08
1.61762e-07
1.17026e-08
1.89734e-07
-3.45305e-08
2.22424e-07
-7.56222e-08
2.47209e-07
-9.78197e-08
2.51015e-07
-9.2495e-08
2.33426e-07
-7.08788e-08
2.19761e-07
-7.02223e-08
2.56601e-07
-1.38339e-07
3.96495e-07
-3.29508e-07
7.08695e-07
-5.02837e-06
-4.34045e-06
-3.72282e-06
-3.16943e-06
-2.67517e-06
-2.23536e-06
-1.84544e-06
-1.50111e-06
-1.19834e-06
-9.33349e-07
-7.02602e-07
-5.02803e-07
-3.30886e-07
-1.8401e-07
-5.95466e-08
4.49283e-08
1.31646e-07
2.02652e-07
2.5982e-07
3.04856e-07
3.39311e-07
3.64592e-07
3.81971e-07
3.92594e-07
3.97489e-07
3.97576e-07
3.93675e-07
3.86513e-07
3.76729e-07
3.64894e-07
3.51486e-07
3.36952e-07
3.21653e-07
3.05882e-07
2.89964e-07
2.74013e-07
2.58422e-07
2.42957e-07
2.28435e-07
2.13723e-07
2.01033e-07
1.86763e-07
1.77078e-07
1.61912e-07
1.57536e-07
1.38247e-07
1.43805e-07
1.13934e-07
1.37954e-07
8.62847e-08
1.42515e-07
5.24332e-08
1.59372e-07
1.10847e-08
1.87537e-07
-3.47622e-08
2.2047e-07
-7.57006e-08
2.45511e-07
-9.7802e-08
2.49302e-07
-9.20472e-08
2.31015e-07
-6.93292e-08
2.1578e-07
-6.68902e-08
2.50142e-07
-1.32373e-07
3.86007e-07
-3.19358e-07
6.91063e-07
-5.39409e-06
-4.68131e-06
-4.03975e-06
-3.4635e-06
-2.94749e-06
-2.48704e-06
-2.07761e-06
-1.71489e-06
-1.39486e-06
-1.11369e-06
-8.67839e-07
-6.53964e-07
-4.68965e-07
-3.09961e-07
-1.74278e-07
-5.94454e-08
3.68139e-08
1.16594e-07
1.81814e-07
2.34226e-07
2.75428e-07
3.0687e-07
3.29866e-07
3.45603e-07
3.55148e-07
3.59458e-07
3.59386e-07
3.55695e-07
3.49051e-07
3.40055e-07
3.29214e-07
3.16994e-07
3.03783e-07
2.89895e-07
2.75671e-07
2.61246e-07
2.47023e-07
2.32796e-07
2.19372e-07
2.05668e-07
1.93846e-07
1.80411e-07
1.71383e-07
1.56948e-07
1.53004e-07
1.34432e-07
1.40147e-07
1.11097e-07
1.34909e-07
8.43086e-08
1.39856e-07
5.12124e-08
1.56947e-07
1.04747e-08
1.85301e-07
-3.49813e-08
2.1848e-07
-7.57647e-08
2.43776e-07
-9.77604e-08
2.47529e-07
-9.15311e-08
2.28471e-07
-6.76062e-08
2.11525e-07
-6.32335e-08
2.43256e-07
-1.25981e-07
3.75005e-07
-3.08739e-07
6.7276e-07
-5.74503e-06
-5.00908e-06
-4.34512e-06
-3.74738e-06
-3.21084e-06
-2.73087e-06
-2.30291e-06
-1.9227e-06
-1.58618e-06
-1.28954e-06
-1.02919e-06
-8.0178e-07
-6.04176e-07
-4.33461e-07
-2.86923e-07
-1.62052e-07
-5.65275e-08
3.17861e-08
1.04851e-07
1.64461e-07
2.12257e-07
2.49729e-07
2.78231e-07
2.98987e-07
3.13102e-07
3.21568e-07
3.25271e-07
3.25004e-07
3.21463e-07
3.15276e-07
3.06976e-07
2.97051e-07
2.85913e-07
2.73895e-07
2.61356e-07
2.48451e-07
2.35592e-07
2.22599e-07
2.10273e-07
1.97575e-07
1.86621e-07
1.74024e-07
1.65652e-07
1.51953e-07
1.4844e-07
1.30591e-07
1.36458e-07
1.08243e-07
1.31831e-07
8.23234e-08
1.37163e-07
4.9993e-08
1.54484e-07
9.87539e-09
1.83026e-07
-3.51841e-08
2.16451e-07
-7.5811e-08
2.42001e-07
-9.76912e-08
2.45695e-07
-9.09431e-08
2.25789e-07
-6.57032e-08
2.06988e-07
-5.92403e-08
2.3593e-07
-1.19151e-07
3.63486e-07
-2.97651e-07
6.53808e-07
-6.08089e-06
-5.32347e-06
-4.63863e-06
-4.02078e-06
-3.46498e-06
-2.96659e-06
-2.52112e-06
-2.12431e-06
-1.7721e-06
-1.46069e-06
-1.18647e-06
-9.46087e-07
-7.36368e-07
-5.54373e-07
-3.97358e-07
-2.62778e-07
-1.48277e-07
-5.16798e-08
2.90127e-08
9.56345e-08
1.49863e-07
1.93227e-07
2.27116e-07
2.52792e-07
2.71393e-07
2.83944e-07
2.91361e-07
2.94468e-07
2.9399e-07
2.90577e-07
2.84791e-07
2.77139e-07
2.68056e-07
2.57895e-07
2.4703e-07
2.35638e-07
2.24137e-07
2.12374e-07
2.01142e-07
1.89451e-07
1.79364e-07
1.67606e-07
1.59889e-07
1.46929e-07
1.43844e-07
1.26727e-07
1.32739e-07
1.05372e-07
1.28723e-07
8.03325e-08
1.34435e-07
4.87795e-08
1.5198e-07
9.2933e-09
1.80705e-07
-3.53625e-08
2.14375e-07
-7.58299e-08
2.40178e-07
-9.75853e-08
2.4379e-07
-9.02745e-08
2.22961e-07
-6.36106e-08
2.02157e-07
-5.48973e-08
2.2815e-07
-1.1187e-07
3.51441e-07
-2.86086e-07
6.34223e-07
-6.40143e-06
-5.6242e-06
-4.92002e-06
-4.28346e-06
-3.70964e-06
-3.19397e-06
-2.73201e-06
-2.3195e-06
-1.95242e-06
-1.62696e-06
-1.33952e-06
-1.08673e-06
-8.65399e-07
-6.72567e-07
-5.05465e-07
-3.61517e-07
-2.38336e-07
-1.33716e-07
-4.56207e-08
2.78171e-08
8.83095e-08
1.3742e-07
1.76574e-07
2.07064e-07
2.3006e-07
2.46619e-07
2.57688e-07
2.64115e-07
2.66654e-07
2.6598e-07
2.62678e-07
2.57275e-07
2.50227e-07
2.41907e-07
2.32705e-07
2.22815e-07
2.12665e-07
2.02129e-07
1.91987e-07
1.813e-07
1.72079e-07
1.61161e-07
1.54097e-07
1.4188e-07
1.39221e-07
1.22841e-07
1.28992e-07
1.02487e-07
1.25586e-07
7.83342e-08
1.31677e-07
4.75675e-08
1.49443e-07
8.72028e-09
1.7835e-07
-3.55287e-08
2.12268e-07
-7.58376e-08
2.38325e-07
-9.74605e-08
2.41834e-07
-8.95408e-08
2.20001e-07
-6.13374e-08
1.97039e-07
-5.02068e-08
2.19921e-07
-1.04144e-07
3.3889e-07
-2.74075e-07
6.14064e-07
-6.70639e-06
-5.91107e-06
-5.18909e-06
-4.53521e-06
-3.94463e-06
-3.41283e-06
-2.93538e-06
-2.5081e-06
-2.12697e-06
-1.7882e-06
-1.48819e-06
-1.22357e-06
-9.9114e-07
-7.87925e-07
-6.11134e-07
-4.58169e-07
-3.26617e-07
-2.1424e-07
-1.18976e-07
-3.8925e-08
2.76564e-08
8.23633e-08
1.26651e-07
1.61844e-07
1.89141e-07
2.09628e-07
2.2428e-07
2.33971e-07
2.39481e-07
2.41505e-07
2.40655e-07
2.37473e-07
2.3244e-07
2.25943e-07
2.1839e-07
2.09992e-07
2.01186e-07
1.91869e-07
1.82814e-07
1.73128e-07
1.64771e-07
1.54691e-07
1.48283e-07
1.36806e-07
1.34578e-07
1.18931e-07
1.2523e-07
9.95748e-08
1.22442e-07
7.63048e-08
1.28924e-07
4.63143e-08
1.46928e-07
8.0881e-09
1.76044e-07
-3.57791e-08
2.10239e-07
-7.59526e-08
2.36566e-07
-9.74411e-08
2.39944e-07
-8.88497e-08
2.17002e-07
-5.89602e-08
1.91698e-07
-4.5226e-08
2.11307e-07
-9.60615e-08
3.25966e-07
-2.61798e-07
5.93566e-07
-6.98964e-06
-6.17828e-06
-5.44039e-06
-4.7709e-06
-4.16515e-06
-3.61865e-06
-3.12706e-06
-2.6862e-06
-2.29212e-06
-1.94104e-06
-1.62937e-06
-1.35374e-06
-1.11095e-06
-8.98021e-07
-7.1214e-07
-5.50695e-07
-4.11251e-07
-2.91549e-07
-1.89498e-07
-1.03175e-07
-3.08073e-08
2.92268e-08
7.84106e-08
1.18096e-07
1.49509e-07
1.73761e-07
1.91852e-07
2.04681e-07
2.1305e-07
2.17676e-07
2.19192e-07
2.18159e-07
2.15075e-07
2.10346e-07
2.04392e-07
1.97444e-07
1.89944e-07
1.81815e-07
1.7382e-07
1.6511e-07
1.57598e-07
1.48335e-07
1.42571e-07
1.31815e-07
1.30014e-07
1.15076e-07
1.21537e-07
9.66928e-08
1.19365e-07
7.42765e-08
1.26249e-07
4.50265e-08
1.44517e-07
7.37809e-09
1.73875e-07
-3.61541e-08
2.08383e-07
-7.62294e-08
2.34999e-07
-9.75868e-08
2.38218e-07
-8.82654e-08
2.14068e-07
-5.65605e-08
1.8627e-07
-4.00789e-08
2.02516e-07
-8.7831e-08
3.1301e-07
-2.49597e-07
5.73253e-07
-7.25483e-06
-6.42921e-06
-5.67703e-06
-4.99341e-06
-4.37383e-06
-3.81387e-06
-3.30925e-06
-2.85585e-06
-2.44975e-06
-2.08719e-06
-1.76462e-06
-1.47866e-06
-1.22612e-06
-1.00402e-06
-8.09546e-07
-6.4006e-07
-4.93115e-07
-3.66433e-07
-2.57904e-07
-1.6558e-07
-8.76669e-08
-2.25174e-08
3.13765e-08
7.53907e-08
1.10777e-07
1.38669e-07
1.60091e-07
1.75964e-07
1.8711e-07
1.94268e-07
1.98088e-07
1.99151e-07
1.97971e-07
1.94971e-07
1.90583e-07
1.85056e-07
1.78838e-07
1.71876e-07
1.64921e-07
1.57176e-07
1.50492e-07
1.42042e-07
1.36902e-07
1.26875e-07
1.25471e-07
1.11274e-07
1.17835e-07
9.38797e-08
1.16239e-07
7.23535e-08
1.23467e-07
4.39041e-08
1.41921e-07
6.91348e-09
1.71431e-07
-3.61992e-08
2.06171e-07
-7.61138e-08
2.33031e-07
-9.73206e-08
2.3609e-07
-8.72813e-08
2.10739e-07
-5.37494e-08
1.80395e-07
-3.44303e-08
1.93149e-07
-7.8956e-08
2.99313e-07
-2.36577e-07
5.51958e-07
-7.50994e-06
-6.67134e-06
-5.90602e-06
-5.20933e-06
-4.57686e-06
-4.00428e-06
-3.48736e-06
-3.02207e-06
-2.60452e-06
-2.23099e-06
-1.89795e-06
-1.60205e-06
-1.3401e-06
-1.10911e-06
-9.06269e-07
-7.28942e-07
-5.74665e-07
-4.41144e-07
-3.26253e-07
-2.28023e-07
-1.4464e-07
-7.4435e-08
-1.58769e-08
3.24326e-08
7.17676e-08
1.03285e-07
1.28028e-07
1.46941e-07
1.60867e-07
1.70561e-07
1.76695e-07
1.79864e-07
1.80599e-07
1.79341e-07
1.76533e-07
1.72443e-07
1.67521e-07
1.61742e-07
1.55842e-07
1.49076e-07
1.43231e-07
1.35612e-07
1.31101e-07
1.21827e-07
1.20812e-07
1.07393e-07
1.14025e-07
9.10212e-08
1.13002e-07
7.0427e-08
1.20554e-07
4.28294e-08
1.3916e-07
6.55301e-09
1.68785e-07
-3.60901e-08
2.03729e-07
-7.58128e-08
2.30819e-07
-9.68534e-08
2.33702e-07
-8.60594e-08
2.07079e-07
-5.05854e-08
1.74017e-07
-2.82272e-08
1.83051e-07
-6.93465e-08
2.84707e-07
-2.2267e-07
5.29428e-07
-7.75411e-06
-6.90385e-06
-6.12664e-06
-5.41797e-06
-4.77362e-06
-4.18931e-06
-3.6609e-06
-3.18442e-06
-2.75604e-06
-2.37209e-06
-2.02905e-06
-1.72361e-06
-1.4526e-06
-1.21304e-06
-1.0021e-06
-8.17163e-07
-6.55745e-07
-5.15547e-07
-3.94427e-07
-2.90402e-07
-2.01639e-07
-1.2645e-07
-6.32846e-08
-1.07234e-08
3.25279e-08
6.76464e-08
9.5697e-08
1.17642e-07
1.34343e-07
1.46575e-07
1.55026e-07
1.60309e-07
1.6297e-07
1.63466e-07
1.62251e-07
1.5961e-07
1.55998e-07
1.51416e-07
1.46583e-07
1.40811e-07
1.35818e-07
1.29044e-07
1.25172e-07
1.16665e-07
1.16045e-07
1.03421e-07
1.10122e-07
8.80966e-08
1.09679e-07
6.84588e-08
1.17559e-07
4.17376e-08
1.36316e-07
6.19635e-09
1.66056e-07
-3.5966e-08
2.0121e-07
-7.54967e-08
2.28539e-07
-9.63642e-08
2.31225e-07
-8.47566e-08
2.03223e-07
-4.71836e-08
1.6723e-07
-2.15582e-08
1.72318e-07
-5.91299e-08
2.69369e-07
-2.08124e-07
5.05989e-07
-7.9864e-06
-7.1259e-06
-6.33809e-06
-5.61865e-06
-4.96346e-06
-4.36837e-06
-3.82932e-06
-3.34241e-06
-2.90386e-06
-2.51007e-06
-2.15757e-06
-1.84305e-06
-1.56337e-06
-1.31557e-06
-1.09684e-06
-9.04533e-07
-7.36189e-07
-5.89495e-07
-4.62299e-07
-3.52606e-07
-2.58568e-07
-1.78481e-07
-1.10776e-07
-5.40171e-08
-6.89086e-09
3.17982e-08
6.31335e-08
8.80952e-08
1.07564e-07
1.22331e-07
1.33101e-07
1.40502e-07
1.45096e-07
1.47354e-07
1.47743e-07
1.46563e-07
1.44273e-07
1.40901e-07
1.37149e-07
1.32384e-07
1.28254e-07
1.22338e-07
1.19114e-07
1.11389e-07
1.11169e-07
9.93595e-08
1.06125e-07
8.5104e-08
1.06273e-07
6.64457e-08
1.14483e-07
4.0624e-08
1.33392e-07
5.83716e-09
1.63249e-07
-3.5835e-08
1.98623e-07
-7.51758e-08
2.26203e-07
-9.58656e-08
2.2867e-07
-8.33861e-08
1.99182e-07
-4.3553e-08
1.60039e-07
-1.4426e-08
1.6095e-07
-4.83084e-08
2.53304e-07
-1.92949e-07
4.81681e-07
-8.20588e-06
-7.33663e-06
-6.5396e-06
-5.81062e-06
-5.14573e-06
-4.54087e-06
-3.99207e-06
-3.49553e-06
-3.04755e-06
-2.64456e-06
-2.28314e-06
-1.96003e-06
-1.67211e-06
-1.41645e-06
-1.19024e-06
-9.90851e-07
-8.15821e-07
-6.62834e-07
-5.29735e-07
-4.14518e-07
-3.15325e-07
-2.30438e-07
-1.58275e-07
-9.73835e-08
-4.64334e-08
-4.21309e-09
3.03778e-08
5.83358e-08
8.05581e-08
9.78519e-08
1.10938e-07
1.20459e-07
1.26989e-07
1.31017e-07
1.33017e-07
1.33308e-07
1.32352e-07
1.30202e-07
1.27541e-07
1.23796e-07
1.2054e-07
1.15495e-07
1.12929e-07
1.06e-07
1.06185e-07
9.52071e-08
1.02035e-07
8.20438e-08
1.02782e-07
6.43897e-08
1.11325e-07
3.94931e-08
1.30381e-07
5.48431e-09
1.60353e-07
-3.56836e-08
1.95953e-07
-7.48336e-08
2.23794e-07
-9.53423e-08
2.26024e-07
-8.19366e-08
1.94946e-07
-3.96859e-08
1.52437e-07
-6.82287e-09
1.48935e-07
-3.68696e-08
2.36494e-07
-1.77124e-07
4.56493e-07
-8.41161e-06
-7.53519e-06
-6.73036e-06
-5.99315e-06
-5.31975e-06
-4.70618e-06
-4.1486e-06
-3.64329e-06
-3.18663e-06
-2.77511e-06
-2.40538e-06
-2.07421e-06
-1.77853e-06
-1.5154e-06
-1.28207e-06
-1.07591e-06
-8.94456e-07
-7.35403e-07
-5.96593e-07
-4.76015e-07
-3.71803e-07
-2.82231e-07
-2.05702e-07
-1.40753e-07
-8.60405e-08
-4.03368e-08
-2.52721e-09
2.83998e-08
5.33565e-08
7.31645e-08
8.85594e-08
1.00196e-07
1.08665e-07
1.14466e-07
1.18084e-07
1.19855e-07
1.20242e-07
1.19323e-07
1.17765e-07
1.15051e-07
1.1268e-07
1.08518e-07
1.06619e-07
1.00499e-07
1.01094e-07
9.09641e-08
9.78531e-08
7.89158e-08
9.92072e-08
6.22901e-08
1.08083e-07
3.83453e-08
1.27283e-07
5.13987e-09
1.57364e-07
-3.55076e-08
1.93194e-07
-7.44652e-08
2.21306e-07
-9.47907e-08
2.23285e-07
-8.04082e-08
1.90517e-07
-3.55846e-08
1.44424e-07
1.24867e-09
1.36276e-07
-2.48157e-08
2.1894e-07
-1.60648e-07
4.30434e-07
-8.60265e-06
-7.72069e-06
-6.90958e-06
-6.16552e-06
-5.48483e-06
-4.86368e-06
-4.29833e-06
-3.78516e-06
-3.32063e-06
-2.90132e-06
-2.52392e-06
-2.18526e-06
-1.88231e-06
-1.61217e-06
-1.37209e-06
-1.15949e-06
-9.71902e-07
-8.07032e-07
-6.62724e-07
-5.36966e-07
-4.27889e-07
-3.33759e-07
-2.52972e-07
-1.84054e-07
-1.25649e-07
-7.65189e-08
-3.55353e-08
-1.67363e-09
2.59919e-08
4.8296e-08
6.59879e-08
7.97352e-08
9.01397e-08
9.77151e-08
1.02955e-07
1.06211e-07
1.07948e-07
1.08271e-07
1.07825e-07
1.06152e-07
1.04677e-07
1.01408e-07
1.00185e-07
9.48856e-08
9.58985e-08
8.66306e-08
9.35798e-08
7.57188e-08
9.55493e-08
6.01456e-08
1.0476e-07
3.71792e-08
1.24097e-07
4.80302e-09
1.54283e-07
-3.53069e-08
1.90345e-07
-7.40702e-08
2.18738e-07
-9.42128e-08
2.20454e-07
-7.88061e-08
1.85899e-07
-3.12569e-08
1.36009e-07
9.77892e-09
1.22981e-07
-1.21583e-08
2.00652e-07
-1.43529e-07
4.03519e-07
-8.77808e-06
-7.89227e-06
-7.07645e-06
-6.32695e-06
-5.64029e-06
-5.01273e-06
-4.44068e-06
-3.92062e-06
-3.44908e-06
-3.02274e-06
-2.63836e-06
-2.29281e-06
-1.98313e-06
-1.70645e-06
-1.46005e-06
-1.24136e-06
-1.04796e-06
-8.77545e-07
-7.27973e-07
-5.97236e-07
-4.83463e-07
-3.84919e-07
-2.99994e-07
-2.27207e-07
-1.65192e-07
-1.12702e-07
-6.85975e-08
-3.18428e-08
-1.5002e-09
2.32767e-08
4.32489e-08
5.9096e-08
7.14305e-08
8.07786e-08
8.76423e-08
9.23878e-08
9.54811e-08
9.70513e-08
9.7727e-08
9.71035e-08
9.65329e-08
9.41682e-08
9.36304e-08
8.91623e-08
9.05991e-08
8.22066e-08
8.9217e-08
7.24523e-08
9.18103e-08
5.79547e-08
1.01356e-07
3.59933e-08
1.20826e-07
4.47309e-09
1.51108e-07
-3.50809e-08
1.87404e-07
-7.36481e-08
2.16092e-07
-9.36103e-08
2.17536e-07
-7.71365e-08
1.811e-07
-2.67129e-08
1.27202e-07
1.87535e-08
1.09066e-07
1.08556e-09
1.81646e-07
-1.25784e-07
3.7576e-07
-8.93696e-06
-8.04908e-06
-7.23016e-06
-6.47672e-06
-5.78543e-06
-5.15271e-06
-4.57507e-06
-4.04911e-06
-3.57148e-06
-3.13893e-06
-2.74829e-06
-2.39651e-06
-2.08067e-06
-1.79795e-06
-1.54568e-06
-1.3213e-06
-1.12242e-06
-9.46759e-07
-7.92179e-07
-6.56682e-07
-5.38403e-07
-4.35604e-07
-3.46676e-07
-2.7013e-07
-2.04599e-07
-1.48825e-07
-1.01662e-07
-6.20632e-08
-2.90819e-08
-1.86145e-09
2.03698e-08
3.83017e-08
5.25569e-08
6.36727e-08
7.21588e-08
7.83952e-08
8.28488e-08
8.56727e-08
8.74763e-08
8.79106e-08
8.82533e-08
8.68011e-08
8.69575e-08
8.33301e-08
8.51984e-08
7.76926e-08
8.47667e-08
6.91155e-08
8.79922e-08
5.57163e-08
9.78738e-08
3.47863e-08
1.17469e-07
4.14962e-09
1.4784e-07
-3.48287e-08
1.84371e-07
-7.31974e-08
2.13365e-07
-9.29842e-08
2.14533e-07
-7.54057e-08
1.7613e-07
-2.19652e-08
1.18019e-07
2.81532e-08
9.45525e-08
1.48925e-08
1.61943e-07
-1.07431e-07
3.4717e-07
-9.07838e-06
-8.19025e-06
-7.36991e-06
-6.61407e-06
-5.91956e-06
-5.28295e-06
-4.7009e-06
-4.17011e-06
-3.68734e-06
-3.24943e-06
-2.8533e-06
-2.49598e-06
-2.17459e-06
-1.88638e-06
-1.62871e-06
-1.39907e-06
-1.19507e-06
-1.01448e-06
-8.55174e-07
-7.15159e-07
-5.92578e-07
-4.857e-07
-3.92917e-07
-3.1274e-07
-2.43796e-07
-1.84825e-07
-1.34673e-07
-9.22877e-08
-5.67131e-08
-2.70842e-08
-2.6205e-09
1.7377e-08
3.35396e-08
4.64149e-08
5.65192e-08
6.42457e-08
7.00615e-08
7.41428e-08
7.70801e-08
7.85786e-08
7.98426e-08
7.93102e-08
8.01696e-08
7.7391e-08
7.96987e-08
7.30892e-08
8.02311e-08
6.57081e-08
8.40973e-08
5.34291e-08
9.43155e-08
3.35568e-08
1.14028e-07
3.83212e-09
1.44478e-07
-3.45493e-08
1.81243e-07
-7.27166e-08
2.10556e-07
-9.23357e-08
2.11448e-07
-7.3621e-08
1.70997e-07
-1.70289e-08
1.08478e-07
3.79533e-08
7.94673e-08
2.92324e-08
1.4157e-07
-8.84942e-08
3.17763e-07
-9.20147e-06
-8.31494e-06
-7.49492e-06
-6.73826e-06
-6.04199e-06
-5.40284e-06
-4.81758e-06
-4.28306e-06
-3.79615e-06
-3.35379e-06
-2.95299e-06
-2.59085e-06
-2.26456e-06
-1.97143e-06
-1.70887e-06
-1.47441e-06
-1.2657e-06
-1.08053e-06
-9.16788e-07
-7.72513e-07
-6.45855e-07
-5.35091e-07
-4.38617e-07
-3.54946e-07
-2.82706e-07
-2.20635e-07
-1.67574e-07
-1.22467e-07
-8.43512e-08
-5.23552e-08
-2.5691e-08
-3.65199e-09
1.44007e-08
2.90238e-08
4.07392e-08
4.99524e-08
5.71302e-08
6.24709e-08
6.65461e-08
6.91136e-08
7.13057e-08
7.16996e-08
7.32704e-08
7.13474e-08
7.4103e-08
6.83974e-08
7.56127e-08
6.22299e-08
8.01279e-08
5.1092e-08
9.06833e-08
3.23034e-08
1.10505e-07
3.51998e-09
1.41022e-07
-3.42417e-08
1.78018e-07
-7.22041e-08
2.07666e-07
-9.1666e-08
2.08286e-07
-7.17907e-08
1.65715e-07
-1.19218e-08
9.86025e-08
4.81235e-08
6.38454e-08
4.40678e-08
1.20562e-07
-6.9006e-08
2.87557e-07
-9.30535e-06
-8.42234e-06
-7.6044e-06
-6.84856e-06
-6.15204e-06
-5.51173e-06
-4.92453e-06
-4.38743e-06
-3.89743e-06
-3.45155e-06
-3.04693e-06
-2.68073e-06
-2.35022e-06
-2.05278e-06
-1.78587e-06
-1.54707e-06
-1.33408e-06
-1.14469e-06
-9.76843e-07
-8.2859e-07
-6.98097e-07
-5.83655e-07
-4.83668e-07
-3.96656e-07
-3.21249e-07
-2.56184e-07
-2.00304e-07
-1.52549e-07
-1.11952e-07
-7.76361e-08
-4.88091e-08
-2.47573e-08
-4.836e-09
1.15195e-08
2.48358e-08
3.55295e-08
4.40668e-08
5.06667e-08
5.58824e-08
5.95224e-08
6.26486e-08
6.39738e-08
6.6264e-08
6.52021e-08
6.84144e-08
6.36185e-08
7.09142e-08
5.86809e-08
7.60869e-08
4.87038e-08
8.69801e-08
3.10246e-08
1.06903e-07
3.21248e-09
1.37472e-07
-3.39048e-08
1.74695e-07
-7.16579e-08
2.04691e-07
-9.09761e-08
2.0505e-07
-6.99236e-08
1.60298e-07
-6.66484e-09
8.84203e-08
5.8628e-08
4.77288e-08
5.93536e-08
9.89618e-08
-4.90055e-08
2.56574e-07
-9.38919e-06
-8.51165e-06
-7.6976e-06
-6.94428e-06
-6.24905e-06
-5.609e-06
-5.02117e-06
-4.48268e-06
-3.99066e-06
-3.54227e-06
-3.1347e-06
-2.76525e-06
-2.43124e-06
-2.13014e-06
-1.85945e-06
-1.61682e-06
-1.39997e-06
-1.20677e-06
-1.03516e-06
-8.83228e-07
-7.49163e-07
-6.31269e-07
-5.27963e-07
-4.37775e-07
-3.5934e-07
-2.91401e-07
-2.32801e-07
-1.82479e-07
-1.39467e-07
-1.02887e-07
-7.19401e-08
-4.59096e-08
-2.41455e-08
-6.0769e-09
8.82688e-09
2.09921e-08
3.08841e-08
3.8741e-08
4.50981e-08
4.98125e-08
5.38777e-08
5.61378e-08
5.9155e-08
5.89581e-08
6.26364e-08
5.87541e-08
6.61388e-08
5.50611e-08
7.19774e-08
4.62635e-08
8.3209e-08
2.97189e-08
1.03223e-07
2.90876e-09
1.3383e-07
-3.35376e-08
1.71272e-07
-7.1076e-08
2.01632e-07
-9.0267e-08
2.01745e-07
-6.80297e-08
1.54761e-07
-1.28158e-09
7.79629e-08
6.94254e-08
3.11659e-08
7.50375e-08
7.68187e-08
-2.85401e-08
2.24848e-07
-9.45219e-06
-8.58211e-06