/*--------------------------------*- C++ -*----------------------------------*\
| =========                 |                                                 |
| \\      /  F ield         | OpenFOAM: The Open Source CFD Toolbox           |
|  \\    /   O peration     | Version:  2412                                  |
|   \\  /    A nd           | Website:  www.openfoam.com                      |
|    \\/     M anipulation  |                                                 |
\*---------------------------------------------------------------------------*/
FoamFile
{
    version     2.0;
    format      ascii;
    arch        "LSB;label=32;scalar=64";
    class       surfaceScalarField;
    location    "17.5";
    object      phi;
}
// * * * * * * * * * * * * * * * * * * * * * * * * * * * * * * * * * * * * * //

dimensions      [0 3 -1 0 0 0 0];

oriented        oriented;

internalField   nonuniform List<scalar> 
10424
(
0.00528166
-0.000371618
-0.00528913
0.00527465
-0.000368926
0.0052681
-0.000365907
-0.000362574
0.00529248
-0.000364045
-0.00530005
0.00528534
-0.000361786
0.00527863
-0.000359201
0.00527236
-0.000356302
0.00526652
-0.000353097
0.00526111
-0.000349599
0.00525612
-0.000345822
0.00525154
-0.000341777
0.00524737
-0.000337477
0.0052436
-0.000332934
0.00524022
-0.000328164
0.00523721
-0.00032318
0.00523457
-0.000317999
0.00523227
-0.000312635
0.00523031
-0.000307104
0.00522867
-0.000301421
0.00522734
-0.000295601
0.0052263
-0.000289661
0.00522553
-0.000283614
0.00522503
-0.000277475
0.00522476
-0.000271258
0.00522473
-0.000264975
0.00522492
-0.000258639
0.0052253
-0.000252262
0.00522588
-0.000245856
0.00522662
-0.000239434
0.00522753
-0.000233008
0.00522859
-0.000226594
0.00522978
-0.000220204
0.00523109
-0.000213854
0.00523251
-0.000207559
0.00523403
-0.00020133
0.00523563
-0.00019518
0.0052373
-0.000189117
0.00523903
-0.000183146
0.00524081
-0.000177271
0.00524262
-0.000171494
0.00524446
-0.000165814
0.00524631
-0.000160232
0.00524818
-0.000154745
0.00525005
-0.000149354
0.00525191
-0.000144058
0.00525376
-0.000138858
-0.000133753
0.00530267
-0.000356398
-0.00531031
0.00529543
-0.000354546
0.0052886
-0.000352372
0.00528218
-0.000349885
0.00527618
-0.000347093
0.00527058
-0.000344005
0.00526539
-0.000340633
0.0052606
-0.000336989
0.00525621
-0.000333083
0.0052522
-0.000328927
0.00524857
-0.000324534
0.00524531
-0.000319919
0.00524241
-0.000315094
0.00523985
-0.000310075
0.00523762
-0.000304876
0.00523571
-0.000299512
0.00523411
-0.000293998
0.0052328
-0.000288349
0.00523176
-0.000282579
0.00523099
-0.000276703
0.00523047
-0.000270735
0.00523018
-0.000264686
0.00523011
-0.000258571
0.00523025
-0.000252401
0.00523058
-0.000246189
0.0052311
-0.000239947
0.00523178
-0.00023369
0.00523262
-0.00022743
0.00523359
-0.000221182
0.0052347
-0.000214961
0.00523592
-0.000208781
0.00523725
-0.000202656
0.00523866
-0.000196596
0.00524016
-0.000190611
0.00524172
-0.000184707
0.00524333
-0.000178887
0.005245
-0.000173154
0.00524669
-0.000167509
0.00524841
-0.000161951
0.00525014
-0.000156481
0.00525189
-0.000151098
0.00525363
-0.000145803
0.00525537
-0.000140597
-0.000135481
0.00531225
-0.000348704
-0.00531994
0.00530493
-0.000347235
0.00529801
-0.000345449
0.00529148
-0.000343353
0.00528534
-0.000340954
0.00527959
-0.000338258
0.00527424
-0.000335276
0.00526926
-0.000332017
0.00526467
-0.000328491
0.00526046
-0.00032471
0.00525661
-0.000320685
0.00525312
-0.000316429
0.00524998
-0.000311954
0.00524717
-0.000307273
0.0052447
-0.000302402
0.00524254
-0.000297355
0.00524069
-0.000292144
0.00523913
-0.000286786
0.00523784
-0.000281294
0.00523682
-0.000275683
0.00523605
-0.000269965
0.00523552
-0.000264155
0.00523521
-0.000258264
0.00523512
-0.000252306
0.00523522
-0.000246292
0.00523551
-0.000240237
0.00523597
-0.000234152
0.00523659
-0.000228053
0.00523737
-0.000221953
0.00523827
-0.000215867
0.0052393
-0.000209811
0.00524044
-0.000203796
0.00524168
-0.000197834
0.005243
-0.000191934
0.0052444
-0.000186104
0.00524586
-0.000180347
0.00524737
-0.000174665
0.00524892
-0.000169061
0.00525051
-0.000163536
0.00525212
-0.000158088
0.00525374
-0.000152721
0.00525537
-0.000147433
0.005257
-0.000142228
-0.000137106
0.00532124
-0.000340989
-0.00532896
0.00531389
-0.00033988
0.0053069
-0.00033846
0.00530028
-0.000336734
0.00529403
-0.000334707
0.00528816
-0.000332385
0.00528266
-0.000329775
0.00527753
-0.000326887
0.00527277
-0.000323728
0.00526836
-0.00032031
0.00526432
-0.000316641
0.00526063
-0.000312734
0.00525727
-0.0003086
0.00525425
-0.000304252
0.00525155
-0.000299704
0.00524917
-0.000294968
0.00524708
-0.000290059
0.00524528
-0.00028499
0.00524376
-0.000279775
0.00524251
-0.000274429
0.00524151
-0.000268964
0.00524075
-0.000263393
0.00524021
-0.00025773
0.00523989
-0.000251987
0.00523978
-0.000246176
0.00523985
-0.000240311
0.00524011
-0.000234405
0.00524052
-0.000228471
0.0052411
-0.000222525
0.00524181
-0.000216581
0.00524265
-0.000210653
0.00524361
-0.000204755
0.00524468
-0.000198898
0.00524583
-0.000193091
0.00524707
-0.000187341
0.00524838
-0.000181653
0.00524974
-0.00017603
0.00525115
-0.000170475
0.00525261
-0.000164987
0.00525409
-0.00015957
0.00525559
-0.000154224
0.00525711
-0.00014895
0.00525863
-0.000143751
-0.00013863
0.00532968
-0.000333277
-0.00533739
0.0053223
-0.000332506
0.00531527
-0.000331429
0.00530859
-0.000330052
0.00530226
-0.000328378
0.00529629
-0.000326411
0.00529067
-0.000324157
0.00528541
-0.000321624
0.0052805
-0.000318818
0.00527594
-0.000315748
0.00527172
-0.000312425
0.00526784
-0.000308857
0.0052643
-0.000305055
0.00526108
-0.000301033
0.00525818
-0.0002968
0.00525558
-0.000292372
0.00525328
-0.00028776
0.00525127
-0.000282977
0.00524953
-0.000278038
0.00524806
-0.000272956
0.00524684
-0.000267744
0.00524586
-0.000262415
0.00524511
-0.000256981
0.00524458
-0.000251456
0.00524426
-0.000245851
0.00524412
-0.00024018
0.00524418
-0.000234456
0.0052444
-0.000228694
0.00524478
-0.000222906
0.00524531
-0.000217109
0.00524597
-0.000211316
0.00524675
-0.00020554
0.00524765
-0.000199793
0.00524864
-0.000194085
0.00524973
-0.000188422
0.00525088
-0.00018281
0.0052521
-0.000177252
0.00525338
-0.000171751
0.0052547
-0.000166309
0.00525606
-0.000160927
0.00525744
-0.000155608
0.00525885
-0.000150354
0.00526027
-0.000145168
-0.000140052
0.00533758
-0.000325589
-0.00534527
0.00533021
-0.000325133
0.00532316
-0.000324379
0.00531644
-0.00032333
0.00531005
-0.00032199
0.005304
-0.00032036
0.00529828
-0.000318445
0.00529291
-0.00031625
0.00528788
-0.000313782
0.00528318
-0.000311049
0.00527881
-0.000308058
0.00527477
-0.000304819
0.00527106
-0.00030134
0.00526766
-0.000297634
0.00526457
-0.000293712
0.00526178
-0.000289584
0.00525929
-0.000285264
0.00525708
-0.000280765
0.00525514
-0.0002761
0.00525346
-0.000271281
0.00525204
-0.000266321
0.00525086
-0.000261233
0.0052499
-0.00025603
0.00524917
-0.000250724
0.00524865
-0.000245328
0.00524832
-0.000239854
0.00524818
-0.000234316
0.00524822
-0.000228728
0.00524841
-0.000223103
0.00524876
-0.000217457
0.00524925
-0.000211804
0.00524987
-0.000206156
0.0052506
-0.000200526
0.00525143
-0.000194921
0.00525236
-0.000189351
0.00525338
-0.000183821
0.00525446
-0.000178334
0.0052556
-0.000172894
0.00525679
-0.000167503
0.00525803
-0.000162163
0.0052593
-0.000156877
0.00526059
-0.000151648
0.0052619
-0.000146479
-0.000141375
0.00534497
-0.000317943
-0.00535262
0.00533762
-0.000317781
0.00533057
-0.000317329
0.00532383
-0.00031659
0.0053174
-0.000315564
0.0053113
-0.000314252
0.00530551
-0.000312659
0.00530005
-0.000310788
0.00529491
-0.000308643
0.00529009
-0.000306233
0.0052856
-0.000303562
0.00528142
-0.00030064
0.00527755
-0.000297475
0.00527399
-0.000294076
0.00527074
-0.000290455
0.00526778
-0.000286623
0.0052651
-0.00028259
0.00526271
-0.00027837
0.00526058
-0.000273974
0.00525872
-0.000269416
0.0052571
-0.000264707
0.00525573
-0.00025986
0.00525459
-0.000254888
0.00525367
-0.000249802
0.00525295
-0.000244616
0.00525244
-0.000239342
0.00525212
-0.000233992
0.00525197
-0.000228582
0.00525199
-0.000223124
0.00525217
-0.000217634
0.00525249
-0.000212124
0.00525294
-0.000206609
0.00525352
-0.0002011
0.0052542
-0.000195605
0.00525498
-0.000190133
0.00525585
-0.00018469
0.0052568
-0.00017928
0.00525781
-0.000173906
0.00525888
-0.000168571
0.00525999
-0.000163278
0.00526115
-0.000158031
0.00526233
-0.000152833
0.00526354
-0.000147687
-0.000142599
0.00535188
-0.000310356
-0.00535946
0.00534456
-0.000310467
0.00533753
-0.000310298
0.00533079
-0.000309848
0.00532434
-0.000309118
0.0053182
-0.000308108
0.00531236
-0.00030682
0.00530683
-0.000305256
0.00530161
-0.00030342
0.00529669
-0.000301318
0.00529209
-0.000298956
0.00528779
-0.000296339
0.00528379
-0.000293476
0.00528009
-0.000290377
0.00527668
-0.000287049
0.00527356
-0.000283504
0.00527073
-0.000279753
0.00526816
-0.000275806
0.00526586
-0.000271677
0.00526382
-0.000267376
0.00526203
-0.000262916
0.00526048
-0.000258309
0.00525916
-0.000253567
0.00525806
-0.000248702
0.00525717
-0.000243726
0.00525648
-0.000238653
0.00525598
-0.000233494
0.00525567
-0.000228264
0.00525552
-0.000222976
0.00525553
-0.000217645
0.00525569
-0.000212283
0.00525598
-0.000206905
0.00525641
-0.000201521
0.00525694
-0.000196141
0.00525758
-0.000190772
0.00525831
-0.000185421
0.00525912
-0.000180092
0.00526001
-0.00017479
0.00526095
-0.000169517
0.00526195
-0.000164277
0.00526299
-0.000159073
0.00526407
-0.00015391
0.00526518
-0.000148793
-0.000143725
0.00535831
-0.000302843
-0.00536583
0.00535105
-0.000303208
0.00534406
-0.000303302
0.00533733
-0.000303124
0.00533089
-0.000302672
0.00532472
-0.000301946
0.00531885
-0.000300946
0.00531327
-0.000299673
0.00530798
-0.000298132
0.00530299
-0.000296325
0.00529829
-0.000294257
0.00529388
-0.000291934
0.00528977
-0.000289363
0.00528594
-0.000286552
0.0052824
-0.000283509
0.00527914
-0.000280245
0.00527616
-0.000276768
0.00527344
-0.000273089
0.00527099
-0.000269221
0.00526878
-0.000265174
0.00526683
-0.00026096
0.00526511
-0.000256591
0.00526362
-0.000252078
0.00526235
-0.000247433
0.0052613
-0.000242669
0.00526044
-0.000237797
0.00525978
-0.00023283
0.00525929
-0.000227782
0.00525899
-0.000222667
0.00525884
-0.000217497
0.00525884
-0.000212287
0.00525899
-0.000207049
0.00525926
-0.000201794
0.00525965
-0.000196533
0.00526015
-0.000191272
0.00526075
-0.000186018
0.00526143
-0.000180776
0.00526219
-0.000175549
0.00526302
-0.000170343
0.0052639
-0.00016516
0.00526483
-0.000160005
0.0052658
-0.000154882
0.00526681
-0.000149797
-0.000144755
0.00536431
-0.000295417
-0.00537173
0.00535712
-0.000296017
0.00535017
-0.000296356
0.00534348
-0.000296431
0.00533705
-0.00029624
0.00533088
-0.000295781
0.00532499
-0.000295053
0.00531937
-0.000294057
0.00531403
-0.000292794
0.00530898
-0.000291268
0.0053042
-0.000289482
0.00529971
-0.000287441
0.0052955
-0.000285151
0.00529157
-0.000282619
0.00528791
-0.000279852
0.00528452
-0.000276859
0.0052814
-0.000273649
0.00527855
-0.000270233
0.00527595
-0.000266621
0.0052736
-0.000262824
0.00527149
-0.000258852
0.00526962
-0.000254718
0.00526797
-0.000250432
0.00526654
-0.000246007
0.00526533
-0.000241453
0.00526431
-0.000236783
0.00526349
-0.000232009
0.00526286
-0.000227145
0.00526239
-0.000222203
0.00526209
-0.000217198
0.00526195
-0.000212142
0.00526195
-0.000207047
0.00526208
-0.000201926
0.00526233
-0.000196787
0.0052627
-0.000191637
0.00526316
-0.000186484
0.00526372
-0.000181333
0.00526436
-0.000176187
0.00526507
-0.000171051
0.00526584
-0.00016593
0.00526666
-0.000160828
0.00526753
-0.000155751
0.00526843
-0.000150702
-0.00014569
0.00536988
-0.00028809
-0.00537721
0.00536277
-0.000288908
0.00535589
-0.000289474
0.00534924
-0.000289785
0.00534284
-0.000289837
0.00533669
-0.000289628
0.00533079
-0.000289156
0.00532516
-0.000288421
0.00531978
-0.000287423
0.00531468
-0.000286165
0.00530985
-0.000284648
0.00530528
-0.000282876
0.00530099
-0.000280856
0.00529696
-0.000278592
0.0052932
-0.000276091
0.0052897
-0.000273361
0.00528646
-0.000270412
0.00528348
-0.000267251
0.00528075
-0.000263889
0.00527826
-0.000260337
0.00527601
-0.000256604
0.005274
-0.000252701
0.00527221
-0.000248641
0.00527063
-0.000244432
0.00526927
-0.000240088
0.0052681
-0.00023562
0.00526713
-0.000231039
0.00526635
-0.000226359
0.00526574
-0.000221593
0.00526529
-0.000216754
0.005265
-0.000211854
0.00526486
-0.000206906
0.00526486
-0.00020192
0.00526498
-0.000196906
0.00526521
-0.000191872
0.00526555
-0.000186824
0.00526599
-0.000181767
0.00526651
-0.000176706
0.0052671
-0.000171646
0.00526776
-0.000166591
0.00526848
-0.000161546
0.00526924
-0.000156517
0.00527005
-0.00015151
-0.000146531
0.00537506
-0.000280872
-0.00538228
0.00536804
-0.00028189
0.00536123
-0.000282666
0.00535464
-0.000283196
0.00534828
-0.000283476
0.00534216
-0.000283502
0.00533627
-0.00028327
0.00533063
-0.000282781
0.00532524
-0.000282033
0.0053201
-0.000281028
0.00531522
-0.000279767
0.0053106
-0.000278254
0.00530624
-0.000276491
0.00530213
-0.000274485
0.00529828
-0.000272241
0.00529468
-0.000269766
0.00529134
-0.000267068
0.00528824
-0.000264156
0.00528539
-0.000261038
0.00528278
-0.000257725
0.0052804
-0.000254226
0.00527825
-0.000250552
0.00527633
-0.000246713
0.00527461
-0.00024272
0.00527311
-0.000238584
0.00527181
-0.000234316
0.0052707
-0.000229928
0.00526977
-0.000225433
0.00526902
-0.000220843
0.00526844
-0.000216171
0.00526801
-0.000211429
0.00526774
-0.000206629
0.0052676
-0.000201782
0.00526759
-0.000196897
0.0052677
-0.000191982
0.00526792
-0.000187042
0.00526823
-0.000182083
0.00526863
-0.00017711
0.00526912
-0.000172128
0.00526967
-0.000167143
0.00527028
-0.000162159
0.00527095
-0.000157183
0.00527166
-0.000152221
-0.00014728
0.00537986
-0.000273772
-0.00538696
0.00537294
-0.000274974
0.00536622
-0.000275944
0.0053597
-0.000276678
0.00535339
-0.000277169
0.0053473
-0.000277413
0.00534144
-0.000277407
0.00533581
-0.000277149
0.00533041
-0.000276637
0.00532526
-0.000275872
0.00532034
-0.000274854
0.00531568
-0.000273586
0.00531126
-0.00027207
0.00530708
-0.000270311
0.00530315
-0.000268314
0.00529947
-0.000266084
0.00529604
-0.00026363
0.00529284
-0.000260959
0.00528988
-0.000258079
0.00528716
-0.000255
0.00528466
-0.00025173
0.00528239
-0.00024828
0.00528033
-0.00024466
0.00527849
-0.000240879
0.00527686
-0.000236949
0.00527542
-0.00023288
0.00527418
-0.000228685
0.00527312
-0.000224374
0.00527224
-0.00021996
0.00527152
-0.000215456
0.00527097
-0.000210874
0.00527056
-0.000206224
0.0052703
-0.000201518
0.00527016
-0.000196764
0.00527015
-0.000191969
0.00527025
-0.00018714
0.00527045
-0.000182283
0.00527074
-0.000177402
0.00527111
-0.000172502
0.00527156
-0.00016759
0.00527207
-0.000162671
0.00527264
-0.000157751
0.00527326
-0.000152837
-0.000147938
0.0053843
-0.000266798
-0.00539128
0.0053775
-0.000268169
0.00537087
-0.000269317
0.00536443
-0.000270238
0.00535819
-0.000270925
0.00535215
-0.000271373
0.00534632
-0.000271578
0.0053407
-0.000271536
0.00533531
-0.000271247
0.00533015
-0.000270708
0.00532522
-0.000269921
0.00532052
-0.000268886
0.00531605
-0.000267605
0.00531182
-0.000266082
0.00530783
-0.000264322
0.00530408
-0.000262329
0.00530056
-0.000260111
0.00529727
-0.000257673
0.00529422
-0.000255024
0.00529139
-0.000252172
0.00528878
-0.000249127
0.0052864
-0.000245896
0.00528423
-0.00024249
0.00528227
-0.000238919
0.00528051
-0.000235192
0.00527895
-0.000231321
0.00527758
-0.000227316
0.0052764
-0.000223189
0.00527539
-0.000218952
0.00527455
-0.000214616
0.00527387
-0.000210194
0.00527334
-0.000205695
0.00527296
-0.000201131
0.0052727
-0.00019651
0.00527257
-0.000191839
0.00527256
-0.000187124
0.00527264
-0.00018237
0.00527282
-0.000177584
0.00527309
-0.00017277
0.00527344
-0.000167934
0.00527385
-0.000163083
0.00527432
-0.000158223
0.00527484
-0.000153361
-0.000148506
0.00538842
-0.000259956
-0.00539526
0.00538173
-0.00026148
0.0053752
-0.000262792
0.00536885
-0.000263886
0.00536268
-0.000264754
0.0053567
-0.000265391
0.00535091
-0.000265792
0.00534533
-0.000265954
0.00533996
-0.000265873
0.0053348
-0.000265548
0.00532985
-0.000264978
0.00532513
-0.000264164
0.00532063
-0.000263107
0.00531636
-0.00026181
0.00531232
-0.000260277
0.0053085
-0.000258511
0.00530491
-0.00025652
0.00530154
-0.000254308
0.0052984
-0.000251883
0.00529548
-0.000249252
0.00529278
-0.000246425
0.00529029
-0.000243409
0.00528801
-0.000240213
0.00528594
-0.000236848
0.00528407
-0.000233322
0.0052824
-0.000229645
0.00528091
-0.00022583
0.00527961
-0.000221885
0.00527848
-0.000217824
0.00527752
-0.000213656
0.00527672
-0.000209394
0.00527607
-0.000205048
0.00527557
-0.000200628
0.0052752
-0.000196141
0.00527496
-0.000191595
0.00527483
-0.000186996
0.00527481
-0.000182349
0.00527488
-0.00017766
0.00527505
-0.000172934
0.00527529
-0.000168177
0.00527561
-0.000163397
0.00527598
-0.0001586
0.00527641
-0.000153793
-0.000148986
0.00539222
-0.000253251
-0.00539892
0.00538565
-0.000254915
0.00537924
-0.000256377
0.00537298
-0.000257629
0.00536689
-0.000258664
0.00536097
-0.000259476
0.00535524
-0.00026006
0.0053497
-0.00026041
0.00534435
-0.000260525
0.0053392
-0.000260401
0.00533426
-0.000260036
0.00532953
-0.000259432
0.00532501
-0.000258587
0.0053207
-0.000257506
0.00531661
-0.000256189
0.00531274
-0.000254641
0.00530909
-0.000252868
0.00530566
-0.000250873
0.00530244
-0.000248665
0.00529944
-0.000246249
0.00529665
-0.000243634
0.00529407
-0.000240827
0.00529169
-0.000237838
0.00528952
-0.000234674
0.00528754
-0.000231346
0.00528576
-0.000227862
0.00528416
-0.000224233
0.00528274
-0.00022047
0.0052815
-0.000216583
0.00528043
-0.000212583
0.00527952
-0.000208482
0.00527876
-0.000204288
0.00527814
-0.000200012
0.00527766
-0.000195661
0.00527731
-0.000191242
0.00527707
-0.00018676
0.00527695
-0.000182222
0.00527692
-0.000177632
0.00527698
-0.000172997
0.00527713
-0.000168322
0.00527734
-0.000163615
0.00527763
-0.000158884
0.00527797
-0.000154135
-0.00014938
0.00539573
-0.000246688
-0.00540229
0.00538929
-0.000248479
0.00538299
-0.000250076
0.00537683
-0.000251473
0.00537083
-0.000252661
0.00536499
-0.000253635
0.00535932
-0.000254388
0.00535382
-0.000254914
0.00534851
-0.000255211
0.00534338
-0.000255275
0.00533845
-0.000255104
0.00533371
-0.000254697
0.00532918
-0.000254055
0.00532485
-0.000253177
0.00532073
-0.000252068
0.00531682
-0.000250729
0.00531312
-0.000249164
0.00530962
-0.000247379
0.00530634
-0.00024538
0.00530326
-0.000243172
0.00530039
-0.000240764
0.00529772
-0.000238161
0.00529526
-0.000235372
0.00529299
-0.000232406
0.00529092
-0.000229272
0.00528903
-0.000225977
0.00528733
-0.000222533
0.00528581
-0.000218949
0.00528446
-0.000215235
0.00528328
-0.000211402
0.00528226
-0.000207461
0.00528139
-0.00020342
0.00528067
-0.000199289
0.00528008
-0.000195074
0.00527962
-0.000190783
0.00527928
-0.00018642
0.00527905
-0.000181992
0.00527893
-0.000177504
0.00527889
-0.000172961
0.00527894
-0.000168371
0.00527906
-0.00016374
0.00527926
-0.000159077
0.00527951
-0.00015439
-0.000149688
0.00539896
-0.000240269
-0.00540538
0.00539266
-0.000242174
0.00538647
-0.000243894
0.00538042
-0.000245422
0.00537452
-0.000246752
0.00536875
-0.000247874
0.00536315
-0.000248783
0.00535771
-0.000249473
0.00535244
-0.00024994
0.00534734
-0.00025018
0.00534243
-0.00025019
0.0053377
-0.00024997
0.00533316
-0.000249518
0.00532882
-0.000248835
0.00532467
-0.000247922
0.00532073
-0.000246782
0.00531698
-0.000245418
0.00531344
-0.000243835
0.00531009
-0.000242037
0.00530695
-0.000240031
0.00530401
-0.000237822
0.00530127
-0.000235417
0.00529872
-0.000232825
0.00529636
-0.000230052
0.0052942
-0.000227107
0.00529222
-0.000223998
0.00529042
-0.000220736
0.0052888
-0.000217329
0.00528736
-0.000213786
0.00528607
-0.000210119
0.00528495
-0.000206337
0.00528398
-0.000202449
0.00528315
-0.000198462
0.00528246
-0.000194384
0.0052819
-0.000190222
0.00528146
-0.000185979
0.00528113
-0.000181663
0.00528091
-0.000177278
0.00528077
-0.00017283
0.00528073
-0.000168326
0.00528076
-0.000163774
0.00528087
-0.000159181
0.00528103
-0.000154557
-0.000149912
0.00540194
-0.00540822
-0.000233997
0.00539577
-0.000236003
0.00538972
-0.000237834
0.00538378
-0.000239483
0.00537796
-0.00024094
0.00537229
-0.000242198
0.00536676
-0.000243251
0.00536137
-0.000244092
0.00535615
-0.000244717
0.00535109
-0.000245121
0.00534621
-0.000245302
0.00534149
-0.000245257
0.00533696
-0.000244985
0.00533261
-0.000244486
0.00532845
-0.00024376
0.00532448
-0.00024281
0.0053207
-0.000241638
0.00531711
-0.000240248
0.00531372
-0.000238644
0.00531052
-0.000236832
0.00530751
-0.000234816
0.0053047
-0.000232604
0.00530208
-0.000230202
0.00529964
-0.000227618
0.00529739
-0.000224859
0.00529533
-0.000221933
0.00529344
-0.000218849
0.00529173
-0.000215616
0.00529018
-0.000212243
0.00528881
-0.00020874
0.00528758
-0.000205116
0.00528651
-0.000201379
0.00528559
-0.000197537
0.0052848
-0.000193596
0.00528414
-0.000189562
0.0052836
-0.000185441
0.00528318
-0.000181237
0.00528286
-0.000176956
0.00528263
-0.000172605
0.00528249
-0.000168189
0.00528244
-0.000163717
0.00528246
-0.000159198
0.00528254
-0.00015464
-0.000150054
0.00579788
-0.000542427
0.0057685
-0.00055084
0.00573943
-0.000557449
0.00571079
-0.000562332
0.00568268
-0.000565572
0.0056552
-0.00056726
0.00562844
-0.000567488
0.00560246
-0.00056635
0.00557734
-0.000563939
0.00555312
-0.00056035
0.00552984
-0.000555674
0.00550754
-0.000550004
0.00548624
-0.000543429
0.00546594
-0.000536037
0.00544667
-0.000527918
0.00542841
-0.000519155
0.00541115
-0.000509835
0.0053949
-0.000500037
0.00537961
-0.000489842
0.00536528
-0.000479323
0.00535188
-0.000468552
0.00533937
-0.000457594
0.00532773
-0.000446509
0.00531692
-0.000435353
0.00530691
-0.000424174
0.00529766
-0.000413017
-0.00040192
0.00578965
-0.000514697
0.00576204
-0.000523234
0.00573468
-0.000530086
0.00570767
-0.000535321
0.00568111
-0.000539015
0.0056551
-0.000541246
0.00562971
-0.000542098
0.00560501
-0.000541654
0.00558107
-0.000539998
0.00555794
-0.000537213
0.00553565
-0.000533384
0.00551423
-0.000528592
0.00549373
-0.00052292
0.00547414
-0.000516447
0.00545547
-0.000509255
0.00543774
-0.000501424
0.00542094
-0.00049303
0.00540505
-0.000484151
0.00539007
-0.00047486
0.00537597
-0.000465229
0.00536275
-0.000455323
0.00535036
-0.000445207
0.00533879
-0.000434937
0.005328
-0.000424567
0.00531797
-0.000414144
0.00530867
-0.000403711
-0.000393306
0.00578116
-0.000488679
0.00575521
-0.000497291
0.00572946
-0.000504329
0.00570399
-0.000509853
0.0056789
-0.000513929
0.00565428
-0.000516627
0.00563021
-0.000518021
0.00560674
-0.000518186
0.00558394
-0.000517197
0.00556185
-0.000515128
0.00554053
-0.000512055
0.00551999
-0.000508053
0.00550026
-0.000503194
0.00548137
-0.000497555
0.00546332
-0.000491208
0.00544612
-0.000484227
0.00542978
-0.000476685
0.00541428
-0.000468653
0.00539962
-0.0004602
0.00538579
-0.000451393
0.00537276
-0.000442296
0.00536052
-0.000432968
0.00534905
-0.000423465
0.00533832
-0.000413837
0.0053283
-0.00040413
0.00531898
-0.000394386
-0.00038464
0.0057725
-0.00046426
0.00574812
-0.000472908
0.00572387
-0.000480083
0.00569986
-0.000485839
0.00567617
-0.000490235
0.00565287
-0.000493332
0.00563004
-0.000495196
0.00560775
-0.000495893
0.00558604
-0.000495491
0.00556497
-0.000494056
0.00554458
-0.000491658
0.00552488
-0.000488362
0.00550593
-0.000484238
0.00548772
-0.000479352
0.00547029
-0.000473773
0.00545363
-0.000467569
0.00543775
-0.000460807
0.00542265
-0.000453555
0.00540833
-0.000445877
0.00539477
-0.000437836
0.00538197
-0.000429492
0.0053699
-0.000420902
0.00535856
-0.000412119
0.00534791
-0.00040319
0.00533794
-0.000394161
0.00532863
-0.00038507
-0.000375953
0.00576376
-0.000441336
0.00574084
-0.000449985
0.00571801
-0.000457257
0.00569537
-0.000463196
0.00567299
-0.000467856
0.00565095
-0.000471291
0.00562931
-0.000473559
0.00560814
-0.000474719
0.00558748
-0.000474832
0.00556738
-0.000473958
0.00554788
-0.000472159
0.00552901
-0.000469496
0.00551081
-0.00046603
0.00549328
-0.000461825
0.00547645
-0.000456942
0.00546033
-0.000451446
0.00544492
-0.0004454
0.00543023
-0.000438864
0.00541626
-0.000431902
0.00540299
-0.000424571
0.00539043
-0.000416929
0.00537855
-0.000409029
0.00536736
-0.000400921
0.00535682
-0.000392651
0.00534692
-0.000384262
0.00533764
-0.00037579
-0.000367271
0.00575499
-0.000419806
0.00573344
-0.000428429
0.00571194
-0.000435761
0.00569059
-0.000441842
0.00566945
-0.000446717
0.00564859
-0.000450436
0.00562808
-0.00045305
0.00560797
-0.000454611
0.00558832
-0.000455174
0.00556915
-0.000454794
0.00555052
-0.000453526
0.00553245
-0.000451426
0.00551497
-0.000448551
0.0054981
-0.000444959
0.00548187
-0.000440708
0.00546628
-0.000435856
0.00545134
-0.000430462
0.00543706
-0.000424586
0.00542345
-0.000418283
0.00541048
-0.000411611
0.00539818
-0.000404621
0.00538651
-0.000397365
0.00537548
-0.00038989
0.00536507
-0.00038224
0.00535526
-0.000374455
0.00534604
-0.00036657
-0.000358619
0.00574625
-0.000399578
0.00572597
-0.00040815
0.00570572
-0.000415512
0.00568558
-0.000421697
0.00566561
-0.000426745
0.00564587
-0.000430701
0.00562643
-0.000433608
0.00560733
-0.000435514
0.00558863
-0.000436469
0.00557036
-0.000436522
0.00555255
-0.000435723
0.00553525
-0.000434125
0.00551848
-0.000431778
0.00550226
-0.000428737
0.00548661
-0.000425056
0.00547154
-0.00042079
0.00545707
-0.000415993
0.00544321
-0.000410721
0.00542995
-0.000405027
0.0054173
-0.000398963
0.00540526
-0.00039258
0.00539382
-0.000385925
0.00538297
-0.000379043
0.00537271
-0.000371975
0.00536301
-0.000364759
0.00535387
-0.000357429
-0.000350017
0.00573757
-0.000380564
0.00571849
-0.000389065
0.00569941
-0.00039643
0.0056804
-0.000402687
0.00566152
-0.000407871
0.00564284
-0.00041202
0.00562441
-0.000415174
0.00560627
-0.000417377
0.00558847
-0.000418671
0.00557105
-0.000419102
0.00555404
-0.000418716
0.00553748
-0.000417562
0.00552139
-0.000415687
0.00550579
-0.000413141
0.00549071
-0.000409975
0.00547616
-0.00040624
0.00546216
-0.000401988
0.00544871
-0.00039727
0.00543581
-0.000392135
0.00542349
-0.000386635
0.00541172
-0.000380815
0.00540052
-0.00037472
0.00538987
-0.000368392
0.00537976
-0.000361871
0.00537019
-0.000355191
0.00536115
-0.000348386
-0.000341485
0.00572899
-0.00036268
0.00571102
-0.000371094
0.00569303
-0.000378439
0.00567508
-0.00038474
0.00565724
-0.000390027
0.00563955
-0.000394333
0.00562207
-0.000397693
0.00560484
-0.000400146
0.0055879
-0.000401732
0.00557129
-0.000402492
0.00555504
-0.00040247
0.00553919
-0.000401708
0.00552376
-0.000400253
0.00550877
-0.000398151
0.00549424
-0.000395449
0.0054802
-0.000392196
0.00546665
-0.00038844
0.00545361
-0.000384229
0.00544108
-0.00037961
0.00542908
-0.00037463
0.00541759
-0.000369332
0.00540663
-0.00036376
0.00539619
-0.00035795
0.00538626
-0.000351942
0.00537684
-0.000345767
0.00536791
-0.000339457
-0.000333039
0.00572053
-0.000345849
0.0057036
-0.000354162
0.00568662
-0.000361468
0.00566967
-0.000367789
0.0056528
-0.000373149
0.00563604
-0.000377578
0.00561946
-0.000381108
0.00560308
-0.000383773
0.00558696
-0.000385608
0.00557112
-0.000386654
0.0055556
-0.000386948
0.00554042
-0.000386533
0.00552562
-0.000385451
0.00551122
-0.000383746
0.00549723
-0.000381463
0.00548368
-0.000378646
0.00547058
-0.000375341
0.00545795
-0.000371595
0.00544579
-0.00036745
0.00543411
-0.000362951
0.00542292
-0.000358138
0.00541221
-0.000353051
0.00540198
-0.000347727
0.00539224
-0.000342199
0.00538297
-0.000336499
0.00537417
-0.000330656
-0.000324695
0.0057122
-0.000329998
0.00569624
-0.000338198
0.00568022
-0.000345449
0.0056642
-0.000351768
0.00564823
-0.000357177
0.00563235
-0.0003617
0.00561661
-0.000365367
0.00560104
-0.000368207
0.00558569
-0.000370255
0.00557058
-0.000371546
0.00555575
-0.000372117
0.00554123
-0.000372007
0.00552703
-0.000371257
0.00551319
-0.000369906
0.00549973
-0.000367999
0.00548666
-0.000365577
0.005474
-0.000362684
0.00546177
-0.000359363
0.00544998
-0.000355654
0.00543862
-0.000351599
0.00542772
-0.000347236
0.00541727
-0.000342601
0.00540727
-0.000337729
0.00539773
-0.000332651
0.00538862
-0.000327397
0.00537996
-0.000321994
-0.000316466
0.00570404
-0.000315059
0.00568898
-0.000323136
0.00567385
-0.000330318
0.00565869
-0.000336616
0.00564357
-0.000342051
0.00562851
-0.000346643
0.00561356
-0.000350418
0.00559876
-0.000353403
0.00558413
-0.00035563
0.00556972
-0.000357132
0.00555554
-0.000357943
0.00554164
-0.000358101
0.00552802
-0.000357644
0.00551473
-0.000356611
0.00550177
-0.000355042
0.00548917
-0.000352978
0.00547695
-0.00035046
0.00546511
-0.000347527
0.00545368
-0.000344219
0.00544265
-0.000340574
0.00543204
-0.000336627
0.00542186
-0.000332413
0.00541209
-0.000327963
0.00540275
-0.000323307
0.00539382
-0.000318472
0.00538531
-0.000313483
-0.000308363
0.00569604
-0.000300967
0.00568182
-0.000308913
0.00566752
-0.000316013
0.00565318
-0.000322275
0.00563884
-0.000327716
0.00562455
-0.000332354
0.00561035
-0.000336212
0.00559626
-0.000339315
0.00558232
-0.000341691
0.00556856
-0.000343373
0.00555501
-0.000344393
0.00554169
-0.000344786
0.00552864
-0.000344588
0.00551587
-0.000343838
0.0055034
-0.000342574
0.00549125
-0.000340834
0.00547945
-0.000338657
0.00546801
-0.000336081
0.00545693
-0.000333142
0.00544623
-0.000329875
0.00543592
-0.000326315
0.005426
-0.000322492
0.00541647
-0.000318436
0.00540733
-0.000314174
0.00539859
-0.000309732
0.00539024
-0.000305132
-0.000300396
0.00568823
-0.000287663
0.00567479
-0.000295471
0.00566125
-0.000302477
0.00564767
-0.00030869
0.00563407
-0.00031412
0.0056205
-0.000318784
0.00560699
-0.000322703
0.00559357
-0.000325899
0.00558028
-0.000328399
0.00556714
-0.000330234
0.00555418
-0.000331433
0.00554143
-0.000332032
0.00552891
-0.000332066
0.00551664
-0.000331569
0.00550464
-0.000330579
0.00549294
-0.000329133
0.00548155
-0.000327267
0.00547049
-0.000325017
0.00545976
-0.000322417
0.00544939
-0.0003195
0.00543937
-0.000316297
0.00542972
-0.000312838
0.00542043
-0.000309149
0.00541151
-0.000305256
0.00540296
-0.000301182
0.00539478
-0.000296948
-0.000292574
0.0056806
-0.00027509
0.00566788
-0.000282754
0.00565506
-0.000289658
0.00564218
-0.000295807
0.00562927
-0.000301212
0.00561638
-0.000305886
0.00560352
-0.000309846
0.00559073
-0.000313114
0.00557805
-0.000315716
0.0055655
-0.00031768