/*--------------------------------*- C++ -*----------------------------------*\
| =========                 |                                                 |
| \\      /  F ield         | OpenFOAM: The Open Source CFD Toolbox           |
|  \\    /   O peration     | Version:  2412                                  |
|   \\  /    A nd           | Website:  www.openfoam.com                      |
|    \\/     M anipulation  |                                                 |
\*---------------------------------------------------------------------------*/
FoamFile
{
    version     2.0;
    format      ascii;
    arch        "LSB;label=32;scalar=64";
    class       volVectorField;
    location    "17.5";
    object      U;
}
// * * * * * * * * * * * * * * * * * * * * * * * * * * * * * * * * * * * * * //

dimensions      [0 1 -1 0 0 0 0];

internalField   nonuniform List<vector> 
5285
(
(0.0998554 -0.0074657 0)
(0.0997187 -0.00726246 0)
(0.0995907 -0.0070581 0)
(0.0994713 -0.00685306 0)
(0.100061 -0.007316 0)
(0.099922 -0.00712439 0)
(0.0997912 -0.00693125 0)
(0.0996687 -0.00673704 0)
(0.0995543 -0.00654217 0)
(0.0994481 -0.00634708 0)
(0.0993499 -0.00615228 0)
(0.0992596 -0.00595808 0)
(0.099177 -0.00576485 0)
(0.0991021 -0.00557295 0)
(0.0990346 -0.00538272 0)
(0.0989744 -0.00519448 0)
(0.0989211 -0.00500855 0)
(0.0988745 -0.0048252 0)
(0.0988344 -0.0046447 0)
(0.0988005 -0.00446728 0)
(0.0987725 -0.00429316 0)
(0.0987502 -0.00412253 0)
(0.0987332 -0.00395557 0)
(0.0987213 -0.00379241 0)
(0.0987141 -0.00363318 0)
(0.0987114 -0.00347797 0)
(0.098713 -0.00332685 0)
(0.0987184 -0.0031799 0)
(0.0987276 -0.00303716 0)
(0.0987402 -0.00289868 0)
(0.0987559 -0.0027645 0)
(0.0987745 -0.00263467 0)
(0.0987958 -0.00250923 0)
(0.0988196 -0.00238822 0)
(0.0988455 -0.00227165 0)
(0.0988733 -0.00215952 0)
(0.0989028 -0.00205181 0)
(0.0989337 -0.00194846 0)
(0.0989659 -0.00184937 0)
(0.0989991 -0.00175443 0)
(0.099033 -0.00166351 0)
(0.0990676 -0.00157646 0)
(0.0991025 -0.00149313 0)
(0.0991377 -0.00141339 0)
(0.099173 -0.0013371 0)
(0.0992082 -0.00126413 0)
(0.0992433 -0.00119435 0)
(0.0992781 -0.00112767 0)
(0.100254 -0.0071645 0)
(0.100114 -0.00698405 0)
(0.0999807 -0.00680173 0)
(0.0998556 -0.00661799 0)
(0.0997383 -0.00643322 0)
(0.0996288 -0.00624783 0)
(0.099527 -0.00606227 0)
(0.0994328 -0.00587689 0)
(0.0993462 -0.00569206 0)
(0.0992669 -0.00550812 0)
(0.0991948 -0.00532541 0)
(0.0991298 -0.00514425 0)
(0.0990716 -0.00496495 0)
(0.0990201 -0.0047878 0)
(0.098975 -0.00461306 0)
(0.098936 -0.00444099 0)
(0.0989029 -0.00427182 0)
(0.0988755 -0.00410575 0)
(0.0988534 -0.00394297 0)
(0.0988364 -0.00378363 0)
(0.0988243 -0.00362788 0)
(0.0988167 -0.00347583 0)
(0.0988135 -0.00332757 0)
(0.0988142 -0.00318318 0)
(0.0988188 -0.00304274 0)
(0.0988268 -0.0029063 0)
(0.0988382 -0.00277393 0)
(0.0988526 -0.00264568 0)
(0.0988698 -0.0025216 0)
(0.0988896 -0.00240174 0)
(0.0989116 -0.00228614 0)
(0.0989358 -0.00217481 0)
(0.0989618 -0.00206772 0)
(0.0989893 -0.00196482 0)
(0.0990182 -0.00186605 0)
(0.0990483 -0.00177129 0)
(0.0990793 -0.00168043 0)
(0.0991111 -0.00159334 0)
(0.0991434 -0.00150988 0)
(0.099176 -0.00142993 0)
(0.0992089 -0.00135336 0)
(0.0992419 -0.00128004 0)
(0.0992749 -0.00120988 0)
(0.0993077 -0.00114277 0)
(0.100436 -0.0070118 0)
(0.100294 -0.00684205 0)
(0.10016 -0.00667015 0)
(0.100033 -0.00649651 0)
(0.0999128 -0.00632152 0)
(0.0998006 -0.00614555 0)
(0.0996958 -0.00596902 0)
(0.0995982 -0.00579228 0)
(0.0995079 -0.00561569 0)
(0.0994248 -0.00543958 0)
(0.0993487 -0.0052643 0)
(0.0992794 -0.00509015 0)
(0.0992169 -0.00491745 0)
(0.0991608 -0.0047465 0)
(0.0991111 -0.00457755 0)
(0.0990674 -0.00441088 0)
(0.0990296 -0.00424671 0)
(0.0989974 -0.00408527 0)
(0.0989706 -0.00392676 0)
(0.0989489 -0.00377135 0)
(0.0989321 -0.00361918 0)
(0.0989199 -0.0034704 0)
(0.098912 -0.00332512 0)
(0.0989083 -0.00318342 0)
(0.0989085 -0.0030454 0)
(0.0989123 -0.00291114 0)
(0.0989194 -0.0027807 0)
(0.0989298 -0.00265415 0)
(0.098943 -0.00253156 0)
(0.0989589 -0.002413 0)
(0.0989773 -0.00229849 0)
(0.0989979 -0.00218806 0)
(0.0990204 -0.00208171 0)
(0.0990446 -0.00197939 0)
(0.0990704 -0.00188104 0)
(0.0990974 -0.00178658 0)
(0.0991256 -0.00169589 0)
(0.0991545 -0.00160885 0)
(0.0991842 -0.00152536 0)
(0.0992144 -0.00144528 0)
(0.099245 -0.00136851 0)
(0.0992757 -0.00129494 0)
(0.0993066 -0.00122447 0)
(0.0993374 -0.001157 0)
(0.100606 -0.00685845 0)
(0.100464 -0.00669895 0)
(0.100328 -0.00653705 0)
(0.1002 -0.00637315 0)
(0.100078 -0.00620761 0)
(0.0999637 -0.00604077 0)
(0.0998563 -0.00587303 0)
(0.0997559 -0.00570471 0)
(0.0996625 -0.00553619 0)
(0.099576 -0.00536777 0)
(0.0994963 -0.0051998 0)
(0.0994233 -0.00503259 0)
(0.0993567 -0.00486644 0)
(0.0992966 -0.00470165 0)
(0.0992426 -0.00453849 0)
(0.0991947 -0.00437723 0)
(0.0991525 -0.00421811 0)
(0.0991159 -0.00406135 0)
(0.0990847 -0.00390718 0)
(0.0990586 -0.00375576 0)
(0.0990374 -0.00360728 0)
(0.0990208 -0.00346187 0)
(0.0990086 -0.00331967 0)
(0.0990007 -0.00318077 0)
(0.0989966 -0.00304529 0)
(0.0989963 -0.00291331 0)
(0.0989995 -0.00278492 0)
(0.0990059 -0.0026602 0)
(0.0990153 -0.00253922 0)
(0.0990275 -0.00242205 0)
(0.0990423 -0.00230875 0)
(0.0990594 -0.00219934 0)
(0.0990786 -0.00209384 0)
(0.0990996 -0.0019922 0)
(0.0991223 -0.00189439 0)
(0.0991464 -0.00180032 0)
(0.0991717 -0.0017099 0)
(0.099198 -0.00162302 0)
(0.0992251 -0.00153958 0)
(0.0992528 -0.00145947 0)
(0.0992811 -0.00138258 0)
(0.0993096 -0.00130883 0)
(0.0993384 -0.00123812 0)
(0.0993672 -0.00117036 0)
(0.100766 -0.00670494 0)
(0.100623 -0.00655524 0)
(0.100487 -0.00640294 0)
(0.100357 -0.0062484 0)
(0.100235 -0.00609197 0)
(0.100118 -0.00593396 0)
(0.100009 -0.00577474 0)
(0.0999061 -0.00561464 0)
(0.09981 -0.00545398 0)
(0.0997206 -0.00529311 0)
(0.0996378 -0.00513232 0)
(0.0995614 -0.00497194 0)
(0.0994913 -0.00481227 0)
(0.0994275 -0.0046536 0)
(0.0993697 -0.0044962 0)
(0.0993178 -0.00434034 0)
(0.0992717 -0.00418628 0)
(0.099231 -0.00403424 0)
(0.0991957 -0.00388445 0)
(0.0991654 -0.0037371 0)
(0.0991401 -0.00359237 0)
(0.0991194 -0.00345041 0)
(0.0991032 -0.00331138 0)
(0.0990912 -0.00317538 0)
(0.0990831 -0.00304253 0)
(0.0990789 -0.00291294 0)
(0.0990782 -0.0027867 0)
(0.0990809 -0.0026639 0)
(0.0990867 -0.00254464 0)
(0.0990953 -0.00242898 0)
(0.0991066 -0.00231699 0)
(0.0991204 -0.00220872 0)
(0.0991363 -0.00210416 0)
(0.0991542 -0.00200332 0)
(0.0991739 -0.00190614 0)
(0.0991951 -0.00181256 0)
(0.0992176 -0.0017225 0)
(0.0992413 -0.00163587 0)
(0.0992659 -0.00155257 0)
(0.0992912 -0.0014725 0)
(0.0993172 -0.00139558 0)
(0.0993436 -0.00132172 0)
(0.0993702 -0.00125084 0)
(0.0993971 -0.00118286 0)
(0.100915 -0.0065517 0)
(0.100772 -0.00641136 0)
(0.100636 -0.00626825 0)
(0.100506 -0.0061227 0)
(0.100382 -0.00597504 0)
(0.100265 -0.00582556 0)
(0.100154 -0.00567459 0)
(0.100049 -0.00552246 0)
(0.0999507 -0.00536948 0)
(0.0998588 -0.00521596 0)
(0.0997732 -0.00506222 0)
(0.0996938 -0.00490856 0)
(0.0996207 -0.00475527 0)
(0.0995535 -0.00460265 0)
(0.0994923 -0.00445097 0)
(0.0994369 -0.0043005 0)
(0.099387 -0.00415149 0)
(0.0993426 -0.00400418 0)
(0.0993035 -0.00385881 0)
(0.0992694 -0.00371556 0)
(0.0992402 -0.00357464 0)
(0.0992157 -0.0034362 0)
(0.0991956 -0.0033004 0)
(0.0991798 -0.00316738 0)
(0.099168 -0.00303725 0)
(0.09916 -0.00291014 0)
(0.0991557 -0.00278615 0)
(0.0991548 -0.00266537 0)
(0.099157 -0.00254792 0)
(0.0991622 -0.00243387 0)
(0.0991702 -0.00232329 0)
(0.0991807 -0.00221624 0)
(0.0991935 -0.00211274 0)
(0.0992084 -0.00201277 0)
(0.0992252 -0.00191632 0)
(0.0992435 -0.00182333 0)
(0.0992634 -0.00173372 0)
(0.0992844 -0.00164742 0)
(0.0993066 -0.00156434 0)
(0.0993296 -0.00148441 0)
(0.0993533 -0.00140753 0)
(0.0993775 -0.00133363 0)
(0.0994021 -0.00126265 0)
(0.0994271 -0.00119451 0)
(0.101054 -0.00639913 0)
(0.100912 -0.00626771 0)
(0.100776 -0.00613339 0)
(0.100646 -0.00599646 0)
(0.100522 -0.00585722 0)
(0.100403 -0.00571596 0)
(0.100291 -0.00557297 0)
(0.100185 -0.00542856 0)
(0.100085 -0.00528304 0)
(0.0999906 -0.0051367 0)
(0.0999027 -0.00498984 0)
(0.0998208 -0.00484277 0)
(0.0997448 -0.00469576 0)
(0.0996748 -0.0045491 0)
(0.0996104 -0.00440308 0)
(0.0995518 -0.00425795 0)
(0.0994986 -0.00411398 0)
(0.0994508 -0.00397141 0)
(0.0994081 -0.00383046 0)
(0.0993705 -0.00369135 0)
(0.0993377 -0.00355427 0)
(0.0993096 -0.0034194 0)
(0.0992859 -0.0032869 0)
(0.0992665 -0.00315692 0)
(0.0992511 -0.00302958 0)
(0.0992396 -0.00290503 0)
(0.0992318 -0.00278336 0)
(0.0992274 -0.0026647 0)
(0.0992263 -0.00254914 0)
(0.0992282 -0.00243679 0)
(0.099233 -0.00232772 0)
(0.0992404 -0.00222198 0)
(0.0992501 -0.00211962 0)
(0.0992621 -0.00202063 0)
(0.099276 -0.00192499 0)
(0.0992916 -0.00183267 0)
(0.0993088 -0.0017436 0)
(0.0993274 -0.00165771 0)
(0.0993471 -0.00157494 0)
(0.0993678 -0.0014952 0)
(0.0993893 -0.00141844 0)
(0.0994114 -0.00134457 0)
(0.099434 -0.00127355 0)
(0.099457 -0.00120531 0)
(0.101184 -0.00624757 0)
(0.101043 -0.00612466 0)
(0.100908 -0.00599872 0)
(0.100778 -0.00587004 0)
(0.100653 -0.00573889 0)
(0.100534 -0.00560553 0)
(0.100421 -0.00547024 0)
(0.100314 -0.00533331 0)
(0.100212 -0.00519501 0)
(0.100116 -0.00505565 0)
(0.100026 -0.00491551 0)
(0.0999423 -0.00477488 0)
(0.0998639 -0.00463403 0)
(0.0997912 -0.00449325 0)
(0.0997242 -0.00435281 0)
(0.0996626 -0.00421297 0)
(0.0996064 -0.004074 0)
(0.0995554 -0.00393614 0)
(0.0995096 -0.00379961 0)
(0.0994687 -0.00366465 0)
(0.0994325 -0.00353144 0)
(0.099401 -0.00340017 0)
(0.099374 -0.00327102 0)
(0.0993512 -0.00314413 0)
(0.0993324 -0.00301965 0)
(0.0993176 -0.00289772 0)
(0.0993064 -0.00277845 0)
(0.0992988 -0.00266197 0)
(0.0992945 -0.0025484 0)
(0.0992932 -0.00243782 0)
(0.0992949 -0.00233033 0)
(0.0992993 -0.00222599 0)
(0.0993061 -0.00212485 0)
(0.0993152 -0.00202692 0)
(0.0993264 -0.00193218 0)
(0.0993394 -0.00184061 0)
(0.099354 -0.00175216 0)
(0.0993701 -0.00166677 0)
(0.0993874 -0.00158437 0)
(0.0994058 -0.00150491 0)
(0.0994251 -0.00142832 0)
(0.0994452 -0.00135456 0)
(0.0994659 -0.00128356 0)
(0.099487 -0.00121528 0)
(0.101305 -0.00609734 0)
(0.101165 -0.00598252 0)
(0.101031 -0.00586457 0)
(0.100901 -0.00574378 0)
(0.100777 -0.00562038 0)
(0.100658 -0.00549461 0)
(0.100544 -0.00536673 0)
(0.100436 -0.00523701 0)
(0.100333 -0.00510573 0)
(0.100236 -0.00497314 0)
(0.100144 -0.00483953 0)
(0.100058 -0.00470518 0)
(0.099978 -0.00457036 0)
(0.0999031 -0.00443534 0)
(0.0998336 -0.0043004 0)
(0.0997694 -0.00416579 0)
(0.0997105 -0.00403177 0)
(0.0996566 -0.00389859 0)
(0.0996078 -0.00376647 0)
(0.0995639 -0.00363565 0)
(0.0995247 -0.00350632 0)
(0.0994901 -0.00337868 0)
(0.0994598 -0.00325291 0)
(0.0994338 -0.00312916 0)
(0.0994119 -0.00300758 0)
(0.0993939 -0.00288833 0)
(0.0993796 -0.00277152 0)
(0.0993689 -0.00265729 0)
(0.0993615 -0.00254576 0)
(0.0993572 -0.00243703 0)
(0.0993559 -0.0023312 0)
(0.0993574 -0.00222835 0)
(0.0993614 -0.00212851 0)
(0.0993677 -0.00203171 0)
(0.0993762 -0.00193795 0)
(0.0993866 -0.00184721 0)
(0.0993988 -0.00175944 0)
(0.0994125 -0.00167461 0)
(0.0994275 -0.00159266 0)
(0.0994437 -0.00151354 0)
(0.0994609 -0.00143721 0)
(0.0994789 -0.0013636 0)
(0.0994976 -0.00129269 0)
(0.0995169 -0.00122443 0)
(0.101418 -0.00594872 0)
(0.101279 -0.00584158 0)
(0.101146 -0.00573125 0)
(0.101017 -0.00561799 0)
(0.100893 -0.005502 0)
(0.100774 -0.00538351 0)
(0.10066 -0.00526276 0)
(0.100551 -0.00513999 0)
(0.100448 -0.00501547 0)
(0.10035 -0.00488945 0)
(0.100257 -0.00476219 0)
(0.100169 -0.00463396 0)
(0.100087 -0.00450502 0)
(0.10001 -0.00437565 0)
(0.0999387 -0.0042461 0)
(0.0998722 -0.00411663 0)
(0.0998108 -0.00398751 0)
(0.0997544 -0.00385896 0)
(0.0997029 -0.00373123 0)
(0.0996562 -0.00360453 0)
(0.0996142 -0.00347909 0)
(0.0995766 -0.00335509 0)
(0.0995434 -0.00323271 0)
(0.0995145 -0.00311213 0)
(0.0994896 -0.0029935 0)
(0.0994686 -0.00287697 0)
(0.0994513 -0.00276267 0)
(0.0994376 -0.00265075 0)
(0.0994272 -0.00254133 0)
(0.0994201 -0.00243451 0)
(0.099416 -0.00233041 0)
(0.0994146 -0.0022291 0)
(0.0994159 -0.00213063 0)
(0.0994196 -0.00203504 0)
(0.0994255 -0.00194232 0)
(0.0994335 -0.00185248 0)
(0.0994432 -0.00176548 0)
(0.0994545 -0.00168128 0)
(0.0994673 -0.00159985 0)
(0.0994813 -0.00152113 0)
(0.0994964 -0.00144511 0)
(0.0995124 -0.00137172 0)
(0.0995292 -0.00130095 0)
(0.0995467 -0.00123277 0)
(0.101522 -0.00580196 0)
(0.101386 -0.0057021 0)
(0.101253 -0.00559902 0)
(0.101126 -0.00549293 0)
(0.101002 -0.00538403 0)
(0.100884 -0.00527251 0)
(0.10077 -0.00515859 0)
(0.100661 -0.00504252 0)
(0.100557 -0.00492452 0)
(0.100458 -0.00480485 0)
(0.100364 -0.00468374 0)
(0.100275 -0.00456146 0)
(0.100192 -0.00443826 0)
(0.100113 -0.0043144 0)
(0.10004 -0.00419014 0)
(0.0999711 -0.00406573 0)
(0.0999075 -0.00394142 0)
(0.0998488 -0.00381745 0)
(0.0997949 -0.00369406 0)
(0.0997457 -0.00357147 0)
(0.099701 -0.0034499 0)
(0.0996607 -0.00332953 0)
(0.0996248 -0.00321057 0)
(0.0995931 -0.00309317 0)
(0.0995654 -0.00297752 0)
(0.0995416 -0.00286374 0)
(0.0995215 -0.002752 0)
(0.0995049 -0.00264244 0)
(0.0994918 -0.00253517 0)
(0.0994819 -0.00243033 0)
(0.0994751 -0.00232801 0)
(0.0994711 -0.00222831 0)
(0.0994697 -0.00213128 0)
(0.0994709 -0.00203696 0)
(0.0994743 -0.00194536 0)
(0.0994798 -0.00185648 0)
(0.0994871 -0.00177031 0)
(0.0994962 -0.0016868 0)
(0.0995068 -0.00160595 0)
(0.0995187 -0.0015277 0)
(0.0995317 -0.00145204 0)
(0.0995458 -0.00137894 0)
(0.0995607 -0.00130836 0)
(0.0995763 -0.0012403 0)
(0.101619 -0.00565727 0)
(0.101484 -0.00556432 0)
(0.101354 -0.00546812 0)
(0.101227 -0.00536886 0)
(0.101105 -0.00526671 0)
(0.100987 -0.00516185 0)
(0.100873 -0.0050545 0)
(0.100765 -0.00494485 0)
(0.10066 -0.00483314 0)
(0.100561 -0.00471958 0)
(0.100466 -0.00460443 0)
(0.100377 -0.00448792 0)
(0.100292 -0.0043703 0)
(0.100212 -0.00425182 0)
(0.100137 -0.00413273 0)
(0.100066 -0.00401327 0)
(0.100001 -0.0038937 0)
(0.0999399 -0.00377424 0)
(0.0998838 -0.00365515 0)
(0.0998322 -0.00353663 0)
(0.0997851 -0.0034189 0)
(0.0997424 -0.00330217 0)
(0.099704 -0.00318661 0)
(0.0996696 -0.00307242 0)
(0.0996393 -0.00295975 0)
(0.0996128 -0.00284877 0)
(0.0995901 -0.00273962 0)
(0.0995709 -0.00263244 0)
(0.0995551 -0.00252738 0)
(0.0995426 -0.00242456 0)
(0.0995331 -0.00232408 0)
(0.0995266 -0.00222604 0)
(0.0995227 -0.00213051 0)
(0.0995214 -0.00203752 0)
(0.0995224 -0.00194709 0)
(0.0995255 -0.00185924 0)
(0.0995306 -0.00177395 0)
(0.0995375 -0.00169121 0)
(0.0995459 -0.00161099 0)
(0.0995557 -0.00153327 0)
(0.0995668 -0.00145803 0)
(0.0995789 -0.00138526 0)
(0.099592 -0.00131493 0)
(0.0996058 -0.00124705 0)
(0.101709 -0.00551485 0)
(0.101576 -0.00542844 0)
(0.101447 -0.00533876 0)
(0.101322 -0.00524599 0)
(0.101201 -0.00515028 0)
(0.101084 -0.00505178 0)
(0.100971 -0.0049507 0)
(0.100862 -0.00484721 0)
(0.100758 -0.00474154 0)
(0.100659 -0.00463389 0)
(0.100563 -0.00452449 0)
(0.100473 -0.00441357 0)
(0.100387 -0.00430136 0)
(0.100306 -0.00418812 0)
(0.100229 -0.00407407 0)
(0.100158 -0.00395946 0)
(0.10009 -0.00384453 0)
(0.100028 -0.00372952 0)
(0.0999696 -0.00361466 0)
(0.099916 -0.00350016 0)
(0.0998667 -0.00338625 0)
(0.0998217 -0.00327313 0)
(0.0997809 -0.00316098 0)
(0.0997441 -0.00304998 0)
(0.0997114 -0.00294032 0)
(0.0996824 -0.00283214 0)
(0.0996572 -0.0027256 0)
(0.0996355 -0.00262086 0)
(0.0996172 -0.00251804 0)
(0.0996021 -0.00241728 0)
(0.0995902 -0.00231869 0)
(0.0995812 -0.00222236 0)
(0.0995749 -0.00212837 0)
(0.0995712 -0.00203677 0)
(0.0995699 -0.00194757 0)
(0.0995707 -0.0018608 0)
(0.0995736 -0.00177646 0)
(0.0995783 -0.00169452 0)
(0.0995847 -0.00161499 0)
(0.0995925 -0.00153785 0)
(0.0996016 -0.00146309 0)
(0.0996118 -0.0013907 0)
(0.099623 -0.00132068 0)
(0.0996351 -0.00125301 0)
(0.101791 -0.00537486 0)
(0.101661 -0.00529463 0)
(0.101534 -0.00521113 0)
(0.101411 -0.00512452 0)
(0.101291 -0.00503493 0)
(0.101175 -0.0049425 0)
(0.101063 -0.0048474 0)
(0.100955 -0.00474982 0)
(0.100851 -0.00464995 0)
(0.100751 -0.00454797 0)
(0.100656 -0.00444412 0)
(0.100565 -0.0043386 0)
(0.100478 -0.00423164 0)
(0.100396 -0.00412348 0)
(0.100318 -0.00401434 0)
(0.100245 -0.00390447 0)
(0.100177 -0.00379409 0)
(0.100112 -0.00368344 0)
(0.100052 -0.00357275 0)
(0.0999969 -0.00346223 0)
(0.0999456 -0.00335209 0)
(0.0998986 -0.00324255 0)
(0.0998556 -0.00313378 0)
(0.0998166 -0.00302598 0)
(0.0997816 -0.00291932 0)
(0.0997503 -0.00281396 0)
(0.0997227 -0.00271006 0)
(0.0996986 -0.00260776 0)
(0.0996779 -0.00250722 0)
(0.0996605 -0.00240855 0)
(0.0996462 -0.00231189 0)
(0.0996348 -0.00221732 0)
(0.0996263 -0.00212492 0)
(0.0996203 -0.00203475 0)
(0.0996167 -0.00194684 0)
(0.0996154 -0.0018612 0)
(0.0996161 -0.00177785 0)
(0.0996187 -0.00169678 0)
(0.099623 -0.00161799 0)
(0.0996288 -0.00154148 0)
(0.099636 -0.00146724 0)
(0.0996444 -0.00139529 0)
(0.0996538 -0.00132561 0)
(0.0996642 -0.00125821 0)
(0.101868 -0.00523744 0)
(0.10174 -0.00516304 0)
(0.101615 -0.00508539 0)
(0.101494 -0.00500461 0)
(0.101375 -0.00492084 0)
(0.101261 -0.00483418 0)
(0.101149 -0.0047448 0)
(0.101042 -0.00465287 0)
(0.100938 -0.00455854 0)
(0.100839 -0.00446202 0)
(0.100743 -0.00436351 0)
(0.100652 -0.00426321 0)
(0.100565 -0.00416133 0)
(0.100482 -0.0040581 0)
(0.100404 -0.00395374 0)
(0.100329 -0.00384848 0)
(0.100259 -0.00374255 0)
(0.100194 -0.00363617 0)
(0.100132 -0.00352957 0)
(0.100075 -0.00342296 0)
(0.100022 -0.00331655 0)
(0.0999731 -0.00321056 0)
(0.0999281 -0.00310515 0)
(0.0998871 -0.00300053 0)
(0.0998499 -0.00289687 0)
(0.0998165 -0.00279433 0)
(0.0997866 -0.00269307 0)
(0.0997603 -0.00259324 0)
(0.0997374 -0.00249499 0)
(0.0997177 -0.00239846 0)
(0.0997012 -0.00230375 0)
(0.0996876 -0.00221098 0)
(0.0996767 -0.00212021 0)
(0.0996686 -0.00203152 0)
(0.0996628 -0.00194493 0)
(0.0996594 -0.00186048 0)
(0.099658 -0.00177817 0)
(0.0996586 -0.00169801 0)
(0.0996609 -0.00162001 0)
(0.0996648 -0.00154417 0)
(0.0996701 -0.00147051 0)
(0.0996767 -0.00139903 0)
(0.0996844 -0.00132974 0)
(0.099693 -0.00126266 0)
(0.101939 -0.00510271 0)
(0.101813 -0.00503381 0)
(0.101691 -0.00496168 0)
(0.101571 -0.00488643 0)
(0.101454 -0.00480816 0)
(0.101341 -0.004727 0)
(0.101231 -0.00464306 0)
(0.101124 -0.00455651 0)
(0.101021 -0.0044675 0)
(0.100922 -0.00437622 0)
(0.100827 -0.00428284 0)
(0.100735 -0.00418756 0)
(0.100648 -0.00409058 0)
(0.100565 -0.00399213 0)
(0.100485 -0.00389241 0)
(0.10041 -0.00379164 0)
(0.100339 -0.00369004 0)
(0.100272 -0.00358784 0)
(0.100209 -0.00348526 0)
(0.100151 -0.0033825 0)
(0.100096 -0.00327977 0)
(0.100045 -0.00317727 0)
(0.0999985 -0.0030752 0)
(0.0999556 -0.00297374 0)
(0.0999164 -0.00287306 0)
(0.0998809 -0.00277334 0)
(0.0998491 -0.00267473 0)
(0.0998206 -0.00257738 0)
(0.0997956 -0.00248145 0)
(0.0997738 -0.00238706 0)
(0.0997551 -0.00229434 0)
(0.0997393 -0.00220339 0)
(0.0997264 -0.0021143 0)
(0.0997161 -0.00202711 0)
(0.0997083 -0.00194189 0)
(0.0997028 -0.00185866 0)
(0.0996994 -0.00177743 0)
(0.099698 -0.00169823 0)
(0.0996983 -0.00162106 0)
(0.0997004 -0.00154595 0)
(0.0997038 -0.0014729 0)
(0.0997086 -0.00140195 0)
(0.0997146 -0.00133309 0)
(0.0997216 -0.00126636 0)
(0.102004 -0.00497076 0)
(0.101881 -0.00490703 0)
(0.10176 -0.00484011 0)
(0.101643 -0.00477008 0)
(0.101528 -0.00469704 0)
(0.101416 -0.00462108 0)
(0.101307 -0.00454233 0)
(0.101202 -0.00446091 0)
(0.1011 -0.00437698 0)
(0.101001 -0.00429071 0)
(0.100906 -0.00420225 0)
(0.100815 -0.00411181 0)
(0.100727 -0.00401957 0)
(0.100643 -0.00392573 0)
(0.100564 -0.0038305 0)
(0.100488 -0.0037341 0)
(0.100416 -0.00363673 0)
(0.100348 -0.00353861 0)
(0.100284 -0.00343995 0)
(0.100224 -0.00334097 0)
(0.100167 -0.00324185 0)
(0.100115 -0.00314282 0)
(0.100067 -0.00304404 0)
(0.100022 -0.00294571 0)
(0.0999811 -0.002848 0)
(0.0999438 -0.00275108 0)
(0.0999099 -0.00265511 0)
(0.0998795 -0.00256025 0)
(0.0998525 -0.00246664 0)
(0.0998287 -0.00237442 0)
(0.0998079 -0.00228371 0)
(0.0997901 -0.00219461 0)
(0.0997751 -0.00210722 0)
(0.0997628 -0.00202158 0)
(0.099753 -0.00193776 0)
(0.0997455 -0.00185579 0)
(0.0997402 -0.00177569 0)
(0.0997368 -0.00169748 0)
(0.0997353 -0.00162119 0)
(0.0997355 -0.00154683 0)
(0.0997372 -0.00147445 0)
(0.0997402 -0.00140405 0)
(0.0997445 -0.00133567 0)
(0.0997498 -0.00126934 0)
(0.102063 -0.00484165 0)
(0.101943 -0.00478279 0)
(0.101825 -0.00472078 0)
(0.10171 -0.00465568 0)
(0.101597 -0.00458758 0)
(0.101486 -0.00451656 0)
(0.101379 -0.00444272 0)
(0.101275 -0.0043662 0)
(0.101173 -0.00428712 0)
(0.101075 -0.00420563 0)
(0.100981 -0.0041219 0)
(0.10089 -0.00403611 0)
(0.100802 -0.00394842 0)
(0.100718 -0.00385904 0)
(0.100638 -0.00376817 0)
(0.100562 -0.003676 0)
(0.100489 -0.00358274 0)
(0.10042 -0.0034886 0)
(0.100355 -0.00339378 0)
(0.100294 -0.00329849 0)
(0.100237 -0.00320293 0)
(0.100183 -0.00310729 0)
(0.100133 -0.00301177 0)
(0.100087 -0.00291654 0)
(0.100044 -0.00282177 0)
(0.100005 -0.00272764 0)
(0.0999693 -0.00263431 0)
(0.0999371 -0.00254193 0)
(0.0999081 -0.00245065 0)
(0.0998824 -0.00236061 0)
(0.0998597 -0.00227192 0)
(0.0998399 -0.0021847 0)
(0.099823 -0.00209903 0)
(0.0998087 -0.00201497 0)
(0.099797 -0.00193258 0)
(0.0997876 -0.0018519 0)
(0.0997803 -0.00177295 0)
(0.0997751 -0.00169578 0)
(0.0997718 -0.0016204 0)
(0.0997702 -0.00154685 0)
(0.0997701 -0.00147515 0)
(0.0997715 -0.00140536 0)
(0.0997741 -0.00133749 0)
(0.0997778 -0.00127159 0)
(0.102119 -0.00471545 0)
(0.102001 -0.00466116 0)
(0.101885 -0.00460376 0)
(0.101772 -0.00454331 0)
(0.101661 -0.00447988 0)
(0.101552 -0.00441353 0)
(0.101447 -0.00434436 0)
(0.101343 -0.00427248 0)
(0.101243 -0.00419802 0)
(0.101146 -0.00412112 0)
(0.101052 -0.00404191 0)
(0.100961 -0.00396058 0)
(0.100874 -0.00387728 0)
(0.10079 -0.0037922 0)
(0.10071 -0.00370553 0)
(0.100633 -0.00361746 0)
(0.10056 -0.00352819 0)
(0.10049 -0.00343792 0)
(0.100424 -0.00334685 0)
(0.100362 -0.00325518 0)
(0.100303 -0.0031631 0)
(0.100248 -0.00307081 0)
(0.100197 -0.00297849 0)
(0.100149 -0.00288632 0)
(0.100105 -0.00279447 0)
(0.100064 -0.00270311 0)
(0.100027 -0.0026124 0)
(0.0999932 -0.0025225 0)
(0.0999625 -0.00243355 0)
(0.0999349 -0.00234569 0)
(0.0999104 -0.00225904 0)
(0.0998888 -0.0021737 0)
(0.09987 -0.00208977 0)
(0.0998538 -0.00200731 0)
(0.0998402 -0.00192638 0)
(0.0998289 -0.00184702 0)
(0.0998199 -0.00176927 0)
(0.0998129 -0.00169316 0)
(0.0998078 -0.00161872 0)
(0.0998044 -0.00154601 0)
(0.0998026 -0.00147505 0)
(0.0998023 -0.00140589 0)
(0.0998033 -0.00133857 0)
(0.0998054 -0.00127314 0)
(0.10982 -0.0105185 0)
(0.109262 -0.010676 0)
(0.10871 -0.0107983 0)
(0.108164 -0.0108869 0)
(0.107627 -0.0109435 0)
(0.107102 -0.0109699 0)
(0.106589 -0.0109679 0)
(0.10609 -0.0109394 0)
(0.105607 -0.0108863 0)
(0.105141 -0.0108104 0)
(0.104692 -0.0107136 0)
(0.104261 -0.0105977 0)
(0.103849 -0.0104646 0)
(0.103456 -0.0103158 0)
(0.103083 -0.0101532 0)
(0.102728 -0.00997852 0)
(0.102393 -0.0097933 0)
(0.102076 -0.00959917 0)
(0.101778 -0.00939767 0)
(0.101499 -0.00919026 0)
(0.101237 -0.0089783 0)
(0.100992 -0.00876305 0)
(0.100764 -0.0085457 0)
(0.100552 -0.00832729 0)
(0.100356 -0.00810876 0)
(0.100174 -0.00789096 0)
(0.100006 -0.00767461 0)
(0.109647 -0.0099779 0)
(0.109124 -0.0101383 0)
(0.108604 -0.0102657 0)
(0.10809 -0.0103616 0)
(0.107583 -0.0104275 0)
(0.107086 -0.0104649 0)
(0.1066 -0.0104755 0)
(0.106127 -0.0104609 0)
(0.105667 -0.010423 0)
(0.105222 -0.0103632 0)
(0.104793 -0.0102833 0)
(0.10438 -0.0101849 0)
(0.103984 -0.0100696 0)
(0.103605 -0.00993909 0)
(0.103244 -0.00979485 0)
(0.1029 -0.00963848 0)
(0.102574 -0.00947152 0)
(0.102265 -0.00929544 0)
(0.101973 -0.00911168 0)
(0.101699 -0.00892164 0)
(0.101441 -0.00872659 0)
(0.101199 -0.00852777 0)
(0.100973 -0.00832627 0)
(0.100762 -0.00812314 0)
(0.100565 -0.00791927 0)
(0.100383 -0.00771549 0)
(0.100213 -0.00751251 0)
(0.109471 -0.0094707 0)
(0.108979 -0.0096329 0)
(0.10849 -0.00976435 0)
(0.108006 -0.00986627 0)
(0.107528 -0.00993997 0)
(0.107058 -0.00998689 0)
(0.106598 -0.0100085 0)
(0.106148 -0.0100062 0)
(0.105711 -0.00998161 0)
(0.105287 -0.00993617 0)
(0.104876 -0.00987138 0)
(0.104481 -0.0097887 0)
(0.1041 -0.00968962 0)
(0.103735 -0.00957559 0)
(0.103386 -0.00944808 0)
(0.103053 -0.00930851 0)
(0.102737 -0.00915832 0)
(0.102436 -0.00899889 0)
(0.102151 -0.00883159 0)
(0.101882 -0.0086577 0)
(0.101628 -0.00847845 0)
(0.10139 -0.00829502 0)
(0.101166 -0.00810845 0)
(0.100956 -0.00791975 0)
(0.10076 -0.00772978 0)
(0.100578 -0.00753934 0)
(0.100408 -0.00734913 0)
(0.109292 -0.00899475 0)
(0.108831 -0.00915797 0)
(0.108371 -0.00929245 0)
(0.107914 -0.00939924 0)
(0.107463 -0.00947954 0)
(0.107019 -0.00953459 0)
(0.106583 -0.0095657 0)
(0.106157 -0.00957418 0)
(0.105741 -0.00956139 0)
(0.105336 -0.00952866 0)
(0.104945 -0.00947735 0)
(0.104566 -0.00940877 0)
(0.1042 -0.00932428 0)
(0.103849 -0.00922521 0)
(0.103513 -0.00911291 0)
(0.103191 -0.00898869 0)
(0.102883 -0.00885389 0)
(0.102591 -0.00870981 0)
(0.102313 -0.00855772 0)
(0.102049 -0.00839884 0)
(0.1018 -0.00823434 0)
(0.101565 -0.00806531 0)
(0.101344 -0.00789278 0)
(0.101137 -0.00771768 0)
(0.100942 -0.00754087 0)
(0.10076 -0.0073631 0)
(0.10059 -0.00718506 0)
(0.109113 -0.00854801 0)
(0.108679 -0.00871155 0)
(0.108247 -0.0088482 0)
(0.107817 -0.0089589 0)
(0.107391 -0.00904468 0)
(0.106971 -0.00910665 0)
(0.106558 -0.00914597 0)
(0.106154 -0.00916383 0)
(0.105758 -0.00916141 0)
(0.105373 -0.00913994 0)
(0.104999 -0.00910062 0)
(0.104636 -0.00904467 0)
(0.104286 -0.0089733 0)
(0.103948 -0.00888775 0)
(0.103624 -0.00878925 0)
(0.103312 -0.00867904 0)
(0.103014 -0.00855834 0)
(0.10273 -0.00842838 0)
(0.102459 -0.00829035 0)
(0.102202 -0.0081454 0)
(0.101958 -0.00799463 0)
(0.101727 -0.00783908 0)
(0.101509 -0.00767972 0)
(0.101304 -0.00751744 0)
(0.101111 -0.00735307 0)
(0.10093 -0.00718732 0)
(0.100761 -0.00702087 0)
(0.108934 -0.00812853 0)
(0.108527 -0.00829181 0)
(0.10812 -0.00842991 0)
(0.107715 -0.00854365 0)
(0.107313 -0.00863394 0)
(0.106916 -0.00870175 0)
(0.106525 -0.00874812 0)
(0.106141 -0.00877411 0)
(0.105765 -0.00878079 0)
(0.105398 -0.00876924 0)
(0.105041 -0.00874057 0)
(0.104694 -0.00869588 0)
(0.104358 -0.0086363 0)
(0.104033 -0.00856294 0)
(0.103721 -0.00847695 0)
(0.10342 -0.00837949 0)
(0.103132 -0.0082717 0)
(0.102856 -0.00815472 0)
(0.102592 -0.00802966 0)
(0.102341 -0.00789762 0)
(0.102102 -0.00775962 0)
(0.101876 -0.00761666 0)
(0.101662 -0.00746965 0)
(0.101459 -0.00731944 0)
(0.101268 -0.00716681 0)
(0.101089 -0.00701246 0)
(0.10092 -0.00685701 0)
(0.108757 -0.00773449 0)
(0.108374 -0.00789702 0)
(0.107991 -0.00803595 0)
(0.107609 -0.00815198 0)
(0.107229 -0.00824592 0)
(0.106854 -0.00831862 0)
(0.106484 -0.008371 0)
(0.106119 -0.00840401 0)
(0.105762 -0.00841861 0)
(0.105413 -0.00841579 0)
(0.105072 -0.00839654 0)
(0.10474 -0.00836189 0)
(0.104418 -0.00831284 0)
(0.104106 -0.00825046 0)
(0.103805 -0.0081758 0)
(0.103515 -0.00808993 0)
(0.103236 -0.00799393 0)
(0.102968 -0.00788886 0)
(0.102712 -0.00777577 0)
(0.102467 -0.00765568 0)
(0.102234 -0.00752956 0)
(0.102012 -0.00739835 0)
(0.101802 -0.00726291 0)
(0.101602 -0.00712404 0)
(0.101414 -0.00698249 0)
(0.101236 -0.00683892 0)
(0.101068 -0.00669392 0)
(0.108582 -0.00736419 0)
(0.108221 -0.00752556 0)
(0.10786 -0.00766477 0)
(0.1075 -0.00778244 0)
(0.107142 -0.00787927 0)
(0.106787 -0.00795602 0)
(0.106436 -0.00801348 0)
(0.106091 -0.00805252 0)
(0.105751 -0.008074 0)
(0.105418 -0.00807882 0)
(0.105093 -0.00806788 0)
(0.104775 -0.00804213 0)
(0.104467 -0.0080025 0)
(0.104167 -0.00794998 0)
(0.103877 -0.00788555 0)
(0.103597 -0.00781021 0)
(0.103328 -0.00772497 0)
(0.103068 -0.00763082 0)
(0.102819 -0.00752875 0)
(0.102581 -0.00741971 0)
(0.102354 -0.00730463 0)
(0.102137 -0.00718438 0)
(0.10193 -0.00705977 0)
(0.101734 -0.00693156 0)
(0.101548 -0.00680044 0)
(0.101373 -0.00666706 0)
(0.101207 -0.00653198 0)
(0.108409 -0.007016 0)
(0.10807 -0.00717586 0)
(0.10773 -0.00731491 0)
(0.10739 -0.00743366 0)
(0.107052 -0.00753272 0)
(0.106716 -0.00761275 0)
(0.106383 -0.00767448 0)
(0.106055 -0.00771865 0)
(0.105732 -0.00774607 0)
(0.105415 -0.00775754 0)
(0.105105 -0.00775391 0)
(0.104801 -0.00773604 0)
(0.104506 -0.00770482 0)
(0.104218 -0.00766114 0)
(0.103939 -0.00760594 0)
(0.103669 -0.00754015 0)
(0.103408 -0.00746471 0)
(0.103157 -0.00738057 0)
(0.102916 -0.00728864 0)
(0.102684 -0.00718983 0)
(0.102462 -0.00708499 0)
(0.10225 -0.00697495 0)
(0.102048 -0.00686047 0)
(0.101855 -0.00674226 0)
(0.101673 -0.00662097 0)
(0.101499 -0.00649721 0)
(0.101335 -0.00637152 0)
(0.108239 -0.00668841 0)
(0.10792 -0.00684649 0)
(0.107599 -0.00698497 0)
(0.107279 -0.00710431 0)
(0.106959 -0.00720502 0)
(0.106641 -0.00728768 0)
(0.106326 -0.00735292 0)
(0.106014 -0.00740144 0)
(0.105707 -0.00743395 0)
(0.105405 -0.00745121 0)
(0.105108 -0.00745398 0)
(0.104818 -0.00744307 0)
(0.104535 -0.00741931 0)
(0.104259 -0.00738355 0)
(0.103991 -0.00733667 0)
(0.10373 -0.00727953 0)
(0.103479 -0.00721303 0)
(0.103236 -0.00713805 0)
(0.103001 -0.00705546 0)
(0.102776 -0.00696609 0)
(0.10256 -0.00687076 0)
(0.102353 -0.00677022 0)
(0.102155 -0.0066652 0)
(0.101967 -0.00655637 0)
(0.101787 -0.00644433 0)
(0.101617 -0.00632966 0)
(0.101455 -0.00621285 0)
(0.108073 -0.00638001 0)
(0.107772 -0.00653606 0)
(0.107469 -0.00667364 0)
(0.107166 -0.00679314 0)
(0.106864 -0.00689498 0)
(0.106563 -0.00697968 0)
(0.106264 -0.0070478 0)
(0.105968 -0.00709995 0)
(0.105676 -0.00713681 0)
(0.105388 -0.00715905 0)
(0.105105 -0.00716741 0)
(0.104828 -0.00716264 0)
(0.104556 -0.00714551 0)
(0.104291 -0.00711684 0)
(0.104033 -0.00707744 0)
(0.103782 -0.00702814 0)
(0.103539 -0.00696977 0)
(0.103304 -0.00690318 0)
(0.103077 -0.00682917 0)
(0.102858 -0.00674852 0)
(0.102648 -0.006662 0)
(0.102446 -0.00657032 0)
(0.102253 -0.00647414 0)
(0.102069 -0.0063741 0)
(0.101893 -0.00627075 0)
(0.101725 -0.00616464 0)
(0.101565 -0.00605623 0)
(0.10791 -0.00608946 0)
(0.107626 -0.00624327 0)
(0.107341 -0.00637967 0)
(0.107054 -0.00649895 0)
(0.106768 -0.00660148 0)
(0.106483 -0.0066877 0)
(0.106199 -0.00675811 0)
(0.105918 -0.00681329 0)
(0.10564 -0.00685382 0)
(0.105365 -0.00688035 0)
(0.105095 -0.00689357 0)
(0.10483 -0.00689419 0)
(0.10457 -0.00688295 0)
(0.104315 -0.0068606 0)
(0.104067 -0.00682793 0)