/*--------------------------------*- C++ -*----------------------------------*\
| =========                 |                                                 |
| \\      /  F ield         | OpenFOAM: The Open Source CFD Toolbox           |
|  \\    /   O peration     | Version:  2412                                  |
|   \\  /    A nd           | Website:  www.openfoam.com                      |
|    \\/     M anipulation  |                                                 |
\*---------------------------------------------------------------------------*/
FoamFile
{
    version     2.0;
    format      ascii;
    arch        "LSB;label=32;scalar=64";
    class       volVectorField;
    location    "22";
    object      U;
}
// * * * * * * * * * * * * * * * * * * * * * * * * * * * * * * * * * * * * * //

dimensions      [0 1 -1 0 0 0 0];

internalField   nonuniform List<vector> 
5285
(
(0.11716 0.0037799 0)
(0.116504 0.0035818 0)
(0.11668 0.00293546 0)
(0.116801 0.00228231 0)
(0.116893 0.00162393 0)
(0.116947 0.000962463 0)
(0.116961 0.000300929 0)
(0.116936 -0.000357735 0)
(0.116872 -0.00101082 0)
(0.116771 -0.00165574 0)
(0.116634 -0.00229006 0)
(0.116462 -0.00291146 0)
(0.116256 -0.00351779 0)
(0.116018 -0.00410703 0)
(0.11575 -0.00467733 0)
(0.115453 -0.00522697 0)
(0.11513 -0.0057544 0)
(0.114781 -0.00625822 0)
(0.11441 -0.00673717 0)
(0.114018 -0.00719016 0)
(0.113607 -0.00761623 0)
(0.113179 -0.00801459 0)
(0.112737 -0.0083846 0)
(0.112283 -0.00872582 0)
(0.115886 0.00339541 0)
(0.116051 0.00278703 0)
(0.116167 0.00217209 0)
(0.116255 0.00155195 0)
(0.116308 0.000928652 0)
(0.116324 0.000304959 0)
(0.116303 -0.000316425 0)
(0.116247 -0.00093299 0)
(0.116155 -0.00154234 0)
(0.11603 -0.0021422 0)
(0.115872 -0.00273041 0)
(0.115682 -0.00330493 0)
(0.115462 -0.00386389 0)
(0.115214 -0.00440552 0)
(0.114938 -0.00492822 0)
(0.114637 -0.00543051 0)
(0.114313 -0.00591106 0)
(0.113967 -0.00636867 0)
(0.1136 -0.00680231 0)
(0.113216 -0.00721104 0)
(0.112816 -0.0075941 0)
(0.112402 -0.00795087 0)
(0.111975 -0.0082809 0)
(0.115303 0.00322013 0)
(0.115458 0.00264684 0)
(0.115569 0.00206724 0)
(0.115653 0.00148258 0)
(0.115704 0.00089472 0)
(0.115721 0.000306216 0)
(0.115704 -0.000280441 0)
(0.115654 -0.000862927 0)
(0.115571 -0.00143902 0)
(0.115456 -0.00200661 0)
(0.115311 -0.00256366 0)
(0.115135 -0.00310828 0)
(0.114932 -0.0036387 0)
(0.114701 -0.00415327 0)
(0.114445 -0.00465047 0)
(0.114165 -0.00512892 0)
(0.113863 -0.00558734 0)
(0.113539 -0.00602461 0)
(0.113197 -0.00643971 0)
(0.112837 -0.00683178 0)
(0.112463 -0.00720007 0)
(0.112074 -0.00754397 0)
(0.111674 -0.00786303 0)
(0.114752 0.00305538 0)
(0.114899 0.00251458 0)
(0.115003 0.00196773 0)
(0.115084 0.00141599 0)
(0.115134 0.000861075 0)
(0.115151 0.000305327 0)
(0.115137 -0.000248954 0)
(0.115092 -0.000799622 0)
(0.115016 -0.00134461 0)
(0.114911 -0.00188196 0)
(0.114777 -0.00240977 0)
(0.114615 -0.00292628 0)
(0.114426 -0.00342982 0)
(0.114212 -0.00391886 0)
(0.113974 -0.00439196 0)
(0.113713 -0.0048478 0)
(0.11343 -0.0052852 0)
(0.113128 -0.00570308 0)
(0.112808 -0.00610048 0)
(0.112471 -0.00647656 0)
(0.11212 -0.00683061 0)
(0.111755 -0.00716203 0)
(0.111379 -0.00747037 0)
(0.114232 0.00290057 0)
(0.11437 0.00238987 0)
(0.11447 0.00187344 0)
(0.114546 0.00135229 0)
(0.114594 0.000828025 0)
(0.114612 0.000302796 0)
(0.1146 -0.000221281 0)
(0.11456 -0.00074222 0)
(0.114491 -0.00125811 0)
(0.114394 -0.00176712 0)
(0.11427 -0.00226749 0)
(0.11412 -0.00275757 0)
(0.113945 -0.0032358 0)
(0.113746 -0.00370074 0)
(0.113523 -0.00415105 0)
(0.11328 -0.00458549 0)
(0.113016 -0.00500292 0)
(0.112734 -0.00540235 0)
(0.112434 -0.00578284 0)
(0.112118 -0.00614361 0)
(0.111789 -0.00648396 0)
(0.111446 -0.00680331 0)
(0.111093 -0.00710123 0)
(0.113741 0.00275507 0)
(0.11387 0.00227234 0)
(0.113965 0.00178416 0)
(0.114037 0.00129148 0)
(0.114083 0.000795768 0)
(0.114102 0.000298996 0)
(0.114092 -0.000196881 0)
(0.114056 -0.000690029 0)
(0.113992 -0.00117868 0)
(0.113903 -0.00166112 0)
(0.113788 -0.00213573 0)
(0.113649 -0.00260095 0)
(0.113486 -0.00305535 0)
(0.113301 -0.00349757 0)
(0.113094 -0.00392633 0)
(0.112866 -0.00434049 0)
(0.11262 -0.00473899 0)
(0.112355 -0.00512085 0)
(0.112075 -0.00548522 0)
(0.111779 -0.00583133 0)
(0.111469 -0.00615852 0)
(0.111148 -0.00646623 0)
(0.110815 -0.00675403 0)
(0.113276 0.00261828 0)
(0.113398 0.00216157 0)
(0.113487 0.0016997 0)
(0.113556 0.00123353 0)
(0.1136 0.000764434 0)
(0.113618 0.000294221 0)
(0.113611 -0.00017531 0)
(0.113578 -0.000642462 0)
(0.11352 -0.0011056 0)
(0.113437 -0.00156313 0)
(0.113331 -0.00201354 0)
(0.113202 -0.00245539 0)
(0.11305 -0.00288734 0)
(0.112877 -0.00330811 0)
(0.112684 -0.00371652 0)
(0.112471 -0.00411148 0)
(0.11224 -0.004492 0)
(0.111993 -0.00485716 0)
(0.11173 -0.00520616 0)
(0.111452 -0.00553825 0)
(0.111161 -0.00585281 0)
(0.110859 -0.00614929 0)
(0.110546 -0.00642728 0)
(0.112836 0.00248965 0)
(0.11295 0.00205717 0)
(0.113035 0.0016198 0)
(0.1131 0.00117837 0)
(0.113143 0.000734109 0)
(0.113161 0.000288703 0)
(0.113154 -0.000156194 0)
(0.113124 -0.000599015 0)
(0.113071 -0.00103824 0)
(0.112995 -0.0014724 0)
(0.112896 -0.00190008 0)
(0.112776 -0.00231995 0)
(0.112635 -0.00273075 0)
(0.112473 -0.00313128 0)
(0.112293 -0.00352045 0)
(0.112094 -0.00389723 0)
(0.111878 -0.0042607 0)
(0.111646 -0.00460998 0)
(0.111399 -0.00494431 0)
(0.111138 -0.00526301 0)
(0.110865 -0.00556545 0)
(0.110581 -0.00585113 0)
(0.110286 -0.00611962 0)
(0.112418 0.00236862 0)
(0.112526 0.00195875 0)
(0.112607 0.00154425 0)
(0.112669 0.0011259 0)
(0.112709 0.000704841 0)
(0.112727 0.000282626 0)
(0.112722 -0.000139222 0)
(0.112695 -0.000559254 0)
(0.112645 -0.00097606 0)
(0.112575 -0.00138828 0)
(0.112483 -0.0017946 0)
(0.112371 -0.00219378 0)
(0.112239 -0.00258465 0)
(0.112089 -0.00296609 0)
(0.11192 -0.00333707 0)
(0.111734 -0.00369664 0)
(0.111531 -0.00404392 0)
(0.111314 -0.00437811 0)
(0.111082 -0.00469847 0)
(0.110837 -0.00500436 0)
(0.11058 -0.00529519 0)
(0.110312 -0.00557046 0)
(0.110035 -0.00582977 0)
(0.112022 0.0022547 0)
(0.112124 0.00186593 0)
(0.112201 0.00147279 0)
(0.112259 0.00107601 0)
(0.112298 0.000676652 0)
(0.112315 0.000276135 0)
(0.112311 -0.000124132 0)
(0.112286 -0.000522805 0)
(0.112241 -0.000918583 0)
(0.112176 -0.0013102 0)
(0.112091 -0.00169644 0)
(0.111986 -0.00207615 0)
(0.111863 -0.00244822 0)
(0.111722 -0.00281163 0)
(0.111564 -0.00316542 0)
(0.11139 -0.0035087 0)
(0.1112 -0.00384063 0)
(0.110996 -0.00416046 0)
(0.110778 -0.00446751 0)
(0.110548 -0.00476116 0)
(0.110306 -0.00504086 0)
(0.110054 -0.00530612 0)
(0.109793 -0.00555656 0)
(0.111647 0.00214741 0)
(0.111742 0.00177836 0)
(0.111815 0.0014052 0)
(0.111871 0.0010286 0)
(0.111908 0.000649543 0)
(0.111924 0.000269343 0)
(0.111921 -0.0001107 0)
(0.111899 -0.000489345 0)
(0.111857 -0.000865383 0)
(0.111796 -0.00123764 0)
(0.111717 -0.00160499 0)
(0.11162 -0.00196636 0)
(0.111505 -0.00232072 0)
(0.111373 -0.00266712 0)
(0.111225 -0.00300465 0)
(0.111062 -0.00333248 0)
(0.110884 -0.00364985 0)
(0.110692 -0.00395604 0)
(0.110487 -0.0042504 0)
(0.11027 -0.00453236 0)
(0.110043 -0.00480139 0)
(0.109805 -0.00505703 0)
(0.109559 -0.0052989 0)
(0.11129 0.0020463 0)
(0.11138 0.00169571 0)
(0.111449 0.00134125 0)
(0.111502 0.000983542 0)
(0.111537 0.000623504 0)
(0.111553 0.000262343 0)
(0.111551 -9.87369e-05 0)
(0.111531 -0.000458587 0)
(0.111492 -0.000816088 0)
(0.111436 -0.00117015 0)
(0.111362 -0.00151973 0)
(0.111271 -0.00186382 0)
(0.111164 -0.00220147 0)
(0.11104 -0.0025318 0)
(0.110901 -0.00285395 0)
(0.110748 -0.00316716 0)
(0.110581 -0.00347071 0)
(0.110401 -0.00376392 0)
(0.110208 -0.0040462 0)
(0.110004 -0.004317 0)
(0.10979 -0.0045758 0)
(0.109566 -0.00482219 0)
(0.109334 -0.00505579 0)
(0.110951 0.00195095 0)
(0.111036 0.00161766 0)
(0.111102 0.00128072 0)
(0.111152 0.000940722 0)
(0.111185 0.000598511 0)
(0.111201 0.000255206 0)
(0.111199 -8.80803e-05 0)
(0.111181 -0.000430283 0)
(0.111145 -0.000770365 0)
(0.111093 -0.00110732 0)
(0.111024 -0.00144016 0)
(0.110939 -0.00176797 0)
(0.110838 -0.00208987 0)
(0.110723 -0.00240501 0)
(0.110593 -0.00271262 0)
(0.110449 -0.00301198 0)
(0.110292 -0.00330241 0)
(0.110122 -0.00358328 0)
(0.109941 -0.00385404 0)
(0.109749 -0.00411417 0)
(0.109547 -0.00436318 0)
(0.109336 -0.00460067 0)
(0.109117 -0.00482628 0)
(0.110629 0.001861 0)
(0.110709 0.00154392 0)
(0.110771 0.00122342 0)
(0.110819 0.000900023 0)
(0.11085 0.000574537 0)
(0.110866 0.000247989 0)
(0.110865 -7.85906e-05 0)
(0.110848 -0.000404214 0)
(0.110815 -0.00072792 0)
(0.110766 -0.00104877 0)
(0.110702 -0.00136586 0)
(0.110622 -0.00167832 0)
(0.110528 -0.00198534 0)
(0.11042 -0.00228614 0)
(0.110298 -0.00257999 0)
(0.110163 -0.00286622 0)
(0.110015 -0.0031442 0)
(0.109856 -0.00341334 0)
(0.109685 -0.00367313 0)
(0.109504 -0.00392305 0)
(0.109314 -0.00416268 0)
(0.109115 -0.00439162 0)
(0.108908 -0.00460951 0)
(0.110322 0.00177607 0)
(0.110397 0.00147422 0)
(0.110457 0.00116914 0)
(0.110502 0.000861333 0)
(0.110532 0.000551547 0)
(0.110547 0.000240735 0)
(0.110547 -7.01475e-05 0)
(0.110531 -0.000380186 0)
(0.1105 -0.000688487 0)
(0.110455 -0.000994178 0)
(0.110395 -0.00129642 0)
(0.110321 -0.00159441 0)
(0.110232 -0.00188739 0)
(0.110131 -0.00217463 0)
(0.110016 -0.00245546 0)
(0.109889 -0.00272924 0)
(0.109751 -0.0029954 0)
(0.109601 -0.00325339 0)
(0.10944 -0.00350271 0)
(0.10927 -0.00374289 0)
(0.10909 -0.00397353 0)
(0.108902 -0.00419423 0)
(0.108706 -0.00440468 0)
(0.110029 0.00169584 0)
(0.110101 0.0014083 0)
(0.110157 0.0011177 0)
(0.1102 0.000824539 0)
(0.110229 0.000529502 0)
(0.110244 0.000233478 0)
(0.110244 -6.26483e-05 0)
(0.110229 -0.000358027 0)
(0.110201 -0.00065183 0)
(0.110159 -0.000943246 0)
(0.110103 -0.0012315 0)
(0.110033 -0.00151583 0)
(0.10995 -0.00179555 0)
(0.109855 -0.00206997 0)
(0.109747 -0.00233847 0)
(0.109628 -0.00260046 0)
(0.109498 -0.00285539 0)
(0.109356 -0.00310276 0)
(0.109205 -0.0033421 0)
(0.109044 -0.00357298 0)
(0.108875 -0.00379499 0)
(0.108697 -0.00400778 0)
(0.108512 -0.00421104 0)
(0.109751 0.00162 0)
(0.109818 0.00134592 0)
(0.109872 0.00106894 0)
(0.109913 0.000789529 0)
(0.109941 0.000508355 0)
(0.109954 0.000226238 0)
(0.109955 -5.60063e-05 0)
(0.109942 -0.000337588 0)
(0.109916 -0.000617737 0)
(0.109876 -0.000895701 0)
(0.109824 -0.00117076 0)
(0.109759 -0.00144221 0)
(0.109681 -0.00170939 0)
(0.109592 -0.00197169 0)
(0.10949 -0.00222851 0)
(0.109378 -0.00247932 0)
(0.109255 -0.00272359 0)
(0.109122 -0.00296086 0)
(0.10898 -0.00319068 0)
(0.108828 -0.00341266 0)
(0.108668 -0.0036264 0)
(0.1085 -0.00383158 0)
(0.108325 -0.00402788 0)
(0.109485 0.00154816 0)
(0.109549 0.00128682 0)
(0.1096 0.00102265 0)
(0.109639 0.000756184 0)
(0.109665 0.000488056 0)
(0.109679 0.000219028 0)
(0.10968 -5.01454e-05 0)
(0.109668 -0.000318732 0)
(0.109644 -0.000586015 0)
(0.109607 -0.000851295 0)
(0.109558 -0.0011139 0)
(0.109497 -0.00137318 0)
(0.109424 -0.00162853 0)
(0.10934 -0.00187936 0)
(0.109245 -0.00212512 0)
(0.109139 -0.00236531 0)
(0.109023 -0.00259945 0)
(0.108898 -0.00282711 0)
(0.108764 -0.00304785 0)
(0.10862 -0.00326131 0)
(0.108469 -0.00346713 0)
(0.108311 -0.00366498 0)
(0.108145 -0.00385457 0)
(0.114849 0.00783385 1.91173e-24)
(0.115299 0.00733806 -1.91626e-24)
(0.114375 0.00742472 -1.78249e-24)
(0.114794 0.00695335 6.27231e-23)
(0.115208 0.00647151 -3.83556e-24)
(0.115618 0.00598012 0)
(0.116021 0.00547908 1.34424e-22)
(0.116417 0.00496439 -3.06949e-22)
(0.116834 0.00441825 -4.93542e-24)
(0.113924 0.00704235 1.66169e-24)
(0.114314 0.00659377 -1.08547e-22)
(0.1147 0.00613508 -1.13869e-22)
(0.11508 0.00566713 2.25307e-25)
(0.115453 0.00518993 -2.72674e-22)
(0.11582 0.0047002 2.79621e-22)
(0.116204 0.0041827 2.85896e-22)
(0.113495 0.00668459 -1.30714e-23)
(0.113859 0.00625739 5.48745e-23)
(0.114218 0.00582033 2.17052e-22)
(0.114572 0.00537431 1.17154e-22)
(0.114917 0.00491939 1.29562e-22)
(0.115256 0.00445287 -5.26727e-22)
(0.115609 0.00396179 -5.6457e-22)
(0.113087 0.00634957 1.29831e-23)
(0.113427 0.0059424 1.65339e-24)
(0.113761 0.00552565 -1.09604e-22)
(0.11409 0.00510017 -2.23062e-22)
(0.11441 0.00466609 -1.95076e-25)
(0.114723 0.00422124 1.40271e-22)
(0.115047 0.00375465 2.69851e-22)
(0.112698 0.00603555 8.62992e-24)
(0.113016 0.0056472 4.23228e-24)
(0.113327 0.00524952 -4.91124e-23)
(0.113633 0.00484332 2.0468e-22)
(0.11393 0.00442881 0)
(0.114219 0.00400425 1.2292e-22)
(0.114516 0.00356042 -3.70819e-24)
(0.112327 0.00574094 -1.80052e-23)
(0.112624 0.0053703 -1.25091e-24)
(0.112915 0.00499056 4.33818e-23)
(0.113199 0.00460249 -1.90942e-22)
(0.113474 0.00420638 9.7697e-23)
(0.113742 0.00380087 1.10349e-22)
(0.114015 0.00337826 -3.45235e-24)
(0.111973 0.0054643 9.28064e-24)
(0.112251 0.00511033 0)
(0.112523 0.00474748 0)
(0.112787 0.0043765 9.20279e-23)
(0.113042 0.00399773 -1.00852e-22)
(0.11329 0.00361014 -1.9698e-22)
(0.11354 0.00320736 -1.01726e-22)
(0.111635 0.0052043 1.07845e-24)
(0.111896 0.00486606 1.85469e-23)
(0.112149 0.00451914 1.65373e-25)
(0.112395 0.00416428 1.60809e-25)
(0.112632 0.00380187 8.21978e-23)
(0.112861 0.00343115 1.89214e-22)
(0.113091 0.00304694 1.93152e-22)
(0.111312 0.00495974 -1.0001e-24)
(0.111556 0.00463634 -1.63204e-23)
(0.111793 0.00430447 0)
(0.112022 0.00396484 -3.70721e-23)
(0.112243 0.00361787 -8.4823e-23)
(0.112454 0.00326309 -3.35312e-24)
(0.112665 0.00289628 -1.85283e-22)
(0.111004 0.00472951 0)
(0.111233 0.00442014 -1.2854e-23)
(0.111454 0.00410249 -3.19635e-23)
(0.111668 0.00377726 3.26201e-23)
(0.111872 0.00344491 4.75152e-24)
(0.112068 0.00310517 -8.33362e-23)
(0.112261 0.0027547 8.52594e-23)
(0.110709 0.0045126 -8.5603e-25)
(0.110923 0.00421649 1.75966e-23)
(0.111131 0.00391231 3.02833e-23)
(0.11133 0.00360071 2.14088e-24)
(0.11152 0.0032822 -2.14057e-24)
(0.1117 0.00295668 -7.21874e-23)
(0.111877 0.00262158 0)
(0.110426 0.00430808 3.68023e-24)
(0.110628 0.00402453 -7.89556e-25)
(0.110822 0.00373309 -1.85608e-24)
(0.111008 0.00343442 2.94713e-23)
(0.111184 0.00312902 -1.26661e-25)
(0.111351 0.00281696 1.09912e-22)
(0.111513 0.00249633 6.83683e-23)
(0.110156 0.0041151 -3.62184e-24)
(0.110345 0.00384344 2.31468e-24)
(0.110527 0.00356408 1.306e-25)
(0.1107 0.00327767 -6.05518e-23)
(0.110864 0.00298471 1.83787e-24)
(0.111018 0.00268541 -6.24166e-23)
(0.111167 0.00237839 -7.24797e-23)
(0.109897 0.00393286 6.67145e-25)
(0.110075 0.00367248 7.96209e-25)
(0.110245 0.00340459 -1.15794e-23)
(0.110407 0.0031298 2.7512e-23)
(0.110559 0.00284866 -1.69903e-24)
(0.110702 0.00256145 3.2914e-23)
(0.110837 0.00226728 -3.22193e-23)
(0.109649 0.00376063 -6.10453e-25)
(0.109817 0.00351096 6.09942e-25)
(0.109976 0.00325396 2.10082e-23)
(0.110127 0.00299023 -1.15061e-25)
(0.110268 0.0027203 1.40552e-23)
(0.1104 0.00244457 -2.83226e-23)
(0.110524 0.00216253 3.19966e-23)
(0.109411 0.00359776 -5.56545e-25)
(0.109569 0.00335826 4.02582e-24)
(0.109719 0.00311161 -1.06497e-23)
(0.109859 0.00285838 -1.33926e-24)
(0.109991 0.00259912 -2.39816e-23)
(0.110112 0.0023343 2.81493e-23)
(0.110225 0.0020637 -1.63205e-24)
(0.109183 0.00344363 9.57026e-25)
(0.109332 0.0032138 4.11326e-25)
(0.109472 0.00297699 4.608e-24)
(0.109604 0.00273377 1.05594e-25)
(0.109725 0.00248467 1.15953e-23)
(0.109838 0.0022302 -1.41773e-24)
(0.109941 0.00197042 -1.192e-23)
(0.108964 0.00329768 -4.52496e-25)
(0.109104 0.00307707 -1.11715e-24)
(0.109236 0.00284966 -5.62647e-24)
(0.109359 0.00261597 1.11969e-24)
(0.109472 0.00237653 2.41948e-24)
(0.109575 0.00213188 6.56439e-24)
(0.109669 0.00188228 1.05066e-23)
(0.108754 0.00315942 4.09982e-25)
(0.108887 0.00294757 -1.33017e-24)
(0.10901 0.0027291 1.02344e-24)
(0.109125 0.00250449 -2.13348e-24)
(0.10923 0.00227423 -1.30969e-24)
(0.109325 0.00203886 -3.88304e-24)
(0.10941 0.0017988 -1.2662e-24)
(0.113939 0.00878906 5.08083e-23)
(0.114396 0.00831784 1.6434e-24)
(0.111381 0.0103626 -1.82477e-24)
(0.111817 0.00998514 1.33875e-22)
(0.112239 0.0095934 -6.9351e-23)
(0.112667 0.00918734 0)
(0.113097 0.00876677 -2.81569e-24)
(0.113526 0.0083323 4.33712e-24)
(0.113952 0.00788463 -1.52928e-24)
(0.111118 0.00983144 -9.48341e-23)
(0.111527 0.00947402 -1.07603e-22)
(0.111924 0.0091027 6.51268e-23)
(0.112326 0.00871744 -2.50402e-25)
(0.112729 0.00831813 7.6443e-23)
(0.113131 0.00790531 4.32388e-23)
(0.113529 0.00747982 1.42235e-24)
(0.110861 0.00933435 1.7576e-22)
(0.111246 0.00899567 2.10259e-22)
(0.11162 0.00864347 0)
(0.111998 0.0082777 -6.16754e-23)
(0.112377 0.0078983 -1.49937e-22)
(0.112753 0.00750584 -7.98252e-23)
(0.113126 0.00710102 9.31804e-24)
(0.110611 0.00886871 -8.41311e-23)
(0.110974 0.00854758 -5.26168e-23)
(0.111326 0.00821328 2.25424e-25)
(0.111683 0.00786578 1.20899e-22)
(0.112039 0.00750506 6.8809e-23)
(0.112392 0.00713166 4.00944e-23)
(0.112741 0.00674626 -9.42882e-24)
(0.110367 0.00843213 -1.24193e-24)
(0.11071 0.00812743 -4.4032e-23)
(0.111043 0.00780991 0)
(0.111379 0.00747955 -1.12853e-22)
(0.111714 0.00713636 2.81981e-23)
(0.112046 0.00678086 3.21107e-24)
(0.112374 0.00641369 -1.03162e-23)
(0.11013 0.00802242 -1.11619e-24)
(0.110455 0.00773311 -3.4612e-23)
(0.11077 0.00743133 -4.3063e-23)
(0.111087 0.00711706 1.03766e-22)
(0.111403 0.00679034 -3.20164e-23)
(0.111716 0.00645166 -1.05645e-24)
(0.112024 0.00610164 1.8756e-23)
(0.109901 0.00763758 2.68252e-23)
(0.110207 0.0073627 7.14094e-23)
(0.110507 0.00707569 4.20619e-23)
(0.110807 0.00677655 -9.47831e-23)
(0.111105 0.00646531 0)
(0.111399 0.00614245 0)
(0.111689 0.00580857 -8.52228e-24)
(0.109677 0.00727577 -5.11284e-23)
(0.109968 0.00701444 -6.19391e-23)
(0.110252 0.00674132 -3.66836e-23)
(0.110536 0.00645639 4.50802e-23)
(0.110818 0.00615972 -1.85163e-25)
(0.111096 0.00585176 -1.24474e-23)
(0.111368 0.00553309 9.02325e-25)
(0.109461 0.00693535 2.26478e-23)
(0.109737 0.00668674 4.14129e-24)
(0.110007 0.00642666 3.54113e-23)
(0.110276 0.00615511 1.86976e-23)
(0.110543 0.00587216 0)
(0.110805 0.00557826 1.40186e-23)
(0.111061 0.00527392 -8.31973e-25)
(0.10925 0.00661477 -1.80133e-23)
(0.109514 0.00637812 2.60097e-23)
(0.10977 0.00613032 1.87746e-24)
(0.110026 0.00587137 -2.09251e-23)
(0.110278 0.00560135 1.93874e-23)
(0.110526 0.0053207 1.24555e-23)
(0.110768 0.0050299 0)
(0.109047 0.00631264 2.79223e-24)
(0.109297 0.00608724 1.99347e-23)
(0.109542 0.005851 -9.17427e-25)
(0.109785 0.00560394 9.17669e-25)
(0.110024 0.00534616 -2.08208e-23)
(0.110258 0.00507799 -9.15865e-24)
(0.110487 0.00479996 -7.02277e-25)
(0.108849 0.00602766 2.15988e-24)
(0.109088 0.00581285 -2.72764e-23)
(0.109322 0.00558752 1.59186e-25)
(0.109553 0.00535166 -1.33807e-23)
(0.10978 0.0051054 -9.75284e-25)
(0.110001 0.00484905 -6.42243e-25)
(0.110217 0.00458311 -1.95966e-24)
(0.108658 0.00575867 1.13655e-23)
(0.108886 0.00555383 1.60498e-23)
(0.109109 0.00533877 7.18762e-25)
(0.109329 0.00511348 2.39404e-23)
(0.109545 0.00487808 -1.49764e-25)
(0.109755 0.00463292 5.78867e-24)
(0.109959 0.00437844 2.02057e-24)
(0.108472 0.00550457 3.08682e-24)
(0.108691 0.00530914 -6.80183e-24)
(0.108904 0.00510378 -6.26838e-25)
(0.109114 0.00488851 -1.21395e-23)
(0.109319 0.00466338 6.2656e-24)
(0.109518 0.00442879 -3.79481e-24)
(0.109711 0.00418513 5.31571e-25)
(0.108293 0.00526437 -3.15449e-24)
(0.108502 0.00507784 4.33597e-24)
(0.108706 0.00488169 -2.88925e-24)
(0.108906 0.00467583 1.4091e-25)
(0.109101 0.00446041 -1.27672e-23)
(0.10929 0.00423582 4.79761e-25)
(0.109473 0.00400242 4.96255e-25)
(0.108119 0.00503723 -1.77055e-25)
(0.108319 0.00485904 -4.4026e-24)
(0.108515 0.00467149 6.22668e-24)
(0.108706 0.00447453 -5.94066e-25)
(0.108892 0.00426835 5.53937e-24)
(0.109072 0.00405325 -3.40532e-25)
(0.109245 0.00382958 -1.40921e-24)
(0.10795 0.00482207 6.61469e-26)
(0.108143 0.00465177 -2.43102e-25)
(0.108331 0.00447236 -4.03046e-24)
(0.108513 0.0042839 -1.31029e-25)
(0.108691 0.00408649 -2.2719e-24)
(0.108862 0.0038804 4.37945e-25)
(0.109026 0.00366598 -7.98564e-27)
(0.107788 0.00461813 -1.08109e-25)
(0.107973 0.00445535 -2.59577e-25)
(0.108153 0.00428373 1.09916e-24)
(0.108328 0.00410329 4.30177e-25)
(0.108497 0.00391417 8.02478e-25)
(0.10866 0.00371663 7.48943e-25)
(0.108816 0.00351101 3.93213e-25)
(0.10763 0.0044249 2.03085e-26)
(0.107809 0.00426927 2.80868e-25)
(0.107982 0.00410498 2.29898e-25)
(0.108149 0.00393213 -5.85232e-25)
(0.108311 0.00375086 1.26744e-24)
(0.108466 0.00356143 2.81341e-25)
(0.108614 0.00336417 2.9781e-25)
(0.0992349 0.00684877 0)
(0.099338 0.00705253 0)
(0.0994513 0.00726043 0)
(0.0995756 0.00747216 0)
(0.0997115 0.00768733 0)
(0.0998597 0.00790554 0)
(0.100021 0.0081263 0)
(0.100196 0.00834906 0)
(0.100386 0.00857318 0)
(0.100591 0.00879794 0)
(0.100812 0.00902252 0)
(0.101049 0.009246 0)
(0.101304 0.00946737 0)
(0.101578 0.00968549 0)
(0.10187 0.00989914 0)
(0.102181 0.010107 0)
(0.102512 0.0103075 0)
(0.102862 0.0104991 0)
(0.103234 0.0106802 0)
(0.103625 0.0108489 0)
(0.104037 0.0110035 0)
(0.104469 0.0111418 0)
(0.104921 0.0112618 0)
(0.105393 0.0113615 0)
(0.105882 0.0114388 0)
(0.10639 0.0114914 0)
(0.106913 0.0115172 0)
(0.107451 0.0115143 0)
(0.108001 0.0114804 0)
(0.108562 0.0114136 0)
(0.109132 0.0113119 0)
(0.109706 0.0111723 0)
(0.110284 0.0109884 0)
(0.110873 0.0107396 0)
(0.0994314 0.00674838 0)
(0.0995383 0.00694231 0)
(0.0996553 0.00713975 0)
(0.0997828 0.00734037 0)
(0.0999216 0.00754376 0)
(0.100072 0.00774951 0)
(0.100235 0.00795711 0)
(0.100412 0.00816601 0)
(0.100602 0.00837558 0)
(0.100807 0.00858509 0)
(0.101027 0.00879374 0)
(0.101263 0.00900064 0)
(0.101515 0.00920481 0)
(0.101784 0.00940517 0)
(0.102071 0.00960052 0)
(0.102375 0.0097896 0)
(0.102698 0.00997104 0)
(0.103039 0.0101433 0)
(0.103399 0.010305 0)
(0.103777 0.0104542 0)
(0.104174 0.0105894 0)
(0.104589 0.0107087 0)
(0.105022 0.0108103 0)
(0.105473 0.0108923 0)
(0.105939 0.0109526 0)
(0.106421 0.0109896 0)
(0.106918 0.0110011 0)
(0.107426 0.0109855 0)
(0.107946 0.0109409 0)
(0.108475 0.0108655 0)
(0.10901 0.0107576 0)
(0.10955 0.0106145 0)
(0.110091 0.0104307 0)
(0.110642 0.010188 0)
(0.0996185 0.0066443 0)
(0.0997287 0.00682866 0)
(0.0998486 0.00701597 0)
(0.0999788 0.00720584 0)
(0.10012 0.00739788 0)
(0.100272 0.00759165 0)
(0.100437 0.00778665 0)
(0.100614 0.00798233 0)
(0.100804 0.00817805 0)
(0.101008 0.00837311 0)
(0.101227 0.00856672 0)
(0.10146 0.00875802 0)
(0.101709 0.00894607 0)
(0.101973 0.00912982 0)
(0.102254 0.00930817 0)
(0.102551 0.00947989 0)
(0.102865 0.00964371 0)
(0.103197 0.00979824 0)
(0.103545 0.00994203 0)
(0.10391 0.0100736 0)
(0.104292 0.0101912 0)
(0.104691 0.0102934 0)
(0.105106 0.0103784 0)
(0.105536 0.0104445 0)
(0.105981 0.0104899 0)
(0.106439 0.0105131 0)
(0.10691 0.0105122 0)
(0.107391 0.0104856 0)
(0.107882 0.0104319 0)
(0.108381 0.0103494 0)
(0.108885 0.0102366 0)
(0.109392 0.0100912 0)
(0.109899 0.0099083 0)
(0.110415 0.00967187 0)
(0.0997964 0.00653711 0)
(0.0999094 0.00671219 0)
(0.100032 0.00688966 0)
(0.100164 0.00706917 0)
(0.100307 0.00725028 0)
(0.10046 0.00743257 0)
(0.100625 0.00761553 0)
(0.100803 0.00779861 0)
(0.100992 0.00798119 0)
(0.101195 0.00816258 0)
(0.101411 0.00834201 0)
(0.101642 0.00851866 0)
(0.101886 0.00869161 0)
(0.102146 0.00885988 0)
(0.102421 0.00902242 0)
(0.102711 0.00917807 0)
(0.103016 0.00932565 0)
(0.103337 0.00946385 0)
(0.103674 0.00959134 0)
(0.104027 0.00970671 0)
(0.104394 0.0098085 0)
(0.104777 0.00989521 0)
(0.105174 0.00996531 0)
(0.105585 0.0100172 0)
(0.106009 0.0100495 0)
(0.106445 0.0100605 0)
(0.106891 0.0100488 0)
(0.107347 0.0100129 0)
(0.107811 0.00995143 0)
(0.108281 0.00986311 0)
(0.108756 0.00974653 0)
(0.109232 0.00959972 0)
(0.109709 0.00941838 0)
(0.110192 0.00918836 0)
(0.0999655 0.00642733 0)
(0.100081 0.0065934 0)
(0.100205 0.00676139 0)
(0.100339 0.00693091 0)
(0.100482 0.00710154 0)
(0.100637 0.00727284 0)
(0.100802 0.00744432 0)
(0.100979 0.00761542 0)
(0.101167 0.00778554 0)
(0.101368 0.00795401 0)
(0.101582 0.00812009 0)
(0.101809 0.00828299 0)
(0.102049 0.00844182 0)
(0.102304 0.00859567 0)
(0.102572 0.00874353 0)
(0.102854 0.00888432 0)
(0.103151 0.00901693 0)
(0.103462 0.00914015 0)
(0.103788 0.00925274 0)
(0.104128 0.00935341 0)
(0.104481 0.00944082 0)
(0.104848 0.00951359 0)
(0.105228 0.00957036 0)
(0.105621 0.0096097 0)
(0.106025 0.00963025 0)
(0.106439 0.00963062 0)
(0.106863 0.00960949 0)
(0.107295 0.00956559 0)
(0.107734 0.0094977 0)
(0.108177 0.00940467 0)
(0.108625 0.00928528 0)
(0.109073 0.00913784 0)
(0.109521 0.00895856 0)
(0.109973 0.00873503 0)
(0.100126 0.00631543 0)
(0.100243 0.00647281 0)
(0.100368 0.00663165 0)
(0.100503 0.00679158 0)
(0.100648 0.00695216 0)
(0.100802 0.00711296 0)
(0.100967 0.0072735 0)
(0.101143 0.00743323 0)
(0.10133 0.00759156 0)
(0.101529 0.00774784 0)
(0.10174 0.00790137 0)
(0.101963 0.00805137 0)
(0.102199 0.00819703 0)
(0.102447 0.00833745 0)
(0.102709 0.00847169 0)
(0.102984 0.00859875 0)
(0.103272 0.00871758 0)
(0.103573 0.00882706 0)
(0.103888 0.00892604 0)
(0.104215 0.00901334 0)
(0.104555 0.00908773 0)
(0.104907 0.00914797 0)
(0.105271 0.00919278 0)
(0.105645 0.00922092 0)
(0.10603 0.00923114 0)
(0.106424 0.00922221 0)
(0.106827 0.00919294 0)
(0.107236 0.00914222 0)
(0.107651 0.00906898 0)
(0.10807 0.0089722 0)
(0.108492 0.00885083 0)
(0.108914 0.0087034 0)
(0.109335 0.00852661 0)
(0.10976 0.0083096 0)
(0.100278 0.00620185 0)
(0.100396 0.00635084 0)
(0.100523 0.00650088 0)
(0.100658 0.00665161 0)
(0.100803 0.00680258 0)
(0.100957 0.00695337 0)
(0.101122 0.0071035 0)
(0.101296 0.00725245 0)
(0.101481 0.00739964 0)
(0.101678 0.00754444 0)
(0.101885 0.00768617 0)
(0.102104 0.00782411 0)
(0.102335 0.00795746 0)
(0.102578 0.00808539 0)
(0.102833 0.00820702 0)
(0.1031 0.00832139 0)
(0.103379 0.00842754 0)
(0.103671 0.00852443 0)
(0.103974 0.008611 0)
(0.104289 0.00868615 0)
(0.104616 0.00874877 0)
(0.104954 0.00879772 0)
(0.105302 0.00883185 0)
(0.10566 0.00885003 0)
(0.106026 0.00885114 0)
(0.106401 0.00883408 0)
(0.106784 0.0087978 0)
(0.107172 0.0087413 0)
(0.107564 0.00866365 0)
(0.10796 0.00856397 0)
(0.108358 0.00844133 0)
(0.108756 0.00829447 0)
(0.109152 0.00812051 0)
(0.109551 0.00790999 0)
(0.100422 0.006087 0)
(0.100541 0.0062279 0)
(0.100669 0.0063695 0)
(0.100804 0.00651141 0)
(0.100949 0.0066532 0)
(0.101102 0.00679446 0)
(0.101266 0.00693471 0)
(0.101439 0.00707345 0)
(0.101622 0.00721012 0)
(0.101815 0.00734411 0)
(0.102019 0.00747478 0)
(0.102234 0.00760143 0)
(0.102459 0.00772331 0)
(0.102696 0.00783964 0)
(0.102945 0.00794958 0)
(0.103204 0.00805225 0)
(0.103475 0.00814674 0)
(0.103756 0.0082321 0)
(0.104049 0.00830735 0)
(0.104353 0.00837147 0)
(0.104666 0.00842345 0)
(0.10499 0.00846225 0)
(0.105323 0.00848683 0)
(0.105665 0.00849617 0)
(0.106015 0.00848926 0)
(0.106371 0.00846512 0)
(0.106734 0.00842282 0)
(0.107102 0.00836147 0)
(0.107474 0.00828025 0)
(0.107849 0.00817838 0)
(0.108224 0.00805508 0)
(0.108599 0.00790925 0)
(0.108972 0.00773839 0)
(0.109347 0.00753431 0)
(0.100558 0.00597124 0)
(0.100678 0.00610437 0)
(0.100806 0.00623787 0)
(0.100941 0.00637134 0)
(0.101085 0.00650439 0)
(0.101238 0.00663658 0)
(0.1014 0.00676746 0)
(0.101571 0.00689654 0)
(0.101751 0.00702329 0)
(0.101942 0.00714712 0)
(0.102142 0.00726741 0)
(0.102352 0.00738351 0)
(0.102573 0.00749471 0)
(0.102804 0.00760026 0)
(0.103045 0.00769939 0)
(0.103297 0.00779127 0)
(0.103559 0.00787506 0)
(0.103831 0.00794986 0)
(0.104113 0.00801479 0)
(0.104405 0.0080689 0)
(0.104707 0.00811128 0)
(0.105017 0.00814096 0)
(0.105336 0.00815702 0)
(0.105662 0.00815853 0)
(0.105996 0.00814458 0)
(0.106335 0.0081143 0)
(0.10668 0.00806685 0)
(0.107029 0.00800145 0)
(0.107382 0.00791738 0)
(0.107736 0.00781396 0)
(0.108091 0.00769052 0)
(0.108444 0.0075461 0)
(0.108796 0.00737856 0)
(0.109149 0.00718084 0)
(0.100687 0.00585491 0)
(0.100807 0.00598058 0)
(0.100935 0.00610632 0)
(0.10107 0.00623174 0)
(0.101213 0.00635645 0)
(0.101365 0.00648002 0)
(0.101525 0.00660203 0)
(0.101694 0.00672199 0)
(0.101871 0.00683939 0)
(0.102058 0.00695367 0)
(0.102255 0.00706425 0)
(0.10246 0.0071705 0)
(0.102676 0.00727175 0)
(0.102901 0.00736731 0)
(0.103135 0.00745644 0)
(0.103379 0.00753837 0)
(0.103633 0.00761233 0)
(0.103896 0.00767748 0)
(0.104168 0.00773301 0)
(0.104449 0.00777805 0)
(0.104738 0.00781176 0)
(0.105036 0.00783327 0)
(0.105341 0.00784174 0)
(0.105653 0.00783632 0)
(0.10597 0.0078162 0)
(0.106294 0.0077806 0)
(0.106622 0.00772878 0)
(0.106953 0.00766004 0)
(0.107287 0.00757376 0)
(0.107622 0.00746934 0)
(0.107958 0.00734619 0)
(0.108292 0.0072035 0)
(0.108624 0.00703945 0)
(0.108956 0.00684799 0)
(0.100809 0.00573831 0)
(0.100929 0.00585683 0)
(0.101056 0.00597515 0)
(0.101191 0.00609289 0)
(0.101333 0.00620966 0)
(0.101483 0.00632506 0)
(0.101641 0.00643867 0)
(0.101808 0.00655002 0)
(0.101982 0.00665862 0)
(0.102166 0.00676395 0)
(0.102358 0.00686543 0)
(0.102559 0.00696249 0)
(0.102769 0.00705449 0)
(0.102988 0.00714078 0)
(0.103216 0.00722067 0)
(0.103452 0.00729345 0)
(0.103698 0.00735838 0)
(0.103952 0.00741472 0)
(0.104214 0.00746169 0)
(0.104484 0.00749851 0)
(0.104762 0.00752441 0)
(0.105047 0.0075386 0)
(0.105339 0.0075403 0)
(0.105637 0.00752877 0)
(0.10594 0.00750327 0)
(0.106248 0.00746309 0)
(0.10656 0.00740759 0)
(0.106874 0.00733614 0)
(0.107191 0.0072482 0)
(0.107509 0.00714324 0)
(0.107826 0.00702076 0)
(0.108142 0.00688006 0)
(0.108455 0.00671962 0)
(0.108768 0.0065343 0)
(0.100924 0.00562171 0)
(0.101044 0.00573338 0)
(0.101171 0.00584462 0)
(0.101304 0.00595504 0)
(0.101445 0.00606427 0)
(0.101593 0.00617193 0)
(0.101749 0.00627759 0)
(0.101913 0.00638082 0)
(0.102085 0.00648115 0)
(0.102265 0.00657807 0)
(0.102453 0.00667106 0)
(0.102649 0.00675955 0)
(0.102853 0.00684295 0)
(0.103066 0.00692065 0)
(0.103287 0.00699201 0)
(0.103517 0.00705636 0)
(0.103754 0.00711302 0)
(0.103999 0.0071613 0)
(0.104252 0.00720049 0)
(0.104511 0.00722988 0)
(0.104778 0.00724874 0)
(0.105052 0.00725638 0)
(0.105331 0.00725208 0)
(0.105615 0.00723516 0)
(0.105905 0.00720497 0)
(0.106198 0.00716088 0)
(0.106495 0.0071023 0)
(0.106794 0.0070287 0)
(0.107094 0.00693957 0)
(0.107395 0.00683448 0)
(0.107695 0.00671298 0)
(0.107994 0.0065745 0)
(0.10829 0.00641775 0)
(0.108584 0.00623845 0)
(0.101033 0.00550536 0)
(0.101152 0.00561049 0)
(0.101278 0.00571496 0)
(0.10141 0.00581842 0)