/*--------------------------------*- C++ -*----------------------------------*\
| =========                 |                                                 |
| \\      /  F ield         | OpenFOAM: The Open Source CFD Toolbox           |
|  \\    /   O peration     | Version:  2412                                  |
|   \\  /    A nd           | Website:  www.openfoam.com                      |
|    \\/     M anipulation  |                                                 |
\*---------------------------------------------------------------------------*/
FoamFile
{
    version     2.0;
    format      ascii;
    arch        "LSB;label=32;scalar=64";
    class       volVectorField;
    location    "22";
    object      vorticity;
}
// * * * * * * * * * * * * * * * * * * * * * * * * * * * * * * * * * * * * * //

dimensions      [0 0 -1 0 0 0 0];

internalField   nonuniform List<vector> 
5285
(
(0 -4.93059e-23 -9.69577e-05)
(0 2.8512e-21 -6.10664e-05)
(0 -0 -4.05812e-05)
(0 -0 -5.0458e-05)
(0 -0 -6.14927e-05)
(0 -0 -7.45688e-05)
(0 -0 -8.91755e-05)
(0 -0 -0.000104917)
(0 -0 -0.000121579)
(0 -0 -0.000138942)
(0 -0 -0.000156783)
(0 -0 -0.000174877)
(0 -0 -0.000192982)
(0 -0 -0.000210841)
(0 -0 -0.000228181)
(0 -0 -0.000244711)
(0 -0 -0.000260124)
(0 -0 -0.000274096)
(0 -0 -0.000286293)
(0 -0 -0.000296391)
(0 -0 -0.000304122)
(0 -0 -0.000309409)
(0 -0 -0.000312447)
(0 -0 -0.000313083)
(0 -5.62062e-21 -3.7195e-05)
(0 -0 -1.80982e-05)
(0 -0 -2.47813e-05)
(0 -0 -3.18818e-05)
(0 -0 -4.03412e-05)
(0 -0 -4.99437e-05)
(0 -0 -6.04586e-05)
(0 -0 -7.17881e-05)
(0 -0 -8.38075e-05)
(0 -0 -9.63848e-05)
(0 -0 -0.000109379)
(0 -0 -0.000122636)
(0 -0 -0.000135982)
(0 -0 -0.000149223)
(0 -0 -0.000162138)
(0 -0 -0.000174479)
(0 -0 -0.000185974)
(0 -0 -0.000196327)
(0 -0 -0.000205238)
(0 -0 -0.000212452)
(0 -0 -0.000217879)
(0 -0 -0.000221581)
(0 -0 -0.00022312)
(0 2.68188e-21 -2.07115e-05)
(0 -0 -3.27308e-06)
(0 -0 -7.29458e-06)
(0 -0 -1.19601e-05)
(0 -0 -1.75436e-05)
(0 -0 -2.39055e-05)
(0 -0 -3.09288e-05)
(0 -0 -3.86111e-05)
(0 -0 -4.69104e-05)
(0 -0 -5.57688e-05)
(0 -0 -6.51152e-05)
(0 -0 -7.48614e-05)
(0 -0 -8.48988e-05)
(0 -0 -9.50931e-05)
(0 -0 -0.00010528)
(0 -0 -0.000115263)
(0 -0 -0.00012481)
(0 -0 -0.00013366)
(0 -0 -0.000141538)
(0 -0 -0.000148201)
(0 -0 -0.000153567)
(0 -0 -0.000157755)
(0 -0 -0.000160109)
(0 -3.67898e-23 -9.32831e-06)
(0 -0 6.10143e-06)
(0 -0 3.78655e-06)
(0 -0 9.07792e-07)
(0 -0 -2.71879e-06)
(0 -0 -6.93894e-06)
(0 -0 -1.16578e-05)
(0 -0 -1.69125e-05)
(0 -0 -2.27104e-05)
(0 -0 -2.90443e-05)
(0 -0 -3.58936e-05)
(0 -0 -4.322e-05)
(0 -0 -5.09632e-05)
(0 -0 -5.90358e-05)
(0 -0 -6.73173e-05)
(0 -0 -7.56497e-05)
(0 -0 -8.38356e-05)
(0 -0 -9.16416e-05)
(0 -0 -9.88121e-05)
(0 -0 -0.000105116)
(0 -0 -0.000110475)
(0 -0 -0.000115032)
(0 -0 -0.00011835)
(0 -3.41925e-23 -1.67019e-06)
(0 -0 1.15614e-05)
(0 -0 1.03354e-05)
(0 -0 8.63908e-06)
(0 -0 6.28633e-06)
(0 -0 3.43295e-06)
(0 -0 1.7103e-07)
(0 -0 -3.55021e-06)
(0 -0 -7.76381e-06)
(0 -0 -1.2494e-05)
(0 -0 -1.77541e-05)
(0 -0 -2.35416e-05)
(0 -0 -2.98316e-05)
(0 -0 -3.65715e-05)
(0 -0 -4.36737e-05)
(0 -0 -5.10103e-05)
(0 -0 -5.841e-05)
(0 -0 -6.56602e-05)
(0 -0 -7.25198e-05)
(0 -0 -7.87643e-05)
(0 -0 -8.43107e-05)
(0 -0 -8.92939e-05)
(0 -0 -9.33475e-05)
(0 -1.00578e-21 3.54454e-06)
(0 -0 1.45597e-05)
(0 -0 1.39516e-05)
(0 -0 1.29697e-05)
(0 -0 1.14005e-05)
(0 -0 9.38459e-06)
(0 -0 7.0084e-06)
(0 -0 4.21437e-06)
(0 -0 9.54567e-07)
(0 -0 -2.81512e-06)
(0 -0 -7.13111e-06)
(0 -0 -1.20157e-05)
(0 -0 -1.74704e-05)
(0 -0 -2.34684e-05)
(0 -0 -2.99468e-05)
(0 -0 -3.68004e-05)
(0 -0 -4.38775e-05)
(0 -0 -5.09804e-05)
(0 -0 -5.78773e-05)
(0 -0 -6.43452e-05)
(0 -0 -7.02892e-05)
(0 -0 -7.58192e-05)
(0 -0 -8.0575e-05)
(0 1.90643e-21 7.08588e-06)
(0 -0 1.60313e-05)
(0 -0 1.57504e-05)
(0 -0 1.51738e-05)
(0 -0 1.40632e-05)
(0 -0 1.25395e-05)
(0 -0 1.06799e-05)
(0 -0 8.42074e-06)
(0 -0 5.70308e-06)
(0 -0 2.4686e-06)
(0 -0 -1.33574e-06)
(0 -0 -5.75091e-06)
(0 -0 -1.07979e-05)
(0 -0 -1.64698e-05)
(0 -0 -2.27226e-05)
(0 -0 -2.94684e-05)
(0 -0 -3.65698e-05)
(0 -0 -4.38393e-05)
(0 -0 -5.10501e-05)
(0 -0 -5.79757e-05)
(0 -0 -6.45049e-05)
(0 -0 -7.07128e-05)
(0 -0 -7.62211e-05)
(0 -1.82563e-21 9.42374e-06)
(0 -0 1.65144e-05)
(0 -0 1.63901e-05)
(0 -0 1.60266e-05)
(0 -0 1.51673e-05)
(0 -0 1.39141e-05)
(0 -0 1.2334e-05)
(0 -0 1.03568e-05)
(0 -0 7.91395e-06)
(0 -0 4.93554e-06)
(0 -0 1.35518e-06)
(0 -0 -2.88275e-06)
(0 -0 -7.8149e-06)
(0 -0 -1.34499e-05)
(0 -0 -1.97591e-05)
(0 -0 -2.66675e-05)
(0 -0 -3.40484e-05)
(0 -0 -4.17208e-05)
(0 -0 -4.94589e-05)
(0 -0 -5.70295e-05)
(0 -0 -6.43008e-05)
(0 -0 -7.13083e-05)
(0 -0 -7.76455e-05)
(0 8.38639e-22 1.08455e-05)
(0 -0 1.6319e-05)
(0 -0 1.6255e-05)
(0 -0 1.59899e-05)
(0 -0 1.52541e-05)
(0 -0 1.41325e-05)
(0 -0 1.26815e-05)
(0 -0 1.08243e-05)
(0 -0 8.48339e-06)
(0 -0 5.57878e-06)
(0 -0 2.03259e-06)
(0 -0 -2.22323e-06)
(0 -0 -7.2385e-06)
(0 -0 -1.30349e-05)
(0 -0 -1.9596e-05)
(0 -0 -2.68575e-05)
(0 -0 -3.47003e-05)
(0 -0 -4.2947e-05)
(0 -0 -5.13701e-05)
(0 -0 -5.97265e-05)
(0 -0 -6.7861e-05)
(0 -0 -7.57672e-05)
(0 -0 -8.30055e-05)
(0 -0 1.15297e-05)
(0 -0 1.56262e-05)
(0 -0 1.55724e-05)
(0 -0 1.53416e-05)
(0 -0 1.46543e-05)
(0 -0 1.35797e-05)
(0 -0 1.2164e-05)
(0 -0 1.03243e-05)
(0 -0 7.97505e-06)
(0 -0 5.02676e-06)
(0 -0 1.39152e-06)
(0 -0 -3.00984e-06)
(0 -0 -8.23851e-06)
(0 -0 -1.43276e-05)
(0 -0 -2.12709e-05)
(0 -0 -2.9013e-05)
(0 -0 -3.74401e-05)
(0 -0 -4.63768e-05)
(0 -0 -5.55914e-05)
(0 -0 -6.48287e-05)
(0 -0 -7.39083e-05)
(0 -0 -8.27808e-05)
(0 -0 -9.09707e-05)
(0 6.70199e-22 1.15953e-05)
(0 -0 1.45494e-05)
(0 -0 1.4486e-05)
(0 -0 1.42578e-05)
(0 -0 1.35774e-05)
(0 -0 1.25001e-05)
(0 -0 1.10629e-05)
(0 -0 9.1771e-06)
(0 -0 6.75008e-06)
(0 -0 3.68433e-06)
(0 -0 -1.17261e-07)
(0 -0 -4.74371e-06)
(0 -0 -1.02665e-05)
(0 -0 -1.67286e-05)
(0 -0 -2.41331e-05)
(0 -0 -3.24317e-05)
(0 -0 -4.15151e-05)
(0 -0 -5.12077e-05)
(0 -0 -6.12724e-05)
(0 -0 -7.14406e-05)
(0 -0 -8.15059e-05)
(0 -0 -9.13756e-05)
(0 -0 -0.000100537)
(0 -7.09293e-22 1.11393e-05)
(0 -0 1.31764e-05)
(0 -0 1.31032e-05)
(0 -0 1.28649e-05)
(0 -0 1.2169e-05)
(0 -0 1.10594e-05)
(0 -0 9.56514e-06)
(0 -0 7.59368e-06)
(0 -0 5.04644e-06)
(0 -0 1.81899e-06)
(0 -0 -2.19375e-06)
(0 -0 -7.08961e-06)
(0 -0 -1.29493e-05)
(0 -0 -1.9825e-05)
(0 -0 -2.77277e-05)
(0 -0 -3.66153e-05)
(0 -0 -4.63819e-05)
(0 -0 -5.68512e-05)
(0 -0 -6.77796e-05)
(0 -0 -7.88849e-05)
(0 -0 -8.99344e-05)
(0 -0 -0.000100793)
(0 -0 -0.000110912)
(0 -3.14765e-22 1.0271e-05)
(0 -0 1.16032e-05)
(0 -0 1.15275e-05)
(0 -0 1.12716e-05)
(0 -0 1.05432e-05)
(0 -0 9.37865e-06)
(0 -0 7.80197e-06)
(0 -0 5.71856e-06)
(0 -0 3.02561e-06)
(0 -0 -3.87164e-07)
(0 -0 -4.6319e-06)
(0 -0 -9.81438e-06)
(0 -0 -1.60237e-05)
(0 -0 -2.33203e-05)
(0 -0 -3.17225e-05)
(0 -0 -4.11936e-05)
(0 -0 -5.16305e-05)
(0 -0 -6.28556e-05)
(0 -0 -7.46191e-05)
(0 -0 -8.66251e-05)
(0 -0 -9.86157e-05)
(0 -0 -0.000110416)
(0 -0 -0.000121441)
(0 3.12059e-22 9.14572e-06)
(0 -0 9.95816e-06)
(0 -0 9.87526e-06)
(0 -0 9.58172e-06)
(0 -0 8.79457e-06)
(0 -0 7.54851e-06)
(0 -0 5.86584e-06)
(0 -0 3.6514e-06)
(0 -0 7.98962e-07)
(0 -0 -2.80699e-06)
(0 -0 -7.28516e-06)
(0 -0 -1.27488e-05)
(0 -0 -1.92948e-05)
(0 -0 -2.69911e-05)
(0 -0 -3.58628e-05)
(0 -0 -4.58781e-05)
(0 -0 -5.69362e-05)
(0 -0 -6.88584e-05)
(0 -0 -8.13889e-05)
(0 -0 -9.42193e-05)
(0 -0 -0.000107069)
(0 -0 -0.000119724)
(0 -0 -0.000131571)
(0 -1.58902e-23 7.99215e-06)
(0 -0 8.40916e-06)
(0 -0 8.2691e-06)
(0 -0 7.88254e-06)
(0 -0 6.98887e-06)
(0 -0 5.62572e-06)
(0 -0 3.81364e-06)
(0 -0 1.4559e-06)
(0 -0 -1.55818e-06)
(0 -0 -5.34999e-06)
(0 -0 -1.0045e-05)
(0 -0 -1.57638e-05)
(0 -0 -2.26105e-05)
(0 -0 -3.06599e-05)
(0 -0 -3.99433e-05)
(0 -0 -5.04332e-05)
(0 -0 -6.20311e-05)
(0 -0 -7.45575e-05)
(0 -0 -8.77516e-05)
(0 -0 -0.000101294)
(0 -0 -0.000114884)
(0 -0 -0.000128275)
(0 -0 -0.000140825)
(0 -1.15861e-22 7.12228e-06)
(0 -0 7.12499e-06)
(0 -0 6.78339e-06)
(0 -0 6.19864e-06)
(0 -0 5.1327e-06)
(0 -0 3.61723e-06)
(0 -0 1.66231e-06)
(0 -0 -8.36543e-07)
(0 -0 -3.99781e-06)
(0 -0 -7.95036e-06)
(0 -0 -1.28269e-05)
(0 -0 -1.87549e-05)
(0 -0 -2.58453e-05)
(0 -0 -3.41787e-05)
(0 -0 -4.37915e-05)
(0 -0 -5.46604e-05)
(0 -0 -6.66889e-05)
(0 -0 -7.96971e-05)
(0 -0 -9.34206e-05)
(0 -0 -0.000107532)
(0 -0 -0.000121712)
(0 -0 -0.000135689)
(0 -0 -0.000148794)
(0 1.01951e-22 6.84476e-06)
(0 -0 6.16005e-06)
(0 -0 5.3145e-06)
(0 -0 4.41383e-06)
(0 -0 3.13734e-06)
(0 -0 1.4692e-06)
(0 -0 -6.09683e-07)
(0 -0 -3.2197e-06)
(0 -0 -6.49011e-06)
(0 -0 -1.05576e-05)
(0 -0 -1.55615e-05)
(0 -0 -2.16348e-05)
(0 -0 -2.88934e-05)
(0 -0 -3.74228e-05)
(0 -0 -4.72631e-05)
(0 -0 -5.83942e-05)
(0 -0 -7.07216e-05)
(0 -0 -8.40658e-05)
(0 -0 -9.81604e-05)
(0 -0 -0.000112672)
(0 -0 -0.000127271)
(0 -0 -0.000141661)
(0 -0 -0.00015515)
(0 -1.22658e-23 7.29893e-06)
(0 -0 4.92689e-06)
(0 -0 3.5043e-06)
(0 -0 2.23285e-06)
(0 -0 8.35693e-07)
(0 -0 -9.02192e-07)
(0 -0 -3.03335e-06)
(0 -0 -5.68969e-06)
(0 -0 -9.00657e-06)
(0 -0 -1.31247e-05)
(0 -0 -1.81863e-05)
(0 -0 -2.4327e-05)
(0 -0 -3.16654e-05)
(0 -0 -4.02892e-05)
(0 -0 -5.02411e-05)
(0 -0 -6.1503e-05)
(0 -0 -7.39821e-05)
(0 -0 -8.75002e-05)
(0 -0 -0.000101791)
(0 -0 -0.000116518)
(0 -0 -0.000131347)
(0 -0 -0.000145967)
(0 -0 -0.000159675)
(-6.27741e-22 9.28658e-21 0.000204202)
(1.88646e-21 -7.99809e-21 0.000182374)
(5.77979e-22 -9.84525e-21 0.000186325)
(-2.02382e-20 3.24062e-19 0.00016556)
(1.35562e-21 -1.81153e-20 0.000143135)
(1.53682e-21 -1.61792e-21 0.00010573)
(-2.69892e-20 5.96733e-19 -2.38637e-06)
(5.5619e-20 -1.21338e-18 -0.00037449)
(3.53438e-21 -2.3838e-20 -0.00106486)
(-6.65442e-22 1.02677e-20 0.000167716)
(3.36217e-20 -5.81719e-19 0.000148965)
(3.33815e-20 -5.96906e-19 0.000129012)
(1.222e-21 1.50009e-21 9.59544e-05)
(5.58504e-20 -1.2441e-18 2.77437e-06)
(-5.18758e-20 1.25204e-18 -0.000315161)
(-4.88567e-20 1.24451e-18 -0.000916504)
(4.85599e-21 -8.29648e-20 0.000150433)
(-1.60878e-20 3.02931e-19 0.000133372)
(-5.97542e-20 1.17122e-18 0.000115392)
(-3.0587e-20 6.19468e-19 8.61924e-05)
(-2.41098e-20 6.15272e-19 5.41307e-06)
(9.32327e-20 -2.43817e-18 -0.000266515)
(8.64749e-20 -2.52917e-18 -0.000789583)
(-4.50845e-21 8.25546e-20 0.000134212)
(-9.42097e-22 1.04681e-20 0.00011872)
(2.78812e-20 -6.10846e-19 0.000102423)
(5.52323e-20 -1.21718e-18 7.62954e-05)
(-1.31702e-21 -3.45766e-21 6.17772e-06)
(-1.88004e-20 6.31293e-19 -0.000225986)
(-3.63069e-20 1.24455e-18 -0.000679691)
(-3.66225e-21 6.38269e-20 0.000119117)
(-1.39304e-21 2.81627e-20 0.000104824)
(1.57932e-20 -3.16073e-19 8.99014e-05)
(-5.05692e-20 1.1925e-18 6.65576e-05)
(9.50521e-22 6.31939e-22 5.84245e-06)
(-2.28149e-20 6.28684e-19 -0.000191652)
(-1.96722e-21 -1.73449e-20 -0.000583853)
(7.03862e-21 -1.36983e-19 0.000105109)
(4.12773e-22 -9.76145e-21 9.1871e-05)
(-1.21303e-20 2.79213e-19 7.81563e-05)
(4.72084e-20 -1.18948e-18 5.73309e-05)
(-2.26893e-20 5.95015e-19 4.96656e-06)
(-2.40436e-20 6.42583e-19 -0.00016221)
(-3.37298e-22 -1.77452e-20 -0.00049983)
(-3.46613e-21 7.31173e-20 9.21342e-05)
(1.97085e-22 8.08266e-23 7.98965e-05)
(-4.24166e-22 -8.69009e-22 6.73148e-05)
(-2.17106e-20 5.94469e-19 4.88039e-05)
(2.21019e-20 -6.13273e-19 3.89072e-06)
(3.84569e-20 -1.18305e-18 -0.000136753)
(1.85688e-20 -6.07085e-19 -0.000425909)
(-5.14089e-22 8.96894e-21 8.01309e-05)
(-6.73873e-21 1.55472e-19 6.88754e-05)
(5.68176e-23 2.19292e-22 5.73974e-05)
(-1.20835e-21 -6.49454e-22 4.10468e-05)
(-1.87379e-20 5.7236e-19 2.80422e-06)
(-3.50156e-20 1.21203e-18 -0.000114627)
(-3.26969e-20 1.18604e-18 -0.000360738)
(3.81991e-22 -8.98011e-21 6.90311e-05)
(5.52527e-21 -1.37401e-19 5.87502e-05)
(-3.19973e-22 2.2507e-22 4.83658e-05)
(1.04935e-20 -2.93277e-19 3.40509e-05)
(1.8794e-20 -5.92701e-19 1.7903e-06)
(-2.27789e-21 1.79017e-20 -9.53582e-05)
(3.02013e-20 -1.21241e-18 -0.000303242)
(1.17981e-24 1.24847e-22 5.87521e-05)
(5.31131e-21 -1.27369e-19 4.94394e-05)
(1.08911e-20 -2.9302e-19 4.01439e-05)
(-8.55377e-21 2.57116e-19 2.77562e-05)
(-3.32415e-22 3.78912e-20 8.61256e-07)
(1.61809e-20 -5.92545e-19 -7.86009e-05)
(-1.26696e-20 5.74111e-19 -0.000252546)
(3.96258e-22 -9.29688e-21 4.91903e-05)
(-6.59111e-21 1.73306e-19 4.08396e-05)
(-9.58234e-21 2.74838e-19 3.26287e-05)
(-5.98866e-22 1.86514e-20 2.20694e-05)
(5.14363e-22 -1.75737e-20 -1.56539e-08)
(1.70529e-20 -5.87016e-19 -6.40946e-05)
(-1.56583e-22 -6.95731e-22 -0.000207921)
(-1.76033e-21 4.5481e-20 4.02213e-05)
(1.90792e-22 -9.05212e-21 3.28274e-05)
(2.92647e-22 -1.85557e-20 2.5698e-05)
(-9.5039e-21 2.9188e-19 1.68779e-05)
(-7.86849e-24 -8.42956e-22 -8.97526e-07)
(-2.32094e-20 9.13379e-19 -5.16345e-05)
(-1.30351e-20 5.66545e-19 -0.000168743)
(1.69086e-21 -4.55692e-20 3.17043e-05)
(-9.2444e-22 2.73079e-20 2.52659e-05)
(-5.30424e-23 6.52425e-22 1.92211e-05)
(1.83399e-20 -6.19724e-19 1.20649e-05)
(-5.29357e-22 1.82244e-20 -1.84507e-06)
(1.29241e-20 -5.62817e-19 -4.10426e-05)
(1.21892e-20 -6.00211e-19 -0.000134451)
(-2.84767e-22 9.10541e-21 2.34776e-05)
(-2.88394e-22 9.2493e-21 1.80117e-05)
(4.65241e-21 -1.45736e-19 1.30729e-05)
(-7.80187e-21 2.91267e-19 7.5301e-06)
(6.09993e-22 -1.81991e-20 -2.89652e-06)
(-6.92788e-21 3.08304e-19 -3.21355e-05)
(7.14913e-21 -3.05805e-19 -0.000104519)
(2.89521e-22 -9.1078e-21 1.53795e-05)
(-2.68349e-22 8.88257e-21 1.09402e-05)
(-8.09023e-21 2.72822e-19 7.16457e-06)
(-3.28485e-22 5.48245e-23 3.22438e-06)
(-4.17765e-21 1.62893e-19 -4.03031e-06)
(6.56689e-21 -3.05969e-19 -2.4683e-05)
(-5.82533e-21 3.04616e-19 -7.84042e-05)
(3.05014e-22 -9.15962e-21 7.29446e-06)
(-1.92007e-21 6.37595e-20 3.99339e-06)
(4.09484e-21 -1.45442e-19 1.49355e-06)
(4.93489e-22 -1.79681e-20 -7.97357e-07)
(6.79944e-21 -2.88804e-19 -5.11077e-06)
(-6.32169e-21 3.0491e-19 -1.83563e-05)
(-6.34285e-23 -1.74897e-20 -5.55069e-05)
(-5.57328e-22 1.81933e-20 -7.81181e-07)
(-2.42462e-22 9.00138e-21 -2.74909e-06)
(-1.84258e-21 7.25532e-20 -3.78302e-06)
(6.52493e-23 -4.93646e-23 -4.30089e-06)
(-3.03289e-21 1.44014e-19 -5.81636e-06)
(1.74117e-22 -1.75954e-20 -1.26701e-05)
(2.59584e-21 -1.41396e-19 -3.51326e-05)
(2.76044e-22 -9.09576e-21 -8.64195e-06)
(5.28999e-22 -1.81936e-20 -8.93359e-06)
(2.35305e-21 -9.07915e-20 -8.24619e-06)
(-4.72608e-22 1.79577e-20 -6.7734e-06)
(-8.87059e-22 3.57565e-20 -5.55307e-06)
(-1.70181e-21 8.86954e-20 -6.93378e-06)
(-2.04865e-21 1.23365e-19 -1.64455e-05)
(-2.51084e-22 9.12532e-21 -1.5681e-05)
(7.69233e-22 -2.72987e-20 -1.38932e-05)
(-3.79239e-22 1.81396e-20 -1.09882e-05)
(8.15426e-22 -3.60097e-20 -7.30497e-06)
(3.46393e-22 -1.79035e-20 -3.35928e-06)
(9.76669e-22 -5.31581e-20 -2.76423e-07)
(2.07201e-22 -1.75164e-20 1.57766e-06)
(-2.25741e-20 2.86272e-19 0.000251125)
(-7.01989e-22 9.64479e-21 0.00022693)
(8.26564e-22 -2.06718e-20 0.000448722)
(-1.14406e-19 1.23994e-18 0.000328534)
(5.17455e-20 -6.10617e-19 0.00030239)
(-8.44911e-22 -7.96498e-22 0.000276509)
(1.19169e-21 -1.84732e-20 0.000251672)
(-2.11271e-21 2.74762e-20 0.000227876)
(6.51209e-22 -9.10561e-21 0.000206419)
(1.07514e-19 -1.22398e-18 0.000393499)
(9.80566e-20 -1.17621e-18 0.000293124)
(-4.73298e-20 5.7368e-19 0.000270966)
(-6.72258e-22 -2.48668e-22 0.000248964)
(-4.37255e-20 5.85128e-19 0.000227137)
(-2.14822e-20 3.02272e-19 0.00020664)
(-5.11872e-22 9.54989e-21 0.000187219)
(-2.00732e-19 2.38071e-18 0.000343627)
(-1.93525e-19 2.39944e-18 0.000260613)
(-6.18829e-22 2.62628e-21 0.000242356)
(4.22067e-20 -5.66512e-19 0.000223653)
(8.36268e-20 -1.18934e-18 0.000204797)
(3.83508e-20 -5.77478e-19 0.000186186)
(-4.00053e-21 6.33173e-20 0.00016804)
(9.65388e-20 -1.19492e-18 0.000298702)
(4.52628e-20 -5.77089e-19 0.000230837)
(4.65775e-23 -1.66867e-21 0.000216008)
(-8.17961e-20 1.15295e-18 0.000200232)
(-3.72187e-20 5.68128e-19 0.000183724)
(-1.88173e-20 3.02491e-19 0.000166962)
(3.73281e-21 -6.38667e-20 0.000150371)
(2.18185e-21 -1.79346e-20 0.000258446)
(4.31898e-20 -5.7177e-19 0.000203527)
(-4.18488e-22 6.04554e-22 0.000191644)
(7.84144e-20 -1.16962e-18 0.000178454)
(-1.80603e-20 2.71921e-19 0.000164125)
(-2.0787e-21 2.76893e-20 0.000149144)
(4.88509e-21 -8.20904e-20 0.000134017)
(1.58744e-21 -1.80542e-20 0.000222443)
(3.86585e-20 -5.48996e-19 0.000178541)
(3.87462e-20 -5.85336e-19 0.000169172)
(-7.45792e-20 1.16675e-18 0.00015824)
(1.90754e-20 -3.08967e-19 0.000145881)
(4.78027e-22 -9.61267e-21 0.000132568)
(-8.44781e-21 1.55208e-19 0.000118834)
(-4.02759e-20 5.85143e-19 0.00019027)
(-7.96161e-20 1.18707e-18 0.000155715)
(-3.70065e-20 5.67178e-19 0.000148486)
(7.06855e-20 -1.16403e-18 0.000139519)
(3.10995e-22 -9.04912e-22 0.00012892)
(-1.13307e-22 7.72532e-23 0.000117147)
(3.70847e-21 -7.31027e-20 0.000104732)
(7.85894e-20 -1.18414e-18 0.000161542)
(7.24772e-20 -1.1462e-18 0.000134871)
(3.57308e-20 -5.99924e-19 0.000129463)
(-3.37108e-20 5.81436e-19 0.000122205)
(-4.66957e-23 5.1748e-22 0.000113173)
(7.10453e-21 -1.36201e-19 0.00010281)
(-3.8879e-22 8.96482e-21 9.16393e-05)
(-3.62078e-20 5.62439e-19 0.000135913)
(-1.95789e-21 1.92896e-20 0.000115842)
(-3.43167e-20 5.80189e-19 0.000111975)
(-1.64597e-20 2.89927e-19 0.000106197)
(1.94557e-22 5.93239e-23 9.85607e-05)
(-7.69226e-21 1.54631e-19 8.94853e-05)
(4.35882e-22 -8.94386e-21 7.94846e-05)
(3.50085e-20 -5.94606e-19 0.000113064)
(-3.43263e-20 5.77699e-19 9.84632e-05)
(-2.36874e-21 3.65565e-20 9.5888e-05)
(1.75726e-20 -3.26133e-19 9.13874e-05)
(-1.46441e-20 2.89211e-19 8.49861e-05)
(-7.95933e-21 1.6337e-19 7.70891e-05)
(1.57166e-24 1.21027e-22 6.81857e-05)
(-1.35318e-21 8.81742e-22 9.26982e-05)
(-3.18197e-20 5.74488e-19 8.25721e-05)
(9.26193e-22 -1.78449e-20 8.10651e-05)
(-8.6676e-22 1.82403e-20 7.76578e-05)
(1.50652e-20 -3.07999e-19 7.23426e-05)
(5.44904e-21 -1.18319e-19 6.55143e-05)
(3.86647e-22 -9.1629e-21 5.76381e-05)
(-3.99412e-22 -1.65476e-20 7.45367e-05)
(4.42215e-20 -8.23704e-19 6.80027e-05)
(5.32151e-23 -1.02061e-22 6.7356e-05)
(1.40443e-20 -2.88105e-19 6.48671e-05)
(1.06589e-21 -1.81819e-20 6.04991e-05)
(5.37796e-22 -9.06251e-21 5.46306e-05)
(1.11623e-21 -2.72734e-20 4.77153e-05)
(-2.98509e-20 5.50149e-19 5.83102e-05)
(-2.98534e-20 5.88584e-19 5.45788e-05)
(-8.66619e-22 1.78628e-20 5.45886e-05)
(-2.5263e-20 5.40033e-19 5.28447e-05)
(3.32137e-23 1.47061e-22 4.92976e-05)
(-4.18236e-21 9.95925e-20 4.42914e-05)
(-1.08372e-21 2.74027e-20 3.82739e-05)
(-1.32714e-20 2.64456e-19 4.37463e-05)
(1.32079e-20 -2.66725e-19 4.21029e-05)
(7.85244e-22 -1.78432e-20 4.25618e-05)
(1.29092e-20 -2.8797e-19 4.13943e-05)
(-6.19139e-21 1.44183e-19 3.85343e-05)
(2.55026e-21 -6.34748e-20 3.43022e-05)
(-3.72011e-22 9.03365e-21 2.9134e-05)
(1.30943e-20 -2.63544e-19 3.05436e-05)
(-1.21012e-20 2.65272e-19 3.03264e-05)
(5.55159e-21 -1.24638e-19 3.10137e-05)
(1.48961e-22 1.3426e-22 3.02439e-05)
(1.25582e-20 -3.0673e-19 2.79459e-05)
(-3.07498e-22 8.93678e-21 2.44271e-05)
(-3.27509e-22 9.08444e-21 2.00958e-05)
(8.2994e-22 -1.7433e-20 1.83336e-05)
(1.20924e-20 -2.64848e-19 1.88672e-05)
(-1.22719e-20 2.846e-19 1.95507e-05)
(7.1813e-22 -1.79309e-20 1.90373e-05)
(-5.71253e-21 1.44366e-19 1.7237e-05)
(2.99135e-22 -8.96225e-21 1.44295e-05)
(9.74136e-22 -2.7267e-20 1.09828e-05)
(-6.07686e-21 1.38891e-19 6.49997e-06)
(7.81414e-22 -1.75452e-20 7.0974e-06)
(8.78124e-21 -2.13075e-19 7.61793e-06)
(-2.18499e-23 -4.7122e-23 7.33623e-06)
(2.57272e-21 -7.20602e-20 6.09279e-06)
(-3.94159e-22 9.08246e-21 4.10761e-06)
(2.63419e-24 -3.12145e-24 1.69383e-06)
(6.78351e-21 -1.55704e-19 -6.15818e-06)
(2.09907e-21 -5.2504e-20 -5.99065e-06)
(-2.82578e-21 7.08842e-20 -5.51873e-06)
(-6.6599e-22 1.7894e-20 -5.30949e-06)
(-6.83397e-22 1.81201e-20 -5.70905e-06)
(-6.61382e-22 1.81686e-20 -6.58706e-06)
(-2.9667e-22 9.1098e-21 -7.67599e-06)
(6.95775e-22 -1.72193e-20 -2.27587e-05)
(-3.52539e-21 8.72838e-20 -2.18835e-05)
(-6.68213e-22 1.7691e-20 -2.03493e-05)
(1.2934e-21 -3.57215e-20 -1.9001e-05)
(-1.92085e-21 5.40274e-20 -1.80231e-05)
(-3.26028e-22 9.07777e-21 -1.7355e-05)
(-2.9377e-22 9.08448e-21 -1.66698e-05)
(0 -0 5.01386e-06)
(0 -0 5.82024e-06)
(0 -0 6.66081e-06)
(0 -0 6.94651e-06)
(0 -0 6.87333e-06)
(0 -0 6.71629e-06)
(0 -0 6.46266e-06)
(0 -0 6.10123e-06)
(0 -0 5.62232e-06)
(0 -0 5.01907e-06)
(0 -0 4.28806e-06)
(0 -0 3.42967e-06)
(0 -0 2.44846e-06)
(0 -0 1.35367e-06)
(0 -0 1.59458e-07)
(0 -0 -1.11513e-06)
(0 -0 -2.44664e-06)
(0 -0 -3.80788e-06)
(0 -0 -5.16888e-06)
(0 -0 -6.49849e-06)
(0 -0 -7.76597e-06)
(0 -0 -8.94245e-06)
(0 -0 -1.0003e-05)
(0 -0 -1.09284e-05)
(0 -0 -1.17092e-05)
(0 -0 -1.23558e-05)
(0 -0 -1.29339e-05)
(0 -0 -1.36923e-05)
(0 -0 -1.55326e-05)
(0 -0 -2.17419e-05)
(0 -0 -4.44517e-05)
(0 -0 -0.0001289)
(0 -0 -0.000445349)
(0 1.82298e-23 -0.00172495)
(0 -0 5.04114e-06)
(0 -0 5.94928e-06)
(0 -0 7.03521e-06)
(0 -0 7.38748e-06)
(0 -0 7.36369e-06)
(0 -0 7.2552e-06)
(0 -0 7.05221e-06)
(0 -0 6.74597e-06)
(0 -0 6.32869e-06)
(0 -0 5.79463e-06)
(0 -0 5.14104e-06)
(0 -0 4.36862e-06)
(0 -0 3.48186e-06)
(0 -0 2.48961e-06)
(0 -0 1.40517e-06)
(0 -0 2.46323e-07)
(0 -0 -9.65013e-07)
(0 -0 -2.20353e-06)
(0 -0 -3.44137e-06)
(0 -0 -4.64959e-06)
(0 -0 -5.79982e-06)
(0 -0 -6.86557e-06)
(0 -0 -7.82417e-06)
(0 -0 -8.65861e-06)
(0 -0 -9.36068e-06)
(0 -0 -9.94036e-06)
(0 -0 -1.04574e-05)
(0 -0 -1.11357e-05)
(0 -0 -1.27807e-05)
(0 -0 -1.8325e-05)
(0 -0 -3.85703e-05)
(0 -0 -0.000113715)
(0 -0 -0.000394573)
(0 9.45767e-22 -0.0015235)
(0 -0 4.96253e-06)
(0 -0 6.04673e-06)
(0 -0 7.12001e-06)
(0 -0 7.4605e-06)
(0 -0 7.44036e-06)
(0 -0 7.34918e-06)
(0 -0 7.17388e-06)
(0 -0 6.90442e-06)
(0 -0 6.53257e-06)
(0 -0 6.05249e-06)
(0 -0 5.46131e-06)
(0 -0 4.7595e-06)
(0 -0 3.95126e-06)
(0 -0 3.04487e-06)
(0 -0 2.05285e-06)
(0 -0 9.91857e-07)
(0 -0 -1.17595e-07)
(0 -0 -1.25173e-06)
(0 -0 -2.38452e-06)
(0 -0 -3.48886e-06)
(0 -0 -4.53813e-06)
(0 -0 -5.50771e-06)
(0 -0 -6.37652e-06)
(0 -0 -7.12887e-06)
(0 -0 -7.75735e-06)
(0 -0 -8.27122e-06)
(0 -0 -8.72443e-06)
(0 -0 -9.31736e-06)
(0 -0 -1.07692e-05)
(0 -0 -1.56916e-05)
(0 -0 -3.36859e-05)
(0 -0 -0.000100403)
(0 -0 -0.000349245)
(0 -1.7498e-21 -0.0013431)
(0 -0 4.88239e-06)
(0 -0 5.95143e-06)
(0 -0 7.00446e-06)
(0 -0 7.32954e-06)
(0 -0 7.30436e-06)
(0 -0 7.22046e-06)
(0 -0 7.06311e-06)
(0 -0 6.82113e-06)
(0 -0 6.48558e-06)
(0 -0 6.05019e-06)
(0 -0 5.51174e-06)
(0 -0 4.87036e-06)
(0 -0 4.12981e-06)
(0 -0 3.29774e-06)
(0 -0 2.38577e-06)
(0 -0 1.40947e-06)
(0 -0 3.88104e-07)
(0 -0 -6.56009e-07)
(0 -0 -1.69831e-06)
(0 -0 -2.71334e-06)
(0 -0 -3.67597e-06)
(0 -0 -4.56299e-06)
(0 -0 -5.35456e-06)
(0 -0 -6.03589e-06)
(0 -0 -6.60001e-06)
(0 -0 -7.05506e-06)
(0 -0 -7.44941e-06)
(0 -0 -7.96206e-06)
(0 -0 -9.23361e-06)
(0 -0 -1.35851e-05)
(0 -0 -2.95321e-05)
(0 -0 -8.86206e-05)
(0 -0 -0.00030856)
(0 8.36126e-22 -0.0011814)
(0 -0 4.72894e-06)
(0 -0 5.80692e-06)
(0 -0 6.86682e-06)
(0 -0 7.19618e-06)
(0 -0 7.1789e-06)
(0 -0 7.11041e-06)
(0 -0 6.9762e-06)
(0 -0 6.76498e-06)
(0 -0 6.46767e-06)
(0 -0 6.07788e-06)
(0 -0 5.59225e-06)
(0 -0 5.01061e-06)
(0 -0 4.33624e-06)
(0 -0 3.5761e-06)
(0 -0 2.74089e-06)
(0 -0 1.84508e-06)
(0 -0 9.06683e-07)
(0 -0 -5.33711e-08)
(0 -0 -1.01196e-06)
(0 -0 -1.94509e-06)
(0 -0 -2.82904e-06)
(0 -0 -3.64184e-06)
(0 -0 -4.3647e-06)
(0 -0 -4.98353e-06)
(0 -0 -5.4916e-06)
(0 -0 -5.8959e-06)
(0 -0 -6.23956e-06)
(0 -0 -6.68202e-06)
(0 -0 -7.7925e-06)
(0 -0 -1.16284e-05)
(0 -0 -2.57217e-05)
(0 -0 -7.79064e-05)
(0 -0 -0.000271742)
(0 1.23214e-23 -0.00103602)
(0 -0 4.50364e-06)
(0 -0 5.60731e-06)
(0 -0 6.69364e-06)
(0 -0 7.04614e-06)
(0 -0 7.05282e-06)
(0 -0 7.01276e-06)
(0 -0 6.91217e-06)
(0 -0 6.74021e-06)
(0 -0 6.48819e-06)
(0 -0 6.14997e-06)
(0 -0 5.72216e-06)
(0 -0 5.20443e-06)
(0 -0 4.59959e-06)
(0 -0 3.9139e-06)
(0 -0 3.15711e-06)
(0 -0 2.34262e-06)
(0 -0 1.48713e-06)
(0 -0 6.10215e-07)
(0 -0 -2.66533e-07)
(0 -0 -1.12046e-06)
(0 -0 -1.9292e-06)
(0 -0 -2.67196e-06)
(0 -0 -3.33092e-06)
(0 -0 -3.89264e-06)
(0 -0 -4.35047e-06)
(0 -0 -4.7103e-06)
(0 -0 -5.01045e-06)
(0 -0 -5.39244e-06)
(0 -0 -6.36045e-06)
(0 -0 -9.73237e-06)
(0 -0 -2.2148e-05)
(0 -0 -6.80813e-05)
(0 -0 -0.000238322)
(0 1.10548e-23 -0.000905158)
(0 -0 4.14862e-06)
(0 -0 5.28691e-06)
(0 -0 6.41122e-06)
(0 -0 6.79985e-06)
(0 -0 6.84332e-06)
(0 -0 6.84347e-06)
(0 -0 6.78712e-06)
(0 -0 6.66402e-06)
(0 -0 6.46599e-06)
(0 -0 6.18722e-06)
(0 -0 5.82441e-06)
(0 -0 5.37702e-06)
(0 -0 4.84746e-06)
(0 -0 4.24123e-06)
(0 -0 3.56719e-06)
(0 -0 2.83758e-06)
(0 -0 2.06776e-06)
(0 -0 1.2759e-06)
(0 -0 4.82127e-07)
(0 -0 -2.92328e-07)
(0 -0 -1.02641e-06)
(0 -0 -1.7005e-06)
(0 -0 -2.29762e-06)
(0 -0 -2.805e-06)
(0 -0 -3.21602e-06)
(0 -0 -3.53556e-06)
(0 -0 -3.79731e-06)
(0 -0 -4.1265e-06)
(0 -0 -4.96788e-06)
(0 -0 -7.92145e-06)
(0 -0 -1.88166e-05)
(0 -0 -5.90828e-05)
(0 -0 -0.000207976)
(0 -2.65223e-22 -0.000787292)
(0 -0 3.61488e-06)
(0 -0 4.79424e-06)
(0 -0 5.96434e-06)
(0 -0 6.39856e-06)
(0 -0 6.48908e-06)
(0 -0 6.53982e-06)
(0 -0 6.53797e-06)
(0 -0 6.47382e-06)
(0 -0 6.3396e-06)
(0 -0 6.12968e-06)
(0 -0 5.84086e-06)
(0 -0 5.47231e-06)
(0 -0 5.02601e-06)
(0 -0 4.50668e-06)
(0 -0 3.92222e-06)
(0 -0 3.28361e-06)
(0 -0 2.60487e-06)
(0 -0 1.90267e-06)
(0 -0 1.19569e-06)
(0 -0 5.03648e-07)
(0 -0 -1.53697e-07)
(0 -0 -7.57903e-07)
(0 -0 -1.29287e-06)
(0 -0 -1.7464e-06)
(0 -0 -2.11194e-06)
(0 -0 -2.39341e-06)
(0 -0 -2.62016e-06)
(0 -0 -2.90236e-06)
(0 -0 -3.63054e-06)
(0 -0 -6.20604e-06)
(0 -0 -1.57214e-05)
(0 -0 -5.08451e-05)
(0 -0 -0.000180407)
(0 5.04642e-22 -0.00068107)
(0 -0 2.85683e-06)
(0 -0 4.08349e-06)
(0 -0 5.30637e-06)
(0 -0 5.79461e-06)
(0 -0 5.94153e-06)
(0 -0 6.05275e-06)
(0 -0 6.11578e-06)
(0 -0 6.12123e-06)
(0 -0 6.06156e-06)
(0 -0 5.93126e-06)
(0 -0 5.72701e-06)
(0 -0 5.44774e-06)
(0 -0 5.09474e-06)
(0 -0 4.67199e-06)
(0 -0 4.18624e-06)
(0 -0 3.64717e-06)
(0 -0 3.06739e-06)
(0 -0 2.462e-06)
(0 -0 1.84808e-06)
(0 -0 1.24386e-06)
(0 -0 6.67663e-07)
(0 -0 1.36876e-07)
(0 -0 -3.33451e-07)
(0 -0 -7.31663e-07)
(0 -0 -1.05127e-06)
(0 -0 -1.2951e-06)
(0 -0 -1.48872e-06)
(0 -0 -1.72825e-06)
(0 -0 -2.3546e-06)
(0 -0 -4.58782e-06)
(0 -0 -1.28497e-05)
(0 -0 -4.33033e-05)
(0 -0 -0.000155348)
(0 -2.23153e-22 -0.000585292)
(0 -0 1.82932e-06)
(0 -0 3.11024e-06)
(0 -0 4.39325e-06)
(0 -0 4.94413e-06)
(0 -0 5.15701e-06)
(0 -0 5.33895e-06)
(0 -0 5.47772e-06)
(0 -0 5.56411e-06)
(0 -0 5.59068e-06)
(0 -0 5.55195e-06)
(0 -0 5.44435e-06)
(0 -0 5.26638e-06)
(0 -0 5.01861e-06)
(0 -0 4.70401e-06)
(0 -0 4.32817e-06)
(0 -0 3.89936e-06)
(0 -0 3.42859e-06)
(0 -0 2.92931e-06)
(0 -0 2.41691e-06)
(0 -0 1.90806e-06)
(0 -0 1.41961e-06)
(0 -0 9.67654e-07)
(0 -0 5.66285e-07)
(0 -0 2.26624e-07)
(0 -0 -4.49924e-08)
(0 -0 -2.50307e-07)
(0 -0 -4.11276e-07)
(0 -0 -6.11222e-07)
(0 -0 -1.1454e-06)
(0 -0 -3.06826e-06)
(0 -0 -1.01908e-05)
(0 -0 -3.64004e-05)
(0 -0 -0.00013256)
(0 1.77184e-22 -0.000498895)
(0 -0 4.87931e-07)
(0 -0 1.83074e-06)
(0 -0 3.18192e-06)
(0 -0 3.80464e-06)
(0 -0 4.09366e-06)
(0 -0 4.35716e-06)
(0 -0 4.58314e-06)
(0 -0 4.76253e-06)
(0 -0 4.88795e-06)
(0 -0 4.95378e-06)
(0 -0 4.9561e-06)
(0 -0 4.89277e-06)
(0 -0 4.76355e-06)
(0 -0 4.57033e-06)
(0 -0 4.31731e-06)
(0 -0 4.01122e-06)
(0 -0 3.66131e-06)
(0 -0 3.27926e-06)
(0 -0 2.87873e-06)
(0 -0 2.47454e-06)
(0 -0 2.08205e-06)
(0 -0 1.71598e-06)
(0 -0 1.38945e-06)
(0 -0 1.11295e-06)
(0 -0 8.92746e-07)
(0 -0 7.27913e-07)
(0 -0 6.0005e-07)
(0 -0 4.37719e-07)
(0 -0 -1.24576e-08)
(0 -0 -1.65355e-06)
(0 -0 -7.73991e-06)
(0 -0 -3.0091e-05)
(0 -0 -0.00011184)
(0 -2.74184e-23 -0.000420944)
(0 -0 -1.20882e-06)
(0 -0 2.03938e-07)
(0 -0 1.63184e-06)
(0 -0 2.33615e-06)
(0 -0 2.71199e-06)
(0 -0 3.06837e-06)
(0 -0 3.39358e-06)
(0 -0 3.67867e-06)
(0 -0 3.91622e-06)
(0 -0 4.10033e-06)
(0 -0 4.22664e-06)
(0 -0 4.2923e-06)
(0 -0 4.29609e-06)
(0 -0 4.23863e-06)
(0 -0 4.12257e-06)
(0 -0 3.95294e-06)
(0 -0 3.73717e-06)
(0 -0 3.48491e-06)
(0 -0 3.20786e-06)
(0 -0 2.91901e-06)
(0 -0 2.63201e-06)
(0 -0 2.36014e-06)
(0 -0 2.11553e-06)
(0 -0 1.90785e-06)
(0 -0 1.74338e-06)
(0 -0 1.62196e-06)
(0 -0 1.52851e-06)
(0 -0 1.40268e-06)
(0 -0 1.02948e-06)
(0 -0 -3.55669e-07)
(0 -0 -5.49951e-06)
(0 -0 -2.43419e-05)
(0 -0 -9.30124e-05)
(0 -2.11728e-23 -0.000350618)
(0 -0 -3.29619e-06)
(0 -0 -1.80529e-06)
(0 -0 -2.91989e-07)
(0 -0 5.0384e-07)
(0 -0 9.77334e-07)
(0 -0 1.43822e-06)
(0 -0 1.87498e-06)
(0 -0 2.27874e-06)
(0 -0 2.642e-06)
(0 -0 2.95852e-06)
(0 -0 3.22341e-06)
(0 -0 3.43298e-06)
(0 -0 3.58484e-06)
(0 -0 3.67818e-06)
(0 -0 3.71404e-06)
(0 -0 3.69552e-06)
(0 -0 3.62797e-06)
(0 -0 3.51893e-06)
(0 -0 3.37792e-06)
(0 -0 3.21598e-06)
(0 -0 3.04492e-06)
(0 -0 2.87651e-06)
(0 -0 2.72158e-06)
(0 -0 2.58919e-06)
(0 -0 2.48547e-06)
(0 -0 2.41106e-06)
(0 -0 2.35398e-06)
(0 -0 2.26407e-06)
(0 -0 1.96177e-06)
(0 -0 8.09123e-07)
(0 -0 -3.4778e-06)
(0 -0 -1.91302e-05)
(0 -0 -7.59315e-05)
(0 -1.11224e-22 -0.000287195)
(0 -0 -5.79952e-06)
(0 -0 -4.2227e-06)
(0 -0 -2.61556e-06)
(0 -0 -1.7185e-06)
(0 -0 -1.13662e-06)
(0 -0 -5.59769e-07)
(0 -0 6.99329e-10)
(0 -0 5.36e-07)
(0 -0 1.03845e-06)
(0 -0 1.50152e-06)
(0 -0 1.91959e-06)
(0 -0 2.288e-06)
(0 -0 2.60311e-06)
(0 -0 2.86256e-06)
(0 -0 3.06552e-06)
(0 -0 3.21303e-06)
(0 -0 3.30814e-06)
(0 -0 3.35612e-06)
(0 -0 3.36421e-06)
(0 -0 3.34126e-06)
(0 -0 3.29702e-06)
(0 -0 3.24168e-06)
(0 -0 3.18476e-06)
(0 -0 3.13461e-06)
(0 -0 3.09711e-06)
(0 -0 3.07367e-06)
(0 -0 3.05523e-06)
(0 -0 3.00119e-06)
(0 -0 2.76443e-06)
(0 -0 1.82271e-06)
(0 -0 -1.68642e-06)
(0 -0 -1.44414e-05)
(0 -0 -6.04743e-05)
(0 -3.01565e-23 -0.000230039)
(0 -0 -8.73084e-06)
(0 -0 -7.06116e-06)
(0 -0 -5.35234e-06)
(0 -0 -4.34488e-06)
(0 -0 -3.64444e-06)
(0 -0 -2.94079e-06)
(0 -0 -2.24505e-06)
(0 -0 -1.56596e-06)
(0 -0 -9.11333e-07)
(0 -0 -2.88193e-07)
(0 -0 2.97102e-07)
(0 -0 8.38831e-07)
(0 -0 1.33198e-06)
(0 -0 1.77245e-06)
(0 -0 2.15738e-06)
(0 -0 2.48555e-06)
(0 -0 2.75762e-06)
(0 -0 2.9764e-06)
(0 -0 3.14655e-06)
(0 -0 3.27455e-06)
(0 -0 3.3681e-06)
(0 -0 3.43552e-06)
(0 -0 3.48509e-06)
(0 -0 3.52424e-06)
(0 -0 3.55858e-06)
(0 -0 3.59027e-06)
(0 -0 3.61304e-06)
(0 -0 3.59509e-06)
(0 -0 3.41902e-06)
(0 -0 2.66783e-06)
(0 -0 -1.38051e-07)
(0 -0 -1.02687e-05)
(0 -0 -4.65487e-05)
(0 3.07654e-23 -0.000178629)
(0 -0 -1.20862e-05)
(0 -0 -1.03176e-05)
(0 -0 -8.50003e-06)
(0 -0 -7.37391e-06)
(0 -0 -6.54581e-06)
(0 -0 -5.70559e-06)
(0 -0 -4.86412e-06)
(0 -0 -4.03009e-06)
(0 -0 -3.2115e-06)
(0 -0 -2.41589e-06)
(0 -0 -1.65039e-06)
(0 -0 -9.21907e-07)
(0 -0 -2.36955e-07)
(0 -0 3.98443e-07)