/*--------------------------------*- C++ -*----------------------------------*\
| =========                 |                                                 |
| \\      /  F ield         | OpenFOAM: The Open Source CFD Toolbox           |
|  \\    /   O peration     | Version:  2412                                  |
|   \\  /    A nd           | Website:  www.openfoam.com                      |
|    \\/     M anipulation  |                                                 |
\*---------------------------------------------------------------------------*/
FoamFile
{
    version     2.0;
    format      ascii;
    arch        "LSB;label=32;scalar=64";
    class       volVectorField;
    location    "18";
    object      vorticity;
}
// * * * * * * * * * * * * * * * * * * * * * * * * * * * * * * * * * * * * * //

dimensions      [0 0 -1 0 0 0 0];

internalField   nonuniform List<vector> 
5285
(
(0 -4.6014e-23 -6.92312e-05)
(0 2.64276e-21 -4.12897e-05)
(0 -0 -1.66249e-05)
(0 -0 -2.30367e-05)
(0 -0 -3.00725e-05)
(0 -0 -3.90024e-05)
(0 -0 -4.90888e-05)
(0 -0 -5.98948e-05)
(0 -0 -7.1157e-05)
(0 -0 -8.25561e-05)
(0 -0 -9.37149e-05)
(0 -0 -0.00010419)
(0 -0 -0.000113476)
(0 -0 -0.000121033)
(0 -0 -0.000126318)
(0 -0 -0.000128844)
(0 -0 -0.000128239)
(0 -0 -0.000124306)
(0 -0 -0.000117081)
(0 -0 -0.000106864)
(0 -0 -9.42337e-05)
(0 -0 -8.00474e-05)
(0 -0 -6.54322e-05)
(0 -0 -5.15695e-05)
(0 -5.19848e-21 -2.33025e-05)
(0 -0 -1.66779e-06)
(0 -0 -6.25182e-06)
(0 -0 -1.11221e-05)
(0 -0 -1.7268e-05)
(0 -0 -2.44619e-05)
(0 -0 -3.2402e-05)
(0 -0 -4.09065e-05)
(0 -0 -4.97176e-05)
(0 -0 -5.85102e-05)
(0 -0 -6.68882e-05)
(0 -0 -7.43905e-05)
(0 -0 -8.05131e-05)
(0 -0 -8.47472e-05)
(0 -0 -8.66291e-05)
(0 -0 -8.58007e-05)
(0 -0 -8.20704e-05)
(0 -0 -7.54648e-05)
(0 -0 -6.62629e-05)
(0 -0 -5.50056e-05)
(0 -0 -4.24987e-05)
(0 -0 -2.97812e-05)
(0 -0 -1.78921e-05)
(0 2.47461e-21 -1.13129e-05)
(0 -0 7.53396e-06)
(0 -0 4.44386e-06)
(0 -0 7.08962e-07)
(0 -0 -4.05195e-06)
(0 -0 -9.67746e-06)
(0 -0 -1.59823e-05)
(0 -0 -2.28691e-05)
(0 -0 -3.01437e-05)
(0 -0 -3.753e-05)
(0 -0 -4.46724e-05)
(0 -0 -5.11436e-05)
(0 -0 -5.64679e-05)
(0 -0 -6.01586e-05)
(0 -0 -6.17677e-05)
(0 -0 -6.09443e-05)
(0 -0 -5.74939e-05)
(0 -0 -5.1429e-05)
(0 -0 -4.30014e-05)
(0 -0 -3.27122e-05)
(0 -0 -2.13145e-05)
(0 -0 -9.79341e-06)
(0 -0 9.52035e-07)
(0 -3.36951e-23 -3.19634e-06)
(0 -0 1.27697e-05)
(0 -0 1.04828e-05)
(0 -0 7.48211e-06)
(0 -0 3.50322e-06)
(0 -0 -1.28916e-06)
(0 -0 -6.74063e-06)
(0 -0 -1.27909e-05)
(0 -0 -1.92855e-05)
(0 -0 -2.59835e-05)
(0 -0 -3.25589e-05)
(0 -0 -3.86092e-05)
(0 -0 -4.3678e-05)
(0 -0 -4.72916e-05)
(0 -0 -4.90079e-05)
(0 -0 -4.84736e-05)
(0 -0 -4.54816e-05)
(0 -0 -4.00205e-05)
(0 -0 -3.23057e-05)
(0 -0 -2.27908e-05)
(0 -0 -1.21705e-05)
(0 -0 -1.36203e-06)
(0 -0 8.77011e-06)
(0 -3.11525e-23 2.12269e-06)
(0 -0 1.52368e-05)
(0 -0 1.33844e-05)
(0 -0 1.07991e-05)
(0 -0 7.21999e-06)
(0 -0 2.80677e-06)
(0 -0 -2.29546e-06)
(0 -0 -8.04069e-06)
(0 -0 -1.42957e-05)
(0 -0 -2.08413e-05)
(0 -0 -2.73709e-05)
(0 -0 -3.34975e-05)
(0 -0 -3.87751e-05)
(0 -0 -4.27339e-05)
(0 -0 -4.49277e-05)
(0 -0 -4.49896e-05)
(0 -0 -4.26884e-05)
(0 -0 -3.79761e-05)
(0 -0 -3.10207e-05)
(0 -0 -2.22174e-05)
(0 -0 -1.21942e-05)
(0 -0 -1.79512e-06)
(0 -0 8.18436e-06)
(0 -9.09239e-22 5.61758e-06)
(0 -0 1.60423e-05)
(0 -0 1.43386e-05)
(0 -0 1.19038e-05)
(0 -0 8.44938e-06)
(0 -0 4.11251e-06)
(0 -0 -9.74516e-07)
(0 -0 -6.7755e-06)
(0 -0 -1.31712e-05)
(0 -0 -1.99566e-05)
(0 -0 -2.68373e-05)
(0 -0 -3.34345e-05)
(0 -0 -3.9305e-05)
(0 -0 -4.39739e-05)
(0 -0 -4.69811e-05)
(0 -0 -4.79349e-05)
(0 -0 -4.65668e-05)
(0 -0 -4.27797e-05)
(0 -0 -3.66805e-05)
(0 -0 -2.8594e-05)
(0 -0 -1.90722e-05)
(0 -0 -8.88062e-06)
(0 -0 1.25902e-06)
(0 1.71861e-21 7.8465e-06)
(0 -0 1.58412e-05)
(0 -0 1.41023e-05)
(0 -0 1.1629e-05)
(0 -0 8.10294e-06)
(0 -0 3.63199e-06)
(0 -0 -1.67005e-06)
(0 -0 -7.77839e-06)
(0 -0 -1.45868e-05)
(0 -0 -2.19018e-05)
(0 -0 -2.9437e-05)
(0 -0 -3.68172e-05)
(0 -0 -4.35952e-05)
(0 -0 -4.92838e-05)
(0 -0 -5.33993e-05)
(0 -0 -5.5514e-05)
(0 -0 -5.53099e-05)
(0 -0 -5.26273e-05)
(0 -0 -4.74988e-05)
(0 -0 -4.01665e-05)
(0 -0 -3.10971e-05)
(0 -0 -2.09713e-05)
(0 -0 -1.04352e-05)
(0 -1.63582e-21 9.14409e-06)
(0 -0 1.49929e-05)
(0 -0 1.31072e-05)
(0 -0 1.04687e-05)
(0 -0 6.7337e-06)
(0 -0 1.97952e-06)
(0 -0 -3.70162e-06)
(0 -0 -1.02992e-05)
(0 -0 -1.77209e-05)
(0 -0 -2.57841e-05)
(0 -0 -3.4209e-05)
(0 -0 -4.26204e-05)
(0 -0 -5.05626e-05)
(0 -0 -5.75293e-05)
(0 -0 -6.30048e-05)
(0 -0 -6.65151e-05)
(0 -0 -6.76814e-05)
(0 -0 -6.62688e-05)
(0 -0 -6.22228e-05)
(0 -0 -5.56923e-05)
(0 -0 -4.7049e-05)
(0 -0 -3.6884e-05)
(0 -0 -2.57658e-05)
(0 7.4913e-22 9.71004e-06)
(0 -0 1.36921e-05)
(0 -0 1.15935e-05)
(0 -0 8.70832e-06)
(0 -0 4.67127e-06)
(0 -0 -4.70414e-07)
(0 -0 -6.64789e-06)
(0 -0 -1.38669e-05)
(0 -0 -2.20499e-05)
(0 -0 -3.10258e-05)
(0 -0 -4.05204e-05)
(0 -0 -5.01563e-05)
(0 -0 -5.94657e-05)
(0 -0 -6.79174e-05)
(0 -0 -7.4957e-05)
(0 -0 -8.00553e-05)
(0 -0 -8.27625e-05)
(0 -0 -8.27579e-05)
(0 -0 -7.98897e-05)
(0 -0 -7.42034e-05)
(0 -0 -6.59687e-05)
(0 -0 -5.56827e-05)
(0 -0 -4.3836e-05)
(0 -0 9.66005e-06)
(0 -0 1.20395e-05)
(0 -0 9.69174e-06)
(0 -0 6.51111e-06)
(0 -0 2.11261e-06)
(0 -0 -3.4859e-06)
(0 -0 -1.02399e-05)
(0 -0 -1.81722e-05)
(0 -0 -2.72213e-05)
(0 -0 -3.72275e-05)
(0 -0 -4.79216e-05)
(0 -0 -5.89225e-05)
(0 -0 -6.97475e-05)
(0 -0 -7.98367e-05)
(0 -0 -8.85907e-05)
(0 -0 -9.54188e-05)
(0 -0 -9.97922e-05)
(0 -0 -0.000101296)
(0 -0 -9.96732e-05)
(0 -0 -9.48589e-05)
(0 -0 -8.70157e-05)
(0 -0 -7.65444e-05)
(0 -0 -6.38577e-05)
(0 5.85743e-22 9.06179e-06)
(0 -0 1.00865e-05)
(0 -0 7.47582e-06)
(0 -0 3.97558e-06)
(0 -0 -8.17138e-07)
(0 -0 -6.91301e-06)
(0 -0 -1.42917e-05)
(0 -0 -2.29937e-05)
(0 -0 -3.29732e-05)
(0 -0 -4.4082e-05)
(0 -0 -5.60554e-05)
(0 -0 -6.85076e-05)
(0 -0 -8.09389e-05)
(0 -0 -9.27578e-05)
(0 -0 -0.000103316)
(0 -0 -0.000111958)
(0 -0 -0.000118069)
(0 -0 -0.000121136)
(0 -0 -0.000120791)
(0 -0 -0.000116856)
(0 -0 -0.000109384)
(0 -0 -9.8679e-05)
(0 -0 -8.50771e-05)
(0 -6.19848e-22 7.96543e-06)
(0 -0 7.86848e-06)
(0 -0 4.99901e-06)
(0 -0 1.17436e-06)
(0 -0 -4.02388e-06)
(0 -0 -1.06331e-05)
(0 -0 -1.86559e-05)
(0 -0 -2.81499e-05)
(0 -0 -3.90845e-05)
(0 -0 -5.13224e-05)
(0 -0 -6.4603e-05)
(0 -0 -7.85349e-05)
(0 -0 -9.26008e-05)
(0 -0 -0.000106176)
(0 -0 -0.000118563)
(0 -0 -0.000129036)
(0 -0 -0.000136897)
(0 -0 -0.000141531)
(0 -0 -0.000142458)
(0 -0 -0.000139387)
(0 -0 -0.000132261)
(0 -0 -0.00012129)
(0 -0 -0.000106737)
(0 -2.70349e-22 6.43233e-06)
(0 -0 5.4329e-06)
(0 -0 2.32099e-06)
(0 -0 -1.81973e-06)
(0 -0 -7.4191e-06)
(0 -0 -1.45374e-05)
(0 -0 -2.31979e-05)
(0 -0 -3.34735e-05)
(0 -0 -4.53477e-05)
(0 -0 -5.86936e-05)
(0 -0 -7.32545e-05)
(0 -0 -8.86338e-05)
(0 -0 -0.000104296)
(0 -0 -0.000119585)
(0 -0 -0.000133753)
(0 -0 -0.000146008)
(0 -0 -0.000155568)
(0 -0 -0.000161717)
(0 -0 -0.000163871)
(0 -0 -0.000161623)
(0 -0 -0.000154815)
(0 -0 -0.000143565)
(0 -0 -0.000128069)
(0 2.67873e-22 4.5636e-06)
(0 -0 2.86152e-06)
(0 -0 -4.75099e-07)
(0 -0 -4.92087e-06)
(0 -0 -1.0909e-05)
(0 -0 -1.85168e-05)
(0 -0 -2.77847e-05)
(0 -0 -3.8799e-05)
(0 -0 -5.15566e-05)
(0 -0 -6.59406e-05)
(0 -0 -8.16989e-05)
(0 -0 -9.84301e-05)
(0 -0 -0.000115583)
(0 -0 -0.000132471)
(0 -0 -0.000148302)
(0 -0 -0.000162219)
(0 -0 -0.000173361)
(0 -0 -0.000180923)
(0 -0 -0.000184215)
(0 -0 -0.00018273)
(0 -0 -0.000176209)
(0 -0 -0.000164688)
(0 -0 -0.000148303)
(0 -1.3391e-23 2.52614e-06)
(0 -0 2.8234e-07)
(0 -0 -3.28242e-06)
(0 -0 -8.03515e-06)
(0 -0 -1.43999e-05)
(0 -0 -2.2465e-05)
(0 -0 -3.22862e-05)
(0 -0 -4.39629e-05)
(0 -0 -5.75056e-05)
(0 -0 -7.28083e-05)
(0 -0 -8.96241e-05)
(0 -0 -0.000107549)
(0 -0 -0.00012602)
(0 -0 -0.000144324)
(0 -0 -0.000161627)
(0 -0 -0.00017702)
(0 -0 -0.00018957)
(0 -0 -0.000198389)
(0 -0 -0.000202696)
(0 -0 -0.000201891)
(0 -0 -0.000195629)
(0 -0 -0.000183871)
(0 -0 -0.000166696)
(0 -9.62013e-23 5.70804e-07)
(0 -0 -2.14715e-06)
(0 -0 -6.00288e-06)
(0 -0 -1.10915e-05)
(0 -0 -1.78205e-05)
(0 -0 -2.62927e-05)
(0 -0 -3.65834e-05)
(0 -0 -4.88086e-05)
(0 -0 -6.29944e-05)
(0 -0 -7.90467e-05)
(0 -0 -9.67259e-05)
(0 -0 -0.000115628)
(0 -0 -0.000135182)
(0 -0 -0.000154653)
(0 -0 -0.000173178)
(0 -0 -0.0001898)
(0 -0 -0.000203529)
(0 -0 -0.000213406)
(0 -0 -0.000218574)
(0 -0 -0.000218354)
(0 -0 -0.000212325)
(0 -0 -0.000200385)
(0 -0 -0.000182567)
(0 8.47772e-23 -9.82234e-07)
(0 -0 -4.32323e-06)
(0 -0 -8.6415e-06)
(0 -0 -1.41016e-05)
(0 -0 -2.11524e-05)
(0 -0 -2.99401e-05)
(0 -0 -4.05733e-05)
(0 -0 -5.31897e-05)
(0 -0 -6.7832e-05)
(0 -0 -8.4419e-05)
(0 -0 -0.000102719)
(0 -0 -0.000122331)
(0 -0 -0.000142679)
(0 -0 -0.000163018)
(0 -0 -0.00018246)
(0 -0 -0.000200016)
(0 -0 -0.00021465)
(0 -0 -0.000225352)
(0 -0 -0.000231204)
(0 -0 -0.000231463)
(0 -0 -0.00022565)
(0 -0 -0.000213608)
(0 -0 -0.00019533)
(0 -9.91317e-24 -1.76096e-06)
(0 -0 -6.56492e-06)
(0 -0 -1.14093e-05)
(0 -0 -1.72119e-05)
(0 -0 -2.44316e-05)
(0 -0 -3.33659e-05)
(0 -0 -4.41596e-05)
(0 -0 -5.69666e-05)
(0 -0 -7.18412e-05)
(0 -0 -8.87115e-05)
(0 -0 -0.000107353)
(0 -0 -0.00012737)
(0 -0 -0.000148187)
(0 -0 -0.000169054)
(0 -0 -0.000189071)
(0 -0 -0.00020723)
(0 -0 -0.000222469)
(0 -0 -0.000233739)
(0 -0 -0.000240083)
(0 -0 -0.000240712)
(0 -0 -0.000235103)
(0 -0 -0.000223061)
(0 -0 -0.000204548)
(-5.25212e-22 9.2732e-21 0.000171516)
(1.70303e-21 -8.06228e-21 0.000142536)
(4.79689e-22 -9.78888e-21 0.00015577)
(-1.67177e-20 3.23469e-19 0.000128278)
(1.15252e-21 -1.81216e-20 9.97868e-05)
(1.44546e-21 -1.5096e-21 5.97834e-05)
(-2.01815e-20 5.94773e-19 -3.84202e-05)
(4.05798e-20 -1.20964e-18 -0.000355737)
(3.09338e-21 -2.35081e-20 -0.000816535)
(-5.60676e-22 1.01753e-20 0.000139231)
(2.75376e-20 -5.80674e-19 0.000114439)
(2.69426e-20 -5.95373e-19 8.89844e-05)
(1.1384e-21 1.3963e-21 5.34849e-05)
(4.18677e-20 -1.24007e-18 -3.0762e-05)
(-3.745e-20 1.24788e-18 -0.000298803)
(-3.41328e-20 1.23924e-18 -0.000695693)
(4.03948e-21 -8.27707e-20 0.000124202)
(-1.30307e-20 3.02475e-19 0.000101715)
(-4.76069e-20 1.16829e-18 7.88122e-05)
(-2.39624e-20 6.17515e-19 4.7415e-05)
(-1.75576e-20 6.12868e-19 -2.52251e-05)
(6.61786e-20 -2.4297e-18 -0.000251935)
(5.79027e-20 -2.51845e-18 -0.000593602)
(-3.72204e-21 8.23994e-20 0.000110229)
(-8.10733e-22 1.03446e-20 8.99124e-05)
(2.18444e-20 -6.09418e-19 6.92459e-05)
(4.269e-20 -1.2133e-18 4.11832e-05)
(-1.2312e-21 -3.18425e-21 -2.15209e-05)
(-1.21129e-20 6.29306e-19 -0.000212923)
(-2.29041e-20 1.23933e-18 -0.000506323)
(-3.04919e-21 6.3689e-20 9.73524e-05)
(-1.12716e-21 2.8038e-20 7.87815e-05)
(1.2674e-20 -3.14947e-19 6.00197e-05)
(-3.87787e-20 1.18862e-18 3.50419e-05)
(8.62221e-22 5.73553e-22 -1.88866e-05)
(-1.6233e-20 6.26182e-19 -0.000179805)
(-1.96457e-21 -1.74139e-20 -0.00043094)
(5.79932e-21 -1.36667e-19 8.54746e-05)
(3.32792e-22 -9.6823e-21 6.84892e-05)
(-9.52881e-21 2.78211e-19 5.14538e-05)
(3.59475e-20 -1.18532e-18 2.93125e-05)
(-1.69046e-20 5.92964e-19 -1.68265e-05)
(-1.75525e-20 6.39722e-19 -0.000151353)
(-4.36433e-22 -1.77834e-20 -0.000365431)
(-2.83446e-21 7.294e-20 7.45396e-05)
(1.74851e-22 7.25653e-23 5.90621e-05)
(-3.85781e-22 -7.86699e-22 4.36544e-05)
(-1.63194e-20 5.92301e-19 2.413e-05)
(1.62375e-20 -6.11154e-19 -1.50927e-05)
(2.71355e-20 -1.17796e-18 -0.000126787)
(1.26873e-20 -6.04016e-19 -0.000308356)
(-4.25235e-22 8.96131e-21 6.45623e-05)
(-5.39981e-21 1.54977e-19 5.05148e-05)
(5.96869e-23 1.92923e-22 3.66494e-05)
(-1.07869e-21 -5.82897e-22 1.95437e-05)
(-1.3669e-20 5.7019e-19 -1.35433e-05)
(-2.4115e-20 1.20683e-18 -0.00010552)
(-2.16743e-20 1.18021e-18 -0.000258568)
(3.07698e-22 -8.96908e-21 5.54622e-05)
(4.39723e-21 -1.36968e-19 4.2786e-05)
(-2.79672e-22 1.99165e-22 3.03964e-05)
(7.98396e-21 -2.92222e-19 1.55343e-05)
(1.36352e-20 -5.90235e-19 -1.21158e-05)
(-2.06797e-21 1.76311e-20 -8.71104e-05)
(1.95511e-20 -1.20658e-18 -0.000215146)
(1.20234e-24 1.0826e-22 4.71096e-05)
(4.26081e-21 -1.26977e-19 3.57673e-05)
(8.50793e-21 -2.91898e-19 2.48054e-05)
(-6.42667e-21 2.56168e-19 1.20316e-05)
(-1.08265e-22 3.76165e-20 -1.08064e-05)
(1.11753e-20 -5.89795e-19 -7.12223e-05)
(-7.85613e-21 5.71434e-19 -0.000177338)
(3.19658e-22 -9.24306e-21 3.93955e-05)
(-5.23383e-21 1.72756e-19 2.93453e-05)
(-7.4127e-21 2.73812e-19 1.97631e-05)
(-4.55662e-22 1.85352e-20 8.93472e-06)
(3.73548e-22 -1.75889e-20 -9.65218e-06)
(1.21654e-20 -5.84263e-19 -5.76022e-05)
(-1.52469e-22 -6.08973e-22 -0.00014452)
(-1.42018e-21 4.53324e-20 3.21908e-05)
(1.42091e-22 -9.03008e-21 2.33873e-05)
(1.90353e-22 -1.84443e-20 1.51375e-05)
(-7.21492e-21 2.90684e-19 6.12332e-06)
(-1.47281e-23 -7.40374e-22 -8.71495e-06)
(-1.6037e-20 9.09208e-19 -4.60526e-05)
(-8.60711e-21 5.63576e-19 -0.000116167)
(1.36174e-21 -4.54172e-20 2.53352e-05)
(-7.2725e-22 2.72142e-20 1.7742e-05)
(-3.45212e-23 5.58027e-22 1.07858e-05)
(1.37468e-20 -6.17161e-19 3.47057e-06)
(-3.91741e-22 1.81486e-20 -8.06297e-06)
(8.78312e-21 -5.60272e-19 -3.64075e-05)
(7.71062e-21 -5.97153e-19 -9.18157e-05)
(-2.25525e-22 9.07331e-21 1.8652e-05)
(-2.20774e-22 9.1921e-21 1.22547e-05)
(3.60172e-21 -1.45127e-19 6.57184e-06)
(-5.76544e-21 2.90071e-19 8.64672e-07)
(4.60425e-22 -1.81146e-20 -7.74694e-06)
(-4.70182e-21 3.06807e-19 -2.85035e-05)
(4.84831e-21 -3.04305e-19 -7.1035e-05)
(2.29988e-22 -9.07494e-21 1.19919e-05)
(-2.13642e-22 8.88679e-21 6.79887e-06)
(-6.21885e-21 2.71741e-19 2.39654e-06)
(-2.86856e-22 4.46038e-23 -1.76011e-06)
(-3.03406e-21 1.62119e-19 -7.76747e-06)
(4.48432e-21 -3.04488e-19 -2.21446e-05)
(-3.70832e-21 3.03135e-19 -5.33894e-05)
(2.41693e-22 -9.11491e-21 5.22706e-06)
(-1.50416e-21 6.34994e-20 1.30216e-06)
(3.14113e-21 -1.44877e-19 -1.76387e-06)
(3.73359e-22 -1.7914e-20 -4.37957e-06)
(4.87748e-21 -2.87459e-19 -8.03065e-06)
(-4.28702e-21 3.03495e-19 -1.70604e-05)
(-1.1969e-22 -1.74495e-20 -3.84018e-05)
(-4.42701e-22 1.81277e-20 -1.66129e-06)
(-1.81782e-22 8.96935e-21 -4.17788e-06)
(-1.3932e-21 7.22535e-20 -5.78912e-06)
(6.08273e-23 -4.32273e-23 -6.8164e-06)
(-2.13395e-21 1.43358e-19 -8.2928e-06)
(8.99441e-23 -1.75538e-20 -1.28643e-05)
(1.68772e-21 -1.40684e-19 -2.5529e-05)
(2.20331e-22 -9.06618e-21 -8.48349e-06)
(4.15474e-22 -1.81348e-20 -9.34953e-06)
(1.79104e-21 -9.0416e-20 -9.33368e-06)
(-3.5641e-22 1.78986e-20 -8.66783e-06)
(-6.47578e-22 3.56036e-20 -8.10373e-06)
(-1.15667e-21 8.82832e-20 -9.03187e-06)
(-1.28831e-21 1.22734e-19 -1.41415e-05)
(-1.97988e-22 9.08638e-21 -1.4738e-05)
(6.02421e-22 -2.71926e-20 -1.36295e-05)
(-2.82674e-22 1.80621e-20 -1.16774e-05)
(6.02584e-22 -3.5859e-20 -9.24016e-06)
(2.40213e-22 -1.7823e-20 -6.76232e-06)
(6.63636e-22 -5.2907e-20 -4.96245e-06)
(1.20142e-22 -1.74242e-20 -3.50477e-06)
(-1.96272e-20 2.86166e-19 0.000231645)
(-6.05919e-22 9.61144e-21 0.000201175)
(7.63962e-22 -2.05397e-20 0.000457718)
(-1.03022e-19 1.24075e-18 0.000327422)
(4.60985e-20 -6.108e-19 0.000297673)
(-7.89427e-22 -7.30251e-22 0.000267686)
(1.00675e-21 -1.84611e-20 0.000238213)
(-1.84374e-21 2.74603e-20 0.000209159)
(5.58688e-22 -9.10219e-21 0.000182072)
(9.68189e-20 -1.22453e-18 0.000400217)
(8.76695e-20 -1.17613e-18 0.000291216)
(-4.21363e-20 5.7384e-19 0.000265773)
(-6.16548e-22 -2.27369e-22 0.000240098)
(-3.81171e-20 5.84732e-19 0.000214072)
(-1.85243e-20 3.01898e-19 0.000189014)
(-4.31046e-22 9.50719e-21 0.000164457)
(-1.8056e-19 2.38136e-18 0.000348817)
(-1.72842e-19 2.39903e-18 0.000258527)
(-5.65717e-22 2.34146e-21 0.000237274)
(3.70123e-20 -5.66238e-19 0.000215216)
(7.26348e-20 -1.18828e-18 0.000192588)
(3.29066e-20 -5.76654e-19 0.000169754)
(-3.38175e-21 6.32652e-20 0.000146949)
(8.67353e-20 -1.19496e-18 0.000302836)
(4.05026e-20 -5.76951e-19 0.000228806)
(5.13881e-23 -1.49406e-21 0.000211244)
(-7.15497e-20 1.15202e-18 0.000192402)
(-3.22063e-20 5.67448e-19 0.000172428)
(-1.60781e-20 3.02021e-19 0.000151837)
(3.13738e-21 -6.37853e-20 0.000131016)
(1.92451e-21 -1.8009e-20 0.000261701)
(3.8403e-20 -5.71503e-19 0.000201557)
(-3.574e-22 5.4444e-22 0.000187189)
(6.83492e-20 -1.1683e-18 0.00017121)
(-1.55994e-20 2.71655e-19 0.000153723)
(-1.79829e-21 2.76066e-20 0.000135283)
(4.1192e-21 -8.19193e-20 0.000116387)
(1.38074e-21 -1.81112e-20 0.000224983)
(3.40978e-20 -5.48576e-19 0.000176659)
(3.39422e-20 -5.84482e-19 0.000165035)
(-6.4789e-20 1.16524e-18 0.000151587)
(1.64259e-20 -3.08635e-19 0.000136393)
(4.01378e-22 -9.54071e-21 0.000119954)
(-7.07519e-21 1.5486e-19 0.000102855)
(-3.56717e-20 5.84757e-19 0.000192278)
(-7.01857e-20 1.18586e-18 0.000153987)
(-3.24041e-20 5.66264e-19 0.000144722)
(6.12369e-20 -1.16232e-18 0.000133508)
(2.76227e-22 -7.79018e-22 0.000120389)
(-9.78253e-23 6.90625e-23 0.000105794)
(3.0892e-21 -7.29292e-20 9.03477e-05)
(6.96201e-20 -1.18307e-18 0.000163195)
(6.3774e-20 -1.14472e-18 0.000133375)
(3.1101e-20 -5.98811e-19 0.000126131)
(-2.91857e-20 5.80555e-19 0.000116858)
(-4.98661e-23 4.41543e-22 0.000105582)
(5.98214e-21 -1.35884e-19 9.27304e-05)
(-3.21499e-22 8.96059e-21 7.88767e-05)
(-3.20568e-20 5.61811e-19 0.000137369)
(-1.87935e-21 1.93452e-20 0.00011465)
(-2.99031e-20 5.79315e-19 0.00010913)
(-1.41471e-20 2.89309e-19 0.000101549)
(1.60435e-22 4.30176e-23 9.19118e-05)
(-6.4773e-21 1.54272e-19 8.06668e-05)
(3.6391e-22 -8.94055e-21 6.83442e-05)
(3.0834e-20 -5.93671e-19 0.000114454)
(-3.01056e-20 5.76902e-19 9.76332e-05)
(-2.03685e-21 3.63994e-20 9.35806e-05)
(1.51185e-20 -3.25464e-19 8.74813e-05)
(-1.24292e-20 2.88599e-19 7.93206e-05)
(-6.67966e-21 1.62921e-19 6.95257e-05)
(1.5243e-24 1.01692e-22 5.8621e-05)
(-1.29921e-21 1.02349e-21 9.41208e-05)
(-2.76349e-20 5.73468e-19 8.21415e-05)
(7.98573e-22 -1.78682e-20 7.93221e-05)
(-7.3985e-22 1.81689e-20 7.45072e-05)
(1.27824e-20 -3.07292e-19 6.76662e-05)
(4.56511e-21 -1.1798e-19 5.919e-05)
(3.21386e-22 -9.12487e-21 4.96021e-05)
(-4.69726e-22 -1.65328e-20 7.60537e-05)
(3.84793e-20 -8.22181e-19 6.79846e-05)
(5.14219e-23 -4.89841e-23 6.61828e-05)
(1.19643e-20 -2.87436e-19 6.24615e-05)
(9.00455e-22 -1.81086e-20 5.67831e-05)
(4.44747e-22 -9.03841e-21 4.95267e-05)
(9.1445e-22 -2.71822e-20 4.11619e-05)
(-2.61629e-20 5.49252e-19 5.99467e-05)
(-2.59398e-20 5.87346e-19 5.49621e-05)
(-7.41188e-22 1.78185e-20 5.39757e-05)
(-2.15261e-20 5.3873e-19 5.11855e-05)
(1.23185e-23 1.00858e-22 4.6515e-05)
(-3.47882e-21 9.9309e-20 4.03528e-05)
(-8.88463e-22 2.73013e-20 3.31264e-05)
(-1.14983e-20 2.63906e-19 4.54938e-05)
(1.14629e-20 -2.66202e-19 4.28491e-05)
(6.81266e-22 -1.78026e-20 4.24777e-05)
(1.10057e-20 -2.87234e-19 4.04442e-05)
(-5.1907e-21 1.43813e-19 3.66348e-05)
(2.11638e-21 -6.33031e-20 3.14425e-05)
(-3.0707e-22 9.01458e-21 2.52923e-05)
(1.14358e-20 -2.62989e-19 3.23732e-05)
(-1.04304e-20 2.64679e-19 3.13728e-05)
(4.72599e-21 -1.24362e-19 3.13957e-05)
(1.19574e-22 1.07644e-22 2.99335e-05)
(1.05348e-20 -3.05865e-19 2.689e-05)
(-2.53365e-22 8.94479e-21 2.26028e-05)
(-2.63734e-22 9.05105e-21 1.74935e-05)
(6.80468e-22 -1.7425e-20 2.02034e-05)
(1.04519e-20 -2.64208e-19 2.01746e-05)
(-1.04739e-20 2.83911e-19 2.03729e-05)
(6.03803e-22 -1.78957e-20 1.93435e-05)
(-4.80252e-21 1.43956e-19 1.69946e-05)
(2.44041e-22 -8.95202e-21 1.35979e-05)
(7.96126e-22 -2.7178e-20 9.54364e-06)
(-5.24394e-21 1.3857e-19 8.415e-06)
(6.519e-22 -1.75407e-20 8.68459e-06)
(7.49683e-21 -2.12517e-19 8.89683e-06)
(-2.70262e-23 -2.82717e-23 8.2697e-06)
(2.14535e-21 -7.18383e-20 6.63727e-06)
(-3.34009e-22 9.06688e-21 4.21643e-06)
(-1.11731e-24 -7.78207e-25 1.33186e-06)
(5.88275e-21 -1.55349e-19 -4.07547e-06)
(1.78501e-21 -5.23436e-20 -4.01502e-06)
(-2.4246e-21 7.07042e-20 -3.68851e-06)
(-5.54614e-22 1.78354e-20 -3.69284e-06)
(-5.78429e-22 1.80666e-20 -4.36782e-06)
(-5.45955e-22 1.81103e-20 -5.57634e-06)
(-2.41287e-22 9.0755e-21 -7.05797e-06)
(5.81919e-22 -1.71669e-20 -2.00358e-05)
(-3.0274e-21 8.7066e-20 -1.92469e-05)
(-5.58237e-22 1.76274e-20 -1.78303e-05)
(1.08809e-21 -3.56127e-20 -1.66373e-05)
(-1.59969e-21 5.38674e-20 -1.58843e-05)
(-2.68958e-22 9.04415e-21 -1.55088e-05)
(-2.39029e-22 9.05377e-21 -1.52021e-05)
(0 -0 4.34166e-06)
(0 -0 4.8392e-06)
(0 -0 5.30166e-06)
(0 -0 4.99527e-06)
(0 -0 4.18352e-06)
(0 -0 3.21406e-06)
(0 -0 2.10067e-06)
(0 -0 8.6206e-07)
(0 -0 -4.77328e-07)
(0 -0 -1.88536e-06)
(0 -0 -3.32202e-06)
(0 -0 -4.74103e-06)
(0 -0 -6.09309e-06)
(0 -0 -7.33022e-06)
(0 -0 -8.41012e-06)
(0 -0 -9.30002e-06)
(0 -0 -9.97943e-06)
(0 -0 -1.04411e-05)
(0 -0 -1.06904e-05)
(0 -0 -1.07442e-05)
(0 -0 -1.06277e-05)
(0 -0 -1.03721e-05)
(0 -0 -1.00118e-05)
(0 -0 -9.58214e-06)
(0 -0 -9.12043e-06)
(0 -0 -8.67254e-06)
(0 -0 -8.32434e-06)
(0 -0 -8.3192e-06)
(0 -0 -9.49321e-06)
(0 -0 -1.48922e-05)
(0 -0 -3.58302e-05)
(0 -0 -0.000114774)
(0 -0 -0.000412457)
(0 1.65489e-23 -0.00163306)
(0 -0 4.41955e-06)
(0 -0 4.95453e-06)
(0 -0 5.58891e-06)
(0 -0 5.31364e-06)
(0 -0 4.54527e-06)
(0 -0 3.63595e-06)
(0 -0 2.59296e-06)
(0 -0 1.43165e-06)
(0 -0 1.74308e-07)
(0 -0 -1.14887e-06)
(0 -0 -2.49998e-06)
(0 -0 -3.83486e-06)
(0 -0 -5.10609e-06)
(0 -0 -6.26752e-06)
(0 -0 -7.27836e-06)
(0 -0 -8.10709e-06)
(0 -0 -8.73384e-06)
(0 -0 -9.15159e-06)
(0 -0 -9.36573e-06)
(0 -0 -9.3925e-06)
(0 -0 -9.25654e-06)
(0 -0 -8.9882e-06)
(0 -0 -8.62096e-06)
(0 -0 -8.18915e-06)
(0 -0 -7.72852e-06)
(0 -0 -7.2822e-06)
(0 -0 -6.92871e-06)
(0 -0 -6.88655e-06)
(0 -0 -7.90099e-06)
(0 -0 -1.26809e-05)
(0 -0 -3.12683e-05)
(0 -0 -0.000101266)
(0 -0 -0.000364471)
(0 8.34409e-22 -0.0014367)
(0 -0 4.66666e-06)
(0 -0 5.32739e-06)
(0 -0 5.94212e-06)
(0 -0 5.66361e-06)
(0 -0 4.91627e-06)
(0 -0 4.04829e-06)
(0 -0 3.06074e-06)
(0 -0 1.96468e-06)
(0 -0 7.79177e-07)
(0 -0 -4.68363e-07)
(0 -0 -1.74254e-06)
(0 -0 -3.00153e-06)
(0 -0 -4.20019e-06)
(0 -0 -5.29414e-06)
(0 -0 -6.24412e-06)
(0 -0 -7.01954e-06)
(0 -0 -7.60117e-06)
(0 -0 -7.98215e-06)
(0 -0 -8.16766e-06)
(0 -0 -8.17325e-06)
(0 -0 -8.02279e-06)
(0 -0 -7.74559e-06)
(0 -0 -7.37379e-06)
(0 -0 -6.94067e-06)
(0 -0 -6.48043e-06)
(0 -0 -6.03354e-06)
(0 -0 -5.67174e-06)
(0 -0 -5.59074e-06)
(0 -0 -6.45415e-06)
(0 -0 -1.06675e-05)
(0 -0 -2.71287e-05)
(0 -0 -8.90712e-05)
(0 -0 -0.00032144)
(0 -1.53032e-21 -0.00126133)
(0 -0 4.94698e-06)
(0 -0 5.63057e-06)
(0 -0 6.26433e-06)
(0 -0 6.00507e-06)
(0 -0 5.28557e-06)
(0 -0 4.45769e-06)
(0 -0 3.52106e-06)
(0 -0 2.48456e-06)
(0 -0 1.36483e-06)
(0 -0 1.86731e-07)
(0 -0 -1.01681e-06)
(0 -0 -2.20631e-06)
(0 -0 -3.33888e-06)
(0 -0 -4.37197e-06)
(0 -0 -5.26779e-06)
(0 -0 -5.99674e-06)
(0 -0 -6.54017e-06)
(0 -0 -6.89127e-06)
(0 -0 -7.05498e-06)
(0 -0 -7.04619e-06)
(0 -0 -6.88779e-06)
(0 -0 -6.60795e-06)
(0 -0 -6.23756e-06)
(0 -0 -5.80853e-06)
(0 -0 -5.35333e-06)
(0 -0 -4.90999e-06)
(0 -0 -4.54381e-06)
(0 -0 -4.42987e-06)
(0 -0 -5.15797e-06)
(0 -0 -8.8599e-06)
(0 -0 -2.34024e-05)
(0 -0 -7.80912e-05)
(0 -0 -0.00028276)
(0 7.24517e-22 -0.00110476)
(0 -0 5.16075e-06)
(0 -0 5.88888e-06)
(0 -0 6.56565e-06)
(0 -0 6.34568e-06)
(0 -0 5.66764e-06)
(0 -0 4.88774e-06)
(0 -0 4.00604e-06)
(0 -0 3.03062e-06)
(0 -0 1.97659e-06)
(0 -0 8.66822e-07)
(0 -0 -2.679e-07)
(0 -0 -1.39037e-06)
(0 -0 -2.45969e-06)
(0 -0 -3.43521e-06)
(0 -0 -4.28048e-06)
(0 -0 -4.96704e-06)
(0 -0 -5.47673e-06)
(0 -0 -5.80287e-06)
(0 -0 -5.94999e-06)
(0 -0 -5.93242e-06)
(0 -0 -5.77198e-06)
(0 -0 -5.49563e-06)
(0 -0 -5.13294e-06)
(0 -0 -4.71431e-06)
(0 -0 -4.27054e-06)
(0 -0 -3.83714e-06)
(0 -0 -3.47346e-06)
(0 -0 -3.33578e-06)
(0 -0 -3.94698e-06)
(0 -0 -7.19133e-06)
(0 -0 -2.00052e-05)
(0 -0 -6.81584e-05)
(0 -0 -0.000247925)
(0 1.04911e-23 -0.000964729)
(0 -0 5.32741e-06)
(0 -0 6.10523e-06)
(0 -0 6.83572e-06)
(0 -0 6.66837e-06)
(0 -0 6.04443e-06)
(0 -0 5.32298e-06)
(0 -0 4.5044e-06)
(0 -0 3.59627e-06)
(0 -0 2.61252e-06)
(0 -0 1.5744e-06)
(0 -0 5.10789e-07)
(0 -0 -5.43177e-07)
(0 -0 -1.54853e-06)
(0 -0 -2.46644e-06)
(0 -0 -3.26184e-06)
(0 -0 -3.90725e-06)
(0 -0 -4.3851e-06)
(0 -0 -4.68886e-06)
(0 -0 -4.82265e-06)
(0 -0 -4.80007e-06)
(0 -0 -4.64192e-06)
(0 -0 -4.37387e-06)
(0 -0 -4.02404e-06)
(0 -0 -3.62129e-06)
(0 -0 -3.1947e-06)
(0 -0 -2.77723e-06)
(0 -0 -2.42263e-06)
(0 -0 -2.27007e-06)
(0 -0 -2.78162e-06)
(0 -0 -5.61736e-06)
(0 -0 -1.6873e-05)
(0 -0 -5.91319e-05)
(0 -0 -0.000216493)
(0 9.20321e-24 -0.00083938)
(0 -0 5.42913e-06)
(0 -0 6.26096e-06)
(0 -0 7.05228e-06)
(0 -0 6.94751e-06)
(0 -0 6.38879e-06)
(0 -0 5.73669e-06)
(0 -0 4.99124e-06)
(0 -0 4.1593e-06)
(0 -0 3.2536e-06)
(0 -0 2.29383e-06)
(0 -0 1.30694e-06)
(0 -0 3.26181e-07)
(0 -0 -6.11505e-07)
(0 -0 -1.4689e-06)
(0 -0 -2.21249e-06)
(0 -0 -2.81575e-06)
(0 -0 -3.2616e-06)
(0 -0 -3.54366e-06)
(0 -0 -3.66569e-06)
(0 -0 -3.64045e-06)
(0 -0 -3.48762e-06)
(0 -0 -3.23148e-06)
(0 -0 -2.89869e-06)
(0 -0 -2.51638e-06)
(0 -0 -2.11183e-06)
(0 -0 -1.71545e-06)
(0 -0 -1.37575e-06)
(0 -0 -1.21609e-06)
(0 -0 -1.64334e-06)
(0 -0 -4.11419e-06)
(0 -0 -1.39638e-05)
(0 -0 -5.09014e-05)
(0 -0 -0.000188084)
(0 -2.0618e-22 -0.00072707)
(0 -0 5.43707e-06)
(0 -0 6.32964e-06)
(0 -0 7.18962e-06)
(0 -0 7.15738e-06)
(0 -0 6.67508e-06)
(0 -0 6.10393e-06)
(0 -0 5.44306e-06)
(0 -0 4.69832e-06)
(0 -0 3.88097e-06)
(0 -0 3.009e-06)
(0 -0 2.10736e-06)
(0 -0 1.20731e-06)
(0 -0 3.43737e-07)
(0 -0 -4.47824e-07)
(0 -0 -1.1353e-06)
(0 -0 -1.69328e-06)
(0 -0 -2.10524e-06)
(0 -0 -2.36473e-06)
(0 -0 -2.47517e-06)
(0 -0 -2.44838e-06)
(0 -0 -2.30293e-06)
(0 -0 -2.0615e-06)
(0 -0 -1.74911e-06)
(0 -0 -1.39111e-06)
(0 -0 -1.01284e-06)
(0 -0 -6.42152e-07)
(0 -0 -3.22596e-07)
(0 -0 -1.62902e-07)
(0 -0 -5.19547e-07)
(0 -0 -2.66471e-06)
(0 -0 -1.12448e-05)
(0 -0 -4.33742e-05)
(0 -0 -0.000162368)
(0 3.8457e-22 -0.000626355)
(0 -0 5.31113e-06)
(0 -0 6.27414e-06)
(0 -0 7.21292e-06)
(0 -0 7.26485e-06)
(0 -0 6.87165e-06)
(0 -0 6.39444e-06)
(0 -0 5.83138e-06)
(0 -0 5.18683e-06)
(0 -0 4.47043e-06)
(0 -0 3.6981e-06)
(0 -0 2.89275e-06)
(0 -0 2.08336e-06)
(0 -0 1.30281e-06)
(0 -0 5.84654e-07)
(0 -0 -4.05248e-08)
(0 -0 -5.4831e-07)
(0 -0 -9.22811e-07)
(0 -0 -1.15756e-06)
(0 -0 -1.25547e-06)
(0 -0 -1.22744e-06)
(0 -0 -1.09056e-06)
(0 -0 -8.65998e-07)
(0 -0 -5.76847e-07)
(0 -0 -2.4657e-07)
(0 -0 1.01577e-07)
(0 -0 4.42314e-07)
(0 -0 7.3696e-07)
(0 -0 8.90194e-07)
(0 -0 5.91601e-07)
(0 -0 -1.26322e-06)
(0 -0 -8.69646e-06)
(0 -0 -3.64783e-05)
(0 -0 -0.000139064)
(0 -1.65893e-22 -0.000535975)
(0 -0 5.00082e-06)
(0 -0 6.04668e-06)
(0 -0 7.07705e-06)
(0 -0 7.22709e-06)
(0 -0 6.93773e-06)
(0 -0 6.56958e-06)
(0 -0 6.11955e-06)
(0 -0 5.59033e-06)
(0 -0 4.9896e-06)
(0 -0 4.33106e-06)
(0 -0 3.63527e-06)
(0 -0 2.92873e-06)
(0 -0 2.24212e-06)
(0 -0 1.60689e-06)
(0 -0 1.05203e-06)
(0 -0 6.00825e-07)
(0 -0 2.68628e-07)
(0 -0 6.18539e-08)
(0 -0 -2.16766e-08)
(0 -0 8.08592e-09)
(0 -0 1.35695e-07)
(0 -0 3.41703e-07)
(0 -0 6.05097e-07)
(0 -0 9.04473e-07)
(0 -0 1.21887e-06)
(0 -0 1.52563e-06)
(0 -0 1.79077e-06)
(0 -0 1.93141e-06)
(0 -0 1.67924e-06)
(0 -0 8.26075e-08)
(0 -0 -6.31463e-06)
(0 -0 -3.01631e-05)
(0 -0 -0.000117937)
(0 1.1551e-22 -0.000454836)
(0 -0 4.44723e-06)
(0 -0 5.59076e-06)
(0 -0 6.72787e-06)
(0 -0 6.99234e-06)
(0 -0 6.8238e-06)
(0 -0 6.58204e-06)
(0 -0 6.26237e-06)
(0 -0 5.86571e-06)
(0 -0 5.39749e-06)
(0 -0 4.86897e-06)
(0 -0 4.29799e-06)
(0 -0 3.70846e-06)
(0 -0 3.12847e-06)
(0 -0 2.58734e-06)
(0 -0 2.11228e-06)
(0 -0 1.72534e-06)
(0 -0 1.44131e-06)
(0 -0 1.26671e-06)
(0 -0 1.2e-06)
(0 -0 1.23256e-06)
(0 -0 1.35052e-06)
(0 -0 1.53654e-06)
(0 -0 1.7718e-06)
(0 -0 2.03725e-06)
(0 -0 2.31428e-06)
(0 -0 2.58307e-06)
(0 -0 2.81414e-06)
(0 -0 2.93628e-06)
(0 -0 2.71973e-06)
(0 -0 1.3518e-06)
(0 -0 -4.10989e-06)
(0 -0 -2.43987e-05)
(0 -0 -9.87969e-05)
(0 -2.77183e-23 -0.000381988)
(0 -0 3.58663e-06)
(0 -0 4.84467e-06)
(0 -0 6.10564e-06)
(0 -0 6.5028e-06)
(0 -0 6.4741e-06)
(0 -0 6.37794e-06)
(0 -0 6.20794e-06)
(0 -0 5.96298e-06)
(0 -0 5.64597e-06)
(0 -0 5.26544e-06)
(0 -0 4.83625e-06)
(0 -0 4.37943e-06)
(0 -0 3.9203e-06)
(0 -0 3.48576e-06)
(0 -0 3.10109e-06)
(0 -0 2.7871e-06)
(0 -0 2.55793e-06)
(0 -0 2.42035e-06)
(0 -0 2.37343e-06)
(0 -0 2.41011e-06)
(0 -0 2.51826e-06)
(0 -0 2.68299e-06)
(0 -0 2.88779e-06)
(0 -0 3.11622e-06)
(0 -0 3.35225e-06)
(0 -0 3.57899e-06)
(0 -0 3.77143e-06)
(0 -0 3.86925e-06)
(0 -0 3.67799e-06)
(0 -0 2.51159e-06)
(0 -0 -2.10604e-06)
(0 -0 -1.91733e-05)
(0 -0 -8.14873e-05)
(0 -2.32813e-23 -0.000316607)
(0 -0 2.35589e-06)
(0 -0 3.74638e-06)
(0 -0 5.14974e-06)
(0 -0 5.69927e-06)
(0 -0 5.83086e-06)
(0 -0 5.90098e-06)
(0 -0 5.90146e-06)
(0 -0 5.82877e-06)
(0 -0 5.6831e-06)
(0 -0 5.46985e-06)
(0 -0 5.20075e-06)
(0 -0 4.89353e-06)
(0 -0 4.57052e-06)
(0 -0 4.25601e-06)
(0 -0 3.97318e-06)
(0 -0 3.74149e-06)
(0 -0 3.57452e-06)
(0 -0 3.47906e-06)
(0 -0 3.45522e-06)
(0 -0 3.49749e-06)
(0 -0 3.59589e-06)
(0 -0 3.73794e-06)
(0 -0 3.9099e-06)
(0 -0 4.0981e-06)
(0 -0 4.28939e-06)
(0 -0 4.46991e-06)
(0 -0 4.61907e-06)
(0 -0 4.68675e-06)
(0 -0 4.51086e-06)
(0 -0 3.52061e-06)
(0 -0 -3.36708e-07)
(0 -0 -1.44894e-05)
(0 -0 -6.58859e-05)
(0 -5.35963e-23 -0.000257979)
(0 -0 6.98637e-07)
(0 -0 2.23992e-06)
(0 -0 3.80477e-06)
(0 -0 4.52705e-06)
(0 -0 4.84011e-06)
(0 -0 5.09804e-06)
(0 -0 5.29056e-06)
(0 -0 5.41151e-06)
(0 -0 5.45804e-06)
(0 -0 5.43215e-06)
(0 -0 5.34207e-06)
(0 -0 5.20201e-06)
(0 -0 5.03098e-06)
(0 -0 4.85042e-06)
(0 -0 4.68135e-06)
(0 -0 4.54167e-06)
(0 -0 4.44439e-06)
(0 -0 4.39645e-06)
(0 -0 4.39912e-06)
(0 -0 4.44847e-06)
(0 -0 4.53708e-06)
(0 -0 4.65503e-06)
(0 -0 4.79165e-06)
(0 -0 4.93635e-06)
(0 -0 5.07899e-06)
(0 -0 5.20896e-06)
(0 -0 5.3101e-06)
(0 -0 5.34179e-06)
(0 -0 5.1717e-06)
(0 -0 4.33377e-06)
(0 -0 1.15925e-06)
(0 -0 -1.03599e-05)
(0 -0 -5.18972e-05)
(0 -2.30416e-24 -0.000205492)
(0 -0 -1.42803e-06)
(0 -0 2.81942e-07)
(0 -0 2.02715e-06)
(0 -0 2.94249e-06)
(0 -0 3.45813e-06)
(0 -0 3.92532e-06)
(0 -0 4.33141e-06)
(0 -0 4.66733e-06)
(0 -0 4.92689e-06)
(0 -0 5.10845e-06)
(0 -0 5.21629e-06)
(0 -0 5.2609e-06)
(0 -0 5.25772e-06)
(0 -0 5.22509e-06)
(0 -0 5.18165e-06)
(0 -0 5.14371e-06)
(0 -0 5.12359e-06)
(0 -0 5.12857e-06)
(0 -0 5.16103e-06)
(0 -0 5.21901e-06)
(0 -0 5.29762e-06)
(0 -0 5.38999e-06)
(0 -0 5.48873e-06)
(0 -0 5.58653e-06)
(0 -0 5.67658e-06)
(0 -0 5.75162e-06)
(0 -0 5.79994e-06)
(0 -0 5.78989e-06)
(0 -0 5.61623e-06)
(0 -0 4.9079e-06)
(0 -0 2.34328e-06)
(0 -0 -6.80289e-06)
(0 -0 -3.94496e-05)
(0 3.03508e-24 -0.000158626)
(0 -0 -4.04729e-06)
(0 -0 -2.15172e-06)
(0 -0 -2.08137e-07)
(0 -0 9.19582e-07)
(0 -0 1.6579e-06)
(0 -0 2.35475e-06)
(0 -0 2.99491e-06)
(0 -0 3.56614e-06)
(0 -0 4.05861e-06)
(0 -0 4.46678e-06)