/*--------------------------------*- C++ -*----------------------------------*\
| =========                 |                                                 |
| \\      /  F ield         | OpenFOAM: The Open Source CFD Toolbox           |
|  \\    /   O peration     | Version:  2412                                  |
|   \\  /    A nd           | Website:  www.openfoam.com                      |
|    \\/     M anipulation  |                                                 |
\*---------------------------------------------------------------------------*/
FoamFile
{
    version     2.0;
    format      ascii;
    arch        "LSB;label=32;scalar=64";
    class       volScalarField;
    location    "2.5";
    object      p;
}
// * * * * * * * * * * * * * * * * * * * * * * * * * * * * * * * * * * * * * //

dimensions      [0 2 -2 0 0 0 0];

internalField   nonuniform List<scalar> 
63420
(
0.00119266
0.00177943
0.00116242
0.00152311
0.00140629
0.00140546
0.00142447
0.00142213
0.00142418
0.00142816
0.00143201
0.00143632
0.00144115
0.00144644
0.00145216
0.00145833
0.00146493
0.00147196
0.00147941
0.00148729
0.00149558
0.00150429
0.00151342
0.00152297
0.00153293
0.00154331
0.0015541
0.00156532
0.00157696
0.00158901
0.0016015
0.00161441
0.00162775
0.00164153
0.00165574
0.0016704
0.0016855
0.00170105
0.00171705
0.00173351
0.00175043
0.00176781
0.00178567
0.00180401
0.00182282
0.00184212
0.00186191
0.0018822
0.00190299
0.00192428
0.00194609
0.00196841
0.00199125
0.00201461
0.00203851
0.00119226
0.00177934
0.0011624
0.00152279
0.00140636
0.00140532
0.00142436
0.00142205
0.00142409
0.00142806
0.00143192
0.00143622
0.00144105
0.00144633
0.00145205
0.00145821
0.0014648
0.00147183
0.00147927
0.00148714
0.00149543
0.00150413
0.00151325
0.00152279
0.00153274
0.00154311
0.00155389
0.0015651
0.00157672
0.00158877
0.00160123
0.00161413
0.00162746
0.00164122
0.00165541
0.00167005
0.00168513
0.00170065
0.00171663
0.00173306
0.00174996
0.00176732
0.00178515
0.00180345
0.00182223
0.0018415
0.00186125
0.0018815
0.00190224
0.00192349
0.00194525
0.00196752
0.0019903
0.00201361
0.00203744
0.00119143
0.00177918
0.00116237
0.00152214
0.00140651
0.00140503
0.00142415
0.00142189
0.0014239
0.00142787
0.00143172
0.00143602
0.00144084
0.00144611
0.00145182
0.00145797
0.00146455
0.00147156
0.001479
0.00148685
0.00149512
0.00150381
0.00151292
0.00152243
0.00153236
0.00154271
0.00155347
0.00156465
0.00157625
0.00158827
0.00160071
0.00161357
0.00162687
0.00164059
0.00165475
0.00166935
0.00168438
0.00169987
0.0017158
0.00173218
0.00174902
0.00176633
0.00178409
0.00180233
0.00182105
0.00184024
0.00185992
0.00188009
0.00190075
0.00192191
0.00194358
0.00196574
0.00198842
0.00201161
0.00203532
0.00119015
0.00177903
0.0011623
0.00152117
0.00140675
0.00140459
0.00142382
0.00142165
0.00142362
0.00142758
0.00143143
0.00143572
0.00144052
0.00144578
0.00145148
0.00145761
0.00146418
0.00147117
0.00147859
0.00148642
0.00149467
0.00150333
0.00151241
0.0015219
0.0015318
0.00154211
0.00155284
0.00156399
0.00157555
0.00158752
0.00159992
0.00161274
0.00162598
0.00163966
0.00165376
0.0016683
0.00168327
0.00169869
0.00171455
0.00173086
0.00174762
0.00176484
0.00178252
0.00180067
0.00181928
0.00183837
0.00185794
0.00187799
0.00189853
0.00191956
0.00194108
0.0019631
0.00198562
0.00200864
0.00203216
0.00118833
0.00177908
0.00116208
0.00151993
0.00140711
0.00140396
0.0014234
0.00142133
0.00142324
0.00142719
0.00143104
0.00143531
0.00144011
0.00144535
0.00145102
0.00145714
0.00146368
0.00147065
0.00147804
0.00148584
0.00149406
0.00150269
0.00151173
0.00152119
0.00153105
0.00154132
0.001552
0.0015631
0.00157461
0.00158653
0.00159887
0.00161163
0.00162481
0.00163841
0.00165244
0.0016669
0.00168179
0.00169712
0.00171289
0.0017291
0.00174576
0.00176287
0.00178043
0.00179845
0.00181694
0.00183589
0.00185531
0.0018752
0.00189558
0.00191643
0.00193776
0.00195959
0.0019819
0.00200469
0.00202798
0.00118602
0.00177935
0.00116178
0.00151832
0.00140763
0.00140314
0.00142287
0.00142094
0.00142277
0.00142671
0.00143055
0.00143481
0.00143958
0.0014448
0.00145046
0.00145654
0.00146306
0.00147
0.00147735
0.00148512
0.0014933
0.00150189
0.00151089
0.0015203
0.00153011
0.00154033
0.00155096
0.00156199
0.00157344
0.00158529
0.00159756
0.00161024
0.00162334
0.00163686
0.0016508
0.00166516
0.00167995
0.00169517
0.00171082
0.00172691
0.00174344
0.00176041
0.00177783
0.0017957
0.00181402
0.0018328
0.00185204
0.00187174
0.0018919
0.00191254
0.00193365
0.00195523
0.00197728
0.0019998
0.00202279
0.00118384
0.00177868
0.00116259
0.00151561
0.00140853
0.00140211
0.0014222
0.0014205
0.0014222
0.00142613
0.00142997
0.00143421
0.00143896
0.00144415
0.00144978
0.00145583
0.00146232
0.00146922
0.00147653
0.00148426
0.00149239
0.00150094
0.00150988
0.00151924
0.00152899
0.00153915
0.00154971
0.00156067
0.00157204
0.00158381
0.001596
0.00160859
0.00162159
0.001635
0.00164883
0.00166308
0.00167775
0.00169284
0.00170835
0.0017243
0.00174067
0.00175748
0.00177473
0.00179241
0.00181054
0.00182911
0.00184813
0.0018676
0.00188753
0.00190791
0.00192874
0.00195004
0.00197179
0.001994
0.00201664
0.00206302
0.00208839
0.00211486
0.00214246
0.00217126
0.00220132
0.00223273
0.00226558
0.0023
0.00233609
0.00237398
0.00241377
0.0024557
0.00249988
0.00254638
0.00259542
0.0026472
0.0027019
0.00275976
0.00282102
0.00288596
0.00295488
0.00302813
0.00310608
0.00318917
0.00327785
0.00337267
0.00347422
0.00358314
0.00370021
0.00382625
0.00396223
0.00410922
0.00426845
0.00444131
0.00462936
0.00483436
0.00505825
0.00530318
0.00557138
0.00586502
0.00618592
0.00653483
0.00691044
0.00730803
0.00771793
0.00812319
0.00851458
0.00896933
0.00961609
0.00206192
0.00208729
0.00211376
0.00214137
0.00217019
0.00220025
0.00223167
0.00226455
0.00229899
0.00233508
0.0023729
0.00241249
0.00245474
0.00249889
0.00254537
0.0025944
0.00264616
0.00270084
0.00275866
0.00281989
0.00288478
0.00295364
0.00302682
0.00310468
0.00318765
0.00327619
0.00337082
0.00347213
0.00358077
0.00369745
0.00382302
0.00395838
0.00410459
0.00426281
0.00443436
0.0046207
0.00482347
0.00504443
0.00528548
0.00554852
0.00583528
0.00614696
0.00648348
0.00684236
0.00721728
0.00759653
0.00796165
0.00830194
0.00868936
0.00924468
0.00205973
0.00208508
0.00211155
0.00213919
0.00216801
0.00219807
0.00222952
0.00226242
0.00229692
0.002333
0.00237082
0.00241119
0.00245287
0.00249688
0.00254335
0.00259236
0.00264408
0.00269872
0.00275649
0.00281764
0.00288244
0.00295119
0.00302423
0.00310191
0.00318466
0.00327292
0.00336719
0.00346805
0.0035761
0.00369206
0.00381669
0.00395085
0.00409553
0.00425177
0.00442075
0.00460375
0.00480214
0.00501734
0.00525074
0.00550359
0.00577672
0.00607005
0.00638179
0.00670707
0.00703626
0.00735357
0.0076377
0.00787554
0.00812311
0.00851304
0.00205649
0.00208189
0.00210834
0.00213593
0.00216471
0.00219468
0.00222619
0.00225906
0.00229364
0.00233003
0.00236824
0.00240791
0.0024497
0.0024938
0.00254026
0.00258924
0.00264091
0.00269548
0.00275316
0.0028142
0.00287887
0.00294745
0.00302027
0.00309768
0.00318009
0.00326792
0.00336165
0.00346181
0.00356899
0.00368384
0.00380705
0.00393941
0.00408177
0.00423504
0.00440017
0.00457816
0.00477001
0.0049766
0.00519863
0.00543636
0.00568926
0.00595537
0.00623031
0.00650556
0.00676648
0.00699091
0.00715318
0.0072417
0.00729501
0.00739673
0.00205216
0.00207754
0.002104
0.00213163
0.00216053
0.00219083
0.00222233
0.0022554
0.00228989
0.00232599
0.00236391
0.00240374
0.00244567
0.0024898
0.00253626
0.00258521
0.00263683
0.00269133
0.00274892
0.00280985
0.00287436
0.00294274
0.00301531
0.00309239
0.00317437
0.00326166
0.0033547
0.00345398
0.00356003
0.00367343
0.0037948
0.00392479
0.0040641
0.00421342
0.00437344
0.00454478
0.0047279
0.004923
0.00512982
0.0053473
0.00557312
0.00580284
0.00602855
0.00623697
0.00640683
0.00650753
0.00650648
0.00639594
0.00620646
0.00587054
0.0020468
0.00207217
0.00209863
0.00212625
0.00215513
0.00218538
0.002217
0.0022501
0.00228472
0.00232103
0.00235915
0.00239919
0.00244125
0.00248547
0.00253201
0.00258104
0.00263274
0.00268732
0.00274498
0.00280595
0.0028705
0.0029389
0.00301145
0.00308847
0.00317032
0.00325738
0.00335007
0.00344884
0.00355417
0.00366656
0.00378654
0.00391465
0.00405139
0.00419725
0.00435257
0.00451752
0.00469194
0.00487512
0.00506545
0.00525995
0.00545343
0.00563722
0.00579737
0.00591229
0.00595023
0.00586868
0.00562621
0.0052169
0.00467171
0.00375418
0.00204042
0.00206572
0.00209211
0.00211965
0.00214846
0.00217862
0.00221023
0.00224334
0.00227803
0.00231443
0.0023526
0.00239266
0.00243471
0.00247892
0.00252544
0.00257444
0.0026261
0.00268063
0.00273823
0.00279914
0.0028636
0.00293188
0.00300427
0.00308109
0.00316267
0.00324937
0.00334158
0.0034397
0.00354416
0.00365541
0.00377389
0.00389999
0.00403407
0.00417636
0.00432687
0.00448533
0.00465089
0.00482184
0.00499508
0.00516521
0.00532324
0.00545447
0.00553582
0.005533
0.00539929
0.00507791
0.00451813
0.00372704
0.00269518
0.00106953
-0.00323421
-0.0031507
-0.00295074
-0.00265474
-0.00229378
-0.00190697
-0.00153323
-0.00120278
-0.000932198
-0.000724917
-0.000575201
-0.000472805
-0.000406534
-0.000366295
-0.000343926
-0.000333276
-0.000329938
-0.000330872
-0.000334047
-0.00033815
-0.000342358
-0.000346178
-0.00034934
-0.000351715
-0.000353258
-0.000353977
-0.000353916
-0.000353135
-0.0003517
-0.000349679
-0.000347141
-0.00034415
-0.000340764
-0.00033704
-0.000333028
-0.000328771
-0.000324311
-0.000319683
-0.000314919
-0.000310047
-0.000305093
-0.000300077
-0.00029502
-0.000289939
-0.000284849
-0.000279764
-0.000274696
-0.000269657
-0.000264657
-0.000259711
-0.00344305
-0.0032922
-0.00306604
-0.00275809
-0.00239034
-0.00199845
-0.00161888
-0.00128097
-0.00100168
-0.000785219
-0.000626583
-0.000516012
-0.000442553
-0.000396175
-0.000368661
-0.000353756
-0.000346925
-0.000345002
-0.000345845
-0.000348041
-0.000350687
-0.000353224
-0.000355327
-0.000356823
-0.000357635
-0.000357742
-0.000357166
-0.000355949
-0.000354143
-0.000351806
-0.000348995
-0.000345769
-0.00034218
-0.000338279
-0.000334111
-0.000329718
-0.000325137
-0.000320402
-0.000315543
-0.000310587
-0.000305556
-0.000300472
-0.000295354
-0.000290217
-0.000285077
-0.000279947
-0.000274839
-0.000269763
-0.000264732
-0.000259758
-0.00383748
-0.00355257
-0.00328256
-0.00295189
-0.00257141
-0.00217081
-0.00178145
-0.00143067
-0.00113583
-0.000902542
-0.000727197
-0.000601065
-0.00051376
-0.000455443
-0.000417856
-0.000394571
-0.000380828
-0.000373234
-0.000369431
-0.000367822
-0.000367346
-0.000367314
-0.000367293
-0.000367029
-0.000366374
-0.000365255
-0.000363647
-0.000361557
-0.000359009
-0.000356038
-0.000352684
-0.000348988
-0.000344993
-0.000340737
-0.00033626
-0.000331595
-0.000326774
-0.000321827
-0.000316779
-0.000311654
-0.000306472
-0.000301253
-0.000296012
-0.000290766
-0.000285527
-0.000280308
-0.000275119
-0.000269972
-0.000264878
-0.00025985
-0.00434666
-0.00392394
-0.00358492
-0.00321892
-0.00281979
-0.00240747
-0.00200598
-0.00163928
-0.0013246
-0.00106908
-0.000871044
-0.000723329
-0.000616527
-0.000541228
-0.000489212
-0.000453865
-0.000430143
-0.000414339
-0.000403799
-0.000396663
-0.000391646
-0.000387872
-0.00038476
-0.000381929
-0.000379133
-0.000376222
-0.000373107
-0.000369743
-0.000366111
-0.000362214
-0.000358066
-0.000353685
-0.000349096
-0.000344324
-0.000339394
-0.000334332
-0.000329161
-0.000323903
-0.000318579
-0.000313207
-0.000307805
-0.000302388
-0.00029697
-0.000291563
-0.000286179
-0.000280829
-0.000275523
-0.000270272
-0.000265084
-0.000259975
-0.00492244
-0.00437477
-0.00394733
-0.00353133
-0.00310654
-0.00268081
-0.00226845
-0.00188787
-0.00155452
-0.00127627
-0.00105337
-0.000880672
-0.000750328
-0.000653854
-0.000583418
-0.000532413
-0.000495584
-0.000468914
-0.000449416
-0.000434914
-0.00042384
-0.000415082
-0.000407852
-0.000401607
-0.000395972
-0.000390685
-0.000385575
-0.000380525
-0.000375462
-0.000370344
-0.000365148
-0.000359865
-0.000354494
-0.000349041
-0.000343515
-0.00033793
-0.000332297
-0.00032663
-0.000320942
-0.000315245
-0.000309552
-0.000303874
-0.00029822
-0.000292601
-0.000287026
-0.000281503
-0.000276041
-0.000270649
-0.000265336
-0.000260117
-0.00531298
-0.00476012
-0.00427589
-0.00382005
-0.00338004
-0.00295375
-0.00254507
-0.00216526
-0.0018259
-0.00153396
-0.00129097
-0.00109412
-0.000937961
-0.000815972
-0.000721677
-0.000649239
-0.000593708
-0.00055106
-0.000518111
-0.000492395
-0.000472032
-0.0004556
-0.00044204
-0.000430563
-0.000420589
-0.000411695
-0.000403572
-0.000395993
-0.000388797
-0.000381872
-0.000375136
-0.000368532
-0.000362024
-0.000355587
-0.000349205
-0.00034287
-0.000336581
-0.000330335
-0.000324135
-0.000317985
-0.000311888
-0.000305848
-0.00029987
-0.00029396
-0.000288123
-0.000282365
-0.000276691
-0.00027111
-0.000265628
-0.000260261
-0.00543378
-0.00512673
-0.00466977
-0.00418361
-0.00371969
-0.00327879
-0.00285984
-0.00247045
-0.00211928
-0.00181162
-0.00154881
-0.00132899
-0.00114802
-0.00100078
-0.000882036
-0.00078684
-0.000710791
-0.000650098
-0.000601576
-0.000562611
-0.000531084
-0.000505312
-0.000483961
-0.000465997
-0.00045062
-0.000437216
-0.000425318
-0.000414573
-0.000404711
-0.000395531
-0.000386881
-0.000378645
-0.000370739
-0.000363098
-0.000355678
-0.000348443
-0.000341371
-0.000334442
-0.000327645
-0.00032097
-0.00031441
-0.000307962
-0.000301622
-0.000295391
-0.000289267
-0.000283253
-0.000277351
-0.000271564
-0.000265898
-0.000260363
-0.000254816
-0.000249921
-0.000244992
-0.000240036
-0.000235052
-0.000230038
-0.000224988
-0.000219906
-0.000214795
-0.000209667
-0.000204529
-0.000199391
-0.000194261
-0.000189148
-0.000184056
-0.000178993
-0.000173962
-0.000168968
-0.000164015
-0.000159107
-0.000154246
-0.000149438
-0.000144684
-0.000139988
-0.000135352
-0.00013078
-0.000126273
-0.000121835
-0.000117467
-0.000113172
-0.000108952
-0.000104809
-0.000100744
-9.67593e-05
-9.28562e-05
-8.9036e-05
-8.53001e-05
-8.16494e-05
-7.8085e-05
-7.46077e-05
-7.1218e-05
-6.79169e-05
-6.47045e-05
-6.1581e-05
-5.85472e-05
-5.56027e-05
-5.27475e-05
-4.99814e-05
-4.73043e-05
-4.47157e-05
-4.22151e-05
-3.98019e-05
-3.74754e-05
-3.52347e-05
-3.3079e-05
-3.10072e-05
-2.90181e-05
-2.71106e-05
-2.52834e-05
-2.3535e-05
-2.18641e-05
-2.0269e-05
-1.87482e-05
-1.73e-05
-1.59227e-05
-1.46144e-05
-1.33733e-05
-1.21976e-05
-1.10851e-05
-1.00341e-05
-9.0422e-06
-8.10776e-06
-7.22834e-06
-6.40213e-06
-5.62662e-06
-4.90039e-06
-4.22022e-06
-3.58524e-06
-2.99209e-06
-2.43967e-06
-1.9249e-06
-1.44668e-06
-1.00138e-06
-5.8923e-07
-2.0493e-07
1.50366e-07
4.80822e-07
7.88627e-07
1.07382e-06
1.34161e-06
1.59161e-06
1.82684e-06
2.05083e-06
2.26329e-06
2.46951e-06
2.66999e-06
2.86827e-06
3.0675e-06
3.27045e-06
3.47964e-06
3.7039e-06
3.92804e-06
4.22924e-06
4.34692e-06
5.19288e-06
3.90999e-06
8.79062e-06
-1.91048e-06
2.27732e-05
-2.14322e-05
4.57631e-05
-2.42251e-05
6.72091e-06
6.77533e-05
-8.50686e-05
-0.000254852
-0.000249943
-0.000244999
-0.00024003
-0.000235034
-0.000230007
-0.000224946
-0.000219853
-0.000214736
-0.000209602
-0.000204461
-0.000199322
-0.000194192
-0.000189079
-0.000183988
-0.000178925
-0.000173895
-0.000168902
-0.00016395
-0.000159043
-0.000154184
-0.000149377
-0.000144624
-0.00013993
-0.000135295
-0.000130724
-0.000126219
-0.000121783
-0.000117417
-0.000113123
-0.000108905
-0.000104763
-0.0001007
-9.67171e-05
-9.28156e-05
-8.8997e-05
-8.52626e-05
-8.16135e-05
-7.80506e-05
-7.45748e-05
-7.11867e-05
-6.78869e-05
-6.46759e-05
-6.15538e-05
-5.85213e-05
-5.55781e-05
-5.27241e-05
-4.99593e-05
-4.72833e-05
-4.46959e-05
-4.21963e-05
-3.97842e-05
-3.74587e-05
-3.5219e-05
-3.30642e-05
-3.09932e-05
-2.9005e-05
-2.70983e-05
-2.52718e-05
-2.35242e-05
-2.1854e-05
-2.02596e-05
-1.87394e-05
-1.72918e-05
-1.5915e-05
-1.46073e-05
-1.33667e-05
-1.21915e-05
-1.10794e-05
-1.00289e-05
-9.03738e-06
-8.10333e-06
-7.22427e-06
-6.39839e-06
-5.6232e-06
-4.89724e-06
-4.21737e-06
-3.58261e-06
-2.98973e-06
-2.43751e-06
-1.92294e-06
-1.44493e-06
-9.99799e-07
-5.87797e-07
-2.03686e-07
1.51513e-07
4.81808e-07
7.89513e-07
1.07458e-06
1.34229e-06
1.59214e-06
1.82734e-06
2.05119e-06
2.26361e-06
2.46975e-06
2.67011e-06
2.8684e-06
3.06744e-06
3.27043e-06
3.4795e-06
3.70367e-06
3.92785e-06
4.22878e-06
4.34674e-06
5.19189e-06
3.91071e-06
8.78763e-06
-1.90702e-06
2.27678e-05
-2.14308e-05
4.57687e-05
-2.42405e-05
6.73274e-06
6.77612e-05
-8.50986e-05
-0.00025492
-0.000249979
-0.000245006
-0.000240012
-0.000234992
-0.000229941
-0.000224857
-0.000219746
-0.000214614
-0.000209471
-0.000204325
-0.000199183
-0.000194053
-0.000188941
-0.000183851
-0.00017879
-0.000173762
-0.000168771
-0.000163821
-0.000158916
-0.00015406
-0.000149255
-0.000144505
-0.000139813
-0.000135182
-0.000130614
-0.000126112
-0.000121679
-0.000117316
-0.000113026
-0.000108811
-0.000104672
-0.000100612
-9.66326e-05
-9.27343e-05
-8.8919e-05
-8.51877e-05
-8.15418e-05
-7.79819e-05
-7.45091e-05
-7.11239e-05
-6.7827e-05
-6.46188e-05
-6.14995e-05
-5.84696e-05
-5.55289e-05
-5.26775e-05
-4.9915e-05
-4.72414e-05
-4.46562e-05
-4.21588e-05
-3.97487e-05
-3.74252e-05
-3.51874e-05
-3.30345e-05
-3.09653e-05
-2.89788e-05
-2.70737e-05
-2.52487e-05
-2.35026e-05
-2.18338e-05
-2.02407e-05
-1.87218e-05
-1.72754e-05
-1.58998e-05
-1.45931e-05
-1.33536e-05
-1.21793e-05
-1.10681e-05
-1.00184e-05
-9.02776e-06
-8.09447e-06
-7.21611e-06
-6.3909e-06
-5.61635e-06
-4.89094e-06
-4.21168e-06
-3.57737e-06
-2.98501e-06
-2.43321e-06
-1.91904e-06
-1.44143e-06
-9.96643e-07
-5.84943e-07
-2.01184e-07
1.53785e-07
4.83786e-07
7.9127e-07
1.07609e-06
1.34363e-06
1.59324e-06
1.82831e-06
2.05194e-06
2.26422e-06
2.47021e-06
2.67037e-06
2.86861e-06
3.0674e-06
3.27032e-06
3.47924e-06
3.70323e-06
3.92739e-06
4.22793e-06
4.34635e-06
5.18993e-06
3.91205e-06
8.7816e-06
-1.90014e-06
2.27571e-05
-2.14282e-05
4.57798e-05
-2.42711e-05
6.75645e-06
6.77767e-05
-8.51584e-05
-0.000255001
-0.000250014
-0.000244999
-0.000239968
-0.000234913
-0.000229828
-0.000224715
-0.000219579
-0.000214429
-0.000209274
-0.000204121
-0.000198976
-0.000193845
-0.000188734
-0.000183646
-0.000178587
-0.000173562
-0.000168574
-0.000163627
-0.000158726
-0.000153873
-0.000149072
-0.000144326
-0.000139639
-0.000135012
-0.000130449
-0.000125951
-0.000121523
-0.000117165
-0.00011288
-0.000108669
-0.000104536
-0.000100481
-9.65059e-05
-9.26125e-05
-8.88019e-05
-8.50754e-05
-8.14341e-05
-7.78789e-05
-7.44106e-05
-7.10297e-05
-6.77372e-05
-6.45332e-05
-6.14179e-05
-5.8392e-05
-5.54552e-05
-5.26074e-05
-4.98486e-05
-4.71784e-05
-4.45966e-05
-4.21025e-05
-3.96956e-05
-3.73751e-05
-3.51401e-05
-3.29899e-05
-3.09234e-05
-2.89394e-05
-2.70368e-05
-2.52141e-05
-2.34702e-05
-2.18035e-05
-2.02124e-05
-1.86954e-05
-1.72508e-05
-1.58769e-05
-1.45719e-05
-1.33338e-05
-1.2161e-05
-1.10512e-05
-1.00028e-05
-9.01333e-06
-8.08117e-06
-7.20389e-06
-6.37967e-06
-5.60609e-06
-4.88151e-06
-4.20313e-06
-3.56951e-06
-2.97792e-06
-2.42675e-06
-1.9132e-06
-1.43617e-06
-9.91916e-07
-5.8067e-07
-1.97426e-07
1.57182e-07
4.86754e-07
7.93898e-07
1.07837e-06
1.34561e-06
1.5949e-06
1.82975e-06
2.05307e-06
2.26512e-06
2.4709e-06
2.67076e-06
2.86888e-06
3.06736e-06
3.27015e-06
3.47884e-06
3.70257e-06
3.92669e-06
4.22667e-06
4.34574e-06
5.187e-06
3.91403e-06
8.77261e-06
-1.88993e-06
2.27413e-05
-2.14247e-05
4.57972e-05
-2.4318e-05
6.79239e-06
6.78006e-05
-8.5249e-05
-0.00025507
-0.000250026
-0.000244959
-0.000239882
-0.000234784
-0.000229659
-0.000224511
-0.000219347
-0.000214177
-0.000209009
-0.000203849
-0.000198701
-0.000193569
-0.000188459
-0.000183373
-0.000178317
-0.000173295
-0.000168311
-0.000163369
-0.000158472
-0.000153624
-0.000148828
-0.000144088
-0.000139406
-0.000134785
-0.000130228
-0.000125737
-0.000121314
-0.000116963
-0.000112684
-0.000108481
-0.000104354
-0.000100305
-9.63369e-05
-9.245e-05
-8.86459e-05
-8.49257e-05
-8.12906e-05
-7.77415e-05
-7.42792e-05
-7.09043e-05
-6.76175e-05
-6.4419e-05
-6.13092e-05
-5.82886e-05
-5.53569e-05
-5.25141e-05
-4.97601e-05
-4.70946e-05
-4.45172e-05
-4.20274e-05
-3.96247e-05
-3.73082e-05
-3.50771e-05
-3.29306e-05
-3.08676e-05
-2.8887e-05
-2.69875e-05
-2.5168e-05
-2.3427e-05
-2.17631e-05
-2.01747e-05
-1.86602e-05
-1.7218e-05
-1.58464e-05
-1.45435e-05
-1.33075e-05
-1.21366e-05
-1.10286e-05
-9.98195e-06
-8.9941e-06
-8.06345e-06
-7.18761e-06
-6.3647e-06
-5.59241e-06
-4.86894e-06
-4.19172e-06
-3.55905e-06
-2.96846e-06
-2.41814e-06
-1.90542e-06
-1.42915e-06
-9.85617e-07
-5.7498e-07
-1.92411e-07
1.61703e-07
4.9071e-07
7.97395e-07
1.08141e-06
1.34825e-06
1.59712e-06
1.83164e-06
2.05458e-06
2.26632e-06
2.4718e-06
2.67131e-06
2.86923e-06
3.06732e-06
3.26991e-06
3.47831e-06
3.70169e-06
3.92573e-06
4.22502e-06
4.34489e-06
5.18314e-06
3.91661e-06
8.76079e-06
-1.87677e-06
2.27212e-05
-2.1422e-05
4.58233e-05
-2.43836e-05
6.84114e-06
6.78358e-05
-8.53744e-05
-0.000255098
-0.000249992
-0.000244869
-0.000239739
-0.000234591
-0.000229423
-0.000224238
-0.000219046
-0.000213856
-0.000208675
-0.000203508
-0.000198357
-0.000193225
-0.000188116
-0.000183033
-0.00017798
-0.000172962
-0.000167983
-0.000163045
-0.000158154
-0.000153312
-0.000148523
-0.00014379
-0.000139115
-0.000134501
-0.000129952
-0.000125469
-0.000121054
-0.000116711
-0.00011244
-0.000108245
-0.000104126
-0.000100086
-9.61259e-05
-9.22471e-05
-8.84509e-05
-8.47387e-05
-8.11114e-05
-7.75699e-05
-7.41151e-05
-7.07475e-05
-6.74679e-05
-6.42764e-05
-6.11734e-05
-5.81594e-05
-5.52341e-05
-5.23975e-05
-4.96495e-05
-4.69898e-05
-4.44181e-05
-4.19337e-05
-3.95361e-05
-3.72246e-05
-3.49984e-05
-3.28564e-05
-3.07978e-05
-2.88215e-05
-2.69261e-05
-2.51104e-05
-2.3373e-05
-2.17126e-05
-2.01275e-05
-1.86163e-05
-1.71771e-05
-1.58083e-05
-1.45081e-05
-1.32747e-05
-1.21062e-05
-1.10005e-05
-9.95591e-06
-8.97008e-06
-8.04132e-06
-7.16727e-06
-6.346e-06
-5.57531e-06
-4.85325e-06
-4.17747e-06
-3.54599e-06
-2.95665e-06
-2.40739e-06
-1.89571e-06
-1.42038e-06
-9.77749e-07
-5.67878e-07
-1.8614e-07
1.67343e-07
4.95653e-07
8.01758e-07
1.0852e-06
1.35153e-06
1.59989e-06
1.834e-06
2.05647e-06
2.26781e-06
2.47293e-06
2.67199e-06
2.86966e-06
3.06728e-06
3.2696e-06
3.47765e-06
3.70061e-06
3.92453e-06
4.22296e-06
4.34383e-06
5.1783e-06
3.91986e-06
8.74596e-06
-1.86021e-06
2.26961e-05
-2.14188e-05
4.58568e-05
-2.44665e-05
6.90288e-06
6.78806e-05
-8.55288e-05
-0.000255061
-0.000249894
-0.000244716
-0.000239531
-0.000234332
-0.000229119
-0.000223899
-0.00021868
-0.00021347
-0.000208277
-0.000203102
-0.000197947
-0.000192814
-0.000187706
-0.000182625
-0.000177576
-0.000172563
-0.000167589
-0.000162658
-0.000157773
-0.000152939
-0.000148157
-0.000143432
-0.000138766
-0.000134161
-0.000129621
-0.000125147
-0.000120742
-0.000116408
-0.000112148
-0.000107962
-0.000103854
-9.98232e-05
-9.58728e-05
-9.20037e-05
-8.82172e-05
-8.45144e-05
-8.08965e-05
-7.73642e-05
-7.39184e-05
-7.05596e-05
-6.72885e-05
-6.41054e-05
-6.10106e-05
-5.80045e-05
-5.50869e-05
-5.22578e-05
-4.9517e-05
-4.68642e-05
-4.42992e-05
-4.18213e-05
-3.943e-05
-3.71244e-05
-3.4904e-05
-3.27675e-05
-3.07142e-05
-2.87429e-05
-2.68523e-05
-2.50413e-05
-2.33084e-05
-2.16521e-05
-2.0071e-05
-1.85636e-05
-1.7128e-05
-1.57626e-05
-1.44657e-05
-1.32353e-05
-1.20697e-05
-1.09667e-05
-9.92469e-06
-8.94129e-06
-8.01478e-06
-7.14288e-06
-6.32359e-06
-5.55481e-06
-4.83444e-06
-4.16037e-06
-3.53034e-06
-2.94248e-06
-2.3945e-06
-1.88407e-06
-1.40986e-06
-9.68316e-07
-5.59365e-07
-1.78617e-07
1.74101e-07
5.01582e-07
8.06986e-07
1.08975e-06
1.35546e-06
1.60321e-06
1.83682e-06
2.05873e-06
2.2696e-06
2.47428e-06
2.67282e-06
2.87016e-06
3.06725e-06
3.26923e-06
3.47685e-06
3.69931e-06
3.92307e-06
4.22047e-06
4.34264e-06
5.17222e-06
3.92459e-06
8.72596e-06
-1.83524e-06
2.26555e-05
-2.13976e-05
4.58745e-05
-2.45474e-05
6.97748e-06
6.79058e-05
-8.56603e-05
-0.000254948
-0.000249722
-0.000244489
-0.00023925
-0.000234003
-0.00022875
-0.000223498
-0.000218253
-0.000213024
-0.000207815
-0.00020263
-0.000197467
-0.000192331
-0.000187221
-0.000182142
-0.000177096
-0.000172087
-0.000167119
-0.000162194
-0.000157318
-0.000152492
-0.00014772
-0.000143004
-0.000138348
-0.000133754
-0.000129225
-0.000124762
-0.000120369
-0.000116047
-0.000111798
-0.000107625
-0.000103528
-9.95092e-05
-9.55705e-05
-9.17131e-05
-8.79381e-05
-8.42467e-05
-8.06399e-05
-7.71185e-05
-7.36835e-05
-7.03352e-05
-6.70744e-05
-6.39013e-05
-6.08162e-05
-5.78196e-05
-5.49112e-05
-5.20909e-05
-4.93587e-05
-4.67143e-05
-4.41573e-05
-4.16871e-05
-3.93032e-05
-3.70049e-05
-3.47912e-05
-3.26614e-05
-3.06144e-05
-2.86491e-05
-2.67644e-05
-2.49588e-05
-2.32311e-05
-2.15799e-05
-2.00036e-05
-1.85007e-05
-1.70694e-05
-1.57081e-05
-1.4415e-05
-1.31883e-05
-1.20261e-05
-1.09264e-05
-9.88741e-06
-8.90692e-06
-7.98309e-06
-7.11377e-06
-6.29683e-06
-5.53034e-06
-4.81199e-06
-4.13994e-06
-3.51167e-06
-2.92555e-06
-2.37911e-06
-1.87016e-06
-1.39729e-06
-9.57054e-07
-5.49208e-07
-1.69629e-07
1.82163e-07
5.08662e-07
8.13223e-07
1.09519e-06
1.36015e-06
1.60719e-06
1.84017e-06
2.06144e-06
2.27173e-06
2.47589e-06
2.67381e-06
2.87074e-06
3.06721e-06
3.26877e-06
3.4759e-06
3.69776e-06
3.92134e-06
4.21747e-06
4.34132e-06
5.16453e-06
3.93151e-06
8.69854e-06
-1.79681e-06
2.25888e-05
-2.13401e-05
4.5851e-05
-2.46054e-05
7.06497e-06
6.78798e-05
-8.57158e-05
-0.000254782
-0.000249487
-0.00024419
-0.00023889
-0.000233589
-0.000228292
-0.000223005
-0.000217733
-0.000212484
-0.000207261
-0.000202065
-0.000196897
-0.000191758
-0.000186648
-0.000181571
-0.000176529
-0.000171526
-0.000166565
-0.000161649
-0.000156781
-0.000151966
-0.000147204
-0.000142501
-0.000137857
-0.000133276
-0.000128759
-0.00012431
-0.000119931
-0.000115622
-0.000111387
-0.000107228
-0.000103145
-9.91401e-05
-9.52152e-05
-9.13715e-05
-8.761e-05
-8.3932e-05
-8.03383e-05
-7.68299e-05
-7.34075e-05
-7.00715e-05
-6.68228e-05
-6.36615e-05
-6.05878e-05
-5.76023e-05
-5.47047e-05
-5.18949e-05
-4.91728e-05
-4.65382e-05
-4.39906e-05
-4.15295e-05
-3.91543e-05
-3.68644e-05
-3.46588e-05
-3.25368e-05
-3.04972e-05
-2.8539e-05
-2.6661e-05
-2.48619e-05
-2.31404e-05
-2.14951e-05
-1.99243e-05
-1.84267e-05
-1.70005e-05
-1.5644e-05
-1.43555e-05
-1.3133e-05
-1.19749e-05
-1.0879e-05
-9.84362e-06
-8.86653e-06
-7.94587e-06
-7.07956e-06
-6.26539e-06
-5.50157e-06
-4.78562e-06
-4.11593e-06
-3.48973e-06
-2.90566e-06
-2.36103e-06
-1.85383e-06
-1.38254e-06
-9.43818e-07
-5.3728e-07
-1.59062e-07
1.91631e-07
5.16982e-07
8.2055e-07
1.10157e-06
1.36566e-06
1.61186e-06
1.84411e-06
2.06462e-06
2.27423e-06
2.47778e-06
2.67498e-06
2.87142e-06
3.06718e-06
3.26822e-06
3.47478e-06
3.69596e-06
3.91924e-06
4.2141e-06
4.33929e-06
5.15684e-06
3.93611e-06
8.6746e-06
-1.76871e-06
2.25401e-05
-2.13144e-05
4.58668e-05
-2.46955e-05
7.15038e-06
6.79022e-05
-8.58537e-05
-0.000254554
-0.000249186
-0.000243821
-0.00023846
-0.000233106
-0.000227766
-0.000222444
-0.000217145
-0.000211875
-0.000206636
-0.000201429
-0.000196254
-0.000191111
-0.000186001
-0.000180925
-0.000175888
-0.000170891
-0.000165938
-0.000161031
-0.000156174
-0.00015137
-0.000146622
-0.000141931
-0.000137301
-0.000132734
-0.000128233
-0.000123799
-0.000119435
-0.000115142
-0.000110923
-0.000106779
-0.000102712
-9.87232e-05
-9.4814e-05
-9.09857e-05
-8.72396e-05
-8.35767e-05
-7.99979e-05
-7.6504e-05
-7.30959e-05
-6.97739e-05
-6.65388e-05
-6.33908e-05
-6.033e-05
-5.73571e-05
-5.44716e-05
-5.16736e-05
-4.8963e-05
-4.63393e-05
-4.38024e-05
-4.13516e-05
-3.89863e-05
-3.67058e-05
-3.45094e-05
-3.2396e-05
-3.03648e-05
-2.84146e-05
-2.65443e-05
-2.47525e-05
-2.3038e-05
-2.13993e-05
-1.98349e-05
-1.83433e-05
-1.69228e-05
-1.55717e-05
-1.42882e-05
-1.30706e-05
-1.19171e-05
-1.08255e-05
-9.79418e-06
-8.82094e-06
-7.90385e-06
-7.04095e-06
-6.2299e-06
-5.4691e-06
-4.75586e-06
-4.08882e-06
-3.46497e-06
-2.88319e-06
-2.34063e-06
-1.83539e-06
-1.36588e-06
-9.28873e-07
-5.23821e-07
-1.47126e-07
2.02312e-07
5.26376e-07
8.28822e-07
1.10877e-06
1.37187e-06
1.61714e-06
1.84854e-06
2.06822e-06
2.27704e-06
2.47991e-06
2.67631e-06
2.87217e-06
3.06716e-06
3.2676e-06
3.47352e-06
3.69394e-06
3.91683e-06
4.2104e-06
4.33665e-06
5.14909e-06
3.93891e-06
8.65284e-06
-1.74699e-06
2.25006e-05
-2.13027e-05
4.58952e-05
-2.47925e-05
7.23006e-06
6.7939e-05
-8.60133e-05
-0.000254255
-0.000248811
-0.000243379
-0.000237959
-0.000232555
-0.000227172
-0.000221816
-0.000216489
-0.000211197
-0.000205941
-0.000200721
-0.000195537
-0.000190389
-0.000185278
-0.000180205
-0.000175172
-0.000170182
-0.000165238
-0.000160341
-0.000155497
-0.000150705
-0.000145971
-0.000141295
-0.000136681
-0.00013213
-0.000127646
-0.000123229
-0.000118882
-0.000114607
-0.000110406
-0.000106279
-0.00010223
-9.82586e-05
-9.43669e-05
-9.05559e-05
-8.68269e-05
-8.31808e-05
-7.96186e-05
-7.6141e-05
-7.27488e-05
-6.94424e-05
-6.62225e-05
-6.30893e-05
-6.00429e-05
-5.7084e-05
-5.42121e-05
-5.14272e-05
-4.87293e-05
-4.61179e-05
-4.35928e-05
-4.11534e-05
-3.87991e-05
-3.65292e-05
-3.43429e-05
-3.22393e-05
-3.02174e-05
-2.82762e-05
-2.64143e-05
-2.46307e-05
-2.2924e-05
-2.12927e-05
-1.97353e-05
-1.82504e-05
-1.68362e-05
-1.54911e-05
-1.42134e-05
-1.30012e-05
-1.18527e-05
-1.07659e-05
-9.73913e-06
-8.77016e-06
-7.85705e-06
-6.99794e-06
-6.19039e-06
-5.43292e-06
-4.72272e-06
-4.05861e-06
-3.4374e-06
-2.85817e-06
-2.3179e-06
-1.81485e-06
-1.34732e-06
-9.12226e-07
-5.08837e-07
-1.33826e-07
2.14203e-07
5.36839e-07
8.38032e-07
1.1168e-06
1.37878e-06
1.62302e-06
1.85347e-06
2.07223e-06
2.28018e-06
2.48228e-06
2.67779e-06
2.873e-06
3.06714e-06
3.26691e-06
3.4721e-06
3.69169e-06
3.91411e-06
4.20635e-06
4.33349e-06
5.14101e-06
3.94074e-06
8.63106e-06
-1.72657e-06
2.24597e-05
-2.12875e-05
4.59127e-05
-2.48764e-05
7.3035e-06
6.79607e-05
-8.61412e-05
-0.000253872
-0.000248353
-0.000242855
-0.000237378
-0.000231926
-0.000226502
-0.000221112
-0.000215758
-0.000210443
-0.000205169
-0.000199936
-0.000194743
-0.00018959
-0.000184478
-0.000179407
-0.00017438
-0.000169398
-0.000164463
-0.000159579
-0.000154747
-0.000149971
-0.000145252
-0.000140593
-0.000135996
-0.000131464
-0.000126998
-0.0001226
-0.000118272
-0.000114017
-0.000109835
-0.000105728
-0.000101698
-9.77465e-05
-9.38741e-05
-9.00823e-05
-8.63722e-05
-8.27447e-05
-7.92008e-05
-7.57411e-05
-7.23664e-05
-6.90772e-05
-6.58741e-05
-6.27572e-05
-5.97267e-05
-5.67831e-05
-5.39262e-05
-5.11558e-05
-4.84718e-05
-4.5874e-05