/*--------------------------------*- C++ -*----------------------------------*\
| =========                 |                                                 |
| \\      /  F ield         | OpenFOAM: The Open Source CFD Toolbox           |
|  \\    /   O peration     | Version:  2412                                  |
|   \\  /    A nd           | Website:  www.openfoam.com                      |
|    \\/     M anipulation  |                                                 |
\*---------------------------------------------------------------------------*/
FoamFile
{
    version     2.0;
    format      ascii;
    arch        "LSB;label=32;scalar=64";
    class       surfaceScalarField;
    location    "2.5";
    object      phi;
}
// * * * * * * * * * * * * * * * * * * * * * * * * * * * * * * * * * * * * * //

dimensions      [0 3 -1 0 0 0 0];

oriented        oriented;

internalField   nonuniform List<scalar> 
126304
(
0.00504677
3.99184e-06
-3.85582e-09
0.00503256
1.42155e-05
-9.88359e-09
0.00502587
6.70494e-06
-8.6568e-09
0.00502224
3.63174e-06
-1.27148e-09
0.00502244
-2.11328e-07
3.62762e-09
0.00502314
-7.05427e-07
6.24238e-09
0.00502334
-2.05899e-07
6.92807e-09
0.00502302
3.19381e-07
7.18317e-09
0.00502223
7.75793e-07
7.14084e-09
0.00502112
1.10264e-06
6.87087e-09
0.00501979
1.32407e-06
6.62585e-09
0.00501831
1.48035e-06
6.48325e-09
0.0050167
1.59715e-06
6.42967e-09
0.00501501
1.69055e-06
6.40721e-09
0.00501323
1.7707e-06
6.3968e-09
0.00501138
1.84386e-06
6.37577e-09
0.00500946
1.91396e-06
6.24929e-09
0.00500747
1.98331e-06
6.08755e-09
0.00500541
2.05339e-06
6.00047e-09
0.00500328
2.12525e-06
5.92753e-09
0.00500107
2.19959e-06
5.79492e-09
0.00499879
2.27683e-06
5.57384e-09
0.00499643
2.35713e-06
5.35097e-09
0.00499398
2.44067e-06
5.14675e-09
0.00499145
2.5276e-06
4.97238e-09
0.00498883
2.61806e-06
4.78851e-09
0.00498611
2.71213e-06
4.57442e-09
0.0049833
2.80993e-06
4.32966e-09
0.00498038
2.91153e-06
4.05527e-09
0.00497736
3.01704e-06
3.76735e-09
0.00497423
3.12655e-06
3.47751e-09
0.00497099
3.24017e-06
3.20533e-09
0.00496762
3.35805e-06
2.95169e-09
0.00496414
3.48037e-06
2.70368e-09
0.00496053
3.60737e-06
2.44226e-09
0.00495679
3.73928e-06
2.15885e-09
0.00495291
3.8764e-06
1.8593e-09
0.00494889
4.01909e-06
1.53681e-09
0.00494472
4.16773e-06
1.19452e-09
0.0049404
4.32283e-06
8.35145e-10
0.00493591
4.48498e-06
4.75619e-10
0.00493126
4.65492e-06
1.26441e-10
0.00492643
4.83357e-06
-2.1539e-10
0.0049214
5.02206e-06
-5.61522e-10
0.00491618
5.22179e-06
-9.26548e-10
0.00491075
5.4345e-06
-1.30987e-09
0.00490509
5.66236e-06
-1.69772e-09
0.00489918
5.90818e-06
-2.06651e-09
0.00489301
6.17562e-06
-2.39467e-09
0.00488654
6.46941e-06
-2.66684e-09
0.00487975
6.79521e-06
-2.87762e-09
0.0048726
7.15744e-06
-3.02874e-09
0.00486505
7.55215e-06
-3.12705e-09
0.0048571
7.95339e-06
-3.17929e-09
8.29998e-06
0.0048488
-3.19283e-09
0.00504679
7.96138e-06
0.00503264
2.83679e-05
0.00502618
1.31641e-05
0.00502252
7.28532e-06
0.0050227
-3.84508e-07
0.00502332
-1.33353e-06
0.00502346
-3.39757e-07
0.00502309
6.89994e-07
0.00502228
1.58758e-06
0.00502115
2.23024e-06
0.00501981
2.66565e-06
0.00501831
2.97355e-06
0.00501671
3.20429e-06
0.00501501
3.38927e-06
0.00501323
3.54838e-06
0.00501138
3.69389e-06
0.00500946
3.83339e-06
0.00500747
3.97152e-06
0.00500541
4.11128e-06
0.00500328
4.25467e-06
0.00500108
4.40299e-06
0.0049988
4.55701e-06
0.00499644
4.71717e-06
0.004994
4.88385e-06
0.00499147
5.05732e-06
0.00498885
5.23782e-06
0.00498613
5.42552e-06
0.00498332
5.62062e-06
0.00498041
5.82329e-06
0.0049774
6.03373e-06
0.00497427
6.25214e-06
0.00497103
6.47875e-06
0.00496768
6.71386e-06
0.0049642
6.95784e-06
0.00496059
7.21109e-06
0.00495686
7.47411e-06
0.00495299
7.74746e-06
0.00494898
8.03182e-06
0.00494482
8.328e-06
0.0049405
8.63694e-06
0.00493603
8.95984e-06
0.00493138
9.29813e-06
0.00492656
9.65362e-06
0.00492156
1.00285e-05
0.00491635
1.04254e-05
0.00491094
1.08478e-05
0.0049053
1.12998e-05
0.00489942
1.1787e-05
0.00489328
1.23162e-05
0.00488686
1.28966e-05
0.00488011
1.35391e-05
0.00487302
1.42519e-05
0.00486554
1.50275e-05
0.00485768
1.5816e-05
1.65003e-05
0.00484948
0.0050469
1.18141e-05
0.00503291
4.23576e-05
0.00502691
1.917e-05
0.00502316
1.10324e-05
0.00502324
-4.57818e-07
0.00502371
-1.80358e-06
0.0050237
-3.37555e-07
0.00502324
1.14989e-06
0.00502237
2.45678e-06
0.00502121
3.39341e-06
0.00501985
4.02841e-06
0.00501834
4.47903e-06
0.00501673
4.81817e-06
0.00501503
5.0912e-06
0.00501325
5.32698e-06
0.0050114
5.54329e-06
0.00500948
5.75109e-06
0.0050075
5.95719e-06
0.00500544
6.16601e-06
0.00500331
6.38041e-06
0.00500112
6.60224e-06
0.00499884
6.83261e-06
0.00499648
7.07222e-06
0.00499405
7.32162e-06
0.00499152
7.5812e-06
0.00498891
7.85131e-06
0.0049862
8.13219e-06
0.0049834
8.42409e-06
0.0049805
8.7273e-06
0.00497749
9.04208e-06
0.00497437
9.36875e-06
0.00497114
9.70766e-06
0.0049678
1.00593e-05
0.00496433
1.0424e-05
0.00496074
1.08026e-05
0.00495702
1.11957e-05
0.00495316
1.16041e-05
0.00494916
1.20288e-05
0.00494502
1.24709e-05
0.00494073
1.29319e-05
0.00493627
1.34135e-05
0.00493165
1.39178e-05
0.00492686
1.44472e-05
0.00492188
1.5005e-05
0.00491671
1.5595e-05
0.00491134
1.62219e-05
0.00490575
1.68917e-05
0.00489992
1.76121e-05
0.00489384
1.83928e-05
0.00488749
1.92467e-05
0.00488085
2.01888e-05
0.00487387
2.12305e-05
0.00486653
2.2361e-05
0.00485884
2.35106e-05
2.45162e-05
0.00485082
0.00504725
1.53247e-05
0.00503362
5.59793e-05
0.00502824
2.45563e-05
0.00502426
1.5012e-05
0.00502412
-3.16163e-07
0.00502432
-2.006e-06
0.0050241
-1.21154e-07
0.00502351
1.74514e-06
0.00502255
3.41076e-06
0.00502134
4.60818e-06
0.00501995
5.42144e-06
0.00501842
6.00177e-06
0.0050168
6.44125e-06
0.00501509
6.79724e-06
0.00501332
7.10636e-06
0.00501147
7.39122e-06
0.00500955
7.66573e-06
0.00500757
7.93863e-06
0.00500552
8.21559e-06
0.0050034
8.50025e-06
0.00500121
8.7949e-06
0.00499894
9.101e-06
0.00499659
9.41944e-06
0.00499416
9.75095e-06
0.00499165
1.0096e-05
0.00498905
1.04551e-05
0.00498635
1.08285e-05
0.00498356
1.12165e-05
0.00498066
1.16194e-05
0.00497767
1.20377e-05
0.00497457
1.24717e-05
0.00497135
1.29219e-05
0.00496802
1.33888e-05
0.00496457
1.38731e-05
0.004961
1.43756e-05
0.0049573
1.48972e-05
0.00495346
1.54388e-05
0.00494949
1.60019e-05
0.00494537
1.65878e-05
0.00494111
1.71983e-05
0.00493669
1.78356e-05
0.0049321
1.85023e-05
0.00492735
1.92016e-05
0.00492241
1.99373e-05
0.0049173
2.07142e-05
0.00491198
2.15383e-05
0.00490645
2.24167e-05
0.00490071
2.33589e-05
0.00489472
2.43768e-05
0.00488848
2.54856e-05
0.00488197
2.67035e-05
0.00487516
2.8044e-05
0.00486802
2.94937e-05
0.00486056
3.09691e-05
3.22756e-05
0.00485281
0.00504792
1.81577e-05
0.00503497
6.89311e-05
0.0050303
2.92328e-05
0.00502589
1.94159e-05
0.00502538
1.98582e-07
0.00502519
-1.81695e-06
0.00502468
3.89031e-07
0.0050239
2.51973e-06
0.00502284
4.47399e-06
0.00502156
5.88816e-06
0.00502013
6.85203e-06
0.00501859
7.54541e-06
0.00501695
8.07502e-06
0.00501524
8.5075e-06
0.00501346
8.88573e-06
0.00501162
9.23627e-06
0.00500971
9.57547e-06
0.00500773
9.91368e-06
0.00500569
1.02576e-05
0.00500358
1.06115e-05
0.0050014
1.09781e-05
0.00499914
1.13591e-05
0.0049968
1.17556e-05
0.00499438
1.21685e-05
0.00499188
1.25982e-05
0.00498929
1.30454e-05
0.00498661
1.35104e-05
0.00498383
1.39935e-05
0.00498096
1.44952e-05
0.00497798
1.50158e-05
0.00497489
1.55559e-05
0.0049717
1.6116e-05
0.00496839
1.66968e-05
0.00496497
1.7299e-05
0.00496142
1.79235e-05
0.00495774
1.85715e-05
0.00495394
1.92442e-05
0.00495
1.99431e-05
0.00494592
2.06698e-05
0.00494169
2.14264e-05
0.00493731
2.22155e-05
0.00493277
2.30401e-05
0.00492807
2.39039e-05
0.00492319
2.48112e-05
0.00491814
2.57675e-05
0.0049129
2.67794e-05
0.00490746
2.7855e-05
0.00490182
2.90049e-05
0.00489595
3.02421e-05
0.00488985
3.15833e-05
0.00488351
3.30482e-05
0.0048769
3.46512e-05
0.00487002
3.63774e-05
0.00486285
3.81356e-05
3.97148e-05
0.00485541
0.00504899
1.99249e-05
0.00503698
8.0943e-05
0.0050331
3.31151e-05
0.00502803
2.44832e-05
0.00502699
1.23449e-06
0.0050263
-1.12003e-06
0.00502542
1.2638e-06
0.00502443
3.50969e-06
0.00502324
5.66572e-06
0.00502188
7.24348e-06
0.00502041
8.32521e-06
0.00501884
9.1121e-06
0.0050172
9.7199e-06
0.00501549
1.02213e-05
0.00501371
1.06637e-05
0.00501187
1.10766e-05
0.00500996
1.14781e-05
0.005008
1.18798e-05
0.00500597
1.22893e-05
0.00500387
1.27113e-05
0.0050017
1.31488e-05
0.00499945
1.36037e-05
0.00499713
1.40773e-05
0.00499473
1.45705e-05
0.00499224
1.50839e-05
0.00498967
1.56182e-05
0.00498701
1.61736e-05
0.00498425
1.67507e-05
0.00498139
1.73498e-05
0.00497844
1.79713e-05
0.00497538
1.8616e-05
0.00497221
1.92843e-05
0.00496893
1.99771e-05
0.00496553
2.06952e-05
0.00496202
2.14396e-05
0.00495838
2.22115e-05
0.00495461
2.30123e-05
0.00495071
2.38438e-05
0.00494667
2.47077e-05
0.00494249
2.56064e-05
0.00493816
2.65426e-05
0.00493368
2.75197e-05
0.00492905
2.85415e-05
0.00492425
2.96129e-05
0.00491927
3.07395e-05
0.00491412
3.19284e-05
0.00490879
3.31881e-05
0.00490327
3.45294e-05
0.00489754
3.59657e-05
0.00489161
3.7514e-05
0.00488547
3.91937e-05
0.0048791
4.10191e-05
0.0048725
4.29741e-05
0.00486567
4.4966e-05
4.67814e-05
0.00485861
0.00504998
2.07022e-05
0.00503991
9.10102e-05
0.00503613
3.68997e-05
0.00503063
2.99771e-05
0.00502886
3.00755e-06
0.00502756
1.79936e-07
0.00502629
2.5314e-06
0.00502506
4.74064e-06
0.00502373
6.99922e-06
0.00502229
8.67963e-06
0.00502077
9.84358e-06
0.00501918
1.07027e-05
0.00501753
1.13755e-05
0.00501581
1.19375e-05
0.00501404
1.24386e-05
0.0050122
1.291e-05
0.00501031
1.33711e-05
0.00500836
1.38343e-05
0.00500634
1.43077e-05
0.00500425
1.47964e-05
0.0050021
1.53035e-05
0.00499987
1.58312e-05
0.00499757
1.63808e-05
0.00499518
1.69532e-05
0.00499272
1.75492e-05
0.00499017
1.81692e-05
0.00498753
1.88138e-05
0.00498479
1.94834e-05
0.00498197
2.01783e-05
0.00497904
2.08992e-05
0.00497601
2.16465e-05
0.00497287
2.24211e-05
0.00496962
2.32236e-05
0.00496626
2.40551e-05
0.00496279
2.49166e-05
0.00495919
2.58095e-05
0.00495547
2.67352e-05
0.00495161
2.76955e-05
0.00494763
2.86924e-05
0.00494351
2.97284e-05
0.00493924
3.08063e-05
0.00493483
3.19295e-05
0.00493027
3.31021e-05
0.00492556
3.4329e-05
0.00492068
3.56159e-05
0.00491564
3.69697e-05
0.00491043
3.8399e-05
0.00490504
3.99141e-05
0.00489948
4.15279e-05
0.00489374
4.32563e-05
0.00488782
4.51173e-05
0.00488171
4.71233e-05
0.00487543
4.92577e-05
0.00486896
5.14302e-05
0.00486231
5.34333e-05
0.00485076
-1.95437e-06
-3.19155e-09
0.00485261
-1.84743e-06
-3.21372e-09
0.00485471
-2.10215e-06
-3.21806e-09
0.00485741
-2.69533e-06
-3.21853e-09
0.00486089
-3.47141e-06
-3.21835e-09
0.00486508
-4.19438e-06
-3.21603e-09
0.00486972
-4.63498e-06
-3.20466e-09
0.00487437
-4.64821e-06
-3.1809e-09
0.00487858
-4.20154e-06
-3.14384e-09
0.00488194
-3.35478e-06
-3.09701e-09
0.00488415
-2.206e-06
-3.03973e-09
0.004885
-8.53158e-07
-2.98237e-09
0.00488443
5.71146e-07
-2.87572e-09
0.00488241
2.03082e-06
-2.85131e-09
0.00487887
3.54288e-06
-2.79674e-09
0.00487378
5.08439e-06
-2.75352e-09
0.00486712
6.66775e-06
-2.71267e-09
0.00485881
8.3136e-06
-2.6982e-09
0.00484876
1.00461e-05
-2.76577e-09
0.00483688
1.18913e-05
-2.85925e-09
0.004823
1.38772e-05
-2.92972e-09
0.00480697
1.60339e-05
-2.92394e-09
0.00478858
1.83951e-05
-2.79323e-09
0.00476758
2.09981e-05
-2.54022e-09
0.0047437
2.38843e-05
-2.19885e-09
0.0047166
2.70991e-05
-1.81686e-09
0.00468591
3.06932e-05
-1.44015e-09
0.00465119
3.47257e-05
-1.10474e-09
0.00461192
3.92684e-05
-8.33458e-10
0.00456751
4.44107e-05
-6.3681e-10
0.00451725
5.02641e-05
-5.17379e-10
0.00446028
5.69663e-05
-4.67435e-10
0.00439559
6.46865e-05
-4.67667e-10
0.00432196
7.36335e-05
-4.92378e-10
0.00423789
8.40689e-05
-5.12802e-10
0.00414157
9.63254e-05
-5.01133e-10
0.00403074
0.000110831
-4.39127e-10
0.0039026
0.000128139
-3.22853e-10
0.00375363
0.000148967
-1.5852e-10
0.0035794
0.000174236
3.78838e-11
0.0033743
0.000205099
2.48569e-10
0.00313141
0.000242889
4.48595e-10
0.00284256
0.000288851
6.09777e-10
0.00249917
0.000343387
7.05448e-10
0.00209475
0.000404414
7.30568e-10
0.00163017
0.000464587
7.12239e-10
0.00112237
0.000507796
7.0584e-10
0.000616156
0.000506212
7.01807e-10
0.000197477
0.000418679
5.63958e-10
0.000197477
2.11884e-10
0.00485012
-2.59152e-06
0.00485062
-2.35009e-06
0.00485132
-2.80616e-06
0.00485254
-3.91235e-06
0.00485444
-5.36718e-06
0.00485696
-6.71586e-06
0.00485984
-7.51708e-06
0.00486268
-7.49273e-06
0.00486507
-6.58422e-06
0.00486662
-4.90608e-06
0.00486706
-2.65202e-06
0.00486614
7.46783e-08
0.00486395
2.76045e-06
0.0048603
5.68164e-06
0.00485517
8.66569e-06
0.00484854
1.17143e-05
0.00484036
1.48541e-05
0.00483055
1.81251e-05
0.00481902
2.15751e-05
0.00480565
2.52555e-05
0.00479031
2.92211e-05
0.00477281
3.35318e-05
0.00475295
3.82544e-05
0.00473049
4.34634e-05
0.00470513
4.92415e-05
0.00467655
5.56795e-05
0.00464436
6.28787e-05
0.00460813
7.09575e-05
0.00456734
8.00596e-05
0.00452139
9.03638e-05
0.00446956
0.000102093
0.004411
0.000115522
0.0043447
0.000130987
0.00426943
0.000148906
0.0041837
0.000169797
0.0040857
0.000194323
0.0039732
0.000223333
0.00384342
0.000257922
0.00369288
0.000299507
0.00351721
0.000349907
0.00331093
0.00041138
0.0030673
0.000486517
0.00277847
0.000577677
0.00243641
0.000685446
0.00203543
0.000805392
0.00157739
0.000922629
0.00108015
0.00100504
0.000588409
0.000997949
0.000184806
0.000822282
0.000382282
0.00484883
-5.98557e-07
0.00484665
-1.66328e-07
0.00484456
-7.20191e-07
0.00484283
-2.18265e-06
0.00484159
-4.12477e-06
0.00484079
-5.91915e-06
0.00484021
-6.93522e-06
0.0048395
-6.77977e-06
0.00483829
-5.37507e-06
0.0048363
-2.92047e-06
0.00483316
4.88216e-07
0.00482904
4.19145e-06
0.00482353
8.27245e-06
0.00481668
1.25296e-05
0.00480845
1.69035e-05
0.00479877
2.13935e-05
0.00478758
2.6038e-05
0.00477481
3.08959e-05
0.00476035
3.60364e-05
0.00474407
4.15339e-05
0.00472583
4.74687e-05
0.00470543
5.3929e-05
0.00468267
6.10138e-05
0.0046573
6.88348e-05
0.00462902
7.75158e-05
0.00459751
8.7193e-05
0.00456237
9.80187e-05
0.00452316
0.00011017
0.00447935
0.000123864
0.00443035
0.000139368
0.00437542
0.000157017
0.00431372
0.00017722
0.00424423
0.000200481
0.00416572
0.000227418
0.00407671
0.000258807
0.0039754
0.000295628
0.0038596
0.000339134
0.00372659
0.00039094
0.00357297
0.000453126
0.00339453
0.000528343
0.00318605
0.000619863
0.0029412
0.000731367
0.00265282
0.000866056
0.00231398
0.00102429
0.00192056
0.00119881
0.0014762
0.00136698
0.00100011
0.00148114
0.000537
0.00146106
0.000165109
0.00119417
0.000547392
0.00484689
5.31436e-06
0.00484072
6.0048e-06
0.00483449
5.50777e-06
0.0048284
3.90599e-06
0.00482253
1.75365e-06
0.00481686
-2.51464e-07
0.00481122
-1.29577e-06
0.00480534
-9.0224e-07
0.00479888
1.08304e-06
0.00479174
4.22562e-06
0.00478377
8.45702e-06
0.00477466
1.32976e-05
0.0047644
1.85348e-05
0.00475292
2.40141e-05
0.00474015
2.96733e-05
0.00472602
3.55192e-05
0.00471046
4.16029e-05
0.00469335
4.79992e-05
0.00467459
5.47957e-05
0.00465404
6.20877e-05
0.00463153
6.99786e-05
0.00460687
7.85835e-05
0.00457986
8.80329e-05
0.00455021
9.84751e-05
0.00451766
0.000110075
0.00448183
0.000123014
0.00444236
0.000137496
0.00439877
0.000153759
0.00435054
0.00017209
0.00429706
0.000192849
0.0042376
0.000216478
0.0041713
0.000243524
0.00409713
0.000274649
0.00401387
0.000310674
0.00392006
0.000352615
0.00381393
0.000401758
0.00369333
0.000459738
0.00355562
0.000528647
0.00339759
0.00061116
0.00321527
0.000710661
0.00300387
0.000831261
0.00275778
0.00097746
0.00247096
0.00115287
0.00213819
0.00135706
0.00175763
0.00157937
0.0013352
0.00178941
0.000891114
0.00192523
0.000468268
0.0018839
0.000137234
0.00152521
0.000684626
0.00484434
1.63835e-05
0.00483292
1.74261e-05
0.00482126
1.7166e-05
0.00480948
1.56878e-05
0.00479766
1.35709e-05
0.00478574
1.16693e-05
0.00477362
1.08257e-05
0.00476116
1.15612e-05
0.00474825
1.39862e-05
0.00473463
1.78532e-05
0.00472023
2.28542e-05
0.00470492
2.86118e-05
0.0046886
3.48496e-05
0.0046712
4.14134e-05
0.00465263
4.82435e-05
0.0046328
5.53541e-05
0.00461159
6.28065e-05
0.0045889
7.06889e-05
0.00456459
7.91043e-05
0.00453852
8.81664e-05
0.0045105
9.79996e-05
0.00448033
0.000108744
0.0044478
0.000120562
0.00441264
0.000133638
0.00437454
0.000148176
0.00433315
0.000164406
0.00428807
0.00018258
0.00423883
0.000202999
0.00418489
0.000226023
0.00412564
0.000252101
0.00406033
0.000281788
0.0039881
0.000315757
0.00390791
0.000354833
0.00381856
0.000400025
0.0037186
0.000452581
0.00360629
0.000514069
0.00347956
0.000586466
0.00333593
0.000672278
0.00317241
0.000774676
0.00298547
0.000897603
0.00277099
0.00104574
0.00252447
0.00122398
0.00224158
0.00143576
0.00191953
0.00167911
0.00155939
0.00193952
0.00116956
0.00217924
0.000770249
0.00232454
0.000398444
0.00225571
0.000109266
0.00181438
0.000793892
0.00484121
3.37744e-05
0.00482339
3.52483e-05
0.00480516
3.53943e-05
0.00478656
3.42874e-05
0.00476762
3.25148e-05
0.00474832
3.09691e-05
0.00472864
3.05087e-05
0.00470853
3.16725e-05
0.00468793
3.4585e-05
0.00466674
3.90445e-05
0.00464488
4.47093e-05
0.00462227
5.12218e-05
0.00459881
5.83134e-05
0.00457439
6.58321e-05
0.00454891
7.37246e-05
0.00452225
8.20126e-05
0.00449429
9.07662e-05
0.00446489
0.000100084
0.00443392
0.000110083
0.00440119
0.000120891
0.00436654
0.000132654
0.00432975
0.000145536
0.00429058
0.000159728
0.00424877
0.000175452
0.00420399
0.000192953
0.00415589
0.000212506
0.00410405
0.000234416
0.00404801
0.000259043
0.0039872
0.000286827
0.003921
0.000318305
0.00384865
0.000354142
0.00376926
0.000395141
0.00368182
0.00044228
0.00358509
0.000496748
0.00347766
0.000560011
0.00335785
0.000633885
0.00322368
0.000720635
0.00307287
0.000823083
0.00290283
0.000944719
0.00271067
0.00108976
0.00249344
0.00126297
0.00224848
0.00146895
0.00197427
0.00170997
0.00167175
0.00198162
0.00134616
0.00226511
0.00100864
0.00251676
0.000677886
0.0026553
0.000378236
0.00255536
0.000129438
0.00206318
0.00092333
0.00483753
5.85587e-05
0.00481227
6.05108e-05
0.00478647
6.11901e-05
0.0047601
6.06545e-05
0.00473315
5.94663e-05
0.00470563
5.84935e-05
0.00467756
5.85766e-05
0.00464898
6.02517e-05
0.0046199
6.36613e-05
0.00459031
6.86345e-05
0.00456017
7.48566e-05
0.00452939
8.2001e-05
0.00449788
8.98226e-05
0.00446553
9.81833e-05
0.00443221
0.000107041
0.0043978
0.000116425
0.00436215
0.000126413
0.00432512
0.000137113
0.00428655
0.000148651
0.00424627
0.000161172
0.00420409
0.000174838
0.00415979
0.00018984
0.00411312
0.000206398
0.0040638
0.000224767
0.00401152
0.000245235
0.00395591
0.000268119
0.00389654
0.000293779
0.00383295
0.000322638
0.00376456
0.000355213
0.00369073
0.000392136
0.0036107
0.000434178
0.00352356
0.000482273
0.0034283
0.000537545
0.00332369
0.00060136
0.00320832
0.000675379
0.00308056
0.000761643
0.00293855
0.000862646
0.00278021
0.000981423
0.00260333
0.0011216
0.00240579
0.0012873
0.00218596
0.00148281
0.0019435
0.00171141
0.00168058
0.00197289
0.00140345
0.00225875
0.00112393
0.00254462
0.000859808
0.00278088
0.00063068
0.00288442
0.000444896
0.00274114
0.00027654
0.00223154
0.00119987
-2.2059e-05
2.20589e-05
1.03832e-10
-4.61551e-06
-1.7444e-05
5.80089e-10
9.11196e-05
-9.57363e-05
1.18539e-09
0.000279058
-0.00018794
1.64237e-09
0.000552811
-0.000273754
1.78888e-09
0.000891944
-0.000339136
1.69765e-09
0.00126964
-0.000377698
1.58574e-09
0.00165944
-0.000389802
1.65567e-09
0.00203964
-0.000380197
1.98078e-09
0.00239512
-0.000355483
2.50527e-09
0.00271726
-0.000322148
3.08661e-09
0.00300272
-0.000285462
3.5886e-09
0.00325183
-0.000249112
3.92345e-09
0.00346715
-0.000215321
4.05642e-09
0.00365231
-0.000185174
3.99622e-09
0.00381129
-0.000158981
3.77406e-09
0.00394788
-0.000136596
3.42767e-09
0.00406552
-0.000117639
2.99108e-09
0.00416717
-0.000101648
2.50125e-09
0.00425532
-8.81572e-05
1.99756e-09
0.00433206
-7.67441e-05
1.56567e-09
0.00439911
-6.70451e-05
1.1912e-09
0.00445786
-5.8757e-05
1.14168e-09
0.00450949
-5.16318e-05
1.69343e-09
0.00455496
-4.54691e-05
2.90245e-09
0.00459506
-4.01085e-05
4.65681e-09
0.00463048
-3.54213e-05
6.47067e-09
0.00466177
-3.13035e-05
8.03954e-09
0.00468944
-2.76708e-05
9.24351e-09
0.00471388
-2.4454e-05
1.00181e-08
0.00473546
-2.1595e-05
1.03887e-08
0.0047545
-1.90453e-05
1.04443e-08
0.00477125
-1.67641e-05
1.02943e-08
0.00478596
-1.47173e-05
1.00348e-08
0.00479883
-1.28768e-05
9.73565e-09
0.00481004
-1.12187e-05
9.4391e-09
0.00481975
-9.7229e-06
9.1661e-09
0.00482811
-8.37249e-06
8.92695e-09
0.00483526
-7.15313e-06
8.72512e-09
0.0048413
-6.05293e-06
8.56098e-09
0.00484636
-5.06237e-06
8.4344e-09
0.00485052
-4.1742e-06
8.34309e-09
0.0048539
-3.38365e-06
8.28308e-09
0.00485658
-2.6886e-06
8.25216e-09
0.00485866
-2.09001e-06
8.25033e-09
0.00486024
-1.59208e-06
8.27794e-09
0.00486144
-1.20075e-06
8.33599e-09
0.00486234
-9.17558e-07
8.42521e-09
0.00486306
-7.24884e-07
8.54297e-09
-5.63014e-07
0.00486362
8.68127e-09
-1.02599e-05
3.23188e-05
2.70071e-05
-5.47111e-05
0.000139375
-0.000208104
0.000335658
-0.000384223
0.000608384
-0.000546481
0.000938753
-0.000669505
0.00130291
-0.000741858
0.0016774
-0.00076429
0.0020428
-0.000745598
0.00238539
-0.000698075
0.00269715
-0.000633904
0.00297476
-0.00056307
0.00321828
-0.000492639
0.00342989
-0.000426925
0.0036128
-0.000368082
0.0037706
-0.00031678
0.00390679
-0.000272794
0.00402459
-0.000235435
0.00412678
-0.000203836
0.00421574
-0.000177117
0.00429346
-0.000154469
0.00436161
-0.000135192
0.00442155
-0.000118697
0.00447442
-0.000104501
0.00452116
-9.22107e-05
0.00456256
-8.15122e-05
0.00459929
-7.21524e-05
0.00463192
-6.39262e-05
0.00466091
-5.66672e-05
0.0046867
-5.02374e-05
0.00470962
-4.45218e-05
0.00473
-3.94237e-05
0.0047481
-3.48619e-05
0.00476415
-3.07689e-05
0.00477836
-2.70882e-05
0.00479092
-2.37723e-05
0.00480198
-2.07812e-05
0.00481168
-1.80806e-05
0.00482017
-1.56417e-05
0.00482756
-1.34406e-05
0.00483396
-1.14579e-05
0.00483946
-9.67882e-06
0.00484417
-8.09335e-06
0.00484818
-6.69664e-06
0.00485158
-5.4897e-06
0.00485446
-4.47965e-06
0.00485694
-3.67694e-06
0.00485911
-3.08365e-06
0.00486105
-2.66515e-06
-2.30596e-06
0.00486279
1.32867e-05
1.90321e-05
8.38661e-05
-0.00012529
0.000225504
-0.000349742
0.000436232
-0.000594951
0.0007062
-0.000816449
0.00101972
-0.000983023
0.00135841
-0.00108055
0.00170431
-0.00111019
0.0020422
-0.00108349
0.0023609
-0.00101677
0.00265344
-0.000926446
0.00291657
-0.000826205
0.00314985
-0.000725916
0.00335468
-0.000631752
0.00353351
-0.000546913
0.00368924
-0.000472516
0.00382484
-0.000408386
0.00394306
-0.000353654
0.00404638
-0.000307163
0.00413697
-0.000267707
0.00421666
-0.000234159
0.004287
-0.00020553
0.00434929
-0.000180981
0.0044046
-0.000159817
0.00445386
-0.00014147
0.00449783
-0.000125482
0.00453716
-0.000111483
0.00457241
-9.91711e-05
0.00460404
-8.83013e-05
0.00463247
-7.86692e-05
0.00465805
-7.01036e-05
0.00468109
-6.24609e-05
0.00470185
-5.56208e-05
0.00472056
-4.94829e-05
0.00473744
-4.39633e-05
0.00475266
-3.89911e-05
0.00476638
-3.45058e-05
0.00477876
-3.04559e-05
0.00478991
-2.67977e-05
0.00479997
-2.34947e-05
0.00480903
-2.05173e-05
0.00481719
-1.78427e-05
0.00482455
-1.54547e-05
0.0048312
-1.33446e-05
0.00483722
-1.15117e-05
0.00484271
-9.96397e-06
0.00484774
-8.71362e-06
0.00485242
-7.76147e-06
0.00485681
-7.05722e-06
-6.43739e-06
0.00486095
3.98033e-05
-2.07712e-05
0.000153572
-0.000239059
0.000330586
-0.000526756
0.000557066
-0.000821431
0.000820891
-0.00108027
0.0011106
-0.00127273
0.00141489
-0.00138485
0.00172283
-0.00141813
0.00202454
-0.00138519
0.002312
-0.00130423
0.00257957
-0.00119402
0.00282402
-0.00107065
0.00304418
-0.000946071
0.00324044
-0.00082802
0.00341426
-0.00072073
0.00356763
-0.000625884
0.00370277
-0.000543526
0.00382189
-0.000472779
0.00392707
-0.000412341
0.00402016
-0.000360799
0.0041028
-0.000316796
0.00417639
-0.000279117
0.00424213
-0.000246721
0.00430104
-0.000218731
0.004354
-0.000194425
0.00440173
-0.000173216
0.00444488
-0.000154627
0.00448397
-0.000138265
0.00451948
-0.000123811
0.0045518
-0.000110994
0.00458129
-9.95913e-05
0.00460824
-8.94126e-05
0.00463292
-8.03004e-05
0.00465556
-7.21228e-05
0.00467637
-6.47691e-05
0.00469552
-5.81449e-05
0.00471319
-5.21696e-05
0.0047295
-4.67737e-05
0.0047446
-4.18983e-05
0.0047586
-3.7494e-05
0.00477161
-3.35202e-05
0.00478371
-2.99454e-05
0.004795
-2.67462e-05
0.00480557
-2.39085e-05
0.00481548
-2.14281e-05
0.00482483
-1.93104e-05
0.00483368
-1.75665e-05
0.00484211
-1.61935e-05
0.00485018
-1.51277e-05
-1.4169e-05
0.00485792
6.73456e-05
-8.81168e-05
0.00022551
-0.000397224
0.000434509
-0.000735756
0.000670721
-0.00105764
0.000921554
-0.00133111
0.00118083
-0.001532
0.00144488
-0.0016489
0.00171002
-0.00168327
0.00197177
-0.00164695
0.00222528
-0.00155773
0.00246608
-0.00143483
0.00269082
-0.00129539
0.00289746
-0.0011527
0.00308523
-0.00101579
0.00325444
-0.000889936
0.00340607
-0.000777522
0.00354156
-0.000679013
0.0036625
-0.000593716
0.0037705
-0.000520349
0.00386713
-0.000457419
0.00395377
-0.000403437
0.00403168
-0.000357034
0.00410197
-0.000317011
0.00416559
-0.000282348
0.00422336
-0.000252193
0.00427598
-0.000225842
0.00432408
-0.00020272
0.00436817
-0.000182354
0.0044087
-0.000164348
0.00444608
-0.000148373
0.00448064
-0.000134152
0.00451268
-0.000121452
0.00454246
-0.00011008
0.00457021
-9.98739e-05
0.00459614
-9.06961e-05
0.00462043
-8.24295e-05
0.00464323
-7.49727e-05
0.00466469
-6.82382e-05
0.00468495
-6.21513e-05
0.0047041
-5.66491e-05
0.00472226
-5.16799e-05
0.00473952
-4.72021e-05
0.00475596
-4.31845e-05
0.00477165
-3.9606e-05
0.00478668
-3.64563e-05
0.00480111
-3.37357e-05
0.00481499
-3.14504e-05
0.00482839
-2.95919e-05
0.00484135
-2.8086e-05
-2.67103e-05
0.00485389
0.000111188
-0.000199304
0.00030633
-0.000592366
0.000527976
-0.000957402
0.000755096
-0.00128476
0.000979074
-0.00155508
0.00119951
-0.00175244
0.0014193
-0.00186868
0.00164059
-0.00190457
0.00186314
-0.0018695
0.00208442
-0.00177902
0.00230069
-0.0016511
0.00250811
-0.00150281
0.0027036
-0.00134819
0.00288516
-0.00119736
0.00305188
-0.00105666
0.00320375
-0.000929392
0.00334138
-0.000816646
0.00346578
-0.000718113
0.00357813
-0.000632702
0.00367969
-0.000558972
0.00377165
-0.000495398
0.00385514
-0.000440525
0.00393117
-0.000393046
0.00400065
-0.000351825
0.00406436
-0.0003159
0.00412298
-0.000284467
0.00417712
-0.000256861
0.00422729
-0.000232527
0.00427395
-0.000211002
0.00431747
-0.000191894
0.00435819
-0.000174877
0.00439642
-0.000159675
0.0044324
-0.00014606
0.00446636
-0.000133841
0.00449852
-0.000122854
0.00452905
-0.000112959
0.00455811
-0.000104033
0.00458584
-9.59716e-05
0.00461237
-8.86829e-05
0.00463782
-8.20901e-05
0.00466227
-7.61297e-05
0.00468581
-7.07498e-05
0.00470854
-6.591e-05
0.00473051
-6.15808e-05
0.0047518
-5.77439e-05
0.00477246
-5.43917e-05
0.00479253
-5.15226e-05
0.00481206
-4.91204e-05
0.00483108
-4.71048e-05
-4.5246e-05
0.00484961
0.000169063
-0.000368367
0.000372667
-0.000795971
0.000576023
-0.00116076
0.00077042
-0.00147916
0.000954882
-0.00173955
0.0011334
-0.00193096
0.00131228
-0.00204755
0.0014965
-0.00208878
0.00168777
-0.00206077
0.00188449
-0.00197574
0.00208289
-0.0018495
0.00227846
-0.00169838
0.00246712
-0.00153685
0.00264581
-0.00137605
0.00281264
-0.00122349
0.00296678
-0.00108353
0.0031082
-0.000958067
0.00323743
-0.000847345
0.00335533
-0.000750597
0.00346289
-0.000666538
0.00356118
-0.000593686
0.00365121
-0.000530553
0.00373392
-0.000475761
0.00381018
-0.000428085
0.00388075
-0.000386467
0.00394629
-0.000350012
0.0040074
-0.000317971
0.00406459
-0.000289714
0.0041183
-0.000264708
0.00416891
-0.000242505
0.00421676
-0.000222724
0.00426213
-0.000205051
0.00430529
-0.000189222
0.00434647
-0.000175015
0.00438586
-0.000162244
0.00442364
-0.000150742
0.00445998
-0.000140369
0.004495
-0.000130999
0.00452885
-0.000122524
0.00456161
-0.000114855
0.00459339
-0.000107914
0.00462428
-0.000101639
0.00465435
-9.59792e-05
0.00468367
-9.08962e-05
0.00471229
-8.63617e-05
0.00474025
-8.23584e-05
0.0047676
-7.8874e-05
0.00479437
-7.58842e-05
0.00482057
-7.33055e-05
0.00484624
-7.09169e-05
0.00487453
-1.09198e-05
8.87662e-09
0.00488518
-1.06657e-05
9.19294e-09
0.00489516
-9.98746e-06
9.47795e-09
0.00490395
-8.80063e-06
9.68687e-09
0.00491114
-7.19837e-06
9.76754e-09
0.00491658
-5.44604e-06
9.67516e-09
0.00492044
-3.87468e-06
9.39135e-09
0.00492317
-2.74126e-06
8.93683e-09
0.00492531
-2.142e-06
8.36778e-09
0.00492732
-2.01564e-06
7.75705e-09
0.00492952
-2.21017e-06
7.17065e-09
0.00493207
-2.56023e-06
6.64931e-09
0.004935
-2.93761e-06
6.20152e-09
0.00493826
-3.26674e-06
5.80855e-09
0.00494178
-3.5167e-06
5.43785e-09
0.00494546
-3.68476e-06
5.05816e-09
0.00494923
-3.78168e-06
4.65466e-09
0.00495305
-3.82223e-06
4.23887e-09
0.00495687
-3.82034e-06
3.84315e-09
0.00496065
-3.78746e-06
3.49761e-09
0.00496438
-3.73234e-06
3.20684e-09
0.00496804
-3.66147e-06
2.94731e-09
0.00497162
-3.57959e-06
2.68758e-09
0.0049751
-3.49017e-06
2.41253e-09
0.0049785
-3.39575e-06
2.1306e-09
0.00498179
-3.29825e-06
1.86072e-09
0.00498499
-3.19905e-06
1.61345e-09
0.00498809
-3.09916e-06
1.3801e-09
0.00499109
-2.99932e-06
1.13882e-09
0.00499399
-2.90009e-06
8.76794e-10
0.00499679
-2.80192e-06
6.02784e-10
0.00499949
-2.70513e-06
3.38019e-10
0.0050021
-2.60999e-06
1.05646e-10
0.00500462
-2.51667e-06
-7.57998e-11
0.00500704
-2.42532e-06
-2.00243e-10
0.00500938
-2.33598e-06
-2.84839e-10
0.00501163
-2.24868e-06
-3.64019e-10
0.00501379
-2.16342e-06
-4.71348e-10
0.00501587
-2.08021e-06
-6.25658e-10
0.00501787
-1.99908e-06
-8.08669e-10
0.0050198
-1.92009e-06
-9.6861e-10
0.00502164
-1.84321e-06
-1.09494e-09
0.00502341
-1.7684e-06
-1.18954e-09
0.00502511
-1.69556e-06
-1.31083e-09
0.00502673
-1.62459e-06
-1.52167e-09
0.00502829
-1.55547e-06
-1.79261e-09
0.00502978
-1.48824e-06
-2.11975e-09
0.00503121
-1.42291e-06
-2.45094e-09
0.00503257
-1.35945e-06
-2.76072e-09
0.00503387
-1.29782e-06
-3.05703e-09
0.00503511
-1.23802e-06
-3.30188e-09
0.00503629
-1.18006e-06
-3.47199e-09
0.00503742
-1.12388e-06
-3.61808e-09
0.00503849
-1.06942e-06
-3.73319e-09
0.00503951
-1.01664e-06
-3.7912e-09
0.00504048
-9.6549e-07
-3.84508e-09
0.0050414
-9.15918e-07
-3.93183e-09
0.00504228
-8.67912e-07
-4.08934e-09
0.0050431
-8.21467e-07
-4.24594e-09
0.00504388
-7.76517e-07
-4.46215e-09
0.00504462