/*--------------------------------*- C++ -*----------------------------------*\
| =========                 |                                                 |
| \\      /  F ield         | OpenFOAM: The Open Source CFD Toolbox           |
|  \\    /   O peration     | Version:  2412                                  |
|   \\  /    A nd           | Website:  www.openfoam.com                      |
|    \\/     M anipulation  |                                                 |
\*---------------------------------------------------------------------------*/
FoamFile
{
    version     2.0;
    format      ascii;
    arch        "LSB;label=32;scalar=64";
    class       volVectorField;
    location    "2.5";
    object      U;
}
// * * * * * * * * * * * * * * * * * * * * * * * * * * * * * * * * * * * * * //

dimensions      [0 1 -1 0 0 0 0];

internalField   nonuniform List<vector> 
63420
(
(0.106539 1.35336e-05 0)
(0.0951466 4.91335e-05 0)
(0.101841 2.38497e-05 0)
(0.0987507 1.30466e-05 0)
(0.099455 -8.1753e-07 0)
(0.099524 -2.71905e-06 0)
(0.0994322 -8.71504e-07 0)
(0.0994555 1.17068e-06 0)
(0.0994476 3.01916e-06 0)
(0.0994253 4.41326e-06 0)
(0.099401 5.42338e-06 0)
(0.0993731 6.19476e-06 0)
(0.0993423 6.82319e-06 0)
(0.0993095 7.37056e-06 0)
(0.0992751 7.87714e-06 0)
(0.0992392 8.36884e-06 0)
(0.0992018 8.86305e-06 0)
(0.0991631 9.37013e-06 0)
(0.0991231 9.89691e-06 0)
(0.0990816 1.04497e-05 0)
(0.0990387 1.10334e-05 0)
(0.0989943 1.16515e-05 0)
(0.0989483 1.2306e-05 0)
(0.0989008 1.29992e-05 0)
(0.0988515 1.37334e-05 0)
(0.0988005 1.45114e-05 0)
(0.0987477 1.53357e-05 0)
(0.0986929 1.62089e-05 0)
(0.0986362 1.71335e-05 0)
(0.0985775 1.81122e-05 0)
(0.0985166 1.91477e-05 0)
(0.0984536 2.02431e-05 0)
(0.0983882 2.14016e-05 0)
(0.0983205 2.26273e-05 0)
(0.0982503 2.39247e-05 0)
(0.0981776 2.52984e-05 0)
(0.0981022 2.67536e-05 0)
(0.0980241 2.82964e-05 0)
(0.097943 2.99333e-05 0)
(0.097859 3.16719e-05 0)
(0.0977718 3.35211e-05 0)
(0.0976814 3.54912e-05 0)
(0.0975875 3.75947e-05 0)
(0.0974901 3.98469e-05 0)
(0.0973887 4.22659e-05 0)
(0.0972834 4.48738e-05 0)
(0.0971736 4.76981e-05 0)
(0.0970593 5.07733e-05 0)
(0.0969398 5.41437e-05 0)
(0.0968149 5.78669e-05 0)
(0.0966838 6.20131e-05 0)
(0.096546 6.66457e-05 0)
(0.0964006 7.17516e-05 0)
(0.0962471 7.70982e-05 0)
(0.0960859 8.20782e-05 0)
(0.10654 4.05587e-05 0)
(0.0951467 0.00014711 0)
(0.101844 7.05768e-05 0)
(0.0987589 3.91458e-05 0)
(0.0994596 -2.30267e-06 0)
(0.0995284 -7.8137e-06 0)
(0.0994351 -2.26799e-06 0)
(0.0994572 3.79324e-06 0)
(0.0994486 9.28532e-06 0)
(0.0994259 1.34247e-05 0)
(0.0994013 1.64249e-05 0)
(0.0993732 1.87207e-05 0)
(0.0993424 2.05956e-05 0)
(0.0993096 2.22319e-05 0)
(0.0992751 2.37486e-05 0)
(0.0992392 2.5222e-05 0)
(0.0992019 2.67019e-05 0)
(0.0991632 2.82203e-05 0)
(0.0991232 2.97997e-05 0)
(0.0990817 3.14575e-05 0)
(0.0990388 3.32069e-05 0)
(0.0989945 3.50576e-05 0)
(0.0989486 3.70173e-05 0)
(0.098901 3.90933e-05 0)
(0.0988518 4.1293e-05 0)
(0.0988009 4.36235e-05 0)
(0.0987481 4.60922e-05 0)
(0.0986935 4.87063e-05 0)
(0.0986368 5.14737e-05 0)
(0.0985782 5.44025e-05 0)
(0.0985174 5.75013e-05 0)
(0.0984544 6.07794e-05 0)
(0.0983892 6.42471e-05 0)
(0.0983216 6.7916e-05 0)
(0.0982515 7.17986e-05 0)
(0.0981789 7.59089e-05 0)
(0.0981036 8.02625e-05 0)
(0.0980256 8.4877e-05 0)
(0.0979448 8.9772e-05 0)
(0.0978609 9.49703e-05 0)
(0.097774 0.000100498 0)
(0.0976838 0.000106387 0)
(0.0975901 0.000112674 0)
(0.0974929 0.000119403 0)
(0.0973919 0.000126627 0)
(0.0972869 0.000134413 0)
(0.0971776 0.00014284 0)
(0.0970637 0.000152012 0)
(0.0969449 0.000162058 0)
(0.0968206 0.000173148 0)
(0.0966904 0.000185486 0)
(0.0965536 0.000199258 0)
(0.0964096 0.000214424 0)
(0.0962577 0.000230306 0)
(0.0960983 0.000245134 0)
(0.106543 6.7337e-05 0)
(0.0951495 0.000244379 0)
(0.101852 0.00011488 0)
(0.098777 6.54926e-05 0)
(0.0994697 -3.37606e-06 0)
(0.0995379 -1.20877e-05 0)
(0.0994412 -2.91493e-06 0)
(0.0994609 6.93061e-06 0)
(0.099451 1.58947e-05 0)
(0.0994275 2.2655e-05 0)
(0.0994023 2.75605e-05 0)
(0.0993739 3.13265e-05 0)
(0.0993429 3.44133e-05 0)
(0.09931 3.71159e-05 0)
(0.0992755 3.96275e-05 0)
(0.0992396 4.20721e-05 0)
(0.0992023 4.45297e-05 0)
(0.0991636 4.70533e-05 0)
(0.0991237 4.96805e-05 0)
(0.0990823 5.24391e-05 0)
(0.0990395 5.53501e-05 0)
(0.0989952 5.84295e-05 0)
(0.0989494 6.16903e-05 0)
(0.098902 6.5145e-05 0)
(0.0988529 6.88057e-05 0)
(0.098802 7.26842e-05 0)
(0.0987494 7.67922e-05 0)
(0.0986949 8.11418e-05 0)
(0.0986384 8.5746e-05 0)
(0.0985799 9.06183e-05 0)
(0.0985193 9.5773e-05 0)
(0.0984565 0.000101226 0)
(0.0983915 0.000106994 0)
(0.0983241 0.000113095 0)
(0.0982542 0.000119551 0)
(0.0981819 0.000126385 0)
(0.0981069 0.000133622 0)
(0.0980292 0.000141291 0)
(0.0979487 0.000149424 0)
(0.0978652 0.000158059 0)
(0.0977786 0.000167238 0)
(0.0976888 0.000177012 0)
(0.0975957 0.000187443 0)
(0.0974991 0.000198601 0)
(0.0973987 0.000210572 0)
(0.0972944 0.000223462 0)
(0.0971859 0.0002374 0)
(0.097073 0.000252549 0)
(0.0969553 0.000269118 0)
(0.0968324 0.000287374 0)
(0.0967039 0.000307642 0)
(0.0965692 0.000330211 0)
(0.0964276 0.000355018 0)
(0.0962789 0.000380994 0)
(0.096123 0.000405359 0)
(0.106548 9.2797e-05 0)
(0.0951593 0.000339958 0)
(0.101871 0.000155393 0)
(0.0988079 9.28821e-05 0)
(0.0994865 -3.40266e-06 0)
(0.0995532 -1.48059e-05 0)
(0.0994511 -2.23827e-06 0)
(0.099467 1.09399e-05 0)
(0.0994553 2.30716e-05 0)
(0.0994304 3.22418e-05 0)
(0.0994045 3.89114e-05 0)
(0.0993756 4.4059e-05 0)
(0.0993444 4.83014e-05 0)
(0.0993113 5.20335e-05 0)
(0.0992768 5.55154e-05 0)
(0.0992409 5.89136e-05 0)
(0.0992036 6.23362e-05 0)
(0.0991651 6.58553e-05 0)
(0.0991252 6.95222e-05 0)
(0.0990839 7.33744e-05 0)
(0.0990413 7.74402e-05 0)
(0.0989971 8.17417e-05 0)
(0.0989515 8.6297e-05 0)
(0.0989042 9.11237e-05 0)
(0.0988553 9.62383e-05 0)
(0.0988046 0.000101657 0)
(0.0987522 0.000107396 0)
(0.0986979 0.000113472 0)
(0.0986416 0.000119903 0)
(0.0985834 0.000126708 0)
(0.098523 0.000133907 0)
(0.0984605 0.00014152 0)
(0.0983958 0.000149573 0)
(0.0983287 0.00015809 0)
(0.0982592 0.000167101 0)
(0.0981872 0.000176637 0)
(0.0981127 0.000186732 0)
(0.0980354 0.000197427 0)
(0.0979554 0.000208765 0)
(0.0978724 0.000220797 0)
(0.0977865 0.000233583 0)
(0.0976974 0.00024719 0)
(0.097605 0.0002617 0)
(0.0975091 0.000277209 0)
(0.0974097 0.000293832 0)
(0.0973065 0.000311707 0)
(0.0971992 0.000331007 0)
(0.0970877 0.000351946 0)
(0.0969717 0.000374795 0)
(0.0968508 0.000399903 0)
(0.0967247 0.000427686 0)
(0.0965929 0.000458518 0)
(0.096455 0.000492317 0)
(0.0963105 0.000527715 0)
(0.0961596 0.00056117 0)
(0.106557 0.000114596 0)
(0.0951802 0.000432971 0)
(0.101903 0.000190433 0)
(0.098854 0.000123039 0)
(0.0995107 -1.38451e-06 0)
(0.0995749 -1.50978e-05 0)
(0.0994651 4.00873e-07 0)
(0.099476 1.61792e-05 0)
(0.0994618 3.10239e-05 0)
(0.0994353 4.23076e-05 0)
(0.0994084 5.05467e-05 0)
(0.099379 5.69553e-05 0)
(0.0993474 6.22773e-05 0)
(0.0993143 6.69895e-05 0)
(0.0992797 7.14082e-05 0)
(0.0992438 7.57368e-05 0)
(0.0992067 8.01071e-05 0)
(0.0991682 8.46081e-05 0)
(0.0991285 8.93035e-05 0)
(0.0990874 9.42396e-05 0)
(0.0990449 9.94509e-05 0)
(0.0990009 0.000104965 0)
(0.0989555 0.000110806 0)
(0.0989084 0.000116995 0)
(0.0988598 0.000123554 0)
(0.0988094 0.000130502 0)
(0.0987572 0.000137861 0)
(0.0987032 0.000145651 0)
(0.0986473 0.000153896 0)
(0.0985893 0.000162618 0)
(0.0985293 0.000171843 0)
(0.0984672 0.000181599 0)
(0.0984029 0.000191915 0)
(0.0983363 0.000202824 0)
(0.0982673 0.000214363 0)
(0.0981958 0.00022657 0)
(0.0981218 0.000239489 0)
(0.0980451 0.000253171 0)
(0.0979657 0.000267669 0)
(0.0978835 0.000283047 0)
(0.0977983 0.000299377 0)
(0.0977101 0.000316744 0)
(0.0976187 0.000335247 0)
(0.0975239 0.000355002 0)
(0.0974257 0.000376148 0)
(0.0973239 0.000398852 0)
(0.0972182 0.000423317 0)
(0.0971086 0.000449797 0)
(0.0969947 0.00047861 0)
(0.0968764 0.000510159 0)
(0.0967533 0.000544926 0)
(0.0966252 0.000583337 0)
(0.0964917 0.000625302 0)
(0.0963527 0.000669271 0)
(0.0962079 0.000711244 0)
(0.106571 0.000129615 0)
(0.0952129 0.000522229 0)
(0.101948 0.000218279 0)
(0.0989154 0.000157939 0)
(0.0995415 3.83523e-06 0)
(0.0996027 -1.20916e-05 0)
(0.0994831 5.61998e-06 0)
(0.0994877 2.29783e-05 0)
(0.0994706 3.99281e-05 0)
(0.0994423 5.29502e-05 0)
(0.0994142 6.25181e-05 0)
(0.0993843 7.00399e-05 0)
(0.0993524 7.63491e-05 0)
(0.0993191 8.19813e-05 0)
(0.0992845 8.72963e-05 0)
(0.0992487 9.25264e-05 0)
(0.0992117 9.7823e-05 0)
(0.0991734 0.000103289 0)
(0.0991338 0.000108999 0)
(0.0990929 0.000115007 0)
(0.0990507 0.000121352 0)
(0.099007 0.000128068 0)
(0.0989618 0.000135182 0)
(0.0989151 0.000142722 0)
(0.0988667 0.000150712 0)
(0.0988167 0.000159176 0)
(0.0987649 0.00016814 0)
(0.0987112 0.000177628 0)
(0.0986557 0.000187668 0)
(0.0985982 0.000198287 0)
(0.0985387 0.000209518 0)
(0.0984771 0.000221392 0)
(0.0984132 0.000233945 0)
(0.0983472 0.000247216 0)
(0.0982788 0.000261248 0)
(0.098208 0.000276088 0)
(0.0981347 0.000291788 0)
(0.0980588 0.000308406 0)
(0.0979802 0.000326007 0)
(0.0978989 0.000344664 0)
(0.0978148 0.000364463 0)
(0.0977276 0.0003855 0)
(0.0976374 0.000407888 0)
(0.097544 0.00043176 0)
(0.0974473 0.000457273 0)
(0.0973472 0.000484614 0)
(0.0972434 0.000514007 0)
(0.097136 0.000545732 0)
(0.0970247 0.000580134 0)
(0.0969094 0.000617645 0)
(0.0967899 0.000658778 0)
(0.0966661 0.000703981 0)
(0.0965378 0.000753161 0)
(0.0964049 0.0008047 0)
(0.0962673 0.000854443 0)
(0.10659 0.000138017 0)
(0.0952536 0.000599484 0)
(0.102001 0.000244252 0)
(0.0989893 0.000195581 0)
(0.0995757 1.37038e-05 0)
(0.0996351 -4.92038e-06 0)
(0.0995039 1.372e-05 0)
(0.0995015 3.16059e-05 0)
(0.0994814 4.99228e-05 0)
(0.099451 6.42313e-05 0)
(0.0994217 7.48569e-05 0)
(0.0993911 8.3325e-05 0)
(0.099359 9.05163e-05 0)
(0.0993256 9.70001e-05 0)
(0.099291 0.000103165 0)
(0.0992553 0.000109263 0)
(0.0992184 0.000115462 0)
(0.0991803 0.000121873 0)
(0.099141 0.000128581 0)
(0.0991004 0.000135645 0)
(0.0990585 0.00014311 0)
(0.0990151 0.000151013 0)
(0.0989703 0.000159388 0)
(0.0989239 0.000168264 0)
(0.0988759 0.000177669 0)
(0.0988263 0.000187633 0)
(0.0987749 0.000198183 0)
(0.0987218 0.000209349 0)
(0.0986668 0.000221163 0)
(0.0986098 0.000233656 0)
(0.0985508 0.000246865 0)
(0.0984898 0.000260827 0)
(0.0984266 0.000275584 0)
(0.0983613 0.00029118 0)
(0.0982936 0.000307664 0)
(0.0982236 0.00032509 0)
(0.0981512 0.000343518 0)
(0.0980762 0.000363013 0)
(0.0979987 0.000383648 0)
(0.0979185 0.000405506 0)
(0.0978355 0.000428681 0)
(0.0977496 0.00045328 0)
(0.0976609 0.000479427 0)
(0.0975691 0.000507267 0)
(0.0974742 0.000536967 0)
(0.097376 0.000568725 0)
(0.0972746 0.000602779 0)
(0.0971697 0.000639417 0)
(0.0970614 0.000678992 0)
(0.0969495 0.00072194 0)
(0.096834 0.000768768 0)
(0.096715 0.000819917 0)
(0.0965924 0.000875285 0)
(0.0964662 0.00093328 0)
(0.0963363 0.000989817 0)
(0.0959181 8.57685e-05 -6.19127e-24)
(0.0957469 8.66596e-05 -6.29417e-24)
(0.0955776 8.38688e-05 -3.79379e-26)
(0.0954178 7.76425e-05 1.92737e-23)
(0.0952731 6.95683e-05 -6.38803e-24)
(0.095145 6.20524e-05 -6.55009e-24)
(0.0950298 5.74308e-05 -2.01012e-23)
(0.0949199 5.71726e-05 1.99724e-23)
(0.0948062 6.16056e-05 6.81196e-24)
(0.0946801 7.01252e-05 0)
(0.0945347 8.1709e-05 7.00919e-24)
(0.0943652 9.51114e-05 -7.11535e-24)
(0.0941694 0.000109209 5.83572e-23)
(0.0939466 0.000124116 -1.24947e-22)
(0.0936962 0.000139366 6.67133e-23)
(0.0934177 0.000154857 5.38473e-23)
(0.0931106 0.000170723 6.91004e-23)
(0.0927742 0.00018718 -7.89165e-24)
(0.0924072 0.000204478 8.0482e-24)
(0.0920079 0.000222885 -8.21416e-24)
(0.0915741 0.000242682 0)
(0.0911033 0.000264177 8.57742e-24)
(0.0905919 0.000287706 -8.77649e-24)
(0.0900363 0.000313645 0)
(0.0894316 0.000342411 -9.21471e-24)
(0.0887726 0.000374458 0)
(0.0880529 0.000410296 -9.71477e-24)
(0.0872654 0.000450518 -1.62422e-22)
(0.0864019 0.000495843 1.72462e-22)
(0.0854524 0.000547166 -1.72689e-22)
(0.0844057 0.000605606 1.72426e-22)
(0.0832479 0.000672542 0)
(0.0819628 0.000749669 0)
(0.0805308 0.000839082 2.10785e-22)
(0.0789281 0.0009434 -1.98324e-22)
(0.0771259 0.00106595 0)
(0.0750889 0.00121103 0)
(0.072773 0.00138418 0)
(0.0701236 0.00159257 0)
(0.0670716 0.00184542 0)
(0.06353 0.00215425 0)
(0.0593895 0.00253236 0)
(0.0545167 0.00299221 0)
(0.0487585 0.00353784 0)
(0.0419679 0.00414845 -2.03612e-23)
(0.0340659 0.00475023 -7.09535e-22)
(0.0251385 0.00518203 7.08472e-22)
(0.0156073 0.00517083 7.80772e-22)
(0.00678757 0.00431122 -7.796e-22)
(0.00139874 0.00204235 0)
(0.0959323 0.000256239 -6.25272e-24)
(0.0957623 0.000259197 -1.27183e-23)
(0.0955933 0.000251413 -6.62744e-24)
(0.0954321 0.000233624 6.22658e-24)
(0.0952841 0.000210482 -6.4652e-24)
(0.0951503 0.000188982 4.61917e-23)
(0.0950277 0.000175965 -7.2538e-23)
(0.0949093 0.00017573 6.71886e-24)
(0.0947868 0.000189177 8.93932e-23)
(0.0946524 0.000214386 -1.23481e-22)
(0.0944994 0.000248306 -1.20111e-22)
(0.0943232 0.000287046 1.05835e-22)
(0.0941222 0.000329793 0)
(0.0938959 0.000374297 7.35413e-24)
(0.0936426 0.000419558 -2.24336e-23)
(0.0933619 0.000465579 -2.53657e-22)
(0.0930533 0.000512803 2.42955e-22)
(0.0927159 0.000561871 -2.58271e-22)
(0.0923483 0.000613521 -2.41832e-23)
(0.091949 0.000668544 8.23218e-24)
(0.0915155 0.00072778 0)
(0.0910452 0.000792136 -8.59964e-24)
(0.0905348 0.000862623 -2.76389e-22)
(0.0899805 0.000940363 5.77088e-22)
(0.0893776 0.0010266 3.17044e-22)
(0.0887208 0.00112269 -5.98888e-22)
(0.088004 0.00123016 6.42916e-22)
(0.08722 0.00135079 -6.52362e-22)
(0.0863607 0.00148672 -1.03297e-23)
(0.0854165 0.00164064 0)
(0.0843762 0.00181589 0)
(0.0832265 0.0020166 0)
(0.0819514 0.00224783 0)
(0.0805321 0.00251583 -1.22195e-23)
(0.0789456 0.00282842 -8.28959e-22)
(0.0771641 0.00319551 -3.55743e-23)
(0.0751539 0.00362988 8.62286e-22)
(0.0728731 0.004148 9.41906e-22)
(0.07027 0.00477119 -9.40658e-22)
(0.0672796 0.00552676 -3.14081e-23)
(0.0638202 0.00644872 -3.29552e-23)
(0.0597897 0.00757617 -1.14559e-21)
(0.0550631 0.00894502 1.10767e-21)
(0.0494951 0.0105651 -3.82997e-23)
(0.0429407 0.0123712 2.05037e-23)
(0.0353053 0.0141403 -1.44588e-21)
(0.0266278 0.015391 1.44581e-21)
(0.017232 0.0153144 -3.05801e-21)
(0.00823103 0.0127262 3.00672e-21)
(0.00200467 0.00598289 -3.08347e-21)
(0.0959604 0.000423975 -3.70391e-23)
(0.0957926 0.000429788 -1.29108e-23)
(0.095624 0.000418748 5.00222e-23)
(0.0954602 0.000391993 -1.02534e-22)
(0.0953054 0.000356905 2.19189e-22)
(0.0951608 0.000324468 -1.03739e-22)
(0.0950239 0.000305463 1.62784e-26)
(0.0948893 0.000306679 1.34057e-23)
(0.0947499 0.000329411 2.33041e-22)
(0.0945992 0.000370251 -2.19206e-22)
(0.0944313 0.000424649 0)
(0.0942439 0.00048858 1.35369e-26)
(0.0940346 0.000558362 0)
(0.0938007 0.000630572 2.52462e-22)
(0.0935416 0.000704196 -2.22537e-22)
(0.0932568 0.000779398 -4.77815e-22)
(0.0929454 0.000856893 2.5542e-23)
(0.0926063 0.000937706 -5.02128e-22)
(0.0922379 0.00102302 1.61829e-23)
(0.0918385 0.00111412 -5.34712e-22)
(0.0914056 0.00121235 5.51081e-22)
(0.0909366 0.00131921 -5.59484e-22)
(0.0904283 0.00143635 5.76625e-22)
(0.0898767 0.00156564 1.81055e-23)
(0.0892774 0.00170912 -1.85703e-23)
(0.0886252 0.00186907 1.9066e-23)
(0.0879141 0.00204802 -6.36973e-22)
(0.0871372 0.0022489 6.56563e-22)
(0.0862865 0.0024753 6.96805e-22)
(0.0853529 0.00273167 -6.75397e-22)
(0.0843256 0.00302355 0)
(0.0831921 0.00335778 0)
(0.0819374 0.0037427 2.36785e-23)
(0.0805437 0.00418863 1.63025e-21)
(0.0789897 0.00470844 3.9614e-23)
(0.07725 0.00531847 -1.6412e-21)
(0.0752939 0.00603962 0)
(0.0730839 0.00689885 -2.88011e-23)
(0.0705741 0.00793089 2.01183e-21)
(0.0677078 0.0091801 -4.02479e-21)
(0.0644146 0.0107013 4.28705e-21)
(0.0606067 0.0125567 1.45706e-22)
(0.0561759 0.0148011 -2.24903e-21)
(0.0509925 0.0174433 -2.48185e-21)
(0.0449134 0.020366 2.55784e-21)
(0.0378097 0.0231935 1.74233e-24)
(0.0296225 0.0251321 -4.45693e-23)
(0.0204817 0.0248624 2.96645e-21)
(0.0110841 0.0205119 -2.87244e-21)
(0.00316293 0.00954673 -2.8715e-21)
(0.0960017 0.000587548 2.44257e-23)
(0.0958371 0.000597642 -1.23711e-23)
(0.0956691 0.000586042 2.24101e-26)
(0.0955016 0.000554151 1.26835e-23)
(0.0953374 0.000511483 -2.21817e-26)
(0.0951776 0.000472721 2.09732e-22)
(0.0950212 0.00045138 -3.9594e-22)
(0.0948643 0.000455715 2.12598e-22)
(0.0947016 0.000487628 -1.35752e-23)
(0.0945289 0.000544184 2.50155e-22)
(0.0943434 0.000618505 -2.22488e-22)
(0.0941412 0.000705346 -4.59889e-22)
(0.0939189 0.000798426 9.27635e-22)
(0.093675 0.000895234 -9.44033e-22)
(0.0934087 0.000994761 9.61282e-22)
(0.0931189 0.00109714 -9.64204e-22)
(0.0928042 0.00120327 -5.09944e-22)
(0.0924632 0.00131451 2.18534e-26)
(0.0920941 0.00143243 0)
(0.091695 0.00155871 -5.20938e-22)
(0.0912635 0.00169521 5.37322e-22)
(0.0907969 0.00184393 0)
(0.0902919 0.00200716 -1.15412e-21)
(0.0897448 0.00218747 1.13543e-21)
(0.0891513 0.00238773 1.8747e-23)
(0.0885063 0.00261108 -3.32272e-26)
(0.0878041 0.00286105 1.97686e-23)
(0.0870382 0.00314173 0)
(0.0862009 0.00345813 -4.74188e-26)
(0.0852838 0.00381643 0)
(0.0842768 0.00422432 -2.2343e-23)
(0.0831684 0.00469125 1.50833e-21)
(0.081945 0.00522876 -1.50788e-21)
(0.0805906 0.00585107 -2.49172e-23)
(0.0790866 0.00657587 5.16379e-23)
(0.0774108 0.00742554 -1.78227e-21)
(0.0755373 0.00842863 1.72684e-21)
(0.073435 0.00962173 2.92989e-23)
(0.0710673 0.0110518 -3.56135e-25)
(0.0683899 0.0127784 3.1588e-23)
(0.0653497 0.0148743 -2.18263e-21)
(0.0618809 0.01742 4.4299e-21)
(0.057901 0.0204822 -2.31832e-21)
(0.0533025 0.0240586 2.44783e-21)
(0.047943 0.0279689 -2.56313e-21)
(0.0416359 0.0316842 -5.21185e-21)
(0.0341633 0.0341215 1.06765e-20)
(0.0253656 0.0334956 -5.42709e-21)
(0.0153854 0.0273368 0)
(0.00486915 0.0125587 -5.10947e-21)
(0.0960559 0.000745687 -1.21167e-23)
(0.0958952 0.000761921 -4.93752e-23)
(0.0957282 0.00075337 1.49498e-22)
(0.0955564 0.000721643 -2.01569e-22)
(0.0953819 0.000677639 8.87127e-23)
(0.0952056 0.00063814 1.29689e-23)
(0.0950269 0.000618685 -1.3161e-23)
(0.0948447 0.000628776 -2.65307e-26)
(0.0946576 0.000670558 1.35726e-23)
(0.0944623 0.000740914 -2.75601e-23)
(0.0942559 0.000832378 -4.52177e-22)
(0.094036 0.000937118 4.66647e-22)
(0.0937999 0.00105017 -4.54018e-22)
(0.093546 0.0011687 4.68701e-22)
(0.0932725 0.00129152 0)
(0.0929777 0.00141883 -2.43822e-26)
(0.0926601 0.00155174 0)
(0.0923179 0.00169187 -5.01587e-22)
(0.091949 0.0018411 5.3418e-22)
(0.0915514 0.00200149 -1.67366e-23)
(0.0911227 0.00217529 -1.12555e-21)
(0.0906601 0.00236501 1.10893e-21)
(0.0901604 0.00257351 -1.79857e-23)
(0.0896203 0.00280407 0)
(0.0890354 0.00306032 0)
(0.0884012 0.00334626 -1.28307e-21)
(0.0877121 0.00366638 1.24411e-21)
(0.086962 0.00402592 0)
(0.0861441 0.00443125 -4.25594e-23)
(0.0852505 0.00489025 0)
(0.0842724 0.00541266 2.27349e-23)
(0.0831994 0.00601041 -2.3456e-23)
(0.0820201 0.00669803 -2.43836e-23)
(0.0807208 0.00749335 2.51873e-23)
(0.0792862 0.00841854 1.65768e-21)
(0.0776989 0.0095014 -1.71087e-21)
(0.0759391 0.0107772 3.73301e-21)
(0.0739846 0.012291 -3.73559e-21)
(0.0718111 0.0141 3.99431e-21)
(0.0693914 0.0162761 1.38018e-22)
(0.0666958 0.0189059 -4.2326e-21)
(0.063689 0.0220821 -3.43721e-23)
(0.0603232 0.0258748 1.30818e-24)
(0.05652 0.0302603 1.79502e-24)
(0.0521359 0.0349889 2.47284e-24)
(0.0469052 0.0393875 -7.78319e-23)
(0.0403908 0.0421301 -3.64732e-23)
(0.0320326 0.0410468 -3.48894e-23)
(0.0212781 0.0331321 0)
(0.00713459 0.0149882 1.00634e-23)
(0.0961222 0.000897054 -6.01282e-23)
(0.0959667 0.000921229 3.61681e-23)
(0.0958021 0.000919596 1.23369e-23)
(0.095628 0.000893757 1.88888e-22)
(0.0954447 0.000855175 -1.88982e-22)
(0.0952531 0.000821024 1.94776e-22)
(0.0950542 0.000807969 -4.31991e-22)
(0.0948492 0.000826466 6.13663e-22)
(0.0946386 0.000878748 -4.29584e-22)
(0.0944213 0.000960418 -4.43948e-22)
(0.0941959 0.00106493 -2.14126e-23)
(0.0939603 0.001185 8.98926e-22)
(0.0937123 0.00131542 -9.45066e-22)
(0.0934497 0.00145319 4.40406e-22)
(0.0931703 0.00159718 4.73419e-22)
(0.0928722 0.00174774 4.93052e-22)
(0.0925532 0.00190618 -3.61131e-23)
(0.0922115 0.00207433 1.00491e-21)
(0.0918448 0.00225432 1.0339e-21)
(0.0914509 0.00244855 2.41612e-23)
(0.0910273 0.00265963 -1.09417e-21)
(0.0905715 0.00289055 0)
(0.0900804 0.00314475 0)
(0.0895508 0.00342616 -1.21174e-21)
(0.0889788 0.0037392 1.19434e-21)
(0.08836 0.00408872 1.28303e-21)
(0.0876896 0.0044802 -1.28493e-21)
(0.0869621 0.00492003 0)
(0.0861713 0.00541597 1.43004e-21)
(0.0853105 0.00597759 -1.4328e-21)
(0.0843722 0.00661667 0)
(0.0833479 0.00734755 -3.09737e-21)
(0.0822283 0.00818761 3.12603e-21)
(0.0810032 0.00915809 -2.58227e-23)
(0.0796614 0.0102852 -3.46442e-21)
(0.0781912 0.0116014 3.4965e-21)
(0.0765806 0.0131477 0)
(0.0748187 0.0149752 3.96058e-21)
(0.0728963 0.0171479 -3.93629e-21)
(0.0708084 0.0197444 3.22911e-23)
(0.0685549 0.0228556 4.43939e-21)
(0.0661401 0.0265722 -8.9598e-21)
(0.0635613 0.030948 -3.75523e-23)
(0.0607789 0.0359166 -2.314e-23)
(0.0576521 0.0411447 4.81546e-21)
(0.0538287 0.0458298 4.50474e-24)
(0.0486205 0.0484786 -4.3096e-21)
(0.0409609 0.046696 4.41781e-21)
(0.0293045 0.0371853 0)
(0.0102629 0.0164734 4.01389e-23)
(0.0961991 0.00104019 1.18533e-23)
(0.0960504 0.00107345 1.08948e-22)
(0.0958907 0.00108164 -9.71525e-23)
(0.0957176 0.00106607 1.24342e-23)
(0.0955301 0.0010379 1.90652e-22)
(0.0953289 0.00101414 -1.90978e-22)
(0.0951161 0.00101127 -4.07607e-22)
(0.0948945 0.00103962 6.87702e-24)
(0.0946664 0.00110172 -6.7501e-24)
(0.0944326 0.00119383 4.51009e-22)
(0.0941929 0.00130967 -4.38891e-22)
(0.0939459 0.00144263 9.3044e-22)
(0.0936895 0.0015878 -4.63184e-22)
(0.0934214 0.00174237 1.49237e-23)
(0.0931391 0.00190548 1.52427e-23)
(0.0928404 0.00207764 1.00574e-21)
(0.0925229 0.00226033 -4.65857e-24)
(0.0921846 0.00245557 1.04786e-21)
(0.0918232 0.00266574 1.66963e-23)
(0.0914365 0.00289352 0)
(0.091022 0.00314192 0)
(0.0905774 0.00341439 -1.16571e-21)
(0.0900997 0.00371499 1.16866e-21)
(0.0895861 0.00404834 0)
(0.0890332 0.00441966 1.95786e-23)
(0.0884372 0.00483473 0)
(0.0877939 0.00530007 -1.34848e-21)
(0.0870987 0.00582335 2.74404e-21)
(0.0863465 0.00641388 -1.39566e-21)
(0.0855319 0.0070831 -2.95375e-21)
(0.0846493 0.00784499 -9.82361e-23)
(0.0836924 0.00871646 -1.04759e-22)
(0.082655 0.00971794 -1.11544e-22)
(0.0815306 0.0108742 3.32179e-21)
(0.0803131 0.0122155 3.57382e-21)
(0.0789977 0.013779 -3.58233e-21)
(0.0775816 0.0156104 0)
(0.076066 0.0177656 4.00959e-21)
(0.0744589 0.0203115 -4.0189e-21)
(0.0727784 0.0233253 -4.33708e-21)
(0.0710564 0.0268872 4.31344e-21)
(0.0693383 0.0310596 3.56963e-23)
(0.0676704 0.0358384 4.53578e-21)
(0.0660598 0.0410594 -5.65607e-23)
(0.0643876 0.0462499 -4.57226e-21)
(0.0622584 0.0504542 3.54606e-23)
(0.0588102 0.0520983 0)
(0.0525774 0.0488848 -2.89934e-23)
(0.040814 0.0378867 -1.57616e-21)
(0.0163747 0.0161884 5.85331e-22)
(-0.000308019 0.000243724 0)
(-0.000517326 -0.000140087 2.72056e-22)
(0.000442808 -0.000948933 -2.72464e-22)
(0.00303961 -0.00190591 -2.21308e-22)
(0.0073205 -0.00279755 2.2164e-22)
(0.0130095 -0.00347616 -5.47533e-24)
(0.0196516 -0.00387539 0)
(0.02675 -0.0040003 0)
(0.0338632 -0.00390181 0)
(0.040658 -0.00364932 0)
(0.0469231 -0.00331021 0)
(0.0525541 -0.00293856 0)
(0.0575277 -0.00257179 0)
(0.0618728 -0.00223212 0)
(0.0656469 -0.00193015 0)
(0.0689194 -0.00166867 1.51021e-23)
(0.07176 -0.0014459 -1.41602e-23)
(0.0742334 -0.0012578 0)
(0.0763966 -0.00109955 0)
(0.0782981 -0.000966359 -1.55907e-23)
(0.0799784 -0.000853929 1.56145e-23)
(0.081471 -0.000758566 -1.49787e-23)
(0.0828036 -0.000677215 1.01367e-24)
(0.0839989 -0.000607388 0)
(0.0850758 -0.00054708 1.02575e-24)
(0.0860498 -0.000494687 0)
(0.0869339 -0.000448923 0)
(0.0877392 -0.000408755 0)
(0.0884751 -0.000373347 1.02473e-24)
(0.0891496 -0.000342013 0)
(0.0897696 -0.000314183 -1.01375e-24)
(0.0903411 -0.000289378 1.00624e-24)
(0.0908691 -0.000267198 -9.9761e-25)
(0.0913582 -0.00024731 8.83046e-24)
(0.0918124 -0.000229437 -8.83213e-24)
(0.0922351 -0.000213346 -6.70098e-24)
(0.0926294 -0.000198841 1.4297e-23)
(0.092998 -0.000185756 -7.5841e-24)
(0.0933435 -0.000173953 -9.29536e-25)
(0.0936681 -0.000163317 9.16466e-25)
(0.0939739 -0.000153756 0)
(0.0942629 -0.0001452 8.89569e-25)
(0.0945367 -0.000137607 -4.34715e-24)
(0.0947972 -0.000130959 4.33875e-24)
(0.0950462 -0.00012527 -8.48164e-25)
(0.0952855 -0.000120588 2.48713e-24)
(0.0955171 -0.000116979 -8.35076e-25)
(0.0957431 -0.000114464 -1.60543e-24)
(0.0959655 -0.000112868 8.0015e-25)
(0.0961858 -0.000111585 -7.79218e-25)
(-0.000224154 0.000599415 -1.16734e-21)
(-7.43213e-07 -0.000644191 -1.16192e-21)
(0.00168145 -0.00302106 1.14419e-21)
(0.00493438 -0.00579519 -4.4776e-22)
(0.00966467 -0.00836584 4.50458e-22)
(0.0155551 -0.0103169 5.51303e-24)
(0.0221724 -0.0114626 -9.61643e-24)
(0.0290794 -0.0118178 -2.14419e-22)
(0.0359049 -0.0115273 2.07015e-22)
(0.0423765 -0.0107898 -4.79313e-24)
(0.0483258 -0.00979899 -3.8499e-24)
(0.0536737 -0.00871114 8.72834e-23)
(0.0584077 -0.0076352 -8.74003e-23)
(0.062558 -0.00663642 -6.98306e-23)
(0.0661784 -0.00574638 3.87774e-24)
(0.0693316 -0.00497392 6.61346e-23)
(0.072081 -0.00431441 -9.69591e-25)
(0.074485 -0.00375645 -2.0609e-24)
(0.0765954 -0.00328617 0)
(0.0784567 -0.00288978 0)
(0.0801062 -0.00255473 0)
(0.081575 -0.00227022 -1.00853e-24)
(0.0828891 -0.00202729 6.27036e-23)
(0.0840699 -0.0018186 -6.79895e-23)
(0.0851351 -0.00163821 6.52541e-23)
(0.0860997 -0.0014814 -3.32079e-23)
(0.0869763 -0.00134437 -6.63342e-23)
(0.0877755 -0.00122405 3.31699e-23)
(0.0885063 -0.00111798 -1.02737e-24)
(0.0891765 -0.0010241 -2.06338e-24)
(0.0897929 -0.000940718 1.01597e-24)
(0.0903613 -0.000866398 -3.0389e-24)
(0.0908867 -0.000799943 3.08522e-23)
(0.0913735 -0.000740355 -6.44249e-23)
(0.0918256 -0.000686803 3.05825e-23)
(0.0922465 -0.00063859 -2.91081e-24)
(0.0926392 -0.000595128 9.55502e-25)
(0.0930063 -0.000555919 0)
(0.0933505 -0.000520546 -1.57144e-23)
(0.0936738 -0.00048866 1.3882e-23)
(0.0939784 -0.000459984 1.25324e-23)
(0.0942661 -0.000434309 -1.70345e-23)
(0.0945388 -0.000411497 8.75649e-25)
(0.094798 -0.000391491 4.24805e-24)
(0.0950456 -0.000374323 -7.69437e-24)
(0.0952832 -0.000360122 -8.33547e-25)
(0.0955128 -0.00034907 -5.70834e-24)
(0.0957363 -0.000341218 -7.46085e-25)
(0.0959555 -0.000336047 1.6284e-24)
(0.0961718 -0.000331783 2.34864e-24)
(-5.54777e-06 0.000576917 -1.29669e-21)
(0.00114302 -0.00173398 1.26691e-21)
(0.00420885 -0.00556045 -1.22892e-21)
(0.00866515 -0.00988998 -1.63186e-23)
(0.0142012 -0.0138471 -1.23432e-24)
(0.0204353 -0.0168317 -7.10834e-22)
(0.0269806 -0.0185772 7.34385e-22)
(0.0335133 -0.0191077 4.78796e-22)
(0.0397908 -0.0186405 -8.99474e-23)
(0.0456518 -0.0174755 -6.69646e-22)
(0.0510059 -0.015909 5.4835e-22)
(0.0558198 -0.0141827 -2.40903e-22)
(0.0601009 -0.0124676 -3.26121e-24)
(0.0638819 -0.0108678 0)
(0.0672093 -0.00943529 1.52743e-22)
(0.0701345 -0.00818634 -9.30258e-24)
(0.0727083 -0.00711539 -1.41208e-22)
(0.0749781 -0.00620577 4.36226e-24)
(0.0769859 -0.00543642 0)
(0.0787686 -0.00478596 0)
(0.0803575 -0.00423473 6.82678e-23)
(0.0817792 -0.00376566 -6.61371e-23)
(0.0830565 -0.00336441 -6.62639e-23)
(0.084208 -0.00301922 7.05397e-23)
(0.0852499 -0.0027205 2.17346e-24)
(0.0861958 -0.00246056 -2.1637e-24)
(0.087057 -0.00223324 2.15191e-24)
(0.0878436 -0.00203355 -6.52667e-23)
(0.0885639 -0.00185741 6.74685e-23)
(0.0892254 -0.00170146 -6.22453e-23)
(0.0898345 -0.0015629 6.64851e-23)
(0.0903966 -0.00143937 2.03869e-24)
(0.0909166 -0.00132888 6.44295e-23)
(0.0913986 -0.0012298 -1.26186e-22)
(0.0918466 -0.00114074 6.57221e-23)
(0.0922638 -0.00106057 3.29748e-23)
(0.0926531 -0.000988287 -2.91224e-23)
(0.0930173 -0.000923071 0)
(0.0933587 -0.000864216 -8.97655e-27)
(0.0936794 -0.00081114 0)
(0.0939816 -0.00076337 2.87691e-23)
(0.0942669 -0.000720548 -2.70205e-23)
(0.0945371 -0.00068243 1.75818e-24)
(0.0947938 -0.000648897 -3.9953e-27)
(0.0950385 -0.000619972 1.34436e-23)
(0.095273 -0.000595826 -2.50031e-23)
(0.0954988 -0.000576712 1.32225e-23)
(0.0957175 -0.000562677 -6.37485e-24)
(0.0959308 -0.000552878 4.83032e-24)
(0.0961397 -0.000544504 1.58071e-24)
(0.000500856 5.08183e-05 -2.98412e-21)
(0.0031734 -0.0036482 0)
(0.00809685 -0.00877341 2.52261e-21)
(0.0141047 -0.0142682 -4.801e-21)
(0.0206256 -0.0191745 2.29135e-21)
(0.0272302 -0.0228365 7.97244e-22)
(0.0336153 -0.0249631 -8.38352e-22)
(0.0396097 -0.0255871 5.54816e-22)
(0.0451356 -0.0249655 -1.01051e-21)
(0.0501702 -0.0234593 4.48449e-22)
(0.0547217 -0.0214311 5.64645e-24)
(0.0588145 -0.0191835 8.23036e-25)
(0.062481 -0.016935 3.31705e-24)
(0.0657577 -0.0148226 -1.9688e-22)
(0.0686819 -0.0129178 1.90784e-22)
(0.0712905 -0.0112458 5.39018e-24)
(0.0736184 -0.00980316 -2.38251e-24)
(0.0756981 -0.00857087 1.54053e-22)
(0.0775593 -0.00752335 -1.53829e-22)
(0.0792285 -0.00663383 -2.44568e-24)
(0.0807291 -0.00587721 0)
(0.0820817 -0.00523133 1.40985e-25)
(0.0833041 -0.00467745 0)
(0.084412 -0.00419992 2.30691e-24)
(0.0854187 -0.00378602 8.74126e-26)
(0.0863359 -0.00342536 2.18422e-24)
(0.0871736 -0.00310963 -1.42251e-22)
(0.0879408 -0.00283203 1.40186e-22)
(0.088645 -0.00258701 0)
(0.0892929 -0.00236994 -6.79414e-23)
(0.0898905 -0.00217697 7.01415e-23)
(0.0904427 -0.00200483 0)
(0.0909541 -0.00185082 -2.81078e-26)
(0.0914287 -0.00171268 -6.6646e-23)
(0.0918701 -0.00158851 1.30363e-22)
(0.0922814 -0.00147671 -1.26476e-22)
(0.0926655 -0.00137591 1.24581e-22)
(0.093025 -0.00128494 -1.22619e-22)
(0.0933621 -0.00120281 6.08173e-23)
(0.0936788 -0.00112869 2.94086e-23)
(0.0939772 -0.00106191 -2.5772e-23)
(0.0942588 -0.00100195 -1.79562e-24)
(0.0945253 -0.00094844 -2.78926e-23)
(0.0947782 -0.000901171 5.87629e-23)
(0.0950188 -0.000860116 -2.74108e-23)
(0.0952487 -0.000825434 3.54574e-27)
(0.0954691 -0.00079738 1.63367e-24)
(0.0956813 -0.000775956 -2.00839e-27)
(0.0958865 -0.000760032 -1.57339e-24)
(0.0960856 -0.000745968 3.08791e-24)
(0.00142545 -0.00112771 -2.64132e-24)
(0.00640376 -0.00654903 -2.75543e-23)
(0.0134779 -0.012711 -2.47896e-23)
(0.021087 -0.0188713 -2.21494e-23)
(0.0285126 -0.0242076 -3.73814e-23)
(0.0353545 -0.0281411 -1.64786e-24)
(0.0414373 -0.0304102 1.28633e-23)
(0.0467591 -0.0310489 -1.21993e-23)
(0.0514089 -0.030314 -1.01735e-23)