/*--------------------------------*- C++ -*----------------------------------*\
| =========                 |                                                 |
| \\      /  F ield         | OpenFOAM: The Open Source CFD Toolbox           |
|  \\    /   O peration     | Version:  2412                                  |
|   \\  /    A nd           | Website:  www.openfoam.com                      |
|    \\/     M anipulation  |                                                 |
\*---------------------------------------------------------------------------*/
FoamFile
{
    version     2.0;
    format      ascii;
    arch        "LSB;label=32;scalar=64";
    class       volVectorField;
    location    "2.5";
    object      vorticity;
}
// * * * * * * * * * * * * * * * * * * * * * * * * * * * * * * * * * * * * * //

dimensions      [0 0 -1 0 0 0 0];

internalField   nonuniform List<vector> 
63420
(
(0 0 0.000202658)
(0 0 3.32932e-05)
(0 0 -0.000156242)
(0 0 -0.000168987)
(0 0 -0.000102634)
(0 0 -4.43473e-05)
(0 0 -1.38963e-05)
(0 0 -1.74323e-06)
(0 0 2.37602e-06)
(0 0 3.63734e-06)
(0 0 4.0088e-06)
(0 0 4.13818e-06)
(0 0 4.20544e-06)
(0 0 4.26198e-06)
(0 0 4.31395e-06)
(0 0 4.3736e-06)
(0 0 4.43354e-06)
(0 0 4.48047e-06)
(0 0 4.53102e-06)
(0 0 4.59719e-06)
(0 0 4.67073e-06)
(0 0 4.74239e-06)
(0 0 4.81099e-06)
(0 0 4.879e-06)
(0 0 4.95247e-06)
(0 0 5.03383e-06)
(0 0 5.12361e-06)
(0 0 5.22211e-06)
(0 0 5.32793e-06)
(0 0 5.43974e-06)
(0 0 5.55629e-06)
(0 0 5.6813e-06)
(0 0 5.81902e-06)
(0 0 5.97258e-06)
(0 0 6.14226e-06)
(0 0 6.32711e-06)
(0 0 6.53032e-06)
(0 0 6.75279e-06)
(0 0 6.99662e-06)
(0 0 7.26211e-06)
(0 0 7.55331e-06)
(0 0 7.87714e-06)
(0 0 8.24207e-06)
(0 0 8.65766e-06)
(0 0 9.13338e-06)
(0 0 9.68317e-06)
(0 0 1.03289e-05)
(0 0 1.11081e-05)
(0 0 1.20753e-05)
(0 0 1.32616e-05)
(0 0 1.44464e-05)
(0 0 1.4474e-05)
(0 0 1.00299e-05)
(0 0 -5.13798e-06)
(0 6.14339e-23 -3.80074e-05)
(0 0 0.000601458)
(0 0 6.95761e-05)
(0 0 -0.000493919)
(0 0 -0.000521668)
(0 0 -0.00031555)
(0 0 -0.000137709)
(0 0 -4.53128e-05)
(0 0 -8.54091e-06)
(0 0 3.86653e-06)
(0 0 7.62035e-06)
(0 0 8.70799e-06)
(0 0 9.0697e-06)
(0 0 9.24448e-06)
(0 0 9.37406e-06)
(0 0 9.4943e-06)
(0 0 9.62155e-06)
(0 0 9.74905e-06)
(0 0 9.87188e-06)
(0 0 1.00078e-05)
(0 0 1.01666e-05)
(0 0 1.03367e-05)
(0 0 1.05091e-05)
(0 0 1.06848e-05)
(0 0 1.08713e-05)
(0 0 1.10737e-05)
(0 0 1.12938e-05)
(0 0 1.1534e-05)
(0 0 1.1798e-05)
(0 0 1.20867e-05)
(0 0 1.2398e-05)
(0 0 1.27323e-05)
(0 0 1.30947e-05)
(0 0 1.34907e-05)
(0 0 1.39239e-05)
(0 0 1.43972e-05)
(0 0 1.4914e-05)
(0 0 1.54804e-05)
(0 0 1.6101e-05)
(0 0 1.6782e-05)
(0 0 1.75331e-05)
(0 0 1.837e-05)
(0 0 1.93117e-05)
(0 0 2.03789e-05)
(0 0 2.15953e-05)
(0 0 2.29919e-05)
(0 0 2.46147e-05)
(0 0 2.65351e-05)
(0 0 2.88665e-05)
(0 0 3.17691e-05)
(0 0 3.53301e-05)
(0 0 3.89029e-05)
(0 0 3.91214e-05)
(0 0 2.63449e-05)
(0 0 -1.75958e-05)
(0 6.1968e-23 -0.000112933)
(0 0 0.000982551)
(0 0 2.88104e-05)
(0 0 -0.00089558)
(0 0 -0.000911075)
(0 0 -0.000547879)
(0 0 -0.000243026)
(0 0 -8.62162e-05)
(0 0 -2.4161e-05)
(0 0 -3.36023e-06)
(0 0 2.82107e-06)
(0 0 4.52012e-06)
(0 0 5.00156e-06)
(0 0 5.17298e-06)
(0 0 5.26931e-06)
(0 0 5.35684e-06)
(0 0 5.45272e-06)
(0 0 5.55165e-06)
(0 0 5.65952e-06)
(0 0 5.79092e-06)
(0 0 5.95143e-06)
(0 0 6.12938e-06)
(0 0 6.3173e-06)
(0 0 6.51812e-06)
(0 0 6.74332e-06)
(0 0 6.99728e-06)
(0 0 7.28148e-06)
(0 0 7.59924e-06)
(0 0 7.9567e-06)
(0 0 8.3562e-06)
(0 0 8.79672e-06)
(0 0 9.28066e-06)
(0 0 9.81384e-06)
(0 0 1.04021e-05)
(0 0 1.10501e-05)
(0 0 1.17637e-05)
(0 0 1.25501e-05)
(0 0 1.34184e-05)
(0 0 1.43763e-05)
(0 0 1.5435e-05)
(0 0 1.66129e-05)
(0 0 1.79362e-05)
(0 0 1.9435e-05)
(0 0 2.11415e-05)
(0 0 2.30934e-05)
(0 0 2.53417e-05)
(0 0 2.79616e-05)
(0 0 3.10694e-05)
(0 0 3.48466e-05)
(0 0 3.95479e-05)
(0 0 4.53118e-05)
(0 0 5.11273e-05)
(0 0 5.17231e-05)
(0 0 3.20064e-05)
(0 0 -3.64349e-05)
(0 3.66192e-22 -0.000185131)
(0 0 0.00133378)
(0 0 -0.000102855)
(0 0 -0.00136201)
(0 0 -0.00133431)
(0 0 -0.000797969)
(0 0 -0.000360793)
(0 0 -0.000138363)
(0 0 -5.09238e-05)
(0 0 -2.18638e-05)
(0 0 -1.34373e-05)
(0 0 -1.13084e-05)
(0 0 -1.08839e-05)
(0 0 -1.08853e-05)
(0 0 -1.09832e-05)
(0 0 -1.1084e-05)
(0 0 -1.11709e-05)
(0 0 -1.12468e-05)
(0 0 -1.12958e-05)
(0 0 -1.13094e-05)
(0 0 -1.12875e-05)
(0 0 -1.12397e-05)
(0 0 -1.11709e-05)
(0 0 -1.10749e-05)
(0 0 -1.09392e-05)
(0 0 -1.07597e-05)
(0 0 -1.05355e-05)
(0 0 -1.02631e-05)
(0 0 -9.93493e-06)
(0 0 -9.54773e-06)
(0 0 -9.10008e-06)
(0 0 -8.58826e-06)
(0 0 -8.00567e-06)
(0 0 -7.34692e-06)
(0 0 -6.60624e-06)
(0 0 -5.77447e-06)
(0 0 -4.84122e-06)
(0 0 -3.79518e-06)
(0 0 -2.62579e-06)
(0 0 -1.31729e-06)
(0 0 1.5629e-07)
(0 0 1.82929e-06)
(0 0 3.74098e-06)
(0 0 5.93334e-06)
(0 0 8.45634e-06)
(0 0 1.13778e-05)
(0 0 1.47974e-05)
(0 0 1.88669e-05)
(0 0 2.38214e-05)
(0 0 2.99885e-05)
(0 0 3.75459e-05)
(0 0 4.52031e-05)
(0 0 4.62363e-05)
(0 0 2.14148e-05)
(0 0 -6.54194e-05)
(0 -2.40624e-22 -0.00025429)
(0 0 0.00164084)
(0 0 -0.000288153)
(0 0 -0.00184407)
(0 0 -0.00175537)
(0 0 -0.00104674)
(0 0 -0.000481809)
(0 0 -0.000196923)
(0 0 -8.56049e-05)
(0 0 -4.89392e-05)
(0 0 -3.86038e-05)
(0 0 -3.62717e-05)
(0 0 -3.60936e-05)
(0 0 -3.64413e-05)
(0 0 -3.68966e-05)
(0 0 -3.73448e-05)
(0 0 -3.77678e-05)
(0 0 -3.81668e-05)
(0 0 -3.85197e-05)
(0 0 -3.88247e-05)
(0 0 -3.90877e-05)
(0 0 -3.93151e-05)
(0 0 -3.9508e-05)
(0 0 -3.96576e-05)
(0 0 -3.97515e-05)
(0 0 -3.97874e-05)
(0 0 -3.97641e-05)
(0 0 -3.96786e-05)
(0 0 -3.95238e-05)
(0 0 -3.92952e-05)
(0 0 -3.89892e-05)
(0 0 -3.86006e-05)
(0 0 -3.8123e-05)
(0 0 -3.75516e-05)
(0 0 -3.68794e-05)
(0 0 -3.60947e-05)
(0 0 -3.5185e-05)
(0 0 -3.41383e-05)
(0 0 -3.29419e-05)
(0 0 -3.15761e-05)
(0 0 -3.00104e-05)
(0 0 -2.82051e-05)
(0 0 -2.61156e-05)
(0 0 -2.36931e-05)
(0 0 -2.08786e-05)
(0 0 -1.75931e-05)
(0 0 -1.37212e-05)
(0 0 -9.08909e-06)
(0 0 -3.43043e-06)
(0 0 3.62326e-06)
(0 0 1.22647e-05)
(0 0 2.10131e-05)
(0 0 2.22238e-05)
(0 0 -5.90853e-06)
(0 0 -0.000104356)
(0 1.18807e-22 -0.000318529)
(0 0 0.00189017)
(0 0 -0.000444503)
(0 0 -0.00225042)
(0 0 -0.00211321)
(0 0 -0.00126101)
(0 0 -0.000588322)
(0 0 -0.00025056)
(0 0 -0.000119087)
(0 0 -7.61156e-05)
(0 0 -6.43244e-05)
(0 0 -6.19767e-05)
(0 0 -6.2154e-05)
(0 0 -6.29322e-05)
(0 0 -6.38203e-05)
(0 0 -6.46902e-05)
(0 0 -6.552e-05)
(0 0 -6.63106e-05)
(0 0 -6.70388e-05)
(0 0 -6.77086e-05)
(0 0 -6.83311e-05)
(0 0 -6.89094e-05)
(0 0 -6.94402e-05)
(0 0 -6.99138e-05)
(0 0 -7.03192e-05)
(0 0 -7.06561e-05)
(0 0 -7.09231e-05)
(0 0 -7.11178e-05)
(0 0 -7.12349e-05)
(0 0 -7.12687e-05)
(0 0 -7.1214e-05)
(0 0 -7.1065e-05)
(0 0 -7.08161e-05)
(0 0 -7.04629e-05)
(0 0 -6.99975e-05)
(0 0 -6.94071e-05)
(0 0 -6.86788e-05)
(0 0 -6.78012e-05)
(0 0 -6.67608e-05)
(0 0 -6.5536e-05)
(0 0 -6.40945e-05)
(0 0 -6.23959e-05)
(0 0 -6.03942e-05)
(0 0 -5.8038e-05)
(0 0 -5.52651e-05)
(0 0 -5.19926e-05)
(0 0 -4.81009e-05)
(0 0 -4.34117e-05)
(0 0 -3.76548e-05)
(0 0 -3.04602e-05)
(0 0 -2.16554e-05)
(0 0 -1.28302e-05)
(0 0 -1.20099e-05)
(0 0 -4.19736e-05)
(0 0 -0.000145557)
(0 5.86211e-22 -0.000370573)
(0 0 0.00208606)
(0 0 -0.000478047)
(0 0 -0.0024871)
(0 0 -0.00234634)
(0 0 -0.00140627)
(0 0 -0.000660744)
(0 0 -0.000285705)
(0 0 -0.000139852)
(0 0 -9.24235e-05)
(0 0 -7.96476e-05)
(0 0 -7.73433e-05)
(0 0 -7.78223e-05)
(0 0 -7.89485e-05)
(0 0 -8.01824e-05)
(0 0 -8.13904e-05)
(0 0 -8.25451e-05)
(0 0 -8.36477e-05)
(0 0 -8.46791e-05)
(0 0 -8.5647e-05)
(0 0 -8.65652e-05)
(0 0 -8.74346e-05)
(0 0 -8.82482e-05)
(0 0 -8.89968e-05)
(0 0 -8.96723e-05)
(0 0 -9.02749e-05)
(0 0 -9.08037e-05)
(0 0 -9.12572e-05)
(0 0 -9.16319e-05)
(0 0 -9.19216e-05)
(0 0 -9.212e-05)
(0 0 -9.22217e-05)
(0 0 -9.22224e-05)
(0 0 -9.21176e-05)
(0 0 -9.18995e-05)
(0 0 -9.15553e-05)
(0 0 -9.1074e-05)
(0 0 -9.0446e-05)
(0 0 -8.96576e-05)
(0 0 -8.86876e-05)
(0 0 -8.75054e-05)
(0 0 -8.60733e-05)
(0 0 -8.43482e-05)
(0 0 -8.22812e-05)
(0 0 -7.98129e-05)
(0 0 -7.68647e-05)
(0 0 -7.33246e-05)
(0 0 -6.90278e-05)
(0 0 -6.37269e-05)
(0 0 -5.70908e-05)
(0 0 -4.90031e-05)
(0 0 -4.10925e-05)
(0 0 -4.12679e-05)
(0 0 -7.1821e-05)
(0 0 -0.000174876)
(0 -1.14796e-22 -0.00039814)
(-1.49186e-23 8.09219e-21 -0.000100947)
(-1.94829e-22 7.92879e-21 -0.000181212)
(5.10202e-23 -2.62159e-22 -0.000258222)
(2.3916e-23 -2.37324e-20 -0.000300249)
(-1.26064e-22 8.1762e-21 -0.0002809)
(5.07093e-22 8.0177e-21 -0.000192488)
(-1.04584e-21 2.32739e-20 -4.90159e-05)
(3.97593e-22 -2.37686e-20 0.000121712)
(8.16217e-22 -7.59893e-21 0.000290387)
(-1.1997e-21 -4.69252e-24 0.000435703)
(-1.21794e-21 -7.67574e-21 0.000547771)
(1.06968e-21 7.20246e-21 0.00062636)
(6.5615e-22 -6.02153e-20 0.000677117)
(-1.17133e-21 1.29938e-19 0.000707596)
(3.57244e-22 -7.03794e-20 0.000724677)
(-1.69598e-21 -5.29513e-20 0.000733566)
(2.98379e-21 -6.72757e-20 0.000737774)
(-2.41238e-21 8.09234e-21 0.000739498)
(-2.74376e-22 -7.44011e-21 0.000739912)
(1.22516e-22 7.47591e-21 0.000739693)
(-4.10279e-24 -1.67817e-22 0.000739208)
(-1.18252e-22 -7.20475e-21 0.000738688)
(-2.57829e-21 7.3164e-21 0.000738231)
(5.45494e-21 1.64332e-23 0.000737738)
(1.61855e-21 7.12102e-21 0.000736902)
(-4.23906e-21 -7.20578e-24 0.000735324)
(6.11957e-21 8.61385e-21 0.00073274)
(-6.77239e-21 1.08045e-19 0.000729227)
(4.83118e-22 -1.16369e-19 0.000725229)
(-2.32841e-21 1.07031e-19 0.000721353)
(2.25859e-21 -1.0854e-19 0.000718031)
(6.22766e-23 1.72208e-21 0.000715299)
(-8.08241e-23 -2.10804e-21 0.000712824)
(2.92225e-21 -1.03977e-19 0.000710178)
(-1.05192e-20 1.01556e-19 0.0007071)
(-4.08857e-22 -1.98147e-21 0.000703492)
(7.95078e-21 1.73891e-23 0.000699004)
(8.66859e-21 1.89591e-23 0.000692153)
(-8.64085e-21 -1.88984e-23 0.000678501)
(-2.87973e-22 -6.29825e-25 0.000645985)
(-3.01593e-22 -6.59613e-25 0.000562445)
(-1.04644e-20 -2.28868e-23 0.000345195)
(1.00992e-20 2.20879e-23 -0.000202688)
(-3.38365e-22 2.02867e-22 -0.00149946)
(1.00175e-22 1.03415e-20 -0.0043084)
(-3.1965e-20 6.49489e-20 -0.0097721)
(3.07304e-20 -8.69904e-20 -0.0191846)
(-8.33587e-21 -1.24215e-20 -0.0334149)
(9.08987e-21 3.50379e-20 -0.0521973)
(-2.81809e-20 -7.84719e-21 -0.0735955)
(-3.3398e-22 8.12303e-21 -0.000295624)
(-1.07586e-22 1.59257e-20 -0.000529238)
(4.54926e-22 7.71481e-21 -0.000753138)
(-1.18376e-21 -7.95623e-21 -0.000874645)
(2.2001e-21 7.50783e-21 -0.000816984)
(-8.52106e-22 -5.44097e-20 -0.000558259)
(3.58309e-23 8.67579e-20 -0.000139847)
(-9.84353e-23 -9.43817e-21 0.000356964)
(2.46541e-21 -9.99905e-20 0.000846926)
(-2.37669e-21 1.42085e-19 0.00126839)
(-5.15971e-22 1.29291e-19 0.00159298)
(3.19791e-22 -1.17089e-19 0.00182064)
(-5.20099e-22 9.79943e-22 0.00196797)
(3.68285e-21 -7.42043e-21 0.00205672)
(-2.76842e-21 2.54482e-20 0.00210667)
(-6.62391e-21 2.47176e-19 0.00213302)
(9.50678e-22 -2.33396e-19 0.00214597)
(-6.06948e-21 2.50688e-19 0.0021516)
(-2.57073e-22 1.97191e-20 0.0021534)
(-5.04206e-21 -7.67875e-21 0.00215323)
(5.30066e-21 1.89397e-22 0.0021522)
(-5.26719e-21 1.00531e-20 0.00215105)
(2.87435e-21 2.18561e-19 0.00215005)
(4.45983e-21 -4.66892e-19 0.00214887)
(3.94077e-21 -2.21532e-19 0.00214654)
(-5.56331e-21 4.51377e-19 0.0021418)
(6.89987e-22 -4.52987e-19 0.00213383)
(1.58681e-21 4.66095e-19 0.00212284)
(4.2724e-21 3.75968e-22 0.00211015)
(-4.792e-21 -1.25488e-22 0.00209752)
(-1.60552e-21 -3.51143e-24 0.0020862)
(0 0 0.00207622)
(2.3718e-22 1.22839e-22 0.00206656)
(1.42371e-20 1.46633e-20 0.0020559)
(-1.28012e-20 3.92418e-19 0.0020434)
(-1.94859e-20 -2.64373e-20 0.00202855)
(1.5725e-20 -3.91063e-19 0.00200998)
(2.42412e-20 -3.39735e-19 0.00198274)
(-2.06104e-21 3.66866e-19 0.00193255)
(-3.98868e-20 1.30528e-21 0.0018211)
(4.01514e-20 2.12439e-20 0.0015472)
(-4.11272e-20 2.73645e-19 0.000853265)
(1.64534e-20 -2.87035e-19 -0.00086715)
(-2.35625e-20 1.85094e-20 -0.00488768)
(2.66575e-20 1.08686e-20 -0.0135086)
(-7.12361e-20 1.44064e-19 -0.030142)
(7.13647e-20 -1.40615e-19 -0.0586212)
(-1.19555e-19 1.09602e-19 -0.101483)
(1.15191e-19 -1.23205e-19 -0.157844)
(-2.60963e-20 -9.06338e-22 -0.220116)
(7.8021e-23 4.7963e-20 -0.000470456)
(-6.04088e-23 1.4953e-20 -0.000837679)
(3.36339e-22 -6.25825e-20 -0.00118979)
(-5.02036e-22 1.24688e-19 -0.00138076)
(1.08534e-21 -2.67947e-19 -0.0012903)
(1.21231e-21 1.28021e-19 -0.000885251)
(-3.26128e-21 -1.18051e-21 -0.000231824)
(1.97888e-21 -1.79321e-20 0.000541978)
(7.52947e-23 -2.62513e-19 0.00130309)
(2.85112e-21 2.51223e-19 0.00195613)
(-1.15125e-21 -2.18124e-21 0.00245817)
(-5.57598e-21 -4.34334e-23 0.00281012)
(8.90248e-21 -2.45715e-21 0.00303799)
(-7.28417e-21 -2.58166e-19 0.0031755)
(8.63556e-21 2.36708e-19 0.00325349)
(-1.13389e-20 4.68059e-19 0.00329528)
(-6.692e-21 -1.32202e-20 0.00331634)
(-2.19157e-21 4.82925e-19 0.00332595)
(4.29923e-22 -1.46623e-20 0.00332929)
(-1.17741e-20 4.70285e-19 0.00332916)
(1.14988e-20 -4.89538e-19 0.00332732)
(-7.04893e-21 4.69292e-19 0.00332497)
(-2.01147e-21 -4.89338e-19 0.0033226)
(6.64822e-21 -8.55295e-21 0.00331963)
(-3.16272e-21 1.436e-20 0.00331431)
(6.99262e-21 -8.09378e-21 0.00330439)
(-1.78736e-20 4.4399e-19 0.00328834)
(1.5238e-20 -4.76993e-19 0.00326642)
(1.60518e-20 -4.41064e-19 0.00324069)
(-1.20421e-20 4.46816e-19 0.00321388)
(-1.40407e-21 -6.70356e-21 0.00318778)
(1.45085e-20 -1.56801e-22 0.00316224)
(-1.69692e-20 -2.93475e-20 0.00313545)
(4.56997e-20 -8.2666e-19 0.00310512)
(1.96913e-20 6.18749e-20 0.00306957)
(-6.63776e-20 7.82881e-19 0.00302744)
(5.16243e-21 -1.59467e-20 0.00297554)
(-1.42483e-20 -8.4013e-21 0.00290418)
(1.05577e-19 -6.72377e-19 0.00278681)
(-1.89958e-19 1.33557e-18 0.00255311)
(1.88186e-19 -1.35176e-18 0.00201939)
(9.16584e-20 9.71068e-20 0.000725722)
(-1.61428e-19 6.06173e-19 -0.00239002)
(-1.75951e-19 4.2759e-19 -0.00951395)
(1.62416e-19 -5.14608e-19 -0.0245199)
(-3.1005e-20 2.61229e-20 -0.0530599)
(7.72142e-20 -2.45509e-20 -0.101397)
(2.15429e-19 -1.33907e-19 -0.173591)
(-2.35082e-19 2.14411e-19 -0.267978)
(-3.57689e-20 -5.71962e-20 -0.366092)
(4.40262e-22 -3.15785e-20 -0.000617393)
(-4.45777e-22 1.60501e-20 -0.00109061)
(9.58699e-22 -2.3213e-22 -0.00154753)
(-9.1447e-22 -1.57481e-20 -0.00180127)
(-1.33079e-21 -1.95395e-21 -0.00169851)
(2.53266e-21 -2.46728e-19 -0.00119789)
(-2.398e-21 4.69311e-19 -0.000384658)
(8.57704e-22 -2.53756e-19 0.000578562)
(-2.28854e-21 1.51917e-20 0.0015244)
(3.74143e-21 -2.77445e-19 0.00233409)
(-5.3751e-21 2.55284e-19 0.00295495)
(-4.45662e-22 4.82941e-19 0.00338922)
(4.36602e-21 -9.821e-19 0.00366983)
(-7.19226e-21 9.83527e-19 0.00383886)
(1.26174e-20 -9.80361e-19 0.00393448)
(-4.67385e-21 9.76343e-19 0.00398526)
(-7.6651e-21 4.93239e-19 0.00400993)
(-8.86662e-22 -5.05133e-21 0.00401969)
(5.97403e-21 5.16562e-21 0.00402065)
(-4.01667e-21 4.58819e-19 0.00401623)
(-8.89007e-21 -4.84068e-19 0.00400855)
(1.94834e-20 1.67677e-20 0.00399924)
(-2.95529e-20 9.30361e-19 0.00398902)
(1.89911e-20 -9.38022e-19 0.00397703)
(2.76511e-21 -3.37402e-21 0.00396056)
(-1.28291e-20 -6.74697e-23 0.00393609)
(1.90473e-20 -1.4211e-20 0.00390111)
(-6.28224e-21 1.61275e-22 0.0038556)
(-6.97217e-21 -2.70166e-23 0.00380201)
(6.55194e-21 2.54886e-22 0.0037436)
(-4.41127e-21 -1.15269e-21 0.00368224)
(5.49516e-20 -8.45308e-19 0.00361723)
(-4.74089e-20 8.74675e-19 0.00354574)
(-2.04324e-20 -2.36017e-21 0.00346429)
(2.33125e-20 -8.28688e-21 0.00336998)
(-8.92117e-20 7.91165e-19 0.00325991)
(1.12077e-19 -8.00129e-19 0.00312817)
(-3.03275e-20 4.92762e-21 0.00295905)
(2.10607e-20 5.54952e-24 0.0027109)
(4.92811e-20 1.05743e-20 0.00227389)
(-2.64559e-19 6.1607e-19 0.00136304)
(3.58831e-19 -1.2694e-18 -0.00072439)
(-1.71289e-19 6.49974e-19 -0.005577)
(2.88843e-19 -5.12996e-19 -0.0163881)
(-2.73622e-19 6.1528e-19 -0.0386879)
(-7.19316e-19 6.4029e-19 -0.0803921)
(1.37733e-18 -1.39794e-18 -0.150168)
(-6.89074e-19 7.24505e-19 -0.253608)
(2.63534e-20 -2.97017e-21 -0.388131)
(6.32046e-21 -4.93064e-20 -0.514781)
(-9.42773e-22 1.61906e-20 -0.000730829)
(-4.76792e-23 6.11756e-20 -0.00127977)
(1.61234e-21 -1.86648e-19 -0.00181979)
(-1.13934e-22 2.51244e-19 -0.0021398)
(-1.1605e-21 -1.11746e-19 -0.00206604)
(2.47685e-23 -1.46328e-20 -0.00155074)
(-4.99231e-22 1.57344e-20 -0.000687945)
(4.06635e-21 -2.39712e-22 0.000342366)
(-4.05995e-21 -1.53235e-20 0.0013557)
(-6.68781e-21 3.55978e-20 0.00222234)
(-3.20981e-21 4.91258e-19 0.00288546)
(1.84051e-20 -5.11795e-19 0.00334736)
(-2.43567e-20 4.78622e-19 0.00364357)
(1.89919e-20 -4.9885e-19 0.00381954)
(-4.00619e-21 4.54626e-21 0.00391601)
(1.45731e-20 1.02202e-22 0.00396321)
(5.57234e-21 4.92369e-21 0.00398078)
(1.837e-22 4.67178e-19 0.00398025)
(1.91899e-20 -5.07818e-19 0.00396789)
(8.56443e-21 3.14111e-20 0.00394708)
(-4.31315e-20 9.67956e-19 0.00392006)
(2.1368e-20 -9.75358e-19 0.00388875)
(1.36195e-20 2.58697e-20 0.00385403)
(-2.36771e-20 -3.06265e-22 0.00381459)
(1.54791e-20 1.25942e-20 0.00376648)
(-2.77041e-20 9.3946e-19 0.00370444)
(1.94536e-20 -9.35446e-19 0.00362442)
(3.70726e-21 1.2573e-20 0.00352552)
(1.32824e-20 2.87793e-20 0.00340981)
(-1.50008e-20 -7.15444e-22 0.00328022)
(1.09577e-21 -1.38237e-20 0.00313786)
(-4.79364e-20 1.41019e-20 0.00298072)
(4.61662e-20 1.34709e-20 0.00280426)
(-4.75489e-21 -2.99486e-20 0.00260315)
(6.23672e-20 -7.96601e-19 0.0023724)
(-4.93876e-20 8.20459e-19 0.00210668)
(2.3832e-19 -1.5993e-18 0.00179653)
(-2.08385e-19 1.61748e-18 0.00141944)
(2.65001e-19 -1.54093e-18 0.000917226)
(8.40288e-20 1.46906e-19 0.000135481)
(-3.10532e-19 1.47522e-18 -0.00132765)
(-1.60631e-19 -3.12498e-20 -0.00445559)
(2.15039e-20 2.57206e-22 -0.0114379)
(-2.54774e-20 4.78532e-22 -0.026594)
(7.53979e-20 2.01503e-21 -0.0572716)
(3.86876e-20 1.66461e-20 -0.113879)
(-1.59084e-19 6.24358e-21 -0.20793)
(9.29107e-20 6.37922e-21 -0.347411)
(-2.342e-22 -4.39814e-22 -0.529532)
(5.07423e-20 8.55728e-22 -0.678639)
(-5.14412e-22 7.7404e-20 -0.000802846)
(1.99312e-21 -4.74255e-20 -0.00139768)
(-2.37609e-21 -1.7043e-20 -0.00200225)
(4.33611e-21 -2.31336e-19 -0.00239987)
(-1.11191e-21 2.33723e-19 -0.00240945)
(1.23232e-22 -2.30934e-19 -0.0019769)
(-8.78784e-21 5.0966e-19 -0.00119194)
(6.4307e-21 -7.15691e-19 -0.000231535)
(-3.53266e-21 5.08687e-19 0.00072182)
(-9.16687e-22 4.93253e-19 0.00153903)
(-2.57191e-21 1.38705e-21 0.00216269)
(1.85247e-20 -9.70145e-19 0.00259362)
(-1.3608e-20 1.01393e-18 0.002865)
(-1.50686e-22 -4.79961e-19 0.00301963)
(8.53099e-21 -4.80306e-19 0.00309582)
(2.16309e-20 -4.72559e-19 0.0031218)
(-3.31323e-21 6.99661e-21 0.00311569)
(3.42461e-20 -9.8458e-19 0.00308789)
(2.12851e-20 -9.43606e-19 0.00304381)
(7.69058e-21 2.49387e-20 0.00298621)
(-1.57759e-20 9.83748e-19 0.00291705)
(-2.65166e-20 -1.06695e-20 0.00283815)
(1.61679e-20 1.17332e-20 0.00275024)
(-4.21847e-20 9.5654e-19 0.00265122)
(3.00858e-20 -9.79017e-19 0.00253538)
(6.75179e-20 -9.3452e-19 0.0023951)
(-6.90523e-20 9.72779e-19 0.00222393)
(1.96985e-20 -2.61199e-20 0.00201896)
(5.35246e-20 -9.40401e-19 0.00178058)
(-8.9529e-20 9.69741e-19 0.00150989)
(5.69304e-21 1.60445e-20 0.00120573)
(-1.82789e-19 1.78092e-18 0.000863211)
(1.56166e-19 -1.85893e-18 0.000474478)
(6.39211e-20 7.7775e-20 3.0559e-05)
(-2.33654e-19 1.70344e-18 -0.000477366)
(2.03559e-19 -1.78839e-18 -0.00105872)
(-4.1371e-20 -4.6381e-21 -0.00172743)
(4.61784e-19 -1.62366e-18 -0.00251224)
(-4.23091e-19 1.69014e-18 -0.00348508)
(-9.04054e-20 -9.36938e-20 -0.00483936)
(6.97957e-19 -1.43786e-18 -0.00708703)
(-1.17353e-18 3.02045e-18 -0.0114913)
(-9.41853e-20 -1.6927e-19 -0.020866)
(-1.38975e-19 -1.24071e-19 -0.0407437)
(8.32324e-19 -1.36285e-18 -0.0805204)
(5.66321e-20 8.96045e-20 -0.153662)
(-1.09953e-18 9.68722e-19 -0.275975)
(1.07062e-18 -1.07809e-18 -0.461389)
(1.0681e-20 4.23024e-20 -0.712788)
(1.26005e-20 -3.56258e-21 -0.890499)
(7.35774e-22 -1.64043e-20 -0.00082149)
(1.24482e-21 -1.375e-19 -0.00143286)
(-1.51273e-21 1.24487e-19 -0.0020803)
(-1.86664e-21 -1.81957e-20 -0.0025604)
(4.59586e-21 -2.30057e-19 -0.00269761)
(-4.04319e-21 2.38533e-19 -0.00243122)
(-1.18615e-21 4.78854e-19 -0.00183373)
(-6.65615e-21 -2.05595e-20 -0.00106058)
(3.34195e-21 -5.42176e-21 -0.000275885)
(1.15247e-20 -5.10636e-19 0.000402002)
(-7.88443e-21 4.78289e-19 0.00091794)
(6.93246e-21 -1.01455e-18 0.0012687)
(2.97189e-21 5.09459e-19 0.0014804)
(-5.14865e-21 -2.02133e-20 0.00158827)
(-6.75876e-21 -2.50843e-20 0.00162419)
(1.88303e-20 -9.99988e-19 0.00161165)
(-1.58385e-21 -1.95883e-20 0.00156552)
(1.60644e-20 -1.01988e-18 0.00149406)
(-7.45682e-21 -5.70637e-21 0.00140134)
(-2.03365e-22 1.58284e-22 0.00128929)
(1.51214e-20 1.11207e-20 0.00115941)
(-4.38536e-20 9.8569e-19 0.00101344)
(3.61924e-20 -1.01166e-18 0.000852077)
(1.67893e-20 1.09955e-20 0.0006728)
(-1.18747e-20 -1.55619e-20 0.000468844)
(-8.07984e-21 1.29632e-20 0.000231055)
(-6.11925e-20 9.57269e-19 -4.83996e-05)
(1.33921e-19 -1.96559e-18 -0.000373273)
(-6.00699e-20 1.03688e-18 -0.000743328)
(-1.61052e-19 1.90833e-18 -0.00115694)
(-3.21439e-20 -4.81726e-20 -0.00161402)
(1.18877e-20 -2.26291e-20 -0.00211706)
(-7.65949e-20 -5.75842e-20 -0.00266963)
(2.20529e-19 -1.932e-18 -0.00327342)
(3.79765e-19 -1.78201e-18 -0.0039253)
(-3.23305e-19 1.88914e-18 -0.00461573)
(-4.46952e-20 -7.22965e-20 -0.00532914)
(4.31275e-19 -1.72876e-18 -0.00604992)
(-3.5631e-19 1.85355e-18 -0.00678702)
(-6.5558e-19 1.63581e-18 -0.00765467)
(5.22244e-19 -1.75062e-18 -0.0090928)
(1.02515e-19 -1.43092e-20 -0.0123746)
(9.19569e-19 -1.58846e-18 -0.0205808)
(1.91102e-19 1.2624e-19 -0.0400876)
(-1.12107e-18 1.58562e-18 -0.0821631)
(-2.52475e-20 -5.46428e-20 -0.16363)
(4.90437e-20 7.75963e-22 -0.30612)
(-4.63191e-20 2.38074e-20 -0.53771)
(-6.7022e-19 6.96024e-19 -0.901321)
(6.55265e-19 -7.11708e-19 -1.28367)
(-1.03563e-20 -2.69426e-21 0.000756652)
(-6.88121e-21 2.656e-21 -0.0169885)
(6.31717e-21 4.99695e-21 -0.0307742)
(-1.14995e-20 -1.75523e-20 -0.0393064)
(1.19224e-20 1.048e-20 -0.0421893)
(-5.41915e-22 1.12431e-21 -0.0402556)
(-8.47764e-23 -5.45666e-23 -0.0351253)
(-1.95496e-21 4.2757e-24 -0.0285406)
(1.89098e-21 -4.13577e-24 -0.0218859)
(-4.38648e-23 9.59368e-26 -0.0160104)
(-3.52988e-23 7.7202e-26 -0.011277)
(8.01782e-22 -1.75358e-24 -0.0077129)
(-8.04366e-22 1.75923e-24 -0.00516475)
(-6.43879e-22 1.40823e-24 -0.00341433)
(4.19314e-23 -1.5091e-22 -0.00224763)
(2.68769e-21 8.78926e-20 -0.00148623)
(-1.884e-21 -8.21596e-20 -0.000995342)
(-1.37174e-23 -1.41573e-22 -0.000679677)
(-5.63101e-24 1.5571e-22 -0.000475082)
(-1.28333e-21 -9.96874e-20 -0.000339929)
(1.29204e-21 9.97278e-20 -0.000248019)
(-8.10108e-22 -9.71445e-20 -0.000183246)
(5.41224e-22 6.40104e-21 -0.00013589)
(-6.3895e-22 1.2906e-24 -9.98481e-05)
(5.38598e-22 6.75708e-21 -7.17863e-05)
(-1.59958e-22 1.09436e-23 -4.93488e-05)
(-6.26999e-22 1.37131e-24 -3.12235e-05)
(3.144e-22 -1.09211e-23 -1.65442e-05)
(4.03204e-23 7.08546e-21 -4.59851e-06)
(-2.01149e-23 2.04155e-23 5.2744e-06)
(-3.09548e-23 -7.22873e-21 1.36646e-05)
(8.02927e-24 7.2795e-21 2.10223e-05)
(2.63027e-22 -7.41611e-21 2.76249e-05)
(-3.592e-22 6.67511e-20 3.36067e-05)
(3.32323e-23 -6.66935e-20 3.90244e-05)
(-2.06016e-22 -5.28156e-20 4.39122e-05)
(3.91866e-22 1.13126e-19 4.83104e-05)
(-2.00857e-22 -6.04291e-20 5.2269e-05)
(-1.70258e-22 -7.71694e-21 5.58423e-05)
(1.52568e-22 7.6654e-21 5.90816e-05)
(1.21736e-22 1.53116e-26 6.20313e-05)
(-1.51039e-22 7.80025e-21 6.47274e-05)
(-8.33517e-23 -3.90548e-20 6.71974e-05)
(1.33292e-22 3.90901e-20 6.94753e-05)
(-8.79096e-23 -7.85229e-21 7.16747e-05)
(2.33176e-23 2.37423e-20 7.42643e-05)
(-6.47378e-23 -7.88394e-21 7.8812e-05)
(-3.56886e-23 -1.59853e-20 8.94093e-05)
(3.34914e-23 7.99821e-21 0.00011421)
(1.23661e-23 -8.04304e-21 0.000164855)
(-1.55392e-20 2.32973e-20 -0.00279561)
(-4.95461e-21 -3.14365e-20 -0.054443)
(1.01409e-20 1.17335e-21 -0.0939179)
(-3.28371e-20 -2.79481e-20 -0.117715)
(3.18092e-20 2.96228e-20 -0.125044)
(-6.70329e-21 5.7202e-21 -0.118552)
(4.15544e-21 -1.63802e-21 -0.103017)
(-5.54433e-20 -1.68013e-19 -0.083478)
(5.73692e-20 1.59178e-19 -0.0639)
(-8.73161e-21 -4.7113e-21 -0.0466938)
(3.23168e-21 -8.67058e-21 -0.0328714)
(3.84059e-20 2.80441e-19 -0.0224826)
(-4.10715e-20 -2.78522e-19 -0.0150635)
(-3.08719e-20 -3.23184e-19 -0.0099701)
(5.76899e-21 -1.83479e-20 -0.00657509)
(2.66899e-20 3.40475e-19 -0.00435778)
(-1.50496e-21 -4.97057e-21 -0.00292572)
(-7.43935e-22 -1.17853e-20 -0.00200206)
(2.30786e-24 -2.05639e-23 -0.00140064)
(1.4517e-22 -3.17501e-25 -0.00100078)
(4.99445e-22 7.73487e-24 -0.000726512)
(-5.45386e-22 -7.09107e-21 -0.000531115)
(8.53692e-21 4.05565e-19 -0.000386294)
(-9.50838e-21 -4.38858e-19 -0.000274663)
(7.91444e-21 4.29971e-19 -0.000186224)
(-4.49658e-21 -2.1528e-19 -0.000115276)
(-6.82819e-21 -4.46205e-19 -5.77056e-05)
(2.72236e-21 2.23599e-19 -1.07905e-05)
(5.49287e-22 -6.76106e-21 2.76127e-05)
(-8.15334e-22 -1.43779e-20 5.95534e-05)
(6.98635e-22 7.24684e-21 8.68607e-05)
(-2.03764e-22 -2.21987e-20 0.000110899)
(2.4568e-21 2.29259e-19 0.00013248)
(-5.19026e-21 -4.81494e-19 0.000151986)
(2.49768e-21 2.30012e-19 0.000169587)
(1.94746e-22 -2.22264e-20 0.000185409)
(-3.86275e-22 7.52431e-21 0.000199609)
(6.58399e-23 1.65951e-22 0.000212372)
(-7.30566e-22 -1.30201e-19 0.000223888)
(6.36627e-22 1.14689e-19 0.000234329)
(7.569e-22 1.08548e-19 0.000243838)
(-9.83842e-22 -1.47056e-19 0.00025253)
(8.82382e-23 7.58026e-21 0.000260495)
(1.01101e-22 3.93108e-20 0.000267834)
(-1.75693e-22 -7.06403e-20 0.000274875)
(-2.89722e-22 -7.91692e-21 0.000282947)
(-7.23274e-23 -5.55601e-20 0.000296523)
(-1.00461e-22 -8.10997e-21 0.000327333)
(9.72596e-23 1.59112e-20 0.000398859)
(9.7592e-23 2.4093e-20 0.000544743)
(-1.74907e-20 3.56679e-22 -0.0215089)
(4.72658e-20 2.61661e-20 -0.102554)
(-2.51344e-20 -1.3202e-20 -0.161953)
(-3.95248e-20 -1.3039e-20 -0.195488)
(1.50459e-20 5.92883e-21 -0.203261)
(-1.65409e-19 -2.42145e-19 -0.190148)
(1.75621e-19 2.30952e-19 -0.163807)
(1.97947e-19 3.82799e-19 -0.131989)
(-1.91082e-20 7.94656e-20 -0.10067)
(-3.43167e-19 -9.201e-19 -0.0734089)
(3.24334e-19 1.03368e-18 -0.0516353)
(-1.51868e-19 -5.26885e-19 -0.0353307)
(-9.57131e-22 -1.21192e-20 -0.023714)
(-9.12399e-22 -1.54088e-21 -0.0157485)
(9.31759e-20 7.09621e-19 -0.0104393)
(-1.45242e-20 1.96743e-20 -0.00696712)
(-7.66489e-20 -7.17003e-19 -0.00471714)
(3.75383e-21 2.25386e-20 -0.00325742)
(-1.49237e-21 5.13223e-23 -0.00229833)
(9.64944e-23 -6.77338e-22 -0.00165246)
(2.03797e-20 4.16201e-19 -0.00120195)
(-2.00108e-20 -4.01592e-19 -0.000874566)
(-1.63299e-20 -4.17797e-19 -0.000626099)
(1.75767e-20 4.43156e-19 -0.000430789)
(-2.05749e-22 1.44628e-20 -0.000272202)
(-1.38019e-22 -1.3907e-20 -0.000142559)
(-4.04691e-22 1.46915e-20 -3.57961e-05)
(-8.52676e-21 -4.42584e-19 5.25252e-05)
(1.00826e-20 4.56683e-19 0.000125934)
(-8.55071e-21 -4.35243e-19 0.000187914)
(9.21587e-21 4.64119e-19 0.000241522)
(2.10278e-22 1.47011e-20 0.000288953)
(6.13946e-21 4.75687e-19 0.000331462)
(-1.26257e-20 -9.37599e-19 0.000369657)
(7.4587e-21 4.91448e-19 0.000403883)
(1.5185e-21 2.57529e-19 0.000434484)
(-1.29989e-21 -2.26361e-19 0.000461865)
(-1.18009e-21 -2.82542e-22 0.000486456)
(6.93579e-22 -4.78405e-24 0.000508658)
(1.71429e-22 -2.86429e-22 0.000528811)
(1.50981e-21 2.47727e-19 0.000547188)
(-1.72351e-21 -2.31999e-19 0.000564006)
(-1.35986e-22 1.53064e-20 0.000579434)
(5.00022e-22 -1.17183e-22 0.000593655)
(5.60106e-22 1.25984e-19 0.000607172)
(-1.45479e-21 -2.3634e-19 0.000621972)
(8.16627e-22 1.26183e-19 0.000644782)
(-4.00507e-22 -6.34674e-20 0.000693442)
(2.665e-22 4.75937e-20 0.000803985)
(8.23484e-23 1.60004e-20 0.0010284)
(1.17173e-21 2.92686e-20 -0.0644058)
(9.60673e-21 -5.42834e-20 -0.168816)
(2.28993e-19 2.75907e-19 -0.238113)
(-5.83576e-19 -5.86722e-19 -0.271969)
(3.72108e-19 3.11042e-19 -0.273585)
(2.35081e-19 3.36935e-19 -0.250595)
(-2.59541e-19 -3.18829e-19 -0.212944)
(2.56566e-19 4.40887e-19 -0.170071)
(-5.15976e-19 -9.39323e-19 -0.129005)
(2.69649e-19 4.8423e-19 -0.0937893)
(-4.47129e-21 1.36941e-20 -0.0659138)
(-4.3854e-21 5.91265e-22 -0.0451587)
(7.13527e-21 1.18696e-20 -0.0304261)
(-1.51565e-19 -7.11285e-19 -0.0203462)
(1.43604e-19 6.85878e-19 -0.0136324)
(9.84034e-22 2.51202e-20 -0.00923572)
(4.12339e-22 -1.33714e-20 -0.00637494)
(8.36505e-20 7.99469e-19 -0.00450401)
(-8.42231e-20 -7.96663e-19 -0.00325857)
(-8.08557e-22 -1.44685e-20 -0.00240381)
(-6.50284e-22 -2.19739e-23 -0.00179266)
(8.2263e-22 5.47212e-23 -0.00133529)
(6.4332e-22 -2.47908e-23 -0.000977755)
(-1.43939e-21 1.38049e-20 -0.000687374)
(1.64253e-21 2.51693e-23 -0.000446422)
(2.19056e-22 1.54887e-20 -0.000243945)
(-3.12272e-20 -9.3099e-19 -7.38538e-05)
(3.20575e-20 9.14433e-19 6.96547e-05)
(-2.44075e-21 2.06347e-21 0.000191436)
(-9.67024e-21 -4.69671e-19 0.000296231)
(1.17474e-20 4.83249e-19 0.000388069)
(-7.8476e-22 6.95637e-22 0.000469702)
(-1.08624e-22 6.48954e-22 0.000542667)
(-7.48824e-21 -4.96911e-19 0.000607812)
(1.62739e-20 9.79615e-19 0.000665837)
(-1.58568e-20 -9.68669e-19 0.000717537)
(1.42048e-20 9.73182e-19 0.000763787)
(-1.29474e-20 -9.76825e-19 0.000805421)
(6.04691e-21 4.88371e-19 0.000843144)
(3.40013e-21 2.47564e-19 0.000877515)
(-2.87483e-21 -2.15618e-19 0.000908966)
(9.58803e-23 -1.54842e-20 0.000937841)
(-2.37229e-21 -2.49826e-19 0.000964417)
(5.03578e-21 5.30538e-19 0.000988973)
(-2.50387e-21 -2.49524e-19 0.00101214)
(1.47559e-22 -2.91683e-22 0.00103627)
(2.42303e-22 1.5742e-20 0.00106943)
(-1.63337e-22 3.9666e-23 0.00113332)
(-9.28714e-23 -1.5858e-20 0.00127239)
(2.29784e-22 3.17113e-20 0.00155161)
(2.97877e-20 -9.88233e-23 -0.143492)
(-1.51529e-21 -1.29831e-21 -0.2616)
(-6.11983e-20 -2.6213e-21 -0.324848)
(7.84161e-20 -4.61281e-21 -0.345716)
(-3.06938e-20 -9.78859e-21 -0.332677)
(-3.11897e-20 -1.75388e-21 -0.296076)
(1.62147e-20 6.36263e-21 -0.246922)
(-7.89392e-21 -8.26589e-21 -0.194854)
(3.91353e-20 -1.82129e-20 -0.146721)
(5.64178e-19 1.22328e-18 -0.106255)
(-6.89108e-20 7.02956e-20 -0.0746044)
(-5.26625e-19 -1.32109e-18 -0.0512232)
(4.10727e-19 1.41738e-18 -0.0347192)
(-4.18278e-19 -1.4154e-18 -0.0234738)
(1.55574e-19 7.63966e-19 -0.0160035)
(-1.61658e-19 -7.88832e-19 -0.0111137)
(3.05231e-21 1.04849e-20 -0.00792234)
(-7.51479e-21 -1.26271e-20 -0.00581746)
(4.15058e-21 -1.32276e-20 -0.00439406)
(1.25651e-21 1.32357e-20 -0.00339334)
(1.84727e-21 6.34258e-23 -0.00265486)
(-4.02613e-21 -2.74781e-20 -0.00208156)
(-4.30292e-22 1.46298e-21 -0.00161689)
(-5.28247e-20 -9.22222e-19 -0.00122716)