/*--------------------------------*- C++ -*----------------------------------*\
| =========                 |                                                 |
| \\      /  F ield         | OpenFOAM: The Open Source CFD Toolbox           |
|  \\    /   O peration     | Version:  2412                                  |
|   \\  /    A nd           | Website:  www.openfoam.com                      |
|    \\/     M anipulation  |                                                 |
\*---------------------------------------------------------------------------*/
FoamFile
{
    version     2.0;
    format      ascii;
    arch        "LSB;label=32;scalar=64";
    class       volScalarField;
    location    "3";
    object      p;
}
// * * * * * * * * * * * * * * * * * * * * * * * * * * * * * * * * * * * * * //

dimensions      [0 2 -2 0 0 0 0];

internalField   nonuniform List<scalar> 
5285
(
0.0011661
0.00116105
0.00115569
0.00114999
0.00114394
0.00113752
0.00113073
0.00112355
0.00111596
0.00110794
0.00109949
0.00109058
0.0010812
0.00107134
0.00106098
0.00105011
0.00117782
0.00117294
0.00116773
0.00116218
0.00115627
0.00115
0.00114333
0.00113626
0.00112878
0.00112085
0.00111248
0.00110363
0.0010943
0.00108447
0.00107412
0.00106324
0.00118985
0.00118514
0.0011801
0.00117472
0.00116897
0.00116285
0.00115633
0.00114939
0.00114202
0.00113421
0.00112593
0.00111716
0.00110789
0.00109811
0.00108778
0.0010769
0.00120218
0.00119767
0.00119282
0.00118762
0.00118205
0.00117609
0.00116972
0.00116294
0.00115571
0.00114802
0.00113985
0.00113118
0.00112199
0.00111226
0.00110198
0.00109112
0.00121482
0.00121052
0.00120587
0.00120087
0.00119549
0.00118972
0.00118353
0.00117692
0.00116984
0.0011623
0.00115426
0.0011457
0.00113661
0.00112696
0.00111673
0.00110591
0.00122779
0.0012237
0.00121928
0.00121449
0.00120933
0.00120376
0.00119777
0.00119133
0.00118444
0.00117705
0.00116916
0.00116074
0.00115177
0.00114222
0.00113207
0.0011213
0.00124106
0.00123722
0.00123304
0.00122849
0.00122355
0.0012182
0.00121243
0.0012062
0.0011995
0.00119231
0.00118459
0.00117632
0.00116749
0.00115806
0.001148
0.00113731
0.00125466
0.00125108
0.00124715
0.00124286
0.00123817
0.00123307
0.00122753
0.00122154
0.00121505
0.00120806
0.00120054
0.00119245
0.00118378
0.00117449
0.00116457
0.00115397
0.00126857
0.00126528
0.00126163
0.00125761
0.00125319
0.00124836
0.00124308
0.00123734
0.0012311
0.00122434
0.00121704
0.00120916
0.00120067
0.00119155
0.00118177
0.0011713
0.00128281
0.00127981
0.00127646
0.00127274
0.00126862
0.00126407
0.00125908
0.00125362
0.00124765
0.00124115
0.00123409
0.00122644
0.00121817
0.00120925
0.00119965
0.00118933
0.00129737
0.00129469
0.00129166
0.00128826
0.00128445
0.00128023
0.00127554
0.00127038
0.00126471
0.0012585
0.00125171
0.00124433
0.00123631
0.00122761
0.00121822
0.00120808
0.00131224
0.00130991
0.00130722
0.00130416
0.0013007
0.00129681
0.00129247
0.00128764
0.00128229
0.0012764
0.00126992
0.00126283
0.00125508
0.00124665
0.0012375
0.00122758
0.00132744
0.00132547
0.00132315
0.00132046
0.00131737
0.00131384
0.00130987
0.0013054
0.00130041
0.00129486
0.00128872
0.00128196
0.00127453
0.00126639
0.00125751
0.00124785
0.00134294
0.00134136
0.00133943
0.00133714
0.00133444
0.00133132
0.00132773
0.00132366
0.00131906
0.00131389
0.00130813
0.00130173
0.00129465
0.00128685
0.00127828
0.00126891
0.00135875
0.00135759
0.00135608
0.0013542
0.00135193
0.00134923
0.00134608
0.00134243
0.00133825
0.0013335
0.00132815
0.00132215
0.00131546
0.00130804
0.00129983
0.0012908
0.00137487
0.00137414
0.00137307
0.00137165
0.00136983
0.00136759
0.00136489
0.0013617
0.00135798
0.00135369
0.00134879
0.00134324
0.00133698
0.00132998
0.00132218
0.00131352
0.00139128
0.00139101
0.00139042
0.00138947
0.00138813
0.00138638
0.00138418
0.00138149
0.00137826
0.00137447
0.00137006
0.001365
0.00135922
0.00135268
0.00134533
0.00133712
0.00140797
0.00140819
0.0014081
0.00140766
0.00140684
0.00140561
0.00140394
0.00140178
0.00139909
0.00139584
0.00139197
0.00138743
0.00138218
0.00137617
0.00136932
0.00136159
0.00142494
0.00142568
0.00142611
0.0014262
0.00142594
0.00142527
0.00142416
0.00142257
0.00142046
0.00141779
0.0014145
0.00141055
0.00140588
0.00140044
0.00139415
0.00138697
0.00144217
0.00144345
0.00144443
0.0014451
0.00144541
0.00144534
0.00144483
0.00144386
0.00144237
0.00144033
0.00143767
0.00143436
0.00143032
0.0014255
0.00141984
0.00141327
0.00109587
0.00140942
0.00109303
0.00125951
0.00121669
0.0012074
0.0012177
0.00121603
0.00121551
0.00121629
0.00121679
0.00121728
0.00121785
0.00121846
0.00121908
0.00121971
0.00122034
0.00122096
0.00122157
0.00122214
0.00122268
0.00122318
0.00122362
0.001224
0.00122432
0.00122455
0.00122471
0.00122477
0.00122473
0.00122459
0.00122434
0.00122396
0.00122346
0.00122282
0.00122204
0.00122112
0.00122005
0.00121882
0.00121743
0.00121587
0.00121415
0.00121225
0.00121017
0.00120791
0.00120547
0.00120284
0.00120003
0.00119703
0.00119384
0.00119046
0.00118689
0.00118313
0.00117919
0.00117505
0.00117074
0.00109926
0.00141277
0.0010962
0.00126313
0.00121996
0.00121076
0.00122118
0.00121948
0.001219
0.00121984
0.00122041
0.00122098
0.00122165
0.00122235
0.00122308
0.00122383
0.00122458
0.00122534
0.00122608
0.0012268
0.00122749
0.00122815
0.00122875
0.00122931
0.0012298
0.00123022
0.00123056
0.00123081
0.00123097
0.00123103
0.00123098
0.00123081
0.00123052
0.00123009
0.00122953
0.00122882
0.00122797
0.00122696
0.00122579
0.00122445
0.00122294
0.00122126
0.0012194
0.00121735
0.00121512
0.00121271
0.0012101
0.0012073
0.00120431
0.00120113
0.00119775
0.00119417
0.00119041
0.00118645
0.0011823
0.00110209
0.00141665
0.0010988
0.00126687
0.00122317
0.00121406
0.00122462
0.00122291
0.00122246
0.00122338
0.00122402
0.00122467
0.00122543
0.00122623
0.00122707
0.00122794
0.00122882
0.00122971
0.00123059
0.00123146
0.00123231
0.00123313
0.0012339
0.00123463
0.0012353
0.00123591
0.00123644
0.00123689
0.00123725
0.00123751
0.00123767
0.00123771
0.00123764
0.00123743
0.00123709
0.00123661
0.00123598
0.00123519
0.00123425
0.00123314
0.00123186
0.0012304
0.00122877
0.00122695
0.00122495
0.00122275
0.00122036
0.00121778
0.001215
0.00121202
0.00120884
0.00120547
0.00120189
0.00119812
0.00119414
0.00110478
0.0014204
0.00110142
0.00127047
0.00122637
0.00121733
0.00122802
0.0012263
0.00122591
0.0012269
0.00122761
0.00122834
0.00122919
0.0012301
0.00123106
0.00123204
0.00123305
0.00123408
0.0012351
0.00123613
0.00123713
0.00123811
0.00123906
0.00123997
0.00124082
0.00124162
0.00124235
0.001243
0.00124356
0.00124404
0.00124441
0.00124467
0.00124481
0.00124483
0.00124472
0.00124447
0.00124407
0.00124353
0.00124282
0.00124195
0.0012409
0.00123969
0.00123829
0.0012367
0.00123493
0.00123297
0.00123081
0.00122845
0.0012259
0.00122314
0.00122018
0.00121701
0.00121364
0.00121007
0.00120629
0.00110744
0.00142393
0.00110414
0.0012739
0.00122955
0.00122056
0.00123137
0.00122967
0.00122933
0.00123039
0.00123118
0.001232
0.00123295
0.00123396
0.00123503
0.00123614
0.00123728
0.00123844
0.00123961
0.00124079
0.00124195
0.0012431
0.00124423
0.00124532
0.00124636
0.00124735
0.00124828
0.00124913
0.00124991
0.0012506
0.00125119
0.00125167
0.00125205
0.0012523
0.00125242
0.00125241
0.00125226
0.00125195
0.00125149
0.00125086
0.00125007
0.0012491
0.00124795
0.00124661
0.00124509
0.00124337
0.00124145
0.00123933
0.00123701
0.00123449
0.00123175
0.00122881
0.00122566
0.0012223
0.00121873
0.00111009
0.00142733
0.00110692
0.00127719
0.00123272
0.00122376
0.00123467
0.00123302
0.00123272
0.00123386
0.00123472
0.00123563
0.00123668
0.0012378
0.00123898
0.00124022
0.00124149
0.00124279
0.00124411
0.00124544
0.00124677
0.0012481
0.0012494
0.00125067
0.0012519
0.00125309
0.00125422
0.00125529
0.00125628
0.00125719
0.00125801
0.00125872
0.00125933
0.00125982
0.00126019
0.00126042
0.00126052
0.00126046
0.00126026
0.00125989
0.00125935
0.00125864
0.00125774
0.00125667
0.0012554
0.00125394
0.00125227
0.00125041
0.00124834
0.00124606
0.00124357
0.00124086
0.00123795
0.00123481
0.00123146
0.00111276
0.00143063
0.00110971
0.00128039
0.00123586
0.00122693
0.00123794
0.00123632
0.00123609
0.0012373
0.00123825
0.00123925
0.00124039
0.00124162
0.00124292
0.00124428
0.00124569
0.00124713
0.0012486
0.00125009
0.00125159
0.00125308
0.00125457
0.00125603
0.00125746
0.00125884
0.00126018
0.00126146
0.00126267
0.00126381
0.00126486
0.00126581
0.00126666
0.0012674
0.00126802
0.0012685
0.00126886
0.00126906
0.00126912
0.00126901
0.00126874
0.0012683
0.00126768
0.00126687
0.00126587
0.00126468
0.00126328
0.00126168
0.00125988
0.00125786
0.00125562
0.00125317
0.0012505
0.00124761
0.0012445
0.00111543
0.00143383
0.00111251
0.0012835
0.00123897
0.00123006
0.00124116
0.0012396
0.00123943
0.00124071
0.00124174
0.00124284
0.00124408
0.00124542
0.00124684
0.00124833
0.00124987
0.00125146
0.00125308
0.00125473
0.0012564
0.00125807
0.00125973
0.00126138
0.00126301
0.0012646
0.00126615
0.00126765
0.00126909
0.00127045
0.00127174
0.00127294
0.00127403
0.00127502
0.0012759
0.00127665
0.00127727
0.00127774
0.00127807
0.00127824
0.00127825
0.00127808
0.00127774
0.00127721
0.0012765
0.00127558
0.00127447
0.00127315
0.00127162
0.00126988
0.00126791
0.00126573
0.00126333
0.0012607
0.00125784
0.00111813
0.00143694
0.00111532
0.00128655
0.00124204
0.00123315
0.00124434
0.00124284
0.00124274
0.0012441
0.00124521
0.0012464
0.00124775
0.0012492
0.00125074
0.00125235
0.00125403
0.00125577
0.00125755
0.00125936
0.00126119
0.00126304
0.00126489
0.00126674
0.00126856
0.00127037
0.00127213
0.00127385
0.00127552
0.00127712
0.00127865
0.00128009
0.00128144
0.00128269
0.00128383
0.00128485
0.00128574
0.0012865
0.00128711
0.00128756
0.00128786
0.00128798
0.00128793
0.0012877
0.00128727
0.00128666
0.00128584
0.00128481
0.00128357
0.00128212
0.00128044
0.00127854
0.00127642
0.00127407
0.00127148
0.00112082
0.00143998
0.00111812
0.00128954
0.00124507
0.00123621
0.00124748
0.00124605
0.00124601
0.00124745
0.00124865
0.00124993
0.00125139
0.00125295
0.00125461
0.00125635
0.00125817
0.00126006
0.00126199
0.00126397
0.00126597
0.001268
0.00127004
0.00127208
0.00127412
0.00127613
0.00127811
0.00128006
0.00128196
0.0012838
0.00128558
0.00128728
0.00128889
0.0012904
0.00129181
0.00129311
0.00129428
0.00129532
0.00129622
0.00129697
0.00129756
0.00129799
0.00129824
0.00129831
0.0012982
0.00129789
0.00129737
0.00129666
0.00129572
0.00129457
0.0012932
0.00129161
0.00128978
0.00128772
0.00128543
0.00112352
0.00144295
0.00112091
0.00129248
0.00124806
0.00123924
0.00125058
0.00124921
0.00124925
0.00125077
0.00125206
0.00125344
0.001255
0.00125667
0.00125846
0.00126033
0.00126229
0.00126432
0.00126641
0.00126856
0.00127074
0.00127295
0.00127518
0.00127742
0.00127966
0.00128189
0.00128409
0.00128627
0.00128841
0.0012905
0.00129252
0.00129448
0.00129636
0.00129815
0.00129983
0.00130142
0.00130288
0.00130421
0.00130541
0.00130647
0.00130737
0.0013081
0.00130867
0.00130906
0.00130926
0.00130927
0.00130908
0.00130868
0.00130807
0.00130725
0.00130619
0.00130492
0.0013034
0.00130166
0.00129967
0.0011262
0.00144585
0.00112368
0.00129537
0.00125101
0.00124222
0.00125363
0.00125234
0.00125245
0.00125405
0.00125543
0.00125691
0.00125857
0.00126037
0.00126227
0.00126428
0.00126638
0.00126856
0.00127081
0.00127312
0.00127548
0.00127788
0.0012803
0.00128274
0.00128519
0.00128764
0.00129007
0.00129248
0.00129486
0.0012972
0.00129948
0.0013017
0.00130385
0.00130592
0.00130789
0.00130976
0.00131152
0.00131316
0.00131467
0.00131604
0.00131726
0.00131832
0.00131921
0.00131993
0.00132046
0.0013208
0.00132095
0.00132089
0.00132062
0.00132013
0.00131941
0.00131847
0.00131729
0.00131587
0.00131421
0.00112886
0.0014487
0.00112642
0.00129821
0.00125392
0.00124517
0.00125665
0.00125543
0.00125561
0.0012573
0.00125877
0.00126034
0.00126212
0.00126403
0.00126606
0.0012682
0.00127044
0.00127277
0.00127518
0.00127766
0.0012802
0.00128278
0.0012854
0.00128804
0.0012907
0.00129337
0.00129603
0.00129868
0.00130131
0.0013039
0.00130644
0.00130893
0.00131136
0.00131371
0.00131598
0.00131815
0.00132021
0.00132216
0.00132399
0.00132568
0.00132723
0.00132862
0.00132985
0.00133091
0.00133179
0.00133248
0.00133297
0.00133327
0.00133335
0.00133321
0.00133285
0.00133226
0.00133143
0.00133036
0.00132905
0.00113149
0.00145149
0.00112914
0.001301
0.00125679
0.00124807
0.00125963
0.00125848
0.00125874
0.00126051
0.00126207
0.00126374
0.00126562
0.00126765
0.00126981
0.00127208
0.00127447
0.00127695
0.00127953
0.00128217
0.00128489
0.00128766
0.00129047
0.00129332
0.0012962
0.00129909
0.00130198
0.00130487
0.00130775
0.00131059
0.00131341
0.00131617
0.00131888
0.00132152
0.00132409
0.00132656
0.00132894
0.00133121
0.00133336
0.00133538
0.00133727
0.00133901
0.00134059
0.001342
0.00134324
0.00134429
0.00134515
0.00134581
0.00134626
0.00134649
0.0013465
0.00134628
0.00134582
0.00134512
0.00134418
0.00113409
0.00145423
0.00113182
0.00130376
0.00125961
0.00125094
0.00126256
0.00126149
0.00126182
0.00126368
0.00126533
0.00126711
0.00126909
0.00127124
0.00127352
0.00127593
0.00127846
0.0012811
0.00128383
0.00128665
0.00128954
0.0012925
0.00129552
0.00129857
0.00130167
0.00130478
0.00130791
0.00131105
0.00131417
0.00131728
0.00132036
0.00132341
0.00132641
0.00132934
0.00133221
0.001335
0.0013377
0.0013403
0.00134278
0.00134515
0.00134738
0.00134947
0.00135141
0.00135319
0.0013548
0.00135623
0.00135746
0.0013585
0.00135934
0.00135996
0.00136036
0.00136053
0.00136046
0.00136015
0.00135959
0.00113666
0.00145691
0.00113447
0.00130646
0.00126239
0.00125376
0.00126546
0.00126446
0.00126487
0.0012668
0.00126855
0.00127043
0.00127252
0.00127478
0.00127719
0.00127974
0.00128241
0.00128521
0.0012881
0.00129109
0.00129417
0.00129732
0.00130053
0.0013038
0.00130711
0.00131045
0.00131382
0.0013172
0.00132058
0.00132396
0.00132731
0.00133064
0.00133393
0.00133717
0.00134035
0.00134345
0.00134648
0.00134941
0.00135224
0.00135496
0.00135755
0.00136
0.00136232
0.00136447
0.00136646
0.00136828
0.00136991
0.00137135
0.00137259
0.00137361
0.00137441
0.00137499
0.00137533
0.00137543
0.00137529
0.0011392
0.00145955
0.00113708
0.00130913
0.00126512
0.00125654
0.0012683
0.00126738
0.00126786
0.00126989
0.00127173
0.0012737
0.00127591
0.00127829
0.00128082
0.00128351
0.00128633
0.00128927
0.00129233
0.00129549
0.00129875
0.00130209
0.0013055
0.00130898
0.00131251
0.00131609
0.00131969
0.00132332
0.00132696
0.00133061
0.00133424
0.00133786
0.00134144
0.00134499
0.00134848
0.00135191
0.00135527
0.00135855
0.00136173
0.00136481
0.00136776
0.0013706
0.00137329
0.00137584
0.00137822
0.00138044
0.00138248
0.00138433
0.00138599
0.00138743
0.00138866
0.00138966
0.00139044
0.00139097
0.00139125
0.00114169
0.00146214
0.00113965
0.00131175
0.00126781
0.00125927
0.0012711
0.00127025
0.00127081
0.00127292
0.00127486
0.00127693
0.00127925
0.00128175
0.00128441
0.00128723
0.00129019
0.00129329
0.00129652
0.00129985
0.00130329
0.00130682
0.00131044
0.00131413
0.00131788
0.00132168
0.00132553
0.00132941
0.00133332
0.00133723
0.00134115
0.00134505
0.00134894
0.0013528
0.00135661
0.00136038
0.00136408
0.0013677
0.00137124
0.00137468
0.00137802
0.00138124
0.00138432
0.00138727
0.00139007
0.0013927
0.00139516
0.00139744
0.00139953
0.00140141
0.00140308
0.00140454
0.00140576
0.00140674
0.00140748
0.00114415
0.00146467
0.00114217
0.00131432
0.00127045
0.00126196
0.00127386
0.00127308
0.00127372
0.00127591
0.00127794
0.00128012
0.00128254
0.00128516
0.00128795
0.0012909
0.00129401
0.00129727
0.00130065
0.00130416
0.00130779
0.00131151
0.00131533
0.00131923
0.0013232
0.00132724
0.00133133
0.00133547
0.00133963
0.00134382
0.00134802
0.00135222
0.00135642
0.00136059
0.00136473
0.00136883
0.00137287
0.00137686
0.00138076
0.00138458
0.0013883
0.00139192
0.00139541
0.00139877
0.00140198
0.00140505
0.00140794
0.00141067
0.0014132
0.00141554
0.00141768
0.00141959
0.00142128
0.00142274
0.00142395
0.00139861
0.00140262
0.00140653
0.00141031
0.00141396
0.00141747
0.00142081
0.00142399
0.001427
0.00142981
0.00143242
0.00143482
0.001437
0.00143895
0.00144066
0.000807092
0.00106855
0.00104008
0.00092351
0.00100349
0.00105893
0.00103317
0.00101143
0.00101086
0.00101201
0.00100951
0.00100609
0.00100286
0.000999581
0.000996114
0.000992471
0.000988679
0.000984747
0.000980682
0.000976492
0.000972186
0.000967771
0.000963256
0.000958648
0.000953956
0.000949185
0.000944345
0.00093944
0.00093448
0.000929468
0.000924413
0.00091932
0.000914195
0.000909044
0.000903872
0.000898684
0.000893486
0.000888282
0.000883076
0.000877873
0.000872678
0.000867493
0.000862323
0.000857172
0.000852043
0.000846938
0.000841861
0.000836815
0.000831803
0.000826826
0.000821887
0.000816988
0.000812131
0.00080732
0.000802554
0.00080414
0.00107548
0.00103426
0.00092457
0.00100804
0.00105833
0.00103132
0.00101148
0.00101157
0.00101246
0.00100982
0.00100644
0.00100324
0.000999971
0.000996508
0.000992872
0.000989086
0.000985159
0.000981099
0.000976914
0.000972611
0.0009682
0.000963689
0.000959084
0.000954394
0.000949626
0.000944788
0.000939885
0.000934926
0.000929916
0.000924862
0.00091977
0.000914645
0.000909494
0.000904322
0.000899133
0.000893934
0.000888728
0.000883521
0.000878317
0.000873119
0.000867932
0.00086276
0.000857606
0.000852474
0.000847366
0.000842286
0.000837236
0.000832219
0.000827238
0.000822295
0.000817391
0.00081253
0.000807714
0.000802943
0.000806783
0.00107858
0.0010329
0.000926543
0.00101017
0.00105778
0.00103076
0.00101207
0.00101246
0.00101319
0.0010105
0.00100715
0.00100398
0.00100073
0.000997275
0.00099365
0.000989875
0.000985959
0.000981908
0.00097773
0.000973436
0.000969032
0.000964527
0.000959928
0.000955244
0.000950481
0.000945646
0.000940748
0.000935791
0.000930783
0.000925731
0.00092064
0.000915516
0.000910365
0.000905192
0.000900002
0.000894801
0.000889593
0.000884383
0.000879176
0.000873974
0.000868783
0.000863606
0.000858447
0.000853309
0.000848195
0.000843108
0.000838051
0.000833028
0.000828039
0.000823088
0.000818176
0.000813307
0.000808481
0.000803701
0.000808827
0.00108203
0.00103254
0.000928412
0.00101245
0.001058
0.00103076
0.00101289
0.00101357
0.00101423
0.00101151
0.00100819
0.00100506
0.00100183
0.000998393
0.000994785
0.000991026
0.000987123
0.000983085
0.000978921
0.000974637
0.000970244
0.000965749
0.000961159
0.000956482
0.000951726
0.000946898
0.000942004
0.000937052
0.000932048
0.000926999
0.00092191
0.000916787
0.000911636
0.000906462
0.000901271
0.000896067
0.000890857
0.000885643
0.00088043
0.000875223
0.000870026
0.000864842
0.000859675
0.000854529
0.000849406
0.00084431
0.000839243
0.000834209
0.000829209
0.000824246
0.000819323
0.00081444
0.000809602
0.000804809
0.00081116
0.0010861
0.00103257
0.000930625
0.00101519
0.00105868
0.00103112
0.00101401
0.00101498
0.00101557
0.00101284
0.00100956
0.00100646
0.00100326
0.000999844
0.000996257
0.000992517
0.000988633
0.000984612
0.000980463
0.000976195
0.000971815
0.000967332
0.000962754
0.000958088
0.000953341
0.000948521
0.000943635
0.000938689
0.00093369
0.000928644
0.000923557
0.000918436
0.000913285
0.000908111
0.000902918
0.000897712
0.000892497
0.000887278
0.00088206
0.000876846
0.000871641
0.000866448
0.000861272
0.000856115
0.000850981
0.000845872
0.000840793
0.000835745
0.000830731
0.000825753
0.000820814
0.000815916
0.000811061
0.00080625
0.000813882
0.0010906
0.00103296
0.00093325
0.00101825
0.00105965
0.00103181
0.00101546
0.00101669
0.00101722
0.00101446
0.00101123
0.00100817
0.001005
0.00100161
0.000998047
0.000994331
0.000990469
0.000986468
0.000982339
0.000978088
0.000973725
0.000969258
0.000964694
0.00096004
0.000955305
0.000950495
0.000945618
0.00094068
0.000935687
0.000930646
0.000925563
0.000920444
0.000915294
0.000910119
0.000904924
0.000899715
0.000894496
0.000889271
0.000884046
0.000878824
0.00087361
0.000868407
0.000863219
0.000858049
0.000852901
0.000847779
0.000842684
0.000837619
0.000832588
0.000827592
0.000822634
0.000817717
0.000812841
0.00080801
0.000816952
0.00109546
0.00103364
0.000936225
0.00102161
0.00106089
0.0010328
0.00101722
0.00101869
0.00101914
0.00101638
0.00101319
0.00101017
0.00100703
0.00100367
0.00100014
0.000996448
0.000992611
0.000988635
0.000984528
0.000980298
0.000975955
0.000971506
0.000966958
0.00096232
0.000957599
0.000952802
0.000947935
0.000943006
0.000938021
0.000932986
0.000927908
0.000922791
0.000917643
0.000912468
0.000907272
0.000902059
0.000896835
0.000891605
0.000886372
0.000881141
0.000875916
0.000870701
0.0008655
0.000860316
0.000855153
0.000850013
0.0008449
0.000839817
0.000834766
0.00082975
0.00082477
0.00081983
0.000814931
0.000810076
0.000820339
0.00110066
0.00103456
0.000939532
0.00102524
0.00106236
0.00103408
0.00101928
0.00102097
0.00102134
0.00101856
0.00101543
0.00101245
0.00100934
0.00100601
0.00100251
0.000998851
0.000995043
0.000991093
0.000987012
0.000982806
0.000978486
0.000974057
0.00096953
0.00096491
0.000960205
0.000955422
0.000950568
0.00094565
0.000940674
0.000935647
0.000930574
0.000925462
0.000920316
0.000915141
0.000909944
0.000904728
0.000899499
0.000894262
0.000889021
0.00088378
0.000878544
0.000873316
0.000868101
0.000862901
0.000857721
0.000852563
0.00084743
0.000842326
0.000837253
0.000832213
0.000827209
0.000822243
0.000817319
0.000812436
0.000824019
0.00110618
0.00103569
0.000943152
0.00102915
0.00106406
0.00103561
0.0010216
0.0010235
0.00102378
0.001021
0.00101792
0.00101499
0.00101191
0.00100862
0.00100515
0.00100152
0.000997746
0.000993827
0.000989773
0.000985595
0.0009813
0.000976896
0.00097239
0.000967791
0.000963105
0.000958339
0.0009535
0.000948595
0.00094363
0.000938612
0.000933547
0.00092844
0.000923297
0.000918124
0.000912925
0.000907707
0.000902473
0.00089723
0.00089198
0.000886729
0.000881481
0.000876239
0.000871008
0.000865792
0.000860593
0.000855414
0.00085026
0.000845133
0.000840035
0.00083497
0.00082994
0.000824946
0.000819993
0.00081508
0.00082797
0.001112
0.00103701
0.000947064
0.00103329
0.00106594
0.00103737
0.00102418
0.00102627
0.00102646
0.00102367
0.00102064
0.00101776
0.00101472
0.00101147
0.00100804
0.00100445
0.0010007
0.000996818
0.000992797
0.000988649
0.000984382
0.000980005
0.000975524
0.000970948
0.000966283
0.000961536
0.000956715
0.000951825
0.000946873
0.000941866
0.00093681
0.000931709
0.000926571
0.0009214
0.000916201
0.000910981
0.000905743
0.000900493
0.000895235
0.000889974
0.000884713
0.000879457
0.00087421
0.000868976
0.000863757
0.000858557
0.00085338
0.000848228
0.000843104
0.000838012
0.000832952
0.000827929
0.000822944
0.000817999
0.00083217
0.00111808
0.0010385
0.00095125
0.00103766
0.00106799
0.00103935
0.00102699
0.00102926
0.00102935
0.00102657
0.0010236
0.00102076
0.00101776
0.00101455
0.00101116
0.00100761
0.0010039
0.00100005
0.000996065
0.00099195
0.000987715
0.000983367
0.000978915
0.000974365
0.000969724
0.000964999
0.000960197
0.000955325
0.000950389
0.000945394
0.000940348
0.000935256
0.000930123
0.000924956
0.000919759
0.000914537
0.000909296
0.00090404
0.000898774
0.000893502
0.000888229
0.000882959
0.000877695
0.000872442
0.000867202
0.00086198
0.000856779
0.000851601
0.00084645
0.000841328
0.000836238
0.000831182
0.000826164
0.000821185
0.0008366
0.00112442
0.00104012
0.000955691
0.00104222
0.0010702
0.00104154
0.00103002
0.00103246
0.00103245
0.00102967
0.00102676
0.00102397
0.00102102
0.00101785
0.0010145
0.00101099
0.00100732
0.00100351
0.000999563
0.000995485
0.000991284
0.000986969
0.000982548
0.000978026
0.000973412
0.000968712
0.000963933
0.00095908
0.000954162
0.000949183
0.000944149
0.000939067
0.000933942
0.000928779
0.000923585
0.000918363
0.000913119
0.000907858
0.000902585
0.000897303
0.000892018
0.000886733
0.000881452
0.00087618
0.00087092
0.000865674
0.000860448
0.000855243
0.000850063
0.00084491
0.000839788
0.000834699
0.000829645
0.000824629
0.000841241
0.00113099
0.00104185
0.000960372
0.00104695
0.00107254
0.00104391
0.00103325
0.00103585
0.00103573
0.00103296
0.00103011
0.00102738
0.00102447
0.00102134
0.00101804
0.00101457
0.00101095
0.00100718
0.00100328
0.000999237
0.000995075
0.000990796
0.000986408
0.000981919
0.000977334
0.000972662
0.000967907
0.000963078
0.000958179
0.000953218
0.000948199
0.000943129
0.000938013
0.000932858
0.000927667
0.000922447
0.000917202
0.000911937
0.000906657
0.000901366
0.000896069
0.00089077
0.000885473
0.000880181
0.000874899
0.00086963
0.000864378
0.000859145
0.000853936
0.000848752
0.000843596
0.000838471
0.000833381
0.000828327
0.000846075
0.00113777
0.00104368
0.000965278
0.00105184
0.00107499
0.00104645
0.00103667
0.0010394
0.00103918
0.00103642
0.00103364
0.00103097
0.0010281
0.00102502
0.00102177
0.00101835
0.00101478
0.00101105
0.00100719
0.00100319
0.000999072
0.000994833
0.000990482
0.000986028
0.000981476
0.000976834
0.000972108
0.000967304
0.000962428
0.000957487
0.000952485
0.00094743
0.000942326
0.000937179
0.000931995
0.000926778
0.000921533
0.000916265
0.00091098
0.000905681
0.000900373
0.00089506
0.000889746
0.000884436
0.000879133
0.00087384
0.000868562
0.000863301
0.000858061
0.000852844
0.000847654
0.000842493
0.000837365
0.000832271
0.000851087
0.00114474
0.00104559
0.000970396
0.00105687
0.00107755
0.00104915
0.00104027
0.00104312
0.00104278
0.00104004
0.00103733
0.00103472
0.00103191
0.00102888
0.00102567
0.00102231
0.00101878
0.00101511
0.00101129
0.00100734
0.00100326
0.000999067
0.000994757
0.000990341
0.000985826
0.000981217
0.000976522
0.000971746
0.000966896
0.000961978
0.000956997
0.000951959
0.000946869
0.000941733
0.000936557
0.000931345
0.000926102
0.000920833
0.000915544
0.000910238
0.00090492
0.000899594
0.000894265
0.000888937
0.000883613
0.000878297
0.000872992
0.000867703
0.000862432
0.000857182
0.000851957
0.000846759
0.000841591
0.000836456
0.000856261
0.00115188
0.00104756
0.000975713
0.00106201
0.00108019
0.00105201
0.00104402
0.00104698
0.00104653
0.00104381
0.00104118
0.00103862
0.00103586
0.00103289
0.00102974
0.00102642
0.00102295
0.00101933
0.00101557
0.00101167
0.00100764
0.00100348
0.000999219
0.000994845
0.000990369
0.000985797
0.000981137
0.000976393
0.000971572
0.000966679
0.000961721
0.000956703
0.00095163
0.000946508
0.000941342
0.000936137
0.000930899
0.000925631
0.00092034
0.000915028
0.000909702
0.000904365
0.000899021
0.000893675
0.000888331
0.000882992
0.000877662
0.000872344
0.000867042
0.000861759
0.000856498
0.000851263
0.000846055
0.000840878
0.000861581
0.00115916
0.00104957
0.000981218
0.00106725
0.0010829
0.001055
0.00104792
0.00105096
0.0010504
0.00104772
0.00104516
0.00104267
0.00103996
0.00103704
0.00103395
0.00103069
0.00102728
0.00102371
0.00102
0.00101615
0.00101218
0.00100807
0.00100386
0.000999527
0.000995094
0.000990563
0.000985941
0.000981232
0.000976443
0.00097158
0.000966648
0.000961653
0.0009566
0.000951495
0.000946342
0.000941147
0.000935915
0.00093065
0.000925358
0.000920044
0.000914711
0.000909364
0.000904007
0.000898645
0.000893281
0.00088792
0.000882564
0.000877219
0.000871886
0.00086657
0.000861273
0.000856
0.000850752
0.000845532
0.000867035
0.00116659
0.00105161
0.000986899
0.00107257
0.00108567
0.00105813
0.00105196
0.00105506
0.00105439
0.00105175
0.00104927
0.00104684
0.00104419
0.00104133
0.0010383
0.0010351
0.00103175
0.00102824
0.00102459
0.00102079
0.00101687
0.00101282
0.00100866
0.00100438
0.00099999
0.000995503
0.000990922
0.000986252
0.000981499
0.000976669
0.000971767
0.000966798
0.000961768
0.000956682
0.000951545
0.000946363
0.00094114
0.000935881
0.000930592
0.000925276
0.000919938
0.000914583
0.000909214
0.000903837
0.000898456
0.000893073
0.000887694
0.000882321
0.000876958
0.000871609
0.000866277
0.000860965
0.000855677
0.000850414
0.000872609
0.00117412
0.00105365
0.000992748
0.00107796
0.00108848
0.00106137
0.00105612
0.00105926
0.00105848
0.00105588
0.00105349
0.00105112
0.00104854
0.00104574
0.00104277
0.00103964
0.00103634
0.0010329
0.00102931
0.00102557
0.00102171
0.00101772
0.00101361
0.00100938
0.00100504
0.00100061
0.00099607
0.000991443
0.00098673
0.000981936
0.000977066
0.000972127
0.000967124
0.000962061
0.000956944
0.000951777
0.000946566
0.000941316
0.000936031
0.000930716
0.000925376
0.000920015
0.000914637
0.000909247
0.000903849
0.000898447
0.000893044
0.000887645
0.000882253
0.000876872
0.000871505
0.000866155
0.000860826
0.00085552
0.000878291
0.00118176
0.00105569
0.000998755
0.00108339
0.00109133
0.00106473
0.00106039
0.00106355
0.00106266
0.00106012
0.00105781
0.00105551
0.00105299
0.00105026
0.00104736
0.00104429
0.00104106
0.00103768
0.00103415
0.00103048
0.00102668
0.00102275
0.0010187
0.00101453
0.00101025
0.00100586
0.00100137
0.000996793
0.000992123
0.00098737
0.000982537
0.000977632
0.000972659
0.000967622
0.000962528
0.00095738
0.000952185
0.000946946
0.000941669
0.000936358
0.000931018
0.000925653
0.000920268
0.000914867
0.000909454
0.000904034
0.00089861
0.000893186
0.000887766
0.000882354
0.000876952
0.000871565
0.000866196
0.000860848
0.000884069
0.00118947
0.00105772
0.00100491
0.00108885
0.00109421
0.00106819
0.00106476
0.00106792
0.00106693
0.00106444
0.00106222
0.00105999
0.00105754
0.00105487
0.00105204
0.00104904
0.00104588
0.00104257
0.00103911
0.00103551
0.00103177
0.00102791
0.00102392
0.00101981
0.00101559
0.00101126
0.00100682
0.00100229
0.00099767
0.000992961
0.00098817
0.000983302
0.000978362
0.000973356
0.000968288
0.000963164
0.000957987
0.000952763
0.000947497
0.000942193
0.000936856
0.00093149
0.0009261
0.000920691
0.000915266
0.00090983
0.000904386
0.000898939
0.000893492
0.00088805
0.000882615
0.000877192
0.000871783
0.000866392
0.000889932
0.00119726
0.0010597
0.00101121
0.00109432
0.00109711
0.00107176
0.00106922
0.00107236
0.00107126
0.00106885
0.00106672
0.00106456
0.00106217
0.00105958
0.00105681
0.00105389
0.0010508
0.00104756
0.00104417
0.00104064
0.00103698
0.00103318
0.00102926
0.00102521
0.00102105
0.00101678
0.00101241
0.00100793
0.00100336
0.0009987
0.000993954
0.000989128
0.000984227
0.000979255
0.000974217
0.000969119
0.000963965
0.000958759
0.000953508
0.000948214
0.000942883
0.00093752
0.000932128
0.000926713
0.000921278
0.000915828
0.000910367
0.000904898
0.000899427
0.000893956
0.000888489
0.000883031
0.000877584
0.000872151
0.000895869
0.00120509
0.00106165
0.00101765
0.0010998
0.00110001
0.00107542
0.00107377
0.00107686