/*--------------------------------*- C++ -*----------------------------------*\
| =========                 |                                                 |
| \\      /  F ield         | OpenFOAM: The Open Source CFD Toolbox           |
|  \\    /   O peration     | Version:  2412                                  |
|   \\  /    A nd           | Website:  www.openfoam.com                      |
|    \\/     M anipulation  |                                                 |
\*---------------------------------------------------------------------------*/
FoamFile
{
    version     2.0;
    format      ascii;
    arch        "LSB;label=32;scalar=64";
    class       volScalarField;
    location    "2.5";
    object      p;
}
// * * * * * * * * * * * * * * * * * * * * * * * * * * * * * * * * * * * * * //

dimensions      [0 2 -2 0 0 0 0];

internalField   nonuniform List<scalar> 
5285
(
-0.00034934
-0.000351715
-0.000353258
-0.000353977
-0.000353916
-0.000353135
-0.0003517
-0.000349679
-0.000347141
-0.00034415
-0.000340764
-0.00033704
-0.000333028
-0.000328771
-0.000324311
-0.000319683
-0.000314919
-0.000310047
-0.000305093
-0.000300077
-0.00029502
-0.000289939
-0.000284849
-0.000279764
-0.000274696
-0.000269657
-0.000264657
-0.000259711
-0.000355327
-0.000356823
-0.000357635
-0.000357742
-0.000357166
-0.000355949
-0.000354143
-0.000351806
-0.000348995
-0.000345769
-0.00034218
-0.000338279
-0.000334111
-0.000329718
-0.000325137
-0.000320402
-0.000315543
-0.000310587
-0.000305556
-0.000300472
-0.000295354
-0.000290217
-0.000285077
-0.000279947
-0.000274839
-0.000269763
-0.000264732
-0.000259758
-0.000367293
-0.000367029
-0.000366374
-0.000365255
-0.000363647
-0.000361557
-0.000359009
-0.000356038
-0.000352684
-0.000348988
-0.000344993
-0.000340737
-0.00033626
-0.000331595
-0.000326774
-0.000321827
-0.000316779
-0.000311654
-0.000306472
-0.000301253
-0.000296012
-0.000290766
-0.000285527
-0.000280308
-0.000275119
-0.000269972
-0.000264878
-0.00025985
-0.00038476
-0.000381929
-0.000379133
-0.000376222
-0.000373107
-0.000369743
-0.000366111
-0.000362214
-0.000358066
-0.000353685
-0.000349096
-0.000344324
-0.000339394
-0.000334332
-0.000329161
-0.000323903
-0.000318579
-0.000313207
-0.000307805
-0.000302388
-0.00029697
-0.000291563
-0.000286179
-0.000280829
-0.000275523
-0.000270272
-0.000265084
-0.000259975
-0.000401607
-0.000395972
-0.000390685
-0.000385575
-0.000380525
-0.000375462
-0.000370344
-0.000365148
-0.000359865
-0.000354494
-0.000349041
-0.000343515
-0.00033793
-0.000332297
-0.00032663
-0.000320942
-0.000315245
-0.000309552
-0.000303874
-0.00029822
-0.000292601
-0.000287026
-0.000281503
-0.000276041
-0.000270649
-0.000265336
-0.000260117
-0.000430563
-0.000420589
-0.000411695
-0.000403572
-0.000395993
-0.000388797
-0.000381872
-0.000375136
-0.000368532
-0.000362024
-0.000355587
-0.000349205
-0.00034287
-0.000336581
-0.000330335
-0.000324135
-0.000317985
-0.000311888
-0.000305848
-0.00029987
-0.00029396
-0.000288123
-0.000282365
-0.000276691
-0.00027111
-0.000265628
-0.000260261
-0.000465997
-0.00045062
-0.000437216
-0.000425318
-0.000414573
-0.000404711
-0.000395531
-0.000386881
-0.000378645
-0.000370739
-0.000363098
-0.000355678
-0.000348443
-0.000341371
-0.000334442
-0.000327645
-0.00032097
-0.00031441
-0.000307962
-0.000301622
-0.000295391
-0.000289267
-0.000283253
-0.000277351
-0.000271564
-0.000265898
-0.000260363
-0.000254816
-0.000249921
-0.000244992
-0.000240036
-0.000235052
-0.000230038
-0.000224988
-0.000219906
-0.000214795
-0.000209667
-0.000204529
-0.000199391
-0.000194261
-0.000189148
-0.000184056
-0.000178993
-0.000173962
-0.000168968
-0.000164015
-0.000159107
-0.000154246
-0.000149438
-0.000144684
-0.000139988
-0.000135352
-0.00013078
-0.000126273
-0.000121835
-0.000117467
-0.000113172
-0.000108952
-0.000104809
-0.000100744
-9.67593e-05
-9.28562e-05
-8.9036e-05
-8.53001e-05
-8.16494e-05
-7.8085e-05
-7.46077e-05
-7.1218e-05
-6.79169e-05
-6.47045e-05
-6.1581e-05
-0.000254852
-0.000249943
-0.000244999
-0.00024003
-0.000235034
-0.000230007
-0.000224946
-0.000219853
-0.000214736
-0.000209602
-0.000204461
-0.000199322
-0.000194192
-0.000189079
-0.000183988
-0.000178925
-0.000173895
-0.000168902
-0.00016395
-0.000159043
-0.000154184
-0.000149377
-0.000144624
-0.00013993
-0.000135295
-0.000130724
-0.000126219
-0.000121783
-0.000117417
-0.000113123
-0.000108905
-0.000104763
-0.0001007
-9.67171e-05
-9.28156e-05
-8.8997e-05
-8.52626e-05
-8.16135e-05
-7.80506e-05
-7.45748e-05
-7.11867e-05
-6.78869e-05
-6.46759e-05
-6.15538e-05
-0.00025492
-0.000249979
-0.000245006
-0.000240012
-0.000234992
-0.000229941
-0.000224857
-0.000219746
-0.000214614
-0.000209471
-0.000204325
-0.000199183
-0.000194053
-0.000188941
-0.000183851
-0.00017879
-0.000173762
-0.000168771
-0.000163821
-0.000158916
-0.00015406
-0.000149255
-0.000144505
-0.000139813
-0.000135182
-0.000130614
-0.000126112
-0.000121679
-0.000117316
-0.000113026
-0.000108811
-0.000104672
-0.000100612
-9.66326e-05
-9.27343e-05
-8.8919e-05
-8.51877e-05
-8.15418e-05
-7.79819e-05
-7.45091e-05
-7.11239e-05
-6.7827e-05
-6.46188e-05
-6.14995e-05
-0.000255001
-0.000250014
-0.000244999
-0.000239968
-0.000234913
-0.000229828
-0.000224715
-0.000219579
-0.000214429
-0.000209274
-0.000204121
-0.000198976
-0.000193845
-0.000188734
-0.000183646
-0.000178587
-0.000173562
-0.000168574
-0.000163627
-0.000158726
-0.000153873
-0.000149072
-0.000144326
-0.000139639
-0.000135012
-0.000130449
-0.000125951
-0.000121523
-0.000117165
-0.00011288
-0.000108669
-0.000104536
-0.000100481
-9.65059e-05
-9.26125e-05
-8.88019e-05
-8.50754e-05
-8.14341e-05
-7.78789e-05
-7.44106e-05
-7.10297e-05
-6.77372e-05
-6.45332e-05
-6.14179e-05
-0.00025507
-0.000250026
-0.000244959
-0.000239882
-0.000234784
-0.000229659
-0.000224511
-0.000219347
-0.000214177
-0.000209009
-0.000203849
-0.000198701
-0.000193569
-0.000188459
-0.000183373
-0.000178317
-0.000173295
-0.000168311
-0.000163369
-0.000158472
-0.000153624
-0.000148828
-0.000144088
-0.000139406
-0.000134785
-0.000130228
-0.000125737
-0.000121314
-0.000116963
-0.000112684
-0.000108481
-0.000104354
-0.000100305
-9.63369e-05
-9.245e-05
-8.86459e-05
-8.49257e-05
-8.12906e-05
-7.77415e-05
-7.42792e-05
-7.09043e-05
-6.76175e-05
-6.4419e-05
-6.13092e-05
-0.000255098
-0.000249992
-0.000244869
-0.000239739
-0.000234591
-0.000229423
-0.000224238
-0.000219046
-0.000213856
-0.000208675
-0.000203508
-0.000198357
-0.000193225
-0.000188116
-0.000183033
-0.00017798
-0.000172962
-0.000167983
-0.000163045
-0.000158154
-0.000153312
-0.000148523
-0.00014379
-0.000139115
-0.000134501
-0.000129952
-0.000125469
-0.000121054
-0.000116711
-0.00011244
-0.000108245
-0.000104126
-0.000100086
-9.61259e-05
-9.22471e-05
-8.84509e-05
-8.47387e-05
-8.11114e-05
-7.75699e-05
-7.41151e-05
-7.07475e-05
-6.74679e-05
-6.42764e-05
-6.11734e-05
-0.000255061
-0.000249894
-0.000244716
-0.000239531
-0.000234332
-0.000229119
-0.000223899
-0.00021868
-0.00021347
-0.000208277
-0.000203102
-0.000197947
-0.000192814
-0.000187706
-0.000182625
-0.000177576
-0.000172563
-0.000167589
-0.000162658
-0.000157773
-0.000152939
-0.000148157
-0.000143432
-0.000138766
-0.000134161
-0.000129621
-0.000125147
-0.000120742
-0.000116408
-0.000112148
-0.000107962
-0.000103854
-9.98232e-05
-9.58728e-05
-9.20037e-05
-8.82172e-05
-8.45144e-05
-8.08965e-05
-7.73642e-05
-7.39184e-05
-7.05596e-05
-6.72885e-05
-6.41054e-05
-6.10106e-05
-0.000254948
-0.000249722
-0.000244489
-0.00023925
-0.000234003
-0.00022875
-0.000223498
-0.000218253
-0.000213024
-0.000207815
-0.00020263
-0.000197467
-0.000192331
-0.000187221
-0.000182142
-0.000177096
-0.000172087
-0.000167119
-0.000162194
-0.000157318
-0.000152492
-0.00014772
-0.000143004
-0.000138348
-0.000133754
-0.000129225
-0.000124762
-0.000120369
-0.000116047
-0.000111798
-0.000107625
-0.000103528
-9.95092e-05
-9.55705e-05
-9.17131e-05
-8.79381e-05
-8.42467e-05
-8.06399e-05
-7.71185e-05
-7.36835e-05
-7.03352e-05
-6.70744e-05
-6.39013e-05
-6.08162e-05
-0.000254782
-0.000249487
-0.00024419
-0.00023889
-0.000233589
-0.000228292
-0.000223005
-0.000217733
-0.000212484
-0.000207261
-0.000202065
-0.000196897
-0.000191758
-0.000186648
-0.000181571
-0.000176529
-0.000171526
-0.000166565
-0.000161649
-0.000156781
-0.000151966
-0.000147204
-0.000142501
-0.000137857
-0.000133276
-0.000128759
-0.00012431
-0.000119931
-0.000115622
-0.000111387
-0.000107228
-0.000103145
-9.91401e-05
-9.52152e-05
-9.13715e-05
-8.761e-05
-8.3932e-05
-8.03383e-05
-7.68299e-05
-7.34075e-05
-7.00715e-05
-6.68228e-05
-6.36615e-05
-6.05878e-05
-0.000254554
-0.000249186
-0.000243821
-0.00023846
-0.000233106
-0.000227766
-0.000222444
-0.000217145
-0.000211875
-0.000206636
-0.000201429
-0.000196254
-0.000191111
-0.000186001
-0.000180925
-0.000175888
-0.000170891
-0.000165938
-0.000161031
-0.000156174
-0.00015137
-0.000146622
-0.000141931
-0.000137301
-0.000132734
-0.000128233
-0.000123799
-0.000119435
-0.000115142
-0.000110923
-0.000106779
-0.000102712
-9.87232e-05
-9.4814e-05
-9.09857e-05
-8.72396e-05
-8.35767e-05
-7.99979e-05
-7.6504e-05
-7.30959e-05
-6.97739e-05
-6.65388e-05
-6.33908e-05
-6.033e-05
-0.000254255
-0.000248811
-0.000243379
-0.000237959
-0.000232555
-0.000227172
-0.000221816
-0.000216489
-0.000211197
-0.000205941
-0.000200721
-0.000195537
-0.000190389
-0.000185278
-0.000180205
-0.000175172
-0.000170182
-0.000165238
-0.000160341
-0.000155497
-0.000150705
-0.000145971
-0.000141295
-0.000136681
-0.00013213
-0.000127646
-0.000123229
-0.000118882
-0.000114607
-0.000110406
-0.000106279
-0.00010223
-9.82586e-05
-9.43669e-05
-9.05559e-05
-8.68269e-05
-8.31808e-05
-7.96186e-05
-7.6141e-05
-7.27488e-05
-6.94424e-05
-6.62225e-05
-6.30893e-05
-6.00429e-05
-0.000253872
-0.000248353
-0.000242855
-0.000237378
-0.000231926
-0.000226502
-0.000221112
-0.000215758
-0.000210443
-0.000205169
-0.000199936
-0.000194743
-0.00018959
-0.000184478
-0.000179407
-0.00017438
-0.000169398
-0.000164463
-0.000159579
-0.000154747
-0.000149971
-0.000145252
-0.000140593
-0.000135996
-0.000131464
-0.000126998
-0.0001226
-0.000118272
-0.000114017
-0.000109835
-0.000105728
-0.000101698
-9.77465e-05
-9.38741e-05
-9.00823e-05
-8.63722e-05
-8.27447e-05
-7.92008e-05
-7.57411e-05
-7.23664e-05
-6.90772e-05
-6.58741e-05
-6.27572e-05
-5.97267e-05
-0.000253393
-0.000247801
-0.00024224
-0.000236709
-0.000231209
-0.000225747
-0.000220324
-0.000214943
-0.000209607
-0.000204316
-0.00019907
-0.000193869
-0.000188712
-0.000183599
-0.000178531
-0.00017351
-0.000168537
-0.000163614
-0.000158743
-0.000153926
-0.000149166
-0.000144465
-0.000139824
-0.000135247
-0.000130734
-0.000126289
-0.000121912
-0.000117606
-0.000113371
-0.000109211
-0.000105126
-0.000101117
-9.7187e-05
-9.33358e-05
-8.95649e-05
-8.58755e-05
-8.22684e-05
-7.87444e-05
-7.53044e-05
-7.19489e-05
-6.86785e-05
-6.54936e-05
-6.23945e-05
-5.93814e-05
-0.000252806
-0.000247144
-0.000241522
-0.000235939
-0.000230396
-0.000224897
-0.000219444
-0.000214038
-0.000208682
-0.000203375
-0.000198118
-0.00019291
-0.00018775
-0.000182638
-0.000177575
-0.000172561
-0.000167598
-0.000162688
-0.000157832
-0.000153032
-0.00014829
-0.000143609
-0.000138989
-0.000134432
-0.000129942
-0.000125519
-0.000121165
-0.000116882
-0.000112671
-0.000108534
-0.000104473
-0.000100487
-9.65803e-05
-9.27521e-05
-8.90041e-05
-8.53371e-05
-8.17521e-05
-7.82499e-05
-7.48311e-05
-7.14965e-05
-6.82464e-05
-6.50814e-05
-6.20016e-05
-5.90073e-05
-0.000252095
-0.000246368
-0.00024069
-0.000235059
-0.000229476
-0.000223943
-0.000218463
-0.000213035
-0.000207661
-0.000202342
-0.000197076
-0.000191862
-0.000186702
-0.000181593
-0.000176536
-0.000171532
-0.000166581
-0.000161686
-0.000156847
-0.000152065
-0.000147344
-0.000142683
-0.000138086
-0.000133553
-0.000129087
-0.000124688
-0.000120359
-0.000116101
-0.000111916
-0.000107805
-0.000103768
-9.98086e-05
-9.59266e-05
-9.21234e-05
-8.83999e-05
-8.47572e-05
-8.11961e-05
-7.77173e-05
-7.43215e-05
-7.10093e-05
-6.77811e-05
-6.46375e-05
-6.15786e-05
-5.86045e-05
-0.000251248
-0.000245461
-0.000239733
-0.000234058
-0.000228439
-0.000222878
-0.000217374
-0.000211927
-0.000206539
-0.00020121
-0.000195938
-0.000190723
-0.000185564
-0.00018046
-0.000175412
-0.00017042
-0.000165484
-0.000160606
-0.000155785
-0.000151025
-0.000146326
-0.000141689
-0.000137116
-0.000132609
-0.000128168
-0.000123797
-0.000119495
-0.000115264
-0.000111106
-0.000107022
-0.000103014
-9.90811e-05
-9.52262e-05
-9.14497e-05
-8.77527e-05
-8.4136e-05
-8.06005e-05
-7.71469e-05
-7.37757e-05
-7.04876e-05
-6.7283e-05
-6.41623e-05
-6.11257e-05
-5.81733e-05
-0.000250252
-0.000244414
-0.00023864
-0.000232929
-0.000227279
-0.000221693
-0.00021617
-0.000210709
-0.000205311
-0.000199975
-0.000194701
-0.000189488
-0.000184334
-0.000179238
-0.000174202
-0.000169224
-0.000164305
-0.000159446
-0.000154647
-0.00014991
-0.000145235
-0.000140625
-0.000136079
-0.000131599
-0.000127187
-0.000122844
-0.000118572
-0.00011437
-0.000110242
-0.000106188
-0.000102208
-9.83051e-05
-9.44792e-05
-9.07314e-05
-8.70627e-05
-8.34739e-05
-7.99658e-05
-7.6539e-05
-7.31941e-05
-6.99317e-05
-6.67521e-05
-6.36559e-05
-6.06431e-05
-5.77138e-05
-0.000249098
-0.000243215
-0.000237404
-0.000231661
-0.000225987
-0.000220382
-0.000214845
-0.000209374
-0.000203971
-0.000198634
-0.000193362
-0.000188154
-0.000183008
-0.000177925
-0.000172903
-0.000167943
-0.000163044
-0.000158207
-0.000153432
-0.000148721
-0.000144073
-0.00013949
-0.000134974
-0.000130524
-0.000126143
-0.000121831
-0.00011759
-0.00011342
-0.000109324
-0.000105301
-0.000101353
-9.7481e-05
-9.3686e-05
-8.99688e-05
-8.63302e-05
-8.2771e-05
-7.9292e-05
-7.58938e-05
-7.25769e-05
-6.93418e-05
-6.61889e-05
-6.31186e-05
-6.01311e-05
-5.72264e-05
-0.000247773
-0.000241854
-0.000236014
-0.000230248
-0.000224556
-0.000218938
-0.000213393
-0.000207919
-0.000202515
-0.000197182
-0.000191916
-0.000186718
-0.000181585
-0.000176517
-0.000171514
-0.000166574
-0.000161698
-0.000156886
-0.000152139
-0.000147456
-0.000142838
-0.000138286
-0.000133801
-0.000129384
-0.000125036
-0.000120758
-0.00011655
-0.000112414
-0.000108351
-0.000104362
-0.000100448
-9.6609e-05
-9.28468e-05
-8.9162e-05
-8.55555e-05
-8.20278e-05
-7.85796e-05
-7.52116e-05
-7.19243e-05
-6.87182e-05
-6.55935e-05
-6.25507e-05
-5.95899e-05
-5.67111e-05
-0.000246269
-0.000240325
-0.000234464
-0.000228683
-0.00022298
-0.000217357
-0.00021181
-0.000206338
-0.00020094
-0.000195615
-0.000190361
-0.000185177
-0.000180061
-0.000175013
-0.000170032
-0.000165117
-0.000160268
-0.000155484
-0.000150767
-0.000146115
-0.00014153
-0.000137011
-0.000132561
-0.000128179
-0.000123866
-0.000119623
-0.000115452
-0.000111352
-0.000107325
-0.000103372
-9.94928e-05
-9.56893e-05
-9.1962e-05
-8.83116e-05
-8.47389e-05
-8.12444e-05
-7.78289e-05
-7.44929e-05
-7.12368e-05
-6.80612e-05
-6.49662e-05
-6.19524e-05
-5.90198e-05
-5.61684e-05
-0.000244578
-0.000238618
-0.000232746
-0.000226959
-0.000221255
-0.000215633
-0.000210091
-0.000204628
-0.000199241
-0.000193931
-0.000188694
-0.000183529
-0.000178436
-0.000173412
-0.000168457
-0.000163571
-0.000158751
-0.000154
-0.000149315
-0.000144698
-0.000140148
-0.000135666
-0.000131253
-0.000126908
-0.000122633
-0.000118429
-0.000114296
-0.000110234
-0.000106245
-0.00010233
-9.84887e-05
-9.47225e-05
-9.1032e-05
-8.74178e-05
-8.38807e-05
-8.04213e-05
-7.70401e-05
-7.37378e-05
-7.05146e-05
-6.73711e-05
-6.43074e-05
-6.13241e-05
-5.8421e-05
-5.55984e-05
-0.000242692
-0.000236728
-0.000230856
-0.000225072
-0.000219374
-0.000213761
-0.000208233
-0.000202785
-0.000197417
-0.000192127
-0.000186913
-0.000181773
-0.000176707
-0.000171712
-0.000166788
-0.000161933
-0.000157148
-0.000152432
-0.000147784
-0.000143204
-0.000138693
-0.00013425
-0.000129877
-0.000125573
-0.000121338
-0.000117175
-0.000113082
-0.000109061
-0.000105113
-0.000101237
-9.74358e-05
-9.37088e-05
-9.0057e-05
-8.6481e-05
-8.29814e-05
-7.95588e-05
-7.62138e-05
-7.29467e-05
-6.9758e-05
-6.66482e-05
-6.36173e-05
-6.06659e-05
-5.7794e-05
-5.50015e-05
-0.000240607
-0.000234649
-0.000228787
-0.000223016
-0.000217334
-0.00021174
-0.000206232
-0.000200807
-0.000195464
-0.0001902
-0.000185015
-0.000179906
-0.000174872
-0.000169911
-0.000165022
-0.000160205
-0.000155458
-0.00015078
-0.000146172
-0.000141634
-0.000137164
-0.000132764
-0.000128433
-0.000124172
-0.000119981
-0.00011586
-0.000111811
-0.000107833
-0.000103927
-0.000100094
-9.63343e-05
-9.26486e-05
-8.90376e-05
-8.55016e-05
-8.20414e-05
-7.86574e-05
-7.53502e-05
-7.21201e-05
-6.89675e-05
-6.58929e-05
-6.28964e-05
-5.99784e-05
-5.71389e-05
-5.43779e-05
-0.000238316
-0.000232378
-0.000226537
-0.000220789
-0.000215132
-0.000209565
-0.000204086
-0.000198691
-0.00019338
-0.00018815
-0.000183
-0.000177928
-0.000172931
-0.000168009
-0.000163161
-0.000158384
-0.000153679
-0.000149045
-0.000144481
-0.000139987
-0.000135562
-0.000131207
-0.000126922
-0.000122707
-0.000118562
-0.000114487
-0.000110483
-0.00010655
-0.000102689
-9.89005e-05
-9.51848e-05
-9.15425e-05
-8.79741e-05
-8.44801e-05
-8.1061e-05
-7.77174e-05
-7.44497e-05
-7.12583e-05
-6.81434e-05
-6.51056e-05
-6.21449e-05
-5.92618e-05
-5.64561e-05
-5.3728e-05
-0.000235818
-0.000229911
-0.000224103
-0.000218388
-0.000212766
-0.000207235
-0.000201793
-0.000196437
-0.000191165
-0.000185975
-0.000180867
-0.000175837
-0.000170883
-0.000166006
-0.000161202
-0.000156471
-0.000151813
-0.000147226
-0.000142709
-0.000138263
-0.000133887
-0.000129581
-0.000125344
-0.000121177
-0.00011708
-0.000113054
-0.000109098
-0.000105213
-0.000101399
-9.76574e-05
-9.39877e-05
-9.03908e-05
-8.6867e-05
-8.34168e-05
-8.00408e-05
-7.67393e-05
-7.35128e-05
-7.03617e-05
-6.72862e-05
-6.42867e-05
-6.13633e-05
-5.85164e-05
-5.5746e-05
-5.30521e-05
-0.00023311
-0.000227247
-0.000221482
-0.000215811
-0.000210234
-0.000204748
-0.000199352
-0.000194042
-0.000188816
-0.000183675
-0.000178614
-0.000173632
-0.000168728
-0.0001639
-0.000159146
-0.000154466
-0.000149858
-0.000145322
-0.000140857
-0.000136463
-0.000132138
-0.000127884
-0.000123699
-0.000119584
-0.000115538
-0.000111563
-0.000107657
-0.000103822
-0.000100058
-9.63651e-05
-9.27436e-05
-8.9194e-05
-8.57168e-05
-8.23124e-05
-7.89812e-05
-7.57236e-05
-7.254e-05
-6.94308e-05
-6.63962e-05
-6.34365e-05
-6.05519e-05
-5.77427e-05
-5.50089e-05
-5.23505e-05
-0.000230193
-0.000224384
-0.000218674
-0.000213059
-0.000207535
-0.000202104
-0.000196762
-0.000191506
-0.000186335
-0.000181248
-0.000176242
-0.000171315
-0.000166465
-0.000161692
-0.000156993
-0.000152368
-0.000147816
-0.000143335
-0.000138926
-0.000134586
-0.000130317
-0.000126118
-0.000121988
-0.000117927
-0.000113935
-0.000110014
-0.000106161
-0.000102379
-9.86662e-05
-9.50242e-05
-9.14529e-05
-8.79528e-05
-8.45241e-05
-8.11673e-05
-7.78827e-05
-7.46708e-05
-7.15318e-05
-6.8466e-05
-6.54739e-05
-6.25555e-05
-5.97111e-05
-5.69411e-05
-5.42452e-05
-5.16236e-05
-0.000227065
-0.000221324
-0.00021568
-0.00021013
-0.000204671
-0.000199303
-0.000194024
-0.00018883
-0.000183721
-0.000178695
-0.00017375
-0.000168884
-0.000164095
-0.000159382
-0.000154744
-0.000150179
-0.000145686
-0.000141265
-0.000136915
-0.000132634
-0.000128424
-0.000124283
-0.00012021
-0.000116207
-0.000112273
-0.000108407
-0.00010461
-0.000100882
-9.72241e-05
-9.36353e-05
-9.01163e-05
-8.66676e-05
-8.32894e-05
-7.9982e-05
-7.67459e-05
-7.35813e-05
-7.04885e-05
-6.74679e-05
-6.45197e-05
-6.16442e-05
-5.88415e-05
-5.61119e-05
-5.34553e-05
-5.08718e-05
-0.00022373
-0.000218068
-0.000212501
-0.000207026
-0.000201641
-0.000196346
-0.000191138
-0.000186015
-0.000180975
-0.000176018
-0.00017114
-0.000166341
-0.000161619
-0.000156971
-0.000152398
-0.000147898
-0.000143469
-0.000139112
-0.000134825
-0.000130608
-0.000126459
-0.00012238
-0.000118368
-0.000114425
-0.00011055
-0.000106744
-0.000103005
-9.93344e-05
-9.57323e-05
-9.2199e-05
-8.87345e-05
-8.53392e-05
-8.20133e-05
-7.87573e-05
-7.55713e-05
-7.24557e-05
-6.94109e-05
-6.6437e-05
-6.35343e-05
-6.07031e-05
-5.79434e-05
-5.52556e-05
-5.26396e-05
-5.00955e-05
-0.00022019
-0.000214619
-0.00020914
-0.00020375
-0.000198448
-0.000193234
-0.000188106
-0.000183061
-0.000178098
-0.000173216
-0.000168413
-0.000163687
-0.000159036
-0.00015446
-0.000149957
-0.000145526
-0.000141167
-0.000136877
-0.000132657
-0.000128506
-0.000124424
-0.000120409
-0.000116462
-0.000112582
-0.000108769
-0.000105024
-0.000101346
-9.77352e-05
-9.41918e-05
-9.0716e-05
-8.7308e-05
-8.39681e-05
-8.06965e-05
-7.74936e-05
-7.43596e-05
-7.12947e-05
-6.82993e-05
-6.53737e-05
-6.2518e-05
-5.97325e-05
-5.70173e-05
-5.43727e-05
-5.17986e-05
-4.9295e-05
-0.00021645
-0.000210979
-0.000205598
-0.000200303
-0.000195094
-0.00018997
-0.00018493
-0.000179971
-0.000175092
-0.000170292
-0.000165569
-0.000160922
-0.000156349
-0.00015185
-0.000147422
-0.000143066
-0.000138779
-0.000134562
-0.000130413
-0.000126332
-0.000122318
-0.000118372
-0.000114492
-0.000110678
-0.000106931
-0.00010325
-9.96346e-05
-9.60857e-05
-9.26032e-05
-8.91871e-05
-8.58377e-05
-8.25551e-05
-7.93397e-05
-7.61917e-05
-7.31113e-05
-7.00988e-05
-6.71545e-05
-6.42786e-05
-6.14714e-05
-5.8733e-05
-5.60636e-05
-5.34635e-05
-5.09325e-05
-4.84708e-05
-0.000212513
-0.000207154
-0.000201881
-0.00019669
-0.000191582
-0.000186557
-0.000181612
-0.000176746
-0.000171958
-0.000167247
-0.000162611
-0.000158049
-0.00015356
-0.000149142
-0.000144795
-0.000140517
-0.000136308
-0.000132167
-0.000128093
-0.000124086
-0.000120144
-0.000116269
-0.000112459
-0.000108715
-0.000105035
-0.000101421
-9.78714e-05
-9.43868e-05
-9.09673e-05
-8.76131e-05
-8.43242e-05
-8.11009e-05
-7.79435e-05
-7.48521e-05
-7.18271e-05
-6.88686e-05
-6.5977e-05
-6.31524e-05
-6.03951e-05
-5.77052e-05
-5.5083e-05
-5.25286e-05
-5.00421e-05
-4.76233e-05
-0.000208387
-0.000203149
-0.000197992
-0.000192915
-0.000187917
-0.000182998
-0.000178156
-0.000173391
-0.0001687
-0.000164084
-0.000159542
-0.00015507
-0.000150669
-0.000146338
-0.000142076
-0.000137882
-0.000133754
-0.000129693
-0.000125698
-0.000121768
-0.000117903
-0.000114102
-0.000110366
-0.000106693
-0.000103084
-9.95389e-05
-9.60573e-05
-9.26393e-05
-8.92851e-05
-8.59947e-05
-8.27684e-05
-7.96064e-05
-7.65087e-05
-7.34758e-05
-7.05077e-05
-6.76049e-05
-6.47674e-05
-6.19956e-05
-5.92896e-05
-5.66496e-05
-5.40758e-05
-5.15685e-05
-4.91275e-05
-4.6753e-05
-0.000204076
-0.000198969
-0.000193938
-0.000188983
-0.000184102
-0.000179297
-0.000174566
-0.000169907
-0.000165321
-0.000160806
-0.000156362
-0.000151987
-0.00014768
-0.000143441
-0.000139268
-0.000135162
-0.00013112
-0.000127143
-0.000123231
-0.000119381
-0.000115595
-0.000111872
-0.000108212
-0.000104614
-0.000101078
-9.76047e-05
-9.41934e-05
-9.08442e-05
-8.75574e-05
-8.4333e-05
-8.11712e-05
-7.80722e-05
-7.50361e-05
-7.20633e-05
-6.91539e-05
-6.63082e-05
-6.35264e-05
-6.08088e-05
-5.81555e-05
-5.55668e-05
-5.30427e-05
-5.05837e-05
-4.81895e-05
-4.58603e-05
-0.00019959
-0.000194621
-0.000189724
-0.000184898
-0.000180142
-0.000175458
-0.000170844
-0.0001663
-0.000161824
-0.000157416
-0.000153076
-0.000148803
-0.000144595
-0.000140452
-0.000136374
-0.000132359
-0.000128407
-0.000124518
-0.000120692
-0.000116927
-0.000113223
-0.000109581
-0.000105999
-0.000102479
-9.90187e-05
-9.56194e-05
-9.22807e-05
-8.90026e-05
-8.57853e-05
-8.26288e-05
-7.95334e-05
-7.64992e-05
-7.35265e-05
-7.06155e-05
-6.77663e-05
-6.49793e-05
-6.22547e-05
-5.95926e-05
-5.69934e-05
-5.44573e-05
-5.19842e-05
-4.95746e-05
-4.72284e-05
-4.49456e-05
-0.000194934
-0.000190112
-0.000185357
-0.000180667
-0.000176044
-0.000171487
-0.000166997
-0.000162572
-0.000158212
-0.000153918
-0.000149687
-0.00014552
-0.000141416
-0.000137374
-0.000133394
-0.000129475
-0.000125618
-0.00012182
-0.000118083
-0.000114405
-0.000110787
-0.000107229
-0.000103729
-0.000100289
-9.69069e-05
-9.35842e-05
-9.03203e-05
-8.71154e-05
-8.39696e-05
-8.08831e-05
-7.7856e-05
-7.48884e-05
-7.19807e-05
-6.91331e-05
-6.63457e-05
-6.36189e-05
-6.09529e-05
-5.83478e-05
-5.5804e-05
-5.33217e-05
-5.09008e-05
-4.85419e-05
-4.62448e-05
-4.40096e-05
-0.000190119
-0.00018545
-0.000180843
-0.000176297
-0.000171811
-0.000167389
-0.000163028
-0.000158729
-0.000154491
-0.000150314
-0.000146198
-0.000142142
-0.000138146
-0.00013421
-0.000130333
-0.000126514
-0.000122753
-0.000119051
-0.000115407
-0.00011182
-0.00010829
-0.000104818
-0.000101403
-9.80452e-05
-9.47442e-05
-9.15003e-05
-8.83135e-05
-8.51839e-05
-8.21117e-05
-7.90969e-05
-7.61399e-05
-7.32407e-05
-7.03997e-05
-6.76171e-05
-6.4893e-05
-6.22278e-05
-5.96218e-05
-5.70751e-05
-5.45879e-05
-5.21606e-05
-4.97932e-05
-4.74861e-05
-4.52392e-05
-4.30525e-05
-0.000167453
-0.000163169
-0.000158944
-0.000154775
-0.000150663
-0.00014661
-0.000142613
-0.000138673
-0.00013479
-0.000130963
-0.000127192
-0.000123477
-0.000119817
-0.000116213
-0.000112665
-0.000109172
-0.000105734
-0.000102351
-9.90228e-05
-9.57499e-05
-9.2532e-05
-8.93692e-05
-8.62616e-05
-8.32093e-05
-8.02125e-05
-7.72714e-05
-7.43862e-05
-7.15571e-05
-6.87844e-05
-6.60682e-05
-6.3409e-05
-6.08068e-05
-5.82621e-05
-5.5775e-05
-5.33458e-05
-5.09748e-05
-4.8662e-05
-4.64078e-05
-4.42121e-05
-4.20751e-05
-0.000444384
-0.000432352
-0.000421533
-0.000411637
-0.000402444
-0.000393791
-0.000385557
-0.000377653
-0.000370011
-0.000362583
-0.000355332
-0.000348232
-0.000341265
-0.000334418
-0.000327683
-0.000321055
-0.000314529
-0.000308105
-0.00030178
-0.000295556
-0.000289433
-0.000283411
-0.000277489
-0.000271668
-0.000265952
-0.000260343
-0.000484054
-0.000466704
-0.000451481
-0.000437925
-0.00042568
-0.000414471
-0.000404086
-0.000394364
-0.000385178
-0.000376433
-0.000368054
-0.000359982
-0.000352174
-0.000344595
-0.000337218
-0.000330024
-0.000322997
-0.000316126
-0.000309402
-0.000302818
-0.000296367
-0.000290046
-0.000283851
-0.000277778
-0.000271825
-0.000265988
-0.000260267
-0.000509703
-0.000488873
-0.000470617
-0.000454423
-0.000439885
-0.000426686
-0.000414577
-0.000403361
-0.00039288
-0.000383012
-0.000373659
-0.000364743
-0.000356202
-0.000347987
-0.000340059
-0.000332387
-0.000324945
-0.000317713
-0.000310675
-0.000303818
-0.00029713
-0.000290603
-0.000284229
-0.000278
-0.00027191
-0.000265955
-0.000260127
-0.000532077
-0.000508411
-0.000487636
-0.000469213
-0.000452712
-0.000437788
-0.000424166
-0.000411624
-0.000399983
-0.000389101
-0.000378862
-0.000369171
-0.000359954
-0.000351149
-0.000342706
-0.000334583
-0.000326748
-0.000319174
-0.000311837
-0.000304718
-0.000297802
-0.000291075
-0.000284526
-0.000278144
-0.00027192
-0.000265847
-0.000259915
-0.000553098
-0.000526898
-0.000503841
-0.000483375
-0.000465055
-0.000448518
-0.000433467
-0.000419664
-0.000406911
-0.00039505
-0.000383951
-0.000373504
-0.000363624
-0.000354237
-0.000345283
-0.000336713
-0.000328486
-0.000320568
-0.00031293
-0.000305548
-0.000298401
-0.000291472
-0.000284745
-0.000278208
-0.000271848
-0.000265655
-0.000259619
-0.000572476
-0.000544069
-0.000518992
-0.000496693
-0.000476719
-0.000458699
-0.000442323
-0.000427339
-0.000413539
-0.000400749
-0.000388826
-0.000377654
-0.000367132
-0.000357179
-0.000347728
-0.00033872
-0.000330108
-0.000321851
-0.000313915
-0.000306271
-0.000298895
-0.000291765
-0.000284862
-0.00027817
-0.000271675
-0.000265364
-0.000259225
-0.00058971
-0.000559472
-0.000532684
-0.000508804
-0.000487384
-0.000468049
-0.000450485
-0.000434432
-0.000419673
-0.000406026
-0.000393341
-0.000381489
-0.000370365
-0.000359878
-0.000349954
-0.000340528
-0.000331547
-0.000322965
-0.000314742
-0.000306846
-0.000299248
-0.000291923
-0.000284849
-0.000278007
-0.000271381
-0.000264956
-0.000258719
-0.000604538
-0.000572855
-0.000544678
-0.000519488
-0.000496845
-0.000476381
-0.000457783
-0.000440788
-0.000425177
-0.000410761
-0.000397385
-0.000384914
-0.000373236
-0.000362257
-0.000351893
-0.000342078
-0.000332751
-0.000323863
-0.00031537
-0.000307236
-0.000299427
-0.000291917
-0.000284681
-0.000277697
-0.000270947
-0.000264414
-0.000258084
-0.000616797
-0.00058405
-0.00055481
-0.000528583
-0.00050495
-0.000483553
-0.000464085
-0.000446288
-0.00042994
-0.000414853
-0.000400867
-0.000387845
-0.000375672
-0.000364248
-0.000353486
-0.000343316
-0.000333673
-0.000324503
-0.000315761
-0.000307406
-0.000299403
-0.000291722
-0.000284335
-0.000277219
-0.000270354
-0.000263723
-0.000257307
-0.000626385
-0.000592943
-0.000562958
-0.000535969
-0.00051158
-0.00048945
-0.000469284
-0.000450828
-0.000433867
-0.000418213
-0.000403707
-0.000390211
-0.000377607
-0.000365793
-0.00035468
-0.000344194
-0.000334269
-0.000324848
-0.000315882
-0.000307328
-0.000299149
-0.000291312
-0.00028379
-0.000276555
-0.000269587
-0.000262866
-0.000256375
-0.000633268
-0.000599479
-0.000569053
-0.000541568
-0.000516654
-0.00049399
-0.000473296
-0.000454331
-0.000436884
-0.000420774
-0.000405842
-0.000391952
-0.000378985
-0.000366841
-0.000355428
-0.000344671
-0.000334502
-0.000324862
-0.0003157
-0.000306973
-0.00029864
-0.000290668
-0.000283026
-0.000275687
-0.000268629
-0.000261831
-0.000255274
-0.000637468
-0.000603653
-0.000573072
-0.000545341
-0.000520123
-0.00049712
-0.000476069
-0.000456742
-0.000438937
-0.000422481
-0.000407219
-0.000393018
-0.000379763
-0.000367351
-0.000355693
-0.000344712
-0.00033434
-0.000324517
-0.000315192
-0.000306318
-0.000297855
-0.000289768
-0.000282026
-0.0002746
-0.000267467
-0.000260604
-0.000253993
-0.000639055
-0.000605504
-0.000575029
-0.000547288
-0.000521975
-0.000498816
-0.000477571
-0.000458025
-0.000439989
-0.000423297
-0.000407802
-0.000393376
-0.000379905
-0.00036729
-0.000355443
-0.000344288
-0.000333756
-0.000323789
-0.000314333
-0.000305342
-0.000296776
-0.000288597
-0.000280775
-0.00027328
-0.000266087
-0.000259174
-0.000252521
-0.000638138
-0.000605106
-0.000574973
-0.000547435
-0.000522219
-0.000499079
-0.000477794
-0.000458166
-0.00044002
-0.0004232
-0.000407568
-0.000393
-0.000379387
-0.000366635
-0.000354657
-0.000343378
-0.000332731
-0.000322658
-0.000313106
-0.000304029
-0.000295386
-0.000287141
-0.00027926
-0.000271714
-0.000264479
-0.000257532
-0.000250851
-0.000634854
-0.000602564
-0.000572979
-0.000545836
-0.000520892
-0.000497929
-0.000476747
-0.000457167
-0.000439027
-0.000422183
-0.000406504
-0.000391876
-0.000378195
-0.000365369
-0.000353317
-0.000341965
-0.000331248
-0.00032111