/*--------------------------------*- C++ -*----------------------------------*\
| =========                 |                                                 |
| \\      /  F ield         | OpenFOAM: The Open Source CFD Toolbox           |
|  \\    /   O peration     | Version:  2412                                  |
|   \\  /    A nd           | Website:  www.openfoam.com                      |
|    \\/     M anipulation  |                                                 |
\*---------------------------------------------------------------------------*/
FoamFile
{
    version     2.0;
    format      ascii;
    arch        "LSB;label=32;scalar=64";
    class       surfaceScalarField;
    location    "2.5";
    object      phi;
}
// * * * * * * * * * * * * * * * * * * * * * * * * * * * * * * * * * * * * * //

dimensions      [0 3 -1 0 0 0 0];

oriented        oriented;

internalField   nonuniform List<scalar> 
10421
(
0.00445786
-5.8757e-05
1.14168e-09
0.00450949
-5.16318e-05
1.69343e-09
0.00455496
-4.54691e-05
2.90245e-09
0.00459506
-4.01085e-05
4.65681e-09
0.00463048
-3.54213e-05
6.47067e-09
0.00466177
-3.13035e-05
8.03954e-09
0.00468944
-2.76708e-05
9.24351e-09
0.00471388
-2.4454e-05
1.00181e-08
0.00473546
-2.1595e-05
1.03887e-08
0.0047545
-1.90453e-05
1.04443e-08
0.00477125
-1.67641e-05
1.02943e-08
0.00478596
-1.47173e-05
1.00348e-08
0.00479883
-1.28768e-05
9.73565e-09
0.00481004
-1.12187e-05
9.4391e-09
0.00481975
-9.7229e-06
9.1661e-09
0.00482811
-8.37249e-06
8.92695e-09
0.00483526
-7.15313e-06
8.72512e-09
0.0048413
-6.05293e-06
8.56098e-09
0.00484636
-5.06237e-06
8.4344e-09
0.00485052
-4.1742e-06
8.34309e-09
0.0048539
-3.38365e-06
8.28308e-09
0.00485658
-2.6886e-06
8.25216e-09
0.00485866
-2.09001e-06
8.25033e-09
0.00486024
-1.59208e-06
8.27794e-09
0.00486144
-1.20075e-06
8.33599e-09
0.00486234
-9.17558e-07
8.42521e-09
0.00486306
-7.24884e-07
8.54297e-09
-5.63014e-07
0.00486362
8.68127e-09
0.00442155
-0.000118697
0.00447442
-0.000104501
0.00452116
-9.22107e-05
0.00456256
-8.15122e-05
0.00459929
-7.21524e-05
0.00463192
-6.39262e-05
0.00466091
-5.66672e-05
0.0046867
-5.02374e-05
0.00470962
-4.45218e-05
0.00473
-3.94237e-05
0.0047481
-3.48619e-05
0.00476415
-3.07689e-05
0.00477836
-2.70882e-05
0.00479092
-2.37723e-05
0.00480198
-2.07812e-05
0.00481168
-1.80806e-05
0.00482017
-1.56417e-05
0.00482756
-1.34406e-05
0.00483396
-1.14579e-05
0.00483946
-9.67882e-06
0.00484417
-8.09335e-06
0.00484818
-6.69664e-06
0.00485158
-5.4897e-06
0.00485446
-4.47965e-06
0.00485694
-3.67694e-06
0.00485911
-3.08365e-06
0.00486105
-2.66515e-06
-2.30596e-06
0.00486279
0.00434929
-0.000180981
0.0044046
-0.000159817
0.00445386
-0.00014147
0.00449783
-0.000125482
0.00453716
-0.000111483
0.00457241
-9.91711e-05
0.00460404
-8.83013e-05
0.00463247
-7.86692e-05
0.00465805
-7.01036e-05
0.00468109
-6.24609e-05
0.00470185
-5.56208e-05
0.00472056
-4.94829e-05
0.00473744
-4.39633e-05
0.00475266
-3.89911e-05
0.00476638
-3.45058e-05
0.00477876
-3.04559e-05
0.00478991
-2.67977e-05
0.00479997
-2.34947e-05
0.00480903
-2.05173e-05
0.00481719
-1.78427e-05
0.00482455
-1.54547e-05
0.0048312
-1.33446e-05
0.00483722
-1.15117e-05
0.00484271
-9.96397e-06
0.00484774
-8.71362e-06
0.00485242
-7.76147e-06
0.00485681
-7.05722e-06
-6.43739e-06
0.00486095
0.00424213
0.00430104
-0.000218731
0.004354
-0.000194425
0.00440173
-0.000173216
0.00444488
-0.000154627
0.00448397
-0.000138265
0.00451948
-0.000123811
0.0045518
-0.000110994
0.00458129
-9.95913e-05
0.00460824
-8.94126e-05
0.00463292
-8.03004e-05
0.00465556
-7.21228e-05
0.00467637
-6.47691e-05
0.00469552
-5.81449e-05
0.00471319
-5.21696e-05
0.0047295
-4.67737e-05
0.0047446
-4.18983e-05
0.0047586
-3.7494e-05
0.00477161
-3.35202e-05
0.00478371
-2.99454e-05
0.004795
-2.67462e-05
0.00480557
-2.39085e-05
0.00481548
-2.14281e-05
0.00482483
-1.93104e-05
0.00483368
-1.75665e-05
0.00484211
-1.61935e-05
0.00485018
-1.51277e-05
-1.4169e-05
0.00485792
0.00416559
-0.000282348
0.00422336
-0.000252193
0.00427598
-0.000225842
0.00432408
-0.00020272
0.00436817
-0.000182354
0.0044087
-0.000164348
0.00444608
-0.000148373
0.00448064
-0.000134152
0.00451268
-0.000121452
0.00454246
-0.00011008
0.00457021
-9.98739e-05
0.00459614
-9.06961e-05
0.00462043
-8.24295e-05
0.00464323
-7.49727e-05
0.00466469
-6.82382e-05
0.00468495
-6.21513e-05
0.0047041
-5.66491e-05
0.00472226
-5.16799e-05
0.00473952
-4.72021e-05
0.00475596
-4.31845e-05
0.00477165
-3.9606e-05
0.00478668
-3.64563e-05
0.00480111
-3.37357e-05
0.00481499
-3.14504e-05
0.00482839
-2.95919e-05
0.00484135
-2.8086e-05
-2.67103e-05
0.00485389
0.00400065
-0.000351825
0.00406436
-0.0003159
0.00412298
-0.000284467
0.00417712
-0.000256861
0.00422729
-0.000232527
0.00427395
-0.000211002
0.00431747
-0.000191894
0.00435819
-0.000174877
0.00439642
-0.000159675
0.0044324
-0.00014606
0.00446636
-0.000133841
0.00449852
-0.000122854
0.00452905
-0.000112959
0.00455811
-0.000104033
0.00458584
-9.59716e-05
0.00461237
-8.86829e-05
0.00463782
-8.20901e-05
0.00466227
-7.61297e-05
0.00468581
-7.07498e-05
0.00470854
-6.591e-05
0.00473051
-6.15808e-05
0.0047518
-5.77439e-05
0.00477246
-5.43917e-05
0.00479253
-5.15226e-05
0.00481206
-4.91204e-05
0.00483108
-4.71048e-05
-4.5246e-05
0.00484961
0.00381018
0.00388075
-0.000386467
0.00394629
-0.000350012
0.0040074
-0.000317971
0.00406459
-0.000289714
0.0041183
-0.000264708
0.00416891
-0.000242505
0.00421676
-0.000222724
0.00426213
-0.000205051
0.00430529
-0.000189222
0.00434647
-0.000175015
0.00438586
-0.000162244
0.00442364
-0.000150742
0.00445998
-0.000140369
0.004495
-0.000130999
0.00452885
-0.000122524
0.00456161
-0.000114855
0.00459339
-0.000107914
0.00462428
-0.000101639
0.00465435
-9.59792e-05
0.00468367
-9.08962e-05
0.00471229
-8.63617e-05
0.00474025
-8.23584e-05
0.0047676
-7.8874e-05
0.00479437
-7.58842e-05
0.00482057
-7.33055e-05
0.00484624
-7.09169e-05
0.00487453
-1.09198e-05
8.87662e-09
0.00488518
-1.06657e-05
9.19294e-09
0.00489516
-9.98746e-06
9.47795e-09
0.00490395
-8.80063e-06
9.68687e-09
0.00491114
-7.19837e-06
9.76754e-09
0.00491658
-5.44604e-06
9.67516e-09
0.00492044
-3.87468e-06
9.39135e-09
0.00492317
-2.74126e-06
8.93683e-09
0.00492531
-2.142e-06
8.36778e-09
0.00492732
-2.01564e-06
7.75705e-09
0.00492952
-2.21017e-06
7.17065e-09
0.00493207
-2.56023e-06
6.64931e-09
0.004935
-2.93761e-06
6.20152e-09
0.00493826
-3.26674e-06
5.80855e-09
0.00494178
-3.5167e-06
5.43785e-09
0.00494546
-3.68476e-06
5.05816e-09
0.00494923
-3.78168e-06
4.65466e-09
0.00495305
-3.82223e-06
4.23887e-09
0.00495687
-3.82034e-06
3.84315e-09
0.00496065
-3.78746e-06
3.49761e-09
0.00496438
-3.73234e-06
3.20684e-09
0.00496804
-3.66147e-06
2.94731e-09
0.00497162
-3.57959e-06
2.68758e-09
0.0049751
-3.49017e-06
2.41253e-09
0.0049785
-3.39575e-06
2.1306e-09
0.00498179
-3.29825e-06
1.86072e-09
0.00498499
-3.19905e-06
1.61345e-09
0.00498809
-3.09916e-06
1.3801e-09
0.00499109
-2.99932e-06
1.13882e-09
0.00499399
-2.90009e-06
8.76794e-10
0.00499679
-2.80192e-06
6.02784e-10
0.00499949
-2.70513e-06
3.38019e-10
0.0050021
-2.60999e-06
1.05646e-10
0.00500462
-2.51667e-06
-7.57998e-11
0.00500704
-2.42532e-06
-2.00243e-10
0.00500938
-2.33598e-06
-2.84839e-10
0.00501163
-2.24868e-06
-3.64019e-10
0.00501379
-2.16342e-06
-4.71348e-10
0.00501587
-2.08021e-06
-6.25658e-10
0.00501787
-1.99908e-06
-8.08669e-10
0.0050198
-1.92009e-06
-9.6861e-10
0.00502164
-1.84321e-06
-1.09494e-09
0.00502341
-1.7684e-06
-1.18954e-09
-1.69556e-06
-1.31083e-09
0.00487342
-2.15449e-05
0.00488377
-2.10224e-05
0.00489348
-1.96912e-05
0.00490207
-1.73926e-05
0.00490918
-1.43058e-05
0.00491467
-1.0937e-05
0.00491871
-7.91656e-06
0.0049217
-5.73332e-06
0.00492413
-4.57008e-06
0.00492642
-4.30993e-06
0.00492888
-4.66338e-06
0.00493163
-5.31543e-06
0.00493472
-6.0217e-06
0.00493809
-6.63788e-06
0.00494167
-7.10456e-06
0.00494541
-7.41607e-06
0.00494922
-7.59249e-06
0.00495306
-7.6616e-06
0.00495688
-7.64975e-06
0.00496068
-7.5786e-06
0.00496441
-7.46482e-06
0.00496807
-7.32079e-06
0.00497164
-7.1556e-06
0.00497513
-6.97594e-06
0.00497852
-6.78672e-06
0.00498181
-6.59158e-06
0.00498501
-6.3932e-06
0.0049881
-6.19358e-06
0.0049911
-5.99415e-06
0.00499399
-5.79604e-06
0.00499679
-5.60008e-06
0.00499949
-5.4069e-06
0.0050021
-5.217e-06
0.00500461
-5.03071e-06
0.00500704
-4.84828e-06
0.00500937
-4.66985e-06
0.00501162
-4.49548e-06
0.00501378
-4.32522e-06
0.00501586
-4.15911e-06
0.00501786
-3.99718e-06
0.00501978
-3.83948e-06
0.00502162
-3.68596e-06
0.00502339
-3.53654e-06
-3.39109e-06
0.00487105
-3.1646e-05
0.00488086
-3.08366e-05
0.00489008
-2.89088e-05
0.00489833
-2.56474e-05
0.00490533
-2.13023e-05
0.00491097
-1.65728e-05
0.00491538
-1.2329e-05
0.00491889
-9.24563e-06
0.0049219
-7.57567e-06
0.00492474
-7.15908e-06
0.00492768
-7.59727e-06
0.00493082
-8.45565e-06
0.00493419
-9.39605e-06
0.00493777
-1.02178e-05
0.00494151
-1.08371e-05
0.00494533
-1.12446e-05
0.00494921
-1.14668e-05
0.00495309
-1.15409e-05
0.00495694
-1.15031e-05
0.00496075
-1.13828e-05
0.00496448
-1.12031e-05
0.00496814
-1.0981e-05
0.00497172
-1.07293e-05
0.0049752
-1.04574e-05
0.00497858
-1.01721e-05
0.00498187
-9.87854e-06
0.00498506
-9.58062e-06
0.00498815
-9.28113e-06
0.00499113
-8.98218e-06
0.00499402
-8.68534e-06
0.00499682
-8.39183e-06
0.00499951
-8.10254e-06
0.00500211
-7.81817e-06
0.00500462
-7.53922e-06
0.00500704
-7.26605e-06
0.00500937
-6.99884e-06
0.00501161
-6.73773e-06
0.00501377
-6.48279e-06
0.00501584
-6.23407e-06
0.00501784
-5.99163e-06
0.00501975
-5.7555e-06
0.00502159
-5.52558e-06
0.00502336
-5.30176e-06
-5.0839e-06
0.00486733
-4.10658e-05
0.00487646
-3.9961e-05
0.00488508
-3.75294e-05
0.00489295
-3.35202e-05
0.00489988
-2.82297e-05
0.00490579
-2.24845e-05
0.00491078
-1.73135e-05
0.00491505
-1.35181e-05
0.00491888
-1.14032e-05
0.0049225
-1.07855e-05
0.0049261
-1.11974e-05
0.00492977
-1.21254e-05
0.00493354
-1.31674e-05
0.00493741
-1.40821e-05
0.00494134
-1.47661e-05
0.0049453
-1.52047e-05
0.00494926
-1.54264e-05
0.00495319
-1.54737e-05
0.00495707
-1.53878e-05
0.0049609
-1.52036e-05
0.00496464
-1.49479e-05
0.0049683
-1.46411e-05
0.00497187
-1.42986e-05
0.00497534
-1.39315e-05
0.00497872
-1.35484e-05
0.004982
-1.31555e-05
0.00498517
-1.27575e-05
0.00498825
-1.23581e-05
0.00499123
-1.19597e-05
0.00499411
-1.15644e-05
0.00499689
-1.11737e-05
0.00499958
-1.07888e-05
0.00500217
-1.04104e-05
0.00500467
-1.00393e-05
0.00500708
-9.67588e-06
0.0050094
-9.3204e-06
0.00501163
-8.97303e-06
0.00501379
-8.63389e-06
0.00501585
-8.30303e-06
0.00501784
-7.98051e-06
0.00501975
-7.66634e-06
0.00502159
-7.3604e-06
0.00502335
-7.06253e-06
-6.7726e-06
0.00486256
-4.97375e-05
0.00487095
-4.83502e-05
0.00487896
-4.55425e-05
0.00488649
-4.10467e-05
0.00489343
-3.51745e-05
0.00489975
-2.88025e-05
0.00490547
-2.3029e-05
0.00491067
-1.87183e-05
0.00491548
-1.62108e-05
0.00492002
-1.53256e-05
0.00492439
-1.55733e-05
0.00492867
-1.6408e-05
0.0049329
-1.73962e-05
0.00493709
-1.82731e-05
0.00494125
-1.89203e-05
0.00494536
-1.93152e-05
0.00494942
-1.94831e-05
0.00495341
-1.94663e-05
0.00495733
-1.9307e-05
0.00496117
-1.90414e-05
0.00496492
-1.8698e-05
0.00496857
-1.82987e-05
0.00497213
-1.78601e-05
0.0049756
-1.73947e-05
0.00497896
-1.69117e-05
0.00498222
-1.64183e-05
0.00498539
-1.59199e-05
0.00498845
-1.54204e-05
0.00499141
-1.49228e-05
0.00499428
-1.44295e-05
0.00499705
-1.39422e-05
0.00499972
-1.34622e-05
0.0050023
-1.29905e-05
0.00500479
-1.25279e-05
0.00500719
-1.20749e-05
0.0050095
-1.16319e-05
0.00501172
-1.11989e-05
0.00501387
-1.07762e-05
0.00501593
-1.03638e-05
0.00501791
-9.96182e-06
0.00501981
-9.57016e-06
0.00502164
-9.1887e-06
0.00502339
-8.81727e-06
-8.45571e-06
0.00485755
-5.76708e-05
0.00486523
-5.60371e-05
0.00487269
-5.3e-05
0.00487993
-4.82902e-05
0.00488696
-4.22011e-05
0.00489374
-3.55835e-05
0.00490023
-2.95194e-05
0.00490639
-2.48762e-05
0.0049122
-2.20166e-05
0.00491766
-2.079e-05
0.00492282
-2.07314e-05
0.00492772
-2.13078e-05
0.00493241
-2.20862e-05
0.00493693
-2.27939e-05
0.00494131
-2.3302e-05
0.00494557
-2.35773e-05
0.00494973
-2.36373e-05
0.00495378
-2.35182e-05
0.00495773
-2.3259e-05
0.00496158
-2.28938e-05
0.00496533
-2.24503e-05
0.00496899
-2.19502e-05
0.00497254
-2.14101e-05
0.00497598
-2.08428e-05
0.00497933
-2.02579e-05
0.00498258
-1.96629e-05
0.00498572
-1.90635e-05
0.00498876
-1.8464e-05
0.00499171
-1.78676e-05
0.00499455
-1.72768e-05
0.00499731
-1.66936e-05
0.00499996
-1.61193e-05
0.00500253
-1.55552e-05
0.005005
-1.5002e-05
0.00500739
-1.44603e-05
0.00500969
-1.39305e-05
0.0050119
-1.34128e-05
0.00501403
-1.29074e-05
0.00501608
-1.24143e-05
0.00501805
-1.19335e-05
0.00501995
-1.14651e-05
0.00502177
-1.10087e-05
0.00502352
-1.05643e-05
-1.01317e-05
0.0048535
-6.4927e-05
0.00486055
-6.30959e-05
0.00486752
-5.99672e-05
0.00487451
-5.5282e-05
0.0048816
-4.92885e-05
0.00488877
-4.275e-05
0.00489591
-3.66612e-05
0.00490288
-3.18441e-05
0.00490953
-2.86724e-05
0.00491579
-2.70469e-05
0.00492162
-2.6566e-05
0.00492706
-2.67464e-05
0.00493216
-2.71825e-05
0.00493697
-2.7608e-05
0.00494156
-2.78874e-05
0.00494596
-2.79758e-05
0.0049502
-2.78784e-05
0.0049543
-2.76219e-05
0.00495828
-2.72379e-05
0.00496214
-2.67558e-05
0.00496589
-2.62002e-05
0.00496953
-2.55912e-05
0.00497307
-2.49442e-05
0.0049765
-2.42716e-05
0.00497982
-2.35828e-05
0.00498304
-2.28852e-05
0.00498616
-2.21845e-05
0.00498919
-2.14851e-05
0.00499211
-2.07903e-05
0.00499493
-2.01028e-05
0.00499767
-1.94246e-05
0.0050003
-1.87571e-05
0.00500285
-1.81015e-05
0.00500531
-1.74588e-05
0.00500768
-1.68294e-05
0.00500996
-1.6214e-05
0.00501216
-1.56125e-05
0.00501428
-1.50253e-05
0.00501631
-1.44523e-05
0.00501827
-1.38937e-05
0.00502016
-1.33492e-05
0.00502197
-1.28188e-05
0.00502371
-1.23022e-05
-1.17993e-05
0.00508403
-7.19259e-05
-0.00507704
0.00509086
-6.99209e-05
0.00509769
-6.67969e-05
0.00510472
-6.23141e-05
0.00511209
-5.6655e-05
0.00511979
-5.04494e-05
0.00512768
-4.45499e-05
0.00513553
-3.96928e-05
0.0051431
-3.625e-05
0.00515024
-3.41877e-05
0.00515687
-3.31951e-05
0.00516299
-3.28682e-05
0.00516866
-3.28504e-05
0.00517395
-3.28946e-05
0.00517892
-3.28634e-05
0.00518365
-3.27001e-05
0.00518817
-3.23957e-05
0.00519251
-3.19639e-05
0.0051967
-3.14264e-05
0.00520075
-3.08055e-05
0.00520467
-3.01212e-05
0.00520847
-2.93901e-05
0.00521215
-2.8626e-05
0.00521572
-2.78397e-05
0.00521917
-2.70401e-05
0.00522252
-2.62341e-05
0.00522577
-2.5427e-05
0.0052289
-2.46233e-05
0.00523194
-2.38262e-05
0.00523487
-2.30383e-05
0.00523771
-2.22615e-05
0.00524045
-2.14975e-05
0.0052431
-2.07474e-05
0.00524565
-2.0012e-05
0.00524811
-1.92922e-05
0.00525049
-1.85881e-05
0.00525278
-1.79001e-05
0.00525498
-1.72283e-05
0.0052571
-1.65728e-05
0.00525914
-1.59336e-05
0.0052611
-1.53105e-05
0.00526298
-1.47034e-05
0.00526479
-1.4112e-05
-1.35362e-05
0.00508479
-7.84422e-05
-0.00507828
0.00509114
-7.62668e-05
0.00509753
-7.31858e-05
0.0051042
-6.89829e-05
0.00511132
-6.37721e-05
0.0051189
-5.80356e-05
0.00512681
-5.24617e-05
0.0051348
-4.76785e-05
0.00514259
-4.40413e-05
0.00514998
-4.15779e-05
0.00515686
-4.0074e-05
0.00516321
-3.92157e-05
0.00516906
-3.87068e-05
0.0051745
-3.83284e-05
0.00517958
-3.79473e-05
0.00518438
-3.7498e-05
0.00518894
-3.69582e-05
0.00519331
-3.63287e-05
0.0051975
-3.56205e-05
0.00520154
-3.48481e-05
0.00520545
-3.40256e-05
0.00520922
-3.3166e-05
0.00521288
-3.22803e-05
0.00521642
-3.13777e-05
0.00521984
-3.04658e-05
0.00522316
-2.95507e-05
0.00522637
-2.86374e-05
0.00522947
-2.773e-05
0.00523248
-2.68314e-05
0.00523539
-2.59441e-05
0.00523819
-2.50701e-05
0.00524091
-2.42109e-05
0.00524353
-2.33677e-05
0.00524606
-2.25412e-05
0.0052485
-2.17322e-05
0.00525085
-2.0941e-05
0.00525312
-2.01677e-05
0.0052553
-1.94127e-05
0.00525741
-1.86759e-05
0.00525943
-1.79573e-05
0.00526138
-1.72567e-05
0.00526325
-1.65739e-05
0.00526504
-1.59087e-05
-1.5261e-05
0.00508817
-8.45752e-05
-0.00508203
0.00509412
-8.22255e-05
0.00510012
-7.91793e-05
0.00510638
-7.52498e-05
0.00511311
-7.04938e-05
0.00512033
-6.52562e-05
0.00512793
-6.00652e-05
0.00513569
-5.54341e-05
0.00514333
-5.16877e-05
0.00515065
-4.89002e-05
0.00515752
-4.69434e-05
0.0051639
-4.55899e-05
0.0051698
-4.46063e-05
0.00517528
-4.38068e-05
0.0051804
-4.30682e-05
0.00518522
-4.2321e-05
0.00518979
-4.15328e-05
0.00519416
-4.06933e-05
0.00519834
-3.9804e-05
0.00520237
-3.88717e-05
0.00520625
-3.79048e-05
0.00520999
-3.69121e-05
0.00521361
-3.59018e-05
0.00521712
-3.48809e-05
0.00522051
-3.38558e-05
0.00522379
-3.28316e-05
0.00522696
-3.18125e-05
0.00523003
-3.0802e-05
0.00523301
-2.9803e-05
0.00523588
-2.88177e-05
0.00523866
-2.7848e-05
0.00524134
-2.68951e-05
0.00524393
-2.59603e-05
0.00524644
-2.50442e-05
0.00524885
-2.41476e-05
0.00525118
-2.32706e-05
0.00525343
-2.24137e-05
0.00525559
-2.15768e-05
0.00525768
-2.076e-05
0.00525968
-1.99632e-05
0.00526161
-1.91863e-05
0.00526347
-1.8429e-05
0.00526525
-1.76911e-05
-1.69725e-05
0.00509323
-9.04073e-05
-0.0050874
0.00509889
-8.78811e-05
0.00510455
-8.48403e-05
0.00511043
-8.11303e-05
0.0051167
-7.67671e-05
0.00512343
-7.19839e-05
0.00513053
-6.71699e-05
0.00513783
-6.27304e-05
0.00514509
-5.89502e-05
0.00515212
-5.59303e-05
0.00515879
-5.36096e-05
0.00516503
-5.18341e-05
0.00517086
-5.04278e-05
0.00517629
-4.92397e-05
0.00518138
-4.81606e-05
0.00518618
-4.71219e-05
0.00519073
-4.60855e-05
0.00519507
-4.50334e-05
0.00519923
-4.39591e-05
0.00520322
-4.28631e-05
0.00520706
-4.17485e-05
0.00521077
-4.06204e-05
0.00521435
-3.94839e-05
0.00521782
-3.83441e-05
0.00522117
-3.72057e-05
0.00522441
-3.60726e-05
0.00522754
-3.49485e-05
0.00523058
-3.38362e-05
0.00523351
-3.27382e-05
0.00523635
-3.16564e-05
0.0052391
-3.05924e-05
0.00524175
-2.95475e-05
0.00524431
-2.85228e-05
0.00524679
-2.75189e-05
0.00524918
-2.65362e-05
0.00525148
-2.55752e-05
0.0052537
-2.4636e-05
0.00525584
-2.37187e-05
0.00525791
-2.28233e-05
0.00525989
-2.19497e-05
0.00526181
-2.10978e-05
0.00526364
-2.02672e-05
0.00526541
-1.94578e-05
-1.86693e-05
0.00509908
-9.59977e-05
-0.00509349
0.0051045
-9.33017e-05
0.0051099
-9.0237e-05
0.00511545
-8.66794e-05
0.0051213
-8.26196e-05
0.00512752
-7.82083e-05
0.00513408
-7.37248e-05
0.00514083
-6.94815e-05
0.0051476
-6.57196e-05
0.00515422
-6.25505e-05
0.00516057
-5.99585e-05
0.00516658
-5.78458e-05
0.00517224
-5.6085e-05
0.00517755
-5.45571e-05
0.00518256
-5.31694e-05
0.0051873
-5.18584e-05
0.0051918
-5.05843e-05
0.00519609
-4.93245e-05
0.0052002
-4.80673e-05
0.00520414
-4.68079e-05
0.00520794
-4.55457e-05
0.0052116
-4.4282e-05
0.00521514
-4.30194e-05
0.00521855
-4.17611e-05
0.00522186
-4.05101e-05
0.00522505
-3.92693e-05
0.00522815
-3.80415e-05
0.00523114
-3.68289e-05
0.00523404
-3.56335e-05
0.00523684
-3.44569e-05
0.00523954
-3.33006e-05
0.00524216
-3.21656e-05
0.00524469
-3.10528e-05
0.00524714
-2.99627e-05
0.0052495
-2.88959e-05
0.00525177
-2.78525e-05
0.00525397
-2.68327e-05
0.00525609
-2.58366e-05
0.00525813
-2.48642e-05
0.00526009
-2.39152e-05
0.00526199
-2.29895e-05
0.00526381
-2.2087e-05
0.00526555
-2.12072e-05
-2.035e-05
0.00510513
-0.000101377
-0.00509975
0.00511036
-9.85282e-05
0.00511554
-9.54211e-05
0.00512082
-9.19572e-05
0.00512632
-8.81135e-05
0.00513209
-8.39837e-05
0.00513813
-7.97658e-05
0.00514435
-7.56988e-05
0.00515061
-7.19824e-05
0.00515679
-6.87261e-05
0.00516277
-6.59417e-05
0.0051685
-6.35711e-05
0.00517394
-6.15244e-05
0.00517909
-5.97103e-05
0.00518397
-5.80528e-05
0.00518861
-5.64957e-05
0.00519303
-5.50009e-05
0.00519725
-5.35439e-05
0.00520129
-5.21102e-05
0.00520517
-5.06917e-05
0.00520891
-4.92844e-05
0.00521252
-4.78871e-05
0.005216
-4.65002e-05
0.00521936
-4.5125e-05
0.00522261
-4.37632e-05
0.00522576
-4.24165e-05
0.00522881
-4.10869e-05
0.00523175
-3.97759e-05
0.0052346
-3.84851e-05
0.00523736
-3.72159e-05
0.00524003
-3.59693e-05
0.00524261
-3.47462e-05
0.00524511
-3.35474e-05
0.00524752
-3.23732e-05
0.00524985
-3.12241e-05
0.00525209
-3.01002e-05
0.00525426
-2.90016e-05
0.00525635
-2.79284e-05
0.00525837
-2.68805e-05
0.00526031
-2.58577e-05
0.00526218
-2.48598e-05
0.00526398
-2.38867e-05
0.00526571
-2.29379e-05
-2.20132e-05
0.00511116
-0.000106549
-0.00510599
0.00511621
-0.000103572
0.0051212
-0.000100417
0.00512625
-9.70044e-05
0.00513144
-9.33059e-05
0.00513684
-8.93774e-05
0.00514243
-8.53602e-05
0.00514817
-8.14376e-05
0.00515396
-7.77741e-05
0.00515971
-7.44706e-05
0.00516532
-7.15533e-05
0.00517074
-6.899e-05
0.00517593
-6.6718e-05
0.00518089
-6.46686e-05
0.00518562
-6.27806e-05
0.00519013
-6.10063e-05
0.00519444
-5.93112e-05
0.00519856
-5.76714e-05
0.00520253
-5.60711e-05
0.00520633
-5.45003e-05
0.00521
-5.29531e-05
0.00521354
-5.14261e-05
0.00521696
-4.99181e-05
0.00522026
-4.84289e-05
0.00522346
-4.69588e-05
0.00522655
-4.55088e-05
0.00522954
-4.40798e-05
0.00523244
-4.26729e-05
0.00523525
-4.12893e-05
0.00523796
-3.99298e-05
0.00524059
-3.85952e-05
0.00524313
-3.72864e-05
0.00524558
-3.60038e-05
0.00524796
-3.47477e-05
0.00525025
-3.35183e-05
0.00525247
-3.23159e-05
0.00525461
-3.11405e-05
0.00525667
-2.9992e-05
0.00525866
-2.88703e-05
0.00526058
-2.77754e-05
0.00526242
-2.67069e-05
0.0052642
-2.56646e-05
0.00526591
-2.46482e-05
-2.36574e-05
0.00511715
-0.000111502
-0.0051122
0.00512201
-0.000108423
0.00512681
-0.000105222
0.00513164
-0.000101836
0.00513657
-9.82322e-05
0.00514163
-9.44428e-05
0.00514684
-9.05706e-05
0.00515217
-8.67592e-05
0.00515754
-8.31446e-05
0.00516288
-7.9817e-05
0.00516814
-7.68083e-05
0.00517325
-7.41021e-05
0.00517819
-7.16547e-05
0.00518293
-6.94142e-05
0.00518748
-6.73324e-05
0.00519185
-6.53697e-05
0.00519603
-6.34961e-05
0.00520005
-6.16897e-05
0.00520392
-5.99349e-05
0.00520764
-5.82209e-05
0.00521122
-5.65407e-05
0.00521469
-5.48896e-05
0.00521803
-5.32651e-05
0.00522127
-5.16657e-05
0.0052244
-5.00909e-05
0.00522743
-4.85407e-05
0.00523037
-4.70155e-05
0.00523321
-4.55157e-05
0.00523597
-4.40419e-05
0.00523863
-4.25949e-05
0.00524121
-4.11751e-05
0.00524371
-3.9783e-05
0.00524612
-3.84191e-05
0.00524846
-3.70834e-05
0.00525072
-3.57761e-05
0.0052529
-3.44973e-05
0.005255
-3.32471e-05
0.00525704
-3.20253e-05
0.005259
-3.08318e-05
0.00526089
-2.96664e-05
0.00526271
-2.8529e-05
0.00526447
-2.74191e-05
0.00526615
-2.63366e-05
-2.5281e-05
0.00512316
-0.000116211
-0.00511845
0.0051278
-0.000113057
0.00513239
-0.00010982
0.00513701
-0.000106448
0.00514168
-0.000102906
0.00514645
-9.92116e-05
0.00515132
-9.54425e-05
0.00515627
-9.17138e-05
0.00516127
-8.81399e-05
0.00516625
-8.48005e-05
0.00517117
-8.17284e-05
0.00517599
-7.89162e-05
0.00518067
-7.63327e-05
0.00518519
-7.39384e-05
0.00518955
-7.16953e-05
0.00519375
-6.95712e-05
0.0051978
-6.75409e-05
0.00520169
-6.5585e-05
0.00520545
-6.3689e-05
0.00520907
-6.18422e-05
0.00521257
-6.00373e-05
0.00521595
-5.82688e-05
0.00521921
-5.65334e-05
0.00522238
-5.48288e-05
0.00522544
-5.31536e-05
0.00522841
-5.15072e-05
0.00523128
-4.98893e-05
0.00523406
-4.82999e-05
0.00523676
-4.67393e-05
0.00523937
-4.52078e-05
0.0052419
-4.37056e-05
0.00524435
-4.22332e-05
0.00524673
-4.07905e-05
0.00524902
-3.93778e-05
0.00525124
-3.7995e-05
0.00525338
-3.66422e-05
0.00525546
-3.53193e-05
0.00525746
-3.40263e-05
0.00525939
-3.27629e-05
0.00526125
-3.1529e-05
0.00526305
-3.03244e-05
0.00526478
-2.91487e-05
0.00526644
-2.80015e-05
-2.68827e-05
0.00512924
-0.000120655
-0.00512479
0.00513363
-0.000117449
0.00513799
-0.000114188
0.00514237
-0.000110825
0.00514679
-0.000107326
0.00515128
-0.000103699
0.00515584
-0.000100004
0.00516046
-9.63366e-05
0.00516512
-9.27955e-05
0.00516977
-8.94512e-05
0.00517438
-8.63349e-05
0.0051789
-8.3444e-05
0.00518333
-8.07552e-05
0.00518763
-7.82377e-05
0.00519179
-7.58615e-05
0.00519582
-7.36007e-05
0.00519971
-7.14343e-05
0.00520348
-6.93459e-05
0.00520711
-6.73226e-05
0.00521062
-6.53545e-05
0.00521402
-6.34341e-05
0.00521731
-6.1556e-05
0.00522049
-5.97163e-05
0.00522357
-5.7912e-05
0.00522656
-5.61415e-05
0.00522946
-5.44033e-05
0.00523226
-5.26969e-05
0.00523499
-5.10217e-05
0.00523762
-4.93778e-05
0.00524018
-4.77652e-05
0.00524266
-4.61838e-05
0.00524506
-4.46339e-05
0.00524738
-4.31155e-05
0.00524964
-4.16284e-05
0.00525181
-4.01727e-05
0.00525392
-3.87483e-05
0.00525596
-3.73551e-05
0.00525792
-3.59931e-05
0.00525982
-3.4662e-05
0.00526165
-3.33615e-05
0.00526342
-3.20916e-05
0.00526512
-3.08518e-05
0.00526676
-2.96417e-05
-2.84611e-05
0.0051354
-0.000124811
-0.00513124
0.00513953
-0.000121575
0.00514364
-0.000118303
0.00514777
-0.000114951
0.00515193
-0.000111486
0.00515614
-0.00010791
0.00516041
-0.00010427
0.00516472
-0.000100651
0.00516906
-9.71371e-05
0.0051734
-9.37924e-05
0.00517771
-9.06459e-05
0.00518197
-8.76968e-05
0.00518614
-8.49271e-05
0.00519021
-8.23118e-05
0.00519418
-7.98267e-05
0.00519803
-7.74512e-05
0.00520176
-7.51681e-05
0.00520538
-7.29638e-05
0.00520889
-7.08272e-05
0.00521228
-6.87494e-05
0.00521557
-6.67236e-05
0.00521876
-6.47442e-05
0.00522185
-6.28073e-05
0.00522485
-6.09098e-05
0.00522775
-5.90494e-05
0.00523058
-5.72244e-05
0.00523331
-5.5434e-05
0.00523597
-5.36773e-05
0.00523854
-5.1954e-05
0.00524104
-5.02638e-05
0.00524347
-4.86068e-05
0.00524581
-4.69827e-05
0.00524809
-4.53914e-05
0.0052503
-4.38329e-05
0.00525243
-4.2307e-05
0.00525449
-4.08137e-05
0.00525649
-3.93527e-05
0.00525842
-3.79239e-05
0.00526029
-3.65272e-05
0.00526209
-3.51624e-05
0.00526383
-3.38291e-05
0.0052655
-3.2527e-05
0.00526712
-3.12557e-05
-3.00151e-05
0.00514166
-0.000128665
-0.00513781
0.0051455
-0.000125418
0.00514935
-0.000122147
0.00515321
-0.000118812
0.0051571
-0.000115378
0.00516104
-0.000111844
0.00516502
-0.000108251
0.00516904
-0.000104671
0.00517308
-0.000101182
0.00517713
-9.78418e-05
0.00518116
-9.4676e-05
0.00518515
-9.16852e-05
0.00518908
-8.8854e-05
0.00519293
-8.61619e-05
0.00519669
-8.3589e-05
0.00520036
-8.11184e-05
0.00520392
-7.87364e-05
0.00520739
-7.64319e-05
0.00521076
-7.41957e-05
0.00521403
-7.20202e-05
0.00521721
-6.98991e-05
0.00522029
-6.78274e-05
0.00522328
-6.58011e-05
0.00522619
-6.3817e-05
0.00522902
-6.18727e-05
0.00523176
-5.99664e-05
0.00523442
-5.80968e-05
0.00523701
-5.62631e-05
0.00523952
-5.44646e-05
0.00524195
-5.27009e-05
0.00524432
-5.09717e-05
0.00524661
-4.92769e-05
0.00524884
-4.76161e-05
0.00525099
-4.59892e-05
0.00525308
-4.4396e-05
0.00525511
-4.28363e-05
0.00525706
-4.13101e-05
0.00525896
-3.98171e-05
0.00526079
-3.83572e-05
0.00526255
-3.693e-05
0.00526426
-3.55354e-05
0.00526591
-3.41729e-05
0.00526749
-3.28423e-05
-3.15433e-05
0.005148
-0.000132205
-0.00514446
0.00515155
-0.000128965
0.00515511
-0.000125708
0.0051587
-0.000122396
0.00516231
-0.000118996
0.00516597
-0.000115502
0.00516967
-0.000111951
0.00517341
-0.000108408
0.00517717
-0.000104944
0.00518094
-0.000101612
0.0051847
-9.84368e-05
0.00518843
-9.54177e-05
0.00519212
-9.25416e-05
0.00519575
-8.97905e-05
0.00519931
-8.71478e-05
0.00520279
-8.45997e-05
0.00520619
-8.21352e-05
0.0052095
-7.97454e-05
0.00521273
-7.7423e-05
0.00521587
-7.51614e-05
0.00521893
-7.29554e-05
0.0052219
-7.08004e-05
0.00522479
-6.86926e-05
0.0052276
-6.66291e-05
0.00523034
-6.46073e-05
0.005233
-6.26254e-05
0.00523558
-6.0682e-05
0.00523809
-5.87759e-05
0.00524054
-5.69066e-05
0.00524291
-5.50735e-05
0.00524521
-5.32761e-05
0.00524745
-5.15141e-05
0.00524962
-4.97872e-05
0.00525173
-4.8095e-05
0.00525377
-4.64376e-05
0.00525575
-4.48145e-05
0.00525766
-4.32257e-05
0.00525952
-4.1671e-05
0.00526131
-4.01502e-05
0.00526304
-3.8663e-05
0.00526472
-3.72092e-05
0.00526633
-3.57884e-05
0.00526789
-3.44003e-05
-3.30447e-05
0.00515441
-0.000135425
-0.00515119
0.00515765
-0.000132207
0.00516092
-0.000128976
0.00516422
-0.000125697
0.00516756
-0.000122334
0.00517094
-0.000118883
0.00517436
-0.000115374
0.00517782
-0.000111868
0.00518131
-0.000108432
0.00518481
-0.000105114
0.00518831
-0.000101938
0.0051918
-9.89022e-05
0.00519525
-9.5995e-05
0.00519866
-9.32004e-05
0.00520202
-9.05038e-05
0.00520531
-8.78939e-05
0.00520854
-8.53618e-05
0.00521169
-8.29007e-05
0.00521478
-8.05047e-05
0.00521778
-7.81686e-05
0.00522072
-7.58879e-05
0.00522357
-7.36588e-05
0.00522636
-7.14778e-05
0.00522907
-6.93421e-05
0.00523171
-6.72495e-05
0.00523429
-6.5198e-05
0.00523679
-6.31861e-05
0.00523923
-6.12129e-05
0.0052416
-5.92775e-05
0.0052439
-5.73792e-05
0.00524615
-5.55176e-05
0.00524832
-5.36922e-05
0.00525044
-5.19026e-05
0.00525249
-5.01486e-05
0.00525449
-4.843e-05
0.00525642
-4.67465e-05
0.00525829
-4.50979e-05
0.0052601
-4.34841e-05
0.00526186
-4.19049e-05
0.00526355
-4.036e-05
0.00526519
-3.88491e-05
0.00526678
-3.73721e-05
0.00526831
-3.59285e-05
-3.45182e-05
0.00516086
-0.000138323
-0.00515796
0.00516379
-0.000135142
0.00516677
-0.000131949
0.00516978
-0.00012871
0.00517284
-0.000125392
0.00517594
-0.000121987
0.00517909
-0.000118523
0.00518228
-0.000115058
0.0051855
-0.000111653
0.00518874
-0.000108356
0.00519199
-0.000105187
0.00519523
-0.000102145
0.00519846
-9.92194e-05
0.00520165
-9.63947e-05
0.00520481
-9.36584e-05
0.00520791
-9.10008e-05
0.00521097
-8.84149e-05
0.00521396
-8.58955e-05
0.0052169
-8.3438e-05
0.00521977
-8.10384e-05
0.00522257
-7.86932e-05
0.00522531
-7.6399e-05
0.00522799
-7.41531e-05
0.0052306
-7.19528e-05
0.00523314
-6.97961e-05
0.00523563
-6.76811e-05
0.00523805
-6.56065e-05
0.00524041
-6.35713e-05
0.0052427
-6.15746e-05
0.00524494
-5.96156e-05
0.00524712
-5.76939e-05
0.00524923
-5.5809e-05
0.00525129
-5.39605e-05
0.00525329
-5.2148e-05
0.00525523
-5.03715e-05
0.00525711
-4.86306e-05
0.00525894
-4.69251e-05
0.00526071
-4.52549e-05
0.00526243
-4.36198e-05
0.00526409
-4.20196e-05
0.00526569
-4.0454e-05
0.00526724
-3.89228e-05
0.00526874
-3.74258e-05
-3.59626e-05
0.00516733
-0.000140899
-0.00516475
0.00516995
-0.000137768
0.00517263
-0.000134625
0.00517536
-0.000131436
0.00517813
-0.00012817
0.00518096
-0.000124816
0.00518384
-0.000121402
0.00518677
-0.000117982
0.00518973
-0.000114615
0.00519272
-0.000111344
0.00519572
-0.00010819
0.00519873
-0.000105153
0.00520173
-0.000102219
0.00520471
-9.93769e-05
0.00520766
-9.66135e-05
0.00521059
-9.39211e-05
0.00521346
-9.1294e-05
0.0052163
-8.87283e-05
0.00521908
-8.62208e-05
0.00522181
-8.37684e-05
0.00522449
-8.13685e-05
0.0052271
-7.90183e-05
0.00522967
-7.67156e-05
0.00523217
-7.44582e-05
0.00523462
-7.22443e-05
0.00523701
-7.00722e-05
0.00523935
-6.79407e-05
0.00524162
-6.58487e-05
0.00524384