/*--------------------------------*- C++ -*----------------------------------*\
| =========                 |                                                 |
| \\      /  F ield         | OpenFOAM: The Open Source CFD Toolbox           |
|  \\    /   O peration     | Version:  2412                                  |
|   \\  /    A nd           | Website:  www.openfoam.com                      |
|    \\/     M anipulation  |                                                 |
\*---------------------------------------------------------------------------*/
FoamFile
{
    version     2.0;
    format      ascii;
    arch        "LSB;label=32;scalar=64";
    class       volVectorField;
    location    "2.5";
    object      vorticity;
}
// * * * * * * * * * * * * * * * * * * * * * * * * * * * * * * * * * * * * * //

dimensions      [0 0 -1 0 0 0 0];

internalField   nonuniform List<vector> 
5285
(
(5.41224e-22 6.40104e-21 -0.00013589)
(-6.3895e-22 1.2906e-24 -9.98481e-05)
(5.38598e-22 6.75708e-21 -7.17863e-05)
(-1.59958e-22 1.09436e-23 -4.93488e-05)
(-6.26999e-22 1.37131e-24 -3.12235e-05)
(3.144e-22 -1.09211e-23 -1.65442e-05)
(4.03204e-23 7.08546e-21 -4.59851e-06)
(-2.01149e-23 2.04155e-23 5.2744e-06)
(-3.09548e-23 -7.22873e-21 1.36646e-05)
(8.02927e-24 7.2795e-21 2.10223e-05)
(2.63027e-22 -7.41611e-21 2.76249e-05)
(-3.592e-22 6.67511e-20 3.36067e-05)
(3.32323e-23 -6.66935e-20 3.90244e-05)
(-2.06016e-22 -5.28156e-20 4.39122e-05)
(3.91866e-22 1.13126e-19 4.83104e-05)
(-2.00857e-22 -6.04291e-20 5.2269e-05)
(-1.70258e-22 -7.71694e-21 5.58423e-05)
(1.52568e-22 7.6654e-21 5.90816e-05)
(1.21736e-22 1.53116e-26 6.20313e-05)
(-1.51039e-22 7.80025e-21 6.47274e-05)
(-8.33517e-23 -3.90548e-20 6.71974e-05)
(1.33292e-22 3.90901e-20 6.94753e-05)
(-8.79096e-23 -7.85229e-21 7.16747e-05)
(2.33176e-23 2.37423e-20 7.42643e-05)
(-6.47378e-23 -7.88394e-21 7.8812e-05)
(-3.56886e-23 -1.59853e-20 8.94093e-05)
(3.34914e-23 7.99821e-21 0.00011421)
(1.23661e-23 -8.04304e-21 0.000164855)
(8.53692e-21 4.05565e-19 -0.000386294)
(-9.50838e-21 -4.38858e-19 -0.000274663)
(7.91444e-21 4.29971e-19 -0.000186224)
(-4.49658e-21 -2.1528e-19 -0.000115276)
(-6.82819e-21 -4.46205e-19 -5.77056e-05)
(2.72236e-21 2.23599e-19 -1.07905e-05)
(5.49287e-22 -6.76106e-21 2.76127e-05)
(-8.15334e-22 -1.43779e-20 5.95534e-05)
(6.98635e-22 7.24684e-21 8.68607e-05)
(-2.03764e-22 -2.21987e-20 0.000110899)
(2.4568e-21 2.29259e-19 0.00013248)
(-5.19026e-21 -4.81494e-19 0.000151986)
(2.49768e-21 2.30012e-19 0.000169587)
(1.94746e-22 -2.22264e-20 0.000185409)
(-3.86275e-22 7.52431e-21 0.000199609)
(6.58399e-23 1.65951e-22 0.000212372)
(-7.30566e-22 -1.30201e-19 0.000223888)
(6.36627e-22 1.14689e-19 0.000234329)
(7.569e-22 1.08548e-19 0.000243838)
(-9.83842e-22 -1.47056e-19 0.00025253)
(8.82382e-23 7.58026e-21 0.000260495)
(1.01101e-22 3.93108e-20 0.000267834)
(-1.75693e-22 -7.06403e-20 0.000274875)
(-2.89722e-22 -7.91692e-21 0.000282947)
(-7.23274e-23 -5.55601e-20 0.000296523)
(-1.00461e-22 -8.10997e-21 0.000327333)
(9.72596e-23 1.59112e-20 0.000398859)
(9.7592e-23 2.4093e-20 0.000544743)
(-1.63299e-20 -4.17797e-19 -0.000626099)
(1.75767e-20 4.43156e-19 -0.000430789)
(-2.05749e-22 1.44628e-20 -0.000272202)
(-1.38019e-22 -1.3907e-20 -0.000142559)
(-4.04691e-22 1.46915e-20 -3.57961e-05)
(-8.52676e-21 -4.42584e-19 5.25252e-05)
(1.00826e-20 4.56683e-19 0.000125934)
(-8.55071e-21 -4.35243e-19 0.000187914)
(9.21587e-21 4.64119e-19 0.000241522)
(2.10278e-22 1.47011e-20 0.000288953)
(6.13946e-21 4.75687e-19 0.000331462)
(-1.26257e-20 -9.37599e-19 0.000369657)
(7.4587e-21 4.91448e-19 0.000403883)
(1.5185e-21 2.57529e-19 0.000434484)
(-1.29989e-21 -2.26361e-19 0.000461865)
(-1.18009e-21 -2.82542e-22 0.000486456)
(6.93579e-22 -4.78405e-24 0.000508658)
(1.71429e-22 -2.86429e-22 0.000528811)
(1.50981e-21 2.47727e-19 0.000547188)
(-1.72351e-21 -2.31999e-19 0.000564006)
(-1.35986e-22 1.53064e-20 0.000579434)
(5.00022e-22 -1.17183e-22 0.000593655)
(5.60106e-22 1.25984e-19 0.000607172)
(-1.45479e-21 -2.3634e-19 0.000621972)
(8.16627e-22 1.26183e-19 0.000644782)
(-4.00507e-22 -6.34674e-20 0.000693442)
(2.665e-22 4.75937e-20 0.000803985)
(8.23484e-23 1.60004e-20 0.0010284)
(6.4332e-22 -2.47908e-23 -0.000977755)
(-1.43939e-21 1.38049e-20 -0.000687374)
(1.64253e-21 2.51693e-23 -0.000446422)
(2.19056e-22 1.54887e-20 -0.000243945)
(-3.12272e-20 -9.3099e-19 -7.38538e-05)
(3.20575e-20 9.14433e-19 6.96547e-05)
(-2.44075e-21 2.06347e-21 0.000191436)
(-9.67024e-21 -4.69671e-19 0.000296231)
(1.17474e-20 4.83249e-19 0.000388069)
(-7.8476e-22 6.95637e-22 0.000469702)
(-1.08624e-22 6.48954e-22 0.000542667)
(-7.48824e-21 -4.96911e-19 0.000607812)
(1.62739e-20 9.79615e-19 0.000665837)
(-1.58568e-20 -9.68669e-19 0.000717537)
(1.42048e-20 9.73182e-19 0.000763787)
(-1.29474e-20 -9.76825e-19 0.000805421)
(6.04691e-21 4.88371e-19 0.000843144)
(3.40013e-21 2.47564e-19 0.000877515)
(-2.87483e-21 -2.15618e-19 0.000908966)
(9.58803e-23 -1.54842e-20 0.000937841)
(-2.37229e-21 -2.49826e-19 0.000964417)
(5.03578e-21 5.30538e-19 0.000988973)
(-2.50387e-21 -2.49524e-19 0.00101214)
(1.47559e-22 -2.91683e-22 0.00103627)
(2.42303e-22 1.5742e-20 0.00106943)
(-1.63337e-22 3.9666e-23 0.00113332)
(-9.28714e-23 -1.5858e-20 0.00127239)
(2.29784e-22 3.17113e-20 0.00155161)
(-5.28247e-20 -9.22222e-19 -0.00122716)
(5.21058e-20 8.90384e-19 -0.000893998)
(-2.04184e-21 1.47353e-21 -0.000607383)
(2.99125e-21 5.30073e-24 -0.000361044)
(-2.25232e-21 -1.32051e-20 -0.000148613)
(-3.32176e-20 -9.46588e-19 3.56858e-05)
(3.55405e-20 9.28416e-19 0.000197265)
(-1.55884e-21 -1.2879e-20 0.00034049)
(-1.3911e-20 -4.6633e-19 0.000468171)
(1.20631e-20 4.94725e-19 0.000581916)
(3.27672e-21 6.65382e-22 0.000682921)
(-1.93236e-21 1.74837e-23 0.000772527)
(4.66066e-22 6.07391e-22 0.000852303)
(-1.07158e-20 -4.9081e-19 0.000923834)
(1.172e-20 5.0517e-19 0.000988496)
(-9.48217e-21 -4.77637e-19 0.00104736)
(7.59443e-21 4.92226e-19 0.00110122)
(3.48416e-22 -3.03595e-20 0.00115068)
(7.84764e-22 1.54609e-20 0.00119622)
(-5.7748e-22 3.41393e-23 0.00123825)
(-2.08037e-22 -1.55807e-20 0.00127715)
(1.32355e-22 1.5722e-20 0.00131365)
(-1.2128e-21 -1.40948e-19 0.00135018)
(2.35737e-21 2.50336e-19 0.00139511)
(-1.96017e-21 -1.87736e-19 0.00147149)
(5.76206e-22 6.25063e-20 0.00162747)
(2.93497e-23 4.93612e-23 0.00193492)
(6.62494e-20 9.34551e-19 -0.00214683)
(-6.97252e-20 -9.27912e-19 -0.001725)
(-5.38574e-20 -9.50318e-19 -0.00135325)
(5.44032e-20 9.28905e-19 -0.00102625)
(-2.14818e-21 1.50404e-21 -0.000738384)
(3.5357e-21 -1.42263e-21 -0.000483586)
(3.64784e-20 9.6789e-19 -0.000256713)
(-3.75735e-21 8.6416e-21 -5.3944e-05)
(-3.53856e-20 -9.9882e-19 0.000126999)
(-3.12735e-20 -9.97448e-19 0.00028763)
(5.93625e-20 1.94107e-18 0.000429652)
(-1.70892e-20 -4.9933e-19 0.00055534)
(-1.29865e-20 -5.0602e-19 0.000667286)
(-1.0648e-20 -5.26194e-19 0.000767926)
(2.07075e-20 9.72026e-19 0.000859214)
(-2.0888e-20 -1.00259e-18 0.000942563)
(5.68879e-22 -1.88064e-20 0.00101897)
(8.37529e-21 4.94031e-19 0.00108919)
(7.73288e-21 4.97889e-19 0.00115384)
(-1.20701e-20 -7.74839e-19 0.00121346)
(7.67787e-21 4.80321e-19 0.00126857)
(-3.51467e-21 -2.63296e-19 0.00131992)
(3.30984e-21 2.64182e-19 0.0013698)
(-3.686e-21 -2.63453e-19 0.00142602)
(4.99191e-22 1.53381e-20 0.00151061)
(-1.09866e-21 -7.77135e-20 0.00167094)
(3.85589e-22 3.09226e-20 0.00198023)
(-9.07919e-20 -9.60248e-19 -0.00287792)
(2.50716e-21 -1.80239e-21 -0.00247762)
(1.67657e-21 -2.9938e-23 -0.00210891)
(-1.29021e-21 1.67768e-20 -0.00177041)
(-5.41031e-20 -9.85177e-19 -0.00146108)
(5.49675e-20 9.78447e-19 -0.00117835)
(-2.03376e-21 1.5348e-21 -0.000919958)
(3.32181e-23 -2.1777e-23 -0.000684874)
(1.7243e-21 1.67901e-20 -0.000472931)
(-3.2502e-20 -9.80919e-19 -0.000283721)
(6.52534e-20 2.00014e-18 -0.000115687)
(-3.2288e-20 -9.88265e-19 3.38648e-05)
(1.43006e-21 1.41755e-20 0.000168065)
(1.19653e-21 1.49347e-20 0.000289728)
(1.05355e-20 4.98883e-19 0.000400957)
(-2.159e-20 -9.77873e-19 0.000503152)
(1.16088e-20 5.10594e-19 0.000597237)
(-1.02302e-20 -4.80761e-19 0.000683895)
(5.60502e-23 -1.90991e-21 0.000763721)
(1.70899e-21 1.36732e-20 0.000837275)
(8.40124e-21 5.09374e-19 0.000905096)
(4.35885e-21 2.63621e-19 0.000967888)
(-4.41135e-21 -2.61648e-19 0.00102756)
(5.10837e-22 1.50102e-20 0.0010907)
(1.69525e-21 1.2324e-19 0.00117652)
(-1.43917e-21 -1.07231e-19 0.00132781)
(1.61018e-22 1.52242e-20 0.00161485)
(0 -7.76654e-24 0.000255249)
(0 -0 0.000375603)
(0 -0 0.000513935)
(0 -0 0.000634021)
(0 -0 0.00069652)
(0 -0 0.000679682)
(0 -0 0.000590466)
(0 -0 0.000458681)
(0 -0 0.000320331)
(0 -0 0.000202376)
(0 -0 0.00011659)
(0 -0 6.20624e-05)
(0 -0 3.13786e-05)
(0 -0 1.60293e-05)
(0 -0 9.26181e-06)
(0 -0 6.73688e-06)
(0 -0 6.0677e-06)
(0 -0 6.1025e-06)
(0 -0 6.35079e-06)
(0 -0 6.63186e-06)
(0 -0 6.89228e-06)
(0 -0 7.12221e-06)
(0 -0 7.32229e-06)
(0 -0 7.49408e-06)
(0 -0 7.63992e-06)
(0 -0 7.76425e-06)
(0 -0 7.87281e-06)
(0 -0 7.96975e-06)
(0 -0 8.05543e-06)
(0 -0 8.12761e-06)
(0 -0 8.18516e-06)
(0 -0 8.22966e-06)
(0 -0 8.26435e-06)
(0 -0 8.29225e-06)
(0 -0 8.31554e-06)
(0 -0 8.33621e-06)
(0 -0 8.35442e-06)
(0 -0 8.36948e-06)
(0 -0 8.37837e-06)
(0 -0 8.37717e-06)
(0 -0 8.36779e-06)
(0 -0 8.3556e-06)
(0 -0 8.34525e-06)
(0 -0 8.34127e-06)
(0 2.33804e-23 0.000803849)
(0 -0 0.00114836)
(0 -0 0.00154306)
(0 -0 0.00188299)
(0 -0 0.00205464)
(0 -0 0.00199596)
(0 -0 0.00172824)
(0 -0 0.00133874)
(0 -0 0.000932208)
(0 -0 0.0005867)
(0 -0 0.000335955)
(0 -0 0.000176849)
(0 -0 8.74686e-05)
(0 -0 4.28522e-05)
(0 -0 2.32491e-05)
(0 -0 1.59944e-05)
(0 -0 1.41397e-05)
(0 -0 1.43412e-05)
(0 -0 1.51743e-05)
(0 -0 1.61062e-05)
(0 -0 1.69693e-05)
(0 -0 1.77277e-05)
(0 -0 1.8384e-05)
(0 -0 1.89494e-05)
(0 -0 1.94356e-05)
(0 -0 1.98556e-05)
(0 -0 2.0222e-05)
(0 -0 2.05434e-05)
(0 -0 2.08232e-05)
(0 -0 2.10623e-05)
(0 -0 2.12632e-05)
(0 -0 2.14307e-05)
(0 -0 2.15699e-05)
(0 -0 2.16854e-05)
(0 -0 2.17817e-05)
(0 -0 2.18621e-05)
(0 -0 2.19263e-05)
(0 -0 2.19737e-05)
(0 -0 2.20017e-05)
(0 -0 2.20071e-05)
(0 -0 2.1997e-05)
(0 -0 2.198e-05)
(0 -0 2.19597e-05)
(0 -0 2.19432e-05)
(0 1.56975e-23 0.00142287)
(0 -0 0.00194585)
(0 -0 0.00254146)
(0 -0 0.00304692)
(0 -0 0.0032876)
(0 -0 0.00316979)
(0 -0 0.00272948)
(0 -0 0.00210439)
(0 -0 0.00145814)
(0 -0 0.000911704)
(0 -0 0.000516446)
(0 -0 0.000266276)
(0 -0 0.000126084)
(0 -0 5.63266e-05)
(0 -0 2.58575e-05)
(0 -0 1.47522e-05)
(0 -0 1.20991e-05)
(0 -0 1.26551e-05)
(0 -0 1.41883e-05)
(0 -0 1.58625e-05)
(0 -0 1.7413e-05)
(0 -0 1.87815e-05)
(0 -0 1.99739e-05)
(0 -0 2.10099e-05)
(0 -0 2.19103e-05)
(0 -0 2.26959e-05)
(0 -0 2.3386e-05)
(0 -0 2.39942e-05)
(0 -0 2.45273e-05)
(0 -0 2.49902e-05)
(0 -0 2.53887e-05)
(0 -0 2.57302e-05)
(0 -0 2.6021e-05)
(0 -0 2.6267e-05)
(0 -0 2.64756e-05)
(0 -0 2.66516e-05)
(0 -0 2.6795e-05)
(0 -0 2.69053e-05)
(0 -0 2.69808e-05)
(0 -0 2.70208e-05)
(0 -0 2.70363e-05)
(0 -0 2.70384e-05)
(0 -0 2.70293e-05)
(0 -0 2.70169e-05)
(0 3.0555e-23 0.00203439)
(0 -0 0.00267152)
(0 -0 0.00339169)
(0 -0 0.00399173)
(0 -0 0.00425543)
(0 -0 0.00406923)
(0 -0 0.00348219)
(0 -0 0.00266985)
(0 -0 0.00183848)
(0 -0 0.00113931)
(0 -0 0.000635315)
(0 -0 0.000317175)
(0 -0 0.000139372)
(0 -0 5.12418e-05)
(0 -0 1.30457e-05)
(0 -0 -5.77747e-07)
(0 -0 -3.49858e-06)
(0 -0 -2.37434e-06)
(0 -0 -3.66764e-08)
(0 -0 2.45327e-06)
(0 -0 4.75946e-06)
(0 -0 6.80883e-06)
(0 -0 8.61012e-06)
(0 -0 1.01905e-05)
(0 -0 1.15786e-05)
(0 -0 1.28021e-05)
(0 -0 1.38862e-05)
(0 -0 1.48489e-05)
(0 -0 1.57015e-05)
(0 -0 1.64527e-05)
(0 -0 1.71116e-05)
(0 -0 1.76865e-05)
(0 -0 1.81844e-05)
(0 -0 1.8613e-05)
(0 -0 1.8982e-05)
(0 -0 1.92981e-05)
(0 -0 1.95622e-05)
(0 -0 1.97748e-05)
(0 -0 1.99357e-05)
(0 -0 2.00477e-05)
(0 -0 2.01244e-05)
(0 -0 2.01775e-05)
(0 -0 2.02084e-05)
(0 -0 2.02232e-05)
(0 8.29842e-27 0.0024548)
(0 -0 0.00313717)
(0 -0 0.00390357)
(0 -0 0.0045324)
(0 -0 0.0047887)
(0 -0 0.0045507)
(0 -0 0.0038751)
(0 -0 0.00295684)
(0 -0 0.00202363)
(0 -0 0.00124156)
(0 -0 0.000679031)
(0 -0 0.000324531)
(0 -0 0.000126797)
(0 -0 2.9132e-05)
(0 -0 -1.28424e-05)
(0 -0 -2.74304e-05)
(0 -0 -3.01078e-05)
(0 -0 -2.83036e-05)
(0 -0 -2.51783e-05)
(0 -0 -2.19162e-05)
(0 -0 -1.88922e-05)
(0 -0 -1.61869e-05)
(0 -0 -1.37893e-05)
(0 -0 -1.16669e-05)
(0 -0 -9.78567e-06)
(0 -0 -8.11275e-06)
(0 -0 -6.619e-06)
(0 -0 -5.28257e-06)
(0 -0 -4.08806e-06)
(0 -0 -3.02311e-06)
(0 -0 -2.07708e-06)
(0 -0 -1.2415e-06)
(0 -0 -5.09372e-07)
(0 -0 1.28364e-07)
(0 -0 6.83588e-07)
(0 -0 1.16462e-06)
(0 -0 1.57432e-06)
(0 -0 1.91419e-06)
(0 -0 2.18658e-06)
(0 -0 2.3977e-06)
(0 -0 2.5619e-06)
(0 -0 2.68982e-06)
(0 -0 2.78242e-06)
(0 -0 2.84273e-06)
(0 3.04414e-23 0.00248938)
(0 -0 0.00315552)
(0 -0 0.00390362)
(0 -0 0.00451637)
(0 -0 0.00476195)
(0 -0 0.00451922)
(0 -0 0.00384317)
(0 -0 0.00292625)
(0 -0 0.00199429)
(0 -0 0.0012127)
(0 -0 0.000650033)
(0 -0 0.000295218)
(0 -0 9.73235e-05)
(0 -0 -2.28635e-07)
(0 -0 -4.1852e-05)
(0 -0 -5.59391e-05)
(0 -0 -5.80479e-05)
(0 -0 -5.5662e-05)
(0 -0 -5.19715e-05)
(0 -0 -4.81741e-05)
(0 -0 -4.46493e-05)
(0 -0 -4.14787e-05)
(0 -0 -3.86502e-05)
(0 -0 -3.61295e-05)
(0 -0 -3.38798e-05)
(0 -0 -3.18664e-05)
(0 -0 -3.00585e-05)
(0 -0 -2.8432e-05)
(0 -0 -2.69683e-05)
(0 -0 -2.5653e-05)
(0 -0 -2.44753e-05)
(0 -0 -2.34278e-05)
(0 -0 -2.2504e-05)
(0 -0 -2.1694e-05)
(0 -0 -2.09845e-05)
(0 -0 -2.03657e-05)
(0 -0 -1.9833e-05)
(0 -0 -1.93836e-05)
(0 -0 -1.90128e-05)
(0 -0 -1.87114e-05)
(0 -0 -1.84664e-05)
(0 -0 -1.82695e-05)
(0 -0 -1.81196e-05)
(0 -0 -1.80172e-05)
(0 1.4701e-23 0.00207109)
(0 -0 0.00267305)
(0 -0 0.00335831)
(0 -0 0.00393221)
(0 -0 0.00418339)
(0 -0 0.00399671)
(0 -0 0.00341502)
(0 -0 0.00260753)
(0 -0 0.00177731)
(0 -0 0.00107578)
(0 -0 0.000567888)
(0 -0 0.000246227)
(0 -0 6.6282e-05)
(0 -0 -2.25026e-05)
(0 -0 -6.02291e-05)
(0 -0 -7.27169e-05)
(0 -0 -7.41941e-05)
(0 -0 -7.15388e-05)
(0 -0 -6.76961e-05)
(0 -0 -6.37772e-05)
(0 -0 -6.01363e-05)
(0 -0 -5.68502e-05)
(0 -0 -5.39075e-05)
(0 -0 -5.12747e-05)
(0 -0 -4.89164e-05)
(0 -0 -4.67989e-05)
(0 -0 -4.48924e-05)
(0 -0 -4.31723e-05)
(0 -0 -4.16192e-05)
(0 -0 -4.02179e-05)
(0 -0 -3.89591e-05)
(0 -0 -3.78373e-05)
(0 -0 -3.6847e-05)
(0 -0 -3.59777e-05)
(0 -0 -3.52156e-05)
(0 -0 -3.45504e-05)
(0 -0 -3.39767e-05)
(0 -0 -3.34906e-05)
(0 -0 -3.30853e-05)
(0 -0 -3.27505e-05)
(0 -0 -3.24757e-05)
(0 -0 -3.22556e-05)
(0 -0 -3.20888e-05)
(0 -0 -3.19784e-05)
(0 -0 0.00130374)
(0 -0 0.00181314)
(0 -0 0.00240746)
(0 -0 0.00292973)
(0 -0 0.00320184)
(0 -0 0.00311847)
(0 -0 0.00270274)
(0 -0 0.00208561)
(0 -0 0.00143218)
(0 -0 0.000870141)
(0 -0 0.000458148)
(0 -0 0.000194772)
(0 -0 4.64099e-05)
(0 -0 -2.70911e-05)
(0 -0 -5.82808e-05)
(0 -0 -6.84062e-05)
(0 -0 -6.92969e-05)
(0 -0 -6.67189e-05)
(0 -0 -6.31587e-05)
(0 -0 -5.95602e-05)
(0 -0 -5.62255e-05)
(0 -0 -5.32196e-05)
(0 -0 -5.05307e-05)
(0 -0 -4.81277e-05)
(0 -0 -4.5978e-05)
(0 -0 -4.40509e-05)
(0 -0 -4.2319e-05)
(0 -0 -4.0759e-05)
(0 -0 -3.93518e-05)
(0 -0 -3.80838e-05)
(0 -0 -3.69475e-05)
(0 -0 -3.59396e-05)
(0 -0 -3.50553e-05)
(0 -0 -3.42838e-05)
(0 -0 -3.36118e-05)
(0 -0 -3.30298e-05)
(0 -0 -3.25331e-05)
(0 -0 -3.2117e-05)
(0 -0 -3.17736e-05)
(0 -0 -3.1493e-05)
(0 -0 -3.1268e-05)
(0 -0 -3.1096e-05)
(0 -0 -3.09757e-05)
(0 -0 -3.09115e-05)
(0 -0 0.000478893)
(0 -0 0.000874922)
(0 -0 0.00135814)
(0 -0 0.00181285)
(0 -0 0.00209987)
(0 -0 0.00212719)
(0 -0 0.00189707)
(0 -0 0.00149697)
(0 -0 0.00104765)
(0 -0 0.000648186)
(0 -0 0.000348762)
(0 -0 0.000154143)
(0 -0 4.30904e-05)
(0 -0 -1.24594e-05)
(0 -0 -3.61544e-05)
(0 -0 -4.37941e-05)
(0 -0 -4.43259e-05)
(0 -0 -4.21713e-05)
(0 -0 -3.92606e-05)
(0 -0 -3.63355e-05)
(0 -0 -3.36366e-05)
(0 -0 -3.12159e-05)
(0 -0 -2.9063e-05)
(0 -0 -2.71516e-05)
(0 -0 -2.54536e-05)
(0 -0 -2.39426e-05)
(0 -0 -2.25951e-05)
(0 -0 -2.13905e-05)
(0 -0 -2.03122e-05)
(0 -0 -1.93486e-05)
(0 -0 -1.84946e-05)
(0 -0 -1.77483e-05)
(0 -0 -1.71048e-05)
(0 -0 -1.65534e-05)
(0 -0 -1.60823e-05)
(0 -0 -1.56844e-05)
(0 -0 -1.53563e-05)
(0 -0 -1.50933e-05)
(0 -0 -1.4887e-05)
(0 -0 -1.4729e-05)
(0 -0 -1.46158e-05)
(0 -0 -1.45468e-05)
(0 -0 -1.45204e-05)
(0 -0 -1.45416e-05)
(0 -0 -0.000127523)
(0 -0 0.000159795)
(0 -0 0.000527505)
(0 -0 0.000899404)
(0 -0 0.00117491)
(0 -0 0.00127841)
(0 -0 0.00119698)
(0 -0 0.000980561)
(0 -0 0.000709296)
(0 -0 0.000454619)
(0 -0 0.000257029)
(0 -0 0.000125412)
(0 -0 4.89221e-05)
(0 -0 1.01556e-05)
(0 -0 -6.48524e-06)
(0 -0 -1.17878e-05)
(0 -0 -1.20099e-05)
(0 -0 -1.0303e-05)
(0 -0 -8.06541e-06)
(0 -0 -5.84228e-06)
(0 -0 -3.81237e-06)
(0 -0 -2.01339e-06)
(0 -0 -4.3534e-07)
(0 -0 9.44679e-07)
(0 -0 2.1512e-06)
(0 -0 3.20723e-06)
(0 -0 4.13308e-06)
(0 -0 4.94605e-06)
(0 -0 5.66024e-06)
(0 -0 6.28482e-06)
(0 -0 6.82345e-06)
(0 -0 7.27824e-06)
(0 -0 7.6554e-06)
(0 -0 7.96546e-06)
(0 -0 8.21761e-06)
(0 -0 8.41578e-06)
(0 -0 8.56192e-06)
(0 -0 8.66116e-06)
(0 -0 8.72163e-06)
(0 -0 8.74954e-06)
(0 -0 8.74538e-06)
(0 -0 8.70863e-06)
(0 -0 8.64151e-06)
(0 -0 8.53929e-06)
(0 -0 -0.000414483)
(0 -0 -0.000222139)
(0 -0 3.73808e-05)
(0 -0 0.000318766)
(0 -0 0.000554327)
(0 -0 0.000685866)
(0 -0 0.000693267)
(0 -0 0.000599979)
(0 -0 0.000454872)
(0 -0 0.000306381)
(0 -0 0.000185374)
(0 -0 0.000102109)
(0 -0 5.26341e-05)
(0 -0 2.72358e-05)
(0 -0 1.63556e-05)
(0 -0 1.30617e-05)
(0 -0 1.32055e-05)
(0 -0 1.46484e-05)
(0 -0 1.64233e-05)
(0 -0 1.81479e-05)
(0 -0 1.96964e-05)
(0 -0 2.10446e-05)
(0 -0 2.22032e-05)
(0 -0 2.31938e-05)
(0 -0 2.40395e-05)
(0 -0 2.47617e-05)
(0 -0 2.53781e-05)
(0 -0 2.59035e-05)
(0 -0 2.63495e-05)
(0 -0 2.67233e-05)
(0 -0 2.70287e-05)
(0 -0 2.72697e-05)
(0 -0 2.74545e-05)
(0 -0 2.7593e-05)
(0 -0 2.76913e-05)
(0 -0 2.77507e-05)
(0 -0 2.77727e-05)
(0 -0 2.7763e-05)
(0 -0 2.77289e-05)
(0 -0 2.76742e-05)
(0 -0 2.75976e-05)
(0 -0 2.74984e-05)
(0 -0 2.73797e-05)
(0 -0 2.72372e-05)
(0 -0 -0.000447221)
(0 -0 -0.000329236)
(0 -0 -0.000159713)
(0 -0 3.70606e-05)
(0 -0 0.000218022)
(0 -0 0.000340728)
(0 -0 0.000384143)
(0 -0 0.000356231)
(0 -0 0.000285058)
(0 -0 0.000202288)
(0 -0 0.000130467)
(0 -0 7.91665e-05)
(0 -0 4.8017e-05)
(0 -0 3.19421e-05)
(0 -0 2.52405e-05)
(0 -0 2.35314e-05)
(0 -0 2.40976e-05)
(0 -0 2.55022e-05)
(0 -0 2.70833e-05)
(0 -0 2.85765e-05)
(0 -0 2.98956e-05)
(0 -0 3.10268e-05)
(0 -0 3.19827e-05)
(0 -0 3.27851e-05)
(0 -0 3.34576e-05)
(0 -0 3.4021e-05)
(0 -0 3.44916e-05)
(0 -0 3.48819e-05)
(0 -0 3.52013e-05)
(0 -0 3.54562e-05)
(0 -0 3.56515e-05)
(0 -0 3.57943e-05)
(0 -0 3.58945e-05)
(0 -0 3.59611e-05)
(0 -0 3.59975e-05)
(0 -0 3.60034e-05)
(0 -0 3.59811e-05)
(0 -0 3.59372e-05)
(0 -0 3.58772e-05)
(0 -0 3.58026e-05)
(0 -0 3.57117e-05)
(0 -0 3.56047e-05)
(0 -0 3.54856e-05)
(0 -0 3.53498e-05)
(0 -0 -0.000352835)
(0 -0 -0.000286742)
(0 -0 -0.000183293)
(0 -0 -5.40848e-05)
(0 -0 7.42276e-05)
(0 -0 0.000171443)
(0 -0 0.000218818)
(0 -0 0.000216834)
(0 -0 0.000181415)
(0 -0 0.000133361)
(0 -0 8.89507e-05)
(0 -0 5.61744e-05)
(0 -0 3.60062e-05)
(0 -0 2.57164e-05)
(0 -0 2.17354e-05)
(0 -0 2.11603e-05)
(0 -0 2.21308e-05)
(0 -0 2.3641e-05)
(0 -0 2.52207e-05)
(0 -0 2.66808e-05)
(0 -0 2.79608e-05)
(0 -0 2.90536e-05)
(0 -0 2.9974e-05)
(0 -0 3.07452e-05)
(0 -0 3.13918e-05)
(0 -0 3.19344e-05)
(0 -0 3.23882e-05)
(0 -0 3.27638e-05)
(0 -0 3.30687e-05)
(0 -0 3.33092e-05)
(0 -0 3.3492e-05)
(0 -0 3.36273e-05)
(0 -0 3.37265e-05)
(0 -0 3.37971e-05)
(0 -0 3.38407e-05)
(0 -0 3.38574e-05)
(0 -0 3.38507e-05)
(0 -0 3.38271e-05)
(0 -0 3.37899e-05)
(0 -0 3.37393e-05)
(0 -0 3.36742e-05)
(0 -0 3.35966e-05)
(0 -0 3.35107e-05)
(0 -0 3.34112e-05)
(0 -0 -0.000233409)
(0 -0 -0.000199678)
(0 -0 -0.000139244)
(0 -0 -5.68263e-05)
(0 -0 3.07688e-05)
(0 -0 0.000101663)
(0 -0 0.000140122)
(0 -0 0.000143736)
(0 -0 0.00012213)
(0 -0 8.97706e-05)
(0 -0 5.87726e-05)
(0 -0 3.55404e-05)
(0 -0 2.12645e-05)
(0 -0 1.42025e-05)
(0 -0 1.18164e-05)
(0 -0 1.19661e-05)
(0 -0 1.32513e-05)
(0 -0 1.49045e-05)
(0 -0 1.65637e-05)
(0 -0 1.80821e-05)
(0 -0 1.94135e-05)
(0 -0 2.05548e-05)
(0 -0 2.15223e-05)
(0 -0 2.23409e-05)
(0 -0 2.30358e-05)
(0 -0 2.36273e-05)
(0 -0 2.41292e-05)
(0 -0 2.45503e-05)
(0 -0 2.48969e-05)
(0 -0 2.51752e-05)
(0 -0 2.53943e-05)
(0 -0 2.55669e-05)
(0 -0 2.57048e-05)
(0 -0 2.58144e-05)
(0 -0 2.58968e-05)
(0 -0 2.59533e-05)
(0 -0 2.59883e-05)
(0 -0 2.6007e-05)
(0 -0 2.60109e-05)
(0 -0 2.59997e-05)
(0 -0 2.59746e-05)
(0 -0 2.59388e-05)
(0 -0 2.58962e-05)
(0 -0 2.58402e-05)
(0 -0 -0.000138708)
(0 -0 -0.000123152)
(0 -0 -8.78273e-05)
(0 -0 -3.40566e-05)
(0 -0 2.67545e-05)
(0 -0 7.77868e-05)
(0 -0 0.000105775)
(0 -0 0.00010753)
(0 -0 8.97144e-05)
(0 -0 6.34136e-05)
(0 -0 3.82602e-05)
(0 -0 1.94726e-05)
(0 -0 8.06803e-06)
(0 -0 2.63886e-06)
(0 -0 1.09268e-06)
(0 -0 1.64834e-06)
(0 -0 3.13266e-06)
(0 -0 4.89887e-06)
(0 -0 6.6397e-06)
(0 -0 8.22952e-06)
(0 -0 9.62842e-06)
(0 -0 1.08354e-05)
(0 -0 1.18681e-05)
(0 -0 1.27521e-05)
(0 -0 1.35126e-05)
(0 -0 1.41689e-05)
(0 -0 1.47333e-05)
(0 -0 1.5213e-05)
(0 -0 1.56131e-05)
(0 -0 1.59406e-05)
(0 -0 1.62066e-05)
(0 -0 1.64254e-05)
(0 -0 1.66087e-05)
(0 -0 1.67622e-05)
(0 -0 1.68874e-05)
(0 -0 1.69865e-05)
(0 -0 1.70641e-05)
(0 -0 1.71234e-05)
(0 -0 1.71648e-05)
(0 -0 1.71894e-05)
(0 -0 1.72006e-05)
(0 -0 1.72024e-05)
(0 -0 1.71975e-05)
(0 -0 1.71783e-05)
(0 -0 -7.89775e-05)
(0 -0 -7.27225e-05)
(0 -0 -5.07472e-05)
(0 -0 -1.28196e-05)
(0 -0 3.24235e-05)
(0 -0 7.09852e-05)
(0 -0 9.12392e-05)
(0 -0 8.99519e-05)
(0 -0 7.2478e-05)
(0 -0 4.82054e-05)
(0 -0 2.54038e-05)
(0 -0 8.54746e-06)
(0 -0 -1.55767e-06)
(0 -0 -6.2314e-06)
(0 -0 -7.38459e-06)
(0 -0 -6.63652e-06)
(0 -0 -5.05346e-06)
(0 -0 -3.22475e-06)
(0 -0 -1.43243e-06)
(0 -0 2.06707e-07)
(0 -0 1.65526e-06)
(0 -0 2.91324e-06)
(0 -0 3.99885e-06)
(0 -0 4.93738e-06)
(0 -0 5.75299e-06)
(0 -0 6.46368e-06)
(0 -0 7.08024e-06)
(0 -0 7.6084e-06)
(0 -0 8.05275e-06)
(0 -0 8.42127e-06)
(0 -0 8.72685e-06)
(0 -0 8.98441e-06)
(0 -0 9.20536e-06)
(0 -0 9.3948e-06)
(0 -0 9.55465e-06)
(0 -0 9.68763e-06)
(0 -0 9.79712e-06)
(0 -0 9.88523e-06)
(0 -0 9.95273e-06)
(0 -0 1.00027e-05)
(0 -0 1.00405e-05)
(0 -0 1.00697e-05)
(0 -0 1.00917e-05)
(0 -0 1.0098e-05)
(0 -0 -4.66827e-05)
(0 -0 -4.48391e-05)
(0 -0 -2.94795e-05)
(0 -0 3.13626e-07)
(0 -0 3.72823e-05)
(0 -0 6.8933e-05)
(0 -0 8.46017e-05)
(0 -0 8.116e-05)
(0 -0 6.33766e-05)
(0 -0 3.97954e-05)
(0 -0 1.79703e-05)
(0 -0 1.95959e-06)
(0 -0 -7.57139e-06)
(0 -0 -1.19194e-05)
(0 -0 -1.29142e-05)
(0 -0 -1.20976e-05)
(0 -0 -1.04842e-05)
(0 -0 -8.63627e-06)
(0 -0 -6.8251e-06)
(0 -0 -5.16414e-06)
(0 -0 -3.68981e-06)
(0 -0 -2.40168e-06)
(0 -0 -1.28186e-06)
(0 -0 -3.06311e-07)
(0 -0 5.47409e-07)
(0 -0 1.29572e-06)
(0 -0 1.94805e-06)
(0 -0 2.50926e-06)
(0 -0 2.98403e-06)
(0 -0 3.38153e-06)
(0 -0 3.71597e-06)
(0 -0 4.0024e-06)
(0 -0 4.25132e-06)
(0 -0 4.46716e-06)
(0 -0 4.6518e-06)
(0 -0 4.8077e-06)
(0 -0 4.9373e-06)
(0 -0 5.04247e-06)
(0 -0 5.12552e-06)
(0 -0 5.19152e-06)
(0 -0 5.24664e-06)
(0 -0 5.29372e-06)
(0 -0 5.33269e-06)
(0 -0 5.35497e-06)
(0 -0 -3.11137e-05)
(0 -0 -3.12696e-05)
(0 -0 -1.90898e-05)
(0 -0 6.65642e-06)
(0 -0 3.94239e-05)
(0 -0 6.75316e-05)
(0 -0 8.0853e-05)
(0 -0 7.63336e-05)
(0 -0 5.84355e-05)
(0 -0 3.52508e-05)
(0 -0 1.39508e-05)
(0 -0 -1.62458e-06)
(0 -0 -1.08784e-05)
(0 -0 -1.50876e-05)
(0 -0 -1.60322e-05)
(0 -0 -1.52091e-05)
(0 -0 -1.36041e-05)
(0 -0 -1.17656e-05)
(0 -0 -9.95957e-06)
(0 -0 -8.29782e-06)
(0 -0 -6.81613e-06)
(0 -0 -5.51418e-06)
(0 -0 -4.37527e-06)
(0 -0 -3.37736e-06)
(0 -0 -2.50005e-06)
(0 -0 -1.72844e-06)
(0 -0 -1.05412e-06)
(0 -0 -4.72551e-07)
(0 -0 2.15656e-08)
(0 -0 4.38714e-07)
(0 -0 7.94108e-07)
(0 -0 1.10233e-06)
(0 -0 1.37238e-06)
(0 -0 1.6074e-06)
(0 -0 1.80877e-06)
(0 -0 1.97883e-06)
(0 -0 2.1199e-06)
(0 -0 2.23453e-06)
(0 -0 2.32669e-06)
(0 -0 2.40274e-06)
(0 -0 2.46875e-06)
(0 -0 2.52668e-06)
(0 -0 2.57572e-06)
(0 -0 2.60735e-06)
(0 -0 -2.42029e-05)
(0 -0 -2.52781e-05)
(0 -0 -1.46889e-05)
(0 -0 8.96166e-06)
(0 -0 3.95478e-05)
(0 -0 6.58725e-05)
(0 -0 7.81187e-05)
(0 -0 7.32519e-05)
(0 -0 5.55244e-05)
(0 -0 3.2744e-05)
(0 -0 1.18555e-05)
(0 -0 -3.41744e-06)
(0 -0 -1.24999e-05)
(0 -0 -1.664e-05)
(0 -0 -1.75767e-05)
(0 -0 -1.67734e-05)
(0 -0 -1.51959e-05)
(0 -0 -1.33832e-05)
(0 -0 -1.15971e-05)
(0 -0 -9.94772e-06)
(0 -0 -8.47032e-06)
(0 -0 -7.16518e-06)
(0 -0 -6.01739e-06)
(0 -0 -5.00728e-06)
(0 -0 -4.1165e-06)
(0 -0 -3.33151e-06)
(0 -0 -2.64457e-06)
(0 -0 -2.05109e-06)
(0 -0 -1.54473e-06)
(0 -0 -1.11357e-06)
(0 -0 -7.41679e-07)
(0 -0 -4.15623e-07)
(0 -0 -1.28729e-07)
(0 -0 1.20377e-07)
(0 -0 3.32775e-07)
(0 -0 5.11506e-07)
(0 -0 6.59599e-07)
(0 -0 7.80352e-07)
(0 -0 8.78722e-07)
(0 -0 9.61542e-07)
(0 -0 1.03438e-06)
(0 -0 1.09867e-06)
(0 -0 1.15349e-06)
(0 -0 1.19035e-06)
(0 -0 -2.12513e-05)
(0 -0 -2.28009e-05)
(0 -0 -1.31259e-05)
(0 -0 9.28338e-06)
(0 -0 3.85987e-05)
(0 -0 6.39615e-05)
(0 -0 7.57556e-05)
(0 -0 7.09296e-05)
(0 -0 5.35589e-05)
(0 -0 3.12345e-05)
(0 -0 1.07427e-05)
(0 -0 -4.26186e-06)
(0 -0 -1.32029e-05)
(0 -0 -1.72938e-05)
(0 -0 -1.82347e-05)
(0 -0 -1.746e-05)
(0 -0 -1.59183e-05)
(0 -0 -1.41398e-05)
(0 -0 -1.2382e-05)
(0 -0 -1.07528e-05)
(0 -0 -9.28677e-06)
(0 -0 -7.98526e-06)
(0 -0 -6.83538e-06)
(0 -0 -5.81979e-06)
(0 -0 -4.92206e-06)
(0 -0 -4.12992e-06)
(0 -0 -3.43619e-06)
(0 -0 -2.836e-06)
(0 -0 -2.3216e-06)
(0 -0 -1.87943e-06)
(0 -0 -1.49333e-06)
(0 -0 -1.1519e-06)
(0 -0 -8.51473e-07)
(0 -0 -5.92156e-07)
(0 -0 -3.7226e-07)
(0 -0 -1.87272e-07)
(0 -0 -3.33595e-08)
(0 -0 9.28455e-08)
(0 -0 1.96471e-07)
(0 -0 2.84406e-07)
(0 -0 3.61756e-07)
(0 -0 4.29805e-07)
(0 -0 4.87868e-07)
(0 -0 5.27354e-07)
(0 -0 -1.99351e-05)
(0 -0 -2.17873e-05)
(0 -0 -1.27561e-05)
(0 -0 8.76201e-06)
(0 -0 3.71872e-05)
(0 -0 6.19383e-05)
(0 -0 7.35514e-05)
(0 -0 6.89413e-05)
(0 -0 5.20175e-05)
(0 -0 3.01822e-05)
(0 -0 1.00915e-05)
(0 -0 -4.64915e-06)
(0 -0 -1.34528e-05)
(0 -0 -1.74962e-05)
(0 -0 -1.8442e-05)
(0 -0 -1.76975e-05)
(0 -0 -1.61947e-05)
(0 -0 -1.44546e-05)
(0 -0 -1.27296e-05)
(0 -0 -1.11251e-05)
(0 -0 -9.67517e-06)
(0 -0 -8.38201e-06)
(0 -0 -7.23473e-06)
(0 -0 -6.21809e-06)
(0 -0 -5.31749e-06)
(0 -0 -4.52201e-06)
(0 -0 -3.82515e-06)
(0 -0 -3.22153e-06)
(0 -0 -2.7015e-06)
(0 -0 -2.24989e-06)
(0 -0 -1.85112e-06)
(0 -0 -1.49678e-06)
(0 -0 -1.18611e-06)
(0 -0 -9.19559e-07)
(0 -0 -6.93776e-07)
(0 -0 -5.02764e-07)
(0 -0 -3.42629e-07)
(0 -0 -2.10661e-07)
(0 -0 -1.01899e-07)
(0 -0 -9.45662e-09)
(0 -0 7.13984e-08)
(0 -0 1.41884e-07)
(0 -0 2.01656e-07)
(0 -0 2.4207e-07)
(0 -0 -1.92385e-05)
(0 -0 -2.13285e-05)
(0 -0 -1.28355e-05)
(0 -0 7.93034e-06)
(0 -0 3.56173e-05)
(0 -0 5.98955e-05)
(0 -0 7.14343e-05)
(0 -0 6.71073e-05)
(0 -0 5.06646e-05)
(0 -0 2.93315e-05)
(0 -0 9.64534e-06)
(0 -0 -4.83e-06)
(0 -0 -1.3494e-05)
(0 -0 -1.74871e-05)
(0 -0 -1.84355e-05)
(0 -0 -1.77204e-05)
(0 -0 -1.62572e-05)
(0 -0 -1.45571e-05)
(0 -0 -1.28674e-05)
(0 -0 -1.12905e-05)
(0 -0 -9.85988e-06)
(0 -0 -8.57844e-06)
(0 -0 -7.43696e-06)
(0 -0 -6.42215e-06)
(0 -0 -5.52123e-06)
(0 -0 -4.72486e-06)
(0 -0 -4.02731e-06)
(0 -0 -3.42229e-06)
(0 -0 -2.89794e-06)
(0 -0 -2.43788e-06)
(0 -0 -2.02825e-06)
(0 -0 -1.66407e-06)
(0 -0 -1.34646e-06)
(0 -0 -1.07466e-06)
(0 -0 -8.4318e-07)
(0 -0 -6.45485e-07)
(0 -0 -4.78558e-07)
(0 -0 -3.40473e-07)
(0 -0 -2.26239e-07)
(0 -0 -1.2908e-07)
(0 -0 -4.48209e-08)
(0 -0 2.75241e-08)
(0 -0 8.80221e-08)
(0 -0 1.28407e-07)
(0 -0 -1.87605e-05)
(0 -0 -2.10616e-05)
(0 -0 -1.30634e-05)
(0 -0 7.00661e-06)
(0 -0 3.40154e-05)
(0 -0 5.78733e-05)
(0 -0 6.93752e-05)
(0 -0 6.53528e-05)
(0 -0 4.93999e-05)
(0 -0 2.85711e-05)
(0 -0 9.28951e-06)
(0 -0 -4.91979e-06)
(0 -0 -1.34423e-05)
(0 -0 -1.73825e-05)
(0 -0 -1.83317e-05)
(0 -0 -1.76448e-05)
(0 -0 -1.62208e-05)
(0 -0 -1.45611e-05)
(0 -0 -1.29075e-05)
(0 -0 -1.13598e-05)
(0 -0 -9.9504e-06)
(0 -0 -8.68273e-06)
(0 -0 -7.54906e-06)
(0 -0 -6.53791e-06)
(0 -0 -5.63835e-06)
(0 -0 -4.84279e-06)
(0 -0 -4.14614e-06)
(0 -0 -3.54079e-06)
(0 -0 -3.01272e-06)
(0 -0 -2.54528e-06)
(0 -0 -2.12732e-06)
(0 -0 -1.75678e-06)
(0 -0 -1.43497e-06)
(0 -0 -1.15885e-06)
(0 -0 -9.21303e-07)
(0 -0 -7.16534e-07)
(0 -0 -5.42787e-07)
(0 -0 -3.98358e-07)
(0 -0 -2.77981e-07)
(0 -0 -1.75426e-07)
(0 -0 -8.75014e-08)
(0 -0 -1.35956e-08)
(0 -0 4.70563e-08)
(0 -0 8.71854e-08)
(0 -0 -1.83555e-05)
(0 -0 -2.08541e-05)
(0 -0 -1.33299e-05)
(0 -0 6.06961e-06)
(0 -0 3.24248e-05)
(0 -0 5.58818e-05)
(0 -0 6.73582e-05)
(0 -0 6.36446e-05)
(0 -0 4.81814e-05)
(0 -0 2.78547e-05)
(0 -0 8.97595e-06)
(0 -0 -4.96815e-06)
(0 -0 -1.3349e-05)
(0 -0 -1.72359e-05)
(0 -0 -1.81851e-05)
(0 -0 -1.75256e-05)
(0 -0 -1.61398e-05)
(0 -0 -1.45199e-05)
(0 -0 -1.29021e-05)
(0 -0 -1.13836e-05)
(0 -0 -9.99582e-06)
(0 -0 -8.74277e-06)
(0 -0 -7.61802e-06)
(0 -0 -6.61166e-06)
(0 -0 -5.71462e-06)
(0 -0 -4.92105e-06)
(0 -0 -4.22612e-06)
(0 -0 -3.62069e-06)
(0 -0 -3.08925e-06)
(0 -0 -2.61604e-06)
(0 -0 -2.1928e-06)
(0 -0 -1.81903e-06)
(0 -0 -1.49472e-06)
(0 -0 -1.21446e-06)
(0 -0 -9.70742e-07)
(0 -0 -7.5932e-07)
(0 -0 -5.79243e-07)
(0 -0 -4.28307e-07)
(0 -0 -3.01115e-07)
(0 -0 -1.92641e-07)
(0 -0 -1.00984e-07)
(0 -0 -2.57784e-08)
(0 -0 3.49224e-08)
(0 -0 7.51915e-08)
(0 -0 -1.79727e-05)
(0 -0 -2.06598e-05)
(0 -0 -1.35975e-05)
(0 -0 5.14413e-06)
(0 -0 3.08562e-05)
(0 -0 5.39184e-05)
(0 -0 6.53712e-05)
(0 -0 6.19654e-05)
(0 -0 4.69895e-05)
(0 -0 2.71625e-05)
(0 -0 8.68431e-06)
(0 -0 -4.99641e-06)
(0 -0 -1.32371e-05)
(0 -0 -1.70717e-05)
(0 -0 -1.80212e-05)
(0 -0 -1.73885e-05)
(0 -0 -1.604e-05)
(0 -0 -1.44583e-05)
(0 -0 -1.28747e-05)
(0 -0 -1.1384e-05)
(0 -0 -1.00171e-05)
(0 -0 -8.77868e-06)
(0 -0 -7.66328e-06)
(0 -0 -6.66232e-06)
(0 -0 -5.76852e-06)
(0 -0 -4.97753e-06)
(0 -0 -4.28448e-06)
(0 -0 -3.67885e-06)
(0 -0 -3.14465e-06)
(0 -0 -2.66779e-06)
(0 -0 -2.24216e-06)
(0 -0 -1.86723e-06)
(0 -0 -1.54093e-06)
(0 -0 -1.25649e-06)
(0 -0 -1.00719e-06)
(0 -0 -7.90222e-07)
(0 -0 -6.04531e-07)
(0 -0 -4.47131e-07)
(0 -0 -3.13069e-07)
(0 -0 -1.98908e-07)
(0 -0 -1.03914e-07)
(0 -0 -2.75576e-08)
(0 -0 3.36499e-08)
(0 -0 7.47828e-08)
(0 -0 -1.75913e-05)
(0 -0 -2.04599e-05)
(0 -0 -1.38519e-05)
(0 -0 4.23805e-06)
(0 -0 2.93103e-05)
(0 -0 5.19776e-05)
(0 -0 6.34048e-05)
(0 -0 6.03041e-05)
(0 -0 4.58133e-05)
(0 -0 2.64841e-05)
(0 -0 8.40482e-06)
(0 -0 -5.0145e-06)
(0 -0 -1.31172e-05)
(0 -0 -1.69012e-05)
(0 -0 -1.78518e-05)
(0 -0 -1.72458e-05)
(0 -0 -1.59332e-05)
(0 -0 -1.43875e-05)
(0 -0 -1.28357e-05)
(0 -0 -1.13707e-05)
(0 -0 -1.00235e-05)
(0 -0 -8.79917e-06)