/*--------------------------------*- C++ -*----------------------------------*\
| =========                 |                                                 |
| \\      /  F ield         | OpenFOAM: The Open Source CFD Toolbox           |
|  \\    /   O peration     | Version:  2412                                  |
|   \\  /    A nd           | Website:  www.openfoam.com                      |
|    \\/     M anipulation  |                                                 |
\*---------------------------------------------------------------------------*/
FoamFile
{
    version     2.0;
    format      ascii;
    arch        "LSB;label=32;scalar=64";
    class       surfaceScalarField;
    location    "2.5";
    object      phi;
}
// * * * * * * * * * * * * * * * * * * * * * * * * * * * * * * * * * * * * * //

dimensions      [0 3 -1 0 0 0 0];

oriented        oriented;

internalField   nonuniform List<scalar> 
10424
(
0.00531564
-0.000110243
-0.0053135
0.000108098
0.00531788
-0.000112481
0.000110246
0.0053202
-0.000114732
0.000112407
0.00532262
-0.000116999
0.000114579
0.00532514
-0.000119278
0.000116755
0.00532778
-0.000121557
0.000118922
0.00533053
-0.000123822
0.000121066
0.00533342
-0.000126062
0.000123175
0.00533644
-0.000128267
0.000125244
0.00533961
-0.000130432
0.00012727
0.00534291
-0.000132552
0.000129247
0.00534636
-0.000134623
0.000131173
0.00534996
-0.000136639
0.000133042
0.00535371
-0.000138592
0.000134845
0.0053576
-0.000140473
0.000136576
-0.000142274
0.000138225
0.00531362
-0.000112376
-0.00531149
0.00531585
-0.00011471
0.00531818
-0.000117058
0.00532061
-0.000119426
0.00532314
-0.000121814
0.0053258
-0.000124212
0.00532858
-0.000126604
0.0053315
-0.000128978
0.00533455
-0.000131324
0.00533776
-0.000133635
0.00534111
-0.000135905
0.00534462
-0.000138129
0.00534828
-0.0001403
0.0053521
-0.00014241
0.00535607
-0.000144452
-0.000146415
0.00531146
-0.000114492
-0.00530934
0.00531368
-0.000116928
0.005316
-0.00011938
0.00531843
-0.000121858
0.00532098
-0.000124361
0.00532365
-0.000126882
0.00532645
-0.000129406
0.00532939
-0.00013192
0.00533248
-0.000134413
0.00533572
-0.000136875
0.00533912
-0.000139301
0.00534268
-0.000141685
0.0053464
-0.00014402
0.00535028
-0.000146298
0.00535434
-0.00014851
-0.000150646
0.0053091
-0.000116587
-0.00530701
0.00531131
-0.00011913
0.00531362
-0.000121693
0.00531605
-0.000124286
0.0053186
-0.000126912
0.00532128
-0.000129562
0.00532409
-0.000132224
0.00532706
-0.000134883
0.00533017
-0.000137527
0.00533344
-0.000140148
0.00533688
-0.000142737
0.00534048
-0.00014529
0.00534426
-0.000147797
0.00534821
-0.000150252
0.00535235
-0.000152644
-0.000154963
0.00530655
-0.000118656
-0.00530448
0.00530873
-0.000121311
0.00531103
-0.000123991
0.00531345
-0.000126706
0.005316
-0.000129459
0.00531868
-0.000132244
0.00532151
-0.000135049
0.00532448
-0.000137859
0.00532762
-0.000140661
0.00533092
-0.000143447
0.00533439
-0.000146208
0.00533804
-0.000148937
0.00534187
-0.000151627
0.00534588
-0.000154268
0.00535009
-0.000156851
-0.000159366
0.00530383
-0.000120694
-0.0053018
0.00530599
-0.000123467
0.00530827
-0.000126269
0.00531067
-0.00012911
0.00531321
-0.000131997
0.00531589
-0.000134922
0.00531871
-0.000137876
0.0053217
-0.000140843
0.00532485
-0.00014381
0.00532817
-0.000146768
0.00533167
-0.000149708
0.00533535
-0.000152623
0.00533923
-0.000155504
0.0053433
-0.000158342
0.00534758
-0.000161127
-0.000163849
0.00530098
-0.000122696
-0.00529897
0.0053031
-0.000125591
0.00530535
-0.000128519
0.00530773
-0.000131492
0.00531025
-0.000134517
0.00531292
-0.000137589
0.00531574
-0.000140697
0.00531872
-0.000143827
0.00532188
-0.000146966
0.00532522
-0.000150104
0.00532874
-0.000153231
0.00533246
-0.00015634
0.00533637
-0.000159422
0.0053405
-0.000162468
0.00534484
-0.000165468
-0.000168409
0.00529799
-0.000124657
-0.00529603
0.00530008
-0.000127677
0.00530229
-0.000130735
0.00530465
-0.000133845
0.00530714
-0.000137013
0.00530979
-0.000140236
0.0053126
-0.000143505
0.00531557
-0.000146804
0.00531873
-0.000150122
0.00532207
-0.000153447
0.00532561
-0.00015677
0.00532936
-0.000160083
0.00533331
-0.000163376
0.00533748
-0.000166641
0.00534188
-0.000169867
-0.000173041
0.00529489
-0.000126571
-0.00529297
0.00529693
-0.000129719
0.0052991
-0.000132911
0.00530142
-0.000136161
0.00530388
-0.000139476
0.0053065
-0.000142856
0.00530929
-0.000146291
0.00531225
-0.000149767
0.0053154
-0.00015327
0.00531874
-0.00015679
0.00532229
-0.000160318
0.00532605
-0.000163843
0.00533003
-0.000167359
0.00533425
-0.000170853
0.0053387
-0.000174317
-0.000177737
0.00529166
-0.00012843
-0.0052898
0.00529365
-0.000131709
0.00529577
-0.000135038
0.00529805
-0.000138432
0.00530047
-0.0001419
0.00530305
-0.000145441
0.00530581
-0.000149048
0.00530875
-0.000152705
0.00531188
-0.000156402
0.00531522
-0.000160125
0.00531876
-0.000163865
0.00532253
-0.000167613
0.00532653
-0.00017136
0.00533078
-0.000175097
0.00533527
-0.000178811
-0.000182492
0.0052883
-0.000130227
-0.0052865
0.00529023
-0.00013364
0.0052923
-0.000137109
0.00529452
-0.00014065
0.0052969
-0.000144274
0.00529944
-0.000147982
0.00530215
-0.000151765
0.00530506
-0.000155611
0.00530816
-0.000159507
0.00531148
-0.00016344
0.00531502
-0.000167402
0.00531879
-0.000171382
0.0053228
-0.000175372
0.00532706
-0.000179362
0.00533159
-0.00018334
-0.000187295
0.00528481
-0.000131955
-0.00528308
0.00528667
-0.000135504
0.00528868
-0.000139115
0.00529084
-0.000142807
0.00529315
-0.000146591
0.00529564
-0.000150469
0.00529831
-0.000154434
0.00530117
-0.000158474
0.00530424
-0.000162576
0.00530753
-0.000166727
0.00531104
-0.000170919
0.0053148
-0.00017514
0.00531881
-0.000179384
0.00532309
-0.000183639
0.00532764
-0.000187894
-0.000192137
0.00528118
-0.000133605
-0.00527953
0.00528297
-0.000137291
0.0052849
-0.000141048
0.00528699
-0.000144893
0.00528924
-0.00014884
0.00529166
-0.000152892
0.00529427
-0.000157044
0.00529708
-0.000161283
0.0053001
-0.000165597
0.00530335
-0.000169974
0.00530683
-0.000174403
0.00531057
-0.000178876
0.00531456
-0.000183383
0.00531884
-0.000187915
0.00532341
-0.00019246
-0.000197007
0.00527742
-0.00013517
-0.00527585
0.00527912
-0.000138994
0.00528097
-0.000142897
0.00528297
-0.000146897
0.00528514
-0.00015101
0.00528749
-0.00015524
0.00529003
-0.000159582
0.00529277
-0.000164026
0.00529573
-0.000168558
0.00529893
-0.000173167
0.00530237
-0.000177842
0.00530607
-0.000182575
0.00531004
-0.000187357
0.0053143
-0.000192177
0.00531887
-0.000197026
-0.000201891
0.00527351
-0.000136638
-0.00527204
0.00527511
-0.000140602
0.00527687
-0.000144653
0.00527878
-0.00014881
0.00528086
-0.000153091
0.00528313
-0.000157501
0.00528558
-0.000162038
0.00528825
-0.000166691
0.00529114
-0.000171447
0.00529426
-0.000176294
0.00529764
-0.000181222
0.00530129
-0.000186224
0.00530522
-0.00019129
0.00530946
-0.000196411
0.00531401
-0.000201577
-0.000206775
0.00526946
-0.000138002
-0.00526809
0.00527096
-0.000142106
0.00527261
-0.000146305
0.00527442
-0.00015062
0.0052764
-0.000155071
0.00527856
-0.000159664
0.00528092
-0.000164398
0.0052835
-0.000169264
0.0052863
-0.000174248
0.00528934
-0.000179339
0.00529265
-0.000184528
0.00529623
-0.000189807
0.00530011
-0.000195167
0.0053043
-0.0002006
0.00530882
-0.000206096
-0.000211642
0.00526526
-0.000139252
-0.00526401
0.00526665
-0.000143495
0.00526819
-0.000147842
0.00526988
-0.000152316
0.00527175
-0.000156937
0.0052738
-0.000161715
0.00527605
-0.000166649
0.00527852
-0.00017173
0.00528122
-0.000176947
0.00528416
-0.000182287
0.00528738
-0.000187744
0.00529088
-0.000193307
0.00529468
-0.000198971
0.00529881
-0.000204726
0.00530328
-0.000210564
-0.000216473
0.00526093
-0.000140377
-0.0052598
0.00526219
-0.000144757
0.0052636
-0.000149252
0.00526517
-0.000153884
0.00526691
-0.000158676
0.00526883
-0.000163639
0.00527096
-0.000168775
0.0052733
-0.000174074
0.00527588
-0.000179527
0.00527872
-0.000185122
0.00528182
-0.00019085
0.00528522
-0.000196706
0.00528893
-0.000202681
0.00529298
-0.00020877
0.00529737
-0.000214962
-0.000221247
0.00525645
-0.000141366
-0.00525546
0.00525758
-0.000145883
0.00525885
-0.000150523
0.00526028
-0.000155313
0.00526188
-0.000160275
0.00526366
-0.000165423
0.00526565
-0.000170761
0.00526785
-0.00017628
0.0052703
-0.000181971
0.005273
-0.000187823
0.00527598
-0.000193829
0.00527925
-0.000199983
0.00528285
-0.000206278
0.00528679
-0.000212709
0.00529109
-0.000219267
-0.000225943
0.00525184
-0.005251
0.00525282
0.00525394
0.00525521
0.00525665
0.00525828
0.00526011
0.00526216
0.00526445
0.005267
0.00526983
0.00527297
0.00527643
0.00528024
0.00528442
0.00528651
-8.48185e-05
9.12013e-05
0.00526431
-0.000366002
0.000388202
0.00525581
-0.000355333
0.000363836
0.00525312
-0.000233588
0.000236272
0.00525641
-0.000127527
0.000124243
0.00526103
-7.25026e-05
6.78787e-05
0.00526489
-5.19369e-05
4.80755e-05
0.00526791
-4.58712e-05
4.28592e-05
0.00527017
-4.51506e-05
4.28816e-05
0.00527187
-4.62925e-05
4.45958e-05
0.00527316
-4.80339e-05
4.6744e-05
0.00527416
-4.99737e-05
4.89738e-05
0.00527495
-5.1981e-05
5.1191e-05
0.00527559
-5.40037e-05
5.33665e-05
0.00527611
-5.60182e-05
5.54926e-05
0.00527656
-5.8014e-05
5.75694e-05
0.00527695
-5.99856e-05
5.95987e-05
0.00527729
-6.193e-05
6.15828e-05
0.00527761
-6.38461e-05
6.35241e-05
0.00527792
-6.57327e-05
6.54243e-05
0.00527823
-6.75893e-05
6.72848e-05
0.00527854
-6.94151e-05
6.91065e-05
0.00527886
-7.12095e-05
7.08897e-05
0.00527919
-7.29714e-05
7.26344e-05
0.00527955
-7.46997e-05
7.43403e-05
0.00527994
-7.63932e-05
7.60068e-05
0.00528036
-7.80506e-05
7.76329e-05
0.00528081
-7.96705e-05
7.92177e-05
0.0052813
-8.12512e-05
8.07599e-05
0.00528183
-8.27913e-05
8.22583e-05
0.00528241
-8.42889e-05
8.37114e-05
0.00528304
-8.57424e-05
8.51177e-05
0.00528371
-8.715e-05
8.64757e-05
0.00528444
-8.851e-05
8.77839e-05
0.00528522
-8.98207e-05
8.90408e-05
0.00528605
-9.10805e-05
9.02449e-05
0.00528694
-9.22876e-05
9.13947e-05
0.0052879
-9.34406e-05
9.24889e-05
0.00528891
-9.45379e-05
9.35262e-05
0.00528998
-9.5578e-05
9.45053e-05
0.00529112
-9.65596e-05
9.5425e-05
0.00529231
-9.74814e-05
9.62842e-05
0.00529357
-9.83424e-05
9.70821e-05
0.0052949
-9.91413e-05
9.78177e-05
0.00529628
-9.98774e-05
9.84903e-05
0.00529773
-0.00010055
9.90993e-05
0.00529925
-0.000101158
9.96443e-05
0.00530082
-0.000101701
0.000100125
0.00530246
-0.000102178
0.000100541
0.00530416
-0.000102589
0.000100891
0.00530592
-0.000102933
0.000101176
0.00530773
-0.000103207
0.000101391
0.0053096
-0.000103407
0.000101536
0.00531153
-0.000103528
0.000101604
-0.000103567
0.000101597
0.00528724
-7.91693e-05
0.00526808
-0.000346834
0.00525825
-0.000345506
0.00525526
-0.000230596
0.00525754
-0.000129809
0.00526142
-7.63825e-05
0.0052649
-5.54218e-05
0.00526769
-4.8656e-05
0.00526983
-4.72882e-05
0.00527145
-4.79139e-05
0.00527269
-4.9275e-05
0.00527365
-5.09375e-05
0.00527441
-5.27411e-05
0.00527502
-5.46135e-05
0.00527552
-5.65171e-05
0.00527594
-5.84315e-05
0.0052763
-6.03444e-05
0.00527662
-6.22482e-05
0.00527691
-6.41377e-05
0.00527719
-6.60094e-05
0.00527746
-6.78608e-05
0.00527773
-6.96895e-05
0.00527802
-7.14938e-05
0.00527832
-7.32716e-05
0.00527864
-7.50212e-05
0.00527898
-7.67409e-05
0.00527936
-7.84287e-05
0.00527978
-8.00828e-05
0.00528023
-8.17013e-05
0.00528072
-8.32824e-05
0.00528125
-8.4824e-05
0.00528183
-8.63243e-05
0.00528246
-8.77812e-05
0.00528315
-8.91929e-05
0.00528388
-9.05574e-05
0.00528468
-9.18729e-05
0.00528553
-9.31375e-05
0.00528644
-9.43495e-05
0.0052874
-9.55073e-05
0.00528844
-9.6609e-05
0.00528953
-9.76533e-05
0.00529069
-9.86386e-05
0.00529191
-9.95636e-05
0.00529319
-0.000100427
0.00529454
-0.000101228
0.00529596
-0.000101965
0.00529744
-0.000102637
0.00529898
-0.000103245
0.00530059
-0.000103785
0.00530226
-0.000104259
0.00530399
-0.000104665
0.00530578
-0.000104998
0.00530763
-0.000105256
0.00530954
-0.000105432
-0.000105523
0.00528844
-7.47161e-05
0.00527158
-0.000329976
0.00526144
-0.000335366
0.00525773
-0.000226887
0.00525904
-0.000131119
0.00526214
-7.94816e-05
0.00526516
-5.84377e-05
0.00526766
-5.11613e-05
0.00526963
-4.9258e-05
0.00527115
-4.94321e-05
0.00527232
-5.04471e-05
0.00527324
-5.18502e-05
0.00527396
-5.34596e-05
0.00527453
-5.51864e-05
0.00527499
-5.69814e-05
0.00527538
-5.88152e-05
0.0052757
-6.06695e-05
0.00527599
-6.25319e-05
0.00527624
-6.43941e-05
0.00527648
-6.62499e-05
0.00527672
-6.8095e-05
0.00527695
-6.99255e-05
0.0052772
-7.17386e-05
0.00527746
-7.35313e-05
0.00527774
-7.53012e-05
0.00527804
-7.70459e-05
0.00527838
-7.87631e-05
0.00527874
-8.04506e-05
0.00527915
-8.21062e-05
0.00527959
-8.37275e-05
0.00528008
-8.53126e-05
0.00528062
-8.68591e-05
0.0052812
-8.83649e-05
0.00528184
-8.98279e-05
0.00528252
-9.1246e-05
0.00528327
-9.26172e-05
0.00528407
-9.39394e-05
0.00528493
-9.52107e-05
0.00528585
-9.64292e-05
0.00528684
-9.7593e-05
0.00528789
-9.87005e-05
0.005289
-9.975e-05
0.00529017
-0.00010074
0.00529141
-0.000101669
0.00529272
-0.000102536
0.0052941
-0.000103339
0.00529554
-0.000104077
0.00529704
-0.00010475
0.00529861
-0.000105356
0.00530025
-0.000105895
0.00530195
-0.000106363
0.00530371
-0.000106759
0.00530553
-0.000107077
0.00530741
-0.000107311
-0.000107457
0.00528946
-7.12834e-05
0.00527474
-0.000315251
0.00526453
-0.000325164
0.00526026
-0.000222609
0.00526067
-0.00013153
0.00526301
-8.18256e-05
0.00526554
-6.09659e-05
0.00526774
-5.33604e-05
0.00526952
-5.10352e-05
0.00527091
-5.08259e-05
0.005272
-5.1533e-05
0.00527284
-5.26983e-05
0.00527351
-5.41255e-05
0.00527404
-5.57137e-05
0.00527446
-5.74037e-05
0.0052748
-5.91588e-05
0.00527509
-6.09552e-05
0.00527533
-6.27763e-05
0.00527555
-6.46107e-05
0.00527575
-6.645e-05
0.00527594
-6.82879e-05
0.00527614
-7.01193e-05
0.00527634
-7.19401e-05
0.00527655
-7.37467e-05
0.00527679
-7.55358e-05
0.00527705
-7.73046e-05
0.00527733
-7.90503e-05
0.00527765
-8.07702e-05
0.00527801
-8.24619e-05
0.0052784
-8.41228e-05
0.00527884
-8.57506e-05
0.00527933
-8.73427e-05
0.00527986
-8.88969e-05
0.00528044
-9.04109e-05
0.00528108
-9.18823e-05
0.00528177
-9.33089e-05
0.00528252
-9.46886e-05
0.00528333
-9.60192e-05
0.0052842
-9.72987e-05
0.00528513
-9.8525e-05
0.00528612
-9.96963e-05
0.00528718
-0.000100811
0.00528831
-0.000101866
0.0052895
-0.000102862
0.00529076
-0.000103796
0.00529209
-0.000104666
0.00529349
-0.000105472
0.00529495
-0.000106212
0.00529648
-0.000106886
0.00529807
-0.00010749
0.00529973
-0.000108025
0.00530146
-0.000108485
0.00530325
-0.000108866
0.0053051
-0.000109162
-0.000109366
0.0052902
-6.8592e-05
0.00527724
-0.000302291
0.00526723
-0.000315148
0.00526255
-0.000217936
0.00526223
-0.000131209
0.0052639
-8.3498e-05
0.00526597
-6.30265e-05
0.00526785
-5.52492e-05
0.00526943
-5.26074e-05
0.00527068
-5.20811e-05
0.00527167
-5.252e-05
0.00527244
-5.34709e-05
0.00527305
-5.473e-05
0.00527352
-5.61878e-05
0.00527389
-5.77777e-05
0.00527419
-5.94569e-05
0.00527443
-6.11968e-05
0.00527463
-6.29771e-05
0.00527481
-6.47837e-05
0.00527496
-6.6606e-05
0.00527511
-6.84361e-05
0.00527526
-7.02676e-05
0.00527542
-7.20952e-05
0.00527558
-7.39147e-05
0.00527577
-7.5722e-05
0.00527598
-7.75139e-05
0.00527622
-7.9287e-05
0.00527648
-8.10384e-05
0.00527679
-8.27654e-05
0.00527713
-8.4465e-05
0.00527751
-8.61347e-05
0.00527794
-8.77718e-05
0.00527842
-8.93738e-05
0.00527895
-9.09381e-05
0.00527953
-9.24624e-05
0.00528016
-9.39443e-05
0.00528086
-9.53813e-05
0.00528161
-9.67713e-05
0.00528242
-9.81118e-05
0.0052833
-9.94009e-05
0.00528424
-0.000100636
0.00528524
-0.000101816
0.00528631
-0.000102938
0.00528745
-0.000104001
0.00528866
-0.000105003
0.00528994
-0.000105942
0.00529128
-0.000106817
0.00529269
-0.000107626
0.00529418
-0.000108368
0.00529573
-0.000109042
0.00529735
-0.000109644
0.00529903
-0.000110172
0.00530079
-0.000110619
0.0053026
-0.000110979
-0.000111246
0.00529066
-6.63622e-05
0.0052791
-0.000290731
0.00526942
-0.000305459
0.00526453
-0.000213046
0.00526365
-0.000130336
0.00526476
-8.46062e-05
0.0052664
-6.46625e-05
0.00526799
-5.68392e-05
0.00526935
-5.39718e-05
0.00527046
-5.31899e-05
0.00527134
-5.33995e-05
0.00527203
-5.41601e-05
0.00527256
-5.52661e-05
0.00527298
-5.66029e-05
0.0052733
-5.80985e-05
0.00527355
-5.97052e-05
0.00527374
-6.13904e-05
0.0052739
-6.3131e-05
0.00527402
-6.49101e-05
0.00527413
-6.67153e-05
0.00527423
-6.85371e-05
0.00527433
-7.03678e-05
0.00527444
-7.22015e-05
0.00527456
-7.40329e-05
0.00527469
-7.58575e-05
0.00527485
-7.76714e-05
0.00527503
-7.94709e-05
0.00527525
-8.12528e-05
0.0052755
-8.3014e-05
0.00527578
-8.47514e-05
0.00527611
-8.64622e-05
0.00527648
-8.81434e-05
0.0052769
-8.97925e-05
0.00527737
-9.14067e-05
0.00527789
-9.29834e-05
0.00527847
-9.45201e-05
0.0052791
-9.60142e-05
0.00527979
-9.74633e-05
0.00528054
-9.88649e-05
0.00528136
-0.000100217
0.00528224
-0.000101517
0.00528319
-0.000102762
0.0052842
-0.000103952
0.00528528
-0.000105083
0.00528643
-0.000106154
0.00528765
-0.000107163
0.00528894
-0.000108108
0.00529031
-0.000108988
0.00529174
-0.0001098
0.00529324
-0.000110545
0.00529481
-0.000111217
0.00529646
-0.000111815
0.00529817
-0.000112331
0.00529995
-0.000112759
-0.000113093
0.00529092
-6.43868e-05
0.00528045
-0.000280259
0.00527115
-0.000296159
0.00526618
-0.000208079
0.00526491
-0.000129063
0.00526556
-8.52556e-05
0.00526682
-6.59242e-05
0.00526813
-5.81495e-05
0.00526929
-5.51323e-05
0.00527025
-5.41494e-05
0.00527102
-5.41662e-05
0.00527162
-5.47603e-05
0.00527208
-5.57287e-05
0.00527243
-5.69544e-05
0.00527269
-5.8362e-05
0.00527289
-5.99002e-05
0.00527303
-6.15332e-05
0.00527314
-6.32353e-05
0.00527321
-6.49875e-05
0.00527327
-6.67755e-05
0.00527332
-6.85886e-05
0.00527338
-7.04181e-05
0.00527343
-7.22569e-05
0.0052735
-7.40993e-05
0.00527358
-7.59401e-05
0.00527368
-7.7775e-05
0.00527381
-7.95999e-05
0.00527397
-8.14112e-05
0.00527416
-8.32056e-05
0.00527439
-8.49798e-05
0.00527466
-8.67307e-05
0.00527497
-8.84552e-05
0.00527533
-9.01506e-05
0.00527574
-9.18139e-05
0.0052762
-9.34424e-05
0.00527671
-9.50333e-05
0.00527728
-9.65841e-05
0.00527791
-9.80921e-05
0.0052786
-9.95547e-05
0.00527935
-0.00010097
0.00528017
-0.000102334
0.00528105
-0.000103646
0.005282
-0.000104903
0.00528302
-0.000106103
0.00528411
-0.000107244
0.00528527
-0.000108324
0.00528651
-0.000109341
0.00528781
-0.000110293
0.00528919
-0.000111178
0.00529064
-0.000111995
0.00529216
-0.00011274
0.00529376
-0.00011341
0.00529542
-0.000113999
0.00529716
-0.000114498
-0.000114903
0.00529105
-6.25424e-05
0.00528142
-0.000270634
0.00527252
-0.000287258
0.00526757
-0.000203125
0.00526602
-0.00012751
0.0052663
-8.55356e-05
0.00526723
-6.68604e-05
0.00526828
-5.92025e-05
0.00526925
-5.60965e-05
0.00527006
-5.496e-05
0.00527071
-5.48174e-05
0.00527122
-5.52678e-05
0.0052716
-5.61139e-05
0.00527189
-5.72388e-05
0.00527209
-5.8565e-05
0.00527223
-6.00391e-05
0.00527232
-6.16226e-05
0.00527237
-6.32877e-05
0.0052724
-6.50136e-05
0.00527241
-6.67847e-05
0.00527241
-6.85889e-05
0.00527241
-7.04165e-05
0.00527241
-7.22598e-05
0.00527242
-7.41122e-05
0.00527245
-7.59682e-05
0.0052725
-7.78229e-05
0.00527257
-7.96721e-05
0.00527267
-8.15117e-05
0.0052728
-8.33381e-05
0.00527297
-8.5148e-05
0.00527318
-8.69379e-05
0.00527343
-8.87047e-05
0.00527372
-9.04454e-05
0.00527407
-9.2157e-05
0.00527446
-9.38365e-05
0.00527491
-9.54811e-05
0.00527541
-9.70881e-05
0.00527597
-9.86546e-05
0.0052766
-0.000100178
0.00527728
-0.000101656
0.00527803
-0.000103085
0.00527885
-0.000104463
0.00527974
-0.000105788
0.00528069
-0.000107058
0.00528172
-0.00010827
0.00528281
-0.000109421
0.00528398
-0.000110511
0.00528523
-0.000111537
0.00528655
-0.000112496
0.00528794
-0.000113388
0.00528941
-0.000114208
0.00529095
-0.000114953
0.00529257
-0.000115617
0.00529426
-0.000116191
-0.000116669
0.00529112
-6.07683e-05
0.00528216
-0.000261679
0.00527365
-0.000278739
0.00526875
-0.000198231
0.005267
-0.000125758
0.00526698
-8.55172e-05
0.00526763
-6.7514e-05
0.00526845
-6.00203e-05
0.00526923
-5.6874e-05
0.00526989
-5.56241e-05
0.00527043
-5.53522e-05
0.00527084
-5.56803e-05
0.00527115
-5.64189e-05
0.00527136
-5.74531e-05
0.0052715
-5.87049e-05
0.00527158
-6.01193e-05
0.00527161
-6.16562e-05
0.00527161
-6.32861e-05
0.00527159
-6.49867e-05
0.00527154
-6.67411e-05
0.00527149
-6.85361e-05
0.00527143
-7.03613e-05
0.00527138
-7.22083e-05
0.00527134
-7.40698e-05
0.00527131
-7.59399e-05
0.0052713
-7.78134e-05
0.00527132
-7.96855e-05
0.00527136
-8.15522e-05
0.00527143
-8.34095e-05
0.00527153
-8.52538e-05
0.00527168
-8.70816e-05
0.00527186
-8.88896e-05
0.00527209
-9.06746e-05
0.00527237
-9.24334e-05
0.00527269
-9.41631e-05
0.00527307
-9.58606e-05
0.00527351
-9.75231e-05
0.005274
-9.91475e-05
0.00527456
-0.000100731
0.00527517
-0.000102271
0.00527585
-0.000103765
0.0052766
-0.00010521
0.00527741
-0.000106604
0.0052783
-0.000107943
0.00527926
-0.000109227
0.00528029
-0.000110451
0.00528139
-0.000111615
0.00528257
-0.000112716
0.00528382
-0.000113751
0.00528515
-0.000114719
0.00528656
-0.000115617
0.00528805
-0.000116439
0.00528961
-0.000117181
0.00529125
-0.000117832
-0.000118388
0.00529117
-5.90402e-05
0.00528275
-0.000253267
0.00527459
-0.000270573
0.00526978
-0.000193419
0.00526788
-0.000123861
0.00526762
-8.52546e-05
0.00526802
-6.79214e-05
0.00526863
-6.06238e-05
0.00526923
-5.74751e-05
0.00526975
-5.61456e-05
0.00527017
-5.5771e-05
0.00527049
-5.59964e-05
0.00527071
-5.66416e-05
0.00527085
-5.75951e-05
0.00527092
-5.87795e-05
0.00527094
-6.01389e-05
0.00527092
-6.16322e-05
0.00527086
-6.32286e-05
0.00527078
-6.49048e-05
0.00527068
-6.66429e-05
0.00527058
-6.84286e-05
0.00527046
-7.0251e-05
0.00527036
-7.21008e-05
0.00527026
-7.39705e-05
0.00527017
-7.58536e-05
0.0052701
-7.77445e-05
0.00527006
-7.96385e-05
0.00527003
-8.15309e-05
0.00527004
-8.34177e-05
0.00527008
-8.52951e-05
0.00527016
-8.71595e-05
0.00527028
-8.90074e-05
0.00527044
-9.08354e-05
0.00527065
-9.26404e-05
0.0052709
-9.44192e-05
0.00527121
-9.61687e-05
0.00527157
-9.78858e-05
0.00527199
-9.95676e-05
0.00527247
-0.000101211
0.00527302
-0.000102813
0.00527362
-0.000104372
0.0052743
-0.000105883
0.00527504
-0.000107345
0.00527585
-0.000108755
0.00527673
-0.00011011
0.00527769
-0.000111409
0.00527872
-0.000112647
0.00527983
-0.000113824
0.00528102
-0.000114937
0.00528228
-0.000115983
0.00528362
-0.00011696
0.00528505
-0.000117863
0.00528655
-0.000118684
0.00528813
-0.000119416
-0.000120052
0.0052912
-5.73512e-05
0.00528325
-0.000245307
0.0052754
-0.000262727
0.00527068
-0.000188695
0.00526867
-0.000121858
0.00526821
-8.47891e-05
0.0052684
-6.8113e-05
0.00526881
-6.10321e-05
0.00526924
-5.79102e-05
0.00526963
-5.65293e-05
0.00526993
-5.60751e-05
0.00527015
-5.62157e-05
0.00527029
-5.67808e-05
0.00527036
-5.76631e-05
0.00527036
-5.87867e-05
0.00527032
-6.00958e-05
0.00527024
-6.15486e-05
0.00527012
-6.31135e-05
0.00526998
-6.47664e-05
0.00526983
-6.64884e-05
0.00526966
-6.82648e-05
0.0052695
-7.00837e-05
0.00526933
-7.19357e-05
0.00526917
-7.38125e-05
0.00526903
-7.57075e-05
0.0052689
-7.76147e-05
0.00526879
-7.95289e-05
0.0052687
-8.14457e-05
0.00526865
-8.33606e-05
0.00526862
-8.52697e-05
0.00526863
-8.71692e-05
0.00526868
-8.90556e-05
0.00526877
-9.09255e-05
0.0052689
-9.27754e-05
0.00526909
-9.46021e-05
0.00526932
-9.64024e-05
0.00526961
-9.81732e-05
0.00526995
-9.99114e-05
0.00527035
-0.000101614
0.00527082
-0.000103278
0.00527135
-0.0001049
0.00527194
-0.000106478
0.00527261
-0.000108008
0.00527334
-0.000109488
0.00527414
-0.000110916
0.00527502
-0.000112288
0.00527598
-0.000113603
0.00527701
-0.000114857
0.00527812
-0.000116049
0.00527932
-0.000117175
0.00528059
-0.000118233
0.00528194
-0.000119217
0.00528338
-0.000120121
0.0052849
-0.000120936
-0.000121655
0.00529124
-5.57008e-05
0.00528367
-0.000237731
0.00527611
-0.000255171
0.00527148
-0.00018406
0.00526939
-0.000119772
0.00526875
-8.41525e-05
0.00526875
-6.81143e-05
0.00526898
-6.12622e-05
0.00526926
-5.81894e-05
0.00526951
-5.67802e-05
0.00526971
-5.62667e-05
0.00526983
-5.63384e-05
0.00526988
-5.68357e-05
0.00526988
-5.76559e-05
0.00526981
-5.87252e-05
0.00526971
-5.99885e-05
0.00526956
-6.14038e-05
0.00526939
-6.29392e-05
0.00526919
-6.45698e-05
0.00526898
-6.62762e-05
0.00526876
-6.80431e-05
0.00526853
-6.98582e-05
0.00526831
-7.17114e-05
0.00526809
-7.35943e-05
0.00526788
-7.54999e-05
0.00526769
-7.7422e-05
0.00526752
-7.93552e-05
0.00526737
-8.12947e-05
0.00526724
-8.32362e-05
0.00526715
-8.51754e-05
0.00526709
-8.71086e-05
0.00526706
-8.90319e-05
0.00526708
-9.0942e-05
0.00526714
-9.28354e-05
0.00526725
-9.47087e-05
0.0052674
-9.65586e-05
0.00526761
-9.8382e-05
0.00526787
-0.000100175
0.0052682
-0.000101936
0.00526858
-0.000103661
0.00526903
-0.000105346
0.00526954
-0.00010699
0.00527012
-0.000108588
0.00527077
-0.000110139
0.00527149
-0.000111639
0.00527229
-0.000113086
0.00527316
-0.000114477
0.00527411
-0.000115809
0.00527515
-0.00011708
0.00527626
-0.000118288
0.00527745
-0.000119428
0.00527873
-0.000120496
0.0052801
-0.000121485
0.00528155
-0.000122386
-0.00012319
0.00529128
-5.40903e-05
0.00528404
-0.000230484
0.00527674
-0.000247874
0.00527219
-0.00017951
0.00527004
-0.000117622
0.00526926
-8.33695e-05
0.00526909
-6.79466e-05
0.00526916
-6.13295e-05
0.00526929
-5.83224e-05
0.00526941
-5.69039e-05
0.0052695
-5.63482e-05
0.00526952
-5.63654e-05
0.00526949
-5.6806e-05
0.00526941
-5.75725e-05
0.00526928
-5.85939e-05
0.0052691
-5.98157e-05
0.0052689
-6.11966e-05
0.00526866
-6.27043e-05
0.00526841
-6.43137e-05
0.00526814
-6.60049e-05
0.00526785
-6.77621e-05
0.00526757
-6.95728e-05
0.00526728
-7.14264e-05
0.005267
-7.33144e-05
0.00526673
-7.52293e-05
0.00526648
-7.71648e-05
0.00526624
-7.91154e-05
0.00526602
-8.10762e-05
0.00526582
-8.30425e-05
0.00526566
-8.50101e-05
0.00526553
-8.69752e-05
0.00526543
-8.89339e-05
0.00526537
-9.08826e-05
0.00526535
-9.28179e-05
0.00526538
-9.47362e-05
0.00526545
-9.66342e-05
0.00526558
-9.85087e-05
0.00526576
-0.000100356
0.005266
-0.000102174
0.0052663
-0.000103958
0.00526666
-0.000105706
0.00526708
-0.000107415
0.00526758
-0.000109081
0.00526814
-0.000110702
0.00526877
-0.000112274
0.00526948
-0.000113796
0.00527027
-0.000115263
0.00527114
-0.000116674
0.00527208
-0.000118026
0.00527311
-0.000119316
0.00527422
-0.00012054
0.00527542
-0.000121693
0.0052767
-0.000122769
0.00527807
-0.000123757
-0.000124649
0.00529132
-5.25204e-05
0.00528437
-0.000223526
0.0052773
-0.000240813
0.00527283
-0.00017504
0.00527063
-0.00011542
0.00526972
-8.246e-05
0.0052694
-6.76279e-05
0.00526932
-6.12473e-05
0.00526932
-5.83184e-05
0.00526932
-5.69058e-05
0.00526929
-5.63227e-05
0.00526923
-5.62979e-05
0.00526911
-5.66919e-05
0.00526895
-5.74127e-05
0.00526875
-5.83918e-05
0.00526851
-5.95765e-05
0.00526824
-6.09258e-05
0.00526794
-6.24077e-05
0.00526763
-6.39969e-05
0.0052673
-6.56732e-05
0.00526695
-6.74206e-05
0.00526661
-6.92263e-05
0.00526626
-7.10795e-05
0.00526592
-7.29713e-05
0.00526558
-7.48942e-05
0.00526526
-7.68416e-05
0.00526495
-7.88079e-05
0.00526466
-8.07881e-05
0.0052644
-8.27775e-05
0.00526416
-8.47718e-05
0.00526395
-8.67669e-05
0.00526378
-8.87591e-05
0.00526364
-9.07447e-05
0.00526354
-9.272e-05
0.00526349
-9.46817e-05
0.00526348
-9.66262e-05
0.00526352
-9.85502e-05
0.00526361
-0.000100451
0.00526376
-0.000102324
0.00526397
-0.000104167
0.00526424
-0.000105976
0.00526458
-0.000107749
0.00526498
-0.000109482
0.00526545
-0.000111172
0.00526599
-0.000112817
0.00526661
-0.000114413
0.0052673
-0.000115957
0.00526807
-0.000117447
0.00526893
-0.00011888
0.00526986
-0.000120252
0.00527088
-0.000121561
0.00527199
-0.000122801
0.00527319
-0.000123965
0.00527448
-0.000125043
-0.000126025
0.00529136
-5.0991e-05
0.00528466
-0.000216822
0.00527781
-0.000233965
0.00527342
-0.000170643
0.00527117
-0.000113174
0.00527015
-8.14396e-05
0.0052697
-6.71734e-05
0.00526948
-6.10279e-05
0.00526934
-5.81857e-05
0.00526923
-5.67914e-05
0.0052691
-5.61933e-05
0.00526894
-5.61375e-05
0.00526874
-5.6494e-05
0.00526851
-5.71762e-05
0.00526823
-5.81186e-05
0.00526793
-5.92701e-05
0.00526759
-6.05906e-05
0.00526723
-6.20484e-05
0.00526685
-6.36183e-05
0.00526646
-6.52801e-05
0.00526606
-6.70175e-05
0.00526565
-6.88175e-05
0.00526524
-7.06692e-05
0.00526483
-7.25637e-05
0.00526443
-7.44931e-05
0.00526404
-7.64508e-05
0.00526366
-7.84311e-05
0.0052633
-8.04289e-05
0.00526296
-8.24395e-05
0.00526265
-8.44584e-05
0.00526237
-8.64817e-05
0.00526211
-8.85053e-05
0.00526189
-9.05257e-05
0.00526171
-9.25392e-05
0.00526157
-9.45422e-05
0.00526148
-9.65314e-05
0.00526143
-9.85033e-05
0.00526143
-0.000100455
0.00526149
-0.000102382
0.00526161
-0.000104282
0.00526178
-0.000106151
0.00526202
-0.000107987
0.00526233
-0.000109786
0.0052627
-0.000111545
0.00526314
-0.000113261
0.00526366
-0.000114931
0.00526426
-0.000116552
0.00526493
-0.000118121
0.00526569
-0.000119635
0.00526652
-0.000121091
0.00526745
-0.000122486
0.00526846
-0.000123813
0.00526956
-0.000125066
0.00527075
-0.000126235
-0.000127309
0.0052914
-4.95014e-05
0.00528493
-0.000210346
0.00527827
-0.00022731
0.00527395
-0.000166316
0.00527166
-0.000110893
0.00527055
-8.03209e-05
0.00526997
-6.6596e-05
0.00526962
-6.06816e-05
0.00526937
-5.79322e-05
0.00526914
-5.65658e-05
0.00526891
-5.59632e-05
0.00526866
-5.58861e-05
0.00526838
-5.62132e-05
0.00526807
-5.68633e-05
0.00526772
-5.77739e-05
0.00526735
-5.8896e-05
0.00526695
-6.01902e-05
0.00526653
-6.16256e-05
0.00526608
-6.31771e-05
0.00526563
-6.48245e-05
0.00526516
-6.65516e-05
0.00526469
-6.83452e-05
0.00526422
-7.01945e-05
0.00526374
-7.20903e-05
0.00526327
-7.40247e-05
0.00526281
-7.5991e-05
0.00526237
-7.79835e-05
0.00526193
-7.99969e-05
0.00526152
-8.20266e-05
0.00526113
-8.40681e-05
0.00526077
-8.61173e-05
0.00526043
-8.81703e-05
0.00526013
-9.02233e-05
0.00525986
-9.22728e-05
0.00525964
-9.43152e-05
0.00525945
-9.63469e-05
0.00525931
-9.83647e-05
0.00525922
-0.000100365
0.00525919
-0.000102345
0.0052592
-0.0001043
0.00525928
-0.000106228
0.00525942
-0.000108125
0.00525962
-0.000109989
0.00525989
-0.000111816
0.00526023
-0.000113602
0.00526065
-0.000115345
0.00526114
-0.000117042
0.00526171
-0.00011869
0.00526236
-0.000120285
0.00526309
-0.000121825
0.00526391
-0.000123305
0.00526482
-0.000124721
0.00526582
-0.000126065
0.00526691
-0.000127326
-0.000128493
0.00529144
-4.80498e-05
0.00528517