/*--------------------------------*- C++ -*----------------------------------*\
| =========                 |                                                 |
| \\      /  F ield         | OpenFOAM: The Open Source CFD Toolbox           |
|  \\    /   O peration     | Version:  2412                                  |
|   \\  /    A nd           | Website:  www.openfoam.com                      |
|    \\/     M anipulation  |                                                 |
\*---------------------------------------------------------------------------*/
FoamFile
{
    version     2.0;
    format      ascii;
    arch        "LSB;label=32;scalar=64";
    class       volScalarField;
    location    "7";
    object      p;
}
// * * * * * * * * * * * * * * * * * * * * * * * * * * * * * * * * * * * * * //

dimensions      [0 2 -2 0 0 0 0];

internalField   nonuniform List<scalar> 
5285
(
0.00215138
0.00219869
0.00224873
0.00230173
0.00235792
0.00241757
0.00248099
0.00254848
0.0026204
0.00269716
0.00277918
0.00286695
0.00296101
0.00306197
0.00317049
0.00328734
0.00341333
0.0035494
0.00369654
0.00385586
0.00402852
0.00421571
0.00441856
0.00463801
0.00487454
0.00512778
0.00539603
0.00567572
0.00596144
0.00624667
0.0065242
0.00679805
0.00714078
0.00765629
0.00215034
0.00219763
0.00224764
0.0023006
0.00235675
0.00241634
0.00247968
0.00254707
0.00261887
0.00269546
0.00277728
0.00286479
0.00295854
0.00305909
0.00316712
0.00328332
0.0034085
0.00354353
0.00368935
0.00384695
0.00401738
0.00420166
0.00440071
0.00461514
0.00484505
0.00508955
0.00534624
0.00561068
0.00587637
0.00613564
0.0063806
0.00661436
0.00690494
0.00734912
0.00214824
0.00219549
0.00224546
0.00229835
0.00235441
0.00241388
0.00247707
0.00254426
0.00261581
0.00269209
0.00277351
0.00286053
0.00295365
0.00305342
0.00316045
0.0032754
0.00339899
0.00353199
0.00367518
0.00382941
0.00399544
0.00417398
0.00436548
0.00456997
0.00478669
0.00501368
0.00524714
0.00548085
0.00570611
0.00591288
0.00609216
0.00624551
0.00642727
0.00674261
0.00214504
0.00219223
0.00224211
0.0022949
0.00235081
0.0024101
0.00247304
0.00253993
0.00261109
0.00268688
0.00276769
0.00285395
0.00294611
0.00304469
0.00315021
0.00326326
0.00338444
0.00351435
0.00365361
0.00380275
0.0039622
0.00413215
0.00431239
0.00450203
0.00469911
0.00490003
0.00509886
0.00528669
0.00545156
0.00557975
0.00566049
0.00569696
0.0057273
0.00581543
0.00214091
0.00218803
0.00223782
0.00229047
0.00234621
0.00240527
0.00246791
0.00253441
0.00260507
0.00268024
0.00276026
0.00284552
0.00293643
0.00303342
0.00313695
0.00324747
0.00336542
0.00349122
0.00362518
0.00376749
0.00391805
0.0040764
0.00424141
0.00441098
0.00458152
0.00474726
0.0048995
0.00502587
0.00511023
0.00513409
0.00508324
0.00496448
0.00480536
0.00454399
0.00213665
0.00218385
0.0022337
0.00228639
0.00234213
0.00240116
0.0024637
0.00253004
0.00260046
0.00267527
0.0027548
0.00283938
0.00292938
0.00302517
0.00312709
0.00323547
0.00335058
0.00347259
0.00360147
0.00373692
0.00387819
0.00402381
0.00417126
0.0043165
0.00445323
0.00457209
0.00465976
0.00469834
0.00466541
0.00453612
0.00429102
0.00393807
0.00349794
0.00276523
0.00213014
0.00217729
0.00222708
0.00227969
0.00233531
0.00239417
0.00245651
0.00252256
0.00259262
0.00266695
0.00274587
0.00282967
0.00291867
0.00301316
0.0031134
0.0032196
0.00333183
0.00345004
0.00357384
0.00370244
0.0038343
0.00396686
0.00409589
0.00421479
0.00431361
0.00437784
0.00438749
0.00431668
0.00413464
0.00380772
0.00331191
0.00266178
0.00182676
0.000487583
-0.00313468
-0.00312746
-0.00304126
-0.00289071
-0.00268971
-0.00245004
-0.00218511
-0.0019085
-0.00163264
-0.00136809
-0.001123
-0.000902898
-0.000710836
-0.0005477
-0.000412694
-0.000303806
-0.000218272
-0.00015295
-0.000104626
-7.0222e-05
-4.69361e-05
-3.2315e-05
-0.00326054
-0.00322212
-0.0031191
-0.00295613
-0.00274948
-0.00250591
-0.00223816
-0.00195923
-0.00168105
-0.00141396
-0.00116605
-0.00094288
-0.000747565
-0.000581099
-0.000442777
-0.000330676
-0.000242095
-0.000173938
-0.00012302
-8.62735e-05
-6.0897e-05
-4.44268e-05
-0.00351609
-0.00340152
-0.00326013
-0.00308361
-0.00286451
-0.00261308
-0.00234021
-0.00205701
-0.00177456
-0.0015028
-0.00124965
-0.00102072
-0.000819266
-0.000646458
-0.000501784
-0.000383488
-0.000289004
-0.000215333
-0.00015935
-0.000118016
-8.85333e-05
-6.84246e-05
-0.00388501
-0.00364087
-0.00347468
-0.00326794
-0.00302908
-0.00276612
-0.00248552
-0.00219604
-0.00190754
-0.00162926
-0.00136885
-0.00113191
-0.000921872
-0.00074016
-0.000586527
-0.000459457
-0.000356581
-0.000275047
-0.000211818
-0.000163906
-0.000128524
-0.000103175
-0.00432668
-0.00399701
-0.00375056
-0.00349846
-0.00323238
-0.0029526
-0.00266101
-0.0023635
-0.00206801
-0.00178261
-0.00151436
-0.00126868
-0.00104909
-0.000857263
-0.000693237
-0.000555799
-0.000442839
-0.000351711
-0.000279526
-0.000223389
-0.000180553
-0.00014853
-0.000125136
-0.00477266
-0.00437348
-0.00405142
-0.00374511
-0.00344453
-0.00314439
-0.00284164
-0.00253843
-0.00223984
-0.0019518
-0.00168003
-0.0014293
-0.00120292
-0.00100271
-0.000829049
-0.000681124
-0.00055725
-0.000455154
-0.000372254
-0.000305888
-0.000253474
-0.000212621
-0.000181202
-0.0051634
-0.00480915
-0.00443833
-0.00407251
-0.00372916
-0.0034005
-0.0030789
-0.00276328
-0.00245591
-0.00216048
-0.0018812
-0.00162197
-0.00138581
-0.00117454
-0.0009888
-0.000828147
-0.000691284
-0.000576295
-0.000480882
-0.000402602
-0.000339033
-0.000287889
-0.000247089
-0.00603777
-0.00554741
-0.00514672
-0.0047173
-0.00430794
-0.00391297
-0.00352351
-0.00314068
-0.00276942
-0.0024153
-0.00208362
-0.00177877
-0.0015038
-0.00126025
-0.00104822
-0.000866667
-0.000713598
-0.000586425
-0.000482227
-0.000397965
-0.000330659
-0.000277521
-0.000236029
-0.000203969
-0.00613836
-0.0056796
-0.00530378
-0.00485608
-0.00442517
-0.00401481
-0.00361439
-0.00322429
-0.00284909
-0.00249358
-0.00216211
-0.00185818
-0.00158408
-0.00134084
-0.00112827
-0.000945156
-0.000789539
-0.000658941
-0.000550609
-0.000461705
-0.000389453
-0.000331255
-0.000284748
-0.00617839
-0.00573022
-0.00537969
-0.00492633
-0.00448226
-0.00406227
-0.00365592
-0.00326311
-0.00288812
-0.0025351
-0.00220753
-0.00190807
-0.00163832
-0.00139875
-0.00118885
-0.00100721
-0.000851866
-0.000720405
-0.000610228
-0.000518684
-0.000443205
-0.000381386
-0.000331044
-0.00621289
-0.00576339
-0.0054281
-0.00497602
-0.00452436
-0.00409745
-0.00368666
-0.00329184
-0.00291717
-0.00256638
-0.00224229
-0.00194685
-0.00168106
-0.00144496
-0.0012377
-0.00105775
-0.000903061
-0.000771309
-0.000660002
-0.000566643
-0.000488825
-0.000424303
-0.000371036
-0.00618142
-0.00573253
-0.0054033
-0.00496009
-0.00451072
-0.00408503
-0.00367696
-0.0032865
-0.00291762
-0.00257364
-0.00225682
-0.00196854
-0.00170932
-0.00147884
-0.00127602
-0.00109927
-0.00094656
-0.00081566
-0.000704226
-0.000609935
-0.000530557
-0.000464014
-0.000408418
-0.00606192
-0.00562524
-0.00529741
-0.00487067
-0.00443462
-0.00401975
-0.00362276
-0.00324398
-0.0028871
-0.00255509
-0.00224977
-0.0019721
-0.00172225
-0.00149969
-0.00130324
-0.00113131
-0.000981961
-0.00085311
-0.000742596
-0.00064829
-0.000568155
-0.000500296
-0.000442981
-0.00585085
-0.00544229
-0.00511663
-0.00471347
-0.004301
-0.00390611
-0.003528
-0.00316763
-0.0028284
-0.00251296
-0.00222284
-0.00195876
-0.0017207
-0.00150803
-0.00131959
-0.00115387
-0.00100909
-0.000883348
-0.000774701
-0.000681228
-0.000601099
-0.000532605
-0.000474181
-0.00555657
-0.00519087
-0.00487258
-0.00449922
-0.00411864
-0.00375145
-0.00339878
-0.00306238
-0.00274542
-0.00245031
-0.00217842
-0.00193034
-0.00170602
-0.00150484
-0.00132576
-0.00116741
-0.00102822
-0.000906515
-0.00080057
-0.000708695
-0.00062927
-0.000560776
-0.000501817
-0.00519776
-0.00488486
-0.00458149
-0.00424274
-0.00389967
-0.00356566
-0.00324312
-0.00293464
-0.00264322
-0.00237107
-0.00211952
-0.00188914
-0.00167994
-0.00149141
-0.00132269
-0.00117261
-0.00103983
-0.000922913
-0.000820381
-0.00073077
-0.000652671
-0.000584757
-0.000525795
-0.0047987
-0.00454242
-0.00426147
-0.00396034
-0.00365751
-0.00335963
-0.00306984
-0.00279141
-0.00252728
-0.00227952
-0.00204943
-0.00183768
-0.00164438
-0.00146921
-0.00131148
-0.00117028
-0.0010445
-0.000932955
-0.000834408
-0.000747619
-0.000671386
-0.000604563
-0.000546079
-0.00438392
-0.00418246
-0.00392968
-0.00366717
-0.0034047
-0.00314356
-0.00288715
-0.0026393
-0.00240283
-0.00217975
-0.00197137
-0.00177846
-0.00160129
-0.00143972
-0.00129328
-0.00116129
-0.00104289
-0.000937138
-0.000843013
-0.000759495
-0.000685576
-0.000620286
-0.000562705
-0.00397409
-0.0038218
-0.00360035
-0.0033756
-0.00315163
-0.00292595
-0.002702
-0.00248388
-0.00227435
-0.00207532
-0.00188816
-0.00171374
-0.00155247
-0.00140438
-0.00126923
-0.00114656
-0.00103573
-0.000936015
-0.000846618
-0.000766714
-0.000695472
-0.000632084
-0.000575773
-0.00358417
-0.00347349
-0.00328402
-0.00309464
-0.00290597
-0.0027132
-0.00251967
-0.00232951
-0.00214539
-0.00196916
-0.00180219
-0.00164545
-0.00149948
-0.00136448
-0.00124039
-0.00112694
-0.00102371
-0.000930157
-0.000845682
-0.000769635
-0.000701349
-0.000640163
-0.000585429
-0.00322335
-0.00314631
-0.00298743
-0.00283004
-0.00267278
-0.00250967
-0.00234383
-0.00217928
-0.00201857
-0.00186345
-0.00171532
-0.00157518
-0.00144369
-0.00132117
-0.00120773
-0.00110326
-0.00100752
-0.000920137
-0.000840675
-0.000768642
-0.000703516
-0.000644765
-0.00059186
-0.00289595
-0.00284513
-0.00271413
-0.00258487
-0.00245492
-0.00231794
-0.00217678
-0.00203524
-0.00189569
-0.0017598
-0.00162895
-0.00150417
-0.00138618
-0.00127542
-0.0011721
-0.00107626
-0.000987804
-0.000906506
-0.000832067
-0.000764131
-0.0007023
-0.000646157
-0.000595278
-0.00260269
-0.00257173
-0.00246526
-0.00236017
-0.00225357
-0.00213923
-0.00201972
-0.00189854
-0.00177787
-0.00165929
-0.00154411
-0.00143338
-0.00132784
-0.00122802
-0.00113423
-0.0010466
-0.000965156
-0.000889787
-0.000820313
-0.000756491
-0.000698032
-0.000644617
-0.000595913
-0.00234203
-0.00232579
-0.00224032
-0.00215568
-0.00206878
-0.00197382
-0.00187309
-0.00176973
-0.00166574
-0.00156258
-0.00146149
-0.0013635
-0.00126937
-0.00117967
-0.00109476
-0.00101488
-0.000940114
-0.000870466
-0.000805846
-0.000746105
-0.000691043
-0.000640428
-0.000594005
-0.00211122
-0.0021057
-0.00203788
-0.00197029
-0.00189989
-0.0018214
-0.00173682
-0.00164895
-0.00155959
-0.00147007
-0.00138158
-0.00129507
-0.00121132
-0.0011309
-0.00105423
-0.000981598
-0.000913161
-0.000848989
-0.000789071
-0.000733335
-0.000681655
-0.000633871
-0.000589795
-0.00190698
-0.00190919
-0.001856
-0.00180253
-0.00174587
-0.00168128
-0.00161051
-0.00153604
-0.00145945
-0.00138196
-0.00130465
-0.00122844
-0.00115409
-0.00108216
-0.00101309
-0.000947211
-0.000884726
-0.000825761
-0.000770364
-0.000718523
-0.000670175
-0.000625219
-0.000583523
-0.00172604
-0.00173375
-0.00169259
-0.00165075
-0.00160548
-0.0015526
-0.00149362
-0.00143068
-0.0013652
-0.00129827
-0.00123088
-0.00116389
-0.00109801
-0.0010338
-0.000971722
-0.000912101
-0.000855188
-0.000801145
-0.000750066
-0.000701987
-0.000656893
-0.000614732
-0.000575421
-0.00156533
-0.00157693
-0.0015456
-0.0015133
-0.00147749
-0.00143445
-0.00138549
-0.00133248
-0.00127664
-0.00121896
-0.00116034
-0.00110157
-0.00104332
-0.000986123
-0.000930435
-0.000876598
-0.000824878
-0.000775466
-0.000728488
-0.000684017
-0.000642078
-0.000602657
-0.000565712
-0.00142211
-0.00143644
-0.00141314
-0.00138866
-0.00136068
-0.00132591
-0.00128547
-0.00124098
-0.00119351
-0.00114392
-0.00109305
-0.00104159
-0.000990186
-0.000939342
-0.00088949
-0.000840979
-0.000794083
-0.000749009
-0.000705908
-0.00066488
-0.000625979
-0.000589225
-0.000554606
-0.00129401
-0.00131023
-0.00129347
-0.00127541
-0.00125392
-0.0012261
-0.00119291
-0.00115573
-0.00111551
-0.00107301
-0.00102895
-0.00098401
-0.00093874
-0.000893633
-0.000849099
-0.000805479
-0.000763048
-0.000722024
-0.000682573
-0.000644814
-0.000608825
-0.000574649
-0.0005423
-0.00117901
-0.0011965
-0.00118507
-0.00117229
-0.00115618
-0.0011342
-0.00110717
-0.00107628
-0.00104234
-0.00100603
-0.000967998
-0.000928833
-0.00088906
-0.00084913
-0.000809431
-0.000770291
-0.000731984
-0.000694729
-0.000658701
-0.000624034
-0.00059082
-0.000559123
-0.000528977
-0.00107536
-0.00109369
-0.00108663
-0.00107817
-0.00106654
-0.00104949
-0.0010277
-0.00100221
-0.000973714
-0.000942813
-0.000910081
-0.000876049
-0.000841192
-0.000805927
-0.000770617
-0.000735576
-0.000701067
-0.00066731
-0.000634484
-0.000602728
-0.00057215
-0.000542825
-0.000514804
-0.000981623
-0.00100046
-0.000996971
-0.000992081
-0.000984173
-0.000971267
-0.000953948
-0.000933099
-0.000909329
-0.000883158
-0.000855096
-0.000825619
-0.000795157
-0.000764092
-0.000732762
-0.000701462
-0.000670445
-0.000639927
-0.000610085
-0.000581065
-0.000552979
-0.000525915
-0.000499935
-0.000896555
-0.000915653
-0.000915101
-0.00091315
-0.000908347
-0.000898942
-0.000885432
-0.000868578
-0.000848906
-0.000826872
-0.000802924
-0.000777489
-0.000750953
-0.000723666
-0.00069594
-0.000668051
-0.00064024
-0.000612714
-0.000585649
-0.00055919
-0.000533455
-0.000508538
-0.000484508
-0.000819108
-0.000838293
-0.000840149
-0.000840622
-0.000838409
-0.000831962
-0.000821704
-0.000808291
-0.000792178
-0.000773762
-0.00075344
-0.00073159
-0.000708562
-0.000684672
-0.000660207
-0.000635424
-0.000610551
-0.000585785
-0.000561297
-0.00053723
-0.000513706
-0.00049082
-0.000468649
-0.00074839
-0.000767527
-0.00077136
-0.000773836
-0.000773784
-0.000769838
-0.000762359
-0.000751913
-0.000738892
-0.000723643
-0.000706516
-0.000687848
-0.000667951
-0.000647113
-0.000625597
-0.000603641
-0.000581456
-0.000559232
-0.000537131
-0.000515295
-0.000493843
-0.000472874
-0.000452468
-0.000683636
-0.000702624
-0.000708081
-0.000712209
-0.000713961
-0.000712132
-0.00070703
-0.000699143
-0.00068881
-0.000676335
-0.000662025
-0.000646179
-0.000629079
-0.000610983
-0.000592132
-0.000572744
-0.000553018
-0.000533131
-0.000513238
-0.000493478
-0.000473966
-0.000454801
-0.000436066
-0.000624188
-0.000642952
-0.00064974
-0.00065523
-0.000658488
-0.000658451
-0.000655383
-0.000649705
-0.00064171
-0.000631665
-0.00061984
-0.000606499
-0.000591895
-0.000576262
-0.000559817
-0.000542763
-0.000525283
-0.000507542
-0.00048969
-0.000471857
-0.000454156
-0.000436686
-0.000419529
-0.000587962
-0.000595838
-0.000602447
-0.000606961
-0.000608441
-0.000607115
-0.000603345
-0.000597386
-0.000589471
-0.000579837
-0.000568721
-0.000556346
-0.000542923
-0.000528652
-0.000513716
-0.000498286
-0.000482515
-0.000466545
-0.000450499
-0.000434488
-0.000418606
-0.000402936
-0.00873453
-0.00912513
-0.00931545
-0.00932446
-0.00915268
-0.00876638
-0.00801416
-0.00826413
-0.00859524
-0.00877929
-0.008828
-0.00873965
-0.00855452
-0.00814831
-0.007782
-0.00809313
-0.0082886
-0.00838195
-0.00837942
-0.00834709
-0.00819583
-0.00722318
-0.00753701
-0.00776041
-0.00790525
-0.00797732
-0.00805399
-0.0081118
-0.00658418
-0.00690374
-0.0071556
-0.00734914
-0.00748726
-0.00764475
-0.00786561
-0.00591456
-0.00623251
-0.00650269
-0.00673267
-0.00692309
-0.00713506
-0.00746911
-0.0052612
-0.00556699
-0.00584104
-0.00608995
-0.00631347
-0.00655541
-0.00695366
-0.00465442
-0.00493898
-0.00520351
-0.00545409
-0.00569087
-0.00594197
-0.00636051
-0.00410902
-0.0043671
-0.00461291
-0.00485198
-0.00508546
-0.0053297
-0.00573343
-0.00362868
-0.00385878
-0.00408128
-0.00430091
-0.00451972
-0.00474637
-0.0051114
-0.00321013
-0.00341344
-0.00361164
-0.00380854
-0.00400659
-0.00421002
-0.0045238
-0.00284668
-0.003026
-0.00320124
-0.00337535
-0.00355078
-0.00372941
-0.00398905
-0.00253104
-0.00268975
-0.00284444
-0.0029975
-0.00315118
-0.00330615
-0.0035155
-0.00225703
-0.00239771
-0.00253447
-0.00266906
-0.00280329
-0.00293718
-0.00310371
-0.00201837
-0.00214343
-0.00226478
-0.00238356
-0.00250112
-0.00261703
-0.00274936
-0.00180936
-0.00192113
-0.0020294
-0.00213483
-0.00223843
-0.00233941
-0.00244569
-0.00162545
-0.00172595
-0.00182313
-0.00191736
-0.00200938
-0.00209814
-0.00218522
-0.00146297
-0.00155385
-0.00164161
-0.00172642
-0.00180885
-0.00188765
-0.00196083
-0.00131881
-0.00140145
-0.00148115
-0.00155801
-0.00163245
-0.00170312
-0.00176627
-0.00119042
-0.00126593
-0.00133872
-0.00140881
-0.00147653
-0.00154049
-0.00159633
-0.00107562
-0.00114495
-0.00121176
-0.00127604
-0.00133805
-0.0013964
-0.00144679
-0.000972602
-0.00103653
-0.00109815
-0.00115739
-0.0012145
-0.0012681
-0.00131427
-0.000879844
-0.000939033
-0.000996081
-0.00105093
-0.00110377
-0.00115331
-0.00119607
-0.000796043
-0.000851042
-0.000904062
-0.000955039
-0.00100414
-0.00105014
-0.00109007
-0.000720097
-0.000771374
-0.000820817
-0.000868363
-0.000914151
-0.000957044
-0.000994531
-0.000651062
-0.000699014
-0.000745264
-0.000789748
-0.000832581
-0.000872717
-0.000908048
-0.000588129
-0.000633098
-0.000676481
-0.000718217
-0.000758398
-0.000796067
-0.000829462
-0.000530601
-0.000572882
-0.00061368
-0.000652936
-0.000690724
-0.000726172
-0.000757807
-0.000477878
-0.000517727
-0.000556183
-0.000593191
-0.000628809
-0.000662247
-0.00069227
-0.000429436
-0.000467077
-0.000503406
-0.000538369
-0.000572012
-0.00060362
-0.000632158
-0.000454841
-0.000487938
-0.000519776
-0.000549713
-0.000576879
0.00265631
-0.000110411
-0.00257612
-0.00446746
-0.00602402
-0.00724043
-0.00811883
0.00053313
-0.00172119
-0.0036665
-0.00502115
-0.00615846
-0.00706281
-0.00776209
-0.000387991
-0.00221174
-0.00387042
-0.00501734
-0.0059545
-0.00673146
-0.00733546
-0.000953983
-0.00246694
-0.00385014
-0.0048084
-0.00557957
-0.00625667
-0.0068026
-0.00131599
-0.00254721
-0.00366578
-0.00445074
-0.00510042
-0.00569036
-0.00618456
-0.00150999
-0.00250623
-0.00339654
-0.00403874
-0.0045852
-0.00509698
-0.00553975
-0.00158564
-0.00239581
-0.00310036
-0.00362751
-0.00408974
-0.00452553
-0.00491651
-0.0015841
-0.00224843
-0.00280686
-0.00324256
-0.00364108
-0.00400346
-0.00434379
-0.00153409
-0.00208374
-0.00252902
-0.00288964
-0.00322457
-0.00353771
-0.00383361
-0.00145537
-0.00191437
-0.00227312
-0.00257451
-0.00285977
-0.00313035
-0.0033869
-0.00136138
-0.00174818
-0.00204099
-0.00229552
-0.00254091
-0.00277526
-0.00299846
-0.00126092
-0.00158973
-0.00183215
-0.00204933
-0.00226178
-0.0024649
-0.00266064
-0.00115959
-0.0014414
-0.00164501
-0.00183229
-0.00201818
-0.00219789
-0.00236713
-0.00106075
-0.00130414
-0.00147751
-0.00164059
-0.00180389
-0.00196154
-0.00211167
-0.000966309
-0.00117802
-0.00132753
-0.00147086
-0.00161553
-0.00175533
-0.0018891
-0.000877244
-0.00106265
-0.0011931
-0.00132015
-0.00144921
-0.00157413
-0.00169379
-0.000793946
-0.000957365
-0.00107237
-0.00118586
-0.00130165
-0.00141386
-0.0015215
-0.000716454
-0.000861367
-0.000963722
-0.0010658
-0.00117025
-0.00127158
-0.00136893
-0.000644603
-0.000773852
-0.00086572
-0.000958127
-0.00105284
-0.00114482
-0.0012333
-0.000578115
-0.000694028
-0.000777119
-0.000861255
-0.000947562
-0.00103146
-0.00111227
-0.000516658
-0.000621157
-0.000696831
-0.000773847
-0.000852865
-0.000929741
-0.00100388
-0.000459877
-0.000554556
-0.00062391
-0.000694758
-0.000767417
-0.000838165
-0.000906468
-0.000407418
-0.000493605
-0.000557531
-0.000623001
-0.000690089
-0.000755458
-0.000818636
-0.000358938
-0.000437745
-0.000496974
-0.00055773
-0.00061991
-0.000680536
-0.000739188
-0.000314112
-0.000386475
-0.000441611
-0.000498209
-0.000556047
-0.000612472
-0.000667107
-0.000272636
-0.000339346
-0.000390891
-0.000443803
-0.000497782
-0.000550467
-0.000601522
-0.000234227
-0.000295955
-0.000344329
-0.000393958
-0.000444492
-0.000493833
-0.000541682
-0.000198625
-0.000255944
-0.000301501
-0.00034819
-0.000395635
-0.000441974
-0.00048694
-0.000165593
-0.000218992
-0.000262032
-0.000306078
-0.000350741
-0.000394373
-0.000436734
-0.000134914
-0.000184815
-0.000225592
-0.00026725
-0.000309397
-0.000350577
-0.000390576
-0.000106388
-0.000153155
-0.000191889
-0.00023138
-0.000271243
0.00211076
0.00215593
0.00220347
0.00225353
0.00230627
0.00236184
0.00242041
0.00248216
0.00254724
0.00261579
0.00268797
0.00276387
0.00284355
0.002927
0.00301411
0.00310463
0.00319808
0.0032937
0.00339028
0.00348605
0.00357845
0.00366385
0.00373724
0.00379188
0.003819
0.00380761
0.00374476
0.00361653
0.00341039
0.00311918
0.00275139
0.00233265
0.00177533
0.00102997
0.00208769
0.00213091
0.00217629
0.00222392
0.00227393
0.00232644
0.00238157
0.00243941
0.00250006
0.00256359
0.00263004
0.0026994
0.00277158
0.00284643
0.00292365
0.00300275
0.00308302
0.00316341
0.00324242
0.00331798
0.00338721
0.00344626
0.00349001
0.00351181
0.00350324
0.00345402
0.0033521
0.00318433
0.00293755
0.0026004
0.00216921
0.00164255
0.000900371
-0.000148473
0.00206113
0.00210214
0.00214504
0.00218993
0.00223687
0.00228596
0.00233724
0.00239078
0.00244658
0.00250465
0.00256494
0.00262734
0.00269166
0.0027576
0.00282472
0.00289239
0.00295972
0.00302551
0.00308809
0.00314527
0.00319411
0.0032308
0.00325038
0.00324654
0.00321134
0.00313504
0.00300597
0.00281065
0.00253402
0.00215989
0.00167541
0.00107276
0.000264624
-0.000801603
0.00203241
0.00207103
0.00211129
0.00215325
0.00219694
0.00224239
0.00228962
0.00233861
0.00238934
0.00244171
0.0024956
0.0025508
0.00260702
0.00266384
0.00272069
0.0027768
0.00283114
0.00288237
0.00292871
0.00296787
0.00299689
0.00301204
0.00300855
0.00298052
0.00292064
0.00282003
0.0026681
0.00245258
0.00215955
0.00177383
0.00128245
0.000679709
-9.01315e-05
-0.00107763
0.00200183
0.00203797
0.0020755
0.00211443
0.00215476
0.00219649
0.00223959
0.00228398
0.00232958
0.00237624
0.00242375
0.00247183
0.00252008
0.00256801
0.00261493
0.00265998
0.00270203
0.00273964
0.00277098
0.00279372
0.00280498
0.00280114
0.00277772
0.00272929
0.00264923
0.00252966
0.00236134
0.00213367
0.00183488
0.00145232
0.000975009
0.000398672
-0.000311647
-0.00120683
0.00196956
0.00200315
0.00203787
0.0020737
0.00211063
0.00214859
0.00218752
0.00222731
0.0022678
0.0023088
0.00235004
0.00239116
0.00243171
0.00247111
0.00250861
0.00254328
0.00257392
0.00259907
0.00261689
0.0026251
0.00262091
0.00260094
0.00256106
0.00249634
0.00240092
0.00226795
0.00208952
0.00185674
0.00155993
0.00118896
0.000734914
0.000194479
-0.000452976
-0.0012504
0.00193583
0.00196682
0.00199869
0.0020314
0.0020649
0.00209909
0.00213387
0.00216909
0.00220455
0.00224001
0.00227515
0.00230956
0.00234274
0.00237405
0.0024027
0.00242772
0.0024479
0.00246178
0.00246754
0.00246302
0.00244558
0.0024121
0.00235885
0.00228143
0.00217475
0.00203294
0.0018494
0.00161684
0.00132753
0.000973619
0.000548293
4.91748e-05
-0.00053494
-0.0012368
0.00190088
0.00192926
0.00195827
0.00198786
0.00201794
0.0020484
0.00207909
0.00210983
0.0021404
0.0021705
0.00219977
0.00222779
0.00225399
0.00227773
0.00229817
0.00231434
0.00232505
0.00232884
0.00232401
0.0023085
0.00227988
0.0022353
0.00217144
0.00208445
0.00196996
0.00182306
0.0016383
0.00140988
0.00113179
0.000798169
0.000404077
-5.20307e-05
-0.000575534
-0.00118958
0.00186495
0.00189072
0.00191689
0.00194339
0.00197011
0.0019969
0.00202361
0.00205001
0.00207585
0.00210082
0.00212453
0.00214651
0.00216619
0.00218291
0.00219583
0.00220399
0.00220622
0.00220114
0.00218714
0.0021623
0.00212443
0.00207095
0.00199894
0.00190511
0.00178573
0.00163675
0.0014538
0.00123231
0.000967738
0.000655843
0.000293236
-0.00012096
-0.000588584
-0.00112463
0.00182827
0.00185146
0.00187483
0.0018983
0.00192173
0.00194497
0.00196782
0.00199005
0.00201138
0.00203148
0.00204995
0.0020663
0.00207995
0.00209024
0.00209635
0.00209733
0.00209208
0.00207929
0.00205746
0.00202485
0.00197948
0.00191906
0.00184108
0.0017427
0.00162085
0.00147219
0.00129328
0.00108059
0.000830773
0.000540865
0.000208672
-0.000166143
-0.00058328
-0.00105134
0.00179105
0.0018117
0.00183234
0.00185286
0.00187311
0.00189292
0.00191208
0.00193034
0.00194741
0.00196293
0.00197651
0.00198765
0.00199578
0.00200024
0.00200023
0.00199487
0.00198309
0.0019637
0.0019353
0.00189634
0.00184503
0.00177941
0.00169729
0.0015963
0.00147389
0.0013274
0.00115412
0.000951405
0.000716836
0.000448432
0.000144903
-0.000193673
-0.000565726
-0.000975175
0.00175349
0.00177167
0.00178967
0.00180734
0.00182453
0.00184106
0.00185671
0.00187122
0.00188428
0.00189555
0.00190461
0.00191098
0.00191409
0.00191331
0.00190789
0.00189697
0.00187958
0.0018546
0.00182079
0.00177674
0.0017209
0.00165156
0.00156686
0.00146483
0.00134339
0.00120043
0.00103387
0.000841761
0.000622414
0.000374587
9.76538e-05
-0.000208003
-0.000540089
-0.00089929
0.00171578
0.00173157
0.00174701
0.00176195
0.00177623
0.00178965
0.00180199
0.00181298
0.00182232
0.00182965
0.00183457
0.0018366
0.00183521
0.00182978
0.0018196
0.00180388
0.00178171
0.0017521
0.00171391
0.00166591
0.00160674
0.00153494
0.00144895
0.00134714
0.00122784
0.0010894
0.000930251
0.000748986
0.000544489
0.000316063
6.35536e-05
-0.000212443
-0.000509256
-0.000825442
0.00167808
0.00169158
0.00170458
0.00171692
0.00172844
0.00173893
0.00174816
0.00175588
0.00176178
0.0017655
0.00176665
0.00176478
0.00175937
0.00174984
0.00173553
0.00171571
0.00168955
0.00165615
0.00161451
0.00156354
0.00150208
0.00142888
0.00134265
0.00124206
0.00112578
0.000992535
0.000841172
0.000670716
0.000480474
0.000270149
3.99166e-05
-0.00020949
-0.000475243
-0.000754579
0.00164056
0.00165187
0.00166254
0.00167242
0.00168133
0.00168908
0.00169543
0.00170013
0.00170286
0.0017033
0.00170106
0.0016957
0.00168674
0.00167364
0.00165579
0.00163251
0.00160306
0.00156664
0.00152236
0.00146929
0.00140641
0.00133269
0.00124706
0.00114845
0.00103581
0.000908198
0.000764765
0.000604875
0.000428156
0.000234595
2.45873e-05
-0.000201056
-0.000439485
-0.000687188
0.00160335
0.00161257
0.00162105
0.00162861
0.00163509
0.00164029
0.00164397
0.00164589
0.00164574
0.00164321
0.00163793
0.00162949
0.00161743
0.00160125
0.00158039
0.00155424
0.00152214
0.00148337
0.00143717
0.00138271
0.00131915
0.00124562
0.00116126
0.0010652
0.000956649
0.000834893
0.000699357
0.000549656
0.000385652
0.00020753
1.58271e-05
-0.000188614
-0.000403011
-0.000623486
0.00156657
0.00157383
0.00158023
0.00158563
0.00158985
0.00159268
0.00159392
0.0015933
0.00159055
0.00158535
0.00157737
0.00156622
0.00155147
0.00153267
0.0015093
0.00148082
0.00144663
0.0014061
0.00135857
0.00130335
0.00123971
0.00116696
0.00108437
0.000991275
0.00088708
0.00077127
0.000643472
0.000503492
0.000351362
0.000187403
1.22305e-05
-0.000173311
-0.000366559
-0.000563529
0.00153034
0.00153574
0.00154021
0.0015436
0.00154572
0.00154638
0.00154537
0.00154246
0.00153737
0.0015298
0.00151945
0.00150594
0.00148889
0.00146787
0.00144244
0.00141209
0.0013763
0.00133453
0.00128621
0.00123073
0.00116752
0.00109597
0.00101554
0.000925701
0.00082601
0.000716119
0.000595809
0.00046503
0.000323934
0.000172925
1.26617e-05
-0.000156035
-0.000330657
-0.000507273
0.00149474
0.00149841
0.00150108
0.0015026
0.00150279
0.00150147
0.00149843
0.00149344
0.00148626
0.0014766
0.00146417
0.00144863
0.00142963
0.00140678
0.00137968
0.00134789
0.00131094
0.00126837
0.00121968
0.00116438
0.00110197
0.00103199
0.000953993
0.000867585
0.00077245
0.000668367
0.000555235
0.000433108
0.000302222
0.000163031
1.6204e-05
-0.000137478
-0.000295672
-0.000454606
0.00145986
0.00146192
0.00146292
0.00146271
0.00146113
0.00145801
0.00145314
0.0014463
0.00143727
0.00142577
0.00141154
0.00139427
0.00137364
0.0013493
0.00132089
0.00128801
0.00125028
0.00120728
0.0011586
0.00110381
0.00104253
0.000974374
0.000898996
0.000816114
0.00072551
0.000627062
0.00052076
0.000406732
0.000285266
0.000156843
2.21192e-05
-0.000118169
-0.000261854
-0.00040538
0.00142576
0.00142632
0.00142578
0.001424
0.00142081
0.00141606
0.00140954
0.00140106
0.00139039
0.0013773
0.00136153
0.00134281
0.00132084
0.0012953
0.00126589
0.00123226
0.00119407
0.00115095
0.00110257
0.00104859
0.000988666
0.000922516
0.000849878
0.00077055
0.000684396
0.00059137
0.000491528
0.00038505
0.000272257
0.000153633
2.98147e-05
-9.85155e-05
-0.000229363
-0.00035942
0.0013925
0.00139168
0.00138973
0.00138651
0.00138186
0.00137563
0.00136765
0.00135772
0.00134563
0.00133116
0.00131409
0.00129416
0.00127111
0.00124465
0.00121452
0.00118041
0.00114202
0.00109906
0.00105123
0.000998254
0.000939875
0.000875861
0.000806024
0.000730228
0.000648403
0.000560558
0.000466799
0.000367339
0.000262516
0.000152807
3.88163e-05
-7.8826e-05
-0.000198294
-0.000316539
0.00136012
0.00135804
0.00135479
0.00135026
0.0013443
0.00133676
0.00132748
0.00131627
0.00130295
0.00128732
0.00126915
0.00124824
0.00122433
0.0011972
0.00116658
0.00113222
0.00109387
0.00105128
0.0010042
0.000952407
0.000895698
0.000833899
0.000766879
0.000694554
0.000616905
0.000533985
0.000445932
0.000352982
0.000255474
0.000153874
4.8746e-05
-5.93308e-05
-0.00016869
-0.000276545
0.00132866
0.00132541
0.00132099
0.00131528
0.00130814
0.00129944
0.00128901
0.0012767
0.00126232
0.0012457
0.00122664
0.00120494
0.0011804
0.00115278
0.00112189
0.00108749
0.00104937
0.00100732
0.000961143
0.000910658
0.000855706
0.000796161
0.000731937
0.000662995
0.000589352
0.000511093
0.000428378
0.000341454
0.000250658
0.000156431
5.93034e-05
-4.01997e-05
-0.000140562
-0.000239247
0.00129814
0.00129383
0.00128835
0.00128158
0.00127339
0.00126366
0.00125223
0.00123896
0.00122369
0.00120626
0.00118647
0.00116417
0.00113916
0.00111125
0.00108025
0.00104598
0.00100825
0.000966888
0.000921734
0.000872646
0.000819504
0.000762222
0.000700748
0.000635078
0.000565257
0.000491394
0.000413662
0.000332311
0.000247668
0.000160152
7.02514e-05
-2.1555e-05
-0.000113892
-0.00020446
0.00126858
0.00126331
0.00125687
0.00124915
0.00124003
0.0012294
0.00121711
0.00120302
0.00118701
0.0011689
0.00114856
0.0011258
0.00110048
0.00107243
0.00104149
0.00100748
0.000970272
0.00092971
0.000885669
0.000838038
0.000786732
0.000731694
0.000672904
0.000610382
0.000544195
0.000474467
0.000401378
0.000325175
0.000246174
0.000164767
8.14035e-05
-3.48176e-06
-8.86431e-05
-0.000172006
0.00123999
0.00123385
0.00122655
0.00121799
0.00120805
0.00119663
0.0011836
0.00116883
0.0011522
0.00113357
0.00111279
0.00108973
0.00106424
0.00103618
0.00100541
0.000971793
0.000935205
0.000895529
0.000852663
0.000806526
0.000757059
0.00070423
0.000648042
0.000588534
0.000525791
0.000459943