/*--------------------------------*- C++ -*----------------------------------*\
| =========                 |                                                 |
| \\      /  F ield         | OpenFOAM: The Open Source CFD Toolbox           |
|  \\    /   O peration     | Version:  2412                                  |
|   \\  /    A nd           | Website:  www.openfoam.com                      |
|    \\/     M anipulation  |                                                 |
\*---------------------------------------------------------------------------*/
FoamFile
{
    version     2.0;
    format      ascii;
    arch        "LSB;label=32;scalar=64";
    class       volVectorField;
    location    "6";
    object      U;
}
// * * * * * * * * * * * * * * * * * * * * * * * * * * * * * * * * * * * * * //

dimensions      [0 1 -1 0 0 0 0];

internalField   nonuniform List<vector> 
5285
(
(0.100783 0.00285374 0)
(0.100728 0.00280668 0)
(0.100675 0.00275849 0)
(0.100623 0.00270925 0)
(0.100574 0.00265905 0)
(0.100526 0.00260797 0)
(0.100479 0.0025561 0)
(0.100435 0.0025035 0)
(0.100392 0.00245022 0)
(0.100351 0.0023963 0)
(0.100312 0.00234179 0)
(0.100275 0.00228675 0)
(0.100239 0.00223129 0)
(0.100206 0.00217555 0)
(0.100175 0.00211967 0)
(0.100145 0.00206379 0)
(0.100118 0.00200802 0)
(0.100092 0.00195245 0)
(0.100068 0.00189711 0)
(0.100046 0.00184202 0)
(0.100026 0.00178718 0)
(0.100008 0.00173262 0)
(0.0999913 0.00167835 0)
(0.0999762 0.00162442 0)
(0.0999627 0.00157087 0)
(0.0999507 0.00151778 0)
(0.09994 0.00146518 0)
(0.0999307 0.00141317 0)
(0.0999227 0.00136179 0)
(0.0999159 0.00131111 0)
(0.0999102 0.00126119 0)
(0.0999056 0.00121208 0)
(0.099902 0.00116383 0)
(0.0998993 0.00111649 0)
(0.0998975 0.00107009 0)
(0.0998965 0.00102468 0)
(0.0998963 0.000980283 0)
(0.0998968 0.000936935 0)
(0.0998979 0.000894659 0)
(0.0998996 0.000853475 0)
(0.0999018 0.0008134 0)
(0.0999045 0.00077445 0)
(0.0999077 0.000736635 0)
(0.0999112 0.000699962 0)
(0.100733 0.0029122 0)
(0.100678 0.00286237 0)
(0.100625 0.00281144 0)
(0.100573 0.00275949 0)
(0.100524 0.00270662 0)
(0.100476 0.00265292 0)
(0.10043 0.00259848 0)
(0.100385 0.00254336 0)
(0.100343 0.00248763 0)
(0.100303 0.00243132 0)
(0.100264 0.00237447 0)
(0.100228 0.00231717 0)
(0.100193 0.0022595 0)
(0.100161 0.00220162 0)
(0.10013 0.00214365 0)
(0.100101 0.00208576 0)
(0.100075 0.00202807 0)
(0.10005 0.00197065 0)
(0.100027 0.00191356 0)
(0.100007 0.00185681 0)
(0.0999875 0.00180042 0)
(0.0999703 0.0017444 0)
(0.0999547 0.00168878 0)
(0.0999408 0.00163359 0)
(0.0999284 0.00157887 0)
(0.0999175 0.00152469 0)
(0.0999081 0.0014711 0)
(0.0998999 0.00141816 0)
(0.0998931 0.00136594 0)
(0.0998874 0.00131448 0)
(0.0998829 0.00126386 0)
(0.0998794 0.00121411 0)
(0.0998769 0.00116528 0)
(0.0998754 0.00111741 0)
(0.0998747 0.00107054 0)
(0.0998748 0.00102471 0)
(0.0998756 0.000979951 0)
(0.0998771 0.000936277 0)
(0.0998792 0.000893717 0)
(0.0998819 0.000852289 0)
(0.0998851 0.000812006 0)
(0.0998887 0.00077288 0)
(0.0998927 0.00073492 0)
(0.0998971 0.00069813 0)
(0.100681 0.00297091 0)
(0.100626 0.00291819 0)
(0.100573 0.00286441 0)
(0.100521 0.00280966 0)
(0.100472 0.00275403 0)
(0.100424 0.00269763 0)
(0.100378 0.00264054 0)
(0.100334 0.00258284 0)
(0.100293 0.00252459 0)
(0.100253 0.00246582 0)
(0.100215 0.00240659 0)
(0.100179 0.00234697 0)
(0.100145 0.00228705 0)
(0.100114 0.00222699 0)
(0.100084 0.00216692 0)
(0.100056 0.002107 0)
(0.100031 0.00204736 0)
(0.100007 0.00198808 0)
(0.0999855 0.00192923 0)
(0.0999658 0.00187083 0)
(0.0999479 0.00181288 0)
(0.0999318 0.00175541 0)
(0.0999174 0.00169843 0)
(0.0999047 0.00164198 0)
(0.0998935 0.0015861 0)
(0.0998838 0.00153085 0)
(0.0998755 0.00147627 0)
(0.0998686 0.00142243 0)
(0.0998629 0.00136937 0)
(0.0998584 0.00131716 0)
(0.0998551 0.00126585 0)
(0.0998528 0.00121548 0)
(0.0998514 0.00116609 0)
(0.099851 0.00111772 0)
(0.0998515 0.00107041 0)
(0.0998527 0.00102419 0)
(0.0998546 0.000979075 0)
(0.0998571 0.0009351 0)
(0.0998603 0.000892279 0)
(0.0998639 0.000850629 0)
(0.0998681 0.00081016 0)
(0.0998726 0.000770881 0)
(0.0998776 0.000732798 0)
(0.0998828 0.000695912 0)
(0.100626 0.00302977 0)
(0.100571 0.00297405 0)
(0.100517 0.00291732 0)
(0.100466 0.00285966 0)
(0.100417 0.00280119 0)
(0.10037 0.002742 0)
(0.100324 0.00268219 0)
(0.100281 0.00262184 0)
(0.10024 0.002561 0)
(0.100201 0.00249972 0)
(0.100164 0.00243806 0)
(0.100129 0.00237607 0)
(0.100096 0.00231387 0)
(0.100065 0.00225158 0)
(0.100037 0.00218938 0)
(0.10001 0.00212741 0)
(0.0999855 0.00206581 0)
(0.099963 0.00200468 0)
(0.0999425 0.00194407 0)
(0.099924 0.00188401 0)
(0.0999073 0.00182451 0)
(0.0998924 0.00176559 0)
(0.0998792 0.00170727 0)
(0.0998677 0.00164957 0)
(0.0998578 0.00159254 0)
(0.0998493 0.00153623 0)
(0.0998423 0.00148068 0)
(0.0998366 0.00142594 0)
(0.0998321 0.00137208 0)
(0.0998289 0.00131913 0)
(0.0998267 0.00126715 0)
(0.0998256 0.00121618 0)
(0.0998255 0.00116626 0)
(0.0998262 0.00111741 0)
(0.0998278 0.00106968 0)
(0.0998301 0.00102308 0)
(0.0998331 0.000977648 0)
(0.0998367 0.000933395 0)
(0.0998409 0.000890338 0)
(0.0998456 0.000848489 0)
(0.0998507 0.000807857 0)
(0.0998562 0.000768448 0)
(0.0998621 0.000730263 0)
(0.0998682 0.000693304 0)
(0.100567 0.00308866 0)
(0.100512 0.00302984 0)
(0.100459 0.00297005 0)
(0.100408 0.0029094 0)
(0.100359 0.00284799 0)
(0.100313 0.00278594 0)
(0.100268 0.00272334 0)
(0.100225 0.00266026 0)
(0.100185 0.00259678 0)
(0.100146 0.00253294 0)
(0.10011 0.00246878 0)
(0.100076 0.00240439 0)
(0.100044 0.00233985 0)
(0.100015 0.00227533 0)
(0.0999873 0.00221097 0)
(0.0999619 0.00214694 0)
(0.0999386 0.00208337 0)
(0.0999174 0.00202038 0)
(0.0998982 0.00195801 0)
(0.0998809 0.0018963 0)
(0.0998655 0.00183526 0)
(0.0998519 0.0017749 0)
(0.09984 0.00171525 0)
(0.0998298 0.00165632 0)
(0.0998211 0.00159815 0)
(0.099814 0.00154079 0)
(0.0998082 0.00148429 0)
(0.0998038 0.00142869 0)
(0.0998007 0.00137403 0)
(0.0997987 0.00132037 0)
(0.0997978 0.00126775 0)
(0.0997979 0.0012162 0)
(0.099799 0.00116576 0)
(0.0998009 0.00111646 0)
(0.0998036 0.00106833 0)
(0.0998071 0.00102139 0)
(0.0998112 0.000975659 0)
(0.0998159 0.000931153 0)
(0.0998211 0.000887884 0)
(0.0998269 0.000845862 0)
(0.099833 0.000805091 0)
(0.0998394 0.000765575 0)
(0.0998462 0.000727313 0)
(0.0998532 0.000690302 0)
(0.100505 0.00314748 0)
(0.100451 0.00308543 0)
(0.100398 0.00302248 0)
(0.100347 0.00295874 0)
(0.100299 0.00289431 0)
(0.100253 0.00282932 0)
(0.100209 0.00276385 0)
(0.100167 0.002698 0)
(0.100127 0.00263182 0)
(0.10009 0.00256535 0)
(0.100055 0.00249866 0)
(0.100022 0.00243182 0)
(0.099991 0.00236493 0)
(0.0999626 0.00229813 0)
(0.0999363 0.0022316 0)
(0.0999122 0.00216549 0)
(0.0998902 0.00209996 0)
(0.0998703 0.00203511 0)
(0.0998524 0.00197099 0)
(0.0998365 0.00190764 0)
(0.0998224 0.00184508 0)
(0.0998102 0.0017833 0)
(0.0997997 0.00172233 0)
(0.0997908 0.00166218 0)
(0.0997835 0.0016029 0)
(0.0997777 0.00154452 0)
(0.0997733 0.00148708 0)
(0.0997703 0.00143062 0)
(0.0997684 0.0013752 0)
(0.0997677 0.00132085 0)
(0.0997681 0.00126761 0)
(0.0997695 0.00121551 0)
(0.0997718 0.00116459 0)
(0.099775 0.00111486 0)
(0.0997789 0.00106636 0)
(0.0997835 0.0010191 0)
(0.0997888 0.000973097 0)
(0.0997946 0.000928364 0)
(0.0998009 0.00088491 0)
(0.0998077 0.00084274 0)
(0.0998148 0.000801855 0)
(0.0998223 0.000762256 0)
(0.09983 0.00072394 0)
(0.0998379 0.0006869 0)
(0.10044 0.00320607 0)
(0.100385 0.00314069 0)
(0.100333 0.00307449 0)
(0.100283 0.00300756 0)
(0.100235 0.00294003 0)
(0.10019 0.00287202 0)
(0.100147 0.00280363 0)
(0.100106 0.00273493 0)
(0.100067 0.00266599 0)
(0.100031 0.00259686 0)
(0.0999966 0.0025276 0)
(0.0999649 0.00245827 0)
(0.0999354 0.00238898 0)
(0.0999083 0.0023199 0)
(0.0998833 0.00225118 0)
(0.0998606 0.002183 0)
(0.09984 0.0021155 0)
(0.0998216 0.0020488 0)
(0.0998051 0.00198295 0)
(0.0997907 0.00191797 0)
(0.0997781 0.0018539 0)
(0.0997673 0.00179072 0)
(0.0997582 0.00172845 0)
(0.0997508 0.00166711 0)
(0.0997449 0.00160673 0)
(0.0997406 0.00154735 0)
(0.0997376 0.001489 0)
(0.0997359 0.00143172 0)
(0.0997354 0.00137556 0)
(0.0997361 0.00132055 0)
(0.0997378 0.00126672 0)
(0.0997405 0.00121409 0)
(0.0997441 0.00116271 0)
(0.0997486 0.00111259 0)
(0.0997537 0.00106374 0)
(0.0997595 0.00101619 0)
(0.0997659 0.00096995 0)
(0.0997729 0.000925019 0)
(0.0997803 0.000881406 0)
(0.0997881 0.000839114 0)
(0.0997963 0.000798142 0)
(0.0998047 0.000758486 0)
(0.0998134 0.00072014 0)
(0.0998222 0.000683096 0)
(0.10037 0.0032643 0)
(0.100316 0.00319548 0)
(0.100264 0.00312592 0)
(0.100215 0.00305572 0)
(0.100168 0.00298501 0)
(0.100124 0.00291391 0)
(0.100081 0.00284252 0)
(0.100042 0.00277093 0)
(0.100004 0.00269918 0)
(0.0999689 0.00262735 0)
(0.0999361 0.00255547 0)
(0.0999057 0.00248362 0)
(0.0998777 0.00241193 0)
(0.0998519 0.00234054 0)
(0.0998285 0.00226962 0)
(0.0998073 0.00219937 0)
(0.0997882 0.00212992 0)
(0.0997713 0.00206137 0)
(0.0997564 0.0019938 0)
(0.0997435 0.00192722 0)
(0.0997324 0.00186165 0)
(0.0997232 0.0017971 0)
(0.0997156 0.00173356 0)
(0.0997097 0.00167105 0)
(0.0997054 0.0016096 0)
(0.0997025 0.00154925 0)
(0.099701 0.00149002 0)
(0.0997008 0.00143195 0)
(0.0997018 0.00137508 0)
(0.0997038 0.00131943 0)
(0.099707 0.00126504 0)
(0.099711 0.00121193 0)
(0.0997159 0.00116012 0)
(0.0997216 0.00110963 0)
(0.0997281 0.00106047 0)
(0.0997351 0.00101266 0)
(0.0997427 0.000966205 0)
(0.0997508 0.000921105 0)
(0.0997593 0.000877363 0)
(0.0997682 0.000834977 0)
(0.0997774 0.000793945 0)
(0.0997869 0.000754258 0)
(0.0997965 0.000715908 0)
(0.0998063 0.000678883 0)
(0.100297 0.003322 0)
(0.100243 0.00324964 0)
(0.100192 0.00317662 0)
(0.100144 0.00310307 0)
(0.100098 0.0030291 0)
(0.100054 0.00295484 0)
(0.100013 0.0028804 0)
(0.0999746 0.00280585 0)
(0.0999384 0.00273126 0)
(0.0999046 0.00265668 0)
(0.0998733 0.00258216 0)
(0.0998443 0.00250777 0)
(0.0998178 0.00243365 0)
(0.0997936 0.00235994 0)
(0.0997717 0.00228684 0)
(0.0997521 0.00221451 0)
(0.0997347 0.00214311 0)
(0.0997194 0.00207274 0)
(0.0997062 0.00200347 0)
(0.0996949 0.00193531 0)
(0.0996855 0.00186828 0)
(0.0996779 0.00180238 0)
(0.099672 0.00173759 0)
(0.0996677 0.00167395 0)
(0.099665 0.00161147 0)
(0.0996637 0.00155017 0)
(0.0996637 0.0014901 0)
(0.099665 0.00143127 0)
(0.0996675 0.00137372 0)
(0.099671 0.00131747 0)
(0.0996756 0.00126255 0)
(0.099681 0.00120898 0)
(0.0996873 0.00115678 0)
(0.0996943 0.00110596 0)
(0.099702 0.00105653 0)
(0.0997103 0.00100849 0)
(0.0997192 0.00096185 0)
(0.0997284 0.000916611 0)
(0.0997381 0.00087277 0)
(0.0997481 0.00083032 0)
(0.0997583 0.000789255 0)
(0.0997688 0.000749565 0)
(0.0997794 0.000711237 0)
(0.0997902 0.000674257 0)
(0.100219 0.003379 0)
(0.100167 0.00330299 0)
(0.100117 0.00322643 0)
(0.100069 0.00314943 0)
(0.100024 0.00307214 0)
(0.099982 0.00299466 0)
(0.0999422 0.00291711 0)
(0.0999049 0.00283957 0)
(0.0998701 0.00276209 0)
(0.0998378 0.00268473 0)
(0.099808 0.00260754 0)
(0.0997807 0.0025306 0)
(0.0997558 0.00245404 0)
(0.0997333 0.00237802 0)
(0.0997132 0.00230272 0)
(0.0996953 0.00222833 0)
(0.0996797 0.002155 0)
(0.0996662 0.00208283 0)
(0.0996547 0.00201188 0)
(0.0996452 0.00194218 0)
(0.0996375 0.00187372 0)
(0.0996316 0.00180649 0)
(0.0996274 0.0017405 0)
(0.0996249 0.00167576 0)
(0.0996238 0.00161227 0)
(0.0996241 0.00155008 0)
(0.0996258 0.00148919 0)
(0.0996286 0.00142963 0)
(0.0996327 0.00137144 0)
(0.0996377 0.00131464 0)
(0.0996438 0.00125923 0)
(0.0996507 0.00120524 0)
(0.0996583 0.00115268 0)
(0.0996667 0.00110156 0)
(0.0996758 0.00105189 0)
(0.0996853 0.00100366 0)
(0.0996954 0.000956871 0)
(0.0997059 0.000911527 0)
(0.0997167 0.000867618 0)
(0.0997278 0.000825135 0)
(0.0997391 0.000784068 0)
(0.0997506 0.000744402 0)
(0.0997622 0.000706124 0)
(0.0997739 0.000669215 0)
(0.100137 0.00343511 0)
(0.100086 0.00335536 0)
(0.100037 0.00327516 0)
(0.099991 0.00319465 0)
(0.0999474 0.00311396 0)
(0.0999064 0.00303321 0)
(0.0998681 0.0029525 0)
(0.0998323 0.00287193 0)
(0.0997991 0.00279153 0)
(0.0997685 0.00271137 0)
(0.0997405 0.00263149 0)
(0.0997149 0.00255199 0)
(0.0996918 0.00247299 0)
(0.0996712 0.00239465 0)
(0.0996529 0.00231717 0)
(0.0996369 0.00224074 0)
(0.0996231 0.00216549 0)
(0.0996115 0.00209155 0)
(0.0996019 0.00201896 0)
(0.0995942 0.00194774 0)
(0.0995884 0.00187788 0)
(0.0995844 0.00180937 0)
(0.099582 0.00174222 0)
(0.0995812 0.00167641 0)
(0.0995819 0.00161197 0)
(0.0995839 0.00154891 0)
(0.0995873 0.00148725 0)
(0.0995918 0.00142702 0)
(0.0995974 0.00136823 0)
(0.0996041 0.0013109 0)
(0.0996116 0.00125505 0)
(0.09962 0.00120068 0)
(0.0996291 0.0011478 0)
(0.0996389 0.00109642 0)
(0.0996493 0.00104654 0)
(0.0996602 0.000998154 0)
(0.0996715 0.000951257 0)
(0.0996832 0.000905842 0)
(0.0996952 0.000861899 0)
(0.0997074 0.000819414 0)
(0.0997198 0.000778375 0)
(0.0997324 0.000738764 0)
(0.099745 0.000700563 0)
(0.0997576 0.000663753 0)
(0.100052 0.00349013 0)
(0.100002 0.00340653 0)
(0.099954 0.00332262 0)
(0.0999092 0.00323852 0)
(0.0998671 0.00315438 0)
(0.0998277 0.0030703 0)
(0.099791 0.0029864 0)
(0.099757 0.00290276 0)
(0.0997256 0.00281942 0)
(0.0996968 0.00273644 0)
(0.0996706 0.00265388 0)
(0.099647 0.00257181 0)
(0.0996259 0.00249036 0)
(0.0996072 0.00240972 0)
(0.0995909 0.00233008 0)
(0.0995769 0.00225162 0)
(0.0995651 0.0021745 0)
(0.0995555 0.00209882 0)
(0.0995479 0.00202462 0)
(0.0995422 0.00195192 0)
(0.0995383 0.0018807 0)
(0.0995362 0.00181096 0)
(0.0995358 0.00174268 0)
(0.0995368 0.00167586 0)
(0.0995393 0.0016105 0)
(0.0995432 0.00154663 0)
(0.0995482 0.00148424 0)
(0.0995545 0.00142337 0)
(0.0995618 0.00136403 0)
(0.0995701 0.00130623 0)
(0.0995792 0.00124997 0)
(0.0995891 0.00119527 0)
(0.0995997 0.00114212 0)
(0.0996109 0.00109052 0)
(0.0996227 0.00104047 0)
(0.0996349 0.000991968 0)
(0.0996475 0.000944996 0)
(0.0996605 0.000899546 0)
(0.0996737 0.000855602 0)
(0.099687 0.00081315 0)
(0.0997006 0.000772171 0)
(0.0997142 0.000732644 0)
(0.0997278 0.000694551 0)
(0.0997414 0.000657866 0)
(0.0999619 0.00354383 0)
(0.0999131 0.00345631 0)
(0.0998671 0.00336861 0)
(0.0998239 0.00328086 0)
(0.0997835 0.00319321 0)
(0.0997459 0.00310577 0)
(0.099711 0.00301864 0)
(0.0996789 0.00293191 0)
(0.0996495 0.00284561 0)
(0.0996227 0.00275981 0)
(0.0995985 0.00267455 0)
(0.099577 0.00258992 0)
(0.099558 0.00250605 0)
(0.0995414 0.00242313 0)
(0.0995272 0.00234135 0)
(0.0995154 0.0022609 0)
(0.0995058 0.00218193 0)
(0.0994982 0.00210454 0)
(0.0994927 0.00202877 0)
(0.0994891 0.00195464 0)
(0.0994873 0.00188212 0)
(0.0994873 0.00181119 0)
(0.0994888 0.00174183 0)
(0.0994918 0.00167404 0)
(0.0994962 0.00160782 0)
(0.0995019 0.00154318 0)
(0.0995088 0.00148013 0)
(0.0995168 0.00141867 0)
(0.0995259 0.00135883 0)
(0.0995358 0.00130059 0)
(0.0995465 0.00124398 0)
(0.099558 0.00118899 0)
(0.0995702 0.00113561 0)
(0.0995829 0.00108384 0)
(0.099596 0.00103366 0)
(0.0996096 0.000985083 0)
(0.0996235 0.000938077 0)
(0.0996377 0.000892629 0)
(0.0996521 0.000848722 0)
(0.0996667 0.000806336 0)
(0.0996813 0.00076545 0)
(0.099696 0.00072604 0)
(0.0997106 0.000688083 0)
(0.0997252 0.000651553 0)
(0.0998678 0.00359599 0)
(0.0998206 0.00350446 0)
(0.0997763 0.00341291 0)
(0.0997349 0.00332146 0)
(0.0996965 0.00323025 0)
(0.0996608 0.00313941 0)
(0.099628 0.00304903 0)
(0.099598 0.00295919 0)
(0.0995707 0.00286994 0)
(0.0995462 0.00278131 0)
(0.0995242 0.00269337 0)
(0.0995049 0.00260619 0)
(0.0994882 0.00251992 0)
(0.0994739 0.00243474 0)
(0.099462 0.00235085 0)
(0.0994524 0.00226845 0)
(0.0994451 0.00218767 0)
(0.0994398 0.00210862 0)
(0.0994365 0.00203134 0)
(0.0994351 0.00195582 0)
(0.0994355 0.00188205 0)
(0.0994375 0.00180998 0)
(0.0994411 0.00173961 0)
(0.0994461 0.00167091 0)
(0.0994525 0.00160388 0)
(0.0994602 0.00153853 0)
(0.099469 0.00147486 0)
(0.0994788 0.00141287 0)
(0.0994896 0.00135258 0)
(0.0995013 0.00129397 0)
(0.0995137 0.00123705 0)
(0.0995268 0.00118181 0)
(0.0995405 0.00112825 0)
(0.0995547 0.00107635 0)
(0.0995693 0.0010261 0)
(0.0995843 0.000977489 0)
(0.0995995 0.000930489 0)
(0.099615 0.000885083 0)
(0.0996306 0.00084125 0)
(0.0996464 0.000798966 0)
(0.0996621 0.000758207 0)
(0.0996778 0.000718946 0)
(0.0996935 0.000681156 0)
(0.0997091 0.00064481 0)
(0.0997693 0.00364635 0)
(0.099724 0.00355075 0)
(0.0996817 0.00345528 0)
(0.0996424 0.00336009 0)
(0.0996061 0.0032653 0)
(0.0995726 0.00317103 0)
(0.0995421 0.00307739 0)
(0.0995144 0.00298444 0)
(0.0994895 0.00289223 0)
(0.0994673 0.00280079 0)
(0.0994477 0.00271018 0)
(0.0994308 0.00262048 0)
(0.0994165 0.00253184 0)
(0.0994047 0.00244444 0)
(0.0993952 0.00235849 0)
(0.099388 0.00227417 0)
(0.0993831 0.00219164 0)
(0.0993802 0.00211098 0)
(0.0993792 0.00203224 0)
(0.0993801 0.0019554 0)
(0.0993828 0.00188043 0)
(0.099387 0.00180729 0)
(0.0993928 0.00173596 0)
(0.0993999 0.00166641 0)
(0.0994084 0.00159863 0)
(0.0994181 0.00153263 0)
(0.0994288 0.0014684 0)
(0.0994406 0.00140594 0)
(0.0994532 0.00134525 0)
(0.0994666 0.00128633 0)
(0.0994808 0.00122916 0)
(0.0994955 0.00117373 0)
(0.0995108 0.00112004 0)
(0.0995265 0.00106806 0)
(0.0995426 0.00101778 0)
(0.099559 0.000969174 0)
(0.0995756 0.000922222 0)
(0.0995923 0.000876899 0)
(0.0996092 0.000833179 0)
(0.0996261 0.000791034 0)
(0.099643 0.000750437 0)
(0.0996598 0.000711359 0)
(0.0996765 0.000673769 0)
(0.0996931 0.000637636 0)
(0.0996664 0.00369464 0)
(0.0996233 0.00359491 0)
(0.0995832 0.00349549 0)
(0.0995462 0.00339651 0)
(0.0995123 0.00329812 0)
(0.0994813 0.00320042 0)
(0.0994532 0.00310352 0)
(0.099428 0.00300746 0)
(0.0994056 0.00291231 0)
(0.099386 0.00281808 0)
(0.0993691 0.00272483 0)
(0.0993548 0.00263265 0)
(0.099343 0.00254168 0)
(0.0993338 0.0024521 0)
(0.0993269 0.00236413 0)
(0.0993223 0.00227796 0)
(0.0993198 0.00219373 0)
(0.0993194 0.00211153 0)
(0.0993209 0.00203139 0)
(0.0993243 0.00195328 0)
(0.0993293 0.00187718 0)
(0.0993358 0.00180304 0)
(0.0993439 0.00173081 0)
(0.0993532 0.00166048 0)
(0.0993639 0.00159203 0)
(0.0993756 0.00152544 0)
(0.0993884 0.00146072 0)
(0.0994021 0.00139785 0)
(0.0994166 0.00133682 0)
(0.0994318 0.00127764 0)
(0.0994477 0.00122027 0)
(0.0994641 0.00116472 0)
(0.099481 0.00111094 0)
(0.0994983 0.00105894 0)
(0.0995159 0.00100867 0)
(0.0995337 0.000960127 0)
(0.0995517 0.000913269 0)
(0.0995697 0.000868071 0)
(0.0995879 0.000824504 0)
(0.099606 0.000782537 0)
(0.099624 0.000742138 0)
(0.0996419 0.000703276 0)
(0.0996596 0.000665918 0)
(0.0996772 0.000630029 0)
(0.0995591 0.00374058 0)
(0.0995184 0.00363668 0)
(0.0994808 0.00353327 0)
(0.0994464 0.0034305 0)
(0.099415 0.00332849 0)
(0.0993867 0.00322736 0)
(0.0993613 0.0031272 0)
(0.0993389 0.00302807 0)
(0.0993193 0.00292999 0)
(0.0993024 0.00283301 0)
(0.0992883 0.00273717 0)
(0.0992767 0.00264255 0)
(0.0992678 0.00254929 0)
(0.0992613 0.0024576 0)
(0.0992571 0.00236767 0)
(0.0992552 0.0022797 0)
(0.0992554 0.00219384 0)
(0.0992576 0.00211016 0)
(0.0992617 0.00202869 0)
(0.0992676 0.0019494 0)
(0.0992751 0.00187224 0)
(0.099284 0.00179716 0)
(0.0992944 0.00172412 0)
(0.0993061 0.00165307 0)
(0.0993189 0.00158401 0)
(0.0993328 0.00151691 0)
(0.0993477 0.00145176 0)
(0.0993634 0.00138855 0)
(0.0993798 0.00132726 0)
(0.0993969 0.00126788 0)
(0.0994146 0.00121038 0)
(0.0994327 0.00115475 0)
(0.0994513 0.00110096 0)
(0.0994701 0.00104898 0)
(0.0994892 0.000998781 0)
(0.0995085 0.000950339 0)
(0.0995278 0.00090362 0)
(0.0995472 0.000858591 0)
(0.0995666 0.000815219 0)
(0.0995859 0.000773468 0)
(0.0996051 0.000733306 0)
(0.0996241 0.000694695 0)
(0.0996429 0.000657601 0)
(0.0996614 0.000621988 0)
(0.0994473 0.00378388 0)
(0.0994092 0.00367577 0)
(0.0993744 0.00356836 0)
(0.0993428 0.00346178 0)
(0.0993144 0.00335617 0)
(0.099289 0.00325162 0)
(0.0992666 0.00314823 0)
(0.0992471 0.00304605 0)
(0.0992304 0.0029451 0)
(0.0992165 0.00284541 0)
(0.0992054 0.00274702 0)
(0.0991968 0.00265002 0)
(0.0991908 0.00255455 0)
(0.0991872 0.0024608 0)
(0.0991859 0.00236898 0)
(0.0991868 0.0022793 0)
(0.0991899 0.00219187 0)
(0.0991948 0.00210679 0)
(0.0992016 0.00202407 0)
(0.0992101 0.00194367 0)
(0.0992202 0.00186553 0)
(0.0992317 0.0017896 0)
(0.0992445 0.00171581 0)
(0.0992585 0.00164414 0)
(0.0992736 0.00157455 0)
(0.0992897 0.00150701 0)
(0.0993067 0.00144151 0)
(0.0993245 0.00137803 0)
(0.0993429 0.00131654 0)
(0.0993619 0.00125702 0)
(0.0993814 0.00119946 0)
(0.0994013 0.00114381 0)
(0.0994215 0.00109006 0)
(0.099442 0.00103816 0)
(0.0994626 0.000988086 0)
(0.0994833 0.000939801 0)
(0.0995041 0.00089327 0)
(0.0995248 0.000848455 0)
(0.0995455 0.00080532 0)
(0.099566 0.000763826 0)
(0.0995863 0.000723937 0)
(0.0996064 0.000685614 0)
(0.0996263 0.000648819 0)
(0.0996458 0.000613512 0)
(0.0993309 0.00382421 0)
(0.0992958 0.00371189 0)
(0.0992641 0.00360048 0)
(0.0992356 0.00349011 0)
(0.0992103 0.0033809 0)
(0.0991881 0.00327298 0)
(0.0991689 0.0031664 0)
(0.0991526 0.00306121 0)
(0.0991391 0.00295744 0)
(0.0991284 0.0028551 0)
(0.0991204 0.00275423 0)
(0.099115 0.00265492 0)
(0.0991121 0.0025573 0)
(0.0991116 0.00246158 0)
(0.0991133 0.00236795 0)
(0.0991173 0.00227662 0)
(0.0991232 0.00218773 0)
(0.0991311 0.00210133 0)
(0.0991407 0.00201744 0)
(0.0991519 0.00193601 0)
(0.0991647 0.00185698 0)
(0.0991788 0.00178028 0)
(0.0991941 0.00170585 0)
(0.0992106 0.00163363 0)
(0.0992281 0.00156358 0)
(0.0992464 0.00149569 0)
(0.0992656 0.00142992 0)
(0.0992855 0.00136624 0)
(0.0993059 0.00130463 0)
(0.0993269 0.00124505 0)
(0.0993483 0.00118749 0)
(0.0993699 0.00113189 0)
(0.0993919 0.00107824 0)
(0.0994139 0.00102648 0)
(0.0994361 0.000976581 0)
(0.0994583 0.000928505 0)
(0.0994805 0.000882211 0)
(0.0995026 0.000837657 0)
(0.0995245 0.000794803 0)
(0.0995462 0.000753608 0)
(0.0995677 0.000714032 0)
(0.0995889 0.000676033 0)
(0.0996098 0.00063957 0)
(0.0996303 0.000604603 0)
(0.0992099 0.00386125 0)
(0.0991782 0.00374471 0)
(0.0991499 0.00362932 0)
(0.0991248 0.00351519 0)
(0.0991029 0.00340244 0)
(0.0990841 0.00329117 0)
(0.0990683 0.00318146 0)
(0.0990554 0.00307334 0)
(0.0990454 0.00296682 0)
(0.0990381 0.0028619 0)
(0.0990335 0.00275863 0)
(0.0990314 0.00265709 0)
(0.0990318 0.00255741 0)
(0.0990345 0.00245979 0)
(0.0990395 0.00236445 0)
(0.0990466 0.00227158 0)
(0.0990556 0.0021813 0)
(0.0990665 0.00209368 0)
(0.099079 0.00200872 0)
(0.0990931 0.00192636 0)
(0.0991086 0.00184654 0)
(0.0991254 0.00176916 0)
(0.0991433 0.00169416 0)
(0.0991623 0.00162148 0)
(0.0991822 0.00155108 0)
(0.099203 0.00148292 0)
(0.0992244 0.00141695 0)
(0.0992464 0.00135316 0)
(0.0992689 0.0012915 0)
(0.0992919 0.00123195 0)
(0.0993151 0.00117445 0)
(0.0993386 0.00111897 0)
(0.0993623 0.00106548 0)
(0.099386 0.00101392 0)
(0.0994097 0.000964258 0)
(0.0994334 0.000916445 0)
(0.099457 0.000870438 0)
(0.0994804 0.000826193 0)
(0.0995037 0.000783666 0)
(0.0995266 0.000742812 0)
(0.0995493 0.000703587 0)
(0.0995716 0.000665949 0)
(0.0995935 0.000629854 0)
(0.099615 0.000595259 0)
(0.103397 0.0034602 0)
(0.103258 0.00348736 0)
(0.103122 0.00350833 0)
(0.102988 0.00352331 0)
(0.102856 0.00353252 0)
(0.102727 0.00353623 0)
(0.102601 0.00353474 0)
(0.102477 0.00352835 0)
(0.102357 0.00351739 0)
(0.10224 0.00350217 0)
(0.102127 0.003483 0)
(0.102017 0.00346019 0)
(0.10191 0.00343401 0)
(0.101807 0.00340477 0)
(0.101708 0.00337273 0)
(0.101612 0.00333814 0)
(0.10152 0.00330126 0)
(0.101431 0.00326233 0)
(0.101345 0.00322156 0)
(0.101263 0.00317918 0)
(0.101185 0.00313537 0)
(0.10111 0.00309034 0)
(0.101038 0.00304425 0)
(0.100969 0.00299727 0)
(0.100903 0.00294956 0)
(0.100841 0.00290127 0)
(0.10343 0.0036031 0)
(0.103284 0.00362823 0)
(0.103141 0.00364692 0)
(0.103001 0.00365937 0)
(0.102863 0.00366583 0)
(0.102728 0.0036666 0)
(0.102596 0.003662 0)
(0.102468 0.00365236 0)
(0.102344 0.00363803 0)
(0.102223 0.00361933 0)
(0.102105 0.0035966 0)
(0.101992 0.00357017 0)
(0.101882 0.00354034 0)
(0.101776 0.00350742 0)
(0.101674 0.0034717 0)
(0.101575 0.00343344 0)
(0.101481 0.00339292 0)
(0.10139 0.00335037 0)
(0.101303 0.00330603 0)
(0.101219 0.00326013 0)
(0.10114 0.00321287 0)
(0.101063 0.00316445 0)
(0.10099 0.00311505 0)
(0.100921 0.00306485 0)
(0.100855 0.00301399 0)
(0.100791 0.00296263 0)
(0.103461 0.00375356 0)
(0.103308 0.00377623 0)
(0.103158 0.00379222 0)
(0.103011 0.00380173 0)
(0.102867 0.00380506 0)
(0.102726 0.0038025 0)
(0.102589 0.00379442 0)
(0.102456 0.00378116 0)
(0.102327 0.00376309 0)
(0.102201 0.00374057 0)
(0.10208 0.00371395 0)
(0.101963 0.00368359 0)
(0.10185 0.0036498 0)
(0.101741 0.00361292 0)
(0.101636 0.00357323 0)
(0.101535 0.00353104 0)
(0.101439 0.00348662 0)
(0.101346 0.00344022 0)
(0.101257 0.00339209 0)
(0.101172 0.00334246 0)
(0.101091 0.00329155 0)
(0.101014 0.00323956 0)
(0.10094 0.00318668 0)
(0.10087 0.00313308 0)
(0.100803 0.00307892 0)
(0.10074 0.00302436 0)
(0.10349 0.00391185 0)
(0.103329 0.00393162 0)
(0.103172 0.00394446 0)
(0.103018 0.00395061 0)
(0.102867 0.00395037 0)
(0.102721 0.00394408 0)
(0.102578 0.0039321 0)
(0.10244 0.00391483 0)
(0.102306 0.00389266 0)
(0.102176 0.00386595 0)
(0.102051 0.0038351 0)
(0.10193 0.00380046 0)
(0.101814 0.0037624 0)
(0.101702 0.00372124 0)
(0.101594 0.0036773 0)
(0.101491 0.0036309 0)
(0.101393 0.00358231 0)
(0.101298 0.00353181 0)
(0.101208 0.00347966 0)
(0.101121 0.00342609 0)
(0.101039 0.00337132 0)
(0.100961 0.00331557 0)
(0.100886 0.00325903 0)
(0.100816 0.00320187 0)
(0.100748 0.00314427 0)
(0.100685 0.00308637 0)
(0.103516 0.0040782 0)
(0.103347 0.00409462 0)
(0.103182 0.00410385 0)
(0.103021 0.00410618 0)
(0.102864 0.00410193 0)
(0.102711 0.00409147 0)
(0.102563 0.00407518 0)
(0.10242 0.00405349 0)
(0.102281 0.0040268 0)
(0.102147 0.00399552 0)
(0.102018 0.00396006 0)
(0.101893 0.0039208 0)
(0.101773 0.00387812 0)
(0.101659 0.00383236 0)
(0.101548 0.00378387 0)
(0.101443 0.00373296 0)
(0.101342 0.00367994 0)
(0.101246 0.00362509 0)
(0.101154 0.00356866 0)
(0.101067 0.00351092 0)
(0.100983 0.00345209 0)
(0.100904 0.00339239 0)
(0.100829 0.003332 0)
(0.100758 0.00327112 0)
(0.10069 0.00320991 0)
(0.100626 0.00314853 0)
(0.103538 0.00425284 0)
(0.103361 0.00426543 0)
(0.103188 0.0042706 0)
(0.10302 0.00426863 0)
(0.102856 0.0042599 0)
(0.102697 0.0042448 0)
(0.102543 0.00422375 0)
(0.102395 0.00419719 0)
(0.102251 0.00416557 0)
(0.102112 0.00412931 0)
(0.101979 0.00408885 0)
(0.101851 0.00404459 0)
(0.101728 0.00399693 0)
(0.10161 0.00394624 0)
(0.101498 0.00389287 0)
(0.10139 0.00383716 0)
(0.101287 0.00377942 0)
(0.101189 0.00371994 0)
(0.101096 0.003659 0)
(0.101007 0.00359686 0)
(0.100923 0.00353375 0)
(0.100843 0.00346989 0)
(0.100767 0.00340548 0)
(0.100696 0.00334071 0)
(0.100628 0.00327575 0)
(0.100564 0.00321074 0)
(0.103555 0.00443601 0)
(0.10337 0.00444429 0)
(0.103189 0.00444488 0)
(0.103014 0.00443812 0)
(0.102843 0.00442442 0)
(0.102678 0.00440419 0)
(0.102518 0.0043779 0)
(0.102364 0.00434601 0)
(0.102215 0.00430901 0)
(0.102072 0.00426734 0)
(0.101935 0.00422146 0)
(0.101803 0.00417181 0)
(0.101677 0.0041188 0)
(0.101557 0.00406281 0)
(0.101441 0.00400423 0)
(0.101332 0.0039434 0)
(0.101227 0.00388064 0)
(0.101127 0.00381627 0)
(0.101033 0.00375056 0)
(0.100943 0.00368378 0)
(0.100858 0.00361617 0)
(0.100778 0.00354795 0)
(0.100702 0.00347934 0)
(0.10063 0.0034105 0)
(0.100562 0.00334163 0)
(0.100498 0.00327286 0)
(0.103568 0.00462797 0)
(0.103374 0.00463142 0)
(0.103185 0.00462691 0)
(0.103002 0.00461483 0)
(0.102824 0.00459562 0)
(0.102653 0.00456975 0)
(0.102487 0.00453771 0)
(0.102327 0.0045 0)
(0.102174 0.00445714 0)
(0.102026 0.0044096 0)
(0.101885 0.00435787 0)
(0.10175 0.00430241 0)
(0.101621 0.00424365 0)
(0.101497 0.00418201 0)
(0.10138 0.00411786 0)
(0.101268 0.00405158 0)
(0.101161 0.00398351 0)
(0.101061 0.00391395 0)
(0.100965 0.00384321 0)
(0.100874 0.00377154 0)
(0.100789 0.00369921 0)
(0.100708 0.00362643 0)
(0.100631 0.00355341 0)
(0.10056 0.00348035 0)
(0.100492 0.0034074 0)
(0.100428 0.00333474 0)
(0.103575 0.00482898 0)
(0.103372 0.00482706 0)
(0.103175 0.00481689 0)
(0.102984 0.00479892 0)
(0.1028 0.00477365 0)
(0.102621 0.00474158 0)
(0.10245 0.00470325 0)
(0.102284 0.0046592 0)
(0.102126 0.00460997 0)
(0.101974 0.00455608 0)
(0.101829 0.00449804 0)
(0.10169 0.00443633 0)
(0.101558 0.00437141 0)
(0.101432 0.00430371 0)
(0.101312 0.00423364 0)
(0.101198 0.00416157 0)
(0.10109 0.00408786 0)
(0.100988 0.00401283 0)
(0.100891 0.00393678 0)
(0.1008 0.00385999 0)
(0.100714 0.0037827 0)
(0.100633 0.00370515 0)
(0.100557 0.00362755 0)
(0.100485 0.00355008 0)
(0.100417 0.00347291 0)
(0.100354 0.0033962 0)
(0.103577 0.00503936 0)
(0.103365 0.00503146 0)
(0.103159 0.00501502 0)
(0.10296 0.00499057 0)
(0.102768 0.00495862 0)
(0.102583 0.00491977 0)
(0.102405 0.00487457 0)
(0.102235 0.00482362 0)
(0.102071 0.00476749 0)
(0.101915 0.00470674 0)
(0.101766 0.0046419 0)
(0.101624 0.00457348 0)
(0.101489 0.00450197 0)
(0.10136 0.00442781 0)
(0.101238 0.00435144 0)
(0.101123 0.00427323 0)
(0.101013 0.00419355 0)
(0.10091 0.00411275 0)
(0.100813 0.00403112 0)
(0.100721 0.00394894 0)
(0.100634 0.00386647 0)
(0.100553 0.00378394 0)
(0.100477 0.00370156 0)
(0.100405 0.00361952 0)
(0.100339 0.00353797 0)
(0.100276 0.00345709 0)
(0.103573 0.00525943 0)
(0.103351 0.0052449 0)
(0.103136 0.00522154 0)
(0.102929 0.00518993 0)
(0.10273 0.00515068 0)
(0.102538 0.00510439 0)
(0.102354 0.00505172 0)
(0.102178 0.00499327 0)
(0.102009 0.00492967 0)
(0.101849 0.00486151 0)
(0.101696 0.00478936 0)
(0.10155 0.00471375 0)
(0.101412 0.00463519 0)
(0.101282 0.00455415 0)
(0.101158 0.00447108 0)
(0.101041 0.00438637 0)
(0.10093 0.0043004 0)
(0.100826 0.00421351 0)
(0.100728 0.00412601 0)
(0.100636 0.00403819 0)
(0.100549 0.00395031 0)
(0.100468 0.00386259 0)
(0.100392 0.00377525 0)
(0.100321 0.00368846 0)
(0.100255 0.00360239 0)
(0.100194 0.0035172 0)
(0.103561 0.00548955 0)
(0.10333 0.00546767 0)
(0.103106 0.00543666 0)
(0.102891 0.00539718 0)
(0.102683 0.00534991 0)
(0.102485 0.00529551 0)
(0.102295 0.00523469 0)
(0.102113 0.00516811 0)
(0.10194 0.00509644 0)
(0.101775 0.0050203 0)
(0.101618 0.00494029 0)
(0.10147 0.00485699 0)
(0.101329 0.00477091 0)
(0.101196 0.00468255 0)
(0.10107 0.00459237 0)
(0.100952 0.00450079 0)
(0.100841 0.00440817 0)
(0.100736 0.00431489 0)
(0.100637 0.00422125 0)
(0.100545 0.00412753 0)