/*--------------------------------*- C++ -*----------------------------------*\
| =========                 |                                                 |
| \\      /  F ield         | OpenFOAM: The Open Source CFD Toolbox           |
|  \\    /   O peration     | Version:  2412                                  |
|   \\  /    A nd           | Website:  www.openfoam.com                      |
|    \\/     M anipulation  |                                                 |
\*---------------------------------------------------------------------------*/
FoamFile
{
    version     2.0;
    format      ascii;
    arch        "LSB;label=32;scalar=64";
    class       surfaceScalarField;
    location    "2";
    object      phi;
}
// * * * * * * * * * * * * * * * * * * * * * * * * * * * * * * * * * * * * * //

dimensions      [0 3 -1 0 0 0 0];

oriented        oriented;

internalField   nonuniform List<scalar> 
10424
(
0.00525703
-0.000140184
-0.00525802
0.00525617
-0.000138772
0.00525542
-0.000137289
-0.000135694
0.00526164
-0.000139065
-0.00526276
0.00526064
-0.000137771
0.00525976
-0.000136406
0.005259
-0.000134929
0.00525835
-0.000133307
0.00525782
-0.000131546
0.0052574
-0.000129686
0.00525709
-0.000127777
0.00525688
-0.000125859
0.00525677
-0.000123945
0.00525675
-0.00012203
0.00525681
-0.000120105
0.00525696
-0.000118158
0.00525718
-0.000116182
0.00525748
-0.000114176
0.00525785
-0.000112139
0.00525828
-0.000110075
0.00525877
-0.000107985
0.00525931
-0.000105873
0.0052599
-0.000103742
0.00526054
-0.000101594
0.00526123
-9.94325e-05
0.00526194
-9.72605e-05
0.0052627
-9.50802e-05
0.00526348
-9.28942e-05
0.00526429
-9.07047e-05
0.00526512
-8.85138e-05
0.00526597
-8.63236e-05
0.00526684
-8.41362e-05
0.00526771
-8.19534e-05
0.0052686
-7.97772e-05
0.0052695
-7.76093e-05
0.00527039
-7.54515e-05
0.00527129
-7.33054e-05
0.00527219
-7.11726e-05
0.00527308
-6.90546e-05
0.00527397
-6.69528e-05
0.00527486
-6.48688e-05
0.00527573
-6.28039e-05
0.00527659
-6.07594e-05
0.00527744
-5.87368e-05
0.00527828
-5.67372e-05
0.0052791
-5.4762e-05
-5.28119e-05
0.0052661
-0.000137822
-0.00526735
0.00526498
-0.000136645
0.00526397
-0.000135397
0.00526308
-0.000134037
0.0052623
-0.000132532
0.00526164
-0.000130887
0.0052611
-0.000129139
0.00526066
-0.00012734
0.00526032
-0.000125524
0.00526009
-0.000123707
0.00525994
-0.000121886
0.00525988
-0.000120048
0.00525991
-0.000118184
0.00526002
-0.000116288
0.0052602
-0.000114356
0.00526045
-0.00011239
0.00526076
-0.000110392
0.00526114
-0.000108364
0.00526158
-0.00010631
0.00526207
-0.000104232
0.00526261
-0.000102134
0.0052632
-0.000100017
0.00526382
-9.78861e-05
0.00526448
-9.57427e-05
0.00526518
-9.35897e-05
0.0052659
-9.14293e-05
0.00526665
-8.92639e-05
0.00526743
-8.70958e-05
0.00526822
-8.4927e-05
0.00526902
-8.27597e-05
0.00526984
-8.05958e-05
0.00527067
-7.84373e-05
0.00527151
-7.62862e-05
0.00527234
-7.41442e-05
0.00527318
-7.20131e-05
0.00527402
-6.98944e-05
0.00527486
-6.77897e-05
0.00527569
-6.57008e-05
0.00527652
-6.36291e-05
0.00527734
-6.1576e-05
0.00527814
-5.95431e-05
0.00527894
-5.75317e-05
0.00527972
-5.55433e-05
-5.35788e-05
0.00527041
-0.000136468
-0.00527176
0.00526917
-0.000135406
0.00526804
-0.000134272
0.00526703
-0.000133027
0.00526614
-0.000131639
0.00526536
-0.000130109
0.0052647
-0.000128474
0.00526414
-0.000126783
0.00526369
-0.000125071
0.00526333
-0.000123352
0.00526307
-0.000121623
0.0052629
-0.000119875
0.00526281
-0.000118096
0.0052628
-0.00011628
0.00526287
-0.000114425
0.00526301
-0.000112532
0.00526322
-0.000110602
0.00526349
-0.000108639
0.00526383
-0.000106645
0.00526422
-0.000104623
0.00526466
-0.000102576
0.00526515
-0.000100508
0.00526569
-9.84206e-05
0.00526626
-9.63171e-05
0.00526687
-9.41999e-05
0.00526752
-9.20717e-05
0.00526819
-8.99348e-05
0.00526888
-8.77916e-05
0.0052696
-8.56444e-05
0.00527034
-8.34953e-05
0.00527109
-8.13466e-05
0.00527185
-7.92005e-05
0.00527262
-7.70588e-05
0.0052734
-7.49235e-05
0.00527418
-7.27965e-05
0.00527497
-7.06796e-05
0.00527575
-6.85745e-05
0.00527654
-6.6483e-05
0.00527731
-6.44068e-05
0.00527809
-6.23473e-05
0.00527885
-6.03063e-05
0.0052796
-5.82852e-05
0.00528034
-5.62856e-05
-5.43085e-05
0.00527456
-0.000135012
-0.00527601
0.00527322
-0.000134062
0.00527198
-0.000133041
0.00527087
-0.00013191
0.00526986
-0.000130636
0.00526898
-0.000129221
0.0052682
-0.000127698
0.00526753
-0.000126115
0.00526697
-0.000124506
0.0052665
-0.000122886
0.00526613
-0.000121251
0.00526585
-0.000119592
0.00526565
-0.000117898
0.00526553
-0.000116164
0.0052655
-0.000114388
0.00526553
-0.000112569
0.00526564
-0.00011071
0.00526581
-0.000108813
0.00526605
-0.000106881
0.00526635
-0.000104918
0.0052667
-0.000102926
0.0052671
-0.000100908
0.00526754
-9.88668e-05
0.00526803
-9.68058e-05
0.00526856
-9.47273e-05
0.00526912
-9.2634e-05
0.00526971
-9.05283e-05
0.00527033
-8.84128e-05
0.00527098
-8.62898e-05
0.00527165
-8.41618e-05
0.00527233
-8.20309e-05
0.00527303
-7.98996e-05
0.00527374
-7.77699e-05
0.00527446
-7.56438e-05
0.00527519
-7.35235e-05
0.00527592
-7.14108e-05
0.00527665
-6.93076e-05
0.00527739
-6.72159e-05
0.00527812
-6.51373e-05
0.00527884
-6.30736e-05
0.00527956
-6.10265e-05
0.00528027
-5.89977e-05
0.00528098
-5.69888e-05
-5.5001e-05
0.00527855
-0.000133465
-0.0052801
0.00527712
-0.000132625
0.00527579
-0.000131714
0.00527457
-0.000130694
0.00527347
-0.000129534
0.00527248
-0.000128231
0.0052716
-0.000126819
0.00527083
-0.000125343
0.00527016
-0.000123837
0.00526959
-0.000122315
0.00526912
-0.000120775
0.00526873
-0.000119205
0.00526843
-0.000117598
0.00526821
-0.000115947
0.00526808
-0.00011425
0.00526801
-0.000112507
0.00526802
-0.00011072
0.0052681
-0.000108891
0.00526824
-0.000107024
0.00526845
-0.000105121
0.00526871
-0.000103185
0.00526902
-0.00010122
0.00526938
-9.92277e-05
0.00526979
-9.72115e-05
0.00527023
-9.51742e-05
0.00527072
-9.31182e-05
0.00527123
-9.10463e-05
0.00527178
-8.8961e-05
0.00527236
-8.68648e-05
0.00527296
-8.47602e-05
0.00527357
-8.26498e-05
0.00527421
-8.05358e-05
0.00527486
-7.84204e-05
0.00527552
-7.6306e-05
0.00527619
-7.41947e-05
0.00527687
-7.20885e-05
0.00527755
-6.99895e-05
0.00527824
-6.78996e-05
0.00527892
-6.58208e-05
0.0052796
-6.37549e-05
0.00528028
-6.17038e-05
0.00528095
-5.96692e-05
0.00528162
-5.7653e-05
-5.56564e-05
0.0052824
-0.000131836
-0.00528403
0.00528088
-0.000131103
0.00527946
-0.0001303
0.00527816
-0.00012939
0.00527696
-0.00012834
0.00527588
-0.000127148
0.00527491
-0.000125846
0.00527404
-0.000124476
0.00527327
-0.000123072
0.00527261
-0.000121648
0.00527203
-0.000120201
0.00527155
-0.000118722
0.00527115
-0.000117202
0.00527084
-0.000115634
0.00527061
-0.000114017
0.00527045
-0.00011235
0.00527037
-0.000110636
0.00527035
-0.000108877
0.00527041
-0.000107076
0.00527052
-0.000105235
0.00527069
-0.000103358
0.00527092
-0.000101447
0.0052712
-9.95061e-05
0.00527153
-9.75371e-05
0.00527189
-9.5543e-05
0.0052723
-9.35266e-05
0.00527275
-9.14907e-05
0.00527322
-8.9438e-05
0.00527373
-8.73709e-05
0.00527426
-8.52923e-05
0.00527482
-8.32045e-05
0.00527539
-8.11101e-05
0.00527598
-7.90115e-05
0.00527659
-7.69109e-05
0.0052772
-7.48108e-05
0.00527783
-7.27133e-05
0.00527846
-7.06206e-05
0.00527909
-6.85347e-05
0.00527973
-6.64578e-05
0.00528037
-6.43917e-05
0.005281
-6.23385e-05
0.00528163
-6.03e-05
0.00528226
-5.82783e-05
-5.62746e-05
0.00528609
-0.000130135
-0.00528779
0.00528449
-0.000129506
0.005283
-0.000128807
0.00528161
-0.000128004
0.00528034
-0.000127063
0.00527917
-0.00012598
0.00527811
-0.000124786
0.00527715
-0.000123521
0.0052763
-0.000122218
0.00527554
-0.000120891
0.00527488
-0.000119537
0.0052743
-0.000118148
0.00527381
-0.000116714
0.00527341
-0.00011523
0.00527309
-0.000113693
0.00527284
-0.000112104
0.00527267
-0.000110465
0.00527257
-0.000108776
0.00527254
-0.000107042
0.00527257
-0.000105265
0.00527266
-0.000103448
0.0052728
-0.000101594
0.005273
-9.97053e-05
0.00527325
-9.77851e-05
0.00527354
-9.58363e-05
0.00527388
-9.38616e-05
0.00527425
-9.18638e-05
0.00527466
-8.98457e-05
0.0052751
-8.78099e-05
0.00527556
-8.57593e-05
0.00527606
-8.36963e-05
0.00527657
-8.16237e-05
0.0052771
-7.95439e-05
0.00527765
-7.74594e-05
0.00527821
-7.53726e-05
0.00527879
-7.32859e-05
0.00527937
-7.12014e-05
0.00527995
-6.91216e-05
0.00528054
-6.70485e-05
0.00528114
-6.49841e-05
0.00528173
-6.29307e-05
0.00528232
-6.08902e-05
0.0052829
-5.88647e-05
-5.68558e-05
0.00528963
-0.000128371
-0.0052914
0.00528797
-0.000127841
0.0052864
-0.000127245
0.00528495
-0.000126545
0.00528359
-0.00012571
0.00528235
-0.000124735
0.00528121
-0.000123646
0.00528017
-0.000122485
0.00527923
-0.000121281
0.00527839
-0.00012005
0.00527764
-0.000118788
0.00527699
-0.000117488
0.00527641
-0.000116141
0.00527592
-0.000114741
0.00527552
-0.000113285
0.00527519
-0.000111774
0.00527493
-0.000110209
0.00527475
-0.000108593
0.00527463
-0.000106927
0.00527458
-0.000105215
0.00527459
-0.000103459
0.00527466
-0.000101663
0.00527478
-9.98281e-05
0.00527496
-9.79585e-05
0.00527518
-9.60567e-05
0.00527544
-9.41254e-05
0.00527574
-9.21676e-05
0.00527608
-9.0186e-05
0.00527646
-8.81835e-05
0.00527686
-8.61629e-05
0.00527729
-8.41268e-05
0.00527775
-8.20779e-05
0.00527822
-8.0019e-05
0.00527871
-7.79525e-05
0.00527922
-7.5881e-05
0.00527974
-7.38069e-05
0.00528027
-7.17327e-05
0.00528081
-6.96608e-05
0.00528136
-6.75934e-05
0.00528191
-6.55326e-05
0.00528246
-6.34808e-05
0.00528301
-6.14401e-05
0.00528355
-5.94126e-05
-5.74001e-05
0.00529303
-0.000126551
-0.00529485
0.0052913
-0.000126118
0.00528968
-0.00012562
0.00528815
-0.000125022
0.00528673
-0.00012429
0.00528542
-0.000123419
0.00528421
-0.000122434
0.0052831
-0.000121374
0.00528208
-0.000120268
0.00528117
-0.000119131
0.00528034
-0.000117961
0.0052796
-0.00011675
0.00527895
-0.000115489
0.00527838
-0.000114172
0.00527789
-0.000112797
0.00527748
-0.000111364
0.00527715
-0.000109875
0.00527688
-0.00010833
0.00527669
-0.000106734
0.00527656
-0.000105088
0.0052765
-0.000103394
0.00527649
-0.000101657
0.00527654
-9.98777e-05
0.00527664
-9.80601e-05
0.00527679
-9.62067e-05
0.00527699
-9.43205e-05
0.00527723
-9.24043e-05
0.0052775
-9.0461e-05
0.00527781
-8.84935e-05
0.00527815
-8.65046e-05
0.00527852
-8.44972e-05
0.00527892
-8.2474e-05
0.00527934
-8.04377e-05
0.00527978
-7.83911e-05
0.00528023
-7.63367e-05
0.0052807
-7.42772e-05
0.00528118
-7.22151e-05
0.00528168
-7.01529e-05
0.00528218
-6.80929e-05
0.00528268
-6.60376e-05
0.00528319
-6.39891e-05
0.0052837
-6.19499e-05
0.00528421
-5.9922e-05
-5.79077e-05
0.00529628
-0.000124683
-0.00529815
0.0052945
-0.000124344
0.00529283
-0.000123941
0.00529124
-0.00012344
0.00528976
-0.000122809
0.00528838
-0.00012204
0.00528711
-0.000121157
0.00528593
-0.000120195
0.00528485
-0.000119186
0.00528386
-0.000118142
0.00528296
-0.000117062
0.00528215
-0.000115938
0.00528142
-0.000114762
0.00528078
-0.000113529
0.00528021
-0.000112234
0.00527973
-0.00011088
0.00527932
-0.000109466
0.00527898
-0.000107994
0.00527872
-0.000106467
0.00527852
-0.000104887
0.00527838
-0.000103257
0.0052783
-0.00010158
0.00527828
-9.98572e-05
0.00527831
-9.80927e-05
0.0052784
-9.62891e-05
0.00527853
-9.44493e-05
0.0052787
-9.25762e-05
0.00527891
-9.06727e-05
0.00527916
-8.87417e-05
0.00527944
-8.67862e-05
0.00527975
-8.48091e-05
0.00528009
-8.28131e-05
0.00528045
-8.08013e-05
0.00528084
-7.87762e-05
0.00528124
-7.67407e-05
0.00528166
-7.46975e-05
0.0052821
-7.26493e-05
0.00528254
-7.05985e-05
0.005283
-6.85477e-05
0.00528346
-6.64994e-05
0.00528393
-6.4456e-05
0.0052844
-6.24199e-05
0.00528487
-6.03933e-05
-5.83786e-05
0.0052994
-0.000122775
-0.0053013
0.00529758
-0.000122525
0.00529585
-0.000122214
0.00529422
-0.000121808
0.00529268
-0.000121275
0.00529125
-0.000120605
0.00528991
-0.00011982
0.00528867
-0.000118956
0.00528753
-0.00011804
0.00528647
-0.000117087
0.0052855
-0.000116096
0.00528463
-0.000115058
0.00528383
-0.000113967
0.00528312
-0.000112816
0.00528248
-0.000111602
0.00528193
-0.000110325
0.00528145
-0.000108987
0.00528104
-0.000107588
0.00528071
-0.000106131
0.00528044
-0.000104618
0.00528023
-0.000103052
0.00528009
-0.000101435
0.00528
-9.97697e-05
0.00527997
-9.80593e-05
0.00527999
-9.63065e-05
0.00528005
-9.45142e-05
0.00528016
-9.26854e-05
0.00528031
-9.0823e-05
0.0052805
-8.89299e-05
0.00528072
-8.70093e-05
0.00528098
-8.50639e-05
0.00528126
-8.30968e-05
0.00528157
-8.11109e-05
0.0052819
-7.9109e-05
0.00528226
-7.70941e-05
0.00528263
-7.50688e-05
0.00528301
-7.30359e-05
0.00528341
-7.09982e-05
0.00528382
-6.89583e-05
0.00528424
-6.69186e-05
0.00528467
-6.48818e-05
0.0052851
-6.28504e-05
0.00528553
-6.08268e-05
-5.88132e-05
0.00530238
-0.000120834
-0.00530432
0.00530053
-0.00012067
0.00529876
-0.000120446
0.00529708
-0.000120132
0.0052955
-0.000119693
0.00529401
-0.00011912
0.00529262
-0.000118431
0.00529133
-0.00011766
0.00529013
-0.000116836
0.00528901
-0.000115972
0.00528798
-0.000115068
0.00528704
-0.000114116
0.00528618
-0.000113108
0.0052854
-0.000112038
0.00528471
-0.000110904
0.00528409
-0.000109706
0.00528354
-0.000108442
0.00528307
-0.000107116
0.00528267
-0.000105729
0.00528233
-0.000104284
0.00528206
-0.000102781
0.00528185
-0.000101225
0.0052817
-9.96183e-05
0.00528161
-9.79627e-05
0.00528156
-9.62616e-05
0.00528157
-9.45178e-05
0.00528161
-9.27343e-05
0.00528171
-9.0914e-05
0.00528184
-8.90601e-05
0.005282
-8.71755e-05
0.0052822
-8.52633e-05
0.00528243
-8.33264e-05
0.00528269
-8.13679e-05
0.00528297
-7.93906e-05
0.00528327
-7.73976e-05
0.0052836
-7.53918e-05
0.00528394
-7.33759e-05
0.00528429
-7.13528e-05
0.00528466
-6.93252e-05
0.00528503
-6.72957e-05
0.00528542
-6.52671e-05
0.00528581
-6.32419e-05
0.00528621
-6.12226e-05
-5.92117e-05
0.00530524
-0.000118866
-0.00530721
0.00530336
-0.000118783
0.00530155
-0.000118644
0.00529984
-0.000118417
0.00529822
-0.00011807
0.00529669
-0.00011759
0.00529525
-0.000116994
0.0052939
-0.000116315
0.00529265
-0.00011558
0.00529148
-0.000114803
0.00529039
-0.000113984
0.00528939
-0.000113116
0.00528848
-0.00011219
0.00528764
-0.000111201
0.00528688
-0.000110147
0.0052862
-0.000109025
0.0052856
-0.000107837
0.00528506
-0.000106583
0.0052846
-0.000105266
0.0052842
-0.000103888
0.00528387
-0.00010245
0.0052836
-0.000100955
0.00528339
-9.94063e-05
0.00528323
-9.7806e-05
0.00528313
-9.6157e-05
0.00528307
-9.44624e-05
0.00528306
-9.2725e-05
0.0052831
-9.09479e-05
0.00528317
-8.91342e-05
0.00528328
-8.72868e-05
0.00528343
-8.54088e-05
0.00528361
-8.35034e-05
0.00528381
-8.15735e-05
0.00528404
-7.96222e-05
0.0052843
-7.76526e-05
0.00528457
-7.56675e-05
0.00528487
-7.367e-05
0.00528518
-7.16629e-05
0.0052855
-6.96491e-05
0.00528584
-6.76313e-05
0.00528618
-6.56123e-05
0.00528654
-6.35947e-05
0.00528689
-6.15813e-05
-5.95744e-05
0.00530798
-0.000116877
-0.00530997
0.00530607
-0.000116872
0.00530424
-0.000116813
0.00530249
-0.000116671
0.00530083
-0.000116411
0.00529926
-0.00011602
0.00529778
-0.000115514
0.00529639
-0.000114924
0.00529509
-0.000114276
0.00529387
-0.000113584
0.00529273
-0.000112848
0.00529168
-0.000112063
0.00529071
-0.000111219
0.00528982
-0.00011031
0.005289
-0.000109334
0.00528827
-0.000108289
0.00528761
-0.000107175
0.00528702
-0.000105993
0.0052865
-0.000104746
0.00528604
-0.000103434
0.00528565
-0.00010206
0.00528533
-0.000100627
0.00528506
-9.91367e-05
0.00528484
-9.7592e-05
0.00528468
-9.59957e-05
0.00528457
-9.43508e-05
0.0052845
-9.26602e-05
0.00528448
-9.09269e-05
0.0052845
-8.91541e-05
0.00528456
-8.73448e-05
0.00528465
-8.55021e-05
0.00528478
-8.36292e-05
0.00528494
-8.17291e-05
0.00528512
-7.9805e-05
0.00528533
-7.78599e-05
0.00528556
-7.58969e-05
0.0052858
-7.39191e-05
0.00528607
-7.19294e-05
0.00528635
-6.99307e-05
0.00528665
-6.79259e-05
0.00528695
-6.59179e-05
0.00528727
-6.39093e-05
0.00528759
-6.19031e-05
-5.99016e-05
0.00531057
-0.000114874
-0.00531257
0.00530864
-0.000114943
0.00530679
-0.00011496
0.00530501
-0.000114898
0.00530332
-0.000114721
0.00530172
-0.000114417
0.0053002
-0.000113997
0.00529877
-0.000113492
0.00529742
-0.000112928
0.00529616
-0.000112319
0.00529498
-0.000111667
0.00529388
-0.000110962
0.00529286
-0.000110199
0.00529192
-0.00010937
0.00529105
-0.000108471
0.00529027
-0.000107502
0.00528955
-0.000106462
0.00528891
-0.000105351
0.00528834
-0.000104173
0.00528783
-0.000102927
0.00528739
-0.000101617
0.00528701
-0.000100245
0.00528668
-9.88132e-05
0.00528641
-9.7324e-05
0.0052862
-9.57805e-05
0.00528603
-9.41856e-05
0.00528592
-9.25422e-05
0.00528584
-9.08533e-05
0.00528581
-8.91221e-05
0.00528582
-8.73516e-05
0.00528586
-8.5545e-05
0.00528594
-8.37055e-05
0.00528604
-8.18362e-05
0.00528618
-7.99403e-05
0.00528634
-7.80209e-05
0.00528652
-7.60812e-05
0.00528673
-7.41242e-05
0.00528695
-7.21531e-05
0.00528719
-7.01708e-05
0.00528745
-6.81803e-05
0.00528771
-6.61845e-05
0.00528799
-6.41863e-05
0.00528828
-6.21885e-05
-6.01938e-05
0.00531297
-0.000112863
-0.00531499
0.00531103
-0.000113002
0.00530916
-0.000113092
0.00530737
-0.000113105
0.00530566
-0.000113007
0.00530402
-0.000112783
0.00530247
-0.000112445
0.005301
-0.000112022
0.00529961
-0.000111541
0.00529831
-0.000111015
0.00529709
-0.000110443
0.00529594
-0.00010982
0.00529488
-0.000109136
0.0052939
-0.000108385
0.00529299
-0.000107564
0.00529216
-0.000106669
0.0052914
-0.000105701
0.00529071
-0.000104662
0.00529009
-0.000103551
0.00528953
-0.000102372
0.00528904
-0.000101125
0.0052886
-9.98132e-05
0.00528823
-9.84392e-05
0.00528791
-9.70054e-05
0.00528765
-9.55147e-05
0.00528743
-9.39698e-05
0.00528726
-9.23738e-05
0.00528714
-9.07296e-05
0.00528706
-8.90404e-05
0.00528701
-8.73094e-05
0.00528701
-8.55396e-05
0.00528704
-8.37343e-05
0.0052871
-8.18966e-05
0.00528719
-8.00297e-05
0.0052873
-7.8137e-05
0.00528744
-7.62215e-05
0.00528761
-7.42865e-05
0.00528779
-7.23351e-05
0.00528799
-7.03703e-05
0.0052882
-6.83952e-05
0.00528843
-6.64129e-05
0.00528867
-6.44262e-05
0.00528892
-6.2438e-05
-6.04513e-05
0.00531514
-0.000110848
-0.00531716
0.0053132
-0.000111055
0.00531132
-0.000111214
0.00530951
-0.000111297
0.00530778
-0.000111272
0.00530612
-0.000111122
0.00530453
-0.000110862
0.00530303
-0.000110519
0.00530161
-0.000110119
0.00530027
-0.000109674
0.00529901
-0.000109184
0.00529783
-0.000108641
0.00529673
-0.000108037
0.00529571
-0.000107363
0.00529476
-0.000106617
0.00529389
-0.000105796
0.00529309
-0.0001049
0.00529235
-0.00010393
0.00529169
-0.000102886
0.00529109
-0.000101771
0.00529055
-0.000100587
0.00529007
-9.9335e-05
0.00528965
-9.80185e-05
0.00528929
-9.66397e-05
0.00528897
-9.52014e-05
0.00528871
-9.37064e-05
0.00528849
-9.21578e-05
0.00528832
-9.05585e-05
0.00528819
-8.89116e-05
0.0052881
-8.72204e-05
0.00528805
-8.54879e-05
0.00528804
-8.37173e-05
0.00528805
-8.19119e-05
0.0052881
-8.00749e-05
0.00528817
-7.82096e-05
0.00528827
-7.63193e-05
0.00528839
-7.44072e-05
0.00528853
-7.24765e-05
0.00528869
-7.05303e-05
0.00528886
-6.85717e-05
0.00528906
-6.66039e-05
0.00528926
-6.46298e-05
0.00528947
-6.26525e-05
-6.06749e-05
0.00531706
-0.000108837
-0.00531907
0.00531511
-0.000109109
0.00531323
-0.000109334
0.00531142
-0.000109482
0.00530967
-0.000109522
0.00530799
-0.00010944
0.00530638
-0.000109252
0.00530484
-0.000108986
0.00530339
-0.000108665
0.00530202
-0.000108302
0.00530073
-0.000107894
0.00529952
-0.000107431
0.00529839
-0.000106905
0.00529733
-0.000106308
0.00529635
-0.000105637
0.00529544
-0.000104888
0.0052946
-0.000104062
0.00529383
-0.000103159
0.00529313
-0.000102181
0.00529249
-0.00010113
0.00529191
-0.000100007
0.00529139
-9.88141e-05
0.00529092
-9.75542e-05
0.00529051
-9.62298e-05
0.00529016
-9.48434e-05
0.00528985
-9.33981e-05
0.00528959
-9.18966e-05
0.00528937
-9.03422e-05
0.0052892
-8.87377e-05
0.00528906
-8.70865e-05
0.00528897
-8.53917e-05
0.0052889
-8.36563e-05
0.00528888
-8.18838e-05
0.00528888
-8.00773e-05
0.00528891
-7.82402e-05
0.00528897
-7.63758e-05
0.00528905
-7.44875e-05
0.00528915
-7.25784e-05
0.00528927
-7.06517e-05
0.00528941
-6.87106e-05
0.00528956
-6.67584e-05
0.00528973
-6.4798e-05
0.00528991
-6.28326e-05
-6.08651e-05
0.00531881
-0.00532081
-0.00010683
0.00531686
-0.000107167
0.00531498
-0.000107454
0.00531316
-0.000107662
0.0053114
-0.00010776
0.0053097
-0.000107741
0.00530807
-0.00010762
0.00530651
-0.000107427
0.00530503
-0.000107185
0.00530363
-0.000106903
0.00530232
-0.000106576
0.00530108
-0.000106194
0.00529992
-0.000105746
0.00529884
-0.000105224
0.00529782
-0.000104625
0.00529688
-0.000103947
0.00529601
-0.00010319
0.00529521
-0.000102353
0.00529446
-0.00010144
0.00529378
-0.00010045
0.00529316
-9.93871e-05
0.0052926
-9.82523e-05
0.0052921
-9.70482e-05
0.00529164
-9.57773e-05
0.00529124
-9.44424e-05
0.00529089
-9.30462e-05
0.00529059
-9.15917e-05
0.00529033
-9.0082e-05
0.00529011
-8.852e-05
0.00528993
-8.6909e-05
0.00528979
-8.5252e-05
0.00528969
-8.35523e-05
0.00528962
-8.18131e-05
0.00528958
-8.00377e-05
0.00528957
-7.82295e-05
0.00528958
-7.63918e-05
0.00528962
-7.4528e-05
0.00528969
-7.26414e-05
0.00528977
-7.07352e-05
0.00528987
-6.88126e-05
0.00528999
-6.68768e-05
0.00529012
-6.49312e-05
0.00529027
-6.29787e-05
-6.10226e-05
0.00539811
-0.000307563
0.00538611
-0.000302449
0.00537483
-0.000296967
0.00536426
-0.000291179
0.00535437
-0.000285138
0.00534515
-0.000278897
0.00533657
-0.000272501
0.0053286
-0.000265993
0.00532122
-0.000259411
0.00531439
-0.000252788
0.00530808
-0.000246155
0.00530228
-0.000239539
0.00529695
-0.000232962
0.00529206
-0.000226444
0.00528758
-0.000220003
0.0052835
-0.000213653
0.00527978
-0.000207407
0.00527641
-0.000201276
0.00527335
-0.000195266
0.00527059
-0.000189386
0.00526811
-0.000183641
0.00526589
-0.000178033
0.0052639
-0.000172566
0.00526214
-0.000167241
0.00526058
-0.000162057
0.00525921
-0.000157022
-0.000152148
0.00540319
-0.000295256
0.00539156
-0.000290816
0.00538059
-0.000286
0.00537027
-0.000280863
0.00536059
-0.000275458
0.00535153
-0.000269834
0.00534306
-0.000264034
0.00533517
-0.0002581
0.00532782
-0.000252067
0.00532101
-0.00024597
0.00531469
-0.000239838
0.00530885
-0.000233697
0.00530346
-0.000227571
0.00529849
-0.000221479
0.00529393
-0.000215439
0.00528974
-0.000209468
0.00528591
-0.000203577
0.00528242
-0.000197779
0.00527923
-0.000192082
0.00527634
-0.000186493
0.00527372
-0.000181021
0.00527135
-0.000175668
0.00526922
-0.000170438
0.00526731
-0.000165333
0.00526561
-0.000160355
0.0052641
-0.000155509
-0.000150811
0.00540759
-0.000283391
0.00539634
-0.000279564
0.0053857
-0.000275355
0.00537565
-0.000270818
0.00536619
-0.000266
0.00535731
-0.000260948
0.00534898
-0.000255703
0.00534118
-0.000250306
0.00533391
-0.000244791
0.00532712
-0.00023919
0.00532082
-0.000233532
0.00531496
-0.000227843
0.00530954
-0.000222146
0.00530452
-0.000216463
0.00529989
-0.000210809
0.00529563
-0.000205203
0.00529171
-0.000199656
0.00528811
-0.000194181
0.00528482
-0.000188788
0.00528181
-0.000183486
0.00527907
-0.000178281
0.00527658
-0.000173178
0.00527432
-0.000168183
0.00527229
-0.000163297
0.00527045
-0.000158522
0.00526881
-0.000153866
-0.000149344
0.00541139
-0.000271967
0.00540052
-0.000268696
0.00539021
-0.000265042
0.00538044
-0.000261054
0.00537122
-0.000256778
0.00536253
-0.000252255
0.00535435
-0.000247528
0.00534668
-0.000242632
0.00533949
-0.000237601
0.00533277
-0.000232467
0.00532649
-0.000227258
0.00532065
-0.000221998
0.00531521
-0.000216711
0.00531017
-0.000211417
0.00530549
-0.000206134
0.00530117
-0.000200878
0.00529718
-0.000195664
0.0052935
-0.000190503
0.00529011
-0.000185406
0.00528701
-0.000180382
0.00528417
-0.000175438
0.00528157
-0.000170582
0.00527921
-0.000165817
0.00527706
-0.000161147
0.00527511
-0.000156574
0.00527335
-0.000152107
-0.00014776
0.00541463
-0.000260979
0.00540415
-0.000258213
0.00539417
-0.000255065
0.0053847
-0.00025158
0.00537572
-0.000247802
0.00536724
-0.00024377
0.00535923
-0.000239523
0.00535169
-0.000235094
0.00534461
-0.000230518
0.00533796
-0.000225822
0.00533174
-0.000221035
0.00532593
-0.000216182
0.0053205
-0.000211283
0.00531544
-0.000206361
0.00531074
-0.000201432
0.00530638
-0.000196514
0.00530233
-0.000191619
0.00529859
-0.000186761
0.00529513
-0.00018195
0.00529195
-0.000177197
0.00528902
-0.000172509
0.00528633
-0.000167893
0.00528387
-0.000163355
0.00528162
-0.000158897
0.00527957
-0.000154524
0.00527771
-0.000150242
-0.000146069
0.00541737
-0.000250422
0.00540727
-0.000248112
0.00539763
-0.000245425
0.00538845
-0.000242402
0.00537973
-0.000239082
0.00537146
-0.000235503
0.00536364
-0.0002317
0.00535625
-0.000227707
0.00534929
-0.000223554
0.00534274
-0.00021927
0.00533658
-0.000214881
0.00533081
-0.000210411
0.00532541
-0.000205882
0.00532036
-0.000201313
0.00531565
-0.000196722
0.00531126
-0.000192126
0.00530718
-0.000187538
0.00530339
-0.000182972
0.00529988
-0.000178439
0.00529663
-0.000173948
0.00529363
-0.000169508
0.00529087
-0.000165127
0.00528832
-0.00016081
0.00528599
-0.00015656
0.00528384
-0.000152383
0.00528189
-0.000148285
-0.000144284
0.00541965
-0.000240287
0.00540993
-0.000238391
0.00540063
-0.000236123
0.00539175
-0.000233521
0.00538329
-0.000230621
0.00537525
-0.00022746
0.00536762
-0.000224069
0.00536039
-0.00022048
0.00535356
-0.000216723
0.00534711
-0.000212825
0.00534104
-0.000208809
0.00533533
-0.000204701
0.00532997
-0.00020052
0.00532494
-0.000196287
0.00532024
-0.000192018
0.00531584
-0.00018773
0.00531174
-0.000183437
0.00530792
-0.000179152
0.00530437
-0.000174886
0.00530107
-0.000170649
0.00529801
-0.00016645
0.00529518
-0.000162296
0.00529256
-0.000158195
0.00529015
-0.000154149
0.00528793
-0.000150164
0.0052859
-0.000146247
-0.000142414
0.00542153
-0.000230566
0.00541218
-0.000229044
0.00540321
-0.000227156
0.00539463
-0.000224938
0.00538643
-0.000222424
0.00537862
-0.000219647
0.00537119
-0.000216637
0.00536413
-0.000213424
0.00535744
-0.000210035
0.00535111
-0.000206496
0.00534514
-0.000202832
0.0053395
-0.000199064
0.00533419
-0.000195213
0.0053292
-0.000191297
0.00532452
-0.000187334
0.00532013
-0.00018334
0.00531602
-0.000179329
0.00531218
-0.000175313
0.0053086
-0.000171304
0.00530526
-0.000167312
0.00530216
-0.000163346
0.00529928
-0.000159414
0.0052966
-0.000155522
0.00529413
-0.000151675
0.00529184
-0.000147877
0.00528973
-0.000144137
-0.000140471
0.00542303
-0.000221248
0.00541405
-0.000220063
0.00540541
-0.00021852
0.00539713
-0.000216652
0.00538919
-0.000214492
0.00538161
-0.000212067
0.00537439
-0.000209409
0.00536751
-0.000206544
0.00536097
-0.000203497
0.00535477
-0.000200295
0.00534889
-0.000196959
0.00534334
-0.000193511
0.0053381
-0.00018997
0.00533316
-0.000186355
0.0053285
-0.000182683
0.00532413
-0.000178969
0.00532003
-0.000175226
0.00531619
-0.000171468
0.00531259
-0.000167705
0.00530922
-0.000163949
0.00530609
-0.000160208
0.00530316
-0.00015649
0.00530044
-0.000152802
0.00529792
-0.000149148
0.00529557
-0.000145534
0.0052934
-0.000141967
-0.000138464
0.0054242
-0.000212322
0.00541557
-0.00021144
0.00540726
-0.00021021
0.00539927
-0.000208661
0.0053916
-0.000206823
0.00538426
-0.000204723
0.00537724
-0.000202388
0.00537054
-0.000199845
0.00536416
-0.000197117
0.00535809
-0.000194228
0.00535233
-0.000191199
0.00534687
-0.000188051
0.0053417
-0.000184803
0.00533682
-0.000181472
0.00533221
-0.000178075
0.00532787
-0.000174626
0.00532378
-0.000171139
0.00531994
-0.000167627
0.00531634
-0.000164101
0.00531296
-0.000160572
0.0053098
-0.000157047
0.00530685
-0.000153536
0.00530409
-0.000150045
0.00530152
-0.000146579
0.00529913
-0.000143143
0.00529691
-0.000139745
-0.000136402
0.00542506
-0.000203775
0.00541679
-0.000203167
0.0054088
-0.000202219
0.0054011
-0.00020096
0.00539369
-0.000199417
0.00538658
-0.000197614
0.00537977
-0.000195577
0.00537326
-0.000193331
0.00536704
-0.000190898
0.00536111
-0.000188301
0.00535547
-0.000185559
0.00535011
-0.000182692
0.00534503
-0.000179719
0.00534021
-0.000176656
0.00533566
-0.000173519
0.00533135
-0.000170322
0.00532729
-0.000167079
0.00532347
-0.000163802
0.00531987
-0.000160502
0.00531648
-0.000157189
0.00531331
-0.000153873
0.00531034
-0.000150562
0.00530755
-0.000147261
0.00530495
-0.000143977
0.00530252
-0.000140714
0.00530026
-0.00013748
-0.000134292
0.00542566
-0.000195596
0.00541773
-0.000195233
0.00541005
-0.000194541
0.00540264
-0.000193545
0.00539549
-0.00019227
0.00538861
-0.000190739
0.00538201
-0.000188977
0.00537569
-0.000187005
0.00536963
-0.000184845
0.00536385
-0.000182519
0.00535834
-0.000180044
0.00535309
-0.000177441
0.00534809
-0.000174725
0.00534335
-0.000171914
0.00533885
-0.000169023
0.0053346
-0.000166065
0.00533057
-0.000163053
0.00532677
-0.00016
0.00532318
-0.000156916
0.0053198
-0.000153811
0.00531663
-0.000150695
0.00531364
-0.000147575
0.00531084
-0.000144458
0.00530821
-0.00014135
0.00530575
-0.000138255
0.00530345
-0.000135181
-0.000132144
0.00542603
-0.000187773
0.00541843
-0.00018763
0.00541105
-0.000187168
0.00540392
-0.00018641
0.00539703
-0.000185379
0.00539038
-0.000184097
0.00538399
-0.000182586
0.00537785
-0.000180867
0.00537197
-0.00017896
0.00536633
-0.000176884
0.00536095
-0.000174659
0.00535581
-0.000172302
0.00535091
-0.000169828
0.00534625
-0.000167254
0.00534182
-0.000164594
0.00533762
-0.000161861
0.00533364
-0.000159069
0.00532986
-0.000156228
0.0053263
-0.00015335
0.00532293
-0.000150445
0.00531976
-0.00014752
0.00531677
-0.000144585
0.00531395
-0.000141645
0.00531131
-0.000138706
0.00530883
-0.000135774
0.0053065
-0.000132854
-0.000129964
0.00542619
-0.000180293
0.0054189
-0.000180346
0.00541183
-0.000180091
0.00540496
-0.000179548
0.00539832
-0.000178739
0.00539191
-0.000177683
0.00538573
-0.000176403
0.00537978
-0.000174916
0.00537406
-0.000173243
0.00536858
-0.000171401
0.00536332
-0.000169407
0.0053583
-0.000167279
0.00535351
-0.000165032
0.00534893
-0.00016268
0.00534458
-0.000160238
0.00534043
-0.000157719
0.0053365
-0.000155134
0.00533276
-0.000152495
0.00532923
-0.000149813
0.00532588
-0.000147097
0.00532272
-0.000144356
0.00531973
-0.000141597
0.00531691
-0.000138828
0.00531426
-0.000136053
0.00531176
-0.000133277
0.00530942
-0.000130508
-0.00012776
0.00542615
-0.000173144
0.00541918
-0.000173372
0.00541239
-0.000173302
0.00540579
-0.000172953
0.0053994
-0.000172344
0.00539321
-0.000171496
0.00538724
-0.000170426
0.00538147
-0.000169153
0.00537593
-0.000167695
0.00537059
-0.000166068
0.00536548