/*--------------------------------*- C++ -*----------------------------------*\
| =========                 |                                                 |
| \\      /  F ield         | OpenFOAM: The Open Source CFD Toolbox           |
|  \\    /   O peration     | Version:  2412                                  |
|   \\  /    A nd           | Website:  www.openfoam.com                      |
|    \\/     M anipulation  |                                                 |
\*---------------------------------------------------------------------------*/
FoamFile
{
    version     2.0;
    format      ascii;
    arch        "LSB;label=32;scalar=64";
    class       volVectorField;
    location    "2";
    object      vorticity;
}
// * * * * * * * * * * * * * * * * * * * * * * * * * * * * * * * * * * * * * //

dimensions      [0 0 -1 0 0 0 0];

internalField   nonuniform List<vector> 
5285
(
(0 -0 -2.23832e-05)
(0 -0 -2.66402e-05)
(0 -0 -1.71035e-05)
(0 -0 5.80056e-06)
(0 -0 -2.20169e-05)
(0 -0 -2.66724e-05)
(0 -0 -1.79298e-05)
(0 -0 4.05653e-06)
(0 -0 2.95117e-05)
(0 -0 4.60641e-05)
(0 -0 4.75339e-05)
(0 -0 3.63545e-05)
(0 -0 1.96622e-05)
(0 -0 4.04067e-06)
(0 -0 -7.12785e-06)
(0 -0 -1.34694e-05)
(0 -0 -1.6156e-05)
(0 -0 -1.66256e-05)
(0 -0 -1.59729e-05)
(0 -0 -1.48515e-05)
(0 -0 -1.35905e-05)
(0 -0 -1.23337e-05)
(0 -0 -1.11356e-05)
(0 -0 -1.0013e-05)
(0 -0 -8.97382e-06)
(0 -0 -8.022e-06)
(0 -0 -7.15297e-06)
(0 -0 -6.35559e-06)
(0 -0 -5.61859e-06)
(0 -0 -4.93611e-06)
(0 -0 -4.30783e-06)
(0 -0 -3.73359e-06)
(0 -0 -3.2104e-06)
(0 -0 -2.73973e-06)
(0 -0 -2.32558e-06)
(0 -0 -1.96154e-06)
(0 -0 -1.63777e-06)
(0 -0 -1.35101e-06)
(0 -0 -1.09245e-06)
(0 -0 -8.59406e-07)
(0 -0 -6.55192e-07)
(0 -0 -4.84867e-07)
(0 -0 -3.40244e-07)
(0 -0 -2.14441e-07)
(0 -0 -1.12878e-07)
(0 -0 -2.60972e-08)
(0 -0 4.58839e-08)
(0 -0 1.31664e-07)
(0 -0 -2.15185e-05)
(0 -0 -2.65836e-05)
(0 -0 -1.86596e-05)
(0 -0 2.36385e-06)
(0 -0 2.71524e-05)
(0 -0 4.36001e-05)
(0 -0 4.54641e-05)
(0 -0 3.49292e-05)
(0 -0 1.88625e-05)
(0 -0 3.70453e-06)
(0 -0 -7.19185e-06)
(0 -0 -1.34103e-05)
(0 -0 -1.60615e-05)
(0 -0 -1.65357e-05)
(0 -0 -1.59006e-05)
(0 -0 -1.47986e-05)
(0 -0 -1.35562e-05)
(0 -0 -1.23178e-05)
(0 -0 -1.11365e-05)
(0 -0 -1.00288e-05)
(0 -0 -9.0056e-06)
(0 -0 -8.07231e-06)
(0 -0 -7.21962e-06)
(0 -0 -6.43165e-06)
(0 -0 -5.69733e-06)
(0 -0 -5.01572e-06)
(0 -0 -4.39025e-06)
(0 -0 -3.81784e-06)
(0 -0 -3.29172e-06)
(0 -0 -2.81807e-06)
(0 -0 -2.40518e-06)
(0 -0 -2.04023e-06)
(0 -0 -1.71205e-06)
(0 -0 -1.4228e-06)
(0 -0 -1.15976e-06)
(0 -0 -9.22766e-07)
(0 -0 -7.16272e-07)
(0 -0 -5.445e-07)
(0 -0 -3.93692e-07)
(0 -0 -2.57851e-07)
(0 -0 -1.57345e-07)
(0 -0 -7.5689e-08)
(0 -0 -5.63418e-09)
(0 -0 8.1106e-08)
(0 -0 -2.08964e-05)
(0 -0 -2.63751e-05)
(0 -0 -1.92925e-05)
(0 -0 7.46318e-07)
(0 -0 2.48088e-05)
(0 -0 4.11022e-05)
(0 -0 4.33351e-05)
(0 -0 3.34379e-05)
(0 -0 1.80119e-05)
(0 -0 3.34641e-06)
(0 -0 -7.24398e-06)
(0 -0 -1.33089e-05)
(0 -0 -1.59033e-05)
(0 -0 -1.63702e-05)
(0 -0 -1.57483e-05)
(0 -0 -1.46658e-05)
(0 -0 -1.3444e-05)
(0 -0 -1.22256e-05)
(0 -0 -1.10634e-05)
(0 -0 -9.97442e-06)
(0 -0 -8.97025e-06)
(0 -0 -8.05445e-06)
(0 -0 -7.21471e-06)
(0 -0 -6.43449e-06)
(0 -0 -5.70479e-06)
(0 -0 -5.02719e-06)
(0 -0 -4.40576e-06)
(0 -0 -3.83604e-06)
(0 -0 -3.31136e-06)
(0 -0 -2.84048e-06)
(0 -0 -2.43102e-06)
(0 -0 -2.06708e-06)
(0 -0 -1.73845e-06)
(0 -0 -1.44839e-06)
(0 -0 -1.18406e-06)
(0 -0 -9.46933e-07)
(0 -0 -7.40556e-07)
(0 -0 -5.66211e-07)
(0 -0 -4.10623e-07)
(0 -0 -2.71014e-07)
(0 -0 -1.69987e-07)
(0 -0 -8.98196e-08)
(0 -0 -1.86728e-08)
(0 -0 6.45039e-08)
(0 -0 -2.02074e-05)
(0 -0 -2.60956e-05)
(0 -0 -1.98485e-05)
(0 -0 -8.13027e-07)
(0 -0 2.2508e-05)
(0 -0 3.86005e-05)
(0 -0 4.11667e-05)
(0 -0 3.18886e-05)
(0 -0 1.71111e-05)
(0 -0 2.96189e-06)
(0 -0 -7.29296e-06)
(0 -0 -1.31774e-05)
(0 -0 -1.56953e-05)
(0 -0 -1.61437e-05)
(0 -0 -1.55308e-05)
(0 -0 -1.44679e-05)
(0 -0 -1.32685e-05)
(0 -0 -1.20721e-05)
(0 -0 -1.09314e-05)
(0 -0 -9.86426e-06)
(0 -0 -8.88015e-06)
(0 -0 -7.9792e-06)
(0 -0 -7.14885e-06)
(0 -0 -6.37497e-06)
(0 -0 -5.65123e-06)
(0 -0 -4.97973e-06)
(0 -0 -4.36314e-06)
(0 -0 -3.79726e-06)
(0 -0 -3.27836e-06)
(0 -0 -2.81472e-06)
(0 -0 -2.41016e-06)
(0 -0 -2.04927e-06)
(0 -0 -1.72333e-06)
(0 -0 -1.43412e-06)
(0 -0 -1.17183e-06)
(0 -0 -9.37535e-07)
(0 -0 -7.32889e-07)
(0 -0 -5.56162e-07)
(0 -0 -3.97806e-07)
(0 -0 -2.58926e-07)
(0 -0 -1.55592e-07)
(0 -0 -7.28402e-08)
(0 -0 1.66413e-09)
(0 -0 8.02118e-08)
(0 -0 -1.9513e-05)
(0 -0 -2.58039e-05)
(0 -0 -2.03833e-05)
(0 -0 -2.33972e-06)
(0 -0 2.02346e-05)
(0 -0 3.61115e-05)
(0 -0 3.89825e-05)
(0 -0 3.03079e-05)
(0 -0 1.61779e-05)
(0 -0 2.55365e-06)
(0 -0 -7.35231e-06)
(0 -0 -1.30429e-05)
(0 -0 -1.54738e-05)
(0 -0 -1.58972e-05)
(0 -0 -1.52903e-05)
(0 -0 -1.42466e-05)
(0 -0 -1.30708e-05)
(0 -0 -1.1898e-05)
(0 -0 -1.07804e-05)
(0 -0 -9.73555e-06)
(0 -0 -8.7696e-06)
(0 -0 -7.88002e-06)
(0 -0 -7.05611e-06)
(0 -0 -6.28748e-06)
(0 -0 -5.56997e-06)
(0 -0 -4.90502e-06)
(0 -0 -4.29376e-06)
(0 -0 -3.73339e-06)
(0 -0 -3.22312e-06)
(0 -0 -2.76871e-06)
(0 -0 -2.36955e-06)
(0 -0 -2.01255e-06)
(0 -0 -1.69069e-06)
(0 -0 -1.4037e-06)
(0 -0 -1.1452e-06)
(0 -0 -9.14921e-07)
(0 -0 -7.12647e-07)
(0 -0 -5.34549e-07)
(0 -0 -3.75219e-07)
(0 -0 -2.37922e-07)
(0 -0 -1.30477e-07)
(0 -0 -4.27761e-08)
(0 -0 3.53601e-08)
(0 -0 1.08842e-07)
(0 -0 -1.88643e-05)
(0 -0 -2.55537e-05)
(0 -0 -2.09507e-05)
(0 -0 -3.8849e-06)
(0 -0 1.79545e-05)
(0 -0 3.36154e-05)
(0 -0 3.67842e-05)
(0 -0 2.87058e-05)
(0 -0 1.52176e-05)
(0 -0 2.11492e-06)
(0 -0 -7.44344e-06)
(0 -0 -1.29396e-05)
(0 -0 -1.52816e-05)
(0 -0 -1.56781e-05)
(0 -0 -1.50758e-05)
(0 -0 -1.40513e-05)
(0 -0 -1.28997e-05)
(0 -0 -1.17519e-05)
(0 -0 -1.06577e-05)
(0 -0 -9.63312e-06)
(0 -0 -8.6818e-06)
(0 -0 -7.80025e-06)
(0 -0 -6.98079e-06)
(0 -0 -6.21657e-06)
(0 -0 -5.50478e-06)
(0 -0 -4.84605e-06)
(0 -0 -4.24074e-06)
(0 -0 -3.68755e-06)
(0 -0 -3.18703e-06)
(0 -0 -2.74153e-06)
(0 -0 -2.34722e-06)
(0 -0 -1.9938e-06)
(0 -0 -1.67575e-06)
(0 -0 -1.39146e-06)
(0 -0 -1.13682e-06)
(0 -0 -9.10207e-07)
(0 -0 -7.10084e-07)
(0 -0 -5.31728e-07)
(0 -0 -3.72358e-07)
(0 -0 -2.35322e-07)
(0 -0 -1.22868e-07)
(0 -0 -2.9833e-08)
(0 -0 5.09383e-08)
(0 -0 1.19783e-07)
(0 -0 -1.83156e-05)
(0 -0 -2.54024e-05)
(0 -0 -2.16101e-05)
(0 -0 -5.50931e-06)
(0 -0 1.56097e-05)
(0 -0 3.10649e-05)
(0 -0 3.45358e-05)
(0 -0 2.70522e-05)
(0 -0 1.41997e-05)
(0 -0 1.61017e-06)
(0 -0 -7.60849e-06)
(0 -0 -1.29156e-05)
(0 -0 -1.51716e-05)
(0 -0 -1.55417e-05)
(0 -0 -1.49443e-05)
(0 -0 -1.39391e-05)
(0 -0 -1.28122e-05)
(0 -0 -1.16893e-05)
(0 -0 -1.06172e-05)
(0 -0 -9.60984e-06)
(0 -0 -8.66947e-06)
(0 -0 -7.79354e-06)
(0 -0 -6.97746e-06)
(0 -0 -6.21709e-06)
(0 -0 -5.51052e-06)
(0 -0 -4.85794e-06)
(0 -0 -4.25945e-06)
(0 -0 -3.71446e-06)
(0 -0 -3.2231e-06)
(0 -0 -2.78468e-06)
(0 -0 -2.39385e-06)
(0 -0 -2.04287e-06)
(0 -0 -1.72741e-06)
(0 -0 -1.44523e-06)
(0 -0 -1.19343e-06)
(0 -0 -9.69409e-07)
(0 -0 -7.70847e-07)
(0 -0 -5.92904e-07)
(0 -0 -4.33578e-07)
(0 -0 -2.95365e-07)
(0 -0 -1.78278e-07)
(0 -0 -8.08945e-08)
(0 -0 1.27159e-09)
(0 -0 6.65391e-08)
(0 -0 -1.7963e-05)
(0 -0 -2.54487e-05)
(0 -0 -2.24625e-05)
(0 -0 -7.31585e-06)
(0 -0 1.30969e-05)
(0 -0 2.83593e-05)
(0 -0 3.21403e-05)
(0 -0 2.52531e-05)
(0 -0 1.30323e-05)
(0 -0 9.48558e-07)
(0 -0 -7.93828e-06)
(0 -0 -1.30627e-05)
(0 -0 -1.52364e-05)
(0 -0 -1.55825e-05)
(0 -0 -1.49908e-05)
(0 -0 -1.40054e-05)
(0 -0 -1.29031e-05)
(0 -0 -1.18039e-05)
(0 -0 -1.07512e-05)
(0 -0 -9.75769e-06)
(0 -0 -8.82556e-06)
(0 -0 -7.95408e-06)
(0 -0 -7.14119e-06)
(0 -0 -6.38475e-06)
(0 -0 -5.68356e-06)
(0 -0 -5.03764e-06)
(0 -0 -4.44671e-06)
(0 -0 -3.90978e-06)
(0 -0 -3.42567e-06)
(0 -0 -2.99175e-06)
(0 -0 -2.60262e-06)
(0 -0 -2.25257e-06)
(0 -0 -1.93809e-06)
(0 -0 -1.65676e-06)
(0 -0 -1.40641e-06)
(0 -0 -1.18385e-06)
(0 -0 -9.86156e-07)
(0 -0 -8.08602e-07)
(0 -0 -6.48865e-07)
(0 -0 -5.08832e-07)
(0 -0 -3.88435e-07)
(0 -0 -2.8821e-07)
(0 -0 -2.05451e-07)
(0 -0 -1.42535e-07)
(0 -0 -1.80004e-05)
(0 -0 -2.58883e-05)
(0 -0 -2.37061e-05)
(0 -0 -9.50506e-06)
(0 -0 1.02146e-05)
(0 -0 2.5298e-05)
(0 -0 2.94002e-05)
(0 -0 2.31154e-05)
(0 -0 1.1527e-05)
(0 -0 -5.40575e-08)
(0 -0 -8.61386e-06)
(0 -0 -1.35603e-05)
(0 -0 -1.56561e-05)
(0 -0 -1.59811e-05)
(0 -0 -1.53974e-05)
(0 -0 -1.44324e-05)
(0 -0 -1.33537e-05)
(0 -0 -1.22758e-05)
(0 -0 -1.12396e-05)
(0 -0 -1.02573e-05)
(0 -0 -9.33223e-06)
(0 -0 -8.46537e-06)
(0 -0 -7.65647e-06)
(0 -0 -6.90479e-06)
(0 -0 -6.20981e-06)
(0 -0 -5.57123e-06)
(0 -0 -4.98787e-06)
(0 -0 -4.45761e-06)
(0 -0 -3.9781e-06)
(0 -0 -3.54614e-06)
(0 -0 -3.15712e-06)
(0 -0 -2.80664e-06)
(0 -0 -2.49171e-06)
(0 -0 -2.20998e-06)
(0 -0 -1.95989e-06)
(0 -0 -1.73782e-06)
(0 -0 -1.54011e-06)
(0 -0 -1.36227e-06)
(0 -0 -1.20154e-06)
(0 -0 -1.0599e-06)
(0 -0 -9.37875e-07)
(0 -0 -8.36164e-07)
(0 -0 -7.5294e-07)
(0 -0 -6.91145e-07)
(0 -0 -1.87536e-05)
(0 -0 -2.70516e-05)
(0 -0 -2.56765e-05)
(0 -0 -1.24163e-05)
(0 -0 6.62335e-06)
(0 -0 2.15461e-05)
(0 -0 2.59882e-05)
(0 -0 2.03208e-05)
(0 -0 9.37425e-06)
(0 -0 -1.70052e-06)
(0 -0 -9.93409e-06)
(0 -0 -1.47063e-05)
(0 -0 -1.67288e-05)
(0 -0 -1.70376e-05)
(0 -0 -1.64653e-05)
(0 -0 -1.55223e-05)
(0 -0 -1.44666e-05)
(0 -0 -1.34081e-05)
(0 -0 -1.23866e-05)
(0 -0 -1.1415e-05)
(0 -0 -1.04979e-05)
(0 -0 -9.63755e-06)
(0 -0 -8.83464e-06)
(0 -0 -8.08949e-06)
(0 -0 -7.40199e-06)
(0 -0 -6.77123e-06)
(0 -0 -6.19468e-06)
(0 -0 -5.6692e-06)
(0 -0 -5.19208e-06)
(0 -0 -4.76055e-06)
(0 -0 -4.37091e-06)
(0 -0 -4.01939e-06)
(0 -0 -3.7033e-06)
(0 -0 -3.42055e-06)
(0 -0 -3.17002e-06)
(0 -0 -2.94759e-06)
(0 -0 -2.74882e-06)
(0 -0 -2.56979e-06)
(0 -0 -2.40784e-06)
(0 -0 -2.26541e-06)
(0 -0 -2.14321e-06)
(0 -0 -2.0407e-06)
(0 -0 -1.95644e-06)
(0 -0 -1.89434e-06)
(0 -0 -2.05799e-05)
(0 -0 -2.93059e-05)
(0 -0 -2.87541e-05)
(0 -0 -1.64396e-05)
(0 -0 1.93254e-06)
(0 -0 1.67229e-05)
(0 -0 2.15403e-05)
(0 -0 1.65234e-05)
(0 -0 6.24252e-06)
(0 -0 -4.31325e-06)
(0 -0 -1.22178e-05)
(0 -0 -1.68199e-05)
(0 -0 -1.87773e-05)
(0 -0 -1.90787e-05)
(0 -0 -1.85253e-05)
(0 -0 -1.76092e-05)
(0 -0 -1.65794e-05)
(0 -0 -1.55424e-05)
(0 -0 -1.45383e-05)
(0 -0 -1.35815e-05)
(0 -0 -1.26774e-05)
(0 -0 -1.18286e-05)
(0 -0 -1.10364e-05)
(0 -0 -1.03018e-05)
(0 -0 -9.62467e-06)
(0 -0 -9.00323e-06)
(0 -0 -8.43387e-06)
(0 -0 -7.91307e-06)
(0 -0 -7.43856e-06)
(0 -0 -7.00839e-06)
(0 -0 -6.61945e-06)
(0 -0 -6.26808e-06)
(0 -0 -5.9518e-06)
(0 -0 -5.6689e-06)
(0 -0 -5.41832e-06)
(0 -0 -5.19535e-06)
(0 -0 -4.99515e-06)
(0 -0 -4.81489e-06)
(0 -0 -4.65249e-06)
(0 -0 -4.51052e-06)
(0 -0 -4.38911e-06)
(0 -0 -4.28582e-06)
(0 -0 -4.19946e-06)
(0 -0 -4.13541e-06)
(0 -0 -2.34002e-05)
(0 -0 -3.25924e-05)
(0 -0 -3.29073e-05)
(0 -0 -2.15652e-05)
(0 -0 -3.8525e-06)
(0 -0 1.08487e-05)
(0 -0 1.61042e-05)
(0 -0 1.17988e-05)
(0 -0 2.22761e-06)
(0 -0 -7.78707e-06)
(0 -0 -1.536e-05)
(0 -0 -1.98027e-05)
(0 -0 -2.17125e-05)
(0 -0 -2.20261e-05)
(0 -0 -2.15097e-05)
(0 -0 -2.06362e-05)
(0 -0 -1.96457e-05)
(0 -0 -1.86433e-05)
(0 -0 -1.76703e-05)
(0 -0 -1.67423e-05)
(0 -0 -1.58652e-05)
(0 -0 -1.50413e-05)
(0 -0 -1.4272e-05)
(0 -0 -1.35585e-05)
(0 -0 -1.29007e-05)
(0 -0 -1.22959e-05)
(0 -0 -1.17401e-05)
(0 -0 -1.12301e-05)
(0 -0 -1.07647e-05)
(0 -0 -1.03424e-05)
(0 -0 -9.96031e-06)
(0 -0 -9.6147e-06)
(0 -0 -9.30338e-06)
(0 -0 -9.02493e-06)
(0 -0 -8.77787e-06)
(0 -0 -8.55717e-06)
(0 -0 -8.35822e-06)
(0 -0 -8.17954e-06)
(0 -0 -8.01978e-06)
(0 -0 -7.88084e-06)
(0 -0 -7.76171e-06)
(0 -0 -7.65821e-06)
(0 -0 -7.56947e-06)
(0 -0 -7.50238e-06)
(0 -0 -2.5641e-05)
(0 -0 -3.53685e-05)
(0 -0 -3.66389e-05)
(0 -0 -2.63351e-05)
(0 -0 -9.28819e-06)
(0 -0 5.38159e-06)
(0 -0 1.11686e-05)
(0 -0 7.66528e-06)
(0 -0 -1.13509e-06)
(0 -0 -1.05855e-05)
(0 -0 -1.78358e-05)
(0 -0 -2.21493e-05)
(0 -0 -2.40522e-05)
(0 -0 -2.44214e-05)
(0 -0 -2.39839e-05)
(0 -0 -2.3192e-05)
(0 -0 -2.2278e-05)
(0 -0 -2.13463e-05)
(0 -0 -2.04399e-05)
(0 -0 -1.95754e-05)
(0 -0 -1.87583e-05)
(0 -0 -1.79901e-05)
(0 -0 -1.72723e-05)
(0 -0 -1.66064e-05)
(0 -0 -1.59919e-05)
(0 -0 -1.54257e-05)
(0 -0 -1.49041e-05)
(0 -0 -1.44251e-05)
(0 -0 -1.3988e-05)
(0 -0 -1.35917e-05)
(0 -0 -1.32334e-05)
(0 -0 -1.29091e-05)
(0 -0 -1.26173e-05)
(0 -0 -1.23565e-05)
(0 -0 -1.21247e-05)
(0 -0 -1.1917e-05)
(0 -0 -1.17294e-05)
(0 -0 -1.15619e-05)
(0 -0 -1.14134e-05)
(0 -0 -1.12846e-05)
(0 -0 -1.11732e-05)
(0 -0 -1.1074e-05)
(0 -0 -1.09864e-05)
(0 -0 -1.09185e-05)
(0 -0 -2.28988e-05)
(0 -0 -3.32606e-05)
(0 -0 -3.56263e-05)
(0 -0 -2.64775e-05)
(0 -0 -1.01317e-05)
(0 -0 4.56051e-06)
(0 -0 1.09809e-05)
(0 -0 8.37471e-06)
(0 -0 3.9618e-07)
(0 -0 -8.49165e-06)
(0 -0 -1.54635e-05)
(0 -0 -1.97179e-05)
(0 -0 -2.16956e-05)
(0 -0 -2.22039e-05)
(0 -0 -2.19267e-05)
(0 -0 -2.12943e-05)
(0 -0 -2.0532e-05)
(0 -0 -1.97439e-05)
(0 -0 -1.89744e-05)
(0 -0 -1.82404e-05)
(0 -0 -1.75466e-05)
(0 -0 -1.6894e-05)
(0 -0 -1.6284e-05)
(0 -0 -1.57187e-05)
(0 -0 -1.51972e-05)
(0 -0 -1.47166e-05)
(0 -0 -1.42741e-05)
(0 -0 -1.38686e-05)
(0 -0 -1.35e-05)
(0 -0 -1.31675e-05)
(0 -0 -1.2868e-05)
(0 -0 -1.25982e-05)
(0 -0 -1.23568e-05)
(0 -0 -1.21426e-05)
(0 -0 -1.19526e-05)
(0 -0 -1.1783e-05)
(0 -0 -1.16308e-05)
(0 -0 -1.14962e-05)
(0 -0 -1.13788e-05)
(0 -0 -1.12774e-05)
(0 -0 -1.11889e-05)
(0 -0 -1.11079e-05)
(0 -0 -1.10344e-05)
(0 -0 -1.09767e-05)
(0 -0 -8.0116e-06)
(0 -0 -1.90957e-05)
(0 -0 -2.27042e-05)
(0 -0 -1.48506e-05)
(0 -0 7.2215e-07)
(0 -0 1.54409e-05)
(0 -0 2.25342e-05)
(0 -0 2.08483e-05)
(0 -0 1.36692e-05)
(0 -0 5.27386e-06)
(0 -0 -1.52352e-06)
(0 -0 -5.84015e-06)
(0 -0 -8.01854e-06)
(0 -0 -8.79004e-06)
(0 -0 -8.79235e-06)
(0 -0 -8.43427e-06)
(0 -0 -7.93439e-06)
(0 -0 -7.39674e-06)
(0 -0 -6.86646e-06)
(0 -0 -6.3601e-06)
(0 -0 -5.8816e-06)
(0 -0 -5.43163e-06)
(0 -0 -5.01205e-06)
(0 -0 -4.62603e-06)
(0 -0 -4.27274e-06)
(0 -0 -3.94955e-06)
(0 -0 -3.65439e-06)
(0 -0 -3.38722e-06)
(0 -0 -3.14858e-06)
(0 -0 -2.93774e-06)
(0 -0 -2.75187e-06)
(0 -0 -2.58807e-06)
(0 -0 -2.44583e-06)
(0 -0 -2.32403e-06)
(0 -0 -2.21976e-06)
(0 -0 -2.13032e-06)
(0 -0 -2.05314e-06)
(0 -0 -1.9885e-06)
(0 -0 -1.93592e-06)
(0 -0 -1.89317e-06)
(0 -0 -1.85673e-06)
(0 -0 -1.82216e-06)
(0 -0 -1.78964e-06)
(0 -0 -1.767e-06)
(0 -0 2.45735e-05)
(0 -0 1.27957e-05)
(0 -0 7.93109e-06)
(0 -0 1.44411e-05)
(0 -0 2.91636e-05)
(0 -0 4.37994e-05)
(0 -0 5.1421e-05)
(0 -0 5.04845e-05)
(0 -0 4.39256e-05)
(0 -0 3.58523e-05)
(0 -0 2.90776e-05)
(0 -0 2.45672e-05)
(0 -0 2.20732e-05)
(0 -0 2.09356e-05)
(0 -0 2.05582e-05)
(0 -0 2.0551e-05)
(0 -0 2.07006e-05)
(0 -0 2.09031e-05)
(0 -0 2.11135e-05)
(0 -0 2.13157e-05)
(0 -0 2.15065e-05)
(0 -0 2.16851e-05)
(0 -0 2.1848e-05)
(0 -0 2.19906e-05)
(0 -0 2.21134e-05)
(0 -0 2.2219e-05)
(0 -0 2.23089e-05)
(0 -0 2.23823e-05)
(0 -0 2.24377e-05)
(0 -0 2.2476e-05)
(0 -0 2.24997e-05)
(0 -0 2.25111e-05)
(0 -0 2.25096e-05)
(0 -0 2.24953e-05)
(0 -0 2.24708e-05)
(0 -0 2.24379e-05)
(0 -0 2.23992e-05)
(0 -0 2.23552e-05)
(0 -0 2.2306e-05)
(0 -0 2.22542e-05)
(0 -0 2.2203e-05)
(0 -0 2.21554e-05)
(0 -0 2.21111e-05)
(0 -0 2.20636e-05)
(0 -0 6.95216e-05)
(0 -0 5.73512e-05)
(0 -0 5.15949e-05)
(0 -0 5.7031e-05)
(0 -0 7.09277e-05)
(0 -0 8.52239e-05)
(0 -0 9.29329e-05)
(0 -0 9.22762e-05)
(0 -0 8.59621e-05)
(0 -0 7.79806e-05)
(0 -0 7.11328e-05)
(0 -0 6.64281e-05)
(0 -0 6.36731e-05)
(0 -0 6.22497e-05)
(0 -0 6.15858e-05)
(0 -0 6.13009e-05)
(0 -0 6.1184e-05)
(0 -0 6.11311e-05)
(0 -0 6.10973e-05)
(0 -0 6.10677e-05)
(0 -0 6.10398e-05)
(0 -0 6.10114e-05)
(0 -0 6.09772e-05)
(0 -0 6.09308e-05)
(0 -0 6.08724e-05)
(0 -0 6.08052e-05)
(0 -0 6.07305e-05)
(0 -0 6.06467e-05)
(0 -0 6.05518e-05)
(0 -0 6.04472e-05)
(0 -0 6.03357e-05)
(0 -0 6.02181e-05)
(0 -0 6.00926e-05)
(0 -0 5.99578e-05)
(0 -0 5.98153e-05)
(0 -0 5.96671e-05)
(0 -0 5.95167e-05)
(0 -0 5.93654e-05)
(0 -0 5.92129e-05)
(0 -0 5.90615e-05)
(0 -0 5.89134e-05)
(0 -0 5.87702e-05)
(0 -0 5.86321e-05)
(0 -0 5.84943e-05)
(0 -0 0.000103916)
(0 -0 9.20263e-05)
(0 -0 8.63405e-05)
(0 -0 9.15282e-05)
(0 -0 0.000104883)
(0 -0 0.00011849)
(0 -0 0.000125551)
(0 -0 0.000124423)
(0 -0 0.000117858)
(0 -0 0.000109817)
(0 -0 0.000103038)
(0 -0 9.84761e-05)
(0 -0 9.58974e-05)
(0 -0 9.46626e-05)
(0 -0 9.41882e-05)
(0 -0 9.40879e-05)
(0 -0 9.41469e-05)
(0 -0 9.42599e-05)
(0 -0 9.4383e-05)
(0 -0 9.45028e-05)
(0 -0 9.46171e-05)
(0 -0 9.47229e-05)
(0 -0 9.4813e-05)
(0 -0 9.48806e-05)
(0 -0 9.49256e-05)
(0 -0 9.49521e-05)
(0 -0 9.49619e-05)
(0 -0 9.49536e-05)
(0 -0 9.49262e-05)
(0 -0 9.48824e-05)
(0 -0 9.48254e-05)
(0 -0 9.47552e-05)
(0 -0 9.46683e-05)
(0 -0 9.45616e-05)
(0 -0 9.44364e-05)
(0 -0 9.42957e-05)
(0 -0 9.41447e-05)
(0 -0 9.3986e-05)
(0 -0 9.38191e-05)
(0 -0 9.36458e-05)
(0 -0 9.34675e-05)
(0 -0 9.32849e-05)
(0 -0 9.30993e-05)
(0 -0 9.29081e-05)
(0 -0 9.68799e-05)
(0 -0 8.62232e-05)
(0 -0 8.20938e-05)
(0 -0 8.84047e-05)
(0 -0 0.000101816)
(0 -0 0.000114411)
(0 -0 0.000119953)
(0 -0 0.000117489)
(0 -0 0.000110206)
(0 -0 0.000102147)
(0 -0 9.5906e-05)
(0 -0 9.2222e-05)
(0 -0 9.06857e-05)
(0 -0 9.05444e-05)
(0 -0 9.1155e-05)
(0 -0 9.21032e-05)
(0 -0 9.31631e-05)
(0 -0 9.42271e-05)
(0 -0 9.52523e-05)
(0 -0 9.62276e-05)
(0 -0 9.71521e-05)
(0 -0 9.80229e-05)
(0 -0 9.8833e-05)
(0 -0 9.95778e-05)
(0 -0 0.000100257)
(0 -0 0.000100875)
(0 -0 0.000101436)
(0 -0 0.00010194)
(0 -0 0.000102391)
(0 -0 0.000102793)
(0 -0 0.000103151)
(0 -0 0.000103464)
(0 -0 0.000103729)
(0 -0 0.00010394)
(0 -0 0.000104101)
(0 -0 0.000104215)
(0 -0 0.000104292)
(0 -0 0.000104334)
(0 -0 0.000104344)
(0 -0 0.000104322)
(0 -0 0.00010427)
(0 -0 0.000104188)
(0 -0 0.000104081)
(0 -0 0.000103946)
(0 -0 2.66425e-06)
(0 -0 1.93835e-06)
(0 -0 9.32353e-07)
(0 -0 2.68423e-07)
(0 -0 1.0547e-09)
(0 -0 -4.23744e-08)
(0 -0 2.27251e-08)
(0 -0 1.19061e-07)
(0 -0 1.99733e-07)
(0 -0 2.46268e-07)
(0 -0 2.59707e-07)
(0 -0 2.49659e-07)
(0 -0 2.26971e-07)
(0 -0 2.00071e-07)
(0 -0 1.74127e-07)
(0 -0 1.51736e-07)
(0 -0 1.33304e-07)
(0 -0 1.17935e-07)
(0 -0 1.07248e-07)
(0 -0 1.14525e-07)
(0 -0 1.84045e-07)
(0 -0 4.17604e-07)
(0 -0 9.41925e-07)
(0 -0 1.61561e-06)
(0 -0 1.31236e-06)
(0 -0 -2.4802e-06)
(0 -0 -1.15513e-05)
(0 -0 2.18688e-06)
(0 -0 1.52739e-06)
(0 -0 8.18021e-07)
(0 -0 4.3287e-07)
(0 -0 3.28477e-07)
(0 -0 3.17106e-07)
(0 -0 3.20303e-07)
(0 -0 3.08331e-07)
(0 -0 2.75163e-07)
(0 -0 2.27748e-07)
(0 -0 1.76281e-07)
(0 -0 1.2809e-07)
(0 -0 8.66116e-08)
(0 -0 5.23851e-08)
(0 -0 2.45211e-08)
(0 -0 1.75827e-09)
(0 -0 -1.77863e-08)
(0 -0 -3.61487e-08)
(0 -0 -5.16615e-08)
(0 -0 -5.01814e-08)
(0 -0 1.36999e-08)
(0 -0 2.44026e-07)
(0 -0 7.75168e-07)
(0 -0 1.48675e-06)
(0 -0 1.28882e-06)
(0 -0 -2.31268e-06)
(0 -0 -1.11899e-05)
(0 -0 1.68216e-06)
(0 -0 1.21902e-06)
(0 -0 7.76133e-07)
(0 -0 6.47959e-07)
(0 -0 6.58776e-07)
(0 -0 6.60867e-07)
(0 -0 6.12631e-07)
(0 -0 5.20725e-07)
(0 -0 4.07806e-07)
(0 -0 2.96681e-07)
(0 -0 2.02e-07)
(0 -0 1.28642e-07)
(0 -0 7.47507e-08)
(0 -0 3.57199e-08)
(0 -0 6.87229e-09)
(0 -0 -1.5804e-08)
(0 -0 -3.59892e-08)
(0 -0 -5.63993e-08)
(0 -0 -7.53118e-08)
(0 -0 -7.82347e-08)
(0 -0 -1.89994e-08)
(0 -0 2.08781e-07)
(0 -0 7.47446e-07)
(0 -0 1.4979e-06)
(0 -0 1.40625e-06)
(0 -0 -2.00347e-06)
(0 -0 -1.06893e-05)
(0 -0 1.40313e-06)
(0 -0 1.11856e-06)
(0 -0 8.80969e-07)
(0 -0 8.8135e-07)
(0 -0 9.22949e-07)
(0 -0 9.09317e-07)
(0 -0 8.25372e-07)
(0 -0 6.9386e-07)
(0 -0 5.47282e-07)
(0 -0 4.12142e-07)
(0 -0 3.02561e-07)
(0 -0 2.21144e-07)
(0 -0 1.63655e-07)
(0 -0 1.23653e-07)
(0 -0 9.50166e-08)
(0 -0 7.24868e-08)
(0 -0 5.14792e-08)
(0 -0 2.89699e-08)
(0 -0 6.84263e-09)
(0 -0 -4.26143e-11)
(0 -0 5.52808e-08)
(0 -0 2.8172e-07)
(0 -0 8.29899e-07)
(0 -0 1.62214e-06)
(0 -0 1.64043e-06)
(0 -0 -1.5744e-06)
(0 -0 -1.00649e-05)
(0 -0 1.32217e-06)
(0 -0 1.1416e-06)
(0 -0 1.03108e-06)
(0 -0 1.02797e-06)
(0 -0 1.04497e-06)
(0 -0 1.00989e-06)
(0 -0 9.15881e-07)
(0 -0 7.85306e-07)
(0 -0 6.46651e-07)
(0 -0 5.21774e-07)
(0 -0 4.21493e-07)
(0 -0 3.47079e-07)
(0 -0 2.94348e-07)
(0 -0 2.57314e-07)
(0 -0 2.30043e-07)
(0 -0 2.07094e-07)
(0 -0 1.83778e-07)
(0 -0 1.57431e-07)
(0 -0 1.30655e-07)
(0 -0 1.191e-07)
(0 -0 1.70807e-07)
(0 -0 3.97369e-07)
(0 -0 9.57707e-07)
(0 -0 1.79537e-06)
(0 -0 1.92772e-06)
(0 -0 -1.08764e-06)
(0 -0 -9.37837e-06)
(0 -0 1.30605e-06)
(0 -0 1.19285e-06)
(0 -0 1.06704e-06)
(0 -0 1.02566e-06)
(0 -0 1.01144e-06)
(0 -0 9.67798e-07)
(0 -0 8.88351e-07)
(0 -0 7.87231e-07)
(0 -0 6.82711e-07)
(0 -0 5.88832e-07)
(0 -0 5.1264e-07)
(0 -0 4.54995e-07)
(0 -0 4.12946e-07)
(0 -0 3.81837e-07)
(0 -0 3.56503e-07)
(0 -0 3.3192e-07)
(0 -0 3.04069e-07)
(0 -0 2.71531e-07)
(0 -0 2.38396e-07)
(0 -0 2.21643e-07)
(0 -0 2.70556e-07)
(0 -0 4.99298e-07)
(0 -0 1.07475e-06)
(0 -0 1.96114e-06)
(0 -0 2.21064e-06)
(0 -0 -6.02511e-07)
(0 -0 -8.69017e-06)
(0 -0 1.28757e-06)
(0 -0 1.15233e-06)
(0 -0 9.87646e-07)
(0 -0 9.04833e-07)
(0 -0 8.66425e-07)
(0 -0 8.25624e-07)
(0 -0 7.7273e-07)
(0 -0 7.11455e-07)
(0 -0 6.49039e-07)
(0 -0 5.91967e-07)
(0 -0 5.44116e-07)
(0 -0 5.06355e-07)
(0 -0 4.76969e-07)
(0 -0 4.52448e-07)
(0 -0 4.28379e-07)
(0 -0 4.00569e-07)
(0 -0 3.66459e-07)
(0 -0 3.26687e-07)
(0 -0 2.87363e-07)
(0 -0 2.66881e-07)
(0 -0 3.15505e-07)
(0 -0 5.49426e-07)
(0 -0 1.14289e-06)
(0 -0 2.08025e-06)
(0 -0 2.44798e-06)
(0 -0 -1.63139e-07)
(0 -0 -8.04812e-06)
(0 -0 1.18255e-06)
(0 -0 1.0113e-06)
(0 -0 8.07587e-07)
(0 -0 6.90345e-07)
(0 -0 6.35273e-07)
(0 -0 6.01136e-07)
(0 -0 5.73924e-07)
(0 -0 5.48187e-07)
(0 -0 5.22226e-07)
(0 -0 4.96705e-07)
(0 -0 4.73219e-07)
(0 -0 4.52603e-07)
(0 -0 4.33848e-07)
(0 -0 4.14114e-07)
(0 -0 3.89739e-07)
(0 -0 3.57858e-07)
(0 -0 3.18007e-07)
(0 -0 2.73181e-07)
(0 -0 2.3128e-07)
(0 -0 2.11479e-07)
(0 -0 2.64233e-07)
(0 -0 5.07046e-07)
(0 -0 1.12102e-06)
(0 -0 2.11026e-06)
(0 -0 2.59523e-06)
(0 -0 1.83226e-07)
(0 -0 -7.50294e-06)
(0 -0 8.92454e-07)
(0 -0 6.93379e-07)
(0 -0 4.62325e-07)
(0 -0 3.21986e-07)
(0 -0 2.56505e-07)
(0 -0 2.27961e-07)
(0 -0 2.18959e-07)
(0 -0 2.17668e-07)
(0 -0 2.16422e-07)
(0 -0 2.12141e-07)
(0 -0 2.0492e-07)
(0 -0 1.95391e-07)
(0 -0 1.82828e-07)
(0 -0 1.64945e-07)
(0 -0 1.39179e-07)
(0 -0 1.04516e-07)
(0 -0 6.2717e-08)
(0 -0 1.85571e-08)
(0 -0 -1.93389e-08)
(0 -0 -3.21502e-08)
(0 -0 2.98804e-08)
(0 -0 2.85109e-07)
(0 -0 9.21311e-07)
(0 -0 1.96224e-06)
(0 -0 2.56217e-06)
(0 -0 3.44777e-07)
(0 -0 -7.14847e-06)
(0 -0 2.15301e-07)
(0 -0 2.4093e-09)
(0 -0 -2.41758e-07)
(0 -0 -3.94095e-07)
(0 -0 -4.65161e-07)
(0 -0 -4.90473e-07)
(0 -0 -4.89303e-07)
(0 -0 -4.77091e-07)
(0 -0 -4.64847e-07)
(0 -0 -4.5775e-07)
(0 -0 -4.56695e-07)
(0 -0 -4.61288e-07)
(0 -0 -4.71942e-07)
(0 -0 -4.89979e-07)
(0 -0 -5.16297e-07)
(0 -0 -5.4992e-07)
(0 -0 -5.87513e-07)
(0 -0 -6.23778e-07)
(0 -0 -6.50735e-07)
(0 -0 -6.50895e-07)
(0 -0 -5.75623e-07)
(0 -0 -3.05711e-07)
(0 -0 3.53421e-07)
(0 -0 1.44519e-06)
(0 -0 2.15742e-06)
(0 -0 1.29839e-07)
(0 -0 -7.17711e-06)
(0 -0 -1.18661e-06)
(0 -0 -1.39989e-06)
(0 -0 -1.64484e-06)
(0 -0 -1.80009e-06)
(0 -0 -1.87263e-06)
(0 -0 -1.89567e-06)
(0 -0 -1.88894e-06)
(0 -0 -1.86954e-06)
(0 -0 -1.85015e-06)
(0 -0 -1.83724e-06)
(0 -0 -1.83242e-06)
(0 -0 -1.83539e-06)
(0 -0 -1.84578e-06)
(0 -0 -1.86337e-06)
(0 -0 -1.88717e-06)
(0 -0 -1.91473e-06)
(0 -0 -1.94226e-06)
(0 -0 -1.96519e-06)
(0 -0 -1.97705e-06)
(0 -0 -1.96194e-06)
(0 -0 -1.87217e-06)
(0 -0 -1.58736e-06)
(0 -0 -9.05893e-07)
(0 -0 2.35256e-07)
(0 -0 1.05715e-06)
(0 -0 -7.85098e-07)
(0 -0 -7.91272e-06)
(0 -0 -3.68806e-06)
(0 -0 -3.88781e-06)
(0 -0 -4.12166e-06)
(0 -0 -4.27072e-06)
(0 -0 -4.33878e-06)
(0 -0 -4.35629e-06)
(0 -0 -4.34247e-06)
(0 -0 -4.31505e-06)
(0 -0 -4.28782e-06)
(0 -0 -4.26837e-06)
(0 -0 -4.25895e-06)
(0 -0 -4.25896e-06)
(0 -0 -4.26686e-06)
(0 -0 -4.28068e-06)
(0 -0 -4.29795e-06)
(0 -0 -4.3156e-06)
(0 -0 -4.33032e-06)
(0 -0 -4.33878e-06)
(0 -0 -4.33599e-06)
(0 -0 -4.30726e-06)
(0 -0 -4.20528e-06)
(0 -0 -3.90813e-06)
(0 -0 -3.207e-06)
(0 -0 -2.0192e-06)
(0 -0 -1.09058e-06)
(0 -0 -2.75159e-06)
(0 -0 -9.70764e-06)
(0 -0 -7.23302e-06)
(0 -0 -7.40054e-06)
(0 -0 -7.60739e-06)
(0 -0 -7.73669e-06)
(0 -0 -7.78861e-06)
(0 -0 -7.79032e-06)
(0 -0 -7.76002e-06)
(0 -0 -7.71591e-06)
(0 -0 -7.673e-06)
(0 -0 -7.64006e-06)
(0 -0 -7.61983e-06)
(0 -0 -7.6112e-06)
(0 -0 -7.61137e-06)
(0 -0 -7.61705e-06)
(0 -0 -7.62495e-06)
(0 -0 -7.63203e-06)
(0 -0 -7.63567e-06)
(0 -0 -7.63351e-06)
(0 -0 -7.62143e-06)
(0 -0 -7.58526e-06)
(0 -0 -7.47757e-06)
(0 -0 -7.1745e-06)
(0 -0 -6.45977e-06)
(0 -0 -5.23042e-06)
(0 -0 -4.19844e-06)
(0 -0 -5.68098e-06)
(0 -0 -1.24738e-05)
(0 -0 -1.02625e-05)
(0 -0 -1.03719e-05)
(0 -0 -1.05289e-05)
(0 -0 -1.06179e-05)
(0 -0 -1.06348e-05)
(0 -0 -1.06033e-05)
(0 -0 -1.05406e-05)
(0 -0 -1.04657e-05)
(0 -0 -1.0395e-05)
(0 -0 -1.03382e-05)
(0 -0 -1.02985e-05)
(0 -0 -1.02741e-05)
(0 -0 -1.02614e-05)
(0 -0 -1.02563e-05)
(0 -0 -1.02551e-05)
(0 -0 -1.0255e-05)
(0 -0 -1.02536e-05)
(0 -0 -1.0249e-05)
(0 -0 -1.02374e-05)
(0 -0 -1.02046e-05)
(0 -0 -1.01024e-05)
(0 -0 -9.80457e-06)
(0 -0 -9.0865e-06)
(0 -0 -7.82314e-06)
(0 -0 -6.69002e-06)
(0 -0 -7.99176e-06)
(0 -0 -1.46266e-05)
(0 -0 -8.33461e-06)
(0 -0 -8.36133e-06)
(0 -0 -8.44622e-06)
(0 -0 -8.47454e-06)
(0 -0 -8.43796e-06)
(0 -0 -8.35706e-06)
(0 -0 -8.24847e-06)
(0 -0 -8.13193e-06)
(0 -0 -8.02499e-06)
(0 -0 -7.93823e-06)
(0 -0 -7.87466e-06)
(0 -0 -7.83218e-06)
(0 -0 -7.80644e-06)
(0 -0 -7.79289e-06)
(0 -0 -7.78758e-06)
(0 -0 -7.78752e-06)
(0 -0 -7.79063e-06)
(0 -0 -7.79512e-06)
(0 -0 -7.79705e-06)
(0 -0 -7.78164e-06)
(0 -0 -7.6996e-06)
(0 -0 -7.42144e-06)
(0 -0 -6.71253e-06)
(0 -0 -5.42226e-06)
(0 -0 -4.18434e-06)
(0 -0 -5.29018e-06)
(0 -0 -1.17595e-05)
(0 -0 5.88451e-06)
(0 -0 5.93298e-06)
(0 -0 5.91419e-06)
(0 -0 5.94082e-06)
(0 -0 6.02468e-06)
(0 -0 6.1475e-06)
(0 -0 6.2929e-06)
(0 -0 6.44054e-06)
(0 -0 6.57227e-06)
(0 -0 6.67741e-06)
(0 -0 6.75328e-06)
(0 -0 6.8025e-06)
(0 -0 6.83001e-06)
(0 -0 6.84087e-06)
(0 -0 6.83925e-06)
(0 -0 6.82797e-06)
(0 -0 6.80868e-06)
(0 -0 6.78284e-06)
(0 -0 6.75464e-06)
(0 -0 6.73981e-06)
(0 -0 6.78947e-06)
(0 -0 7.03727e-06)
(0 -0 7.72974e-06)
(0 -0 9.04758e-06)
(0 -0 1.04068e-05)
(0 -0 9.53305e-06)
(0 -0 3.2655e-06)
(0 -0 3.834e-05)
(0 -0 3.83719e-05)
(0 -0 3.83375e-05)
(0 -0 3.8345e-05)
(0 -0 3.84074e-05)
(0 -0 3.85074e-05)
(0 -0 3.86286e-05)
(0 -0 3.87505e-05)
(0 -0 3.88549e-05)
(0 -0 3.89318e-05)
(0 -0 3.89789e-05)
(0 -0 3.89997e-05)
(0 -0 3.89997e-05)
(0 -0 3.89842e-05)
(0 -0 3.89569e-05)
(0 -0 3.89197e-05)
(0 -0 3.8873e-05)
(0 -0 3.88175e-05)
(0 -0 3.87577e-05)
(0 -0 3.87105e-05)
(0 -0 3.8729e-05)
(0 -0 3.89515e-05)
(0 -0 3.96375e-05)
(0 -0 4.10003e-05)
(0 -0 4.25118e-05)
(0 -0 4.19227e-05)
(0 -0 3.59286e-05)
(0 -0 8.43039e-05)
(0 -0 8.41068e-05)
(0 -0 8.3866e-05)
(0 -0 8.36828e-05)
(0 -0 8.35673e-05)
(0 -0 8.35017e-05)
(0 -0 8.3469e-05)
(0 -0 8.34483e-05)
(0 -0 8.34222e-05)
(0 -0 8.33811e-05)
(0 -0 8.33236e-05)
(0 -0 8.32537e-05)
(0 -0 8.3177e-05)
(0 -0 8.30981e-05)
(0 -0 8.30191e-05)
(0 -0 8.29396e-05)
(0 -0 8.2858e-05)
(0 -0 8.27738e-05)
(0 -0 8.26913e-05)
(0 -0 8.26281e-05)
(0 -0 8.26391e-05)
(0 -0 8.28663e-05)
(0 -0 8.35798e-05)
(0 -0 8.50207e-05)
(0 -0 8.67103e-05)
(0 -0 8.64321e-05)
(0 -0 8.0783e-05)
(0 -0 0.00012142)
(0 -0 0.000120708)
(0 -0 0.000120004)
(0 -0 0.0001194)
(0 -0 0.000118899)
(0 -0 0.000118481)
(0 -0 0.000118128)
(0 -0 0.000117817)
(0 -0 0.000117531)
(0 -0 0.000117263)
(0 -0 0.000117009)
(0 -0 0.000116775)
(0 -0 0.000116564)
(0 -0 0.00011638)
(0 -0 0.000116221)
(0 -0 0.000116085)
(0 -0 0.000115966)
(0 -0 0.000115862)
(0 -0 0.000115777)
(0 -0 0.000115728)
(0 -0 0.000115771)
(0 -0 0.000116048)
(0 -0 0.000116833)
(0 -0 0.000118376)
(0 -0 0.000120213)
(0 -0 0.000120157)
(0 -0 0.000114826)
(0 -0 0.000118781)
(0 -0 0.000117354)
(0 -0 0.000116012)
(0 -0 0.000114829)
(0 -0 0.000113803)
(0 -0 0.000112909)
(0 -0 0.000112125)
(0 -0 0.000111428)
(0 -0 0.000110802)
(0 -0 0.000110236)
(0 -0 0.00010973)
(0 -0 0.000109285)
(0 -0 0.000108906)
(0 -0 0.000108591)
(0 -0 0.000108335)
(0 -0 0.000108133)
(0 -0 0.000107977)
(0 -0 0.000107862)
(0 -0 0.000107791)
(0 -0 0.000107778)
(0 -0 0.000107879)
(0 -0 0.000108234)
(0 -0 0.000109108)
(0 -0 0.000110721)
(0 -0 0.000112565)
(0 -0 0.000112454)
(0 -0 0.000107213)
(0 -0 6.57484e-05)
(0 -0 6.36891e-05)
(0 -0 6.17771e-05)
(0 -0 6.00816e-05)
(0 -0 5.8592e-05)
(0 -0 5.72784e-05)
(0 -0 5.61163e-05)
(0 -0 5.5082e-05)
(0 -0 5.4157e-05)
(0 -0 5.33315e-05)
(0 -0 5.26034e-05)
(0 -0 5.1974e-05)
(0 -0 5.14438e-05)
(0 -0 5.10097e-05)
(0 -0 5.06648e-05)
(0 -0 5.03999e-05)
(0 -0 5.02058e-05)
(0 -0 5.00764e-05)
(0 -0 5.00115e-05)
(0 -0 5.00252e-05)
(0 -0 5.01692e-05)
(0 -0 5.05786e-05)
(0 -0 5.14962e-05)
(0 -0 5.30779e-05)
(0 -0 5.46946e-05)
(0 -0 5.41246e-05)
(0 -0 4.85821e-05)
(0 -0 -1.62779e-05)
(0 -0 -1.86208e-05)
(0 -0 -2.07948e-05)
(0 -0 -2.27234e-05)
(0 -0 -2.4423e-05)
(0 -0 -2.59258e-05)
(0 -0 -2.72575e-05)
(0 -0 -2.84428e-05)
(0 -0 -2.95007e-05)
(0 -0 -3.04416e-05)
(0 -0 -3.12687e-05)
(0 -0 -3.19818e-05)
(0 -0 -3.2582e-05)
(0 -0 -3.30738e-05)
(0 -0 -3.3465e-05)
(0 -0 -3.37652e-05)
(0 -0 -3.39837e-05)
(0 -0 -3.41278e-05)
(0 -0 -3.41991e-05)
(0 -0 -3.41853e-05)
(0 -0 -3.40373e-05)
(0 -0 -3.36273e-05)
(0 -0 -3.27419e-05)
(0 -0 -3.13126e-05)
(0 -0 -3.01309e-05)
(0 -0 -3.14834e-05)
(0 -0 -3.76652e-05)
(0 -0 -8.81502e-05)
(0 -0 -9.03586e-05)
(0 -0 -9.24099e-05)
(0 -0 -9.42287e-05)
(0 -0 -9.58288e-05)
(0 -0 -9.72408e-05)
(0 -0 -9.84901e-05)
(0 -0 -9.96009e-05)
(0 -0 -0.000100593)
(0 -0 -0.000101476)
(0 -0 -0.000102255)
(0 -0 -0.00010293)
(0 -0 -0.000103502)
(0 -0 -0.000103977)
(0 -0 -0.000104361)
(0 -0 -0.000104662)
(0 -0 -0.000104887)
(0 -0 -0.000105045)
(0 -0 -0.000105136)
(0 -0 -0.000105151)
(0 -0 -0.00010504)
(0 -0 -0.000104685)
(0 -0 -0.000103901)
(0 -0 -0.000102706)
(0 -0 -0.000102058)
(0 -0 -0.000104313)
(0 -0 -0.00011128)
(0 -0 -0.000119332)
(0 -0 -0.000121099)
(0 -0 -0.000122749)
(0 -0 -0.000124206)
(0 -0 -0.00012548)
(0 -0 -0.000126596)
(0 -0 -0.000127577)
(0 -0 -0.000128447)
(0 -0 -0.000129224)
(0 -0 -0.000129919)
(0 -0 -0.000130536)
(0 -0 -0.000131077)
(0 -0 -0.000131545)
(0 -0 -0.00013194)
(0 -0 -0.000132269)
(0 -0 -0.000132535)
(0 -0 -0.000132745)
(0 -0 -0.000132904)
(0 -0 -0.000133014)
(0 -0 -0.000133064)
(0 -0 -0.000133007)
(0 -0 -0.000132727)
(0 -0 -0.000132064)
(0 -0 -0.000131101)
(0 -0 -0.00013092)
(0 -0 -0.000133936)
(0 -0 -0.000141591)
(0 -0 -0.000107921)
(0 -0 -0.000109164)
(0 -0 -0.000110337)
(0 -0 -0.000111365)
(0 -0 -0.000112251)
(0 -0 -0.000113015)
(0 -0 -0.000113677)