/*--------------------------------*- C++ -*----------------------------------*\
| =========                 |                                                 |
| \\      /  F ield         | OpenFOAM: The Open Source CFD Toolbox           |
|  \\    /   O peration     | Version:  2412                                  |
|   \\  /    A nd           | Website:  www.openfoam.com                      |
|    \\/     M anipulation  |                                                 |
\*---------------------------------------------------------------------------*/
FoamFile
{
    version     2.0;
    format      ascii;
    arch        "LSB;label=32;scalar=64";
    class       volScalarField;
    location    "19.5";
    object      p;
}
// * * * * * * * * * * * * * * * * * * * * * * * * * * * * * * * * * * * * * //

dimensions      [0 2 -2 0 0 0 0];

internalField   nonuniform List<scalar> 
5285
(
0.00104484
0.00104534
0.00104555
0.00104545
0.00104499
0.00104414
0.00104288
0.00104115
0.00103893
0.00103616
0.00103279
0.00102879
0.00102409
0.00101864
0.00101238
0.00100524
0.00102973
0.00102976
0.00102948
0.00102888
0.00102791
0.00102655
0.00102476
0.0010225
0.00101974
0.00101643
0.00101252
0.00100798
0.00100273
0.000996747
0.000989956
0.000982304
0.00101487
0.00101444
0.00101371
0.00101264
0.00101119
0.00100935
0.00100707
0.00100432
0.00100105
0.000997241
0.000992835
0.000987789
0.000982055
0.000975582
0.000968318
0.000960207
0.00100026
0.000999412
0.000998244
0.000996729
0.000994837
0.000992539
0.000989802
0.00098659
0.000982866
0.000978592
0.000973727
0.000968227
0.000962046
0.000955137
0.000947449
0.000938932
0.000985921
0.000984669
0.000983092
0.000981162
0.000978852
0.000976131
0.000972968
0.000969329
0.00096518
0.000960482
0.000955198
0.000949285
0.000942701
0.0009354
0.000927337
0.000918461
0.000971855
0.000970223
0.000968262
0.000965943
0.000963241
0.000960126
0.000956569
0.000952536
0.000947995
0.00094291
0.000937244
0.000930957
0.000924011
0.000916361
0.000907965
0.000898778
0.000958069
0.000956081
0.000953759
0.000951077
0.00094801
0.000944529
0.000940607
0.000936211
0.000931311
0.000925872
0.00091986
0.000913237
0.000905966
0.000898007
0.00088932
0.000879862
0.000944571
0.000942247
0.000939587
0.000936566
0.000933159
0.00092934
0.000925081
0.000920352
0.000915123
0.000909363
0.000903038
0.000896113
0.000888554
0.000880323
0.000871382
0.000861693
0.000931362
0.000928725
0.000925749
0.000922413
0.000918691
0.000914559
0.00090999
0.000904956
0.000899428
0.000893376
0.00088677
0.000879576
0.000871762
0.000863293
0.000854134
0.000844249
0.000918448
0.000915516
0.000912247
0.000908617
0.000904604
0.000900183
0.00089533
0.000890017
0.000884218
0.000877904
0.000871046
0.000863614
0.000855576
0.000846901
0.000837556
0.000827508
0.000905828
0.000902622
0.00089908
0.000895178
0.000890896
0.000886211
0.000881097
0.000875531
0.000869487
0.000862938
0.000855856
0.000848213
0.000839981
0.000831129
0.000821628
0.000811447
0.000893505
0.000890044
0.000886247
0.000882095
0.000877566
0.000872637
0.000867287
0.000861492
0.000855227
0.000848467
0.000841188
0.000833361
0.000824961
0.00081596
0.00080633
0.000796044
0.000881477
0.00087778
0.000873749
0.000869365
0.000864608
0.000859458
0.000853893
0.000847891
0.000841428
0.000834482
0.000827029
0.000819043
0.0008105
0.000801375
0.000791642
0.000781275
0.000869746
0.000865828
0.000861581
0.000856984
0.00085202
0.000846668
0.000840909
0.000834721
0.000828082
0.000820972
0.000813367
0.000805245
0.000796582
0.000787356
0.000777543
0.000767119
0.000858308
0.000854188
0.000849741
0.000844949
0.000839795
0.000834261
0.000828326
0.000821972
0.000815178
0.000807924
0.000800189
0.000791952
0.000783191
0.000773884
0.000764012
0.000753551
0.000847163
0.000842855
0.000838225
0.000833255
0.000827929
0.00082223
0.000816139
0.000809637
0.000802707
0.000795328
0.000787482
0.000779148
0.000770308
0.000760941
0.000751029
0.00074055
0.000836306
0.000831826
0.000827029
0.000821897
0.000816416
0.000810568
0.000804337
0.000797705
0.000790656
0.00078317
0.000775231
0.00076682
0.000757918
0.000748509
0.000738573
0.000728094
0.000825736
0.000821098
0.000816148
0.000810869
0.000805247
0.000799267
0.000792912
0.000786167
0.000779015
0.000771439
0.000763423
0.000754951
0.000746005
0.000736568
0.000726626
0.000716161
0.000815449
0.000810667
0.000805577
0.000800165
0.000794418
0.00078832
0.000781857
0.000775013
0.000767773
0.000760123
0.000752045
0.000743526
0.00073455
0.000725102
0.000715167
0.00070473
0.00080544
0.000800526
0.000795311
0.00078978
0.00078392
0.000777718
0.00077116
0.000764232
0.000756919
0.000749207
0.000741083
0.000732532
0.000723539
0.000714092
0.000704177
0.000693781
0.000902355
0.000902504
0.000902972
0.000903695
0.00090466
0.000905858
0.000907274
0.000908898
0.000910719
0.000900329
0.000900472
0.000900924
0.000901621
0.000902552
0.000903706
0.000905071
0.000906636
0.000908389
0.000910321
0.000912421
0.000914679
0.000917086
0.000919633
0.000922309
0.000925108
0.000928022
0.000931044
0.000934168
0.000937388
0.000940698
0.000944091
0.00094756
0.000951097
0.000954695
0.000958345
0.000962039
0.000965768
0.000969523
0.000973294
0.000977072
0.000980848
0.000984612
0.000988355
0.000992066
0.000995736
0.000999355
0.00100291
0.0010064
0.0010098
0.00101311
0.00101632
0.00101942
0.00102239
0.00102523
0.00102793
0.00103047
0.00103285
0.00103505
0.00103707
0.0010389
0.00104052
0.00104193
0.00104313
0.00104409
0.000898267
0.000898405
0.00089884
0.000899511
0.000900407
0.000901518
0.000902831
0.000904335
0.00090602
0.000907875
0.000909891
0.000912057
0.000914364
0.000916802
0.000919362
0.000922036
0.000924818
0.000927699
0.000930675
0.000933738
0.000936883
0.000940102
0.000943389
0.000946736
0.000950135
0.000953577
0.000957054
0.000960557
0.000964076
0.000967602
0.000971126
0.000974638
0.000978129
0.000981589
0.000985007
0.000988375
0.000991682
0.000994919
0.000998074
0.00100114
0.0010041
0.00100695
0.00100968
0.00101228
0.00101474
0.00101705
0.00101919
0.00102117
0.00102296
0.00102456
0.00102597
0.00102717
0.00102815
0.00102891
0.00102943
0.00089617
0.000896303
0.000896721
0.000897366
0.000898227
0.000899294
0.000900555
0.000901998
0.000903614
0.000905393
0.000907324
0.000909397
0.000911603
0.000913932
0.000916375
0.000918925
0.000921574
0.000924314
0.000927141
0.000930048
0.000933027
0.000936074
0.000939179
0.000942337
0.000945537
0.000948773
0.000952034
0.000955312
0.000958597
0.000961881
0.000965153
0.000968404
0.000971625
0.000974805
0.000977936
0.000981006
0.000984007
0.000986928
0.000989759
0.000992491
0.000995114
0.000997617
0.000999991
0.00100223
0.00100431
0.00100624
0.001008
0.00100959
0.00101098
0.00101219
0.00101319
0.00101398
0.00101455
0.00101489
0.001015
0.00089404
0.000894167
0.000894568
0.000895188
0.000896013
0.000897036
0.000898244
0.000899627
0.000901174
0.000902875
0.000904721
0.000906701
0.000908805
0.000911025
0.000913352
0.000915776
0.000918292
0.000920892
0.00092357
0.00092632
0.000929136
0.000932009
0.000934934
0.000937903
0.000940906
0.000943936
0.000946983
0.000950038
0.000953092
0.000956135
0.000959158
0.000962152
0.000965106
0.000968011
0.000970858
0.000973636
0.000976336
0.000978948
0.000981463
0.00098387
0.00098616
0.000988324
0.000990351
0.000992232
0.000993959
0.000995522
0.000996911
0.000998119
0.000999136
0.000999955
0.00100057
0.00100097
0.00100114
0.00100109
0.00100081
0.000891878
0.000892
0.000892384
0.000892977
0.000893767
0.000894746
0.000895901
0.000897222
0.0008987
0.000900324
0.000902084
0.00090397
0.000905973
0.000908084
0.000910293
0.000912593
0.000914976
0.000917435
0.000919965
0.000922559
0.00092521
0.000927912
0.000930658
0.000933438
0.000936246
0.000939071
0.000941906
0.00094474
0.000947565
0.000950371
0.000953148
0.000955887
0.000958579
0.000961213
0.000963781
0.000966272
0.000968678
0.000970988
0.000973192
0.000975282
0.000977249
0.000979082
0.000980772
0.000982311
0.000983689
0.000984898
0.000985929
0.000986774
0.000987426
0.000987875
0.000988116
0.00098814
0.000987942
0.000987514
0.000986853
0.000889685
0.000889802
0.000890169
0.000890735
0.00089149
0.000892424
0.000893526
0.000894786
0.000896194
0.00089774
0.000899415
0.000901208
0.00090311
0.000905111
0.000907203
0.000909377
0.000911628
0.000913947
0.000916328
0.000918767
0.000921255
0.000923786
0.000926352
0.000928946
0.000931559
0.000934183
0.000936807
0.000939423
0.000942021
0.000944593
0.000947128
0.000949616
0.00095205
0.000954418
0.000956712
0.000958922
0.000961039
0.000963054
0.000964956
0.000966737
0.000968388
0.0009699
0.000971263
0.00097247
0.000973512
0.000974379
0.000975066
0.000975562
0.000975862
0.000975958
0.000975843
0.000975511
0.000974955
0.000974171
0.000973153
0.000887463
0.000887574
0.000887924
0.000888464
0.000889183
0.000890073
0.000891122
0.00089232
0.000893659
0.000895127
0.000896716
0.000898415
0.000900215
0.000902107
0.000904082
0.000906132
0.00090825
0.000910429
0.000912663
0.000914946
0.000917272
0.000919633
0.000922022
0.000924431
0.000926852
0.000929275
0.000931691
0.000934092
0.000936467
0.000938807
0.000941103
0.000943345
0.000945525
0.000947632
0.000949658
0.000951593
0.000953428
0.000955154
0.000956761
0.000958242
0.000959587
0.000960787
0.000961834
0.000962719
0.000963436
0.000963975
0.000964329
0.000964491
0.000964454
0.000964212
0.000963758
0.000963086
0.000962191
0.000961068
0.000959713
0.000885213
0.000885319
0.000885651
0.000886165
0.000886848
0.000887693
0.000888689
0.000889826
0.000891095
0.000892486
0.000893989
0.000895594
0.000897293
0.000899076
0.000900934
0.000902859
0.000904845
0.000906885
0.000908972
0.000911101
0.000913266
0.000915458
0.000917671
0.000919897
0.000922127
0.000924352
0.000926563
0.000928751
0.000930905
0.000933018
0.000935079
0.000937079
0.00093901
0.000940861
0.000942625
0.000944291
0.00094585
0.000947295
0.000948616
0.000949804
0.000950851
0.000951749
0.00095249
0.000953066
0.000953469
0.000953692
0.000953727
0.000953569
0.00095321
0.000952645
0.000951867
0.000950873
0.000949656
0.000948213
0.00094654
0.000882937
0.000883037
0.000883352
0.000883839
0.000884487
0.000885287
0.00088623
0.000887306
0.000888505
0.000889818
0.000891235
0.000892747
0.000894345
0.000896019
0.00089776
0.000899562
0.000901416
0.000903317
0.000905258
0.000907234
0.000909239
0.000911264
0.000913303
0.000915348
0.000917389
0.000919419
0.000921427
0.000923404
0.000925342
0.000927231
0.000929061
0.000930824
0.00093251
0.000934111
0.000935618
0.000937021
0.000938312
0.000939483
0.000940525
0.00094143
0.000942189
0.000942795
0.00094324
0.000943517
0.000943618
0.000943537
0.000943267
0.000942802
0.000942136
0.000941263
0.000940178
0.000938877
0.000937356
0.00093561
0.000933637
0.000880635
0.00088073
0.000881028
0.000881488
0.0008821
0.000882856
0.000883746
0.00088476
0.000885889
0.000887125
0.000888457
0.000889876
0.000891373
0.000892938
0.000894564
0.000896241
0.000897965
0.000899728
0.000901524
0.000903348
0.000905194
0.000907054
0.000908921
0.000910786
0.000912641
0.000914478
0.000916286
0.000918057
0.000919781
0.00092145
0.000923054
0.000924584
0.000926032
0.000927387
0.000928643
0.00092979
0.00093082
0.000931725
0.000932496
0.000933126
0.000933606
0.00093393
0.00093409
0.000934079
0.000933891
0.000933518
0.000932955
0.000932197
0.000931237
0.000930071
0.000928695
0.000927104
0.000925295
0.000923264
0.000921009
0.00087831
0.000878399
0.00087868
0.000879114
0.00087969
0.000880401
0.000881238
0.000882191
0.000883251
0.000884409
0.000885656
0.000886982
0.000888379
0.000889836
0.000891346
0.000892901
0.000894494
0.00089612
0.000897773
0.000899446
0.000901135
0.000902831
0.000904527
0.000906216
0.000907888
0.000909534
0.000911145
0.000912713
0.000914228
0.000915681
0.000917062
0.000918364
0.000919578
0.000920695
0.000921706
0.000922604
0.00092338
0.000924026
0.000924534
0.000924898
0.000925109
0.000925161
0.000925046
0.000924758
0.000924291
0.000923639
0.000922797
0.000921758
0.000920519
0.000919076
0.000917423
0.000915557
0.000913476
0.000911177
0.000908658
0.000875962
0.000876046
0.00087631
0.000876717
0.000877257
0.000877924
0.000878708
0.0008796
0.000880591
0.000881672
0.000882834
0.000884068
0.000885365
0.000886714
0.000888109
0.000889542
0.000891006
0.000892496
0.000894006
0.000895531
0.000897064
0.000898598
0.000900126
0.00090164
0.000903131
0.00090459
0.000906008
0.000907376
0.000908685
0.000909926
0.000911091
0.00091217
0.000913155
0.000914038
0.000914812
0.000915467
0.000915995
0.000916391
0.000916645
0.000916751
0.000916702
0.000916491
0.000916112
0.000915559
0.000914825
0.000913906
0.000912797
0.000911492
0.000909987
0.000908279
0.000906365
0.00090424
0.000901903
0.000899352
0.000896585
0.000873593
0.000873672
0.000873919
0.000874299
0.000874804
0.000875426
0.000876158
0.000876988
0.000877911
0.000878915
0.000879993
0.000881135
0.000882332
0.000883575
0.000884856
0.000886167
0.000887503
0.000888858
0.000890227
0.000891604
0.000892984
0.000894358
0.000895721
0.000897063
0.000898375
0.00089965
0.000900878
0.00090205
0.000903157
0.000904191
0.000905143
0.000906004
0.000906767
0.000907423
0.000907964
0.000908383
0.000908672
0.000908825
0.000908833
0.000908691
0.000908391
0.000907927
0.000907294
0.000906486
0.000905497
0.000904323
0.000902959
0.0009014
0.000899644
0.000897686
0.000895524
0.000893155
0.000890577
0.00088779
0.000884791
0.000871205
0.000871278
0.000871508
0.000871862
0.000872331
0.00087291
0.000873588
0.000874359
0.000875212
0.000876141
0.000877135
0.000878186
0.000879284
0.000880421
0.000881588
0.000882779
0.000883988
0.00088521
0.000886439
0.00088767
0.000888898
0.000890115
0.000891314
0.000892486
0.000893624
0.000894718
0.000895759
0.000896739
0.000897649
0.000898479
0.000899223
0.000899872
0.000900417
0.000900852
0.000901168
0.000901358
0.000901415
0.000901332
0.000901103
0.000900721
0.000900179
0.000899473
0.000898596
0.000897544
0.000896311
0.000894893
0.000893287
0.000891487
0.000889492
0.000887297
0.000884902
0.000882303
0.0008795
0.000876491
0.000873277
0.000868798
0.000868866
0.000869079
0.000869406
0.00086984
0.000870375
0.000871001
0.000871711
0.000872497
0.00087335
0.000874261
0.000875221
0.000876221
0.000877253
0.000878308
0.00087938
0.000880463
0.000881552
0.000882643
0.00088373
0.000884808
0.00088587
0.000886908
0.000887914
0.000888879
0.000889796
0.000890654
0.000891446
0.000892162
0.000892794
0.000893335
0.000893777
0.000894111
0.00089433
0.000894427
0.000894395
0.000894228
0.000893918
0.000893459
0.000892846
0.000892072
0.000891132
0.000890022
0.000888736
0.00088727
0.000885621
0.000883783
0.000881755
0.000879534
0.000877116
0.000874501
0.000871687
0.000868672
0.000865457
0.000862041
0.000866375
0.000866437
0.000866633
0.000866934
0.000867333
0.000867824
0.000868399
0.000869049
0.000869767
0.000870544
0.000871373
0.000872243
0.000873147
0.000874074
0.000875017
0.000875971
0.000876929
0.000877887
0.000878842
0.000879787
0.000880718
0.000881626
0.000882506
0.000883349
0.000884145
0.000884887
0.000885566
0.000886174
0.000886701
0.00088714
0.000887483
0.000887722
0.00088785
0.000887861
0.000887745
0.000887499
0.000887113
0.000886584
0.000885904
0.000885068
0.000884072
0.000882909
0.000881575
0.000880066
0.000878378
0.000876507
0.000874451
0.000872206
0.000869771
0.000867143
0.000864322
0.000861305
0.000858093
0.000854685
0.000851082
0.000863935
0.000863992
0.000864171
0.000864446
0.000864811
0.000865258
0.000865781
0.000866372
0.000867023
0.000867726
0.000868473
0.000869254
0.000870061
0.000870885
0.000871718
0.000872554
0.000873389
0.000874218
0.000875038
0.000875843
0.000876629
0.000877387
0.000878111
0.000878793
0.000879424
0.000879996
0.000880499
0.000880926
0.000881269
0.000881519
0.000881669
0.000881712
0.00088164
0.000881447
0.000881127
0.000880672
0.000880076
0.000879335
0.000878442
0.000877393
0.000876182
0.000874805
0.000873257
0.000871535
0.000869636
0.000867555
0.000865292
0.000862842
0.000860205
0.00085738
0.000854364
0.000851158
0.000847761
0.000844174
0.000840398
0.000861482
0.000861533
0.000861695
0.000861945
0.000862275
0.000862679
0.000863151
0.000863683
0.000864267
0.000864896
0.000865562
0.000866255
0.000866967
0.000867688
0.000868412
0.000869133
0.000869846
0.000870547
0.000871234
0.000871902
0.000872544
0.000873155
0.000873726
0.00087425
0.000874719
0.000875123
0.000875455
0.000875706
0.000875869
0.000875935
0.000875897
0.000875749
0.000875483
0.000875093
0.000874573
0.000873917
0.000873119
0.000872174
0.000871077
0.000869822
0.000868405
0.000866823
0.000865071
0.000863147
0.000861046
0.000858767
0.000856307
0.000853664
0.000850837
0.000847825
0.000844628
0.000841245
0.000837676
0.000833923
0.000829987
0.000859015
0.000859061
0.000859207
0.000859431
0.000859726
0.000860088
0.000860509
0.000860982
0.000861501
0.000862057
0.000862642
0.000863248
0.000863866
0.000864486
0.000865101
0.000865708
0.0008663
0.000866876
0.000867432
0.000867964
0.000868466
0.000868931
0.000869353
0.000869723
0.000870032
0.000870273
0.000870437
0.000870517
0.000870503
0.00087039
0.00087017
0.000869836
0.000869382
0.000868802
0.000868089
0.000867239
0.000866245
0.000865104
0.000863809
0.000862358
0.000860745
0.000858967
0.00085702
0.000854902
0.000852611
0.000850143
0.000847497
0.000844672
0.000841666
0.00083848
0.000835113
0.000831564
0.000827836
0.000823929
0.000819845
0.000856537
0.000856578
0.000856707
0.000856905
0.000857167
0.000857486
0.000857857
0.000858272
0.000858725
0.000859209
0.000859715
0.000860235
0.000860759
0.000861279
0.000861788
0.000862281
0.000862755
0.000863207
0.000863634
0.000864032
0.000864396
0.000864719
0.000864994
0.000865213
0.000865367
0.000865448
0.000865448
0.00086536
0.000865176
0.000864888
0.00086449
0.000863976
0.00086334
0.000862575
0.000861677
0.000860639
0.000859457
0.000858127
0.000856643
0.000855003
0.000853202
0.000851237
0.000849105
0.000846804
0.000844331
0.000841684
0.000838863
0.000835866
0.000832693
0.000829343
0.000825817
0.000822115
0.000818239
0.00081419
0.00080997
0.0008541
0.000854136
0.000854249
0.000854422
0.000854651
0.000854929
0.000855251
0.00085561
0.000856
0.000856413
0.000856842
0.000857278
0.000857712
0.000858135
0.000858541
0.000858925
0.000859285
0.000859617
0.00085992
0.00086019
0.000860421
0.000860608
0.000860742
0.000860815
0.00086082
0.000860749
0.000860593
0.000860344
0.000859997
0.000859543
0.000858977
0.000858292
0.000857482
0.000856543
0.000855468
0.000854254
0.000852894
0.000851386
0.000849725
0.000847908
0.000845931
0.000843791
0.000841487
0.000839015
0.000836374
0.000833562
0.000830579
0.000827424
0.000824096
0.000820597
0.000816926
0.000813085
0.000809075
0.000804897
0.000800555
0.000851681
0.000851712
0.00085181
0.000851959
0.000852155
0.000852393
0.000852667
0.000852971
0.000853299
0.000853644
0.000853998
0.000854352
0.000854698
0.000855027
0.000855332
0.00085561
0.000855857
0.000856073
0.000856256
0.000856401
0.000856503
0.000856557
0.000856554
0.000856488
0.000856349
0.00085613
0.000855822
0.00085542
0.000854915
0.000854302
0.000853573
0.000852724
0.000851749
0.000850643
0.0008494
0.000848017
0.000846489
0.000844812
0.000842982
0.000840998
0.000838854
0.00083655
0.000834082
0.00083145
0.000828651
0.000825685
0.000822551
0.000819249
0.000815778
0.00081214
0.000808336
0.000804366
0.000800233
0.000795939
0.000791485
0.000849207
0.000849233
0.000849315
0.00084944
0.000849603
0.0008498
0.000850026
0.000850274
0.00085054
0.000850815
0.000851094
0.000851366
0.000851623
0.000851857
0.000852061
0.000852231
0.000852367
0.000852467
0.000852528
0.000852548
0.000852522
0.000852443
0.000852304
0.000852097
0.000851815
0.000851449
0.000850991
0.000850436
0.000849775
0.000849004
0.000848115
0.000847104
0.000845965
0.000844694
0.000843286
0.000841737
0.000840043
0.000838201
0.000836207
0.000834059
0.000831754
0.000829289
0.000826664
0.000823877
0.000820926
0.000817811
0.000814532
0.000811088
0.000807482
0.000803712
0.000799781
0.00079569
0.000791442
0.000787037
0.000782481
0.000846677
0.000846698
0.000846764
0.000846864
0.000846994
0.00084715
0.000847327
0.00084752
0.000847722
0.000847928
0.00084813
0.00084832
0.000848488
0.000848626
0.000848728
0.000848792
0.000848815
0.000848797
0.000848738
0.000848633
0.000848478
0.000848267
0.000847992
0.000847646
0.000847221
0.000846708
0.000846102
0.000845395
0.00084458
0.000843652
0.000842604
0.000841434
0.000840134
0.000838701
0.000837131
0.000835419
0.000833563
0.000831559
0.000829405
0.000827098
0.000824635
0.000822016
0.000819238
0.000816301
0.000813203
0.000809946
0.000806528
0.00080295
0.000799213
0.000795319
0.000791268
0.000787063
0.000782706
0.0007782
0.000773548
0.00084409
0.000844106
0.000844156
0.000844231
0.000844328
0.000844443
0.000844571
0.000844707
0.000844846
0.000844982
0.000845108
0.000845214
0.000845292
0.000845335
0.000845335
0.000845291
0.000845202
0.000845067
0.000844887
0.000844657
0.000844373
0.00084403
0.00084362
0.000843136
0.000842568
0.000841911
0.000841157
0.000840299
0.000839331
0.000838248
0.000837045
0.000835717
0.000834259
0.000832667
0.000830937
0.000829067
0.000827052
0.000824891
0.000822581
0.000820119
0.000817504
0.000814734
0.000811809
0.000808728
0.00080549
0.000802096
0.000798545
0.000794839
0.000790979
0.000786967
0.000782804
0.000778492
0.000774034
0.000769433
0.000764693
0.000841448
0.000841459
0.000841492
0.000841542
0.000841606
0.000841679
0.000841758
0.000841837
0.000841913
0.000841978
0.000842027
0.000842049
0.000842038
0.000841984
0.000841882
0.00084173
0.000841529
0.000841278
0.000840976
0.000840622
0.00084021
0.000839736
0.000839191
0.000838568
0.00083786
0.000837059
0.000836158
0.000835151
0.000834033
0.000832798
0.00083144
0.000829957
0.000828343
0.000826596
0.00082471
0.000822685
0.000820516
0.000818201
0.000815739
0.000813128
0.000810365
0.000807451
0.000804384
0.000801164
0.000797792
0.000794267
0.00079059
0.000786763
0.000782787
0.000778663
0.000774395
0.000769983
0.000765432
0.000760744
0.000755923
0.00083875
0.000838756
0.000838773
0.000838798
0.000838827
0.000838859
0.000838888
0.00083891
0.000838922
0.000838916
0.000838887
0.000838826
0.000838724
0.000838574
0.00083837
0.000838111
0.000837798
0.00083743
0.000837008
0.000836529
0.00083599
0.000835385
0.000834706
0.000833947
0.000833099
0.000832155
0.000831109
0.000829956
0.000828688
0.000827303
0.000825794
0.000824159
0.000822392
0.000820492
0.000818455
0.000816278
0.000813958
0.000811495
0.000808886
0.000806129
0.000803225
0.000800171
0.000796968
0.000793616
0.000790115
0.000786466
0.000782669
0.000778728
0.000774642
0.000770414
0.000766047
0.000761544
0.000756906
0.000752138
0.000747244
0.000835996
0.000835997
0.000835998
0.000835997
0.000835993
0.000835982
0.000835961
0.000835927
0.000835874
0.000835797
0.000835691
0.000835545
0.000835353
0.000835107
0.000834801
0.000834435
0.000834009
0.000833525
0.000832983
0.000832382
0.000831716
0.000830981
0.000830169
0.000829273
0.000828287
0.000827202
0.000826013
0.000824714
0.000823301
0.000821767
0.00082011
0.000818325
0.00081641
0.000814361
0.000812175
0.00080985
0.000807385
0.000804777
0.000802026
0.00079913
0.000796088
0.0007929
0.000789567
0.000786089
0.000782465
0.000778698
0.000774789
0.000770739
0.000766551
0.000762226
0.000757768
0.000753179
0.000748463
0.000743623
0.000738662
0.000833188
0.000833183
0.000833167
0.000833141
0.000833103
0.00083305
0.000832979
0.000832887
0.000832769
0.000832622
0.000832437
0.000832208
0.000831925
0.000831583
0.000831176
0.000830703
0.000830166
0.000829567
0.000828905
0.000828181
0.000827389
0.000826525
0.000825581
0.000824551
0.000823427
0.000822203
0.000820873
0.000819432
0.000817874
0.000816195
0.000814392
0.000812462
0.0008104
0.000808206
0.000805876
0.000803408
0.000800801
0.000798054
0.000795165
0.000792134
0.000788961
0.000785645
0.000782188
0.000778589
0.00077485
0.000770971
0.000766956
0.000762805
0.000758521
0.000754106
0.000749564
0.000744897
0.000740109
0.000735203
0.000730184
0.000830324
0.000830314
0.000830282
0.00083023
0.000830158
0.000830062
0.000829941
0.000829792
0.00082961
0.000829391
0.000829128
0.000828815
0.000828442
0.000828004
0.000827496
0.000826917
0.000826269
0.000825555
0.000824776
0.00082393
0.000823013
0.000822021
0.000820947
0.000819783
0.000818524
0.000817162
0.000815693
0.000814111
0.000812411
0.00081059
0.000808645
0.000806572
0.000804368
0.000802032
0.000799562
0.000796955
0.000794212
0.00079133
0.000788309
0.000785149
0.00078185
0.000778412
0.000774836
0.000771123
0.000767274
0.000763291
0.000759175
0.00075493
0.000750557
0.000746059
0.00074144
0.000736702
0.00073185
0.000726886
0.000721815
0.000827407
0.000827391
0.000827343
0.000827266
0.000827159
0.000827021
0.00082685
0.000826643
0.000826396
0.000826106
0.000825765
0.000825368
0.000824905
0.000824371
0.000823763
0.000823079
0.000822322
0.000821494
0.000820597
0.000819631
0.00081859
0.000817471
0.000816268
0.000814972
0.000813579
0.000812083
0.000810476
0.000808756
0.000806918
0.000804958
0.000802873
0.000800661
0.000798319
0.000795845
0.000793239
0.000790498
0.000787622
0.000784611
0.000781463
0.000778179
0.00077476
0.000771206
0.000767517
0.000763696
0.000759744
0.000755663
0.000751454
0.000747121
0.000742666
0.000738092
0.000733403
0.000728601
0.000723691
0.000718677
0.000713562
0.000824437
0.000824416
0.000824351
0.000824248
0.000824107
0.000823927
0.000823705
0.00082344
0.000823129
0.000822767
0.000822349
0.000821868
0.000821316
0.000820687
0.000819979
0.000819191
0.000818326
0.000817386
0.000816373
0.000815286
0.000814123
0.000812879
0.000811548
0.000810123
0.000808598
0.000806968
0.000805227
0.000803371
0.000801397
0.000799301
0.00079708
0.000794733
0.000792256
0.00078965
0.000786912
0.000784042
0.000781039
0.000777903
0.000774633
0.000771232
0.000767698
0.000764033
0.000760238
0.000756316
0.000752267
0.000748094
0.000743799
0.000739385
0.000734854
0.000730211
0.000725459
0.0007206
0.00071564
0.000710581
0.000705429
0.000821416
0.000821388
0.000821308
0.000821179
0.000821003
0.000820781
0.000820509
0.000820187
0.000819811
0.000819378
0.000818882
0.000818317
0.000817677
0.000816954
0.000816147
0.000815256
0.000814283
0.000813232
0.000812104
0.0008109
0.000809616
0.000808248
0.00080679
0.000805237
0.000803583
0.000801822
0.000799949
0.000797961
0.000795854
0.000793625
0.000791272
0.000788793
0.000786186
0.000783451
0.000780586
0.000777591
0.000774466
0.000771211
0.000767826
0.000764312
0.000760669
0.0007569
0.000753005
0.000748987
0.000744848
0.000740589
0.000736215
0.000731726
0.000727128
0.000722422
0.000717614
0.000712705
0.000707701
0.000702605
0.000697421
0.000818343
0.00081831
0.000818213
0.000818059
0.000817849
0.000817584
0.000817262
0.000816883
0.000816442
0.000815938
0.000815366
0.000814718
0.000813989
0.000813173
0.000812269
0.000811276
0.000810197
0.000809036
0.000807795
0.000806474
0.000805071
0.000803581
0.000801999
0.00080032
0.000798539
0.000796649
0.000794647
0.000792529
0.000790293
0.000787934
0.000785453
0.000782847
0.000780114
0.000777255
0.000774268
0.000771153
0.000767911
0.000764542
0.000761046
0.000757425
0.00075368
0.000749813
0.000745824
0.000741717
0.000737494
0.000733156
0.000728708
0.000724153
0.000719492
0.000714731
0.000709873
0.00070492
0.000699879
0.000694752
0.000689545
0.000815222
0.000815183
0.00081507
0.00081489
0.000814646
0.000814339
0.000813967
0.00081353
0.000813026
0.000812451
0.000811802
0.000811072
0.000810255
0.000809348
0.000808347
0.000807253
0.00080607
0.000804802
0.000803449
0.000802013
0.000800492
0.000798882
0.000797179
0.000795376
0.000793469
0.000791453
0.000789325
0.000787081
0.000784718
0.000782235
0.000779629
0.000776899
0.000774045
0.000771066
0.000767962
0.000764732
0.000761379
0.000757901
0.000754301
0.000750579
0.000746737
0.000742777
0.000738701
0.000734511
0.00073021
0.000725801
0.000721286
0.000716669
0.000711954
0.000707143
0.000702241
0.000697252
0.00069218
0.000687029
0.000681803
0.000812052
0.000812008
0.000811879
0.000811673
0.000811396
0.000811046
0.000810625
0.000810131
0.000809564
0.000808919
0.000808193
0.000807382
0.000806479
0.00080548
0.000804384
0.000803192
0.000801906
0.000800531
0.000799069
0.00079752
0.000795884
0.000794156
0.000792332
0.000790408
0.000788379
0.00078624
0.000783989
0.000781622
0.000779136
0.000776531
0.000773804
0.000770956
0.000767985
0.000764891
0.000761674
0.000758335
0.000754875
0.000751295
0.000747595
0.000743778
0.000739845
0.000735799
0.000731642
0.000727375
0.000723003
0.000718528
0.000713953
0.000709281
0.000704517
0.000699664
0.000694725
0.000689706
0.000684609
0.00067944
0.000674202
0.000808838
0.000808788
0.000808643
0.000808411
0.0008081
0.000807709
0.000807238
0.000806688
0.000806057
0.000805343
0.000804542
0.00080365
0.000802662
0.000801574
0.000800384
0.000799094
0.000797708
0.000796228
0.000794658
0.000792999
0.000791249
0.000789405
0.000787464
0.000785421
0.000783272
0.000781014
0.000778642
0.000776156
0.000773551
0.000770828
0.000767985
0.000765022
0.000761939
0.000758734
0.00075541
0.000751967
0.000748406
0.000744728
0.000740936
0.000737029
0.000733012
0.000728885
0.000724652
0.000720316
0.000715879
0.000711344
0.000706715
0.000701995
0.000697188
0.000692298
0.000687329
0.000682285
0.00067717
0.000671989
0.000666745
0.000805579
0.000805524
0.000805363
0.000805106
0.000804762
0.000804329
0.00080381
0.000803204
0.00080251
0.000801727
0.000800852
0.00079988
0.000798808
0.000797631
0.000796349
0.000794964
0.000793479
0.000791897
0.000790221
0.000788453
0.000786591
0.000784634
0.000782578
0.000780419
0.000778154
0.000775779
0.000773291
0.000770688
0.000767969
0.000765132
0.000762177
0.000759104
0.000755913
0.000752603
0.000749177
0.000745635
0.000741978
0.000738209
0.000734328
0.000730338
0.000726242
0.000722041
0.000717739
0.000713338
0.000708842
0.000704254
0.000699577
0.000694816
0.000689973
0.000685052
0.000680059
0.000674996
0.000669868
0.00066468
0.000659436
0.000802279
0.000802219
0.000802042
0.000801761
0.000801382
0.000800909
0.000800341
0.00079968
0.000798924
0.000798074
0.000797125
0.000796075
0.000794919
0.000793656
0.000792284
0.000790805
0.000789222
0.00078754
0.000785761
0.000783886
0.000781916
0.000779848
0.00077768
0.000775408
0.000773029
0.000770541
0.00076794
0.000765225
0.000762395
0.000759449
0.000756386
0.000753207
0.000749913