/*--------------------------------*- C++ -*----------------------------------*\
| =========                 |                                                 |
| \\      /  F ield         | OpenFOAM: The Open Source CFD Toolbox           |
|  \\    /   O peration     | Version:  2412                                  |
|   \\  /    A nd           | Website:  www.openfoam.com                      |
|    \\/     M anipulation  |                                                 |
\*---------------------------------------------------------------------------*/
FoamFile
{
    version     2.0;
    format      ascii;
    arch        "LSB;label=32;scalar=64";
    class       volVectorField;
    location    "6.5";
    object      U;
}
// * * * * * * * * * * * * * * * * * * * * * * * * * * * * * * * * * * * * * //

dimensions      [0 1 -1 0 0 0 0];

internalField   nonuniform List<vector> 
5285
(
(0.0999102 0.000685768 0)
(0.0999144 0.00065032 0)
(0.0999188 0.000616054 0)
(0.0999234 0.000582967 0)
(0.0999282 0.000551055 0)
(0.0999332 0.000520313 0)
(0.0999382 0.000490731 0)
(0.0999433 0.000462299 0)
(0.0999485 0.000435002 0)
(0.0999536 0.000408823 0)
(0.0999588 0.000383745 0)
(0.0999638 0.000359748 0)
(0.0999688 0.000336811 0)
(0.0999738 0.000314915 0)
(0.0999786 0.000294036 0)
(0.0999833 0.000274151 0)
(0.0999879 0.000255237 0)
(0.0999923 0.00023727 0)
(0.0999965 0.000220224 0)
(0.100001 0.000204075 0)
(0.100005 0.000188797 0)
(0.100008 0.000174365 0)
(0.100012 0.000160752 0)
(0.100015 0.000147931 0)
(0.100018 0.000135876 0)
(0.100021 0.000124559 0)
(0.100024 0.000113952 0)
(0.100027 0.000104031 0)
(0.100029 9.47682e-05 0)
(0.100031 8.61392e-05 0)
(0.100033 7.81185e-05 0)
(0.100035 7.06811e-05 0)
(0.100037 6.38019e-05 0)
(0.100038 5.74571e-05 0)
(0.10004 5.16229e-05 0)
(0.100041 4.62771e-05 0)
(0.100042 4.13979e-05 0)
(0.100043 3.6966e-05 0)
(0.100044 3.29627e-05 0)
(0.100045 2.93708e-05 0)
(0.100045 2.6173e-05 0)
(0.100046 2.33525e-05 0)
(0.100046 2.08958e-05 0)
(0.100047 1.87889e-05 0)
(0.100047 1.70235e-05 0)
(0.100047 1.55915e-05 0)
(0.100047 1.44882e-05 0)
(0.100048 1.37167e-05 0)
(0.100048 1.32739e-05 0)
(0.100048 1.31738e-05 0)
(0.100048 1.34224e-05 0)
(0.100049 1.40432e-05 0)
(0.100049 1.5055e-05 0)
(0.10005 1.65164e-05 0)
(0.10005 1.8415e-05 0)
(0.100051 2.09558e-05 0)
(0.100053 2.38397e-05 0)
(0.100052 2.80319e-05 0)
(0.100058 3.16496e-05 0)
(0.100052 3.91213e-05 0)
(0.10007 4.18584e-05 0)
(0.100045 5.68841e-05 0)
(0.100099 5.41499e-05 0)
(0.100025 8.49026e-05 0)
(0.100153 7.01728e-05 0)
(0.099994 0.000124506 0)
(0.100226 9.80257e-05 0)
(0.0999811 0.000173323 0)
(0.100313 0.000156233 0)
(0.100001 0.000197197 0)
(0.100405 0.000332397 0)
(0.0998964 0.000683807 0)
(0.0999014 0.000648285 0)
(0.0999067 0.000613967 0)
(0.0999121 0.000580849 0)
(0.0999176 0.000548923 0)
(0.0999233 0.000518182 0)
(0.099929 0.000488617 0)
(0.0999348 0.000460213 0)
(0.0999405 0.000432954 0)
(0.0999463 0.000406823 0)
(0.099952 0.000381801 0)
(0.0999576 0.000357866 0)
(0.0999631 0.000334998 0)
(0.0999685 0.000313174 0)
(0.0999738 0.000292371 0)
(0.099979 0.000272565 0)
(0.0999839 0.000253732 0)
(0.0999888 0.000235846 0)
(0.0999934 0.000218882 0)
(0.0999978 0.000202815 0)
(0.100002 0.000187618 0)
(0.100006 0.000173266 0)
(0.10001 0.00015973 0)
(0.100014 0.000146985 0)
(0.100017 0.000135003 0)
(0.10002 0.000123756 0)
(0.100023 0.000113218 0)
(0.100026 0.000103362 0)
(0.100029 9.41611e-05 0)
(0.100031 8.55908e-05 0)
(0.100033 7.76257e-05 0)
(0.100035 7.02403e-05 0)
(0.100037 6.34098e-05 0)
(0.100039 5.71103e-05 0)
(0.10004 5.1318e-05 0)
(0.100041 4.60109e-05 0)
(0.100043 4.11674e-05 0)
(0.100044 3.67679e-05 0)
(0.100045 3.27938e-05 0)
(0.100045 2.92277e-05 0)
(0.100046 2.60525e-05 0)
(0.100047 2.32517e-05 0)
(0.100047 2.08116e-05 0)
(0.100048 1.87186e-05 0)
(0.100048 1.69642e-05 0)
(0.100048 1.55408e-05 0)
(0.100049 1.44434e-05 0)
(0.100049 1.36746e-05 0)
(0.100049 1.32319e-05 0)
(0.100049 1.31285e-05 0)
(0.10005 1.33708e-05 0)
(0.10005 1.39821e-05 0)
(0.100051 1.49806e-05 0)
(0.100051 1.64237e-05 0)
(0.100052 1.83004e-05 0)
(0.100052 2.08092e-05 0)
(0.100054 2.36648e-05 0)
(0.100054 2.7795e-05 0)
(0.10006 3.1398e-05 0)
(0.100054 3.87178e-05 0)
(0.100073 4.1539e-05 0)
(0.100047 5.61428e-05 0)
(0.100102 5.38242e-05 0)
(0.100027 8.35021e-05 0)
(0.100157 6.98851e-05 0)
(0.0999968 0.000121949 0)
(0.10023 9.77635e-05 0)
(0.0999856 0.000167974 0)
(0.100315 0.000156553 0)
(0.100011 0.000189745 0)
(0.100405 0.000312947 0)
(0.0998824 0.000681469 0)
(0.0998883 0.000645894 0)
(0.0998943 0.000611544 0)
(0.0999005 0.000578413 0)
(0.0999068 0.000546493 0)
(0.0999132 0.000515772 0)
(0.0999196 0.00048624 0)
(0.099926 0.00045788 0)
(0.0999324 0.000430676 0)
(0.0999388 0.000404608 0)
(0.099945 0.000379656 0)
(0.0999512 0.000355797 0)
(0.0999573 0.00033301 0)
(0.0999632 0.000311271 0)
(0.0999689 0.000290556 0)
(0.0999745 0.000270839 0)
(0.0999799 0.000252097 0)
(0.0999851 0.000234302 0)
(0.0999901 0.00021743 0)
(0.0999949 0.000201453 0)
(0.0999994 0.000186345 0)
(0.100004 0.000172079 0)
(0.100008 0.000158628 0)
(0.100012 0.000145965 0)
(0.100015 0.000134062 0)
(0.100019 0.000122892 0)
(0.100022 0.000112427 0)
(0.100025 0.000102641 0)
(0.100028 9.35068e-05 0)
(0.100031 8.49995e-05 0)
(0.100033 7.70938e-05 0)
(0.100035 6.9764e-05 0)
(0.100037 6.29855e-05 0)
(0.100039 5.67343e-05 0)
(0.10004 5.09868e-05 0)
(0.100042 4.5721e-05 0)
(0.100043 4.09154e-05 0)
(0.100044 3.65504e-05 0)
(0.100045 3.26074e-05 0)
(0.100046 2.90689e-05 0)
(0.100047 2.59179e-05 0)
(0.100048 2.31379e-05 0)
(0.100048 2.07156e-05 0)
(0.100049 1.86376e-05 0)
(0.100049 1.68952e-05 0)
(0.10005 1.54811e-05 0)
(0.10005 1.43901e-05 0)
(0.10005 1.36246e-05 0)
(0.10005 1.31821e-05 0)
(0.100051 1.30756e-05 0)
(0.100051 1.33117e-05 0)
(0.100052 1.39133e-05 0)
(0.100052 1.48983e-05 0)
(0.100053 1.63226e-05 0)
(0.100054 1.81766e-05 0)
(0.100054 2.06528e-05 0)
(0.100056 2.34782e-05 0)
(0.100056 2.75469e-05 0)
(0.100062 3.113e-05 0)
(0.100056 3.83029e-05 0)
(0.100075 4.11923e-05 0)
(0.100049 5.53951e-05 0)
(0.100105 5.34505e-05 0)
(0.100029 8.21059e-05 0)
(0.10016 6.95224e-05 0)
(0.0999997 0.000119399 0)
(0.100233 9.73955e-05 0)
(0.0999904 0.000162702 0)
(0.100317 0.000156529 0)
(0.100023 0.000182384 0)
(0.100404 0.000294223 0)
(0.0998681 0.00067875 0)
(0.0998748 0.000643143 0)
(0.0998817 0.000608782 0)
(0.0998887 0.000575659 0)
(0.0998958 0.000543762 0)
(0.0999029 0.00051308 0)
(0.09991 0.000483598 0)
(0.0999171 0.0004553 0)
(0.0999241 0.000428166 0)
(0.099931 0.000402176 0)
(0.0999379 0.000377308 0)
(0.0999446 0.000353539 0)
(0.0999512 0.000330846 0)
(0.0999576 0.000309204 0)
(0.0999638 0.000288588 0)
(0.0999698 0.000268972 0)
(0.0999756 0.000250331 0)
(0.0999812 0.000232637 0)
(0.0999866 0.000215865 0)
(0.0999917 0.000199987 0)
(0.0999966 0.000184975 0)
(0.100001 0.000170804 0)
(0.100006 0.000157445 0)
(0.10001 0.000144871 0)
(0.100014 0.000133054 0)
(0.100018 0.000121965 0)
(0.100021 0.000111579 0)
(0.100024 0.000101867 0)
(0.100027 9.28045e-05 0)
(0.10003 8.43645e-05 0)
(0.100032 7.6522e-05 0)
(0.100035 6.92515e-05 0)
(0.100037 6.25283e-05 0)
(0.100039 5.63284e-05 0)
(0.100041 5.06284e-05 0)
(0.100042 4.54065e-05 0)
(0.100044 4.06411e-05 0)
(0.100045 3.63128e-05 0)
(0.100046 3.24027e-05 0)
(0.100047 2.88935e-05 0)
(0.100048 2.57683e-05 0)
(0.100048 2.30107e-05 0)
(0.100049 2.06074e-05 0)
(0.10005 1.85454e-05 0)
(0.10005 1.68159e-05 0)
(0.100051 1.54117e-05 0)
(0.100051 1.43278e-05 0)
(0.100051 1.35659e-05 0)
(0.100052 1.31241e-05 0)
(0.100052 1.30147e-05 0)
(0.100052 1.32445e-05 0)
(0.100053 1.38363e-05 0)
(0.100053 1.48074e-05 0)
(0.100054 1.62125e-05 0)
(0.100055 1.80432e-05 0)
(0.100056 2.04859e-05 0)
(0.100058 2.328e-05 0)
(0.100058 2.7286e-05 0)
(0.100064 3.08471e-05 0)
(0.100058 3.78722e-05 0)
(0.100077 4.08252e-05 0)
(0.100051 5.46296e-05 0)
(0.100108 5.30447e-05 0)
(0.100031 8.06932e-05 0)
(0.100164 6.91074e-05 0)
(0.100003 0.00011684 0)
(0.100237 9.69236e-05 0)
(0.0999952 0.000157545 0)
(0.100318 0.000156086 0)
(0.100036 0.000175204 0)
(0.1004 0.000276364 0)
(0.0998535 0.000675647 0)
(0.0998611 0.000640029 0)
(0.0998688 0.000605678 0)
(0.0998766 0.000572582 0)
(0.0998844 0.000540728 0)
(0.0998922 0.000510103 0)
(0.0999001 0.000480689 0)
(0.0999078 0.000452469 0)
(0.0999155 0.000425422 0)
(0.099923 0.000399525 0)
(0.0999304 0.000374756 0)
(0.0999377 0.000351091 0)
(0.0999448 0.000328505 0)
(0.0999517 0.000306972 0)
(0.0999584 0.000286467 0)
(0.0999649 0.000266963 0)
(0.0999711 0.000248433 0)
(0.0999771 0.00023085 0)
(0.0999829 0.000214187 0)
(0.0999884 0.000198416 0)
(0.0999936 0.00018351 0)
(0.0999986 0.000169441 0)
(0.100003 0.00015618 0)
(0.100008 0.000143701 0)
(0.100012 0.000131975 0)
(0.100016 0.000120975 0)
(0.10002 0.000110672 0)
(0.100023 0.000101041 0)
(0.100026 9.20536e-05 0)
(0.100029 8.3685e-05 0)
(0.100032 7.59097e-05 0)
(0.100034 6.8702e-05 0)
(0.100037 6.20374e-05 0)
(0.100039 5.58919e-05 0)
(0.100041 5.02423e-05 0)
(0.100042 4.50668e-05 0)
(0.100044 4.0344e-05 0)
(0.100045 3.60544e-05 0)
(0.100046 3.21791e-05 0)
(0.100047 2.8701e-05 0)
(0.100048 2.56031e-05 0)
(0.100049 2.28693e-05 0)
(0.10005 2.04862e-05 0)
(0.10005 1.84413e-05 0)
(0.100051 1.67256e-05 0)
(0.100051 1.53322e-05 0)
(0.100052 1.4256e-05 0)
(0.100052 1.34982e-05 0)
(0.100053 1.30574e-05 0)
(0.100053 1.29452e-05 0)
(0.100054 1.31689e-05 0)
(0.100054 1.37506e-05 0)
(0.100055 1.47076e-05 0)
(0.100055 1.60931e-05 0)
(0.100056 1.78997e-05 0)
(0.100057 2.03083e-05 0)
(0.100059 2.30699e-05 0)
(0.100059 2.70121e-05 0)
(0.100065 3.0549e-05 0)
(0.100059 3.74259e-05 0)
(0.100079 4.04369e-05 0)
(0.100053 5.38469e-05 0)
(0.10011 5.26057e-05 0)
(0.100033 7.92656e-05 0)
(0.100167 6.86386e-05 0)
(0.100005 0.000114278 0)
(0.10024 9.63421e-05 0)
(0.1 0.000152527 0)
(0.100318 0.000155202 0)
(0.100049 0.000168246 0)
(0.100396 0.000259481 0)
(0.0998386 0.000672154 0)
(0.099847 0.000636548 0)
(0.0998556 0.000602228 0)
(0.0998642 0.00056918 0)
(0.0998728 0.000537389 0)
(0.0998813 0.00050684 0)
(0.0998898 0.000477512 0)
(0.0998983 0.000449387 0)
(0.0999066 0.000422443 0)
(0.0999147 0.000396655 0)
(0.0999227 0.000372 0)
(0.0999306 0.000348452 0)
(0.0999382 0.000325986 0)
(0.0999456 0.000304575 0)
(0.0999528 0.000284192 0)
(0.0999597 0.000264811 0)
(0.0999663 0.000246403 0)
(0.0999727 0.000228941 0)
(0.0999789 0.000212396 0)
(0.0999847 0.000196741 0)
(0.0999903 0.000181948 0)
(0.0999956 0.000167988 0)
(0.100001 0.000154833 0)
(0.100005 0.000142456 0)
(0.10001 0.000130828 0)
(0.100014 0.000119921 0)
(0.100018 0.000109707 0)
(0.100022 0.00010016 0)
(0.100025 9.12536e-05 0)
(0.100028 8.29607e-05 0)
(0.100031 7.52564e-05 0)
(0.100034 6.81152e-05 0)
(0.100036 6.15125e-05 0)
(0.100038 5.54245e-05 0)
(0.10004 4.9828e-05 0)
(0.100042 4.47015e-05 0)
(0.100044 4.00236e-05 0)
(0.100045 3.57748e-05 0)
(0.100046 3.19364e-05 0)
(0.100048 2.8491e-05 0)
(0.100049 2.5422e-05 0)
(0.100049 2.27134e-05 0)
(0.10005 2.03519e-05 0)
(0.100051 1.83252e-05 0)
(0.100052 1.66242e-05 0)
(0.100052 1.52423e-05 0)
(0.100053 1.41743e-05 0)
(0.100053 1.34211e-05 0)
(0.100054 1.29816e-05 0)
(0.100054 1.2867e-05 0)
(0.100055 1.30845e-05 0)
(0.100055 1.36561e-05 0)
(0.100056 1.45986e-05 0)
(0.100056 1.59639e-05 0)
(0.100058 1.7746e-05 0)
(0.100058 2.01196e-05 0)
(0.100061 2.28476e-05 0)
(0.10006 2.67251e-05 0)
(0.100067 3.02353e-05 0)
(0.100061 3.69642e-05 0)
(0.100081 4.00264e-05 0)
(0.100055 5.30484e-05 0)
(0.100113 5.21317e-05 0)
(0.100035 7.78264e-05 0)
(0.10017 6.81132e-05 0)
(0.100008 0.000111717 0)
(0.100243 9.56473e-05 0)
(0.100005 0.00014766 0)
(0.100318 0.00015388 0)
(0.100062 0.000161532 0)
(0.10039 0.000243628 0)
(0.0998233 0.000668268 0)
(0.0998327 0.000632697 0)
(0.0998421 0.00059843 0)
(0.0998514 0.000565451 0)
(0.0998608 0.000533743 0)
(0.0998701 0.000503288 0)
(0.0998794 0.000474065 0)
(0.0998885 0.000446053 0)
(0.0998974 0.000419227 0)
(0.0999062 0.000393564 0)
(0.0999148 0.000369037 0)
(0.0999232 0.000345621 0)
(0.0999313 0.000323288 0)
(0.0999392 0.000302012 0)
(0.0999468 0.000281764 0)
(0.0999542 0.000262516 0)
(0.0999613 0.00024424 0)
(0.0999681 0.000226908 0)
(0.0999746 0.000210491 0)
(0.0999808 0.000194961 0)
(0.0999867 0.000180288 0)
(0.0999924 0.000166446 0)
(0.0999977 0.000153404 0)
(0.100003 0.000141135 0)
(0.100007 0.000129611 0)
(0.100012 0.000118803 0)
(0.100016 0.000108684 0)
(0.10002 9.92265e-05 0)
(0.100023 9.04044e-05 0)
(0.100027 8.21914e-05 0)
(0.10003 7.4562e-05 0)
(0.100033 6.74909e-05 0)
(0.100035 6.09533e-05 0)
(0.100038 5.49258e-05 0)
(0.10004 4.93854e-05 0)
(0.100042 4.43104e-05 0)
(0.100043 3.96796e-05 0)
(0.100045 3.54738e-05 0)
(0.100046 3.16741e-05 0)
(0.100048 2.82633e-05 0)
(0.100049 2.52248e-05 0)
(0.10005 2.25427e-05 0)
(0.10005 2.0204e-05 0)
(0.100051 1.81966e-05 0)
(0.100052 1.65113e-05 0)
(0.100052 1.51416e-05 0)
(0.100053 1.40825e-05 0)
(0.100054 1.33345e-05 0)
(0.100054 1.28966e-05 0)
(0.100055 1.27797e-05 0)
(0.100055 1.29912e-05 0)
(0.100056 1.35525e-05 0)
(0.100057 1.44802e-05 0)
(0.100057 1.5825e-05 0)
(0.100059 1.75819e-05 0)
(0.100059 1.99198e-05 0)
(0.100062 2.2613e-05 0)
(0.100062 2.64249e-05 0)
(0.100068 2.99059e-05 0)
(0.100062 3.64873e-05 0)
(0.100083 3.95938e-05 0)
(0.100056 5.22345e-05 0)
(0.100115 5.16229e-05 0)
(0.100037 7.63766e-05 0)
(0.100172 6.75313e-05 0)
(0.10001 0.000109163 0)
(0.100245 9.4839e-05 0)
(0.100009 0.000142949 0)
(0.100317 0.000152145 0)
(0.100074 0.000155073 0)
(0.100384 0.000228815 0)
(0.0998079 0.000663985 0)
(0.0998181 0.000628472 0)
(0.0998283 0.00059428 0)
(0.0998385 0.000561391 0)
(0.0998487 0.000529787 0)
(0.0998587 0.000499446 0)
(0.0998687 0.000470346 0)
(0.0998784 0.000442464 0)
(0.099888 0.000415775 0)
(0.0998974 0.000390252 0)
(0.0999066 0.000365869 0)
(0.0999155 0.000342598 0)
(0.0999242 0.000320412 0)
(0.0999326 0.000299283 0)
(0.0999407 0.000279181 0)
(0.0999486 0.000260078 0)
(0.0999561 0.000241945 0)
(0.0999633 0.000224753 0)
(0.0999702 0.000208473 0)
(0.0999767 0.000193075 0)
(0.099983 0.000178532 0)
(0.0999889 0.000164814 0)
(0.0999945 0.000151892 0)
(0.0999998 0.000139738 0)
(0.100005 0.000128324 0)
(0.100009 0.000117621 0)
(0.100014 0.000107601 0)
(0.100018 9.82387e-05 0)
(0.100022 8.95059e-05 0)
(0.100025 8.1377e-05 0)
(0.100028 7.38265e-05 0)
(0.100031 6.68289e-05 0)
(0.100034 6.03599e-05 0)
(0.100037 5.4396e-05 0)
(0.100039 4.89143e-05 0)
(0.100041 4.38934e-05 0)
(0.100043 3.93122e-05 0)
(0.100044 3.51514e-05 0)
(0.100046 3.13923e-05 0)
(0.100047 2.80178e-05 0)
(0.100048 2.50114e-05 0)
(0.100049 2.23573e-05 0)
(0.10005 2.00426e-05 0)
(0.100051 1.80556e-05 0)
(0.100052 1.63869e-05 0)
(0.100053 1.50302e-05 0)
(0.100053 1.39806e-05 0)
(0.100054 1.32382e-05 0)
(0.100054 1.28024e-05 0)
(0.100055 1.26834e-05 0)
(0.100056 1.28889e-05 0)
(0.100056 1.34398e-05 0)
(0.100057 1.43525e-05 0)
(0.100058 1.56763e-05 0)
(0.100059 1.74074e-05 0)
(0.10006 1.9709e-05 0)
(0.100063 2.23661e-05 0)
(0.100063 2.61117e-05 0)
(0.100069 2.95608e-05 0)
(0.100063 3.59954e-05 0)
(0.100084 3.91393e-05 0)
(0.100057 5.14055e-05 0)
(0.100117 5.10797e-05 0)
(0.100038 7.49169e-05 0)
(0.100174 6.68939e-05 0)
(0.100012 0.000106617 0)
(0.100247 9.39197e-05 0)
(0.100013 0.000138394 0)
(0.100317 0.000150034 0)
(0.100085 0.000148875 0)
(0.100378 0.000215013 0)
(0.0997922 0.000659302 0)
(0.0998033 0.00062387 0)
(0.0998144 0.000589776 0)
(0.0998254 0.000557 0)
(0.0998364 0.00052552 0)
(0.0998472 0.000495313 0)
(0.0998578 0.000466355 0)
(0.0998683 0.000438621 0)
(0.0998785 0.000412085 0)
(0.0998885 0.000386718 0)
(0.0998983 0.000362494 0)
(0.0999078 0.000339383 0)
(0.099917 0.000317358 0)
(0.0999259 0.000296388 0)
(0.0999345 0.000276444 0)
(0.0999427 0.000257497 0)
(0.0999507 0.000239517 0)
(0.0999583 0.000222475 0)
(0.0999656 0.000206341 0)
(0.0999725 0.000191085 0)
(0.0999791 0.000176679 0)
(0.0999853 0.000163093 0)
(0.0999912 0.000150298 0)
(0.0999968 0.000138266 0)
(0.100002 0.000126967 0)
(0.100007 0.000116375 0)
(0.100012 0.000106461 0)
(0.100016 9.71973e-05 0)
(0.10002 8.85584e-05 0)
(0.100024 8.05178e-05 0)
(0.100027 7.30499e-05 0)
(0.10003 6.61296e-05 0)
(0.100033 5.97324e-05 0)
(0.100036 5.3835e-05 0)
(0.100038 4.84149e-05 0)
(0.10004 4.34507e-05 0)
(0.100042 3.89212e-05 0)
(0.100044 3.48075e-05 0)
(0.100045 3.10909e-05 0)
(0.100047 2.77545e-05 0)
(0.100048 2.47817e-05 0)
(0.100049 2.21571e-05 0)
(0.10005 1.98677e-05 0)
(0.100051 1.79021e-05 0)
(0.100052 1.6251e-05 0)
(0.100053 1.49081e-05 0)
(0.100053 1.38686e-05 0)
(0.100054 1.31323e-05 0)
(0.100055 1.26988e-05 0)
(0.100055 1.2578e-05 0)
(0.100056 1.27776e-05 0)
(0.100057 1.3318e-05 0)
(0.100058 1.42154e-05 0)
(0.100058 1.55179e-05 0)
(0.10006 1.72225e-05 0)
(0.100061 1.94872e-05 0)
(0.100063 2.21071e-05 0)
(0.100063 2.57856e-05 0)
(0.10007 2.92003e-05 0)
(0.100064 3.54887e-05 0)
(0.100086 3.86631e-05 0)
(0.100058 5.05618e-05 0)
(0.100119 5.05028e-05 0)
(0.10004 7.34482e-05 0)
(0.100177 6.6202e-05 0)
(0.100014 0.000104083 0)
(0.100249 9.28931e-05 0)
(0.100017 0.000133989 0)
(0.100316 0.000147592 0)
(0.100094 0.000142933 0)
(0.100372 0.000202172 0)
(0.0997764 0.000654213 0)
(0.0997884 0.000618889 0)
(0.0998004 0.000584916 0)
(0.0998122 0.000552274 0)
(0.099824 0.00052094 0)
(0.0998355 0.000490887 0)
(0.0998469 0.00046209 0)
(0.099858 0.000434523 0)
(0.0998689 0.000408157 0)
(0.0998796 0.000382963 0)
(0.0998899 0.000358913 0)
(0.0999 0.000335976 0)
(0.0999097 0.000314125 0)
(0.0999191 0.000293327 0)
(0.0999281 0.000273553 0)
(0.0999369 0.000254774 0)
(0.0999452 0.000236958 0)
(0.0999532 0.000220075 0)
(0.0999609 0.000204096 0)
(0.0999681 0.000188991 0)
(0.0999751 0.00017473 0)
(0.0999816 0.000161284 0)
(0.0999878 0.000148623 0)
(0.0999937 0.000136718 0)
(0.0999992 0.000125542 0)
(0.100004 0.000115066 0)
(0.100009 0.000105262 0)
(0.100014 9.61028e-05 0)
(0.100018 8.75622e-05 0)
(0.100022 7.9614e-05 0)
(0.100025 7.22327e-05 0)
(0.100029 6.5393e-05 0)
(0.100032 5.90709e-05 0)
(0.100034 5.32432e-05 0)
(0.100037 4.78874e-05 0)
(0.100039 4.29823e-05 0)
(0.100041 3.8507e-05 0)
(0.100043 3.44425e-05 0)
(0.100045 3.07703e-05 0)
(0.100046 2.74735e-05 0)
(0.100048 2.45359e-05 0)
(0.100049 2.19421e-05 0)
(0.10005 1.96793e-05 0)
(0.100051 1.77363e-05 0)
(0.100052 1.61036e-05 0)
(0.100053 1.47753e-05 0)
(0.100053 1.37465e-05 0)
(0.100054 1.30168e-05 0)
(0.100055 1.25861e-05 0)
(0.100055 1.24637e-05 0)
(0.100056 1.26574e-05 0)
(0.100057 1.31872e-05 0)
(0.100058 1.4069e-05 0)
(0.100059 1.53498e-05 0)
(0.10006 1.70274e-05 0)
(0.100061 1.92544e-05 0)
(0.100064 2.1836e-05 0)
(0.100064 2.54468e-05 0)
(0.100071 2.88246e-05 0)
(0.100065 3.49676e-05 0)
(0.100087 3.81658e-05 0)
(0.100059 4.9704e-05 0)
(0.10012 4.98929e-05 0)
(0.100041 7.19715e-05 0)
(0.100179 6.54567e-05 0)
(0.100016 0.000101562 0)
(0.100251 9.17643e-05 0)
(0.10002 0.000129727 0)
(0.100315 0.000144869 0)
(0.100103 0.00013724 0)
(0.100366 0.000190232 0)
(0.0997606 0.000648717 0)
(0.0997735 0.000613524 0)
(0.0997863 0.000579698 0)
(0.099799 0.000547213 0)
(0.0998115 0.000516046 0)
(0.0998239 0.000486168 0)
(0.0998359 0.000457552 0)
(0.0998478 0.000430169 0)
(0.0998593 0.00040399 0)
(0.0998706 0.000378986 0)
(0.0998815 0.000355125 0)
(0.0998921 0.000332378 0)
(0.0999024 0.000310713 0)
(0.0999123 0.000290101 0)
(0.0999218 0.00027051 0)
(0.0999309 0.000251909 0)
(0.0999397 0.000234267 0)
(0.0999481 0.000217554 0)
(0.0999561 0.00020174 0)
(0.0999638 0.000186793 0)
(0.099971 0.000172685 0)
(0.0999779 0.000159386 0)
(0.0999844 0.000146866 0)
(0.0999905 0.000135096 0)
(0.0999962 0.000124048 0)
(0.100002 0.000113694 0)
(0.100007 0.000104005 0)
(0.100011 9.49555e-05 0)
(0.100016 8.65177e-05 0)
(0.10002 7.8666e-05 0)
(0.100024 7.13751e-05 0)
(0.100027 6.46197e-05 0)
(0.10003 5.83759e-05 0)
(0.100033 5.26207e-05 0)
(0.100036 4.7332e-05 0)
(0.100038 4.24886e-05 0)
(0.10004 3.80697e-05 0)
(0.100042 3.40564e-05 0)
(0.100044 3.04304e-05 0)
(0.100046 2.71751e-05 0)
(0.100047 2.42743e-05 0)
(0.100048 2.17127e-05 0)
(0.10005 1.94777e-05 0)
(0.100051 1.75582e-05 0)
(0.100052 1.59449e-05 0)
(0.100052 1.46319e-05 0)
(0.100053 1.36145e-05 0)
(0.100054 1.28919e-05 0)
(0.100055 1.24643e-05 0)
(0.100055 1.23405e-05 0)
(0.100056 1.25284e-05 0)
(0.100057 1.30475e-05 0)
(0.100058 1.39135e-05 0)
(0.100059 1.51722e-05 0)
(0.10006 1.68223e-05 0)
(0.100062 1.9011e-05 0)
(0.100064 2.15531e-05 0)
(0.100064 2.50955e-05 0)
(0.100072 2.8434e-05 0)
(0.100066 3.44323e-05 0)
(0.100088 3.76476e-05 0)
(0.10006 4.88326e-05 0)
(0.100122 4.92507e-05 0)
(0.100042 7.04877e-05 0)
(0.10018 6.46596e-05 0)
(0.100018 9.90565e-05 0)
(0.100253 9.05386e-05 0)
(0.100024 0.000125599 0)
(0.100314 0.000141912 0)
(0.100111 0.000131788 0)
(0.10036 0.000179128 0)
(0.0997448 0.00064281 0)
(0.0997586 0.000607775 0)
(0.0997723 0.000574119 0)
(0.0997858 0.000541815 0)
(0.0997992 0.000510837 0)
(0.0998122 0.000481155 0)
(0.099825 0.000452739 0)
(0.0998375 0.00042556 0)
(0.0998497 0.000399586 0)
(0.0998616 0.000374787 0)
(0.0998731 0.000351131 0)
(0.0998843 0.000328588 0)
(0.099895 0.000307125 0)
(0.0999054 0.000286711 0)
(0.0999154 0.000267314 0)
(0.099925 0.000248902 0)
(0.0999342 0.000231445 0)
(0.099943 0.000214912 0)
(0.0999514 0.000199271 0)
(0.0999594 0.000184493 0)
(0.099967 0.000170546 0)
(0.0999741 0.000157402 0)
(0.0999809 0.000145029 0)
(0.0999873 0.000133401 0)
(0.0999933 0.000122487 0)
(0.099999 0.00011226 0)
(0.100004 0.000102692 0)
(0.100009 9.37561e-05 0)
(0.100014 8.54255e-05 0)
(0.100018 7.76744e-05 0)
(0.100022 7.04776e-05 0)
(0.100026 6.381e-05 0)
(0.100029 5.76477e-05 0)
(0.100032 5.19681e-05 0)
(0.100035 4.67491e-05 0)
(0.100037 4.19699e-05 0)
(0.100039 3.76095e-05 0)
(0.100042 3.36495e-05 0)
(0.100043 3.00717e-05 0)
(0.100045 2.68595e-05 0)
(0.100047 2.39969e-05 0)
(0.100048 2.14689e-05 0)
(0.100049 1.92628e-05 0)
(0.10005 1.7368e-05 0)
(0.100051 1.57751e-05 0)
(0.100052 1.44781e-05 0)
(0.100053 1.34726e-05 0)
(0.100054 1.27576e-05 0)
(0.100055 1.23334e-05 0)
(0.100055 1.22085e-05 0)
(0.100056 1.23907e-05 0)
(0.100057 1.28991e-05 0)
(0.100058 1.37491e-05 0)
(0.100059 1.49853e-05 0)
(0.100061 1.66072e-05 0)
(0.100062 1.87571e-05 0)
(0.100065 2.12586e-05 0)
(0.100065 2.4732e-05 0)
(0.100072 2.80286e-05 0)
(0.100066 3.38832e-05 0)
(0.100089 3.71091e-05 0)
(0.100061 4.79481e-05 0)
(0.100123 4.8577e-05 0)
(0.100043 6.89978e-05 0)
(0.100182 6.38119e-05 0)
(0.100019 9.65686e-05 0)
(0.100254 8.9222e-05 0)
(0.100027 0.000121599 0)
(0.100313 0.000138765 0)
(0.100117 0.000126565 0)
(0.100354 0.000168798 0)
(0.0997291 0.00063649 0)
(0.0997438 0.000601639 0)
(0.0997584 0.000568179 0)
(0.0997727 0.00053608 0)
(0.0997868 0.000505313 0)
(0.0998007 0.000475848 0)
(0.0998142 0.000447652 0)
(0.0998274 0.000420695 0)
(0.0998402 0.000394944 0)
(0.0998527 0.000370368 0)
(0.0998648 0.000346933 0)
(0.0998765 0.000324608 0)
(0.0998878 0.00030336 0)
(0.0998987 0.000283157 0)
(0.0999091 0.000263966 0)
(0.0999192 0.000245756 0)
(0.0999288 0.000228494 0)
(0.099938 0.00021215 0)
(0.0999467 0.000196693 0)
(0.0999551 0.00018209 0)
(0.099963 0.000168313 0)
(0.0999704 0.00015533 0)
(0.0999775 0.000143113 0)
(0.0999842 0.000131632 0)
(0.0999904 0.000120859 0)
(0.0999963 0.000110765 0)
(0.100002 0.000101322 0)
(0.100007 9.2505e-05 0)
(0.100012 8.4286e-05 0)
(0.100016 7.66396e-05 0)
(0.10002 6.95406e-05 0)
(0.100024 6.29643e-05 0)
(0.100027 5.68867e-05 0)
(0.100031 5.12856e-05 0)
(0.100034 4.61391e-05 0)
(0.100036 4.14264e-05 0)
(0.100039 3.71269e-05 0)
(0.100041 3.32222e-05 0)
(0.100043 2.96944e-05 0)
(0.100044 2.65269e-05 0)
(0.100046 2.3704e-05 0)
(0.100047 2.12109e-05 0)
(0.100049 1.9035e-05 0)
(0.10005 1.71659e-05 0)
(0.100051 1.55942e-05 0)
(0.100052 1.4314e-05 0)
(0.100053 1.3321e-05 0)
(0.100054 1.26141e-05 0)
(0.100055 1.21937e-05 0)
(0.100055 1.20679e-05 0)
(0.100056 1.22444e-05 0)
(0.100057 1.2742e-05 0)
(0.100058 1.35758e-05 0)
(0.100059 1.47892e-05 0)
(0.100061 1.63825e-05 0)
(0.100062 1.84928e-05 0)
(0.100065 2.09527e-05 0)
(0.100065 2.43565e-05 0)
(0.100073 2.76089e-05 0)
(0.100067 3.33208e-05 0)
(0.10009 3.65506e-05 0)
(0.100062 4.7051e-05 0)
(0.100124 4.78725e-05 0)
(0.100044 6.75027e-05 0)
(0.100184 6.29154e-05 0)
(0.100021 9.40994e-05 0)
(0.100256 8.78205e-05 0)
(0.10003 0.000117717 0)
(0.100312 0.000135466 0)
(0.100123 0.000121561 0)
(0.100348 0.000159181 0)
(0.0997134 0.000629754 0)
(0.0997291 0.000595116 0)
(0.0997445 0.000561876 0)
(0.0997597 0.000530006 0)
(0.0997746 0.000499474 0)
(0.0997892 0.000470246 0)
(0.0998034 0.000442292 0)
(0.0998173 0.000415576 0)
(0.0998308 0.000390066 0)
(0.0998439 0.000365728 0)
(0.0998565 0.00034253 0)
(0.0998688 0.000320438 0)
(0.0998806 0.000299419 0)
(0.099892 0.00027944 0)
(0.0999029 0.000260468 0)
(0.0999134 0.00024247 0)
(0.0999234 0.000225415 0)
(0.099933 0.00020927 0)
(0.0999421 0.000194004 0)
(0.0999508 0.000179587 0)
(0.099959 0.000165986 0)
(0.0999668 0.000153174 0)
(0.0999741 0.000141118 0)
(0.099981 0.000129791 0)
(0.0999876 0.000119164 0)
(0.0999937 0.000109208 0)
(0.0999994 9.98969e-05 0)
(0.100005 9.12029e-05 0)
(0.10001 8.30999e-05 0)
(0.100014 7.55623e-05 0)
(0.100019 6.85648e-05 0)
(0.100022 6.20831e-05 0)
(0.100026 5.60934e-05 0)
(0.100029 5.05736e-05 0)
(0.100032 4.55022e-05 0)
(0.100035 4.08585e-05 0)
(0.100038 3.66221e-05 0)
(0.10004 3.27747e-05 0)
(0.100042 2.92987e-05 0)
(0.100044 2.61775e-05 0)
(0.100045 2.33958e-05 0)
(0.100047 2.0939e-05 0)
(0.100048 1.87945e-05 0)
(0.10005 1.69521e-05 0)
(0.100051 1.54025e-05 0)
(0.100052 1.41398e-05 0)
(0.100053 1.316e-05 0)
(0.100054 1.24616e-05 0)
(0.100054 1.20453e-05 0)
(0.100055 1.19188e-05 0)
(0.100056 1.20897e-05 0)
(0.100057 1.25764e-05 0)
(0.100058 1.33938e-05 0)
(0.10006 1.45841e-05 0)
(0.100061 1.61481e-05 0)
(0.100063 1.82184e-05 0)
(0.100066 2.06355e-05 0)
(0.100066 2.39693e-05 0)
(0.100074 2.71751e-05 0)
(0.100067 3.27453e-05 0)
(0.10009 3.59725e-05 0)
(0.100062 4.6142e-05 0)
(0.100125 4.71382e-05 0)
(0.100045 6.60031e-05 0)
(0.100185 6.19715e-05 0)
(0.100022 9.165e-05 0)
(0.100257 8.63399e-05 0)
(0.100033 0.000113946 0)
(0.100311 0.00013205 0)
(0.100129 0.000116767 0)
(0.100343 0.000150224 0)
(0.0996978 0.000622602 0)
(0.0997144 0.000588203 0)
(0.0997307 0.00055521 0)
(0.0997468 0.000523594 0)
(0.0997625 0.000493319 0)
(0.0997778 0.000464352 0)
(0.0997927 0.000436658 0)
(0.0998073 0.000410202 0)
(0.0998214 0.000384951 0)
(0.0998351 0.00036087 0)
(0.0998484 0.000337924 0)
(0.0998612 0.00031608 0)
(0.0998735 0.000295304 0)
(0.0998854 0.000275562 0)
(0.0998968 0.00025682 0)
(0.0999077 0.000239046 0)
(0.0999181 0.000222207 0)
(0.0999281 0.000206272 0)
(0.0999375 0.000191207 0)
(0.0999465 0.000176983 0)
(0.0999551 0.000163568 0)
(0.0999632 0.000150932 0)
(0.0999708 0.000139045 0)
(0.099978 0.000127878 0)
(0.0999847 0.000117403 0)
(0.0999911 0.000107592 0)
(0.099997 9.84165e-05 0)
(0.100003 8.98505e-05 0)
(0.100008 8.18677e-05 0)
(0.100012 7.44428e-05 0)
(0.100017 6.75506e-05 0)
(0.100021 6.11669e-05 0)
(0.100025 5.52682e-05 0)
(0.100028 4.98327e-05 0)
(0.100031 4.4839e-05 0)
(0.100034 4.02667e-05 0)
(0.100037 3.60955e-05 0)
(0.100039 3.23074e-05 0)
(0.100041 2.88849e-05 0)
(0.100043 2.58117e-05 0)
(0.100045 2.30726e-05 0)
(0.100047 2.06534e-05 0)
(0.100048 1.85414e-05 0)
(0.100049 1.67267e-05 0)
(0.10005 1.52001e-05 0)
(0.100051 1.39557e-05 0)
(0.100052 1.29896e-05 0)
(0.100053 1.23002e-05 0)
(0.100054 1.18884e-05 0)
(0.100055 1.17613e-05 0)
(0.100056 1.19268e-05 0)
(0.100057 1.24025e-05 0)
(0.100059 1.32033e-05 0)
(0.10006 1.43701e-05 0)
(0.100061 1.59044e-05 0)
(0.100063 1.7934e-05 0)
(0.100066 2.03074e-05 0)
(0.100066 2.35706e-05 0)
(0.100074 2.67275e-05 0)
(0.100068 3.21571e-05 0)
(0.100091 3.53755e-05 0)
(0.100063 4.52214e-05 0)
(0.100127 4.63749e-05 0)
(0.100046 6.44997e-05 0)
(0.100187 6.09821e-05 0)
(0.100024 8.92213e-05 0)
(0.100258 8.4786e-05 0)
(0.100036 0.000110281 0)
(0.10031 0.000128546 0)
(0.100133 0.000112172 0)
(0.100338 0.000141878 0)
(0.0996824 0.000615032 0)
(0.0996999 0.0005809 0)
(0.0997171 0.000548181 0)
(0.099734 0.000516843 0)
(0.0997504 0.000486849 0)
(0.0997665 0.000458164 0)
(0.0997822 0.000430751 0)
(0.0997974 0.000404576 0)
(0.0998122 0.000379601 0)
(0.0998265 0.000355793 0)
(0.0998403 0.000333116 0)
(0.0998537 0.000311535 0)
(0.0998665 0.000291015 0)
(0.0998789 0.000271523 0)
(0.0998907 0.000253024 0)
(0.099902 0.000235486 0)
(0.0999129 0.000218874 0)
(0.0999232 0.000203157 0)
(0.099933 0.000188303 0)
(0.0999424 0.00017428 0)
(0.0999512 0.000161059 0)
(0.0999596 0.000148607 0)
(0.0999675 0.000136895 0)
(0.099975 0.000125895 0)
(0.099982 0.000115578 0)
(0.0999885 0.000105916 0)
(0.0999947 9.68818e-05 0)
(0.1 8.84485e-05 0)
(0.100006 8.05902e-05 0)
(0.100011 7.32819e-05 0)
(0.100015 6.64985e-05 0)
(0.100019 6.02162e-05 0)
(0.100023 5.44116e-05 0)
(0.100027 4.90632e-05 0)
(0.10003 4.41498e-05 0)
(0.100033 3.96511e-05 0)
(0.100036 3.55474e-05 0)
(0.100038 3.18205e-05 0)
(0.100041 2.84533e-05 0)
(0.100043 2.54297e-05 0)
(0.100044 2.27347e-05 0)
(0.100046 2.03542e-05 0)
(0.100048 1.82759e-05 0)
(0.100049 1.649e-05 0)
(0.10005 1.49873e-05 0)
(0.100051 1.37619e-05 0)
(0.100052 1.281e-05 0)
(0.100053 1.21301e-05 0)
(0.100054 1.1723e-05 0)
(0.100055 1.15957e-05 0)
(0.100056 1.17557e-05 0)
(0.100057 1.22204e-05 0)
(0.100059 1.30044e-05 0)
(0.10006 1.41475e-05 0)
(0.100062 1.56516e-05 0)
(0.100063 1.76399e-05 0)
(0.100066 1.99685e-05 0)
(0.100067 2.31607e-05 0)
(0.100075 2.62665e-05 0)
(0.100069 3.15566e-05 0)
(0.100092 3.47599e-05 0)
(0.100064 4.42897e-05 0)
(0.100128 4.55833e-05 0)
(0.100047 6.29933e-05 0)
(0.100188 5.99487e-05 0)
(0.100025 8.6814e-05 0)
(0.100259 8.31645e-05 0)
(0.100038 0.000106716 0)
(0.100309 0.000124979 0)
(0.100137 0.000107769 0)
(0.100333 0.000134099 0)
(0.0996671 0.000607043 0)
(0.0996855 0.000573207 0)
(0.0997036 0.000540789 0)
(0.0997213 0.000509754 0)
(0.0997386 0.000480065 0)
(0.0997554 0.000451684 0)
(0.0997718 0.000424574 0)
(0.0997877 0.000398697 0)
(0.0998031 0.000374018 0)
(0.099818 0.0003505 0)
(0.0998324 0.000328107 0)
(0.0998463 0.000306804 0)
(0.0998596 0.000286555 0)
(0.0998724 0.000267326 0)
(0.0998847 0.000249082 0)
(0.0998965 0.000231789 0)
(0.0999077 0.000215415 0)
(0.0999184 0.000199927 0)
(0.0999286 0.000185293 0)
(0.0999383 0.00017148 0)
(0.0999475 0.000158459 0)
(0.0999561 0.000146199 0)