/*--------------------------------*- C++ -*----------------------------------*\
| =========                 |                                                 |
| \\      /  F ield         | OpenFOAM: The Open Source CFD Toolbox           |
|  \\    /   O peration     | Version:  2412                                  |
|   \\  /    A nd           | Website:  www.openfoam.com                      |
|    \\/     M anipulation  |                                                 |
\*---------------------------------------------------------------------------*/
FoamFile
{
    version     2.0;
    format      ascii;
    arch        "LSB;label=32;scalar=64";
    class       volScalarField;
    location    "15";
    object      p;
}
// * * * * * * * * * * * * * * * * * * * * * * * * * * * * * * * * * * * * * //

dimensions      [0 2 -2 0 0 0 0];

internalField   nonuniform List<scalar> 
5285
(
-0.00013505
-0.000128358
-0.000121925
-0.000115751
-0.000135744
-0.000129133
-0.000122768
-0.000116648
-0.000110769
-0.000105133
-9.97323e-05
-9.45657e-05
-8.9627e-05
-8.49122e-05
-8.0416e-05
-7.61327e-05
-7.20563e-05
-6.81804e-05
-6.44984e-05
-6.10036e-05
-5.76891e-05
-5.45477e-05
-5.15725e-05
-4.87562e-05
-4.6092e-05
-4.35727e-05
-4.11915e-05
-3.89416e-05
-3.68162e-05
-3.4809e-05
-3.29136e-05
-3.11237e-05
-2.94335e-05
-2.78373e-05
-2.63295e-05
-2.49049e-05
-2.35584e-05
-2.22854e-05
-2.10813e-05
-1.99419e-05
-1.88633e-05
-1.78416e-05
-1.68734e-05
-1.59554e-05
-1.50846e-05
-1.42582e-05
-1.34735e-05
-1.27281e-05
-0.000136123
-0.00012961
-0.000123327
-0.000117274
-0.000111451
-0.000105855
-0.000100487
-9.53421e-05
-9.04164e-05
-8.57064e-05
-8.12079e-05
-7.69157e-05
-7.28246e-05
-6.89291e-05
-6.52233e-05
-6.17011e-05
-5.83561e-05
-5.5182e-05
-5.21723e-05
-4.93202e-05
-4.66193e-05
-4.40629e-05
-4.16445e-05
-3.93576e-05
-3.71959e-05
-3.5153e-05
-3.32229e-05
-3.13996e-05
-2.96773e-05
-2.80503e-05
-2.65134e-05
-2.50613e-05
-2.36889e-05
-2.23918e-05
-2.11652e-05
-2.00051e-05
-1.89074e-05
-1.78683e-05
-1.68844e-05
-1.59522e-05
-1.50687e-05
-1.4231e-05
-1.34364e-05
-1.26824e-05
-0.000136191
-0.000129789
-0.000123603
-0.000117633
-0.000111879
-0.000106342
-0.000101019
-9.59096e-05
-9.10099e-05
-8.63173e-05
-8.18283e-05
-7.75387e-05
-7.3444e-05
-6.95394e-05
-6.58198e-05
-6.22797e-05
-5.89134e-05
-5.57151e-05
-5.26789e-05
-4.97985e-05
-4.7068e-05
-4.44811e-05
-4.20316e-05
-3.97135e-05
-3.75206e-05
-3.5447e-05
-3.34867e-05
-3.16341e-05
-2.98834e-05
-2.82292e-05
-2.66663e-05
-2.51895e-05
-2.3794e-05
-2.24751e-05
-2.12283e-05
-2.00494e-05
-1.89344e-05
-1.78795e-05
-1.68813e-05
-1.59362e-05
-1.50412e-05
-1.41933e-05
-1.33897e-05
-1.26279e-05
-0.000135959
-0.000129682
-0.000123605
-0.000117731
-0.00011206
-0.000106593
-0.00010133
-9.62686e-05
-9.14074e-05
-8.67442e-05
-8.22764e-05
-7.80006e-05
-7.39131e-05
-7.00099e-05
-6.62863e-05
-6.27377e-05
-5.93591e-05
-5.61451e-05
-5.30904e-05
-5.01893e-05
-4.74362e-05
-4.48254e-05
-4.2351e-05
-4.00074e-05
-3.77887e-05
-3.56893e-05
-3.37034e-05
-3.18256e-05
-3.00505e-05
-2.83727e-05
-2.6787e-05
-2.52886e-05
-2.38725e-05
-2.25343e-05
-2.12695e-05
-2.00739e-05
-1.89435e-05
-1.78745e-05
-1.68634e-05
-1.59068e-05
-1.50015e-05
-1.41445e-05
-1.3333e-05
-1.25643e-05
-0.000135445
-0.000129302
-0.000123346
-0.000117579
-0.000112003
-0.000106618
-0.000101425
-9.64231e-05
-9.16118e-05
-8.69893e-05
-8.25537e-05
-7.83024e-05
-7.42324e-05
-7.03404e-05
-6.66225e-05
-6.30746e-05
-5.96923e-05
-5.6471e-05
-5.34056e-05
-5.04912e-05
-4.77226e-05
-4.50944e-05
-4.26013e-05
-4.02379e-05
-3.79987e-05
-3.58784e-05
-3.38716e-05
-3.19729e-05
-3.01772e-05
-2.84794e-05
-2.68743e-05
-2.53572e-05
-2.39235e-05
-2.25685e-05
-2.1288e-05
-2.00777e-05
-1.89338e-05
-1.78525e-05
-1.68302e-05
-1.58635e-05
-1.49492e-05
-1.40842e-05
-1.32658e-05
-1.24912e-05
-0.000134664
-0.000128666
-0.00012284
-0.00011719
-0.000111718
-0.000106425
-0.000101313
-9.63813e-05
-9.16301e-05
-8.70586e-05
-8.26652e-05
-7.84483e-05
-7.44055e-05
-7.0534e-05
-6.68308e-05
-6.32923e-05
-5.99146e-05
-5.66937e-05
-5.36253e-05
-5.07047e-05
-4.79272e-05
-4.5288e-05
-4.27821e-05
-4.04046e-05
-3.81502e-05
-3.60139e-05
-3.39906e-05
-3.20753e-05
-3.02629e-05
-2.85486e-05
-2.69274e-05
-2.53948e-05
-2.39461e-05
-2.25769e-05
-2.1283e-05
-2.00603e-05
-1.89049e-05
-1.78129e-05
-1.6781e-05
-1.58056e-05
-1.48836e-05
-1.4012e-05
-1.31878e-05
-1.24082e-05
-0.000133632
-0.000127786
-0.000122099
-0.000116574
-0.000111216
-0.000106025
-0.000101003
-9.61511e-05
-9.14696e-05
-8.69584e-05
-8.26167e-05
-7.84433e-05
-7.44366e-05
-7.05944e-05
-6.69143e-05
-6.33932e-05
-6.00281e-05
-5.68152e-05
-5.37508e-05
-5.08308e-05
-4.80511e-05
-4.5407e-05
-4.28941e-05
-4.05078e-05
-3.82433e-05
-3.60958e-05
-3.40605e-05
-3.21326e-05
-3.03074e-05
-2.85802e-05
-2.69462e-05
-2.54011e-05
-2.39402e-05
-2.25594e-05
-2.12545e-05
-2.00214e-05
-1.88564e-05
-1.77557e-05
-1.67157e-05
-1.57332e-05
-1.48048e-05
-1.39276e-05
-1.30987e-05
-1.23152e-05
-0.000132362
-0.000126675
-0.000121135
-0.000115744
-0.000110507
-0.000105426
-0.000100503
-9.57397e-05
-9.11367e-05
-8.66944e-05
-8.24129e-05
-7.82916e-05
-7.43294e-05
-7.05247e-05
-6.68756e-05
-6.33798e-05
-6.00346e-05
-5.68369e-05
-5.37835e-05
-5.08707e-05
-4.80949e-05
-4.54519e-05
-4.29376e-05
-4.05478e-05
-3.82781e-05
-3.61241e-05
-3.40811e-05
-3.21448e-05
-3.03106e-05
-2.85739e-05
-2.69305e-05
-2.53757e-05
-2.39055e-05
-2.25157e-05
-2.12021e-05
-1.99608e-05
-1.87881e-05
-1.76804e-05
-1.66341e-05
-1.56459e-05
-1.47126e-05
-1.38311e-05
-1.29986e-05
-1.22121e-05
-0.000130869
-0.000125348
-0.00011996
-0.00011471
-0.000109602
-0.000104639
-9.98221e-05
-9.51547e-05
-9.06379e-05
-8.62726e-05
-8.20593e-05
-7.79979e-05
-7.40879e-05
-7.03283e-05
-6.67178e-05
-6.32545e-05
-5.99363e-05
-5.67606e-05
-5.37247e-05
-5.08254e-05
-4.80594e-05
-4.54232e-05
-4.2913e-05
-4.05249e-05
-3.82549e-05
-3.60988e-05
-3.40525e-05
-3.21117e-05
-3.02722e-05
-2.85296e-05
-2.68798e-05
-2.53186e-05
-2.38418e-05
-2.24454e-05
-2.11254e-05
-1.98781e-05
-1.86998e-05
-1.75869e-05
-1.65359e-05
-1.55435e-05
-1.46065e-05
-1.3722e-05
-1.2887e-05
-1.20988e-05
-0.000129168
-0.000123817
-0.000118587
-0.000113484
-0.000108511
-0.000103671
-9.89681e-05
-9.44038e-05
-8.99804e-05
-8.56992e-05
-8.15613e-05
-7.7567e-05
-7.37164e-05
-7.0009e-05
-6.6444e-05
-6.302e-05
-5.97354e-05
-5.65882e-05
-5.3576e-05
-5.06962e-05
-4.79459e-05
-4.53219e-05
-4.2821e-05
-4.04395e-05
-3.81739e-05
-3.60202e-05
-3.39747e-05
-3.20334e-05
-3.01922e-05
-2.84472e-05
-2.67942e-05
-2.52294e-05
-2.37487e-05
-2.23483e-05
-2.10244e-05
-1.97732e-05
-1.85912e-05
-1.74748e-05
-1.64208e-05
-1.54257e-05
-1.44866e-05
-1.36003e-05
-1.2764e-05
-1.19749e-05
-0.000127272
-0.000122095
-0.000117029
-0.000112077
-0.000107244
-0.000102534
-9.79498e-05
-9.34948e-05
-8.91711e-05
-8.49805e-05
-8.09245e-05
-7.7004e-05
-7.32194e-05
-6.95707e-05
-6.60577e-05
-6.26794e-05
-5.94347e-05
-5.6322e-05
-5.33394e-05
-5.04847e-05
-4.77556e-05
-4.51491e-05
-4.26624e-05
-4.02924e-05
-3.80356e-05
-3.58887e-05
-3.38481e-05
-3.191e-05
-3.00707e-05
-2.83265e-05
-2.66736e-05
-2.5108e-05
-2.36262e-05
-2.22243e-05
-2.08987e-05
-1.96458e-05
-1.84621e-05
-1.73442e-05
-1.62887e-05
-1.52926e-05
-1.43526e-05
-1.34658e-05
-1.26294e-05
-1.18405e-05
-0.000125195
-0.000120196
-0.000115296
-0.000110499
-0.000105811
-0.000101235
-9.67759e-05
-9.24356e-05
-8.82172e-05
-8.4123e-05
-8.01549e-05
-7.63141e-05
-7.26015e-05
-6.90176e-05
-6.55625e-05
-6.22359e-05
-5.90368e-05
-5.59643e-05
-5.30169e-05
-5.01928e-05
-4.74899e-05
-4.49059e-05
-4.24383e-05
-4.00843e-05
-3.78408e-05
-3.57048e-05
-3.36729e-05
-3.17418e-05
-2.99079e-05
-2.81679e-05
-2.65179e-05
-2.49546e-05
-2.34743e-05
-2.20734e-05
-2.07484e-05
-1.94959e-05
-1.83124e-05
-1.71947e-05
-1.61396e-05
-1.51438e-05
-1.42044e-05
-1.33183e-05
-1.2483e-05
-1.16954e-05
-0.000122951
-0.000118132
-0.0001134
-0.000108762
-0.000104223
-9.97857e-05
-9.54549e-05
-9.1234e-05
-8.71259e-05
-8.31333e-05
-7.92583e-05
-7.55026e-05
-7.18676e-05
-6.8354e-05
-6.49624e-05
-6.16927e-05
-5.85448e-05
-5.55178e-05
-5.26107e-05
-4.98222e-05
-4.71506e-05
-4.45939e-05
-4.21499e-05
-3.98162e-05
-3.75902e-05
-3.5469e-05
-3.34497e-05
-3.15292e-05
-2.97041e-05
-2.79714e-05
-2.63275e-05
-2.47692e-05
-2.3293e-05
-2.18955e-05
-2.05734e-05
-1.93234e-05
-1.81421e-05
-1.70265e-05
-1.59732e-05
-1.49794e-05
-1.40419e-05
-1.31579e-05
-1.23247e-05
-1.15395e-05
-0.000120553
-0.000115914
-0.000111354
-0.000106877
-0.000102489
-9.81936e-05
-9.39954e-05
-8.98979e-05
-8.59045e-05
-8.20179e-05
-7.82408e-05
-7.45751e-05
-7.10225e-05
-6.75842e-05
-6.42611e-05
-6.10536e-05
-5.79617e-05
-5.49852e-05
-5.21233e-05
-4.93752e-05
-4.67394e-05
-4.42145e-05
-4.17985e-05
-3.94894e-05
-3.72848e-05
-3.51823e-05
-3.31792e-05
-3.12727e-05
-2.94598e-05
-2.77374e-05
-2.61025e-05
-2.45519e-05
-2.30824e-05
-2.16907e-05
-2.03738e-05
-1.91283e-05
-1.79512e-05
-1.68393e-05
-1.57896e-05
-1.47992e-05
-1.38651e-05
-1.29845e-05
-1.21546e-05
-1.13728e-05
-0.000118012
-0.000113555
-0.000109167
-0.000104854
-0.000100619
-9.64684e-05
-9.24058e-05
-8.84352e-05
-8.45601e-05
-8.07835e-05
-7.71084e-05
-7.3537e-05
-7.00713e-05
-6.67129e-05
-6.34628e-05
-6.0322e-05
-5.72908e-05
-5.43694e-05
-5.15572e-05
-4.88539e-05
-4.62583e-05
-4.37694e-05
-4.13855e-05
-3.91049e-05
-3.69256e-05
-3.48455e-05
-3.28621e-05
-3.0973e-05
-2.91753e-05
-2.74664e-05
-2.58433e-05
-2.43031e-05
-2.28427e-05
-2.14592e-05
-2.01496e-05
-1.89107e-05
-1.77396e-05
-1.66333e-05
-1.55888e-05
-1.46033e-05
-1.36739e-05
-1.27979e-05
-1.19726e-05
-1.11953e-05
-0.000115342
-0.000111067
-0.000106852
-0.000102702
-9.8623e-05
-9.4619e-05
-9.06945e-05
-8.68535e-05
-8.30998e-05
-7.94367e-05
-7.58672e-05
-7.23939e-05
-6.9019e-05
-6.57445e-05
-6.25717e-05
-5.95018e-05
-5.65355e-05
-5.36733e-05
-5.09151e-05
-4.82607e-05
-4.57094e-05
-4.32604e-05
-4.09125e-05
-3.86642e-05
-3.65139e-05
-3.44596e-05
-3.24993e-05
-3.06307e-05
-2.88514e-05
-2.71588e-05
-2.55502e-05
-2.4023e-05
-2.25743e-05
-2.12012e-05
-1.9901e-05
-1.86707e-05
-1.75075e-05
-1.64085e-05
-1.53708e-05
-1.43917e-05
-1.34684e-05
-1.25983e-05
-1.17786e-05
-1.10069e-05
-0.000112552
-0.000108459
-0.000104417
-0.000100432
-9.65099e-05
-9.26541e-05
-8.88695e-05
-8.51605e-05
-8.15308e-05
-7.7984e-05
-7.45232e-05
-7.11512e-05
-6.78707e-05
-6.46837e-05
-6.15918e-05
-5.85967e-05
-5.56992e-05
-5.29001e-05
-5.01997e-05
-4.7598e-05
-4.50948e-05
-4.26895e-05
-4.03812e-05
-3.81688e-05
-3.60508e-05
-3.40257e-05
-3.20917e-05
-3.02467e-05
-2.84886e-05
-2.68151e-05
-2.52238e-05
-2.3712e-05
-2.22773e-05
-2.0917e-05
-1.96283e-05
-1.84085e-05
-1.7255e-05
-1.6165e-05
-1.51357e-05
-1.41644e-05
-1.32486e-05
-1.23856e-05
-1.15728e-05
-1.08077e-05
-0.000109656
-0.000105743
-0.000101874
-9.80541e-05
-9.42886e-05
-9.0582e-05
-8.69389e-05
-8.33635e-05
-7.98599e-05
-7.64317e-05
-7.30823e-05
-6.98146e-05
-6.66314e-05
-6.35351e-05
-6.05275e-05
-5.76105e-05
-5.47853e-05
-5.20528e-05
-4.94137e-05
-4.68684e-05
-4.44168e-05
-4.20587e-05
-3.97934e-05
-3.76201e-05
-3.55378e-05
-3.3545e-05
-3.16403e-05
-2.98219e-05
-2.80878e-05
-2.64361e-05
-2.48645e-05
-2.33707e-05
-2.19522e-05
-2.06067e-05
-1.93316e-05
-1.81243e-05
-1.69823e-05
-1.59029e-05
-1.48835e-05
-1.39216e-05
-1.30146e-05
-1.21599e-05
-1.1355e-05
-1.05976e-05
-0.000106662
-0.000102929
-9.92316e-05
-9.55764e-05
-9.19681e-05
-8.84112e-05
-8.49104e-05
-8.147e-05
-7.80941e-05
-7.47864e-05
-7.15505e-05
-6.83895e-05
-6.53063e-05
-6.23034e-05
-5.93831e-05
-5.65472e-05
-5.37974e-05
-5.11348e-05
-4.85603e-05
-4.60745e-05
-4.36778e-05
-4.137e-05
-3.91509e-05
-3.702e-05
-3.49763e-05
-3.30188e-05
-3.11463e-05
-2.93572e-05
-2.76499e-05
-2.60225e-05
-2.44731e-05
-2.29995e-05
-2.15995e-05
-2.0271e-05
-1.90114e-05
-1.78184e-05
-1.66896e-05
-1.56225e-05
-1.46146e-05
-1.36634e-05
-1.27664e-05
-1.19213e-05
-1.11255e-05
-1.03768e-05
-0.000563765
-0.000538903
-0.00051446
-0.000490528
-0.000467186
-0.0004445
-0.000422522
-0.000401293
-0.000380844
-0.000361197
-0.000342364
-0.000324351
-0.000307156
-0.000290772
-0.000275187
-0.000260386
-0.000246347
-0.000233048
-0.000220466
-0.000208573
-0.000197342
-0.000186744
-0.000176751
-0.000167334
-0.000158465
-0.000150115
-0.000142257
-0.000542594
-0.000519686
-0.00049709
-0.000474895
-0.000453179
-0.000432008
-0.000411436
-0.000391508
-0.000372256
-0.000353707
-0.000335876
-0.000318775
-0.000302407
-0.00028677
-0.000271856
-0.000257656
-0.000244153
-0.000231331
-0.00021917
-0.000207647
-0.00019674
-0.000186425
-0.000176676
-0.000167469
-0.000158779
-0.000150581
-0.000142849
-0.000521767
-0.000500683
-0.000479817
-0.000459256
-0.000439076
-0.000419343
-0.000400112
-0.000381427
-0.000363326
-0.000345837
-0.00032898
-0.000312769
-0.000297212
-0.000282311
-0.000268063
-0.000254463
-0.000241499
-0.00022916
-0.000217428
-0.000206286
-0.000195716
-0.000185697
-0.000176207
-0.000167226
-0.00015873
-0.000150699
-0.00014311
-0.000501313
-0.00048193
-0.000462684
-0.000443658
-0.000424927
-0.000406556
-0.000388598
-0.000371102
-0.000354105
-0.000337637
-0.000321722
-0.000306376
-0.000291612
-0.000277434
-0.000263845
-0.000250841
-0.000238416
-0.000226562
-0.000215265
-0.000204512
-0.000194288
-0.000184576
-0.000175358
-0.000166615
-0.000158328
-0.000150479
-0.000143047
-0.000481255
-0.000463458
-0.000445726
-0.000428142
-0.000410776
-0.000393692
-0.000376945
-0.000360581
-0.00034464
-0.000329154
-0.000314149
-0.000299643
-0.000285651
-0.000272182
-0.000259241
-0.000246827
-0.000234939
-0.00022357
-0.000212711
-0.000202353
-0.000192482
-0.000183086
-0.000174149
-0.000165655
-0.000157589
-0.000149933
-0.000142671
-0.000461612
-0.000445292
-0.000428977
-0.000412745
-0.000396665
-0.000380798
-0.000365199
-0.000349914
-0.000334983
-0.00032044
-0.000306311
-0.000292618
-0.000279377
-0.0002666
-0.000254295
-0.000242463
-0.000231106
-0.000220221
-0.000209801
-0.00019984
-0.000190328
-0.000181254
-0.000172606
-0.000164371
-0.000156535
-0.000149084
-0.000142002
-0.000442399
-0.000427456
-0.000412465
-0.000397502
-0.000382631
-0.000367914
-0.000353402
-0.000339144
-0.000325177
-0.000311537
-0.000298252
-0.000285344
-0.000272832
-0.00026073
-0.000249046
-0.000237786
-0.000226954
-0.000216549
-0.000206567
-0.000197005
-0.000187855
-0.000179108
-0.000170755
-0.000162785
-0.000155187
-0.000147949
-0.000141057
-0.000423628
-0.000409967
-0.000396213
-0.000382438
-0.000368706
-0.000355073
-0.000341592
-0.000328308
-0.000315262
-0.000302486
-0.000290011
-0.000277861
-0.000266054
-0.000254607
-0.00024353
-0.000232832
-0.000222516
-0.000212585
-0.000203039
-0.000193875
-0.000185087
-0.00017667
-0.000168616
-0.000160918
-0.000153564
-0.000146546
-0.000139852
-0.000405306
-0.000392838
-0.00038024
-0.000367579
-0.000354916
-0.000342307
-0.0003298
-0.000317442
-0.000305272
-0.000293323
-0.000281626
-0.000270204
-0.000259079
-0.000248267
-0.000237782
-0.000227631
-0.000217823
-0.00020836
-0.000199245
-0.000190475
-0.00018205
-0.000173965
-0.000166213
-0.000158789
-0.000151685
-0.000144892
-0.000138403
-0.000387439
-0.000376082
-0.000364563
-0.000352945
-0.000341287
-0.000329641
-0.000318057
-0.000306577
-0.00029524
-0.00028408
-0.000273128
-0.000262407
-0.000251939
-0.000241743
-0.000231831
-0.000222215
-0.000212904
-0.000203901
-0.00019521
-0.000186833
-0.000178768
-0.000171014
-0.000163566
-0.000156419
-0.000149568
-0.000143006
-0.000136725
-0.000370028
-0.000359705
-0.000349193
-0.000338552
-0.000327838
-0.0003171
-0.000306386
-0.000295738
-0.000285194
-0.000274788
-0.000264547
-0.000254499
-0.000244665
-0.000235063
-0.000225709
-0.000216613
-0.000207786
-0.000199234
-0.000190961
-0.000182971
-0.000175264
-0.000167839
-0.000160695
-0.000153826
-0.00014723
-0.000140902
-0.000134834
-0.000353075
-0.000343714
-0.000334141
-0.000324415
-0.000314586
-0.000304703
-0.000294812
-0.000284952
-0.000275161
-0.000265471
-0.000255912
-0.000246509
-0.000237284
-0.000228256
-0.00021944
-0.00021085
-0.000202495
-0.000194384
-0.000186522
-0.000178913
-0.00017156
-0.000164462
-0.000157619
-0.00015103
-0.00014469
-0.000138597
-0.000132746
-0.000336577
-0.000328111
-0.000319415
-0.000310544
-0.000301546
-0.000292468
-0.000283353
-0.000274239
-0.000265163
-0.000256156
-0.000247247
-0.000238462
-0.000229822
-0.000221346
-0.000213051
-0.000204951
-0.000197056
-0.000189374
-0.000181914
-0.00017468
-0.000167675
-0.000160901
-0.000154359
-0.000148047
-0.000141964
-0.000136107
-0.000130474
-0.000320531
-0.000312898
-0.00030502
-0.000296949
-0.000288731
-0.00028041
-0.000272026
-0.000263618
-0.00025522
-0.000246863
-0.000238574
-0.000230379
-0.000222301
-0.000214357
-0.000206565
-0.000198938
-0.000191489
-0.000184227
-0.000177159
-0.000170292
-0.00016363
-0.000157175
-0.00015093
-0.000144894
-0.000139067
-0.000133447
-0.000128033
-0.000304934
-0.000298075
-0.00029096
-0.000283638
-0.000276151
-0.000268541
-0.000260847
-0.000253106
-0.000245351
-0.00023761
-0.000229913
-0.000222283
-0.000214742
-0.00020731
-0.000200002
-0.000192833
-0.000185817
-0.000178962
-0.000172277
-0.000165769
-0.000159443
-0.000153302
-0.00014735
-0.000141588
-0.000136015
-0.000130632
-0.000125436
-0.000289779
-0.00028364
-0.000277237
-0.000270614
-0.000263812
-0.000256871
-0.000249828
-0.000242717
-0.000235571
-0.000228417
-0.000221282
-0.000214191
-0.000207165
-0.000200223
-0.000193382
-0.000186656
-0.000180057
-0.000173597
-0.000167285
-0.000161128
-0.000155131
-0.000149299
-0.000143636
-0.000138143
-0.000132823
-0.000127674
-0.000122698
-0.000275059
-0.00026959
-0.000263851
-0.000257882
-0.000251723
-0.00024541
-0.00023898
-0.000232464
-0.000225894
-0.000219296
-0.000212697
-0.000206121
-0.000199587
-0.000193115
-0.000186722
-0.000180422
-0.000174228
-0.000168152
-0.000162201
-0.000156385
-0.00015071
-0.000145181
-0.000139802
-0.000134575
-0.000129504
-0.000124588
-0.000119829
-0.000260768
-0.000255922
-0.000250801
-0.000245444
-0.000239887
-0.000234165
-0.000228311
-0.000222357
-0.000216332
-0.000210262
-0.000204173
-0.000198086
-0.000192023
-0.000186002
-0.000180039
-0.00017415
-0.000168346
-0.00016264
-0.000157041
-0.000151557
-0.000146196
-0.000140962
-0.000135862
-0.000130897
-0.000126072
-0.000121387
-0.000116844
-0.000246897
-0.000242631
-0.000238087
-0.000233301
-0.000228308
-0.00022314
-0.00021783
-0.000212406
-0.000206896
-0.000201327
-0.000195722
-0.000190102
-0.000184488
-0.000178898
-0.000173348
-0.000167853
-0.000162426
-0.000157078
-0.000151819
-0.000146658
-0.000141602
-0.000136658
-0.00013183
-0.000127122
-0.000122539
-0.000118081
-0.000113752
-0.000233438
-0.000229711
-0.000225705
-0.000221453
-0.000216988
-0.000212341
-0.000207541
-0.000202617
-0.000197595
-0.0001925
-0.000187354
-0.000182179
-0.000176994
-0.000171816
-0.000166662
-0.000161546
-0.000156481
-0.000151479
-0.00014655
-0.000141702
-0.000136943
-0.00013228
-0.000127719
-0.000123263
-0.000118917
-0.000114683
-0.000110565
-0.000220649
-0.000217413
-0.000213898
-0.000210135
-0.000206154
-0.000201985
-0.000197656
-0.000193194
-0.000188624
-0.000183968
-0.00017925
-0.000174489
-0.000169704
-0.000164912
-0.000160129
-0.00015537
-0.000150647
-0.000145971
-0.000141354
-0.000136803
-0.000132327
-0.000127933
-0.000123626
-0.000119411
-0.000115294
-0.000111276
-0.000107361
-0.000208371
-0.000205588
-0.000202526
-0.000199216
-0.000195685
-0.000191961
-0.000188071
-0.00018404
-0.000179892
-0.000175649
-0.000171332
-0.000166961
-0.000162554
-0.000158127
-0.000153696
-0.000149276
-0.000144878
-0.000140514
-0.000136194
-0.000131928
-0.000127723
-0.000123587
-0.000119526
-0.000115545
-0.000111649
-0.00010784
-0.000104123
-0.000196219
-0.000193866
-0.000191237
-0.000188358
-0.000185258
-0.00018196
-0.000178492
-0.000174876
-0.000171134
-0.00016729
-0.000163362
-0.000159369
-0.000155329
-0.000151258
-0.000147171
-0.000143082
-0.000139002
-0.000134945
-0.000130918
-0.000126933
-0.000122997
-0.000119117
-0.0001153
-0.000111551
-0.000107875
-0.000104276
-0.000100758
-0.000184201
-0.000182257
-0.000180038
-0.000177571
-0.000174881
-0.000171992
-0.000168927
-0.000165709
-0.000162361
-0.0001589
-0.000155348
-0.000151722
-0.000148039
-0.000144314
-0.000140562
-0.000136796
-0.000133029
-0.000129271
-0.000125533
-0.000121825
-0.000118154
-0.000114527
-0.000110952
-0.000107434
-0.000103978
-0.000100588
-9.72679e-05
-0.000172325
-0.000170767
-0.000168938
-0.000166863
-0.000164564
-0.000162065
-0.000159387
-0.000156552
-0.00015358
-0.00015049
-0.000147301
-0.000144029
-0.000140692
-0.000137303
-0.000133877
-0.000130427
-0.000126964
-0.000123501
-0.000120047
-0.00011661
-0.0001132
-0.000109824
-0.000106489
-0.000103199
-9.99613e-05
-9.67795e-05
-9.36577e-05
-0.000160598
-0.000159406
-0.000157947
-0.000156243
-0.000154317
-0.000152189
-0.000149881
-0.000147413
-0.000144803
-0.000142069
-0.00013923
-0.0001363
-0.000133297
-0.000130234
-0.000127125
-0.000123982
-0.000120818
-0.000117642
-0.000114465
-0.000111296
-0.000108143
-0.000105014
-0.000101915
-9.88521e-05
-9.58309e-05
-9.28561e-05
-8.99318e-05
-0.000149027
-0.00014818
-0.00014707
-0.000145719
-0.000144148
-0.000142374
-0.000140419
-0.000138301
-0.000136038
-0.000133646
-0.000131143
-0.000128545
-0.000125864
-0.000123117
-0.000120315
-0.000117472
-0.000114597
-0.000111702
-0.000108797
-0.00010589
-0.00010299
-0.000100103
-9.72375e-05
-9.43987e-05
-9.15922e-05
-8.88228e-05
-8.60948e-05
-0.000137617
-0.000137096
-0.000136317
-0.0001353
-0.000134065
-0.000132628
-0.000131009
-0.000129226
-0.000127294
-0.000125231
-0.000123052
-0.000120771
-0.000118403
-0.000115961
-0.000113457
-0.000110903
-0.000108311
-0.00010569
-0.00010305
-0.000100399
-9.77465e-05
-9.50989e-05
-9.24631e-05
-8.98453e-05
-8.72509e-05
-8.4685e-05
-8.2152e-05
-0.000126376
-0.000126161
-0.000125694
-0.000124993
-0.000124076
-0.00012296
-0.000121661
-0.000120197
-0.000118582
-0.000116833
-0.000114964
-0.000112989
-0.000110922
-0.000108774
-0.000106558
-0.000104286
-0.000101968
-9.96131e-05
-9.72316e-05
-9.48318e-05
-9.24215e-05
-9.00081e-05
-8.75983e-05
-8.51981e-05
-8.28132e-05
-8.04486e-05
-7.81087e-05
-0.000115308
-0.000115381
-0.000115208
-0.000114806
-0.00011419
-0.000113377
-0.000112382
-0.000111222
-0.00010991
-0.000108461
-0.00010689
-0.000105208
-0.00010343
-0.000101566
-9.96289e-05
-9.76288e-05
-9.55762e-05
-9.34806e-05
-9.13509e-05
-8.91956e-05
-8.70223e-05
-8.48383e-05
-8.26502e-05
-8.04641e-05
-7.82855e-05
-7.61194e-05
-7.39706e-05
-0.000104419
-0.000104763
-0.000104866
-0.000104744
-0.000104413
-0.000103888
-0.000103182
-0.00010231
-0.000101287
-0.000100125
-9.88376e-05
-9.74376e-05
-9.59366e-05
-9.43463e-05
-9.26775e-05
-9.09405e-05
-8.91452e-05
-8.73007e-05
-8.54158e-05
-8.34986e-05
-8.15566e-05
-7.95969e-05
-7.76261e-05
-7.565e-05
-7.36743e-05
-7.17039e-05
-6.97437e-05
-9.37145e-05
-9.43109e-05
-9.46733e-05
-9.48164e-05
-9.4754e-05
-9.44996e-05
-9.40671e-05
-9.34697e-05
-9.27205e-05
-9.1832e-05
-9.08165e-05
-8.96858e-05
-8.84512e-05
-8.71235e-05
-8.57131e-05
-8.42299e-05
-8.26833e-05
-8.10822e-05
-7.94348e-05
-7.77492e-05
-7.60325e-05
-7.42918e-05
-7.25333e-05
-7.07631e-05
-6.89865e-05
-6.72087e-05
-6.54342e-05
-8.31979e-05
-8.40308e-05
-8.46363e-05
-8.50279e-05
-8.52183e-05
-8.52201e-05
-8.50461e-05
-8.47087e-05
-8.42199e-05
-8.35917e-05
-8.28353e-05
-8.1962e-05
-8.09823e-05
-7.99066e-05
-7.87447e-05
-7.7506e-05
-7.61995e-05
-7.48336e-05
-7.34164e-05
-7.19555e-05
-7.0458e-05
-6.89306e-05
-6.73796e-05
-6.58106e-05
-6.42292e-05
-6.26404e-05
-6.10487e-05
-7.28737e-05
-7.39273e-05
-7.47603e-05
-7.53849e-05
-7.5813e-05
-7.60562e-05
-7.61263e-05
-7.60349e-05
-7.57931e-05
-7.54121e-05
-7.49025e-05
-7.42748e-05
-7.35389e-05
-7.27046e-05
-7.17812e-05
-7.07777e-05
-6.97025e-05
-6.85638e-05
-6.73692e-05
-6.61261e-05
-6.48414e-05
-6.35216e-05
-6.21726e-05
-6.08002e-05
-5.94098e-05
-5.80061e-05
-5.65938e-05
-6.27458e-05
-6.4005e-05
-6.50503e-05
-6.58931e-05
-6.65443e-05
-6.70146e-05
-6.73148e-05
-6.74558e-05
-6.74479e-05
-6.73015e-05
-6.70265e-05
-6.66328e-05
-6.61296e-05
-6.55263e-05
-6.48315e-05
-6.40537e-05
-6.3201e-05
-6.22813e-05
-6.13017e-05
-6.02694e-05
-5.9191e-05
-5.80726e-05
-5.69203e-05
-5.57395e-05
-5.45355e-05
-5.3313e-05
-5.20766e-05
-5.28178e-05
-5.4268e-05
-5.55112e-05
-5.65579e-05
-5.74181e-05
-5.81016e-05
-5.86185e-05
-5.89787e-05
-5.91919e-05
-5.92678e-05
-5.92155e-05
-5.90443e-05
-5.8763e-05
-5.83802e-05
-5.79041e-05
-5.73428e-05
-5.67039e-05
-5.59948e-05
-5.52226e-05
-5.43938e-05
-5.3515e-05
-5.25921e-05
-5.16307e-05
-5.06364e-05
-4.96141e-05
-4.85685e-05
-4.75041e-05
-4.30928e-05
-4.47202e-05
-4.61475e-05
-4.73844e-05
-4.844e-05
-4.93234e-05
-5.00439e-05
-5.06106e-05
-5.10325e-05
-5.13186e-05
-5.14774e-05
-5.15176e-05
-5.14474e-05
-5.12748e-05
-5.10077e-05
-5.06535e-05
-5.02197e-05
-4.9713e-05
-4.91403e-05
-4.85079e-05
-4.78219e-05
-4.70881e-05
-4.63119e-05
-4.54986e-05
-4.46531e-05
-4.378e-05
-4.28835e-05
-3.35738e-05
-3.53652e-05
-3.69635e-05
-3.83774e-05
-3.96155e-05
-4.06859e-05
-4.15973e-05
-4.23582e-05
-4.29768e-05
-4.34613e-05
-4.382e-05
-4.40606e-05
-4.41909e-05
-4.42185e-05
-4.41507e-05
-4.39945e-05
-4.37569e-05
-4.34445e-05
-4.30635e-05
-4.26201e-05
-4.212e-05
-4.15689e-05
-4.0972e-05
-4.03343e-05
-3.96605e-05
-3.89552e-05
-3.82225e-05
-2.42636e-05
-2.62063e-05
-2.7963e-05
-2.95414e-05
-3.09495e-05
-3.21947e-05
-3.32849e-05
-3.42279e-05
-3.50315e-05
-3.57033e-05
-3.62506e-05
-3.6681e-05
-3.70015e-05
-3.72194e-05
-3.73414e-05
-3.73741e-05
-3.73241e-05
-3.71976e-05
-3.70006e-05
-3.67388e-05
-3.64178e-05
-3.6043e-05
-3.56192e-05
-3.51515e-05
-3.46442e-05
-3.41018e-05
-3.35284e-05
-1.51645e-05
-1.72467e-05
-1.91497e-05
-2.08807e-05
-2.24468e-05
-2.3855e-05
-2.51123e-05
-2.62261e-05
-2.72034e-05
-2.80513e-05
-2.87766e-05
-2.93863e-05
-2.98871e-05
-3.02854e-05
-3.05878e-05
-3.08005e-05
-3.09295e-05
-3.09808e-05
-3.09599e-05
-3.08725e-05
-3.07236e-05
-3.05184e-05
-3.02618e-05
-2.99582e-05
-2.96122e-05
-2.92278e-05
-2.8809e-05
-6.27881e-06
-8.48924e-06
-1.05272e-05
-1.23993e-05
-1.41121e-05
-1.56718e-05
-1.70851e-05
-1.83586e-05
-1.94988e-05
-2.05121e-05
-2.14051e-05
-2.21839e-05
-2.2855e-05
-2.34244e-05
-2.3898e-05
-2.42818e-05
-2.45814e-05
-2.48023e-05
-2.49499e-05
-2.50294e-05
-2.50457e-05
-2.50036e-05
-2.49078e-05
-2.47627e-05
-2.45723e-05
-2.43409e-05
-2.40721e-05
2.39143e-06
6.35572e-08
-2.09857e-06
-4.10097e-06
-5.94955e-06
-7.65006e-06
-9.20855e-06
-1.06311e-05
-1.19236e-05
-1.30922e-05
-1.41426e-05
-1.50809e-05
-1.59127e-05
-1.66438e-05
-1.72797e-05
-1.78259e-05
-1.82877e-05
-1.86703e-05
-1.89787e-05
-1.92178e-05
-1.93923e-05
-1.95068e-05
-1.95656e-05
-1.9573e-05
-1.95329e-05
-1.94492e-05
-1.93256e-05
1.08444e-05
8.40924e-06
6.13321e-06
4.01085e-06
2.0368e-06
2.05834e-07
-1.48758e-06
-3.04896e-06
-4.48383e-06
-5.79766e-06
-6.99592e-06
-8.08402e-06
-9.0673e-06
-9.95104e-06
-1.07404e-05
-1.14405e-05
-1.20564e-05
-1.25927e-05
-1.30544e-05
-1.34459e-05
-1.37717e-05
-1.40361e-05
-1.42433e-05
-1.43973e-05
-1.45018e-05
-1.45606e-05
-1.45772e-05
1.90785e-05
1.65456e-05
1.41653e-05
1.19328e-05
9.84313e-06
7.89154e-06
6.07303e-06
4.38253e-06
2.81501e-06
1.36543e-06
2.87687e-08
-1.19995e-06
-2.32568e-06
-3.35329e-06
-4.2876e-06
-5.13334e-06
-5.89515e-06
-6.57754e-06
-7.18496e-06
-7.7217e-06
-8.19196e-06
-8.59978e-06
-8.94909e-06
-9.24368e-06
-9.48721e-06
-9.68318e-06
-9.83496e-06
2.70922e-05
2.44706e-05
2.19953e-05
1.96618e-05
1.74658e-05
1.5403e-05
1.34687e-05
1.16584e-05
9.96752e-06
8.39136e-06
6.92534e-06
5.56489e-06
4.30544e-06
3.14248e-06
2.07157e-06
1.0883e-06
1.88369e-07
-6.32448e-07
-1.37829e-06
-2.05319e-06
-2.66108e-06
-3.20578e-06
-3.691e-06
-4.12031e-06
-4.49719e-06
-4.82498e-06
-5.10688e-06
3.48843e-05
3.21824e-05
2.96206e-05
2.7195e-05
2.49015e-05
2.27363e-05
2.06952e-05
1.8774e-05
1.69686e-05
1.52746e-05
1.36879e-05
1.22043e-05
1.08195e-05
9.52949e-06
8.33005e-06
7.21713e-06
6.18675e-06
5.23495e-06
4.35789e-06
3.55179e-06
2.81297e-06
2.13783e-06
1.5229e-06
9.64778e-07
4.60192e-07
5.97253e-09
-4.0094e-07
4.24534e-05
3.96792e-05
3.70391e-05
3.45296e-05
3.2147e-05
2.98879e-05
2.77484e-05
2.57248e-05
2.38132e-05
2.20098e-05
2.03108e-05
1.87122e-05
1.72103e-05
1.58011e-05
1.4481e-05
1.32461e-05
1.20927e-05
1.10172e-05
1.0016e-05
9.0855e-06
8.22235e-06
7.42315e-06
6.68462e-06
6.00357e-06
5.37691e-06
4.80164e-06
4.27484e-06
4.97986e-05
4.69595e-05
4.42487e-05
4.16631e-05
3.91992e-05
3.68541e-05
3.46242e-05
3.25062e-05
3.04966e-05
2.85918e-05
2.67884e-05
2.50828e-05
2.34715e-05
2.1951e-05
2.05177e-05
1.91682e-05
1.78991e-05
1.6707e-05
1.55885e-05
1.45403e-05
1.35593e-05
1.26423e-05
1.17862e-05
1.09881e-05
1.0245e-05
9.55399e-06
8.91245e-06
5.69188e-05
5.40218e-05
5.12474e-05
4.85929e-05
4.60552e-05
4.36316e-05
4.1319e-05
3.91143e-05
3.70142e-05
3.50157e-05
3.31156e-05
3.13105e-05
2.95973e-05
2.79728e-05
2.64336e-05
2.49767e-05
2.35989e-05
2.2297e-05
2.1068e-05
1.99087e-05
1.88162e-05
1.77876e-05
1.68199e-05
1.59104e-05
1.50563e-05
1.4255e-05
1.35039e-05
6.38131e-05
6.08646e-05
5.80334e-05
5.53168e-05
5.27123e-05
5.02173e-05
4.78291e-05
4.55448e-05
4.33616e-05
4.12767e-05
3.9287e-05
3.73897e-05
3.55818e-05
3.38603e-05
3.22224e-05
3.0665e-05
2.91853e-05
2.77803e-05
2.64472e-05
2.51832e-05
2.39854e-05
2.28512e-05
2.17778e-05
2.07627e-05
1.98031e-05
1.88968e-05
1.80411e-05
7.04807e-05
6.74867e-05
6.46047e-05
6.18325e-05
5.91677e-05
5.66079e-05
5.41509e-05
5.17939e-05
4.95345e-05
4.73699e-05
4.52977e-05
4.3315e-05
4.14193e-05
3.96078e-05
3.78778e-05
3.62266e-05
3.46515e-05
3.31499e-05
3.17191e-05
3.03565e-05
2.90595e-05
2.78256e-05
2.66522e-05
2.5537e-05
2.44774e-05
2.34712e-05
2.25161e-05
7.69205e-05
7.38866e-05
7.09598e-05
6.81379e-05
6.54188e-05
6.28006e-05
6.0281e-05
5.78578e-05
5.55285e-05
5.3291e-05
5.11427e-05
4.90813e-05
4.71042e-05
4.52092e-05
4.33935e-05
4.16549e-05
3.99908e-05
3.83988e-05
3.68765e-05
3.54213e-05
3.4031e-05
3.27032e-05
3.14355e-05
3.02256e-05
2.90714e-05
2.79705e-05
2.69209e-05
8.31318e-05
8.00632e-05
7.70968e-05
7.42307e-05
7.14631e-05
6.87922e-05
6.62161e-05
6.37326e-05
6.13397e-05
5.90353e-05
5.68172e-05
5.46833e-05
5.26312e-05
5.06587e-05
4.87637e-05
4.69438e-05
4.51968e-05
4.35204e-05
4.19124e-05
4.03706e-05
3.88927e-05
3.74765e-05
3.61199e-05
3.48208e-05
3.35771e-05
3.23866e-05
3.12474e-05
8.91137e-05
8.6015e-05
8.3014e-05
8.01088e-05
7.7298e-05