/*--------------------------------*- C++ -*----------------------------------*\
| =========                 |                                                 |
| \\      /  F ield         | OpenFOAM: The Open Source CFD Toolbox           |
|  \\    /   O peration     | Version:  2412                                  |
|   \\  /    A nd           | Website:  www.openfoam.com                      |
|    \\/     M anipulation  |                                                 |
\*---------------------------------------------------------------------------*/
FoamFile
{
    version     2.0;
    format      ascii;
    arch        "LSB;label=32;scalar=64";
    class       volVectorField;
    location    "12";
    object      U;
}
// * * * * * * * * * * * * * * * * * * * * * * * * * * * * * * * * * * * * * //

dimensions      [0 1 -1 0 0 0 0];

internalField   nonuniform List<vector> 
5285
(
(0.115152 -0.000137886 0)
(0.114477 -0.000127052 0)
(0.114447 -0.000781096 0)
(0.114357 -0.00142751 0)
(0.114233 -0.00206395 0)
(0.114069 -0.00268711 0)
(0.113864 -0.00329287 0)
(0.113619 -0.00387734 0)
(0.113339 -0.00443704 0)
(0.113024 -0.00496889 0)
(0.11268 -0.00547024 0)
(0.112307 -0.005939 0)
(0.111911 -0.00637363 0)
(0.111494 -0.00677317 0)
(0.111059 -0.00713722 0)
(0.11061 -0.00746586 0)
(0.11015 -0.00775954 0)
(0.109682 -0.00801899 0)
(0.109209 -0.00824509 0)
(0.108735 -0.00843882 0)
(0.108261 -0.00860116 0)
(0.10779 -0.00873305 0)
(0.107325 -0.00883549 0)
(0.106867 -0.00890947 0)
(0.113848 -0.000117418 0)
(0.11382 -0.00072794 0)
(0.113739 -0.00133182 0)
(0.113626 -0.0019269 0)
(0.113476 -0.00251018 0)
(0.113288 -0.00307789 0)
(0.113065 -0.00362647 0)
(0.112807 -0.0041527 0)
(0.112519 -0.00465375 0)
(0.112203 -0.00512715 0)
(0.111861 -0.00557095 0)
(0.111496 -0.00598371 0)
(0.111112 -0.00636454 0)
(0.110711 -0.00671303 0)
(0.110296 -0.00702922 0)
(0.10987 -0.0073135 0)
(0.109437 -0.00756646 0)
(0.108998 -0.00778885 0)
(0.108556 -0.00798146 0)
(0.108114 -0.00814509 0)
(0.107674 -0.00828049 0)
(0.107238 -0.00838845 0)
(0.106808 -0.00846976 0)
(0.113261 -0.000108707 0)
(0.113235 -0.000679453 0)
(0.113161 -0.0012444 0)
(0.113057 -0.0018016 0)
(0.11292 -0.00234828 0)
(0.112748 -0.00288103 0)
(0.112543 -0.00339655 0)
(0.112307 -0.00389189 0)
(0.112043 -0.00436441 0)
(0.111752 -0.00481184 0)
(0.111437 -0.00523234 0)
(0.111101 -0.00562458 0)
(0.110747 -0.0059877 0)
(0.110377 -0.00632131 0)
(0.109993 -0.00662541 0)
(0.109599 -0.00690031 0)
(0.109197 -0.00714651 0)
(0.108789 -0.00736464 0)
(0.108378 -0.00755533 0)
(0.107966 -0.00771921 0)
(0.107555 -0.0078569 0)
(0.107146 -0.00796898 0)
(0.106742 -0.00805612 0)
(0.112711 -0.000100708 0)
(0.112687 -0.000635023 0)
(0.11262 -0.00116429 0)
(0.112525 -0.00168672 0)
(0.112399 -0.00219979 0)
(0.112241 -0.00270036 0)
(0.112052 -0.00318542 0)
(0.111836 -0.00365224 0)
(0.111592 -0.00409836 0)
(0.111325 -0.00452167 0)
(0.111035 -0.00492046 0)
(0.110725 -0.00529346 0)
(0.110398 -0.00563987 0)
(0.110056 -0.0059593 0)
(0.109701 -0.00625171 0)
(0.109336 -0.00651735 0)
(0.108963 -0.00675664 0)
(0.108584 -0.00697007 0)
(0.108201 -0.00715817 0)
(0.107817 -0.00732143 0)
(0.107432 -0.00746033 0)
(0.107049 -0.00757534 0)
(0.106669 -0.00766695 0)
(0.112197 -9.32451e-05 0)
(0.112175 -0.00059413 0)
(0.112113 -0.00109063 0)
(0.112025 -0.00158111 0)
(0.11191 -0.00206327 0)
(0.111764 -0.00253422 0)
(0.11159 -0.00299119 0)
(0.111391 -0.00343167 0)
(0.111167 -0.00385336 0)
(0.11092 -0.00425429 0)
(0.110652 -0.00463286 0)
(0.110367 -0.00498787 0)
(0.110065 -0.00531855 0)
(0.109748 -0.00562451 0)
(0.10942 -0.00590567 0)
(0.109082 -0.00616223 0)
(0.108735 -0.00639452 0)
(0.108383 -0.00660293 0)
(0.108026 -0.0067879 0)
(0.107667 -0.0069498 0)
(0.107307 -0.00708899 0)
(0.106948 -0.00720584 0)
(0.106591 -0.00730074 0)
(0.111714 -8.61829e-05 0)
(0.111694 -0.000556335 0)
(0.111637 -0.0010227 0)
(0.111556 -0.00148377 0)
(0.111449 -0.00193746 0)
(0.111315 -0.00238111 0)
(0.111155 -0.00281217 0)
(0.110971 -0.00322831 0)
(0.110764 -0.00362739 0)
(0.110536 -0.00400757 0)
(0.110289 -0.00436734 0)
(0.110025 -0.00470555 0)
(0.109746 -0.00502145 0)
(0.109453 -0.00531465 0)
(0.109149 -0.00558504 0)
(0.108835 -0.00583274 0)
(0.108514 -0.00605801 0)
(0.108186 -0.00626118 0)
(0.107854 -0.00644256 0)
(0.107518 -0.00660246 0)
(0.107181 -0.00674115 0)
(0.106844 -0.00685891 0)
(0.106509 -0.00695606 0)
(0.111262 -7.94205e-05 0)
(0.111242 -0.000521265 0)
(0.11119 -0.000959857 0)
(0.111116 -0.00139384 0)
(0.111017 -0.00182126 0)
(0.110892 -0.00223972 0)
(0.110745 -0.00264687 0)
(0.110574 -0.00304051 0)
(0.110383 -0.00341868 0)
(0.110173 -0.00377963 0)
(0.109944 -0.00412191 0)
(0.1097 -0.00444445 0)
(0.109441 -0.0047465 0)
(0.10917 -0.00502764 0)
(0.108888 -0.00528773 0)
(0.108597 -0.00552684 0)
(0.108298 -0.00574514 0)
(0.107993 -0.00594289 0)
(0.107683 -0.00612033 0)
(0.10737 -0.0062777 0)
(0.107055 -0.00641521 0)
(0.106739 -0.00653306 0)
(0.106423 -0.00663154 0)
(0.110836 -7.289e-05 0)
(0.110818 -0.000488615 0)
(0.11077 -0.000901578 0)
(0.110701 -0.00131054 0)
(0.110609 -0.00171373 0)
(0.110494 -0.00210892 0)
(0.110357 -0.00249396 0)
(0.1102 -0.00286681 0)
(0.110023 -0.00322562 0)
(0.109828 -0.00356874 0)
(0.109617 -0.0038948 0)
(0.10939 -0.00420273 0)
(0.109151 -0.0044918 0)
(0.108899 -0.00476157 0)
(0.108638 -0.00501185 0)
(0.108367 -0.00524263 0)
(0.108089 -0.00545405 0)
(0.107805 -0.00564627 0)
(0.107516 -0.00581949 0)
(0.107223 -0.00597389 0)
(0.106928 -0.00610962 0)
(0.106631 -0.00622687 0)
(0.106334 -0.00632587 0)
(0.110437 -6.65546e-05 0)
(0.11042 -0.000458137 0)
(0.110375 -0.000847408 0)
(0.110311 -0.00123324 0)
(0.110226 -0.00161401 0)
(0.110119 -0.0019877 0)
(0.109992 -0.00235229 0)
(0.109846 -0.0027059 0)
(0.109682 -0.00304679 0)
(0.109501 -0.00337338 0)
(0.109305 -0.00368436 0)
(0.109096 -0.00397869 0)
(0.108873 -0.00425561 0)
(0.10864 -0.00451466 0)
(0.108397 -0.00475559 0)
(0.108146 -0.00497835 0)
(0.107887 -0.00518299 0)
(0.107622 -0.00536963 0)
(0.107352 -0.00553841 0)
(0.107078 -0.00568946 0)
(0.106801 -0.00582293 0)
(0.106522 -0.00593898 0)
(0.106242 -0.00603782 0)
(0.110061 -6.04077e-05 0)
(0.110045 -0.000429639 0)
(0.110003 -0.000796972 0)
(0.109944 -0.00116139 0)
(0.109865 -0.00152141 0)
(0.109766 -0.00187517 0)
(0.109648 -0.00222083 0)
(0.109512 -0.00255662 0)
(0.10936 -0.0028809 0)
(0.109192 -0.00319216 0)
(0.10901 -0.00348913 0)
(0.108815 -0.00377077 0)
(0.108609 -0.00403632 0)
(0.108392 -0.00428527 0)
(0.108166 -0.00451731 0)
(0.107932 -0.00473233 0)
(0.107691 -0.00493033 0)
(0.107444 -0.00511137 0)
(0.107191 -0.00527554 0)
(0.106935 -0.00542296 0)
(0.106675 -0.00555376 0)
(0.106412 -0.00566809 0)
(0.106149 -0.00576619 0)
(0.109707 -5.44702e-05 0)
(0.109692 -0.000402976 0)
(0.109654 -0.000749965 0)
(0.109598 -0.00109452 0)
(0.109524 -0.00143529 0)
(0.109432 -0.00177058 0)
(0.109323 -0.00209868 0)
(0.109196 -0.00241794 0)
(0.109055 -0.00272679 0)
(0.108899 -0.00302381 0)
(0.10873 -0.00330774 0)
(0.108549 -0.00357754 0)
(0.108357 -0.00383243 0)
(0.108155 -0.00407184 0)
(0.107945 -0.00429543 0)
(0.107726 -0.004503 0)
(0.107501 -0.0046945 0)
(0.10727 -0.00486995 0)
(0.107034 -0.0050294 0)
(0.106793 -0.00517297 0)
(0.106549 -0.00530077 0)
(0.106302 -0.00541298 0)
(0.106053 -0.00550985 0)
(0.109374 -4.8787e-05 0)
(0.10936 -0.000378047 0)
(0.109324 -0.000706142 0)
(0.109273 -0.00103225 0)
(0.109204 -0.00135514 0)
(0.109118 -0.00167327 0)
(0.109016 -0.00198504 0)
(0.108899 -0.00228893 0)
(0.108767 -0.00258344 0)
(0.108622 -0.00286719 0)
(0.108464 -0.00313895 0)
(0.108296 -0.00339768 0)
(0.108117 -0.00364255 0)
(0.107929 -0.00387296 0)
(0.107732 -0.00408848 0)
(0.107528 -0.00428888 0)
(0.107318 -0.00447404 0)
(0.107101 -0.00464393 0)
(0.10688 -0.0047986 0)
(0.106654 -0.00493814 0)
(0.106424 -0.0050627 0)
(0.106191 -0.00517247 0)
(0.105956 -0.00526773 0)
(0.10906 -4.34227e-05 0)
(0.109047 -0.000354788 0)
(0.109014 -0.000665309 0)
(0.108966 -0.000974249 0)
(0.108902 -0.0012805 0)
(0.108822 -0.00158265 0)
(0.108727 -0.00187922 0)
(0.108618 -0.00216878 0)
(0.108495 -0.00244991 0)
(0.10836 -0.00272127 0)
(0.108213 -0.00298163 0)
(0.108055 -0.00322996 0)
(0.107888 -0.00346538 0)
(0.107713 -0.00368725 0)
(0.107529 -0.00389507 0)
(0.107338 -0.00408855 0)
(0.107141 -0.00426752 0)
(0.106938 -0.00443193 0)
(0.106729 -0.00458179 0)
(0.106517 -0.00471722 0)
(0.1063 -0.00483836 0)
(0.106081 -0.00494545 0)
(0.105859 -0.0050388 0)
(0.108764 -3.84556e-05 0)
(0.108752 -0.00033316 0)
(0.108722 -0.000627312 0)
(0.108677 -0.000920255 0)
(0.108617 -0.00121099 0)
(0.108543 -0.00149823 0)
(0.108454 -0.0017806 0)
(0.108352 -0.00205676 0)
(0.108238 -0.00232536 0)
(0.108111 -0.00258509 0)
(0.107974 -0.00283474 0)
(0.107827 -0.00307325 0)
(0.107671 -0.00329973 0)
(0.107506 -0.00351345 0)
(0.107334 -0.00371389 0)
(0.107155 -0.00390069 0)
(0.10697 -0.00407364 0)
(0.106779 -0.00423264 0)
(0.106583 -0.00437772 0)
(0.106382 -0.00450898 0)
(0.106178 -0.00462661 0)
(0.10597 -0.00473087 0)
(0.10576 -0.00482211 0)
(0.108485 -3.39686e-05 0)
(0.108474 -0.000313144 0)
(0.108446 -0.000592026 0)
(0.108405 -0.000870036 0)
(0.108349 -0.00114627 0)
(0.10828 -0.00141955 0)
(0.108197 -0.00168863 0)
(0.108102 -0.00195221 0)
(0.107995 -0.00220902 0)
(0.107877 -0.00245779 0)
(0.107749 -0.00269731 0)
(0.107611 -0.00292651 0)
(0.107464 -0.00314446 0)
(0.10731 -0.0033504 0)
(0.107148 -0.00354375 0)
(0.106979 -0.00372408 0)
(0.106805 -0.00389116 0)
(0.106624 -0.00404487 0)
(0.106439 -0.00418521 0)
(0.10625 -0.00431231 0)
(0.106057 -0.00442639 0)
(0.10586 -0.00452775 0)
(0.105661 -0.00461677 0)
(0.108222 -3.00394e-05 0)
(0.108211 -0.000294724 0)
(0.108186 -0.000559345 0)
(0.108148 -0.000823394 0)
(0.108096 -0.00108605 0)
(0.108032 -0.00134624 0)
(0.107955 -0.00160281 0)
(0.107866 -0.00185454 0)
(0.107766 -0.00210021 0)
(0.107655 -0.00233858 0)
(0.107535 -0.00256847 0)
(0.107405 -0.00278879 0)
(0.107267 -0.00299857 0)
(0.107122 -0.00319702 0)
(0.106969 -0.00338351 0)
(0.10681 -0.00355758 0)
(0.106645 -0.00371895 0)
(0.106475 -0.00386747 0)
(0.1063 -0.00400317 0)
(0.10612 -0.00412618 0)
(0.105937 -0.00423673 0)
(0.105751 -0.00433518 0)
(0.105562 -0.00442194 0)
(0.107973 -2.67571e-05 0)
(0.107964 -0.000277888 0)
(0.107941 -0.000529172 0)
(0.107905 -0.000780146 0)
(0.107857 -0.00103006 0)
(0.107797 -0.00127794 0)
(0.107725 -0.0015227 0)
(0.107642 -0.00176322 0)
(0.107549 -0.00199831 0)
(0.107445 -0.00222677 0)
(0.107332 -0.00244744 0)
(0.10721 -0.00265922 0)
(0.10708 -0.00286114 0)
(0.106943 -0.00305235 0)
(0.106798 -0.00323219 0)
(0.106648 -0.00340017 0)
(0.106492 -0.00355598 0)
(0.10633 -0.00369946 0)
(0.106164 -0.00383064 0)
(0.105994 -0.00394964 0)
(0.10582 -0.00405676 0)
(0.105643 -0.00415235 0)
(0.105463 -0.00423687 0)
(0.107738 -2.4244e-05 0)
(0.107729 -0.000262621 0)
(0.107709 -0.000501412 0)
(0.107676 -0.000740121 0)
(0.107632 -0.000978049 0)
(0.107576 -0.0012143 0)
(0.107509 -0.00144789 0)
(0.107431 -0.00167774 0)
(0.107343 -0.00190274 0)
(0.107246 -0.00212171 0)
(0.107139 -0.00233351 0)
(0.107024 -0.00253705 0)
(0.106902 -0.00273134 0)
(0.106772 -0.00291551 0)
(0.106635 -0.00308889 0)
(0.106492 -0.00325094 0)
(0.106344 -0.00340134 0)
(0.106191 -0.00353993 0)
(0.106033 -0.00366673 0)
(0.105871 -0.00378187 0)
(0.105705 -0.00388567 0)
(0.105537 -0.00397851 0)
(0.105366 -0.00406088 0)
(0.114072 0.00432445 1.5248e-24)
(0.114374 0.00373193 -1.52842e-24)
(0.113521 0.00405222 -1.39602e-24)
(0.113797 0.00349546 4.88641e-23)
(0.114062 0.00292597 -3.01865e-24)
(0.114316 0.00234482 0)
(0.114555 0.00175274 1.05691e-22)
(0.114783 0.00114916 -2.44947e-22)
(0.115025 0.000527224 -3.90994e-24)
(0.113003 0.00380191 1.27642e-24)
(0.113256 0.00327821 -8.37068e-23)
(0.113498 0.0027428 -8.74897e-23)
(0.113728 0.00219672 1.85569e-25)
(0.113945 0.00164081 -2.12881e-22)
(0.114149 0.00107486 2.1703e-22)
(0.114365 0.000493478 2.22045e-22)
(0.112515 0.0035714 -9.69586e-24)
(0.112747 0.00307835 4.18859e-23)
(0.112968 0.00257444 1.65297e-22)
(0.113177 0.00206076 8.89154e-23)
(0.113373 0.00153819 1.0036e-22)
(0.113557 0.0010068 -4.05851e-22)
(0.113749 0.000462447 -4.35588e-22)
(0.112055 0.00335885 9.6053e-24)
(0.112268 0.00289421 1.2401e-24)
(0.11247 0.0024195 -8.2629e-23)
(0.11266 0.00193579 -1.67778e-22)
(0.112837 0.001444 -1.59473e-25)
(0.113003 0.000944442 1.08653e-22)
(0.113173 0.000433974 2.06699e-22)
(0.111621 0.00316259 6.05076e-24)
(0.111817 0.00272434 3.06597e-24)
(0.112002 0.00227672 -3.55372e-23)
(0.112175 0.00182078 1.51035e-22)
(0.112335 0.00135747 0)
(0.112483 0.000887278 9.24861e-23)
(0.112634 0.000407906 -2.77208e-24)
(0.111211 0.00298113 -1.24821e-23)
(0.111391 0.00256743 -8.75025e-25)
(0.111561 0.00214499 3.13933e-23)
(0.111718 0.00171483 -1.38053e-22)
(0.111863 0.00127791 7.0479e-23)
(0.111996 0.000834866 8.02339e-23)
(0.112129 0.000384091 -2.53773e-24)
(0.110824 0.00281315 6.33976e-24)
(0.11099 0.00242231 0)
(0.111145 0.00202331 0)
(0.111288 0.00161711 6.57919e-23)
(0.111419 0.00120469 -7.27594e-23)
(0.111538 0.000786801 -1.41822e-22)
(0.111655 0.000362379 -7.29905e-23)
(0.110457 0.00265746 7.09679e-25)
(0.11061 0.00228794 1.21924e-23)
(0.110753 0.00191077 1.4086e-25)
(0.110883 0.0015269 1.35644e-25)
(0.111001 0.00113727 5.67367e-23)
(0.111107 0.000742707 1.33497e-22)
(0.111211 0.000342619 1.37307e-22)
(0.11011 0.00251298 -6.34928e-25)
(0.110252 0.00216336 -1.07161e-23)
(0.110382 0.00180657 0)
(0.110501 0.00144351 -2.45529e-23)
(0.110607 0.0010751 -5.85594e-23)
(0.110702 0.000702235 -3.67922e-24)
(0.110793 0.000324657 -1.2905e-22)
(0.109781 0.00237873 0)
(0.109912 0.00204772 -7.76871e-24)
(0.110032 0.00170996 -1.99978e-23)
(0.11014 0.00136633 2.16502e-23)
(0.110236 0.00101773 3.1537e-24)
(0.11032 0.000665052 -5.68087e-23)
(0.110399 0.000308336 5.87675e-23)
(0.10947 0.00225383 -4.98353e-25)
(0.109591 0.00194022 1.06673e-23)
(0.109701 0.00162027 1.90201e-23)
(0.109799 0.0012948 1.36646e-24)
(0.109886 0.000964694 -1.36626e-24)
(0.109961 0.000630841 -4.66822e-23)
(0.110029 0.00029349 0)
(0.109174 0.00213747 1.93709e-24)
(0.109286 0.00184015 -4.35778e-25)
(0.109387 0.00153687 -1.11246e-24)
(0.109477 0.0012284 1.75483e-23)
(0.109555 0.000915581 -1.0786e-25)
(0.109622 0.000599298 7.0374e-23)
(0.10968 0.000279946 4.36187e-23)
(0.108894 0.0020289 -1.8804e-24)
(0.108998 0.00174686 1.24831e-24)
(0.109091 0.00145919 1.13539e-25)
(0.109173 0.00116664 -3.53696e-23)
(0.109243 0.000869996 1.0899e-24)
(0.109301 0.000570128 -3.84789e-23)
(0.109352 0.000267527 -4.6219e-23)
(0.108627 0.00192746 3.21014e-25)
(0.108724 0.00165973 4.34586e-25)
(0.108809 0.0013867 -5.92038e-24)
(0.108884 0.00110906 1.57367e-23)
(0.108947 0.000827567 -9.63764e-25)
(0.108999 0.000543046 1.99239e-23)
(0.109042 0.00025605 -1.92464e-23)
(0.108374 0.00183252 -2.68169e-25)
(0.108464 0.00157822 2.67944e-25)
(0.108543 0.00131891 1.04424e-23)
(0.108611 0.00105525 -1.00225e-25)
(0.108668 0.000787949 7.53897e-24)
(0.108713 0.000517782 -1.58068e-23)
(0.10875 0.000245332 1.90716e-23)
(0.108133 0.00174354 -2.18083e-25)
(0.108217 0.00150183 1.64081e-24)
(0.10829 0.00125539 -5.0603e-24)
(0.108352 0.00100483 -6.39257e-25)
(0.108403 0.000750822 -1.24971e-23)
(0.108443 0.000494084 1.56656e-23)
(0.108474 0.0002352 -9.01353e-25)
(0.107904 0.00165999 2.92881e-25)
(0.107982 0.00143011 8.22477e-26)
(0.10805 0.00119573 1.8708e-24)
(0.108107 0.000957465 9.28179e-26)
(0.108153 0.000715904 5.89135e-24)
(0.108188 0.000471729 -7.10225e-25)
(0.108213 0.000225497 -6.19939e-24)
(0.107686 0.00158143 -1.22516e-25)
(0.107759 0.00136266 -4.36991e-25)
(0.107822 0.00113962 -2.21677e-24)
(0.107874 0.000912866 4.39859e-25)
(0.107915 0.000682957 1.04335e-24)
(0.107946 0.000450507 3.08056e-24)
(0.107966 0.00021604 5.50182e-24)
(0.107479 0.00150746 8.25451e-26)
(0.107547 0.00129909 -3.39655e-25)
(0.107605 0.00108667 3.4981e-25)
(0.107653 0.000870693 -7.82245e-25)
(0.10769 0.000651663 -6.11177e-25)
(0.107717 0.00043012 -1.80357e-24)
(0.107733 0.000206554 -5.80148e-25)
(0.113437 0.00546407 4.03313e-23)
(0.113759 0.00490212 1.29512e-24)
(0.111344 0.00752413 -1.25078e-24)
(0.111681 0.00707682 9.61698e-23)
(0.111998 0.0066134 -4.93724e-23)
(0.112316 0.00613342 0)
(0.112631 0.00563664 -2.14485e-24)
(0.112937 0.00512365 3.31791e-24)
(0.113234 0.00459525 -1.17902e-24)
(0.110987 0.00706939 -5.74237e-23)
(0.1113 0.0066486 -7.04326e-23)
(0.111595 0.00621248 4.63664e-23)
(0.111891 0.00576068 -2.21748e-25)
(0.112182 0.00529303 5.53338e-23)
(0.112465 0.00481017 3.19093e-23)
(0.112739 0.00431286 1.07099e-24)
(0.110644 0.0066491 1.02374e-22)
(0.110936 0.00625293 1.33855e-22)
(0.111211 0.00584218 0)
(0.111487 0.00541656 -4.18674e-23)
(0.111757 0.00497597 -1.06912e-22)
(0.112019 0.00452106 -5.81299e-23)
(0.112272 0.00405261 6.80068e-24)
(0.110315 0.00626019 -4.69836e-23)
(0.110588 0.0058869 -3.43558e-23)
(0.110846 0.00549973 2.00323e-25)
(0.111102 0.00509843 8.05274e-23)
(0.111354 0.00468301 4.82498e-23)
(0.111597 0.00425409 2.87318e-23)
(0.111831 0.00381244 -6.90673e-24)
(0.11 0.00589988 -6.43624e-25)
(0.110256 0.00554786 -2.5444e-23)
(0.110497 0.00518262 0)
(0.110737 0.00480397 -7.17442e-23)
(0.110972 0.00441196 1.82488e-23)
(0.111197 0.00400722 2.18408e-24)
(0.111414 0.00359051 -7.11566e-24)
(0.109698 0.00556567 -5.15746e-25)
(0.109938 0.00523346 -1.64634e-23)
(0.110165 0.00488864 -2.31301e-23)
(0.11039 0.00453108 6.25969e-23)
(0.110609 0.00416088 -2.07265e-23)
(0.110819 0.00377866 -7.06701e-25)
(0.11102 0.00338516 1.27167e-23)
(0.109409 0.00525534 7.8453e-24)
(0.109635 0.00494156 3.20834e-23)
(0.109849 0.00461577 2.27281e-23)
(0.110059 0.00427787 -5.36607e-23)
(0.110264 0.00392801 0)
(0.11046 0.00356679 0)
(0.110647 0.00319492 -5.68235e-24)
(0.109132 0.00496684 -1.26201e-23)
(0.109345 0.00467024 -2.38113e-23)
(0.109547 0.0043622 -1.61262e-23)
(0.109745 0.00404265 2.45482e-23)
(0.109936 0.00371176 -1.64392e-25)
(0.110119 0.00337013 -7.34015e-24)
(0.110293 0.00301846 5.56348e-25)
(0.108867 0.00469834 4.32108e-24)
(0.109068 0.00441777 3.53727e-24)
(0.109259 0.00412629 1.54948e-23)
(0.109445 0.00382388 8.48662e-24)
(0.109625 0.00351072 0)
(0.109796 0.00318739 8.23547e-24)
(0.109958 0.00285458 -4.88131e-25)
(0.108613 0.00444819 1.47759e-24)
(0.108804 0.00418258 6.71514e-24)
(0.108984 0.00390658 6.37531e-25)
(0.10916 0.00362017 -9.43589e-24)
(0.109329 0.00332358 8.96406e-24)
(0.109489 0.00301737 6.42625e-24)
(0.10964 0.0027022 0)
(0.10837 0.00421487 2.76721e-24)
(0.108551 0.00396324 7.29576e-25)
(0.108722 0.0037017 -2.91845e-25)
(0.108888 0.00343028 2.91922e-25)
(0.109047 0.00314919 -9.70913e-24)
(0.109197 0.002859 -4.78499e-24)
(0.109338 0.00256033 -3.6329e-25)
(0.108137 0.00399702 2.70988e-24)
(0.108309 0.00375846 2.6203e-25)
(0.108471 0.00351046 1.43841e-25)
(0.108628 0.00325305 -3.34007e-24)
(0.108778 0.00298648 -3.36188e-25)
(0.10892 0.00271129 -3.05989e-25)
(0.109052 0.00242807 -9.40639e-25)
(0.107914 0.00379339 -6.71899e-24)
(0.108077 0.00356706 -3.58598e-24)
(0.108232 0.00333173 1.00503e-25)
(0.108381 0.00308746 5.14136e-24)
(0.108523 0.00283449 -1.34416e-25)
(0.108656 0.00257337 2.18099e-24)
(0.108779 0.00230463 9.96677e-25)
(0.1077 0.00360286 -5.57445e-24)
(0.107856 0.00338798 2.10344e-24)
(0.108004 0.00316452 -1.27849e-26)
(0.108145 0.00293255 -2.12911e-24)
(0.108279 0.00269233 1.19708e-24)
(0.108404 0.00244437 -1.48378e-24)
(0.10852 0.00218922 2.00796e-25)
(0.107495 0.00342438 5.48632e-24)
(0.107644 0.00322022 -4.46221e-24)
(0.107785 0.00300789 1.30967e-24)
(0.107919 0.00278746 1.27619e-25)
(0.108046 0.0025592 -2.00915e-24)
(0.108165 0.00232358 1.52148e-25)
(0.108274 0.00208117 1.6493e-25)
(0.107299 0.00325701 3.99466e-25)
(0.107442 0.00306292 4.38689e-24)
(0.107576 0.00286102 -3.35322e-24)
(0.107704 0.00265142 2.58703e-26)
(0.107825 0.00243438 5.03774e-25)
(0.107937 0.00221036 -2.24987e-26)
(0.10804 0.0019799 -4.23975e-25)
(0.107111 0.00309992 -4.45123e-24)
(0.107248 0.00291528 3.4193e-25)
(0.107377 0.00272316 3.12035e-24)
(0.107499 0.0025237 -1.19206e-25)
(0.107613 0.00231718 2.21264e-25)
(0.107719 0.00210405 1.15725e-25)
(0.107816 0.00188482 -6.67967e-27)
(0.106931 0.00295226 4.96365e-24)
(0.107062 0.00277648 1.46194e-24)
(0.107186 0.00259353 -1.26788e-24)
(0.107302 0.0024036 -1.79474e-25)
(0.107411 0.00220698 1.61486e-25)
(0.107512 0.0020041 1.078e-25)
(0.107604 0.00179542 6.93644e-26)
(0.106759 0.00281336 5.81047e-25)
(0.106885 0.00264594 -2.57024e-24)
(0.107003 0.00247163 -3.59905e-25)
(0.107115 0.00229066 6.13e-25)
(0.107219 0.00210333 -5.71748e-25)
(0.107314 0.00191005 -3.21488e-26)
(0.107401 0.00171127 -1.84966e-26)
(0.0996736 0.00596307 0)
(0.0997833 0.00613958 0)
(0.099903 0.00631895 0)
(0.100033 0.00650085 0)
(0.100175 0.00668491 0)
(0.100329 0.00687068 0)
(0.100495 0.00705764 0)
(0.100675 0.00724521 0)
(0.100869 0.00743269 0)
(0.101077 0.0076193 0)
(0.101302 0.00780417 0)
(0.101542 0.00798629 0)
(0.101799 0.00816457 0)
(0.102073 0.00833778 0)
(0.102365 0.00850459 0)
(0.102675 0.00866354 0)
(0.103004 0.00881304 0)
(0.103352 0.00895142 0)
(0.103718 0.00907685 0)
(0.104104 0.00918743 0)
(0.104508 0.00928115 0)
(0.10493 0.00935593 0)
(0.105369 0.00940962 0)
(0.105825 0.00944002 0)
(0.106297 0.00944491 0)
(0.106782 0.0094221 0)
(0.10728 0.00936942 0)
(0.107788 0.00928478 0)
(0.108305 0.00916621 0)
(0.108826 0.00901183 0)
(0.10935 0.00881977 0)
(0.109873 0.00858761 0)
(0.110393 0.0083104 0)
(0.11092 0.00797183 0)
(0.0998442 0.00585654 0)
(0.0999566 0.00602347 0)
(0.100079 0.00619264 0)
(0.100211 0.00636374 0)
(0.100355 0.00653636 0)
(0.100509 0.00671004 0)
(0.100676 0.00688427 0)
(0.100856 0.00705845 0)
(0.101049 0.0072319 0)
(0.101256 0.00740384 0)
(0.101477 0.00757342 0)
(0.101714 0.00773968 0)
(0.101966 0.00790155 0)
(0.102234 0.00805788 0)
(0.102519 0.00820739 0)
(0.10282 0.00834871 0)
(0.103139 0.00848038 0)
(0.103474 0.00860082 0)
(0.103827 0.00870835 0)
(0.104197 0.00880124 0)
(0.104583 0.00887765 0)
(0.104985 0.00893569 0)
(0.105403 0.00897344 0)
(0.105835 0.00898892 0)
(0.106281 0.00898018 0)
(0.106739 0.00894527 0)
(0.107207 0.0088823 0)
(0.107683 0.00878947 0)
(0.108166 0.00866506 0)
(0.108652 0.00850748 0)
(0.10914 0.00831516 0)
(0.109626 0.00808604 0)
(0.110107 0.00781588 0)
(0.110594 0.00749045 0)
(0.100006 0.00574739 0)
(0.10012 0.00590504 0)
(0.100244 0.00606438 0)
(0.100378 0.00622509 0)
(0.100522 0.00638674 0)
(0.100678 0.00654889 0)
(0.100845 0.00671101 0)
(0.101024 0.0068725 0)
(0.101215 0.0070327 0)
(0.10142 0.00719084 0)
(0.101638 0.0073461 0)
(0.101871 0.00749755 0)
(0.102118 0.00764418 0)
(0.102379 0.00778488 0)
(0.102656 0.00791846 0)
(0.102949 0.00804363 0)
(0.103257 0.00815903 0)
(0.10358 0.00826318 0)
(0.103919 0.00835456 0)
(0.104273 0.00843157 0)
(0.104642 0.00849254 0)
(0.105026 0.00853577 0)
(0.105423 0.00855953 0)
(0.105832 0.00856205 0)
(0.106253 0.00854159 0)
(0.106685 0.00849646 0)
(0.107125 0.00842499 0)
(0.107571 0.00832561 0)
(0.108023 0.00819687 0)
(0.108477 0.00803741 0)
(0.108931 0.0078459 0)
(0.109383 0.00762061 0)
(0.109829 0.00735788 0)
(0.11028 0.00704537 0)
(0.100158 0.00563616 0)
(0.100274 0.00578484 0)
(0.1004 0.00593473 0)
(0.100535 0.00608547 0)
(0.100679 0.00623665 0)
(0.100835 0.00638781 0)
(0.101001 0.00653844 0)
(0.101179 0.00668793 0)
(0.101368 0.00683563 0)
(0.10157 0.00698082 0)
(0.101785 0.00712269 0)
(0.102013 0.00726035 0)
(0.102254 0.00739283 0)
(0.102509 0.0075191 0)
(0.102778 0.00763803 0)
(0.103061 0.00774841 0)
(0.103359 0.00784897 0)
(0.10367 0.00793837 0)
(0.103996 0.00801519 0)
(0.104335 0.00807797 0)
(0.104687 0.0081252 0)
(0.105052 0.00815534 0)
(0.105429 0.00816684 0)
(0.105817 0.00815812 0)
(0.106215 0.00812766 0)
(0.106622 0.00807393 0)
(0.107036 0.00799551 0)
(0.107455 0.00789102 0)
(0.107878 0.00775923 0)
(0.108302 0.00759898 0)
(0.108725 0.00740915 0)
(0.109145 0.00718829 0)
(0.109559 0.00693327 0)
(0.109977 0.00663337 0)
(0.100302 0.00552333 0)
(0.100419 0.00566338 0)
(0.100546 0.00580418 0)
(0.100681 0.00594539 0)
(0.100826 0.00608658 0)
(0.100981 0.0062273 0)
(0.101146 0.00636704 0)
(0.101322 0.0065052 0)
(0.101509 0.00664116 0)
(0.101708 0.00677421 0)
(0.101918 0.00690358 0)
(0.102141 0.00702841 0)
(0.102377 0.00714779 0)
(0.102625 0.00726075 0)
(0.102886 0.00736621 0)
(0.10316 0.00746307 0)
(0.103447 0.00755014 0)
(0.103746 0.00762618 0)
(0.104059 0.00768989 0)
(0.104383 0.00773994 0)
(0.10472 0.00777496 0)
(0.105067 0.00779356 0)
(0.105425 0.00779435 0)
(0.105793 0.00777594 0)
(0.106169 0.00773694 0)
(0.106552 0.00767606 0)
(0.106942 0.00759202 0)
(0.107335 0.00748365 0)
(0.107731 0.00734988 0)
(0.108128 0.00718974 0)
(0.108523 0.0070023 0)
(0.108913 0.00678633 0)
(0.109298 0.00653918 0)
(0.109685 0.00625155 0)
(0.100437 0.00540934 0)
(0.100556 0.0055411 0)
(0.100682 0.00567321 0)
(0.100818 0.00580531 0)
(0.100962 0.005937 0)
(0.101116 0.00606782 0)
(0.10128 0.00619725 0)
(0.101454 0.00632475 0)
(0.101638 0.00644968 0)
(0.101833 0.00657137 0)
(0.10204 0.00668908 0)
(0.102257 0.006802 0)
(0.102487 0.00690927 0)
(0.102728 0.00700995 0)
(0.102981 0.00710308 0)
(0.103245 0.00718759 0)
(0.103522 0.00726239 0)
(0.10381 0.00732635 0)
(0.104109 0.00737828 0)
(0.10442 0.00741696 0)
(0.104741 0.00744115 0)
(0.105072 0.0074496 0)
(0.105412 0.00744106 0)
(0.10576 0.0074143 0)
(0.106116 0.00736809 0)
(0.106477 0.00730129 0)
(0.106843 0.00721279 0)
(0.107213 0.00710158 0)
(0.107584 0.00696675 0)
(0.107955 0.00680748 0)
(0.108324 0.00662299 0)
(0.108688 0.00641226 0)
(0.109046 0.00617303 0)
(0.109405 0.0058973 0)
(0.100565 0.0052946 0)
(0.100684 0.00541841 0)
(0.10081 0.00554221 0)
(0.100945 0.00566564 0)
(0.101089 0.0057883 0)
(0.101242 0.00590973 0)
(0.101403 0.00602945 0)
(0.101575 0.00614691 0)
(0.101756 0.0062615 0)
(0.101948 0.00637258 0)
(0.102149 0.00647944 0)
(0.102362 0.00658132 0)
(0.102585 0.00667739 0)
(0.102819 0.00676679 0)
(0.103064 0.00684861 0)
(0.103319 0.00692186 0)
(0.103585 0.00698553 0)
(0.103862 0.00703859 0)
(0.104149 0.00707994 0)
(0.104446 0.00710848 0)
(0.104752 0.00712308 0)
(0.105067 0.00712262 0)
(0.10539 0.00710599 0)
(0.10572 0.00707207 0)
(0.106056 0.0070198 0)
(0.106397 0.00694817 0)
(0.106742 0.00685621 0)
(0.107089 0.00674305 0)
(0.107437 0.00660793 0)
(0.107784 0.00645014 0)
(0.108129 0.00626904 0)
(0.108468 0.0060638 0)
(0.108802 0.0058325 0)
(0.109135 0.00556827 0)
(0.100685 0.00517947 0)
(0.100804 0.00529567 0)
(0.10093 0.00541154 0)
(0.101064 0.00552673 0)
(0.101207 0.00564082 0)
(0.101358 0.0057534 0)
(0.101518 0.00586396 0)
(0.101686 0.00597199 0)
(0.101864 0.00607691 0)
(0.102052 0.00617809 0)
(0.102249 0.00627486 0)
(0.102456 0.0063665 0)
(0.102672 0.00645225 0)
(0.102899 0.00653129 0)
(0.103136 0.00660275 0)
(0.103382 0.00666574 0)
(0.103639 0.00671934 0)
(0.103904 0.00676256 0)
(0.104179 0.00679443 0)
(0.104463 0.00681394 0)
(0.104755 0.00682007 0)
(0.105054 0.00681182 0)
(0.105361 0.00678818 0)
(0.105674 0.00674817 0)
(0.105992 0.00669085 0)
(0.106313 0.00661532 0)
(0.106638 0.00652077 0)
(0.106965 0.00640643 0)
(0.107291 0.00627164 0)
(0.107616 0.00611584 0)
(0.107938 0.00593848 0)
(0.108256 0.00573889 0)
(0.108566 0.00551546 0)
(0.108876 0.00526232 0)
(0.100798 0.00506427 0)
(0.100916 0.00517321 0)
(0.101042 0.00528153 0)
(0.101175 0.00538889 0)
(0.101316 0.00549488 0)
(0.101465 0.00559909 0)
(0.101623 0.00570104 0)
(0.101788 0.00580023 0)
(0.101963 0.0058961 0)
(0.102146 0.00598806 0)
(0.102338 0.00607547 0)
(0.102539 0.00615765 0)
(0.10275 0.00623388 0)
(0.102969 0.0063034 0)
(0.103198 0.00636541 0)
(0.103436 0.00641907 0)
(0.103682 0.00646353 0)
(0.103937 0.00649791 0)
(0.1042 0.0065213 0)
(0.104471 0.00653278 0)
(0.10475 0.00653145 0)
(0.105035 0.0065164 0)
(0.105326 0.00648672 0)
(0.105622 0.00644155 0)
(0.105923 0.00638006 0)
(0.106227 0.00630147 0)
(0.106533 0.00620506 0)
(0.10684 0.00609017 0)
(0.107146 0.00595626 0)
(0.107451 0.00580285 0)
(0.107753 0.0056295 0)
(0.108049 0.00543566 0)
(0.108339 0.00521999 0)
(0.108627 0.00497753 0)
(0.100903 0.0049493 0)
(0.101021 0.00505132 0)
(0.101146 0.00515247 0)
(0.101278 0.0052524 0)
(0.101417 0.00535074 0)
(0.101564 0.00544707 0)
(0.101719 0.00554093 0)
(0.101882 0.00563183 0)
(0.102052 0.00571926 0)
(0.102231 0.00580264 0)
(0.102418 0.00588137 0)
(0.102614 0.00595481 0)
(0.102818 0.00602228 0)
(0.103031 0.00608308 0)
(0.103251 0.00613645 0)
(0.10348 0.00618164 0)
(0.103717 0.00621785 0)
(0.103962 0.00624427 0)
(0.104214 0.00626008 0)
(0.104473 0.00626445 0)
(0.104738 0.00625656 0)
(0.105009 0.00623559 0)
(0.105286 0.00620074 0)
(0.105567 0.00615124 0)
(0.105851 0.00608635 0)
(0.106138 0.0060054 0)
(0.106427 0.00590776 0)
(0.106716 0.00579288 0)
(0.107004 0.00566029 0)
(0.107289 0.00550959 0)
(0.107572 0.00534044 0)
(0.107849 0.00515239 0)
(0.10812 0.00494436 0)
(0.108388 0.00471214 0)
(0.101002 0.00483483 0)
(0.101119 0.00493026 0)
(0.101243 0.00502459 0)
(0.101374 0.0051175 0)
(0.101511 0.00520862 0)
(0.101656 0.00529752 0)
(0.101808 0.00538379 0)
(0.101967 0.00546696 0)
(0.102134 0.00554651 0)
(0.102308 0.00562192 0)
(0.10249 0.00569261 0)
(0.10268 0.00575798 0)
(0.102878 0.0058174 0)
(0.103083 0.00587021 0)
(0.103296 0.00591571 0)
(0.103517 0.00595321 0)
(0.103744 0.00598197 0)
(0.103979 0.00600125 0)
(0.10422 0.0060103 0)
(0.104468 0.00600838 0)
(0.104721 0.00599474 0)
(0.104979 0.00596864 0)
(0.105241 0.00592938 0)
(0.105508 0.00587627 0)
(0.105777 0.00580867 0)
(0.106048 0.00572598 0)
(0.10632 0.00562766 0)
(0.106592 0.00551324 0)
(0.106863 0.00538233 0)
(0.107131 0.0052346 0)
(0.107396 0.00506979 0)
(0.107655 0.00488753 0)
(0.107908 0.00468696 0)
(0.108158 0.00446458 0)
(0.101094 0.00472107 0)
(0.101211 0.00481024 0)
(0.101333 0.00489813 0)
(0.101462 0.0049844 0)
(0.101597 0.0050687 0)
(0.10174 0.00515064 0)
(0.101888 0.0052298 0)
(0.102044 0.00530573 0)
(0.102207 0.00537795 0)
(0.102377 0.00544596 0)
(0.102554 0.00550922 0)
(0.102739 0.00556715 0)
(0.10293 0.00561918 0)
(0.103128 0.00566468 0)
(0.103334 0.00570302 0)
(0.103546 0.00573354 0)
(0.103765 0.00575558 0)
(0.10399 0.00576846 0)
(0.10422 0.0057715 0)
(0.104457 0.00576403 0)
(0.104698 0.00574536 0)
(0.104944 0.00571485 0)
(0.105193 0.00567186 0)
(0.105445 0.00561578 0)
(0.1057 0.00554605 0)
(0.105957 0.00546215 0)
(0.106213 0.00536362 0)
(0.10647 0.00525004 0)
(0.106724 0.00512111 0)
(0.106977 0.00497655 0)
(0.107225 0.00481615 0)