/*--------------------------------*- C++ -*----------------------------------*\
| =========                 |                                                 |
| \\      /  F ield         | OpenFOAM: The Open Source CFD Toolbox           |
|  \\    /   O peration     | Version:  2412                                  |
|   \\  /    A nd           | Website:  www.openfoam.com                      |
|    \\/     M anipulation  |                                                 |
\*---------------------------------------------------------------------------*/
FoamFile
{
    version     2.0;
    format      ascii;
    arch        "LSB;label=32;scalar=64";
    class       volScalarField;
    location    "17.5";
    object      p;
}
// * * * * * * * * * * * * * * * * * * * * * * * * * * * * * * * * * * * * * //

dimensions      [0 2 -2 0 0 0 0];

internalField   nonuniform List<scalar> 
5285
(
-0.000190824
-0.00020334
-0.000214829
-0.00022541
-0.000235072
-0.000243801
-0.000251601
-0.000258486
-0.000264471
-0.000269574
-0.000273819
-0.000277231
-0.000279838
-0.000281673
-0.000282769
-0.000283162
-0.000282889
-0.000281987
-0.000280496
-0.000278456
-0.000275905
-0.000272884
-0.000269431
-0.000265586
-0.000210434
-0.000223378
-0.000235083
-0.000245854
-0.000255661
-0.00026447
-0.000272287
-0.00027913
-0.000285015
-0.000289965
-0.000294005
-0.000297163
-0.000299471
-0.000300966
-0.000301683
-0.000301663
-0.000300946
-0.000299573
-0.000297588
-0.000295033
-0.000291952
-0.000288387
-0.000284381
-0.000279975
-0.000231168
-0.000244565
-0.000256478
-0.000267437
-0.000277388
-0.00028627
-0.00029409
-0.000300872
-0.000306637
-0.000311407
-0.000315211
-0.000318082
-0.000320056
-0.000321171
-0.000321469
-0.000320994
-0.000319789
-0.0003179
-0.000315375
-0.00031226
-0.000308603
-0.000304448
-0.000299843
-0.000294833
-0.000253099
-0.000266977
-0.000279099
-0.000290245
-0.000300336
-0.000309281
-0.00031709
-0.000323791
-0.000329409
-0.000333969
-0.000337505
-0.000340052
-0.000341651
-0.000342344
-0.000342178
-0.000341199
-0.000339459
-0.000337005
-0.000333891
-0.000330166
-0.000325882
-0.000321089
-0.000315837
-0.000310174
-0.000276318
-0.000290706
-0.000303037
-0.000314369
-0.000324596
-0.000333592
-0.000341371
-0.000347968
-0.000353411
-0.000357729
-0.000360958
-0.00036314
-0.000364318
-0.000364542
-0.000363861
-0.000362329
-0.000359999
-0.000356927
-0.000353168
-0.000348779
-0.000343814
-0.000338329
-0.000332377
-0.00032601
-0.000300926
-0.000315854
-0.000328393
-0.00033991
-0.000350265
-0.000359299
-0.000367028
-0.000373494
-0.000378729
-0.000382767
-0.000385648
-0.000387418
-0.000388127
-0.000387828
-0.000386578
-0.000384434
-0.000381457
-0.000377706
-0.000373244
-0.00036813
-0.000362426
-0.00035619
-0.000349481
-0.000342355
-0.000327034
-0.000342536
-0.00035528
-0.000366976
-0.000377453
-0.000386509
-0.000394164
-0.000400468
-0.000405459
-0.000409174
-0.000411658
-0.000412965
-0.000413148
-0.000412269
-0.000410388
-0.00040757
-0.00040388
-0.000399387
-0.000394155
-0.000388252
-0.000381744
-0.000374694
-0.000367166
-0.000359221
-0.000354764
-0.000370874
-0.000383819
-0.000395691
-0.000406278
-0.000415336
-0.000422889
-0.000428997
-0.000433701
-0.000437045
-0.000439081
-0.000439865
-0.000439462
-0.000437936
-0.000435356
-0.000431795
-0.000427323
-0.000422014
-0.000415942
-0.000409179
-0.000401796
-0.000393864
-0.00038545
-0.000376621
-0.000384253
-0.000401008
-0.000414148
-0.000426186
-0.00043687
-0.000445909
-0.000453327
-0.000459198
-0.000463568
-0.000466488
-0.000468014
-0.000468212
-0.000467152
-0.000464907
-0.000461554
-0.000457171
-0.000451839
-0.000445637
-0.000438645
-0.000430944
-0.000422611
-0.000413721
-0.000404349
-0.000394566
-0.00041565
-0.000433088
-0.000446414
-0.000458609
-0.000469375
-0.000478365
-0.000485612
-0.000491199
-0.000495182
-0.000497615
-0.000498564
-0.000498103
-0.000496309
-0.000493265
-0.000489055
-0.000483767
-0.000477487
-0.000470305
-0.000462309
-0.000453585
-0.000444217
-0.000434289
-0.00042388
-0.000413066
-0.000449119
-0.000467282
-0.000480784
-0.000493121
-0.000503948
-0.000512859
-0.000519891
-0.000525141
-0.000528674
-0.000530551
-0.000530848
-0.000529646
-0.000527032
-0.000523099
-0.00051794
-0.000511651
-0.00050433
-0.000496073
-0.000486977
-0.000477137
-0.000466645
-0.00045559
-0.000444059
-0.000432134
-0.000484844
-0.000503778
-0.000517438
-0.000529901
-0.000540765
-0.000549559
-0.000556325
-0.000561178
-0.00056419
-0.000565433
-0.000564991
-0.000562956
-0.000559427
-0.000554504
-0.000548293
-0.0005409
-0.000532432
-0.000522997
-0.000512698
-0.000501641
-0.000489925
-0.000477647
-0.000464902
-0.000451776
-0.00052303
-0.000542781
-0.000556581
-0.000569147
-0.000580018
-0.000588649
-0.000595091
-0.000599476
-0.000601888
-0.000602407
-0.00060113
-0.00059816
-0.000593606
-0.000587583
-0.000580207
-0.000571594
-0.000561865
-0.000551135
-0.000539521
-0.000527135
-0.000514088
-0.000500483
-0.000486423
-0.000472003
-0.000563905
-0.000584522
-0.000598438
-0.000611078
-0.000621919
-0.000630335
-0.000636385
-0.000640221
-0.00064194
-0.000641635
-0.000639413
-0.000635392
-0.000629694
-0.000622447
-0.000613778
-0.000603819
-0.0005927
-0.00058055
-0.000567496
-0.000553661
-0.000539164
-0.00052412
-0.000508637
-0.000492819
-0.000607722
-0.00062926
-0.000643259
-0.00065594
-0.000666707
-0.000674844
-0.000680422
-0.000683616
-0.000684539
-0.000683294
-0.000680004
-0.000674802
-0.000667824
-0.000659213
-0.000649112
-0.000637665
-0.000625016
-0.000611307
-0.000596677
-0.00058126
-0.000565186
-0.000548579
-0.000531557
-0.000514229
-0.00065477
-0.000677284
-0.000691327
-0.000704006
-0.000714643
-0.000722428
-0.000727441
-0.000729887
-0.000729892
-0.000727578
-0.000723081
-0.000716551
-0.000708142
-0.000698014
-0.000686322
-0.00067323
-0.000658896
-0.000643475
-0.00062712
-0.000609976
-0.000592186
-0.000573882
-0.000555193
-0.000536237
-0.000705367
-0.000728914
-0.00074295
-0.000755568
-0.000766014
-0.00077336
-0.000777701
-0.000779274
-0.000778225
-0.000774692
-0.000768831
-0.00076081
-0.000750802
-0.000738983
-0.000725532
-0.00071062
-0.000694428
-0.000677127
-0.000658882
-0.000639854
-0.000620194
-0.00060005
-0.000579556
-0.000558843
-0.000759868
-0.000784504
-0.000798472
-0.000810962
-0.000821135
-0.000827936
-0.00083148
-0.000832037
-0.000829777
-0.000824857
-0.000817454
-0.000807756
-0.00079596
-0.000782262
-0.000766856
-0.00074994
-0.000731702
-0.000712336
-0.000692023
-0.000670936
-0.000649242
-0.000627099
-0.000604654
-0.000582044
-0.000828003
-0.00081043
-0.000791294
-0.000770807
-0.000749174
-0.000726596
-0.000703263
-0.000679356
-0.000655045
-0.000630488
-0.000605832
-8.4926e-05
-0.000102087
-0.000118581
-0.000134387
-0.000149487
-0.000163864
-0.000177492
-9.99283e-05
-0.000117739
-0.000134871
-0.000151301
-0.000167012
-0.000181972
-0.000196136
-0.000115725
-0.000134235
-0.000152052
-0.000169151
-0.000185514
-0.000201091
-0.000215818
-0.00013237
-0.000151622
-0.000170168
-0.000187979
-0.000205039
-0.00022128
-0.000236612
-0.000149923
-0.000169965
-0.000189288
-0.00020786
-0.000225666
-0.000242617
-0.000258596
-0.00016845
-0.000189337
-0.000209489
-0.000228875
-0.000247478
-0.00026519
-0.00028186
-0.000188024
-0.000209813
-0.000230853
-0.00025111
-0.000270569
-0.000289097
-0.000306508
-0.000208725
-0.000231481
-0.000253472
-0.000274663
-0.000295039
-0.000314445
-0.000332651
-0.000230641
-0.000254432
-0.000277444
-0.000299638
-0.000321002
-0.000341352
-0.000360411
-0.000253866
-0.000278771
-0.00030288
-0.000326152
-0.000348579
-0.000369947
-0.000389923
-0.000278507
-0.000304609
-0.000329899
-0.000354334
-0.000377906
-0.000400375
-0.000421339
-0.000304685
-0.000332074
-0.000358635
-0.000384324
-0.000409135
-0.000432794
-0.000454822
-0.000332528
-0.000361302
-0.000389236
-0.00041628
-0.000442432
-0.000467381
-0.000490559
-0.000362168
-0.000392444
-0.000421865
-0.000450377
-0.000477982
-0.000504334
-0.000528756
-0.000393765
-0.000425671
-0.000456704
-0.000486808
-0.000515993
-0.000543872
-0.000569641
-0.0004275
-0.000461174
-0.000493958
-0.000525795
-0.000556699
-0.000586244
-0.000613477
-0.000463568
-0.000499165
-0.000533856
-0.00056758
-0.000600362
-0.000631729
-0.000660554
-0.00050219
-0.000539881
-0.000576649
-0.000612433
-0.000647264
-0.00068063
-0.00071119
-0.000543598
-0.000583574
-0.000622614
-0.000660647
-0.000697725
-0.000733286
-0.000765749
-0.000588054
-0.000630536
5.10703e-05
3.01947e-05
9.77001e-06
-1.022e-05
-2.97336e-05
-4.87162e-05
-6.71254e-05
4.08381e-05
1.92043e-05
-1.87254e-06
-2.25339e-05
-4.27302e-05
-6.23901e-05
-8.14678e-05
3.01016e-05
7.67044e-06
-1.40803e-05
-3.54502e-05
-5.63725e-05
-7.67577e-05
-9.65544e-05
1.88474e-05
-4.42707e-06
-2.69073e-05
-4.90438e-05
-7.07348e-05
-9.18875e-05
-0.000112446
7.02012e-06
-1.71693e-05
-4.04047e-05
-6.33285e-05
-8.58612e-05
-0.000107831
-0.000129197
-5.40669e-06
-3.05748e-05
-5.46186e-05
-7.83965e-05
-0.000101809
-0.000124641
-0.000146869
-1.84698e-05
-4.46878e-05
-6.95894e-05
-9.4266e-05
-0.000118589
-0.000142375
-0.00016553
-3.22105e-05
-5.95581e-05
-8.53741e-05
-0.000111013
-0.00013634
-0.000161115
-0.000185254
-4.66724e-05
-7.52375e-05
-0.00010203
-0.000128697
-0.000155092
-0.000180928
-0.000206122
-6.19024e-05
-9.17817e-05
-0.000119619
-0.000147384
-0.000174921
-0.000201898
-0.000228222
-7.79508e-05
-0.000109251
-0.000138209
-0.000167152
-0.000195917
-0.000224122
-0.000251655
-9.48717e-05
-0.000127712
-0.000157874
-0.000188083
-0.000218172
-0.000247713
-0.000276538
-0.000112724
-0.000147235
-0.000178693
-0.000210263
-0.000241778
-0.000272755
-0.000302984
-0.00013157
-0.000167898
-0.000200754
-0.000233789
-0.000266827
-0.000299278
-0.0003311
-0.000151478
-0.000189786
-0.000224157
-0.000258777
-0.000293477
-0.000327609
-0.000361059
-0.000172524
-0.000212995
-0.000249009
-0.000285346
-0.000321848
-0.000357787
-0.000393014
-0.000194785
-0.000237627
-0.000275429
-0.00031363
-0.000352088
-0.000389986
-0.000427151
-0.000218339
-0.000263781
-0.00030354
-0.000343771
-0.000384359
-0.000424389
-0.000463669
-0.000243274
-0.000291575
-0.000333471
-0.00037592
-0.000418833
-0.000461192
-0.000502776
-0.000500614
-0.000544717
0.00069426
0.000682924
0.000671075
0.000658703
0.0006458
0.000632357
0.000618368
0.000603828
0.000588734
0.000573084
0.000556879
0.000540122
0.000522819
0.000504975
0.000486602
0.000467713
0.000448324
0.000428453
0.000408123
0.000387359
0.00036619
0.000344647
0.000322766
0.000300586
0.000278147
0.000255494
0.000232675
0.000209741
0.000186743
0.000163737
0.00014078
0.000117929
9.52487e-05
7.28245e-05
0.000705095
0.000693673
0.000681713
0.000669204
0.000656135
0.000642497
0.000628283
0.000613485
0.0005981
0.000582125
0.000565558
0.000548403
0.000530662
0.000512343
0.000493456
0.000474012
0.000454029
0.000433524
0.000412522
0.000391046
0.000369128
0.0003468
0.0003241
0.000301067
0.000277746
0.000254185
0.000230433
0.000206545
0.000182577
0.00015859
0.000134642
0.000110797
8.71322e-05
6.37468e-05
0.000716422
0.000704924
0.000692862
0.000680224
0.000666997
0.00065317
0.000638734
0.000623682
0.000608006
0.000591703
0.000574771
0.00055721
0.000539023
0.000520216
0.000500799
0.000480782
0.000460183
0.000439019
0.000417314
0.000395095
0.000372391
0.000349238
0.000325675
0.000301743
0.00027749
0.000252966
0.000228225
0.000203324
0.000178324
0.00015329
0.000128287
0.000103379
7.86593e-05
5.42456e-05
0.000728262
0.0007167
0.000704547
0.00069179
0.000678413
0.000664405
0.000649754
0.00063445
0.000618485
0.000601854
0.000584552
0.00056658
0.000547938
0.000528632
0.000508669
0.000488061
0.000466823
0.000444974
0.000422537
0.00039954
0.000376013
0.000351993
0.000327521
0.00030264
0.000277401
0.000251856
0.000226064
0.000200087
0.000173988
0.000147838
0.000121707
9.56639e-05
6.9815e-05
4.43039e-05
0.000740638
0.000729025
0.000716795
0.00070393
0.000690414
0.000676233
0.000661373
0.000645823
0.000629572
0.000612613
0.000594941
0.000576552
0.000557447
0.00053763
0.000517107
0.000495889
0.00047399
0.00045143
0.00042823
0.000404419
0.000380029
0.000355098
0.000329668
0.000303785
0.000277502
0.000250876
0.000223968
0.000196844
0.000169575
0.000142233
0.000114897
8.76385e-05
6.05806e-05
3.38924e-05
0.000753573
0.000741925
0.000729632
0.000716673
0.00070303
0.000688687
0.000673628
0.000657838
0.000641305
0.000624021
0.000605977
0.000587168
0.000567594
0.000547255
0.000526158
0.000504311
0.000481729
0.000458429
0.000434434
0.000409774
0.000384479
0.00035859
0.000332151
0.00030521
0.000277822
0.000250048
0.000221954
0.00019361
0.000165091
0.000136477
0.000107851
7.9291e-05
5.09368e-05
2.29853e-05
0.000767091
0.000755426
0.000743086
0.000730049
0.000716293
0.0007018
0.000686552
0.000670532
0.000653724
0.000636118
0.000617703
0.000598473
0.000578423
0.000557553
0.000535868
0.000513374
0.000490086
0.000466019
0.000441198
0.000415649
0.000389407
0.000362512
0.000335008
0.000306949
0.000278391
0.000249399
0.000220043
0.000190398
0.000160546
0.000130571
0.000100564
7.06088e-05
4.08631e-05
1.15549e-05
0.000781217
0.000769555
0.000757187
0.000744088
0.000730236
0.000715609
0.000700185
0.000683944
0.000666871
0.000648949
0.000630166
0.000610513
0.000589983
0.000568575
0.000546288
0.000523131
0.000499114
0.000474253
0.000448571
0.000422095
0.000394861
0.000366907
0.000338283
0.000309041
0.000279244
0.000248959
0.00021826
0.000187228
0.00015595
0.000124519
9.30319e-05
6.15789e-05
3.03379e-05
-4.29659e-07
0.000795976
0.000784338
0.000771963
0.000758823
0.000744894
0.000730149
0.000714565
0.000698118
0.000680789
0.00066256
0.000643414
0.00062334
0.000602328
0.000580373
0.000557475
0.000533637
0.00050887
0.000483187
0.00045661
0.000429167
0.000400893
0.000371828
0.000342022
0.000311531
0.00028042
0.000248761
0.000216631
0.000184119
0.000151318
0.000118327
8.52511e-05
5.21885e-05
1.93387e-05
-1.30009e-05
0.000811393
0.000799803
0.000787445
0.000774287
0.000760302
0.00074546
0.000729733
0.000713097
0.000695526
0.000677
0.000657499
0.000637008
0.000615513
0.000593008
0.000569487
0.000544954
0.000519414
0.000492882
0.000465377
0.000436925
0.000407563
0.00037733
0.000346279
0.000314468
0.000281964
0.000248843
0.00021519
0.000181097
0.000146664
0.000112001
7.7219e-05
4.24248e-05
7.84183e-06
-2.61937e-05
0.000827494
0.00081598
0.000803664
0.000790514
0.000776497
0.000761581
0.000745734
0.000728926
0.000711131
0.000692322
0.000672476
0.000651574
0.000629599
0.00060654
0.000582389
0.000557146
0.000530815
0.000503406
0.000474938
0.000445436
0.000414935
0.000383477
0.000351113
0.000317906
0.000283925
0.000249251
0.000213973
0.00017819
0.00014201
0.000105551
6.89347e-05
3.22753e-05
-4.17736e-06
-4.0045e-05
0.000844305
0.000832895
0.000820652
0.000807539
0.000793518
0.000778554
0.000762611
0.000745655
0.000727655
0.00070858
0.000688403
0.000667099
0.000644649
0.000621037
0.000596251
0.000570286
0.000543144
0.000514832
0.000485366
0.000454771
0.000423081
0.000390336
0.000356591
0.000321907
0.00028636
0.000250033
0.000213021
0.000175431
0.000137378
9.899e-05
6.03986e-05
2.17278e-05
-1.67444e-05
-5.45943e-05
0.000861851
0.00085058
0.000838442
0.000825396
0.000811403
0.000796421
0.00078041
0.000763333
0.000745152
0.000725832
0.000705341
0.00068365
0.000660733
0.00063657
0.000611146
0.00058445
0.000556479
0.00052724
0.000496743
0.000465013
0.000432079
0.000397986
0.000362784
0.000326541
0.000289332
0.000251246
0.000212384
0.000172859
0.000132797
9.23336e-05
5.16136e-05
1.0771e-05
-2.98858e-05
-6.98838e-05
0.000880158
0.000869061
0.000857064
0.000844123
0.000830192
0.000815226
0.000799181
0.000782012
0.000763679
0.000744139
0.000723356
0.000701294
0.000677923
0.000653217
0.000627154
0.00059972
0.000570908
0.000540717
0.000509157
0.000476248
0.000442019
0.000406511
0.000369777
0.000331885
0.000292912
0.000252954
0.000212116
0.00017052
0.000128299
8.5602e-05
4.25852e-05
-6.05499e-07
-4.36285e-05
-8.59583e-05
0.000899251
0.000888368
0.000876552
0.000863755
0.000849926
0.000835014
0.000818971
0.000801747
0.000783294
0.000763564
0.000742515
0.000720105
0.000696297
0.000671059
0.000644362
0.000616187
0.000586521
0.000555358
0.000522704
0.000488573
0.000452994
0.000416005
0.000377659
0.000338024
0.000297182
0.00025523
0.000212281
0.000168464
0.000123923
7.88189e-05
3.33209e-05
-1.24118e-05
-5.80017e-05
-0.000102866
0.000919154
0.000908528
0.000896937
0.000884327
0.000870644
0.00085583
0.000839831
0.000822592
0.000804057
0.000784173
0.00076289
0.00074016
0.000715937
0.000690182
0.000662861
0.000633946
0.000603418
0.000571265
0.000537487
0.000502095
0.000465111
0.000426573
0.000386533
0.000345057
0.000302231
0.000258155
0.00021295
0.000166752
0.000119715
7.20135e-05
2.38318e-05
-2.46567e-05
-7.30353e-05
-0.000120661
0.000939891
0.00092957
0.000918252
0.000905878
0.000892389
0.000877721
0.000861814
0.000844605
0.000826033
0.000806037
0.000784558
0.00076154
0.000736931
0.000710682
0.000682752
0.000653103
0.00062171
0.000588553
0.000553625
0.000516931
0.00047849
0.000438334
0.000396513
0.000353095
0.000308164
0.000261828
0.00021421
0.000165456
0.000115732
6.52258e-05
1.41379e-05
-3.73422e-05
-8.87554e-05
-0.000139394
0.000961485
0.000951521
0.000940529
0.000928446
0.000915204
0.000900737
0.000884975
0.000867849
0.00084929
0.000829229
0.000807599
0.000784335
0.000759375
0.000732661
0.000704143
0.000673773
0.000641517
0.000607347
0.000571248
0.000533216
0.000493264
0.000451421
0.000407732
0.000362265
0.000315104
0.000266359
0.000216161
0.000164663
0.000112045
5.85067e-05
4.26815e-06
-5.04638e-05
-0.000105184
-0.000159115
0.000449527
0.000444881
0.000440214
0.000435528
0.000430823
0.0004261
0.000421361
0.000416608
0.000411841
0.000407061
0.000402271
0.000397471
0.000392663
0.000387848
0.000383028
0.000378203
0.000373376
0.000368547
0.000363719
0.000358892
0.000354068
0.000349248
0.000344435
0.000339628
0.00033483
0.000330042
0.000325266
0.000320502
0.000315753
0.00031102
0.000306303
0.000301605
0.000296927
0.00029227
0.000449691
0.000445036
0.00044036
0.000435664
0.00043095
0.000426218
0.000421469
0.000416706
0.000411929
0.00040714
0.000402339
0.000397529
0.000392711
0.000387885
0.000383054
0.000378219
0.000373381
0.000368542
0.000363703
0.000358865
0.00035403
0.0003492
0.000344375
0.000339558
0.000334749
0.000329951
0.000325164
0.00032039
0.00031563
0.000310886
0.000306159
0.000301451
0.000296763
0.000292096
0.00045001
0.000445338
0.000440645
0.000435931
0.000431198
0.000426448
0.000421681
0.000416898
0.000412102
0.000407293
0.000402473
0.000397643
0.000392804
0.000387958
0.000383107
0.000378251
0.000373392
0.000368532
0.000363672
0.000358813
0.000353958
0.000349106
0.000344261
0.000339422
0.000334593
0.000329773
0.000324965
0.000320171
0.00031539
0.000310626
0.000305879
0.000301151
0.000296443
0.000291756
0.000450478
0.000445781
0.000441062
0.000436322
0.000431563
0.000426785
0.00042199
0.00041718
0.000412356
0.000407518
0.000402669
0.00039781
0.000392941
0.000388066
0.000383184
0.000378298
0.000373409
0.000368518
0.000363628
0.000358738
0.000353851
0.000348969
0.000344093
0.000339224
0.000334363
0.000329513
0.000324675
0.00031985
0.00031504
0.000310246
0.000305469
0.000300712
0.000295975
0.000291259
0.000451089
0.000446359
0.000441606
0.000436833
0.000432039
0.000427226
0.000422396
0.000417549
0.000412688
0.000407813
0.000402926
0.000398028
0.000393122
0.000388207
0.000383286
0.000378361
0.000373432
0.000368501
0.000363571
0.000358641
0.000353714
0.000348792
0.000343875
0.000338966
0.000334065
0.000329175
0.000324297
0.000319432
0.000314583
0.00030975
0.000304935
0.000300139
0.000295364
0.000290612
0.000451838
0.000447068
0.000442275
0.00043746
0.000432623
0.000427768
0.000422893
0.000418002
0.000413096
0.000408175
0.000403242
0.000398298
0.000393344
0.000388382
0.000383413
0.000378439
0.000373462
0.000368482
0.000363502
0.000358523
0.000353547
0.000348575
0.000343609
0.00033865
0.000333701
0.000328762
0.000323835
0.000318922
0.000314024
0.000309143
0.00030428
0.000299438
0.000294617
0.000289818
0.000452723
0.000447906
0.000443065
0.0004382
0.000433314
0.000428408
0.000423482
0.000418539
0.000413579
0.000408605
0.000403617
0.000398618
0.000393609
0.00038859
0.000383565
0.000378534
0.000373499
0.000368462
0.000363424
0.000358387
0.000353353
0.000348322
0.000343298
0.000338281
0.000333273
0.000328276
0.000323292
0.000318321
0.000313367
0.000308429
0.000303511
0.000298613
0.000293737
0.000288884
0.00045374
0.000448869
0.000443973
0.000439053
0.00043411
0.000429145
0.000424161
0.000419157
0.000414137
0.000409101
0.000404051
0.000398989
0.000393915
0.000388833
0.000383742
0.000378646
0.000373545
0.000368441
0.000363337
0.000358233
0.000353132
0.000348035
0.000342943
0.000337859
0.000332785
0.000327721
0.000322671
0.000317634
0.000312614
0.000307611
0.000302628
0.000297667
0.000292728
0.000287813
0.000454887
0.000449956
0.000444999
0.000440016
0.000435009
0.000429979
0.000424928
0.000419858
0.000414769
0.000409664
0.000404544
0.00039941
0.000394265
0.000389109
0.000383946
0.000378776
0.000373601
0.000368422
0.000363243
0.000358064
0.000352887
0.000347714
0.000342547
0.000337388
0.000332238
0.000327099
0.000321973
0.000316863
0.000311768
0.000306692
0.000301637
0.000296603
0.000291593
0.000286608
0.000456163
0.000451166
0.000446141
0.000441089
0.000436011
0.000430909
0.000425785
0.00042064
0.000415476
0.000410293
0.000405095
0.000399883
0.000394658
0.000389422
0.000384177
0.000378925
0.000373667
0.000368406
0.000363143
0.00035788
0.000352619
0.000347362
0.000342111
0.000336868
0.000331634
0.000326412
0.000321202
0.000316009
0.000310832
0.000305675
0.000300538
0.000295424
0.000290335
0.000285272
0.000457569
0.000452499
0.0004474
0.000442271
0.000437116
0.000431936
0.000426731
0.000421504
0.000416257
0.000410991
0.000405707
0.000400408
0.000395096
0.000389771
0.000384437
0.000379095
0.000373746
0.000368394
0.000363039
0.000357684
0.000352331
0.000346981
0.000341638
0.000336302
0.000330975
0.000325661
0.00032036
0.000315075
0.000309807
0.00030456
0.000299334
0.000294132
0.000288955
0.000283806
0.000459102
0.000453954
0.000448774
0.000443564
0.000438325
0.000433059
0.000427768
0.000422452
0.000417115
0.000411757
0.00040638
0.000400987
0.000395579
0.000390159
0.000384727
0.000379287
0.00037384
0.000368388
0.000362933
0.000357477
0.000352023
0.000346573
0.000341128
0.000335691
0.000330263
0.000324848
0.000319447
0.000314062
0.000308696
0.00030335
0.000298027
0.000292728
0.000287456
0.000282213
0.000460765
0.000455533
0.000450267
0.000444968
0.000439639
0.000434281
0.000428896
0.000423485
0.00041805
0.000412593
0.000407116
0.000401622
0.000396111
0.000390586
0.00038505
0.000379503
0.000373949
0.000368389
0.000362826
0.000357261
0.000351698
0.000346138
0.000340583
0.000335037
0.0003295
0.000323975
0.000318466
0.000312973
0.000307499
0.000302046
0.000296617
0.000291214
0.000285838
0.000280493
0.000462557
0.000457235
0.000451877
0.000446484
0.000441059
0.000435603
0.000430117
0.000424603
0.000419064
0.000413502
0.000407917
0.000402314
0.000396692
0.000391056
0.000385406
0.000379745
0.000374076
0.0003684
0.00036272
0.000357038
0.000351357
0.000345679
0.000340006
0.000334341
0.000328686
0.000323044
0.000317417
0.000311807
0.000306217
0.000300649
0.000295106
0.00028959
0.000284103
0.000278647
0.00046448
0.000459063
0.000453607
0.000448115
0.000442587
0.000437025
0.000431433
0.00042581
0.00042016
0.000414484
0.000408785
0.000403065
0.000397326
0.000391569
0.000385798
0.000380015
0.000374223
0.000368423
0.000362617
0.00035681
0.000351002
0.000345198
0.000339398
0.000333606
0.000327824
0.000322055
0.000316302
0.000310567
0.000304852
0.00029916
0.000293494
0.000287857
0.00028225
0.000276676
0.000466536
0.000461018
0.000455459
0.000449861
0.000444224
0.000438552
0.000432846
0.000427108
0.00042134
0.000415544
0.000409723
0.000403878
0.000398013
0.000392129
0.000386229
0.000380316
0.000374392
0.000368459
0.00036252
0.000356578
0.000350636
0.000344696
0.00033876
0.000332832
0.000326915
0.000321011
0.000315122
0.000309253
0.000303404
0.00029758
0.000291783
0.000286015
0.00028028
0.000274579
0.000468727
0.000463103
0.000457435
0.000451725
0.000445974
0.000440185
0.000434359
0.000428498
0.000422605
0.000416683
0.000410732
0.000404756
0.000398757
0.000392738
0.000386701
0.00038065
0.000374585
0.000368511
0.00036243
0.000356345
0.000350259
0.000344175
0.000338095
0.000332022
0.00032596
0.000319911
0.000313879
0.000307866
0.000301875
0.00029591
0.000289972
0.000284066
0.000278193
0.000272357
0.000471054
0.00046532
0.000459538
0.000453711
0.000447839
0.000441927
0.000435975
0.000429985
0.000423961
0.000417903
0.000411816
0.000405701
0.000399561
0.000393399
0.000387217
0.000381019
0.000374806
0.000368582
0.00036235
0.000356114
0.000349875
0.000343637
0.000337403
0.000331177
0.000324961
0.000318758
0.000312573
0.000306407
0.000300265
0.000294149
0.000288062
0.000282008
0.000275989
0.000270009
0.000473521
0.000467671
0.00046177
0.00045582
0.000449823
0.000443781
0.000437696
0.000431571
0.000425408
0.00041921
0.000412979
0.000406717
0.000400429
0.000394115
0.00038778
0.000381426
0.000375057
0.000368675
0.000362283
0.000355885
0.000349485
0.000343084
0.000336688
0.000330298
0.000323919
0.000317553
0.000311205
0.000304877
0.000298574
0.000292298
0.000286053
0.000279841
0.000273668
0.000267535
0.00047613
0.000470159
0.000464134
0.000458056
0.000451927
0.00044575
0.000439527
0.00043326
0.000426952
0.000420605
0.000414223
0.000407807
0.000401362
0.000394889
0.000388393
0.000381875
0.00037534
0.000368791
0.000362231
0.000355663
0.000349091
0.000342519
0.00033595
0.000329387
0.000322835
0.000316297
0.000309776
0.000303277
0.000296803
0.000290357
0.000283944
0.000277566
0.000271229
0.000264934
0.000478884
0.000472788
0.000466633
0.000460422
0.000454156
0.000447838
0.00044147
0.000435055
0.000428595
0.000422093
0.000415552
0.000408975
0.000402365
0.000395725
0.000389059
0.000382369
0.00037566
0.000368934
0.000362196
0.000355449
0.000348697
0.000341943
0.000335192
0.000328446
0.000321712
0.000314991
0.000308288
0.000301607
0.000294952
0.000288327
0.000281736
0.000275183
0.000268671
0.000262204
0.000481786
0.000475561
0.000469272
0.000462923
0.000456514
0.000450049
0.00044353
0.00043696
0.000430341
0.000423677
0.00041697
0.000410224
0.000403442
0.000396626
0.000389782
0.000382911
0.000376019
0.000369108
0.000362183
0.000355247
0.000348304
0.000341359
0.000334415
0.000327478
0.00032055
0.000313636
0.000306741
0.000299868
0.000293022
0.000286208
0.000279429
0.000272689
0.000265993
0.000259346
0.000484841
0.000478481
0.000472054
0.000465561
0.000459004
0.000452387
0.000445711
0.00043898
0.000432196
0.000425362
0.000418482
0.000411559
0.000404596
0.000397597
0.000390565
0.000383505
0.000376421
0.000369315
0.000362193
0.000355058
0.000347916
0.000340769
0.000333623
0.000326482
0.000319351
0.000312234
0.000305136
0.000298061
0.000291014
0.000283999
0.000277021
0.000270086
0.000263196
0.000256357
0.00048805
0.000481553
0.000474982
0.000468341
0.000461631
0.000454855
0.000448017
0.000441118
0.000434162
0.000427152
0.000420091
0.000412983
0.000405832
0.000398641
0.000391414
0.000384155
0.000376869
0.000369559
0.000362231
0.000354888
0.000347534
0.000340176
0.000332817
0.000325463
0.000318118
0.000310786
0.000303474
0.000296186
0.000288926
0.000281701
0.000274514
0.000267371
0.000260277
0.000253236
0.000491419
0.000484779
0.000478061
0.000471267
0.000464399
0.000457459
0.000450452
0.000443379
0.000436244
0.000429051
0.000421802
0.000414502
0.000407154
0.000399763
0.000392331
0.000384865
0.000377368
0.000369844
0.000362299
0.000354737
0.000347164
0.000339583
0.000332
0.000324421
0.000316851
0.000309294
0.000301757
0.000294244
0.000286761
0.000279314
0.000271906
0.000264545
0.000257235
0.000249982
0.000494951
0.000488165
0.000481295
0.000474343
0.000467311
0.000460203
0.000453021
0.000445768
0.000438448
0.000431064
0.00042362
0.00041612
0.000408567
0.000400967
0.000393322
0.000385639
0.000377921
0.000370174
0.000362402
0.000354611
0.000346806
0.000338992
0.000331175
0.00032336
0.000315553
0.000307759
0.000299985
0.000292236
0.000284518
0.000276837
0.000269198
0.000261607
0.00025407
0.000246593
0.00049865
0.000491714
0.000484688
0.000477574
0.000470374
0.000463092
0.000455729
0.00044829
0.000440778
0.000433197
0.00042555
0.000417841
0.000410076
0.000402258
0.000394391
0.000386481
0.000378533
0.000370552
0.000362544
0.000354513
0.000346465
0.000338407
0.000330343
0.000322281
0.000314226
0.000306184
0.000298161
0.000290164
0.000282198
0.000274271
0.000266388
0.000258556
0.000250781
0.000243068
0.000502519
0.000495431
0.000488245
0.000480964
0.000473591
0.000466129
0.000458581
0.00045095
0.000443239
0.000435454
0.000427596
0.000419672
0.000411685
0.00040364
0.000395543
0.000387397
0.000379209
0.000370984
0.000362728
0.000354446
0.000346145
0.00033783
0.000329509
0.000321187
0.000312871
0.000304568
0.000296284
0.000288027
0.000279802
0.000271616
0.000263477
0.000255391
0.000247365
0.000239405
0.000506563
0.000499319
0.00049197
0.000484518
0.000476968
0.000469321
0.000461582
0.000453752
0.000445837
0.00043784
0.000429765
0.000421617
0.000413401
0.000405121
0.000396782
0.000388391
0.000379953
0.000371473
0.000362958
0.000354414
0.000345848
0.000337266
0.000328674
0.000320081
0.000311492
0.000302915
0.000294358
0.000285826
0.000277329
0.000268872
0.000260464
0.000252111
0.000243821
0.000235601
0.000510786
0.000503383
0.000495867
0.000488241
0.000480509
0.000472673
0.000464737
0.000456703
0.000448577
0.000440361
0.000432061
0.000423682
0.000415227
0.000406703
0.000398115
0.000389468
0.000380769
0.000372024
0.00036324
0.000354423
0.000345579
0.000336717
0.000327843
0.000318965
0.00031009
0.000301227
0.000292382
0.000283564
0.00027478
0.000266039
0.000257348
0.000248715
0.000240149
0.000231656
0.000515192
0.000507627
0.000499941
0.000492138
0.000484219
0.000476189
0.000468051
0.000459808
0.000451464
0.000443023
0.000434491
0.000425872
0.000417171
0.000408393
0.000399546
0.000390634
0.000381664
0.000372643
0.000363578
0.000354475
0.000345342
0.000336188
0.000327019
0.000317843
0.000308669
0.000299505
0.000290359
0.00028124
0.000272157
0.000263117
0.00025413
0.000245203
0.000236346
0.000227567
0.000519785
0.000512055
0.000504197
0.000496212
0.000488104
0.000479875
0.00047153