/*--------------------------------*- C++ -*----------------------------------*\
| =========                 |                                                 |
| \\      /  F ield         | OpenFOAM: The Open Source CFD Toolbox           |
|  \\    /   O peration     | Version:  2412                                  |
|   \\  /    A nd           | Website:  www.openfoam.com                      |
|    \\/     M anipulation  |                                                 |
\*---------------------------------------------------------------------------*/
FoamFile
{
    version     2.0;
    format      ascii;
    arch        "LSB;label=32;scalar=64";
    class       volScalarField;
    location    "21";
    object      p;
}
// * * * * * * * * * * * * * * * * * * * * * * * * * * * * * * * * * * * * * //

dimensions      [0 2 -2 0 0 0 0];

internalField   nonuniform List<scalar> 
63420
(
0.000935248
0.000935508
0.000936333
0.000937608
0.000939316
0.000941443
0.000943972
0.000946891
0.000950187
0.000953851
0.000957873
0.000962246
0.000966963
0.000972017
0.000977401
0.000983112
0.000989144
0.000995496
0.00100217
0.00100916
0.00101647
0.0010241
0.00103205
0.00104033
0.00104894
0.00105787
0.00106714
0.00107675
0.00108669
0.00109697
0.0011076
0.00111857
0.00112989
0.00114157
0.0011536
0.00116599
0.00117875
0.00119188
0.00120537
0.00121924
0.00123349
0.00124813
0.00126315
0.00127856
0.00129437
0.00131058
0.0013272
0.00134422
0.00136166
0.00137952
0.0013978
0.0014165
0.00143564
0.00145522
0.00147523
0.000935188
0.000935448
0.000936273
0.000937546
0.000939253
0.000941378
0.000943906
0.000946823
0.000950116
0.000953777
0.000957797
0.000962167
0.00096688
0.000971929
0.000977309
0.000983015
0.000989042
0.000995389
0.00100205
0.00100904
0.00101634
0.00102396
0.00103191
0.00104018
0.00104878
0.00105771
0.00106696
0.00107656
0.00108649
0.00109676
0.00110737
0.00111833
0.00112964
0.0011413
0.00115332
0.00116569
0.00117843
0.00119154
0.00120501
0.00121886
0.00123309
0.0012477
0.0012627
0.00127809
0.00129387
0.00131005
0.00132663
0.00134362
0.00136102
0.00137884
0.00139707
0.00141574
0.00143483
0.00145435
0.00147432
0.000935068
0.000935328
0.000936152
0.000937424
0.000939128
0.00094125
0.000943774
0.000946686
0.000949975
0.000953631
0.000957644
0.000962007
0.000966713
0.000971754
0.000977125
0.000982822
0.000988839
0.000995175
0.00100183
0.0010088
0.00101609
0.0010237
0.00103163
0.00103988
0.00104846
0.00105737
0.00106661
0.00107618
0.00108609
0.00109634
0.00110693
0.00111786
0.00112914
0.00114077
0.00115276
0.0011651
0.0011778
0.00119087
0.0012043
0.00121811
0.00123229
0.00124685
0.0012618
0.00127713
0.00129285
0.00130897
0.00132549
0.00134241
0.00135974
0.00137748
0.00139563
0.00141421
0.00143321
0.00145264
0.0014725
0.000934889
0.000935148
0.00093597
0.000937239
0.00093894
0.000941058
0.000943576
0.000946482
0.000949764
0.000953411
0.000957415
0.000961768
0.000966462
0.000971492
0.00097685
0.000982532
0.000988534
0.000994853
0.00100149
0.00100844
0.00101571
0.0010233
0.00103121
0.00103944
0.00104799
0.00105687
0.00106608
0.00107562
0.0010855
0.00109571
0.00110626
0.00111715
0.00112839
0.00113998
0.00115191
0.0011642
0.00117685
0.00118986
0.00120323
0.00121698
0.00123109
0.00124558
0.00126045
0.0012757
0.00129134
0.00130736
0.00132378
0.0013406
0.00135782
0.00137545
0.00139348
0.00141192
0.00143079
0.00145007
0.00146977
0.000934651
0.000934909
0.000935728
0.000936994
0.00093869
0.000940801
0.000943313
0.00094621
0.000949482
0.000953118
0.00095711
0.000961449
0.000966129
0.000971142
0.000976483
0.000982146
0.000988128
0.000994426
0.00100104
0.00100797
0.00101521
0.00102277
0.00103065
0.00103884
0.00104736
0.00105621
0.00106538
0.00107488
0.00108471
0.00109487
0.00110537
0.00111621
0.00112739
0.00113892
0.00115079
0.00116301
0.00117559
0.00118852
0.00120182
0.00121547
0.0012295
0.00124389
0.00125866
0.0012738
0.00128932
0.00130523
0.00132152
0.0013382
0.00135528
0.00137275
0.00139062
0.0014089
0.00142757
0.00144666
0.00146616
0.000934352
0.00093461
0.000935426
0.000936688
0.000938377
0.000940482
0.000942984
0.00094587
0.00094913
0.000952752
0.000956729
0.000961052
0.000965713
0.000970706
0.000976025
0.000981665
0.000987621
0.000993892
0.00100048
0.00100737
0.00101458
0.00102211
0.00102995
0.0010381
0.00104658
0.00105538
0.0010645
0.00107395
0.00108372
0.00109383
0.00110427
0.00111504
0.00112615
0.0011376
0.00114939
0.00116153
0.00117402
0.00118686
0.00120005
0.0012136
0.00122751
0.00124178
0.00125642
0.00127143
0.00128681
0.00130257
0.0013187
0.00133522
0.00135212
0.0013694
0.00138707
0.00140513
0.00142359
0.00144243
0.00146167
0.000933995
0.000934252
0.000935064
0.000936321
0.000938003
0.000940098
0.000942589
0.000945463
0.000948708
0.000952315
0.000956273
0.000960575
0.000965214
0.000970184
0.000975477
0.000981088
0.000987015
0.000993253
0.000999802
0.00100666
0.00101383
0.00102131
0.00102911
0.00103722
0.00104564
0.00105439
0.00106345
0.00107283
0.00108254
0.00109258
0.00110294
0.00111363
0.00112466
0.00113602
0.00114772
0.00115976
0.00117214
0.00118487
0.00119794
0.00121136
0.00122514
0.00123927
0.00125376
0.00126861
0.00128382
0.0012994
0.00131535
0.00133166
0.00134835
0.00136541
0.00138284
0.00140065
0.00141884
0.00143741
0.00145634
0.00149575
0.00151699
0.00153915
0.00156226
0.0015864
0.00161161
0.00163796
0.00166554
0.0016944
0.00172464
0.00175634
0.0017896
0.00182453
0.00186123
0.00189983
0.00194047
0.0019833
0.00202847
0.00207615
0.00212655
0.00217986
0.00223633
0.0022962
0.00235975
0.0024273
0.00249917
0.00257575
0.00265744
0.0027447
0.00283804
0.002938
0.00304519
0.00316028
0.003284
0.00341711
0.00356043
0.0037148
0.00388101
0.00405975
0.00425146
0.00445614
0.00467307
0.00490047
0.00513531
0.0053736
0.00561129
0.00584458
0.00607981
0.00638269
0.00684358
0.00149482
0.00151606
0.00153821
0.00156132
0.00158545
0.00161066
0.00163701
0.00166458
0.00169344
0.00172367
0.00175537
0.00178862
0.00182354
0.00186023
0.00189882
0.00193944
0.00198224
0.00202738
0.00207502
0.00212537
0.00217863
0.00223503
0.00229481
0.00235825
0.00242566
0.00249737
0.00257374
0.00265518
0.00274212
0.00283506
0.00293453
0.00304109
0.0031554
0.0032781
0.00340993
0.0035516
0.00370384
0.0038673
0.00404245
0.00422948
0.00442803
0.00463693
0.00485384
0.00507501
0.00529558
0.00551058
0.0057157
0.00591641
0.0061742
0.0065725
0.00149294
0.00151418
0.00153633
0.00155943
0.00158356
0.00160876
0.00163511
0.00166267
0.00169152
0.00172174
0.00175342
0.00178666
0.00182156
0.00185822
0.00189678
0.00193736
0.00198011
0.00202519
0.00207277
0.00212303
0.00217617
0.00223243
0.00229204
0.00235527
0.00242242
0.0024938
0.00256977
0.0026507
0.00273702
0.00282918
0.00292767
0.003033
0.00314575
0.00326648
0.00339577
0.0035342
0.00368223
0.00384023
0.00400826
0.00418596
0.00437227
0.00456508
0.00476089
0.0049545
0.00513929
0.00530842
0.00545674
0.00558822
0.00575178
0.00603744
0.00149013
0.00151136
0.0015335
0.0015566
0.00158071
0.0016059
0.00163224
0.00165978
0.00168862
0.00171882
0.00175048
0.00178369
0.00181855
0.00185518
0.00189369
0.0019342
0.00197688
0.00202187
0.00206932
0.00211944
0.0021724
0.00222844
0.00228778
0.00235069
0.00241742
0.0024883
0.00256365
0.00264381
0.00272917
0.00282014
0.00291713
0.0030206
0.00313098
0.00324871
0.00337419
0.00350771
0.00364944
0.00379926
0.00395665
0.00412044
0.0042885
0.00445734
0.00462169
0.0047742
0.00490562
0.0050062
0.00506945
0.00510053
0.00513297
0.00522011
0.0014864
0.00150763
0.00152976
0.00155285
0.00157695
0.00160213
0.00162846
0.00165599
0.00168481
0.001715
0.00174664
0.00177982
0.00181465
0.00185123
0.00188968
0.00193013
0.00197271
0.00201758
0.0020649
0.00211483
0.00216758
0.00222334
0.00228234
0.00234481
0.00241102
0.00248124
0.00255577
0.00263492
0.00271901
0.00280839
0.00290339
0.00300434
0.00311155
0.00322524
0.00334556
0.00347246
0.00360563
0.00374436
0.00388731
0.00403223
0.00417558
0.00431208
0.00443415
0.00453165
0.00459206
0.00460182
0.00455168
0.00444975
0.00431846
0.00409895
0.00148177
0.001503
0.00152514
0.00154824
0.00157236
0.00159756
0.00162391
0.00165147
0.00168032
0.00171054
0.00174221
0.00177543
0.00181029
0.0018469
0.00188538
0.00192586
0.00196846
0.00201333
0.00206063
0.00211053
0.00216321
0.00221887
0.00227771
0.00233997
0.00240587
0.00247568
0.00254965
0.00262806
0.00271119
0.0027993
0.00289263
0.00299138
0.00309569
0.00320555
0.00332075
0.0034408
0.00356473
0.00369092
0.00381674
0.00393824
0.00404955
0.00414236
0.00420535
0.00422389
0.00418044
0.00405629
0.0038377
0.00353363
0.00315833
0.00252491
0.00147623
0.00149739
0.00151947
0.00154252
0.00156659
0.00159174
0.00161804
0.00164556
0.00167436
0.00170454
0.00173616
0.00176933
0.00180414
0.00184069
0.00187911
0.00191952
0.00196204
0.00200683
0.00205402
0.00210379
0.00215631
0.00221177
0.00227038
0.00233233
0.00239785
0.00246718
0.00254054
0.00261818
0.00270031
0.00278713
0.00287881
0.00297541
0.00307688
0.003183
0.0032932
0.00340649
0.00352116
0.0036345
0.00374232
0.00383839
0.00391367
0.00395555
0.00394729
0.00386796
0.00369327
0.00339713
0.00296229
0.00240199
0.00168012
0.00050651
-0.00349765
-0.00356803
-0.00358804
-0.00357187
-0.00353169
-0.00347034
-0.00338944
-0.00329174
-0.00317911
-0.00305276
-0.00291477
-0.00276704
-0.00261142
-0.00244978
-0.00228407
-0.00211617
-0.00194785
-0.0017808
-0.00161655
-0.00145651
-0.0013019
-0.00115373
-0.00101288
-0.000880138
-0.00075604
-0.000640887
-0.000534811
-0.000437857
-0.000349942
-0.000270861
-0.000200313
-0.000137914
-8.32214e-05
-3.57414e-05
5.04915e-06
3.96922e-05
6.87356e-05
9.27224e-05
0.000112182
0.000127625
0.000139532
0.000148357
0.000154518
0.0001584
0.000160351
0.000160686
0.000159683
0.000157588
0.000154617
0.000150956
-0.00357615
-0.00362404
-0.00363059
-0.00360647
-0.00356105
-0.00349631
-0.00341329
-0.00331473
-0.00320135
-0.00307469
-0.00293673
-0.00278906
-0.00263348
-0.00247187
-0.00230608
-0.002138
-0.0019694
-0.00180194
-0.00163717
-0.00147652
-0.00132119
-0.00117224
-0.00103054
-0.000896882
-0.000771861
-0.000655767
-0.000548748
-0.000450857
-0.000362025
-0.000282054
-0.000210649
-0.000147433
-9.19654e-05
-4.37557e-05
-2.28147e-06
3.2999e-05
6.26341e-05
8.71682e-05
0.000107133
0.000123038
0.000135371
0.000144584
0.0001511
0.000155306
0.000157552
0.000158155
0.000157395
0.000155522
0.000152751
0.000149274
-0.00373228
-0.0037342
-0.00371413
-0.00367423
-0.00361814
-0.00354636
-0.00345836
-0.00335831
-0.00324384
-0.00311653
-0.00297887
-0.00283089
-0.00267572
-0.00251427
-0.00234843
-0.0021801
-0.00201102
-0.00184285
-0.00167715
-0.00151536
-0.00135871
-0.00120828
-0.00106496
-0.000929578
-0.000802754
-0.000684858
-0.00057602
-0.000476319
-0.000385707
-0.000304005
-0.000230934
-0.000166125
-0.000109145
-5.95099e-05
-1.66985e-05
1.98299e-05
5.06244e-05
7.62316e-05
9.71857e-05
0.000114002
0.000127169
0.000137146
0.00014436
0.000149202
0.000152027
0.000153156
0.000152876
0.000151438
0.000149061
0.000145948
-0.0039719
-0.00389068
-0.00383574
-0.00377204
-0.00369982
-0.00361695
-0.0035192
-0.00341915
-0.00330389
-0.00317424
-0.00303718
-0.00289022
-0.0027353
-0.00257406
-0.00240829
-0.00223974
-0.0020701
-0.00190103
-0.0017341
-0.00157077
-0.00141233
-0.00125986
-0.0011143
-0.000976512
-0.000847175
-0.000726703
-0.000615298
-0.000513028
-0.000419884
-0.000335716
-0.000260264
-0.000193176
-0.00013403
-8.23481e-05
-3.7615e-05
7.08883e-07
3.31735e-05
6.03279e-05
8.27104e-05
0.000100841
0.000115214
0.000126296
0.00013452
0.000140282
0.000143946
0.000145838
0.000146251
0.000145442
0.000143637
0.000141052
-0.0042736
-0.00409439
-0.00399235
-0.0038946
-0.00380102
-0.00370587
-0.00360981
-0.00349527
-0.00337514
-0.00324605
-0.003108
-0.00296118
-0.00280674
-0.00264604
-0.00248059
-0.00231203
-0.00214199
-0.00197211
-0.00180396
-0.00163902
-0.00147861
-0.00132388
-0.00117579
-0.00103521
-0.000902908
-0.000779398
-0.000664896
-0.000559522
-0.000463296
-0.000376107
-0.00029772
-0.000227807
-0.000165961
-0.000111716
-6.45646e-05
-2.39709e-05
1.06139e-05
3.974e-05
6.39494e-05
8.37669e-05
9.96933e-05
0.000112201
0.00012173
0.000128686
0.000133438
0.000136321
0.000137634
0.000137643
0.000136582
0.000134681
-0.00459131
-0.00434549
-0.00418486
-0.0040445
-0.00391872
-0.00380059
-0.00369083
-0.00357206
-0.00344834
-0.00331768
-0.00317928
-0.00303326
-0.00288022
-0.00272108
-0.0025571
-0.00238968
-0.00222037
-0.00205072
-0.00188227
-0.00171648
-0.00155473
-0.00139821
-0.00124791
-0.00110475
-0.000969525
-0.000842855
-0.000725075
-0.000616315
-0.000516655
-0.000426034
-0.000344257
-0.000271029
-0.000205972
-0.000148639
-9.85411e-05
-5.51528e-05
-1.79328e-05
1.36658e-05
4.01842e-05
6.21488e-05
8.00645e-05
9.44084e-05
0.000105627
0.000114131
0.0001203
0.000124474
0.000126962
0.000128036
0.000127941
0.000126919
-0.00489617
-0.0046592
-0.00444306
-0.00424737
-0.00407531
-0.00393685
-0.00380181
-0.0036708
-0.00353991
-0.0034053
-0.00326536
-0.0031194
-0.00296729
-0.00280948
-0.00264684
-0.00248051
-0.00231185
-0.0021423
-0.00197334
-0.00180643
-0.00164296
-0.0014842
-0.00133121
-0.0011849
-0.00104618
-0.000915734
-0.000793996
-0.000681207
-0.000577474
-0.000482796
-0.000397027
-0.000319912
-0.000251103
-0.000190181
-0.000136674
-9.00691e-05
-4.98329e-05
-1.54209e-05
1.3709e-05
3.80871e-05
5.82242e-05
7.46053e-05
8.76853e-05
9.78861e-05
0.000105595
0.000111165
0.000114913
0.000117121
0.000118049
0.000117934
0.000146757
0.000142057
0.000136969
0.000131607
0.00012605
0.000120368
0.000114627
0.000108879
0.00010317
9.754e-05
9.20203e-05
8.66371e-05
8.14115e-05
7.63595e-05
7.14934e-05
6.68218e-05
6.23502e-05
5.80814e-05
5.40163e-05
5.01537e-05
4.6491e-05
4.30245e-05
3.97496e-05
3.6661e-05
3.37527e-05
3.1019e-05
2.84534e-05
2.60498e-05
2.3802e-05
2.17038e-05
1.97491e-05
1.79318e-05
1.62457e-05
1.46847e-05
1.32424e-05
1.19126e-05
1.0689e-05
9.56531e-06
8.53525e-06
7.59278e-06
6.73206e-06
5.94753e-06
5.23382e-06
4.58476e-06
3.99801e-06
3.46937e-06
2.99072e-06
2.56045e-06
2.17519e-06
1.83111e-06
1.52478e-06
1.25313e-06
1.01324e-06
8.02308e-07
6.17762e-07
4.57257e-07
3.18524e-07
1.99411e-07
9.80217e-08
1.26088e-08
-5.85917e-08
-1.17163e-07
-1.64445e-07
-2.01778e-07
-2.30446e-07
-2.51484e-07
-2.65855e-07
-2.74528e-07
-2.78342e-07
-2.78018e-07
-2.74228e-07
-2.67547e-07
-2.58568e-07
-2.47796e-07
-2.35474e-07
-2.22033e-07
-2.07944e-07
-1.93318e-07
-1.78311e-07
-1.63407e-07
-1.48528e-07
-1.34014e-07
-1.19523e-07
-1.06125e-07
-9.18277e-08
-8.06371e-08
-6.55508e-08
-5.83377e-08
-3.94602e-08
-4.17739e-08
-1.12177e-08
-3.38016e-08
2.36783e-08
-3.99245e-08
7.17675e-08
-6.67954e-08
1.39078e-07
-1.17561e-07
2.25638e-07
-1.85323e-07
3.18855e-07
-2.47037e-07
3.87872e-07
-2.64426e-07
3.95683e-07
-2.06734e-07
3.26401e-07
-8.04554e-08
2.20163e-07
4.19839e-08
1.80873e-07
3.74316e-08
3.32855e-07
-2.11393e-07
7.5281e-07
0.000145271
0.000140682
0.000135696
0.00013044
0.000124985
0.000119398
0.000113744
0.000108077
0.000102442
9.68797e-05
9.14217e-05
8.60947e-05
8.09202e-05
7.59148e-05
7.10909e-05
6.64576e-05
6.20208e-05
5.77836e-05
5.37471e-05
4.99104e-05
4.62713e-05
4.28262e-05
3.95707e-05
3.64996e-05
3.36074e-05
3.08882e-05
2.83358e-05
2.59442e-05
2.37072e-05
2.16189e-05
1.96731e-05
1.78638e-05
1.6185e-05
1.46304e-05
1.3194e-05
1.18695e-05
1.06505e-05
9.53099e-06
8.50467e-06
7.56553e-06
6.7078e-06
5.92596e-06
5.21466e-06
4.56774e-06
3.98294e-06
3.45604e-06
2.97893e-06
2.55005e-06
2.16605e-06
1.82307e-06
1.51772e-06
1.24695e-06
1.00786e-06
7.97615e-07
6.13683e-07
4.53728e-07
3.15482e-07
1.96787e-07
9.57682e-08
1.06876e-08
-6.02308e-08
-1.18559e-07
-1.6562e-07
-2.02763e-07
-2.31272e-07
-2.5217e-07
-2.66417e-07
-2.74986e-07
-2.78715e-07
-2.78318e-07
-2.74464e-07
-2.67729e-07
-2.5871e-07
-2.47905e-07
-2.3555e-07
-2.2208e-07
-2.07977e-07
-1.93333e-07
-1.78307e-07
-1.63396e-07
-1.48513e-07
-1.33989e-07
-1.19494e-07
-1.0609e-07
-9.17963e-08
-8.06128e-08
-6.55281e-08
-5.83113e-08
-3.9445e-08
-4.17527e-08
-1.12078e-08
-3.37801e-08
2.36773e-08
-3.99023e-08
7.17512e-08
-6.67658e-08
1.3906e-07
-1.17516e-07
2.25623e-07
-1.85273e-07
3.1884e-07
-2.47e-07
3.87873e-07
-2.64423e-07
3.95694e-07
-2.0674e-07
3.26409e-07
-8.04611e-08
2.20166e-07
4.1988e-08
1.80833e-07
3.74467e-08
3.32885e-07
-2.11468e-07
7.5311e-07
0.000142315
0.000137947
0.000133169
0.000128125
0.000122872
0.000117472
0.000111991
0.000106483
0.000100995
9.55669e-05
9.02313e-05
8.50159e-05
7.99428e-05
7.50297e-05
7.02897e-05
6.57325e-05
6.13648e-05
5.71904e-05
5.32108e-05
4.94257e-05
4.58335e-05
4.24309e-05
3.92141e-05
3.61781e-05
3.33177e-05
3.06274e-05
2.81013e-05
2.57336e-05
2.35183e-05
2.14496e-05
1.95215e-05
1.77282e-05
1.60638e-05
1.45222e-05
1.30974e-05
1.17833e-05
1.05737e-05
9.46247e-06
8.44359e-06
7.51113e-06
6.65938e-06
5.8829e-06
5.17639e-06
4.5338e-06
3.95286e-06
3.4294e-06
2.95539e-06
2.5293e-06
2.14777e-06
1.80701e-06
1.50364e-06
1.23463e-06
9.97085e-07
7.88232e-07
6.05544e-07
4.46678e-07
3.09382e-07
1.91549e-07
9.12882e-08
6.84079e-09
-6.35168e-08
-1.21334e-07
-1.6797e-07
-2.04754e-07
-2.32928e-07
-2.53535e-07
-2.67546e-07
-2.75911e-07
-2.79462e-07
-2.78916e-07
-2.74936e-07
-2.68106e-07
-2.59003e-07
-2.48103e-07
-2.35696e-07
-2.22201e-07
-2.08036e-07
-1.93354e-07
-1.78331e-07
-1.63391e-07
-1.48476e-07
-1.33954e-07
-1.19435e-07
-1.06033e-07
-9.17577e-08
-8.05431e-08
-6.54704e-08
-5.8292e-08
-3.94078e-08
-4.16963e-08
-1.12073e-08
-3.37386e-08
2.36673e-08
-3.98804e-08
7.17188e-08
-6.67082e-08
1.39002e-07
-1.17438e-07
2.25603e-07
-1.85201e-07
3.18804e-07
-2.46908e-07
3.87876e-07
-2.64426e-07
3.9571e-07
-2.0674e-07
3.26446e-07
-8.04857e-08
2.20201e-07
4.19876e-08
1.80775e-07
3.7409e-08
3.3299e-07
-2.11648e-07
7.53711e-07
0.000137924
0.000133889
0.000129425
0.000124697
0.000119741
0.000114618
0.000109392
0.00010412
9.88483e-05
9.36177e-05
8.84628e-05
8.34123e-05
7.84894e-05
7.37129e-05
6.90972e-05
6.46531e-05
6.03879e-05
5.63066e-05
5.24116e-05
4.87033e-05
4.51808e-05
4.18415e-05
3.86821e-05
3.56983e-05
3.28854e-05
3.02382e-05
2.77513e-05
2.54191e-05
2.32361e-05
2.11966e-05
1.9295e-05
1.75256e-05
1.58826e-05
1.43604e-05
1.2953e-05
1.16544e-05
1.04587e-05
9.35996e-06
8.35223e-06
7.42975e-06
6.58694e-06
5.81846e-06
5.11913e-06
4.483e-06
3.90784e-06
3.38953e-06
2.92017e-06
2.49823e-06
2.12042e-06
1.78296e-06
1.48256e-06
1.21619e-06
9.8097e-07
7.74196e-07
5.93359e-07
4.3612e-07
3.00259e-07
1.83702e-07
8.45621e-08
1.07828e-09
-6.84316e-08
-1.25498e-07
-1.71493e-07
-2.07725e-07
-2.35404e-07
-2.55585e-07
-2.69238e-07
-2.77296e-07
-2.80583e-07
-2.79813e-07
-2.75646e-07
-2.68668e-07
-2.59433e-07
-2.48409e-07
-2.35918e-07
-2.22366e-07
-2.08127e-07
-1.93396e-07
-1.78353e-07
-1.63378e-07
-1.48428e-07
-1.33897e-07
-1.19358e-07
-1.05953e-07
-9.16904e-08
-8.04513e-08
-6.53922e-08
-5.82398e-08
-3.93523e-08
-4.16177e-08
-1.1189e-08
-3.36715e-08
2.36621e-08
-3.98261e-08
7.16816e-08
-6.66196e-08
1.38934e-07
-1.17327e-07
2.2556e-07
-1.851e-07
3.18754e-07
-2.46806e-07
3.87872e-07
-2.6443e-07
3.95736e-07
-2.06765e-07
3.26499e-07
-8.05333e-08
2.20237e-07
4.19806e-08
1.80708e-07
3.73716e-08
3.33151e-07
-2.11925e-07
7.54606e-07
0.000132155
0.000128561
0.00012452
0.000120207
0.00011564
0.000110877
0.000105984
0.000101018
9.60277e-05
9.10551e-05
8.61361e-05
8.1301e-05
7.65747e-05
7.19772e-05
6.75245e-05
6.32286e-05
5.90982e-05
5.51394e-05
5.13557e-05
4.77485e-05
4.43178e-05
4.1062e-05
3.79784e-05
3.50635e-05
3.23132e-05
2.97229e-05
2.72877e-05
2.50025e-05
2.28622e-05
2.08613e-05
1.89946e-05
1.72568e-05
1.56423e-05
1.41457e-05
1.27612e-05
1.14833e-05
1.0306e-05
9.22381e-06
8.23087e-06
7.32163e-06
6.49069e-06
5.73285e-06
5.04306e-06
4.41549e-06
3.84801e-06
3.33655e-06
2.87336e-06
2.45695e-06
2.08406e-06
1.75101e-06
1.45454e-06
1.19167e-06
9.59552e-07
7.55543e-07
5.77159e-07
4.22085e-07
2.88134e-07
1.73267e-07
7.5608e-08
-6.58686e-09
-7.49659e-08
-1.3104e-07
-1.76178e-07
-2.11668e-07
-2.38695e-07
-2.58313e-07
-2.71489e-07
-2.79138e-07
-2.82074e-07
-2.81008e-07
-2.76593e-07
-2.6941e-07
-2.60001e-07
-2.48821e-07
-2.36217e-07
-2.22577e-07
-2.0825e-07
-1.93455e-07
-1.78376e-07
-1.63357e-07
-1.48368e-07
-1.3382e-07
-1.1926e-07
-1.0585e-07
-9.15957e-08
-8.03367e-08
-6.52924e-08
-5.81562e-08
-3.92771e-08
-4.15167e-08
-1.11528e-08
-3.35805e-08
2.36648e-08
-3.97438e-08
7.16453e-08
-6.65068e-08
1.38865e-07
-1.17195e-07
2.25509e-07
-1.84986e-07
3.18709e-07
-2.46716e-07
3.87885e-07
-2.64457e-07
3.95792e-07
-2.06831e-07
3.26581e-07
-8.06141e-08
2.2028e-07
4.19627e-08
1.80637e-07
3.73279e-08
3.33378e-07
-2.12315e-07
7.55803e-07
0.000125078
0.000122041
0.000118531
0.000114724
0.000110628
0.000106301
0.000101811
9.72165e-05
9.25678e-05
8.79085e-05
8.32766e-05
7.8704e-05
7.42175e-05
6.98389e-05
6.55857e-05
6.14714e-05
5.75064e-05
5.3698e-05
5.0051e-05
4.65682e-05
4.32506e-05
4.00975e-05
3.71074e-05
3.42775e-05
3.16045e-05
2.90845e-05
2.67132e-05
2.44861e-05
2.23984e-05
2.04453e-05
1.86219e-05
1.69231e-05
1.53438e-05
1.38789e-05
1.25229e-05
1.12705e-05
1.01162e-05
9.05447e-06
8.07989e-06
7.18712e-06
6.37094e-06
5.62631e-06
4.94838e-06
4.33147e-06
3.77355e-06
3.27061e-06
2.81509e-06
2.40556e-06
2.03881e-06
1.71124e-06
1.41966e-06
1.16114e-06
9.32895e-07
7.32324e-07
5.56988e-07
4.04609e-07
2.73038e-07
1.60269e-07
6.44536e-08
-1.61325e-08
-8.3102e-08
-1.37941e-07
-1.8201e-07
-2.16572e-07
-2.42791e-07
-2.61711e-07
-2.74292e-07
-2.81432e-07
-2.83932e-07
-2.82496e-07
-2.77771e-07
-2.70332e-07
-2.60703e-07
-2.49336e-07
-2.36587e-07
-2.22834e-07
-2.08404e-07
-1.93529e-07
-1.78397e-07
-1.63327e-07
-1.48296e-07
-1.33722e-07
-1.19142e-07
-1.05723e-07
-9.14739e-08
-8.01977e-08
-6.51706e-08
-5.80415e-08
-3.91822e-08
-4.13913e-08
-1.11005e-08
-3.34633e-08
2.36725e-08
-3.9629e-08
7.16041e-08
-6.63611e-08
1.38782e-07
-1.17028e-07
2.25435e-07
-1.84841e-07
3.18647e-07
-2.46612e-07
3.87889e-07
-2.64483e-07
3.95854e-07
-2.06916e-07
3.26675e-07
-8.07162e-08
2.20323e-07
4.19362e-08
1.80562e-07
3.72774e-08
3.33664e-07
-2.12799e-07
7.57258e-07
0.000116786
0.000114422
0.000111551
0.000108329
0.000104775
0.000100951
9.69263e-05
9.27611e-05
8.85077e-05
8.42118e-05
7.99134e-05
7.56465e-05
7.14397e-05
6.73167e-05
6.32968e-05
5.93954e-05
5.56244e-05
5.19927e-05
4.85066e-05
4.51703e-05
4.19859e-05
3.89541e-05
3.60743e-05
3.33449e-05
3.07632e-05
2.83264e-05
2.60307e-05
2.38722e-05
2.18469e-05
1.99504e-05
1.81782e-05
1.65258e-05
1.49883e-05
1.3561e-05
1.22389e-05
1.10168e-05
9.88976e-06
8.85244e-06
7.89974e-06
7.02658e-06
6.22798e-06
5.49912e-06
4.83533e-06
4.23115e-06
3.68462e-06
3.19185e-06
2.74551e-06
2.34417e-06
1.98475e-06
1.66372e-06
1.37799e-06
1.12467e-06
9.01052e-07
7.04586e-07
5.32889e-07
3.83728e-07
2.54998e-07
1.44734e-07
5.11202e-08
-2.75404e-08
-9.28249e-08
-1.4619e-07
-1.88979e-07
-2.2243e-07
-2.47685e-07
-2.65775e-07
-2.77644e-07
-2.84174e-07
-2.86152e-07
-2.84275e-07
-2.79178e-07
-2.7143e-07
-2.61538e-07
-2.49951e-07
-2.37029e-07
-2.23136e-07
-2.08585e-07
-1.93618e-07
-1.78419e-07
-1.63289e-07
-1.48211e-07
-1.33606e-07
-1.19004e-07
-1.05571e-07
-9.13267e-08
-8.00324e-08
-6.50288e-08
-5.78931e-08
-3.90738e-08
-4.12307e-08
-1.10485e-08
-3.32959e-08
2.36514e-08
-3.94338e-08
7.14909e-08
-6.60923e-08
1.3857e-07
-1.16679e-07
2.25157e-07
-1.84453e-07
3.18327e-07
-2.46233e-07
3.87614e-07
-2.64242e-07
3.95675e-07
-2.06808e-07
3.26611e-07
-8.07206e-08
2.20293e-07
4.19376e-08
1.80458e-07
3.72607e-08
3.33913e-07
-2.13193e-07
7.58695e-07
0.000107114
0.000105588
0.00010349
0.000100937
9.79994e-05
9.47474e-05
9.12532e-05
8.75785e-05
8.37779e-05
7.98994e-05
7.5985e-05
7.20708e-05
6.81874e-05
6.43607e-05
6.06117e-05
5.69579e-05
5.34129e-05
4.99874e-05
4.66893e-05
4.35243e-05
4.04959e-05
3.76063e-05
3.48559e-05
3.22443e-05
2.977e-05
2.74309e-05
2.52241e-05
2.31465e-05
2.11946e-05
1.93648e-05
1.7653e-05
1.60551e-05
1.4567e-05
1.31841e-05
1.1902e-05
1.07159e-05
9.62101e-06
8.6126e-06
7.68583e-06
6.83592e-06
6.05817e-06
5.34802e-06
4.70102e-06
4.11194e-06
3.57893e-06
3.09823e-06
2.66279e-06
2.27119e-06
1.92047e-06
1.60723e-06
1.32844e-06
1.0813e-06
8.6318e-07
6.71597e-07
5.04227e-07
3.58891e-07
2.33536e-07
1.2625e-07
3.52528e-08
-4.11154e-08
-1.04394e-07
-1.56005e-07
-1.97271e-07
-2.29401e-07
-2.5351e-07
-2.70612e-07
-2.81635e-07
-2.87438e-07
-2.88795e-07
-2.86392e-07
-2.80851e-07
-2.72733e-07
-2.6253e-07
-2.50683e-07
-2.37553e-07
-2.23492e-07
-2.08799e-07
-1.93722e-07
-1.78442e-07
-1.63242e-07
-1.48111e-07
-1.33467e-07
-1.18842e-07
-1.05392e-07
-9.11513e-08
-7.98344e-08
-6.48645e-08
-5.77034e-08
-3.89548e-08
-4.10203e-08
-1.10099e-08
-3.3051e-08
2.35689e-08
-3.91067e-08
7.12393e-08
-6.56072e-08
1.38109e-07
-1.15998e-07
2.24497e-07
-1.83608e-07
3.1751e-07
-2.45319e-07
3.86794e-07
-2.63475e-07
3.95015e-07
-2.06303e-07
3.26233e-07
-8.05239e-08
2.20134e-07
4.19876e-08
1.80314e-07
3.73016e-08
3.34052e-07
-2.13344e-07
7.59923e-07
9.63989e-05
9.57239e-05
9.44208e-05
9.25981e-05
9.03371e-05
8.77178e-05
8.48124e-05
8.1684e-05
7.83894e-05
7.49787e-05
7.14959e-05
6.79791e-05
6.44611e-05
6.09698e-05
5.75283e-05
5.41559e-05
5.08683e-05
4.76779e-05
4.45946e-05
4.16255e-05
3.87759e-05
3.60493e-05
3.34476e-05
3.09715e-05
2.86206e-05
2.63939e-05
2.42895e-05
2.23051e-05
2.04379e-05
1.8685e-05
1.70429e-05
1.55082e-05
1.40771e-05
1.27456e-05
1.15098e-05
1.03653e-05
9.30786e-06
8.33304e-06
7.43642e-06
6.61357e-06
5.8601e-06
5.17174e-06
4.54432e-06
3.97284e-06
3.45557e-06
2.98898e-06
2.56626e-06
2.18602e-06
1.84546e-06
1.54129e-06
1.2706e-06
1.03068e-06
8.18975e-07
6.33087e-07
4.70768e-07
3.29899e-07
2.08484e-07
1.0467e-07
1.67258e-08
-5.6963e-08
-1.17895e-07
-1.67459e-07
-2.06945e-07
-2.37531e-07
-2.60304e-07
-2.76253e-07
-2.86287e-07
-2.91241e-07
-2.91872e-07
-2.88854e-07
-2.82796e-07
-2.74244e-07
-2.63679e-07
-2.5153e-07
-2.38157e-07
-2.23898e-07
-2.09042e-07
-1.93837e-07
-1.78459e-07
-1.6318e-07
-1.47989e-07
-1.33302e-07
-1.1865e-07
-1.0518e-07
-9.09393e-08
-7.96052e-08
-6.4662e-08
-5.74864e-08
-3.87931e-08
-4.08003e-08
-1.09153e-08
-3.28237e-08
2.35697e-08
-3.88453e-08
7.11244e-08
-6.52672e-08
1.37871e-07
-1.1557e-07
2.24167e-07
-1.83141e-07
3.17137e-07
-2.44888e-07
3.86482e-07
-2.63218e-07
3.9484e-07
-2.06243e-07
3.26216e-07
-8.06236e-08
2.20177e-07
4.18688e-08
1.80317e-07
3.71306e-08
3.3456e-07
-2.14064e-07
7.62089e-07
8.49871e-05
8.51555e-05
8.46581e-05
8.35917e-05
8.20419e-05
8.00899e-05
7.78083e-05
7.52614e-05
7.25074e-05
6.95981e-05
6.65793e-05
6.34911e-05
6.03681e-05
5.72403e-05
5.41327e-05
5.10667e-05
4.80599e-05
4.51266e-05
4.22784e-05
3.95242e-05
3.6871e-05
3.43236e-05
3.18855e-05
2.95587e-05
2.7344e-05
2.52415e-05
2.32502e-05
2.13688e-05
1.95954e-05
1.79275e-05
1.63627e-05
1.4898e-05
1.35301e-05
1.22558e-05
1.10714e-05
9.97331e-06
8.95754e-06
8.02016e-06
7.1572e-06
6.36457e-06
5.63824e-06
4.97427e-06
4.36873e-06
3.81695e-06
3.31732e-06
2.86656e-06
2.45805e-06
2.09054e-06
1.76136e-06
1.46737e-06
1.20576e-06
9.73923e-07
7.69406e-07
5.89902e-07
4.33241e-07
2.97378e-07
1.80385e-07
8.04629e-08
-4.05916e-09
-7.47416e-08
-1.33039e-07
-1.80306e-07
-2.17794e-07
-2.46649e-07
-2.67923e-07
-2.82579e-07
-2.91502e-07
-2.95503e-07
-2.9532e-07
-2.91612e-07
-2.84973e-07
-2.75933e-07
-2.64963e-07
-2.52478e-07
-2.3883e-07
-2.24348e-07
-2.09308e-07
-1.9396e-07
-1.78472e-07
-1.63106e-07
-1.4785e-07
-1.33114e-07
-1.18432e-07
-1.04941e-07
-9.06965e-08
-7.93483e-08
-6.44281e-08
-5.72436e-08
-3.85989e-08
-4.05652e-08
-1.07827e-08
-3.25958e-08
2.36198e-08
-3.86075e-08
7.10824e-08
-6.49907e-08
1.37744e-07
-1.1526e-07
2.23998e-07
-1.8285e-07
3.16979e-07
-2.44691e-07
3.8642e-07
-2.63218e-07
3.94914e-07
-2.06424e-07
3.26403e-07
-8.09124e-08
2.20365e-07
4.16034e-08
1.8046e-07
3.67745e-08
3.35348e-07
-2.15173e-07
7.64914e-07
7.29866e-05
7.40027e-05
7.43203e-05
7.4029e-05
7.32124e-05
7.19515e-05
7.03189e-05
6.83795e-05
6.61924e-05
6.38109e-05
6.12821e-05
5.86479e-05
5.59446e-05
5.32038e-05
5.04529e-05
4.77148e-05
4.50092e-05
4.23521e-05
3.97571e-05
3.72347e-05
3.47935e-05
3.24401e-05
3.01792e-05
2.80143e-05
2.59474e-05
2.39798e-05
2.21115e-05
2.03423e-05
1.86709e-05
1.70959e-05
1.56154e-05
1.4227e-05
1.29283e-05
1.17165e-05
1.05886e-05
9.54125e-06
8.57124e-06
7.67503e-06
6.84907e-06
6.08972e-06
5.3933e-06
4.75619e-06
4.1748e-06
3.64474e-06
3.16458e-06
2.73128e-06
2.33846e-06
1.98501e-06
1.6684e-06
1.38565e-06
1.13407e-06
9.11164e-07
7.14594e-07
5.42146e-07
3.91738e-07
2.61407e-07
1.49302e-07
5.36857e-08
-2.70496e-08
-9.44058e-08
-1.4979e-07
-1.94515e-07
-2.29793e-07
-2.56732e-07
-2.76348e-07
-2.89574e-07
-2.97267e-07
-3.00214e-07
-2.9913e-07
-2.94658e-07
-2.87376e-07
-2.77797e-07
-2.66379e-07
-2.53522e-07
-2.3957e-07
-2.24839e-07
-2.09598e-07
-1.94091e-07
-1.78482e-07
-1.63019e-07
-1.47692e-07
-1.32904e-07
-1.18189e-07
-1.04673e-07
-9.04238e-08
-7.90618e-08
-6.41655e-08
-5.69713e-08
-3.83787e-08
-4.03045e-08
-1.06285e-08
-3.23432e-08
2.36842e-08
-3.83439e-08
7.10446e-08
-6.46858e-08
1.3761e-07
-1.14915e-07
2.23806e-07
-1.82522e-07
3.1679e-07
-2.44462e-07
3.86331e-07
-2.63202e-07
3.94983e-07
-2.06627e-07
3.26622e-07
-8.12681e-08
2.20623e-07
4.12279e-08
1.8072e-07
3.62735e-08
3.36315e-07
-2.16479e-07
7.6811e-07
6.05192e-05
6.23869e-05
6.35247e-05
6.40169e-05
6.39452e-05
6.33895e-05
6.24221e-05
6.11079e-05
5.95066e-05
5.76722e-05
5.56532e-05
5.34926e-05
5.12284e-05
4.8894e-05
4.65182e-05
4.41261e-05
4.17388e-05
3.93745e-05
3.70481e-05
3.47723e-05
3.2557e-05
3.04105e-05
2.8339e-05
2.63473e-05
2.44388e-05
2.26158e-05
2.08796e-05
1.92308e-05
1.76692e-05
1.61941e-05
1.48043e-05
1.34984e-05
1.22743e-05
1.11301e-05
1.00631e-05
9.07081e-06
8.15039e-06
7.29888e-06
6.51313e-06
5.78995e-06
5.12606e-06
4.51821e-06
3.96314e-06
3.45674e-06
2.99781e-06
2.58356e-06
2.20786e-06
1.86973e-06
1.56685e-06
1.29636e-06
1.05572e-06
8.42573e-07
6.54682e-07
4.89945e-07
3.4637e-07
2.22083e-07
1.15316e-07
2.44088e-08
-5.21827e-08
-1.15901e-07
-1.68104e-07
-2.10052e-07
-2.42911e-07
-2.67754e-07
-2.85558e-07
-2.97219e-07
-3.03566e-07
-3.05359e-07
-3.03289e-07
-2.97983e-07
-2.89997e-07
-2.79829e-07
-2.67921e-07
-2.54657e-07
-2.40371e-07
-2.25369e-07
-2.09907e-07
-1.94227e-07
-1.78485e-07
-1.62917e-07
-1.47513e-07
-1.32669e-07
-1.17918e-07
-1.04377e-07
-9.01208e-08
-7.87453e-08
-6.38739e-08
-5.66693e-08
-3.8133e-08
-4.00169e-08
-1.0454e-08
-3.20638e-08
2.37601e-08
-3.80503e-08
7.10055e-08
-6.43449e-08
1.37458e-07
-1.14524e-07
2.23575e-07