/*--------------------------------*- C++ -*----------------------------------*\
| =========                 |                                                 |
| \\      /  F ield         | OpenFOAM: The Open Source CFD Toolbox           |
|  \\    /   O peration     | Version:  2412                                  |
|   \\  /    A nd           | Website:  www.openfoam.com                      |
|    \\/     M anipulation  |                                                 |
\*---------------------------------------------------------------------------*/
FoamFile
{
    version     2.0;
    format      ascii;
    arch        "LSB;label=32;scalar=64";
    class       surfaceScalarField;
    location    "21";
    object      phi;
}
// * * * * * * * * * * * * * * * * * * * * * * * * * * * * * * * * * * * * * //

dimensions      [0 3 -1 0 0 0 0];

oriented        oriented;

internalField   nonuniform List<scalar> 
126304
(
0.00505063
1.28937e-07
-7.08002e-12
0.00505025
3.76203e-07
-1.13232e-11
0.00504964
6.10634e-07
-7.00757e-12
0.00504881
8.32977e-07
7.54372e-12
0.00504776
1.04354e-06
3.33782e-11
0.00504652
1.24618e-06
6.5678e-11
0.00504506
1.4538e-06
8.52612e-11
0.00504338
1.68948e-06
5.56703e-11
0.0050414
1.97966e-06
-6.59355e-11
0.00503905
2.34206e-06
-3.06977e-10
0.00503628
2.77493e-06
-6.59041e-10
0.00503303
3.25391e-06
-1.0708e-09
0.00502929
3.73781e-06
-1.45866e-09
0.00502511
4.18049e-06
-1.73021e-09
0.00502057
4.54334e-06
-1.81001e-09
0.00501577
4.80377e-06
-1.65818e-09
0.00501081
4.95791e-06
-1.27684e-09
0.00500579
5.01802e-06
-7.04507e-10
0.00500079
5.0068e-06
-2.76172e-12
0.00499584
4.95094e-06
7.58942e-10
0.00499096
4.8758e-06
1.51619e-09
0.00498615
4.80199e-06
2.21812e-09
0.00498141
4.74398e-06
2.83104e-09
0.00497669
4.71017e-06
3.33813e-09
0.00497199
4.70401e-06
3.7365e-09
0.00496726
4.72535e-06
4.03299e-09
0.00496248
4.77186e-06
4.24015e-09
0.00495764
4.84014e-06
4.3729e-09
0.0049527
4.92655e-06
4.44623e-09
0.00494767
5.02772e-06
4.47391e-09
0.00494253
5.14077e-06
4.46759e-09
0.00493726
5.26341e-06
4.43651e-09
0.00493186
5.39392e-06
4.38771e-09
0.00492633
5.53107e-06
4.32631e-09
0.00492065
5.67401e-06
4.25597e-09
0.00491482
5.82218e-06
4.17913e-09
0.00490884
5.97525e-06
4.09735e-09
0.0049027
6.13302e-06
4.01161e-09
0.00489641
6.2954e-06
3.92259e-09
0.00488994
6.46234e-06
3.83084e-09
0.0048833
6.63385e-06
3.73666e-09
0.00487649
6.80995e-06
3.6402e-09
0.00486949
6.99067e-06
3.54151e-09
0.00486231
7.17603e-06
3.44066e-09
0.00485495
7.36609e-06
3.33779e-09
0.00484738
7.56088e-06
3.23307e-09
0.00483962
7.76045e-06
3.1266e-09
0.00483165
7.96485e-06
3.01855e-09
0.00482347
8.17413e-06
2.90906e-09
0.00481508
8.38839e-06
2.79836e-09
0.00480647
8.60776e-06
2.68669e-09
0.00479764
8.83255e-06
2.5742e-09
0.00478857
9.06358e-06
2.46105e-09
0.00477926
9.30319e-06
2.34742e-09
9.55807e-06
0.0047697
2.23315e-09
0.00505063
2.57781e-07
0.00505025
7.52123e-07
0.00504964
1.22083e-06
0.00504881
1.66537e-06
0.00504777
2.0864e-06
0.00504652
2.49156e-06
0.00504507
2.90653e-06
0.00504338
3.37725e-06
0.0050414
3.95641e-06
0.00503907
4.67939e-06
0.0050363
5.54292e-06
0.00503305
6.4986e-06
0.00502933
7.46454e-06
0.00502516
8.34888e-06
0.00502063
9.07458e-06
0.00501584
9.59646e-06
0.00501089
9.9066e-06
0.00500588
1.00292e-05
0.00500087
1.00094e-05
0.00499592
9.90011e-06
0.00499105
9.75192e-06
0.00498624
9.60592e-06
0.0049815
9.49097e-06
0.00497678
9.42396e-06
0.00497207
9.4118e-06
0.00496735
9.4543e-06
0.00496257
9.54688e-06
0.00495773
9.68282e-06
0.0049528
9.85494e-06
0.00494777
1.00565e-05
0.00494263
1.02818e-05
0.00493737
1.05263e-05
0.00493197
1.07865e-05
0.00492645
1.106e-05
0.00492077
1.13451e-05
0.00491496
1.16407e-05
0.00490899
1.1946e-05
0.00490286
1.22608e-05
0.00489657
1.25848e-05
0.00489011
1.29179e-05
0.00488349
1.32601e-05
0.00487669
1.36114e-05
0.0048697
1.39719e-05
0.00486254
1.43417e-05
0.00485518
1.47208e-05
0.00484763
1.51094e-05
0.00483989
1.55074e-05
0.00483194
1.59151e-05
0.00482378
1.63324e-05
0.00481541
1.67596e-05
0.00480682
1.71969e-05
0.00479801
1.7645e-05
0.00478896
1.81053e-05
0.00477969
1.85824e-05
1.90891e-05
0.00477015
0.00505063
3.86455e-07
0.00505025
1.1275e-06
0.00504964
1.83015e-06
0.00504881
2.49659e-06
0.00504777
3.12781e-06
0.00504653
3.73519e-06
0.00504508
4.35695e-06
0.00504339
5.06151e-06
0.00504142
5.92752e-06
0.00503909
7.00801e-06
0.00503634
8.2985e-06
0.00503311
9.72723e-06
0.0050294
1.11723e-05
0.00502525
1.24968e-05
0.00502074
1.35855e-05
0.00501597
1.43705e-05
0.00501104
1.48396e-05
0.00500604
1.50283e-05
0.00500104
1.50035e-05
0.0049961
1.48441e-05
0.00499122
1.46255e-05
0.00498642
1.44091e-05
0.00498167
1.42382e-05
0.00497696
1.41381e-05
0.00497225
1.41195e-05
0.00496752
1.41822e-05
0.00496275
1.43196e-05
0.00495791
1.45218e-05
0.00495299
1.4778e-05
0.00494797
1.50784e-05
0.00494283
1.54143e-05
0.00493758
1.57791e-05
0.0049322
1.61676e-05
0.00492669
1.6576e-05
0.00492103
1.70018e-05
0.00491523
1.74435e-05
0.00490927
1.78998e-05
0.00490316
1.83702e-05
0.00489689
1.88543e-05
0.00489046
1.93521e-05
0.00488386
1.98635e-05
0.00487708
2.03886e-05
0.00487012
2.09273e-05
0.00486298
2.14799e-05
0.00485566
2.20463e-05
0.00484814
2.26268e-05
0.00484043
2.32213e-05
0.00483251
2.38301e-05
0.00482439
2.44533e-05
0.00481606
2.5091e-05
0.00480751
2.57437e-05
0.00479875
2.64122e-05
0.00478975
2.70986e-05
0.00478053
2.78091e-05
2.85617e-05
0.00477105
0.00505063
5.14874e-07
0.00505025
1.50206e-06
0.00504965
2.43818e-06
0.00504882
3.32604e-06
0.00504778
4.16706e-06
0.00504654
4.97622e-06
0.00504509
5.80392e-06
0.00504341
6.74056e-06
0.00504145
7.89032e-06
0.00503913
9.32383e-06
0.00503639
1.10359e-05
0.00503319
1.29324e-05
0.00502951
1.48524e-05
0.00502539
1.66148e-05
0.00502091
1.80666e-05
0.00501616
1.91173e-05
0.00501125
1.97495e-05
0.00500627
2.00094e-05
0.00500129
1.9985e-05
0.00499635
1.97803e-05
0.00499149
1.94952e-05
0.00498668
1.9211e-05
0.00498194
1.89854e-05
0.00497722
1.88525e-05
0.00497251
1.88267e-05
0.00496779
1.89083e-05
0.00496302
1.90886e-05
0.00495819
1.93548e-05
0.00495327
1.96929e-05
0.00494826
2.00897e-05
0.00494314
2.0534e-05
0.0049379
2.10168e-05
0.00493254
2.15313e-05
0.00492704
2.20726e-05
0.00492141
2.26371e-05
0.00491563
2.32227e-05
0.0049097
2.38279e-05
0.00490362
2.44519e-05
0.00489738
2.50942e-05
0.00489098
2.57546e-05
0.00488441
2.6433e-05
0.00487767
2.71295e-05
0.00487075
2.78441e-05
0.00486365
2.8577e-05
0.00485637
2.93281e-05
0.0048489
3.00977e-05
0.00484123
3.08858e-05
0.00483337
3.16927e-05
0.00482531
3.25183e-05
0.00481703
3.33631e-05
0.00480855
3.42273e-05
0.00479985
3.5112e-05
0.00479093
3.60196e-05
0.00478178
3.69574e-05
3.79466e-05
0.0047724
0.00505063
6.42958e-07
0.00505026
1.87554e-06
0.00504965
3.04448e-06
0.00504882
4.15314e-06
0.00504779
5.20342e-06
0.00504655
6.21377e-06
0.00504511
7.24631e-06
0.00504343
8.41278e-06
0.00504148
9.84232e-06
0.00503918
1.16231e-05
0.00503647
1.37499e-05
0.00503329
1.61072e-05
0.00502965
1.84968e-05
0.00502557
2.06941e-05
0.00502113
2.25093e-05
0.00501642
2.38286e-05
0.00501154
2.46292e-05
0.00500658
2.4967e-05
0.00500161
2.49497e-05
0.00499669
2.47059e-05
0.00499182
2.4359e-05
0.00498702
2.40103e-05
0.00498228
2.37319e-05
0.00497756
2.35664e-05
0.00497286
2.35326e-05
0.00496814
2.36312e-05
0.00496337
2.3852e-05
0.00495855
2.41795e-05
0.00495364
2.45964e-05
0.00494865
2.50867e-05
0.00494354
2.56363e-05
0.00493833
2.62343e-05
0.00493299
2.68719e-05
0.00492752
2.75431e-05
0.00492191
2.82436e-05
0.00491616
2.89705e-05
0.00491027
2.9722e-05
0.00490422
3.04969e-05
0.00489802
3.12946e-05
0.00489166
3.21148e-05
0.00488514
3.29574e-05
0.00487844
3.38223e-05
0.00487158
3.47097e-05
0.00486454
3.56195e-05
0.00485731
3.6552e-05
0.0048499
3.75071e-05
0.0048423
3.8485e-05
0.00483451
3.94858e-05
0.00482652
4.05096e-05
0.00481833
4.15567e-05
0.00480993
4.26275e-05
0.00480132
4.37229e-05
0.00479249
4.48454e-05
0.00478344
4.60025e-05
4.72161e-05
0.00477418
0.00505063
7.70632e-07
0.00505026
2.24765e-06
0.00504965
3.64862e-06
0.00504883
4.97731e-06
0.0050478
6.23618e-06
0.00504656
7.44698e-06
0.00504513
8.68303e-06
0.00504346
1.00766e-05
0.00504152
1.17812e-05
0.00503924
1.39025e-05
0.00503656
1.64358e-05
0.00503342
1.92458e-05
0.00502982
2.20984e-05
0.00502579
2.47272e-05
0.00502139
2.69057e-05
0.00501672
2.84973e-05
0.00501188
2.94726e-05
0.00500695
2.98959e-05
0.005002
2.98937e-05
0.00499709
2.96179e-05
0.00499224
2.9215e-05
0.00498744
2.88057e-05
0.0049827
2.84764e-05
0.00497798
2.82787e-05
0.00497328
2.82357e-05
0.00496856
2.83492e-05
0.00496381
2.86076e-05
0.00495899
2.8993e-05
0.0049541
2.94852e-05
0.00494913
3.00652e-05
0.00494405
3.07166e-05
0.00493885
3.1426e-05
0.00493354
3.21834e-05
0.0049281
3.29812e-05
0.00492253
3.38144e-05
0.00491682
3.46793e-05
0.00491097
3.55737e-05
0.00490497
3.64961e-05
0.00489882
3.74459e-05
0.00489251
3.84225e-05
0.00488605
3.94257e-05
0.00487941
4.04554e-05
0.00487261
4.15117e-05
0.00486564
4.25945e-05
0.00485848
4.3704e-05
0.00485115
4.48402e-05
0.00484363
4.60031e-05
0.00483593
4.71929e-05
0.00482803
4.84095e-05
0.00481993
4.96533e-05
0.00481163
5.09245e-05
0.00480313
5.22239e-05
0.00479442
5.35537e-05
0.00478551
5.49203e-05
5.63436e-05
0.00477638
0.00505063
8.97773e-07
0.00505026
2.61817e-06
0.00504966
4.25018e-06
0.00504884
5.79796e-06
0.00504781
7.26461e-06
0.00504658
8.67497e-06
0.00504515
1.0113e-05
0.0050435
1.17306e-05
0.00504157
1.3705e-05
0.00503932
1.6159e-05
0.00503666
1.90896e-05
0.00503357
2.23432e-05
0.00503001
2.56514e-05
0.00502603
2.87076e-05
0.00502169
3.12494e-05
0.00501707
3.31171e-05
0.00501227
3.42738e-05
0.00500737
3.47911e-05
0.00500245
3.48129e-05
0.00499756
3.45132e-05
0.00499271
3.40606e-05
0.00498792
3.35951e-05
0.00498318
3.32171e-05
0.00497847
3.29876e-05
0.00497377
3.29341e-05
0.00496906
3.30599e-05
0.00496432
3.33527e-05
0.00495952
3.37921e-05
0.00495465
3.43555e-05
0.00494969
3.5021e-05
0.00494464
3.57699e-05
0.00493948
3.65867e-05
0.0049342
3.74597e-05
0.0049288
3.83802e-05
0.00492328
3.93421e-05
0.00491761
4.03411e-05
0.00491181
4.13746e-05
0.00490587
4.24409e-05
0.00489978
4.35387e-05
0.00489353
4.46676e-05
0.00488713
4.58273e-05
0.00488057
4.70174e-05
0.00487384
4.82381e-05
0.00486695
4.94891e-05
0.00485988
5.07707e-05
0.00485264
5.20826e-05
0.00484522
5.3425e-05
0.00483761
5.47979e-05
0.00482982
5.62013e-05
0.00482184
5.76351e-05
0.00481366
5.90997e-05
0.00480529
6.05954e-05
0.00479672
6.21237e-05
0.00478795
6.36885e-05
0.00477899
6.53011e-05
0.00477013
-4.26942e-07
2.12644e-09
0.00477003
1.00396e-07
2.03218e-09
0.00476937
6.58174e-07
1.96558e-09
0.00476811
1.25539e-06
1.87999e-09
0.00476621
1.89298e-06
1.78549e-09
0.00476364
2.57459e-06
1.68512e-09
0.00476033
3.30416e-06
1.57862e-09
0.00475624
4.08609e-06
1.46584e-09
0.00475132
4.92527e-06
1.34652e-09
0.00474549
5.82718e-06
1.22042e-09
0.00473869
6.79796e-06
1.08733e-09
0.00473085
7.84445e-06
9.47046e-10
0.00472187
8.97431e-06
7.9924e-10
0.00471167
1.01962e-05
6.44325e-10
0.00470015
1.15196e-05
4.78622e-10
0.0046872
1.29557e-05
3.07102e-10
0.00467268
1.45166e-05
1.16737e-10
0.00465646
1.62166e-05
-7.77241e-11
0.00463839
1.80717e-05
-2.68589e-10
0.00461829
2.01e-05
-4.70117e-10
0.00459597
2.23227e-05
-6.7264e-10
0.00457121
2.47639e-05
-8.82268e-10
0.00454376
2.74516e-05
-1.09529e-09
0.00451334
3.04188e-05
-1.30994e-09
0.00447964
3.37039e-05
-1.52475e-09
0.00444229
3.73521e-05
-1.73803e-09
0.00440087
4.14174e-05
-1.94819e-09
0.00435491
4.59639e-05
-2.15396e-09
0.00430384
5.10685e-05
-2.35391e-09
0.00424702
5.68242e-05
-2.54681e-09
0.00418368
6.33435e-05
-2.73213e-09
0.00411292
7.07636e-05
-2.90955e-09
0.00403367
7.92523e-05
-3.07918e-09
0.00394466
8.90153e-05
-3.24174e-09
0.00384436
0.000100304
-3.39802e-09
0.00373094
0.000113424
-3.54912e-09
0.0036022
0.00012874
-3.69659e-09
0.00345553
0.000146678
-3.84188e-09
0.00328783
0.000167706
-3.98625e-09
0.00309554
0.000192293
-4.13114e-09
0.00287472
0.000220817
-4.27811e-09
0.00262135
0.000253384
-4.42781e-09
0.00233182
0.000289533
-4.57848e-09
0.00200406
0.000327759
-4.72291e-09
0.00163927
0.000364797
-4.84126e-09
0.00124467
0.000394603
-4.88894e-09
0.00083761
0.000407067
-4.77932e-09
0.000451232
0.000386383
-4.36162e-09
0.000142708
0.000308528
-3.40209e-09
0.000142709
-1.577e-09
0.00476921
5.16711e-07
0.00476775
1.56527e-06
0.00476572
2.68216e-06
0.0047631
3.87398e-06
0.00475985
5.14678e-06
0.00475592
6.50755e-06
0.00475126
7.9642e-06
0.00474582
9.52554e-06
0.00473954
1.12014e-05
0.00473237
1.30028e-05
0.00472422
1.4942e-05
0.00471503
1.70327e-05
0.00470472
1.92902e-05
0.00469318
2.17318e-05
0.00468032
2.43769e-05
0.00466603
2.72473e-05
0.00465018
3.03677e-05
0.00463263
3.37665e-05
0.00461323
3.74759e-05
0.0045918
4.15323e-05
0.00456814
4.59778e-05
0.00454204
5.08608e-05
0.00451326
5.62377e-05
0.0044815
6.21743e-05
0.00444646
6.87474e-05
0.00440776
7.6048e-05
0.004365
8.41836e-05
0.00431768
9.32824e-05
0.00426525
0.000103498
0.00420706
0.000115017
0.00414234
0.000128062
0.00407019
0.000142907
0.00398956
0.000159886
0.00389917
0.000179405
0.00379751
0.000201964
0.00368277
0.000228163
0.00355279
0.000258723
0.00340499
0.000294474
0.00323637
0.00033633
0.00304347
0.000385195
0.00282251
0.000441773
0.00256967
0.000506224
0.00228164
0.000577563
0.00195667
0.000652724
0.00159631
0.00072516
0.00120806
0.000782853
0.000809401
0.000805728
0.000433137
0.000762647
0.000134371
0.000607294
0.00027708
0.00476739
4.17591e-06
0.00476322
5.74367e-06
0.00475848
7.41418e-06
0.00475316
9.19627e-06
0.00474721
1.10995e-05
0.00474058
1.31345e-05
0.00473323
1.53132e-05
0.00472511
1.76489e-05
0.00471615
2.01565e-05
0.00470631
2.28525e-05
0.00469549
2.57553e-05
0.00468364
2.88855e-05
0.00467066
3.22663e-05
0.00465647
3.59235e-05
0.00464096
3.98863e-05
0.00462402
4.41875e-05
0.00460552
4.88644e-05
0.00458533
5.39595e-05
0.00456329
5.95213e-05
0.00453921
6.56047e-05
0.00451292
7.22728e-05
0.00448418
7.95986e-05
0.00445275
8.76669e-05
0.00441835
9.65765e-05
0.00438065
0.000106443
0.0043393
0.000117403
0.00429387
0.000129618
0.00424387
0.00014328
0.00418875
0.000158619
0.00412785
0.000175912
0.00406042
0.000195495
0.00398555
0.000217773
0.0039022
0.000243242
0.0038091
0.000272503
0.00370477
0.000306289
0.00358745
0.000345484
0.00345504
0.000391134
0.00330507
0.000444441
0.00313469
0.000506709
0.00294069
0.000579203
0.0027196
0.000662863
0.00246804
0.000757784
0.00218327
0.000862334
0.0018642
0.000971791
0.00151303
0.00107633
0.00113773
0.00115816
0.000755795
0.00118766
0.000399563
0.00111888
0.000121568
0.000885289
0.000398648
0.00476471
1.18662e-05
0.0047565
1.39465e-05
0.00474776
1.6163e-05
0.00473842
1.85276e-05
0.00472847
2.10533e-05
0.00471785
2.37544e-05
0.00470652
2.6647e-05
0.00469442
2.97489e-05
0.00468149
3.30801e-05
0.00466768
3.66626e-05
0.00465292
4.05211e-05
0.00463712
4.46831e-05
0.00462021
4.91796e-05
0.00460208
5.40452e-05
0.00458265
5.93187e-05
0.00456179
6.50442e-05
0.00453939
7.12715e-05
0.00451529
7.80577e-05
0.00448934
8.54673e-05
0.00446137
9.3574e-05
0.00443118
0.000102462
0.00439855
0.00011223
0.00436323
0.00012299
0.00432493
0.000134875
0.00428333
0.00014804
0.00423807
0.000162666
0.00418872
0.000178969
0.0041348
0.000197205
0.00407573
0.00021768
0.00401089
0.000240762
0.00393949
0.000266894
0.00386065
0.00029661
0.00377333
0.00033056
0.0036763
0.000369532
0.00356812
0.000414474
0.00344708
0.000466525
0.00331119
0.00052702
0.00315816
0.000597473
0.00298538
0.000679493
0.00278998
0.000774596
0.00256904
0.000883807
0.00231984
0.00100698
0.00204053
0.00114165
0.00173099
0.00128133
0.00139437
0.00141294
0.00103915
0.00151338
0.000682363
0.00154445
0.000354499
0.00144674
0.000103413
0.00113638
0.000502061
0.00476119
2.48498e-05
0.00474771
2.74315e-05
0.00473369
3.01826e-05
0.0047191
3.3118e-05
0.0047039
3.62542e-05
0.00468804
3.96095e-05
0.00467148
4.32041e-05
0.00465417
4.70605e-05
0.00463605
5.12034e-05
0.00461705
5.56607e-05
0.00459711
6.04631e-05
0.00457615
6.56454e-05
0.00455408
7.12461e-05
0.00453082
7.73087e-05
0.00450625
8.3882e-05
0.00448028
9.10211e-05
0.00445276
9.87886e-05
0.00442356
0.000107256
0.00439252
0.000116505
0.00435947
0.000126627
0.0043242
0.000137729
0.0042865
0.000149933
0.00424611
0.000163381
0.00420275
0.00017824
0.00415608
0.000194703
0.00410575
0.000212998
0.00405132
0.000233394
0.00399232
0.000256212
0.00392817
0.000281832
0.00385822
0.000310711
0.00378171
0.000343396
0.00369778
0.000380545
0.00360538
0.000422954
0.00350334
0.000471578
0.00339025
0.00052756
0.00326452
0.000592256
0.00312431
0.00066723
0.00296756
0.000754225
0.00279201
0.000855042
0.00259533
0.000971276
0.00237531
0.00110383
0.00213022
0.00125207
0.00185942
0.00141245
0.00156418
0.00157656
0.00124888
0.00172825
0.000922485
0.00183977
0.000600725
0.00186621
0.000309234
0.00173823
8.55371e-05
0.00136007
0.000587598
0.00475691
4.43189e-05
0.00473696
4.73846e-05
0.00471649
5.06533e-05
0.00469546
5.41429e-05
0.00467384
5.78735e-05
0.00465158
6.1867e-05
0.00462864
6.61478e-05
0.00460496
7.07427e-05
0.00458048
7.56816e-05
0.00455514
8.09977e-05
0.00452888
8.67282e-05
0.00450161
9.29146e-05
0.00447325
9.96034e-05
0.00444371
0.000106847
0.00441289
0.000114704
0.00438067
0.000123241
0.00434692
0.000132534
0.00431151
0.000142668
0.00427428
0.000153742
0.00423504
0.000165866
0.0041936
0.00017917
0.00414973
0.0001938
0.00410318
0.000209928
0.00405367
0.000227755
0.00400086
0.000247513
0.00394438
0.000269477
0.0038838
0.00029397
0.00381864
0.000321376
0.00374832
0.00035215
0.00367219
0.000386835
0.00358951
0.000426079
0.0034994
0.000470657
0.00340086
0.000521498
0.00329273
0.000579704
0.00317371
0.00064658
0.00304232
0.000723643
0.00289695
0.000812606
0.00273586
0.000915314
0.00255733
0.00103357
0.00235979
0.00116881
0.00214213
0.00132149
0.00190412
0.00149008
0.00164698
0.0016696
0.0013741
0.00184944
0.00109171
0.00201063
0.00080959
0.00212189
0.000541156
0.00213464
0.000302133
0.00197726
0.000104257
0.00155795
0.000691855
0.00475194
7.13719e-05
0.00472443
7.48956e-05
0.00469642
7.86589e-05
0.00466789
8.26809e-05
0.00463878
8.69844e-05
0.00460905
9.15949e-05
0.00457866
9.65402e-05
0.00454755
0.000101852
0.00451566
0.000107564
0.00448295
0.000113716
0.00444932
0.00012035
0.00441472
0.000127516
0.00437906
0.000135268
0.00434224
0.000143667
0.00430416
0.000152782
0.00426471
0.00016269
0.00422377
0.00017348
0.00418118
0.000185253
0.0041368
0.000198123
0.00409044
0.000212221
0.00404192
0.000227698
0.00399099
0.000244726
0.00393741
0.000263506
0.0038809
0.000284273
0.00382111
0.000307299
0.00375768
0.000332907
0.00369018
0.000361473
0.00361811
0.000393443
0.00354091
0.000429348
0.00345793
0.000469814
0.00336842
0.000515587
0.00327153
0.000567555
0.00316626
0.000626765
0.00305152
0.00069445
0.00292605
0.000772041
0.00278854
0.000861162
0.00263755
0.000963587
0.00247175
0.00108112
0.00228996
0.00121536
0.00209153
0.00136724
0.00187668
0.00153634
0.00164706
0.00171969
0.00140645
0.00191021
0.00116139
0.0020945
0.000921693
0.00225033
0.00069999
0.0023436
0.000509209
0.00232543
0.000353727
0.00213274
0.000214107
0.00169757
0.000905962
-2.92079e-05
2.92088e-05
-8.8618e-10
-8.41252e-05
5.49195e-05
-2.26483e-09
-0.000144761
6.06388e-05
-3.38306e-09
-0.000199382
5.46261e-05
-4.301e-09
-0.000241445
4.2068e-05
-5.03229e-09
-0.000267544
2.61044e-05
-5.58809e-09
-0.00027607
8.53226e-06
-5.96151e-09
-0.000266954
-9.11062e-06
-6.00951e-09
-0.000240669
-2.62785e-05
-5.9337e-09
-0.000197857
-4.28063e-05
-5.60418e-09
-0.000139512
-5.83402e-05
-4.99967e-09
-6.67538e-05
-7.27544e-05
-4.12155e-09
1.91966e-05
-8.59474e-05
-2.97927e-09
0.000117073
-9.78747e-05
-1.57319e-09
0.000225617
-0.000108545
9.35056e-11
0.000343571
-0.000117956
2.01308e-09
0.000469691
-0.000126124
4.1812e-09
0.00060276
-0.000133075
6.58147e-09
0.000741598
-0.000138848
9.16645e-09
0.00088507
-0.000143484
1.19271e-08
0.00103209
-0.000147033
1.45043e-08
0.00118162
-0.000149547
1.68717e-08
0.00133268
-0.000151077
1.86128e-08
0.00148434
-0.000151679
1.97999e-08
0.00163573
-0.000151417
2.07221e-08
0.00178607
-0.000150363
2.09338e-08
0.00193464
-0.000148589
2.06794e-08
0.00208078
-0.000146162
1.99768e-08
0.00222392
-0.000143153
1.89861e-08
0.00236353
-0.000139629
1.77976e-08
0.00249917
-0.000135657
1.64678e-08
0.00263046
-0.000131304
1.50377e-08
0.00275708
-0.000126633
1.35292e-08
0.00287877
-0.000121704
1.1958e-08
0.00299533
-0.000116576
1.03366e-08
0.00310663
-0.000111303
8.67889e-09
0.00321256
-0.000105935
7.00169e-09
0.00331307
-0.000100521
5.32388e-09
0.00340817
-9.51025e-05
3.67197e-09
0.00349789
-8.97186e-05
2.0723e-09
0.00358229
-8.44043e-05
5.52485e-10
0.00366148
-7.91899e-05
-8.58004e-10
0.00373559
-7.41022e-05
-2.13554e-09
0.00380475
-6.91636e-05
-3.25985e-09
0.00386915
-6.43928e-05
-4.21459e-09
0.00392896
-5.98049e-05
-4.98859e-09
0.00398438
-5.54114e-05
-5.57673e-09
0.0040356
-5.12203e-05
-5.97741e-09
0.00408285
-4.7236e-05
-6.18971e-09
-4.34594e-05
0.00412631
-6.21564e-09
-2.56224e-05
5.48312e-05
-7.37849e-05
0.000103082
-0.000126632
0.000113486
-0.000173879
0.000101873
-0.000209585
7.77737e-05
-0.000230598
4.71178e-05
-0.000235286
1.322e-05
-0.0002237
-2.06965e-05
-0.000195979
-5.39996e-05
-0.000152656
-8.61289e-05
-9.46215e-05
-0.000116375
-2.27498e-05
-0.000144626
6.17327e-05
-0.00017043
0.000157738
-0.00019388
0.000264108
-0.000214915
0.000379664
-0.000233513
0.000503238
-0.000249698
0.000633677
-0.000263514
0.000769854
-0.000275024
0.000910678
-0.000284308
0.0010551
-0.000291455
0.00120212
-0.000296564
0.00135077
-0.000299731
0.00150016
-0.000301064
0.00164942
-0.000300684
0.00179779
-0.00029873
0.00194454
-0.000295342
0.00208904
-0.000290655
0.00223069
-0.000284805
0.00236899
-0.000277924
0.00250348
-0.000270147
0.00263377
-0.000261603
0.00275956
-0.000252418
0.00288057
-0.000242712
0.00299659
-0.000232601
0.00310748
-0.000222194
0.00321314
-0.000211591
0.0033135
-0.000200886
0.00340857
-0.000190167
0.00349836
-0.000179509
0.00358294
-0.000168983
0.0036624
-0.000158651
0.00373686
-0.000148565
0.00380647
-0.000138771
0.00387138
-0.000129307
0.00393178
-0.000120203
0.00398785
-0.000111482
0.00403979
-0.00010316
0.0040878
-9.5247e-05
-8.77428e-05
0.00413209
-1.93093e-05
7.41404e-05
-5.39434e-05
0.000137716
-9.18613e-05
0.000151404
-0.000125015
0.000135027
-0.000148625
0.000101384
-0.000160076
5.85685e-05
-0.000157475
1.06191e-05
-0.000141366
-3.68056e-05
-0.00011114
-8.42258e-05
-6.69539e-05
-0.000130315
-9.50749e-06
-0.000173821
6.02403e-05
-0.000214374
0.000141747
-0.000251937
0.000234047
-0.00028618
0.000336139
-0.000317006
0.000447011
-0.000344385
0.000565636
-0.000368322
0.000690981
-0.000388859
0.000822023
-0.000406066
0.000957755
-0.00042004
0.0010972
-0.000430899
0.00123941
-0.000438776
0.00138348
-0.000443805
0.00152855
-0.000446128
0.00167378
-0.000445917
0.00181842
-0.000443368
0.00196176
-0.000438683
0.00210316
-0.00043206
0.00224205
-0.000423694
0.00237791
-0.000413781
0.00251028
-0.000402517
0.00263877
-0.000390093
0.00276305
-0.000376694
0.00288283
-0.0003625
0.00299792
-0.000347683
0.00310813
-0.000332404
0.00321335
-0.000316814
0.00331352
-0.000301055
0.00340861
-0.000285255
0.00349863
-0.000269531
0.00358363
-0.000253988
0.0036637
-0.000238719
0.00373894
-0.000223804
0.00380948
-0.000209311
0.00387547
-0.000195299
0.00393708
-0.000181813
0.00399449
-0.00016889
0.00404788
-0.000156553
0.00409745
-0.000144817
-0.000133679
0.00414339
-8.2258e-06
8.23662e-05
-2.5021e-05
0.000154511
-4.23887e-05
0.000168771
-5.60258e-05
0.000148664
-6.30755e-05
0.000108434
-6.1715e-05
5.7208e-05
-4.93442e-05
-1.75168e-06
-2.74237e-05
-5.87261e-05
5.98131e-06
-0.000117631
5.04241e-05
-0.000174757
0.00010616
-0.000229557
0.000172892
-0.000281106
0.000249974
-0.000329019
0.000336799
-0.000373004
0.00043266
-0.000412868
0.000536778
-0.000448503
0.000648321
-0.000479866
0.000766426
-0.000506964
0.00089021
-0.00052985
0.00101878
-0.000548614
0.00115127
-0.000563382
0.00128679
-0.000574301
0.00142452
-0.00058153
0.00156363
-0.000585237
0.00170333
-0.000585621
0.00184289
-0.000582923
0.00198161
-0.000577404
0.00211886
-0.000569313
0.00225407
-0.000558901
0.00238671
-0.000546421
0.00251632
-0.000532124
0.00264248
-0.00051626
0.00276486
-0.000499073
0.00288316
-0.000480799
0.00299714
-0.000461664
0.00310662
-0.000441881
0.00321146
-0.000421653
0.00331157
-0.000401167
0.00340691
-0.000380594
0.00349747
-0.000360092
0.00358328
-0.000339802
0.00366441
-0.000319847
0.00374095
-0.000300336
0.003813
-0.000281363
0.0038807
-0.000263006
0.00394422
-0.000245326
0.0040037
-0.000228374
0.00405933
-0.000212183
0.00411129
-0.000196771
-0.000182133
0.00415974
6.20065e-06
7.61656e-05
1.22904e-05
0.000148422
2.0102e-05
0.00016096
2.94165e-05
0.000139349
4.15322e-05
9.63182e-05
5.82171e-05
4.05231e-05
7.8765e-05
-2.22996e-05
0.000107299
-8.72603e-05
0.000143406
-0.000153737
0.000188006
-0.000219358
0.000241329
-0.000282881
0.000303563
-0.00034334
0.000374636
-0.000400091
0.000454299
-0.000452668
0.000542167
-0.000500736
0.000637738
-0.000544074
0.000740418
-0.000582545
0.000849542
-0.000616089
0.000964396
-0.000644704
0.00108423
-0.000668447
0.00120827
-0.000687423
0.00133574
-0.000701776
0.00146588
-0.000711671
0.00159793
-0.000717281
0.00173113
-0.000718819
0.00186476
-0.000716556
0.00199815
-0.000710795
0.00213067
-0.000701833
0.00226174
-0.000689967
0.00239081
-0.0006755
0.00251743
-0.000658737
0.00264115
-0.000639981
0.00276161
-0.00061953
0.00287848
-0.000597675
0.00299151
-0.000574696
0.00310049
-0.000550858
0.00320525
-0.000526414
0.00330568
-0.000501597
0.00340171
-0.000476623
0.00349331
-0.00045169
0.00358048
-0.000426975
0.00366327
-0.000402636
0.00374175
-0.000378811
0.003816
-0.000355619
0.00388615
-0.000333158
0.00395234
-0.00031151
0.0040147
-0.000290738
0.00407341
-0.000270887
0.00412862
-0.000251981
-0.000234009
0.00418049
2.14685e-05
5.46971e-05
5.44717e-05
0.000115418
8.99641e-05
0.000125467
0.000124477
0.000104837
0.000157098
6.36963e-05
0.00018912
8.50115e-06
0.000219786
-5.29649e-05
0.000253478
-0.000120953
0.000291207
-0.000191467
0.000334235
-0.000262386
0.000383493
-0.000332138
0.000439644
-0.000399491
0.000503083
-0.000463531
0.000573973
-0.000523557
0.000652279
-0.000579042
0.000737803
-0.000629598
0.000830209
-0.000674951
0.000929048
-0.000714928
0.00103379
-0.00074944
0.00114382
-0.000778477
0.00125849
-0.000802093
0.00137711
-0.000820403
0.001499
-0.000833557
0.00162344
-0.00084172
0.00174972
-0.000845098
0.00187713
-0.000843974
0.00200502
-0.000838681
0.00213274
-0.000829553
0.0022597
-0.000816928
0.00238535
-0.000801149
0.00250918
-0.000782571
0.00263075
-0.000761547
0.00274965
-0.000738427
0.00286553
-0.000713556
0.0029781
-0.000687265
0.00308711
-0.000659872
0.00319238
-0.00063168
0.00329375
-0.00060297
0.00339113
-0.000574003
0.00348446
-0.00054502
0.00357372
-0.000516235
0.00365892
-0.000487841
0.00374012
-0.000460007
0.00381738
-0.00043288
0.0038908
-0.00040658
0.0039605
-0.000381211
0.00402661
-0.000356849
0.00408928
-0.000333553
0.00414865
-0.000311353
-0.000290239
0.00420488
3.93383e-05
1.53587e-05
0.000103951
5.0806e-05
0.000168271
6.11477e-05
0.000226164
4.69429e-05
0.000278103
1.17577e-05
0.000320716
-3.4112e-05
0.000359556
-9.18051e-05
0.000396477
-0.000157873
0.000433812
-0.000228802
0.000473491
-0.000302065
0.000517047
-0.000375694
0.000565666
-0.00044811
0.000620201
-0.000518066
0.000681215
-0.000584571
0.000749017
-0.000646845
0.000823704
-0.000704284
0.000905187
-0.000756434
0.000993228
-0.000802969
0.00108746
-0.000843676
0.00118743
-0.00087844
0.00129258
-0.000907241
0.00140231
-0.000930137
0.001516
-0.000947242
0.00163297
-0.000958699
0.00175257
-0.000964691
0.00187409
-0.000965493
0.00199686
-0.000961451
0.00212023
-0.00095293
0.0022436
-0.000940297
0.00236639
-0.000923936
0.00248806
-0.000904242
0.00260813
-0.000881616
0.00272616
-0.000856459
0.00284177
-0.000829166
0.00295463
-0.000800122
0.00306445
-0.000769697
0.00317102
-0.000738244
0.00327414
-0.000706095
0.0033737
-0.000673558
0.00346959
-0.000640916
0.00356178
-0.000608425
0.00365026
-0.000576315
0.00373504
-0.000544788
0.00381618
-0.000514018
0.00389375
-0.000484154
0.00396786
-0.000455317
0.00403861
-0.000427603
0.00410614
-0.000401086
0.0041706
-0.000375805
0.00423212
-0.000351765
0.00417543
-4.91112e-05
-6.09679e-09
0.00422216
-4.67262e-05
-5.89586e-09
0.00426656
-4.439e-05
-5.54298e-09
0.00430868
-4.21168e-05
-5.06031e-09
0.0043486
-3.99151e-05
-4.46845e-09
0.00438639
-3.77918e-05
-3.78521e-09
0.00442215
-3.57523e-05
-3.02597e-09
0.00445595
-3.3801e-05
-2.20723e-09
0.00448789
-3.19409e-05
-1.34498e-09
0.00451807
-3.0174e-05
-4.54358e-10
0.00454657
-2.85013e-05
4.49325e-10
0.00457349
-2.69225e-05
1.3504e-09
0.00459893
-2.54367e-05
2.23526e-09
0.00462296
-2.40418e-05
3.09392e-09
0.0046457
-2.27349e-05
3.91871e-09
0.0046672
-2.15127e-05
4.70411e-09
0.00468757
-2.03709e-05
5.44875e-09
0.00470687
-1.93049e-05
6.15449e-09
0.00472517
-1.83092e-05
6.82375e-09
0.00474254
-1.7378e-05
7.45879e-09
0.00475904
-1.6505e-05
8.06253e-09
0.00477471
-1.56834e-05
8.63762e-09
0.00478961
-1.49061e-05
9.18337e-09
0.00480376
-1.41656e-05
9.69498e-09
0.00481721
-1.34551e-05
1.01649e-08
0.00482997
-1.27681e-05
1.05829e-08
0.00484206
-1.20996e-05
1.09353e-08
0.00485349
-1.14466e-05
1.12056e-08
0.00486429
-1.08084e-05
1.13775e-08
0.00487446
-1.01867e-05
1.14364e-08
0.00488404
-9.58563e-06
1.13723e-08
0.00489304
-9.01119e-06
1.11788e-08
0.0049015
-8.46988e-06
1.08572e-08
0.00490945
-7.96774e-06
1.04152e-08
0.00491695
-7.50909e-06
9.86732e-09
0.00492404
-7.09575e-06
9.23235e-09
0.00493076
-6.72661e-06
8.5317e-09
0.00493715
-6.39794e-06
7.78789e-09
0.00494325
-6.10404e-06
7.02296e-09
0.00494908
-5.83821e-06
6.2555e-09
0.00495467
-5.59371e-06
5.4999e-09
0.00496003
-5.3646e-06
4.76751e-09
0.00496517
-5.14616e-06
4.06717e-09
0.0049701
-4.93513e-06
3.40454e-09
0.00497483
-4.72921e-06
2.79729e-09
0.00497935
-4.52781e-06
2.22407e-09
0.00498368
-4.3306e-06
1.69051e-09
0.00498782
-4.13769e-06
1.19765e-09
0.00499177
-3.94938e-06
7.47538e-10
0.00499553
-3.76605e-06
3.38505e-10
0.00499912
-3.58799e-06
-3.2749e-11
0.00500253
-3.41542e-06
-3.73551e-10
0.00500578
-3.24846e-06
-6.91885e-10
0.00500887
-3.08715e-06
-9.95425e-10
0.0050118
-2.93147e-06
-1.29479e-09
0.00501459
-2.78136e-06
-1.60033e-09
0.00501723