/*--------------------------------*- C++ -*----------------------------------*\
| =========                 |                                                 |
| \\      /  F ield         | OpenFOAM: The Open Source CFD Toolbox           |
|  \\    /   O peration     | Version:  2412                                  |
|   \\  /    A nd           | Website:  www.openfoam.com                      |
|    \\/     M anipulation  |                                                 |
\*---------------------------------------------------------------------------*/
FoamFile
{
    version     2.0;
    format      ascii;
    arch        "LSB;label=32;scalar=64";
    class       volVectorField;
    location    "21";
    object      U;
}
// * * * * * * * * * * * * * * * * * * * * * * * * * * * * * * * * * * * * * //

dimensions      [0 1 -1 0 0 0 0];

internalField   nonuniform List<vector> 
63420
(
(0.0999997 4.36455e-07 0)
(0.099995 1.29893e-06 0)
(0.0999851 2.15049e-06 0)
(0.0999708 2.99211e-06 0)
(0.0999522 3.82332e-06 0)
(0.0999295 4.65693e-06 0)
(0.0999029 5.54153e-06 0)
(0.099872 6.56921e-06 0)
(0.099836 7.85271e-06 0)
(0.0997937 9.47793e-06 0)
(0.0997434 1.14565e-05 0)
(0.0996839 1.37047e-05 0)
(0.0996147 1.60587e-05 0)
(0.099536 1.83197e-05 0)
(0.0994493 2.03064e-05 0)
(0.0993563 2.18968e-05 0)
(0.0992592 2.30471e-05 0)
(0.09916 2.37878e-05 0)
(0.0990605 2.42034e-05 0)
(0.0989617 2.44061e-05 0)
(0.0988644 2.45106e-05 0)
(0.0987686 2.46173e-05 0)
(0.0986741 2.48021e-05 0)
(0.0985806 2.51148e-05 0)
(0.0984875 2.55815e-05 0)
(0.0983942 2.62104e-05 0)
(0.0983002 2.69974e-05 0)
(0.0982051 2.79318e-05 0)
(0.0981084 2.9e-05 0)
(0.0980099 3.01888e-05 0)
(0.0979092 3.14864e-05 0)
(0.0978061 3.2884e-05 0)
(0.0977006 3.43751e-05 0)
(0.0975924 3.59558e-05 0)
(0.0974814 3.76245e-05 0)
(0.0973676 3.9381e-05 0)
(0.0972507 4.12265e-05 0)
(0.0971308 4.31632e-05 0)
(0.0970078 4.5194e-05 0)
(0.0968814 4.73221e-05 0)
(0.0967517 4.95515e-05 0)
(0.0966186 5.18862e-05 0)
(0.096482 5.43303e-05 0)
(0.0963417 5.68884e-05 0)
(0.0961977 5.95651e-05 0)
(0.0960499 6.23653e-05 0)
(0.0958982 6.52939e-05 0)
(0.0957425 6.83563e-05 0)
(0.0955828 7.1558e-05 0)
(0.0954188 7.49049e-05 0)
(0.0952505 7.84039e-05 0)
(0.0950779 8.20635e-05 0)
(0.0949007 8.58976e-05 0)
(0.0947189 8.9936e-05 0)
(0.0945323 9.42542e-05 0)
(0.0999997 1.30898e-06 0)
(0.099995 3.89571e-06 0)
(0.0999852 6.44984e-06 0)
(0.0999708 8.97432e-06 0)
(0.0999522 1.14678e-05 0)
(0.0999296 1.39685e-05 0)
(0.099903 1.66215e-05 0)
(0.0998721 1.97016e-05 0)
(0.0998362 2.35457e-05 0)
(0.0997939 2.84109e-05 0)
(0.0997437 3.43327e-05 0)
(0.0996844 4.10615e-05 0)
(0.0996153 4.81096e-05 0)
(0.0995369 5.48832e-05 0)
(0.0994503 6.08407e-05 0)
(0.0993575 6.5617e-05 0)
(0.0992606 6.90805e-05 0)
(0.0991616 7.13209e-05 0)
(0.0990622 7.25898e-05 0)
(0.0989635 7.32207e-05 0)
(0.0988662 7.35565e-05 0)
(0.0987704 7.38962e-05 0)
(0.0986759 7.44668e-05 0)
(0.0985824 7.54172e-05 0)
(0.0984893 7.68262e-05 0)
(0.098396 7.87185e-05 0)
(0.098302 8.10824e-05 0)
(0.0982069 8.38861e-05 0)
(0.0981103 8.70896e-05 0)
(0.0980118 9.06534e-05 0)
(0.0979112 9.4543e-05 0)
(0.0978082 9.87317e-05 0)
(0.0977028 0.000103201 0)
(0.0975947 0.000107938 0)
(0.0974839 0.000112939 0)
(0.0973702 0.000118203 0)
(0.0972535 0.000123734 0)
(0.0971338 0.000129537 0)
(0.0970109 0.000135623 0)
(0.0968847 0.000142001 0)
(0.0967553 0.000148681 0)
(0.0966224 0.000155677 0)
(0.096486 0.000163 0)
(0.096346 0.000170665 0)
(0.0962023 0.000178685 0)
(0.0960548 0.000187074 0)
(0.0959034 0.000195847 0)
(0.0957481 0.000205021 0)
(0.0955886 0.000214611 0)
(0.0954251 0.000224636 0)
(0.0952572 0.000235116 0)
(0.095085 0.000246075 0)
(0.0949083 0.000257555 0)
(0.094727 0.000269645 0)
(0.0945409 0.000282563 0)
(0.0999997 2.18063e-06 0)
(0.099995 6.48968e-06 0)
(0.0999852 1.07446e-05 0)
(0.0999709 1.49502e-05 0)
(0.0999523 1.91044e-05 0)
(0.0999297 2.32704e-05 0)
(0.0999031 2.76882e-05 0)
(0.0998723 3.28134e-05 0)
(0.0998364 3.92049e-05 0)
(0.0997943 4.72904e-05 0)
(0.0997443 5.71311e-05 0)
(0.0996853 6.83158e-05 0)
(0.0996166 8.00371e-05 0)
(0.0995385 9.13108e-05 0)
(0.0994524 0.000101237 0)
(0.09936 0.000109209 0)
(0.0992634 0.000115003 0)
(0.0991647 0.000118767 0)
(0.0990654 0.000120915 0)
(0.0989669 0.000121998 0)
(0.0988696 0.000122584 0)
(0.0987739 0.00012317 0)
(0.0986794 0.000124134 0)
(0.0985859 0.000125724 0)
(0.0984928 0.000128071 0)
(0.0983995 0.000131219 0)
(0.0983055 0.000135149 0)
(0.0982105 0.000139809 0)
(0.098114 0.000145133 0)
(0.0980156 0.000151056 0)
(0.0979151 0.000157522 0)
(0.0978124 0.000164486 0)
(0.0977071 0.000171916 0)
(0.0975993 0.000179794 0)
(0.0974887 0.000188111 0)
(0.0973753 0.000196865 0)
(0.097259 0.000206064 0)
(0.0971396 0.000215717 0)
(0.0970171 0.000225838 0)
(0.0968914 0.000236445 0)
(0.0967624 0.000247556 0)
(0.0966299 0.00025919 0)
(0.096494 0.000271368 0)
(0.0963545 0.000284114 0)
(0.0962114 0.000297448 0)
(0.0960645 0.000311396 0)
(0.0959138 0.000325982 0)
(0.0957591 0.000341232 0)
(0.0956004 0.000357172 0)
(0.0954376 0.000373833 0)
(0.0952705 0.000391246 0)
(0.0950992 0.000409455 0)
(0.0949234 0.000428523 0)
(0.0947431 0.00044859 0)
(0.0945581 0.000470007 0)
(0.0999997 3.05082e-06 0)
(0.099995 9.07894e-06 0)
(0.0999852 1.50317e-05 0)
(0.0999709 2.09154e-05 0)
(0.0999524 2.67277e-05 0)
(0.0999298 3.2556e-05 0)
(0.0999033 3.87329e-05 0)
(0.0998726 4.58912e-05 0)
(0.0998369 5.48085e-05 0)
(0.0997949 6.60823e-05 0)
(0.0997452 7.98025e-05 0)
(0.0996866 9.54023e-05 0)
(0.0996184 0.000111763 0)
(0.099541 0.000127516 0)
(0.0994554 0.000141409 0)
(0.0993636 0.00015259 0)
(0.0992675 0.000160745 0)
(0.0991692 0.000166071 0)
(0.0990703 0.000169138 0)
(0.0989719 0.000170711 0)
(0.0988748 0.00017158 0)
(0.0987791 0.000172435 0)
(0.0986846 0.000173804 0)
(0.0985911 0.000176035 0)
(0.0984979 0.000179314 0)
(0.0984047 0.000183704 0)
(0.0983108 0.000189182 0)
(0.0982159 0.000195676 0)
(0.0981194 0.000203097 0)
(0.0980213 0.000211355 0)
(0.097921 0.000220371 0)
(0.0978185 0.000230083 0)
(0.0977136 0.000240448 0)
(0.0976062 0.00025144 0)
(0.097496 0.000263045 0)
(0.0973831 0.000275262 0)
(0.0972672 0.000288099 0)
(0.0971483 0.000301571 0)
(0.0970264 0.000315697 0)
(0.0969013 0.0003305 0)
(0.0967729 0.000346006 0)
(0.0966412 0.000362241 0)
(0.096506 0.000379235 0)
(0.0963673 0.000397018 0)
(0.096225 0.000415621 0)
(0.096079 0.000435078 0)
(0.0959292 0.000455422 0)
(0.0957756 0.000476689 0)
(0.0956179 0.000498916 0)
(0.0954562 0.000522143 0)
(0.0952904 0.000546414 0)
(0.0951203 0.000571786 0)
(0.094946 0.000598344 0)
(0.0947671 0.000626268 0)
(0.0945837 0.000656006 0)
(0.0999997 3.91905e-06 0)
(0.0999951 1.16616e-05 0)
(0.0999852 1.93082e-05 0)
(0.099971 2.68659e-05 0)
(0.0999525 3.43325e-05 0)
(0.09993 4.18188e-05 0)
(0.0999036 4.9747e-05 0)
(0.0998729 5.8922e-05 0)
(0.0998374 7.03359e-05 0)
(0.0997957 8.47548e-05 0)
(0.0997464 0.000102301 0)
(0.0996883 0.000122261 0)
(0.0996208 0.000143214 0)
(0.0995441 0.000163419 0)
(0.0994593 0.000181273 0)
(0.0993682 0.000195684 0)
(0.0992728 0.000206238 0)
(0.099175 0.000213177 0)
(0.0990765 0.000217219 0)
(0.0989784 0.000219334 0)
(0.0988815 0.000220527 0)
(0.0987858 0.00022168 0)
(0.0986914 0.00022347 0)
(0.0985979 0.000226346 0)
(0.0985047 0.000230549 0)
(0.0984115 0.000236163 0)
(0.0983177 0.000243163 0)
(0.0982229 0.000251462 0)
(0.0981267 0.000260947 0)
(0.0980288 0.000271504 0)
(0.0979288 0.000283034 0)
(0.0978267 0.000295459 0)
(0.0977223 0.000308722 0)
(0.0976153 0.00032279 0)
(0.0975057 0.000337645 0)
(0.0973933 0.000353286 0)
(0.0972781 0.000369723 0)
(0.0971599 0.000386972 0)
(0.0970388 0.00040506 0)
(0.0969144 0.000424013 0)
(0.0967869 0.000443864 0)
(0.0966561 0.000464649 0)
(0.0965219 0.000486402 0)
(0.0963843 0.000509163 0)
(0.0962431 0.000532971 0)
(0.0960983 0.000557868 0)
(0.0959497 0.000583895 0)
(0.0957974 0.000611098 0)
(0.0956412 0.000639523 0)
(0.095481 0.00066922 0)
(0.0953168 0.000700244 0)
(0.0951484 0.000732662 0)
(0.0949758 0.000766575 0)
(0.094799 0.000802186 0)
(0.0946177 0.000840001 0)
(0.0999997 4.78494e-06 0)
(0.0999951 1.42358e-05 0)
(0.0999853 2.35711e-05 0)
(0.0999711 3.27976e-05 0)
(0.0999527 4.19137e-05 0)
(0.0999303 5.10525e-05 0)
(0.0999039 6.07221e-05 0)
(0.0998734 7.18936e-05 0)
(0.0998381 8.57682e-05 0)
(0.0997967 0.000103279 0)
(0.0997479 0.000124586 0)
(0.0996904 0.000148838 0)
(0.0996237 0.000174327 0)
(0.0995479 0.000198948 0)
(0.0994641 0.000220757 0)
(0.0993739 0.00023842 0)
(0.0992792 0.000251421 0)
(0.0991821 0.000260034 0)
(0.0990841 0.000265118 0)
(0.0989863 0.000267838 0)
(0.0988896 0.000269407 0)
(0.098794 0.000270895 0)
(0.0986997 0.000273125 0)
(0.0986061 0.000276647 0)
(0.0985131 0.000281763 0)
(0.0984199 0.000288579 0)
(0.0983262 0.000297071 0)
(0.0982316 0.000307137 0)
(0.0981356 0.000318645 0)
(0.098038 0.000331458 0)
(0.0979385 0.000345457 0)
(0.0978369 0.000360549 0)
(0.097733 0.000376664 0)
(0.0976266 0.000393761 0)
(0.0975176 0.000411818 0)
(0.097406 0.000430834 0)
(0.0972916 0.000450819 0)
(0.0971743 0.000471793 0)
(0.0970541 0.000493786 0)
(0.0969308 0.000516831 0)
(0.0968043 0.000540967 0)
(0.0966747 0.000566234 0)
(0.0965417 0.000592677 0)
(0.0964054 0.00062034 0)
(0.0962656 0.000649271 0)
(0.0961222 0.000679519 0)
(0.0959752 0.000711135 0)
(0.0958245 0.000744172 0)
(0.0956701 0.000778684 0)
(0.0955117 0.000814729 0)
(0.0953495 0.000852372 0)
(0.0951832 0.000891688 0)
(0.0950129 0.000932784 0)
(0.0948385 0.000975869 0)
(0.0946598 0.00102145 0)
(0.0999997 5.64777e-06 0)
(0.0999951 1.68003e-05 0)
(0.0999854 2.78175e-05 0)
(0.0999712 3.87063e-05 0)
(0.0999529 4.94661e-05 0)
(0.0999306 6.02508e-05 0)
(0.0999043 7.165e-05 0)
(0.099874 8.47946e-05 0)
(0.0998389 0.000101088 0)
(0.0997979 0.00012163 0)
(0.0997496 0.000146621 0)
(0.0996929 0.000175087 0)
(0.099627 0.000205045 0)
(0.0995522 0.000234041 0)
(0.0994695 0.000259798 0)
(0.0993803 0.000280737 0)
(0.0992866 0.000296237 0)
(0.0991902 0.000306596 0)
(0.0990928 0.000312798 0)
(0.0989954 0.000316193 0)
(0.0988989 0.000318197 0)
(0.0988035 0.00032006 0)
(0.0987092 0.000322752 0)
(0.0986158 0.000326924 0)
(0.0985228 0.000332938 0)
(0.0984297 0.00034093 0)
(0.0983362 0.000350876 0)
(0.0982419 0.000362667 0)
(0.0981462 0.000376148 0)
(0.098049 0.000391166 0)
(0.09795 0.000407581 0)
(0.0978489 0.000425285 0)
(0.0977457 0.000444196 0)
(0.09764 0.000464266 0)
(0.0975319 0.000485469 0)
(0.0974212 0.000507801 0)
(0.0973077 0.000531273 0)
(0.0971915 0.000555909 0)
(0.0970724 0.000581741 0)
(0.0969503 0.000608807 0)
(0.0968251 0.000637153 0)
(0.0966968 0.000666823 0)
(0.0965653 0.00069787 0)
(0.0964305 0.000730344 0)
(0.0962923 0.0007643 0)
(0.0961507 0.000799794 0)
(0.0960055 0.000836884 0)
(0.0958568 0.000875631 0)
(0.0957044 0.000916096 0)
(0.0955483 0.000958346 0)
(0.0953884 0.00100245 0)
(0.0952246 0.00104849 0)
(0.095057 0.00109657 0)
(0.0948853 0.00114686 0)
(0.0947097 0.0011998 0)
(0.0943398 9.90696e-05 -4.48864e-24)
(0.0941394 0.00010415 -4.57643e-24)
(0.0939292 0.000109593 -3.1737e-26)
(0.0937086 0.000115404 1.40633e-23)
(0.0934769 0.000121611 -4.65834e-24)
(0.0932333 0.000128251 -4.79514e-24)
(0.092977 0.000135363 -1.47674e-23)
(0.0927072 0.000142991 1.46626e-23)
(0.0924227 0.000151184 5.01803e-24)
(0.0921227 0.000159997 0)
(0.0918058 0.000169489 5.18535e-24)
(0.0914709 0.000179729 -5.27537e-24)
(0.0911165 0.000190794 4.34038e-23)
(0.0907411 0.000202768 -9.30282e-23)
(0.0903429 0.000215747 4.9728e-23)
(0.08992 0.000229841 4.03077e-23)
(0.0894704 0.000245171 5.17229e-23)
(0.0889917 0.000261878 -5.92428e-24)
(0.0884814 0.000280122 6.05418e-24)
(0.0879364 0.000300084 -6.19156e-24)
(0.0873536 0.000321972 0)
(0.0867294 0.000346026 6.49109e-24)
(0.0860595 0.000372527 -6.65456e-24)
(0.0853395 0.000401801 0)
(0.084564 0.000434229 -7.0127e-24)
(0.0837271 0.000470264 0)
(0.0828218 0.00051044 -7.41844e-24)
(0.0818404 0.000555397 -1.24328e-22)
(0.0807737 0.000605899 1.32018e-22)
(0.079611 0.000662873 -1.32527e-22)
(0.0783401 0.000727438 1.32325e-22)
(0.0769463 0.000800962 0)
(0.0754125 0.000885117 0)
(0.0737181 0.000981952 1.62172e-22)
(0.0718387 0.00109398 -1.52586e-22)
(0.0697451 0.00122423 0)
(0.067402 0.00137637 0)
(0.0647674 0.00155462 0)
(0.0617913 0.00176365 0)
(0.0584154 0.00200815 0)
(0.0545733 0.00229183 0)
(0.050194 0.00261571 0)
(0.0452076 0.00297513 0)
(0.0395595 0.00335497 0)
(0.0332338 0.00372259 -1.49557e-23)
(0.0262929 0.00401761 -5.13117e-22)
(0.0189207 0.00413968 5.12347e-22)
(0.0114943 0.0039354 5.56531e-22)
(0.00492129 0.00316918 -5.55695e-22)
(0.00100329 0.00147335 0)
(0.0943488 0.000296971 -4.54132e-24)
(0.0941486 0.000312218 -9.26359e-24)
(0.0939386 0.0003285 -4.85707e-24)
(0.0937183 0.000345885 4.52283e-24)
(0.0934869 0.000364463 -4.72346e-24)
(0.0932436 0.000384338 3.3855e-23)
(0.0929877 0.00040563 -5.31693e-23)
(0.0927183 0.000428468 4.93906e-24)
(0.0924343 0.000453 6.59346e-23)
(0.0921348 0.000479387 -9.10629e-23)
(0.0918186 0.000507813 -8.89473e-23)
(0.0914843 0.000538481 7.83773e-23)
(0.0911307 0.000571619 0)
(0.0907561 0.000607483 5.47497e-24)
(0.0903589 0.000646362 -1.67341e-23)
(0.0899371 0.000688579 -1.89812e-22)
(0.0894888 0.000734504 1.82194e-22)
(0.0890115 0.000784558 -1.93677e-22)
(0.0885026 0.000839218 -1.81889e-23)
(0.0879595 0.000899028 6.20514e-24)
(0.0873787 0.000964613 0)
(0.0867567 0.00103669 -6.50791e-24)
(0.0860895 0.00111611 -2.09752e-22)
(0.0853724 0.00120384 4.3835e-22)
(0.0846004 0.00130103 2.41859e-22)
(0.0837674 0.00140903 -4.5613e-22)
(0.0828668 0.00152944 4.91269e-22)
(0.0818908 0.00166418 -4.985e-22)
(0.0808305 0.00181553 -7.91148e-24)
(0.0796755 0.00198627 0)
(0.0784138 0.00217973 0)
(0.0770311 0.00240001 0)
(0.0755107 0.00265208 0)
(0.073833 0.00294204 -9.39907e-24)
(0.0719743 0.00327734 -6.37307e-22)
(0.0699067 0.00366702 -2.68711e-23)
(0.0675964 0.00412187 6.62451e-22)
(0.0650037 0.00465438 7.21233e-22)
(0.062081 0.00527829 -7.20278e-22)
(0.0587731 0.00600723 -2.3915e-23)
(0.0550172 0.00685189 -2.49753e-23)
(0.0507453 0.00781475 -8.60826e-22)
(0.0458898 0.00888116 8.32477e-22)
(0.040395 0.0100053 -2.83494e-23)
(0.0342372 0.0110892 1.50602e-23)
(0.0274591 0.0119528 -1.04338e-21)
(0.020208 0.0122972 1.043e-21)
(0.0127991 0.0116666 -2.17596e-21)
(0.00601651 0.00937058 2.13957e-21)
(0.00144826 0.00432496 -2.19217e-21)
(0.0943668 0.000493886 -2.68626e-23)
(0.0941669 0.000519231 -9.42903e-24)
(0.0939575 0.000546255 3.63632e-23)
(0.0937376 0.000575108 -7.48173e-23)
(0.0935068 0.000605945 1.60103e-22)
(0.0932642 0.000638941 -7.5848e-23)
(0.0930091 0.000674292 1.41801e-26)
(0.0927405 0.000712215 9.8507e-24)
(0.0924576 0.000752953 1.71793e-22)
(0.0921592 0.00079678 -1.61599e-22)
(0.0918442 0.000843997 0)
(0.0915114 0.000894945 1.45799e-26)
(0.0911593 0.000950003 0)
(0.0907865 0.0010096 1.88072e-22)
(0.0903913 0.00107421 -1.65778e-22)
(0.0899718 0.00114438 -3.57472e-22)
(0.0895259 0.00122072 1.98956e-23)
(0.0890515 0.00130393 -3.76423e-22)
(0.0885459 0.0013948 1.21707e-23)
(0.0880063 0.00149425 -4.03299e-22)
(0.0874296 0.00160332 4.15655e-22)
(0.0868123 0.0017232 -4.23631e-22)
(0.0861504 0.00185529 4.36619e-22)
(0.0854395 0.00200122 1.37434e-23)
(0.0846745 0.00216289 -1.41211e-23)
(0.0838498 0.00234255 1.45224e-23)
(0.0829587 0.00254287 -4.86495e-22)
(0.0819938 0.00276702 5.01473e-22)
(0.0809467 0.0030188 5.33622e-22)
(0.0798073 0.00330277 -5.17245e-22)
(0.0785642 0.00362449 0)
(0.0772041 0.00399067 0)
(0.0757112 0.00440951 1.81751e-23)
(0.0740673 0.00489102 1.25236e-21)
(0.0722506 0.00544739 2.99549e-23)
(0.0702356 0.00609332 -1.26032e-21)
(0.0679919 0.00684629 0)
(0.0654835 0.00772644 -2.20157e-23)
(0.0626684 0.00875568 1.53293e-21)
(0.0594974 0.0099554 -3.05995e-21)
(0.0559147 0.0113417 3.24322e-21)
(0.0518587 0.0129168 9.73119e-23)
(0.047266 0.0146541 -1.68451e-21)
(0.0420785 0.0164757 -1.82256e-21)
(0.0362568 0.0182186 1.87831e-21)
(0.0298033 0.0195866 1.45102e-24)
(0.0227909 0.020089 -3.19186e-23)
(0.0154115 0.0189781 2.10244e-21)
(0.00818977 0.0151546 -2.03587e-21)
(0.00230335 0.00692926 -2.03641e-21)
(0.0943936 0.000689126 1.76985e-23)
(0.0941944 0.000724399 -8.98239e-24)
(0.0939856 0.000762004 1.94869e-26)
(0.0937666 0.000802148 9.24467e-24)
(0.0935367 0.000845052 -1.95954e-26)
(0.0932952 0.000890962 1.53626e-22)
(0.0930413 0.000940152 -2.90315e-22)
(0.0927741 0.000992929 1.56035e-22)
(0.0924927 0.00104963 -9.99121e-24)
(0.0921961 0.00111065 1.847e-22)
(0.0918831 0.00117639 -1.64291e-22)
(0.0915525 0.00124734 -3.41035e-22)
(0.091203 0.00132402 6.88644e-22)
(0.090833 0.00140704 -7.02301e-22)
(0.0904409 0.00149706 7.1662e-22)
(0.0900249 0.00159483 -7.20294e-22)
(0.0895829 0.00170122 -3.8135e-22)
(0.0891129 0.0018172 2.25115e-26)
(0.0886123 0.00194389 0)
(0.0880784 0.00208254 -3.92737e-22)
(0.0875082 0.00223462 4.05065e-22)
(0.0868982 0.0024018 0)
(0.0862447 0.00258603 -8.75037e-22)
(0.0855434 0.00278958 8.60837e-22)
(0.0847894 0.00301512 1.42555e-23)
(0.0839775 0.00326576 -3.7084e-26)
(0.0831013 0.00354523 1.50682e-23)
(0.0821538 0.00385793 0)
(0.0811271 0.00420914 -5.31663e-26)
(0.0800121 0.00460519 0)
(0.078798 0.00505373 -1.71073e-23)
(0.0774728 0.00556403 1.15677e-21)
(0.0760225 0.00614733 -1.15646e-21)
(0.0744307 0.00681732 -1.91286e-23)
(0.0726787 0.00759057 3.95906e-23)
(0.0707443 0.00848695 -1.36459e-21)
(0.068602 0.00952992 1.32218e-21)
(0.0662222 0.0107462 2.23964e-23)
(0.0635704 0.0121645 -3.56282e-25)
(0.0606067 0.013812 2.38803e-23)
(0.0572856 0.0157078 -1.63931e-21)
(0.0535552 0.017851 3.31348e-21)
(0.0493583 0.0202004 -1.72705e-21)
(0.0446331 0.0226441 1.78524e-21)
(0.039317 0.0249553 -1.86892e-21)
(0.0333513 0.0267298 -3.7122e-21)
(0.026692 0.0273029 7.57316e-21)
(0.0193461 0.0256513 -3.83381e-21)
(0.0114862 0.0203051 0)
(0.00357354 0.00917483 -3.60563e-21)
(0.0944292 0.000882038 -8.77806e-24)
(0.0942308 0.000927022 -3.58652e-23)
(0.0940229 0.00097497 1.08736e-22)
(0.0938051 0.00102615 -1.46841e-22)
(0.0935765 0.00108085 6.46772e-23)
(0.0933366 0.00113939 9.48682e-24)
(0.0930845 0.00120212 -9.64684e-24)
(0.0928193 0.00126943 -2.46169e-26)
(0.0925402 0.00134177 9.98929e-24)
(0.0922461 0.00141962 -2.03208e-23)
(0.0919359 0.00150353 -3.34459e-22)
(0.0916085 0.00159409 3.45176e-22)
(0.0912624 0.00169198 -3.37242e-22)
(0.0908964 0.00179798 3.48128e-22)
(0.0905087 0.00191293 0)
(0.0900977 0.00203781 -2.4824e-26)
(0.0896613 0.0021737 0)
(0.0891975 0.00232187 -3.76412e-22)
(0.088704 0.00248373 4.0087e-22)
(0.0881781 0.0026609 -1.26008e-23)
(0.087617 0.00285525 -8.49597e-22)
(0.0870173 0.00306891 8.37056e-22)
(0.0863756 0.00330439 -1.36188e-23)
(0.0856878 0.00356458 0)
(0.0849495 0.00385287 0)
(0.0841555 0.00417327 -9.768e-22)
(0.0833003 0.00453048 9.47124e-22)
(0.0823773 0.00493013 0)
(0.0813794 0.00537889 -3.25051e-23)
(0.0802984 0.00588477 0)
(0.079125 0.00645741 1.74075e-23)
(0.0778486 0.00710844 -1.79395e-23)
(0.0764575 0.0078519 -1.86862e-23)
(0.074938 0.00870476 1.92581e-23)
(0.073275 0.00968743 1.2673e-21)
(0.0714515 0.0108242 -1.308e-21)
(0.0694482 0.0121435 2.84313e-21)
(0.0672435 0.013677 -2.84496e-21)
(0.0648133 0.0154584 3.01921e-21)
(0.0621299 0.0175182 8.63307e-23)
(0.0591613 0.0198757 -3.18109e-21)
(0.0558688 0.0225234 -2.53981e-23)
(0.0522034 0.0254031 1.25902e-24)
(0.0480998 0.0283688 1.66596e-24)
(0.0434668 0.0311348 2.19772e-24)
(0.0381688 0.033204 -5.49256e-23)
(0.0320059 0.0337691 -2.5206e-23)
(0.0247255 0.0315719 -2.39703e-23)
(0.0160408 0.0247867 0)
(0.00528251 0.0110547 7.4469e-24)
(0.0944733 0.001072 -4.35606e-23)
(0.0942759 0.00112647 2.62033e-23)
(0.0940695 0.00118455 8.96771e-24)
(0.0938533 0.00124655 1.37688e-22)
(0.0936266 0.00131284 -1.37739e-22)
(0.0933888 0.00138382 1.42541e-22)
(0.0931391 0.0014599 -3.16429e-22)
(0.0928766 0.00154158 4.50573e-22)
(0.0926006 0.00162938 -3.15622e-22)
(0.0923099 0.0017239 -3.27512e-22)
(0.0920035 0.00182579 -1.64906e-23)
(0.0916803 0.00193581 6.65236e-22)
(0.0913391 0.00205477 -7.00827e-22)
(0.0909783 0.00218361 3.26901e-22)
(0.0905965 0.00232337 3.52901e-22)
(0.0901921 0.00247523 3.69033e-22)
(0.0897632 0.00264053 -2.85332e-23)
(0.0893079 0.00282081 7.5212e-22)
(0.0888238 0.00301779 7.76938e-22)
(0.0883086 0.00323345 1.97438e-23)
(0.0877596 0.00347007 -8.23798e-22)
(0.0871738 0.00373026 0)
(0.0865479 0.00401706 0)
(0.0858782 0.00433401 -9.18835e-22)
(0.0851607 0.00468525 9.05637e-22)
(0.0843908 0.00507564 9.75823e-22)
(0.0835635 0.0055109 -9.77269e-22)
(0.0826732 0.00599781 0)
(0.0817137 0.00654447 1.09135e-21)
(0.080678 0.00716048 -1.09345e-21)
(0.0795584 0.00785738 0)
(0.0783466 0.00864897 -2.36682e-21)
(0.0770333 0.00955181 2.38875e-21)
(0.0756086 0.0105857 -1.9744e-23)
(0.0740619 0.0117741 -2.64091e-21)
(0.072382 0.0131445 2.66541e-21)
(0.0705577 0.0147283 0)
(0.0685775 0.0165599 2.99145e-21)
(0.0664298 0.0186736 -2.973e-21)
(0.0641023 0.021098 2.40854e-23)
(0.06158 0.0238456 3.2794e-21)
(0.058841 0.0268946 -6.57865e-21)
(0.0558486 0.0301615 1.97425e-23)
(0.0525371 0.0334609 3.72177e-23)
(0.0487874 0.0364504 3.41075e-21)
(0.0443847 0.0385599 3.79372e-24)
(0.0389563 0.0388894 -2.92854e-21)
(0.0319176 0.0360437 3.0022e-21)
(0.0222911 0.0280008 0)
(0.00767726 0.0122794 2.67787e-23)
(0.0945257 0.00125821 8.57854e-24)
(0.09433 0.00132163 7.90452e-23)
(0.0941256 0.00138934 -7.04921e-23)
(0.0939116 0.0014617 9.05126e-24)
(0.0936876 0.00153912 1.39162e-22)
(0.0934527 0.00162207 -1.39382e-22)
(0.0932063 0.00171106 -2.98701e-22)
(0.0929475 0.00180665 4.42375e-24)
(0.0926755 0.00190947 -5.60001e-24)
(0.0923893 0.00202023 3.3184e-22)
(0.092088 0.00213971 -3.24227e-22)
(0.0917704 0.00226878 6.88054e-22)
(0.0914354 0.00240843 -3.42868e-22)
(0.0910816 0.00255976 1.10853e-23)
(0.0907077 0.00272402 1.13457e-23)
(0.090312 0.0029026 7.50651e-22)
(0.0898929 0.00309711 -5.0212e-24)
(0.0894486 0.00330937 7.83692e-22)
(0.088977 0.00354144 1.25288e-23)
(0.0884759 0.00379569 0)
(0.0879429 0.00407482 0)
(0.0873754 0.00438196 -8.80164e-22)
(0.0867703 0.00472074 8.82387e-22)
(0.0861245 0.00509538 0)
(0.0854344 0.0055108 1.48503e-23)
(0.0846963 0.0059728 0)
(0.0839059 0.0064882 -1.0258e-21)
(0.0830587 0.00706505 2.08854e-21)
(0.0821496 0.00771291 -1.06281e-21)
(0.0811734 0.00844312 -2.25258e-21)
(0.0801243 0.00926918 -7.56171e-23)
(0.0789966 0.0102071 -7.97493e-23)
(0.0777841 0.0112761 -8.3783e-23)
(0.0764812 0.0124984 2.53252e-21)
(0.0750823 0.0139002 2.71694e-21)
(0.0735834 0.0155113 -2.72341e-21)
(0.0719815 0.0173644 0)
(0.0702762 0.0194928 3.0128e-21)
(0.0684694 0.0219266 -3.0198e-21)
(0.0665651 0.0246837 -3.20563e-21)
(0.0645666 0.0277571 3.18797e-21)
(0.0624709 0.0310929 2.60555e-23)
(0.060257 0.0345596 3.20214e-21)
(0.0578651 0.0379072 -1.052e-22)
(0.055162 0.0407167 -3.16294e-21)
(0.0518788 0.0423477 2.4136e-23)
(0.047521 0.0418756 0)
(0.0412562 0.037964 -1.92296e-23)
(0.0312638 0.0287959 -9.15696e-22)
(0.0123695 0.012217 4.23949e-22)
(-0.000226583 0.000305045 0)
(-0.000977172 0.000573145 3.19085e-22)
(-0.00207838 0.000627413 -3.19564e-22)
(-0.00316475 0.000563246 -3.17695e-22)
(-0.00405811 0.000433385 3.18173e-22)
(-0.00468306 0.000269414 -9.76617e-24)
(-0.00499991 9.09785e-05 0)
(-0.00499505 -8.97172e-05 0)
(-0.00467267 -0.00026727 0)
(-0.00404185 -0.000437038 0)
(-0.00311622 -0.000596307 0)
(-0.00191356 -0.000744259 0)
(-0.000453806 -0.000879424 0)
(0.0012414 -0.00100171 0)
(0.00315026 -0.00111118 0)
(0.00525093 -0.00120786 9.25397e-23)
(0.00752149 -0.00129195 -8.7097e-23)
(0.00994022 -0.00136374 0)
(0.0124858 -0.00142363 0)
(0.0151376 -0.00147207 -6.31937e-23)
(0.0178756 -0.00150958 6.32902e-23)
(0.0206806 -0.0015367 -4.64469e-23)
(0.0235342 -0.00155394 2.93944e-24)
(0.0264188 -0.00156188 0)
(0.0293179 -0.00156118 2.20462e-24)
(0.032216 -0.00155257 0)
(0.0350989 -0.00153676 0)
(0.0379536 -0.00151445 0)
(0.0407684 -0.00148632 1.03364e-24)
(0.0435326 -0.00145306 0)
(0.0462368 -0.00141533 -5.98487e-25)
(0.0488728 -0.00137379 4.16202e-25)
(0.0514335 -0.00132907 -2.55925e-25)
(0.053913 -0.00128176 4.75377e-25)
(0.0563064 -0.00123245 -3.55571e-25)
(0.0586099 -0.00118165 1.16642e-24)
(0.0608208 -0.00112989 -2.98055e-24)
(0.0629369 -0.00107761 1.90152e-24)
(0.0649574 -0.00102524 3.2334e-25)
(0.0668818 -0.000973173 -3.70134e-25)
(0.0687107 -0.000921738 0)
(0.070445 -0.000871241 -4.33914e-25)
(0.0720864 -0.000821944 2.31033e-24)
(0.0736371 -0.00077407 -2.32595e-24)
(0.0750994 -0.000727805 4.73099e-25)
(0.0764763 -0.000683299 -1.43026e-24)
(0.0777711 -0.000640666 4.83173e-25)
(0.0789869 -0.000599989 9.34959e-25)
(0.0801274 -0.000561313 -4.67533e-25)
(0.0811963 -0.000524652 4.50359e-25)
(-0.00029273 0.000876835 -1.2118e-21)
(-0.00108544 0.00164105 -1.32449e-21)
(-0.00208382 0.00179558 1.30555e-21)
(-0.0030112 0.00160845 -6.2529e-22)
(-0.00373291 0.00123012 6.26405e-22)
(-0.00419258 0.000751958 9.83393e-24)
(-0.00435974 0.000230601 -1.94263e-23)
(-0.00422675 -0.000297787 -6.09102e-22)
(-0.0037989 -0.000818077 5.90995e-22)
(-0.00308269 -0.00131679 -1.75724e-23)
(-0.00209134 -0.00178528 -1.68124e-23)
(-0.000840241 -0.00222148 4.93774e-22)
(0.000653036 -0.00262014 -4.94431e-22)
(0.00236782 -0.0029817 -4.36235e-22)
(0.00428433 -0.0033059 3.05237e-23)
(0.00638253 -0.00359262 4.06834e-22)
(0.00864197 -0.00384234 -5.61086e-24)
(0.0110422 -0.00405586 -1.04558e-23)
(0.0135633 -0.00423425 0)
(0.0161854 -0.00437881 0)
(0.0188897 -0.00449103 0)
(0.0216577 -0.00457243 -3.35392e-24)
(0.0244719 -0.00462457 1.69098e-22)
(0.0273153 -0.00464906 -1.83621e-22)
(0.0301719 -0.00464788 1.30059e-22)
(0.0330269 -0.00462313 -7.65738e-23)
(0.0358665 -0.00457693 -1.0238e-22)
(0.0386781 -0.00451132 4.64934e-23)
(0.0414502 -0.00442835 -1.0363e-24)
(0.0441725 -0.00433002 -1.7086e-24)
(0.0468358 -0.00421833 5.99791e-25)
(0.0494322 -0.00409521 -1.3337e-24)
(0.0519546 -0.00396253 6.02226e-24)
(0.0543974 -0.00382209 -8.6378e-24)
(0.0567557 -0.00367557 2.10109e-24)
(0.0590257 -0.0035246 2.619e-25)
(0.0612048 -0.00337065 -1.93262e-25)
(0.063291 -0.00321513 0)
(0.0652832 -0.00305928 5.71213e-24)
(0.0671811 -0.00290426 -5.06997e-24)
(0.0689852 -0.00275109 -5.84914e-24)
(0.0706964 -0.00260067 7.90321e-24)
(0.0723163 -0.0024538 -4.53289e-25)
(0.0738471 -0.00231113 -2.34687e-24)
(0.075291 -0.00217322 4.17034e-24)
(0.076651 -0.00204053 4.74828e-25)
(0.0779302 -0.00191341 3.26479e-24)
(0.0791318 -0.00179209 4.21453e-25)
(0.0802592 -0.00167671 -9.40611e-25)
(0.0813161 -0.00156731 -1.3541e-24)
(-0.000408493 0.00133931 -1.25987e-21)
(-0.00126189 0.00247678 1.38034e-21)
(-0.00204343 0.00271195 -1.33912e-21)
(-0.00265746 0.00241787 -2.08043e-23)
(-0.0030471 0.00182474 -3.99043e-25)
(-0.00319033 0.00107405 -1.26281e-21)
(-0.00307216 0.000252696 1.30424e-21)
(-0.0026958 -0.000583519 1.23102e-21)
(-0.00206958 -0.00141164 -2.5623e-23)
(-0.00119351 -0.00220954 -2.27292e-21)
(-7.97718e-05 -0.00296077 2.20855e-21)
(0.0012609 -0.00366053 -1.05402e-21)
(0.00281531 -0.00430436 -1.55958e-23)
(0.00456416 -0.00489071 0)
(0.00649242 -0.00541782 8.50538e-22)
(0.00858328 -0.00588531 -7.51831e-23)
(0.010819 -0.00629369 -7.6412e-22)
(0.0131817 -0.00664397 2.13971e-23)
(0.0156537 -0.00693763 0)
(0.0182172 -0.00717655 0)
(0.0208552 -0.00736296 2.38526e-22)
(0.023551 -0.00749923 -2.31577e-22)
(0.0262882 -0.00758771 -1.79588e-22)
(0.0290514 -0.00763108 1.91181e-22)
(0.0318256 -0.00763218 4.81049e-24)
(0.0345971 -0.00759455 -4.11947e-24)
(0.0373528 -0.00752156 3.48007e-24)
(0.0400808 -0.00741654 -7.774e-23)
(0.0427705 -0.00728277 8.07093e-23)
(0.0454118 -0.00712355 -4.65412e-23)
(0.0479963 -0.00694212 5.01797e-23)
(0.0505161 -0.00674165 9.20293e-25)
(0.0529647 -0.0065252 1.57263e-23)
(0.0553365 -0.00629574 -2.26161e-23)
(0.057627 -0.00605605 7.23116e-24)
(0.0598325 -0.0058088 -3.47603e-24)
(0.0619502 -0.00555645 3.07687e-24)
(0.0639785 -0.00530129 0)
(0.0659161 -0.00504544 -7.22192e-26)
(0.0677629 -0.00479078 0)
(0.069519 -0.00453902 -1.2575e-23)
(0.0711856 -0.00429167 1.16927e-23)
(0.072764 -0.00405003 -8.2681e-25)
(0.0742562 -0.00381522 -4.46082e-26)
(0.0756646 -0.00358817 -7.293e-24)
(0.0769918 -0.00336965 1.36501e-23)
(0.0782408 -0.00316022 -7.31969e-24)
(0.0794147 -0.0029603 3.55075e-24)
(0.0805168 -0.00277011 -2.69762e-24)
(0.0815505 -0.00258967 -9.04353e-25)
(-0.000542807 0.00160323 -2.72569e-21)
(-0.00141768 0.00295045 0)
(-0.00184163 0.00324061 2.82159e-21)
(-0.00200142 0.00286254 -5.63874e-21)
(-0.00192136 0.00210853 2.83838e-21)
(-0.00162491 0.00115467 1.29289e-21)
(-0.00111598 0.000111527 -1.35662e-21)
(-0.00041012 -0.000980051 1.25892e-21)
(0.000481727 -0.00206466 -2.49208e-21)
(0.00157134 -0.00311047 1.21397e-21)
(0.0028502 -0.00410335 1.80044e-23)
(0.00430671 -0.00503296 3.83345e-25)
(0.00593523 -0.00589434 1.58639e-23)
(0.00772422 -0.00668217 -9.50372e-22)
(0.0096622 -0.00739355 9.21449e-22)
(0.0117364 -0.00802743 2.63338e-23)
(0.0139331 -0.00858374 -1.19829e-23)
(0.016238 -0.0090632 6.83604e-22)
(0.0186365 -0.00946726 -6.83472e-22)
(0.0211138 -0.00979798 -9.43617e-24)
(0.0236553 -0.010058 0)
(0.0262465 -0.0102502 3.41044e-25)
(0.0288732 -0.0103777 0)
(0.0315214 -0.0104435 5.92294e-24)
(0.0341781 -0.0104517 2.95694e-25)
(0.0368304 -0.0104065 4.15844e-24)
(0.0394668 -0.0103126 -2.16268e-22)
(0.0420763 -0.0101744 2.13078e-22)
(0.0446489 -0.00999647 0)
(0.0471756 -0.0097831 -5.60352e-23)
(0.0496483 -0.00953875 5.79154e-23)
(0.0520599 -0.00926774 0)
(0.054404 -0.00897427 -1.68061e-25)
(0.0566754 -0.00866241 -1.17571e-23)
(0.0588699 -0.00833601 1.51332e-23)
(0.060984 -0.00799875 -2.85465e-25)
(0.063015 -0.00765404 -1.1934e-23)
(0.0649612 -0.00730507 2.23876e-23)
(0.0668216 -0.00695476 -1.36411e-23)
(0.0685957 -0.00660576 -1.02314e-23)
(0.070284 -0.00626045 8.88126e-24)
(0.0718871 -0.00592094 7.06239e-25)
(0.0734065 -0.00558905 1.30938e-23)
(0.074844 -0.00526636 -2.81645e-23)
(0.0762018 -0.00495417 1.34277e-23)
(0.0774823 -0.00465356 4.99426e-26)
(0.0786883 -0.00436534 -8.87456e-25)
(0.0798228 -0.0040901 -4.09389e-26)
(0.0808888 -0.00382815 8.68997e-25)
(0.0818895 -0.00357943 -1.67097e-24)
(-0.000599185 0.00159256 -1.70402e-24)
(-0.00135095 0.00298416 -2.54527e-23)
(-0.00128736 0.00329203 -2.46461e-23)
(-0.000876093 0.00286554 -2.39154e-23)
(-0.000224076 0.00202037 -4.58227e-23)
(0.000600078 0.000947462 -5.54728e-25)
(0.00154779 -0.000247262 2.14426e-23)
(0.00261561 -0.00151143 -2.12486e-23)
(0.003818 -0.00277273 -2.05066e-23)