/*--------------------------------*- C++ -*----------------------------------*\
| =========                 |                                                 |
| \\      /  F ield         | OpenFOAM: The Open Source CFD Toolbox           |
|  \\    /   O peration     | Version:  2412                                  |
|   \\  /    A nd           | Website:  www.openfoam.com                      |
|    \\/     M anipulation  |                                                 |
\*---------------------------------------------------------------------------*/
FoamFile
{
    version     2.0;
    format      ascii;
    arch        "LSB;label=32;scalar=64";
    class       volVectorField;
    location    "21";
    object      vorticity;
}
// * * * * * * * * * * * * * * * * * * * * * * * * * * * * * * * * * * * * * //

dimensions      [0 0 -1 0 0 0 0];

internalField   nonuniform List<vector> 
63420
(
(0 0 5.90056e-06)
(0 0 5.88275e-06)
(0 0 5.85703e-06)
(0 0 5.80215e-06)
(0 0 5.76388e-06)
(0 0 5.93396e-06)
(0 0 6.61796e-06)
(0 0 8.05321e-06)
(0 0 1.01801e-05)
(0 0 1.25345e-05)
(0 0 1.43537e-05)
(0 0 1.48519e-05)
(0 0 1.35185e-05)
(0 0 1.03007e-05)
(0 0 5.60405e-06)
(0 0 1.43217e-07)
(0 0 -5.27754e-06)
(0 0 -9.96421e-06)
(0 0 -1.34587e-05)
(0 0 -1.55759e-05)
(0 0 -1.63687e-05)
(0 0 -1.60544e-05)
(0 0 -1.49312e-05)
(0 0 -1.33081e-05)
(0 0 -1.14567e-05)
(0 0 -9.58716e-06)
(0 0 -7.8424e-06)
(0 0 -6.30482e-06)
(0 0 -5.00903e-06)
(0 0 -3.95609e-06)
(0 0 -3.12637e-06)
(0 0 -2.48967e-06)
(0 0 -2.01241e-06)
(0 0 -1.66216e-06)
(0 0 -1.41015e-06)
(0 0 -1.23222e-06)
(0 0 -1.10894e-06)
(0 0 -1.0252e-06)
(0 0 -9.69552e-07)
(0 0 -9.33531e-07)
(0 0 -9.10975e-07)
(0 0 -8.97472e-07)
(0 0 -8.89905e-07)
(0 0 -8.86102e-07)
(0 0 -8.84554e-07)
(0 0 -8.84202e-07)
(0 0 -8.84242e-07)
(0 0 -8.83815e-07)
(0 0 -8.81206e-07)
(0 0 -8.71206e-07)
(0 0 -8.36353e-07)
(0 0 -7.18525e-07)
(0 0 -3.2996e-07)
(0 0 9.16672e-07)
(0 4.45393e-23 4.79682e-06)
(0 0 1.76968e-05)
(0 0 1.76442e-05)
(0 0 1.75682e-05)
(0 0 1.74053e-05)
(0 0 1.72917e-05)
(0 0 1.77992e-05)
(0 0 1.98404e-05)
(0 0 2.4126e-05)
(0 0 3.04826e-05)
(0 0 3.7529e-05)
(0 0 4.29923e-05)
(0 0 4.4526e-05)
(0 0 4.06019e-05)
(0 0 3.1054e-05)
(0 0 1.70851e-05)
(0 0 8.2041e-07)
(0 0 -1.53439e-05)
(0 0 -2.93376e-05)
(0 0 -3.97917e-05)
(0 0 -4.61491e-05)
(0 0 -4.85631e-05)
(0 0 -4.76769e-05)
(0 0 -4.43763e-05)
(0 0 -3.95798e-05)
(0 0 -3.40965e-05)
(0 0 -2.85524e-05)
(0 0 -2.3374e-05)
(0 0 -1.88077e-05)
(0 0 -1.49576e-05)
(0 0 -1.18279e-05)
(0 0 -9.36094e-06)
(0 0 -7.46747e-06)
(0 0 -6.04804e-06)
(0 0 -5.00649e-06)
(0 0 -4.25737e-06)
(0 0 -3.72893e-06)
(0 0 -3.36344e-06)
(0 0 -3.11597e-06)
(0 0 -2.95247e-06)
(0 0 -2.8477e-06)
(0 0 -2.78332e-06)
(0 0 -2.74619e-06)
(0 0 -2.72701e-06)
(0 0 -2.71928e-06)
(0 0 -2.7185e-06)
(0 0 -2.72149e-06)
(0 0 -2.72585e-06)
(0 0 -2.72903e-06)
(0 0 -2.72602e-06)
(0 0 -2.70169e-06)
(0 0 -2.60545e-06)
(0 0 -2.26874e-06)
(0 0 -1.14626e-06)
(0 0 2.471e-06)
(0 4.50071e-23 1.3758e-05)
(0 0 2.94807e-05)
(0 0 2.93933e-05)
(0 0 2.92673e-05)
(0 0 2.89976e-05)
(0 0 2.88085e-05)
(0 0 2.96455e-05)
(0 0 3.30227e-05)
(0 0 4.01264e-05)
(0 0 5.06844e-05)
(0 0 6.24243e-05)
(0 0 7.15901e-05)
(0 0 7.42914e-05)
(0 0 6.79797e-05)
(0 0 5.23544e-05)
(0 0 2.93802e-05)
(0 0 2.55546e-06)
(0 0 -2.41634e-05)
(0 0 -4.73487e-05)
(0 0 -6.47253e-05)
(0 0 -7.53571e-05)
(0 0 -7.94826e-05)
(0 0 -7.81521e-05)
(0 0 -7.28207e-05)
(0 0 -6.50016e-05)
(0 0 -5.60294e-05)
(0 0 -4.6939e-05)
(0 0 -3.84368e-05)
(0 0 -3.09323e-05)
(0 0 -2.46002e-05)
(0 0 -1.945e-05)
(0 0 -1.53883e-05)
(0 0 -1.22696e-05)
(0 0 -9.93083e-06)
(0 0 -8.21421e-06)
(0 0 -6.97929e-06)
(0 0 -6.10804e-06)
(0 0 -5.50547e-06)
(0 0 -5.09757e-06)
(0 0 -4.82826e-06)
(0 0 -4.65595e-06)
(0 0 -4.55039e-06)
(0 0 -4.48991e-06)
(0 0 -4.45918e-06)
(0 0 -4.44748e-06)
(0 0 -4.44734e-06)
(0 0 -4.45355e-06)
(0 0 -4.46216e-06)
(0 0 -4.46907e-06)
(0 0 -4.4664e-06)
(0 0 -4.43068e-06)
(0 0 -4.28346e-06)
(0 0 -3.76312e-06)
(0 0 -2.02018e-06)
(0 0 3.61829e-06)
(0 2.6558e-22 2.12777e-05)
(0 0 4.12444e-05)
(0 0 4.11218e-05)
(0 0 4.09463e-05)
(0 0 4.05718e-05)
(0 0 4.03066e-05)
(0 0 4.14606e-05)
(0 0 4.61397e-05)
(0 0 5.60091e-05)
(0 0 7.07219e-05)
(0 0 8.71568e-05)
(0 0 0.000100119)
(0 0 0.0001042)
(0 0 9.58278e-05)
(0 0 7.45325e-05)
(0 0 4.29846e-05)
(0 0 5.99394e-06)
(0 0 -3.09732e-05)
(0 0 -6.31626e-05)
(0 0 -8.74007e-05)
(0 0 -0.000102361)
(0 0 -0.000108343)
(0 0 -0.000106774)
(0 0 -9.96486e-05)
(0 0 -8.905e-05)
(0 0 -7.682e-05)
(0 0 -6.43905e-05)
(0 0 -5.27421e-05)
(0 0 -4.24459e-05)
(0 0 -3.3749e-05)
(0 0 -2.6669e-05)
(0 0 -2.10816e-05)
(0 0 -1.67886e-05)
(0 0 -1.35675e-05)
(0 0 -1.12021e-05)
(0 0 -9.49961e-06)
(0 0 -8.29802e-06)
(0 0 -7.46664e-06)
(0 0 -6.90365e-06)
(0 0 -6.53183e-06)
(0 0 -6.29391e-06)
(0 0 -6.1482e-06)
(0 0 -6.0648e-06)
(0 0 -6.02258e-06)
(0 0 -6.00676e-06)
(0 0 -6.00704e-06)
(0 0 -6.01623e-06)
(0 0 -6.02892e-06)
(0 0 -6.03969e-06)
(0 0 -6.03848e-06)
(0 0 -5.99586e-06)
(0 0 -5.81406e-06)
(0 0 -5.16636e-06)
(0 0 -2.98667e-06)
(0 0 4.10349e-06)
(0 -1.74352e-22 2.64531e-05)
(0 0 5.29802e-05)
(0 0 5.28216e-05)
(0 0 5.2597e-05)
(0 0 5.21204e-05)
(0 0 5.17787e-05)
(0 0 5.32328e-05)
(0 0 5.91679e-05)
(0 0 7.17322e-05)
(0 0 9.05363e-05)
(0 0 0.000111666)
(0 0 0.000128546)
(0 0 0.000134287)
(0 0 0.000124291)
(0 0 9.78687e-05)
(0 0 5.83235e-05)
(0 0 1.16949e-05)
(0 0 -3.51095e-05)
(0 0 -7.605e-05)
(0 0 -0.000107066)
(0 0 -0.000126425)
(0 0 -0.000134455)
(0 0 -0.000132921)
(0 0 -0.000124317)
(0 0 -0.000111264)
(0 0 -9.60846e-05)
(0 0 -8.05931e-05)
(0 0 -6.60359e-05)
(0 0 -5.31441e-05)
(0 0 -4.22389e-05)
(0 0 -3.33509e-05)
(0 0 -2.63298e-05)
(0 0 -2.09308e-05)
(0 0 -1.68768e-05)
(0 0 -1.38978e-05)
(0 0 -1.17523e-05)
(0 0 -1.0237e-05)
(0 0 -9.18786e-06)
(0 0 -8.47688e-06)
(0 0 -8.00694e-06)
(0 0 -7.70593e-06)
(0 0 -7.52133e-06)
(0 0 -7.41551e-06)
(0 0 -7.3618e-06)
(0 0 -7.34157e-06)
(0 0 -7.34184e-06)
(0 0 -7.35354e-06)
(0 0 -7.36995e-06)
(0 0 -7.38454e-06)
(0 0 -7.38592e-06)
(0 0 -7.34179e-06)
(0 0 -7.14591e-06)
(0 0 -6.44375e-06)
(0 0 -4.07217e-06)
(0 0 3.69611e-06)
(0 8.60708e-23 2.84508e-05)
(0 0 6.46817e-05)
(0 0 6.44843e-05)
(0 0 6.42113e-05)
(0 0 6.36359e-05)
(0 0 6.32173e-05)
(0 0 6.49511e-05)
(0 0 7.20864e-05)
(0 0 8.72587e-05)
(0 0 0.000110075)
(0 0 0.000135895)
(0 0 0.000156836)
(0 0 0.000164573)
(0 0 0.000153475)
(0 0 0.000122581)
(0 0 7.57353e-05)
(0 0 2.0108e-05)
(0 0 -3.60342e-05)
(0 0 -8.5417e-05)
(0 0 -0.000123106)
(0 0 -0.000146946)
(0 0 -0.000157253)
(0 0 -0.000156082)
(0 0 -0.00014638)
(0 0 -0.000131263)
(0 0 -0.000113507)
(0 0 -9.52885e-05)
(0 0 -7.81097e-05)
(0 0 -6.28593e-05)
(0 0 -4.99352e-05)
(0 0 -3.93865e-05)
(0 0 -3.10434e-05)
(0 0 -2.46211e-05)
(0 0 -1.97943e-05)
(0 0 -1.62442e-05)
(0 0 -1.36853e-05)
(0 0 -1.18764e-05)
(0 0 -1.06229e-05)
(0 0 -9.77244e-06)
(0 0 -9.2096e-06)
(0 0 -8.84848e-06)
(0 0 -8.6265e-06)
(0 0 -8.49877e-06)
(0 0 -8.4335e-06)
(0 0 -8.40843e-06)
(0 0 -8.40808e-06)
(0 0 -8.42166e-06)
(0 0 -8.44122e-06)
(0 0 -8.45945e-06)
(0 0 -8.46447e-06)
(0 0 -8.42437e-06)
(0 0 -8.23648e-06)
(0 0 -7.56181e-06)
(0 0 -5.28884e-06)
(0 0 2.19243e-06)
(0 4.24688e-22 2.64704e-05)
(0 0 7.634e-05)
(0 0 7.61009e-05)
(0 0 7.57806e-05)
(0 0 7.51105e-05)
(0 0 7.46147e-05)
(0 0 7.66052e-05)
(0 0 8.48771e-05)
(0 0 0.000102558)
(0 0 0.000129293)
(0 0 0.000159794)
(0 0 0.000184952)
(0 0 0.000195057)
(0 0 0.000183442)
(0 0 0.000148813)
(0 0 9.5453e-05)
(0 0 3.15514e-05)
(0 0 -3.33605e-05)
(0 0 -9.08312e-05)
(0 0 -0.00013507)
(0 0 -0.000163477)
(0 0 -0.000176317)
(0 0 -0.000175877)
(0 0 -0.000165505)
(0 0 -0.000148765)
(0 0 -0.000128852)
(0 0 -0.000108284)
(0 0 -8.88083e-05)
(0 0 -7.14675e-05)
(0 0 -5.67392e-05)
(0 0 -4.46966e-05)
(0 0 -3.5158e-05)
(0 0 -2.78063e-05)
(0 0 -2.22746e-05)
(0 0 -1.82018e-05)
(0 0 -1.52631e-05)
(0 0 -1.31836e-05)
(0 0 -1.17408e-05)
(0 0 -1.07607e-05)
(0 0 -1.01109e-05)
(0 0 -9.69316e-06)
(0 0 -9.43553e-06)
(0 0 -9.28652e-06)
(0 0 -9.20964e-06)
(0 0 -9.17928e-06)
(0 0 -9.17767e-06)
(0 0 -9.19242e-06)
(0 0 -9.21455e-06)
(0 0 -9.23613e-06)
(0 0 -9.24563e-06)
(0 0 -9.21433e-06)
(0 0 -9.05404e-06)
(0 0 -8.48392e-06)
(0 0 -6.61164e-06)
(0 0 -5.64625e-07)
(0 -8.30807e-23 1.96106e-05)
(-1.70932e-23 7.94282e-21 2.87358e-06)
(-1.45567e-22 7.80982e-21 2.26147e-06)
(3.24006e-23 -1.94823e-22 1.43811e-06)
(3.77974e-23 -2.33158e-20 3.61717e-07)
(-9.11654e-23 7.96483e-21 -1.00413e-06)
(3.58001e-22 7.82325e-21 -2.68836e-06)
(-7.83825e-22 2.28091e-20 -4.71508e-06)
(3.0759e-22 -2.31755e-20 -7.10632e-06)
(6.19334e-22 -7.4576e-21 -9.88411e-06)
(-8.84743e-22 -3.6793e-24 -1.30725e-05)
(-8.84141e-22 -7.47184e-21 -1.66988e-05)
(7.74389e-22 7.09883e-21 -2.07953e-05)
(5.59843e-22 -5.84736e-20 -2.54004e-05)
(-1.03403e-21 1.25526e-19 -3.05603e-05)
(3.56365e-22 -6.75239e-20 -3.63263e-05)
(-1.2125e-21 -5.09115e-20 -4.27532e-05)
(2.33037e-21 -6.48303e-20 -4.98911e-05)
(-1.82859e-21 7.63784e-21 -5.78223e-05)
(-1.8604e-22 -7.12748e-21 -6.66317e-05)
(7.1128e-23 7.13189e-21 -7.6427e-05)
(-3.09898e-24 -1.26752e-22 -8.72972e-05)
(-6.61019e-23 -6.87913e-21 -9.93469e-05)
(-1.98136e-21 6.93826e-21 -0.000112689)
(4.14352e-21 1.27351e-23 -0.000127448)
(1.20853e-21 6.73572e-21 -0.000143757)
(-3.22836e-21 -5.23945e-24 -0.00016177)
(4.64494e-21 7.81892e-21 -0.000181664)
(-5.45237e-21 1.01482e-19 -0.000203655)
(6.81424e-22 -1.08971e-19 -0.000228022)
(-2.10561e-21 9.9525e-20 -0.000255143)
(2.05128e-21 -1.00651e-19 -0.000285556)
(4.7793e-23 1.32158e-21 -0.000320074)
(-6.21835e-23 -1.62186e-21 -0.000359968)
(2.74127e-21 -9.52174e-20 -0.000407313)
(-8.52826e-21 9.24025e-20 -0.000465585)
(-3.09956e-22 -1.52449e-21 -0.000540706)
(6.10818e-21 1.33592e-23 -0.00064284)
(6.63769e-21 1.45173e-23 -0.000789343)
(-6.61645e-21 -1.44708e-23 -0.00100946)
(-2.19271e-22 -4.79567e-25 -0.00135137)
(-2.28564e-22 -4.99892e-25 -0.00189214)
(-7.86323e-21 -1.71977e-23 -0.0027506)
(7.59011e-21 1.66003e-23 -0.004102)
(-2.50516e-22 1.49006e-22 -0.00619156)
(-3.31375e-23 7.71064e-21 -0.00934125)
(-2.42855e-20 4.98948e-20 -0.0139414)
(2.33915e-20 -6.57501e-20 -0.0204146)
(-5.4833e-21 -9.33093e-21 -0.029139)
(6.02708e-21 2.55241e-20 -0.0403243)
(-2.00358e-20 -5.59333e-21 -0.053763)
(-2.5571e-22 7.95406e-21 8.32864e-06)
(-1.04014e-22 1.56469e-20 6.4242e-06)
(2.97888e-22 7.61009e-21 3.83252e-06)
(-8.58843e-22 -7.82278e-21 4.28617e-07)
(1.59526e-21 7.46258e-21 -3.88853e-06)
(-4.89794e-22 -5.3435e-20 -9.19993e-06)
(-2.21307e-22 8.4845e-20 -1.55738e-05)
(-5.57356e-23 -8.82969e-21 -2.30742e-05)
(2.15033e-21 -9.77053e-20 -3.17676e-05)
(-2.2385e-21 1.37936e-19 -4.17279e-05)
(-8.25824e-22 1.26046e-19 -5.30416e-05)
(6.09786e-22 -1.13386e-19 -6.58112e-05)
(-3.86979e-22 7.25416e-22 -8.01586e-05)
(2.76097e-21 -7.22186e-21 -9.62295e-05)
(-2.15225e-21 2.40015e-20 -0.00011419)
(-5.90905e-21 2.38496e-19 -0.000134204)
(1.62742e-21 -2.24266e-19 -0.000156457)
(-5.53215e-21 2.40331e-19 -0.000181162)
(-2.94512e-22 1.94601e-20 -0.000208646)
(-3.78164e-21 -7.2889e-21 -0.000239209)
(3.99805e-21 1.43029e-22 -0.000273161)
(-4.01126e-21 9.04562e-21 -0.000310827)
(9.7511e-22 2.08703e-19 -0.000352574)
(5.89896e-21 -4.41859e-19 -0.000398803)
(4.48512e-21 -2.1107e-19 -0.000449955)
(-6.97754e-21 4.273e-19 -0.000506528)
(3.67449e-21 -4.26011e-19 -0.000569102)
(-2.02814e-21 4.37098e-19 -0.000638383)
(3.23756e-21 1.46119e-21 -0.000715266)
(-3.66733e-21 -9.61046e-23 -0.000800959)
(-1.23213e-21 -2.69478e-24 -0.000897165)
(0 0 -0.00100641)
(1.82077e-22 9.44844e-23 -0.00113264)
(1.08822e-20 1.22061e-20 -0.00128221)
(-1.56567e-20 3.56612e-19 -0.00146574)
(-1.55395e-20 -2.39885e-20 -0.0017013)
(1.8456e-20 -3.51687e-19 -0.0020198)
(2.63194e-20 -3.03795e-19 -0.002474)
(-9.38977e-21 3.24514e-19 -0.0031527)
(-3.07049e-20 2.15818e-21 -0.00420211)
(2.99603e-20 1.70933e-20 -0.00585586)
(-4.16423e-20 2.3126e-19 -0.00847374)
(2.2578e-20 -2.40544e-19 -0.0125859)
(-1.77332e-20 1.44536e-20 -0.0189333)
(1.96506e-20 7.59799e-21 -0.0284882)
(-5.89924e-20 1.11645e-19 -0.0424283)
(5.89158e-20 -1.09283e-19 -0.0620252)
(-9.04616e-20 8.15531e-20 -0.0883961)
(8.72963e-20 -9.10694e-20 -0.122101)
(-1.85032e-20 -6.24565e-22 -0.16116)
(-4.63445e-23 4.7127e-20 1.33351e-05)
(-8.6205e-23 1.49021e-20 9.91166e-06)
(3.77971e-22 -6.17337e-20 5.15656e-06)
(-8.05043e-22 1.22804e-19 -1.12429e-06)
(1.77403e-21 -2.62878e-19 -9.07307e-06)
(3.70268e-22 1.24993e-19 -1.88014e-05)
(-2.4188e-21 -8.58833e-22 -3.04093e-05)
(1.54634e-21 -1.69779e-20 -4.39988e-05)
(1.48399e-21 -2.56508e-19 -5.96843e-05)
(7.1394e-22 2.44405e-19 -7.76e-05)
(-8.4748e-22 -1.60806e-21 -9.79049e-05)
(-4.16658e-21 -1.55397e-23 -0.000120789)
(6.60838e-21 -1.83054e-21 -0.00014648)
(-3.88746e-21 -2.50177e-19 -0.000175248)
(5.08888e-21 2.27335e-19 -0.000207399)
(-1.13753e-20 4.51745e-19 -0.000243251)
(-4.78878e-21 -1.20216e-20 -0.000283127)
(-4.74845e-21 4.64786e-19 -0.000327467)
(4.07517e-22 -1.41082e-20 -0.000376824)
(-1.23643e-20 4.51329e-19 -0.000431798)
(1.22873e-20 -4.68722e-19 -0.000492953)
(-9.20215e-21 4.47585e-19 -0.000560917)
(2.47644e-21 -4.65536e-19 -0.000636392)
(5.1891e-21 -9.29822e-21 -0.000720155)
(-2.57889e-21 1.36421e-20 -0.000813066)
(5.50483e-21 -8.80073e-21 -0.000916101)
(-1.88712e-20 4.1951e-19 -0.00103039)
(1.69843e-20 -4.47096e-19 -0.0011573)
(1.84953e-20 -4.15405e-19 -0.00129856)
(-1.52038e-20 4.17298e-19 -0.00145641)
(-1.07525e-21 -5.13384e-21 -0.001634)
(1.11269e-20 -1.20408e-22 -0.00183587)
(-1.27244e-20 -2.46067e-20 -0.00206898)
(5.3296e-20 -7.58209e-19 -0.00234444)
(1.64846e-20 5.60279e-20 -0.00268058)
(-7.0097e-20 7.13922e-19 -0.00310838)
(3.92394e-21 -1.22471e-20 -0.00368073)
(-1.13565e-20 -4.81005e-21 -0.00448766)
(1.09729e-19 -5.98998e-19 -0.00568056)
(-2.04155e-19 1.17633e-18 -0.00750835)
(2.08211e-19 -1.16862e-18 -0.0103683)
(7.05921e-20 8.44853e-20 -0.0148711)
(-1.56218e-19 5.1155e-19 -0.0219156)
(-1.63843e-19 3.52819e-19 -0.0327572)
(1.54862e-19 -4.18266e-19 -0.0490436)
(-2.19919e-20 1.92782e-20 -0.0727735)
(5.43293e-20 -1.71525e-20 -0.106104)
(1.63034e-19 -1.01247e-19 -0.150888)
(-1.76494e-19 1.58088e-19 -0.207865)
(-2.51433e-20 -4.05494e-20 -0.269231)
(4.0636e-22 -3.10809e-20 1.7495e-05)
(-3.64338e-22 1.57148e-20 1.20211e-05)
(6.82213e-22 -1.69723e-22 4.26364e-06)
(-6.08252e-22 -1.54614e-20 -5.97412e-06)
(-9.53618e-22 -1.43281e-21 -1.88182e-05)
(3.35249e-21 -2.42678e-19 -3.43773e-05)
(-4.7489e-21 4.59519e-19 -5.27701e-05)
(2.32441e-21 -2.47402e-19 -7.41405e-05)
(-1.8144e-21 1.49268e-20 -9.86655e-05)
(4.87076e-21 -2.70915e-19 -0.000126562)
(-5.85142e-21 2.47173e-19 -0.00015809)
(-4.19668e-21 4.71946e-19 -0.000193564)
(1.09351e-20 -9.54769e-19 -0.000233355)
(-1.31264e-20 9.537e-19 -0.000277902)
(1.73545e-20 -9.49227e-19 -0.000327704)
(-1.1494e-20 9.40678e-19 -0.000383282)
(-9.98401e-21 4.78539e-19 -0.000445185)
(-7.0439e-22 -3.74787e-21 -0.000514112)
(4.48575e-21 3.89433e-21 -0.00059098)
(-7.73853e-21 4.41384e-19 -0.000676747)
(-1.79265e-21 -4.63525e-19 -0.000772364)
(1.47256e-20 1.26899e-20 -0.000878891)
(-3.38339e-20 8.89896e-19 -0.000997523)
(2.57153e-20 -8.92813e-19 -0.00112959)
(2.26622e-21 -5.34907e-21 -0.00127658)
(-9.7092e-21 -9.06778e-23 -0.0014402)
(1.47694e-20 -1.3493e-20 -0.0016224)
(-4.79831e-21 1.23044e-22 -0.00182554)
(-5.26813e-21 -6.49607e-23 -0.00205253)
(5.01767e-21 1.94998e-22 -0.00230713)
(-3.71947e-21 1.44967e-21 -0.00259436)
(6.35162e-20 -7.88212e-19 -0.00292137)
(-5.76252e-20 8.10615e-19 -0.00329876)
(-1.60173e-20 2.16104e-22 -0.00374312)
(1.86641e-20 -1.02955e-20 -0.0042814)
(-9.92011e-20 7.23218e-19 -0.00495867)
(1.1564e-19 -7.26402e-19 -0.00585142)
(-2.25953e-20 2.18973e-21 -0.00708955)
(1.59692e-20 -9.26046e-23 -0.0088911)
(3.79667e-20 6.37977e-21 -0.0116144)
(-2.47155e-19 5.42112e-19 -0.0158307)
(3.66837e-19 -1.09882e-18 -0.0224183)
(-1.79098e-19 5.56705e-19 -0.032669)
(2.59737e-19 -4.25841e-19 -0.0483913)
(-2.51458e-19 5.01631e-19 -0.0719714)
(-5.85166e-19 5.17382e-19 -0.106335)
(1.1046e-18 -1.09628e-18 -0.154686)
(-5.4064e-19 5.53519e-19 -0.219774)
(1.86649e-20 -2.13547e-21 -0.30233)
(4.4947e-21 -3.47624e-20 -0.381199)
(-7.32535e-22 1.57953e-20 2.02475e-05)
(-2.97781e-22 6.05016e-20 1.15704e-05)
(2.02841e-21 -1.83685e-19 -7.81645e-07)
(-1.40311e-21 2.46479e-19 -1.68188e-05)
(-2.19324e-22 -1.09138e-19 -3.65614e-05)
(1.16557e-22 -1.45933e-20 -6.00907e-05)
(-4.74383e-22 1.53782e-20 -8.75552e-05)
(3.00897e-21 -1.85414e-22 -0.000119169)
(-2.85596e-21 -1.50326e-20 -0.000155209)
(-5.22006e-21 3.36938e-20 -0.000196021)
(-7.09611e-21 4.80004e-19 -0.000242017)
(1.84771e-20 -4.98876e-19 -0.000293689)
(-2.27726e-20 4.65361e-19 -0.000351614)
(1.90068e-20 -4.84069e-19 -0.000416471)
(-2.98869e-21 3.37671e-21 -0.00048903)
(1.09263e-20 4.73281e-23 -0.000570108)
(4.15399e-21 3.69473e-21 -0.000660572)
(-5.42764e-21 4.52156e-19 -0.000761514)
(2.03174e-20 -4.89276e-19 -0.000874333)
(6.30011e-21 2.68285e-20 -0.00100051)
(-4.59507e-20 9.32166e-19 -0.00114157)
(2.93785e-20 -9.34775e-19 -0.00129922)
(1.01166e-20 2.25482e-20 -0.00147538)
(-1.79525e-20 -2.32037e-22 -0.00167225)
(1.17473e-20 9.58775e-21 -0.00189229)
(-3.92428e-20 8.95561e-19 -0.00213829)
(3.24727e-20 -8.87111e-19 -0.00241354)
(2.82261e-21 9.57274e-21 -0.0027219)
(9.4715e-21 2.71746e-20 -0.00306811)
(-1.14482e-20 -5.46806e-22 -0.00345812)
(1.18413e-21 -1.29923e-20 -0.00389968)
(-3.71352e-20 1.31909e-20 -0.00440342)
(3.49107e-20 1.25641e-20 -0.00498461)
(-3.08539e-21 -2.51451e-20 -0.0056664)
(8.31161e-20 -7.36972e-19 -0.00648555)
(-7.42432e-20 7.59642e-19 -0.00750254)
(2.70417e-19 -1.46115e-18 -0.00881905)
(-2.48135e-19 1.47531e-18 -0.010607)
(3.07051e-19 -1.3799e-18 -0.0131545)
(7.10774e-20 1.31591e-19 -0.0169354)
(-3.52757e-19 1.31438e-18 -0.0227061)
(-1.20021e-19 -2.20383e-20 -0.0316312)
(1.63382e-20 3.851e-22 -0.0454303)
(-1.81947e-20 5.58339e-22 -0.0665276)
(5.37517e-20 1.65166e-21 -0.0981722)
(2.58402e-20 1.34801e-20 -0.144473)
(-1.12198e-19 5.09304e-21 -0.210193)
(6.39049e-20 4.93584e-21 -0.299784)
(-1.63726e-22 -3.07382e-22 -0.414476)
(3.57638e-20 6.32557e-22 -0.507227)
(-7.33006e-22 7.61481e-20 2.07704e-05)
(1.65052e-21 -4.64283e-20 6.35413e-06)
(-1.65007e-21 -1.63635e-20 -1.34214e-05)
(4.72864e-21 -2.27477e-19 -3.80893e-05)
(-2.36538e-21 2.29342e-19 -6.75711e-05)
(2.11834e-21 -2.26916e-19 -0.000101981)
(-1.11163e-20 5.00374e-19 -0.00014157)
(1.18139e-20 -7.00692e-19 -0.000186693)
(-7.64699e-21 4.9544e-19 -0.000237801)
(-6.12324e-21 4.82971e-19 -0.000295436)
(-2.20086e-21 3.96238e-21 -0.000360239)
(2.47319e-20 -9.48675e-19 -0.000432959)
(-2.17069e-20 9.87171e-19 -0.000514469)
(5.31944e-21 -4.64387e-19 -0.000605785)
(1.22882e-20 -4.66636e-19 -0.000708064)
(2.25704e-20 -4.591e-19 -0.000822543)
(-3.25512e-21 6.58941e-21 -0.000950559)
(3.86921e-20 -9.52017e-19 -0.00109378)
(3.01309e-20 -9.13934e-19 -0.00125427)
(6.57752e-21 2.11757e-20 -0.00143428)
(-2.72527e-20 9.49145e-19 -0.00163616)
(-2.00125e-20 -8.03325e-21 -0.0018626)
(1.22196e-20 8.89684e-21 -0.00211664)
(-5.14326e-20 9.18708e-19 -0.00240176)
(4.19476e-20 -9.33152e-19 -0.00272192)
(7.35088e-20 -8.96219e-19 -0.00308165)
(-7.47319e-20 9.25672e-19 -0.00348625)
(1.49846e-20 -1.99017e-20 -0.00394196)
(6.86969e-20 -8.93077e-19 -0.00445631)
(-9.62947e-20 9.15822e-19 -0.00503855)
(4.34949e-21 1.22738e-20 -0.00570045)
(-2.0898e-19 1.67652e-18 -0.00645755)
(1.8928e-19 -1.73929e-18 -0.00733129)
(4.81834e-20 6.17025e-20 -0.00835294)
(-2.68961e-19 1.58596e-18 -0.00957049)
(2.46838e-19 -1.65359e-18 -0.011061)
(-3.1374e-20 -3.26772e-21 -0.0129518)
(4.72178e-19 -1.49006e-18 -0.0154568)
(-4.42147e-19 1.53878e-18 -0.0189338)
(-6.57564e-20 -7.19996e-20 -0.0239726)
(6.76925e-19 -1.2994e-18 -0.0315189)
(-1.19153e-18 2.67905e-18 -0.0430374)
(-6.5012e-20 -1.5478e-19 -0.0607082)
(-8.70613e-20 -1.21502e-19 -0.0876424)
(7.66946e-19 -1.16522e-18 -0.12811)
(3.9208e-20 6.25221e-20 -0.187796)
(-8.629e-19 7.71137e-19 -0.274098)
(8.46032e-19 -8.4812e-19 -0.395903)
(9.04136e-21 2.87581e-20 -0.559585)
(9.236e-21 -2.70342e-21 -0.671955)
(6.0707e-22 -1.58547e-20 1.79947e-05)
(1.71991e-21 -1.35275e-19 -8.17182e-06)
(-1.83641e-21 1.2199e-19 -3.95593e-05)
(-1.2573e-21 -1.71616e-20 -7.62467e-05)
(5.39026e-21 -2.26057e-19 -0.000118459)
(-4.98283e-21 2.32475e-19 -0.000166541)
(-5.98163e-21 4.69605e-19 -0.000220944)
(-5.06996e-21 -1.94189e-20 -0.000282222)
(2.19005e-21 -4.5695e-21 -0.000351029)
(1.45826e-20 -5.00728e-19 -0.000428121)
(-1.19305e-20 4.68474e-19 -0.000514369)
(1.80984e-20 -9.91067e-19 -0.000610774)
(-4.28376e-21 4.95359e-19 -0.000718485)
(-3.62137e-21 -1.86234e-20 -0.000838825)
(-4.83557e-21 -2.22716e-20 -0.000973285)
(2.89504e-20 -9.72187e-19 -0.00112346)
(-1.62339e-21 -2.01741e-20 -0.00129106)
(2.78897e-20 -9.90194e-19 -0.00147822)
(-5.36946e-21 -7.71511e-21 -0.00168753)
(-1.6938e-22 1.18719e-22 -0.00192177)
(1.13928e-20 8.39654e-21 -0.00218385)
(-5.36338e-20 9.52379e-19 -0.00247708)
(4.79265e-20 -9.72773e-19 -0.00280515)
(1.27176e-20 8.30159e-21 -0.00317221)
(-8.65418e-21 -1.49055e-20 -0.00358287)
(-6.14461e-21 9.86081e-21 -0.00404232)
(-7.51843e-20 9.18919e-19 -0.00455641)
(1.61486e-19 -1.87445e-18 -0.00513176)
(-7.66903e-20 9.77312e-19 -0.00577603)
(-1.94284e-19 1.81103e-18 -0.0064982)
(-3.04347e-20 -4.5577e-20 -0.00730909)
(2.47408e-21 -2.66688e-20 -0.00822235)
(-6.58903e-20 -5.38818e-20 -0.00925628)
(2.61481e-19 -1.80898e-18 -0.0104372)
(4.00761e-19 -1.67426e-18 -0.0118063)
(-3.58244e-19 1.75704e-18 -0.0134315)
(-3.37674e-20 -5.46253e-20 -0.0154307)
(4.74242e-19 -1.59997e-18 -0.0180108)
(-4.18854e-19 1.69444e-18 -0.0215335)
(-6.67532e-19 1.50455e-18 -0.0266195)
(5.68128e-19 -1.58879e-18 -0.0343021)
(7.77607e-20 -1.11269e-20 -0.0462369)
(8.65228e-19 -1.40258e-18 -0.0649668)
(1.19434e-19 1.21906e-19 -0.0942322)
(-9.98551e-19 1.37325e-18 -0.139334)
(-1.61165e-20 -3.93178e-20 -0.207629)
(3.33237e-20 5.23176e-22 -0.309858)
(-3.3601e-20 1.56234e-20 -0.465009)
(-5.07879e-19 5.31289e-19 -0.709772)
(4.99187e-19 -5.40515e-19 -0.974468)
(-1.07306e-20 -3.16311e-21 0.0100558)
(-1.07323e-20 -4.87774e-22 0.00522978)
(1.00619e-20 1.00513e-20 0.00114632)
(-6.9489e-21 2.43488e-21 -0.00226608)
(7.47299e-21 -1.19057e-20 -0.00508525)
(5.46432e-23 3.52083e-21 -0.00739059)
(-1.71906e-22 -9.72834e-23 -0.00925635)
(-5.55349e-21 1.2146e-23 -0.0107463)
(5.39846e-21 -1.1807e-23 -0.0119137)
(-1.60816e-22 3.5172e-25 -0.0128034)
(-1.54149e-22 3.37139e-25 -0.0134532)
(4.53579e-21 -9.92023e-24 -0.0138945)
(-4.55037e-21 9.9521e-24 -0.0141548)
(-4.02234e-21 8.79727e-24 -0.014258)
(3.1941e-22 -9.24853e-22 -0.0142246)
(6.13872e-21 8.82982e-21 -0.0140733)
(-2.3531e-21 -6.42705e-21 -0.0138213)
(-6.37443e-23 -8.70834e-22 -0.0134839)
(-2.28242e-23 6.31138e-22 -0.0130754)
(-2.43709e-21 -2.13932e-20 -0.0126085)
(2.47164e-21 2.06353e-20 -0.0120943)
(-1.79152e-21 -2.5644e-20 -0.0115428)
(1.35295e-21 1.43051e-21 -0.010963)
(-1.72587e-21 1.11531e-23 -0.0103641)
(1.14844e-21 2.35955e-21 -0.0097555)
(-4.19617e-22 2.36281e-23 -0.00914384)
(-9.67712e-22 2.11648e-24 -0.00853459)
(4.40582e-22 -1.12861e-23 -0.00793296)
(2.17462e-22 3.29171e-21 -0.00734355)
(-1.66452e-23 1.635e-23 -0.00677027)
(-2.15234e-22 -3.74587e-21 -0.00621641)
(2.03937e-22 3.95687e-21 -0.00568465)
(-1.53788e-22 -4.17445e-21 -0.00517715)
(9.39855e-22 4.00532e-20 -0.00469554)
(-9.9769e-22 -4.03355e-20 -0.00424099)
(-5.44586e-22 -3.40088e-20 -0.00381428)
(1.25429e-21 7.42253e-20 -0.00341576)
(-7.01624e-22 -4.04227e-20 -0.00304548)
(-1.15257e-22 -5.3018e-21 -0.00270317)
(1.13318e-22 5.49561e-21 -0.00238829)
(-5.6826e-23 7.55988e-25 -0.00210009)
(2.24273e-22 5.78361e-21 -0.00183761)
(-3.8924e-22 -2.99675e-20 -0.00159975)
(3.54593e-22 3.01962e-20 -0.00138526)
(-8.38474e-23 -6.23618e-21 -0.00119281)
(2.32227e-22 1.9155e-20 -0.00102096)
(3.29545e-23 -6.37757e-21 -0.000868225)
(-1.4397e-22 -1.32109e-20 -0.00073303)
(3.45856e-23 6.65013e-21 -0.000613685)
(-1.0538e-22 -6.8065e-21 -0.000508356)
(-1.54595e-20 2.53965e-20 0.0291214)
(3.13548e-20 -9.43991e-21 0.0147658)
(-2.53799e-20 -2.25007e-20 0.00252622)
(8.34055e-21 2.29317e-20 -0.00762056)
(-8.74219e-21 -2.24267e-20 -0.0159438)
(-1.26313e-20 6.14999e-21 -0.0227102)
(1.12142e-20 6.69327e-21 -0.0281593)
(9.5612e-21 1.42807e-20 -0.0324904)
(3.30279e-21 -2.58141e-20 -0.0358678)
(-2.22885e-20 6.48199e-21 -0.0384263)
(2.09113e-20 -5.0135e-21 -0.04028)
(1.54474e-21 4.33756e-21 -0.041522)
(-1.33907e-20 9.73936e-21 -0.042234)
(-1.50131e-20 -2.18947e-20 -0.0424862)
(7.48239e-21 -1.85081e-20 -0.0423387)
(1.56771e-20 2.71662e-20 -0.0418473)
(-7.07814e-21 3.55548e-21 -0.0410624)
(-6.35348e-22 -1.96665e-21 -0.0400294)
(1.17087e-23 -1.0433e-22 -0.0387898)
(5.88418e-22 -1.28693e-24 -0.0373811)
(1.66374e-21 2.55109e-23 -0.0358365)
(-1.83681e-21 -3.35703e-21 -0.0341844)
(2.04498e-20 1.27587e-19 -0.032451)
(-2.28169e-20 -1.36068e-19 -0.030665)
(2.35327e-20 1.57887e-19 -0.0288507)
(-1.21801e-20 -7.121e-20 -0.0270305)
(-2.32813e-20 -1.84964e-19 -0.0252197)
(1.0998e-20 9.46514e-20 -0.0234332)
(4.8797e-22 -2.82531e-21 -0.0216844)
(-1.3683e-21 -7.22581e-21 -0.0199846)
(7.1565e-22 3.74691e-21 -0.0183435)
(-1.08904e-21 -1.20995e-20 -0.0167687)
(9.59424e-21 1.3348e-19 -0.0152666)
(-2.02569e-20 -2.86512e-19 -0.0138418)
(9.23077e-21 1.39669e-19 -0.0124977)
(-9.9785e-22 -1.44355e-20 -0.0112364)
(2.41989e-22 4.97644e-21 -0.010059)
(-1.57589e-23 -5.88037e-23 -0.00896534)
(-4.40601e-21 -9.20661e-20 -0.00795468)
(3.75113e-21 8.14898e-20 -0.00702535)
(2.79895e-21 8.02677e-20 -0.00617505)
(-4.11262e-21 -1.09475e-19 -0.0054009)
(1.01555e-22 6.05382e-21 -0.00469959)
(8.71146e-22 3.08981e-20 -0.0040674)
(-1.91648e-21 -5.56522e-20 -0.00350033)
(3.51272e-23 -6.33784e-21 -0.00299416)
(-1.21975e-21 -4.55195e-20 -0.00254444)
(-2.3107e-22 -6.95901e-21 -0.00214646)
(2.85728e-22 1.31218e-20 -0.00179512)
(3.44865e-22 2.02699e-20 -0.00148467)
(-1.41147e-20 -1.07347e-21 0.0450182)
(-1.46898e-20 -1.59976e-20 0.0213414)
(3.69154e-20 3.00838e-20 0.000997392)
(-4.40204e-20 -1.2592e-20 -0.0155709)
(1.81418e-20 1.20647e-20 -0.0289558)
(2.23805e-20 1.81052e-20 -0.0397066)
(-1.35679e-20 -5.68202e-20 -0.048278)
(2.41938e-20 -1.14462e-20 -0.0550247)
(-2.92034e-20 4.24073e-20 -0.0602322)
(-2.66692e-20 3.44485e-22 -0.0641264)
(6.27734e-20 -1.27423e-20 -0.0668979)
(-4.22587e-20 1.65649e-20 -0.0686997)
(6.28175e-21 -1.11877e-20 -0.0696596)
(-3.24168e-21 -8.56417e-21 -0.0698902)
(6.67694e-20 7.86907e-20 -0.0694911)
(-3.44141e-21 3.64646e-20 -0.0685512)
(-6.06502e-20 -9.79447e-20 -0.0671506)
(1.02696e-20 -3.34107e-21 -0.0653619)
(-6.63447e-21 2.48045e-22 -0.0632514)
(3.28545e-22 -2.36655e-21 -0.0608792)
(3.76553e-20 1.1611e-19 -0.0582978)
(-3.73417e-20 -1.05809e-19 -0.0555529)
(-3.90069e-20 -1.42305e-19 -0.0526868)
(4.22025e-20 1.45064e-19 -0.0497408)
(-7.3973e-23 7.25931e-21 -0.046758)
(-6.86074e-22 -5.74847e-21 -0.0437716)
(2.14398e-22 6.93855e-21 -0.0408076)
(-3.48454e-20 -2.08365e-19 -0.0378886)
(3.80993e-20 2.14191e-19 -0.0350356)
(-3.47268e-20 -2.27074e-19 -0.0322664)
(3.71179e-20 2.41974e-19 -0.029596)
(8.53839e-22 8.45982e-21 -0.0270366)
(3.28695e-20 2.81856e-19 -0.0245976)
(-6.44074e-20 -5.67305e-19 -0.0222865)
(3.31636e-20 3.03841e-19 -0.0201082)
(1.55976e-20 1.68805e-19 -0.0180658)
(-1.3895e-20 -1.49084e-19 -0.0161608)
(2.17152e-22 3.00788e-23 -0.0143928)
(-5.08717e-22 -1.25263e-22 -0.0127602)
(-5.87995e-23 1.24343e-22 -0.0112601)
(1.14708e-20 1.84736e-19 -0.0098885)
(-1.11199e-20 -1.73643e-19 -0.0086407)
(9.22002e-22 1.2156e-20 -0.00751113)
(-5.00875e-22 -1.6746e-23 -0.00649365)
(4.46306e-21 1.00644e-19 -0.00558167)
(-8.26276e-21 -1.90903e-19 -0.00476824)
(4.07876e-21 1.02862e-19 -0.00404607)
(-2.09438e-21 -5.31404e-20 -0.00340739)
(1.578e-21 3.96416e-20 -0.00284358)
(3.7527e-22 1.33307e-20 -0.00234435)
(1.9383e-21 2.68518e-20 0.0547409)
(8.69234e-21 -5.4677e-20 0.0221701)
(-7.30458e-20 1.61569e-20 -0.00599064)
(1.16626e-19 8.0164e-20 -0.0282673)
(-2.7653e-20 -1.09568e-19 -0.0458303)
(-1.00777e-20 2.76135e-20 -0.0596746)
(-5.35232e-21 1.45575e-20 -0.0705449)
(-4.06955e-22 1.16369e-20 -0.0789676)
(-4.2223e-20 -1.04519e-20 -0.0853547)
(8.06565e-20 -1.43726e-20 -0.0900316)
(-2.57641e-20 1.28692e-20 -0.09325)
(-1.31179e-20 6.67645e-22 -0.0952123)
(1.87527e-20 9.96917e-21 -0.0960879)
(-9.20599e-20 -1.00744e-19 -0.0960265)
(7.57565e-20 7.94304e-20 -0.0951587)
(-8.80075e-21 1.31482e-20 -0.0936006)
(8.03142e-21 -8.5371e-21 -0.0914564)
(9.45632e-20 1.88739e-19 -0.0888208)
(-9.8267e-20 -1.74802e-19 -0.0857803)
(5.35015e-23 -1.04775e-20 -0.0824129)
(-2.27023e-21 -8.40697e-23 -0.0787885)
(2.50123e-21 4.82834e-22 -0.0749658)
(1.74289e-21 -6.43472e-23 -0.0709989)
(-3.6698e-21 5.4242e-21 -0.0669413)
(4.02111e-21 4.27618e-22 -0.0628472)
(1.08057e-21 7.96746e-21 -0.0587615)
(-1.08148e-19 -4.34597e-19 -0.05472)
(1.08672e-19 4.24688e-19 -0.0507497)
(-2.85842e-21 2.6665e-21 -0.0468777)
(-4.80251e-20 -2.53679e-19 -0.0431268)
(5.1937e-20 2.61282e-19 -0.039516)
(-4.58262e-22 5.74704e-22 -0.0360609)
(-1.77443e-22 -1.50423e-22 -0.0327734)
(-4.55574e-20 -3.1231e-19 -0.0296625)
(8.8934e-20 6.27207e-19 -0.0267343)
(-8.39525e-20 -6.39745e-19 -0.0239924)
(8.076e-20 6.61608e-19 -0.0214378)
(-7.681e-20 -6.82372e-19 -0.0190699)
(3.72774e-20 3.46508e-19 -0.0168858)
(1.67969e-20 1.82367e-19 -0.0148812)
(-1.47277e-20 -1.59653e-19 -0.0130505)
(-1.2212e-21 -1.19382e-20 -0.0113869)
(-1.4053e-20 -1.94775e-19 -0.00988259)
(2.94974e-20 4.18875e-19 -0.00852912)
(-1.36107e-20 -1.99421e-19 -0.00731741)
(1.39206e-22 2.32696e-22 -0.00623793)
(5.63517e-22 1.2938e-20 -0.0052807)
(-1.20555e-22 -9.38743e-23 -0.00443502)
(-5.50068e-22 -1.3302e-20 -0.00368867)
(1.18743e-21 2.70564e-20 -0.00302592)
(2.73716e-20 9.72521e-23 0.054266)
(3.4243e-22 4.00559e-22 0.0132742)
(-6.17667e-20 4.4047e-22 -0.0218377)
(9.12686e-20 -3.15099e-22 -0.0483849)
(-2.73192e-20 -6.0757e-23 -0.0685831)
(-4.35563e-20 -8.61277e-22 -0.0840804)
(1.42918e-20 1.60184e-22 -0.095975)
(-1.14634e-20 -2.92209e-22 -0.10499)
(9.24458e-20 -2.53426e-20 -0.111645)
(5.6298e-20 1.26402e-19 -0.116332)
(3.00892e-21 7.69285e-20 -0.119347)
(-8.95809e-20 -1.8149e-19 -0.120931)
(1.4248e-19 2.26902e-19 -0.121285)
(-1.60803e-19 -2.18443e-19 -0.120578)
(7.71209e-20 1.46132e-19 -0.118963)
(-8.85858e-20 -1.53476e-19 -0.116571)
(5.30815e-21 -5.77481e-21 -0.113525)
(-2.45355e-20 -2.67611e-21 -0.109932)
(2.07702e-20 -4.4232e-21 -0.105893)
(1.8507e-21 3.71828e-21 -0.101498)