/*--------------------------------*- C++ -*----------------------------------*\
| =========                 |                                                 |
| \\      /  F ield         | OpenFOAM: The Open Source CFD Toolbox           |
|  \\    /   O peration     | Version:  2412                                  |
|   \\  /    A nd           | Website:  www.openfoam.com                      |
|    \\/     M anipulation  |                                                 |
\*---------------------------------------------------------------------------*/
FoamFile
{
    version     2.0;
    format      ascii;
    arch        "LSB;label=32;scalar=64";
    class       volScalarField;
    location    "16.5";
    object      p;
}
// * * * * * * * * * * * * * * * * * * * * * * * * * * * * * * * * * * * * * //

dimensions      [0 2 -2 0 0 0 0];

internalField   nonuniform List<scalar> 
5285
(
-9.11834e-06
-8.45071e-06
-7.82696e-06
-7.24472e-06
-6.7016e-06
-6.19527e-06
-5.72352e-06
-5.28424e-06
-4.87543e-06
-4.49516e-06
-4.14162e-06
-3.81308e-06
-3.5079e-06
-3.22455e-06
-2.96155e-06
-2.71756e-06
-2.49127e-06
-2.28148e-06
-2.08704e-06
-1.90691e-06
-1.7401e-06
-1.58567e-06
-1.44276e-06
-1.31055e-06
-1.18831e-06
-1.07532e-06
-9.7093e-07
-8.74542e-07
-7.8558e-07
-7.03516e-07
-6.27857e-07
-5.58152e-07
-4.93983e-07
-4.34953e-07
-3.8069e-07
-3.30853e-07
-2.85116e-07
-2.43201e-07
-2.0478e-07
-1.69689e-07
-1.37475e-07
-1.08365e-07
-8.12109e-08
-5.76994e-08
-3.38958e-08
-1.68802e-08
7.21337e-09
1.32955e-08
4.68807e-08
2.87312e-08
9.41746e-08
1.95088e-08
1.64737e-07
-3.12055e-08
2.79258e-07
-1.40914e-07
4.50586e-07
-3.06439e-07
6.54176e-07
-4.69049e-07
7.96124e-07
-4.98101e-07
7.3038e-07
-2.58611e-07
3.87302e-07
2.10815e-07
-3.64212e-08
5.70377e-07
-8.38073e-08
3.70372e-07
6.7841e-07
-9.25585e-06
-8.58401e-06
-7.9562e-06
-7.36999e-06
-6.82297e-06
-6.31278e-06
-5.8372e-06
-5.3941e-06
-4.98146e-06
-4.59737e-06
-4.24e-06
-3.90762e-06
-3.59861e-06
-3.31144e-06
-3.04464e-06
-2.79686e-06
-2.56681e-06
-2.3533e-06
-2.1552e-06
-1.97147e-06
-1.80112e-06
-1.64323e-06
-1.49695e-06
-1.36146e-06
-1.23604e-06
-1.11997e-06
-1.01262e-06
-9.13382e-07
-8.21688e-07
-7.37011e-07
-6.5886e-07
-5.86787e-07
-5.20372e-07
-4.59219e-07
-4.02953e-07
-3.51231e-07
-3.03727e-07
-2.60158e-07
-2.20192e-07
-1.83665e-07
-1.50111e-07
-1.19772e-07
-9.14582e-08
-6.69231e-08
-4.20906e-08
-2.42939e-08
8.08791e-10
7.30113e-09
4.21275e-08
2.36898e-08
9.11211e-08
1.48235e-08
1.63633e-07
-3.62049e-08
2.80374e-07
-1.4662e-07
4.53674e-07
-3.12313e-07
6.57853e-07
-4.73315e-07
7.9823e-07
-4.99088e-07
7.30333e-07
-2.57673e-07
3.88564e-07
2.08659e-07
-2.86899e-08
5.6155e-07
-6.84432e-08
3.55977e-07
7.01154e-07
-9.38293e-06
-8.70786e-06
-8.0769e-06
-7.48754e-06
-6.93736e-06
-6.42399e-06
-5.94518e-06
-5.49882e-06
-5.08286e-06
-4.6954e-06
-4.33462e-06
-3.99879e-06
-3.68629e-06
-3.39559e-06
-3.12526e-06
-2.87394e-06
-2.64036e-06
-2.42334e-06
-2.22176e-06
-2.03459e-06
-1.86085e-06
-1.69964e-06
-1.5501e-06
-1.41144e-06
-1.28293e-06
-1.16388e-06
-1.05364e-06
-9.51619e-07
-8.57253e-07
-7.70019e-07
-6.89429e-07
-6.15034e-07
-5.46413e-07
-4.83172e-07
-4.24937e-07
-3.71361e-07
-3.22116e-07
-2.76917e-07
-2.35427e-07
-1.97484e-07
-1.62609e-07
-1.31056e-07
-1.01595e-07
-7.60506e-08
-5.01999e-08
-3.16336e-08
-5.52772e-09
1.36323e-09
3.7432e-08
1.86862e-08
8.81216e-08
1.015e-08
1.62594e-07
-4.12327e-08
2.81589e-07
-1.52425e-07
4.5694e-07
-3.18411e-07
6.61846e-07
-4.77974e-07
8.00791e-07
-5.00554e-07
7.30672e-07
-2.56959e-07
3.8965e-07
2.07069e-07
-2.21737e-08
5.54264e-07
-5.52298e-08
3.43554e-07
7.20418e-07
-9.49955e-06
-8.82226e-06
-8.18902e-06
-7.59733e-06
-7.04474e-06
-6.52886e-06
-6.04745e-06
-5.59838e-06
-5.17962e-06
-4.78925e-06
-4.42547e-06
-4.08656e-06
-3.77091e-06
-3.477e-06
-3.20341e-06
-2.9488e-06
-2.71192e-06
-2.49159e-06
-2.28671e-06
-2.09626e-06
-1.91928e-06
-1.75487e-06
-1.6022e-06
-1.46048e-06
-1.32898e-06
-1.20702e-06
-1.09397e-06
-9.89236e-07
-8.92263e-07
-8.02528e-07
-7.1955e-07
-6.42878e-07
-5.72094e-07
-5.06803e-07
-4.46631e-07
-3.91232e-07
-3.40274e-07
-2.93469e-07
-2.50478e-07
-2.11138e-07
-1.7496e-07
-1.42209e-07
-1.11617e-07
-8.5075e-08
-5.82191e-08
-3.88916e-08
-1.17964e-08
-4.5082e-09
3.27824e-08
1.37422e-08
8.51426e-08
5.54127e-09
1.61541e-07
-4.61764e-08
2.82748e-07
-1.58121e-07
4.60114e-07
-3.24395e-07
6.65751e-07
-4.8257e-07
8.03323e-07
-5.0203e-07
7.30986e-07
-2.56169e-07
3.90414e-07
2.06024e-07
-1.6704e-08
5.48268e-07
-4.39511e-08
3.33026e-07
7.36134e-07
-9.60579e-06
-8.92724e-06
-8.29263e-06
-7.69942e-06
-7.14516e-06
-6.62745e-06
-6.14405e-06
-5.69283e-06
-5.27177e-06
-4.87895e-06
-4.51258e-06
-4.17096e-06
-3.85249e-06
-3.55568e-06
-3.2791e-06
-3.02145e-06
-2.78148e-06
-2.55804e-06
-2.35004e-06
-2.15648e-06
-1.9764e-06
-1.80893e-06
-1.65324e-06
-1.50856e-06
-1.37416e-06
-1.24939e-06
-1.13361e-06
-1.02623e-06
-9.26713e-07
-8.34536e-07
-7.49219e-07
-6.70317e-07
-5.97411e-07
-5.30107e-07
-4.68032e-07
-4.10841e-07
-3.58196e-07
-3.09811e-07
-2.65341e-07
-2.24625e-07
-1.87161e-07
-1.53229e-07
-1.21521e-07
-9.39941e-08
-6.61464e-08
-4.60659e-08
-1.79961e-08
-1.03107e-08
2.81787e-08
8.86157e-09
8.21814e-08
1.00464e-09
1.60466e-07
-5.10213e-08
2.83831e-07
-1.6368e-07
4.63162e-07
-3.3022e-07
6.69516e-07
-4.87039e-07
8.05758e-07
-5.03447e-07
7.31212e-07
-2.55256e-07
3.90838e-07
2.05515e-07
-1.22331e-08
5.43503e-07
-3.45315e-08
3.24348e-07
7.48379e-07
-9.70167e-06
-9.02285e-06
-8.38775e-06
-7.79385e-06
-7.23866e-06
-6.7198e-06
-6.23502e-06
-5.7822e-06
-5.35933e-06
-4.96452e-06
-4.59597e-06
-4.25201e-06
-3.93106e-06
-3.63163e-06
-3.35234e-06
-3.09189e-06
-2.84905e-06
-2.6227e-06
-2.41175e-06
-2.21523e-06
-2.03221e-06
-1.86181e-06
-1.70322e-06
-1.55568e-06
-1.41848e-06
-1.29098e-06
-1.17254e-06
-1.06259e-06
-9.60593e-07
-8.66029e-07
-7.78426e-07
-6.97339e-07
-6.22353e-07
-5.53075e-07
-4.89132e-07
-4.30179e-07
-3.75876e-07
-3.25935e-07
-2.80009e-07
-2.37938e-07
-1.99208e-07
-1.64111e-07
-1.31303e-07
-1.02804e-07
-7.39781e-08
-5.31532e-08
-2.41236e-08
-1.60424e-08
2.36243e-08
4.04457e-09
7.92425e-08
-3.46262e-09
1.59377e-07
-5.5776e-08
2.84853e-07
-1.69119e-07
4.66107e-07
-3.35912e-07
6.73172e-07
-4.91415e-07
8.08128e-07
-5.04833e-07
7.31375e-07
-2.54237e-07
3.90936e-07
2.05527e-07
-8.73874e-09
5.39934e-07
-2.69288e-08
3.17475e-07
7.57264e-07
-9.78727e-06
-9.10915e-06
-8.47447e-06
-7.88068e-06
-7.3253e-06
-6.80595e-06
-6.3204e-06
-5.86653e-06
-5.44235e-06
-5.04599e-06
-4.67566e-06
-4.32973e-06
-4.00662e-06
-3.70488e-06
-3.42314e-06
-3.16013e-06
-2.91464e-06
-2.68556e-06
-2.47185e-06
-2.27253e-06
-2.0867e-06
-1.91349e-06
-1.75212e-06
-1.60183e-06
-1.46193e-06
-1.33178e-06
-1.21077e-06
-1.09832e-06
-9.93898e-07
-8.97004e-07
-8.07165e-07
-7.2394e-07
-6.46916e-07
-5.75702e-07
-5.09925e-07
-4.49241e-07
-3.93309e-07
-3.41839e-07
-2.9448e-07
-2.51074e-07
-2.11096e-07
-1.74852e-07
-1.40959e-07
-1.11502e-07
-8.17118e-08
-6.01515e-08
-3.01767e-08
-2.17016e-08
1.91213e-08
-7.07883e-10
7.63284e-08
-7.86095e-09
1.58277e-07
-6.0443e-08
2.85821e-07
-1.74444e-07
4.68957e-07
-3.41483e-07
6.76732e-07
-4.95707e-07
8.10445e-07
-5.06195e-07
7.31482e-07
-2.53118e-07
3.90718e-07
2.0604e-07
-6.18505e-09
5.37517e-07
-2.10804e-08
3.12349e-07
7.62922e-07
-9.86267e-06
-9.18622e-06
-8.55284e-06
-7.95998e-06
-7.40514e-06
-6.88597e-06
-6.40024e-06
-5.94587e-06
-5.52087e-06
-5.12339e-06
-4.75169e-06
-4.40414e-06
-4.07919e-06
-3.77543e-06
-3.49151e-06
-3.22617e-06
-2.97825e-06
-2.74664e-06
-2.53033e-06
-2.32838e-06
-2.13987e-06
-1.96399e-06
-1.79995e-06
-1.64701e-06
-1.50451e-06
-1.37179e-06
-1.24828e-06
-1.1334e-06
-1.02662e-06
-9.27451e-07
-8.35428e-07
-7.50112e-07
-6.71093e-07
-5.97981e-07
-5.30406e-07
-4.68023e-07
-4.1049e-07
-3.57516e-07
-3.08748e-07
-2.64028e-07
-2.22823e-07
-1.85448e-07
-1.50487e-07
-1.20085e-07
-8.93443e-08
-6.70579e-08
-3.61528e-08
-2.7286e-08
1.46717e-08
-5.39413e-09
7.34408e-08
-1.21893e-08
1.57168e-07
-6.5022e-08
2.86735e-07
-1.79655e-07
4.71716e-07
-3.46931e-07
6.80194e-07
-4.99914e-07
8.12704e-07
-5.07528e-07
7.31527e-07
-2.51898e-07
3.90194e-07
2.07035e-07
-4.529e-09
5.36194e-07
-1.69123e-08
3.08904e-07
7.65499e-07
-9.92796e-06
-9.25417e-06
-8.62297e-06
-8.03183e-06
-7.47826e-06
-6.95992e-06
-6.47461e-06
-6.02026e-06
-5.59492e-06
-5.19677e-06
-4.82408e-06
-4.47526e-06
-4.14881e-06
-3.84331e-06
-3.55746e-06
-3.29003e-06
-3.03988e-06
-2.80594e-06
-2.58721e-06
-2.38276e-06
-2.19173e-06
-2.0133e-06
-1.8467e-06
-1.69122e-06
-1.54619e-06
-1.41101e-06
-1.28506e-06
-1.16782e-06
-1.05875e-06
-9.57364e-07
-8.63208e-07
-7.75848e-07
-6.94876e-07
-6.19906e-07
-5.50567e-07
-4.86517e-07
-4.27412e-07
-3.7296e-07
-3.22807e-07
-2.76796e-07
-2.34382e-07
-1.95895e-07
-1.59883e-07
-1.28549e-07
-9.68726e-08
-7.38698e-08
-4.20494e-08
-3.27936e-08
1.02776e-08
-1.00126e-08
7.05816e-08
-1.64465e-08
1.56052e-07
-6.95126e-08
2.87598e-07
-1.84752e-07
4.74384e-07
-3.52256e-07
6.83559e-07
-5.04032e-07
8.14902e-07
-5.08827e-07
7.31507e-07
-2.50575e-07
3.89374e-07
2.08485e-07
-3.72484e-09
5.35903e-07
-1.43436e-08
3.07066e-07
7.65159e-07
-9.98328e-06
-9.31311e-06
-8.68497e-06
-8.09634e-06
-7.54475e-06
-7.02789e-06
-6.54358e-06
-6.08978e-06
-5.66457e-06
-5.26617e-06
-4.89288e-06
-4.54315e-06
-4.21549e-06
-3.90853e-06
-3.62101e-06
-3.35172e-06
-3.09955e-06
-2.86345e-06
-2.64247e-06
-2.43569e-06
-2.24226e-06
-2.0614e-06
-1.89236e-06
-1.73444e-06
-1.58699e-06
-1.44941e-06
-1.32112e-06
-1.20158e-06
-1.09028e-06
-9.86734e-07
-8.90497e-07
-8.0114e-07
-7.18258e-07
-6.41468e-07
-5.70402e-07
-5.04716e-07
-4.44068e-07
-3.88166e-07
-3.36653e-07
-2.89372e-07
-2.45771e-07
-2.06189e-07
-1.69142e-07
-1.36891e-07
-1.04294e-07
-8.05844e-08
-4.78643e-08
-3.82224e-08
5.94091e-09
-1.45617e-08
6.77523e-08
-2.06318e-08
1.54931e-07
-7.39146e-08
2.88411e-07
-1.89735e-07
4.76962e-07
-3.57457e-07
6.86826e-07
-5.08059e-07
8.17035e-07
-5.10086e-07
7.31419e-07
-2.49151e-07
3.88269e-07
2.10368e-07
-3.72536e-09
5.36583e-07
-1.32889e-08
3.06757e-07
7.62077e-07
-1.00288e-05
-9.36318e-06
-8.73896e-06
-8.15361e-06
-7.60471e-06
-7.08996e-06
-6.60722e-06
-6.15449e-06
-5.72988e-06
-5.33165e-06
-4.95814e-06
-4.60782e-06
-4.27926e-06
-3.97113e-06
-3.68219e-06
-3.41126e-06
-3.15727e-06
-2.9192e-06
-2.69613e-06
-2.48716e-06
-2.29148e-06
-2.10831e-06
-1.93694e-06
-1.77667e-06
-1.62689e-06
-1.487e-06
-1.35644e-06
-1.23467e-06
-1.1212e-06
-1.01556e-06
-9.17289e-07
-8.25981e-07
-7.41233e-07
-6.62663e-07
-5.89905e-07
-5.22617e-07
-4.60455e-07
-4.0313e-07
-3.5028e-07
-3.01752e-07
-2.56984e-07
-2.16327e-07
-1.78262e-07
-1.45109e-07
-1.11605e-07
-8.71994e-08
-5.35951e-08
-4.35705e-08
1.66345e-09
-1.90402e-08
6.49548e-08
-2.47443e-08
1.53805e-07
-7.8228e-08
2.89177e-07
-1.94606e-07
4.79453e-07
-3.62537e-07
6.89996e-07
-5.11995e-07
8.19103e-07
-5.11303e-07
7.31261e-07
-2.47628e-07
3.86892e-07
2.12657e-07
-4.48207e-09
5.3817e-07
-1.36596e-08
3.07891e-07
7.56435e-07
-1.00646e-05
-9.40455e-06
-8.78508e-06
-8.20379e-06
-7.65826e-06
-7.14624e-06
-6.66563e-06
-6.21447e-06
-5.79092e-06
-5.39326e-06
-5.01989e-06
-4.66933e-06
-4.34018e-06
-4.03114e-06
-3.74101e-06
-3.46866e-06
-3.21305e-06
-2.97319e-06
-2.74819e-06
-2.53718e-06
-2.33938e-06
-2.15403e-06
-1.98042e-06
-1.81792e-06
-1.66589e-06
-1.52378e-06
-1.39102e-06
-1.26709e-06
-1.15151e-06
-1.04382e-06
-9.43577e-07
-8.50366e-07
-7.63794e-07
-6.83483e-07
-6.09071e-07
-5.40212e-07
-4.76567e-07
-4.17845e-07
-3.63685e-07
-3.13933e-07
-2.68019e-07
-2.26304e-07
-1.87239e-07
-1.53198e-07
-1.18803e-07
-9.37121e-08
-5.92395e-08
-4.8836e-08
-2.55291e-09
-2.34467e-08
6.21908e-08
-2.87833e-08
1.52678e-07
-8.24526e-08
2.89898e-07
-1.99365e-07
4.8186e-07
-3.67494e-07
6.93071e-07
-5.15838e-07
8.21104e-07
-5.12475e-07
7.31033e-07
-2.4601e-07
3.85257e-07
2.15325e-07
-5.94572e-09
5.406e-07
-1.53644e-08
3.10381e-07
7.48426e-07
-1.0091e-05
-9.43738e-06
-8.82351e-06
-8.24701e-06
-7.70553e-06
-7.19685e-06
-6.71892e-06
-6.26982e-06
-5.84776e-06
-5.45108e-06
-5.07821e-06
-4.72773e-06
-4.39827e-06
-4.08858e-06
-3.7975e-06
-3.52395e-06
-3.26691e-06
-3.02544e-06
-2.79866e-06
-2.58576e-06
-2.38596e-06
-2.19854e-06
-2.02282e-06
-1.85817e-06
-1.704e-06
-1.55973e-06
-1.42485e-06
-1.29883e-06
-1.18121e-06
-1.07153e-06
-9.69356e-07
-8.74289e-07
-7.85936e-07
-7.03925e-07
-6.27893e-07
-5.57497e-07
-4.92399e-07
-4.32308e-07
-3.76862e-07
-3.2591e-07
-2.78871e-07
-2.36118e-07
-1.96071e-07
-1.61157e-07
-1.25885e-07
-1.0012e-07
-6.47952e-08
-5.40169e-08
-6.70631e-09
-2.77797e-08
5.94619e-08
-3.27478e-08
1.5155e-07
-8.65885e-08
2.90574e-07
-2.04011e-07
4.84183e-07
-3.7233e-07
6.9605e-07
-5.19587e-07
8.23037e-07
-5.136e-07
7.30736e-07
-2.443e-07
3.83379e-07
2.18344e-07
-8.06676e-09
5.43808e-07
-1.83104e-08
3.14136e-07
7.38245e-07
-1.01082e-05
-9.46189e-06
-8.85442e-06
-8.28345e-06
-7.74667e-06
-7.24192e-06
-6.76719e-06
-6.32063e-06
-5.9005e-06
-5.50517e-06
-5.13316e-06
-4.78306e-06
-4.45358e-06
-4.1435e-06
-3.8517e-06
-3.57715e-06
-3.31887e-06
-3.07595e-06
-2.84756e-06
-2.6329e-06
-2.43124e-06
-2.24187e-06
-2.06414e-06
-1.89744e-06
-1.74119e-06
-1.59486e-06
-1.45792e-06
-1.32988e-06
-1.21028e-06
-1.09866e-06
-9.94618e-07
-8.97743e-07
-8.07653e-07
-7.23981e-07
-6.46366e-07
-5.74468e-07
-5.07947e-07
-4.46514e-07
-3.89808e-07
-3.37678e-07
-2.89537e-07
-2.45765e-07
-2.04753e-07
-1.68981e-07
-1.32849e-07
-1.06421e-07
-7.026e-08
-5.91115e-08
-1.07949e-08
-3.2038e-08
5.677e-08
-3.66371e-08
1.50424e-07
-9.06355e-08
2.91209e-07
-2.08546e-07
4.86425e-07
-3.77045e-07
6.98935e-07
-5.23241e-07
8.249e-07
-5.14676e-07
7.30369e-07
-2.42503e-07
3.81274e-07
2.21688e-07
-1.07957e-08
5.47731e-07
-2.2404e-08
3.19063e-07
7.26086e-07
-1.01165e-05
-9.4783e-06
-8.87801e-06
-8.31328e-06
-7.78183e-06
-7.28158e-06
-6.81057e-06
-6.36701e-06
-5.94922e-06
-5.55563e-06
-5.1848e-06
-4.83539e-06
-4.50616e-06
-4.19593e-06
-3.90364e-06
-3.62829e-06
-3.36895e-06
-3.12475e-06
-2.89489e-06
-2.67862e-06
-2.47521e-06
-2.284e-06
-2.10436e-06
-1.9357e-06
-1.77748e-06
-1.62916e-06
-1.49025e-06
-1.36025e-06
-1.23872e-06
-1.12523e-06
-1.01936e-06
-9.20722e-07
-8.2894e-07
-7.43646e-07
-6.64486e-07
-5.91118e-07
-5.23204e-07
-4.60458e-07
-4.02517e-07
-3.49234e-07
-3.00012e-07
-2.55242e-07
-2.13283e-07
-1.76668e-07
-1.39692e-07
-1.12612e-07
-7.56316e-08
-6.41179e-08
-1.4817e-08
-3.62203e-08
5.41168e-08
-4.04503e-08
1.493e-07
-9.45936e-08
2.91804e-07
-2.1297e-07
4.88587e-07
-3.8164e-07
7.01727e-07
-5.26799e-07
8.26694e-07
-5.15701e-07
7.29935e-07
-2.40624e-07
3.78957e-07
2.25329e-07
-1.40831e-08
5.52305e-07
-2.75512e-08
3.25068e-07
7.12148e-07
-1.01159e-05
-9.48681e-06
-8.89447e-06
-8.33666e-06
-7.81116e-06
-7.31596e-06
-6.84917e-06
-6.40906e-06
-5.994e-06
-5.60251e-06
-5.23319e-06
-4.88477e-06
-4.55604e-06
-4.24591e-06
-3.95334e-06
-3.67739e-06
-3.41716e-06
-3.17185e-06
-2.94067e-06
-2.7229e-06
-2.51787e-06
-2.32494e-06
-2.14349e-06
-1.97297e-06
-1.81285e-06
-1.66262e-06
-1.5218e-06
-1.38992e-06
-1.26653e-06
-1.15122e-06
-1.04357e-06
-9.43218e-07
-8.49786e-07
-7.62913e-07
-6.82244e-07
-6.0744e-07
-5.38165e-07
-4.74134e-07
-4.14985e-07
-3.60572e-07
-3.10293e-07
-2.64543e-07
-2.21657e-07
-1.84214e-07
-1.46409e-07
-1.1869e-07
-8.09073e-08
-6.9034e-08
-1.87706e-08
-4.03251e-08
5.1504e-08
-4.41864e-08
1.48182e-07
-9.84629e-08
2.92361e-07
-2.17284e-07
4.90672e-07
-3.86114e-07
7.04425e-07
-5.30261e-07
8.28415e-07
-5.16675e-07
7.29434e-07
-2.38668e-07
3.76445e-07
2.29238e-07
-1.78804e-08
5.5747e-07
-3.36587e-08
3.32057e-07
6.96625e-07
-1.01068e-05
-9.48758e-06
-8.90392e-06
-8.3537e-06
-7.83475e-06
-7.34514e-06
-6.88305e-06
-6.44681e-06
-6.03488e-06
-5.64583e-06
-5.27835e-06
-4.9312e-06
-4.60324e-06
-4.29343e-06
-4.0008e-06
-3.72443e-06
-3.4635e-06
-3.21722e-06
-2.98487e-06
-2.76575e-06
-2.55922e-06
-2.36467e-06
-2.18151e-06
-2.00922e-06
-1.84729e-06
-1.69523e-06
-1.55258e-06
-1.41887e-06
-1.29369e-06
-1.17661e-06
-1.06724e-06
-9.65216e-07
-8.70179e-07
-7.81767e-07
-6.99629e-07
-6.23426e-07
-5.52821e-07
-4.87532e-07
-4.27201e-07
-3.71683e-07
-3.20371e-07
-2.73664e-07
-2.29869e-07
-1.91615e-07
-1.52997e-07
-1.24651e-07
-8.60836e-08
-7.3857e-08
-2.26531e-08
-4.43505e-08
4.89339e-08
-4.78443e-08
1.4707e-07
-1.02243e-07
2.92881e-07
-2.21488e-07
4.9268e-07
-3.9047e-07
7.07031e-07
-5.33627e-07
8.30065e-07
-5.17599e-07
7.28867e-07
-2.36643e-07
3.73753e-07
2.33387e-07
-2.21411e-08
5.63162e-07
-4.06368e-08
3.39936e-07
6.79707e-07
-1.00896e-05
-9.481e-06
-8.90674e-06
-8.36473e-06
-7.85291e-06
-7.36939e-06
-6.91246e-06
-6.48051e-06
-6.07208e-06
-5.6858e-06
-5.32044e-06
-4.97482e-06
-4.64789e-06
-4.33862e-06
-4.04612e-06
-3.76952e-06
-3.50804e-06
-3.26095e-06
-3.02755e-06
-2.8072e-06
-2.59929e-06
-2.40323e-06
-2.21846e-06
-2.04449e-06
-1.88083e-06
-1.72701e-06
-1.5826e-06
-1.44714e-06
-1.32021e-06
-1.20142e-06
-1.09037e-06
-9.86729e-07
-8.90129e-07
-8.0022e-07
-7.16651e-07
-6.39081e-07
-5.67177e-07
-5.00659e-07
-4.39171e-07
-3.82573e-07
-3.30251e-07
-2.82608e-07
-2.37923e-07
-1.98872e-07
-1.59457e-07
-1.30497e-07
-9.11613e-08
-7.85877e-08
-2.6465e-08
-4.8297e-08
4.64069e-08
-5.14241e-08
1.45966e-07
-1.05935e-07
2.93367e-07
-2.25582e-07
4.94616e-07
-3.94706e-07
7.09546e-07
-5.36895e-07
8.31644e-07
-5.18468e-07
7.28237e-07
-2.34557e-07
3.70896e-07
2.37745e-07
-2.6821e-08
5.6932e-07
-4.84002e-08
3.48608e-07
6.61579e-07
-1.00647e-05
-9.46748e-06
-8.90329e-06
-8.37009e-06
-7.86591e-06
-7.38897e-06
-6.93763e-06
-6.51035e-06
-6.10574e-06
-5.72255e-06
-5.35958e-06
-5.01576e-06
-4.69007e-06
-4.38156e-06
-4.08937e-06
-3.81271e-06
-3.55084e-06
-3.30307e-06
-3.06876e-06
-2.84729e-06
-2.63811e-06
-2.44064e-06
-2.25436e-06
-2.07878e-06
-1.91346e-06
-1.75796e-06
-1.61185e-06
-1.4747e-06
-1.3461e-06
-1.22565e-06
-1.11298e-06
-1.00775e-06
-9.0963e-07
-8.18266e-07
-7.33304e-07
-6.54404e-07
-5.81231e-07
-5.1351e-07
-4.50891e-07
-3.93237e-07
-3.39929e-07
-2.9137e-07
-2.45815e-07
-2.05983e-07
-1.65786e-07
-1.36224e-07
-9.61378e-08
-8.32237e-08
-3.02052e-08
-5.21638e-08
4.39242e-08
-5.49245e-08
1.44871e-07
-1.09537e-07
2.9382e-07
-2.29567e-07
4.9648e-07
-3.98822e-07
7.11971e-07
-5.40064e-07
8.33154e-07
-5.19283e-07
7.2755e-07
-2.32411e-07
3.67897e-07
2.42295e-07
-3.18671e-08
5.75896e-07
-5.68457e-08
3.57986e-07
6.42429e-07
-1.00325e-05
-9.44741e-06
-8.89391e-06
-8.37007e-06
-7.87404e-06
-7.40412e-06
-6.95876e-06
-6.5365e-06
-6.13605e-06
-5.75621e-06
-5.3959e-06
-5.0541e-06
-4.72987e-06
-4.42232e-06
-4.13063e-06
-3.85406e-06
-3.59194e-06
-3.34361e-06
-3.1085e-06
-2.88605e-06
-2.6757e-06
-2.47693e-06
-2.28921e-06
-2.11211e-06
-1.94521e-06
-1.78809e-06
-1.64036e-06
-1.50158e-06
-1.37136e-06
-1.2493e-06
-1.13505e-06
-1.02828e-06
-9.28681e-07
-8.35903e-07
-7.49588e-07
-6.69393e-07
-5.94982e-07
-5.26081e-07
-4.62357e-07
-4.03672e-07
-3.49402e-07
-2.9995e-07
-2.53546e-07
-2.12947e-07
-1.71981e-07
-1.41831e-07
-1.01012e-07
-8.77642e-08
-3.3873e-08
-5.59506e-08
4.1487e-08
-5.83452e-08
1.43787e-07
-1.13052e-07
2.94243e-07
-2.33443e-07
4.98274e-07
-4.02819e-07
7.14308e-07
-5.43133e-07
8.34595e-07
-5.20042e-07
7.26807e-07
-2.30215e-07
3.64769e-07
2.47007e-07
-3.72358e-08
5.82831e-07
-6.58902e-08
3.6798e-07
6.22431e-07
7.26013e-07
-2.27975e-07
3.61532e-07
2.51855e-07
-4.28825e-08
5.90072e-07
-7.54479e-08
3.78503e-07
6.01755e-07
1.49161e-05
1.41082e-05
1.33321e-05
1.25873e-05
1.18733e-05
1.11896e-05
1.05356e-05
9.91068e-06
9.31413e-06
8.7453e-06
8.20349e-06
7.68796e-06
7.19796e-06
6.73274e-06
6.29152e-06
5.87351e-06
5.47792e-06
5.10398e-06
4.75088e-06
4.41784e-06
4.10407e-06
3.80881e-06
3.53128e-06
3.27073e-06
3.02641e-06
2.79759e-06
2.58356e-06
2.3836e-06
2.19704e-06
2.0232e-06
1.86144e-06
1.71112e-06
1.57164e-06
1.44241e-06
1.32284e-06
1.21238e-06
1.11049e-06
1.01665e-06
9.30361e-07
8.51135e-07
7.78507e-07
7.1203e-07
6.51277e-07
5.95839e-07
5.45325e-07
4.99354e-07
4.57564e-07
4.19601e-07
3.85116e-07
3.53814e-07
3.25288e-07
2.99496e-07
2.75367e-07
2.54736e-07
2.31613e-07
2.20154e-07
1.8511e-07
2.05527e-07
1.12628e-07
2.34964e-07
-9.51825e-09
2.82289e-07
-6.06923e-08
6.30349e-08
3.29012e-07
-6.24507e-07
6.77314e-07
-5.1443e-07
-2.39708e-07
-3.08703e-07
1.48424e-05
1.4039e-05
1.32671e-05
1.25264e-05
1.18163e-05
1.11363e-05
1.04858e-05
9.86426e-06
9.27091e-06
8.70512e-06
8.16618e-06
7.65337e-06
7.16594e-06
6.70312e-06
6.26417e-06
5.84828e-06
5.45469e-06
5.0826e-06
4.73123e-06
4.3998e-06
4.08754e-06
3.79367e-06
3.51744e-06
3.25809e-06
3.01488e-06
2.78708e-06
2.57399e-06
2.3749e-06
2.18914e-06
2.01603e-06
1.85495e-06
1.70525e-06
1.56633e-06
1.43761e-06
1.31852e-06
1.20849e-06
1.107e-06
1.01352e-06
9.27554e-07
8.48624e-07
7.76265e-07
7.10032e-07
6.495e-07
5.94263e-07
5.43932e-07
4.98126e-07
4.56484e-07
4.18655e-07
3.84292e-07
3.53101e-07
3.24669e-07
2.98984e-07
2.74897e-07
2.54447e-07
2.31144e-07
2.20327e-07
1.84109e-07
2.07107e-07
1.09525e-07
2.40237e-07
-1.71089e-08
2.92724e-07
-7.0228e-08
6.93615e-08
3.32331e-07
-6.38294e-07
7.06649e-07
-5.45649e-07
-2.01742e-07
-3.17879e-07
1.46998e-05
1.39049e-05
1.31412e-05
1.24083e-05
1.17058e-05
1.1033e-05
1.03894e-05
9.77433e-06
9.18719e-06
8.62729e-06
8.09392e-06
7.58637e-06
7.1039e-06
6.64576e-06
6.21119e-06
5.79942e-06
5.40967e-06
5.04118e-06
4.69317e-06
4.36488e-06
4.05552e-06
3.76436e-06
3.49063e-06
3.23359e-06
2.99253e-06
2.76671e-06
2.55544e-06
2.35804e-06
2.17382e-06
2.00214e-06
1.84236e-06
1.69386e-06
1.55604e-06
1.42833e-06
1.31015e-06
1.20096e-06
1.10023e-06
1.00744e-06
9.22109e-07
8.43753e-07
7.71915e-07
7.06156e-07
6.46055e-07
5.91208e-07
5.41229e-07
4.95742e-07
4.54387e-07
4.16819e-07
3.8269e-07
3.51717e-07
3.23469e-07
2.97983e-07
2.74002e-07
2.53833e-07
2.30369e-07
2.20334e-07
1.8292e-07
2.08541e-07
1.06776e-07
2.443e-07
-2.19625e-08
2.98358e-07
-7.40738e-08
7.31483e-08
3.31051e-07
-6.33041e-07
7.0884e-07
-5.57421e-07
-1.55001e-07
-3.35764e-07
1.4493e-05
1.37104e-05
1.29586e-05
1.22372e-05
1.15456e-05
1.08832e-05
1.02496e-05
9.644e-06
9.06586e-06
8.51449e-06
7.9892e-06
7.48928e-06
7.014e-06
6.56262e-06
6.13441e-06
5.7286e-06
5.34443e-06
4.98116e-06
4.63802e-06
4.31425e-06
4.00912e-06
3.72186e-06
3.45176e-06
3.19809e-06
2.96013e-06
2.73718e-06
2.52856e-06
2.33359e-06
2.15162e-06
1.982e-06
1.82411e-06
1.67734e-06
1.54112e-06
1.41485e-06
1.298e-06
1.19003e-06
1.0904e-06
9.98624e-07
9.14208e-07
8.36685e-07
7.65604e-07
7.00533e-07
6.41055e-07
5.86773e-07
5.37306e-07
4.92281e-07
4.51344e-07
4.14154e-07
3.80366e-07
3.49707e-07
3.21728e-07
2.96529e-07
2.72706e-07
2.52934e-07
2.29267e-07
2.2028e-07
1.81345e-07
2.10293e-07
1.03413e-07
2.49137e-07
-2.74555e-08
3.04765e-07
-7.7735e-08
7.74726e-08
3.29303e-07
-6.24316e-07
7.10173e-07
-5.6819e-07
-1.00324e-07
-3.56815e-07
1.42267e-05
1.34601e-05
1.27237e-05
1.20169e-05
1.13394e-05
1.06905e-05
1.00697e-05
9.47631e-06
8.90976e-06
8.36938e-06
7.85449e-06
7.36438e-06
6.89835e-06
6.45568e-06
6.03564e-06
5.6375e-06
5.26051e-06
4.90395e-06
4.56706e-06
4.24913e-06
3.94941e-06
3.66719e-06
3.40175e-06
3.1524e-06
2.91843e-06
2.69917e-06
2.49396e-06
2.30212e-06
2.12304e-06
1.95607e-06
1.80061e-06
1.65608e-06
1.5219e-06
1.39751e-06
1.28236e-06
1.17595e-06
1.07775e-06
9.87264e-07
9.04028e-07
8.27578e-07
7.57473e-07
6.93287e-07
6.34613e-07
5.81059e-07
5.32249e-07
4.87819e-07
4.47421e-07
4.10719e-07
3.77369e-07
3.47116e-07
3.19482e-07
2.94656e-07
2.71033e-07
2.51778e-07
2.27842e-07
2.20209e-07
1.79326e-07
2.12509e-07
9.91598e-08
2.55268e-07
-3.45063e-08
3.133e-07
-8.3086e-08
8.37738e-08
3.27468e-07
-6.16184e-07
7.17087e-07
-5.8501e-07
-3.73125e-08
-3.79002e-07
1.39058e-05
1.31584e-05
1.24405e-05
1.17515e-05
1.1091e-05
1.04583e-05
9.85298e-06
9.27433e-06
8.72176e-06
8.19462e-06
7.69225e-06
7.21397e-06
6.75909e-06
6.3269e-06
5.91671e-06
5.5278e-06
5.15945e-06
4.81096e-06
4.4816e-06
4.17068e-06
3.87748e-06
3.60132e-06
3.3415e-06
3.09735e-06
2.86819e-06
2.65337e-06
2.45226e-06
2.2642e-06
2.08858e-06
1.92481e-06
1.77228e-06
1.63044e-06
1.49872e-06
1.37658e-06
1.2635e-06
1.15897e-06
1.06248e-06
9.73559e-07
8.91745e-07
8.1659e-07
7.47662e-07
6.84544e-07
6.26838e-07
5.74161e-07
5.26146e-07
4.82435e-07
4.42686e-07
4.06572e-07
3.73751e-07
3.43988e-07
3.16769e-07
2.92398e-07
2.69005e-07
2.50392e-07
2.26102e-07
2.20146e-07
1.76866e-07
2.15184e-07
9.40602e-08
2.62572e-07
-4.29158e-08
3.23595e-07
-8.98214e-08
9.17346e-08
3.25437e-07
-6.08524e-07
7.28619e-07
-6.07337e-07
3.31094e-08
-4.03002e-07
1.35349e-05
1.28099e-05
1.21134e-05
1.1445e-05
1.08041e-05
1.01902e-05
9.60276e-06
9.04112e-06
8.5047e-06
7.99286e-06
7.50496e-06
7.04034e-06
6.59832e-06
6.17824e-06
5.77941e-06
5.40115e-06
5.04278e-06
4.7036e-06
4.38293e-06
4.0801e-06
3.79443e-06
3.52525e-06
3.27191e-06
3.03376e-06
2.81015e-06
2.60046e-06
2.40407e-06
2.22037e-06
2.04876e-06
1.88867e-06
1.73953e-06
1.60079e-06
1.47192e-06
1.35239e-06
1.24168e-06
1.13932e-06
1.04481e-06
9.57702e-07
8.77533e-07
8.03875e-07
7.36307e-07
6.74424e-07
6.17839e-07
5.66176e-07
5.1908e-07
4.762e-07
4.37202e-07
4.01771e-07
3.6956e-07
3.40366e-07
3.13623e-07
2.89787e-07
2.66645e-07
2.48805e-07
2.24053e-07
2.20117e-07
1.73956e-07
2.18333e-07
8.81313e-08
2.70971e-07
-5.25312e-08
3.35347e-07
-9.75704e-08
1.00831e-07
3.23559e-07
-6.01523e-07
7.43965e-07
-6.33915e-07
1.09266e-07
-4.29557e-07
1.31187e-05
1.24188e-05
1.17465e-05
1.11012e-05
1.04824e-05
9.88959e-06
9.32221e-06
8.77967e-06
8.26137e-06
7.7667e-06
7.29503e-06
6.84571e-06
6.41812e-06
6.01161e-06
5.62552e-06
5.2592e-06
4.91199e-06
4.58324e-06
4.2723e-06
3.97853e-06
3.70129e-06
3.43994e-06
3.19386e-06
2.96243e-06
2.74504e-06
2.54109e-06
2.34999e-06
2.17117e-06
2.00406e-06
1.8481e-06
1.70276e-06
1.5675e-06
1.44182e-06
1.32521e-06
1.21717e-06
1.11725e-06
1.02497e-06
9.39881e-07
8.6156e-07
7.89583e-07
7.23543e-07
6.63047e-07
6.0772e-07
5.57198e-07
5.11134e-07
4.69189e-07
4.31035e-07
3.9637e-07
3.64844e-07
3.36294e-07
3.10081e-07
2.86857e-07
2.63973e-07
2.47047e-07
2.21699e-07
2.20158e-07
1.70577e-07
2.21986e-07
8.13597e-08
2.80439e-07
-6.32922e-08
3.48407e-07
-1.06152e-07
1.10738e-07
3.22156e-07
-5.95606e-07
7.62936e-07
-6.64142e-07
1.89565e-07
-4.5882e-07
1.26618e-05
1.19896e-05
1.13438e-05
1.07239e-05
1.01294e-05
9.55979e-06
9.01449e-06
8.49292e-06
7.99452e-06
7.51868e-06
7.06481e-06
6.6323e-06
6.22053e-06
5.82889e-06
5.45676e-06
5.10352e-06
4.76855e-06
4.45123e-06
4.15096e-06
3.86712e-06
3.59911e-06
3.34634e-06
3.10821e-06
2.88414e-06
2.67356e-06
2.47591e-06
2.29062e-06
2.11715e-06
1.95497e-06
1.80354e-06
1.66236e-06
1.53092e-06
1.40874e-06
1.29533e-06
1.19023e-06
1.09298e-06
1.00314e-06
9.2028e-07
8.43989e-07
7.7386e-07
7.09499e-07
6.50528e-07
5.96585e-07
5.47317e-07
5.02388e-07
4.61471e-07
4.24245e-07
3.90424e-07
3.59651e-07
3.31813e-07
3.06173e-07
2.8364e-07
2.61007e-07
2.45149e-07
2.19036e-07
2.20304e-07
1.66707e-07
2.26179e-07
7.37281e-08
2.90957e-07
-7.51429e-08
3.62632e-07
-1.15417e-07
1.21198e-07
3.21415e-07
-5.91033e-07
7.85273e-07
-6.97537e-07
2.72688e-07
-4.90654e-07
1.21685e-05
1.15263e-05
1.09092e-05
1.03169e-05
9.74865e-06
9.20409e-06
8.68263e-06
8.18372e-06
7.70679e-06
7.25128e-06
6.81662e-06
6.40222e-06
6.00751e-06
5.6319e-06
5.27481e-06
4.93567e-06
4.61388e-06
4.30888e-06
4.02009e-06
3.74694e-06
3.48888e-06
3.24535e-06
3.01578e-06
2.79965e-06
2.59641e-06
2.40554e-06
2.22651e-06
2.05881e-06
1.90194e-06
1.75539e-06
1.6187e-06
1.49138e-06
1.37298e-06
1.26303e-06
1.16109e-06
1.06673e-06
9.79527e-07
8.99077e-07
8.24979e-07
7.56846e-07
6.94301e-07
6.36979e-07
5.84532e-07
5.3662e-07
4.92919e-07
4.53114e-07
4.16891e-07
3.83986e-07
3.54025e-07
3.26962e-07
3.01933e-07
2.80169e-07
2.57765e-07
2.43141e-07
2.16062e-07
2.20594e-07
1.62319e-07
2.30946e-07
6.52215e-08
3.02498e-07
-8.80156e-08
3.77868e-07
-1.25198e-07
1.31965e-07
3.21457e-07
-5.87898e-07
8.1053e-07
-7.33478e-07
3.57457e-07
-5.24813e-07
1.16432e-05
1.1033e-05
1.04467e-05
9.88366e-06
9.34348e-06
8.82564e-06
8.32959e-06
7.85481e-06
7.40075e-06
6.96688e-06
6.55266e-06
6.15753e-06
5.78095e-06
5.42239e-06
5.08129e-06
4.75713e-06
4.44935e-06
4.15744e-06
3.88085e-06
3.61907e-06
3.37157e-06
3.13785e-06
2.91739e-06
2.70969e-06
2.51425e-06
2.33058e-06
2.1582e-06
1.99664e-06
1.84542e-06
1.70407e-06
1.57216e-06
1.44922e-06
1.33483e-06
1.22856e-06
1.12999e-06
1.03871e-06
9.54325e-07
8.76442e-07
8.04683e-07
7.38679e-07
6.7807e-07
6.22507e-07
5.71656e-07
5.2519e-07
4.828e-07
4.44183e-07
4.09032e-07
3.77105e-07
3.48008e-07
3.21779e-07
2.97389e-07
2.76476e-07
2.5426e-07
2.41058e-07
2.1277e-07
2.21068e-07
1.57387e-07
2.36321e-07
5.58295e-08
3.15029e-07
-1.01833e-07
3.93951e-07
-1.35328e-07
1.42814e-07
3.22362e-07
-5.86196e-07
8.38165e-07
-7.71248e-07
4.42757e-07
-5.60946e-07
1.109e-05
1.05137e-05
9.95975e-06
9.42773e-06
8.91714e-06
8.42746e-06
7.9582e-06
7.50883e-06
7.07886e-06
6.66777e-06
6.27504e-06
5.90018e-06
5.54268e-06
5.20203e-06
4.87775e-06
4.56932e-06
4.27627e-06
3.9981e-06
3.73434e-06
3.48449e-06
3.2481e-06
3.02469e-06
2.81379e-06
2.61494e-06
2.4277e-06
2.25161e-06
2.08623e-06
1.93112e-06
1.78583e-06
1.64995e-06
1.52306e-06
1.40474e-06
1.29459e-06
1.19219e-06
1.09717e-06
1.00914e-06
9.27715e-07
8.52537e-07
7.83244e-07
7.19486e-07
6.6092e-07
6.07213e-07
5.58047e-07
5.13109e-07
4.72102e-07
4.3474e-07
4.0072e-07
3.69829e-07
3.41641e-07
3.16303e-07
2.92569e-07
2.72593e-07
2.50505e-07
2.38931e-07
2.09153e-07
2.21766e-07
1.51888e-07
2.42335e-07
4.55489e-08
3.28506e-07
-1.16507e-07
4.10716e-07
-1.45644e-07
1.53546e-07
3.24162e-07
-5.85836e-07
8.67594e-07
-8.10095e-07
5.27528e-07
-5.98588e-07
1.05128e-05
9.97198e-06
9.45199e-06
8.9524e-06
8.47272e-06
8.01247e-06
7.57117e-06
7.14833e-06
6.74347e-06
6.35612e-06
5.98581e-06
5.63207e-06
5.29443e-06
4.97244e-06
4.66566e-06
4.37362e-06
4.09589e-06
3.83203e-06
3.5816e-06
3.34418e-06
3.11934e-06
2.90665e-06
2.70571e-06
2.51609e-06
2.33738e-06
2.16918e-06
2.01108e-06
1.86268e-06
1.72359e-06
1.59341e-06
1.47175e-06
1.35824e-06
1.2525e-06
1.15416e-06
1.06284e-06
9.78196e-07
8.99869e-07
8.27518e-07
7.60803e-07
6.99392e-07
6.42962e-07
5.91196e-07
5.43792e-07
5.00453e-07
4.60894e-07
4.24846e-07
3.92009e-07
3.62205e-07
3.34963e-07
3.1057e-07
2.87499e-07
2.68549e-07
2.46511e-07
2.36794e-07
2.052e-07
2.22727e-07
1.45796e-07
2.4901e-07
3.43863e-08
3.42873e-07
-1.31936e-07
4.27993e-07
-1.55988e-07
1.63996e-07
3.26844e-07
-5.86658e-07
8.98204e-07
-8.49253e-07
6.10776e-07
-6.37179e-07
9.91555e-06
9.41153e-06
8.92677e-06
8.46081e-06
8.01318e-06