/*--------------------------------*- C++ -*----------------------------------*\
| =========                 |                                                 |
| \\      /  F ield         | OpenFOAM: The Open Source CFD Toolbox           |
|  \\    /   O peration     | Version:  2412                                  |
|   \\  /    A nd           | Website:  www.openfoam.com                      |
|    \\/     M anipulation  |                                                 |
\*---------------------------------------------------------------------------*/
FoamFile
{
    version     2.0;
    format      ascii;
    arch        "LSB;label=32;scalar=64";
    class       volScalarField;
    location    "18.5";
    object      p;
}
// * * * * * * * * * * * * * * * * * * * * * * * * * * * * * * * * * * * * * //

dimensions      [0 2 -2 0 0 0 0];

internalField   nonuniform List<scalar> 
63420
(
0.000946649
0.000946908
0.000947731
0.000949002
0.000950704
0.000952824
0.000955345
0.000958254
0.000961539
0.00096519
0.000969196
0.00097355
0.000978242
0.000983266
0.000988615
0.000994288
0.00100028
0.00100659
0.00101323
0.00102018
0.00102746
0.00103506
0.00104298
0.00105123
0.00105982
0.00106873
0.00107798
0.00108756
0.00109748
0.00110774
0.00111834
0.00112929
0.00114059
0.00115225
0.00116426
0.00117663
0.00118937
0.00120247
0.00121595
0.0012298
0.00124403
0.00125865
0.00127365
0.00128905
0.00130485
0.00132104
0.00133765
0.00135466
0.00137209
0.00138994
0.00140821
0.00142691
0.00144605
0.00146562
0.00148565
0.00094659
0.000946849
0.000947671
0.000948941
0.000950642
0.00095276
0.000955279
0.000958186
0.000961468
0.000965116
0.00096912
0.00097347
0.000978159
0.000983178
0.000988524
0.000994191
0.00100018
0.00100649
0.00101311
0.00102006
0.00102733
0.00103492
0.00104284
0.00105109
0.00105966
0.00106856
0.0010778
0.00108737
0.00109728
0.00110753
0.00111812
0.00112906
0.00114034
0.00115198
0.00116398
0.00117633
0.00118905
0.00120214
0.00121559
0.00122942
0.00124363
0.00125822
0.0012732
0.00128857
0.00130434
0.00132051
0.00133708
0.00135405
0.00137145
0.00138926
0.00140749
0.00142615
0.00144524
0.00146476
0.00148473
0.000946471
0.000946729
0.00094755
0.000948818
0.000950517
0.000952632
0.000955148
0.00095805
0.000961328
0.00096497
0.000968967
0.000973311
0.000977992
0.000983004
0.00098834
0.000993999
0.000999976
0.00100627
0.00101289
0.00101982
0.00102708
0.00103466
0.00104256
0.00105079
0.00105935
0.00106823
0.00107745
0.001087
0.00109688
0.00110711
0.00111767
0.00112859
0.00113984
0.00115145
0.00116342
0.00117574
0.00118842
0.00120147
0.00121488
0.00122867
0.00124283
0.00125738
0.0012723
0.00128762
0.00130333
0.00131943
0.00133594
0.00135285
0.00137017
0.0013879
0.00140605
0.00142462
0.00144362
0.00146304
0.00148291
0.000946292
0.00094655
0.000947369
0.000948635
0.000950329
0.00095244
0.00095495
0.000957846
0.000961117
0.000964751
0.000968739
0.000973072
0.000977742
0.000982742
0.000988066
0.00099371
0.000999673
0.00100595
0.00101255
0.00101947
0.00102671
0.00103426
0.00104214
0.00105035
0.00105888
0.00106773
0.00107692
0.00108644
0.00109629
0.00110648
0.00111701
0.00112788
0.0011391
0.00115066
0.00116258
0.00117485
0.00118747
0.00120046
0.00121382
0.00122754
0.00124164
0.00125611
0.00127096
0.00128619
0.00130181
0.00131783
0.00133424
0.00135104
0.00136825
0.00138587
0.0014039
0.00142234
0.0014412
0.00146048
0.00148018
0.000946054
0.000946312
0.000947128
0.00094839
0.00095008
0.000952185
0.000954688
0.000957575
0.000960835
0.000964459
0.000968435
0.000972754
0.00097741
0.000982394
0.0009877
0.000993326
0.000999269
0.00100553
0.0010121
0.001019
0.00102621
0.00103373
0.00104158
0.00104976
0.00105825
0.00106707
0.00107622
0.0010857
0.0010955
0.00110565
0.00111612
0.00112694
0.0011381
0.00114961
0.00116146
0.00117366
0.00118622
0.00119913
0.0012124
0.00122604
0.00124004
0.00125442
0.00126917
0.0012843
0.0012998
0.0013157
0.00133198
0.00134865
0.00136571
0.00138318
0.00140104
0.00141931
0.00143799
0.00145707
0.00147657
0.000945757
0.000946014
0.000946827
0.000948085
0.000949769
0.000951866
0.00095436
0.000957236
0.000960485
0.000964094
0.000968055
0.000972358
0.000976995
0.000981959
0.000987244
0.000992846
0.000998764
0.001005
0.00101154
0.0010184
0.00102558
0.00103308
0.00104089
0.00104902
0.00105747
0.00106625
0.00107534
0.00108477
0.00109452
0.00110461
0.00111502
0.00112577
0.00113686
0.00114829
0.00116006
0.00117218
0.00118465
0.00119747
0.00121064
0.00122417
0.00123806
0.00125232
0.00126694
0.00128194
0.0012973
0.00131304
0.00132916
0.00134567
0.00136255
0.00137983
0.00139749
0.00141555
0.001434
0.00145285
0.00147209
0.000945401
0.000945657
0.000946467
0.000947719
0.000949395
0.000951484
0.000953966
0.00095683
0.000960064
0.000963657
0.0009676
0.000971883
0.000976498
0.000981438
0.000986697
0.000992272
0.00099816
0.00100436
0.00101087
0.0010177
0.00102484
0.00103229
0.00104005
0.00104814
0.00105654
0.00106526
0.0010743
0.00108366
0.00109335
0.00110336
0.0011137
0.00112437
0.00113538
0.00114672
0.0011584
0.00117042
0.00118278
0.00119548
0.00120854
0.00122194
0.0012357
0.00124981
0.00126428
0.00127912
0.00129432
0.00130988
0.00132581
0.00134212
0.00135879
0.00137584
0.00139327
0.00141108
0.00142926
0.00144782
0.00146676
0.00150617
0.00152742
0.00154958
0.00157271
0.00159686
0.0016221
0.00164848
0.00167608
0.00170499
0.00173527
0.00176702
0.00180034
0.00183534
0.00187212
0.00191082
0.00195156
0.0019945
0.0020398
0.00208763
0.00213819
0.0021917
0.00224838
0.00230849
0.00237232
0.00244017
0.00251239
0.00258936
0.00267151
0.00275929
0.00285321
0.00295385
0.00306183
0.00317782
0.00330257
0.00343689
0.0035816
0.00373757
0.00390563
0.00408649
0.00428063
0.00448807
0.00470808
0.00493888
0.00517737
0.00541944
0.00566084
0.00589755
0.00613578
0.00644191
0.0069075
0.00150523
0.00152649
0.00154865
0.00157177
0.00159592
0.00162115
0.00164753
0.00167513
0.00170403
0.0017343
0.00176605
0.00179936
0.00183435
0.00187112
0.0019098
0.00195052
0.00199344
0.0020387
0.0020865
0.00213702
0.00219046
0.00224707
0.0023071
0.00237081
0.00243853
0.00251059
0.00258736
0.00266925
0.00275671
0.00285024
0.00295038
0.00305773
0.00317293
0.00329668
0.00342971
0.00357277
0.0037266
0.00389189
0.00406914
0.00425857
0.00445982
0.00467173
0.00489193
0.00511659
0.00534071
0.00555912
0.00576726
0.00597048
0.0062309
0.00663317
0.00150336
0.00152461
0.00154676
0.00156988
0.00159402
0.00161925
0.00164562
0.00167321
0.0017021
0.00173237
0.0017641
0.0017974
0.00183236
0.00186911
0.00190776
0.00194844
0.00199131
0.00203652
0.00208424
0.00213466
0.002188
0.00224447
0.00230432
0.00236782
0.00243528
0.00250701
0.00258337
0.00266476
0.0027516
0.00284435
0.00294352
0.00304964
0.00316329
0.00328506
0.00341555
0.00355534
0.00370496
0.00386476
0.00403485
0.00421487
0.00440378
0.00459945
0.00479833
0.00499511
0.005183
0.00535493
0.00550546
0.00563845
0.00580337
0.0060916
0.00150055
0.00152179
0.00154393
0.00156704
0.00159117
0.00161639
0.00164275
0.00167033
0.0016992
0.00172945
0.00176116
0.00179443
0.00182936
0.00186606
0.00190466
0.00194528
0.00198807
0.00203318
0.00208079
0.00213106
0.00218422
0.00224047
0.00230005
0.00236322
0.00243027
0.0025015
0.00257724
0.00265786
0.00274374
0.00283531
0.00293298
0.00303723
0.00314852
0.00326729
0.00339395
0.00352884
0.00367212
0.0038237
0.00398308
0.00414908
0.00431958
0.00449105
0.00465814
0.00481333
0.00494717
0.00504962
0.00511385
0.00514496
0.00517696
0.00526416
0.00149682
0.00151806
0.00154019
0.00156329
0.00158741
0.00161262
0.00163897
0.00166653
0.00169539
0.00172562
0.00175731
0.00179055
0.00182545
0.0018621
0.00190064
0.00194119
0.00198389
0.00202889
0.00207635
0.00212645
0.00217938
0.00223535
0.00229459
0.00235734
0.00242385
0.00249443
0.00256935
0.00264896
0.00273357
0.00282355
0.00291924
0.00302098
0.00312909
0.00324382
0.00336532
0.00349356
0.00362825
0.00376868
0.00391352
0.00406051
0.00420609
0.0043449
0.00446924
0.00456878
0.00463068
0.00464103
0.00459022
0.00448633
0.00435228
0.00412899
0.00149219
0.00151343
0.00153557
0.00155868
0.00158282
0.00160804
0.00163442
0.00166201
0.0016909
0.00172116
0.00175288
0.00178615
0.00182108
0.00185777
0.00189634
0.00193691
0.00197962
0.00202462
0.00207207
0.00212213
0.002175
0.00223086
0.00228994
0.00235247
0.00241868
0.00248884
0.00256322
0.0026421
0.00272576
0.00281448
0.00290851
0.00300808
0.0031133
0.00322421
0.0033406
0.00346199
0.00358742
0.00371526
0.00384289
0.0039663
0.00407959
0.00417431
0.00423895
0.00425863
0.00421537
0.00409003
0.00386843
0.0035595
0.00317805
0.0025355
0.00148665
0.00150782
0.0015299
0.00155296
0.00157705
0.00160222
0.00162855
0.00165609
0.00168493
0.00171515
0.00174682
0.00178004
0.00181492
0.00185155
0.00189005
0.00193055
0.00197319
0.00201809
0.00206542
0.00211535
0.00216805
0.00222372
0.00228255
0.00234477
0.0024106
0.00248028
0.00255404
0.00263215
0.00271481
0.00280225
0.00289464
0.00299205
0.00309445
0.00320162
0.00331301
0.00342762
0.00354376
0.00365869
0.00376822
0.00386604
0.003943
0.00398632
0.00397897
0.0038996
0.00372342
0.00342374
0.00298275
0.00241384
0.00168125
0.00049191
-0.00348606
-0.00355625
-0.00357226
-0.00354861
-0.00349778
-0.00342254
-0.00332481
-0.00320891
-0.00307521
-0.00292644
-0.00276526
-0.00259427
-0.00241623
-0.00223368
-0.00204916
-0.00186509
-0.00168366
-0.00150685
-0.00133639
-0.00117372
-0.00102002
-0.000876166
-0.000742798
-0.000620291
-0.000508792
-0.000408234
-0.000318377
-0.000238839
-0.000169122
-0.000108633
-5.67171e-05
-1.268e-05
2.41926e-05
5.46153e-05
7.92889e-05
9.88879e-05
0.000114051
0.000125375
0.00013341
0.000138657
0.000141566
0.000142539
0.000141932
0.000140052
0.000137167
0.000133506
0.000129263
0.0001246
0.000119653
0.000114533
-0.00357023
-0.00361676
-0.00361863
-0.00358674
-0.00353052
-0.00345191
-0.00335274
-0.0032354
-0.0031011
-0.00295221
-0.00279094
-0.00261976
-0.00244173
-0.00225902
-0.0020742
-0.00188966
-0.00170762
-0.00153006
-0.00135872
-0.00119508
-0.00104032
-0.000895352
-0.000760831
-0.000637153
-0.000524488
-0.000422783
-0.000331809
-0.000251196
-0.000180453
-0.000118994
-6.61673e-05
-2.12801e-05
1.63815e-05
4.7533e-05
7.28769e-05
9.309e-05
0.000108814
0.000120649
0.000129149
0.000134816
0.000138107
0.000139425
0.000139129
0.000137529
0.000134898
0.000131464
0.000127426
0.000122949
0.000118167
0.000113197
-0.00373784
-0.00373552
-0.00370957
-0.00366129
-0.00359413
-0.00350848
-0.00340602
-0.00328613
-0.00315062
-0.0030016
-0.00283951
-0.00266886
-0.00249078
-0.00230782
-0.00212249
-0.00193716
-0.00175403
-0.00157509
-0.00140214
-0.00123666
-0.0010799
-0.000932804
-0.000796072
-0.000670147
-0.000555227
-0.0004513
-0.000358159
-0.000275456
-0.000202714
-0.000139362
-8.47554e-05
-3.82042e-05
1.00333e-06
3.35842e-05
6.02437e-05
8.16634e-05
9.84904e-05
0.000111331
0.000120744
0.000127241
0.000131282
0.00013328
0.000133596
0.00013255
0.000130417
0.000127432
0.000123798
0.000119683
0.000115227
0.000110553
-0.00399478
-0.0039041
-0.00384189
-0.00376888
-0.00368504
-0.00358781
-0.00348102
-0.00335733
-0.00321909
-0.00306995
-0.0029088
-0.00273813
-0.00256005
-0.00237688
-0.00219097
-0.00200464
-0.00182008
-0.00163931
-0.00146415
-0.00129615
-0.00113661
-0.000986549
-0.000846719
-0.000717619
-0.000599509
-0.000492424
-0.000396196
-0.000310508
-0.000234909
-0.000168844
-0.000111681
-6.27386e-05
-2.13058e-05
1.33347e-05
4.18922e-05
6.5054e-05
8.34746e-05
9.77683e-05
0.000108504
0.000116201
0.00012133
0.000124312
0.000125517
0.000125272
0.000123861
0.000121526
0.000118476
0.000114887
0.000110904
0.000106661
-0.00431732
-0.00412351
-0.00401208
-0.00390373
-0.0037963
-0.00368016
-0.00356957
-0.00344243
-0.00330314
-0.0031527
-0.00299151
-0.00282112
-0.00264334
-0.00246022
-0.00227394
-0.00208675
-0.00190081
-0.00171814
-0.0015406
-0.00136981
-0.00120712
-0.00105364
-0.000910193
-0.00077734
-0.000655418
-0.000544521
-0.00044454
-0.000355195
-0.000276071
-0.000206639
-0.000146287
-9.43422e-05
-5.01029e-05
-1.28525e-05
1.81204e-05
4.35082e-05
6.39728e-05
8.01372e-05
9.25799e-05
0.000101831
0.000108372
0.000112632
0.000114994
0.000115794
0.000115324
0.000113838
0.000111551
0.000108646
0.000105278
0.000101594
-0.00465705
-0.00439323
-0.00422014
-0.00406633
-0.00392845
-0.00380676
-0.00366931
-0.00353179
-0.00338836
-0.00323626
-0.00307525
-0.002906
-0.00272971
-0.00254803
-0.00236285
-0.00217622
-0.00199021
-0.0018068
-0.00162785
-0.00145501
-0.00128972
-0.00113316
-0.000986235
-0.000849612
-0.000723708
-0.000608697
-0.000504552
-0.000411057
-0.00032785
-0.000254449
-0.000190274
-0.000134681
-8.69855e-05
-4.64827e-05
-1.24669e-05
1.57527e-05
3.88405e-05
5.74245e-05
7.20904e-05
8.33772e-05
9.17748e-05
9.77244e-05
0.000101619
0.000103804
0.000104584
0.000104221
0.000102942
0.000100938
9.83772e-05
9.54154e-05
-0.00498276
-0.00472827
-0.00449537
-0.00428097
-0.00410078
-0.00394587
-0.00379391
-0.00364532
-0.00349463
-0.00333885
-0.00317667
-0.00300772
-0.00283244
-0.00265191
-0.00246764
-0.00228139
-0.00209508
-0.00191061
-0.00172983
-0.00155445
-0.00138596
-0.00122564
-0.00107451
-0.00093334
-0.000802647
-0.000682709
-0.000573585
-0.000475143
-0.000387087
-0.000308984
-0.000240299
-0.00018042
-0.000128681
-8.43915e-05
-4.68509e-05
-1.53681e-05
1.07254e-05
3.20657e-05
4.92486e-05
6.28254e-05
7.32993e-05
8.11254e-05
8.67105e-05
9.04153e-05
9.25567e-05
9.34111e-05
9.32173e-05
9.21798e-05
9.04767e-05
8.82668e-05
0.000109318
0.000103991
9.8601e-05
9.32146e-05
8.78739e-05
8.26137e-05
7.74644e-05
7.24503e-05
6.75905e-05
6.28996e-05
5.83883e-05
5.40643e-05
4.99325e-05
4.59954e-05
4.22537e-05
3.87061e-05
3.53503e-05
3.21828e-05
2.9199e-05
2.63941e-05
2.37624e-05
2.12983e-05
1.89956e-05
1.68484e-05
1.48508e-05
1.2997e-05
1.12811e-05
9.6976e-06
8.24075e-06
6.905e-06
5.6846e-06
4.57378e-06
3.56662e-06
2.65716e-06
1.8394e-06
1.1074e-06
4.55322e-07
-1.22491e-07
-6.31493e-07
-1.07687e-06
-1.46354e-06
-1.79614e-06
-2.07895e-06
-2.31629e-06
-2.51212e-06
-2.66921e-06
-2.792e-06
-2.88331e-06
-2.94615e-06
-2.98345e-06
-2.99786e-06
-2.99187e-06
-2.96784e-06
-2.92796e-06
-2.87429e-06
-2.80873e-06
-2.73303e-06
-2.64882e-06
-2.55761e-06
-2.46079e-06
-2.35959e-06
-2.25514e-06
-2.14851e-06
-2.04063e-06
-1.93232e-06
-1.82434e-06
-1.71734e-06
-1.61189e-06
-1.50853e-06
-1.40771e-06
-1.30972e-06
-1.21488e-06
-1.12346e-06
-1.03569e-06
-9.51686e-07
-8.7155e-07
-7.95355e-07
-7.23111e-07
-6.54803e-07
-5.90465e-07
-5.29972e-07
-4.73352e-07
-4.20248e-07
-3.71116e-07
-3.24734e-07
-2.83083e-07
-2.41988e-07
-2.0872e-07
-1.6966e-07
-1.48498e-07
-1.03882e-07
-1.05046e-07
-3.77891e-08
-8.45912e-08
3.93782e-08
-9.69161e-08
1.41119e-07
-1.51912e-07
2.75781e-07
-2.47633e-07
4.32579e-07
-3.5455e-07
5.65553e-07
-4.07597e-07
6.00275e-07
-3.29195e-07
4.78139e-07
-9.39464e-08
2.29801e-07
2.04074e-07
1.59854e-08
3.54232e-07
6.47804e-08
1.41258e-07
5.2496e-07
0.00010814
0.000102909
9.76051e-05
9.2306e-05
8.70473e-05
8.18624e-05
7.67822e-05
7.18314e-05
6.70294e-05
6.2391e-05
5.79275e-05
5.3647e-05
4.95547e-05
4.56535e-05
4.19443e-05
3.84262e-05
3.50973e-05
3.1954e-05
2.89925e-05
2.62076e-05
2.35943e-05
2.11468e-05
1.88592e-05
1.67258e-05
1.47408e-05
1.28984e-05
1.11929e-05
9.61874e-06
8.17037e-06
6.84225e-06
5.62873e-06
4.52407e-06
3.52242e-06
2.61789e-06
1.80454e-06
1.07646e-06
4.27892e-07
-1.4678e-07
-6.52978e-07
-1.09585e-06
-1.48027e-06
-1.81084e-06
-2.09184e-06
-2.32757e-06
-2.52196e-06
-2.67777e-06
-2.7994e-06
-2.8897e-06
-2.95164e-06
-2.98814e-06
-3.00184e-06
-2.99523e-06
-2.97066e-06
-2.9303e-06
-2.87621e-06
-2.81029e-06
-2.73428e-06
-2.64979e-06
-2.55836e-06
-2.46134e-06
-2.35997e-06
-2.25538e-06
-2.14863e-06
-2.04065e-06
-1.93227e-06
-1.82422e-06
-1.71717e-06
-1.61168e-06
-1.5083e-06
-1.40745e-06
-1.30945e-06
-1.2146e-06
-1.12318e-06
-1.03541e-06
-9.51413e-07
-8.71285e-07
-7.951e-07
-7.22866e-07
-6.54571e-07
-5.90248e-07
-5.2977e-07
-4.73163e-07
-4.20073e-07
-3.70955e-07
-3.24586e-07
-2.82947e-07
-2.41865e-07
-2.08606e-07
-1.6956e-07
-1.48402e-07
-1.03806e-07
-1.04964e-07
-3.77369e-08
-8.45144e-08
3.94065e-08
-9.68402e-08
1.4112e-07
-1.51833e-07
2.75758e-07
-2.47561e-07
4.32549e-07
-3.54506e-07
5.65543e-07
-4.07588e-07
6.00291e-07
-3.29217e-07
4.7818e-07
-9.3992e-08
2.29852e-07
2.04037e-07
1.60161e-08
3.54202e-07
6.48841e-08
1.41114e-07
5.2525e-07
0.000105798
0.000100757
9.56275e-05
9.05018e-05
8.54057e-05
8.03701e-05
7.54268e-05
7.06015e-05
6.59139e-05
6.13797e-05
5.70111e-05
5.28168e-05
4.88029e-05
4.49728e-05
4.13282e-05
3.78689e-05
3.45932e-05
3.14985e-05
2.85809e-05
2.58361e-05
2.32592e-05
2.08448e-05
1.85875e-05
1.64816e-05
1.45215e-05
1.27018e-05
1.10169e-05
9.46143e-06
8.02996e-06
6.71707e-06
5.51724e-06
4.42486e-06
3.43421e-06
2.53951e-06
1.73493e-06
1.0147e-06
3.73139e-07
-1.95277e-07
-6.95878e-07
-1.13373e-06
-1.51365e-06
-1.84021e-06
-2.11762e-06
-2.3501e-06
-2.54159e-06
-2.69484e-06
-2.81419e-06
-2.90247e-06
-2.96261e-06
-2.9975e-06
-3.00979e-06
-3.00194e-06
-2.97628e-06
-2.93497e-06
-2.88005e-06
-2.8134e-06
-2.73676e-06
-2.65174e-06
-2.55985e-06
-2.46243e-06
-2.36072e-06
-2.25586e-06
-2.14888e-06
-2.04071e-06
-1.93216e-06
-1.82399e-06
-1.71683e-06
-1.61127e-06
-1.50783e-06
-1.40693e-06
-1.3089e-06
-1.21404e-06
-1.12262e-06
-1.03486e-06
-9.50866e-07
-8.70754e-07
-7.94586e-07
-7.22375e-07
-6.54109e-07
-5.89814e-07
-5.2936e-07
-4.72782e-07
-4.19723e-07
-3.70633e-07
-3.24292e-07
-2.82675e-07
-2.41617e-07
-2.08377e-07
-1.69363e-07
-1.48212e-07
-1.03655e-07
-1.04804e-07
-3.76375e-08
-8.43613e-08
3.94645e-08
-9.66957e-08
1.41118e-07
-1.5168e-07
2.75729e-07
-2.47425e-07
4.32486e-07
-3.54422e-07
5.65511e-07
-4.07564e-07
6.00323e-07
-3.29268e-07
4.78271e-07
-9.40765e-08
2.29954e-07
2.03968e-07
1.60867e-08
3.54139e-07
6.50918e-08
1.40823e-07
5.25823e-07
0.000102321
9.75634e-05
9.26959e-05
8.78279e-05
8.2972e-05
7.81568e-05
7.34158e-05
6.87756e-05
6.42571e-05
5.98771e-05
5.56488e-05
5.15822e-05
4.76844e-05
4.39598e-05
4.04111e-05
3.70389e-05
3.38424e-05
3.08196e-05
2.79675e-05
2.52823e-05
2.27596e-05
2.03945e-05
1.81821e-05
1.61171e-05
1.41943e-05
1.24084e-05
1.07542e-05
9.22653e-06
7.82024e-06
6.53006e-06
5.35064e-06
4.27657e-06
3.30234e-06
2.42232e-06
1.63085e-06
9.22336e-07
2.91246e-07
-2.67808e-07
-7.60031e-07
-1.19037e-06
-1.56357e-06
-1.88412e-06
-2.15614e-06
-2.3838e-06
-2.57099e-06
-2.72039e-06
-2.83633e-06
-2.92156e-06
-2.979e-06
-3.0115e-06
-3.02168e-06
-3.01198e-06
-2.98468e-06
-2.94194e-06
-2.88578e-06
-2.81806e-06
-2.74048e-06
-2.65466e-06
-2.56207e-06
-2.46406e-06
-2.36185e-06
-2.25657e-06
-2.14924e-06
-2.04078e-06
-1.932e-06
-1.82363e-06
-1.71632e-06
-1.61065e-06
-1.50712e-06
-1.40616e-06
-1.30809e-06
-1.21321e-06
-1.12178e-06
-1.03402e-06
-9.50047e-07
-8.69959e-07
-7.93819e-07
-7.21643e-07
-6.53417e-07
-5.8916e-07
-5.28745e-07
-4.72212e-07
-4.19198e-07
-3.70147e-07
-3.23848e-07
-2.82265e-07
-2.41246e-07
-2.08033e-07
-1.69066e-07
-1.47926e-07
-1.03429e-07
-1.04562e-07
-3.74846e-08
-8.41343e-08
3.95497e-08
-9.64788e-08
1.41122e-07
-1.51456e-07
2.75686e-07
-2.47226e-07
4.32407e-07
-3.54296e-07
5.65478e-07
-4.07535e-07
6.00381e-07
-3.29353e-07
4.78409e-07
-9.42145e-08
2.30103e-07
2.03859e-07
1.61903e-08
3.54043e-07
6.54047e-08
1.40383e-07
5.26685e-07
9.7751e-05
9.33684e-05
8.88522e-05
8.4322e-05
7.97795e-05
7.5252e-05
7.07748e-05
6.63762e-05
6.20784e-05
5.78998e-05
5.3855e-05
4.99556e-05
4.62099e-05
4.26237e-05
3.92009e-05
3.59432e-05
3.28509e-05
2.99229e-05
2.7157e-05
2.45502e-05
2.2099e-05
1.9799e-05
1.76458e-05
1.56348e-05
1.37611e-05
1.20198e-05
1.04062e-05
8.91533e-06
7.5423e-06
6.28211e-06
5.12969e-06
4.07987e-06
3.12736e-06
2.26678e-06
1.4927e-06
7.9972e-07
1.82515e-07
-3.64126e-07
-8.45227e-07
-1.2656e-06
-1.62987e-06
-1.94243e-06
-2.2073e-06
-2.42857e-06
-2.61002e-06
-2.75433e-06
-2.86573e-06
-2.94692e-06
-3.00076e-06
-3.03009e-06
-3.03747e-06
-3.02529e-06
-2.99583e-06
-2.9512e-06
-2.89339e-06
-2.82423e-06
-2.74541e-06
-2.65852e-06
-2.56501e-06
-2.46621e-06
-2.36334e-06
-2.25751e-06
-2.14971e-06
-2.04086e-06
-1.93176e-06
-1.82314e-06
-1.71564e-06
-1.60981e-06
-1.50617e-06
-1.40512e-06
-1.307e-06
-1.21209e-06
-1.12066e-06
-1.03291e-06
-9.48956e-07
-8.68901e-07
-7.92797e-07
-7.20667e-07
-6.52494e-07
-5.88289e-07
-5.27927e-07
-4.7145e-07
-4.18495e-07
-3.69499e-07
-3.23254e-07
-2.81716e-07
-2.4075e-07
-2.07575e-07
-1.68669e-07
-1.47544e-07
-1.03124e-07
-1.04238e-07
-3.72758e-08
-8.38372e-08
3.96679e-08
-9.61974e-08
1.41143e-07
-1.51177e-07
2.75647e-07
-2.46988e-07
4.32339e-07
-3.54159e-07
5.65478e-07
-4.07537e-07
6.00497e-07
-3.295e-07
4.78616e-07
-9.44191e-08
2.30302e-07
2.03712e-07
1.63205e-08
3.5392e-07
6.58194e-08
1.39791e-07
5.27843e-07
9.2145e-05
8.82306e-05
8.41523e-05
8.00343e-05
7.5872e-05
7.16936e-05
6.75369e-05
6.34318e-05
5.94025e-05
5.54692e-05
5.16483e-05
4.7953e-05
4.43933e-05
4.09767e-05
3.77083e-05
3.45911e-05
3.16267e-05
2.88152e-05
2.61554e-05
2.36453e-05
2.1282e-05
1.90622e-05
1.69821e-05
1.50377e-05
1.32246e-05
1.15385e-05
9.97496e-06
8.52949e-06
7.19754e-06
5.97443e-06
4.85541e-06
3.83559e-06
2.90999e-06
2.07349e-06
1.32097e-06
6.47273e-07
4.73081e-08
-4.83907e-07
-9.51183e-07
-1.35917e-06
-1.71235e-06
-2.01496e-06
-2.27092e-06
-2.48423e-06
-2.65855e-06
-2.79653e-06
-2.90228e-06
-2.97845e-06
-3.02783e-06
-3.0532e-06
-3.05709e-06
-3.04184e-06
-3.00969e-06
-2.96271e-06
-2.90284e-06
-2.83189e-06
-2.75153e-06
-2.66331e-06
-2.56865e-06
-2.46888e-06
-2.36519e-06
-2.25866e-06
-2.15028e-06
-2.04095e-06
-1.93146e-06
-1.82253e-06
-1.71478e-06
-1.60876e-06
-1.50498e-06
-1.40383e-06
-1.30564e-06
-1.2107e-06
-1.11926e-06
-1.03152e-06
-9.47592e-07
-8.67576e-07
-7.9152e-07
-7.19447e-07
-6.51339e-07
-5.872e-07
-5.26905e-07
-4.70499e-07
-4.17616e-07
-3.68688e-07
-3.22511e-07
-2.8103e-07
-2.40131e-07
-2.07002e-07
-1.68172e-07
-1.47067e-07
-1.02744e-07
-1.03831e-07
-3.70137e-08
-8.34656e-08
3.98134e-08
-9.58429e-08
1.41167e-07
-1.50825e-07
2.75593e-07
-2.46685e-07
4.32253e-07
-3.53977e-07
5.65472e-07
-4.07531e-07
6.00634e-07
-3.29676e-07
4.78866e-07
-9.46732e-08
2.30545e-07
2.03523e-07
1.64896e-08
3.53753e-07
6.63502e-08
1.39045e-07
5.29291e-07
8.55812e-05
8.22225e-05
7.86665e-05
7.50247e-05
7.13008e-05
6.75262e-05
6.37404e-05
5.99756e-05
5.6258e-05
5.26099e-05
4.90499e-05
4.55929e-05
4.22507e-05
3.90326e-05
3.59451e-05
3.29929e-05
3.01789e-05
2.75045e-05
2.49696e-05
2.25733e-05
2.03139e-05
1.81888e-05
1.6195e-05
1.43292e-05
1.25878e-05
1.09668e-05
9.46255e-06
8.07082e-06
6.7875e-06
5.60831e-06
4.52887e-06
3.54466e-06
2.65099e-06
1.84312e-06
1.11624e-06
4.6549e-07
-1.13933e-07
-6.26756e-07
-1.07756e-06
-1.4708e-06
-1.81074e-06
-2.1015e-06
-2.34685e-06
-2.55065e-06
-2.71646e-06
-2.84689e-06
-2.94589e-06
-3.01606e-06
-3.06013e-06
-3.08079e-06
-3.08051e-06
-3.06159e-06
-3.02623e-06
-2.97644e-06
-2.91411e-06
-2.84103e-06
-2.75882e-06
-2.66901e-06
-2.57299e-06
-2.47205e-06
-2.36737e-06
-2.26002e-06
-2.15095e-06
-2.04104e-06
-1.93109e-06
-1.82178e-06
-1.71373e-06
-1.6075e-06
-1.50354e-06
-1.40227e-06
-1.304e-06
-1.20902e-06
-1.11758e-06
-1.02985e-06
-9.45954e-07
-8.65985e-07
-7.89989e-07
-7.17986e-07
-6.49954e-07
-5.85894e-07
-5.25681e-07
-4.69358e-07
-4.16562e-07
-3.67713e-07
-3.21619e-07
-2.80207e-07
-2.39391e-07
-2.06312e-07
-1.67581e-07
-1.46486e-07
-1.02301e-07
-1.03322e-07
-3.673e-08
-8.29729e-08
3.99177e-08
-9.53187e-08
1.41063e-07
-1.50227e-07
2.75297e-07
-2.46039e-07
4.31821e-07
-3.53381e-07
5.65063e-07
-4.07113e-07
6.00411e-07
-3.2955e-07
4.78904e-07
-9.48193e-08
2.30777e-07
2.03253e-07
1.68022e-08
3.53415e-07
6.70873e-08
1.38149e-07
5.30926e-07
7.79293e-05
7.5247e-05
7.23178e-05
6.92217e-05
6.59969e-05
6.26836e-05
5.93225e-05
5.5948e-05
5.25888e-05
4.92696e-05
4.60108e-05
4.28297e-05
3.97398e-05
3.67522e-05
3.38754e-05
3.11155e-05
2.8477e-05
2.59627e-05
2.3574e-05
2.13111e-05
1.91733e-05
1.71592e-05
1.52667e-05
1.34932e-05
1.18359e-05
1.02916e-05
8.85697e-06
7.52845e-06
6.30238e-06
5.17494e-06
4.14216e-06
3.19993e-06
2.34399e-06
1.56997e-06
8.73412e-07
2.49821e-07
-3.05278e-07
-7.96296e-07
-1.22756e-06
-1.60329e-06
-1.92754e-06
-2.20423e-06
-2.43699e-06
-2.62952e-06
-2.78524e-06
-2.90669e-06
-2.99767e-06
-3.06072e-06
-3.09847e-06
-3.11354e-06
-3.10832e-06
-3.08505e-06
-3.04586e-06
-2.99273e-06
-2.92749e-06
-2.85187e-06
-2.76747e-06
-2.67576e-06
-2.57812e-06
-2.4758e-06
-2.36995e-06
-2.26161e-06
-2.15172e-06
-2.04114e-06
-1.93063e-06
-1.82088e-06
-1.71248e-06
-1.60598e-06
-1.50182e-06
-1.40041e-06
-1.30205e-06
-1.20702e-06
-1.11557e-06
-1.02785e-06
-9.43999e-07
-8.64087e-07
-7.88162e-07
-7.16241e-07
-6.483e-07
-5.84335e-07
-5.24221e-07
-4.67997e-07
-4.15302e-07
-3.66549e-07
-3.20554e-07
-2.79221e-07
-2.3851e-07
-2.05483e-07
-1.66882e-07
-1.45778e-07
-1.01794e-07
-1.02678e-07
-3.64462e-08
-8.23014e-08
3.9919e-08
-9.45193e-08
1.40701e-07
-1.49198e-07
2.74537e-07
-2.44769e-07
4.30716e-07
-3.51998e-07
5.63857e-07
-4.05884e-07
5.99454e-07
-3.28804e-07
4.78494e-07
-9.4723e-08
2.30969e-07
2.02836e-07
1.73895e-08
3.52753e-07
6.81565e-08
1.37069e-07
5.32731e-07
6.93878e-05
6.74179e-05
6.51487e-05
6.26526e-05
5.99814e-05
5.71812e-05
5.42942e-05
5.13567e-05
4.84e-05
4.5451e-05
4.25323e-05
3.96631e-05
3.68592e-05
3.41335e-05
3.14963e-05
2.89556e-05
2.65175e-05
2.41863e-05
2.19648e-05
1.98547e-05
1.78565e-05
1.59698e-05
1.41937e-05
1.25264e-05
1.09659e-05
9.50974e-06
8.15529e-06
6.8996e-06
5.73954e-06
4.6718e-06
3.69292e-06
2.79924e-06
1.98695e-06
1.25212e-06
5.90732e-07
-1.31615e-09
-5.28127e-07
-9.93778e-07
-1.40231e-06
-1.75763e-06
-2.0636e-06
-2.32391e-06
-2.542e-06
-2.72139e-06
-2.86539e-06
-2.97636e-06
-3.05798e-06
-3.11273e-06
-3.14312e-06
-3.15167e-06
-3.14068e-06
-3.11234e-06
-3.0687e-06
-3.01167e-06
-2.94303e-06
-2.86446e-06
-2.77749e-06
-2.68358e-06
-2.58405e-06
-2.48012e-06
-2.37291e-06
-2.26342e-06
-2.15257e-06
-2.0412e-06
-1.93005e-06
-1.81978e-06
-1.71098e-06
-1.60416e-06
-1.49978e-06
-1.3982e-06
-1.29973e-06
-1.20466e-06
-1.11319e-06
-1.0255e-06
-9.41693e-07
-8.61849e-07
-7.86009e-07
-7.14187e-07
-6.46353e-07
-5.825e-07
-5.22502e-07
-4.66395e-07
-4.13819e-07
-3.65178e-07
-3.19298e-07
-2.78064e-07
-2.37468e-07
-2.04517e-07
-1.66046e-07
-1.44969e-07
-1.0116e-07
-1.01976e-07
-3.60244e-08
-8.16404e-08
4.01046e-08
-9.3835e-08
1.40621e-07
-1.4844e-07
2.7421e-07
-2.43965e-07
4.30225e-07
-3.51269e-07
5.634e-07
-4.05405e-07
5.99243e-07
-3.28722e-07
4.78634e-07
-9.50245e-08
2.31388e-07
2.02329e-07
1.79775e-08
3.52091e-07
6.93916e-08
1.35603e-07
5.35303e-07
6.02477e-05
5.89952e-05
5.74019e-05
5.55348e-05
5.34493e-05
5.11938e-05
4.88121e-05
4.63423e-05
4.38177e-05
4.12673e-05
3.87158e-05
3.61844e-05
3.36909e-05
3.125e-05
2.8874e-05
2.65727e-05
2.43537e-05
2.22231e-05
2.01851e-05
1.82428e-05
1.63981e-05
1.46516e-05
1.30036e-05
1.14533e-05
9.9996e-06
8.64079e-06
7.37492e-06
6.19973e-06
5.11269e-06
4.11106e-06
3.1919e-06
2.35208e-06
1.58828e-06
8.97054e-07
2.74825e-07
-2.82061e-07
-7.77312e-07
-1.21465e-06
-1.59777e-06
-1.9303e-06
-2.21582e-06
-2.45781e-06
-2.65946e-06
-2.82416e-06
-2.95503e-06
-3.05427e-06
-3.12545e-06
-3.1709e-06
-3.19304e-06
-3.19428e-06
-3.17686e-06
-3.14285e-06
-3.09422e-06
-3.03282e-06
-2.96037e-06
-2.87849e-06
-2.78866e-06
-2.69228e-06
-2.59063e-06
-2.4849e-06
-2.37616e-06
-2.26539e-06
-2.15347e-06
-2.04122e-06
-1.92935e-06
-1.8185e-06
-1.70925e-06
-1.60209e-06
-1.49744e-06
-1.39568e-06
-1.29711e-06
-1.20198e-06
-1.1105e-06
-1.02283e-06
-9.39082e-07
-8.59317e-07
-7.83574e-07
-7.11863e-07
-6.44151e-07
-5.80425e-07
-5.20559e-07
-4.64585e-07
-4.12142e-07
-3.63628e-07
-3.17877e-07
-2.76758e-07
-2.36288e-07
-2.03429e-07
-1.65094e-07
-1.44066e-07
-1.00424e-07
-1.01212e-07
-3.55037e-08
-8.09574e-08
4.04036e-08
-9.31848e-08
1.40695e-07
-1.47794e-07
2.74103e-07
-2.43371e-07
4.30034e-07
-3.50846e-07
5.63309e-07
-4.0529e-07
5.99407e-07
-3.28987e-07
4.79079e-07
-9.55781e-08
2.31993e-07
2.01682e-07
1.86828e-08
3.51291e-07
7.08799e-08
1.33765e-07
5.38533e-07
5.05964e-05
5.00716e-05
4.9169e-05
4.79515e-05
4.64742e-05
4.47867e-05
4.2934e-05
4.09557e-05
3.88869e-05
3.67582e-05
3.45964e-05
3.24243e-05
3.02618e-05
2.81254e-05
2.60293e-05
2.39848e-05
2.20016e-05
2.0087e-05
1.82471e-05
1.64861e-05
1.48074e-05
1.32128e-05
1.17037e-05
1.02804e-05
8.94254e-06
7.68945e-06
6.51991e-06
5.43233e-06
4.42484e-06
3.49531e-06
2.64135e-06
1.86039e-06
1.14965e-06
5.06196e-07
-7.30717e-08
-5.91342e-07
-1.0519e-06
-1.45809e-06
-1.81324e-06
-2.12067e-06
-2.38367e-06
-2.60545e-06
-2.78901e-06
-2.9375e-06
-3.05387e-06
-3.14018e-06
-3.19983e-06
-3.23503e-06
-3.24807e-06
-3.24126e-06
-3.21672e-06
-3.17645e-06
-3.12232e-06
-3.0561e-06
-2.97946e-06
-2.89392e-06
-2.80093e-06
-2.70182e-06
-2.59784e-06
-2.49012e-06
-2.3797e-06
-2.26751e-06
-2.15441e-06
-2.04118e-06
-1.92852e-06
-1.81704e-06
-1.70729e-06
-1.59974e-06
-1.49482e-06
-1.39286e-06
-1.29417e-06
-1.19898e-06
-1.10749e-06
-1.01985e-06
-9.36166e-07
-8.5649e-07
-7.80857e-07
-7.0927e-07
-6.41694e-07
-5.78111e-07
-5.18392e-07
-4.62566e-07
-4.10272e-07
-3.619e-07
-3.16293e-07
-2.75301e-07
-2.34972e-07
-2.02217e-07
-1.64031e-07
-1.43062e-07
-9.96003e-08
-1.00365e-07
-3.49164e-08
-8.02046e-08
4.07459e-08
-9.24701e-08
1.40786e-07
-1.47082e-07
2.73983e-07
-2.42702e-07
4.29808e-07
-3.50347e-07
5.63175e-07
-4.05124e-07
5.99556e-07
-3.29258e-07
4.79569e-07
-9.62219e-08
2.32727e-07
2.00853e-07
1.96145e-08
3.50222e-07
7.27163e-08
1.3156e-07
5.42324e-07
4.05268e-05
4.07402e-05
4.0539e-05
3.99837e-05
3.9129e-05
3.80254e-05
3.67185e-05
3.52492e-05
3.36539e-05
3.19647e-05
3.02102e-05
2.84148e-05
2.66002e-05
2.47847e-05
2.29841e-05
2.12116e-05
1.94783e-05
1.77933e-05
1.6164e-05
1.45963e-05
1.30947e-05
1.16624e-05
1.03018e-05
9.01432e-06
7.80069e-06
6.66099e-06
5.59483e-06
4.60138e-06
3.67944e-06
2.8275e-06
2.04382e-06
1.32638e-06
6.72975e-07
8.11952e-08
-4.51524e-07
-9.27907e-07
-1.35081e-06
-1.72315e-06
-2.04788e-06
-2.32801e-06
-2.56649e-06
-2.76627e-06
-2.93013e-06
-3.06096e-06
-3.16155e-06
-3.23376e-06
-3.28085e-06
-3.30489e-06
-3.30801e-06
-3.29242e-06
-3.26013e-06
-3.21303e-06
-3.1529e-06
-3.08143e-06
-3.00019e-06
-2.91067e-06
-2.81423e-06
-2.71216e-06
-2.60563e-06
-2.49574e-06
-2.38347e-06
-2.26974e-06
-2.15536e-06
-2.04107e-06
-1.92755e-06
-1.81538e-06
-1.70508e-06
-1.59713e-06
-1.4919e-06
-1.38973e-06
-1.29091e-06
-1.19565e-06
-1.10416e-06
-1.01656e-06
-9.32942e-07
-8.53367e-07
-7.77856e-07
-7.06408e-07
-6.38982e-07