/*--------------------------------*- C++ -*----------------------------------*\
| =========                 |                                                 |
| \\      /  F ield         | OpenFOAM: The Open Source CFD Toolbox           |
|  \\    /   O peration     | Version:  2412                                  |
|   \\  /    A nd           | Website:  www.openfoam.com                      |
|    \\/     M anipulation  |                                                 |
\*---------------------------------------------------------------------------*/
FoamFile
{
    version     2.0;
    format      ascii;
    arch        "LSB;label=32;scalar=64";
    class       surfaceScalarField;
    location    "18.5";
    object      phi;
}
// * * * * * * * * * * * * * * * * * * * * * * * * * * * * * * * * * * * * * //

dimensions      [0 3 -1 0 0 0 0];

oriented        oriented;

internalField   nonuniform List<scalar> 
126304
(
0.00505063
1.28508e-07
-1.70965e-14
0.00505025
3.75575e-07
1.10122e-11
0.00504964
6.09026e-07
3.50552e-11
0.00504882
8.27443e-07
7.45442e-11
0.00504778
1.03651e-06
1.20763e-10
0.00504652
1.25955e-06
1.38333e-10
0.00504498
1.53649e-06
6.48725e-11
0.00504308
1.90613e-06
-1.60619e-10
0.0050407
2.38203e-06
-5.55454e-10
0.00503776
2.93865e-06
-1.06685e-09
0.00503424
3.51658e-06
-1.57958e-09
0.0050302
4.04311e-06
-1.95362e-09
0.00502575
4.45652e-06
-2.07193e-09
0.00502103
4.72287e-06
-1.87544e-09
0.00501619
4.84063e-06
-1.3734e-09
0.00501135
4.83449e-06
-6.31162e-10
0.00500661
4.74374e-06
2.54641e-10
0.005002
4.61035e-06
1.18248e-09
0.00499753
4.47034e-06
2.06618e-09
0.00499317
4.34941e-06
2.84584e-09
0.00498891
4.26235e-06
3.48967e-09
0.00498469
4.21478e-06
3.98969e-09
0.00498048
4.20587e-06
4.35463e-09
0.00497624
4.23112e-06
4.60275e-09
0.00497195
4.28451e-06
4.75626e-09
0.00496759
4.35994e-06
4.83725e-09
0.00496313
4.45211e-06
4.86505e-09
0.00495857
4.55678e-06
4.85509e-09
0.00495389
4.67081e-06
4.81914e-09
0.0049491
4.79206e-06
4.76559e-09
0.00494417
4.91912e-06
4.70025e-09
0.00493912
5.05115e-06
4.62673e-09
0.00493393
5.18767e-06
4.54725e-09
0.00492859
5.32848e-06
4.46306e-09
0.00492312
5.4735e-06
4.37495e-09
0.00491749
5.62275e-06
4.28337e-09
0.00491171
5.77629e-06
4.18856e-09
0.00490577
5.93418e-06
4.09057e-09
0.00489967
6.0965e-06
3.98942e-09
0.0048934
6.26331e-06
3.88511e-09
0.00488696
6.43468e-06
3.77768e-09
0.00488035
6.61065e-06
3.66725e-09
0.00487355
6.79128e-06
3.55393e-09
0.00486657
6.97661e-06
3.43787e-09
0.0048594
7.16667e-06
3.31927e-09
0.00485204
7.3615e-06
3.19834e-09
0.00484448
7.56116e-06
3.07531e-09
0.00483671
7.7657e-06
2.95047e-09
0.00482873
7.97516e-06
2.8241e-09
0.00482054
8.18965e-06
2.69643e-09
0.00481212
8.4093e-06
2.56771e-09
0.00480349
8.63443e-06
2.43809e-09
0.00479462
8.86582e-06
2.30773e-09
0.00478551
9.1058e-06
2.17666e-09
9.36104e-06
0.00477615
2.04401e-09
0.00505063
2.5693e-07
0.00505025
7.50884e-07
0.00504964
1.21766e-06
0.00504882
1.65442e-06
0.00504778
2.07247e-06
0.00504652
2.51812e-06
0.00504499
3.07082e-06
0.00504309
3.80792e-06
0.00504071
4.75666e-06
0.00503778
5.86654e-06
0.00503428
7.01954e-06
0.00503025
8.07102e-06
0.00502581
8.89795e-06
0.0050211
9.43243e-06
0.00501627
9.671e-06
0.00501144
9.66247e-06
0.0050067
9.48479e-06
0.00500209
9.22143e-06
0.00499762
8.9441e-06
0.00499326
8.7041e-06
0.004989
8.53102e-06
0.00498477
8.4362e-06
0.00498056
8.41819e-06
0.00497632
8.46814e-06
0.00497203
8.57411e-06
0.00496767
8.72408e-06
0.00496322
8.90746e-06
0.00495866
9.11586e-06
0.00495398
9.34303e-06
0.00494919
9.58468e-06
0.00494427
9.83799e-06
0.00493922
1.01013e-05
0.00493404
1.03736e-05
0.00492871
1.06545e-05
0.00492324
1.09438e-05
0.00491762
1.12416e-05
0.00491185
1.1548e-05
0.00490592
1.18631e-05
0.00489983
1.2187e-05
0.00489357
1.25198e-05
0.00488715
1.28617e-05
0.00488054
1.32128e-05
0.00487376
1.35732e-05
0.0048668
1.39429e-05
0.00485964
1.4322e-05
0.00485229
1.47107e-05
0.00484474
1.51089e-05
0.00483699
1.55168e-05
0.00482903
1.59345e-05
0.00482086
1.63621e-05
0.00481247
1.68e-05
0.00480386
1.72487e-05
0.00479501
1.77097e-05
0.00478593
1.81875e-05
1.86942e-05
0.0047766
0.00505063
3.85181e-07
0.00505025
1.12564e-06
0.00504965
1.82544e-06
0.00504882
2.48033e-06
0.00504779
3.10706e-06
0.00504653
3.77445e-06
0.005045
4.60078e-06
0.00504311
5.70149e-06
0.00504074
7.11783e-06
0.00503784
8.77535e-06
0.00503436
1.04988e-05
0.00503035
1.20729e-05
0.00502594
1.33137e-05
0.00502125
1.41194e-05
0.00501644
1.44838e-05
0.00501162
1.44788e-05
0.00500689
1.42199e-05
0.00500228
1.38314e-05
0.0049978
1.34204e-05
0.00499344
1.30634e-05
0.00498917
1.28051e-05
0.00498494
1.26627e-05
0.00498073
1.26345e-05
0.00497649
1.27075e-05
0.0049722
1.28642e-05
0.00496783
1.30868e-05
0.00496338
1.33595e-05
0.00495883
1.36698e-05
0.00495416
1.40084e-05
0.00494938
1.43688e-05
0.00494447
1.47469e-05
0.00493943
1.51401e-05
0.00493426
1.55469e-05
0.00492894
1.59667e-05
0.00492349
1.63991e-05
0.00491789
1.68442e-05
0.00491213
1.73022e-05
0.00490622
1.77732e-05
0.00490015
1.82574e-05
0.00489392
1.87549e-05
0.00488751
1.9266e-05
0.00488093
1.97908e-05
0.00487418
2.03293e-05
0.00486724
2.08818e-05
0.00486011
2.14483e-05
0.0048528
2.20289e-05
0.00484528
2.26237e-05
0.00483756
2.32329e-05
0.00482964
2.38565e-05
0.00482151
2.4495e-05
0.00481316
2.51485e-05
0.00480459
2.58179e-05
0.0047958
2.65054e-05
0.00478677
2.72171e-05
2.79706e-05
0.00477749
0.00505063
5.13177e-07
0.00505026
1.49956e-06
0.00504965
2.43193e-06
0.00504882
3.30461e-06
0.00504779
4.13961e-06
0.00504654
5.02747e-06
0.00504502
6.12429e-06
0.00504313
7.58303e-06
0.00504079
9.45938e-06
0.00503791
1.16564e-05
0.00503447
1.39436e-05
0.0050305
1.60368e-05
0.00502612
1.76921e-05
0.00502147
1.87734e-05
0.00501668
1.92708e-05
0.00501188
1.92777e-05
0.00500716
1.89461e-05
0.00500255
1.84396e-05
0.00499807
1.78999e-05
0.0049937
1.7429e-05
0.00498942
1.70866e-05
0.00498519
1.68962e-05
0.00498097
1.68562e-05
0.00497673
1.695e-05
0.00497244
1.71548e-05
0.00496807
1.7447e-05
0.00496363
1.78062e-05
0.00495908
1.82157e-05
0.00495443
1.86632e-05
0.00494966
1.91402e-05
0.00494476
1.96409e-05
0.00493974
2.0162e-05
0.00493459
2.07013e-05
0.00492929
2.12581e-05
0.00492386
2.18318e-05
0.00491828
2.24225e-05
0.00491256
2.30302e-05
0.00490667
2.36553e-05
0.00490063
2.42978e-05
0.00489443
2.49581e-05
0.00488806
2.56362e-05
0.00488152
2.63325e-05
0.0048748
2.70469e-05
0.0048679
2.77797e-05
0.00486082
2.8531e-05
0.00485355
2.93008e-05
0.00484608
3.00893e-05
0.00483842
3.08967e-05
0.00483055
3.17231e-05
0.00482248
3.25687e-05
0.00481419
3.34341e-05
0.00480569
3.432e-05
0.00479697
3.52291e-05
0.00478801
3.61685e-05
3.71589e-05
0.00477883
0.00505063
6.40837e-07
0.00505026
1.87238e-06
0.00504965
3.03672e-06
0.00504883
4.12673e-06
0.0050478
5.16942e-06
0.00504655
6.27612e-06
0.00504504
7.63944e-06
0.00504317
9.44912e-06
0.00504085
1.17758e-05
0.00503801
1.45018e-05
0.00503461
1.73443e-05
0.00503069
1.9952e-05
0.00502636
2.20224e-05
0.00502175
2.33849e-05
0.005017
2.40244e-05
0.00501222
2.40541e-05
0.00500751
2.36602e-05
0.0050029
2.30446e-05
0.00499842
2.23829e-05
0.00499405
2.1802e-05
0.00498976
2.13769e-05
0.00498551
2.1138e-05
0.00498129
2.10842e-05
0.00497704
2.11958e-05
0.00497275
2.14451e-05
0.00496839
2.18034e-05
0.00496395
2.22454e-05
0.00495942
2.27507e-05
0.00495478
2.33039e-05
0.00495002
2.38943e-05
0.00494515
2.45149e-05
0.00494015
2.51611e-05
0.00493502
2.58306e-05
0.00492976
2.65219e-05
0.00492436
2.72345e-05
0.00491881
2.79683e-05
0.00491312
2.87234e-05
0.00490727
2.95001e-05
0.00490127
3.02984e-05
0.00489511
3.11188e-05
0.00488878
3.19613e-05
0.00488229
3.28261e-05
0.00487562
3.37135e-05
0.00486878
3.46234e-05
0.00486176
3.5556e-05
0.00485455
3.65115e-05
0.00484714
3.749e-05
0.00483955
3.84915e-05
0.00483176
3.95162e-05
0.00482376
4.05644e-05
0.00481556
4.16365e-05
0.00480715
4.27335e-05
0.00479852
4.38578e-05
0.00478967
4.50169e-05
4.62322e-05
0.00478059
0.00505063
7.68086e-07
0.00505026
2.2438e-06
0.00504966
3.63938e-06
0.00504884
4.94613e-06
0.00504781
6.1958e-06
0.00504657
7.51939e-06
0.00504506
9.1445e-06
0.00504321
1.12968e-05
0.00504093
1.40623e-05
0.00503812
1.73051e-05
0.00503478
2.06926e-05
0.00503092
2.38093e-05
0.00502665
2.62955e-05
0.00502208
2.79455e-05
0.00501737
2.87377e-05
0.00501262
2.88027e-05
0.00500792
2.8359e-05
0.00500332
2.7645e-05
0.00499884
2.68689e-05
0.00499446
2.61827e-05
0.00499016
2.56766e-05
0.00498591
2.53885e-05
0.00498167
2.53184e-05
0.00497742
2.54443e-05
0.00497314
2.5734e-05
0.00496878
2.6154e-05
0.00496436
2.66746e-05
0.00495983
2.72714e-05
0.00495521
2.79264e-05
0.00495048
2.86267e-05
0.00494563
2.93636e-05
0.00494066
3.01319e-05
0.00493556
3.09283e-05
0.00493033
3.17512e-05
0.00492497
3.25998e-05
0.00491946
3.34738e-05
0.00491381
3.43734e-05
0.00490801
3.52986e-05
0.00490206
3.62497e-05
0.00489595
3.72268e-05
0.00488969
3.82303e-05
0.00488325
3.92602e-05
0.00487665
4.03166e-05
0.00486987
4.13997e-05
0.00486292
4.25096e-05
0.00485578
4.36463e-05
0.00484846
4.481e-05
0.00484095
4.60006e-05
0.00483325
4.72184e-05
0.00482535
4.84636e-05
0.00481725
4.97363e-05
0.00480895
5.10376e-05
0.00480044
5.23695e-05
0.00479172
5.37385e-05
5.51639e-05
0.00478278
0.00505063
8.948e-07
0.00505026
2.61362e-06
0.00504966
4.23949e-06
0.00504884
5.76226e-06
0.00504782
7.21806e-06
0.00504659
8.7563e-06
0.00504509
1.06379e-05
0.00504327
1.31234e-05
0.00504101
1.63151e-05
0.00503826
2.0061e-05
0.00503497
2.3982e-05
0.00503117
2.76015e-05
0.00502697
3.05039e-05
0.00502246
3.24484e-05
0.0050178
3.34049e-05
0.00501308
3.35192e-05
0.0050084
3.30394e-05
0.00500381
3.22386e-05
0.00499932
3.13568e-05
0.00499493
3.05703e-05
0.00499062
2.99852e-05
0.00498636
2.96471e-05
0.00498212
2.95581e-05
0.00497787
2.96943e-05
0.00497359
3.00197e-05
0.00496925
3.04965e-05
0.00496483
3.10906e-05
0.00496033
3.17743e-05
0.00495573
3.25266e-05
0.00495102
3.33325e-05
0.0049462
3.41819e-05
0.00494127
3.50684e-05
0.00493621
3.59882e-05
0.00493102
3.69392e-05
0.0049257
3.79203e-05
0.00492024
3.89311e-05
0.00491464
3.99716e-05
0.0049089
4.10418e-05
0.00490301
4.21419e-05
0.00489696
4.32721e-05
0.00489076
4.44325e-05
0.0048844
4.56233e-05
0.00487787
4.68444e-05
0.00487117
4.80961e-05
0.0048643
4.93782e-05
0.00485726
5.0691e-05
0.00485003
5.20343e-05
0.00484263
5.34083e-05
0.00483503
5.4813e-05
0.00482725
5.62484e-05
0.00481927
5.77148e-05
0.00481109
5.92127e-05
0.00480272
6.07435e-05
0.00479415
6.2311e-05
0.00478538
6.39264e-05
0.00477679
-6.39086e-07
1.92194e-09
0.0047769
-1.17494e-07
1.83839e-09
0.00477646
4.3683e-07
1.72533e-09
0.00477543
1.02906e-06
1.6179e-09
0.00477377
1.66214e-06
1.50456e-09
0.00477143
2.3393e-06
1.38435e-09
0.00476836
3.06449e-06
1.25738e-09
0.00476452
3.84212e-06
1.12363e-09
0.00475984
4.67709e-06
9.83057e-10
0.00475426
5.57488e-06
8.35395e-10
0.00474772
6.54158e-06
6.80685e-10
0.00474014
7.58395e-06
5.18867e-10
0.00473143
8.70958e-06
3.50211e-10
0.0047215
9.9269e-06
1.75115e-10
0.00471026
1.12454e-05
-7.11814e-12
0.00469758
1.26756e-05
-1.97252e-10
0.00468335
1.42297e-05
-4.00073e-10
0.00466743
1.59214e-05
-6.09344e-10
0.00464966
1.77663e-05
-8.13945e-10
0.00462988
1.97823e-05
-1.01563e-09
0.00460789
2.19899e-05
-1.214e-09
0.00458348
2.44132e-05
-1.40824e-09
0.0045564
2.708e-05
-1.59769e-09
0.00452638
3.00233e-05
-1.77981e-09
0.0044931
3.32816e-05
-1.95263e-09
0.0044562
3.69011e-05
-2.115e-09
0.00441527
4.09362e-05
-2.26546e-09
0.00436982
4.54525e-05
-2.40386e-09
0.00431929
5.05284e-05
-2.53037e-09
0.00426304
5.62586e-05
-2.64507e-09
0.00420028
6.27579e-05
-2.74927e-09
0.00413012
7.01659e-05
-2.84455e-09
0.00405147
7.8653e-05
-2.93236e-09
0.00396305
8.8428e-05
-3.01459e-09
0.0038633
9.97456e-05
-3.09305e-09
0.00375039
0.000112915
-3.16911e-09
0.00362209
0.000128308
-3.24406e-09
0.00347573
0.000146355
-3.31924e-09
0.0033082
0.000167534
-3.39561e-09
0.00311588
0.000192326
-3.47363e-09
0.00289476
0.00022112
-3.55392e-09
0.00264073
0.000254037
-3.63784e-09
0.00235011
0.000290629
-3.72648e-09
0.00202072
0.000329391
-3.81723e-09
0.00165369
0.000367037
-3.89948e-09
0.00125623
0.000397464
-3.9437e-09
0.00084579
0.00041044
-3.88202e-09
0.00045585
0.000389944
-3.58617e-09
0.000144236
0.000311617
-2.84269e-09
0.000144237
-1.34944e-09
0.00477586
9.37109e-08
0.00477462
1.13053e-06
0.00477281
2.23894e-06
0.00477042
3.42171e-06
0.0047674
4.68552e-06
0.0047637
6.03744e-06
0.00475928
7.48536e-06
0.00475408
9.03814e-06
0.00474805
1.07056e-05
0.00474113
1.24988e-05
0.00473324
1.44298e-05
0.00472431
1.65122e-05
0.00471426
1.87613e-05
0.004703
2.11938e-05
0.00469041
2.38288e-05
0.0046764
2.66876e-05
0.00466084
2.97942e-05
0.00464358
3.31764e-05
0.00462448
3.68654e-05
0.00460337
4.0897e-05
0.00458004
4.53125e-05
0.0045543
5.01598e-05
0.00452588
5.54951e-05
0.00449452
6.1384e-05
0.0044599
6.79043e-05
0.00442165
7.51478e-05
0.00437937
8.32239e-05
0.00433255
9.22633e-05
0.00428066
0.000102423
0.00422303
0.000113892
0.00415889
0.000126898
0.00408733
0.000141721
0.00400729
0.000158698
0.00391747
0.000178244
0.00381635
0.000200862
0.00370211
0.000227164
0.00357254
0.000257878
0.00342504
0.00029385
0.00325657
0.00033601
0.00306361
0.000385284
0.00284232
0.000442404
0.00258881
0.000507555
0.00229966
0.000579775
0.00197305
0.000656
0.00161045
0.000729641
0.00121935
0.000788557
0.000817363
0.000812431
0.000437606
0.0007697
0.000135824
0.000613399
0.000280061
0.00477404
3.53995e-06
0.00477008
5.09373e-06
0.00476557
6.75076e-06
0.00476047
8.51946e-06
0.00475475
1.04094e-05
0.00474835
1.24312e-05
0.00474124
1.45969e-05
0.00473336
1.69199e-05
0.00472465
1.9415e-05
0.00471505
2.20987e-05
0.00470449
2.49893e-05
0.0046929
2.81071e-05
0.00468018
3.14752e-05
0.00466626
3.51187e-05
0.00465102
3.90663e-05
0.00463436
4.335e-05
0.00461615
4.80061e-05
0.00459625
5.30762e-05
0.0045745
5.86074e-05
0.00455075
6.46535e-05
0.00452478
7.12767e-05
0.00449639
7.85492e-05
0.00446533
8.65555e-05
0.00443132
9.53944e-05
0.00439404
0.000105183
0.00435313
0.000116058
0.00430817
0.000128186
0.00425868
0.000141761
0.00420408
0.000157018
0.00414373
0.00017424
0.00407686
0.000193769
0.00400256
0.000216017
0.00391978
0.000241488
0.00382723
0.000270792
0.00372342
0.000304673
0.00360655
0.000344026
0.00347452
0.000389913
0.00332481
0.000443555
0.00315454
0.000506283
0.00296043
0.000579394
0.00273897
0.000663868
0.00248668
0.000759836
0.00220076
0.0008657
0.00188003
0.000976734
0.00152662
0.00108304
0.00114852
0.00116666
0.00076334
0.00119761
0.000403753
0.00112929
0.000122912
0.00089424
0.000402973
0.00477135
1.10199e-05
0.00476336
1.30825e-05
0.00475483
1.52814e-05
0.00474572
1.76284e-05
0.00473599
2.01366e-05
0.0047256
2.28204e-05
0.0047145
2.5696e-05
0.00470264
2.87812e-05
0.00468996
3.20959e-05
0.0046764
3.56621e-05
0.00466188
3.95045e-05
0.00464634
4.36501e-05
0.00462968
4.81296e-05
0.00461183
5.29769e-05
0.00459266
5.82301e-05
0.00457208
6.39321e-05
0.00454996
7.01315e-05
0.00452615
7.68841e-05
0.0045005
8.42528e-05
0.00447285
9.23098e-05
0.00444298
0.000101138
0.0044107
0.000110835
0.00437574
0.000121514
0.00433783
0.000133306
0.00429664
0.000146368
0.00425182
0.000160884
0.00420293
0.000177073
0.00414949
0.000195198
0.00409094
0.000215569
0.00402662
0.000238562
0.00395576
0.000264627
0.00387747
0.000294311
0.00379069
0.000328271
0.00369417
0.000367308
0.00358646
0.000412385
0.00346583
0.000464656
0.00333026
0.000525475
0.00317744
0.000596383
0.00300469
0.000679025
0.00280913
0.000774956
0.00258775
0.000885252
0.00233777
0.00100981
0.00205725
0.00114622
0.00174602
0.00128796
0.00140719
0.00142188
0.00104924
0.00152461
0.000689335
0.00155751
0.000358304
0.00146032
0.000104583
0.00114796
0.000507555
0.00476782
2.37955e-05
0.00475455
2.63558e-05
0.00474074
2.90853e-05
0.00472637
3.19993e-05
0.00471139
3.51142e-05
0.00469577
3.84484e-05
0.00467944
4.20222e-05
0.00466236
4.5858e-05
0.00464448
4.99808e-05
0.00462572
5.4418e-05
0.00460603
5.92005e-05
0.00458531
6.43624e-05
0.0045635
6.99419e-05
0.0045405
7.59817e-05
0.0045162
8.25294e-05
0.00449049
8.96389e-05
0.00446325
9.73714e-05
0.00443434
0.000105797
0.0044036
0.000114994
0.00437085
0.000125054
0.00433591
0.000136081
0.00429855
0.000148198
0.00425851
0.000161545
0.00421553
0.00017629
0.00416927
0.000192627
0.00411937
0.000210789
0.00406539
0.000231049
0.00400686
0.000253733
0.00394319
0.000279231
0.00387375
0.000308006
0.00379776
0.000340619
0.00371433
0.000377739
0.00362243
0.000420173
0.00352085
0.000468891
0.00340818
0.000525055
0.00328279
0.000590038
0.00314284
0.000665432
0.00298621
0.00075301
0.00281062
0.000854613
0.00261369
0.000971889
0.00239314
0.0011058
0.0021472
0.00125576
0.00187515
0.00141827
0.00157821
0.00158489
0.00126074
0.00173936
0.000931736
0.00185361
0.000607069
0.00188217
0.000312663
0.00175473
8.65364e-05
0.00137409
0.000594092
0.00476352
4.30595e-05
0.00474378
4.61003e-05
0.00472352
4.9344e-05
0.00470271
5.28087e-05
0.00468131
5.65145e-05
0.00465927
6.04835e-05
0.00463655
6.47401e-05
0.0046131
6.9311e-05
0.00458886
7.42262e-05
0.00456376
7.95188e-05
0.00453773
8.52257e-05
0.0045107
9.1388e-05
0.00448259
9.80516e-05
0.00445331
0.000105268
0.00442274
0.000113094
0.00439079
0.000121596
0.00435731
0.000130846
0.00432218
0.000140929
0.00428523
0.000151941
0.0042463
0.000163991
0.00420517
0.000177206
0.00416164
0.000191732
0.00411544
0.000207741
0.0040663
0.000225433
0.00401388
0.000245044
0.00395782
0.000266854
0.00389767
0.000291191
0.00383296
0.000318445
0.00376311
0.000349083
0.00368746
0.000383657
0.00360525
0.000422829
0.0035156
0.000467388
0.0034175
0.000518277
0.00330977
0.000576616
0.0031911
0.00064373
0.00305998
0.000721158
0.00291477
0.000810644
0.00275371
0.000914069
0.00257503
0.00103329
0.00237714
0.00116978
0.00215887
0.00132407
0.00191993
0.0014947
0.00166151
0.0016767
0.00138697
0.00185944
0.00110256
0.00202377
0.00081809
0.00213808
0.000547131
0.00215313
0.000305611
0.00199625
0.000105506
0.00157419
0.000699597
0.00475853
6.99108e-05
0.00473123
7.34069e-05
0.00470343
7.71424e-05
0.0046751
8.11365e-05
0.0046462
8.54123e-05
0.00461669
8.99951e-05
0.00458652
9.49131e-05
0.00455563
0.000100197
0.00452397
0.000105883
0.00449149
0.000112008
0.0044581
0.000118616
0.00442373
0.000125754
0.0043883
0.000133477
0.00435173
0.000141844
0.0043139
0.000150923
0.0042747
0.000160789
0.00423402
0.00017153
0.00419171
0.000183243
0.00414761
0.000196041
0.00410155
0.000210053
0.00405332
0.000225426
0.00400272
0.000242333
0.00394949
0.000260976
0.00389333
0.00028159
0.00383393
0.00030445
0.00377089
0.000329884
0.00370381
0.000358276
0.00363217
0.000390082
0.00355541
0.000425841
0.00347288
0.000466195
0.0033838
0.000511904
0.00328732
0.000563871
0.00318243
0.00062316
0.00306802
0.000691026
0.00294283
0.000768921
0.00280549
0.000858497
0.00265458
0.000961558
0.00248869
0.00107995
0.00230666
0.00121533
0.00210776
0.00136868
0.00189218
0.00153964
0.00166157
0.00172531
0.00141967
0.00191859
0.00117306
0.00210605
0.000931595
0.00226523
0.000708029
0.00236165
0.000515423
0.00234574
0.000358233
0.00215344
0.00021684
0.00171559
0.000916437
-3.02354e-05
3.02361e-05
-6.86896e-10
-8.59516e-05
5.57179e-05
-1.69546e-09
-0.000145786
5.9837e-05
-2.46384e-09
-0.000197204
5.14213e-05
-3.02965e-09
-0.000233225
3.60236e-05
-3.39818e-09
-0.000250245
1.70235e-05
-3.56045e-09
-0.000246619
-3.6223e-06
-3.44978e-09
-0.000222801
-2.38143e-05
-3.27779e-09
-0.000179132
-4.36661e-05
-2.86799e-09
-0.000116699
-6.24313e-05
-2.24326e-09
-3.68757e-05
-7.98216e-05
-1.42883e-09
5.87857e-05
-9.5661e-05
-4.42022e-10
0.000168614
-0.000109829
6.82945e-10
0.000290922
-0.000122311
1.91664e-09
0.000424018
-0.000133099
3.22251e-09
0.00056623
-0.000142216
4.56874e-09
0.00071593
-0.000149706
5.9322e-09
0.000871552
-0.000155629
7.29906e-09
0.00103161
-0.000160062
8.66817e-09
0.00119468
-0.000163088
1.0042e-08
0.00135947
-0.000164803
1.13167e-08
0.00152476
-0.000165301
1.24226e-08
0.00168943
-0.000164684
1.32619e-08
0.00185247
-0.000163049
1.39066e-08
0.00201296
-0.000160504
1.44855e-08
0.0021701
-0.000157158
1.47397e-08
0.0023232
-0.000153117
1.46515e-08
0.00247167
-0.000148482
1.42568e-08
0.00261501
-0.000143352
1.36029e-08
0.00275282
-0.00013782
1.27416e-08
0.00288478
-0.000131973
1.17112e-08
0.00301066
-0.000125893
1.05399e-08
0.00313031
-0.000119656
9.25256e-09
0.00324363
-0.000113332
7.87688e-09
0.00335061
-0.000106983
6.44462e-09
0.00345127
-0.000100665
4.99263e-09
0.00354569
-9.44277e-05
3.55942e-09
0.00363401
-8.83142e-05
2.18329e-09
0.00371637
-8.23609e-05
8.98715e-10
0.00379296
-7.65982e-05
-2.6502e-10
0.00386402
-7.10507e-05
-1.28476e-09
0.00392976
-6.57377e-05
-2.14605e-09
0.00399043
-6.06734e-05
-2.83982e-09
0.0040463
-5.58676e-05
-3.36283e-09
0.00409763
-5.13257e-05
-3.7174e-09
0.00414469
-4.70494e-05
-3.91013e-09
0.00418773
-4.30372e-05
-3.94984e-09
0.00422701
-3.92845e-05
-3.84675e-09
0.0042628
-3.5784e-05
-3.61177e-09
-3.25259e-05
0.00429533
-3.2559e-09
-2.65232e-05
5.67593e-05
-7.52412e-05
0.000104436
-0.000127099
0.000111695
-0.000171077
9.53991e-05
-0.000200804
6.57505e-05
-0.000212891
2.91105e-05
-0.000205988
-1.05247e-05
-0.000180065
-4.97376e-05
-0.000135458
-8.8273e-05
-7.30927e-05
-0.000124797
5.88696e-06
-0.000158801
9.99809e-05
-0.000189755
0.000207743
-0.000217591
0.00032761
-0.000242177
0.000457995
-0.000263484
0.000597323
-0.000281544
0.000744047
-0.00029643
0.000896672
-0.000308254
0.00105376
-0.000317151
0.00121396
-0.000323283
0.00137598
-0.000326825
0.00153864
-0.000327966
0.00170085
-0.000326896
0.00186161
-0.000323809
0.00202002
-0.000318909
0.00217527
-0.000312413
0.00232668
-0.000304528
0.00247366
-0.000295456
0.00261569
-0.00028539
0.00275239
-0.000274513
0.00288342
-0.000263001
0.00300854
-0.000251015
0.00312759
-0.000238707
0.00324047
-0.000226216
0.00334716
-0.000213665
0.00344766
-0.000201169
0.00354206
-0.000188824
0.00363046
-0.000176718
0.00371302
-0.000164924
0.00378993
-0.000153502
0.00386138
-0.000142503
0.00392761
-0.000131965
0.00398885
-0.000121917
0.00404536
-0.00011238
0.0040974
-0.000103364
0.00414522
-9.48729e-05
0.00418909
-8.69047e-05
0.00422926
-7.94503e-05
0.00426597
-7.24951e-05
-6.60188e-05
0.00429946
-1.99518e-05
7.67112e-05
-5.46779e-05
0.000139162
-9.12826e-05
0.0001483
-0.000121077
0.000125193
-0.000138885
8.35586e-05
-0.000141707
3.19323e-05
-0.000128656
-2.35751e-05
-9.89654e-05
-7.94285e-05
-5.27495e-05
-0.000134489
9.31541e-06
-0.000186862
8.62473e-05
-0.000235733
0.000177162
-0.00028067
0.000280798
-0.000321226
0.00039583
-0.00035721
0.000520892
-0.000388546
0.000654591
-0.000415243
0.000795539
-0.000437378
0.000942369
-0.000455083
0.00109375
-0.000468535
0.00124841
-0.000477945
0.00140515
-0.000483558
0.00156282
-0.000485636
0.00172037
-0.000484447
0.00187683
-0.000480268
0.00203131
-0.000473393
0.00218303
-0.000464131
0.00233129
-0.000452789
0.0024755
-0.000439662
0.00261514
-0.000425033
0.0027498
-0.000409176
0.00287915
-0.000392346
0.00300292
-0.000374787
0.00312094
-0.000356724
0.00323308
-0.000338362
0.00333931
-0.00031989
0.00343962
-0.000301477
0.00353406
-0.000283269
0.00362274
-0.000265398
0.00370579
-0.000247973
0.00378337
-0.000231087
0.00385569
-0.000214816
0.00392294
-0.000199219
0.00398536
-0.000184341
0.0040432
-0.000170211
0.00409668
-0.000156849
0.00414607
-0.000144261
0.00419161
-0.000132444
0.00423355
-0.000121386
0.00427211
-0.000111064
-0.000101448
0.00430754
-8.31649e-06
8.50277e-05
-2.46482e-05
0.000155494
-4.02847e-05
0.000163936
-5.05448e-05
0.000135453
-5.21974e-05
8.52112e-05
-4.24761e-05
2.2211e-05
-2.12768e-05
-4.47744e-05
1.29482e-05
-0.000113653
6.03474e-05
-0.000181888
0.000121114
-0.000247628
0.000194866
-0.000309485
0.000280873
-0.000366677
0.000378315
-0.000418668
0.000486229
-0.000465125
0.000603551
-0.000505868
0.000729148
-0.00054084
0.000861847
-0.000570077
0.00100046
-0.000593697
0.00114381
-0.000611881
0.00129073
-0.000624866
0.0014401
-0.000632934
0.00159087
-0.0006364
0.00174202
-0.000635596
0.00189261
-0.000630864
0.00204179
-0.000622568
0.00218876
-0.0006111
0.00233283
-0.000596859
0.00247339
-0.000580225
0.00260993
-0.000561568
0.00274199
-0.000541243
0.00286923
-0.000519587
0.00299137
-0.000496922
0.00310819
-0.000473544
0.00321955
-0.000449727
0.00332539
-0.000425723
0.00342566
-0.000401755
0.00352042
-0.000378022
0.00360972
-0.000354699
0.00369368
-0.000331934
0.00377245
-0.000309853
0.00384619
-0.000288558
0.0039151
-0.000268131
0.00397939
-0.000248632
0.00403928
-0.000230105
0.00409501
-0.000212574
0.0041468
-0.000196052
0.00419489
-0.000180535
0.00423951
-0.000166009
0.00428089
-0.000152445
-0.000139798
0.00431924
6.64597e-06
7.83817e-05
1.38745e-05
0.000148265
2.37993e-05
0.000154011
3.64189e-05
0.000122834
5.30432e-05
6.85869e-05
7.6725e-05
-1.47079e-06
0.000106017
-7.40665e-05
0.000144507
-0.000152143
0.000192763
-0.000230144
0.000251203
-0.000306069
0.000320065
-0.000378346
0.000399258
-0.00044587
0.000488449
-0.000507859
0.000587103
-0.000563779
0.000694524
-0.000613288
0.000809888
-0.000656204
0.000932282
-0.000692472
0.00106073
-0.000722147
0.00119423
-0.000745375
0.00133174
-0.000762379
0.00147225
-0.00077345
0.00161478
-0.000778926
0.00175836
-0.000779179
0.0019021
-0.000774599
0.00204513
-0.000765603
0.00218668
-0.000752649
0.00232604
-0.000736216
0.00246258
-0.000716766
0.00259576
-0.000694746
0.0027251
-0.000670589
0.00285023
-0.000644712
0.00297082
-0.00061751
0.00308663
-0.000589353
0.00319748
-0.000560584
0.00330327
-0.000531514
0.00340395
-0.000502426
0.0034995
-0.000473572
0.00358997
-0.000445171
0.00367545
-0.000417412
0.00375605
-0.000390455
0.00383192
-0.000364431
0.00390324
-0.000339445
0.00397018
-0.000315576
0.00403296
-0.00029288
0.00409177
-0.000271393
0.00414685
-0.000251131
0.00419841
-0.000232093
0.00424667
-0.000214263
0.00429183
-0.000197608
-0.000182067
0.0043341
2.27154e-05
5.56663e-05
5.78388e-05
0.000113142
9.60895e-05
0.000115761
0.000134189
8.47343e-05
0.000171578
3.11974e-05
0.000206248
-3.61405e-05
0.000244345
-0.000112163
0.000286097
-0.000193895
0.000333399
-0.000277446
0.000387569
-0.000360238
0.000449529
-0.000440307
0.000519833
-0.000516174
0.000598706
-0.000586732
0.000686094
-0.000651166
0.000781707
-0.000708901
0.000885065
-0.000759562
0.000995536
-0.000802944
0.00111238
-0.000838985
0.00123475
-0.000867749
0.00136177
-0.000889402
0.00149253
-0.000904204
0.00162609
-0.00091249
0.00176156
-0.000914645
0.00189804
-0.000911084
0.0020347
-0.000902259
0.00217073
-0.000888681
0.00230541
-0.000870893
0.00243807
-0.000849432
0.00256814
-0.000824817
0.00269511
-0.000797556
0.00281854
-0.000768142
0.00293807
-0.000737045
0.00305343
-0.000704706
0.00316438
-0.000671538
0.00327079
-0.000637917
0.00337255
-0.000604186
0.00346962
-0.000570649
0.00356203
-0.000537575
0.00364981
-0.000505195
0.00373306
-0.000473707
0.0038119
-0.000443271
0.00388647
-0.000414018
0.00395695
-0.000386048
0.0040235
-0.000359433
0.00408633
-0.000334218
0.00414562
-0.000310428
0.0042016
-0.000288065
0.00425445
-0.000267113
0.00430437
-0.000247535
-0.00022926
0.00435157
4.18861e-05
1.37801e-05
0.000109673
4.53545e-05
0.000176875
4.8559e-05
0.000238512
2.30973e-05
0.000292014
-2.23042e-05
0.000337937
-8.20642e-05
0.000380816
-0.000155042
0.000422938
-0.000236018
0.000466785
-0.000321293
0.000514425
-0.000407879
0.000567485
-0.000493366
0.000627142
-0.000575831
0.000694169
-0.00065376
0.000768981
-0.000725979
0.000851689
-0.000791608
0.000942142
-0.000850015
0.00103998
-0.000900783
0.00114468
-0.000943681
0.00125557
-0.000978638
0.00137189
-0.00100573
0.00149282
-0.00102513
0.00161749
-0.00103716
0.00174503
-0.00104218
0.00187456
-0.00104062
0.00200524
-0.00103294
0.00213624
-0.00101968
0.0022668
-0.00100145
0.00239622
-0.000978853
0.00252387
-0.000952467
0.00264919
-0.000922877
0.0027717
-0.00089065
0.00289099
-0.00085633
0.00300671
-0.000820433
0.00311861
-0.000783441
0.0032265
-0.000745799
0.00333022
-0.000707911
0.00342971
-0.00067014
0.00352494
-0.000632805
0.00361593
-0.000596184
0.00370274
-0.000560513
0.00378545
-0.000525987
0.0038642
-0.000492765
0.00393912
-0.000460969
0.00401038
-0.000430689
0.00407814
-0.000401982
0.00414259
-0.000374883
0.00420393
-0.000349398
0.00426233
-0.000325513
0.00431798
-0.00030319
0.00437108
-0.000282361
0.00433436
-3.90302e-05
-2.80778e-09
0.00437137
-3.69983e-05
-2.29696e-09
0.00440642
-3.50483e-05
-1.69903e-09
0.0044396
-3.31866e-05
-1.03865e-09
0.00447102
-3.14158e-05
-3.36794e-10
0.00450076
-2.97366e-05
3.93486e-10
0.0045289
-2.81487e-05
1.13252e-09
0.00455555
-2.66509e-05
1.86813e-09
0.00458079
-2.52412e-05
2.58873e-09
0.0046047
-2.3917e-05
3.28534e-09
0.00462738
-2.26751e-05
3.95199e-09
0.00464888
-2.1512e-05
4.58576e-09
0.0046693
-2.04236e-05
5.18649e-09
0.0046887
-1.94058e-05
5.75607e-09
0.00470715
-1.84538e-05
6.29812e-09
0.0047247
-1.75629e-05
6.8171e-09
0.00474142
-1.67275e-05
7.31748e-09
0.00475736
-1.59419e-05
7.8029e-09
0.00477255
-1.51998e-05
8.27521e-09
0.00478704
-1.44943e-05
8.73378e-09
0.00480085
-1.38184e-05
9.17469e-09
0.004814
-1.31651e-05
9.59052e-09
0.00482652
-1.2528e-05
9.97025e-09
0.00483841
-1.1902e-05
1.02994e-08
0.00484968
-1.12837e-05
1.05623e-08
0.00486035
-1.06727e-05
1.07419e-08
0.00487041
-1.0071e-05
1.0823e-08
0.00487988
-9.48378e-06
1.07939e-08
0.00488879
-8.91812e-06
1.0647e-08
0.00489716
-8.38223e-06
1.03814e-08
0.00490503
-7.88395e-06
1.00022e-08
0.00491245
-7.42933e-06
9.52171e-09
0.00491946
-7.02155e-06
8.95654e-09
0.00492612
-6.66041e-06
8.32582e-09
0.00493245
-6.34248e-06
7.65042e-09
0.00493851
-6.06181e-06
6.95029e-09
0.00494431
-5.81106e-06
6.24267e-09
0.00494989
-5.58267e-06
5.54203e-09
0.00495525
-5.36981e-06
4.8598e-09
0.00496042
-5.16703e-06
4.20388e-09
0.00496538
-4.97048e-06
3.57848e-09
0.00497016
-4.77785e-06
2.98655e-09
0.00497474
-4.58804e-06
2.42997e-09
0.00497914
-4.40084e-06
1.91216e-09
0.00498336
-4.21623e-06
1.44743e-09
0.00498739
-4.03506e-06
1.00936e-09
0.00499125
-3.85783e-06
6.04141e-10
0.00499493
-3.68495e-06
2.35439e-10
0.00499845
-3.51675e-06
-9.97712e-11
0.0050018
-3.35348e-06
-4.06388e-10
0.005005
-3.19527e-06
-6.91326e-10
0.00500804
-3.04216e-06
-9.62871e-10
0.00501094
-2.89416e-06
-1.23025e-09
0.00501369
-2.75122e-06
-1.50229e-09
0.00501631
-2.61327e-06
-1.78682e-09
0.00501879
-2.48021e-06
-2.0894e-09
0.00502114
-2.35195e-06
-2.41193e-09
0.00502337