/*--------------------------------*- C++ -*----------------------------------*\
| =========                 |                                                 |
| \\      /  F ield         | OpenFOAM: The Open Source CFD Toolbox           |
|  \\    /   O peration     | Version:  2412                                  |
|   \\  /    A nd           | Website:  www.openfoam.com                      |
|    \\/     M anipulation  |                                                 |
\*---------------------------------------------------------------------------*/
FoamFile
{
    version     2.0;
    format      ascii;
    arch        "LSB;label=32;scalar=64";
    class       volVectorField;
    location    "18.5";
    object      U;
}
// * * * * * * * * * * * * * * * * * * * * * * * * * * * * * * * * * * * * * //

dimensions      [0 1 -1 0 0 0 0];

internalField   nonuniform List<vector> 
63420
(
(0.0999997 4.3498e-07 0)
(0.099995 1.2967e-06 0)
(0.0999852 2.14467e-06 0)
(0.0999709 2.97195e-06 0)
(0.0999524 3.79721e-06 0)
(0.0999299 4.70685e-06 0)
(0.0999026 5.85776e-06 0)
(0.0998691 7.4146e-06 0)
(0.0998272 9.4541e-06 0)
(0.0997749 1.18993e-05 0)
(0.099711 1.45258e-05 0)
(0.0996358 1.70346e-05 0)
(0.0995511 1.91497e-05 0)
(0.0994595 2.06959e-05 0)
(0.0993642 2.16303e-05 0)
(0.0992679 2.2028e-05 0)
(0.0991727 2.20392e-05 0)
(0.09908 2.18404e-05 0)
(0.0989901 2.15939e-05 0)
(0.0989029 2.14242e-05 0)
(0.0988177 2.1411e-05 0)
(0.0987339 2.15927e-05 0)
(0.0986507 2.19766e-05 0)
(0.0985672 2.25505e-05 0)
(0.098483 2.32923e-05 0)
(0.0983974 2.41777e-05 0)
(0.0983101 2.51841e-05 0)
(0.0982209 2.62935e-05 0)
(0.0981295 2.74925e-05 0)
(0.0980358 2.87722e-05 0)
(0.0979396 3.01276e-05 0)
(0.0978409 3.15568e-05 0)
(0.0977394 3.30598e-05 0)
(0.0976353 3.46381e-05 0)
(0.0975283 3.62942e-05 0)
(0.0974184 3.80314e-05 0)
(0.0973055 3.98531e-05 0)
(0.0971895 4.17631e-05 0)
(0.0970704 4.37654e-05 0)
(0.096948 4.58641e-05 0)
(0.0968223 4.80633e-05 0)
(0.0966931 5.03673e-05 0)
(0.0965604 5.27805e-05 0)
(0.096424 5.53074e-05 0)
(0.096284 5.79526e-05 0)
(0.0961402 6.0721e-05 0)
(0.0959924 6.36177e-05 0)
(0.0958407 6.66478e-05 0)
(0.0956848 6.98171e-05 0)
(0.0955248 7.31314e-05 0)
(0.0953605 7.65977e-05 0)
(0.0951918 8.02244e-05 0)
(0.0950185 8.40253e-05 0)
(0.0948406 8.80302e-05 0)
(0.0946579 9.23143e-05 0)
(0.0999997 1.30465e-06 0)
(0.099995 3.88928e-06 0)
(0.0999852 6.433e-06 0)
(0.0999709 8.91498e-06 0)
(0.0999525 1.13909e-05 0)
(0.0999299 1.41184e-05 0)
(0.0999027 1.75658e-05 0)
(0.0998692 2.2225e-05 0)
(0.0998275 2.83261e-05 0)
(0.0997753 3.56411e-05 0)
(0.0997116 4.35013e-05 0)
(0.0996367 5.10147e-05 0)
(0.0995522 5.73572e-05 0)
(0.0994609 6.20045e-05 0)
(0.0993658 6.48266e-05 0)
(0.0992696 6.60455e-05 0)
(0.0991746 6.61087e-05 0)
(0.0990819 6.55416e-05 0)
(0.098992 6.48283e-05 0)
(0.0989047 6.43411e-05 0)
(0.0988195 6.43178e-05 0)
(0.0987356 6.48739e-05 0)
(0.0986523 6.60322e-05 0)
(0.0985688 6.77568e-05 0)
(0.0984846 6.99826e-05 0)
(0.098399 7.2637e-05 0)
(0.0983118 7.56536e-05 0)
(0.0982226 7.89781e-05 0)
(0.0981313 8.25709e-05 0)
(0.0980376 8.64058e-05 0)
(0.0979415 9.04678e-05 0)
(0.0978429 9.47509e-05 0)
(0.0977416 9.92552e-05 0)
(0.0976375 0.000103985 0)
(0.0975307 0.000108949 0)
(0.0974209 0.000114155 0)
(0.0973082 0.000119614 0)
(0.0971924 0.000125338 0)
(0.0970735 0.000131339 0)
(0.0969513 0.000137628 0)
(0.0968258 0.000144218 0)
(0.0966968 0.000151121 0)
(0.0965644 0.000158351 0)
(0.0964283 0.000165922 0)
(0.0962885 0.000173847 0)
(0.096145 0.00018214 0)
(0.0959976 0.000190817 0)
(0.0958462 0.000199894 0)
(0.0956907 0.000209386 0)
(0.095531 0.000219313 0)
(0.0953671 0.000229693 0)
(0.0951988 0.000240553 0)
(0.095026 0.000251933 0)
(0.0948487 0.00026392 0)
(0.0946665 0.000276727 0)
(0.0999997 2.17344e-06 0)
(0.099995 6.479e-06 0)
(0.0999852 1.07168e-05 0)
(0.0999709 1.48522e-05 0)
(0.0999525 1.89771e-05 0)
(0.09993 2.35174e-05 0)
(0.0999028 2.92485e-05 0)
(0.0998695 3.69868e-05 0)
(0.0998279 4.7117e-05 0)
(0.0997761 5.92654e-05 0)
(0.0997129 7.23282e-05 0)
(0.0996384 8.4828e-05 0)
(0.0995545 9.53974e-05 0)
(0.0994636 0.000103163 0)
(0.0993689 0.000107904 0)
(0.0992731 0.000109983 0)
(0.0991782 0.000110137 0)
(0.0990856 0.000109236 0)
(0.0989956 0.000108082 0)
(0.0989083 0.000107293 0)
(0.098823 0.000107267 0)
(0.098739 0.000108196 0)
(0.0986556 0.000110121 0)
(0.0985721 0.000112984 0)
(0.0984878 0.000116678 0)
(0.0984022 0.000121085 0)
(0.098315 0.000126095 0)
(0.0982259 0.000131618 0)
(0.0981347 0.000137589 0)
(0.0980412 0.000143963 0)
(0.0979453 0.000150717 0)
(0.0978468 0.000157839 0)
(0.0977458 0.00016533 0)
(0.097642 0.000173197 0)
(0.0975355 0.000181453 0)
(0.097426 0.000190113 0)
(0.0973136 0.000199194 0)
(0.0971982 0.000208715 0)
(0.0970796 0.000218696 0)
(0.0969579 0.000229156 0)
(0.0968328 0.000240116 0)
(0.0967043 0.000251597 0)
(0.0965723 0.000263621 0)
(0.0964368 0.00027621 0)
(0.0962976 0.000289387 0)
(0.0961547 0.000303175 0)
(0.0960079 0.000317601 0)
(0.0958571 0.000332688 0)
(0.0957024 0.000348466 0)
(0.0955435 0.000364962 0)
(0.0953803 0.000382211 0)
(0.0952129 0.000400253 0)
(0.0950411 0.000419154 0)
(0.0948647 0.000439051 0)
(0.0946835 0.000460285 0)
(0.0999997 3.04077e-06 0)
(0.0999951 9.06392e-06 0)
(0.0999852 1.49931e-05 0)
(0.099971 2.07798e-05 0)
(0.0999526 2.65509e-05 0)
(0.0999302 3.28957e-05 0)
(0.0999031 4.08897e-05 0)
(0.0998699 5.16692e-05 0)
(0.0998286 6.57755e-05 0)
(0.0997773 8.26987e-05 0)
(0.0997147 0.000100913 0)
(0.099641 0.00011837 0)
(0.0995578 0.000133165 0)
(0.0994677 0.000144077 0)
(0.0993735 0.000150787 0)
(0.0992781 0.000153787 0)
(0.0991835 0.000154096 0)
(0.099091 0.000152917 0)
(0.099001 0.000151365 0)
(0.0989135 0.000150301 0)
(0.0988281 0.000150282 0)
(0.098744 0.000151581 0)
(0.0986605 0.000154259 0)
(0.0985768 0.000158241 0)
(0.0984925 0.00016338 0)
(0.0984069 0.000169513 0)
(0.0983198 0.000176489 0)
(0.0982309 0.000184183 0)
(0.0981398 0.000192505 0)
(0.0980466 0.000201394 0)
(0.0979509 0.000210814 0)
(0.0978528 0.000220751 0)
(0.0977521 0.000231204 0)
(0.0976487 0.000242184 0)
(0.0975426 0.000253708 0)
(0.0974336 0.000265796 0)
(0.0973217 0.000278472 0)
(0.0972068 0.000291762 0)
(0.0970888 0.000305694 0)
(0.0969677 0.000320293 0)
(0.0968432 0.00033559 0)
(0.0967155 0.000351612 0)
(0.0965842 0.000368391 0)
(0.0964495 0.000385955 0)
(0.0963111 0.000404339 0)
(0.0961691 0.000423573 0)
(0.0960232 0.000443692 0)
(0.0958735 0.000464733 0)
(0.0957198 0.000486731 0)
(0.095562 0.000509729 0)
(0.0954001 0.000533769 0)
(0.095234 0.000558909 0)
(0.0950635 0.000585234 0)
(0.0948886 0.000612921 0)
(0.094709 0.000642415 0)
(0.0999997 3.90613e-06 0)
(0.0999951 1.16421e-05 0)
(0.0999853 1.92588e-05 0)
(0.0999711 2.66938e-05 0)
(0.0999528 3.41071e-05 0)
(0.0999304 4.22451e-05 0)
(0.0999034 5.24741e-05 0)
(0.0998704 6.62441e-05 0)
(0.0998295 8.4255e-05 0)
(0.0997788 0.000105874 0)
(0.099717 0.000129171 0)
(0.0996442 0.000151544 0)
(0.099562 0.000170563 0)
(0.0994728 0.000184657 0)
(0.0993795 0.000193403 0)
(0.0992846 0.000197409 0)
(0.0991903 0.000197958 0)
(0.0990979 0.000196576 0)
(0.099008 0.000194682 0)
(0.0989204 0.000193378 0)
(0.0988348 0.000193381 0)
(0.0987505 0.000195047 0)
(0.0986668 0.000198461 0)
(0.0985831 0.000203533 0)
(0.0984987 0.000210084 0)
(0.0984132 0.000217907 0)
(0.0983262 0.000226811 0)
(0.0982374 0.00023664 0)
(0.0981466 0.000247277 0)
(0.0980537 0.000258644 0)
(0.0979584 0.000270696 0)
(0.0978607 0.000283414 0)
(0.0977605 0.000296797 0)
(0.0976576 0.000310857 0)
(0.0975521 0.000325613 0)
(0.0974437 0.000341094 0)
(0.0973325 0.000357329 0)
(0.0972183 0.000374349 0)
(0.0971011 0.00039219 0)
(0.0969807 0.000410885 0)
(0.0968571 0.000430471 0)
(0.0967303 0.000450984 0)
(0.0966 0.000472463 0)
(0.0964663 0.000494945 0)
(0.0963291 0.000518471 0)
(0.0961882 0.000543082 0)
(0.0960436 0.000568822 0)
(0.0958952 0.000595734 0)
(0.0957429 0.000623867 0)
(0.0955866 0.000653268 0)
(0.0954263 0.000683996 0)
(0.0952619 0.000716115 0)
(0.0950932 0.000749728 0)
(0.0949202 0.000785036 0)
(0.0947428 0.000822537 0)
(0.0999997 4.76914e-06 0)
(0.0999951 1.42117e-05 0)
(0.0999853 2.35112e-05 0)
(0.0999712 3.25903e-05 0)
(0.0999529 4.16409e-05 0)
(0.0999306 5.15581e-05 0)
(0.0999037 6.3988e-05 0)
(0.0998711 8.06863e-05 0)
(0.0998306 0.000102515 0)
(0.0997806 0.000128732 0)
(0.0997197 0.000157028 0)
(0.0996481 0.000184266 0)
(0.0995671 0.000207505 0)
(0.099479 0.000224826 0)
(0.0993865 0.000235689 0)
(0.0992924 0.000240802 0)
(0.0991985 0.000241694 0)
(0.0991063 0.000240199 0)
(0.0990163 0.000238032 0)
(0.0989286 0.000236532 0)
(0.0988428 0.000236574 0)
(0.0987583 0.000238602 0)
(0.0986745 0.000242731 0)
(0.0985907 0.000248861 0)
(0.0985063 0.000256781 0)
(0.0984209 0.000266249 0)
(0.098334 0.000277035 0)
(0.0982455 0.000288952 0)
(0.098155 0.000301858 0)
(0.0980625 0.00031566 0)
(0.0979677 0.000330302 0)
(0.0978705 0.000345759 0)
(0.0977708 0.000362029 0)
(0.0976686 0.000379125 0)
(0.0975638 0.000397072 0)
(0.0974562 0.0004159 0)
(0.0973458 0.000435646 0)
(0.0972325 0.000456348 0)
(0.0971162 0.000478045 0)
(0.0969969 0.00050078 0)
(0.0968744 0.000524595 0)
(0.0967487 0.000549535 0)
(0.0966197 0.000575645 0)
(0.0964872 0.00060297 0)
(0.0963514 0.000631558 0)
(0.0962119 0.00066146 0)
(0.0960689 0.000692725 0)
(0.0959221 0.000725407 0)
(0.0957716 0.000759562 0)
(0.0956172 0.000795247 0)
(0.0954588 0.000832527 0)
(0.0952965 0.000871478 0)
(0.09513 0.000912208 0)
(0.0949595 0.000954922 0)
(0.0947846 0.00100012 0)
(0.0999997 5.62909e-06 0)
(0.0999951 1.67713e-05 0)
(0.0999854 2.77473e-05 0)
(0.0999713 3.84657e-05 0)
(0.0999531 4.91473e-05 0)
(0.0999309 6.08275e-05 0)
(0.0999042 7.5419e-05 0)
(0.0998718 9.49746e-05 0)
(0.0998319 0.000120521 0)
(0.0997827 0.000151225 0)
(0.0997229 0.000184422 0)
(0.0996525 0.000216467 0)
(0.0995728 0.000243921 0)
(0.099486 0.000264517 0)
(0.0993946 0.000277587 0)
(0.0993012 0.00028392 0)
(0.0992078 0.000285273 0)
(0.0991158 0.000283769 0)
(0.0990259 0.000281408 0)
(0.0989381 0.00027976 0)
(0.0988521 0.000279861 0)
(0.0987675 0.000282247 0)
(0.0986835 0.000287065 0)
(0.0985996 0.000294213 0)
(0.0985152 0.000303456 0)
(0.0984299 0.000314515 0)
(0.0983433 0.00032713 0)
(0.098255 0.00034108 0)
(0.098165 0.000356203 0)
(0.0980729 0.000372387 0)
(0.0979786 0.000389567 0)
(0.0978821 0.000407713 0)
(0.0977832 0.000426819 0)
(0.0976818 0.000446901 0)
(0.0975778 0.000467986 0)
(0.0974711 0.000490108 0)
(0.0973617 0.000513309 0)
(0.0972495 0.000537632 0)
(0.0971343 0.000563123 0)
(0.0970162 0.00058983 0)
(0.096895 0.000617803 0)
(0.0967706 0.000647092 0)
(0.096643 0.000677748 0)
(0.0965121 0.000709826 0)
(0.0963779 0.00074338 0)
(0.0962402 0.000778467 0)
(0.096099 0.000815145 0)
(0.0959542 0.000853474 0)
(0.0958057 0.000893518 0)
(0.0956535 0.000935342 0)
(0.0954975 0.000979017 0)
(0.0953376 0.00102462 0)
(0.0951738 0.00107227 0)
(0.095006 0.00112213 0)
(0.0948343 0.00117462 0)
(0.0944693 9.70941e-05 -4.51989e-24)
(0.0942729 0.000102134 -4.60767e-24)
(0.0940667 0.000107529 -3.17524e-26)
(0.0938503 0.000113297 1.4157e-23)
(0.0936227 0.000119465 -4.68948e-24)
(0.0933834 0.000126065 -4.82636e-24)
(0.0931314 0.000133139 -1.48614e-23)
(0.0928659 0.00014073 1.47563e-23)
(0.092586 0.000148887 5.04939e-24)
(0.0922904 0.000157664 0)
(0.0919782 0.000167121 5.2169e-24)
(0.0916479 0.000177327 -5.30705e-24)
(0.0912982 0.000188355 4.36594e-23)
(0.0909275 0.00020029 -9.35726e-23)
(0.0905341 0.000213226 5.0017e-23)
(0.0901162 0.000227269 4.05365e-23)
(0.0896716 0.000242538 5.20165e-23)
(0.089198 0.00025917 -5.95737e-24)
(0.0886929 0.00027732 6.08766e-24)
(0.0881534 0.000297165 -6.22548e-24)
(0.0875763 0.000318911 0)
(0.0869581 0.000342796 6.52607e-24)
(0.0862946 0.000369097 -6.69018e-24)
(0.0855813 0.000398141 0)
(0.0848129 0.000430313 -7.04989e-24)
(0.0839837 0.000466071 0)
(0.0830866 0.000505959 -7.45766e-24)
(0.0821139 0.000550626 -1.24987e-22)
(0.0810564 0.000600856 1.32718e-22)
(0.0799035 0.000657591 -1.33239e-22)
(0.0786427 0.000721975 1.33036e-22)
(0.0772593 0.000795398 0)
(0.075736 0.00087956 0)
(0.0740519 0.00097654 1.63099e-22)
(0.0721825 0.00108888 -1.5346e-22)
(0.0700981 0.00121967 0)
(0.0677631 0.0013726 0)
(0.0651348 0.00155198 0)
(0.0621628 0.00176256 0)
(0.0587877 0.00200914 0)
(0.0549424 0.00229556 0)
(0.0505542 0.00262299 0)
(0.0455519 0.00298686 0)
(0.0398791 0.00337208 0)
(0.0335184 0.00374577 -1.50832e-23)
(0.0265312 0.00404699 -5.17709e-22)
(0.0191016 0.00417412 5.16932e-22)
(0.0116099 0.0039717 5.61675e-22)
(0.0049731 0.00320089 -5.60832e-22)
(0.00101441 0.00148909 0)
(0.0944783 0.000291003 -4.57254e-24)
(0.094282 0.000306135 -9.32604e-24)
(0.0940761 0.000322295 -4.8884e-24)
(0.0938599 0.000339559 4.55392e-24)
(0.0936327 0.000358017 -4.75463e-24)
(0.0933937 0.000377775 3.40737e-23)
(0.0931421 0.000398951 -5.35126e-23)
(0.0928771 0.000421676 4.97034e-24)
(0.0925976 0.000446098 6.63432e-23)
(0.0923026 0.000472378 -9.16279e-23)
(0.0919909 0.000500698 -8.94851e-23)
(0.0916614 0.000531259 7.88512e-23)
(0.0913124 0.000564288 0)
(0.0909426 0.000600034 5.50702e-24)
(0.0905503 0.000638781 -1.68309e-23)
(0.0901334 0.000680845 -1.9089e-22)
(0.0896901 0.000726585 1.83217e-22)
(0.0892179 0.00077641 -1.94765e-22)
(0.0887144 0.000830789 -1.82895e-23)
(0.0881767 0.00089025 6.23913e-24)
(0.0876017 0.000955411 0)
(0.0869857 0.00102698 -6.54298e-24)
(0.0863248 0.0011058 -2.10872e-22)
(0.0856145 0.00119285 4.40685e-22)
(0.0848496 0.00128928 2.43136e-22)
(0.0840243 0.00139645 -4.58547e-22)
(0.0831318 0.00151601 4.93869e-22)
(0.0821645 0.00164989 -5.01138e-22)
(0.0811134 0.00180044 -7.95354e-24)
(0.0799681 0.00197048 0)
(0.0787163 0.00216342 0)
(0.0773439 0.00238341 0)
(0.075834 0.00263552 0)
(0.0741666 0.00292593 -9.45229e-24)
(0.0723178 0.00326221 -6.41055e-22)
(0.0702594 0.0036535 -2.71435e-23)
(0.0679574 0.00411075 6.66461e-22)
(0.0653711 0.00464666 7.2591e-22)
(0.0624527 0.00527522 -7.24948e-22)
(0.0591461 0.00601039 -2.40798e-23)
(0.0553875 0.00686326 -2.51549e-23)
(0.0511076 0.00783671 -8.67436e-22)
(0.0462375 0.00891641 8.38865e-22)
(0.0407196 0.0100566 -2.85818e-23)
(0.0345288 0.0111586 1.51887e-23)
(0.0277067 0.0120405 -1.05268e-21)
(0.0204003 0.0123997 1.0523e-21)
(0.012927 0.0117744 -2.1959e-21)
(0.00607941 0.00946458 2.15918e-21)
(0.00146406 0.00437132 -2.2124e-21)
(0.0944962 0.000483949 -2.70493e-23)
(0.0943003 0.000509096 -9.49134e-24)
(0.0940949 0.000535924 3.66117e-23)
(0.0938792 0.000564577 -7.53152e-23)
(0.0936526 0.000595214 1.61161e-22)
(0.0934143 0.000628013 -7.63459e-23)
(0.0931635 0.000663171 1.41873e-26)
(0.0928993 0.000700905 9.91323e-24)
(0.0926209 0.000741459 1.72861e-22)
(0.092327 0.000785106 -1.62603e-22)
(0.0920167 0.000832146 0)
(0.0916885 0.000882915 1.45973e-26)
(0.0913412 0.000937789 0)
(0.0909732 0.000997186 1.89167e-22)
(0.0905829 0.00106157 -1.66744e-22)
(0.0901684 0.00113148 -3.59504e-22)
(0.0897276 0.00120751 1.99842e-23)
(0.0892583 0.00129034 -3.7854e-22)
(0.088758 0.00138075 1.22381e-23)
(0.088224 0.00147962 -4.055e-22)
(0.0876531 0.00158798 4.17923e-22)
(0.0870418 0.00170701 -4.25907e-22)
(0.0863863 0.00183812 4.38965e-22)
(0.0856821 0.00198292 1.38167e-23)
(0.0849243 0.00214334 -1.41961e-23)
(0.0841071 0.00232165 1.45994e-23)
(0.0832241 0.00252057 -4.89073e-22)
(0.0822678 0.00274333 5.0413e-22)
(0.0812298 0.00299381 5.36474e-22)
(0.0800999 0.00327667 -5.20009e-22)
(0.0788667 0.00359755 0)
(0.0775167 0.0039633 0)
(0.0760342 0.00438226 1.82766e-23)
(0.0744005 0.00486458 1.25957e-21)
(0.0725937 0.0054226 3.03163e-23)
(0.070588 0.00607126 -1.26776e-21)
(0.0683525 0.00682828 0)
(0.065851 0.00771412 -2.21568e-23)
(0.0630407 0.00875112 1.54331e-21)
(0.0598719 0.00996122 -3.08112e-21)
(0.0562876 0.0113612 3.26663e-21)
(0.0522255 0.0129538 9.85966e-23)
(0.0476206 0.014713 -1.69747e-21)
(0.0424134 0.0165609 -1.83779e-21)
(0.0365627 0.0183333 1.89401e-21)
(0.0300696 0.0197309 1.46577e-24)
(0.023006 0.0202573 -3.22051e-23)
(0.0155645 0.0191542 2.12132e-21)
(0.00827483 0.0153072 -2.05415e-21)
(0.00232824 0.00700407 -2.05469e-21)
(0.0945229 0.000675258 1.78222e-23)
(0.0943277 0.000710244 -9.04429e-24)
(0.0941229 0.000747565 1.94897e-26)
(0.0939081 0.000787427 9.30667e-24)
(0.0936824 0.000830052 -1.9601e-26)
(0.0934452 0.000875687 1.54622e-22)
(0.0931957 0.000924608 -2.92184e-22)
(0.0929329 0.000977122 1.57034e-22)
(0.0926561 0.00103357 -1.00539e-23)
(0.092364 0.00109433 1.85835e-22)
(0.0920557 0.00115982 -1.65299e-22)
(0.0917298 0.00123052 -3.43075e-22)
(0.0913851 0.00130694 6.92735e-22)
(0.0910199 0.00138968 -7.0642e-22)
(0.0906328 0.00147938 7.20772e-22)
(0.0902218 0.00157679 -7.24418e-22)
(0.089785 0.00168274 -3.8352e-22)
(0.0893203 0.00179818 2.25641e-26)
(0.0888251 0.0019242 0)
(0.0882968 0.00206205 -3.94882e-22)
(0.0877324 0.00221314 4.07278e-22)
(0.0871285 0.00237915 0)
(0.0864813 0.00256202 -8.79716e-22)
(0.0857867 0.00276402 8.65441e-22)
(0.0850399 0.00298783 1.43312e-23)
(0.0842354 0.00323664 -3.71568e-26)
(0.0833672 0.0035142 1.51482e-23)
(0.0824282 0.00382502 0)
(0.0814105 0.00417448 -5.31993e-26)
(0.0803048 0.00456905 0)
(0.0791004 0.00501651 -1.72005e-23)
(0.0777852 0.00552631 1.1632e-21)
(0.0763451 0.00610987 -1.16288e-21)
(0.0747634 0.00678108 -1.92376e-23)
(0.0730212 0.00755674 3.98226e-23)
(0.0710961 0.00845702 -1.37294e-21)
(0.0689624 0.00950572 1.33026e-21)
(0.0665899 0.01073 2.254e-23)
(0.0639438 0.0121592 -3.57401e-25)
(0.0609835 0.0138212 2.40471e-23)
(0.0576628 0.015736 -1.65145e-21)
(0.0539291 0.0179034 3.33857e-21)
(0.0497238 0.0202829 -1.7404e-21)
(0.044984 0.0227625 1.80013e-21)
(0.039645 0.0251137 -1.88451e-21)
(0.0336464 0.0269282 -3.74457e-21)
(0.026942 0.0275328 7.63927e-21)
(0.0195371 0.0258905 -3.86732e-21)
(0.0116052 0.0205106 0)
(0.00361212 0.00927466 -3.63605e-21)
(0.0945582 0.000864222 -8.8395e-24)
(0.0943639 0.000908845 -3.61115e-23)
(0.0941602 0.000956433 1.09476e-22)
(0.0939465 0.00100725 -1.47829e-22)
(0.0937222 0.0010616 6.51098e-23)
(0.0934866 0.00111979 9.54884e-24)
(0.0932388 0.00118218 -9.70904e-24)
(0.0929781 0.00124916 -2.46327e-26)
(0.0927036 0.00132117 1.0052e-23)
(0.0924141 0.00139869 -2.04467e-23)
(0.0921086 0.00148227 -3.36489e-22)
(0.091786 0.00157251 3.4727e-22)
(0.0914448 0.00167007 -3.39235e-22)
(0.0910837 0.0017757 3.50186e-22)
(0.090701 0.00189024 0)
(0.090295 0.00201464 -2.48784e-26)
(0.0898639 0.00214996 0)
(0.0894055 0.00229743 -3.78509e-22)
(0.0889175 0.00245843 4.03104e-22)
(0.0883972 0.00263457 -1.267e-23)
(0.087842 0.00282766 -8.54205e-22)
(0.0872484 0.00303984 8.41596e-22)
(0.0866131 0.00327359 -1.36918e-23)
(0.085932 0.00353182 0)
(0.0852008 0.00381796 0)
(0.0844143 0.00413606 -9.8199e-22)
(0.0835669 0.00449092 9.52157e-22)
(0.0826522 0.00488825 0)
(0.0816631 0.00533489 -3.26792e-23)
(0.0805912 0.005839 0)
(0.0794273 0.00641041 1.75023e-23)
(0.0781607 0.00706095 -1.80392e-23)
(0.0767795 0.00780489 -1.87912e-23)
(0.0752701 0.00865947 1.93696e-23)
(0.073617 0.00964539 1.2749e-21)
(0.071803 0.0107873 -1.31584e-21)
(0.0698085 0.012114 2.86128e-21)
(0.0676119 0.0136579 -2.86313e-21)
(0.0651885 0.0154533 3.03999e-21)
(0.0625104 0.0175315 8.78123e-23)
(0.059545 0.019913 -3.20389e-21)
(0.056253 0.0225913 -2.55927e-23)
(0.0525845 0.0255088 1.2676e-24)
(0.0484732 0.0285192 1.67929e-24)
(0.0438258 0.0313346 2.21779e-24)
(0.0385041 0.0334525 -5.53935e-23)
(0.0323044 0.0340555 -2.54141e-23)
(0.0249693 0.0318683 -2.41576e-23)
(0.0162073 0.025039 0)
(0.00533979 0.011176 7.53936e-24)
(0.0946021 0.00105025 -4.38653e-23)
(0.0944088 0.00110429 2.63866e-23)
(0.0942065 0.00116194 9.02896e-24)
(0.0939945 0.00122351 1.3861e-22)
(0.0937721 0.00128938 -1.38662e-22)
(0.0935387 0.00135993 1.43469e-22)
(0.0932934 0.0014356 -3.18476e-22)
(0.0930355 0.00151687 4.53442e-22)
(0.092764 0.00160427 -3.17622e-22)
(0.092478 0.0016984 -3.29532e-22)
(0.0921764 0.0017999 -1.65641e-23)
(0.091858 0.00190952 6.69255e-22)
(0.0915216 0.00202806 -7.05005e-22)
(0.0911658 0.00215645 3.28838e-22)
(0.0907892 0.0022957 3.54939e-22)
(0.09039 0.00244696 3.71114e-22)
(0.0899664 0.00261155 -2.8645e-23)
(0.0895164 0.00279097 7.56362e-22)
(0.089038 0.0029869 7.81228e-22)
(0.0885285 0.00320129 1.9811e-23)
(0.0879854 0.00343639 -8.28305e-22)
(0.0874058 0.00369478 0)
(0.0867863 0.00397951 0)
(0.0861233 0.00429414 -9.23734e-22)
(0.0854128 0.00464283 9.10467e-22)
(0.0846503 0.00503052 9.81014e-22)
(0.0838308 0.00546304 -9.82467e-22)
(0.0829487 0.00594732 0)
(0.0819977 0.00649159 1.09724e-21)
(0.0809709 0.00710568 -1.09936e-21)
(0.0798607 0.00780134 0)
(0.0786585 0.00859262 -2.38016e-21)
(0.077355 0.00949636 2.40221e-21)
(0.0759402 0.0105326 -1.98584e-23)
(0.0744034 0.0117253 -2.65694e-21)
(0.0727333 0.0131023 2.68159e-21)
(0.0709184 0.0146955 0)
(0.0689473 0.0165399 3.01156e-21)
(0.066808 0.0186707 -2.99299e-21)
(0.0644882 0.0211176 2.4258e-23)
(0.0619726 0.0238941 3.30421e-21)
(0.0592393 0.0269795 -6.6294e-21)
(0.0562508 0.0302909 1.90503e-23)
(0.0529406 0.0336422 3.69119e-23)
(0.0491878 0.0366882 3.43905e-21)
(0.0447741 0.0388526 3.8335e-24)
(0.0393209 0.0392235 -2.95104e-21)
(0.0322348 0.0363864 3.02526e-21)
(0.0225251 0.0282894 0)
(0.00776158 0.0124158 2.6877e-23)
(0.0946542 0.00123254 8.63898e-24)
(0.0944627 0.00129547 7.95922e-23)
(0.0942624 0.00136268 -7.09796e-23)
(0.0940526 0.00143454 9.11244e-24)
(0.0938329 0.00151147 1.40085e-22)
(0.0936024 0.00159394 -1.40307e-22)
(0.0933605 0.00168244 -3.00626e-22)
(0.0931062 0.00177756 4.48002e-24)
(0.0928388 0.00187991 -5.60728e-24)
(0.0925574 0.0019902 3.33919e-22)
(0.0922609 0.00210921 -3.26204e-22)
(0.0919482 0.0022378 6.92221e-22)
(0.0916181 0.00237695 -3.44931e-22)
(0.0912694 0.00252773 1.11506e-23)
(0.0909006 0.00269137 1.14117e-23)
(0.0905102 0.00286923 7.5494e-22)
(0.0900965 0.00306289 -4.99775e-24)
(0.0896577 0.00327411 7.88117e-22)
(0.0891918 0.00350493 1.25984e-23)
(0.0886966 0.00375766 0)
(0.0881696 0.00403499 0)
(0.0876082 0.00434001 -8.84902e-22)
(0.0870096 0.00467637 8.87137e-22)
(0.0863705 0.0050483 0)
(0.0856875 0.0054608 1.49293e-23)
(0.0849567 0.00591973 0)
(0.084174 0.00643206 -1.03126e-21)
(0.0833347 0.00700599 2.09969e-21)
(0.082434 0.00765129 -1.06851e-21)
(0.0814666 0.00837953 -2.26489e-21)
(0.0804267 0.00920447 -7.62285e-23)
(0.0793084 0.0101425 -8.04493e-23)
(0.0781056 0.0112129 -8.4581e-23)
(0.0768126 0.0124385 2.54716e-21)
(0.075424 0.0138459 2.73355e-21)
(0.0739352 0.0154653 -2.74006e-21)
(0.0723436 0.0173299 0)
(0.0706486 0.0194741 3.03326e-21)
(0.0688523 0.0219285 -3.04031e-21)
(0.0669586 0.0247124 -3.22918e-21)
(0.0649713 0.0278197 3.2114e-21)
(0.0628875 0.0311974 2.62572e-23)
(0.0606861 0.0347142 3.22808e-21)
(0.0583069 0.0381187 -1.05828e-22)
(0.0556151 0.0409878 -3.18877e-21)
(0.0523378 0.0426735 2.4331e-23)
(0.047973 0.0422386 0)
(0.0416756 0.0383275 -1.93507e-23)
(0.0316013 0.029095 -9.10038e-22)
(0.0125093 0.012355 4.29757e-22)
(-0.000237165 0.000315674 0)
(-0.00100766 0.00058138 3.17856e-22)
(-0.00211239 0.000619001 -3.18334e-22)
(-0.00316459 0.000530103 -3.15138e-22)
(-0.00397456 0.000371225 3.15612e-22)
(-0.00446124 0.000176834 -9.63694e-24)
(-0.00458358 -3.12571e-05 0)
(-0.00433242 -0.000242028 0)
(-0.00371486 -0.000446296 0)
(-0.00274291 -0.000638917 0)
(-0.00143734 -0.000817323 0)
(0.000176604 -0.000979628 0)
(0.00207089 -0.00112484 0)
(0.00421619 -0.00125284 0)
(0.00658294 -0.00136359 0)
(0.00914144 -0.00145737 8.08064e-23)
(0.0118624 -0.00153467 -7.60955e-23)
(0.0147174 -0.00159614 0)
(0.0176787 -0.00164257 0)
(0.0207204 -0.00167485 -5.02571e-23)
(0.0238176 -0.00169394 5.03339e-23)
(0.0269472 -0.00170085 -3.46583e-23)
(0.0300876 -0.00169657 2.16298e-24)
(0.033219 -0.00168212 0)
(0.0363234 -0.00165859 1.49095e-24)
(0.0393845 -0.00162705 0)
(0.0423881 -0.00158859 0)
(0.0453217 -0.00154421 0)
(0.0481747 -0.00149489 5.07537e-25)
(0.050938 -0.00144155 0)
(0.0536045 -0.00138506 -1.78979e-25)
(0.0561684 -0.00132623 4.95566e-26)
(0.0586252 -0.00126581 5.92449e-26)
(0.0609722 -0.00120449 -1.71672e-24)
(0.0632075 -0.00114288 1.79267e-24)
(0.0653305 -0.00108154 2.21828e-24)
(0.0673417 -0.00102095 -4.99162e-24)
(0.0692424 -0.000961538 2.81967e-24)
(0.0710346 -0.00090366 3.87098e-25)
(0.072721 -0.000847617 -4.03818e-25)
(0.074305 -0.000793655 0)
(0.0757902 -0.000741964 -4.17657e-25)
(0.0771808 -0.000692685 2.09032e-24)
(0.0784811 -0.000645917 -2.08841e-24)
(0.0796957 -0.000601714 4.04883e-25)
(0.0808291 -0.000560097 -1.17826e-24)
(0.0818861 -0.000521051 4.01345e-25)
(0.0828713 -0.000484535 7.35333e-25)
(0.0837894 -0.000450478 -3.65774e-25)
(0.0846447 -0.000418788 3.41604e-25)
(-0.000304027 0.000907445 -1.20983e-21)
(-0.00111297 0.00166297 -1.32101e-21)
(-0.00210382 0.00176845 1.30209e-21)
(-0.0029841 0.00150862 -6.20852e-22)
(-0.0036099 0.00104481 6.22022e-22)
(-0.00391999 0.000476881 9.70379e-24)
(-0.00388616 -0.000131947 -1.91074e-23)
(-0.00350294 -0.000749309 -5.92406e-22)
(-0.00277611 -0.00134874 5.74706e-22)
(-0.00171859 -0.00191493 -1.68988e-23)
(-0.000349367 -0.0024406 -1.60022e-23)
(0.00130901 -0.00291889 4.60894e-22)
(0.00323035 -0.00334809 -4.61507e-22)
(0.00538745 -0.003727 -3.95628e-22)
(0.00775311 -0.00405535 3.37685e-23)
(0.0102996 -0.00433382 3.62869e-22)
(0.0129994 -0.00456375 -4.8575e-24)
(0.0158257 -0.00474696 -8.90798e-24)
(0.0187523 -0.00488569 0)
(0.0217544 -0.00498252 0)
(0.0248083 -0.00504023 0)
(0.0278919 -0.00506175 -2.55445e-24)
(0.0309846 -0.00505003 1.2251e-22)
(0.0340673 -0.00500802 -1.33132e-22)
(0.0371225 -0.00493892 8.62688e-23)
(0.0401346 -0.00484595 -5.28792e-23)
(0.0430898 -0.00473228 -6.21301e-23)
(0.0459761 -0.00460092 2.71163e-23)
(0.0487831 -0.00445475 -5.08844e-25)
(0.0515021 -0.00429653 -7.53364e-25)
(0.0541261 -0.00412884 1.79369e-25)
(0.0566493 -0.00395411 -2.23722e-25)
(0.0590676 -0.00377456 -3.00199e-24)
(0.0613782 -0.00359223 8.79337e-24)
(0.0635792 -0.00340898 -5.48668e-24)
(0.0656703 -0.00322646 7.95457e-25)
(0.0676516 -0.00304612 -3.27876e-25)
(0.0695246 -0.00286923 0)
(0.0712911 -0.00269687 6.5804e-24)
(0.0729539 -0.00252993 -5.83494e-24)
(0.0745162 -0.00236916 -5.77148e-24)
(0.0759815 -0.00221511 7.80276e-24)
(0.077354 -0.00206823 -4.16866e-25)
(0.0786378 -0.00192881 -2.02238e-24)
(0.0798373 -0.00179701 3.6258e-24)
(0.0809572 -0.00167289 3.94603e-25)
(0.0820019 -0.00155643 2.62556e-24)
(0.0829761 -0.00144749 2.99664e-25)
(0.0838842 -0.00134587 -7.50245e-25)
(0.0847305 -0.00125128 -1.03391e-24)
(-0.000421402 0.00138555 -1.26182e-21)
(-0.0012831 0.00250433 1.37973e-21)
(-0.00203464 0.00266095 -1.33852e-21)
(-0.00257689 0.00225046 -2.07111e-23)
(-0.00284721 0.00151978 -4.44327e-25)
(-0.00281931 0.000623679 -1.24647e-21)
(-0.00248797 -0.00033919 1.28736e-21)
(-0.00185502 -0.00131983 1.20021e-21)
(-0.000923175 -0.00227593 -3.39884e-23)
(0.000293702 -0.00318194 -2.18854e-21)
(0.00178099 -0.00402519 2.10542e-21)
(0.00352044 -0.00479652 -9.99383e-22)
(0.00548904 -0.00549149 -1.45581e-23)
(0.00766516 -0.00610687 0)
(0.0100255 -0.00664183 7.62611e-22)
(0.012546 -0.00709704 -7.95463e-23)
(0.0152026 -0.00747426 -6.73025e-22)
(0.0179715 -0.00777611 1.83016e-23)
(0.0208294 -0.00800592 0)
(0.0237538 -0.0081676 0)
(0.0267232 -0.00826551 1.87019e-22)
(0.0297175 -0.00830427 -1.81617e-22)
(0.0327175 -0.0082885 -1.31969e-22)
(0.0357057 -0.00822309 1.40437e-22)
(0.0386659 -0.00811293 3.36707e-24)
(0.0415834 -0.00796339 -2.75448e-24)
(0.0444454 -0.00777959 2.20394e-24)
(0.0472404 -0.00756642 -4.30134e-23)
(0.0499588 -0.00732863 4.47695e-23)
(0.0525924 -0.00707072 -1.93427e-23)
(0.0551344 -0.00679693 2.10228e-23)
(0.0575794 -0.00651127 1.74754e-25)
(0.0599236 -0.0062174 -3.36227e-24)
(0.0621641 -0.00591871 1.19442e-23)
(0.0642993 -0.00561825 -9.22728e-24)
(0.0663286 -0.00531878 -9.00476e-24)
(0.0682524 -0.0050227 7.96191e-24)
(0.0700719 -0.00473211 0)
(0.071789 -0.00444882 -6.10486e-26)
(0.0734062 -0.00417433 0)
(0.0749266 -0.00390987 -1.25766e-23)
(0.0763535 -0.00365639 1.1731e-23)
(0.0776909 -0.00341461 -7.68215e-25)
(0.0789428 -0.00318504 -3.63942e-26)
(0.0801133 -0.00296796 -6.16045e-24)
(0.0812069 -0.00276349 1.13692e-23)
(0.0822279 -0.00257157 -6.00831e-24)
(0.0831807 -0.00239202 2.77518e-24)
(0.0840695 -0.00222447 -2.12966e-24)
(0.0848985 -0.00206844 -6.99398e-25)
(-0.000557026 0.00165579 -2.74149e-21)
(-0.00142599 0.0029718 0)
(-0.00178659 0.00315841 2.82269e-21)
(-0.00184105 0.0026269 -5.63313e-21)
(-0.00161125 0.00169054 2.83148e-21)
(-0.00111457 0.000540451 1.28064e-21)
(-0.000375678 -0.000703071 -1.34378e-21)
(0.000594058 -0.00197797 1.23145e-21)
(0.00180034 -0.00322787 -2.42863e-21)
(0.00322983 -0.00442214 1.17852e-21)
(0.00486973 -0.00554031 1.72875e-23)
(0.00670979 -0.00656992 4.47994e-25)
(0.00873492 -0.00750191 1.48082e-23)
(0.0109288 -0.00833129 -8.71441e-22)
(0.0132735 -0.00905595 8.44913e-22)
(0.0157505 -0.00967577 2.35804e-23)
(0.0183402 -0.0101923 -1.04946e-23)
(0.0210233 -0.0106082 5.83708e-22)
(0.0237801 -0.0109275 -5.83499e-22)
(0.0265916 -0.0111549 -7.83806e-24)
(0.0294393 -0.0112958 0)
(0.0323054 -0.0113562 3.56505e-25)
(0.0351733 -0.0113423 0)
(0.0380271 -0.01126 4.40207e-24)
(0.0408525 -0.0111164 2.95812e-25)
(0.043636 -0.0109181 2.78053e-24)
(0.0463661 -0.0106724 -1.35479e-22)
(0.0490323 -0.0103858 1.33538e-22)
(0.0516258 -0.0100648 0)
(0.0541389 -0.00971556 -2.62769e-23)
(0.0565654 -0.00934388 2.72472e-23)
(0.0589003 -0.00895525 0)
(0.0611399 -0.00855478 -1.51176e-25)
(0.0632817 -0.00814714 5.35814e-24)
(0.065324 -0.00773657 -1.55101e-23)
(0.0672663 -0.00732689 2.41629e-23)
(0.069109 -0.00692146 -3.10984e-23)
(0.070853 -0.00652322 3.66765e-23)
(0.0725003 -0.00613469 -1.96129e-23)
(0.074053 -0.00575797 -1.12484e-23)
(0.075514 -0.0053948 9.82449e-24)
(0.0768866 -0.00504653 7.01659e-25)
(0.0781742 -0.00471418 1.19436e-23)
(0.0793808 -0.00439846 -2.5185e-23)
(0.0805102 -0.00409982 1.17733e-23)
(0.0815664 -0.00381842 4.03259e-26)
(0.0825537 -0.00355421 -7.18785e-25)
(0.0834759 -0.00330692 -3.27542e-26)
(0.0843372 -0.00307609 6.71361e-25)
(0.0851414 -0.00286097 -1.26339e-24)
(-0.000608739 0.00164001 -1.82196e-24)
(-0.00133012 0.00298626 -2.56861e-23)
(-0.00116298 0.00316995 -2.48132e-23)
(-0.000607202 0.00256196 -2.40097e-23)
(0.000225613 0.00150726 -4.57806e-23)
(0.00127142 0.000213996 -6.63524e-25)
(0.00248011 -0.00122959 2.12063e-23)
(0.00383309 -0.00271712 -2.09694e-23)
(0.00534202 -0.00418623 -2.01105e-23)