/*--------------------------------*- C++ -*----------------------------------*\
| =========                 |                                                 |
| \\      /  F ield         | OpenFOAM: The Open Source CFD Toolbox           |
|  \\    /   O peration     | Version:  2412                                  |
|   \\  /    A nd           | Website:  www.openfoam.com                      |
|    \\/     M anipulation  |                                                 |
\*---------------------------------------------------------------------------*/
FoamFile
{
    version     2.0;
    format      ascii;
    arch        "LSB;label=32;scalar=64";
    class       volVectorField;
    location    "18.5";
    object      vorticity;
}
// * * * * * * * * * * * * * * * * * * * * * * * * * * * * * * * * * * * * * //

dimensions      [0 0 -1 0 0 0 0];

internalField   nonuniform List<vector> 
63420
(
(0 0 5.88813e-06)
(0 0 5.86738e-06)
(0 0 5.79142e-06)
(0 0 5.73177e-06)
(0 0 6.04193e-06)
(0 0 7.23917e-06)
(0 0 9.58093e-06)
(0 0 1.26642e-05)
(0 0 1.54122e-05)
(0 0 1.65068e-05)
(0 0 1.4995e-05)
(0 0 1.07103e-05)
(0 0 4.31315e-06)
(0 0 -3.00193e-06)
(0 0 -9.93998e-06)
(0 0 -1.54767e-05)
(0 0 -1.90537e-05)
(0 0 -2.0589e-05)
(0 0 -2.03599e-05)
(0 0 -1.8839e-05)
(0 0 -1.65429e-05)
(0 0 -1.39271e-05)
(0 0 -1.13338e-05)
(0 0 -8.98165e-06)
(0 0 -6.98157e-06)
(0 0 -5.36447e-06)
(0 0 -4.10987e-06)
(0 0 -3.16998e-06)
(0 0 -2.48703e-06)
(0 0 -2.00422e-06)
(0 0 -1.6715e-06)
(0 0 -1.44783e-06)
(0 0 -1.30126e-06)
(0 0 -1.2079e-06)
(0 0 -1.15047e-06)
(0 0 -1.11677e-06)
(0 0 -1.09839e-06)
(0 0 -1.08963e-06)
(0 0 -1.08672e-06)
(0 0 -1.08715e-06)
(0 0 -1.0893e-06)
(0 0 -1.09214e-06)
(0 0 -1.09497e-06)
(0 0 -1.09737e-06)
(0 0 -1.09905e-06)
(0 0 -1.09979e-06)
(0 0 -1.09937e-06)
(0 0 -1.09731e-06)
(0 0 -1.09222e-06)
(0 0 -1.07917e-06)
(0 0 -1.04127e-06)
(0 0 -9.21801e-07)
(0 0 -5.3712e-07)
(0 0 6.88561e-07)
(0 4.48494e-23 4.49896e-06)
(0 0 1.76607e-05)
(0 0 1.75999e-05)
(0 0 1.73746e-05)
(0 0 1.7197e-05)
(0 0 1.81209e-05)
(0 0 2.16912e-05)
(0 0 2.86819e-05)
(0 0 3.78994e-05)
(0 0 4.61382e-05)
(0 0 4.94673e-05)
(0 0 4.50368e-05)
(0 0 3.23364e-05)
(0 0 1.3322e-05)
(0 0 -8.4555e-06)
(0 0 -2.91395e-05)
(0 0 -4.56741e-05)
(0 0 -5.63886e-05)
(0 0 -6.10296e-05)
(0 0 -6.0416e-05)
(0 0 -5.59496e-05)
(0 0 -4.91654e-05)
(0 0 -4.1419e-05)
(0 0 -3.37297e-05)
(0 0 -2.67495e-05)
(0 0 -2.08105e-05)
(0 0 -1.60063e-05)
(0 0 -1.22775e-05)
(0 0 -9.48313e-06)
(0 0 -7.45213e-06)
(0 0 -6.01613e-06)
(0 0 -5.02662e-06)
(0 0 -4.36176e-06)
(0 0 -3.92662e-06)
(0 0 -3.65021e-06)
(0 0 -3.48109e-06)
(0 0 -3.38295e-06)
(0 0 -3.33076e-06)
(0 0 -3.30755e-06)
(0 0 -3.30203e-06)
(0 0 -3.30673e-06)
(0 0 -3.31682e-06)
(0 0 -3.32914e-06)
(0 0 -3.34165e-06)
(0 0 -3.35303e-06)
(0 0 -3.3624e-06)
(0 0 -3.3691e-06)
(0 0 -3.37244e-06)
(0 0 -3.37106e-06)
(0 0 -3.36082e-06)
(0 0 -3.32749e-06)
(0 0 -3.22207e-06)
(0 0 -2.88023e-06)
(0 0 -1.76864e-06)
(0 0 1.78849e-06)
(0 4.53165e-23 1.28747e-05)
(0 0 2.94209e-05)
(0 0 2.93204e-05)
(0 0 2.89481e-05)
(0 0 2.86524e-05)
(0 0 3.01739e-05)
(0 0 3.60751e-05)
(0 0 4.76574e-05)
(0 0 6.29762e-05)
(0 0 7.67516e-05)
(0 0 8.2481e-05)
(0 0 7.54238e-05)
(0 0 5.46908e-05)
(0 0 2.34684e-05)
(0 0 -1.24067e-05)
(0 0 -4.65721e-05)
(0 0 -7.39694e-05)
(0 0 -9.18162e-05)
(0 0 -9.96663e-05)
(0 0 -9.88474e-05)
(0 0 -9.16556e-05)
(0 0 -8.06139e-05)
(0 0 -6.79556e-05)
(0 0 -5.53634e-05)
(0 0 -4.39167e-05)
(0 0 -3.41677e-05)
(0 0 -2.62755e-05)
(0 0 -2.01462e-05)
(0 0 -1.55505e-05)
(0 0 -1.22088e-05)
(0 0 -9.84514e-06)
(0 0 -8.21588e-06)
(0 0 -7.12087e-06)
(0 0 -6.40412e-06)
(0 0 -5.94884e-06)
(0 0 -5.6704e-06)
(0 0 -5.50905e-06)
(0 0 -5.42355e-06)
(0 0 -5.38597e-06)
(0 0 -5.37766e-06)
(0 0 -5.38636e-06)
(0 0 -5.40406e-06)
(0 0 -5.42555e-06)
(0 0 -5.44749e-06)
(0 0 -5.46768e-06)
(0 0 -5.48465e-06)
(0 0 -5.49734e-06)
(0 0 -5.50461e-06)
(0 0 -5.50433e-06)
(0 0 -5.49005e-06)
(0 0 -5.43972e-06)
(0 0 -5.27743e-06)
(0 0 -4.7481e-06)
(0 0 -3.02089e-06)
(0 0 2.52502e-06)
(0 2.67426e-22 1.98723e-05)
(0 0 4.11604e-05)
(0 0 4.10208e-05)
(0 0 4.05055e-05)
(0 0 4.00913e-05)
(0 0 4.21843e-05)
(0 0 5.03481e-05)
(0 0 6.64293e-05)
(0 0 8.77952e-05)
(0 0 0.000107179)
(0 0 0.000115574)
(0 0 0.000106359)
(0 0 7.82093e-05)
(0 0 3.54385e-05)
(0 0 -1.39453e-05)
(0 0 -6.11643e-05)
(0 0 -9.92048e-05)
(0 0 -0.000124173)
(0 0 -0.000135398)
(0 0 -0.000134662)
(0 0 -0.000125098)
(0 0 -0.00011017)
(0 0 -9.29527e-05)
(0 0 -7.57692e-05)
(0 0 -6.01163e-05)
(0 0 -4.67653e-05)
(0 0 -3.5945e-05)
(0 0 -2.75341e-05)
(0 0 -2.12229e-05)
(0 0 -1.66308e-05)
(0 0 -1.33808e-05)
(0 0 -1.11393e-05)
(0 0 -9.63197e-06)
(0 0 -8.64481e-06)
(0 0 -8.01741e-06)
(0 0 -7.63348e-06)
(0 0 -7.41087e-06)
(0 0 -7.29286e-06)
(0 0 -7.241e-06)
(0 0 -7.22963e-06)
(0 0 -7.24185e-06)
(0 0 -7.26663e-06)
(0 0 -7.2968e-06)
(0 0 -7.32775e-06)
(0 0 -7.35645e-06)
(0 0 -7.38088e-06)
(0 0 -7.39957e-06)
(0 0 -7.41103e-06)
(0 0 -7.41251e-06)
(0 0 -7.3959e-06)
(0 0 -7.33369e-06)
(0 0 -7.13133e-06)
(0 0 -6.47029e-06)
(0 0 -4.30782e-06)
(0 0 2.66796e-06)
(0 -1.75572e-22 2.4623e-05)
(0 0 5.28715e-05)
(0 0 5.26931e-05)
(0 0 5.204e-05)
(0 0 5.15068e-05)
(0 0 5.41369e-05)
(0 0 6.44719e-05)
(0 0 8.49266e-05)
(0 0 0.000112264)
(0 0 0.000137347)
(0 0 0.000148756)
(0 0 0.000138004)
(0 0 0.000103256)
(0 0 4.98143e-05)
(0 0 -1.22926e-05)
(0 0 -7.19929e-05)
(0 0 -0.00012038)
(0 0 -0.000152454)
(0 0 -0.000167269)
(0 0 -0.000166996)
(0 0 -0.000155531)
(0 0 -0.00013721)
(0 0 -0.000115902)
(0 0 -9.45418e-05)
(0 0 -7.50295e-05)
(0 0 -5.83536e-05)
(0 0 -4.48184e-05)
(0 0 -3.42844e-05)
(0 0 -2.63721e-05)
(0 0 -2.06098e-05)
(0 0 -1.65284e-05)
(0 0 -1.37113e-05)
(0 0 -1.18154e-05)
(0 0 -1.05727e-05)
(0 0 -9.78209e-06)
(0 0 -9.29764e-06)
(0 0 -9.01623e-06)
(0 0 -8.86659e-06)
(0 0 -8.8004e-06)
(0 0 -8.78538e-06)
(0 0 -8.80027e-06)
(0 0 -8.83118e-06)
(0 0 -8.8691e-06)
(0 0 -8.90821e-06)
(0 0 -8.94471e-06)
(0 0 -8.97606e-06)
(0 0 -9.00041e-06)
(0 0 -9.01598e-06)
(0 0 -9.01962e-06)
(0 0 -9.00237e-06)
(0 0 -8.93421e-06)
(0 0 -8.71255e-06)
(0 0 -7.99184e-06)
(0 0 -5.63459e-06)
(0 0 2.01291e-06)
(0 8.66732e-23 2.63353e-05)
(0 0 6.45476e-05)
(0 0 6.43291e-05)
(0 0 6.35443e-05)
(0 0 6.28921e-05)
(0 0 6.60175e-05)
(0 0 7.84131e-05)
(0 0 0.000103088)
(0 0 0.000136302)
(0 0 0.000167187)
(0 0 0.000182021)
(0 0 0.000170471)
(0 0 0.000130103)
(0 0 6.70458e-05)
(0 0 -6.83784e-06)
(0 0 -7.8327e-05)
(0 0 -0.000136701)
(0 0 -0.000175852)
(0 0 -0.000194515)
(0 0 -0.000195159)
(0 0 -0.000182354)
(0 0 -0.000161231)
(0 0 -0.000136395)
(0 0 -0.000111356)
(0 0 -8.84007e-05)
(0 0 -6.87332e-05)
(0 0 -5.27393e-05)
(0 0 -4.0273e-05)
(0 0 -3.08973e-05)
(0 0 -2.40618e-05)
(0 0 -1.92151e-05)
(0 0 -1.58664e-05)
(0 0 -1.36105e-05)
(0 0 -1.213e-05)
(0 0 -1.11867e-05)
(0 0 -1.06076e-05)
(0 0 -1.02702e-05)
(0 0 -1.00898e-05)
(0 0 -1.0009e-05)
(0 0 -9.98946e-06)
(0 0 -1.00058e-05)
(0 0 -1.00414e-05)
(0 0 -1.00858e-05)
(0 0 -1.01318e-05)
(0 0 -1.0175e-05)
(0 0 -1.02123e-05)
(0 0 -1.02416e-05)
(0 0 -1.02608e-05)
(0 0 -1.02667e-05)
(0 0 -1.02503e-05)
(0 0 -1.01821e-05)
(0 0 -9.96331e-06)
(0 0 -9.26369e-06)
(0 0 -6.99648e-06)
(0 0 3.77345e-07)
(0 4.27659e-22 2.42414e-05)
(0 0 7.61799e-05)
(0 0 7.59197e-05)
(0 0 7.50109e-05)
(0 0 7.42398e-05)
(0 0 7.7814e-05)
(0 0 9.21448e-05)
(0 0 0.000120864)
(0 0 0.00015984)
(0 0 0.000196632)
(0 0 0.000215342)
(0 0 0.000203814)
(0 0 0.00015892)
(0 0 8.74277e-05)
(0 0 2.83257e-06)
(0 0 -7.9662e-05)
(0 0 -0.000147608)
(0 0 -0.0001938)
(0 0 -0.000216589)
(0 0 -0.000218653)
(0 0 -0.000205135)
(0 0 -0.000181871)
(0 0 -0.000154137)
(0 0 -0.000125977)
(0 0 -0.000100047)
(0 0 -7.77628e-05)
(0 0 -5.95987e-05)
(0 0 -4.54146e-05)
(0 0 -3.47306e-05)
(0 0 -2.69306e-05)
(0 0 -2.13932e-05)
(0 0 -1.75626e-05)
(0 0 -1.49786e-05)
(0 0 -1.32804e-05)
(0 0 -1.21964e-05)
(0 0 -1.15292e-05)
(0 0 -1.1139e-05)
(0 0 -1.09289e-05)
(0 0 -1.08332e-05)
(0 0 -1.0808e-05)
(0 0 -1.08243e-05)
(0 0 -1.08632e-05)
(0 0 -1.09124e-05)
(0 0 -1.09639e-05)
(0 0 -1.10124e-05)
(0 0 -1.10546e-05)
(0 0 -1.10881e-05)
(0 0 -1.11105e-05)
(0 0 -1.11186e-05)
(0 0 -1.11042e-05)
(0 0 -1.10412e-05)
(0 0 -1.0845e-05)
(0 0 -1.02425e-05)
(0 0 -8.36172e-06)
(0 0 -2.38725e-06)
(0 -8.3666e-23 1.74641e-05)
(-1.67604e-23 7.95397e-21 2.62534e-06)
(-1.46321e-22 7.82083e-21 2.0382e-06)
(3.28761e-23 -1.95905e-22 1.24441e-06)
(3.70938e-23 -2.33511e-20 2.02449e-07)
(-9.17739e-23 7.97783e-21 -1.12432e-06)
(3.60815e-22 7.83631e-21 -2.76645e-06)
(-7.88342e-22 2.28468e-20 -4.75055e-06)
(3.09038e-22 -2.32153e-20 -7.1021e-06)
(6.22637e-22 -7.47009e-21 -9.84786e-06)
(-8.90232e-22 -3.69363e-24 -1.3018e-05)
(-8.90046e-22 -7.48566e-21 -1.66472e-05)
(7.79641e-22 7.11107e-21 -2.07765e-05)
(5.60778e-22 -5.85886e-20 -2.54539e-05)
(-1.03471e-21 1.25783e-19 -3.07352e-05)
(3.55415e-22 -6.76698e-20 -3.66808e-05)
(-1.22132e-21 -5.10245e-20 -4.33507e-05)
(2.34029e-21 -6.49725e-20 -5.08013e-05)
(-1.83819e-21 7.65708e-21 -5.91069e-05)
(-1.87772e-22 -7.14453e-21 -6.8349e-05)
(7.22527e-23 7.14968e-21 -7.86043e-05)
(-3.11581e-24 -1.27441e-22 -8.9932e-05)
(-6.72756e-23 -6.8971e-21 -0.000102392)
(-1.99107e-21 6.95738e-21 -0.000116044)
(4.16559e-21 1.27996e-23 -0.000130949)
(1.2159e-21 6.75557e-21 -0.000147175)
(-3.24547e-21 -5.26834e-24 -0.000164805)
(4.67066e-21 7.84656e-21 -0.000183955)
(-5.47113e-21 1.01827e-19 -0.000204789)
(6.73651e-22 -1.09344e-19 -0.000227554)
(-2.10545e-21 9.98999e-20 -0.000252614)
(2.05084e-21 -1.01033e-19 -0.000280521)
(4.80497e-23 1.32868e-21 -0.000312118)
(-6.25392e-23 -1.63114e-21 -0.000348728)
(2.74125e-21 -9.56583e-20 -0.000392479)
(-8.56403e-21 9.28344e-20 -0.000446897)
(-3.12826e-22 -1.53322e-21 -0.000517936)
(6.14516e-21 1.34401e-23 -0.000615762)
(6.68072e-21 1.46114e-23 -0.000757724)
(-6.65935e-21 -1.45647e-23 -0.000973083)
(-2.20782e-22 -4.82872e-25 -0.00131018)
(-2.30208e-22 -5.03488e-25 -0.00184656)
(-7.92362e-21 -1.73297e-23 -0.00270221)
(7.64835e-21 1.67277e-23 -0.00405458)
(-2.52566e-22 1.50276e-22 -0.00615269)
(-3.20158e-23 7.77859e-21 -0.00932425)
(-2.44913e-20 5.03592e-20 -0.0139673)
(2.35893e-20 -6.6358e-20 -0.0205135)
(-5.52962e-21 -9.43765e-21 -0.0293492)
(6.0784e-21 2.5779e-20 -0.0406881)
(-2.02208e-20 -5.64503e-21 -0.0543151)
(-2.56573e-22 7.96581e-21 7.5859e-06)
(-1.03278e-22 1.56701e-20 5.75791e-06)
(3.01405e-22 7.62196e-21 3.25894e-06)
(-8.64999e-22 -7.83388e-21 -3.70214e-08)
(1.60629e-21 7.47283e-21 -4.23273e-06)
(-4.9761e-22 -5.35202e-20 -9.41324e-06)
(-2.14133e-22 8.49857e-20 -1.56541e-05)
(-5.66168e-23 -8.85027e-21 -2.30297e-05)
(2.15339e-21 -9.78769e-20 -3.16205e-05)
(-2.23729e-21 1.3819e-19 -4.15188e-05)
(-8.16717e-22 1.26279e-19 -5.28328e-05)
(6.01658e-22 -1.13606e-19 -6.56908e-05)
(-3.89252e-22 7.29814e-22 -8.0243e-05)
(2.77648e-21 -7.23603e-21 -9.66639e-05)
(-2.16172e-21 2.40593e-20 -0.000115146)
(-5.90989e-21 2.39018e-19 -0.000135876)
(1.60504e-21 -2.24779e-19 -0.000159041)
(-5.52936e-21 2.40887e-19 -0.000184858)
(-2.92629e-22 1.95003e-20 -0.000213603)
(-3.80302e-21 -7.30749e-21 -0.000245519)
(4.01987e-21 1.43806e-22 -0.000280808)
(-4.03201e-21 9.07509e-21 -0.000319674)
(1.02282e-21 2.09273e-19 -0.000362326)
(5.84106e-21 -4.43123e-19 -0.000408977)
(4.45502e-21 -2.11708e-19 -0.000459868)
(-6.91575e-21 4.28579e-19 -0.000515293)
(3.57907e-21 -4.27403e-19 -0.000575645)
(-1.92046e-21 4.38538e-19 -0.000641479)
(3.25625e-21 1.45743e-21 -0.000713591)
(-3.68689e-21 -9.66158e-23 -0.000793152)
(-1.23874e-21 -2.70926e-24 -0.000881896)
(0 0 -0.000982449)
(1.83095e-22 9.50193e-23 -0.00109889)
(1.09467e-20 1.227e-20 -0.00123775)
(-1.55725e-20 3.58364e-19 -0.0014098)
(-1.56289e-20 -2.40226e-20 -0.00163317)
(1.83874e-20 -3.53523e-19 -0.0019388)
(2.63018e-20 -3.05556e-19 -0.00237943)
(-9.25892e-21 3.26406e-19 -0.00304392)
(-3.0909e-20 2.17079e-21 -0.00407898)
(3.0185e-20 1.72162e-20 -0.00571977)
(-4.17809e-20 2.32956e-19 -0.00832957)
(2.25819e-20 -2.42312e-19 -0.0124453)
(-1.78757e-20 1.45664e-20 -0.0188193)
(1.98145e-20 7.66685e-21 -0.0284412)
(-5.94504e-20 1.12677e-19 -0.0425118)
(5.93764e-20 -1.1029e-19 -0.0623298)
(-9.13396e-20 8.23885e-20 -0.0890375)
(8.81432e-20 -9.19916e-20 -0.123207)
(-1.86694e-20 -6.31722e-22 -0.162819)
(-3.94937e-23 4.71928e-20 1.21425e-05)
(-8.47978e-23 1.49219e-20 8.85192e-06)
(3.72259e-22 -6.18192e-20 4.26033e-06)
(-7.90166e-22 1.22987e-19 -1.82682e-06)
(1.74383e-21 -2.63288e-19 -9.55689e-06)
(3.93317e-22 1.25199e-19 -1.90496e-05)
(-2.43336e-21 -8.64476e-22 -3.04172e-05)
(1.55312e-21 -1.70146e-20 -4.3779e-05)
(1.44792e-21 -2.5696e-19 -5.92724e-05)
(7.62443e-22 2.44851e-19 -7.70607e-05)
(-8.52772e-22 -1.61806e-21 -9.73393e-05)
(-4.19041e-21 -1.56419e-23 -0.00012034)
(6.64766e-21 -1.8412e-21 -0.000146336)
(-3.9626e-21 -2.50693e-19 -0.000175645)
(5.16435e-21 2.27829e-19 -0.000208617)
(-1.13396e-20 4.52741e-19 -0.000245603)
(-4.82404e-21 -1.20806e-20 -0.000286944)
(-4.66717e-21 4.65849e-19 -0.000333059)
(4.06868e-22 -1.41417e-20 -0.000384453)
(-1.23101e-20 4.52452e-19 -0.000441599)
(1.22281e-20 -4.69901e-19 -0.000504907)
(-9.11541e-21 4.48789e-19 -0.000574802)
(2.34867e-21 -4.66801e-19 -0.000651728)
(5.21134e-21 -9.31326e-21 -0.000736157)
(-2.58652e-21 1.36824e-20 -0.000828617)
(5.52757e-21 -8.81726e-21 -0.00092975)
(-1.87805e-20 4.20872e-19 -0.00104038)
(1.68789e-20 -4.4858e-19 -0.00116164)
(1.83684e-20 -4.16874e-19 -0.00129506)
(-1.50675e-20 4.18802e-19 -0.00144285)
(-1.08101e-21 -5.16128e-21 -0.00160818)
(1.11887e-20 -1.21083e-22 -0.00179577)
(-1.28055e-20 -2.47301e-20 -0.00201279)
(5.30272e-20 -7.61714e-19 -0.00227061)
(1.65784e-20 5.61304e-20 -0.0025878)
(-6.99382e-20 7.17407e-19 -0.00299547)
(3.94892e-21 -1.23193e-20 -0.00354653)
(-1.14194e-20 -4.85504e-21 -0.004331)
(1.09823e-19 -6.02632e-19 -0.00550041)
(-2.04311e-19 1.1837e-18 -0.00730463)
(2.08454e-19 -1.17642e-18 -0.0101436)
(7.11863e-20 8.48822e-20 -0.0146341)
(-1.56836e-19 5.15296e-19 -0.0216866)
(-1.64763e-19 3.55711e-19 -0.0325758)
(1.55696e-19 -4.21692e-19 -0.0489784)
(-2.21821e-20 1.94393e-20 -0.072932)
(5.48012e-20 -1.73049e-20 -0.106639)
(1.64623e-19 -1.0229e-19 -0.151995)
(-1.78192e-19 1.59637e-19 -0.209759)
(-2.53454e-20 -4.09132e-20 -0.272017)
(4.0302e-22 -3.11229e-20 1.59236e-05)
(-3.64156e-22 1.57381e-20 1.06529e-05)
(6.87759e-22 -1.70932e-22 3.14964e-06)
(-6.15242e-22 -1.54848e-20 -6.78693e-06)
(-9.60821e-22 -1.44204e-21 -1.92914e-05)
(3.31901e-21 -2.4306e-19 -3.4485e-05)
(-4.67277e-21 4.60282e-19 -5.25041e-05)
(2.28069e-21 -2.47833e-19 -7.3516e-05)
(-1.8214e-21 1.49522e-20 -9.7729e-05)
(4.83145e-21 -2.71409e-19 -0.000125399)
(-5.82546e-21 2.47652e-19 -0.000156837)
(-4.09084e-21 4.7284e-19 -0.000192412)
(1.07378e-20 -9.56662e-19 -0.000232557)
(-1.2935e-20 9.55664e-19 -0.000277776)
(1.71781e-20 -9.51242e-19 -0.000328628)
(-1.12795e-20 9.42775e-19 -0.000385679)
(-9.8917e-21 4.79578e-19 -0.000449499)
(-7.06844e-22 -3.76917e-21 -0.000520776)
(4.51068e-21 3.9156e-21 -0.00060034)
(-7.61513e-21 4.42486e-19 -0.000688994)
(-1.97523e-21 -4.64705e-19 -0.000787476)
(1.48051e-20 1.27582e-20 -0.00089657)
(-3.36071e-20 8.92361e-19 -0.00101712)
(2.5449e-20 -8.95329e-19 -0.00115004)
(2.27224e-21 -5.34452e-21 -0.00129638)
(-9.76292e-21 -9.11418e-23 -0.00145736)
(1.48386e-20 -1.3536e-20 -0.00163454)
(-4.82374e-21 1.23695e-22 -0.00182992)
(-5.29887e-21 -6.51675e-23 -0.0020462)
(5.04449e-21 1.9606e-22 -0.00228701)
(-3.72806e-21 1.43553e-21 -0.00255746)
(6.31386e-20 -7.91456e-19 -0.00286489)
(-5.72184e-20 8.13985e-19 -0.00322019)
(-1.60982e-20 2.04244e-22 -0.0036403)
(1.8749e-20 -1.03252e-20 -0.00415245)
(-9.8943e-20 7.269e-19 -0.0048019)
(1.15516e-19 -7.30127e-19 -0.00566519)
(-2.27526e-20 2.20879e-21 -0.00687217)
(1.60769e-20 -9.23996e-23 -0.00864125)
(3.82251e-20 6.43938e-21 -0.0113322)
(-2.48103e-19 5.4576e-19 -0.0155206)
(3.67928e-19 -1.10648e-18 -0.0220935)
(-1.7965e-19 5.60699e-19 -0.0323598)
(2.61298e-19 -4.29276e-19 -0.0481558)
(-2.52912e-19 5.05719e-19 -0.0719091)
(-5.89834e-19 5.22121e-19 -0.106601)
(1.11387e-18 -1.10647e-18 -0.1555)
(-5.45437e-19 5.58759e-19 -0.221417)
(1.88283e-20 -2.1649e-21 -0.305111)
(4.53914e-21 -3.50539e-20 -0.385169)
(-7.34169e-22 1.58188e-20 1.83999e-05)
(-2.8349e-22 6.05823e-20 1.00247e-05)
(1.99339e-21 -1.83949e-19 -1.95023e-06)
(-1.3449e-21 2.46853e-19 -1.75437e-05)
(-2.51222e-22 -1.09312e-19 -3.6791e-05)
(1.13417e-22 -1.46131e-20 -5.97907e-05)
(-4.73487e-22 1.54042e-20 -8.67135e-05)
(3.02706e-21 -1.86537e-22 -0.000117802)
(-2.87833e-21 -1.50584e-20 -0.000153372)
(-5.24247e-21 3.37694e-20 -0.000193816)
(-6.97644e-21 4.80905e-19 -0.000239608)
(1.84216e-20 -4.99828e-19 -0.000291307)
(-2.27425e-20 4.66306e-19 -0.000349568)
(1.89466e-20 -4.85063e-19 -0.000415149)
(-3.00601e-21 3.39668e-21 -0.000488894)
(1.09873e-20 4.76036e-23 -0.000571675)
(4.17807e-21 3.71532e-21 -0.000664386)
(-5.2604e-21 4.53216e-19 -0.000768109)
(2.02204e-20 -4.90447e-19 -0.000884143)
(6.34015e-21 2.69316e-20 -0.00101378)
(-4.57233e-20 9.34577e-19 -0.00115827)
(2.90667e-20 -9.37239e-19 -0.00131899)
(1.0178e-20 2.26322e-20 -0.00149744)
(-1.80483e-20 -2.33279e-22 -0.00169528)
(1.18099e-20 9.6387e-21 -0.00191441)
(-3.8788e-20 8.9835e-19 -0.00215709)
(3.19998e-20 -8.89914e-19 -0.00242604)
(2.83761e-21 9.62362e-21 -0.00272472)
(9.54695e-21 2.72694e-20 -0.00305756)
(-1.15101e-20 -5.49753e-22 -0.00343036)
(1.17831e-21 -1.30417e-20 -0.00385096)
(-3.73275e-20 1.32438e-20 -0.00433019)
(3.51202e-20 1.26169e-20 -0.00488369)
(-3.12178e-21 -2.52758e-20 -0.00553501)
(8.25655e-20 -7.4049e-19 -0.00632124)
(-7.36078e-20 7.63252e-19 -0.00730308)
(2.69846e-19 -1.46892e-18 -0.00858227)
(-2.47407e-19 1.48316e-18 -0.0103307)
(3.0684e-19 -1.38814e-18 -0.0128372)
(7.17161e-20 1.3199e-19 -0.0165778)
(-3.52909e-19 1.32267e-18 -0.0223147)
(-1.20915e-19 -2.21998e-20 -0.0312251)
(1.64582e-20 3.86901e-22 -0.0450517)
(-1.83507e-20 5.61813e-22 -0.0662564)
(5.41999e-20 1.66497e-21 -0.0981438)
(2.6079e-20 1.35985e-20 -0.144898)
(-1.13143e-19 5.14125e-21 -0.21137)
(6.44258e-20 4.98451e-21 -0.3021)
(-1.65187e-22 -3.10119e-22 -0.418359)
(3.60635e-20 6.39125e-22 -0.512554)
(-7.13772e-22 7.62519e-20 1.87879e-05)
(1.64803e-21 -4.64952e-20 4.82352e-06)
(-1.6659e-21 -1.63929e-20 -1.43961e-05)
(4.68302e-21 -2.27818e-19 -3.84337e-05)
(-2.30396e-21 2.29692e-19 -6.72223e-05)
(2.05056e-21 -2.27278e-19 -0.000100899)
(-1.10052e-20 5.01189e-19 -0.00013974)
(1.16275e-20 -7.01897e-19 -0.000184132)
(-7.51131e-21 4.96335e-19 -0.000234567)
(-5.96653e-21 4.83851e-19 -0.000291645)
(-2.20219e-21 3.95798e-21 -0.000356072)
(2.44858e-20 -9.50486e-19 -0.000428679)
(-2.14172e-20 9.89158e-19 -0.000510427)
(5.15449e-21 -4.65368e-19 -0.000602426)
(1.2144e-20 -4.67645e-19 -0.000705916)
(2.24667e-20 -4.60143e-19 -0.000822199)
(-3.24616e-21 6.65997e-21 -0.000952641)
(3.84387e-20 -9.5423e-19 -0.0010989)
(2.97897e-20 -9.16152e-19 -0.00126294)
(6.58527e-21 2.11977e-20 -0.0014468)
(-2.68498e-20 9.51549e-19 -0.00165251)
(-2.01207e-20 -8.07719e-21 -0.00188236)
(1.22852e-20 8.94429e-21 -0.00213892)
(-5.09998e-20 9.21358e-19 -0.00242504)
(4.14753e-20 -9.35909e-19 -0.00274404)
(7.30869e-20 -8.98991e-19 -0.00309978)
(-7.43149e-20 9.28596e-19 -0.00349694)
(1.50645e-20 -2.00083e-20 -0.00394124)
(6.80592e-20 -8.9623e-19 -0.00443982)
(-9.58014e-20 9.19096e-19 -0.0050018)
(4.37305e-21 1.23455e-20 -0.00563895)
(-2.07813e-19 1.68332e-18 -0.00636706)
(1.87975e-19 -1.74641e-18 -0.00720796)
(4.84821e-20 6.20453e-20 -0.00819336)
(-2.67924e-19 1.59343e-18 -0.00937162)
(2.45642e-19 -1.66144e-18 -0.01082)
(-3.15833e-20 -3.3065e-21 -0.012666)
(4.72424e-19 -1.49828e-18 -0.0151235)
(-4.42221e-19 1.54733e-18 -0.0185513)
(-6.62679e-20 -7.25018e-20 -0.023542)
(6.79195e-19 -1.30786e-18 -0.0310495)
(-1.19527e-18 2.69722e-18 -0.0425553)
(-6.60478e-20 -1.55349e-19 -0.0602698)
(-8.8438e-20 -1.21871e-19 -0.0873541)
(7.71464e-19 -1.17448e-18 -0.128151)
(3.95219e-20 6.30243e-20 -0.188447)
(-8.70676e-19 7.78612e-19 -0.275764)
(8.5371e-19 -8.56228e-19 -0.399134)
(9.25683e-21 2.89805e-20 -0.565026)
(9.34999e-21 -2.73526e-21 -0.679148)
(6.06227e-22 -1.58805e-20 1.60513e-05)
(1.68063e-21 -1.35464e-19 -9.38429e-06)
(-1.80302e-21 1.22169e-19 -3.99772e-05)
(-1.27123e-21 -1.71978e-20 -7.57966e-05)
(5.33228e-21 -2.26407e-19 -0.000117082)
(-4.92175e-21 2.32862e-19 -0.000164192)
(-5.81622e-21 4.70388e-19 -0.000217606)
(-5.10265e-21 -1.94392e-20 -0.00027791)
(2.21003e-21 -4.56411e-21 -0.000345802)
(1.44448e-20 -5.01611e-19 -0.000422096)
(-1.1776e-20 4.69355e-19 -0.000507738)
(1.77254e-20 -9.92986e-19 -0.000603813)
(-4.06813e-21 4.9636e-19 -0.00071157)
(-3.65019e-21 -1.86752e-20 -0.000832431)
(-4.87091e-21 -2.23443e-20 -0.000967985)
(2.85664e-20 -9.74354e-19 -0.00111989)
(-1.61831e-21 -2.01506e-20 -0.0012899)
(2.74646e-20 -9.92473e-19 -0.00148012)
(-5.40768e-21 -7.70966e-21 -0.00169306)
(-1.69879e-22 1.1938e-22 -0.00193126)
(1.14549e-20 8.44174e-21 -0.00219731)
(-5.31759e-20 9.54939e-19 -0.00249407)
(4.74351e-20 -9.75433e-19 -0.0028247)
(1.27855e-20 8.34628e-21 -0.00319266)
(-8.71314e-21 -1.49497e-20 -0.00360187)
(-6.17726e-21 9.91333e-21 -0.00405675)
(-7.45313e-20 9.21872e-19 -0.00456243)
(1.60163e-19 -1.88068e-18 -0.00512497)
(-7.59684e-20 9.8071e-19 -0.00575156)
(-1.92802e-19 1.8177e-18 -0.00645094)
(-3.04774e-20 -4.54755e-20 -0.00723392)
(2.60078e-21 -2.64466e-20 -0.00811433)
(-6.61719e-20 -5.38015e-20 -0.00911077)
(2.59977e-19 -1.81669e-18 -0.0102499)
(3.99956e-19 -1.68201e-18 -0.0115732)
(-3.5717e-19 1.76527e-18 -0.0131485)
(-3.3986e-20 -5.49787e-20 -0.0150933)
(4.73966e-19 -1.60865e-18 -0.017614)
(-4.18176e-19 1.70376e-18 -0.0210725)
(-6.6892e-19 1.51364e-18 -0.0260919)
(5.688e-19 -1.5985e-18 -0.0337133)
(7.83201e-20 -1.12243e-20 -0.0456113)
(8.69621e-19 -1.41292e-18 -0.0643648)
(1.21211e-19 1.2211e-19 -0.0937759)
(-1.00477e-18 1.38413e-18 -0.13924)
(-1.62522e-20 -3.96448e-20 -0.208243)
(3.35796e-20 5.27032e-22 -0.311707)
(-3.39749e-20 1.56395e-20 -0.468888)
(-5.13287e-19 5.37091e-19 -0.716952)
(5.04648e-19 -5.46266e-19 -0.985322)
(-1.07135e-20 -3.15087e-21 0.0102742)
(-1.0711e-20 -5.78391e-22 0.00502605)
(1.00434e-20 1.00919e-20 0.000589684)
(-7.00396e-21 2.37071e-21 -0.00311)
(7.52538e-21 -1.17792e-20 -0.00615351)
(3.9508e-23 3.47631e-21 -0.00862354)
(-1.69068e-22 -9.59973e-23 -0.0105969)
(-5.40127e-21 1.18131e-23 -0.0121396)
(5.24967e-21 -1.14815e-23 -0.0133109)
(-1.54651e-22 3.38237e-25 -0.0141612)
(-1.46721e-22 3.20893e-25 -0.0147333)
(4.23376e-21 -9.25965e-24 -0.0150644)
(-4.24736e-21 9.2894e-24 -0.0151879)
(-3.64792e-21 7.97837e-24 -0.0151335)
(3.44639e-22 -8.07732e-22 -0.0149278)
(5.93563e-21 1.38554e-20 -0.0145954)
(-2.49651e-21 -1.13495e-20 -0.0141582)
(-5.35823e-23 -7.6084e-22 -0.0136363)
(-1.81518e-23 5.01936e-22 -0.0130477)
(-2.56547e-21 -2.85111e-20 -0.0124087)
(2.595e-21 2.7909e-20 -0.0117333)
(-1.94072e-21 -3.33671e-20 -0.0110338)
(1.05956e-21 2.06603e-21 -0.010321)
(-1.25136e-21 9.47759e-24 -0.00960516)
(8.62152e-22 2.91458e-21 -0.00889555)
(-3.00113e-22 1.60019e-23 -0.00819957)
(-5.87262e-22 1.2844e-24 -0.00752288)
(2.56935e-22 -5.63048e-24 -0.00687021)
(2.28855e-22 3.88177e-21 -0.0062455)
(-7.33198e-24 6.87897e-24 -0.00565178)
(-2.18493e-22 -4.33146e-21 -0.00509129)
(2.1039e-22 4.54253e-21 -0.00456552)
(-2.33312e-22 -4.73349e-21 -0.00407535)
(1.02497e-21 4.51204e-20 -0.00362108)
(-9.85031e-22 -4.54515e-20 -0.00320253)
(-4.75002e-22 -3.77276e-20 -0.00281908)
(1.10737e-21 8.21883e-20 -0.00246977)
(-6.19032e-22 -4.46295e-20 -0.00215334)
(-8.78119e-23 -5.78636e-21 -0.00186827)
(8.57286e-23 5.97198e-21 -0.00161288)
(-5.60657e-23 2.55113e-25 -0.00138533)
(2.01926e-22 6.22316e-21 -0.00118369)
(-3.26613e-22 -3.20264e-20 -0.00100597)
(2.95408e-22 3.22353e-20 -0.000850169)
(-6.77124e-23 -6.61487e-21 -0.000714293)
(1.90131e-22 2.02172e-20 -0.000596385)
(2.61397e-23 -6.73685e-21 -0.000494537)
(-1.16598e-22 -1.38493e-20 -0.000406889)
(2.80215e-23 6.96438e-21 -0.000331608)
(-8.3485e-23 -7.09273e-21 -0.000266902)
(-1.54627e-20 2.53441e-20 0.0297335)
(3.13289e-20 -9.14889e-21 0.0141205)
(-2.53579e-20 -2.27437e-20 0.000831422)
(7.63535e-21 2.25798e-20 -0.0101647)
(-8.06104e-21 -2.20361e-20 -0.0191469)
(-1.24598e-20 6.12154e-21 -0.0263924)
(1.10086e-20 6.44436e-21 -0.0321497)
(6.72359e-21 9.99933e-21 -0.036627)
(5.64155e-21 -2.13195e-20 -0.0400046)
(-2.16012e-20 6.08657e-21 -0.0424361)
(1.97703e-20 -4.95559e-21 -0.0440493)
(5.65708e-21 1.58063e-20 -0.0449558)
(-1.68518e-20 -2.80503e-21 -0.0452542)
(-1.87982e-20 -3.78412e-20 -0.0450323)
(6.56331e-21 -1.9912e-20 -0.0443695)
(1.94915e-20 4.57456e-20 -0.0433378)
(-6.30718e-21 2.75606e-21 -0.042002)
(-8.09469e-22 -2.71321e-21 -0.040421)
(9.97542e-24 -8.88851e-23 -0.038648)
(4.67961e-22 -1.02348e-24 -0.0367303)
(1.29793e-21 1.92669e-23 -0.0347097)
(-1.54538e-21 -3.39035e-21 -0.0326218)
(2.28438e-20 1.59281e-19 -0.0304977)
(-2.53743e-20 -1.70962e-19 -0.0283678)
(2.48001e-20 1.93484e-19 -0.0262591)
(-1.29265e-20 -8.96744e-20 -0.024193)
(-2.41308e-20 -2.21492e-19 -0.0221863)
(1.16135e-20 1.13681e-19 -0.0202526)
(1.63053e-22 -3.61888e-21 -0.0184032)
(-1.1011e-21 -8.38531e-21 -0.0166469)
(4.26695e-22 4.33751e-21 -0.0149898)
(-1.06066e-21 -1.37535e-20 -0.0134364)
(8.90657e-21 1.51008e-19 -0.0119889)
(-1.87035e-20 -3.23288e-19 -0.0106482)
(8.43923e-21 1.5724e-19 -0.00941341)
(-9.77087e-22 -1.61227e-20 -0.00828272)
(2.90786e-22 5.51011e-21 -0.00725314)
(-2.41704e-23 -6.87786e-23 -0.00632085)
(-3.86589e-21 -1.00248e-19 -0.00548131)
(3.28851e-21 8.87474e-20 -0.00472946)
(2.37801e-21 8.6469e-20 -0.00405983)
(-3.50202e-21 -1.17891e-19 -0.00346667)
(8.31577e-23 6.46716e-21 -0.00294409)
(7.22928e-22 3.28077e-20 -0.00248614)
(-1.59207e-21 -5.91042e-20 -0.00208692)
(3.05686e-23 -6.69567e-21 -0.00174063)
(-9.9118e-22 -4.78431e-20 -0.00144163)
(-1.84215e-22 -7.20458e-21 -0.00118441)
(2.31679e-22 1.37758e-20 -0.000963465)
(2.76332e-22 2.11463e-20 -0.000773252)
(-1.42879e-20 -1.04692e-21 0.0458771)
(-1.46007e-20 -1.60887e-20 0.0201358)
(3.68523e-20 3.01439e-20 -0.00192233)
(-4.40305e-20 -1.25942e-20 -0.0198604)
(1.81402e-20 1.18888e-20 -0.0342944)
(1.70581e-20 1.35366e-20 -0.0457928)
(-8.2363e-21 -5.14576e-20 -0.0548283)
(3.19725e-20 -1.38305e-21 -0.0617771)
(-2.68161e-20 4.47187e-20 -0.0669482)
(-4.67139e-20 -2.87304e-20 -0.0706021)
(8.4297e-20 2.56448e-20 -0.0729507)
(-5.26694e-20 -4.98553e-21 -0.0741753)
(5.62176e-21 -1.10778e-20 -0.0744363)
(-3.04899e-21 -7.6837e-21 -0.0738766)
(7.86342e-20 1.17441e-19 -0.0726241)
(-3.14448e-21 3.83831e-20 -0.0707942)
(-7.26365e-20 -1.39825e-19 -0.0684909)
(9.47663e-21 -9.03167e-22 -0.0658081)
(-5.6641e-21 2.12104e-22 -0.0628307)
(2.53356e-22 -1.85551e-21 -0.0596341)
(4.21256e-20 1.46458e-19 -0.0562849)
(-4.14196e-20 -1.36695e-19 -0.0528389)
(-4.19677e-20 -1.73884e-19 -0.049347)
(4.50415e-20 1.8029e-19 -0.0458545)
(5.14106e-22 7.82788e-21 -0.0424046)
(-9.95654e-22 -6.86062e-21 -0.0390324)
(7.11468e-22 7.7339e-21 -0.035763)
(-3.59605e-20 -2.43976e-19 -0.0326179)
(3.8594e-20 2.51412e-19 -0.0296145)
(-3.39424e-20 -2.6194e-19 -0.0267659)
(3.6279e-20 2.79417e-19 -0.0240817)
(8.25578e-22 9.51945e-21 -0.0215682)
(3.12308e-20 3.1741e-19 -0.0192287)
(-6.05726e-20 -6.37333e-19 -0.0170638)
(3.0717e-20 3.40559e-19 -0.015072)
(1.44496e-20 1.8638e-19 -0.0132497)
(-1.28419e-20 -1.64862e-19 -0.0115918)
(3.53514e-22 7.77088e-23 -0.0100919)
(-5.38246e-22 -9.78973e-23 -0.00874235)
(-6.13698e-23 1.24494e-22 -0.00753477)
(9.85694e-21 1.98662e-19 -0.00646013)
(-9.5387e-21 -1.86703e-19 -0.00550901)
(7.85857e-22 1.29548e-20 -0.00467177)
(-4.34224e-22 -6.58739e-24 -0.00393871)
(3.68062e-21 1.0641e-19 -0.00330023)
(-6.7796e-21 -2.01376e-19 -0.00274692)
(3.3333e-21 1.08297e-19 -0.00226961)
(-1.68751e-21 -5.55442e-20 -0.0018593)
(1.27381e-21 4.14976e-20 -0.00150686)
(3.01789e-22 1.39349e-20 -0.00120254)
(1.89782e-21 2.70073e-20 0.0555292)
(8.76346e-21 -5.48438e-20 0.0201538)
(-6.97559e-20 1.83239e-20 -0.0103139)
(1.06541e-19 7.3147e-20 -0.0343957)
(-2.08164e-20 -1.0442e-19 -0.0533165)
(-2.95542e-21 3.37273e-20 -0.0680986)
(-1.27985e-20 8.09296e-21 -0.079509)
(1.12716e-20 2.31733e-20 -0.0881264)
(-6.63869e-20 -3.8051e-20 -0.0943934)
(9.1687e-20 1.71133e-21 -0.0986717)
(-2.45687e-20 1.28569e-20 -0.101251)
(-1.25892e-20 6.92783e-22 -0.102377)
(1.78843e-20 9.64348e-21 -0.102263)
(-1.08492e-19 -1.35954e-19 -0.101097)
(9.25353e-20 1.1509e-19 -0.0990499)
(-7.14905e-21 1.36774e-20 -0.0962712)
(6.65261e-21 -8.28915e-21 -0.0928976)
(1.10605e-19 2.39454e-19 -0.0890517)
(-1.13663e-19 -2.27516e-19 -0.0848439)
(-4.67638e-22 -1.03756e-20 -0.0803724)
(-1.7787e-21 -7.11292e-23 -0.0757235)
(2.09993e-21 4.64001e-22 -0.0709713)
(1.28061e-21 -4.67302e-23 -0.0661785)
(-2.05348e-21 6.4606e-21 -0.061405)
(3.11989e-21 4.00062e-22 -0.0567052)
(1.30007e-21 8.29706e-21 -0.0521236)
(-1.11336e-19 -5.07397e-19 -0.0476953)
(1.11206e-19 4.9791e-19 -0.043445)
(-1.63757e-21 1.58321e-21 -0.0393947)
(-4.83252e-20 -2.89741e-19 -0.0355606)
(5.14618e-20 2.99029e-19 -0.0319542)
(-1.74749e-22 2.7085e-22 -0.0285827)
(-1.92935e-22 -2.77181e-22 -0.0254495)
(-4.29404e-20 -3.47353e-19 -0.0225544)
(8.27354e-20 6.95844e-19 -0.0198946)
(-7.68627e-20 -7.05769e-19 -0.0174646)
(7.30937e-20 7.25639e-19 -0.0152568)
(-6.87007e-20 -7.44384e-19 -0.013262)
(3.31303e-20 3.77104e-19 -0.0114695)
(1.45065e-20 1.96349e-19 -0.00986758)
(-1.27557e-20 -1.72004e-19 -0.0084439)
(-1.0606e-21 -1.27225e-20 -0.00718551)
(-1.17958e-20 -2.07084e-19 -0.00607927)
(2.46476e-20 4.44276e-19 -0.005112)
(-1.13151e-20 -2.11022e-19 -0.00427073)
(1.12899e-22 1.90269e-22 -0.00354274)
(4.59543e-22 1.35851e-20 -0.00291567)
(-9.83942e-23 -6.91083e-23 -0.00237732)
(-4.41501e-22 -1.38837e-20 -0.00191502)
(9.49019e-22 2.81261e-20 -0.00151414)
(2.75324e-20 9.79265e-23 0.0544724)
(3.38683e-22 3.92448e-22 0.0100077)
(-6.20388e-20 4.10519e-22 -0.0278755)
(9.14004e-20 -3.76451e-22 -0.0565106)
(-2.74226e-20 -2.18118e-22 -0.0782376)
(-4.33903e-20 -8.90636e-22 -0.0947538)
(1.45129e-20 2.9711e-22 -0.107173)
(-1.12495e-20 -5.23758e-22 -0.116277)
(9.01978e-20 -2.48208e-20 -0.122647)
(9.30049e-20 1.69791e-19 -0.126722)
(6.21215e-21 8.20587e-20 -0.128851)
(-1.3061e-19 -2.31882e-19 -0.129327)
(1.8639e-19 2.93031e-19 -0.128398)
(-2.04035e-19 -2.85307e-19 -0.126287)
(1.01296e-19 1.8802e-19 -0.123189)
(-1.12537e-19 -1.97029e-19 -0.119279)
(5.3656e-21 -4.21902e-21 -0.114715)
(-2.18003e-20 -3.51808e-21 -0.109639)