/*--------------------------------*- C++ -*----------------------------------*\
| =========                 |                                                 |
| \\      /  F ield         | OpenFOAM: The Open Source CFD Toolbox           |
|  \\    /   O peration     | Version:  2412                                  |
|   \\  /    A nd           | Website:  www.openfoam.com                      |
|    \\/     M anipulation  |                                                 |
\*---------------------------------------------------------------------------*/
FoamFile
{
    version     2.0;
    format      ascii;
    arch        "LSB;label=32;scalar=64";
    class       surfaceScalarField;
    location    "18";
    object      phi;
}
// * * * * * * * * * * * * * * * * * * * * * * * * * * * * * * * * * * * * * //

dimensions      [0 3 -1 0 0 0 0];

oriented        oriented;

internalField   nonuniform List<scalar> 
10423
(
0.00528265
0.000148482
-0.000148668
0.00528289
0.000143718
-0.000143953
0.00528317
0.00013896
-0.000139237
0.00528348
0.000134215
-0.00013453
0.00528383
0.00012949
-0.000129837
0.0052842
0.000124794
-0.000125167
0.0052846
0.000120133
-0.000120528
0.00528501
0.000115514
-0.000115927
0.00528544
0.000110943
-0.00011137
0.00528587
0.000106428
-0.000106865
0.00528632
0.000101975
-0.000102418
0.00528676
9.75891e-05
-9.80359e-05
0.00528721
9.32758e-05
-9.37232e-05
0.00528766
8.90402e-05
-8.94857e-05
0.0052881
8.48869e-05
-8.53281e-05
0.00528853
8.08201e-05
-8.1255e-05
0.00528896
7.68437e-05
-7.72705e-05
0.00528938
7.29612e-05
-7.33782e-05
0.00528978
6.91758e-05
-6.95815e-05
0.00529017
6.54901e-05
-6.58834e-05
0.00529055
6.19068e-05
-6.22865e-05
0.00529092
5.8428e-05
-5.87933e-05
0.00529127
5.50557e-05
-5.54059e-05
0.0052916
5.17917e-05
-5.21262e-05
0.00529192
4.86375e-05
-4.89558e-05
0.00529222
4.55942e-05
-4.58961e-05
0.00529251
4.2663e-05
-4.29483e-05
0.00529278
3.98445e-05
-4.01132e-05
0.00529303
3.71393e-05
-3.73914e-05
0.00529327
3.45474e-05
-3.47831e-05
0.00529349
3.20688e-05
-3.22884e-05
0.00529369
2.97033e-05
-2.99071e-05
0.00529388
2.74504e-05
-2.76387e-05
0.00529405
2.53096e-05
-2.54828e-05
0.00529421
2.32801e-05
-2.34388e-05
0.00529435
2.13612e-05
-2.15059e-05
0.00529449
1.95517e-05
-1.96831e-05
0.0052946
1.78506e-05
-1.79693e-05
0.00529471
1.62567e-05
-1.63633e-05
0.00529481
1.47689e-05
-1.4864e-05
0.00529489
1.33858e-05
-1.34703e-05
0.00529497
1.21072e-05
-1.21817e-05
0.00529503
1.09314e-05
-1.09969e-05
0.00529509
9.85966e-06
-9.91679e-06
0.00529514
8.88817e-06
-8.93776e-06
0.00529518
8.02315e-06
-8.06616e-06
0.00529522
7.25274e-06
-7.2898e-06
0.00529525
6.60055e-06
-6.63292e-06
0.00529528
6.02706e-06
-6.0549e-06
0.0052953
5.60948e-06
-5.63498e-06
0.00529532
5.22234e-06
-5.24427e-06
0.00529535
5.09346e-06
-5.11671e-06
0.00529537
4.86133e-06
-4.88066e-06
0.00529539
5.13517e-06
-5.16226e-06
0.00529541
4.98327e-06
-5.00292e-06
0.00529545
5.87459e-06
-5.91412e-06
0.00529548
5.66807e-06
-5.69077e-06
0.00529554
7.52374e-06
-7.58838e-06
0.00529557
7.08189e-06
-7.11088e-06
0.00529568
1.03642e-05
-1.04721e-05
0.00529572
9.54858e-06
-9.58844e-06
0.0052959
1.47698e-05
-1.49504e-05
0.00529595
1.36268e-05
-1.36767e-05
0.00529627
2.13093e-05
-2.16335e-05
0.00529629
2.0236e-05
-2.02497e-05
0.00529693
3.05072e-05
-3.11499e-05
0.0052969
3.24779e-05
-3.24501e-05
0.00529767
3.90621e-05
-3.9831e-05
0.0052988
5.98065e-05
-6.09383e-05
0.00529875
5.02003e-05
-5.0146e-05
8.28416e-05
-8.46754e-05
0.00528128
0.000148214
0.00528159
0.000143404
0.00528195
0.000138606
0.00528234
0.000133827
0.00528275
0.000129073
0.00528319
0.000124353
0.00528365
0.000119673
0.00528413
0.000115039
0.00528461
0.000110457
0.00528511
0.000105935
0.0052856
0.000101478
0.0052861
9.70911e-05
0.0052866
9.27798e-05
0.00528709
8.85486e-05
0.00528758
8.4402e-05
0.00528805
8.03439e-05
0.00528852
7.6378e-05
0.00528897
7.25076e-05
0.00528941
6.87354e-05
0.00528984
6.50643e-05
0.00529025
6.14964e-05
0.00529064
5.8034e-05
0.00529102
5.46786e-05
0.00529138
5.14321e-05
0.00529172
4.82956e-05
0.00529204
4.52704e-05
0.00529235
4.23572e-05
0.00529264
3.95568e-05
0.00529291
3.68695e-05
0.00529316
3.42953e-05
0.00529339
3.18341e-05
0.00529361
2.94856e-05
0.00529381
2.72493e-05
0.005294
2.51245e-05
0.00529417
2.31105e-05
0.00529432
2.12065e-05
0.00529446
1.94112e-05
0.00529459
1.77237e-05
0.0052947
1.61426e-05
0.00529481
1.46667e-05
0.0052949
1.3295e-05
0.00529498
1.20269e-05
0.00529505
1.08608e-05
0.00529511
9.79784e-06
0.00529516
8.83432e-06
0.00529521
7.97629e-06
0.00529525
7.21215e-06
0.00529529
6.565e-06
0.00529532
5.99626e-06
0.00529535
5.5813e-06
0.00529537
5.19776e-06
0.0052954
5.06786e-06
0.00529542
4.83943e-06
0.00529545
5.10595e-06
0.00529547
4.9608e-06
0.00529551
5.833e-06
0.00529554
5.64192e-06
0.0052956
7.45694e-06
0.00529564
7.04835e-06
0.00529575
1.02537e-05
0.00529579
9.50274e-06
0.00529598
1.45853e-05
0.00529604
1.35691e-05
0.00529637
2.09793e-05
0.00529639
2.02107e-05
0.00529704
2.98588e-05
0.00529703
3.24842e-05
0.00529781
3.82839e-05
0.00529896
5.86624e-05
0.00529895
5.02101e-05
8.09797e-05
0.00527989
0.000147863
0.00528028
0.000143009
0.00528071
0.000138175
0.00528118
0.000133364
0.00528167
0.000128585
0.00528217
0.000123844
0.0052827
0.000119147
0.00528324
0.000114501
0.00528378
0.000109912
0.00528433
0.000105385
0.00528489
0.000100927
0.00528543
9.65417e-05
0.00528598
9.22349e-05
0.00528652
8.80107e-05
0.00528705
8.38733e-05
0.00528756
7.98263e-05
0.00528807
7.58732e-05
0.00528856
7.20169e-05
0.00528903
6.82603e-05
0.00528949
6.46058e-05
0.00528993
6.10554e-05
0.00529036
5.76111e-05
0.00529076
5.42745e-05
0.00529115
5.10471e-05
0.00529151
4.79301e-05
0.00529186
4.49245e-05
0.00529218
4.20309e-05
0.00529249
3.925e-05
0.00529278
3.65819e-05
0.00529305
3.40267e-05
0.0052933
3.15841e-05
0.00529353
2.92538e-05
0.00529374
2.70351e-05
0.00529394
2.49274e-05
0.00529412
2.29299e-05
0.00529428
2.10416e-05
0.00529443
1.92614e-05
0.00529457
1.75882e-05
0.00529469
1.60206e-05
0.0052948
1.45576e-05
0.0052949
1.31978e-05
0.00529498
1.19407e-05
0.00529506
1.07849e-05
0.00529513
9.7312e-06
0.00529519
8.77609e-06
0.00529524
7.92545e-06
0.00529528
7.16794e-06
0.00529532
6.52614e-06
0.00529535
5.96238e-06
0.00529538
5.55027e-06
0.00529541
5.17049e-06
0.00529544
5.03971e-06
0.00529546
4.81499e-06
0.0052955
5.07428e-06
0.00529552
4.93568e-06
0.00529556
5.78889e-06
0.00529559
5.61267e-06
0.00529566
7.38732e-06
0.0052957
7.01083e-06
0.00529582
1.01397e-05
0.00529587
9.45153e-06
0.00529606
1.43962e-05
0.00529612
1.35039e-05
0.00529646
2.06435e-05
0.00529649
2.01723e-05
0.00529715
2.9208e-05
0.00529717
3.24641e-05
0.00529795
3.75011e-05
0.0052991
5.75094e-05
0.00529915
5.01661e-05
7.90953e-05
0.00527848
0.000147428
0.00527896
0.000142534
0.00527947
0.000137665
0.00528001
0.000132826
0.00528057
0.000128024
0.00528115
0.000123265
0.00528174
0.000118555
0.00528234
0.0001139
0.00528294
0.000109306
0.00528355
0.000104778
0.00528416
0.000100321
0.00528476
9.59405e-05
0.00528535
9.16409e-05
0.00528594
8.74263e-05
0.00528651
8.33005e-05
0.00528707
7.92671e-05
0.00528761
7.5329e-05
0.00528814
7.14893e-05
0.00528865
6.77503e-05
0.00528914
6.41144e-05
0.00528961
6.05835e-05
0.00529007
5.71593e-05
0.0052905
5.38433e-05
0.00529091
5.06368e-05
0.0052913
4.75409e-05
0.00529166
4.45564e-05
0.00529201
4.1684e-05
0.00529234
3.89239e-05
0.00529264
3.62765e-05
0.00529293
3.37416e-05
0.00529319
3.13188e-05
0.00529344
2.90078e-05
0.00529367
2.68078e-05
0.00529388
2.47183e-05
0.00529407
2.27382e-05
0.00529424
2.08666e-05
0.0052944
1.91023e-05
0.00529454
1.74442e-05
0.00529467
1.58909e-05
0.00529479
1.44413e-05
0.00529489
1.3094e-05
0.00529499
1.18486e-05
0.00529507
1.07036e-05
0.00529514
9.65964e-06
0.0052952
8.71339e-06
0.00529526
7.87053e-06
0.00529531
7.12e-06
0.00529535
6.48384e-06
0.00529538
5.92533e-06
0.00529542
5.51628e-06
0.00529545
5.14041e-06
0.00529548
5.0089e-06
0.00529551
4.78789e-06
0.00529554
5.04006e-06
0.00529557
4.9078e-06
0.00529562
5.74215e-06
0.00529565
5.58021e-06
0.00529572
7.31479e-06
0.00529576
6.96923e-06
0.00529588
1.00223e-05
0.00529594
9.39484e-06
0.00529613
1.42026e-05
0.0052962
1.34308e-05
0.00529654
2.03028e-05
0.0052966
2.01193e-05
0.00529725
2.85577e-05
0.0052973
3.24135e-05
0.00529808
3.67174e-05
0.00529924
5.6351e-05
0.00529935
5.00607e-05
7.71935e-05
0.00527706
0.000146907
0.00527762
0.000141976
0.00527821
0.000137076
0.00527882
0.000132213
0.00527946
0.000127391
0.00528011
0.000122617
0.00528076
0.000117897
0.00528143
0.000113236
0.0052821
0.000108639
0.00528276
0.000104112
0.00528342
9.96602e-05
0.00528407
9.52872e-05
0.00528472
9.09976e-05
0.00528535
8.67952e-05
0.00528597
8.26836e-05
0.00528657
7.86661e-05
0.00528715
7.47455e-05
0.00528771
7.09245e-05
0.00528826
6.72054e-05
0.00528878
6.35902e-05
0.00528929
6.00807e-05
0.00528977
5.66785e-05
0.00529023
5.3385e-05
0.00529066
5.02012e-05
0.00529107
4.7128e-05
0.00529146
4.41662e-05
0.00529183
4.13164e-05
0.00529218
3.85787e-05
0.0052925
3.59532e-05
0.0052928
3.34398e-05
0.00529308
3.10381e-05
0.00529334
2.87475e-05
0.00529358
2.65674e-05
0.00529381
2.4497e-05
0.00529401
2.25353e-05
0.00529419
2.06812e-05
0.00529436
1.89337e-05
0.00529451
1.72915e-05
0.00529465
1.57532e-05
0.00529478
1.43177e-05
0.00529489
1.29837e-05
0.00529498
1.17505e-05
0.00529507
1.06167e-05
0.00529515
9.58306e-06
0.00529522
8.6461e-06
0.00529527
7.81142e-06
0.00529533
7.06822e-06
0.00529537
6.43801e-06
0.00529541
5.88501e-06
0.00529545
5.47924e-06
0.00529548
5.10743e-06
0.00529552
4.97533e-06
0.00529555
4.75805e-06
0.00529558
5.0032e-06
0.00529561
4.87708e-06
0.00529566
5.69268e-06
0.0052957
5.54447e-06
0.00529577
7.23925e-06
0.00529582
6.92346e-06
0.00529594
9.90125e-06
0.005296
9.33255e-06
0.0052962
1.40045e-05
0.00529628
1.33495e-05
0.00529663
1.99578e-05
0.0052967
2.00504e-05
0.00529734
2.79106e-05
0.00529743
3.23288e-05
0.00529821
3.59363e-05
0.00529937
5.51902e-05
0.00529954
4.98878e-05
7.52792e-05
0.00527563
0.000146299
0.00527627
0.000141335
0.00527694
0.000136408
0.00527763
0.000131522
0.00527834
0.000126684
0.00527906
0.000121899
0.00527978
0.000117171
0.00528051
0.000112507
0.00528124
0.000107912
0.00528196
0.000103389
0.00528268
9.89445e-05
0.00528338
9.45817e-05
0.00528408
9.03048e-05
0.00528475
8.61172e-05
0.00528542
8.20224e-05
0.00528606
7.80233e-05
0.00528668
7.41225e-05
0.00528728
7.03225e-05
0.00528786
6.66254e-05
0.00528842
6.30331e-05
0.00528895
5.95471e-05
0.00528946
5.61688e-05
0.00528995
5.28995e-05
0.00529041
4.97401e-05
0.00529085
4.66913e-05
0.00529126
4.37539e-05
0.00529165
4.09281e-05
0.00529201
3.82142e-05
0.00529235
3.56121e-05
0.00529267
3.31215e-05
0.00529297
3.0742e-05
0.00529324
2.8473e-05
0.0052935
2.63138e-05
0.00529373
2.42635e-05
0.00529394
2.23211e-05
0.00529414
2.04856e-05
0.00529432
1.87556e-05
0.00529448
1.713e-05
0.00529462
1.56075e-05
0.00529476
1.41868e-05
0.00529487
1.28666e-05
0.00529498
1.16463e-05
0.00529507
1.05243e-05
0.00529515
9.50138e-06
0.00529522
8.57415e-06
0.00529529
7.74804e-06
0.00529534
7.01252e-06
0.00529539
6.38857e-06
0.00529544
5.84133e-06
0.00529548
5.43907e-06
0.00529551
5.07146e-06
0.00529555
4.93893e-06
0.00529558
4.72539e-06
0.00529562
4.96361e-06
0.00529565
4.84342e-06
0.00529571
5.64041e-06
0.00529575
5.50536e-06
0.00529582
7.16063e-06
0.00529587
6.87346e-06
0.005296
9.77662e-06
0.00529607
9.26456e-06
0.00529627
1.38021e-05
0.00529636
1.32597e-05
0.00529671
1.9609e-05
0.00529679
1.99646e-05
0.00529744
2.7269e-05
0.00529756
3.22073e-05
0.00529833
3.51604e-05
0.00529949
5.40295e-05
0.00529974
4.96429e-05
7.33572e-05
0.00527419
0.000145603
0.00527491
0.000140608
0.00527566
0.000135657
0.00527643
0.000130754
0.00527721
0.000125903
0.005278
0.000121109
0.0052788
0.000116378
0.00527959
0.000111715
0.00528038
0.000107123
0.00528116
0.000102608
0.00528193
9.81736e-05
0.00528269
9.38239e-05
0.00528343
8.95623e-05
0.00528416
8.53923e-05
0.00528486
8.13168e-05
0.00528555
7.73386e-05
0.00528621
7.346e-05
0.00528685
6.96834e-05
0.00528746
6.60105e-05
0.00528805
6.24431e-05
0.00528862
5.89825e-05
0.00528916
5.56301e-05
0.00528967
5.23868e-05
0.00529016
4.92536e-05
0.00529062
4.62309e-05
0.00529105
4.33194e-05
0.00529146
4.05192e-05
0.00529184
3.78304e-05
0.0052922
3.5253e-05
0.00529254
3.27865e-05
0.00529285
3.04305e-05
0.00529314
2.81842e-05
0.0052934
2.6047e-05
0.00529365
2.40178e-05
0.00529388
2.20957e-05
0.00529408
2.02795e-05
0.00529427
1.8568e-05
0.00529444
1.69599e-05
0.00529459
1.54538e-05
0.00529473
1.40485e-05
0.00529485
1.27428e-05
0.00529497
1.15358e-05
0.00529506
1.04262e-05
0.00529515
9.41453e-06
0.00529523
8.49748e-06
0.00529529
7.68033e-06
0.00529535
6.95283e-06
0.00529541
6.33546e-06
0.00529545
5.79422e-06
0.0052955
5.39569e-06
0.00529554
5.03243e-06
0.00529558
4.89961e-06
0.00529561
4.68982e-06
0.00529565
4.92123e-06
0.00529569
4.80678e-06
0.00529575
5.58529e-06
0.00529579
5.46282e-06
0.00529587
7.07889e-06
0.00529592
6.81916e-06
0.00529605
9.64836e-06
0.00529613
9.19081e-06
0.00529633
1.35955e-05
0.00529643
1.31613e-05
0.00529678
1.92569e-05
0.00529689
1.9861e-05
0.00529752
2.66344e-05
0.00529768
3.20472e-05
0.00529845
3.43918e-05
0.00529961
5.28708e-05
0.00529993
4.93232e-05
7.1432e-05
0.00527274
0.000144817
0.00527355
0.000139797
0.00527438
0.000134825
0.00527523
0.000129907
0.00527608
0.000125046
0.00527694
0.000120248
0.0052778
0.000115517
0.00527866
0.000110857
0.00527951
0.000106273
0.00528035
0.000101768
0.00528118
9.73472e-05
0.00528199
9.30134e-05
0.00528278
8.87702e-05
0.00528355
8.46204e-05
0.0052843
8.05668e-05
0.00528503
7.6612e-05
0.00528573
7.27581e-05
0.00528641
6.9007e-05
0.00528706
6.53605e-05
0.00528768
6.18202e-05
0.00528828
5.83871e-05
0.00528884
5.50625e-05
0.00528938
5.18471e-05
0.0052899
4.87417e-05
0.00529038
4.57468e-05
0.00529084
4.28627e-05
0.00529127
4.00896e-05
0.00529167
3.74275e-05
0.00529205
3.4876e-05
0.0052924
3.24349e-05
0.00529272
3.01035e-05
0.00529303
2.78812e-05
0.00529331
2.5767e-05
0.00529357
2.37599e-05
0.0052938
2.18591e-05
0.00529402
2.00631e-05
0.00529422
1.83708e-05
0.00529439
1.67809e-05
0.00529456
1.5292e-05
0.0052947
1.39029e-05
0.00529483
1.26122e-05
0.00529495
1.14192e-05
0.00529505
1.03224e-05
0.00529514
9.32247e-06
0.00529523
8.41602e-06
0.0052953
7.60824e-06
0.00529536
6.8891e-06
0.00529542
6.27861e-06
0.00529547
5.74363e-06
0.00529552
5.34905e-06
0.00529556
4.99028e-06
0.0052956
4.85734e-06
0.00529564
4.65131e-06
0.00529568
4.87601e-06
0.00529572
4.76708e-06
0.00529578
5.52725e-06
0.00529583
5.4168e-06
0.00529591
6.99399e-06
0.00529597
6.76053e-06
0.0052961
9.51646e-06
0.00529618
9.11123e-06
0.00529639
1.33846e-05
0.0052965
1.3054e-05
0.00529686
1.8902e-05
0.00529698
1.97389e-05
0.0052976
2.60084e-05
0.0052978
3.18473e-05
0.00529856
3.3632e-05
0.00529972
5.17157e-05
0.00530011
4.89275e-05
6.95082e-05
0.00527127
0.000143941
0.00527217
0.000138898
0.00527309
0.00013391
0.00527401
0.000128981
0.00527494
0.000124115
0.00527588
0.000119315
0.00527681
0.000114587
0.00527773
0.000109934
0.00527864
0.000105361
0.00527954
0.00010087
0.00528042
9.64652e-05
0.00528129
9.21504e-05
0.00528213
8.79282e-05
0.00528295
8.38014e-05
0.00528374
7.97724e-05
0.00528451
7.58435e-05
0.00528525
7.20166e-05
0.00528596
6.82935e-05
0.00528665
6.46757e-05
0.00528731
6.11645e-05
0.00528793
5.77609e-05
0.00528853
5.44659e-05
0.00528909
5.12803e-05
0.00528963
4.82045e-05
0.00529014
4.5239e-05
0.00529062
4.2384e-05
0.00529107
3.96395e-05
0.00529149
3.70053e-05
0.00529189
3.44813e-05
0.00529225
3.20668e-05
0.0052926
2.97613e-05
0.00529291
2.75639e-05
0.00529321
2.54737e-05
0.00529348
2.34899e-05
0.00529372
2.16111e-05
0.00529395
1.98363e-05
0.00529416
1.81641e-05
0.00529435
1.65931e-05
0.00529452
1.51221e-05
0.00529467
1.37498e-05
0.00529481
1.24748e-05
0.00529493
1.12964e-05
0.00529504
1.0213e-05
0.00529514
9.22517e-06
0.00529522
8.32976e-06
0.0052953
7.53172e-06
0.00529537
6.8213e-06
0.00529543
6.21799e-06
0.00529548
5.68952e-06
0.00529553
5.29911e-06
0.00529558
4.94499e-06
0.00529562
4.81206e-06
0.00529566
4.6098e-06
0.00529571
4.8279e-06
0.00529575
4.7243e-06
0.00529581
5.46626e-06
0.00529586
5.36728e-06
0.00529595
6.90589e-06
0.00529602
6.69753e-06
0.00529615
9.38091e-06
0.00529624
9.02578e-06
0.00529645
1.31696e-05
0.00529657
1.29378e-05
0.00529692
1.85446e-05
0.00529707
1.9598e-05
0.00529768
2.53917e-05
0.00529792
3.16072e-05
0.00529867
3.2882e-05
0.00529982
5.05654e-05
0.00530029
4.84564e-05
6.75898e-05
0.0052698
0.000142973
0.00527079
0.000137911
0.00527179
0.000132911
0.0052728
0.000127975
0.0052738
0.000123107
0.00527481
0.00011831
0.00527581
0.000113589
0.0052768
0.000108946
0.00527777
0.000104386
0.00527873
9.99124e-05
0.00527966
9.55275e-05
0.00528058
9.12346e-05
0.00528147
8.70365e-05
0.00528234
8.29354e-05
0.00528318
7.89337e-05
0.00528399
7.50332e-05
0.00528477
7.12358e-05
0.00528552
6.7543e-05
0.00528624
6.3956e-05
0.00528693
6.0476e-05
0.00528758
5.7104e-05
0.00528821
5.38407e-05
0.0052888
5.06866e-05
0.00528937
4.76422e-05
0.0052899
4.47077e-05
0.0052904
4.18833e-05
0.00529087
3.91689e-05
0.00529131
3.65641e-05
0.00529172
3.40688e-05
0.00529211
3.16822e-05
0.00529246
2.94037e-05
0.0052928
2.72324e-05
0.0052931
2.51674e-05
0.00529338
2.32077e-05
0.00529364
2.1352e-05
0.00529388
1.95992e-05
0.0052941
1.79478e-05
0.00529429
1.63966e-05
0.00529447
1.49442e-05
0.00529463
1.35893e-05
0.00529478
1.23306e-05
0.0052949
1.11673e-05
0.00529502
1.00978e-05
0.00529512
9.12262e-06
0.00529521
8.23867e-06
0.00529529
7.45077e-06
0.00529537
6.74941e-06
0.00529543
6.15358e-06
0.00529549
5.63187e-06
0.00529554
5.24585e-06
0.00529559
4.89652e-06
0.00529564
4.76376e-06
0.00529568
4.56528e-06
0.00529573
4.77689e-06
0.00529578
4.6784e-06
0.00529584
5.40231e-06
0.0052959
5.31423e-06
0.00529599
6.81459e-06
0.00529606
6.63016e-06
0.00529619
9.24173e-06
0.00529629
8.93445e-06
0.0052965
1.29507e-05
0.00529663
1.28124e-05
0.00529699
1.81852e-05
0.00529715
1.94381e-05
0.00529776
2.4785e-05
0.00529804
3.1327e-05
0.00529878
3.21423e-05
0.00529992
4.94206e-05
0.00530047
4.79115e-05
6.56806e-05
0.00526833
0.000141912
0.0052694
0.000136836
0.00527049
0.000131827
0.00527158
0.000126888
0.00527266
0.000122022
0.00527374
0.000117232
0.00527481
0.000112521
0.00527586
0.000107893
0.0052769
0.00010335
0.00527791
9.88961e-05
0.00527891
9.4534e-05
0.00527987
9.02662e-05
0.00528082
8.60949e-05
0.00528173
8.20224e-05
0.00528261
7.80506e-05
0.00528346
7.41812e-05
0.00528428
7.04157e-05
0.00528507
6.67555e-05
0.00528583
6.32016e-05
0.00528655
5.97551e-05
0.00528723
5.64166e-05
0.00528789
5.31868e-05
0.00528851
5.00661e-05
0.0052891
4.70548e-05
0.00528965
4.4153e-05
0.00529017
4.13608e-05
0.00529066
3.86779e-05
0.00529112
3.6104e-05
0.00529155
3.36386e-05
0.00529196
3.12812e-05
0.00529233
2.90309e-05
0.00529267
2.68868e-05
0.00529299
2.4848e-05
0.00529329
2.29134e-05
0.00529356
2.10817e-05
0.00529381
1.93517e-05
0.00529403
1.77221e-05
0.00529424
1.61914e-05
0.00529442
1.47583e-05
0.00529459
1.34215e-05
0.00529474
1.21796e-05
0.00529488
1.10319e-05
0.005295
9.97684e-06
0.00529511
9.01481e-06
0.0052952
8.14275e-06
0.00529529
7.36538e-06
0.00529536
6.67341e-06
0.00529543
6.08537e-06
0.00529549
5.57067e-06
0.00529555
5.18926e-06
0.0052956
4.84485e-06
0.00529565
4.71242e-06
0.0052957
4.51773e-06
0.00529575
4.72297e-06
0.0052958
4.62939e-06
0.00529587
5.33539e-06
0.00529593
5.25765e-06
0.00529602
6.72009e-06
0.00529609
6.55841e-06
0.00529623
9.09896e-06
0.00529633
8.83723e-06
0.00529655
1.27279e-05
0.00529669
1.26779e-05
0.00529705
1.78239e-05
0.00529723
1.92591e-05
0.00529783
2.41884e-05
0.00529815
3.10075e-05
0.00529888
3.14127e-05
0.00530001
4.82817e-05
0.00530063
4.72957e-05
6.37844e-05
0.00526685
0.000140757
0.00526802
0.000135671
0.00526919
0.000130658
0.00527035
0.00012572
0.00527152
0.00012086
0.00527267
0.00011608
0.0052738
0.000111383
0.00527492
0.000106773
0.00527602
0.000102251
0.0052771
9.78209e-05
0.00527815
9.34848e-05
0.00527917
8.92451e-05
0.00528016
8.51037e-05
0.00528112
8.10625e-05
0.00528205
7.71233e-05
0.00528294
7.32875e-05
0.0052838
6.95565e-05
0.00528462
6.59312e-05
0.00528541
6.24127e-05
0.00528617
5.90017e-05
0.00528688
5.56988e-05
0.00528757
5.25044e-05
0.00528821
4.9419e-05
0.00528883
4.64425e-05
0.0052894
4.35751e-05
0.00528995
4.08165e-05
0.00529046
3.81666e-05
0.00529094
3.5625e-05
0.00529139
3.31909e-05
0.0052918
3.08639e-05
0.00529219
2.86429e-05
0.00529255
2.65272e-05
0.00529288
2.45157e-05
0.00529319
2.26071e-05
0.00529347
2.08004e-05
0.00529373
1.90941e-05
0.00529396
1.74869e-05
0.00529418
1.59774e-05
0.00529437
1.45643e-05
0.00529455
1.32463e-05
0.0052947
1.20219e-05
0.00529485
1.08904e-05
0.00529497
9.85023e-06
0.00529509
8.90178e-06
0.00529519
8.04202e-06
0.00529528
7.27555e-06
0.00529536
6.59332e-06
0.00529543
6.01336e-06
0.00529549
5.50591e-06
0.00529555
5.12933e-06
0.00529561
4.79e-06
0.00529566
4.65804e-06
0.00529571
4.46715e-06
0.00529577
4.66613e-06
0.00529582
4.57726e-06
0.00529589
5.2655e-06
0.00529595
5.19755e-06
0.00529605
6.6224e-06
0.00529613
6.48231e-06
0.00529627
8.95263e-06
0.00529637
8.73415e-06
0.0052966
1.25013e-05
0.00529674
1.25344e-05
0.00529711
1.7461e-05
0.00529731
1.90612e-05
0.00529789
2.3602e-05
0.00529825
3.06499e-05
0.00529897
3.06931e-05
0.0053001
4.71489e-05
0.00530078
4.66129e-05
6.19043e-05
0.00526537
0.000139506
0.00526663
0.000134415
0.00526788
0.000129403
0.00526913
0.00012447
0.00527037
0.00011962
0.0052716
0.000114855
0.0052728
0.000110176
0.00527399
0.000105587
0.00527515
0.00010109
0.00527629
9.66867e-05
0.00527739
9.23799e-05
0.00527846
8.81713e-05
0.0052795
8.40628e-05
0.00528051
8.00559e-05
0.00528148
7.61521e-05
0.00528242
7.23525e-05
0.00528332
6.86583e-05
0.00528418
6.50703e-05
0.005285
6.15894e-05
0.00528579
5.82161e-05
0.00528653
5.49508e-05
0.00528724
5.17938e-05
0.00528792
4.87454e-05
0.00528855
4.58055e-05
0.00528916
4.2974e-05
0.00528972
4.02508e-05
0.00529025
3.76354e-05
0.00529075
3.51273e-05
0.00529122
3.27259e-05
0.00529165
3.04304e-05
0.00529205
2.82401e-05
0.00529243
2.61538e-05
0.00529277
2.41704e-05
0.00529309
2.2289e-05
0.00529338
2.0508e-05
0.00529365
1.88263e-05
0.00529389
1.72424e-05
0.00529412
1.57549e-05
0.00529432
1.43625e-05
0.0052945
1.30638e-05
0.00529466
1.18575e-05
0.00529481
1.07428e-05
0.00529494
9.71796e-06
0.00529506
8.78355e-06
0.00529517
7.93651e-06
0.00529526
7.18132e-06
0.00529535
6.50915e-06
0.00529542
5.93757e-06
0.00529549
5.43762e-06
0.00529555
5.06608e-06
0.00529561
4.73196e-06
0.00529567
4.60063e-06
0.00529572
4.41354e-06
0.00529578
4.60638e-06
0.00529584
4.52202e-06
0.00529591
5.19266e-06
0.00529597
5.13394e-06
0.00529608
6.52155e-06
0.00529616
6.40188e-06
0.00529631
8.80278e-06
0.00529641
8.62523e-06
0.00529664
1.2271e-05
0.0052968
1.23817e-05
0.00529716
1.70967e-05
0.00529738
1.88448e-05
0.00529795
2.30254e-05
0.00529835
3.02559e-05
0.00529906
2.99827e-05
0.00530019
4.60222e-05
0.00530093
4.58676e-05
6.00434e-05
0.00526389
0.000138159
0.00526524
0.000133068
0.00526658
0.000128061
0.00526791
0.000123138
0.00526923
0.000118303
0.00527053
0.000113556
0.00527181
0.000108899
0.00527306
0.000104336
0.00527428
9.98663e-05
0.00527548
9.54936e-05
0.00527664
9.12193e-05
0.00527776
8.70451e-05
0.00527885
8.29725e-05
0.00527991
7.90027e-05
0.00528092
7.5137e-05
0.0052819
7.13762e-05
0.00528283
6.77214e-05
0.00528373
6.41731e-05
0.00528459
6.0732e-05
0.00528541
5.73985e-05
0.00528618
5.41728e-05
0.00528692
5.10552e-05
0.00528762
4.80456e-05
0.00528828
4.5144e-05
0.00528891
4.23501e-05
0.00528949
3.96637e-05
0.00529005
3.70842e-05
0.00529056
3.46111e-05
0.00529104
3.22437e-05
0.00529149
2.9981e-05
0.00529191
2.78224e-05
0.0052923
2.57666e-05
0.00529266
2.38125e-05
0.00529299
2.1959e-05
0.00529329
2.02048e-05
0.00529357
1.85485e-05
0.00529382
1.69886e-05
0.00529405
1.55238e-05
0.00529426
1.41528e-05
0.00529445
1.28741e-05
0.00529462
1.16865e-05
0.00529478
1.0589e-05
0.00529491
9.58009e-06
0.00529504
8.66017e-06
0.00529515
7.82626e-06
0.00529525
7.08271e-06
0.00529534
6.42093e-06
0.00529541
5.85803e-06
0.00529549
5.36581e-06
0.00529555
4.99953e-06
0.00529561
4.67077e-06
0.00529567
4.54021e-06
0.00529573
4.35694e-06
0.00529579
4.54375e-06
0.00529585
4.46369e-06
0.00529593
5.11689e-06
0.005296
5.06685e-06
0.0052961
6.41757e-06
0.00529618
6.31716e-06
0.00529634
8.64949e-06
0.00529645
8.51053e-06
0.00529669
1.20372e-05
0.00529685
1.222e-05
0.00529721
1.6731e-05
0.00529745
1.86101e-05
0.00529801
2.24581e-05
0.00529844
2.98271e-05
0.00529915
2.9281e-05
0.00530027
4.49013e-05
0.00530107
4.50647e-05
5.82043e-05
0.00526241
0.000136714
0.00526385
0.000131628
0.00526528
0.000126631
0.0052667
0.000121723
0.00526809
0.000116907
0.00526947
0.000112183
0.00527081
0.000107552
0.00527213
0.000103018
0.00527342
9.85802e-05
0.00527467
9.42415e-05
0.00527589
9.00032e-05
0.00527706
8.58666e-05
0.0052782
8.18329e-05
0.0052793
7.79032e-05
0.00528036
7.40783e-05
0.00528138
7.0359e-05
0.00528235
6.6746e-05
0.00528329
6.32398e-05
0.00528418
5.98408e-05
0.00528503
5.65492e-05
0.00528584
5.33651e-05
0.0052866
5.02887e-05
0.00528733
4.73198e-05
0.00528801
4.44582e-05
0.00528866
4.17036e-05
0.00528927
3.90555e-05
0.00528984
3.65134e-05
0.00529037
3.40766e-05
0.00529087
3.17444e-05
0.00529134
2.95158e-05
0.00529177
2.739e-05
0.00529217
2.53658e-05
0.00529254
2.3442e-05
0.00529288
2.16175e-05
0.0052932
1.98908e-05
0.00529349
1.82607e-05
0.00529375
1.67257e-05
0.00529399
1.52843e-05
0.00529421
1.39353e-05
0.0052944
1.26773e-05
0.00529458
1.15089e-05
0.00529474
1.04292e-05
0.00529488
9.43668e-06
0.00529501
8.53168e-06
0.00529513
7.71131e-06
0.00529523
6.97978e-06
0.00529532
6.32871e-06
0.0052954
5.77478e-06
0.00529548
5.29052e-06
0.00529555
4.92971e-06
0.00529561
4.60644e-06
0.00529568
4.47681e-06
0.00529574
4.29735e-06
0.0052958
4.47826e-06
0.00529586
4.40231e-06
0.00529594
5.03822e-06
0.00529601
4.99632e-06
0.00529612
6.31051e-06
0.00529621
6.2282e-06
0.00529637
8.4928e-06
0.00529649
8.39011e-06
0.00529672
1.18e-05
0.00529689
1.20494e-05
0.00529726
1.63642e-05
0.00529751
1.83577e-05
0.00529807
2.18997e-05
0.00529853
2.93657e-05
0.00529923
2.85869e-05
0.00530034
4.37859e-05
0.0053012
4.42094e-05
5.63892e-05
0.00526094
0.000135172
0.00526247
0.000130095
0.00526399
0.000125113
0.00526549
0.000120225
0.00526696
0.000115432
0.00526841
0.000110735
0.00526983
0.000106135
0.00527121
0.000101634
0.00527256
9.72318e-05
0.00527387
9.29307e-05
0.00527514
8.87318e-05
0.00527637
8.46361e-05
0.00527756
8.06444e-05
0.00527871
7.67575e-05
0.00527981
7.29763e-05
0.00528087
6.93011e-05
0.00528188
6.57324e-05
0.00528285
6.22707e-05
0.00528377
5.89159e-05
0.00528465
5.56684e-05
0.00528549
5.25281e-05
0.00528628
4.94948e-05
0.00528704
4.65683e-05
0.00528775
4.37484e-05
0.00528841
4.10346e-05
0.00528904
3.84264e-05
0.00528963
3.59231e-05
0.00529019
3.35241e-05
0.0052907
3.12283e-05
0.00529118
2.9035e-05
0.00529163
2.69432e-05
0.00529204
2.49516e-05
0.00529243
2.30591e-05
0.00529278
2.12644e-05
0.00529311
1.95662e-05
0.0052934
1.79631e-05
0.00529367
1.64537e-05
0.00529392
1.50365e-05
0.00529415
1.37102e-05
0.00529435
1.24734e-05
0.00529454
1.13248e-05
0.0052947
1.02634e-05
0.00529485
9.2878e-06
0.00529498
8.39817e-06
0.0052951
7.59172e-06
0.00529521
6.87256e-06
0.00529531
6.23253e-06
0.00529539
5.68785e-06
0.00529547
5.21179e-06
0.00529555
4.85667e-06
0.00529561
4.53902e-06
0.00529568
4.41047e-06
0.00529574
4.23483e-06
0.00529581
4.40995e-06
0.00529587
4.33791e-06
0.00529596
4.9567e-06
0.00529603
4.92239e-06
0.00529614
6.20041e-06
0.00529623
6.13505e-06
0.00529639
8.33279e-06
0.00529652
8.26404e-06
0.00529676
1.15594e-05
0.00529694
1.18701e-05
0.00529731
1.59962e-05
0.00529758
1.80882e-05
0.00529813
2.13494e-05
0.00529862
2.88736e-05
0.00529931
2.78996e-05
0.00530042
4.26758e-05
0.00530132
4.33068e-05
5.46002e-05
0.00525947
0.00013353
0.0052611
0.000128469
0.0052627
0.000123507
0.00526428
0.000118644
0.00526584
0.000113879
0.00526736
0.000109214
0.00526885
0.000104648
0.0052703
0.000100184
0.00527171
9.58212e-05
0.00527308
9.15614e-05
0.0052744
8.74053e-05
0.00527568
8.33536e-05
0.00527692
7.94071e-05
0.00527811
7.55661e-05
0.00527926
7.18313e-05
0.00528036
6.82028e-05
0.00528141
6.4681e-05
0.00528241
6.1266e-05
0.00528337
5.79579e-05
0.00528428
5.47566e-05
0.00528515
5.16619e-05
0.00528597
4.86736e-05
0.00528675
4.57915e-05
0.00528748
4.30149e-05
0.00528817
4.03436e-05
0.00528882
3.77767e-05
0.00528943
3.53137e-05
0.00529
3.29536e-05
0.00529053
3.06957e-05
0.00529103
2.85388e-05
0.00529149
2.6482e-05
0.00529192
2.45241e-05
0.00529231
2.26639e-05
0.00529268
2.09e-05
0.00529301
1.92312e-05
0.00529332
1.76559e-05
0.0052936
1.61729e-05
0.00529386
1.47805e-05
0.00529409
1.34776e-05
0.0052943
1.22626e-05
0.00529449
1.11343e-05
0.00529466
1.00918e-05
0.00529482
9.13351e-06
0.00529495
8.25968e-06
0.00529508
7.46755e-06
0.00529519
6.76113e-06
0.00529529
6.13245e-06
0.00529538
5.59729e-06
0.00529546
5.12967e-06
0.00529554
4.78043e-06
0.00529561
4.46854e-06
0.00529568
4.34122e-06
0.00529574
4.16941e-06
0.00529582
4.33886e-06
0.00529588
4.27053e-06
0.00529597
4.87236e-06
0.00529604
4.84512e-06
0.00529616
6.08732e-06
0.00529625
6.03778e-06
0.00529642
8.16953e-06
0.00529655
8.13241e-06
0.00529679
1.13157e-05
0.00529698
1.16821e-05
0.00529735
1.56272e-05
0.00529764
1.78021e-05
0.00529818
2.08066e-05
0.0052987
2.83531e-05
0.00529938
2.72182e-05
0.00530049
4.15706e-05
0.00530143
4.23622e-05
5.28387e-05
0.00525801
0.000131789
0.00525973
0.000126749
0.00526142
0.000121813
0.00526309
0.000116979
0.00526472
0.000112247
0.00526632
0.000107618
0.00526787
0.000103091
0.00526939
9.86682e-05
0.00527086
9.43488e-05
0.00527229
9.01339e-05
0.00527367
8.6024e-05
0.005275
8.20197e-05
0.00527629
7.81214e-05
0.00527753
7.43293e-05
0.00527871
7.06436e-05
0.00527985
6.70646e-05
0.00528094
6.35921e-05
0.00528198
6.02263e-05
0.00528297
5.6967e-05
0.00528391
5.38139e-05
0.00528481
5.07669e-05
0.00528566
4.78256e-05
0.00528646
4.49895e-05
0.00528722
4.2258e-05
0.00528793
3.96307e-05
0.0052886
3.71067e-05
0.00528923
3.46853e-05
0.00528982
3.23656e-05
0.00529036
3.01467e-05
0.00529088
2.80274e-05
0.00529135
2.60068e-05
0.00529179
2.40836e-05
0.0052922
2.22566e-05
0.00529257
2.05245e-05
0.00529292
1.88858e-05
0.00529324
1.73392e-05
0.00529353