/*--------------------------------*- C++ -*----------------------------------*\
| =========                 |                                                 |
| \\      /  F ield         | OpenFOAM: The Open Source CFD Toolbox           |
|  \\    /   O peration     | Version:  2412                                  |
|   \\  /    A nd           | Website:  www.openfoam.com                      |
|    \\/     M anipulation  |                                                 |
\*---------------------------------------------------------------------------*/
FoamFile
{
    version     2.0;
    format      ascii;
    arch        "LSB;label=32;scalar=64";
    class       volScalarField;
    location    "13.5";
    object      p;
}
// * * * * * * * * * * * * * * * * * * * * * * * * * * * * * * * * * * * * * //

dimensions      [0 2 -2 0 0 0 0];

internalField   nonuniform List<scalar> 
63420
(
0.000977904
0.000978161
0.00097898
0.000980246
0.000981941
0.000984052
0.000986564
0.000989461
0.000992727
0.000996348
0.00100031
0.00100462
0.00100925
0.00101422
0.00101952
0.00102514
0.00103109
0.00103737
0.00104398
0.00105091
0.00105816
0.00106575
0.00107365
0.00108189
0.00109046
0.00109936
0.00110859
0.00111816
0.00112807
0.00113832
0.00114891
0.00115985
0.00117115
0.00118279
0.0011948
0.00120717
0.0012199
0.001233
0.00124648
0.00126033
0.00127457
0.0012892
0.00130421
0.00131962
0.00133544
0.00135165
0.00136828
0.00138532
0.00140278
0.00142067
0.00143898
0.00145773
0.00147692
0.00149655
0.00151663
0.000977845
0.000978101
0.00097892
0.000980185
0.000981878
0.000983988
0.000986498
0.000989393
0.000992656
0.000996275
0.00100024
0.00100454
0.00100917
0.00101413
0.00101943
0.00102505
0.00103099
0.00103727
0.00104387
0.00105079
0.00105804
0.00106561
0.00107352
0.00108175
0.0010903
0.00109919
0.00110842
0.00111798
0.00112787
0.00113811
0.00114869
0.00115962
0.0011709
0.00118253
0.00119452
0.00120687
0.00121958
0.00123267
0.00124612
0.00125996
0.00127417
0.00128877
0.00130376
0.00131915
0.00133493
0.00135112
0.00136771
0.00138472
0.00140214
0.00141999
0.00143826
0.00145696
0.0014761
0.00149569
0.00151572
0.000977726
0.000977982
0.000978799
0.000980063
0.000981754
0.000983861
0.000986367
0.000989257
0.000992515
0.000996129
0.00100009
0.00100438
0.001009
0.00101396
0.00101924
0.00102486
0.00103079
0.00103705
0.00104364
0.00105055
0.00105779
0.00106535
0.00107324
0.00108145
0.00108999
0.00109886
0.00110807
0.00111761
0.00112748
0.00113769
0.00114825
0.00115915
0.0011704
0.001182
0.00119396
0.00120628
0.00121895
0.001232
0.00124542
0.00125921
0.00127337
0.00128793
0.00130286
0.00131819
0.00133392
0.00135004
0.00136657
0.00138351
0.00140086
0.00141863
0.00143682
0.00145544
0.00147448
0.00149397
0.00151389
0.000977548
0.000977803
0.000978619
0.000979879
0.000981567
0.000983669
0.00098617
0.000989053
0.000992304
0.00099591
0.000999857
0.00100414
0.00100876
0.0010137
0.00101897
0.00102457
0.00103049
0.00103674
0.00104331
0.0010502
0.00105742
0.00106496
0.00107282
0.00108101
0.00108953
0.00109837
0.00110754
0.00111705
0.00112689
0.00113707
0.00114759
0.00115845
0.00116966
0.00118121
0.00119312
0.00120539
0.00121801
0.001231
0.00124435
0.00125808
0.00127218
0.00128666
0.00130152
0.00131677
0.00133241
0.00134844
0.00136487
0.00138171
0.00139895
0.0014166
0.00143467
0.00145315
0.00147206
0.0014914
0.00151117
0.00097731
0.000977565
0.000978378
0.000979635
0.000981318
0.000983414
0.000985907
0.000988782
0.000992023
0.000995618
0.000999554
0.00100382
0.00100843
0.00101335
0.00101861
0.00102419
0.00103009
0.00103632
0.00104286
0.00104973
0.00105692
0.00106443
0.00107227
0.00108042
0.0010889
0.00109771
0.00110685
0.00111631
0.00112611
0.00113624
0.00114671
0.00115751
0.00116866
0.00118016
0.00119201
0.0012042
0.00121676
0.00122967
0.00124294
0.00125658
0.00127059
0.00128498
0.00129974
0.00131488
0.0013304
0.00134631
0.00136261
0.00137931
0.00139641
0.00141391
0.00143181
0.00145013
0.00146885
0.00148799
0.00150755
0.000977014
0.000977268
0.000978078
0.000979331
0.000981007
0.000983096
0.00098558
0.000988444
0.000991673
0.000995253
0.000999175
0.00100343
0.00100801
0.00101292
0.00101816
0.00102371
0.00102959
0.00103579
0.00104231
0.00104914
0.0010563
0.00106378
0.00107157
0.00107969
0.00108813
0.00109689
0.00110597
0.00111539
0.00112513
0.0011352
0.00114561
0.00115635
0.00116743
0.00117885
0.00119062
0.00120273
0.0012152
0.00122801
0.00124119
0.00125472
0.00126862
0.00128288
0.00129751
0.00131252
0.0013279
0.00134366
0.00135981
0.00137633
0.00139325
0.00141056
0.00142827
0.00144637
0.00146487
0.00148377
0.00150307
0.000976658
0.000976912
0.000977718
0.000978965
0.000980635
0.000982714
0.000985187
0.000988038
0.000991253
0.000994817
0.000998721
0.00100296
0.00100752
0.00101241
0.00101761
0.00102314
0.00102899
0.00103516
0.00104164
0.00104844
0.00105556
0.00106299
0.00107074
0.00107881
0.0010872
0.00109591
0.00110493
0.00111428
0.00112396
0.00113396
0.00114429
0.00115496
0.00116595
0.00117729
0.00118896
0.00120097
0.00121333
0.00122603
0.00123909
0.00125249
0.00126626
0.00128038
0.00129486
0.00130971
0.00132492
0.0013405
0.00135646
0.00137278
0.00138949
0.00140657
0.00142404
0.00144189
0.00146012
0.00147874
0.00149773
0.00153723
0.00155855
0.00158079
0.00160403
0.00162829
0.00165364
0.00168015
0.0017079
0.00173697
0.00176743
0.00179938
0.00183291
0.00186815
0.0019052
0.00194419
0.00198525
0.00202855
0.00207425
0.00212252
0.00217357
0.00222762
0.00228492
0.00234571
0.00241032
0.00247905
0.00255228
0.0026304
0.00271386
0.00280315
0.00289881
0.00300146
0.00311174
0.00323039
0.00335819
0.00349601
0.00364474
0.00380532
0.00397865
0.00416554
0.00436654
0.00458174
0.00481046
0.00505086
0.00529968
0.00555247
0.00580444
0.00605089
0.00629764
0.00661291
0.00709157
0.00153629
0.00155761
0.00157988
0.00160309
0.00162734
0.00165269
0.0016792
0.00170694
0.001736
0.00176646
0.0017984
0.00183193
0.00186715
0.00190419
0.00194316
0.00198421
0.00202748
0.00207315
0.00212138
0.00217239
0.00222638
0.0022836
0.00234432
0.00240881
0.00247742
0.00255048
0.00262841
0.00271162
0.0028006
0.00289587
0.00299802
0.00310768
0.00322554
0.00335233
0.00348885
0.0036359
0.00379431
0.00396483
0.00414804
0.00434421
0.00455308
0.00477349
0.00500299
0.00523755
0.00547178
0.00569992
0.0059167
0.00612707
0.0063949
0.00680813
0.00153441
0.00155575
0.00157798
0.00160119
0.00162544
0.00165078
0.00167729
0.00170502
0.00173407
0.00176451
0.00179644
0.00182996
0.00186516
0.00190217
0.00194111
0.00198211
0.00202534
0.00207094
0.00211911
0.00217002
0.0022239
0.00228099
0.00234153
0.00240583
0.00247417
0.00254693
0.00262445
0.00270718
0.00279555
0.00289005
0.00299124
0.00309967
0.00321596
0.00334076
0.00347472
0.00361848
0.0037726
0.00393753
0.00411343
0.00430001
0.00449624
0.00469999
0.00490755
0.00511337
0.00531014
0.0054901
0.00564705
0.00578443
0.00595319
0.00624846
0.0015316
0.00155292
0.00157515
0.00159835
0.00162259
0.00164792
0.00167441
0.00170213
0.00173116
0.00176158
0.00179349
0.00182697
0.00186214
0.0018991
0.00193799
0.00197893
0.00202208
0.00206759
0.00211563
0.0021664
0.00222011
0.00227698
0.00233726
0.00240123
0.00246919
0.00254145
0.00261837
0.00270034
0.00278777
0.0028811
0.00298081
0.00308737
0.00320129
0.00332307
0.00345317
0.00359195
0.00373964
0.0038962
0.00406118
0.00423344
0.00441082
0.00458973
0.00476459
0.0049275
0.00506836
0.00517628
0.00524356
0.005275
0.00530585
0.00539304
0.00152787
0.00154918
0.0015714
0.00159459
0.00161882
0.00164414
0.00167062
0.00169832
0.00172734
0.00175774
0.00178962
0.00182308
0.00185821
0.00189512
0.00193395
0.00197482
0.00201787
0.00206326
0.00211116
0.00216176
0.00221525
0.00227185
0.0023318
0.00239536
0.0024628
0.00253443
0.00261056
0.00269154
0.00277773
0.0028695
0.00296723
0.00307129
0.00318203
0.00329975
0.00342462
0.00355667
0.00369564
0.00384086
0.00399102
0.00414384
0.00429571
0.00444109
0.00457196
0.00467744
0.00474387
0.00475625
0.00470394
0.00459489
0.00445332
0.00421936
0.00152323
0.00154454
0.00156677
0.00158997
0.00161421
0.00163955
0.00166605
0.00169379
0.00172283
0.00175326
0.00178518
0.00181866
0.00185382
0.00189076
0.00192961
0.00197049
0.00201355
0.00205894
0.00210682
0.00215738
0.0022108
0.00226731
0.00232712
0.00239048
0.00245766
0.00252891
0.00260454
0.00268485
0.00277013
0.00286069
0.00295681
0.00305872
0.00316661
0.00328051
0.00340026
0.00352541
0.00365503
0.0037875
0.00392019
0.00404902
0.00416792
0.00426816
0.00433771
0.0043609
0.00431867
0.00419052
0.00396102
0.003639
0.00324079
0.002573
0.00151768
0.00153892
0.00156109
0.00158424
0.00160843
0.00163372
0.00166017
0.00168785
0.00171685
0.00174723
0.00177909
0.00181251
0.00184761
0.00188449
0.00192327
0.00196407
0.00200704
0.00205232
0.00210008
0.0021505
0.00220376
0.00226006
0.00231964
0.0023827
0.00244951
0.00252031
0.00259535
0.00267491
0.00275923
0.00284853
0.00294301
0.00304279
0.00314784
0.00325797
0.00337266
0.00349096
0.00361117
0.00373056
0.00384487
0.00394765
0.00402948
0.00407709
0.00407266
0.00399371
0.00381398
0.00350505
0.00304763
0.00245545
0.00169381
0.000461774
-0.00340152
-0.00346086
-0.0034566
-0.00340296
-0.00331235
-0.0031905
-0.00303999
-0.00286523
-0.00267126
-0.00246331
-0.00224641
-0.00202562
-0.00180564
-0.00159063
-0.00138414
-0.00118903
-0.00100747
-0.000840948
-0.000690318
-0.000555889
-0.000437494
-0.000334586
-0.000246322
-0.000171652
-0.000109386
-5.82679e-05
-1.70242e-05
1.55944e-05
4.07805e-05
5.96446e-05
7.32016e-05
8.2363e-05
8.79347e-05
9.06189e-05
9.1019e-05
8.96468e-05
8.69311e-05
8.32266e-05
7.8823e-05
7.39543e-05
6.88066e-05
6.35258e-05
5.82246e-05
5.29884e-05
4.78804e-05
4.29458e-05
3.82159e-05
3.37109e-05
2.94419e-05
2.54145e-05
-0.00349926
-0.00353269
-0.00351288
-0.00345014
-0.00335327
-0.00322887
-0.00307678
-0.00290085
-0.00270618
-0.00249779
-0.00228036
-0.00205886
-0.00183797
-0.00162182
-0.00141398
-0.00121736
-0.00103415
-0.000865887
-0.000713475
-0.000577257
-0.0004571
-0.000352484
-0.000262588
-0.000186377
-0.00012267
-7.02165e-05
-2.77448e-05
5.99637e-06
3.22033e-05
5.19911e-05
6.63805e-05
7.62897e-05
8.25312e-05
8.58138e-05
8.67476e-05
8.58504e-05
8.35569e-05
8.02272e-05
7.61562e-05
7.15821e-05
6.66953e-05
6.16455e-05
5.65488e-05
5.14935e-05
4.65457e-05
4.1753e-05
3.7149e-05
3.27557e-05
2.85859e-05
2.46477e-05
-0.0036955
-0.00367275
-0.00362326
-0.00354257
-0.0034332
-0.00330313
-0.00314769
-0.00296863
-0.00277335
-0.00256412
-0.00234573
-0.00212301
-0.00190048
-0.00168226
-0.00147195
-0.00127249
-0.00108617
-0.00091461
-0.000758788
-0.000619131
-0.000495571
-0.000387646
-0.000294578
-0.00021536
-0.000148838
-9.37704e-05
-4.88897e-05
-1.29431e-05
1.52715e-05
3.68781e-05
5.29082e-05
6.42923e-05
7.18556e-05
7.632e-05
7.83079e-05
7.83494e-05
7.68903e-05
7.43016e-05
7.08876e-05
6.68958e-05
6.25246e-05
5.79312e-05
5.32382e-05
4.85402e-05
4.39086e-05
3.93958e-05
3.50399e-05
3.08668e-05
2.68925e-05
2.31301e-05
-0.00399571
-0.00387188
-0.00378524
-0.00367848
-0.00355672
-0.00340754
-0.00324689
-0.00306614
-0.00286868
-0.00265807
-0.00243843
-0.00221411
-0.00198942
-0.00176843
-0.00155474
-0.00135139
-0.00116075
-0.000984559
-0.000823936
-0.000679412
-0.000551022
-0.000438381
-0.00034078
-0.000257261
-0.000186697
-0.000127871
-7.95227e-05
-4.03972e-05
-9.28529e-06
1.49485e-05
3.33506e-05
4.68683e-05
5.63451e-05
6.25208e-05
6.60358e-05
6.74376e-05
6.71882e-05
6.56737e-05
6.32126e-05
6.00653e-05
5.64418e-05
5.25102e-05
4.84028e-05
4.42229e-05
4.00497e-05
3.59428e-05
3.19465e-05
2.80923e-05
2.44015e-05
2.08944e-05
-0.00436742
-0.00413166
-0.00399097
-0.00384461
-0.00370058
-0.00354109
-0.00336977
-0.00318363
-0.00298333
-0.00277109
-0.00255012
-0.0023242
-0.00209736
-0.00187352
-0.00165624
-0.00144861
-0.00125314
-0.00107167
-0.000905482
-0.000755232
-0.000621084
-0.000502765
-0.00039965
-0.000310847
-0.000235286
-0.000171775
-0.000119074
-7.59348e-05
-4.11441e-05
-1.35575e-05
7.88574e-06
2.41508e-05
3.61006e-05
4.44958e-05
4.99974e-05
5.3173e-05
5.45043e-05
5.43957e-05
5.3183e-05
5.11427e-05
4.84999e-05
4.54361e-05
4.20963e-05
3.85951e-05
3.50219e-05
3.14457e-05
2.79189e-05
2.44803e-05
2.11585e-05
1.79828e-05
-0.00475895
-0.0044473
-0.00423497
-0.00404016
-0.00386164
-0.00368174
-0.00349706
-0.00330353
-0.00309985
-0.00288662
-0.00266582
-0.00244035
-0.00221362
-0.00198914
-0.0017703
-0.00156013
-0.00136115
-0.00117536
-0.00100415
-0.000848376
-0.000708357
-0.000583981
-0.00047476
-0.00037992
-0.000298478
-0.000229325
-0.000171272
-0.000123102
-8.36227e-05
-5.16989e-05
-2.62687e-05
-6.35964e-06
8.90414e-06
2.02992e-05
2.8505e-05
3.41089e-05
3.7613e-05
3.94421e-05
3.99526e-05
3.94403e-05
3.81493e-05
3.62789e-05
3.39909e-05
3.14154e-05
2.86562e-05
2.57954e-05
2.28971e-05
2.00108e-05
1.71751e-05
1.44276e-05
-0.00512961
-0.0048165
-0.0045509
-0.0043077
-0.00407807
-0.00386766
-0.00366316
-0.00345722
-0.00324655
-0.00302984
-0.00280751
-0.00258128
-0.0023537
-0.00212774
-0.00190648
-0.00169283
-0.00148934
-0.00129811
-0.0011207
-0.000958142
-0.000810966
-0.000679239
-0.00056263
-0.000460506
-0.000371996
-0.000296079
-0.000231628
-0.000177467
-0.000132425
-9.53737e-05
-6.52486e-05
-4.10662e-05
-2.19339e-05
-7.05356e-06
4.27835e-06
1.26749e-05
1.86647e-05
2.26989e-05
2.51595e-05
2.63674e-05
2.659e-05
2.60489e-05
2.49265e-05
2.33717e-05
2.15057e-05
1.9426e-05
1.72108e-05
1.49218e-05
1.26082e-05
1.03116e-05
2.16204e-05
1.80027e-05
1.45528e-05
1.12825e-05
8.19293e-06
5.28385e-06
2.55452e-06
2.90885e-09
-2.37422e-06
-4.58091e-06
-6.62185e-06
-8.50225e-06
-1.02276e-05
-1.18039e-05
-1.32368e-05
-1.45324e-05
-1.56964e-05
-1.67345e-05
-1.76519e-05
-1.84537e-05
-1.91448e-05
-1.97297e-05
-2.02129e-05
-2.05993e-05
-2.08935e-05
-2.11006e-05
-2.12256e-05
-2.12741e-05
-2.12515e-05
-2.11633e-05
-2.1015e-05
-2.08118e-05
-2.05588e-05
-2.02609e-05
-1.99226e-05
-1.95481e-05
-1.91416e-05
-1.87068e-05
-1.82473e-05
-1.77663e-05
-1.7267e-05
-1.67525e-05
-1.62256e-05
-1.56885e-05
-1.51445e-05
-1.45955e-05
-1.40432e-05
-1.34904e-05
-1.29386e-05
-1.23898e-05
-1.18455e-05
-1.13071e-05
-1.07762e-05
-1.02538e-05
-9.74127e-06
-9.23945e-06
-8.74931e-06
-8.27165e-06
-7.80717e-06
-7.35647e-06
-6.92005e-06
-6.49833e-06
-6.09163e-06
-5.7002e-06
-5.32419e-06
-4.96373e-06
-4.61884e-06
-4.28948e-06
-3.97555e-06
-3.67692e-06
-3.39339e-06
-3.12467e-06
-2.87048e-06
-2.63052e-06
-2.40445e-06
-2.19188e-06
-1.99237e-06
-1.80549e-06
-1.63081e-06
-1.46786e-06
-1.31613e-06
-1.17513e-06
-1.04432e-06
-9.23273e-07
-8.11372e-07
-7.08355e-07
-6.13182e-07
-5.26622e-07
-4.45504e-07
-3.74985e-07
-3.03039e-07
-2.52196e-07
-1.77403e-07
-1.62277e-07
-5.26417e-08
-1.20702e-07
1.01958e-07
-1.60776e-07
3.34356e-07
-3.27703e-07
6.88645e-07
-6.35649e-07
1.1377e-06
-9.79796e-07
1.49152e-06
-1.07269e-06
1.40395e-06
-5.651e-07
6.29382e-07
5.79877e-07
-5.66364e-07
1.76645e-06
-1.33172e-06
2.03922e-06
-8.39134e-07
2.09456e-05
1.73876e-05
1.39904e-05
1.07714e-05
7.72932e-06
4.86347e-06
2.17352e-06
-3.42178e-07
-2.6866e-06
-4.86353e-06
-6.87739e-06
-8.73311e-06
-1.0436e-05
-1.19917e-05
-1.3406e-05
-1.46844e-05
-1.58328e-05
-1.68566e-05
-1.7761e-05
-1.85509e-05
-1.92311e-05
-1.98061e-05
-2.02805e-05
-2.06588e-05
-2.09458e-05
-2.11464e-05
-2.12658e-05
-2.13092e-05
-2.12821e-05
-2.11899e-05
-2.10381e-05
-2.08317e-05
-2.0576e-05
-2.02756e-05
-1.99351e-05
-1.95587e-05
-1.91504e-05
-1.87141e-05
-1.82531e-05
-1.77709e-05
-1.72706e-05
-1.67551e-05
-1.62274e-05
-1.56896e-05
-1.5145e-05
-1.45954e-05
-1.40428e-05
-1.34895e-05
-1.29375e-05
-1.23884e-05
-1.18438e-05
-1.13053e-05
-1.07742e-05
-1.02518e-05
-9.73918e-06
-9.23733e-06
-8.74718e-06
-8.26953e-06
-7.80507e-06
-7.3544e-06
-6.91803e-06
-6.49637e-06
-6.08974e-06
-5.69838e-06
-5.32245e-06
-4.96207e-06
-4.61726e-06
-4.28798e-06
-3.97413e-06
-3.67559e-06
-3.39213e-06
-3.12349e-06
-2.86938e-06
-2.6295e-06
-2.40351e-06
-2.191e-06
-1.99155e-06
-1.80474e-06
-1.63012e-06
-1.46723e-06
-1.31555e-06
-1.1746e-06
-1.04384e-06
-9.22836e-07
-8.10977e-07
-7.07999e-07
-6.12863e-07
-5.26335e-07
-4.45249e-07
-3.74755e-07
-3.02837e-07
-2.52009e-07
-1.77251e-07
-1.62119e-07
-5.25414e-08
-1.20558e-07
1.01997e-07
-1.60629e-07
3.34329e-07
-3.27541e-07
6.88567e-07
-6.35496e-07
1.13762e-06
-9.79705e-07
1.49152e-06
-1.07273e-06
1.40408e-06
-5.65261e-07
6.2959e-07
5.79688e-07
-5.66176e-07
1.76632e-06
-1.33158e-06
2.03906e-06
-8.39612e-07
1.96042e-05
1.61647e-05
1.2873e-05
9.75603e-06
6.80821e-06
4.02807e-06
1.41626e-06
-1.02821e-06
-3.30776e-06
-5.42561e-06
-7.38567e-06
-9.19239e-06
-1.08506e-05
-1.23656e-05
-1.37426e-05
-1.49871e-05
-1.61044e-05
-1.70998e-05
-1.79781e-05
-1.87443e-05
-1.94029e-05
-1.99583e-05
-2.0415e-05
-2.07774e-05
-2.10501e-05
-2.12379e-05
-2.13459e-05
-2.13792e-05
-2.13432e-05
-2.12431e-05
-2.10842e-05
-2.08716e-05
-2.06103e-05
-2.03049e-05
-1.996e-05
-1.95797e-05
-1.91679e-05
-1.87285e-05
-1.82648e-05
-1.77802e-05
-1.72777e-05
-1.67603e-05
-1.6231e-05
-1.56917e-05
-1.51459e-05
-1.45953e-05
-1.40418e-05
-1.34877e-05
-1.29351e-05
-1.23855e-05
-1.18405e-05
-1.13017e-05
-1.07704e-05
-1.02478e-05
-9.735e-06
-9.23308e-06
-8.74291e-06
-8.26528e-06
-7.80087e-06
-7.35028e-06
-6.914e-06
-6.49246e-06
-6.08596e-06
-5.69474e-06
-5.31896e-06
-4.95874e-06
-4.6141e-06
-4.28498e-06
-3.9713e-06
-3.67292e-06
-3.38962e-06
-3.12114e-06
-2.86719e-06
-2.62746e-06
-2.40161e-06
-2.18924e-06
-1.98993e-06
-1.80325e-06
-1.62875e-06
-1.46597e-06
-1.3144e-06
-1.17354e-06
-1.04288e-06
-9.21964e-07
-8.10188e-07
-7.0729e-07
-6.12229e-07
-5.25766e-07
-4.44742e-07
-3.74295e-07
-3.02436e-07
-2.51635e-07
-1.76949e-07
-1.61806e-07
-5.23397e-08
-1.20269e-07
1.02078e-07
-1.60334e-07
3.34275e-07
-3.2722e-07
6.88409e-07
-6.35185e-07
1.13746e-06
-9.79528e-07
1.49152e-06
-1.07282e-06
1.40433e-06
-5.65592e-07
6.30006e-07
5.79311e-07
-5.65802e-07
1.76609e-06
-1.3313e-06
2.03873e-06
-8.40538e-07
1.76132e-05
1.43492e-05
1.12157e-05
8.25002e-06
5.44148e-06
2.78811e-06
2.91903e-07
-2.04714e-06
-4.23061e-06
-6.26096e-06
-8.14129e-06
-9.87535e-06
-1.14673e-05
-1.29218e-05
-1.42436e-05
-1.54376e-05
-1.65087e-05
-1.74618e-05
-1.83016e-05
-1.90325e-05
-1.9659e-05
-2.01853e-05
-2.06156e-05
-2.09543e-05
-2.12056e-05
-2.13744e-05
-2.14655e-05
-2.14838e-05
-2.14344e-05
-2.13224e-05
-2.1153e-05
-2.09311e-05
-2.06615e-05
-2.03487e-05
-1.99972e-05
-1.9611e-05
-1.91941e-05
-1.875e-05
-1.82822e-05
-1.77939e-05
-1.72883e-05
-1.67681e-05
-1.62363e-05
-1.56949e-05
-1.51473e-05
-1.45951e-05
-1.40402e-05
-1.34851e-05
-1.29315e-05
-1.23811e-05
-1.18356e-05
-1.12963e-05
-1.07646e-05
-1.02417e-05
-9.72873e-06
-9.22672e-06
-8.73651e-06
-8.2589e-06
-7.79457e-06
-7.34409e-06
-6.90796e-06
-6.48659e-06
-6.08029e-06
-5.68928e-06
-5.31374e-06
-4.95376e-06
-4.60936e-06
-4.28049e-06
-3.96706e-06
-3.66892e-06
-3.38586e-06
-3.11762e-06
-2.8639e-06
-2.62441e-06
-2.39877e-06
-2.18661e-06
-1.9875e-06
-1.80101e-06
-1.62669e-06
-1.46408e-06
-1.31267e-06
-1.17196e-06
-1.04144e-06
-9.20659e-07
-8.09008e-07
-7.06226e-07
-6.11276e-07
-5.2491e-07
-4.4398e-07
-3.73606e-07
-3.01835e-07
-2.51077e-07
-1.76498e-07
-1.61338e-07
-5.204e-08
-1.19841e-07
1.022e-07
-1.59895e-07
3.34201e-07
-3.26743e-07
6.88186e-07
-6.34732e-07
1.13725e-06
-9.79282e-07
1.49154e-06
-1.07297e-06
1.40473e-06
-5.66106e-07
6.30634e-07
5.78744e-07
-5.65253e-07
1.76574e-06
-1.33089e-06
2.03824e-06
-8.41848e-07
1.49983e-05
1.19638e-05
9.04044e-06
6.27307e-06
3.64647e-06
1.15884e-06
-1.18616e-06
-3.38724e-06
-5.44491e-06
-7.36057e-06
-9.13635e-06
-1.0775e-05
-1.228e-05
-1.3655e-05
-1.49041e-05
-1.60316e-05
-1.7042e-05
-1.79395e-05
-1.87285e-05
-1.94131e-05
-1.99974e-05
-2.04853e-05
-2.08809e-05
-2.11883e-05
-2.14116e-05
-2.15553e-05
-2.1624e-05
-2.16223e-05
-2.15553e-05
-2.14276e-05
-2.12443e-05
-2.101e-05
-2.07294e-05
-2.04068e-05
-2.00465e-05
-1.96526e-05
-1.92287e-05
-1.87785e-05
-1.83052e-05
-1.78121e-05
-1.73023e-05
-1.67784e-05
-1.62433e-05
-1.56991e-05
-1.51491e-05
-1.45948e-05
-1.40382e-05
-1.34815e-05
-1.29267e-05
-1.23753e-05
-1.18289e-05
-1.1289e-05
-1.07568e-05
-1.02335e-05
-9.72037e-06
-9.21822e-06
-8.72798e-06
-8.2504e-06
-7.78616e-06
-7.33584e-06
-6.89991e-06
-6.47877e-06
-6.07273e-06
-5.68201e-06
-5.30678e-06
-4.94711e-06
-4.60304e-06
-4.2745e-06
-3.9614e-06
-3.66358e-06
-3.38085e-06
-3.11293e-06
-2.85953e-06
-2.62033e-06
-2.39499e-06
-2.18311e-06
-1.98427e-06
-1.79803e-06
-1.62395e-06
-1.46156e-06
-1.31036e-06
-1.16986e-06
-1.03953e-06
-9.18922e-07
-8.07437e-07
-7.0481e-07
-6.10005e-07
-5.23768e-07
-4.42963e-07
-3.72688e-07
-3.01035e-07
-2.50334e-07
-1.75897e-07
-1.60718e-07
-5.16392e-08
-1.19279e-07
1.02372e-07
-1.59326e-07
3.3413e-07
-3.2614e-07
6.8794e-07
-6.3419e-07
1.13704e-06
-9.79047e-07
1.49168e-06
-1.07327e-06
1.40535e-06
-5.66854e-07
6.31497e-07
5.78e-07
-5.64574e-07
1.76535e-06
-1.33042e-06
2.03764e-06
-8.43486e-07
1.17908e-05
9.03969e-06
6.37638e-06
3.85093e-06
1.44567e-06
-8.40032e-07
-3.00064e-06
-5.03336e-06
-6.93739e-06
-8.71283e-06
-1.03606e-05
-1.18824e-05
-1.32806e-05
-1.45581e-05
-1.5718e-05
-1.6764e-05
-1.76997e-05
-1.85289e-05
-1.92555e-05
-1.98831e-05
-2.04154e-05
-2.08562e-05
-2.12091e-05
-2.14779e-05
-2.16666e-05
-2.17793e-05
-2.18204e-05
-2.17941e-05
-2.17052e-05
-2.15581e-05
-2.13575e-05
-2.11079e-05
-2.08135e-05
-2.04788e-05
-2.01077e-05
-1.97041e-05
-1.92716e-05
-1.88137e-05
-1.83337e-05
-1.78346e-05
-1.73195e-05
-1.6791e-05
-1.62519e-05
-1.57042e-05
-1.51511e-05
-1.45943e-05
-1.40355e-05
-1.3477e-05
-1.29206e-05
-1.2368e-05
-1.18206e-05
-1.12798e-05
-1.0747e-05
-1.02234e-05
-9.7099e-06
-9.20759e-06
-8.71729e-06
-8.23976e-06
-7.77565e-06
-7.32552e-06
-6.88983e-06
-6.46899e-06
-6.06328e-06
-5.67292e-06
-5.29808e-06
-4.93881e-06
-4.59514e-06
-4.26701e-06
-3.95433e-06
-3.65692e-06
-3.37459e-06
-3.10707e-06
-2.85406e-06
-2.61524e-06
-2.39026e-06
-2.17873e-06
-1.98022e-06
-1.7943e-06
-1.62053e-06
-1.45842e-06
-1.30749e-06
-1.16723e-06
-1.03714e-06
-9.16754e-07
-8.05475e-07
-7.0304e-07
-6.08417e-07
-5.2234e-07
-4.41692e-07
-3.7154e-07
-3.00036e-07
-2.49407e-07
-1.75147e-07
-1.59945e-07
-5.11412e-08
-1.18576e-07
1.02585e-07
-1.58611e-07
3.34038e-07
-3.25378e-07
6.87626e-07
-6.33501e-07
1.13677e-06
-9.78737e-07
1.49183e-06
-1.07362e-06
1.4061e-06
-5.67776e-07
6.32563e-07
5.77068e-07
-5.63712e-07
1.76482e-06
-1.32977e-06
2.03684e-06
-8.45223e-07
8.03619e-06
5.61589e-06
3.26036e-06
1.01456e-06
-1.13453e-06
-3.18559e-06
-5.13158e-06
-6.96813e-06
-8.69287e-06
-1.03045e-05
-1.18025e-05
-1.31874e-05
-1.44604e-05
-1.56233e-05
-1.66785e-05
-1.76286e-05
-1.84765e-05
-1.92254e-05
-1.98785e-05
-2.0439e-05
-2.09102e-05
-2.12954e-05
-2.1598e-05
-2.18214e-05
-2.19693e-05
-2.20454e-05
-2.20537e-05
-2.19984e-05
-2.18835e-05
-2.17133e-05
-2.14922e-05
-2.12242e-05
-2.09136e-05
-2.05644e-05
-2.01803e-05
-1.97652e-05
-1.93225e-05
-1.88555e-05
-1.83674e-05
-1.78612e-05
-1.73398e-05
-1.68058e-05
-1.62619e-05
-1.57101e-05
-1.51534e-05
-1.45935e-05
-1.40321e-05
-1.34714e-05
-1.29133e-05
-1.23591e-05
-1.18105e-05
-1.12688e-05
-1.07353e-05
-1.02111e-05
-9.6973e-06
-9.19481e-06
-8.70445e-06
-8.22698e-06
-7.76302e-06
-7.31312e-06
-6.87774e-06
-6.45725e-06
-6.05194e-06
-5.66202e-06
-5.28763e-06
-4.92885e-06
-4.58567e-06
-4.25803e-06
-3.94584e-06
-3.64893e-06
-3.36709e-06
-3.10004e-06
-2.8475e-06
-2.60913e-06
-2.38459e-06
-2.17348e-06
-1.97537e-06
-1.78983e-06
-1.61642e-06
-1.45465e-06
-1.30404e-06
-1.16408e-06
-1.03428e-06
-9.14155e-07
-8.03124e-07
-7.00919e-07
-6.06513e-07
-5.20627e-07
-4.40169e-07
-3.70162e-07
-2.98843e-07
-2.48289e-07
-1.74264e-07
-1.58993e-07
-5.05897e-08
-1.17662e-07
1.02723e-07
-1.57572e-07
3.3366e-07
-3.24084e-07
6.86736e-07
-6.32008e-07
1.13564e-06
-9.77426e-07
1.49101e-06
-1.07306e-06
1.40615e-06
-5.68281e-07
6.3359e-07
5.75788e-07
-5.62113e-07
1.7633e-06
-1.32791e-06
2.03485e-06
-8.46114e-07
3.65676e-06
1.63124e-06
-3.56494e-07
-2.28045e-06
-4.13619e-06
-5.91743e-06
-7.61609e-06
-9.22614e-06
-1.07435e-05
-1.21651e-05
-1.34893e-05
-1.47151e-05
-1.58424e-05
-1.68719e-05
-1.78049e-05
-1.8643e-05
-1.93884e-05
-2.00435e-05
-2.06107e-05
-2.10928e-05
-2.14926e-05
-2.18128e-05
-2.20565e-05
-2.22267e-05
-2.23267e-05
-2.23598e-05
-2.23297e-05
-2.224e-05
-2.20945e-05
-2.1897e-05
-2.16515e-05
-2.13619e-05
-2.1032e-05
-2.06656e-05
-2.02662e-05
-1.98374e-05
-1.93825e-05
-1.89047e-05
-1.84071e-05
-1.78925e-05
-1.73637e-05
-1.68232e-05
-1.62736e-05
-1.57169e-05
-1.51559e-05
-1.45924e-05
-1.40279e-05
-1.34646e-05
-1.29043e-05
-1.23484e-05
-1.17984e-05
-1.12556e-05
-1.07212e-05
-1.01964e-05
-9.68221e-06
-9.17951e-06
-8.68909e-06
-8.21169e-06
-7.74792e-06
-7.29831e-06
-6.86329e-06
-6.44322e-06
-6.03839e-06
-5.64899e-06
-5.27516e-06
-4.91695e-06
-4.57435e-06
-4.24731e-06
-3.93572e-06
-3.63939e-06
-3.35813e-06
-3.09165e-06
-2.83967e-06
-2.60185e-06
-2.37782e-06
-2.16721e-06
-1.96958e-06
-1.7845e-06
-1.61152e-06
-1.45015e-06
-1.29993e-06
-1.16033e-06
-1.03086e-06
-9.11054e-07
-8.00319e-07
-6.98387e-07
-6.0424e-07
-5.18581e-07
-4.38352e-07
-3.68513e-07
-2.97426e-07
-2.4694e-07
-1.73235e-07
-1.57813e-07
-5.00092e-08
-1.16443e-07
1.02681e-07
-1.56015e-07
3.32739e-07
-3.21866e-07
6.84756e-07
-6.29036e-07
1.13282e-06
-9.74177e-07
1.48822e-06
-1.07063e-06
1.40469e-06
-5.67824e-07
6.34397e-07
5.7393e-07
-5.59149e-07
1.75986e-06
-1.32376e-06
2.03066e-06
-8.45244e-07
-1.28049e-06
-2.87266e-06
-4.46251e-06
-6.02688e-06
-7.55309e-06
-9.03095e-06
-1.04509e-05
-1.18052e-05
-1.30878e-05
-1.42942e-05
-1.5421e-05
-1.64657e-05
-1.74271e-05
-1.83045e-05
-1.9098e-05
-1.98084e-05
-2.04366e-05
-2.09844e-05
-2.14535e-05
-2.18459e-05
-2.21638e-05
-2.24096e-05
-2.25858e-05
-2.2695e-05
-2.27399e-05
-2.27236e-05
-2.26492e-05
-2.25198e-05
-2.23389e-05
-2.21099e-05
-2.18363e-05
-2.15215e-05
-2.11692e-05
-2.07828e-05
-2.03656e-05
-1.99209e-05
-1.94519e-05
-1.89615e-05
-1.84528e-05
-1.79284e-05
-1.7391e-05
-1.68429e-05
-1.62868e-05
-1.57244e-05
-1.51585e-05
-1.45907e-05
-1.40226e-05
-1.34564e-05
-1.28936e-05
-1.23356e-05
-1.17839e-05
-1.12398e-05
-1.07045e-05
-1.0179e-05
-9.66438e-06
-9.16143e-06
-8.67096e-06
-8.19366e-06
-7.73012e-06
-7.28084e-06
-6.84626e-06
-6.4267e-06
-6.02244e-06
-5.63366e-06
-5.26048e-06
-4.90294e-06
-4.56104e-06
-4.2347e-06
-3.9238e-06
-3.62817e-06
-3.34759e-06
-3.08179e-06
-2.83046e-06
-2.59327e-06
-2.36987e-06
-2.15984e-06
-1.96277e-06
-1.77823e-06
-1.60575e-06
-1.44487e-06
-1.29509e-06
-1.15592e-06
-1.02685e-06
-9.0741e-07
-7.97023e-07
-6.95412e-07
-6.01566e-07
-5.16177e-07
-4.36212e-07
-3.66581e-07
-2.95747e-07
-2.4538e-07
-1.71981e-07
-1.56503e-07
-4.91998e-08
-1.15219e-07
1.02956e-07
-1.54671e-07
3.3236e-07
-3.20233e-07
6.83726e-07
-6.27178e-07
1.13147e-06
-9.72568e-07
1.48727e-06
-1.07001e-06
1.40487e-06
-5.68614e-07
6.35907e-07
5.72028e-07
-5.56734e-07
1.75745e-06
-1.32074e-06
2.02742e-06
-8.45146e-07
-6.60328e-06
-7.7483e-06
-8.92271e-06
-1.01044e-05
-1.12777e-05
-1.24299e-05
-1.35497e-05
-1.46278e-05
-1.56564e-05
-1.66293e-05
-1.75414e-05
-1.83891e-05
-1.91695e-05
-1.98808e-05
-2.05218e-05
-2.10923e-05
-2.15923e-05
-2.20225e-05
-2.2384e-05
-2.2678e-05
-2.29061e-05
-2.30702e-05
-2.31722e-05
-2.32142e-05
-2.31985e-05
-2.31276e-05
-2.30042e-05
-2.2831e-05
-2.26108e-05
-2.23467e-05
-2.20417e-05
-2.1699e-05
-2.13217e-05
-2.0913e-05
-2.04759e-05
-2.00135e-05
-1.95287e-05
-1.90244e-05
-1.85033e-05
-1.7968e-05
-1.74209e-05
-1.68644e-05
-1.63009e-05
-1.57322e-05
-1.51608e-05
-1.45884e-05
-1.40163e-05
-1.34467e-05
-1.28811e-05
-1.23209e-05
-1.17674e-05
-1.12219e-05
-1.06855e-05
-1.01593e-05
-9.64413e-06
-9.14093e-06
-8.65041e-06
-8.17323e-06
-7.70996e-06
-7.26108e-06
-6.82699e-06
-6.40801e-06
-6.0044e-06
-5.61632e-06
-5.24388e-06
-4.88711e-06
-4.54599e-06
-4.22044e-06
-3.91033e-06
-3.61549e-06
-3.33569e-06
-3.07065e-06
-2.82006e-06
-2.58359e-06
-2.36088e-06
-2.15152e-06
-1.95508e-06
-1.77114e-06
-1.59924e-06
-1.4389e-06
-1.28963e-06
-1.15093e-06
-1.02231e-06
-9.03296e-07
-7.93301e-07
-6.92053e-07
-5.98547e-07
-5.13463e-07
-4.33793e-07
-3.64404e-07
-2.93844e-07
-2.43633e-07
-1.70542e-07
-1.55066e-07
-4.82195e-08
-1.13943e-07
1.03428e-07
-1.53394e-07
3.32274e-07
-3.1885e-07
6.83162e-07
-6.2582e-07
1.13081e-06
-9.71708e-07
1.48717e-06
-1.07023e-06
1.40586e-06
-5.70066e-07
6.37881e-07
5.69913e-07
-5.54307e-07
1.75522e-06
-1.31782e-06
2.02418e-06
-8.44825e-07
-1.22602e-05
-1.29441e-05
-1.36873e-05
-1.44685e-05
-1.52705e-05
-1.60792e-05
-1.68816e-05
-1.76667e-05
-1.8425e-05
-1.91488e-05
-1.98317e-05
-2.04684e-05
-2.10547e-05
-2.15876e-05
-2.20648e-05
-2.24848e-05
-2.28466e-05
-2.31501e-05
-2.33955e-05
-2.35833e-05
-2.37145e-05
-2.37902e-05
-2.38119e-05
-2.37811e-05
-2.36997e-05
-2.35696e-05
-2.33928e-05
-2.31717e-05
-2.29087e-05
-2.26062e-05
-2.22668e-05
-2.18934e-05
-2.14887e-05
-2.10554e-05
-2.05964e-05
-2.01146e-05
-1.96125e-05
-1.90928e-05
-1.85581e-05
-1.80108e-05
-1.74532e-05
-1.68875e-05
-1.63159e-05
-1.57402e-05
-1.51628e-05
-1.45852e-05
-1.40088e-05
-1.34355e-05
-1.28669e-05
-1.23042e-05
-1.17487e-05
-1.12017e-05
-1.06641e-05
-1.01371e-05
-9.62143e-06
-9.11797e-06
-8.62741e-06
-8.15039e-06
-7.68743e-06
-7.239e-06
-6.80547e-06
-6.38715e-06
-5.98427e-06
-5.59698e-06
-5.22536e-06
-4.86945e-06
-4.5292e-06
-4.20454e-06
-3.89532e-06
-3.60136e-06
-3.32242e-06
-3.05823e-06
-2.80847e-06
-2.57281e-06
-2.35086e-06
-2.14224e-06
-1.94652e-06
-1.76325e-06
-1.59199e-06
-1.43225e-06
-1.28355e-06
-1.14539e-06
-1.01726e-06
-8.98714e-07
-7.89156e-07
-6.88311e-07
-5.95183e-07
-5.10441e-07
-4.31098e-07
-3.61981e-07
-2.91722e-07
-2.41692e-07
-1.68933e-07
-1.53476e-07
-4.7113e-08
-1.12545e-07
1.03982e-07
-1.52002e-07
3.3221e-07
-3.17336e-07
6.82545e-07
-6.24288e-07
1.13002e-06
-9.70646e-07
1.48692e-06
-1.07031e-06
1.4068e-06
-5.71576e-07
6.4007e-07
5.67421e-07
-5.51299e-07
1.75225e-06
-1.31395e-06
2.01995e-06
-8.43255e-07
-1.82e-05
-1.8409e-05
-1.87077e-05
-1.90749e-05
-1.94921e-05
-1.99436e-05
-2.04149e-05
-2.08934e-05
-2.13684e-05
-2.18305e-05
-2.22719e-05
-2.26859e-05
-2.30672e-05
-2.34113e-05
-2.37147e-05
-2.39749e-05
-2.41901e-05
-2.43589e-05
-2.44807e-05
-2.45555e-05
-2.45834e-05
-2.45649e-05
-2.45008e-05
-2.43923e-05
-2.42404e-05
-2.40467e-05
-2.38127e-05
-2.354e-05
-2.32307e-05
-2.28867e-05
-2.25102e-05
-2.21035e-05
-2.1669e-05
-2.12092e-05
-2.07265e-05
-2.02236e-05
-1.97027e-05
-1.91663e-05
-1.86169e-05
-1.80565e-05
-1.74875e-05
-1.69118e-05
-1.63315e-05
-1.57482e-05
-1.51643e-05
-1.45811e-05
-1.4e-05