/*--------------------------------*- C++ -*----------------------------------*\
| =========                 |                                                 |
| \\      /  F ield         | OpenFOAM: The Open Source CFD Toolbox           |
|  \\    /   O peration     | Version:  2412                                  |
|   \\  /    A nd           | Website:  www.openfoam.com                      |
|    \\/     M anipulation  |                                                 |
\*---------------------------------------------------------------------------*/
FoamFile
{
    version     2.0;
    format      ascii;
    arch        "LSB;label=32;scalar=64";
    class       surfaceScalarField;
    location    "13.5";
    object      phi;
}
// * * * * * * * * * * * * * * * * * * * * * * * * * * * * * * * * * * * * * //

dimensions      [0 3 -1 0 0 0 0];

oriented        oriented;

internalField   nonuniform List<scalar> 
126304
(
0.00505063
1.29786e-07
2.88387e-11
0.00505026
3.68472e-07
8.99394e-11
0.00504967
5.86126e-07
1.69313e-10
0.00504881
8.63921e-07
1.50575e-10
0.00504748
1.32905e-06
-1.53812e-10
0.00504544
2.04341e-06
-8.28727e-10
0.00504251
2.92772e-06
-1.73456e-09
0.00503872
3.79287e-06
-2.55138e-09
0.00503428
4.44296e-06
-2.94607e-09
0.00502952
4.76719e-06
-2.7314e-09
0.00502475
4.76909e-06
-1.92478e-09
0.00502021
4.53712e-06
-7.02719e-10
0.00501602
4.19108e-06
6.9389e-10
0.00501218
3.83668e-06
2.04686e-09
0.00500864
3.54279e-06
3.20915e-09
0.00500529
3.33952e-06
4.11333e-09
0.00500206
3.22813e-06
4.75605e-09
0.00499886
3.1939e-06
5.17252e-09
0.00499564
3.21673e-06
5.41352e-09
0.00499236
3.27769e-06
5.5301e-09
0.00498899
3.362e-06
5.56495e-09
0.00498552
3.45949e-06
5.55009e-09
0.00498195
3.56397e-06
5.50684e-09
0.00497828
3.67212e-06
5.4482e-09
0.00497449
3.78247e-06
5.38106e-09
0.00497059
3.89466e-06
5.30858e-09
0.00496657
4.00886e-06
5.23174e-09
0.00496244
4.12546e-06
5.15046e-09
0.00495819
4.2449e-06
5.06423e-09
0.00495382
4.36761e-06
4.97278e-09
0.00494932
4.4939e-06
4.87584e-09
0.00494469
4.62406e-06
4.77344e-09
0.00493993
4.75829e-06
4.66542e-09
0.00493503
4.89674e-06
4.55181e-09
0.00492998
5.03953e-06
4.43256e-09
0.00492479
5.18674e-06
4.30785e-09
0.00491945
5.33844e-06
4.17782e-09
0.00491395
5.49468e-06
4.04258e-09
0.00490829
5.65551e-06
3.90226e-09
0.00490247
5.82096e-06
3.75706e-09
0.00489647
5.99108e-06
3.60753e-09
0.0048903
6.16591e-06
3.45422e-09
0.00488396
6.3455e-06
3.29763e-09
0.00487742
6.52988e-06
3.13826e-09
0.0048707
6.71911e-06
2.97655e-09
0.00486378
6.91325e-06
2.81285e-09
0.00485667
7.11237e-06
2.64763e-09
0.00484935
7.31654e-06
2.48135e-09
0.00484182
7.52587e-06
2.31437e-09
0.00483408
7.74047e-06
2.14703e-09
0.00482612
7.96053e-06
1.97978e-09
0.00481793
8.18637e-06
1.81301e-09
0.00480951
8.41881e-06
1.64704e-09
0.00480085
8.66008e-06
1.4821e-09
8.91652e-06
0.00479193
1.31811e-09
0.00505063
2.59488e-07
0.00505026
7.36921e-07
0.00504967
1.17232e-06
0.00504881
1.72649e-06
0.00504749
2.65219e-06
0.00504546
4.07328e-06
0.00504255
5.83361e-06
0.00503879
7.55825e-06
0.00503437
8.85772e-06
0.00502963
9.51069e-06
0.00502487
9.52271e-06
0.00502034
9.06834e-06
0.00501615
8.38502e-06
0.0050123
7.68285e-06
0.00500875
7.09913e-06
0.00500539
6.69431e-06
0.00500215
6.47147e-06
0.00499894
6.4018e-06
0.00499571
6.44568e-06
0.00499242
6.56567e-06
0.00498905
6.73242e-06
0.00498559
6.92573e-06
0.00498202
7.13325e-06
0.00497834
7.34834e-06
0.00497456
7.56803e-06
0.00497066
7.79156e-06
0.00496665
8.01921e-06
0.00496252
8.25174e-06
0.00495828
8.49002e-06
0.00495391
8.73485e-06
0.00494942
8.98688e-06
0.00494479
9.24663e-06
0.00494004
9.51452e-06
0.00493514
9.79084e-06
0.00493011
1.00758e-05
0.00492492
1.03696e-05
0.00491959
1.06723e-05
0.0049141
1.09841e-05
0.00490845
1.1305e-05
0.00490264
1.16351e-05
0.00489665
1.19746e-05
0.0048905
1.23234e-05
0.00488416
1.26816e-05
0.00487764
1.30494e-05
0.00487093
1.34268e-05
0.00486403
1.3814e-05
0.00485693
1.42111e-05
0.00484963
1.46182e-05
0.00484212
1.50356e-05
0.0048344
1.54634e-05
0.00482646
1.5902e-05
0.00481829
1.6352e-05
0.0048099
1.6815e-05
0.00480126
1.72953e-05
1.7805e-05
0.00479237
0.00505063
3.88967e-07
0.00505026
1.10513e-06
0.00504967
1.75829e-06
0.00504881
2.58612e-06
0.0050475
3.96408e-06
0.0050455
6.07836e-06
0.00504263
8.70025e-06
0.00503891
1.12749e-05
0.00503455
1.3223e-05
0.00502985
1.42131e-05
0.00502512
1.42497e-05
0.0050206
1.35892e-05
0.0050164
1.2583e-05
0.00501254
1.15434e-05
0.00500896
1.06755e-05
0.00500559
1.00707e-05
0.00500232
9.73508e-06
0.0049991
9.62685e-06
0.00499586
9.68785e-06
0.00499256
9.86283e-06
0.00498918
1.01083e-05
0.00498571
1.03942e-05
0.00498215
1.0702e-05
0.00497847
1.10218e-05
0.00497469
1.13489e-05
0.0049708
1.16823e-05
0.0049668
1.2022e-05
0.00496268
1.23694e-05
0.00495844
1.27254e-05
0.00495409
1.30914e-05
0.00494961
1.34682e-05
0.004945
1.38567e-05
0.00494025
1.42573e-05
0.00493537
1.46705e-05
0.00493035
1.50967e-05
0.00492519
1.5536e-05
0.00491987
1.59887e-05
0.0049144
1.64549e-05
0.00490877
1.69347e-05
0.00490298
1.74283e-05
0.00489702
1.79357e-05
0.00489088
1.8457e-05
0.00488457
1.89924e-05
0.00487808
1.9542e-05
0.0048714
2.01059e-05
0.00486453
2.06843e-05
0.00485746
2.12773e-05
0.0048502
2.18853e-05
0.00484272
2.25084e-05
0.00483504
2.31469e-05
0.00482714
2.38014e-05
0.00481902
2.44727e-05
0.00481067
2.5163e-05
0.00480209
2.58783e-05
2.66354e-05
0.00479326
0.00505063
5.18115e-07
0.00505026
1.47297e-06
0.00504967
2.34391e-06
0.00504882
3.44146e-06
0.00504752
5.25972e-06
0.00504555
8.04768e-06
0.00504274
1.15103e-05
0.0050391
1.4921e-05
0.0050348
1.75168e-05
0.00503016
1.88559e-05
0.00502547
1.89378e-05
0.00502097
1.80946e-05
0.00501676
1.67863e-05
0.00501288
1.54242e-05
0.00500928
1.42805e-05
0.00500587
1.34781e-05
0.00500258
1.30277e-05
0.00499933
1.28763e-05
0.00499607
1.29488e-05
0.00499276
1.3173e-05
0.00498937
1.34917e-05
0.0049859
1.38655e-05
0.00498234
1.42697e-05
0.00497867
1.46908e-05
0.00497489
1.51227e-05
0.00497101
1.55636e-05
0.00496702
1.60135e-05
0.00496292
1.64739e-05
0.00495869
1.69463e-05
0.00495435
1.7432e-05
0.00494989
1.79322e-05
0.0049453
1.8448e-05
0.00494058
1.898e-05
0.00493572
1.95287e-05
0.00493072
2.00946e-05
0.00492558
2.0678e-05
0.00492029
2.12791e-05
0.00491484
2.1898e-05
0.00490924
2.25349e-05
0.00490348
2.319e-05
0.00489756
2.38633e-05
0.00489146
2.45551e-05
0.00488518
2.52653e-05
0.00487873
2.59943e-05
0.0048721
2.67421e-05
0.00486527
2.7509e-05
0.00485825
2.82951e-05
0.00485104
2.91007e-05
0.00484362
2.99262e-05
0.004836
3.07718e-05
0.00482816
3.16382e-05
0.0048201
3.25265e-05
0.00481183
3.34391e-05
0.00480332
3.4383e-05
3.53782e-05
0.00479458
0.00505063
6.46833e-07
0.00505026
1.84027e-06
0.00504968
2.92897e-06
0.00504883
4.29131e-06
0.00504755
6.53485e-06
0.00504563
9.97189e-06
0.00504289
1.42489e-05
0.00503933
1.84782e-05
0.00503513
2.172e-05
0.00503056
2.34229e-05
0.00502592
2.3576e-05
0.00502144
2.25796e-05
0.00501723
2.09955e-05
0.00501332
1.93298e-05
0.00500968
1.79207e-05
0.00500624
1.69238e-05
0.00500291
1.63562e-05
0.00499963
1.61562e-05
0.00499634
1.6233e-05
0.00499302
1.6499e-05
0.00498963
1.68842e-05
0.00498615
1.73399e-05
0.00498259
1.78353e-05
0.00497892
1.83536e-05
0.00497516
1.88868e-05
0.00497129
1.94322e-05
0.00496731
1.99899e-05
0.00496323
2.05611e-05
0.00495903
2.11477e-05
0.00495471
2.17512e-05
0.00495027
2.23731e-05
0.0049457
2.30144e-05
0.004941
2.36759e-05
0.00493617
2.43583e-05
0.00493121
2.5062e-05
0.0049261
2.57874e-05
0.00492084
2.65347e-05
0.00491543
2.73042e-05
0.00490987
2.80959e-05
0.00490415
2.891e-05
0.00489827
2.97466e-05
0.00489222
3.0606e-05
0.004886
3.14882e-05
0.0048796
3.23933e-05
0.00487302
3.33217e-05
0.00486625
3.42734e-05
0.0048593
3.52487e-05
0.00485215
3.62479e-05
0.00484481
3.72713e-05
0.00483726
3.83192e-05
0.00482951
3.93924e-05
0.00482154
4.04919e-05
0.00481336
4.16202e-05
0.00480496
4.27846e-05
4.40058e-05
0.00479633
0.00505063
7.75029e-07
0.00505026
2.20683e-06
0.00504968
3.51323e-06
0.00504883
5.13464e-06
0.00504758
7.78604e-06
0.00504571
1.18437e-05
0.00504306
1.69043e-05
0.0050396
2.19316e-05
0.00503551
2.58172e-05
0.00503103
2.79009e-05
0.00502645
2.81552e-05
0.00502199
2.70397e-05
0.00501777
2.52101e-05
0.00501384
2.3263e-05
0.00501016
2.16009e-05
0.00500667
2.04131e-05
0.0050033
1.97258e-05
0.00499999
1.94706e-05
0.00499668
1.95435e-05
0.00499333
1.98427e-05
0.00498993
2.02864e-05
0.00498645
2.08168e-05
0.00498289
2.13976e-05
0.00497924
2.2008e-05
0.00497549
2.26383e-05
0.00497163
2.32847e-05
0.00496768
2.39471e-05
0.00496361
2.46265e-05
0.00495943
2.53249e-05
0.00495514
2.60439e-05
0.00495073
2.67852e-05
0.00494619
2.75497e-05
0.00494153
2.83386e-05
0.00493674
2.91523e-05
0.00493181
2.99915e-05
0.00492674
3.08564e-05
0.00492153
3.17474e-05
0.00491617
3.26646e-05
0.00491065
3.36081e-05
0.00490498
3.45782e-05
0.00489916
3.55749e-05
0.00489316
3.65984e-05
0.004887
3.76488e-05
0.00488067
3.87262e-05
0.00487416
3.98309e-05
0.00486747
4.09631e-05
0.0048606
4.21228e-05
0.00485353
4.33105e-05
0.00484628
4.45264e-05
0.00483883
4.57709e-05
0.00483118
4.70446e-05
0.00482332
4.83483e-05
0.00481525
4.96845e-05
0.00480698
5.10593e-05
5.24916e-05
0.00479849
0.00505063
9.02571e-07
0.00505026
2.57248e-06
0.00504968
4.09641e-06
0.00504884
5.9706e-06
0.00504762
9.0109e-06
0.00504581
1.36579e-05
0.00504324
1.94684e-05
0.0050399
2.52708e-05
0.00503592
2.97972e-05
0.00503154
3.22797e-05
0.00502703
3.26676e-05
0.0050226
3.14703e-05
0.00501838
2.94288e-05
0.00501442
2.72246e-05
0.0050107
2.53232e-05
0.00500716
2.3949e-05
0.00500375
2.31391e-05
0.0050004
2.28216e-05
0.00499706
2.28816e-05
0.0049937
2.32046e-05
0.00499029
2.36979e-05
0.00498681
2.42953e-05
0.00498325
2.49546e-05
0.00497961
2.56516e-05
0.00497587
2.63742e-05
0.00497204
2.71176e-05
0.0049681
2.78811e-05
0.00496407
2.86657e-05
0.00495992
2.9473e-05
0.00495566
3.03048e-05
0.00495128
3.11628e-05
0.00494678
3.2048e-05
0.00494216
3.29615e-05
0.00493741
3.39039e-05
0.00493252
3.48757e-05
0.0049275
3.58773e-05
0.00492234
3.69088e-05
0.00491703
3.79705e-05
0.00491158
3.90625e-05
0.00490597
4.01848e-05
0.00490021
4.13377e-05
0.00489429
4.25212e-05
0.0048882
4.37355e-05
0.00488195
4.49806e-05
0.00487552
4.62567e-05
0.00486892
4.75641e-05
0.00486214
4.89027e-05
0.00485518
5.0273e-05
0.00484803
5.16751e-05
0.00484069
5.31094e-05
0.00483316
5.45762e-05
0.00482543
5.60764e-05
0.0048175
5.76113e-05
0.00480938
5.91851e-05
0.00480106
6.08083e-05
0.00479305
-1.12106e-06
1.16011e-09
0.00479366
-6.0901e-07
1.0178e-09
0.00479371
-5.83901e-08
8.87594e-10
0.00479319
5.22094e-07
7.09592e-10
0.00479204
1.14762e-06
5.43136e-10
0.00479023
1.81757e-06
3.72209e-10
0.00478769
2.53561e-06
1.94863e-10
0.00478438
3.30581e-06
1.26893e-11
0.00478025
4.13249e-06
-1.7273e-10
0.00477523
5.02031e-06
-3.59495e-10
0.00476926
5.97426e-06
-5.45222e-10
0.00476226
6.9998e-06
-7.27871e-10
0.00475416
8.10294e-06
-9.05156e-10
0.00474487
9.29044e-06
-1.07499e-09
0.0047343
1.057e-05
-1.23473e-09
0.00472235
1.19508e-05
-1.39003e-09
0.00470891
1.34437e-05
-1.53331e-09
0.00469385
1.5062e-05
-1.65261e-09
0.00467703
1.68213e-05
-1.74319e-09
0.00465829
1.87405e-05
-1.80802e-09
0.00463745
2.0842e-05
-1.85945e-09
0.0046143
2.31526e-05
-1.89845e-09
0.0045886
2.57039e-05
-1.92264e-09
0.00456006
2.85333e-05
-1.93162e-09
0.00452838
3.16841e-05
-1.92655e-09
0.00449318
3.52069e-05
-1.91024e-09
0.00445402
3.91609e-05
-1.88479e-09
0.0044104
4.36155e-05
-1.85264e-09
0.00436175
4.86524e-05
-1.81653e-09
0.00430739
5.43686e-05
-1.77794e-09
0.00424651
6.08809e-05
-1.73766e-09
0.00417818
6.833e-05
-1.69664e-09
0.00410129
7.68881e-05
-1.65531e-09
0.00401453
8.67658e-05
-1.61318e-09
0.00391631
9.82221e-05
-1.56997e-09
0.00380474
0.000111574
-1.52583e-09
0.00367754
0.000127202
-1.48109e-09
0.00353198
0.000145558
-1.43662e-09
0.00336483
0.000167145
-1.39412e-09
0.00317236
0.000192479
-1.35604e-09
0.00295037
0.000221992
-1.32571e-09
0.00269451
0.000255854
-1.30677e-09
0.00240086
0.000293653
-1.30295e-09
0.00206697
0.000333893
-1.31704e-09
0.00169374
0.000373231
-1.3493e-09
0.00128835
0.000405394
-1.3942e-09
0.000868545
0.000419804
-1.4308e-09
0.000468705
0.000399841
-1.40388e-09
0.000148492
0.000320214
-1.19977e-09
0.000148493
-6.40825e-10
0.00479212
-8.72729e-07
0.00479136
1.54851e-07
0.00479006
1.24217e-06
0.00478817
2.40856e-06
0.00478566
3.65691e-06
0.00478249
4.99411e-06
0.0047786
6.42752e-06
0.00477394
7.96521e-06
0.00476845
9.61586e-06
0.00476208
1.13888e-05
0.00475476
1.32941e-05
0.00474642
1.53426e-05
0.00473698
1.75465e-05
0.00472635
1.99194e-05
0.00471444
2.24768e-05
0.00470116
2.52369e-05
0.00468638
2.82219e-05
0.00466998
3.14582e-05
0.00465183
3.49776e-05
0.00463175
3.88176e-05
0.00460957
4.30232e-05
0.00458507
4.76483e-05
0.00455802
5.27561e-05
0.00452813
5.84212e-05
0.00449509
6.47304e-05
0.00445851
7.17849e-05
0.00441797
7.97031e-05
0.00437296
8.86233e-05
0.0043229
9.87087e-05
0.00426712
0.000110153
0.00420481
0.000123189
0.00413504
0.000138096
0.00405671
0.000155218
0.00396851
0.000174971
0.00386886
0.000197868
0.0037559
0.000224534
0.00362738
0.000255723
0.00348062
0.000292315
0.00331248
0.000335292
0.0031193
0.000385652
0.00289709
0.000444211
0.00264169
0.000511247
0.00234948
0.00058587
0.00201834
0.000665027
0.00164956
0.000742011
0.00125061
0.000804342
0.00083941
0.000831008
0.000449983
0.000789269
0.000139851
0.000630347
0.000288344
0.00479029
2.09788e-06
0.00478682
3.62704e-06
0.0047828
5.25792e-06
0.00477821
7.00213e-06
0.00477299
8.86886e-06
0.00476712
1.08684e-05
0.00476054
1.30121e-05
0.00475319
1.53121e-05
0.00474502
1.77814e-05
0.00473598
2.04343e-05
0.00472599
2.32857e-05
0.00471498
2.63523e-05
0.00470287
2.96523e-05
0.00468958
3.32062e-05
0.00467502
3.70376e-05
0.00465909
4.11743e-05
0.00464166
4.56493e-05
0.00462261
5.0503e-05
0.00460181
5.57832e-05
0.00457908
6.15465e-05
0.00455424
6.78607e-05
0.00452708
7.48067e-05
0.00449736
8.24799e-05
0.00446479
9.09919e-05
0.00442905
0.000100473
0.00438975
0.000111076
0.00434648
0.000122976
0.00429872
0.000136382
0.00424589
0.000151538
0.00418732
0.000168732
0.00412219
0.000188311
0.0040496
0.000210693
0.00396843
0.000236385
0.00387739
0.000266005
0.00377495
0.000300309
0.00365927
0.000340214
0.00352818
0.000386816
0.0033791
0.000441393
0.00320904
0.000505352
0.0030146
0.000580095
0.00279208
0.000666726
0.00253782
0.00076551
0.00224875
0.000874945
0.00192346
0.000990316
0.00156393
0.00110154
0.00117813
0.00119014
0.000784045
0.00122509
0.000415238
0.00115807
0.000126593
0.000918992
0.000414937
0.00478758
9.10273e-06
0.00478007
1.11306e-05
0.00477203
1.32958e-05
0.00476343
1.56104e-05
0.00475421
1.80877e-05
0.00474433
2.07417e-05
0.00473376
2.35875e-05
0.00472243
2.66415e-05
0.00471029
2.99212e-05
0.00469728
3.34455e-05
0.00468333
3.72348e-05
0.00466837
4.13112e-05
0.00465232
4.56993e-05
0.0046351
5.04269e-05
0.00461661
5.55258e-05
0.00459676
6.10331e-05
0.00457541
6.69938e-05
0.00455245
7.34621e-05
0.00452773
8.05022e-05
0.00450109
8.81901e-05
0.00447233
9.66168e-05
0.00444125
0.000105891
0.00440759
0.000116139
0.00437107
0.000127511
0.00433136
0.000140181
0.00428809
0.000154351
0.00424081
0.000170256
0.00418902
0.000188173
0.00413213
0.000208424
0.00406947
0.000231395
0.00400024
0.000257542
0.00392351
0.000287415
0.00383822
0.000321681
0.00374308
0.000361148
0.00363659
0.000406797
0.00351699
0.000459811
0.00338221
0.000521593
0.00322985
0.000593756
0.00305715
0.000678047
0.00286109
0.000776158
0.00263849
0.000889326
0.00238639
0.00101761
0.00210261
0.00115872
0.00178681
0.00130612
0.00144195
0.0014464
0.00107657
0.00155551
0.000708212
0.00159345
0.000368581
0.00149771
0.000107727
0.00117985
0.000522664
0.00478403
2.14072e-05
0.00477123
2.39243e-05
0.00475792
2.66122e-05
0.00474404
2.9486e-05
0.00472957
3.25625e-05
0.00471445
3.58592e-05
0.00469864
3.93954e-05
0.00468209
4.31915e-05
0.00466474
4.72696e-05
0.00464653
5.16534e-05
0.0046274
5.63684e-05
0.00460727
6.14426e-05
0.00458606
6.69071e-05
0.00456369
7.2797e-05
0.00454006
7.91525e-05
0.00451508
8.60209e-05
0.00448861
9.34589e-05
0.00446054
0.000101535
0.00443071
0.000110331
0.00439896
0.000119941
0.00436509
0.000130482
0.0043289
0.000142087
0.00429012
0.000154919
0.00424847
0.000169163
0.00420361
0.000185036
0.00415517
0.000202792
0.0041027
0.000222725
0.0040457
0.000245177
0.00398357
0.000270551
0.00391564
0.000299322
0.00384113
0.000332057
0.00375911
0.000369433
0.00366852
0.000412265
0.00356814
0.000461535
0.00345651
0.000518427
0.00333197
0.000584353
0.0031926
0.000660964
0.00303623
0.000750124
0.00286047
0.0008538
0.00266283
0.000973804
0.00244087
0.00111129
0.00219263
0.00126585
0.00191723
0.00143412
0.00161574
0.00160761
0.00129243
0.00176971
0.000956429
0.00189152
0.000623953
0.00192593
0.000321741
0.00179992
8.91518e-05
0.00141243
0.000611816
0.0047797
4.0206e-05
0.00476042
4.31959e-05
0.00474065
4.63905e-05
0.00472032
4.98079e-05
0.00469942
5.34679e-05
0.00467789
5.7392e-05
0.00465568
6.1603e-05
0.00463274
6.61256e-05
0.00460903
7.09861e-05
0.00458447
7.62132e-05
0.004559
8.18377e-05
0.00453255
8.78933e-05
0.00450504
9.44179e-05
0.00447638
0.000101454
0.00444648
0.000109051
0.00441524
0.000117266
0.00438253
0.000126168
0.00434822
0.000135841
0.00431217
0.000146382
0.0042742
0.000157909
0.00423412
0.00017056
0.00419171
0.000184499
0.00414671
0.000199918
0.00409883
0.000217043
0.00404773
0.000236135
0.00399303
0.000257496
0.00393428
0.000281478
0.00387096
0.000308492
0.0038025
0.000339018
0.0037282
0.000373621
0.00364728
0.00041297
0.00355885
0.000457863
0.00346187
0.000509253
0.00335512
0.000568277
0.00323727
0.000636286
0.00310675
0.000714867
0.00296188
0.000805837
0.00280082
0.000911182
0.00262172
0.0010329
0.00242286
0.00117267
0.00220294
0.0013312
0.00196156
0.00150723
0.00169976
0.00169592
0.00142083
0.00188654
0.00113104
0.0020595
0.000840364
0.0021822
0.00056273
0.00220356
0.000314649
0.002048
0.000108725
0.00161836
0.000720541
0.00477467
6.66e-05
0.00474782
7.00386e-05
0.0047205
7.37184e-05
0.00469265
7.76585e-05
0.00466423
8.18816e-05
0.00463521
8.64123e-05
0.00460554
9.12771e-05
0.00457516
9.65045e-05
0.00454402
0.000102125
0.00451206
0.000108173
0.00447921
0.000114683
0.00444541
0.000121696
0.00441058
0.000129255
0.00437462
0.000137412
0.00433744
0.000146224
0.00429895
0.000155759
0.00425902
0.0001661
0.00421752
0.000177344
0.00417429
0.000189608
0.00412917
0.000203029
0.00408196
0.00021777
0.00403243
0.000234024
0.00398034
0.000252016
0.00392537
0.00027201
0.00386719
0.00029431
0.00380542
0.00031927
0.0037396
0.0003473
0.00366922
0.000378875
0.00359368
0.000414551
0.00351232
0.000454982
0.00342435
0.000500938
0.00332889
0.000553329
0.00322491
0.000613235
0.00311126
0.000681927
0.00298665
0.000760895
0.00284967
0.000851846
0.00269883
0.000956671
0.00253268
0.00107734
0.00234993
0.00121565
0.00214979
0.00137281
0.00193233
0.00154865
0.00169912
0.00174045
0.00145386
0.00194118
0.00120318
0.00213722
0.000957122
0.00230556
0.000728729
0.00241059
0.000531436
0.00240086
0.00036991
0.00220953
0.000224015
0.00176425
0.000944556
-3.0594e-05
3.05936e-05
4.20837e-10
-8.20987e-05
5.15033e-05
1.37809e-09
-0.000130249
4.81482e-05
2.39334e-09
-0.000161079
3.08262e-05
3.31501e-09
-0.00016687
5.78691e-06
4.06791e-09
-0.000145211
-2.16629e-05
4.53946e-09
-9.53569e-05
-4.98595e-05
4.89598e-09
-1.82745e-05
-7.70875e-05
5.15548e-09
8.39498e-05
-0.00010223
5.33529e-09
0.000208641
-0.000124696
5.44359e-09
0.000352802
-0.000144167
5.47911e-09
0.000513294
-0.000160497
5.42351e-09
0.000686969
-0.000173681
5.25404e-09
0.000870773
-0.000183809
4.94745e-09
0.00106181
-0.000191042
4.49005e-09
0.00125739
-0.000195586
3.87672e-09
0.00145507
-0.000197679
3.11941e-09
0.00165264
-0.000197576
2.25021e-09
0.00184818
-0.000195543
1.31316e-09
0.00204003
-0.000191842
3.72993e-10
0.00222676
-0.000186734
-3.68746e-10
0.00240722
-0.000180464
-8.71487e-10
0.00258049
-0.000173269
-7.21509e-10
0.00274586
-0.000165366
1.88971e-10
0.00290281
-0.000156949
1.46332e-09
0.003051
-0.000148194
2.8343e-09
0.00319025
-0.000139256
4.00956e-09
0.00332052
-0.000130271
4.86716e-09
0.00344187
-0.000121359
5.42181e-09
0.00355448
-0.000112617
5.65504e-09
0.0036586
-0.000104127
5.56946e-09
0.00375455
-9.5954e-05
5.20379e-09
0.00384269
-8.81482e-05
4.62434e-09
0.00392344
-8.07459e-05
3.91368e-09
0.0039972
-7.37709e-05
3.15594e-09
0.00406444
-6.72367e-05
2.42469e-09
0.00412558
-6.11473e-05
1.77736e-09
0.00418108
-5.5499e-05
1.25295e-09
0.00423136
-5.02815e-05
8.71885e-10
0.00427684
-4.54795e-05
6.39785e-10
0.00431791
-4.10738e-05
5.50621e-10
0.00435496
-3.70422e-05
5.89832e-10
0.00438832
-3.33609e-05
7.38148e-10
0.00441832
-3.00049e-05
9.74017e-10
0.00444527
-2.69491e-05
1.2756e-09
0.00446943
-2.41687e-05
1.62277e-09
0.00449107
-2.16394e-05
1.99715e-09
0.00451041
-1.93385e-05
2.38269e-09
0.00452765
-1.72439e-05
2.76716e-09
-1.53351e-05
0.00454298
3.14174e-09
-2.68377e-05
5.74313e-05
-7.10542e-05
9.57198e-05
-0.000111238
8.83317e-05
-0.000135064
5.46525e-05
-0.000134989
5.71173e-06
-0.000109569
-4.70828e-05
-5.75278e-05
-0.000101901
2.02937e-05
-0.000154909
0.000121945
-0.000203881
0.000245045
-0.000247796
0.000386825
-0.000285948
0.000544355
-0.000318026
0.000714672
-0.000343997
0.00089488
-0.000364018
0.00108222
-0.000378379
0.0012741
-0.000387471
0.00146817
-0.000391745
0.00166229
-0.000391696
0.00185458
-0.000387833
0.00204341
-0.000380673
0.00222739
-0.000370717
0.00240538
-0.000358454
0.00257646
-0.000344342
0.0027399
-0.000328812
0.0028952
-0.00031225
0.00304201
-0.000295002
0.00318013
-0.000277377
0.00330951
-0.000259646
0.00343019
-0.000242043
0.00354234
-0.000224766
0.00364619
-0.000207978
0.00374205
-0.000191808
0.00383026
-0.000176357
0.00391121
-0.000161698
0.00398532
-0.00014788
0.00405301
-0.000134929
0.00411472
-0.000122856
0.00417087
-0.000111652
0.00422189
-0.0001013
0.00426818
-9.17695e-05
0.00431013
-8.30224e-05
0.0043481
-7.50157e-05
0.00438244
-6.77025e-05
0.00441347
-6.10339e-05
0.00444148
-5.49601e-05
0.00446675
-4.94323e-05
0.00448951
-4.44029e-05
0.00451
-3.98264e-05
0.00452841
-3.56594e-05
-3.18604e-05
0.00454494
-1.99229e-05
7.73542e-05
-4.96623e-05
0.000125459
-7.47298e-05
0.000113399
-8.51038e-05
6.50265e-05
-7.48883e-05
-4.50375e-06
-4.22225e-05
-7.97486e-05
1.37133e-05
-0.000157836
9.22834e-05
-0.000233479
0.000192409
-0.000304007
0.000312079
-0.000367466
0.00044896
-0.000422828
0.000600531
-0.000469598
0.000764194
-0.00050766
0.000937355
-0.000537179
0.0011175
-0.000558529
0.00130226
-0.000572229
0.00148942
-0.000578906
0.00167698
-0.000579249
0.00186313
-0.000573984
0.0020463
-0.000563848
0.00222515
-0.000549569
0.00239855
-0.000531852
0.00256558
-0.000511369
0.00272552
-0.000488749
0.00287783
-0.000464567
0.00302216
-0.000439332
0.00315829
-0.000413499
0.00328611
-0.000387473
0.00340567
-0.000361601
0.00351708
-0.00033618
0.00362056
-0.000311453
0.00371637
-0.000287616
0.00380483
-0.000264819
0.00388631
-0.000243175
0.00396118
-0.000222758
0.00402987
-0.00020361
0.00409276
-0.000185749
0.00415027
-0.000169166
0.00420281
-0.000153834
0.00425075
-0.000139712
0.00429447
-0.000126744
0.00433432
-0.000114869
0.00437064
-0.000104018
0.00440373
-9.41193e-05
0.00443387
-8.51002e-05
0.00446132
-7.68891e-05
0.00448633
-6.94158e-05
0.00450912
-6.26133e-05
0.00452988
-5.64173e-05
-5.07649e-05
0.00454878
-7.13726e-06
8.44914e-05
-1.80712e-05
0.000136393
-2.22397e-05
0.000117568
-1.39006e-05
5.66874e-05
9.05562e-06
-2.746e-05
4.98112e-05
-0.000120504
0.000109623
-0.000217648
0.000188485
-0.000312342
0.000285518
-0.000401039
0.000399473
-0.000481421
0.000528704
-0.000552059
0.000671287
-0.000612181
0.000825133
-0.000661505
0.000988076
-0.000700122
0.00115795
-0.000728401
0.00133264
-0.000746924
0.00151016
-0.000756423
0.00168864
-0.000757731
0.0018664
-0.000751742
0.00204193
-0.000739376
0.00221392
-0.000721556
0.00238124
-0.000699179
0.00254299
-0.000673112
0.00269841
-0.00064417
0.00284694
-0.000613104
0.0029882
-0.000580586
0.00312191
-0.00054721
0.00324794
-0.000513509
0.00336629
-0.000479945
0.00347702
-0.000446911
0.0035803
-0.000414733
0.00367636
-0.000383673
0.00376547
-0.000353936
0.00384797
-0.000325673
0.0039242
-0.000298987
0.00399453
-0.000273939
0.00405933
-0.000250554
0.00411899
-0.000228827
0.00417389
-0.000208726
0.00422437
-0.000190198
0.0042708
-0.000173175
0.00431351
-0.000157578
0.00435281
-0.000143317
0.00438899
-0.000130302
0.00442233
-0.000118438
0.00445308
-0.000107633
0.00448145
-9.77941e-05
0.00450768
-8.88352e-05
0.00453193
-8.06715e-05
-7.32184e-05
0.00455438
8.16268e-06
7.63288e-05
2.08457e-05
0.00012371
4.10376e-05
9.73759e-05
6.99313e-05
2.77937e-05
0.000107573
-6.51013e-05
0.000157735
-0.000170666
0.000220963
-0.000280876
0.000298176
-0.000389555
0.000389637
-0.0004925
0.000495035
-0.000586819
0.000613578
-0.000670602
0.000744089
-0.000742692
0.000885107
-0.000802524
0.00103498
-0.000849995
0.00119195
-0.000885369
0.00135422
-0.000909192
0.00152001
-0.000922219
0.00168764
-0.000925355
0.0018555
-0.000919606
0.00202216
-0.000906032
0.00218631
-0.00088571
0.00234684
-0.000859708
0.00250279
-0.000829059
0.00265337
-0.000794755
0.00279798
-0.000757717
0.00293617
-0.00071877
0.00306761
-0.000678649
0.00319211
-0.000638011
0.0033096
-0.000597434
0.0034201
-0.00055741
0.00352371
-0.000518349
0.00362062
-0.000480583
0.00371106
-0.000444372
0.0037953
-0.000409911
0.00387365
-0.000377335
0.00394644
-0.000346727
0.00401401
-0.000318125
0.00407671
-0.000291526
0.00413488
-0.000266898
0.00418886
-0.000244181
0.00423898
-0.000223295
0.00428555
-0.000204145
0.00432886
-0.000186627
0.00436918
-0.000170631
0.00440679
-0.000156042
0.0044419
-0.000142748
0.00447475
-0.000130639
0.00450552
-0.000119608
0.0045344
-0.000109553
-0.000100366
0.00456155
2.59556e-05
5.03732e-05
6.80518e-05
8.16139e-05
0.000115871
4.95563e-05
0.000166036
-2.23706e-05
0.000218042
-0.000117108
0.000274964
-0.000227588
0.000338641
-0.000344553
0.000411
-0.000461913
0.000493452
-0.000574952
0.000586798
-0.000680166
0.000691249
-0.000775052
0.000806487
-0.00085793
0.000931763
-0.0009278
0.00106599
-0.000984226
0.00120786
-0.00102723
0.00135588
-0.00105721
0.00150851
-0.00107485
0.00166419
-0.00108104
0.00182141
-0.00107682
0.00197874
-0.00106336
0.00213487
-0.00104184
0.00228863
-0.00101347
0.00243901
-0.000979439
0.00258515
-0.000940896
0.00272636
-0.000898925
0.0028621
-0.000854511
0.00299198
-0.000808526
0.00311572
-0.000761757
0.00323319
-0.000714897
0.00334432
-0.000668544
0.00344917
-0.000623197
0.00354785
-0.000579263
0.00364054
-0.000537062
0.00372747
-0.000496839
0.00380889
-0.000458764
0.00388511
-0.000422946
0.00395643
-0.000389439
0.00402315
-0.00035825
0.0040856
-0.000329347
0.00414408
-0.000302665
0.00419891
-0.000278118
0.00425036
-0.000255597
0.00429871
-0.000234983
0.00434423
-0.000216149
0.00438715
-0.000198965
0.00442771
-0.000183299
0.00446609
-0.000169024
0.0045025
-0.000156017
0.0045371
-0.000144155
-0.000133314
0.00457005
4.94743e-05
8.98905e-07
0.000126568
4.52024e-06
0.000200606
-2.44813e-05
0.000267072
-8.88373e-05
0.000329212
-0.000179248
0.000388366
-0.000286743
0.00044794
-0.000404126
0.000511185
-0.000525159
0.000580806
-0.000644572
0.000658774
-0.000758134
0.000746315
-0.000862593
0.000843964
-0.000955579
0.000951661
-0.0010355
0.00106886
-0.00110143
0.00119465
-0.00115302
0.00132782
-0.00119039
0.00146702
-0.00121405
0.00161077
-0.00122479
0.00175761
-0.00122366
0.00190609
-0.00121184
0.00205485
-0.0011906
0.00220264
-0.00116126
0.00234835
-0.00112515
0.00249103
-0.00108358
0.00262988
-0.00103777
0.00276426
-0.000988887
0.00289367
-0.00093794
0.00301777
-0.000885852
0.00313631
-0.00083344
0.00324918
-0.000781412
0.00335634
-0.000730364
0.00345787
-0.000680785
0.00355387
-0.000633065
0.00364453
-0.000587499
0.00373007
-0.000544302
0.00381073
-0.000503612
0.0038868
-0.000465505
0.00395855
-0.00043
0.00402627
-0.000397068
0.00409025
-0.000366645
0.00415077
-0.000338637
0.0042081
-0.000312927
0.0042625
-0.000289381
0.00431421
-0.00026786
0.00436346
-0.000248215
0.00441046
-0.0002303
0.00445541
-0.000213971
0.00449848
-0.000199088
0.00453984
-0.000185515
0.00457964
-0.000173115
0.00456655
-2.3574e-05
3.52052e-09
0.004589
-2.24546e-05
3.93926e-09
0.0046104
-2.14011e-05
4.34436e-09
0.00463081
-2.04117e-05
4.72573e-09
0.00465028
-1.94834e-05
5.07949e-09
0.00466889
-1.86127e-05
5.40667e-09
0.00468668
-1.77965e-05
5.71131e-09
0.00470371
-1.70312e-05
5.99962e-09
0.00472002
-1.63134e-05
6.27946e-09
0.00473565
-1.56391e-05
6.55899e-09
0.00475064
-1.50041e-05
6.84561e-09
0.00476504
-1.44031e-05
7.14448e-09
0.00477886
-1.38302e-05
7.45763e-09
0.00479213
-1.32784e-05
7.78359e-09
0.00480487
-1.27398e-05
8.11654e-09
0.00481706
-1.22064e-05
8.44651e-09
0.00482873
-1.16705e-05
8.76024e-09
0.00483984
-1.11262e-05
9.0418e-09
0.0048504
-1.05701e-05
9.27345e-09
0.0048604
-1.00028e-05
9.43732e-09
0.00486982
-9.4292e-06
9.51746e-09
0.00487867
-8.85875e-06
9.50159e-09
0.00488696
-8.30394e-06
9.38263e-09
0.00489473
-7.77869e-06
9.15962e-09
0.00490202
-7.29594e-06
8.83827e-09
0.00490887
-6.8654e-06
8.42988e-09
0.00491536
-6.49192e-06
7.94978e-09
0.00492153
-6.1749e-06
7.41605e-09
0.00492743
-5.90878e-06
6.84713e-09
0.00493311
-5.68454e-06
6.2603e-09
0.00493859
-5.49147e-06
5.66996e-09
0.00494391
-5.31906e-06
5.08733e-09
0.00494906
-5.15835e-06
4.52015e-09
0.00495406
-5.00265e-06
3.97387e-09
0.0049589
-4.84772e-06
3.45109e-09
0.00496359
-4.6914e-06
2.9524e-09
0.00496812
-4.53313e-06
2.47775e-09
0.00497249
-4.3733e-06
2.02715e-09
0.0049767
-4.21282e-06
1.60057e-09
0.00498076
-4.05277e-06
1.19853e-09
0.00498465
-3.89412e-06
8.22939e-10
0.00498839
-3.73774e-06
4.77097e-10
0.00499197
-3.58427e-06
1.63459e-10
0.0049954
-3.43422e-06
-1.17719e-10
0.00499869
-3.28777e-06
-3.62305e-10
0.00500184
-3.14538e-06
-5.94517e-10
0.00500485
-3.00706e-06
-8.12546e-10
0.00500772
-2.8728e-06
-1.01997e-09
0.00501046
-2.74262e-06
-1.22386e-09
0.00501308
-2.61653e-06
-1.43281e-09
0.00501558
-2.49446e-06
-1.65391e-09
0.00501796
-2.37634e-06
-1.8938e-09
0.00502022
-2.2621e-06
-2.15786e-09
0.00502237
-2.15166e-06
-2.44691e-09
0.00502442
-2.04493e-06
-2.75704e-09
0.00502637
-1.94184e-06
-3.07641e-09
0.00502821
-1.84234e-06
-3.38925e-09
0.00502996
-1.74635e-06
-3.67612e-09
0.00503162
-1.6538e-06
-3.92218e-09