/*--------------------------------*- C++ -*----------------------------------*\
| =========                 |                                                 |
| \\      /  F ield         | OpenFOAM: The Open Source CFD Toolbox           |
|  \\    /   O peration     | Version:  2412                                  |
|   \\  /    A nd           | Website:  www.openfoam.com                      |
|    \\/     M anipulation  |                                                 |
\*---------------------------------------------------------------------------*/
FoamFile
{
    version     2.0;
    format      ascii;
    arch        "LSB;label=32;scalar=64";
    class       volVectorField;
    location    "13.5";
    object      U;
}
// * * * * * * * * * * * * * * * * * * * * * * * * * * * * * * * * * * * * * //

dimensions      [0 1 -1 0 0 0 0];

internalField   nonuniform List<vector> 
63420
(
(0.0999997 4.39227e-07 0)
(0.099995 1.27176e-06 0)
(0.0999855 2.06327e-06 0)
(0.0999717 3.10356e-06 0)
(0.0999513 4.87457e-06 0)
(0.0999192 7.65031e-06 0)
(0.0998706 1.11841e-05 0)
(0.0998035 1.47789e-05 0)
(0.0997206 1.76539e-05 0)
(0.0996278 1.93129e-05 0)
(0.099532 1.96958e-05 0)
(0.099439 1.90994e-05 0)
(0.0993523 1.79821e-05 0)
(0.099273 1.67784e-05 0)
(0.0992002 1.57931e-05 0)
(0.0991325 1.5178e-05 0)
(0.0990678 1.49618e-05 0)
(0.0990045 1.50987e-05 0)
(0.0989411 1.55122e-05 0)
(0.0988769 1.61248e-05 0)
(0.0988111 1.68734e-05 0)
(0.0987436 1.77129e-05 0)
(0.0986739 1.86157e-05 0)
(0.0986022 1.95667e-05 0)
(0.0985283 2.05602e-05 0)
(0.0984523 2.15955e-05 0)
(0.0983739 2.26752e-05 0)
(0.0982933 2.38033e-05 0)
(0.0982104 2.49841e-05 0)
(0.0981251 2.62221e-05 0)
(0.0980373 2.75217e-05 0)
(0.0979469 2.8887e-05 0)
(0.097854 3.03218e-05 0)
(0.0977584 3.183e-05 0)
(0.0976599 3.34152e-05 0)
(0.0975587 3.5081e-05 0)
(0.0974544 3.68311e-05 0)
(0.0973471 3.86693e-05 0)
(0.0972367 4.05992e-05 0)
(0.0971231 4.26249e-05 0)
(0.0970061 4.47503e-05 0)
(0.0968857 4.69797e-05 0)
(0.0967618 4.93173e-05 0)
(0.0966344 5.17678e-05 0)
(0.0965032 5.43359e-05 0)
(0.0963682 5.70266e-05 0)
(0.0962294 5.98452e-05 0)
(0.0960865 6.27973e-05 0)
(0.0959396 6.58888e-05 0)
(0.0957884 6.9126e-05 0)
(0.095633 7.25163e-05 0)
(0.0954732 7.60686e-05 0)
(0.0953088 7.97968e-05 0)
(0.0951398 8.373e-05 0)
(0.0949659 8.79406e-05 0)
(0.0999997 1.31769e-06 0)
(0.099995 3.81613e-06 0)
(0.0999855 6.19186e-06 0)
(0.0999717 9.30741e-06 0)
(0.0999514 1.46001e-05 0)
(0.0999195 2.28906e-05 0)
(0.0998711 3.34486e-05 0)
(0.0998046 4.4199e-05 0)
(0.0997222 5.28138e-05 0)
(0.0996299 5.78089e-05 0)
(0.0995344 5.89992e-05 0)
(0.0994416 5.72645e-05 0)
(0.0993549 5.39678e-05 0)
(0.0992754 5.04042e-05 0)
(0.0992025 4.74835e-05 0)
(0.0991346 4.56605e-05 0)
(0.0990697 4.50231e-05 0)
(0.0990061 4.54366e-05 0)
(0.0989426 4.66746e-05 0)
(0.0988783 4.85074e-05 0)
(0.0988125 5.07466e-05 0)
(0.0987448 5.3259e-05 0)
(0.0986752 5.59613e-05 0)
(0.0986035 5.88094e-05 0)
(0.0985297 6.17853e-05 0)
(0.0984536 6.48874e-05 0)
(0.0983754 6.81231e-05 0)
(0.0982949 7.15039e-05 0)
(0.098212 7.50431e-05 0)
(0.0981268 7.87539e-05 0)
(0.0980391 8.26492e-05 0)
(0.0979489 8.67412e-05 0)
(0.0978561 9.10415e-05 0)
(0.0977606 9.55615e-05 0)
(0.0976623 0.000100312 0)
(0.0975612 0.000105304 0)
(0.0974571 0.000110548 0)
(0.09735 0.000116056 0)
(0.0972398 0.000121839 0)
(0.0971263 0.000127908 0)
(0.0970096 0.000134275 0)
(0.0968894 0.000140953 0)
(0.0967658 0.000147956 0)
(0.0966386 0.000155296 0)
(0.0965077 0.000162988 0)
(0.096373 0.000171046 0)
(0.0962344 0.000179488 0)
(0.0960919 0.000188328 0)
(0.0959453 0.000197585 0)
(0.0957946 0.000207278 0)
(0.0956396 0.000217429 0)
(0.0954802 0.000228063 0)
(0.0953163 0.000239223 0)
(0.0951477 0.000250993 0)
(0.0949744 0.000263582 0)
(0.0999997 2.19501e-06 0)
(0.099995 6.35933e-06 0)
(0.0999855 1.03194e-05 0)
(0.0999717 1.54952e-05 0)
(0.0999515 2.42627e-05 0)
(0.0999199 3.7989e-05 0)
(0.0998723 5.54842e-05 0)
(0.0998066 7.33292e-05 0)
(0.0997252 8.76743e-05 0)
(0.0996338 9.60514e-05 0)
(0.0995391 9.81353e-05 0)
(0.0994466 9.53639e-05 0)
(0.09936 8.99811e-05 0)
(0.0992803 8.41272e-05 0)
(0.099207 7.93117e-05 0)
(0.0991387 7.62946e-05 0)
(0.0990733 7.52292e-05 0)
(0.0990094 7.58994e-05 0)
(0.0989456 7.79354e-05 0)
(0.098881 8.09598e-05 0)
(0.0988151 8.46626e-05 0)
(0.0987474 8.88231e-05 0)
(0.0986777 9.33037e-05 0)
(0.0986061 9.80303e-05 0)
(0.0985323 0.000102973 0)
(0.0984564 0.000108128 0)
(0.0983783 0.000113507 0)
(0.0982979 0.000119129 0)
(0.0982152 0.000125016 0)
(0.0981302 0.000131189 0)
(0.0980427 0.00013767 0)
(0.0979528 0.000144478 0)
(0.0978602 0.000151632 0)
(0.097765 0.000159152 0)
(0.097667 0.000167056 0)
(0.0975662 0.00017536 0)
(0.0974625 0.000184085 0)
(0.0973557 0.000193246 0)
(0.0972459 0.000202865 0)
(0.0971328 0.000212959 0)
(0.0970165 0.000223548 0)
(0.0968968 0.000234654 0)
(0.0967736 0.000246298 0)
(0.0966469 0.000258503 0)
(0.0965166 0.000271291 0)
(0.0963825 0.000284688 0)
(0.0962446 0.000298719 0)
(0.0961027 0.000313412 0)
(0.0959569 0.000328796 0)
(0.0958069 0.000344902 0)
(0.0956526 0.000361766 0)
(0.0954941 0.00037943 0)
(0.0953311 0.000397961 0)
(0.0951636 0.000417494 0)
(0.0949913 0.000438362 0)
(0.0999997 3.07043e-06 0)
(0.099995 8.90044e-06 0)
(0.0999855 1.44449e-05 0)
(0.0999718 2.16567e-05 0)
(0.0999517 3.38233e-05 0)
(0.0999206 5.28586e-05 0)
(0.0998738 7.71502e-05 0)
(0.0998095 0.000101991 0)
(0.0997296 0.00012205 0)
(0.0996396 0.000133883 0)
(0.0995458 0.000136999 0)
(0.0994539 0.000133354 0)
(0.0993673 0.000126036 0)
(0.0992874 0.000118005 0)
(0.0992136 0.00011136 0)
(0.0991446 0.000107172 0)
(0.0990787 0.000105667 0)
(0.0990142 0.000106562 0)
(0.09895 0.000109353 0)
(0.0988851 0.000113523 0)
(0.0988189 0.000118646 0)
(0.0987511 0.000124414 0)
(0.0986815 0.000130638 0)
(0.0986099 0.000137213 0)
(0.0985362 0.000144097 0)
(0.0984604 0.000151282 0)
(0.0983825 0.000158785 0)
(0.0983024 0.00016663 0)
(0.09822 0.000174846 0)
(0.0981353 0.000183464 0)
(0.0980482 0.000192513 0)
(0.0979586 0.000202019 0)
(0.0978664 0.000212009 0)
(0.0977716 0.00022251 0)
(0.097674 0.000233545 0)
(0.0975737 0.00024514 0)
(0.0974705 0.00025732 0)
(0.0973642 0.00027011 0)
(0.0972549 0.000283536 0)
(0.0971425 0.000297625 0)
(0.0970268 0.000312404 0)
(0.0969078 0.000327902 0)
(0.0967854 0.000344149 0)
(0.0966595 0.000361176 0)
(0.0965299 0.000379015 0)
(0.0963967 0.000397701 0)
(0.0962597 0.000417268 0)
(0.0961189 0.000437755 0)
(0.095974 0.000459201 0)
(0.0958252 0.00048165 0)
(0.0956721 0.000505149 0)
(0.0955149 0.000529756 0)
(0.0953533 0.000555559 0)
(0.0951872 0.000582732 0)
(0.0950165 0.000611705 0)
(0.0999997 3.9433e-06 0)
(0.099995 1.14384e-05 0)
(0.0999855 1.85672e-05 0)
(0.0999718 2.77828e-05 0)
(0.0999519 4.32478e-05 0)
(0.0999214 6.74225e-05 0)
(0.0998759 9.83226e-05 0)
(0.0998132 0.000130026 0)
(0.0997352 0.000155776 0)
(0.0996468 0.000171161 0)
(0.0995543 0.000175494 0)
(0.0994631 0.000171194 0)
(0.0993767 0.000162141 0)
(0.0992964 0.000152083 0)
(0.099222 0.000143698 0)
(0.0991522 0.000138368 0)
(0.0990855 0.000136412 0)
(0.0990204 0.000137488 0)
(0.0989556 0.000140977 0)
(0.0988903 0.000146232 0)
(0.0988239 0.000152714 0)
(0.098756 0.000160038 0)
(0.0986864 0.000167958 0)
(0.0986148 0.000176341 0)
(0.0985414 0.000185129 0)
(0.0984658 0.000194314 0)
(0.0983882 0.000203912 0)
(0.0983084 0.000213955 0)
(0.0982264 0.000224477 0)
(0.098142 0.000235515 0)
(0.0980553 0.000247107 0)
(0.0979662 0.000259287 0)
(0.0978746 0.000272087 0)
(0.0977803 0.00028554 0)
(0.0976833 0.000299679 0)
(0.0975836 0.000314533 0)
(0.097481 0.000330136 0)
(0.0973755 0.000346518 0)
(0.097267 0.000363713 0)
(0.0971554 0.000381755 0)
(0.0970405 0.000400678 0)
(0.0969224 0.000420519 0)
(0.096801 0.000441316 0)
(0.096676 0.000463107 0)
(0.0965476 0.000485934 0)
(0.0964155 0.000509839 0)
(0.0962798 0.000534868 0)
(0.0961402 0.000561067 0)
(0.0959968 0.000588487 0)
(0.0958494 0.00061718 0)
(0.095698 0.000647206 0)
(0.0955424 0.000678635 0)
(0.0953826 0.000711571 0)
(0.0952185 0.000746213 0)
(0.0950499 0.000783044 0)
(0.0999997 4.81312e-06 0)
(0.099995 1.39721e-05 0)
(0.0999855 2.26851e-05 0)
(0.0999719 3.38656e-05 0)
(0.0999522 5.25079e-05 0)
(0.0999224 8.16181e-05 0)
(0.0998782 0.000118899 0)
(0.0998174 0.000157304 0)
(0.0997416 0.000188715 0)
(0.0996553 0.000207766 0)
(0.0995643 0.000213535 0)
(0.099474 0.000208842 0)
(0.0993877 0.000198297 0)
(0.099307 0.000186394 0)
(0.0992319 0.000176377 0)
(0.0991612 0.000169945 0)
(0.0990937 0.000167519 0)
(0.0990278 0.000168727 0)
(0.0989624 0.000172845 0)
(0.0988967 0.000179109 0)
(0.09883 0.000186879 0)
(0.098762 0.000195692 0)
(0.0986924 0.00020525 0)
(0.098621 0.000215391 0)
(0.0985477 0.000226041 0)
(0.0984724 0.000237187 0)
(0.0983952 0.000248846 0)
(0.0983158 0.000261053 0)
(0.0982342 0.00027385 0)
(0.0981504 0.000287279 0)
(0.0980642 0.000301384 0)
(0.0979757 0.000316205 0)
(0.0978847 0.000331782 0)
(0.0977911 0.000348154 0)
(0.0976949 0.000365358 0)
(0.0975959 0.000383433 0)
(0.0974942 0.000402415 0)
(0.0973895 0.000422344 0)
(0.0972819 0.000443259 0)
(0.0971713 0.0004652 0)
(0.0970575 0.000488209 0)
(0.0969405 0.000512331 0)
(0.0968202 0.000537609 0)
(0.0966966 0.00056409 0)
(0.0965695 0.000591825 0)
(0.0964389 0.000620863 0)
(0.0963046 0.000651259 0)
(0.0961667 0.000683067 0)
(0.096025 0.000716347 0)
(0.0958795 0.000751162 0)
(0.09573 0.000787579 0)
(0.0955765 0.000825678 0)
(0.0954189 0.000865572 0)
(0.0952572 0.000907464 0)
(0.0950912 0.000951841 0)
(0.0999997 5.67909e-06 0)
(0.0999951 1.65004e-05 0)
(0.0999856 2.67967e-05 0)
(0.0999719 3.98984e-05 0)
(0.0999525 6.15823e-05 0)
(0.0999235 9.53985e-05 0)
(0.0998808 0.000138805 0)
(0.0998222 0.000183726 0)
(0.0997487 0.00022076 0)
(0.0996647 0.000243604 0)
(0.0995754 0.000251055 0)
(0.099486 0.000246261 0)
(0.0993999 0.000234496 0)
(0.0993189 0.000220956 0)
(0.099243 0.000209429 0)
(0.0991714 0.000201937 0)
(0.0991029 0.000199026 0)
(0.0990363 0.000200308 0)
(0.0989702 0.000204977 0)
(0.0989041 0.000212166 0)
(0.0988371 0.000221143 0)
(0.098769 0.000231369 0)
(0.0986994 0.0002425 0)
(0.0986282 0.00025434 0)
(0.0985551 0.000266801 0)
(0.0984802 0.000279863 0)
(0.0984034 0.000293542 0)
(0.0983245 0.000307875 0)
(0.0982435 0.000322909 0)
(0.0981602 0.000338692 0)
(0.0980748 0.000355273 0)
(0.0979869 0.000372698 0)
(0.0978967 0.000391012 0)
(0.0978039 0.000410261 0)
(0.0977085 0.000430486 0)
(0.0976105 0.000451733 0)
(0.0975097 0.000474044 0)
(0.0974062 0.000497464 0)
(0.0972997 0.000522039 0)
(0.0971902 0.000547815 0)
(0.0970777 0.000574841 0)
(0.096962 0.000603166 0)
(0.0968432 0.000632844 0)
(0.096721 0.000663927 0)
(0.0965956 0.000696473 0)
(0.0964666 0.000730539 0)
(0.0963342 0.000766187 0)
(0.0961982 0.000803481 0)
(0.0960585 0.000842487 0)
(0.0959152 0.000883276 0)
(0.095768 0.000925923 0)
(0.095617 0.000970513 0)
(0.095462 0.00101716 0)
(0.0953031 0.00106603 0)
(0.0951402 0.00111755 0)
(0.0947861 9.26379e-05 -4.61314e-24)
(0.0945987 9.76089e-05 -4.70102e-24)
(0.0944015 0.000102891 -3.18934e-26)
(0.0941942 0.000108598 1.44378e-23)
(0.0939759 0.000114712 -4.78283e-24)
(0.093746 0.000121257 -4.92023e-24)
(0.0935035 0.000128273 -1.51446e-23)
(0.0932476 0.000135804 1.50387e-23)
(0.0929774 0.000143891 5.14411e-24)
(0.0926917 0.000152582 0)
(0.0923894 0.000161926 5.31244e-24)
(0.0920694 0.000171977 -5.40308e-24)
(0.0917302 0.000182795 4.44352e-23)
(0.0913706 0.000194447 -9.52257e-23)
(0.0909888 0.00020701 5.0895e-23)
(0.0905833 0.000220573 4.12319e-23)
(0.0901521 0.000235246 5.2909e-23)
(0.0896932 0.00025116 -6.058e-24)
(0.0892041 0.000268472 6.18942e-24)
(0.0886824 0.000287369 -6.3285e-24)
(0.0881249 0.000308074 0)
(0.0875282 0.000330854 6.63214e-24)
(0.0868884 0.000356026 -6.79809e-24)
(0.0862008 0.000383959 0)
(0.0854603 0.000415087 -7.16227e-24)
(0.0846606 0.000449914 0)
(0.0837946 0.00048903 -7.57591e-24)
(0.0828543 0.000533126 -1.26971e-22)
(0.08183 0.000583016 1.34826e-22)
(0.0807106 0.000639667 -1.35378e-22)
(0.0794832 0.000704242 1.35171e-22)
(0.0781326 0.000778145 0)
(0.0766409 0.000863089 0)
(0.0749868 0.000961177 1.65874e-22)
(0.0731451 0.00107499 -1.56072e-22)
(0.0710853 0.00120769 0)
(0.068771 0.00136308 0)
(0.0661587 0.00154565 0)
(0.0631961 0.00176042 0)
(0.059822 0.00201253 0)
(0.0559665 0.00230626 0)
(0.0515534 0.00264325 0)
(0.0465072 0.00301929 0)
(0.0407665 0.00341935 0)
(0.0343091 0.00380999 -1.54534e-23)
(0.0271937 0.00412851 -5.31009e-22)
(0.019605 0.00426986 5.30213e-22)
(0.0119314 0.00407275 5.7654e-22)
(0.00511736 0.00328923 -5.75674e-22)
(0.0010454 0.00153297 0)
(0.094795 0.000277614 -4.66579e-24)
(0.0946077 0.000292478 -9.51301e-24)
(0.0944109 0.000308391 -4.98288e-24)
(0.0942039 0.000325461 4.64682e-24)
(0.093986 0.000343736 -4.84822e-24)
(0.0937564 0.000363314 3.47319e-23)
(0.0935144 0.000384311 -5.45458e-23)
(0.093259 0.000406849 5.06472e-24)
(0.0929892 0.000431057 6.75788e-23)
(0.0927042 0.000457074 -9.33357e-23)
(0.0924026 0.000485049 -9.11149e-23)
(0.0920833 0.000515145 8.02873e-23)
(0.091745 0.00054754 0)
(0.0913863 0.000582437 5.60433e-24)
(0.0910056 0.000620066 -1.71249e-23)
(0.0906013 0.000660699 -1.94169e-22)
(0.0901713 0.000704662 1.86328e-22)
(0.0897138 0.000752351 -1.98073e-22)
(0.0892263 0.000804238 -1.85953e-23)
(0.0887062 0.000860881 6.34239e-24)
(0.0881506 0.000922953 0)
(0.087556 0.000991253 -6.64932e-24)
(0.0869185 0.00106673 -2.14263e-22)
(0.0862336 0.00115049 4.4775e-22)
(0.0854961 0.00124383 2.46991e-22)
(0.0846999 0.00134827 -4.65846e-22)
(0.0838381 0.00146556 5.01706e-22)
(0.0829027 0.00159778 -5.09091e-22)
(0.0818843 0.00174735 -8.08006e-24)
(0.0807721 0.00191717 0)
(0.0795533 0.00211071 0)
(0.0782134 0.00233216 0)
(0.0767348 0.00258663 0)
(0.0750971 0.00288037 -9.61165e-24)
(0.0732759 0.00322107 -6.52248e-22)
(0.0712421 0.00361808 -2.79274e-23)
(0.068961 0.00408271 6.78408e-22)
(0.066391 0.00462819 7.39753e-22)
(0.0634827 0.0052693 -7.38773e-22)
(0.0601782 0.00602105 -2.45652e-23)
(0.0564111 0.0068958 -2.5682e-23)
(0.0521088 0.0078978 -8.86739e-22)
(0.0471983 0.00901379 8.57519e-22)
(0.0416172 0.0101981 -2.9258e-23)
(0.0353356 0.0113504 1.55615e-23)
(0.0283919 0.0122835 -1.07965e-21)
(0.0209329 0.0126844 1.07927e-21)
(0.0132816 0.0120742 -2.2536e-21)
(0.00625376 0.00972598 2.21592e-21)
(0.0015079 0.00450037 -2.27076e-21)
(0.0948127 0.000461615 -2.76061e-23)
(0.0946259 0.000486336 -9.67861e-24)
(0.0944296 0.000512806 3.73549e-23)
(0.0942232 0.000541111 -7.68087e-23)
(0.094006 0.000571417 1.64337e-22)
(0.0937772 0.000603901 -7.78419e-23)
(0.093536 0.000638748 1.42258e-26)
(0.0932816 0.000676158 1.01018e-23)
(0.093013 0.000716347 1.76089e-22)
(0.0927292 0.000759545 -1.65639e-22)
(0.0924291 0.000806 0)
(0.0921114 0.000855985 1.46623e-26)
(0.0917749 0.000909799 0)
(0.0914181 0.00096778 1.92495e-22)
(0.0910396 0.00103031 -1.69677e-22)
(0.0906376 0.00109786 -3.65681e-22)
(0.0902103 0.00117095 2.02551e-23)
(0.0897556 0.00125026 -3.84974e-22)
(0.0892712 0.00133658 1.24427e-23)
(0.0887546 0.00143083 -4.12185e-22)
(0.0882028 0.00153413 4.24812e-22)
(0.0876125 0.00164783 -4.32812e-22)
(0.0869798 0.00177348 4.4608e-22)
(0.0863004 0.00191295 1.40387e-23)
(0.0855692 0.00206837 -1.44231e-23)
(0.0847803 0.00224226 1.48322e-23)
(0.0839271 0.00243754 -4.96854e-22)
(0.0830019 0.00265765 5.1215e-22)
(0.0819956 0.0029066 5.45068e-22)
(0.080898 0.00318919 -5.28339e-22)
(0.079697 0.00351115 0)
(0.0783788 0.00387939 0)
(0.076927 0.00430232 1.8582e-23)
(0.0753226 0.0047902 1.28116e-21)
(0.0735432 0.0053556 3.13472e-23)
(0.0715621 0.00601378 -1.29e-21)
(0.0693479 0.00678308 0)
(0.0668634 0.00768484 -2.25755e-23)
(0.0640646 0.00874271 1.57393e-21)
(0.0609001 0.00998033 -3.14347e-21)
(0.0573109 0.0114165 3.33533e-21)
(0.0532314 0.0130563 1.02248e-22)
(0.0485933 0.0148753 -1.73535e-21)
(0.0433323 0.0167955 -1.88212e-21)
(0.0374027 0.0186498 1.93969e-21)
(0.0308013 0.0201302 1.50646e-24)
(0.0235975 0.0207232 -3.30367e-23)
(0.0159855 0.0196424 2.17616e-21)
(0.00850912 0.0157303 -2.10726e-21)
(0.00239689 0.00721152 -2.1076e-21)
(0.0948392 0.000643971 1.81911e-23)
(0.0946531 0.000678421 -9.22917e-24)
(0.0944576 0.000715216 1.95443e-26)
(0.0942521 0.000754575 9.49245e-24)
(0.0940359 0.000796725 -1.96461e-26)
(0.0938083 0.000841906 1.57619e-22)
(0.0935686 0.00089038 -2.97814e-22)
(0.0933157 0.000942424 1.60042e-22)
(0.0930489 0.000998342 -1.02432e-23)
(0.0927671 0.00105846 1.89269e-22)
(0.0924692 0.00112311 -1.68352e-22)
(0.092154 0.0011927 -3.49259e-22)
(0.0918202 0.00126763 7.05147e-22)
(0.0914665 0.00134839 -7.18928e-22)
(0.0910913 0.00143551 7.33385e-22)
(0.090693 0.00152964 -7.3695e-22)
(0.0902697 0.00163154 -3.90116e-22)
(0.0898195 0.00174215 2.27232e-26)
(0.0893401 0.00186256 0)
(0.0888289 0.00199409 -4.01398e-22)
(0.0882832 0.0021383 4.14e-22)
(0.0876996 0.00229705 0)
(0.0870746 0.00247253 -8.93905e-22)
(0.0864039 0.00266733 8.79401e-22)
(0.0856826 0.00288442 1.45604e-23)
(0.0849054 0.00312731 -3.69065e-26)
(0.0840658 0.00340006 1.53906e-23)
(0.0831565 0.00370741 0)
(0.0821694 0.00405496 -5.25848e-26)
(0.0810947 0.00444934 0)
(0.0799215 0.00489845 -1.74821e-23)
(0.0786371 0.00541182 1.18255e-21)
(0.0772269 0.00600099 -1.18222e-21)
(0.075674 0.00668001 -1.9565e-23)
(0.0739588 0.00746598 4.05179e-23)
(0.0720585 0.00837957 -1.39784e-21)
(0.0699466 0.00944539 1.35439e-21)
(0.0675924 0.0106919 2.29659e-23)
(0.0649599 0.0121501 -3.60594e-25)
(0.0620075 0.0138504 2.45383e-23)
(0.0586872 0.0158154 -1.68705e-21)
(0.054944 0.0180479 3.41201e-21)
(0.0507163 0.0205094 -1.77944e-21)
(0.0459372 0.0230878 1.84355e-21)
(0.0405373 0.0255498 -1.92999e-21)
(0.0344501 0.0274752 -3.83906e-21)
(0.0276236 0.0281675 7.83241e-21)
(0.0200587 0.0265512 -3.96528e-21)
(0.0119309 0.0210777 0)
(0.00371803 0.00955003 -3.72504e-21)
(0.0948743 0.000823994 -9.02263e-24)
(0.0946891 0.000867915 -3.68474e-23)
(0.0944947 0.000914823 1.11689e-22)
(0.0942905 0.000964996 -1.50788e-22)
(0.0940758 0.00101873 6.64069e-23)
(0.0938499 0.00107632 9.73529e-24)
(0.0936121 0.00113812 -9.89633e-24)
(0.0933615 0.00120447 -2.47035e-26)
(0.0930972 0.00127578 1.02412e-23)
(0.0928181 0.00135245 -2.08273e-23)
(0.0925233 0.00143493 -3.42639e-22)
(0.0922115 0.00152371 3.53616e-22)
(0.0918816 0.00161934 -3.45286e-22)
(0.0915321 0.00172243 3.56433e-22)
(0.0911616 0.00183368 0)
(0.0907685 0.00195392 -2.50984e-26)
(0.0903509 0.00208414 0)
(0.089907 0.00222554 -3.84887e-22)
(0.0894346 0.00237953 4.09896e-22)
(0.0889312 0.00254779 -1.28802e-23)
(0.0883941 0.00273233 -8.68206e-22)
(0.0878202 0.00293553 8.55389e-22)
(0.0872061 0.00316019 -1.39136e-23)
(0.0865478 0.0034096 0)
(0.0858409 0.00368756 0)
(0.0850803 0.00399851 -9.97737e-22)
(0.08426 0.00434761 9.67426e-22)
(0.0833736 0.0047409 0)
(0.0824136 0.00518544 -3.32072e-23)
(0.0813714 0.00568961 0)
(0.0802373 0.00626336 1.77889e-23)
(0.0790004 0.00691865 -1.83413e-23)
(0.0776483 0.00766989 -1.91076e-23)
(0.076167 0.00853453 1.97057e-23)
(0.0745407 0.00953366 1.29766e-21)
(0.0727516 0.0106926 -1.33932e-21)
(0.0707799 0.0120412 2.91526e-21)
(0.0686033 0.0136134 -2.91716e-21)
(0.0661966 0.0154457 3.10132e-21)
(0.0635312 0.0175726 9.19683e-23)
(0.0605736 0.0200176 -3.27094e-21)
(0.0572829 0.0227777 -2.61638e-23)
(0.0536071 0.0257977 1.29081e-24)
(0.0494763 0.0289306 1.71526e-24)
(0.0447922 0.0318822 2.27199e-24)
(0.0394089 0.034135 -5.677e-23)
(0.0331117 0.0348429 -2.60341e-23)
(0.0256303 0.0326829 -2.47219e-23)
(0.0166601 0.0257315 0)
(0.00549606 0.0115079 7.79177e-24)
(0.0949177 0.00100108 -4.47738e-23)
(0.0947337 0.00105425 2.6933e-23)
(0.0945408 0.00111107 9.21215e-24)
(0.0943384 0.00117185 1.41374e-22)
(0.0941257 0.00123696 -1.4143e-22)
(0.0939022 0.00130677 1.46262e-22)
(0.093667 0.00138169 -3.2464e-22)
(0.0934194 0.00146217 4.62092e-22)
(0.0931583 0.00154867 -3.23657e-22)
(0.092883 0.00164171 -3.35641e-22)
(0.0925923 0.00174184 -1.67936e-23)
(0.0922851 0.00184965 6.81432e-22)
(0.0919602 0.00196581 -7.17676e-22)
(0.0916164 0.00209109 3.34715e-22)
(0.0912521 0.00222634 3.61127e-22)
(0.0908658 0.0023726 3.77434e-22)
(0.0904559 0.00253107 -2.89887e-23)
(0.0900204 0.00270325 7.69253e-22)
(0.0895574 0.00289086 7.94263e-22)
(0.0890644 0.00309598 2.00143e-23)
(0.0885389 0.00332105 -8.42e-22)
(0.0879782 0.00356898 0)
(0.0873789 0.0038432 0)
(0.0867376 0.00414769 -9.38639e-22)
(0.0860502 0.00448709 9.25158e-22)
(0.085312 0.00486677 9.96817e-22)
(0.0845181 0.00529297 -9.98294e-22)
(0.0836626 0.00577299 0)
(0.0827391 0.00631533 1.11518e-21)
(0.0817404 0.00693004 -1.11733e-21)
(0.0806586 0.00762904 0)
(0.0794848 0.00842652 -2.42058e-21)
(0.0782095 0.00933948 2.443e-21)
(0.0768223 0.0103883 -2.02029e-23)
(0.075312 0.0115973 -2.70501e-21)
(0.0736673 0.0129953 2.7301e-21)
(0.0718765 0.0146154 0)
(0.0699277 0.0164945 3.07114e-21)
(0.0678092 0.0186703 -3.05221e-21)
(0.0655085 0.0211759 2.4767e-23)
(0.0630104 0.0240285 3.37714e-21)
(0.0602925 0.0272111 -6.77852e-21)
(0.0573163 0.0306427 1.69204e-23)
(0.0540127 0.0341359 3.57588e-23)
(0.0502553 0.0373374 3.52254e-21)
(0.0458161 0.0396528 3.94045e-24)
(0.0402999 0.0401378 -3.01945e-21)
(0.0330891 0.0373235 3.09538e-21)
(0.0231573 0.0290764 0)
(0.00798993 0.0127862 2.72448e-23)
(0.0949692 0.00117444 8.81899e-24)
(0.094787 0.00123635 8.12252e-23)
(0.0945962 0.00130258 -7.24352e-23)
(0.0943962 0.0013735 9.29568e-24)
(0.0941864 0.00144952 1.42855e-22)
(0.093966 0.00153108 -1.43083e-22)
(0.0937343 0.00161868 -3.06427e-22)
(0.0934905 0.00171282 4.64031e-24)
(0.0932338 0.00181407 -5.63795e-24)
(0.0929633 0.00192302 3.40203e-22)
(0.0926779 0.00204034 -3.32191e-22)
(0.0923766 0.00216675 7.04849e-22)
(0.0920584 0.00230304 -3.51184e-22)
(0.0917218 0.00245012 1.13488e-23)
(0.0913656 0.00260905 1.16121e-23)
(0.0909884 0.00278104 7.6797e-22)
(0.0905884 0.00296758 -4.93085e-24)
(0.0901641 0.00317044 8.0156e-22)
(0.0897134 0.00339171 1.28097e-23)
(0.0892342 0.00363386 0)
(0.0887243 0.00389983 0)
(0.0881812 0.0041931 -8.99323e-22)
(0.0876019 0.00451774 9.01596e-22)
(0.0869833 0.0048785 0)
(0.086322 0.00528088 1.51702e-23)
(0.0856141 0.00573125 0)
(0.0848554 0.00623702 -1.04799e-21)
(0.0840412 0.0068068 2.13384e-21)
(0.0831664 0.00745064 -1.08593e-21)
(0.0822255 0.00818036 -2.30254e-21)
(0.0812126 0.00900989 -7.80201e-23)
(0.0801215 0.00995576 -8.24657e-23)
(0.0789461 0.0110376 -8.68459e-23)
(0.0776801 0.0122785 2.59157e-21)
(0.0763182 0.0137056 2.78344e-21)
(0.0748557 0.0153504 -2.79007e-21)
(0.0732899 0.0172474 0)
(0.0716206 0.0194332 3.09392e-21)
(0.0698503 0.0219415 -3.1011e-21)
(0.0679837 0.024795 -3.29867e-21)
(0.0660256 0.0279914 3.28051e-21)
(0.0639742 0.0314808 2.68512e-23)
(0.0618089 0.0351327 3.30499e-21)
(0.0594679 0.038692 -1.07126e-22)
(0.0568117 0.0417244 -3.26595e-21)
(0.0535564 0.0435601 2.49186e-23)
(0.0491788 0.0432267 0)
(0.0427989 0.0393153 -1.97405e-23)
(0.0325074 0.0299052 -9.02636e-22)
(0.0128847 0.0127262 4.45468e-22)
(-0.00025133 0.000319125 0)
(-0.00100252 0.000537321 3.08445e-22)
(-0.00196971 0.000498275 -3.08908e-22)
(-0.00273054 0.000318365 -3.0033e-22)
(-0.00307543 6.46639e-05 3.00782e-22)
(-0.00292977 -0.000219579 -8.99906e-24)
(-0.00227303 -0.000510054 0)
(-0.00110733 -0.000789822 0)
(0.000541179 -0.0010477 0)
(0.00262987 -0.00127799 0)
(0.00510793 -0.00147751 0)
(0.0079213 -0.00164489 0)
(0.0110141 -0.00178017 0)
(0.014331 -0.00188437 0)
(0.0178185 -0.0019592 0)
(0.0214263 -0.00200682 5.00149e-23)
(0.0251078 -0.00202971 -4.71808e-23)
(0.0288207 -0.00203051 0)
(0.0325269 -0.00201192 0)
(0.0361933 -0.00197664 -2.27575e-23)
(0.0397912 -0.00192728 2.27923e-23)
(0.0432964 -0.00186635 -1.23617e-23)
(0.046689 -0.0017962 7.32122e-25)
(0.0499532 -0.001719 0)
(0.0530769 -0.00163671 3.34886e-25)
(0.0560514 -0.00155106 0)
(0.058871 -0.00146358 0)
(0.0615326 -0.00137562 0)
(0.0640357 -0.00128835 -1.05923e-25)
(0.0663817 -0.00120275 0)
(0.0685737 -0.00111962 2.03242e-25)
(0.0706162 -0.0010396 -2.31373e-25)
(0.072515 -0.000963173 2.4899e-25)
(0.0742764 -0.000890708 -2.38399e-24)
(0.0759078 -0.000822439 2.38963e-24)
(0.0774165 -0.000758497 1.81551e-24)
(0.0788104 -0.000698924 -3.82645e-24)
(0.0800973 -0.000643684 2.00387e-24)
(0.0812849 -0.000592675 2.28491e-25)
(0.0823809 -0.000545748 -2.14903e-25)
(0.0833924 -0.000502712 0)
(0.0843265 -0.000463351 -1.85408e-25)
(0.0851897 -0.00042743 8.30227e-25)
(0.0859881 -0.000394702 -8.1623e-25)
(0.0867275 -0.000364921 1.40524e-25)
(0.0874129 -0.000337841 -3.68186e-25)
(0.0880494 -0.000313226 1.29811e-25)
(0.0886412 -0.000290848 1.93803e-25)
(0.0891923 -0.000270494 -9.45708e-26)
(0.0897063 -0.000251962 7.50954e-26)
(-0.000312093 0.00091766 -1.18586e-21)
(-0.00107885 0.00152799 -1.28648e-21)
(-0.0018963 0.00140786 1.26792e-21)
(-0.00244892 0.000880794 -5.93289e-22)
(-0.00257623 0.000139205 5.94656e-22)
(-0.00222865 -0.000697281 9.06144e-24)
(-0.00139938 -0.00155135 -1.75975e-23)
(-9.24916e-05 -0.00237397 -5.24481e-22)
(0.00166476 -0.00313252 5.08538e-22)
(0.0038304 -0.00381121 -1.43679e-23)
(0.00635688 -0.00440006 -1.31483e-23)
(0.00919362 -0.00489473 3.54837e-22)
(0.0122883 -0.00529513 -3.55309e-22)
(0.015589 -0.00560406 -2.77169e-22)
(0.0190457 -0.00582637 3.69769e-23)
(0.022611 -0.00596831 2.40882e-22)
(0.026241 -0.00603707 -2.92438e-24)
(0.0298958 -0.00604036 -5.10835e-24)
(0.0335395 -0.00598613 0)
(0.0371408 -0.00588228 0)
(0.0406723 -0.00573654 0)
(0.0441113 -0.00555629 -9.90778e-25)
(0.0474387 -0.0053485 3.91405e-23)
(0.0506397 -0.00511963 -4.27026e-23)
(0.0537027 -0.00487545 1.75342e-23)
(0.0566195 -0.00462115 -1.33504e-23)
(0.0593848 -0.0043613 -5.55959e-24)
(0.0619957 -0.00409994 1.01113e-24)
(0.0644518 -0.00384054 1.06196e-25)
(0.0667545 -0.003586 2.58834e-25)
(0.0689069 -0.00333874 -2.03685e-25)
(0.0709134 -0.00310066 6.42568e-25)
(0.0727795 -0.00287324 -7.68083e-24)
(0.0745117 -0.00265754 1.62436e-23)
(0.0761168 -0.00245429 -7.87884e-24)
(0.0776021 -0.00226387 7.40276e-25)
(0.0789752 -0.00208643 -2.50822e-25)
(0.0802437 -0.00192184 0)
(0.0814151 -0.00176983 3.69227e-24)
(0.0824967 -0.00162995 -3.27682e-24)
(0.0834957 -0.00150163 -2.65517e-24)
(0.0844188 -0.00138425 3.58116e-24)
(0.0852723 -0.0012771 -1.70231e-25)
(0.0860622 -0.00117945 -7.12544e-25)
(0.086794 -0.00109057 1.29505e-24)
(0.0874729 -0.00100974 1.26137e-25)
(0.0881036 -0.000936256 7.4467e-25)
(0.0886903 -0.000869436 3.96119e-26)
(0.0892369 -0.000808645 -2.07694e-25)
(0.0897469 -0.000753277 -2.34389e-25)
(-0.000420141 0.00139749 -1.24773e-21)
(-0.0011922 0.00227053 1.35211e-21)
(-0.00169534 0.0020646 -1.31168e-21)
(-0.00183948 0.00122339 -1.99821e-23)
(-0.00155368 4.61955e-05 -5.85316e-25)
(-0.000825903 -0.00129125 -1.1626e-21)
(0.000331438 -0.00265216 1.20077e-21)
(0.00190401 -0.00396463 1.07079e-21)
(0.00386293 -0.00518135 -5.81185e-23)
(0.0061686 -0.00627365 -1.86995e-21)
(0.00878117 -0.00722401 1.73968e-21)
(0.0116566 -0.00802481 -8.1088e-22)
(0.0147496 -0.0086751 -1.12131e-23)
(0.0180148 -0.00917864 0)
(0.0214086 -0.00954263 5.15855e-22)
(0.0248894 -0.00977665 -7.89374e-23)
(0.0284185 -0.00989192 -4.30159e-22)
(0.0319604 -0.00990062 1.06579e-23)
(0.0354832 -0.0098154 0)
(0.0389588 -0.00964897 0)
(0.0423629 -0.00941375 8.2067e-23)
(0.0456747 -0.00912171 -7.97429e-23)
(0.0488774 -0.00878416 -4.5851e-23)
(0.0519574 -0.0084116 4.86883e-23)
(0.0549043 -0.0080136 9.79054e-25)
(0.057711 -0.00759856 -6.47543e-25)
(0.0603725 -0.00717403 3.75769e-25)
(0.0628865 -0.00674663 3.74918e-25)
(0.0652527 -0.00632209 -2.18559e-25)
(0.0674727 -0.00590522 8.00364e-24)
(0.0695493 -0.00549999 -8.423e-24)
(0.0714869 -0.00510958 -4.12357e-25)
(0.0732906 -0.00473643 -1.40036e-23)
(0.0749666 -0.00438234 2.80784e-23)
(0.0765213 -0.00404851 -1.5046e-23)
(0.0779617 -0.00373562 -7.79947e-24)
(0.0792949 -0.0034439 6.89817e-24)
(0.0805279 -0.00317322 0)
(0.0816681 -0.0029231 -3.82758e-26)
(0.0827221 -0.00269284 0)
(0.0836969 -0.00248155 -5.73389e-24)
(0.0845986 -0.00228817 5.35473e-24)
(0.0854334 -0.00211159 -3.01335e-25)
(0.0862068 -0.00195061 -2.15879e-26)
(0.0869242 -0.00180405 -1.99898e-24)
(0.0875904 -0.0016707 3.52814e-24)
(0.0882098 -0.00154944 -1.78776e-24)
(0.0887866 -0.00143914 6.74364e-25)
(0.0893244 -0.00133875 -5.43549e-25)
(0.0898266 -0.00124727 -1.67185e-25)
(-0.000540219 0.00165234 -2.74237e-21)
(-0.00124439 0.00262917 0)
(-0.00124879 0.00233063 2.76811e-21)
(-0.000808276 0.00122348 -5.49624e-21)
(5.0442e-05 -0.00031008 2.74808e-21)
(0.00129906 -0.0020466 1.20512e-21)
(0.00290509 -0.00382526 -1.26489e-21)
(0.00482771 -0.00555128 1.11125e-21)
(0.00704584 -0.00716093 -2.16341e-21)
(0.00952929 -0.00861226 1.03561e-21)
(0.0122456 -0.00988121 1.46178e-23)
(0.0151602 -0.0109559 5.91968e-25)
(0.0182377 -0.0118333 1.14055e-23)
(0.0214425 -0.0125167 -6.34318e-22)
(0.0247396 -0.0130143 6.14985e-22)
(0.0280953 -0.0133379 1.59238e-23)
(0.0314779 -0.0135016 -6.59858e-24)
(0.0348581 -0.0135211 3.40354e-22)
(0.0382091 -0.013413 -3.40017e-22)
(0.0415075 -0.013194 -4.21947e-24)
(0.0447323 -0.0128807 0)
(0.0478662 -0.0124892 3.3966e-25)
(0.0508945 -0.0120346 0)
(0.0538058 -0.0115312 1.67403e-24)
(0.056591 -0.0109922 2.55259e-25)
(0.0592442 -0.010429 6.53668e-25)
(0.0617613 -0.009852 -2.29908e-23)
(0.0641404 -0.00927023 2.2806e-23)
(0.0663815 -0.00869161 0)
(0.0684861 -0.0081228 4.70778e-24)
(0.0704571 -0.00756931 -4.68128e-24)
(0.0722985 -0.00703558 0)
(0.0740151 -0.00652502 -1.05771e-25)
(0.0756125 -0.00604016 1.25603e-23)
(0.0770967 -0.00558271 -2.51168e-23)
(0.078474 -0.00515365 2.53569e-23)
(0.079751 -0.00475336 -2.52415e-23)
(0.0809343 -0.00438169 2.47733e-23)
(0.0820303 -0.00403805 -1.22552e-23)
(0.0830455 -0.00372152 -5.51724e-24)
(0.0839859 -0.0034309 4.85634e-24)
(0.0848574 -0.00316477 2.90029e-25)
(0.0856655 -0.00292163 4.42388e-24)
(0.0864156 -0.00269987 -8.90893e-24)
(0.0871124 -0.00249786 3.97126e-24)
(0.0877604 -0.00231399 2.35837e-26)
(0.0883638 -0.0021467 -1.98736e-25)
(0.0889263 -0.00199448 -1.89531e-26)
(0.0894516 -0.00185586 1.5229e-25)
(0.0899426 -0.00172944 -2.46182e-25)
(-0.000555714 0.00160614 -2.09973e-24)
(-0.00100501 0.00252772 -2.58778e-23)
(-0.000357564 0.00212367 -2.47972e-23)
(0.000807391 0.000829329 -2.37551e-23)
(0.00235778 -0.000954183 -4.46201e-23)
(0.00420258 -0.00297086 -8.28089e-25)
(0.00629861 -0.00505707 1.99023e-23)
(0.00860556 -0.00709668 -1.95065e-23)
(0.011101 -0.00901263 -1.82839e-23)
(0.0137643 -0.0107539 2.02826e-21)