/*--------------------------------*- C++ -*----------------------------------*\
| =========                 |                                                 |
| \\      /  F ield         | OpenFOAM: The Open Source CFD Toolbox           |
|  \\    /   O peration     | Version:  2412                                  |
|   \\  /    A nd           | Website:  www.openfoam.com                      |
|    \\/     M anipulation  |                                                 |
\*---------------------------------------------------------------------------*/
FoamFile
{
    version     2.0;
    format      ascii;
    arch        "LSB;label=32;scalar=64";
    class       volVectorField;
    location    "13.5";
    object      vorticity;
}
// * * * * * * * * * * * * * * * * * * * * * * * * * * * * * * * * * * * * * //

dimensions      [0 0 -1 0 0 0 0];

internalField   nonuniform List<vector> 
63420
(
(0 0 5.81544e-06)
(0 0 5.5619e-06)
(0 0 6.41449e-06)
(0 0 1.00386e-05)
(0 0 1.60661e-05)
(0 0 2.12738e-05)
(0 0 2.15816e-05)
(0 0 1.49308e-05)
(0 0 2.56881e-06)
(0 0 -1.18927e-05)
(0 0 -2.45084e-05)
(0 0 -3.26556e-05)
(0 0 -3.56054e-05)
(0 0 -3.41546e-05)
(0 0 -2.98515e-05)
(0 0 -2.42907e-05)
(0 0 -1.86971e-05)
(0 0 -1.38025e-05)
(0 0 -9.90915e-06)
(0 0 -7.02874e-06)
(0 0 -5.01908e-06)
(0 0 -3.68501e-06)
(0 0 -2.83771e-06)
(0 0 -2.32149e-06)
(0 0 -2.02007e-06)
(0 0 -1.85248e-06)
(0 0 -1.76538e-06)
(0 0 -1.72505e-06)
(0 0 -1.71094e-06)
(0 0 -1.7109e-06)
(0 0 -1.71794e-06)
(0 0 -1.7281e-06)
(0 0 -1.73916e-06)
(0 0 -1.7499e-06)
(0 0 -1.75961e-06)
(0 0 -1.7679e-06)
(0 0 -1.7745e-06)
(0 0 -1.77929e-06)
(0 0 -1.78214e-06)
(0 0 -1.78295e-06)
(0 0 -1.78161e-06)
(0 0 -1.77805e-06)
(0 0 -1.77214e-06)
(0 0 -1.76377e-06)
(0 0 -1.75279e-06)
(0 0 -1.73902e-06)
(0 0 -1.72219e-06)
(0 0 -1.70182e-06)
(0 0 -1.67652e-06)
(0 0 -1.64167e-06)
(0 0 -1.58147e-06)
(0 0 -1.4427e-06)
(0 0 -1.05157e-06)
(0 0 1.40414e-07)
(0 4.57747e-23 3.8046e-06)
(0 0 1.74495e-05)
(0 0 1.66932e-05)
(0 0 1.92254e-05)
(0 0 3.00178e-05)
(0 0 4.80063e-05)
(0 0 6.36199e-05)
(0 0 6.47031e-05)
(0 0 4.5086e-05)
(0 0 8.43044e-06)
(0 0 -3.45496e-05)
(0 0 -7.21199e-05)
(0 0 -9.6458e-05)
(0 0 -0.000105367)
(0 0 -0.000101191)
(0 0 -8.85163e-05)
(0 0 -7.2077e-05)
(0 0 -5.55149e-05)
(0 0 -4.10091e-05)
(0 0 -2.94635e-05)
(0 0 -2.09173e-05)
(0 0 -1.49521e-05)
(0 0 -1.09907e-05)
(0 0 -8.47393e-06)
(0 0 -6.94039e-06)
(0 0 -6.04533e-06)
(0 0 -5.54862e-06)
(0 0 -5.29177e-06)
(0 0 -5.17462e-06)
(0 0 -5.13604e-06)
(0 0 -5.13985e-06)
(0 0 -5.16516e-06)
(0 0 -5.20014e-06)
(0 0 -5.23817e-06)
(0 0 -5.27554e-06)
(0 0 -5.3102e-06)
(0 0 -5.34096e-06)
(0 0 -5.36709e-06)
(0 0 -5.3881e-06)
(0 0 -5.40364e-06)
(0 0 -5.41339e-06)
(0 0 -5.41705e-06)
(0 0 -5.41431e-06)
(0 0 -5.40485e-06)
(0 0 -5.38828e-06)
(0 0 -5.36417e-06)
(0 0 -5.33202e-06)
(0 0 -5.29107e-06)
(0 0 -5.23988e-06)
(0 0 -5.17438e-06)
(0 0 -5.0812e-06)
(0 0 -4.91461e-06)
(0 0 -4.52025e-06)
(0 0 -3.39356e-06)
(0 0 6.11581e-08)
(0 4.62407e-23 1.07155e-05)
(0 0 2.90763e-05)
(0 0 2.78263e-05)
(0 0 3.19738e-05)
(0 0 4.97571e-05)
(0 0 7.95347e-05)
(0 0 0.000105628)
(0 0 0.000107989)
(0 0 7.63135e-05)
(0 0 1.64538e-05)
(0 0 -5.40722e-05)
(0 0 -0.000115972)
(0 0 -0.000156312)
(0 0 -0.000171381)
(0 0 -0.000164943)
(0 0 -0.000144483)
(0 0 -0.000117755)
(0 0 -9.07449e-05)
(0 0 -6.70465e-05)
(0 0 -4.81615e-05)
(0 0 -3.41703e-05)
(0 0 -2.43974e-05)
(0 0 -1.79035e-05)
(0 0 -1.37755e-05)
(0 0 -1.12589e-05)
(0 0 -9.78936e-06)
(0 0 -8.97351e-06)
(0 0 -8.55154e-06)
(0 0 -8.35913e-06)
(0 0 -8.296e-06)
(0 0 -8.30274e-06)
(0 0 -8.345e-06)
(0 0 -8.40333e-06)
(0 0 -8.46685e-06)
(0 0 -8.5295e-06)
(0 0 -8.58789e-06)
(0 0 -8.64003e-06)
(0 0 -8.68476e-06)
(0 0 -8.72128e-06)
(0 0 -8.74898e-06)
(0 0 -8.76735e-06)
(0 0 -8.7759e-06)
(0 0 -8.77409e-06)
(0 0 -8.7614e-06)
(0 0 -8.73721e-06)
(0 0 -8.70083e-06)
(0 0 -8.65142e-06)
(0 0 -8.58778e-06)
(0 0 -8.5076e-06)
(0 0 -8.40457e-06)
(0 0 -8.25797e-06)
(0 0 -7.99694e-06)
(0 0 -7.38199e-06)
(0 0 -5.62731e-06)
(0 0 -2.37334e-07)
(0 2.72931e-22 1.64379e-05)
(0 0 4.06908e-05)
(0 0 3.89618e-05)
(0 0 4.46214e-05)
(0 0 6.911e-05)
(0 0 0.000110398)
(0 0 0.000147084)
(0 0 0.000151522)
(0 0 0.00010924)
(0 0 2.79225e-05)
(0 0 -6.85879e-05)
(0 0 -0.000153811)
(0 0 -0.000209845)
(0 0 -0.000231392)
(0 0 -0.000223435)
(0 0 -0.000196125)
(0 0 -0.000160053)
(0 0 -0.00012343)
(0 0 -9.12104e-05)
(0 0 -6.54883e-05)
(0 0 -4.64062e-05)
(0 0 -3.30632e-05)
(0 0 -2.41889e-05)
(0 0 -1.85431e-05)
(0 0 -1.50985e-05)
(0 0 -1.30853e-05)
(0 0 -1.19663e-05)
(0 0 -1.13866e-05)
(0 0 -1.11214e-05)
(0 0 -1.10335e-05)
(0 0 -1.10416e-05)
(0 0 -1.10986e-05)
(0 0 -1.11779e-05)
(0 0 -1.12645e-05)
(0 0 -1.13502e-05)
(0 0 -1.14303e-05)
(0 0 -1.1502e-05)
(0 0 -1.15638e-05)
(0 0 -1.16147e-05)
(0 0 -1.16536e-05)
(0 0 -1.168e-05)
(0 0 -1.16932e-05)
(0 0 -1.16924e-05)
(0 0 -1.1677e-05)
(0 0 -1.1646e-05)
(0 0 -1.15986e-05)
(0 0 -1.15336e-05)
(0 0 -1.14495e-05)
(0 0 -1.13431e-05)
(0 0 -1.12067e-05)
(0 0 -1.10142e-05)
(0 0 -1.06776e-05)
(0 0 -9.8979e-06)
(0 0 -7.68942e-06)
(0 0 -8.98789e-07)
(0 -1.79205e-22 2.02124e-05)
(0 0 5.22879e-05)
(0 0 5.00989e-05)
(0 0 5.71346e-05)
(0 0 8.79489e-05)
(0 0 0.000140372)
(0 0 0.000187789)
(0 0 0.00019535)
(0 0 0.000144371)
(0 0 4.38989e-05)
(0 0 -7.65299e-05)
(0 0 -0.00018374)
(0 0 -0.000255054)
(0 0 -0.00028349)
(0 0 -0.000274987)
(0 0 -0.000242062)
(0 0 -0.000197894)
(0 0 -0.000152759)
(0 0 -0.000112905)
(0 0 -8.10098e-05)
(0 0 -5.73051e-05)
(0 0 -4.07059e-05)
(0 0 -2.96526e-05)
(0 0 -2.26129e-05)
(0 0 -1.8313e-05)
(0 0 -1.57967e-05)
(0 0 -1.43958e-05)
(0 0 -1.36681e-05)
(0 0 -1.33334e-05)
(0 0 -1.32205e-05)
(0 0 -1.32279e-05)
(0 0 -1.32968e-05)
(0 0 -1.33939e-05)
(0 0 -1.35004e-05)
(0 0 -1.36062e-05)
(0 0 -1.37052e-05)
(0 0 -1.37942e-05)
(0 0 -1.38712e-05)
(0 0 -1.39347e-05)
(0 0 -1.39837e-05)
(0 0 -1.40174e-05)
(0 0 -1.4035e-05)
(0 0 -1.40354e-05)
(0 0 -1.40179e-05)
(0 0 -1.39814e-05)
(0 0 -1.39248e-05)
(0 0 -1.38465e-05)
(0 0 -1.37448e-05)
(0 0 -1.36162e-05)
(0 0 -1.34518e-05)
(0 0 -1.32234e-05)
(0 0 -1.28354e-05)
(0 0 -1.1964e-05)
(0 0 -9.53458e-06)
(0 0 -2.06957e-06)
(0 8.84689e-23 2.13339e-05)
(0 0 6.3863e-05)
(0 0 6.12354e-05)
(0 0 6.94857e-05)
(0 0 0.000106171)
(0 0 0.000169272)
(0 0 0.000227568)
(0 0 0.000239471)
(0 0 0.000182048)
(0 0 6.51533e-05)
(0 0 -7.67345e-05)
(0 0 -0.000204332)
(0 0 -0.000290419)
(0 0 -0.000326221)
(0 0 -0.000318318)
(0 0 -0.000281237)
(0 0 -0.000230449)
(0 0 -0.000178111)
(0 0 -0.000131676)
(0 0 -9.43965e-05)
(0 0 -6.66262e-05)
(0 0 -4.71447e-05)
(0 0 -3.41522e-05)
(0 0 -2.58657e-05)
(0 0 -2.07972e-05)
(0 0 -1.78263e-05)
(0 0 -1.61687e-05)
(0 0 -1.53046e-05)
(0 0 -1.49043e-05)
(0 0 -1.47661e-05)
(0 0 -1.47703e-05)
(0 0 -1.48476e-05)
(0 0 -1.49586e-05)
(0 0 -1.50814e-05)
(0 0 -1.52036e-05)
(0 0 -1.53184e-05)
(0 0 -1.54219e-05)
(0 0 -1.55115e-05)
(0 0 -1.55858e-05)
(0 0 -1.56436e-05)
(0 0 -1.56837e-05)
(0 0 -1.57052e-05)
(0 0 -1.57071e-05)
(0 0 -1.56883e-05)
(0 0 -1.56477e-05)
(0 0 -1.55837e-05)
(0 0 -1.54949e-05)
(0 0 -1.53791e-05)
(0 0 -1.52327e-05)
(0 0 -1.50466e-05)
(0 0 -1.47933e-05)
(0 0 -1.43807e-05)
(0 0 -1.35001e-05)
(0 0 -1.11261e-05)
(0 0 -3.89192e-06)
(0 4.36516e-22 1.91042e-05)
(0 0 7.54086e-05)
(0 0 7.23667e-05)
(0 0 8.16538e-05)
(0 0 0.000123704)
(0 0 0.000196961)
(0 0 0.000266268)
(0 0 0.000283831)
(0 0 0.000222429)
(0 0 9.21205e-05)
(0 0 -6.85023e-05)
(0 0 -0.000214703)
(0 0 -0.000314981)
(0 0 -0.000358652)
(0 0 -0.000352601)
(0 0 -0.000312966)
(0 0 -0.000257185)
(0 0 -0.000199085)
(0 0 -0.000147232)
(0 0 -0.000105441)
(0 0 -7.42213e-05)
(0 0 -5.22713e-05)
(0 0 -3.7605e-05)
(0 0 -2.82351e-05)
(0 0 -2.2494e-05)
(0 0 -1.91223e-05)
(0 0 -1.72359e-05)
(0 0 -1.62482e-05)
(0 0 -1.57865e-05)
(0 0 -1.56225e-05)
(0 0 -1.56207e-05)
(0 0 -1.57024e-05)
(0 0 -1.58231e-05)
(0 0 -1.59577e-05)
(0 0 -1.60923e-05)
(0 0 -1.62192e-05)
(0 0 -1.63337e-05)
(0 0 -1.64333e-05)
(0 0 -1.65161e-05)
(0 0 -1.65807e-05)
(0 0 -1.6626e-05)
(0 0 -1.66508e-05)
(0 0 -1.66541e-05)
(0 0 -1.66345e-05)
(0 0 -1.65909e-05)
(0 0 -1.65216e-05)
(0 0 -1.64248e-05)
(0 0 -1.62984e-05)
(0 0 -1.61386e-05)
(0 0 -1.59369e-05)
(0 0 -1.5669e-05)
(0 0 -1.52565e-05)
(0 0 -1.44449e-05)
(0 0 -1.24141e-05)
(0 0 -6.49041e-06)
(0 -8.54093e-23 1.27023e-05)
(-1.60138e-23 7.98142e-21 2.04355e-06)
(-1.48706e-22 7.84748e-21 1.4984e-06)
(3.41591e-23 -1.99273e-22 7.3481e-07)
(3.55257e-23 -2.34368e-20 -3.02495e-07)
(-9.35957e-23 8.01012e-21 -1.67004e-06)
(3.68993e-22 7.86826e-21 -3.428e-06)
(-8.02257e-22 2.29369e-20 -5.63752e-06)
(3.1371e-22 -2.33119e-20 -8.36441e-06)
(6.32947e-22 -7.49946e-21 -1.16792e-05)
(-9.06825e-22 -3.73936e-24 -1.56544e-05)
(-9.07615e-22 -7.51845e-21 -2.03584e-05)
(7.95244e-22 7.13877e-21 -2.58484e-05)
(5.64767e-22 -5.88586e-20 -3.21624e-05)
(-1.0392e-21 1.26396e-19 -3.93101e-05)
(3.53778e-22 -6.80221e-20 -4.7261e-05)
(-1.24773e-21 -5.12941e-20 -5.5925e-05)
(2.37115e-21 -6.53101e-20 -6.51624e-05)
(-1.8674e-21 7.70491e-21 -7.4812e-05)
(-1.93086e-22 -7.18573e-21 -8.47297e-05)
(7.58159e-23 7.19325e-21 -9.47347e-05)
(-3.16689e-24 -1.29531e-22 -0.000104643)
(-7.11727e-23 -6.94168e-21 -0.00011432)
(-2.02004e-21 7.00581e-21 -0.000123708)
(4.23237e-21 1.29918e-23 -0.000132844)
(1.23863e-21 6.80713e-21 -0.000141876)
(-3.29715e-21 -5.35842e-24 -0.000151068)
(4.74873e-21 7.9226e-21 -0.000160801)
(-5.52404e-21 1.02762e-19 -0.000171574)
(6.46181e-22 -1.10359e-19 -0.000183992)
(-2.10283e-21 1.00938e-19 -0.000198776)
(2.04741e-21 -1.0209e-19 -0.000216784)
(4.8821e-23 1.35e-21 -0.000239082)
(-6.36033e-23 -1.65889e-21 -0.000267093)
(2.7427e-21 -9.6891e-20 -0.000302896)
(-8.67224e-21 9.40454e-20 -0.000349792)
(-3.21124e-22 -1.55933e-21 -0.000413338)
(6.25531e-21 1.3681e-23 -0.000503156)
(6.80813e-21 1.48901e-23 -0.000635997)
(-6.78635e-21 -1.48424e-23 -0.000840687)
(-2.25232e-22 -4.92604e-25 -0.00116568)
(-2.35032e-22 -5.14038e-25 -0.00168987)
(-8.09994e-21 -1.77154e-23 -0.00253669)
(7.81843e-21 1.70997e-23 -0.00389047)
(-2.58535e-22 1.53965e-22 -0.00601166)
(-2.82911e-23 7.97267e-21 -0.00924495)
(-2.50783e-20 5.16452e-20 -0.0140106)
(2.41532e-20 -6.80592e-20 -0.0207654)
(-5.67297e-21 -9.72411e-21 -0.0299182)
(6.23619e-21 2.64939e-20 -0.0416927)
(-2.07542e-20 -5.79442e-21 -0.0558515)
(-2.59646e-22 7.99485e-21 5.74774e-06)
(-1.01866e-22 1.57267e-20 4.04741e-06)
(3.11101e-22 7.65009e-21 1.64334e-06)
(-8.83221e-22 -7.86099e-21 -1.62808e-06)
(1.63915e-21 7.4966e-21 -5.93423e-06)
(-5.18421e-22 -5.37241e-20 -1.14426e-05)
(-1.97589e-22 8.53263e-20 -1.83319e-05)
(-5.89612e-23 -8.90437e-21 -2.67975e-05)
(2.16875e-21 -9.82842e-20 -3.70501e-05)
(-2.24258e-21 1.38806e-19 -4.93076e-05)
(-7.97103e-22 1.26828e-19 -6.37789e-05)
(5.8374e-22 -1.14133e-19 -8.06417e-05)
(-3.96154e-22 7.43136e-22 -0.000100017)
(2.82386e-21 -7.26908e-21 -0.000121945)
(-2.19164e-21 2.42041e-20 -0.000146348)
(-5.92012e-21 2.40255e-19 -0.000172975)
(1.54062e-21 -2.26007e-19 -0.000201406)
(-5.5247e-21 2.42226e-19 -0.000231208)
(-2.86664e-22 1.95904e-20 -0.000261964)
(-3.86808e-21 -7.35348e-21 -0.000293183)
(4.08613e-21 1.46166e-22 -0.000324333)
(-4.09458e-21 9.15446e-21 -0.000355026)
(1.18871e-21 2.1071e-19 -0.000385123)
(5.61979e-21 -4.4637e-19 -0.000414769)
(4.33648e-21 -2.13379e-19 -0.000444436)
(-6.67771e-21 4.31914e-19 -0.00047495)
(3.24233e-21 -4.31133e-19 -0.000507492)
(-1.54555e-21 4.42409e-19 -0.000543587)
(3.31301e-21 1.43973e-21 -0.000585099)
(-3.74591e-21 -9.81546e-23 -0.000634239)
(-1.25863e-21 -2.75274e-24 -0.000693647)
(0 0 -0.000766598)
(1.86156e-22 9.66212e-23 -0.000857461)
(1.11399e-20 1.24558e-20 -0.000972608)
(-1.53443e-20 3.63246e-19 -0.00112213)
(-1.58988e-20 -2.41399e-20 -0.00132299)
(1.82083e-20 -3.58641e-19 -0.00160448)
(2.62687e-20 -3.10421e-19 -0.00201759)
(-8.89151e-21 3.31664e-19 -0.00264995)
(-3.15104e-20 2.19621e-21 -0.00364871)
(3.08443e-20 1.75656e-20 -0.00525317)
(-4.21651e-20 2.37634e-19 -0.00783726)
(2.25733e-20 -2.4721e-19 -0.0119586)
(-1.82886e-20 1.48874e-20 -0.0184043)
(2.02909e-20 7.86932e-21 -0.0282147)
(-6.07173e-20 1.15522e-19 -0.0426572)
(6.06507e-20 -1.13066e-19 -0.0631061)
(-9.37652e-20 8.46914e-20 -0.0907712)
(9.04812e-20 -9.45487e-20 -0.126253)
(-1.91504e-20 -6.50464e-22 -0.167429)
(-2.29617e-23 4.7354e-20 9.19477e-06)
(-8.16963e-23 1.49676e-20 6.13629e-06)
(3.59755e-22 -6.20252e-20 1.73597e-06)
(-7.57013e-22 1.23425e-19 -4.26938e-06)
(1.67712e-21 -2.64281e-19 -1.21283e-05)
(4.50691e-22 1.25704e-19 -2.20963e-05)
(-2.47778e-21 -8.81389e-22 -3.44549e-05)
(1.57537e-21 -1.71095e-20 -4.95215e-05)
(1.36563e-21 -2.58038e-19 -6.76467e-05)
(8.83026e-22 2.45928e-19 -8.91998e-05)
(-8.68762e-22 -1.64826e-21 -0.000114542)
(-4.26328e-21 -1.58491e-23 -0.000143988)
(6.76682e-21 -1.87357e-21 -0.000177768)
(-4.16903e-21 -2.51916e-19 -0.000215985)
(5.37441e-21 2.29027e-19 -0.000258558)
(-1.12543e-20 4.55115e-19 -0.000305121)
(-4.94181e-21 -1.22303e-20 -0.000355047)
(-4.43268e-21 4.68401e-19 -0.000407681)
(4.04696e-22 -1.42224e-20 -0.00046243)
(-1.21154e-20 4.5519e-19 -0.000518574)
(1.2017e-20 -4.72788e-19 -0.000575317)
(-8.79369e-21 4.51801e-19 -0.00063212)
(1.90019e-21 -4.69979e-19 -0.000688858)
(5.2762e-21 -9.33966e-21 -0.00074588)
(-2.60655e-21 1.37859e-20 -0.000804084)
(5.59321e-21 -8.85009e-21 -0.000864957)
(-1.84296e-20 4.24491e-19 -0.000930589)
(1.64818e-20 -4.52552e-19 -0.00100366)
(1.79307e-20 -4.20847e-19 -0.00108744)
(-1.46037e-20 4.22896e-19 -0.00118578)
(-1.09839e-21 -5.24396e-21 -0.00130333)
(1.13748e-20 -1.23111e-22 -0.00144582)
(-1.30488e-20 -2.50872e-20 -0.00162089)
(5.22848e-20 -7.71413e-19 -0.00183959)
(1.68766e-20 5.64516e-20 -0.0021194)
(-6.9541e-20 7.27048e-19 -0.00248944)
(4.02345e-21 -1.2535e-20 -0.00299996)
(-1.16065e-20 -4.99997e-21 -0.00373815)
(1.10138e-19 -6.1258e-19 -0.00485366)
(-2.04806e-19 1.20394e-18 -0.00659741)
(2.0913e-19 -1.19787e-18 -0.00937674)
(7.2881e-20 8.60409e-20 -0.013827)
(-1.58569e-19 5.25597e-19 -0.0208939)
(-1.67287e-19 3.63601e-19 -0.0319105)
(1.57966e-19 -4.3112e-19 -0.0486389)
(-2.27379e-20 1.99066e-20 -0.0732275)
(5.61859e-20 -1.77523e-20 -0.108005)
(1.69007e-19 -1.05133e-19 -0.15498)
(-1.82906e-19 1.63954e-19 -0.214959)
(-2.59419e-20 -4.19686e-20 -0.279728)
(3.96391e-22 -3.12256e-20 1.21019e-05)
(-3.65084e-22 1.57954e-20 7.20786e-06)
(7.03858e-22 -1.74511e-22 4.81817e-08)
(-6.34574e-22 -1.55416e-20 -9.67733e-06)
(-9.8193e-22 -1.46984e-21 -2.22432e-05)
(3.25027e-21 -2.43975e-19 -3.79555e-05)
(-4.5056e-21 4.62124e-19 -5.71806e-05)
(2.18317e-21 -2.48881e-19 -8.03542e-05)
(-1.84507e-21 1.50126e-20 -0.000107974)
(4.75229e-21 -2.72587e-19 -0.000140578)
(-5.78239e-21 2.4882e-19 -0.000178702)
(-3.83797e-21 4.74947e-19 -0.000222835)
(1.02695e-20 -9.61173e-19 -0.000273359)
(-1.24721e-20 9.60353e-19 -0.000330499)
(1.6744e-20 -9.56057e-19 -0.00039424)
(-1.07055e-20 9.47834e-19 -0.000464199)
(-9.64507e-21 4.8204e-19 -0.000539634)
(-7.14406e-22 -3.83385e-21 -0.000619798)
(4.58648e-21 3.98023e-21 -0.000704059)
(-7.20124e-21 4.45168e-19 -0.000791602)
(-2.57028e-21 -4.67605e-19 -0.000881538)
(1.50467e-20 1.29655e-20 -0.000973345)
(-3.27325e-20 8.98553e-19 -0.00106709)
(2.44571e-20 -9.01698e-19 -0.00116349)
(2.28752e-21 -5.31204e-21 -0.00126407)
(-9.92658e-21 -9.16072e-23 -0.00137117)
(1.50444e-20 -1.36482e-20 -0.001488)
(-4.90048e-21 1.25662e-22 -0.00161866)
(-5.39194e-21 -6.43908e-23 -0.00176808)
(5.12532e-21 1.99275e-22 -0.00194214)
(-3.753e-21 1.37747e-21 -0.00214784)
(6.20174e-20 -8.00298e-19 -0.00239389)
(-5.60089e-20 8.23206e-19 -0.00269175)
(-1.6342e-20 1.5455e-22 -0.00305791)
(1.90069e-20 -1.03861e-20 -0.00351803)
(-9.82987e-20 7.36946e-19 -0.00411466)
(1.15266e-19 -7.40331e-19 -0.00492067)
(-2.32188e-20 2.28012e-21 -0.00606214)
(1.63951e-20 -8.97625e-23 -0.00775515)
(3.89836e-20 6.62825e-21 -0.0103616)
(-2.5082e-19 5.5561e-19 -0.0144684)
(3.70941e-19 -1.12726e-18 -0.0209901)
(-1.8114e-19 5.71563e-19 -0.031287)
(2.65613e-19 -4.38611e-19 -0.047279)
(-2.56905e-19 5.16923e-19 -0.0715148)
(-6.0276e-19 5.34878e-19 -0.107132)
(1.13944e-18 -1.13425e-18 -0.157579)
(-5.58667e-19 5.73181e-19 -0.225831)
(1.93029e-20 -2.25039e-21 -0.312711)
(4.66707e-21 -3.59083e-20 -0.396092)
(-7.40914e-22 1.58777e-20 1.4017e-05)
(-2.49695e-22 6.0775e-20 6.23154e-06)
(1.91551e-21 -1.84588e-19 -5.15958e-06)
(-1.20816e-21 2.47765e-19 -2.03108e-05)
(-3.29848e-22 -1.09743e-19 -3.94353e-05)
(1.0623e-22 -1.46582e-20 -6.286e-05)
(-4.73118e-22 1.54673e-20 -9.10376e-05)
(3.0822e-21 -1.90022e-22 -0.00012454)
(-2.94336e-21 -1.51196e-20 -0.000164038)
(-5.31588e-21 3.39637e-20 -0.000210273)
(-6.70251e-21 4.83053e-19 -0.000264002)
(1.83447e-20 -5.02113e-19 -0.000325938)
(-2.27278e-20 4.68568e-19 -0.000396685)
(1.88439e-20 -4.87459e-19 -0.000476675)
(-3.05868e-21 3.45728e-21 -0.000566071)
(1.11729e-20 4.82715e-23 -0.000664598)
(4.2512e-21 3.77794e-21 -0.000771557)
(-4.75274e-21 4.55763e-19 -0.000886288)
(1.99262e-20 -4.9329e-19 -0.00100832)
(6.46285e-21 2.72233e-20 -0.00113696)
(-4.48849e-20 9.4049e-19 -0.00127148)
(2.79736e-20 -9.43337e-19 -0.00141161)
(1.03674e-20 2.28661e-20 -0.00155789)
(-1.83395e-20 -2.37051e-22 -0.00171171)
(1.20003e-20 9.79326e-21 -0.00187551)
(-3.7149e-20 9.05543e-19 -0.00205283)
(3.0313e-20 -8.97188e-19 -0.00224839)
(2.88312e-21 9.77798e-21 -0.00246811)
(9.78166e-21 2.75203e-20 -0.00271913)
(-1.16982e-20 -5.58683e-22 -0.00300993)
(1.15986e-21 -1.31748e-20 -0.00335062)
(-3.79094e-20 1.33854e-20 -0.00375366)
(3.57526e-20 1.27602e-20 -0.00423531)
(-3.22871e-21 -2.56499e-20 -0.00481853)
(8.10716e-20 -7.49969e-19 -0.00553842)
(-7.18646e-20 7.72975e-19 -0.00645223)
(2.6844e-19 -1.48981e-18 -0.00765716)
(-2.45536e-19 1.5043e-18 -0.00932048)
(3.06317e-19 -1.41031e-18 -0.0117284)
(7.3457e-20 1.33197e-19 -0.0153606)
(-3.53324e-19 1.34491e-18 -0.0209955)
(-1.23538e-19 -2.26933e-20 -0.0298482)
(1.68089e-20 3.89287e-22 -0.0437311)
(-1.8807e-20 5.68992e-22 -0.0652184)
(5.55189e-20 1.70086e-21 -0.097776)
(2.67908e-20 1.39188e-20 -0.145797)
(-1.15926e-19 5.26929e-21 -0.214378)
(6.59869e-20 5.11625e-21 -0.308292)
(-1.69449e-22 -3.1811e-22 -0.428903)
(3.69419e-20 6.57196e-22 -0.527104)
(-6.69478e-22 7.65051e-20 1.42291e-05)
(1.64812e-21 -4.66607e-20 1.19943e-06)
(-1.71076e-21 -1.64688e-20 -1.70594e-05)
(4.5892e-21 -2.28642e-19 -4.02933e-05)
(-2.16275e-21 2.30545e-19 -6.8638e-05)
(1.89297e-21 -2.2815e-19 -0.000102489)
(-1.07749e-20 5.03152e-19 -0.000142443)
(1.1215e-20 -7.0481e-19 -0.000189265)
(-7.2072e-21 4.98525e-19 -0.000243855)
(-5.60039e-21 4.8596e-19 -0.000307214)
(-2.20775e-21 3.90881e-21 -0.000380386)
(2.39448e-20 -9.54818e-19 -0.000464388)
(-2.07387e-20 9.93945e-19 -0.00056014)
(4.74363e-21 -4.67763e-19 -0.000668398)
(1.17734e-20 -4.70071e-19 -0.000789649)
(2.21818e-20 -4.62647e-19 -0.000923908)
(-3.17441e-21 6.82896e-21 -0.00107073)
(3.77245e-20 -9.59596e-19 -0.00122979)
(2.87009e-20 -9.21519e-19 -0.00140103)
(6.5507e-21 2.12724e-20 -0.00158424)
(-2.55146e-20 9.57422e-19 -0.00177912)
(-2.045e-20 -8.21072e-21 -0.00198609)
(1.2485e-20 9.08861e-21 -0.00220651)
(-4.94021e-20 9.28004e-19 -0.00244291)
(3.97616e-20 -9.42898e-19 -0.0026991)
(7.15257e-20 -9.0604e-19 -0.00298037)
(-7.2769e-20 9.36107e-19 -0.00329358)
(1.53097e-20 -2.03331e-20 -0.00364719)
(6.59821e-20 -9.04462e-19 -0.00405139)
(-9.41683e-20 9.27693e-19 -0.00451827)
(4.44478e-21 1.25618e-20 -0.00506219)
(-2.04451e-19 1.70131e-18 -0.00570073)
(1.84196e-19 -1.76537e-18 -0.00645644)
(4.93828e-20 6.30591e-20 -0.00736027)
(-2.65227e-19 1.61324e-18 -0.00845821)
(2.42472e-19 -1.68239e-18 -0.00982343)
(-3.22028e-20 -3.41561e-21 -0.011578)
(4.73401e-19 -1.51999e-18 -0.0139304)
(-4.42682e-19 1.57007e-18 -0.0172366)
(-6.77743e-20 -7.39609e-20 -0.0220945)
(6.85576e-19 -1.33008e-18 -0.0294793)
(-1.20544e-18 2.74534e-18 -0.0409224)
(-6.88535e-20 -1.56943e-19 -0.0587262)
(-9.22436e-20 -1.2286e-19 -0.0861991)
(7.83703e-19 -1.19912e-18 -0.127896)
(4.04633e-20 6.45212e-20 -0.189883)
(-8.91981e-19 7.98638e-19 -0.280023)
(8.74658e-19 -8.78108e-19 -0.407727)
(9.79938e-21 2.96557e-20 -0.579698)
(9.65935e-21 -2.82032e-21 -0.698629)
(6.06435e-22 -1.59464e-20 1.17854e-05)
(1.59089e-21 -1.35922e-19 -1.20774e-05)
(-1.72813e-21 1.22606e-19 -4.11711e-05)
(-1.30997e-21 -1.72936e-20 -7.56879e-05)
(5.21028e-21 -2.27251e-19 -0.000116072)
(-4.79063e-21 2.33817e-19 -0.000162947)
(-5.43293e-21 4.72279e-19 -0.000217132)
(-5.19973e-21 -1.9502e-20 -0.000279622)
(2.26927e-21 -4.56533e-21 -0.000351558)
(1.41562e-20 -5.03735e-19 -0.000434197)
(-1.14269e-20 4.71466e-19 -0.000528857)
(1.68396e-20 -9.97613e-19 -0.000636845)
(-3.53274e-21 4.98797e-19 -0.000759382)
(-3.73458e-21 -1.88125e-20 -0.000897534)
(-4.97559e-21 -2.25444e-20 -0.0010521)
(2.75173e-20 -9.79588e-19 -0.0012234)
(-1.54884e-21 -2.00848e-20 -0.00141124)
(2.62394e-20 -9.97987e-19 -0.0016156)
(-5.52421e-21 -7.67073e-21 -0.0018368)
(-1.71387e-22 1.21387e-22 -0.00207495)
(1.16436e-20 8.57933e-21 -0.00233011)
(-5.15461e-20 9.6123e-19 -0.00260305)
(4.57023e-20 -9.82023e-19 -0.0028956)
(1.29924e-20 8.48233e-21 -0.00321078)
(-8.89727e-21 -1.50611e-20 -0.00355299)
(-6.27633e-21 1.00741e-20 -0.00392809)
(-7.22997e-20 9.29351e-19 -0.00434349)
(1.55708e-19 -1.89663e-18 -0.00480811)
(-7.35851e-20 9.89545e-19 -0.00533236)
(-1.88259e-19 1.83499e-18 -0.00592809)
(-3.07887e-20 -4.51955e-20 -0.00660879)
(2.81644e-21 -2.58156e-20 -0.0073901)
(-6.71636e-20 -5.36192e-20 -0.00829114)
(2.55854e-19 -1.83692e-18 -0.0093375)
(3.98074e-19 -1.70216e-18 -0.0105673)
(-3.54483e-19 1.78688e-18 -0.0120433)
(-3.46379e-20 -5.60325e-20 -0.0138755)
(4.73406e-19 -1.63119e-18 -0.0162623)
(-4.16429e-19 1.72822e-18 -0.0195597)
(-6.7284e-19 1.5372e-18 -0.0243929)
(5.70612e-19 -1.62387e-18 -0.031824)
(7.99569e-20 -1.14908e-20 -0.0435818)
(8.81529e-19 -1.44005e-18 -0.0623534)
(1.2616e-19 1.2269e-19 -0.0921226)
(-1.02174e-18 1.41279e-18 -0.138555)
(-1.66728e-20 -4.05958e-20 -0.209507)
(3.43577e-20 5.38915e-22 -0.31638)
(-3.50115e-20 1.57563e-20 -0.479149)
(-5.27915e-19 5.52667e-19 -0.736206)
(5.19344e-19 -5.61782e-19 -1.01448)
(-1.0503e-20 -3.05735e-21 0.00981922)
(-1.02783e-20 -4.93878e-22 0.00343704)
(9.63146e-21 9.67092e-21 -0.00190559)
(-7.26627e-21 9.88535e-22 -0.00628733)
(7.76967e-21 -1.00097e-20 -0.00979549)
(-2.47246e-23 3.20482e-21 -0.0125244)
(-1.55646e-22 -8.9648e-23 -0.0145692)
(-4.78196e-21 1.04586e-23 -0.0160178)
(4.64525e-21 -1.01596e-23 -0.016952)
(-1.31489e-22 2.8758e-25 -0.0174465)
(-1.20554e-22 2.63663e-25 -0.0175704)
(3.25952e-21 -7.12889e-24 -0.0173873)
(-3.26999e-21 7.15179e-24 -0.0169553)
(-2.55566e-21 5.58947e-24 -0.0163266)
(3.61823e-22 -5.00268e-22 -0.0155479)
(5.18723e-21 2.94942e-20 -0.0146601)
(-2.74113e-21 -2.65801e-20 -0.0136989)
(-2.93685e-23 -4.71746e-22 -0.0126947)
(-8.21951e-24 2.27287e-22 -0.0116732)
(-2.65736e-21 -4.80108e-20 -0.0106557)
(2.67491e-21 4.77764e-20 -0.00965936)
(-2.0447e-21 -5.31483e-20 -0.00869811)
(5.22494e-22 3.59784e-21 -0.00778246)
(-4.01435e-22 4.85499e-24 -0.00691946)
(3.8463e-22 4.23952e-21 -0.00611437)
(-8.96319e-23 3.62461e-24 -0.00537023)
(-5.25499e-23 1.14932e-25 -0.00468881)
(9.54813e-24 1.03693e-24 -0.00407027)
(2.07604e-22 5.14402e-21 -0.00351347)
(2.53572e-24 -3.0945e-24 -0.00301625)
(-1.8336e-22 -5.52462e-21 -0.00257571)
(1.75313e-22 5.70109e-21 -0.00218838)
(-2.31293e-22 -5.84378e-21 -0.00185038)
(8.36341e-22 5.46014e-20 -0.00155759)
(-7.45532e-22 -5.49106e-20 -0.00130574)
(-3.22392e-22 -4.44125e-20 -0.00109058)
(7.54455e-22 9.62058e-20 -0.000907948)
(-4.18254e-22 -5.19017e-20 -0.000753833)
(-6.34399e-23 -6.62926e-21 -0.000624472)
(5.94599e-23 6.75702e-21 -0.00051638)
(-2.57887e-23 -2.41188e-25 -0.000426386)
(1.12787e-22 6.93416e-21 -0.000351647)
(-2.02833e-22 -3.52523e-20 -0.000289653)
(1.88975e-22 3.54065e-20 -0.000238221)
(-4.89324e-23 -7.1894e-21 -0.000195476)
(1.12429e-22 2.18187e-20 -0.000159827)
(6.26486e-24 -7.27342e-21 -0.000129935)
(-7.14108e-23 -1.47989e-20 -0.000104669)
(2.04566e-23 7.42823e-21 -8.30605e-05)
(-4.51256e-23 -7.51184e-21 -6.42839e-05)
(-1.52375e-20 2.47608e-20 0.0283071)
(2.85997e-20 -9.7628e-21 0.00928065)
(-2.27681e-20 -2.14878e-20 -0.00670395)
(3.87073e-21 1.87502e-20 -0.0197103)
(-4.37275e-21 -1.8068e-20 -0.0300424)
(-1.15843e-20 5.95459e-21 -0.0380157)
(1.00179e-20 5.35385e-21 -0.0439403)
(-3.36002e-21 -9.32625e-21 -0.0480939)
(1.37904e-20 -1.1823e-21 -0.0507258)
(-1.89269e-20 4.49806e-21 -0.0520633)
(1.58115e-20 -4.92616e-21 -0.0523141)
(1.73526e-20 5.70337e-20 -0.0516691)
(-2.63457e-20 -4.73829e-20 -0.0503009)
(-2.80775e-20 -9.06207e-20 -0.0483643)
(4.56025e-21 -2.27954e-20 -0.045997)
(2.83496e-20 1.05055e-19 -0.0433194)
(-4.2189e-21 4.50721e-22 -0.040436)
(-1.15393e-21 -4.90412e-21 -0.0374357)
(5.72048e-24 -5.09718e-23 -0.034393)
(2.11903e-22 -4.63453e-25 -0.0313696)
(5.63108e-22 7.17186e-24 -0.0284152)
(-8.96657e-22 -3.85502e-21 -0.0255695)
(2.4731e-20 2.38491e-19 -0.0228626)
(-2.73073e-20 -2.57873e-19 -0.0203153)
(2.40135e-20 2.77067e-19 -0.0179412)
(-1.28252e-20 -1.33567e-19 -0.0157496)
(-2.23276e-20 -3.04218e-19 -0.0137445)
(1.08658e-20 1.55704e-19 -0.0119259)
(-2.08001e-22 -5.15431e-21 -0.01029)
(-6.88301e-22 -1.08017e-20 -0.00883011)
(9.73364e-23 5.53961e-21 -0.00753747)
(-8.37981e-22 -1.71461e-20 -0.00640159)
(6.5732e-21 1.8463e-19 -0.00541087)
(-1.36568e-20 -3.9251e-19 -0.00455301)
(6.07093e-21 1.89692e-19 -0.00381542)
(-7.00538e-22 -1.90421e-20 -0.00318549)
(2.16995e-22 6.43867e-21 -0.00265093)
(-1.75969e-23 -3.92499e-23 -0.00219997)
(-2.51694e-21 -1.1395e-19 -0.00182154)
(2.14004e-21 1.00798e-19 -0.0015054)
(1.51521e-21 9.65213e-20 -0.00124225)
(-2.22292e-21 -1.31397e-19 -0.00102375)
(5.80123e-23 7.06838e-21 -0.000842542)
(4.34371e-22 3.57543e-20 -0.000692235)
(-9.51393e-22 -6.44083e-20 -0.000567336)
(-1.76647e-23 -7.24276e-21 -0.000463191)
(-5.77123e-22 -5.13186e-20 -0.000375875)
(-1.17914e-22 -7.56814e-21 -0.000302065)
(1.45103e-22 1.47458e-20 -0.000238873)
(1.70013e-22 2.24384e-20 -0.000183718)
(-1.45581e-20 -9.13623e-22 0.0431821)
(-1.06901e-20 -1.40502e-20 0.0117663)
(3.26678e-20 2.77762e-20 -0.0146799)
(-4.31833e-20 -1.24322e-20 -0.035827)
(1.77264e-20 1.10171e-20 -0.0523492)
(-4.81364e-21 -9.46777e-21 -0.0648969)
(1.35827e-20 -2.46822e-20 -0.074059)
(5.87134e-20 4.16671e-20 -0.0803347)
(-1.97927e-20 5.17305e-20 -0.0841521)
(-1.10702e-19 -1.43426e-19 -0.0858987)
(1.48805e-19 1.69823e-19 -0.0859231)
(-8.28594e-20 -8.40609e-20 -0.0845392)
(3.58498e-21 -1.0689e-20 -0.0820282)
(-2.40115e-21 -5.20911e-21 -0.0786409)
(1.05382e-19 2.39971e-19 -0.0745982)
(-4.05723e-21 4.0888e-20 -0.0700929)
(-9.82202e-20 -2.68e-19 -0.0652904)
(7.30373e-21 5.98059e-21 -0.0603308)
(-3.30058e-21 1.2353e-22 -0.0553307)
(1.03644e-22 -8.14184e-22 -0.0503859)
(4.73548e-20 2.26427e-19 -0.0455728)
(-4.60182e-20 -2.17147e-19 -0.0409526)
(-4.32e-20 -2.52624e-19 -0.0365699)
(4.58155e-20 2.67194e-19 -0.0324571)
(1.29236e-21 9.46682e-21 -0.0286327)
(-1.32255e-21 -9.42201e-21 -0.0251084)
(1.20677e-21 9.848e-21 -0.0218898)
(-3.22842e-20 -3.21059e-19 -0.018975)
(3.38427e-20 3.31674e-19 -0.0163569)
(-2.76249e-20 -3.33228e-19 -0.0140236)
(2.95499e-20 3.55733e-19 -0.01196)
(6.55881e-22 1.16205e-20 -0.0101486)
(2.35344e-20 3.8541e-19 -0.00857032)
(-4.49123e-20 -7.68721e-19 -0.00720497)
(2.23229e-20 4.08011e-19 -0.00603205)
(1.01282e-20 2.17872e-19 -0.00503117)
(-8.95753e-21 -1.92732e-19 -0.00418248)
(2.37599e-22 6.75517e-23 -0.00346704)
(-3.42103e-22 -4.96826e-23 -0.00286708)
(-2.58041e-23 5.66513e-23 -0.00236622)
(6.18803e-21 2.21134e-19 -0.00194957)
(-6.005e-21 -2.07663e-19 -0.00160382)
(4.57375e-22 1.41466e-20 -0.00131725)
(-2.0691e-22 -1.18858e-23 -0.00107967)
(2.20703e-21 1.15235e-19 -0.000882343)
(-4.10015e-21 -2.17245e-19 -0.000717877)
(2.02273e-21 1.16455e-19 -0.000580026)
(-1.01479e-21 -5.90979e-20 -0.000463477)
(7.6169e-22 4.42481e-20 -0.000363485)
(1.82422e-22 1.48347e-20 -0.000275425)
(1.75482e-21 2.70126e-20 0.0508056)
(8.81221e-21 -5.43154e-20 0.00765767)
(-4.65036e-20 3.31444e-20 -0.0286582)
(4.8078e-20 2.93071e-20 -0.0568876)
(1.4311e-20 -7.3888e-20 -0.078374)
(2.55939e-20 6.08221e-20 -0.0942828)
(-4.23061e-20 -2.15423e-20 -0.105554)
(5.20964e-20 7.0451e-20 -0.112952)
(-1.47887e-19 -1.47642e-19 -0.117107)
(1.26803e-19 6.42716e-20 -0.118567)
(-2.02111e-20 1.26578e-20 -0.11781)
(-1.05928e-20 7.39623e-22 -0.115261)
(1.48869e-20 8.85453e-21 -0.111297)
(-1.48024e-19 -2.49677e-19 -0.106251)
(1.33622e-19 2.29917e-19 -0.100412)
(-2.82032e-21 1.53632e-20 -0.0940325)
(3.17857e-21 -8.09477e-21 -0.0873252)
(1.39643e-19 3.84195e-19 -0.0804698)
(-1.41155e-19 -3.77157e-19 -0.0736145)
(-1.50388e-21 -1.03688e-20 -0.0668793)
(-7.78154e-22 -4.0712e-23 -0.0603596)
(1.23573e-21 3.93157e-22 -0.0541293)
(4.44756e-22 -1.55331e-23 -0.0482446)
(5.96347e-22 8.96952e-21 -0.0427417)
(1.48282e-21 3.1026e-22 -0.0376422)
(1.43377e-21 9.77855e-21 -0.032956)
(-1.01309e-19 -6.68338e-19 -0.0286863)
(1.00438e-19 6.58448e-19 -0.0248286)
(-1.34933e-22 1.79041e-22 -0.0213708)
(-4.07013e-20 -3.63429e-19 -0.0182952)
(4.25659e-20 3.75497e-19 -0.0155801)
(6.77132e-23 -4.54558e-23 -0.0132009)
(-1.91218e-22 -2.56967e-22 -0.0111311)
(-3.16397e-20 -4.12519e-19 -0.0093432)
(5.98573e-20 8.21304e-19 -0.00780947)
(-5.41048e-20 -8.23581e-19 -0.00650245)
(5.02463e-20 8.37482e-19 -0.0053956)
(-4.6209e-20 -8.50358e-19 -0.00446369)
(2.20162e-20 4.28538e-19 -0.00368315)
(9.32075e-21 2.19431e-19 -0.00303228)
(-8.21609e-21 -1.92135e-19 -0.00249146)
(-6.45983e-22 -1.39807e-20 -0.00204315)
(-7.27245e-21 -2.26419e-19 -0.00167197)
(1.51398e-20 4.83686e-19 -0.00136454)
(-6.93973e-21 -2.28793e-19 -0.00110946)
(8.36001e-23 7.29653e-23 -0.000897032)
(2.96061e-22 1.45566e-20 -0.000719113)
(-7.91857e-23 -2.97302e-23 -0.000568691)
(-2.63581e-22 -1.47492e-20 -0.000439283)
(5.71502e-22 2.97038e-20 -0.000323799)
(2.75452e-20 9.37843e-23 0.046591)
(2.50654e-22 3.15548e-22 -0.00759714)
(-6.16351e-20 2.3569e-22 -0.0523925)
(8.96863e-20 -6.5791e-22 -0.0856977)
(-2.74227e-20 -9.43226e-22 -0.110062)
(-4.15025e-20 -9.69415e-22 -0.127398)
(1.47589e-20 8.81422e-22 -0.139098)
(-1.03784e-20 -1.41407e-21 -0.146211)
(8.04813e-20 -2.27025e-20 -0.149557)
(2.08827e-19 3.2514e-19 -0.149815)
(1.01205e-20 9.42983e-20 -0.147572)
(-2.52667e-19 -4.06866e-19 -0.143335)
(3.02971e-19 5.09036e-19 -0.137553)
(-3.18006e-19 -5.03577e-19 -0.130614)
(1.58672e-19 3.17004e-19 -0.122856)
(-1.68922e-19 -3.3057e-19 -0.114567)