/*--------------------------------*- C++ -*----------------------------------*\
| =========                 |                                                 |
| \\      /  F ield         | OpenFOAM: The Open Source CFD Toolbox           |
|  \\    /   O peration     | Version:  2412                                  |
|   \\  /    A nd           | Website:  www.openfoam.com                      |
|    \\/     M anipulation  |                                                 |
\*---------------------------------------------------------------------------*/
FoamFile
{
    version     2.0;
    format      ascii;
    arch        "LSB;label=32;scalar=64";
    class       volScalarField;
    location    "5.5";
    object      p;
}
// * * * * * * * * * * * * * * * * * * * * * * * * * * * * * * * * * * * * * //

dimensions      [0 2 -2 0 0 0 0];

internalField   nonuniform List<scalar> 
5285
(
-2.75116e-05
-2.61591e-05
-2.48492e-05
-2.35812e-05
-2.23548e-05
-2.11693e-05
-2.00245e-05
-1.89199e-05
-1.78549e-05
-1.6829e-05
-1.58419e-05
-1.48928e-05
-1.39813e-05
-1.31068e-05
-1.22686e-05
-1.14662e-05
-1.06989e-05
-9.96604e-06
-9.26687e-06
-8.60068e-06
-7.9667e-06
-7.36417e-06
-6.79225e-06
-6.25016e-06
-5.73703e-06
-5.25197e-06
-4.79413e-06
-4.3626e-06
-3.9565e-06
-3.57485e-06
-3.21675e-06
-2.69514e-05
-2.56242e-05
-2.43389e-05
-2.30949e-05
-2.18919e-05
-2.07292e-05
-1.96065e-05
-1.85233e-05
-1.74791e-05
-1.64733e-05
-1.55056e-05
-1.45753e-05
-1.36819e-05
-1.28247e-05
-1.20033e-05
-1.1217e-05
-1.04651e-05
-9.74691e-06
-9.06183e-06
-8.40907e-06
-7.7879e-06
-7.19757e-06
-6.63724e-06
-6.10615e-06
-5.60343e-06
-5.12824e-06
-4.67972e-06
-4.25697e-06
-3.85913e-06
-3.48527e-06
-3.13447e-06
-2.80585e-06
-2.49841e-06
-2.21132e-06
-1.94358e-06
-1.69432e-06
-1.46257e-06
-1.24747e-06
-1.04804e-06
-8.63459e-07
-6.92766e-07
-5.35103e-07
-3.89633e-07
-2.55381e-07
-1.31608e-07
-1.74144e-08
8.80981e-08
1.8556e-07
2.76164e-07
3.60326e-07
4.39664e-07
5.13237e-07
5.87069e-07
6.47553e-07
7.36428e-07
7.45047e-07
9.58151e-07
6.80918e-07
1.53211e-06
-2.43653e-08
3.25827e-06
-2.41034e-06
7.16819e-06
-6.65777e-06
1.14023e-05
-7.52676e-06
7.39361e-06
4.26733e-06
-8.98101e-06
2.13547e-05
-1.74256e-05
-2.63783e-05
-2.5077e-05
-2.38171e-05
-2.25978e-05
-2.14187e-05
-2.02794e-05
-1.91793e-05
-1.81181e-05
-1.70951e-05
-1.611e-05
-1.51621e-05
-1.4251e-05
-1.33761e-05
-1.25367e-05
-1.17324e-05
-1.09625e-05
-1.02263e-05
-9.52319e-06
-8.85249e-06
-8.21347e-06
-7.60538e-06
-7.0275e-06
-6.47901e-06
-5.95915e-06
-5.46706e-06
-5.00194e-06
-4.56293e-06
-4.14916e-06
-3.75976e-06
-3.39384e-06
-3.05049e-06
-2.72886e-06
-2.42795e-06
-2.14698e-06
-1.88493e-06
-1.64097e-06
-1.41416e-06
-1.20363e-06
-1.00845e-06
-8.27795e-07
-6.60733e-07
-5.06425e-07
-3.64043e-07
-2.32647e-07
-1.115e-07
2.75673e-10
1.0355e-07
1.98973e-07
2.87661e-07
3.70081e-07
4.47758e-07
5.19829e-07
5.92176e-07
6.51427e-07
7.38751e-07
7.46836e-07
9.57054e-07
6.82524e-07
1.52441e-06
-1.69411e-08
3.23526e-06
-2.38562e-06
7.12016e-06
-6.61349e-06
1.13466e-05
-7.50276e-06
7.3949e-06
4.20878e-06
-8.87207e-06
2.1207e-05
-1.72038e-05
-2.57926e-05
-2.4518e-05
-2.3284e-05
-2.209e-05
-2.09355e-05
-1.98201e-05
-1.87432e-05
-1.77045e-05
-1.67033e-05
-1.57392e-05
-1.48116e-05
-1.39201e-05
-1.30641e-05
-1.22429e-05
-1.1456e-05
-1.07028e-05
-9.98271e-06
-9.29497e-06
-8.63895e-06
-8.01394e-06
-7.41921e-06
-6.85403e-06
-6.31762e-06
-5.80921e-06
-5.32798e-06
-4.87313e-06
-4.44382e-06
-4.03919e-06
-3.65841e-06
-3.30059e-06
-2.96484e-06
-2.65034e-06
-2.3561e-06
-2.08136e-06
-1.82511e-06
-1.58657e-06
-1.36478e-06
-1.15892e-06
-9.68071e-07
-7.91424e-07
-6.28065e-07
-4.77179e-07
-3.37947e-07
-2.09463e-07
-9.09943e-08
1.83148e-08
1.19306e-07
2.12648e-07
2.99381e-07
3.80025e-07
4.56007e-07
5.26548e-07
5.9738e-07
6.55372e-07
7.411e-07
7.48655e-07
9.55888e-07
6.84203e-07
1.51638e-06
-9.14206e-09
3.21126e-06
-2.35974e-06
7.07006e-06
-6.56728e-06
1.12886e-05
-7.47794e-06
7.39603e-06
4.14856e-06
-8.76119e-06
2.10569e-05
-1.69768e-05
-2.51945e-05
-2.39472e-05
-2.27398e-05
-2.15717e-05
-2.04424e-05
-1.93515e-05
-1.82983e-05
-1.72826e-05
-1.63036e-05
-1.5361e-05
-1.44542e-05
-1.35827e-05
-1.27459e-05
-1.19433e-05
-1.11743e-05
-1.04382e-05
-9.73442e-06
-9.06236e-06
-8.42131e-06
-7.81058e-06
-7.22947e-06
-6.67725e-06
-6.15314e-06
-5.65641e-06
-5.18625e-06
-4.74186e-06
-4.32243e-06
-3.92714e-06
-3.55513e-06
-3.20557e-06
-2.87756e-06
-2.57033e-06
-2.28288e-06
-2.01449e-06
-1.76416e-06
-1.53113e-06
-1.31447e-06
-1.11337e-06
-9.26928e-07
-7.54363e-07
-5.94776e-07
-4.47378e-07
-3.11356e-07
-1.85839e-07
-7.01012e-08
3.66954e-08
1.35361e-07
2.26581e-07
3.11322e-07
3.90152e-07
4.64409e-07
5.33393e-07
6.02676e-07
6.59383e-07
7.43475e-07
7.50503e-07
9.54647e-07
6.85959e-07
1.50801e-06
-9.47587e-10
3.18623e-06
-2.33265e-06
7.01783e-06
-6.51913e-06
1.12283e-05
-7.45237e-06
7.39707e-06
4.08667e-06
-8.64864e-06
2.09047e-05
-1.67452e-05
-2.45842e-05
-2.33649e-05
-2.21848e-05
-2.10432e-05
-1.99397e-05
-1.88737e-05
-1.78449e-05
-1.68525e-05
-1.58963e-05
-1.49757e-05
-1.40901e-05
-1.3239e-05
-1.24219e-05
-1.16382e-05
-1.08873e-05
-1.01686e-05
-9.48154e-06
-8.82544e-06
-8.19965e-06
-7.60348e-06
-7.03624e-06
-6.49721e-06
-5.98564e-06
-5.50081e-06
-5.04192e-06
-4.6082e-06
-4.19883e-06
-3.81304e-06
-3.44996e-06
-3.10882e-06
-2.78869e-06
-2.48886e-06
-2.20833e-06
-1.9464e-06
-1.7021e-06
-1.47468e-06
-1.26325e-06
-1.06698e-06
-8.85036e-07
-7.16627e-07
-5.60881e-07
-4.17035e-07
-2.84281e-07
-1.61786e-07
-4.88281e-08
5.54094e-08
1.51706e-07
2.40764e-07
3.23476e-07
4.0046e-07
4.72959e-07
5.40356e-07
6.08061e-07
6.63459e-07
7.45872e-07
7.52381e-07
9.53326e-07
6.87797e-07
1.49929e-06
7.66244e-09
3.16013e-06
-2.3043e-06
6.9634e-06
-6.46899e-06
1.11658e-05
-7.42613e-06
7.39807e-06
4.02309e-06
-8.53471e-06
2.07511e-05
-1.65096e-05
-2.39619e-05
-2.27714e-05
-2.16192e-05
-2.05047e-05
-1.94275e-05
-1.83871e-05
-1.7383e-05
-1.64146e-05
-1.54816e-05
-1.45833e-05
-1.37193e-05
-1.28891e-05
-1.2092e-05
-1.13275e-05
-1.05952e-05
-9.89423e-06
-9.22417e-06
-8.58433e-06
-7.97407e-06
-7.39272e-06
-6.8396e-06
-6.31401e-06
-5.8152e-06
-5.34248e-06
-4.89505e-06
-4.47219e-06
-4.07307e-06
-3.69694e-06
-3.34296e-06
-3.01037e-06
-2.69827e-06
-2.40596e-06
-2.13247e-06
-1.87712e-06
-1.63896e-06
-1.41724e-06
-1.21112e-06
-1.01979e-06
-8.42413e-07
-6.78233e-07
-5.26395e-07
-3.86163e-07
-2.56735e-07
-1.37314e-07
-2.71847e-08
7.44485e-08
1.68335e-07
2.55192e-07
3.35839e-07
4.10944e-07
4.81653e-07
5.47434e-07
6.13532e-07
6.67596e-07
7.48289e-07
7.54289e-07
9.5192e-07
6.89721e-07
1.4902e-06
1.6709e-08
3.13292e-06
-2.27464e-06
6.90673e-06
-6.41686e-06
1.1101e-05
-7.39933e-06
7.39911e-06
3.95781e-06
-8.41973e-06
2.05964e-05
-1.62707e-05
-2.33281e-05
-2.21668e-05
-2.10432e-05
-1.99564e-05
-1.89061e-05
-1.78918e-05
-1.69129e-05
-1.5969e-05
-1.50596e-05
-1.41841e-05
-1.33421e-05
-1.25331e-05
-1.17564e-05
-1.10116e-05
-1.0298e-05
-9.61518e-06
-8.96241e-06
-8.33912e-06
-7.74467e-06
-7.1784e-06
-6.63964e-06
-6.12772e-06
-5.64189e-06
-5.18149e-06
-4.74572e-06
-4.33389e-06
-3.94519e-06
-3.57889e-06
-3.23416e-06
-2.91027e-06
-2.60633e-06
-2.32168e-06
-2.05535e-06
-1.80668e-06
-1.57476e-06
-1.35885e-06
-1.15813e-06
-9.71803e-07
-7.99077e-07
-6.39198e-07
-4.91333e-07
-3.54776e-07
-2.28729e-07
-1.12434e-07
-5.18033e-09
9.38043e-08
1.85241e-07
2.69857e-07
3.48405e-07
4.21598e-07
4.90488e-07
5.54624e-07
6.19086e-07
6.71794e-07
7.50725e-07
7.56225e-07
9.50424e-07
6.91738e-07
1.48072e-06
2.62128e-08
3.10457e-06
-2.24364e-06
6.84775e-06
-6.3627e-06
1.1034e-05
-7.37206e-06
7.40027e-06
3.89081e-06
-8.30403e-06
2.04413e-05
-1.60295e-05
-2.26828e-05
-2.15515e-05
-2.0457e-05
-1.93985e-05
-1.83757e-05
-1.73879e-05
-1.64348e-05
-1.55158e-05
-1.46304e-05
-1.37782e-05
-1.29586e-05
-1.21712e-05
-1.14153e-05
-1.06904e-05
-9.99604e-06
-9.33156e-06
-8.69639e-06
-8.08992e-06
-7.51155e-06
-6.96061e-06
-6.43645e-06
-5.93841e-06
-5.46579e-06
-5.0179e-06
-4.59399e-06
-4.19337e-06
-3.81526e-06
-3.45894e-06
-3.12361e-06
-2.80857e-06
-2.51292e-06
-2.23604e-06
-1.97698e-06
-1.73511e-06
-1.50953e-06
-1.29952e-06
-1.10429e-06
-9.23051e-07
-7.55047e-07
-5.99537e-07
-4.5571e-07
-3.22886e-07
-2.00275e-07
-8.71569e-08
1.71755e-08
1.13468e-07
2.02416e-07
2.84753e-07
3.6117e-07
4.32418e-07
4.9946e-07
5.61922e-07
6.2472e-07
6.76049e-07
7.53178e-07
7.58191e-07
9.48835e-07
6.93852e-07
1.47086e-06
3.61944e-08
3.07503e-06
-2.21124e-06
6.78643e-06
-6.30649e-06
1.09647e-05
-7.34445e-06
7.40164e-06
3.82208e-06
-8.18798e-06
2.02862e-05
-1.5787e-05
-2.20264e-05
-2.09257e-05
-1.98609e-05
-1.88313e-05
-1.78364e-05
-1.68757e-05
-1.59488e-05
-1.50552e-05
-1.41944e-05
-1.33658e-05
-1.2569e-05
-1.18035e-05
-1.10688e-05
-1.03642e-05
-9.6893e-06
-9.0435e-06
-8.42621e-06
-7.83684e-06
-7.2748e-06
-6.73943e-06
-6.23011e-06
-5.74618e-06
-5.28696e-06
-4.85178e-06
-4.43991e-06
-4.05068e-06
-3.68332e-06
-3.33715e-06
-3.01137e-06
-2.7053e-06
-2.41808e-06
-2.14909e-06
-1.89742e-06
-1.66244e-06
-1.4433e-06
-1.23927e-06
-1.04962e-06
-8.7355e-07
-7.10342e-07
-5.59268e-07
-4.19541e-07
-2.90508e-07
-1.71387e-07
-6.14933e-08
3.98729e-08
1.33432e-07
2.19853e-07
2.99875e-07
3.74127e-07
4.43399e-07
5.08564e-07
5.69325e-07
6.30431e-07
6.8036e-07
7.55644e-07
7.60186e-07
9.47149e-07
6.96067e-07
1.46058e-06
4.66745e-08
3.04428e-06
-2.1774e-06
6.7227e-06
-6.24824e-06
1.08933e-05
-7.31663e-06
7.40334e-06
3.75159e-06
-8.07198e-06
2.0132e-05
-1.55443e-05
-2.13591e-05
-2.02897e-05
-1.92552e-05
-1.8255e-05
-1.72886e-05
-1.63555e-05
-1.54553e-05
-1.45875e-05
-1.37516e-05
-1.29471e-05
-1.21735e-05
-1.14303e-05
-1.0717e-05
-1.00331e-05
-9.37795e-06
-8.75112e-06
-8.15199e-06
-7.57999e-06
-7.03452e-06
-6.51497e-06
-6.02071e-06
-5.5511e-06
-5.10548e-06
-4.68321e-06
-4.28356e-06
-3.90589e-06
-3.54944e-06
-3.21357e-06
-2.89747e-06
-2.60051e-06
-2.32184e-06
-2.06086e-06
-1.81669e-06
-1.5887e-06
-1.3761e-06
-1.17815e-06
-9.94148e-07
-8.23324e-07
-6.64981e-07
-5.18409e-07
-3.82843e-07
-2.57656e-07
-1.42075e-07
-3.54544e-08
6.29021e-08
1.53687e-07
2.37544e-07
3.15215e-07
3.87271e-07
4.54537e-07
5.17796e-07
5.76828e-07
6.36215e-07
6.84724e-07
7.58121e-07
7.62209e-07
9.45362e-07
6.98388e-07
1.44988e-06
5.76735e-08
3.01227e-06
-2.14208e-06
6.65652e-06
-6.18792e-06
1.08197e-05
-7.28875e-06
7.40547e-06
3.67931e-06
-7.95644e-06
1.99791e-05
-1.53029e-05
-2.06814e-05
-1.96438e-05
-1.86401e-05
-1.76699e-05
-1.67325e-05
-1.58275e-05
-1.49544e-05
-1.41128e-05
-1.33023e-05
-1.25222e-05
-1.17721e-05
-1.10516e-05
-1.03601e-05
-9.69714e-06
-9.06212e-06
-8.45454e-06
-7.87385e-06
-7.31947e-06
-6.79083e-06
-6.28732e-06
-5.80834e-06
-5.35326e-06
-4.92145e-06
-4.51226e-06
-4.12501e-06
-3.75906e-06
-3.41368e-06
-3.08825e-06
-2.78197e-06
-2.49425e-06
-2.22425e-06
-1.97139e-06
-1.73482e-06
-1.51393e-06
-1.30795e-06
-1.11616e-06
-9.37899e-07
-7.72393e-07
-6.18985e-07
-4.76978e-07
-3.4563e-07
-2.24343e-07
-1.12354e-07
-9.05136e-09
8.62531e-08
1.74224e-07
2.55481e-07
3.30767e-07
4.00595e-07
4.65825e-07
5.27152e-07
5.84429e-07
6.4207e-07
6.89139e-07
7.60608e-07
7.6426e-07
9.43469e-07
7.00821e-07
1.43874e-06
6.92116e-08
2.97897e-06
-2.10523e-06
6.58783e-06
-6.12553e-06
1.0744e-05
-7.26096e-06
7.40819e-06
3.6052e-06
-7.84182e-06
1.98284e-05
-1.50641e-05
-1.99933e-05
-1.89882e-05
-1.8016e-05
-1.70762e-05
-1.61682e-05
-1.52918e-05
-1.44463e-05
-1.36314e-05
-1.28466e-05
-1.20913e-05
-1.13652e-05
-1.06677e-05
-9.99832e-06
-9.35658e-06
-8.74195e-06
-8.15391e-06
-7.59191e-06
-7.0554e-06
-6.54382e-06
-6.05658e-06
-5.59309e-06
-5.15275e-06
-4.73492e-06
-4.339e-06
-3.96431e-06
-3.61025e-06
-3.27609e-06
-2.96124e-06
-2.66492e-06
-2.38656e-06
-2.12535e-06
-1.88072e-06
-1.65186e-06
-1.43816e-06
-1.23889e-06
-1.05335e-06
-8.80897e-07
-7.2078e-07
-5.72372e-07
-4.34991e-07
-3.0792e-07
-1.90585e-07
-8.22351e-08
1.77044e-08
1.09916e-07
1.95034e-07
2.73657e-07
3.46524e-07
4.14096e-07
4.77259e-07
5.36628e-07
5.92124e-07
6.47993e-07
6.93603e-07
7.63102e-07
7.66339e-07
9.41467e-07
7.0337e-07
1.42716e-06
8.13085e-08
2.94435e-06
-2.06682e-06
6.5166e-06
-6.06108e-06
1.06663e-05
-7.23344e-06
7.41163e-06
3.52922e-06
-7.72858e-06
1.96806e-05
-1.483e-05
-1.92954e-05
-1.83232e-05
-1.7383e-05
-1.64741e-05
-1.55962e-05
-1.47487e-05
-1.39313e-05
-1.31435e-05
-1.23848e-05
-1.16547e-05
-1.09528e-05
-1.02787e-05
-9.63173e-06
-9.01153e-06
-8.41757e-06
-7.84933e-06
-7.30628e-06
-6.78789e-06
-6.2936e-06
-5.82284e-06
-5.37505e-06
-4.94964e-06
-4.54599e-06
-4.16351e-06
-3.80155e-06
-3.45953e-06
-3.13673e-06
-2.8326e-06
-2.54637e-06
-2.27749e-06
-2.02518e-06
-1.78889e-06
-1.56783e-06
-1.36141e-06
-1.16895e-06
-9.89726e-07
-8.23164e-07
-6.68506e-07
-5.25163e-07
-3.92467e-07
-2.69727e-07
-1.56395e-07
-5.1732e-08
4.48013e-08
1.3388e-07
2.16108e-07
2.92063e-07
3.62479e-07
4.27765e-07
4.88834e-07
5.46219e-07
5.99908e-07
6.5398e-07
6.98114e-07
7.656e-07
7.68446e-07
9.39352e-07
7.06039e-07
1.41512e-06
9.39838e-08
2.90836e-06
-2.0268e-06
6.44279e-06
-5.99456e-06
1.05866e-05
-7.2064e-06
7.41599e-06
3.4513e-06
-7.61722e-06
1.95365e-05
-1.46025e-05
-1.85879e-05
-1.76492e-05
-1.67415e-05
-1.58641e-05
-1.50166e-05
-1.41985e-05
-1.34096e-05
-1.26492e-05
-1.1917e-05
-1.12125e-05
-1.05352e-05
-9.88469e-06
-9.2605e-06
-8.66214e-06
-8.08913e-06
-7.54095e-06
-7.0171e-06
-6.51705e-06
-6.04027e-06
-5.58621e-06
-5.15432e-06
-4.74402e-06
-4.35472e-06
-3.98586e-06
-3.63679e-06
-3.30696e-06
-2.99567e-06
-2.70238e-06
-2.42636e-06
-2.16708e-06
-1.92378e-06
-1.69593e-06
-1.48277e-06
-1.28373e-06
-1.09815e-06
-9.25329e-07
-7.64727e-07
-6.15595e-07
-4.77377e-07
-3.49425e-07
-2.31069e-07
-1.21788e-07
-2.08575e-08
7.22278e-08
1.58135e-07
2.37437e-07
3.10693e-07
3.78625e-07
4.41598e-07
5.00544e-07
5.55921e-07
6.07779e-07
6.60028e-07
7.02668e-07
7.681e-07
7.70579e-07
9.3712e-07
7.08832e-07
1.4026e-06
1.07255e-07
2.87098e-06
-1.98514e-06
6.36635e-06
-5.92601e-06
1.05051e-05
-7.18006e-06
7.42146e-06
3.37139e-06
-7.50828e-06
1.9397e-05
-1.43839e-05
-1.78711e-05
-1.69665e-05
-1.60917e-05
-1.52462e-05
-1.44296e-05
-1.36414e-05
-1.28813e-05
-1.21488e-05
-1.14434e-05
-1.07648e-05
-1.01125e-05
-9.48594e-06
-8.8848e-06
-8.30856e-06
-7.75675e-06
-7.22889e-06
-6.72448e-06
-6.243e-06
-5.78395e-06
-5.34679e-06
-4.93099e-06
-4.53599e-06
-4.16122e-06
-3.80613e-06
-3.4701e-06
-3.1526e-06
-2.85295e-06
-2.57064e-06
-2.30495e-06
-2.05539e-06
-1.8212e-06
-1.60189e-06
-1.39673e-06
-1.20514e-06
-1.02653e-06
-8.60182e-07
-7.05609e-07
-5.62067e-07
-4.29036e-07
-3.05881e-07
-1.91961e-07
-8.67789e-08
1.03752e-08
9.99723e-08
1.82671e-07
2.59012e-07
3.29537e-07
3.94955e-07
4.55588e-07
5.12384e-07
5.65729e-07
6.15732e-07
6.66135e-07
7.07264e-07
7.706e-07
7.72737e-07
9.34767e-07
7.11752e-07
1.3896e-06
1.21139e-07
2.83217e-06
-1.9418e-06
6.28726e-06
-5.85545e-06
1.04218e-05
-7.15467e-06
7.42826e-06
3.28939e-06
-7.40231e-06
1.9263e-05
-1.41768e-05
-1.71453e-05
-1.62753e-05
-1.54339e-05
-1.46208e-05
-1.38355e-05
-1.30777e-05
-1.23468e-05
-1.16425e-05
-1.09644e-05
-1.0312e-05
-9.68484e-06
-9.0826e-06
-8.50478e-06
-7.95093e-06
-7.42059e-06
-6.91328e-06
-6.42854e-06
-5.96585e-06
-5.52474e-06
-5.10468e-06
-4.70515e-06
-4.32562e-06
-3.96554e-06
-3.62438e-06
-3.30154e-06
-2.99651e-06
-2.70864e-06
-2.43743e-06
-2.1822e-06
-1.94245e-06
-1.71748e-06
-1.5068e-06
-1.30972e-06
-1.12568e-06
-9.54107e-07
-7.94313e-07
-6.45835e-07
-5.07947e-07
-3.80159e-07
-2.61856e-07
-1.52421e-07
-5.13825e-08
4.19529e-08
1.28023e-07
2.07478e-07
2.80824e-07
3.48587e-07
4.11462e-07
4.69729e-07
5.2435e-07
5.7564e-07
6.23763e-07
6.72296e-07
7.11899e-07
7.73096e-07
7.74921e-07
9.3229e-07
7.14806e-07
1.3761e-06
1.35666e-07
2.79189e-06
-1.8967e-06
6.20539e-06
-5.78278e-06
1.03368e-05
-7.13032e-06
7.43653e-06
3.20523e-06
-7.29972e-06
1.91351e-05
-1.39838e-05
-1.64109e-05
-1.55759e-05
-1.47685e-05
-1.39882e-05
-1.32347e-05
-1.25075e-05
-1.18062e-05
-1.11305e-05
-1.04799e-05
-9.85407e-06
-9.25251e-06
-8.67483e-06
-8.12061e-06
-7.58941e-06
-7.08078e-06
-6.59427e-06
-6.12941e-06
-5.68573e-06
-5.26275e-06
-4.85997e-06
-4.4769e-06
-4.11301e-06
-3.76778e-06
-3.44071e-06
-3.1312e-06
-2.83878e-06
-2.5628e-06
-2.30282e-06
-2.05814e-06
-1.82832e-06
-1.61267e-06
-1.41071e-06
-1.2218e-06
-1.04538e-06
-8.80924e-07
-7.27749e-07
-5.85431e-07
-4.53255e-07
-3.30766e-07
-2.17366e-07
-1.12464e-07
-1.56137e-08
7.38622e-08
1.56368e-07
2.32544e-07
3.02864e-07
3.67836e-07
4.28138e-07
4.84015e-07
5.36435e-07
5.85647e-07
6.3187e-07
6.78508e-07
7.16572e-07
7.75587e-07
7.77131e-07
9.29681e-07
7.18007e-07
1.36207e-06
1.50895e-07
2.75e-06
-1.84965e-06
6.12049e-06
-5.70768e-06
1.02496e-05
-7.10685e-06
7.44624e-06
3.11878e-06
-7.20066e-06
1.90136e-05
-1.3807e-05
-1.56682e-05
-1.48687e-05
-1.40957e-05
-1.33487e-05
-1.26273e-05
-1.19312e-05
-1.12599e-05
-1.06131e-05
-9.99037e-06
-9.39136e-06
-8.81564e-06
-8.26281e-06
-7.73245e-06
-7.22415e-06
-6.73747e-06
-6.27197e-06
-5.82722e-06
-5.40274e-06
-4.99809e-06
-4.61278e-06
-4.24633e-06
-3.89825e-06
-3.56803e-06
-3.25518e-06
-2.95914e-06
-2.67945e-06
-2.4155e-06
-2.16684e-06
-1.93284e-06
-1.71304e-06
-1.5068e-06
-1.31366e-06
-1.133e-06
-9.64277e-07
-8.07008e-07
-6.60519e-07
-5.24422e-07
-3.98017e-07
-2.8088e-07
-1.72432e-07
-7.21085e-08
2.05122e-08
1.0609e-07
1.84995e-07
2.57859e-07
3.25121e-07
3.87274e-07
4.44978e-07
4.9844e-07
5.48634e-07
5.95748e-07
6.40047e-07
6.84769e-07
7.21278e-07
7.7807e-07
7.79364e-07
9.26943e-07
7.21341e-07
1.34754e-06
1.66772e-07
2.70663e-06
-1.80087e-06
6.03291e-06
-5.63076e-06
1.01611e-05
-7.08528e-06
7.45821e-06
3.02982e-06
-7.10622e-06
1.89004e-05
-1.36506e-05
-1.49176e-05
-1.41541e-05
-1.34159e-05
-1.27025e-05
-1.20137e-05
-1.13489e-05
-1.0708e-05
-1.00904e-05
-9.4959e-06
-8.92403e-06
-8.37443e-06
-7.84671e-06
-7.34047e-06
-6.85531e-06
-6.3908e-06
-5.94654e-06
-5.52209e-06
-5.11702e-06
-4.73088e-06
-4.36321e-06
-4.01355e-06
-3.68143e-06
-3.36636e-06
-3.06787e-06
-2.78543e-06
-2.5186e-06
-2.26679e-06
-2.02958e-06
-1.80634e-06
-1.59667e-06
-1.39993e-06
-1.21568e-06
-1.04335e-06
-8.82404e-07
-7.32391e-07
-5.92651e-07
-4.62834e-07
-3.42256e-07
-2.30521e-07
-1.27073e-07
-3.13715e-08
5.69792e-08
1.38621e-07
2.13891e-07
2.83412e-07
3.47586e-07
4.06894e-07
4.61972e-07
5.12996e-07
5.60942e-07
6.05936e-07
6.48291e-07
6.91076e-07
7.26012e-07
7.80552e-07
7.81595e-07
9.24128e-07
7.24686e-07
1.33276e-06
1.82741e-07
2.66283e-06
-1.75222e-06
5.94566e-06
-5.55635e-06
1.00768e-05
-7.07107e-06
7.47609e-06
2.9385e-06
-7.02158e-06
1.88041e-05
-1.35252e-05
-1.4175e-05
-1.34472e-05
-1.27434e-05
-1.20634e-05
-1.14068e-05
-1.07731e-05
-1.01622e-05
-9.57361e-06
-9.007e-06
-8.462e-06
-7.93824e-06
-7.43536e-06
-6.95298e-06
-6.4907e-06
-6.04813e-06
-5.62487e-06
-5.2205e-06
-4.83461e-06
-4.46677e-06
-4.11654e-06
-3.78348e-06
-3.46714e-06
-3.16704e-06
-2.88276e-06
-2.61376e-06
-2.35964e-06
-2.11983e-06
-1.89392e-06
-1.68133e-06
-1.48166e-06
-1.29431e-06
-1.11886e-06
-9.54761e-07
-8.01496e-07
-6.58654e-07
-5.25585e-07
-4.01974e-07
-2.87153e-07
-1.80757e-07
-8.225e-08
8.88334e-09
9.3014e-08
1.70766e-07
2.42444e-07
3.0866e-07
3.69783e-07
4.26278e-07
4.78761e-07
5.27375e-07
5.73097e-07
6.15995e-07
6.56426e-07
6.97295e-07
7.30672e-07
7.82982e-07
7.83772e-07
9.2131e-07
7.27928e-07
1.31816e-06
1.98249e-07
2.61996e-06
-1.70558e-06
5.86201e-06
-5.48819e-06
1.00012e-05
-7.06755e-06
7.50166e-06
2.84677e-06
-6.95157e-06
1.87319e-05
-1.34391e-05
-1.3434e-05
-1.27418e-05
-1.20725e-05
-1.14258e-05
-1.08014e-05
-1.01988e-05
-9.61786e-06
-9.05817e-06
-8.5194e-06
-8.00122e-06
-7.50326e-06
-7.02517e-06
-6.56659e-06
-6.12715e-06
-5.70646e-06
-5.30414e-06
-4.9198e-06
-4.55304e-06
-4.20345e-06
-3.87061e-06
-3.55411e-06
-3.2535e-06
-2.96834e-06
-2.69821e-06
-2.44262e-06
-2.20117e-06
-1.97332e-06
-1.75869e-06
-1.55671e-06
-1.36702e-06
-1.18903e-06
-1.02234e-06
-8.66448e-07
-7.20841e-07
-5.85146e-07
-4.58728e-07
-3.41303e-07
-2.32223e-07
-1.31148e-07
-3.75673e-08
4.90122e-08
1.28936e-07
2.0281e-07
2.70907e-07
3.33829e-07
3.91909e-07
4.456e-07
4.95495e-07
5.41706e-07
5.8521e-07
6.26016e-07
6.64529e-07
7.03477e-07
7.35324e-07
7.85333e-07
7.86048e-07
9.18159e-07
7.31805e-07
1.3021e-06
2.16412e-07
2.57217e-06
-1.65122e-06
5.76693e-06
-5.40616e-06
9.91077e-06
-7.05319e-06
7.52221e-06
2.75129e-06
-6.87499e-06
1.86505e-05
-1.33559e-05
-1.26717e-05
-1.20162e-05
-1.13824e-05
-1.077e-05
-1.01786e-05
-9.60808e-06
-9.058e-06
-8.52807e-06
-8.01797e-06
-7.52738e-06
-7.05596e-06
-6.60339e-06
-6.16929e-06
-5.75334e-06
-5.35516e-06
-4.97439e-06
-4.61065e-06
-4.26356e-06
-3.93275e-06
-3.61779e-06
-3.31831e-06
-3.03388e-06
-2.76407e-06
-2.5085e-06
-2.26669e-06
-2.03827e-06
-1.82271e-06
-1.61967e-06
-1.42861e-06
-1.24916e-06
-1.0808e-06
-9.23123e-07
-7.75668e-07
-6.37933e-07
-5.09587e-07
-3.90005e-07
-2.78939e-07
-1.75759e-07
-8.01553e-08
8.36226e-09
9.02606e-08
1.6586e-07
2.35747e-07
3.00163e-07
3.59698e-07
4.14649e-07
4.65459e-07
5.12691e-07
5.56433e-07
5.97653e-07
6.3631e-07
6.72849e-07
7.09814e-07
7.401e-07
7.87696e-07
7.88437e-07
9.14699e-07
7.36149e-07
1.2847e-06
2.36614e-07
2.52012e-06
-1.59107e-06
5.66296e-06
-5.31522e-06
9.81157e-06
-7.03596e-06
7.54353e-06
2.65002e-06
-6.79787e-06
1.85707e-05
-1.32874e-05
-1.18876e-05
-1.12699e-05
-1.06727e-05
-1.00956e-05
-9.53835e-06
-9.00072e-06
-8.4824e-06
-7.98309e-06
-7.50249e-06
-7.04029e-06
-6.59618e-06
-6.16984e-06
-5.76093e-06
-5.36913e-06
-4.99409e-06
-4.63548e-06
-4.29292e-06
-3.96606e-06
-3.65454e-06
-3.35797e-06
-3.07598e-06
-2.80818e-06
-2.55416e-06
-2.31355e-06
-2.0859e-06
-1.87086e-06
-1.66795e-06
-1.47682e-06
-1.29697e-06
-1.12806e-06
-9.69585e-07
-8.2117e-07
-6.82384e-07
-5.52741e-07
-4.31944e-07
-3.19388e-07
-2.14855e-07
-1.1774e-07
-2.77574e-08
5.55565e-08
1.32644e-07
2.03801e-07
2.6959e-07
3.30224e-07
3.86278e-07
4.38014e-07
4.85862e-07
5.30357e-07
5.71561e-07
6.10433e-07
6.46879e-07
6.81388e-07
7.16312e-07
7.44993e-07
7.90091e-07
7.9089e-07
9.11037e-07
7.40716e-07
1.26642e-06
2.57893e-07
2.46549e-06
-1.52795e-06
5.55432e-06
-5.22112e-06
9.71023e-06
-7.02229e-06
7.56957e-06
2.54339e-06
-6.72637e-06
1.85023e-05
-1.32449e-05
-1.10815e-05
-1.05028e-05
-9.94313e-06
-9.40238e-06
-8.88025e-06
-8.3765e-06
-7.89085e-06
-7.42303e-06
-6.97276e-06
-6.53976e-06
-6.12372e-06
-5.72435e-06
-5.34134e-06
-4.97437e-06
-4.62312e-06
-4.28727e-06
-3.96648e-06
-3.66041e-06
-3.36872e-06
-3.09105e-06
-2.82703e-06
-2.57632e-06
-2.33852e-06
-2.11328e-06
-1.90018e-06
-1.6989e-06
-1.50897e-06
-1.33008e-06
-1.16174e-06
-1.00366e-06
-8.55344e-07
-7.16443e-07
-5.86563e-07
-4.6523e-07
-3.52189e-07
-2.46851e-07
-1.49029e-07
-5.81436e-08
2.60652e-08
1.04033e-07
1.7618e-07
2.42772e-07
3.04352e-07
3.611e-07
4.13579e-07
4.62011e-07
5.06817e-07
5.48499e-07
5.87095e-07
6.23553e-07
6.57728e-07
6.90148e-07
7.22971e-07
7.50002e-07
7.92523e-07
7.93391e-07
9.072e-07
7.45439e-07
1.24738e-06
2.80069e-07
2.4085e-06
-1.46213e-06
5.44115e-06
-5.12382e-06
9.6064e-06
-7.01176e-06
7.59994e-06
2.43135e-06
-6.66029e-06
1.84444e-05
-1.32282e-05
-1.02532e-05
-9.71448e-06
-9.19352e-06
-8.69015e-06
-8.20411e-06
-7.73518e-06
-7.28313e-06
-6.84769e-06
-6.4286e-06
-6.0256e-06
-5.63842e-06
-5.26677e-06
-4.91037e-06
-4.56891e-06
-4.24211e-06
-3.92965e-06
-3.63123e-06
-3.34651e-06
-3.07519e-06
-2.81692e-06
-2.57138e-06
-2.33821e-06
-2.11707e-06
-1.90762e-06
-1.70947e-06
-1.52231e-06
-1.34571e-06
-1.17939e-06
-1.02289e-06
-8.75919e-07
-7.38035e-07
-6.08904e-07
-4.88168e-07
-3.75371e-07
-2.70294e-07
-1.72367e-07
-8.14368e-08
3.0511e-09
8.13313e-08
1.5381e-07
2.20882e-07
2.82787e-07
3.40044e-07
3.92802e-07
4.41609e-07
4.86649e-07
5.2833e-07
5.67122e-07
6.03041e-07
6.37017e-07
6.68859e-07
6.99129e-07
7.29796e-07
7.55124e-07
7.94996e-07
7.95924e-07
9.03209e-07
7.50271e-07
1.22763e-06
3.03061e-07
2.34917e-06
-1.39348e-06
5.32292e-06
-5.02236e-06
9.4985e-06
-7.00269e-06
7.6333e-06
2.31395e-06
-6.59836e-06
1.83944e-05
-1.3234e-05
-9.40243e-06
-8.90482e-06
-8.42363e-06
-7.95867e-06
-7.50973e-06
-7.0766e-06
-6.65906e-06
-6.25689e-06
-5.86984e-06
-5.49768e-06
-5.14013e-06
-4.79696e-06
-4.46789e-06
-4.15264e-06
-3.85094e-06
-3.56251e-06
-3.28705e-06
-3.02427e-06
-2.77386e-06
-2.53552e-06
-2.30893e-06
-2.09379e-06
-1.88974e-06
-1.6965e-06
-1.51369e-06
-1.34104e-06
-1.17813e-06
-1.02472e-06
-8.80354e-07
-7.44796e-07
-6.17622e-07
-4.9852e-07
-3.87171e-07
-2.83135e-07
-1.86233e-07
-9.59149e-08
-1.20575e-08
6.58629e-08
1.38058e-07
2.04901e-07
2.66765e-07
3.23858e-07
3.76678e-07
4.25341e-07
4.70378e-07
5.11935e-07
5.50408e-07
5.86233e-07
6.19402e-07
6.50828e-07
6.80275e-07
7.08334e-07
7.36786e-07
7.60357e-07
7.97516e-07
7.98476e-07
8.99087e-07
7.55152e-07
1.20725e-06
3.26724e-07
2.28762e-06
-1.32211e-06
5.19949e-06
-4.91621e-06
9.38547e-06
-6.99384e-06
7.66852e-06
2.19131e-06
-6.5397e-06
1.83502e-05
-1.32588e-05
-8.52893e-06
-8.07359e-06
-7.63325e-06
-7.20776e-06
-6.79692e-06
-6.40056e-06
-6.01849e-06
-5.65048e-06
-5.29634e-06
-4.95583e-06
-4.62872e-06
-4.31479e-06
-4.01377e-06
-3.72544e-06
-3.44951e-06
-3.18574e-06
-2.93386e-06
-2.69358e-06
-2.46465e-06
-2.24676e-06
-2.03963e-06
-1.84297e-06
-1.65648e-06
-1.47988e-06
-1.31281e-06
-1.15504e-06
-1.00618e-06
-8.66006e-07
-7.34107e-07
-6.10256e-07
-4.94072e-07
-3.85261e-07
-2.83544e-07
-1.88499e-07
-9.99831e-08
-1.74727e-08
5.91275e-08
1.30309e-07
1.9626e-07
2.57321e-07
3.1384e-07
3.65997e-07
4.14264e-07
4.58724e-07
4.99892e-07
5.37875e-07
5.73057e-07
6.05835e-07
6.36183e-07
6.6499e-07
6.91978e-07
7.17764e-07
7.43944e-07
7.65697e-07
8.00085e-07
8.01028e-07
8.9486e-07
7.60015e-07
1.18634e-06
3.50877e-07
2.22407e-06
-1.24823e-06
5.07083e-06
-4.80506e-06
9.26644e-06
-6.98412e-06
7.70456e-06
2.0636e-06
-6.48355e-06
1.83096e-05
-1.32986e-05
-7.63258e-06
-7.22064e-06
-6.82224e-06
-6.43727e-06
-6.06555e-06
-5.70694e-06
-5.36126e-06
-5.02833e-06
-4.70795e-06
-4.39994e-06
-4.10407e-06
-3.82015e-06
-3.54793e-06
-3.2872e-06
-3.03772e-06
-2.79926e-06
-2.57156e-06
-2.35438e-06
-2.14747e-06
-1.95057e-06
-1.7634e-06
-1.58572e-06
-1.41723e-06
-1.25769e-06
-1.10678e-06
-9.64273e-07
-8.29823e-07
-7.03226e-07
-5.84109e-07
-4.72268e-07
-3.67356e-07
-2.691e-07
-1.77262e-07
-9.14382e-08
-1.15247e-08
6.29774e-08
1.32135e-07
1.96404e-07
2.55951e-07
3.11082e-07
3.62119e-07
4.09213e-07
4.52809e-07
4.92959e-07
5.30158e-07
5.64476e-07
5.9628e-07
6.25933e-07
6.53387e-07
6.79505e-07
7.0397e-07
7.27419e-07
7.5127e-07
7.71142e-07
8.02709e-07
8.03564e-07
8.90553e-07
7.64794e-07
1.16501e-06
3.75334e-07
2.15872e-06
-1.17208e-06
4.93699e-06
-4.68864e-06
9.14052e-06
-6.9724e-06
7.74024e-06
1.93108e-06
-6.42907e-06
1.82701e-05
-1.33484e-05
-6.71326e-06
-6.34585e-06
-5.99049e-06
-5.64708e-06
-5.3155e-06
-4.99561e-06
-4.68728e-06
-4.39033e-06
-4.1046e-06
-3.82992e-06
-3.56609e-06
-3.31294e-06
-3.07026e-06
-2.83785e-06
-2.6155e-06
-2.40299e-06
-2.2001e-06
-2.0066e-06
-1.82228e-06
-1.64689e-06
-1.4802e-06
-1.32197e-06
-1.17194e-06
-1.0299e-06
-8.9555e-07
-7.68694e-07
-6.4902e-07
-5.36345e-07
-4.30335e-07
-3.30805e-07
-2.3745e-07
-1.50015e-07
-6.83057e-08
8.06378e-09
7.91589e-08
1.45451e-07
2.06978e-07
2.6416e-07
3.17142e-07
3.66193e-07
4.1161e-07
4.53513e-07
4.9232e-07
5.28052e-07
5.61182e-07
5.91741e-07
6.20082e-07
6.4653e-07
6.71016e-07
6.94374e-07
7.16253e-07
7.37299e-07
7.58764e-07
7.76687e-07
8.05389e-07
8.06067e-07
8.86191e-07
7.69422e-07
1.14335e-06
3.99898e-07
2.09182e-06
-1.09394e-06
4.79803e-06
-4.56669e-06
9.00682e-06
-6.95745e-06
7.77426e-06
1.79405e-06
-6.37534e-06
1.82292e-05
-1.34029e-05
-5.7709e-06
-5.44914e-06
-5.13791e-06
-4.83712e-06
-4.5467e-06
-4.26652e-06
-3.99646e-06
-3.7364e-06
-3.48619e-06
-3.24569e-06
-3.01471e-06
-2.79312e-06
-2.58072e-06
-2.37734e-06
-2.18279e-06
-1.99688e-06
-1.81942e-06
-1.6502e-06
-1.48903e-06
-1.3357e-06
-1.18999e-06
-1.05169e-06
-9.20588e-07
-7.96472e-07
-6.79096e-07
-5.68281e-07
-4.63748e-07
-3.65341e-07
-2.72761e-07
-1.85848e-07
-1.04337e-07
-2.79913e-08
4.33401e-08
1.10021e-07
1.7208e-07
2.29958e-07
2.83667e-07
3.33586e-07
3.79842e-07
4.22661e-07
4.6232e-07
4.98904e-07
5.32804e-07
5.64007e-07
5.92967e-07
6.19674e-07
6.44466e-07
6.67628e-07
6.89071e-07
7.09599e-07
7.28827e-07
7.47403e-07
7.66428e-07
7.82331e-07
8.08129e-07
8.08522e-07
8.81795e-07
7.73833e-07
1.12147e-06
4.24367e-07
2.02361e-06
-1.01414e-06
4.65409e-06
-4.43903e-06
8.86447e-06
-6.93798e-06
7.8052e-06
1.65295e-06
-6.32147e-06
1.8184e-05
-1.34561e-05
-4.80551e-06
-4.53052e-06
-4.26448e-06
-4.00737e-06
-3.75911e-06
-3.51961e-06
-3.28879e-06
-3.06653e-06
-2.85271e-06
-2.64722e-06
-2.44991e-06
-2.26064e-06
-2.07926e-06
-1.90563e-06
-1.73956e-06
-1.58091e-06
-1.4295e-06
-1.28515e-06
-1.1477e-06
-1.01695e-06
-8.92737e-07
-7.74865e-07
-6.63141e-07
-5.57392e-07
-4.57401e-07
-3.63015e-07
-2.73992e-07
-1.90199e-07
-1.11376e-07
-3.73859e-08
3.19956e-08
9.69825e-08
1.57684e-07
2.14442e-07
2.67246e-07
3.16506e-07
3.62208e-07
4.04688e-07
4.44055e-07
4.80493e-07
5.14253e-07
5.45389e-07
5.74262e-07
6.00828e-07
6.25515e-07
6.48277e-07
6.69433e-07
6.89228e-07
7.07554e-07
7.2518e-07
7.41691e-07
7.57732e-07
7.74259e-07
7.88068e-07
8.10929e-07
8.10913e-07
8.77387e-07
7.77964e-07
1.09947e-06
4.48535e-07
1.95437e-06
-9.33027e-07
4.50538e-06
-4.30556e-06
8.71266e-06
-6.91273e-06
7.83154e-06
1.50832e-06
-6.2666e-06
1.81312e-05
-1.35021e-05
-3.81713e-06
-3.59002e-06
-3.37026e-06
-3.15786e-06
-2.95277e-06
-2.75492e-06
-2.56426e-06
-2.38071e-06
-2.20416e-06
-2.03452e-06
-1.87167e-06
-1.71551e-06
-1.56589e-06
-1.42271e-06
-1.28581e-06
-1.15506e-06
-1.03032e-06
-9.1144e-07
-7.9827e-07
-6.90656e-07
-5.88445e-07
-4.9148e-07
-3.99598e-07
-3.12653e-07
-2.3046e-07
-1.52894e-07
-7.97479e-08
-1.09158e-08
5.38241e-08
1.14585e-07
1.7155e-07
2.24909e-07
2.7473e-07
3.21328e-07
3.6466e-07
4.05097e-07
4.42603e-07
4.77468e-07
5.09782e-07
5.39687e-07
5.67409e-07
5.9297e-07
6.16695e-07
6.38515e-07
6.58827e-07
6.7755e-07
6.94983e-07
7.1133e-07
7.26464e-07
7.41116e-07
7.54846e-07
7.68283e-07
7.82256e-07
7.93896e-07
8.13791e-07
8.13228e-07
8.72985e-07
7.81753e-07
1.07746e-06
4.7219e-07
1.88439e-06
-8.51013e-07
4.35216e-06
-4.16629e-06
8.55065e-06
-6.88042e-06
7.85167e-06
1.36082e-06
-6.20995e-06
1.80679e-05
-1.35349e-05
-2.80591e-06
-2.62776e-06
-2.45534e-06
-2.28867e-06
-2.12774e-06
-1.97252e-06
-1.82295e-06
-1.67899e-06
-1.54057e-06
-1.40762e-06
-1.28004e-06
-1.15775e-06
-1.04064e-06
-9.28614e-07
-8.21562e-07
-7.19368e-07
-6.21919e-07
-5.29091e-07