/*--------------------------------*- C++ -*----------------------------------*\
| =========                 |                                                 |
| \\      /  F ield         | OpenFOAM: The Open Source CFD Toolbox           |
|  \\    /   O peration     | Version:  2412                                  |
|   \\  /    A nd           | Website:  www.openfoam.com                      |
|    \\/     M anipulation  |                                                 |
\*---------------------------------------------------------------------------*/
FoamFile
{
    version     2.0;
    format      ascii;
    arch        "LSB;label=32;scalar=64";
    class       volVectorField;
    location    "9.5";
    object      U;
}
// * * * * * * * * * * * * * * * * * * * * * * * * * * * * * * * * * * * * * //

dimensions      [0 1 -1 0 0 0 0];

internalField   nonuniform List<vector> 
5285
(
(0.114118 -0.00116495 0)
(0.113474 -0.00108672 0)
(0.113379 -0.00170858 0)
(0.113227 -0.00231487 0)
(0.113043 -0.00290275 0)
(0.112822 -0.00346872 0)
(0.112563 -0.00400896 0)
(0.112269 -0.00452044 0)
(0.111944 -0.00500103 0)
(0.111591 -0.00544946 0)
(0.111213 -0.00586513 0)
(0.110814 -0.006248 0)
(0.110398 -0.00659835 0)
(0.109968 -0.00691658 0)
(0.109527 -0.00720302 0)
(0.109079 -0.00745784 0)
(0.108626 -0.00768108 0)
(0.108172 -0.00787268 0)
(0.107719 -0.00803264 0)
(0.107269 -0.00816116 0)
(0.106825 -0.00825876 0)
(0.106389 -0.00832638 0)
(0.105962 -0.00836539 0)
(0.105546 -0.00837755 0)
(0.112873 -0.00101564 0)
(0.112787 -0.0015953 0)
(0.112649 -0.002161 0)
(0.112482 -0.00271008 0)
(0.112281 -0.00323934 0)
(0.112045 -0.00374532 0)
(0.111777 -0.00422527 0)
(0.11148 -0.00467733 0)
(0.111157 -0.00510038 0)
(0.110811 -0.00549396 0)
(0.110446 -0.00585806 0)
(0.110064 -0.00619294 0)
(0.109668 -0.00649893 0)
(0.109261 -0.00677624 0)
(0.108847 -0.00702489 0)
(0.108428 -0.00724473 0)
(0.108006 -0.00743552 0)
(0.107584 -0.00759707 0)
(0.107164 -0.00772938 0)
(0.106748 -0.00783276 0)
(0.106338 -0.00790797 0)
(0.105936 -0.00795617 0)
(0.105543 -0.00797894 0)
(0.112313 -0.000950781 0)
(0.112234 -0.00149207 0)
(0.112109 -0.00202078 0)
(0.111956 -0.00253447 0)
(0.111773 -0.00303018 0)
(0.111557 -0.00350476 0)
(0.111313 -0.00395574 0)
(0.111041 -0.00438146 0)
(0.110746 -0.00478095 0)
(0.110429 -0.00515385 0)
(0.110094 -0.00550019 0)
(0.109743 -0.00582022 0)
(0.109379 -0.0061142 0)
(0.109004 -0.00638223 0)
(0.108621 -0.00662423 0)
(0.108232 -0.00683991 0)
(0.10784 -0.00702887 0)
(0.107447 -0.00719078 0)
(0.107055 -0.00732546 0)
(0.106665 -0.0074331 0)
(0.10628 -0.00751428 0)
(0.105901 -0.00756999 0)
(0.105529 -0.00760163 0)
(0.11179 -0.000891364 0)
(0.111718 -0.0013977 0)
(0.111603 -0.0018927 0)
(0.111464 -0.00237408 0)
(0.111296 -0.00283912 0)
(0.111099 -0.00328494 0)
(0.110875 -0.0037093 0)
(0.110627 -0.00411072 0)
(0.110356 -0.00448838 0)
(0.110066 -0.00484196 0)
(0.109758 -0.00517155 0)
(0.109435 -0.00547737 0)
(0.1091 -0.00575961 0)
(0.108754 -0.00601833 0)
(0.1084 -0.00625332 0)
(0.10804 -0.0064642 0)
(0.107675 -0.00665047 0)
(0.107309 -0.00681165 0)
(0.106942 -0.0069475 0)
(0.106577 -0.00705804 0)
(0.106215 -0.00714375 0)
(0.105858 -0.00720547 0)
(0.105506 -0.00724447 0)
(0.1113 -0.000836694 0)
(0.111234 -0.00131115 0)
(0.111129 -0.00177538 0)
(0.111001 -0.00222725 0)
(0.110847 -0.00266425 0)
(0.110667 -0.00308374 0)
(0.110462 -0.00348368 0)
(0.110235 -0.00386274 0)
(0.109987 -0.00422019 0)
(0.10972 -0.00455578 0)
(0.109438 -0.00486959 0)
(0.109141 -0.00516185 0)
(0.108832 -0.0054327 0)
(0.108512 -0.00568212 0)
(0.108185 -0.00590984 0)
(0.107851 -0.00611539 0)
(0.107512 -0.00629821 0)
(0.10717 -0.00645776 0)
(0.106828 -0.00659368 0)
(0.106485 -0.00670595 0)
(0.106145 -0.00679491 0)
(0.105808 -0.00686133 0)
(0.105476 -0.00690634 0)
(0.110842 -0.000786168 0)
(0.11078 -0.0012315 0)
(0.110684 -0.00166762 0)
(0.110567 -0.00209254 0)
(0.110425 -0.00250392 0)
(0.11026 -0.00289933 0)
(0.110072 -0.00327689 0)
(0.109863 -0.00363539 0)
(0.109636 -0.00397417 0)
(0.109391 -0.00429302 0)
(0.109132 -0.00459203 0)
(0.108859 -0.00487138 0)
(0.108574 -0.00513119 0)
(0.108279 -0.00537138 0)
(0.107976 -0.00559163 0)
(0.107666 -0.00579143 0)
(0.107351 -0.00597017 0)
(0.107032 -0.00612726 0)
(0.106712 -0.00626232 0)
(0.10639 -0.00637527 0)
(0.10607 -0.00646638 0)
(0.105752 -0.00653633 0)
(0.105438 -0.00658616 0)
(0.110412 -0.000739274 0)
(0.110354 -0.00115795 0)
(0.110266 -0.00156838 0)
(0.110158 -0.00196868 0)
(0.110028 -0.00235665 0)
(0.109876 -0.00273005 0)
(0.109703 -0.00308713 0)
(0.109512 -0.00342676 0)
(0.109303 -0.00374833 0)
(0.109079 -0.00405165 0)
(0.10884 -0.00433678 0)
(0.108589 -0.00460388 0)
(0.108326 -0.00485302 0)
(0.108054 -0.00508409 0)
(0.107773 -0.00529673 0)
(0.107485 -0.00549042 0)
(0.107192 -0.00566452 0)
(0.106895 -0.00581846 0)
(0.106595 -0.00595184 0)
(0.106293 -0.00606454 0)
(0.105992 -0.00615681 0)
(0.105692 -0.00622928 0)
(0.105394 -0.00628289 0)
(0.110008 -0.000695576 0)
(0.109955 -0.00108984 0)
(0.109874 -0.00147676 0)
(0.109774 -0.00185454 0)
(0.109654 -0.00222114 0)
(0.109514 -0.00257443 0)
(0.109355 -0.00291278 0)
(0.109179 -0.00323513 0)
(0.108987 -0.00354086 0)
(0.108781 -0.00382979 0)
(0.108561 -0.00410194 0)
(0.10833 -0.00435742 0)
(0.108088 -0.00459627 0)
(0.107836 -0.00481835 0)
(0.107576 -0.00502329 0)
(0.107309 -0.00521057 0)
(0.107036 -0.00537958 0)
(0.106758 -0.00552976 0)
(0.106477 -0.00566073 0)
(0.106194 -0.00577239 0)
(0.10591 -0.00586497 0)
(0.105627 -0.00593906 0)
(0.105345 -0.00599552 0)
(0.109629 -0.000654712 0)
(0.10958 -0.00102658 0)
(0.109505 -0.00139195 0)
(0.109412 -0.00174915 0)
(0.109302 -0.00209622 0)
(0.109173 -0.00243116 0)
(0.109026 -0.00275241 0)
(0.108864 -0.00305893 0)
(0.108688 -0.00335011 0)
(0.108498 -0.00362571 0)
(0.108296 -0.00388572 0)
(0.108083 -0.0041302 0)
(0.107859 -0.00435914 0)
(0.107626 -0.00457238 0)
(0.107385 -0.00476957 0)
(0.107137 -0.00495021 0)
(0.106882 -0.00511374 0)
(0.106623 -0.00525965 0)
(0.106359 -0.0053876 0)
(0.106093 -0.00549753 0)
(0.105826 -0.00558968 0)
(0.105558 -0.0056646 0)
(0.105292 -0.00572313 0)
(0.109274 -0.000616394 0)
(0.109227 -0.000967675 0)
(0.109158 -0.00131329 0)
(0.109072 -0.00165164 0)
(0.10897 -0.00198086 0)
(0.108851 -0.00229905 0)
(0.108716 -0.00260468 0)
(0.108567 -0.00289671 0)
(0.108404 -0.00317451 0)
(0.108229 -0.00343778 0)
(0.108043 -0.00368645 0)
(0.107846 -0.0039205 0)
(0.107639 -0.00413991 0)
(0.107424 -0.0043445 0)
(0.1072 -0.00453393 0)
(0.106969 -0.00470776 0)
(0.106731 -0.00486549 0)
(0.106488 -0.00500669 0)
(0.106241 -0.00513112 0)
(0.105991 -0.00523874 0)
(0.105739 -0.00532983 0)
(0.105486 -0.00540494 0)
(0.105233 -0.00546485 0)
(0.10894 -0.000580404 0)
(0.108896 -0.000912733 0)
(0.108832 -0.0012402 0)
(0.108753 -0.00156126 0)
(0.108658 -0.00187415 0)
(0.108547 -0.00217701 0)
(0.108423 -0.00246836 0)
(0.108285 -0.00274713 0)
(0.108135 -0.00301262 0)
(0.107973 -0.00326447 0)
(0.107801 -0.00350252 0)
(0.107619 -0.00372671 0)
(0.107428 -0.00393695 0)
(0.107228 -0.00413306 0)
(0.10702 -0.00431477 0)
(0.106805 -0.00448167 0)
(0.106583 -0.00463338 0)
(0.106355 -0.00476956 0)
(0.106123 -0.00489005 0)
(0.105887 -0.0049949 0)
(0.105649 -0.00508442 0)
(0.10541 -0.00515917 0)
(0.105171 -0.00521989 0)
(0.108627 -0.00054659 0)
(0.108586 -0.000861428 0)
(0.108526 -0.00117217 0)
(0.108452 -0.00147734 0)
(0.108364 -0.00177523 0)
(0.108262 -0.00206405 0)
(0.108146 -0.00234231 0)
(0.108019 -0.00260889 0)
(0.10788 -0.00286304 0)
(0.107731 -0.00310428 0)
(0.107571 -0.00333239 0)
(0.107403 -0.00354722 0)
(0.107225 -0.00374865 0)
(0.107039 -0.00393651 0)
(0.106845 -0.00411056 0)
(0.106644 -0.0042705 0)
(0.106437 -0.00441604 0)
(0.106223 -0.00454697 0)
(0.106005 -0.00466323 0)
(0.105783 -0.00476496 0)
(0.105558 -0.00485251 0)
(0.105331 -0.00492646 0)
(0.105105 -0.00498752 0)
(0.108333 -0.000514861 0)
(0.108294 -0.000813509 0)
(0.108239 -0.00110879 0)
(0.10817 -0.0013993 0)
(0.108088 -0.00168338 0)
(0.107993 -0.00195927 0)
(0.107886 -0.00222547 0)
(0.107768 -0.00248081 0)
(0.107639 -0.00272444 0)
(0.1075 -0.0029558 0)
(0.107352 -0.00317456 0)
(0.107195 -0.00338049 0)
(0.10703 -0.00357347 0)
(0.106857 -0.00375331 0)
(0.106676 -0.00391983 0)
(0.106487 -0.00407284 0)
(0.106292 -0.00421217 0)
(0.106092 -0.00433772 0)
(0.105886 -0.00444957 0)
(0.105677 -0.00454794 0)
(0.105464 -0.00463325 0)
(0.10525 -0.00470608 0)
(0.105035 -0.00476711 0)
(0.108057 -0.000485176 0)
(0.108021 -0.000768787 0)
(0.10797 -0.00104972 0)
(0.107906 -0.00132663 0)
(0.107829 -0.00159791 0)
(0.107741 -0.00186181 0)
(0.107641 -0.00211683 0)
(0.107531 -0.00236172 0)
(0.107411 -0.00259555 0)
(0.107281 -0.00281764 0)
(0.107143 -0.00302758 0)
(0.106997 -0.00322506 0)
(0.106842 -0.00340992 0)
(0.10668 -0.003582 0)
(0.10651 -0.00374119 0)
(0.106334 -0.00388738 0)
(0.10615 -0.00402053 0)
(0.105961 -0.00414071 0)
(0.105767 -0.00424808 0)
(0.10557 -0.00434297 0)
(0.105369 -0.00442586 0)
(0.105166 -0.00449734 0)
(0.104962 -0.00455807 0)
(0.107798 -0.000457524 0)
(0.107765 -0.000727113 0)
(0.107717 -0.000994666 0)
(0.107658 -0.00125889 0)
(0.107586 -0.0015182 0)
(0.107504 -0.00177091 0)
(0.10741 -0.00201546 0)
(0.107307 -0.00225056 0)
(0.107195 -0.00247517 0)
(0.107074 -0.00268852 0)
(0.106945 -0.00289008 0)
(0.106807 -0.0030795 0)
(0.106662 -0.00325659 0)
(0.106509 -0.0034212 0)
(0.10635 -0.00357329 0)
(0.106183 -0.00371286 0)
(0.10601 -0.00383999 0)
(0.105832 -0.00395488 0)
(0.105649 -0.00405782 0)
(0.105462 -0.00414923 0)
(0.105272 -0.00422963 0)
(0.10508 -0.00429962 0)
(0.104887 -0.00435987 0)
(0.107556 -0.000431914 0)
(0.107525 -0.000688368 0)
(0.107481 -0.000943366 0)
(0.107425 -0.00119566 0)
(0.107358 -0.00144372 0)
(0.107281 -0.00168587 0)
(0.107194 -0.00192052 0)
(0.107097 -0.00214633 0)
(0.106991 -0.00236218 0)
(0.106877 -0.00256721 0)
(0.106755 -0.00276078 0)
(0.106626 -0.00294251 0)
(0.106489 -0.00311216 0)
(0.106345 -0.00326962 0)
(0.106194 -0.00341491 0)
(0.106036 -0.00354813 0)
(0.105873 -0.00366949 0)
(0.105704 -0.00377929 0)
(0.105531 -0.00387795 0)
(0.105354 -0.00396596 0)
(0.105174 -0.0040439 0)
(0.104993 -0.00411238 0)
(0.10481 -0.00417202 0)
(0.107328 -0.000408374 0)
(0.107299 -0.00065245 0)
(0.107259 -0.000895597 0)
(0.107207 -0.00113661 0)
(0.107144 -0.00137397 0)
(0.107072 -0.00160604 0)
(0.106989 -0.00183123 0)
(0.106898 -0.00204815 0)
(0.106798 -0.00225559 0)
(0.10669 -0.00245262 0)
(0.106575 -0.00263855 0)
(0.106452 -0.00281291 0)
(0.106322 -0.00297546 0)
(0.106185 -0.00312611 0)
(0.106042 -0.00326495 0)
(0.105893 -0.00339217 0)
(0.105738 -0.00350807 0)
(0.105578 -0.00361308 0)
(0.105414 -0.0037077 0)
(0.105247 -0.0037925 0)
(0.105076 -0.00386809 0)
(0.104904 -0.00393508 0)
(0.104731 -0.00399406 0)
(0.107114 -0.000386962 0)
(0.107087 -0.000619263 0)
(0.10705 -0.000851152 0)
(0.107002 -0.00108139 0)
(0.106943 -0.00130851 0)
(0.106875 -0.00153087 0)
(0.106797 -0.00174692 0)
(0.10671 -0.00195522 0)
(0.106616 -0.00215452 0)
(0.106513 -0.00234382 0)
(0.106403 -0.00252237 0)
(0.106286 -0.00268967 0)
(0.106162 -0.00284546 0)
(0.106032 -0.00298968 0)
(0.105895 -0.00312246 0)
(0.105753 -0.00324407 0)
(0.105606 -0.00335491 0)
(0.105455 -0.00345549 0)
(0.105299 -0.00354639 0)
(0.10514 -0.00362823 0)
(0.104979 -0.00370163 0)
(0.104816 -0.00376722 0)
(0.104652 -0.00382553 0)
(0.113503 0.00325015 1.36893e-24)
(0.113742 0.00264517 -1.37217e-24)
(0.112946 0.0030348 -1.24321e-24)
(0.113164 0.0024685 4.34775e-23)
(0.113367 0.00189005 -2.70174e-24)
(0.113557 0.00130078 0)
(0.113731 0.000701946 9.51282e-23)
(0.113892 9.45019e-05 -2.22207e-22)
(0.114063 -0.000523983 -3.54092e-24)
(0.112424 0.00283786 1.12663e-24)
(0.112622 0.00230711 -7.41269e-23)
(0.112807 0.0017653 -7.75773e-23)
(0.112978 0.00121368 1.76702e-25)
(0.113134 0.000653636 -1.91055e-22)
(0.113276 8.63304e-05 1.94761e-22)
(0.113426 -0.000489771 1.99761e-22)
(0.111934 0.0026575 -8.40076e-24)
(0.112115 0.00215948 3.69185e-23)
(0.112282 0.00165131 1.4599e-22)
(0.112436 0.00113425 7.86337e-23)
(0.112576 0.000609697 8.97798e-23)
(0.112702 7.89855e-05 -3.63104e-22)
(0.112833 -0.00045867 -3.90825e-22)
(0.111473 0.00249208 8.31131e-24)
(0.111638 0.00202425 1.08922e-24)
(0.11179 0.00154707 -7.26368e-23)
(0.111929 0.00106176 -1.4778e-22)
(0.112054 0.000569758 -1.52322e-25)
(0.112166 7.25036e-05 9.74269e-23)
(0.11228 -0.000430191 1.84917e-22)
(0.11104 0.0023402 5.08562e-24)
(0.11119 0.00190026 2.63592e-24)
(0.111329 0.00145166 -3.06232e-23)
(0.111454 0.00099561 1.31849e-22)
(0.111565 0.000533518 0)
(0.111664 6.69147e-05 8.19169e-23)
(0.111763 -0.000403922 -2.45149e-24)
(0.110632 0.00220058 -1.04264e-23)
(0.110769 0.00178647 -7.3642e-25)
(0.110895 0.00136429 2.70531e-23)
(0.111007 0.000935242 -1.19338e-22)
(0.111107 0.000500695 6.10424e-23)
(0.111193 6.22278e-05 6.99668e-23)
(0.111279 -0.000379518 -2.2274e-24)
(0.110247 0.00207211 5.25191e-24)
(0.110373 0.00168195 0)
(0.110487 0.00128425 0)
(0.110588 0.000880166 5.65515e-23)
(0.110676 0.000471034 -6.30285e-23)
(0.110752 5.84459e-05 -1.23099e-22)
(0.110826 -0.000356681 -6.34344e-23)
(0.109884 0.00195376 5.76368e-25)
(0.109999 0.00158586 9.92505e-24)
(0.110103 0.00121088 1.36517e-25)
(0.110194 0.000829931 1.31279e-25)
(0.110272 0.000444298 4.80587e-23)
(0.110338 5.55622e-05 1.1473e-22)
(0.1104 -0.000335159 1.18801e-22)
(0.109542 0.00184462 -5.0405e-25)
(0.109647 0.00149744 -8.71461e-24)
(0.109741 0.00114359 0)
(0.109823 0.000784117 -2.0249e-23)
(0.109892 0.000420258 -4.96046e-23)
(0.109949 5.35517e-05 -3.72726e-24)
(0.110001 -0.00031475 -1.10532e-22)
(0.109218 0.00174385 0)
(0.109315 0.00141598 -5.97868e-24)
(0.1094 0.00108181 -1.58462e-23)
(0.109473 0.000742327 1.78771e-23)
(0.109534 0.000398682 2.61457e-24)
(0.109583 5.23651e-05 -4.79591e-23)
(0.109626 -0.000295297 5.00724e-23)
(0.108912 0.00165067 -3.72066e-25)
(0.109001 0.00134083 8.23196e-24)
(0.109079 0.00102503 1.51169e-23)
(0.109144 0.000704172 1.10475e-24)
(0.109197 0.000379332 -1.10459e-24)
(0.109239 5.19237e-05 -3.82713e-23)
(0.109274 -0.000276701 0)
(0.108623 0.00156436 1.32362e-24)
(0.108705 0.00127138 -3.11675e-25)
(0.108775 0.000972746 -8.58911e-25)
(0.108834 0.00066927 1.35181e-23)
(0.10888 0.000361955 -1.05289e-25)
(0.108915 5.21156e-05 5.73562e-23)
(0.108943 -0.000258912 3.56145e-23)
(0.10835 0.00148426 -1.26824e-24)
(0.108425 0.00120705 8.79868e-25)
(0.108489 0.000924468 1.11153e-25)
(0.108541 0.000637242 -2.68856e-23)
(0.108582 0.000346281 8.39714e-25)
(0.108611 5.27949e-05 -3.06359e-23)
(0.108633 -0.000241933 -3.77224e-23)
(0.108091 0.00140975 2.00962e-25)
(0.10816 0.0011473 3.12438e-25)
(0.108219 0.000879732 -3.99765e-24)
(0.108266 0.000607705 1.17824e-23)
(0.108301 0.000332025 -7.18901e-25)
(0.108325 5.37852e-05 1.56799e-23)
(0.108341 -0.000225814 -1.50773e-23)
(0.107846 0.00134023 -1.5003e-25)
(0.10791 0.00109159 1.49905e-25)
(0.107963 0.00083809 6.86431e-24)
(0.108006 0.000580286 -9.84606e-26)
(0.108037 0.000318895 5.3931e-24)
(0.108056 5.4887e-05 -1.17449e-23)
(0.108067 -0.000210642 1.49187e-23)
(0.107614 0.00127517 -1.01777e-25)
(0.107673 0.00103946 8.28062e-25)
(0.107722 0.000799114 -3.16929e-24)
(0.10776 0.000554621 -4.04811e-25)
(0.107787 0.000306597 -8.72433e-24)
(0.107803 5.58909e-05 1.16147e-23)
(0.10781 -0.000196525 -6.66074e-25)
(0.107394 0.00121408 6.50706e-26)
(0.107449 0.000990462 -2.58672e-26)
(0.107494 0.000762422 9.55614e-25)
(0.107529 0.00053038 9.15085e-26)
(0.107553 0.000294865 4.02345e-24)
(0.107565 5.65994e-05 -4.80001e-25)
(0.107568 -0.000183574 -4.37535e-24)
(0.107185 0.00115652 -9.07861e-27)
(0.107237 0.000944216 -2.05285e-25)
(0.107279 0.000727687 -1.0749e-24)
(0.10731 0.000507289 2.13603e-25)
(0.107331 0.000283466 5.94256e-25)
(0.107341 5.68221e-05 1.9589e-24)
(0.107341 -0.000171931 3.90723e-24)
(0.106987 0.00110211 -2.87683e-26)
(0.107036 0.000900358 -3.89768e-27)
(0.107075 0.000694562 1.26197e-25)
(0.107103 0.000485025 -3.36419e-25)
(0.107122 0.000272105 -3.84319e-25)
(0.107129 5.6291e-05 -1.13174e-24)
(0.107127 -0.000161823 -3.60592e-25)
(0.112985 0.00441585 3.58374e-23)
(0.11325 0.00384068 1.14906e-24)
(0.111115 0.00658591 -9.89615e-25)
(0.111409 0.00612606 7.89573e-23)
(0.111681 0.00565052 -4.06494e-23)
(0.111952 0.00515881 0)
(0.112218 0.00465068 -1.86363e-24)
(0.112472 0.00412676 2.89352e-24)
(0.112715 0.00358787 -1.03505e-24)
(0.110734 0.00616909 -4.08191e-23)
(0.111007 0.00573776 -5.4208e-23)
(0.11126 0.00529161 3.8175e-23)
(0.111511 0.00483022 -2.14824e-25)
(0.111756 0.00435343 4.66373e-23)
(0.11199 0.00386191 2.73256e-23)
(0.112213 0.00335644 9.29169e-25)
(0.110371 0.00578555 7.01234e-23)
(0.110625 0.00538061 1.00816e-22)
(0.11086 0.00496163 0)
(0.111093 0.00452827 -3.37014e-23)
(0.11132 0.00408046 -8.93418e-23)
(0.111536 0.00361886 -4.943e-23)
(0.111741 0.00314426 5.81944e-24)
(0.110025 0.00543218 -3.08213e-23)
(0.110262 0.00505165 -2.63871e-23)
(0.110481 0.00465782 1.94669e-25)
(0.110698 0.00425041 6.40173e-23)
(0.110908 0.00382943 3.99201e-23)
(0.111107 0.00339553 2.42098e-23)
(0.111296 0.00294948 -5.92159e-24)
(0.109695 0.00510617 -3.92093e-25)
(0.109916 0.00474826 -1.7622e-23)
(0.110121 0.00437774 0)
(0.110323 0.00399439 -5.51833e-23)
(0.110518 0.00359828 1.43348e-23)
(0.110703 0.00319004 1.78326e-24)
(0.110877 0.00277042 -5.89629e-24)
(0.10938 0.00480504 -2.6722e-25)
(0.109587 0.0044681 -9.06088e-24)
(0.10978 0.0041192 -1.51292e-23)
(0.109969 0.00375819 4.62443e-23)
(0.11015 0.00338516 -1.62854e-23)
(0.110321 0.00300073 -5.73391e-25)
(0.110482 0.00260562 1.04317e-23)
(0.10908 0.00452654 9.72195e-26)
(0.109275 0.00420906 1.6146e-23)
(0.109456 0.00388026 1.49721e-23)
(0.109632 0.00354 -3.75285e-23)
(0.109801 0.00318841 0)
(0.109961 0.00282611 0)
(0.110109 0.00245377 -4.61459e-24)
(0.108794 0.00426864 2.99847e-24)
(0.108977 0.00396927 -8.55731e-24)
(0.109148 0.00365914 -8.07858e-24)
(0.109314 0.00333819 1.65386e-23)
(0.109471 0.00300656 -1.60341e-25)
(0.10962 0.00266484 -5.43301e-24)
(0.109757 0.00231368 4.27306e-25)
(0.108521 0.00402954 -3.06858e-24)
(0.108694 0.003747 3.20999e-24)
(0.108855 0.00345427 7.6976e-24)
(0.109011 0.00315129 4.58937e-24)
(0.109159 0.00283826 0)
(0.109297 0.00251572 6.07354e-24)
(0.109425 0.0021843 -3.61096e-25)
(0.108261 0.00380759 9.15789e-24)
(0.108425 0.00354072 -8.7375e-25)
(0.108577 0.0032642 1.598e-25)
(0.108724 0.00297799 -5.05323e-24)
(0.108862 0.0026823 5.07451e-24)
(0.108991 0.00237765 4.20777e-24)
(0.10911 0.00206463 0)
(0.108013 0.0036013 2.68378e-24)
(0.108168 0.00334905 -6.6705e-24)
(0.108313 0.00308764 -5.47453e-26)
(0.108451 0.00281708 5.47597e-26)
(0.108581 0.00253758 -5.56923e-24)
(0.108702 0.00224964 -3.17702e-24)
(0.108812 0.00195382 -2.40112e-25)
(0.107777 0.00340933 2.85502e-24)
(0.107924 0.00317071 1.08428e-23)
(0.108061 0.00292342 1.4119e-25)
(0.108192 0.00266747 3.96721e-25)
(0.108314 0.00240309 -9.92687e-26)
(0.108427 0.00213077 -1.84691e-25)
(0.10853 0.00185102 -5.77933e-25)
(0.107551 0.00323046 -1.37125e-23)
(0.107691 0.00300457 -1.10557e-23)
(0.107821 0.00277045 -1.30012e-25)
(0.107945 0.00252817 -1.8239e-24)
(0.108061 0.00227793 -1.31906e-25)
(0.108167 0.00202021 8.8156e-25)
(0.108264 0.00175549 6.31426e-25)
(0.107335 0.00306358 -8.86906e-24)
(0.107469 0.00284957 5.4762e-24)
(0.107593 0.00262777 2.14521e-25)
(0.107711 0.00239825 1.56322e-24)
(0.10782 0.00216125 -6.40973e-25)
(0.10792 0.00191719 -6.54457e-25)
(0.108011 0.00166654 8.29818e-26)
(0.10713 0.00290767 8.77475e-24)
(0.107257 0.00270477 -7.74496e-24)
(0.107376 0.00249449 2.85918e-24)
(0.107488 0.00227691 1.25579e-25)
(0.107591 0.00205227 1.87613e-24)
(0.107686 0.001821 3.61216e-26)
(0.107771 0.00158351 4.96275e-26)
(0.106933 0.00276181 6.15194e-25)
(0.107055 0.0025693 7.66788e-24)
(0.107169 0.00236978 -6.8763e-24)
(0.107276 0.00216337 2.49761e-25)
(0.107374 0.00195031 -1.31174e-24)
(0.107463 0.00173098 8.85097e-26)
(0.107543 0.00150581 -7.76705e-26)
(0.106745 0.00262516 -6.13504e-24)
(0.106862 0.00244236 5.57025e-25)
(0.106972 0.00225292 5.73492e-24)
(0.107074 0.00205694 -1.17524e-25)
(0.107167 0.00185469 1.1069e-24)
(0.107252 0.00164655 -2.0563e-27)
(0.107328 0.00143289 -7.12702e-27)
(0.106566 0.00249696 6.8524e-24)
(0.106679 0.00232323 2.09166e-24)
(0.106784 0.00214319 -2.13097e-24)
(0.106881 0.00195697 -3.97403e-25)
(0.106971 0.00176483 -6.81376e-26)
(0.107051 0.00156714 -1.18881e-25)
(0.107123 0.00136426 -4.33174e-26)
(0.106395 0.00237656 7.87216e-25)
(0.106504 0.00221139 -3.61646e-24)
(0.106605 0.00204012 -5.72124e-25)
(0.106698 0.00186299 1.04176e-24)
(0.106784 0.0016803 -1.22481e-24)
(0.10686 0.00149237 -1.42933e-25)
(0.106928 0.00129954 -1.28553e-25)
(0.0997949 0.00565538 0)
(0.0999049 0.00582187 0)
(0.100025 0.00599094 0)
(0.100155 0.00616228 0)
(0.100297 0.00633546 0)
(0.10045 0.00651003 0)
(0.100616 0.00668542 0)
(0.100795 0.00686099 0)
(0.100988 0.007036 0)
(0.101195 0.00720962 0)
(0.101418 0.00738092 0)
(0.101656 0.00754886 0)
(0.10191 0.0077123 0)
(0.102182 0.00786998 0)
(0.102471 0.00802054 0)
(0.102777 0.00816248 0)
(0.103101 0.00829421 0)
(0.103444 0.00841401 0)
(0.103804 0.00852007 0)
(0.104183 0.00861046 0)
(0.104579 0.00868316 0)
(0.104992 0.00873609 0)
(0.105421 0.0087671 0)
(0.105865 0.00877402 0)
(0.106324 0.00875466 0)
(0.106794 0.00870685 0)
(0.107275 0.0086285 0)
(0.107765 0.0085176 0)
(0.10826 0.00837228 0)
(0.108758 0.0081908 0)
(0.109256 0.00797148 0)
(0.10975 0.00771224 0)
(0.110237 0.00740886 0)
(0.110731 0.00704703 0)
(0.099956 0.0055486 0)
(0.100068 0.00570566 0)
(0.10019 0.00586473 0)
(0.100322 0.00602544 0)
(0.100465 0.00618739 0)
(0.100619 0.00635009 0)
(0.100785 0.00651298 0)
(0.100963 0.00667541 0)
(0.101155 0.00683666 0)
(0.10136 0.00699591 0)
(0.101579 0.00715226 0)
(0.101813 0.00730472 0)
(0.102063 0.00745218 0)
(0.102327 0.00759346 0)
(0.102608 0.00772726 0)
(0.102905 0.0078522 0)
(0.103218 0.00796678 0)
(0.103548 0.00806942 0)
(0.103894 0.00815844 0)
(0.104256 0.0082321 0)
(0.104633 0.00828856 0)
(0.105026 0.00832594 0)
(0.105432 0.00834233 0)
(0.105852 0.00833579 0)
(0.106284 0.00830439 0)
(0.106726 0.00824625 0)
(0.107177 0.00815953 0)
(0.107634 0.00804252 0)
(0.108095 0.00789362 0)
(0.108558 0.00771138 0)
(0.10902 0.0074944 0)
(0.109476 0.00724097 0)
(0.109926 0.00694748 0)
(0.11038 0.00660155 0)
(0.100108 0.00543955 0)
(0.100222 0.00558751 0)
(0.100346 0.00573694 0)
(0.100479 0.00588747 0)
(0.100622 0.00603868 0)
(0.100776 0.00619007 0)
(0.100942 0.0063411 0)
(0.101119 0.00649111 0)
(0.101309 0.00663941 0)
(0.101511 0.00678519 0)
(0.101727 0.00692759 0)
(0.101956 0.00706564 0)
(0.102199 0.00719832 0)
(0.102457 0.00732448 0)
(0.102729 0.00744291 0)
(0.103017 0.00755233 0)
(0.103319 0.00765133 0)
(0.103636 0.00773847 0)
(0.103967 0.00781221 0)
(0.104313 0.00787095 0)
(0.104673 0.00791304 0)
(0.105046 0.00793679 0)
(0.105431 0.00794048 0)
(0.105827 0.00792239 0)
(0.106234 0.00788083 0)
(0.106649 0.00781415 0)
(0.107072 0.00772076 0)
(0.107499 0.00759919 0)
(0.107929 0.00744809 0)
(0.108359 0.00726624 0)
(0.108788 0.0070525 0)
(0.109211 0.00680542 0)
(0.109626 0.00652198 0)
(0.110044 0.00619145 0)
(0.100251 0.00532877 0)
(0.100367 0.00546796 0)
(0.100491 0.00560814 0)
(0.100625 0.00574892 0)
(0.100769 0.00588989 0)
(0.100922 0.00603055 0)
(0.101087 0.00617034 0)
(0.101262 0.00630864 0)
(0.101449 0.00644477 0)
(0.101648 0.00657794 0)
(0.10186 0.00670733 0)
(0.102084 0.00683202 0)
(0.102321 0.00695102 0)
(0.102572 0.00706327 0)
(0.102836 0.00716763 0)
(0.103113 0.0072629 0)
(0.103404 0.00734779 0)
(0.103709 0.00742096 0)
(0.104026 0.00748101 0)
(0.104356 0.00752648 0)
(0.104699 0.00755588 0)
(0.105053 0.00756769 0)
(0.105418 0.00756038 0)
(0.105793 0.00753243 0)
(0.106176 0.00748235 0)
(0.106566 0.00740869 0)
(0.106962 0.00731009 0)
(0.107361 0.00718528 0)
(0.107762 0.00703312 0)
(0.108163 0.0068526 0)
(0.108561 0.00664278 0)
(0.108953 0.00640247 0)
(0.109337 0.0061291 0)
(0.109722 0.00581345 0)
(0.100386 0.00521671 0)
(0.100503 0.00534749 0)
(0.100628 0.0054788 0)
(0.100762 0.00561029 0)
(0.100905 0.00574151 0)
(0.101058 0.00587199 0)
(0.10122 0.00600117 0)
(0.101394 0.00612845 0)
(0.101578 0.00625316 0)
(0.101774 0.00637456 0)
(0.101981 0.00649184 0)
(0.1022 0.00660414 0)
(0.10243 0.00671052 0)
(0.102674 0.00680999 0)
(0.102929 0.00690149 0)
(0.103197 0.00698388 0)
(0.103477 0.00705599 0)
(0.103769 0.00711659 0)
(0.104073 0.0071644 0)
(0.104388 0.00719808 0)
(0.104714 0.0072163 0)
(0.10505 0.0072177 0)
(0.105396 0.00720091 0)
(0.10575 0.00716458 0)
(0.106111 0.0071074 0)
(0.106477 0.00702811 0)
(0.106848 0.00692554 0)
(0.107222 0.0067986 0)
(0.107596 0.00664634 0)
(0.10797 0.00646791 0)
(0.108339 0.00626254 0)
(0.108703 0.00602927 0)
(0.109058 0.00576593 0)
(0.109414 0.00546459 0)
(0.100513 0.00510382 0)
(0.10063 0.00522652 0)
(0.100755 0.00534938 0)
(0.100889 0.005472 0)
(0.101031 0.00559398 0)
(0.101183 0.00571482 0)
(0.101344 0.005834 0)
(0.101515 0.00595093 0)
(0.101696 0.00606495 0)
(0.101887 0.00617536 0)
(0.10209 0.00628139 0)
(0.102303 0.00638223 0)
(0.102527 0.00647699 0)
(0.102763 0.00656473 0)
(0.10301 0.00664447 0)
(0.103268 0.00671517 0)
(0.103537 0.00677574 0)
(0.103817 0.00682504 0)
(0.104108 0.00686191 0)
(0.104408 0.00688515 0)
(0.104719 0.00689355 0)
(0.105038 0.00688589 0)
(0.105365 0.00686095 0)
(0.105699 0.00681754 0)
(0.106039 0.00675451 0)
(0.106384 0.00667077 0)
(0.106732 0.00656529 0)
(0.107082 0.00643716 0)
(0.107432 0.00628558 0)
(0.10778 0.00610984 0)
(0.108124 0.00590934 0)
(0.108461 0.00568327 0)
(0.10879 0.00542983 0)
(0.109119 0.00514222 0)
(0.100632 0.00499047 0)
(0.100749 0.00510546 0)
(0.100874 0.00522024 0)
(0.101007 0.00533445 0)
(0.101148 0.00544766 0)
(0.101298 0.00555941 0)
(0.101457 0.00566918 0)
(0.101625 0.00577639 0)
(0.101803 0.00588043 0)
(0.10199 0.00598061 0)
(0.102188 0.0060762 0)
(0.102395 0.00616645 0)
(0.102613 0.00625051 0)
(0.102841 0.00632751 0)
(0.103079 0.00639654 0)
(0.103328 0.00645662 0)
(0.103587 0.00650677 0)
(0.103855 0.00654594 0)
(0.104133 0.00657306 0)
(0.104419 0.00658707 0)
(0.104715 0.00658686 0)
(0.105018 0.00657134 0)
(0.105327 0.00653943 0)
(0.105643 0.00649009 0)
(0.105964 0.00642229 0)
(0.106288 0.0063351 0)
(0.106615 0.00622763 0)
(0.106942 0.0060991 0)
(0.107269 0.00594884 0)
(0.107594 0.00577628 0)
(0.107914 0.00558092 0)
(0.108228 0.00536214 0)
(0.108533 0.00511842 0)
(0.108837 0.00484397 0)
(0.100744 0.00487702 0)
(0.100861 0.00498465 0)
(0.100985 0.00509175 0)
(0.101117 0.00519797 0)
(0.101257 0.0053029 0)
(0.101405 0.00540607 0)
(0.101561 0.005507 0)
(0.101726 0.00560511 0)
(0.1019 0.00569982 0)
(0.102083 0.00579049 0)
(0.102276 0.00587642 0)
(0.102477 0.00595689 0)
(0.102688 0.00603112 0)
(0.102909 0.00609829 0)
(0.103139 0.00615756 0)
(0.103378 0.00620803 0)
(0.103626 0.00624879 0)
(0.103883 0.00627888 0)
(0.104149 0.00629734 0)
(0.104422 0.0063032 0)
(0.104703 0.00629546 0)
(0.10499 0.00627316 0)
(0.105284 0.00623533 0)
(0.105582 0.00618105 0)
(0.105884 0.00610943 0)
(0.10619 0.00601965 0)
(0.106496 0.00591096 0)
(0.106803 0.00578268 0)
(0.107109 0.00563427 0)
(0.107412 0.00546526 0)
(0.10771 0.00527526 0)
(0.108002 0.00506378 0)
(0.108286 0.00482957 0)
(0.108567 0.00456771 0)
(0.100849 0.00476378 0)
(0.100965 0.00486439 0)
(0.101088 0.0049642 0)
(0.101219 0.00506286 0)
(0.101357 0.00515996 0)
(0.101503 0.00525507 0)
(0.101656 0.00534769 0)
(0.101818 0.0054373 0)
(0.101988 0.00552333 0)
(0.102167 0.00560516 0)
(0.102354 0.00568215 0)
(0.10255 0.00575361 0)
(0.102754 0.00581882 0)
(0.102967 0.00587701 0)
(0.103189 0.0059274 0)
(0.103419 0.00596918 0)
(0.103657 0.00600148 0)
(0.103903 0.00602346 0)
(0.104157 0.00603423 0)
(0.104417 0.00603292 0)
(0.104684 0.00601863 0)
(0.104957 0.00599049 0)
(0.105235 0.00594766 0)
(0.105517 0.00588932 0)
(0.105802 0.0058147 0)
(0.10609 0.00572307 0)
(0.106378 0.0056138 0)
(0.106666 0.00548633 0)
(0.106952 0.0053402 0)
(0.107235 0.00517502 0)
(0.107513 0.00499052 0)
(0.107785 0.00478628 0)
(0.108049 0.00456133 0)
(0.10831 0.00431149 0)
(0.100946 0.00465103 0)
(0.101062 0.00474496 0)
(0.101184 0.00483786 0)
(0.101313 0.00492937 0)
(0.101449 0.0050191 0)
(0.101593 0.00510662 0)
(0.101743 0.00519147 0)
(0.101902 0.00527314 0)
(0.102068 0.00535108 0)
(0.102242 0.00542472 0)
(0.102424 0.00549344 0)
(0.102614 0.00555661 0)
(0.102812 0.00561355 0)
(0.103017 0.00566355 0)
(0.103231 0.00570588 0)
(0.103452 0.00573979 0)
(0.10368 0.00576451 0)
(0.103916 0.00577925 0)
(0.104158 0.00578321 0)
(0.104406 0.0057756 0)
(0.10466 0.00575562 0)
(0.104919 0.0057225 0)
(0.105182 0.00567548 0)
(0.105449 0.00561385 0)
(0.105718 0.00553692 0)
(0.105989 0.00544409 0)
(0.10626 0.0053348 0)
(0.10653 0.00520858 0)
(0.106798 0.00506506 0)
(0.107062 0.00490393 0)
(0.107322 0.00472499 0)
(0.107576 0.00452792 0)
(0.107821 0.00431195 0)
(0.108063 0.00407359 0)
(0.101038 0.00453901 0)
(0.101152 0.00462661 0)
(0.101273 0.00471296 0)
(0.1014 0.00479772 0)
(0.101534 0.00488052 0)
(0.101675 0.00496092 0)
(0.101823 0.00503849 0)
(0.101978 0.00511275 0)
(0.10214 0.00518318 0)
(0.102309 0.00524923 0)
(0.102486 0.00531033 0)
(0.10267 0.00536588 0)
(0.102861 0.00541524 0)
(0.103059 0.00545777 0)
(0.103265 0.00549279 0)
(0.103477 0.00551961 0)
(0.103696 0.00553753 0)
(0.103922 0.00554582 0)
(0.104153 0.00554376 0)
(0.10439 0.00553064 0)
(0.104631 0.00550574 0)
(0.104877 0.00546838 0)
(0.105126 0.00541789 0)
(0.105378 0.00535363 0)
(0.105632 0.00527502 0)
(0.105887 0.00518153 0)
(0.106142 0.00507268 0)
(0.106396 0.00494808 0)
(0.106647 0.00480743 0)
(0.106895 0.00465051 0)
(0.107138 0.00447714 0)
(0.107374 0.00428712 0)
(0.107603 0.00407983 0)
(0.107827 0.00385242 0)
(0.101123 0.00442793 0)
(0.101236 0.00450954 0)
(0.101355 0.00458971 0)
(0.101481 0.00466811 0)
(0.101612 0.00474438 0)
(0.10175 0.00481811 0)
(0.101895 0.00488889 0)
(0.102046 0.00495624 0)
(0.102204 0.00501969 0)
(0.102369 0.00507872 0)
(0.10254 0.00513279 0)
(0.102718 0.00518134 0)
(0.102903 0.00522378 0)
(0.103094 0.00525952 0)
(0.103292 0.00528792 0)
(0.103496 0.00530835 0)
(0.103706 0.00532017 0)
(0.103922 0.00532272 0)
(0.104142 0.00531536 0)
(0.104368 0.00529744 0)
(0.104597 0.00526832 0)
(0.104831 0.00522738 0)
(0.105067 0.00517404 0)
(0.105306 0.00510774 0)
(0.105545 0.00502797 0)
(0.105786 0.00493427 0)
(0.106026 0.00482625 0)
(0.106264 0.00470358 0)
(0.1065 0.00456601 0)