/*--------------------------------*- C++ -*----------------------------------*\
| =========                 |                                                 |
| \\      /  F ield         | OpenFOAM: The Open Source CFD Toolbox           |
|  \\    /   O peration     | Version:  2412                                  |
|   \\  /    A nd           | Website:  www.openfoam.com                      |
|    \\/     M anipulation  |                                                 |
\*---------------------------------------------------------------------------*/
FoamFile
{
    version     2.0;
    format      ascii;
    arch        "LSB;label=32;scalar=64";
    class       volVectorField;
    location    "12.5";
    object      U;
}
// * * * * * * * * * * * * * * * * * * * * * * * * * * * * * * * * * * * * * //

dimensions      [0 1 -1 0 0 0 0];

internalField   nonuniform List<vector> 
5285
(
(0.0902655 0.000232821 5.31743e-23)
(0.0898115 0.000248382 -6.08793e-24)
(0.0893281 0.000265319 6.21968e-24)
(0.0888127 0.000283836 -6.35915e-24)
(0.0882623 0.000304177 0)
(0.0876733 0.000326627 6.66369e-24)
(0.0870417 0.00035152 -6.83018e-24)
(0.0863628 0.000379239 0)
(0.0856313 0.000410228 -7.19568e-24)
(0.0848408 0.000444993 0)
(0.0839841 0.000484125 -7.61107e-24)
(0.0830529 0.000528305 -1.27561e-22)
(0.0820375 0.000578338 1.35452e-22)
(0.0809267 0.00063518 -1.36012e-22)
(0.0797075 0.00069998 1.35805e-22)
(0.0783646 0.000774133 0)
(0.0768802 0.000859347 0)
(0.0752329 0.000957726 1.66688e-22)
(0.0733973 0.00107186 -1.56838e-22)
(0.0713431 0.00120494 0)
(0.0690338 0.00136082 0)
(0.0664253 0.00154404 0)
(0.0634653 0.00175971 0)
(0.0600919 0.0020131 0)
(0.0562345 0.00230863 0)
(0.0518158 0.00264806 0)
(0.046759 0.00302733 0)
(0.0410012 0.00343142 0)
(0.034519 0.00382671 -1.55574e-23)
(0.0273701 0.00415002 -5.34738e-22)
(0.0197393 0.00429532 5.33936e-22)
(0.0120172 0.00409974 5.80702e-22)
(0.00515586 0.00331285 -5.7983e-22)
(0.00105366 0.00154469 0)
(0.0902849 0.000697401 1.87254e-22)
(0.0898322 0.000744045 -1.99056e-22)
(0.0893503 0.000794822 -1.86862e-23)
(0.0888364 0.000850345 6.3731e-24)
(0.0882877 0.000911341 0)
(0.0877006 0.000978669 -6.68095e-24)
(0.0870712 0.00105332 -2.15271e-22)
(0.0863948 0.00113646 4.49852e-22)
(0.0856661 0.00122939 2.48138e-22)
(0.084879 0.00133365 -4.68017e-22)
(0.0840263 0.001451 5.04037e-22)
(0.0830998 0.00158347 -5.11457e-22)
(0.0820901 0.00173347 -8.11765e-24)
(0.0809864 0.00190386 0)
(0.0797757 0.00209806 0)
(0.0784434 0.00232026 0)
(0.076972 0.00257553 0)
(0.0753411 0.00287014 -9.65847e-24)
(0.073526 0.0032118 -6.55513e-22)
(0.0714978 0.00360996 -2.81379e-23)
(0.0692216 0.00407604 6.81875e-22)
(0.0666556 0.00462347 7.43727e-22)
(0.0637501 0.00526729 -7.42741e-22)
(0.0604465 0.00602287 -2.47034e-23)
(0.0566779 0.00690298 -2.58315e-23)
(0.0523708 0.00791231 -8.92183e-22)
(0.0474506 0.00903792 8.6278e-22)
(0.0418538 0.0102342 -2.94482e-23)
(0.0355491 0.0114003 1.56661e-23)
(0.0285738 0.0123475 -1.08722e-21)
(0.0210745 0.0127601 1.08685e-21)
(0.013376 0.0121542 -2.26979e-21)
(0.00630018 0.00979578 2.23185e-21)
(0.00151956 0.00453479 -2.28709e-21)
(0.0903241 0.00115891 2.03365e-23)
(0.0898742 0.00123652 -3.86887e-22)
(0.0893952 0.00132103 1.25036e-23)
(0.0888846 0.00141347 -4.14175e-22)
(0.0883394 0.00151503 4.26862e-22)
(0.0877563 0.00162715 -4.34867e-22)
(0.0871314 0.00175149 4.48199e-22)
(0.0864601 0.00188995 1.41048e-23)
(0.0857374 0.00204473 -1.44908e-23)
(0.0849572 0.00221835 1.49016e-23)
(0.0841127 0.00241374 -4.9917e-22)
(0.0831961 0.00263427 5.14537e-22)
(0.0821983 0.00288393 5.47622e-22)
(0.0811089 0.00316745 -5.30815e-22)
(0.0799158 0.0034905 0)
(0.0786051 0.00385995 0)
(0.0771604 0.00428419 1.8672e-23)
(0.0755627 0.00477349 1.28749e-21)
(0.0737893 0.00534048 3.16177e-23)
(0.0718138 0.00600056 -1.29648e-21)
(0.0696046 0.00677227 0)
(0.0671243 0.00767727 -2.26959e-23)
(0.0643286 0.00873965 1.58267e-21)
(0.0611656 0.00998364 -3.16123e-21)
(0.0575758 0.0114287 3.35481e-21)
(0.0534928 0.0130806 1.03252e-22)
(0.048847 0.0149154 -1.74605e-21)
(0.043573 0.0168553 -1.8946e-21)
(0.0376237 0.018732 1.95255e-21)
(0.0309944 0.0202354 1.5169e-24)
(0.023754 0.0208469 -3.32707e-23)
(0.0160971 0.0197724 2.19165e-21)
(0.00857125 0.015843 -2.12225e-21)
(0.00241511 0.0072667 -2.1225e-21)
(0.090384 0.00161482 -3.92077e-22)
(0.0899383 0.00172312 2.27555e-26)
(0.089464 0.0018411 0)
(0.0889586 0.00197018 -4.03339e-22)
(0.0884191 0.00211205 4.16002e-22)
(0.0878423 0.00226871 0)
(0.0872246 0.00244244 -8.98135e-22)
(0.0865615 0.00263592 8.83563e-22)
(0.0858483 0.00285218 1.46287e-23)
(0.0850792 0.00309474 -3.67021e-26)
(0.0842479 0.00336765 1.54629e-23)
(0.0833469 0.0036756 0)
(0.0823678 0.00402413 -5.23054e-26)
(0.081301 0.00441977 0)
(0.0801354 0.00487036 -1.75656e-23)
(0.0788583 0.00538537 1.18826e-21)
(0.077455 0.00597632 -1.18794e-21)
(0.0759086 0.00665728 -1.96611e-23)
(0.0741995 0.00744544 4.0721e-23)
(0.0723048 0.00836165 -1.40506e-21)
(0.070198 0.00943083 1.36138e-21)
(0.0678482 0.0106819 2.30884e-23)
(0.0652193 0.0121464 -3.61487e-25)
(0.0622693 0.0138555 2.46784e-23)
(0.0589497 0.0158329 -1.69715e-21)
(0.055205 0.0180822 3.43281e-21)
(0.0509728 0.0205654 -1.79049e-21)
(0.0461847 0.0231705 1.85583e-21)
(0.04077 0.0256629 -1.94285e-21)
(0.0346607 0.0276188 -3.86588e-21)
(0.0278029 0.0283355 7.8873e-21)
(0.0201962 0.0267266 -3.99317e-21)
(0.0120169 0.0212283 0)
(0.00374605 0.00962301 -3.75049e-21)
(0.0904657 0.00206286 0)
(0.0900262 0.00220142 -3.86786e-22)
(0.0895586 0.00235242 4.11918e-22)
(0.0890605 0.00251769 -1.29428e-23)
(0.0885292 0.00269939 -8.72382e-22)
(0.0879616 0.00290006 8.59504e-22)
(0.0873543 0.00312262 -1.39798e-23)
(0.0867031 0.00337047 0)
(0.0860036 0.00364746 0)
(0.0852505 0.00395807 -1.00244e-21)
(0.084438 0.00430742 9.71989e-22)
(0.0835593 0.00470149 0)
(0.0826069 0.00514726 -3.33646e-23)
(0.0815722 0.005653 0)
(0.0804454 0.00622859 1.78739e-23)
(0.0792155 0.0068859 -1.84306e-23)
(0.0778701 0.00763934 -1.92009e-23)
(0.0763952 0.00850639 1.98042e-23)
(0.0747749 0.00950828 1.30429e-21)
(0.0729915 0.0106705 -1.34615e-21)
(0.071025 0.0120234 2.93082e-21)
(0.0688532 0.0136014 -2.93273e-21)
(0.0664508 0.0154418 3.11884e-21)
(0.063789 0.01758 9.30982e-23)
(0.0608341 0.0200406 -3.29004e-21)
(0.0575448 0.0228218 -2.63265e-23)
(0.0538684 0.0258689 1.29639e-24)
(0.0497342 0.029035 1.72406e-24)
(0.0450421 0.0320239 2.28549e-24)
(0.0396443 0.0343138 -5.71647e-23)
(0.0333228 0.0350506 -2.62147e-23)
(0.0258037 0.0328985 -2.48886e-23)
(0.0167793 0.0259147 0)
(0.00553725 0.0115955 7.85759e-24)
(0.0905713 0.00250533 -2.90946e-23)
(0.0901399 0.0026742 7.73087e-22)
(0.0896814 0.00285836 7.98149e-22)
(0.0891933 0.00306004 2.008e-23)
(0.0886732 0.00328189 -8.46088e-22)
(0.0881183 0.00352697 0)
(0.0875252 0.00379886 0)
(0.0868903 0.00410166 -9.43108e-22)
(0.0862096 0.00444005 9.29562e-22)
(0.0854785 0.00481944 1.00155e-21)
(0.0846916 0.00524603 -1.00304e-21)
(0.0838433 0.00572703 0)
(0.0829269 0.00627085 1.12053e-21)
(0.0819353 0.00688744 -1.12269e-21)
(0.0808604 0.0075886 0)
(0.0796933 0.00838846 -2.4325e-21)
(0.0784245 0.00930403 2.45502e-21)
(0.0770435 0.0103557 -2.03039e-23)
(0.0755393 0.0115681 -2.71898e-21)
(0.0739003 0.0129701 2.74419e-21)
(0.072115 0.0145955 0)
(0.0701716 0.0164817 3.08822e-21)
(0.0680583 0.0186675 -3.0692e-21)
(0.0657628 0.0211868 2.49127e-23)
(0.0632698 0.0240583 3.39796e-21)
(0.060557 0.0272659 -6.82112e-21)
(0.0575856 0.0307294 1.62473e-23)
(0.0542856 0.0342609 3.53157e-23)
(0.0505291 0.0375049 3.54659e-21)
(0.0460853 0.0398618 3.96746e-24)
(0.0405545 0.0403782 -3.03987e-21)
(0.0333122 0.0375706 3.1163e-21)
(0.023323 0.0292838 0)
(0.00804982 0.0128834 2.73775e-23)
(0.0907044 0.00293743 -4.91557e-24)
(0.0902839 0.00313658 8.0556e-22)
(0.0898375 0.00335402 1.28727e-23)
(0.0893629 0.00359239 0)
(0.0888579 0.00385485 0)
(0.08832 0.00414505 -9.03651e-22)
(0.0877462 0.00446724 9.05934e-22)
(0.0871335 0.00482626 0)
(0.0864783 0.00522768 1.52425e-23)
(0.0857768 0.00567789 0)
(0.0850246 0.00618422 -1.05301e-21)
(0.0842169 0.00675521 2.14409e-21)
(0.0833487 0.00740078 -1.09116e-21)
(0.0824144 0.00813264 -2.31375e-21)
(0.081408 0.00896462 -7.84982e-23)
(0.0803234 0.00991319 -8.29996e-23)
(0.0791542 0.010998 -8.74437e-23)
(0.0778944 0.0122422 2.60459e-21)
(0.0765385 0.0136733 2.79792e-21)
(0.075082 0.0153229 -2.80458e-21)
(0.0735222 0.0172264 0)
(0.071859 0.019421 3.11133e-21)
(0.0700951 0.0219413 -3.11856e-21)
(0.0682357 0.0248113 -3.3186e-21)
(0.0662857 0.0280299 3.30033e-21)
(0.0642438 0.0315481 2.70214e-23)
(0.0620895 0.0352359 3.32731e-21)
(0.0597606 0.0388371 -1.07291e-22)
(0.0571162 0.0419141 -3.28855e-21)
(0.0538693 0.043791 2.50923e-23)
(0.0494907 0.0434856 0)
(0.0430909 0.0395748 -1.98638e-23)
(0.0327437 0.0301177 -9.03533e-22)
(0.0129825 0.012823 4.49549e-22)
(-0.000251652 0.000314245 0)
(-0.000981265 0.000511085 3.04853e-22)
(-0.00187987 0.000446099 -3.05311e-22)
(-0.00252217 0.000239468 -2.94911e-22)
(-0.00270136 -3.86245e-05 2.95354e-22)
(-0.00234822 -0.000346212 -8.77991e-24)
(-0.00144629 -0.000656682 0)
(-3.57648e-06 -0.000950639 0)
(0.00194128 -0.00121548 0)
(0.0043344 -0.00144791 0)
(0.00711753 -0.00164467 0)
(0.0102278 -0.00180475 0)
(0.0136016 -0.00192885 0)
(0.0171771 -0.00201872 0)
(0.0208956 -0.0020768 0)
(0.0247029 -0.00210602 4.32241e-23)
(0.0285498 -0.00210955 -4.07946e-23)
(0.0323926 -0.00209066 0)
(0.0361931 -0.00205263 0)
(0.0399187 -0.00199861 -1.7872e-23)
(0.0435422 -0.00193161 1.78993e-23)
(0.0470415 -0.00185442 -8.90868e-24)
(-0.000308832 0.000903538 -1.17637e-21)
(-0.00104443 0.00144895 -1.27281e-21)
(-0.00178115 0.00125164 1.25441e-21)
(-0.00220292 0.000643525 -5.83246e-22)
(-0.00215674 -0.000174846 5.84661e-22)
(-0.00159872 -0.00107717 8.84075e-24)
(-0.000521515 -0.00199161 -1.70929e-23)
(0.00106554 -0.00284962 -5.03531e-22)
(0.00311867 -0.00363012 4.88144e-22)
(0.00558382 -0.00431593 -1.36267e-23)
(0.00840906 -0.00489675 -1.23431e-23)
(0.0115352 -0.00536987 3.26811e-22)
(0.0149024 -0.00573715 -3.27245e-22)
(0.0184527 -0.00600353 -2.48409e-22)
(0.0221313 -0.00617612 3.64545e-23)
(0.0258871 -0.00626338 2.12569e-22)
(0.029674 -0.00627459 -2.50751e-24)
(0.0334509 -0.00621935 -4.32491e-24)
(0.0371818 -0.00610728 0)
(0.0408361 -0.00594769 0)
(0.044388 -0.00574944 0)
(0.0478169 -0.00552081 -7.38651e-25)
(-0.000411393 0.00137403 -1.24064e-21)
(-0.00113371 0.00213892 1.34007e-21)
(-0.00153338 0.0018076 -1.3e-21)
(-0.00152779 0.000832021 -1.97042e-23)
(-0.00104824 -0.000482381 -5.81259e-25)
(-0.000101543 -0.00192005 -1.13399e-21)
(0.00131086 -0.00336701 1.17124e-21)
(0.00316821 -0.00473862 1.03062e-21)
(0.00541378 -0.00599427 -6.39859e-23)
(0.00801011 -0.00709877 -1.77636e-21)
(0.0109094 -0.00803638 1.63619e-21)
(0.0140596 -0.00880232 -7.58506e-22)
(0.0174087 -0.00939876 -1.03334e-23)
(0.0209065 -0.00983296 0)
(0.0245049 -0.0101158 4.58103e-22)
(0.0281594 -0.0102604 -7.61544e-23)
(0.0318295 -0.0102815 -3.75945e-22)
(0.0354788 -0.0101943 9.07424e-24)
(0.0390758 -0.0100143 0)
(0.0425931 -0.00975648 0)
(0.046008 -0.00943513 6.43222e-23)
(0.0493022 -0.00906369 -6.25041e-23)
(-0.000523043 0.00161626 -2.73502e-21)
(-0.00114906 0.00244634 0)
(-0.00101856 0.00197687 2.7438e-21)
(-0.00041364 0.000689603 -5.43382e-21)
(0.000670019 -0.00101328 2.70948e-21)
(0.00217019 -0.00289373 1.17872e-21)
(0.00402681 -0.00478896 -1.23727e-21)
(0.00622424 -0.00660353 1.07289e-21)
(0.00872169 -0.00826605 -2.08062e-21)
(0.0114825 -0.00973439 9.91839e-22)
(0.0144673 -0.010987 1.38412e-23)
(0.0176355 -0.0120153 6.18356e-25)
(0.0209463 -0.0128203 1.05106e-23)
(0.0243599 -0.01341 -5.75556e-22)
(0.027838 -0.0137976 5.58006e-22)
(0.0313447 -0.0139998 1.41525e-23)
(0.0348471 -0.0140352 -5.74526e-24)
(0.0383155 -0.013924 2.90697e-22)
(0.0417236 -0.0136865 -2.90343e-22)
(0.0450489 -0.0133425 -3.53527e-24)
(0.0482725 -0.0129113 0)
(0.0513791 -0.012411 3.28338e-25)
(-0.000523333 0.00155766 -2.15981e-24)
(-0.000857256 0.00229865 -2.58369e-23)
(-3.42937e-05 0.00168531 -2.46869e-23)
(0.00133283 0.000182827 -2.36108e-23)
(0.00311721 -0.00180196 -4.40337e-23)
(0.0052192 -0.00400948 -8.71603e-25)
(0.00757575 -0.00624447 1.94429e-23)
(0.0101501 -0.00839304 -1.89994e-23)
(0.0129113 -0.0103752 -1.76865e-23)
(0.0158325 -0.0121399 1.93396e-21)
(0.0188874 -0.013657 -2.09398e-22)
(0.0220491 -0.0149122 -1.78114e-21)
(0.0252903 -0.0159032 1.39785e-21)
(0.0285835 -0.0166368 -1.39932e-21)
(0.0319018 -0.0171264 5.37601e-22)
(0.0352191 -0.0173901 -5.52996e-22)
(0.0385111 -0.0174495 6.97483e-24)
(0.0417556 -0.0173276 -5.33657e-24)
(0.0449324 -0.0170486 -4.95495e-24)
(0.0480242 -0.0166364 3.59684e-24)
(0.0510162 -0.0161144 0)
(0.0538965 -0.0155046 -4.95727e-24)
(0.0566556 -0.0148277 0)
(-0.000277402 0.00121877 5.36869e-23)
(9.07923e-05 0.00169429 -2.24674e-24)
(0.00175007 0.000966623 -3.25304e-21)
(0.00393124 -0.00066952 3.32599e-21)
(0.00642526 -0.00280287 -1.25505e-24)
(0.00912649 -0.00516281 -2.77418e-21)
(0.0119498 -0.00758739 1.62697e-22)
(0.0148603 -0.00995205 2.10398e-22)
(0.0178398 -0.0121647 4.77167e-21)
(0.0208747 -0.0141617 -2.27734e-21)
(0.0239536 -0.0159018 3.1605e-23)
(0.0270641 -0.0173615 1.73311e-21)
(0.030193 -0.0185313 -1.71812e-21)
(0.0333255 -0.0194133 0)
(0.0364461 -0.0200183 -1.19629e-21)
(0.0395387 -0.0203632 1.20288e-21)
(0.0425875 -0.0204699 -7.14933e-24)
(0.0455774 -0.0203633 -7.51713e-22)
(0.0484944 -0.0200697 7.55686e-22)
(0.0513262 -0.0196163 -4.81116e-24)
(0.0540619 -0.0190297 2.13252e-22)
(0.0566928 -0.0183357 -2.06921e-22)
(0.059212 -0.0175584 0)
(0.000299403 0.000571823 -7.51225e-21)
(0.0021461 0.000487058 4.21666e-21)
(0.00478298 -0.000388453 -2.8746e-23)
(0.0077167 -0.00199627 0)
(0.0108301 -0.00403656 2.56596e-23)
(0.0139948 -0.00635507 3.0657e-21)
(0.0171454 -0.00880873 -1.82842e-22)
(0.0202656 -0.0112649 -2.91479e-21)
(0.0233523 -0.0136175 1.98942e-23)
(0.0264067 -0.0157863 -2.31554e-21)
(0.029431 -0.0177138 2.2933e-21)
(0.0324264 -0.0193619 1.9168e-21)
(0.0353914 -0.0207098 -1.91225e-21)
(0.0383223 -0.0217508 0)
(0.0412129 -0.0224892 1.34895e-21)
(0.0440556 -0.0229386 -1.34568e-21)
(0.0468415 -0.023119 -1.01816e-21)
(0.0495616 -0.0230551 1.43722e-22)
(0.0522068 -0.0227746 1.30281e-22)
(0.0547688 -0.0223069 1.21583e-22)
(0.0572402 -0.0216815 6.19469e-22)
(0.059615 -0.0209273 2.09011e-22)
(0.0618883 -0.0200719 -3.8464e-22)
(0.00100592 -0.00117838 0)
(0.00547954 -0.00148842 0)
(0.00923078 -0.00236762 0)
(0.0127447 -0.00386373 0)
(0.0162213 -0.00580695 0)
(0.0196088 -0.00804454 0)
(0.0228813 -0.0104398 0)
(0.026045 -0.01287 0)
(0.0291111 -0.01523 0)
(0.0320909 -0.0174351 0)
(0.0349953 -0.019421 0)
(0.0378327 -0.0211422 0)
(0.0406087 -0.02257 0)
(0.0433259 -0.0236904 0)
(0.0459839 -0.0245019 0)
(0.0485804 -0.0250131 0)
(0.0511113 -0.0252404 0)
(0.0535717 -0.0252065 0)
(0.055956 -0.0249381 0)
(0.0582593 -0.0244645 0)
(0.0604767 -0.0238162 0)
(0.0626044 -0.0230234 0)
(0.0646395 -0.0221158 0)
(0.06658 -0.0211211 0)
(0.00816761 -0.00524566 0)
(0.0128945 -0.00563655 0)
(0.0168735 -0.00641635 0)
(0.0204413 -0.00776446 0)
(0.0239293 -0.0095595 0)
(0.0272942 -0.0116448 0)
(0.0305026 -0.0138875 0)
(0.0335608 -0.0161711 0)
(0.0364823 -0.0183942 0)
(0.0392802 -0.0204733 0)
(0.041968 -0.0223436 0)
(0.0445574 -0.0239583 0)
(0.0470583 -0.0252867 0)
(0.0494777 -0.0263128 0)
(0.0518204 -0.0270333 0)
(0.054089 -0.027455 0)
(0.0562844 -0.0275935 0)
(0.0584063 -0.0274706 0)
(0.0604537 -0.0271126 0)
(0.0624252 -0.0265489 0)
(0.0643193 -0.02581 0)
(0.0661351 -0.0249267 0)
(0.0678717 -0.0239289 0)
(0.019557 -0.00862136 0)
(0.0236725 -0.0092153 0)
(0.0272442 -0.0100543 0)
(0.0304105 -0.0113347 0)
(0.0335594 -0.013004 0)
(0.0366297 -0.0149387 0)
(0.039558 -0.0170227 0)
(0.0423354 -0.0191498 0)
(0.044967 -0.0212248 0)
(0.0474608 -0.0231671 0)
(0.0498272 -0.0249128 0)
(0.0520777 -0.0264141 0)
(0.0542231 -0.027639 0)
(0.0562733 -0.0285697 0)
(0.0582362 -0.0292008 0)
(0.0601185 -0.0295377 0)
(0.0619252 -0.0295945 0)
(0.0636601 -0.029392 0)
(0.065326 -0.028956 0)
(0.0669252 -0.0283153 0)
(0.0684592 -0.0275003 0)
(0.0699295 -0.026542 0)
(0.0713375 -0.0254703 0)
(0.0336947 -0.0110456 0)
(0.0368265 -0.0119146 0)
(0.0396568 -0.0129408 0)
(0.0421435 -0.0142619 0)
(0.0446953 -0.0158784 0)
(0.0472441 -0.0177102 0)
(0.0496993 -0.0196651 0)
(0.0520324 -0.0216528 0)
(0.0542358 -0.0235883 0)
(0.0563086 -0.0253974 0)
(0.0582551 -0.0270192 0)
(0.0600835 -0.0284072 0)
(0.0618036 -0.0295295 0)
(0.0634257 -0.0303672 0)
(0.0649594 -0.030914 0)
(0.0664139 -0.0311739 0)
(0.067797 -0.0311596 0)
(0.0691156 -0.030891 0)
(0.0703756 -0.0303928 0)
(0.0715818 -0.0296931 0)
(0.0727384 -0.0288219 0)
(0.0738487 -0.0278095 0)
(0.0749158 -0.0266857 0)
(0.0492507 -0.0125169 0)
(0.0512861 -0.0137046 0)
(0.0532411 -0.0150011 0)
(0.0549274 -0.0164616 0)
(0.0567426 -0.018111 0)
(0.0586276 -0.0199062 0)
(0.0604773 -0.0217803 0)
(0.0622476 -0.0236612 0)
(0.0639193 -0.025478 0)
(0.0654823 -0.0271658 0)
(0.0669343 -0.0286699 0)
(0.0682789 -0.0299478 0)
(0.0695237 -0.0309691 0)
(0.0706778 -0.0317161 0)
(0.0717514 -0.032182 0)
(0.0727547 -0.0323704 0)
(0.0736973 -0.0322932 0)
(0.074588 -0.0319691 0)
(0.0754345 -0.0314219 0)
(0.0762437 -0.0306787 0)
(0.0770213 -0.0297687 0)
(0.077772 -0.0287214 0)
(0.0784997 -0.0275659 0)
(0.0650442 -0.0130669 0)
(0.0660333 -0.0145919 0)
(0.0671105 -0.0161959 0)
(0.0679936 -0.0178588 0)
(0.0690405 -0.0196082 0)
(0.0702087 -0.0214274 0)
(0.0713927 -0.0232714 0)
(0.0725404 -0.0250862 0)
(0.0736249 -0.0268152 0)
(0.0746296 -0.0284053 0)
(0.0755466 -0.0298097 0)
(0.0763756 -0.0309916 0)
(0.0771212 -0.0319242 0)
(0.0777914 -0.0325917 0)
(0.0783956 -0.0329884 0)
(0.0789444 -0.0331178 0)
(0.079448 -0.0329914 0)
(0.0799162 -0.0326271 0)
(0.0803578 -0.0320477 0)
(0.0807807 -0.0312792 0)
(0.0811914 -0.0303497 0)
(0.0815956 -0.0292876 0)
(0.0819974 -0.0281212 0)
(0.08009 -0.0128132 0)
(0.0801859 -0.014673 0)
(0.0804698 -0.0165845 0)
(0.0806276 -0.018475 0)
(0.080957 -0.0203631 0)
(0.0814321 -0.0222489 0)
(0.081958 -0.0241045 0)
(0.0824819 -0.0258908 0)
(0.0829744 -0.0275651 0)
(0.0834157 -0.0290855 0)
(0.083795 -0.0304145 0)
(0.084109 -0.0315214 0)
(0.0843605 -0.0323843 0)
(0.0845559 -0.0329902 0)
(0.0847039 -0.033335 0)
(0.0848147 -0.0334228 0)
(0.0848986 -0.033265 0)
(0.0849657 -0.0328789 0)
(0.0850253 -0.0322864 0)
(0.0850855 -0.0315123 0)
(0.0851534 -0.0305835 0)
(0.0852346 -0.0295272 0)
(0.0853335 -0.0283704 0)
(0.0936427 -0.0119333 0)
(0.0930532 -0.0141056 0)
(0.0926832 -0.0162968 0)
(0.0922423 -0.0184082 0)
(0.0919598 -0.0204462 0)
(0.0918221 -0.0224197 0)
(0.0917512 -0.0243131 0)
(0.0916998 -0.026099 0)
(0.09164 -0.0277463 0)
(0.0915527 -0.0292234 0)
(0.0914264 -0.0305011 0)
(0.091257 -0.0315558 0)
(0.091046 -0.0323701 0)
(0.0907991 -0.0329345 0)
(0.0905244 -0.0332469 0)
(0.0902316 -0.0333123 0)
(0.0899307 -0.0331424 0)
(0.0896319 -0.0327538 0)
(0.0893443 -0.0321675 0)
(0.0890761 -0.0314074 0)
(0.0888343 -0.0304988 0)
(0.0886244 -0.0294677 0)
(0.0884506 -0.0283398 0)
(0.105219 -0.0106287 0)
(0.104168 -0.0130708 0)
(0.10331 -0.015494 0)
(0.102419 -0.0177956 0)
(0.101659 -0.0199715 0)
(0.101023 -0.0220339 0)
(0.100453 -0.0239751 0)
(0.0999097 -0.0257765 0)
(0.099371 -0.0274158 0)
(0.0988205 -0.0288698 0)
(0.0982485 -0.0301171 0)
(0.0976517 -0.0311399 0)
(0.0970318 -0.0319257 0)
(0.0963941 -0.0324681 0)
(0.0957466 -0.0327672 0)
(0.0950988 -0.032829 0)
(0.0944603 -0.0326653 0)
(0.0938412 -0.0322925 0)
(0.0932503 -0.0317307 0)
(0.0926956 -0.0310024 0)
(0.0921839 -0.0301318 0)
(0.0917204 -0.0291434 0)
(0.0913088 -0.0280616 0)
(0.114594 -0.00909643 0)
(0.113288 -0.0117477 0)
(0.112111 -0.0143425 0)
(0.11092 -0.0167877 0)
(0.109824 -0.0190728 0)
(0.108818 -0.0212094 0)
(0.107863 -0.0231945 0)
(0.106931 -0.0250153 0)
(0.106007 -0.0266559 0)
(0.105078 -0.0280998 0)
(0.104138 -0.0293315 0)
(0.103187 -0.0303385 0)
(0.102226 -0.0311122 0)
(0.101262 -0.0316493 0)
(0.100303 -0.0319516 0)
(0.099358 -0.0320261 0)
(0.0984372 -0.0318849 0)
(0.0975501 -0.0315439 0)
(0.0967055 -0.0310221 0)
(0.095911 -0.0303411 0)
(0.095173 -0.0295236 0)
(0.0944965 -0.0285926 0)
(0.0938849 -0.027571 0)
(0.121759 -0.0075071 0)
(0.120371 -0.0102955 0)
(0.119027 -0.0129952 0)
(0.117674 -0.0155298 0)
(0.116373 -0.0178853 0)
(0.115123 -0.0200709 0)
(0.113899 -0.0220854 0)
(0.112687 -0.0239196 0)
(0.111477 -0.0255621 0)
(0.110263 -0.0270012 0)
(0.109042 -0.0282259 0)
(0.107816 -0.0292276 0)
(0.10659 -0.0300011 0)
(0.10537 -0.0305452 0)
(0.104166 -0.0308635 0)
(0.102987 -0.0309637 0)
(0.101843 -0.0308577 0)
(0.100743 -0.030561 0)
(0.0996966 -0.0300918 0)
(0.0987105 -0.0294701 0)
(0.0977912 -0.0287175 0)
(0.0969433 -0.0278554 0)
(0.0961698 -0.0269051 0)
(0.126877 -0.00599114 0)
(0.125534 -0.00884125 0)
(0.124148 -0.01158 0)
(0.122743 -0.0141485 0)
(0.121351 -0.0165318 0)
(0.119967 -0.0187355 0)
(0.118583 -0.0207585 0)
(0.117193 -0.0225935 0)
(0.115794 -0.0242319 0)
(0.114385 -0.025665 0)
(0.112969 -0.0268853 0)
(0.111549 -0.0278868 0)
(0.110133 -0.0286668 0)
(0.108729 -0.029226 0)
(0.107346 -0.0295688 0)
(0.105995 -0.0297034 0)
(0.104686 -0.0296415 0)
(0.103429 -0.0293979 0)
(0.102231 -0.0289898 0)
(0.101101 -0.0284361 0)
(0.100044 -0.0277565 0)
(0.099065 -0.0269713 0)
(0.0981668 -0.0261002 0)
(0.130215 -0.00463431 0)
(0.128999 -0.00747551 0)
(0.127661 -0.0101935 0)
(0.12629 -0.0127444 0)
(0.124894 -0.015114 0)
(0.123468 -0.017304 0)
(0.122014 -0.0193119 0)
(0.120534 -0.0211313 0)
(0.119032 -0.0227552 0)
(0.117511 -0.0241768 0)
(0.115977 -0.0253905 0)
(0.114438 -0.0263925 0)
(0.112902 -0.0271814 0)
(0.11138 -0.0277592 0)
(0.109881 -0.0281308 0)
(0.108417 -0.0283045 0)
(0.106998 -0.0282916 0)
(0.105634 -0.0281062 0)
(0.104333 -0.0277643 0)
(0.103103 -0.0272834 0)
(0.101949 -0.0266818 0)
(0.100877 -0.0259782 0)
(0.0998882 -0.0251909 0)
(0.132094 -0.00348093 0)
(0.131045 -0.0062534 0)
(0.129816 -0.0089006 0)
(0.128535 -0.0113904 0)
(0.127197 -0.0137097 0)
(0.125796 -0.0158563 0)
(0.124342 -0.0178261 0)
(0.122844 -0.0196127 0)
(0.121309 -0.0212097 0)
(0.119745 -0.0226114 0)
(0.118161 -0.0238133 0)
(0.116566 -0.0248128 0)
(0.114973 -0.0256095 0)
(0.11339 -0.0262058 0)
(0.111831 -0.026607 0)
(0.110305 -0.026821 0)
(0.108825 -0.0268588 0)
(0.1074 -0.0267332 0)
(0.106038 -0.0264591 0)
(0.104747 -0.0260527 0)
(0.103534 -0.0255308 0)
(0.102401 -0.0249104 0)
(0.101353 -0.0242085 0)
(0.132837 -0.00254206 0)
(0.131968 -0.00520004 0)
(0.130877 -0.00773829 0)
(0.129718 -0.0101331 0)
(0.128477 -0.0123724 0)
(0.127149 -0.0144507 0)
(0.125746 -0.016362 0)
(0.124282 -0.0180997 0)
(0.122769 -0.0196574 0)
(0.121216 -0.0210298 0)
(0.119635 -0.022213 0)
(0.118037 -0.023205 0)
(0.116436 -0.0240058 0)
(0.114841 -0.0246181 0)
(0.113267 -0.0250468 0)
(0.111724 -0.0252997 0)
(0.110224 -0.0253866 0)
(0.108776 -0.0253196 0)
(0.10739 -0.0251122 0)
(0.106072 -0.0247792 0)
(0.10483 -0.024336 0)
(0.103667 -0.023798 0)
(0.102586 -0.0231806 0)
(0.132743 -0.00180568 0)
(0.132046 -0.00431817 0)
(0.131103 -0.00672137 0)
(0.130079 -0.00899733 0)
(0.128955 -0.0111346 0)
(0.127726 -0.0131254 0)
(0.126407 -0.014962 0)
(0.125014 -0.0166372 0)
(0.12356 -0.0181444 0)
(0.122058 -0.0194785 0)
(0.12052 -0.0206358 0)
(0.118959 -0.0216143 0)
(0.117388 -0.0224143 0)
(0.11582 -0.0230381 0)
(0.114268 -0.0234905 0)
(0.112742 -0.0237785 0)
(0.111255 -0.0239112 0)
(0.109816 -0.0238994 0)
(0.108435 -0.0237555 0)
(0.107118 -0.0234927 0)
(0.105872 -0.0231251 0)
(0.104702 -0.0226665 0)
(0.103611 -0.0221309 0)
(0.132067 -0.00124653 0)
(0.131521 -0.00359587 0)
(0.130721 -0.00584886 0)
(0.129831 -0.00799134 0)
(0.128831 -0.0100124 0)
(0.127713 -0.0119024 0)
(0.126496 -0.0136525 0)
(0.125196 -0.0152547 0)
(0.123827 -0.0167025 0)
(0.122402 -0.0179905 0)
(0.120935 -0.019115 0)
(0.119439 -0.0200741 0)
(0.117927 -0.0208677 0)
(0.116413 -0.021498 0)
(0.114909 -0.0219691 0)
(0.113427 -0.0222874 0)
(0.111978 -0.022461 0)
(0.110573 -0.0224996 0)
(0.109219 -0.0224143 0)
(0.107925 -0.022217 0)
(0.106697 -0.0219202 0)
(0.105539 -0.0215365 0)
(0.104454 -0.0210783 0)
(0.131013 -0.000833869 0)
(0.130594 -0.0030133 0)
(0.129923 -0.00510995 0)
(0.129158 -0.00711211 0)
(0.128277 -0.00900934 0)
(0.127274 -0.0107908 0)
(0.126166 -0.0124469 0)
(0.12497 -0.0139693 0)
(0.123699 -0.0153512 0)
(0.122367 -0.0165871 0)
(0.120987 -0.0176732 0)
(0.119574 -0.0186073 0)
(0.118141 -0.0193892 0)
(0.116699 -0.0200206 0)
(0.115263 -0.0205051 0)
(0.113843 -0.0208482 0)
(0.112451 -0.0210571 0)
(0.111096 -0.0211404 0)
(0.109787 -0.021108 0)
(0.108532 -0.0209704 0)
(0.107336 -0.0207388 0)
(0.106205 -0.0204244 0)
(0.105142 -0.0200384 0)
(0.129738 -0.000536925 0)
(0.129419 -0.00254778 0)
(0.12886 -0.00448876 0)
(0.128207 -0.00634985 0)
(0.127436 -0.00812103 0)
(0.126543 -0.00979093 0)
(0.125543 -0.0113495 0)
(0.124453 -0.0127882 0)
(0.123285 -0.0141002 0)
(0.122054 -0.0152798 0)
(0.120771 -0.0163232 0)
(0.119451 -0.0172279 0)
(0.118107 -0.0179933 0)
(0.11675 -0.0186208 0)
(0.115393 -0.0191134 0)
(0.114047 -0.0194757 0)
(0.112724 -0.019714 0)
(0.111431 -0.019836 0)
(0.110179 -0.0198503 0)
(0.108973 -0.0197662 0)
(0.107822 -0.0195936 0)
(0.106728 -0.0193424 0)
(0.105696 -0.0190225 0)
(0.128353 -0.000328039 0)
(0.128113 -0.00217706 0)
(0.127648 -0.00396781 0)
(0.12709 -0.00569147 0)
(0.126419 -0.00733848 0)
(0.125627 -0.00889739 0)
(0.12473 -0.010358 0)
(0.123743 -0.011712 0)
(0.122678 -0.0129523 0)
(0.121548 -0.0140734 0)
(0.120365 -0.0150711 0)
(0.119142 -0.0159429 0)
(0.117891 -0.016688 0)
(0.116624 -0.0173072 0)
(0.115353 -0.0178029 0)
(0.114088 -0.018179 0)
(0.11284 -0.0184411 0)
(0.111618 -0.0185958 0)
(0.110429 -0.0186505 0)
(0.109281 -0.0186135 0)
(0.10818 -0.0184934 0)
(0.107132 -0.0182991 0)
(0.106138 -0.0180392 0)
(0.126938 -0.000184116 0)
(0.126757 -0.0018813 0)
(0.126369 -0.00353022 0)
(0.125892 -0.005123 0)
(0.125306 -0.00665055 0)
(0.124606 -0.0081017 0)
(0.123804 -0.00946649 0)
(0.122914 -0.0107367 0)
(0.121947 -0.0119054 0)
(0.120915 -0.0129671 0)
(0.119831 -0.0139177 0)
(0.118704 -0.0147543 0)
(0.117548 -0.015476 0)
(0.116372 -0.0160832 0)
(0.115189 -0.0165776 0)
(0.114008 -0.0169628 0)
(0.112838 -0.0172433 0)
(0.111689 -0.0174249 0)
(0.110567 -0.017514 0)
(0.109481 -0.0175179 0)
(0.108436 -0.0174441 0)
(0.107437 -0.0173003 0)
(0.106486 -0.0170942 0)
(0.125542 -8.689e-05 0)
(0.125405 -0.00164385 0)
(0.125079 -0.00316093 0)
(0.12467 -0.00463104 0)
(0.124158 -0.00604564 0)
(0.123538 -0.00739405 0)
(0.122822 -0.00866672 0)
(0.122021 -0.00985571 0)
(0.121146 -0.0109543 0)
(0.120208 -0.0119572 0)
(0.119216 -0.0128601 0)
(0.118183 -0.0136603 0)
(0.117119 -0.0143564 0)
(0.116033 -0.0149486 0)
(0.114936 -0.0154383 0)
(0.113838 -0.0158282 0)
(0.112747 -0.0161223 0)
(0.111671 -0.0163255 0)
(0.110619 -0.0164434 0)
(0.109596 -0.0164823 0)
(0.108609 -0.0164488 0)
(0.107661 -0.0163494 0)
(0.106756 -0.016191 0)
(0.124197 -2.25068e-05 0)
(0.124093 -0.0014513 0)
(0.123817 -0.00284713 0)
(0.123464 -0.00420358 0)
(0.123015 -0.00551271 0)
(0.122465 -0.00676446 0)
(0.121825 -0.0079498 0)
(0.121105 -0.00906119 0)
(0.120314 -0.0100922 0)
(0.119462 -0.0110376 0)
(0.118558 -0.0118934 0)
(0.117613 -0.0126566 0)
(0.116636 -0.0133258 0)
(0.115636 -0.0139008 0)
(0.114623 -0.0143827 0)
(0.113605 -0.0147737 0)
(0.112591 -0.0150772 0)
(0.111588 -0.0152973 0)
(0.110604 -0.015439 0)
(0.109644 -0.0155075 0)
(0.108714 -0.0155086 0)
(0.107819 -0.015448 0)
(0.106961 -0.0153317 0)
(0.12292 1.92728e-05 0)
(0.122839 -0.00129322 0)
(0.122604 -0.00257832 0)
(0.122297 -0.00383029 0)
(0.121902 -0.00504178 0)
(0.121414 -0.00620344 0)
(0.120841 -0.00730686 0)
(0.120193 -0.0083449 0)
(0.119478 -0.00931151 0)
(0.118705 -0.0102016 0)
(0.117883 -0.0110113 0)
(0.117019 -0.0117377 0)
(0.116123 -0.0123793 0)
(0.115204 -0.0129356 0)
(0.11427 -0.0134074 0)
(0.113329 -0.0137965 0)
(0.112389 -0.0141058 0)
(0.111456 -0.0143387 0)
(0.110538 -0.0144994 0)
(0.10964 -0.0145927 0)
(0.108767 -0.0146233 0)
(0.107923 -0.0145964 0)
(0.107112 -0.0145168 0)
(0.12172 4.55565e-05 0)
(0.121656 -0.00116169 0)
(0.121454 -0.00234611 0)
(0.121185 -0.00350252 0)
(0.120836 -0.00462416 0)
(0.1204 -0.00570243 0)
(0.119887 -0.00672953 0)
(0.119303 -0.0076988 0)
(0.118657 -0.00860452 0)
(0.117956 -0.0094419 0)
(0.117207 -0.0102071 0)
(0.116418 -0.0108974 0)
(0.115598 -0.0115112 0)
(0.114754 -0.0120478 0)
(0.113894 -0.0125077 0)
(0.113026 -0.0128925 0)
(0.112155 -0.0132044 0)
(0.111289 -0.0134466 0)
(0.110434 -0.0136225 0)
(0.109595 -0.0137361 0)
(0.108776 -0.0137917 0)
(0.107983 -0.0137936 0)
(0.107218 -0.013746 0)
(0.120597 6.14088e-05 0)
(0.120546 -0.00105078 0)
(0.120371 -0.00214384 0)
(0.120135 -0.00321311 0)
(0.119824 -0.0042524 0)
(0.119434 -0.00525384 0)
(0.118973 -0.00621021 0)
(0.118447 -0.00711536 0)
(0.117862 -0.00796392 0)
(0.117225 -0.00875135 0)
(0.116543 -0.00947403 0)
(0.115823 -0.0101293 0)
(0.115073 -0.0107154 0)
(0.114298 -0.0112317 0)
(0.113507 -0.0116786 0)
(0.112705 -0.0120571 0)
(0.1119 -0.0123692 0)
(0.111096 -0.0126175 0)
(0.110301 -0.0128051 0)
(0.109518 -0.0129354 0)
(0.108752 -0.0130118 0)
(0.108007 -0.0130383 0)
(0.107287 -0.0130184 0)
(0.119552 7.04314e-05 0)
(0.11951 -0.000955988 0)
(0.119357 -0.00196628 0)
(0.119147 -0.00295623 0)
(0.11887 -0.00392021 0)
(0.118521 -0.00485104 0)
(0.118105 -0.00574212 0)
(0.117629 -0.00658772 0)
(0.117099 -0.00738285 0)
(0.116521 -0.00812325 0)
(0.115899 -0.00880548 0)
(0.115242 -0.00942695 0)
(0.114555 -0.00998601 0)
(0.113844 -0.0104819 0)
(0.113116 -0.0109147 0)
(0.112376 -0.0112855 0)
(0.111631 -0.0115957 0)
(0.110887 -0.0118477 0)
(0.110147 -0.012044 0)
(0.109417 -0.0121875 0)
(0.108701 -0.0122813 0)
(0.108003 -0.0123286 0)
(0.107325 -0.0123324 0)
(0.11858 7.49159e-05 0)
(0.118545 -0.000874035 0)
(0.11841 -0.00180929 0)
(0.118223 -0.00272709 0)
(0.117975 -0.00362229 0)
(0.11766 -0.00448836 0)
(0.117285 -0.00531926 0)
(0.116854 -0.00610971 0)
(0.116373 -0.00685508 0)
(0.115847 -0.00755136 0)
(0.11528 -0.00819531 0)
(0.114679 -0.00878447 0)
(0.114049 -0.00931721 0)
(0.113397 -0.00979274 0)
(0.112726 -0.0102111 0)
(0.112044 -0.0105729 0)
(0.111356 -0.0108797 0)
(0.110665 -0.0111332 0)
(0.109978 -0.0113357 0)
(0.109298 -0.0114896 0)
(0.108629 -0.0115976 0)
(0.107975 -0.0116623 0)
(0.107338 -0.0116865 0)
(0.117676 7.64691e-05 0)
(0.117646 -0.000802426 0)
(0.117527 -0.00166964 0)