/*--------------------------------*- C++ -*----------------------------------*\
| =========                 |                                                 |
| \\      /  F ield         | OpenFOAM: The Open Source CFD Toolbox           |
|  \\    /   O peration     | Version:  2412                                  |
|   \\  /    A nd           | Website:  www.openfoam.com                      |
|    \\/     M anipulation  |                                                 |
\*---------------------------------------------------------------------------*/
FoamFile
{
    version     2.0;
    format      ascii;
    arch        "LSB;label=32;scalar=64";
    class       volVectorField;
    location    "12.5";
    object      vorticity;
}
// * * * * * * * * * * * * * * * * * * * * * * * * * * * * * * * * * * * * * //

dimensions      [0 0 -1 0 0 0 0];

internalField   nonuniform List<vector> 
5285
(
(2.38016e-21 -6.53888e-20 -7.14193e-05)
(-1.87603e-21 7.71679e-21 -8.05631e-05)
(-1.9475e-22 -7.19571e-21 -8.93936e-05)
(7.6973e-23 7.20403e-21 -9.76772e-05)
(-3.18208e-24 -1.30152e-22 -0.000105253)
(-7.24373e-23 -6.95296e-21 -0.000112062)
(-2.02856e-21 7.01833e-21 -0.000118164)
(4.25224e-21 1.3049e-23 -0.000123752)
(1.24545e-21 6.82072e-21 -0.000129152)
(-3.31252e-21 -5.38524e-24 -0.00013481)
(4.77192e-21 7.94351e-21 -0.000141276)
(-5.54041e-21 1.03013e-19 -0.000149176)
(6.3875e-22 -1.10632e-19 -0.000159199)
(-2.10321e-21 1.01215e-19 -0.000172093)
(2.04755e-21 -1.02373e-19 -0.000188686)
(4.90497e-23 1.35633e-21 -0.000209962)
(-6.39153e-23 -1.66703e-21 -0.000237214)
(2.74454e-21 -9.72139e-20 -0.000272351)
(-8.70506e-21 9.43643e-20 -0.000318474)
(-3.23378e-22 -1.56698e-21 -0.00038091)
(6.28728e-21 1.37509e-23 -0.000469041)
(6.8447e-21 1.497e-23 -0.000599398)
(-6.8228e-21 -1.49221e-23 -0.000800669)
(-2.26499e-22 -4.95376e-25 -0.00112138)
(-2.364e-22 -5.1703e-25 -0.00164089)
(-8.14967e-21 -1.78241e-23 -0.00248378)
(7.8664e-21 1.72046e-23 -0.00383654)
(-2.60214e-22 1.55001e-22 -0.00596309)
(-2.70478e-23 8.02615e-21 -0.00921302)
(-2.52397e-20 5.1986e-20 -0.0140127)
(2.43081e-20 -6.85164e-20 -0.0208257)
(-5.71642e-21 -9.79692e-21 -0.0300662)
(6.28366e-21 2.66867e-20 -0.0419598)
(-2.09035e-20 -5.83625e-21 -0.0562618)
(1.51905e-21 -2.26298e-19 -0.000219898)
(-5.52068e-21 2.42546e-19 -0.000248245)
(-2.84489e-22 1.96104e-20 -0.000275834)
(-3.88755e-21 -7.36497e-21 -0.000302012)
(4.10585e-21 1.46867e-22 -0.000326316)
(-4.11311e-21 9.17608e-21 -0.000348581)
(1.2421e-21 2.1108e-19 -0.000369018)
(5.54684e-21 -4.47218e-19 -0.000388227)
(4.3011e-21 -2.1382e-19 -0.000407208)
(-6.60382e-21 4.32793e-19 -0.000427324)
(3.14634e-21 -4.32128e-19 -0.000450241)
(-1.43844e-21 4.43444e-19 -0.000477871)
(3.32978e-21 1.43264e-21 -0.000512316)
(-3.76347e-21 -9.86119e-23 -0.000555865)
(-1.26452e-21 -2.76564e-24 -0.00061107)
(0 -0 -0.000680959)
(1.87058e-22 9.70918e-23 -0.000769517)
(1.11963e-20 1.25079e-20 -0.000882614)
(-1.52904e-20 3.64518e-19 -0.00102974)
(-1.59744e-20 -2.4181e-20 -0.00122718)
(1.81655e-20 -3.59976e-19 -0.00150352)
(2.62599e-20 -3.11677e-19 -0.00190908)
(-8.78717e-21 3.33032e-19 -0.00253109)
(-3.16815e-20 2.19902e-21 -0.00351695)
(3.10317e-20 1.76606e-20 -0.0051074)
(-4.22587e-20 2.38856e-19 -0.00767988)
(2.25564e-20 -2.48498e-19 -0.0117986)
(-1.84041e-20 1.49752e-20 -0.0182609)
(2.04249e-20 7.92715e-21 -0.028122)
(-6.10514e-20 1.16274e-19 -0.0426678)
(6.09869e-20 -1.13799e-19 -0.0632922)
(-9.44071e-20 8.53003e-20 -0.0912218)
(9.10993e-20 -9.523e-20 -0.127062)
(-1.92859e-20 -6.5523e-22 -0.168658)
(-4.9805e-21 -1.22715e-20 -0.000385089)
(-4.35508e-21 4.69006e-19 -0.000435472)
(4.03732e-22 -1.42418e-20 -0.000485219)
(-1.20422e-20 4.55862e-19 -0.00053334)
(1.19382e-20 -4.73501e-19 -0.00057915)
(-8.68289e-21 4.52565e-19 -0.000622472)
(1.7511e-21 -4.70788e-19 -0.00066374)
(5.2952e-21 -9.34344e-21 -0.000704036)
(-2.61227e-21 1.38127e-20 -0.000745101)
(5.61271e-21 -8.8559e-21 -0.000789284)
(-1.83329e-20 4.25445e-19 -0.000839455)
(1.63716e-20 -4.53608e-19 -0.000898905)
(1.78205e-20 -4.21893e-19 -0.000971279)
(-1.44851e-20 4.23981e-19 -0.00106057)
(-1.10355e-21 -5.26853e-21 -0.00117125)
(1.14298e-20 -1.23708e-22 -0.00130867)
(-1.31195e-20 -2.51871e-20 -0.00147982)
(5.21172e-20 -7.73932e-19 -0.00169496)
(1.69555e-20 5.65578e-20 -0.00197055)
(-6.94648e-20 7.29544e-19 -0.00233464)
(4.04493e-21 -1.2598e-20 -0.00283627)
(-1.16602e-20 -5.04598e-21 -0.00356159)
(1.10214e-19 -6.15129e-19 -0.0046596)
(-2.04904e-19 1.20915e-18 -0.00638172)
(2.09251e-19 -1.20344e-18 -0.00913783)
(7.33482e-20 8.63572e-20 -0.0135693)
(-1.59007e-19 5.28288e-19 -0.0206329)
(-1.67932e-19 3.65656e-19 -0.0316794)
(1.58537e-19 -4.33603e-19 -0.0484951)
(-2.28962e-20 2.00379e-20 -0.0732593)
(5.65818e-20 -1.78802e-20 -0.108334)
(1.70167e-19 -1.05877e-19 -0.155754)
(-1.84164e-19 1.65116e-19 -0.216337)
(-2.61146e-20 -4.22662e-20 -0.281778)
(-9.56601e-21 4.8261e-19 -0.000580083)
(-7.16598e-22 -3.85313e-21 -0.000657435)
(4.60905e-21 3.99947e-21 -0.000735228)
(-7.05867e-21 4.45823e-19 -0.000812279)
(-2.76763e-21 -4.6832e-19 -0.000887848)
(1.51187e-20 1.30273e-20 -0.000961895)
(-3.24404e-20 9.00121e-19 -0.00103522)
(2.41305e-20 -9.03322e-19 -0.00110952)
(2.29186e-21 -5.29827e-21 -0.00118742)
(-9.97542e-21 -9.1384e-23 -0.0012724)
(1.51062e-20 -1.36772e-20 -0.00136871)
(-4.92332e-21 1.26248e-22 -0.00148124)
(-5.41936e-21 -6.37645e-23 -0.00161542)
(5.14934e-21 2.0023e-22 -0.00177729)
(-3.76162e-21 1.35547e-21 -0.00197366)
(6.17636e-20 -8.02582e-19 -0.00221265)
(-5.57287e-20 8.25603e-19 -0.00250491)
(-1.64145e-20 1.3449e-22 -0.00286579)
(1.90841e-20 -1.03936e-20 -0.00331962)
(-9.81512e-20 7.39507e-19 -0.00390742)
(1.15231e-19 -7.42948e-19 -0.00470046)
(-2.33528e-20 2.30626e-21 -0.00582338)
(1.6486e-20 -8.85726e-23 -0.00749144)
(3.91983e-20 6.68669e-21 -0.0100674)
(-2.5153e-19 5.5812e-19 -0.0141419)
(3.71658e-19 -1.1326e-18 -0.0206384)
(-1.81484e-19 5.74371e-19 -0.0309332)
(2.66734e-19 -4.41039e-19 -0.0469711)
(-2.5793e-19 5.19871e-19 -0.0713357)
(-6.06187e-19 5.38175e-19 -0.107207)
(1.1462e-18 -1.14155e-18 -0.158082)
(-5.62168e-19 5.77018e-19 -0.226973)
(1.94373e-20 -2.27359e-21 -0.314717)
(4.70254e-21 -3.6153e-20 -0.398987)
(4.2729e-21 3.79659e-21 -0.00082082)
(-4.58529e-21 4.56367e-19 -0.000932458)
(1.98212e-20 -4.93972e-19 -0.001047)
(6.50011e-21 2.73054e-20 -0.00116331)
(-4.45871e-20 9.41938e-19 -0.00128083)
(2.76005e-20 -9.44845e-19 -0.00139988)
(1.04244e-20 2.29313e-20 -0.00152184)
(-1.84266e-20 -2.38178e-22 -0.00164929)
(1.20573e-20 9.83944e-21 -0.00178597)
(-3.66767e-20 9.0738e-19 -0.00193678)
(2.9826e-20 -8.99058e-19 -0.00210768)
(2.89673e-21 9.82411e-21 -0.00230553)
(9.84953e-21 2.75849e-20 -0.00253807)
(-1.17543e-20 -5.61341e-22 -0.00281394)
(1.1557e-21 -1.32091e-20 -0.00314299)
(-3.80828e-20 1.34215e-20 -0.00353703)
(3.59378e-20 1.27969e-20 -0.00401127)
(-3.25836e-21 -2.57531e-20 -0.00458729)
(8.07023e-20 -7.5236e-19 -0.00529853)
(-7.14248e-20 7.75427e-19 -0.00620034)
(2.68078e-19 -1.49508e-18 -0.00738788)
(-2.45041e-19 1.50963e-18 -0.00902662)
(3.06101e-19 -1.41592e-18 -0.0114018)
(7.39002e-20 1.33531e-19 -0.0149944)
(-3.53322e-19 1.35054e-18 -0.020588)
(-1.24284e-19 -2.28395e-20 -0.0294097)
(1.69078e-20 3.89301e-22 -0.0432935)
(-1.89369e-20 5.70333e-22 -0.064847)
(5.58971e-20 1.71036e-21 -0.0975821)
(2.69979e-20 1.40024e-20 -0.145949)
(-1.16724e-19 5.30209e-21 -0.215108)
(6.64446e-20 5.15083e-21 -0.309889)
(-1.70662e-22 -3.20384e-22 -0.431673)
(3.71935e-20 6.62035e-22 -0.530942)
(-3.1402e-21 6.87181e-21 -0.00112679)
(3.74871e-20 -9.60872e-19 -0.00128276)
(2.83325e-20 -9.22799e-19 -0.00144599)
(6.53555e-21 2.12941e-20 -0.0016157)
(-2.50663e-20 9.58842e-19 -0.00179183)
(-2.05485e-20 -8.25058e-21 -0.0019754)
(1.25449e-20 9.13188e-21 -0.00216876)
(-4.89097e-20 9.29654e-19 -0.00237569)
(3.92342e-20 -9.44656e-19 -0.00260149)
(7.10891e-20 -9.07802e-19 -0.00285295)
(-7.23372e-20 9.38007e-19 -0.00313829)
(1.53835e-20 -2.04303e-20 -0.00346705)
(6.54615e-20 -9.0654e-19 -0.00385007)
(-9.37809e-20 9.29878e-19 -0.00429963)
(4.46623e-21 1.2625e-20 -0.00482979)
(-2.03697e-19 1.70583e-18 -0.00545738)
(1.83323e-19 -1.77016e-18 -0.00620374)
(4.9645e-20 6.33496e-20 -0.00709825)
(-2.64597e-19 1.61817e-18 -0.00818495)
(2.41705e-19 -1.68764e-18 -0.00953474)
(-3.23803e-20 -3.44517e-21 -0.0112673)
(4.73656e-19 -1.52537e-18 -0.0135888)
(-4.42788e-19 1.57575e-18 -0.0168541)
(-6.82063e-20 -7.43714e-20 -0.0216626)
(6.87174e-19 -1.3356e-18 -0.0289964)
(-1.20784e-18 2.75746e-18 -0.0404022)
(-6.9603e-20 -1.5735e-19 -0.0582105)
(-9.3286e-20 -1.23094e-19 -0.0857732)
(7.86801e-19 -1.20542e-18 -0.127706)
(4.07395e-20 6.49581e-20 -0.19015)
(-8.97605e-19 8.0383e-19 -0.281058)
(8.80157e-19 -8.83835e-19 -0.409935)
(9.92558e-21 2.98569e-20 -0.583533)
(9.74023e-21 -2.84224e-21 -0.703737)
(-1.51486e-21 -2.00645e-20 -0.00147155)
(2.58482e-20 -9.9929e-19 -0.00167314)
(-5.55964e-21 -7.6539e-21 -0.00188636)
(-1.71889e-22 1.21985e-22 -0.00211072)
(1.17e-20 8.62061e-21 -0.00234647)
(-5.10192e-20 9.62751e-19 -0.00259506)
(4.51443e-20 -9.83632e-19 -0.00285932)
(1.30544e-20 8.52315e-21 -0.00314363)
(-8.95243e-21 -1.50888e-20 -0.00345392)
(-6.30598e-21 1.01224e-20 -0.00379764)
(-7.17083e-20 9.31193e-19 -0.00418365)
(1.54554e-19 -1.90059e-18 -0.004622)
(-7.2975e-20 9.91778e-19 -0.00512377)
(-1.8718e-19 1.83928e-18 -0.00570102)
(-3.0898e-20 -4.51496e-20 -0.00636689)
(2.88013e-21 -2.56684e-20 -0.00713617)
(-6.74373e-20 -5.36054e-20 -0.00802664)
(2.54905e-19 -1.84194e-18 -0.00906207)
(3.97695e-19 -1.70707e-18 -0.0102783)
(-3.5387e-19 1.79222e-18 -0.0117354)
(-3.48259e-20 -5.63365e-20 -0.0135403)
(4.73192e-19 -1.6367e-18 -0.0158882)
(-4.15875e-19 1.73427e-18 -0.0191329)
(-6.73747e-19 1.54295e-18 -0.0239002)
(5.70916e-19 -1.63015e-18 -0.0312582)
(8.04203e-20 -1.15623e-20 -0.0429527)
(8.84514e-19 -1.44686e-18 -0.0617033)
(1.27529e-19 1.22831e-19 -0.0915472)
(-1.0261e-18 1.42006e-18 -0.138228)
(-1.68011e-20 -4.08667e-20 -0.209702)
(3.459e-20 5.42513e-22 -0.317497)
(-3.52892e-20 1.58135e-20 -0.48177)
(-5.31746e-19 5.56728e-19 -0.741215)
(5.23166e-19 -5.65855e-19 -1.02208)
(-1.04196e-20 -3.02166e-21 0.00946432)
(-1.00899e-20 -3.95274e-22 0.00279571)
(9.45091e-21 9.44606e-21 -0.00276243)
(-7.35361e-21 3.6904e-22 -0.00729091)
(7.8501e-21 -9.24658e-21 -0.0108805)
(-4.53562e-23 3.10424e-21 -0.0136303)
(-1.51164e-22 -8.74664e-23 -0.0156399)
(-4.59094e-21 1.00409e-23 -0.0170077)
(4.45896e-21 -9.75219e-24 -0.0178256)
(-1.24706e-22 2.72745e-25 -0.0181767)
(-1.1317e-22 2.47515e-25 -0.0181393)
(3.00207e-21 -6.56583e-24 -0.0177865)
(-3.01172e-21 6.58693e-24 -0.0171838)
(-2.29048e-21 5.0095e-24 -0.0163899)
(3.5425e-22 -4.32435e-22 -0.0154564)
(4.97713e-21 3.36218e-20 -0.0144283)
(-2.76775e-21 -3.05788e-20 -0.0133435)
(-2.45387e-23 -4.07894e-22 -0.0122343)
(-6.45498e-24 1.78494e-22 -0.0111269)
(-2.63045e-21 -5.26635e-20 -0.0100425)
(2.6456e-21 5.25018e-20 -0.00899768)
(-2.01607e-21 -5.76085e-20 -0.00800504)
(-1.5138e-20 2.45286e-20 0.027232)
(2.73114e-20 -1.02735e-20 0.00733697)
(-2.15413e-20 -2.07172e-20 -0.00928867)
(2.52083e-21 1.71208e-20 -0.0227213)
(-3.04452e-21 -1.63969e-20 -0.0332785)
(-1.12858e-20 5.89548e-21 -0.0412988)
(9.68585e-21 5.00033e-21 -0.0471043)
(-6.27391e-21 -1.57744e-20 -0.0510031)
(1.61247e-20 5.50129e-21 -0.053276)
(-1.81295e-20 4.00364e-21 -0.0541749)
(1.47057e-20 -4.96086e-21 -0.0539386)
(2.0169e-20 6.91223e-20 -0.0527844)
(-2.85593e-20 -6.03332e-20 -0.0509073)
(-2.99933e-20 -1.05228e-19 -0.0484807)
(4.21003e-21 -2.32582e-20 -0.0456569)
(3.00628e-20 1.21027e-19 -0.0425673)
(-3.74608e-21 -1.11886e-22 -0.0393234)
(-1.20673e-21 -5.45715e-21 -0.0360184)
(4.84316e-24 -4.31545e-23 -0.0327284)
(1.66412e-22 -3.6396e-25 -0.0295143)
(4.41061e-22 5.24416e-24 -0.0264237)
(-7.75509e-22 -4.03142e-21 -0.0234921)
(-1.45924e-20 -8.65759e-22 0.0413208)
(-8.83775e-21 -1.29843e-20 0.00844652)
(3.06912e-20 2.65804e-20 -0.0190374)
(-4.27622e-20 -1.23627e-20 -0.0408485)
(1.74932e-20 1.07217e-20 -0.0576842)
(-1.17894e-20 -1.76193e-20 -0.0702534)
(2.05364e-20 -1.52721e-20 -0.0791754)
(6.63242e-20 5.58231e-20 -0.0849841)
(-1.80809e-20 5.35675e-20 -0.0881665)
(-1.27831e-19 -1.79393e-19 -0.089162)
(1.65157e-19 2.13597e-19 -0.0883668)
(-9.02864e-20 -1.07679e-19 -0.0861368)
(3.06301e-21 -1.05933e-20 -0.0827896)
(-2.22804e-21 -4.62912e-21 -0.0786054)
(1.10342e-19 2.72826e-19 -0.0738281)
(-4.61067e-21 4.08596e-20 -0.0686661)
(-1.02615e-19 -3.0149e-19 -0.0632954)
(6.80684e-21 7.64261e-21 -0.0578613)
(-2.81834e-21 1.05218e-22 -0.0524818)
(7.90307e-23 -6.38127e-22 -0.0472505)
(4.72933e-20 2.44895e-19 -0.0422391)
(-4.58895e-20 -2.35538e-19 -0.0375016)
(1.71203e-21 2.69385e-20 0.0479587)
(8.80152e-21 -5.40035e-20 0.00280278)
(-3.72335e-20 3.89588e-20 -0.034869)
(2.60184e-20 1.24911e-20 -0.06392)
(2.7029e-20 -6.23112e-20 -0.0857344)
(3.46769e-20 7.02057e-20 -0.101551)
(-5.16346e-20 -3.19429e-20 -0.112378)
(6.38652e-20 8.58261e-20 -0.119041)
(-1.70758e-19 -1.82594e-19 -0.122253)
(1.36258e-19 8.39299e-20 -0.122631)
(-1.89491e-20 1.25885e-20 -0.120718)
(-1.00103e-20 7.48557e-22 -0.116997)
(1.40666e-20 8.71757e-21 -0.111892)
(-1.55956e-19 -2.80865e-19 -0.105774)
(1.42044e-19 2.61285e-19 -0.0989603)
(-1.87225e-21 1.58436e-20 -0.0917214)
(2.44481e-21 -8.17094e-21 -0.0842822)
(1.43347e-19 4.19995e-19 -0.0768267)
(-1.44551e-19 -4.13964e-19 -0.0695024)
(-1.66565e-21 -1.04452e-20 -0.0624246)
(-6.09185e-22 -3.47716e-23 -0.0556806)
(1.07793e-21 3.72559e-22 -0.0493334)
(2.74721e-20 9.11306e-23 0.0425182)
(2.09932e-22 2.8258e-22 -0.0142317)
(-6.13436e-20 1.67843e-22 -0.0605877)
(8.88232e-20 -7.59413e-22 -0.0947301)
(-2.73274e-20 -1.20094e-21 -0.119296)
(-4.07913e-20 -9.88723e-22 -0.136307)
(1.47952e-20 1.07897e-21 -0.147279)
(-1.01125e-20 -1.69904e-21 -0.153341)
(7.73998e-20 -2.20766e-20 -0.155405)
(2.39457e-19 3.71916e-19 -0.154243)
(9.72528e-21 9.6648e-20 -0.150519)
(-2.83255e-19 -4.58306e-19 -0.144811)
(3.29028e-19 5.69291e-19 -0.137621)
(-3.43301e-19 -5.64399e-19 -0.129382)
(1.69918e-19 3.51168e-19 -0.120459)
(-1.79864e-19 -3.65816e-19 -0.111162)
(5.14647e-21 1.43091e-21 -0.101743)
(-1.33223e-20 -6.51563e-21 -0.0924098)
(7.62572e-21 -7.94617e-21 -0.083323)
(2.50426e-21 7.71614e-21 -0.0746079)
(2.17536e-21 7.20682e-23 -0.0663565)
(-7.28628e-21 -1.79724e-20 -0.0586334)
(-2.20692e-22 7.51223e-22 -0.0514804)
(-8.63665e-20 -2.76097e-22 0.0202233)
(2.66807e-20 3.15627e-20 -0.0493857)
(2.6921e-20 -9.62196e-20 -0.101169)
(1.52136e-20 3.36802e-20 -0.136451)
(-3.72119e-20 5.82811e-20 -0.160258)
(-1.04974e-19 -2.37141e-19 -0.175599)
(-3.87762e-20 -9.36565e-20 -0.184406)
(-5.47411e-20 -1.05601e-19 -0.188039)
(5.28603e-19 8.2711e-19 -0.187552)
(-3.64123e-19 -3.85716e-19 -0.183804)
(5.45347e-20 -3.03974e-20 -0.17752)
(4.31352e-19 6.5729e-19 -0.16932)
(-4.41142e-19 -6.1746e-19 -0.159735)
(1.72094e-20 -5.09924e-21 -0.149219)
(-4.3339e-19 -8.56369e-19 -0.138153)
(4.47112e-19 8.37981e-19 -0.126853)
(-2.31968e-20 1.18958e-20 -0.115579)
(-4.41484e-19 -1.04666e-18 -0.104539)
(4.53245e-19 1.03796e-18 -0.093895)
(-4.56985e-21 -3.89718e-21 -0.0837681)
(2.1096e-19 6.09933e-19 -0.0742462)
(-1.9686e-19 -5.85266e-19 -0.065388)
(-2.99641e-21 -3.01543e-21 -0.0572276)
(-2.30779e-20 1.09745e-21 -0.0244742)
(5.27791e-20 -4.10187e-20 -0.10456)
(2.64527e-21 3.93596e-20 -0.14961)
(-3.70375e-20 -3.9336e-22 -0.177722)
(2.37303e-20 -2.75945e-20 -0.195601)
(2.14128e-19 3.75654e-19 -0.205851)
(1.39381e-20 1.32388e-19 -0.210261)
(-2.45682e-19 -4.53242e-19 -0.210133)
(-4.59635e-20 -1.60896e-21 -0.206433)
(-3.59739e-19 -6.85092e-19 -0.199939)
(4.21991e-19 6.15402e-19 -0.191306)
(4.2831e-19 8.3932e-19 -0.18109)
(-4.64745e-19 -7.77851e-19 -0.16977)
(1.92314e-20 -3.10512e-20 -0.157753)
(5.3546e-19 1.00574e-18 -0.145384)
(-5.54027e-19 -9.66454e-19 -0.132949)
(-5.26067e-19 -1.12798e-18 -0.120685)
(1.81688e-20 -7.27021e-20 -0.108782)
(3.93536e-22 -5.94627e-20 -0.0973885)
(1.86449e-20 -5.26762e-20 -0.0866135)
(4.98872e-19 1.27329e-18 -0.0765349)
(2.26662e-19 6.87649e-19 -0.0672017)
(-4.54593e-19 -1.39296e-18 -0.05864)
(7.9323e-20 1.11595e-19 -0.0756955)
(-4.44427e-20 -0 -0.116414)
(3.02422e-22 -0 -0.141429)
(0 -0 -0.157997)
(-2.68967e-22 -0 -0.16882)
(-3.20765e-20 -0 -0.175106)
(1.90961e-21 -0 -0.177486)
(3.03869e-20 -0 -0.176501)
(-2.07023e-22 -0 -0.172685)
(2.40524e-20 -0 -0.166551)
(-2.37785e-20 -0 -0.158582)
(-1.98389e-20 -0 -0.149229)
(1.97562e-20 -0 -0.138901)
(0 -0 -0.127966)
(-1.38867e-20 -0 -0.116744)
(1.38282e-20 -0 -0.105511)
(1.04439e-20 -0 -0.0944936)
(-1.47162e-21 -0 -0.0838763)
(-1.33162e-21 -0 -0.0738004)
(-1.24051e-21 -0 -0.0643689)
(-6.30924e-21 -0 -0.0556503)
(-2.12499e-21 -0 -0.0476841)
(3.9037e-21 -0 -0.0404843)
(1.74627e-21 -0 -0.0340472)
(0 -6.31929e-20 -0.180249)
(0 -0 -0.182921)
(0 -0 -0.190268)
(0 -0 -0.196574)
(0 -0 -0.200443)
(0 -0 -0.201675)
(0 -0 -0.200297)
(0 -0 -0.196462)
(0 -0 -0.190426)
(0 -0 -0.182502)
(0 -0 -0.173033)
(0 -0 -0.162369)
(0 -0 -0.150853)
(0 -0 -0.138809)
(0 -0 -0.126533)
(0 -0 -0.114289)
(0 -0 -0.102302)
(0 -0 -0.0907591)
(0 -0 -0.0798081)
(0 -0 -0.0695581)
(0 -0 -0.0600837)
(0 -0 -0.0514278)
(0 -0 -0.043608)
(0 5.00312e-22 -0.251161)
(0 -0 -0.239613)
(0 -0 -0.235247)
(0 -0 -0.232877)
(0 -0 -0.230214)
(0 -0 -0.226422)
(0 -0 -0.221125)
(0 -0 -0.21419)
(0 -0 -0.205662)
(0 -0 -0.1957)
(0 -0 -0.184531)
(0 -0 -0.172423)
(0 -0 -0.159657)
(0 -0 -0.146515)
(0 -0 -0.133264)
(0 -0 -0.120148)
(0 -0 -0.107379)
(0 -0 -0.095135)
(0 -0 -0.0835565)
(0 -0 -0.0727482)
(0 -0 -0.0627799)
(0 -0 -0.0536906)
(0 -0 -0.0454925)
(0 -0 -0.295891)
(0 -0 -0.278759)
(0 -0 -0.267757)
(0 -0 -0.259353)
(0 -0 -0.251578)
(0 -0 -0.243577)
(0 -0 -0.234861)
(0 -0 -0.225164)
(0 -0 -0.214409)
(0 -0 -0.202653)
(0 -0 -0.190037)
(0 -0 -0.176761)
(0 -0 -0.163054)
(0 -0 -0.149153)
(0 -0 -0.135293)
(0 -0 -0.12169)
(0 -0 -0.108535)
(0 -0 -0.0959875)
(0 -0 -0.0841748)
(0 -0 -0.0731888)
(0 -0 -0.063089)
(0 -0 -0.0539052)
(0 -0 -0.0456425)
(0 -4.72306e-22 -0.317849)
(0 -0 -0.299374)
(0 -0 -0.285389)
(0 -0 -0.273575)
(0 -0 -0.26252)
(0 -0 -0.2516)
(0 -0 -0.240402)
(0 -0 -0.228662)
(0 -0 -0.216267)
(0 -0 -0.203224)
(0 -0 -0.189626)
(0 -0 -0.175625)
(0 -0 -0.161404)
(0 -0 -0.147165)
(0 -0 -0.133108)
(0 -0 -0.119421)
(0 -0 -0.106272)
(0 -0 -0.093798)
(0 -0 -0.0821088)
(0 -0 -0.0712813)
(0 -0 -0.0613627)
(0 -0 -0.0523723)
(0 -0 -0.0443065)
(0 -5.70165e-20 -0.320008)
(0 -0 -0.302564)
(0 -0 -0.28808)
(0 -0 -0.275016)
(0 -0 -0.262455)
(0 -0 -0.250031)
(0 -0 -0.237484)
(0 -0 -0.224623)
(0 -0 -0.21136)
(0 -0 -0.197698)
(0 -0 -0.183709)
(0 -0 -0.169516)
(0 -0 -0.155274)
(0 -0 -0.141154)
(0 -0 -0.127327)
(0 -0 -0.113954)
(0 -0 -0.101178)
(0 -0 -0.0891191)
(0 -0 -0.0778671)
(0 -0 -0.0674849)
(0 -0 -0.0580076)
(0 -0 -0.0494449)
(0 -0 -0.0417857)
(0 5.72045e-20 -0.305984)
(0 -0 -0.290873)
(0 -0 -0.277491)
(0 -0 -0.264764)
(0 -0 -0.25216)
(0 -0 -0.239517)
(0 -0 -0.226722)
(0 -0 -0.213683)
(0 -0 -0.200362)
(0 -0 -0.186783)
(0 -0 -0.173021)
(0 -0 -0.159188)
(0 -0 -0.145418)
(0 -0 -0.13186)
(0 -0 -0.118662)
(0 -0 -0.105964)
(0 -0 -0.0938886)
(0 -0 -0.0825359)
(0 -0 -0.0719823)
(0 -0 -0.0622776)
(0 -0 -0.0534471)
(0 -0 -0.0454929)
(0 -0 -0.0383984)
(0 3.95124e-22 -0.27997)
(0 -0 -0.267771)
(0 -0 -0.256408)
(0 -0 -0.245056)
(0 -0 -0.233461)
(0 -0 -0.2216)
(0 -0 -0.20947)
(0 -0 -0.197067)
(0 -0 -0.184407)
(0 -0 -0.171547)
(0 -0 -0.15857)
(0 -0 -0.145588)
(0 -0 -0.132725)
(0 -0 -0.120114)
(0 -0 -0.107886)
(0 -0 -0.0961626)
(0 -0 -0.0850499)
(0 -0 -0.0746344)
(0 -0 -0.0649797)
(0 -0 -0.0561262)
(0 -0 -0.0480919)
(0 -0 -0.0408742)
(0 -0 -0.0344534)
(0 -3.63752e-22 -0.246311)
(0 -0 -0.237112)
(0 -0 -0.228158)
(0 -0 -0.218742)
(0 -0 -0.208794)
(0 -0 -0.198376)
(0 -0 -0.187555)
(0 -0 -0.176387)
(0 -0 -0.164937)
(0 -0 -0.153284)
(0 -0 -0.141528)
(0 -0 -0.12978)
(0 -0 -0.118159)
(0 -0 -0.106787)
(0 -0 -0.0957819)
(0 -0 -0.0852519)
(0 -0 -0.0752901)
(0 -0 -0.0659717)
(0 -0 -0.0573512)
(0 -0 -0.0494624)
(0 -0 -0.0423185)
(0 -0 -0.0359145)
(0 -0 -0.0302305)
(0 4.20915e-20 -0.20906)
(0 -0 -0.202624)
(0 -0 -0.196086)
(0 -0 -0.188786)
(0 -0 -0.180766)
(0 -0 -0.172128)
(0 -0 -0.162976)
(0 -0 -0.153403)
(0 -0 -0.1435)
(0 -0 -0.133367)
(0 -0 -0.12311)
(0 -0 -0.112841)
(0 -0 -0.102674)
(0 -0 -0.0927233)
(0 -0 -0.0830957)
(0 -0 -0.0738883)
(0 -0 -0.0651843)
(0 -0 -0.0570501)
(0 -0 -0.0495338)
(0 -0 -0.0426643)
(0 -0 -0.0364527)
(0 -0 -0.0308935)
(0 -0 -0.025968)
(0 -4.16088e-20 -0.171631)
(0 -0 -0.167527)
(0 -0 -0.163156)
(0 -0 -0.157878)
(0 -0 -0.151787)
(0 -0 -0.144998)
(0 -0 -0.137628)
(0 -0 -0.129783)
(0 -0 -0.121567)
(0 -0 -0.113086)
(0 -0 -0.104449)
(0 -0 -0.0957638)
(0 -0 -0.08714)
(0 -0 -0.0786819)
(0 -0 -0.0704875)
(0 -0 -0.0626444)
(0 -0 -0.0552274)
(0 -0 -0.0482959)
(0 -0 -0.0418928)
(0 -0 -0.0360443)
(0 -0 -0.0307603)
(0 -0 -0.0260364)
(0 -0 -0.0218565)
(0 -3.41314e-20 -0.136585)
(0 -0 -0.134295)
(0 -0 -0.1317)
(0 -0 -0.128176)
(0 -0 -0.123827)
(0 -0 -0.118765)
(0 -0 -0.1131)
(0 -0 -0.106937)
(0 -0 -0.100381)
(0 -0 -0.0935337)
(0 -0 -0.0865)
(0 -0 -0.0793818)
(0 -0 -0.0722793)
(0 -0 -0.0652878)
(0 -0 -0.0584958)
(0 -0 -0.0519821)
(0 -0 -0.0458138)
(0 -0 -0.0400443)
(0 -0 -0.0347123)
(0 -0 -0.0298418)
(0 -0 -0.0254426)
(0 -0 -0.0215119)
(0 -0 -0.0180365)
(0 3.39871e-20 -0.105573)
(0 -0 -0.104579)
(0 -0 -0.10332)
(0 -0 -0.101195)
(0 -0 -0.0982969)
(0 -0 -0.0947206)
(0 -0 -0.0905613)
(0 -0 -0.0859135)
(0 -0 -0.0808713)
(0 -0 -0.0755292)
(0 -0 -0.0699806)
(0 -0 -0.064318)
(0 -0 -0.0586307)
(0 -0 -0.053004)
(0 -0 -0.0475162)
(0 -0 -0.0422376)
(0 -0 -0.0372277)
(0 -0 -0.032534)
(0 -0 -0.0281917)
(0 -0 -0.0242226)
(0 -0 -0.0206367)
(0 -0 -0.0174328)
(0 -0 -0.0146011)
(0 -0 -0.0794064)
(0 -0 -0.079249)
(0 -0 -0.0789074)
(0 -0 -0.0778142)
(0 -0 -0.0760393)
(0 -0 -0.0736565)
(0 -0 -0.0707419)
(0 -0 -0.0673739)
(0 -0 -0.0636324)
(0 -0 -0.059598)
(0 -0 -0.0553515)
(0 -0 -0.0509729)
(0 -0 -0.0465396)
(0 -0 -0.0421256)
(0 -0 -0.0377991)
(0 -0 -0.0336214)
(0 -0 -0.0296444)
(0 -0 -0.0259103)
(0 -0 -0.02245)
(0 -0 -0.0192837)
(0 -0 -0.0164209)
(0 -0 -0.0138621)
(0 -0 -0.0116003)
(0 -2.44366e-20 -0.0582247)
(0 -0 -0.0585363)
(0 -0 -0.0587572)
(0 -0 -0.0583627)
(0 -0 -0.0573982)
(0 -0 -0.0559156)
(0 -0 -0.0539716)
(0 -0 -0.051627)
(0 -0 -0.0489455)
(0 -0 -0.0459928)
(0 -0 -0.0428355)
(0 -0 -0.0395401)
(0 -0 -0.0361716)
(0 -0 -0.0327926)
(0 -0 -0.029461)
(0 -0 -0.026229)
(0 -0 -0.0231414)
(0 -0 -0.0202344)
(0 -0 -0.0175352)
(0 -0 -0.0150616)
(0 -0 -0.0128227)
(0 -0 -0.0108199)
(0 -0 -0.00904853)
(0 2.43352e-20 -0.0416957)
(0 -0 -0.0422104)
(0 -0 -0.0427223)
(0 -0 -0.042755)
(0 -0 -0.0423327)
(0 -0 -0.0414881)
(0 -0 -0.0402606)
(0 -0 -0.0386944)
(0 -0 -0.0368376)
(0 -0 -0.0347411)
(0 -0 -0.0324576)
(0 -0 -0.0300404)
(0 -0 -0.0275427)
(0 -0 -0.0250156)
(0 -0 -0.0225072)
(0 -0 -0.0200612)
(0 -0 -0.0177151)
(0 -0 -0.0154996)
(0 -0 -0.0134377)
(0 -0 -0.0115448)
(0 -0 -0.00982921)
(0 -0 -0.00829276)
(0 -0 -0.00693246)
(0 1.96608e-20 -0.0292136)
(0 -0 -0.0297595)
(0 -0 -0.0303741)
(0 -0 -0.0306321)
(0 -0 -0.0305418)
(0 -0 -0.030121)
(0 -0 -0.0293947)
(0 -0 -0.0283932)
(0 -0 -0.027151)
(0 -0 -0.0257055)
(0 -0 -0.024097)
(0 -0 -0.0223668)
(0 -0 -0.0205569)
(0 -0 -0.0187083)
(0 -0 -0.0168601)
(0 -0 -0.0150477)
(0 -0 -0.0133019)
(0 -0 -0.0116481)
(0 -0 -0.0101053)
(0 -0 -0.00868641)
(0 -0 -0.00739841)
(0 -0 -0.00624321)
(0 -0 -0.00521896)
(0 -1.95795e-20 -0.0200615)
(0 -0 -0.0205426)
(0 -0 -0.0211436)
(0 -0 -0.02149)
(0 -0 -0.0215798)
(0 -0 -0.0214203)
(0 -0 -0.0210259)
(0 -0 -0.0204156)
(0 -0 -0.0196129)
(0 -0 -0.0186443)
(0 -0 -0.0175392)
(0 -0 -0.0163288)
(0 -0 -0.0150455)
(0 -0 -0.0137213)
(0 -0 -0.0123871)
(0 -0 -0.0110712)
(0 -0 -0.00979844)
(0 -0 -0.00858906)
(0 -0 -0.00745838)
(0 -0 -0.00641669)
(0 -0 -0.00546958)
(0 -0 -0.00461866)
(0 -0 -0.0038627)
(0 -0 -0.013527)
(0 -0 -0.013902)
(0 -0 -0.0144283)
(0 -0 -0.0147797)
(0 -0 -0.0149487)
(0 -0 -0.0149358)
(0 -0 -0.014748)
(0 -0 -0.0143964)
(0 -0 -0.0138958)
(0 -0 -0.0132642)
(0 -0 -0.0125224)
(0 -0 -0.0116934)
(0 -0 -0.0108014)
(0 -0 -0.00987113)
(0 -0 -0.00892649)
(0 -0 -0.00798973)
(0 -0 -0.00708026)
(0 -0 -0.00621393)
(0 -0 -0.00540261)
(0 -0 -0.00465413)
(0 -0 -0.00397261)
(0 -0 -0.00335908)
(0 -0 -0.00281258)
(0 -0 -0.00897198)
(0 -0 -0.0092345)
(0 -0 -0.00966277)
(0 -0 -0.00997546)
(0 -0 -0.0101625)
(0 -0 -0.0102209)
(0 -0 -0.0101528)
(0 -0 -0.00996379)
(0 -0 -0.00966269)
(0 -0 -0.00926114)
(0 -0 -0.00877347)
(0 -0 -0.00821613)
(0 -0 -0.00760709)
(0 -0 -0.00696499)
(0 -0 -0.00630822)
(0 -0 -0.00565389)
(0 -0 -0.00501691)
(0 -0 -0.00440934)
(0 -0 -0.00383999)
(0 -0 -0.00331444)
(0 -0 -0.00283535)
(0 -0 -0.0024031)
(0 -0 -0.00201669)
(0 -1.05257e-22 -0.00586462)
(0 -0 -0.00602731)
(0 -0 -0.00635755)
(0 -0 -0.00661411)
(0 -0 -0.0067867)
(0 -0 -0.00687058)
(0 -0 -0.00686528)
(0 -0 -0.00677295)
(0 -0 -0.00659824)
(0 -0 -0.0063484)
(0 -0 -0.00603306)
(0 -0 -0.00566389)
(0 -0 -0.00525409)
(0 -0 -0.00481768)
(0 -0 -0.00436863)
(0 -0 -0.00391995)
(0 -0 -0.00348289)
(0 -0 -0.00306633)
(0 -0 -0.00267648)
(0 -0 -0.00231696)
(0 -0 -0.00198908)
(0 -0 -0.00169247)
(0 -0 -0.00142598)
(0 -5.9831e-21 -0.00378555)
(0 -0 -0.00386903)
(0 -0 -0.00411318)
(0 -0 -0.00431204)
(0 -0 -0.0044562)
(0 -0 -0.00454055)
(0 -0 -0.00456324)
(0 -0 -0.00452443)
(0 -0 -0.00442622)
(0 -0 -0.00427292)
(0 -0 -0.00407096)
(0 -0 -0.00382863)
(0 -0 -0.00355567)
(0 -0 -0.00326265)
(0 -0 -0.00296018)
(0 -0 -0.0026581)
(0 -0 -0.00236474)
(0 -0 -0.00208641)
(0 -0 -0.00182716)
(0 -0 -0.00158893)
(0 -0 -0.00137185)
(0 -0 -0.00117485)
(0 -0 -0.000996489)
(0 1.14143e-20 -0.00241831)
(0 -0 -0.00244429)
(0 -0 -0.0026188)
(0 -0 -0.00276649)
(0 -0 -0.00287926)
(0 -0 -0.00295229)
(0 -0 -0.00298324)
(0 -0 -0.00297122)
(0 -0 -0.00291689)
(0 -0 -0.00282273)
(0 -0 -0.00269309)
(0 -0 -0.002534)
(0 -0 -0.00235279)
(0 -0 -0.00215755)
(0 -0 -0.00195642)
(0 -0 -0.00175683)
(0 -0 -0.00156485)
(0 -0 -0.00138475)
(0 -0 -0.00121886)
(0 -0 -0.00106771)
(0 -0 -0.000930406)
(0 -0 -0.000805255)
(0 -0 -0.000690522)
(0 -5.43339e-21 -0.00153273)
(0 -0 -0.00152038)
(0 -0 -0.00164179)
(0 -0 -0.0017479)
(0 -0 -0.00183197)
(0 -0 -0.00188976)
(0 -0 -0.00191888)
(0 -0 -0.00191805)
(0 -0 -0.00188716)
(0 -0 -0.00182768)
(0 -0 -0.0017427)
(0 -0 -0.00163679)
(0 -0 -0.0015157)
(0 -0 -0.00138579)
(0 -0 -0.00125342)
(0 -0 -0.00112425)
(0 -0 -0.00100262)
(0 -0 -0.00089124)
(0 -0 -0.00079104)
(0 -0 -0.000701422)
(0 -0 -0.000620666)
(0 -0 -0.000546519)
(0 -0 -0.000476959)
(0 -0 -0.000966531)
(0 -0 -0.000931093)
(0 -0 -0.00101382)
(0 -0 -0.00108809)
(0 -0 -0.00114842)
(0 -0 -0.00119118)
(0 -0 -0.00121417)
(0 -0 -0.00121602)
(0 -0 -0.00119636)
(0 -0 -0.00115614)
(0 -0 -0.00109776)
(0 -0 -0.00102494)
(0 -0 -0.00094238)
(0 -0 -0.00085532)
(0 -0 -0.000768864)
(0 -0 -0.000687366)
(0 -0 -0.000613898)
(0 -0 -0.00054994)
(0 -0 -0.000495356)
(0 -0 -0.000448647)
(0 -0 -0.000407413)
(0 -0 -0.000368944)
(0 -0 -0.000330963)
(0 -6.66821e-23 -0.000608391)
(0 -0 -0.000561045)
(0 -0 -0.000616598)
(0 -0 -0.000667565)
(0 -0 -0.000709461)
(0 -0 -0.000739224)
(0 -0 -0.000754928)
(0 -0 -0.000755301)
(0 -0 -0.000739937)
(0 -0 -0.000709624)
(0 -0 -0.000666434)
(0 -0 -0.000613612)
(0 -0 -0.000555264)
(0 -0 -0.000495868)
(0 -0 -0.000439671)
(0 -0 -0.000390094)
(0 -0 -0.000349251)
(0 -0 -0.000317698)
(0 -0 -0.000294465)
(0 -0 -0.000277349)
(0 -0 -0.00026341)
(0 -0 -0.000249572)
(0 -0 -0.000233343)
(0 -0 -0.000383795)
(0 -0 -0.000332187)
(0 -0 -0.000369226)
(0 -0 -0.000403697)
(0 -0 -0.000431895)
(0 -0 -0.000451225)
(0 -0 -0.000460025)
(0 -0 -0.000457206)
(0 -0 -0.000442473)
(0 -0 -0.000416631)
(0 -0 -0.000381657)
(0 -0 -0.000340584)
(0 -0 -0.000297175)
(0 -0 -0.000255432)
(0 -0 -0.000219015)
(0 -0 -0.00019067)
(0 -0 -0.000171797)
(0 -0 -0.00016225)
(0 -0 -0.00016041)
(0 -0 -0.000163532)
(0 -0 -0.000168253)
(0 -0 -0.00017121)
(0 -0 -0.000169736)
(0 3.51256e-21 -0.000243931)
(0 -0 -0.000192975)
(0 -0 -0.000217724)
(0 -0 -0.000240826)
(0 -0 -0.000259159)
(0 -0 -0.00027049)
(0 -0 -0.000273388)
(0 -0 -0.000266971)
(0 -0 -0.00025112)
(0 -0 -0.000226756)
(0 -0 -0.000195899)
(0 -0 -0.000161522)
(0 -0 -0.000127212)
(0 -0 -9.66748e-05)
(0 -0 -7.31631e-05)
(0 -0 -5.89301e-05)
(0 -0 -5.48375e-05)
(0 -0 -6.01984e-05)
(0 -0 -7.28978e-05)
(0 -0 -8.97678e-05)
(0 -0 -0.000107125)
(0 -0 -0.000121381)
(0 -0 -0.000129722)
(0 -6.72198e-21 -0.000157507)
(0 -0 -0.000110061)
(0 -0 -0.000126893)
(0 -0 -0.000142331)
(0 -0 -0.000153727)
(0 -0 -0.000159113)
(0 -0 -0.000157251)
(0 -0 -0.000147459)
(0 -0 -0.000129819)
(0 -0 -0.000105419)
(0 -0 -7.63864e-05)
(0 -0 -4.57192e-05)
(0 -0 -1.69276e-05)
(0 -0 6.46893e-06)
(0 -0 2.15094e-05)
(0 -0 2.63098e-05)
(0 -0 2.04229e-05)
(0 -0 4.95439e-06)
(0 -0 -1.75958e-05)
(0 -0 -4.37385e-05)
(0 -0 -6.95494e-05)
(0 -0 -9.1265e-05)
(0 -0 -0.000106038)
(0 3.21062e-21 -0.000104872)
(0 -0 -6.2309e-05)
(0 -0 -7.39547e-05)
(0 -0 -8.45463e-05)
(0 -0 -9.11652e-05)
(0 -0 -9.22353e-05)
(0 -0 -8.66814e-05)
(0 -0 -7.4005e-05)
(0 -0 -5.44863e-05)
(0 -0 -2.93964e-05)
(0 -0 -9.98812e-07)
(0 -0 2.7645e-05)
(0 -0 5.30516e-05)
(0 -0 7.18276e-05)
(0 -0 8.12294e-05)
(0 -0 7.96607e-05)
(0 -0 6.70006e-05)
(0 -0 4.46832e-05)
(0 -0 1.55051e-05)
(0 -0 -1.68046e-05)
(0 -0 -4.81495e-05)
(0 -0 -7.46837e-05)
(0 -0 -9.34942e-05)
(0 -0 -7.30583e-05)
(0 -0 -3.66291e-05)
(0 -0 -4.50388e-05)
(0 -0 -5.19148e-05)
(0 -0 -5.56181e-05)
(0 -0 -5.36408e-05)
(0 -0 -4.53135e-05)
(0 -0 -3.03196e-05)
(0 -0 -9.12597e-06)
(0 -0 1.68217e-05)
(0 -0 4.51235e-05)
(0 -0 7.26447e-05)
(0 -0 9.59097e-05)
(0 -0 0.00011162)
(0 -0 0.000117206)
(0 -0 0.000111304)
(0 -0 9.40557e-05)
(0 -0 6.71522e-05)
(0 -0 3.36153e-05)
(0 -0 -2.65508e-06)
(0 -0 -3.74598e-05)
(0 -0 -6.69365e-05)
(0 -0 -8.81823e-05)
(0 -0 -2.38962e-05)
(0 -0 -3.06815e-05)
(0 -0 -3.55944e-05)
(0 -0 -3.66396e-05)
(0 -0 -3.26702e-05)
(0 -0 -2.2342e-05)
(0 -0 -5.59303e-06)
(0 -0 1.69372e-05)
(0 -0 4.36501e-05)
(0 -0 7.20277e-05)
(0 -0 9.88728e-05)
(0 -0 0.000120717)
(0 -0 0.000134345)
(0 -0 0.000137336)
(0 -0 0.000128518)
(0 -0 0.000108246)
(0 -0 7.84092e-05)
(0 -0 4.21932e-05)
(0 -0 3.60639e-06)
(0 -0 -3.31131e-05)
(0 -0 -6.41206e-05)
(0 -0 -8.66729e-05)
(-6.27742e-21 -2.39524e-20 -0.617917)
(5.3912e-20 -3.41625e-20 -0.537216)
(8.90589e-23 -2.87399e-20 -0.456847)
(5.64974e-20 6.50989e-21 -0.37669)