/*--------------------------------*- C++ -*----------------------------------*\
| =========                 |                                                 |
| \\      /  F ield         | OpenFOAM: The Open Source CFD Toolbox           |
|  \\    /   O peration     | Version:  2412                                  |
|   \\  /    A nd           | Website:  www.openfoam.com                      |
|    \\/     M anipulation  |                                                 |
\*---------------------------------------------------------------------------*/
FoamFile
{
    version     2.0;
    format      ascii;
    arch        "LSB;label=32;scalar=64";
    class       volVectorField;
    location    "28";
    object      vorticity;
}
// * * * * * * * * * * * * * * * * * * * * * * * * * * * * * * * * * * * * * //

dimensions      [0 0 -1 0 0 0 0];

internalField   nonuniform List<vector> 
5285
(
(0 -0 -4.71031e-05)
(0 -0 -6.40615e-05)
(0 -0 -7.98487e-05)
(0 -0 -9.41214e-05)
(0 -0 -0.000106561)
(0 -0 -0.000116771)
(0 -0 -0.000124463)
(0 -0 -0.000129475)
(0 -0 -0.000131742)
(0 -0 -0.000131298)
(0 -0 -0.000128283)
(0 -0 -0.000122931)
(0 -0 -0.000115563)
(0 -0 -0.000106565)
(0 -0 -9.63661e-05)
(0 -0 -8.5416e-05)
(0 -0 -7.41557e-05)
(0 -0 -6.29944e-05)
(0 -0 -5.2288e-05)
(0 -0 -4.23238e-05)
(0 -0 -3.33107e-05)
(0 -0 -2.53774e-05)
(0 -0 -1.8576e-05)
(0 -0 -1.28923e-05)
(0 -0 -8.25845e-06)
(0 -0 -4.56959e-06)
(0 -0 -1.69902e-06)
(0 -0 4.86826e-07)
(0 -0 2.1164e-06)
(0 -0 3.3041e-06)
(0 -0 4.14481e-06)
(0 -0 4.71183e-06)
(0 -0 5.05762e-06)
(0 -0 5.21636e-06)
(0 -0 5.20722e-06)
(0 -0 5.0369e-06)
(0 -0 4.70102e-06)
(0 -0 4.1841e-06)
(0 -0 3.45907e-06)
(0 -0 2.48783e-06)
(0 -0 1.22516e-06)
(0 -0 -3.79481e-07)
(0 -0 -2.29636e-06)
(0 -0 -4.93071e-06)
(0 -0 -4.89563e-05)
(0 -0 -6.5979e-05)
(0 -0 -8.15896e-05)
(0 -0 -9.5811e-05)
(0 -0 -0.000108189)
(0 -0 -0.000118367)
(0 -0 -0.000126051)
(0 -0 -0.000131077)
(0 -0 -0.000133373)
(0 -0 -0.00013297)
(0 -0 -0.000130001)
(0 -0 -0.000124693)
(0 -0 -0.00011736)
(0 -0 -0.000108382)
(0 -0 -9.81866e-05)
(0 -0 -8.72191e-05)
(0 -0 -7.59206e-05)
(0 -0 -6.47023e-05)
(0 -0 -5.39235e-05)
(0 -0 -4.38759e-05)
(0 -0 -3.47738e-05)
(0 -0 -2.67509e-05)
(0 -0 -1.9864e-05)
(0 -0 -1.41024e-05)
(0 -0 -9.40101e-06)
(0 -0 -5.65603e-06)
(0 -0 -2.74099e-06)
(0 -0 -5.2145e-07)
(0 -0 1.13257e-06)
(0 -0 2.3375e-06)
(0 -0 3.19077e-06)
(0 -0 3.76866e-06)
(0 -0 4.12715e-06)
(0 -0 4.30442e-06)
(0 -0 4.32426e-06)
(0 -0 4.19865e-06)
(0 -0 3.92881e-06)
(0 -0 3.50474e-06)
(0 -0 2.90409e-06)
(0 -0 2.09192e-06)
(0 -0 1.02399e-06)
(0 -0 -3.51936e-07)
(0 -0 -2.01102e-06)
(0 -0 -4.36133e-06)
(0 -0 -5.03021e-05)
(0 -0 -6.69343e-05)
(0 -0 -8.24294e-05)
(0 -0 -9.63948e-05)
(0 -0 -0.000108582)
(0 -0 -0.000118628)
(0 -0 -0.000126235)
(0 -0 -0.000131236)
(0 -0 -0.000133555)
(0 -0 -0.000133216)
(0 -0 -0.000130341)
(0 -0 -0.00012515)
(0 -0 -0.000117944)
(0 -0 -0.000109095)
(0 -0 -9.90188e-05)
(0 -0 -8.81548e-05)
(0 -0 -7.69392e-05)
(0 -0 -6.57806e-05)
(0 -0 -5.50385e-05)
(0 -0 -4.50067e-05)
(0 -0 -3.59031e-05)
(0 -0 -2.78659e-05)
(0 -0 -2.09568e-05)
(0 -0 -1.51691e-05)
(0 -0 -1.04416e-05)
(0 -0 -6.67304e-06)
(0 -0 -3.73845e-06)
(0 -0 -1.50415e-06)
(0 -0 1.60115e-07)
(0 -0 1.37168e-06)
(0 -0 2.22951e-06)
(0 -0 2.81205e-06)
(0 -0 3.17806e-06)
(0 -0 3.36929e-06)
(0 -0 3.41385e-06)
(0 -0 3.32873e-06)
(0 -0 3.12069e-06)
(0 -0 2.78521e-06)
(0 -0 2.30466e-06)
(0 -0 1.64736e-06)
(0 -0 7.70188e-07)
(0 -0 -3.80712e-07)
(0 -0 -1.78485e-06)
(0 -0 -3.85543e-06)
(0 -0 -5.06078e-05)
(0 -0 -6.69301e-05)
(0 -0 -8.20214e-05)
(0 -0 -9.56299e-05)
(0 -0 -0.000107531)
(0 -0 -0.00011737)
(0 -0 -0.000124849)
(0 -0 -0.000129801)
(0 -0 -0.000132147)
(0 -0 -0.000131903)
(0 -0 -0.000129181)
(0 -0 -0.000124187)
(0 -0 -0.000117208)
(0 -0 -0.0001086)
(0 -0 -9.87654e-05)
(0 -0 -8.81312e-05)
(0 -0 -7.71242e-05)
(0 -0 -6.61466e-05)
(0 -0 -5.55545e-05)
(0 -0 -4.56418e-05)
(0 -0 -3.66282e-05)
(0 -0 -2.86558e-05)
(0 -0 -2.1791e-05)
(0 -0 -1.60323e-05)
(0 -0 -1.13231e-05)
(0 -0 -7.56613e-06)
(0 -0 -4.63959e-06)
(0 -0 -2.41184e-06)
(0 -0 -7.53749e-07)
(0 -0 4.51781e-07)
(0 -0 1.30423e-06)
(0 -0 1.88329e-06)
(0 -0 2.24985e-06)
(0 -0 2.44869e-06)
(0 -0 2.51191e-06)
(0 -0 2.46137e-06)
(0 -0 2.30917e-06)
(0 -0 2.0562e-06)
(0 -0 1.68956e-06)
(0 -0 1.18088e-06)
(0 -0 4.88163e-07)
(0 -0 -4.44065e-07)
(0 -0 -1.59965e-06)
(0 -0 -3.40018e-06)
(0 -0 -5.00578e-05)
(0 -0 -6.58406e-05)
(0 -0 -8.0418e-05)
(0 -0 -9.3569e-05)
(0 -0 -0.000105097)
(0 -0 -0.000114657)
(0 -0 -0.00012196)
(0 -0 -0.00012684)
(0 -0 -0.000129216)
(0 -0 -0.000129096)
(0 -0 -0.00012658)
(0 -0 -0.000121857)
(0 -0 -0.000115197)
(0 -0 -0.000106936)
(0 -0 -9.74577e-05)
(0 -0 -8.71723e-05)
(0 -0 -7.64926e-05)
(0 -0 -6.58105e-05)
(0 -0 -5.54759e-05)
(0 -0 -4.57799e-05)
(0 -0 -3.6943e-05)
(0 -0 -2.91104e-05)
(0 -0 -2.23531e-05)
(0 -0 -1.66757e-05)
(0 -0 -1.20269e-05)
(0 -0 -8.31498e-06)
(0 -0 -5.42259e-06)
(0 -0 -3.22142e-06)
(0 -0 -1.58488e-06)
(0 -0 -3.97339e-07)
(0 -0 4.40165e-07)
(0 -0 1.00784e-06)
(0 -0 1.36805e-06)
(0 -0 1.56814e-06)
(0 -0 1.64385e-06)
(0 -0 1.62165e-06)
(0 -0 1.51889e-06)
(0 -0 1.34181e-06)
(0 -0 1.08221e-06)
(0 -0 7.14957e-07)
(0 -0 1.9908e-07)
(0 -0 -5.22457e-07)
(0 -0 -1.43779e-06)
(0 -0 -2.97753e-06)
(0 -0 -4.86175e-05)
(0 -0 -6.37362e-05)
(0 -0 -7.76914e-05)
(0 -0 -9.02919e-05)
(0 -0 -0.000101369)
(0 -0 -0.000110592)
(0 -0 -0.000117678)
(0 -0 -0.000122469)
(0 -0 -0.000124881)
(0 -0 -0.000124913)
(0 -0 -0.000122653)
(0 -0 -0.000118271)
(0 -0 -0.000112015)
(0 -0 -0.000104198)
(0 -0 -9.51804e-05)
(0 -0 -8.53523e-05)
(0 -0 -7.51081e-05)
(0 -0 -6.48259e-05)
(0 -0 -5.48463e-05)
(0 -0 -4.54556e-05)
(0 -0 -3.68738e-05)
(0 -0 -2.92484e-05)
(0 -0 -2.26556e-05)
(0 -0 -1.71058e-05)
(0 -0 -1.25548e-05)
(0 -0 -8.91717e-06)
(0 -0 -6.08138e-06)
(0 -0 -3.92392e-06)
(0 -0 -2.32194e-06)
(0 -0 -1.16237e-06)
(0 -0 -3.47682e-07)
(0 -0 2.02045e-07)
(0 -0 5.50036e-07)
(0 -0 7.45792e-07)
(0 -0 8.28378e-07)
(0 -0 8.28598e-07)
(0 -0 7.6896e-07)
(0 -0 6.61006e-07)
(0 -0 5.0116e-07)
(0 -0 2.67444e-07)
(0 -0 -8.00937e-08)
(0 -0 -6.00206e-07)
(0 -0 -1.28533e-06)
(0 -0 -2.57498e-06)
(0 -0 -4.61807e-05)
(0 -0 -6.0546e-05)
(0 -0 -7.3799e-05)
(0 -0 -8.57807e-05)
(0 -0 -9.63527e-05)
(0 -0 -0.0001052)
(0 -0 -0.00011205)
(0 -0 -0.000116749)
(0 -0 -0.000119213)
(0 -0 -0.000119434)
(0 -0 -0.000117483)
(0 -0 -0.000113512)
(0 -0 -0.000107742)
(0 -0 -0.000100461)
(0 -0 -9.20028e-05)
(0 -0 -8.27327e-05)
(0 -0 -7.30236e-05)
(0 -0 -6.3237e-05)
(0 -0 -5.37016e-05)
(0 -0 -4.46971e-05)
(0 -0 -3.64415e-05)
(0 -0 -2.90847e-05)
(0 -0 -2.27075e-05)
(0 -0 -1.73273e-05)
(0 -0 -1.29074e-05)
(0 -0 -9.37008e-06)
(0 -0 -6.61077e-06)
(0 -0 -4.51212e-06)
(0 -0 -2.95605e-06)
(0 -0 -1.83307e-06)
(0 -0 -1.04798e-06)
(0 -0 -5.21968e-07)
(0 -0 -1.91435e-07)
(0 -0 -5.14921e-09)
(0 -0 7.89711e-08)
(0 -0 9.59374e-08)
(0 -0 7.32816e-08)
(0 -0 2.76858e-08)
(0 -0 -3.98559e-08)
(0 -0 -1.48255e-07)
(0 -0 -3.36619e-07)
(0 -0 -6.65481e-07)
(0 -0 -1.13161e-06)
(0 -0 -2.18327e-06)
(0 -0 -4.25466e-05)
(0 -0 -5.61164e-05)
(0 -0 -6.86286e-05)
(0 -0 -7.99605e-05)
(0 -0 -9.00068e-05)
(0 -0 -9.84695e-05)
(0 -0 -0.000105087)
(0 -0 -0.000109712)
(0 -0 -0.000112262)
(0 -0 -0.000112718)
(0 -0 -0.000111138)
(0 -0 -0.000107648)
(0 -0 -0.000102447)
(0 -0 -9.579e-05)
(0 -0 -8.79839e-05)
(0 -0 -7.93649e-05)
(0 -0 -7.02824e-05)
(0 -0 -6.10783e-05)
(0 -0 -5.20678e-05)
(0 -0 -4.35224e-05)
(0 -0 -3.56573e-05)
(0 -0 -2.8624e-05)
(0 -0 -2.25085e-05)
(0 -0 -1.73356e-05)
(0 -0 -1.3077e-05)
(0 -0 -9.66363e-06)
(0 -0 -6.99901e-06)
(0 -0 -4.97296e-06)
(0 -0 -3.47333e-06)
(0 -0 -2.39516e-06)
(0 -0 -1.64639e-06)
(0 -0 -1.14989e-06)
(0 -0 -8.42233e-07)
(0 -0 -6.70911e-07)
(0 -0 -5.91036e-07)
(0 -0 -5.63474e-07)
(0 -0 -5.55777e-07)
(0 -0 -5.46254e-07)
(0 -0 -5.295e-07)
(0 -0 -5.21496e-07)
(0 -0 -5.60678e-07)
(0 -0 -7.09484e-07)
(0 -0 -9.69083e-07)
(0 -0 -1.79625e-06)
(0 -0 -3.74351e-05)
(0 -0 -5.0224e-05)
(0 -0 -6.201e-05)
(0 -0 -7.27095e-05)
(0 -0 -8.22529e-05)
(0 -0 -9.03601e-05)
(0 -0 -9.67814e-05)
(0 -0 -0.000101379)
(0 -0 -0.000104068)
(0 -0 -0.000104824)
(0 -0 -0.000103684)
(0 -0 -0.000100754)
(0 -0 -9.62033e-05)
(0 -0 -9.02574e-05)
(0 -0 -8.31902e-05)
(0 -0 -7.53085e-05)
(0 -0 -6.69356e-05)
(0 -0 -5.83923e-05)
(0 -0 -4.99785e-05)
(0 -0 -4.19567e-05)
(0 -0 -3.45386e-05)
(0 -0 -2.78774e-05)
(0 -0 -2.20644e-05)
(0 -0 -1.71321e-05)
(0 -0 -1.30616e-05)
(0 -0 -9.79312e-06)
(0 -0 -7.23952e-06)
(0 -0 -5.29865e-06)
(0 -0 -3.86523e-06)
(0 -0 -2.83969e-06)
(0 -0 -2.13384e-06)
(0 -0 -1.67273e-06)
(0 -0 -1.39362e-06)
(0 -0 -1.24304e-06)
(0 -0 -1.17349e-06)
(0 -0 -1.14185e-06)
(0 -0 -1.11088e-06)
(0 -0 -1.05395e-06)
(0 -0 -9.61415e-07)
(0 -0 -8.46511e-07)
(0 -0 -7.47094e-07)
(0 -0 -7.27702e-07)
(0 -0 -7.94112e-07)
(0 -0 -1.4113e-06)
(0 -0 -3.04618e-05)
(0 -0 -4.25529e-05)
(0 -0 -5.36923e-05)
(0 -0 -6.38367e-05)
(0 -0 -7.29541e-05)
(0 -0 -8.07837e-05)
(0 -0 -8.70882e-05)
(0 -0 -9.17387e-05)
(0 -0 -9.46503e-05)
(0 -0 -9.57888e-05)
(0 -0 -9.51764e-05)
(0 -0 -9.28941e-05)
(0 -0 -8.90815e-05)
(0 -0 -8.39326e-05)
(0 -0 -7.76884e-05)
(0 -0 -7.06247e-05)
(0 -0 -6.30373e-05)
(0 -0 -5.52249e-05)
(0 -0 -4.74715e-05)
(0 -0 -4.00298e-05)
(0 -0 -3.31082e-05)
(0 -0 -2.68612e-05)
(0 -0 -2.13859e-05)
(0 -0 -1.67232e-05)
(0 -0 -1.28639e-05)
(0 -0 -9.75885e-06)
(0 -0 -7.33076e-06)
(0 -0 -5.48647e-06)
(0 -0 -4.12833e-06)
(0 -0 -3.16288e-06)
(0 -0 -2.50644e-06)
(0 -0 -2.08679e-06)
(0 -0 -1.84225e-06)
(0 -0 -1.71855e-06)
(0 -0 -1.66575e-06)
(0 -0 -1.63687e-06)
(0 -0 -1.59008e-06)
(0 -0 -1.49386e-06)
(0 -0 -1.33435e-06)
(0 -0 -1.12228e-06)
(0 -0 -8.95236e-07)
(0 -0 -7.19961e-07)
(0 -0 -6.06999e-07)
(0 -0 -1.0293e-06)
(0 -0 -2.11084e-05)
(0 -0 -3.26668e-05)
(0 -0 -4.33166e-05)
(0 -0 -5.30561e-05)
(0 -0 -6.18914e-05)
(0 -0 -6.95811e-05)
(0 -0 -7.59005e-05)
(0 -0 -8.07295e-05)
(0 -0 -8.39835e-05)
(0 -0 -8.56198e-05)
(0 -0 -8.56436e-05)
(0 -0 -8.41118e-05)
(0 -0 -8.11348e-05)
(0 -0 -7.68741e-05)
(0 -0 -7.15376e-05)
(0 -0 -6.53697e-05)
(0 -0 -5.86389e-05)
(0 -0 -5.16213e-05)
(0 -0 -4.4585e-05)
(0 -0 -3.77732e-05)
(0 -0 -3.13908e-05)
(0 -0 -2.55944e-05)
(0 -0 -2.04871e-05)
(0 -0 -1.61189e-05)
(0 -0 -1.24911e-05)
(0 -0 -9.56573e-06)
(0 -0 -7.27604e-06)
(0 -0 -5.53868e-06)
(0 -0 -4.26427e-06)
(0 -0 -3.36614e-06)
(0 -0 -2.7656e-06)
(0 -0 -2.39364e-06)
(0 -0 -2.18992e-06)
(0 -0 -2.09961e-06)
(0 -0 -2.07039e-06)
(0 -0 -2.05161e-06)
(0 -0 -1.99675e-06)
(0 -0 -1.86948e-06)
(0 -0 -1.65199e-06)
(0 -0 -1.3526e-06)
(0 -0 -1.0089e-06)
(0 -0 -6.90152e-07)
(0 -0 -4.11762e-07)
(0 -0 -6.54232e-07)
(0 -0 -8.68716e-06)
(0 -0 -1.99754e-05)
(0 -0 -3.03861e-05)
(0 -0 -3.99584e-05)
(0 -0 -4.87366e-05)
(0 -0 -5.64978e-05)
(0 -0 -6.3029e-05)
(0 -0 -6.82192e-05)
(0 -0 -7.19839e-05)
(0 -0 -7.4272e-05)
(0 -0 -7.50722e-05)
(0 -0 -7.44177e-05)
(0 -0 -7.239e-05)
(0 -0 -6.91192e-05)
(0 -0 -6.47806e-05)
(0 -0 -5.95882e-05)
(0 -0 -5.37833e-05)
(0 -0 -4.76211e-05)
(0 -0 -4.13541e-05)
(0 -0 -3.52169e-05)
(0 -0 -2.94117e-05)
(0 -0 -2.40977e-05)
(0 -0 -1.93848e-05)
(0 -0 -1.53327e-05)
(0 -0 -1.19541e-05)
(0 -0 -9.2226e-06)
(0 -0 -7.08287e-06)
(0 -0 -5.46186e-06)
(0 -0 -4.2792e-06)
(0 -0 -3.45549e-06)
(0 -0 -2.91745e-06)
(0 -0 -2.59965e-06)
(0 -0 -2.44333e-06)
(0 -0 -2.39324e-06)
(0 -0 -2.39484e-06)
(0 -0 -2.39374e-06)
(0 -0 -2.3388e-06)
(0 -0 -2.1889e-06)
(0 -0 -1.9224e-06)
(0 -0 -1.54549e-06)
(0 -0 -1.09598e-06)
(0 -0 -6.45873e-07)
(0 -0 -2.15611e-07)
(0 -0 -2.92936e-07)
(0 -0 7.70069e-06)
(0 -0 -3.69753e-06)
(0 -0 -1.42312e-05)
(0 -0 -2.39793e-05)
(0 -0 -3.30233e-05)
(0 -0 -4.1157e-05)
(0 -0 -4.81779e-05)
(0 -0 -5.39832e-05)
(0 -0 -5.84883e-05)
(0 -0 -6.16339e-05)
(0 -0 -6.33927e-05)
(0 -0 -6.37755e-05)
(0 -0 -6.28362e-05)
(0 -0 -6.06748e-05)
(0 -0 -5.74363e-05)
(0 -0 -5.33059e-05)
(0 -0 -4.85002e-05)
(0 -0 -4.32544e-05)
(0 -0 -3.78078e-05)
(0 -0 -3.23874e-05)
(0 -0 -2.71944e-05)
(0 -0 -2.23916e-05)
(0 -0 -1.80968e-05)
(0 -0 -1.43801e-05)
(0 -0 -1.12663e-05)
(0 -0 -8.74141e-06)
(0 -0 -6.76218e-06)
(0 -0 -5.2664e-06)
(0 -0 -4.18319e-06)
(0 -0 -3.44088e-06)
(0 -0 -2.97206e-06)
(0 -0 -2.7152e-06)
(0 -0 -2.61325e-06)
(0 -0 -2.61064e-06)
(0 -0 -2.65063e-06)
(0 -0 -2.67506e-06)
(0 -0 -2.62813e-06)
(0 -0 -2.46409e-06)
(0 -0 -2.15745e-06)
(0 -0 -1.71256e-06)
(0 -0 -1.16768e-06)
(0 -0 -5.97717e-07)
(0 -0 -2.84072e-08)
(0 -0 4.5491e-08)
(0 -0 2.92097e-05)
(0 -0 1.71813e-05)
(0 -0 6.02827e-06)
(0 -0 -4.3656e-06)
(0 -0 -1.41169e-05)
(0 -0 -2.30334e-05)
(0 -0 -3.09211e-05)
(0 -0 -3.76837e-05)
(0 -0 -4.32362e-05)
(0 -0 -4.75111e-05)
(0 -0 -5.04661e-05)
(0 -0 -5.2091e-05)
(0 -0 -5.24147e-05)
(0 -0 -5.15096e-05)
(0 -0 -4.94933e-05)
(0 -0 -4.65255e-05)
(0 -0 -4.28009e-05)
(0 -0 -3.85382e-05)
(0 -0 -3.39655e-05)
(0 -0 -2.93052e-05)
(0 -0 -2.47589e-05)
(0 -0 -2.04952e-05)
(0 -0 -1.66408e-05)
(0 -0 -1.32776e-05)
(0 -0 -1.04431e-05)
(0 -0 -8.13677e-06)
(0 -0 -6.32789e-06)
(0 -0 -4.96577e-06)
(0 -0 -3.98952e-06)
(0 -0 -3.33562e-06)
(0 -0 -2.94287e-06)
(0 -0 -2.75391e-06)
(0 -0 -2.71362e-06)
(0 -0 -2.76614e-06)
(0 -0 -2.85247e-06)
(0 -0 -2.91064e-06)
(0 -0 -2.88004e-06)
(0 -0 -2.71024e-06)
(0 -0 -2.37213e-06)
(0 -0 -1.86831e-06)
(0 -0 -1.23773e-06)
(0 -0 -5.5847e-07)
(0 -0 1.3805e-07)
(0 -0 3.50477e-07)
(0 -0 5.73014e-05)
(0 -0 4.39541e-05)
(0 -0 3.15239e-05)
(0 -0 1.98608e-05)
(0 -0 8.81672e-06)
(0 -0 -1.42645e-06)
(0 -0 -1.06794e-05)
(0 -0 -1.88507e-05)
(0 -0 -2.58536e-05)
(0 -0 -3.16128e-05)
(0 -0 -3.60722e-05)
(0 -0 -3.9203e-05)
(0 -0 -4.10119e-05)
(0 -0 -4.15479e-05)
(0 -0 -4.09051e-05)
(0 -0 -3.92222e-05)
(0 -0 -3.66765e-05)
(0 -0 -3.34742e-05)
(0 -0 -2.98364e-05)
(0 -0 -2.59837e-05)
(0 -0 -2.21214e-05)
(0 -0 -1.84256e-05)
(0 -0 -1.50344e-05)
(0 -0 -1.20425e-05)
(0 -0 -9.50162e-06)
(0 -0 -7.42527e-06)
(0 -0 -5.79616e-06)
(0 -0 -4.57583e-06)
(0 -0 -3.71386e-06)
(0 -0 -3.15536e-06)
(0 -0 -2.84572e-06)
(0 -0 -2.73192e-06)
(0 -0 -2.7609e-06)
(0 -0 -2.87659e-06)
(0 -0 -3.01759e-06)
(0 -0 -3.11791e-06)
(0 -0 -3.11207e-06)
(0 -0 -2.94484e-06)
(0 -0 -2.58357e-06)
(0 -0 -2.02917e-06)
(0 -0 -1.32158e-06)
(0 -0 -5.42401e-07)
(0 -0 2.70924e-07)
(0 -0 6.10827e-07)
(0 -0 9.38007e-05)
(0 -0 7.82427e-05)
(0 -0 6.36812e-05)
(0 -0 4.99389e-05)
(0 -0 3.68411e-05)
(0 -0 2.45652e-05)
(0 -0 1.33e-05)
(0 -0 3.13535e-06)
(0 -0 -5.83933e-06)
(0 -0 -1.3541e-05)
(0 -0 -1.99014e-05)
(0 -0 -2.4876e-05)
(0 -0 -2.84538e-05)
(0 -0 -3.06651e-05)
(0 -0 -3.15865e-05)
(0 -0 -3.13414e-05)
(0 -0 -3.00956e-05)
(0 -0 -2.80482e-05)
(0 -0 -2.54182e-05)
(0 -0 -2.24291e-05)
(0 -0 -1.92934e-05)
(0 -0 -1.61981e-05)
(0 -0 -1.32947e-05)
(0 -0 -1.06929e-05)
(0 -0 -8.46019e-06)
(0 -0 -6.62523e-06)
(0 -0 -5.18516e-06)
(0 -0 -4.11441e-06)
(0 -0 -3.37378e-06)
(0 -0 -2.91752e-06)
(0 -0 -2.69805e-06)
(0 -0 -2.66692e-06)
(0 -0 -2.7732e-06)
(0 -0 -2.96044e-06)
(0 -0 -3.16478e-06)
(0 -0 -3.31595e-06)
(0 -0 -3.34341e-06)
(0 -0 -3.18696e-06)
(0 -0 -2.81025e-06)
(0 -0 -2.21276e-06)
(0 -0 -1.43567e-06)
(0 -0 -5.64444e-07)
(0 -0 3.57048e-07)
(0 -0 8.15518e-07)
(0 -0 0.000140961)
(0 -0 0.000122056)
(0 -0 0.000104268)
(0 -0 8.74071e-05)
(0 -0 7.12807e-05)
(0 -0 5.60682e-05)
(0 -0 4.1964e-05)
(0 -0 2.90593e-05)
(0 -0 1.74481e-05)
(0 -0 7.22055e-06)
(0 -0 -1.54517e-06)
(0 -0 -8.79312e-06)
(0 -0 -1.44998e-05)
(0 -0 -1.86836e-05)
(0 -0 -2.14105e-05)
(0 -0 -2.27962e-05)
(0 -0 -2.30023e-05)
(0 -0 -2.22279e-05)
(0 -0 -2.06963e-05)
(0 -0 -1.86395e-05)
(0 -0 -1.6282e-05)
(0 -0 -1.38255e-05)
(0 -0 -1.14382e-05)
(0 -0 -9.24745e-06)
(0 -0 -7.33836e-06)
(0 -0 -5.75642e-06)
(0 -0 -4.51449e-06)
(0 -0 -3.60084e-06)
(0 -0 -2.98829e-06)
(0 -0 -2.64094e-06)
(0 -0 -2.51864e-06)
(0 -0 -2.57778e-06)
(0 -0 -2.76962e-06)
(0 -0 -3.03724e-06)
(0 -0 -3.31403e-06)
(0 -0 -3.5252e-06)
(0 -0 -3.59461e-06)
(0 -0 -3.45688e-06)
(0 -0 -3.07184e-06)
(0 -0 -2.43767e-06)
(0 -0 -1.59712e-06)
(0 -0 -6.39846e-07)
(0 -0 3.83266e-07)
(0 -0 9.54113e-07)
(0 -0 0.000200936)
(0 -0 0.000177323)
(0 -0 0.000154919)
(0 -0 0.000133634)
(0 -0 0.000113262)
(0 -0 9.39898e-05)
(0 -0 7.60247e-05)
(0 -0 5.94627e-05)
(0 -0 4.4403e-05)
(0 -0 3.09416e-05)
(0 -0 1.91627e-05)
(0 -0 9.12826e-06)
(0 -0 8.66762e-07)
(0 -0 -5.63638e-06)
(0 -0 -1.04459e-05)
(0 -0 -1.36789e-05)
(0 -0 -1.55023e-05)
(0 -0 -1.61238e-05)
(0 -0 -1.57795e-05)
(0 -0 -1.47166e-05)
(0 -0 -1.31779e-05)
(0 -0 -1.13852e-05)
(0 -0 -9.52736e-06)
(0 -0 -7.75286e-06)
(0 -0 -6.16697e-06)
(0 -0 -4.83426e-06)
(0 -0 -3.7849e-06)
(0 -0 -3.02246e-06)
(0 -0 -2.53276e-06)
(0 -0 -2.29044e-06)
(0 -0 -2.26327e-06)
(0 -0 -2.41268e-06)
(0 -0 -2.69214e-06)
(0 -0 -3.04406e-06)
(0 -0 -3.39846e-06)
(0 -0 -3.67545e-06)
(0 -0 -3.79277e-06)
(0 -0 -3.67927e-06)
(0 -0 -3.29091e-06)
(0 -0 -2.62445e-06)
(0 -0 -1.72444e-06)
(0 -0 -6.85204e-07)
(0 -0 4.34598e-07)
(0 -0 1.11415e-06)
(0 -0 0.00027445)
(0 -0 0.000244243)
(0 -0 0.000215798)
(0 -0 0.00018858)
(0 -0 0.000162591)
(0 -0 0.000138012)
(0 -0 0.000115064)
(0 -0 9.38506e-05)
(0 -0 7.44761e-05)
(0 -0 5.70383e-05)
(0 -0 4.16214e-05)
(0 -0 2.82854e-05)
(0 -0 1.70547e-05)
(0 -0 7.9078e-06)
(0 -0 7.70204e-07)
(0 -0 -4.4884e-06)
(0 -0 -8.05118e-06)
(0 -0 -1.01453e-05)
(0 -0 -1.10288e-05)
(0 -0 -1.09731e-05)
(0 -0 -1.02465e-05)
(0 -0 -9.09685e-06)
(0 -0 -7.7389e-06)
(0 -0 -6.34602e-06)
(0 -0 -5.04683e-06)
(0 -0 -3.92735e-06)
(0 -0 -3.03682e-06)
(0 -0 -2.39541e-06)
(0 -0 -2.00288e-06)
(0 -0 -1.84509e-06)
(0 -0 -1.8978e-06)
(0 -0 -2.12749e-06)
(0 -0 -2.48938e-06)
(0 -0 -2.92449e-06)
(0 -0 -3.35848e-06)
(0 -0 -3.70528e-06)
(0 -0 -3.87564e-06)
(0 -0 -3.79166e-06)
(0 -0 -3.40502e-06)
(0 -0 -2.71066e-06)
(0 -0 -1.75523e-06)
(0 -0 -6.38027e-07)
(0 -0 5.73854e-07)
(0 -0 1.35706e-06)
(0 -0 0.000361664)
(0 -0 0.000323127)
(0 -0 0.000286505)
(0 -0 0.000251874)
(0 -0 0.000218811)
(0 -0 0.00018762)
(0 -0 0.000158528)
(0 -0 0.000131645)
(0 -0 0.000107076)
(0 -0 8.49166e-05)
(0 -0 6.5243e-05)
(0 -0 4.81047e-05)
(0 -0 3.35113e-05)
(0 -0 2.14228e-05)
(0 -0 1.17424e-05)
(0 -0 4.31424e-06)
(0 -0 -1.0733e-06)
(0 -0 -4.67839e-06)
(0 -0 -6.79146e-06)
(0 -0 -7.7179e-06)
(0 -0 -7.75918e-06)
(0 -0 -7.1962e-06)
(0 -0 -6.27507e-06)
(0 -0 -5.19818e-06)
(0 -0 -4.12106e-06)
(0 -0 -3.15393e-06)
(0 -0 -2.36667e-06)
(0 -0 -1.79777e-06)
(0 -0 -1.46121e-06)
(0 -0 -1.35476e-06)
(0 -0 -1.46216e-06)
(0 -0 -1.75468e-06)
(0 -0 -2.18821e-06)
(0 -0 -2.70178e-06)
(0 -0 -3.21512e-06)
(0 -0 -3.63405e-06)
(0 -0 -3.86105e-06)
(0 -0 -3.81067e-06)
(0 -0 -3.42907e-06)
(0 -0 -2.7092e-06)
(0 -0 -1.69962e-06)
(0 -0 -5.05426e-07)
(0 -0 7.96929e-07)
(0 -0 1.68164e-06)
(0 -0 4.1041e-05)
(0 -0 4.7391e-05)
(0 -0 5.4175e-05)
(0 -0 6.25752e-05)
(0 -0 7.18792e-05)
(0 -0 8.14361e-05)
(0 -0 9.10164e-05)
(0 -0 0.000100341)
(0 -0 0.000109094)
(0 -0 0.000116938)
(0 -0 0.000123522)
(0 -0 0.000128503)
(0 -0 0.000131561)
(0 -0 0.000132414)
(0 -0 0.000130838)
(0 -0 0.000126682)
(0 -0 0.000119877)
(0 -0 0.000110444)
(0 -0 9.85003e-05)
(0 -0 8.42556e-05)
(0 -0 6.80063e-05)
(0 -0 5.01248e-05)
(0 -0 3.10441e-05)
(0 -0 1.12447e-05)
(0 -0 -8.78151e-06)
(0 -0 -2.84296e-05)
(0 -0 3.90362e-05)
(0 -0 4.5287e-05)
(0 -0 5.20473e-05)
(0 -0 6.03268e-05)
(0 -0 6.95634e-05)
(0 -0 7.90626e-05)
(0 -0 8.85879e-05)
(0 -0 9.78578e-05)
(0 -0 0.000106557)
(0 -0 0.000114345)
(0 -0 0.000120876)
(0 -0 0.000125808)
(0 -0 0.000128821)
(0 -0 0.000129639)
(0 -0 0.00012804)
(0 -0 0.000123875)
(0 -0 0.000117079)
(0 -0 0.000107674)
(0 -0 9.57782e-05)
(0 -0 8.16018e-05)
(0 -0 6.54393e-05)
(0 -0 4.76601e-05)
(0 -0 2.86929e-05)
(0 -0 9.00706e-06)
(0 -0 -1.08809e-05)
(0 -0 -3.05007e-05)
(0 -0 3.70528e-05)
(0 -0 4.32674e-05)
(0 -0 4.97785e-05)
(0 -0 5.79092e-05)
(0 -0 6.70198e-05)
(0 -0 7.63845e-05)
(0 -0 8.57695e-05)
(0 -0 9.48959e-05)
(0 -0 0.000103451)
(0 -0 0.000111101)
(0 -0 0.000117502)
(0 -0 0.000122318)
(0 -0 0.000125237)
(0 -0 0.000125987)
(0 -0 0.000124355)
(0 -0 0.000120196)
(0 -0 0.000113448)
(0 -0 0.000104138)
(0 -0 9.23857e-05)
(0 -0 7.83978e-05)
(0 -0 6.24657e-05)
(0 -0 4.49527e-05)
(0 -0 2.62787e-05)
(0 -0 6.90226e-06)
(0 -0 -1.26933e-05)
(0 -0 -3.19586e-05)
(0 -0 3.54263e-05)
(0 -0 4.14209e-05)
(0 -0 4.77033e-05)
(0 -0 5.56475e-05)
(0 -0 6.4576e-05)
(0 -0 7.37397e-05)
(0 -0 8.29103e-05)
(0 -0 9.18144e-05)
(0 -0 0.000100146)
(0 -0 0.000107578)
(0 -0 0.000113776)
(0 -0 0.000118412)
(0 -0 0.000121186)
(0 -0 0.000121834)
(0 -0 0.000120153)
(0 -0 0.000116007)
(0 -0 0.00010934)
(0 -0 0.000100183)
(0 -0 8.86552e-05)
(0 -0 7.49627e-05)
(0 -0 5.93906e-05)
(0 -0 4.22926e-05)
(0 -0 2.40762e-05)
(0 -0 5.18441e-06)
(0 -0 -1.39175e-05)
(0 -0 -3.27326e-05)
(0 -0 3.42101e-05)
(0 -0 3.99808e-05)
(0 -0 4.59995e-05)
(0 -0 5.37065e-05)
(0 -0 6.23982e-05)
(0 -0 7.12998e-05)
(0 -0 8.01885e-05)
(0 -0 8.87979e-05)
(0 -0 9.68308e-05)
(0 -0 0.000103971)
(0 -0 0.000109894)
(0 -0 0.000114287)
(0 -0 0.000116861)
(0 -0 0.000117368)
(0 -0 0.000115615)
(0 -0 0.000111478)
(0 -0 0.00010491)
(0 -0 9.59475e-05)
(0 -0 8.47105e-05)
(0 -0 7.14018e-05)
(0 -0 5.62992e-05)
(0 -0 3.97444e-05)
(0 -0 2.21289e-05)
(0 -0 3.87611e-06)
(0 -0 -1.45716e-05)
(0 -0 -3.27442e-05)
(0 -0 3.36614e-05)
(0 -0 3.91945e-05)
(0 -0 4.49163e-05)
(0 -0 5.23479e-05)
(0 -0 6.07588e-05)
(0 -0 6.93467e-05)
(0 -0 7.78947e-05)
(0 -0 8.61449e-05)
(0 -0 9.38105e-05)
(0 -0 0.000100587)
(0 -0 0.000106167)
(0 -0 0.000110251)
(0 -0 0.000112567)
(0 -0 0.000112885)
(0 -0 0.000111026)
(0 -0 0.000106882)
(0 -0 0.000100414)
(0 -0 9.16667e-05)
(0 -0 8.07622e-05)
(0 -0 6.78999e-05)
(0 -0 5.33487e-05)
(0 -0 3.74363e-05)
(0 -0 2.05352e-05)
(0 -0 3.04558e-06)
(0 -0 -1.46168e-05)
(0 -0 -3.20099e-05)
(0 -0 3.42174e-05)
(0 -0 3.95161e-05)
(0 -0 4.49304e-05)
(0 -0 5.20686e-05)
(0 -0 6.01722e-05)
(0 -0 6.84097e-05)
(0 -0 7.65714e-05)
(0 -0 8.44083e-05)
(0 -0 9.16457e-05)
(0 -0 9.7994e-05)
(0 -0 0.000103162)
(0 -0 0.000106869)
(0 -0 0.000108863)
(0 -0 0.000108933)
(0 -0 0.000106921)
(0 -0 0.000102732)
(0 -0 9.63421e-05)
(0 -0 8.78038e-05)
(0 -0 7.72424e-05)
(0 -0 6.48543e-05)
(0 -0 5.0899e-05)
(0 -0 3.56886e-05)
(0 -0 1.95744e-05)
(0 -0 2.93075e-06)
(0 -0 -1.38562e-05)
(0 -0 -3.03748e-05)
(0 -0 3.65244e-05)
(0 -0 4.16182e-05)
(0 -0 4.67401e-05)
(0 -0 5.35904e-05)
(0 -0 6.1381e-05)
(0 -0 6.92495e-05)
(0 -0 7.69934e-05)
(0 -0 8.4374e-05)
(0 -0 9.11297e-05)
(0 -0 9.69872e-05)
(0 -0 0.000101674)
(0 -0 0.000104931)
(0 -0 0.000106529)
(0 -0 0.000106278)
(0 -0 0.000104042)
(0 -0 9.97453e-05)
(0 -0 9.33801e-05)
(0 -0 8.50082e-05)
(0 -0 7.47597e-05)
(0 -0 6.28287e-05)
(0 -0 4.94654e-05)
(0 -0 3.49659e-05)
(0 -0 1.96589e-05)
(0 -0 3.89095e-06)
(0 -0 -1.19835e-05)
(0 -0 -2.75853e-05)
(0 -0 4.14851e-05)
(0 -0 4.64348e-05)
(0 -0 5.13072e-05)
(0 -0 5.79004e-05)
(0 -0 6.5394e-05)
(0 -0 7.28923e-05)
(0 -0 8.02005e-05)
(0 -0 8.70905e-05)
(0 -0 9.3315e-05)
(0 -0 9.86184e-05)
(0 -0 0.000102749)
(0 -0 0.000105471)
(0 -0 0.00010658)
(0 -0 0.000105911)
(0 -0 0.000103351)
(0 -0 9.88484e-05)
(0 -0 9.2412e-05)
(0 -0 8.41162e-05)
(0 -0 7.40977e-05)
(0 -0 6.25496e-05)
(0 -0 4.97138e-05)
(0 -0 3.58706e-05)
(0 -0 2.1326e-05)
(0 -0 6.39771e-06)
(0 -0 -8.59279e-06)
(0 -0 -2.32998e-05)
(0 -0 5.03585e-05)
(0 -0 5.52598e-05)
(0 -0 5.99559e-05)
(0 -0 6.63483e-05)
(0 -0 7.35814e-05)
(0 -0 8.07234e-05)
(0 -0 8.75869e-05)
(0 -0 9.39553e-05)
(0 -0 9.95961e-05)
(0 -0 0.000104273)
(0 -0 0.000107756)
(0 -0 0.000109836)
(0 -0 0.000110334)
(0 -0 0.000109113)
(0 -0 0.000106088)
(0 -0 0.000101231)
(0 -0 9.45715e-05)
(0 -0 8.61994e-05)
(0 -0 7.62601e-05)
(0 -0 6.49481e-05)
(0 -0 5.24991e-05)
(0 -0 3.91787e-05)
(0 -0 2.52712e-05)
(0 -0 1.1066e-05)
(0 -0 -3.14856e-06)
(0 -0 -1.70609e-05)
(0 -0 6.48952e-05)
(0 -0 6.98816e-05)
(0 -0 7.45049e-05)
(0 -0 8.07759e-05)
(0 -0 8.7801e-05)
(0 -0 9.46088e-05)
(0 -0 0.00010102)
(0 -0 0.000106828)
(0 -0 0.000111818)
(0 -0 0.000115773)
(0 -0 0.000118488)
(0 -0 0.000119779)
(0 -0 0.000119499)
(0 -0 0.00011754)
(0 -0 0.000113847)
(0 -0 0.000108418)
(0 -0 0.000101308)
(0 -0 9.26245e-05)
(0 -0 8.25258e-05)
(0 -0 7.1211e-05)
(0 -0 5.89121e-05)
(0 -0 4.58835e-05)
(0 -0 3.23894e-05)
(0 -0 1.86924e-05)
(0 -0 5.04903e-06)
(0 -0 -8.26219e-06)
(0 -0 8.75188e-05)
(0 -0 9.27606e-05)
(0 -0 9.74411e-05)
(0 -0 0.000103687)
(0 -0 0.000110563)
(0 -0 0.000117054)
(0 -0 0.00012299)
(0 -0 0.000128177)
(0 -0 0.000132415)
(0 -0 0.00013551)
(0 -0 0.000137283)
(0 -0 0.000137579)
(0 -0 0.000136282)
(0 -0 0.00013332)
(0 -0 0.000128668)
(0 -0 0.000122356)
(0 -0 0.000114465)
(0 -0 0.000105127)
(0 -0 9.45161e-05)
(0 -0 8.28416e-05)
(0 -0 7.03366e-05)
(0 -0 5.72473e-05)
(0 -0 4.38219e-05)
(0 -0 3.02991e-05)
(0 -0 1.69058e-05)
(0 -0 3.88928e-06)
(0 -0 0.000121563)
(0 -0 0.000127262)
(0 -0 0.000132145)
(0 -0 0.000138464)
(0 -0 0.000145238)
(0 -0 0.000151408)
(0 -0 0.000156808)
(0 -0 0.000161261)
(0 -0 0.000164585)
(0 -0 0.000166608)
(0 -0 0.000167179)
(0 -0 0.000166179)
(0 -0 0.000163526)
(0 -0 0.000159182)
(0 -0 0.00015316)
(0 -0 0.000145521)
(0 -0 0.000136379)
(0 -0 0.000125897)
(0 -0 0.000114273)
(0 -0 0.000101732)
(0 -0 8.85138e-05)
(0 -0 7.48621e-05)
(0 -0 6.10133e-05)
(0 -0 4.71863e-05)
(0 -0 3.35813e-05)
(0 -0 2.04179e-05)
(0 -0 0.000171581)
(0 -0 0.000177951)
(0 -0 0.00018318)
(0 -0 0.000189648)
(0 -0 0.000196328)
(0 -0 0.00020211)
(0 -0 0.000206842)
(0 -0 0.000210358)
(0 -0 0.000212499)
(0 -0 0.000213121)
(0 -0 0.000212104)
(0 -0 0.000209366)
(0 -0 0.000204866)
(0 -0 0.000198605)
(0 -0 0.000190628)
(0 -0 0.000181035)
(0 -0 0.000169985)
(0 -0 0.000157679)
(0 -0 0.000144348)
(0 -0 0.000130244)
(0 -0 0.000115619)
(0 -0 0.000100719)
(0 -0 8.57758e-05)
(0 -0 7.0991e-05)
(0 -0 5.65436e-05)
(0 -0 4.26291e-05)
(0 -0 0.000243731)
(0 -0 0.000250972)
(0 -0 0.000256649)
(0 -0 0.00026328)
(0 -0 0.000269787)
(0 -0 0.00027501)
(0 -0 0.00027881)
(0 -0 0.00028104)
(0 -0 0.000281567)
(0 -0 0.000280279)
(0 -0 0.000277096)
(0 -0 0.000271977)
(0 -0 0.000264928)
(0 -0 0.000255994)
(0 -0 0.000245236)
(0 -0 0.000232809)
(0 -0 0.000218934)
(0 -0 0.000203872)
(0 -0 0.0001879)
(0 -0 0.000171301)
(0 -0 0.000154346)
(0 -0 0.000137291)
(0 -0 0.000120364)
(0 -0 0.000103756)
(0 -0 8.76311e-05)
(0 -0 7.21654e-05)
(0 -0 0.000346259)
(0 -0 0.000354508)
(0 -0 0.000360644)
(0 -0 0.000367328)
(0 -0 0.000373429)
(0 -0 0.000377738)
(0 -0 0.000380135)
(0 -0 0.000380501)
(0 -0 0.000378736)
(0 -0 0.000374769)
(0 -0 0.000368565)
(0 -0 0.000360138)
(0 -0 0.000349554)
(0 -0 0.000336899)
(0 -0 0.000322177)
(0 -0 0.000305669)
(0 -0 0.000287715)
(0 -0 0.000268651)
(0 -0 0.000248807)
(0 -0 0.000228497)
(0 -0 0.000208015)
(0 -0 0.000187627)
(0 -0 0.000167562)
(0 -0 0.000148011)
(0 -0 0.000129124)
(0 -0 0.000111069)
(0 -0 0.00048956)
(0 -0 0.00049876)
(0 -0 0.000505186)
(0 -0 0.000511578)
(0 -0 0.000516763)
(0 -0 0.000519495)
(0 -0 0.000519686)
(0 -0 0.000517259)
(0 -0 0.000512157)
(0 -0 0.000504361)
(0 -0 0.000493896)
(0 -0 0.000480842)
(0 -0 0.000465351)
(0 -0 0.000447591)
(0 -0 0.000427902)
(0 -0 0.000405487)
(0 -0 0.000381765)
(0 -0 0.000357089)
(0 -0 0.000331804)
(0 -0 0.00030624)
(0 -0 0.000280704)
(0 -0 0.000255476)
(0 -0 0.000230798)
(0 -0 0.000206864)
(0 -0 0.000183827)
(0 -0 0.000161853)
(0 -0 0.00068562)
(0 -0 0.000695362)
(0 -0 0.000701457)
(0 -0 0.000706745)
(0 -0 0.000710001)
(0 -0 0.00070997)
(0 -0 0.000706619)
(0 -0 0.000699922)
(0 -0 0.000689886)
(0 -0 0.000676556)
(0 -0 0.00066003)
(0 -0 0.00064048)
(0 -0 0.000618218)
(0 -0 0.00059371)
(0 -0 0.000566836)
(0 -0 0.000538574)
(0 -0 0.000506894)
(0 -0 0.000474643)
(0 -0 0.000441995)
(0 -0 0.000409254)
(0 -0 0.000376745)
(0 -0 0.000344777)
(0 -0 0.00031362)
(0 -0 0.00028349)
(0 -0 0.000254552)
(0 -0 0.000227006)
(0 -0 0.000950042)
(0 -0 0.000959466)
(0 -0 0.000963899)
(0 -0 0.000966547)
(0 -0 0.0009661)
(0 -0 0.000961368)
(0 -0 0.000952379)
(0 -0 0.000939179)
(0 -0 0.000921852)
(0 -0 0.000900529)
(0 -0 0.000875396)
(0 -0 0.000846739)
(0 -0 0.000814998)
(0 -0 0.000780934)
(0 -0 0.000745155)
(0 -0 0.000707139)
(0 -0 0.000667654)
(0 -0 0.000625684)
(0 -0 0.000583378)
(0 -0 0.000541084)
(0 -0 0.000499202)
(0 -0 0.000458117)
(0 -0 0.000418163)
(0 -0 0.000379604)
(0 -0 0.000342627)
(0 -0 0.000307444)
(0 -0 0.000973626)
(0 -0 0.000922254)
(0 -0 0.000869938)
(0 -0 0.000815776)
(0 -0 0.000760851)
(0 -0 0.000705886)
(0 -0 0.000651529)
(0 -0 0.000598315)
(0 -0 0.000546673)
(0 -0 0.000496927)
(0 -0 0.000449325)
(0 -0 0.000404035)
(0 -0 1.87052e-07)
(0 -0 1.95447e-07)
(0 -0 1.93597e-07)
(0 -0 1.93326e-07)
(0 -0 1.94953e-07)
(0 -0 1.96357e-07)
(0 -0 1.9728e-07)
(0 -0 1.97544e-07)
(0 -0 1.96974e-07)
(0 -0 1.95406e-07)
(0 -0 1.92716e-07)
(0 -0 1.88822e-07)
(0 -0 1.83686e-07)
(0 -0 1.77321e-07)
(0 -0 1.69798e-07)
(0 -0 1.61236e-07)
(0 -0 1.51803e-07)
(0 -0 1.41708e-07)
(0 -0 1.3119e-07)
(0 -0 1.20515e-07)
(0 -0 1.09958e-07)
(0 -0 9.97834e-08)
(0 -0 9.02504e-08)
(0 -0 8.15966e-08)
(0 -0 7.40315e-08)
(0 -0 6.7749e-08)
(0 -0 5.0938e-07)
(0 -0 5.24864e-07)
(0 -0 5.24011e-07)
(0 -0 5.24218e-07)
(0 -0 5.30327e-07)
(0 -0 5.3543e-07)
(0 -0 5.38967e-07)
(0 -0 5.40438e-07)
(0 -0 5.39369e-07)
(0 -0 5.35329e-07)
(0 -0 5.27978e-07)
(0 -0 5.17091e-07)
(0 -0 5.02571e-07)
(0 -0 4.84467e-07)
(0 -0 4.6298e-07)
(0 -0 4.3846e-07)
(0 -0 4.11393e-07)
(0 -0 3.82389e-07)
(0 -0 3.52144e-07)
(0 -0 3.21421e-07)
(0 -0 2.91011e-07)
(0 -0 2.61698e-07)
(0 -0 2.34225e-07)
(0 -0 2.09266e-07)
(0 -0 1.87426e-07)
(0 -0 1.69246e-07)
(0 -0 7.1667e-07)
(0 -0 7.32846e-07)
(0 -0 7.34933e-07)
(0 -0 7.35475e-07)
(0 -0 7.46168e-07)
(0 -0 7.55086e-07)
(0 -0 7.61476e-07)
(0 -0 7.64574e-07)
(0 -0 7.63657e-07)
(0 -0 7.58078e-07)
(0 -0 7.47315e-07)
(0 -0 7.3102e-07)
(0 -0 7.09044e-07)
(0 -0 6.81458e-07)
(0 -0 6.48573e-07)
(0 -0 6.10929e-07)
(0 -0 5.69281e-07)
(0 -0 5.24569e-07)
(0 -0 4.77886e-07)
(0 -0 4.30421e-07)
(0 -0 3.83407e-07)
(0 -0 3.38068e-07)
(0 -0 2.95568e-07)
(0 -0 2.56963e-07)
(0 -0 2.23185e-07)
(0 -0 1.95052e-07)
(0 -0 8.05068e-07)
(0 -0 8.24454e-07)
(0 -0 8.25675e-07)
(0 -0 8.24852e-07)
(0 -0 8.385e-07)
(0 -0 8.49999e-07)
(0 -0 8.58376e-07)
(0 -0 8.62653e-07)
(0 -0 8.61892e-07)
(0 -0 8.55252e-07)
(0 -0 8.42051e-07)
(0 -0 8.21827e-07)
(0 -0 7.94369e-07)
(0 -0 7.59755e-07)
(0 -0 7.18363e-07)
(0 -0 6.70868e-07)
(0 -0 6.18223e-07)
(0 -0 5.61626e-07)
(0 -0 5.02464e-07)
(0 -0 4.42261e-07)
(0 -0 3.82604e-07)
(0 -0 3.25063e-07)
(0 -0 2.71133e-07)
(0 -0 2.22178e-07)
(0 -0 1.79406e-07)
(0 -0 1.43872e-07)
(0 -0 7.96594e-07)
(0 -0 8.18409e-07)
(0 -0 8.17747e-07)
(0 -0 8.14645e-07)
(0 -0 8.3035e-07)
(0 -0 8.43668e-07)
(0 -0 8.53488e-07)
(0 -0 8.58676e-07)
(0 -0 8.58144e-07)
(0 -0 8.50908e-07)