/*--------------------------------*- C++ -*----------------------------------*\
| =========                 |                                                 |
| \\      /  F ield         | OpenFOAM: The Open Source CFD Toolbox           |
|  \\    /   O peration     | Version:  2412                                  |
|   \\  /    A nd           | Website:  www.openfoam.com                      |
|    \\/     M anipulation  |                                                 |
\*---------------------------------------------------------------------------*/
FoamFile
{
    version     2.0;
    format      ascii;
    arch        "LSB;label=32;scalar=64";
    class       surfaceScalarField;
    location    "21.5";
    object      phi;
}
// * * * * * * * * * * * * * * * * * * * * * * * * * * * * * * * * * * * * * //

dimensions      [0 3 -1 0 0 0 0];

oriented        oriented;

internalField   nonuniform List<scalar> 
10423
(
0.000185943
-0.00619247
0.00616778
0.000176142
-0.00615798
0.00617547
0.0001428
0.00618103
0.000109124
0.00618447
7.5192e-05
0.00618578
4.11181e-05
0.00618501
7.05722e-06
0.00618217
-2.68389e-05
0.00617732
-6.04306e-05
0.00617051
-9.35845e-05
0.0061618
-0.000126174
0.00615128
-0.000158079
0.00613902
-0.000189187
0.00612512
-0.000219395
0.00610965
-0.000248607
0.00609274
-0.000276733
0.00607447
-0.000303694
0.00605495
-0.000329418
0.0060343
-0.000353839
0.00601263
-0.000376902
0.00599005
-0.000398557
0.00596668
-0.000418766
0.00594263
-0.000437495
-0.000454722
0.00613471
0.000166929
-0.0061255
0.00614197
0.00013554
0.00614726
0.000103828
0.00615059
7.18649e-05
0.00615195
3.9755e-05
0.00615137
7.64124e-06
0.00614887
-2.43367e-05
0.00614449
-5.60496e-05
0.00613828
-8.73737e-05
0.00613029
-0.000118191
0.0061206
-0.00014839
0.00610928
-0.000177866
0.00609641
-0.00020652
0.00608206
-0.000234263
0.00606634
-0.000261012
0.00604934
-0.00028669
0.00603115
-0.000311229
0.00601188
-0.000334567
0.00599163
-0.000356651
0.0059705
-0.000377434
0.00594861
-0.000396876
0.00592606
-0.000414946
-0.000431622
0.00610352
0.000158275
-0.00609487
0.00611037
0.000128692
0.0061154
9.87982e-05
0.0061186
6.86602e-05
0.00611999
3.83742e-05
0.00611956
8.07133e-06
0.00611734
-2.21198e-05
0.00611337
-5.20796e-05
0.00610769
-8.16935e-05
0.00610035
-0.000110852
0.00609141
-0.00013945
0.00608093
-0.000167391
0.006069
-0.000194583
0.00605568
-0.000220941
0.00604105
-0.000246387
0.00602521
-0.000270848
0.00600824
-0.000294261
0.00599024
-0.000316567
0.0059713
-0.000337715
0.00595153
-0.000357658
0.00593101
-0.000376361
0.00590986
-0.000393791
-0.000409926
0.00607409
0.000150148
-0.00606597
0.00608055
0.000122236
0.00608532
9.4029e-05
0.00608839
6.55856e-05
0.00608977
3.69952e-05
0.00608946
8.37809e-06
0.00608749
-2.01473e-05
0.00608388
-4.84705e-05
0.00607867
-7.64852e-05
0.00607191
-0.00010409
0.00606365
-0.000131187
0.00605394
-0.000157686
0.00604286
-0.000183501
0.00603047
-0.000208552
0.00601685
-0.000232766
0.00600208
-0.000256075
0.00598623
-0.000278419
0.00596941
-0.000299742
0.00595169
-0.000319994
0.00593316
-0.000339133
0.00591393
-0.000357123
0.00589407
-0.000373932
-0.000389539
0.0060463
0.000142515
-0.00603867
0.00605238
0.000116155
0.0060569
8.95129e-05
0.00605984
6.26447e-05
0.0060612
3.56321e-05
0.006061
8.58559e-06
0.00605924
-1.83859e-05
0.00605595
-4.51802e-05
0.00605116
-7.16991e-05
0.00604492
-9.78478e-05
0.00603727
-0.000123536
0.00602826
-0.00014868
0.00601796
-0.000173198
0.00600642
-0.000197017
0.00599373
-0.000220067
0.00597994
-0.000242286
0.00596513
-0.000263614
0.00594939
-0.000284001
0.0059328
-0.000303399
0.00591543
-0.000321768
0.00589738
-0.000339071
0.00587873
-0.00035528
-0.000370372
0.00602004
0.000135346
-0.00601287
0.00602577
0.000110426
0.00603004
8.524e-05
0.00603285
5.98378e-05
0.00603419
3.42948e-05
0.00603406
8.71284e-06
0.00603248
-1.6808e-05
0.00602947
-4.21733e-05
0.00602507
-6.7292e-05
0.0060193
-9.20765e-05
0.0060122
-0.000116443
0.00600384
-0.000140312
0.00599425
-0.00016361
0.0059835
-0.000186266
0.00597165
-0.000208217
0.00595876
-0.000229402
0.00594492
-0.000249768
0.00593018
-0.000269264
0.00591463
-0.000287848
0.00589834
-0.000305478
0.00588139
-0.000322123
0.00586386
-0.000337752
-0.000352343
0.0059952
0.000128609
-0.00598847
0.0060006
0.00010503
0.00600464
8.11993e-05
0.00600731
5.71628e-05
0.00600862
3.29902e-05
0.00600856
8.77496e-06
0.00600714
-1.53906e-05
0.00600439
-3.94193e-05
0.00600032
-6.32269e-05
0.00599498
-8.67322e-05
0.00598839
-0.000109857
0.00598061
-0.000132529
0.00597167
-0.000154677
0.00596164
-0.000176237
0.00595058
-0.000197148
0.00593853
-0.000217355
0.00592557
-0.000236807
0.00591176
-0.000255457
0.00589718
-0.000273263
0.00588189
-0.000290188
0.00586596
-0.0003062
0.00584948
-0.000321269
-0.000335376
0.00597169
0.000122276
-0.00596536
0.00597678
9.99467e-05
0.0059806
7.73791e-05
0.00598314
5.46163e-05
0.00598441
3.17226e-05
0.0059844
8.7841e-06
0.00598312
-1.41143e-05
0.0059806
-3.68921e-05
0.00597684
-5.94713e-05
0.00597189
-8.17766e-05
0.00596576
-0.000103736
0.00595852
-0.00012528
0.00595019
-0.000146346
0.00594082
-0.000166871
0.00593047
-0.000186801
0.0059192
-0.000206082
0.00590706
-0.000224667
0.00589411
-0.000242512
0.00588043
-0.000259577
0.00586607
-0.000275827
0.0058511
-0.000291231
0.00583559
-0.000305762
-0.000319398
0.00594942
0.00011632
-0.00594346
0.00595421
9.51562e-05
0.00595782
7.37674e-05
0.00596025
5.21938e-05
0.00596147
3.0495e-05
0.00596151
8.74997e-06
0.00596036
-1.29629e-05
0.00595803
-3.45691e-05
0.00595456
-5.59967e-05
0.00594996
-7.71758e-05
0.00594426
-9.80394e-05
0.0059375
-0.000118524
0.00592973
-0.000138569
0.00592097
-0.000158119
0.00591129
-0.00017712
0.00590074
-0.000195524
0.00588936
-0.000213287
0.00587721
-0.000230366
0.00586436
-0.000246725
0.00585086
-0.00026233
0.00583678
-0.000277152
0.00582218
-0.000291163
-0.000304344
0.00592831
0.000110716
-0.0059227
0.00593282
9.064e-05
0.00593624
7.03525e-05
0.00593854
4.98904e-05
0.00593973
2.93088e-05
0.0059398
8.68046e-06
0.00593876
-1.19223e-05
0.00593662
-3.24307e-05
0.0059334
-5.2778e-05
0.00592912
-7.28996e-05
0.00592382
-9.27332e-05
0.00591751
-0.00011222
0.00591025
-0.000131304
0.00590206
-0.000149932
0.005893
-0.000168056
0.0058831
-0.00018563
0.00587243
-0.000202612
0.00586103
-0.000218964
0.00584895
-0.00023465
0.00583626
-0.000249638
0.00582301
-0.000263901
0.00580926
-0.000277412
-0.000290153
0.00590827
0.000105438
-0.005903
0.00591253
8.63805e-05
0.00591576
6.7123e-05
0.00591795
4.77007e-05
0.0059191
2.81647e-05
0.0059192
8.58195e-06
0.00591825
-1.09806e-05
0.00591628
-3.04596e-05
0.0059133
-4.97931e-05
0.00590932
-6.89211e-05
0.00590437
-8.77862e-05
0.00589849
-0.000106333
0.00589169
-0.000124511
0.00588403
-0.000142269
0.00587554
-0.000159564
0.00586626
-0.000176351
0.00585624
-0.000192593
0.00584553
-0.000208253
0.00583418
-0.000223297
0.00582224
-0.000237696
0.00580976
-0.000251423
0.0057968
-0.000264453
-0.000276767
0.00588926
0.000100466
-0.00588429
0.00589328
8.23611e-05
0.00589633
6.40678e-05
0.00589841
4.56192e-05
0.00589952
2.70625e-05
0.00589964
8.45964e-06
0.00589878
-1.01277e-05
0.00589697
-2.86406e-05
0.00589419
-4.7022e-05
0.00589049
-6.52163e-05
0.00588587
-8.317e-05
0.00588037
-0.000100832
0.00587402
-0.000118155
0.00586684
-0.000135092
0.00585888
-0.000151602
0.00585017
-0.000167645
0.00584076
-0.000183184
0.0058307
-0.000198185
0.00582002
-0.000212618
0.00580877
-0.000226454
0.00579702
-0.000239667
0.0057848
-0.000252234
-0.000264136
0.00587119
9.57791e-05
-0.0058665
0.00587498
7.85663e-05
0.00587788
6.11765e-05
0.00587985
4.36403e-05
0.00588092
2.60017e-05
0.00588106
8.31776e-06
0.00588028
-9.35445e-06
0.0058786
-2.69605e-05
0.00587603
-4.44473e-05
0.00587258
-6.17635e-05
0.00586827
-7.88595e-05
0.00586312
-9.56879e-05
0.00585717
-0.000112204
0.00585044
-0.000128366
0.00584298
-0.000144134
0.0058348
-0.000159471
0.00582596
-0.000174343
0.00581649
-0.000188718
0.00580644
-0.000202568
0.00579585
-0.000215865
0.00578477
-0.000228585
0.00577324
-0.000240706
-0.00025221
0.00585401
9.13572e-05
-0.00584959
0.0058576
7.49814e-05
0.00586034
5.84391e-05
0.00586222
4.17588e-05
0.00586324
2.49813e-05
0.00586339
8.15973e-06
0.00586269
-8.65332e-06
0.00586114
-2.54074e-05
0.00585875
-4.20533e-05
0.00585553
-5.85433e-05
0.0058515
-7.48315e-05
0.00584668
-9.0874e-05
0.00584111
-0.000106629
0.0058348
-0.000122058
0.00582779
-0.000137123
0.00582011
-0.000151792
0.0058118
-0.00016603
0.00580289
-0.00017981
0.00579343
-0.000193104
0.00578345
-0.000205886
0.005773
-0.000218134
0.00576212
-0.000229826
-0.000240944
0.00583767
8.71831e-05
-0.0058335
0.00584106
7.1593e-05
0.00584365
5.58462e-05
0.00584544
3.99691e-05
0.00584642
2.40002e-05
0.0058466
7.98831e-06
0.00584596
-8.0176e-06
0.00584452
-2.39708e-05
0.0058423
-3.98258e-05
0.00583929
-5.55382e-05
0.00583552
-7.10654e-05
0.00583102
-8.63668e-05
0.00582579
-0.000101404
0.00581987
-0.00011614
0.00581329
-0.00013054
0.00580607
-0.000144574
0.00579825
-0.000158212
0.00578987
-0.000171425
0.00578095
-0.000184189
0.00577155
-0.000196478
0.00576168
-0.000208272
0.00575141
-0.000219551
-0.000230296
0.00582212
8.32399e-05
-0.00581817
0.00582532
6.83885e-05
0.00582778
5.33888e-05
0.00582948
3.82661e-05
0.00583043
2.30565e-05
0.00583061
7.80561e-06
0.00583003
-7.44152e-06
0.0058287
-2.26415e-05
0.00582663
-3.77521e-05
0.00582382
-5.27322e-05
0.0058203
-6.75422e-05
0.00581608
-8.21443e-05
0.00581118
-9.65027e-05
0.00580562
-0.000110584
0.00579944
-0.000124355
0.00579265
-0.000137788
0.00578529
-0.000150854
0.00577739
-0.000163528
0.00576899
-0.000175786
0.00576012
-0.000187604
0.00575081
-0.000198963
0.0057411
-0.000209843
-0.000220227
0.0058073
7.95109e-05
-0.00580357
0.00581033
6.53552e-05
0.00581266
5.10582e-05
0.00581428
3.66442e-05
0.00581519
2.21486e-05
0.00581538
7.61327e-06
0.00581486
-6.92004e-06
0.00581363
-2.14111e-05
0.0058117
-3.58208e-05
0.00580908
-5.01108e-05
0.00580578
-6.42444e-05
0.00580182
-7.81866e-05
0.00579722
-9.19042e-05
0.00579201
-0.000105366
0.00578619
-0.000118541
0.00577981
-0.000131404
0.00577288
-0.000143927
0.00576544
-0.000156087
0.00575752
-0.000167862
0.00574914
-0.00017923
0.00574035
-0.000190171
0.00573117
-0.000200667
-0.000210701
0.00579317
-0.00578964
7.59784e-05
0.00579604
6.24818e-05
0.00579826
4.88452e-05
0.0057998
3.5098e-05
0.00580068
2.12743e-05
0.00580088
7.4126e-06
0.00580041
-6.44862e-06
0.00579927
-2.0272e-05
0.00579747
-3.40211e-05
0.00579502
-4.76606e-05
0.00579193
-6.11561e-05
0.00578822
-7.44753e-05
0.0057839
-8.7587e-05
0.005779
-0.000100462
0.00577353
-0.000113073
0.00576752
-0.000125395
0.005761
-0.000137402
0.00575398
-0.000149073
0.00574651
-0.000160387
0.0057386
-0.000171323
0.00573029
-0.000181862
0.00572161
-0.000191988
-0.000201684
0.00576165
0.000530545
-0.00573091
0.000776386
0.00573685
0.000501452
-0.00570776
0.00577996
0.000733273
0.00583688
0.00096016
0.00590722
0.00117928
0.00599045
0.00138783
0.00608585
0.00158296
0.0017614
0.00571331
0.000473869
-0.00568573
0.00575484
0.000691749
0.00581007
0.000904923
0.00587864
0.00111071
0.00596
0.00130647
0.00605343
0.00148953
0.00165685
0.00569095
0.000447677
-0.00566476
0.00573101
0.000651692
0.0057847
0.000851233
0.00585163
0.00104378
0.00593126
0.00122684
0.00602287
0.00139792
0.00155422
0.00566969
0.000422768
-0.00564478
0.00570839
0.000612987
0.00576066
0.000798973
0.00582608
0.00097836
0.0059041
0.00114881
0.00599401
0.00130801
0.00145337
0.00564946
0.000399043
-0.00562573
0.00568691
0.000575533
0.00573785
0.000748035
0.00580187
0.000914339
0.00587842
0.00107227
0.00596676
0.00121967
0.00135417
0.00563019
0.000376411
-0.00560756
0.00566649
0.000539236
0.0057162
0.000698321
0.00577893
0.000851613
0.0058541
0.000997096
0.00594099
0.00113278
0.00125649
0.00561183
0.000354791
-0.00559021
0.00564706
0.00050401
0.00569564
0.00064974
0.00575717
0.000790089
0.00583107
0.000923196
0.00591661
0.00104723
0.00116023
0.00559433
0.000334108
-0.00557364
0.00562856
0.000469776
0.00567609
0.000602212
0.0057365
0.000729678
0.00580922
0.000850476
0.00589352
0.000962936
0.00106528
0.00557762
0.000314293
-0.00555781
0.00561094
0.000436464
0.00565749
0.000555659
0.00571686
0.000670302
0.00578849
0.000778851
0.00587163
0.000879797
0.000971548
0.00556167
0.000295284
-0.00554266
0.00559413
0.000404006
0.00563978
0.000510012
0.00569819
0.000611887
0.0057688
0.000708245
0.00585086
0.000797734
0.000878944
0.00554643
0.000277023
-0.00552817
0.0055781
0.000372343
0.0056229
0.000465209
0.00568042
0.000554365
0.00575008
0.000638584
0.00583115
0.000716671
0.000787389
0.00553187
0.000259457
-0.0055143
0.00556279
0.000341419
0.00560681
0.00042119
0.0056635
0.000497675
0.00573228
0.000569803
0.00581242
0.000636537
0.000696809
0.00551794
0.000242539
-0.00550102
0.00554817
0.000311183
0.00559146
0.000377902
0.00564738
0.000441759
0.00571534
0.000501841
0.00579461
0.000557266
0.000607133
0.00550461
0.000226222
-0.00548829
0.0055342
0.000281588
0.00557681
0.000335294
0.00563201
0.000386564
0.0056992
0.000434642
0.00577767
0.000478801
0.0005183
0.00549185
0.000210467
-0.00547609
0.00552084
0.00025259
0.00556282
0.00029332
0.00561734
0.000332042
0.00568383
0.000368155
0.00576154
0.000401085
0.000430252
0.00547963
0.000195235
-0.00546439
0.00550807
0.00022415
0.00554945
0.00025194
0.00560334
0.000278148
0.00566916
0.000302332
0.00574618
0.000324069
0.000342934
0.00546792
0.000180491
-0.00545318
0.00549584
0.000196232
0.00553667
0.000211114
0.00558997
0.000224842
0.00565517
0.00023713
0.00573154
0.000247706
0.000256297
0.00545671
0.000166206
-0.00544242
0.00548413
0.000168803
0.00552444
0.000170808
0.0055772
0.000172087
0.00564182
0.000172509
0.00571757
0.000171954
0.000170298
0.00544596
-0.0054321
0.00015235
0.00547292
0.000141833
0.00551274
0.000130992
0.00556498
0.000119851
0.00562905
0.000108436
0.00570423
9.67745e-05
8.4889e-05
0.00571434
3.54534e-05
0.000282556
0.00582093
-0.00102146
-0.00588354
0.00576969
-0.000833969
0.00573066
-0.000631863
0.00570451
-0.000417975
0.00569175
-0.000194977
0.00569275
3.44502e-05
0.00026755
0.00580654
-0.000957805
-0.00587019
0.00575419
-0.000781619
0.00571399
-0.000591662
0.0056866
-0.000390584
0.00567253
-0.000180911
0.00567216
3.48168e-05
0.000253982
0.00579253
-0.000893215
-0.00585712
0.00573918
-0.000728269
0.00569792
-0.000550395
0.0056694
-0.000362063
0.00565414
-0.000165652
0.00565251
3.644e-05
0.000241735
0.00577893
-0.00082778
-0.00584436
0.00572467
-0.000674014
0.00568243
-0.000508157
0.00565288
-0.000332509
0.00563653
-0.000149299
0.00563375
3.92162e-05
0.000230705
0.00576571
-0.000761585
-0.00583191
0.00571063
-0.000618937
0.00566751
-0.000465036
0.00563702
-0.000302012
0.00561966
-0.000131944
0.00561582
4.3053e-05
0.000220795
0.00575289
-0.000694701
-0.00581977
0.00569707
-0.000563112
0.00565314
-0.000421108
0.00562178
-0.000270649
0.0056035
-0.000113669
0.00559869
4.78664e-05
0.00021192
0.00574046
-0.000627195
-0.00580796
0.00568395
-0.000506609
0.00563929
-0.000376442
0.00560713
-0.000238493
0.00558801
-9.45454e-05
0.00558229
5.35805e-05
0.000203999
0.00572841
-0.000559125
-0.00579648
0.00567128
-0.000449486
0.00562594
-0.000331101
0.00559306
-0.000205608
0.00557315
-7.46419e-05
0.00556661
6.01259e-05
0.000196963
0.00571673
-0.000490542
-0.00578531
0.00565904
-0.000391797
0.00561308
-0.000285141
0.00557953
-0.000172052
0.0055589
-5.40188e-05
0.00555159
6.74399e-05
0.000190744
0.00570542
-0.000421494
-0.00577447
0.00564722
-0.000333592
0.00560069
-0.000238614
0.00556652
-0.00013788
0.00554523
-3.27315e-05
0.0055372
7.54649e-05
0.000185283
0.00569447
-0.000352021
-0.00576394
0.00563579
-0.000274915
0.00558874
-0.000191564
0.005554
-0.000103138
0.0055321
-1.08309e-05
0.00552342
8.41492e-05
0.000180526
0.00568387
-0.000282162
-0.00575373
0.00562476
-0.000215804
0.00557723
-0.000144035
0.00554196
-6.78723e-05
0.00551949
1.16403e-05
0.0055102
9.34435e-05
0.000176421
0.00567361
-0.000211951
-0.00574382
0.0056141
-0.000156295
0.00556613
-9.60639e-05
0.00553038
-3.21235e-05
0.00550738
3.46407e-05
0.00549752
0.000103304
0.000172922
0.00566368
-0.000141417
-0.00573422
0.00560381
-9.64197e-05
0.00555543
-4.76874e-05
0.00551923
4.07204e-06
0.00549574
5.81305e-05
0.00548536
0.000113692
0.000169988
0.00565408
-7.05955e-05
-0.0057249
0.00559386
-3.61976e-05
0.00554513
1.042e-06
0.0055085
4.07065e-05
0.00548456
8.20674e-05
0.00547368
0.000124568
0.000167579
0.00564481
4.56345e-07
-0.00571587
0.00558429
2.43289e-05
0.00553515
5.01768e-05
0.00549816
7.77007e-05
0.0054738
0.000106423
0.00546247
0.000135897
0.000165658
0.00563578
7.18505e-05
-0.00570718
0.005575
8.51159e-05
0.00552557
9.96064e-05
0.00548821
0.000115055
0.00546347
0.00013117
0.00545171
0.000147651
0.000164194
0.00562712
0.000143434
-0.0056987
0.00556605
0.00014618
0.00551633
0.000149329
0.00547864
0.000152743
0.00545353
0.000156281
0.00544138
0.0001598
0.000163157
0.00561874
-0.00569051
0.000215211
0.00555743
0.000207488
0.00550743
0.000199328
0.00546943
0.000190739
0.00544398
0.000181732
0.00543146
0.00017232
0.00016252
0.00525616
0.000357948
0.00526191
0.00036842
0.00526822
0.000379093
0.00527513
0.000389949
0.00528267
0.000400966
0.00529088
0.000412123
0.00529981
0.000423393
0.00530948
0.000434748
0.00531994
0.000446153
0.00533123
0.000457569
0.00534339
0.000468955
0.00535645
0.000480261
0.00537045
0.000491434
0.00538542
0.000502417
0.0054014
0.000513144
0.0054184
0.000523546
0.00543645
0.000533548
0.00545557
0.000543069
0.00547577
0.000552023
0.00549704
0.000560318
0.00551938
0.000567858
0.00554278
0.000574544
0.00556721
0.000580272
0.00559263
0.000584937
0.005619
0.00058843
0.00564625
0.000590645
0.0056743
0.000591474
0.00570307
0.000590813
0.00573245
0.000588561
0.00576232
0.00058462
0.00579255
0.000578885
0.00582299
0.000571211
0.00585343
0.000561282
0.00054808
0.00526662
0.000352517
0.00527256
0.000362477
0.00527905
0.000372604
0.00528612
0.000382881
0.00529379
0.000393287
0.00530212
0.000403797
0.00531113
0.000414386
0.00532085
0.000425025
0.00533132
0.000435679
0.00534258
0.00044631
0.00535466
0.000456877
0.00536759
0.000467332
0.0053814
0.000477625
0.00539612
0.000487699
0.00541177
0.000497494
0.00542837
0.000506943
0.00544594
0.000515976
0.00546449
0.000524517
0.00548403
0.000532486
0.00550455
0.000539799
0.00552604
0.000546368
0.00554848
0.000552101
0.00557185
0.000556905
0.0055961
0.000560684
0.00562119
0.000563341
0.00564706
0.000564781
0.00567362
0.000564908
0.0057008
0.000563631
0.0057285
0.000560861
0.00575661
0.000556512
0.005785
0.000550492
0.00581354
0.000542676
0.00584203
0.000532786
0.000519922
0.00527655
0.000346909
0.00528266
0.00035637
0.0052893
0.000365969
0.00529649
0.000375688
0.00530427
0.000385504
0.00531268
0.000395394
0.00532173
0.000405332
0.00533147
0.000415287
0.00534192
0.000425228
0.00535311
0.000435116
0.00536508
0.00044491
0.00537785
0.000454566
0.00539144
0.000464034
0.00540588
0.000473261
0.00542118
0.000482189
0.00543737
0.000490756
0.00545445
0.000498895
0.00547243
0.000506536
0.00549131
0.000513604
0.00551109
0.000520023
0.00553174
0.000525711
0.00555326
0.000530586
0.0055756
0.000534561
0.00559874
0.00053755
0.00562261
0.000539468
0.00564716
0.000540227
0.00567233
0.000539745
0.00569802
0.000537939
0.00572415
0.000534731
0.00575061
0.000530047
0.0057773
0.000523807
0.00580407
0.000515902
0.00583077
0.000506087
0.000493571
0.00528599
0.000341152
0.00529223
0.000350129
0.00529898
0.000359217
0.00530627
0.000368398
0.00531413
0.000377648
0.00532258
0.000386944
0.00533165
0.00039626
0.00534137
0.000405566
0.00535177
0.00041483
0.00536287
0.000424015
0.0053747
0.000433082
0.00538728
0.000441988
0.00540063
0.000450684
0.00541477
0.000459122
0.00542971
0.000467245
0.00544547
0.000474995
0.00546206
0.00048231
0.00547947
0.000489125
0.0054977
0.000495371
0.00551675
0.000500977
0.00553659
0.000505868
0.00555721
0.000509968
0.00557857
0.000513201
0.00560063
0.000515487
0.00562335
0.000516751
0.00564666
0.000516914
0.00567051
0.000515902
0.0056948
0.000513643
0.00571946
0.000510069
0.0057444
0.000505114
0.00576949
0.000498709
0.00579464
0.000490759
0.00581967
0.00048105
0.000468886
0.00529495
0.000335272
0.00530129
0.000343781
0.00530813
0.000352377
0.00531549
0.00036104
0.00532339
0.000369747
0.00533186
0.000378475
0.00534092
0.000387198
0.0053506
0.000395887
0.00536092
0.000404511
0.0053719
0.000413033
0.00538357
0.000421416
0.00539594
0.000429618
0.00540903
0.000437594
0.00542286
0.000445296
0.00543743
0.000452672
0.00545276
0.000459668
0.00546884
0.000466225
0.00548568
0.000472283
0.00550328
0.000477777
0.00552161
0.000482644
0.00554067
0.000486813
0.00556042
0.000490217
0.00558083
0.000492785
0.00560187
0.000494446
0.00562349
0.000495132
0.00564563
0.000494773
0.00566823
0.000493303
0.00569122
0.000490659
0.0057145
0.00048678
0.00573801
0.000481609
0.00576163
0.000475086
0.00578526
0.000467129
0.00580876
0.00045755
0.00044574
0.00530343
0.000329294
0.00530986
0.000337351
0.00531677
0.000345473
0.00532417
0.000353639
0.00533209
0.000361826
0.00534055
0.000370013
0.00534958
0.000378172
0.00535919
0.000386276
0.00536941
0.000394293
0.00538025
0.00040219
0.00539174
0.00040993
0.00540388
0.000417473
0.0054167
0.000424777
0.0054302
0.000431795
0.00544439
0.000438479
0.00545928
0.000444778
0.00547487
0.000450638
0.00549115
0.000456002
0.00550812
0.000460811
0.00552575
0.000465005
0.00554404
0.000468522
0.00556296
0.0004713
0.00558247
0.000473273
0.00560254
0.00047438
0.00562312
0.000474556
0.00564415
0.000473742
0.00566557
0.000471877
0.00568733
0.000468906
0.00570933
0.000464776
0.0057315
0.000459437
0.00575375
0.000452837
0.00577598
0.000444903
0.00579805
0.000435475
0.000424019
0.00531147
0.00032324
0.00531796
0.000330861
0.0053249
0.000338527
0.00533232
0.000346217
0.00534024
0.000353908
0.00534868
0.000361578
0.00535765
0.000369201
0.00536717
0.000376751
0.00537727
0.000384196
0.00538795
0.000391505
0.00539924
0.000398641
0.00541115
0.000405568
0.00542368
0.000412244
0.00543685
0.000418627
0.00545066
0.00042467
0.00546511
0.000430327
0.0054802
0.000435545
0.00549593
0.000440274
0.00551228
0.000444458
0.00552924
0.000448042
0.0055468
0.00045097
0.00556491
0.000453185
0.00558356
0.000454627
0.0056027
0.000455241
0.00562228
0.00045497
0.00564227
0.000453758
0.00566259
0.000451555
0.00568319
0.000448309
0.00570399
0.000443975
0.00572491
0.000438509
0.00574589
0.000431866
0.00576681
0.000423983
0.00578756
0.000414721
0.000403616
0.00531907
0.00031713
0.0053256
0.000324332
0.00533256
0.000331561
0.00533998
0.000338795
0.00534788
0.000346012
0.00535627
0.000353191
0.00536516
0.000360306
0.00537458
0.000367331
0.00538454
0.000374237
0.00539506
0.000380992
0.00540613
0.000387563
0.00541779
0.000393913
0.00543003
0.000400005
0.00544286
0.000405798
0.00545628
0.000411248
0.00547029
0.000416312
0.0054849
0.000420941
0.00550008
0.000425088
0.00551584
0.000428703
0.00553215
0.000431735
0.00554899
0.000434131
0.00556633
0.000435839
0.00558415
0.000436808
0.0056024
0.000436986
0.00562105
0.000436321
0.00564005
0.000434765
0.00565933
0.000432272
0.00567884
0.000428797
0.00569851
0.0004243
0.00571828
0.000418743
0.00573806
0.000412086
0.00575777
0.000404276
0.0057773
0.000395193
0.000384435
0.00532625
0.000310983
0.0053328
0.000317783
0.00533977
0.000324592
0.00534717
0.000331391
0.00535503
0.000338157
0.00536335
0.000344868
0.00537216
0.000351502
0.00538146
0.000358031
0.00539126
0.000364428
0.00540159
0.000370663
0.00541245
0.000376704
0.00542385
0.000382517
0.00543579
0.000388065
0.00544827
0.00039331
0.00546131
0.000398212
0.00547489
0.00040273
0.00548902
0.000406819
0.00550367
0.000410434
0.00551884
0.000413531
0.00553452
0.000416061
0.00555067
0.000417977
0.00556728
0.000419233
0.00558431
0.000419779
0.00560172
0.000419571
0.00561948
0.000418562
0.00563754
0.000416709
0.00565584
0.000413969
0.00567433
0.000410305
0.00569295
0.000405681
0.00571163
0.000400063
0.0057303
0.000393418
0.00574888
0.000385699
0.00576727
0.000376804
0.000366388
0.00533303
0.000304815
0.00533959
0.000311229
0.00534654
0.000317637
0.00535391
0.00032402
0.00536171
0.000330357
0.00536996
0.000336625
0.00537865
0.000342802
0.00538782
0.000348864
0.00539747
0.000354782
0.0054076
0.000360529
0.00541823
0.000366075
0.00542936
0.000371385
0.005441
0.000376427
0.00545314
0.000381165
0.0054658
0.000385561
0.00547895
0.000389575
0.0054926
0.000393168
0.00550674
0.000396298
0.00552134
0.000398923
0.00553641
0.000400999
0.0055519
0.000402483
0.0055678
0.000403333
0.00558408
0.000403504
0.00560069
0.000402955
0.00561761
0.000401646
0.00563478
0.000399536
0.00565216
0.000396589
0.00566969
0.000392771
0.00568732
0.000388051
0.00570499
0.000382399
0.00572262
0.000375786
0.00574014
0.000368174
0.00575747
0.000359474
0.000349394
0.00533943
0.000298641
0.00534598
0.000304685
0.0053529
0.000310711
0.00536022
0.000316698
0.00536795
0.000322626
0.00537611
0.000328474
0.00538469
0.000334221
0.00539371
0.000339841
0.00540318
0.000345309
0.00541311
0.000350598
0.00542351
0.00035568
0.00543437
0.000360522
0.00544571
0.000365094
0.00545751
0.000369362
0.00546978
0.00037329
0.00548251
0.000376842
0.0054957
0.00037998
0.00550933
0.000382667
0.00552339
0.000384863
0.00553786
0.000386528
0.00555272
0.000387623
0.00556795
0.00038811
0.0055835
0.000387948
0.00559936
0.000387099
0.00561548
0.000385528
0.00563181
0.000383199
0.00564833
0.000380079
0.00566496
0.000376138
0.00568166
0.000371348
0.00569838
0.000365685
0.00571504
0.000359123
0.00573158
0.000351629
0.00574793
0.00034313
0.000333379
0.00534547
0.000292476
0.00535199
0.000298167
0.00535887
0.000303827
0.00536613
0.000309437
0.00537378
0.000314977
0.00538183
0.000320427
0.00539028
0.000325766
0.00539915
0.00033097
0.00540845
0.000336016
0.00541817
0.000340876
0.00542832
0.000345524
0.00543891
0.000349931
0.00544994
0.000354066
0.00546141
0.000357898
0.0054733
0.000361395
0.00548562
0.000364521
0.00549836
0.000367243
0.0055115
0.000369525
0.00552503
0.000371332
0.00553893
0.000372626
0.00555319
0.000373372
0.00556776
0.000373534
0.00558263
0.000373076
0.00559777
0.000371965
0.00561313
0.000370167
0.00562868
0.000367651
0.00564437
0.000364388
0.00566015
0.000360351
0.00567599
0.000355516
0.00569181
0.000349861
0.00570757
0.000343365
0.0057232
0.000335999
0.00573862
0.000327704
0.000318275
0.00535115
0.000286332
0.00535763
0.000291684
0.00536447
0.000296996
0.00537165
0.000302248
0.00537921
0.00030742
0.00538715
0.000312494
0.00539546
0.000317448
0.00540417
0.00032226
0.00541328
0.000326909
0.00542279
0.000331367
0.0054327
0.000335611
0.00544302
0.000339612
0.00545375
0.000343342
0.00546487
0.000346771
0.0054764
0.000349869
0.00548832
0.000352605
0.00550061
0.000354946
0.00551328
0.000356859
0.0055263
0.000358312
0.00553965
0.000359271
0.00555332
0.000359703
0.00556728
0.000359576
0.0055815
0.000358857
0.00559595
0.000357516
0.00561059
0.000355522
0.00562539
0.000352849
0.00564031
0.00034947
0.0056553
0.00034536
0.00567032
0.0003405
0.00568531
0.00033487
0.00570022
0.000328453
0.005715
0.000321224
0.00572957
0.000313135
0.000304018
0.00535651
0.000280219
0.00536294
0.000285249
0.00536971
0.000290229
0.00537682
0.00029514
0.00538427
0.000299964
0.00539208
0.000304681
0.00540026
0.000309273
0.0054088
0.000313717
0.00541772
0.000317992
0.00542701
0.000322075
0.00543668
0.000325941
0.00544673
0.000329565
0.00545715
0.000332919
0.00546795
0.000335976
0.00547911
0.000338707
0.00549063
0.000341084
0.0055025
0.000343076
0.00551471
0.000344654
0.00552723
0.000345786
0.00554006
0.000346443
0.00555317
0.000346594
0.00556654
0.000346209
0.00558013
0.00034526
0.00559393
0.000343718
0.0056079
0.000341557
0.00562199
0.000338752
0.00563618
0.00033528
0.00565043
0.000331119
0.00566467
0.000326252
0.00567888
0.000320661
0.005693
0.000314333
0.00570698
0.000307247
0.00572075
0.000299365
0.000290553
0.00536155
0.000274148
0.00536792
0.000278871
0.00537462
0.000283535
0.00538164
0.000288123
0.00538898
0.000292616
0.00539667
0.000296997
0.00540469
0.000301247
0.00541307
0.000305345
0.00542179
0.000309271
0.00543086
0.000313002
0.00544028
0.000316516
0.00545006
0.000319788
0.00546019
0.000322794
0.00547065
0.000325507
0.00548146
0.0003279
0.0054926
0.000329948
0.00550405
0.000331622
0.00551581
0.000332893
0.00552786
0.000333736
0.00554019
0.00033412
0.00555276
0.000334019
0.00556556
0.000333406
0.00557857
0.000332254
0.00559175
0.000330539
0.00560507
0.000328235
0.0056185
0.000325321
0.005632
0.000321777
0.00564554
0.000317583
0.00565907
0.000312723
0.00567254
0.000307185
0.00568592
0.000300954
0.00569915
0.000294017
0.00571218
0.000286342
0.000277827
0.00536629
0.000268127
0.0053726
0.000272557
0.00537921
0.000276922
0.00538613
0.000281203
0.00539336
0.000285384
0.00540091
0.000289447
0.00540879
0.000293375
0.00541698
0.000297148
0.00542551
0.000300746
0.00543436
0.000304149
0.00544354
0.000307335
0.00545305
0.000310281
0.00546288
0.000312963
0.00547303
0.000315358
0.00548349
0.000317441
0.00549425
0.000319187
0.0055053
0.00032057
0.00551663
0.000321564
0.00552822
0.000322143
0.00554006
0.000322283
0.00555212
0.000321957
0.00556439
0.000321142
0.00557683
0.000319812
0.00558942
0.000317946
0.00560213
0.000315523
0.00561494
0.00031252
0.00562779
0.000308922
0.00564066
0.000304711
0.00565351
0.000299873
0.0056663
0.000294396
0.00567899
0.00028827
0.00569152
0.000281484
0.00570384
0.000274017
0.000265804
0.00537074
0.000262165
0.00537698
0.000266316
0.00538351
0.000270396
0.00539033
0.000274387
0.00539744
0.000278272
0.00540485
0.000282036
0.00541256
0.00028566
0.00542058
0.000289128
0.00542891
0.00029242
0.00543754
0.000295516
0.00544648
0.000298396
0.00545572
0.000301039
0.00546526
0.000303423
0.0054751
0.000305525
0.00548522
0.000307322
0.00549561
0.00030879
0.00550628
0.000309908
0.00551719
0.000310649
0.00552834
0.000310992
0.00553971
0.000310911
0.00555129
0.000310385
0.00556304
0.000309391
0.00557494
0.000307907
0.00558698
0.000305912
0.00559911
0.000303388
0.00561132
0.000300315
0.00562356
0.000296679
0.00563581
0.000292464
0.00564802
0.000287658
0.00566016
0.000282252
0.0056722
0.000276236
0.00568408
0.000269602
0.00569576
0.000262336
0.000254385
0.00537493
0.000256268
0.00538109
0.000260154
0.00538753
0.000263963
0.00539423
0.000267679
0.00540122