/*--------------------------------*- C++ -*----------------------------------*\
| =========                 |                                                 |
| \\      /  F ield         | OpenFOAM: The Open Source CFD Toolbox           |
|  \\    /   O peration     | Version:  2412                                  |
|   \\  /    A nd           | Website:  www.openfoam.com                      |
|    \\/     M anipulation  |                                                 |
\*---------------------------------------------------------------------------*/
FoamFile
{
    version     2.0;
    format      ascii;
    arch        "LSB;label=32;scalar=64";
    class       volVectorField;
    location    "28";
    object      U;
}
// * * * * * * * * * * * * * * * * * * * * * * * * * * * * * * * * * * * * * //

dimensions      [0 1 -1 0 0 0 0];

internalField   nonuniform List<vector> 
5285
(
(0.089016 0.000251479 5.11746e-23)
(0.0885251 0.000268266 -5.86248e-24)
(0.0880023 0.000286589 5.99168e-24)
(0.0874449 0.000306633 -6.12822e-24)
(0.0868495 0.000328608 0)
(0.0862124 0.000352759 6.42566e-24)
(0.0855296 0.000379368 -6.58784e-24)
(0.0847964 0.000408762 0)
(0.0840075 0.000441326 -6.94281e-24)
(0.0831569 0.000477512 0)
(0.0822377 0.00051785 -7.3444e-24)
(0.081242 0.000562975 -1.23078e-22)
(0.0801607 0.000613641 1.30691e-22)
(0.0789832 0.000670757 -1.31172e-22)
(0.0776972 0.000735423 1.30972e-22)
(0.0762882 0.000808973 0)
(0.0747391 0.000893038 0)
(0.0730298 0.000989613 1.60395e-22)
(0.0711361 0.00110113 -1.50914e-22)
(0.0690293 0.00123056 0)
(0.0666749 0.0013814 0)
(0.0640317 0.00155776 0)
(0.061051 0.0017641 0)
(0.057676 0.00200485 0)
(0.0538426 0.00228346 0)
(0.0494821 0.00260066 0)
(0.0445282 0.00295153 0)
(0.0389293 0.00332097 0)
(0.032673 0.00367673 -1.47121e-23)
(0.0258236 0.00395966 -5.04337e-22)
(0.0185644 0.00407183 5.03581e-22)
(0.011267 0.00386391 5.46682e-22)
(0.00481942 0.00310679 -5.45862e-22)
(0.000981454 0.00144245 0)
(0.0890341 0.000753485 1.80283e-22)
(0.0885445 0.00080378 -1.91646e-22)
(0.0880233 0.000858681 -1.8001e-23)
(0.0874676 0.000918741 6.14167e-24)
(0.0868741 0.000984592 0)
(0.0862393 0.00105697 -6.44231e-24)
(0.085559 0.00113671 -2.07653e-22)
(0.0848288 0.0012248 4.33969e-22)
(0.0840433 0.0013224 2.39451e-22)
(0.0831966 0.00143085 -4.51584e-22)
(0.082282 0.00155174 4.86355e-22)
(0.0812917 0.00168698 -4.93513e-22)
(0.0802168 0.00183882 -7.83172e-24)
(0.079047 0.00200998 0)
(0.0777701 0.00220373 0)
(0.0763721 0.00242407 0)
(0.0748365 0.00267585 0)
(0.0731438 0.002965 -9.29723e-24)
(0.0712707 0.00329877 -6.30132e-22)
(0.0691897 0.00368592 -2.63491e-23)
(0.0668679 0.00413688 6.54775e-22)
(0.0642662 0.00466368 7.12288e-22)
(0.0613383 0.00527948 -7.11344e-22)
(0.0580305 0.00599717 -2.36002e-23)
(0.054282 0.00682662 -2.46324e-23)
(0.0500273 0.00776944 -8.482e-22)
(0.0452018 0.00881033 8.20276e-22)
(0.0397531 0.00990345 -2.79062e-23)
(0.0336608 0.0109521 1.48149e-23)
(0.02697 0.0117799 -1.02562e-21)
(0.0198282 0.012095 1.02523e-21)
(0.0125463 0.011454 -2.13784e-21)
(0.00589235 0.00918547 2.10208e-21)
(0.00141711 0.00423379 -2.15338e-21)
(0.0890708 0.00125231 1.9731e-23)
(0.088584 0.00133592 -3.72471e-22)
(0.0880659 0.0014272 1.2045e-23)
(0.0875138 0.00152707 -3.99186e-22)
(0.0869243 0.00163658 4.11416e-22)
(0.0862941 0.00175695 -4.19368e-22)
(0.0856191 0.00188958 4.32226e-22)
(0.0848948 0.00203612 1.3606e-23)
(0.0841163 0.00219846 -1.39801e-23)
(0.0832777 0.00237887 1.43775e-23)
(0.0823726 0.00257999 -4.81625e-22)
(0.0813934 0.00280496 4.96452e-22)
(0.0803315 0.00305752 5.28212e-22)
(0.0791772 0.00334217 -5.12e-22)
(0.0779189 0.00366432 0)
(0.0765435 0.00403056 0)
(0.0750353 0.00444886 1.79815e-23)
(0.0733762 0.00492896 1.23859e-21)
(0.071545 0.0054827 2.92604e-23)
(0.0695163 0.00612432 -1.24611e-21)
(0.0672605 0.00687072 0)
(0.0647425 0.00774127 -2.17466e-23)
(0.061921 0.00875692 1.51312e-21)
(0.0587484 0.00993787 -3.01955e-21)
(0.0551706 0.0112989 3.19856e-21)
(0.0511282 0.0128407 9.48687e-23)
(0.0465606 0.0145359 -1.65979e-21)
(0.0414128 0.0163065 -1.79353e-21)
(0.0356488 0.0179917 1.84839e-21)
(0.0292741 0.0193013 1.42143e-24)
(0.0223635 0.0197568 -3.13718e-23)
(0.0151075 0.0186303 2.06646e-21)
(0.00802095 0.0148532 -2.00103e-21)
(0.00225405 0.00678171 -2.00149e-21)
(0.0891273 0.00174531 -3.77295e-22)
(0.0886448 0.00186186 2.24626e-26)
(0.0881316 0.00198911 0)
(0.087585 0.00212835 -3.88728e-22)
(0.0870019 0.00228106 4.00929e-22)
(0.0863788 0.00244892 0)
(0.0857121 0.00263392 -8.66263e-22)
(0.0849973 0.00283832 8.52205e-22)
(0.0842297 0.00306479 1.41132e-23)
(0.0834038 0.00331647 -3.69331e-26)
(0.0825134 0.00359703 1.49174e-23)
(0.0815514 0.00391085 0)
(0.08051 0.00426311 -5.29396e-26)
(0.0793798 0.00466004 0)
(0.0781505 0.00510913 -1.69305e-23)
(0.0768099 0.00561942 1.14454e-21)
(0.0753441 0.00620186 -1.14423e-21)
(0.073737 0.00686975 -1.89206e-23)
(0.0719699 0.00763917 3.91486e-23)
(0.0700214 0.00852937 -1.34869e-21)
(0.0678663 0.00956298 1.30677e-21)
(0.0654756 0.0107657 2.21226e-23)
(0.0628156 0.0121648 -3.53145e-25)
(0.0598477 0.013786 2.35637e-23)
(0.0565275 0.0156466 -1.61621e-21)
(0.0528052 0.0177437 3.26577e-21)
(0.0486258 0.0200349 -1.70166e-21)
(0.0439305 0.0224086 1.75694e-21)
(0.0386603 0.0246413 -1.83929e-21)
(0.0327605 0.0263371 -3.65077e-21)
(0.0261917 0.0268476 7.44777e-21)
(0.018964 0.0251773 -3.77028e-21)
(0.0112486 0.0198977 0)
(0.0034967 0.00897698 -3.54791e-21)
(0.089205 0.00223014 0)
(0.0887287 0.00237903 -3.72491e-22)
(0.0882225 0.00254162 3.96694e-22)
(0.0876837 0.00271955 -1.24715e-23)
(0.0871095 0.0029147 -8.40972e-22)
(0.0864966 0.00312925 8.28559e-22)
(0.0858415 0.0033657 -1.34819e-23)
(0.0851401 0.00362697 0)
(0.0843879 0.00391646 0)
(0.0835798 0.00423815 -9.6702e-22)
(0.0827102 0.00459674 9.37641e-22)
(0.0817726 0.00499776 0)
(0.0807597 0.00544781 -3.21758e-23)
(0.0796635 0.00595473 0)
(0.0784746 0.00652795 1.72276e-23)
(0.0771827 0.00717881 -1.77506e-23)
(0.0757758 0.00792099 -1.84865e-23)
(0.0742407 0.00877095 1.90468e-23)
(0.0725623 0.00974849 1.25288e-21)
(0.0707239 0.0108771 -1.29312e-21)
(0.0687065 0.0121841 2.8087e-21)
(0.0664892 0.0137001 -2.81049e-21)
(0.0640482 0.0154568 2.97982e-21)
(0.0613568 0.0174829 8.35347e-23)
(0.0583837 0.0197954 -3.1379e-21)
(0.0550915 0.0223848 -2.50303e-23)
(0.0514331 0.0251913 1.24094e-24)
(0.0473459 0.0280696 1.63852e-24)
(0.0427422 0.0307382 2.15694e-24)
(0.0374923 0.0327108 -5.40435e-23)
(0.031404 0.0332001 -2.48178e-23)
(0.0242343 0.0309822 -2.36239e-23)
(0.0157062 0.0242837 0)
(0.00516775 0.0108128 7.26231e-24)
(0.0893063 0.0027091 -2.83244e-23)
(0.0888383 0.00289025 7.44186e-22)
(0.0883414 0.00308811 7.68913e-22)
(0.0878132 0.00330469 1.96142e-23)
(0.0872509 0.00354229 -8.15362e-22)
(0.0866517 0.00380355 0)
(0.0860122 0.00409153 0)
(0.0853287 0.00440979 -9.09623e-22)
(0.0845971 0.00476246 8.96558e-22)
(0.0838129 0.00515438 9.66041e-22)
(0.082971 0.00559123 -9.67472e-22)
(0.0820659 0.00607973 0)
(0.0810912 0.0066278 1.08022e-21)
(0.0800401 0.00724489 -1.0823e-21)
(0.0789048 0.00794225 0)
(0.0776771 0.00873333 -2.34161e-21)
(0.0763478 0.00963421 2.3633e-21)
(0.0749069 0.0106641 -1.95275e-23)
(0.073344 0.0118457 -2.61064e-21)
(0.0716482 0.0132056 2.63487e-21)
(0.0698083 0.0147739 0)
(0.0678131 0.0165834 2.9535e-21)
(0.0656512 0.0186666 -2.93528e-21)
(0.0633106 0.0210498 2.37608e-23)
(0.0607765 0.023743 3.23261e-21)
(0.0580276 0.0267222 -6.483e-21)
(0.0550282 0.0299027 2.09831e-23)
(0.0517148 0.0331 3.76703e-23)
(0.0479722 0.0359774 3.35762e-21)
(0.0435927 0.0379775 3.71345e-24)
(0.0382154 0.0382231 -2.88729e-21)
(0.031274 0.0353586 2.95992e-21)
(0.0218173 0.0274222 0)
(0.00750683 0.0120047 2.66335e-23)
(0.0894356 0.00317766 -5.06488e-24)
(0.0889784 0.00339095 7.75413e-22)
(0.0884939 0.00362408 1.23987e-23)
(0.0879796 0.00387943 0)
(0.0874332 0.00415974 0)
(0.086852 0.00446816 -8.71273e-22)
(0.0862331 0.00480835 8.73474e-22)
(0.0855732 0.00518453 0)
(0.0848689 0.00560165 1.47016e-23)
(0.0841162 0.00606545 0)
(0.083311 0.00658268 -1.0155e-21)
(0.0824486 0.00716131 2.06751e-21)
(0.0815241 0.0078107 -1.05208e-21)
(0.0805321 0.00854197 -2.22939e-21)
(0.079467 0.00936828 -7.44829e-23)
(0.0783229 0.0103052 -7.84545e-23)
(0.0770938 0.0113713 -8.23082e-23)
(0.0757739 0.0125883 2.50499e-21)
(0.0743578 0.0139813 2.68579e-21)
(0.0728414 0.015579 -2.69218e-21)
(0.0712218 0.0174126 0)
(0.0694984 0.0195138 2.97443e-21)
(0.0676729 0.0219104 -2.98135e-21)
(0.065749 0.024618 -3.16146e-21)
(0.0637296 0.0276271 3.14404e-21)
(0.0616114 0.0308819 2.56763e-23)
(0.0593734 0.0342506 3.15373e-21)
(0.0569568 0.0374858 -1.03774e-22)
(0.0542321 0.0401762 -3.11497e-21)
(0.0509384 0.041697 2.37762e-23)
(0.0465964 0.0411484 0)
(0.0403992 0.0372333 -1.90189e-23)
(0.0305751 0.0281919 -9.31291e-22)
(0.0120841 0.0119365 4.12241e-22)
(-0.000198031 0.000270255 0)
(-0.000869658 0.00052009 3.16509e-22)
(-0.00188199 0.000588095 -3.16985e-22)
(-0.00292165 0.000556452 -3.16662e-22)
(-0.00383863 0.000470404 3.17138e-22)
(-0.00457242 0.00035673 -9.80032e-24)
(-0.00509344 0.000231561 0)
(-0.00538913 0.000104276 0)
(-0.00545821 -1.98264e-05 0)
(-0.00531061 -0.000139659 0)
(-0.00495794 -0.000253182 0)
(-0.00440862 -0.000359688 0)
(-0.00367363 -0.000459027 0)
(-0.00276463 -0.000551475 0)
(-0.00169267 -0.000637349 0)
(-0.00046856 -0.000716719 1.12266e-22)
(0.000897013 -0.000789831 -1.05569e-22)
(0.00239366 -0.000856944 0)
(0.00401133 -0.00091824 0)
(0.00574017 -0.000973889 -8.92101e-23)
(0.00757054 -0.00102403 8.93463e-23)
(0.00949301 -0.00106876 -7.25202e-23)
(-0.00025877 0.000777323 -1.19926e-21)
(-0.000973991 0.00149132 -1.31086e-21)
(-0.00190364 0.00168631 1.29218e-21)
(-0.00281042 0.00159419 -6.22211e-22)
(-0.00358185 0.00134408 6.23238e-22)
(-0.00417395 0.00101354 9.86833e-24)
(-0.00456567 0.000649023 -1.95885e-23)
(-0.00474802 0.00027754 -6.24042e-22)
(-0.00472211 -8.54299e-05 6.05631e-22)
(-0.00449647 -0.000436195 -1.8309e-23)
(-0.00407964 -0.000769119 -1.77852e-23)
(-0.00347933 -0.00108237 5.38473e-22)
(-0.00270518 -0.0013749 -5.39189e-22)
(-0.00176754 -0.00164758 -4.97924e-22)
(-0.000675904 -0.00190133 2.22541e-23)
(0.000560218 -0.00213596 4.76968e-22)
(0.00193093 -0.00235247 -6.90184e-24)
(0.00342676 -0.00255143 -1.32088e-23)
(0.00503846 -0.0027333 0)
(0.00675688 -0.00289853 0)
(0.00857298 -0.00304753 0)
(0.0104778 -0.00318057 -5.07309e-24)
(-0.000364746 0.00118937 -1.23926e-21)
(-0.00114556 0.00225767 1.36069e-21)
(-0.00189903 0.00255727 -1.32006e-21)
(-0.00254248 0.00241332 -2.06219e-23)
(-0.00303119 0.00202327 -3.1482e-25)
(-0.00335088 0.00150742 -1.26662e-21)
(-0.00349602 0.00093647 1.30815e-21)
(-0.00346317 0.000351854 1.25633e-21)
(-0.00325686 -0.000222046 -1.19249e-23)
(-0.00288361 -0.000778488 -2.36336e-21)
(-0.00234678 -0.00130883 2.3311e-21)
(-0.00165132 -0.00181067 -1.12159e-21)
(-0.000804133 -0.00228055 -1.70019e-23)
(0.000186181 -0.0027202 0)
(0.0013137 -0.00313004 9.88943e-22)
(0.00257109 -0.0035106 -6.11754e-23)
(0.00394978 -0.00386284 -9.14612e-22)
(0.00544241 -0.00418727 2.68686e-23)
(0.00704121 -0.00448449 0)
(0.00873827 -0.00475512 0)
(0.0105257 -0.00499968 3.45519e-22)
(0.0123955 -0.00521856 -3.35302e-22)
(-0.000488205 0.00142903 -2.65955e-21)
(-0.00130422 0.00270272 0)
(-0.00176149 0.00307715 2.77459e-21)
(-0.00202019 0.00289351 -5.55526e-21)
(-0.00210687 0.00240272 2.80177e-21)
(-0.00204619 0.00175221 1.29154e-21)
(-0.00185192 0.00102772 -1.355e-21)
(-0.00152518 0.000281256 1.27762e-21)
(-0.00107332 -0.000460777 -2.5435e-21)
(-0.000500414 -0.00118539 1.24626e-21)
(0.000196518 -0.00188037 1.87867e-23)
(0.00101818 -0.00254024 2.54215e-25)
(0.00196186 -0.00316322 1.72944e-23)
(0.00302102 -0.00374957 -1.06599e-21)
(0.00419353 -0.00429837 1.03356e-21)
(0.00547531 -0.00481062 3.06918e-23)
(0.00686102 -0.00528652 -1.44785e-23)
(0.00834532 -0.00572647 8.61894e-22)
(0.00992241 -0.00613096 -8.61942e-22)
(0.0115862 -0.00650051 -1.24659e-23)
(0.0133303 -0.00683558 0)
(0.0151481 -0.00713652 2.59973e-25)
(-0.000545168 0.00142639 -1.46627e-24)
(-0.00127054 0.00275393 -2.46682e-23)
(-0.00131549 0.00316309 -2.39786e-23)
(-0.00108563 0.00296317 -2.33624e-23)
(-0.000681119 0.00242555 -4.50838e-23)
(-0.000168554 0.00170394 -4.38284e-25)
(0.000422464 0.000892726 2.14045e-23)
(0.00108526 4.99327e-05 -2.12624e-23)
(0.00181444 -0.000810475 -2.07166e-23)
(0.00261401 -0.00165648 2.50071e-21)
(0.00349288 -0.00247393 -1.164e-22)
(0.00445426 -0.00325621 -2.45977e-21)
(0.0055006 -0.00400242 2.2542e-21)
(0.00663227 -0.0047096 -2.25421e-21)
(0.00784992 -0.00537614 1.04422e-21)
(0.00915283 -0.00600182 -1.07567e-21)
(0.0105391 -0.00658631 1.53417e-23)
(0.012006 -0.0071295 -1.42602e-23)
(0.0135501 -0.00763138 -1.37855e-23)
(0.0151674 -0.00809205 1.26836e-23)
(0.0168534 -0.00851167 0)
(0.018603 -0.00889034 -2.25158e-23)
(0.0204111 -0.00922798 0)
(-0.000428611 0.00118158 4.96279e-23)
(-0.000768966 0.00237736 -1.53816e-24)
(-0.000288275 0.00276229 -3.1574e-21)
(0.000495392 0.00258094 3.22822e-21)
(0.00142143 0.00206889 -7.37793e-25)
(0.00240139 0.00136054 -2.90641e-21)
(0.00339953 0.000546414 7.00671e-23)
(0.00439407 -0.00033065 1.1581e-22)
(0.00539249 -0.00124289 5.52254e-21)
(0.00641697 -0.0021506 -2.69895e-21)
(0.00747151 -0.00304308 4.06501e-23)
(0.00856475 -0.00391082 2.4696e-21)
(0.00970525 -0.0047477 -2.44717e-21)
(0.010899 -0.00554894 0)
(0.0121505 -0.00631141 -2.1856e-21)
(0.0134626 -0.00703303 2.19889e-21)
(0.0148365 -0.00771221 -1.57268e-23)
(0.0162726 -0.00834773 -1.8794e-21)
(0.0177697 -0.00893866 1.89072e-21)
(0.0193261 -0.00948435 -1.36404e-23)
(0.020939 -0.00998434 7.8215e-22)
(0.0226054 -0.0104383 -7.57359e-22)
(0.0243213 -0.0108457 0)
(-0.00011561 0.000639816 -6.84589e-21)
(0.000507213 0.00137061 3.86183e-21)
(0.00167403 0.00167621 -2.72939e-23)
(0.00302512 0.00159561 0)
(0.0044328 0.0012379 2.54289e-23)
(0.00582085 0.000679352 3.12811e-21)
(0.00715852 -2.95597e-05 -8.67731e-23)
(0.00843374 -0.00085626 -3.07481e-21)
(0.0096621 -0.00174103 2.26115e-23)
(0.0108659 -0.00265237 -2.78925e-21)
(0.0120571 -0.00357245 2.76144e-21)
(0.0132495 -0.00448579 2.60333e-21)
(0.0144559 -0.00538133 -2.59713e-21)
(0.0156863 -0.00625097 0)
(0.0169488 -0.00708866 2.30434e-21)
(0.0182493 -0.00788973 -2.29878e-21)
(0.0195921 -0.00865056 -2.09287e-21)
(0.0209798 -0.00936826 1.03183e-22)
(0.0224137 -0.0100405 1.04456e-22)
(0.0238939 -0.0106656 1.19204e-22)
(0.0254195 -0.011242 1.76116e-21)
(0.0269889 -0.0117687 7.61032e-22)
(0.0285999 -0.0122448 -1.49075e-21)
(3.0839e-05 -0.000333251 0)
(0.00271278 0.000156216 0)
(0.00475759 0.00047377 0)
(0.00659147 0.000469791 0)
(0.00835156 0.000208803 0)
(0.010006 -0.000250059 0)
(0.0115469 -0.000873904 0)
(0.0129999 -0.00162489 0)
(0.0143862 -0.00245374 0)
(0.0157155 -0.0033327 0)
(0.0170034 -0.00423963 0)
(0.0182664 -0.00515666 0)
(0.0195192 -0.00607018 0)
(0.0207738 -0.00696961 0)
(0.02204 -0.00784655 0)
(0.0233258 -0.00869429 0)
(0.0246369 -0.00950738 0)
(0.0259777 -0.0102813 0)
(0.0273509 -0.0110124 0)
(0.028758 -0.0116976 0)
(0.0301996 -0.0123344 0)
(0.0316751 -0.0129208 0)
(0.0331833 -0.0134549 0)
(0.0347226 -0.0139347 0)
(0.00508738 -0.00257552 0)
(0.00800327 -0.00207038 0)
(0.0102466 -0.00165045 0)
(0.0121693 -0.00153265 0)
(0.01402 -0.00168124 0)
(0.0157678 -0.00203763 0)
(0.0173981 -0.00255696 0)
(0.0189286 -0.00320156 0)
(0.0203768 -0.00394398 0)
(0.0217554 -0.00475658 0)
(0.0230792 -0.00561495 0)
(0.0243633 -0.00649932 0)
(0.0256214 -0.00739389 0)
(0.0268652 -0.00828586 0)
(0.0281048 -0.00916479 0)
(0.0293484 -0.010022 0)
(0.0306026 -0.0108504 0)
(0.0318725 -0.0116439 0)
(0.0331617 -0.0123975 0)
(0.0344727 -0.0131069 0)
(0.035807 -0.0137687 0)
(0.0371651 -0.0143799 0)
(0.0385468 -0.0149381 0)
(0.0135496 -0.00444189 0)
(0.0160316 -0.00403878 0)
(0.0179895 -0.00362846 0)
(0.019648 -0.00344263 0)
(0.0213143 -0.00349576 0)
(0.0229412 -0.00375035 0)
(0.0244894 -0.00417221 0)
(0.0259594 -0.00473013 0)
(0.0273589 -0.00539672 0)
(0.0286956 -0.00614549 0)
(0.0299794 -0.00695288 0)
(0.031221 -0.0077989 0)
(0.0324308 -0.00866674 0)
(0.0336185 -0.00954224 0)
(0.0347926 -0.0104134 0)
(0.0359606 -0.0112702 0)
(0.0371286 -0.012104 0)
(0.0383016 -0.0129074 0)
(0.0394835 -0.0136742 0)
(0.0406771 -0.0143992 0)
(0.0418843 -0.0150778 0)
(0.0431063 -0.0157064 0)
(0.0443437 -0.0162817 0)
(0.0244389 -0.00557028 0)
(0.0261942 -0.00537274 0)
(0.0276111 -0.00510838 0)
(0.0287888 -0.00497134 0)
(0.0300699 -0.00501482 0)
(0.0313986 -0.00522959 0)
(0.0327115 -0.00559795 0)
(0.0339916 -0.00609898 0)
(0.0352339 -0.0067098 0)
(0.0364368 -0.00740755 0)
(0.037602 -0.008171 0)
(0.0387338 -0.00898117 0)
(0.0398379 -0.00982137 0)
(0.0409202 -0.010677 0)
(0.0419864 -0.0115354 0)
(0.043042 -0.0123855 0)
(0.0440918 -0.0132179 0)
(0.0451399 -0.0140241 0)
(0.0461896 -0.014797 0)
(0.0472436 -0.0155305 0)
(0.0483039 -0.0162194 0)
(0.0493718 -0.0168594 0)
(0.0504482 -0.0174465 0)
(0.0368888 -0.00591508 0)
(0.0378157 -0.00599147 0)
(0.0385891 -0.0059729 0)
(0.0391887 -0.00599247 0)
(0.0399713 -0.00612207 0)
(0.040886 -0.00637621 0)
(0.0418539 -0.00675311 0)
(0.0428436 -0.00724356 0)
(0.0438387 -0.00783311 0)
(0.0448275 -0.00850487 0)
(0.0458032 -0.00924166 0)
(0.0467632 -0.010027 0)
(0.0477071 -0.0108457 0)
(0.0486365 -0.0116837 0)
(0.0495535 -0.0125287 0)
(0.0504607 -0.0133695 0)
(0.0513609 -0.0141961 0)
(0.0522566 -0.0149999 0)
(0.0531501 -0.015773 0)
(0.0540435 -0.0165089 0)
(0.0549384 -0.0172019 0)
(0.0558359 -0.017847 0)
(0.0567371 -0.0184402 0)
(0.0500883 -0.00551766 0)
(0.0502138 -0.00590659 0)
(0.0503456 -0.00619294 0)
(0.0503629 -0.00644585 0)
(0.0506147 -0.00673935 0)
(0.051064 -0.00710411 0)
(0.0516273 -0.00755113 0)
(0.0522644 -0.00808205 0)
(0.0529508 -0.00869142 0)
(0.0536669 -0.00936939 0)
(0.0543987 -0.010104 0)
(0.0551369 -0.0108824 0)
(0.0558757 -0.0116921 0)
(0.0566121 -0.0125208 0)
(0.0573442 -0.0133572 0)
(0.0580717 -0.0141906 0)
(0.0587948 -0.0150115 0)
(0.0595142 -0.0158112 0)
(0.0602309 -0.0165819 0)
(0.0609458 -0.0173168 0)
(0.0616599 -0.0180101 0)
(0.062374 -0.0186565 0)
(0.0630889 -0.0192517 0)
(0.0633035 -0.00448937 0)
(0.0627409 -0.00520337 0)
(0.0623035 -0.00581766 0)
(0.0618009 -0.00634641 0)
(0.0615546 -0.00685519 0)
(0.0615451 -0.00738347 0)
(0.0616934 -0.00795097 0)
(0.0619564 -0.00856761 0)
(0.0623059 -0.00923585 0)
(0.0627177 -0.00995263 0)
(0.0631728 -0.0107115 0)
(0.063657 -0.011504 0)
(0.0641602 -0.0123207 0)
(0.064675 -0.013152 0)
(0.0651963 -0.0139882 0)
(0.0657209 -0.0148199 0)
(0.0662464 -0.0156385 0)
(0.0667718 -0.0164358 0)
(0.0672964 -0.0172045 0)
(0.0678199 -0.0179378 0)
(0.0683426 -0.0186299 0)
(0.0688645 -0.0192759 0)
(0.0693862 -0.0198712 0)
(0.0759104 -0.00298786 0)
(0.0748239 -0.00401732 0)
(0.0739331 -0.00495249 0)
(0.0730152 -0.00576785 0)
(0.0723497 -0.00651536 0)
(0.0719333 -0.0072375 0)
(0.071698 -0.00795871 0)
(0.071603 -0.00869419 0)
(0.07162 -0.00945225 0)
(0.071724 -0.0102355 0)
(0.0718936 -0.0110426 0)
(0.072112 -0.0118692 0)
(0.0723659 -0.0127095 0)
(0.0726452 -0.0135564 0)
(0.0729423 -0.0144025 0)
(0.0732513 -0.0152402 0)
(0.0735681 -0.016062 0)
(0.0738897 -0.0168607 0)
(0.074214 -0.0176296 0)
(0.0745398 -0.0183627 0)
(0.0748662 -0.0190543 0)
(0.0751928 -0.0196998 0)
(0.0755196 -0.020295 0)
(0.087424 -0.00118989 0)
(0.085998 -0.00250621 0)
(0.0847908 -0.00373204 0)
(0.0835822 -0.00481852 0)
(0.0826028 -0.00580307 0)
(0.0818617 -0.00672702 0)
(0.0813048 -0.00761633 0)
(0.0808974 -0.0084887 0)
(0.0806143 -0.00935606 0)
(0.0804322 -0.0102251 0)
(0.0803302 -0.0110984 0)
(0.0802908 -0.0119753 0)
(0.0802995 -0.0128532 0)
(0.0803449 -0.0137276 0)
(0.0804177 -0.0145935 0)
(0.0805104 -0.0154451 0)
(0.0806176 -0.0162763 0)
(0.0807348 -0.0170812 0)
(0.080859 -0.0178541 0)
(0.0809879 -0.0185895 0)
(0.0811199 -0.0192825 0)
(0.081254 -0.0199289 0)
(0.0813897 -0.0205247 0)
(0.0975148 0.00073123 0)
(0.0959279 -0.000828199 0)
(0.0945434 -0.00229829 0)
(0.0931711 -0.0036211 0)
(0.0919921 -0.00482109 0)
(0.0910228 -0.00593574 0)
(0.0902243 -0.00699022 0)
(0.0895697 -0.00800256 0)
(0.0890388 -0.00898622 0)
(0.088612 -0.00995029 0)
(0.0882708 -0.0109 0)
(0.0879989 -0.0118376 0)
(0.0877825 -0.0127628 0)
(0.0876098 -0.0136737 0)
(0.0874711 -0.0145673 0)
(0.0873584 -0.0154395 0)
(0.0872654 -0.0162858 0)
(0.0871871 -0.0171016 0)
(0.0871196 -0.0178822 0)
(0.08706 -0.0186231 0)
(0.0870062 -0.0193201 0)
(0.0869567 -0.0199693 0)
(0.0869108 -0.0205675 0)
(0.106007 0.00262297 0)
(0.104414 0.000874897 0)
(0.102979 -0.000783922 0)
(0.101559 -0.00229627 0)
(0.100289 -0.00367645 0)
(0.0991892 -0.00495658 0)
(0.0982346 -0.00615951 0)
(0.0974069 -0.00730203 0)
(0.0966916 -0.00839756 0)
(0.0960738 -0.00945608 0)
(0.0955386 -0.0104843 0)
(0.0950724 -0.0114861 0)
(0.094663 -0.0124632 0)
(0.0942997 -0.0134155 0)
(0.0939732 -0.0143415 0)
(0.093676 -0.0152388 0)
(0.0934016 -0.0161045 0)
(0.0931448 -0.0169349 0)
(0.0929016 -0.0177265 0)
(0.0926688 -0.0184757 0)
(0.0924441 -0.019179 0)
(0.0922257 -0.0198332 0)
(0.0920126 -0.0204357 0)
(0.112864 0.00436508 0)
(0.111384 0.00248794 0)
(0.110003 0.000699098 0)
(0.10863 -0.000950653 0)
(0.107363 -0.00246827 0)
(0.106221 -0.0038799 0)
(0.105192 -0.00520511 0)
(0.104265 -0.00645854 0)
(0.103431 -0.00765244 0)
(0.102681 -0.00879651 0)
(0.102003 -0.00989786 0)
(0.101388 -0.0109612 0)
(0.100826 -0.0119893 0)
(0.100307 -0.0129834 0)
(0.0998246 -0.0139431 0)
(0.0993711 -0.0148673 0)
(0.098941 -0.0157542 0)
(0.0985295 -0.0166013 0)
(0.0981328 -0.0174059 0)
(0.0977477 -0.0181653 0)
(0.097372 -0.0188767 0)
(0.097004 -0.0195377 0)
(0.0966426 -0.020146 0)
(0.118158 0.00587499 0)
(0.116872 0.00392767 0)
(0.115621 0.00206557 0)
(0.114367 0.000330441 0)
(0.113175 -0.00127971 0)
(0.112065 -0.00278502 0)
(0.111031 -0.00420128 0)
(0.11007 -0.00554053 0)
(0.10918 -0.00681316 0)
(0.108354 -0.00802781 0)
(0.107587 -0.00919118 0)
(0.10687 -0.0103081 0)
(0.106198 -0.0113817 0)
(0.105563 -0.0124138 0)
(0.10496 -0.013405 0)
(0.104383 -0.0143549 0)
(0.103827 -0.0152626 0)
(0.103289 -0.0161264 0)
(0.102765 -0.0169444 0)
(0.102252 -0.0177147 0)
(0.101749 -0.0184351 0)
(0.101254 -0.0191038 0)
(0.100767 -0.0197189 0)
(0.12204 0.00710752 0)
(0.120993 0.00514358 0)
(0.119921 0.00325883 0)
(0.118831 0.00148604 0)
(0.117765 -0.000173813 0)
(0.116739 -0.00173517 0)
(0.115756 -0.00321001 0)
(0.114816 -0.0046076 0)
(0.113922 -0.00593615 0)
(0.113071 -0.0072028 0)
(0.112261 -0.0084133 0)
(0.111488 -0.00957201 0)
(0.110748 -0.010682 0)
(0.110036 -0.0117453 0)
(0.109349 -0.0127627 0)
(0.108682 -0.0137345 0)
(0.108033 -0.0146602 0)
(0.107398 -0.0155389 0)
(0.106775 -0.0163692 0)
(0.106162 -0.0171496 0)
(0.105557 -0.0178787 0)
(0.10496 -0.018555 0)
(0.104369 -0.0191773 0)
(0.124708 0.00804994 0)
(0.123912 0.00611416 0)
(0.123041 0.00424889 0)
(0.122139 0.00247905 0)
(0.121229 0.000807391 0)
(0.120322 -0.000775598 0)
(0.119427 -0.00227824 0)
(0.118549 -0.0037071 0)
(0.117692 -0.0050682 0)
(0.116858 -0.00636696 0)
(0.116045 -0.0076079 0)
(0.115255 -0.00879458 0)
(0.114484 -0.00992964 0)
(0.113732 -0.0110149 0)
(0.112995 -0.0120512 0)
(0.112271 -0.0130391 0)
(0.11156 -0.0139783 0)
(0.110857 -0.0148683 0)
(0.110164 -0.0157081 0)
(0.109477 -0.0164968 0)
(0.108796 -0.0172331 0)
(0.108121 -0.017916 0)
(0.107452 -0.0185447 0)
(0.126375 0.00871446 0)
(0.12582 0.00684117 0)
(0.125153 0.00502789 0)
(0.124442 0.00329326 0)
(0.123699 0.00164103 0)
(0.12293 6.57711e-05 0)
(0.122147 -0.00143755 0)
(0.121357 -0.00287307 0)
(0.120566 -0.00424474 0)
(0.119778 -0.00555626 0)
(0.118995 -0.00681084 0)
(0.118218 -0.00801108 0)
(0.117449 -0.00915895 0)
(0.116686 -0.0102558 0)
(0.11593 -0.0113026 0)
(0.115179 -0.0122994 0)
(0.114433 -0.0132463 0)
(0.113691 -0.0141429 0)
(0.112953 -0.0149884 0)
(0.112217 -0.0157822 0)
(0.111485 -0.0165233 0)
(0.110757 -0.0172109 0)
(0.110032 -0.0178445 0)
(0.12725 0.00912997 0)
(0.12691 0.00734294 0)
(0.126435 0.00560462 0)
(0.125906 0.00392894 0)
(0.125327 0.00232013 0)
(0.1247 0.000776058 0)
(0.124038 -0.000705585 0)
(0.12335 -0.00212682 0)
(0.122642 -0.00348978 0)
(0.121921 -0.00479659 0)
(0.12119 -0.0060492 0)
(0.120451 -0.0072492 0)
(0.119707 -0.00839784 0)
(0.118959 -0.00949597 0)
(0.118208 -0.0105441 0)
(0.117454 -0.0115422 0)
(0.116698 -0.0124904 0)
(0.11594 -0.0133881 0)
(0.115181 -0.0142348 0)
(0.11442 -0.0150298 0)
(0.113659 -0.0157726 0)
(0.112898 -0.0164623 0)
(0.112138 -0.0170987 0)
(0.127523 0.00933437 0)
(0.127367 0.00764785 0)
(0.12706 0.00599892 0)
(0.126695 0.00439806 0)
(0.126266 0.00284972 0)
(0.125776 0.00135428 0)
(0.125234 -8.84131e-05 0)
(0.124652 -0.00147865 0)
(0.124037 -0.00281703 0)
(0.123394 -0.00410436 0)
(0.122728 -0.00534141 0)
(0.122042 -0.00652887 0)
(0.121341 -0.00766724 0)
(0.120626 -0.0087568 0)
(0.119898 -0.00979763 0)
(0.119161 -0.0107896 0)
(0.118414 -0.0117324 0)
(0.11766 -0.0126256 0)
(0.116899 -0.0134686 0)
(0.116132 -0.0142608 0)
(0.115361 -0.0150016 0)
(0.114587 -0.0156904 0)
(0.113811 -0.016327 0)
(0.127358 0.00936834 0)
(0.127349 0.00778878 0)
(0.127185 0.00623659 0)
(0.12696 0.00471977 0)
(0.126664 0.00324283 0)
(0.126297 0.00180794 0)
(0.125868 0.000416584 0)
(0.125389 -0.000930183 0)
(0.124866 -0.00223176 0)
(0.124304 -0.00348784 0)
(0.12371 -0.00469823 0)
(0.123087 -0.0058628 0)
(0.122438 -0.00698139 0)
(0.121768 -0.00805375 0)
(0.121078 -0.00907955 0)
(0.120371 -0.0100584 0)
(0.119648 -0.0109897 0)
(0.118913 -0.0118729 0)
(0.118166 -0.0127074 0)
(0.117409 -0.0134925 0)
(0.116643 -0.0142276 0)
(0.115871 -0.0149123 0)
(0.115095 -0.0155462 0)
(0.126887 0.00927092 0)
(0.126991 0.00779896 0)
(0.126943 0.00634543 0)
(0.126833 0.00491661 0)
(0.126649 0.00351693 0)
(0.126388 0.00214981 0)
(0.126061 0.000817877 0)
(0.125677 -0.000476844 0)
(0.125241 -0.00173283 0)
(0.124759 -0.00294889 0)
(0.124237 -0.00412408 0)
(0.123679 -0.0052576 0)
(0.123089 -0.00634871 0)
(0.12247 -0.0073967 0)
(0.121826 -0.00840086 0)
(0.121158 -0.00936047 0)
(0.120471 -0.0102748 0)
(0.119765 -0.0111431 0)
(0.119043 -0.0119646 0)
(0.118307 -0.0127387 0)
(0.11756 -0.0134646 0)
(0.116803 -0.0141419 0)
(0.116038 -0.0147703 0)
(0.126214 0.00907692 0)
(0.126402 0.00770915 0)
(0.126443 0.00635238 0)
(0.126424 0.00501164 0)
(0.126331 0.00369123 0)
(0.126161 0.00239532 0)
(0.125921 0.00112731 0)
(0.125619 -0.000110101 0)
(0.125263 -0.00131473 0)
(0.124856 -0.00248475 0)
(0.124403 -0.00361865 0)
(0.123909 -0.00471507 0)
(0.123379 -0.00577284 0)
(0.122814 -0.00679086 0)
(0.122219 -0.00776809 0)
(0.121597 -0.00870355 0)
(0.12095 -0.0095963 0)
(0.120282 -0.0104454 0)
(0.119593 -0.0112501 0)
(0.118887 -0.0120096 0)
(0.118166 -0.0127231 0)
(0.117433 -0.0133901 0)
(0.116689 -0.0140103 0)
(0.125418 0.00881557 0)
(0.125664 0.00754616 0)
(0.125772 0.00628177 0)
(0.125823 0.00502656 0)
(0.125802 0.00378463 0)
(0.125704 0.00256055 0)
(0.125537 0.00135819 0)
(0.125307 0.000180675 0)
(0.125019 -0.000969367 0)
(0.124679 -0.00208968 0)
(0.124291 -0.00317832 0)
(0.123858 -0.00423356 0)
(0.123384 -0.00525386 0)
(0.122874 -0.00623782 0)
(0.12233 -0.00718415 0)
(0.121755 -0.00809165 0)
(0.121152 -0.00895921 0)
(0.120524 -0.00978578 0)
(0.119874 -0.0105704 0)
(0.119203 -0.0113122 0)
(0.118515 -0.0120105 0)
(0.117812 -0.0126646 0)
(0.117095 -0.0132741 0)
(0.124557 0.00851037 0)
(0.12484 0.00733222 0)
(0.124997 0.00615444 0)
(0.125099 0.00498055 0)
(0.125132 0.00381444 0)
(0.125091 0.00266083 0)
(0.124983 0.00152382 0)
(0.124812 0.000406752 0)
(0.124584 -0.000687465 0)
(0.124302 -0.0017563 0)
(0.123971 -0.00279751 0)
(0.123593 -0.00380911 0)
(0.123174 -0.00478932 0)
(0.122715 -0.00573651 0)
(0.12222 -0.0066492 0)
(0.121692 -0.00752601 0)
(0.121134 -0.00836571 0)
(0.120548 -0.00916712 0)
(0.119938 -0.00992921 0)
(0.119306 -0.010651 0)
(0.118654 -0.0113317 0)
(0.117985 -0.0119707 0)
(0.117301 -0.0125675 0)
(0.12367 0.00817946 0)
(0.123975 0.00708503 0)
(0.124164 0.00598748 0)
(0.124302 0.00488984 0)
(0.124376 0.00379577 0)
(0.124379 0.00270997 0)
(0.124317 0.00163658 0)
(0.124195 0.000579055 0)
(0.124016 -0.00045957 0)
(0.123784 -0.0014766 0)
(0.123502 -0.00246963 0)
(0.123174 -0.0034365 0)
(0.122803 -0.00437525 0)
(0.122392 -0.00528412 0)
(0.121943 -0.00616149 0)
(0.121461 -0.00700587 0)
(0.120946 -0.00781589 0)
(0.120403 -0.00859033 0)
(0.119834 -0.00932806 0)
(0.119241 -0.0100281 0)
(0.118627 -0.0106895 0)
(0.117994 -0.0113116 0)
(0.117344 -0.0118939 0)
(0.122784 0.00783633 0)
(0.1231 0.00681821 0)
(0.12331 0.00579442 0)
(0.123472 0.00476762 0)
(0.123574 0.00374123 0)
(0.12361 0.00271981 0)
(0.123584 0.00170743 0)
(0.123501 0.00070756 0)
(0.123362 -0.000276744 0)
(0.123172 -0.00124271 0)
(0.122933 -0.00218786 0)
(0.122648 -0.00310992 0)
(0.12232 -0.00400687 0)
(0.121952 -0.00487682 0)
(0.121546 -0.00571808 0)
(0.121105 -0.00652909 0)
(0.120633 -0.0073084 0)
(0.12013 -0.00805474 0)
(0.119601 -0.00876691 0)
(0.119047 -0.00944388 0)
(0.118471 -0.0100847 0)
(0.117875 -0.0106887 0)
(0.117261 -0.0112553 0)
(0.121918 0.0074907 0)
(0.122236 0.0065419 0)
(0.122457 0.00558566 0)
(0.122634 0.0046243 0)
(0.122756 0.00366103 0)
(0.122815 0.00270018 0)
(0.122817 0.00174571 0)
(0.122763 0.000800983 0)
(0.122658 -0.000130951 0)
(0.122502 -0.00104733 0)
(0.122299 -0.00194564 0)
(0.122051 -0.0028236 0)
(0.121761 -0.00367913 0)
(0.121431 -0.0045103 0)
(0.121064 -0.00531537 0)
(0.120662 -0.00609274 0)
(0.120228 -0.00684093 0)
(0.119765 -0.00755862 0)
(0.119273 -0.0082446 0)
(0.118757 -0.00889778 0)
(0.118218 -0.00951722 0)
(0.117658 -0.0101022 0)
(0.11708 -0.010652 0)
(0.121082 0.00714931 0)
(0.121395 0.00626345 0)
(0.121621 0.00536894 0)
(0.121807 0.00446787 0)
(0.12194 0.0035632 0)
(0.122017 0.00265902 0)
(0.122038 0.00175909 0)
(0.122008 0.000866692 0)
(0.121928 -1.52317e-05 0)
(0.121801 -0.00088396 0)
(0.121628 -0.001737 0)
(0.121412 -0.00257209 0)
(0.121155 -0.00338712 0)
(0.120859 -0.00418018 0)
(0.120527 -0.00494952 0)
(0.12016 -0.0056935 0)
(0.119762 -0.00641065 0)
(0.119334 -0.00709963 0)
(0.118878 -0.0077592 0)
(0.118398 -0.00838827 0)
(0.117894 -0.00898589 0)
(0.11737 -0.00955127 0)
(0.116826 -0.0100838 0)
(0.120281 0.00681664 0)
(0.120586 0.00598797 0)
(0.120812 0.0051499 0)
(0.121001 0.00430429 0)
(0.121142 0.0034539 0)
(0.121229 0.00260255 0)
(0.121265 0.00175379 0)
(0.121253 0.000910747 0)
(0.121194 7.62666e-05 0)
(0.12109 -0.000747014 0)
(0.120942 -0.00155666 0)