/*--------------------------------*- C++ -*----------------------------------*\
| =========                 |                                                 |
| \\      /  F ield         | OpenFOAM: The Open Source CFD Toolbox           |
|  \\    /   O peration     | Version:  2412                                  |
|   \\  /    A nd           | Website:  www.openfoam.com                      |
|    \\/     M anipulation  |                                                 |
\*---------------------------------------------------------------------------*/
FoamFile
{
    version     2.0;
    format      ascii;
    arch        "LSB;label=32;scalar=64";
    class       volVectorField;
    location    "26.5";
    object      U;
}
// * * * * * * * * * * * * * * * * * * * * * * * * * * * * * * * * * * * * * //

dimensions      [0 1 -1 0 0 0 0];

internalField   nonuniform List<vector> 
5285
(
(0.0982951 0.00443852 0)
(0.0982962 0.00457357 0)
(0.0983002 0.00471349 0)
(0.0983073 0.00485839 0)
(0.098318 0.00500838 0)
(0.0983324 0.00516357 0)
(0.098351 0.00532406 0)
(0.098374 0.00548994 0)
(0.098402 0.0056613 0)
(0.0984353 0.00583821 0)
(0.0984743 0.00602073 0)
(0.0985196 0.0062089 0)
(0.0985717 0.00640273 0)
(0.098631 0.00660221 0)
(0.0986982 0.00680731 0)
(0.0987738 0.00701793 0)
(0.0984263 0.00443642 0)
(0.098432 0.00456863 0)
(0.0984408 0.00470544 0)
(0.0984528 0.00484696 0)
(0.0984684 0.00499325 0)
(0.0984879 0.00514442 0)
(0.0985116 0.00530055 0)
(0.0985399 0.00546169 0)
(0.0985732 0.00562791 0)
(0.0986118 0.00579925 0)
(0.0986563 0.00597575 0)
(0.098707 0.00615742 0)
(0.0987644 0.00634423 0)
(0.0988291 0.00653617 0)
(0.0989015 0.00673314 0)
(0.0989824 0.00693504 0)
(0.0985547 0.00442984 0)
(0.0985648 0.00455911 0)
(0.098578 0.00469272 0)
(0.0985947 0.00483075 0)
(0.0986149 0.00497327 0)
(0.0986392 0.00512034 0)
(0.0986677 0.00527202 0)
(0.0987009 0.00542837 0)
(0.098739 0.0055894 0)
(0.0987826 0.00575515 0)
(0.0988319 0.00592562 0)
(0.0988875 0.00610079 0)
(0.0989498 0.00628064 0)
(0.0990193 0.00646508 0)
(0.0990965 0.00665403 0)
(0.0991819 0.00684733 0)
(0.0986802 0.00441902 0)
(0.0986945 0.00454526 0)
(0.098712 0.00467559 0)
(0.0987329 0.00481007 0)
(0.0987575 0.00494874 0)
(0.0987862 0.00509166 0)
(0.0988191 0.00523886 0)
(0.0988568 0.00539036 0)
(0.0988995 0.00554619 0)
(0.0989475 0.00570634 0)
(0.0990014 0.0058708 0)
(0.0990614 0.00603952 0)
(0.0991281 0.00621245 0)
(0.0992019 0.0063895 0)
(0.0992833 0.00657054 0)
(0.0993727 0.00675541 0)
(0.0988028 0.0044042 0)
(0.098821 0.00452735 0)
(0.0988424 0.00465434 0)
(0.0988674 0.0047852 0)
(0.0988961 0.00491998 0)
(0.0989288 0.00505871 0)
(0.0989659 0.0052014 0)
(0.0990077 0.00534806 0)
(0.0990545 0.00549868 0)
(0.0991067 0.00565325 0)
(0.0991646 0.00581173 0)
(0.0992287 0.00597406 0)
(0.0992993 0.00614016 0)
(0.0993769 0.00630992 0)
(0.0994619 0.0064832 0)
(0.0995549 0.00665982 0)
(0.0989224 0.00438562 0)
(0.0989443 0.00450562 0)
(0.0989695 0.00462922 0)
(0.0989981 0.00475644 0)
(0.0990306 0.0048873 0)
(0.0990672 0.00502181 0)
(0.0991081 0.00515998 0)
(0.0991536 0.0053018 0)
(0.0992042 0.00544723 0)
(0.0992601 0.00559626 0)
(0.0993217 0.00574882 0)
(0.0993894 0.00590484 0)
(0.0994635 0.00606422 0)
(0.0995445 0.00622683 0)
(0.0996327 0.00639252 0)
(0.0997287 0.00656108 0)
(0.0990391 0.0043635 0)
(0.0990644 0.00448033 0)
(0.099093 0.0046005 0)
(0.0991252 0.00472405 0)
(0.0991611 0.00485098 0)
(0.0992012 0.00498127 0)
(0.0992456 0.00511493 0)
(0.0992946 0.00525193 0)
(0.0993486 0.00539222 0)
(0.0994079 0.00553576 0)
(0.0994727 0.00568248 0)
(0.0995436 0.00583228 0)
(0.0996208 0.00598506 0)
(0.0997048 0.00614067 0)
(0.0997958 0.00629894 0)
(0.0998944 0.00645965 0)
(0.0991527 0.00433808 0)
(0.0991812 0.0044517 0)
(0.099213 0.00456844 0)
(0.0992484 0.00468831 0)
(0.0992876 0.0048113 0)
(0.0993309 0.00493739 0)
(0.0993784 0.00506656 0)
(0.0994306 0.00519877 0)
(0.0994877 0.00533397 0)
(0.09955 0.0054721 0)
(0.0996179 0.00561306 0)
(0.0996916 0.00575676 0)
(0.0997715 0.00590307 0)
(0.099858 0.00605185 0)
(0.0999514 0.00620289 0)
(0.100052 0.00635599 0)
(0.0992632 0.00430957 0)
(0.0992947 0.00441997 0)
(0.0993295 0.00453327 0)
(0.0993679 0.00464946 0)
(0.0994101 0.00476853 0)
(0.0994563 0.00489045 0)
(0.0995068 0.00501517 0)
(0.0995618 0.00514265 0)
(0.0996217 0.00527282 0)
(0.0996867 0.00540561 0)
(0.0997572 0.00554093 0)
(0.0998334 0.00567865 0)
(0.0999157 0.00581865 0)
(0.100004 0.00596075 0)
(0.1001 0.00610478 0)
(0.100202 0.00625048 0)
(0.0993707 0.00427818 0)
(0.099405 0.00438537 0)
(0.0994426 0.00449523 0)
(0.0994837 0.00460777 0)
(0.0995286 0.00472294 0)
(0.0995775 0.00484071 0)
(0.0996306 0.00496103 0)
(0.0996882 0.00508384 0)
(0.0997506 0.00520907 0)
(0.099818 0.00533663 0)
(0.0998908 0.0054664 0)
(0.0999692 0.00559829 0)
(0.100053 0.00573212 0)
(0.100144 0.00586775 0)
(0.100241 0.00600495 0)
(0.100345 0.00614351 0)
(0.0994752 0.00424413 0)
(0.0995121 0.00434811 0)
(0.0995522 0.00445456 0)
(0.0995958 0.00456346 0)
(0.0996432 0.00467477 0)
(0.0996945 0.00478845 0)
(0.09975 0.00490443 0)
(0.09981 0.00502264 0)
(0.0998746 0.00514301 0)
(0.0999441 0.00526543 0)
(0.100019 0.0053898 0)
(0.100099 0.00551598 0)
(0.100185 0.00564383 0)
(0.100277 0.00577316 0)
(0.100376 0.00590377 0)
(0.100481 0.00603542 0)
(0.0995767 0.00420762 0)
(0.0996159 0.0043084 0)
(0.0996584 0.00441146 0)
(0.0997043 0.00451676 0)
(0.099754 0.00462426 0)
(0.0998075 0.0047339 0)
(0.0998651 0.0048456 0)
(0.0999271 0.0049593 0)
(0.0999937 0.00507491 0)
(0.100065 0.00519232 0)
(0.100142 0.00531141 0)
(0.100223 0.00543204 0)
(0.100311 0.00555406 0)
(0.100404 0.00567729 0)
(0.100504 0.00580152 0)
(0.100609 0.0059265 0)
(0.0996753 0.00416883 0)
(0.0997166 0.00426645 0)
(0.0997612 0.00436615 0)
(0.0998093 0.0044679 0)
(0.0998609 0.00457164 0)
(0.0999164 0.00467729 0)
(0.099976 0.0047848 0)
(0.10004 0.00489408 0)
(0.100108 0.00500503 0)
(0.100181 0.00511754 0)
(0.100259 0.00523149 0)
(0.100342 0.00534673 0)
(0.100431 0.00546311 0)
(0.100525 0.00558044 0)
(0.100625 0.0056985 0)
(0.100732 0.00581707 0)
(0.0997709 0.00412796 0)
(0.0998143 0.00422244 0)
(0.0998608 0.00431883 0)
(0.0999107 0.00441708 0)
(0.0999642 0.00451711 0)
(0.100021 0.00461886 0)
(0.100083 0.00472226 0)
(0.100148 0.00482721 0)
(0.100218 0.00493362 0)
(0.100292 0.00504135 0)
(0.100371 0.0051503 0)
(0.100456 0.00526031 0)
(0.100545 0.00537122 0)
(0.10064 0.00548285 0)
(0.100741 0.00559497 0)
(0.100847 0.00570736 0)
(0.0998637 0.00408518 0)
(0.0999089 0.00417657 0)
(0.0999571 0.0042697 0)
(0.100009 0.00436449 0)
(0.100064 0.00446089 0)
(0.100123 0.00455882 0)
(0.100185 0.00465819 0)
(0.100252 0.00475891 0)
(0.100323 0.00486088 0)
(0.100399 0.00496398 0)
(0.100479 0.00506808 0)
(0.100564 0.00517302 0)
(0.100654 0.00527864 0)
(0.10075 0.00538476 0)
(0.100851 0.00549117 0)
(0.100957 0.00559762 0)
(0.0999537 0.00404067 0)
(0.1 0.00412901 0)
(0.10005 0.00421892 0)
(0.100103 0.00431033 0)
(0.10016 0.00440316 0)
(0.10022 0.00449735 0)
(0.100284 0.00459279 0)
(0.100352 0.00468939 0)
(0.100424 0.00478705 0)
(0.100501 0.00488564 0)
(0.100582 0.00498503 0)
(0.100667 0.00508507 0)
(0.100758 0.00518558 0)
(0.100854 0.0052864 0)
(0.100955 0.00538731 0)
(0.101061 0.00548806 0)
(0.100041 0.00399458 0)
(0.100089 0.00407994 0)
(0.10014 0.00416669 0)
(0.100195 0.00425477 0)
(0.100253 0.00434412 0)
(0.100314 0.00443464 0)
(0.100379 0.00452625 0)
(0.100448 0.00461884 0)
(0.100521 0.00471231 0)
(0.100598 0.00480653 0)
(0.10068 0.00490136 0)
(0.100766 0.00499666 0)
(0.100857 0.00509225 0)
(0.100953 0.00518796 0)
(0.101054 0.00528358 0)
(0.10116 0.00537887 0)
(0.100126 0.00394709 0)
(0.100175 0.0040295 0)
(0.100228 0.00411315 0)
(0.100283 0.00419799 0)
(0.100342 0.00428393 0)
(0.100405 0.00437088 0)
(0.100471 0.00445876 0)
(0.10054 0.00454745 0)
(0.100614 0.00463685 0)
(0.100692 0.00472683 0)
(0.100774 0.00481726 0)
(0.10086 0.00490798 0)
(0.100951 0.00499883 0)
(0.101047 0.00508963 0)
(0.101148 0.00518018 0)
(0.101253 0.00527023 0)
(0.100208 0.00389833 0)
(0.100258 0.00397785 0)
(0.100312 0.00405848 0)
(0.100369 0.00414014 0)
(0.100428 0.00422275 0)
(0.100492 0.00430623 0)
(0.100559 0.00439047 0)
(0.100629 0.00447538 0)
(0.100703 0.00456083 0)
(0.100781 0.00464671 0)
(0.100864 0.00473289 0)
(0.10095 0.0048192 0)
(0.101041 0.00490548 0)
(0.101137 0.00499157 0)
(0.101237 0.00507725 0)
(0.101342 0.0051623 0)
(0.100287 0.00384846 0)
(0.100339 0.00392515 0)
(0.100393 0.00400281 0)
(0.100451 0.00408137 0)
(0.100512 0.00416074 0)
(0.100576 0.00424083 0)
(0.100643 0.00432155 0)
(0.100714 0.00440278 0)
(0.100789 0.00448442 0)
(0.100867 0.00456634 0)
(0.100949 0.00464841 0)
(0.101036 0.00473047 0)
(0.101127 0.00481237 0)
(0.101222 0.00489393 0)
(0.101321 0.00497495 0)
(0.101426 0.00505521 0)
(0.0999998 2.82892e-05 0)
(0.0999971 8.41667e-05 0)
(0.0999914 0.000139136 0)
(0.0999832 0.000193478 0)
(0.0999726 0.000247442 0)
(0.0999596 0.000301222 0)
(0.0999445 0.000354956 0)
(0.0999273 0.000408873 0)
(0.0999082 0.000463594 0)
(0.0999998 2.8807e-05 0)
(0.0999972 8.57068e-05 0)
(0.0999918 0.000141679 0)
(0.0999838 0.000197007 0)
(0.0999735 0.000251943 0)
(0.0999611 0.000306681 0)
(0.0999465 0.000361361 0)
(0.0999299 0.000416214 0)
(0.0999115 0.000471876 0)
(0.0998912 0.000529747 0)
(0.099869 0.000592148 0)
(0.0998446 0.000662084 0)
(0.0998175 0.000742597 0)
(0.099787 0.000835885 0)
(0.0997525 0.000942501 0)
(0.0997135 0.00106093 0)
(0.0996695 0.00118767 0)
(0.0996206 0.00131782 0)
(0.0995672 0.0014459 0)
(0.09951 0.00156677 0)
(0.0994499 0.00167639 0)
(0.099388 0.00177222 0)
(0.0993253 0.00185339 0)
(0.099263 0.00192054 0)
(0.0992017 0.00197544 0)
(0.0991423 0.00202065 0)
(0.0990852 0.00205902 0)
(0.0990307 0.00209342 0)
(0.0989788 0.00212645 0)
(0.0989296 0.00216031 0)
(0.098883 0.00219671 0)
(0.0988388 0.0022369 0)
(0.0987969 0.0022817 0)
(0.098757 0.00233158 0)
(0.0987191 0.00238675 0)
(0.098683 0.00244719 0)
(0.0986485 0.00251278 0)
(0.0986155 0.00258327 0)
(0.098584 0.00265842 0)
(0.098554 0.00273793 0)
(0.0985254 0.00282153 0)
(0.0984982 0.00290897 0)
(0.0984725 0.00299999 0)
(0.0984483 0.00309439 0)
(0.0984256 0.00319196 0)
(0.0984045 0.00329254 0)
(0.098385 0.00339597 0)
(0.0983672 0.0035021 0)
(0.0983512 0.00361082 0)
(0.0983371 0.00372199 0)
(0.0983248 0.00383551 0)
(0.0983146 0.00395126 0)
(0.0983065 0.00406915 0)
(0.0983005 0.00418907 0)
(0.0982967 0.00431092 0)
(0.0999998 2.93061e-05 0)
(0.0999973 8.71914e-05 0)
(0.0999921 0.00014413 0)
(0.0999844 0.000200407 0)
(0.0999745 0.000256279 0)
(0.0999625 0.00031194 0)
(0.0999485 0.000367528 0)
(0.0999325 0.000423278 0)
(0.0999148 0.000479843 0)
(0.0998954 0.000538666 0)
(0.099874 0.00060214 0)
(0.0998505 0.000673364 0)
(0.0998243 0.000755472 0)
(0.0997948 0.00085072 0)
(0.0997613 0.000959666 0)
(0.0997231 0.00108073 0)
(0.0996801 0.00121028 0)
(0.0996321 0.00134324 0)
(0.0995797 0.00147396 0)
(0.0995234 0.00159712 0)
(0.0994644 0.00170856 0)
(0.0994037 0.00180568 0)
(0.0993425 0.00188759 0)
(0.0992817 0.00195495 0)
(0.0992223 0.00200963 0)
(0.099165 0.00205425 0)
(0.0991101 0.00209178 0)
(0.099058 0.00212517 0)
(0.0990087 0.00215712 0)
(0.0989623 0.00218987 0)
(0.0989186 0.00222518 0)
(0.0988775 0.00226435 0)
(0.0988388 0.0023082 0)
(0.0988022 0.0023572 0)
(0.0987676 0.00241156 0)
(0.0987349 0.00247126 0)
(0.0987038 0.00253613 0)
(0.0986744 0.00260594 0)
(0.0986465 0.0026804 0)
(0.0986202 0.00275921 0)
(0.0985953 0.00284209 0)
(0.0985719 0.00292875 0)
(0.09855 0.00301894 0)
(0.0985296 0.00311243 0)
(0.0985108 0.00320901 0)
(0.0984936 0.00330849 0)
(0.0984781 0.00341072 0)
(0.0984644 0.00351555 0)
(0.0984525 0.00362282 0)
(0.0984425 0.00373243 0)
(0.0984345 0.00384425 0)
(0.0984285 0.00395816 0)
(0.0984246 0.00407405 0)
(0.0984229 0.00419183 0)
(0.0984234 0.00431137 0)
(0.0999998 2.97864e-05 0)
(0.0999974 8.86201e-05 0)
(0.0999924 0.000146488 0)
(0.099985 0.000203679 0)
(0.0999755 0.00026045 0)
(0.099964 0.000316996 0)
(0.0999505 0.000373455 0)
(0.0999352 0.000430063 0)
(0.0999182 0.000487493 0)
(0.0998995 0.000547231 0)
(0.099879 0.000611744 0)
(0.0998564 0.000684231 0)
(0.0998312 0.000767917 0)
(0.0998026 0.000865118 0)
(0.09977 0.000976394 0)
(0.0997328 0.00110009 0)
(0.0996907 0.00123245 0)
(0.0996436 0.00136821 0)
(0.099592 0.00150153 0)
(0.0995368 0.00162693 0)
(0.0994788 0.00174012 0)
(0.0994193 0.00183842 0)
(0.0993595 0.00192095 0)
(0.0993003 0.0019884 0)
(0.0992428 0.0020427 0)
(0.0991874 0.00208659 0)
(0.0991348 0.00212313 0)
(0.0990851 0.00215538 0)
(0.0990385 0.0021861 0)
(0.0989949 0.00221761 0)
(0.0989541 0.00225172 0)
(0.098916 0.00228974 0)
(0.0988805 0.00233253 0)
(0.0988471 0.00238056 0)
(0.0988159 0.00243401 0)
(0.0987865 0.00249286 0)
(0.0987589 0.00255693 0)
(0.098733 0.00262596 0)
(0.0987087 0.00269964 0)
(0.0986859 0.00277767 0)
(0.0986646 0.00285973 0)
(0.0986449 0.00294552 0)
(0.0986267 0.00303477 0)
(0.0986101 0.00312725 0)
(0.0985951 0.00322273 0)
(0.0985818 0.00332102 0)
(0.0985702 0.00342195 0)
(0.0985604 0.00352535 0)
(0.0985524 0.00363108 0)
(0.0985464 0.00373902 0)
(0.0985424 0.00384902 0)
(0.0985404 0.00396098 0)
(0.0985406 0.00407477 0)
(0.0985429 0.0041903 0)
(0.0985475 0.00430743 0)
(0.0999998 3.02477e-05 0)
(0.0999975 8.99924e-05 0)
(0.0999927 0.000148753 0)
(0.0999856 0.00020682 0)
(0.0999765 0.000264454 0)
(0.0999654 0.000321849 0)
(0.0999525 0.000379141 0)
(0.0999379 0.000436569 0)
(0.0999216 0.000494824 0)
(0.0999037 0.000555439 0)
(0.0998841 0.00062096 0)
(0.0998624 0.000694683 0)
(0.0998381 0.000779931 0)
(0.0998105 0.00087908 0)
(0.0997788 0.000992688 0)
(0.0997425 0.00111903 0)
(0.0997012 0.00125419 0)
(0.099655 0.00139274 0)
(0.0996043 0.00152863 0)
(0.09955 0.00165621 0)
(0.0994931 0.00177107 0)
(0.0994348 0.00187046 0)
(0.0993763 0.00195348 0)
(0.0993188 0.00202088 0)
(0.099263 0.00207467 0)
(0.0992097 0.00211768 0)
(0.0991593 0.00215308 0)
(0.0991121 0.00218403 0)
(0.0990681 0.00221338 0)
(0.0990273 0.00224352 0)
(0.0989894 0.00227631 0)
(0.0989544 0.00231309 0)
(0.098922 0.00235471 0)
(0.0988918 0.00240166 0)
(0.0988639 0.00245412 0)
(0.0988379 0.00251203 0)
(0.0988137 0.00257521 0)
(0.0987912 0.00264337 0)
(0.0987704 0.0027162 0)
(0.0987511 0.00279335 0)
(0.0987334 0.0028745 0)
(0.0987173 0.00295933 0)
(0.0987027 0.00304757 0)
(0.0986897 0.00313894 0)
(0.0986784 0.00323323 0)
(0.0986688 0.00333024 0)
(0.098661 0.00342976 0)
(0.098655 0.00353165 0)
(0.0986508 0.00363574 0)
(0.0986486 0.0037419 0)
(0.0986484 0.00385 0)
(0.0986503 0.00395991 0)
(0.0986544 0.00407151 0)
(0.0986606 0.0041847 0)
(0.0986691 0.00429934 0)
(0.0999998 3.06901e-05 0)
(0.0999976 9.13081e-05 0)
(0.099993 0.000150924 0)
(0.0999862 0.000209831 0)
(0.0999775 0.00026829 0)
(0.0999669 0.000326496 0)
(0.0999545 0.000384583 0)
(0.0999405 0.000442792 0)
(0.099925 0.000501835 0)
(0.0999079 0.00056329 0)
(0.0998892 0.000629787 0)
(0.0998684 0.000704723 0)
(0.099845 0.000791519 0)
(0.0998184 0.000892613 0)
(0.0997876 0.00100856 0)
(0.0997521 0.00113754 0)
(0.0997117 0.00127552 0)
(0.0996663 0.00141684 0)
(0.0996165 0.00155527 0)
(0.099563 0.00168499 0)
(0.0995072 0.00180143 0)
(0.0994501 0.00190181 0)
(0.099393 0.0019852 0)
(0.099337 0.00205241 0)
(0.099283 0.00210553 0)
(0.0992318 0.0021475 0)
(0.0991836 0.00218162 0)
(0.0991389 0.00221113 0)
(0.0990975 0.00223898 0)
(0.0990595 0.00226762 0)
(0.0990246 0.00229897 0)
(0.0989926 0.00233439 0)
(0.0989633 0.00237475 0)
(0.0989364 0.00242053 0)
(0.0989116 0.0024719 0)
(0.098889 0.0025288 0)
(0.0988681 0.00259101 0)
(0.098849 0.00265823 0)
(0.0988316 0.00273012 0)
(0.0988158 0.00280632 0)
(0.0988016 0.00288648 0)
(0.0987889 0.00297027 0)
(0.0987779 0.0030574 0)
(0.0987685 0.0031476 0)
(0.0987608 0.00324062 0)
(0.0987547 0.00333624 0)
(0.0987505 0.00343428 0)
(0.0987481 0.00353457 0)
(0.0987476 0.00363694 0)
(0.0987491 0.00374124 0)
(0.0987526 0.00384735 0)
(0.0987582 0.00395514 0)
(0.0987659 0.00406447 0)
(0.0987758 0.00417524 0)
(0.0987879 0.00428732 0)
(0.0999998 3.11133e-05 0)
(0.0999977 9.25668e-05 0)
(0.0999933 0.000153001 0)
(0.0999868 0.00021271 0)
(0.0999785 0.000271958 0)
(0.0999684 0.000330938 0)
(0.0999566 0.000389781 0)
(0.0999432 0.000448733 0)
(0.0999284 0.000508523 0)
(0.0999121 0.000570783 0)
(0.0998943 0.000638223 0)
(0.0998744 0.000714349 0)
(0.099852 0.000802682 0)
(0.0998262 0.000905721 0)
(0.0997964 0.00102401 0)
(0.0997618 0.00115565 0)
(0.0997221 0.00129644 0)
(0.0996775 0.00144053 0)
(0.0996285 0.00158147 0)
(0.099576 0.00171326 0)
(0.0995211 0.00183121 0)
(0.0994652 0.00193246 0)
(0.0994094 0.0020161 0)
(0.099355 0.00208297 0)
(0.0993029 0.00213528 0)
(0.0992537 0.00217606 0)
(0.0992078 0.00220874 0)
(0.0991655 0.00223666 0)
(0.0991268 0.00226288 0)
(0.0990915 0.0022899 0)
(0.0990595 0.0023197 0)
(0.0990306 0.00235365 0)
(0.0990044 0.00239266 0)
(0.0989806 0.00243719 0)
(0.0989591 0.00248739 0)
(0.0989397 0.00254319 0)
(0.0989222 0.00260436 0)
(0.0989064 0.00267057 0)
(0.0988924 0.00274145 0)
(0.0988799 0.00281663 0)
(0.0988691 0.00289573 0)
(0.0988599 0.00297842 0)
(0.0988522 0.00306438 0)
(0.0988463 0.00315331 0)
(0.098842 0.00324498 0)
(0.0988395 0.00333916 0)
(0.0988387 0.00343564 0)
(0.0988398 0.00353425 0)
(0.0988428 0.00363482 0)
(0.0988478 0.0037372 0)
(0.0988548 0.00384125 0)
(0.0988638 0.00394684 0)
(0.098875 0.00405384 0)
(0.0988884 0.00416213 0)
(0.098904 0.00427159 0)
(0.0999999 3.15173e-05 0)
(0.0999978 9.37684e-05 0)
(0.0999936 0.000154983 0)
(0.0999875 0.000215458 0)
(0.0999795 0.000275457 0)
(0.0999699 0.000335173 0)
(0.0999586 0.000394735 0)
(0.0999459 0.00045439 0)
(0.0999318 0.00051489 0)
(0.0999164 0.000577917 0)
(0.0998994 0.00064627 0)
(0.0998804 0.000723565 0)
(0.0998589 0.000813425 0)
(0.0998341 0.000918409 0)
(0.0998051 0.00103905 0)
(0.0997714 0.00117336 0)
(0.0997325 0.00131697 0)
(0.0996887 0.00146382 0)
(0.0996405 0.00160724 0)
(0.0995888 0.00174105 0)
(0.0995349 0.00186042 0)
(0.0994801 0.00196244 0)
(0.0994258 0.00204619 0)
(0.0993729 0.00211258 0)
(0.0993226 0.00216392 0)
(0.0992754 0.00220336 0)
(0.0992318 0.00223444 0)
(0.099192 0.00226064 0)
(0.0991559 0.00228508 0)
(0.0991234 0.00231037 0)
(0.0990944 0.0023385 0)
(0.0990684 0.00237089 0)
(0.0990453 0.00240845 0)
(0.0990247 0.00245165 0)
(0.0990064 0.00250061 0)
(0.0989902 0.00255525 0)
(0.0989759 0.00261531 0)
(0.0989634 0.00268045 0)
(0.0989526 0.00275026 0)
(0.0989435 0.00282435 0)
(0.0989359 0.00290234 0)
(0.09893 0.00298385 0)
(0.0989257 0.00306857 0)
(0.0989231 0.00315618 0)
(0.0989221 0.00324644 0)
(0.0989229 0.00333911 0)
(0.0989255 0.00343396 0)
(0.0989299 0.00353083 0)
(0.0989363 0.00362954 0)
(0.0989446 0.00372993 0)
(0.0989549 0.00383186 0)
(0.0989673 0.0039352 0)
(0.0989818 0.00403981 0)
(0.0989984 0.00414557 0)
(0.0990173 0.00425237 0)
(0.0999999 3.1902e-05 0)
(0.099998 9.49127e-05 0)
(0.0999939 0.00015687 0)
(0.0999881 0.000218073 0)
(0.0999805 0.000278786 0)
(0.0999714 0.000339201 0)
(0.0999607 0.000399443 0)
(0.0999486 0.000459764 0)
(0.0999353 0.000520934 0)
(0.0999206 0.000584692 0)
(0.0999045 0.000653928 0)
(0.0998865 0.00073237 0)
(0.0998659 0.000823749 0)
(0.099842 0.000930683 0)
(0.0998138 0.00105369 0)
(0.0997809 0.00119068 0)
(0.0997428 0.00133711 0)
(0.0996998 0.00148671 0)
(0.0996524 0.00163258 0)
(0.0996016 0.00176835 0)
(0.0995486 0.00188906 0)
(0.099495 0.00199173 0)
(0.099442 0.00207546 0)
(0.0993907 0.00214123 0)
(0.0993422 0.00219144 0)
(0.0992971 0.00222939 0)
(0.0992557 0.00225873 0)
(0.0992184 0.00228306 0)
(0.0991849 0.0023056 0)
(0.0991552 0.00232902 0)
(0.099129 0.00235538 0)
(0.0991061 0.00238613 0)
(0.099086 0.00242216 0)
(0.0990685 0.00246394 0)
(0.0990533 0.0025116 0)
(0.0990403 0.00256502 0)
(0.0990292 0.00262391 0)
(0.0990199 0.00268791 0)
(0.0990123 0.0027566 0)
(0.0990064 0.00282955 0)
(0.099002 0.00290636 0)
(0.0989993 0.00298665 0)
(0.0989982 0.00307007 0)
(0.0989988 0.00315631 0)
(0.0990011 0.0032451 0)
(0.0990051 0.00333619 0)
(0.0990109 0.00342937 0)
(0.0990185 0.00352445 0)
(0.099028 0.00362124 0)
(0.0990395 0.00371959 0)
(0.099053 0.00381936 0)
(0.0990685 0.00392039 0)
(0.0990861 0.00402257 0)
(0.0991058 0.00412577 0)
(0.0991278 0.00422987 0)
(0.0999999 3.22675e-05 0)
(0.0999981 9.59996e-05 0)
(0.0999942 0.000158663 0)
(0.0999887 0.000220557 0)
(0.0999815 0.000281946 0)
(0.0999728 0.000343022 0)
(0.0999627 0.000403906 0)
(0.0999513 0.000464853 0)
(0.0999387 0.000526655 0)
(0.0999249 0.000591109 0)
(0.0999096 0.000661198 0)
(0.0998925 0.000740769 0)
(0.0998728 0.000833658 0)
(0.0998498 0.000942546 0)
(0.0998225 0.00106793 0)
(0.0997904 0.00120762 0)
(0.0997531 0.00135688 0)
(0.0997108 0.00150922 0)
(0.0996642 0.00165751 0)
(0.0996142 0.00179518 0)
(0.0995623 0.00191714 0)
(0.0995098 0.00202035 0)
(0.0994581 0.00210393 0)
(0.0994085 0.00216892 0)
(0.0993618 0.00221785 0)
(0.0993187 0.00225415 0)
(0.0992796 0.0022816 0)
(0.0992447 0.00230392 0)
(0.0992139 0.00232443 0)
(0.099187 0.00234588 0)
(0.0991637 0.00237037 0)
(0.0991436 0.00239937 0)
(0.0991266 0.0024338 0)
(0.0991121 0.0024741 0)
(0.0991001 0.0025204 0)
(0.0990901 0.00257253 0)
(0.0990822 0.00263021 0)
(0.099076 0.00269302 0)
(0.0990715 0.00276054 0)
(0.0990687 0.0028323 0)
(0.0990674 0.00290789 0)
(0.0990678 0.0029869 0)
(0.0990698 0.00306898 0)
(0.0990735 0.0031538 0)
(0.0990788 0.00324107 0)
(0.0990859 0.00333055 0)
(0.0990948 0.003422 0)
(0.0991054 0.00351524 0)
(0.099118 0.00361007 0)
(0.0991325 0.00370634 0)
(0.0991489 0.0038039 0)
(0.0991674 0.0039026 0)
(0.099188 0.00400232 0)
(0.0992106 0.00410293 0)
(0.0992354 0.0042043 0)
(0.0999999 3.26136e-05 0)
(0.0999982 9.7029e-05 0)
(0.0999945 0.00016036 0)
(0.0999893 0.000222907 0)
(0.0999825 0.000284936 0)
(0.0999743 0.000346636 0)
(0.0999648 0.000408124 0)
(0.099954 0.000469658 0)
(0.0999421 0.000532054 0)
(0.0999291 0.000597168 0)
(0.0999147 0.000668081 0)
(0.0998985 0.000748761 0)
(0.0998797 0.000843154 0)
(0.0998576 0.000954001 0)
(0.0998312 0.00108178 0)
(0.0997999 0.00122418 0)
(0.0997634 0.00137628 0)
(0.0997218 0.00153135 0)
(0.099676 0.00168202 0)
(0.0996269 0.00182153 0)
(0.0995759 0.00194465 0)
(0.0995246 0.00204828 0)
(0.0994743 0.00213157 0)
(0.0994262 0.00219565 0)
(0.0993814 0.00224315 0)
(0.0993404 0.00227764 0)
(0.0993036 0.00230305 0)
(0.0992711 0.00232322 0)
(0.0992429 0.00234158 0)
(0.0992187 0.00236095 0)
(0.0991983 0.00238348 0)
(0.0991812 0.00241066 0)
(0.0991671 0.0024434 0)
(0.0991556 0.00248217 0)
(0.0991466 0.00252704 0)
(0.0991397 0.00257784 0)
(0.0991347 0.00263425 0)
(0.0991316 0.00269584 0)
(0.0991301 0.00276214 0)
(0.0991303 0.00283268 0)
(0.0991321 0.00290701 0)
(0.0991355 0.0029847 0)
(0.0991405 0.0030654 0)
(0.0991471 0.00314875 0)
(0.0991554 0.00323447 0)
(0.0991654 0.00332229 0)
(0.0991772 0.00341198 0)
(0.0991907 0.00350333 0)
(0.0992062 0.00359617 0)
(0.0992235 0.00369033 0)
(0.0992428 0.00378565 0)
(0.0992641 0.003882 0)
(0.0992874 0.00397923 0)
(0.0993127 0.00407723 0)
(0.0993402 0.00417587 0)
(0.0999999 3.29404e-05 0)
(0.0999983 9.8001e-05 0)
(0.0999949 0.000161963 0)
(0.0999899 0.000225126 0)
(0.0999835 0.000287757 0)
(0.0999758 0.000350042 0)
(0.0999669 0.000412097 0)
(0.0999567 0.000474179 0)
(0.0999456 0.000537132 0)
(0.0999333 0.00060287 0)
(0.0999198 0.000674579 0)
(0.0999045 0.000756348 0)
(0.0998866 0.00085224 0)
(0.0998654 0.000965051 0)
(0.0998399 0.00109523 0)
(0.0998094 0.00124036 0)
(0.0997736 0.0013953 0)
(0.0997328 0.00155309 0)
(0.0996878 0.00170611 0)
(0.0996396 0.00184739 0)
(0.0995896 0.00197158 0)
(0.0995395 0.00207552 0)
(0.0994906 0.00215839 0)
(0.0994442 0.0022214 0)
(0.0994011 0.00226731 0)
(0.0993622 0.00229985 0)
(0.0993277 0.00232308 0)
(0.0992977 0.00234098 0)
(0.099272 0.00235707 0)
(0.0992506 0.00237426 0)
(0.0992329 0.00239473 0)
(0.0992187 0.00242001 0)
(0.0992075 0.00245101 0)
(0.099199 0.00248818 0)
(0.0991929 0.00253157 0)
(0.099189 0.00258101 0)
(0.099187 0.00263611 0)
(0.0991868 0.00269644 0)
(0.0991883 0.00276149 0)
(0.0991914 0.00283076 0)
(0.0991961 0.00290379 0)
(0.0992023 0.00298014 0)
(0.0992102 0.00305942 0)
(0.0992196 0.00314127 0)
(0.0992308 0.0032254 0)
(0.0992436 0.00331153 0)
(0.0992581 0.00339943 0)
(0.0992744 0.00348888 0)
(0.0992926 0.0035797 0)
(0.0993126 0.00367172 0)
(0.0993345 0.00376478 0)
(0.0993584 0.00385875 0)
(0.0993843 0.00395348 0)
(0.0994122 0.00404886 0)
(0.0994422 0.00414476 0)
(0.0999999 3.3248e-05 0)
(0.0999984 9.89156e-05 0)
(0.0999952 0.00016347 0)
(0.0999905 0.000227212 0)
(0.0999846 0.000290409 0)
(0.0999773 0.000353243 0)
(0.0999689 0.000415825 0)
(0.0999594 0.000478418 0)
(0.099949 0.000541888 0)
(0.0999375 0.000608216 0)
(0.0999249 0.000680692 0)
(0.0999104 0.000763533 0)
(0.0998935 0.000860915 0)
(0.0998732 0.000975694 0)
(0.0998485 0.00110829 0)
(0.0998188 0.00125615 0)
(0.0997839 0.00141394 0)
(0.0997439 0.00157443 0)
(0.0996997 0.00172976 0)
(0.0996524 0.00187275 0)
(0.0996035 0.00199791 0)
(0.0995546 0.00210205 0)
(0.0995071 0.00218436 0)
(0.0994623 0.00224616 0)
(0.0994211 0.00229035 0)
(0.0993843 0.00232078 0)
(0.099352 0.0023417 0)
(0.0993244 0.0023572 0)
(0.0993014 0.00237092 0)
(0.0992826 0.00238582 0)
(0.0992677 0.00240415 0)
(0.0992563 0.00242746 0)
(0.099248 0.00245666 0)
(0.0992424 0.00249218 0)
(0.0992392 0.00253406 0)
(0.0992381 0.00258208 0)
(0.099239 0.00263585 0)
(0.0992416 0.00269488 0)
(0.0992459 0.00275865 0)
(0.0992518 0.00282663 0)
(0.0992593 0.00289834 0)
(0.0992683 0.00297331 0)
(0.0992789 0.00305114 0)
(0.0992911 0.00313147 0)
(0.0993049 0.00321399 0)
(0.0993203 0.0032984 0)
(0.0993375 0.00338448 0)
(0.0993564 0.003472 0)
(0.0993772 0.00356078 0)
(0.0993997 0.00365065 0)
(0.0994242 0.00374144 0)
(0.0994505 0.00383302 0)
(0.0994788 0.00392526 0)
(0.0995091 0.00401802 0)
(0.0995414 0.00411118 0)
(0.0999999 3.35363e-05 0)
(0.0999985 9.97729e-05 0)
(0.0999955 0.000164882 0)
(0.0999911 0.000229167 0)
(0.0999856 0.000292891 0)
(0.0999788 0.000356237 0)
(0.0999709 0.00041931 0)
(0.0999621 0.000482374 0)
(0.0999524 0.000546325 0)
(0.0999418 0.000613209 0)
(0.0999299 0.000686422 0)
(0.0999164 0.000770315 0)
(0.0999004 0.000869179 0)
(0.099881 0.000985928 0)
(0.0998572 0.00112095 0)
(0.0998283 0.00127155 0)
(0.0997942 0.00143218 0)
(0.099755 0.00159535 0)
(0.0997117 0.00175295 0)
(0.0996653 0.00189758 0)
(0.0996176 0.00202363 0)
(0.0995699 0.00212785 0)
(0.0995239 0.00220948 0)
(0.0994808 0.00226993 0)
(0.0994415 0.00231224 0)
(0.0994067 0.00234044 0)
(0.0993767 0.00235892 0)
(0.0993516 0.0023719 0)
(0.0993311 0.00238313 0)
(0.0993149 0.00239566 0)
(0.0993027 0.00241178 0)
(0.0992941 0.00243305 0)
(0.0992885 0.0024604 0)
(0.0992857 0.00249423 0)
(0.0992853 0.00253456 0)
(0.099287 0.00258114 0)
(0.0992907 0.00263354 0)
(0.099296 0.00269125 0)
(0.0993031 0.00275371 0)
(0.0993117 0.00282038 0)
(0.0993218 0.00289074 0)
(0.0993335 0.00296431 0)
(0.0993467 0.00304068 0)
(0.0993614 0.00311946 0)
(0.0993778 0.00320034 0)
(0.0993958 0.00328302 0)
(0.0994154 0.00336727 0)
(0.0994368 0.00345285 0)
(0.09946 0.00353958 0)
(0.0994849 0.00362728 0)
(0.0995117 0.0037158 0)
(0.0995404 0.00380499 0)
(0.0995709 0.00389472 0)
(0.0996034 0.00398487 0)
(0.0996378 0.00407532 0)
(0.0999999 3.38054e-05 0)
(0.0999986 0.000100573 0)
(0.0999958 0.000166201 0)
(0.0999918 0.00023099 0)
(0.0999866 0.000295205 0)
(0.0999803 0.000359025 0)
(0.099973 0.000422551 0)
(0.0999648 0.00048605 0)
(0.0999558 0.000550444 0)
(0.0999459 0.000617848 0)
(0.099935 0.000691771 0)
(0.0999223 0.000776695 0)
(0.0999072 0.000877031 0)
(0.0998887 0.000995749 0)
(0.0998658 0.0011332 0)
(0.0998378 0.00128654 0)
(0.0998046 0.00145001 0)
(0.0997663 0.00161584 0)
(0.0997239 0.00177566 0)
(0.0996786 0.00192187 0)
(0.099632 0.00204871 0)
(0.0995856 0.0021529 0)
(0.0995411 0.00223372 0)
(0.0994997 0.00229268 0)
(0.0994623 0.00233299 0)
(0.0994297 0.00235882 0)
(0.0994019 0.00237473 0)
(0.0993792 0.00238508 0)
(0.0993612 0.00239374 0)
(0.0993476 0.00240382 0)
(0.0993381 0.00241765 0)
(0.0993321 0.00243683 0)
(0.0993293 0.00246228 0)
(0.0993291 0.00249438 0)
(0.0993314 0.00253313 0)
(0.0993358 0.00257824 0)
(0.0993421 0.00262925 0)
(0.0993501 0.00268562 0)
(0.0993598 0.00274676 0)
(0.099371 0.00281209 0)
(0.0993837 0.00288108 0)
(0.0993978 0.00295324 0)
(0.0994135 0.00302813 0)
(0.0994307 0.00310535 0)
(0.0994495 0.00318458 0)
(0.0994699 0.00326552 0)
(0.0994919 0.00334791 0)
(0.0995156 0.00343154 0)
(0.099541 0.00351621 0)
(0.0995682 0.00360175 0)
(0.0995971 0.00368799 0)
(0.0996279 0.0037748 0)
(0.0996606 0.00386204 0)
(0.0996951 0.00394959 0)
(0.0997315 0.00403734 0)
(0.0999999 3.40553e-05 0)
(0.0999987 0.000101316 0)
(0.0999961 0.000167425 0)
(0.0999924 0.000232682 0)
(0.0999876 0.000297352 0)
(0.0999817 0.000361609 0)
(0.099975 0.000425551 0)
(0.0999675 0.000489446 0)
(0.0999592 0.000554247 0)
(0.0999501 0.000622137 0)
(0.09994 0.000696739 0)
(0.0999282 0.000782673 0)
(0.0999141 0.000884467 0)
(0.0998965 0.00100515 0)
(0.0998745 0.00114502 0)
(0.0998474 0.0013011 0)
(0.0998151 0.00146739 0)
(0.0997778 0.00163585 0)
(0.0997363 0.00179785 0)
(0.0996921 0.00194556 0)
(0.0996468 0.0020731 0)
(0.0996018 0.00217716 0)
(0.0995589 0.00225705 0)
(0.0995193 0.0023144 0)
(0.0994838 0.00235258 0)
(0.0994532 0.00237593 0)
(0.0994278 0.00238916 0)
(0.0994074 0.00239679 0)
(0.0993918 0.00240277 0)
(0.0993808 0.00241033 0)
(0.0993738 0.00242182 0)
(0.0993705 0.00243887 0)
(0.0993702 0.00246237 0)
(0.0993727 0.00249271 0)
(0.0993776 0.00252985 0)
(0.0993846 0.00257346 0)
(0.0993934 0.00262307 0)
(0.099404 0.00267808 0)
(0.0994161 0.00273788 0)
(0.0994297 0.00280186 0)
(0.0994448 0.00286948 0)
(0.0994614 0.00294021 0)
(0.0994794 0.0030136 0)
(0.099499 0.00308925 0)
(0.09952 0.00316682 0)
(0.0995427 0.003246 0)
(0.0995669 0.00332655 0)
(0.0995927 0.00340822 0)
(0.0996203 0.00349083 0)
(0.0996495 0.0035742 0)
(0.0996805 0.00365818 0)
(0.0997133 0.00374261 0)
(0.0997479 0.00382738 0)
(0.0997842 0.00391235 0)
(0.0998224 0.00399742 0)
(0.0999999 3.42863e-05 0)
(0.0999988 0.000102003 0)
(0.0999964 0.000168555 0)
(0.099993 0.000234243 0)
(0.0999885 0.000299331 0)
(0.0999832 0.00036399 0)
(0.099977 0.000428311 0)
(0.0999701 0.000492565 0)
(0.0999625 0.000557736 0)
(0.0999543 0.000626077 0)
(0.099945 0.000701328 0)
(0.0999341 0.000788247 0)
(0.0999209 0.000891482 0)
(0.0999042 0.00101411 0)
(0.0998832 0.0011564 0)
(0.0998571 0.00131521 0)