/*--------------------------------*- C++ -*----------------------------------*\
| =========                 |                                                 |
| \\      /  F ield         | OpenFOAM: The Open Source CFD Toolbox           |
|  \\    /   O peration     | Version:  2412                                  |
|   \\  /    A nd           | Website:  www.openfoam.com                      |
|    \\/     M anipulation  |                                                 |
\*---------------------------------------------------------------------------*/
FoamFile
{
    version     2.0;
    format      ascii;
    arch        "LSB;label=32;scalar=64";
    class       volVectorField;
    location    "20.5";
    object      U;
}
// * * * * * * * * * * * * * * * * * * * * * * * * * * * * * * * * * * * * * //

dimensions      [0 1 -1 0 0 0 0];

internalField   nonuniform List<vector> 
5285
(
(0.0984514 0.00415827 0)
(0.0984567 0.00428845 0)
(0.0984649 0.0044232 0)
(0.0984764 0.00456265 0)
(0.0984914 0.0047069 0)
(0.0985104 0.00485605 0)
(0.0985335 0.0050102 0)
(0.0985612 0.00516942 0)
(0.0985939 0.00533381 0)
(0.098632 0.00550341 0)
(0.0986759 0.00567827 0)
(0.0987261 0.00585842 0)
(0.0987832 0.00604386 0)
(0.0988476 0.00623456 0)
(0.09892 0.00643045 0)
(0.0990009 0.00663141 0)
(0.0985777 0.00415215 0)
(0.0985874 0.00427942 0)
(0.0986001 0.004411 0)
(0.0986162 0.00454699 0)
(0.0986359 0.00468748 0)
(0.0986596 0.00483254 0)
(0.0986876 0.00498224 0)
(0.0987202 0.00513666 0)
(0.0987579 0.00529583 0)
(0.0988009 0.00545979 0)
(0.0988499 0.00562856 0)
(0.0989052 0.00580214 0)
(0.0989672 0.0059805 0)
(0.0990366 0.00616357 0)
(0.0991138 0.00635127 0)
(0.0991995 0.00654345 0)
(0.0987012 0.00414181 0)
(0.098715 0.00426608 0)
(0.0987319 0.0043944 0)
(0.0987523 0.00452685 0)
(0.0987764 0.00466349 0)
(0.0988045 0.00480439 0)
(0.098837 0.0049496 0)
(0.0988741 0.00509915 0)
(0.0989164 0.00525307 0)
(0.098964 0.00541138 0)
(0.0990176 0.00557406 0)
(0.0990774 0.00574109 0)
(0.0991439 0.00591242 0)
(0.0992177 0.00608796 0)
(0.0992993 0.00626759 0)
(0.0993891 0.00645113 0)
(0.0988217 0.00412751 0)
(0.0988394 0.0042487 0)
(0.0988603 0.00437368 0)
(0.0988847 0.00450252 0)
(0.0989128 0.00463526 0)
(0.0989451 0.00477195 0)
(0.0989817 0.00491262 0)
(0.099023 0.00505728 0)
(0.0990694 0.00520595 0)
(0.0991212 0.00535861 0)
(0.0991789 0.00551523 0)
(0.0992428 0.00567576 0)
(0.0993134 0.00584014 0)
(0.0993911 0.00600825 0)
(0.0994764 0.00617995 0)
(0.0995698 0.00635504 0)
(0.0989393 0.00410949 0)
(0.0989606 0.00422753 0)
(0.0989852 0.00434912 0)
(0.0990133 0.0044743 0)
(0.0990452 0.0046031 0)
(0.0990812 0.00473555 0)
(0.0991217 0.00487166 0)
(0.0991668 0.00501143 0)
(0.099217 0.00515485 0)
(0.0992726 0.00530189 0)
(0.099334 0.0054525 0)
(0.0994015 0.00560662 0)
(0.0994757 0.00576414 0)
(0.0995568 0.00592495 0)
(0.0996454 0.00608887 0)
(0.0997419 0.00625571 0)
(0.0990538 0.00408798 0)
(0.0990785 0.00420283 0)
(0.0991065 0.00432098 0)
(0.0991381 0.00444247 0)
(0.0991735 0.00456731 0)
(0.099213 0.0046955 0)
(0.0992569 0.00482706 0)
(0.0993056 0.00496195 0)
(0.0993592 0.00510016 0)
(0.0994182 0.00524163 0)
(0.0994829 0.0053863 0)
(0.0995537 0.00553409 0)
(0.099631 0.00568488 0)
(0.0997151 0.00583853 0)
(0.0998065 0.00599486 0)
(0.0999056 0.00615366 0)
(0.0991652 0.0040632 0)
(0.099193 0.00417483 0)
(0.0992242 0.00428952 0)
(0.099259 0.0044073 0)
(0.0992977 0.00452817 0)
(0.0993404 0.00465211 0)
(0.0993875 0.00477913 0)
(0.0994393 0.00490918 0)
(0.099496 0.00504221 0)
(0.0995581 0.00517818 0)
(0.0996257 0.005317 0)
(0.0996994 0.00545857 0)
(0.0997794 0.00560276 0)
(0.0998661 0.00574942 0)
(0.0999599 0.00589836 0)
(0.100061 0.00604934 0)
(0.0992735 0.00403539 0)
(0.0993043 0.00414377 0)
(0.0993384 0.00425499 0)
(0.0993762 0.00436906 0)
(0.0994177 0.00448596 0)
(0.0994634 0.00460568 0)
(0.0995134 0.00472818 0)
(0.099568 0.00485343 0)
(0.0996276 0.00498136 0)
(0.0996923 0.00511191 0)
(0.0997626 0.00524497 0)
(0.0998388 0.00538045 0)
(0.0999211 0.00551819 0)
(0.10001 0.00565804 0)
(0.100106 0.00579978 0)
(0.100209 0.00594319 0)
(0.0993787 0.00400477 0)
(0.0994122 0.00410989 0)
(0.0994491 0.00421764 0)
(0.0994895 0.004328 0)
(0.0995338 0.00444095 0)
(0.0995821 0.00455647 0)
(0.0996347 0.00467451 0)
(0.0996919 0.00479501 0)
(0.0997539 0.00491792 0)
(0.099821 0.00504313 0)
(0.0998936 0.00517056 0)
(0.0999719 0.00530007 0)
(0.100056 0.00543153 0)
(0.100147 0.00556475 0)
(0.100244 0.00569952 0)
(0.100349 0.0058356 0)
(0.0994808 0.00397153 0)
(0.0995168 0.0040734 0)
(0.0995561 0.00417768 0)
(0.0995991 0.00428436 0)
(0.0996458 0.0043934 0)
(0.0996965 0.00450476 0)
(0.0997514 0.00461839 0)
(0.0998109 0.00473422 0)
(0.0998751 0.00485218 0)
(0.0999444 0.00497217 0)
(0.100019 0.00509409 0)
(0.100099 0.00521779 0)
(0.100185 0.00534312 0)
(0.100277 0.0054699 0)
(0.100376 0.00559792 0)
(0.100482 0.00572692 0)
(0.0995798 0.00393589 0)
(0.0996181 0.00403452 0)
(0.0996597 0.00413536 0)
(0.0997049 0.00423838 0)
(0.0997538 0.00434354 0)
(0.0998067 0.00445079 0)
(0.0998637 0.00456008 0)
(0.0999252 0.00467132 0)
(0.0999914 0.00478444 0)
(0.100062 0.00489932 0)
(0.100139 0.00501585 0)
(0.10022 0.00513389 0)
(0.100308 0.00525327 0)
(0.100401 0.00537382 0)
(0.100501 0.00549532 0)
(0.100607 0.00561749 0)
(0.0996757 0.00389803 0)
(0.0997161 0.00399345 0)
(0.0997598 0.00409087 0)
(0.0998071 0.00419027 0)
(0.099858 0.00429161 0)
(0.0999128 0.00439482 0)
(0.0999717 0.00449984 0)
(0.100035 0.00460658 0)
(0.100103 0.00471495 0)
(0.100175 0.00482484 0)
(0.100253 0.00493613 0)
(0.100336 0.00504866 0)
(0.100425 0.00516229 0)
(0.100519 0.00527681 0)
(0.100619 0.005392 0)
(0.100726 0.0055076 0)
(0.0997686 0.00385816 0)
(0.099811 0.00395038 0)
(0.0998566 0.00404443 0)
(0.0999056 0.00414026 0)
(0.0999583 0.00423783 0)
(0.100015 0.00433706 0)
(0.100075 0.00443789 0)
(0.10014 0.00454023 0)
(0.100209 0.00464396 0)
(0.100283 0.00474899 0)
(0.100362 0.00485518 0)
(0.100446 0.00496239 0)
(0.100536 0.00507043 0)
(0.100631 0.00517912 0)
(0.100731 0.00528824 0)
(0.100838 0.00539753 0)
(0.0998586 0.00381644 0)
(0.0999027 0.00390551 0)
(0.09995 0.00399622 0)
(0.100001 0.00408854 0)
(0.100055 0.0041824 0)
(0.100113 0.00427774 0)
(0.100175 0.00437447 0)
(0.100241 0.0044725 0)
(0.100312 0.00457172 0)
(0.100387 0.00467202 0)
(0.100466 0.00477326 0)
(0.100551 0.00487529 0)
(0.100641 0.00497794 0)
(0.100737 0.00508102 0)
(0.100838 0.0051843 0)
(0.100944 0.00528753 0)
(0.0999457 0.00377305 0)
(0.0999914 0.00385901 0)
(0.10004 0.00394644 0)
(0.100092 0.0040353 0)
(0.100148 0.00412553 0)
(0.100207 0.00421705 0)
(0.100271 0.00430977 0)
(0.100338 0.0044036 0)
(0.100409 0.00449843 0)
(0.100485 0.00459414 0)
(0.100566 0.00469058 0)
(0.100651 0.00478761 0)
(0.100742 0.00488506 0)
(0.100837 0.00498273 0)
(0.100938 0.0050804 0)
(0.101045 0.00517781 0)
(0.10003 0.00372816 0)
(0.100077 0.00381105 0)
(0.100127 0.00389525 0)
(0.100181 0.00398073 0)
(0.100238 0.0040674 0)
(0.100298 0.00415519 0)
(0.100362 0.004244 0)
(0.10043 0.00433374 0)
(0.100503 0.0044243 0)
(0.100579 0.00451555 0)
(0.10066 0.00460735 0)
(0.100746 0.00469956 0)
(0.100837 0.00479198 0)
(0.100932 0.00488445 0)
(0.101033 0.00497673 0)
(0.101139 0.00506858 0)
(0.100111 0.00368192 0)
(0.10016 0.00376179 0)
(0.100211 0.00384284 0)
(0.100266 0.00392499 0)
(0.100324 0.00400818 0)
(0.100385 0.00409233 0)
(0.10045 0.00417733 0)
(0.100519 0.0042631 0)
(0.100592 0.00434952 0)
(0.100669 0.00443645 0)
(0.100751 0.00452377 0)
(0.100837 0.00461131 0)
(0.100927 0.00469891 0)
(0.101023 0.00478638 0)
(0.101123 0.00487349 0)
(0.101228 0.00496001 0)
(0.10019 0.00363448 0)
(0.10024 0.0037114 0)
(0.100292 0.00378934 0)
(0.100348 0.00386825 0)
(0.100406 0.00394804 0)
(0.100469 0.00402864 0)
(0.100535 0.00410994 0)
(0.100604 0.00419185 0)
(0.100677 0.00427425 0)
(0.100755 0.00435701 0)
(0.100837 0.00444 0)
(0.100922 0.00452305 0)
(0.101013 0.00460601 0)
(0.101108 0.00468868 0)
(0.101208 0.00477085 0)
(0.101312 0.00485227 0)
(0.100267 0.00358599 0)
(0.100317 0.00366 0)
(0.10037 0.00373491 0)
(0.100427 0.00381065 0)
(0.100486 0.00388713 0)
(0.100549 0.00396428 0)
(0.100615 0.00404199 0)
(0.100685 0.00412016 0)
(0.100759 0.00419867 0)
(0.100837 0.0042774 0)
(0.100918 0.00435621 0)
(0.101004 0.00443494 0)
(0.101094 0.00451344 0)
(0.101189 0.00459151 0)
(0.101288 0.00466894 0)
(0.101392 0.00474551 0)
(0.10034 0.00353657 0)
(0.100392 0.00360775 0)
(0.100446 0.0036797 0)
(0.100503 0.00375234 0)
(0.100563 0.00382561 0)
(0.100626 0.0038994 0)
(0.100693 0.00397362 0)
(0.100763 0.00404816 0)
(0.100837 0.00412292 0)
(0.100915 0.00419776 0)
(0.100996 0.00427255 0)
(0.101082 0.00434713 0)
(0.101171 0.00442134 0)
(0.101265 0.00449501 0)
(0.101364 0.00456792 0)
(0.101466 0.00463985 0)
(0.0999998 2.80076e-05 0)
(0.0999972 8.3383e-05 0)
(0.0999915 0.000137956 0)
(0.0999834 0.000191823 0)
(0.0999728 0.000244948 0)
(0.0999601 0.00029811 0)
(0.0999452 0.00035423 0)
(0.0999278 0.000418829 0)
(0.0999071 0.000498714 0)
(0.0999998 2.85195e-05 0)
(0.0999973 8.49068e-05 0)
(0.0999918 0.000140475 0)
(0.099984 0.000195316 0)
(0.0999738 0.000249389 0)
(0.0999615 0.000303493 0)
(0.0999471 0.000360641 0)
(0.0999303 0.000426532 0)
(0.0999103 0.000508188 0)
(0.0998859 0.000611107 0)
(0.0998555 0.000736371 0)
(0.099818 0.000879311 0)
(0.0997729 0.00103034 0)
(0.0997206 0.00117747 0)
(0.0996624 0.0013094 0)
(0.0996001 0.00141801 0)
(0.0995358 0.00149956 0)
(0.0994715 0.00155465 0)
(0.0994089 0.00158723 0)
(0.0993491 0.00160313 0)
(0.0992928 0.00160872 0)
(0.0992404 0.00160989 0)
(0.0991917 0.0016114 0)
(0.0991464 0.00161671 0)
(0.0991042 0.00162798 0)
(0.0990646 0.00164633 0)
(0.0990271 0.0016721 0)
(0.0989914 0.00170511 0)
(0.0989572 0.00174489 0)
(0.0989241 0.00179085 0)
(0.0988921 0.00184236 0)
(0.098861 0.00189887 0)
(0.0988307 0.00195985 0)
(0.0988011 0.00202489 0)
(0.0987723 0.00209366 0)
(0.0987444 0.00216586 0)
(0.0987172 0.00224129 0)
(0.0986909 0.00231978 0)
(0.0986655 0.00240118 0)
(0.0986411 0.00248539 0)
(0.0986178 0.00257231 0)
(0.0985957 0.00266186 0)
(0.0985747 0.00275397 0)
(0.0985551 0.00284856 0)
(0.0985368 0.00294559 0)
(0.0985201 0.00304498 0)
(0.0985048 0.00314668 0)
(0.0984912 0.00325062 0)
(0.0984794 0.00335673 0)
(0.0984693 0.00346495 0)
(0.0984612 0.00357521 0)
(0.098455 0.00368744 0)
(0.0984508 0.00380156 0)
(0.0984488 0.0039175 0)
(0.0984489 0.00403517 0)
(0.0999998 2.90128e-05 0)
(0.0999974 8.63757e-05 0)
(0.0999921 0.000142903 0)
(0.0999846 0.000198683 0)
(0.0999748 0.000253666 0)
(0.099963 0.000308674 0)
(0.0999491 0.000366818 0)
(0.0999329 0.000433979 0)
(0.0999136 0.000517401 0)
(0.0998897 0.000622744 0)
(0.0998598 0.000751102 0)
(0.0998228 0.000897624 0)
(0.0997781 0.00105238 0)
(0.0997261 0.00120299 0)
(0.0996683 0.00133779 0)
(0.0996064 0.00144839 0)
(0.0995427 0.00153099 0)
(0.0994793 0.00158623 0)
(0.0994178 0.00161822 0)
(0.0993595 0.00163298 0)
(0.099305 0.00163714 0)
(0.0992545 0.00163676 0)
(0.0992081 0.00163677 0)
(0.0991652 0.00164071 0)
(0.0991255 0.00165081 0)
(0.0990886 0.00166819 0)
(0.0990538 0.0016932 0)
(0.0990209 0.00172563 0)
(0.0989895 0.00176498 0)
(0.0989593 0.00181062 0)
(0.0989302 0.0018619 0)
(0.098902 0.00191822 0)
(0.0988747 0.00197904 0)
(0.0988481 0.00204392 0)
(0.0988224 0.0021125 0)
(0.0987975 0.00218449 0)
(0.0987735 0.00225966 0)
(0.0987504 0.00233782 0)
(0.0987283 0.00241883 0)
(0.0987072 0.00250257 0)
(0.0986872 0.00258893 0)
(0.0986685 0.00267783 0)
(0.098651 0.00276919 0)
(0.0986349 0.00286294 0)
(0.0986203 0.002959 0)
(0.0986071 0.00305732 0)
(0.0985956 0.00315781 0)
(0.0985858 0.00326041 0)
(0.0985777 0.00336506 0)
(0.0985716 0.00347168 0)
(0.0985673 0.0035802 0)
(0.098565 0.00369053 0)
(0.0985649 0.00380261 0)
(0.0985668 0.00391634 0)
(0.098571 0.00403165 0)
(0.0999998 2.94875e-05 0)
(0.0999975 8.77891e-05 0)
(0.0999924 0.000145239 0)
(0.0999852 0.000201921 0)
(0.0999758 0.000257777 0)
(0.0999644 0.000313653 0)
(0.0999511 0.000372759 0)
(0.0999356 0.000441169 0)
(0.0999168 0.000526354 0)
(0.0998936 0.000634142 0)
(0.0998642 0.000765629 0)
(0.0998276 0.000915771 0)
(0.0997831 0.00107429 0)
(0.0997314 0.00122838 0)
(0.0996739 0.001366 0)
(0.0996124 0.00147853 0)
(0.0995494 0.00156205 0)
(0.0994868 0.0016173 0)
(0.0994265 0.00164852 0)
(0.0993697 0.001662 0)
(0.0993169 0.00166456 0)
(0.0992685 0.00166249 0)
(0.0992243 0.00166085 0)
(0.0991839 0.00166331 0)
(0.0991468 0.00167213 0)
(0.0991125 0.00168847 0)
(0.0990805 0.00171264 0)
(0.0990504 0.00174443 0)
(0.0990218 0.00178329 0)
(0.0989945 0.00182856 0)
(0.0989683 0.00187955 0)
(0.098943 0.00193562 0)
(0.0989186 0.00199621 0)
(0.0988951 0.00206087 0)
(0.0988724 0.0021292 0)
(0.0988505 0.0022009 0)
(0.0988296 0.00227572 0)
(0.0988096 0.00235348 0)
(0.0987906 0.00243402 0)
(0.0987728 0.0025172 0)
(0.0987561 0.00260291 0)
(0.0987407 0.00269107 0)
(0.0987266 0.00278158 0)
(0.0987139 0.00287437 0)
(0.0987027 0.00296936 0)
(0.0986931 0.00306649 0)
(0.0986852 0.00316567 0)
(0.098679 0.00326683 0)
(0.0986746 0.00336991 0)
(0.0986721 0.00347481 0)
(0.0986716 0.00358147 0)
(0.0986731 0.00368981 0)
(0.0986767 0.00379974 0)
(0.0986825 0.00391117 0)
(0.0986906 0.00402402 0)
(0.0999998 2.99434e-05 0)
(0.0999976 8.91466e-05 0)
(0.0999927 0.000147483 0)
(0.0999858 0.00020503 0)
(0.0999768 0.000261722 0)
(0.0999659 0.000318428 0)
(0.0999531 0.000378464 0)
(0.0999382 0.000448102 0)
(0.0999201 0.000535051 0)
(0.0998974 0.000645304 0)
(0.0998685 0.000779959 0)
(0.0998323 0.000933768 0)
(0.0997881 0.00109608 0)
(0.0997366 0.00125365 0)
(0.0996793 0.00139406 0)
(0.0996182 0.00150843 0)
(0.0995557 0.00159276 0)
(0.099494 0.00164785 0)
(0.0994349 0.00167814 0)
(0.0993795 0.00169015 0)
(0.0993286 0.00169095 0)
(0.0992823 0.00168703 0)
(0.0992404 0.00168362 0)
(0.0992024 0.00168448 0)
(0.0991679 0.00169193 0)
(0.0991363 0.00170714 0)
(0.0991071 0.00173042 0)
(0.0990798 0.0017615 0)
(0.0990541 0.00179982 0)
(0.0990297 0.00184466 0)
(0.0990063 0.00189531 0)
(0.098984 0.00195108 0)
(0.0989625 0.0020114 0)
(0.0989419 0.00207577 0)
(0.0989221 0.00214379 0)
(0.0989033 0.00221513 0)
(0.0988854 0.00228954 0)
(0.0988684 0.00236682 0)
(0.0988526 0.0024468 0)
(0.0988379 0.00252933 0)
(0.0988244 0.00261431 0)
(0.0988122 0.00270163 0)
(0.0988014 0.00279121 0)
(0.098792 0.00288295 0)
(0.0987842 0.00297678 0)
(0.098778 0.00307261 0)
(0.0987735 0.00317038 0)
(0.0987708 0.00327001 0)
(0.0987699 0.00337141 0)
(0.098771 0.00347451 0)
(0.098774 0.00357922 0)
(0.0987791 0.00368547 0)
(0.0987863 0.00379315 0)
(0.0987957 0.00390219 0)
(0.0988074 0.0040125 0)
(0.0999998 3.03804e-05 0)
(0.0999977 9.04481e-05 0)
(0.0999931 0.000149634 0)
(0.0999864 0.00020801 0)
(0.0999777 0.000265499 0)
(0.0999673 0.000322998 0)
(0.0999552 0.00038393 0)
(0.0999409 0.000454779 0)
(0.0999234 0.000543496 0)
(0.0999013 0.000656243 0)
(0.0998728 0.000794115 0)
(0.0998369 0.00095164 0)
(0.0997929 0.00111778 0)
(0.0997416 0.00127884 0)
(0.0996844 0.00142199 0)
(0.0996236 0.00153811 0)
(0.0995617 0.00162312 0)
(0.0995009 0.00167789 0)
(0.0994429 0.00170708 0)
(0.0993891 0.00171744 0)
(0.09934 0.0017163 0)
(0.0992958 0.00171037 0)
(0.0992562 0.00170505 0)
(0.0992208 0.0017042 0)
(0.099189 0.00171018 0)
(0.0991601 0.00172419 0)
(0.0991337 0.00174651 0)
(0.0991092 0.00177684 0)
(0.0990863 0.00181456 0)
(0.0990648 0.00185894 0)
(0.0990443 0.0019092 0)
(0.0990248 0.00196463 0)
(0.0990062 0.00202462 0)
(0.0989885 0.00208865 0)
(0.0989717 0.0021563 0)
(0.0989558 0.00222722 0)
(0.0989408 0.00230116 0)
(0.0989269 0.00237789 0)
(0.0989141 0.00245723 0)
(0.0989024 0.00253905 0)
(0.098892 0.00262321 0)
(0.098883 0.00270961 0)
(0.0988753 0.00279816 0)
(0.0988692 0.00288877 0)
(0.0988646 0.00298135 0)
(0.0988617 0.00307581 0)
(0.0988605 0.00317208 0)
(0.0988611 0.00327008 0)
(0.0988636 0.00336973 0)
(0.098868 0.00347093 0)
(0.0988744 0.00357361 0)
(0.0988829 0.00367768 0)
(0.0988936 0.00378305 0)
(0.0989064 0.00388963 0)
(0.0989214 0.00399732 0)
(0.0999998 3.07985e-05 0)
(0.0999978 9.16932e-05 0)
(0.0999934 0.000151692 0)
(0.099987 0.000210859 0)
(0.0999787 0.000269108 0)
(0.0999688 0.00032736 0)
(0.0999572 0.000389159 0)
(0.0999435 0.0004612 0)
(0.0999267 0.000551692 0)
(0.0999051 0.000666968 0)
(0.0998771 0.000808109 0)
(0.0998414 0.000969408 0)
(0.0997976 0.00113941 0)
(0.0997463 0.00130396 0)
(0.0996893 0.00144982 0)
(0.0996288 0.00156759 0)
(0.0995674 0.00165313 0)
(0.0995074 0.00170742 0)
(0.0994506 0.00173531 0)
(0.0993984 0.00174383 0)
(0.0993512 0.00174058 0)
(0.0993091 0.00173249 0)
(0.0992719 0.00172513 0)
(0.0992391 0.00172245 0)
(0.0992099 0.00172688 0)
(0.0991838 0.00173962 0)
(0.0991602 0.00176091 0)
(0.0991386 0.00179044 0)
(0.0991185 0.00182753 0)
(0.0990998 0.0018714 0)
(0.0990822 0.00192123 0)
(0.0990655 0.00197628 0)
(0.0990498 0.0020359 0)
(0.0990349 0.00209954 0)
(0.099021 0.00216677 0)
(0.099008 0.00223722 0)
(0.0989959 0.00231062 0)
(0.0989849 0.00238674 0)
(0.098975 0.00246538 0)
(0.0989664 0.00254641 0)
(0.098959 0.00262968 0)
(0.098953 0.0027151 0)
(0.0989484 0.00280255 0)
(0.0989453 0.00289194 0)
(0.0989439 0.00298318 0)
(0.0989441 0.0030762 0)
(0.098946 0.00317089 0)
(0.0989498 0.00326719 0)
(0.0989555 0.003365 0)
(0.0989631 0.00346424 0)
(0.0989728 0.00356481 0)
(0.0989845 0.00366664 0)
(0.0989984 0.00376963 0)
(0.0990144 0.00387368 0)
(0.0990326 0.00397871 0)
(0.0999999 3.11975e-05 0)
(0.0999979 9.28816e-05 0)
(0.0999937 0.000153656 0)
(0.0999876 0.000213577 0)
(0.0999797 0.000272547 0)
(0.0999703 0.000331516 0)
(0.0999593 0.000394148 0)
(0.0999462 0.000467369 0)
(0.0999299 0.000559646 0)
(0.0999089 0.00067749 0)
(0.0998813 0.000821959 0)
(0.0998458 0.000987093 0)
(0.0998021 0.00116101 0)
(0.0997509 0.00132905 0)
(0.0996939 0.00147756 0)
(0.0996337 0.00159688 0)
(0.0995728 0.00168281 0)
(0.0995136 0.00173644 0)
(0.0994581 0.00176283 0)
(0.0994074 0.00176932 0)
(0.0993621 0.00176378 0)
(0.0993223 0.00175337 0)
(0.0992875 0.00174382 0)
(0.0992572 0.00173921 0)
(0.0992308 0.00174201 0)
(0.0992075 0.0017534 0)
(0.0991867 0.00177362 0)
(0.0991679 0.0018023 0)
(0.0991507 0.00183873 0)
(0.0991348 0.00188206 0)
(0.09912 0.00193143 0)
(0.0991062 0.00198606 0)
(0.0990932 0.00204527 0)
(0.0990812 0.00210848 0)
(0.09907 0.00217524 0)
(0.0990598 0.00224518 0)
(0.0990506 0.00231798 0)
(0.0990425 0.00239343 0)
(0.0990355 0.00247132 0)
(0.0990297 0.00255149 0)
(0.0990252 0.00263381 0)
(0.0990221 0.00271816 0)
(0.0990205 0.00280444 0)
(0.0990204 0.00289255 0)
(0.0990219 0.0029824 0)
(0.0990251 0.00307389 0)
(0.0990301 0.00316694 0)
(0.0990369 0.00326147 0)
(0.0990457 0.00335738 0)
(0.0990563 0.00345458 0)
(0.099069 0.003553 0)
(0.0990838 0.00365253 0)
(0.0991007 0.00375308 0)
(0.0991197 0.00385456 0)
(0.099141 0.00395688 0)
(0.0999999 3.15775e-05 0)
(0.099998 9.40133e-05 0)
(0.099994 0.000155526 0)
(0.0999882 0.000216163 0)
(0.0999807 0.000275815 0)
(0.0999718 0.000335463 0)
(0.0999613 0.000398899 0)
(0.0999488 0.000473286 0)
(0.0999332 0.000567364 0)
(0.0999127 0.000687819 0)
(0.0998854 0.000835682 0)
(0.0998502 0.00100472 0)
(0.0998065 0.00118259 0)
(0.0997552 0.00135412 0)
(0.0996983 0.00150523 0)
(0.0996383 0.001626 0)
(0.0995779 0.00171216 0)
(0.0995196 0.00176493 0)
(0.0994653 0.00178963 0)
(0.0994162 0.00179389 0)
(0.0993729 0.00178587 0)
(0.0993353 0.00177297 0)
(0.099303 0.00176111 0)
(0.0992754 0.00175446 0)
(0.0992517 0.00175554 0)
(0.0992311 0.00176553 0)
(0.0992132 0.00178463 0)
(0.0991972 0.00181243 0)
(0.0991828 0.00184816 0)
(0.0991697 0.00189092 0)
(0.0991577 0.0019398 0)
(0.0991467 0.00199399 0)
(0.0991365 0.00205276 0)
(0.0991272 0.00211551 0)
(0.0991188 0.00218176 0)
(0.0991113 0.00225113 0)
(0.0991049 0.0023233 0)
(0.0990995 0.00239802 0)
(0.0990953 0.0024751 0)
(0.0990923 0.00255436 0)
(0.0990906 0.00263567 0)
(0.0990903 0.0027189 0)
(0.0990915 0.00280395 0)
(0.0990943 0.00289071 0)
(0.0990987 0.0029791 0)
(0.0991048 0.00306901 0)
(0.0991127 0.00316036 0)
(0.0991224 0.00325305 0)
(0.099134 0.00334701 0)
(0.0991476 0.00344213 0)
(0.0991631 0.00353833 0)
(0.0991808 0.00363551 0)
(0.0992005 0.00373359 0)
(0.0992224 0.00383246 0)
(0.0992464 0.00393203 0)
(0.0999999 3.19383e-05 0)
(0.0999981 9.50882e-05 0)
(0.0999943 0.000157302 0)
(0.0999888 0.000218618 0)
(0.0999817 0.000278914 0)
(0.0999733 0.000339202 0)
(0.0999634 0.000403412 0)
(0.0999515 0.000478954 0)
(0.0999365 0.000574851 0)
(0.0999164 0.000697967 0)
(0.0998895 0.000849293 0)
(0.0998544 0.0010223 0)
(0.0998107 0.00120417 0)
(0.0997594 0.00137919 0)
(0.0997025 0.00153285 0)
(0.0996427 0.00165494 0)
(0.0995828 0.00174117 0)
(0.0995254 0.00179289 0)
(0.0994724 0.00181569 0)
(0.0994249 0.00181751 0)
(0.0993836 0.00180682 0)
(0.0993483 0.00179128 0)
(0.0993185 0.00177698 0)
(0.0992935 0.00176819 0)
(0.0992726 0.00176747 0)
(0.0992549 0.001776 0)
(0.0992397 0.00179395 0)
(0.0992266 0.00182084 0)
(0.099215 0.00185585 0)
(0.0992047 0.00189802 0)
(0.0991954 0.00194639 0)
(0.0991871 0.00200011 0)
(0.0991796 0.0020584 0)
(0.099173 0.00212066 0)
(0.0991673 0.00218638 0)
(0.0991625 0.00225514 0)
(0.0991587 0.00232663 0)
(0.099156 0.00240058 0)
(0.0991545 0.0024768 0)
(0.0991542 0.0025551 0)
(0.0991552 0.00263534 0)
(0.0991576 0.0027174 0)
(0.0991616 0.00280117 0)
(0.0991671 0.00288653 0)
(0.0991742 0.0029734 0)
(0.099183 0.00306167 0)
(0.0991937 0.00315126 0)
(0.0992061 0.00324208 0)
(0.0992205 0.00333403 0)
(0.0992368 0.00342703 0)
(0.0992551 0.00352097 0)
(0.0992754 0.00361577 0)
(0.0992978 0.00371134 0)
(0.0993223 0.00380758 0)
(0.0993489 0.00390439 0)
(0.0999999 3.228e-05 0)
(0.0999982 9.61062e-05 0)
(0.0999946 0.000158984 0)
(0.0999894 0.000220942 0)
(0.0999827 0.000281842 0)
(0.0999748 0.000342733 0)
(0.0999654 0.000407688 0)
(0.0999542 0.000484377 0)
(0.0999397 0.000582113 0)
(0.0999201 0.000707943 0)
(0.0998936 0.000862805 0)
(0.0998586 0.00103985 0)
(0.0998149 0.00122577 0)
(0.0997635 0.00140429 0)
(0.0997066 0.00156041 0)
(0.099647 0.00168372 0)
(0.0995876 0.00176984 0)
(0.0995311 0.00182031 0)
(0.0994793 0.00184099 0)
(0.0994336 0.00184017 0)
(0.0993943 0.00182663 0)
(0.0993614 0.00180828 0)
(0.0993341 0.00179141 0)
(0.0993118 0.00178038 0)
(0.0992936 0.0017778 0)
(0.0992787 0.00178482 0)
(0.0992664 0.00180158 0)
(0.099256 0.00182754 0)
(0.0992472 0.00186181 0)
(0.0992396 0.00190337 0)
(0.0992331 0.00195122 0)
(0.0992274 0.00200445 0)
(0.0992226 0.00206225 0)
(0.0992186 0.00212399 0)
(0.0992155 0.00218914 0)
(0.0992133 0.00225726 0)
(0.0992121 0.00232803 0)
(0.099212 0.00240118 0)
(0.099213 0.00247649 0)
(0.0992153 0.00255378 0)
(0.099219 0.00263291 0)
(0.099224 0.00271375 0)
(0.0992305 0.00279618 0)
(0.0992386 0.0028801 0)
(0.0992484 0.00296541 0)
(0.0992598 0.003052 0)
(0.0992731 0.00313979 0)
(0.0992881 0.00322869 0)
(0.0993051 0.0033186 0)
(0.0993239 0.00340943 0)
(0.0993448 0.00350109 0)
(0.0993676 0.00359348 0)
(0.0993925 0.00368652 0)
(0.0994195 0.0037801 0)
(0.0994486 0.00387414 0)
(0.0999999 3.26025e-05 0)
(0.0999983 9.70674e-05 0)
(0.0999949 0.000160572 0)
(0.09999 0.000223133 0)
(0.0999837 0.0002846 0)
(0.0999762 0.000346057 0)
(0.0999675 0.000411728 0)
(0.0999568 0.000489555 0)
(0.0999429 0.000589155 0)
(0.0999238 0.000717753 0)
(0.0998975 0.000876225 0)
(0.0998627 0.00105739 0)
(0.0998189 0.00124739 0)
(0.0997675 0.00142939 0)
(0.0997106 0.00158793 0)
(0.0996512 0.00171231 0)
(0.0995924 0.00179816 0)
(0.0995368 0.00184716 0)
(0.0994864 0.00186551 0)
(0.0994424 0.00186184 0)
(0.0994052 0.00184526 0)
(0.0993746 0.00182396 0)
(0.0993499 0.00180439 0)
(0.0993303 0.00179104 0)
(0.0993149 0.00178653 0)
(0.0993027 0.001792 0)
(0.0992932 0.00180754 0)
(0.0992856 0.00183254 0)
(0.0992795 0.00186606 0)
(0.0992746 0.00190701 0)
(0.0992707 0.00195433 0)
(0.0992676 0.00200705 0)
(0.0992654 0.00206435 0)
(0.0992639 0.00212555 0)
(0.0992634 0.0021901 0)
(0.0992637 0.00225755 0)
(0.099265 0.00232757 0)
(0.0992674 0.00239987 0)
(0.0992709 0.00247424 0)
(0.0992757 0.00255049 0)
(0.0992819 0.00262847 0)
(0.0992894 0.00270805 0)
(0.0992984 0.0027891 0)
(0.099309 0.00287153 0)
(0.0993213 0.00295523 0)
(0.0993352 0.00304011 0)
(0.0993509 0.00312607 0)
(0.0993684 0.00321301 0)
(0.0993878 0.00330085 0)
(0.099409 0.00338949 0)
(0.0994323 0.00347884 0)
(0.0994575 0.0035688 0)
(0.0994847 0.0036593 0)
(0.099514 0.00375022 0)
(0.0995453 0.00384148 0)
(0.0999999 3.2906e-05 0)
(0.0999984 9.79717e-05 0)
(0.0999952 0.000162066 0)
(0.0999906 0.000225193 0)
(0.0999847 0.000287187 0)
(0.0999777 0.000349172 0)
(0.0999695 0.000415532 0)
(0.0999595 0.000494493 0)
(0.0999461 0.00059598 0)
(0.0999275 0.000727402 0)
(0.0999015 0.000889559 0)
(0.0998667 0.00107491 0)
(0.099823 0.00126904 0)
(0.0997715 0.00145452 0)
(0.0997146 0.00161539 0)
(0.0996555 0.00174071 0)
(0.0995973 0.00182609 0)
(0.0995427 0.00187343 0)
(0.0994937 0.00188923 0)
(0.0994515 0.0018825 0)
(0.0994164 0.0018627 0)
(0.0993882 0.00183829 0)
(0.0993661 0.00181592 0)
(0.0993491 0.00180016 0)
(0.0993364 0.00179366 0)
(0.0993271 0.00179754 0)
(0.0993203 0.00181184 0)
(0.0993154 0.00183589 0)
(0.099312 0.00186865 0)
(0.0993097 0.00190898 0)
(0.0993084 0.00195575 0)
(0.0993078 0.00200796 0)
(0.0993081 0.00206474 0)
(0.0993091 0.00212538 0)
(0.099311 0.00218932 0)
(0.0993137 0.00225608 0)
(0.0993175 0.00232532 0)
(0.0993223 0.00239675 0)
(0.0993282 0.00247014 0)
(0.0993354 0.00254531 0)
(0.0993439 0.0026221 0)
(0.0993538 0.00270038 0)
(0.0993652 0.00278002 0)
(0.0993782 0.00286093 0)
(0.0993928 0.00294299 0)
(0.0994091 0.00302612 0)
(0.0994271 0.00311021 0)
(0.0994469 0.00319517 0)
(0.0994686 0.00328092 0)
(0.0994921 0.00336735 0)
(0.0995176 0.00345437 0)
(0.099545 0.0035419 0)
(0.0995744 0.00362985 0)
(0.0996058 0.00371811 0)
(0.0996392 0.00380659 0)
(0.0999999 3.31903e-05 0)
(0.0999985 9.88194e-05 0)
(0.0999955 0.000163467 0)
(0.0999912 0.000227122 0)
(0.0999857 0.000289605 0)
(0.0999792 0.000352081 0)
(0.0999716 0.000419103 0)
(0.0999621 0.00049919 0)
(0.0999493 0.000602589 0)
(0.0999312 0.00073689 0)
(0.0999055 0.000902804 0)
(0.0998708 0.00109241 0)
(0.0998271 0.0012907 0)
(0.0997756 0.00147963 0)
(0.0997189 0.00164277 0)
(0.0996601 0.00176889 0)
(0.0996025 0.00185362 0)
(0.099549 0.00189908 0)
(0.0995014 0.00191212 0)
(0.0994611 0.00190213 0)
(0.0994281 0.00187894 0)
(0.0994023 0.00185128 0)
(0.0993827 0.001826 0)
(0.0993684 0.00180774 0)
(0.0993585 0.00179921 0)
(0.0993518 0.00180148 0)
(0.0993477 0.00181453 0)
(0.0993455 0.0018376 0)
(0.0993447 0.0018696 0)
(0.099345 0.00190931 0)
(0.0993461 0.00195554 0)
(0.099348 0.00200723 0)
(0.0993507 0.00206349 0)
(0.0993541 0.00212356 0)
(0.0993583 0.00218685 0)
(0.0993634 0.0022529 0)
(0.0993695 0.00232134 0)
(0.0993766 0.00239186 0)
(0.0993848 0.00246425 0)
(0.0993943 0.00253831 0)
(0.0994051 0.00261388 0)
(0.0994173 0.00269083 0)
(0.0994309 0.00276904 0)
(0.0994461 0.00284839 0)
(0.099463 0.00292879 0)
(0.0994815 0.00301014 0)
(0.0995017 0.00309235 0)
(0.0995237 0.00317531 0)
(0.0995475 0.00325894 0)
(0.0995732 0.00334315 0)
(0.0996007 0.00342785 0)
(0.0996302 0.00351294 0)
(0.0996616 0.00359833 0)
(0.0996949 0.00368394 0)
(0.0997302 0.00376967 0)
(0.0999999 3.34556e-05 0)
(0.0999986 9.96106e-05 0)
(0.0999958 0.000164774 0)
(0.0999918 0.00022892 0)
(0.0999867 0.000291853 0)
(0.0999807 0.000354784 0)
(0.0999736 0.00042244 0)
(0.0999647 0.000503648 0)
(0.0999525 0.000608981 0)
(0.0999349 0.000746211 0)
(0.0999095 0.000915948 0)
(0.099875 0.00110986 0)
(0.0998314 0.00131235 0)
(0.0997799 0.00150471 0)
(0.0997234 0.00167002 0)
(0.099665 0.0017968 0)
(0.0996082 0.00188071 0)
(0.0995558 0.00192408 0)
(0.0995098 0.00193415 0)
(0.0994713 0.00192072 0)
(0.0994405 0.00189397 0)
(0.0994171 0.00186293 0)
(0.0994 0.00183463 0)
(0.0993884 0.00181382 0)
(0.0993811 0.00180321 0)
(0.0993771 0.00180384 0)
(0.0993756 0.00181563 0)
(0.099376 0.00183773 0)
(0.0993777 0.00186898 0)
(0.0993804 0.00190807 0)
(0.099384 0.00195375 0)
(0.0993883 0.00200492 0)
(0.0993932 0.00206064 0)
(0.099399 0.00212013 0)
(0.0994054 0.00218277 0)
(0.0994128 0.00224809 0)
(0.099421 0.0023157 0)
(0.0994303 0.00238531 0)
(0.0994408 0.00245666 0)
(0.0994524 0.00252959 0)
(0.0994654 0.00260391 0)
(0.0994797 0.00267951 0)
(0.0994955 0.00275625 0)
(0.0995129 0.00283403 0)
(0.0995318 0.00291274 0)
(0.0995524 0.0029923 0)
(0.0995747 0.0030726 0)
(0.0995987 0.00315355 0)
(0.0996246 0.00323506 0)
(0.0996522 0.00331704 0)
(0.0996817 0.0033994 0)
(0.099713 0.00348206 0)
(0.0997463 0.00356491 0)
(0.0997814 0.00364788 0)
(0.0998184 0.00373088 0)
(0.0999999 3.3702e-05 0)
(0.0999987 0.000100345 0)
(0.0999961 0.000165987 0)
(0.0999924 0.000230588 0)
(0.0999877 0.000293933 0)
(0.0999822 0.000357282 0)
(0.0999756 0.000425546 0)
(0.0999673 0.000507866 0)
(0.0999557 0.000615153 0)
(0.0999385 0.000755357 0)
(0.0999135 0.000928974 0)
(0.0998793 0.00112725 0)
(0.0998358 0.00133394 0)
(0.0997846 0.0015297 0)
(0.0997283 0.00169709 0)
(0.0996705 0.0018244 0)
(0.0996146 0.00190731 0)
(0.0995634 0.0019484 0)
(0.099519 0.00195531 0)
(0.0994824 0.00193824 0)
(0.0994538 0.00190778 0)
(0.0994327 0.00187325 0)
(0.0994182 0.00184185 0)
(0.0994091 0.00181842 0)
(0.0994044 0.0018057 0)
(0.099403 0.00180468 0)
(0.099404 0.00181519 0)
(0.0994069 0.00183633 0)
(0.099411 0.00186682 0)
(0.0994161 0.0019053 0)
(0.099422 0.00195044 0)
(0.0994286 0.00200109 0)
(0.0994358 0.00205627 0)
(0.0994437 0.00211516 0)
(0.0994523 0.00217715 0)
(0.0994618 0.00224172 0)
(0.0994722 0.00230849 0)
(0.0994836 0.00237715 0)
(0.0994961 0.00244745 0)
(0.0995098 0.00251922 0)
(0.0995249 0.00259228 0)
(0.0995413 0.00266649 0)
(0.0995591 0.00274175 0)
(0.0995784 0.00281794 0)
(0.0995994 0.00289495 0)
(0.0996219 0.0029727 0)
(0.0996461 0.00305108 0)
(0.0996721 0.00313001 0)
(0.0996998 0.0032094 0)
(0.0997292 0.00328915 0)
(0.0997605 0.00336919 0)
(0.0997936 0.00344941 0)
(0.0998286 0.00352975 0)
(0.0998653 0.0036101 0)
(0.099904 0.00369038 0)
(0.0999999 3.39295e-05 0)
(0.0999988 0.000101024 0)
(0.0999965 0.000167109 0)
(0.099993 0.000232126 0)
(0.0999887 0.000295846 0)
(0.0999836 0.000359577 0)
(0.0999776 0.000428421 0)
(0.0999699 0.000511844 0)
(0.0999589 0.000621098 0)
(0.0999422 0.00076431 0)
(0.0999177 0.000941852 0)
(0.0998838 0.00114452 0)
(0.0998406 0.00135542 0)
(0.0997897 0.00155454 0)
(0.0997339 0.00172393 0)
(0.0996768 0.00185163 0)
(0.0996219 0.00193336 0)
(0.0995721 0.00197199 0)
(0.0995293 0.00197555 0)