/*--------------------------------*- C++ -*----------------------------------*\
| =========                 |                                                 |
| \\      /  F ield         | OpenFOAM: The Open Source CFD Toolbox           |
|  \\    /   O peration     | Version:  2412                                  |
|   \\  /    A nd           | Website:  www.openfoam.com                      |
|    \\/     M anipulation  |                                                 |
\*---------------------------------------------------------------------------*/
FoamFile
{
    version     2.0;
    format      ascii;
    arch        "LSB;label=32;scalar=64";
    class       volVectorField;
    location    "20.5";
    object      vorticity;
}
// * * * * * * * * * * * * * * * * * * * * * * * * * * * * * * * * * * * * * //

dimensions      [0 0 -1 0 0 0 0];

internalField   nonuniform List<vector> 
5285
(
(0 -0 4.88905e-06)
(0 -0 4.96457e-06)
(0 -0 5.11986e-06)
(0 -0 5.28126e-06)
(0 -0 5.42502e-06)
(0 -0 5.56082e-06)
(0 -0 5.70966e-06)
(0 -0 5.87061e-06)
(0 -0 6.04168e-06)
(0 -0 6.21832e-06)
(0 -0 6.39095e-06)
(0 -0 6.53677e-06)
(0 -0 6.59487e-06)
(0 -0 6.41672e-06)
(0 -0 5.81286e-06)
(0 -0 5.01868e-06)
(0 -0 5.02155e-06)
(0 -0 5.09632e-06)
(0 -0 5.23773e-06)
(0 -0 5.41377e-06)
(0 -0 5.55969e-06)
(0 -0 5.69526e-06)
(0 -0 5.84392e-06)
(0 -0 6.00453e-06)
(0 -0 6.17493e-06)
(0 -0 6.35077e-06)
(0 -0 6.52247e-06)
(0 -0 6.66682e-06)
(0 -0 6.72049e-06)
(0 -0 6.52024e-06)
(0 -0 5.87209e-06)
(0 -0 4.92762e-06)
(0 -0 5.12832e-06)
(0 -0 5.19914e-06)
(0 -0 5.35487e-06)
(0 -0 5.53626e-06)
(0 -0 5.68397e-06)
(0 -0 5.82101e-06)
(0 -0 5.97126e-06)
(0 -0 6.13345e-06)
(0 -0 6.30543e-06)
(0 -0 6.48282e-06)
(0 -0 6.65613e-06)
(0 -0 6.80192e-06)
(0 -0 6.85594e-06)
(0 -0 6.65329e-06)
(0 -0 5.95772e-06)
(0 -0 5.01969e-06)
(0 -0 5.18024e-06)
(0 -0 5.25535e-06)
(0 -0 5.41757e-06)
(0 -0 5.60435e-06)
(0 -0 5.75592e-06)
(0 -0 5.89633e-06)
(0 -0 6.04991e-06)
(0 -0 6.21547e-06)
(0 -0 6.39087e-06)
(0 -0 6.57173e-06)
(0 -0 6.74869e-06)
(0 -0 6.89845e-06)
(0 -0 6.95659e-06)
(0 -0 6.75937e-06)
(0 -0 6.08781e-06)
(0 -0 5.1398e-06)
(0 -0 5.14504e-06)
(0 -0 5.22561e-06)
(0 -0 5.39492e-06)
(0 -0 5.58863e-06)
(0 -0 5.74618e-06)
(0 -0 5.89216e-06)
(0 -0 6.05127e-06)
(0 -0 6.22238e-06)
(0 -0 6.40339e-06)
(0 -0 6.5901e-06)
(0 -0 6.77315e-06)
(0 -0 6.92955e-06)
(0 -0 6.9952e-06)
(0 -0 6.80764e-06)
(0 -0 6.15463e-06)
(0 -0 5.258e-06)
(0 -0 4.99216e-06)
(0 -0 5.08066e-06)
(0 -0 5.25898e-06)
(0 -0 5.46189e-06)
(0 -0 5.6281e-06)
(0 -0 5.78245e-06)
(0 -0 5.94998e-06)
(0 -0 6.1296e-06)
(0 -0 6.31931e-06)
(0 -0 6.51498e-06)
(0 -0 6.70749e-06)
(0 -0 6.87398e-06)
(0 -0 6.95091e-06)
(0 -0 6.77658e-06)
(0 -0 6.14114e-06)
(0 -0 5.27372e-06)
(0 -0 4.68573e-06)
(0 -0 4.78524e-06)
(0 -0 4.97557e-06)
(0 -0 5.19073e-06)
(0 -0 5.36889e-06)
(0 -0 5.53507e-06)
(0 -0 5.71461e-06)
(0 -0 5.9065e-06)
(0 -0 6.10882e-06)
(0 -0 6.31752e-06)
(0 -0 6.52369e-06)
(0 -0 6.70475e-06)
(0 -0 6.79751e-06)
(0 -0 6.64077e-06)
(0 -0 6.02519e-06)
(0 -0 5.18216e-06)
(0 -0 4.18292e-06)
(0 -0 4.29696e-06)
(0 -0 4.50283e-06)
(0 -0 4.73399e-06)
(0 -0 4.92799e-06)
(0 -0 5.11011e-06)
(0 -0 5.30599e-06)
(0 -0 5.51464e-06)
(0 -0 5.73425e-06)
(0 -0 5.96093e-06)
(0 -0 6.18588e-06)
(0 -0 6.38688e-06)
(0 -0 6.50105e-06)
(0 -0 6.36752e-06)
(0 -0 5.77668e-06)
(0 -0 4.96044e-06)
(0 -0 3.43418e-06)
(0 -0 3.56664e-06)
(0 -0 3.792e-06)
(0 -0 4.04333e-06)
(0 -0 4.25759e-06)
(0 -0 4.46033e-06)
(0 -0 4.67745e-06)
(0 -0 4.90805e-06)
(0 -0 5.15038e-06)
(0 -0 5.40072e-06)
(0 -0 5.65046e-06)
(0 -0 5.87763e-06)
(0 -0 6.0198e-06)
(0 -0 5.91632e-06)
(0 -0 5.35706e-06)
(0 -0 4.57381e-06)
(0 -0 2.38504e-06)
(0 -0 2.53995e-06)
(0 -0 2.78907e-06)
(0 -0 3.06504e-06)
(0 -0 3.30437e-06)
(0 -0 3.53284e-06)
(0 -0 3.77657e-06)
(0 -0 4.03481e-06)
(0 -0 4.30589e-06)
(0 -0 4.58621e-06)
(0 -0 4.86744e-06)
(0 -0 5.12785e-06)
(0 -0 5.30545e-06)
(0 -0 5.23991e-06)
(0 -0 4.72057e-06)
(0 -0 3.9787e-06)
(0 -0 9.78862e-07)
(0 -0 1.16032e-06)
(0 -0 1.43758e-06)
(0 -0 1.74281e-06)
(0 -0 2.0122e-06)
(0 -0 2.27175e-06)
(0 -0 2.54782e-06)
(0 -0 2.83971e-06)
(0 -0 3.14595e-06)
(0 -0 3.46308e-06)
(0 -0 3.78299e-06)
(0 -0 4.08433e-06)
(0 -0 4.30551e-06)
(0 -0 4.2866e-06)
(0 -0 3.81665e-06)
(0 -0 3.12609e-06)
(0 -0 -8.39489e-07)
(0 -0 -6.2745e-07)
(0 -0 -3.17826e-07)
(0 -0 2.12857e-08)
(0 -0 3.25737e-07)
(0 -0 6.21739e-07)
(0 -0 9.35918e-07)
(0 -0 1.26763e-06)
(0 -0 1.61559e-06)
(0 -0 1.97657e-06)
(0 -0 2.34268e-06)
(0 -0 2.69295e-06)
(0 -0 2.9663e-06)
(0 -0 3.00331e-06)
(0 -0 2.59289e-06)
(0 -0 1.96448e-06)
(0 -0 -3.11949e-06)
(0 -0 -2.87318e-06)
(0 -0 -2.52723e-06)
(0 -0 -2.14989e-06)
(0 -0 -1.8056e-06)
(0 -0 -1.46801e-06)
(0 -0 -1.11018e-06)
(0 -0 -7.32604e-07)
(0 -0 -3.36433e-07)
(0 -0 7.53746e-08)
(0 -0 4.9522e-07)
(0 -0 9.02525e-07)
(0 -0 1.23677e-06)
(0 -0 1.3392e-06)
(0 -0 9.98723e-07)
(0 -0 4.43665e-07)
(0 -0 -5.90026e-06)
(0 -0 -5.61655e-06)
(0 -0 -5.23078e-06)
(0 -0 -4.81143e-06)
(0 -0 -4.4231e-06)
(0 -0 -4.03922e-06)
(0 -0 -3.63269e-06)
(0 -0 -3.20371e-06)
(0 -0 -2.75324e-06)
(0 -0 -2.284e-06)
(0 -0 -1.80322e-06)
(0 -0 -1.33105e-06)
(0 -0 -9.27384e-07)
(0 -0 -7.50182e-07)
(0 -0 -1.01034e-06)
(0 -0 -1.48072e-06)
(0 -0 -9.2059e-06)
(0 -0 -8.88237e-06)
(0 -0 -8.45407e-06)
(0 -0 -7.98969e-06)
(0 -0 -7.55396e-06)
(0 -0 -7.12002e-06)
(0 -0 -6.66048e-06)
(0 -0 -6.17535e-06)
(0 -0 -5.66527e-06)
(0 -0 -5.13267e-06)
(0 -0 -4.58443e-06)
(0 -0 -4.04019e-06)
(0 -0 -3.55917e-06)
(0 -0 -3.29844e-06)
(0 -0 -3.46847e-06)
(0 -0 -3.84327e-06)
(0 -0 -1.30412e-05)
(0 -0 -1.26763e-05)
(0 -0 -1.22038e-05)
(0 -0 -1.16925e-05)
(0 -0 -1.12071e-05)
(0 -0 -1.07205e-05)
(0 -0 -1.02048e-05)
(0 -0 -9.65985e-06)
(0 -0 -9.08588e-06)
(0 -0 -8.48502e-06)
(0 -0 -7.86376e-06)
(0 -0 -7.24121e-06)
(0 -0 -6.67589e-06)
(0 -0 -6.32385e-06)
(0 -0 -6.39496e-06)
(0 -0 -6.66448e-06)
(0 -0 -1.73878e-05)
(0 -0 -1.69808e-05)
(0 -0 -1.64639e-05)
(0 -0 -1.59055e-05)
(0 -0 -1.53699e-05)
(0 -0 -1.48293e-05)
(0 -0 -1.42557e-05)
(0 -0 -1.36485e-05)
(0 -0 -1.30076e-05)
(0 -0 -1.23348e-05)
(0 -0 -1.16363e-05)
(0 -0 -1.09305e-05)
(0 -0 -1.02752e-05)
(0 -0 -9.82548e-06)
(0 -0 -9.79042e-06)
(0 -0 -9.94654e-06)
(0 -0 -2.22019e-05)
(0 -0 -2.17531e-05)
(0 -0 -2.11938e-05)
(0 -0 -2.05903e-05)
(0 -0 -2.00057e-05)
(0 -0 -1.94116e-05)
(0 -0 -1.87797e-05)
(0 -0 -1.81091e-05)
(0 -0 -1.73997e-05)
(0 -0 -1.66528e-05)
(0 -0 -1.58741e-05)
(0 -0 -1.50817e-05)
(0 -0 -1.43325e-05)
(0 -0 -1.37806e-05)
(0 -0 -1.36344e-05)
(0 -0 -1.36712e-05)
(0 -0 -2.74129e-05)
(0 -0 -2.69224e-05)
(0 -0 -2.63289e-05)
(0 -0 -2.56856e-05)
(0 -0 -2.50545e-05)
(0 -0 -2.44084e-05)
(0 -0 -2.37188e-05)
(0 -0 -2.2985e-05)
(0 -0 -2.22067e-05)
(0 -0 -2.1385e-05)
(0 -0 -2.05251e-05)
(0 -0 -1.96444e-05)
(0 -0 -1.87994e-05)
(0 -0 -1.81432e-05)
(0 -0 -1.78841e-05)
(0 -0 -1.77997e-05)
(0 -0 -3.29319e-05)
(0 -0 -3.24007e-05)
(0 -0 -3.177e-05)
(0 -0 -3.11101e-05)
(0 -0 -3.04345e-05)
(0 -0 -2.97371e-05)
(0 -0 -2.8991e-05)
(0 -0 -2.81953e-05)
(0 -0 -2.73493e-05)
(0 -0 -2.64537e-05)
(0 -0 -2.55132e-05)
(0 -0 -2.45447e-05)
(0 -0 -2.36041e-05)
(0 -0 -2.28444e-05)
(0 -0 -2.24761e-05)
(0 -0 -2.2275e-05)
(0 -0 0.000378721)
(0 -0 0.000377637)
(0 -0 0.000376186)
(0 -0 0.000373192)
(0 -0 0.000371242)
(0 -0 0.0003816)
(0 -0 0.00042331)
(0 -0 0.000513714)
(0 -0 0.000655551)
(0 -0 0.000385643)
(0 -0 0.000384548)
(0 -0 0.00038307)
(0 -0 0.000379995)
(0 -0 0.000377995)
(0 -0 0.000388711)
(0 -0 0.000431813)
(0 -0 0.000525209)
(0 -0 0.000671735)
(0 -0 0.000851233)
(0 -0 0.00102427)
(0 -0 0.00114578)
(0 -0 0.00118092)
(0 -0 0.00111611)
(0 -0 0.000961297)
(0 -0 0.000744235)
(0 -0 0.000500652)
(0 -0 0.000264554)
(0 -0 6.15078e-05)
(0 -0 -9.4124e-05)
(0 -0 -0.000198588)
(0 -0 -0.000256112)
(0 -0 -0.00027561)
(0 -0 -0.00026769)
(0 -0 -0.000242497)
(0 -0 -0.000208458)
(0 -0 -0.000171816)
(0 -0 -0.000136686)
(0 -0 -0.00010541)
(0 -0 -7.90035e-05)
(0 -0 -5.76e-05)
(0 -0 -4.08111e-05)
(0 -0 -2.79947e-05)
(0 -0 -1.8433e-05)
(0 -0 -1.14395e-05)
(0 -0 -6.41202e-06)
(0 -0 -2.8529e-06)
(0 -0 -3.67767e-07)
(0 -0 1.34558e-06)
(0 -0 2.51289e-06)
(0 -0 3.29915e-06)
(0 -0 3.82274e-06)
(0 -0 4.16749e-06)
(0 -0 4.39185e-06)
(0 -0 4.53626e-06)
(0 -0 4.62838e-06)
(0 -0 4.687e-06)
(0 -0 4.72484e-06)
(0 -0 4.75044e-06)
(0 -0 4.76934e-06)
(0 -0 4.78494e-06)
(0 -0 4.79855e-06)
(0 -0 4.81073e-06)
(0 -0 4.81515e-06)
(0 -0 4.82309e-06)
(0 -0 0.000392316)
(0 -0 0.00039121)
(0 -0 0.000389706)
(0 -0 0.000386547)
(0 -0 0.000384497)
(0 -0 0.000395586)
(0 -0 0.000440139)
(0 -0 0.000536644)
(0 -0 0.000688008)
(0 -0 0.0008734)
(0 -0 0.00105207)
(0 -0 0.00117744)
(0 -0 0.00121357)
(0 -0 0.0011465)
(0 -0 0.000986558)
(0 -0 0.000762446)
(0 -0 0.000511092)
(0 -0 0.00026761)
(0 -0 5.83797e-05)
(0 -0 -0.000101804)
(0 -0 -0.000209105)
(0 -0 -0.00026793)
(0 -0 -0.000287512)
(0 -0 -0.000278828)
(0 -0 -0.000252366)
(0 -0 -0.000216833)
(0 -0 -0.000178674)
(0 -0 -0.000142136)
(0 -0 -0.000109628)
(0 -0 -8.21931e-05)
(0 -0 -5.9961e-05)
(0 -0 -4.25237e-05)
(0 -0 -2.92122e-05)
(0 -0 -1.92801e-05)
(0 -0 -1.20141e-05)
(0 -0 -6.78889e-06)
(0 -0 -3.08788e-06)
(0 -0 -5.01822e-07)
(0 -0 1.283e-06)
(0 -0 2.50081e-06)
(0 -0 3.32287e-06)
(0 -0 3.87219e-06)
(0 -0 4.23569e-06)
(0 -0 4.47408e-06)
(0 -0 4.62935e-06)
(0 -0 4.73019e-06)
(0 -0 4.79619e-06)
(0 -0 4.84055e-06)
(0 -0 4.87212e-06)
(0 -0 4.89672e-06)
(0 -0 4.91786e-06)
(0 -0 4.93691e-06)
(0 -0 4.95266e-06)
(0 -0 4.96569e-06)
(0 -0 4.95879e-06)
(0 -0 0.000398736)
(0 -0 0.000397622)
(0 -0 0.000396092)
(0 -0 0.000392846)
(0 -0 0.000390745)
(0 -0 0.000402227)
(0 -0 0.000448294)
(0 -0 0.000548041)
(0 -0 0.000704436)
(0 -0 0.00089591)
(0 -0 0.00108035)
(0 -0 0.00120966)
(0 -0 0.00124673)
(0 -0 0.00117721)
(0 -0 0.00101185)
(0 -0 0.000780361)
(0 -0 0.000520916)
(0 -0 0.000269783)
(0 -0 5.41811e-05)
(0 -0 -0.000110654)
(0 -0 -0.000220812)
(0 -0 -0.000280888)
(0 -0 -0.00030046)
(0 -0 -0.00029089)
(0 -0 -0.000263026)
(0 -0 -0.000225868)
(0 -0 -0.000186073)
(0 -0 -0.000148021)
(0 -0 -0.000114194)
(0 -0 -8.56582e-05)
(0 -0 -6.25404e-05)
(0 -0 -4.44106e-05)
(0 -0 -3.05702e-05)
(0 -0 -2.02422e-05)
(0 -0 -1.26846e-05)
(0 -0 -7.24752e-06)
(0 -0 -3.39419e-06)
(0 -0 -6.99382e-07)
(0 -0 1.16282e-06)
(0 -0 2.43578e-06)
(0 -0 3.29739e-06)
(0 -0 3.87542e-06)
(0 -0 4.26021e-06)
(0 -0 4.51486e-06)
(0 -0 4.68302e-06)
(0 -0 4.79453e-06)
(0 -0 4.86971e-06)
(0 -0 4.92232e-06)
(0 -0 4.96154e-06)
(0 -0 4.99342e-06)
(0 -0 5.02167e-06)
(0 -0 5.04771e-06)
(0 -0 5.07007e-06)
(0 -0 5.08466e-06)
(0 -0 5.08203e-06)
(0 -0 0.000404904)
(0 -0 0.000403783)
(0 -0 0.000402226)
(0 -0 0.00039889)
(0 -0 0.000396737)
(0 -0 0.000408634)
(0 -0 0.000456293)
(0 -0 0.000559432)
(0 -0 0.000721043)
(0 -0 0.000918799)
(0 -0 0.00110918)
(0 -0 0.00124246)
(0 -0 0.00128036)
(0 -0 0.00120815)
(0 -0 0.00103702)
(0 -0 0.000797758)
(0 -0 0.00052985)
(0 -0 0.000270766)
(0 -0 4.85917e-05)
(0 -0 -0.000120987)
(0 -0 -0.000233995)
(0 -0 -0.000295241)
(0 -0 -0.000314668)
(0 -0 -0.000304052)
(0 -0 -0.000274619)
(0 -0 -0.000235676)
(0 -0 -0.0001941)
(0 -0 -0.000154411)
(0 -0 -0.000119162)
(0 -0 -8.94443e-05)
(0 -0 -6.53773e-05)
(0 -0 -4.65065e-05)
(0 -0 -3.21009e-05)
(0 -0 -2.13503e-05)
(0 -0 -1.34817e-05)
(0 -0 -7.81873e-06)
(0 -0 -3.80295e-06)
(0 -0 -9.92116e-07)
(0 -0 9.52728e-07)
(0 -0 2.28466e-06)
(0 -0 3.18866e-06)
(0 -0 3.79757e-06)
(0 -0 4.20534e-06)
(0 -0 4.47763e-06)
(0 -0 4.65977e-06)
(0 -0 4.78286e-06)
(0 -0 4.86803e-06)
(0 -0 4.92957e-06)
(0 -0 4.97703e-06)
(0 -0 5.01673e-06)
(0 -0 5.05253e-06)
(0 -0 5.08594e-06)
(0 -0 5.11542e-06)
(0 -0 5.13613e-06)
(0 -0 5.13837e-06)
(0 -0 0.000410816)
(0 -0 0.000409689)
(0 -0 0.000408106)
(0 -0 0.000404677)
(0 -0 0.000402471)
(0 -0 0.00041481)
(0 -0 0.000464144)
(0 -0 0.000570833)
(0 -0 0.000737888)
(0 -0 0.000942152)
(0 -0 0.00113861)
(0 -0 0.00127586)
(0 -0 0.00131442)
(0 -0 0.00123917)
(0 -0 0.00106183)
(0 -0 0.000814334)
(0 -0 0.00053754)
(0 -0 0.00027018)
(0 -0 4.12345e-05)
(0 -0 -0.000133159)
(0 -0 -0.000248977)
(0 -0 -0.00031127)
(0 -0 -0.000330376)
(0 -0 -0.000318512)
(0 -0 -0.000287304)
(0 -0 -0.000246385)
(0 -0 -0.000202859)
(0 -0 -0.000161388)
(0 -0 -0.0001246)
(0 -0 -9.36076e-05)
(0 -0 -6.85197e-05)
(0 -0 -4.88536e-05)
(0 -0 -3.38427e-05)
(0 -0 -2.26399e-05)
(0 -0 -1.44389e-05)
(0 -0 -8.53468e-06)
(0 -0 -4.34545e-06)
(0 -0 -1.41067e-06)
(0 -0 6.2255e-07)
(0 -0 2.01765e-06)
(0 -0 2.96719e-06)
(0 -0 3.60943e-06)
(0 -0 4.04215e-06)
(0 -0 4.33368e-06)
(0 -0 4.53125e-06)
(0 -0 4.66717e-06)
(0 -0 4.76347e-06)
(0 -0 4.835e-06)
(0 -0 4.89172e-06)
(0 -0 4.9402e-06)
(0 -0 4.98448e-06)
(0 -0 5.02616e-06)
(0 -0 5.06376e-06)
(0 -0 5.09243e-06)
(0 -0 5.10307e-06)
(0 -0 0.000416472)
(0 -0 0.000415341)
(0 -0 0.000413732)
(0 -0 0.000410205)
(0 -0 0.000407946)
(0 -0 0.000420755)
(0 -0 0.000471856)
(0 -0 0.000582265)
(0 -0 0.000754993)
(0 -0 0.000965988)
(0 -0 0.00116864)
(0 -0 0.00130982)
(0 -0 0.00134879)
(0 -0 0.0012701)
(0 -0 0.00108604)
(0 -0 0.000829776)
(0 -0 0.000543624)
(0 -0 0.000267635)
(0 -0 3.17136e-05)
(0 -0 -0.000147553)
(0 -0 -0.000266115)
(0 -0 -0.000329294)
(0 -0 -0.000347861)
(0 -0 -0.000334505)
(0 -0 -0.000301281)
(0 -0 -0.000258158)
(0 -0 -0.000212483)
(0 -0 -0.000169064)
(0 -0 -0.0001306)
(0 -0 -9.82255e-05)
(0 -0 -7.20337e-05)
(0 -0 -5.15097e-05)
(0 -0 -3.58469e-05)
(0 -0 -2.41579e-05)
(0 -0 -1.55998e-05)
(0 -0 -9.43661e-06)
(0 -0 -5.06117e-06)
(0 -0 -1.99322e-06)
(0 -0 1.35094e-07)
(0 -0 1.59837e-06)
(0 -0 2.59727e-06)
(0 -0 3.27585e-06)
(0 -0 3.73601e-06)
(0 -0 4.04892e-06)
(0 -0 4.26379e-06)
(0 -0 4.41431e-06)
(0 -0 4.52338e-06)
(0 -0 4.6065e-06)
(0 -0 4.67403e-06)
(0 -0 4.73282e-06)
(0 -0 4.78709e-06)
(0 -0 4.83856e-06)
(0 -0 4.88589e-06)
(0 -0 4.92448e-06)
(0 -0 4.94652e-06)
(0 -0 0.000421871)
(0 -0 0.000420738)
(0 -0 0.000419101)
(0 -0 0.000415471)
(0 -0 0.00041316)
(0 -0 0.000426472)
(0 -0 0.000479437)
(0 -0 0.000593745)
(0 -0 0.000772382)
(0 -0 0.00099032)
(0 -0 0.00119926)
(0 -0 0.00134427)
(0 -0 0.00138334)
(0 -0 0.00130072)
(0 -0 0.00110935)
(0 -0 0.000843704)
(0 -0 0.000547672)
(0 -0 0.000262675)
(0 -0 1.95704e-05)
(0 -0 -0.000164609)
(0 -0 -0.000285812)
(0 -0 -0.000349673)
(0 -0 -0.000367437)
(0 -0 -0.000352298)
(0 -0 -0.00031677)
(0 -0 -0.00027118)
(0 -0 -0.000223124)
(0 -0 -0.000177563)
(0 -0 -0.000137266)
(0 -0 -0.000103385)
(0 -0 -7.59937e-05)
(0 -0 -5.45399e-05)
(0 -0 -3.81718e-05)
(0 -0 -2.59577e-05)
(0 -0 -1.70144e-05)
(0 -0 -1.05719e-05)
(0 -0 -5.99562e-06)
(0 -0 -2.78397e-06)
(0 -0 -5.52842e-07)
(0 -0 9.84379e-07)
(0 -0 2.03708e-06)
(0 -0 2.75556e-06)
(0 -0 3.24613e-06)
(0 -0 3.58301e-06)
(0 -0 3.81752e-06)
(0 -0 3.98482e-06)
(0 -0 4.10879e-06)
(0 -0 4.20556e-06)
(0 -0 4.28595e-06)
(0 -0 4.35709e-06)
(0 -0 4.42341e-06)
(0 -0 4.48677e-06)
(0 -0 4.54598e-06)
(0 -0 4.59686e-06)
(0 -0 4.63294e-06)
(0 -0 0.000427012)
(0 -0 0.000425879)
(0 -0 0.000424214)
(0 -0 0.000420476)
(0 -0 0.000418113)
(0 -0 0.000431963)
(0 -0 0.000486899)
(0 -0 0.000605292)
(0 -0 0.000790072)
(0 -0 0.00101515)
(0 -0 0.00123044)
(0 -0 0.00137912)
(0 -0 0.0014179)
(0 -0 0.00133076)
(0 -0 0.00113138)
(0 -0 0.000855682)
(0 -0 0.000549195)
(0 -0 0.000254787)
(0 -0 4.29323e-06)
(0 -0 -0.000184814)
(0 -0 -0.000308516)
(0 -0 -0.000372805)
(0 -0 -0.000389446)
(0 -0 -0.000372182)
(0 -0 -0.000334014)
(0 -0 -0.00028565)
(0 -0 -0.000234946)
(0 -0 -0.000187019)
(0 -0 -0.000144709)
(0 -0 -0.00010918)
(0 -0 -8.04808e-05)
(0 -0 -5.80155e-05)
(0 -0 -4.08819e-05)
(0 -0 -2.80987e-05)
(0 -0 -1.87383e-05)
(0 -0 -1.19937e-05)
(0 -0 -7.20023e-06)
(0 -0 -3.83309e-06)
(0 -0 -1.49054e-06)
(0 -0 1.27049e-07)
(0 -0 1.23849e-06)
(0 -0 2.00084e-06)
(0 -0 2.52511e-06)
(0 -0 2.88889e-06)
(0 -0 3.14573e-06)
(0 -0 3.33234e-06)
(0 -0 3.47366e-06)
(0 -0 3.58651e-06)
(0 -0 3.68219e-06)
(0 -0 3.76814e-06)
(0 -0 3.84899e-06)
(0 -0 3.92678e-06)
(0 -0 4.00051e-06)
(0 -0 4.06642e-06)
(0 -0 4.11934e-06)
(0 -0 0.000431895)
(0 -0 0.000430762)
(0 -0 0.000429069)
(0 -0 0.000425217)
(0 -0 0.000422803)
(0 -0 0.000437231)
(0 -0 0.000494251)
(0 -0 0.000616924)
(0 -0 0.000808079)
(0 -0 0.00104048)
(0 -0 0.00126214)
(0 -0 0.00141426)
(0 -0 0.00145226)
(0 -0 0.0013599)
(0 -0 0.00115174)
(0 -0 0.000865226)
(0 -0 0.000547658)
(0 -0 0.000243413)
(0 -0 -1.46685e-05)
(0 -0 -0.000208689)
(0 -0 -0.000334703)
(0 -0 -0.00039911)
(0 -0 -0.000414249)
(0 -0 -0.000394461)
(0 -0 -0.000353266)
(0 -0 -0.000301775)
(0 -0 -0.000248119)
(0 -0 -0.000197573)
(0 -0 -0.000153046)
(0 -0 -0.000115709)
(0 -0 -8.55801e-05)
(0 -0 -6.20119e-05)
(0 -0 -4.40453e-05)
(0 -0 -3.06438e-05)
(0 -0 -2.08312e-05)
(0 -0 -1.37592e-05)
(0 -0 -8.73062e-06)
(0 -0 -5.1951e-06)
(0 -0 -2.7318e-06)
(0 -0 -1.02695e-06)
(0 -0 1.4851e-07)
(0 -0 9.58917e-07)
(0 -0 1.52043e-06)
(0 -0 1.91416e-06)
(0 -0 2.19616e-06)
(0 -0 2.40477e-06)
(0 -0 2.56607e-06)
(0 -0 2.69765e-06)
(0 -0 2.81128e-06)
(0 -0 2.91475e-06)
(0 -0 3.01292e-06)
(0 -0 3.108e-06)
(0 -0 3.19918e-06)
(0 -0 3.28315e-06)
(0 -0 3.35597e-06)
(0 -0 0.000436519)
(0 -0 0.00043539)
(0 -0 0.000433666)
(0 -0 0.000429694)
(0 -0 0.000427232)
(0 -0 0.00044228)
(0 -0 0.000501501)
(0 -0 0.000628652)
(0 -0 0.000826411)
(0 -0 0.00106629)
(0 -0 0.00129427)
(0 -0 0.00144953)
(0 -0 0.00148617)
(0 -0 0.00138781)
(0 -0 0.00116998)
(0 -0 0.000871822)
(0 -0 0.000542498)
(0 -0 0.000227974)
(0 -0 -3.7882e-05)
(0 -0 -0.000236767)
(0 -0 -0.000364853)
(0 -0 -0.00042901)
(0 -0 -0.00044221)
(0 -0 -0.000419438)
(0 -0 -0.000374776)
(0 -0 -0.000319762)
(0 -0 -0.000262812)
(0 -0 -0.000209363)
(0 -0 -0.000162393)
(0 -0 -0.000123071)
(0 -0 -9.13764e-05)
(0 -0 -6.66042e-05)
(0 -0 -4.77304e-05)
(0 -0 -3.3657e-05)
(0 -0 -2.33536e-05)
(0 -0 -1.5927e-05)
(0 -0 -1.0644e-05)
(0 -0 -6.92636e-06)
(0 -0 -4.33249e-06)
(0 -0 -2.53321e-06)
(0 -0 -1.28834e-06)
(0 -0 -4.2565e-07)
(0 -0 1.76603e-07)
(0 -0 6.03354e-07)
(0 -0 9.13295e-07)
(0 -0 1.14658e-06)
(0 -0 1.3305e-06)
(0 -0 1.48344e-06)
(0 -0 1.61774e-06)
(0 -0 1.74152e-06)
(0 -0 1.85991e-06)
(0 -0 1.97527e-06)
(0 -0 2.08703e-06)
(0 -0 2.19226e-06)
(0 -0 2.28819e-06)
(0 -0 0.000440885)
(0 -0 0.00043976)
(0 -0 0.000438004)
(0 -0 0.000433907)
(0 -0 0.000431399)
(0 -0 0.000447112)
(0 -0 0.000508657)
(0 -0 0.000640486)
(0 -0 0.000845064)
(0 -0 0.00109254)
(0 -0 0.00132675)
(0 -0 0.00148476)
(0 -0 0.00151937)
(0 -0 0.00141412)
(0 -0 0.00118565)
(0 -0 0.000874945)
(0 -0 0.000533152)
(0 -0 0.000207898)
(0 -0 -6.59034e-05)
(0 -0 -0.000269565)
(0 -0 -0.000399432)
(0 -0 -0.000462911)
(0 -0 -0.000473673)
(0 -0 -0.000447403)
(0 -0 -0.000398784)
(0 -0 -0.000339805)
(0 -0 -0.000279184)
(0 -0 -0.00022252)
(0 -0 -0.000172857)
(0 -0 -0.000131356)
(0 -0 -9.79491e-05)
(0 -0 -7.18632e-05)
(0 -0 -5.2002e-05)
(0 -0 -3.7199e-05)
(0 -0 -2.63637e-05)
(0 -0 -1.85534e-05)
(0 -0 -1.29955e-05)
(0 -0 -9.08165e-06)
(0 -0 -6.34721e-06)
(0 -0 -4.44634e-06)
(0 -0 -3.1268e-06)
(0 -0 -2.20779e-06)
(0 -0 -1.56156e-06)
(0 -0 -1.09898e-06)
(0 -0 -7.58531e-07)
(0 -0 -4.9812e-07)
(0 -0 -2.89156e-07)
(0 -0 -1.12363e-07)
(0 -0 4.51671e-08)
(0 -0 1.9195e-07)
(0 -0 3.33359e-07)
(0 -0 4.71961e-07)
(0 -0 6.07386e-07)
(0 -0 7.37082e-07)
(0 -0 8.59362e-07)
(0 -0 0.000444993)
(0 -0 0.000443874)
(0 -0 0.000442085)
(0 -0 0.000437855)
(0 -0 0.000435305)
(0 -0 0.00045173)
(0 -0 0.000515725)
(0 -0 0.000652428)
(0 -0 0.000864027)
(0 -0 0.00111918)
(0 -0 0.00135948)
(0 -0 0.00151977)
(0 -0 0.00155158)
(0 -0 0.00143846)
(0 -0 0.0011983)
(0 -0 0.000874093)
(0 -0 0.000519089)
(0 -0 0.00018265)
(0 -0 -9.9243e-05)
(0 -0 -0.000307553)
(0 -0 -0.000438859)
(0 -0 -0.000501175)
(0 -0 -0.000508942)
(0 -0 -0.000478607)
(0 -0 -0.000425493)
(0 -0 -0.000362071)
(0 -0 -0.000297369)
(0 -0 -0.000237155)
(0 -0 -0.00018453)
(0 -0 -0.000140643)
(0 -0 -0.000105366)
(0 -0 -7.78499e-05)
(0 -0 -5.69162e-05)
(0 -0 -4.13225e-05)
(0 -0 -2.99122e-05)
(0 -0 -2.16882e-05)
(0 -0 -1.58347e-05)
(0 -0 -1.17102e-05)
(0 -0 -8.82528e-06)
(0 -0 -6.81598e-06)
(0 -0 -5.41693e-06)
(0 -0 -4.43801e-06)
(0 -0 -3.74501e-06)
(0 -0 -3.2443e-06)
(0 -0 -2.87127e-06)
(0 -0 -2.58173e-06)
(0 -0 -2.34572e-06)
(0 -0 -2.14298e-06)
(0 -0 -1.96001e-06)
(0 -0 -1.78786e-06)
(0 -0 -1.62091e-06)
(0 -0 -1.45636e-06)
(0 -0 -1.29441e-06)
(0 -0 -1.13721e-06)
(0 -0 -9.85509e-07)
(0 -0 0.000448844)
(0 -0 0.000447732)
(0 -0 0.000445908)
(0 -0 0.000441539)
(0 -0 0.000438951)
(0 -0 0.000456137)
(0 -0 0.000522706)
(0 -0 0.000664473)
(0 -0 0.000883272)
(0 -0 0.00114616)
(0 -0 0.00139233)
(0 -0 0.00155437)
(0 -0 0.00158252)
(0 -0 0.00146048)
(0 -0 0.00120753)
(0 -0 0.000868818)
(0 -0 0.000499845)
(0 -0 0.000151778)
(0 -0 -0.000138326)
(0 -0 -0.000351116)
(0 -0 -0.000483469)
(0 -0 -0.000544088)
(0 -0 -0.000548257)
(0 -0 -0.000513245)
(0 -0 -0.000455063)
(0 -0 -0.000386687)
(0 -0 -0.000317469)
(0 -0 -0.00025335)
(0 -0 -0.000197482)
(0 -0 -0.000150989)
(0 -0 -0.000113678)
(0 -0 -8.46095e-05)
(0 -0 -6.25151e-05)
(0 -0 -4.60678e-05)
(0 -0 -3.40384e-05)
(0 -0 -2.53701e-05)
(0 -0 -1.92002e-05)
(0 -0 -1.48511e-05)
(0 -0 -1.18064e-05)
(0 -0 -9.68244e-06)
(0 -0 -8.19971e-06)
(0 -0 -7.15806e-06)
(0 -0 -6.41624e-06)
(0 -0 -5.87579e-06)
(0 -0 -5.46879e-06)
(0 -0 -5.14881e-06)
(0 -0 -4.88436e-06)
(0 -0 -4.65421e-06)
(0 -0 -4.44416e-06)
(0 -0 -4.24484e-06)
(0 -0 -4.05032e-06)
(0 -0 -3.85762e-06)
(0 -0 -3.66669e-06)
(0 -0 -3.47936e-06)
(0 -0 -3.29553e-06)
(0 -0 0.000452437)
(0 -0 0.000451334)
(0 -0 0.000449474)
(0 -0 0.000444961)
(0 -0 0.000442338)
(0 -0 0.000460335)
(0 -0 0.000529597)
(0 -0 0.000676606)
(0 -0 0.00090276)
(0 -0 0.00117339)
(0 -0 0.00142516)
(0 -0 0.00158835)
(0 -0 0.00161194)
(0 -0 0.00147987)
(0 -0 0.00121299)
(0 -0 0.000858763)
(0 -0 0.00047507)
(0 -0 0.00011495)
(0 -0 -0.000183454)
(0 -0 -0.000400514)
(0 -0 -0.000533482)
(0 -0 -0.00059183)
(0 -0 -0.000591762)
(0 -0 -0.000551431)
(0 -0 -0.000487581)
(0 -0 -0.00041372)
(0 -0 -0.000339539)
(0 -0 -0.000271147)
(0 -0 -0.000211745)
(0 -0 -0.000162424)
(0 -0 -0.00012291)
(0 -0 -9.21659e-05)
(0 -0 -6.88213e-05)
(0 -0 -5.14571e-05)
(0 -0 -3.87647e-05)
(0 -0 -2.96222e-05)
(0 -0 -2.31159e-05)
(0 -0 -1.85289e-05)
(0 -0 -1.53161e-05)
(0 -0 -1.30722e-05)
(0 -0 -1.15026e-05)
(0 -0 -1.03964e-05)
(0 -0 -9.60465e-06)
(0 -0 -9.02381e-06)
(0 -0 -8.58238e-06)
(0 -0 -8.23151e-06)
(0 -0 -7.9381e-06)
(0 -0 -7.67986e-06)
(0 -0 -7.44189e-06)
(0 -0 -7.21434e-06)
(0 -0 -6.99097e-06)
(0 -0 -6.76856e-06)
(0 -0 -6.54687e-06)
(0 -0 -6.32741e-06)
(0 -0 -6.10928e-06)
(0 -0 0.000455775)
(0 -0 0.000454683)
(0 -0 0.000452783)
(0 -0 0.00044812)
(0 -0 0.00044547)
(0 -0 0.000464324)
(0 -0 0.000536393)
(0 -0 0.000688802)
(0 -0 0.000922435)
(0 -0 0.00120076)
(0 -0 0.00145783)
(0 -0 0.00162153)
(0 -0 0.00163961)
(0 -0 0.00149639)
(0 -0 0.00121444)
(0 -0 0.0008437)
(0 -0 0.00044456)
(0 -0 7.19965e-05)
(0 -0 -0.000234758)
(0 -0 -0.000455848)
(0 -0 -0.00058897)
(0 -0 -0.000644448)
(0 -0 -0.000639484)
(0 -0 -0.000593179)
(0 -0 -0.000523052)
(0 -0 -0.000443171)
(0 -0 -0.000363574)
(0 -0 -0.000290542)
(0 -0 -0.000227315)
(0 -0 -0.000174943)
(0 -0 -0.000133059)
(0 -0 -0.000100516)
(0 -0 -7.58334e-05)
(0 -0 -5.74906e-05)
(0 -0 -4.40926e-05)
(0 -0 -3.44474e-05)
(0 -0 -2.75859e-05)
(0 -0 -2.27495e-05)
(0 -0 -1.93613e-05)
(0 -0 -1.69936e-05)
(0 -0 -1.53353e-05)
(0 -0 -1.41637e-05)
(0 -0 -1.33222e-05)
(0 -0 -1.27014e-05)
(0 -0 -1.22262e-05)
(0 -0 -1.18451e-05)
(0 -0 -1.15232e-05)
(0 -0 -1.12372e-05)
(0 -0 -1.09715e-05)
(0 -0 -1.07156e-05)
(0 -0 -1.0463e-05)
(0 -0 -1.02102e-05)
(0 -0 -9.95679e-06)
(0 -0 -9.70399e-06)
(0 -0 -9.45013e-06)
(0 -0 0.000458858)
(0 -0 0.000457778)
(0 -0 0.000455838)
(0 -0 0.00045102)
(0 -0 0.000448346)
(0 -0 0.000468102)
(0 -0 0.00054308)
(0 -0 0.000701026)
(0 -0 0.000942228)
(0 -0 0.00122818)
(0 -0 0.0014902)
(0 -0 0.00165373)
(0 -0 0.00166537)
(0 -0 0.00150988)
(0 -0 0.00121176)
(0 -0 0.000823562)
(0 -0 0.0004083)
(0 -0 2.2948e-05)
(0 -0 -0.000292173)
(0 -0 -0.000517023)
(0 -0 -0.000649822)
(0 -0 -0.000701825)
(0 -0 -0.00069131)
(0 -0 -0.000638382)
(0 -0 -0.00056138)
(0 -0 -0.000474955)
(0 -0 -0.000389501)
(0 -0 -0.00031147)
(0 -0 -0.000244138)
(0 -0 -0.000188499)
(0 -0 -0.000144084)
(0 -0 -0.000109626)
(0 -0 -8.35217e-05)
(0 -0 -6.41421e-05)
(0 -0 -4.9999e-05)
(0 -0 -3.9825e-05)
(0 -0 -3.25919e-05)
(0 -0 -2.7496e-05)
(0 -0 -2.39272e-05)
(0 -0 -2.14333e-05)
(0 -0 -1.96856e-05)
(0 -0 -1.84496e-05)
(0 -0 -1.75596e-05)
(0 -0 -1.69007e-05)
(0 -0 -1.63935e-05)
(0 -0 -1.59839e-05)
(0 -0 -1.56353e-05)
(0 -0 -1.53231e-05)
(0 -0 -1.50308e-05)
(0 -0 -1.47475e-05)
(0 -0 -1.44663e-05)
(0 -0 -1.41835e-05)
(0 -0 -1.38985e-05)
(0 -0 -1.3612e-05)
(0 -0 -1.33219e-05)
(0 -0 0.000461687)
(0 -0 0.000460621)
(0 -0 0.000458639)
(0 -0 0.000453662)
(0 -0 0.000450971)
(0 -0 0.000471668)
(0 -0 0.000549641)
(0 -0 0.000713231)
(0 -0 0.000962052)
(0 -0 0.00125552)
(0 -0 0.00152212)
(0 -0 0.00168483)
(0 -0 0.00168911)
(0 -0 0.00152032)
(0 -0 0.00120499)
(0 -0 0.00079847)
(0 -0 0.000366487)
(0 -0 -3.19364e-05)
(0 -0 -0.000355398)
(0 -0 -0.000583725)
(0 -0 -0.000715725)
(0 -0 -0.000763667)
(0 -0 -0.000746971)
(0 -0 -0.000686804)
(0 -0 -0.00060236)
(0 -0 -0.000508896)
(0 -0 -0.000417171)
(0 -0 -0.000333808)
(0 -0 -0.000262109)
(0 -0 -0.000203003)
(0 -0 -0.00015591)
(0 -0 -0.000119428)
(0 -0 -9.1826e-05)
(0 -0 -7.13571e-05)
(0 -0 -5.6434e-05)
(0 -0 -4.57086e-05)
(0 -0 -3.80902e-05)
(0 -0 -3.27273e-05)
(0 -0 -2.89745e-05)
(0 -0 -2.63536e-05)
(0 -0 -2.45179e-05)
(0 -0 -2.32194e-05)
(0 -0 -2.22839e-05)
(0 -0 -2.15898e-05)
(0 -0 -2.10538e-05)
(0 -0 -2.06189e-05)
(0 -0 -2.02465e-05)
(0 -0 -1.99107e-05)
(0 -0 -1.95942e-05)
(0 -0 -1.92857e-05)
(0 -0 -1.89778e-05)
(0 -0 -1.86665e-05)
(0 -0 -1.83509e-05)
(0 -0 -1.80315e-05)
(0 -0 -1.77056e-05)
(0 -0 0.000464265)
(0 -0 0.000463213)
(0 -0 0.000461188)
(0 -0 0.000456049)
(0 -0 0.000453347)
(0 -0 0.000475017)
(0 -0 0.000556052)
(0 -0 0.000725358)
(0 -0 0.00098181)
(0 -0 0.00128265)
(0 -0 0.00155345)
(0 -0 0.00171471)
(0 -0 0.00171079)
(0 -0 0.00152777)
(0 -0 0.00119434)
(0 -0 0.000768754)
(0 -0 0.000319555)
(0 -0 -9.21517e-05)
(0 -0 -0.000423892)
(0 -0 -0.000655404)
(0 -0 -0.000786152)
(0 -0 -0.000829487)
(0 -0 -0.000806033)
(0 -0 -0.000738067)
(0 -0 -0.000645671)
(0 -0 -0.000544725)
(0 -0 -0.000446361)
(0 -0 -0.000357369)
(0 -0 -0.000281071)
(0 -0 -0.000218322)
(0 -0 -0.00016842)
(0 -0 -0.000129821)
(0 -0 -0.000100655)
(0 -0 -7.90527e-05)
(0 -0 -6.33202e-05)
(0 -0 -5.20255e-05)
(0 -0 -4.40116e-05)
(0 -0 -3.83768e-05)
(0 -0 -3.44387e-05)
(0 -0 -3.16923e-05)
(0 -0 -2.97711e-05)
(0 -0 -2.8414e-05)
(0 -0 -2.74369e-05)
(0 -0 -2.67122e-05)
(0 -0 -2.61517e-05)
(0 -0 -2.56957e-05)
(0 -0 -2.53036e-05)
(0 -0 -2.49481e-05)
(0 -0 -2.46111e-05)
(0 -0 -2.42807e-05)
(0 -0 -2.39491e-05)
(0 -0 -2.36119e-05)
(0 -0 -2.3268e-05)
(0 -0 -2.29173e-05)
(0 -0 -2.25571e-05)
(0 -0 0.000466592)
(0 -0 0.000465555)
(0 -0 0.000463488)
(0 -0 0.000458185)
(0 -0 0.000455476)
(0 -0 0.000478144)
(0 -0 0.000562283)
(0 -0 0.000737341)
(0 -0 0.00100139)
(0 -0 0.00130942)
(0 -0 0.00158406)
(0 -0 0.0017433)
(0 -0 0.00173048)
(0 -0 0.00153244)
(0 -0 0.00118018)
(0 -0 0.000734953)
(0 -0 0.000268172)
(0 -0 -0.000156943)
(0 -0 -0.000496861)
(0 -0 -0.000731275)
(0 -0 -0.000860362)
(0 -0 -0.00089861)
(0 -0 -0.0008679)
(0 -0 -0.000791659)
(0 -0 -0.00069088)
(0 -0 -0.00058208)
(0 -0 -0.00047677)
(0 -0 -0.000381902)
(0 -0 -0.000300814)
(0 -0 -0.000234279)
(0 -0 -0.000181462)
(0 -0 -0.00014067)
(0 -0 -0.00010989)
(0 -0 -8.71184e-05)
(0 -0 -7.05547e-05)
(0 -0 -5.8678e-05)
(0 -0 -5.02623e-05)
(0 -0 -4.4354e-05)
(0 -0 -4.02318e-05)
(0 -0 -3.73627e-05)
(0 -0 -3.53606e-05)
(0 -0 -3.39498e-05)
(0 -0 -3.29367e-05)
(0 -0 -3.21867e-05)
(0 -0 -3.16074e-05)
(0 -0 -3.11357e-05)
(0 -0 -3.07291e-05)
(0 -0 -3.03589e-05)
(0 -0 -3.00061e-05)
(0 -0 -2.96581e-05)
(0 -0 -2.93069e-05)
(0 -0 -2.89476e-05)
(0 -0 -2.85783e-05)
(0 -0 -2.81984e-05)
(0 -0 -2.78072e-05)
(0 -0 0.00046867)
(0 -0 0.000467651)
(0 -0 0.00046554)
(0 -0 0.000460072)
(0 -0 0.000457362)
(0 -0 0.00048104)
(0 -0 0.000568301)
(0 -0 0.000749101)
(0 -0 0.00102067)
(0 -0 0.0013357)
(0 -0 0.00161384)
(0 -0 0.0017706)
(0 -0 0.0017483)
(0 -0 0.00153467)
(0 -0 0.00116306)
(0 -0 0.000697806)
(0 -0 0.000213233)
(0 -0 -0.00022532)
(0 -0 -0.000573281)
(0 -0 -0.000810332)
(0 -0 -0.000937409)
(0 -0 -0.000970182)
(0 -0 -0.000931825)
(0 -0 -0.000846938)
(0 -0 -0.000737448)
(0 -0 -0.000620516)
(0 -0 -0.000508028)
(0 -0 -0.000407103)
(0 -0 -0.000321086)
(0 -0 -0.00025066)
(0 -0 -0.000194852)
(0 -0 -0.000151815)
(0 -0 -0.000119383)
(0 -0 -9.54208e-05)
(0 -0 -7.80125e-05)
(0 -0 -6.55471e-05)
(0 -0 -5.67277e-05)
(0 -0 -5.05471e-05)
(0 -0 -4.62443e-05)
(0 -0 -4.32576e-05)
(0 -0 -4.11801e-05)
(0 -0 -3.97219e-05)
(0 -0 -3.86792e-05)
(0 -0 -3.79106e-05)
(0 -0 -3.73188e-05)
(0 -0 -3.68378e-05)
(0 -0 -3.64227e-05)
(0 -0 -3.60437e-05)
(0 -0 -3.56807e-05)
(0 -0 -3.53207e-05)
(0 -0 -3.49549e-05)
(0 -0 -3.45781e-05)
(0 -0 -3.41869e-05)
(0 -0 -3.37844e-05)
(0 -0 -3.33538e-05)
(0 -0 0.000470467)
(0 -0 0.000469463)
(0 -0 0.000467309)
(0 -0 0.000461682)
(0 -0 0.000458973)
(0 -0 0.000483644)
(0 -0 0.000573947)
(0 -0 0.000760319)
(0 -0 0.00103913)
(0 -0 0.00136082)
(0 -0 0.00164211)
(0 -0 0.00179608)
(0 -0 0.00176415)
(0 -0 0.00153492)
(0 -0 0.0011441)
(0 -0 0.000659077)
(0 -0 0.000157042)
(0 -0 -0.000294598)
(0 -0 -0.000650271)
(0 -0 -0.000889681)
(0 -0 -0.00101453)
(0 -0 -0.00104167)
(0 -0 -0.000995571)
(0 -0 -0.000901987)
(0 -0 -0.000783766)
(0 -0 -0.000658704)
(0 -0 -0.000539056)
(0 -0 -0.000432097)
(0 -0 -0.000341174)
(0 -0 -0.000266881)
(0 -0 -0.000208106)
(0 -0 -0.000162843)
(0 -0 -0.000128778)
(0 -0 -0.000103639)
(0 -0 -8.53998e-05)
(0 -0 -7.23573e-05)
(0 -0 -6.31447e-05)
(0 -0 -5.67012e-05)
(0 -0 -5.22265e-05)
(0 -0 -4.91301e-05)
(0 -0 -4.69847e-05)
(0 -0 -4.54859e-05)
(0 -0 -4.44201e-05)
(0 -0 -4.36388e-05)
(0 -0 -4.30403e-05)
(0 -0 -4.25553e-05)
(0 -0 -4.21369e-05)
(0 -0 -4.17538e-05)
(0 -0 -4.13851e-05)
(0 -0 -4.10171e-05)
(0 -0 -4.06407e-05)
(0 -0 -4.02498e-05)
(0 -0 -3.98416e-05)
(0 -0 -3.94089e-05)
(0 -0 -3.89609e-05)
(0 -0 0.000472016)
(0 -0 0.000471028)
(0 -0 0.000468833)
(0 -0 0.00046305)
(0 -0 0.000460346)
(0 -0 0.000485989)
(0 -0 0.000579261)
(0 -0 0.000771048)
(0 -0 0.00105687)
(0 -0 0.00138494)
(0 -0 0.00166911)
(0 -0 0.00182012)
(0 -0 0.0017785)
(0 -0 0.00153376)
(0 -0 0.00112395)
(0 -0 0.000619457)
(0 -0 0.000100291)
(0 -0 -0.000364118)
(0 -0 -0.000727234)
(0 -0 -0.000968792)
(0 -0 -0.00109127)
(0 -0 -0.00111271)
(0 -0 -0.00105883)
(0 -0 -0.000956551)