/*--------------------------------*- C++ -*----------------------------------*\
| =========                 |                                                 |
| \\      /  F ield         | OpenFOAM: The Open Source CFD Toolbox           |
|  \\    /   O peration     | Version:  2412                                  |
|   \\  /    A nd           | Website:  www.openfoam.com                      |
|    \\/     M anipulation  |                                                 |
\*---------------------------------------------------------------------------*/
FoamFile
{
    version     2.0;
    format      ascii;
    arch        "LSB;label=32;scalar=64";
    class       volScalarField;
    location    "27";
    object      p;
}
// * * * * * * * * * * * * * * * * * * * * * * * * * * * * * * * * * * * * * //

dimensions      [0 2 -2 0 0 0 0];

internalField   nonuniform List<scalar> 
63420
(
0.000914167
0.00091443
0.000915263
0.00091655
0.000918274
0.000920421
0.000922975
0.000925921
0.000929249
0.000932947
0.000937008
0.000941425
0.000946191
0.0009513
0.000956749
0.000962533
0.00096865
0.000975095
0.000981866
0.000988962
0.00099638
0.00100412
0.00101218
0.00102057
0.00102927
0.00103831
0.00104767
0.00105736
0.00106739
0.00107775
0.00108846
0.00109951
0.00111091
0.00112265
0.00113476
0.00114722
0.00116005
0.00117324
0.0011868
0.00120074
0.00121506
0.00122976
0.00124484
0.00126031
0.00127618
0.00129245
0.00130912
0.0013262
0.00134368
0.00136158
0.00137991
0.00139865
0.00141783
0.00143743
0.00145748
0.000914107
0.000914369
0.000915202
0.000916488
0.000918211
0.000920356
0.000922908
0.000925852
0.000929177
0.000932873
0.000936931
0.000941345
0.000946106
0.000951212
0.000956656
0.000962436
0.000968547
0.000974987
0.000981752
0.000988841
0.000996253
0.00100399
0.00101204
0.00102042
0.00102911
0.00103814
0.00104749
0.00105717
0.00106719
0.00107754
0.00108823
0.00109927
0.00111065
0.00112239
0.00113447
0.00114692
0.00115973
0.0011729
0.00118644
0.00120036
0.00121465
0.00122933
0.00124439
0.00125983
0.00127567
0.00129191
0.00130855
0.00132559
0.00134304
0.0013609
0.00137918
0.00139788
0.00141701
0.00143657
0.00145656
0.000913986
0.000914248
0.00091508
0.000916364
0.000918084
0.000920227
0.000922775
0.000925715
0.000929035
0.000932725
0.000936777
0.000941184
0.000945938
0.000951036
0.000956471
0.000962241
0.000968342
0.00097477
0.000981524
0.0009886
0.000995998
0.00100372
0.00101175
0.00102011
0.0010288
0.0010378
0.00104713
0.0010568
0.00106679
0.00107712
0.00108778
0.00109879
0.00111015
0.00112185
0.00113391
0.00114632
0.00115909
0.00117222
0.00118573
0.0011996
0.00121385
0.00122847
0.00124348
0.00125887
0.00127465
0.00129083
0.0013074
0.00132437
0.00134175
0.00135954
0.00137774
0.00139635
0.00141539
0.00143485
0.00145473
0.000913805
0.000914067
0.000914897
0.000916178
0.000917895
0.000920033
0.000922575
0.000925509
0.000928822
0.000932504
0.000936547
0.000940943
0.000945686
0.000950771
0.000956194
0.000961949
0.000968035
0.000974446
0.000981182
0.000988239
0.000995617
0.00100331
0.00101133
0.00101966
0.00102832
0.0010373
0.0010466
0.00105623
0.00106619
0.00107648
0.00108711
0.00109808
0.00110939
0.00112105
0.00113305
0.00114542
0.00115813
0.00117121
0.00118465
0.00119846
0.00121264
0.00122719
0.00124212
0.00125743
0.00127313
0.00128921
0.00130569
0.00132256
0.00133983
0.0013575
0.00137557
0.00139406
0.00141296
0.00143227
0.001452
0.000913564
0.000913825
0.000914652
0.00091593
0.000917642
0.000919774
0.000922309
0.000925234
0.000928537
0.000932208
0.000936239
0.000940622
0.00094535
0.000950419
0.000955824
0.000961561
0.000967625
0.000974015
0.000980727
0.000987759
0.000995109
0.00100278
0.00101076
0.00101906
0.00102768
0.00103662
0.00104589
0.00105547
0.00106539
0.00107563
0.00108621
0.00109713
0.00110838
0.00111998
0.00113192
0.00114422
0.00115686
0.00116986
0.00118322
0.00119694
0.00121103
0.00122549
0.00124032
0.00125552
0.0012711
0.00128706
0.00130341
0.00132015
0.00133727
0.00135479
0.0013727
0.00139102
0.00140974
0.00142886
0.00144838
0.000913263
0.000913523
0.000914348
0.000915621
0.000917327
0.000919451
0.000921977
0.000924892
0.000928182
0.00093184
0.000935855
0.000940221
0.000944931
0.00094998
0.000955363
0.000961076
0.000967115
0.000973477
0.000980159
0.00098716
0.000994476
0.00100211
0.00101005
0.00101831
0.00102689
0.00103579
0.001045
0.00105453
0.00106439
0.00107458
0.00108509
0.00109594
0.00110713
0.00111865
0.00113051
0.00114272
0.00115528
0.00116818
0.00118144
0.00119506
0.00120903
0.00122337
0.00123807
0.00125314
0.00126858
0.00128439
0.00130058
0.00131715
0.0013341
0.00135143
0.00136914
0.00138724
0.00140574
0.00142462
0.00144388
0.000912903
0.000913162
0.000913982
0.000915251
0.000916949
0.000919064
0.000921579
0.000924481
0.000927757
0.000931398
0.000935395
0.000939741
0.000944429
0.000949454
0.00095481
0.000960495
0.000966503
0.000972833
0.00097948
0.000986442
0.000993718
0.00100131
0.00100921
0.00101742
0.00102594
0.00103478
0.00104394
0.00105341
0.0010632
0.00107332
0.00108376
0.00109452
0.00110562
0.00111706
0.00112883
0.00114093
0.00115338
0.00116618
0.00117932
0.0011928
0.00120665
0.00122084
0.00123539
0.0012503
0.00126557
0.00128121
0.00129721
0.00131357
0.00133031
0.00134742
0.0013649
0.00138275
0.00140097
0.00141957
0.00143853
0.00147802
0.00149928
0.00152145
0.00154457
0.0015687
0.0015939
0.00162024
0.00164779
0.00167662
0.00170681
0.00173844
0.00177163
0.00180646
0.00184305
0.00188152
0.001922
0.00196464
0.0020096
0.00205703
0.00210714
0.00216013
0.00221623
0.00227567
0.00233874
0.00240574
0.00247698
0.00255285
0.00263373
0.00272007
0.00281235
0.00291112
0.00301694
0.00313047
0.00325239
0.00338344
0.00352439
0.00367604
0.00383913
0.00401429
0.0042019
0.00440194
0.00461365
0.00483529
0.00506394
0.00529582
0.00552719
0.00575464
0.00598472
0.00628198
0.00673469
0.00147709
0.00149834
0.00152051
0.00154362
0.00156775
0.00159295
0.00161929
0.00164683
0.00167566
0.00170584
0.00173747
0.00177065
0.00180547
0.00184205
0.0018805
0.00192097
0.00196358
0.00200851
0.00205591
0.00210597
0.00215891
0.00221493
0.00227429
0.00233725
0.00240411
0.00247519
0.00255085
0.00263148
0.0027175
0.00280939
0.00290766
0.00301286
0.0031256
0.00324652
0.00337629
0.00351561
0.00366515
0.00382551
0.00399712
0.00418011
0.00437411
0.00457792
0.00478926
0.00500451
0.00521905
0.00542826
0.00562822
0.00582465
0.00607786
0.00646925
0.0014752
0.00149646
0.00151862
0.00154173
0.00156586
0.00159105
0.00161738
0.00164492
0.00167373
0.00170391
0.00173553
0.00176869
0.00180349
0.00184004
0.00187847
0.00191889
0.00196146
0.00200633
0.00205366
0.00210363
0.00215645
0.00221234
0.00227153
0.00233428
0.00240088
0.00247164
0.00254689
0.00262702
0.00271242
0.00280354
0.00290083
0.0030048
0.00311599
0.00323494
0.0033622
0.00349829
0.00364367
0.00379862
0.00396318
0.00413697
0.00431889
0.00450688
0.0046975
0.00488574
0.00506528
0.00522968
0.00537425
0.00550317
0.00566439
0.00594548
0.00147238
0.00149364
0.00151579
0.00153889
0.00156301
0.00158819
0.00161451
0.00164204
0.00167084
0.00170099
0.00173259
0.00176572
0.00180049
0.00183701
0.00187538
0.00191574
0.00195824
0.00200301
0.00205022
0.00210005
0.0021527
0.00220837
0.00226729
0.00232971
0.0023959
0.00246616
0.0025408
0.00262016
0.00270461
0.00279453
0.00289034
0.00299245
0.00310129
0.00321726
0.00334072
0.00347195
0.00361107
0.00375793
0.00391197
0.00407202
0.00423597
0.00440038
0.00456012
0.0047081
0.00483545
0.00493294
0.00499457
0.00502566
0.00505888
0.00514578
0.00146865
0.0014899
0.00151204
0.00153514
0.00155924
0.00158442
0.00161073
0.00163824
0.00166703
0.00169717
0.00172875
0.00176185
0.00179659
0.00183306
0.00187138
0.00191167
0.00195407
0.00199874
0.00204581
0.00209546
0.00214789
0.00220328
0.00226186
0.00232386
0.00238952
0.00245912
0.00253295
0.00261129
0.00269448
0.00278282
0.00287664
0.00297625
0.00308192
0.00319387
0.00331221
0.00343686
0.0035675
0.00370337
0.00384314
0.00398458
0.0041242
0.00425682
0.00437508
0.0044692
0.00452715
0.00453602
0.00448716
0.00438874
0.00426229
0.00404918
0.00146401
0.00148526
0.00150742
0.00153052
0.00155465
0.00157985
0.00160618
0.00163372
0.00166254
0.00169271
0.00172433
0.00175747
0.00179224
0.00182874
0.00186709
0.00190741
0.00194983
0.00199449
0.00204155
0.00209117
0.00214353
0.00219882
0.00225725
0.00231903
0.00238439
0.00245358
0.00252686
0.00260447
0.00268668
0.00277375
0.0028659
0.0029633
0.00306607
0.00317418
0.00328741
0.00340523
0.00352666
0.00365007
0.00377288
0.00389115
0.00399915
0.00408878
0.00414902
0.00416576
0.00412212
0.00400022
0.00378705
0.0034916
0.00312717
0.00250959
0.00145845
0.00147964
0.00150174
0.0015248
0.00154887
0.00157403
0.00160032
0.00162781
0.00165659
0.00168672
0.00171828
0.00175138
0.0017861
0.00182255
0.00186084
0.0019011
0.00194345
0.00198803
0.00203498
0.00208448
0.00213669
0.0021918
0.00224999
0.00231148
0.00237647
0.0024452
0.00251787
0.00259472
0.00267596
0.00276176
0.00285226
0.00294753
0.00304749
0.00315187
0.00326013
0.00337122
0.00348345
0.00359413
0.0036991
0.00379224
0.00386471
0.00390422
0.00389452
0.0038154
0.00364349
0.00335376
0.0029299
0.00238488
0.00168206
0.000536395
-0.00347955
-0.00354556
-0.00356813
-0.00356026
-0.00353322
-0.00348991
-0.00343206
-0.00336127
-0.00327932
-0.00318811
-0.00308787
-0.00297981
-0.00286508
-0.00274464
-0.00261942
-0.00249036
-0.00235839
-0.00222441
-0.00208929
-0.0019539
-0.00181903
-0.00168544
-0.00155388
-0.00142507
-0.00129967
-0.00117818
-0.00106109
-0.000948817
-0.000841736
-0.000740136
-0.00064424
-0.000554203
-0.00047012
-0.000392023
-0.000319889
-0.000253643
-0.000193164
-0.000138289
-8.8819e-05
-4.45268e-05
-5.15882e-06
2.95571e-05
5.99071e-05
8.61863e-05
0.000108694
0.00012773
0.00014359
0.000156561
0.00016692
0.000174935
-0.00354743
-0.00359351
-0.00360402
-0.00358888
-0.00355689
-0.00351025
-0.00345028
-0.00337815
-0.00329568
-0.00320386
-0.00310335
-0.00299523
-0.00288057
-0.00276021
-0.00263508
-0.00250602
-0.0023741
-0.00224009
-0.00210489
-0.00196934
-0.00183427
-0.00170041
-0.00156851
-0.00143932
-0.00131348
-0.00119154
-0.00107394
-0.000961145
-0.000853517
-0.000751355
-0.000654889
-0.00056428
-0.000479626
-0.000400966
-0.000328279
-0.000261494
-0.000200493
-0.000145115
-9.51636e-05
-5.04116e-05
-1.06069e-05
2.45223e-05
5.52621e-05
8.19079e-05
0.00010476
0.000124118
0.000140279
0.000153532
0.000164154
0.00017242
-0.00368251
-0.00368821
-0.00367473
-0.00364514
-0.00360313
-0.00354976
-0.00348543
-0.00341036
-0.0033268
-0.00323392
-0.00313306
-0.00302464
-0.00291021
-0.00279003
-0.00266503
-0.00253621
-0.00240436
-0.00227034
-0.00213501
-0.00199922
-0.00186378
-0.00172943
-0.00159692
-0.00146701
-0.00134036
-0.00121753
-0.00109899
-0.000985188
-0.000876508
-0.000773266
-0.000675701
-0.000583985
-0.000498228
-0.000418475
-0.000344715
-0.000276884
-0.000214867
-0.00015851
-0.000107619
-6.19707e-05
-2.13136e-05
1.46227e-05
4.61241e-05
7.34863e-05
9.70105e-05
0.000116998
0.000133749
0.000147555
0.000158692
0.000167451
-0.0038907
-0.00382321
-0.003778
-0.00372664
-0.00366943
-0.00360604
-0.00353485
-0.00345439
-0.0033698
-0.00327606
-0.00317536
-0.00306514
-0.00295158
-0.00283195
-0.00270737
-0.00257885
-0.00244718
-0.0023132
-0.00217776
-0.00204168
-0.00190578
-0.0017708
-0.00163748
-0.00150658
-0.00137881
-0.00125476
-0.00113491
-0.0010197
-0.000909546
-0.000804783
-0.000705667
-0.000612387
-0.000525065
-0.00044376
-0.000368473
-0.000299149
-0.000235683
-0.000177926
-0.000125691
-7.87572e-05
-3.68772e-05
2.18107e-07
3.2814e-05
6.12066e-05
8.56981e-05
0.000106593
0.000124193
0.000138793
0.000150675
0.000160149
-0.0041548
-0.00399965
-0.00391177
-0.00382889
-0.00375132
-0.00367492
-0.0035955
-0.00351279
-0.00342249
-0.0033263
-0.00322431
-0.00311575
-0.00300178
-0.00288243
-0.00275839
-0.00263036
-0.00249907
-0.00236531
-0.00222989
-0.00209363
-0.00195732
-0.00182174
-0.00168759
-0.00155563
-0.00142662
-0.00130118
-0.0011798
-0.00106295
-0.000951059
-0.000844487
-0.000743511
-0.00064834
-0.000559115
-0.000475913
-0.000398747
-0.000327578
-0.000262311
-0.000202808
-0.000148888
-0.000100338
-5.69147e-05
-1.83512e-05
1.56354e-05
4.53409e-05
7.10682e-05
9.31233e-05
0.000111811
0.00012743
0.000140273
0.000150671
-0.00443343
-0.00421868
-0.00407829
-0.00395695
-0.00385142
-0.00375475
-0.00366154
-0.00357283
-0.00347713
-0.00337826
-0.00327505
-0.00316663
-0.00305311
-0.0029347
-0.0028118
-0.00268492
-0.0025547
-0.00242183
-0.00228707
-0.0021512
-0.00201501
-0.00187926
-0.00174468
-0.00161199
-0.00148195
-0.00135525
-0.00123243
-0.00111395
-0.00100028
-0.000891798
-0.000788814
-0.000691561
-0.000600207
-0.000514849
-0.000435524
-0.000362209
-0.000294827
-0.000233254
-0.00017732
-0.000126823
-8.15253e-05
-4.11683e-05
-5.47226e-06
2.58557e-05
5.31173e-05
7.66186e-05
9.66659e-05
0.000113561
0.000127611
0.000139163
-0.00470139
-0.00449454
-0.00430405
-0.00413445
-0.0039902
-0.00386266
-0.00375292
-0.00364898
-0.00354581
-0.00344246
-0.00333668
-0.00322728
-0.0031138
-0.00299607
-0.00287415
-0.00274837
-0.00261918
-0.00248718
-0.00235305
-0.0022175
-0.00208131
-0.00194525
-0.00181003
-0.00167637
-0.00154505
-0.00141679
-0.00129216
-0.0011717
-0.00105587
-0.000945109
-0.000839742
-0.000740039
-0.000646194
-0.000558334
-0.000476518
-0.000400745
-0.000330956
-0.000267042
-0.000208848
-0.000156178
-0.000108807
-6.64785e-05
-2.89175e-05
4.16726e-06
3.30772e-05
5.81192e-05
7.96017e-05
9.78301e-05
0.000113122
0.000125823
0.000180869
0.000184895
0.000187292
0.000188254
0.000187925
0.000186447
0.000183961
0.000180601
0.000176495
0.000171763
0.00016652
0.000160871
0.000154913
0.000148737
0.00014242
0.000136033
0.000129639
0.000123288
0.000117026
0.000110889
0.000104907
9.91039e-05
9.34962e-05
8.80971e-05
8.2915e-05
7.7955e-05
7.32188e-05
6.87061e-05
6.44144e-05
6.03398e-05
5.64773e-05
5.28209e-05
4.93643e-05
4.61006e-05
4.30228e-05
4.01238e-05
3.73964e-05
3.48334e-05
3.24275e-05
3.01714e-05
2.8058e-05
2.60795e-05
2.42304e-05
2.24991e-05
2.0884e-05
1.93805e-05
1.79722e-05
1.66594e-05
1.54365e-05
1.42967e-05
1.32349e-05
1.22462e-05
1.13259e-05
1.04697e-05
9.67348e-06
8.93329e-06
8.24551e-06
7.6067e-06
7.01362e-06
6.46325e-06
5.95272e-06
5.47935e-06
5.04064e-06
4.63421e-06
4.25787e-06
3.90954e-06
3.5873e-06
3.28934e-06
3.01397e-06
2.7596e-06
2.52477e-06
2.30812e-06
2.10834e-06
1.92425e-06
1.75476e-06
1.59876e-06
1.45539e-06
1.32361e-06
1.20278e-06
1.09182e-06
9.90494e-07
8.97241e-07
8.13002e-07
7.34485e-07
6.65626e-07
5.98635e-07
5.44556e-07
4.8496e-07
4.46962e-07
3.88859e-07
3.70997e-07
3.05731e-07
3.15653e-07
2.31129e-07
2.80073e-07
1.61691e-07
2.62397e-07
9.65219e-08
2.58454e-07
3.8056e-08
2.61059e-07
-8.28443e-09
2.62144e-07
-3.77148e-08
2.57786e-07
-5.25326e-08
2.55214e-07
-6.86661e-08
2.77945e-07
-1.18123e-07
3.64255e-07
-2.44292e-07
5.58886e-07
-4.9298e-07
8.97102e-07
0.000178623
0.000182765
0.000185281
0.000186381
0.000186191
0.000184846
0.000182488
0.000179249
0.000175256
0.00017063
0.000165486
0.000159928
0.000154056
0.000147957
0.000141712
0.000135392
0.000129057
0.000122762
0.00011655
0.000110459
0.000104519
9.87531e-05
9.31797e-05
8.78116e-05
8.26576e-05
7.77229e-05
7.30097e-05
6.85178e-05
6.42449e-05
6.01872e-05
5.634e-05
5.26975e-05
4.92533e-05
4.60009e-05
4.29333e-05
4.00435e-05
3.73244e-05
3.47689e-05
3.23697e-05
3.01196e-05
2.80116e-05
2.60379e-05
2.41932e-05
2.24657e-05
2.08541e-05
1.93537e-05
1.79482e-05
1.6638e-05
1.54172e-05
1.42795e-05
1.32195e-05
1.22324e-05
1.13136e-05
1.04587e-05
9.66364e-06
8.9245e-06
8.23767e-06
7.5997e-06
7.00738e-06
6.45769e-06
5.94776e-06
5.47494e-06
5.03671e-06
4.63071e-06
4.25476e-06
3.90678e-06
3.58484e-06
3.28716e-06
3.01203e-06
2.75787e-06
2.52324e-06
2.30676e-06
2.10713e-06
1.92318e-06
1.75381e-06
1.59792e-06
1.45464e-06
1.32295e-06
1.20219e-06
1.0913e-06
9.90033e-07
8.96834e-07
8.1264e-07
7.34166e-07
6.65342e-07
5.98386e-07
5.44333e-07
4.84767e-07
4.46788e-07
3.88712e-07
3.70861e-07
3.05621e-07
3.15543e-07
2.31046e-07
2.79983e-07
1.61631e-07
2.62324e-07
9.64818e-08
2.58394e-07
3.8027e-08
2.61009e-07
-8.30645e-09
2.62105e-07
-3.77366e-08
2.57756e-07
-5.25482e-08
2.55179e-07
-6.86616e-08
2.7789e-07
-1.18096e-07
3.64181e-07
-2.44243e-07
5.58826e-07
-4.92944e-07
8.97155e-07
0.000174155
0.000178535
0.000181293
0.000182668
0.000182752
0.000181672
0.000179566
0.000176565
0.000172797
0.000168381
0.000163432
0.000158056
0.000152351
0.000146407
0.000140305
0.000134115
0.0001279
0.000121714
0.000115602
0.000109602
0.000103745
9.80542e-05
9.25489e-05
8.72425e-05
8.21444e-05
7.72603e-05
7.25928e-05
6.81422e-05
6.39066e-05
5.98827e-05
5.6066e-05
5.24511e-05
4.90319e-05
4.5802e-05
4.27548e-05
3.98833e-05
3.71808e-05
3.46401e-05
3.22543e-05
3.00162e-05
2.7919e-05
2.5955e-05
2.41188e-05
2.23991e-05
2.07945e-05
1.93002e-05
1.79003e-05
1.6595e-05
1.53788e-05
1.4245e-05
1.31887e-05
1.22048e-05
1.1289e-05
1.04367e-05
9.64397e-06
8.90694e-06
8.22199e-06
7.58572e-06
6.99491e-06
6.44657e-06
5.93786e-06
5.46612e-06
5.02886e-06
4.62372e-06
4.24854e-06
3.90124e-06
3.57992e-06
3.28278e-06
3.00814e-06
2.75442e-06
2.52017e-06
2.30403e-06
2.10471e-06
1.92103e-06
1.7519e-06
1.59623e-06
1.45314e-06
1.32162e-06
1.20102e-06
1.09025e-06
9.89113e-07
8.96017e-07
8.11916e-07
7.33527e-07
6.64774e-07
5.97885e-07
5.43889e-07
4.84381e-07
4.46438e-07
3.8842e-07
3.70584e-07
3.05399e-07
3.15321e-07
2.30881e-07
2.79801e-07
1.61515e-07
2.62177e-07
9.63963e-08
2.58272e-07
3.79651e-08
2.60915e-07
-8.3553e-09
2.6203e-07
-3.77762e-08
2.57689e-07
-5.25705e-08
2.55105e-07
-6.86504e-08
2.77778e-07
-1.18027e-07
3.64026e-07
-2.44144e-07
5.58715e-07
-4.92875e-07
8.97256e-07
0.000167523
0.000172265
0.000175399
0.000177183
0.000177673
0.000176981
0.000175245
0.000172595
0.000169156
0.000165049
0.000160387
0.000155278
0.00014982
0.000144105
0.000138212
0.000132216
0.000126178
0.000120155
0.000114191
0.000108326
0.000102591
9.70124e-05
9.16084e-05
8.63938e-05
8.13788e-05
7.65699e-05
7.19705e-05
6.75815e-05
6.34016e-05
5.9428e-05
5.56568e-05
5.2083e-05
4.8701e-05
4.55048e-05
4.24879e-05
3.96438e-05
3.69659e-05
3.44474e-05
3.20816e-05
2.98615e-05
2.77804e-05
2.58308e-05
2.40076e-05
2.22994e-05
2.07051e-05
1.92201e-05
1.78285e-05
1.65308e-05
1.53213e-05
1.41935e-05
1.31425e-05
1.21636e-05
1.12521e-05
1.04037e-05
9.61451e-06
8.88063e-06
8.19851e-06
7.56477e-06
6.97623e-06
6.42992e-06
5.92302e-06
5.4529e-06
5.01709e-06
4.61325e-06
4.23922e-06
3.89296e-06
3.57255e-06
3.27623e-06
3.00231e-06
2.74924e-06
2.51557e-06
2.29995e-06
2.10109e-06
1.91781e-06
1.74904e-06
1.5937e-06
1.45089e-06
1.31963e-06
1.19925e-06
1.08869e-06
9.8773e-07
8.9479e-07
8.1083e-07
7.32568e-07
6.63921e-07
5.97134e-07
5.43222e-07
4.83801e-07
4.45912e-07
3.87979e-07
3.7017e-07
3.05064e-07
3.14989e-07
2.30633e-07
2.79531e-07
1.61338e-07
2.61959e-07
9.62667e-08
2.58094e-07
3.78703e-08
2.60776e-07
-8.43046e-09
2.61921e-07
-3.78366e-08
2.57593e-07
-5.26053e-08
2.54996e-07
-6.86353e-08
2.77613e-07
-1.17928e-07
3.638e-07
-2.44003e-07
5.58554e-07
-4.92778e-07
8.97407e-07
0.000158813
0.000164052
0.000167702
0.000170025
0.000171041
0.000170853
0.000169597
0.000167401
0.000164388
0.00016068
0.000156392
0.000151629
0.000146494
0.000141076
0.000135458
0.000129715
0.000123909
0.000118098
0.000112329
0.000106641
0.000101068
9.56356e-05
9.03648e-05
8.52712e-05
8.03658e-05
7.56562e-05
7.11466e-05
6.68388e-05
6.27324e-05
5.88254e-05
5.51144e-05
5.1595e-05
4.82622e-05
4.51104e-05
4.21337e-05
3.93259e-05
3.66807e-05
3.41917e-05
3.18523e-05
2.9656e-05
2.75962e-05
2.56657e-05
2.38596e-05
2.21669e-05
2.05864e-05
1.91137e-05
1.77332e-05
1.64453e-05
1.52447e-05
1.4125e-05
1.30812e-05
1.21087e-05
1.1203e-05
1.03598e-05
9.57531e-06
8.84563e-06
8.16726e-06
7.53689e-06
6.95136e-06
6.40775e-06
5.90327e-06
5.43531e-06
5.00142e-06
4.59931e-06
4.22681e-06
3.88192e-06
3.56274e-06
3.2675e-06
2.99455e-06
2.74235e-06
2.50945e-06
2.29451e-06
2.09626e-06
1.91353e-06
1.74523e-06
1.59032e-06
1.44789e-06
1.31697e-06
1.1969e-06
1.0866e-06
9.85883e-07
8.93154e-07
8.0938e-07
7.31289e-07
6.62784e-07
5.96134e-07
5.42331e-07
4.83027e-07
4.45213e-07
3.87388e-07
3.69619e-07
3.04615e-07
3.14551e-07
2.30298e-07
2.79177e-07
1.61094e-07
2.61676e-07
9.60864e-08
2.57868e-07
3.77339e-08
2.60601e-07
-8.54128e-09
2.61788e-07
-3.79271e-08
2.57475e-07
-5.26617e-08
2.54861e-07
-6.86254e-08
2.77406e-07
-1.1781e-07
3.63517e-07
-2.43834e-07
5.58364e-07
-4.92678e-07
8.97624e-07
0.000148139
0.000154027
0.00015834
0.000161323
0.000162974
0.000163393
0.000162713
0.000161062
0.000158563
0.000155337
0.000151498
0.000147156
0.00014241
0.000137354
0.000132071
0.000126636
0.000121114
0.000115563
0.000110031
0.000104561
9.91858e-05
9.39339e-05
8.88271e-05
8.38823e-05
7.91119e-05
7.45246e-05
7.01259e-05
6.59184e-05
6.19029e-05
5.80781e-05
5.44415e-05
5.09894e-05
4.77175e-05
4.46208e-05
4.16938e-05
3.89309e-05
3.63262e-05
3.38737e-05
3.15671e-05
2.94003e-05
2.7367e-05
2.54603e-05
2.36755e-05
2.20019e-05
2.04385e-05
1.89811e-05
1.76144e-05
1.63389e-05
1.51493e-05
1.40396e-05
1.30047e-05
1.20403e-05
1.11418e-05
1.03052e-05
9.52644e-06
8.80198e-06
8.1283e-06
7.50212e-06
6.92036e-06
6.38011e-06
5.87863e-06
5.41336e-06
4.98188e-06
4.58192e-06
4.21134e-06
3.86815e-06
3.55049e-06
3.25661e-06
2.98488e-06
2.73375e-06
2.50181e-06
2.28772e-06
2.09023e-06
1.90817e-06
1.74048e-06
1.5861e-06
1.44415e-06
1.31366e-06
1.19396e-06
1.08399e-06
9.83575e-07
8.91111e-07
8.07569e-07
7.2969e-07
6.61364e-07
5.94885e-07
5.41219e-07
4.8206e-07
4.4434e-07
3.86647e-07
3.6893e-07
3.04054e-07
3.14002e-07
2.2988e-07
2.78735e-07
1.6079e-07
2.61321e-07
9.58626e-08
2.57584e-07
3.75655e-08
2.60382e-07
-8.67645e-09
2.61617e-07
-3.80361e-08
2.57326e-07
-5.27285e-08
2.54691e-07
-6.86104e-08
2.77146e-07
-1.17663e-07
3.63164e-07
-2.43622e-07
5.58119e-07
-4.92543e-07
8.97855e-07
0.000135613
0.00014234
0.000147475
0.000151225
0.000153604
0.000154717
0.000154697
0.000153669
0.000151759
0.000149086
0.000145766
0.000141909
0.000137615
0.000132979
0.000128085
0.000123008
0.000117817
0.000112569
0.000107317
0.000102101
9.69587e-05
9.19188e-05
8.7005e-05
8.22355e-05
7.76244e-05
7.31815e-05
6.89137e-05
6.48249e-05
6.09169e-05
5.71894e-05
5.3641e-05
5.02687e-05
4.7069e-05
4.40376e-05
4.11697e-05
3.84601e-05
3.59036e-05
3.34944e-05
3.12269e-05
2.90952e-05
2.70934e-05
2.5215e-05
2.34556e-05
2.18048e-05
2.02618e-05
1.88226e-05
1.74723e-05
1.62116e-05
1.50353e-05
1.39374e-05
1.29133e-05
1.19585e-05
1.10686e-05
1.02397e-05
9.46798e-06
8.74976e-06
8.08168e-06
7.46052e-06
6.88325e-06
6.34702e-06
5.84915e-06
5.3871e-06
4.95849e-06
4.56109e-06
4.1928e-06
3.85166e-06
3.53583e-06
3.24357e-06
2.97328e-06
2.72345e-06
2.49265e-06
2.27958e-06
2.083e-06
1.90176e-06
1.73478e-06
1.58105e-06
1.43967e-06
1.30968e-06
1.19043e-06
1.08087e-06
9.80806e-07
8.8866e-07
8.05396e-07
7.27773e-07
6.59659e-07
5.9339e-07
5.3988e-07
4.80906e-07
4.43284e-07
3.8577e-07
3.68088e-07
3.03402e-07
3.13316e-07
2.29416e-07
2.78159e-07
1.60483e-07
2.60826e-07
9.56763e-08
2.57151e-07
3.74673e-08
2.60006e-07
-8.71999e-09
2.61292e-07
-3.80452e-08
2.57029e-07
-5.26937e-08
2.54374e-07
-6.84807e-08
2.76719e-07
-1.17357e-07
3.62583e-07
-2.43168e-07
5.57565e-07
-4.92051e-07
8.97712e-07
0.000120971
0.00012884
0.000134997
0.000139624
0.000142824
0.000144718
0.00014544
0.000145117
0.000143873
0.000141829
0.000139101
0.000135798
0.000132023
0.000127869
0.000123423
0.000118761
0.000113953
0.000109058
0.000104129
9.921e-05
9.43389e-05
8.95466e-05
8.48583e-05
8.02941e-05
7.58695e-05
7.15961e-05
6.74821e-05
6.35328e-05
5.97512e-05
5.61383e-05
5.26936e-05
4.94154e-05
4.63009e-05
4.33465e-05
4.05483e-05
3.79018e-05
3.54021e-05
3.30443e-05
3.0823e-05
2.87328e-05
2.67684e-05
2.49235e-05
2.31941e-05
2.15704e-05
2.00517e-05
1.8634e-05
1.73034e-05
1.60602e-05
1.48996e-05
1.38159e-05
1.28045e-05
1.18611e-05
1.09815e-05
1.01618e-05
9.39834e-06
8.68755e-06
8.02614e-06
7.41095e-06
6.83903e-06
6.30759e-06
5.814e-06
5.35578e-06
4.9306e-06
4.53626e-06
4.1707e-06
3.832e-06
3.51833e-06
3.22802e-06
2.95945e-06
2.71115e-06
2.48173e-06
2.26988e-06
2.07438e-06
1.8941e-06
1.72798e-06
1.57501e-06
1.43432e-06
1.30493e-06
1.18622e-06
1.07714e-06
9.77498e-07
8.85734e-07
8.02799e-07
7.25485e-07
6.57619e-07
5.91609e-07
5.38274e-07
4.79536e-07
4.42008e-07
3.84741e-07
3.67054e-07
3.02661e-07
3.12445e-07
2.28927e-07
2.77387e-07
1.60218e-07
2.60111e-07
9.55991e-08
2.56469e-07
3.75338e-08
2.59359e-07
-8.5637e-09
2.6069e-07
-3.78441e-08
2.56468e-07
-5.24529e-08
2.53803e-07
-6.81337e-08
2.76006e-07
-1.16766e-07
3.61616e-07
-2.42278e-07
5.56449e-07
-4.90889e-07
8.96854e-07
0.000105073
0.000113964
0.000121106
0.000126656
0.000130736
0.000133477
0.000135009
0.000135458
0.000134948
0.0001336
0.000131529
0.000128844
0.000125648
0.000122035
0.000118093
0.000113899
0.000109523
0.000105027
0.000100465
9.58835e-05
9.13213e-05
8.68114e-05
8.23809e-05
7.80517e-05
7.3841e-05
6.9762e-05
6.58247e-05
6.20358e-05
5.83998e-05
5.4919e-05
5.15942e-05
4.84245e-05
4.54084e-05
4.25432e-05
3.98256e-05
3.7252e-05
3.48182e-05
3.25198e-05
3.03521e-05
2.83102e-05
2.63891e-05
2.45833e-05
2.28889e-05
2.12967e-05
1.98061e-05
1.84137e-05
1.71059e-05
1.58831e-05
1.47409e-05
1.36737e-05
1.26772e-05
1.17471e-05
1.08795e-05
1.00706e-05
9.31684e-06
8.61474e-06
7.96111e-06
7.35291e-06
6.78725e-06
6.26141e-06
5.77284e-06
5.3191e-06
4.89792e-06
4.50716e-06
4.14481e-06
3.80895e-06
3.49783e-06
3.20978e-06
2.94324e-06
2.69674e-06
2.46892e-06
2.25849e-06
2.06427e-06
1.88512e-06
1.72001e-06
1.56794e-06
1.42803e-06
1.29936e-06
1.18128e-06
1.07276e-06
9.73616e-07
8.82298e-07
7.99752e-07
7.22795e-07
6.55229e-07
5.89511e-07
5.36399e-07
4.77913e-07
4.40532e-07
3.83502e-07
3.65881e-07
3.01734e-07
3.11496e-07
2.28259e-07
2.76601e-07
1.59762e-07
2.59445e-07
9.53062e-08
2.55898e-07
3.73578e-08
2.58874e-07
-8.66768e-09
2.60279e-07
-3.7904e-08
2.56104e-07
-5.24596e-08
2.53421e-07
-6.8023e-08
2.7549e-07
-1.16435e-07
3.60911e-07
-2.41761e-07
5.55791e-07
-4.90334e-07
8.96826e-07
8.83566e-05
9.82039e-05
0.000106302
0.000112781
0.000117764
0.000121379
0.000123754
0.000125011
0.000125274
0.000124661
0.000123287
0.00012126
0.000118684
0.000115651
0.000112251
0.000108561
0.000104653
0.00010059
9.64269e-05
9.22124e-05
8.79873e-05
8.37862e-05
7.96381e-05
7.55666e-05
7.15909e-05
6.7726e-05
6.39833e-05
6.03715e-05
5.68963e-05
5.35616e-05
5.03693e-05
4.73199e-05
4.44129e-05
4.16465e-05
3.90185e-05
3.6526e-05
3.41654e-05
3.19332e-05
2.98251e-05
2.7837e-05
2.59643e-05
2.42019e-05
2.25466e-05
2.09896e-05
1.95305e-05
1.81664e-05
1.68842e-05
1.56843e-05
1.45627e-05
1.35141e-05
1.25342e-05
1.16191e-05
1.07649e-05
9.96815e-06
9.22522e-06
8.53287e-06
7.888e-06
7.28764e-06
6.729e-06
6.20946e-06
5.72652e-06
5.27782e-06
4.86115e-06
4.47442e-06
4.11565e-06
3.78301e-06
3.47475e-06
3.18925e-06
2.92498e-06
2.68051e-06
2.45449e-06
2.24567e-06
2.05288e-06
1.875e-06
1.71102e-06
1.55996e-06
1.42095e-06
1.29308e-06
1.17571e-06
1.06782e-06
9.69238e-07
8.78422e-07
7.96317e-07
7.1976e-07
6.52536e-07
5.87142e-07
5.34289e-07
4.76074e-07
4.38877e-07
3.82088e-07
3.64577e-07
3.00662e-07
3.10461e-07
2.2746e-07
2.7577e-07
1.59179e-07
2.58775e-07
9.48827e-08
2.5536e-07
3.70427e-08
2.58452e-07
-8.91741e-09
2.59953e-07
-3.81103e-08
2.55833e-07
-5.26075e-08
2.53133e-07
-6.80491e-08
2.75073e-07
-1.16252e-07
3.60336e-07
-2.4144e-07
5.55357e-07
-4.90087e-07
8.9728e-07
7.09734e-05
8.17519e-05
9.07877e-05
9.81928e-05
0.000104084
0.000108585
0.000111819
0.000113906
0.000114966
0.000115115
0.000114467
0.000113128
0.000111201
0.000108779
0.000105951
0.000102795
9.93844e-05
9.57824e-05
9.20459e-05
8.82245e-05
8.4361e-05
8.04919e-05
7.66479e-05
7.28547e-05
6.9133e-05
6.54998e-05
6.19683e-05
5.85487e-05
5.52484e-05
5.20726e-05
4.90248e-05
4.61066e-05
4.33187e-05
4.06604e-05
3.81303e-05
3.57264e-05
3.34461e-05
3.12863e-05
2.92437e-05
2.73146e-05
2.54951e-05
2.37806e-05
2.21683e-05
2.065e-05
1.92257e-05
1.78928e-05
1.66388e-05
1.54642e-05
1.43654e-05
1.33372e-05
1.23757e-05
1.14772e-05
1.0638e-05
9.85455e-06
9.12365e-06
8.4421e-06
7.8069e-06
7.21523e-06
6.66438e-06
6.15182e-06
5.67512e-06
5.232e-06
4.82032e-06
4.43805e-06
4.08327e-06
3.75419e-06
3.4491e-06
3.16644e-06
2.90469e-06
2.66246e-06
2.43845e-06
2.23142e-06
2.04021e-06
1.86375e-06
1.70103e-06
1.55109e-06
1.41308e-06
1.28609e-06
1.16951e-06
1.06232e-06
9.64366e-07
8.74108e-07
7.92494e-07
7.16381e-07
6.49538e-07
5.84503e-07
5.3194e-07
4.74026e-07
4.37035e-07
3.80512e-07
3.63128e-07
2.99465e-07
3.0931e-07
2.26568e-07
2.74846e-07
1.58528e-07
2.58029e-07
9.44114e-08
2.5476e-07
3.66934e-08
2.5798e-07
-9.19404e-09
2.59589e-07
-3.83416e-08
2.55536e-07
-5.27816e-08
2.52828e-07
-6.81002e-08
2.74639e-07
-1.16083e-07
3.59732e-07
-2.41112e-07
5.54885e-07
-4.89818e-07
8.97809e-07
5.31334e-05
6.48154e-05
7.47631e-05
8.30773e-05
8.98671e-05
9.52511e-05
9.93472e-05
0.000102271
0.00010414
0.000105066
0.000105161
0.00010453
0.000103274
0.000101485
9.92519e-05
9.66537e-05
9.37628e-05
9.06444e-05
8.73564e-05
8.39497e-05
8.04686e-05
7.69514e-05
7.34304e-05
6.99332e-05
6.64824e-05
6.30967e-05
5.9791e-05
5.65773e-05
5.34646e-05
5.04596e-05
4.75671e-05
4.47902e-05
4.21306e-05
3.95888e-05
3.71644e-05
3.48564e-05
3.26628e-05
3.05816e-05
2.86099e-05
2.67447e-05
2.49829e-05
2.33205e-05
2.17549e-05
2.02788e-05
1.88925e-05
1.75936e-05
1.63703e-05
1.52234e-05
1.41494e-05
1.31436e-05
1.22022e-05
1.13218e-05
1.04988e-05
9.73006e-06
9.01231e-06
8.34258e-06
7.71799e-06
7.13582e-06
6.5935e-06
6.08857e-06
5.61871e-06
5.18171e-06
4.77551e-06
4.39813e-06
4.04772e-06
3.72254e-06
3.42093e-06
3.14137e-06
2.88239e-06
2.64264e-06
2.42082e-06
2.21575e-06
2.02629e-06
1.85138e-06
1.69004e-06
1.54133e-06
1.40441e-06
1.2784e-06
1.16269e-06
1.05628e-06
9.59004e-07
8.6936e-07
7.88286e-07
7.12661e-07
6.46239e-07
5.81599e-07
5.29355e-07
4.7177e-07
4.35008e-07
3.78776e-07
3.61532e-07
2.98147e-07
3.08042e-07
2.25588e-07
2.73827e-07
1.57816e-07
2.57201e-07
9.38998e-08
2.5409e-07
3.63192e-08
2.5745e-07
-9.48679e-09
2.59177e-07
-3.85868e-08
2.55204e-07
-5.29714e-08
2.52495e-07
-6.81669e-08
2.74176e-07
-1.1592e-07
3.59084e-07
-2.40761e-07
5.54349e-07
-4.8949e-07
8.98344e-07
3.50492e-05
4.75935e-05
5.84162e-05
6.76096e-05
7.52757e-05
8.15268e-05
8.64751e-05
9.02317e-05
9.29086e-05
9.46161e-05
9.54616e-05
9.55485e-05
9.4975e-05
9.38338e-05
9.22111e-05