/*--------------------------------*- C++ -*----------------------------------*\
| =========                 |                                                 |
| \\      /  F ield         | OpenFOAM: The Open Source CFD Toolbox           |
|  \\    /   O peration     | Version:  2412                                  |
|   \\  /    A nd           | Website:  www.openfoam.com                      |
|    \\/     M anipulation  |                                                 |
\*---------------------------------------------------------------------------*/
FoamFile
{
    version     2.0;
    format      ascii;
    arch        "LSB;label=32;scalar=64";
    class       surfaceScalarField;
    location    "27";
    object      phi;
}
// * * * * * * * * * * * * * * * * * * * * * * * * * * * * * * * * * * * * * //

dimensions      [0 3 -1 0 0 0 0];

oriented        oriented;

internalField   nonuniform List<scalar> 
126304
(
0.00505063
1.30143e-07
2.16981e-11
0.00505025
3.79472e-07
6.26545e-11
0.00504963
6.15405e-07
9.63455e-11
0.00504879
8.39619e-07
1.19725e-10
0.00504774
1.05382e-06
1.33496e-10
0.00504648
1.2593e-06
1.41455e-10
0.00504502
1.45703e-06
1.47982e-10
0.00504337
1.64822e-06
1.55692e-10
0.00504154
1.83546e-06
1.6357e-10
0.00503951
2.02388e-06
1.64921e-10
0.00503729
2.22155e-06
1.46938e-10
0.00503485
2.43837e-06
9.34184e-11
0.00503217
2.6836e-06
-1.03844e-11
0.00502921
2.9629e-06
-1.71832e-10
0.00502593
3.27587e-06
-3.85758e-10
0.00502232
3.6152e-06
-6.32432e-10
0.00501835
3.96763e-06
-8.79914e-10
0.00501404
4.31637e-06
-1.0899e-09
0.00500939
4.64429e-06
-1.22507e-09
0.00500446
4.93687e-06
-1.25579e-09
0.00499927
5.18424e-06
-1.16485e-09
0.00499389
5.38217e-06
-9.49754e-10
0.00498836
5.53182e-06
-6.21887e-10
0.00498272
5.63875e-06
-2.03208e-10
0.00497701
5.7114e-06
2.78133e-10
0.00497125
5.75958e-06
7.91776e-10
0.00496546
5.79311e-06
1.30885e-09
0.00495963
5.82086e-06
1.80482e-09
0.00495378
5.85011e-06
2.26105e-09
0.00494789
5.88641e-06
2.66514e-09
0.00494196
5.9335e-06
3.01038e-09
0.00493596
5.99361e-06
3.2949e-09
0.00492989
6.06771e-06
3.52068e-09
0.00492373
6.15588e-06
3.69232e-09
0.00491747
6.25756e-06
3.81586e-09
0.00491109
6.37184e-06
3.89789e-09
0.00490459
6.49762e-06
3.94504e-09
0.00489795
6.6338e-06
3.96358e-09
0.00489117
6.77932e-06
3.95923e-09
0.00488423
6.93323e-06
3.93691e-09
0.00487713
7.09473e-06
3.90065e-09
0.00486986
7.26315e-06
3.85379e-09
0.00486242
7.43795e-06
3.79896e-09
0.0048548
7.61871e-06
3.73808e-09
0.00484699
7.80513e-06
3.67261e-09
0.00483899
7.99695e-06
3.60372e-09
0.00483079
8.19403e-06
3.5322e-09
0.00482239
8.39626e-06
3.45866e-09
0.00481379
8.60357e-06
3.38359e-09
0.00480497
8.81598e-06
3.30734e-09
0.00479593
9.03357e-06
3.23021e-09
0.00478667
9.25661e-06
3.15243e-09
0.00477718
9.4859e-06
3.0742e-09
0.00476746
9.72384e-06
2.9949e-09
9.97709e-06
0.00475748
2.90193e-09
0.00505063
2.60222e-07
0.00505025
7.58734e-07
0.00504963
1.23047e-06
0.00504879
1.67876e-06
0.00504774
2.10702e-06
0.00504648
2.51784e-06
0.00504503
2.91316e-06
0.00504338
3.2954e-06
0.00504154
3.66972e-06
0.00503952
4.04635e-06
0.0050373
4.44138e-06
0.00503487
4.87453e-06
0.00503219
5.36431e-06
0.00502923
5.92202e-06
0.00502595
6.54691e-06
0.00502235
7.22446e-06
0.00501839
7.92825e-06
0.00501408
8.62488e-06
0.00500944
9.28018e-06
0.00500451
9.86514e-06
0.00499934
1.03601e-05
0.00499396
1.07564e-05
0.00498844
1.10565e-05
0.0049828
1.12714e-05
0.0049771
1.14177e-05
0.00497134
1.1515e-05
0.00496555
1.1583e-05
0.00495974
1.16392e-05
0.00495389
1.16983e-05
0.004948
1.17712e-05
0.00494207
1.18655e-05
0.00493608
1.19857e-05
0.00493001
1.21337e-05
0.00492386
1.23097e-05
0.0049176
1.25126e-05
0.00491123
1.27405e-05
0.00490474
1.29915e-05
0.00489811
1.32631e-05
0.00489134
1.35533e-05
0.00488441
1.38603e-05
0.00487732
1.41825e-05
0.00487007
1.45184e-05
0.00486264
1.48671e-05
0.00485503
1.52276e-05
0.00484723
1.55994e-05
0.00483925
1.5982e-05
0.00483107
1.63751e-05
0.00482269
1.67784e-05
0.0048141
1.71918e-05
0.0048053
1.76153e-05
0.00479628
1.80491e-05
0.00478705
1.84936e-05
0.00477758
1.89505e-05
0.00476788
1.94244e-05
1.99288e-05
0.00475793
0.00505063
3.90129e-07
0.00505025
1.13746e-06
0.00504963
1.84468e-06
0.0050488
2.51672e-06
0.00504774
3.15872e-06
0.00504649
3.77457e-06
0.00504503
4.36718e-06
0.00504339
4.94017e-06
0.00504156
5.50124e-06
0.00503954
6.06568e-06
0.00503732
6.65748e-06
0.00503489
7.30612e-06
0.00503222
8.0393e-06
0.00502926
8.87396e-06
0.005026
9.80911e-06
0.0050224
1.08232e-05
0.00501845
1.18767e-05
0.00501416
1.292e-05
0.00500954
1.39018e-05
0.00500462
1.47788e-05
0.00499946
1.55215e-05
0.0049941
1.61169e-05
0.00498859
1.65684e-05
0.00498297
1.68921e-05
0.00497727
1.71132e-05
0.00497153
1.72606e-05
0.00496575
1.73638e-05
0.00495994
1.74489e-05
0.0049541
1.7538e-05
0.00494822
1.76474e-05
0.0049423
1.77886e-05
0.00493632
1.79681e-05
0.00493026
1.81892e-05
0.00492412
1.84519e-05
0.00491788
1.87548e-05
0.00491152
1.90952e-05
0.00490504
1.94698e-05
0.00489843
1.98754e-05
0.00489168
2.03089e-05
0.00488477
2.07674e-05
0.0048777
2.12485e-05
0.00487047
2.17503e-05
0.00486307
2.2271e-05
0.00485548
2.28096e-05
0.00484772
2.33649e-05
0.00483977
2.39363e-05
0.00483162
2.45232e-05
0.00482327
2.51254e-05
0.00481472
2.57425e-05
0.00480596
2.63747e-05
0.00479699
2.7022e-05
0.0047878
2.76852e-05
0.00477838
2.83665e-05
0.00476873
2.90721e-05
2.98208e-05
0.00475884
0.00505063
5.19781e-07
0.00505025
1.51536e-06
0.00504964
2.4576e-06
0.0050488
3.35291e-06
0.00504775
4.20817e-06
0.0050465
5.02859e-06
0.00504505
5.81805e-06
0.0050434
6.58134e-06
0.00504158
7.32868e-06
0.00503956
8.08031e-06
0.00503735
8.86801e-06
0.00503493
9.73091e-06
0.00503226
1.07058e-05
0.00502932
1.18153e-05
0.00502607
1.30582e-05
0.00502249
1.44063e-05
0.00501856
1.58073e-05
0.00501428
1.71953e-05
0.00500968
1.85024e-05
0.00500479
1.9671e-05
0.00499965
2.06616e-05
0.00499431
2.14569e-05
0.00498882
2.2061e-05
0.00498321
2.24952e-05
0.00497753
2.27925e-05
0.0049718
2.29915e-05
0.00496604
2.31308e-05
0.00496024
2.32456e-05
0.00495441
2.33649e-05
0.00494855
2.35106e-05
0.00494264
2.3698e-05
0.00493667
2.3936e-05
0.00493063
2.42287e-05
0.00492451
2.45767e-05
0.00491828
2.49778e-05
0.00491195
2.54286e-05
0.0049055
2.59249e-05
0.00489891
2.64623e-05
0.00489218
2.70367e-05
0.0048853
2.76443e-05
0.00487827
2.8282e-05
0.00487107
2.8947e-05
0.00486371
2.96373e-05
0.00485617
3.03511e-05
0.00484844
3.10871e-05
0.00484054
3.18444e-05
0.00483244
3.26221e-05
0.00482414
3.34199e-05
0.00481565
3.42375e-05
0.00480695
3.50747e-05
0.00479804
3.59316e-05
0.00478891
3.68092e-05
0.00477957
3.77099e-05
0.00477
3.8641e-05
3.96246e-05
0.0047602
0.00505063
6.49095e-07
0.00505025
1.89218e-06
0.00504964
3.0688e-06
0.00504881
4.18672e-06
0.00504776
5.25463e-06
0.00504651
6.27901e-06
0.00504506
7.26471e-06
0.00504343
8.21772e-06
0.0050416
9.15068e-06
0.0050396
1.00887e-05
0.00503739
1.10712e-05
0.00503498
1.21467e-05
0.00503232
1.33611e-05
0.00502939
1.47426e-05
0.00502616
1.62903e-05
0.0050226
1.7969e-05
0.00501869
1.97145e-05
0.00501444
2.14447e-05
0.00500987
2.30755e-05
0.00500501
2.4535e-05
0.00499989
2.57738e-05
0.00499458
2.67701e-05
0.00498911
2.75284e-05
0.00498353
2.8075e-05
0.00497788
2.84505e-05
0.00497216
2.87027e-05
0.00496642
2.88796e-05
0.00496064
2.90248e-05
0.00495483
2.91746e-05
0.00494898
2.93563e-05
0.00494309
2.95891e-05
0.00493714
2.98842e-05
0.00493112
3.02469e-05
0.00492502
3.0678e-05
0.00491882
3.1175e-05
0.00491252
3.17337e-05
0.0049061
3.23489e-05
0.00489954
3.30152e-05
0.00489285
3.37275e-05
0.00488601
3.44812e-05
0.00487902
3.52722e-05
0.00487187
3.60972e-05
0.00486456
3.69536e-05
0.00485707
3.78391e-05
0.00484941
3.87521e-05
0.00484156
3.96914e-05
0.00483352
4.06559e-05
0.0048253
4.16451e-05
0.00481688
4.26585e-05
0.00480826
4.3696e-05
0.00479943
4.47575e-05
0.0047904
4.58439e-05
0.00478115
4.69575e-05
0.00477168
4.81061e-05
4.93124e-05
0.004762
0.00505063
7.77997e-07
0.00505025
2.26764e-06
0.00504964
3.67786e-06
0.00504881
5.01759e-06
0.00504777
6.29735e-06
0.00504652
7.52494e-06
0.00504508
8.70614e-06
0.00504345
9.84811e-06
0.00504164
1.09659e-05
0.00503964
1.20893e-05
0.00503744
1.32651e-05
0.00503504
1.45514e-05
0.0050324
1.60026e-05
0.00502949
1.76529e-05
0.00502628
1.95014e-05
0.00502274
2.15069e-05
0.00501886
2.35932e-05
0.00501464
2.56627e-05
0.0050101
2.76152e-05
0.00500527
2.93647e-05
0.00500019
3.0852e-05
0.00499491
3.20504e-05
0.00498948
3.29648e-05
0.00498393
3.36259e-05
0.00497829
3.40819e-05
0.00497261
3.43893e-05
0.00496688
3.46053e-05
0.00496112
3.47819e-05
0.00495534
3.49624e-05
0.00494951
3.51798e-05
0.00494365
3.54568e-05
0.00493772
3.58074e-05
0.00493173
3.62381e-05
0.00492566
3.67497e-05
0.00491949
3.73398e-05
0.00491323
3.80032e-05
0.00490684
3.8734e-05
0.00490033
3.95257e-05
0.00489368
4.03722e-05
0.0048869
4.12681e-05
0.00487996
4.22085e-05
0.00487287
4.31895e-05
0.00486562
4.42077e-05
0.00485819
4.52605e-05
0.0048506
4.6346e-05
0.00484283
4.74625e-05
0.00483488
4.86089e-05
0.00482674
4.97843e-05
0.00481841
5.09881e-05
0.00480988
5.222e-05
0.00480116
5.34799e-05
0.00479224
5.47682e-05
0.00478311
5.60872e-05
0.00477377
5.74433e-05
5.8857e-05
0.00476422
0.00505063
9.06363e-07
0.00505025
2.64151e-06
0.00504965
4.28435e-06
0.00504882
5.84493e-06
0.00504778
7.33561e-06
0.00504654
8.76549e-06
0.00504511
1.01413e-05
0.00504348
1.14714e-05
0.00504168
1.2773e-05
0.00503969
1.40806e-05
0.0050375
1.54482e-05
0.00503511
1.69428e-05
0.00503249
1.86279e-05
0.0050296
2.05431e-05
0.00502641
2.26882e-05
0.0050229
2.50159e-05
0.00501905
2.74387e-05
0.00501487
2.98441e-05
0.00501037
3.21159e-05
0.00500558
3.41544e-05
0.00500054
3.58903e-05
0.0049953
3.72922e-05
0.0049899
3.83647e-05
0.00498439
3.91428e-05
0.00497879
3.96817e-05
0.00497313
4.00465e-05
0.00496743
4.03032e-05
0.0049617
4.05122e-05
0.00495594
4.07237e-05
0.00495014
4.09761e-05
0.0049443
4.12962e-05
0.00493841
4.17004e-05
0.00493245
4.21964e-05
0.00492642
4.27857e-05
0.00492029
4.34654e-05
0.00491406
4.42299e-05
0.00490773
4.50722e-05
0.00490127
4.59852e-05
0.00489468
4.69617e-05
0.00488795
4.79953e-05
0.00488108
4.90805e-05
0.00487405
5.02125e-05
0.00486687
5.13876e-05
0.00485953
5.26027e-05
0.00485202
5.38553e-05
0.00484434
5.51435e-05
0.00483648
5.64659e-05
0.00482845
5.78214e-05
0.00482023
5.92093e-05
0.00481182
6.06288e-05
0.00480322
6.20798e-05
0.00479442
6.35624e-05
0.00478543
6.50778e-05
0.00477625
6.66299e-05
0.00476687
6.82305e-05
0.00475745
2.44394e-08
2.77299e-09
0.00475689
5.56381e-07
2.80453e-09
0.00475576
1.12567e-06
2.77915e-09
0.00475403
1.73216e-06
2.73861e-09
0.00475164
2.3792e-06
2.69541e-09
0.00474857
3.07031e-06
2.64881e-09
0.00474476
3.80939e-06
2.59842e-09
0.00474016
4.6008e-06
2.54408e-09
0.0047347
5.44941e-06
2.48551e-09
0.00472834
6.36065e-06
2.42259e-09
0.004721
7.34062e-06
2.35514e-09
0.0047126
8.39614e-06
2.28283e-09
0.00470306
9.53484e-06
2.2054e-09
0.00469229
1.07654e-05
2.12451e-09
0.0046802
1.20974e-05
2.03379e-09
0.00466665
1.35419e-05
1.94912e-09
0.00465154
1.51114e-05
1.83419e-09
0.00463472
1.682e-05
1.70585e-09
0.00461603
1.86838e-05
1.58332e-09
0.00459531
2.07214e-05
1.44231e-09
0.00457235
2.2954e-05
1.30914e-09
0.00454695
2.54062e-05
1.16996e-09
0.00451884
2.81063e-05
1.02139e-09
0.00448775
3.10874e-05
8.6277e-10
0.00445336
3.43882e-05
6.93783e-10
0.00441531
3.80539e-05
5.14293e-10
0.00437317
4.21381e-05
3.24296e-10
0.00432646
4.67045e-05
1.2374e-10
0.00427463
5.18291e-05
-8.75314e-11
0.00421703
5.76033e-05
-3.09215e-10
0.00415289
6.41376e-05
-5.41261e-10
0.00408133
7.15663e-05
-7.83578e-10
0.00400128
8.00535e-05
-1.03617e-09
0.00391148
8.97998e-05
-1.29891e-09
0.00381043
0.00010105
-1.57171e-09
0.00369633
0.000114102
-1.85479e-09
0.00356702
0.00012931
-2.1486e-09
0.00341994
0.000147086
-2.45373e-09
0.00325206
0.00016788
-2.77053e-09
0.00305992
0.000192141
-3.0991e-09
0.00283971
0.00022022
-3.43915e-09
0.00258751
0.000252197
-3.78791e-09
0.00229992
0.000287592
-4.13813e-09
0.00197503
0.000324897
-4.47353e-09
0.00161415
0.000360882
-4.76034e-09
0.00122455
0.00038961
-4.93638e-09
0.000823368
0.000401187
-4.89584e-09
0.000443195
0.000380178
-4.47492e-09
0.000140052
0.000303147
-3.44681e-09
0.000140053
-1.5421e-09
0.00475654
1.4149e-06
0.00475461
2.48098e-06
0.00475212
3.61665e-06
0.00474903
4.8272e-06
0.00474529
6.1188e-06
0.00474086
7.49844e-06
0.0047357
8.97399e-06
0.00472974
1.05542e-05
0.00472294
1.22488e-05
0.00471524
1.40688e-05
0.00470655
1.60262e-05
0.00469681
1.81349e-05
0.00468594
2.041e-05
0.00467383
2.28689e-05
0.0046604
2.55311e-05
0.00464552
2.84184e-05
0.00462908
3.15559e-05
0.00461093
3.49719e-05
0.00459091
3.86988e-05
0.00456886
4.27736e-05
0.00454457
4.7239e-05
0.00451784
5.21441e-05
0.0044884
5.75457e-05
0.00445597
6.35101e-05
0.00442025
7.01145e-05
0.00438085
7.74497e-05
0.00433737
8.56228e-05
0.00428931
9.4761e-05
0.00423612
0.000105016
0.00417716
0.000116571
0.00411165
0.000129645
0.00403871
0.000144506
0.00395728
0.000161479
0.00386612
0.000180963
0.00376373
0.000203442
0.00364833
0.000229503
0.0035178
0.000259842
0.00336962
0.000295266
0.00320085
0.00033665
0.00300813
0.000384857
0.00278781
0.000440543
0.00253619
0.000503815
0.00225013
0.000573649
0.00192805
0.000646976
0.00157161
0.000717326
0.00118833
0.000772891
0.000795487
0.000794027
0.000425328
0.000750336
0.000131833
0.000596642
0.000271886
0.00475473
5.52163e-06
0.0047501
7.11619e-06
0.0047449
8.81396e-06
0.0047391
1.06236e-05
0.00473267
1.25546e-05
0.00472555
1.46175e-05
0.0047177
1.68242e-05
0.00470907
1.91878e-05
0.00469959
2.17231e-05
0.00468921
2.44465e-05
0.00467786
2.73763e-05
0.00466546
3.05331e-05
0.00465193
3.394e-05
0.00463718
3.76229e-05
0.0046211
4.1611e-05
0.00460358
4.59374e-05
0.0045845
5.06396e-05
0.00456371
5.57604e-05
0.00454106
6.13483e-05
0.00451638
6.74592e-05
0.00448946
7.4157e-05
0.00446009
8.15158e-05
0.00442801
8.9621e-05
0.00439295
9.85721e-05
0.00435458
0.000108485
0.00431253
0.000119496
0.00426639
0.000131766
0.00421566
0.000145486
0.0041598
0.000160883
0.00409814
0.000178228
0.00402993
0.000197851
0.00395429
0.000220149
0.00387016
0.000245605
0.00377632
0.000274807
0.00367129
0.000308468
0.00355335
0.000347447
0.00342043
0.000392759
0.00327013
0.000445564
0.00309967
0.000507115
0.00290591
0.000578614
0.00268552
0.00066093
0.00243526
0.000754081
0.00215252
0.000856384
0.00183638
0.000963118
0.00148913
0.00106457
0.00111875
0.00114328
0.000742511
0.00117026
0.000392183
0.00110066
0.0001192
0.000869626
0.000391086
0.00475206
1.36577e-05
0.0047434
1.5773e-05
0.00473419
1.8025e-05
0.00472439
2.04255e-05
0.00471396
2.29873e-05
0.00470285
2.57248e-05
0.00469102
2.86538e-05
0.00467842
3.1792e-05
0.00466498
3.51594e-05
0.00465065
3.87776e-05
0.00463536
4.26714e-05
0.00461902
4.68682e-05
0.00460156
5.13988e-05
0.00458289
5.62979e-05
0.00456289
6.16046e-05
0.00454147
6.73632e-05
0.00451848
7.36239e-05
0.0044938
8.04437e-05
0.00446726
8.78879e-05
0.00443869
9.60309e-05
0.00440789
0.000104959
0.00437463
0.00011477
0.00433867
0.000125579
0.00429973
0.000137519
0.00425747
0.000150744
0.00421153
0.000165438
0.00416148
0.000181813
0.00410684
0.000200124
0.00404705
0.000220672
0.00398146
0.000243819
0.00390932
0.000269998
0.00382973
0.000299734
0.00374168
0.00033366
0.00364394
0.000372542
0.0035351
0.000417305
0.0034135
0.000469055
0.00327717
0.000529083
0.00312389
0.000598849
0.0029511
0.000679898
0.00275606
0.00077366
0.00253592
0.000881069
0.00228812
0.00100188
0.00201091
0.00113359
0.00170435
0.00126968
0.00137164
0.00139728
0.00102124
0.00149368
0.00066995
0.00152155
0.000347708
0.00142291
0.000101319
0.00111601
0.000492405
0.00474857
2.70841e-05
0.00473463
2.97084e-05
0.00472016
3.25024e-05
0.0047051
3.54811e-05
0.00468943
3.86611e-05
0.00467309
4.20604e-05
0.00465605
4.56991e-05
0.00463824
4.95995e-05
0.00461961
5.37863e-05
0.0046001
5.8287e-05
0.00457964
6.31324e-05
0.00455815
6.83569e-05
0.00453555
7.39991e-05
0.00451175
8.01025e-05
0.00448664
8.67162e-05
0.0044601
9.38957e-05
0.00443202
0.000101704
0.00440225
0.000110213
0.00437064
0.000119504
0.004337
0.000129671
0.00430114
0.000140821
0.00426283
0.000153079
0.00422182
0.000166588
0.00417782
0.000181514
0.00413051
0.000198052
0.00407952
0.00021643
0.00402442
0.000236914
0.00396472
0.000259821
0.00389987
0.000285528
0.00382921
0.000314481
0.00375199
0.000347217
0.00366734
0.00038438
0.00357426
0.000426744
0.00347156
0.000475239
0.00335789
0.000530979
0.00323167
0.000595274
0.00309111
0.000669641
0.0029342
0.000755753
0.00275877
0.00085533
0.00256256
0.00096987
0.00234347
0.00110016
0.00209988
0.00124547
0.00183128
0.00140219
0.00153904
0.00156192
0.00122758
0.00170874
0.000905818
0.00181544
0.000589251
0.00183812
0.000303002
0.00170916
8.37008e-05
0.00133532
0.000576106
0.00474432
4.69924e-05
0.00472392
5.01068e-05
0.004703
5.34247e-05
0.00468151
5.69642e-05
0.00465943
6.0745e-05
0.0046367
6.47893e-05
0.00461328
6.91209e-05
0.00458911
7.37667e-05
0.00456414
7.87562e-05
0.00453831
8.41225e-05
0.00451154
8.99026e-05
0.00448375
9.61379e-05
0.00445488
0.000102875
0.00442482
0.000110166
0.00439346
0.00011807
0.0043607
0.000126654
0.00432641
0.000135994
0.00429045
0.000146176
0.00425265
0.0001573
0.00421285
0.000169477
0.00417083
0.000182838
0.00412638
0.000197532
0.00407923
0.000213732
0.00402911
0.000231638
0.00397568
0.000251485
0.00391856
0.000273544
0.00385734
0.000298139
0.00379151
0.000325647
0.00372053
0.000356516
0.00364373
0.00039128
0.00356037
0.000430572
0.0034696
0.00047515
0.00337043
0.000525916
0.00326172
0.000583944
0.0031422
0.0006505
0.00301043
0.000727049
0.00286482
0.000815247
0.00270371
0.000916859
0.00252545
0.0010336
0.00232853
0.00116678
0.00211195
0.00131674
0.00187556
0.00148186
0.00162067
0.00165708
0.00135071
0.00183188
0.00107194
0.00198752
0.000794015
0.00209337
0.000530145
0.00210199
0.000295679
0.00194362
0.000101918
0.00152908
0.000678023
0.00473939
7.44794e-05
0.00471144
7.80564e-05
0.00468299
8.18739e-05
0.004654
8.59508e-05
0.00462444
9.031e-05
0.00459425
9.49766e-05
0.00456339
9.99784e-05
0.00453181
0.000105346
0.00449945
0.000111115
0.00446625
0.000117323
0.00443214
0.000124013
0.00439705
0.000131233
0.00436088
0.000139039
0.00432356
0.00014749
0.00428497
0.000156657
0.00424501
0.000166618
0.00420354
0.000177461
0.00416043
0.000189288
0.00411551
0.000202215
0.00406861
0.000216374
0.00401954
0.000231916
0.00396805
0.000249017
0.0039139
0.000267879
0.00385681
0.000288737
0.00379643
0.000311864
0.00373239
0.00033758
0.00366427
0.000366259
0.00359157
0.000398341
0.00351374
0.000434348
0.00343013
0.000474893
0.00334
0.000520707
0.00324249
0.000572652
0.00313666
0.000631748
0.00302141
0.000699192
0.00289554
0.00077637
0.00275775
0.000864848
0.00260666
0.00096633
0.00244099
0.00108253
0.00225963
0.00121495
0.002062
0.00136441
0.00184838
0.00153036
0.0016205
0.00170974
0.00138214
0.00189544
0.00113985
0.00207417
0.000903316
0.00222405
0.000684998
0.00231169
0.000497589
0.0022894
0.000345319
0.00209589
0.000209059
0.00166534
0.000887083
-2.6329e-05
2.63293e-05
-3.22802e-10
-7.69505e-05
5.06229e-05
-1.31483e-09
-0.000134541
5.75929e-05
-2.57524e-09
-0.000189003
5.44664e-05
-3.99632e-09
-0.000234778
4.578e-05
-5.48853e-09
-0.000269034
3.42635e-05
-6.99187e-09
-0.000290546
2.15201e-05
-8.47095e-09
-0.000298957
8.42043e-06
-9.84738e-09
-0.000294545
-4.40113e-06
-1.08172e-08
-0.000278084
-1.64483e-05
-1.19128e-08
-0.000250063
-2.80085e-05
-1.27243e-08
-0.000211156
-3.88944e-05
-1.3186e-08
-0.000162093
-4.90496e-05
-1.32443e-08
-0.00010359
-5.849e-05
-1.27991e-08
-3.63502e-05
-6.7228e-05
-1.17304e-08
3.89423e-05
-7.52826e-05
-9.90264e-09
0.00012161
-8.26606e-05
-7.17676e-09
0.000211
-8.93864e-05
-3.42783e-09
0.000306474
-9.54754e-05
1.41453e-09
0.00040741
-0.000100943
7.42061e-09
0.0005132
-0.000105804
1.39892e-08
0.000623248
-0.00011007
2.1109e-08
0.000736968
-0.000113747
2.76616e-08
0.000853781
-0.000116846
3.30698e-08
0.000973125
-0.000119381
3.7451e-08
0.00109446
-0.000121371
3.99605e-08
0.00121726
-0.00012284
4.10098e-08
0.00134102
-0.000123809
4.0761e-08
0.00146528
-0.000124297
3.95445e-08
0.00158957
-0.000124329
3.76805e-08
0.00171346
-0.000123928
3.54366e-08
0.00183655
-0.000123116
3.30079e-08
0.00195844
-0.000121919
3.05268e-08
0.00207877
-0.000120364
2.80689e-08
0.00219722
-0.000118475
2.56692e-08
0.00231348
-0.00011628
2.33377e-08
0.00242726
-0.000113805
2.10661e-08
0.00253832
-0.000111079
1.88388e-08
0.00264643
-0.000108128
1.66395e-08
0.0027514
-0.000104979
1.44537e-08
0.00285305
-0.00010166
1.22738e-08
0.00295123
-9.81959e-05
1.00986e-08
0.00304584
-9.46135e-05
7.93135e-09
0.00313677
-9.09374e-05
5.78382e-09
0.00322396
-8.71918e-05
3.67243e-09
0.00330735
-8.33996e-05
1.61747e-09
0.00338694
-7.95826e-05
-3.56006e-10
0.0034627
-7.57602e-05
-2.22126e-09
0.00353465
-7.19491e-05
-3.95398e-09
-6.8162e-05
0.00360282
-5.53903e-09
-2.31357e-05
4.9465e-05
-6.77004e-05
9.51876e-05
-0.000118177
0.000108069
-0.000165748
0.000102037
-0.0002054
8.54323e-05
-0.000234546
6.34096e-05
-0.000252011
3.89854e-05
-0.000257346
1.3755e-05
-0.000250896
-1.08514e-05
-0.00023312
-3.42236e-05
-0.000204457
-5.66722e-05
-0.000165466
-7.78851e-05
-0.000116797
-9.77184e-05
-5.90755e-05
-0.000116212
7.07381e-06
-0.000133377
8.10082e-05
-0.000149217
0.000162126
-0.000163778
0.000249819
-0.000177079
0.000343489
-0.000189146
0.00044255
-0.000200003
0.000546423
-0.000209677
0.000654541
-0.000218188
0.00076634
-0.000225547
0.000881265
-0.000231771
0.000998769
-0.000236885
0.00111832
-0.000240926
0.00123942
-0.000243937
0.00136157
-0.000245958
0.0014843
-0.000247031
0.00160717
-0.000247196
0.00172974
-0.0002465
0.00185161
-0.000244988
0.0019724
-0.000242708
0.00209175
-0.000239711
0.00220933
-0.000236049
0.00232482
-0.000231773
0.00243795
-0.000226937
0.00254847
-0.000221595
0.00265614
-0.000215802
0.00276077
-0.00020961
0.00286218
-0.000203073
0.00296023
-0.000196244
0.00305479
-0.000189173
0.00314576
-0.000181911
0.00323308
-0.000174506
0.00331668
-0.000167004
0.00339655
-0.000159447
0.00347266
-0.000151875
0.00354504
-0.000144321
-0.000136808
0.00361368
-1.7531e-05
6.6996e-05
-4.99204e-05
0.000127577
-8.67129e-05
0.000144862
-0.000121082
0.000136406
-0.000149045
0.000113395
-0.000168497
8.2861e-05
-0.000178343
4.88316e-05
-0.000177882
1.32947e-05
-0.00016764
-2.10941e-05
-0.000147485
-5.43784e-05
-0.000117757
-8.63999e-05
-7.86751e-05
-0.000116967
-3.08454e-05
-0.000145548
2.5283e-05
-0.00017234
8.92314e-05
-0.000197326
0.000160518
-0.000220504
0.000238624
-0.000241884
0.000323031
-0.000261486
0.00041322
-0.000279334
0.000508671
-0.000295454
0.000608865
-0.000309872
0.000713286
-0.000322609
0.000821418
-0.000333679
0.000932741
-0.000343095
0.00104674
-0.000350886
0.00116292
-0.000357105
0.00128079
-0.000361807
0.00139988
-0.00036505
0.00151974
-0.00036689
0.00163993
-0.000367385
0.00176003
-0.000366599
0.00187964
-0.000364598
0.00199838
-0.000361451
0.0021159
-0.000357231
0.00223187
-0.000352013
0.00234597
-0.000345873
0.00245792
-0.000338889
0.00256747
-0.000331142
0.00267437
-0.00032271
0.00277844
-0.000313673
0.00287948
-0.000304111
0.00297733
-0.000294101
0.00307188
-0.00028372
0.00316301
-0.000273042
0.00325065
-0.000262139
0.00333472
-0.000251079
0.0034152
-0.000239928
0.00349207
-0.000228743
0.00356532
-0.000217574
-0.000206451
0.00363496
-7.72769e-06
7.47237e-05
-2.39503e-05
0.0001438
-4.185e-05
0.000162762
-5.78717e-05
0.000152428
-6.97418e-05
0.000125266
-7.59886e-05
8.91078e-05
-7.56629e-05
4.85059e-05
-6.73652e-05
4.99695e-06
-5.22095e-05
-3.62499e-05
-2.90218e-05
-7.75661e-05
2.131e-06
-0.000117553
4.07444e-05
-0.000155581
8.70497e-05
-0.000191853
0.00014074
-0.000226031
0.000201485
-0.00025807
0.000268934
-0.000287954
0.000342722
-0.000315671
0.000422454
-0.000341219
0.000507721
-0.000364601
0.000598095
-0.000385828
0.000693137
-0.000404915
0.000792402
-0.000421874
0.000895435
-0.000436711
0.00100177
-0.000449432
0.00111094
-0.000460058
0.00122248
-0.000468643
0.00133593
-0.000475259
0.00145086
-0.000479971
0.00156681
-0.000482847
0.00168338
-0.000483957
0.00180016
-0.000483378
0.00191676
-0.000481192
0.00203279
-0.000477487
0.00214792
-0.000472354
0.00226179
-0.00046589
0.00237411
-0.000458193
0.00248459
-0.000449364
0.00259295
-0.000439507
0.00269897
-0.000428725
0.00280242
-0.000417124
0.00290311
-0.000404806
0.00300089
-0.000391876
0.0030956
-0.000378433
0.00318713
-0.000364576
0.0032754
-0.000350401
0.00336032
-0.000335999
0.00344184
-0.000321456
0.00351995
-0.000306849
0.00359462
-0.000292244
-0.000277675
0.00366584
5.33307e-06
6.93906e-05
9.96503e-06
0.000139168
1.53714e-05
0.000157355
2.10357e-05
0.000146763
2.77971e-05
0.000118504
3.66773e-05
8.02277e-05
4.88669e-05
3.63163e-05
6.4489e-05
-1.06251e-05
8.51948e-05
-5.69557e-05
0.000111325
-0.000103697
0.000143229
-0.000149457
0.00018132
-0.000193671
0.000225553
-0.000236086
0.000275982
-0.000276459
0.000332549
-0.000314637
0.000395118
-0.000350523
0.000463493
-0.000384046
0.00053743
-0.000415156
0.000616644
-0.000443815
0.000700819
-0.000470003
0.00078961
-0.000493706
0.000882656
-0.00051492
0.000979576
-0.000533631
0.00107997
-0.000549822
0.00118341
-0.000563498
0.00128947
-0.00057471
0.00139775
-0.000583532
0.00150781
-0.000590038
0.00161926
-0.000594296
0.00173169
-0.000596382
0.00184469
-0.000596385
0.0019579
-0.000594396
0.00207093
-0.000590519
0.00218344
-0.00058486
0.00229508
-0.000577535
0.00240555
-0.000568661
0.00251454
-0.00055836
0.00262179
-0.000546757
0.00272705
-0.00053398
0.00283008
-0.000520156
0.00293069
-0.000505413
0.00302869
-0.000489878
0.00312393
-0.000473676
0.00321629
-0.00045693
0.00330564
-0.000439758
0.00339192
-0.000422273
0.00347505
-0.000404584
0.00355499
-0.000386788
0.00363171
-0.000368966
-0.000351156
0.00370519
1.90523e-05
5.03383e-05
4.81796e-05
0.00011004
7.92782e-05
0.000126257
0.000108898
0.000117144
0.00013583
9.1572e-05
0.000160689
5.53689e-05
0.000184947
1.20586e-05
0.000208333
-3.4011e-05
0.000233969
-8.25924e-05
0.000262438
-0.000132166
0.000294569
-0.000181588
0.000331018
-0.00023012
0.000372215
-0.000277283
0.000418463
-0.000322707
0.000469947
-0.000366121
0.000526742
-0.000407319
0.000588838
-0.000446142
0.000656146
-0.000482464
0.00072852
-0.000516189
0.000805758
-0.000547241
0.000887618
-0.000575566
0.000973823
-0.000601125
0.00106407
-0.000623877
0.00115802
-0.000643772
0.00125531
-0.000660785
0.00135555
-0.000674953
0.00145836
-0.000686347
0.00156336
-0.000695037
0.00167016
-0.00070109
0.00177836
-0.000704583
0.00188758
-0.000705605
0.00199744
-0.000704259
0.00210758
-0.000700656
0.00221764
-0.000694917
0.00232727
-0.000687171
0.00243616
-0.000677552
0.00254401
-0.000666201
0.00265051
-0.000653265
0.00275542
-0.00063889
0.00285849
-0.000623227
0.00295951
-0.000606428
0.00305827
-0.000588641
0.00315461
-0.000570017
0.00324838
-0.000550702
0.00333946
-0.000530837
0.00342775
-0.000510559
0.00351316
-0.000489997
0.00359564
-0.00046927
0.00367515
-0.000448476
-0.000427666
0.00375166
3.48228e-05
1.55154e-05
9.29088e-05
5.19543e-05
0.000151037
6.81286e-05
0.000203451
6.47297e-05
0.00024851
4.65125e-05
0.000287828
1.60513e-05
0.000321238
-2.13512e-05
0.000351376
-6.41496e-05
0.000380482
-0.000111698
0.00041001
-0.000161694
0.000441214
-0.000212792
0.000475101
-0.000264007
0.000512438
-0.000314619
0.000553801
-0.000364071
0.000599607
-0.000411927
0.000650135
-0.000457847
0.000705548
-0.000501554
0.00076591
-0.000542826
0.000831202
-0.000581481
0.000901337
-0.000617375
0.000976165
-0.000650395
0.0010555
-0.000680455
0.00113909
-0.000707475
0.00122669
-0.000731366
0.00131797
-0.000752065
0.00141259
-0.000769575
0.0015102
-0.000783958
0.00161044
-0.000795274
0.00171293
-0.00080358
0.00181729
-0.00080895
0.00192316
-0.000811472
0.00203015
-0.000811251
0.0021379
-0.000808405
0.00224605
-0.000803062
0.00235424
-0.000795365
0.00246215
-0.000785462
0.00256946
-0.000773511
0.00267587
-0.000759676
0.00278111
-0.000744123
0.0028849
-0.000727026
0.00298703
-0.000708556
0.00308728
-0.000688889
0.00318546
-0.000668195
0.0032814
-0.000646645
0.00337497
-0.000624405
0.00346604
-0.000601634
0.00355453
-0.000578486
0.00364036
-0.0005551
0.00372348
-0.000531594
0.00380386
-0.000508048
0.00367546
-7.26315e-05
-7.02684e-09
0.00374589
-7.04236e-05
-8.5478e-09
0.00381402
-6.81223e-05
-1.004e-08
0.00387978
-6.57486e-05
-1.14689e-08
0.00394311
-6.33158e-05
-1.27815e-08
0.00400396
-6.08357e-05
-1.39296e-08
0.0040623
-5.83207e-05
-1.48707e-08
0.0041181
-5.57835e-05
-1.55722e-08
0.00417135
-5.32374e-05
-1.60127e-08
0.00422206
-5.0696e-05
-1.61805e-08
0.00427025
-4.81733e-05
-1.60724e-08
0.00431595
-4.56832e-05
-1.56964e-08
0.0043592
-4.32391e-05
-1.50691e-08
0.00440007
-4.08539e-05
-1.42122e-08
0.00443862
-3.85391e-05
-1.31537e-08
0.00447494
-3.63054e-05
-1.19273e-08
0.00450911
-3.41616e-05
-1.05677e-08
0.00454124
-3.21148e-05
-9.10975e-09
0.00457142
-3.01706e-05
-7.58844e-09
0.00459975
-2.83324e-05
-6.03636e-09
0.00462636
-2.6602e-05
-4.48101e-09
0.00465134
-2.49794e-05
-2.9465e-09
0.00467481
-2.34628e-05
-1.45343e-09
0.00469686
-2.20491e-05
-1.62136e-11
0.00471759
-2.07337e-05
1.3559e-09
0.0047371
-1.95107e-05
2.65598e-09
0.00475547
-1.83734e-05
3.87942e-09
0.00477278
-1.73143e-05
5.02416e-09
0.00478909
-1.63251e-05
6.08726e-09
0.00480449
-1.53976e-05
7.06408e-09
0.004819
-1.45234e-05
7.94881e-09
0.00483269
-1.36949e-05
8.73206e-09
0.00484558
-1.29058e-05
9.40124e-09
0.00485772
-1.2151e-05
9.94179e-09
0.00486914
-1.14278e-05
1.03407e-08
0.00487987
-1.07354e-05
1.05839e-08
0.00488993
-1.00752e-05
1.06619e-08
0.00489937
-9.44995e-06
1.05724e-08
0.00490822
-8.86333e-06
1.03188e-08
0.00491653
-8.31877e-06
9.91109e-09
0.00492434
-7.81864e-06
9.3684e-09
0.0049317
-7.36351e-06
8.71512e-09
0.00493864
-6.95187e-06
7.97766e-09
0.00494521
-6.58029e-06
7.19322e-09
0.00495145
-6.24334e-06
6.38595e-09
0.00495738
-5.93577e-06
5.54707e-09
0.00496303
-5.65175e-06
4.73202e-09
0.00496841
-5.38595e-06
3.94351e-09
0.00497354
-5.13409e-06
3.19664e-09
0.00497843
-4.89308e-06
2.49547e-09
0.00498309
-4.66087e-06
1.84525e-09
0.00498753
-4.43628e-06
1.24986e-09
0.00499174
-4.21876e-06
7.08662e-10
0.00499575
-4.00813e-06
2.18538e-10
0.00499956
-3.8044e-06
-2.24685e-10
0.00500316
-3.60764e-06
-6.29602e-10
0.00500658
-3.41789e-06
-1.00597e-09