/*--------------------------------*- C++ -*----------------------------------*\
| =========                 |                                                 |
| \\      /  F ield         | OpenFOAM: The Open Source CFD Toolbox           |
|  \\    /   O peration     | Version:  2412                                  |
|   \\  /    A nd           | Website:  www.openfoam.com                      |
|    \\/     M anipulation  |                                                 |
\*---------------------------------------------------------------------------*/
FoamFile
{
    version     2.0;
    format      ascii;
    arch        "LSB;label=32;scalar=64";
    class       volVectorField;
    location    "27";
    object      U;
}
// * * * * * * * * * * * * * * * * * * * * * * * * * * * * * * * * * * * * * //

dimensions      [0 1 -1 0 0 0 0];

internalField   nonuniform List<vector> 
63420
(
(0.0999997 4.4044e-07 0)
(0.099995 1.30996e-06 0)
(0.099985 2.16692e-06 0)
(0.0999706 3.01556e-06 0)
(0.0999518 3.86062e-06 0)
(0.0999289 4.70571e-06 0)
(0.099902 5.5535e-06 0)
(0.0998712 6.40788e-06 0)
(0.0998367 7.27853e-06 0)
(0.0997986 8.18631e-06 0)
(0.0997566 9.16578e-06 0)
(0.0997106 1.0262e-05 0)
(0.0996601 1.15207e-05 0)
(0.0996044 1.29752e-05 0)
(0.0995428 1.4634e-05 0)
(0.0994748 1.64741e-05 0)
(0.0993998 1.84428e-05 0)
(0.0993178 2.04657e-05 0)
(0.099229 2.24609e-05 0)
(0.099134 2.43526e-05 0)
(0.0990336 2.60827e-05 0)
(0.0989288 2.76178e-05 0)
(0.0988205 2.89505e-05 0)
(0.0987098 3.00968e-05 0)
(0.0985973 3.10906e-05 0)
(0.0984836 3.19761e-05 0)
(0.0983692 3.28017e-05 0)
(0.0982542 3.36145e-05 0)
(0.0981386 3.4456e-05 0)
(0.0980224 3.53606e-05 0)
(0.0979054 3.63543e-05 0)
(0.0977874 3.74556e-05 0)
(0.097668 3.86762e-05 0)
(0.097547 4.00226e-05 0)
(0.0974241 4.14974e-05 0)
(0.0972991 4.31008e-05 0)
(0.0971716 4.48315e-05 0)
(0.0970416 4.66876e-05 0)
(0.0969088 4.86673e-05 0)
(0.0967731 5.07691e-05 0)
(0.0966342 5.29923e-05 0)
(0.096492 5.5337e-05 0)
(0.0963464 5.7804e-05 0)
(0.0961973 6.0395e-05 0)
(0.0960446 6.31122e-05 0)
(0.0958882 6.59586e-05 0)
(0.0957279 6.8938e-05 0)
(0.0955636 7.20543e-05 0)
(0.0953953 7.53125e-05 0)
(0.0952228 7.87178e-05 0)
(0.0950461 8.22765e-05 0)
(0.094865 8.59969e-05 0)
(0.0946795 8.98928e-05 0)
(0.0944893 9.39943e-05 0)
(0.0942944 9.83769e-05 0)
(0.0999997 1.32132e-06 0)
(0.099995 3.92982e-06 0)
(0.099985 6.5006e-06 0)
(0.0999706 9.04628e-06 0)
(0.0999518 1.15811e-05 0)
(0.0999289 1.41159e-05 0)
(0.099902 1.66587e-05 0)
(0.0998713 1.92214e-05 0)
(0.0998368 2.18328e-05 0)
(0.0997987 2.45552e-05 0)
(0.0997568 2.74921e-05 0)
(0.0997108 3.07779e-05 0)
(0.0996604 3.45496e-05 0)
(0.0996047 3.89069e-05 0)
(0.0995433 4.38752e-05 0)
(0.0994753 4.93866e-05 0)
(0.0994004 5.52834e-05 0)
(0.0993185 6.13443e-05 0)
(0.0992299 6.73242e-05 0)
(0.099135 7.29967e-05 0)
(0.0990348 7.81881e-05 0)
(0.0989301 8.27981e-05 0)
(0.098822 8.68044e-05 0)
(0.0987114 9.02544e-05 0)
(0.098599 9.32484e-05 0)
(0.0984854 9.59185e-05 0)
(0.0983711 9.84091e-05 0)
(0.0982561 0.00010086 0)
(0.0981407 0.000103397 0)
(0.0980246 0.00010612 0)
(0.0979077 0.000109109 0)
(0.0977897 0.000112419 0)
(0.0976704 0.000116085 0)
(0.0975495 0.000120126 0)
(0.0974267 0.000124551 0)
(0.0973018 0.00012936 0)
(0.0971746 0.00013455 0)
(0.0970447 0.000140115 0)
(0.0969121 0.000146049 0)
(0.0967765 0.000152349 0)
(0.0966378 0.000159012 0)
(0.0964959 0.000166039 0)
(0.0963506 0.000173432 0)
(0.0962017 0.000181196 0)
(0.0960493 0.000189338 0)
(0.0958931 0.000197867 0)
(0.0957331 0.000206794 0)
(0.0955692 0.00021613 0)
(0.0954013 0.000225891 0)
(0.0952292 0.000236093 0)
(0.0950529 0.000246753 0)
(0.0948722 0.000257896 0)
(0.0946871 0.000269564 0)
(0.0944975 0.000281846 0)
(0.0943031 0.00029497 0)
(0.0999997 2.20132e-06 0)
(0.099995 6.54686e-06 0)
(0.099985 1.08297e-05 0)
(0.0999706 1.50706e-05 0)
(0.0999519 1.92932e-05 0)
(0.099929 2.35159e-05 0)
(0.0999022 2.77519e-05 0)
(0.0998715 3.20209e-05 0)
(0.0998371 3.63708e-05 0)
(0.099799 4.0905e-05 0)
(0.0997572 4.57952e-05 0)
(0.0997113 5.12648e-05 0)
(0.0996609 5.75415e-05 0)
(0.0996054 6.47911e-05 0)
(0.0995441 7.30569e-05 0)
(0.0994763 8.22265e-05 0)
(0.0994016 9.20389e-05 0)
(0.09932 0.000102127 0)
(0.0992316 0.000112083 0)
(0.0991371 0.000121532 0)
(0.0990371 0.000130184 0)
(0.0989327 0.000137872 0)
(0.0988249 0.000144557 0)
(0.0987145 0.000150317 0)
(0.0986023 0.000155318 0)
(0.098489 0.000159779 0)
(0.0983748 0.000163939 0)
(0.0982601 0.000168032 0)
(0.0981448 0.000172263 0)
(0.0980288 0.000176803 0)
(0.0979121 0.000181782 0)
(0.0977943 0.000187293 0)
(0.0976752 0.000193393 0)
(0.0975545 0.000200117 0)
(0.097432 0.000207478 0)
(0.0973074 0.000215477 0)
(0.0971804 0.000224108 0)
(0.0970509 0.000233363 0)
(0.0969186 0.000243232 0)
(0.0967834 0.000253708 0)
(0.0966451 0.000264788 0)
(0.0965036 0.000276473 0)
(0.0963588 0.000288766 0)
(0.0962105 0.000301676 0)
(0.0960586 0.000315213 0)
(0.095903 0.000329393 0)
(0.0957437 0.000344233 0)
(0.0955804 0.000359753 0)
(0.0954132 0.000375978 0)
(0.0952418 0.000392932 0)
(0.0950664 0.000410647 0)
(0.0948866 0.000429161 0)
(0.0947024 0.000448542 0)
(0.0945138 0.000468933 0)
(0.0943204 0.000490696 0)
(0.0999997 3.07986e-06 0)
(0.099995 9.15922e-06 0)
(0.0999851 1.51513e-05 0)
(0.0999707 2.10843e-05 0)
(0.099952 2.69917e-05 0)
(0.0999292 3.2899e-05 0)
(0.0999024 3.8825e-05 0)
(0.0998718 4.4797e-05 0)
(0.0998374 5.08817e-05 0)
(0.0997994 5.72231e-05 0)
(0.0997577 6.40599e-05 0)
(0.0997119 7.17038e-05 0)
(0.0996617 8.04722e-05 0)
(0.0996064 9.05971e-05 0)
(0.0995453 0.00010214 0)
(0.0994778 0.000114947 0)
(0.0994035 0.000128654 0)
(0.0993222 0.000142751 0)
(0.0992343 0.000156671 0)
(0.0991401 0.000169889 0)
(0.0990406 0.000182 0)
(0.0989366 0.000192769 0)
(0.0988292 0.000202141 0)
(0.0987191 0.000210221 0)
(0.0986073 0.000217241 0)
(0.0984943 0.000223503 0)
(0.0983804 0.00022934 0)
(0.0982659 0.000235078 0)
(0.0981509 0.000241004 0)
(0.0980352 0.000247356 0)
(0.0979187 0.000254317 0)
(0.0978012 0.000262015 0)
(0.0976824 0.000270534 0)
(0.097562 0.00027992 0)
(0.0974399 0.000290193 0)
(0.0973156 0.000301355 0)
(0.0971891 0.000313399 0)
(0.0970601 0.000326312 0)
(0.0969283 0.000340082 0)
(0.0967937 0.000354699 0)
(0.096656 0.000370159 0)
(0.0965152 0.000386461 0)
(0.0963711 0.000403611 0)
(0.0962235 0.00042162 0)
(0.0960725 0.000440504 0)
(0.0959178 0.000460283 0)
(0.0957594 0.00048098 0)
(0.0955971 0.000502624 0)
(0.095431 0.000525247 0)
(0.0952608 0.000548883 0)
(0.0950865 0.000573575 0)
(0.094908 0.000599375 0)
(0.0947253 0.00062637 0)
(0.0945381 0.000654743 0)
(0.0943464 0.000684959 0)
(0.0999997 3.95643e-06 0)
(0.099995 1.1765e-05 0)
(0.0999851 1.94622e-05 0)
(0.0999708 2.70831e-05 0)
(0.0999521 3.46709e-05 0)
(0.0999294 4.22585e-05 0)
(0.0999027 4.98701e-05 0)
(0.0998721 5.75404e-05 0)
(0.0998379 6.53548e-05 0)
(0.0998 7.34968e-05 0)
(0.0997584 8.22712e-05 0)
(0.0997128 9.2076e-05 0)
(0.0996628 0.000103318 0)
(0.0996077 0.000116295 0)
(0.0995469 0.000131088 0)
(0.0994798 0.000147503 0)
(0.0994059 0.000165076 0)
(0.0993252 0.000183158 0)
(0.0992377 0.000201024 0)
(0.0991441 0.000218 0)
(0.0990452 0.000233568 0)
(0.0989417 0.000247423 0)
(0.0988348 0.000259492 0)
(0.0987253 0.000269907 0)
(0.0986139 0.000278959 0)
(0.0985012 0.000287035 0)
(0.0983877 0.00029456 0)
(0.0982736 0.000301948 0)
(0.0981589 0.000309568 0)
(0.0980435 0.000317726 0)
(0.0979274 0.000326656 0)
(0.0978103 0.000336523 0)
(0.0976919 0.000347437 0)
(0.097572 0.000359456 0)
(0.0974503 0.000372609 0)
(0.0973266 0.000386899 0)
(0.0972007 0.000402315 0)
(0.0970723 0.000418843 0)
(0.0969412 0.000436468 0)
(0.0968073 0.000455177 0)
(0.0966705 0.000474963 0)
(0.0965306 0.000495826 0)
(0.0963874 0.000517774 0)
(0.0962409 0.00054082 0)
(0.0960909 0.000564982 0)
(0.0959374 0.000590287 0)
(0.0957802 0.000616764 0)
(0.0956193 0.000644448 0)
(0.0954546 0.000673379 0)
(0.0952859 0.000703599 0)
(0.0951132 0.00073516 0)
(0.0949365 0.000768127 0)
(0.0947555 0.000802599 0)
(0.0945703 0.000838785 0)
(0.0943807 0.000877205 0)
(0.0999997 4.83064e-06 0)
(0.099995 1.43623e-05 0)
(0.0999852 2.37597e-05 0)
(0.0999709 3.30629e-05 0)
(0.0999523 4.23256e-05 0)
(0.0999296 5.15879e-05 0)
(0.099903 6.08793e-05 0)
(0.0998726 7.02421e-05 0)
(0.0998385 7.97795e-05 0)
(0.0998007 8.97138e-05 0)
(0.0997593 0.000100414 0)
(0.0997139 0.000112364 0)
(0.0996641 0.000126057 0)
(0.0996094 0.000141857 0)
(0.0995489 0.000159866 0)
(0.0994823 0.000179852 0)
(0.0994089 0.000201257 0)
(0.0993287 0.000223293 0)
(0.0992419 0.00024508 0)
(0.099149 0.000265802 0)
(0.0990508 0.000284823 0)
(0.098948 0.00030177 0)
(0.0988417 0.000316548 0)
(0.0987328 0.000329314 0)
(0.0986219 0.000340416 0)
(0.0985098 0.000350322 0)
(0.0983967 0.000359546 0)
(0.0982831 0.00036859 0)
(0.0981688 0.000377904 0)
(0.0980539 0.000387858 0)
(0.0979382 0.00039874 0)
(0.0978215 0.000410754 0)
(0.0977036 0.000424032 0)
(0.0975843 0.000438649 0)
(0.0974632 0.00045464 0)
(0.0973402 0.00047201 0)
(0.097215 0.000490749 0)
(0.0970874 0.000510837 0)
(0.0969572 0.000532257 0)
(0.0968243 0.000554995 0)
(0.0966885 0.000579041 0)
(0.0965497 0.000604395 0)
(0.0964077 0.000631065 0)
(0.0962625 0.000659066 0)
(0.0961138 0.000688422 0)
(0.0959618 0.000719161 0)
(0.0958062 0.00075132 0)
(0.0956469 0.000784938 0)
(0.0954839 0.000820062 0)
(0.0953171 0.000856743 0)
(0.0951464 0.000895038 0)
(0.0949717 0.000935021 0)
(0.0947931 0.000976798 0)
(0.0946103 0.00102058 0)
(0.0944233 0.00106689 0)
(0.0999997 5.70178e-06 0)
(0.099995 1.69498e-05 0)
(0.0999852 2.80408e-05 0)
(0.099971 3.90197e-05 0)
(0.0999525 4.99505e-05 0)
(0.0999299 6.08807e-05 0)
(0.0999034 7.1845e-05 0)
(0.0998731 8.2893e-05 0)
(0.0998392 9.41455e-05 0)
(0.0998016 0.000105862 0)
(0.0997604 0.000118475 0)
(0.0997152 0.000132549 0)
(0.0996657 0.000148667 0)
(0.0996113 0.000167256 0)
(0.0995513 0.000188442 0)
(0.0994852 0.000211956 0)
(0.0994124 0.00023715 0)
(0.099333 0.000263104 0)
(0.0992469 0.000288786 0)
(0.0991548 0.000313236 0)
(0.0990573 0.000335705 0)
(0.0989553 0.000355749 0)
(0.0988498 0.00037325 0)
(0.0987415 0.000388385 0)
(0.0986313 0.000401557 0)
(0.0985198 0.00041331 0)
(0.0984073 0.000424245 0)
(0.0982942 0.000434951 0)
(0.0981804 0.000445955 0)
(0.098066 0.000457695 0)
(0.0979509 0.00047051 0)
(0.0978348 0.00048464 0)
(0.0977176 0.000500246 0)
(0.0975989 0.000517418 0)
(0.0974786 0.000536197 0)
(0.0973564 0.000556592 0)
(0.097232 0.000578592 0)
(0.0971054 0.000602175 0)
(0.0969763 0.00062732 0)
(0.0968445 0.00065401 0)
(0.0967099 0.000682236 0)
(0.0965724 0.000711995 0)
(0.0964319 0.000743297 0)
(0.0962881 0.000776157 0)
(0.0961411 0.000810602 0)
(0.0959908 0.000846666 0)
(0.095837 0.000884387 0)
(0.0956797 0.000923813 0)
(0.0955188 0.000964994 0)
(0.0953542 0.00100799 0)
(0.0951859 0.00105286 0)
(0.0950137 0.00109968 0)
(0.0948377 0.00114856 0)
(0.0946578 0.00119967 0)
(0.0944739 0.00125345 0)
(0.0940935 0.000103264 -4.4354e-24)
(0.0938847 0.000108451 -4.52341e-24)
(0.093666 0.000113977 -3.17418e-26)
(0.0934366 0.000119868 1.39048e-23)
(0.0931961 0.000126158 -4.60559e-24)
(0.0929435 0.000132881 -4.74245e-24)
(0.092678 0.000140077 -1.46093e-23)
(0.0923988 0.000147788 1.45048e-23)
(0.0921049 0.000156064 4.96534e-24)
(0.0917953 0.000164957 0)
(0.0914687 0.000174529 5.13251e-24)
(0.0911239 0.000184847 -5.22238e-24)
(0.0907595 0.000195987 4.29769e-23)
(0.0903739 0.000208035 -9.21194e-23)
(0.0899655 0.000221086 4.92458e-23)
(0.0895322 0.00023525 3.99267e-23)
(0.0890721 0.000250651 5.12337e-23)
(0.0885828 0.00026743 -5.86915e-24)
(0.0880617 0.000285745 5.99842e-24)
(0.0875059 0.000305783 -6.13506e-24)
(0.0869121 0.000327753 0)
(0.0862767 0.0003519 6.43274e-24)
(0.0855955 0.000378506 -6.59506e-24)
(0.0848639 0.000407899 0)
(0.0840767 0.000440464 -6.9504e-24)
(0.0832277 0.000476651 0)
(0.0823102 0.000516994 -7.35247e-24)
(0.0813161 0.000562125 -1.23215e-22)
(0.0802365 0.000612801 1.30837e-22)
(0.0790606 0.000669932 -1.31321e-22)
(0.0777761 0.000734617 1.31121e-22)
(0.0763686 0.000808194 0)
(0.074821 0.000892298 0)
(0.0731131 0.000988928 1.60593e-22)
(0.0712206 0.00110053 -1.511e-22)
(0.0691149 0.00123006 0)
(0.0667614 0.00138106 0)
(0.0641187 0.00155763 0)
(0.0611381 0.00176427 0)
(0.0577627 0.00200544 0)
(0.0539279 0.00228461 0)
(0.049565 0.00260255 0)
(0.0446071 0.00295438 0)
(0.0390023 0.00332498 0)
(0.0327378 0.00368208 -1.47394e-23)
(0.0258778 0.00396638 -5.05321e-22)
(0.0186055 0.00407967 5.04563e-22)
(0.0112932 0.00387216 5.47787e-22)
(0.00483118 0.00311398 -5.46965e-22)
(0.000983975 0.00144602 0)
(0.0941026 0.000309617 -4.48823e-24)
(0.093894 0.00032513 -9.15772e-24)
(0.0936754 0.000341663 -4.80432e-24)
(0.0934464 0.000359296 4.47001e-24)
(0.0932061 0.000378125 -4.67075e-24)
(0.0929538 0.000398254 3.34861e-23)
(0.0926887 0.000419799 -5.25905e-23)
(0.0924099 0.000442889 4.88641e-24)
(0.0921165 0.00046767 6.52485e-23)
(0.0918074 0.000494303 -9.01145e-23)
(0.0914814 0.00052297 -8.80467e-23)
(0.0911372 0.000553873 7.75837e-23)
(0.0907736 0.00058724 0)
(0.0903889 0.000623327 5.42148e-24)
(0.0899813 0.000662423 -1.65726e-23)
(0.0895492 0.000704857 -1.88014e-22)
(0.0890903 0.000750997 1.80489e-22)
(0.0886023 0.000801266 -1.91865e-22)
(0.0880827 0.000856145 -1.80213e-23)
(0.0875286 0.000916185 6.14852e-24)
(0.0869368 0.00098202 0)
(0.0863036 0.00105438 -6.4494e-24)
(0.085625 0.00113411 -2.0788e-22)
(0.0848964 0.00122221 4.34444e-22)
(0.0841125 0.0013198 2.39713e-22)
(0.0832675 0.00142826 -4.52078e-22)
(0.0823546 0.00154917 4.86892e-22)
(0.081366 0.00168443 -4.94058e-22)
(0.0802927 0.00183629 -7.84046e-24)
(0.0791244 0.00200749 0)
(0.0778491 0.00220131 0)
(0.0764526 0.00242173 0)
(0.0749185 0.00267362 0)
(0.0732272 0.00296294 -9.30856e-24)
(0.0713554 0.00329695 -6.30933e-22)
(0.0692756 0.00368442 -2.64089e-23)
(0.0669547 0.00413584 6.55632e-22)
(0.0643536 0.00466329 7.1329e-22)
(0.0614259 0.00528 -7.12345e-22)
(0.0581177 0.00599894 -2.36355e-23)
(0.054368 0.00683007 -2.46708e-23)
(0.050111 0.00777511 -8.49616e-22)
(0.0452818 0.00881886 8.21643e-22)
(0.0398275 0.00991547 -2.79558e-23)
(0.0337275 0.0109681 1.48424e-23)
(0.0270266 0.0117999 -1.02761e-21)
(0.0198721 0.0121183 1.02722e-21)
(0.0125755 0.0114785 -2.14211e-21)
(0.00590669 0.00920683 2.10628e-21)
(0.00142071 0.00424431 -2.15773e-21)
(0.0941208 0.000514984 -2.65449e-23)
(0.0939125 0.000540729 -9.32363e-24)
(0.0936944 0.000568166 3.5941e-23)
(0.0934658 0.000597437 -7.39744e-23)
(0.093226 0.000628694 1.58313e-22)
(0.0929744 0.000662111 -7.50066e-23)
(0.09271 0.000697881 1.41861e-26)
(0.0924321 0.000736222 9.74546e-24)
(0.0921397 0.000777374 1.69999e-22)
(0.0918316 0.000821608 -1.59913e-22)
(0.0915069 0.000869225 0)
(0.0911641 0.000920563 1.45679e-26)
(0.090802 0.000976002 0)
(0.090419 0.00103597 1.86244e-22)
(0.0900135 0.00110094 -1.64166e-22)
(0.0895835 0.00117147 -3.54086e-22)
(0.0891271 0.00124817 1.97486e-23)
(0.0886419 0.00133174 -3.72898e-22)
(0.0881254 0.00142298 1.20586e-23)
(0.0875749 0.00152282 -3.9963e-22)
(0.0869871 0.0016323 4.11874e-22)
(0.0863585 0.00175265 -4.19829e-22)
(0.0856851 0.00188527 4.32701e-22)
(0.0849626 0.0020318 1.36209e-23)
(0.0841857 0.00219415 -1.39955e-23)
(0.0833488 0.00237457 1.43933e-23)
(0.0824453 0.00257571 -4.82157e-22)
(0.0814678 0.00280071 4.97e-22)
(0.0804076 0.00305332 5.28806e-22)
(0.0792548 0.00333804 -5.12576e-22)
(0.0779982 0.00366029 0)
(0.0766242 0.00402667 0)
(0.0751176 0.00444517 1.8003e-23)
(0.07346 0.00492555 1.24012e-21)
(0.07163 0.00547968 2.93408e-23)
(0.0696026 0.00612185 -1.24769e-21)
(0.0673478 0.00686904 0)
(0.0648304 0.00774068 -2.17766e-23)
(0.0620093 0.00875784 1.51533e-21)
(0.0588365 0.00994087 -3.02407e-21)
(0.0552577 0.0113047 3.20356e-21)
(0.0512135 0.0128502 9.51412e-23)
(0.0466427 0.0145501 -1.66255e-21)
(0.0414901 0.0163265 -1.79677e-21)
(0.0357193 0.0180181 1.85173e-21)
(0.0293354 0.0193344 1.42494e-24)
(0.0224129 0.0197952 -3.1433e-23)
(0.0151427 0.0186704 2.07047e-21)
(0.00804048 0.014888 -2.00492e-21)
(0.00225975 0.00679876 -2.00539e-21)
(0.0941479 0.000718634 1.74877e-23)
(0.0939401 0.000754466 -8.87715e-24)
(0.0937227 0.000792642 1.95146e-26)
(0.0934949 0.000833363 9.13964e-24)
(0.093256 0.000876847 -1.96137e-26)
(0.0930054 0.000923337 1.51945e-22)
(0.0927423 0.000973108 -2.87162e-22)
(0.0924657 0.00102646 1.54354e-22)
(0.0921748 0.00108374 -9.88587e-24)
(0.0918685 0.00114532 1.82797e-22)
(0.0915457 0.00121161 -1.62599e-22)
(0.0912051 0.0012831 -3.37624e-22)
(0.0908454 0.00136032 6.81804e-22)
(0.0904652 0.00144385 -6.95421e-22)
(0.0900627 0.00153437 7.09692e-22)
(0.0896361 0.00163265 -7.13419e-22)
(0.0891836 0.00173954 -3.77732e-22)
(0.0887027 0.00185603 2.24655e-26)
(0.0881912 0.00198323 0)
(0.0876462 0.00212243 -3.89161e-22)
(0.0870647 0.0022751 4.01376e-22)
(0.0864434 0.00244293 0)
(0.0857783 0.00262791 -8.67213e-22)
(0.0850652 0.0028323 8.53141e-22)
(0.0842992 0.00305878 1.41287e-23)
(0.083475 0.00331047 -3.69465e-26)
(0.0825863 0.00359106 1.49338e-23)
(0.081626 0.00390493 0)
(0.0805862 0.00425726 -5.29665e-26)
(0.0794577 0.00465429 0)
(0.07823 0.00510352 -1.695e-23)
(0.076891 0.00561401 1.14589e-21)
(0.0754267 0.00619673 -1.14559e-21)
(0.0738211 0.00686502 -1.89437e-23)
(0.0720555 0.007635 3.91978e-23)
(0.0701083 0.00852599 -1.35046e-21)
(0.0679543 0.00956071 1.30848e-21)
(0.0655644 0.010765 2.21532e-23)
(0.062905 0.0121662 -3.53595e-25)
(0.0599372 0.0137904 2.35989e-23)
(0.0566166 0.0156548 -1.61879e-21)
(0.052893 0.017757 3.27109e-21)
(0.0487113 0.0200548 -1.70449e-21)
(0.0440124 0.0224364 1.76009e-21)
(0.0387367 0.0246779 -1.84259e-21)
(0.0328291 0.0263827 -3.65759e-21)
(0.0262498 0.0269003 7.46169e-21)
(0.0190084 0.0252321 -3.77733e-21)
(0.0112762 0.0199448 0)
(0.0035056 0.00899988 -3.5543e-21)
(0.0941838 0.000919939 -8.67337e-24)
(0.0939768 0.000965633 -3.54466e-23)
(0.0937603 0.0010143 1.0748e-22)
(0.0935336 0.0010662 -1.45166e-22)
(0.0932961 0.00112163 6.39444e-23)
(0.093047 0.0011809 9.38208e-24)
(0.0927855 0.00124436 -9.54196e-24)
(0.0925109 0.00131241 -2.46182e-26)
(0.0922222 0.00138547 9.88397e-24)
(0.0919184 0.00146404 -2.01095e-23)
(0.0915983 0.00154864 -3.31058e-22)
(0.0912609 0.00163989 3.41667e-22)
(0.0909047 0.00173846 -3.3391e-22)
(0.0905283 0.00184511 3.44687e-22)
(0.0901301 0.00196071 0)
(0.0897085 0.00208623 -2.4782e-26)
(0.0892614 0.00222276 0)
(0.0887867 0.00237158 -3.72914e-22)
(0.0882821 0.0025341 3.97145e-22)
(0.087745 0.00271197 -1.24855e-23)
(0.0871725 0.00290708 -8.41905e-22)
(0.0865613 0.00312159 8.29478e-22)
(0.0859079 0.00335802 -1.34967e-23)
(0.0852081 0.00361928 0)
(0.0844576 0.00390878 0)
(0.0836513 0.00423049 -9.68086e-22)
(0.0827833 0.00458912 9.38674e-22)
(0.0818474 0.00499021 0)
(0.0808363 0.00544034 -3.22119e-23)
(0.0797418 0.0059474 0)
(0.0785546 0.00652081 1.72474e-23)
(0.0772643 0.00717193 -1.77714e-23)
(0.075859 0.00791448 -1.85086e-23)
(0.0743254 0.00876496 1.90702e-23)
(0.0726486 0.00974323 1.25448e-21)
(0.0708115 0.0108729 -1.29477e-21)
(0.0687955 0.0121813 2.81253e-21)
(0.0665793 0.0136993 -2.81432e-21)
(0.0641392 0.0154587 2.9842e-21)
(0.0614483 0.0174886 8.38438e-23)
(0.0584754 0.0198061 -3.1427e-21)
(0.0551828 0.0224019 -2.5071e-23)
(0.0515233 0.0252166 1.24319e-24)
(0.047434 0.0281048 1.64185e-24)
(0.0428268 0.0307845 2.16182e-24)
(0.0375711 0.0327681 -5.41408e-23)
(0.031474 0.033266 -2.48601e-23)
(0.0242915 0.0310505 -2.36613e-23)
(0.0157451 0.024342 0)
(0.00518108 0.0108409 7.2838e-24)
(0.0942284 0.00111827 -4.30415e-23)
(0.0940224 0.00117358 2.58911e-23)
(0.0938072 0.00123251 8.86367e-24)
(0.0935821 0.00129538 1.36126e-22)
(0.0933464 0.00136254 -1.36175e-22)
(0.0930994 0.00143438 1.40974e-22)
(0.0928403 0.00151134 -3.12974e-22)
(0.0925684 0.00159388 4.45744e-22)
(0.0922827 0.00168255 -3.12256e-22)
(0.0919822 0.00177792 -3.24125e-22)
(0.0916659 0.00188066 -1.63717e-23)
(0.0913326 0.0019915 6.58507e-22)
(0.0909811 0.00211127 -6.93838e-22)
(0.0906099 0.0022409 3.23663e-22)
(0.0902176 0.00238144 3.495e-22)
(0.0898025 0.00253407 3.65564e-22)
(0.0893627 0.00270015 -2.83468e-23)
(0.0888963 0.00288121 7.45043e-22)
(0.0884011 0.003079 7.6978e-22)
(0.0878746 0.00329552 1.96287e-23)
(0.087314 0.00353306 -8.16274e-22)
(0.0867165 0.00379428 0)
(0.0860787 0.00408224 0)
(0.0853969 0.00440049 -9.10624e-22)
(0.0846671 0.00475316 8.97544e-22)
(0.0838846 0.00514511 9.67108e-22)
(0.0830445 0.00558202 -9.6854e-22)
(0.0821411 0.0060706 0)
(0.0811682 0.00661879 1.08144e-21)
(0.0801188 0.00723605 -1.08352e-21)
(0.0789853 0.00793365 0)
(0.0777593 0.00872507 -2.34439e-21)
(0.0764316 0.00962644 2.36611e-21)
(0.0749924 0.010657 -1.95514e-23)
(0.0734311 0.0118395 -2.61399e-21)
(0.0717369 0.0132007 2.63825e-21)
(0.0698985 0.0147709 0)
(0.0679047 0.0165829 2.9577e-21)
(0.0657441 0.0186694 -2.93945e-21)
(0.0634047 0.0210572 2.37965e-23)
(0.0608716 0.0237564 3.23778e-21)
(0.0581236 0.0267434 -6.49356e-21)
(0.0551247 0.0299336 2.08572e-23)
(0.0518113 0.0331425 3.76371e-23)
(0.0480676 0.0360326 3.36345e-21)
(0.0436853 0.0380451 3.72292e-24)
(0.0383019 0.0383004 -2.89171e-21)
(0.0313491 0.0354381 2.96445e-21)
(0.0218725 0.0274894 0)
(0.00752669 0.0120367 2.6645e-23)
(0.0942814 0.0013128 8.47548e-24)
(0.0940771 0.00137718 7.81149e-23)
(0.0938638 0.00144587 -6.96629e-23)
(0.0936409 0.0015192 8.94748e-24)
(0.0934077 0.00159762 1.37602e-22)
(0.0931636 0.00168157 -1.37817e-22)
(0.0929078 0.00177157 -2.95455e-22)
(0.0926395 0.00186816 4.32347e-24)
(0.0923578 0.00197199 -5.59305e-24)
(0.0920618 0.00208374 3.28344e-22)
(0.0917505 0.00220419 -3.20914e-22)
(0.0914228 0.00233422 6.81074e-22)
(0.0910774 0.00247481 -3.39415e-22)
(0.0907131 0.00262707 1.09761e-23)
(0.0903285 0.00279224 1.12355e-23)
(0.0899221 0.00297173 7.43491e-22)
(0.089492 0.00316716 -5.05997e-24)
(0.0890365 0.00338036 7.76308e-22)
(0.0885536 0.0036134 1.24127e-23)
(0.0880411 0.00386867 0)
(0.0874964 0.00414892 0)
(0.0869169 0.0044573 -8.72236e-22)
(0.0862997 0.00479746 8.7444e-22)
(0.0856416 0.00517363 0)
(0.0849391 0.00559076 1.47178e-23)
(0.0841882 0.00605459 0)
(0.0833848 0.00657189 -1.01663e-21)
(0.0825242 0.00715062 2.06981e-21)
(0.0816015 0.00780016 -1.05326e-21)
(0.0806113 0.00853164 -2.23194e-21)
(0.079548 0.00935825 -7.46112e-23)
(0.0784057 0.0102956 -7.86e-23)
(0.0771784 0.0113623 -8.24727e-23)
(0.0758603 0.0125801 2.50803e-21)
(0.074446 0.0139743 2.68922e-21)
(0.0729314 0.0155736 -2.69562e-21)
(0.0713135 0.0174095 0)
(0.0695919 0.0195137 2.97865e-21)
(0.0677684 0.0219144 -2.98558e-21)
(0.0658464 0.0246275 -3.16631e-21)
(0.0638292 0.0276438 3.14887e-21)
(0.0617133 0.0309076 2.5718e-23)
(0.0594777 0.0342873 3.15901e-21)
(0.0570638 0.0375353 -1.0396e-22)
(0.0543414 0.0402392 -3.12017e-21)
(0.0510487 0.0417727 2.38149e-23)
(0.0467047 0.0412329 0)
(0.0404995 0.0373183 -1.90402e-23)
(0.0306556 0.0282622 -9.29053e-22)
(0.0121175 0.0119693 4.13608e-22)
(-0.000201708 0.000275015 0)
(-0.000884647 0.00052833 3.17195e-22)
(-0.00191205 0.000596019 -3.17672e-22)
(-0.00296415 0.000561819 -3.17244e-22)
(-0.0038875 0.000471825 3.17721e-22)
(-0.00461978 0.00035334 -9.81309e-24)
(-0.00513009 0.000222824 0)
(-0.00540484 8.987e-05 0)
(-0.00544367 -3.99798e-05 0)
(-0.00525628 -0.000165297 0)
(-0.00485323 -0.000284158 0)
(-0.00424384 -0.000395782 0)
(-0.00343977 -0.00049986 0)
(-0.00245331 -0.000596627 0)
(-0.00129637 -0.00068624 0)
(1.93409e-05 -0.000768896 1.10409e-22)
(0.00148224 -0.000844721 -1.03831e-22)
(0.00308092 -0.000913963 0)
(0.00480429 -0.000976798 0)
(0.00664143 -0.0010334 -8.64364e-23)
(0.00858164 -0.00108391 8.65684e-23)
(0.0106145 -0.00112845 -6.95755e-23)
(0.0127293 -0.00116709 4.49145e-24)
(0.0149157 -0.00119993 0)
(0.0171636 -0.00122711 3.77046e-24)
(0.0194629 -0.00124885 0)
(0.021804 -0.00126538 0)
(0.0241774 -0.00127689 0)
(0.0265743 -0.00128362 2.46112e-24)
(0.0289858 -0.00128579 0)
(0.0314037 -0.00128364 -1.89185e-24)
(0.03382 -0.0012774 1.6313e-24)
(0.036227 -0.00126733 -1.38734e-24)
(0.0386178 -0.00125369 9.49196e-24)
(0.0409854 -0.00123672 -9.29444e-24)
(0.0433238 -0.0012167 -4.48932e-24)
(0.045627 -0.0011939 8.57191e-24)
(0.0478897 -0.00116857 -3.90313e-24)
(0.0501071 -0.00114099 -2.71266e-25)
(0.0522749 -0.00111142 1.40199e-25)
(0.0543891 -0.00108013 0)
(0.0564463 -0.00104738 -8.0099e-26)
(0.0584437 -0.00101341 1.03786e-24)
(0.0603787 -0.000978473 -1.11812e-24)
(0.0622495 -0.000942805 3.17657e-25)
(0.0640544 -0.000906632 -1.18421e-24)
(0.0657923 -0.000870164 3.86321e-25)
(0.0674625 -0.000833597 9.47311e-25)
(0.0690647 -0.000797093 -4.84424e-25)
(0.0705988 -0.000760782 5.21052e-25)
(-0.000263291 0.000790901 -1.20201e-21)
(-0.000989972 0.0015147 -1.31401e-21)
(-0.00193247 0.00170876 1.29528e-21)
(-0.00284866 0.00160921 -6.23462e-22)
(-0.00362333 0.00134761 6.24497e-22)
(-0.00421103 0.00100302 9.88119e-24)
(-0.00458962 0.000622778 -1.96072e-23)
(-0.00474899 0.000234591 -6.2372e-22)
(-0.00469093 -0.000145096 6.05306e-22)
(-0.00442415 -0.000512075 -1.82719e-23)
(-0.0039564 -0.000860783 -1.77239e-23)
(-0.00329583 -0.00118931 5.35052e-22)
(-0.00245276 -0.00149582 -5.35764e-22)
(-0.00143815 -0.00178133 -4.92604e-22)
(-0.000262402 -0.00204615 2.32392e-23)
(0.00106405 -0.00229058 4.70646e-22)
(0.00253065 -0.00251521 -6.77854e-24)
(0.00412683 -0.00272056 -1.29387e-23)
(0.00584239 -0.00290707 0)
(0.00766712 -0.00307519 0)
(0.00959096 -0.00322536 0)
(0.0116039 -0.0033579 -4.88216e-24)
(0.0136961 -0.00347305 2.64287e-22)
(0.0158573 -0.00357103 -2.86712e-22)
(0.018078 -0.00365233 2.28311e-22)
(0.0203485 -0.00371751 -1.27315e-22)
(0.0226594 -0.00376725 -1.99761e-22)
(0.0250017 -0.00380215 9.46567e-23)
(0.0273666 -0.00382285 -2.46746e-24)
(0.0297457 -0.00382999 -4.44439e-24)
(0.0321309 -0.00382426 1.89598e-24)
(0.0345145 -0.00380635 -4.99084e-24)
(0.0368889 -0.003777 3.97616e-23)
(0.0392473 -0.00373696 -7.66442e-23)
(0.0415831 -0.003687 3.32148e-23)
(0.04389 -0.00362789 -2.33904e-24)
(0.0461626 -0.00356043 5.79174e-25)
(0.0483954 -0.00348541 0)
(0.0505837 -0.00340363 -3.76267e-24)
(0.0527232 -0.00331589 3.30011e-24)
(0.0548102 -0.00322296 -4.24083e-25)
(0.0568412 -0.00312563 5.26051e-25)
(0.0588134 -0.00302463 -1.70814e-25)
(0.0607243 -0.00292071 -1.50679e-24)
(0.062572 -0.00281457 2.50369e-24)
(0.064355 -0.00270688 3.75059e-25)
(0.0660721 -0.00259828 2.99322e-24)
(0.0677225 -0.00248935 5.78765e-25)
(0.069306 -0.00238056 -8.93604e-25)
(0.0708223 -0.00227229 -1.52815e-24)
(-0.000370752 0.00120976 -1.24294e-21)
(-0.00116305 0.00229231 1.36454e-21)
(-0.00192491 0.00259044 -1.3238e-21)
(-0.00257196 0.00243491 -2.06706e-23)
(-0.00305798 0.00202685 -3.23626e-25)
(-0.00336786 0.00148879 -1.26842e-21)
(-0.00349538 0.000892786 1.31002e-21)
(-0.0034355 0.000281621 1.25614e-21)
(-0.00319352 -0.000318878 -1.31906e-23)
(-0.00277684 -0.000901597 -2.35904e-21)
(-0.0021882 -0.00145752 2.32355e-21)
(-0.00143218 -0.00198464 -1.11709e-21)
(-0.000516396 -0.00247702 -1.68944e-23)
(0.000549893 -0.00293735 0)
(0.00175975 -0.00336574 9.7664e-22)
(0.00310488 -0.00376241 -6.29976e-23)
(0.0045766 -0.00412803 -9.00661e-22)
(0.00616634 -0.00446306 2.63345e-23)
(0.00786538 -0.00476806 0)
(0.00966487 -0.00504362 0)
(0.0115559 -0.00529032 3.33888e-22)
(0.0135297 -0.0055086 -3.24029e-22)
(0.0155771 -0.00569873 -2.76036e-22)
(0.0176891 -0.0058611 2.93981e-22)
(0.0198565 -0.00599622 7.92706e-24)
(0.0220707 -0.00610513 -7.2142e-24)
(0.0243229 -0.00618876 6.52476e-24)
(0.0266044 -0.00624811 -1.68282e-22)
(0.0289073 -0.00628417 1.74308e-22)
(0.0312235 -0.00629795 -1.26705e-22)
(0.0335453 -0.00629054 1.35922e-22)
(0.0358653 -0.00626305 3.36954e-24)
(0.0381765 -0.00621667 8.6021e-23)
(0.0404723 -0.0061526 -1.55496e-22)
(0.0427462 -0.00607208 7.38433e-23)
(0.0449925 -0.00597639 2.47595e-23)
(0.0472055 -0.00586683 -2.1867e-23)
(0.0493803 -0.00574469 0)
(0.0515123 -0.00561128 -9.02719e-26)
(0.0535972 -0.00546791 0)
(0.0556314 -0.00531587 2.38635e-25)
(0.0576116 -0.00515643 -4.32652e-25)
(0.0595349 -0.00499083 -2.33972e-25)
(0.0613991 -0.00482029 -6.14657e-26)
(0.0632021 -0.00464596 -5.14257e-24)
(0.0649425 -0.00446897 1.03906e-23)
(0.0666191 -0.00429036 -6.01817e-24)
(0.0682311 -0.00411109 3.60539e-24)
(0.0697782 -0.00393196 -2.63022e-24)
(0.0712601 -0.0037535 -9.69024e-25)
(-0.000495889 0.00145273 -2.66981e-21)
(-0.00132258 0.00274284 0)
(-0.00178147 0.00311541 2.78331e-21)
(-0.00203574 0.00291701 -5.57184e-21)
(-0.0021116 0.00240322 2.80967e-21)
(-0.00203381 0.00172433 1.29394e-21)
(-0.00181573 0.000968832 -1.35753e-21)
(-0.00145655 0.000191396 1.27788e-21)
(-0.000964684 -0.00058901 -2.54293e-21)
(-0.000345444 -0.00135053 1.24543e-21)
(0.00040397 -0.00208087 1.87489e-23)
(0.00128655 -0.0027739 2.68182e-25)
(0.00229878 -0.00342759 1.71851e-23)
(0.0034316 -0.0040423 -1.05638e-21)
(0.00468358 -0.00461677 1.02424e-21)
(0.00604977 -0.0051511 3.03025e-23)
(0.00752428 -0.00564549 -1.42445e-23)
(0.00910089 -0.00610023 8.44382e-22)
(0.010773 -0.00651572 -8.44409e-22)
(0.0125336 -0.00689243 -1.21558e-23)
(0.0143756 -0.00723085 0)
(0.0162915 -0.00753141 2.72316e-25)
(0.0182735 -0.00779436 0)
(0.0203138 -0.00801985 9.01445e-24)
(0.0224045 -0.00820863 2.54667e-25)
(0.0245375 -0.00836169 7.28251e-24)
(0.0267052 -0.00848042 -4.1286e-22)
(0.0288999 -0.00856603 4.06651e-22)
(0.031114 -0.00861976 0)
(0.0333403 -0.00864293 -1.42347e-22)
(0.0355717 -0.00863694 1.46884e-22)
(0.0378012 -0.00860328 0)
(0.0400224 -0.0085435 -1.80098e-25)
(0.042229 -0.00845921 -7.93132e-23)
(0.0444149 -0.00835211 1.42181e-22)
(0.0465747 -0.0082239 -1.13726e-22)
(0.0487032 -0.00807635 8.9873e-23)
(0.0507955 -0.00791123 -6.78805e-23)
(0.0528472 -0.00773034 2.86229e-23)
(0.0548544 -0.00753546 5.4757e-24)
(0.0568134 -0.00732836 -5.02728e-24)
(0.0587212 -0.0071108 -5.38738e-26)
(0.060575 -0.00688449 4.54744e-24)
(0.0623725 -0.00665111 -1.21398e-23)
(0.0641118 -0.00641228 6.89182e-24)
(0.0657914 -0.00616954 7.08241e-26)
(0.0674101 -0.00592435 -7.65266e-25)
(0.0689672 -0.00567803 -5.97239e-26)
(0.0704622 -0.00543168 9.18489e-25)
(0.0718949 -0.00518593 -1.8957e-24)
(-0.000553194 0.00144914 -1.49311e-24)
(-0.00128631 0.002793 -2.47819e-23)
(-0.00132458 0.00319972 -2.40799e-23)
(-0.00108071 0.00298298 -2.3452e-23)
(-0.000655703 0.00241884 -4.52269e-23)
(-0.000116204 0.00166421 -4.49682e-25)
(0.000508957 0.00081675 2.1445e-23)
(0.0012054 -6.82251e-05 -2.13027e-23)
(0.00197382 -0.000972301 -2.07345e-23)