/*--------------------------------*- C++ -*----------------------------------*\
| =========                 |                                                 |
| \\      /  F ield         | OpenFOAM: The Open Source CFD Toolbox           |
|  \\    /   O peration     | Version:  2412                                  |
|   \\  /    A nd           | Website:  www.openfoam.com                      |
|    \\/     M anipulation  |                                                 |
\*---------------------------------------------------------------------------*/
FoamFile
{
    version     2.0;
    format      ascii;
    arch        "LSB;label=32;scalar=64";
    class       volVectorField;
    location    "27";
    object      vorticity;
}
// * * * * * * * * * * * * * * * * * * * * * * * * * * * * * * * * * * * * * //

dimensions      [0 0 -1 0 0 0 0];

internalField   nonuniform List<vector> 
63420
(
(0 0 5.95161e-06)
(0 0 5.92545e-06)
(0 0 5.90102e-06)
(0 0 5.87847e-06)
(0 0 5.85535e-06)
(0 0 5.82707e-06)
(0 0 5.79703e-06)
(0 0 5.79499e-06)
(0 0 5.89108e-06)
(0 0 6.18863e-06)
(0 0 6.78862e-06)
(0 0 7.7365e-06)
(0 0 8.97564e-06)
(0 0 1.03319e-05)
(0 0 1.15401e-05)
(0 0 1.23045e-05)
(0 0 1.23719e-05)
(0 0 1.15938e-05)
(0 0 9.9589e-06)
(0 0 7.58974e-06)
(0 0 4.71133e-06)
(0 0 1.60223e-06)
(0 0 -1.45646e-06)
(0 0 -4.22314e-06)
(0 0 -6.5224e-06)
(0 0 -8.25516e-06)
(0 0 -9.39474e-06)
(0 0 -9.97354e-06)
(0 0 -1.00652e-05)
(0 0 -9.7664e-06)
(0 0 -9.18085e-06)
(0 0 -8.40751e-06)
(0 0 -7.53275e-06)
(0 0 -6.62642e-06)
(0 0 -5.74092e-06)
(0 0 -4.91228e-06)
(0 0 -4.16249e-06)
(0 0 -3.50231e-06)
(0 0 -2.93413e-06)
(0 0 -2.45455e-06)
(0 0 -2.05651e-06)
(0 0 -1.73104e-06)
(0 0 -1.46839e-06)
(0 0 -1.25896e-06)
(0 0 -1.09376e-06)
(0 0 -9.64743e-07)
(0 0 -8.64815e-07)
(0 0 -7.87655e-07)
(0 0 -7.26864e-07)
(0 0 -6.73143e-07)
(0 0 -6.05009e-07)
(0 0 -4.59013e-07)
(0 0 -3.69484e-08)
(0 0 1.27482e-06)
(0 4.4011e-23 5.32011e-06)
(0 0 1.78547e-05)
(0 0 1.7776e-05)
(0 0 1.77021e-05)
(0 0 1.76336e-05)
(0 0 1.75636e-05)
(0 0 1.74788e-05)
(0 0 1.7389e-05)
(0 0 1.73832e-05)
(0 0 1.76706e-05)
(0 0 1.85599e-05)
(0 0 2.03533e-05)
(0 0 2.31871e-05)
(0 0 2.68935e-05)
(0 0 3.09536e-05)
(0 0 3.45759e-05)
(0 0 3.68769e-05)
(0 0 3.71003e-05)
(0 0 3.48008e-05)
(0 0 2.99418e-05)
(0 0 2.28873e-05)
(0 0 1.4307e-05)
(0 0 5.03124e-06)
(0 0 -4.10149e-06)
(0 0 -1.23698e-05)
(0 0 -1.92493e-05)
(0 0 -2.44428e-05)
(0 0 -2.78691e-05)
(0 0 -2.96234e-05)
(0 0 -2.99241e-05)
(0 0 -2.90585e-05)
(0 0 -2.73352e-05)
(0 0 -2.50489e-05)
(0 0 -2.24572e-05)
(0 0 -1.97683e-05)
(0 0 -1.71388e-05)
(0 0 -1.46763e-05)
(0 0 -1.24468e-05)
(0 0 -1.04827e-05)
(0 0 -8.79137e-06)
(0 0 -7.36305e-06)
(0 0 -6.17699e-06)
(0 0 -5.20655e-06)
(0 0 -4.4229e-06)
(0 0 -3.79748e-06)
(0 0 -3.30362e-06)
(0 0 -2.91735e-06)
(0 0 -2.61758e-06)
(0 0 -2.38552e-06)
(0 0 -2.20224e-06)
(0 0 -2.04044e-06)
(0 0 -1.83762e-06)
(0 0 -1.40952e-06)
(0 0 -1.802e-07)
(0 0 3.63512e-06)
(0 4.4481e-23 1.54093e-05)
(0 0 2.97456e-05)
(0 0 2.96144e-05)
(0 0 2.94908e-05)
(0 0 2.93763e-05)
(0 0 2.92596e-05)
(0 0 2.91184e-05)
(0 0 2.89692e-05)
(0 0 2.89589e-05)
(0 0 2.94349e-05)
(0 0 3.091e-05)
(0 0 3.38873e-05)
(0 0 3.85965e-05)
(0 0 4.47634e-05)
(0 0 5.1531e-05)
(0 0 5.75885e-05)
(0 0 6.14698e-05)
(0 0 6.19166e-05)
(0 0 5.81844e-05)
(0 0 5.02049e-05)
(0 0 3.85743e-05)
(0 0 2.43973e-05)
(0 0 9.04668e-06)
(0 0 -6.08861e-06)
(0 0 -1.98115e-05)
(0 0 -3.12496e-05)
(0 0 -3.99065e-05)
(0 0 -4.56431e-05)
(0 0 -4.86131e-05)
(0 0 -4.91746e-05)
(0 0 -4.78007e-05)
(0 0 -4.5001e-05)
(0 0 -4.12627e-05)
(0 0 -3.70117e-05)
(0 0 -3.25933e-05)
(0 0 -2.8267e-05)
(0 0 -2.4212e-05)
(0 0 -2.0538e-05)
(0 0 -1.72996e-05)
(0 0 -1.45097e-05)
(0 0 -1.21528e-05)
(0 0 -1.01949e-05)
(0 0 -8.59253e-06)
(0 0 -7.29823e-06)
(0 0 -6.26504e-06)
(0 0 -5.44906e-06)
(0 0 -4.81078e-06)
(0 0 -4.31545e-06)
(0 0 -3.93218e-06)
(0 0 -3.63014e-06)
(0 0 -3.36585e-06)
(0 0 -3.04147e-06)
(0 0 -2.37018e-06)
(0 0 -4.54255e-07)
(0 0 5.49752e-06)
(0 2.62439e-22 2.39214e-05)
(0 0 4.16161e-05)
(0 0 4.14324e-05)
(0 0 4.12591e-05)
(0 0 4.10985e-05)
(0 0 4.09352e-05)
(0 0 4.0738e-05)
(0 0 4.05296e-05)
(0 0 4.05139e-05)
(0 0 4.1174e-05)
(0 0 4.32249e-05)
(0 0 4.73708e-05)
(0 0 5.39384e-05)
(0 0 6.25549e-05)
(0 0 7.20361e-05)
(0 0 8.05631e-05)
(0 0 8.60955e-05)
(0 0 8.68754e-05)
(0 0 8.18548e-05)
(0 0 7.0923e-05)
(0 0 5.48941e-05)
(0 0 3.52912e-05)
(0 0 1.40149e-05)
(0 0 -7.00656e-06)
(0 0 -2.61072e-05)
(0 0 -4.20688e-05)
(0 0 -5.41933e-05)
(0 0 -6.22784e-05)
(0 0 -6.6529e-05)
(0 0 -6.74352e-05)
(0 0 -6.56483e-05)
(0 0 -6.18721e-05)
(0 0 -5.67806e-05)
(0 0 -5.09644e-05)
(0 0 -4.49028e-05)
(0 0 -3.89569e-05)
(0 0 -3.33766e-05)
(0 0 -2.83158e-05)
(0 0 -2.38516e-05)
(0 0 -2.00034e-05)
(0 0 -1.67506e-05)
(0 0 -1.40477e-05)
(0 0 -1.18347e-05)
(0 0 -1.00469e-05)
(0 0 -8.61972e-06)
(0 0 -7.49262e-06)
(0 0 -6.61119e-06)
(0 0 -5.92758e-06)
(0 0 -5.39939e-06)
(0 0 -4.98492e-06)
(0 0 -4.62732e-06)
(0 0 -4.20254e-06)
(0 0 -3.35081e-06)
(0 0 -9.44232e-07)
(0 0 6.54612e-06)
(0 -1.72276e-22 2.98669e-05)
(0 0 5.34588e-05)
(0 0 5.3222e-05)
(0 0 5.29986e-05)
(0 0 5.2792e-05)
(0 0 5.25822e-05)
(0 0 5.23295e-05)
(0 0 5.20624e-05)
(0 0 5.20401e-05)
(0 0 5.28783e-05)
(0 0 5.54916e-05)
(0 0 6.07851e-05)
(0 0 6.91876e-05)
(0 0 8.0238e-05)
(0 0 9.24396e-05)
(0 0 0.000103481)
(0 0 0.000110758)
(0 0 0.000112016)
(0 0 0.0001059)
(0 0 9.22411e-05)
(0 0 7.20522e-05)
(0 0 4.72531e-05)
(0 0 2.02523e-05)
(0 0 -6.49803e-06)
(0 0 -3.08721e-05)
(0 0 -5.13086e-05)
(0 0 -6.69049e-05)
(0 0 -7.73886e-05)
(0 0 -8.3006e-05)
(0 0 -8.43687e-05)
(0 0 -8.22959e-05)
(0 0 -7.76766e-05)
(0 0 -7.13641e-05)
(0 0 -6.41083e-05)
(0 0 -5.65189e-05)
(0 0 -4.90565e-05)
(0 0 -4.20409e-05)
(0 0 -3.56701e-05)
(0 0 -3.00444e-05)
(0 0 -2.5191e-05)
(0 0 -2.1086e-05)
(0 0 -1.76728e-05)
(0 0 -1.48772e-05)
(0 0 -1.26179e-05)
(0 0 -1.08139e-05)
(0 0 -9.38913e-06)
(0 0 -8.27501e-06)
(0 0 -7.41131e-06)
(0 0 -6.74489e-06)
(0 0 -6.22446e-06)
(0 0 -5.78333e-06)
(0 0 -5.28299e-06)
(0 0 -4.32993e-06)
(0 0 -1.69131e-06)
(0 0 6.5276e-06)
(0 8.50444e-23 3.23629e-05)
(0 0 6.52672e-05)
(0 0 6.49749e-05)
(0 0 6.47011e-05)
(0 0 6.44483e-05)
(0 0 6.41924e-05)
(0 0 6.3885e-05)
(0 0 6.35598e-05)
(0 0 6.35292e-05)
(0 0 6.45382e-05)
(0 0 6.76975e-05)
(0 0 7.41129e-05)
(0 0 8.43209e-05)
(0 0 9.77853e-05)
(0 0 0.000112715)
(0 0 0.000126323)
(0 0 0.000135457)
(0 0 0.000137371)
(0 0 0.000130392)
(0 0 0.00011428)
(0 0 9.02208e-05)
(0 0 6.05054e-05)
(0 0 2.80257e-05)
(0 0 -4.26113e-06)
(0 0 -3.37807e-05)
(0 0 -5.8632e-05)
(0 0 -7.77043e-05)
(0 0 -9.06467e-05)
(0 0 -9.77351e-05)
(0 0 -9.96896e-05)
(0 0 -9.74849e-05)
(0 0 -9.2184e-05)
(0 0 -8.4811e-05)
(0 0 -7.6268e-05)
(0 0 -6.72907e-05)
(0 0 -5.84367e-05)
(0 0 -5.00945e-05)
(0 0 -4.25064e-05)
(0 0 -3.57971e-05)
(0 0 -3.00026e-05)
(0 0 -2.50972e-05)
(0 0 -2.10155e-05)
(0 0 -1.76702e-05)
(0 0 -1.49653e-05)
(0 0 -1.28045e-05)
(0 0 -1.10973e-05)
(0 0 -9.76206e-06)
(0 0 -8.72704e-06)
(0 0 -7.9292e-06)
(0 0 -7.3091e-06)
(0 0 -6.79402e-06)
(0 0 -6.24389e-06)
(0 0 -5.27724e-06)
(0 0 -2.71179e-06)
(0 0 5.22698e-06)
(0 4.19627e-22 3.05732e-05)
(0 0 7.70324e-05)
(0 0 7.66821e-05)
(0 0 7.63579e-05)
(0 0 7.60593e-05)
(0 0 7.57578e-05)
(0 0 7.53965e-05)
(0 0 7.5014e-05)
(0 0 7.49733e-05)
(0 0 7.61447e-05)
(0 0 7.9831e-05)
(0 0 8.73384e-05)
(0 0 9.93174e-05)
(0 0 0.000115171)
(0 0 0.000132835)
(0 0 0.000149068)
(0 0 0.000160184)
(0 0 0.000162953)
(0 0 0.000155376)
(0 0 0.000137123)
(0 0 0.000109525)
(0 0 7.52138e-05)
(0 0 3.75371e-05)
(0 0 -6.44506e-08)
(0 0 -3.4581e-05)
(0 0 -6.37758e-05)
(0 0 -8.63266e-05)
(0 0 -0.000101794)
(0 0 -0.00011047)
(0 0 -0.00011317)
(0 0 -0.000111008)
(0 0 -0.000105209)
(0 0 -9.69584e-05)
(0 0 -8.73018e-05)
(0 0 -7.70964e-05)
(0 0 -6.69933e-05)
(0 0 -5.74487e-05)
(0 0 -4.87494e-05)
(0 0 -4.10453e-05)
(0 0 -3.43829e-05)
(0 0 -2.87366e-05)
(0 0 -2.40341e-05)
(0 0 -2.0177e-05)
(0 0 -1.70559e-05)
(0 0 -1.45611e-05)
(0 0 -1.2589e-05)
(0 0 -1.1046e-05)
(0 0 -9.84972e-06)
(0 0 -8.92823e-06)
(0 0 -8.21529e-06)
(0 0 -7.63557e-06)
(0 0 -7.05932e-06)
(0 0 -6.16195e-06)
(0 0 -3.98669e-06)
(0 0 2.47625e-06)
(0 -8.20826e-23 2.35555e-05)
(-1.77994e-23 7.92168e-21 3.30357e-06)
(-1.44361e-22 7.78872e-21 2.65201e-06)
(3.15163e-23 -1.93061e-22 1.77598e-06)
(3.92871e-23 -2.32477e-20 6.31686e-07)
(-9.01346e-23 7.94015e-21 -8.16727e-07)
(3.53098e-22 7.79818e-21 -2.59786e-06)
(-7.76372e-22 2.27355e-20 -4.73525e-06)
(3.0531e-22 -2.30986e-20 -7.24955e-06)
(6.13957e-22 -7.43304e-21 -1.01607e-05)
(-8.75529e-22 -3.65676e-24 -1.34898e-05)
(-8.74077e-22 -7.44473e-21 -1.72601e-05)
(7.65414e-22 7.07418e-21 -2.14984e-05)
(5.59016e-22 -5.82458e-20 -2.62358e-05)
(-1.03456e-21 1.25018e-19 -3.15081e-05)
(3.58871e-22 -6.72383e-20 -3.7355e-05)
(-1.19727e-21 -5.06879e-20 -4.38319e-05)
(2.31474e-21 -6.4548e-20 -5.09839e-05)
(-1.81277e-21 7.60053e-21 -5.89028e-05)
(-1.83001e-22 -7.09367e-21 -6.76348e-05)
(6.91185e-23 7.0967e-21 -7.72861e-05)
(-3.07092e-24 -1.25604e-22 -8.7941e-05)
(-6.40648e-23 -6.84346e-21 -9.97148e-05)
(-1.96517e-21 6.90062e-21 -0.000112739)
(4.1066e-21 1.26255e-23 -0.000127164)
(1.19621e-21 6.69688e-21 -0.000143166)
(-3.19968e-21 -5.1935e-24 -0.000160951)
(4.60179e-21 7.76713e-21 -0.000180761)
(-5.41895e-21 1.00823e-19 -0.000202891)
(6.92442e-22 -1.08259e-19 -0.000227705)
(-2.10339e-21 9.8823e-20 -0.000255675)
(2.04952e-21 -9.99383e-20 -0.000287433)
(4.73581e-23 1.30955e-21 -0.000323885)
(-6.15782e-23 -1.60607e-21 -0.000366394)
(2.73823e-21 -9.44205e-20 -0.000417122)
(-8.4647e-21 9.16239e-20 -0.000479633)
(-3.05085e-22 -1.50964e-21 -0.000559939)
(6.04531e-21 1.32217e-23 -0.000668286)
(6.56458e-21 1.43574e-23 -0.000822083)
(-6.54357e-21 -1.43114e-23 -0.0010505)
(-2.16708e-22 -4.73961e-25 -0.00140137)
(-2.25777e-22 -4.93797e-25 -0.00195076)
(-7.76083e-21 -1.69737e-23 -0.00281539)
(7.49133e-21 1.63843e-23 -0.00416651)
(-2.47042e-22 1.4685e-22 -0.0062427)
(-3.48648e-23 7.59424e-21 -0.00935594)
(-2.39327e-20 4.90837e-20 -0.0138832)
(2.30524e-20 -6.46955e-20 -0.0202316)
(-5.40829e-21 -9.14119e-21 -0.0287649)
(5.94355e-21 2.50827e-20 -0.0396865)
(-1.97211e-20 -5.50545e-21 -0.0528019)
(-2.54524e-22 7.93176e-21 9.72715e-06)
(-1.05713e-22 1.56023e-20 7.70682e-06)
(2.91463e-22 7.58688e-21 4.95626e-06)
(-8.48279e-22 -7.80161e-21 1.34817e-06)
(1.57644e-21 7.44238e-21 -3.21931e-06)
(-4.75164e-22 -5.32693e-20 -8.82578e-06)
(-2.36102e-22 8.45732e-20 -1.55367e-05)
(-5.40874e-23 -8.79166e-21 -2.34116e-05)
(2.14845e-21 -9.73691e-20 -3.25107e-05)
(-2.24532e-21 1.37442e-19 -4.28991e-05)
(-8.4554e-22 1.25587e-19 -5.46514e-05)
(6.2714e-22 -1.12958e-19 -6.78539e-05)
(-3.83183e-22 7.18052e-22 -8.26064e-05)
(2.73527e-21 -7.19362e-21 -9.9024e-05)
(-2.13737e-21 2.38909e-20 -0.000117243)
(-5.91691e-21 2.37461e-19 -0.00013742)
(1.67287e-21 -2.23251e-19 -0.000159771)
(-5.54564e-21 2.39233e-19 -0.000184455)
(-2.98422e-22 1.93769e-20 -0.000211749)
(-3.74588e-21 -7.25235e-21 -0.00024189)
(3.96169e-21 1.41733e-22 -0.000275206)
(-3.97671e-21 8.99071e-21 -0.000312067)
(8.9446e-22 2.07572e-19 -0.000352888)
(5.99562e-21 -4.39379e-19 -0.000398153)
(4.5297e-21 -2.09816e-19 -0.000448421)
(-7.07401e-21 4.24801e-19 -0.000504347)
(3.81792e-21 -4.23331e-19 -0.000566707)
(-2.19165e-21 4.34332e-19 -0.000636437)
(3.20622e-21 1.46264e-21 -0.000714691)
(-3.63432e-21 -9.52412e-23 -0.000802951)
(-1.22091e-21 -2.67026e-24 -0.000903202)
(0 0 -0.00101826)
(1.80351e-22 9.35746e-23 -0.00115232)
(1.07731e-20 1.20944e-20 -0.00131202)
(-1.57704e-20 3.53468e-19 -0.00150825)
(-1.53907e-20 -2.39138e-20 -0.00175933)
(1.85461e-20 -3.48417e-19 -0.00209643)
(2.633e-20 -3.0068e-19 -0.00257244)
(-9.59237e-21 3.21175e-19 -0.00327594)
(-3.03584e-20 2.13314e-21 -0.004352)
(2.95802e-20 1.68812e-20 -0.00603122)
(-4.1395e-20 2.28288e-19 -0.00866691)
(2.25593e-20 -2.37453e-19 -0.0127771)
(-1.74914e-20 1.42595e-20 -0.0190826)
(1.93728e-20 7.48229e-21 -0.0285257)
(-5.81925e-20 1.09837e-19 -0.0422436)
(5.81111e-20 -1.07518e-19 -0.0614615)
(-8.89257e-20 8.00892e-20 -0.0872538)
(8.58139e-20 -8.94596e-20 -0.120161)
(-1.82209e-20 -6.11604e-22 -0.158266)
(-6.02466e-23 4.70018e-20 1.56073e-05)
(-8.9196e-23 1.48629e-20 1.19744e-05)
(3.90257e-22 -6.15693e-20 6.93197e-06)
(-8.36542e-22 1.22452e-19 2.83489e-07)
(1.83819e-21 -2.62088e-19 -8.1126e-06)
(3.24873e-22 1.24598e-19 -1.83646e-05)
(-2.39457e-21 -8.49297e-22 -3.05668e-05)
(1.5359e-21 -1.69094e-20 -4.48135e-05)
(1.55886e-21 -2.55624e-19 -6.12086e-05)
(6.18581e-22 2.43539e-19 -7.98716e-05)
(-8.38592e-22 -1.59128e-21 -0.000100943)
(-4.12706e-21 -1.53558e-23 -0.000124585)
(6.54272e-21 -1.81275e-21 -0.000150991)
(-3.74613e-21 -2.49157e-19 -0.00018038)
(4.94894e-21 2.26371e-19 -0.000213007)
(-1.14628e-20 4.49772e-19 -0.000249191)
(-4.73011e-21 -1.19023e-20 -0.000289278)
(-4.91185e-21 4.62682e-19 -0.000333671)
(4.09218e-22 -1.40414e-20 -0.000382776)
(-1.24743e-20 4.49097e-19 -0.00043712)
(1.24062e-20 -4.66386e-19 -0.000497301)
(-9.35665e-21 4.45207e-19 -0.000564014)
(2.69978e-21 -4.63045e-19 -0.000638045)
(5.15194e-21 -9.26151e-21 -0.000720303)
(-2.56577e-21 1.35634e-20 -0.000811842)
(5.4661e-21 -8.76196e-21 -0.000913894)
(-1.89959e-20 4.16879e-19 -0.00102791)
(1.71331e-20 -4.4425e-19 -0.00115565)
(1.86658e-20 -4.12608e-19 -0.00129924)
(-1.53916e-20 4.14453e-19 -0.0014614)
(-1.06552e-21 -5.0875e-21 -0.00164573)
(1.10223e-20 -1.19264e-22 -0.00185725)
(-1.25892e-20 -2.43897e-20 -0.00210337)
(5.36476e-20 -7.51845e-19 -0.00239563)
(1.63346e-20 5.58125e-20 -0.00275281)
(-7.02734e-20 7.07639e-19 -0.00320635)
(3.88203e-21 -1.21246e-20 -0.00380953)
(-1.12486e-20 -4.73894e-21 -0.00465258)
(1.09516e-19 -5.92557e-19 -0.00588643)
(-2.03794e-19 1.1633e-18 -0.00775794)
(2.07713e-19 -1.15489e-18 -0.010659)
(6.95851e-20 8.38041e-20 -0.0151891)
(-1.5513e-19 5.04973e-19 -0.0222264)
(-1.62229e-19 3.4772e-19 -0.0329921)
(1.5339e-19 -4.12256e-19 -0.0490833)
(-2.16715e-20 1.90047e-20 -0.072431)
(5.35359e-20 -1.68962e-20 -0.105114)
(1.6025e-19 -9.94049e-20 -0.148911)
(-1.73532e-19 1.5539e-19 -0.204531)
(-2.48042e-20 -3.99325e-20 -0.264357)
(4.13992e-22 -3.10008e-20 2.04729e-05)
(-3.65493e-22 1.56708e-20 1.46634e-05)
(6.72511e-22 -1.67665e-22 6.44724e-06)
(-5.95506e-22 -1.54166e-20 -4.37e-06)
(-9.41149e-22 -1.41726e-21 -1.79089e-05)
(3.42623e-21 -2.41933e-19 -3.42708e-05)
(-4.91061e-21 4.58042e-19 -5.35655e-05)
(2.41638e-21 -2.46573e-19 -7.59256e-05)
(-1.80398e-21 1.48768e-20 -0.000101514)
(4.95848e-21 -2.69948e-19 -0.000130527)
(-5.91436e-21 2.46246e-19 -0.000163201)
(-4.41449e-21 4.70177e-19 -0.000199814)
(1.13461e-20 -9.51045e-19 -0.000240687)
(-1.35277e-20 9.49838e-19 -0.000286193)
(1.77308e-20 -9.45256e-19 -0.00033676)
(-1.1931e-20 9.36558e-19 -0.000392904)
(-1.0179e-20 4.76475e-19 -0.000455226)
(-7.00585e-22 -3.71231e-21 -0.000524355)
(4.44417e-21 3.85887e-21 -0.000601015)
(-7.97041e-21 4.39198e-19 -0.000686067)
(-1.46078e-21 -4.61197e-19 -0.000780503)
(1.45927e-20 1.25757e-20 -0.000885474)
(-3.4222e-20 8.85032e-19 -0.00100229)
(2.61693e-20 -8.87874e-19 -0.00113246)
(2.25588e-21 -5.34502e-21 -0.00127773)
(-9.61919e-21 -8.98198e-23 -0.00144016)
(1.46521e-20 -1.34095e-20 -0.00162215)
(-4.75552e-21 1.21949e-22 -0.00182658)
(-5.21665e-21 -6.43712e-23 -0.00205694)
(4.97237e-21 1.93206e-22 -0.0023176)
(-3.70252e-21 1.46424e-21 -0.00261425)
(6.40101e-20 -7.82184e-19 -0.00295469)
(-5.81691e-20 8.04375e-19 -0.00335014)
(-1.58779e-20 2.28863e-22 -0.00381782)
(1.85167e-20 -1.02312e-20 -0.00438529)
(-9.95237e-20 7.16572e-19 -0.00509827)
(1.1574e-19 -7.19697e-19 -0.00603378)
(-2.23315e-20 2.16284e-21 -0.00732194)
(1.57886e-20 -9.21395e-23 -0.00917997)
(3.75282e-20 6.28489e-21 -0.011963)
(-2.45498e-19 5.35627e-19 -0.0162342)
(3.64876e-19 -1.08526e-18 -0.022855)
(-1.78104e-19 5.49642e-19 -0.0330873)
(2.57011e-19 -4.19763e-19 -0.04869)
(-2.48907e-19 4.94438e-19 -0.0719767)
(-5.77015e-19 5.08931e-19 -0.105776)
(1.08838e-18 -1.07825e-18 -0.15318)
(-5.3223e-19 5.44306e-19 -0.216829)
(1.8388e-20 -2.08639e-21 -0.29741)
(4.41911e-21 -3.42712e-20 -0.374222)
(-7.30851e-22 1.57511e-20 2.37294e-05)
(-3.27168e-22 6.03457e-20 1.45293e-05)
(2.10306e-21 -1.83178e-19 1.47433e-06)
(-1.52282e-21 2.45762e-19 -1.54264e-05)
(-1.55835e-22 -1.08804e-19 -3.6181e-05)
(1.23082e-22 -1.45539e-20 -6.0859e-05)
(-4.77137e-22 1.53281e-20 -8.95971e-05)
(2.97884e-21 -1.83532e-22 -0.000122595)
(-2.81699e-21 -1.49822e-20 -0.000160114)
(-5.18551e-21 3.35521e-20 -0.000202475)
(-7.34717e-21 4.78235e-19 -0.000250061)
(1.8622e-20 -4.97012e-19 -0.00030332)
(-2.28731e-20 4.63505e-19 -0.000362772)
(1.916e-20 -4.82121e-19 -0.000429009)
(-2.9598e-21 3.34334e-21 -0.000502714)
(1.0825e-20 4.68219e-23 -0.000584692)
(4.11387e-21 3.66039e-21 -0.000675884)
(-5.75061e-21 4.50057e-19 -0.000777302)
(2.05259e-20 -4.86969e-19 -0.000890099)
(6.23222e-21 2.66451e-20 -0.00101563)
(-4.63839e-20 9.27393e-19 -0.00115548)
(2.99517e-20 -9.29923e-19 -0.00131145)
(1.00136e-20 2.23962e-20 -0.00148562)
(-1.7792e-20 -2.29959e-22 -0.00168039)
(1.16424e-20 9.50221e-21 -0.00189855)
(-3.99362e-20 8.90128e-19 -0.00214335)
(3.31984e-20 -8.81676e-19 -0.00241859)
(2.79741e-21 9.4873e-21 -0.00272882)
(9.34872e-21 2.69931e-20 -0.00307949)
(-1.13443e-20 -5.41839e-22 -0.00347733)
(1.19153e-21 -1.2899e-20 -0.00393093)
(-3.68083e-20 1.30916e-20 -0.00445173)
(3.45602e-20 1.2466e-20 -0.00505583)
(-3.02686e-21 -2.49154e-20 -0.00576716)
(8.38951e-20 -7.30535e-19 -0.0066233)
(-7.51605e-20 7.53033e-19 -0.00768553)
(2.71145e-19 -1.4471e-18 -0.0090562)
(-2.49126e-19 1.46112e-18 -0.0109074)
(3.07238e-19 -1.36514e-18 -0.013526)
(7.00204e-20 1.30888e-19 -0.0173812)
(-3.52347e-19 1.29954e-18 -0.0232178)
(-1.18516e-19 -2.17734e-20 -0.0321776)
(1.61353e-20 3.80783e-22 -0.0459386)
(-1.7932e-20 5.51118e-22 -0.0668582)
(5.30005e-20 1.62781e-21 -0.0980877)
(2.5443e-20 1.32693e-20 -0.143605)
(-1.1061e-19 5.00594e-21 -0.208014)
(6.3043e-20 4.84899e-21 -0.295612)
(-1.6126e-22 -3.02763e-22 -0.407562)
(3.5259e-20 6.20942e-22 -0.497802)
(-7.73396e-22 7.59501e-20 2.45118e-05)
(1.65915e-21 -4.63018e-20 9.26882e-06)
(-1.62176e-21 -1.63087e-20 -1.15706e-05)
(4.82987e-21 -2.2682e-19 -3.74826e-05)
(-2.4934e-21 2.28668e-19 -6.83767e-05)
(2.25799e-21 -2.26212e-19 -0.000104357)
(-1.13603e-20 4.98791e-19 -0.000145662)
(1.22089e-20 -6.98351e-19 -0.000192634)
(-7.93235e-21 4.93714e-19 -0.000245704)
(-6.44629e-21 4.81249e-19 -0.000305389)
(-2.20156e-21 3.95125e-21 -0.000372298)
(2.52653e-20 -9.45117e-19 -0.000447132)
(-2.23184e-20 9.83281e-19 -0.000530699)
(5.65427e-21 -4.62479e-19 -0.000623919)
(1.25892e-20 -4.64651e-19 -0.000727838)
(2.28011e-20 -4.57034e-19 -0.000843672)
(-3.26647e-21 6.44022e-21 -0.000972845)
(3.92302e-20 -9.47666e-19 -0.00111696)
(3.07941e-20 -9.09544e-19 -0.00127779)
(6.54907e-21 2.1157e-20 -0.00145741)
(-2.80069e-20 9.44403e-19 -0.00165827)
(-1.98315e-20 -7.95988e-21 -0.00188314)
(1.21097e-20 8.81734e-21 -0.00213525)
(-5.21387e-20 9.135e-19 -0.00241832)
(4.27206e-20 -9.27776e-19 -0.00273669)
(7.41327e-20 -8.908e-19 -0.00309539)
(-7.53474e-20 9.19995e-19 -0.00350038)
(1.48506e-20 -1.97223e-20 -0.00395865)
(6.9596e-20 -8.87028e-19 -0.00447859)
(-9.69506e-20 9.09566e-19 -0.0050704)
(4.30964e-21 1.21533e-20 -0.00574684)
(-2.10533e-19 1.66373e-18 -0.00652441)
(1.91063e-19 -1.72594e-18 -0.00742557)
(4.76857e-20 6.11166e-20 -0.00848255)
(-2.70359e-19 1.57218e-18 -0.00974432)
(2.48501e-19 -1.63914e-18 -0.0112889)
(-3.10214e-20 -3.20286e-21 -0.0132445)
(4.71545e-19 -1.4751e-18 -0.0158251)
(-4.41804e-19 1.52326e-18 -0.0193868)
(-6.49021e-20 -7.11475e-20 -0.0245129)
(6.7293e-19 -1.28409e-18 -0.032134)
(-1.18485e-18 2.64635e-18 -0.0436844)
(-6.32106e-20 -1.538e-19 -0.0612889)
(-8.46641e-20 -1.20864e-19 -0.0879702)
(7.58977e-19 -1.14858e-18 -0.127868)
(3.86889e-20 6.16877e-20 -0.186491)
(-8.49195e-19 7.57692e-19 -0.27101)
(8.32462e-19 -8.33611e-19 -0.390055)
(8.64149e-21 2.83935e-20 -0.549829)
(9.03329e-21 -2.646e-21 -0.659118)
(6.10111e-22 -1.58068e-20 2.16894e-05)
(1.80262e-21 -1.34913e-19 -5.88097e-06)
(-1.9075e-21 1.21651e-19 -3.8827e-05)
(-1.23196e-21 -1.7095e-20 -7.72432e-05)
(5.51724e-21 -2.25381e-19 -0.000121347)
(-5.11517e-21 2.31736e-19 -0.000171489)
(-6.32328e-21 4.68086e-19 -0.000228113)
(-5.0141e-21 -1.93877e-20 -0.000291763)
(2.15533e-21 -4.58871e-21 -0.000363074)
(1.48846e-20 -4.99002e-19 -0.000442781)
(-1.22586e-20 4.66748e-19 -0.000531721)
(1.88694e-20 -9.87312e-19 -0.000630847)
(-4.71749e-21 4.9341e-19 -0.00074124)
(-3.57102e-21 -1.85277e-20 -0.000864126)
(-4.77444e-21 -2.21408e-20 -0.00100088)
(2.97338e-20 -9.6792e-19 -0.00115303)
(-1.62273e-21 -2.02241e-20 -0.00132239)
(2.87375e-20 -9.85704e-19 -0.00151103)
(-5.30391e-21 -7.71312e-21 -0.00172128)
(-1.68516e-22 1.17617e-22 -0.0019557)
(1.12891e-20 8.32091e-21 -0.0022173)
(-5.4442e-20 9.4733e-19 -0.00250949)
(4.87909e-20 -9.67553e-19 -0.00283613)
(1.26037e-20 8.2268e-21 -0.00320164)
(-8.55597e-21 -1.4819e-20 -0.00361107)
(-6.08977e-21 9.77263e-21 -0.00407017)
(-7.61448e-20 9.13161e-19 -0.0045855)
(1.63402e-19 -1.86238e-18 -0.00516457)
(-7.77333e-20 9.70803e-19 -0.00581602)
(-1.96344e-19 1.79826e-18 -0.00654993)
(-3.03419e-20 -4.572e-20 -0.00737829)
(2.26372e-21 -2.70098e-20 -0.00831599)
(-6.54332e-20 -5.39826e-20 -0.00938257)
(2.63561e-19 -1.79453e-18 -0.0106058)
(4.01743e-19 -1.65982e-18 -0.012028)
(-3.59672e-19 1.74177e-18 -0.0137192)
(-3.34025e-20 -5.40356e-20 -0.0157987)
(4.74478e-19 -1.58404e-18 -0.0184746)
(-4.1976e-19 1.67741e-18 -0.0221083)
(-6.6501e-19 1.48788e-18 -0.0273151)
(5.66802e-19 -1.57111e-18 -0.0351126)
(7.68197e-20 -1.09551e-20 -0.0471225)
(8.57499e-19 -1.3838e-18 -0.0658222)
(1.16343e-19 1.21584e-19 -0.0948428)
(-9.87632e-19 1.35354e-18 -0.139318)
(-1.5898e-20 -3.87645e-20 -0.20637)
(3.29048e-20 5.16927e-22 -0.306421)
(-3.29465e-20 1.56246e-20 -0.457962)
(-4.98213e-19 5.20833e-19 -0.69683)
(4.89396e-19 -5.30179e-19 -0.954918)
(-1.06436e-20 -3.14442e-21 0.00919984)
(-1.05611e-20 -1.92799e-22 0.00511066)
(9.89463e-21 9.71339e-21 0.00165601)
(-6.88446e-21 2.00614e-21 -0.00122626)
(7.4062e-21 -1.14476e-20 -0.00360691)
(6.8565e-23 3.51461e-21 -0.00555968)
(-1.73528e-22 -9.77491e-23 -0.00715398)
(-5.68677e-21 1.24375e-23 -0.00845)
(5.52918e-21 -1.20929e-23 -0.00949715)
(-1.67217e-22 3.65721e-25 -0.0103347)
(-1.62506e-22 3.55417e-25 -0.0109949)
(4.91497e-21 -1.07495e-23 -0.0115037)
(-4.93076e-21 1.07841e-23 -0.0118824)
(-4.54209e-21 9.93401e-24 -0.0121478)
(2.59344e-22 -1.10317e-21 -0.0123139)
(6.33376e-21 1.96518e-21 -0.0123926)
(-2.06168e-21 3.21702e-22 -0.0123942)
(-8.03949e-23 -1.03814e-21 -0.0123277)
(-3.12189e-23 8.63271e-22 -0.0122011)
(-2.1003e-21 -1.04385e-20 -0.0120214)
(2.14299e-21 9.42384e-21 -0.0117944)
(-1.3888e-21 -1.30424e-20 -0.0115251)
(1.9474e-21 3.43876e-22 -0.0112186)
(-2.6947e-21 1.31551e-23 -0.0108805)
(1.77201e-21 1.39474e-21 -0.0105167)
(-6.63972e-22 4.03348e-23 -0.0101322)
(-1.88817e-21 4.12962e-24 -0.00973047)
(8.97081e-22 -2.65401e-23 -0.00931525)
(1.57957e-22 2.15967e-21 -0.00889013)
(-4.33202e-23 4.35999e-23 -0.00845839)
(-1.69146e-22 -2.57059e-21 -0.00802309)
(1.41963e-22 2.74797e-21 -0.00758701)
(1.91234e-22 -3.03101e-21 -0.00715273)
(3.40491e-22 2.89928e-20 -0.0067226)
(-7.61815e-22 -2.90244e-20 -0.00629875)
(-6.63319e-22 -2.55438e-20 -0.0058831)
(1.45989e-21 5.56826e-20 -0.00547737)
(-8.09945e-22 -3.04319e-20 -0.00508309)
(-2.191e-22 -4.15674e-21 -0.00470156)
(2.12147e-22 4.29877e-21 -0.00433393)
(-4.14578e-24 2.21106e-24 -0.00398114)
(1.77753e-22 4.65052e-21 -0.00364394)
(-4.90021e-22 -2.44203e-20 -0.00332294)
(4.69524e-22 2.4649e-20 -0.00301856)
(-1.34187e-22 -5.16781e-21 -0.00273105)
(3.04776e-22 1.61037e-20 -0.00246049)
(3.01496e-23 -5.3371e-21 -0.00220674)
(-2.0056e-22 -1.13147e-20 -0.00196942)
(5.44872e-23 5.70623e-21 -0.00174768)
(-1.47183e-22 -5.92391e-21 -0.00154007)
(-1.52881e-20 2.51887e-20 0.0266732)
(3.01226e-20 -1.04644e-20 0.014494)
(-2.42214e-20 -2.12026e-20 0.00411965)
(8.64052e-21 2.21977e-20 -0.00446244)
(-9.00674e-21 -2.17459e-20 -0.0114974)
(-1.26931e-20 6.13468e-21 -0.0172324)
(1.13261e-20 6.88986e-21 -0.0218916)
(1.29119e-20 1.77367e-20 -0.0256634)
(4.45213e-22 -2.94631e-20 -0.0286994)
(-2.2947e-20 6.86454e-21 -0.0311193)
(2.22294e-20 -5.12689e-21 -0.0330182)
(-4.48221e-21 -9.13065e-21 -0.0344736)
(-8.13506e-21 2.46109e-20 -0.0355481)
(-8.80352e-21 -1.3247e-21 -0.0362915)
(9.06913e-21 -1.59184e-20 -0.0367444)
(9.19073e-21 2.3219e-21 -0.0369421)
(-8.21618e-21 4.69966e-21 -0.0369146)
(-3.09661e-22 -8.80931e-22 -0.036688)
(1.44891e-23 -1.29104e-22 -0.036286)
(8.04839e-22 -1.76026e-24 -0.0357293)
(2.3476e-21 3.75359e-23 -0.0350352)
(-2.33855e-21 -3.50437e-21 -0.0342185)
(1.40464e-20 7.46154e-20 -0.0332932)
(-1.59223e-20 -7.76306e-20 -0.0322775)
(1.87891e-20 9.50957e-20 -0.0311857)
(-9.70675e-21 -3.90081e-20 -0.0300345)
(-1.90192e-20 -1.18357e-19 -0.0288343)
(8.25763e-21 5.91999e-20 -0.0275957)
(1.36408e-21 -1.18515e-21 -0.0263291)
(-2.02856e-21 -4.94669e-21 -0.025044)
(1.53019e-21 2.56175e-21 -0.0237493)
(-9.78296e-22 -8.82369e-21 -0.0224531)
(9.92123e-21 9.61833e-20 -0.021163)
(-2.1174e-20 -2.06712e-19 -0.0198859)
(9.89954e-21 1.00809e-19 -0.018628)
(-7.14066e-22 -1.04571e-20 -0.017395)
(-9.95235e-23 3.71926e-21 -0.0161919)
(3.57236e-23 4.3187e-23 -0.0150232)
(-4.94732e-21 -7.18912e-20 -0.0138927)
(4.22492e-21 6.34114e-20 -0.0128037)
(3.47076e-21 6.4313e-20 -0.0117589)
(-5.03552e-21 -8.7571e-20 -0.0107606)
(1.53546e-22 4.85301e-21 -0.00981057)
(1.10497e-21 2.56161e-20 -0.0089099)
(-2.41319e-21 -4.60652e-20 -0.00805938)
(-3.59638e-23 -5.32719e-21 -0.00725918)
(-1.6242e-21 -3.87181e-20 -0.0065089)
(-3.48805e-22 -6.18708e-21 -0.00580727)
(4.02688e-22 1.11848e-20 -0.00515168)
(5.00467e-22 1.75987e-20 -0.00453739)
(-1.36792e-20 -1.0886e-21 0.0413442)
(-1.32307e-20 -1.48778e-20 0.0211962)
(3.51709e-20 2.88515e-20 0.00388889)
(-4.34397e-20 -1.24633e-20 -0.0101605)
(1.78847e-20 1.21468e-20 -0.0214919)
(2.76353e-20 2.10247e-20 -0.0306124)
(-1.88948e-20 -6.02031e-20 -0.0379487)
(1.45348e-20 -2.10126e-20 -0.0438389)
(-3.25298e-20 3.90517e-20 -0.0485427)
(7.98253e-23 3.1447e-20 -0.0522634)
(3.23024e-20 -5.62814e-20 -0.0551567)
(-2.70917e-20 4.16056e-20 -0.0573469)
(7.16048e-21 -1.1263e-20 -0.058935)
(-3.46681e-21 -9.82532e-21 -0.0600009)
(4.61998e-20 2.58434e-20 -0.0606084)
(-4.71146e-21 3.22731e-20 -0.0608131)
(-3.91838e-20 -3.91025e-20 -0.0606629)
(1.14131e-20 -6.94666e-21 -0.0601993)
(-8.1965e-21 3.05449e-22 -0.0594598)
(4.70064e-22 -3.31275e-21 -0.0584772)
(2.70676e-20 6.75108e-20 -0.0572792)
(-2.75852e-20 -5.59275e-20 -0.0558899)
(-3.04199e-20 -8.92497e-20 -0.0543326)
(3.37096e-20 8.54504e-20 -0.0526311)
(-1.48244e-21 6.40368e-21 -0.0508142)
(1.12047e-22 -3.74966e-21 -0.0489035)
(-1.14334e-21 5.73148e-21 -0.0469191)
(-2.79144e-20 -1.40733e-19 -0.0448769)
(3.25095e-20 1.43306e-19 -0.0427932)
(-3.19847e-20 -1.57338e-19 -0.0406832)
(3.42275e-20 1.66814e-19 -0.0385607)
(8.04661e-22 6.21237e-21 -0.0364389)
(3.12457e-20 2.05983e-19 -0.0343296)
(-6.29292e-20 -4.14894e-19 -0.0322438)
(3.3924e-20 2.22186e-19 -0.0301915)
(1.50754e-20 1.28632e-19 -0.0281815)
(-1.34918e-20 -1.12494e-19 -0.0262218)
(-6.48866e-22 -2.12601e-22 -0.0243195)
(-3.7227e-23 -1.87357e-22 -0.0224807)
(2.19489e-23 -3.42199e-24 -0.0207105)
(1.3383e-20 1.48701e-19 -0.0190132)
(-1.31081e-20 -1.39633e-19 -0.0173924)
(1.02513e-21 9.88968e-21 -0.0158507)
(-4.14485e-22 -8.674e-23 -0.0143899)
(5.77153e-21 8.44303e-20 -0.0130111)
(-1.09474e-20 -1.60984e-19 -0.0117145)
(5.48782e-21 8.71016e-20 -0.0104993)
(-2.93711e-21 -4.59042e-20 -0.00936338)
(2.18936e-21 3.40978e-20 -0.00830192)
(5.31148e-22 1.15215e-20 -0.00730587)
(1.98382e-21 2.63005e-20 0.0505506)
(8.47425e-21 -5.37485e-20 0.0227023)
(-7.22008e-20 1.57501e-20 -0.00137846)
(1.19523e-19 8.21257e-20 -0.0203341)
(-3.15954e-20 -1.1131e-19 -0.0352348)
(-1.71251e-20 2.1738e-20 -0.0469914)
(2.20358e-21 2.02651e-20 -0.0563057)
(-1.45432e-20 -7.87469e-22 -0.0636923)
(-1.15774e-20 1.9995e-20 -0.069516)
(6.56062e-20 -3.23351e-20 -0.0740593)
(-2.70591e-20 1.27557e-20 -0.0775384)
(-1.36491e-20 6.07401e-22 -0.0801164)
(1.97324e-20 1.04381e-20 -0.081921)
(-6.47361e-20 -5.28351e-20 -0.0830551)
(4.8216e-20 3.09357e-20 -0.0836025)
(-1.13265e-20 1.23416e-20 -0.0836346)
(1.02033e-20 -9.06179e-21 -0.0832125)
(6.31185e-20 1.12194e-19 -0.08239)
(-6.78757e-20 -9.50625e-20 -0.0812149)
(1.0241e-21 -1.06679e-20 -0.0797294)
(-3.18096e-21 -1.05274e-22 -0.0779714)
(3.21852e-21 4.93251e-22 -0.0759703)
(2.67929e-21 -1.00507e-22 -0.0737577)
(-7.12277e-21 3.63184e-21 -0.0713632)
(5.84702e-21 4.54348e-22 -0.0688224)
(4.30636e-22 7.87859e-21 -0.0661663)
(-8.95324e-20 -2.98779e-19 -0.0634216)
(9.17935e-20 2.87152e-19 -0.0606079)
(-6.08011e-21 5.44105e-21 -0.0577463)
(-4.00087e-20 -1.81449e-19 -0.0548562)
(4.56934e-20 1.85084e-19 -0.0519559)
(-1.36728e-21 1.45632e-21 -0.0490624)
(-1.43271e-22 4.37928e-22 -0.0461912)
(-4.35683e-20 -2.35383e-19 -0.0433565)
(8.8363e-20 4.73797e-19 -0.0405712)
(-8.65877e-20 -4.88358e-19 -0.037847)
(8.49594e-20 5.11271e-19 -0.0351941)
(-8.27008e-20 -5.33053e-19 -0.0326217)
(4.06153e-20 2.71427e-19 -0.0301375)
(1.97457e-20 1.47142e-19 -0.0277484)
(-1.71621e-20 -1.28117e-19 -0.0254597)
(-1.31098e-21 -9.86897e-21 -0.0232759)
(-1.75202e-20 -1.61553e-19 -0.0212003)
(3.72231e-20 3.49078e-19 -0.0192351)
(-1.74465e-20 -1.66967e-19 -0.0173817)
(2.22254e-22 2.34227e-22 -0.01564)
(7.97047e-22 1.10505e-20 -0.0140089)
(-2.0085e-22 -1.54679e-22 -0.012485)
(-7.78142e-22 -1.15536e-20 -0.0110611)
(1.71686e-21 2.37633e-20 -0.00972251)
(2.68073e-20 9.40203e-23 0.05065)
(3.18724e-22 3.93543e-22 0.0154073)
(-6.05895e-20 4.5609e-22 -0.0147962)
(8.98064e-20 -2.52634e-22 -0.0374707)
(-2.69017e-20 9.26341e-23 -0.0546435)
(-4.32387e-20 -8.0061e-22 -0.0678139)
(1.39425e-20 1.58922e-23 -0.078025)
(-1.1636e-20 -1.35621e-23 -0.0859755)
(9.41042e-20 -2.57366e-20 -0.0921338)
(6.58026e-21 7.11077e-20 -0.0968382)
(-3.58275e-21 6.80889e-20 -0.100342)
(-3.12077e-20 -1.15363e-19 -0.102831)
(7.44045e-20 1.36002e-19 -0.104447)
(-9.33757e-20 -1.2658e-19 -0.105309)
(3.67842e-20 8.59338e-20 -0.105512)
(-4.83701e-20 -9.06862e-20 -0.105135)
(5.07427e-21 -8.0177e-21 -0.104246)
(-2.87436e-20 -1.4042e-21 -0.102907)
(2.62161e-20 -3.17645e-21 -0.10117)
(1.31452e-21 2.26312e-21 -0.0990859)
(7.74633e-21 2.9276e-22 -0.0966956)