/*--------------------------------*- C++ -*----------------------------------*\
| =========                 |                                                 |
| \\      /  F ield         | OpenFOAM: The Open Source CFD Toolbox           |
|  \\    /   O peration     | Version:  2412                                  |
|   \\  /    A nd           | Website:  www.openfoam.com                      |
|    \\/     M anipulation  |                                                 |
\*---------------------------------------------------------------------------*/
FoamFile
{
    version     2.0;
    format      ascii;
    arch        "LSB;label=32;scalar=64";
    class       volVectorField;
    location    "8.5";
    object      U;
}
// * * * * * * * * * * * * * * * * * * * * * * * * * * * * * * * * * * * * * //

dimensions      [0 1 -1 0 0 0 0];

internalField   nonuniform List<vector> 
5285
(
(0.113627 -0.00154802 0)
(0.113001 -0.00144371 0)
(0.112881 -0.00204297 0)
(0.112706 -0.00262239 0)
(0.112501 -0.00317939 0)
(0.112261 -0.00371123 0)
(0.111984 -0.00421516 0)
(0.111675 -0.00468947 0)
(0.111337 -0.00513342 0)
(0.110974 -0.00554687 0)
(0.110589 -0.00593003 0)
(0.110187 -0.00628312 0)
(0.109769 -0.00660615 0)
(0.109341 -0.00689883 0)
(0.108904 -0.00716057 0)
(0.108463 -0.0073906 0)
(0.10802 -0.00758823 0)
(0.107577 -0.00775303 0)
(0.107137 -0.00788506 0)
(0.106703 -0.00798496 0)
(0.106276 -0.008054 0)
(0.105858 -0.00809396 0)
(0.10545 -0.00810704 0)
(0.105054 -0.0080957 0)
(0.112418 -0.00134908 0)
(0.112309 -0.00190723 0)
(0.112151 -0.00244739 0)
(0.111964 -0.00296722 0)
(0.111746 -0.00346422 0)
(0.111494 -0.00393603 0)
(0.111212 -0.00438119 0)
(0.110904 -0.00479916 0)
(0.110573 -0.00518994 0)
(0.110221 -0.00555376 0)
(0.109852 -0.00589082 0)
(0.109469 -0.00620107 0)
(0.109075 -0.00648408 0)
(0.108672 -0.0067391 0)
(0.108263 -0.00696521 0)
(0.107852 -0.00716152 0)
(0.10744 -0.00732743 0)
(0.10703 -0.0074628 0)
(0.106623 -0.00756808 0)
(0.106222 -0.00764433 0)
(0.105828 -0.00769314 0)
(0.105443 -0.0077165 0)
(0.105068 -0.00771667 0)
(0.111874 -0.00126294 0)
(0.111775 -0.0017838 0)
(0.111631 -0.00228827 0)
(0.111461 -0.00277423 0)
(0.111262 -0.00323943 0)
(0.111033 -0.0036818 0)
(0.110776 -0.00410013 0)
(0.110495 -0.00449404 0)
(0.110192 -0.00486362 0)
(0.109871 -0.00520917 0)
(0.109532 -0.00553085 0)
(0.10918 -0.00582854 0)
(0.108817 -0.00610173 0)
(0.108445 -0.00634956 0)
(0.108067 -0.00657096 0)
(0.107685 -0.00676493 0)
(0.107302 -0.00693071 0)
(0.106919 -0.00706802 0)
(0.106538 -0.00717717 0)
(0.106161 -0.00725904 0)
(0.10579 -0.00731505 0)
(0.105426 -0.00734702 0)
(0.105071 -0.00735701 0)
(0.111365 -0.00118429 0)
(0.111275 -0.00167127 0)
(0.111144 -0.0021433 0)
(0.11099 -0.0025984 0)
(0.110808 -0.00303458 0)
(0.110599 -0.00344999 0)
(0.110365 -0.00384365 0)
(0.110108 -0.00421531 0)
(0.109831 -0.00456513 0)
(0.109536 -0.00489344 0)
(0.109226 -0.00520039 0)
(0.108902 -0.00548581 0)
(0.108568 -0.00574911 0)
(0.108224 -0.00598936 0)
(0.107874 -0.00620541 0)
(0.10752 -0.00639615 0)
(0.107163 -0.00656073 0)
(0.106805 -0.00669877 0)
(0.106448 -0.00681046 0)
(0.106094 -0.00689654 0)
(0.105744 -0.00695831 0)
(0.1054 -0.0069974 0)
(0.105064 -0.00701573 0)
(0.11089 -0.00111222 0)
(0.110807 -0.0015684 0)
(0.110687 -0.00201092 0)
(0.110546 -0.00243794 0)
(0.11038 -0.00284764 0)
(0.110189 -0.00323842 0)
(0.109976 -0.00360943 0)
(0.109741 -0.00396054 0)
(0.109488 -0.00429197 0)
(0.109218 -0.00460405 0)
(0.108933 -0.00489692 0)
(0.108636 -0.00517039 0)
(0.108327 -0.0054238 0)
(0.10801 -0.00565618 0)
(0.107686 -0.00586632 0)
(0.107356 -0.00605307 0)
(0.107023 -0.00621552 0)
(0.106689 -0.00635322 0)
(0.106354 -0.00646628 0)
(0.106021 -0.00655535 0)
(0.105692 -0.00662159 0)
(0.105367 -0.00666651 0)
(0.105048 -0.00669187 0)
(0.110444 -0.00104594 0)
(0.110368 -0.0014741 0)
(0.110259 -0.00188977 0)
(0.110129 -0.00229125 0)
(0.109978 -0.00267685 0)
(0.109803 -0.00304515 0)
(0.109608 -0.00339542 0)
(0.109393 -0.00372759 0)
(0.109162 -0.00404193 0)
(0.108915 -0.00433875 0)
(0.108653 -0.0046182 0)
(0.10838 -0.00488004 0)
(0.108096 -0.0051236 0)
(0.107802 -0.00534786 0)
(0.107502 -0.00555163 0)
(0.107196 -0.00573372 0)
(0.106885 -0.00589323 0)
(0.106572 -0.00602966 0)
(0.106258 -0.00614306 0)
(0.105945 -0.00623404 0)
(0.105634 -0.00630363 0)
(0.105327 -0.00635324 0)
(0.105024 -0.00638448 0)
(0.110026 -0.000984761 0)
(0.109956 -0.00138741 0)
(0.109856 -0.00177869 0)
(0.109737 -0.00215695 0)
(0.109598 -0.00252064 0)
(0.109439 -0.00286846 0)
(0.10926 -0.00319976 0)
(0.109064 -0.00351452 0)
(0.108852 -0.003813 0)
(0.108626 -0.00409552 0)
(0.108386 -0.00436217 0)
(0.108134 -0.00461272 0)
(0.107872 -0.00484648 0)
(0.107601 -0.00506245 0)
(0.107323 -0.00525944 0)
(0.107038 -0.0054363 0)
(0.106748 -0.00559214 0)
(0.106455 -0.00572647 0)
(0.10616 -0.00583933 0)
(0.105866 -0.00593126 0)
(0.105572 -0.00600322 0)
(0.105281 -0.00605652 0)
(0.104994 -0.00609264 0)
(0.109634 -0.000928086 0)
(0.109569 -0.00130752 0)
(0.109477 -0.00167661 0)
(0.109368 -0.0020338 0)
(0.109241 -0.0023776 0)
(0.109095 -0.0027068 0)
(0.108931 -0.00302081 0)
(0.108752 -0.00331958 0)
(0.108558 -0.00360338 0)
(0.10835 -0.00387247 0)
(0.10813 -0.00412695 0)
(0.107899 -0.00436653 0)
(0.107657 -0.00459057 0)
(0.107406 -0.0047981 0)
(0.107148 -0.00498797 0)
(0.106883 -0.0051591 0)
(0.106612 -0.00531065 0)
(0.106338 -0.00544217 0)
(0.106061 -0.0055537 0)
(0.105783 -0.00564575 0)
(0.105506 -0.00571923 0)
(0.105231 -0.00577535 0)
(0.104958 -0.00581548 0)
(0.109266 -0.000875402 0)
(0.109205 -0.00123368 0)
(0.109121 -0.00158262 0)
(0.109021 -0.00192069 0)
(0.108904 -0.00224647 0)
(0.10877 -0.00255878 0)
(0.10862 -0.00285703 0)
(0.108456 -0.00314116 0)
(0.108278 -0.00341137 0)
(0.108088 -0.00366789 0)
(0.107886 -0.00391076 0)
(0.107673 -0.00413971 0)
(0.10745 -0.00435413 0)
(0.107218 -0.0045531 0)
(0.106978 -0.00473556 0)
(0.10673 -0.00490053 0)
(0.106478 -0.00504725 0)
(0.10622 -0.00517534 0)
(0.10596 -0.00528487 0)
(0.105698 -0.00537634 0)
(0.105436 -0.00545061 0)
(0.105175 -0.00550881 0)
(0.104917 -0.00555218 0)
(0.10892 -0.000826277 0)
(0.108864 -0.00116528 0)
(0.108786 -0.00149589 0)
(0.108694 -0.00181663 0)
(0.108586 -0.00212608 0)
(0.108463 -0.00242308 0)
(0.108326 -0.00270701 0)
(0.108175 -0.00297773 0)
(0.108012 -0.00323537 0)
(0.107838 -0.00348009 0)
(0.107652 -0.00371192 0)
(0.107456 -0.00393057 0)
(0.10725 -0.00413547 0)
(0.107035 -0.00432581 0)
(0.106811 -0.00450064 0)
(0.106581 -0.0046591 0)
(0.106344 -0.00480054 0)
(0.106103 -0.00492469 0)
(0.105858 -0.00503166 0)
(0.105611 -0.00512195 0)
(0.105363 -0.00519639 0)
(0.105116 -0.00525603 0)
(0.104871 -0.00530199 0)
(0.108596 -0.000780359 0)
(0.108543 -0.00110175 0)
(0.108472 -0.00141569 0)
(0.108386 -0.0017207 0)
(0.108287 -0.00201537 0)
(0.108174 -0.00229849 0)
(0.108048 -0.00256938 0)
(0.10791 -0.00282782 0)
(0.10776 -0.00307383 0)
(0.1076 -0.00330749 0)
(0.107428 -0.00352879 0)
(0.107247 -0.00373746 0)
(0.107057 -0.00393299 0)
(0.106857 -0.00411466 0)
(0.106649 -0.0042817 0)
(0.106434 -0.00443338 0)
(0.106212 -0.00456921 0)
(0.105985 -0.00468901 0)
(0.105755 -0.00479297 0)
(0.105521 -0.00488161 0)
(0.105287 -0.00495571 0)
(0.105053 -0.00501625 0)
(0.10482 -0.00506426 0)
(0.108292 -0.000737375 0)
(0.108243 -0.00104264 0)
(0.108176 -0.00134138 0)
(0.108098 -0.00163208 0)
(0.108006 -0.00191331 0)
(0.107901 -0.00218382 0)
(0.107785 -0.00244283 0)
(0.107658 -0.00268999 0)
(0.10752 -0.00292522 0)
(0.107372 -0.00314849 0)
(0.107214 -0.00335976 0)
(0.107047 -0.00355877 0)
(0.10687 -0.00374509 0)
(0.106684 -0.00391815 0)
(0.10649 -0.00407732 0)
(0.106288 -0.00422206 0)
(0.10608 -0.00435204 0)
(0.105867 -0.0044672 0)
(0.10565 -0.00456781 0)
(0.105429 -0.00465443 0)
(0.105208 -0.0047278 0)
(0.104986 -0.00478881 0)
(0.104765 -0.0048384 0)
(0.108008 -0.000697118 0)
(0.107962 -0.000987567 0)
(0.1079 -0.00127236 0)
(0.107827 -0.00154999 0)
(0.107742 -0.00181896 0)
(0.107645 -0.00207796 0)
(0.107538 -0.00232608 0)
(0.10742 -0.00256285 0)
(0.107293 -0.00278803 0)
(0.107156 -0.00300153 0)
(0.107009 -0.00320323 0)
(0.106854 -0.00339292 0)
(0.106689 -0.00357026 0)
(0.106515 -0.00373481 0)
(0.106334 -0.00388613 0)
(0.106145 -0.00402388 0)
(0.10595 -0.00414788 0)
(0.105749 -0.00425824 0)
(0.105544 -0.0043553 0)
(0.105335 -0.00443963 0)
(0.105126 -0.00451196 0)
(0.104915 -0.00457311 0)
(0.104705 -0.0046239 0)
(0.107741 -0.000659446 0)
(0.107698 -0.000936193 0)
(0.107641 -0.00120813 0)
(0.107573 -0.00147372 0)
(0.107494 -0.00173142 0)
(0.107404 -0.00197981 0)
(0.107304 -0.00221788 0)
(0.107195 -0.002445 0)
(0.107076 -0.00266079 0)
(0.106949 -0.00286506 0)
(0.106813 -0.00305765 0)
(0.106667 -0.00323838 0)
(0.106513 -0.003407 0)
(0.106351 -0.00356324 0)
(0.106181 -0.00370684 0)
(0.106003 -0.00383766 0)
(0.105819 -0.00395571 0)
(0.10563 -0.00406123 0)
(0.105436 -0.00415463 0)
(0.105239 -0.00423653 0)
(0.105041 -0.00430762 0)
(0.104842 -0.00436864 0)
(0.104643 -0.00442031 0)
(0.107493 -0.000624261 0)
(0.107452 -0.000888247 0)
(0.107399 -0.00114821 0)
(0.107336 -0.00140261 0)
(0.107262 -0.00164982 0)
(0.107178 -0.00188834 0)
(0.107084 -0.00211703 0)
(0.106982 -0.0023351 0)
(0.106871 -0.00254205 0)
(0.106752 -0.00273758 0)
(0.106624 -0.00292149 0)
(0.106488 -0.00309364 0)
(0.106343 -0.00325389 0)
(0.10619 -0.00340211 0)
(0.10603 -0.00353824 0)
(0.105863 -0.00366233 0)
(0.105689 -0.00377457 0)
(0.10551 -0.00387532 0)
(0.105328 -0.0039651 0)
(0.105142 -0.00404452 0)
(0.104954 -0.00411425 0)
(0.104766 -0.00417496 0)
(0.104577 -0.00422726 0)
(0.10726 -0.00059149 0)
(0.107223 -0.000843492 0)
(0.107173 -0.00109221 0)
(0.107114 -0.00133606 0)
(0.107044 -0.00157338 0)
(0.106965 -0.00180258 0)
(0.106877 -0.00202239 0)
(0.106781 -0.00223189 0)
(0.106677 -0.00243045 0)
(0.106564 -0.00261767 0)
(0.106443 -0.00279334 0)
(0.106314 -0.00295733 0)
(0.106178 -0.0031096 0)
(0.106033 -0.00325019 0)
(0.105882 -0.00337921 0)
(0.105724 -0.00349689 0)
(0.10556 -0.00360359 0)
(0.105391 -0.00369979 0)
(0.105219 -0.00378606 0)
(0.105043 -0.00386305 0)
(0.104866 -0.00393138 0)
(0.104687 -0.00399165 0)
(0.104509 -0.00404438 0)
(0.107043 -0.000561098 0)
(0.107008 -0.000801723 0)
(0.106962 -0.00103973 0)
(0.106906 -0.00127353 0)
(0.10684 -0.00150138 0)
(0.106766 -0.00172165 0)
(0.106682 -0.00193295 0)
(0.106591 -0.00213423 0)
(0.106492 -0.00232477 0)
(0.106384 -0.00250408 0)
(0.10627 -0.00267192 0)
(0.106147 -0.00282819 0)
(0.106017 -0.00297296 0)
(0.105881 -0.00310639 0)
(0.105737 -0.00322876 0)
(0.105587 -0.00334047 0)
(0.105432 -0.003442 0)
(0.105273 -0.00353395 0)
(0.10511 -0.00361694 0)
(0.104944 -0.00369161 0)
(0.104776 -0.00375857 0)
(0.104608 -0.00381833 0)
(0.104439 -0.00387132 0)
(0.106839 -0.000533088 0)
(0.106806 -0.000762762 0)
(0.106763 -0.000990472 0)
(0.106711 -0.00121454 0)
(0.106649 -0.00143321 0)
(0.106578 -0.00164478 0)
(0.106498 -0.00184781 0)
(0.106411 -0.00204114 0)
(0.106316 -0.00222395 0)
(0.106213 -0.0023957 0)
(0.106103 -0.00255612 0)
(0.105986 -0.00270516 0)
(0.105863 -0.00284294 0)
(0.105732 -0.00296976 0)
(0.105596 -0.00308604 0)
(0.105454 -0.00319228 0)
(0.105307 -0.00328911 0)
(0.105156 -0.00337719 0)
(0.105002 -0.00345718 0)
(0.104845 -0.00352973 0)
(0.104687 -0.00359537 0)
(0.104528 -0.00365459 0)
(0.104369 -0.00370771 0)
(0.113206 0.00280874 1.29601e-24)
(0.113417 0.00220243 -1.29908e-24)
(0.11265 0.00261843 -1.172e-24)
(0.112842 0.00205164 4.09851e-23)
(0.113019 0.00147328 -2.55572e-24)
(0.113182 0.000884897 0)
(0.113328 0.000288193 9.04002e-23)
(0.11346 -0.000315034 -2.12126e-22)
(0.1136 -0.000925178 -3.37848e-24)
(0.11213 0.00244476 1.05704e-24)
(0.112304 0.00191422 -6.96988e-23)
(0.112465 0.00137316 -7.30505e-23)
(0.112611 0.000823101 1.74301e-25)
(0.112741 0.000265852 -1.81295e-22)
(0.112857 -0.000296632 1.8492e-22)
(0.112979 -0.000864105 1.90022e-22)
(0.111642 0.00228608 -7.79848e-24)
(0.111801 0.00178881 3.46258e-23)
(0.111946 0.00128191 1.37183e-22)
(0.112077 0.000766921 7.39966e-23)
(0.112193 0.000245655 8.50528e-23)
(0.112295 -0.000279806 -3.44221e-22)
(0.112401 -0.000808681 -3.71264e-22)
(0.111184 0.00214091 7.70968e-24)
(0.111329 0.00167424 1.02086e-24)
(0.11146 0.00119871 -6.80832e-23)
(0.111577 0.000715844 -1.38769e-22)
(0.11168 0.000227474 -1.50596e-25)
(0.11177 -0.000264253 9.2467e-23)
(0.111862 -0.000758141 1.75401e-22)
(0.110754 0.00200796 4.63811e-24)
(0.110885 0.0015695 2.43878e-24)
(0.111004 0.00112283 -2.83892e-23)
(0.111109 0.000669468 1.23212e-22)
(0.111201 0.000211225 0)
(0.111279 -0.00024971 7.72535e-23)
(0.111358 -0.000711831 -2.31077e-24)
(0.110349 0.00188611 -9.47416e-24)
(0.110469 0.0014737 -6.72551e-25)
(0.110576 0.00105365 2.508e-23)
(0.11067 0.000627424 -1.10918e-22)
(0.110751 0.000196824 5.68366e-23)
(0.110819 -0.00023596 6.54363e-23)
(0.110886 -0.000669191 -2.09115e-24)
(0.109968 0.00177434 4.74855e-24)
(0.110077 0.00138604 0)
(0.110174 0.000990584 0)
(0.110258 0.000589383 5.23951e-23)
(0.110329 0.000184192 -5.86936e-23)
(0.110387 -0.00022281 -1.14836e-22)
(0.110444 -0.000629726 -5.92548e-23)
(0.109609 0.00167174 5.15062e-25)
(0.109708 0.00130581 8.88801e-24)
(0.109795 0.000933127 1.35661e-25)
(0.10987 0.000555043 1.30448e-25)
(0.109932 0.000173256 4.41911e-23)
(0.109982 -0.000210092 1.06443e-22)
(0.110029 -0.000593003 1.10703e-22)
(0.10927 0.00157748 -4.43899e-25)
(0.10936 0.00123235 -7.79867e-24)
(0.109439 0.000880798 0)
(0.109506 0.00052412 -1.83129e-23)
(0.10956 0.000163937 -4.56131e-23)
(0.109602 -0.00019767 -3.75134e-24)
(0.10964 -0.000558652 -1.02419e-22)
(0.10895 0.00149081 0)
(0.109033 0.00116504 -5.15923e-24)
(0.109104 0.000833148 -1.39613e-23)
(0.109163 0.000496334 1.61797e-23)
(0.109209 0.000156137 2.37407e-24)
(0.109245 -0.000185448 -4.40454e-23)
(0.109275 -0.000526364 4.62618e-23)
(0.108649 0.00141101 -3.14059e-25)
(0.108724 0.00110331 7.11803e-24)
(0.108788 0.000789739 1.33462e-23)
(0.10884 0.0004714 9.87423e-25)
(0.10888 0.00014973 -9.87278e-25)
(0.108909 -0.000173377 -3.45445e-23)
(0.108932 -0.000495899 0)
(0.108364 0.00133741 1.04097e-24)
(0.108433 0.0010466 -2.54674e-25)
(0.10849 0.000750136 -7.44252e-25)
(0.108536 0.000449012 1.17011e-23)
(0.10857 0.000144556 -1.05051e-25)
(0.108593 -0.00016146 5.15856e-23)
(0.10861 -0.000467085 3.20914e-23)
(0.108095 0.00126938 -9.86185e-25)
(0.108158 0.000994372 7.11461e-25)
(0.10821 0.000713897 1.10916e-25)
(0.10825 0.000428845 -2.30607e-23)
(0.108279 0.000140417 7.27358e-25)
(0.108297 -0.000149755 -2.71535e-23)
(0.108308 -0.000439818 -3.39816e-23)
(0.107841 0.00120631 1.45797e-25)
(0.107899 0.000946085 2.57113e-25)
(0.107946 0.000680575 -3.12256e-24)
(0.107981 0.000410549 9.99973e-24)
(0.108006 0.000137073 -6.08821e-25)
(0.108019 -0.000138371 1.37948e-23)
(0.108025 -0.000414057 -1.32357e-23)
(0.107601 0.00114759 -9.5723e-26)
(0.107654 0.00090122 9.56428e-26)
(0.107697 0.000649722 5.23632e-24)
(0.107729 0.000393757 -9.84343e-26)
(0.107749 0.000134256 4.42985e-24)
(0.107759 -0.000127462 -9.93552e-24)
(0.10776 -0.000389817 1.30841e-23)
(0.107374 0.00109269 -4.82874e-26)
(0.107423 0.000859273 4.55646e-25)
(0.107462 0.000620895 -2.30802e-24)
(0.107491 0.000378098 -2.98444e-25)
(0.107508 0.000131678 -7.03026e-24)
(0.107514 -0.00011721 9.8101e-24)
(0.107512 -0.000367149 -5.61526e-25)
(0.107159 0.00104108 -3.99493e-26)
(0.107206 0.000819784 -7.5096e-26)
(0.107242 0.000593685 5.39079e-25)
(0.107267 0.000363223 9.16128e-26)
(0.107281 0.000129064 3.18485e-24)
(0.107285 -0.000107798 -3.76834e-25)
(0.10728 -0.00034612 -3.56547e-24)
(0.106956 0.000992308 4.33094e-26)
(0.107 0.000782351 -9.90504e-26)
(0.107033 0.000567742 -5.54606e-25)
(0.107056 0.000348833 1.10734e-25)
(0.107068 0.000126171 3.91906e-25)
(0.10707 -9.94096e-05 1.45715e-24)
(0.107063 -0.000326834 3.19965e-24)
(0.106764 0.00094599 -8.00687e-26)
(0.106805 0.000746593 1.50476e-25)
(0.106836 0.000542703 2.44143e-26)
(0.106857 0.000334592 -1.34127e-25)
(0.106868 0.000122695 -2.8249e-25)
(0.106868 -9.23057e-05 -8.30738e-25)
(0.106859 -0.000309489 -2.62527e-25)
(0.11274 0.00397827 3.36657e-23)
(0.11298 0.00340101 1.07911e-24)
(0.110975 0.00618268 -8.5782e-25)
(0.11125 0.00571994 7.02856e-23)
(0.111501 0.00524188 -3.63334e-23)
(0.111751 0.00474798 0)
(0.111994 0.00423797 -1.72804e-24)
(0.112225 0.0037125 2.68968e-24)
(0.112444 0.00317238 -9.66414e-25)
(0.110587 0.00578413 -3.24781e-23)
(0.110841 0.00535064 -4.61365e-23)
(0.111074 0.00490269 3.4122e-23)
(0.111305 0.00443982 -2.12867e-25)
(0.111529 0.00396188 4.24467e-23)
(0.111742 0.00346952 2.51397e-23)
(0.111942 0.00296353 8.61825e-25)
(0.110217 0.00541811 5.3967e-23)
(0.110453 0.00501162 8.44189e-23)
(0.11067 0.00459145 0)
(0.110884 0.00415723 -2.97424e-23)
(0.111091 0.00370887 -8.08932e-23)
(0.111287 0.00324703 -4.52902e-23)
(0.111471 0.00277248 5.35858e-24)
(0.109865 0.00508151 -2.27476e-23)
(0.110085 0.00469996 -2.24235e-23)
(0.110288 0.00430546 1.93185e-25)
(0.110486 0.00389771 5.60292e-23)
(0.110678 0.00347669 3.59219e-23)
(0.110858 0.00304303 2.20611e-23)
(0.111027 0.0025975 -5.45869e-24)
(0.109531 0.00477156 -2.67907e-25)
(0.109736 0.00441307 -1.37688e-23)
(0.109925 0.00404232 0)
(0.11011 0.00365907 -4.7198e-23)
(0.110288 0.00326334 1.24677e-23)
(0.110455 0.00285576 1.5934e-24)
(0.11061 0.00243703 -5.32538e-24)
(0.109212 0.00448577 -1.45009e-25)
(0.109405 0.00414864 -5.44255e-24)
(0.109582 0.0037999 -1.12526e-23)
(0.109755 0.00343936 3.83845e-23)
(0.10992 0.00306707 -1.41669e-23)
(0.110074 0.00268363 -5.10786e-25)
(0.110217 0.00228973 9.36318e-24)
(0.108909 0.00422193 -3.70854e-24)
(0.10909 0.00390461 8.36807e-24)
(0.109256 0.00357628 1.12157e-23)
(0.109418 0.00323681 -2.97941e-23)
(0.109571 0.00288627 0)
(0.109715 0.00252525 0)
(0.109847 0.00215436 -4.11589e-24)
(0.108621 0.00397804 1.06578e-23)
(0.108791 0.00367911 -1.13534e-24)
(0.108948 0.00336975 -4.20148e-24)
(0.109099 0.00304986 1.27022e-23)
(0.109242 0.00271955 -1.59449e-25)
(0.109375 0.00237935 -4.53785e-24)
(0.109498 0.00202986 3.66905e-25)
(0.108347 0.00375232 -6.68768e-24)
(0.108507 0.00347047 3.04148e-24)
(0.108655 0.00317876 3.94076e-24)
(0.108797 0.00287709 2.73066e-24)
(0.108931 0.00256561 0)
(0.109055 0.0022448 5.05814e-24)
(0.109168 0.00191522 -3.01709e-25)
(0.108085 0.00354313 1.2899e-23)
(0.108237 0.00327719 -4.55285e-24)
(0.108377 0.00300191 -6.9649e-26)
(0.108511 0.00271723 -2.96321e-24)
(0.108636 0.00242329 3.23589e-24)
(0.108751 0.00212056 3.16736e-24)
(0.108856 0.00180955 0)
(0.107837 0.00334902 2.63555e-24)
(0.10798 0.00309789 -1.02426e-23)
(0.108113 0.00283793 5.85034e-26)
(0.108239 0.0025691 -5.85188e-26)
(0.108357 0.00229154 -3.61376e-24)
(0.108465 0.00200569 -2.42343e-24)
(0.108562 0.00171201 -1.82627e-25)
(0.1076 0.00316867 2.91853e-24)
(0.107736 0.00293135 1.59475e-23)
(0.107862 0.00268568 1.40738e-25)
(0.107981 0.00243164 2.17255e-24)
(0.108092 0.00216938 1.2909e-26)
(0.108193 0.0018993 -1.28115e-25)
(0.108284 0.00162183 -4.09645e-25)
(0.107374 0.00300085 -1.71062e-23)
(0.107504 0.00277642 -1.46532e-23)
(0.107624 0.00254409 -2.3984e-25)
(0.107737 0.00230387 -5.13094e-24)
(0.107841 0.00205592 -1.31522e-25)
(0.107936 0.00180059 2.73352e-25)
(0.108021 0.00153829 4.6193e-25)
(0.107159 0.00284448 -1.04631e-23)
(0.107283 0.00263208 7.09895e-24)
(0.107398 0.00241221 3.22715e-25)
(0.107505 0.0021849 3.31472e-24)
(0.107603 0.00195032 -1.50748e-24)
(0.107693 0.0017088 -2.66998e-25)
(0.107772 0.00146068 2.80618e-26)
(0.106955 0.00269855 1.03659e-23)
(0.107073 0.00249738 -9.32069e-24)
(0.107182 0.00228915 3.59856e-24)
(0.107284 0.0020739 1.25316e-25)
(0.107378 0.00185183 3.70581e-24)
(0.107462 0.00162324 -1.79877e-26)
(0.107536 0.00138838 -3.7236e-27)
(0.106759 0.00256215 7.19045e-25)
(0.106872 0.00237146 9.24287e-24)
(0.106977 0.0021741 -8.55623e-24)
(0.107075 0.00197011 3.55448e-25)
(0.107164 0.00175974 -2.16694e-24)
(0.107243 0.0015432 1.40247e-25)
(0.107314 0.00132076 8.33478e-26)
(0.106573 0.00243443 -6.94721e-24)
(0.106682 0.00225354 6.59866e-25)
(0.106782 0.00206636 6.98057e-24)
(0.106876 0.00187297 -1.17373e-25)
(0.10696 0.00167342 1.52308e-24)
(0.107036 0.0014681 -5.74891e-26)
(0.107103 0.00125726 -7.48478e-27)
(0.106395 0.00231465 7.76308e-24)
(0.1065 0.0021429 2.39317e-24)
(0.106597 0.00196517 -2.5423e-24)
(0.106686 0.00178159 -5.00261e-25)
(0.106767 0.00159221 -1.75915e-25)
(0.10684 0.0013974 -2.24845e-25)
(0.106903 0.00119738 -9.56893e-26)
(0.106226 0.00220218 8.86291e-25)
(0.106327 0.002039 -4.11815e-24)
(0.106421 0.00187005 -6.72951e-25)
(0.106507 0.0016955 1.24487e-24)
(0.106584 0.00151565 -1.53263e-24)
(0.106653 0.00133066 -1.94924e-25)
(0.106714 0.00114073 -1.79905e-25)
(0.0998434 0.00551701 0)
(0.0999532 0.00567916 0)
(0.100073 0.00584378 0)
(0.100203 0.00601052 0)
(0.100344 0.00617896 0)
(0.100497 0.0063486 0)
(0.100662 0.00651884 0)
(0.10084 0.00668903 0)
(0.101032 0.00685842 0)
(0.101239 0.00702615 0)
(0.10146 0.00719129 0)
(0.101697 0.0073528 0)
(0.10195 0.00750951 0)
(0.102219 0.00766018 0)
(0.102506 0.00780342 0)
(0.10281 0.00793774 0)
(0.103132 0.00806155 0)
(0.103471 0.00817312 0)
(0.103828 0.00827062 0)
(0.104202 0.00835214 0)
(0.104594 0.00841567 0)
(0.105001 0.00845912 0)
(0.105425 0.00848037 0)
(0.105863 0.00847724 0)
(0.106314 0.00844758 0)
(0.106776 0.00838926 0)
(0.107248 0.00830022 0)
(0.107728 0.00817851 0)
(0.108212 0.00802231 0)
(0.108698 0.00782998 0)
(0.109182 0.00759994 0)
(0.109662 0.00733028 0)
(0.110133 0.00701713 0)
(0.11061 0.00664714 0)
(0.1 0.00541042 0)
(0.100112 0.00556323 0)
(0.100234 0.00571793 0)
(0.100365 0.00587415 0)
(0.100508 0.00603145 0)
(0.100661 0.00618932 0)
(0.100826 0.00634718 0)
(0.101003 0.00650437 0)
(0.101194 0.00666015 0)
(0.101398 0.00681368 0)
(0.101616 0.00696407 0)
(0.101848 0.00711029 0)
(0.102095 0.00725127 0)
(0.102358 0.0073858 0)
(0.102636 0.00751258 0)
(0.10293 0.00763023 0)
(0.103241 0.00773725 0)
(0.103567 0.00783205 0)
(0.103909 0.00791297 0)
(0.104266 0.00797825 0)
(0.104639 0.00802608 0)
(0.105026 0.00805459 0)
(0.105427 0.00806186 0)
(0.10584 0.00804599 0)
(0.106264 0.00800508 0)
(0.106698 0.00793726 0)
(0.107139 0.00784077 0)
(0.107587 0.00771393 0)
(0.108037 0.00755521 0)
(0.108488 0.00736325 0)
(0.108936 0.00713674 0)
(0.109379 0.00687411 0)
(0.109813 0.0065721 0)
(0.110251 0.00621918 0)
(0.100148 0.00530173 0)
(0.100262 0.00544553 0)
(0.100385 0.00559068 0)
(0.100517 0.00573681 0)
(0.10066 0.00588348 0)
(0.100813 0.00603017 0)
(0.100977 0.00617629 0)
(0.101154 0.00632121 0)
(0.101342 0.00646419 0)
(0.101543 0.00660443 0)
(0.101757 0.00674105 0)
(0.101984 0.0068731 0)
(0.102225 0.00699953 0)
(0.102481 0.00711921 0)
(0.10275 0.00723093 0)
(0.103035 0.00733338 0)
(0.103333 0.00742519 0)
(0.103647 0.00750491 0)
(0.103974 0.00757098 0)
(0.104315 0.00762184 0)
(0.10467 0.00765583 0)
(0.105037 0.00767128 0)
(0.105416 0.00766648 0)
(0.105806 0.00763975 0)
(0.106205 0.00758943 0)
(0.106612 0.00751388 0)
(0.107025 0.00741158 0)
(0.107442 0.0072811 0)
(0.107861 0.00712116 0)
(0.10828 0.00693062 0)
(0.108695 0.00670843 0)
(0.109104 0.00645329 0)
(0.109505 0.00616245 0)
(0.109907 0.00582597 0)
(0.100287 0.00519145 0)
(0.100402 0.00532657 0)
(0.100526 0.00546258 0)
(0.100659 0.00559907 0)
(0.100802 0.00573561 0)
(0.100954 0.00587168 0)
(0.101117 0.00600671 0)
(0.101292 0.00614007 0)
(0.101477 0.00627104 0)
(0.101675 0.00639885 0)
(0.101884 0.00652267 0)
(0.102106 0.00664158 0)
(0.102341 0.00675459 0)
(0.102589 0.00686063 0)
(0.10285 0.00695858 0)
(0.103125 0.00704722 0)
(0.103412 0.00712528 0)
(0.103712 0.00719142 0)
(0.104026 0.00724424 0)
(0.104351 0.0072823 0)
(0.104688 0.00730412 0)
(0.105037 0.0073082 0)
(0.105395 0.00729302 0)
(0.105763 0.00725709 0)
(0.106138 0.00719894 0)
(0.10652 0.00711718 0)
(0.106907 0.00701048 0)
(0.107296 0.00687762 0)
(0.107687 0.00671753 0)
(0.108076 0.00652928 0)
(0.108461 0.00631199 0)
(0.108839 0.00606463 0)
(0.109208 0.00578488 0)
(0.109579 0.0054642 0)
(0.100418 0.00508004 0)
(0.100534 0.00520685 0)
(0.100658 0.00533409 0)
(0.100791 0.0054614 0)
(0.100933 0.00558831 0)
(0.101085 0.00571433 0)
(0.101246 0.00583889 0)
(0.101418 0.00596138 0)
(0.101601 0.00608111 0)
(0.101794 0.00619734 0)
(0.101999 0.00630926 0)
(0.102216 0.006416 0)
(0.102444 0.00651664 0)
(0.102685 0.00661018 0)
(0.102937 0.00669556 0)
(0.103201 0.00677166 0)
(0.103478 0.00683731 0)
(0.103766 0.00689127 0)
(0.104065 0.00693227 0)
(0.104375 0.00695902 0)
(0.104696 0.00697016 0)
(0.105026 0.00696436 0)
(0.105365 0.00694028 0)
(0.105712 0.0068966 0)
(0.106065 0.00683203 0)
(0.106424 0.00674536 0)
(0.106786 0.00663544 0)
(0.10715 0.00650126 0)
(0.107513 0.00634191 0)
(0.107875 0.00615661 0)
(0.108232 0.00594469 0)
(0.108583 0.00570529 0)
(0.108924 0.00543647 0)
(0.109265 0.00513092 0)
(0.100541 0.00496793 0)
(0.100657 0.00508677 0)
(0.100782 0.00520566 0)
(0.100914 0.00532422 0)
(0.101055 0.00544201 0)
(0.101205 0.00555853 0)
(0.101365 0.00567324 0)
(0.101534 0.00578553 0)
(0.101713 0.00589474 0)
(0.101903 0.00600017 0)
(0.102103 0.00610106 0)
(0.102314 0.00619657 0)
(0.102536 0.00628584 0)
(0.102768 0.00636793 0)
(0.103012 0.00644186 0)
(0.103266 0.00650659 0)
(0.103532 0.00656104 0)
(0.103807 0.00660409 0)
(0.104093 0.00663458 0)
(0.104389 0.00665133 0)
(0.104694 0.00665313 0)
(0.105007 0.0066388 0)
(0.105328 0.00660713 0)
(0.105655 0.00655696 0)
(0.105987 0.00648717 0)
(0.106324 0.00639671 0)
(0.106663 0.00628461 0)
(0.107003 0.00614998 0)
(0.107342 0.00599208 0)
(0.107679 0.00581028 0)
(0.108011 0.00560404 0)
(0.108335 0.00537268 0)
(0.108651 0.00511458 0)
(0.108966 0.0048235 0)
(0.100657 0.0048555 0)
(0.100773 0.00496672 0)
(0.100896 0.00507765 0)
(0.101028 0.00518792 0)
(0.101168 0.00529707 0)
(0.101316 0.00540463 0)
(0.101473 0.00551007 0)
(0.10164 0.00561281 0)
(0.101816 0.00571221 0)
(0.102001 0.00580761 0)
(0.102196 0.00589827 0)
(0.102401 0.00598342 0)
(0.102616 0.00606224 0)
(0.102841 0.00613386 0)
(0.103076 0.00619737 0)
(0.103321 0.00625181 0)
(0.103575 0.00629619 0)
(0.103839 0.00632948 0)
(0.104112 0.00635064 0)
(0.104394 0.00635858 0)
(0.104683 0.00635224 0)
(0.10498 0.00633055 0)
(0.105284 0.00629244 0)
(0.105592 0.0062369 0)
(0.105905 0.00616295 0)
(0.106221 0.00606967 0)
(0.106539 0.00595622 0)
(0.106857 0.00582188 0)
(0.107174 0.00566602 0)
(0.107487 0.00548813 0)
(0.107796 0.0052878 0)
(0.108097 0.00506447 0)
(0.10839 0.00481684 0)
(0.10868 0.00453957 0)
(0.100765 0.00474308 0)
(0.10088 0.00484704 0)
(0.101003 0.00495042 0)
(0.101134 0.00505281 0)
(0.101272 0.00515381 0)
(0.101418 0.00525294 0)
(0.101573 0.00534968 0)
(0.101736 0.00544348 0)
(0.101908 0.00553374 0)
(0.102089 0.00561982 0)
(0.102279 0.00570102 0)
(0.102478 0.00577663 0)
(0.102686 0.00584587 0)
(0.102903 0.00590793 0)
(0.10313 0.00596197 0)
(0.103365 0.00600711 0)
(0.103609 0.00604244 0)
(0.103862 0.00606702 0)
(0.104123 0.0060799 0)
(0.104391 0.00608012 0)
(0.104666 0.0060667 0)
(0.104947 0.0060387 0)
(0.105234 0.00599517 0)
(0.105525 0.00593523 0)
(0.10582 0.00585801 0)
(0.106117 0.00576273 0)
(0.106415 0.00564867 0)
(0.106713 0.00551522 0)
(0.107009 0.00536187 0)
(0.107301 0.00518821 0)
(0.107588 0.00499391 0)
(0.107868 0.00477857 0)
(0.108139 0.00454111 0)
(0.108407 0.00427701 0)
(0.100866 0.00463098 0)
(0.100981 0.00472804 0)
(0.101103 0.00482424 0)
(0.101232 0.00491919 0)
(0.101368 0.0050125 0)
(0.101512 0.0051037 0)
(0.101664 0.00519229 0)
(0.101824 0.00527775 0)
(0.101992 0.0053595 0)
(0.102168 0.00543693 0)
(0.102353 0.0055094 0)
(0.102546 0.00557623 0)
(0.102747 0.00563669 0)
(0.102957 0.00569004 0)
(0.103175 0.00573549 0)
(0.103401 0.00577224 0)
(0.103635 0.00579945 0)
(0.103877 0.00581627 0)
(0.104125 0.00582183 0)
(0.104381 0.00581527 0)
(0.104642 0.00579573 0)
(0.104909 0.00576234 0)
(0.10518 0.00571429 0)
(0.105455 0.00565079 0)
(0.105733 0.00557109 0)
(0.106012 0.00547451 0)
(0.106292 0.00536045 0)
(0.10657 0.00522839 0)
(0.106847 0.00507792 0)
(0.10712 0.00490871 0)
(0.107387 0.00472053 0)
(0.107647 0.00451306 0)
(0.107899 0.00428545 0)
(0.108147 0.0040339 0)
(0.10096 0.00451948 0)
(0.101074 0.00460998 0)
(0.101195 0.00469938 0)
(0.101322 0.00478731 0)
(0.101457 0.00487337 0)
(0.101598 0.00495712 0)
(0.101747 0.00503809 0)
(0.101903 0.00511577 0)
(0.102067 0.00518961 0)
(0.102239 0.00525904 0)
(0.102418 0.00532346 0)
(0.102605 0.00538221 0)
(0.1028 0.00543465 0)
(0.103002 0.00548006 0)
(0.103212 0.00551773 0)
(0.103429 0.00554692 0)
(0.103653 0.00556685 0)
(0.103884 0.00557677 0)
(0.104121 0.00557588 0)
(0.104364 0.00556341 0)
(0.104613 0.00553858 0)
(0.104866 0.00550064 0)
(0.105122 0.00544885 0)
(0.105382 0.00538252 0)
(0.105644 0.00530101 0)
(0.105906 0.00520373 0)
(0.106169 0.00509018 0)
(0.10643 0.00495992 0)
(0.106689 0.00481261 0)
(0.106944 0.00464801 0)
(0.107193 0.00446595 0)
(0.107435 0.00426622 0)
(0.10767 0.00404813 0)
(0.107899 0.00380853 0)
(0.101048 0.00440881 0)
(0.101161 0.00449309 0)
(0.10128 0.00457606 0)
(0.101406 0.00465737 0)
(0.101538 0.00473662 0)
(0.101677 0.00481339 0)
(0.101823 0.00488723 0)
(0.101975 0.00495766 0)
(0.102135 0.00502416 0)
(0.102302 0.00508619 0)
(0.102475 0.00514318 0)
(0.102656 0.00519454 0)
(0.102845 0.00523963 0)
(0.10304 0.00527783 0)
(0.103241 0.00530846 0)
(0.10345 0.00533084 0)
(0.103665 0.00534428 0)
(0.103885 0.00534808 0)
(0.104112 0.00534151 0)
(0.104343 0.0053239 0)
(0.104579 0.00529453 0)
(0.104819 0.00525275 0)
(0.105062 0.00519791 0)
(0.105307 0.0051294 0)
(0.105554 0.00504666 0)
(0.105801 0.00494919 0)
(0.106048 0.00483656 0)
(0.106293 0.00470842 0)
(0.106535 0.0045645 0)
(0.106773 0.00440461 0)
(0.107006 0.00422865 0)
(0.107232 0.00403647 0)
(0.107449 0.00382757 0)
(0.107662 0.00359933 0)
(0.10113 0.00429918 0)
(0.101242 0.00437758 0)
(0.101359 0.00445448 0)
(0.101483 0.00452955 0)
(0.101613 0.0046024 0)
(0.101749 0.00467264 0)
(0.101891 0.00473983 0)
(0.10204 0.00480352 0)
(0.102195 0.00486321 0)
(0.102357 0.00491841 0)
(0.102526 0.00496856 0)
(0.102701 0.00501313 0)
(0.102882 0.00505154 0)
(0.10307 0.00508318 0)
(0.103264 0.00510745 0)
(0.103464 0.00512372 0)
(0.10367 0.00513136 0)
(0.103881 0.00512973 0)
(0.104097 0.00511819 0)
(0.104317 0.00509612 0)
(0.104541 0.00506289 0)
(0.104768 0.00501791 0)
(0.104998 0.00496061 0)
(0.10523 0.00489047 0)
(0.105463 0.00480699 0)
(0.105696 0.00470976 0)
(0.105928 0.00459841 0)
(0.106158 0.00447265 0)