/*--------------------------------*- C++ -*----------------------------------*\
| =========                 |                                                 |
| \\      /  F ield         | OpenFOAM: The Open Source CFD Toolbox           |
|  \\    /   O peration     | Version:  2412                                  |
|   \\  /    A nd           | Website:  www.openfoam.com                      |
|    \\/     M anipulation  |                                                 |
\*---------------------------------------------------------------------------*/
FoamFile
{
    version     2.0;
    format      ascii;
    arch        "LSB;label=32;scalar=64";
    class       volVectorField;
    location    "8.5";
    object      vorticity;
}
// * * * * * * * * * * * * * * * * * * * * * * * * * * * * * * * * * * * * * //

dimensions      [0 0 -1 0 0 0 0];

internalField   nonuniform List<vector> 
5285
(
(0 -3.37517e-23 -2.26281e-05)
(0 1.89507e-21 -1.65391e-05)
(0 -0 7.09882e-05)
(0 -0 0.000141226)
(0 -0 0.00021279)
(0 -0 0.000277129)
(0 -0 0.0003214)
(0 -0 0.000336474)
(0 -0 0.000317)
(0 -0 0.000263004)
(0 -0 0.000180292)
(0 -0 7.95748e-05)
(0 -0 -2.54962e-05)
(0 -0 -0.000120917)
(0 -0 -0.000194911)
(0 -0 -0.000239904)
(0 -0 -0.000253477)
(0 -0 -0.00023819)
(0 -0 -0.000200453)
(0 -0 -0.000148831)
(0 -0 -9.22314e-05)
(0 -0 -3.84029e-05)
(0 -0 7.00227e-06)
(0 -0 4.05613e-05)
(0 -3.69615e-21 -7.30865e-06)
(0 -0 7.68235e-05)
(0 -0 0.000145844)
(0 -0 0.000217307)
(0 -0 0.000279732)
(0 -0 0.000321846)
(0 -0 0.000334306)
(0 -0 0.000311959)
(0 -0 0.00025519)
(0 -0 0.000170181)
(0 -0 6.79264e-05)
(0 -0 -3.7786e-05)
(0 -0 -0.000132985)
(0 -0 -0.000206067)
(0 -0 -0.000249713)
(0 -0 -0.000261777)
(0 -0 -0.000245051)
(0 -0 -0.000206106)
(0 -0 -0.00015358)
(0 -0 -9.63829e-05)
(0 -0 -4.2207e-05)
(0 -0 3.4471e-06)
(0 -0 3.75862e-05)
(0 1.7432e-21 2.40582e-06)
(0 -0 8.30723e-05)
(0 -0 0.000152562)
(0 -0 0.000223308)
(0 -0 0.00028454)
(0 -0 0.000324971)
(0 -0 0.000335431)
(0 -0 0.000311045)
(0 -0 0.000252527)
(0 -0 0.000166355)
(0 -0 6.37186e-05)
(0 -0 -4.15533e-05)
(0 -0 -0.000135603)
(0 -0 -0.000207058)
(0 -0 -0.000248888)
(0 -0 -0.000259229)
(0 -0 -0.000241093)
(0 -0 -0.00020118)
(0 -0 -0.000148161)
(0 -0 -9.09021e-05)
(0 -0 -3.70093e-05)
(0 -0 8.09476e-06)
(0 -0 4.16938e-05)
(0 -2.29256e-23 7.55773e-06)
(0 -0 8.50504e-05)
(0 -0 0.00015511)
(0 -0 0.000225707)
(0 -0 0.000286153)
(0 -0 0.000325395)
(0 -0 0.000334553)
(0 -0 0.000309069)
(0 -0 0.000249958)
(0 -0 0.000163922)
(0 -0 6.22427e-05)
(0 -0 -4.13153e-05)
(0 -0 -0.000133102)
(0 -0 -0.000202048)
(0 -0 -0.000241457)
(0 -0 -0.000249758)
(0 -0 -0.000230169)
(0 -0 -0.000189481)
(0 -0 -0.000136348)
(0 -0 -7.95357e-05)
(0 -0 -2.65059e-05)
(0 -0 1.7444e-05)
(0 -0 4.95764e-05)
(0 -2.0711e-23 6.25694e-06)
(0 -0 8.05342e-05)
(0 -0 0.000150363)
(0 -0 0.000220438)
(0 -0 0.000280117)
(0 -0 0.000318561)
(0 -0 0.000327182)
(0 -0 0.000301718)
(0 -0 0.000243421)
(0 -0 0.000159117)
(0 -0 6.00554e-05)
(0 -0 -4.01961e-05)
(0 -0 -0.000128313)
(0 -0 -0.000193621)
(0 -0 -0.000229811)
(0 -0 -0.000235621)
(0 -0 -0.000214458)
(0 -0 -0.000173159)
(0 -0 -0.000120297)
(0 -0 -6.4465e-05)
(0 -0 -1.29076e-05)
(0 -0 2.92867e-05)
(0 -0 5.95073e-05)
(0 -5.85857e-22 -1.86794e-06)
(0 -0 6.85286e-05)
(0 -0 0.000137194)
(0 -0 0.000206213)
(0 -0 0.000265068)
(0 -0 0.000303164)
(0 -0 0.0003122)
(0 -0 0.000288165)
(0 -0 0.000232456)
(0 -0 0.000151887)
(0 -0 5.75143e-05)
(0 -0 -3.74538e-05)
(0 -0 -0.000120165)
(0 -0 -0.000180451)
(0 -0 -0.000212456)
(0 -0 -0.000215249)
(0 -0 -0.000192397)
(0 -0 -0.000150725)
(0 -0 -9.86443e-05)
(0 -0 -4.4485e-05)
(0 -0 4.817e-06)
(0 -0 4.44704e-05)
(0 -0 7.20988e-05)
(0 1.09265e-21 -1.75713e-05)
(0 -0 4.821e-05)
(0 -0 0.000114778)
(0 -0 0.000182207)
(0 -0 0.000240236)
(0 -0 0.000278582)
(0 -0 0.00028924)
(0 -0 0.000268389)
(0 -0 0.000217454)
(0 -0 0.000143069)
(0 -0 5.59004e-05)
(0 -0 -3.14009e-05)
(0 -0 -0.000106631)
(0 -0 -0.000160263)
(0 -0 -0.000186971)
(0 -0 -0.000186172)
(0 -0 -0.000161562)
(0 -0 -0.000119874)
(0 -0 -6.92578e-05)
(0 -0 -1.76664e-05)
(0 -0 2.83798e-05)
(0 -0 6.44846e-05)
(0 -0 8.85943e-05)
(0 -1.00915e-21 -4.18496e-05)
(0 -0 1.84141e-05)
(0 -0 8.19004e-05)
(0 -0 0.000147216)
(0 -0 0.0002045)
(0 -0 0.00024387)
(0 -0 0.000257624)
(0 -0 0.000242064)
(0 -0 0.0001985)
(0 -0 0.000133186)
(0 -0 5.61671e-05)
(0 -0 -2.06976e-05)
(0 -0 -8.6059e-05)
(0 -0 -0.000131181)
(0 -0 -0.000151358)
(0 -0 -0.000146369)
(0 -0 -0.00011999)
(0 -0 -7.87721e-05)
(0 -0 -3.04739e-05)
(0 -0 1.74587e-05)
(0 -0 5.90484e-05)
(0 -0 9.04019e-05)
(0 -0 0.000109874)
(0 4.55046e-22 -7.56707e-05)
(0 -0 -2.1988e-05)
(0 -0 3.73801e-05)
(0 -0 0.000100069)
(0 -0 0.000156776)
(0 -0 0.000198105)
(0 -0 0.000216667)
(0 -0 0.000208808)
(0 -0 0.000175559)
(0 -0 0.000122563)
(0 -0 5.89827e-05)
(0 -0 -4.37884e-06)
(0 -0 -5.72544e-05)
(0 -0 -9.18672e-05)
(0 -0 -0.000104217)
(0 -0 -9.44582e-05)
(0 -0 -6.63846e-05)
(0 -0 -2.6249e-05)
(0 -0 1.87215e-05)
(0 -0 6.17417e-05)
(0 -0 9.75173e-05)
(0 -0 0.000122775)
(0 -0 0.000136364)
(0 -0 -0.000119643)
(0 -0 -7.36989e-05)
(0 -0 -1.95014e-05)
(0 -0 4.00751e-05)
(0 -0 9.64421e-05)
(0 -0 0.000140784)
(0 -0 0.000166026)
(0 -0 0.000168466)
(0 -0 0.000148674)
(0 -0 0.000111436)
(0 -0 6.47475e-05)
(0 -0 1.8077e-05)
(0 -0 -1.96285e-05)
(0 -0 -4.17203e-05)
(0 -0 -4.4989e-05)
(0 -0 -2.9961e-05)
(0 -0 -3.72975e-07)
(0 -0 3.79494e-05)
(0 -0 7.84692e-05)
(0 -0 0.000115224)
(0 -0 0.000143749)
(0 -0 0.000161511)
(0 -0 0.000167937)
(0 3.14584e-22 -0.000173671)
(0 -0 -0.000136611)
(0 -0 -8.8583e-05)
(0 -0 -3.25519e-05)
(0 -0 2.37611e-05)
(0 -0 7.22043e-05)
(0 -0 0.000106016)
(0 -0 0.000121346)
(0 -0 0.000118116)
(0 -0 0.000100003)
(0 -0 7.355e-05)
(0 -0 4.66164e-05)
(0 -0 2.6599e-05)
(0 -0 1.88621e-05)
(0 -0 2.57542e-05)
(0 -0 4.63936e-05)
(0 -0 7.71893e-05)
(0 -0 0.000112881)
(0 -0 0.000147784)
(0 -0 0.00017692)
(0 -0 0.000196797)
(0 -0 0.000205727)
(0 -0 0.000203796)
(0 -3.32546e-22 -0.000236654)
(0 -0 -0.000209471)
(0 -0 -0.000168471)
(0 -0 -0.000116337)
(0 -0 -5.97874e-05)
(0 -0 -6.23742e-06)
(0 -0 3.78546e-05)
(0 -0 6.83943e-05)
(0 -0 8.44756e-05)
(0 -0 8.8432e-05)
(0 -0 8.5094e-05)
(0 -0 8.04676e-05)
(0 -0 8.0201e-05)
(0 -0 8.82476e-05)
(0 -0 0.000106051)
(0 -0 0.000132409)
(0 -0 0.000163972)
(0 -0 0.000196184)
(0 -0 0.000224362)
(0 -0 0.000244657)
(0 -0 0.000254672)
(0 -0 0.000253655)
(0 -0 0.0002424)
(0 -1.29305e-22 -0.000306271)
(0 -0 -0.000289663)
(0 -0 -0.000256316)
(0 -0 -0.000208328)
(0 -0 -0.000151306)
(0 -0 -9.1875e-05)
(0 -0 -3.62048e-05)
(0 -0 1.12804e-05)
(0 -0 4.86997e-05)
(0 -0 7.68505e-05)
(0 -0 9.8648e-05)
(0 -0 0.000118058)
(0 -0 0.000138839)
(0 -0 0.000163457)
(0 -0 0.000192442)
(0 -0 0.000224322)
(0 -0 0.000256091)
(0 -0 0.000284014)
(0 -0 0.00030454)
(0 -0 0.000315058)
(0 -0 0.000314346)
(0 -0 0.000302647)
(0 -0 0.000281485)
(0 1.27607e-22 -0.000378954)
(0 -0 -0.000373184)
(0 -0 -0.000347805)
(0 -0 -0.000304094)
(0 -0 -0.000246486)
(0 -0 -0.000180789)
(0 -0 -0.000112896)
(0 -0 -4.7623e-05)
(0 -0 1.20762e-05)
(0 -0 6.53433e-05)
(0 -0 0.000113059)
(0 -0 0.000157051)
(0 -0 0.000199129)
(0 -0 0.00024026)
(0 -0 0.000280094)
(0 -0 0.00031696)
(0 -0 0.00034828)
(0 -0 0.000371239)
(0 -0 0.000383494)
(0 -0 0.000383731)
(0 -0 0.000371938)
(0 -0 0.000349354)
(0 -0 0.000318222)
(0 -5.46721e-24 -0.000450069)
(0 -0 -0.000454871)
(0 -0 -0.00043741)
(0 -0 -0.000397993)
(0 -0 -0.000339875)
(0 -0 -0.000268046)
(0 -0 -0.000188139)
(0 -0 -0.000105385)
(0 -0 -2.38378e-05)
(0 -0 5.39639e-05)
(0 -0 0.000126857)
(0 -0 0.000194543)
(0 -0 0.000256926)
(0 -0 0.000313535)
(0 -0 0.000363217)
(0 -0 0.000404185)
(0 -0 0.000434362)
(0 -0 0.000451899)
(0 -0 0.000455684)
(0 -0 0.000445694)
(0 -0 0.000423092)
(0 -0 0.000390065)
(0 -0 0.000349518)
(0 -3.46559e-23 -0.000514334)
(0 -0 -0.000528891)
(0 -0 -0.000518925)
(0 -0 -0.000483715)
(0 -0 -0.000425392)
(0 -0 -0.000348166)
(0 -0 -0.000257419)
(0 -0 -0.000158776)
(0 -0 -5.73362e-05)
(0 -0 4.27688e-05)
(0 -0 0.000138446)
(0 -0 0.000227409)
(0 -0 0.000307799)
(0 -0 0.000377848)
(0 -0 0.000435724)
(0 -0 0.000479609)
(0 -0 0.000507969)
(0 -0 0.000519918)
(0 -0 0.000515527)
(0 -0 0.000495983)
(0 -0 0.000463526)
(0 -0 0.000421182)
(0 -0 0.000372421)
(0 3.10477e-23 -0.000566448)
(0 -0 -0.00058939)
(0 -0 -0.000586235)
(0 -0 -0.000555034)
(0 -0 -0.000497037)
(0 -0 -0.000415747)
(0 -0 -0.000316295)
(0 -0 -0.000204621)
(0 -0 -8.67281e-05)
(0 -0 3.18569e-05)
(0 -0 0.000146351)
(0 -0 0.000252734)
(0 -0 0.000347631)
(0 -0 0.00042819)
(0 -0 0.000492052)
(0 -0 0.000537449)
(0 -0 0.000563402)
(0 -0 0.000569925)
(0 -0 0.000558158)
(0 -0 0.000530345)
(0 -0 0.000489637)
(0 -0 0.000439742)
(0 -0 0.000384558)
(0 -2.54313e-24 -0.000601306)
(0 -0 -0.000631612)
(0 -0 -0.000634046)
(0 -0 -0.000606624)
(0 -0 -0.000549662)
(0 -0 -0.000466159)
(0 -0 -0.000360957)
(0 -0 -0.000240183)
(0 -0 -0.000110523)
(0 -0 2.14032e-05)
(0 -0 0.000149466)
(0 -0 0.000268265)
(0 -0 0.000373238)
(0 -0 0.00046071)
(0 -0 0.000527971)
(0 -0 0.000573377)
(0 -0 0.000596473)
(0 -0 0.000598059)
(0 -0 0.000580165)
(0 -0 0.000545884)
(0 -0 0.000499058)
(0 -0 0.000443874)
(0 -0 0.000384492)
(-2.13142e-22 9.13347e-21 -1.23391e-06)
(1.05974e-21 -8.24236e-21 -6.84047e-05)
(1.86545e-22 -9.4843e-21 -1.29671e-05)
(-6.28105e-21 3.18426e-19 -7.41483e-05)
(5.3393e-22 -1.7983e-20 -0.000134483)
(1.07686e-21 -1.09475e-21 -0.000190814)
(-1.08591e-21 5.81928e-19 -0.000247635)
(-1.802e-21 -1.18293e-18 -0.000324838)
(1.71182e-21 -2.2068e-20 4.28923e-05)
(-2.43553e-22 9.73634e-21 -1.98551e-05)
(9.77446e-21 -5.71909e-19 -7.56893e-05)
(8.38708e-21 -5.84753e-19 -0.000130648)
(8.13208e-22 1.01028e-21 -0.000181602)
(2.86716e-21 -1.214e-18 -0.00022806)
(1.92451e-21 1.22151e-18 -0.000285665)
(5.48347e-21 1.20866e-18 3.44776e-05)
(1.6647e-21 -8.14341e-20 -2.36922e-05)
(-4.25799e-21 2.98339e-19 -7.49164e-05)
(-1.31626e-20 1.14816e-18 -0.000124519)
(-5.42712e-21 6.05496e-19 -0.000169173)
(3.93109e-22 5.98771e-19 -0.000207212)
(-6.80876e-21 -2.37793e-18 -0.000247973)
(-1.77647e-20 -2.45743e-18 3.17387e-05)
(-1.46603e-21 8.12203e-20 -2.7773e-05)
(-4.02313e-22 9.81036e-21 -7.45015e-05)
(5.05498e-21 -5.99476e-19 -0.000119152)
(8.08956e-21 -1.18995e-18 -0.00015763)
(-8.9832e-22 -2.1796e-21 -0.000187502)
(5.60741e-21 6.16419e-19 -0.000213778)
(1.19604e-20 1.21006e-18 3.14935e-05)
(-1.29192e-21 6.27806e-20 -3.28099e-05)
(-3.8262e-22 2.73947e-20 -7.58955e-05)
(3.99356e-21 -3.08785e-19 -0.000116136)
(-6.76353e-21 1.16623e-18 -0.000149413)
(5.53406e-22 3.50284e-22 -0.000172424)
(1.18921e-21 6.12454e-19 -0.000186887)
(-1.77107e-21 -1.75142e-20 2.84982e-05)
(2.32461e-21 -1.34672e-19 -3.85887e-05)
(1.13793e-22 -9.33421e-21 -7.88052e-05)
(-2.43317e-21 2.72751e-19 -0.000115746)
(5.83419e-21 -1.16272e-18 -0.000145078)
(-1.64011e-21 5.81876e-19 -0.000162804)
(-5.58477e-22 6.25485e-19 -0.000168127)
(-6.20966e-22 -1.77769e-20 2.09104e-05)
(-1.09475e-21 7.18613e-20 -4.49376e-05)
(9.51696e-23 4.16022e-23 -8.3059e-05)
(-2.44865e-22 -4.94494e-22 -0.00011772)
(-2.1057e-21 5.80846e-19 -0.000144369)
(8.69254e-22 -5.99691e-19 -0.000158438)
(-1.96397e-21 -1.15269e-18 -0.000157194)
(-2.18502e-21 -5.89684e-19 8.21224e-06)
(-1.73446e-22 8.88421e-21 -5.17942e-05)
(-1.80052e-21 1.52394e-19 -8.86279e-05)
(6.12146e-23 9.82426e-23 -0.000122046)
(-6.3171e-22 -3.57352e-22 -0.000147317)
(-6.95915e-22 5.59438e-19 -0.000159415)
(3.36455e-21 1.18166e-18 -0.000154121)
(5.83139e-21 1.15311e-18 -1.0373e-05)
(1.09784e-22 -8.88403e-21 -5.91825e-05)
(1.40932e-21 -1.34701e-19 -9.55793e-05)
(-1.40476e-22 1.12674e-22 -0.000128849)
(1.49708e-21 -2.87049e-19 -0.000154126)
(4.81102e-22 -5.78368e-19 -0.000166026)
(-1.45508e-21 1.69424e-20 -0.000159203)
(-6.60103e-21 -1.17998e-18 -3.58244e-05)
(1.19335e-24 5.01015e-23 -6.71699e-05)
(1.47444e-21 -1.25021e-19 -0.000104011)
(2.32176e-21 -2.86629e-19 -0.000138276)
(-9.88457e-22 2.5155e-19 -0.000165022)
(3.81148e-22 3.64972e-20 -0.00017859)
(-1.24975e-21 -5.77278e-19 -0.000172787)
(3.78088e-21 5.59254e-19 -6.9103e-05)
(1.13984e-22 -9.01433e-21 -7.58314e-05)
(-1.70276e-21 1.70035e-19 -0.000113991)
(-1.84946e-21 2.68952e-19 -0.000150407)
(-9.59367e-23 1.80515e-20 -0.000180116)
(2.49297e-23 -1.75435e-20 -0.000197262)
(4.15172e-23 -5.723e-19 -0.000195025)
(-1.32803e-22 -3.25076e-22 -0.00011086)
(-5.34912e-22 4.46352e-20 -8.52209e-05)
(3.42789e-23 -8.91587e-21 -0.000125508)
(-3.20138e-23 -1.79879e-20 -0.000165164)
(-1.44242e-21 2.85411e-19 -0.000199269)
(-3.14186e-23 -4.08e-22 -0.000221846)
(1.41313e-21 8.91084e-19 -0.000225622)
(2.00035e-21 5.51292e-19 -0.000161125)
(5.15421e-22 -4.47119e-20 -9.53465e-05)
(-2.29394e-22 2.67866e-20 -0.000138426)
(2.18222e-23 2.428e-22 -0.000182239)
(2.38602e-21 -6.06002e-19 -0.000221981)
(-5.17104e-23 1.78269e-20 -0.00025163)
(-1.10236e-21 -5.49452e-19 -0.000263607)
(-2.84735e-21 -5.84418e-19 -0.000219032)
(-8.02074e-23 8.93067e-21 -0.000106142)
(-5.18053e-23 8.9656e-21 -0.000152443)
(9.74477e-22 -1.42559e-19 -0.000201036)
(-8.35024e-22 2.84912e-19 -0.000247307)
(8.11906e-23 -1.77676e-20 -0.00028527)
(5.8746e-22 3.00623e-19 -0.000307174)
(-6.44023e-22 -2.98252e-19 -0.000282618)
(8.3076e-23 -8.933e-21 -0.000117437)
(-8.27241e-23 8.86872e-21 -0.000167063)
(-1.62622e-21 2.67175e-19 -0.000220646)
(-1.43946e-22 7.47578e-24 -0.000273832)
(-2.80953e-22 1.59017e-19 -0.000320759)
(-3.99665e-22 -2.98598e-19 -0.000353645)
(1.20522e-21 2.97149e-19 -0.000348784)
(8.17388e-23 -8.93587e-21 -0.000128917)
(-4.84632e-22 6.24336e-20 -0.000181579)
(8.34829e-22 -1.42505e-19 -0.000239852)
(8.39353e-23 -1.7673e-20 -0.000299708)
(3.33749e-22 -2.82101e-19 -0.000355504)
(4.50646e-22 2.9782e-19 -0.000399579)
(-1.97766e-22 -1.72578e-20 -0.000413457)
(-1.61374e-22 1.78572e-20 -0.000140085)
(-3.28995e-23 8.84823e-21 -0.000195078)
(-3.29892e-22 7.10618e-20 -0.00025719)
(4.2505e-23 -2.3125e-23 -0.000322779)
(-5.99138e-23 1.40763e-19 -0.000386528)
(-7.90347e-23 -1.73619e-20 -0.000441074)
(-3.97457e-22 -1.37994e-19 -0.000471982)
(8.45189e-23 -8.94228e-21 -0.000150269)
(1.41872e-22 -1.78826e-20 -0.000206402)
(4.56661e-22 -8.89258e-20 -0.000271048)
(-7.78114e-23 1.76559e-20 -0.000340771)
(-7.44949e-23 3.50153e-20 -0.000410783)
(9.24364e-23 8.67247e-20 -0.000474219)
(4.28941e-22 1.2035e-19 -0.000519697)
(-7.128e-23 8.93555e-21 -0.0001584)
(1.9936e-22 -2.6774e-20 -0.000214385)
(-6.74489e-23 1.77655e-20 -0.000279657)
(1.09105e-22 -3.52811e-20 -0.00035153)
(-5.57959e-25 -1.75133e-20 -0.000425548)
(-4.35301e-23 -5.19579e-20 -0.000495666)
(-6.24144e-23 -1.70874e-20 -0.00055279)
(-1.03145e-20 2.83111e-19 0.000126715)
(-3.05667e-22 9.38238e-21 6.44904e-05)
(7.03202e-22 -1.97606e-20 0.000454238)
(-6.58156e-20 1.23421e-18 0.000298788)
(2.80923e-20 -6.07016e-19 0.00025513)
(-5.29383e-22 -4.28696e-22 0.000208454)
(4.49369e-22 -1.82603e-20 0.00015839)
(-1.00603e-21 2.71739e-20 0.000104609)
(2.75282e-22 -9.01404e-21 4.72898e-05)
(6.23619e-20 -1.21841e-18 0.000390562)
(5.47118e-20 -1.16757e-18 0.000260485)
(-2.57202e-20 5.70201e-19 0.000222547)
(-3.70433e-22 -1.52643e-22 0.000180963)
(-2.08261e-20 5.78936e-19 0.000135778)
(-9.51502e-21 2.98187e-19 8.70276e-05)
(-1.96037e-22 9.26153e-21 3.45054e-05)
(-1.16558e-19 2.36817e-18 0.00033592)
(-1.07959e-19 2.38112e-18 0.000228063)
(-3.25006e-22 1.08945e-21 0.000195179)
(2.1035e-20 -5.61414e-19 0.000158359)
(3.92842e-20 -1.17579e-18 0.000117848)
(1.65946e-20 -5.69305e-19 7.34672e-05)
(-1.55844e-21 6.26346e-20 2.62207e-05)
(5.61393e-20 -1.18742e-18 0.000288396)
(2.58054e-20 -5.72302e-19 0.000199398)
(6.1882e-23 -7.47453e-22 0.000171027)
(-4.04563e-20 1.14097e-18 0.000138536)
(-1.72855e-20 5.60921e-19 0.000102145)
(-8.00608e-21 2.98113e-19 6.19485e-05)
(1.40654e-21 -6.30267e-20 1.83068e-05)
(9.8712e-22 -1.8227e-20 0.000246368)
(2.36614e-20 -5.66964e-19 0.000173403)
(-1.09761e-22 3.09717e-22 0.000148915)
(3.82891e-20 -1.15617e-18 0.000120167)
(-8.26822e-21 2.6907e-19 8.73328e-05)
(-9.3801e-22 2.7117e-20 5.0451e-05)
(1.89934e-21 -8.07732e-20 1.0001e-05)
(6.90292e-22 -1.82479e-20 0.000209281)
(2.02346e-20 -5.44058e-19 0.000149888)
(1.96356e-20 -5.78029e-19 0.000128703)
(-3.59373e-20 1.15289e-18 0.00010314)
(8.68895e-21 -3.05564e-19 7.33225e-05)
(1.86096e-22 -9.20779e-21 3.92763e-05)
(-3.17707e-21 1.5264e-19 1.53128e-06)
(-2.17796e-20 5.80417e-19 0.000176766)
(-4.20444e-20 1.17509e-18 0.000128829)
(-1.87699e-20 5.59664e-19 0.000110462)
(3.38009e-20 -1.14973e-18 8.76116e-05)
(1.37485e-22 -2.81324e-22 6.03393e-05)
(-4.00326e-23 3.7951e-23 2.86529e-05)
(1.36041e-21 -7.18671e-20 -6.90123e-06)
(4.29657e-20 -1.17333e-18 0.000148452)
(3.83068e-20 -1.13355e-18 0.000110139)
(1.77207e-20 -5.91762e-19 9.41699e-05)
(-1.62559e-20 5.74277e-19 7.36197e-05)
(-5.4124e-23 1.46082e-22 4.84674e-05)
(2.84042e-21 -1.34051e-19 1.86832e-05)
(-1.42219e-22 8.89944e-21 -1.52041e-05)
(-1.98609e-20 5.56829e-19 0.000123977)
(-1.69126e-21 1.9249e-20 9.36891e-05)
(-1.72123e-20 5.73299e-19 7.97453e-05)
(-7.50907e-21 2.85723e-19 6.11214e-05)
(3.36207e-23 -2.02556e-23 3.76962e-05)
(-3.12617e-21 1.52194e-19 9.37248e-06)
(1.66881e-22 -8.88679e-21 -2.33763e-05)
(1.8846e-20 -5.87774e-19 0.000102979)
(-1.79589e-20 5.71415e-19 7.93187e-05)
(-1.02533e-21 3.56472e-20 6.70592e-05)
(8.22359e-21 -3.21546e-19 5.00168e-05)
(-6.28288e-21 2.85159e-19 2.79492e-05)
(-3.15863e-21 1.60593e-19 6.60338e-07)
(1.26081e-24 3.07872e-23 -3.1474e-05)
(-1.07942e-21 1.36772e-21 8.5081e-05)
(-1.56635e-20 5.67536e-19 6.68196e-05)
(4.46189e-22 -1.7892e-20 5.59289e-05)
(-3.93985e-22 1.78337e-20 4.0147e-05)
(6.52736e-21 -3.03425e-19 1.90913e-05)
(2.17639e-21 -1.16242e-19 -7.56536e-06)
(1.48822e-22 -8.94949e-21 -3.95882e-05)
(-6.01395e-22 -1.6605e-20 6.98566e-05)
(2.2319e-20 -8.13543e-19 5.59135e-05)
(3.88741e-23 1.58435e-22 4.60987e-05)
(6.22704e-21 -2.83986e-19 3.1281e-05)
(4.13713e-22 -1.77736e-20 1.09216e-05)
(1.72039e-22 -8.91712e-21 -1.54665e-05)
(3.82416e-22 -2.67588e-20 -4.78316e-05)
(-1.57687e-20 5.4404e-19 5.68086e-05)
(-1.51233e-20 5.80825e-19 4.62329e-05)
(-3.96865e-22 1.75901e-20 3.72236e-05)
(-1.13805e-20 5.32165e-19 2.31038e-05)
(-5.68786e-23 -7.02496e-23 3.16781e-06)
(-1.61701e-21 9.79589e-20 -2.32534e-05)
(-3.79932e-22 2.68384e-20 -5.63277e-05)
(-6.50647e-21 2.61119e-19 4.53574e-05)
(6.6755e-21 -2.63432e-19 3.73134e-05)
(4.14957e-22 -1.7597e-20 2.88641e-05)
(5.92897e-21 -2.83635e-19 1.52157e-05)
(-2.51303e-21 1.42052e-19 -4.50932e-06)
(9.86796e-22 -6.24765e-20 -3.11734e-05)
(-1.35903e-22 8.91752e-21 -6.51908e-05)
(6.87306e-21 -2.60181e-19 3.48537e-05)
(-5.90928e-21 2.61815e-19 2.86041e-05)
(2.48361e-21 -1.2303e-19 2.04976e-05)
(6.89676e-24 1.41552e-23 7.14803e-06)
(5.22245e-21 -3.0189e-19 -1.24905e-05)
(-1.20608e-22 8.94714e-21 -3.94791e-05)
(-9.93092e-23 8.90984e-21 -7.44958e-05)
(2.33436e-22 -1.73525e-20 2.46044e-05)
(6.03662e-21 -2.61168e-19 1.94893e-05)
(-5.67399e-21 2.80696e-19 1.15471e-05)
(3.04708e-22 -1.77248e-20 -1.60382e-06)
(-2.44925e-21 1.42097e-19 -2.1153e-05)
(1.06444e-22 -8.89743e-21 -4.83821e-05)
(3.44375e-22 -2.67892e-20 -8.42307e-05)
(-2.99042e-21 1.37099e-19 1.3879e-05)
(2.84393e-22 -1.74842e-20 9.29069e-06)
(4.12747e-21 -2.10008e-19 1.41988e-06)
(-4.05095e-23 3.9441e-23 -1.14881e-05)
(1.06914e-21 -7.08909e-20 -3.07889e-05)
(-1.75836e-22 8.97854e-21 -5.79722e-05)
(-1.30726e-23 5.38356e-24 -9.423e-05)
(3.47869e-21 -1.5372e-19 1.76454e-06)
(9.49265e-22 -5.16644e-20 -2.73074e-06)
(-1.39468e-21 6.99009e-20 -1.04616e-05)
(-2.65098e-22 1.75894e-20 -2.28357e-05)
(-3.18644e-22 1.78246e-20 -4.14939e-05)
(-2.5168e-22 1.78588e-20 -6.81136e-05)
(-1.0424e-22 8.93507e-21 -0.000104082)
(2.65127e-22 -1.69462e-20 -1.32711e-05)
(-1.71953e-21 8.61111e-20 -1.75221e-05)
(-2.67154e-22 1.73675e-20 -2.43109e-05)
(5.6436e-22 -3.51601e-20 -3.55659e-05)
(-7.81795e-22 5.31955e-20 -5.29507e-05)
(-1.22457e-22 8.90645e-21 -7.8287e-05)
(-1.02495e-22 8.9292e-21 -0.000113117)
(0 -0 -1.33447e-05)
(0 -0 -1.18614e-05)
(0 -0 -1.01651e-05)
(0 -0 -8.37014e-06)
(0 -0 -6.61338e-06)
(0 -0 -5.02473e-06)
(0 -0 -3.67769e-06)
(0 -0 -2.60678e-06)
(0 -0 -1.80803e-06)
(0 -0 -1.25071e-06)
(0 -0 -8.90112e-07)
(0 -0 -6.78213e-07)
(0 -0 -5.71107e-07)
(0 -0 -5.33129e-07)
(0 -0 -5.38249e-07)
(0 -0 -5.69321e-07)
(0 -0 -6.1636e-07)
(0 -0 -6.74536e-07)
(0 -0 -7.4214e-07)
(0 -0 -8.19043e-07)
(0 -0 -9.05707e-07)
(0 -0 -1.00256e-06)
(0 -0 -1.10993e-06)
(0 -0 -1.22841e-06)
(0 -0 -1.36049e-06)
(0 -0 -1.51589e-06)
(0 -0 -1.73189e-06)
(0 -0 -2.14905e-06)
(0 -0 -3.29789e-06)
(0 -0 -7.18918e-06)
(0 -0 -2.1485e-05)
(0 -0 -7.5584e-05)
(0 -0 -0.000282714)
(0 8.56979e-24 -0.00118545)
(0 -0 -1.25577e-05)
(0 -0 -1.10342e-05)
(0 -0 -9.30116e-06)
(0 -0 -7.51247e-06)
(0 -0 -5.78072e-06)
(0 -0 -4.2415e-06)
(0 -0 -2.95103e-06)
(0 -0 -1.9331e-06)
(0 -0 -1.1789e-06)
(0 -0 -6.56661e-07)
(0 -0 -3.22722e-07)
(0 -0 -1.31277e-07)
(0 -0 -4.10639e-08)
(0 -0 -1.90264e-08)
(0 -0 -4.14242e-08)
(0 -0 -9.30094e-08)
(0 -0 -1.65209e-07)
(0 -0 -2.54144e-07)
(0 -0 -3.58688e-07)
(0 -0 -4.79026e-07)
(0 -0 -6.15706e-07)
(0 -0 -7.69158e-07)
(0 -0 -9.39679e-07)
(0 -0 -1.12789e-06)
(0 -0 -1.33615e-06)
(0 -0 -1.57343e-06)
(0 -0 -1.8732e-06)
(0 -0 -2.36041e-06)
(0 -0 -3.50404e-06)
(0 -0 -7.07488e-06)
(0 -0 -1.97963e-05)
(0 -0 -6.73652e-05)
(0 -0 -0.000248333)
(0 3.23899e-22 -0.001029)
(0 -0 -1.21558e-05)
(0 -0 -1.06032e-05)
(0 -0 -8.94999e-06)
(0 -0 -7.21299e-06)
(0 -0 -5.53656e-06)
(0 -0 -4.05586e-06)
(0 -0 -2.82077e-06)
(0 -0 -1.84984e-06)
(0 -0 -1.13163e-06)
(0 -0 -6.33873e-07)
(0 -0 -3.14021e-07)
(0 -0 -1.28206e-07)
(0 -0 -3.7427e-08)
(0 -0 -1.08538e-08)
(0 -0 -2.65934e-08)
(0 -0 -7.08305e-08)
(0 -0 -1.36016e-07)
(0 -0 -2.18795e-07)
(0 -0 -3.1815e-07)
(0 -0 -4.34073e-07)
(0 -0 -5.66663e-07)
(0 -0 -7.15802e-07)
(0 -0 -8.81179e-07)
(0 -0 -1.06279e-06)
(0 -0 -1.26215e-06)
(0 -0 -1.48678e-06)
(0 -0 -1.76599e-06)
(0 -0 -2.20991e-06)
(0 -0 -3.23185e-06)
(0 -0 -6.38832e-06)
(0 -0 -1.75698e-05)
(0 -0 -5.92043e-05)
(0 -0 -0.000216951)
(0 -5.37273e-22 -0.000890869)
(0 -0 -1.17212e-05)
(0 -0 -1.02867e-05)
(0 -0 -8.74279e-06)
(0 -0 -7.09995e-06)
(0 -0 -5.5073e-06)
(0 -0 -4.10068e-06)
(0 -0 -2.92845e-06)
(0 -0 -2.00754e-06)
(0 -0 -1.32583e-06)
(0 -0 -8.51511e-07)
(0 -0 -5.43442e-07)
(0 -0 -3.59695e-07)
(0 -0 -2.63343e-07)
(0 -0 -2.25486e-07)
(0 -0 -2.25877e-07)
(0 -0 -2.51909e-07)
(0 -0 -2.96773e-07)
(0 -0 -3.57436e-07)
(0 -0 -4.32811e-07)
(0 -0 -5.22493e-07)
(0 -0 -6.25997e-07)
(0 -0 -7.42496e-07)
(0 -0 -8.70892e-07)
(0 -0 -1.01029e-06)
(0 -0 -1.16125e-06)
(0 -0 -1.32965e-06)
(0 -0 -1.54072e-06)
(0 -0 -1.89106e-06)
(0 -0 -2.74391e-06)
(0 -0 -5.4646e-06)
(0 -0 -1.52038e-05)
(0 -0 -5.15005e-05)
(0 -0 -0.000188675)
(0 2.26074e-22 -0.00076926)
(0 -0 -1.11469e-05)
(0 -0 -9.80336e-06)
(0 -0 -8.36114e-06)
(0 -0 -6.81896e-06)
(0 -0 -5.32019e-06)
(0 -0 -3.99699e-06)
(0 -0 -2.89545e-06)
(0 -0 -2.03126e-06)
(0 -0 -1.39213e-06)
(0 -0 -9.47137e-07)
(0 -0 -6.56675e-07)
(0 -0 -4.80786e-07)
(0 -0 -3.84613e-07)
(0 -0 -3.41128e-07)
(0 -0 -3.31667e-07)
(0 -0 -3.4481e-07)
(0 -0 -3.74514e-07)
(0 -0 -4.18084e-07)
(0 -0 -4.7449e-07)
(0 -0 -5.43135e-07)
(0 -0 -6.23164e-07)
(0 -0 -7.13247e-07)
(0 -0 -8.11729e-07)
(0 -0 -9.17138e-07)
(0 -0 -1.02927e-06)
(0 -0 -1.15268e-06)
(0 -0 -1.3091e-06)
(0 -0 -1.58313e-06)
(0 -0 -2.29335e-06)
(0 -0 -4.63464e-06)
(0 -0 -1.31e-05)
(0 -0 -4.4671e-05)
(0 -0 -0.000163682)
(0 2.65797e-24 -0.00066262)
(0 -0 -1.03659e-05)
(0 -0 -9.09259e-06)
(0 -0 -7.73846e-06)
(0 -0 -6.29163e-06)
(0 -0 -4.88708e-06)
(0 -0 -3.65067e-06)
(0 -0 -2.62469e-06)
(0 -0 -1.82285e-06)
(0 -0 -1.23241e-06)
(0 -0 -8.23137e-07)
(0 -0 -5.5697e-07)
(0 -0 -3.95838e-07)
(0 -0 -3.06903e-07)
(0 -0 -2.6502e-07)
(0 -0 -2.53071e-07)
(0 -0 -2.60781e-07)
(0 -0 -2.82913e-07)
(0 -0 -3.17241e-07)
(0 -0 -3.62966e-07)
(0 -0 -4.19509e-07)
(0 -0 -4.85895e-07)
(0 -0 -5.60592e-07)
(0 -0 -6.41706e-07)
(0 -0 -7.27443e-07)
(0 -0 -8.17124e-07)
(0 -0 -9.14363e-07)
(0 -0 -1.03793e-06)
(0 -0 -1.26177e-06)
(0 -0 -1.86472e-06)
(0 -0 -3.88946e-06)
(0 -0 -1.12437e-05)
(0 -0 -3.86419e-05)
(0 -0 -0.000141609)
(0 1.43618e-24 -0.000569063)
(0 -0 -9.34608e-06)
(0 -0 -8.13391e-06)
(0 -0 -6.85948e-06)
(0 -0 -5.50292e-06)
(0 -0 -4.19099e-06)
(0 -0 -3.04244e-06)
(0 -0 -2.09484e-06)
(0 -0 -1.35929e-06)
(0 -0 -8.2209e-07)
(0 -0 -4.53446e-07)
(0 -0 -2.16652e-07)
(0 -0 -7.54795e-08)
(0 -0 9.9052e-10)
(0 -0 3.61028e-08)
(0 -0 4.55198e-08)
(0 -0 3.83809e-08)
(0 -0 1.9121e-08)
(0 -0 -1.05904e-08)
(0 -0 -5.02761e-08)
(0 -0 -9.95223e-08)
(0 -0 -1.57449e-07)
(0 -0 -2.22535e-07)
(0 -0 -2.92847e-07)
(0 -0 -3.66462e-07)
(0 -0 -4.42451e-07)
(0 -0 -5.23718e-07)
(0 -0 -6.26489e-07)
(0 -0 -8.1531e-07)
(0 -0 -1.33336e-06)
(0 -0 -3.0874e-06)
(0 -0 -9.46354e-06)
(0 -0 -3.31642e-05)
(0 -0 -0.000121933)
(0 3.66667e-23 -0.000486737)
(0 -0 -8.01362e-06)
(0 -0 -6.85957e-06)
(0 -0 -5.66166e-06)
(0 -0 -4.39332e-06)
(0 -0 -3.17353e-06)
(0 -0 -2.11388e-06)
(0 -0 -1.24687e-06)
(0 -0 -5.80491e-07)
(0 -0 -9.98462e-08)
(0 -0 2.24615e-07)
(0 -0 4.28359e-07)
(0 -0 5.45873e-07)
(0 -0 6.06228e-07)
(0 -0 6.31069e-07)
(0 -0 6.34663e-07)
(0 -0 6.25027e-07)
(0 -0 6.05793e-07)
(0 -0 5.78059e-07)
(0 -0 5.41941e-07)
(0 -0 4.97537e-07)
(0 -0 4.45514e-07)
(0 -0 3.87244e-07)
(0 -0 3.2457e-07)
(0 -0 2.59386e-07)
(0 -0 1.9268e-07)
(0 -0 1.221e-07)
(0 -0 3.37045e-08)
(0 -0 -1.28763e-07)
(0 -0 -5.76551e-07)
(0 -0 -2.09483e-06)
(0 -0 -7.60461e-06)
(0 -0 -2.80209e-05)
(0 -0 -0.000104206)
(0 -1.05194e-22 -0.000414058)
(0 -0 -6.27457e-06)
(0 -0 -5.17882e-06)
(0 -0 -4.05761e-06)
(0 -0 -2.87811e-06)
(0 -0 -1.75171e-06)
(0 -0 -7.82734e-07)
(0 -0 1.54296e-09)
(0 -0 5.96397e-07)
(0 -0 1.01805e-06)
(0 -0 1.29586e-06)
(0 -0 1.4641e-06)
(0 -0 1.55556e-06)
(0 -0 1.59749e-06)
(0 -0 1.60987e-06)
(0 -0 1.60554e-06)
(0 -0 1.59146e-06)
(0 -0 1.57047e-06)
(0 -0 1.54309e-06)
(0 -0 1.50896e-06)
(0 -0 1.46781e-06)
(0 -0 1.42007e-06)
(0 -0 1.36685e-06)
(0 -0 1.30976e-06)
(0 -0 1.25054e-06)
(0 -0 1.19019e-06)
(0 -0 1.12679e-06)
(0 -0 1.04832e-06)
(0 -0 9.05989e-07)
(0 -0 5.17047e-07)
(0 -0 -7.9491e-07)
(0 -0 -5.53596e-06)
(0 -0 -2.3032e-05)
(0 -0 -8.80541e-05)
(0 6.58949e-23 -0.000349682)
(0 -0 -4.04357e-06)
(0 -0 -3.00811e-06)
(0 -0 -1.96607e-06)
(0 -0 -8.78196e-07)
(0 -0 1.51926e-07)
(0 -0 1.02749e-06)
(0 -0 1.72658e-06)
(0 -0 2.24773e-06)
(0 -0 2.60853e-06)
(0 -0 2.8381e-06)
(0 -0 2.96949e-06)
(0 -0 3.0337e-06)
(0 -0 3.05609e-06)
(0 -0 3.0549e-06)
(0 -0 3.04158e-06)
(0 -0 3.02196e-06)
(0 -0 2.99807e-06)
(0 -0 2.96979e-06)
(0 -0 2.93628e-06)
(0 -0 2.8969e-06)
(0 -0 2.85174e-06)
(0 -0 2.80155e-06)
(0 -0 2.74768e-06)
(0 -0 2.69166e-06)
(0 -0 2.6344e-06)
(0 -0 2.57434e-06)
(0 -0 2.50104e-06)
(0 -0 2.37234e-06)
(0 -0 2.03101e-06)
(0 -0 8.97886e-07)
(0 -0 -3.16288e-06)
(0 -0 -1.80639e-05)
(0 -0 -7.31799e-05)
(0 -1.26879e-22 -0.000292475)
(0 -0 -1.27814e-06)
(0 -0 -3.0662e-07)
(0 -0 6.51611e-07)
(0 -0 1.6429e-06)
(0 -0 2.57208e-06)
(0 -0 3.35024e-06)
(0 -0 3.96094e-06)
(0 -0 4.40607e-06)
(0 -0 4.70451e-06)
(0 -0 4.885e-06)
(0 -0 4.97915e-06)
(0 -0 5.016e-06)
(0 -0 5.01885e-06)
(0 -0 5.0041e-06)
(0 -0 4.98162e-06)
(0 -0 4.95608e-06)
(0 -0 4.92859e-06)
(0 -0 4.89839e-06)
(0 -0 4.86412e-06)
(0 -0 4.8247e-06)
(0 -0 4.77981e-06)
(0 -0 4.72986e-06)
(0 -0 4.67588e-06)
(0 -0 4.61913e-06)
(0 -0 4.56039e-06)
(0 -0 4.49829e-06)
(0 -0 4.42376e-06)
(0 -0 4.30051e-06)
(0 -0 3.99405e-06)
(0 -0 3.01205e-06)
(0 -0 -4.50973e-07)
(0 -0 -1.30499e-05)
(0 -0 -5.93758e-05)
(0 -2.58798e-23 -0.000241508)
(0 -0 1.98476e-06)
(0 -0 2.88647e-06)
(0 -0 3.75364e-06)
(0 -0 4.64075e-06)
(0 -0 5.46201e-06)
(0 -0 6.13694e-06)
(0 -0 6.6549e-06)
(0 -0 7.02118e-06)
(0 -0 7.25575e-06)
(0 -0 7.38675e-06)
(0 -0 7.44404e-06)
(0 -0 7.45441e-06)
(0 -0 7.4388e-06)
(0 -0 7.41147e-06)
(0 -0 7.38056e-06)
(0 -0 7.34937e-06)
(0 -0 7.31804e-06)
(0 -0 7.28507e-06)
(0 -0 7.2485e-06)
(0 -0 7.20679e-06)
(0 -0 7.15916e-06)
(0 -0 7.10569e-06)
(0 -0 7.04707e-06)
(0 -0 6.98417e-06)
(0 -0 6.91761e-06)
(0 -0 6.84611e-06)
(0 -0 6.76176e-06)
(0 -0 6.63339e-06)
(0 -0 6.34667e-06)
(0 -0 5.48676e-06)
(0 -0 2.543e-06)
(0 -0 -8.01996e-06)
(0 -0 -4.65492e-05)
(0 -2.86097e-23 -0.000196059)
(0 -0 5.59866e-06)
(0 -0 6.42167e-06)
(0 -0 7.18708e-06)
(0 -0 7.95896e-06)
(0 -0 8.66219e-06)
(0 -0 9.22558e-06)
(0 -0 9.64468e-06)
(0 -0 9.92814e-06)
(0 -0 1.00969e-05)
(0 -0 1.0178e-05)
(0 -0 1.01993e-05)
(0 -0 1.01848e-05)
(0 -0 1.01526e-05)
(0 -0 1.01146e-05)
(0 -0 1.00767e-05)
(0 -0 1.00407e-05)
(0 -0 1.00057e-05)
(0 -0 9.96926e-06)
(0 -0 9.92873e-06)
(0 -0 9.88211e-06)
(0 -0 9.82818e-06)
(0 -0 9.76655e-06)
(0 -0 9.69753e-06)
(0 -0 9.62166e-06)
(0 -0 9.53929e-06)
(0 -0 9.44913e-06)
(0 -0 9.34413e-06)
(0 -0 9.19756e-06)
(0 -0 8.913e-06)
(0 -0 8.14469e-06)
(0 -0 5.64494e-06)
(0 -0 -3.12464e-06)
(0 -0 -3.4743e-05)
(0 1.67403e-22 -0.000155621)
(0 -0 9.29597e-06)
(0 -0 1.00274e-05)
(0 -0 1.06759e-05)
(0 -0 1.13171e-05)
(0 -0 1.18883e-05)
(0 -0 1.23286e-05)
(0 -0 1.26401e-05)
(0 -0 1.2835e-05)
(0 -0 1.29348e-05)
(0 -0 1.29654e-05)
(0 -0 1.29515e-05)
(0 -0 1.2914e-05)
(0 -0 1.28676e-05)
(0 -0 1.28211e-05)
(0 -0 1.27783e-05)
(0 -0 1.27389e-05)
(0 -0 1.27007e-05)
(0 -0 1.26601e-05)
(0 -0 1.2614e-05)
(0 -0 1.25597e-05)
(0 -0 1.24955e-05)
(0 -0 1.24205e-05)
(0 -0 1.23345e-05)
(0 -0 1.22379e-05)
(0 -0 1.21305e-05)
(0 -0 1.2011e-05)
(0 -0 1.18729e-05)
(0 -0 1.16934e-05)
(0 -0 1.13918e-05)
(0 -0 1.06838e-05)
(0 -0 8.55623e-06)
(0 -0 1.35889e-06)
(0 -0 -2.41384e-05)
(0 1.02218e-22 -0.000119889)
(0 -0 1.27055e-05)
(0 -0 1.33276e-05)
(0 -0 1.3839e-05)
(0 -0 1.43291e-05)
(0 -0 1.47496e-05)
(0 -0 1.50511e-05)
(0 -0 1.5243e-05)
(0 -0 1.53412e-05)
(0 -0 1.53674e-05)
(0 -0 1.53453e-05)
(0 -0 1.52965e-05)
(0 -0 1.52375e-05)
(0 -0 1.51792e-05)
(0 -0 1.51268e-05)
(0 -0 1.50811e-05)
(0 -0 1.50399e-05)
(0 -0 1.49991e-05)
(0 -0 1.49542e-05)
(0 -0 1.4901e-05)
(0 -0 1.48362e-05)
(0 -0 1.47576e-05)
(0 -0 1.46639e-05)
(0 -0 1.45545e-05)
(0 -0 1.44291e-05)
(0 -0 1.42874e-05)
(0 -0 1.41276e-05)
(0 -0 1.39438e-05)
(0 -0 1.37163e-05)
(0 -0 1.33783e-05)
(0 -0 1.27001e-05)
(0 -0 1.08774e-05)
(0 -0 5.05123e-06)
(0 -0 -1.50302e-05)
(0 -1.01097e-22 -8.87342e-05)
(0 -0 1.5405e-05)
(0 -0 1.58949e-05)
(0 -0 1.62435e-05)
(0 -0 1.6557e-05)
(0 -0 1.68032e-05)
(0 -0 1.6946e-05)
(0 -0 1.70028e-05)
(0 -0 1.69929e-05)
(0 -0 1.69383e-05)
(0 -0 1.68599e-05)
(0 -0 1.67749e-05)
(0 -0 1.66951e-05)
(0 -0 1.66264e-05)
(0 -0 1.65702e-05)
(0 -0 1.65237e-05)