/*--------------------------------*- C++ -*----------------------------------*\
| =========                 |                                                 |
| \\      /  F ield         | OpenFOAM: The Open Source CFD Toolbox           |
|  \\    /   O peration     | Version:  2412                                  |
|   \\  /    A nd           | Website:  www.openfoam.com                      |
|    \\/     M anipulation  |                                                 |
\*---------------------------------------------------------------------------*/
FoamFile
{
    version     2.0;
    format      ascii;
    arch        "LSB;label=32;scalar=64";
    class       surfaceScalarField;
    location    "26";
    object      phi;
}
// * * * * * * * * * * * * * * * * * * * * * * * * * * * * * * * * * * * * * //

dimensions      [0 3 -1 0 0 0 0];

oriented        oriented;

internalField   nonuniform List<scalar> 
10422
(
0.00582046
-0.000117805
-0.00581551
0.000112849
0.00582479
-0.000103657
9.933e-05
0.00582849
-8.93013e-05
8.56076e-05
0.00583154
-7.47585e-05
7.17082e-05
0.00583393
-6.00613e-05
5.76632e-05
0.00583567
-4.52493e-05
4.35094e-05
0.00583675
-3.03624e-05
2.92833e-05
0.00583717
-1.54392e-05
1.50213e-05
0.00583693
-5.18126e-07
7.59248e-07
0.00583603
1.43625e-05
-1.34671e-05
0.00583449
2.91658e-05
-2.76231e-05
0.00583231
4.38552e-05
-4.16746e-05
0.0058295
5.83955e-05
-5.55886e-05
0.00582608
7.27529e-05
-6.93333e-05
0.00582207
8.6895e-05
-8.28781e-05
0.00581747
0.000100791
-9.61941e-05
0.00581231
0.000114412
-0.000109254
0.00580661
0.00012773
-0.000122032
0.0058004
0.00014072
-0.000134504
0.00579369
0.000153359
-0.000146648
0.00578651
0.000165626
-0.000158444
0.00577888
0.000177501
-0.000169875
0.00577083
0.000188968
-0.000180923
0.000200014
-0.000191577
0.00583459
-0.000123021
-0.00582938
0.00583915
-0.000108212
0.00584303
-9.31841e-05
0.00584623
-7.79596e-05
0.00584874
-6.25715e-05
0.00585056
-4.70627e-05
0.00585167
-3.1476e-05
0.00585208
-1.5853e-05
0.0058518
-2.34827e-07
0.00585083
1.53378e-05
0.00584917
3.0825e-05
0.00584683
4.61882e-05
0.00584384
6.13897e-05
0.0058402
7.63935e-05
0.00583593
9.1165e-05
0.00583105
0.000105671
0.00582558
0.000119882
0.00581954
0.000133768
0.00581296
0.000147302
0.00580586
0.00016046
0.00579826
0.000173219
0.0057902
0.000185559
0.00578171
0.000197463
0.000208916
0.00584938
-0.00012852
-0.00584388
0.00585418
-0.00011301
0.00585826
-9.7269e-05
0.00586162
-8.13211e-05
0.00586425
-6.52004e-05
0.00586614
-4.89529e-05
0.00586729
-3.26248e-05
0.0058677
-1.62605e-05
0.00586737
9.57172e-08
0.00586631
1.64004e-05
0.00586452
3.2611e-05
0.00586202
4.86862e-05
0.00585882
6.45858e-05
0.00585495
8.02715e-05
0.00585041
9.57066e-05
0.00584522
0.000110856
0.00583942
0.000125688
0.00583301
0.00014017
0.00582604
0.000154275
0.00581852
0.000167977
0.00581049
0.000181251
0.00580197
0.000194077
0.005793
0.000206436
0.000218313
0.00586486
-0.000134319
-0.00585906
0.00586992
-0.000118066
0.00587422
-0.000101569
0.00587775
-8.48526e-05
0.0058805
-6.79544e-05
0.00588247
-5.09232e-05
0.00588366
-3.38088e-05
0.00588405
-1.66589e-05
0.00588367
4.79255e-07
0.00588251
1.7559e-05
0.00588059
3.45349e-05
0.00587791
5.13628e-05
0.0058745
6.79999e-05
0.00587036
8.44054e-05
0.00586553
0.00010054
0.00586002
0.000116367
0.00585386
0.000131852
0.00584706
0.000146961
0.00583967
0.000161666
0.00583171
0.000175937
0.00582321
0.000189751
0.0058142
0.000203085
0.00580472
0.000215918
0.000228237
0.00588108
-0.00014044
-0.00587496
0.00588641
-0.000123397
0.00589094
-0.000106096
0.00589465
-8.85639e-05
0.00589754
-7.08397e-05
0.00589959
-5.29765e-05
0.00590081
-3.50276e-05
0.00590119
-1.70445e-05
0.00590075
9.22397e-07
0.00589949
1.88231e-05
0.00589741
3.6609e-05
0.00589454
5.42329e-05
0.00589089
7.16494e-05
0.00588648
8.88148e-05
0.00588134
0.000105688
0.00587548
0.000122228
0.00586893
0.0001384
0.00586172
0.000154169
0.00585388
0.000169503
0.00584545
0.000184372
0.00583645
0.00019875
0.00582692
0.000212614
0.00581689
0.000225943
0.000238721
0.00589809
-0.000146902
-0.00589163
0.00590371
-0.000129019
0.00590848
-0.000110864
0.00591238
-9.24645e-05
0.0059154
-7.38624e-05
0.00591754
-5.51153e-05
0.0059188
-3.62804e-05
0.00591916
-1.7413e-05
0.00591865
1.43279e-06
0.00591727
2.02035e-05
0.00591504
3.88471e-05
0.00591196
5.73133e-05
0.00590805
7.55536e-05
0.00590334
9.35214e-05
0.00589786
0.000111173
0.00589162
0.000128466
0.00588466
0.000145362
0.00587701
0.000161823
0.00586869
0.000177818
0.00585975
0.000193313
0.00585022
0.000208282
0.00584013
0.0002227
0.00582953
0.000236545
0.0002498
0.00591594
-0.000153727
-0.00590911
0.00592187
-0.000134951
0.00592689
-0.000115887
0.00593099
-9.65643e-05
0.00593416
-7.70287e-05
0.00593638
-5.73418e-05
0.00593767
-3.75655e-05
0.00593801
-1.77591e-05
0.00593743
2.01928e-06
0.00593592
2.17124e-05
0.0059335
4.12646e-05
0.00593019
6.06222e-05
0.00592601
7.97335e-05
0.00592099
9.85491e-05
0.00591514
0.000117022
0.00590849
0.000135108
0.00590109
0.000152766
0.00589296
0.000169956
0.00588413
0.000186644
0.00587465
0.000202796
0.00586455
0.000218383
0.00585387
0.00023338
0.00584265
0.000247763
0.000261514
0.00593467
-0.00016094
-0.00592746
0.00594093
-0.000141212
0.00594623
-0.000121179
0.00595053
-0.000100874
0.00595385
-8.03441e-05
0.00595617
-5.96575e-05
0.00595748
-3.88803e-05
0.0059578
-1.80763e-05
0.00595712
2.69211e-06
0.00595547
2.33636e-05
0.00595286
4.38788e-05
0.0059493
6.41802e-05
0.00594482
8.42127e-05
0.00593945
0.000103924
0.00593321
0.000123264
0.00592613
0.000142186
0.00591825
0.000160645
0.0059096
0.000178602
0.00590023
0.000196017
0.00589017
0.000212858
0.00587946
0.000229092
0.00586815
0.000244693
0.00585627
0.000259636
0.000273903
0.00595436
-0.000168565
-0.00594673
0.00596096
-0.000147821
0.00596654
-0.000126756
0.00597107
-0.000105403
0.00597454
-8.38146e-05
0.00597695
-6.20635e-05
0.00597829
-4.02214e-05
0.00597857
-1.83568e-05
0.0059778
3.46316e-06
0.00597599
2.51729e-05
0.00597316
4.67089e-05
0.00596933
6.80098e-05
0.00596452
8.9017e-05
0.00595877
0.000109675
0.00595211
0.00012993
0.00594456
0.000149732
0.00593617
0.000169036
0.00592697
0.000187798
0.00591701
0.000205978
0.00590633
0.00022354
0.00589497
0.000240451
0.00588298
0.000256683
0.00587041
0.00027221
0.000287013
0.00597505
-0.000176629
-0.00596698
0.00598203
-0.0001548
0.0059879
-0.000132633
0.00599266
-0.000110162
0.00599629
-8.74451e-05
0.00599879
-6.45598e-05
0.00600015
-4.15839e-05
0.00600039
-1.85912e-05
0.0059995
4.34624e-06
0.00599752
2.71582e-05
0.00599445
4.97768e-05
0.00599032
7.21366e-05
0.00598517
9.41752e-05
0.00597901
0.000115833
0.00597188
0.000137054
0.00596383
0.000157786
0.00595489
0.000177979
0.0059451
0.000197587
0.00593451
0.000216569
0.00592316
0.000234887
0.00591111
0.000252506
0.00589839
0.000269396
0.00588507
0.00028553
0.00030089
0.00599682
-0.00018516
-0.00598828
0.00600419
-0.000162172
0.00601038
-0.000138827
0.00601538
-0.000115162
0.00601918
-9.12403e-05
0.00602176
-6.71455e-05
0.00602314
-4.29616e-05
0.00602332
-1.87682e-05
0.00602231
5.3575e-06
0.00602012
2.93402e-05
0.00601679
5.31073e-05
0.00601234
7.65891e-05
0.0060068
9.97192e-05
0.00600019
0.000122435
0.00599257
0.000144675
0.00598397
0.000166386
0.00597444
0.000187515
0.00596401
0.000208013
0.00595274
0.000227837
0.00594068
0.000246947
0.00592788
0.000265306
0.0059144
0.000282882
0.00590028
0.00029965
0.000315587
0.00601973
-0.00019419
-0.0060107
0.00602752
-0.00016996
0.00603405
-0.000145354
0.0060393
-0.000120413
0.00604326
-9.52036e-05
0.00604593
-6.98178e-05
0.00604732
-4.4346e-05
0.00604742
-1.88738e-05
0.00604626
6.51594e-06
0.00604386
3.17425e-05
0.00604024
5.67285e-05
0.00603543
8.13996e-05
0.00602946
0.000105685
0.00602238
0.000129518
0.00601422
0.000152836
0.00600503
0.000175579
0.00599485
0.000197693
0.00598374
0.000219126
0.00597174
0.000239833
0.00595891
0.000259772
0.00594532
0.000278904
0.005931
0.000297197
0.00591603
0.000314622
0.000331158
0.00604387
-0.000203748
-0.00603431
0.0060521
-0.000178187
0.00605898
-0.00015223
0.00606449
-0.000125923
0.00606862
-9.93369e-05
0.00607137
-7.25721e-05
0.00607275
-4.57261e-05
0.00607277
-1.8891e-05
0.00607144
7.84405e-06
0.00606879
3.43929e-05
0.00606485
6.06727e-05
0.00605964
8.66045e-05
0.00605321
0.000112113
0.0060456
0.000137128
0.00603686
0.000161583
0.00602702
0.000185414
0.00601615
0.000208564
0.0060043
0.00023098
0.00599152
0.000252614
0.00597787
0.00027342
0.00596341
0.00029336
0.00594821
0.0003124
0.00593232
0.000330509
0.000347665
0.00606933
-0.000213868
-0.00605921
0.00607802
-0.000186877
0.00608526
-0.000159471
0.00609103
-0.000131699
0.00609534
-0.00010364
0.00609816
-7.54006e-05
0.00609953
-4.70872e-05
0.00609943
-1.87989e-05
0.00609791
9.36872e-06
0.00609498
3.73235e-05
0.00609067
6.49772e-05
0.00608503
9.22458e-05
0.0060781
0.00011905
0.00606991
0.000145314
0.00606052
0.000170968
0.00604999
0.000195946
0.00603837
0.000220187
0.00602571
0.000243635
0.00601209
0.00026624
0.00599755
0.000287954
0.00598218
0.000308738
0.00596602
0.000328554
0.00594916
0.000347373
0.000365172
0.00609618
-0.000224584
-0.00608547
0.00610536
-0.000196053
0.00611298
-0.00016709
0.00611903
-0.000137748
0.00612349
-0.000108109
0.00612639
-7.82918e-05
0.00612771
-4.84103e-05
0.00612748
-1.85715e-05
0.00612573
1.11223e-05
0.00612248
4.05726e-05
0.00611777
6.96853e-05
0.00611165
9.83714e-05
0.00610415
0.000126547
0.00609533
0.000154132
0.00608525
0.000181052
0.00607396
0.000207238
0.00606152
0.000232626
0.00604799
0.000257157
0.00603345
0.000280779
0.00601797
0.000303443
0.0060016
0.000325106
0.00598442
0.000345731
0.00596651
0.000365286
0.000383748
0.00612454
-0.000235928
-0.00611319
0.00613422
-0.000205739
0.00614223
-0.0001751
0.00614855
-0.000144069
0.00615318
-0.000112736
0.00615612
-8.12287e-05
0.00615738
-4.96703e-05
0.00615698
-1.8176e-05
0.00615496
1.31443e-05
0.00615135
4.41857e-05
0.00614618
7.4848e-05
0.00613952
0.000105037
0.0061314
0.000134664
0.00612189
0.000163645
0.00611104
0.000191901
0.00609892
0.000219358
0.00608559
0.000245952
0.00607113
0.00027162
0.0060556
0.000296307
0.00603908
0.000319963
0.00602165
0.000342542
0.00600337
0.000364007
0.00598433
0.000384324
0.00040347
0.00615449
-0.000247933
-0.00614249
0.00616471
-0.000215954
0.00617312
-0.000183509
0.00617971
-0.000150661
0.00618448
-0.000117507
0.00618744
-8.41873e-05
0.0061886
-5.08342e-05
0.006188
-1.75716e-05
0.00618566
1.54829e-05
0.00618163
4.82173e-05
0.00617595
8.05255e-05
0.00616868
0.000112308
0.00615987
0.00014347
0.00614959
0.000173925
0.0061379
0.00020359
0.00612488
0.000232386
0.00611058
0.000260246
0.0060951
0.000287105
0.0060785
0.000312906
0.00606086
0.000337596
0.00604228
0.000361128
0.00602282
0.000383464
0.00600258
0.000404568
0.000424418
0.00618617
-0.00617347
0.00619693
0.00620573
0.00621258
0.00621748
0.00622042
0.00622145
0.00622058
0.00621787
0.00621335
0.00620709
0.00619914
0.00618956
0.00617843
0.000185058
0.00616581
0.000216206
0.00615179
0.00024641
0.00613644
0.000275597
0.00611984
0.000303703
0.00610208
0.000330667
0.00608324
0.000356433
0.00606341
0.000380955
0.00604268
0.000404191
0.00602114
0.000426107
0.000446678
0.00620835
0.00619471
0.00617959
0.00616308
0.00614527
0.00612624
0.0061061
0.00608493
0.00606284
0.00603991
0.00546341
-0.000201339
-0.0054484
0.00018633
0.00549161
-0.000204306
0.000176105
0.00553274
-0.000206644
0.000165522
0.00558635
-0.000208214
0.000154601
0.00565186
-0.000208881
0.000143366
0.00572855
-0.00020852
0.000131839
-0.000207001
0.000120039
0.00547384
-0.000216815
-0.00545837
0.00550254
-0.000233006
0.0055442
-0.000248297
0.00559837
-0.000262388
0.00566448
-0.000274989
0.00574178
-0.000285821
-0.000294601
0.0054847
-0.000232786
-0.00546873
0.00551393
-0.000262232
0.00555614
-0.000290509
0.00561091
-0.000317155
0.00567764
-0.000341722
0.0057556
-0.000363778
-0.000382883
0.00549601
-0.000249282
-0.00547951
0.0055258
-0.000292019
0.0055686
-0.000333316
0.005624
-0.000372551
0.0056914
-0.000409119
0.00577005
-0.000442433
-0.000471892
0.00550779
-0.000266339
-0.00549073
0.00553817
-0.000322402
0.00558161
-0.000376756
0.00563767
-0.000428617
0.00570578
-0.000477223
0.00578518
-0.000521831
-0.000561676
0.00552005
-0.000283994
-0.0055024
0.00555107
-0.000353421
0.00559519
-0.00042087
0.00565197
-0.000485397
0.00572083
-0.000546081
0.00580102
-0.000602022
-0.000652288
0.00553284
-0.000302288
-0.00551454
0.00556454
-0.00038512
0.00560937
-0.000465705
0.00566691
-0.00054294
0.00573658
-0.000615743
0.00581761
-0.00068306
-0.000743784
0.00554617
-0.000321267
-0.00552719
0.00557859
-0.000417544
0.0056242
-0.000511309
0.00568255
-0.000601296
0.00575307
-0.000686265
0.00583502
-0.000765003
-0.000836227
0.00556007
-0.000340977
-0.00554036
0.00559327
-0.000450746
0.0056397
-0.000557736
0.00569892
-0.000660523
0.00577036
-0.000757707
0.00585328
-0.000847915
-0.000929681
0.00557458
-0.000361472
-0.00555408
0.00560861
-0.000484778
0.00565592
-0.000605043
0.00571607
-0.00072068
0.0057885
-0.000830132
0.00587245
-0.000931862
-0.00102422
0.00558972
-0.000382807
-0.00556839
0.00562465
-0.0005197
0.0056729
-0.000653292
0.00573405
-0.000781834
0.00580753
-0.000903609
0.00589258
-0.00101692
-0.00111992
0.00560555
-0.000405045
-0.00558331
0.00564143
-0.000555578
0.00569068
-0.00070255
0.0057529
-0.000844055
0.00582751
-0.000978215
0.00591376
-0.00110317
-0.00121686
0.00562209
-0.000428251
-0.00559888
0.00565899
-0.000592479
0.00570933
-0.000752891
0.0057727
-0.00090742
0.00584851
-0.00105403
0.00593603
-0.00119069
-0.00131514
0.00563939
-0.000452499
-0.00561515
0.0056774
-0.000630481
0.0057289
-0.000804394
0.00579349
-0.000972014
0.0058706
-0.00113114
0.00595949
-0.00127958
-0.00141486
0.00565751
-0.000477868
-0.00563214
0.00569669
-0.000669666
0.00574945
-0.000857146
0.00581536
-0.00103793
0.00589386
-0.00120964
0.00598422
-0.00136993
-0.0015161
0.00567648
-0.000504446
-0.00564991
0.00571694
-0.000710124
0.00577104
-0.00091124
0.00583836
-0.00110525
0.00591836
-0.00128964
0.00601029
-0.00146186
-0.001619
0.00569638
-0.000532327
-0.0056685
0.00573821
-0.000751954
0.00579375
-0.000966779
0.0058626
-0.0011741
0.0059442
-0.00137125
0.00603782
-0.00155549
-0.00172367
0.00571725
-0.000561615
-0.00568796
0.00576056
-0.000795262
0.00581765
-0.00102387
0.00588814
-0.00124459
0.00597147
-0.00145458
0.00606691
-0.00165092
-0.00183022
0.00573916
-0.000592423
-0.00570836
0.00578407
-0.000840167
0.00584284
0.0059151
0.00600029
0.00609767
0.0057622
-0.00572974
0.00562985
-0.000175231
-0.00570105
0.000246435
0.0055692
-0.00017851
0.000239162
0.00551994
-0.000182179
0.000231438
0.00548276
-0.000186096
0.000223268
0.00545822
-0.000190116
0.000214659
0.00544669
-0.000194096
0.000205624
-0.000197886
0.000196175
0.0056377
-0.000104254
-0.00570867
0.00557731
-0.000118124
0.00552835
-0.000133223
0.00549152
-0.000149261
0.00546735
-0.000165944
0.00545622
-0.000182971
-0.000200032
0.0056458
-3.35245e-05
-0.00571653
0.0055857
-5.80247e-05
0.00553707
-8.45923e-05
0.0055006
-0.000112788
0.00547682
-0.000142168
0.00546613
-0.000172275
-0.000202639
0.00565416
3.69278e-05
-0.00572462
0.00559437
1.76975e-06
0.00554609
-3.63145e-05
0.00551001
-7.67018e-05
0.00548665
-0.000118814
0.00547641
-0.000162037
-0.000205739
0.00566277
0.000107089
-0.00573293
0.00560333
6.12068e-05
0.00555543
1.15931e-05
0.00551975
-4.10295e-05
0.00549685
-9.59133e-05
0.0054871
-0.000152288
-0.000209363
0.00567165
0.000176924
-0.00574149
0.00561257
0.000120286
0.00556508
5.90843e-05
0.00552985
-5.79848e-06
0.00550744
-7.35e-05
0.00549821
-0.000143062
-0.000213548
0.0056808
0.000246408
-0.00575028
0.00562211
0.000178972
0.00557506
0.000106141
0.00554032
2.89381e-05
0.00551842
-5.16034e-05
0.00550976
-0.000134397
-0.000218334
0.00569022
0.000315508
-0.00575932
0.00563196
0.000237229
0.00558538
0.000152722
0.00555116
6.3159e-05
0.00552982
-3.02673e-05
0.00552176
-0.000126333
-0.000223761
0.00569992
0.000384192
-0.0057686
0.00564212
0.000295021
0.00559606
0.00019879
0.00556239
9.68216e-05
0.00554166
-9.53088e-06
0.00553424
-0.000118917
-0.000229878
0.0057099
0.00045242
-0.00577813
0.00565261
0.000352309
0.0056071
0.000244304
0.00557403
0.000129884
0.00555395
1.05514e-05
0.00554723
-0.000112193
-0.000236733
0.00572017
0.000520151
-0.0057879
0.00566343
0.000409047
0.00561852
0.000289217
0.0055861
0.000162297
0.00556672
2.99322e-05
0.00556074
-0.000106212
-0.00024438
0.00573073
0.000587336
-0.00579791
0.00567459
0.000465187
0.00563033
0.000333478
0.00559862
0.000194006
0.00557999
4.85616e-05
0.00557481
-0.000101035
-0.000252878
0.00574159
0.000653925
-0.00580818
0.0056861
0.000520674
0.00564255
0.000377031
0.0056116
0.000224953
0.00559378
6.63789e-05
0.00558947
-9.6722e-05
-0.000262293
0.00575275
0.000719858
-0.00581868
0.00569797
0.000575449
0.00565519
0.000419814
0.00562507
0.000255074
0.00560813
8.33175e-05
0.00560475
-9.3341e-05
-0.000272693
0.0057642
0.000785069
-0.00582942
0.00571021
0.000629444
0.00566826
0.000461758
0.00563904
0.0002843
0.00562305
9.9305e-05
0.00562068
-9.09664e-05
-0.000284157
0.00577596
0.000849487
-0.00584038
0.00572282
0.000682585
0.00568179
0.000502787
0.00565354
0.000312552
0.00563858
0.000114262
0.0056373
-8.96799e-05
-0.000296767
0.00578802
0.000913027
-0.00585156
0.00573582
0.000734789
0.00569579
0.000542817
0.00566859
0.000339743
0.00565476
0.0001281
0.00565465
-8.9571e-05
-0.000310616
0.00580037
0.000975597
-0.00586294
0.0057492
0.000785963
0.00571026
0.000581753
0.00568422
0.000365778
0.0056716
0.000140721
0.00567277
-9.07397e-05
-0.000325805
0.005813
0.00576297
0.00572523
0.00570046
0.00568916
0.00569171
-9.32953e-05
-0.000342446
0.00571152
0.00537733
-0.000272993
0.000267102
0.00538348
-0.000277228
0.000271078
0.00538989
-0.000281395
0.00027498
0.00539658
-0.000285478
0.000278795
0.00540353
-0.00028946
0.000282504
0.00541076
-0.000293328
0.000286096
0.00541828
-0.000297063
0.000289553
0.00542607
-0.000300651
0.000292859
0.00543414
-0.000304071
0.000295999
0.00544249
-0.000307307
0.000298954
0.00545113
-0.00031034
0.000301706
0.00546004
-0.000313148
0.000304238
0.00546922
-0.000315713
0.000306529
0.00547867
-0.000318012
0.000308561
0.00548838
-0.000320025
0.000310313
0.00549835
-0.00032173
0.000311765
0.00550856
-0.000323105
0.000312897
0.005519
-0.000324128
0.000313689
0.00552965
-0.000324778
0.000314121
0.00554051
-0.000325031
0.000314172
0.00555156
-0.000324868
0.000313823
0.00556277
-0.000324266
0.000313055
0.00557412
-0.000323206
0.000311849
0.00558561
-0.000321669
0.000310188
0.00559719
-0.000319635
0.000308054
0.00560884
-0.000317087
0.000305434
0.00562054
-0.000314011
0.000302311
0.00563226
-0.000310391
0.000298675
0.00564396
-0.000306217
0.000294514
0.00565561
-0.000301476
0.000289819
0.00566719
-0.00029616
0.000284583
0.00567865
-0.000290262
0.000278799
0.00568996
-0.000283769
0.000272462
-0.000276649
0.000265558
0.00537302
-0.000278945
0.00537925
-0.000283452
0.00538575
-0.000287897
0.00539254
-0.000292263
0.00539961
-0.000296534
0.00540698
-0.000300694
0.00541464
-0.000304726
0.0054226
-0.000308611
0.00543086
-0.000312332
0.00543942
-0.000315868
0.00544828
-0.0003192
0.00545744
-0.000322306
0.00546689
-0.000325164
0.00547663
-0.000327753
0.00548666
-0.000330049
0.00549695
-0.000332028
0.00550752
-0.000333668
0.00551833
-0.000334944
0.00552939
-0.000335833
0.00554067
-0.00033631
0.00555215
-0.000336353
0.00556382
-0.000335938
0.00557566
-0.000335044
0.00558764
-0.000333648
0.00559974
-0.00033173
0.00561192
-0.000329271
0.00562416
-0.000326255
0.00563644
-0.000322664
0.0056487
-0.000318485
0.00566093
-0.000313706
0.00567309
-0.000308316
0.00568513
-0.000302305
0.00569702
-0.000295653
-0.000288305
0.00536846
-0.000284952
0.00537475
-0.000289745
0.00538134
-0.000294482
0.00538822
-0.000299147
0.00539541
-0.000303723
0.0054029
-0.000308192
0.00541072
-0.000312537
0.00541884
-0.00031674
0.00542729
-0.00032078
0.00543606
-0.000324637
0.00544515
-0.000328289
0.00545456
-0.000331714
0.00546428
-0.000334889
0.00547432
-0.00033779
0.00548466
-0.000340391
0.0054953
-0.000342669
0.00550623
-0.000344597
0.00551744
-0.00034615
0.00552891
-0.000347302
0.00554062
-0.000348026
0.00555257
-0.000348298
0.00556472
-0.000348092
0.00557706
-0.000347384
0.00558956
-0.00034615
0.0056022
-0.000344367
0.00561495
-0.000342015
0.00562776
-0.000339073
0.00564062
-0.000335524
0.00565349
-0.000331352
0.00566633
-0.000326544
0.0056791
-0.000321087
0.00569176
-0.000314966
0.00570426
-0.000308155
-0.000300571
0.00536362
-0.000291006
0.00536997
-0.000296099
0.00537663
-0.000301143
0.00538361
-0.000306123
0.00539091
-0.000311019
0.00539853
-0.000315816
0.00540649
-0.000320494
0.00541478
-0.000325033
0.00542341
-0.000329413
0.00543239
-0.000333613
0.00544171
-0.000337608
0.00545137
-0.000341376
0.00546137
-0.000344891
0.00547171
-0.000348128
0.00548238
-0.000351061
0.00549337
-0.000353662
0.00550468
-0.000355904
0.00551629
-0.00035776
0.00552819
-0.0003592
0.00554036
-0.000360197
0.00555278
-0.000360723
0.00556544
-0.00036075
0.00557831
-0.000360252
0.00559136
-0.000359201
0.00560457
-0.000357574
0.0056179
-0.000355347
0.00563132
-0.000352498
0.00564481
-0.000349007
0.00565831
-0.000344856
0.00567179
-0.000340029
0.00568522
-0.000334511
0.00569854
-0.000328285
0.0057117
-0.000321315
-0.000313489
0.00535849
-0.0002971
0.0053649
-0.000302506
0.00537163
-0.000307873
0.00537869
-0.000313183
0.00538609
-0.000318419
0.00539383
-0.000323561
0.00540193
-0.000328591
0.00541038
-0.000333488
0.0054192
-0.000338231
0.00542838
-0.000342795
0.00543793
-0.000347157
0.00544785
-0.000351292
0.00545813
-0.000355173
0.00546878
-0.000358773
0.00547978
-0.000362064
0.00549113
-0.000365016
0.00550283
-0.0003676
0.00551486
-0.000369786
0.0055272
-0.000371543
0.00553984
-0.00037284
0.00555277
-0.000373647
0.00556595
-0.000373934
0.00557937
-0.000373672
0.005593
-0.00037283
0.00560681
-0.000371382
0.00562076
-0.000369302
0.00563483
-0.000366565
0.00564897
-0.000363149
0.00566315
-0.000359033
0.00567732
-0.000354199
0.00569144
-0.000348631
0.00570546
-0.000342306
0.00571932
-0.000335178
-0.000327102
0.00535306
-0.000303223
0.00535951
-0.000308957
0.0053663
-0.000314662
0.00537344
-0.000320321
0.00538093
-0.000325914
0.00538879
-0.000331422
0.00539702
-0.000336825
0.00540564
-0.000342101
0.00541463
-0.000347228
0.00542402
-0.000352181
0.0054338
-0.000356936
0.00544397
-0.000361464
0.00545454
-0.000365738
0.00546549
-0.000369729
0.00547684
-0.000373407
0.00548856
-0.00037674
0.00550066
-0.000379696
0.00551311
-0.000382242
0.00552592
-0.000384346
0.00553905
-0.000385974
0.0055525
-0.000387093
0.00556623
-0.000387669
0.00558023
-0.00038767
0.00559446
-0.000387065
0.0056089
-0.000385822
0.00562351
-0.000383913
0.00563826
-0.00038131
0.0056531
-0.000377988
0.00566799
-0.000373925
0.00568289
-0.000369099
0.00569775
-0.000363491
0.00571252
-0.000357073
0.00572713
-0.00034979
-0.000341459
0.0053473
-0.000309364
0.00535379
-0.000315442
0.00536063
-0.000321503
0.00536784
-0.000327527
0.00537542
-0.000333496
0.00538338
-0.000339389
0.00539175
-0.000345186
0.00540051
-0.000350865
0.00540968
-0.000356401
0.00541927
-0.000361769
0.00542928
-0.000366942
0.00543971
-0.000371892
0.00545056
-0.000376589
0.00546183
-0.000381001
0.00547352
-0.000385097
0.00548562
-0.000388842
0.00549813
-0.000392202
0.00551103
-0.000395142
0.00552431
-0.000397627
0.00553795
-0.000399618
0.00555194
-0.000401081
0.00556625
-0.000401979
0.00558085
-0.000402276
0.00559573
-0.000401936
0.00561083
-0.000400927
0.00562614
-0.000399216
0.0056416
-0.000396773
0.00565718
-0.000393568
0.00567283
-0.000389577
0.0056885
-0.000384775
0.00570415
-0.000379139
0.00571972
-0.000372638
0.00573513
-0.000365204
-0.000356612
0.00534122
-0.000315514
0.00534772
-0.000321951
0.0053546
-0.000328383
0.00536187
-0.000334791
0.00536953
-0.000341155
0.00537759
-0.000347454
0.00538607
-0.000353669
0.00539498
-0.000359773
0.00540433
-0.000365744
0.00541411
-0.000371554
0.00542434
-0.000377174
0.00543503
-0.000382575
0.00544616
-0.000387725
0.00545775
-0.000392591
0.00546979
-0.000397138
0.00548228
-0.00040133
0.00549521
-0.00040513
0.00550857
-0.000408499
0.00552234
-0.0004114
0.00553651
-0.000413791
0.00555107
-0.000415634
0.00556598
-0.000416889
0.00558122
-0.000417516
0.00559676
-0.000417477
0.00561256
-0.000416734
0.0056286
-0.000415251
0.00564482
-0.000412994
0.00566118
-0.000409932
0.00567764
-0.000406035
0.00569414
-0.000401276
0.00571063
-0.000395628
0.00572705
-0.000389054
0.00574332
-0.000381472
-0.000372616
0.00533477
-0.000321658
0.00534129
-0.000328469
0.0053482
-0.00033529
0.00535551
-0.0003421
0.00536323
-0.00034888
0.00537139
-0.000355608
0.00537998
-0.000362262
0.00538903
-0.000368818
0.00539853
-0.00037525
0.00540851
-0.00038153
0.00541896
-0.000387628
0.0054299
-0.000393511
0.00544132
-0.000399148
0.00545323
-0.000404502
0.00546563
-0.000409536
0.00547851
-0.000414211
0.00549187
-0.000418488
0.00550569
-0.000422326
0.00551998
-0.000425682
0.0055347
-0.000428513
0.00554984
-0.000430776
0.00556538
-0.000432427
0.00558128
-0.000433422
0.00559753
-0.00043372
0.00561407
-0.000433279
0.00563088
-0.000432058
0.0056479
-0.000430019
0.0056651
-0.000427127
0.00568241
-0.00042335
0.00569979
-0.000418655
0.00571718
-0.000413013
0.0057345
-0.000406378
0.00575169
-0.000398657
-0.00038953
0.00532796
-0.000327782
0.00533448
-0.000334984
0.0053414
-0.00034221
0.00534874
-0.000349442
0.00535652
-0.000356658
0.00536475
-0.000363837
0.00537344
-0.000370956
0.00538261
-0.000377989
0.00539227
-0.00038491
0.00540243
-0.00039169
0.0054131
-0.000398296
0.00542429
-0.000404696
0.00543599
-0.000410854
0.00544822
-0.000416733
0.00546098
-0.000422293
0.00547426
-0.000427492
0.00548806
-0.000432287
0.00550237
-0.000436635
0.00551718
-0.000440489
0.00553247
-0.000443803
0.00554822
-0.000446528
0.00556441
-0.000448618
0.00558101
-0.000450025
0.00559799
-0.000450701
0.00561532
-0.000450601
0.00563294
-0.000449679
0.00565081
-0.000447894
0.00566889
-0.000445206
0.00568712
-0.000441576
0.00570543
-0.000436971
0.00572378
-0.000431354
0.00574207
-0.000424674
0.00576024
-0.00041682
-0.000407421
0.00532077
-0.000333871
0.00532726
-0.000341479
0.00533418
-0.000349129
0.00534154
-0.000356802
0.00534936
-0.000364475
0.00535765
-0.000372128
0.00536643
-0.000379736
0.00537571
-0.000387274
0.00538552
-0.000394714
0.00539585
-0.000402024
0.00540673
-0.000409173
0.00541816
-0.000416125
0.00543015
-0.000422842
0.0054427
-0.000429285
0.00545582
-0.000435411
0.0054695
-0.000441176
0.00548375
-0.000446535
0.00549855
-0.000451438
0.0055139
-0.000455837
0.00552977
-0.00045968
0.00554616
-0.000462916
0.00556304
-0.000465492
0.00558037
-0.000467356
0.00559812
-0.000468457
0.00561626
-0.000468742
0.00563475
-0.000468162
0.00565352
-0.00046667
0.00567254
-0.000464221
0.00569173
-0.000460773
0.00571105
-0.000456285
0.00573041
-0.000450717
0.00574975
-0.00044401
0.00576896
-0.000436034
-0.000426358
0.00531317
-0.000339907
0.00531963
-0.000347938
0.00532653
-0.000356029
0.00533389
-0.000364162
0.00534173
-0.000372315
0.00535006
-0.000380465
0.00535892
-0.000388589
0.0053683
-0.000396659
0.00537824
-0.000404648
0.00538873
-0.000412522
0.00539981
-0.000420248
0.00541147
-0.000427789
0.00542374
-0.000435105
0.00543661
-0.000442154
0.00545009
-0.000448891
0.00546418
-0.000455269
0.00547888
-0.000461237
0.00549419
-0.000466745
0.00551009
-0.000471739
0.00552658
-0.000476163
0.00554362
-0.000479962
0.00556121
-0.000483076
0.0055793
-0.00048545
0.00559787
-0.000487025
0.00561687
-0.000487745
0.00563626
-0.000487554
0.00565599
-0.0004864
0.005676
-0.000484232
0.00569623
-0.000481001
0.00571661
-0.000476664
0.00573707
-0.000471172
0.00575751
-0.000464458
0.00577785
-0.000456372
-0.000446419
0.00530515
-0.000345871
0.00531155
-0.00035434
0.00531841
-0.000362891
0.00532576
-0.000371504
0.0053336
-0.000380158
0.00534197
-0.00038883
0.00535087
-0.000397496
0.00536034
-0.000406129
0.00537039
-0.000414698
0.00538104
-0.00042317
0.0053923
-0.000431511
0.00540419
-0.00043968
0.00541673
-0.000447637
0.00542991
-0.000455336
0.00544375
-0.000462731
0.00545825
-0.00046977
0.00547341
-0.000476401
0.00548924
-0.000482567
0.00550571
-0.000488211
0.00552282
-0.000493272
0.00554055
-0.00049769
0.00555887
-0.0005014
0.00557776
-0.00050434
0.00559718
-0.000506446
0.00561709
-0.000507656
0.00563744
-0.000507907
0.00565818
-0.000507141
0.00567925
-0.000505299
0.00570058
-0.000502329
0.0057221
-0.000498179
0.00574372
-0.000492795
0.00576536
-0.000486099
0.00578691
-0.00047792
-0.000467688
0.0052967
-0.000351743
0.00530302
-0.000360666
0.00530982
-0.000369694
0.00531713
-0.000378808
0.00532495
-0.000387985
0.00533333
-0.000397204
0.00534227
-0.00040644
0.00535181
-0.000415664
0.00536195
-0.000424846
0.00537274
-0.000433952
0.00538417
-0.000442946
0.00539628
-0.000451785
0.00540907
-0.000460427
0.00542256
-0.000468825
0.00543675
-0.000476928
0.00545166
-0.000484681
0.00546729
-0.000492029
0.00548364
-0.000498911
0.00550069
-0.000505265
0.00551844
-0.000511025
0.00553688
-0.000516123
0.00555597
-0.000520492
0.00557569
-0.000524062
0.00559601
-0.000526762
0.00561687
-0.000528522
0.00563824
-0.000529274
0.00566005
-0.000528952
0.00568224
-0.00052749
0.00570474
-0.000524829
0.00572747
-0.000520909
0.00575034
-0.000515668
0.00577326
-0.00050902
0.00579611
-0.000500765
-0.000490256
0.00528779
-0.0003575
0.00529402
-0.000366892
0.00530074
-0.000376415
0.00530798
-0.000386049
0.00531576
-0.000395772
0.00532412
-0.000405563
0.00533308
-0.000415396
0.00534266
-0.000425243
0.00535288
-0.000435072
0.00536378
-0.00044485
0.00537537
-0.000454536
0.00538768
-0.000464089
0.00540071
-0.000473464
0.0054145
-0.00048261
0.00542904
-0.000491474
0.00544436
-0.000499999
0.00546046
-0.000508124
0.00547733
-0.000515784
0.00549498
-0.000522912
0.00551339
-0.000529437
0.00553255
-0.000535286
0.00555244
-0.000540383
0.00557303
-0.000544651
0.00559428
-0.000548014
0.00561615
-0.000550393
0.00563859
-0.000551713
0.00566154
-0.000551897
0.00568492
-0.000550875
0.00570867
-0.000548577
0.0057327
-0.000544936
0.00575691
-0.000539882
0.00578121
-0.000533315
0.00580545
-0.000525007
-0.000514224
0.00527841
-0.000363117
0.00528452
-0.000372994
0.00529113
-0.000383028
0.00529828
-0.000393202
0.005306
-0.000403494
0.00531432
-0.000413882