/*--------------------------------*- C++ -*----------------------------------*\
| =========                 |                                                 |
| \\      /  F ield         | OpenFOAM: The Open Source CFD Toolbox           |
|  \\    /   O peration     | Version:  2412                                  |
|   \\  /    A nd           | Website:  www.openfoam.com                      |
|    \\/     M anipulation  |                                                 |
\*---------------------------------------------------------------------------*/
FoamFile
{
    version     2.0;
    format      ascii;
    arch        "LSB;label=32;scalar=64";
    class       volVectorField;
    location    "26";
    object      vorticity;
}
// * * * * * * * * * * * * * * * * * * * * * * * * * * * * * * * * * * * * * //

dimensions      [0 0 -1 0 0 0 0];

internalField   nonuniform List<vector> 
5285
(
(0 1.42553e-23 -1.01989e-05)
(0 -0 -7.90237e-06)
(0 -0 -6.70858e-06)
(0 -0 -5.85778e-06)
(0 -0 -5.23168e-06)
(0 -0 -4.59766e-06)
(0 -0 -3.97589e-06)
(0 -0 -3.31727e-06)
(0 -0 -2.57607e-06)
(0 -0 -1.70455e-06)
(0 -0 -6.4974e-07)
(0 -0 6.48386e-07)
(0 -0 2.2576e-06)
(0 -0 4.25335e-06)
(0 -0 6.71796e-06)
(0 -0 9.73883e-06)
(0 -0 1.3405e-05)
(0 -0 1.78037e-05)
(0 -0 2.3016e-05)
(0 -0 2.91168e-05)
(0 -0 3.61945e-05)
(0 -0 4.4418e-05)
(0 -0 5.40559e-05)
(0 -0 6.489e-05)
(0 1.47286e-22 -8.87202e-06)
(0 -0 -8.46016e-06)
(0 -0 -7.88819e-06)
(0 -0 -7.55729e-06)
(0 -0 -7.10744e-06)
(0 -0 -6.58031e-06)
(0 -0 -6.03081e-06)
(0 -0 -5.4244e-06)
(0 -0 -4.72335e-06)
(0 -0 -3.88471e-06)
(0 -0 -2.85855e-06)
(0 -0 -1.58706e-06)
(0 -0 -4.06605e-09)
(0 -0 1.96462e-06)
(0 -0 4.40039e-06)
(0 -0 7.38966e-06)
(0 -0 1.10211e-05)
(0 -0 1.53811e-05)
(0 -0 2.05503e-05)
(0 -0 2.66037e-05)
(0 -0 3.36307e-05)
(0 -0 4.18063e-05)
(0 -0 5.14016e-05)
(0 -0 6.22179e-05)
(0 -1.32418e-22 -8.19611e-06)
(0 -0 -8.56037e-06)
(0 -0 -8.68131e-06)
(0 -0 -8.72416e-06)
(0 -0 -8.52387e-06)
(0 -0 -8.16827e-06)
(0 -0 -7.74194e-06)
(0 -0 -7.22686e-06)
(0 -0 -6.59634e-06)
(0 -0 -5.81473e-06)
(0 -0 -4.83727e-06)
(0 -0 -3.61008e-06)
(0 -0 -2.07022e-06)
(0 -0 -1.46146e-07)
(0 -0 2.24124e-06)
(0 -0 5.17616e-06)
(0 -0 8.74535e-06)
(0 -0 1.30334e-05)
(0 -0 1.81193e-05)
(0 -0 2.40769e-05)
(0 -0 3.09962e-05)
(0 -0 3.90582e-05)
(0 -0 4.85494e-05)
(0 -0 5.92971e-05)
(0 1.79775e-23 -8.21695e-06)
(0 -0 -9.06898e-06)
(0 -0 -9.42172e-06)
(0 -0 -9.68068e-06)
(0 -0 -9.65675e-06)
(0 -0 -9.44067e-06)
(0 -0 -9.1247e-06)
(0 -0 -8.69668e-06)
(0 -0 -8.13593e-06)
(0 -0 -7.4119e-06)
(0 -0 -6.48426e-06)
(0 -0 -5.30312e-06)
(0 -0 -3.80908e-06)
(0 -0 -1.93383e-06)
(0 -0 3.98432e-07)
(0 -0 3.26894e-06)
(0 -0 6.76117e-06)
(0 -0 1.09569e-05)
(0 -0 1.59324e-05)
(0 -0 2.17593e-05)
(0 -0 2.85277e-05)
(0 -0 3.64248e-05)
(0 -0 4.57539e-05)
(0 -0 5.63361e-05)
(0 3.1004e-22 -8.69909e-06)
(0 -0 -9.92167e-06)
(0 -0 -1.0314e-05)
(0 -0 -1.0644e-05)
(0 -0 -1.06967e-05)
(0 -0 -1.05534e-05)
(0 -0 -1.03031e-05)
(0 -0 -9.93149e-06)
(0 -0 -9.41856e-06)
(0 -0 -8.73565e-06)
(0 -0 -7.84503e-06)
(0 -0 -6.69966e-06)
(0 -0 -5.24338e-06)
(0 -0 -3.41131e-06)
(0 -0 -1.13134e-06)
(0 -0 1.67402e-06)
(0 -0 5.08421e-06)
(0 -0 9.17719e-06)
(0 -0 1.40255e-05)
(0 -0 1.96977e-05)
(0 -0 2.6283e-05)
(0 -0 3.39747e-05)
(0 -0 4.30924e-05)
(0 -0 5.34568e-05)
(0 -3.09986e-22 -9.28045e-06)
(0 -0 -1.09742e-05)
(0 -0 -1.13314e-05)
(0 -0 -1.16515e-05)
(0 -0 -1.17076e-05)
(0 -0 -1.15758e-05)
(0 -0 -1.13412e-05)
(0 -0 -1.0985e-05)
(0 -0 -1.04857e-05)
(0 -0 -9.81457e-06)
(0 -0 -8.93513e-06)
(0 -0 -7.80234e-06)
(0 -0 -6.36291e-06)
(0 -0 -4.55546e-06)
(0 -0 -2.31183e-06)
(0 -0 4.41007e-07)
(0 -0 3.7779e-06)
(0 -0 7.77189e-06)
(0 -0 1.24908e-05)
(0 -0 1.79995e-05)
(0 -0 2.43851e-05)
(0 -0 3.18468e-05)
(0 -0 4.07208e-05)
(0 -0 5.08258e-05)
(0 -7.38019e-22 -9.68274e-06)
(0 -0 -1.20244e-05)
(0 -0 -1.23311e-05)
(0 -0 -1.26059e-05)
(0 -0 -1.26208e-05)
(0 -0 -1.24533e-05)
(0 -0 -1.21873e-05)
(0 -0 -1.18012e-05)
(0 -0 -1.12715e-05)
(0 -0 -1.05697e-05)
(0 -0 -9.65995e-06)
(0 -0 -8.49934e-06)
(0 -0 -7.03733e-06)
(0 -0 -5.21639e-06)
(0 -0 -2.9728e-06)
(0 -0 -2.38715e-07)
(0 -0 3.05529e-06)
(0 -0 6.97626e-06)
(0 -0 1.15864e-05)
(0 -0 1.69453e-05)
(0 -0 2.31378e-05)
(0 -0 3.03683e-05)
(0 -0 3.89901e-05)
(0 -0 4.88199e-05)
(0 7.87733e-22 -9.70229e-06)
(0 -0 -1.28956e-05)
(0 -0 -1.31522e-05)
(0 -0 -1.33629e-05)
(0 -0 -1.33041e-05)
(0 -0 -1.30589e-05)
(0 -0 -1.27134e-05)
(0 -0 -1.22441e-05)
(0 -0 -1.16276e-05)
(0 -0 -1.08357e-05)
(0 -0 -9.83418e-06)
(0 -0 -8.58243e-06)
(0 -0 -7.03343e-06)
(0 -0 -5.13416e-06)
(0 -0 -2.8263e-06)
(0 -0 -4.81811e-08)
(0 -0 3.26277e-06)
(0 -0 7.16663e-06)
(0 -0 1.17185e-05)
(0 -0 1.69718e-05)
(0 -0 2.30078e-05)
(0 -0 3.00356e-05)
(0 -0 3.84259e-05)
(0 -0 4.79931e-05)
(0 -0 -9.18989e-06)
(0 -0 -1.3446e-05)
(0 -0 -1.36425e-05)
(0 -0 -1.37625e-05)
(0 -0 -1.35899e-05)
(0 -0 -1.32155e-05)
(0 -0 -1.27285e-05)
(0 -0 -1.21053e-05)
(0 -0 -1.13234e-05)
(0 -0 -1.03562e-05)
(0 -0 -9.17185e-06)
(0 -0 -7.73328e-06)
(0 -0 -5.99807e-06)
(0 -0 -3.91897e-06)
(0 -0 -1.44469e-06)
(0 -0 1.47877e-06)
(0 -0 4.90546e-06)
(0 -0 8.88691e-06)
(0 -0 1.34697e-05)
(0 -0 1.86996e-05)
(0 -0 2.46529e-05)
(0 -0 3.15425e-05)
(0 -0 3.97567e-05)
(0 -0 4.91071e-05)
(0 9.66222e-22 -8.0105e-06)
(0 -0 -1.35394e-05)
(0 -0 -1.3639e-05)
(0 -0 -1.36159e-05)
(0 -0 -1.32629e-05)
(0 -0 -1.26795e-05)
(0 -0 -1.19584e-05)
(0 -0 -1.10763e-05)
(0 -0 -1.00125e-05)
(0 -0 -8.74319e-06)
(0 -0 -7.24009e-06)
(0 -0 -5.47107e-06)
(0 -0 -3.40022e-06)
(0 -0 -9.88329e-07)
(0 -0 1.80676e-06)
(0 -0 5.02892e-06)
(0 -0 8.72185e-06)
(0 -0 1.29264e-05)
(0 -0 1.76789e-05)
(0 -0 2.30153e-05)
(0 -0 2.90055e-05)
(0 -0 3.58651e-05)
(0 -0 4.39998e-05)
(0 -0 5.32165e-05)
(0 -1.91874e-21 -6.00232e-06)
(0 -0 -1.30066e-05)
(0 -0 -1.29315e-05)
(0 -0 -1.26692e-05)
(0 -0 -1.20233e-05)
(0 -0 -1.11021e-05)
(0 -0 -1.00016e-05)
(0 -0 -8.69895e-06)
(0 -0 -7.17619e-06)
(0 -0 -5.41332e-06)
(0 -0 -3.38743e-06)
(0 -0 -1.07366e-06)
(0 -0 1.55445e-06)
(0 -0 4.52485e-06)
(0 -0 7.86689e-06)
(0 -0 1.16116e-05)
(0 -0 1.57896e-05)
(0 -0 2.04291e-05)
(0 -0 2.55534e-05)
(0 -0 3.11866e-05)
(0 -0 3.73898e-05)
(0 -0 4.43795e-05)
(0 -0 5.25782e-05)
(0 -0 6.17868e-05)
(0 2.11991e-21 -2.93219e-06)
(0 -0 -1.15963e-05)
(0 -0 -1.12097e-05)
(0 -0 -1.05471e-05)
(0 -0 -9.42555e-06)
(0 -0 -7.9621e-06)
(0 -0 -6.25561e-06)
(0 -0 -4.28376e-06)
(0 -0 -2.03256e-06)
(0 -0 5.12124e-07)
(0 -0 3.36494e-06)
(0 -0 6.54007e-06)
(0 -0 1.00498e-05)
(0 -0 1.39047e-05)
(0 -0 1.81169e-05)
(0 -0 2.27013e-05)
(0 -0 2.76731e-05)
(0 -0 3.30448e-05)
(0 -0 3.88241e-05)
(0 -0 4.502e-05)
(0 -0 5.16812e-05)
(0 -0 5.90229e-05)
(0 -0 6.74821e-05)
(0 -0 7.68518e-05)
(0 -1.08247e-21 1.56121e-06)
(0 -0 -8.90889e-06)
(0 -0 -7.98817e-06)
(0 -0 -6.67001e-06)
(0 -0 -4.78665e-06)
(0 -0 -2.46402e-06)
(0 -0 1.96606e-07)
(0 -0 3.21582e-06)
(0 -0 6.60112e-06)
(0 -0 1.03569e-05)
(0 -0 1.44852e-05)
(0 -0 1.89836e-05)
(0 -0 2.38415e-05)
(0 -0 2.90417e-05)
(0 -0 3.45749e-05)
(0 -0 4.04376e-05)
(0 -0 4.66278e-05)
(0 -0 5.31393e-05)
(0 -0 5.99598e-05)
(0 -0 6.70781e-05)
(0 -0 7.45254e-05)
(0 -0 8.2511e-05)
(0 -0 9.14848e-05)
(0 -0 0.000101227)
(0 3.65727e-23 8.04932e-06)
(0 -0 -4.30077e-06)
(0 -0 -2.49865e-06)
(0 -0 -1.32503e-07)
(0 -0 2.95031e-06)
(0 -0 6.61519e-06)
(0 -0 1.07574e-05)
(0 -0 1.53919e-05)
(0 -0 2.05141e-05)
(0 -0 2.61122e-05)
(0 -0 3.21682e-05)
(0 -0 3.86537e-05)
(0 -0 4.55189e-05)
(0 -0 5.26984e-05)
(0 -0 6.0164e-05)
(0 -0 6.78985e-05)
(0 -0 7.58813e-05)
(0 -0 8.4082e-05)
(0 -0 9.24595e-05)
(0 -0 0.000100974)
(0 -0 0.000109631)
(0 -0 0.000118629)
(0 -0 0.000128426)
(0 -0 0.000138788)
(0 3.91902e-23 1.74456e-05)
(0 -0 3.26233e-06)
(0 -0 6.46852e-06)
(0 -0 1.04733e-05)
(0 -0 1.54177e-05)
(0 -0 2.11552e-05)
(0 -0 2.75706e-05)
(0 -0 3.4664e-05)
(0 -0 4.24078e-05)
(0 -0 5.07631e-05)
(0 -0 5.96812e-05)
(0 -0 6.90938e-05)
(0 -0 7.88777e-05)
(0 -0 8.88714e-05)
(0 -0 9.90746e-05)
(0 -0 0.000109473)
(0 -0 0.000120019)
(0 -0 0.000130641)
(0 -0 0.000141252)
(0 -0 0.000151768)
(0 -0 0.000162163)
(0 -0 0.000172614)
(0 -0 0.000183585)
(0 -0 0.000194821)
(0 2.84047e-21 3.11816e-05)
(0 -0 1.53392e-05)
(0 -0 2.06791e-05)
(0 -0 2.71869e-05)
(0 -0 3.49758e-05)
(0 -0 4.38656e-05)
(0 -0 5.37104e-05)
(0 -0 6.44766e-05)
(0 -0 7.60968e-05)
(0 -0 8.8489e-05)
(0 -0 0.000101561)
(0 -0 0.000115189)
(0 -0 0.000129104)
(0 -0 0.000143294)
(0 -0 0.000157247)
(0 -0 0.000171375)
(0 -0 0.000185523)
(0 -0 0.000199533)
(0 -0 0.000213242)
(0 -0 0.000226508)
(0 -0 0.000239259)
(0 -0 0.000251652)
(0 -0 0.000264153)
(0 -0 0.000276479)
(0 -5.85174e-21 5.10057e-05)
(0 -0 3.41011e-05)
(0 -0 4.25414e-05)
(0 -0 5.28229e-05)
(0 -0 6.4897e-05)
(0 -0 7.8487e-05)
(0 -0 9.33804e-05)
(0 -0 0.000109485)
(0 -0 0.000126672)
(0 -0 0.000144798)
(0 -0 0.000163716)
(0 -0 0.000183265)
(0 -0 0.000203411)
(0 -0 0.000222897)
(0 -0 0.000242587)
(0 -0 0.000261931)
(0 -0 0.000281078)
(0 -0 0.000299699)
(0 -0 0.000317536)
(0 -0 0.000334387)
(0 -0 0.000350139)
(0 -0 0.00036493)
(0 -0 0.000379226)
(0 -0 0.000392732)
(0 3.10539e-21 8.01036e-05)
(0 -0 6.22415e-05)
(0 -0 7.56125e-05)
(0 -0 9.18845e-05)
(0 -0 0.000110463)
(0 -0 0.000131003)
(0 -0 0.000153226)
(0 -0 0.000176965)
(0 -0 0.000202005)
(0 -0 0.000228117)
(0 -0 0.00025511)
(0 -0 0.000282875)
(0 -0 0.000310821)
(0 -0 0.000339212)
(0 -0 0.000365793)
(0 -0 0.000391694)
(0 -0 0.000417682)
(0 -0 0.000442273)
(0 -0 0.000465258)
(0 -0 0.000486424)
(0 -0 0.000505648)
(0 -0 0.000523064)
(0 -0 0.000539162)
(0 -0 0.000553611)
(0 -0 0.000506873)
(0 -0 0.000543336)
(0 -0 0.000578448)
(0 -0 0.00061131)
(0 -0 0.000643002)
(0 -0 0.000671863)
(0 -0 0.000697746)
(0 -0 0.00072054)
(0 -0 0.000740393)
(0 -0 0.000757818)
(0 -0 0.000772578)
(-3.11847e-22 -9.13235e-21 1.63877e-05)
(-3.13914e-22 -9.1363e-21 1.41239e-05)
(-5.77134e-22 -1.822e-20 1.07042e-05)
(1.01822e-21 3.61639e-20 6.45896e-06)
(-9.78056e-22 -3.57738e-20 1.89489e-06)
(-2.584e-21 -1.06671e-19 -1.39591e-06)
(5.5116e-22 1.74589e-20 -2.44325e-06)
(-3.29872e-22 -9.11663e-21 8.56903e-06)
(-6.59517e-22 -1.82607e-20 8.49625e-06)
(-1.74058e-21 -5.46352e-20 7.58217e-06)
(-5.82647e-22 -1.81599e-20 5.83604e-06)
(1.12263e-21 3.58758e-20 4.66896e-06)
(1.43614e-21 5.32883e-20 7.28779e-06)
(3.60674e-21 1.59099e-19 2.18232e-05)
(1.43813e-23 -1.6106e-23 -1.56449e-07)
(-3.28303e-22 -9.26821e-21 1.49345e-06)
(2.31475e-21 7.27077e-20 2.28997e-06)
(6.72828e-23 -1.02509e-22 2.76382e-06)
(3.96891e-21 1.44413e-19 4.88213e-06)
(7.21226e-22 1.81741e-20 1.44885e-05)
(-3.46246e-21 -1.41896e-19 4.65198e-05)
(3.52256e-22 9.11804e-21 -9.10066e-06)
(3.2008e-22 9.20768e-21 -6.21837e-06)
(-4.86923e-21 -1.45967e-19 -3.96034e-06)
(6.07697e-22 1.83035e-20 -1.58775e-06)
(-8.64429e-21 -2.8972e-19 3.80329e-06)
(7.31571e-21 2.69898e-19 2.13448e-05)
(9.00985e-22 1.816e-20 7.30458e-05)
(3.4462e-22 9.15332e-21 -1.80987e-05)
(-3.73778e-22 -9.38059e-21 -1.41893e-05)
(1.10921e-20 3.10074e-19 -1.07213e-05)
(2.44058e-22 1.85769e-22 -6.64236e-06)
(4.11541e-21 1.27154e-19 2.11592e-06)
(-7.5556e-21 -2.70876e-19 2.86623e-05)
(6.85949e-21 2.69789e-19 0.000102351)
(-4.05095e-22 -9.12774e-21 -2.71649e-05)
(-3.49628e-22 -9.03028e-21 -2.2372e-05)
(-5.57018e-21 -1.46245e-19 -1.78494e-05)
(9.86217e-21 2.91999e-19 -1.21593e-05)
(4.70863e-22 1.81604e-20 1.67891e-07)
(7.90007e-21 2.7302e-19 3.69703e-05)
(-8.20101e-21 -2.70761e-19 0.00013521)
(-1.21463e-21 -2.73417e-20 -3.64283e-05)
(-1.10538e-21 -2.74343e-20 -3.08313e-05)
(2.01596e-22 5.35266e-22 -2.53454e-05)
(-1.9921e-20 -5.48339e-19 -1.80699e-05)
(-6.56427e-22 -1.80999e-20 -1.87899e-06)
(-1.79381e-20 -6.01195e-19 4.66363e-05)
(-1.53118e-20 -5.6602e-19 0.000172304)
(1.26014e-21 2.72784e-20 -4.60406e-05)
(5.65446e-22 9.13848e-21 -3.96862e-05)
(1.08974e-21 1.80215e-20 -3.32911e-05)
(1.13829e-20 2.92794e-19 -2.44121e-05)
(-9.85813e-24 -7.55732e-22 -3.98622e-06)
(2.75325e-20 8.42871e-19 5.79142e-05)
(1.82667e-20 6.05173e-19 0.000214238)
(3.98931e-22 9.01428e-21 -5.61702e-05)
(5.31407e-21 1.18729e-19 -4.90835e-05)
(1.31078e-20 3.12109e-19 -4.18113e-05)
(-5.77557e-22 -1.80241e-20 -3.12821e-05)
(6.52369e-22 1.91438e-20 -6.1851e-06)
(-2.14636e-20 -5.88847e-19 7.09966e-05)
(1.65395e-22 -7.64844e-22 0.000261594)
(1.84638e-24 1.80983e-22 -6.69698e-05)
(-7.88501e-21 -1.64264e-19 -5.91633e-05)
(-1.29892e-20 -2.93975e-19 -5.1035e-05)
(1.35662e-20 3.31444e-19 -3.87922e-05)
(-2.32575e-21 -3.56587e-20 -8.53099e-06)
(-2.07178e-20 -5.94607e-19 8.60654e-05)
(1.84315e-20 6.13006e-19 0.000314974)
(4.49368e-22 9.34969e-21 -7.85479e-05)
(-7.44172e-21 -1.55941e-19 -7.00368e-05)
(3.51791e-22 2.24606e-22 -6.10741e-05)
(-1.28633e-20 -2.93948e-19 -4.70454e-05)
(-2.33133e-20 -5.94193e-19 -1.10728e-05)
(1.09315e-21 -1.92048e-20 0.000103329)
(-3.86511e-20 -1.17891e-18 0.000375049)
(-3.9226e-22 -9.33131e-21 -9.09986e-05)
(7.09809e-21 1.37336e-19 -8.17995e-05)
(5.51649e-23 1.25991e-22 -7.20227e-05)
(1.42239e-21 -8.52227e-22 -5.6124e-05)
(2.50021e-20 6.10943e-19 -1.38317e-05)
(4.35281e-20 1.17782e-18 0.000123055)
(4.40608e-20 1.2274e-18 0.000442597)
(4.02083e-21 7.3208e-20 -0.000104409)
(-1.6075e-22 8.96149e-23 -9.45303e-05)
(5.18348e-22 -9.28088e-22 -8.39485e-05)
(2.65349e-20 5.95684e-19 -6.60749e-05)
(-2.58273e-20 -5.77018e-19 -1.67784e-05)
(-5.02961e-20 -1.22375e-18 0.000145603)
(-2.38801e-20 -6.09132e-19 0.000518548)
(-9.14869e-21 -1.55525e-19 -0.000118839)
(4.78725e-22 8.45746e-21 -0.000108274)
(1.63654e-20 3.16851e-19 -9.68737e-05)
(-5.73306e-20 -1.1917e-18 -7.68858e-05)
(2.76602e-20 5.96429e-19 -1.98028e-05)
(2.66353e-20 5.68523e-19 0.000171473)
(1.85477e-21 2.03919e-20 0.000604055)
(5.29176e-21 8.23613e-20 -0.000134321)
(-1.62127e-21 -2.70757e-20 -0.000123027)
(-1.64314e-20 -2.798e-19 -0.000110753)
(6.10348e-20 1.19467e-18 -8.84583e-05)
(-1.0187e-21 7.55913e-22 -2.26749e-05)
(2.70903e-20 5.91871e-19 0.00020137)
(3.49796e-21 2.11473e-20 0.000700582)
(4.04362e-21 6.42374e-20 -0.000150858)
(8.06127e-23 -8.07188e-21 -0.000138712)
(-3.09548e-20 -5.74472e-19 -0.000125435)
(-6.43389e-20 -1.18162e-18 -0.00010057)
(1.24517e-21 -3.39458e-21 -2.49893e-05)
(2.2845e-20 5.93944e-19 0.000236309)
(4.81907e-20 1.24734e-18 0.000810055)
(-4.35899e-21 -6.45837e-20 -0.000168408)
(1.75184e-20 2.84544e-19 -0.000155102)
(7.23772e-20 1.20984e-18 -0.000140512)
(3.40934e-20 5.82977e-19 -0.00011275)
(2.99082e-20 6.16591e-19 -2.59891e-05)
(-1.18724e-19 -2.48122e-18 0.000277921)
(-1.09686e-19 -2.49593e-18 0.000934807)
(-5.05046e-22 -8.09908e-21 -0.000186775)
(-4.00618e-20 -6.0068e-19 -0.000172166)
(-3.87803e-20 -5.97743e-19 -0.000155862)
(-1.06644e-21 1.36383e-21 -0.000124267)
(-6.57025e-20 -1.20773e-18 -2.43876e-05)
(6.88454e-20 1.21662e-18 0.000328244)
(6.36215e-20 1.28673e-18 0.00107838)
(6.59242e-22 8.73311e-21 -0.000206027)
(2.01606e-20 2.68544e-19 -0.000189559)
(1.00646e-21 1.91727e-20 -0.000171071)
(-1.50195e-21 -1.69989e-21 -0.000134631)
(3.47732e-20 6.29598e-19 -1.88592e-05)
(6.97635e-20 1.21828e-18 0.000390738)
(-1.94897e-21 2.24034e-20 0.00124588)
(-7.15807e-22 -9.94101e-21 -0.000224192)
(2.2424e-20 3.08833e-19 -0.00020675)
(7.73583e-22 1.72413e-20 2.64184e-05)
(1.61883e-21 3.50148e-20 2.51349e-05)
(4.33445e-23 -3.43572e-23 2.32496e-05)
(1.48239e-21 3.57768e-20 2.1575e-05)
(7.57827e-22 1.80882e-20 2.01834e-05)
(1.05605e-21 2.72725e-20 1.90923e-05)
(-3.34815e-22 -9.09173e-21 1.78677e-05)
(-5.96398e-21 -1.21275e-19 8.84492e-06)
(-4.02848e-21 -8.76618e-20 8.37424e-06)
(3.20124e-21 7.10139e-20 7.6484e-06)
(-7.67791e-22 -1.79321e-20 7.05938e-06)
(2.32286e-21 5.42176e-20 7.04163e-06)
(7.52647e-22 1.82211e-20 7.46228e-06)
(3.46242e-22 9.13456e-21 8.08424e-06)
(6.83151e-21 1.39097e-19 -4.24716e-06)
(7.77304e-22 1.76887e-20 -5.23994e-06)
(-1.00076e-20 -2.13379e-19 -6.15277e-06)
(-1.67793e-23 2.15504e-24 -6.30053e-06)
(-3.03995e-21 -7.21425e-20 -5.5284e-06)
(-3.79926e-22 -9.00505e-21 -4.03887e-06)
(-7.29488e-22 -1.82026e-20 -2.1492e-06)
(8.24875e-22 1.75818e-20 -1.63358e-05)
(-1.53797e-20 -3.00547e-19 -1.74146e-05)
(1.38817e-20 2.8503e-19 -1.85863e-05)
(8.21863e-22 1.79889e-20 -1.85817e-05)
(6.49009e-21 1.4475e-19 -1.73271e-05)
(-2.71179e-21 -6.3421e-20 -1.50947e-05)
(-3.52975e-22 -9.17177e-21 -1.22431e-05)
(-1.64533e-20 -2.9908e-19 -2.87521e-05)
(1.54919e-20 3.0107e-19 -2.92128e-05)
(-8.05585e-21 -1.60559e-19 -3.04645e-05)
(-1.17633e-22 5.43921e-23 -3.02762e-05)
(-1.26689e-20 -2.71177e-19 -2.86122e-05)
(-4.17049e-22 -9.23992e-21 -2.57728e-05)
(1.15754e-21 2.72771e-20 -2.21464e-05)
(1.68313e-20 3.00168e-19 -4.21307e-05)
(-1.67628e-20 -3.02576e-19 -4.13035e-05)
(9.71672e-22 1.79602e-20 -4.23878e-05)
(-1.46551e-20 -2.88352e-19 -4.1879e-05)
(7.00763e-21 1.44508e-19 -3.97606e-05)
(-3.87256e-21 -8.16726e-20 -3.63328e-05)
(-3.94301e-22 -9.14121e-21 -3.20059e-05)
(3.5184e-20 5.86187e-19 -5.68733e-05)
(3.12624e-20 5.53686e-19 -5.41053e-05)
(-9.77336e-22 -1.8086e-20 -5.47885e-05)
(3.2421e-20 6.12928e-19 -5.37974e-05)
(-1.0664e-22 3.34085e-22 -5.11205e-05)
(2.18043e-21 4.53021e-20 -4.70497e-05)
(2.12026e-21 4.56097e-20 -4.20193e-05)
(2.47401e-21 1.9198e-20 -7.32609e-05)
(-5.35553e-20 -8.96204e-19 -6.78661e-05)
(5.59782e-23 -2.54818e-22 -6.79617e-05)
(-1.58829e-20 -2.88613e-19 -6.63192e-05)
(7.6943e-22 1.79347e-20 -6.29334e-05)
(2.71819e-22 9.14499e-21 -5.8132e-05)
(-2.19406e-21 -4.54946e-20 -5.23673e-05)
(1.39459e-21 7.53338e-22 -9.15466e-05)
(3.55399e-20 5.7501e-19 -8.27793e-05)
(1.0372e-21 1.8317e-20 -8.20901e-05)
(-1.08346e-21 -1.78412e-20 -7.96236e-05)
(-1.5162e-20 -2.72085e-19 -7.53864e-05)
(-9.17832e-21 -1.73009e-19 -6.9773e-05)
(5.05257e-22 8.94445e-21 -6.32356e-05)
(-3.6291e-20 -5.5895e-19 -0.000111986)
(3.79395e-20 5.78191e-19 -9.90122e-05)
(-1.87307e-21 -3.5703e-20 -9.73279e-05)
(-1.53782e-20 -2.54103e-19 -9.38608e-05)
(1.64957e-20 2.89722e-19 -8.86629e-05)
(7.08091e-21 1.27328e-19 -8.21581e-05)
(1.0656e-24 1.06372e-22 -7.47944e-05)
(4.23237e-20 5.98969e-19 -0.000134845)
(-4.79825e-22 -1.69609e-20 -0.000116724)
(3.82577e-20 5.80537e-19 -0.000113827)
(1.84422e-20 2.90266e-19 -0.000109183)
(-2.21137e-22 8.98575e-23 -0.000102898)
(7.76497e-21 1.36595e-19 -9.53995e-05)
(4.9926e-22 9.22407e-21 -8.71502e-05)
(-8.37795e-20 -1.14782e-18 -0.000160403)
(-8.26817e-20 -1.18309e-18 -0.000136071)
(-3.73319e-20 -5.64097e-19 -0.000131726)
(3.75906e-20 5.81918e-19 -0.000125719)
(-5.00216e-23 6.94005e-22 -0.000118195)
(-9.23791e-21 -1.5448e-19 -0.000109587)
(-6.33091e-22 -9.24176e-21 -0.000100393)
(4.42565e-20 5.85155e-19 -0.000188957)
(8.5103e-20 1.15073e-18 -0.000157207)
(4.3596e-20 6.03928e-19 -0.000151149)
(-7.8934e-20 -1.16465e-18 -0.000143569)
(-3.03862e-22 -1.00339e-21 -0.000134641)
(1.64116e-22 8.17556e-23 -0.000124818)
(-4.25686e-21 -7.31914e-20 -0.000114617)
(1.15914e-21 1.89715e-20 -0.000220829)
(-4.82278e-20 -6.22345e-19 -0.000180293)
(-4.28328e-20 -5.8581e-19 -0.000172219)
(8.31659e-20 1.16706e-18 -0.000162825)
(-1.87907e-20 -2.7267e-19 -0.000152316)
(5.488e-22 8.65679e-21 -0.000141165)
(8.51111e-21 1.37193e-19 -0.00012989)
(6.3104e-22 1.92964e-20 -0.000256367)
(-5.02783e-20 -6.08363e-19 -0.000205489)
(4.64306e-22 6.22558e-22 -0.000195057)
(-8.70507e-20 -1.16993e-18 -0.000183575)
(2.27446e-20 3.08571e-19 -0.000171288)
(-1.48916e-21 -2.69541e-20 -0.000158684)
(-4.33775e-21 -6.40155e-20 -0.000146262)
(-1.04885e-19 -1.19408e-18 -0.000295947)
(-5.23971e-20 -6.13833e-19 -0.000232962)
(6.36865e-23 -1.99397e-21 -0.000219774)
(9.34396e-20 1.1894e-18 -0.000205888)
(4.42106e-20 6.04911e-19 -0.000191612)
(1.98317e-20 2.84528e-19 -0.000177431)
(-5.51612e-21 -8.21366e-20 -0.000163773)
(2.21223e-19 2.41622e-18 -0.000339622)
(2.07752e-19 2.36107e-18 -0.000262904)
(7.05309e-22 2.83672e-21 -0.000246468)
(-4.96056e-20 -6.03143e-19 -0.000229788)
(-9.01468e-20 -1.15277e-18 -0.000213325)
(-4.43553e-20 -5.95981e-19 -0.000197499)
(5.86128e-21 8.15348e-20 -0.000182479)
(-1.12956e-19 -1.18491e-18 -0.000386939)
(-1.13042e-19 -1.21203e-18 -0.000294392)
(5.49964e-20 6.10157e-19 -0.000275299)
(6.38095e-22 -9.20906e-23 -0.000255277)
(4.83795e-20 5.85168e-19 -0.000236025)
(2.24123e-20 2.8416e-19 -0.000218506)
(-8.09691e-22 -8.71747e-21 -0.000202445)
(2.81758e-21 2.02024e-20 -0.000439891)
(-1.24529e-19 -1.23676e-18 -0.000328324)
(-5.30576e-20 -5.75853e-19 -0.000304931)
(9.2965e-22 -8.64927e-22 -0.00028231)
(1.72879e-21 1.84147e-20 -0.000260195)
(-2.68199e-21 -2.74459e-20 -0.000239778)
(7.29683e-22 9.10085e-21 -0.000222108)
(2.32738e-22 1.02218e-20 -0.000262604)
(-7.83959e-22 -9.13926e-21 -0.000242381)
(0 -0 3.03413e-05)
(0 -0 2.86992e-05)
(0 -0 2.6986e-05)
(0 -0 2.58838e-05)
(0 -0 2.50021e-05)
(0 -0 2.40775e-05)
(0 -0 2.31133e-05)
(0 -0 2.21104e-05)
(0 -0 2.10699e-05)
(0 -0 1.99932e-05)
(0 -0 1.88827e-05)
(0 -0 1.77412e-05)
(0 -0 1.65724e-05)
(0 -0 1.53809e-05)
(0 -0 1.41721e-05)
(0 -0 1.29524e-05)
(0 -0 1.17289e-05)
(0 -0 1.05092e-05)
(0 -0 9.30173e-06)
(0 -0 8.11494e-06)
(0 -0 6.9575e-06)
(0 -0 5.83788e-06)
(0 -0 4.76422e-06)
(0 -0 3.74409e-06)
(0 -0 2.78439e-06)
(0 -0 1.89175e-06)
(0 -0 1.07406e-06)
(0 -0 3.46094e-07)
(0 -0 -2.52306e-07)
(0 -0 -5.97335e-07)
(0 -0 -2.98697e-07)
(0 -0 1.8297e-06)
(0 -0 9.17416e-06)
(0 -1.29123e-24 2.95578e-05)
(0 -0 2.59709e-05)
(0 -0 2.43897e-05)
(0 -0 2.27567e-05)
(0 -0 2.1702e-05)
(0 -0 2.08862e-05)
(0 -0 2.00342e-05)
(0 -0 1.91496e-05)
(0 -0 1.82336e-05)
(0 -0 1.72879e-05)
(0 -0 1.63143e-05)
(0 -0 1.53155e-05)
(0 -0 1.42944e-05)
(0 -0 1.3255e-05)
(0 -0 1.22019e-05)
(0 -0 1.11404e-05)
(0 -0 1.00765e-05)
(0 -0 9.0168e-06)
(0 -0 7.96826e-06)
(0 -0 6.93814e-06)
(0 -0 5.9337e-06)
(0 -0 4.96205e-06)
(0 -0 4.02995e-06)
(0 -0 3.14363e-06)
(0 -0 2.30856e-06)
(0 -0 1.52959e-06)
(0 -0 8.11531e-07)
(0 -0 1.61539e-07)
(0 -0 -4.02968e-07)
(0 -0 -8.2684e-07)
(0 -0 -9.25636e-07)
(0 -0 -8.11808e-08)
(0 -0 3.75911e-06)
(0 -0 1.73237e-05)
(0 1.05184e-23 6.29408e-05)
(0 -0 2.18287e-05)
(0 -0 2.03052e-05)
(0 -0 1.87204e-05)
(0 -0 1.77291e-05)
(0 -0 1.69841e-05)
(0 -0 1.62077e-05)
(0 -0 1.54043e-05)
(0 -0 1.45761e-05)
(0 -0 1.37253e-05)
(0 -0 1.28544e-05)
(0 -0 1.19662e-05)
(0 -0 1.10642e-05)
(0 -0 1.01523e-05)
(0 -0 9.23522e-06)
(0 -0 8.31816e-06)
(0 -0 7.40685e-06)
(0 -0 6.50733e-06)
(0 -0 5.62589e-06)
(0 -0 4.76878e-06)
(0 -0 3.94204e-06)
(0 -0 3.15134e-06)
(0 -0 2.40177e-06)
(0 -0 1.6977e-06)
(0 -0 1.04262e-06)
(0 -0 4.39462e-07)
(0 -0 -1.08574e-07)
(0 -0 -5.94826e-07)
(0 -0 -9.98087e-07)
(0 -0 -1.24402e-06)
(0 -0 -1.07313e-06)
(0 -0 4.1503e-07)
(0 -0 6.33424e-06)
(0 -0 2.74453e-05)
(0 -1.24757e-23 0.000101654)
(0 -0 1.7958e-05)
(0 -0 1.64835e-05)
(0 -0 1.49537e-05)
(0 -0 1.40264e-05)
(0 -0 1.33512e-05)
(0 -0 1.26498e-05)
(0 -0 1.19271e-05)
(0 -0 1.11859e-05)
(0 -0 1.04288e-05)
(0 -0 9.6587e-06)
(0 -0 8.87886e-06)
(0 -0 8.09298e-06)
(0 -0 7.30526e-06)
(0 -0 6.52037e-06)
(0 -0 5.74346e-06)
(0 -0 4.97996e-06)
(0 -0 4.23548e-06)
(0 -0 3.51558e-06)
(0 -0 2.8256e-06)
(0 -0 2.17045e-06)
(0 -0 1.55441e-06)
(0 -0 9.81013e-07)
(0 -0 4.52805e-07)
(0 -0 -2.84952e-08)
(0 -0 -4.61773e-07)
(0 -0 -8.45329e-07)
(0 -0 -1.17264e-06)
(0 -0 -1.41754e-06)
(0 -0 -1.4831e-06)
(0 -0 -1.0223e-06)
(0 -0 1.19238e-06)
(0 -0 9.49139e-06)
(0 -0 3.91639e-05)
(0 -3.22358e-24 0.000145553)
(0 -0 1.44023e-05)
(0 -0 1.29782e-05)
(0 -0 1.15048e-05)
(0 -0 1.06397e-05)
(0 -0 1.0032e-05)
(0 -0 9.40338e-06)
(0 -0 8.7591e-06)
(0 -0 8.10219e-06)
(0 -0 7.43568e-06)
(0 -0 6.76283e-06)
(0 -0 6.08725e-06)
(0 -0 5.41288e-06)
(0 -0 4.74411e-06)
(0 -0 4.08567e-06)
(0 -0 3.44263e-06)
(0 -0 2.82018e-06)
(0 -0 2.22351e-06)
(0 -0 1.65753e-06)
(0 -0 1.12672e-06)
(0 -0 6.34919e-07)
(0 -0 1.85127e-07)
(0 -0 -2.20657e-07)
(0 -0 -5.81477e-07)
(0 -0 -8.97336e-07)
(0 -0 -1.16885e-06)
(0 -0 -1.3956e-06)
(0 -0 -1.57076e-06)
(0 -0 -1.66235e-06)
(0 -0 -1.5476e-06)
(0 -0 -7.80682e-07)
(0 -0 2.23297e-06)
(0 -0 1.31809e-05)
(0 -0 5.23719e-05)
(0 6.06683e-23 0.00019461)
(0 -0 1.11937e-05)
(0 -0 9.8203e-06)
(0 -0 8.40267e-06)
(0 -0 7.59775e-06)
(0 -0 7.05462e-06)
(0 -0 6.4955e-06)
(0 -0 5.92589e-06)
(0 -0 5.34914e-06)
(0 -0 4.76858e-06)
(0 -0 4.18785e-06)
(0 -0 3.61081e-06)
(0 -0 3.04167e-06)
(0 -0 2.48498e-06)
(0 -0 1.94559e-06)
(0 -0 1.42847e-06)
(0 -0 9.38623e-07)
(0 -0 4.80838e-07)
(0 -0 5.94429e-08)
(0 -0 -3.21863e-07)
(0 -0 -6.60257e-07)
(0 -0 -9.53941e-07)
(0 -0 -1.20229e-06)
(0 -0 -1.40585e-06)
(0 -0 -1.5663e-06)
(0 -0 -1.68579e-06)
(0 -0 -1.76496e-06)
(0 -0 -1.79633e-06)
(0 -0 -1.74124e-06)
(0 -0 -1.448e-06)
(0 -0 -3.61029e-07)
(0 -0 3.52002e-06)
(0 -0 1.73806e-05)
(0 -0 6.70657e-05)
(0 -6.16713e-23 0.0002491)
(0 -0 8.34815e-06)
(0 -0 7.0242e-06)
(0 -0 5.66068e-06)
(0 -0 4.91317e-06)
(0 -0 4.43107e-06)
(0 -0 3.93731e-06)
(0 -0 3.43768e-06)
(0 -0 2.93585e-06)
(0 -0 2.43549e-06)
(0 -0 1.94052e-06)
(0 -0 1.45512e-06)
(0 -0 9.83749e-07)
(0 -0 5.31156e-07)
(0 -0 1.02258e-07)
(0 -0 -2.97983e-07)
(0 -0 -6.64742e-07)
(0 -0 -9.93584e-07)
(0 -0 -1.2807e-06)
(0 -0 -1.52312e-06)
(0 -0 -1.71892e-06)
(0 -0 -1.86741e-06)
(0 -0 -1.96925e-06)
(0 -0 -2.02643e-06)
(0 -0 -2.0421e-06)
(0 -0 -2.01976e-06)
(0 -0 -1.96099e-06)
(0 -0 -1.85739e-06)
(0 -0 -1.66258e-06)
(0 -0 -1.19283e-06)
(0 -0 2.28058e-07)
(0 -0 5.04624e-06)
(0 -0 2.20935e-05)
(0 -0 8.33077e-05)
(0 -1.67449e-22 0.000309422)
(0 -0 5.86792e-06)
(0 -0 4.59115e-06)
(0 -0 3.2792e-06)
(0 -0 2.58559e-06)
(0 -0 2.16019e-06)
(0 -0 1.72684e-06)
(0 -0 1.29166e-06)
(0 -0 8.58633e-07)
(0 -0 4.31791e-07)
(0 -0 1.53416e-08)
(0 -0 -3.86217e-07)
(0 -0 -7.68129e-07)
(0 -0 -1.12545e-06)
(0 -0 -1.45316e-06)
(0 -0 -1.74625e-06)
(0 -0 -2.00006e-06)
(0 -0 -2.21047e-06)
(0 -0 -2.3741e-06)
(0 -0 -2.48861e-06)
(0 -0 -2.55293e-06)
(0 -0 -2.56737e-06)
(0 -0 -2.53377e-06)
(0 -0 -2.45544e-06)
(0 -0 -2.33683e-06)
(0 -0 -2.18276e-06)
(0 -0 -1.99551e-06)
(0 -0 -1.76544e-06)
(0 -0 -1.43746e-06)
(0 -0 -7.92631e-07)
(0 -0 9.77383e-07)
(0 -0 6.80722e-06)
(0 -0 2.73347e-05)
(0 -0 0.000101198)
(0 -3.18476e-23 0.000376082)
(0 -0 3.74317e-06)
(0 -0 2.51071e-06)
(0 -0 1.24715e-06)
(0 -0 6.03211e-07)
(0 -0 2.29417e-07)
(0 -0 -1.49211e-07)
(0 -0 -5.26239e-07)
(0 -0 -8.97338e-07)
(0 -0 -1.25814e-06)
(0 -0 -1.60406e-06)
(0 -0 -1.93025e-06)
(0 -0 -2.23163e-06)
(0 -0 -2.50303e-06)
(0 -0 -2.73926e-06)
(0 -0 -2.9353e-06)
(0 -0 -3.0866e-06)
(0 -0 -3.18924e-06)
(0 -0 -3.2402e-06)
(0 -0 -3.23774e-06)
(0 -0 -3.18154e-06)
(0 -0 -3.07283e-06)
(0 -0 -2.9145e-06)
(0 -0 -2.71105e-06)
(0 -0 -2.46818e-06)
(0 -0 -2.19187e-06)
(0 -0 -1.88499e-06)
(0 -0 -1.53621e-06)
(0 -0 -1.08079e-06)
(0 -0 -2.6118e-07)
(0 -0 1.87547e-06)
(0 -0 8.79848e-06)
(0 -0 3.31258e-05)
(0 -0 0.000120862)
(0 -2.68544e-23 0.000449694)
(0 -0 1.95376e-06)
(0 -0 7.62399e-07)
(0 -0 -4.5648e-07)
(0 -0 -1.05562e-06)
(0 -0 -1.3836e-06)
(0 -0 -1.71394e-06)
(0 -0 -2.03985e-06)
(0 -0 -2.35662e-06)
(0 -0 -2.65948e-06)
(0 -0 -2.94339e-06)
(0 -0 -3.20308e-06)
(0 -0 -3.43317e-06)
(0 -0 -3.62819e-06)
(0 -0 -3.78279e-06)
(0 -0 -3.89189e-06)
(0 -0 -3.95094e-06)
(0 -0 -3.95616e-06)
(0 -0 -3.90491e-06)
(0 -0 -3.79593e-06)
(0 -0 -3.62954e-06)
(0 -0 -3.40782e-06)
(0 -0 -3.13464e-06)
(0 -0 -2.81557e-06)
(0 -0 -2.45749e-06)
(0 -0 -2.06737e-06)
(0 -0 -1.64859e-06)
(0 -0 -1.1877e-06)
(0 -0 -6.0932e-07)
(0 -0 3.86411e-07)
(0 -0 2.91039e-06)
(0 -0 1.10168e-05)
(0 -0 3.9495e-05)
(0 -0 0.000142449)
(0 2.08698e-22 0.00053096)
(0 -0 4.71385e-07)
(0 -0 -6.8233e-07)
(0 -0 -1.86069e-06)
(0 -0 -2.42061e-06)
(0 -0 -2.70933e-06)
(0 -0 -2.99857e-06)
(0 -0 -3.2811e-06)
(0 -0 -3.55172e-06)
(0 -0 -3.80513e-06)
(0 -0 -4.03576e-06)
(0 -0 -4.23794e-06)
(0 -0 -4.4059e-06)
(0 -0 -4.53391e-06)
(0 -0 -4.6164e-06)
(0 -0 -4.64817e-06)
(0 -0 -4.6246e-06)
(0 -0 -4.54206e-06)
(0 -0 -4.39818e-06)
(0 -0 -4.19212e-06)
(0 -0 -3.92477e-06)
(0 -0 -3.59896e-06)
(0 -0 -3.21949e-06)
(0 -0 -2.7929e-06)
(0 -0 -2.32717e-06)
(0 -0 -1.83024e-06)
(0 -0 -1.30567e-06)
(0 -0 -7.37714e-07)
(0 -0 -3.91429e-08)
(0 -0 1.13622e-06)
(0 -0 4.07203e-06)
(0 -0 1.34626e-05)
(0 -0 4.64789e-05)
(0 -0 0.000166137)
(0 -2.85054e-22 0.000620683)
(0 -0 -7.37892e-07)
(0 -0 -1.8577e-06)
(0 -0 -3.0004e-06)
(0 -0 -3.52759e-06)
(0 -0 -3.78457e-06)
(0 -0 -4.04074e-06)
(0 -0 -4.28822e-06)
(0 -0 -4.52115e-06)
(0 -0 -4.73358e-06)
(0 -0 -4.91945e-06)
(0 -0 -5.07267e-06)
(0 -0 -5.18711e-06)
(0 -0 -5.25676e-06)
(0 -0 -5.2758e-06)
(0 -0 -5.23882e-06)
(0 -0 -5.14116e-06)
(0 -0 -4.97927e-06)
(0 -0 -4.75097e-06)
(0 -0 -4.45575e-06)
(0 -0 -4.09505e-06)
(0 -0 -3.6724e-06)
(0 -0 -3.19337e-06)
(0 -0 -2.6655e-06)
(0 -0 -2.09773e-06)
(0 -0 -1.49895e-06)
(0 -0 -8.72749e-07)
(0 -0 -2.00731e-07)
(0 -0 6.17417e-07)
(0 -0 1.97852e-06)
(0 -0 5.35514e-06)
(0 -0 1.61428e-05)
(0 -0 5.4126e-05)
(0 -0 0.000192128)
(0 5.75467e-22 0.00071977)
(0 -0 -1.71083e-06)
(0 -0 -2.80112e-06)
(0 -0 -3.91439e-06)
(0 -0 -4.41685e-06)
(0 -0 -4.65088e-06)
(0 -0 -4.88279e-06)
(0 -0 -5.10374e-06)
(0 -0 -5.30708e-06)
(0 -0 -5.48632e-06)
(0 -0 -5.63499e-06)
(0 -0 -5.74668e-06)
(0 -0 -5.81496e-06)
(0 -0 -5.83351e-06)
(0 -0 -5.79627e-06)
(0 -0 -5.69755e-06)
(0 -0 -5.53266e-06)
(0 -0 -5.29805e-06)
(0 -0 -4.99164e-06)
(0 -0 -4.6132e-06)
(0 -0 -4.16467e-06)
(0 -0 -3.65015e-06)
(0 -0 -3.07599e-06)
(0 -0 -2.45064e-06)
(0 -0 -1.78405e-06)
(0 -0 -1.0859e-06)
(0 -0 -3.59827e-07)
(0 -0 4.15684e-07)
(0 -0 1.35523e-06)
(0 -0 2.91113e-06)
(0 -0 6.76279e-06)
(0 -0 1.9074e-05)
(0 -0 6.24999e-05)
(0 -0 0.000220665)
(0 -3.09843e-22 0.000829254)
(0 -0 -2.4835e-06)
(0 -0 -3.55081e-06)
(0 -0 -4.64387e-06)
(0 -0 -5.13214e-06)
(0 -0 -5.35339e-06)
(0 -0 -5.56997e-06)
(0 -0 -5.77205e-06)
(0 -0 -5.95245e-06)
(0 -0 -6.10451e-06)
(0 -0 -6.22163e-06)
(0 -0 -6.2972e-06)
(0 -0 -6.32463e-06)
(0 -0 -6.29732e-06)
(0 -0 -6.20881e-06)
(0 -0 -6.05331e-06)
(0 -0 -5.8259e-06)
(0 -0 -5.52289e-06)
(0 -0 -5.14228e-06)
(0 -0 -4.68409e-06)
(0 -0 -4.15059e-06)
(0 -0 -3.54646e-06)
(0 -0 -2.87879e-06)
(0 -0 -2.15695e-06)
(0 -0 -1.39189e-06)
(0 -0 -5.94025e-07)
(0 -0 2.33008e-07)
(0 -0 1.11413e-06)
(0 -0 2.17967e-06)
(0 -0 3.94277e-06)
(0 -0 8.30947e-06)
(0 -0 2.22864e-05)
(0 -0 7.1684e-05)
(0 -0 0.00025203)
(0 -1.24358e-23 0.000950307)
(0 -0 -3.08722e-06)
(0 -0 -4.14536e-06)
(0 -0 -5.2337e-06)
(0 -0 -5.72146e-06)
(0 -0 -5.94029e-06)
(0 -0 -6.14866e-06)
(0 -0 -6.33667e-06)
(0 -0 -6.49764e-06)
(0 -0 -6.62538e-06)
(0 -0 -6.71358e-06)
(0 -0 -6.75569e-06)
(0 -0 -6.74494e-06)
(0 -0 -6.67438e-06)
(0 -0 -6.53725e-06)
(0 -0 -6.3274e-06)
(0 -0 -6.03956e-06)
(0 -0 -5.66983e-06)
(0 -0 -5.21617e-06)
(0 -0 -4.67875e-06)
(0 -0 -4.06013e-06)