/*--------------------------------*- C++ -*----------------------------------*\
| =========                 |                                                 |
| \\      /  F ield         | OpenFOAM: The Open Source CFD Toolbox           |
|  \\    /   O peration     | Version:  2412                                  |
|   \\  /    A nd           | Website:  www.openfoam.com                      |
|    \\/     M anipulation  |                                                 |
\*---------------------------------------------------------------------------*/
FoamFile
{
    version     2.0;
    format      ascii;
    arch        "LSB;label=32;scalar=64";
    class       volVectorField;
    location    "18.5";
    object      vorticity;
}
// * * * * * * * * * * * * * * * * * * * * * * * * * * * * * * * * * * * * * //

dimensions      [0 0 -1 0 0 0 0];

internalField   nonuniform List<vector> 
5285
(
(0 -0 -2.9594e-05)
(0 -0 -3.1356e-05)
(0 -0 -3.29453e-05)
(0 -0 -3.4365e-05)
(0 -0 -3.55728e-05)
(0 -0 -3.65879e-05)
(0 -0 -3.74224e-05)
(0 -0 -3.80811e-05)
(0 -0 -3.85718e-05)
(0 -0 -3.8908e-05)
(0 -0 -3.9106e-05)
(0 -0 -3.91817e-05)
(0 -0 -3.91497e-05)
(0 -0 -3.90236e-05)
(0 -0 -3.88167e-05)
(0 -0 -3.85415e-05)
(0 -0 -3.82094e-05)
(0 -0 -3.78301e-05)
(0 -0 -3.74116e-05)
(0 -0 -3.69605e-05)
(0 -0 -3.64816e-05)
(0 -0 -3.59789e-05)
(0 -0 -3.54553e-05)
(0 -0 -3.49135e-05)
(0 -0 -3.43559e-05)
(0 -0 -3.3785e-05)
(0 -0 -3.32039e-05)
(0 -0 -3.26159e-05)
(0 -0 -3.20245e-05)
(0 -0 -3.14326e-05)
(0 -0 -3.08418e-05)
(0 -0 -3.02528e-05)
(0 -0 -2.96656e-05)
(0 -0 -2.90805e-05)
(0 -0 -2.84985e-05)
(0 -0 -2.79208e-05)
(0 -0 -2.73491e-05)
(0 -0 -2.67844e-05)
(0 -0 -2.62275e-05)
(0 -0 -2.56775e-05)
(0 -0 -2.51329e-05)
(0 -0 -2.45931e-05)
(0 -0 -2.40582e-05)
(0 -0 -2.35319e-05)
(0 -0 -2.30146e-05)
(0 -0 -2.25108e-05)
(0 -0 -2.20165e-05)
(0 -0 -2.15389e-05)
(0 -0 -2.10613e-05)
(0 -0 -2.06099e-05)
(0 -0 -2.01362e-05)
(0 -0 -1.97196e-05)
(0 -0 -1.92312e-05)
(0 -0 -1.88752e-05)
(0 -0 -1.83222e-05)
(0 -0 -1.80663e-05)
(0 -0 -1.73604e-05)
(0 -0 -1.72943e-05)
(0 -0 -1.63158e-05)
(0 -0 -1.65795e-05)
(0 -0 -1.51589e-05)
(0 -0 -1.59007e-05)
(0 -0 -1.39105e-05)
(0 -0 -1.49315e-05)
(0 -0 -1.38024e-05)
(0 -0 -9.24747e-06)
(0 -0 -2.43968e-05)
(0 -0 1.05823e-05)
(0 -0 -2.76807e-05)
(0 -0 -1.70141e-05)
(0 -0 -1.20571e-05)
(0 -0 -2.66892e-05)
(0 -0 -2.82866e-05)
(0 -0 -2.97349e-05)
(0 -0 -3.10349e-05)
(0 -0 -3.21449e-05)
(0 -0 -3.3081e-05)
(0 -0 -3.38532e-05)
(0 -0 -3.44648e-05)
(0 -0 -3.49223e-05)
(0 -0 -3.52382e-05)
(0 -0 -3.54276e-05)
(0 -0 -3.55055e-05)
(0 -0 -3.54852e-05)
(0 -0 -3.53794e-05)
(0 -0 -3.52001e-05)
(0 -0 -3.49588e-05)
(0 -0 -3.4666e-05)
(0 -0 -3.43306e-05)
(0 -0 -3.39598e-05)
(0 -0 -3.35594e-05)
(0 -0 -3.31342e-05)
(0 -0 -3.26876e-05)
(0 -0 -3.22224e-05)
(0 -0 -3.17409e-05)
(0 -0 -3.12455e-05)
(0 -0 -3.07383e-05)
(0 -0 -3.02222e-05)
(0 -0 -2.97002e-05)
(0 -0 -2.91752e-05)
(0 -0 -2.86499e-05)
(0 -0 -2.81258e-05)
(0 -0 -2.76035e-05)
(0 -0 -2.70829e-05)
(0 -0 -2.65645e-05)
(0 -0 -2.60492e-05)
(0 -0 -2.5538e-05)
(0 -0 -2.50325e-05)
(0 -0 -2.45334e-05)
(0 -0 -2.40415e-05)
(0 -0 -2.35559e-05)
(0 -0 -2.30752e-05)
(0 -0 -2.2599e-05)
(0 -0 -2.21274e-05)
(0 -0 -2.16635e-05)
(0 -0 -2.12077e-05)
(0 -0 -2.07642e-05)
(0 -0 -2.03288e-05)
(0 -0 -1.99085e-05)
(0 -0 -1.94874e-05)
(0 -0 -1.90914e-05)
(0 -0 -1.86731e-05)
(0 -0 -1.83098e-05)
(0 -0 -1.78761e-05)
(0 -0 -1.75706e-05)
(0 -0 -1.70739e-05)
(0 -0 -1.6866e-05)
(0 -0 -1.6222e-05)
(0 -0 -1.61982e-05)
(0 -0 -1.52915e-05)
(0 -0 -1.55856e-05)
(0 -0 -1.42568e-05)
(0 -0 -1.50089e-05)
(0 -0 -1.31324e-05)
(0 -0 -1.42141e-05)
(0 -0 -1.28312e-05)
(0 -0 -9.91327e-06)
(0 -0 -2.0186e-05)
(0 -0 3.56786e-06)
(0 -0 -1.85984e-05)
(0 -0 -1.95836e-05)
(0 -0 -1.45379e-05)
(0 -0 -2.38783e-05)
(0 -0 -2.53129e-05)
(0 -0 -2.66207e-05)
(0 -0 -2.78041e-05)
(0 -0 -2.88181e-05)
(0 -0 -2.96763e-05)
(0 -0 -3.03868e-05)
(0 -0 -3.09515e-05)
(0 -0 -3.13757e-05)
(0 -0 -3.16707e-05)
(0 -0 -3.18506e-05)
(0 -0 -3.19294e-05)
(0 -0 -3.19194e-05)
(0 -0 -3.18321e-05)
(0 -0 -3.16787e-05)
(0 -0 -3.14694e-05)
(0 -0 -3.12139e-05)
(0 -0 -3.092e-05)
(0 -0 -3.05946e-05)
(0 -0 -3.02428e-05)
(0 -0 -2.98688e-05)
(0 -0 -2.94758e-05)
(0 -0 -2.90665e-05)
(0 -0 -2.86429e-05)
(0 -0 -2.8207e-05)
(0 -0 -2.7761e-05)
(0 -0 -2.73073e-05)
(0 -0 -2.68485e-05)
(0 -0 -2.63873e-05)
(0 -0 -2.5926e-05)
(0 -0 -2.54659e-05)
(0 -0 -2.50076e-05)
(0 -0 -2.4551e-05)
(0 -0 -2.40966e-05)
(0 -0 -2.36453e-05)
(0 -0 -2.31981e-05)
(0 -0 -2.27561e-05)
(0 -0 -2.23201e-05)
(0 -0 -2.18904e-05)
(0 -0 -2.14666e-05)
(0 -0 -2.10472e-05)
(0 -0 -2.06319e-05)
(0 -0 -2.02209e-05)
(0 -0 -1.9817e-05)
(0 -0 -1.94202e-05)
(0 -0 -1.90344e-05)
(0 -0 -1.86554e-05)
(0 -0 -1.82901e-05)
(0 -0 -1.79231e-05)
(0 -0 -1.75799e-05)
(0 -0 -1.72147e-05)
(0 -0 -1.69024e-05)
(0 -0 -1.6521e-05)
(0 -0 -1.62639e-05)
(0 -0 -1.58211e-05)
(0 -0 -1.5659e-05)
(0 -0 -1.50746e-05)
(0 -0 -1.50908e-05)
(0 -0 -1.42537e-05)
(0 -0 -1.4576e-05)
(0 -0 -1.33369e-05)
(0 -0 -1.40974e-05)
(0 -0 -1.23334e-05)
(0 -0 -1.34673e-05)
(0 -0 -1.18602e-05)
(0 -0 -1.04585e-05)
(0 -0 -1.62039e-05)
(0 -0 -2.90144e-06)
(0 -0 -1.00965e-05)
(0 -0 -2.19295e-05)
(0 -0 -1.67147e-05)
(0 -0 -2.11584e-05)
(0 -0 -2.24352e-05)
(0 -0 -2.36096e-05)
(0 -0 -2.46817e-05)
(0 -0 -2.56036e-05)
(0 -0 -2.63869e-05)
(0 -0 -2.7038e-05)
(0 -0 -2.75573e-05)
(0 -0 -2.79491e-05)
(0 -0 -2.82235e-05)
(0 -0 -2.83936e-05)
(0 -0 -2.84725e-05)
(0 -0 -2.84715e-05)
(0 -0 -2.84013e-05)
(0 -0 -2.82718e-05)
(0 -0 -2.80925e-05)
(0 -0 -2.78718e-05)
(0 -0 -2.76171e-05)
(0 -0 -2.73342e-05)
(0 -0 -2.70281e-05)
(0 -0 -2.67023e-05)
(0 -0 -2.636e-05)
(0 -0 -2.60033e-05)
(0 -0 -2.56342e-05)
(0 -0 -2.52546e-05)
(0 -0 -2.48664e-05)
(0 -0 -2.44716e-05)
(0 -0 -2.40726e-05)
(0 -0 -2.36716e-05)
(0 -0 -2.32708e-05)
(0 -0 -2.28711e-05)
(0 -0 -2.24732e-05)
(0 -0 -2.20771e-05)
(0 -0 -2.16832e-05)
(0 -0 -2.12923e-05)
(0 -0 -2.09054e-05)
(0 -0 -2.05234e-05)
(0 -0 -2.01468e-05)
(0 -0 -1.9776e-05)
(0 -0 -1.94103e-05)
(0 -0 -1.90487e-05)
(0 -0 -1.86909e-05)
(0 -0 -1.83369e-05)
(0 -0 -1.79894e-05)
(0 -0 -1.76482e-05)
(0 -0 -1.73169e-05)
(0 -0 -1.69908e-05)
(0 -0 -1.66773e-05)
(0 -0 -1.63612e-05)
(0 -0 -1.60677e-05)
(0 -0 -1.57524e-05)
(0 -0 -1.5488e-05)
(0 -0 -1.51558e-05)
(0 -0 -1.4944e-05)
(0 -0 -1.45521e-05)
(0 -0 -1.44328e-05)
(0 -0 -1.39048e-05)
(0 -0 -1.39581e-05)
(0 -0 -1.31874e-05)
(0 -0 -1.35353e-05)
(0 -0 -1.23825e-05)
(0 -0 -1.31485e-05)
(0 -0 -1.14949e-05)
(0 -0 -1.26704e-05)
(0 -0 -1.08738e-05)
(0 -0 -1.08396e-05)
(0 -0 -1.24867e-05)
(0 -0 -8.67552e-06)
(0 -0 -2.29534e-06)
(0 -0 -2.39743e-05)
(0 -0 -1.84879e-05)
(0 -0 -1.85321e-05)
(0 -0 -1.96616e-05)
(0 -0 -2.07115e-05)
(0 -0 -2.16793e-05)
(0 -0 -2.2515e-05)
(0 -0 -2.32281e-05)
(0 -0 -2.38235e-05)
(0 -0 -2.43002e-05)
(0 -0 -2.46614e-05)
(0 -0 -2.49162e-05)
(0 -0 -2.50769e-05)
(0 -0 -2.51555e-05)
(0 -0 -2.51627e-05)
(0 -0 -2.51081e-05)
(0 -0 -2.50007e-05)
(0 -0 -2.4849e-05)
(0 -0 -2.46606e-05)
(0 -0 -2.44421e-05)
(0 -0 -2.41989e-05)
(0 -0 -2.39351e-05)
(0 -0 -2.36542e-05)
(0 -0 -2.33588e-05)
(0 -0 -2.3051e-05)
(0 -0 -2.27327e-05)
(0 -0 -2.24054e-05)
(0 -0 -2.20708e-05)
(0 -0 -2.17309e-05)
(0 -0 -2.13874e-05)
(0 -0 -2.10425e-05)
(0 -0 -2.06978e-05)
(0 -0 -2.03543e-05)
(0 -0 -2.00125e-05)
(0 -0 -1.96725e-05)
(0 -0 -1.93347e-05)
(0 -0 -1.9e-05)
(0 -0 -1.86691e-05)
(0 -0 -1.83428e-05)
(0 -0 -1.80214e-05)
(0 -0 -1.77051e-05)
(0 -0 -1.73933e-05)
(0 -0 -1.70852e-05)
(0 -0 -1.67805e-05)
(0 -0 -1.64794e-05)
(0 -0 -1.61841e-05)
(0 -0 -1.58944e-05)
(0 -0 -1.56133e-05)
(0 -0 -1.53365e-05)
(0 -0 -1.50707e-05)
(0 -0 -1.48016e-05)
(0 -0 -1.45541e-05)
(0 -0 -1.42849e-05)
(0 -0 -1.40647e-05)
(0 -0 -1.3778e-05)
(0 -0 -1.36079e-05)
(0 -0 -1.32632e-05)
(0 -0 -1.3183e-05)
(0 -0 -1.27077e-05)
(0 -0 -1.27944e-05)
(0 -0 -1.20862e-05)
(0 -0 -1.24563e-05)
(0 -0 -1.13856e-05)
(0 -0 -1.21538e-05)
(0 -0 -1.06072e-05)
(0 -0 -1.18124e-05)
(0 -0 -9.86388e-06)
(0 -0 -1.10292e-05)
(0 -0 -9.0639e-06)
(0 -0 -1.36488e-05)
(0 -0 4.71484e-06)
(0 -0 -2.56644e-05)
(0 -0 -1.97913e-05)
(0 -0 -1.60074e-05)
(0 -0 -1.70029e-05)
(0 -0 -1.79392e-05)
(0 -0 -1.88118e-05)
(0 -0 -1.95687e-05)
(0 -0 -2.02177e-05)
(0 -0 -2.07622e-05)
(0 -0 -2.12e-05)
(0 -0 -2.15333e-05)
(0 -0 -2.17703e-05)
(0 -0 -2.19223e-05)
(0 -0 -2.20006e-05)
(0 -0 -2.20152e-05)
(0 -0 -2.19749e-05)
(0 -0 -2.18877e-05)
(0 -0 -2.17614e-05)
(0 -0 -2.16027e-05)
(0 -0 -2.14174e-05)
(0 -0 -2.12104e-05)
(0 -0 -2.09854e-05)
(0 -0 -2.07456e-05)
(0 -0 -2.04932e-05)
(0 -0 -2.02303e-05)
(0 -0 -1.99584e-05)
(0 -0 -1.9679e-05)
(0 -0 -1.93936e-05)
(0 -0 -1.91038e-05)
(0 -0 -1.88112e-05)
(0 -0 -1.85175e-05)
(0 -0 -1.82241e-05)
(0 -0 -1.7932e-05)
(0 -0 -1.76414e-05)
(0 -0 -1.73527e-05)
(0 -0 -1.70662e-05)
(0 -0 -1.67828e-05)
(0 -0 -1.65031e-05)
(0 -0 -1.62276e-05)
(0 -0 -1.59565e-05)
(0 -0 -1.56898e-05)
(0 -0 -1.54272e-05)
(0 -0 -1.51678e-05)
(0 -0 -1.49115e-05)
(0 -0 -1.46585e-05)
(0 -0 -1.44107e-05)
(0 -0 -1.41677e-05)
(0 -0 -1.39325e-05)
(0 -0 -1.37002e-05)
(0 -0 -1.34779e-05)
(0 -0 -1.32516e-05)
(0 -0 -1.30457e-05)
(0 -0 -1.28184e-05)
(0 -0 -1.26382e-05)
(0 -0 -1.23929e-05)
(0 -0 -1.22605e-05)
(0 -0 -1.19589e-05)
(0 -0 -1.19138e-05)
(0 -0 -1.14868e-05)
(0 -0 -1.1603e-05)
(0 -0 -1.09528e-05)
(0 -0 -1.13412e-05)
(0 -0 -1.03476e-05)
(0 -0 -1.11143e-05)
(0 -0 -9.67054e-06)
(0 -0 -1.08927e-05)
(0 -0 -8.83144e-06)
(0 -0 -1.10161e-05)
(0 -0 -5.95886e-06)
(0 -0 -1.77621e-05)
(0 -0 1.08738e-05)
(0 -0 -2.69702e-05)
(0 -0 -2.05917e-05)
(0 -0 -1.35974e-05)
(0 -0 -1.44737e-05)
(0 -0 -1.53089e-05)
(0 -0 -1.60967e-05)
(0 -0 -1.67834e-05)
(0 -0 -1.73753e-05)
(0 -0 -1.78745e-05)
(0 -0 -1.82778e-05)
(0 -0 -1.85864e-05)
(0 -0 -1.88076e-05)
(0 -0 -1.8952e-05)
(0 -0 -1.90304e-05)
(0 -0 -1.90519e-05)
(0 -0 -1.90246e-05)
(0 -0 -1.89559e-05)
(0 -0 -1.88526e-05)
(0 -0 -1.87208e-05)
(0 -0 -1.85657e-05)
(0 -0 -1.83915e-05)
(0 -0 -1.82017e-05)
(0 -0 -1.79989e-05)
(0 -0 -1.77854e-05)
(0 -0 -1.75629e-05)
(0 -0 -1.73329e-05)
(0 -0 -1.70967e-05)
(0 -0 -1.68556e-05)
(0 -0 -1.6611e-05)
(0 -0 -1.63642e-05)
(0 -0 -1.61167e-05)
(0 -0 -1.58695e-05)
(0 -0 -1.56235e-05)
(0 -0 -1.5379e-05)
(0 -0 -1.51364e-05)
(0 -0 -1.4896e-05)
(0 -0 -1.46587e-05)
(0 -0 -1.44249e-05)
(0 -0 -1.4195e-05)
(0 -0 -1.39689e-05)
(0 -0 -1.37468e-05)
(0 -0 -1.35282e-05)
(0 -0 -1.33124e-05)
(0 -0 -1.30994e-05)
(0 -0 -1.28893e-05)
(0 -0 -1.26841e-05)
(0 -0 -1.24829e-05)
(0 -0 -1.22885e-05)
(0 -0 -1.20962e-05)
(0 -0 -1.19127e-05)
(0 -0 -1.17246e-05)
(0 -0 -1.15559e-05)
(0 -0 -1.13659e-05)
(0 -0 -1.12214e-05)
(0 -0 -1.10131e-05)
(0 -0 -1.09141e-05)
(0 -0 -1.06511e-05)
(0 -0 -1.06367e-05)
(0 -0 -1.02534e-05)
(0 -0 -1.0395e-05)
(0 -0 -9.7978e-06)
(0 -0 -1.02005e-05)
(0 -0 -9.27874e-06)
(0 -0 -1.00399e-05)
(0 -0 -8.69417e-06)
(0 -0 -9.92038e-06)
(0 -0 -7.78519e-06)
(0 -0 -1.08056e-05)
(0 -0 -3.18771e-06)
(0 -0 -2.10016e-05)
(0 -0 1.61522e-05)
(0 -0 -2.78864e-05)
(0 -0 -2.08878e-05)
(0 -0 -1.13186e-05)
(0 -0 -1.20915e-05)
(0 -0 -1.28388e-05)
(0 -0 -1.35529e-05)
(0 -0 -1.41786e-05)
(0 -0 -1.4721e-05)
(0 -0 -1.5181e-05)
(0 -0 -1.55545e-05)
(0 -0 -1.58417e-05)
(0 -0 -1.60495e-05)
(0 -0 -1.61878e-05)
(0 -0 -1.62666e-05)
(0 -0 -1.62947e-05)
(0 -0 -1.62793e-05)
(0 -0 -1.62274e-05)
(0 -0 -1.61449e-05)
(0 -0 -1.60373e-05)
(0 -0 -1.59091e-05)
(0 -0 -1.57643e-05)
(0 -0 -1.56058e-05)
(0 -0 -1.54361e-05)
(0 -0 -1.52572e-05)
(0 -0 -1.50707e-05)
(0 -0 -1.48779e-05)
(0 -0 -1.468e-05)
(0 -0 -1.44782e-05)
(0 -0 -1.42737e-05)
(0 -0 -1.40675e-05)
(0 -0 -1.38608e-05)
(0 -0 -1.36546e-05)
(0 -0 -1.34494e-05)
(0 -0 -1.32458e-05)
(0 -0 -1.30439e-05)
(0 -0 -1.28443e-05)
(0 -0 -1.26476e-05)
(0 -0 -1.24544e-05)
(0 -0 -1.22647e-05)
(0 -0 -1.20784e-05)
(0 -0 -1.18955e-05)
(0 -0 -1.17156e-05)
(0 -0 -1.15382e-05)
(0 -0 -1.13632e-05)
(0 -0 -1.1191e-05)
(0 -0 -1.1023e-05)
(0 -0 -1.08586e-05)
(0 -0 -1.07001e-05)
(0 -0 -1.05429e-05)
(0 -0 -1.03935e-05)
(0 -0 -1.02389e-05)
(0 -0 -1.01026e-05)
(0 -0 -9.94551e-06)
(0 -0 -9.8321e-06)
(0 -0 -9.65633e-06)
(0 -0 -9.58643e-06)
(0 -0 -9.35754e-06)
(0 -0 -9.36958e-06)
(0 -0 -9.02522e-06)
(0 -0 -9.18773e-06)
(0 -0 -8.63864e-06)
(0 -0 -9.05152e-06)
(0 -0 -8.1959e-06)
(0 -0 -8.94763e-06)
(0 -0 -7.69462e-06)
(0 -0 -8.91232e-06)
(0 -0 -6.74029e-06)
(0 -0 -1.04162e-05)
(0 -0 -7.59398e-07)
(0 -0 -2.33946e-05)
(0 -0 2.05498e-05)
(0 -0 -2.84285e-05)
(0 -0 -2.07067e-05)
(0 -0 -9.18864e-06)
(0 -0 -9.87406e-06)
(0 -0 -1.05471e-05)
(0 -0 -1.11987e-05)
(0 -0 -1.17728e-05)
(0 -0 -1.22733e-05)
(0 -0 -1.27002e-05)
(0 -0 -1.30487e-05)
(0 -0 -1.33183e-05)
(0 -0 -1.35151e-05)
(0 -0 -1.36487e-05)
(0 -0 -1.37285e-05)
(0 -0 -1.37627e-05)
(0 -0 -1.37584e-05)
(0 -0 -1.37215e-05)
(0 -0 -1.36576e-05)
(0 -0 -1.35714e-05)
(0 -0 -1.34672e-05)
(0 -0 -1.33482e-05)
(0 -0 -1.32173e-05)
(0 -0 -1.30766e-05)
(0 -0 -1.29281e-05)
(0 -0 -1.27731e-05)
(0 -0 -1.26129e-05)
(0 -0 -1.24486e-05)
(0 -0 -1.22812e-05)
(0 -0 -1.21117e-05)
(0 -0 -1.1941e-05)
(0 -0 -1.17699e-05)
(0 -0 -1.15993e-05)
(0 -0 -1.14298e-05)
(0 -0 -1.12616e-05)
(0 -0 -1.10951e-05)
(0 -0 -1.0931e-05)
(0 -0 -1.07697e-05)
(0 -0 -1.06117e-05)
(0 -0 -1.04568e-05)
(0 -0 -1.0305e-05)
(0 -0 -1.01561e-05)
(0 -0 -1.00098e-05)
(0 -0 -9.86553e-06)
(0 -0 -9.72345e-06)
(0 -0 -9.58383e-06)
(0 -0 -9.44806e-06)
(0 -0 -9.31531e-06)
(0 -0 -9.18788e-06)
(0 -0 -9.0609e-06)
(0 -0 -8.94088e-06)
(0 -0 -8.81522e-06)
(0 -0 -8.70698e-06)
(0 -0 -8.57813e-06)
(0 -0 -8.49141e-06)
(0 -0 -8.34378e-06)
(0 -0 -8.29864e-06)
(0 -0 -8.09943e-06)
(0 -0 -8.13354e-06)
(0 -0 -7.82347e-06)
(0 -0 -8.00269e-06)
(0 -0 -7.49675e-06)
(0 -0 -7.91575e-06)
(0 -0 -7.12063e-06)
(0 -0 -7.85904e-06)
(0 -0 -6.6933e-06)
(0 -0 -7.89079e-06)
(0 -0 -5.71603e-06)
(0 -0 -9.87721e-06)
(0 -0 1.32462e-06)
(0 -0 -2.5002e-05)
(0 -0 2.40918e-05)
(0 -0 -2.86291e-05)
(0 -0 -2.00991e-05)
(0 -0 -7.22461e-06)
(0 -0 -7.83786e-06)
(0 -0 -8.4496e-06)
(0 -0 -9.04986e-06)
(0 -0 -9.58147e-06)
(0 -0 -1.00475e-05)
(0 -0 -1.04473e-05)
(0 -0 -1.07754e-05)
(0 -0 -1.10308e-05)
(0 -0 -1.12191e-05)
(0 -0 -1.13493e-05)
(0 -0 -1.14307e-05)
(0 -0 -1.14709e-05)
(0 -0 -1.14766e-05)
(0 -0 -1.14532e-05)
(0 -0 -1.14056e-05)
(0 -0 -1.13384e-05)
(0 -0 -1.1255e-05)
(0 -0 -1.11586e-05)
(0 -0 -1.10517e-05)
(0 -0 -1.09363e-05)
(0 -0 -1.0814e-05)
(0 -0 -1.06863e-05)
(0 -0 -1.05542e-05)
(0 -0 -1.04188e-05)
(0 -0 -1.0281e-05)
(0 -0 -1.01415e-05)
(0 -0 -1.00013e-05)
(0 -0 -9.86083e-06)
(0 -0 -9.72083e-06)
(0 -0 -9.58178e-06)
(0 -0 -9.444e-06)
(0 -0 -9.30788e-06)
(0 -0 -9.174e-06)
(0 -0 -9.04298e-06)
(0 -0 -8.91501e-06)
(0 -0 -8.78995e-06)
(0 -0 -8.6675e-06)
(0 -0 -8.54745e-06)
(0 -0 -8.42966e-06)
(0 -0 -8.31365e-06)
(0 -0 -8.19952e-06)
(0 -0 -8.08761e-06)
(0 -0 -7.97916e-06)
(0 -0 -7.87328e-06)
(0 -0 -7.77213e-06)
(0 -0 -7.67082e-06)
(0 -0 -7.57573e-06)
(0 -0 -7.47462e-06)
(0 -0 -7.39005e-06)
(0 -0 -7.28517e-06)
(0 -0 -7.22092e-06)
(0 -0 -7.09724e-06)
(0 -0 -7.07274e-06)
(0 -0 -6.89898e-06)
(0 -0 -6.95104e-06)
(0 -0 -6.67081e-06)
(0 -0 -6.86271e-06)
(0 -0 -6.39516e-06)
(0 -0 -6.81646e-06)
(0 -0 -6.07634e-06)
(0 -0 -6.7979e-06)
(0 -0 -5.71381e-06)
(0 -0 -6.88069e-06)
(0 -0 -4.73335e-06)
(0 -0 -9.22426e-06)
(0 -0 3.07044e-06)
(0 -0 -2.591e-05)
(0 -0 2.6826e-05)
(0 -0 -2.85327e-05)
(0 -0 -1.91321e-05)
(0 -0 -5.44045e-06)
(0 -0 -5.9959e-06)
(0 -0 -6.55867e-06)
(0 -0 -7.1178e-06)
(0 -0 -7.61546e-06)
(0 -0 -8.05402e-06)
(0 -0 -8.43226e-06)
(0 -0 -8.74423e-06)
(0 -0 -8.98863e-06)
(0 -0 -9.17066e-06)
(0 -0 -9.29897e-06)
(0 -0 -9.38238e-06)
(0 -0 -9.42835e-06)
(0 -0 -9.44302e-06)
(0 -0 -9.43155e-06)
(0 -0 -9.39844e-06)
(0 -0 -9.34759e-06)
(0 -0 -9.28231e-06)
(0 -0 -9.20537e-06)
(0 -0 -9.11905e-06)
(0 -0 -9.02522e-06)
(0 -0 -8.92543e-06)
(0 -0 -8.82091e-06)
(0 -0 -8.71272e-06)
(0 -0 -8.60182e-06)
(0 -0 -8.48905e-06)
(0 -0 -8.37512e-06)
(0 -0 -8.26062e-06)
(0 -0 -8.14603e-06)
(0 -0 -8.03188e-06)
(0 -0 -7.91856e-06)
(0 -0 -7.80642e-06)
(0 -0 -7.69586e-06)
(0 -0 -7.58748e-06)
(0 -0 -7.48188e-06)
(0 -0 -7.37916e-06)
(0 -0 -7.27905e-06)
(0 -0 -7.18118e-06)
(0 -0 -7.08532e-06)
(0 -0 -6.99138e-06)
(0 -0 -6.89897e-06)
(0 -0 -6.80819e-06)
(0 -0 -6.71939e-06)
(0 -0 -6.63372e-06)
(0 -0 -6.55022e-06)
(0 -0 -6.47093e-06)
(0 -0 -6.39102e-06)
(0 -0 -6.31669e-06)
(0 -0 -6.23608e-06)
(0 -0 -6.17116e-06)
(0 -0 -6.08627e-06)
(0 -0 -6.04055e-06)
(0 -0 -5.93692e-06)
(0 -0 -5.92926e-06)
(0 -0 -5.77701e-06)
(0 -0 -5.84323e-06)
(0 -0 -5.5887e-06)
(0 -0 -5.78956e-06)
(0 -0 -5.35597e-06)
(0 -0 -5.77607e-06)
(0 -0 -5.08573e-06)
(0 -0 -5.78732e-06)
(0 -0 -4.77933e-06)
(0 -0 -5.90678e-06)
(0 -0 -3.81236e-06)
(0 -0 -8.49578e-06)
(0 -0 4.4914e-06)
(0 -0 -2.62204e-05)
(0 -0 2.88173e-05)
(0 -0 -2.81904e-05)
(0 -0 -1.78825e-05)
(0 -0 -3.84551e-06)
(0 -0 -4.35624e-06)
(0 -0 -4.88115e-06)
(0 -0 -5.40847e-06)
(0 -0 -5.87986e-06)
(0 -0 -6.29718e-06)
(0 -0 -6.65883e-06)
(0 -0 -6.9586e-06)
(0 -0 -7.19489e-06)
(0 -0 -7.37261e-06)
(0 -0 -7.50013e-06)
(0 -0 -7.58601e-06)
(0 -0 -7.63745e-06)
(0 -0 -7.66028e-06)
(0 -0 -7.65933e-06)
(0 -0 -7.63873e-06)
(0 -0 -7.60202e-06)
(0 -0 -7.55221e-06)
(0 -0 -7.49184e-06)
(0 -0 -7.423e-06)
(0 -0 -7.34742e-06)
(0 -0 -7.26654e-06)
(0 -0 -7.18152e-06)
(0 -0 -7.09337e-06)
(0 -0 -7.00298e-06)
(0 -0 -6.91114e-06)
(0 -0 -6.81848e-06)
(0 -0 -6.72544e-06)
(0 -0 -6.6324e-06)
(0 -0 -6.53974e-06)
(0 -0 -6.44782e-06)
(0 -0 -6.35696e-06)
(0 -0 -6.26758e-06)
(0 -0 -6.18033e-06)
(0 -0 -6.09575e-06)
(0 -0 -6.01388e-06)
(0 -0 -5.93434e-06)
(0 -0 -5.85671e-06)
(0 -0 -5.78075e-06)
(0 -0 -5.70642e-06)
(0 -0 -5.63338e-06)
(0 -0 -5.56177e-06)
(0 -0 -5.49193e-06)
(0 -0 -5.42493e-06)
(0 -0 -5.35973e-06)
(0 -0 -5.29831e-06)
(0 -0 -5.23591e-06)
(0 -0 -5.17859e-06)
(0 -0 -5.11479e-06)
(0 -0 -5.0659e-06)
(0 -0 -4.99739e-06)
(0 -0 -4.96668e-06)
(0 -0 -4.87957e-06)
(0 -0 -4.88531e-06)
(0 -0 -4.75102e-06)
(0 -0 -4.82796e-06)
(0 -0 -4.59541e-06)
(0 -0 -4.8019e-06)
(0 -0 -4.39824e-06)
(0 -0 -4.81405e-06)
(0 -0 -4.16864e-06)
(0 -0 -4.84767e-06)
(0 -0 -3.91031e-06)
(0 -0 -4.99129e-06)
(0 -0 -2.97035e-06)
(0 -0 -7.72941e-06)
(0 -0 5.60737e-06)
(0 -0 -2.60424e-05)
(0 -0 3.01432e-05)
(0 -0 -2.76554e-05)
(0 -0 -1.64302e-05)
(0 -0 -2.44361e-06)
(0 -0 -2.92116e-06)
(0 -0 -3.41799e-06)
(0 -0 -3.92163e-06)
(0 -0 -4.37346e-06)
(0 -0 -4.77498e-06)
(0 -0 -5.12436e-06)
(0 -0 -5.41525e-06)
(0 -0 -5.6459e-06)
(0 -0 -5.82101e-06)
(0 -0 -5.94872e-06)
(0 -0 -6.03739e-06)
(0 -0 -6.094e-06)
(0 -0 -6.12414e-06)
(0 -0 -6.13239e-06)
(0 -0 -6.12255e-06)
(0 -0 -6.0979e-06)
(0 -0 -6.06122e-06)
(0 -0 -6.01481e-06)
(0 -0 -5.96063e-06)
(0 -0 -5.90029e-06)
(0 -0 -5.83514e-06)
(0 -0 -5.7663e-06)
(0 -0 -5.69471e-06)
(0 -0 -5.62124e-06)
(0 -0 -5.54664e-06)
(0 -0 -5.47146e-06)
(0 -0 -5.39605e-06)
(0 -0 -5.32068e-06)
(0 -0 -5.24566e-06)
(0 -0 -5.17125e-06)
(0 -0 -5.09779e-06)
(0 -0 -5.02572e-06)
(0 -0 -4.9557e-06)
(0 -0 -4.88823e-06)
(0 -0 -4.8233e-06)
(0 -0 -4.76042e-06)
(0 -0 -4.69917e-06)
(0 -0 -4.6393e-06)
(0 -0 -4.5808e-06)
(0 -0 -4.52342e-06)
(0 -0 -4.46729e-06)
(0 -0 -4.41274e-06)
(0 -0 -4.36075e-06)
(0 -0 -4.31026e-06)
(0 -0 -4.26318e-06)
(0 -0 -4.21485e-06)
(0 -0 -4.1712e-06)
(0 -0 -4.12098e-06)
(0 -0 -4.08495e-06)
(0 -0 -4.02965e-06)
(0 -0 -4.01083e-06)
(0 -0 -3.93713e-06)
(0 -0 -3.95322e-06)
(0 -0 -3.83377e-06)
(0 -0 -3.91843e-06)
(0 -0 -3.70457e-06)
(0 -0 -3.91381e-06)
(0 -0 -3.53649e-06)
(0 -0 -3.94536e-06)
(0 -0 -3.34047e-06)
(0 -0 -3.99492e-06)
(0 -0 -3.12292e-06)
(0 -0 -4.15223e-06)
(0 -0 -2.22031e-06)
(0 -0 -6.95918e-06)
(0 -0 6.44377e-06)
(0 -0 -2.54841e-05)
(0 -0 3.08889e-05)
(0 -0 -2.69785e-05)
(0 -0 -1.48524e-05)
(0 -0 -1.23287e-06)
(0 -0 -1.6872e-06)
(0 -0 -2.16429e-06)
(0 -0 -2.65114e-06)
(0 -0 -3.08905e-06)
(0 -0 -3.47932e-06)
(0 -0 -3.82004e-06)
(0 -0 -4.10483e-06)
(0 -0 -4.33188e-06)
(0 -0 -4.50573e-06)
(0 -0 -4.63441e-06)
(0 -0 -4.72605e-06)
(0 -0 -4.7875e-06)
(0 -0 -4.82417e-06)
(0 -0 -4.84038e-06)
(0 -0 -4.83974e-06)
(0 -0 -4.8253e-06)
(0 -0 -4.79962e-06)
(0 -0 -4.76487e-06)
(0 -0 -4.72286e-06)
(0 -0 -4.67511e-06)
(0 -0 -4.62289e-06)
(0 -0 -4.56728e-06)
(0 -0 -4.50921e-06)
(0 -0 -4.44951e-06)
(0 -0 -4.3889e-06)
(0 -0 -4.32789e-06)
(0 -0 -4.26675e-06)
(0 -0 -4.20569e-06)
(0 -0 -4.14492e-06)
(0 -0 -4.08467e-06)
(0 -0 -4.02524e-06)
(0 -0 -3.96709e-06)
(0 -0 -3.9109e-06)
(0 -0 -3.85714e-06)
(0 -0 -3.80574e-06)
(0 -0 -3.75614e-06)
(0 -0 -3.70793e-06)
(0 -0 -3.66083e-06)
(0 -0 -3.6149e-06)
(0 -0 -3.56995e-06)
(0 -0 -3.52612e-06)
(0 -0 -3.48369e-06)
(0 -0 -3.44357e-06)
(0 -0 -3.40468e-06)
(0 -0 -3.36889e-06)
(0 -0 -3.33166e-06)
(0 -0 -3.29882e-06)
(0 -0 -3.2594e-06)
(0 -0 -3.23349e-06)
(0 -0 -3.18866e-06)
(0 -0 -3.17906e-06)
(0 -0 -3.1161e-06)
(0 -0 -3.13994e-06)
(0 -0 -3.03262e-06)
(0 -0 -3.12245e-06)
(0 -0 -2.92444e-06)
(0 -0 -3.134e-06)
(0 -0 -2.77991e-06)
(0 -0 -3.17964e-06)
(0 -0 -2.61133e-06)
(0 -0 -3.23972e-06)
(0 -0 -2.42807e-06)
(0 -0 -3.40232e-06)
(0 -0 -1.57019e-06)
(0 -0 -6.21357e-06)
(0 -0 7.0302e-06)
(0 -0 -2.46469e-05)
(0 -0 3.11423e-05)
(0 -0 -2.62054e-05)
(0 -0 -1.32191e-05)
(0 -0 -2.06558e-07)
(0 -0 -6.46031e-07)
(0 -0 -1.11025e-06)
(0 -0 -1.58589e-06)
(0 -0 -2.01445e-06)
(0 -0 -2.39717e-06)
(0 -0 -2.73211e-06)
(0 -0 -3.01301e-06)
(0 -0 -3.23804e-06)
(0 -0 -3.41169e-06)
(0 -0 -3.54184e-06)
(0 -0 -3.63653e-06)
(0 -0 -3.70245e-06)
(0 -0 -3.74485e-06)
(0 -0 -3.76791e-06)
(0 -0 -3.77504e-06)
(0 -0 -3.76913e-06)
(0 -0 -3.7526e-06)
(0 -0 -3.72747e-06)
(0 -0 -3.69545e-06)
(0 -0 -3.65798e-06)
(0 -0 -3.61627e-06)
(0 -0 -3.57135e-06)
(0 -0 -3.52415e-06)
(0 -0 -3.4755e-06)
(0 -0 -3.42609e-06)
(0 -0 -3.3764e-06)
(0 -0 -3.32667e-06)
(0 -0 -3.27703e-06)
(0 -0 -3.22762e-06)
(0 -0 -3.17864e-06)
(0 -0 -3.13036e-06)
(0 -0 -3.08326e-06)
(0 -0 -3.038e-06)
(0 -0 -2.99505e-06)
(0 -0 -2.95427e-06)
(0 -0 -2.91508e-06)
(0 -0 -2.87704e-06)
(0 -0 -2.83992e-06)
(0 -0 -2.80378e-06)
(0 -0 -2.76853e-06)
(0 -0 -2.73431e-06)
(0 -0 -2.70133e-06)
(0 -0 -2.67044e-06)
(0 -0 -2.64053e-06)
(0 -0 -2.61344e-06)
(0 -0 -2.5848e-06)
(0 -0 -2.56037e-06)
(0 -0 -2.52939e-06)
(0 -0 -2.5113e-06)
(0 -0 -2.47467e-06)
(0 -0 -2.47205e-06)
(0 -0 -2.41758e-06)
(0 -0 -2.44696e-06)
(0 -0 -2.34951e-06)
(0 -0 -2.44237e-06)
(0 -0 -2.25786e-06)
(0 -0 -2.46572e-06)
(0 -0 -2.13222e-06)
(0 -0 -2.52105e-06)
(0 -0 -1.9859e-06)
(0 -0 -2.58725e-06)
(0 -0 -1.83121e-06)
(0 -0 -2.74864e-06)
(0 -0 -1.02274e-06)
(0 -0 -5.51444e-06)
(0 -0 7.39888e-06)
(0 -0 -2.36213e-05)
(0 -0 3.09901e-05)
(0 -0 -2.5375e-05)
(0 -0 -1.15905e-05)
(0 -0 6.45657e-07)
(0 -0 2.14153e-07)
(0 -0 -2.42595e-07)
(0 -0 -7.11334e-07)
(0 -0 -1.13406e-06)
(0 -0 -1.51203e-06)
(0 -0 -1.84341e-06)
(0 -0 -2.12204e-06)
(0 -0 -2.34619e-06)
(0 -0 -2.52032e-06)
(0 -0 -2.65224e-06)
(0 -0 -2.74987e-06)
(0 -0 -2.81978e-06)
(0 -0 -2.86713e-06)
(0 -0 -2.89596e-06)
(0 -0 -2.90955e-06)
(0 -0 -2.91068e-06)
(0 -0 -2.90164e-06)
(0 -0 -2.88435e-06)
(0 -0 -2.86042e-06)
(0 -0 -2.83122e-06)
(0 -0 -2.7979e-06)
(0 -0 -2.76148e-06)
(0 -0 -2.7229e-06)
(0 -0 -2.68297e-06)
(0 -0 -2.64238e-06)
(0 -0 -2.6016e-06)
(0 -0 -2.56084e-06)
(0 -0 -2.52018e-06)
(0 -0 -2.4797e-06)
(0 -0 -2.43956e-06)
(0 -0 -2.40001e-06)
(0 -0 -2.36154e-06)
(0 -0 -2.3248e-06)
(0 -0 -2.2902e-06)
(0 -0 -2.25762e-06)
(0 -0 -2.22642e-06)
(0 -0 -2.19619e-06)
(0 -0 -2.1667e-06)
(0 -0 -2.13806e-06)
(0 -0 -2.11025e-06)
(0 -0 -2.08341e-06)
(0 -0 -2.05766e-06)
(0 -0 -2.03381e-06)
(0 -0 -2.01072e-06)
(0 -0 -1.9902e-06)
(0 -0 -1.96808e-06)
(0 -0 -1.95004e-06)
(0 -0 -1.92558e-06)
(0 -0 -1.91344e-06)
(0 -0 -1.88312e-06)
(0 -0 -1.88564e-06)
(0 -0 -1.8378e-06)
(0 -0 -1.87094e-06)
(0 -0 -1.78149e-06)
(0 -0 -1.87564e-06)
(0 -0 -1.7027e-06)
(0 -0 -1.90722e-06)
(0 -0 -1.59217e-06)
(0 -0 -1.96866e-06)
(0 -0 -1.46382e-06)
(0 -0 -2.03754e-06)
(0 -0 -1.33276e-06)
(0 -0 -2.19299e-06)
(0 -0 -5.76061e-07)
(0 -0 -4.87688e-06)
(0 -0 7.58302e-06)
(0 -0 -2.24835e-05)
(0 -0 3.05143e-05)
(0 -0 -2.45181e-05)
(0 -0 -1.00155e-05)
(0 -0 1.33921e-06)
(0 -0 9.09782e-07)
(0 -0 4.56356e-07)
(0 -0 -8.68026e-09)
(0 -0 -4.28203e-07)
(0 -0 -8.0354e-07)
(0 -0 -1.13297e-06)
(0 -0 -1.4105e-06)
(0 -0 -1.63453e-06)
(0 -0 -1.80954e-06)
(0 -0 -1.94332e-06)
(0 -0 -2.04368e-06)
(0 -0 -2.11708e-06)
(0 -0 -2.16863e-06)
(0 -0 -2.20226e-06)
(0 -0 -2.22114e-06)
(0 -0 -2.22798e-06)
(0 -0 -2.22502e-06)
(0 -0 -2.21405e-06)
(0 -0 -2.19659e-06)
(0 -0 -2.17397e-06)
(0 -0 -2.14728e-06)
(0 -0 -2.11753e-06)
(0 -0 -2.08568e-06)
(0 -0 -2.05254e-06)
(0 -0 -2.0188e-06)
(0 -0 -1.98494e-06)
(0 -0 -1.95113e-06)
(0 -0 -1.91744e-06)
(0 -0 -1.88389e-06)
(0 -0 -1.8506e-06)
(0 -0 -1.8178e-06)
(0 -0 -1.78598e-06)
(0 -0 -1.75578e-06)
(0 -0 -1.72754e-06)
(0 -0 -1.70117e-06)
(0 -0 -1.67599e-06)
(0 -0 -1.65164e-06)
(0 -0 -1.62789e-06)
(0 -0 -1.60488e-06)
(0 -0 -1.58267e-06)
(0 -0 -1.56141e-06)
(0 -0 -1.54111e-06)
(0 -0 -1.52253e-06)
(0 -0 -1.50452e-06)
(0 -0 -1.48886e-06)
(0 -0 -1.47158e-06)
(0 -0 -1.45832e-06)
(0 -0 -1.43881e-06)
(0 -0 -1.43111e-06)
(0 -0 -1.40561e-06)
(0 -0 -1.41179e-06)
(0 -0 -1.36909e-06)
(0 -0 -1.40455e-06)
(0 -0 -1.32159e-06)
(0 -0 -1.41567e-06)
(0 -0 -1.25274e-06)
(0 -0 -1.45266e-06)
(0 -0 -1.15429e-06)
(0 -0 -1.51741e-06)
(0 -0 -1.04039e-06)
(0 -0 -1.58634e-06)
(0 -0 -9.28916e-07)
(0 -0 -1.73263e-06)
(0 -0 -2.24461e-07)
(0 -0 -4.30964e-06)
(0 -0 7.61521e-06)
(0 -0 -2.12955e-05)
(0 -0 2.97899e-05)
(0 -0 -2.36578e-05)
(0 -0 -8.53131e-06)
(0 -0 1.90396e-06)
(0 -0 1.47123e-06)
(0 -0 1.01745e-06)
(0 -0 5.53296e-07)
(0 -0 1.34556e-07)
(0 -0 -2.40178e-07)
(0 -0 -5.69271e-07)
(0 -0 -8.46956e-07)
(0 -0 -1.07179e-06)
(0 -0 -1.24831e-06)
(0 -0 -1.38431e-06)
(0 -0 -1.48752e-06)
(0 -0 -1.56431e-06)
(0 -0 -1.61973e-06)
(0 -0 -1.65765e-06)
(0 -0 -1.68116e-06)
(0 -0 -1.69294e-06)
(0 -0 -1.69518e-06)
(0 -0 -1.68956e-06)
(0 -0 -1.67753e-06)
(0 -0 -1.66036e-06)
(0 -0 -1.6391e-06)
(0 -0 -1.61478e-06)
(0 -0 -1.58838e-06)
(0 -0 -1.56069e-06)
(0 -0 -1.53242e-06)
(0 -0 -1.50405e-06)
(0 -0 -1.47577e-06)
(0 -0 -1.44761e-06)
(0 -0 -1.41956e-06)
(0 -0 -1.39169e-06)
(0 -0 -1.36419e-06)
(0 -0 -1.33757e-06)
(0 -0 -1.31243e-06)
(0 -0 -1.28907e-06)
(0 -0 -1.26743e-06)
(0 -0 -1.24682e-06)
(0 -0 -1.22688e-06)
(0 -0 -1.20746e-06)
(0 -0 -1.18867e-06)
(0 -0 -1.17068e-06)
(0 -0 -1.15364e-06)
(0 -0 -1.13745e-06)
(0 -0 -1.1228e-06)
(0 -0 -1.10854e-06)
(0 -0 -1.09642e-06)
(0 -0 -1.08268e-06)
(0 -0 -1.07297e-06)
(0 -0 -1.05721e-06)
(0 -0 -1.05277e-06)
(0 -0 -1.03093e-06)
(0 -0 -1.03961e-06)
(0 -0 -1.00089e-06)
(0 -0 -1.03755e-06)
(0 -0 -9.5989e-07)
(0 -0 -1.05287e-06)
(0 -0 -8.98605e-07)
(0 -0 -1.09313e-06)
(0 -0 -8.09712e-07)
(0 -0 -1.15911e-06)
(0 -0 -7.0721e-07)
(0 -0 -1.22629e-06)
(0 -0 -6.12568e-07)
(0 -0 -1.3614e-06)
(0 -0 4.0737e-08)
(0 -0 -3.81609e-06)
(0 -0 7.52647e-06)
(0 -0 -2.01049e-05)
(0 -0 2.88829e-05)
(0 -0 -2.28099e-05)
(0 -0 -7.16387e-06)
(0 -0 2.36483e-06)
(0 -0 1.9252e-06)
(0 -0 1.46698e-06)
(0 -0 1.0011e-06)
(0 -0 5.80786e-07)
(0 -0 2.04669e-07)
(0 -0 -1.25728e-07)
(0 -0 -4.04906e-07)
(0 -0 -6.31567e-07)
(0 -0 -8.10387e-07)
(0 -0 -9.49131e-07)
(0 -0 -1.05551e-06)
(0 -0 -1.13587e-06)
(0 -0 -1.19515e-06)
(0 -0 -1.23716e-06)
(0 -0 -1.26499e-06)
(0 -0 -1.28128e-06)
(0 -0 -1.28818e-06)
(0 -0 -1.28735e-06)
(0 -0 -1.28008e-06)
(0 -0 -1.26759e-06)
(0 -0 -1.25094e-06)
(0 -0 -1.23117e-06)
(0 -0 -1.20933e-06)
(0 -0 -1.18619e-06)
(0 -0 -1.16244e-06)
(0 -0 -1.13849e-06)
(0 -0 -1.11463e-06)
(0 -0 -1.09098e-06)
(0 -0 -1.06739e-06)
(0 -0 -1.04391e-06)
(0 -0 -1.02065e-06)
(0 -0 -9.9808e-07)
(0 -0 -9.76899e-07)
(0 -0 -9.57345e-07)
(0 -0 -9.39329e-07)
(0 -0 -9.22159e-07)
(0 -0 -9.05513e-07)
(0 -0 -8.89303e-07)
(0 -0 -8.73709e-07)
(0 -0 -8.58908e-07)
(0 -0 -8.45067e-07)
(0 -0 -8.31932e-07)
(0 -0 -8.20138e-07)
(0 -0 -8.08648e-07)
(0 -0 -7.99089e-07)
(0 -0 -7.87917e-07)
(0 -0 -7.80759e-07)
(0 -0 -7.67802e-07)
(0 -0 -7.6574e-07)
(0 -0 -7.46698e-07)
(0 -0 -7.56975e-07)
(0 -0 -7.21304e-07)
(0 -0 -7.58377e-07)
(0 -0 -6.85096e-07)
(0 -0 -7.76211e-07)
(0 -0 -6.29502e-07)
(0 -0 -8.18174e-07)
(0 -0 -5.48162e-07)
(0 -0 -8.83852e-07)
(0 -0 -4.54628e-07)
(0 -0 -9.47762e-07)
(0 -0 -3.73313e-07)
(0 -0 -1.07103e-06)
(0 -0 2.31081e-07)
(0 -0 -3.39548e-06)
(0 -0 7.34646e-06)
(0 -0 -1.89458e-05)
(0 -0 2.78513e-05)
(0 -0 -2.19834e-05)
(0 -0 -5.92711e-06)
(0 -0 2.73542e-06)
(0 -0 2.28787e-06)
(0 -0 1.82281e-06)
(0 -0 1.35282e-06)
(0 -0 9.29205e-07)
(0 -0 5.50292e-07)
(0 -0 2.17427e-07)
(0 -0 -6.40799e-08)
(0 -0 -2.93207e-07)
(0 -0 -4.74875e-07)
(0 -0 -6.16697e-07)
(0 -0 -7.26437e-07)
(0 -0 -8.10468e-07)
(0 -0 -8.73491e-07)
(0 -0 -9.19398e-07)
(0 -0 -9.51423e-07)
(0 -0 -9.7195e-07)
(0 -0 -9.82984e-07)
(0 -0 -9.86406e-07)
(0 -0 -9.83421e-07)
(0 -0 -9.75112e-07)
(0 -0 -9.62638e-07)
(0 -0 -9.46844e-07)
(0 -0 -9.28711e-07)
(0 -0 -9.09307e-07)
(0 -0 -8.8935e-07)
(0 -0 -8.69234e-07)
(0 -0 -8.49194e-07)
(0 -0 -8.29213e-07)
(0 -0 -8.0914e-07)
(0 -0 -7.89065e-07)
(0 -0 -7.69337e-07)
(0 -0 -7.502e-07)
(0 -0 -7.32183e-07)
(0 -0 -7.15613e-07)
(0 -0 -7.00175e-07)
(0 -0 -6.85632e-07)
(0 -0 -6.71668e-07)
(0 -0 -6.57879e-07)
(0 -0 -6.44669e-07)
(0 -0 -6.32126e-07)
(0 -0 -6.20665e-07)
(0 -0 -6.09952e-07)
(0 -0 -6.00393e-07)
(0 -0 -5.9078e-07)
(0 -0 -5.82936e-07)
(0 -0 -5.73691e-07)
(0 -0 -5.68344e-07)
(0 -0 -5.57559e-07)
(0 -0 -5.57123e-07)
(0 -0 -5.4024e-07)
(0 -0 -5.51462e-07)
(0 -0 -5.18295e-07)
(0 -0 -5.54889e-07)
(0 -0 -4.85278e-07)
(0 -0 -5.74134e-07)
(0 -0 -4.34163e-07)
(0 -0 -6.16458e-07)
(0 -0 -3.58742e-07)
(0 -0 -6.80936e-07)
(0 -0 -2.71977e-07)
(0 -0 -7.41038e-07)
(0 -0 -2.01532e-07)
(0 -0 -8.52076e-07)
(0 -0 3.57361e-07)
(0 -0 -3.04429e-06)
(0 -0 7.09969e-06)
(0 -0 -1.7842e-05)
(0 -0 2.67413e-05)
(0 -0 -2.11825e-05)
(0 -0 -4.82821e-06)
(0 -0 -8.68392e-08)
(0 -0 -6.95027e-07)
(0 -0 4.30173e-07)
(0 -0 -2.75711e-06)
(0 -0 6.80662e-06)
(0 -0 -1.68074e-05)
(0 -0 2.55886e-05)
(0 -0 -2.04094e-05)
(0 -0 -3.86838e-06)
(0 -0 -3.95736e-06)
(0 -0 -4.02735e-06)
(0 -0 -4.08341e-06)
(0 -0 -4.12681e-06)
(0 -0 -4.15907e-06)
(0 -0 -4.18119e-06)
(0 -0 -4.19423e-06)
(0 -0 -4.19915e-06)
(0 -0 -4.19682e-06)
(0 -0 -4.18797e-06)
(0 -0 -4.1733e-06)
(0 -0 -4.15342e-06)
(0 -0 -4.12889e-06)
(0 -0 -4.10023e-06)
(0 -0 -4.06793e-06)
(0 -0 -4.03243e-06)
(0 -0 -3.99412e-06)
(0 -0 -3.95332e-06)
(0 -0 -3.9103e-06)
(0 -0 -3.86528e-06)
(0 -0 -3.81853e-06)
(0 -0 -3.77035e-06)
(0 -0 -3.72105e-06)
(0 -0 -3.6709e-06)
(0 -0 -3.62009e-06)
(0 -0 -3.56872e-06)
(0 -0 -3.51683e-06)
(0 -0 -3.46447e-06)
(0 -0 -3.41171e-06)
(0 -0 -3.35868e-06)
(0 -0 -3.30549e-06)
(0 -0 -3.25226e-06)
(0 -0 -3.19915e-06)
(0 -0 -3.14631e-06)
(0 -0 -3.09379e-06)
(0 -0 -3.04157e-06)