/*--------------------------------*- C++ -*----------------------------------*\
| =========                 |                                                 |
| \\      /  F ield         | OpenFOAM: The Open Source CFD Toolbox           |
|  \\    /   O peration     | Version:  2412                                  |
|   \\  /    A nd           | Website:  www.openfoam.com                      |
|    \\/     M anipulation  |                                                 |
\*---------------------------------------------------------------------------*/
FoamFile
{
    version     2.0;
    format      ascii;
    arch        "LSB;label=32;scalar=64";
    class       surfaceScalarField;
    location    "2.5";
    object      phi;
}
// * * * * * * * * * * * * * * * * * * * * * * * * * * * * * * * * * * * * * //

dimensions      [0 3 -1 0 0 0 0];

oriented        oriented;

internalField   nonuniform List<scalar> 
10387
(
0.00486712
6.66775e-06
-2.71267e-09
0.00485881
8.3136e-06
-2.6982e-09
0.00484876
1.00461e-05
-2.76577e-09
0.00483688
1.18913e-05
-2.85925e-09
0.004823
1.38772e-05
-2.92972e-09
0.00480697
1.60339e-05
-2.92394e-09
0.00478858
1.83951e-05
-2.79323e-09
0.00476758
2.09981e-05
-2.54022e-09
0.0047437
2.38843e-05
-2.19885e-09
0.0047166
2.70991e-05
-1.81686e-09
0.00468591
3.06932e-05
-1.44015e-09
0.00465119
3.47257e-05
-1.10474e-09
0.00461192
3.92684e-05
-8.33458e-10
0.00456751
4.44107e-05
-6.3681e-10
0.00451725
5.02641e-05
-5.17379e-10
0.00446028
5.69663e-05
-4.67435e-10
0.00439559
6.46865e-05
-4.67667e-10
0.00432196
7.36335e-05
-4.92378e-10
0.00423789
8.40689e-05
-5.12802e-10
0.00414157
9.63254e-05
-5.01133e-10
0.00403074
0.000110831
-4.39127e-10
0.0039026
0.000128139
-3.22853e-10
0.00375363
0.000148967
-1.5852e-10
0.0035794
0.000174236
3.78838e-11
0.0033743
0.000205099
2.48569e-10
0.00313141
0.000242889
4.48595e-10
0.00284256
0.000288851
6.09777e-10
0.00249917
0.000343387
7.05448e-10
0.00209475
0.000404414
7.30568e-10
0.00163017
0.000464587
7.12239e-10
0.00112237
0.000507796
7.0584e-10
0.000616156
0.000506212
7.01807e-10
0.000197477
0.000418679
5.63958e-10
0.000197477
2.11884e-10
0.00484036
1.48541e-05
0.00483055
1.81251e-05
0.00481902
2.15751e-05
0.00480565
2.52555e-05
0.00479031
2.92211e-05
0.00477281
3.35318e-05
0.00475295
3.82544e-05
0.00473049
4.34634e-05
0.00470513
4.92415e-05
0.00467655
5.56795e-05
0.00464436
6.28787e-05
0.00460813
7.09575e-05
0.00456734
8.00596e-05
0.00452139
9.03638e-05
0.00446956
0.000102093
0.004411
0.000115522
0.0043447
0.000130987
0.00426943
0.000148906
0.0041837
0.000169797
0.0040857
0.000194323
0.0039732
0.000223333
0.00384342
0.000257922
0.00369288
0.000299507
0.00351721
0.000349907
0.00331093
0.00041138
0.0030673
0.000486517
0.00277847
0.000577677
0.00243641
0.000685446
0.00203543
0.000805392
0.00157739
0.000922629
0.00108015
0.00100504
0.000588409
0.000997949
0.000184806
0.000822282
0.000382282
0.00478758
2.6038e-05
0.00477481
3.08959e-05
0.00476035
3.60364e-05
0.00474407
4.15339e-05
0.00472583
4.74687e-05
0.00470543
5.3929e-05
0.00468267
6.10138e-05
0.0046573
6.88348e-05
0.00462902
7.75158e-05
0.00459751
8.7193e-05
0.00456237
9.80187e-05
0.00452316
0.00011017
0.00447935
0.000123864
0.00443035
0.000139368
0.00437542
0.000157017
0.00431372
0.00017722
0.00424423
0.000200481
0.00416572
0.000227418
0.00407671
0.000258807
0.0039754
0.000295628
0.0038596
0.000339134
0.00372659
0.00039094
0.00357297
0.000453126
0.00339453
0.000528343
0.00318605
0.000619863
0.0029412
0.000731367
0.00265282
0.000866056
0.00231398
0.00102429
0.00192056
0.00119881
0.0014762
0.00136698
0.00100011
0.00148114
0.000537
0.00146106
0.000165109
0.00119417
0.000547392
0.00471046
4.16029e-05
0.00469335
4.79992e-05
0.00467459
5.47957e-05
0.00465404
6.20877e-05
0.00463153
6.99786e-05
0.00460687
7.85835e-05
0.00457986
8.80329e-05
0.00455021
9.84751e-05
0.00451766
0.000110075
0.00448183
0.000123014
0.00444236
0.000137496
0.00439877
0.000153759
0.00435054
0.00017209
0.00429706
0.000192849
0.0042376
0.000216478
0.0041713
0.000243524
0.00409713
0.000274649
0.00401387
0.000310674
0.00392006
0.000352615
0.00381393
0.000401758
0.00369333
0.000459738
0.00355562
0.000528647
0.00339759
0.00061116
0.00321527
0.000710661
0.00300387
0.000831261
0.00275778
0.00097746
0.00247096
0.00115287
0.00213819
0.00135706
0.00175763
0.00157937
0.0013352
0.00178941
0.000891114
0.00192523
0.000468268
0.0018839
0.000137234
0.00152521
0.000684626
0.00461159
6.28065e-05
0.0045889
7.06889e-05
0.00456459
7.91043e-05
0.00453852
8.81664e-05
0.0045105
9.79996e-05
0.00448033
0.000108744
0.0044478
0.000120562
0.00441264
0.000133638
0.00437454
0.000148176
0.00433315
0.000164406
0.00428807
0.00018258
0.00423883
0.000202999
0.00418489
0.000226023
0.00412564
0.000252101
0.00406033
0.000281788
0.0039881
0.000315757
0.00390791
0.000354833
0.00381856
0.000400025
0.0037186
0.000452581
0.00360629
0.000514069
0.00347956
0.000586466
0.00333593
0.000672278
0.00317241
0.000774676
0.00298547
0.000897603
0.00277099
0.00104574
0.00252447
0.00122398
0.00224158
0.00143576
0.00191953
0.00167911
0.00155939
0.00193952
0.00116956
0.00217924
0.000770249
0.00232454
0.000398444
0.00225571
0.000109266
0.00181438
0.000793892
0.00449429
9.07662e-05
0.00446489
0.000100084
0.00443392
0.000110083
0.00440119
0.000120891
0.00436654
0.000132654
0.00432975
0.000145536
0.00429058
0.000159728
0.00424877
0.000175452
0.00420399
0.000192953
0.00415589
0.000212506
0.00410405
0.000234416
0.00404801
0.000259043
0.0039872
0.000286827
0.003921
0.000318305
0.00384865
0.000354142
0.00376926
0.000395141
0.00368182
0.00044228
0.00358509
0.000496748
0.00347766
0.000560011
0.00335785
0.000633885
0.00322368
0.000720635
0.00307287
0.000823083
0.00290283
0.000944719
0.00271067
0.00108976
0.00249344
0.00126297
0.00224848
0.00146895
0.00197427
0.00170997
0.00167175
0.00198162
0.00134616
0.00226511
0.00100864
0.00251676
0.000677886
0.0026553
0.000378236
0.00255536
0.000129438
0.00206318
0.00092333
0.00436215
0.000126413
0.00432512
0.000137113
0.00428655
0.000148651
0.00424627
0.000161172
0.00420409
0.000174838
0.00415979
0.00018984
0.00411312
0.000206398
0.0040638
0.000224767
0.00401152
0.000245235
0.00395591
0.000268119
0.00389654
0.000293779
0.00383295
0.000322638
0.00376456
0.000355213
0.00369073
0.000392136
0.0036107
0.000434178
0.00352356
0.000482273
0.0034283
0.000537545
0.00332369
0.00060136
0.00320832
0.000675379
0.00308056
0.000761643
0.00293855
0.000862646
0.00278021
0.000981423
0.00260333
0.0011216
0.00240579
0.0012873
0.00218596
0.00148281
0.0019435
0.00171141
0.00168058
0.00197289
0.00140345
0.00225875
0.00112393
0.00254462
0.000859808
0.00278088
0.00063068
0.00288442
0.000444896
0.00274114
0.00027654
0.00223154
0.00119987
-2.2059e-05
2.20589e-05
1.03832e-10
-4.61551e-06
-1.7444e-05
5.80089e-10
9.11196e-05
-9.57363e-05
1.18539e-09
0.000279058
-0.00018794
1.64237e-09
0.000552811
-0.000273754
1.78888e-09
0.000891944
-0.000339136
1.69765e-09
0.00126964
-0.000377698
1.58574e-09
0.00165944
-0.000389802
1.65567e-09
0.00203964
-0.000380197
1.98078e-09
0.00239512
-0.000355483
2.50527e-09
0.00271726
-0.000322148
3.08661e-09
0.00300272
-0.000285462
3.5886e-09
0.00325183
-0.000249112
3.92345e-09
0.00346715
-0.000215321
4.05642e-09
0.00365231
-0.000185174
3.99622e-09
0.00381129
-0.000158981
3.77406e-09
0.00394788
-0.000136596
3.42767e-09
0.00406552
-0.000117639
2.99108e-09
0.00416717
-0.000101648
2.50125e-09
0.00425532
-8.81572e-05
1.99756e-09
0.00433206
-7.67441e-05
1.56567e-09
-6.70451e-05
1.1912e-09
-1.02599e-05
3.23188e-05
2.70071e-05
-5.47111e-05
0.000139375
-0.000208104
0.000335658
-0.000384223
0.000608384
-0.000546481
0.000938753
-0.000669505
0.00130291
-0.000741858
0.0016774
-0.00076429
0.0020428
-0.000745598
0.00238539
-0.000698075
0.00269715
-0.000633904
0.00297476
-0.00056307
0.00321828
-0.000492639
0.00342989
-0.000426925
0.0036128
-0.000368082
0.0037706
-0.00031678
0.00390679
-0.000272794
0.00402459
-0.000235435
0.00412678
-0.000203836
0.00421574
-0.000177117
0.00429346
-0.000154469
-0.000135192
1.32867e-05
1.90321e-05
8.38661e-05
-0.00012529
0.000225504
-0.000349742
0.000436232
-0.000594951
0.0007062
-0.000816449
0.00101972
-0.000983023
0.00135841
-0.00108055
0.00170431
-0.00111019
0.0020422
-0.00108349
0.0023609
-0.00101677
0.00265344
-0.000926446
0.00291657
-0.000826205
0.00314985
-0.000725916
0.00335468
-0.000631752
0.00353351
-0.000546913
0.00368924
-0.000472516
0.00382484
-0.000408386
0.00394306
-0.000353654
0.00404638
-0.000307163
0.00413697
-0.000267707
0.00421666
-0.000234159
-0.00020553
3.98033e-05
-2.07712e-05
0.000153572
-0.000239059
0.000330586
-0.000526756
0.000557066
-0.000821431
0.000820891
-0.00108027
0.0011106
-0.00127273
0.00141489
-0.00138485
0.00172283
-0.00141813
0.00202454
-0.00138519
0.002312
-0.00130423
0.00257957
-0.00119402
0.00282402
-0.00107065
0.00304418
-0.000946071
0.00324044
-0.00082802
0.00341426
-0.00072073
0.00356763
-0.000625884
0.00370277
-0.000543526
0.00382189
-0.000472779
0.00392707
-0.000412341
0.00402016
-0.000360799
0.0041028
-0.000316796
-0.000279117
6.73456e-05
-8.81168e-05
0.00022551
-0.000397224
0.000434509
-0.000735756
0.000670721
-0.00105764
0.000921554
-0.00133111
0.00118083
-0.001532
0.00144488
-0.0016489
0.00171002
-0.00168327
0.00197177
-0.00164695
0.00222528
-0.00155773
0.00246608
-0.00143483
0.00269082
-0.00129539
0.00289746
-0.0011527
0.00308523
-0.00101579
0.00325444
-0.000889936
0.00340607
-0.000777522
0.00354156
-0.000679013
0.0036625
-0.000593716
0.0037705
-0.000520349
0.00386713
-0.000457419
0.00395377
-0.000403437
0.00403168
-0.000357034
-0.000317011
0.000111188
-0.000199304
0.00030633
-0.000592366
0.000527976
-0.000957402
0.000755096
-0.00128476
0.000979074
-0.00155508
0.00119951
-0.00175244
0.0014193
-0.00186868
0.00164059
-0.00190457
0.00186314
-0.0018695
0.00208442
-0.00177902
0.00230069
-0.0016511
0.00250811
-0.00150281
0.0027036
-0.00134819
0.00288516
-0.00119736
0.00305188
-0.00105666
0.00320375
-0.000929392
0.00334138
-0.000816646
0.00346578
-0.000718113
0.00357813
-0.000632702
0.00367969
-0.000558972
0.00377165
-0.000495398
0.00385514
-0.000440525
-0.000393046
0.000169063
-0.000368367
0.000372667
-0.000795971
0.000576023
-0.00116076
0.00077042
-0.00147916
0.000954882
-0.00173955
0.0011334
-0.00193096
0.00131228
-0.00204755
0.0014965
-0.00208878
0.00168777
-0.00206077
0.00188449
-0.00197574
0.00208289
-0.0018495
0.00227846
-0.00169838
0.00246712
-0.00153685
0.00264581
-0.00137605
0.00281264
-0.00122349
0.00296678
-0.00108353
0.0031082
-0.000958067
0.00323743
-0.000847345
0.00335533
-0.000750597
0.00346289
-0.000666538
0.00356118
-0.000593686
0.00365121
-0.000530553
-0.000475761
0.00115712
-0.00112105
-0.000404439
0.00177944
-0.00141829
0.00230009
-0.0016814
0.002723
-0.00190208
0.00305576
-0.0020723
0.00330952
-0.00218473
0.00349808
-0.00223611
0.0036366
-0.0022273
0.00373974
-0.00216391
0.00382007
-0.00205607
0.00388722
-0.00191665
0.00394781
-0.00175897
0.00400582
-0.00159486
0.00406324
-0.00143347
0.00412073
-0.00128097
0.00417815
-0.00114095
0.004235
-0.00101492
0.00429068
-0.000903021
0.00434462
-0.000804541
0.0043964
-0.000718313
0.0044457
-0.00064299
0.00449236
-0.000577216
0.00453632
-0.000519717
0.00211858
-0.00170546
-0.00153417
0.00262059
-0.0019203
0.00303776
-0.00209857
0.00336907
-0.00223338
0.0036199
-0.00232313
0.00380092
-0.00236575
0.00392546
-0.00236064
0.00400782
-0.00230966
0.00406172
-0.00221781
0.00409885
-0.00209321
0.00412817
-0.00194597
0.00415571
-0.00178651
0.00418496
-0.00162411
0.00421746
-0.00146597
0.00425344
-0.00131695
0.00429237
-0.00117988
0.00433339
-0.00105594
0.00437554
-0.000945175
0.00441796
-0.000846962
0.00445993
-0.00076028
0.00450089
-0.000683949
0.00454045
-0.000616774
-0.000557617
0.00327164
-0.00209448
-0.00288262
0.00359761
-0.00224628
0.00386365
-0.00236461
0.00406759
-0.00243733
0.00421192
-0.00246746
0.00430439
-0.00245822
0.00435552
-0.00241177
0.0043769
-0.00233104
0.00437981
-0.00222072
0.00437396
-0.00208735
0.0043667
-0.00193871
0.00436289
-0.00178271
0.00436512
-0.00162634
0.00437425
-0.00147509
0.00438998
-0.00133268
0.00441135
-0.00120126
0.00443717
-0.00108175
0.00446617
-0.000974179
0.00449724
-0.000878025
0.0045294
-0.000792446
0.00456191
-0.000716459
0.00459419
-0.000649049
-0.000589238
0.0043862
-0.002286
-0.00419468
0.00453627
-0.00239635
0.00464762
-0.00247595
0.00472076
-0.00251046
0.00475748
-0.00250419
0.00476288
-0.00246362
0.00474422
-0.00239312
0.00470976
-0.00229659
0.00466766
-0.00217861
0.00462495
-0.00204465
0.00458695
-0.00190071
0.00455698
-0.00175273
0.00453656
-0.00160592
0.00452584
-0.00146437
0.00452405
-0.00133089
0.00452994
-0.00120715
0.00454204
-0.00109385
0.00455894
-0.000991074
0.00457933
-0.000898419
0.00460212
-0.000815238
0.00462642
-0.000740752
0.0046515
-0.000674135
-0.000614576
0.00532399
-0.00230888
-0.00530111
0.00532605
-0.00239841
0.00530712
-0.00245702
0.0052695
-0.00247284
0.00521533
-0.00245002
0.00514794
-0.00239623
0.0050719
-0.00231708
0.00499247
-0.00221715
0.00491487
-0.00210102
0.00484363
-0.0019734
0.004782
-0.00183908
0.00473185
-0.00170257
0.00469372
-0.00156779
0.00466715
-0.00143781
0.00465103
-0.00131477
0.00464389
-0.00120001
0.00464418
-0.00109414
0.00465038
-0.000997278
0.00466115
-0.000909187
0.00467532
-0.000829406
0.00469191
-0.000757351
0.00471016
-0.000692382
-0.000633852
0.00602665
-0.00220834
-0.00612719
0.00592092
-0.00229268
0.00580788
-0.00234398
0.00569017
-0.00235513
0.00557024
-0.0023301
0.00545039
-0.00227638
0.00533331
-0.0022
0.00522204
-0.00210589
0.00511958
-0.00199855
0.0050284
-0.00188223
0.00495017
-0.00176085
0.00488558
-0.00163798
0.00483442
-0.00151663
0.00479581
-0.00139919
0.00476842
-0.00128738
0.00475072
-0.00118231
0.00474114
-0.00108456
0.00473819
-0.000994325
0.00474052
-0.000911522
0.00474698
-0.000835863
0.00475657
-0.000766946
0.00476849
-0.000704302
-0.000647438
0.00649617
-0.00203229
-0.00667222
0.00632393
-0.00212044
0.00615323
-0.00217329
0.00598657
-0.00218846
0.00582645
-0.00216998
0.00567461
-0.00212454
0.00553265
-0.00205803
0.00540219
-0.00197542
0.00528473
-0.00188109
0.00518139
-0.00177889
0.00509274
-0.0016722
0.00501867
-0.00156392
0.00495852
-0.00145649
0.00491118
-0.00135185
0.00487525
-0.00125146
0.00484923
-0.00115629
0.00483163
-0.00106695
0.00482102
-0.000983717
0.00481613
-0.000906637
0.00481585
-0.000835582
0.00481921
-0.000770309
0.00482541
-0.000710501
-0.000655802
0.00676957
-0.00182185
-0.00698
0.00656584
-0.00191672
0.00636792
-0.00197536
0.00617824
-0.00199878
0.00599929
-0.00199103
0.00583259
-0.00195784
0.0056792
-0.00190464
0.00553999
-0.00183621
0.00541561
-0.00175671
0.0053064
-0.00166968
0.00521228
-0.00157807
0.00513274
-0.00148437
0.00506689
-0.00139064
0.00501356
-0.00129852
0.0049714
-0.0012093
0.00493902
-0.00112391
0.00491504
-0.00104297
0.00489817
-0.000966847
0.00488723
-0.000895697
0.00488118
-0.000829528
0.0048791
-0.000768233
0.00488023
-0.000711624
-0.000659466
0.00689671
-0.00160646
-0.00711211
0.00668699
-0.001707
0.00648383
-0.00177221
0.00628988
-0.00180483
0.00610762
-0.00180877
0.00593857
-0.00178879
0.00578363
-0.00174971
0.00564337
-0.00169595
0.00551805
-0.0016314
0.00540764
-0.00155927
0.00531178
-0.00148222
0.00522981
-0.00140241
0.00516082
-0.00132164
0.00510369
-0.00124139
0.00505722
-0.00116282
0.00502014
-0.00108683
0.00499124
-0.00101407
0.00496936
-0.000944968
0.00495344
-0.00087978
0.00494253
-0.00081862
0.00493579
-0.000761493
0.00493249
-0.000708321
-0.000658969
0.00692537
-0.00140381
-0.00712801
0.00672556
-0.00150719
0.00653102
-0.00157767
0.00634469
-0.0016185
0.00616907
-0.00163315
0.0060058
-0.00162551
0.00585581
-0.00159972
0.00571962
-0.00155976
0.00559739
-0.00150917
0.00548901
-0.00145088
0.00539406
-0.00138727
0.00531191
-0.00132026
0.00524172
-0.00125146
0.00518253
-0.0011822
0.00513328
-0.00111357
0.00509289
-0.00104645
0.00506031
-0.000981491
0.00503453
-0.000919185
0.0050146
-0.000859858
0.00499969
-0.000803706
0.00498902
-0.000750823
0.00498192
-0.000701219
-0.000654845
0.00689388
-0.00122236
-0.00707534
0.00671218
-0.00132549
0.00653364
-0.00139913
0.00636139
-0.00144625
0.00619797
-0.00146973
0.0060451
-0.00147264
0.00590385
-0.00145846
0.0057748
-0.00143071
0.00565818
-0.00139255
0.0055539
-0.00134661
0.00546165
-0.00129502
0.0053809
-0.00123951
0.00531096
-0.00118152
0.00525104
-0.00112227
0.00520025
-0.00106279
0.00515771
-0.0010039
0.0051225
-0.000946287
0.00509378
-0.000890459
0.00507072
-0.000836796
0.00505257
-0.000785557
0.00503864
-0.000736902
0.00502834
-0.000690912
-0.000647605
0.00682953
-0.00106446
-0.00698743
0.00666886
-0.00116481
0.0065092
-0.00123947
0.00635374
-0.00129078
0.00620496
-0.00132095
0.00606466
-0.00133234
0.005934
-0.00132781
0.00581369
-0.0013104
0.00570406
-0.00128291
0.00560513
-0.00124769
0.00551673
-0.00120661
0.00543847
-0.00116125
0.00536984
-0.00111289
0.0053102
-0.00106264
0.00525887
-0.00101146
0.00521511
-0.000960137
0.00517817
-0.000909347
0.00514732
-0.000859616
0.00512188
-0.000811352
0.00510118
-0.000764858
0.00508462
-0.000720344
0.00507166
-0.000677944
-0.000637732
0.00674993
-0.000929119
-0.00688527
0.00661007
-0.00102496
0.00646947
-0.00109887
0.00633116
-0.00115248
0.00619754
-0.00118733
0.00607039
-0.00120518
0.00595093
-0.00120835
0.00583998
-0.00119944
0.00573795
-0.00118089
0.00564503
-0.00115476
0.00556116
-0.00112274
0.00548612
-0.0010862
0.00541954
-0.00104631
0.00536097
-0.00100407
0.00530986
-0.00096035
0.00526564
-0.000915917
0.0052277
-0.000871409
0.00519544
-0.000827356
0.00516827
-0.000784182
0.00514563
-0.000742215
0.00512699
-0.000701701
0.00511186
-0.000662814
-0.000625669
0.00666551
-0.00081382
-0.0067808
0.00654472
-0.000904171
0.00642191
-0.00097606
0.00629986
-0.00103043
0.00618081
-0.00106828
0.00606645
-0.00109083
0.00595805
-0.00109995
0.00585645
-0.00109784
0.00576218
-0.00108662
0.00567552
-0.0010681
0.00559654
-0.00104376
0.00552516
-0.00101482
0.00546116
-0.000982308
0.00540422
-0.000947125
0.00535394
-0.000910071
0.00530987
-0.000871852
0.00527154
-0.000833079
0.00523845
-0.000794268
0.00521012
-0.000755845
0.00518606
-0.000718154
0.00516582
-0.000681461
0.00514897
-0.000645968
-0.00061182
0.006582
-0.000715676
-0.00668014
0.00647796
-0.000800136
0.00637107
-0.000869166
0.0062638
-0.000923167
0.00615818
-0.000962653
0.0060558
-0.000988444
0.00595787
-0.00100202
0.00586527
-0.00100525
0.00577859
-0.000999945
0.00569819
-0.000987702
0.00562425
-0.000969816
0.00555678
-0.000947354
0.00549569
-0.000921222
0.00544079
-0.000892221
0.00539179
-0.000861072
0.00534836
-0.000828423
0.00531013
-0.000794847
0.0052767
-0.000760838
0.00524767
-0.000726817
0.00522265
-0.000693128
0.00520124
-0.00066005
0.00518307
-0.000627801
-0.00059655
0.00650224
-0.000631942
-0.00658598
0.0064126
-0.000710488
0.00631962
-0.000776188
0.00622547
-0.000829022
0.00613194
-0.000869124
0.00604049
-0.000896993
0.00595227
-0.000913799
0.00586814
-0.000921112
0.00578871
-0.000920516
0.0057144
-0.000913396
0.00564547
-0.000900884
0.00558202
-0.000883907
0.00552406
-0.000863256
0.00547147
-0.000839634
0.00542408
-0.000813686
0.00538166
-0.000785999
0.00534392
-0.000757104
0.00531054
-0.000727467
0.00528122
-0.000697492
0.00525561
-0.000667521
0.0052334
-0.000637834
0.00521426
-0.00060866
-0.000580181
0.00642747
-0.000560228
-0.00649919
0.00635005
-0.000633067
0.00626909
-0.000695224
0.00618643
-0.000746366
0.00610364
-0.000786336
0.00602203
-0.000815383
0.00594266
-0.00083443
0.00586636
-0.00084481
0.00579375
-0.000847903
0.00572527
-0.000844919
0.00566123
-0.000836843
0.0056018
-0.000824478
0.00554705
-0.000808506
0.00549696
-0.00078954
0.00545142
-0.000768148
0.00541028
-0.000744858
0.00537333
-0.000720155
0.00534034
-0.000694474
0.00531105
-0.000668198
0.00528518
-0.000641657
0.00526248
-0.00061513
0.00524267
-0.000588847
-0.000562998
0.00635804
-0.000498535
-0.00641974
0.00629097
-0.000565997
0.00622032
-0.000624575
0.00614766
-0.000673704
0.00607434
-0.000713011
0.00600151
-0.000742554
0.00593014
-0.000763065
0.00586102
-0.000775685
0.00579474
-0.000781625
0.00573177
-0.000781945
0.00567243
-0.000777503
0.00561694
-0.000768991
0.00556542
-0.000756991
0.00551792
-0.000742033
0.00547438
-0.000724613
0.00543472
-0.0007052
0.0053988
-0.000684233
0.00536644
-0.000662113
0.00533744
-0.000639199
0.00531159
-0.000615806
0.00528866
-0.000592203
0.00526844
-0.000568621
-0.000545251
0.00629388
-0.000445221
-0.0063472
0.00623558
-0.000507692
0.00617377
-0.000562765
0.00610977
-0.000609709
0.00604475
-0.000647988
0.00597972
-0.000677523
0.00591555
-0.000698893
0.00585295
-0.000713092
0.00579251
-0.000721187
0.00573469
-0.000724117
0.00567981
-0.000722628
0.00562813
-0.000717314
0.00557981
-0.000708669
0.00553492
-0.000697145
0.00549348
-0.000683172
0.00545544
-0.000667162
0.00542072
-0.000649509
0.00538919
-0.00063058
0.00536069
-0.000610707
0.00533507
-0.000590186
0.00531215
-0.000569276
0.00529173
-0.000548201
-0.000527152
0.00623472
-0.000398944
-0.006281
0.00618385
-0.000456824
0.00612962
-0.000508534
0.00607314
-0.000553223
0.00601539
-0.000590236
0.00595726
-0.000619394
0.00589953
-0.000641161
0.00584285
-0.000656413
0.00578776
-0.000666104
0.00573471
-0.000671068
0.00568404
-0.000671958
0.00563601
-0.00066928
0.00559079
-0.000663453
0.00554851
-0.000654858
0.0055092
-0.000643862
0.00547286
-0.000630827
0.00543946
-0.000616103
0.0054089
-0.000600021
0.00538108
-0.000582885
0.00535587
-0.000564974
0.00533312
-0.000546532
0.00531269
-0.000527774
-0.000508885
0.00618021
-0.000358607
-0.00622055
0.00613568
-0.000412286
0.00608796
-0.000460813
0.00603798
-0.000503247
0.00598659
-0.00053885
0.00593457
-0.000567368
0.00588259
-0.000589183
0.00583125
-0.000605075
0.00578105
-0.000615909
0.00573242
-0.000622432
0.00568568
-0.000625218
0.0056411
-0.0006247
0.00559887
-0.000621228
0.00555914
-0.000615119
0.00552196
-0.000606685
0.00548737
-0.000596241
0.00545536
-0.000584093
0.00542588
-0.000570541
0.00539886
-0.000555862
0.0053742
-0.000540311
0.00535178
-0.00052412
0.0053315
-0.000507492
-0.000490605
0.00612999
-0.00032331
-0.00616529
0.00609086
-0.000373156
0.00604874
-0.000418697
0.00600442
-0.000458924
0.00595861
-0.000493039
0.00591198
-0.000520736
0.00586513
-0.000542336
0.0058186
-0.000558547
0.00577285
-0.000570161
0.00572828
-0.000577855
0.00568519
-0.000582136
0.00564387
-0.000583373
0.0056045
-0.000581856
0.00556722
-0.000577847
0.00553215
-0.000571609
0.00549932
-0.000563411
0.00546875
-0.000553524
0.00544042
-0.000542211
0.00541428
-0.000529727
0.00539028
-0.000516305
0.00536832
-0.000502159
0.00534831
-0.000487482
-0.000472443
0.00608368
-0.000292308
-0.00611468
0.00604919
-0.000338666
0.00601192
-0.000381422
0.00597251
-0.000419518
0.00593159
-0.000452114
0.00588972
-0.000478871
0.00584745
-0.000500064
0.00580525
-0.000516346
0.00576354
-0.000528452
0.00572269
-0.000537
0.00568299
-0.000542441
0.00564471
-0.000545091
0.00560804
-0.000545187
0.00557314
-0.000542944
0.00554011
-0.00053858
0.00550902
-0.000532324
0.00547991
-0.000524411
0.00545277
-0.000515076
0.00542759
-0.000504547
0.00540432
-0.000493036
0.00538291
-0.000480742
0.00536327
-0.000467844
-0.000454503
0.00604095
-0.000264985
-0.00606828
0.00601046
-0.00030817
0.00597738
-0.000348339
0.00594226
-0.000384399
0.00590562
-0.000415481
0.00586798
-0.000441224
0.00582978
-0.000461871
0.00579147
-0.000478035
0.00575342
-0.000490403
0.00571597
-0.000499548
0.0056794
-0.000505873
0.00564396
-0.000509647
0.00560984
-0.000511065
0.00557719
-0.000510299
0.00554614
-0.000507528
0.00551676
-0.000502944
0.0054891
-0.00049675
0.00546318
-0.000489155
0.00543899
-0.000480361
0.00541652
-0.000470563
0.00539572
-0.00045994
0.00537653
-0.00044866
-0.000436874
0.00600149
-0.000240827
-0.00602565
0.00597445
-0.000281125
0.005945
-0.000318898
0.00591363
-0.000353027
0.00588077
-0.000382623
0.00584686
-0.000407312
0.00581231
-0.000427317
0.00577749
-0.000443219
0.00574276
-0.00045567
0.00570841
-0.000465203
0.00567472
-0.000472183
0.00564191
-0.000476841
0.00561018
-0.000479333
0.00557968
-0.000479795
0.00555052
-0.00047837
0.0055228
-0.00047522
0.00549657
-0.00047052
0.00547186
-0.00046445
0.00544869
-0.000457193
0.00542705
-0.000448923
0.00540692
-0.000439805
0.00538825
-0.000429992
-0.000419625
0.005965
-0.000219403
-0.00598642
0.00594095
-0.000257073
0.00591468
-0.000292632
0.00588659
-0.000324937
0.00585706
-0.000353089
0.00582646
-0.00037671
0.00579515
-0.000396008
0.00576347
-0.000411543
0.00573174
-0.000423935
0.00570022
-0.00043369
0.00566918
-0.000441138
0.00563882
-0.000446478
0.00560932
-0.000449833
0.00558083
-0.000451309
0.00555348
-0.000451018
0.00552735
-0.000449094
0.00550252
-0.000445685
0.00547902
-0.00044095
0.00545687
-0.000435049
0.00543609
-0.00042814
0.00541666
-0.000420371
0.00539855
-0.000411885
-0.000402811
0.00593122
-0.000200352
-0.00595027
0.00590978
-0.000235629
0.00588628
-0.00026914
0.00586108
-0.00029973
0.00583448
-0.000326491
0.00580682
-0.000349047
0.00577841
-0.000367599
0.00574955
-0.000382688
0.00572053
-0.000394915
0.0056916
-0.000404756
0.00566298
-0.000412519
0.00563487
-0.000418373
0.00560745
-0.000422414
0.00558086
-0.000424719
0.00555522
-0.000425377
0.00553063
-0.000424496
0.00550714
-0.000422201
0.00548482
-0.000418629
0.0054637
-0.000413923
0.00544378
-0.000408222
0.00542507
-0.000401663
0.00540756
-0.000394372
-0.000386472
0.00589991
-0.000183367
-0.0059169
0.00588075
-0.000216461
0.00585969
-0.000248082
0.00583702
-0.000277061
0.00581302
-0.000302491
0.00578797
-0.000323998
0.00576215
-0.000341781
0.00573583
-0.00035637
0.00570927
-0.000368348
0.00568268
-0.000378171
0.00565629
-0.000386123
0.00563026
-0.00039235
0.00560478
-0.000396926
0.00557996
-0.000399906
0.00555594
-0.000401354
0.0055328
-0.000401356
0.00551061
-0.000400018
0.00548944
-0.000397458
0.00546932
-0.0003938
0.00545027
-0.00038917
0.0054323
-0.00038369
0.0054154
-0.000377476
-0.000370638
0.00587086
-0.000168191
-0.00588604
0.00585369
-0.000199291
0.00583477
-0.000229165
0.00581435
-0.000256634
0.00579265
-0.000280793
0.00576993
-0.000301277
0.00574643
-0.000318284
0.0057224
-0.000332335
0.00569805
-0.000344001
0.0056736
-0.000353721
0.00564924
-0.00036176
0.00562513
-0.000368246
0.00560144
-0.000373231
0.00557828
-0.000376751
0.00555578
-0.000378851
0.00553402
-0.000379598
0.00551308
-0.000379079
0.00549302
-0.000377396
0.00547388
-0.000374657
0.00545568
-0.000370974
0.00543845
-0.000366456
0.00542218
-0.000361208
-0.000355331
0.00584387
-0.000154602
-0.00585746
0.00582846
-0.00018388
0.00581143
-0.000212136
0.00579299
-0.000238191
0.00577334
-0.000261141
0.00575269
-0.000280632
0.00573128
-0.000296864
0.00570929
-0.000310355
0.00568696
-0.000321663
0.00566445
-0.000331214
0.00564195
-0.000339258
0.00561961
-0.000345906
0.00559757
-0.000351195
0.00557596
-0.000355142
0.00555489
-0.000357776
0.00553444
-0.000359147
0.00551468
-0.000359327
0.00549569
-0.000358402
0.0054775
-0.000356466
0.00546014
-0.000353618
0.00544364
-0.000349955
0.00542801
-0.000345573
-0.000340563
0.00581878
-0.00583096
0.00580492
-0.000170021
0.00578956
-0.00019678
0.00577288
-0.000221509
0.00575505
-0.000243311
0.00573626
-0.000261843
0.0057167
-0.000277309
0.00569657
-0.000290226
0.00567605
-0.000301142
0.00565531
-0.000310474
0.00563451
-0.000318457
0.00561379
-0.000325188
0.00559329
-0.000330692
0.00557312
-0.00033497
0.00555338
-0.000338036
0.00553416
-0.000339928
0.00551553
-0.000340701
0.00549756
-0.000340429
0.00548029
-0.000339193
0.00546375
-0.00033708
0.00544797
-0.000334177
0.00543297
-0.000330569
-0.000326339
0.00578293
0.00576906
0.00575394
0.00573774
0.00572061
0.00570273
0.00568427
0.00566539
0.00564625
0.00562701
0.00560778
0.00558869
0.00556985
0.00555136
0.0055333
0.00551574
0.00549874
0.00548235
0.00546661
0.00545153
0.00543715
0.00128475
0.000112906
-0.00139766
0.00114575
0.000139004
0.000987148
0.000158599
0.000816092
0.000171056
0.000640746
0.000175345
0.000481976
0.00015877
7.75373e-05
0.00354597
0.00030932
-0.00374239
0.00329364
0.000391339
0.00299285
0.000459385
0.00265333
0.000510581
0.00228792
0.000540758
0.00191764
0.000529046
0.000461011
0.00531626
0.00050086
-0.0055078
0.00504941
0.000658185
0.00471363
0.000795162
0.00431843
0.000905785
0.0038755
0.000983686
0.00339768
0.00100687
0.000976069
0.00652155
0.000638542
-0.00665923
0.00630434
0.000875393
0.00601048
0.00108902
0.00564542
0.00127085
0.00521662
0.00141248
0.00472999
0.0014935
0.00151138
0.00720538
0.00070968
-0.00727652
0.00706253
0.00101825
0.00684756
0.00130399
0.00656127
0.00155714
0.00620618
0.00176757
0.00578238
0.00191729
0.00199265
0.00749198
0.000724677
-0.00750697
0.00741999
0.00109023
0.00728859
0.0014354
0.0070953
0.00175042
0.00683855
0.00202433
0.00651405
0.00224179
0.00237951
0.00752334
0.000702596
-0.00750126
0.00750486
0.00110871
0.0074427
0.00149756
0.007333
0.00186012
0.00717172
0.0021856
0.00695231
0.0024612
0.0026596
0.00741634
0.00066126
-0.00737501
0.00743176
0.00109329
0.00741836
0.00151096
0.00737224
0.00190624
0.00728868
0.00226916
0.00716071
0.00258917
0.00284031
0.00724957
0.000613142
-0.00720145
0.00728315
0.00105971
0.00729989
0.00149422
0.00729663
0.0019095
0.00726907
0.00229673
0.00721111
0.00264713
0.00293932
0.0070678
0.000565332
-0.00701999
0.00710919
0.00101832
0.00714253
0.00146088
0.00716553
0.00188651
0.00717484
0.00228742
0.00716571
0.00265626
0.00297701
0.00689269
0.000521064
-0.00684842
0.00693608
0.000974931
0.0069775
0.00141947
0.00701539
0.00184861
0.00704739
0.00225541
0.00707008
0.00263357
0.00297175
0.00673265
0.000481349
-0.00669294
0.00677524
0.000932342
0.00681994
0.00137476
0.00686576
0.0018028
0.00691109
0.00221009
0.00695358
0.00259108
0.0029379
0.00658959
0.000446048
-0.00655429
0.00663026
0.000891673
0.00667582
0.00132921
0.00672559
0.00175302
0.00677852
0.00215716
0.00683302
0.00253657
0.00288565
0.0064627
0.000414763
-0.00643141
0.00650116
0.000853216
0.00654642
0.00128395
0.00659802
0.00170142
0.00665522
0.00209997
0.00671694
0.00247485
0.00282179
0.00635022
0.000386948
-0.00632241
0.00638653
0.000816908
0.00643102
0.00123945
0.00648334
0.00164911
0.00654292
0.00204039
0.00660901
0.00240876
0.00275066
0.00625028
0.00036206
-0.00622539
0.00628463
0.00078255
0.0063282
0.00119589