/*--------------------------------*- C++ -*----------------------------------*\
| =========                 |                                                 |
| \\      /  F ield         | OpenFOAM: The Open Source CFD Toolbox           |
|  \\    /   O peration     | Version:  2412                                  |
|   \\  /    A nd           | Website:  www.openfoam.com                      |
|    \\/     M anipulation  |                                                 |
\*---------------------------------------------------------------------------*/
FoamFile
{
    version     2.0;
    format      ascii;
    arch        "LSB;label=32;scalar=64";
    class       surfaceScalarField;
    location    "1.5";
    object      phi;
}
// * * * * * * * * * * * * * * * * * * * * * * * * * * * * * * * * * * * * * //

dimensions      [0 3 -1 0 0 0 0];

oriented        oriented;

internalField   nonuniform List<scalar> 
10424
(
0.00525857
-0.000133043
-0.00525949
0.00525777
-0.000131758
0.00525708
-0.000130363
-0.000128786
0.00526295
-0.000132001
-0.00526399
0.00526202
-0.000130828
0.0052612
-0.000129546
0.0052605
-0.000128084
0.00525991
-0.000126439
0.00525944
-0.000124678
0.00525907
-0.00012288
0.0052588
-0.000121093
0.00525862
-0.000119327
0.00525854
-0.000117567
0.00525854
-0.000115793
0.00525862
-0.000113994
0.00525877
-0.000112162
0.005259
-0.000110297
0.0052593
-0.000108399
0.00525966
-0.00010647
0.00526008
-0.000104515
0.00526056
-0.000102535
0.00526109
-0.000100534
0.00526166
-9.85148e-05
0.00526228
-9.64797e-05
0.00526294
-9.44318e-05
0.00526363
-9.23734e-05
0.00526435
-9.0307e-05
0.0052651
-8.82348e-05
0.00526588
-8.61589e-05
0.00526667
-8.40814e-05
0.00526749
-8.20042e-05
0.00526831
-7.99292e-05
0.00526915
-7.78582e-05
0.00527
-7.57931e-05
0.00527085
-7.37356e-05
0.00527171
-7.16873e-05
0.00527257
-6.96497e-05
0.00527342
-6.76245e-05
0.00527428
-6.56129e-05
0.00527512
-6.36164e-05
0.00527596
-6.16364e-05
0.00527679
-5.96744e-05
0.00527761
-5.77314e-05
0.00527842
-5.58089e-05
0.00527922
-5.39081e-05
0.00528
-5.20303e-05
-5.01759e-05
0.00526718
-0.000130841
-0.00526834
0.00526613
-0.000129778
0.0052652
-0.000128609
0.00526437
-0.000127261
0.00526366
-0.000125731
0.00526307
-0.00012408
0.00526258
-0.000122389
0.00526219
-0.000120703
0.00526189
-0.000119032
0.00526169
-0.000117362
0.00526157
-0.000115675
0.00526153
-0.000113957
0.00526157
-0.000112204
0.00526169
-0.000110413
0.00526187
-0.000108585
0.00526213
-0.000106723
0.00526244
-0.00010483
0.00526281
-0.000102908
0.00526324
-0.000100961
0.00526372
-9.89917e-05
0.00526424
-9.70027e-05
0.00526481
-9.49967e-05
0.00526541
-9.29766e-05
0.00526605
-9.09446e-05
0.00526671
-8.89031e-05
0.00526741
-8.68543e-05
0.00526813
-8.48005e-05
0.00526887
-8.27437e-05
0.00526962
-8.06859e-05
0.0052704
-7.86291e-05
0.00527118
-7.65753e-05
0.00527197
-7.45265e-05
0.00527277
-7.24842e-05
0.00527357
-7.04502e-05
0.00527437
-6.84261e-05
0.00527517
-6.64136e-05
0.00527597
-6.44141e-05
0.00527676
-6.24292e-05
0.00527754
-6.04604e-05
0.00527832
-5.8509e-05
0.00527909
-5.65766e-05
0.00527985
-5.46643e-05
0.00528059
-5.27738e-05
-5.09053e-05
0.00527127
-0.000129575
-0.00527254
0.00527011
-0.00012862
0.00526906
-0.000127561
0.00526813
-0.000126327
0.00526731
-0.000124909
0.0052666
-0.00012337
0.00526599
-0.000121784
0.00526549
-0.000120199
0.00526508
-0.000118624
0.00526476
-0.000117045
0.00526453
-0.000115444
0.00526439
-0.00011381
0.00526432
-0.000112136
0.00526433
-0.000110421
0.00526441
-0.000108665
0.00526456
-0.000106871
0.00526477
-0.000105043
0.00526504
-0.000103181
0.00526537
-0.000101291
0.00526576
-9.93742e-05
0.00526619
-9.74338e-05
0.00526666
-9.54727e-05
0.00526718
-9.34935e-05
0.00526773
-9.14987e-05
0.00526832
-8.94907e-05
0.00526894
-8.74718e-05
0.00526958
-8.54445e-05
0.00527025
-8.34109e-05
0.00527094
-8.13731e-05
0.00527164
-7.93332e-05
0.00527236
-7.72934e-05
0.00527309
-7.52558e-05
0.00527383
-7.3222e-05
0.00527457
-7.11941e-05
0.00527532
-6.91737e-05
0.00527607
-6.71626e-05
0.00527681
-6.51624e-05
0.00527756
-6.31748e-05
0.0052783
-6.12015e-05
0.00527904
-5.92437e-05
0.00527976
-5.73033e-05
0.00528048
-5.53816e-05
0.00528119
-5.34802e-05
-5.15995e-05
0.00527521
-0.000128211
-0.00527658
0.00527395
-0.000127363
0.00527281
-0.000126413
0.00527177
-0.000125289
0.00527084
-0.000123984
0.00527003
-0.000122554
0.00526932
-0.000121075
0.00526871
-0.00011959
0.00526819
-0.00011811
0.00526777
-0.000116622
0.00526744
-0.000115109
0.00526719
-0.000113559
0.00526701
-0.000111965
0.00526692
-0.000110327
0.0052669
-0.000108645
0.00526695
-0.000106921
0.00526707
-0.000105158
0.00526724
-0.00010336
0.00526748
-0.000101528
0.00526777
-9.96658e-05
0.00526811
-9.77764e-05
0.0052685
-9.58625e-05
0.00526894
-9.39267e-05
0.00526941
-9.19716e-05
0.00526992
-8.99997e-05
0.00527046
-8.80134e-05
0.00527103
-8.60152e-05
0.00527163
-8.40073e-05
0.00527225
-8.1992e-05
0.00527289
-7.99717e-05
0.00527354
-7.79484e-05
0.00527421
-7.59245e-05
0.00527489
-7.39017e-05
0.00527558
-7.18822e-05
0.00527627
-6.98678e-05
0.00527697
-6.78603e-05
0.00527767
-6.58616e-05
0.00527837
-6.38735e-05
0.00527906
-6.18977e-05
0.00527975
-5.99356e-05
0.00528044
-5.79892e-05
0.00528112
-5.606e-05
0.00528179
-5.41495e-05
-5.22585e-05
0.00527901
-0.000126761
-0.00528046
0.00527766
-0.000126016
0.00527642
-0.000125172
0.00527529
-0.000124158
0.00527427
-0.000122963
0.00527336
-0.000121642
0.00527255
-0.000120267
0.00527184
-0.000118882
0.00527123
-0.000117497
0.00527071
-0.000116101
0.00527027
-0.000114675
0.00526992
-0.000113209
0.00526966
-0.000111697
0.00526946
-0.000110137
0.00526935
-0.000108529
0.0052693
-0.000106876
0.00526933
-0.000105181
0.00526941
-0.000103447
0.00526956
-0.000101675
0.00526977
-9.98701e-05
0.00527002
-9.80338e-05
0.00527033
-9.61692e-05
0.00527068
-9.4279e-05
0.00527108
-9.23659e-05
0.00527151
-9.04324e-05
0.00527198
-8.8481e-05
0.00527248
-8.65143e-05
0.005273
-8.45345e-05
0.00527355
-8.25442e-05
0.00527413
-8.05457e-05
0.00527472
-7.85414e-05
0.00527533
-7.65334e-05
0.00527595
-7.4524e-05
0.00527659
-7.25151e-05
0.00527723
-7.05089e-05
0.00527787
-6.85073e-05
0.00527852
-6.65122e-05
0.00527918
-6.45256e-05
0.00527983
-6.25493e-05
0.00528048
-6.05849e-05
0.00528112
-5.86345e-05
0.00528176
-5.66995e-05
0.00528239
-5.47818e-05
-5.28823e-05
0.00528266
-0.000125232
-0.00528419
0.00528123
-0.000124589
0.00527991
-0.000123848
0.00527869
-0.000122941
0.00527758
-0.000121855
0.00527658
-0.000120641
0.00527568
-0.000119369
0.00527489
-0.000118084
0.00527418
-0.000116793
0.00527357
-0.000115487
0.00527304
-0.000114149
0.0052726
-0.000112767
0.00527224
-0.000111337
0.00527196
-0.000109855
0.00527175
-0.000108322
0.00527162
-0.000106742
0.00527155
-0.000105116
0.00527155
-0.000103447
0.00527161
-0.000101737
0.00527173
-9.99906e-05
0.00527191
-9.82091e-05
0.00527214
-9.63958e-05
0.00527241
-9.45533e-05
0.00527273
-9.26842e-05
0.00527309
-9.07912e-05
0.00527348
-8.88768e-05
0.00527391
-8.69437e-05
0.00527437
-8.49943e-05
0.00527486
-8.30312e-05
0.00527537
-8.10568e-05
0.0052759
-7.90735e-05
0.00527645
-7.70838e-05
0.00527702
-7.50898e-05
0.0052776
-7.30937e-05
0.00527819
-7.10978e-05
0.00527878
-6.91041e-05
0.00527938
-6.71147e-05
0.00527999
-6.51316e-05
0.0052806
-6.31567e-05
0.0052812
-6.11919e-05
0.00528181
-5.92392e-05
0.00528241
-5.73003e-05
0.00528301
-5.53771e-05
-5.34708e-05
0.00528617
-0.000123634
-0.00528777
0.00528467
-0.000123089
0.00528327
-0.00012245
0.00528198
-0.000121647
0.00528079
-0.000120667
0.00527971
-0.000119559
0.00527873
-0.000118389
0.00527784
-0.0001172
0.00527705
-0.000116003
0.00527635
-0.000114787
0.00527574
-0.000113536
0.00527521
-0.000112239
0.00527476
-0.00011089
0.0052744
-0.000109486
0.0052741
-0.00010803
0.00527389
-0.000106523
0.00527374
-0.000104966
0.00527365
-0.000103364
0.00527363
-0.000101718
0.00527367
-0.000100031
0.00527377
-9.83059e-05
0.00527392
-9.65454e-05
0.00527412
-9.47522e-05
0.00527436
-9.2929e-05
0.00527465
-9.10783e-05
0.00527498
-8.92029e-05
0.00527534
-8.73054e-05
0.00527573
-8.53884e-05
0.00527616
-8.34545e-05
0.00527661
-8.15062e-05
0.00527708
-7.95461e-05
0.00527757
-7.75766e-05
0.00527808
-7.56e-05
0.00527861
-7.36188e-05
0.00527914
-7.16351e-05
0.00527969
-6.96513e-05
0.00528025
-6.76694e-05
0.00528081
-6.56918e-05
0.00528137
-6.37202e-05
0.00528193
-6.17568e-05
0.0052825
-5.98037e-05
0.00528306
-5.78626e-05
0.00528362
-5.59356e-05
-5.40242e-05
0.00528953
-0.000121975
-0.00529119
0.00528797
-0.000121525
0.00528651
-0.000120984
0.00528514
-0.000120284
0.00528388
-0.000119408
0.00528273
-0.000118403
0.00528167
-0.000117332
0.00528071
-0.00011624
0.00527984
-0.000115135
0.00527906
-0.000114008
0.00527837
-0.000112843
0.00527776
-0.00011163
0.00527723
-0.000110362
0.00527678
-0.000109037
0.00527641
-0.000107657
0.00527611
-0.000106223
0.00527588
-0.000104738
0.00527572
-0.000103203
0.00527562
-0.000101621
0.00527559
-9.99949e-05
0.00527561
-9.83275e-05
0.00527568
-9.66212e-05
0.00527581
-9.48788e-05
0.00527598
-9.31029e-05
0.0052762
-9.12963e-05
0.00527646
-8.94615e-05
0.00527676
-8.76014e-05
0.00527709
-8.57186e-05
0.00527745
-8.38157e-05
0.00527784
-8.18954e-05
0.00527825
-7.99603e-05
0.00527869
-7.80129e-05
0.00527914
-7.60558e-05
0.00527962
-7.40912e-05
0.0052801
-7.21217e-05
0.0052806
-7.01496e-05
0.00528111
-6.81772e-05
0.00528162
-6.62067e-05
0.00528214
-6.42403e-05
0.00528267
-6.228e-05
0.00528319
-6.03281e-05
0.00528372
-5.83865e-05
0.00528424
-5.64574e-05
-5.45424e-05
0.00529276
-0.000120263
-0.00529447
0.00529114
-0.000119905
0.00528962
-0.000119459
0.00528819
-0.000118858
0.00528687
-0.000118084
0.00528564
-0.000117179
0.00528452
-0.000116207
0.00528349
-0.000115209
0.00528255
-0.000114194
0.00528169
-0.000113155
0.00528093
-0.000112075
0.00528024
-0.000110945
0.00527964
-0.000109758
0.00527911
-0.000108513
0.00527866
-0.000107209
0.00527829
-0.000105849
0.00527799
-0.000104434
0.00527775
-0.000102967
0.00527758
-0.00010145
0.00527747
-9.9886e-05
0.00527742
-9.82772e-05
0.00527742
-9.66263e-05
0.00527748
-9.49359e-05
0.00527759
-9.32087e-05
0.00527774
-9.14475e-05
0.00527793
-8.96549e-05
0.00527816
-8.78338e-05
0.00527843
-8.59867e-05
0.00527873
-8.41166e-05
0.00527906
-8.2226e-05
0.00527942
-8.03176e-05
0.0052798
-7.83941e-05
0.0052802
-7.6458e-05
0.00528063
-7.4512e-05
0.00528106
-7.25584e-05
0.00528151
-7.05997e-05
0.00528197
-6.86385e-05
0.00528244
-6.66769e-05
0.00528292
-6.47173e-05
0.0052834
-6.27618e-05
0.00528389
-6.08128e-05
0.00528437
-5.88724e-05
0.00528486
-5.69427e-05
-5.50257e-05
0.00529585
-0.000118506
-0.00529761
0.00529419
-0.000118235
0.00529261
-0.000117882
0.00529113
-0.000117377
0.00528975
-0.000116702
0.00528846
-0.000115896
0.00528727
-0.000115019
0.00528618
-0.000114112
0.00528517
-0.000113187
0.00528425
-0.000112234
0.00528341
-0.000111239
0.00528266
-0.000110191
0.00528198
-0.000109084
0.00528139
-0.000107917
0.00528087
-0.000106689
0.00528042
-0.000105403
0.00528005
-0.000104059
0.00527974
-0.000102661
0.0052795
-0.000101209
0.00527932
-9.97079e-05
0.0052792
-9.81585e-05
0.00527914
-9.65637e-05
0.00527913
-9.49264e-05
0.00527917
-9.3249e-05
0.00527926
-9.15344e-05
0.00527939
-8.97854e-05
0.00527956
-8.80045e-05
0.00527977
-8.61948e-05
0.00528001
-8.43588e-05
0.00528028
-8.24994e-05
0.00528059
-8.06194e-05
0.00528091
-7.87213e-05
0.00528126
-7.6808e-05
0.00528163
-7.4882e-05
0.00528202
-7.29459e-05
0.00528242
-7.10024e-05
0.00528284
-6.90539e-05
0.00528327
-6.71029e-05
0.0052837
-6.51517e-05
0.00528414
-6.32027e-05
0.00528459
-6.12582e-05
0.00528503
-5.93205e-05
0.00528548
-5.73918e-05
-5.54742e-05
0.00529882
-0.000116709
-0.00530061
0.0052971
-0.000116523
0.00529548
-0.000116259
0.00529395
-0.000115848
0.00529252
-0.000115268
0.00529118
-0.000114558
0.00528994
-0.000113774
0.00528878
-0.000112958
0.00528771
-0.000112119
0.00528673
-0.000111251
0.00528583
-0.000110338
0.00528501
-0.000109372
0.00528427
-0.000108345
0.00528361
-0.000107255
0.00528302
-0.000106104
0.00528251
-0.000104891
0.00528207
-0.000103618
0.0052817
-0.000102288
0.00528139
-0.000100903
0.00528115
-9.94641e-05
0.00528096
-9.79746e-05
0.00528084
-9.64368e-05
0.00528076
-9.48533e-05
0.00528074
-9.32266e-05
0.00528077
-9.15597e-05
0.00528084
-8.98552e-05
0.00528095
-8.81158e-05
0.0052811
-8.63445e-05
0.00528128
-8.45441e-05
0.0052815
-8.27173e-05
0.00528175
-8.08669e-05
0.00528202
-7.89958e-05
0.00528232
-7.71067e-05
0.00528264
-7.52023e-05
0.00528298
-7.32853e-05
0.00528334
-7.13585e-05
0.00528371
-6.94243e-05
0.00528409
-6.74854e-05
0.00528448
-6.55441e-05
0.00528488
-6.3603e-05
0.00528529
-6.16646e-05
0.0052857
-5.97311e-05
0.00528611
-5.78049e-05
-5.58882e-05
0.00530166
-0.000114879
-0.00530348
0.00529991
-0.000114774
0.00529824
-0.000114596
0.00529667
-0.000114276
0.00529519
-0.00011379
0.00529381
-0.000113172
0.00529251
-0.000112479
0.0052913
-0.00011175
0.00529018
-0.000110996
0.00528914
-0.00011021
0.00528818
-0.000109379
0.0052873
-0.000108493
0.0052865
-0.000107545
0.00528578
-0.000106532
0.00528513
-0.000105456
0.00528456
-0.000104316
0.00528406
-0.000103115
0.00528362
-0.000101853
0.00528325
-0.000100534
0.00528295
-9.91582e-05
0.0052827
-9.7729e-05
0.00528251
-9.62486e-05
0.00528238
-9.47194e-05
0.0052823
-9.31442e-05
0.00528226
-9.15257e-05
0.00528227
-8.98666e-05
0.00528233
-8.81698e-05
0.00528242
-8.6438e-05
0.00528255
-8.46742e-05
0.00528271
-8.28811e-05
0.00528291
-8.10618e-05
0.00528313
-7.92189e-05
0.00528338
-7.73554e-05
0.00528365
-7.5474e-05
0.00528395
-7.35775e-05
0.00528426
-7.16687e-05
0.00528458
-6.97503e-05
0.00528492
-6.78249e-05
0.00528527
-6.58951e-05
0.00528563
-6.39634e-05
0.005286
-6.20324e-05
0.00528637
-6.01046e-05
0.00528675
-5.81823e-05
-5.62679e-05
0.00530438
-0.000113023
-0.00530624
0.0053026
-0.000112996
0.00530091
-0.0001129
0.0052993
-0.000112667
0.00529778
-0.000112272
0.00529635
-0.000111744
0.00529501
-0.000111138
0.00529375
-0.000110494
0.00529258
-0.000109822
0.00529149
-0.000109118
0.00529048
-0.000108367
0.00528954
-0.000107559
0.00528869
-0.000106689
0.00528791
-0.000105753
0.0052872
-0.000104751
0.00528657
-0.000103685
0.00528601
-0.000102554
0.00528552
-0.00010136
0.00528509
-0.000100106
0.00528472
-9.87939e-05
0.00528442
-9.74251e-05
0.00528417
-9.60022e-05
0.00528398
-9.45278e-05
0.00528384
-9.30045e-05
0.00528375
-9.1435e-05
0.00528371
-8.9822e-05
0.00528371
-8.81685e-05
0.00528375
-8.64771e-05
0.00528382
-8.47509e-05
0.00528393
-8.29927e-05
0.00528408
-8.12054e-05
0.00528425
-7.93919e-05
0.00528445
-7.75552e-05
0.00528467
-7.5698e-05
0.00528492
-7.38233e-05
0.00528519
-7.1934e-05
0.00528547
-7.00327e-05
0.00528576
-6.81222e-05
0.00528607
-6.62051e-05
0.0052864
-6.42842e-05
0.00528673
-6.23621e-05
0.00528706
-6.04413e-05
0.0052874
-5.85243e-05
-5.66135e-05
0.005307
-0.000111146
-0.00530888
0.0053052
-0.000111192
0.00530348
-0.000111175
0.00530184
-0.000111027
0.00530028
-0.000110719
0.00529882
-0.000110278
0.00529744
-0.000109757
0.00529614
-0.000109194
0.00529492
-0.000108603
0.00529378
-0.000107978
0.00529272
-0.000107305
0.00529173
-0.000106575
0.00529083
-0.000105782
0.00528999
-0.000104922
0.00528924
-0.000103994
0.00528855
-0.000102999
0.00528794
-0.000101939
0.00528739
-0.000100813
0.00528691
-9.96244e-05
0.00528649
-9.83747e-05
0.00528613
-9.70661e-05
0.00528583
-9.57008e-05
0.00528558
-9.42813e-05
0.00528539
-9.28102e-05
0.00528524
-9.12901e-05
0.00528514
-8.97238e-05
0.00528509
-8.8114e-05
0.00528508
-8.64638e-05
0.0052851
-8.4776e-05
0.00528516
-8.30535e-05
0.00528526
-8.12993e-05
0.00528538
-7.95162e-05
0.00528553
-7.77074e-05
0.00528571
-7.58756e-05
0.00528591
-7.40239e-05
0.00528613
-7.21552e-05
0.00528637
-7.02722e-05
0.00528663
-6.83779e-05
0.0052869
-6.64749e-05
0.00528718
-6.45661e-05
0.00528747
-6.26541e-05
0.00528777
-6.07417e-05
0.00528808
-5.88312e-05
-5.69253e-05
0.00530952
-0.000109255
-0.00531141
0.0053077
-0.00010937
0.00530595
-0.000109428
0.00530428
-0.000109361
0.0053027
-0.000109136
0.0053012
-0.000108778
0.00529978
-0.000108338
0.00529844
-0.000107855
0.00529718
-0.000107343
0.005296
-0.000106795
0.00529489
-0.000106199
0.00529387
-0.000105546
0.00529291
-0.000104829
0.00529203
-0.000104043
0.00529123
-0.000103189
0.0052905
-0.000102266
0.00528983
-0.000101274
0.00528923
-0.000100215
0.0052887
-9.90916e-05
0.00528823
-9.79044e-05
0.00528782
-9.66557e-05
0.00528747
-9.53478e-05
0.00528717
-9.39831e-05
0.00528692
-9.25641e-05
0.00528673
-9.10937e-05
0.00528658
-8.95743e-05
0.00528647
-8.80088e-05
0.00528641
-8.64003e-05
0.00528638
-8.47515e-05
0.0052864
-8.30654e-05
0.00528644
-8.1345e-05
0.00528652
-7.95933e-05
0.00528662
-7.78133e-05
0.00528676
-7.60079e-05
0.00528691
-7.41802e-05
0.00528709
-7.23332e-05
0.00528729
-7.04698e-05
0.0052875
-6.85928e-05
0.00528773
-6.67051e-05
0.00528798
-6.48096e-05
0.00528823
-6.2909e-05
0.0052885
-6.10061e-05
0.00528877
-5.91034e-05
-5.72037e-05
0.00531188
-0.000107356
-0.00531378
0.00531005
-0.000107536
0.00530828
-0.000107665
0.00530659
-0.000107673
0.00530498
-0.000107526
0.00530345
-0.000107247
0.005302
-0.000106886
0.00530063
-0.00010648
0.00529933
-0.000106044
0.00529811
-0.000105573
0.00529696
-0.000105055
0.00529589
-0.000104478
0.0052949
-0.000103835
0.00529398
-0.000103124
0.00529313
-0.000102341
0.00529235
-0.000101488
0.00529164
-0.000100565
0.005291
-9.95724e-05
0.00529042
-9.85126e-05
0.00528991
-9.7387e-05
0.00528945
-9.61977e-05
0.00528905
-9.49468e-05
0.0052887
-9.36366e-05
0.0052884
-9.22696e-05
0.00528816
-9.08487e-05
0.00528796
-8.93763e-05
0.00528781
-8.78554e-05
0.0052877
-8.62888e-05
0.00528762
-8.46795e-05
0.00528759
-8.30304e-05
0.00528759
-8.13445e-05
0.00528762
-7.96249e-05
0.00528768
-7.78745e-05
0.00528777
-7.60964e-05
0.00528788
-7.42936e-05
0.00528802
-7.24693e-05
0.00528818
-7.06264e-05
0.00528835
-6.87678e-05
0.00528854
-6.68965e-05
0.00528875
-6.50154e-05
0.00528897
-6.31273e-05
0.0052892
-6.12351e-05
0.00528943
-5.93414e-05
-5.7449e-05
0.00531399
-0.000105456
-0.00531589
0.00531215
-0.000105699
0.00531038
-0.000105892
0.00530867
-0.000105968
0.00530704
-0.000105893
0.00530548
-0.000105688
0.00530399
-0.000105401
0.00530259
-0.000105072
0.00530125
-0.000104713
0.0053
-0.000104319
0.00529882
-0.000103877
0.00529772
-0.000103375
0.00529669
-0.000102807
0.00529574
-0.000102168
0.00529485
-0.000101457
0.00529404
-0.000100673
0.00529329
-9.98164e-05
0.0052926
-9.8889e-05
0.00529198
-9.78921e-05
0.00529142
-9.68273e-05
0.00529092
-9.56965e-05
0.00529048
-9.45018e-05
0.00529009
-9.32455e-05
0.00528975
-9.19302e-05
0.00528946
-9.05585e-05
0.00528921
-8.9133e-05
0.00528902
-8.76566e-05
0.00528886
-8.61322e-05
0.00528874
-8.45626e-05
0.00528866
-8.29509e-05
0.00528862
-8.13e-05
0.00528861
-7.9613e-05
0.00528862
-7.78928e-05
0.00528867
-7.61427e-05
0.00528874
-7.43657e-05
0.00528884
-7.25649e-05
0.00528896
-7.07434e-05
0.00528909
-6.89042e-05
0.00528925
-6.70502e-05
0.00528941
-6.51845e-05
0.0052896
-6.331e-05
0.00528979
-6.14295e-05
0.00529
-5.95459e-05
-5.76619e-05
0.00531575
-0.000103562
-0.00531764
0.00531392
-0.000103865
0.00531214
-0.000104117
0.00531043
-0.000104253
0.00530877
-0.00010424
0.00530719
-0.000104101
0.00530567
-0.000103887
0.00530424
-0.000103634
0.00530288
-0.000103354
0.0053016
-0.000103037
0.00530039
-0.000102672
0.00529926
-0.000102246
0.00529821
-0.000101751
0.00529722
-0.000101184
0.00529631
-0.000100542
0.00529546
-9.98253e-05
0.00529468
-9.90345e-05
0.00529396
-9.81707e-05
0.0052933
-9.72352e-05
0.0052927
-9.62299e-05
0.00529216
-9.51565e-05
0.00529168
-9.40171e-05
0.00529125
-9.2814e-05
0.00529087
-9.15497e-05
0.00529054
-9.02267e-05
0.00529025
-8.88478e-05
0.00529001
-8.74157e-05
0.00528981
-8.59333e-05
0.00528965
-8.44035e-05
0.00528953
-8.28294e-05
0.00528944
-8.12138e-05
0.00528939
-7.95597e-05
0.00528937
-7.78703e-05
0.00528937
-7.61487e-05
0.00528941
-7.43981e-05
0.00528946
-7.26216e-05
0.00528954
-7.08224e-05
0.00528964
-6.90033e-05
0.00528976
-6.71676e-05
0.00528989
-6.53182e-05
0.00529004
-6.34581e-05
0.0052902
-6.15904e-05
0.00529037
-5.97178e-05
-5.78433e-05
0.00531722
-0.00531911
-0.000101679
0.0053154
-0.000102043
0.00531363
-0.000102348
0.00531191
-0.000102532
0.00531024
-0.00010257
0.00530863
-0.000102492
0.00530709
-0.000102349
0.00530563
-0.000102173
0.00530425
-0.000101971
0.00530295
-0.000101735
0.00530172
-0.000101447
0.00530057
-0.000101095
0.00529949
-0.000100673
0.00529848
-0.000100175
0.00529754
-9.9601e-05
0.00529667
-9.895e-05
0.00529586
-9.82229e-05
0.00529511
-9.74209e-05
0.00529442
-9.65454e-05
0.00529378
-9.55981e-05
0.00529321
-9.45808e-05
0.00529269
-9.34956e-05
0.00529222
-9.23447e-05
0.0052918
-9.11306e-05
0.00529143
-8.98558e-05
0.0052911
-8.85228e-05
0.00529082
-8.71347e-05
0.00529058
-8.56942e-05
0.00529038
-8.42042e-05
0.00529022
-8.26676e-05
0.00529009
-8.10875e-05
0.00529
-7.94668e-05
0.00528994
-7.78085e-05
0.00528991
-7.61159e-05
0.0052899
-7.43923e-05
0.00528992
-7.26407e-05
0.00528996
-7.08643e-05
0.00529003
-6.90662e-05
0.00529011
-6.72496e-05
0.00529021
-6.54173e-05
0.00529032
-6.35726e-05
0.00529045
-6.17185e-05
0.00529059
-5.98579e-05
-5.79939e-05
0.00539124
-0.000292501
0.00537991
-0.000287567
0.00536927
-0.000282293
0.0053593
-0.000276735
0.00534999
-0.000270944
0.0053413
-0.000264968
0.00533322
-0.000258851
0.00532571
-0.000252633
0.00531876
-0.00024635
0.00531234
-0.000240033
0.00530641
-0.00023371
0.00530095
-0.000227407
0.00529594
-0.000221144
0.00529135
-0.00021494
0.00528715
-0.000208812
0.00528332
-0.000202773
0.00527983
-0.000196835
0.00527667
-0.000191006
0.0052738
-0.000185295
0.00527122
-0.000179709
0.0052689
-0.000174251
0.00526682
-0.000168925
0.00526496
-0.000163732
0.00526332
-0.000158672
0.00526187
-0.000153745
0.00526059
-0.000148959
-0.000144348
0.00539613
-0.000280877
0.00538515
-0.000276585
0.0053748
-0.000271943
0.00536507
-0.000267003
0.00535594
-0.000261815
0.00534739
-0.000256424
0.00533941
-0.000250872
0.00533198
-0.000245197
0.00532506
-0.000239435
0.00531865
-0.000233615
0.0053127
-0.000227766
0.00530721
-0.000221912
0.00530214
-0.000216075
0.00529747
-0.000210273
0.00529318
-0.000204525
0.00528925
-0.000198842
0.00528566
-0.000193239
0.00528237
-0.000187725
0.00527939
-0.000182309
0.00527668
-0.000176997
0.00527422
-0.000171796
0.00527201
-0.00016671
0.00527002
-0.000161742
0.00526824
-0.00015689
0.00526665
-0.000152156
0.00526524
-0.000147549
-0.000143102
0.00540039
-0.000269665
0.00538976
-0.000265956
0.00537971
-0.000261892
0.00537023
-0.000257521
0.00536131
-0.00025289
0.00535293
-0.000248042
0.00534507
-0.000243017
0.00533773
-0.000237851
0.00533087
-0.000232578
0.00532448
-0.000227228
0.00531854
-0.000221828
0.00531303
-0.000216402
0.00530793
-0.000210971
0.00530321
-0.000205555
0.00529886
-0.000200171
0.00529485
-0.000194834
0.00529117
-0.000189555
0.00528779
-0.000184347
0.0052847
-0.000179218
0.00528188
-0.000174176
0.00527931
-0.000169228
0.00527697
-0.000164378
0.00527486
-0.00015963
0.00527296
-0.000154985
0.00527125
-0.000150443
0.00526971
-0.000146015
-0.000141733
0.00540407
-0.000258864
0.0053938
-0.000255685
0.00538406
-0.000252149
0.00537484
-0.000248301
0.00536613
-0.000244185
0.00535793
-0.00023984
0.00535022
-0.000235305
0.00534298
-0.000230615
0.0053362
-0.000225801
0.00532987
-0.000220894
0.00532396
-0.000215917
0.00531845
-0.000210897
0.00531334
-0.000205854
0.00530859
-0.000200807
0.00530419
-0.000195773
0.00530012
-0.000190767
0.00529637
-0.000185802
0.00529291
-0.00018089
0.00528974
-0.00017604
0.00528682
-0.000171261
0.00528415
-0.00016656
0.00528172
-0.000161943
0.0052795
-0.000157413
0.00527749
-0.000152971
0.00527566
-0.00014862
0.00527402
-0.000144369
-0.000140251
0.00540722
-0.000248472
0.00539731
-0.000245774
0.00538788
-0.00024272
0.00537893
-0.000239351
0.00537045
-0.000235708
0.00536244
-0.000231829
0.00535489
-0.00022775
0.00534778
-0.000223504
0.0053411
-0.000219121
0.00533483
-0.000214628
0.00532897
-0.000210053
0.00532349
-0.000205417
0.00531838
-0.000200742
0.00531362
-0.000196046
0.00530919
-0.000191347
0.00530508
-0.00018666
0.00530128
-0.000181997
0.00529776
-0.000177371
0.00529451
-0.000172792
0.00529152
-0.000168269
0.00528877
-0.00016381
0.00528625
-0.000159419
0.00528394
-0.000155103
0.00528183
-0.000150862
0.0052799
-0.000146699
0.00527816
-0.000142623
-0.000138668
0.00540989
-0.000238483
0.00540034
-0.000236222
0.00539123
-0.000233606
0.00538255
-0.000230677
0.00537431
-0.00022747
0.0053665
-0.000224021
0.00535912
-0.000220365
0.00535215
-0.000216531
0.00534558
-0.00021255
0.0053394
-0.000208448
0.00533359
-0.00020425
0.00532815
-0.000199977
0.00532306
-0.000195651
0.00531831
-0.00019129
0.00531387
-0.000186911
0.00530974
-0.000182528
0.0053059
-0.000178156
0.00530233
-0.000173807
0.00529903
-0.00016949
0.00529598
-0.000165215
0.00529316
-0.00016099
0.00529056
-0.000156821
0.00528817
-0.000152713
0.00528597
-0.000148669
0.00528397
-0.000144691
0.00528213
-0.000140788
-0.000136994
0.00541213
-0.000228891
0.00540293
-0.000227024
0.00539413
-0.000224808
0.00538574
-0.00022228
0.00537774
-0.000219474
0.00537014
-0.000216422
0.00536294
-0.000213157
0.00535611
-0.000209708
0.00534966
-0.000206102
0.00534358
-0.000202366
0.00533785
-0.000198521
0.00533247
-0.000194592
0.00532741
-0.000190596
0.00532268
-0.000186553
0.00531824
-0.000182478
0.0053141
-0.000178388
0.00531024
-0.000174294
0.00530664
-0.00017021
0.0053033
-0.000166146
0.0053002
-0.000162111
0.00529732
-0.000158113
0.00529466
-0.00015416
0.0052922
-0.000150256
0.00528994
-0.000146405
0.00528786
-0.000142608
0.00528594
-0.000138875
-0.00013524
0.00541397
-0.000219686
0.00540513
-0.000218177
0.00539664
-0.000216324
0.00538853
-0.000214163
0.00538078
-0.000211723
0.00537339
-0.000209038
0.00536637
-0.000206135
0.0053597
-0.000203042
0.00535339
-0.000199786
0.00534741
-0.000196391
0.00534177
-0.00019288
0.00533645
-0.000189273
0.00533145
-0.00018559
0.00532674
-0.000181848
0.00532233
-0.000178063
0.00531819
-0.000174251
0.00531432
-0.000170424
0.0053107
-0.000166595
0.00530733
-0.000162773
0.00530419
-0.00015897
0.00530127
-0.000155193
0.00529856
-0.000151449
0.00529604
-0.000147744
0.00529372
-0.00014408
0.00529157
-0.00014046
0.00528959
-0.000136894
-0.000133415
0.00541546
-0.000210861
0.00540696
-0.000209674
0.00539879
-0.000208151
0.00539095
-0.000206323
0.00538344
-0.000204221
0.00537628
-0.000201871
0.00536945
-0.000199303
0.00536294
-0.000196541
0.00535677
-0.00019361
0.00535091
-0.000190535
0.00534537
-0.000187335
0.00534013
-0.000184031
0.00533518
-0.000180643
0.00533052
-0.000177186
0.00532613
-0.000173676
0.00532201
-0.000170129
0.00531814
-0.000166557
0.00531452
-0.000162971
0.00531113
-0.000159384
0.00530796
-0.000155804
0.00530501
-0.000152239
0.00530226
-0.000148698
0.0052997
-0.000145185
0.00529732
-0.000141704
0.00529512
-0.000138257
0.00529308
-0.000134854
-0.000131529
0.00541663
-0.000202404
0.00540847
-0.000201507
0.0054006
-0.000200284
0.00539304
-0.00019876
0.00538578
-0.000196965
0.00537883
-0.000194924
0.00537219
-0.000192664
0.00536586
-0.000190208
0.00535983
-0.000187581
0.0053541
-0.000184802
0.00534866
-0.000181894
0.0053435
-0.000178876
0.00533863
-0.000175765
0.00533402
-0.000172577
0.00532967
-0.000169328
0.00532557
-0.000166033
0.00532172
-0.000162703
0.0053181
-0.000159351
0.0053147
-0.000155988
0.00531152
-0.000152622
0.00530855
-0.000149262
0.00530576
-0.000145917
0.00530317
-0.00014259
0.00530075
-0.000139287
0.0052985
-0.000136009
0.00529641
-0.000132765
-0.000129589
0.00541751
-0.000194305
0.00540968
-0.00019367
0.00540211
-0.000192716
0.00539482
-0.00019147
0.00538781
-0.000189955
0.00538108
-0.000188198
0.00537464
-0.000186222
0.00536848
-0.000184049
0.0053626
-0.000181702
0.005357
-0.000179201
0.00535167
-0.000176565
0.00534661
-0.000173814
0.00534181
-0.000170963
0.00533726
-0.00016803
0.00533296
-0.000165028
0.0053289
-0.000161971
0.00532507
-0.000158873
0.00532146
-0.000155744
0.00531807
-0.000152594
0.00531488
-0.000149434
0.00531189
-0.000146272
0.00530909
-0.000143115
0.00530646
-0.000139969
0.00530401
-0.000136838
0.00530173
-0.000133723
0.0052996
-0.000130634
-0.000127604
0.00541814
-0.000186552
0.00541062
-0.000186152
0.00540335
-0.000185442
0.00539632
-0.000184447
0.00538956
-0.000183189
0.00538305
-0.000181691
0.0053768
-0.000179976
0.00537082
-0.000178064
0.0053651
-0.000175977
0.00535963
-0.000173734
0.00535442
-0.000171353
0.00534945
-0.000168851
0.00534474
-0.000166246
0.00534026
-0.000163552
0.00533601
-0.000160783
0.005332
-0.000157953
0.0053282
-0.000155074
0.00532461
-0.000152156
0.00532123
-0.000149212
0.00531804
-0.000146248
0.00531504
-0.000143276
0.00531223
-0.0001403
0.00530959
-0.000137329
0.00530712
-0.000134364
0.0053048
-0.000131407
0.00530264
-0.000128469
-0.000125581
0.00541854
-0.000179135
0.00541133
-0.000178945
0.00540434
-0.000178455
0.00539758
-0.000177687
0.00539106
-0.000176663
0.00538477
-0.000175402
0.00537872
-0.000173927
0.00537291
-0.000172256
0.00536734
-0.000170409
0.00536201
-0.000168405
0.00535692
-0.000166261
0.00535206
-0.000163994
0.00534744
-0.000161618
0.00534303
-0.000159149
0.00533885
-0.0001566
0.00533488
-0.000153984
0.00533112
-0.000151313
0.00532756
-0.000148597
0.0053242
-0.000145848
0.00532102
-0.000143073
0.00531803
-0.000140282
0.00531521
-0.000137481
0.00531256
-0.000134677
0.00531007
-0.000131873
0.00530773
-0.00012907
0.00530554
-0.000126278
-0.000123528
0.00541874
-0.00017204
0.00541184
-0.000172039
0.00540513
-0.000171747
0.00539862
-0.000171185
0.00539233
-0.000170372
0.00538626
-0.000169328
0.00538041
-0.000168073
0.00537477
-0.000166624
0.00536936
-0.000165
0.00536418
-0.000163217
0.00535921
-0.000161294
0.00535446
-0.000159244
0.00534993
-0.000157084
0.0053456
-0.000154826
0.00534149
-0.000152484
0.00533757
-0.000150071
0.00533386
-0.000147597
0.00533033
-0.000145073
0.00532699
-0.000142509
0.00532384
-0.000139914
0.00532085
-0.000137297
0.00531803
-0.000134664
0.00531538
-0.000132022
0.00531288
-0.000129372
0.00531053
-0.000126718
0.00530831
-0.000124067
-0.00012145
0.00541878
-0.000165258
0.00541217
-0.000165424
0.00540573
-0.00016531
0.00539948
-0.000164934
0.00539342
-0.000164313
0.00538756
-0.000163467
0.00538189
-0.000162412
0.00537644
-0.000161167
0.00537119
-0.000159748
0.00536614