/*--------------------------------*- C++ -*----------------------------------*\
| =========                 |                                                 |
| \\      /  F ield         | OpenFOAM: The Open Source CFD Toolbox           |
|  \\    /   O peration     | Version:  2412                                  |
|   \\  /    A nd           | Website:  www.openfoam.com                      |
|    \\/     M anipulation  |                                                 |
\*---------------------------------------------------------------------------*/
FoamFile
{
    version     2.0;
    format      ascii;
    arch        "LSB;label=32;scalar=64";
    class       volVectorField;
    location    "24.5";
    object      U;
}
// * * * * * * * * * * * * * * * * * * * * * * * * * * * * * * * * * * * * * //

dimensions      [0 1 -1 0 0 0 0];

internalField   nonuniform List<vector> 
5285
(
(0.100305 -0.00374931 0)
(0.100357 -0.00382438 0)
(0.100411 -0.00390034 0)
(0.100469 -0.00397712 0)
(0.100529 -0.00405464 0)
(0.100593 -0.00413282 0)
(0.10066 -0.00421155 0)
(0.100731 -0.00429074 0)
(0.100805 -0.00437026 0)
(0.100884 -0.00445 0)
(0.100966 -0.00452982 0)
(0.101052 -0.00460957 0)
(0.101143 -0.00468909 0)
(0.101237 -0.0047682 0)
(0.101337 -0.0048467 0)
(0.101441 -0.00492437 0)
(0.100228 -0.00379899 0)
(0.100278 -0.0038769 0)
(0.100332 -0.00395583 0)
(0.100388 -0.00403572 0)
(0.100448 -0.00411649 0)
(0.100511 -0.00419805 0)
(0.100578 -0.00428031 0)
(0.100648 -0.00436316 0)
(0.100722 -0.00444649 0)
(0.1008 -0.00453018 0)
(0.100883 -0.00461408 0)
(0.100969 -0.00469806 0)
(0.10106 -0.00478194 0)
(0.101155 -0.00486555 0)
(0.101255 -0.00494868 0)
(0.10136 -0.0050311 0)
(0.100147 -0.00384762 0)
(0.100197 -0.00392843 0)
(0.100249 -0.0040104 0)
(0.100305 -0.00409348 0)
(0.100364 -0.00417757 0)
(0.100426 -0.00426261 0)
(0.100492 -0.0043485 0)
(0.100562 -0.00443513 0)
(0.100636 -0.00452239 0)
(0.100713 -0.00461017 0)
(0.100795 -0.00469831 0)
(0.100882 -0.00478668 0)
(0.100972 -0.0048751 0)
(0.101068 -0.0049634 0)
(0.101168 -0.00505136 0)
(0.101274 -0.00513875 0)
(0.100065 -0.00389505 0)
(0.100113 -0.00397882 0)
(0.100164 -0.0040639 0)
(0.100219 -0.00415023 0)
(0.100276 -0.00423774 0)
(0.100338 -0.00432635 0)
(0.100403 -0.00441597 0)
(0.100472 -0.0045065 0)
(0.100545 -0.00459782 0)
(0.100622 -0.00468982 0)
(0.100704 -0.00478236 0)
(0.10079 -0.00487528 0)
(0.100881 -0.00496843 0)
(0.100977 -0.00506161 0)
(0.101077 -0.00515461 0)
(0.101183 -0.0052472 0)
(0.0999791 -0.00394115 0)
(0.100026 -0.00402793 0)
(0.100076 -0.00411617 0)
(0.100129 -0.00420583 0)
(0.100186 -0.00429684 0)
(0.100246 -0.00438911 0)
(0.10031 -0.00448256 0)
(0.100378 -0.0045771 0)
(0.10045 -0.00467261 0)
(0.100527 -0.00476897 0)
(0.100608 -0.00486605 0)
(0.100694 -0.0049637 0)
(0.100784 -0.00506174 0)
(0.10088 -0.00516 0)
(0.100981 -0.00525826 0)
(0.101088 -0.00535628 0)
(0.0998907 -0.00398575 0)
(0.099936 -0.00407558 0)
(0.0999844 -0.00416706 0)
(0.100036 -0.00426011 0)
(0.100092 -0.00435469 0)
(0.10015 -0.00445071 0)
(0.100213 -0.00454809 0)
(0.10028 -0.00464675 0)
(0.100352 -0.00474657 0)
(0.100427 -0.00484743 0)
(0.100508 -0.0049492 0)
(0.100593 -0.00505174 0)
(0.100683 -0.00515487 0)
(0.100779 -0.00525841 0)
(0.10088 -0.00536215 0)
(0.100986 -0.00546583 0)
(0.0997996 -0.00402869 0)
(0.0998432 -0.00412163 0)
(0.0998899 -0.00421638 0)
(0.0999401 -0.0043129 0)
(0.0999938 -0.00441112 0)
(0.100051 -0.00451097 0)
(0.100113 -0.00461238 0)
(0.100178 -0.00471526 0)
(0.100248 -0.00481951 0)
(0.100323 -0.004925 0)
(0.100403 -0.00503162 0)
(0.100487 -0.00513922 0)
(0.100577 -0.00524762 0)
(0.100672 -0.00535664 0)
(0.100773 -0.00546607 0)
(0.10088 -0.00557567 0)
(0.0997056 -0.0040698 0)
(0.0997473 -0.00416589 0)
(0.0997922 -0.00426397 0)
(0.0998405 -0.004364 0)
(0.0998925 -0.00446593 0)
(0.0999483 -0.00456969 0)
(0.100008 -0.00467522 0)
(0.100072 -0.00478243 0)
(0.100141 -0.00489122 0)
(0.100214 -0.00500148 0)
(0.100293 -0.00511309 0)
(0.100376 -0.00522591 0)
(0.100465 -0.00533976 0)
(0.10056 -0.00545447 0)
(0.10066 -0.00556982 0)
(0.100767 -0.00568557 0)
(0.0996087 -0.00410891 0)
(0.0996482 -0.00420818 0)
(0.0996911 -0.00430963 0)
(0.0997374 -0.00441323 0)
(0.0997875 -0.00451893 0)
(0.0998414 -0.00462667 0)
(0.0998995 -0.0047364 0)
(0.0999619 -0.00484804 0)
(0.100029 -0.00496148 0)
(0.100101 -0.00507664 0)
(0.100178 -0.00519339 0)
(0.10026 -0.00531159 0)
(0.100348 -0.00543108 0)
(0.100441 -0.00555167 0)
(0.100541 -0.00567317 0)
(0.100647 -0.00579531 0)
(0.0995088 -0.00414583 0)
(0.0995461 -0.00424831 0)
(0.0995867 -0.00435316 0)
(0.0996308 -0.00446037 0)
(0.0996786 -0.0045699 0)
(0.0997305 -0.00468169 0)
(0.0997865 -0.0047957 0)
(0.0998469 -0.00491185 0)
(0.0999121 -0.00503006 0)
(0.0999822 -0.00515023 0)
(0.100057 -0.00527226 0)
(0.100138 -0.005396 0)
(0.100225 -0.0055213 0)
(0.100317 -0.00564798 0)
(0.100416 -0.00577584 0)
(0.100522 -0.00590463 0)
(0.0994058 -0.00418038 0)
(0.0994407 -0.00428607 0)
(0.0994788 -0.00439436 0)
(0.0995205 -0.00450521 0)
(0.099566 -0.00461861 0)
(0.0996154 -0.00473451 0)
(0.0996692 -0.00485287 0)
(0.0997274 -0.00497362 0)
(0.0997904 -0.00509669 0)
(0.0998585 -0.005222 0)
(0.0999318 -0.00534943 0)
(0.100011 -0.00547887 0)
(0.100096 -0.00561015 0)
(0.100187 -0.00574312 0)
(0.100285 -0.00587757 0)
(0.100389 -0.00601324 0)
(0.0992999 -0.00421234 0)
(0.099332 -0.00432127 0)
(0.0993675 -0.004433 0)
(0.0994065 -0.00454753 0)
(0.0994494 -0.00466484 0)
(0.0994962 -0.00478489 0)
(0.0995474 -0.00490766 0)
(0.0996032 -0.00503309 0)
(0.0996638 -0.00516111 0)
(0.0997295 -0.00529166 0)
(0.0998007 -0.00542463 0)
(0.0998776 -0.0055599 0)
(0.0999606 -0.00569734 0)
(0.10005 -0.00583679 0)
(0.100146 -0.00597804 0)
(0.100249 -0.00612085 0)
(0.0991908 -0.00424152 0)
(0.0992201 -0.00435369 0)
(0.0992526 -0.00446887 0)
(0.0992888 -0.00458709 0)
(0.0993288 -0.00470833 0)
(0.0993728 -0.00483257 0)
(0.0994212 -0.0049598 0)
(0.0994742 -0.00508997 0)
(0.0995321 -0.00522303 0)
(0.0995952 -0.00535891 0)
(0.0996639 -0.00549754 0)
(0.0997384 -0.00563879 0)
(0.0998191 -0.00578255 0)
(0.0999065 -0.00592866 0)
(0.100001 -0.00607692 0)
(0.100102 -0.00622712 0)
(0.0990787 -0.0042677 0)
(0.0991048 -0.00438309 0)
(0.0991343 -0.00450173 0)
(0.0991673 -0.00462364 0)
(0.0992041 -0.00474883 0)
(0.099245 -0.00487729 0)
(0.0992903 -0.00500902 0)
(0.0993403 -0.00514398 0)
(0.0993952 -0.00528214 0)
(0.0994554 -0.00542345 0)
(0.0995212 -0.00556783 0)
(0.099593 -0.00571519 0)
(0.0996711 -0.00586542 0)
(0.099756 -0.00601837 0)
(0.099848 -0.00617386 0)
(0.0999475 -0.00633167 0)
(0.0989636 -0.00429067 0)
(0.0989863 -0.00440925 0)
(0.0990124 -0.00453133 0)
(0.099042 -0.00465692 0)
(0.0990755 -0.00478606 0)
(0.099113 -0.00491876 0)
(0.0991548 -0.00505501 0)
(0.0992014 -0.0051948 0)
(0.099253 -0.00533813 0)
(0.0993099 -0.00548493 0)
(0.0993725 -0.00563517 0)
(0.0994413 -0.00578875 0)
(0.0995164 -0.00594558 0)
(0.0995985 -0.00610554 0)
(0.0996878 -0.00626845 0)
(0.0997849 -0.0064341 0)
(0.0988454 -0.00431019 0)
(0.0988646 -0.00443194 0)
(0.098887 -0.00455742 0)
(0.098913 -0.00468668 0)
(0.0989427 -0.00481975 0)
(0.0989765 -0.00495668 0)
(0.0990147 -0.00509746 0)
(0.0990576 -0.00524212 0)
(0.0991055 -0.00539064 0)
(0.0991588 -0.005543 0)
(0.0992179 -0.00569917 0)
(0.0992831 -0.00585908 0)
(0.0993549 -0.00602264 0)
(0.0994337 -0.00618976 0)
(0.0995199 -0.00636027 0)
(0.0996141 -0.00653398 0)
(0.0987242 -0.00432604 0)
(0.0987395 -0.0044509 0)
(0.0987581 -0.00457974 0)
(0.0987802 -0.00471263 0)
(0.0988059 -0.00484961 0)
(0.0988357 -0.00499075 0)
(0.0988699 -0.00513606 0)
(0.0989087 -0.00528558 0)
(0.0989526 -0.00543933 0)
(0.0990019 -0.00559729 0)
(0.099057 -0.00575944 0)
(0.0991183 -0.00592576 0)
(0.0991863 -0.00609617 0)
(0.0992614 -0.00627058 0)
(0.0993441 -0.00644886 0)
(0.0994349 -0.00663084 0)
(0.0986 -0.00433799 0)
(0.0986113 -0.00446588 0)
(0.0986258 -0.00459802 0)
(0.0986436 -0.00473449 0)
(0.0986651 -0.00487534 0)
(0.0986906 -0.00502065 0)
(0.0987204 -0.00517047 0)
(0.0987549 -0.00532484 0)
(0.0987944 -0.00548381 0)
(0.0988393 -0.00564739 0)
(0.09889 -0.00581558 0)
(0.098947 -0.00598837 0)
(0.0990107 -0.00616571 0)
(0.0990816 -0.00634754 0)
(0.0991602 -0.00653374 0)
(0.0992471 -0.00672417 0)
(0.098473 -0.00434578 0)
(0.09848 -0.00447664 0)
(0.09849 -0.004612 0)
(0.0985034 -0.00475196 0)
(0.0985203 -0.00489662 0)
(0.0985412 -0.00504604 0)
(0.0985663 -0.00520032 0)
(0.098596 -0.00535952 0)
(0.0986307 -0.0055237 0)
(0.0986708 -0.00569289 0)
(0.0987167 -0.00586714 0)
(0.0987688 -0.00604644 0)
(0.0988278 -0.00623077 0)
(0.098894 -0.00642011 0)
(0.098968 -0.00661436 0)
(0.0990504 -0.0068134 0)
(0.0983432 -0.00434917 0)
(0.0983456 -0.0044829 0)
(0.098351 -0.00462139 0)
(0.0983595 -0.00476476 0)
(0.0983716 -0.00491313 0)
(0.0983875 -0.0050666 0)
(0.0984075 -0.00522527 0)
(0.0984321 -0.00538923 0)
(0.0984616 -0.00555858 0)
(0.0984964 -0.00573337 0)
(0.0985371 -0.00591366 0)
(0.0985839 -0.00609948 0)
(0.0986376 -0.00629086 0)
(0.0986986 -0.00648777 0)
(0.0987675 -0.00669016 0)
(0.0988448 -0.00689795 0)
(0.0999999 -3.48926e-05 0)
(0.0999992 -0.000103813 0)
(0.0999976 -0.000171558 0)
(0.0999954 -0.000238438 0)
(0.0999925 -0.000304626 0)
(0.099989 -0.000370125 0)
(0.0999851 -0.000435146 0)
(0.0999807 -0.000501012 0)
(0.0999759 -0.000571132 0)
(0.0999701 -0.000651256 0)
(0.0999625 -0.000748456 0)
(0.0999519 -0.000868989 0)
(0.099937 -0.00101585 0)
(0.0999166 -0.00118703 0)
(0.0998901 -0.00137527 0)
(0.0998577 -0.00156927 0)
(0.0998203 -0.00175604 0)
(0.0997796 -0.00192341 0)
(0.0997376 -0.00206215 0)
(0.0996965 -0.00216722 0)
(0.0996582 -0.0022379 0)
(0.0996245 -0.00227722 0)
(0.0995962 -0.00229082 0)
(0.0995742 -0.00228574 0)
(0.0995584 -0.00226921 0)
(0.0995486 -0.00224787 0)
(0.0995443 -0.00222716 0)
(0.0995448 -0.00221118 0)
(0.0995495 -0.00220263 0)
(0.0995577 -0.00220303 0)
(0.0995688 -0.00221291 0)
(0.0995821 -0.00223212 0)
(0.0995974 -0.00226003 0)
(0.0996143 -0.00229577 0)
(0.0996325 -0.00233832 0)
(0.0996519 -0.0023867 0)
(0.0996725 -0.00243994 0)
(0.0996942 -0.00249721 0)
(0.0997169 -0.00255777 0)
(0.0997407 -0.00262099 0)
(0.0997657 -0.00268636 0)
(0.0997918 -0.00275343 0)
(0.0998192 -0.00282185 0)
(0.0998478 -0.00289135 0)
(0.0998778 -0.00296166 0)
(0.0999092 -0.0030326 0)
(0.0999419 -0.00310399 0)
(0.0999761 -0.00317569 0)
(0.100012 -0.00324757 0)
(0.100049 -0.0033195 0)
(0.100088 -0.0033914 0)
(0.100128 -0.00346316 0)
(0.10017 -0.00353469 0)
(0.100213 -0.0036059 0)
(0.100258 -0.00367672 0)
(0.0999999 -3.47376e-05 0)
(0.0999991 -0.000103353 0)
(0.0999973 -0.000170801 0)
(0.0999948 -0.000237394 0)
(0.0999915 -0.00030331 0)
(0.0999876 -0.000368562 0)
(0.0999831 -0.000433358 0)
(0.0999782 -0.000498984 0)
(0.0999726 -0.000568743 0)
(0.0999661 -0.000648218 0)
(0.0999577 -0.000744291 0)
(0.0999462 -0.000863081 0)
(0.0999302 -0.00100756 0)
(0.0999087 -0.00117586 0)
(0.099881 -0.001361 0)
(0.0998472 -0.00155207 0)
(0.0998083 -0.00173642 0)
(0.099766 -0.00190221 0)
(0.0997223 -0.00204041 0)
(0.0996793 -0.00214601 0)
(0.0996391 -0.0022182 0)
(0.0996033 -0.00225984 0)
(0.0995731 -0.00227634 0)
(0.0995489 -0.00227447 0)
(0.099531 -0.00226126 0)
(0.0995191 -0.00224314 0)
(0.0995127 -0.00222546 0)
(0.0995112 -0.0022122 0)
(0.0995139 -0.00220606 0)
(0.0995201 -0.00220855 0)
(0.0995292 -0.00222023 0)
(0.0995407 -0.002241 0)
(0.0995541 -0.00227028 0)
(0.0995691 -0.00230725 0)
(0.0995855 -0.00235095 0)
(0.0996031 -0.00240042 0)
(0.0996219 -0.00245475 0)
(0.0996418 -0.00251313 0)
(0.0996628 -0.00257484 0)
(0.0996849 -0.00263928 0)
(0.0997082 -0.00270593 0)
(0.0997327 -0.00277438 0)
(0.0997585 -0.00284427 0)
(0.0997855 -0.00291532 0)
(0.099814 -0.00298729 0)
(0.0998438 -0.00305997 0)
(0.0998751 -0.0031332 0)
(0.0999079 -0.00320683 0)
(0.0999422 -0.00328073 0)
(0.0999781 -0.00335478 0)
(0.100015 -0.00342887 0)
(0.100054 -0.00350291 0)
(0.100095 -0.00357679 0)
(0.100137 -0.00365043 0)
(0.100181 -0.00372376 0)
(0.0999999 -3.45642e-05 0)
(0.099999 -0.000102837 0)
(0.099997 -0.000169953 0)
(0.0999942 -0.000236223 0)
(0.0999906 -0.000301833 0)
(0.0999862 -0.000366801 0)
(0.0999812 -0.000431338 0)
(0.0999756 -0.000496688 0)
(0.0999693 -0.000566052 0)
(0.099962 -0.000644841 0)
(0.0999528 -0.00073975 0)
(0.0999404 -0.000856756 0)
(0.0999236 -0.000998809 0)
(0.099901 -0.00116418 0)
(0.0998722 -0.00134617 0)
(0.0998372 -0.00153422 0)
(0.0997971 -0.00171608 0)
(0.0997533 -0.00188022 0)
(0.099708 -0.0020178 0)
(0.0996633 -0.00212384 0)
(0.0996213 -0.00219748 0)
(0.0995836 -0.00224138 0)
(0.0995513 -0.00226071 0)
(0.0995251 -0.00226201 0)
(0.099505 -0.00225208 0)
(0.099491 -0.00223717 0)
(0.0994824 -0.00222248 0)
(0.0994788 -0.00221194 0)
(0.0994793 -0.0022082 0)
(0.0994834 -0.00221276 0)
(0.0994904 -0.00222624 0)
(0.0994998 -0.00224857 0)
(0.0995111 -0.00227922 0)
(0.0995241 -0.00231741 0)
(0.0995386 -0.00236224 0)
(0.0995543 -0.00241281 0)
(0.0995712 -0.00246822 0)
(0.0995892 -0.00252771 0)
(0.0996083 -0.00259057 0)
(0.0996286 -0.00265621 0)
(0.0996501 -0.00272415 0)
(0.0996728 -0.00279397 0)
(0.0996969 -0.00286532 0)
(0.0997222 -0.00293793 0)
(0.099749 -0.00301155 0)
(0.0997772 -0.00308599 0)
(0.0998069 -0.00316107 0)
(0.0998381 -0.00323665 0)
(0.0998709 -0.00331259 0)
(0.0999053 -0.00338877 0)
(0.0999414 -0.00346508 0)
(0.099979 -0.00354142 0)
(0.100018 -0.0036177 0)
(0.100059 -0.00369381 0)
(0.100102 -0.00376968 0)
(0.0999999 -3.43721e-05 0)
(0.0999989 -0.000102266 0)
(0.0999967 -0.000169013 0)
(0.0999936 -0.000234925 0)
(0.0999896 -0.000300192 0)
(0.0999847 -0.000364842 0)
(0.0999792 -0.000429084 0)
(0.099973 -0.000494123 0)
(0.099966 -0.000563056 0)
(0.099958 -0.000641128 0)
(0.0999479 -0.000734843 0)
(0.0999347 -0.000850036 0)
(0.099917 -0.000989632 0)
(0.0998935 -0.00115204 0)
(0.0998637 -0.00133082 0)
(0.0998277 -0.0015158 0)
(0.0997863 -0.00169512 0)
(0.0997413 -0.00185753 0)
(0.0996946 -0.00199439 0)
(0.0996484 -0.0021008 0)
(0.0996047 -0.00217579 0)
(0.0995652 -0.00222186 0)
(0.0995309 -0.00224396 0)
(0.0995026 -0.00224836 0)
(0.0994804 -0.00224166 0)
(0.0994641 -0.0022299 0)
(0.0994533 -0.00221818 0)
(0.0994474 -0.00221032 0)
(0.0994457 -0.00220896 0)
(0.0994475 -0.00221559 0)
(0.0994522 -0.00223086 0)
(0.0994594 -0.00225473 0)
(0.0994686 -0.00228674 0)
(0.0994794 -0.00232615 0)
(0.0994918 -0.00237212 0)
(0.0995054 -0.00242377 0)
(0.0995202 -0.00248026 0)
(0.0995362 -0.00254084 0)
(0.0995534 -0.00260484 0)
(0.0995717 -0.00267169 0)
(0.0995913 -0.00274091 0)
(0.0996121 -0.00281209 0)
(0.0996343 -0.00288491 0)
(0.0996578 -0.00295907 0)
(0.0996828 -0.00303435 0)
(0.0997092 -0.00311055 0)
(0.0997372 -0.00318749 0)
(0.0997668 -0.00326502 0)
(0.099798 -0.00334302 0)
(0.0998308 -0.00342135 0)
(0.0998653 -0.00349991 0)
(0.0999015 -0.00357858 0)
(0.0999394 -0.00365728 0)
(0.0999789 -0.00373591 0)
(0.10002 -0.00381436 0)
(0.0999999 -3.41612e-05 0)
(0.0999988 -0.000101639 0)
(0.0999964 -0.00016798 0)
(0.099993 -0.000233499 0)
(0.0999886 -0.000298386 0)
(0.0999833 -0.000362682 0)
(0.0999772 -0.000426593 0)
(0.0999703 -0.000491286 0)
(0.0999627 -0.000559755 0)
(0.0999539 -0.000637079 0)
(0.099943 -0.000729575 0)
(0.099929 -0.000842934 0)
(0.0999104 -0.000980055 0)
(0.0998861 -0.00113947 0)
(0.0998554 -0.00131502 0)
(0.0998184 -0.0014969 0)
(0.0997761 -0.0016736 0)
(0.09973 -0.0018342 0)
(0.0996821 -0.00197027 0)
(0.0996344 -0.00207694 0)
(0.0995892 -0.00215319 0)
(0.0995479 -0.00220133 0)
(0.0995117 -0.00222609 0)
(0.0994813 -0.00223352 0)
(0.0994569 -0.00222996 0)
(0.0994384 -0.0022213 0)
(0.0994253 -0.00221249 0)
(0.099417 -0.00220729 0)
(0.0994128 -0.00220827 0)
(0.0994123 -0.00221695 0)
(0.0994147 -0.00223399 0)
(0.0994195 -0.0022594 0)
(0.0994264 -0.00229276 0)
(0.099435 -0.00233338 0)
(0.099445 -0.00238048 0)
(0.0994564 -0.0024332 0)
(0.0994691 -0.00249076 0)
(0.099483 -0.00255243 0)
(0.099498 -0.00261757 0)
(0.0995143 -0.00268561 0)
(0.0995318 -0.00275611 0)
(0.0995506 -0.00282865 0)
(0.0995708 -0.00290292 0)
(0.0995924 -0.00297864 0)
(0.0996154 -0.00305558 0)
(0.09964 -0.00313354 0)
(0.0996661 -0.00321234 0)
(0.0996939 -0.00329184 0)
(0.0997233 -0.0033719 0)
(0.0997544 -0.0034524 0)
(0.0997872 -0.00353322 0)
(0.0998218 -0.00361425 0)
(0.0998581 -0.00369541 0)
(0.0998962 -0.00377657 0)
(0.0999361 -0.00385766 0)
(0.0999999 -3.39315e-05 0)
(0.0999987 -0.000100956 0)
(0.0999961 -0.000166855 0)
(0.0999924 -0.000231943 0)
(0.0999876 -0.000296415 0)
(0.0999818 -0.00036032 0)
(0.0999752 -0.000423863 0)
(0.0999677 -0.000488174 0)
(0.0999594 -0.000556146 0)
(0.0999498 -0.000632696 0)
(0.0999381 -0.000723953 0)
(0.0999233 -0.000835466 0)
(0.0999038 -0.000970104 0)
(0.0998787 -0.00112652 0)
(0.0998473 -0.00129883 0)
(0.0998095 -0.00147756 0)
(0.0997663 -0.0016516 0)
(0.0997192 -0.00181033 0)
(0.0996702 -0.00194551 0)
(0.0996213 -0.00205234 0)
(0.0995746 -0.00212972 0)
(0.0995316 -0.00217981 0)
(0.0994935 -0.00220713 0)
(0.0994611 -0.00221747 0)
(0.0994345 -0.00221696 0)
(0.0994136 -0.00221133 0)
(0.0993981 -0.00220537 0)
(0.0993874 -0.00220276 0)
(0.0993808 -0.00220606 0)
(0.0993777 -0.00221676 0)
(0.0993776 -0.00223556 0)
(0.09938 -0.00226249 0)
(0.0993844 -0.00229718 0)
(0.0993906 -0.00233901 0)
(0.0993983 -0.00238722 0)
(0.0994074 -0.00244102 0)
(0.0994178 -0.00249964 0)
(0.0994294 -0.00256239 0)
(0.0994422 -0.00262865 0)
(0.0994563 -0.00269789 0)
(0.0994716 -0.00276965 0)
(0.0994883 -0.00284355 0)
(0.0995063 -0.00291927 0)
(0.0995258 -0.00299654 0)
(0.0995468 -0.00307513 0)
(0.0995694 -0.00315484 0)
(0.0995936 -0.0032355 0)
(0.0996194 -0.00331697 0)
(0.0996469 -0.00339911 0)
(0.0996762 -0.00348178 0)
(0.0997072 -0.00356488 0)
(0.09974 -0.0036483 0)
(0.0997746 -0.00373193 0)
(0.0998111 -0.00381566 0)
(0.0998493 -0.00389942 0)
(0.0999999 -3.36827e-05 0)
(0.0999986 -0.000100216 0)
(0.0999958 -0.000165636 0)
(0.0999918 -0.000230257 0)
(0.0999866 -0.000294278 0)
(0.0999804 -0.000357754 0)
(0.0999731 -0.000420893 0)
(0.099965 -0.000484786 0)
(0.099956 -0.000552228 0)
(0.0999456 -0.000627978 0)
(0.0999332 -0.00071798 0)
(0.0999175 -0.000827642 0)
(0.0998973 -0.000959799 0)
(0.0998715 -0.00111322 0)
(0.0998393 -0.00128228 0)
(0.0998008 -0.00145785 0)
(0.0997569 -0.00162918 0)
(0.099709 -0.00178597 0)
(0.0996589 -0.00192017 0)
(0.0996089 -0.00202704 0)
(0.0995607 -0.00210543 0)
(0.0995161 -0.00215735 0)
(0.0994762 -0.00218708 0)
(0.0994418 -0.00220021 0)
(0.099413 -0.00220266 0)
(0.0993898 -0.00219995 0)
(0.0993718 -0.00219677 0)
(0.0993585 -0.00219671 0)
(0.0993494 -0.00220227 0)
(0.0993437 -0.00221496 0)
(0.099341 -0.00223548 0)
(0.0993408 -0.00226392 0)
(0.0993427 -0.00229994 0)
(0.0993464 -0.00234296 0)
(0.0993516 -0.00239228 0)
(0.0993583 -0.00244714 0)
(0.0993662 -0.00250681 0)
(0.0993754 -0.00257063 0)
(0.0993859 -0.00263801 0)
(0.0993976 -0.00270842 0)
(0.0994107 -0.00278144 0)
(0.0994251 -0.00285668 0)
(0.0994409 -0.00293384 0)
(0.0994582 -0.00301264 0)
(0.099477 -0.00309288 0)
(0.0994974 -0.00317434 0)
(0.0995195 -0.00325687 0)
(0.0995432 -0.0033403 0)
(0.0995687 -0.00342451 0)
(0.099596 -0.00350937 0)
(0.099625 -0.00359476 0)
(0.099656 -0.00368058 0)
(0.0996887 -0.0037667 0)
(0.0997234 -0.00385303 0)
(0.0997599 -0.00393948 0)
(0.0999999 -3.34149e-05 0)
(0.0999985 -9.94194e-05 0)
(0.0999955 -0.000164324 0)
(0.0999912 -0.00022844 0)
(0.0999856 -0.000291973 0)
(0.0999789 -0.000354985 0)
(0.0999711 -0.000417681 0)
(0.0999624 -0.000481119 0)
(0.0999526 -0.000548001 0)
(0.0999415 -0.000622926 0)
(0.0999283 -0.00071166 0)
(0.0999118 -0.00081947 0)
(0.0998908 -0.000949157 0)
(0.0998643 -0.0010996 0)
(0.0998314 -0.00126541 0)
(0.0997923 -0.00143781 0)
(0.0997477 -0.0016064 0)
(0.0996991 -0.00176118 0)
(0.0996481 -0.0018943 0)
(0.099597 -0.0020011 0)
(0.0995475 -0.00208037 0)
(0.0995014 -0.00213396 0)
(0.0994597 -0.00216597 0)
(0.0994232 -0.00218176 0)
(0.0993922 -0.00218704 0)
(0.0993666 -0.00218716 0)
(0.0993461 -0.00218666 0)
(0.0993303 -0.00218908 0)
(0.0993185 -0.00219685 0)
(0.0993102 -0.00221149 0)
(0.0993048 -0.0022337 0)
(0.0993019 -0.00226362 0)
(0.0993012 -0.00230095 0)
(0.0993022 -0.00234515 0)
(0.0993049 -0.00239556 0)
(0.099309 -0.00245147 0)
(0.0993144 -0.00251219 0)
(0.0993211 -0.00257707 0)
(0.0993291 -0.00264554 0)
(0.0993384 -0.00271712 0)
(0.099349 -0.00279137 0)
(0.099361 -0.00286794 0)
(0.0993745 -0.00294652 0)
(0.0993894 -0.00302686 0)
(0.099406 -0.00310872 0)
(0.0994241 -0.00319193 0)
(0.0994439 -0.00327631 0)
(0.0994654 -0.0033617 0)
(0.0994887 -0.00344799 0)
(0.0995139 -0.00353503 0)
(0.0995408 -0.00362272 0)
(0.0995697 -0.00371093 0)
(0.0996005 -0.00379957 0)
(0.0996332 -0.00388852 0)
(0.0996678 -0.00397768 0)
(0.0999999 -3.31279e-05 0)
(0.0999984 -9.85661e-05 0)
(0.0999952 -0.000162917 0)
(0.0999906 -0.000226493 0)
(0.0999846 -0.000289501 0)
(0.0999774 -0.00035201 0)
(0.0999691 -0.000414227 0)
(0.0999597 -0.000477174 0)
(0.0999492 -0.000543461 0)
(0.0999373 -0.000617538 0)
(0.0999233 -0.000704994 0)
(0.099906 -0.000810957 0)
(0.0998843 -0.000938189 0)
(0.0998571 -0.00108567 0)
(0.0998237 -0.00124825 0)
(0.099784 -0.00141747 0)
(0.0997388 -0.00158329 0)
(0.0996894 -0.001736 0)
(0.0996377 -0.00186795 0)
(0.0995855 -0.00197455 0)
(0.0995348 -0.00205455 0)
(0.0994871 -0.00210967 0)
(0.0994437 -0.00214382 0)
(0.0994052 -0.00216212 0)
(0.099372 -0.00217009 0)
(0.099344 -0.00217292 0)
(0.099321 -0.00217502 0)
(0.0993025 -0.00217983 0)
(0.099288 -0.00218975 0)
(0.099277 -0.00220629 0)
(0.0992689 -0.00223016 0)
(0.0992632 -0.00226153 0)
(0.0992597 -0.00230015 0)
(0.0992581 -0.00234551 0)
(0.099258 -0.002397 0)
(0.0992594 -0.00245395 0)
(0.0992622 -0.00251568 0)
(0.0992663 -0.0025816 0)
(0.0992717 -0.00265116 0)
(0.0992785 -0.00272389 0)
(0.0992866 -0.00279936 0)
(0.0992961 -0.00287724 0)
(0.0993071 -0.00295723 0)
(0.0993196 -0.00303907 0)
(0.0993336 -0.00312255 0)
(0.0993494 -0.00320748 0)
(0.0993668 -0.00329369 0)
(0.099386 -0.00338105 0)
(0.0994069 -0.0034694 0)
(0.0994298 -0.00355862 0)
(0.0994545 -0.0036486 0)
(0.0994812 -0.00373922 0)
(0.0995098 -0.00383038 0)
(0.0995404 -0.00392196 0)
(0.099573 -0.00401386 0)
(0.0999999 -3.28218e-05 0)
(0.0999983 -9.76556e-05 0)
(0.0999949 -0.000161416 0)
(0.09999 -0.000224414 0)
(0.0999836 -0.00028686 0)
(0.0999759 -0.00034883 0)
(0.099967 -0.000410528 0)
(0.099957 -0.000472947 0)
(0.0999458 -0.000538608 0)
(0.0999331 -0.000611814 0)
(0.0999183 -0.000697984 0)
(0.0999003 -0.000802106 0)
(0.0998778 -0.000926902 0)
(0.0998499 -0.00107145 0)
(0.0998159 -0.00123081 0)
(0.0997757 -0.00139686 0)
(0.0997299 -0.00155988 0)
(0.0996799 -0.00171046 0)
(0.0996274 -0.00184114 0)
(0.0995743 -0.00194742 0)
(0.0995224 -0.00202802 0)
(0.0994733 -0.00208451 0)
(0.0994281 -0.00212062 0)
(0.0993876 -0.00214129 0)
(0.0993522 -0.00215182 0)
(0.0993218 -0.00215723 0)
(0.0992963 -0.00216182 0)
(0.0992751 -0.00216893 0)
(0.0992579 -0.00218094 0)
(0.099244 -0.00219932 0)
(0.0992331 -0.00222481 0)
(0.0992247 -0.0022576 0)
(0.0992183 -0.00229748 0)
(0.0992139 -0.00234398 0)
(0.099211 -0.00239653 0)
(0.0992097 -0.00245448 0)
(0.0992097 -0.00251723 0)
(0.0992111 -0.00258417 0)
(0.0992139 -0.00265479 0)
(0.0992179 -0.00272864 0)
(0.0992234 -0.00280531 0)
(0.0992303 -0.00288448 0)
(0.0992387 -0.00296584 0)
(0.0992486 -0.00304917 0)
(0.0992601 -0.00313424 0)
(0.0992732 -0.00322088 0)
(0.0992881 -0.00330891 0)
(0.0993048 -0.0033982 0)
(0.0993233 -0.0034886 0)
(0.0993437 -0.00357999 0)
(0.099366 -0.00367226 0)
(0.0993903 -0.00376529 0)
(0.0994166 -0.00385896 0)
(0.0994449 -0.00395318 0)
(0.0994753 -0.00404783 0)
(0.0999999 -3.24964e-05 0)
(0.0999982 -9.6688e-05 0)
(0.0999946 -0.00015982 0)
(0.0999893 -0.000222204 0)
(0.0999826 -0.00028405 0)
(0.0999744 -0.000345443 0)
(0.099965 -0.000406585 0)
(0.0999543 -0.000468439 0)
(0.0999424 -0.00053344 0)
(0.0999289 -0.000605753 0)
(0.0999133 -0.000690627 0)
(0.0998945 -0.000792917 0)
(0.0998713 -0.0009153 0)
(0.0998428 -0.00105694 0)
(0.0998081 -0.00121311 0)
(0.0997674 -0.00137599 0)
(0.0997211 -0.00153619 0)
(0.0996705 -0.00168458 0)
(0.0996173 -0.00181391 0)
(0.0995633 -0.00191975 0)
(0.0995102 -0.00200078 0)
(0.0994597 -0.00205849 0)
(0.0994128 -0.0020964 0)
(0.0993703 -0.00211927 0)
(0.0993327 -0.00213221 0)
(0.0992999 -0.00214008 0)
(0.0992718 -0.00214705 0)
(0.099248 -0.00215637 0)
(0.0992279 -0.00217039 0)
(0.0992113 -0.00219055 0)
(0.0991975 -0.00221761 0)
(0.0991861 -0.00225178 0)
(0.0991769 -0.00229289 0)
(0.0991696 -0.0023405 0)
(0.0991639 -0.00239408 0)
(0.0991597 -0.00245302 0)
(0.0991569 -0.00251675 0)
(0.0991555 -0.00258469 0)
(0.0991555 -0.00265635 0)
(0.0991568 -0.00273129 0)
(0.0991595 -0.00280913 0)
(0.0991636 -0.00288955 0)
(0.0991692 -0.00297227 0)
(0.0991764 -0.00305705 0)
(0.0991852 -0.00314369 0)
(0.0991957 -0.003232 0)
(0.099208 -0.00332183 0)
(0.099222 -0.00341302 0)
(0.0992379 -0.00350546 0)
(0.0992557 -0.003599 0)
(0.0992754 -0.00369354 0)
(0.0992972 -0.00378896 0)
(0.099321 -0.00388515 0)
(0.0993468 -0.003982 0)
(0.0993748 -0.00407941 0)
(0.0999999 -3.21518e-05 0)
(0.0999981 -9.56631e-05 0)
(0.0999943 -0.00015813 0)
(0.0999887 -0.000219861 0)
(0.0999816 -0.000281071 0)
(0.099973 -0.000341849 0)
(0.0999629 -0.000402397 0)
(0.0999516 -0.000463648 0)
(0.099939 -0.000527957 0)
(0.0999247 -0.000599353 0)
(0.0999083 -0.000682924 0)
(0.0998887 -0.00078339 0)
(0.0998648 -0.000903384 0)
(0.0998356 -0.00104214 0)
(0.0998004 -0.00119515 0)
(0.0997591 -0.00135488 0)
(0.0997123 -0.00151223 0)
(0.0996612 -0.00165839 0)
(0.0996073 -0.00178627 0)
(0.0995523 -0.00189154 0)
(0.0994982 -0.00197287 0)
(0.0994462 -0.00203162 0)
(0.0993976 -0.00207117 0)
(0.0993532 -0.00209608 0)
(0.0993134 -0.00211128 0)
(0.0992782 -0.00212147 0)
(0.0992475 -0.00213069 0)
(0.099221 -0.00214213 0)
(0.0991981 -0.00215807 0)
(0.0991786 -0.00217995 0)
(0.0991619 -0.00220853 0)
(0.0991476 -0.00224403 0)
(0.0991355 -0.00228632 0)
(0.0991252 -0.00233502 0)
(0.0991165 -0.0023896 0)
(0.0991094 -0.0024495 0)
(0.0991037 -0.00251417 0)
(0.0990994 -0.00258308 0)
(0.0990965 -0.00265575 0)
(0.0990949 -0.00273175 0)
(0.0990947 -0.00281073 0)
(0.099096 -0.00289237 0)
(0.0990988 -0.00297641 0)
(0.0991032 -0.00306261 0)
(0.0991091 -0.00315078 0)
(0.0991168 -0.00324073 0)
(0.0991262 -0.00333232 0)
(0.0991375 -0.00342539 0)
(0.0991506 -0.00351983 0)
(0.0991656 -0.0036155 0)
(0.0991827 -0.00371229 0)
(0.0992017 -0.00381008 0)
(0.0992229 -0.00390877 0)
(0.0992461 -0.00400825 0)
(0.0992715 -0.00410841 0)
(0.0999999 -3.1788e-05 0)
(0.099998 -9.45809e-05 0)
(0.0999939 -0.000156345 0)
(0.0999881 -0.000217387 0)
(0.0999806 -0.000277923 0)
(0.0999715 -0.000338048 0)
(0.0999609 -0.000397964 0)
(0.0999489 -0.000458574 0)
(0.0999355 -0.000522158 0)
(0.0999205 -0.000592613 0)
(0.0999033 -0.000674871 0)
(0.0998829 -0.000773523 0)
(0.0998582 -0.00089115 0)
(0.0998284 -0.00102706 0)
(0.0997926 -0.00117694 0)
(0.0997508 -0.00133351 0)
(0.0997035 -0.00148801 0)
(0.0996518 -0.00163187 0)
(0.0995972 -0.00175822 0)
(0.0995414 -0.00186281 0)
(0.0994861 -0.00194429 0)
(0.0994327 -0.00200393 0)
(0.0993825 -0.00204495 0)
(0.0993362 -0.00207172 0)
(0.0992942 -0.00208902 0)
(0.0992566 -0.00210139 0)
(0.0992233 -0.00211275 0)
(0.099194 -0.0021262 0)
(0.0991684 -0.00214397 0)
(0.0991459 -0.0021675 0)
(0.0991263 -0.00219753 0)
(0.099109 -0.00223432 0)
(0.0990939 -0.00227776 0)
(0.0990806 -0.00232749 0)
(0.0990689 -0.00238303 0)
(0.0990588 -0.00244386 0)
(0.0990502 -0.00250945 0)
(0.0990429 -0.00257928 0)
(0.0990369 -0.00265292 0)
(0.0990324 -0.00272995 0)
(0.0990292 -0.00281002 0)
(0.0990276 -0.00289285 0)
(0.0990274 -0.00297816 0)
(0.0990288 -0.00306574 0)
(0.0990318 -0.00315539 0)
(0.0990365 -0.00324695 0)
(0.099043 -0.00334025 0)
(0.0990513 -0.00343517 0)
(0.0990615 -0.00353157 0)
(0.0990736 -0.00362933 0)
(0.0990878 -0.00372834 0)
(0.099104 -0.00382848 0)
(0.0991222 -0.00392965 0)
(0.0991427 -0.00403174 0)
(0.0991652 -0.00413463 0)
(0.0999999 -3.14049e-05 0)
(0.0999979 -9.34415e-05 0)
(0.0999936 -0.000154465 0)
(0.0999875 -0.000214781 0)
(0.0999796 -0.000274606 0)
(0.09997 -0.00033404 0)
(0.0999588 -0.000393285 0)
(0.0999462 -0.000453217 0)
(0.0999321 -0.000516041 0)
(0.0999163 -0.000585532 0)
(0.0998983 -0.000666468 0)
(0.099877 -0.000763311 0)
(0.0998517 -0.000878594 0)
(0.0998211 -0.00101169 0)
(0.0997847 -0.00115846 0)
(0.0997424 -0.00131189 0)
(0.0996946 -0.00146352 0)
(0.0996423 -0.00160505 0)
(0.099587 -0.00172978 0)
(0.0995303 -0.00183356 0)
(0.0994739 -0.00191505 0)
(0.0994192 -0.00197541 0)
(0.0993673 -0.00201773 0)
(0.0993191 -0.00204621 0)
(0.0992749 -0.00206545 0)
(0.0992349 -0.00207985 0)
(0.0991991 -0.00209322 0)
(0.0991671 -0.00210857 0)
(0.0991386 -0.00212809 0)
(0.0991132 -0.00215317 0)
(0.0990906 -0.00218459 0)
(0.0990703 -0.00222261 0)
(0.0990521 -0.00226715 0)
(0.0990358 -0.00231787 0)
(0.0990211 -0.00237434 0)
(0.0990079 -0.00243605 0)
(0.0989962 -0.00250251 0)
(0.0989858 -0.00257323 0)
(0.0989768 -0.00264779 0)
(0.0989692 -0.0027258 0)
(0.098963 -0.00280693 0)
(0.0989582 -0.00289088 0)
(0.098955 -0.00297742 0)
(0.0989533 -0.00306633 0)
(0.0989532 -0.00315742 0)
(0.0989549 -0.00325053 0)
(0.0989583 -0.0033455 0)
(0.0989635 -0.00344221 0)
(0.0989706 -0.00354053 0)
(0.0989797 -0.00364034 0)
(0.0989907 -0.00374153 0)
(0.0990039 -0.00384399 0)
(0.0990191 -0.0039476 0)
(0.0990366 -0.00405226 0)
(0.0990562 -0.00415787 0)
(0.0999998 -3.10026e-05 0)
(0.0999978 -9.22449e-05 0)
(0.0999933 -0.00015249 0)
(0.0999869 -0.000212043 0)
(0.0999786 -0.00027112 0)
(0.0999685 -0.000329826 0)
(0.0999568 -0.00038836 0)
(0.0999435 -0.000447576 0)
(0.0999287 -0.000509608 0)
(0.0999121 -0.000578108 0)
(0.0998932 -0.000657711 0)
(0.0998712 -0.000752751 0)
(0.0998451 -0.00086571 0)
(0.0998138 -0.000996017 0)
(0.0997768 -0.0011397 0)
(0.0997339 -0.00129001 0)
(0.0996855 -0.00143876 0)
(0.0996327 -0.0015779 0)
(0.0995766 -0.00170093 0)
(0.0995191 -0.0018038 0)
(0.0994616 -0.00188515 0)
(0.0994055 -0.00194608 0)
(0.099352 -0.00198953 0)
(0.0993019 -0.00201954 0)
(0.0992555 -0.00204057 0)
(0.0992132 -0.00205686 0)
(0.0991748 -0.00207211 0)
(0.0991401 -0.00208924 0)
(0.0991088 -0.0021104 0)
(0.0990805 -0.00213697 0)
(0.0990548 -0.00216971 0)
(0.0990315 -0.00220889 0)
(0.0990103 -0.00225446 0)
(0.0989908 -0.00230613 0)
(0.098973 -0.00236347 0)
(0.0989567 -0.00242602 0)
(0.0989418 -0.0024933 0)
(0.0989283 -0.00256487 0)