/*--------------------------------*- C++ -*----------------------------------*\
| =========                 |                                                 |
| \\      /  F ield         | OpenFOAM: The Open Source CFD Toolbox           |
|  \\    /   O peration     | Version:  2412                                  |
|   \\  /    A nd           | Website:  www.openfoam.com                      |
|    \\/     M anipulation  |                                                 |
\*---------------------------------------------------------------------------*/
FoamFile
{
    version     2.0;
    format      ascii;
    arch        "LSB;label=32;scalar=64";
    class       surfaceScalarField;
    location    "20";
    object      phi;
}
// * * * * * * * * * * * * * * * * * * * * * * * * * * * * * * * * * * * * * //

dimensions      [0 3 -1 0 0 0 0];

oriented        oriented;

internalField   nonuniform List<scalar> 
10424
(
0.00530431
-0.000415451
-0.00531387
0.00529525
-0.000413181
0.00528672
-0.000410483
-0.00040737
0.0053156
-0.000405873
-0.00532518
0.0053065
-0.00040408
0.00529788
-0.000401866
0.00528976
-0.000399243
0.00528212
-0.000396222
0.00527498
-0.000392818
0.00526834
-0.000389049
0.00526218
-0.000384929
0.00525651
-0.000380474
0.00525132
-0.000375701
0.0052466
-0.000370629
0.00524233
-0.000365275
0.00523851
-0.00035966
0.00523513
-0.000353801
0.00523216
-0.000347719
0.00522959
-0.000341434
0.0052274
-0.000334964
0.00522559
-0.000328329
0.00522412
-0.000321549
0.00522297
-0.000314643
0.00522214
-0.000307629
0.00522161
-0.000300523
0.00522135
-0.000293345
0.00522134
-0.000286109
0.00522157
-0.00027883
0.00522202
-0.000271524
0.00522268
-0.000264205
0.00522353
-0.000256886
0.00522455
-0.000249581
0.00522574
-0.000242306
0.00522706
-0.000235075
0.00522851
-0.000227904
0.00523008
-0.000220808
0.00523175
-0.000213801
0.0052335
-0.000206897
0.00523533
-0.000200104
0.00523722
-0.000193431
0.00523915
-0.000186882
0.00524112
-0.00018046
0.00524311
-0.000174165
0.00524511
-0.000167995
0.00524712
-0.000161948
0.00524912
-0.000156023
-0.00015022
0.00532616
-0.000396313
-0.00533572
0.00531705
-0.000394963
0.00530838
-0.000393202
0.00530018
-0.000391039
0.00529244
-0.000388485
0.00528517
-0.00038555
0.00527837
-0.00038225
0.00527204
-0.000378598
0.00526617
-0.000374607
0.00526077
-0.000370295
0.00525581
-0.000365675
0.0052513
-0.000360766
0.00524723
-0.000355584
0.00524358
-0.000350148
0.00524033
-0.000344475
0.00523748
-0.000338585
0.00523501
-0.000332495
0.00523291
-0.000326224
0.00523115
-0.000319791
0.00522972
-0.000313215
0.00522861
-0.000306513
0.00522779
-0.000299703
0.00522724
-0.000292803
0.00522696
-0.000285828
0.00522693
-0.000278794
0.00522712
-0.000271716
0.00522752
-0.000264608
0.00522812
-0.000257486
0.0052289
-0.000250362
0.00522985
-0.000243253
0.00523095
-0.000236174
0.00523218
-0.00022914
0.00523354
-0.000222167
0.00523501
-0.000215269
0.00523657
-0.000208459
0.00523822
-0.000201747
0.00523993
-0.000195142
0.00524169
-0.000188648
0.0052435
-0.000182269
0.00524534
-0.000176006
0.00524721
-0.000169857
0.00524908
-0.000163823
0.00525096
-0.000157901
-0.000152093
0.00533603
-0.000386797
-0.00534555
0.00532692
-0.000385858
0.00531824
-0.000384519
0.00530999
-0.000382788
0.00530218
-0.000380672
0.00529481
-0.000378181
0.00528789
-0.000375327
0.00528141
-0.00037212
0.00527538
-0.000368575
0.00526979
-0.000364704
0.00526463
-0.000360521
0.00525991
-0.000356041
0.0052556
-0.000351281
0.00525171
-0.000346256
0.00524822
-0.000340983
0.00524512
-0.00033548
0.00524239
-0.000329764
0.00524001
-0.000323853
0.00523799
-0.000317765
0.00523629
-0.000311518
0.00523491
-0.000305129
0.00523382
-0.000298617
0.00523302
-0.000291997
0.00523248
-0.000285287
0.00523218
-0.000278502
0.00523213
-0.000271657
0.00523228
-0.000264767
0.00523265
-0.000257847
0.00523319
-0.000250911
0.00523392
-0.000243976
0.0052348
-0.000237055
0.00523582
-0.000230166
0.00523698
-0.000223323
0.00523825
-0.000216541
0.00523963
-0.000209834
0.00524109
-0.000203211
0.00524263
-0.000196681
0.00524423
-0.000190251
0.00524589
-0.000183923
0.00524758
-0.000177699
0.0052493
-0.00017158
0.00525104
-0.000165565
0.0052528
-0.000159654
-0.000153848
0.00534523
-0.000377348
-0.00535468
0.00533617
-0.00037679
0.00532749
-0.000375845
0.00531922
-0.000374517
0.00531136
-0.000372813
0.00530392
-0.000370741
0.0052969
-0.000368308
0.00529031
-0.000365526
0.00528414
-0.000362405
0.00527839
-0.000358956
0.00527306
-0.000355193
0.00526815
-0.000351128
0.00526364
-0.000346776
0.00525954
-0.00034215
0.00525582
-0.000337268
0.00525249
-0.000332144
0.00524952
-0.000326796
0.0052469
-0.000321239
0.00524463
-0.000315493
0.00524269
-0.000309572
0.00524105
-0.000303496
0.00523972
-0.000297281
0.00523866
-0.000290944
0.00523788
-0.000284501
0.00523734
-0.000277967
0.00523704
-0.00027136
0.00523697
-0.000264692
0.0052371
-0.00025798
0.00523743
-0.000251238
0.00523793
-0.000244481
0.00523861
-0.000237726
0.00523943
-0.000230988
0.00524039
-0.000224282
0.00524147
-0.000217624
0.00524266
-0.000211026
0.00524395
-0.0002045
0.00524532
-0.000198054
0.00524677
-0.000191694
0.00524827
-0.000185425
0.00524982
-0.000179248
0.0052514
-0.000173165
0.00525301
-0.000167177
0.00525464
-0.000161284
-0.000155487
0.00535381
-0.000367986
-0.00536317
0.0053448
-0.000367781
0.00533616
-0.0003672
0.00532789
-0.00036625
0.00532001
-0.000364932
0.00531252
-0.000363253
0.00530543
-0.000361219
0.00529875
-0.00035884
0.00529246
-0.000356123
0.00528659
-0.000353078
0.00528111
-0.000349718
0.00527603
-0.000346052
0.00527135
-0.000342093
0.00526706
-0.000337855
0.00526314
-0.000333352
0.0052596
-0.000328599
0.00525641
-0.00032361
0.00525357
-0.000318403
0.00525107
-0.000312993
0.0052489
-0.000307396
0.00524703
-0.00030163
0.00524546
-0.000295712
0.00524418
-0.000289657
0.00524316
-0.000283483
0.0052424
-0.000277204
0.00524187
-0.000270836
0.00524157
-0.000264395
0.00524149
-0.000257894
0.0052416
-0.00025135
0.0052419
-0.000244779
0.00524237
-0.000238194
0.00524299
-0.000231613
0.00524376
-0.000225051
0.00524466
-0.000218523
0.00524568
-0.000212042
0.00524679
-0.000205619
0.005248
-0.000199263
0.00524929
-0.000192981
0.00525064
-0.000186777
0.00525205
-0.000180655
0.0052535
-0.000174615
0.00525498
-0.00016866
0.00525649
-0.000162791
-0.00015701
0.00536179
-0.000358729
-0.00537105
0.00535286
-0.000358849
0.00534426
-0.000358607
0.00533602
-0.000358007
0.00532814
-0.000357051
0.00532063
-0.000355741
0.00531349
-0.000354084
0.00530674
-0.000352086
0.00530037
-0.000349753
0.00529439
-0.000347094
0.00528879
-0.000344119
0.00528357
-0.000340836
0.00527874
-0.000337257
0.00527427
-0.000333394
0.00527018
-0.000329259
0.00526645
-0.000324866
0.00526307
-0.000320229
0.00526003
-0.000315363
0.00525732
-0.000310284
0.00525493
-0.000305007
0.00525285
-0.000299549
0.00525106
-0.000293926
0.00524956
-0.000288153
0.00524832
-0.000282247
0.00524734
-0.000276224
0.0052466
-0.000270098
0.00524609
-0.000263885
0.0052458
-0.000257601
0.00524571
-0.000251259
0.00524581
-0.000244876
0.00524608
-0.000238467
0.00524652
-0.000232049
0.0052471
-0.000225636
0.00524782
-0.000219244
0.00524867
-0.000212885
0.00524962
-0.000206572
0.00525067
-0.000200313
0.0052518
-0.000194115
0.00525301
-0.000187984
0.00525428
-0.000181922
0.00525559
-0.000175933
0.00525695
-0.000170018
0.00525834
-0.000164179
-0.00015842
0.0053692
-0.000349591
-0.00537834
0.00536036
-0.000350011
0.00535184
-0.000350083
0.00534364
-0.000349809
0.00533578
-0.00034919
0.00532827
-0.000348227
0.00532111
-0.000346924
0.00531431
-0.000345286
0.00530787
-0.000343318
0.0053018
-0.000341026
0.0052961
-0.000338418
0.00529077
-0.000335503
0.0052858
-0.000332289
0.00528119
-0.000328787
0.00527694
-0.000325008
0.00527304
-0.000320965
0.00526949
-0.000316671
0.00526626
-0.00031214
0.00526336
-0.000307385
0.00526078
-0.000302423
0.0052585
-0.000297269
0.00525651
-0.000291937
0.0052548
-0.000286445
0.00525336
-0.000280808
0.00525218
-0.00027504
0.00525124
-0.000269158
0.00525053
-0.000263176
0.00525004
-0.000257109
0.00524975
-0.000250973
0.00524966
-0.000244782
0.00524974
-0.000238554
0.00525
-0.000232302
0.0052504
-0.000226043
0.00525095
-0.000219792
0.00525163
-0.000213562
0.00525242
-0.000207364
0.00525332
-0.000201208
0.0052543
-0.0001951
0.00525537
-0.000189048
0.0052565
-0.000183053
0.00525768
-0.00017712
0.00525892
-0.000171251
0.00526019
-0.000165448
-0.000159716
0.00537607
-0.000340587
-0.00538508
0.00536735
-0.000341282
0.00535891
-0.000341644
0.00535077
-0.000341673
0.00534295
-0.000341368
0.00533545
-0.000340729
0.00532829
-0.000339759
0.00532146
-0.00033846
0.00531498
-0.000336837
0.00530885
-0.000334894
0.00530307
-0.000332637
0.00529764
-0.000330072
0.00529256
-0.000327209
0.00528782
-0.000324055
0.00528344
-0.00032062
0.00527939
-0.000316917
0.00527567
-0.000312955
0.00527228
-0.00030875
0.00526921
-0.000304313
0.00526645
-0.00029966
0.00526398
-0.000294804
0.00526181
-0.000289762
0.00525991
-0.000284548
0.00525828
-0.000279177
0.0052569
-0.000273665
0.00525577
-0.000268026
0.00525487
-0.000262276
0.00525419
-0.000256429
0.00525372
-0.0002505
0.00525344
-0.000244506
0.00525335
-0.00023846
0.00525343
-0.00023238
0.00525366
-0.00022628
0.00525405
-0.000220175
0.00525456
-0.000214078
0.0052552
-0.000208
0.00525594
-0.000201952
0.00525678
-0.000195941
0.00525771
-0.000189972
0.0052587
-0.00018405
0.00525976
-0.000178179
0.00526087
-0.000172361
0.00526203
-0.000166601
-0.000160902
0.00538244
-0.000331728
-0.0053913
0.00537383
-0.000332676
0.00536549
-0.000333304
0.00535743
-0.000333613
0.00534966
-0.0003336
0.0053422
-0.000333265
0.00533505
-0.000332607
0.00532821
-0.000331628
0.00532171
-0.00033033
0.00531553
-0.000328718
0.00530969
-0.000326794
0.00530418
-0.000324565
0.00529901
-0.000322036
0.00529417
-0.000319216
0.00528966
-0.000316113
0.00528548
-0.000312737
0.00528163
-0.000309099
0.00527809
-0.000305211
0.00527486
-0.000301084
0.00527193
-0.000296733
0.0052693
-0.000292171
0.00526695
-0.000287413
0.00526488
-0.000282474
0.00526307
-0.000277368
0.00526151
-0.00027211
0.0052602
-0.000266714
0.00525912
-0.000261196
0.00525826
-0.00025557
0.00525761
-0.000249851
0.00525716
-0.000244055
0.0052569
-0.000238195
0.00525681
-0.000232289
0.00525688
-0.000226352
0.0052571
-0.000220396
0.00525746
-0.000214437
0.00525795
-0.000208485
0.00525854
-0.000202551
0.00525924
-0.000196641
0.00526003
-0.000190761
0.0052609
-0.000184917
0.00526183
-0.000179113
0.00526283
-0.000173352
0.00526386
-0.000167639
-0.000161978
0.00538832
-0.000323023
-0.00539703
0.00537985
-0.000324202
0.00537162
-0.000325076
0.00536365
-0.000325644
0.00535595
-0.000325902
0.00534854
-0.000325849
0.00534141
-0.000325483
0.00533459
-0.000324804
0.00532807
-0.000323814
0.00532187
-0.000322514
0.00531598
-0.000320907
0.00531041
-0.000318997
0.00530517
-0.000316789
0.00530024
-0.000314289
0.00529563
-0.000311505
0.00529134
-0.000308445
0.00528736
-0.000305119
0.00528369
-0.000301538
0.00528032
-0.000297713
0.00527724
-0.000293658
0.00527445
-0.000289384
0.00527194
-0.000284906
0.00526971
-0.000280237
0.00526773
-0.000275393
0.00526601
-0.000270387
0.00526453
-0.000265234
0.00526328
-0.000259947
0.00526225
-0.000254543
0.00526144
-0.000249034
0.00526082
-0.000243437
0.00526039
-0.000237766
0.00526014
-0.000232037
0.00526005
-0.000226265
0.00526012
-0.000220464
0.00526033
-0.000214646
0.00526067
-0.000208824
0.00526112
-0.000203007
0.00526169
-0.000197203
0.00526234
-0.000191418
0.00526308
-0.000185657
0.00526389
-0.000179925
0.00526477
-0.000174226
0.00526569
-0.000168565
-0.000162947
0.00539375
-0.000314481
-0.00540229
0.00538542
-0.00031587
0.00537731
-0.00031697
0.00536944
-0.000317777
0.00536183
-0.000318286
0.00535447
-0.000318496
0.00534739
-0.000318403
0.0053406
-0.000318006
0.00533409
-0.000317304
0.00532787
-0.000316299
0.00532196
-0.000314992
0.00531635
-0.000313385
0.00531104
-0.000311483
0.00530604
-0.000309289
0.00530135
-0.000306811
0.00529696
-0.000304055
0.00529287
-0.000301031
0.00528908
-0.000297748
0.00528558
-0.000294216
0.00528237
-0.000290448
0.00527944
-0.000286456
0.00527679
-0.000282252
0.0052744
-0.00027785
0.00527227
-0.000273264
0.00527039
-0.000268507
0.00526875
-0.000263594
0.00526735
-0.000258539
0.00526616
-0.000253355
0.00526518
-0.000248058
0.00526441
-0.000242661
0.00526382
-0.000237181
0.00526341
-0.000231631
0.00526318
-0.000226027
0.00526309
-0.000220382
0.00526316
-0.00021471
0.00526335
-0.000209021
0.00526367
-0.000203326
0.0052641
-0.000197632
0.00526463
-0.000191945
0.00526525
-0.000186272
0.00526594
-0.000180617
0.0052667
-0.000174985
0.00526751
-0.00016938
-0.00016381
0.00539875
-0.000306108
-0.00540712
0.00539057
-0.00030769
0.00538259
-0.000308996
0.00537484
-0.000310022
0.00536732
-0.000310764
0.00536004
-0.000311218
0.00535301
-0.000311379
0.00534625
-0.000311245
0.00533976
-0.000310815
0.00533355
-0.000310088
0.00532763
-0.000309065
0.00532199
-0.000307745
0.00531664
-0.000306133
0.00531158
-0.000304232
0.00530681
-0.000302046
0.00530234
-0.000299583
0.00529816
-0.000296849
0.00529427
-0.000293854
0.00529066
-0.000290607
0.00528733
-0.000287118
0.00528427
-0.0002834
0.00528148
-0.000279465
0.00527896
-0.000275324
0.00527669
-0.000270992
0.00527466
-0.000266482
0.00527287
-0.000261807
0.00527131
-0.000256981
0.00526998
-0.000252017
0.00526885
-0.000246931
0.00526792
-0.000241735
0.00526719
-0.000236446
0.00526663
-0.000231077
0.00526625
-0.000225643
0.00526603
-0.000220158
0.00526595
-0.000214634
0.00526601
-0.000209082
0.0052662
-0.000203512
0.0052665
-0.000197932
0.0052669
-0.000192348
0.00526739
-0.000186766
0.00526797
-0.000181192
0.00526861
-0.00017563
0.00526932
-0.000170087
-0.000164569
0.00540334
-0.000297911
-0.00541154
0.00539532
-0.000299667
0.00538749
-0.000301161
0.00537985
-0.00030239
0.00537244
-0.000303346
0.00536524
-0.000304025
0.00535829
-0.000304423
0.00535158
-0.000304535
0.00534512
-0.00030436
0.00533893
-0.000303894
0.005333
-0.000303137
0.00532734
-0.00030209
0.00532197
-0.000300754
0.00531686
-0.000299131
0.00531204
-0.000297225
0.0053075
-0.000295042
0.00530324
-0.000292587
0.00529926
-0.00028987
0.00529555
-0.000286897
0.00529211
-0.00028368
0.00528894
-0.000280229
0.00528603
-0.000276556
0.00528338
-0.000272672
0.00528097
-0.000268589
0.00527881
-0.000264321
0.00527689
-0.000259881
0.00527519
-0.000255282
0.00527371
-0.000250538
0.00527244
-0.000245661
0.00527137
-0.000240667
0.00527049
-0.000235569
0.0052698
-0.000230382
0.00526928
-0.00022512
0.00526891
-0.000219796
0.0052687
-0.000214422
0.00526863
-0.00020901
0.00526869
-0.000203568
0.00526886
-0.000198106
0.00526914
-0.000192628
0.00526952
-0.000187142
0.00526998
-0.000181652
0.00527051
-0.000176166
0.00527111
-0.000170687
-0.000165226
0.00540756
-0.000289895
-0.00541558
0.0053997
-0.000291808
0.00539201
-0.000293474
0.00538451
-0.000294887
0.00537721
-0.00029604
0.00537011
-0.000296928
0.00536323
-0.000297545
0.00535658
-0.000297887
0.00535017
-0.000297949
0.00534401
-0.000297728
0.00533809
-0.000297223
0.00533243
-0.000296433
0.00532704
-0.000295358
0.00532191
-0.000293999
0.00531704
-0.00029236
0.00531245
-0.000290445
0.00530812
-0.000288258
0.00530405
-0.000285808
0.00530026
-0.000283101
0.00529672
-0.000280147
0.00529345
-0.000276955
0.00529043
-0.000273537
0.00528766
-0.000269903
0.00528514
-0.000266065
0.00528285
-0.000262036
0.0052808
-0.000257827
0.00527897
-0.000253453
0.00527736
-0.000248925
0.00527595
-0.000244257
0.00527475
-0.000239463
0.00527374
-0.000234557
0.00527291
-0.000229553
0.00527225
-0.000224463
0.00527176
-0.000219302
0.00527142
-0.000214081
0.00527122
-0.000208811
0.00527115
-0.0002035
0.0052712
-0.000198158
0.00527136
-0.00019279
0.00527162
-0.000187402
0.00527197
-0.000182001
0.0052724
-0.000176593
0.00527289
-0.000171184
-0.000165781
0.00541143
-0.000282061
-0.00541926
0.00540374
-0.000284116
0.0053962
-0.000285938
0.00538883
-0.00028752
0.00538165
-0.000288855
0.00537465
-0.000289935
0.00536786
-0.000290755
0.00536129
-0.000291309
0.00535493
-0.000291593
0.0053488
-0.000291602
0.00534291
-0.000291333
0.00533727
-0.000290785
0.00533186
-0.000289957
0.00532671
-0.000288849
0.00532182
-0.000287463
0.00531718
-0.000285804
0.00531279
-0.000283874
0.00530867
-0.00028168
0.00530479
-0.000279229
0.00530118
-0.000276529
0.00529781
-0.000273589
0.00529469
-0.000270418
0.00529182
-0.000267028
0.00528918
-0.00026343
0.00528678
-0.000259634
0.00528461
-0.000255653
0.00528265
-0.0002515
0.00528092
-0.000247187
0.00527938
-0.000242727
0.00527805
-0.000238132
0.00527691
-0.000233417
0.00527596
-0.000228595
0.00527517
-0.000223679
0.00527455
-0.000218682
0.00527409
-0.000213615
0.00527376
-0.000208489
0.00527358
-0.000203312
0.00527351
-0.000198092
0.00527356
-0.000192836
0.0052737
-0.00018755
0.00527394
-0.000182241
0.00527427
-0.000176914
0.00527466
-0.000171577
-0.000166239
0.00541496
-0.000274413
-0.00542261
0.00540744
-0.000276597
0.00540006
-0.00027856
0.00539284
-0.000280295
0.00538578
-0.000281796
0.0053789
-0.000283053
0.0053722
-0.00028406
0.0053657
-0.000284811
0.00535941
-0.000285301
0.00535333
-0.000285524
0.00534748
-0.000285477
0.00534185
-0.000285156
0.00533645
-0.000284561
0.0053313
-0.000283691
0.00532638
-0.000282546
0.0053217
-0.00028113
0.00531728
-0.000279446
0.00531309
-0.000277498
0.00530916
-0.000275293
0.00530547
-0.000272838
0.00530202
-0.000270141
0.00529881
-0.000267211
0.00529584
-0.000264058
0.0052931
-0.000260693
0.00529059
-0.000257126
0.00528831
-0.000253369
0.00528624
-0.000249434
0.00528439
-0.000245332
0.00528274
-0.000241077
0.00528129
-0.000236681
0.00528003
-0.000232156
0.00527895
-0.000227516
0.00527804
-0.000222774
0.0052773
-0.000217941
0.00527672
-0.000213029
0.00527627
-0.000208048
0.00527597
-0.000203006
0.00527579
-0.000197912
0.00527572
-0.000192771
0.00527576
-0.000187589
0.0052759
-0.000182374
0.00527611
-0.000177133
0.00527641
-0.000171871
-0.000166599
0.00541819
-0.000266953
-0.00542565
0.00541085
-0.000269251
0.00540363
-0.000271341
0.00539655
-0.000273216
0.00538962
-0.000274868
0.00538286
-0.000276287
0.00537626
-0.000277467
0.00536985
-0.0002784
0.00536363
-0.000279081
0.00535761
-0.000279503
0.0053518
-0.000279663
0.0053462
-0.000279556
0.00534082
-0.00027918
0.00533566
-0.000278534
0.00533073
-0.000277618
0.00532603
-0.000276433
0.00532157
-0.000274983
0.00531734
-0.000273271
0.00531335
-0.000271302
0.0053096
-0.000269082
0.00530608
-0.00026662
0.00530279
-0.000263924
0.00529973
-0.000261001
0.00529691
-0.000257864
0.0052943
-0.00025452
0.00529191
-0.000250983
0.00528974
-0.000247262
0.00528778
-0.000243369
0.00528602
-0.000239316
0.00528445
-0.000235115
0.00528307
-0.00023078
0.00528188
-0.000226321
0.00528086
-0.000221752
0.00528
-0.000217085
0.0052793
-0.000212328
0.00527875
-0.000207494
0.00527833
-0.000202589
0.00527804
-0.000197621
0.00527786
-0.000192596
0.00527779
-0.000187522
0.00527782
-0.000182404
0.00527794
-0.00017725
0.00527814
-0.000172066
-0.000166864
0.00542114
-0.00025968
-0.00542841
0.00541397
-0.000262081
0.00540691
-0.000264285
0.00539998
-0.000266286
0.00539319
-0.000268075
0.00538655
-0.000269642
0.00538006
-0.00027098
0.00537374
-0.000272081
0.0053676
-0.000272939
0.00536164
-0.000273547
0.00535588
-0.000273899
0.00535032
-0.000273992
0.00534496
-0.000273823
0.00533981
-0.000273388
0.00533488
-0.000272688
0.00533017
-0.000271723
0.00532569
-0.000270496
0.00532142
-0.000269008
0.00531739
-0.000267266
0.00531358
-0.000265273
0.00531
-0.000263037
0.00530664
-0.000260566
0.0053035
-0.000257868
0.00530059
-0.000254951
0.0052979
-0.000251826
0.00529542
-0.000248502
0.00529315
-0.000244991
0.00529108
-0.000241303
0.00528921
-0.00023745
0.00528754
-0.000233443
0.00528606
-0.000229295
0.00528475
-0.000225017
0.00528362
-0.00022062
0.00528265
-0.000216117
0.00528184
-0.000211517
0.00528118
-0.000206829
0.00528065
-0.000202062
0.00528025
-0.000197222
0.00527997
-0.000192316
0.0052798
-0.000187351
0.00527973
-0.000182332
0.00527975
-0.000177268
0.00527985
-0.000172166
-0.000167035
0.00542383
-0.00543091
-0.000252594
0.00541683
-0.000255086
0.00540994
-0.000257393
0.00540316
-0.000259508
0.00539651
-0.00026142
0.00538999
-0.000263122
0.00538361
-0.000264605
0.00537739
-0.000265861
0.00537133
-0.000266882
0.00536545
-0.000267661
0.00535974
-0.000268193
0.00535422
-0.000268473
0.00534889
-0.000268496
0.00534377
-0.000268261
0.00533884
-0.000267765
0.00533413
-0.000267008
0.00532963
-0.000265992
0.00532534
-0.000264719
0.00532126
-0.000263193
0.00531741
-0.000261418
0.00531377
-0.0002594
0.00531035
-0.000257147
0.00530715
-0.000254665
0.00530416
-0.000251963
0.00530139
-0.00024905
0.00529882
-0.000245935
0.00529646
-0.00024263
0.0052943
-0.000239143
0.00529233
-0.000235486
0.00529056
-0.000231671
0.00528897
-0.000227707
0.00528756
-0.000223608
0.00528633
-0.000219383
0.00528525
-0.000215044
0.00528434
-0.0002106
0.00528357
-0.00020606
0.00528294
-0.000201431
0.00528243
-0.00019672
0.00528205
-0.000191934
0.00528178
-0.000187079
0.00528161
-0.000182161
0.00528153
-0.000177189
0.00528154
-0.00017217
-0.000167115
0.00587621
-0.000533508
0.00584696
-0.000546109
0.00581771
-0.000556883
0.00578857
-0.00056587
0.00575966
-0.000573117
0.00573109
-0.000578682
0.00570297
-0.000582629
0.00567538
-0.00058503
0.00564842
-0.000585965
0.00562215
-0.000585517
0.00559664
-0.000583772
0.00557196
-0.000580819
0.00554814
-0.000576748
0.00552523
-0.000571645
0.00550325
-0.000565599
0.00548223
-0.000558696
0.00546218
-0.000551019
0.00544311
-0.000542651
0.00542502
-0.00053367
0.0054079
-0.000524153
0.00539174
-0.000514177
0.00537653
-0.000503812
0.00536224
-0.000493126
0.00534886
-0.000482187
0.00533636
-0.000471054
0.00532471
-0.000459785
-0.000448433
0.00586444
-0.00050619
0.00583695
-0.000518619
0.00580941
-0.000529344
0.00578194
-0.000538398
0.00575465
-0.000545824
0.00572764
-0.00055167
0.005701
-0.000555995
0.00567484
-0.000558862
0.00564921
-0.000560342
0.00562421
-0.000560511
0.00559988
-0.000559447
0.00557629
-0.000557228
0.00555348
-0.000553937
0.00553149
-0.000549653
0.00551035
-0.000544456
0.00549008
-0.000538424
0.00547069
-0.000531635
0.0054522
-0.000524163
0.00543462
-0.000516082
0.00541793
-0.000507465
0.00540213
-0.000498379
0.00538721
-0.000488894
0.00537316
-0.000479074
0.00535995
-0.00046898
0.00534757
-0.000458671
0.00533599
-0.000448202
-0.000437624
0.00585256
-0.000480538
0.00582671
-0.000492775
0.00580079
-0.00050342
0.0057749
-0.000512504
0.00574913
-0.000520062
0.0057236
-0.000526137
0.00569838
-0.00053078
0.00567357
-0.000534049
0.00564924
-0.000536007
0.00562545
-0.00053672
0.00560226
-0.00053626
0.00557973
-0.000534699
0.0055579
-0.000532108
0.00553681
-0.000528563
0.00551649
-0.000524134
0.00549696
-0.000518895
0.00547824
-0.000512915
0.00546034
-0.000506264
0.00544327
-0.00049901
0.00542702
-0.00049122
0.0054116
-0.000482959
0.005397
-0.000474291
0.0053832
-0.000465275
0.00537019
-0.000455972
0.00535796
-0.000446436
0.00534648
-0.00043672
-0.000426872
0.00584067
-0.000456446
0.00581637
-0.000468472
0.00579196
-0.000479013
0.00576755
-0.000488094
0.00574324
-0.000495744
0.0057191
-0.000502003
0.00569524
-0.000506913
0.00567171
-0.000510527
0.00564861
-0.0005129
0.00562598
-0.000514093
0.00560389
-0.000514169
0.00558238
-0.000513193
0.0055615
-0.000511231
0.00554129
-0.00050835
0.00552177
-0.000504617
0.00550297
-0.000500096
0.00548491
-0.000494853
0.0054676
-0.000488952
0.00545105
-0.000482456
0.00543525
-0.000475428
0.00542022
-0.000467928
0.00540595
-0.000460016
0.00539242
-0.00045175
0.00537964
-0.000443184
0.00536757
-0.000434371
0.00535621
-0.000425362
-0.000416203
0.00582888
-0.000433809
0.00580602
-0.000445612
0.00578303
-0.000456029
0.00576002
-0.000465079
0.00573706
-0.000472788
0.00571425
-0.00047919
0.00569166
-0.000484322
0.00566936
-0.000488229
0.00564742
-0.000490963
0.00562591
-0.000492576
0.00560486
-0.000493126
0.00558434
-0.000492671
0.00556438
-0.000491272
0.00554502
-0.000488988
0.00552629
-0.000485882
0.0055082
-0.000482012
0.00549079
-0.000477439
0.00547406
-0.000472222
0.00545802
-0.000466421
0.00544269
-0.000460092
0.00542805
-0.000453294
0.00541412
-0.000446083
0.00540088
-0.000438511
0.00538833
-0.000430633
0.00537646
-0.000422497
0.00536525
-0.000414152
-0.000405641
0.00581723
-0.000412531
0.00579572
-0.000424102
0.00577407
-0.000434378
0.00575237
-0.000443374
0.00573069
-0.000451113
0.00570912
-0.000457622
0.00568774
-0.000462936
0.0056666
-0.000467092
0.00564577
-0.000470137
0.00562532
-0.000472118
0.00560528
-0.000473085
0.0055857
-0.000473093
0.00556662
-0.000472196
0.00554808
-0.000470448
0.0055301
-0.000467906
0.00551272
-0.000464624
0.00549594
-0.000460659
0.00547978
-0.000456066
0.00546426
-0.000450899
0.00544938
-0.000445213
0.00543515
-0.000439062
0.00542156
-0.000432497
0.00540862
-0.000425571
0.00539632
-0.000418333
0.00538465
-0.000410829
0.00537361
-0.000403106
-0.000395205
0.00580579
-0.00039252
0.00578554
-0.000403852
0.00576513
-0.000413973
0.00574466
-0.000422897
0.00572418
-0.00043064
0.00570379
-0.000437227
0.00568354
-0.000442687
0.0056635
-0.000447052
0.00564373
-0.000450364
0.00562427
-0.000452665
0.00560519
-0.000453999
0.00558651
-0.000454417
0.00556828
-0.000453966
0.00555053
-0.000452698
0.00553329
-0.000450663
0.00551658
-0.000447913
0.00550042
-0.000444499
0.00548483
-0.000440473
0.00546981
-0.000435886
0.00545539
-0.000430789
0.00544156
-0.000425232
0.00542833
-0.000419266
0.00541569
-0.000412937
0.00540365
-0.000406294
0.0053922
-0.000399381
0.00538134
-0.00039224
-0.000384912
0.00579457
-0.000373691
0.0057755
-0.00038478
0.00575626
-0.000394736
0.00573694
-0.000403571
0.0057176
-0.000411297
0.0056983
-0.000417935
0.00567913
-0.000423509
0.00566012
-0.000428048
0.00564135
-0.000431588
0.00562285
-0.000434165
0.00560467
-0.000435822
0.00558685
-0.0004366
0.00556943
-0.000436547
0.00555244
-0.000435706
0.00553591
-0.000434127
0.00551985
-0.000431856
0.00550429
-0.000428941
0.00548925
-0.00042543
0.00547473
-0.000421372
0.00546076
-0.000416814
0.00544733
-0.000411805
0.00543445
-0.00040639
0.00542213
-0.000400615
0.00541036
-0.000394525
0.00539915
-0.000388162
0.00538847
-0.000381567
-0.000374778
0.00578361
-0.000355966
0.00576564
-0.000366807
0.0057475
-0.000376591
0.00572925
-0.000385323
0.00571097
-0.000393014
0.00569271
-0.000399679
0.00567454
-0.00040534
0.00565651
-0.000410021
0.00563868
-0.000413753
0.00562108
-0.000416569
0.00560377
-0.000418506
0.00558677
-0.000419603
0.00557012
-0.000419901
0.00555386
-0.000419442
0.005538
-0.00041827
0.00552258
-0.00041643
0.0055076
-0.000413966
0.00549309
-0.000410923
0.00547907
-0.000407347
0.00546554
-0.000403283
0.00545251
-0.000398776
0.00543999
-0.00039387
0.00542798
-0.000388608
0.00541649
-0.000383032
0.00540551
-0.000377183
0.00539504
-0.000371098
-0.000364814
0.00577293
-0.000339269
0.00575598
-0.000349862
0.00573886
-0.000359466
0.00572162
-0.000368084
0.00570433
-0.000375723
0.00568705
-0.000382396
0.00566983
-0.00038812
0.00565272
-0.000392914
0.00563577
-0.000396807
0.00561903
-0.000399827
0.00560253
-0.000402007
0.00558631
-0.000403383
0.0055704
-0.000403991
0.00555483
-0.000403872
0.00553963
-0.000403065
0.00552481
-0.000401612
0.0055104
-0.000399555
0.00549641
-0.000396937
0.00548287
-0.000393801
0.00546977
-0.000390188
0.00545714
-0.000386143
0.00544497
-0.000381706
0.00543328
-0.000376918
0.00542207
-0.00037182
0.00541134
-0.000366449
0.00540108
-0.000360842
-0.000355031
0.00576253
-0.000323531
0.00574654
-0.000333876
0.00573037
-0.000343296
0.00571408
-0.00035179
0.00569772
-0.000359364
0.00568135
-0.000366026
0.00566502
-0.00037179
0.00564878
-0.000376673
0.00563267
-0.000380699
0.00561673
-0.000383891
0.00560101
-0.000386281
0.00558552
-0.0003879
0.00557032
-0.000388783
0.00555541
-0.000388964
0.00554083
-0.000388483
0.00552659
-0.000387378
0.00551273
-0.000385689
0.00549925
-0.000383456
0.00548616
-0.000380719
0.0054735
-0.00037752
0.00546125
-0.000373898
0.00544944
-0.000369894
0.00543807
-0.000365546
0.00542714
-0.000360891
0.00541666
-0.000355966
0.00540662
-0.000350804
-0.000345438
0.00575242
-0.000308689
0.00573733
-0.000318787
0.00572205
-0.000328018
0.00570664
-0.00033638
0.00569115
-0.000343876
0.00567564
-0.000350512
0.00566014
-0.000356297
0.00564472
-0.000361246
0.0056294
-0.000365379
0.00561422
-0.000368717
0.00559923
-0.000371286
0.00558444
-0.000373117
0.0055699
-0.00037424
0.00555562
-0.000374688
0.00554164
-0.000374498
0.00552797
-0.000373705
0.00551462
-0.000372347
0.00550163
-0.000370463
0.005489
-0.000368091
0.00547675
-0.000365269
0.00546489
-0.000362037
0.00545343
-0.000358432
0.00544237
-0.00035449
0.00543173
-0.000350247
0.0054215
-0.000345737
0.00541169
-0.000340992
-0.000336042
0.0057426
-0.000294683
0.00572835
-0.000304534
0.00571391
-0.000313574
0.00569932
-0.000321797
0.00568465
-0.000329205
0.00566994
-0.0003358
0.00565523
-0.000341589
0.00564057
-0.000346584
0.00562599
-0.000350801
0.00561153
-0.000354259
0.00559723
-0.000356981
0.0055831
-0.000358995
0.00556919
-0.000360328
0.00555552
-0.000361012
0.0055421
-0.000361081
0.00552896
-0.000360568
0.00551613
-0.000359509
0.0055036
-0.000357942
0.00549141
-0.000355901
0.00547957
-0.000353426
0.00546809
-0.000350551
0.00545697
-0.000347314
0.00544623
-0.000343748
0.00543587
-0.000339888
0.00542589
-0.000335765
0.00541631
-0.00033141
-0.00032685
0.00573308
-0.000281458
0.00571961
-0.000291064
0.00570595
-0.000299909
0.00569214
-0.000307987
0.00567823
-0.000315297
0.00566427
-0.000321839
0.0056503
-0.000327616
0.00563635
-0.000332639
0.00562247
-0.00033692
0.00560869
-0.000340476
0.00559504
-0.000343327
0.00558154
-0.000345498
0.00556823
-0.000347015
0.00555512
-0.000347907
0.00554225
-0.000348206
0.00552962
-0.000347944
0.00551727
-0.000347155
0.0055052
-0.000345875
0.00549344
-0.000344137
0.00548199
-0.000341979
0.00547087
-0.000339433
0.00546009
-0.000336536
0.00544966
-0.000333318
0.00543959
-0.000329813
0.00542987
-0.000326051
0.00542052
-0.000322059
-0.000317865
0.00572386
-0.000268962
0.00571112
-0.000278324
0.00569819
-0.000286973
0.0056851
-0.000294901
0.00567191
-0.000302105
0.00565865
-0.000308582
0.00564537
-0.000314334
0.0056321
-0.000319368
0.00561887
-0.000323694
0.00560572
-0.000327327
0.00559268