/*--------------------------------*- C++ -*----------------------------------*\
| =========                 |                                                 |
| \\      /  F ield         | OpenFOAM: The Open Source CFD Toolbox           |
|  \\    /   O peration     | Version:  2412                                  |
|   \\  /    A nd           | Website:  www.openfoam.com                      |
|    \\/     M anipulation  |                                                 |
\*---------------------------------------------------------------------------*/
FoamFile
{
    version     2.0;
    format      ascii;
    arch        "LSB;label=32;scalar=64";
    class       volScalarField;
    location    "20";
    object      p;
}
// * * * * * * * * * * * * * * * * * * * * * * * * * * * * * * * * * * * * * //

dimensions      [0 2 -2 0 0 0 0];

internalField   nonuniform List<scalar> 
5285
(
0.000939549
0.000939809
0.000940633
0.000941906
0.000943611
0.000945736
0.000948262
0.000951176
0.000954468
0.000958126
0.000962142
0.000966508
0.000971215
0.000976258
0.000981629
0.000987324
0.00099334
0.000999676
0.00100633
0.0010133
0.0010206
0.00102822
0.00103616
0.00104442
0.00105302
0.00106195
0.0010712
0.0010808
0.00109073
0.001101
0.00111162
0.00112258
0.0011339
0.00114556
0.00115759
0.00116997
0.00118272
0.00119584
0.00120932
0.00122319
0.00123743
0.00125206
0.00126707
0.00128248
0.00129828
0.00131448
0.00133109
0.00134811
0.00136555
0.0013834
0.00140167
0.00142038
0.00143951
0.00145909
0.00147911
0.00093949
0.000939749
0.000940573
0.000941845
0.000943549
0.000945671
0.000948196
0.000951108
0.000954397
0.000958053
0.000962066
0.000966428
0.000971132
0.00097617
0.000981537
0.000987228
0.000993239
0.000999569
0.00100622
0.00101319
0.00102047
0.00102808
0.00103602
0.00104428
0.00105286
0.00106178
0.00107103
0.00108061
0.00109053
0.00110079
0.0011114
0.00112235
0.00113365
0.0011453
0.00115731
0.00116967
0.0011824
0.0011955
0.00120897
0.00122281
0.00123703
0.00125163
0.00126662
0.001282
0.00129777
0.00131395
0.00133052
0.00134751
0.0013649
0.00138272
0.00140095
0.00141961
0.0014387
0.00145823
0.00147819
0.00093937
0.000939629
0.000940452
0.000941722
0.000943424
0.000945543
0.000948064
0.000950972
0.000954256
0.000957906
0.000961913
0.000966269
0.000970965
0.000975995
0.000981353
0.000987034
0.000993036
0.000999355
0.00100599
0.00101295
0.00102022
0.00102782
0.00103574
0.00104398
0.00105255
0.00106145
0.00107068
0.00108024
0.00109014
0.00110037
0.00111095
0.00112188
0.00113315
0.00114477
0.00115674
0.00116908
0.00118177
0.00119483
0.00120825
0.00122205
0.00123623
0.00125078
0.00126572
0.00128104
0.00129676
0.00131287
0.00132938
0.0013463
0.00136362
0.00138136
0.00139951
0.00141808
0.00143708
0.00145651
0.00147637
0.000939191
0.00093945
0.000940271
0.000941538
0.000943236
0.000945351
0.000947866
0.000950768
0.000954045
0.000957686
0.000961684
0.00096603
0.000970715
0.000975733
0.000981078
0.000986745
0.000992731
0.000999034
0.00100565
0.00101259
0.00101985
0.00102742
0.00103532
0.00104353
0.00105208
0.00106095
0.00107015
0.00107968
0.00108954
0.00109975
0.00111029
0.00112117
0.0011324
0.00114397
0.0011559
0.00116818
0.00118082
0.00119382
0.00120719
0.00122092
0.00123503
0.00124951
0.00126437
0.00127961
0.00129524
0.00131127
0.00132768
0.00134449
0.00136171
0.00137933
0.00139736
0.0014158
0.00143466
0.00145394
0.00147364
0.000938953
0.000939211
0.000940029
0.000941293
0.000942986
0.000945095
0.000947603
0.000950496
0.000953763
0.000957394
0.000961379
0.000965711
0.000970382
0.000975384
0.000980712
0.00098636
0.000992326
0.000998607
0.0010052
0.00101212
0.00101934
0.00102689
0.00103476
0.00104294
0.00105145
0.00106028
0.00106944
0.00107893
0.00108875
0.00109891
0.0011094
0.00112023
0.0011314
0.00114292
0.00115478
0.00116699
0.00117956
0.00119249
0.00120577
0.00121942
0.00123344
0.00124782
0.00126258
0.00127772
0.00129323
0.00130913
0.00132542
0.0013421
0.00135917
0.00137663
0.0013945
0.00141277
0.00143145
0.00145054
0.00147003
0.000938655
0.000938912
0.000939728
0.000940987
0.000942674
0.000944776
0.000947274
0.000950157
0.000953412
0.000957029
0.000960999
0.000965314
0.000969966
0.000974948
0.000980254
0.000985879
0.00099182
0.000998075
0.00100464
0.00101152
0.00101872
0.00102623
0.00103406
0.0010422
0.00105067
0.00105946
0.00106857
0.001078
0.00108777
0.00109787
0.00110829
0.00111906
0.00113016
0.0011416
0.00115338
0.00116551
0.00117799
0.00119082
0.00120401
0.00121755
0.00123145
0.00124572
0.00126035
0.00127535
0.00129073
0.00130648
0.0013226
0.00133911
0.00135601
0.00137329
0.00139095
0.00140901
0.00142746
0.00144631
0.00146555
0.000938298
0.000938555
0.000939366
0.000940621
0.0009423
0.000944393
0.00094688
0.00094975
0.000952991
0.000956591
0.000960543
0.000964838
0.000969468
0.000974427
0.000979707
0.000985304
0.000991214
0.000997437
0.00100397
0.00101081
0.00101797
0.00102544
0.00103322
0.00104132
0.00104973
0.00105846
0.00106752
0.00107689
0.00108659
0.00109662
0.00110697
0.00111766
0.00112867
0.00114003
0.00115172
0.00116374
0.00117612
0.00118883
0.0012019
0.00121532
0.00122908
0.00124321
0.00125769
0.00127253
0.00128774
0.00130331
0.00131925
0.00133556
0.00135224
0.00136929
0.00138673
0.00140453
0.00142272
0.00144128
0.00146022
0.00149963
0.00152086
0.00154303
0.00156615
0.00159029
0.00161551
0.00164187
0.00166946
0.00169834
0.00172859
0.00176031
0.00179359
0.00182855
0.00186528
0.00190392
0.0019446
0.00149869
0.00151995
0.00154209
0.00156521
0.00158934
0.00161456
0.00164092
0.0016685
0.00169738
0.00172762
0.00175934
0.00179261
0.00182756
0.00186428
0.0019029
0.00194356
0.00149682
0.00151806
0.00154021
0.00156332
0.00158745
0.00161266
0.00163901
0.00166659
0.00169545
0.00172569
0.00175739
0.00179065
0.00182557
0.00186227
0.00190086
0.00194148
0.001494
0.00151524
0.00153738
0.00156048
0.0015846
0.0016098
0.00163614
0.0016637
0.00169255
0.00172277
0.00175445
0.00178768
0.00182257
0.00185922
0.00189776
0.00193832
0.00149028
0.00151151
0.00153364
0.00155673
0.00158084
0.00160603
0.00163236
0.00165991
0.00168874
0.00171895
0.0017506
0.00178381
0.00181866
0.00185527
0.00189375
0.00193424
0.00148565
0.00150688
0.00152902
0.00155212
0.00157625
0.00160146
0.00162781
0.00165539
0.00168425
0.00171449
0.00174618
0.00177941
0.0018143
0.00185094
0.00188946
0.00192997
0.00148011
0.00150127
0.00152335
0.0015464
0.00157048
0.00159564
0.00162195
0.00164947
0.00167829
0.00170848
0.00174012
0.00177331
0.00180814
0.00184473
0.00188318
0.00192362
0.00147351
0.00149431
0.00151599
0.00153862
0.00156223
0.00158688
0.00161263
0.00163954
0.00166767
0.0016971
0.00172791
0.00176016
0.00179395
0.00182938
0.00186652
0.0019055
0.00146579
0.00148614
0.00150735
0.00152944
0.00155248
0.00157651
0.00160159
0.00162777
0.0016551
0.00168366
0.00171351
0.00174472
0.00177737
0.00181153
0.00184729
0.00188472
0.00145717
0.00147699
0.00149762
0.0015191
0.00154147
0.00156478
0.00158906
0.00161438
0.00164078
0.00166833
0.00169706
0.00172706
0.00175837
0.00179107
0.00182522
0.00186089
0.0014477
0.00146695
0.00148696
0.00150777
0.00152942
0.00155193
0.00157537
0.00159976
0.00162515
0.0016516
0.00167914
0.00170783
0.00173771
0.00176884
0.00180126
0.00183504
0.00143743
0.00145607
0.00147541
0.00149551
0.00151638
0.00153806
0.00156059
0.001584
0.00160833
0.00163362
0.00165989
0.0016872
0.00171558
0.00174507
0.00177569
0.00180749
0.0014264
0.00144438
0.00146303
0.00148237
0.00150242
0.00152323
0.0015448
0.00156718
0.00159039
0.00161446
0.00163941
0.00166528
0.0016921
0.00171987
0.00174863
0.00177838
0.00141465
0.00143195
0.00144987
0.00146841
0.00148761
0.00150749
0.00152807
0.00154937
0.00157142
0.00159423
0.00161781
0.0016422
0.0016674
0.00169341
0.00172026
0.00174792
0.00140225
0.00141883
0.00143598
0.0014537
0.00147202
0.00149094
0.0015105
0.00153069
0.00155153
0.00157304
0.00159523
0.00161809
0.00164164
0.00166586
0.00169076
0.00171631
0.00138923
0.00140508
0.00142143
0.00143831
0.00145571
0.00147366
0.00149215
0.00151121
0.00153083
0.00155101
0.00157177
0.00159309
0.00161497
0.00163739
0.00166032
0.00168375
0.00137565
0.00139074
0.00140629
0.00142229
0.00143876
0.00145571
0.00147313
0.00149103
0.00150941
0.00152826
0.00154757
0.00156734
0.00158754
0.00160814
0.00162912
0.00165043
0.00136156
0.00137588
0.0013906
0.00140572
0.00142125
0.00143718
0.00145351
0.00147025
0.00148737
0.00150488
0.00152274
0.00154096
0.00155948
0.00157829
0.00159733
0.00161655
0.00134701
0.00136054
0.00137443
0.00138866
0.00140323
0.00141814
0.00143338
0.00144895
0.00146482
0.00148098
0.00149741
0.00151407
0.00153094
0.00154797
0.0015651
0.00158227
0.00133205
0.0013448
0.00135784
0.00137117
0.00138478
0.00139867
0.00141282
0.00142722
0.00144184
0.00145667
0.00147167
0.00148681
0.00150205
0.00151733
0.00153259
0.00154776
0.00131673
0.00132869
0.00134088
0.00135332
0.00136597
0.00137884
0.00139191
0.00140515
0.00141853
0.00143205
0.00144564
0.00145929
0.00147292
0.0014865
0.00149994
0.00151317
0.00130111
0.00131227
0.00132363
0.00133516
0.00134687
0.00135873
0.00137072
0.00138281
0.00139498
0.0014072
0.00141942
0.0014316
0.00144368
0.0014556
0.00146728
0.00147864
0.00128522
0.0012956
0.00130612
0.00131677
0.00132753
0.00133839
0.00134932
0.00136029
0.00137127
0.00138222
0.0013931
0.00140386
0.00141443
0.00142474
0.00143473
0.0014443
0.00126913
0.00127872
0.00128841
0.00129818
0.00130802
0.0013179
0.00132779
0.00133766
0.00134748
0.0013572
0.00136677
0.00137615
0.00138526
0.00139404
0.00140241
0.00141026
0.00125286
0.00126168
0.00127056
0.00127947
0.0012884
0.00129731
0.00130619
0.00131499
0.00132367
0.0013322
0.00134051
0.00134856
0.00135627
0.00136358
0.0013704
0.00137663
0.00123647
0.00124453
0.0012526
0.00126067
0.00126871
0.00127669
0.00128457
0.00129233
0.00129992
0.00130729
0.00131439
0.00132117
0.00132754
0.00133345
0.00133879
0.00134349
0.00121999
0.00122731
0.0012346
0.00124184
0.00124901
0.00125608
0.001263
0.00126976
0.00127629
0.00128255
0.00128849
0.00129404
0.00129914
0.00130371
0.00130767
0.00131092
0.00120347
0.00121005
0.00121658
0.00122302
0.00122935
0.00123553
0.00124153
0.00124731
0.00125283
0.00125803
0.00126285
0.00126725
0.00127114
0.00127445
0.0012771
0.00127898
0.00118694
0.00119281
0.00119859
0.00120426
0.00120977
0.0012151
0.00122021
0.00122505
0.00122959
0.00123378
0.00123755
0.00124084
0.00124358
0.00124571
0.00124713
0.00124775
0.00117043
0.00117561
0.00118067
0.00118558
0.00119031
0.00119482
0.00119907
0.00120302
0.00120663
0.00120985
0.00121261
0.00121486
0.00121653
0.00121754
0.00121781
0.00121725
0.00115398
0.00115849
0.00116286
0.00116704
0.00117101
0.00117472
0.00117816
0.00118126
0.00118398
0.00118628
0.0011881
0.00118936
0.00119002
0.00118999
0.00118919
0.00118753
0.00113761
0.00114148
0.00114517
0.00114865
0.0011519
0.00115486
0.00115751
0.0011598
0.00116168
0.00116311
0.00116403
0.00116438
0.00116409
0.00116308
0.00116129
0.00115863
0.00112136
0.00112461
0.00112765
0.00113046
0.00113301
0.00113525
0.00113715
0.00113867
0.00113976
0.00114037
0.00114045
0.00113993
0.00113876
0.00113685
0.00113415
0.00113055
0.00110524
0.00110789
0.00111032
0.00111249
0.00111437
0.00111593
0.00111712
0.00111791
0.00111825
0.00111809
0.00111738
0.00111606
0.00111406
0.00111132
0.00110777
0.00110333
0.00108929
0.00109137
0.0010932
0.00109476
0.001096
0.00109691
0.00109743
0.00109754
0.00109717
0.00109629
0.00109484
0.00109277
0.00109001
0.0010865
0.00108218
0.00107695
0.00107352
0.00107505
0.00107631
0.00107729
0.00107793
0.00107822
0.00107811
0.00107757
0.00107654
0.00107498
0.00107285
0.00107008
0.00106662
0.00106241
0.00105737
0.00105144
0.00105795
0.00105896
0.00105968
0.0010601
0.00106018
0.00105988
0.00105918
0.00105802
0.00105638
0.00105419
0.00105142
0.00104801
0.0010439
0.00103904
0.00103336
0.00102679
0.000937872
0.000938128
0.000938935
0.000940183
0.000941854
0.000943936
0.000946411
0.000949265
0.000952488
0.00095607
0.00096
0.000964271
0.000968875
0.000973804
0.000979054
0.000984617
0.000990492
0.000996676
0.00100317
0.00100997
0.00101708
0.0010245
0.00103222
0.00104026
0.00104862
0.00105728
0.00106627
0.00107557
0.00108519
0.00109513
0.0011054
0.00111599
0.00112691
0.00113815
0.00114973
0.00116164
0.00117389
0.00118647
0.00119939
0.00121266
0.00122627
0.00124023
0.00125453
0.00126918
0.00128419
0.00129955
0.00131527
0.00133134
0.00134777
0.00136457
0.00138172
0.00139923
0.00141711
0.00143535
0.00145394
0.000937373
0.000937627
0.000938429
0.00093967
0.000941331
0.0009434
0.000945859
0.000948696
0.000951899
0.000955457
0.000959362
0.000963605
0.000968178
0.000973074
0.000978287
0.000983812
0.000989645
0.000995785
0.00100223
0.00100898
0.00101603
0.00102339
0.00103106
0.00103903
0.00104731
0.0010559
0.0010648
0.00107402
0.00108355
0.00109339
0.00110356
0.00111404
0.00112484
0.00113596
0.00114741
0.00115918
0.00117128
0.00118371
0.00119647
0.00120956
0.00122298
0.00123674
0.00125084
0.00126528
0.00128005
0.00129517
0.00131063
0.00132643
0.00134257
0.00135906
0.00137589
0.00139307
0.00141058
0.00142845
0.00144665
0.000936809
0.000937062
0.000937858
0.000939091
0.00094074
0.000942795
0.000945237
0.000948054
0.000951234
0.000954767
0.000958643
0.000962855
0.000967393
0.000972252
0.000977424
0.000982905
0.000988691
0.00099478
0.00100117
0.00100786
0.00101485
0.00102215
0.00102974
0.00103764
0.00104584
0.00105435
0.00106316
0.00107228
0.0010817
0.00109144
0.00110149
0.00111184
0.00112251
0.0011335
0.0011448
0.00115642
0.00116835
0.00118061
0.00119318
0.00120608
0.0012193
0.00123284
0.00124671
0.0012609
0.00127542
0.00129026
0.00130543
0.00132093
0.00133675
0.0013529
0.00136938
0.00138618
0.0014033
0.00142074
0.00143851
0.000936182
0.000936433
0.000937223
0.000938446
0.000940083
0.000942122
0.000944545
0.00094734
0.000950495
0.000953999
0.000957844
0.00096202
0.00096652
0.000971337
0.000976465
0.000981897
0.000987631
0.000993664
0.000999994
0.00100662
0.00101354
0.00102076
0.00102828
0.00103609
0.00104421
0.00105262
0.00106133
0.00107034
0.00107966
0.00108927
0.00109919
0.00110941
0.00111994
0.00113077
0.00114191
0.00115336
0.00116511
0.00117717
0.00118955
0.00120223
0.00121522
0.00122852
0.00124214
0.00125606
0.0012703
0.00128484
0.0012997
0.00131487
0.00133034
0.00134612
0.0013622
0.00137859
0.00139528
0.00141227
0.00142956
0.000935492
0.000935741
0.000936524
0.000937737
0.000939361
0.000941382
0.000943784
0.000946555
0.000949682
0.000953155
0.000956965
0.000961103
0.000965561
0.000970332
0.00097541
0.00098079
0.000986466
0.000992438
0.000998702
0.00100526
0.00101211
0.00101925
0.00102668
0.0010344
0.00104242
0.00105072
0.00105933
0.00106822
0.00107741
0.00108689
0.00109667
0.00110675
0.00111712
0.00112779
0.00113875
0.00115001
0.00116157
0.00117342
0.00118557
0.00119802
0.00121077
0.00122381
0.00123715
0.00125079
0.00126472
0.00127894
0.00129345
0.00130826
0.00132336
0.00133874
0.0013544
0.00137035
0.00138657
0.00140308
0.00141985
0.000934739
0.000934986
0.000935762
0.000936964
0.000938572
0.000940575
0.000942955
0.000945699
0.000948796
0.000952235
0.000956007
0.000960103
0.000964516
0.000969238
0.000974262
0.000979584
0.000985198
0.000991103
0.000997296
0.00100378
0.00101054
0.00101759
0.00102493
0.00103256
0.00104047
0.00104866
0.00105715
0.00106592
0.00107497
0.00108431
0.00109394
0.00110386
0.00111406
0.00112455
0.00113532
0.00114638
0.00115772
0.00116936
0.00118127
0.00119347
0.00120595
0.00121872
0.00123176
0.00124508
0.00125869
0.00127256
0.00128671
0.00130114
0.00131583
0.00133078
0.001346
0.00136147
0.0013772
0.00139318
0.00140941
0.000933925
0.00093417
0.000934938
0.000936128
0.00093772
0.000939702
0.000942057
0.000944773
0.000947837
0.00095124
0.000954971
0.000959023
0.000963386
0.000968055
0.000973021
0.000978281
0.000983828
0.000989661
0.000995777
0.00100217
0.00100885
0.00101581
0.00102305
0.00103057
0.00103837
0.00104644
0.0010548
0.00106343
0.00107234
0.00108153
0.001091
0.00110075
0.00111077
0.00112106
0.00113163
0.00114248
0.0011536
0.00116499
0.00117665
0.00118858
0.00120078
0.00121325
0.00122598
0.00123897
0.00125223
0.00126574
0.0012795
0.00129351
0.00130778
0.00132228
0.00133703
0.001352
0.00136721
0.00138264
0.00139829
0.00093305
0.000933292
0.000934051
0.000935228
0.000936803
0.000938763
0.000941093
0.000943778
0.000946807
0.000950171
0.000953859
0.000957862
0.000962173
0.000966784
0.000971689
0.000976882
0.000982358
0.000988114
0.000994148
0.00100046
0.00100704
0.0010139
0.00102103
0.00102844
0.00103612
0.00104406
0.00105228
0.00106077
0.00106953
0.00107856
0.00108785
0.00109742
0.00110724
0.00111734
0.00112769
0.00113831
0.00114919
0.00116033
0.00117172
0.00118337
0.00119527
0.00120743
0.00121983
0.00123247
0.00124536
0.00125848
0.00127184
0.00128542
0.00129924
0.00131327
0.00132751
0.00134197
0.00135663
0.00137149
0.00138653
0.000932113
0.000932353
0.000933103
0.000934267
0.000935823
0.00093776
0.000940061
0.000942714
0.000945707
0.000949029
0.00095267
0.000956623
0.000960878
0.000965428
0.000970267
0.000975389
0.000980789
0.000986463
0.00099241
0.000998626
0.00100511
0.00101186
0.00101888
0.00102617
0.00103372
0.00104153
0.00104961
0.00105794
0.00106654
0.0010754
0.00108451
0.00109388
0.0011035
0.00111338
0.00112351
0.00113389
0.00114452
0.00115539
0.0011665
0.00117785
0.00118944
0.00120126
0.00121332
0.00122559
0.0012381
0.00125081
0.00126375
0.00127689
0.00129023
0.00130377
0.0013175
0.00133141
0.0013455
0.00135977
0.00137419
0.000931117
0.000931354
0.000932095
0.000933244
0.00093478
0.000936693
0.000938965
0.000941583
0.000944537
0.000947815
0.000951407
0.000955305
0.000959501
0.000963987
0.000968757
0.000973804
0.000979123
0.000984711
0.000990565
0.000996683
0.00100306
0.0010097
0.0010166
0.00102376
0.00103118
0.00103885
0.00104677
0.00105495
0.00106337
0.00107205
0.00108097
0.00109014
0.00109955
0.0011092
0.0011191
0.00112922
0.00113958
0.00115017
0.00116099
0.00117203
0.0011833
0.00119478
0.00120647
0.00121837
0.00123047
0.00124276
0.00125526
0.00126793
0.00128079
0.00129382
0.00130701
0.00132037
0.00133387
0.00134752
0.0013613
0.000930062
0.000930295
0.000931027
0.00093216
0.000933676
0.000935563
0.000937804
0.000940386
0.000943298
0.000946529
0.00095007
0.000953912
0.000958045
0.000962464
0.00096716
0.000972128
0.000977362
0.00098286
0.000988617
0.000994631
0.0010009
0.00100742
0.0010142
0.00102122
0.0010285
0.00103602
0.00104378
0.00105179
0.00106004
0.00106852
0.00107725
0.00108621
0.00109539
0.00110481
0.00111446
0.00112432
0.00113441
0.00114471
0.00115522
0.00116594
0.00117686
0.00118798
0.0011993
0.0012108
0.00122249
0.00123435
0.00124639
0.00125859
0.00127094
0.00128345
0.00129609
0.00130887
0.00132177
0.00133479
0.00134792
0.000928949
0.000929178
0.0009299
0.000931017
0.000932511
0.00093437
0.000936579
0.000939123
0.000941992
0.000945174
0.000948661
0.000952443
0.000956511
0.000960859
0.000965478
0.000970363
0.000975509
0.000980911
0.000986566
0.000992471
0.000998625
0.00100502
0.00101167
0.00101855
0.00102568
0.00103304
0.00104064
0.00104847
0.00105654
0.00106483
0.00107334
0.00108208
0.00109104
0.00110021
0.0011096
0.00111919
0.00112899
0.00113899
0.00114919
0.00115957
0.00117014
0.0011809
0.00119183
0.00120293
0.00121419
0.0012256
0.00123717
0.00124888
0.00126072
0.00127269
0.00128477
0.00129696
0.00130925
0.00132163
0.00133408
0.000927778
0.000928004
0.000928714
0.000929814
0.000931286
0.000933117
0.000935291
0.000937796
0.000940619
0.000943751
0.000947181
0.0009509
0.0009549
0.000959174
0.000963713
0.000968511
0.000973564
0.000978867
0.000984416
0.000990208
0.00099624
0.00100251
0.00100902
0.00101576
0.00102273
0.00102993
0.00103736
0.00104501
0.00105288
0.00106097
0.00106927
0.00107778
0.0010865
0.00109542
0.00110454
0.00111385
0.00112335
0.00113304
0.00114291
0.00115295
0.00116317
0.00117354
0.00118407
0.00119476
0.00120558
0.00121654
0.00122763
0.00123883
0.00125015
0.00126157
0.00127308
0.00128468
0.00129635
0.00130807
0.00131985
0.00092655
0.000926773
0.000927472
0.000928554
0.000930002
0.000931803
0.000933942
0.000936405
0.000939181
0.00094226
0.000945631
0.000949285
0.000953214
0.00095741
0.000961866
0.000966575
0.000971531
0.00097673
0.000982168
0.000987842
0.00099375
0.000999887
0.00100625
0.00101284
0.00101966
0.00102669
0.00103394
0.0010414
0.00104907
0.00105695
0.00106503
0.0010733
0.00108177
0.00109043
0.00109928
0.0011083
0.0011175
0.00112687
0.00113641
0.0011461
0.00115594
0.00116593
0.00117606
0.00118631
0.00119669
0.00120719
0.00121779
0.00122848
0.00123927
0.00125013
0.00126107
0.00127206
0.0012831
0.00129417
0.00130527
0.000925267
0.000925485
0.000926173
0.000927237
0.00092866
0.00093043
0.000932532
0.000934952
0.00093768
0.000940703
0.000944013
0.0009476
0.000951455
0.000955571
0.00095994
0.000964555
0.000969411
0.000974503
0.000979827
0.000985379
0.000991156
0.000997156
0.00100337
0.00100981
0.00101646
0.00102332
0.00103038
0.00103765
0.00104511
0.00105277
0.00106062
0.00106866
0.00107688
0.00108527
0.00109384
0.00110257
0.00111145
0.0011205
0.00112969
0.00113902
0.00114849
0.00115808
0.00116779
0.00117762
0.00118754
0.00119757
0.00120767
0.00121785
0.0012281
0.00123841
0.00124876
0.00125914
0.00126954
0.00127996
0.00129038
0.000923928
0.000924143
0.000924818
0.000925864
0.000927261
0.000928999
0.000931063
0.000933439
0.000936115
0.000939081
0.000942327
0.000945845
0.000949624
0.000953657
0.000957936
0.000962455
0.000967207
0.000972188
0.000977394
0.00098282
0.000988463
0.00099432
0.00100039
0.00100666
0.00101314
0.00101982
0.0010267
0.00103376
0.00104102
0.00104846
0.00105607
0.00106386
0.00107182
0.00107994
0.00108822
0.00109664
0.00110522
0.00111393
0.00112277
0.00113174
0.00114082
0.00115001
0.00115931
0.00116869
0.00117816
0.0011877
0.00119731
0.00120697
0.00121668
0.00122642
0.00123618
0.00124596
0.00125573
0.00126549
0.00127522
0.000922536
0.000922747
0.000923409
0.000924435
0.000925806
0.000927512
0.000929535
0.000931865
0.000934489
0.000937396
0.000940577
0.000944022
0.000947722
0.00095167
0.000955856
0.000960276
0.000964921
0.000969788
0.000974871
0.000980168
0.000985673
0.000991384
0.000997297
0.00100341
0.00100971
0.00101621
0.00102289
0.00102975
0.00103679
0.001044
0.00105138
0.00105891
0.00106661
0.00107445
0.00108243
0.00109055
0.0010988
0.00110718
0.00111566
0.00112426
0.00113295
0.00114174
0.00115061
0.00115955
0.00116856
0.00117762
0.00118673
0.00119587
0.00120503
0.00121421
0.00122338
0.00123255
0.00124169
0.00125079
0.00125985
0.000921091
0.000921298
0.000921947
0.000922953
0.000924297
0.000925968
0.000927951
0.000930233
0.000932803
0.000935649
0.000938762
0.000942133
0.000945752
0.000949612
0.000953703
0.00095802
0.000962556
0.000967305
0.000972263
0.000977426
0.00098279
0.000988351
0.000994104
0.00100005
0.00100617
0.00101248
0.00101896
0.00102562
0.00103244
0.00103941
0.00104655
0.00105383
0.00106125
0.00106881
0.00107649
0.0010843
0.00109222
0.00110025
0.00110838
0.00111661
0.00112491
0.00113329
0.00114173
0.00115023
0.00115877
0.00116735
0.00117595
0.00118457
0.00119319
0.0012018
0.00121039
0.00121895
0.00122746
0.00123592
0.0012443
0.000919594
0.000919797
0.000920433
0.000921417
0.000922733
0.000924369
0.00092631
0.000928544
0.000931058
0.000933841
0.000936885
0.00094018
0.000943716
0.000947485
0.000951479
0.00095569
0.000960113
0.000964742
0.000969572
0.000974598
0.000979817
0.000985224
0.000990815
0.000996585
0.00100253
0.00100865
0.00101493
0.00102137
0.00102796
0.0010347
0.00104159
0.00104861
0.00105575
0.00106302
0.00107041
0.0010779
0.00108549
0.00109318
0.00110095
0.00110879
0.0011167
0.00112466
0.00113268
0.00114073
0.00114881
0.0011569
0.001165
0.0011731
0.00118118
0.00118923
0.00119724
0.00120519
0.00121308
0.00122089
0.00122861
0.000918047
0.000918245
0.000918867
0.00091983
0.000921118
0.000922717
0.000924615
0.000926798
0.000929255
0.000931975
0.000934948
0.000938164
0.000941615
0.000945291
0.000949185
0.000953289
0.000957596
0.000962102
0.0009668
0.000971687
0.000976758
0.000982008
0.000987433
0.000993028
0.000998788
0.00100471
0.00101078
0.00101701
0.00102337
0.00102987
0.00103651
0.00104326
0.00105013
0.00105711
0.00106419
0.00107136
0.00107862
0.00108596
0.00109336
0.00110083
0.00110834
0.00111589
0.00112348
0.00113108
0.00113869
0.00114631
0.00115391
0.00116148
0.00116902
0.00117652
0.00118395
0.00119131
0.00119859
0.00120576
0.00121283
0.00091645
0.000916644
0.000917252
0.000918193
0.00091945
0.000921013
0.000922867
0.000924999
0.000927397
0.000930051
0.000932951
0.000936087
0.000939451
0.000943032
0.000946823
0.000950817
0.000955007
0.000959387
0.000963952
0.000968696
0.000973615
0.000978706
0.000983962
0.000989378
0.00099495
0.00100067
0.00100654
0.00101254
0.00101868
0.00102494
0.00103131
0.0010378
0.00104439
0.00105108
0.00105785
0.0010647
0.00107163
0.00107861
0.00108565
0.00109273
0.00109985
0.00110699
0.00111414
0.0011213
0.00112845
0.00113558
0.00114269
0.00114975
0.00115675
0.0011637
0.00117056
0.00117733
0.00118401
0.00119056
0.00119699
0.000914804
0.000914993
0.000915587
0.000916506
0.000917733
0.000919258
0.000921067
0.000923146
0.000925484
0.000928071
0.000930897
0.000933951
0.000937226
0.00094071
0.000944397
0.000948279
0.000952349
0.0009566
0.000961028
0.000965628
0.000970394
0.000975322
0.000980406
0.000985642
0.000991023
0.000996543
0.0010022
0.00100798
0.00101388
0.00101989
0.00102601
0.00103223
0.00103854
0.00104493
0.00105139
0.00105792
0.00106451
0.00107115
0.00107782
0.00108452
0.00109124
0.00109797
0.0011047
0.00111141
0.0011181
0.00112476
0.00113137
0.00113792
0.0011444
0.0011508
0.0011571
0.0011633
0.00116937
0.00117532
0.00118112
0.000913111
0.000913296
0.000913874
0.00091477
0.000915967
0.000917453
0.000919216
0.000921241
0.000923518
0.000926037
0.000928787
0.000931758
0.000934941
0.000938328
0.000941908
0.000945676
0.000949623
0.000953745
0.000958034
0.000962486
0.000967097
0.00097186
0.00097677
0.000981822
0.00098701
0.000992327
0.000997767
0.00100332
0.00100899
0.00101476
0.00102062
0.00102656
0.00103259
0.00103868
0.00104484
0.00105104
0.00105729
0.00106358
0.00106988
0.0010762
0.00108253
0.00108885
0.00109515
0.00110142
0.00110766
0.00111384
0.00111996
0.00112601
0.00113197
0.00113784
0.00114359
0.00114922
0.00115472
0.00116007
0.00116525
0.000911372
0.000911552
0.000912116
0.000912988
0.000914153
0.0009156
0.000917315
0.000919286
0.000921501
0.00092395
0.000926623
0.000929509
0.0009326
0.000935886
0.000939359
0.000943011
0.000946834
0.000950823
0.000954972
0.000959275
0.000963727
0.000968323
0.000973057
0.000977924
0.000982917
0.000988029
0.000993253
0.000998583
0.00100401
0.00100953
0.00101513
0.0010208
0.00102654
0.00103234
0.00103818
0.00104407
0.00104998
0.00105591
0.00106186
0.0010678
0.00107373
0.00107964
0.00108552
0.00109136
0.00109715
0.00110286
0.00110851
0.00111406
0.00111951
0.00112485
0.00113006
0.00113514
0.00114007
0.00114484
0.00114943
0.000909588
0.000909763
0.000910311
0.00091116
0.000912293
0.0009137
0.000915367
0.000917283
0.000919435
0.000921813
0.000924407
0.000927207
0.000930204
0.000933388
0.000936751
0.000940285
0.000943983
0.000947838
0.000951844
0.000955996
0.000960289
0.000964716
0.000969273
0.000973952
0.000978748
0.000983653
0.00098866
0.000993762
0.000998952
0.00100422
0.00100956
0.00101496
0.00102041
0.00102591
0.00103145
0.00103701
0.00104259
0.00104817
0.00105375
0.00105932
0.00106486
0.00107037
0.00107583
0.00108124
0.00108658
0.00109184
0.00109701
0.00110207
0.00110703
0.00111185
0.00111654
0.00112108
0.00112545
0.00112965
0.00113367
0.00090776
0.00090793
0.000908463
0.000909287
0.000910388
0.000911754
0.000913373
0.000915232
0.000917319
0.000919626
0.00092214
0.000924853
0.000927755
0.000930836
0.000934088
0.000937503
0.000941073
0.000944792
0.000948655
0.000952655
0.000956786
0.000961043
0.00096542
0.000969911
0.000974509
0.000979206
0.000983995
0.000988868
0.000993818
0.000998835
0.00100391
0.00100904
0.00101421
0.00101941
0.00102464
0.00102988
0.00103512
0.00104036
0.00104558
0.00105078
0.00105593
0.00106104
0.0010661
0.00107108
0.00107598
0.00108079
0.00108549
0.00109008
0.00109454
0.00109887
0.00110304
0.00110705
0.00111089
0.00111455
0.001118
0.00090589
0.000906055
0.000906572
0.000907371
0.000908439
0.000909764
0.000911333
0.000913135
0.000915158
0.000917391
0.000919825
0.000922449
0.000925254
0.000928231
0.000931371
0.000934665
0.000938107
0.00094169
0.000945407
0.000949253
0.000953222
0.000957308
0.000961504
0.000965805
0.000970204
0.000974692
0.000979262
0.000983906
0.000988616
0.000993383
0.000998199
0.00100305
0.00100794
0.00101285
0.00101776
0.00102268
0.0010276
0.00103249
0.00103736
0.00104218
0.00104696
0.00105168
0.00105632
0.00106089
0.00106536
0.00106972
0.00107397
0.0010781
0.00108208
0.00108592
0.00108959
0.00109309
0.00109641
0.00109954
0.00110246
0.000903979
0.000904138
0.000904639
0.000905414
0.000906448
0.000907731
0.000909251
0.000910994
0.000912951
0.00091511
0.000917462
0.000919997
0.000922705
0.000925576
0.000928602
0.000931775
0.000935087
0.000938532
0.000942103
0.000945794
0.000949599
0.000953513
0.000957529
0.000961639
0.000965838
0.000970117
0.000974467
0.000978882
0.000983352
0.000987869
0.000992424
0.000997007
0.00100161
0.00100622
0.00101083
0.00101544
0.00102002
0.00102457
0.00102909
0.00103355
0.00103795
0.00104228
0.00104653
0.00105068
0.00105473
0.00105867
0.00106247
0.00106614
0.00106966
0.00107302
0.00107621
0.00107922
0.00108203
0.00108465
0.00108705
0.000902027
0.000902181
0.000902666
0.000903416
0.000904416
0.000905657
0.000907126
0.00090881
0.000910701
0.000912785
0.000915055
0.000917499
0.000920108
0.000922873
0.000925785
0.000928836
0.000932017
0.000935323
0.000938746
0.000942282
0.000945923
0.000949664
0.000953497
0.000957417
0.000961416
0.000965485
0.000969616
0.000973802
0.000978033
0.0009823
0.000986595
0.000990908
0.000995229
0.000999549
0.00100386
0.00100815
0.00101241
0.00101662
0.00102079
0.00102489
0.00102893
0.00103288
0.00103673
0.00104048
0.00104412
0.00104763
0.001051
0.00105423
0.0010573
0.0010602
0.00106292
0.00106545
0.00106778
0.0010699
0.0010718
0.000910418
0.000912604
0.000914958
0.000917468
0.000920125
0.000922922
0.000925849
0.000928899
0.000932064
0.00093534
0.000938719
0.000942195
0.000945763
0.000949414
0.000953143
0.000956941
0.000960801
0.000964713
0.00096867
0.000972663
0.000976682
0.000980718
0.000984762
0.000988805