/*--------------------------------*- C++ -*----------------------------------*\
| =========                 |                                                 |
| \\      /  F ield         | OpenFOAM: The Open Source CFD Toolbox           |
|  \\    /   O peration     | Version:  2412                                  |
|   \\  /    A nd           | Website:  www.openfoam.com                      |
|    \\/     M anipulation  |                                                 |
\*---------------------------------------------------------------------------*/
FoamFile
{
    version     2.0;
    format      ascii;
    arch        "LSB;label=32;scalar=64";
    class       volScalarField;
    location    "20.5";
    object      p;
}
// * * * * * * * * * * * * * * * * * * * * * * * * * * * * * * * * * * * * * //

dimensions      [0 2 -2 0 0 0 0];

internalField   nonuniform List<scalar> 
63420
(
0.000937216
0.000937476
0.000938301
0.000939574
0.000941281
0.000943406
0.000945934
0.00094885
0.000952144
0.000955805
0.000959824
0.000964194
0.000968906
0.000973954
0.000979332
0.000985035
0.000991059
0.000997402
0.00100406
0.00101105
0.00101835
0.00102597
0.00103392
0.00104219
0.00105079
0.00105972
0.00106899
0.00107859
0.00108852
0.0010988
0.00110942
0.00112039
0.00113171
0.00114338
0.00115541
0.0011678
0.00118055
0.00119367
0.00120716
0.00122103
0.00123528
0.00124991
0.00126493
0.00128034
0.00129614
0.00131235
0.00132896
0.00134599
0.00136342
0.00138128
0.00139956
0.00141826
0.0014374
0.00145698
0.001477
0.000937156
0.000937416
0.00093824
0.000939513
0.000941218
0.000943342
0.000945868
0.000948782
0.000952074
0.000955732
0.000959748
0.000964114
0.000968823
0.000973866
0.00097924
0.000984938
0.000990957
0.000997295
0.00100395
0.00101093
0.00101822
0.00102584
0.00103378
0.00104204
0.00105064
0.00105956
0.00106881
0.0010784
0.00108833
0.00109859
0.0011092
0.00112015
0.00113146
0.00114311
0.00115513
0.0011675
0.00118023
0.00119333
0.00120681
0.00122065
0.00123488
0.00124948
0.00126448
0.00127986
0.00129564
0.00131181
0.00132839
0.00134538
0.00136278
0.0013806
0.00139883
0.0014175
0.00143659
0.00145612
0.00147608
0.000937037
0.000937296
0.000938119
0.00093939
0.000941093
0.000943214
0.000945736
0.000948646
0.000951932
0.000955585
0.000959595
0.000963954
0.000968656
0.000973691
0.000979056
0.000984745
0.000990754
0.000997081
0.00100373
0.00101069
0.00101797
0.00102557
0.0010335
0.00104175
0.00105032
0.00105922
0.00106846
0.00107803
0.00108793
0.00109817
0.00110875
0.00111968
0.00113096
0.00114258
0.00115456
0.0011669
0.0011796
0.00119266
0.00120609
0.0012199
0.00123407
0.00124863
0.00126357
0.0012789
0.00129462
0.00131074
0.00132725
0.00134417
0.0013615
0.00137924
0.00139739
0.00141597
0.00143497
0.0014544
0.00147426
0.000936858
0.000937116
0.000937938
0.000939206
0.000940905
0.000943022
0.000945538
0.000948442
0.000951721
0.000955365
0.000959366
0.000963715
0.000968405
0.000973429
0.000978781
0.000984455
0.000990449
0.00099676
0.00100339
0.00101033
0.00101759
0.00102517
0.00103308
0.0010413
0.00104985
0.00105872
0.00106793
0.00107747
0.00108734
0.00109754
0.00110809
0.00111898
0.00113021
0.00114179
0.00115372
0.00116601
0.00117865
0.00119166
0.00120503
0.00121877
0.00123288
0.00124736
0.00126223
0.00127747
0.00129311
0.00130913
0.00132555
0.00134237
0.00135958
0.00137721
0.00139524
0.00141369
0.00143255
0.00145183
0.00147153
0.000936619
0.000936877
0.000937696
0.000938961
0.000940655
0.000942765
0.000945275
0.00094817
0.000951439
0.000955073
0.000959061
0.000963397
0.000968072
0.00097308
0.000978414
0.00098407
0.000990043
0.000996333
0.00100294
0.00100986
0.00101709
0.00102464
0.00103252
0.00104071
0.00104922
0.00105806
0.00106723
0.00107672
0.00108655
0.0010967
0.0011072
0.00111803
0.00112921
0.00114073
0.0011526
0.00116482
0.00117739
0.00119032
0.00120361
0.00121726
0.00123128
0.00124567
0.00126043
0.00127557
0.00129109
0.001307
0.00132329
0.00133997
0.00135704
0.00137451
0.00139238
0.00141066
0.00142934
0.00144842
0.00146792
0.000936321
0.000936579
0.000937394
0.000938655
0.000940343
0.000942446
0.000944946
0.00094783
0.000951088
0.000954707
0.000958681
0.000963
0.000967656
0.000972644
0.000977956
0.000983589
0.000989537
0.0009958
0.00100238
0.00100926
0.00101647
0.00102398
0.00103182
0.00103997
0.00104844
0.00105723
0.00106635
0.00107579
0.00108556
0.00109566
0.00110609
0.00111686
0.00112797
0.00113941
0.0011512
0.00116334
0.00117582
0.00118865
0.00120184
0.00121539
0.0012293
0.00124357
0.0012582
0.00127321
0.00128859
0.00130434
0.00132047
0.00133698
0.00135388
0.00137116
0.00138883
0.00140689
0.00142535
0.0014442
0.00146344
0.000935964
0.000936221
0.000937033
0.000938288
0.000939969
0.000942063
0.000944552
0.000947424
0.000950666
0.00095427
0.000958225
0.000962523
0.000967158
0.000972122
0.000977408
0.000983013
0.000988931
0.000995161
0.0010017
0.00100855
0.00101572
0.00102319
0.00103098
0.00103908
0.0010475
0.00105624
0.0010653
0.00107468
0.00108438
0.00109441
0.00110477
0.00111546
0.00112648
0.00113784
0.00114953
0.00116157
0.00117394
0.00118667
0.00119973
0.00121315
0.00122693
0.00124106
0.00125554
0.00127039
0.0012856
0.00130117
0.00131712
0.00133343
0.00135011
0.00136717
0.00138461
0.00140242
0.0014206
0.00143917
0.0014581
0.00149752
0.00151876
0.00154092
0.00156404
0.00158817
0.00161339
0.00163975
0.00166733
0.0016962
0.00172645
0.00175816
0.00179144
0.00182638
0.0018631
0.00190172
0.00194238
0.00198523
0.00203042
0.00207814
0.00212857
0.00218192
0.00223843
0.00229834
0.00236195
0.00242956
0.0025015
0.00257815
0.00265993
0.00274729
0.00284074
0.00294082
0.00304816
0.00316343
0.00328733
0.00342066
0.00356424
0.00371891
0.00388546
0.00406459
0.00425675
0.00446194
0.00467943
0.00490746
0.00514297
0.00538196
0.00562033
0.00585425
0.00609003
0.00639351
0.00685527
0.00149658
0.00151783
0.00153998
0.00156309
0.00158723
0.00161244
0.0016388
0.00166638
0.00169524
0.00172549
0.00175719
0.00179046
0.00182539
0.0018621
0.0019007
0.00194135
0.00198417
0.00202933
0.00207701
0.00212739
0.00218069
0.00223712
0.00229695
0.00236045
0.00242792
0.0024997
0.00257614
0.00265767
0.00274471
0.00283776
0.00293735
0.00304407
0.00315854
0.00328144
0.00341349
0.00355542
0.00370795
0.00387174
0.00404728
0.00423475
0.0044338
0.00464326
0.00486077
0.00508258
0.00530381
0.00551944
0.00572511
0.00592628
0.00618456
0.00658359
0.0014947
0.00151595
0.00153809
0.0015612
0.00158533
0.00161054
0.00163689
0.00166446
0.00169332
0.00172355
0.00175525
0.00178849
0.0018234
0.00186009
0.00189866
0.00193927
0.00198204
0.00202715
0.00207475
0.00212504
0.00217822
0.00223452
0.00229418
0.00235747
0.00242467
0.00249612
0.00257217
0.00265319
0.00273961
0.00283188
0.00293049
0.00303598
0.00314889
0.00326981
0.00339933
0.00353801
0.00368633
0.00384466
0.00401307
0.0041912
0.00437799
0.00457133
0.00476771
0.0049619
0.00514726
0.00531691
0.00546563
0.00559739
0.00576121
0.00604734
0.00149189
0.00151313
0.00153527
0.00155837
0.00158249
0.00160768
0.00163402
0.00166158
0.00169042
0.00172063
0.0017523
0.00178553
0.0018204
0.00185704
0.00189557
0.00193611
0.00197881
0.00202382
0.0020713
0.00212145
0.00217445
0.00223053
0.00228992
0.00235288
0.00241968
0.00249062
0.00256604
0.00264629
0.00273176
0.00282283
0.00291996
0.00302357
0.00313412
0.00325204
0.00337774
0.00351152
0.00365353
0.00380368
0.00396143
0.00412563
0.00429414
0.00446347
0.00462832
0.00478133
0.00491319
0.00501412
0.00507755
0.00510863
0.00514099
0.00522816
0.00148817
0.0015094
0.00153153
0.00155462
0.00157873
0.00160391
0.00163024
0.00165779
0.00168661
0.00171681
0.00174846
0.00178165
0.00181649
0.00185309
0.00189156
0.00193203
0.00197464
0.00201953
0.00206687
0.00211684
0.00216963
0.00222543
0.00228447
0.002347
0.00241327
0.00248356
0.00255816
0.00263739
0.00272159
0.00281108
0.0029062
0.00300731
0.00311468
0.00322857
0.0033491
0.00347625
0.00360971
0.00374875
0.00389205
0.00403735
0.00418112
0.00431805
0.00444054
0.00453842
0.0045991
0.00460897
0.0045587
0.00445641
0.00432462
0.00410443
0.00148354
0.00150477
0.00152691
0.00155001
0.00157413
0.00159934
0.00162569
0.00165326
0.00168212
0.00171235
0.00174403
0.00177726
0.00181213
0.00184876
0.00188726
0.00192776
0.00197038
0.00201528
0.00206261
0.00211254
0.00216525
0.00222095
0.00227984
0.00234215
0.00240811
0.00247799
0.00255204
0.00263054
0.00271376
0.00280198
0.00289545
0.00299435
0.00309883
0.00320888
0.00332431
0.00344461
0.00356882
0.00369531
0.00382147
0.00394332
0.004055
0.00414817
0.00421146
0.00423022
0.0041868
0.00406244
0.00384329
0.00353833
0.0031619
0.0025268
0.00147799
0.00149916
0.00152124
0.00154429
0.00156836
0.00159352
0.00161983
0.00164735
0.00167616
0.00170634
0.00173798
0.00177115
0.00180598
0.00184255
0.00188099
0.00192141
0.00196396
0.00200876
0.00205598
0.00210579
0.00215834
0.00221385
0.00227249
0.0023345
0.00240008
0.00246947
0.00254291
0.00262064
0.00270287
0.0027898
0.00288161
0.00297836
0.00308001
0.00318632
0.00329674
0.00341028
0.00352522
0.00363886
0.003747
0.0038434
0.00391899
0.00396114
0.00395306
0.00387372
0.00369875
0.00340196
0.00296599
0.00240411
0.00168026
0.000503744
-0.00349664
-0.00356716
-0.00358664
-0.00356932
-0.00352749
-0.00346394
-0.0033802
-0.00327937
-0.00316294
-0.00303252
-0.00289025
-0.00273801
-0.00257701
-0.00241123
-0.00224179
-0.00207054
-0.00189936
-0.00172998
-0.00156401
-0.00140287
-0.0012478
-0.00109983
-0.000959834
-0.000828458
-0.000706166
-0.000593235
-0.000489779
-0.000395766
-0.00031103
-0.000235294
-0.000168184
-0.000109255
-5.80019e-05
-1.38834e-05
2.3668e-05
5.52291e-05
8.13751e-05
0.000102669
0.000119654
0.000132845
0.000142727
0.00014975
0.000154324
0.000156826
0.00015759
0.000156917
0.000155072
0.000152285
0.000148756
0.000144657
-0.00357617
-0.00362397
-0.00362984
-0.00360452
-0.00355744
-0.00349053
-0.00340468
-0.00330298
-0.00318586
-0.00305521
-0.00291321
-0.00276201
-0.00259835
-0.00243367
-0.00226437
-0.00209293
-0.00192142
-0.00175158
-0.00158503
-0.0014232
-0.00126735
-0.00111853
-0.000977622
-0.000845292
-0.000722025
-0.000608107
-0.000503669
-0.000408688
-0.000323009
-0.000246362
-0.00017838
-0.000118622
-6.6588e-05
-2.17358e-05
1.65004e-05
4.86978e-05
7.54325e-05
9.72693e-05
0.000114753
0.000128401
0.000138702
0.000146106
0.000151028
0.000153845
0.000154896
0.000154484
0.000152875
0.000150302
0.000146967
0.000143046
-0.0037344
-0.00373568
-0.00371466
-0.00367341
-0.00361554
-0.00354136
-0.0034503
-0.00334737
-0.00322935
-0.00309833
-0.0029564
-0.0028036
-0.00264329
-0.00247769
-0.00230801
-0.00213619
-0.00196407
-0.0017934
-0.00162579
-0.00146269
-0.00130538
-0.00115496
-0.00101231
-0.000878163
-0.000753017
-0.000637202
-0.000530864
-0.000434008
-0.000346498
-0.00026808
-0.000198401
-0.000137027
-8.34653e-05
-3.71783e-05
2.39841e-06
3.58424e-05
6.37316e-05
8.66335e-05
0.000105096
0.000119643
0.000130765
0.000138919
0.000144525
0.000147963
0.00014958
0.00014968
0.000148536
0.000146384
0.00014343
0.000139859
-0.00397719
-0.00389434
-0.00383815
-0.00377284
-0.0036987
-0.00361423
-0.00351809
-0.0034108
-0.00329052
-0.00315825
-0.00301642
-0.0028647
-0.00270509
-0.0025395
-0.00236971
-0.00219749
-0.00202465
-0.00185291
-0.00168388
-0.00151906
-0.00135976
-0.00120712
-0.00106206
-0.000925363
-0.000797579
-0.000679078
-0.00057005
-0.00047053
-0.000380413
-0.000299468
-0.000227361
-0.000163673
-0.00010792
-5.95721e-05
-1.80671e-05
1.71721e-05
4.67254e-05
7.1164e-05
9.10414e-05
0.000106886
0.000119196
0.000128435
0.000135029
0.000139368
0.000141802
0.000142644
0.000142173
0.000140632
0.00013823
0.000135167
-0.0042828
-0.00410092
-0.00399709
-0.00389739
-0.0038017
-0.00370325
-0.00360222
-0.00348729
-0.00336416
-0.00323145
-0.00308915
-0.00293786
-0.00277889
-0.00261379
-0.0024442
-0.00227183
-0.00209841
-0.00192566
-0.00175521
-0.00158856
-0.00142707
-0.00127192
-0.00112411
-0.000984441
-0.000853549
-0.000731854
-0.000619592
-0.000516846
-0.000423548
-0.000339499
-0.000264391
-0.000197826
-0.000139337
-8.84009e-05
-4.44636e-05
-6.95007e-06
2.47201e-05
5.11209e-05
7.28107e-05
9.03239e-05
0.000104166
0.000114807
0.000122682
0.000128189
0.000131685
0.000133493
0.000133896
0.000133147
0.000131465
0.000129062
-0.00460477
-0.00435551
-0.00419253
-0.00404994
-0.0039208
-0.00379773
-0.0036872
-0.00356624
-0.00343927
-0.00330496
-0.00316255
-0.00301226
-0.00285481
-0.00269132
-0.00252315
-0.00235185
-0.00217904
-0.00200636
-0.00183541
-0.00166771
-0.00150465
-0.00134744
-0.00119716
-0.00105468
-0.000920682
-0.000795668
-0.00067995
-0.000573661
-0.000476792
-0.000389192
-0.000310593
-0.000240631
-0.000178864
-0.000124791
-7.78715e-05
-3.75406e-05
-3.22341e-06
2.56524e-05
4.96458e-05
6.92945e-05
8.51084e-05
9.75648e-05
0.000107105
0.000114135
0.000119019
0.000122089
0.000123637
0.000123923
0.000123176
0.000121621
-0.00491377
-0.00467347
-0.00445448
-0.00425507
-0.00407634
-0.00394388
-0.00380236
-0.00366762
-0.00353346
-0.00339524
-0.00325137
-0.00310122
-0.0029448
-0.00278266
-0.00261581
-0.00244551
-0.0022732
-0.00210044
-0.00192876
-0.0017597
-0.00159465
-0.00143491
-0.00128162
-0.00113572
-0.00099799
-0.000869
-0.000749142
-0.000638634
-0.000537527
-0.000445727
-0.000363015
-0.000289066
-0.000223469
-0.000165747
-0.000115377
-7.18026e-05
-3.44551e-05
-2.76262e-06
2.38367e-05
4.58862e-05
6.3903e-05
7.83735e-05
8.97496e-05
9.84463e-05
0.000104841
0.000109275
0.000112053
0.000113442
0.000113687
0.00011301
0.000140126
0.000135186
0.000129935
0.000124476
0.000118883
0.000113216
0.000107533
0.000101881
9.63e-05
9.08222e-05
8.5475e-05
8.028e-05
7.52541e-05
7.041e-05
6.57571e-05
6.13013e-05
5.70461e-05
5.29927e-05
4.91403e-05
4.54867e-05
4.20286e-05
3.87616e-05
3.56804e-05
3.27796e-05
3.00532e-05
2.74951e-05
2.50992e-05
2.28592e-05
2.07691e-05
1.88228e-05
1.70144e-05
1.53378e-05
1.3787e-05
1.23558e-05
1.1038e-05
9.82741e-06
8.71777e-06
7.70288e-06
6.77665e-06
5.9332e-06
5.16686e-06
4.47221e-06
3.84405e-06
3.27785e-06
2.76821e-06
2.31171e-06
1.90415e-06
1.54143e-06
1.22004e-06
9.36621e-07
6.8798e-07
4.71142e-07
2.8332e-07
1.21883e-07
-1.56477e-08
-1.31557e-07
-2.27998e-07
-3.06979e-07
-3.70346e-07
-4.19852e-07
-4.57127e-07
-4.83648e-07
-5.00759e-07
-5.0967e-07
-5.1153e-07
-5.07387e-07
-4.98126e-07
-4.84569e-07
-4.6751e-07
-4.47632e-07
-4.25539e-07
-4.01805e-07
-3.76898e-07
-3.5126e-07
-3.25243e-07
-2.99173e-07
-2.73315e-07
-2.47849e-07
-2.22997e-07
-1.98976e-07
-1.75771e-07
-1.53753e-07
-1.32478e-07
-1.12918e-07
-9.3239e-08
-7.68678e-08
-5.76306e-08
-4.64027e-08
-2.44836e-08
-2.3375e-08
8.87268e-09
-1.08749e-08
4.77482e-08
-1.45775e-08
9.91246e-08
-4.14303e-08
1.70636e-07
-9.5511e-08
2.63617e-07
-1.70771e-07
3.6437e-07
-2.42234e-07
4.39913e-07
-2.67181e-07
4.471e-07
-2.07174e-07
3.64402e-07
-6.57327e-08
2.31679e-07
8.01097e-08
1.62046e-07
9.37877e-08
2.96415e-07
-1.54835e-07
7.20407e-07
0.000138703
0.000133871
0.000128719
0.000123364
0.000117868
0.000112292
0.000106693
0.000101118
9.56074e-05
9.01942e-05
8.49058e-05
7.97643e-05
7.4787e-05
6.99872e-05
6.53744e-05
6.09551e-05
5.6733e-05
5.27095e-05
4.88843e-05
4.52555e-05
4.18198e-05
3.85731e-05
3.55104e-05
3.26264e-05
2.99152e-05
2.7371e-05
2.49876e-05
2.27591e-05
2.06793e-05
1.87425e-05
1.69425e-05
1.52736e-05
1.37296e-05
1.23046e-05
1.09924e-05
9.78674e-06
8.68153e-06
7.67059e-06
6.74791e-06
5.90763e-06
5.14413e-06
4.45202e-06
3.82613e-06
3.26198e-06
2.75417e-06
2.29931e-06
1.89321e-06
1.53181e-06
1.2116e-06
9.29226e-07
6.81518e-07
4.6551e-07
2.78427e-07
1.17645e-07
-1.93097e-08
-1.34707e-07
-2.30699e-07
-3.0929e-07
-3.72311e-07
-4.21517e-07
-4.58532e-07
-4.84825e-07
-5.01739e-07
-5.1048e-07
-5.12192e-07
-5.07925e-07
-4.98556e-07
-4.84904e-07
-4.67771e-07
-4.47829e-07
-4.25684e-07
-4.0191e-07
-3.76967e-07
-3.51304e-07
-3.25264e-07
-2.99176e-07
-2.73307e-07
-2.47829e-07
-2.2297e-07
-1.98942e-07
-1.75732e-07
-1.5371e-07
-1.32434e-07
-1.12873e-07
-9.3196e-08
-7.6826e-08
-5.75966e-08
-4.63699e-08
-2.44593e-08
-2.3346e-08
8.88545e-09
-1.08484e-08
4.7748e-08
-1.45503e-08
9.91144e-08
-4.1397e-08
1.70616e-07
-9.54763e-08
2.63589e-07
-1.70737e-07
3.64348e-07
-2.42211e-07
4.39899e-07
-2.67179e-07
4.47095e-07
-2.07198e-07
3.64408e-07
-6.57607e-08
2.3167e-07
8.01092e-08
1.62021e-07
9.3794e-08
2.96462e-07
-1.54927e-07
7.20716e-07
0.000135873
0.000131257
0.000126306
0.000121155
0.000115854
0.000110458
0.000105024
9.9602e-05
9.42311e-05
8.89456e-05
8.37738e-05
7.87384e-05
7.38577e-05
6.91457e-05
6.46127e-05
6.02657e-05
5.61093e-05
5.21454e-05
4.83744e-05
4.47947e-05
4.14036e-05
3.81974e-05
3.51715e-05
3.23209e-05
2.96402e-05
2.71235e-05
2.47652e-05
2.25595e-05
2.05004e-05
1.85822e-05
1.67992e-05
1.51454e-05
1.36152e-05
1.22025e-05
1.09013e-05
9.70555e-06
8.60918e-06
7.60615e-06
6.69053e-06
5.85658e-06
5.09874e-06
4.41171e-06
3.79038e-06
3.2303e-06
2.72616e-06
2.27457e-06
1.87141e-06
1.51262e-06
1.19475e-06
9.14465e-07
6.68625e-07
4.54283e-07
2.68675e-07
1.09196e-07
-2.65991e-08
-1.40979e-07
-2.36079e-07
-3.13887e-07
-3.7623e-07
-4.24844e-07
-4.61337e-07
-4.87173e-07
-5.03687e-07
-5.1209e-07
-5.13513e-07
-5.08985e-07
-4.99396e-07
-4.85569e-07
-4.68283e-07
-4.48214e-07
-4.2597e-07
-4.0211e-07
-3.77104e-07
-3.51385e-07
-3.25302e-07
-2.99178e-07
-2.73272e-07
-2.47782e-07
-2.22907e-07
-1.98865e-07
-1.75647e-07
-1.53618e-07
-1.32331e-07
-1.1277e-07
-9.30953e-08
-7.67317e-08
-5.75157e-08
-4.62969e-08
-2.44058e-08
-2.32763e-08
8.92908e-09
-1.07967e-08
4.77482e-08
-1.45007e-08
9.91018e-08
-4.13325e-08
1.70578e-07
-9.54108e-08
2.63526e-07
-1.7067e-07
3.64304e-07
-2.42152e-07
4.39878e-07
-2.67182e-07
4.471e-07
-2.07244e-07
3.6443e-07
-6.58214e-08
2.31681e-07
8.00813e-08
1.62006e-07
9.37757e-08
2.96594e-07
-1.55143e-07
7.21331e-07
0.000131669
0.000127377
0.000122731
0.000117884
0.000112869
0.000107738
0.00010255
9.73525e-05
9.2188e-05
8.70913e-05
8.20916e-05
7.72133e-05
7.24755e-05
6.78936e-05
6.34787e-05
5.92392e-05
5.51803e-05
5.1305e-05
4.76144e-05
4.41078e-05
4.0783e-05
3.7637e-05
3.4666e-05
3.18652e-05
2.92297e-05
2.67542e-05
2.44333e-05
2.22614e-05
2.02331e-05
1.83428e-05
1.65849e-05
1.4954e-05
1.34442e-05
1.20498e-05
1.07651e-05
9.58413e-06
8.50095e-06
7.50974e-06
6.60469e-06
5.7802e-06
5.03083e-06
4.3514e-06
3.73689e-06
3.18292e-06
2.68425e-06
2.23756e-06
1.83878e-06
1.48393e-06
1.16956e-06
8.92403e-07
6.49352e-07
4.37496e-07
2.54094e-07
9.65642e-08
-3.75045e-08
-1.50366e-07
-2.44131e-07
-3.20766e-07
-3.82086e-07
-4.29809e-07
-4.65521e-07
-4.90674e-07
-5.06595e-07
-5.14491e-07
-5.15477e-07
-5.10567e-07
-5.00655e-07
-4.86561e-07
-4.69048e-07
-4.48789e-07
-4.26391e-07
-4.02403e-07
-3.77297e-07
-3.51494e-07
-3.25344e-07
-2.99166e-07
-2.73212e-07
-2.47696e-07
-2.22799e-07
-1.9874e-07
-1.75509e-07
-1.53472e-07
-1.32175e-07
-1.12614e-07
-9.29456e-08
-7.65888e-08
-5.73909e-08
-4.61786e-08
-2.43148e-08
-2.31666e-08
8.99788e-09
-1.07054e-08
4.77648e-08
-1.44105e-08
9.909e-08
-4.12263e-08
1.70529e-07
-9.53028e-08
2.63446e-07
-1.70566e-07
3.64243e-07
-2.42076e-07
4.39854e-07
-2.67187e-07
4.47117e-07
-2.07313e-07
3.64471e-07
-6.5911e-08
2.31702e-07
8.00419e-08
1.61985e-07
9.37493e-08
2.96793e-07
-1.55465e-07
7.22249e-07
0.000126145
0.000122282
0.000118046
0.000113599
0.000108958
0.000104173
9.93027e-05
9.43987e-05
8.95031e-05
8.46526e-05
7.98779e-05
7.52048e-05
7.06542e-05
6.62426e-05
6.19828e-05
5.78843e-05
5.39536e-05
5.01949e-05
4.66102e-05
4.31997e-05
3.99624e-05
3.68959e-05
3.39971e-05
3.1262e-05
2.86862e-05
2.62651e-05
2.39935e-05
2.18665e-05
1.98789e-05
1.80254e-05
1.63009e-05
1.47e-05
1.32173e-05
1.18472e-05
1.05843e-05
9.42291e-06
8.35724e-06
7.38169e-06
6.49067e-06
5.67873e-06
4.94062e-06
4.27127e-06
3.6658e-06
3.11994e-06
2.62856e-06
2.18838e-06
1.79543e-06
1.44579e-06
1.13608e-06
8.63081e-07
6.23736e-07
4.15182e-07
2.3471e-07
7.97759e-08
-5.1997e-08
-1.62841e-07
-2.54832e-07
-3.29908e-07
-3.89867e-07
-4.36401e-07
-4.71073e-07
-4.9532e-07
-5.10456e-07
-5.17677e-07
-5.18081e-07
-5.12668e-07
-5.02329e-07
-4.87877e-07
-4.70062e-07
-4.49551e-07
-4.26945e-07
-4.02787e-07
-3.77544e-07
-3.51628e-07
-3.2539e-07
-2.99138e-07
-2.73127e-07
-2.47573e-07
-2.22646e-07
-1.98564e-07
-1.75319e-07
-1.53271e-07
-1.31968e-07
-1.12407e-07
-9.2747e-08
-7.63972e-08
-5.72216e-08
-4.60154e-08
-2.41857e-08
-2.30177e-08
9.09362e-09
-1.05763e-08
4.78005e-08
-1.4284e-08
9.90851e-08
-4.10864e-08
1.70478e-07
-9.51654e-08
2.63364e-07
-1.70447e-07
3.64186e-07
-2.42005e-07
4.3985e-07
-2.67219e-07
4.47168e-07
-2.07426e-07
3.64548e-07
-6.60396e-08
2.31739e-07
7.99878e-08
1.61963e-07
9.37104e-08
2.97066e-07
-1.55907e-07
7.23477e-07
0.000119368
0.000116046
0.000112323
0.000108364
0.000104176
9.98098e-05
9.53261e-05
9.07777e-05
8.62086e-05
8.16573e-05
7.71565e-05
7.27337e-05
6.84115e-05
6.42083e-05
6.01384e-05
5.62127e-05
5.24394e-05
4.88238e-05
4.53692e-05
4.20771e-05
3.89475e-05
3.5979e-05
3.31692e-05
3.05152e-05
2.80132e-05
2.56591e-05
2.34485e-05
2.13769e-05
1.94395e-05
1.76316e-05
1.59483e-05
1.43846e-05
1.29354e-05
1.15955e-05
1.03597e-05
9.22247e-06
8.17852e-06
7.22241e-06
6.34881e-06
5.55248e-06
4.82836e-06
4.17155e-06
3.57734e-06
3.04157e-06
2.55926e-06
2.12717e-06
1.74147e-06
1.39832e-06
1.09441e-06
8.26587e-07
5.91856e-07
3.87404e-07
2.10572e-07
5.88699e-08
-7.0046e-08
-1.78374e-07
-2.68154e-07
-3.4129e-07
-3.99555e-07
-4.44605e-07
-4.77982e-07
-5.01101e-07
-5.1526e-07
-5.21639e-07
-5.21318e-07
-5.1528e-07
-5.04412e-07
-4.89513e-07
-4.7132e-07
-4.50495e-07
-4.2763e-07
-4.03259e-07
-3.77844e-07
-3.51789e-07
-3.25437e-07
-2.99097e-07
-2.73014e-07
-2.47412e-07
-2.22448e-07
-1.98339e-07
-1.75076e-07
-1.53017e-07
-1.31708e-07
-1.12148e-07
-9.24992e-08
-7.61571e-08
-5.7008e-08
-4.58068e-08
-2.40189e-08
-2.28285e-08
9.21529e-09
-1.04076e-08
4.78523e-08
-1.41172e-08
9.9081e-08
-4.09046e-08
1.70415e-07
-9.4985e-08
2.63264e-07
-1.7029e-07
3.64111e-07
-2.41914e-07
4.39838e-07
-2.67251e-07
4.47228e-07
-2.07559e-07
3.64641e-07
-6.6194e-08
2.31785e-07
7.99204e-08
1.61941e-07
9.36564e-08
2.9741e-07
-1.56455e-07
7.24976e-07
0.00011143
0.000108759
0.000105652
0.000102256
9.85904e-05
9.47071e-05
9.06697e-05
8.65323e-05
8.23414e-05
7.81372e-05
7.39548e-05
6.98235e-05
6.57679e-05
6.18082e-05
5.79605e-05
5.42375e-05
5.06488e-05
4.72015e-05
4.39001e-05
4.07475e-05
3.77448e-05
3.48918e-05
3.21873e-05
2.9629e-05
2.72141e-05
2.49393e-05
2.28009e-05
2.07949e-05
1.89171e-05
1.71631e-05
1.55286e-05
1.4009e-05
1.25996e-05
1.12955e-05
1.00918e-05
8.98343e-06
7.96533e-06
7.03239e-06
6.17953e-06
5.40181e-06
4.69436e-06
4.05252e-06
3.47172e-06
2.94799e-06
2.4765e-06
2.05408e-06
1.67704e-06
1.34164e-06
1.04465e-06
7.83011e-07
5.53792e-07
3.54236e-07
1.81749e-07
3.38988e-08
-9.16127e-08
-1.96936e-07
-2.84071e-07
-3.5489e-07
-4.11128e-07
-4.54404e-07
-4.86234e-07
-5.08007e-07
-5.20998e-07
-5.2637e-07
-5.25182e-07
-5.18399e-07
-5.06898e-07
-4.91464e-07
-4.72822e-07
-4.51621e-07
-4.28446e-07
-4.0382e-07
-3.78198e-07
-3.51975e-07
-3.25488e-07
-2.9904e-07
-2.72875e-07
-2.47213e-07
-2.22206e-07
-1.98064e-07
-1.74782e-07
-1.5271e-07
-1.31397e-07
-1.11836e-07
-9.2203e-08
-7.58671e-08
-5.67526e-08
-4.55492e-08
-2.38208e-08
-2.25893e-08
9.34756e-09
-1.01766e-08
4.78859e-08
-1.38615e-08
9.901e-08
-4.05894e-08
1.7022e-07
-9.46081e-08
2.62956e-07
-1.69872e-07
3.63761e-07
-2.41522e-07
4.39527e-07
-2.66994e-07
4.47027e-07
-2.0748e-07
3.6457e-07
-6.6251e-08
2.31773e-07
7.98626e-08
1.61918e-07
9.36013e-08
2.97757e-07
-1.56952e-07
7.26497e-07
0.000102172
0.000100307
9.79424e-05
9.5193e-05
9.21199e-05
8.8787e-05
8.52589e-05
8.15917e-05
7.78342e-05
7.40292e-05
7.02135e-05
6.64189e-05
6.26718e-05
5.89945e-05
5.5405e-05
5.19178e-05
4.85444e-05
4.52934e-05
4.2171e-05
3.91816e-05
3.63276e-05
3.36101e-05
3.10289e-05
2.85831e-05
2.62706e-05
2.40891e-05
2.20355e-05
2.01066e-05
1.82989e-05
1.66086e-05
1.50317e-05
1.35641e-05
1.22016e-05
1.09397e-05
9.77399e-06
8.69975e-06
7.71225e-06
6.80674e-06
5.97849e-06
5.22282e-06
4.53516e-06
3.91107e-06
3.34622e-06
2.83678e-06
2.37812e-06
1.9672e-06
1.60044e-06
1.27424e-06
9.85487e-07
7.31194e-07
5.08524e-07
3.14791e-07
1.47474e-07
4.20093e-09
-1.17266e-07
-2.19018e-07
-3.03011e-07
-3.71073e-07
-4.24897e-07
-4.66063e-07
-4.96052e-07
-5.16223e-07
-5.27824e-07
-5.31997e-07
-5.29778e-07
-5.22112e-07
-5.09857e-07
-4.93788e-07
-4.7461e-07
-4.52961e-07
-4.29417e-07
-4.04487e-07
-3.78617e-07
-3.52193e-07
-3.25546e-07
-2.98971e-07
-2.72706e-07
-2.46973e-07
-2.21914e-07
-1.97734e-07
-1.74429e-07
-1.52342e-07
-1.31027e-07
-1.11465e-07
-9.18518e-08
-7.55189e-08
-5.64515e-08
-4.52332e-08
-2.35927e-08
-2.22847e-08
9.47932e-09
-9.85597e-09
4.78698e-08
-1.34645e-08
9.88055e-08
-4.00451e-08
1.69772e-07
-9.38782e-08
2.62251e-07
-1.68967e-07
3.62883e-07
-2.4055e-07
4.38628e-07
-2.66166e-07
4.46305e-07
-2.06971e-07
3.64166e-07
-6.61043e-08
2.31649e-07
7.98198e-08
1.61905e-07
9.35414e-08
2.98064e-07
-1.57272e-07
7.27872e-07
9.18986e-05
9.08581e-05
8.92638e-05
8.72179e-05
8.47982e-05
8.20745e-05
7.91122e-05
7.59692e-05
7.26967e-05
6.93394e-05
6.59364e-05
6.25214e-05
5.91231e-05
5.57657e-05
5.24693e-05
4.92503e-05
4.61222e-05
4.30953e-05
4.01776e-05
3.73749e-05
3.46913e-05
3.21292e-05
2.96898e-05
2.73732e-05
2.51786e-05
2.31044e-05
2.11486e-05
1.93086e-05
1.75818e-05
1.59648e-05
1.44543e-05
1.30469e-05
1.17386e-05
1.05257e-05
9.40398e-06
8.36929e-06
7.41731e-06
6.54369e-06
5.74405e-06
5.01407e-06
4.34946e-06
3.74607e-06
3.19979e-06
2.70701e-06
2.2633e-06
1.86579e-06
1.51105e-06
1.19559e-06
9.1644e-07
6.70716e-07
4.55681e-07
2.68742e-07
1.0746e-07
-3.04673e-08
-1.47209e-07
-2.44792e-07
-3.25119e-07
-3.89961e-07
-4.40962e-07
-4.79661e-07
-5.075e-07
-5.25801e-07
-5.35781e-07
-5.38555e-07
-5.35131e-07
-5.26434e-07
-5.13302e-07
-4.9649e-07
-4.76687e-07
-4.54517e-07
-4.3054e-07
-4.05255e-07
-3.79095e-07
-3.52435e-07
-3.25599e-07
-2.98877e-07
-2.72499e-07
-2.46682e-07
-2.21562e-07
-1.9734e-07
-1.74008e-07
-1.51906e-07
-1.30589e-07
-1.11029e-07
-9.14352e-08
-7.51119e-08
-5.60885e-08
-4.48699e-08
-2.33029e-08
-2.19523e-08
9.67955e-09
-9.53881e-09
4.79485e-08
-1.31236e-08
9.87473e-08
-3.96417e-08
1.69557e-07
-9.34058e-08
2.61899e-07
-1.68456e-07
3.62478e-07
-2.4009e-07
4.38279e-07
-2.65889e-07
4.4611e-07
-2.06939e-07
3.64151e-07
-6.62676e-08
2.31731e-07
7.96227e-08
1.62014e-07
9.33006e-08
2.98713e-07
-1.58139e-07
7.3017e-07
8.09474e-05
8.0727e-05
7.99131e-05
7.85997e-05
7.68669e-05
7.47864e-05
7.24243e-05
6.98399e-05
6.70859e-05
6.4209e-05
6.12501e-05
5.82448e-05
5.52238e-05
5.22134e-05
4.92356e-05
4.6309e-05
4.34485e-05
4.06667e-05
3.79731e-05
3.53753e-05
3.28789e-05
3.04878e-05
2.82045e-05
2.60303e-05
2.39657e-05
2.201e-05
2.01622e-05
1.84206e-05
1.67831e-05
1.52473e-05
1.38105e-05
1.24698e-05
1.12217e-05
1.00632e-05
8.9904e-06
7.99976e-06
7.08736e-06
6.24931e-06
5.48162e-06
4.78034e-06
4.1415e-06
3.56125e-06
3.03575e-06
2.56163e-06
2.13466e-06
1.75216e-06
1.41087e-06
1.10745e-06
8.39059e-07
6.02935e-07
3.96452e-07
2.17123e-07
6.25996e-08
-6.93382e-08
-1.8078e-07
-2.73689e-07
-3.49906e-07
-4.11135e-07
-4.58969e-07
-4.94901e-07
-5.20325e-07
-5.36528e-07
-5.44691e-07
-5.45897e-07
-5.41123e-07
-5.3127e-07
-5.17154e-07
-4.9951e-07
-4.79006e-07
-4.5625e-07
-4.31788e-07
-4.06103e-07
-3.79617e-07
-3.52692e-07
-3.25646e-07
-2.98759e-07
-2.72255e-07
-2.46343e-07
-2.21156e-07
-1.96887e-07
-1.73528e-07
-1.5141e-07
-1.30091e-07
-1.10534e-07
-9.09618e-08
-7.46527e-08
-5.56725e-08
-4.44625e-08
-2.29631e-08
-2.15889e-08
9.92974e-09
-9.20848e-09
4.80872e-08
-1.27979e-08
9.87703e-08
-3.92966e-08
1.69463e-07
-9.30493e-08
2.61721e-07
-1.68128e-07
3.62304e-07
-2.39875e-07
4.38201e-07
-2.65887e-07
4.46184e-07
-2.07164e-07
3.64358e-07
-6.66288e-08
2.31966e-07
7.92807e-08
1.62259e-07
9.28798e-08
2.9964e-07
-1.59393e-07
7.33132e-07
6.94213e-05
7.00267e-05
7.00049e-05
6.94428e-05
6.84191e-05
6.70056e-05
6.52688e-05
6.32687e-05
6.10592e-05
5.86884e-05
5.61989e-05
5.3628e-05
5.10082e-05
4.83677e-05
4.57304e-05
4.31167e-05
4.05436e-05
3.80252e-05
3.55731e-05
3.31964e-05
3.09023e-05
2.86962e-05
2.6582e-05
2.45623e-05
2.26387e-05
2.08119e-05
1.90815e-05
1.74469e-05
1.59069e-05
1.44597e-05
1.31032e-05
1.18352e-05
1.06531e-05
9.55397e-06
8.53484e-06
7.5925e-06
6.72358e-06
5.92462e-06
5.19208e-06
4.52238e-06
3.91194e-06
3.3572e-06
2.85462e-06
2.40108e-06
1.99257e-06
1.62664e-06
1.3002e-06
1.01007e-06
7.53558e-07
5.28039e-07
3.31005e-07
1.60083e-07
1.3023e-08
-1.12299e-07
-2.17889e-07
-3.05635e-07
-3.77303e-07
-4.34536e-07
-4.78871e-07
-5.11743e-07
-5.34496e-07
-5.48378e-07
-5.54533e-07
-5.54004e-07
-5.47737e-07
-5.36606e-07
-5.21401e-07
-5.02837e-07
-4.81558e-07
-4.58155e-07
-4.33156e-07
-4.07028e-07
-3.80179e-07
-3.52962e-07
-3.25683e-07
-2.98614e-07
-2.71972e-07
-2.45957e-07
-2.20695e-07
-1.96377e-07
-1.72988e-07
-1.50854e-07
-1.29534e-07
-1.09982e-07
-9.04325e-08
-7.41397e-08
-5.52058e-08
-4.4007e-08
-2.25801e-08
-2.11843e-08
1.02144e-08
-8.84128e-09
4.82511e-08
-1.24377e-08
9.88049e-08
-3.89159e-08
1.69364e-07
-9.26516e-08
2.61523e-07
-1.67755e-07
3.62099e-07
-2.3962e-07
4.38093e-07
-2.65865e-07
4.46253e-07
-2.07409e-07
3.64599e-07
-6.70613e-08
2.32283e-07
7.88165e-08
1.62639e-07
9.22917e-08
3.00775e-07
-1.60874e-07
7.36499e-07
5.74363e-05
5.88732e-05
5.96498e-05
5.98486e-05
5.95464e-05
5.88146e-05
5.77195e-05
5.63215e-05
5.46752e-05
5.28297e-05
5.0829e-05
4.87117e-05
4.65122e-05
4.42601e-05
4.19813e-05
3.9698e-05
3.74288e-05
3.51899e-05
3.29942e-05
3.08527e-05
2.87742e-05
2.67656e-05
2.48321e-05
2.29778e-05
2.12054e-05
1.95166e-05
1.79123e-05
1.63927e-05
1.49574e-05
1.36055e-05
1.23356e-05
1.11461e-05
1.0035e-05
9.0002e-06
8.03911e-06
7.14909e-06
6.32731e-06
5.5708e-06
4.87645e-06
4.2411e-06
3.66156e-06
3.13459e-06
2.65699e-06
2.22587e-06
1.83749e-06
1.48964e-06
1.17938e-06
9.03746e-07
6.60195e-07
4.46247e-07
2.5953e-07
9.77868e-08
-4.11225e-08
-1.59222e-07
-2.58424e-07
-3.40531e-07
-4.07229e-07
-4.60094e-07
-5.00603e-07
-5.30132e-07
-5.49967e-07
-5.61313e-07
-5.65272e-07
-5.62846e-07
-5.54948e-07
-5.42421e-07
-5.26027e-07
-5.06457e-07
-4.84332e-07
-4.60221e-07
-4.34634e-07
-4.08023e-07
-3.80778e-07
-3.53241e-07
-3.25709e-07
-2.98442e-07
-2.71648e-07
-2.45521e-07
-2.20179e-07
-1.95807e-07
-1.72387e-07
-1.50237e-07
-1.28917e-07
-1.09371e-07
-8.98466e-08
-7.35725e-08
-5.46883e-08
-4.35031e-08
-2.2154e-08
-2.07377e-08
1.05324e-08
-8.43525e-09
4.84373e-08
-1.2039e-08
9.88455e-08