/*--------------------------------*- C++ -*----------------------------------*\
| =========                 |                                                 |
| \\      /  F ield         | OpenFOAM: The Open Source CFD Toolbox           |
|  \\    /   O peration     | Version:  2412                                  |
|   \\  /    A nd           | Website:  www.openfoam.com                      |
|    \\/     M anipulation  |                                                 |
\*---------------------------------------------------------------------------*/
FoamFile
{
    version     2.0;
    format      ascii;
    arch        "LSB;label=32;scalar=64";
    class       surfaceScalarField;
    location    "20.5";
    object      phi;
}
// * * * * * * * * * * * * * * * * * * * * * * * * * * * * * * * * * * * * * //

dimensions      [0 3 -1 0 0 0 0];

oriented        oriented;

internalField   nonuniform List<scalar> 
126304
(
0.00505063
1.28847e-07
-6.16895e-12
0.00505025
3.76017e-07
-7.66171e-12
0.00504964
6.10369e-07
-1.33021e-13
0.00504881
8.32263e-07
1.84473e-11
0.00504777
1.04211e-06
4.89311e-11
0.00504652
1.24573e-06
8.33741e-11
0.00504506
1.46008e-06
9.5735e-11
0.00504335
1.71242e-06
4.23806e-11
0.00504132
2.03038e-06
-1.20753e-10
0.00503889
2.4278e-06
-4.13257e-10
0.005036
2.89463e-06
-8.11373e-10
0.0050326
3.39672e-06
-1.24565e-09
0.00502872
3.8855e-06
-1.61848e-09
0.00502441
4.31227e-06
-1.83338e-09
0.00501977
4.64118e-06
-1.82248e-09
0.00501491
4.85627e-06
-1.56143e-09
0.00500995
4.96175e-06
-1.07061e-09
0.00500498
4.9772e-06
-4.04861e-10
0.00500005
4.93036e-06
3.63221e-10
0.00499519
4.85026e-06
1.15976e-09
0.00499043
4.76221e-06
1.92176e-09
0.00498574
4.68512e-06
2.60394e-09
0.00498111
4.63093e-06
3.18027e-09
0.0049765
4.60543e-06
3.64161e-09
0.00497189
4.60973e-06
3.99135e-09
0.00496724
4.64195e-06
4.24096e-09
0.00496254
4.6986e-06
4.40595e-09
0.00495776
4.77566e-06
4.5029e-09
0.00495288
4.86925e-06
4.54735e-09
0.0049479
4.97601e-06
4.55261e-09
0.0049428
5.09323e-06
4.52934e-09
0.00493758
5.21888e-06
4.4857e-09
0.00493222
5.35149e-06
4.42775e-09
0.00492673
5.49004e-06
4.35976e-09
0.00492109
5.63388e-06
4.28452e-09
0.00491531
5.78262e-06
4.20385e-09
0.00490937
5.93602e-06
4.11898e-09
0.00490327
6.09399e-06
4.03076e-09
0.00489701
6.25646e-06
3.93961e-09
0.00489058
6.42345e-06
3.84572e-09
0.00488398
6.59499e-06
3.74924e-09
0.00487721
6.7711e-06
3.65032e-09
0.00487025
6.95182e-06
3.54902e-09
0.00486311
7.1372e-06
3.44556e-09
0.00485578
7.32728e-06
3.34007e-09
0.00484825
7.5221e-06
3.2327e-09
0.00484053
7.72171e-06
3.12345e-09
0.0048326
7.92615e-06
3.01245e-09
0.00482446
8.13549e-06
2.89999e-09
0.00481611
8.34981e-06
2.78636e-09
0.00480754
8.56925e-06
2.67166e-09
0.00479874
8.79412e-06
2.55619e-09
0.00478971
9.02523e-06
2.44021e-09
0.00478045
9.2649e-06
2.3239e-09
9.5198e-06
0.00477092
2.20702e-09
0.00505063
2.57602e-07
0.00505025
7.51755e-07
0.00504964
1.2203e-06
0.00504881
1.66396e-06
0.00504777
2.08357e-06
0.00504652
2.49068e-06
0.00504507
2.91901e-06
0.00504336
3.42286e-06
0.00504133
4.05729e-06
0.00503891
4.85001e-06
0.00503602
5.7812e-06
0.00503263
6.78306e-06
0.00502876
7.75891e-06
0.00502446
8.61179e-06
0.00501983
9.2701e-06
0.00501499
9.70183e-06
0.00501003
9.91514e-06
0.00500506
9.94877e-06
0.00500013
9.85784e-06
0.00499528
9.70012e-06
0.00499052
9.52603e-06
0.00498583
9.37329e-06
0.0049812
9.26579e-06
0.00497659
9.21514e-06
0.00497197
9.2237e-06
0.00496733
9.28779e-06
0.00496263
9.40052e-06
0.00495785
9.55392e-06
0.00495298
9.74031e-06
0.004948
9.95301e-06
0.00494291
1.01866e-05
0.00493769
1.04371e-05
0.00493234
1.07015e-05
0.00492685
1.09779e-05
0.00492122
1.12648e-05
0.00491544
1.15615e-05
0.00490951
1.18676e-05
0.00490342
1.21827e-05
0.00489717
1.25069e-05
0.00489075
1.28401e-05
0.00488416
1.31823e-05
0.0048774
1.35337e-05
0.00487046
1.38942e-05
0.00486333
1.42641e-05
0.00485602
1.46432e-05
0.00484851
1.50318e-05
0.0048408
1.543e-05
0.00483289
1.58377e-05
0.00482477
1.62551e-05
0.00481644
1.66825e-05
0.00480788
1.71199e-05
0.00479911
1.75681e-05
0.00479011
1.80286e-05
0.00478087
1.85059e-05
1.90127e-05
0.00477137
0.00505063
3.86187e-07
0.00505025
1.12695e-06
0.00504964
1.82937e-06
0.00504881
2.49449e-06
0.00504777
3.1236e-06
0.00504653
3.73386e-06
0.00504507
4.37547e-06
0.00504337
5.12929e-06
0.00504135
6.07759e-06
0.00503894
7.26202e-06
0.00503606
8.6535e-06
0.00503269
1.01514e-05
0.00502884
1.16117e-05
0.00502456
1.28898e-05
0.00501996
1.38784e-05
0.00501513
1.45293e-05
0.00501019
1.48541e-05
0.00500523
1.49099e-05
0.00500031
1.47788e-05
0.00499546
1.45468e-05
0.0049907
1.42891e-05
0.00498601
1.40622e-05
0.00498137
1.39019e-05
0.00497676
1.3826e-05
0.00497215
1.3838e-05
0.0049675
1.39328e-05
0.0049628
1.41001e-05
0.00495803
1.43283e-05
0.00495316
1.46058e-05
0.00494819
1.49228e-05
0.00494311
1.52713e-05
0.0049379
1.56451e-05
0.00493256
1.60399e-05
0.00492709
1.64525e-05
0.00492147
1.68812e-05
0.00491571
1.73245e-05
0.00490979
1.77819e-05
0.00490372
1.82529e-05
0.00489749
1.87374e-05
0.0048911
1.92354e-05
0.00488453
1.97469e-05
0.00487779
2.0272e-05
0.00487088
2.08108e-05
0.00486378
2.13634e-05
0.00485649
2.193e-05
0.00484901
2.25105e-05
0.00484134
2.31052e-05
0.00483346
2.37141e-05
0.00482538
2.43374e-05
0.00481709
2.49753e-05
0.00480858
2.56282e-05
0.00479985
2.6297e-05
0.00479089
2.69836e-05
0.00478171
2.76944e-05
2.84472e-05
0.00477227
0.00505063
5.14518e-07
0.00505025
1.50132e-06
0.00504965
2.43713e-06
0.00504882
3.32326e-06
0.00504778
4.1615e-06
0.00504654
4.97442e-06
0.00504509
5.82823e-06
0.00504339
6.82979e-06
0.00504138
8.08816e-06
0.00503898
9.65907e-06
0.00503613
1.15049e-05
0.00503279
1.34934e-05
0.00502896
1.54344e-05
0.00502472
1.71363e-05
0.00502014
1.84565e-05
0.00501534
1.93303e-05
0.00501042
1.97716e-05
0.00500547
1.98556e-05
0.00500056
1.969e-05
0.00499572
1.93884e-05
0.00499096
1.90507e-05
0.00498627
1.87517e-05
0.00498163
1.85396e-05
0.00497702
1.8438e-05
0.00497241
1.84524e-05
0.00496776
1.85761e-05
0.00496307
1.87959e-05
0.0049583
1.90965e-05
0.00495344
1.94628e-05
0.00494848
1.98817e-05
0.00494341
2.03427e-05
0.00493822
2.08376e-05
0.0049329
2.13605e-05
0.00492744
2.19075e-05
0.00492185
2.24758e-05
0.00491611
2.30638e-05
0.00491022
2.36705e-05
0.00490418
2.42953e-05
0.00489798
2.49381e-05
0.00489161
2.55988e-05
0.00488508
2.62774e-05
0.00487838
2.6974e-05
0.0048715
2.76888e-05
0.00486444
2.84217e-05
0.0048572
2.9173e-05
0.00484977
2.99427e-05
0.00484214
3.0731e-05
0.00483432
3.1538e-05
0.00482629
3.23639e-05
0.00481806
3.32089e-05
0.00480961
3.40734e-05
0.00480095
3.49584e-05
0.00479207
3.58664e-05
0.00478296
3.68046e-05
3.7794e-05
0.00477361
0.00505063
6.42513e-07
0.00505026
1.87461e-06
0.00504965
3.04317e-06
0.00504882
4.1497e-06
0.00504779
5.19654e-06
0.00504655
6.21148e-06
0.0050451
7.2761e-06
0.00504341
8.52253e-06
0.00504141
1.00861e-05
0.00503903
1.20368e-05
0.00503621
1.43295e-05
0.0050329
1.68015e-05
0.00502912
1.92183e-05
0.00502491
2.13421e-05
0.00502037
2.29957e-05
0.00501561
2.40968e-05
0.00501072
2.46614e-05
0.00500579
2.47809e-05
0.00500089
2.4588e-05
0.00499606
2.4223e-05
0.0049913
2.38097e-05
0.00498661
2.34415e-05
0.00498197
2.31786e-05
0.00497736
2.3051e-05
0.00497274
2.30662e-05
0.0049681
2.32165e-05
0.00496341
2.34861e-05
0.00495865
2.38561e-05
0.00495381
2.4308e-05
0.00494887
2.48258e-05
0.00494381
2.53962e-05
0.00493864
2.60092e-05
0.00493334
2.66576e-05
0.00492791
2.73361e-05
0.00492235
2.80414e-05
0.00491664
2.87714e-05
0.00491079
2.95248e-05
0.00490478
3.03009e-05
0.00489862
3.10993e-05
0.0048923
3.192e-05
0.00488581
3.27628e-05
0.00487916
3.3628e-05
0.00487233
3.45155e-05
0.00486533
3.54255e-05
0.00485814
3.63581e-05
0.00485077
3.73134e-05
0.00484321
3.82915e-05
0.00483546
3.92926e-05
0.00482751
4.03167e-05
0.00481935
4.13641e-05
0.00481099
4.24352e-05
0.00480242
4.3531e-05
0.00479363
4.4654e-05
0.00478462
4.58115e-05
4.70255e-05
0.00477539
0.00505063
7.70098e-07
0.00505026
2.24653e-06
0.00504965
3.64704e-06
0.00504883
4.97322e-06
0.0050478
6.22803e-06
0.00504657
7.44416e-06
0.00504512
8.71794e-06
0.00504344
1.02058e-05
0.00504146
1.20689e-05
0.0050391
1.43915e-05
0.00503631
1.71219e-05
0.00503304
2.00692e-05
0.00502931
2.29558e-05
0.00502515
2.54994e-05
0.00502066
2.7488e-05
0.00501593
2.88218e-05
0.00501108
2.95174e-05
0.00500617
2.96813e-05
0.00500129
2.94695e-05
0.00499647
2.90483e-05
0.00499171
2.85647e-05
0.00498702
2.81305e-05
0.00498238
2.78179e-05
0.00497777
2.7664e-05
0.00497316
2.76782e-05
0.00496852
2.78525e-05
0.00496384
2.81684e-05
0.00495909
2.86041e-05
0.00495426
2.9138e-05
0.00494934
2.97508e-05
0.00494431
3.0427e-05
0.00493916
3.11547e-05
0.00493389
3.1925e-05
0.0049285
3.27317e-05
0.00492297
3.35708e-05
0.0049173
3.44396e-05
0.00491149
3.53365e-05
0.00490553
3.62606e-05
0.00489942
3.72113e-05
0.00489315
3.81885e-05
0.00488672
3.91921e-05
0.00488013
4.02222e-05
0.00487336
4.12787e-05
0.00486643
4.23617e-05
0.00485931
4.34715e-05
0.00485202
4.46079e-05
0.00484454
4.57711e-05
0.00483687
4.69612e-05
0.00482901
4.81782e-05
0.00482095
4.94224e-05
0.00481269
5.0694e-05
0.00480423
5.19939e-05
0.00479556
5.33241e-05
0.00478668
5.46913e-05
5.61151e-05
0.00477759
0.00505063
8.97151e-07
0.00505026
2.61686e-06
0.00504966
4.24834e-06
0.00504884
5.79325e-06
0.00504781
7.25523e-06
0.00504658
8.6716e-06
0.00504515
1.01526e-05
0.00504348
1.18781e-05
0.00504151
1.40342e-05
0.00503918
1.67197e-05
0.00503643
1.98779e-05
0.00503321
2.3291e-05
0.00502952
2.66407e-05
0.00502542
2.96014e-05
0.00502098
3.19269e-05
0.0050163
3.34992e-05
0.00501149
3.43343e-05
0.00500661
3.45522e-05
0.00500175
3.43309e-05
0.00499694
3.38615e-05
0.00499219
3.33136e-05
0.0049875
3.28169e-05
0.00498287
3.24562e-05
0.00497825
3.22752e-05
0.00497365
3.22865e-05
0.00496902
3.24816e-05
0.00496435
3.28401e-05
0.00495961
3.33374e-05
0.0049548
3.39488e-05
0.0049499
3.46524e-05
0.0049449
3.54302e-05
0.00493978
3.62684e-05
0.00493455
3.71566e-05
0.0049292
3.80877e-05
0.00492371
3.90568e-05
0.00491809
4.00606e-05
0.00491233
4.10973e-05
0.00490642
4.21655e-05
0.00490037
4.32646e-05
0.00489416
4.43944e-05
0.0048878
4.55546e-05
0.00488128
4.67452e-05
0.00487459
4.79662e-05
0.00486773
4.92176e-05
0.00486071
5.04995e-05
0.0048535
5.18118e-05
0.00484612
5.31546e-05
0.00483855
5.45278e-05
0.0048308
5.59316e-05
0.00482286
5.73659e-05
0.00481472
5.8831e-05
0.00480639
6.03273e-05
0.00479785
6.18562e-05
0.00478912
6.34216e-05
0.0047802
6.50349e-05
0.00477139
-4.68377e-07
2.09421e-09
0.00477133
5.9239e-08
1.98241e-09
0.00477071
6.15023e-07
1.92702e-09
0.0047695
1.21152e-06
1.83974e-09
0.00476765
1.84826e-06
1.7405e-09
0.00476512
2.529e-06
1.63576e-09
0.00476186
3.2577e-06
1.52487e-09
0.00475782
4.03877e-06
1.40761e-09
0.00475294
4.87711e-06
1.28379e-09
0.00474716
5.7782e-06
1.15341e-09
0.00474041
6.74816e-06
1.0161e-09
0.00473262
7.79384e-06
8.71615e-10
0.00472369
8.92291e-06
7.19916e-10
0.00471355
1.01439e-05
5.60552e-10
0.00470208
1.14666e-05
3.93609e-10
0.00468918
1.29017e-05
2.15192e-10
0.00467472
1.44616e-05
2.51509e-11
0.00465856
1.61604e-05
-1.727e-10
0.00464054
1.80141e-05
-3.71908e-10
0.0046205
2.00408e-05
-5.72682e-10
0.00459824
2.22614e-05
-7.78265e-10
0.00457354
2.47002e-05
-9.8734e-10
0.00454616
2.73851e-05
-1.19801e-09
0.00451581
3.03489e-05
-1.40928e-09
0.00448218
3.36301e-05
-1.61879e-09
0.00444491
3.72742e-05
-1.82525e-09
0.00440358
4.13349e-05
-2.02698e-09
0.0043577
4.58766e-05
-2.22232e-09
0.00430673
5.09765e-05
-2.41019e-09
0.00425001
5.67278e-05
-2.5896e-09
0.00418676
6.32434e-05
-2.76046e-09
0.00411611
7.06609e-05
-2.92239e-09
0.00403696
7.91488e-05
-3.07629e-09
0.00394805
8.8913e-05
-3.22294e-09
0.00384785
0.000100206
-3.36355e-09
0.00373452
0.000113334
-3.49941e-09
0.00360586
0.000128663
-3.63177e-09
0.00345924
0.00014662
-3.76214e-09
0.00329157
0.000167675
-3.89255e-09
0.00309928
0.000192299
-4.02406e-09
0.00287841
0.000220872
-4.15751e-09
0.00262491
0.000253503
-4.29416e-09
0.00233518
0.000289734
-4.43259e-09
0.00200713
0.000328059
-4.5663e-09
0.00164192
0.000365208
-4.67719e-09
0.0012468
0.000395129
-4.72298e-09
0.000839115
0.000407688
-4.62077e-09
0.000452081
0.000387038
-4.22367e-09
0.000142989
0.000309096
-3.3027e-09
0.00014299
-1.53872e-09
0.00477047
4.3456e-07
0.00476905
1.48148e-06
0.00476707
2.5964e-06
0.00476449
3.78644e-06
0.00476128
5.05748e-06
0.0047574
6.4165e-06
0.00475278
7.87141e-06
0.00474739
9.43103e-06
0.00474116
1.11052e-05
0.00473403
1.2905e-05
0.00472594
1.48425e-05
0.0047168
1.69316e-05
0.00470654
1.91875e-05
0.00469505
2.16275e-05
0.00468225
2.42709e-05
0.00466801
2.71394e-05
0.00465222
3.02578e-05
0.00463472
3.36542e-05
0.00461538
3.73608e-05
0.004594
4.14139e-05
0.00457041
4.58553e-05
0.00454437
5.07335e-05
0.00451566
5.61047e-05
0.00448397
6.20346e-05
0.004449
6.86002e-05
0.00441038
7.58923e-05
0.0043677
8.40188e-05
0.00432047
9.31083e-05
0.00426813
0.000103315
0.00421003
0.000114825
0.00414541
0.000127863
0.00407337
0.000142703
0.00399284
0.00015968
0.00390255
0.000179203
0.00380098
0.00020177
0.00368633
0.000227986
0.00355642
0.000258572
0.00340868
0.000294362
0.00324008
0.000336272
0.00304717
0.00038521
0.00282616
0.000441888
0.00257319
0.000506467
0.00228496
0.000577968
0.00195969
0.000653325
0.00159892
0.000725984
0.00121014
0.000783903
0.000810867
0.000806962
0.00043396
0.000763946
0.000134638
0.000608418
0.000277628
0.00476865
4.05281e-06
0.00476452
5.61798e-06
0.00475983
7.28584e-06
0.00475455
9.06529e-06
0.00474864
1.09659e-05
0.00474206
1.29983e-05
0.00473476
1.51744e-05
0.00472668
1.75076e-05
0.00471777
2.00127e-05
0.00470797
2.27062e-05
0.00469721
2.56065e-05
0.0046854
2.87344e-05
0.00467248
3.21128e-05
0.00465834
3.57676e-05
0.00464288
3.97278e-05
0.00462599
4.40262e-05
0.00460755
4.87e-05
0.00458741
5.37915e-05
0.00456543
5.93491e-05
0.00454141
6.54275e-05
0.00451518
7.20895e-05
0.0044865
7.94081e-05
0.00445514
8.74679e-05
0.00442081
9.63676e-05
0.00438319
0.000106223
0.00434191
0.00011717
0.00429655
0.000129372
0.00424664
0.00014302
0.00419161
0.000158346
0.00413081
0.000175627
0.00406347
0.000195199
0.00398871
0.000217471
0.00390545
0.000242938
0.00381245
0.000272204
0.00370821
0.000306005
0.00359097
0.000345225
0.00345863
0.000390916
0.00330871
0.000444281
0.00313835
0.000506631
0.00294432
0.000579237
0.00272317
0.000663046
0.00247148
0.000758159
0.00218649
0.000862951
0.00186712
0.000972699
0.00151554
0.00107756
0.00113972
0.00115972
0.000757188
0.00118949
0.000400337
0.0011208
0.000121816
0.000886939
0.000399444
0.00476596
1.17024e-05
0.0047578
1.37793e-05
0.0047491
1.59924e-05
0.00473981
1.83536e-05
0.0047299
2.08758e-05
0.00471932
2.35735e-05
0.00470803
2.64627e-05
0.00469598
2.95614e-05
0.0046831
3.28892e-05
0.00466934
3.64685e-05
0.00465462
4.03238e-05
0.00463888
4.44827e-05
0.00462201
4.8976e-05
0.00460394
5.38383e-05
0.00458456
5.91085e-05
0.00456376
6.48302e-05
0.0045414
7.10534e-05
0.00451736
7.78347e-05
0.00449147
8.52388e-05
0.00446356
9.33388e-05
0.00443343
0.000102219
0.00440086
0.000111977
0.0043656
0.000122726
0.00432737
0.000134598
0.00428585
0.000147747
0.00424066
0.000162357
0.00419139
0.000178643
0.00413755
0.000196861
0.00407858
0.000217319
0.00401382
0.000240385
0.00394251
0.000266504
0.00386377
0.000296213
0.00377655
0.000330163
0.00367961
0.000369142
0.00357151
0.000414106
0.00345054
0.000466193
0.00331471
0.000526743
0.00316172
0.000597275
0.00298894
0.000679407
0.00279352
0.00077466
0.0025725
0.00088407
0.00232316
0.0010075
0.00204362
0.00114249
0.00173377
0.00128255
0.00139675
0.00141459
0.00104102
0.00151545
0.000683655
0.00154686
0.000355204
0.00144925
0.00010363
0.00113851
0.000503074
0.00476245
2.46457e-05
0.004749
2.72234e-05
0.00473502
2.99703e-05
0.00472048
3.29015e-05
0.00470532
3.60335e-05
0.00468951
3.93847e-05
0.004673
4.29752e-05
0.00465573
4.68274e-05
0.00463765
5.09664e-05
0.0046187
5.54197e-05
0.00459881
6.02182e-05
0.00457789
6.53966e-05
0.00455588
7.09934e-05
0.00453266
7.7052e-05
0.00450815
8.3621e-05
0.00448222
9.07555e-05
0.00445476
9.85178e-05
0.00442561
0.000106979
0.00439463
0.000116221
0.00436164
0.000126335
0.00432643
0.000137426
0.00428879
0.000149618
0.00424846
0.000163053
0.00420516
0.000177895
0.00415857
0.00019434
0.00410831
0.000212615
0.00405397
0.00023299
0.00399504
0.000255787
0.00393097
0.000281386
0.00386111
0.000310247
0.0037847
0.000342917
0.00370085
0.000380059
0.00360855
0.000422469
0.00350658
0.000471106
0.00339357
0.000527117
0.0032679
0.000591859
0.00312774
0.000666906
0.00297101
0.000754004
0.00279546
0.000854961
0.00259873
0.000971385
0.00237861
0.00110419
0.00213337
0.00125274
0.00186233
0.00141352
0.00156679
0.00157809
0.00125108
0.00173029
0.000924206
0.00184232
0.000601906
0.00186916
0.000309874
0.00174128
8.5724e-05
0.00136266
0.000588798
0.00475816
4.40751e-05
0.00473825
4.7136e-05
0.00471782
5.03999e-05
0.00469684
5.38846e-05
0.00467526
5.76104e-05
0.00465304
6.15992e-05
0.00463014
6.58752e-05
0.00460651
7.04653e-05
0.00458207
7.53995e-05
0.00455678
8.0711e-05
0.00453056
8.64369e-05
0.00450334
9.26187e-05
0.00447503
9.9303e-05
0.00444554
0.000106542
0.00441477
0.000114394
0.0043826
0.000122926
0.0043489
0.000132212
0.00431354
0.000142339
0.00427636
0.000153404
0.00423718
0.000165518
0.00419579
0.00017881
0.00415199
0.000193425
0.0041055
0.000209537
0.00405605
0.000227345
0.00400331
0.000247081
0.0039469
0.000269022
0.0038864
0.000293491
0.00382132
0.000320872
0.00375108
0.000351623
0.00367504
0.000386288
0.00359244
0.000425517
0.00350241
0.000470089
0.00340395
0.000520934
0.00329589
0.00057916
0.00317694
0.000646073
0.0030456
0.000723197
0.00290025
0.000812251
0.00273917
0.000915086
0.00256062
0.00103352
0.00236301
0.00116899
0.00214525
0.00132196
0.00190707
0.00149092
0.00164969
0.0016709
0.0013765
0.00185128
0.00109374
0.00201305
0.000811179
0.00212488
0.000542275
0.00213806
0.000302785
0.00198077
0.000104492
0.00156096
0.00069329
0.00475319
7.1089e-05
0.00472572
7.46074e-05
0.00469775
7.83654e-05
0.00466925
8.23819e-05
0.00464019
8.66801e-05
0.0046105
9.12851e-05
0.00458015
9.62251e-05
0.00454908
0.000101531
0.00451724
0.000107238
0.00448457
0.000113385
0.00445099
0.000120014
0.00441644
0.000127175
0.00438082
0.000134922
0.00434405
0.000143315
0.00430602
0.000152424
0.00426662
0.000162326
0.00422572
0.000173108
0.00418319
0.000184873
0.00413886
0.000197733
0.00409255
0.00021182
0.00404408
0.000227282
0.00399321
0.000244293
0.0039397
0.000263054
0.00388324
0.000283799
0.00382352
0.000306801
0.00376016
0.000332382
0.00369273
0.00036092
0.00362074
0.000392864
0.00354362
0.000428743
0.00346072
0.000469189
0.00337129
0.000514949
0.00327447
0.000566912
0.00316927
0.000626131
0.00305459
0.000693843
0.00292918
0.000771483
0.00279169
0.000860682
0.00264072
0.000963218
0.00247491
0.0010809
0.00229308
0.00121535
0.00209456
0.0013675
0.00187958
0.00153694
0.00164978
0.00172072
0.00140893
0.00191175
0.00116358
0.00209663
0.000923552
0.00225308
0.0007015
0.00234693
0.000510377
0.00232919
0.000354573
0.00213657
0.000214618
0.00170091
0.000907908
-2.94329e-05
2.94338e-05
-8.408e-10
-8.45925e-05
5.51617e-05
-2.12919e-09
-0.000145222
6.06328e-05
-3.17197e-09
-0.000199433
5.42152e-05
-4.02513e-09
-0.000240595
4.11659e-05
-4.69713e-09
-0.000265259
2.46693e-05
-5.20138e-09
-0.000271746
6.49329e-06
-5.53151e-09
-0.000260168
-1.15733e-05
-5.46844e-09
-0.000230903
-2.92595e-05
-5.27408e-09
-0.000184679
-4.6219e-05
-4.84646e-09
-0.000122559
-6.21162e-05
-4.16405e-09
-4.57642e-05
-7.67913e-05
-3.23057e-09
4.45569e-05
-9.03191e-05
-2.04692e-09
0.000146923
-0.000102366
-6.25616e-10
0.000260029
-0.000113107
1.01629e-09
0.000382551
-0.000122525
2.86954e-09
0.000513176
-0.00013063
4.91989e-09
0.000650623
-0.000137454
7.15045e-09
0.000793652
-0.000143039
9.52692e-09
0.000941074
-0.000147434
1.19783e-08
0.00109175
-0.000150695
1.43543e-08
0.00124462
-0.000152881
1.63176e-08
0.00139865
-0.000154051
1.77889e-08
0.0015529
-0.000154268
1.88e-08
0.00170649
-0.000153604
1.94195e-08
0.0018586
-0.000152139
1.95973e-08
0.00200853
-0.00014995
1.93157e-08
0.00215563
-0.000147111
1.86683e-08
0.00229931
-0.000143697
1.77477e-08
0.00243907
-0.000139782
1.66261e-08
0.00257449
-0.000135437
1.53573e-08
0.00270521
-0.000130733
1.39783e-08
0.00283093
-0.000125735
1.25145e-08
0.00295143
-0.000120507
1.09821e-08
0.00306653
-0.000115108
9.39628e-09
0.00317612
-0.000109596
7.77302e-09
0.00328013
-0.00010402
6.13294e-09
0.00337855
-9.84285e-05
4.50032e-09
0.00347142
-9.28636e-05
2.90395e-09
0.00355878
-8.73636e-05
1.37333e-09
0.00364074
-8.19619e-05
-6.17008e-11
0.00371743
-7.66876e-05
-1.37414e-09
0.003789
-7.15654e-05
-2.54135e-09
0.00385562
-6.66158e-05
-3.54515e-09
0.00391748
-6.18555e-05
-4.37363e-09
0.00397478
-5.72972e-05
-5.01973e-09
0.00402773
-5.29501e-05
-5.48165e-09
0.00407656
-4.88199e-05
-5.76099e-09
0.00412147
-4.49088e-05
-5.86116e-09
-4.12156e-05
0.00416269
-5.78778e-09
-2.58199e-05
5.52536e-05
-7.41725e-05
0.000103514
-0.000126969
0.000113429
-0.000173782
0.000101029
-0.000208591
7.59753e-05
-0.000228205
4.42832e-05
-0.000230904
9.19158e-06
-0.000216927
-2.55504e-05
-0.000186315
-5.9871e-05
-0.000139683
-9.28515e-05
-7.79304e-05
-0.000123868
-1.99503e-06
-0.000152727
8.65857e-05
-0.0001789
0.000186931
-0.000202712
0.000297749
-0.000223925
0.000417774
-0.000242549
0.000545764
-0.00025862
0.000680503
-0.000272193
0.000820804
-0.00028334
0.000965523
-0.000292153
0.00111356
-0.000298736
0.00126388
-0.000303201
0.00141549
-0.00030566
0.00156746
-0.000306233
0.00171891
-0.000305059
0.00186907
-0.000302291
0.0020172
-0.000298081
0.00216266
-0.000292576
0.00230489
-0.000285922
0.00244337
-0.000278265
0.00257768
-0.000269745
0.00270745
-0.000260501
0.00283238
-0.000250665
0.00295223
-0.000240362
0.00306684
-0.000229712
0.00317607
-0.000218826
0.00327985
-0.000207806
0.00337817
-0.000196748
0.00347104
-0.000185735
0.00355852
-0.000174844
0.0036407
-0.000164142
0.00371771
-0.000153689
0.00378967
-0.000143533
0.00385677
-0.000133715
0.00391919
-0.00012427
0.00397711
-0.000115223
0.00403076
-0.000106593
0.00408033
-9.8392e-05
0.00412604
-9.06235e-05
-8.32845e-05
0.00416811
-1.94536e-05
7.47072e-05
-5.41777e-05
0.000138238
-9.19623e-05
0.000151214
-0.000124634
0.000133701
-0.000147347
9.86877e-05
-0.000157528
5.44647e-05
-0.00015296
4.62342e-06
-0.000134676
-4.3835e-05
-0.00010171
-9.28366e-05
-5.44696e-05
-0.000140092
6.37014e-06
-0.000184708
7.98644e-05
-0.000226221
0.000165413
-0.000264449
0.000261871
-0.000299169
0.000368212
-0.000330266
0.000483364
-0.000357701
0.000606235
-0.000381491
0.00073573
-0.000401688
0.000870768
-0.000418378
0.00101029
-0.000431676
0.00115327
-0.000441718
0.00129873
-0.000448658
0.00144572
-0.000452651
0.00159335
-0.000453862
0.00174078
-0.000452484
0.00188722
-0.000448733
0.00203197
-0.000442835
0.0021744
-0.000435
0.00231392
-0.000425443
0.00245003
-0.000414376
0.00258229
-0.000402007
0.00271033
-0.00038854
0.00283384
-0.00037417
0.00295256
-0.000359085
0.00306631
-0.000343461
0.00317495
-0.000327465
0.00327839
-0.000311251
0.0033766
-0.000294959
0.00346958
-0.000278717
0.00355738
-0.000262641
0.00364007
-0.000246832
0.00371776
-0.000231378
0.00379058
-0.000216354
0.00385869
-0.000201823
0.00392225
-0.000187836
0.00398146
-0.000174432
0.00403651
-0.000161641
0.0040876
-0.000149481
0.00413493
-0.000137957
-0.000127064
0.00417871
-8.26519e-06
8.29724e-05
-2.50309e-05
0.000155004
-4.21529e-05
0.000168336
-5.52317e-05
0.000146779
-6.1325e-05
0.000104781
-5.83569e-05
5.14965e-05
-4.53346e-05
-8.39884e-06
-2.10684e-05
-6.81012e-05
1.47132e-05
-0.000128618
6.20654e-05
-0.000187444
0.000120989
-0.000243631
0.00019113
-0.000296362
0.000271876
-0.000345195
0.000362541
-0.000389834
0.000462355
-0.00043008
0.00057048
-0.000465826
0.000686026
-0.000497037
0.00080807
-0.000523732
0.000935673
-0.000545982
0.0010679
-0.000563898
0.00120381
-0.000577631
0.0013425
-0.000587354
0.00148311
-0.000593254
0.00162477
-0.000595524
0.00176668
-0.000594393
0.00190808
-0.000590133
0.00204827
-0.000583027
0.00218662
-0.00057335
0.00232255
-0.000561374
0.00245555
-0.000547373
0.00258516
-0.000531619
0.002711
-0.000514377
0.00283273
-0.000495904
0.00295009
-0.000476446
0.00306287
-0.000456239
0.00317091
-0.000435502
0.0032741
-0.00041444
0.00337238
-0.000393241
0.00346574
-0.000372077
0.0035542
-0.000351101
0.00363782
-0.00033045
0.00371668
-0.000310243
0.00379091
-0.000290581
0.00386064
-0.00027155
0.00392602
-0.000253219
0.00398723
-0.000235642
0.00404445
-0.00021886
0.00409786
-0.000202897
0.00414767
-0.000187763
-0.000173444
0.00419405
6.26759e-06
7.67048e-05
1.25209e-05
0.000148751
2.06458e-05
0.000160211
3.04711e-05
0.000136954
4.33445e-05
9.19076e-05
6.10628e-05
3.37782e-05
8.33949e-05
-3.07309e-05
0.000113459
-9.81653e-05
0.000151642
-0.000166801
0.0001986
-0.000234402
0.000254624
-0.000299656
0.000319843
-0.000361582
0.000394148
-0.000419499
0.00047724
-0.000472927
0.000568682
-0.000521522
0.000667917
-0.000565061
0.000774295
-0.000603415
0.000887099
-0.000636535
0.00100556
-0.000664441
0.00112887
-0.000687211
0.00125622
-0.00070498
0.00138678
-0.000717921
0.00151976
-0.00072623
0.00165436
-0.000730118
0.00178979
-0.00072983
0.00192533
-0.00072567
0.00206028
-0.000717976
0.002194
-0.000707074
0.00232592
-0.000693289
0.0024555
-0.000676951
0.00258226
-0.000658388
0.00270581
-0.000637925
0.00282579
-0.000615878
0.00294189
-0.000592552
0.00305389
-0.000568236
0.00316159
-0.000543206
0.00326487
-0.000517716
0.00336363
-0.000492004
0.00345784
-0.000466284
0.00354749
-0.000440751
0.00363262
-0.000415578
0.00371329
-0.000390914
0.0037896
-0.00036689
0.00386166
-0.000343614
0.00392962
-0.000321176
0.00399362
-0.000299647
0.00405384
-0.000279077
0.00411044
-0.0002595
0.00416361
-0.00024093
-0.000223347
0.00421351
2.16961e-05
5.50087e-05
5.50579e-05
0.000115389
9.09754e-05
0.000124293
0.000126012
0.000101918
0.000159325
5.85946e-05
0.00019259
5.13395e-07
0.000224222
-6.23629e-05
0.000259172
-0.000133115
0.000298473
-0.000206102
0.000343376
-0.000279306
0.000394815
-0.000351094
0.00045343
-0.000420197
0.000519591
-0.000485661
0.000593426
-0.000546761
0.000674859
-0.000602955
0.000763646
-0.000653847
0.0008594
-0.000699169
0.000961623
-0.000738758
0.00106973
-0.000772543
0.00118305
-0.000800538
0.0013009
-0.000822828
0.00142254
-0.000839562
0.00154724
-0.000850925
0.00167424
-0.000857124
0.00180282
-0.000858403
0.00193223
-0.000855085
0.00206179
-0.00084754
0.00219086
-0.000836142
0.00231883
-0.00082126
0.00244516
-0.000803274
0.00256933
-0.000782566
0.00269092
-0.000759514
0.00280954
-0.000734492
0.00292485
-0.000707862
0.00303658
-0.00067997
0.00314452
-0.000651143
0.00324849
-0.000621691
0.00334839
-0.000591899
0.00344413
-0.000562026
0.00353569
-0.000532311
0.00362307
-0.000502962
0.00370632
-0.000474165
0.00378551
-0.000446078
0.00386074
-0.000418837
0.00393211
-0.000392551
0.00399977
-0.000367308
0.00406387
-0.000343174
0.00412456
-0.000320193
0.00418201
-0.000298382
-0.000277721
0.00423639
3.98175e-05
1.51912e-05
0.000105046
5.01607e-05
0.000169915
5.94244e-05
0.00022818
4.36525e-05
0.000281757
5.01731e-06
0.000323835
-4.15646e-05
0.000363542
-0.000102069
0.000401317
-0.000170891
0.000439725
-0.000244509
0.000480732
-0.000320313
0.000525895
-0.000396256
0.000576403
-0.000470705
0.000633104
-0.000542361
0.000696539
-0.000610197
0.00076699
-0.000673406
0.000844512
-0.00073137
0.000928977
-0.000783633
0.0010201
-0.000829876
0.00111745
-0.000869901
0.00122053
-0.000903619
0.00132874
-0.000931036
0.00144143
-0.000952247
0.00155791
-0.000967409
0.00167749
-0.000976707
0.00179946
-0.000980369
0.00192309
-0.000978715
0.00204769
-0.000972135
0.00217258
-0.000961037
0.00229715
-0.000945832
0.00242082
-0.000926941
0.00254305
-0.000904795
0.00266336
-0.000879827
0.00278133
-0.000852465
0.0028966
-0.000823126
0.00300884
-0.000792213
0.00311781
-0.00076011
0.00322329
-0.000727177
0.00332515
-0.000693752
0.00342326
-0.000660143
0.00351758
-0.00062663
0.00360809
-0.000593463
0.00369478
-0.000560864
0.00377773
-0.000529022
0.00385699
-0.0004981
0.00393267
-0.000468232
0.00400489
-0.000439525
0.00407378
-0.000412059
0.00413947
-0.00038589
0.00420214
-0.000361046
0.00426193
-0.000337516
0.00420973
-4.70261e-05
-5.57938e-09
0.00425443
-4.46959e-05
-5.29194e-09
0.00429686
-4.24236e-05
-4.86274e-09
0.00433708
-4.02215e-05
-4.31681e-09
0.00437518
-3.80974e-05
-3.67589e-09
0.00441124
-3.60566e-05
-2.95833e-09
0.00444535
-3.41035e-05
-2.18057e-09
0.00447759
-3.22412e-05
-1.35755e-09
0.00450806
-3.04715e-05
-5.04377e-10
0.00453686
-2.87952e-05
3.64154e-10
0.00456407
-2.72123e-05
1.23298e-09
0.00458979
-2.57216e-05
2.08961e-09
0.00461411
-2.43212e-05
2.92244e-09
0.00463711
-2.30084e-05
3.72381e-09
0.00465889
-2.17797e-05
4.48824e-09
0.00467951
-2.06313e-05
5.21401e-09
0.00469907
-1.95586e-05
5.902e-09
0.00471762
-1.85566e-05
6.55442e-09
0.00473523
-1.76197e-05
7.17475e-09
0.00475196
-1.67419e-05
7.76638e-09
0.00476787
-1.59166e-05
8.33168e-09
0.004783
-1.51369e-05
8.87084e-09
0.00479738
-1.43955e-05
9.38159e-09
0.00481106
-1.36855e-05
9.85808e-09
0.00482405
-1.3e-05
1.02903e-08
0.00483637
-1.23334e-05
1.06656e-08
0.00484804
-1.16818e-05
1.09695e-08
0.00485908
-1.10435e-05
1.11847e-08
0.00486948
-1.04193e-05
1.12959e-08
0.00487928
-9.81247e-06
1.12896e-08
0.0048885
-9.22861e-06
1.1159e-08
0.00489717
-8.67439e-06
1.09009e-08
0.00490531
-8.15651e-06
1.05198e-08
0.00491298
-7.68048e-06
1.00276e-08
0.00492022
-7.24947e-06
9.44088e-09
0.00492708
-6.86381e-06
8.77927e-09
0.00493359
-6.52089e-06
8.06483e-09
0.0049398
-6.21572e-06
7.31977e-09
0.00494573
-5.9418e-06
6.56364e-09
0.00495142
-5.69219e-06
5.81292e-09
0.00495688
-5.46036e-06
5.08034e-09
0.00496211
-5.24092e-06
4.37516e-09
0.00496714
-5.02987e-06
3.7038e-09
0.00497196
-4.82466e-06
3.07008e-09
0.00497658
-4.6236e-06
2.4946e-09
0.00498101
-4.42654e-06
1.95142e-09
0.00498524
-4.23347e-06
1.44423e-09
0.00498928
-4.04461e-06
9.78453e-10
0.00499314
-3.86037e-06
5.53893e-10
0.00499682
-3.68109e-06
1.68221e-10
0.00500033
-3.50707e-06
-1.83194e-10
0.00500367
-3.33848e-06
-5.06632e-10
0.00500684
-3.17541e-06
-8.11072e-10
0.00500986
-3.01788e-06
-1.10568e-09
0.00501273
-2.86586e-06
-1.39959e-09
0.00501545
-2.71928e-06
-1.70214e-09
0.00501803
-2.57803e-06
-2.01952e-09
0.00502048