/*--------------------------------*- C++ -*----------------------------------*\
| =========                 |                                                 |
| \\      /  F ield         | OpenFOAM: The Open Source CFD Toolbox           |
|  \\    /   O peration     | Version:  2412                                  |
|   \\  /    A nd           | Website:  www.openfoam.com                      |
|    \\/     M anipulation  |                                                 |
\*---------------------------------------------------------------------------*/
FoamFile
{
    version     2.0;
    format      ascii;
    arch        "LSB;label=32;scalar=64";
    class       volVectorField;
    location    "20.5";
    object      U;
}
// * * * * * * * * * * * * * * * * * * * * * * * * * * * * * * * * * * * * * //

dimensions      [0 1 -1 0 0 0 0];

internalField   nonuniform List<vector> 
63420
(
(0.0999997 4.36146e-07 0)
(0.099995 1.29828e-06 0)
(0.0999852 2.14953e-06 0)
(0.0999708 2.9895e-06 0)
(0.0999522 3.81802e-06 0)
(0.0999296 4.65521e-06 0)
(0.0999029 5.5655e-06 0)
(0.0998718 6.65868e-06 0)
(0.0998352 8.05453e-06 0)
(0.0997915 9.82593e-06 0)
(0.0997391 1.19519e-05 0)
(0.099677 1.43074e-05 0)
(0.0996048 1.66942e-05 0)
(0.0995233 1.88977e-05 0)
(0.0994342 2.07435e-05 0)
(0.0993396 2.21351e-05 0)
(0.099242 2.30633e-05 0)
(0.0991432 2.35919e-05 0)
(0.0990449 2.3831e-05 0)
(0.098948 2.39065e-05 0)
(0.0988528 2.39363e-05 0)
(0.0987593 2.4015e-05 0)
(0.0986671 2.42082e-05 0)
(0.0985758 2.45537e-05 0)
(0.0984846 2.50667e-05 0)
(0.0983931 2.57461e-05 0)
(0.0983006 2.65817e-05 0)
(0.0982069 2.75588e-05 0)
(0.0981114 2.8662e-05 0)
(0.0980139 2.98777e-05 0)
(0.0979142 3.11949e-05 0)
(0.0978121 3.26055e-05 0)
(0.0977074 3.41044e-05 0)
(0.0976 3.56889e-05 0)
(0.0974898 3.73583e-05 0)
(0.0973768 3.91133e-05 0)
(0.0972607 4.09557e-05 0)
(0.0971416 4.28883e-05 0)
(0.0970193 4.49143e-05 0)
(0.0968937 4.70372e-05 0)
(0.0967648 4.92611e-05 0)
(0.0966324 5.159e-05 0)
(0.0964966 5.40284e-05 0)
(0.0963571 5.65806e-05 0)
(0.0962138 5.92513e-05 0)
(0.0960668 6.20455e-05 0)
(0.0959159 6.4968e-05 0)
(0.095761 6.80243e-05 0)
(0.095602 7.12198e-05 0)
(0.0954387 7.45606e-05 0)
(0.0952713 7.80534e-05 0)
(0.0950994 8.17067e-05 0)
(0.094923 8.55344e-05 0)
(0.0947419 8.95662e-05 0)
(0.0945561 9.38769e-05 0)
(0.0999997 1.30807e-06 0)
(0.099995 3.8938e-06 0)
(0.0999852 6.44706e-06 0)
(0.0999708 8.96667e-06 0)
(0.0999523 1.14522e-05 0)
(0.0999296 1.39636e-05 0)
(0.099903 1.66932e-05 0)
(0.0998719 1.99688e-05 0)
(0.0998353 2.41483e-05 0)
(0.0997917 2.94501e-05 0)
(0.0997395 3.58123e-05 0)
(0.0996775 4.28625e-05 0)
(0.0996055 5.00096e-05 0)
(0.0995242 5.66128e-05 0)
(0.0994353 6.21511e-05 0)
(0.099341 6.63351e-05 0)
(0.0992435 6.91358e-05 0)
(0.0991449 7.07432e-05 0)
(0.0990466 7.14844e-05 0)
(0.0989497 7.17349e-05 0)
(0.0988546 7.18462e-05 0)
(0.0987611 7.21009e-05 0)
(0.0986689 7.26953e-05 0)
(0.0985775 7.37426e-05 0)
(0.0984864 7.52885e-05 0)
(0.0983948 7.73308e-05 0)
(0.0983024 7.9839e-05 0)
(0.0982086 8.27696e-05 0)
(0.0981132 8.60773e-05 0)
(0.0980158 8.97213e-05 0)
(0.0979161 9.36691e-05 0)
(0.0978141 9.78967e-05 0)
(0.0977095 0.000102389 0)
(0.0976023 0.000107138 0)
(0.0974923 0.00011214 0)
(0.0973793 0.0001174 0)
(0.0972635 0.000122921 0)
(0.0971445 0.000128713 0)
(0.0970224 0.000134784 0)
(0.096897 0.000141146 0)
(0.0967683 0.00014781 0)
(0.0966362 0.000154789 0)
(0.0965006 0.000162095 0)
(0.0963613 0.000169742 0)
(0.0962184 0.000177743 0)
(0.0960717 0.000186114 0)
(0.0959211 0.00019487 0)
(0.0957665 0.000204025 0)
(0.0956078 0.000213597 0)
(0.095445 0.000223603 0)
(0.0952779 0.000234064 0)
(0.0951065 0.000245004 0)
(0.0949305 0.000256465 0)
(0.09475 0.000268535 0)
(0.0945646 0.000281432 0)
(0.0999997 2.17911e-06 0)
(0.099995 6.4865e-06 0)
(0.0999852 1.074e-05 0)
(0.0999709 1.49375e-05 0)
(0.0999523 1.90785e-05 0)
(0.0999297 2.32621e-05 0)
(0.0999031 2.78067e-05 0)
(0.0998721 3.32554e-05 0)
(0.0998356 4.02024e-05 0)
(0.0997922 4.90115e-05 0)
(0.0997402 5.95833e-05 0)
(0.0996785 7.13025e-05 0)
(0.0996069 8.31907e-05 0)
(0.0995261 9.41848e-05 0)
(0.0994376 0.000103419 0)
(0.0993436 0.00011041 0)
(0.0992465 0.000115107 0)
(0.0991481 0.00011782 0)
(0.09905 0.000119091 0)
(0.0989532 0.00011954 0)
(0.0988581 0.000119751 0)
(0.0987646 0.000120193 0)
(0.0986724 0.000121194 0)
(0.098581 0.000122942 0)
(0.0984898 0.000125514 0)
(0.0983983 0.000128909 0)
(0.0983059 0.000133077 0)
(0.0982122 0.000137947 0)
(0.0981168 0.000143444 0)
(0.0980195 0.000149501 0)
(0.0979201 0.000156063 0)
(0.0978182 0.000163092 0)
(0.0977139 0.000170561 0)
(0.0976069 0.000178458 0)
(0.0974971 0.000186778 0)
(0.0973845 0.000195525 0)
(0.0972689 0.000204709 0)
(0.0971503 0.000214342 0)
(0.0970286 0.00022444 0)
(0.0969036 0.000235021 0)
(0.0967754 0.000246104 0)
(0.0966437 0.000257709 0)
(0.0965086 0.000269859 0)
(0.0963699 0.000282575 0)
(0.0962275 0.00029588 0)
(0.0960814 0.000309797 0)
(0.0959314 0.000324353 0)
(0.0957775 0.000339572 0)
(0.0956196 0.000355481 0)
(0.0954575 0.000372111 0)
(0.0952912 0.000389494 0)
(0.0951206 0.00040767 0)
(0.0949456 0.000426707 0)
(0.0947661 0.000446742 0)
(0.0945818 0.000468124 0)
(0.0999997 3.04871e-06 0)
(0.099995 9.07449e-06 0)
(0.0999852 1.50253e-05 0)
(0.0999709 2.08979e-05 0)
(0.0999524 2.66918e-05 0)
(0.0999299 3.25443e-05 0)
(0.0999033 3.88966e-05 0)
(0.0998724 4.65031e-05 0)
(0.0998361 5.61912e-05 0)
(0.0997929 6.84705e-05 0)
(0.0997412 8.32083e-05 0)
(0.09968 9.95546e-05 0)
(0.099609 0.000116152 0)
(0.0995288 0.000131523 0)
(0.0994409 0.000144459 0)
(0.0993475 0.000154281 0)
(0.0992508 0.000160911 0)
(0.0991528 0.000164774 0)
(0.099055 0.000166618 0)
(0.0989583 0.000167305 0)
(0.0988633 0.000167646 0)
(0.0987698 0.000168294 0)
(0.0986775 0.000169708 0)
(0.0985861 0.000172154 0)
(0.0984949 0.000175743 0)
(0.0984034 0.000180475 0)
(0.0983111 0.000186282 0)
(0.0982175 0.000193068 0)
(0.0981223 0.000200728 0)
(0.0980252 0.000209172 0)
(0.0979259 0.000218322 0)
(0.0978244 0.000228126 0)
(0.0977203 0.000238546 0)
(0.0976137 0.000249564 0)
(0.0975043 0.000261175 0)
(0.0973922 0.000273383 0)
(0.0972771 0.0002862 0)
(0.097159 0.000299644 0)
(0.0970379 0.000313738 0)
(0.0969135 0.000328505 0)
(0.0967859 0.000343972 0)
(0.096655 0.000360168 0)
(0.0965206 0.000377122 0)
(0.0963826 0.000394864 0)
(0.0962411 0.000413425 0)
(0.0960959 0.00043284 0)
(0.0959468 0.000453142 0)
(0.0957939 0.000474366 0)
(0.0956371 0.00049655 0)
(0.0954762 0.000519733 0)
(0.0953111 0.000543961 0)
(0.0951418 0.000569289 0)
(0.0949681 0.000595803 0)
(0.0947901 0.000623681 0)
(0.0946074 0.000653373 0)
(0.0999997 3.91634e-06 0)
(0.0999951 1.16559e-05 0)
(0.0999853 1.92999e-05 0)
(0.099971 2.68435e-05 0)
(0.0999526 3.42869e-05 0)
(0.0999301 4.18035e-05 0)
(0.0999036 4.99538e-05 0)
(0.0998728 5.96975e-05 0)
(0.0998366 7.2091e-05 0)
(0.0997937 8.779e-05 0)
(0.0997426 0.000106635 0)
(0.099682 0.000127552 0)
(0.0996117 0.000148816 0)
(0.0995322 0.000168543 0)
(0.0994452 0.000185187 0)
(0.0993526 0.000197872 0)
(0.0992565 0.000206485 0)
(0.0991589 0.000211558 0)
(0.0990615 0.000214035 0)
(0.098965 0.000215012 0)
(0.09887 0.000215521 0)
(0.0987765 0.0002164 0)
(0.0986843 0.000218238 0)
(0.0985928 0.00022138 0)
(0.0985016 0.000225971 0)
(0.0984101 0.000232016 0)
(0.0983179 0.000239434 0)
(0.0982244 0.000248103 0)
(0.0981294 0.000257894 0)
(0.0980326 0.000268688 0)
(0.0979337 0.000280391 0)
(0.0978325 0.000292933 0)
(0.0977289 0.000306268 0)
(0.0976228 0.000320371 0)
(0.097514 0.000335235 0)
(0.0974024 0.000350865 0)
(0.097288 0.000367277 0)
(0.0971706 0.000384492 0)
(0.0970502 0.000402538 0)
(0.0969267 0.000421446 0)
(0.0967999 0.000441249 0)
(0.0966699 0.000461983 0)
(0.0965365 0.000483685 0)
(0.0963996 0.000506394 0)
(0.0962592 0.000530149 0)
(0.0961151 0.000554991 0)
(0.0959673 0.000580965 0)
(0.0958158 0.000608113 0)
(0.0956603 0.000636483 0)
(0.0955009 0.000666124 0)
(0.0953374 0.000697092 0)
(0.0951698 0.000729453 0)
(0.094998 0.000763309 0)
(0.0948219 0.000798863 0)
(0.0946413 0.000836618 0)
(0.0999997 4.78163e-06 0)
(0.0999951 1.42288e-05 0)
(0.0999853 2.35609e-05 0)
(0.0999711 3.27705e-05 0)
(0.0999527 4.18586e-05 0)
(0.0999303 5.10335e-05 0)
(0.099904 6.09693e-05 0)
(0.0998733 7.28248e-05 0)
(0.0998374 8.788e-05 0)
(0.0997948 0.000106937 0)
(0.0997442 0.000129816 0)
(0.0996843 0.000155234 0)
(0.0996149 0.000181112 0)
(0.0995364 0.00020517 0)
(0.0994504 0.000225531 0)
(0.0993586 0.000241116 0)
(0.0992633 0.000251772 0)
(0.0991663 0.000258126 0)
(0.0990692 0.000261309 0)
(0.098973 0.000262638 0)
(0.0988782 0.000263365 0)
(0.0987847 0.000264506 0)
(0.0986925 0.000266779 0)
(0.098601 0.000270612 0)
(0.0985098 0.000276188 0)
(0.0984184 0.000283519 0)
(0.0983262 0.000292512 0)
(0.098233 0.000303025 0)
(0.0981382 0.000314902 0)
(0.0980417 0.000328003 0)
(0.0979432 0.000342213 0)
(0.0978425 0.000357447 0)
(0.0977395 0.000373651 0)
(0.097634 0.000390793 0)
(0.0975259 0.000408863 0)
(0.0974151 0.000427867 0)
(0.0973015 0.000447823 0)
(0.097185 0.000468756 0)
(0.0970655 0.0004907 0)
(0.096943 0.000513691 0)
(0.0968173 0.000537769 0)
(0.0966884 0.000562976 0)
(0.0965562 0.000589356 0)
(0.0964206 0.000616956 0)
(0.0962816 0.000645823 0)
(0.096139 0.000676005 0)
(0.0959928 0.000707555 0)
(0.0958429 0.000740525 0)
(0.0956892 0.00077497 0)
(0.0955316 0.000810948 0)
(0.0953701 0.000848522 0)
(0.0952046 0.000887769 0)
(0.095035 0.000928796 0)
(0.0948613 0.00097181 0)
(0.0946834 0.00101732 0)
(0.0999997 5.64386e-06 0)
(0.0999951 1.67919e-05 0)
(0.0999854 2.78055e-05 0)
(0.0999713 3.86747e-05 0)
(0.0999529 4.94018e-05 0)
(0.0999306 6.02278e-05 0)
(0.0999044 7.19349e-05 0)
(0.0998739 8.58727e-05 0)
(0.0998382 0.000103539 0)
(0.0997961 0.000125883 0)
(0.0997461 0.000152713 0)
(0.0996871 0.00018255 0)
(0.0996186 0.00021298 0)
(0.0995412 0.00024134 0)
(0.0994562 0.000265424 0)
(0.0993655 0.000283953 0)
(0.0992711 0.00029672 0)
(0.0991748 0.000304436 0)
(0.0990782 0.000308406 0)
(0.0989823 0.00031016 0)
(0.0988876 0.000311159 0)
(0.0987942 0.000312596 0)
(0.098702 0.000315319 0)
(0.0986105 0.000319837 0)
(0.0985194 0.000326376 0)
(0.0984281 0.00033496 0)
(0.0983361 0.000345488 0)
(0.0982431 0.000357796 0)
(0.0981487 0.000371709 0)
(0.0980526 0.000387064 0)
(0.0979546 0.000403727 0)
(0.0978545 0.000421601 0)
(0.0977521 0.000440618 0)
(0.0976474 0.000460743 0)
(0.0975401 0.000481963 0)
(0.0974301 0.000504283 0)
(0.0973175 0.000527723 0)
(0.0972021 0.000552313 0)
(0.0970837 0.000578089 0)
(0.0969624 0.000605093 0)
(0.096838 0.000633371 0)
(0.0967105 0.000662972 0)
(0.0965797 0.000693946 0)
(0.0964457 0.000726345 0)
(0.0963083 0.000760226 0)
(0.0961674 0.000795644 0)
(0.0960231 0.000832656 0)
(0.0958751 0.000871325 0)
(0.0957235 0.000911711 0)
(0.0955681 0.00095388 0)
(0.095409 0.000997903 0)
(0.0952459 0.00104386 0)
(0.095079 0.00109186 0)
(0.0949081 0.00114207 0)
(0.0947333 0.00119492 0)
(0.0943643 9.8682e-05 -4.49393e-24)
(0.0941647 0.000103748 -4.58172e-24)
(0.0939553 0.000109187 -3.1746e-26)
(0.0937355 0.000114994 1.40792e-23)
(0.0935046 0.000121194 -4.66363e-24)
(0.0932618 0.000127826 -4.80044e-24)
(0.0930064 0.000134931 -1.47834e-23)
(0.0927374 0.000142552 1.46786e-23)
(0.0924538 0.000150738 5.02337e-24)
(0.0921546 0.000159543 0)
(0.0918387 0.000169028 5.19074e-24)
(0.0915046 0.000179262 -5.28079e-24)
(0.0911512 0.000190319 4.34476e-23)
(0.0907766 0.000202286 -9.31215e-23)
(0.0903794 0.000215259 4.97776e-23)
(0.0899575 0.000229344 4.03472e-23)
(0.0895088 0.000244666 5.17735e-23)
(0.0890311 0.000261363 -5.92999e-24)
(0.0885218 0.000279594 6.05997e-24)
(0.0879778 0.000299541 -6.19744e-24)
(0.0873961 0.00032141 0)
(0.0867729 0.000345442 6.49718e-24)
(0.0861042 0.000371916 -6.66078e-24)
(0.0853854 0.000401158 0)
(0.0846111 0.00043355 -7.01923e-24)
(0.0837755 0.000469545 0)
(0.0828717 0.000509678 -7.42536e-24)
(0.0818918 0.000554589 -1.24445e-22)
(0.0808266 0.000605047 1.32142e-22)
(0.0796656 0.000661979 -1.32654e-22)
(0.0783964 0.000726511 1.32452e-22)
(0.0770044 0.000800013 0)
(0.0754723 0.000884163 0)
(0.0737797 0.000981016 1.62338e-22)
(0.0719021 0.00109309 -1.52743e-22)
(0.0698101 0.00122343 0)
(0.0674684 0.0013757 0)
(0.0648349 0.00155414 0)
(0.0618596 0.00176346 0)
(0.0584838 0.00200833 0)
(0.0546412 0.00229251 0)
(0.0502602 0.00261704 0)
(0.045271 0.00297728 0)
(0.0396183 0.00335811 0)
(0.0332862 0.00372685 -1.4979e-23)
(0.0263368 0.00402302 -5.13955e-22)
(0.018954 0.00414602 5.13184e-22)
(0.0115156 0.00394208 5.57471e-22)
(0.00493081 0.00317501 -5.56634e-22)
(0.00100533 0.00147624 0)
(0.0943733 0.000295814 -4.54662e-24)
(0.0941739 0.000311031 -9.27419e-24)
(0.0939647 0.000327293 -4.86238e-24)
(0.0937452 0.000344658 4.5281e-24)
(0.0935145 0.000363212 -4.72875e-24)
(0.0932721 0.000383065 3.38921e-23)
(0.093017 0.000404333 -5.32277e-23)
(0.0927484 0.000427149 4.94438e-24)
(0.0924654 0.000451659 6.60042e-23)
(0.0921667 0.000478024 -9.11592e-23)
(0.0918514 0.000506429 -8.90391e-23)
(0.0915181 0.000537076 7.84582e-23)
(0.0911654 0.000570193 0)
(0.0907917 0.000606037 5.48047e-24)
(0.0903954 0.000644894 -1.67507e-23)
(0.0899746 0.000687087 -1.89998e-22)
(0.0895272 0.000732985 1.8237e-22)
(0.0890509 0.000783007 -1.93865e-22)
(0.0885431 0.00083763 -1.82063e-23)
(0.0880009 0.000897395 6.21103e-24)
(0.0874212 0.000962924 0)
(0.0868003 0.00103494 -6.51401e-24)
(0.0861342 0.00111427 -2.09948e-22)
(0.0854184 0.00120191 4.38758e-22)
(0.0846476 0.00129899 2.42084e-22)
(0.0838159 0.00140687 -4.56555e-22)
(0.0829167 0.00152715 4.91728e-22)
(0.0819422 0.00166176 -4.98966e-22)
(0.0808835 0.00181298 -7.91894e-24)
(0.0797301 0.0019836 0)
(0.0784701 0.00217696 0)
(0.0770891 0.00239718 0)
(0.0755706 0.00264923 0)
(0.0738946 0.00293925 -9.40863e-24)
(0.0720377 0.0032747 -6.37981e-22)
(0.0699716 0.00366464 -2.69214e-23)
(0.0676629 0.0041199 6.63174e-22)
(0.0650713 0.004653 7.22079e-22)
(0.0621494 0.00527774 -7.21123e-22)
(0.0588417 0.00600781 -2.39449e-23)
(0.0550853 0.00685396 -2.50079e-23)
(0.0508119 0.00781876 -8.62028e-22)
(0.0459538 0.00888762 8.33638e-22)
(0.0404548 0.0100147 -2.83918e-23)
(0.0342909 0.011102 1.50837e-23)
(0.0275047 0.011969 -1.04508e-21)
(0.0202435 0.012316 1.04469e-21)
(0.0128226 0.0116864 -2.1796e-21)
(0.00602809 0.00938788 2.14315e-21)
(0.00145117 0.00433348 -2.19587e-21)
(0.0943912 0.000491964 -2.68942e-23)
(0.0941922 0.000517273 -9.4396e-24)
(0.0939835 0.000544256 3.64053e-23)
(0.0937645 0.000573068 -7.49017e-23)
(0.0935345 0.000603865 1.60282e-22)
(0.0932927 0.000636822 -7.59325e-23)
(0.0930384 0.000672134 1.4183e-26)
(0.0927707 0.000710019 9.86134e-24)
(0.0924886 0.00075072 1.71975e-22)
(0.0921911 0.00079451 -1.6177e-22)
(0.091877 0.000841692 0)
(0.0915451 0.000892605 1.45865e-26)
(0.091194 0.000947629 0)
(0.0908221 0.00100719 1.8826e-22)
(0.0904279 0.00107176 -1.65944e-22)
(0.0900093 0.00114189 -3.57822e-22)
(0.0895644 0.00121818 1.99112e-23)
(0.0890909 0.00130134 -3.76788e-22)
(0.0885863 0.00139216 1.21824e-23)
(0.0880478 0.00149153 -4.03681e-22)
(0.0874722 0.0016005 4.16048e-22)
(0.086856 0.00172027 -4.24027e-22)
(0.0861953 0.00185223 4.37028e-22)
(0.0854856 0.001998 1.37563e-23)
(0.0847218 0.00215949 -1.41342e-23)
(0.0838984 0.00233896 1.4536e-23)
(0.0830087 0.00253907 -4.8695e-22)
(0.0820453 0.002763 5.01942e-22)
(0.0809997 0.00301456 5.34129e-22)
(0.079862 0.00329835 -5.17735e-22)
(0.0786206 0.00361991 0)
(0.0772622 0.00398599 0)
(0.0757711 0.00440482 1.81933e-23)
(0.0741289 0.00488644 1.25365e-21)
(0.072314 0.00544305 3.00225e-23)
(0.0703006 0.00608942 -1.26166e-21)
(0.0680584 0.00684309 0)
(0.0655513 0.00772423 -2.20412e-23)
(0.062737 0.00875485 1.53481e-21)
(0.0595664 0.00995645 -3.06379e-21)
(0.0559834 0.0113453 3.24747e-21)
(0.0519263 0.0129236 9.75482e-23)
(0.0473314 0.0146649 -1.68687e-21)
(0.0421402 0.0164914 -1.82534e-21)
(0.0363132 0.0182397 1.88117e-21)
(0.0298524 0.0196131 1.45371e-24)
(0.0228306 0.02012 -3.19709e-23)
(0.0154397 0.0190105 2.10589e-21)
(0.00820546 0.0151827 -2.03921e-21)
(0.00230794 0.00694303 -2.03975e-21)
(0.0944181 0.000686439 1.77194e-23)
(0.0942196 0.000721658 -8.99288e-24)
(0.0940116 0.000759208 1.94869e-26)
(0.0937934 0.000799296 9.25519e-24)
(0.0935643 0.000842145 -1.95976e-26)
(0.0933237 0.000888001 1.53795e-22)
(0.0930706 0.000937137 -2.90632e-22)
(0.0928043 0.000989861 1.56205e-22)
(0.0925238 0.00104651 -1.00019e-23)
(0.0922281 0.00110748 1.84894e-22)
(0.091916 0.00117317 -1.64463e-22)
(0.0915863 0.00124407 -3.41384e-22)
(0.0912377 0.00132071 6.89344e-22)
(0.0908686 0.00140367 -7.03007e-22)
(0.0904775 0.00149364 7.17333e-22)
(0.0900624 0.00159136 -7.21004e-22)
(0.0896215 0.00169768 -3.81723e-22)
(0.0891525 0.00181358 2.25304e-26)
(0.0886529 0.00194018 0)
(0.0881201 0.00207873 -3.93109e-22)
(0.0875509 0.00223068 4.05449e-22)
(0.086942 0.0023977 0)
(0.0862897 0.00258175 -8.75853e-22)
(0.0855896 0.00278508 8.61641e-22)
(0.0848369 0.00301037 1.42688e-23)
(0.0840262 0.00326075 -3.71076e-26)
(0.0831514 0.00353993 1.50823e-23)
(0.0822054 0.00385233 0)
(0.0811803 0.00420325 -5.31876e-26)
(0.0800668 0.00459904 0)
(0.0788544 0.00504738 -1.71239e-23)
(0.077531 0.00555756 1.15792e-21)
(0.0760824 0.00614087 -1.1576e-21)
(0.0744924 0.00681102 -1.91481e-23)
(0.0727421 0.00758463 3.96323e-23)
(0.0708093 0.00848165 -1.3661e-21)
(0.0686686 0.0095256 1.32363e-21)
(0.0662901 0.0107433 2.24223e-23)
(0.0636393 0.0121635 -3.56496e-25)
(0.0606763 0.0138136 2.39105e-23)
(0.0573553 0.015713 -1.64152e-21)
(0.0536243 0.0178606 3.31804e-21)
(0.0494258 0.0202155 -1.72948e-21)
(0.044698 0.0226659 1.78795e-21)
(0.0393777 0.0249844 -1.87176e-21)
(0.0334058 0.0267664 -3.7181e-21)
(0.0267382 0.0273453 7.58522e-21)
(0.0193814 0.0256954 -3.83992e-21)
(0.0115082 0.020343 0)
(0.00358066 0.00919323 -3.61118e-21)
(0.0944536 0.000878586 -8.78846e-24)
(0.094256 0.000923502 -3.59069e-23)
(0.0940489 0.00097138 1.08862e-22)
(0.0938319 0.00102249 -1.47008e-22)
(0.0936042 0.00107712 6.47506e-23)
(0.0933651 0.00113559 9.49736e-24)
(0.0931138 0.00119825 -9.65741e-24)
(0.0928495 0.0012655 -2.46225e-26)
(0.0925712 0.00133777 9.99996e-24)
(0.092278 0.00141556 -2.03422e-23)
(0.0919688 0.0014994 -3.34805e-22)
(0.0916423 0.0015899 3.45533e-22)
(0.0912972 0.00168773 -3.37583e-22)
(0.0909321 0.00179367 3.4848e-22)
(0.0905454 0.00190855 0)
(0.0901353 0.00203335 -2.48446e-26)
(0.0896999 0.00216916 0)
(0.0892372 0.00231723 -3.76773e-22)
(0.0887447 0.00247897 4.01255e-22)
(0.0882199 0.00265601 -1.26128e-23)
(0.0876598 0.00285019 -8.50397e-22)
(0.0870613 0.00306365 8.37844e-22)
(0.0864208 0.00329889 -1.36315e-23)
(0.0857342 0.00355881 0)
(0.0849971 0.00384679 0)
(0.0842045 0.00416685 -9.77712e-22)
(0.0833506 0.0045237 9.48009e-22)
(0.0824291 0.00492298 0)
(0.0814327 0.00537139 -3.25359e-23)
(0.0803533 0.00587696 0)
(0.0791815 0.00644937 1.74244e-23)
(0.0779069 0.00710027 -1.79572e-23)
(0.0765174 0.00784375 -1.87049e-23)
(0.0749997 0.00869685 1.9278e-23)
(0.0733385 0.00968002 1.26867e-21)
(0.0715167 0.0108177 -1.3094e-21)
(0.0695149 0.0121382 2.84641e-21)
(0.0673117 0.0136736 -2.84823e-21)
(0.0648827 0.0154575 3.02297e-21)
(0.0622004 0.0175206 8.66059e-23)
(0.0592324 0.0198825 -3.18523e-21)
(0.05594 0.0225358 -2.54334e-23)
(0.052274 0.0254225 1.26058e-24)
(0.048169 0.0283965 1.66839e-24)
(0.0435333 0.0311716 2.20139e-24)
(0.038231 0.0332498 -5.50109e-23)
(0.0320612 0.0338219 -2.52439e-23)
(0.0247707 0.0316266 -2.40044e-23)
(0.0160716 0.0248333 0)
(0.00529311 0.0110771 7.46391e-24)
(0.0944976 0.00106779 -4.36122e-23)
(0.0943011 0.00112218 2.62344e-23)
(0.0940955 0.00118017 8.97809e-24)
(0.09388 0.00124209 1.37845e-22)
(0.0936542 0.0013083 -1.37895e-22)
(0.0934173 0.00137919 1.42699e-22)
(0.0931684 0.00145519 -3.16776e-22)
(0.0929068 0.00153678 4.51061e-22)
(0.0926316 0.00162451 -3.15962e-22)
(0.0923419 0.00171895 -3.27857e-22)
(0.0920364 0.00182077 -1.65034e-23)
(0.0917142 0.00193071 6.65922e-22)
(0.0913738 0.0020496 -7.01541e-22)
(0.091014 0.00217836 3.27232e-22)
(0.0906332 0.00231803 3.53251e-22)
(0.0902298 0.0024698 3.69391e-22)
(0.0898019 0.002635 -2.8553e-23)
(0.0893476 0.00281515 7.5285e-22)
(0.0888646 0.00301199 7.77679e-22)
(0.0883505 0.00322749 1.97575e-23)
(0.0878026 0.0034639 -8.24578e-22)
(0.0872179 0.00372384 0)
(0.0865932 0.00401036 0)
(0.0859247 0.00432699 -9.19691e-22)
(0.0852085 0.00467786 9.06481e-22)
(0.0844399 0.00506784 9.76735e-22)
(0.083614 0.00550267 -9.78182e-22)
(0.0827252 0.00598917 0)
(0.0817671 0.00653542 1.09239e-21)
(0.080733 0.00715109 -1.0945e-21)
(0.0796151 0.00784775 0)
(0.0784049 0.00863923 -2.3692e-21)
(0.0770934 0.00954216 2.39114e-21)
(0.0756704 0.0105764 -1.97645e-23)
(0.0741254 0.0117654 -2.64378e-21)
(0.0724473 0.013137 2.66831e-21)
(0.0706247 0.0147224 0)
(0.0686461 0.0165563 2.99508e-21)
(0.0665 0.018673 -2.97661e-21)
(0.064174 0.0211016 2.41166e-23)
(0.0616529 0.0238544 3.28391e-21)
(0.058915 0.0269101 -6.58788e-21)
(0.0559234 0.0301853 1.96117e-23)
(0.0526121 0.0334943 3.71591e-23)
(0.0488618 0.0364942 3.4159e-21)
(0.0444571 0.038614 3.80103e-24)
(0.039024 0.0389511 -2.93263e-21)
(0.0319765 0.036107 3.00639e-21)
(0.0223345 0.0280542 0)
(0.00769289 0.0123046 2.67961e-23)
(0.09455 0.00125324 8.58878e-24)
(0.0943552 0.00131657 7.91379e-23)
(0.0941515 0.00138418 -7.05747e-23)
(0.0939384 0.00145644 9.06163e-24)
(0.0937151 0.00153376 1.39319e-22)
(0.0934811 0.00161662 -1.39539e-22)
(0.0932356 0.00170551 -2.99028e-22)
(0.0929776 0.00180101 4.43308e-24)
(0.0927065 0.00190374 -5.60151e-24)
(0.0924213 0.00201441 3.32193e-22)
(0.0921209 0.00213379 -3.24564e-22)
(0.0918043 0.00226278 6.88765e-22)
(0.0914702 0.00240233 -3.4322e-22)
(0.0911174 0.00255357 1.10964e-23)
(0.0907444 0.00271773 1.1357e-23)
(0.0903497 0.0028962 7.51387e-22)
(0.0899317 0.00309058 -5.01772e-24)
(0.0894884 0.0033027 7.84452e-22)
(0.0890179 0.0035346 1.25408e-23)
(0.0885179 0.00378865 0)
(0.0879861 0.00406753 0)
(0.0874197 0.00437438 -8.80987e-22)
(0.0868158 0.00471282 8.83213e-22)
(0.0861712 0.00508707 0)
(0.0854824 0.00550207 1.48641e-23)
(0.0847457 0.00596361 0)
(0.0839566 0.00647853 -1.02676e-21)
(0.0831108 0.0070549 2.0905e-21)
(0.0822032 0.00770232 -1.06382e-21)
(0.0812285 0.00843217 -2.25476e-21)
(0.0801811 0.00925799 -7.57304e-23)
(0.079055 0.0101959 -7.9879e-23)
(0.0778443 0.011265 -8.3931e-23)
(0.0765431 0.0124878 2.53513e-21)
(0.0751461 0.0138905 2.71992e-21)
(0.073649 0.015503 -2.72639e-21)
(0.072049 0.0173581 0)
(0.0703456 0.0194894 3.01649e-21)
(0.0685408 0.0219268 -3.0235e-21)
(0.0666384 0.0246889 -3.2099e-21)
(0.064642 0.0277685 3.19222e-21)
(0.0625485 0.031112 2.60921e-23)
(0.060337 0.034588 3.20686e-21)
(0.0579474 0.0379462 -1.05313e-22)
(0.0552464 0.0407667 -3.16764e-21)
(0.0519643 0.0424079 2.41715e-23)
(0.0476051 0.0419427 0)
(0.0413342 0.0380313 -1.92515e-23)
(0.0313265 0.0288513 -9.14592e-22)
(0.0123954 0.0122426 4.25022e-22)
(-0.000228745 0.00030738 0)
(-0.000984089 0.00057566 3.18984e-22)
(-0.00208813 0.000627337 -3.19463e-22)
(-0.00317116 0.000558996 -3.17393e-22)
(-0.0040528 0.000424076 3.17871e-22)
(-0.00465652 0.000254583 -9.74909e-24)
(-0.00494145 7.05205e-05 0)
(-0.00489522 -0.000115567 0)
(-0.00452289 -0.000298079 0)
(-0.00383323 -0.000472219 0)
(-0.0028411 -0.00063521 0)
(-0.00156616 -0.00078582 0)
(-2.8446e-05 -0.000924318 0)
(0.00174934 -0.00104789 0)
(0.00374272 -0.00115808 0)
(0.00592894 -0.00125485 9.03963e-23)
(0.00828482 -0.00133832 -8.50879e-23)
(0.0107874 -0.00140884 0)
(0.0134143 -0.00146685 0)
(0.0161437 -0.00151288 -6.07254e-23)
(0.0189546 -0.0015475 6.08181e-23)
(0.021827 -0.00157132 -4.41438e-23)
(0.0247419 -0.00158495 2.78701e-24)
(0.027681 -0.00158904 0)
(0.0306274 -0.00158433 2.06075e-24)
(0.0335653 -0.00157161 0)
(0.0364805 -0.00155166 0)
(0.0393597 -0.00152522 0)
(0.0421914 -0.00149305 9.2051e-25)
(0.044965 -0.00145589 0)
(0.0476714 -0.00141443 -5.0471e-25)
(0.0503027 -0.00136938 3.32382e-25)
(0.0528522 -0.00132138 -1.82017e-25)
(0.0553145 -0.00127108 -6.25393e-26)
(0.0576852 -0.00121905 1.73687e-25)
(0.059961 -0.00116585 1.45136e-24)
(0.0621397 -0.00111198 -3.54002e-24)
(0.0642198 -0.00105791 2.1675e-24)
(0.0662011 -0.00100405 3.45591e-25)
(0.0680836 -0.000950786 -3.85763e-25)
(0.0698683 -0.000898444 0)
(0.071557 -0.000847309 -4.38231e-25)
(0.0731516 -0.000797628 2.29945e-24)
(0.0746548 -0.000749604 -2.31094e-24)
(0.0760695 -0.000703401 4.65038e-25)
(0.077399 -0.000659146 -1.3942e-24)
(0.0786468 -0.000616934 4.71784e-25)
(0.0798167 -0.000576821 9.02533e-25)
(0.0809123 -0.000538832 -4.50814e-25)
(0.0819376 -0.000502962 4.31569e-25)
(-0.000295154 0.000883555 -1.21181e-21)
(-0.00109213 0.001648 -1.32435e-21)
(-0.00209136 0.0017949 1.30541e-21)
(-0.00301299 0.00159551 -6.24796e-22)
(-0.00372072 0.0012023 6.2592e-22)
(-0.00415727 0.000707983 9.81674e-24)
(-0.00429094 0.000170361 -1.93792e-23)
(-0.00411533 -0.000374117 -6.0657e-22)
(-0.00363677 -0.000909327 5.88524e-22)
(-0.00286154 -0.00142094 -1.74655e-23)
(-0.00180352 -0.00190086 -1.66818e-23)
(-0.000481919 -0.00234611 4.88112e-22)
(0.0010881 -0.00275187 -4.88761e-22)
(0.00288531 -0.00311816 -4.28939e-22)
(0.00488452 -0.00344499 3.11516e-23)
(0.00706647 -0.0037321 3.98889e-22)
(0.00940942 -0.00398009 -5.47267e-24)
(0.0118917 -0.00418991 -1.01696e-23)
(0.0144921 -0.00436279 0)
(0.01719 -0.00450023 0)
(0.0199654 -0.00460391 0)
(0.0227991 -0.00467559 -3.19876e-24)
(0.0256729 -0.00471704 1.59899e-22)
(0.0285693 -0.00473011 -1.73653e-22)
(0.031472 -0.00471699 1.2117e-22)
(0.0343656 -0.00468002 -7.18305e-23)
(0.0372364 -0.00462148 -9.40198e-23)
(0.0400716 -0.0045436 4.24352e-23)
(0.0428598 -0.00444859 -9.2288e-25)
(0.0455909 -0.00433862 -1.49984e-24)
(0.048256 -0.0042158 5.0581e-25)
(0.0508473 -0.00408219 -1.08046e-24)
(0.0533584 -0.00393975 3.87825e-24)
(0.0557839 -0.00379035 -4.43798e-24)
(0.0581195 -0.00363573 2.41665e-25)
(0.060362 -0.00347755 4.0098e-25)
(0.0625092 -0.00331732 -2.30687e-25)
(0.0645597 -0.00315643 0)
(0.066513 -0.00299612 6.04213e-24)
(0.0683695 -0.00283753 -5.36119e-24)
(0.07013 -0.00268164 -5.94348e-24)
(0.0717961 -0.00252931 8.03228e-24)
(0.0733698 -0.00238127 -4.52895e-25)
(0.0748537 -0.00223814 -2.31048e-24)
(0.0762507 -0.00210041 4.11424e-24)
(0.0775639 -0.00196846 4.6375e-25)
(0.0787968 -0.00184258 3.16665e-24)
(0.079953 -0.00172294 3.98936e-25)
(0.0810361 -0.00160961 -9.1072e-25)
(0.0820501 -0.00150256 -1.29937e-24)
(-0.000411432 0.0013495 -1.2606e-21)
(-0.001268 0.0024864 1.38071e-21)
(-0.00204636 0.00270931 -1.33948e-21)
(-0.00265001 0.00239566 -2.07964e-23)
(-0.00302129 0.00177913 -4.06208e-25)
(-0.00313751 0.00100467 -1.26044e-21)
(-0.00298317 0.000161597 1.30179e-21)
(-0.00256259 -0.000704776 1.22628e-21)
(-0.00188417 -0.00155927 -2.70364e-23)
(-0.000948984 -0.00237797 -2.25954e-21)
(0.000230507 -0.0031483 2.19177e-21)
(0.00164163 -0.00386403 -1.045e-21)
(0.00327034 -0.00451848 -1.54154e-23)
(0.00509778 -0.00511315 0)
(0.00710614 -0.0056448 8.34727e-22)
(0.0092776 -0.00611315 -7.61413e-23)
(0.0115934 -0.00651893 -7.47566e-22)
(0.0140345 -0.00686337 2.08256e-23)
(0.0165822 -0.00714822 0)
(0.0192179 -0.00737567 0)
(0.0219235 -0.00754827 2.28615e-22)
(0.0246817 -0.00766876 -2.21966e-22)
(0.0274755 -0.00773984 -1.70207e-22)
(0.0302889 -0.00776458 1.81184e-22)
(0.0331066 -0.00774616 4.52095e-24)
(0.0359144 -0.0076885 -3.84147e-24)
(0.0386992 -0.00759528 3.21605e-24)
(0.0414492 -0.0074701 -7.03625e-23)
(0.0441536 -0.00731654 7.30767e-23)
(0.0468027 -0.00713814 -4.05467e-23)
(0.0493881 -0.00693838 4.37579e-23)
(0.0519023 -0.00672061 7.50371e-25)
(0.0543392 -0.00648805 1.12162e-23)
(0.0566937 -0.00624378 -1.43348e-23)
(0.0589616 -0.00599071 3.21873e-24)
(0.0611398 -0.00573154 -4.94171e-24)
(0.0632262 -0.00546878 4.37184e-24)
(0.0652195 -0.00520473 0)
(0.0671191 -0.00494148 -7.01176e-26)
(0.0689252 -0.00468089 0)
(0.0706388 -0.00442461 -1.28273e-23)
(0.0722613 -0.00417407 1.19374e-23)
(0.0737947 -0.00393049 -8.28812e-25)
(0.0752412 -0.0036949 -4.29845e-26)
(0.0766038 -0.00346812 -7.15069e-24)
(0.0778854 -0.00325079 1.3343e-23)
(0.0790894 -0.0030434 -7.13225e-24)
(0.0802191 -0.00284623 3.42464e-24)
(0.0812781 -0.00265942 -2.60715e-24)
(0.0822701 -0.00248285 -8.7013e-25)
(-0.000546288 0.00161507 -2.72934e-21)
(-0.00142225 0.00296014 0)
(-0.00183699 0.0032339 2.82278e-21)
(-0.00197963 0.0028298 -5.63982e-21)
(-0.00187318 0.00204461 2.83824e-21)
(-0.00154043 0.00105734 1.29221e-21)
(-0.000997919 -2.36098e-05 -1.35588e-21)
(-0.000252478 -0.00114983 1.25485e-21)
(0.00069736 -0.00226413 -2.48242e-21)
(0.0018481 -0.00333815 1.20847e-21)
(0.0031904 -0.00435655 1.78884e-23)
(0.00471571 -0.00530755 3.95033e-25)
(0.00641605 -0.00618474 1.56804e-23)
(0.00827948 -0.00698375 -9.36445e-22)
(0.0102931 -0.00770154 9.07945e-22)
(0.0124432 -0.00833701 2.58391e-23)
(0.0147149 -0.00889024 -1.17117e-23)
(0.0170931 -0.00936221 6.65128e-22)
(0.0195622 -0.0097547 -6.64981e-22)
(0.0221066 -0.0100702 -9.13597e-24)
(0.0247109 -0.0103117 0)
(0.0273599 -0.0104827 3.45064e-25)
(0.0300389 -0.0105867 0)
(0.0327335 -0.0106272 5.623e-24)
(0.03543 -0.0106089 2.96812e-25)
(0.0381157 -0.0105363 3.87781e-24)
(0.0407785 -0.0104148 -1.99456e-22)
(0.0434077 -0.010249 1.96525e-22)
(0.0459932 -0.0100439 0)
(0.0485262 -0.00980413 -4.95108e-23)
(0.0509987 -0.00953453 5.11913e-23)
(0.0534039 -0.00923967 0)
(0.055736 -0.00892396 -1.65269e-25)
(0.05799 -0.00859164 -7.62375e-24)
(0.0601622 -0.00824672 7.60983e-24)
(0.0622496 -0.00789295 5.95919e-24)
(0.06425 -0.00753381 -1.70841e-23)
(0.0661622 -0.0071725 2.65098e-23)
(0.0679857 -0.00681192 -1.5453e-23)
(0.0697206 -0.00645466 -1.07062e-23)
(0.0713677 -0.00610304 9.30877e-24)
(0.0729284 -0.00575906 7.20295e-25)
(0.0744044 -0.00542444 1.30723e-23)
(0.0757979 -0.00510061 -2.79898e-23)
(0.0771116 -0.00478875 1.32847e-23)
(0.0783483 -0.00448976 4.80185e-26)
(0.079511 -0.00420432 -8.62482e-25)
(0.080603 -0.00393286 -3.92831e-26)
(0.0816276 -0.00367553 8.36223e-25)
(0.0825882 -0.00343215 -1.60126e-24)
(-0.000602223 0.00160382 -1.72654e-24)
(-0.00135136 0.00299114 -2.55029e-23)
(-0.00127158 0.0032793 -2.46838e-23)
(-0.000836333 0.00282146 -2.39404e-23)
(-0.000153455 0.00193685 -4.58299e-23)
(0.000708364 0.000820852 -5.54256e-25)
(0.00170216 -0.00041679 2.14159e-23)
(0.00281994 -0.00171638 -2.12072e-23)
(0.0040748 -0.00301471 -2.04464e-23)
(0.005461 -0.00428114 2.41001e-21)