/*--------------------------------*- C++ -*----------------------------------*\
| =========                 |                                                 |
| \\      /  F ield         | OpenFOAM: The Open Source CFD Toolbox           |
|  \\    /   O peration     | Version:  2412                                  |
|   \\  /    A nd           | Website:  www.openfoam.com                      |
|    \\/     M anipulation  |                                                 |
\*---------------------------------------------------------------------------*/
FoamFile
{
    version     2.0;
    format      ascii;
    arch        "LSB;label=32;scalar=64";
    class       volVectorField;
    location    "20.5";
    object      vorticity;
}
// * * * * * * * * * * * * * * * * * * * * * * * * * * * * * * * * * * * * * //

dimensions      [0 0 -1 0 0 0 0];

internalField   nonuniform List<vector> 
63420
(
(0 0 5.89731e-06)
(0 0 5.88052e-06)
(0 0 5.84984e-06)
(0 0 5.78631e-06)
(0 0 5.76885e-06)
(0 0 6.04804e-06)
(0 0 6.96595e-06)
(0 0 8.71682e-06)
(0 0 1.11062e-05)
(0 0 1.34968e-05)
(0 0 1.50044e-05)
(0 0 1.48405e-05)
(0 0 1.26208e-05)
(0 0 8.4973e-06)
(0 0 3.08345e-06)
(0 0 -2.76263e-06)
(0 0 -8.18902e-06)
(0 0 -1.25449e-05)
(0 0 -1.54758e-05)
(0 0 -1.69216e-05)
(0 0 -1.70492e-05)
(0 0 -1.61587e-05)
(0 0 -1.45942e-05)
(0 0 -1.26767e-05)
(0 0 -1.0666e-05)
(0 0 -8.74657e-06)
(0 0 -7.03079e-06)
(0 0 -5.57193e-06)
(0 0 -4.38043e-06)
(0 0 -3.43937e-06)
(0 0 -2.71718e-06)
(0 0 -2.17677e-06)
(0 0 -1.78146e-06)
(0 0 -1.4983e-06)
(0 0 -1.2995e-06)
(0 0 -1.16269e-06)
(0 0 -1.07048e-06)
(0 0 -1.00977e-06)
(0 0 -9.70912e-07)
(0 0 -9.46919e-07)
(0 0 -9.32834e-07)
(0 0 -9.2519e-07)
(0 0 -9.2159e-07)
(0 0 -9.20392e-07)
(0 0 -9.2047e-07)
(0 0 -9.2104e-07)
(0 0 -9.21495e-07)
(0 0 -9.21118e-07)
(0 0 -9.18297e-07)
(0 0 -9.07918e-07)
(0 0 -8.72641e-07)
(0 0 -7.5463e-07)
(0 0 -3.66944e-07)
(0 0 8.75485e-07)
(0 4.45918e-23 4.74209e-06)
(0 0 1.76872e-05)
(0 0 1.76378e-05)
(0 0 1.75471e-05)
(0 0 1.73584e-05)
(0 0 1.73068e-05)
(0 0 1.81395e-05)
(0 0 2.08787e-05)
(0 0 2.61073e-05)
(0 0 3.32502e-05)
(0 0 4.04106e-05)
(0 0 4.49511e-05)
(0 0 4.45167e-05)
(0 0 3.79533e-05)
(0 0 2.57057e-05)
(0 0 9.59522e-06)
(0 0 -7.82394e-06)
(0 0 -2.40127e-05)
(0 0 -3.70283e-05)
(0 0 -4.58092e-05)
(0 0 -5.01706e-05)
(0 0 -5.06053e-05)
(0 0 -4.80033e-05)
(0 0 -4.3387e-05)
(0 0 -3.7712e-05)
(0 0 -3.1752e-05)
(0 0 -2.60571e-05)
(0 0 -2.09628e-05)
(0 0 -1.66291e-05)
(0 0 -1.30882e-05)
(0 0 -1.02906e-05)
(0 0 -8.14308e-06)
(0 0 -6.53594e-06)
(0 0 -5.36038e-06)
(0 0 -4.51857e-06)
(0 0 -3.92801e-06)
(0 0 -3.52221e-06)
(0 0 -3.24953e-06)
(0 0 -3.07095e-06)
(0 0 -2.95773e-06)
(0 0 -2.8891e-06)
(0 0 -2.8503e-06)
(0 0 -2.83098e-06)
(0 0 -2.82398e-06)
(0 0 -2.82438e-06)
(0 0 -2.82881e-06)
(0 0 -2.83494e-06)
(0 0 -2.84093e-06)
(0 0 -2.84466e-06)
(0 0 -2.84143e-06)
(0 0 -2.81637e-06)
(0 0 -2.71927e-06)
(0 0 -2.38245e-06)
(0 0 -1.26293e-06)
(0 0 2.34179e-06)
(0 4.50596e-23 1.35892e-05)
(0 0 2.94649e-05)
(0 0 2.93827e-05)
(0 0 2.92325e-05)
(0 0 2.89202e-05)
(0 0 2.88329e-05)
(0 0 3.02074e-05)
(0 0 3.47405e-05)
(0 0 4.341e-05)
(0 0 5.52813e-05)
(0 0 6.72292e-05)
(0 0 7.4892e-05)
(0 0 7.43595e-05)
(0 0 6.36973e-05)
(0 0 4.36111e-05)
(0 0 1.70882e-05)
(0 0 -1.16621e-05)
(0 0 -3.84431e-05)
(0 0 -6.00342e-05)
(0 0 -7.46652e-05)
(0 0 -8.20135e-05)
(0 0 -8.28776e-05)
(0 0 -7.87167e-05)
(0 0 -7.12122e-05)
(0 0 -6.19394e-05)
(0 0 -5.21761e-05)
(0 0 -4.28322e-05)
(0 0 -3.44648e-05)
(0 0 -2.73408e-05)
(0 0 -2.15161e-05)
(0 0 -1.69119e-05)
(0 0 -1.3376e-05)
(0 0 -1.07288e-05)
(0 0 -8.79183e-06)
(0 0 -7.40446e-06)
(0 0 -6.43099e-06)
(0 0 -5.76206e-06)
(0 0 -5.31263e-06)
(0 0 -5.01845e-06)
(0 0 -4.83218e-06)
(0 0 -4.71958e-06)
(0 0 -4.65631e-06)
(0 0 -4.62532e-06)
(0 0 -4.61477e-06)
(0 0 -4.61654e-06)
(0 0 -4.62509e-06)
(0 0 -4.63654e-06)
(0 0 -4.64791e-06)
(0 0 -4.6558e-06)
(0 0 -4.65282e-06)
(0 0 -4.61594e-06)
(0 0 -4.46733e-06)
(0 0 -3.94668e-06)
(0 0 -2.20815e-06)
(0 0 3.41099e-06)
(0 2.65892e-22 2.10082e-05)
(0 0 4.12222e-05)
(0 0 4.1107e-05)
(0 0 4.08982e-05)
(0 0 4.04645e-05)
(0 0 4.03394e-05)
(0 0 4.22367e-05)
(0 0 4.85194e-05)
(0 0 6.05696e-05)
(0 0 7.71278e-05)
(0 0 9.38909e-05)
(0 0 0.000104819)
(0 0 0.000104465)
(0 0 9.00988e-05)
(0 0 6.26348e-05)
(0 0 2.61586e-05)
(0 0 -1.35312e-05)
(0 0 -5.06287e-05)
(0 0 -8.0658e-05)
(0 0 -0.000101138)
(0 0 -0.000111587)
(0 0 -0.000113078)
(0 0 -0.000107603)
(0 0 -9.74747e-05)
(0 0 -8.4862e-05)
(0 0 -7.15311e-05)
(0 0 -5.87427e-05)
(0 0 -4.72723e-05)
(0 0 -3.74947e-05)
(0 0 -2.94928e-05)
(0 0 -2.31626e-05)
(0 0 -1.8298e-05)
(0 0 -1.46539e-05)
(0 0 -1.19861e-05)
(0 0 -1.00744e-05)
(0 0 -8.73237e-06)
(0 0 -7.80976e-06)
(0 0 -7.18961e-06)
(0 0 -6.78354e-06)
(0 0 -6.52634e-06)
(0 0 -6.37084e-06)
(0 0 -6.28351e-06)
(0 0 -6.24083e-06)
(0 0 -6.22648e-06)
(0 0 -6.22927e-06)
(0 0 -6.24153e-06)
(0 0 -6.25794e-06)
(0 0 -6.27444e-06)
(0 0 -6.28653e-06)
(0 0 -6.28485e-06)
(0 0 -6.24057e-06)
(0 0 -6.05668e-06)
(0 0 -5.40814e-06)
(0 0 -3.23344e-06)
(0 0 3.83289e-06)
(0 -1.74559e-22 2.6104e-05)
(0 0 5.29516e-05)
(0 0 5.28025e-05)
(0 0 5.25361e-05)
(0 0 5.19842e-05)
(0 0 5.18183e-05)
(0 0 5.42132e-05)
(0 0 6.2186e-05)
(0 0 7.75357e-05)
(0 0 9.87235e-05)
(0 0 0.000120336)
(0 0 0.000134716)
(0 0 0.00013491)
(0 0 0.000117364)
(0 0 8.31368e-05)
(0 0 3.7321e-05)
(0 0 -1.27838e-05)
(0 0 -5.98273e-05)
(0 0 -9.81091e-05)
(0 0 -0.000124434)
(0 0 -0.000138134)
(0 0 -0.000140513)
(0 0 -0.000134053)
(0 0 -0.000121651)
(0 0 -0.000106043)
(0 0 -8.94591e-05)
(0 0 -7.34997e-05)
(0 0 -5.91538e-05)
(0 0 -4.69053e-05)
(0 0 -3.68686e-05)
(0 0 -2.89204e-05)
(0 0 -2.2807e-05)
(0 0 -1.82239e-05)
(0 0 -1.48662e-05)
(0 0 -1.24584e-05)
(0 0 -1.07671e-05)
(0 0 -9.60345e-06)
(0 0 -8.82069e-06)
(0 0 -8.30769e-06)
(0 0 -7.98239e-06)
(0 0 -7.78543e-06)
(0 0 -7.67457e-06)
(0 0 -7.62018e-06)
(0 0 -7.6017e-06)
(0 0 -7.605e-06)
(0 0 -7.62043e-06)
(0 0 -7.6413e-06)
(0 0 -7.66257e-06)
(0 0 -7.6789e-06)
(0 0 -7.67975e-06)
(0 0 -7.63353e-06)
(0 0 -7.43492e-06)
(0 0 -6.73122e-06)
(0 0 -4.36437e-06)
(0 0 3.37855e-06)
(0 8.61728e-23 2.80473e-05)
(0 0 6.46465e-05)
(0 0 6.44609e-05)
(0 0 6.41381e-05)
(0 0 6.34719e-05)
(0 0 6.3262e-05)
(0 0 6.61237e-05)
(0 0 7.57141e-05)
(0 0 9.42637e-05)
(0 0 0.000120009)
(0 0 0.000146508)
(0 0 0.000164562)
(0 0 0.000165742)
(0 0 0.000145647)
(0 0 0.000105397)
(0 0 5.09827e-05)
(0 0 -8.90191e-06)
(0 0 -6.54406e-05)
(0 0 -0.000111747)
(0 0 -0.000143909)
(0 0 -0.000161037)
(0 0 -0.000164616)
(0 0 -0.000157564)
(0 0 -0.000143313)
(0 0 -0.000125124)
(0 0 -0.000105667)
(0 0 -8.68665e-05)
(0 0 -6.99201e-05)
(0 0 -5.54216e-05)
(0 0 -4.35223e-05)
(0 0 -3.40867e-05)
(0 0 -2.68213e-05)
(0 0 -2.1369e-05)
(0 0 -1.7371e-05)
(0 0 -1.45016e-05)
(0 0 -1.24841e-05)
(0 0 -1.10949e-05)
(0 0 -1.01593e-05)
(0 0 -9.54535e-06)
(0 0 -9.15535e-06)
(0 0 -8.91864e-06)
(0 0 -8.78487e-06)
(0 0 -8.71872e-06)
(0 0 -8.69566e-06)
(0 0 -8.69885e-06)
(0 0 -8.71678e-06)
(0 0 -8.74148e-06)
(0 0 -8.76703e-06)
(0 0 -8.78751e-06)
(0 0 -8.79206e-06)
(0 0 -8.74961e-06)
(0 0 -8.55844e-06)
(0 0 -7.8814e-06)
(0 0 -5.61189e-06)
(0 0 1.84645e-06)
(0 4.25191e-22 2.60408e-05)
(0 0 7.62984e-05)
(0 0 7.6073e-05)
(0 0 7.56958e-05)
(0 0 7.49201e-05)
(0 0 7.46626e-05)
(0 0 7.79564e-05)
(0 0 8.9082e-05)
(0 0 0.000110716)
(0 0 0.000140933)
(0 0 0.000172354)
(0 0 0.000194325)
(0 0 0.00019698)
(0 0 0.000175041)
(0 0 0.000129602)
(0 0 6.74267e-05)
(0 0 -1.51746e-06)
(0 0 -6.7038e-05)
(0 0 -0.000121105)
(0 0 -0.000159089)
(0 0 -0.000179841)
(0 0 -0.000184971)
(0 0 -0.000177766)
(0 0 -0.000162142)
(0 0 -0.000141839)
(0 0 -0.000119937)
(0 0 -9.86684e-05)
(0 0 -7.94317e-05)
(0 0 -6.2933e-05)
(0 0 -4.93658e-05)
(0 0 -3.85906e-05)
(0 0 -3.02826e-05)
(0 0 -2.40405e-05)
(0 0 -1.94584e-05)
(0 0 -1.61662e-05)
(0 0 -1.38489e-05)
(0 0 -1.22514e-05)
(0 0 -1.11741e-05)
(0 0 -1.04659e-05)
(0 0 -1.0015e-05)
(0 0 -9.74049e-06)
(0 0 -9.58448e-06)
(0 0 -9.50647e-06)
(0 0 -9.4783e-06)
(0 0 -9.48063e-06)
(0 0 -9.50021e-06)
(0 0 -9.52793e-06)
(0 0 -9.55709e-06)
(0 0 -9.58144e-06)
(0 0 -9.59058e-06)
(0 0 -9.5567e-06)
(0 0 -9.39257e-06)
(0 0 -8.81904e-06)
(0 0 -6.94774e-06)
(0 0 -9.17589e-07)
(0 -8.31798e-23 1.91927e-05)
(-1.70286e-23 7.94493e-21 2.82822e-06)
(-1.4569e-22 7.81191e-21 2.22038e-06)
(3.24851e-23 -1.95002e-22 1.40271e-06)
(3.76606e-23 -2.33225e-20 3.33532e-07)
(-9.12686e-23 7.96727e-21 -1.02418e-06)
(3.58488e-22 7.82572e-21 -2.69946e-06)
(-7.84584e-22 2.28163e-20 -4.71653e-06)
(3.07828e-22 -2.3183e-20 -7.09779e-06)
(6.19888e-22 -7.45999e-21 -9.86585e-06)
(-8.85679e-22 -3.68186e-24 -1.30455e-05)
(-8.85159e-22 -7.47448e-21 -1.66651e-05)
(7.75295e-22 7.1012e-21 -2.0758e-05)
(5.59966e-22 -5.84956e-20 -2.53644e-05)
(-1.03406e-21 1.25575e-19 -3.05319e-05)
(3.56157e-22 -6.75516e-20 -3.63143e-05)
(-1.21405e-21 -5.0933e-20 -4.27645e-05)
(2.33204e-21 -6.48575e-20 -4.99377e-05)
(-1.83024e-21 7.64147e-21 -5.79084e-05)
(-1.86347e-22 -7.13074e-21 -6.67766e-05)
(7.13289e-23 7.13528e-21 -7.66381e-05)
(-3.1019e-24 -1.26872e-22 -8.75828e-05)
(-6.63097e-23 -6.88255e-21 -9.97071e-05)
(-1.98305e-21 6.94189e-21 -0.000113118)
(4.14738e-21 1.27467e-23 -0.00012793)
(1.20983e-21 6.73948e-21 -0.000144269)
(-3.23137e-21 -5.24415e-24 -0.000162274)
(4.64948e-21 7.82405e-21 -0.000182111)
(-5.45573e-21 1.01547e-19 -0.000203985)
(6.80103e-22 -1.09041e-19 -0.000228165)
(-2.10565e-21 9.95948e-20 -0.000255019)
(2.05126e-21 -1.00722e-19 -0.000285083)
(4.78387e-23 1.32284e-21 -0.000319166)
(-6.22474e-23 -1.62352e-21 -0.000358543)
(2.74131e-21 -9.52988e-20 -0.000405292)
(-8.53474e-21 9.24821e-20 -0.000462893)
(-3.10484e-22 -1.52606e-21 -0.000537276)
(6.11485e-21 1.33738e-23 -0.000638604)
(6.64547e-21 1.45343e-23 -0.000784238)
(-6.62421e-21 -1.44878e-23 -0.00100343)
(-2.19545e-22 -4.80166e-25 -0.0013444)
(-2.28863e-22 -5.00545e-25 -0.00188431)
(-7.87421e-21 -1.72217e-23 -0.0027422)
(7.6007e-21 1.66235e-23 -0.00409373)
(-2.50889e-22 1.49237e-22 -0.00618483)
(-3.2938e-23 7.72308e-21 -0.00933852)
(-2.43232e-20 4.99803e-20 -0.0139465)
(2.34278e-20 -6.58618e-20 -0.0204331)
(-5.49165e-21 -9.35069e-21 -0.0291779)
(6.03634e-21 2.55709e-20 -0.0403914)
(-2.00696e-20 -5.60277e-21 -0.0538646)
(-2.55839e-22 7.95627e-21 8.18593e-06)
(-1.03863e-22 1.56513e-20 6.29455e-06)
(2.98509e-22 7.61236e-21 3.72015e-06)
(-8.59896e-22 -7.82488e-21 3.37531e-07)
(1.59714e-21 7.46456e-21 -3.95474e-06)
(-4.91202e-22 -5.34512e-20 -9.23836e-06)
(-2.19938e-22 8.48716e-20 -1.55823e-05)
(-5.58945e-23 -8.83345e-21 -2.30518e-05)
(2.15068e-21 -9.77381e-20 -3.1715e-05)
(-2.23804e-21 1.37984e-19 -4.16481e-05)
(-8.24036e-22 1.26091e-19 -5.29405e-05)
(6.08203e-22 -1.13428e-19 -6.56981e-05)
(-3.87368e-22 7.26167e-22 -8.00474e-05)
(2.76362e-21 -7.22458e-21 -9.61397e-05)
(-2.15383e-21 2.40123e-20 -0.000114146)
(-5.90876e-21 2.38596e-19 -0.000134235)
(1.62318e-21 -2.24364e-19 -0.00015658)
(-5.53126e-21 2.40437e-19 -0.000181418)
(-2.94151e-22 1.9468e-20 -0.000209063)
(-3.78536e-21 -7.29243e-21 -0.000239825)
(4.00184e-21 1.43164e-22 -0.000273992)
(-4.01487e-21 9.05106e-21 -0.000311875)
(9.83494e-22 2.08811e-19 -0.000353821)
(5.88879e-21 -4.42098e-19 -0.000400206)
(4.47999e-21 -2.11191e-19 -0.00045144)
(-6.96688e-21 4.27542e-19 -0.000507987)
(3.65811e-21 -4.26273e-19 -0.00057039)
(-2.00961e-21 4.37368e-19 -0.000639321)
(3.24088e-21 1.46076e-21 -0.000715644)
(-3.6708e-21 -9.61952e-23 -0.000800542)
(-1.2333e-21 -2.69736e-24 -0.000895705)
(0 0 -0.00100366)
(1.82259e-22 9.45804e-23 -0.00112834)
(1.08938e-20 1.22177e-20 -0.00127613)
(-1.56419e-20 3.56935e-19 -0.00145767)
(-1.55555e-20 -2.39948e-20 -0.00169102)
(1.84438e-20 -3.52025e-19 -0.00200711)
(2.63163e-20 -3.04119e-19 -0.00245871)
(-9.36612e-21 3.24862e-19 -0.00313465)
(-3.07419e-20 2.16065e-21 -0.00418126)
(3.00011e-20 1.71158e-20 -0.00583246)
(-4.16676e-20 2.31572e-19 -0.00844872)
(2.25788e-20 -2.40869e-19 -0.0125614)
(-1.77592e-20 1.44743e-20 -0.0189136)
(1.96805e-20 7.61053e-21 -0.0284808)
(-5.90768e-20 1.11835e-19 -0.0424448)
(5.90006e-20 -1.09469e-19 -0.0620822)
(-9.06234e-20 8.17071e-20 -0.088515)
(8.74524e-20 -9.12392e-20 -0.122305)
(-1.85336e-20 -6.25907e-22 -0.161465)
(-4.50563e-23 4.71394e-20 1.31051e-05)
(-8.59316e-23 1.49059e-20 9.70543e-06)
(3.76857e-22 -6.175e-20 4.98122e-06)
(-8.02163e-22 1.22839e-19 -1.26182e-06)
(1.76817e-21 -2.62955e-19 -9.1665e-06)
(3.74545e-22 1.25032e-19 -1.88455e-05)
(-2.42126e-21 -8.59792e-22 -3.04001e-05)
(1.54744e-21 -1.69847e-20 -4.39346e-05)
(1.47708e-21 -2.56594e-19 -5.95662e-05)
(7.22953e-22 2.4449e-19 -7.74326e-05)
(-8.48381e-22 -1.60977e-21 -9.76976e-05)
(-4.17064e-21 -1.55577e-23 -0.000120557)
(6.6151e-21 -1.83237e-21 -0.000146246)
(-3.90113e-21 -2.50275e-19 -0.000175043)
(5.10253e-21 2.27428e-19 -0.000207264)
(-1.13678e-20 4.51935e-19 -0.000243228)
(-4.79485e-21 -1.20329e-20 -0.000283259)
(-4.73312e-21 4.64989e-19 -0.000327797)
(4.07379e-22 -1.41146e-20 -0.000377421)
(-1.2354e-20 4.51544e-19 -0.000432711)
(1.22761e-20 -4.68947e-19 -0.00049421)
(-9.18658e-21 4.47814e-19 -0.00056252)
(2.4537e-21 -4.65776e-19 -0.000638315)
(5.19297e-21 -9.30145e-21 -0.000722327)
(-2.58024e-21 1.36497e-20 -0.000815366)
(5.50884e-21 -8.80417e-21 -0.000918351)
(-1.88559e-20 4.19766e-19 -0.00103235)
(1.69665e-20 -4.47374e-19 -0.00115869)
(1.84738e-20 -4.15681e-19 -0.00129902)
(-1.51806e-20 4.17579e-19 -0.00145556)
(-1.07627e-21 -5.13871e-21 -0.00163143)
(1.11379e-20 -1.20529e-22 -0.00183116)
(-1.27389e-20 -2.46292e-20 -0.00206173)
(5.32492e-20 -7.58857e-19 -0.00233425)
(1.6501e-20 5.6047e-20 -0.00266709)
(-7.00694e-20 7.14565e-19 -0.00309125)
(3.92844e-21 -1.22601e-20 -0.00365961)
(-1.13679e-20 -4.818e-21 -0.00446225)
(1.09746e-19 -5.99668e-19 -0.0056506)
(-2.04183e-19 1.17769e-18 -0.00747379)
(2.08255e-19 -1.17006e-18 -0.0103296)
(7.07005e-20 8.45573e-20 -0.0148299)
(-1.56331e-19 5.1224e-19 -0.0218757)
(-1.64012e-19 3.53353e-19 -0.0327259)
(1.55015e-19 -4.18897e-19 -0.0490336)
(-2.20266e-20 1.93076e-20 -0.0728045)
(5.44153e-20 -1.71803e-20 -0.106204)
(1.63327e-19 -1.0144e-19 -0.151093)
(-1.76807e-19 1.58373e-19 -0.208215)
(-2.51802e-20 -4.06159e-20 -0.269744)
(4.05683e-22 -3.10888e-20 1.71934e-05)
(-3.64259e-22 1.57192e-20 1.17568e-05)
(6.8317e-22 -1.69928e-22 4.04741e-06)
(-6.09488e-22 -1.54659e-20 -6.13155e-06)
(-9.54858e-22 -1.43438e-21 -1.89076e-05)
(3.34584e-21 -2.42751e-19 -3.4391e-05)
(-4.73412e-21 4.59664e-19 -5.27025e-05)
(2.31597e-21 -2.47484e-19 -7.39889e-05)
(-1.81552e-21 1.49316e-20 -9.8431e-05)
(4.8629e-21 -2.71009e-19 -0.00012625)
(-5.84596e-21 2.47264e-19 -0.000157715)
(-4.1765e-21 4.72117e-19 -0.000193144)
(1.08972e-20 -9.5513e-19 -0.00023292)
(-1.30895e-20 9.54075e-19 -0.000277495)
(1.73202e-20 -9.49611e-19 -0.000327381)
(-1.14533e-20 9.41077e-19 -0.0003831)
(-9.96616e-21 4.78738e-19 -0.000445194)
(-7.04796e-22 -3.75154e-21 -0.000514384)
(4.49005e-21 3.89802e-21 -0.000591598)
(-7.71595e-21 4.41595e-19 -0.000677781)
(-1.82556e-21 -4.6375e-19 -0.000773853)
(1.47394e-20 1.27018e-20 -0.000880838)
(-3.37937e-20 8.90365e-19 -0.000999892)
(2.56681e-20 -8.9329e-19 -0.00113229)
(2.26728e-21 -5.34889e-21 -0.00127944)
(-9.71864e-21 -9.07657e-23 -0.00144297)
(1.47816e-20 -1.35011e-20 -0.00162477)
(-4.8028e-21 1.23159e-22 -0.00182711)
(-5.27358e-21 -6.50094e-23 -0.00205282)
(5.02243e-21 1.95187e-22 -0.00230561)
(-3.72106e-21 1.44754e-21 -0.00259048)
(6.34513e-20 -7.88815e-19 -0.00291455)
(-5.75551e-20 8.11241e-19 -0.00328844)
(-1.60318e-20 2.14338e-22 -0.00372875)
(1.86793e-20 -1.03014e-20 -0.00426247)
(-9.91553e-20 7.23899e-19 -0.00493469)
(1.15618e-19 -7.2709e-19 -0.00582194)
(-2.26237e-20 2.19291e-21 -0.00705411)
(1.59887e-20 -9.25965e-23 -0.00884938)
(3.80136e-20 6.3904e-21 -0.0115664)
(-2.47328e-19 5.42787e-19 -0.0157772)
(3.67036e-19 -1.10023e-18 -0.0223618)
(-1.792e-19 5.57443e-19 -0.0326151)
(2.60024e-19 -4.26476e-19 -0.0483508)
(-2.51725e-19 5.02386e-19 -0.0719627)
(-5.86026e-19 5.1826e-19 -0.106386)
(1.10631e-18 -1.09817e-18 -0.154839)
(-5.41524e-19 5.54487e-19 -0.220079)
(1.86948e-20 -2.14078e-21 -0.302845)
(4.50281e-21 -3.48156e-20 -0.381931)
(-7.32749e-22 1.57997e-20 1.98922e-05)
(-2.95068e-22 6.0517e-20 1.12719e-05)
(2.0216e-21 -1.83735e-19 -1.00926e-06)
(-1.39204e-21 2.4655e-19 -1.69603e-05)
(-2.2527e-22 -1.09171e-19 -3.66045e-05)
(1.15955e-22 -1.45971e-20 -6.00255e-05)
(-4.74159e-22 1.53832e-20 -8.73746e-05)
(3.01203e-21 -1.85604e-22 -0.000118869)
(-2.85984e-21 -1.50375e-20 -0.000154791)
(-5.22371e-21 3.37078e-20 -0.000195492)
(-7.07304e-21 4.80175e-19 -0.000241391)
(1.84649e-20 -4.99057e-19 -0.00029299)
(-2.27649e-20 4.65541e-19 -0.000350879)
(1.89939e-20 -4.84258e-19 -0.000415751)
(-2.99167e-21 3.38013e-21 -0.000488394)
(1.09368e-20 4.73771e-23 -0.000569625)
(4.15813e-21 3.69828e-21 -0.000660303)
(-5.39672e-21 4.52359e-19 -0.000761544)
(2.02984e-20 -4.89499e-19 -0.000874768)
(6.30711e-21 2.6847e-20 -0.00100144)
(-4.59086e-20 9.32626e-19 -0.00114304)
(2.93218e-20 -9.35244e-19 -0.00130123)
(1.01274e-20 2.25634e-20 -0.0014779)
(-1.79692e-20 -2.32254e-22 -0.00167515)
(1.17583e-20 9.5967e-21 -0.00189536)
(-3.91645e-20 8.96089e-19 -0.00214124)
(3.23911e-20 -8.8764e-19 -0.00241597)
(2.82524e-21 9.58168e-21 -0.00272331)
(9.48475e-21 2.71924e-20 -0.00306792)
(-1.14592e-20 -5.47328e-22 -0.00345565)
(1.18315e-21 -1.30015e-20 -0.00389424)
(-3.71695e-20 1.32007e-20 -0.00439428)
(3.4948e-20 1.25739e-20 -0.00497107)
(-3.09188e-21 -2.51689e-20 -0.00564776)
(8.30184e-20 -7.37625e-19 -0.00646115)
(-7.41303e-20 7.60312e-19 -0.00747176)
(2.70314e-19 -1.46259e-18 -0.0087813)
(-2.48004e-19 1.47676e-18 -0.0105617)
(3.07013e-19 -1.38142e-18 -0.0131013)
(7.11937e-20 1.31663e-19 -0.0168744)
(-3.52784e-19 1.31592e-18 -0.0226385)
(-1.20184e-19 -2.20673e-20 -0.0315605)
(1.636e-20 3.8547e-22 -0.0453644)
(-1.82232e-20 5.59016e-22 -0.0664813)
(5.38334e-20 1.65413e-21 -0.0981705)
(2.58836e-20 1.3502e-20 -0.144555)
(-1.1237e-19 5.10201e-21 -0.210414)
(6.39997e-20 4.94487e-21 -0.300214)
(-1.63993e-22 -3.07881e-22 -0.415195)
(3.58185e-20 6.33772e-22 -0.508212)
(-7.2931e-22 7.61678e-20 2.03868e-05)
(1.64985e-21 -4.64409e-20 6.05269e-06)
(-1.65283e-21 -1.63689e-20 -1.36145e-05)
(4.71954e-21 -2.27542e-19 -3.81626e-05)
(-2.3536e-21 2.29408e-19 -6.75081e-05)
(2.10542e-21 -2.26985e-19 -0.00010177)
(-1.10942e-20 5.00529e-19 -0.000141203)
(1.17778e-20 -7.00921e-19 -0.000186166)
(-7.62079e-21 4.9561e-19 -0.000237113)
(-6.09332e-21 4.83139e-19 -0.000294595)
(-2.20093e-21 3.96276e-21 -0.00035926)
(2.46836e-20 -9.4902e-19 -0.00043187)
(-2.16508e-20 9.87549e-19 -0.00051331)
(5.2882e-21 -4.64573e-19 -0.000604616)
(1.22604e-20 -4.66828e-19 -0.000706962)
(2.25497e-20 -4.59299e-19 -0.000821591)
(-3.25373e-21 6.60325e-21 -0.000949826)
(3.86428e-20 -9.52438e-19 -0.00109335)
(3.00674e-20 -9.14357e-19 -0.00125428)
(6.57944e-21 2.11786e-20 -0.00143483)
(-2.71789e-20 9.49603e-19 -0.0016373)
(-2.00313e-20 -8.04085e-21 -0.00186434)
(1.2231e-20 8.90513e-21 -0.00211893)
(-5.13567e-20 9.19212e-19 -0.00240446)
(4.18649e-20 -9.33674e-19 -0.0027248)
(7.34364e-20 -8.96745e-19 -0.00308436)
(-7.46604e-20 9.26224e-19 -0.00348832)
(1.49987e-20 -1.99205e-20 -0.00394281)
(6.85876e-20 -8.93671e-19 -0.00445524)
(-9.62109e-20 9.16436e-19 -0.00503479)
(4.35367e-21 1.22866e-20 -0.00569317)
(-2.08778e-19 1.67779e-18 -0.00644588)
(1.89054e-19 -1.74062e-18 -0.00731437)
(4.82366e-20 6.17642e-20 -0.00832995)
(-2.68777e-19 1.58735e-18 -0.00954063)
(2.46626e-19 -1.65505e-18 -0.0110235)
(-3.14119e-20 -3.27491e-21 -0.0129059)
(4.72222e-19 -1.49158e-18 -0.0154018)
(-4.42159e-19 1.54036e-18 -0.0188694)
(-6.58492e-20 -7.20909e-20 -0.0238989)
(6.77339e-19 -1.30098e-18 -0.0314376)
(-1.19222e-18 2.68243e-18 -0.0429534)
(-6.52036e-20 -1.54883e-19 -0.0606321)
(-8.73158e-20 -1.21569e-19 -0.0875937)
(7.67779e-19 -1.16695e-18 -0.128122)
(3.92651e-20 6.26135e-20 -0.187921)
(-8.64337e-19 7.72526e-19 -0.27441)
(8.47452e-19 -8.49625e-19 -0.396505)
(9.08139e-21 2.87985e-20 -0.560595)
(9.25707e-21 -2.70934e-21 -0.673289)
(6.06836e-22 -1.58595e-20 1.76115e-05)
(1.71234e-21 -1.35311e-19 -8.4141e-06)
(-1.82993e-21 1.22024e-19 -3.96518e-05)
(-1.25976e-21 -1.71682e-20 -7.61716e-05)
(5.37879e-21 -2.26124e-19 -0.000118205)
(-4.97083e-21 2.32548e-19 -0.000166093)
(-5.95004e-21 4.69754e-19 -0.000220293)
(-5.07556e-21 -1.94223e-20 -0.000281363)
(2.19351e-21 -4.56803e-21 -0.00034996)
(1.45553e-20 -5.00896e-19 -0.00042685)
(-1.19005e-20 4.68642e-19 -0.000512912)
(1.8027e-20 -9.91432e-19 -0.000609158)
(-4.24312e-21 4.95548e-19 -0.000716752)
(-3.6264e-21 -1.86329e-20 -0.000837036)
(-4.84174e-21 -2.22847e-20 -0.000971523)
(2.88774e-20 -9.726e-19 -0.00112182)
(-1.62291e-21 -2.01696e-20 -0.00128962)
(2.78098e-20 -9.90628e-19 -0.00147707)
(-5.37615e-21 -7.71486e-21 -0.0016868)
(-1.69488e-22 1.18833e-22 -0.00192157)
(1.14036e-20 8.40439e-21 -0.00218425)
(-5.35515e-20 9.52867e-19 -0.00247808)
(4.78384e-20 -9.73278e-19 -0.00280671)
(1.27294e-20 8.30935e-21 -0.00317417)
(-8.66448e-21 -1.49139e-20 -0.00358498)
(-6.15034e-21 9.87004e-21 -0.0040442)
(-7.50719e-20 9.19479e-19 -0.00455752)
(1.61259e-19 -1.87562e-18 -0.00513146)
(-7.65661e-20 9.7795e-19 -0.00577354)
(-1.94028e-19 1.81228e-18 -0.00649264)
(-3.0441e-20 -4.55589e-20 -0.00729951)
(2.49834e-21 -2.66293e-20 -0.00820775)
(-6.59385e-20 -5.38676e-20 -0.00923564)
(2.61216e-19 -1.81042e-18 -0.0104095)
(4.00617e-19 -1.67571e-18 -0.0117705)
(-3.58052e-19 1.75858e-18 -0.0133867)
(-3.38067e-20 -5.46889e-20 -0.0153757)
(4.74191e-19 -1.60159e-18 -0.0179445)
(-4.1873e-19 1.69617e-18 -0.0214548)
(-6.67784e-19 1.50624e-18 -0.0265281)
(5.6825e-19 -1.5906e-18 -0.0341989)
(7.78623e-20 -1.11451e-20 -0.0461265)
(8.66037e-19 -1.40451e-18 -0.0648605)
(1.19762e-19 1.21942e-19 -0.0941527)
(-9.99698e-19 1.37528e-18 -0.139322)
(-1.6141e-20 -3.93776e-20 -0.207747)
(3.33702e-20 5.23875e-22 -0.310205)
(-3.36698e-20 1.56259e-20 -0.465732)
(-5.08882e-19 5.32368e-19 -0.711108)
(5.002e-19 -5.41584e-19 -0.976485)
(-1.07308e-20 -3.16209e-21 0.0101118)
(-1.07348e-20 -5.09014e-22 0.00520791)
(1.00647e-20 1.00675e-20 0.00105848)
(-6.95846e-21 2.44026e-21 -0.00240827)
(7.48229e-21 -1.19042e-20 -0.00527081)
(5.22332e-23 3.51544e-21 -0.00760903)
(-1.71485e-22 -9.71136e-23 -0.00949758)
(-5.5304e-21 1.20955e-23 -0.0110006)
(5.37589e-21 -1.17576e-23 -0.0121724)
(-1.59838e-22 3.49581e-25 -0.0130584)
(-1.52951e-22 3.34519e-25 -0.0136978)
(4.48378e-21 -9.80648e-24 -0.0141228)
(-4.49819e-21 9.83798e-24 -0.0143613)
(-3.95506e-21 8.65012e-24 -0.0144384)
(3.24344e-22 -9.03459e-22 -0.0143758)
(6.10457e-21 9.70899e-21 -0.0141931)
(-2.38112e-21 -7.28958e-21 -0.0139082)
(-6.18551e-23 -8.50747e-22 -0.0135376)
(-2.19327e-23 6.06486e-22 -0.013096)
(-2.46464e-21 -2.26797e-20 -0.0125968)
(2.49826e-21 2.19508e-20 -0.0120518)
(-1.82392e-21 -2.70632e-20 -0.0114712)
(1.29522e-21 1.54897e-21 -0.0108648)
(-1.63219e-21 1.08606e-23 -0.0102422)
(1.09088e-21 2.46335e-21 -0.00961233)
(-3.9601e-22 2.20914e-23 -0.00898219)
(-8.88687e-22 1.94365e-24 -0.00835745)
(4.0212e-22 -1.00722e-23 -0.00774326)
(2.20692e-22 3.40511e-21 -0.00714417)
(-1.46098e-23 1.42777e-23 -0.00656399)
(-2.16902e-22 -3.8598e-21 -0.00600589)
(2.06445e-22 4.07168e-21 -0.00547239)
(-1.73857e-22 -4.28381e-21 -0.00496544)
(9.6677e-22 4.10611e-20 -0.00448647)
(-1.00141e-21 -4.13565e-20 -0.00403644)
(-5.31428e-22 -3.47565e-20 -0.00361586)
(1.22751e-21 7.58356e-20 -0.00322488)
(-6.86699e-22 -4.12777e-20 -0.00286329)
(-1.08869e-22 -5.40012e-21 -0.0025306)
(1.0699e-22 5.59375e-21 -0.00222606)
(-5.77411e-23 6.44815e-25 -0.00194869)
(2.21648e-22 5.87471e-21 -0.00169736)
(-3.77294e-22 -3.03985e-20 -0.00147077)
(3.42918e-22 3.0624e-20 -0.00126751)
(-8.02907e-23 -6.31629e-21 -0.00108611)
(2.24042e-22 1.93805e-20 -0.000924996)
(3.19029e-23 -6.454e-21 -0.000782588)
(-1.38451e-22 -1.33472e-20 -0.000657225)
(3.31397e-23 6.71743e-21 -0.000547165)
(-1.01036e-22 -6.86809e-21 -0.000450562)
(-1.54646e-20 2.53957e-20 0.0292805)
(3.13908e-20 -9.36783e-21 0.0146932)
(-2.54143e-20 -2.25741e-20 0.00225752)
(8.23974e-21 2.29099e-20 -0.00804973)
(-8.64549e-21 -2.23989e-20 -0.0165002)
(-1.26064e-20 6.14698e-21 -0.0233627)
(1.11836e-20 6.65574e-21 -0.0288783)
(9.08278e-21 1.36093e-20 -0.0332461)
(3.70236e-21 -2.5111e-20 -0.036634)
(-2.21815e-20 6.41932e-21 -0.0391802)
(2.07234e-20 -5.00192e-21 -0.0410012)
(2.27649e-21 6.2612e-21 -0.0421932)
(-1.40135e-20 7.62748e-21 -0.0428393)
(-1.57102e-20 -2.46423e-20 -0.0430127)
(7.30763e-21 -1.87729e-20 -0.0427777)
(1.63881e-20 3.03971e-20 -0.0421925)
(-6.93853e-21 3.41256e-21 -0.04131)
(-6.68822e-22 -2.09935e-21 -0.0401781)
(1.13882e-23 -1.01473e-22 -0.0388403)
(5.65435e-22 -1.23666e-24 -0.0373361)
(1.59316e-21 2.42966e-23 -0.0357002)
(-1.78179e-21 -3.35643e-21 -0.0339626)
(2.09675e-20 1.33448e-19 -0.032151)
(-2.33715e-20 -1.42525e-19 -0.030294)
(2.3845e-20 1.64571e-19 -0.0284181)
(-1.23554e-20 -7.46667e-20 -0.026544)
(-2.35202e-20 -1.91885e-19 -0.0246879)
(1.11607e-20 9.82793e-20 -0.0228649)
(4.18153e-22 -2.98138e-21 -0.021088)
(-1.31281e-21 -7.45009e-21 -0.0193686)
(6.52928e-22 3.86182e-21 -0.0177155)
(-1.08776e-21 -1.24202e-20 -0.0161363)
(9.4856e-21 1.36943e-19 -0.0146364)
(-2.00065e-20 -2.93816e-19 -0.01322)
(9.098e-21 1.43177e-19 -0.0118898)
(-1.00112e-21 -1.47781e-20 -0.0106472)
(2.56961e-22 5.08469e-21 -0.00949244)
(-1.81622e-23 -6.24595e-23 -0.00842495)
(-4.31108e-21 -9.3744e-20 -0.00744314)
(3.6696e-21 8.29819e-20 -0.00654471)
(2.71923e-21 8.15522e-20 -0.00572675)
(-3.99799e-21 -1.11224e-19 -0.00498582)
(9.76201e-23 6.14206e-21 -0.00431804)
(8.42834e-22 3.13001e-20 -0.00371924)
(-1.85483e-21 -5.63797e-20 -0.00318499)
(3.57372e-23 -6.41348e-21 -0.00271069)
(-1.17503e-21 -4.60145e-20 -0.00229159)
(-2.212e-22 -7.01193e-21 -0.00192275)
(2.74737e-22 1.32615e-20 -0.00159891)
(3.3077e-22 2.0458e-20 -0.00131431)
(-1.41497e-20 -1.06967e-21 0.0452509)
(-1.47264e-20 -1.60474e-20 0.0211942)
(3.69629e-20 3.01328e-20 0.000529868)
(-4.4037e-20 -1.25959e-20 -0.0162967)
(1.81483e-20 1.20384e-20 -0.0298831)
(2.15731e-20 1.74268e-20 -0.0407861)
(-1.2758e-20 -5.60228e-20 -0.0494623)
(2.55071e-20 -9.82991e-21 -0.056262)
(-2.87789e-20 4.28207e-20 -0.0614773)
(-3.01378e-20 -4.44472e-21 -0.0653463)
(6.65698e-20 -6.34492e-21 -0.0680596)
(-4.41136e-20 1.29564e-20 -0.0697735)
(6.1671e-21 -1.11721e-20 -0.0706215)
(-3.20953e-21 -8.40589e-21 -0.0707209)
(6.89915e-20 8.54544e-20 -0.0701765)
(-3.35818e-21 3.68497e-20 -0.0690818)
(-6.29196e-20 -1.05315e-19 -0.0675209)
(1.01267e-20 -2.90358e-21 -0.0655705)
(-6.45499e-21 2.41408e-22 -0.0633)
(3.14007e-22 -2.26822e-21 -0.0607726)
(3.85828e-20 1.21651e-19 -0.0580438)
(-3.81907e-20 -1.11463e-19 -0.0551609)
(-3.96673e-20 -1.48149e-19 -0.0521686)
(4.28434e-20 1.51599e-19 -0.0491097)
(4.80619e-23 7.36079e-21 -0.0460271)
(-7.51942e-22 -5.95826e-21 -0.042956)
(3.22022e-22 7.08205e-21 -0.0399205)
(-3.51936e-20 -2.15187e-19 -0.0369443)
(3.83231e-20 2.21328e-19 -0.0340479)
(-3.46874e-20 -2.3385e-19 -0.0312488)
(3.70748e-20 2.49258e-19 -0.0285612)
(8.51086e-22 8.66831e-21 -0.0259964)
(3.26695e-20 2.88886e-19 -0.0235631)
(-6.38796e-20 -5.81224e-19 -0.0212674)
(3.27844e-20 3.1118e-19 -0.0191133)
(1.54366e-20 1.72341e-19 -0.0171029)
(-1.37452e-20 -1.52271e-19 -0.0152362)
(2.5658e-22 4.26959e-23 -0.0135119)
(-5.23172e-22 -1.19756e-22 -0.0119272)
(-6.07893e-23 1.2688e-22 -0.0104783)
(1.11783e-20 1.87625e-19 -0.00916008)
(-1.08311e-20 -1.76356e-19 -0.00796692)
(8.98257e-22 1.23254e-20 -0.00689238)
(-4.91803e-22 -1.38296e-23 -0.00592958)
(4.31191e-21 1.01862e-19 -0.00507123)
(-7.9721e-21 -1.93123e-19 -0.00430981)
(3.93139e-21 1.04018e-19 -0.00363752)
(-2.01233e-21 -5.36553e-20 -0.00304625)
(1.51702e-21 4.00386e-20 -0.00252715)
(3.60374e-22 1.34599e-20 -0.00206993)
(1.93167e-21 2.68878e-20 0.054987)
(8.70763e-21 -5.47247e-20 0.0218991)
(-7.26402e-20 1.64407e-20 -0.00669456)
(1.15213e-19 7.91797e-20 -0.0293135)
(-2.663e-20 -1.08833e-19 -0.0471389)
(-8.92485e-21 2.86268e-20 -0.0611733)
(-6.57038e-21 1.35196e-20 -0.0721628)
(1.58415e-21 1.34831e-20 -0.0806439)
(-4.6374e-20 -1.49584e-20 -0.0870346)
(8.25862e-20 -1.17208e-20 -0.0916653)
(-2.55713e-20 1.28722e-20 -0.0947924)
(-1.30306e-20 6.72773e-22 -0.0966251)
(1.86062e-20 9.90925e-21 -0.0973413)
(-9.50983e-20 -1.0687e-19 -0.0970962)
(7.88484e-20 8.56382e-20 -0.096027)
(-8.50067e-21 1.3241e-20 -0.0942557)
(7.77796e-21 -8.48544e-21 -0.0918925)
(9.769e-20 1.9783e-19 -0.0890372)
(-1.01274e-19 -1.84262e-19 -0.0857806)
(-4.67677e-23 -1.04557e-20 -0.0822049)
(-2.17564e-21 -8.16621e-23 -0.0783827)
(2.42478e-21 4.79849e-22 -0.074377)
(1.65181e-21 -6.08638e-23 -0.070242)
(-3.34612e-21 5.6174e-21 -0.0660348)
(3.84363e-21 4.22962e-22 -0.0618101)
(1.12962e-21 8.01422e-21 -0.0576132)
(-1.09117e-19 -4.4847e-19 -0.0534794)
(1.09502e-19 4.3867e-19 -0.049436)
(-2.59826e-21 2.43776e-21 -0.0455096)
(-4.82808e-20 -2.60688e-19 -0.0417225)
(5.20349e-20 2.68635e-19 -0.0380925)
(-3.9424e-22 5.0808e-22 -0.034634)
(-1.8085e-22 -1.83139e-22 -0.0313578)
(-4.52187e-20 -3.1929e-19 -0.0282712)
(8.80281e-20 6.40942e-19 -0.0253789)
(-8.28303e-20 -6.53045e-19 -0.0226829)
(7.95066e-20 6.74584e-19 -0.0201828)
(-7.54437e-20 -6.95017e-19 -0.0178763)
(3.65693e-20 3.52776e-19 -0.015759)
(1.63788e-20 1.85248e-19 -0.0138253)
(-1.43701e-20 -1.62207e-19 -0.0120681)
(-1.194e-21 -1.21015e-20 -0.0104795)
(-1.36252e-20 -1.97352e-19 -0.00905046)
(2.85716e-20 4.24215e-19 -0.00777157)
(-1.31684e-20 -2.0187e-19 -0.00663282)
(1.33367e-22 2.25868e-22 -0.00562391)
(5.42241e-22 1.30757e-20 -0.00473422)
(-1.15429e-22 -8.87684e-23 -0.0039526)
(-5.28103e-22 -1.34265e-20 -0.00326659)
(1.13863e-21 2.72863e-20 -0.00266052)
(2.74087e-20 9.74745e-23 0.0544305)
(3.42875e-22 3.99916e-22 0.0127952)
(-6.18357e-20 4.36379e-22 -0.0228411)
(9.13269e-20 -3.2455e-22 -0.0497868)
(-2.73453e-20 -8.56266e-23 -0.0702758)
(-4.35248e-20 -8.66621e-22 -0.0859733)
(1.43227e-20 1.82737e-22 -0.0979952)
(-1.14371e-20 -3.31318e-22 -0.107067)
(9.20968e-20 -2.52625e-20 -0.113703)
(6.27033e-20 1.33796e-19 -0.118308)
(3.64391e-21 7.78802e-20 -0.121191)
(-9.68361e-20 -1.90139e-19 -0.122602)
(1.50436e-19 2.38409e-19 -0.122746)
(-1.6865e-19 -2.3008e-19 -0.121804)
(8.1603e-20 1.53521e-19 -0.119934)
(-9.30328e-20 -1.61167e-19 -0.117277)
(5.32288e-21 -5.49786e-21 -0.113959)
(-2.40359e-20 -2.82708e-21 -0.110096)