/*--------------------------------*- C++ -*----------------------------------*\
| =========                 |                                                 |
| \\      /  F ield         | OpenFOAM: The Open Source CFD Toolbox           |
|  \\    /   O peration     | Version:  2412                                  |
|   \\  /    A nd           | Website:  www.openfoam.com                      |
|    \\/     M anipulation  |                                                 |
\*---------------------------------------------------------------------------*/
FoamFile
{
    version     2.0;
    format      ascii;
    arch        "LSB;label=32;scalar=64";
    class       surfaceScalarField;
    location    "24";
    object      phi;
}
// * * * * * * * * * * * * * * * * * * * * * * * * * * * * * * * * * * * * * //

dimensions      [0 3 -1 0 0 0 0];

oriented        oriented;

internalField   nonuniform List<scalar> 
10424
(
0.00505063
1.29502e-07
2.07399e-11
0.00505025
3.77661e-07
5.03175e-11
0.00504964
6.1264e-07
6.33928e-11
0.0050488
8.36119e-07
6.86596e-11
0.00504775
1.04941e-06
7.4494e-11
0.0050465
1.25332e-06
8.56908e-11
0.00504505
1.44973e-06
1.02213e-10
0.0050434
1.6442e-06
1.16756e-10
0.00504156
1.8477e-06
1.12421e-10
0.00503948
2.07554e-06
6.42249e-11
0.00503714
2.34305e-06
-5.28288e-11
0.00503448
2.65962e-06
-2.52007e-10
0.00503145
3.02384e-06
-5.25489e-10
0.00502803
3.42204e-06
-8.41297e-10
0.0050242
3.83078e-06
-1.14803e-09
0.00501998
4.22226e-06
-1.38627e-09
0.00501541
4.57055e-06
-1.50261e-09
0.00501056
4.85667e-06
-1.46118e-09
0.00500549
5.0714e-06
-1.24956e-09
0.00500027
5.21537e-06
-8.79024e-10
0.00499498
5.29732e-06
-3.80057e-10
0.00498965
5.33117e-06
2.05037e-10
0.00498431
5.33292e-06
8.30512e-10
0.00497899
5.31809e-06
1.45417e-09
0.00497369
5.29998e-06
2.04162e-09
0.0049684
5.28876e-06
2.56822e-09
0.0049631
5.2913e-06
3.01938e-09
0.00495779
5.31152e-06
3.3896e-09
0.00495244
5.35096e-06
3.68039e-09
0.00494702
5.40947e-06
3.89799e-09
0.00494153
5.48581e-06
4.05129e-09
0.00493595
5.57818e-06
4.15028e-09
0.00493026
5.6846e-06
4.20495e-09
0.00492445
5.80314e-06
4.22447e-09
0.00491852
5.93207e-06
4.21675e-09
0.00491244
6.06995e-06
4.18833e-09
0.00490622
6.2156e-06
4.14444e-09
0.00489985
6.36811e-06
4.08912e-09
0.00489332
6.52681e-06
4.02535e-09
0.00488663
6.69119e-06
3.95534e-09
0.00487976
6.86091e-06
3.8807e-09
0.00487272
7.03574e-06
3.80262e-09
0.0048655
7.21552e-06
3.72187e-09
0.0048581
7.40016e-06
3.63895e-09
0.0048505
7.58961e-06
3.55421e-09
0.00484272
7.78386e-06
3.46783e-09
0.00483473
7.9829e-06
3.37991e-09
0.00482654
8.18677e-06
3.29061e-09
0.00481814
8.39551e-06
3.20001e-09
0.00480953
8.60919e-06
3.10819e-09
0.0048007
8.82795e-06
3.01519e-09
0.00479164
9.0521e-06
2.92103e-09
0.00478236
9.28247e-06
2.82577e-09
0.00477283
9.52146e-06
2.72961e-09
9.77588e-06
0.00476306
2.6329e-09
0.00505063
2.58939e-07
0.00505025
7.55101e-07
0.00504964
1.22491e-06
0.0050488
1.67171e-06
0.00504775
2.09815e-06
0.0050465
2.50583e-06
0.00504505
2.89852e-06
0.00504341
3.28729e-06
0.00504156
3.69397e-06
0.00503949
4.14908e-06
0.00503715
4.6832e-06
0.00503449
5.31509e-06
0.00503148
6.04204e-06
0.00502806
6.8369e-06
0.00502424
7.65302e-06
0.00502003
8.43502e-06
0.00501547
9.1312e-06
0.00501062
9.70367e-06
0.00500556
1.01339e-05
0.00500035
1.04231e-05
0.00499506
1.05886e-05
0.00498973
1.06579e-05
0.0049844
1.0663e-05
0.00497908
1.06347e-05
0.00497378
1.05996e-05
0.00496849
1.05779e-05
0.0049632
1.05835e-05
0.00495789
1.06241e-05
0.00495254
1.07029e-05
0.00494713
1.08196e-05
0.00494164
1.09719e-05
0.00493606
1.11561e-05
0.00493038
1.13683e-05
0.00492458
1.16046e-05
0.00491865
1.18618e-05
0.00491258
1.21367e-05
0.00490637
1.24272e-05
0.00490001
1.27315e-05
0.00489349
1.3048e-05
0.0048868
1.33759e-05
0.00487995
1.37145e-05
0.00487292
1.40633e-05
0.00486571
1.44219e-05
0.00485832
1.47902e-05
0.00485075
1.51681e-05
0.00484297
1.55556e-05
0.004835
1.59526e-05
0.00482683
1.63592e-05
0.00481845
1.67754e-05
0.00480986
1.72015e-05
0.00480105
1.76376e-05
0.00479202
1.80844e-05
0.00478276
1.85434e-05
0.00477326
1.90192e-05
1.95251e-05
0.00476351
0.00505063
3.88204e-07
0.00505025
1.132e-06
0.00504964
1.83633e-06
0.00504881
2.50612e-06
0.00504776
3.14538e-06
0.00504651
3.75655e-06
0.00504506
4.34524e-06
0.00504342
4.92792e-06
0.00504158
5.53717e-06
0.00503951
6.21853e-06
0.00503717
7.0177e-06
0.00503452
7.96284e-06
0.00503152
9.05012e-06
0.00502811
1.02392e-05
0.00502431
1.14606e-05
0.00502011
1.26317e-05
0.00501557
1.36752e-05
0.00501074
1.45344e-05
0.00500569
1.51813e-05
0.00500049
1.56175e-05
0.00499521
1.58684e-05
0.0049899
1.59753e-05
0.00498457
1.59855e-05
0.00497926
1.59453e-05
0.00497397
1.58942e-05
0.00496868
1.58626e-05
0.0049634
1.58712e-05
0.00495809
1.59319e-05
0.00495274
1.60494e-05
0.00494734
1.62234e-05
0.00494186
1.64503e-05
0.00493629
1.6725e-05
0.00493062
1.70416e-05
0.00492483
1.73944e-05
0.00491891
1.77782e-05
0.00491286
1.81888e-05
0.00490666
1.86227e-05
0.00490032
1.90771e-05
0.00489382
1.955e-05
0.00488715
2.00399e-05
0.00488032
2.05458e-05
0.00487332
2.10668e-05
0.00486614
2.16026e-05
0.00485877
2.21529e-05
0.00485122
2.27175e-05
0.00484348
2.32962e-05
0.00483555
2.38891e-05
0.00482741
2.44963e-05
0.00481907
2.51178e-05
0.00481052
2.57538e-05
0.00480175
2.64047e-05
0.00479276
2.70712e-05
0.00478355
2.77556e-05
0.0047741
2.84642e-05
2.92153e-05
0.00476441
0.00505063
5.17215e-07
0.00505025
1.50809e-06
0.00504964
2.44645e-06
0.00504881
3.33875e-06
0.00504776
4.19038e-06
0.00504652
5.0046e-06
0.00504507
5.78884e-06
0.00504344
6.56487e-06
0.0050416
7.37578e-06
0.00503953
8.28188e-06
0.00503721
9.34383e-06
0.00503457
1.05992e-05
0.00503158
1.20433e-05
0.00502819
1.3623e-05
0.00502441
1.52467e-05
0.00502024
1.68048e-05
0.00501572
1.81948e-05
0.00501091
1.93412e-05
0.00500588
2.02064e-05
0.00500071
2.0792e-05
0.00499545
2.11314e-05
0.00499014
2.12788e-05
0.00498483
2.12969e-05
0.00497953
2.12468e-05
0.00497424
2.11811e-05
0.00496897
2.11404e-05
0.00496368
2.11521e-05
0.00495838
2.12323e-05
0.00495305
2.13874e-05
0.00494765
2.16172e-05
0.00494218
2.19172e-05
0.00493663
2.22805e-05
0.00493097
2.26994e-05
0.0049252
2.31664e-05
0.0049193
2.36748e-05
0.00491327
2.42188e-05
0.0049071
2.47938e-05
0.00490078
2.53962e-05
0.00489431
2.60232e-05
0.00488768
2.66728e-05
0.00488088
2.73436e-05
0.00487391
2.80345e-05
0.00486677
2.8745e-05
0.00485945
2.94747e-05
0.00485194
3.02231e-05
0.00484425
3.09903e-05
0.00483636
3.17762e-05
0.00482828
3.25808e-05
0.00481999
3.34042e-05
0.0048115
3.42466e-05
0.00480279
3.51084e-05
0.00479387
3.59905e-05
0.00478473
3.68955e-05
0.00477537
3.78306e-05
3.88176e-05
0.00476576
0.00505063
6.45889e-07
0.00505025
1.88309e-06
0.00504965
3.05485e-06
0.00504881
4.16901e-06
0.00504777
5.23239e-06
0.00504653
6.24908e-06
0.00504509
7.22828e-06
0.00504346
8.19692e-06
0.00504162
9.2083e-06
0.00503957
1.03372e-05
0.00503725
1.1659e-05
0.00503463
1.32207e-05
0.00503166
1.50171e-05
0.0050283
1.69829e-05
0.00502454
1.90048e-05
0.0050204
2.09472e-05
0.00501591
2.26826e-05
0.00501113
2.41167e-05
0.00500614
2.52024e-05
0.00500099
2.59406e-05
0.00499575
2.63722e-05
0.00499046
2.65639e-05
0.00498517
2.65932e-05
0.00497988
2.6536e-05
0.0049746
2.64576e-05
0.00496933
2.64087e-05
0.00496406
2.64236e-05
0.00495877
2.65225e-05
0.00495345
2.67138e-05
0.00494807
2.69976e-05
0.00494261
2.73683e-05
0.00493708
2.78177e-05
0.00493144
2.83362e-05
0.00492569
2.89147e-05
0.00491982
2.95448e-05
0.00491382
3.02193e-05
0.00490768
3.09326e-05
0.0049014
3.168e-05
0.00489496
3.2458e-05
0.00488837
3.32643e-05
0.00488162
3.40969e-05
0.0048747
3.49546e-05
0.00486761
3.58366e-05
0.00486034
3.67421e-05
0.00485289
3.7671e-05
0.00484526
3.86229e-05
0.00483744
3.95979e-05
0.00482942
4.05958e-05
0.00482121
4.16167e-05
0.0048128
4.26608e-05
0.00480418
4.37284e-05
0.00479535
4.48205e-05
0.0047863
4.59397e-05
0.00477704
4.70934e-05
4.83041e-05
0.00476755
0.00505063
7.74151e-07
0.00505026
2.25673e-06
0.00504965
3.66112e-06
0.00504882
4.99632e-06
0.00504778
6.27067e-06
0.00504654
7.48912e-06
0.00504511
8.66255e-06
0.00504348
9.82288e-06
0.00504166
1.10333e-05
0.00503961
1.23826e-05
0.00503731
1.39608e-05
0.00503471
1.58242e-05
0.00503176
1.79674e-05
0.00502843
2.03138e-05
0.0050247
2.27292e-05
0.0050206
2.50526e-05
0.00501615
2.7132e-05
0.00501141
2.88545e-05
0.00500645
3.01629e-05
0.00500133
3.10574e-05
0.00499612
3.15856e-05
0.00499086
3.1826e-05
0.00498558
3.18706e-05
0.00498031
3.18094e-05
0.00497504
3.17206e-05
0.00496979
3.16644e-05
0.00496453
3.16825e-05
0.00495925
3.17992e-05
0.00495394
3.20251e-05
0.00494858
3.23604e-05
0.00494315
3.27992e-05
0.00493763
3.33316e-05
0.00493202
3.39465e-05
0.0049263
3.46331e-05
0.00492047
3.53814e-05
0.0049145
3.61829e-05
0.00490841
3.70308e-05
0.00490217
3.79196e-05
0.00489578
3.88452e-05
0.00488924
3.98044e-05
0.00488254
4.07951e-05
0.00487568
4.18156e-05
0.00486865
4.28649e-05
0.00486145
4.39422e-05
0.00485407
4.50471e-05
0.00484652
4.61792e-05
0.00483878
4.73383e-05
0.00483085
4.85244e-05
0.00482273
4.97375e-05
0.00481441
5.09776e-05
0.0048059
5.22449e-05
0.00479718
5.35404e-05
0.00478825
5.4866e-05
0.00477911
5.62285e-05
5.7648e-05
0.00476977
0.00505063
9.01879e-07
0.00505026
2.62879e-06
0.00504965
4.26481e-06
0.00504883
5.82009e-06
0.0050478
7.3045e-06
0.00504656
8.72382e-06
0.00504513
1.00906e-05
0.00504351
1.14415e-05
0.0050417
1.28493e-05
0.00503966
1.44164e-05
0.00503738
1.62469e-05
0.0050348
1.84067e-05
0.00503187
2.08906e-05
0.00502858
2.36114e-05
0.00502489
2.64149e-05
0.00502083
2.91154e-05
0.00501642
3.1537e-05
0.00501173
3.35486e-05
0.00500681
3.50824e-05
0.00500173
3.61372e-05
0.00499655
3.67668e-05
0.00499131
3.70609e-05
0.00498606
3.71251e-05
0.0049808
3.70635e-05
0.00497556
3.69665e-05
0.00497032
3.69043e-05
0.00496507
3.69255e-05
0.00495982
3.70589e-05
0.00495452
3.73173e-05
0.00494918
3.77017e-05
0.00494378
3.82052e-05
0.00493829
3.88171e-05
0.00493271
3.95246e-05
0.00492703
4.03153e-05
0.00492123
4.11777e-05
0.00491531
4.21022e-05
0.00490926
4.30806e-05
0.00490308
4.41065e-05
0.00489675
4.51753e-05
0.00489027
4.62831e-05
0.00488364
4.74273e-05
0.00487685
4.8606e-05
0.00486989
4.98179e-05
0.00486277
5.10621e-05
0.00485548
5.23378e-05
0.00484802
5.36447e-05
0.00484037
5.49824e-05
0.00483255
5.63508e-05
0.00482453
5.77497e-05
0.00481633
5.91791e-05
0.00480794
6.06391e-05
0.00479935
6.21302e-05
0.00479056
6.36536e-05
0.00478158
6.52134e-05
0.0047724
6.68212e-05
0.00476325
-1.92491e-07
2.54998e-09
0.00476291
3.37813e-07
2.49229e-09
0.004762
9.02104e-07
2.43743e-09
0.00476049
1.50415e-06
2.37711e-09
0.00475835
2.14673e-06
2.31192e-09
0.00475551
2.83335e-06
2.24225e-09
0.00475194
3.56793e-06
2.16791e-09
0.00474758
4.35483e-06
2.08877e-09
0.00474238
5.19893e-06
2.00445e-09
0.00473627
6.10571e-06
1.91477e-09
0.00472919
7.08125e-06
1.81927e-09
0.00472106
8.13241e-06
1.71769e-09
0.00471179
9.26685e-06
1.60982e-09
0.00470129
1.04932e-05
1.49762e-09
0.00468947
1.18212e-05
1.37388e-09
1.32619e-05
1.2571e-09
0.00476233
9.84229e-07
0.00476063
2.04236e-06
0.00475836
3.1694e-06
0.00475549
4.3712e-06
0.00475199
5.65398e-06
0.0047478
7.02474e-06
0.00474287
8.49137e-06
0.00473716
1.00626e-05
0.00473061
1.17483e-05
0.00472316
1.35594e-05
0.00471473
1.55081e-05
0.00470526
1.7608e-05
0.00469465
1.98747e-05
0.00468282
2.23254e-05
0.00466966
2.49795e-05
2.78592e-05
0.00476052
4.87651e-06
0.00475611
6.45866e-06
0.00475113
8.1438e-06
0.00474556
9.94062e-06
0.00473936
1.18586e-05
0.00473247
1.39084e-05
0.00472486
1.61019e-05
0.00471647
1.84523e-05
0.00470725
2.09744e-05
0.00469712
2.36847e-05
0.00468603
2.66016e-05
0.00467389
2.97457e-05
0.00466063
3.314e-05
0.00464614
3.68107e-05
0.00463033
4.0787e-05
4.51021e-05
0.00475784
1.27985e-05
0.0047494
1.48976e-05
0.00474041
1.71332e-05
0.00473084
1.9517e-05
0.00472063
2.2062e-05
0.00470976
2.47824e-05
0.00469817
2.76943e-05
0.00468581
3.08154e-05
0.00467261
3.41656e-05
0.00465853
3.77668e-05
0.00464349
4.16437e-05
0.00462741
4.58239e-05
0.00461021
5.03382e-05
0.0045918
5.52214e-05
0.00457208
6.05128e-05
6.62567e-05
0.00475434
2.6012e-05
0.00474062
2.86166e-05
0.00472636
3.13908e-05
0.00471153
3.43494e-05
0.00469608
3.7509e-05
0.00467998
4.08878e-05
0.00466317
4.45058e-05
0.0046456
4.83855e-05
0.00462721
5.25516e-05
0.00460795
5.70317e-05
0.00458773
6.18567e-05
0.0045665
6.7061e-05
0.00454415
7.26836e-05
0.0045206
7.87678e-05
0.00449575
8.5363e-05
9.25246e-05
0.00475007
4.57085e-05
0.00472989
4.88006e-05
0.00470918
5.20959e-05
0.00468792
5.56122e-05
0.00466606
5.93698e-05
0.00464356
6.33905e-05
0.00462037
6.76984e-05
0.00459643
7.23204e-05
0.0045717
7.7286e-05
0.0045461
8.26287e-05
0.00451957
8.83853e-05
0.00449203
9.45974e-05
0.00446341
0.000101312
0.00443359
0.000108581
0.00440249
0.000116463
0.000125027
0.00474513
7.29859e-05
0.00471739
7.65385e-05
0.00468915
8.03312e-05
0.00466038
8.43829e-05
0.00463104
8.87164e-05
0.00460107
9.33571e-05
0.00457043
9.83326e-05
0.00453908
0.000103674
0.00450695
0.000109416
0.00447398
0.000115598
0.0044401
0.000122262
0.00440525
0.000129457
0.00436932
0.000137237
0.00433224
0.000145665
0.00429389
0.000154808
0.000164746
0.00499418
8.32201e-05
-0.00500442
0.00498351
8.72135e-05
0.00497236
9.14774e-05
0.00496071
9.60332e-05
0.00494852
0.000100905
0.00493576
0.00010612
0.00492238
0.000111709
0.00490835
0.000117705
0.00489362
0.000124147
0.00487814
0.000131076
0.00486187
0.000138539
0.00484474
0.000146589
0.00482669
0.000155285
0.00480766
0.000164694
0.00478758
0.00017489
0.000185957
0.00499813
9.32395e-05
-0.00500815
0.00498768
9.76634e-05
0.00497677
0.000102384
0.00496538
0.000107425
0.00495347
0.000112813
0.00494101
0.000118578
0.00492797
0.000124752
0.0049143
0.000131371
0.00489998
0.000138476
0.00488494
0.000146112
0.00486915
0.00015433
0.00485255
0.000163184
0.0048351
0.00017274
0.00481673
0.000183065
0.00479738
0.000194241
0.000206355
0.00500254
0.000103003
-0.00501231
0.00499236
0.000107843
0.00498174
0.000113003
0.00497066
0.000118508
0.00495908
0.000124389
0.00494699
0.000130675
0.00493434
0.000137403
0.0049211
0.000144609
0.00490724
0.000152339
0.00489271
0.000160637
0.00487748
0.000169559
0.0048615
0.000179163
0.00484473
0.000189514
0.00482711
0.000200686
0.00480859
0.000212761
0.000225831
0.00500739
0.000112481
-0.00501687
0.00499752
0.000117718
0.00498722
0.000123295
0.00497649
0.000129241
0.00496529
0.000135586
0.0049536
0.000142364
0.0049414
0.000149611
0.00492864
0.000157367
0.0049153
0.000165677
0.00490135
0.000174591
0.00488674
0.000184163
0.00487145
0.000194455
0.00485543
0.000205534
0.00483864
0.000217476
0.00482104
0.000230366
0.000244296
0.00501265
0.000121649
-0.00502182
0.00500311
0.000127259
0.00499317
0.00013323
0.00498282
0.00013959
0.00497204
0.00014637
0.0049608
0.000153606
0.00494907
0.000161335
0.00493684
0.000169599
0.00492407
0.000178444
0.00491074
0.000187922
0.00489682
0.000198088
0.00488227
0.000209004
0.00486706
0.000220741
0.00485116
0.000233374
0.00483454
0.000246988
0.000261679
0.00501828
0.000130485
-0.00502712
0.0050091
0.000136445
0.00499955
0.000142782
0.00498961
0.000149526
0.00497927
0.00015671
0.00496851
0.000164368
0.0049573
0.00017254
0.00494563
0.000181269
0.00493347
0.000190602
0.00492081
0.00020059
0.0049076
0.00021129
0.00489384
0.000222765
0.0048795
0.000235086
0.00486454
0.000248328
0.00484895
0.000262578
0.000277928
0.00502427
0.000138972
-0.00503276
0.00501546
0.000145256
0.00500631
0.000151931
0.00499681
0.000159028
0.00498694
0.000166581
0.00497668
0.000174625
0.00496602
0.0001832
0.00495494
0.000192349
0.00494343
0.000202119
0.00493145
0.000212562
0.00491901
0.000223737
0.00490607
0.000235704
0.00489262
0.000248535
0.00487864
0.000262304
0.00486412
0.000277096
0.000293004
0.00503058
0.000147095
-0.0050387
0.00502216
0.000153675
0.00501343
0.000160659
0.00500438
0.000168077
0.004995
0.000175964
0.00498527
0.000184356
0.00497518
0.000193292
0.00496471
0.000202814
0.00495386
0.000212972
0.00494261
0.000223816
0.00493094
0.000235403
0.00491885
0.000247795
0.00490632
0.000261061
0.00489335
0.000275275
0.00487993
0.00029052
0.000306885
0.00503719
0.000154842
-0.00504493
0.00502917
0.00016169
0.00502088
0.000168952
0.0050123
0.000176659
0.00500341
0.000184845
0.00499423
0.000193545
0.00498472
0.000202799
0.00497488
0.00021265
0.00496471
0.000223144
0.00495419
0.000234333
0.00494332
0.000246272
0.0049321
0.000259023
0.00492051
0.000272651
0.00490855
0.000287229
0.00489624
0.000302837
0.000319562
0.00504406
0.000162201
-0.00505142
0.00503646
0.000169289
0.00502861
0.0001768
0.00502051
0.000184763
0.00501214
0.000193212
0.0050035
0.000202182
0.00499459
0.000211712
0.00498539
0.000221845
0.00497591
0.000232625
0.00496614
0.000244104
0.00495608
0.000256335
0.00494572
0.000269378
0.00493508
0.000283297
0.00492415
0.000298161
0.00491294
0.000314047
0.000331037
0.00505117
0.000169165
-0.00505813
0.00504399
0.000176466
0.0050366
0.000184195
0.00502898
0.000192381
0.00502113
0.000201057
0.00501306
0.000210259
0.00500474
0.000220023
0.0049962
0.000230392
0.00498741
0.00024141
0.00497839
0.000253125
0.00496914
0.00026559
0.00495965
0.000278861
0.00494995
0.000293001
0.00494003
0.000308076
0.00492992
0.000324158
0.000341325
0.00505849
0.000175729
-0.00506505
0.00505174
0.000183215
0.0050448
0.000191132
0.00503767
0.000199509
0.00503035
0.000208377
0.00502284
0.000217772
0.00501513
0.00022773
0.00500724
0.00023829
0.00499915
0.000249497
0.00499088
0.000261396
0.00498243
0.000274039
0.00497381
0.000287478
0.00496504
0.000301773
0.00495613
0.000316987
0.0049471
0.000333187
0.000350446
0.00506599
0.000181888
-0.00507215
0.00505967
0.000189532
0.0050532
0.000197607
0.00504656
0.000206143
0.00503977
0.00021517
0.00503282
0.000224722
0.00502572
0.000234833
0.00501846
0.000245543
0.00501107
0.000256892
0.00500354
0.000268926
0.00499589
0.000281691
0.00498812
0.00029524
0.00498027
0.000309627
0.00497235
0.000324912
0.00496438
0.000341157
0.00035843
0.00507365
0.000187642
-0.0050794
0.00506776
0.000195417
0.00506175
0.000203622
0.0050556
0.000212286
0.00504934
0.000221438
0.00504295
0.000231111
0.00503644
0.000241337
0.00502983
0.000252155
0.00502312
0.000263602
0.00501632
0.000275722
0.00500945
0.00028856
0.00500253
0.000302163
0.00499557
0.000316584
0.00498861
0.000331877
0.00498167
0.0003481
0.000365314
0.00508143
0.00019299
-0.00508678
0.00507598
0.00020087
0.00507042
0.000209178
0.00506477
0.00021794
0.00505902
0.000227186
0.00505319
0.000236945
0.00504728
0.00024725
0.00504129
0.000258136
0.00503526
0.00026964
0.00502918
0.000281801
0.00502308
0.000294663
0.00501697
0.000308269
0.00501089
0.000322669
0.00500485
0.000337911
0.0049989
0.000354049
0.00037114
0.00508932
0.000197934
-0.00509427
0.0050843
0.000205895
0.0050792
0.000214278
0.00507403
0.00022311
0.00506879
0.000232419
0.00506351
0.000242232
0.00505817
0.000252581
0.00505281
0.000263498
0.00504743
0.000275019
0.00504205
0.00028718
0.0050367
0.00030002
0.00503138
0.000313582
0.00502614
0.00032791
0.00502101
0.000343048
0.00501601
0.000359045
0.000375952
0.00509729
0.000202479
-0.00510183
0.00509269
0.000210496
0.00508804
0.000218929
0.00508334
0.000227804
0.00507861
0.000237146
0.00507386
0.000246983
0.0050691
0.000257342
0.00506434
0.000268256
0.00505961
0.000279757
0.00505491
0.000291878
0.00505027
0.000304656
0.00504572
0.00031813
0.00504129
0.000332339
0.00503702
0.000347325
0.00503293
0.00036313
0.000379801
0.00510531
0.000206629
-0.00510946
0.00510113
0.000214679
0.00509692
0.000223138
0.00509269
0.00023203
0.00508846
0.000241379
0.00508423
0.00025121
0.00508002
0.00026155
0.00507585
0.000272428
0.00507174
0.000283873
0.00506769
0.000295919
0.00506375
0.000308597
0.00505994
0.000321942
0.00505629
0.000335991
0.00505283
0.00035078
0.00504962
0.000366349
0.000382736
0.00511336
0.00021039
-0.00511712
0.00510959
0.000218452
0.00510581
0.000226915
0.00510204
0.000235799
0.00509829
0.000245129
0.00509458
0.000254927
0.00509091
0.000265219
0.0050873
0.000276031
0.00508379
0.00028739
0.00508038
0.000299327
0.00507711
0.00031187
0.005074
0.000325051
0.00507109
0.000338902
0.00506841
0.000353456
0.00506601
0.000368748
0.00038481
0.00512143
0.000213772
-0.00512481
0.00511805
0.000221825
0.0051147
0.000230269
0.00511138
0.000239123
0.00510809
0.00024841
0.00510487
0.00025815
0.00510172
0.000268367
0.00509867
0.000279086
0.00509573
0.00029033
0.00509293
0.000302128
0.00509029
0.000314504
0.00508785
0.000327489
0.00508565
0.000341109
0.00508371
0.000355394
0.00508208
0.000370374
0.000386077
0.00512948
0.000216781
-0.00513249
0.0051265
0.000224806
0.00512355
0.000233212
0.00512066
0.000242015
0.00511784
0.000251236
0.00511509
0.000260896
0.00511244
0.000271014
0.00510991
0.000281614
0.00510753
0.000292718
0.00510531
0.000304349
0.00510328
0.000316532
0.00510148
0.000329291
0.00509993
0.000342651
0.00509869
0.000356638
0.00509779
0.000371276
0.000386589
0.0051375
0.000219428
-0.00514015
0.0051349
0.000227408
0.00513236
0.000235756
0.00512988
0.000244489
0.00512749
0.000253625
0.00512521
0.000263182
0.00512304
0.00027318
0.00512102
0.000283639
0.00511916
0.000294578
0.00511749
0.000306019
0.00511604
0.000317983
0.00511484
0.000330492
0.00511392
0.000343567
0.00511333
0.00035723
0.0051131
0.000371501
0.000386401
0.00514548
0.000221724
-0.00514778
0.00514325
0.000229642
0.00514109
0.000237916
0.00513902
0.00024656
0.00513705
0.000255592
0.0051352
0.000265028
0.0051335
0.000274886
0.00513196
0.000285182
0.0051306
0.000295936
0.00512945
0.000307166
0.00512854
0.00031889
0.00512791
0.000331127
0.00512758
0.000343895
0.0051276
0.000357213
0.005128
0.000371097
0.000385562
0.0051534
0.00022368
-0.00515535
0.00515152
0.000231521
0.00514973
0.000239704
0.00514805
0.000248244
0.00514648
0.000257155
0.00514506
0.000266453
0.00514379
0.000276152
0.00514271
0.000286269
0.00514182
0.000296819
0.00514117
0.000307819
0.00514078
0.000319285
0.00514067
0.000331231
0.00514089
0.000343675
0.00514147
0.000356629
0.00514246
0.000370109
0.000384125
0.00516123
0.000225308
-0.00516286
0.0051597
0.000233058
0.00515827
0.000241136
0.00515695
0.000249557
0.00515578
0.000258332
0.00515475
0.000267475
0.0051539
0.000277001
0.00515325
0.000286922
0.00515282
0.000297253
0.00515263
0.000308007
0.00515272
0.000319198
0.00515311
0.000330839
0.00515384
0.000342943
0.00515495
0.000355521
0.00515647
0.000368584
0.000382139
0.00516898
0.000226619
-0.00517029
0.00516777
0.000234265
0.00516668
0.000242227
0.00516572
0.000250514
0.00516491
0.00025914
0.00516427
0.000268116
0.00516382
0.000277454
0.00516358
0.000287166
0.00516357
0.000297264
0.00516381
0.000307759
0.00516435
0.000318663
0.0051652
0.000329986
0.00516641
0.000341738
0.005168
0.000353928
0.00517002
0.000366564
0.000379651
0.00517662
0.000227627
-0.00517763
0.00517573
0.000235159
0.00517496
0.000242991
0.00517434
0.000251134
0.00517389
0.000259599
0.00517361
0.000268395
0.00517353
0.000277534
0.00517367
0.000287025
0.00517405
0.000296878
0.00517471
0.000307102
0.00517566
0.000317708
0.00517695
0.000328703
0.00517859
0.000340095
0.00518063
0.00035189
0.0051831
0.000364093
0.000376706
0.00518415
0.000228345
-0.00518486
0.00518355
0.000235751
0.0051831
0.000243444
0.0051828
0.000251433
0.00518268
0.000259726
0.00518274
0.000268333
0.00518301
0.000277262
0.00518351
0.000286521
0.00518427
0.00029612
0.00518531
0.000306066
0.00518665
0.000316365
0.00518833
0.000327025
0.00519037
0.00033805
0.00519282
0.000349444
0.0051957
0.00036121
0.000373348
0.00519155
0.000228785
-0.00519199
0.00519124
0.000236057
0.00519108
0.000243602
0.00519109
0.000251427
0.00519128
0.00025954
0.00519166
0.000267948
0.00519226
0.000276659
0.00519311
0.00028568
0.00519421
0.000295017
0.0051956
0.000304676
0.0051973
0.000314663
0.00519934
0.000324981
0.00520176
0.000335635
0.00520458
0.000346627
0.00520783
0.000357955
0.000369619
0.00519881
-0.00519899
0.00519878
0.0051989
0.0051992
0.00519968
0.00520036
0.00520128
0.00520243
0.00520386
0.00520558
0.00520761
0.00520999
0.00521274
0.00521589
0.00521948
0.00529276
1.03477e-06
0.00529237
3.01708e-06
0.00529174
4.89417e-06
0.00529088
6.67893e-06
0.00528981
8.38233e-06
0.00528852
1.00111e-05
0.00528703
1.15794e-05
0.00528534
1.31287e-05
0.00528345
1.47413e-05
0.00528133
1.65335e-05
0.00527896
1.86237e-05
0.00527628
2.10878e-05
0.00527325
2.39216e-05
0.00526983
2.70272e-05
0.00526601
3.0231e-05
0.00526181
3.33221e-05
0.00525724
3.61004e-05
0.00525238
3.84153e-05
0.00524727
4.01882e-05
0.00524199
4.14156e-05
0.0052366
4.21569e-05
0.00523115
4.25128e-05
0.00522567
4.26028e-05
0.00522019
4.25448e-05
0.00521472
4.24418e-05
0.00520925
4.23745e-05
0.00520377
4.23988e-05
0.00519828
4.25483e-05
0.00519276
4.28384e-05
0.00518719
4.32708e-05
0.00518156
4.38384e-05
0.00517585
4.45292e-05
0.00517004
4.53292e-05
0.00516413
4.62242e-05
0.00515811
4.72013e-05
0.00515196
4.82495e-05
0.00514568
4.93596e-05
0.00513927
5.05242e-05
0.0051327
5.17377e-05
0.00512599
5.29959e-05
0.00511912
5.42955e-05
0.00511209
5.56344e-05
0.0051049
5.70109e-05
0.00509754
5.84238e-05
0.00509001
5.98723e-05
0.00508229
6.13558e-05
0.0050744
6.28737e-05
0.00506633
6.44259e-05
0.00505807
6.6012e-05
0.00504961
6.76318e-05
0.00504097
6.92853e-05
0.00503212
7.09724e-05
0.00502308
7.26938e-05
0.00501385
7.44514e-05
7.62493e-05
0.00529276
1.16688e-06
0.00529238
3.40305e-06
0.00529175
5.51978e-06
0.0052909
7.5326e-06
0.00528983
9.45364e-06
0.00528855
1.12905e-05
0.00528707
1.30591e-05
0.00528539
1.48053e-05
0.00528351
1.66205e-05
0.00528141
1.86341e-05
0.00527905
2.09789e-05
0.0052764
2.37407e-05
0.00527341
2.69164e-05
0.00527004
3.03989e-05
0.00526627
3.39958e-05
0.00526212
3.74725e-05
0.00525762
4.0605e-05
0.00525281
4.32236e-05
0.00524776
4.52383e-05
0.00524253
4.66431e-05
0.00523718
4.75018e-05
0.00523177
4.79255e-05
0.00522633
4.80464e-05
0.00522088
4.79961e-05
0.00521543
4.789e-05
0.00520998
4.78187e-05
0.00520454
4.78457e-05
0.00519908
4.80098e-05
0.00519359
4.83287e-05
0.00518805
4.88055e-05
0.00518246
4.94328e-05
0.00517679
5.01977e-05
0.00517103
5.10848e-05
0.00516518
5.20787e-05
0.00515921
5.31651e-05
0.00515313
5.43314e-05
0.00514693
5.55673e-05
0.00514058
5.68647e-05
0.00513411
5.8217e-05
0.00512748
5.96194e-05
0.00512071
6.10683e-05
0.00511378
6.25609e-05
0.0051067
6.40953e-05
0.00509945
6.567e-05
0.00509204
6.7284e-05
0.00508446
6.89365e-05
0.00507671
7.06268e-05
0.00506878
7.23545e-05
0.00506067
7.41191e-05
0.00505238
7.59202e-05
0.00504391
7.77576e-05
0.00503525
7.9631e-05
0.0050264
8.15405e-05
0.00501737
8.34868e-05
8.54714e-05
0.00529276
1.29815e-06
0.00529238
3.78637e-06
0.00529176
6.14116e-06
0.00529091
8.38045e-06
0.00528985
1.05176e-05
0.00528858
1.25612e-05
0.00528711
1.45286e-05
0.00528544
1.64699e-05
0.00528358
1.84852e-05
0.00528149
2.07167e-05
0.00527916
2.33108e-05
0.00527654
2.63632e-05
0.00527358
2.98727e-05
0.00527026
3.37238e-05
0.00526655
3.77064e-05
0.00526246
4.15633e-05
0.00525802
4.50471e-05
0.00525327
4.79695e-05
0.00524828
5.02288e-05
0.00524311
5.18154e-05
0.00523781
5.27972e-05
0.00523244
5.32943e-05
0.00522704
5.34513e-05
0.00522162
5.34128e-05
0.0052162
5.33061e-05
0.00521079
5.32318e-05
0.00520538
5.32611e-05
0.00519995
5.34377e-05
0.00519449
5.37825e-05
0.005189
5.42996e-05
0.00518345
5.49818e-05
0.00517783
5.58156e-05
0.00517213
5.67845e-05
0.00516634
5.78714e-05
0.00516045
5.90609e-05
0.00515444
6.03391e-05
0.00514831
6.16946e-05
0.00514206
6.31183e-05
0.00513567
6.4603e-05
0.00512915
6.6143e-05
0.00512248
6.77341e-05
0.00511567
6.93734e-05
0.00510871
7.10583e-05
0.00510159
7.27873e-05
0.00509431
7.45589e-05
0.00508688
7.63721e-05
0.00507928
7.82262e-05
0.00507151
8.01203e-05
0.00506358
8.2054e-05
0.00505547
8.40265e-05
0.00504719
8.60375e-05
0.00503874
8.80864e-05
0.0050301
9.0173e-05
0.00502129
9.22972e-05
9.44594e-05
0.00529276
1.42845e-06
0.00529238
4.16677e-06
0.00529177
6.75784e-06
0.00529093
9.22186e-06
0.00528987
1.15735e-05
0.00528861
1.38221e-05
0.00528715
1.59866e-05
0.0052855
1.81213e-05
0.00528365
2.03342e-05
0.00528159
2.27798e-05
0.00527928
2.56176e-05
0.00527669
2.89536e-05
0.00527377
3.27887e-05
0.0052705
3.69999e-05
0.00526684
4.13608e-05
0.00526281
4.55921e-05
0.00525844
4.94244e-05
0.00525376
5.26502e-05
0.00524883
5.51564e-05
0.00524372
5.69289e-05
0.00523847
5.80389e-05
0.00523315
5.86149e-05
0.00522779
5.88129e-05
0.00522241
5.87899e-05
0.00521704
5.86849e-05
0.00521166
5.86085e-05
0.00520628
5.86393e-05
0.00520089
5.88262e-05
0.00519548
5.91935e-05
0.00519003
5.97467e-05
0.00518454
6.0479e-05
0.00517898
6.13761e-05
0.00517334
6.24206e-05
0.00516762
6.35945e-05
0.0051618
6.48806e-05
0.00515587
6.62642e-05
0.00514983
6.77326e-05
0.00514368
6.92758e-05
0.00513739
7.08857e-05
0.00513098
7.25561e-05
0.00512443
7.42822e-05
0.00511775
7.60604e-05
0.00511092
7.7888e-05
0.00510394
7.9763e-05
0.00509682
8.16836e-05
0.00508954
8.36487e-05
0.00508211
8.56571e-05
0.00507452
8.7708e-05
0.00506677
8.98005e-05
0.00505887
9.19338e-05
0.0050508
9.41073e-05
0.00504256
9.63202e-05
0.00503416
9.85718e-05
0.0050256
0.000100862
0.00010319
0.00529276
1.55769e-06
0.00529239
4.54398e-06
0.00529178
7.36938e-06
0.00529094
1.00562e-05
0.00528989
1.26204e-05
0.00528864
1.50723e-05
0.0052872
1.74323e-05
0.00528556
1.97582e-05
0.00528373
2.21661e-05
0.00528169
2.48218e-05
0.00527941
2.78981e-05
0.00527685
3.15107e-05
0.00527398
3.56632e-05
0.00527075
4.02262e-05
0.00526715
4.49577e-05
0.00526319
4.95579e-05
0.00525888
5.37351e-05
0.00525426
5.72639e-05
0.0052494
6.00186e-05
0.00524435
6.19808e-05
0.00523916
6.32236e-05
0.0052339
6.38833e-05
0.00522858
6.41266e-05
0.00522325
6.41224e-05
0.00521791
6.40211e-05
0.00521258
6.39429e-05
0.00520724
6.39741e-05
0.0052019
6.41691e-05
0.00519654
6.45553e-05
0.00519115
6.51401e-05
0.00518571
6.59172e-05
0.00518021
6.68719e-05
0.00517465
6.79859e-05
0.005169
6.92401e-05
0.00516327
7.06162e-05
0.00515743
7.20982e-05
0.00515149
7.36725e-05
0.00514544
7.53279e-05
0.00513927
7.70556e-05
0.00513298
7.88487e-05
0.00512656
8.07019e-05
0.00512001
8.2611e-05
0.00511332
8.45728e-05
0.0051065
8.6585e-05
0.00509954
8.86456e-05
0.00509243
9.0753e-05
0.00508518
9.29059e-05
0.00507779
9.51032e-05
0.00507025
9.73437e-05
0.00506255
9.96265e-05
0.00505471
0.000101951
0.00504671
0.000104315
0.00503857
0.000106719
0.00503027