/*--------------------------------*- C++ -*----------------------------------*\
| =========                 |                                                 |
| \\      /  F ield         | OpenFOAM: The Open Source CFD Toolbox           |
|  \\    /   O peration     | Version:  2412                                  |
|   \\  /    A nd           | Website:  www.openfoam.com                      |
|    \\/     M anipulation  |                                                 |
\*---------------------------------------------------------------------------*/
FoamFile
{
    version     2.0;
    format      ascii;
    arch        "LSB;label=32;scalar=64";
    class       volScalarField;
    location    "7";
    object      p;
}
// * * * * * * * * * * * * * * * * * * * * * * * * * * * * * * * * * * * * * //

dimensions      [0 2 -2 0 0 0 0];

internalField   nonuniform List<scalar> 
5285
(
-3.2501e-05
-3.10036e-05
-2.95425e-05
-2.81186e-05
-2.67329e-05
-2.53859e-05
-2.40781e-05
-2.281e-05
-2.15819e-05
-2.03941e-05
-1.92466e-05
-1.81396e-05
-1.70729e-05
-1.60465e-05
-1.50601e-05
-1.41134e-05
-1.3206e-05
-1.23375e-05
-1.15073e-05
-1.07149e-05
-9.95965e-06
-9.24075e-06
-8.55757e-06
-7.9092e-06
-7.29475e-06
-6.71343e-06
-6.16417e-06
-5.64607e-06
-5.15817e-06
-4.6993e-06
-4.26859e-06
-3.86496e-06
-3.48722e-06
-3.13438e-06
-2.80536e-06
-2.49905e-06
-2.21424e-06
-1.94999e-06
-1.70511e-06
-1.47856e-06
-1.26937e-06
-1.07636e-06
-8.98658e-07
-7.35019e-07
-5.84677e-07
-4.46499e-07
-3.19284e-07
-2.02688e-07
-9.46441e-08
3.42813e-09
9.79109e-08
1.76251e-07
2.72757e-07
3.07169e-07
4.71746e-07
3.3493e-07
8.31252e-07
4.42468e-08
1.70754e-06
-1.03287e-06
3.6363e-06
-3.24999e-06
6.42331e-06
-5.31794e-06
7.30924e-06
-3.11378e-06
1.91134e-06
5.909e-06
-8.08522e-06
1.45811e-05
-1.14203e-05
-3.24901e-05
-3.09931e-05
-2.95323e-05
-2.81088e-05
-2.67234e-05
-2.53768e-05
-2.40694e-05
-2.28016e-05
-2.15739e-05
-2.03864e-05
-1.92393e-05
-1.81327e-05
-1.70663e-05
-1.60403e-05
-1.50542e-05
-1.41078e-05
-1.32008e-05
-1.23326e-05
-1.15027e-05
-1.07106e-05
-9.95562e-06
-9.23699e-06
-8.55406e-06
-7.90593e-06
-7.2917e-06
-6.71061e-06
-6.16156e-06
-5.64365e-06
-5.15595e-06
-4.69725e-06
-4.26671e-06
-3.86323e-06
-3.48564e-06
-3.13293e-06
-2.80404e-06
-2.49785e-06
-2.21315e-06
-1.949e-06
-1.70422e-06
-1.47775e-06
-1.26865e-06
-1.07571e-06
-8.9808e-07
-7.34495e-07
-5.84217e-07
-4.46086e-07
-3.18927e-07
-2.02363e-07
-9.43848e-08
3.67667e-09
9.80987e-08
1.76426e-07
2.72888e-07
3.07293e-07
4.71788e-07
3.35087e-07
8.31114e-07
4.45656e-08
1.70712e-06
-1.03235e-06
3.6357e-06
-3.24958e-06
6.42312e-06
-5.31838e-06
7.31019e-06
-3.11518e-06
1.91254e-06
5.90839e-06
-8.08586e-06
1.45824e-05
-1.14261e-05
-3.24684e-05
-3.09721e-05
-2.95119e-05
-2.80891e-05
-2.67044e-05
-2.53585e-05
-2.40519e-05
-2.27849e-05
-2.15579e-05
-2.03712e-05
-1.92248e-05
-1.81189e-05
-1.70533e-05
-1.60279e-05
-1.50425e-05
-1.40968e-05
-1.31904e-05
-1.23228e-05
-1.14935e-05
-1.0702e-05
-9.94755e-06
-9.22946e-06
-8.54702e-06
-7.89938e-06
-7.28563e-06
-6.70496e-06
-6.15633e-06
-5.63882e-06
-5.15147e-06
-4.69314e-06
-4.26294e-06
-3.85975e-06
-3.48247e-06
-3.13004e-06
-2.80139e-06
-2.49543e-06
-2.21096e-06
-1.94702e-06
-1.70243e-06
-1.47614e-06
-1.2672e-06
-1.07441e-06
-8.96911e-07
-7.33454e-07
-5.83285e-07
-4.45252e-07
-3.18208e-07
-2.01732e-07
-9.38388e-08
4.14423e-09
9.84903e-08
1.76767e-07
2.73145e-07
3.07567e-07
4.71845e-07
3.35416e-07
8.30829e-07
4.51917e-08
1.70628e-06
-1.0313e-06
3.63446e-06
-3.24872e-06
6.42274e-06
-5.31927e-06
7.31206e-06
-3.11802e-06
1.91502e-06
5.90714e-06
-8.08703e-06
1.45849e-05
-1.14373e-05
-3.24359e-05
-3.09405e-05
-2.94813e-05
-2.80596e-05
-2.6676e-05
-2.53312e-05
-2.40256e-05
-2.27598e-05
-2.15339e-05
-2.03483e-05
-1.9203e-05
-1.80981e-05
-1.70336e-05
-1.60093e-05
-1.50249e-05
-1.40802e-05
-1.31747e-05
-1.23081e-05
-1.14797e-05
-1.06891e-05
-9.93544e-06
-9.21816e-06
-8.53648e-06
-7.88956e-06
-7.27651e-06
-6.69648e-06
-6.14848e-06
-5.63157e-06
-5.14477e-06
-4.68698e-06
-4.25727e-06
-3.85455e-06
-3.47771e-06
-3.12569e-06
-2.79742e-06
-2.4918e-06
-2.20767e-06
-1.94404e-06
-1.69974e-06
-1.47372e-06
-1.26502e-06
-1.07245e-06
-8.95154e-07
-7.31888e-07
-5.81888e-07
-4.44009e-07
-3.17128e-07
-2.00784e-07
-9.30191e-08
4.85077e-09
9.90808e-08
1.77284e-07
2.73525e-07
3.07982e-07
4.71933e-07
3.35912e-07
8.30407e-07
4.61189e-08
1.70504e-06
-1.02975e-06
3.63265e-06
-3.24749e-06
6.42225e-06
-5.32071e-06
7.31498e-06
-3.12235e-06
1.91878e-06
5.90529e-06
-8.08885e-06
1.45888e-05
-1.14537e-05
-3.23925e-05
-3.08983e-05
-2.94405e-05
-2.80202e-05
-2.6638e-05
-2.52947e-05
-2.39906e-05
-2.27263e-05
-2.15019e-05
-2.03178e-05
-1.9174e-05
-1.80705e-05
-1.70074e-05
-1.59845e-05
-1.50015e-05
-1.40581e-05
-1.31539e-05
-1.22885e-05
-1.14613e-05
-1.06718e-05
-9.91931e-06
-9.2031e-06
-8.52242e-06
-7.87647e-06
-7.26434e-06
-6.68518e-06
-6.13802e-06
-5.6219e-06
-5.13583e-06
-4.67876e-06
-4.24972e-06
-3.8476e-06
-3.47135e-06
-3.11988e-06
-2.79211e-06
-2.48697e-06
-2.20328e-06
-1.94006e-06
-1.69614e-06
-1.47049e-06
-1.26211e-06
-1.06983e-06
-8.92811e-07
-7.29798e-07
-5.80027e-07
-4.42357e-07
-3.15686e-07
-1.9952e-07
-9.19258e-08
5.79515e-09
9.98702e-08
1.77978e-07
2.7403e-07
3.08535e-07
4.72055e-07
3.36564e-07
8.29868e-07
4.73117e-08
1.70346e-06
-1.02781e-06
3.63045e-06
-3.24615e-06
6.42199e-06
-5.32309e-06
7.31932e-06
-3.12845e-06
1.92388e-06
5.90305e-06
-8.09173e-06
1.45946e-05
-1.14751e-05
-3.23382e-05
-3.08457e-05
-2.93895e-05
-2.79709e-05
-2.65906e-05
-2.52491e-05
-2.39469e-05
-2.26844e-05
-2.14619e-05
-2.02796e-05
-1.91376e-05
-1.8036e-05
-1.69747e-05
-1.59535e-05
-1.49722e-05
-1.40304e-05
-1.31279e-05
-1.2264e-05
-1.14383e-05
-1.06503e-05
-9.89915e-06
-9.18427e-06
-8.50486e-06
-7.86011e-06
-7.24914e-06
-6.67107e-06
-6.12495e-06
-5.60981e-06
-5.12468e-06
-4.66849e-06
-4.24027e-06
-3.83893e-06
-3.46341e-06
-3.11262e-06
-2.78548e-06
-2.48093e-06
-2.1978e-06
-1.93509e-06
-1.69165e-06
-1.46645e-06
-1.25847e-06
-1.06656e-06
-8.89883e-07
-7.27185e-07
-5.77703e-07
-4.40297e-07
-3.13882e-07
-1.97941e-07
-9.0559e-08
6.97632e-09
1.00858e-07
1.78846e-07
2.74659e-07
3.09228e-07
4.72207e-07
3.37384e-07
8.29189e-07
4.8811e-08
1.70146e-06
-1.02537e-06
3.62766e-06
-3.24443e-06
6.42163e-06
-5.32602e-06
7.3247e-06
-3.13604e-06
1.93025e-06
5.90021e-06
-8.09514e-06
1.46015e-05
-1.14997e-05
-3.2273e-05
-3.07824e-05
-2.93283e-05
-2.79119e-05
-2.65337e-05
-2.51944e-05
-2.38944e-05
-2.26342e-05
-2.14139e-05
-2.02338e-05
-1.90941e-05
-1.79947e-05
-1.69355e-05
-1.59163e-05
-1.49371e-05
-1.39973e-05
-1.30966e-05
-1.22347e-05
-1.14108e-05
-1.06244e-05
-9.87497e-06
-9.16169e-06
-8.4838e-06
-7.8405e-06
-7.23091e-06
-6.65415e-06
-6.10928e-06
-5.59532e-06
-5.1113e-06
-4.65617e-06
-4.22894e-06
-3.82853e-06
-3.45388e-06
-3.10391e-06
-2.77753e-06
-2.47369e-06
-2.19122e-06
-1.92913e-06
-1.68626e-06
-1.46159e-06
-1.2541e-06
-1.06264e-06
-8.86369e-07
-7.2405e-07
-5.74916e-07
-4.3783e-07
-3.11718e-07
-1.96047e-07
-8.89197e-08
8.39465e-09
1.02042e-07
1.79893e-07
2.75402e-07
3.10088e-07
4.7233e-07
3.38493e-07
8.28125e-07
5.1078e-08
1.69824e-06
-1.02106e-06
3.62218e-06
-3.23932e-06
6.41728e-06
-5.32512e-06
7.32696e-06
-3.14222e-06
1.93735e-06
5.89428e-06
-8.09364e-06
1.46026e-05
-1.15193e-05
-3.21952e-05
-3.07069e-05
-2.92552e-05
-2.78413e-05
-2.64657e-05
-2.5129e-05
-2.38317e-05
-2.25741e-05
-2.13566e-05
-2.01792e-05
-1.90421e-05
-1.79452e-05
-1.68886e-05
-1.5872e-05
-1.48951e-05
-1.39577e-05
-1.30594e-05
-1.21996e-05
-1.13779e-05
-1.05936e-05
-9.84611e-06
-9.13472e-06
-8.45865e-06
-7.81708e-06
-7.20915e-06
-6.63394e-06
-6.09057e-06
-5.57801e-06
-5.09532e-06
-4.64145e-06
-4.2154e-06
-3.8161e-06
-3.4425e-06
-3.0935e-06
-2.76804e-06
-2.46504e-06
-2.18336e-06
-1.92201e-06
-1.67983e-06
-1.45579e-06
-1.24888e-06
-1.05795e-06
-8.82172e-07
-7.20306e-07
-5.7159e-07
-4.34886e-07
-3.09134e-07
-1.93785e-07
-8.69624e-08
1.00903e-08
1.03454e-07
1.81153e-07
2.76269e-07
3.11159e-07
4.7238e-07
3.40026e-07
8.26435e-07
5.45885e-08
1.69294e-06
-1.01346e-06
3.61181e-06
-3.22776e-06
6.40499e-06
-5.31596e-06
7.32194e-06
-3.14422e-06
1.94485e-06
5.88247e-06
-8.08146e-06
1.45902e-05
-1.1526e-05
-3.21034e-05
-3.06179e-05
-2.91691e-05
-2.77582e-05
-2.63857e-05
-2.50521e-05
-2.3758e-05
-2.25036e-05
-2.12891e-05
-2.01149e-05
-1.89809e-05
-1.78871e-05
-1.68335e-05
-1.58198e-05
-1.48458e-05
-1.39112e-05
-1.30155e-05
-1.21584e-05
-1.13392e-05
-1.05573e-05
-9.81217e-06
-9.10303e-06
-8.42908e-06
-7.78955e-06
-7.18356e-06
-6.6102e-06
-6.06857e-06
-5.55767e-06
-5.07655e-06
-4.62415e-06
-4.1995e-06
-3.8015e-06
-3.42912e-06
-3.08127e-06
-2.75687e-06
-2.45487e-06
-2.17413e-06
-1.91364e-06
-1.67226e-06
-1.44896e-06
-1.24274e-06
-1.05243e-06
-8.77239e-07
-7.15906e-07
-5.6768e-07
-4.31427e-07
-3.06096e-07
-1.91127e-07
-8.466e-08
1.20809e-08
1.05122e-07
1.82615e-07
2.77331e-07
3.12322e-07
4.72644e-07
3.41417e-07
8.25232e-07
5.7302e-08
1.68909e-06
-1.0083e-06
3.60515e-06
-3.22157e-06
6.39954e-06
-5.31473e-06
7.32447e-06
-3.15184e-06
1.95396e-06
5.87412e-06
-8.07767e-06
1.4589e-05
-1.15454e-05
-3.19997e-05
-3.05173e-05
-2.90718e-05
-2.76643e-05
-2.62952e-05
-2.49652e-05
-2.36746e-05
-2.24238e-05
-2.1213e-05
-2.00423e-05
-1.89118e-05
-1.78215e-05
-1.67712e-05
-1.57609e-05
-1.47901e-05
-1.38586e-05
-1.2966e-05
-1.21118e-05
-1.12955e-05
-1.05164e-05
-9.77386e-06
-9.06723e-06
-8.3957e-06
-7.75847e-06
-7.15467e-06
-6.58338e-06
-6.04374e-06
-5.53471e-06
-5.05535e-06
-4.60463e-06
-4.18154e-06
-3.78501e-06
-3.41402e-06
-3.06746e-06
-2.74427e-06
-2.4434e-06
-2.1637e-06
-1.90419e-06
-1.66372e-06
-1.44126e-06
-1.23581e-06
-1.04621e-06
-8.71669e-07
-7.10938e-07
-5.63268e-07
-4.27523e-07
-3.02666e-07
-1.88126e-07
-8.20595e-08
1.43265e-08
1.07011e-07
1.84254e-07
2.78558e-07
3.13575e-07
4.73066e-07
3.42748e-07
8.24318e-07
5.95953e-08
1.686e-06
-1.00436e-06
3.60024e-06
-3.21787e-06
6.39707e-06
-5.31696e-06
7.33019e-06
-3.16192e-06
1.964e-06
5.86667e-06
-8.07642e-06
1.45913e-05
-1.15687e-05
-3.18839e-05
-3.0405e-05
-2.89632e-05
-2.75595e-05
-2.61944e-05
-2.48683e-05
-2.35817e-05
-2.23349e-05
-2.11281e-05
-1.99614e-05
-1.88348e-05
-1.77483e-05
-1.67019e-05
-1.56952e-05
-1.4728e-05
-1.38001e-05
-1.29109e-05
-1.206e-05
-1.12468e-05
-1.04707e-05
-9.73117e-06
-9.02736e-06
-8.35852e-06
-7.72384e-06
-7.12248e-06
-6.55352e-06
-6.01608e-06
-5.50913e-06
-5.03175e-06
-4.58287e-06
-4.16153e-06
-3.76664e-06
-3.39719e-06
-3.05208e-06
-2.73023e-06
-2.43061e-06
-2.15209e-06
-1.89366e-06
-1.6542e-06
-1.43267e-06
-1.22808e-06
-1.03927e-06
-8.65465e-07
-7.05405e-07
-5.58353e-07
-4.23176e-07
-2.98845e-07
-1.84783e-07
-7.91626e-08
1.6827e-08
1.09117e-07
1.86075e-07
2.79937e-07
3.14946e-07
4.73585e-07
3.44143e-07
8.23443e-07
6.19381e-08
1.68282e-06
-1.00024e-06
3.59491e-06
-3.21357e-06
6.39363e-06
-5.31814e-06
7.33482e-06
-3.17149e-06
1.97439e-06
5.85755e-06
-8.0721e-06
1.45896e-05
-1.15871e-05
-3.1756e-05
-3.02811e-05
-2.88434e-05
-2.74439e-05
-2.60831e-05
-2.47614e-05
-2.34793e-05
-2.22369e-05
-2.10345e-05
-1.98721e-05
-1.87499e-05
-1.76677e-05
-1.66254e-05
-1.56228e-05
-1.46596e-05
-1.37355e-05
-1.28501e-05
-1.20028e-05
-1.11931e-05
-1.04205e-05
-9.68413e-06
-8.98342e-06
-8.31754e-06
-7.68568e-06
-7.08702e-06
-6.52061e-06
-5.9856e-06
-5.48094e-06
-5.00573e-06
-4.5589e-06
-4.13948e-06
-3.74641e-06
-3.37865e-06
-3.03513e-06
-2.71477e-06
-2.41653e-06
-2.13929e-06
-1.88206e-06
-1.64371e-06
-1.4232e-06
-1.21957e-06
-1.03163e-06
-8.58628e-07
-6.99309e-07
-5.52938e-07
-4.18388e-07
-2.94636e-07
-1.81101e-07
-7.59706e-08
1.95814e-08
1.1144e-07
1.88077e-07
2.81466e-07
3.16436e-07
4.74196e-07
3.45611e-07
8.22585e-07
6.4369e-08
1.67949e-06
-9.95829e-07
3.58899e-06
-3.20844e-06
6.38889e-06
-5.31791e-06
7.33798e-06
-3.18026e-06
1.98506e-06
5.84658e-06
-8.06418e-06
1.45833e-05
-1.15988e-05
-3.1616e-05
-3.01454e-05
-2.87123e-05
-2.73174e-05
-2.59614e-05
-2.46446e-05
-2.33672e-05
-2.21297e-05
-2.09321e-05
-1.97746e-05
-1.86571e-05
-1.75795e-05
-1.65418e-05
-1.55437e-05
-1.45849e-05
-1.3665e-05
-1.27837e-05
-1.19404e-05
-1.11345e-05
-1.03656e-05
-9.63276e-06
-8.93543e-06
-8.27279e-06
-7.64401e-06
-7.04829e-06
-6.48467e-06
-5.95231e-06
-5.45017e-06
-4.97733e-06
-4.53273e-06
-4.11541e-06
-3.72431e-06
-3.35841e-06
-3.01662e-06
-2.69788e-06
-2.40115e-06
-2.12531e-06
-1.86939e-06
-1.63225e-06
-1.41287e-06
-1.21027e-06
-1.02328e-06
-8.51164e-07
-6.92653e-07
-5.47027e-07
-4.1316e-07
-2.9004e-07
-1.77081e-07
-7.24849e-08
2.25884e-08
1.13978e-07
1.90259e-07
2.83145e-07
3.18042e-07
4.74902e-07
3.47143e-07
8.21762e-07
6.68535e-08
1.67607e-06
-9.9123e-07
3.58265e-06
-3.20273e-06
6.38321e-06
-5.31667e-06
7.34008e-06
-3.18853e-06
1.99609e-06
5.83396e-06
-8.05305e-06
1.4573e-05
-1.16036e-05
-3.14639e-05
-2.99981e-05
-2.85698e-05
-2.71801e-05
-2.58293e-05
-2.45177e-05
-2.32457e-05
-2.20134e-05
-2.08211e-05
-1.96688e-05
-1.85564e-05
-1.7484e-05
-1.64512e-05
-1.5458e-05
-1.45039e-05
-1.35886e-05
-1.27117e-05
-1.18727e-05
-1.1071e-05
-1.0306e-05
-9.57706e-06
-8.88341e-06
-8.22427e-06
-7.59884e-06
-7.00631e-06
-6.44572e-06
-5.91624e-06
-5.41681e-06
-4.94654e-06
-4.50436e-06
-4.08932e-06
-3.70036e-06
-3.33647e-06
-2.99656e-06
-2.67957e-06
-2.38448e-06
-2.11017e-06
-1.85565e-06
-1.61983e-06
-1.40166e-06
-1.20019e-06
-1.01424e-06
-8.43073e-07
-6.8544e-07
-5.40621e-07
-4.07495e-07
-2.85059e-07
-1.72724e-07
-6.87071e-08
2.58467e-08
1.16731e-07
1.92619e-07
2.84974e-07
3.19763e-07
4.75703e-07
3.48739e-07
8.20974e-07
6.93857e-08
1.67256e-06
-9.8647e-07
3.57593e-06
-3.1965e-06
6.37666e-06
-5.31454e-06
7.34123e-06
-3.1964e-06
2.00752e-06
5.81971e-06
-8.03876e-06
1.45586e-05
-1.16011e-05
-3.12996e-05
-2.98389e-05
-2.84161e-05
-2.70319e-05
-2.56867e-05
-2.43809e-05
-2.31146e-05
-2.18881e-05
-2.07014e-05
-1.95547e-05
-1.8448e-05
-1.7381e-05
-1.63536e-05
-1.53656e-05
-1.44166e-05
-1.35063e-05
-1.26342e-05
-1.17998e-05
-1.10026e-05
-1.02419e-05
-9.51707e-06
-8.82737e-06
-8.17202e-06
-7.55019e-06
-6.9611e-06
-6.40377e-06
-5.87739e-06
-5.38089e-06
-4.91338e-06
-4.47381e-06
-4.06123e-06
-3.67457e-06
-3.31284e-06
-2.97495e-06
-2.65986e-06
-2.36653e-06
-2.09386e-06
-1.84087e-06
-1.60646e-06
-1.3896e-06
-1.18933e-06
-1.0045e-06
-8.34362e-07
-6.77673e-07
-5.33723e-07
-4.01396e-07
-2.79695e-07
-1.68033e-07
-6.46389e-08
2.9355e-08
1.19697e-07
1.95158e-07
2.86951e-07
3.216e-07
4.76596e-07
3.50399e-07
8.20219e-07
7.19707e-08
1.66896e-06
-9.81537e-07
3.56882e-06
-3.18974e-06
6.36923e-06
-5.3115e-06
7.34141e-06
-3.20387e-06
2.01937e-06
5.8038e-06
-8.02122e-06
1.454e-05
-1.15909e-05
-3.11231e-05
-2.96681e-05
-2.82511e-05
-2.68729e-05
-2.55338e-05
-2.42341e-05
-2.2974e-05
-2.17536e-05
-2.05731e-05
-1.94325e-05
-1.83317e-05
-1.72706e-05
-1.62489e-05
-1.52665e-05
-1.4323e-05
-1.3418e-05
-1.25511e-05
-1.17217e-05
-1.09293e-05
-1.01732e-05
-9.4528e-06
-8.76734e-06
-8.11604e-06
-7.49808e-06
-6.91267e-06
-6.35883e-06
-5.83577e-06
-5.34241e-06
-4.87787e-06
-4.44109e-06
-4.03113e-06
-3.64695e-06
-3.28753e-06
-2.95182e-06
-2.63875e-06
-2.3473e-06
-2.07639e-06
-1.82503e-06
-1.59213e-06
-1.37667e-06
-1.17771e-06
-9.94065e-07
-8.25032e-07
-6.69357e-07
-5.26337e-07
-3.94865e-07
-2.73951e-07
-1.63009e-07
-6.0282e-08
3.31118e-08
1.22875e-07
1.97874e-07
2.89074e-07
3.23552e-07
4.7758e-07
3.52125e-07
8.19491e-07
7.46132e-08
1.66526e-06
-9.76418e-07
3.56128e-06
-3.18242e-06
6.36088e-06
-5.30752e-06
7.34063e-06
-3.21094e-06
2.03166e-06
5.7862e-06
-8.00034e-06
1.45173e-05
-1.15727e-05
-3.09343e-05
-2.94854e-05
-2.80748e-05
-2.6703e-05
-2.53705e-05
-2.40773e-05
-2.28238e-05
-2.16101e-05
-2.04362e-05
-1.9302e-05
-1.82076e-05
-1.71528e-05
-1.61373e-05
-1.51609e-05
-1.42232e-05
-1.33239e-05
-1.24625e-05
-1.16384e-05
-1.08511e-05
-1.01e-05
-9.38428e-06
-8.70334e-06
-8.05637e-06
-7.44252e-06
-6.86104e-06
-6.31094e-06
-5.79141e-06
-5.3014e-06
-4.84002e-06
-4.40621e-06
-3.99906e-06
-3.61751e-06
-3.26056e-06
-2.92716e-06
-2.61625e-06
-2.32681e-06
-2.05777e-06
-1.80814e-06
-1.57686e-06
-1.3629e-06
-1.16531e-06
-9.82947e-07
-8.15088e-07
-6.60493e-07
-5.18466e-07
-3.87905e-07
-2.6783e-07
-1.57655e-07
-5.56383e-08
3.71156e-08
1.26263e-07
2.00765e-07
2.91344e-07
3.25619e-07
4.78654e-07
3.53917e-07
8.18788e-07
7.7317e-08
1.66145e-06
-9.71106e-07
3.55332e-06
-3.17454e-06
6.35162e-06
-5.30262e-06
7.33886e-06
-3.21761e-06
2.0444e-06
5.7669e-06
-7.97609e-06
1.44902e-05
-1.15464e-05
-3.07333e-05
-2.9291e-05
-2.78871e-05
-2.65223e-05
-2.51967e-05
-2.39107e-05
-2.26643e-05
-2.14576e-05
-2.02906e-05
-1.91634e-05
-1.80758e-05
-1.70277e-05
-1.60187e-05
-1.50487e-05
-1.41173e-05
-1.3224e-05
-1.23684e-05
-1.155e-05
-1.07681e-05
-1.00222e-05
-9.31154e-06
-8.6354e-06
-7.99302e-06
-7.38355e-06
-6.80624e-06
-6.26009e-06
-5.74432e-06
-5.25787e-06
-4.79984e-06
-4.3692e-06
-3.96502e-06
-3.58626e-06
-3.23194e-06
-2.90099e-06
-2.59237e-06
-2.30507e-06
-2.03801e-06
-1.79022e-06
-1.56066e-06
-1.34828e-06
-1.15216e-06
-9.71147e-07
-8.04535e-07
-6.51087e-07
-5.10112e-07
-3.80519e-07
-2.61334e-07
-1.51973e-07
-5.07098e-08
4.13647e-08
1.2986e-07
2.03831e-07
2.93757e-07
3.27799e-07
4.79814e-07
3.55775e-07
8.18105e-07
8.00858e-08
1.65752e-06
-9.65593e-07
3.54493e-06
-3.16608e-06
6.34143e-06
-5.29677e-06
7.33612e-06
-3.22392e-06
2.0576e-06
5.74589e-06
-7.94845e-06
1.44589e-05
-1.15122e-05
-3.052e-05
-2.90848e-05
-2.76882e-05
-2.63307e-05
-2.50126e-05
-2.37341e-05
-2.24952e-05
-2.1296e-05
-2.01365e-05
-1.90167e-05
-1.79363e-05
-1.68953e-05
-1.58933e-05
-1.493e-05
-1.40052e-05
-1.31183e-05
-1.22689e-05
-1.14564e-05
-1.06803e-05
-9.93995e-06
-9.2346e-06
-8.56354e-06
-7.92602e-06
-7.32118e-06
-6.74828e-06
-6.20632e-06
-5.69453e-06
-5.21183e-06
-4.75735e-06
-4.33005e-06
-3.92902e-06
-3.55322e-06
-3.20167e-06
-2.87331e-06
-2.56712e-06
-2.28207e-06
-2.01711e-06
-1.77128e-06
-1.54352e-06
-1.33282e-06
-1.13825e-06
-9.5867e-07
-7.93377e-07
-6.41143e-07
-5.0128e-07
-3.7271e-07
-2.54466e-07
-1.45965e-07
-4.54985e-08
4.58573e-08
1.33664e-07
2.07071e-07
2.96314e-07
3.30093e-07
4.81061e-07
3.57702e-07
8.1744e-07
8.29234e-08
1.65347e-06
-9.59868e-07
3.53607e-06
-3.15704e-06
6.33029e-06
-5.28999e-06
7.33241e-06
-3.22985e-06
2.07126e-06
5.72318e-06
-7.91743e-06
1.44233e-05
-1.14701e-05
-3.02944e-05
-2.88667e-05
-2.74779e-05
-2.61283e-05
-2.48182e-05
-2.35477e-05
-2.23168e-05
-2.11255e-05
-1.99739e-05
-1.88618e-05
-1.77891e-05
-1.67556e-05
-1.57609e-05
-1.48049e-05
-1.3887e-05
-1.30068e-05
-1.21639e-05
-1.13578e-05
-1.05878e-05
-9.85323e-06
-9.15349e-06
-8.48779e-06
-7.8554e-06
-7.25544e-06
-6.68719e-06
-6.14965e-06
-5.64204e-06
-5.16331e-06
-4.71257e-06
-4.2888e-06
-3.89109e-06
-3.5184e-06
-3.16977e-06
-2.84415e-06
-2.54051e-06
-2.25783e-06
-1.99509e-06
-1.75131e-06
-1.52546e-06
-1.31652e-06
-1.1236e-06
-9.45523e-07
-7.81618e-07
-6.30664e-07
-4.91974e-07
-3.64482e-07
-2.47229e-07
-1.39635e-07
-4.00067e-08
5.05915e-08
1.37674e-07
2.10483e-07
2.99012e-07
3.32499e-07
4.82391e-07
3.59696e-07
8.16788e-07
8.58342e-08
1.64929e-06
-9.53923e-07
3.52675e-06
-3.14739e-06
6.3182e-06
-5.28227e-06
7.32773e-06
-3.23543e-06
2.0854e-06
5.69876e-06
-7.88303e-06
1.43835e-05
-1.14203e-05
-3.00564e-05
-2.86368e-05
-2.72562e-05
-2.5915e-05
-2.46134e-05
-2.33514e-05
-2.21289e-05
-2.09461e-05
-1.98028e-05
-1.86989e-05
-1.76343e-05
-1.66087e-05
-1.56218e-05
-1.46732e-05
-1.37627e-05
-1.28896e-05
-1.20536e-05
-1.12541e-05
-1.04905e-05
-9.7621e-06
-9.06824e-06
-8.40818e-06
-7.78117e-06
-7.18635e-06
-6.62299e-06
-6.0901e-06
-5.58689e-06
-5.11232e-06
-4.66551e-06
-4.24545e-06
-3.85123e-06
-3.48182e-06
-3.13626e-06
-2.81351e-06
-2.51254e-06
-2.23237e-06
-1.97195e-06
-1.73033e-06
-1.50649e-06
-1.29941e-06
-1.1082e-06
-9.31711e-07
-7.69265e-07
-6.19655e-07
-4.82197e-07
-3.55837e-07
-2.39625e-07
-1.32984e-07
-3.42366e-08
5.55654e-08
1.41888e-07
2.14066e-07
3.0185e-07
3.35017e-07
4.83802e-07
3.6176e-07
8.16145e-07
8.88224e-08
1.64497e-06
-9.47748e-07
3.51695e-06
-3.13714e-06
6.30514e-06
-5.27361e-06
7.32208e-06
-3.24068e-06
2.10002e-06
5.67264e-06
-7.84528e-06
1.43395e-05
-1.13631e-05
-2.98061e-05
-2.83951e-05
-2.70233e-05
-2.5691e-05
-2.43983e-05
-2.31452e-05
-2.19317e-05
-2.07577e-05
-1.96232e-05
-1.8528e-05
-1.74719e-05
-1.64546e-05
-1.54758e-05
-1.45352e-05
-1.36323e-05
-1.27667e-05
-1.1938e-05
-1.11454e-05
-1.03885e-05
-9.66656e-06
-8.97889e-06
-8.32474e-06
-7.70338e-06
-7.11394e-06
-6.55571e-06
-6.02768e-06
-5.52909e-06
-5.05889e-06
-4.6162e-06
-4.20003e-06
-3.80946e-06
-3.44348e-06
-3.10114e-06
-2.7814e-06
-2.48324e-06
-2.20569e-06
-1.9477e-06
-1.70835e-06
-1.48661e-06
-1.28147e-06
-1.09206e-06
-9.17239e-07
-7.56322e-07
-6.0812e-07
-4.71954e-07
-3.4678e-07
-2.31659e-07
-1.26016e-07
-2.81907e-08
6.07768e-08
1.46303e-07
2.17818e-07
3.04826e-07
3.37645e-07
4.85294e-07
3.63893e-07
8.15507e-07
9.18925e-08
1.6405e-06
-9.41331e-07
3.50665e-06
-3.12626e-06
6.29109e-06
-5.264e-06
7.31546e-06
-3.24559e-06
2.11511e-06
5.64482e-06
-7.8042e-06
1.42913e-05
-1.12986e-05
-2.95434e-05
-2.81416e-05
-2.67791e-05
-2.54562e-05
-2.41729e-05
-2.29293e-05
-2.17252e-05
-2.05605e-05
-1.94352e-05
-1.83491e-05
-1.73019e-05
-1.62933e-05
-1.53231e-05
-1.43908e-05
-1.3496e-05
-1.26382e-05
-1.1817e-05
-1.10318e-05
-1.02819e-05
-9.56667e-06
-8.88546e-06
-8.2375e-06
-7.62205e-06
-7.03825e-06
-6.48537e-06
-5.96244e-06
-5.46867e-06
-5.00303e-06
-4.56466e-06
-4.15255e-06
-3.7658e-06
-3.40341e-06
-3.06443e-06
-2.74784e-06
-2.45262e-06
-2.1778e-06
-1.92237e-06
-1.68538e-06
-1.46584e-06
-1.26273e-06
-1.0752e-06
-9.02113e-07
-7.42794e-07
-5.96065e-07
-4.61249e-07
-3.37315e-07
-2.23333e-07
-1.18732e-07
-2.18713e-08
6.62238e-08
1.50918e-07
2.21737e-07
3.07939e-07
3.40384e-07
4.86862e-07
3.66098e-07
8.14869e-07
9.50491e-08
1.63586e-06
-9.34661e-07
3.49584e-06
-3.11473e-06
6.27605e-06
-5.25343e-06
7.30786e-06
-3.25018e-06
2.1307e-06
5.61532e-06
-7.75985e-06
1.42389e-05
-1.1227e-05
-2.92683e-05
-2.78762e-05
-2.65235e-05
-2.52106e-05
-2.39372e-05
-2.27035e-05
-2.15093e-05
-2.03545e-05
-1.92389e-05
-1.81623e-05
-1.71244e-05
-1.6125e-05
-1.51637e-05
-1.42401e-05
-1.33537e-05
-1.25041e-05
-1.16908e-05
-1.09132e-05
-1.01706e-05
-9.46246e-06
-8.788e-06
-8.1465e-06
-7.53722e-06
-6.95929e-06
-6.41201e-06
-5.89439e-06
-5.40565e-06
-4.94477e-06
-4.5109e-06
-4.10303e-06
-3.72027e-06
-3.36163e-06
-3.02615e-06
-2.71284e-06
-2.42068e-06
-2.14872e-06
-1.89594e-06
-1.66142e-06
-1.44417e-06
-1.24318e-06
-1.05762e-06
-8.86341e-07
-7.28688e-07
-5.83495e-07
-4.50086e-07
-3.27445e-07
-2.1465e-07
-1.11138e-07
-1.52812e-08
7.19038e-08
1.55731e-07
2.25822e-07
3.11186e-07
3.43231e-07
4.88505e-07
3.68373e-07
8.14228e-07
9.82969e-08
1.63106e-06
-9.27727e-07
3.48449e-06
-3.10255e-06
6.25998e-06
-5.24191e-06
7.29929e-06
-3.25447e-06
2.14676e-06
5.58416e-06
-7.71228e-06
1.41826e-05
-1.11487e-05
-2.89808e-05
-2.7599e-05
-2.62567e-05
-2.49542e-05
-2.36914e-05
-2.24681e-05
-2.12843e-05
-2.01397e-05
-1.90342e-05
-1.79676e-05
-1.69395e-05
-1.59496e-05
-1.49976e-05
-1.40831e-05
-1.32055e-05
-1.23645e-05
-1.15594e-05
-1.07897e-05
-1.00548e-05
-9.35396e-06
-8.68654e-06
-8.05176e-06
-7.44891e-06
-6.8771e-06
-6.33564e-06
-5.82356e-06
-5.34006e-06
-4.88414e-06
-4.45495e-06
-4.05149e-06
-3.67288e-06
-3.31814e-06
-2.98631e-06
-2.67641e-06
-2.38744e-06
-2.11846e-06
-1.86845e-06
-1.63649e-06
-1.42163e-06
-1.22285e-06
-1.03932e-06
-8.69929e-07
-7.14009e-07
-5.70414e-07
-4.3847e-07
-3.17174e-07
-2.05615e-07
-1.03235e-07
-8.42312e-09
7.78145e-08
1.6074e-07
2.30071e-07
3.14566e-07
3.46187e-07
4.90221e-07
3.7072e-07
8.13579e-07
1.01641e-07
1.62607e-06
-9.20517e-07
3.47259e-06
-3.08969e-06
6.24288e-06
-5.22943e-06
7.28974e-06
-3.25847e-06
2.1633e-06
5.55134e-06
-7.66156e-06
1.41223e-05
-1.10637e-05
-2.8681e-05
-2.731e-05
-2.59787e-05
-2.46871e-05
-2.34353e-05
-2.2223e-05
-2.105e-05
-1.99162e-05
-1.88213e-05
-1.7765e-05
-1.67471e-05
-1.57673e-05
-1.4825e-05
-1.39199e-05
-1.30515e-05
-1.22193e-05
-1.14228e-05
-1.06614e-05
-9.93441e-06
-9.24122e-06
-8.58111e-06
-7.95333e-06
-7.35716e-06
-6.79172e-06
-6.25631e-06
-5.74997e-06
-5.27192e-06
-4.82116e-06
-4.39683e-06
-3.99796e-06
-3.62366e-06
-3.27296e-06
-2.94493e-06
-2.63858e-06
-2.35292e-06
-2.08703e-06
-1.83989e-06
-1.6106e-06
-1.39821e-06
-1.20172e-06
-1.02032e-06
-8.52884e-07
-6.98764e-07
-5.56828e-07
-4.26406e-07
-3.06507e-07
-1.96231e-07
-9.50264e-08
-1.29998e-09
8.39533e-08
1.65942e-07
2.34482e-07
3.18076e-07
3.49249e-07
4.92008e-07
3.73141e-07
8.12916e-07
1.05086e-07
1.62089e-06
-9.13018e-07
3.46011e-06
-3.07614e-06
6.22472e-06
-5.21597e-06
7.27922e-06
-3.26219e-06
2.18031e-06
5.5169e-06
-7.60775e-06
1.40582e-05
-1.09723e-05
-2.83688e-05
-2.70092e-05
-2.56894e-05
-2.44094e-05
-2.31691e-05
-2.19682e-05
-2.08066e-05
-1.9684e-05
-1.86001e-05
-1.75547e-05
-1.65475e-05
-1.5578e-05
-1.46458e-05
-1.37505e-05
-1.28917e-05
-1.20687e-05
-1.12811e-05
-1.05283e-05
-9.80955e-06
-9.12429e-06
-8.47177e-06
-7.85125e-06
-7.26201e-06
-6.70317e-06
-6.17404e-06
-5.67367e-06
-5.20126e-06
-4.75585e-06
-4.33657e-06
-3.94245e-06
-3.57262e-06
-3.22612e-06
-2.90202e-06
-2.59935e-06
-2.31713e-06
-2.05444e-06
-1.81028e-06
-1.58376e-06
-1.37394e-06
-1.17982e-06
-1.00061e-06
-8.35212e-07
-6.82958e-07
-5.42743e-07
-4.13898e-07
-2.95448e-07
-1.86502e-07
-8.65164e-08
6.08518e-09
9.03174e-08
1.71334e-07
2.39053e-07
3.21715e-07
3.52417e-07
4.93862e-07
3.75634e-07
8.12236e-07
1.08638e-07
1.61551e-06
-9.05216e-07
3.44705e-06
-3.06189e-06
6.20548e-06
-5.20154e-06
7.26772e-06
-3.26564e-06
2.1978e-06
5.48084e-06
-7.55095e-06
1.39904e-05
-1.08746e-05
-2.80442e-05
-2.66966e-05
-2.53889e-05
-2.4121e-05
-2.28927e-05
-2.17038e-05
-2.05541e-05
-1.94432e-05
-1.83708e-05
-1.73367e-05
-1.63405e-05
-1.53818e-05
-1.44601e-05
-1.3575e-05
-1.27261e-05
-1.19127e-05
-1.11343e-05
-1.03904e-05
-9.68024e-06
-9.00319e-06
-8.35854e-06
-7.74555e-06
-7.16349e-06
-6.6115e-06
-6.08887e-06
-5.59468e-06
-5.12812e-06
-4.68824e-06
-4.27418e-06
-3.88499e-06
-3.51979e-06
-3.17764e-06
-2.85761e-06
-2.55874e-06
-2.28008e-06
-2.0207e-06
-1.77963e-06
-1.55598e-06
-1.34881e-06
-1.15716e-06
-9.80222e-07
-8.16922e-07
-6.66599e-07
-5.28165e-07
-4.00952e-07
-2.84001e-07
-1.76431e-07
-7.77084e-08
1.37291e-08
9.69042e-08
1.76914e-07
2.43782e-07
3.2548e-07
3.5569e-07
4.95782e-07
3.78202e-07
8.11532e-07
1.12302e-07
1.60992e-06
-8.97098e-07
3.43338e-06
-3.0469e-06
6.18515e-06
-5.18614e-06
7.25523e-06
-3.26885e-06
2.21574e-06
5.44321e-06
-7.49124e-06
1.39189e-05
-1.07708e-05
-2.77072e-05
-2.63723e-05
-2.50773e-05
-2.3822e-05
-2.26063e-05
-2.14299e-05
-2.02925e-05
-1.91938e-05
-1.81334e-05
-1.7111e-05
-1.61263e-05
-1.51788e-05
-1.4268e-05
-1.33935e-05
-1.25548e-05
-1.17514e-05
-1.09826e-05
-1.02478e-05
-9.54654e-06
-8.87799e-06
-8.24148e-06
-7.63627e-06
-7.06165e-06
-6.51674e-06
-6.00084e-06
-5.51303e-06
-5.05252e-06
-4.61836e-06
-4.2097e-06
-3.8256e-06
-3.46519e-06
-3.12753e-06
-2.81171e-06
-2.51678e-06
-2.24179e-06
-1.98584e-06
-1.74796e-06
-1.52727e-06
-1.32285e-06
-1.13374e-06
-9.59149e-07
-7.98021e-07
-6.49694e-07
-5.13099e-07
-3.87573e-07
-2.72172e-07
-1.66023e-07
-6.86062e-08
2.16286e-08
1.03711e-07
1.8268e-07
2.48666e-07
3.29369e-07
3.59067e-07
4.97764e-07
3.80846e-07
8.10801e-07
1.16083e-07
1.60409e-06
-8.88651e-07
3.41907e-06
-3.03116e-06
6.16371e-06
-5.16974e-06
7.24177e-06
-3.27182e-06
2.23414e-06
5.40402e-06
-7.42872e-06
1.3844e-05
-1.06611e-05
-2.7358e-05
-2.60363e-05
-2.47545e-05
-2.35125e-05
-2.231e-05
-2.11466e-05
-2.0022e-05
-1.89359e-05
-1.7888e-05
-1.68778e-05
-1.59049e-05
-1.4969e-05
-1.40695e-05
-1.3206e-05
-1.23779e-05
-1.15847e-05
-1.08258e-05
-1.01006e-05
-9.40848e-06
-8.74872e-06
-8.12063e-06
-7.52347e-06
-6.95652e-06
-6.41892e-06
-5.90997e-06
-5.42876e-06
-4.97449e-06
-4.54624e-06
-4.14316e-06
-3.76431e-06
-3.40884e-06
-3.07582e-06
-2.76434e-06
-2.47347e-06
-2.20228e-06
-1.94987e-06
-1.71528e-06
-1.49764e-06
-1.29606e-06
-1.10957e-06
-9.37404e-07
-7.78516e-07
-6.32248e-07
-4.97553e-07
-3.73767e-07
-2.59965e-07
-1.55283e-07
-5.92135e-08
2.97799e-08
1.10734e-07
1.88629e-07
2.53704e-07
3.33381e-07
3.62545e-07
4.99807e-07
3.83565e-07
8.10037e-07
1.19987e-07
1.59803e-06
-8.79859e-07
3.40411e-06
-3.01466e-06
6.14113e-06
-5.15236e-06
7.22733e-06
-3.27457e-06
2.25298e-06
5.36331e-06
-7.36352e-06
1.37657e-05
-1.05456e-05
-2.69964e-05
-2.56886e-05
-2.44207e-05
-2.31925e-05
-2.20036e-05
-2.08538e-05
-1.97426e-05
-1.86696e-05
-1.76346e-05
-1.6637e-05
-1.56765e-05
-1.47526e-05
-1.38648e-05
-1.30126e-05
-1.21954e-05
-1.14128e-05
-1.06642e-05
-9.94882e-06
-9.26614e-06
-8.61545e-06
-7.99604e-06
-7.40718e-06
-6.84815e-06
-6.3181e-06
-5.8163e-06
-5.3419e-06
-4.89407e-06
-4.4719e-06
-4.07457e-06
-3.70114e-06
-3.35076e-06
-3.02252e-06
-2.71552e-06
-2.42884e-06
-2.16156e-06
-1.9128e-06
-1.6816e-06
-1.46711e-06
-1.26845e-06
-1.08466e-06
-9.14995e-07
-7.58418e-07
-6.14271e-07
-4.81532e-07
-3.59539e-07
-2.47386e-07
-1.44214e-07
-4.95346e-08
3.81796e-08
1.1797e-07
1.94757e-07
2.58893e-07
3.37512e-07
3.66125e-07
5.01908e-07
3.86362e-07
8.09235e-07
1.2402e-07
1.59172e-06
-8.70707e-07
3.38847e-06
-2.99737e-06
6.11739e-06
-5.13398e-06
7.21191e-06
-3.27712e-06
2.27225e-06
5.32113e-06
-7.29575e-06
1.36843e-05
-1.04246e-05
-2.66226e-05
-2.53293e-05
-2.40759e-05
-2.2862e-05
-2.16875e-05
-2.05517e-05
-1.94543e-05
-1.8395e-05
-1.73733e-05
-1.63888e-05
-1.5441e-05
-1.45295e-05
-1.36538e-05
-1.28133e-05
-1.20075e-05
-1.12358e-05
-1.04977e-05
-9.79248e-06
-9.11955e-06
-8.47822e-06
-7.86776e-06
-7.28745e-06
-6.73658e-06
-6.2143e-06
-5.71988e-06
-5.25249e-06
-4.81129e-06
-4.39539e-06
-4.00398e-06
-3.63612e-06
-3.29098e-06
-2.96767e-06
-2.66527e-06
-2.3829e-06
-2.11965e-06
-1.87464e-06
-1.64693e-06
-1.43569e-06
-1.24003e-06
-1.05903e-06
-8.91934e-07
-7.37733e-07
-5.95769e-07
-4.65043e-07
-3.44895e-07
-2.3444e-07
-1.32822e-07
-3.95737e-08
4.68238e-08
1.25417e-07
2.01062e-07
2.64231e-07
3.4176e-07
3.69805e-07
5.04064e-07
3.89236e-07
8.08389e-07
1.28188e-07
1.58515e-06
-8.61181e-07
3.37213e-06
-2.97927e-06
6.09247e-06
-5.11461e-06
7.19551e-06
-3.27949e-06
2.29193e-06
5.2775e-06
-7.22554e-06
1.35999e-05
-1.02982e-05
-2.62365e-05
-2.49584e-05
-2.37201e-05
-2.25212e-05
-2.13615e-05
-2.02403e-05
-1.91573e-05
-1.81121e-05
-1.71042e-05
-1.61332e-05
-1.51986e-05
-1.42999e-05
-1.34366e-05
-1.26082e-05
-1.18141e-05
-1.10537e-05
-1.03264e-05
-9.63167e-06
-8.96878e-06
-8.33709e-06
-7.73584e-06
-7.16433e-06
-6.62186e-06
-6.10758e-06
-5.62074e-06