/*--------------------------------*- C++ -*----------------------------------*\
| =========                 |                                                 |
| \\      /  F ield         | OpenFOAM: The Open Source CFD Toolbox           |
|  \\    /   O peration     | Version:  2412                                  |
|   \\  /    A nd           | Website:  www.openfoam.com                      |
|    \\/     M anipulation  |                                                 |
\*---------------------------------------------------------------------------*/
FoamFile
{
    version     2.0;
    format      ascii;
    arch        "LSB;label=32;scalar=64";
    class       surfaceScalarField;
    location    "7";
    object      phi;
}
// * * * * * * * * * * * * * * * * * * * * * * * * * * * * * * * * * * * * * //

dimensions      [0 3 -1 0 0 0 0];

oriented        oriented;

internalField   nonuniform List<scalar> 
10424
(
0.00501577
-2.26235e-06
-1.09812e-09
0.00501794
-2.16575e-06
-1.27222e-09
0.00502001
-2.07192e-06
-1.46351e-09
0.00502199
-1.98081e-06
-1.68524e-09
0.00502389
-1.89236e-06
-1.93893e-09
0.0050257
-1.80652e-06
-2.22572e-09
0.00502742
-1.72327e-06
-2.53597e-09
0.00502907
-1.64256e-06
-2.85467e-09
0.00503063
-1.56438e-06
-3.15831e-09
0.00503213
-1.48869e-06
-3.42962e-09
0.00503355
-1.41546e-06
-3.65331e-09
0.00503489
-1.34463e-06
-3.82376e-09
0.00503617
-1.27616e-06
-3.94396e-09
0.00503739
-1.20997e-06
-4.03612e-09
0.00503854
-1.14601e-06
-4.136e-09
0.00503963
-1.0842e-06
-4.26578e-09
0.00504066
-1.02451e-06
-4.43142e-09
0.00504163
-9.66939e-07
-4.60778e-09
0.00504254
-9.11512e-07
-4.72199e-09
0.00504341
-8.58262e-07
-4.70531e-09
0.00504422
-8.07147e-07
-4.56564e-09
0.00504498
-7.58059e-07
-4.37961e-09
0.0050457
-7.10898e-07
-4.21604e-09
0.00504637
-6.65537e-07
-4.1841e-09
0.00504699
-6.21899e-07
-4.34464e-09
0.00504758
-5.79939e-07
-4.706e-09
0.00504812
-5.39805e-07
-5.07617e-09
0.00504863
-5.01596e-07
-5.31939e-09
0.0050491
-4.6541e-07
-5.30638e-09
0.00504953
-4.31134e-07
-5.13375e-09
0.00504994
-3.98868e-07
-4.686e-09
0.00505031
-3.68318e-07
-4.25704e-09
0.00505065
-3.39511e-07
-3.82304e-09
0.00505097
-3.12157e-07
-3.61879e-09
0.00505126
-2.86363e-07
-3.51417e-09
0.00505153
-2.62062e-07
-3.54465e-09
0.00505177
-2.39291e-07
-3.64288e-09
0.00505199
-2.18136e-07
-3.72533e-09
0.00505219
-1.98808e-07
-3.58837e-09
0.00505238
-1.81035e-07
-3.47138e-09
0.00505255
-1.64955e-07
-3.23062e-09
0.0050527
-1.50395e-07
-3.08709e-09
0.00505284
-1.3742e-07
-3.0566e-09
0.00505297
-1.25825e-07
-3.30088e-09
0.00505309
-1.16058e-07
-3.42811e-09
0.0050532
-1.0798e-07
-3.58641e-09
0.00505331
-1.01915e-07
-3.51658e-09
0.00505341
-9.76811e-08
-3.53051e-09
0.00505351
-9.58422e-08
-3.17931e-09
0.0050536
-9.61626e-08
-2.86889e-09
0.00505371
-9.88611e-08
-2.4639e-09
0.00505381
-1.04216e-07
-2.11055e-09
0.00505393
-1.11956e-07
-2.07409e-09
0.00505405
-1.23951e-07
-1.66899e-09
0.00505419
-1.38394e-07
-1.22593e-09
0.00505435
-1.60213e-07
-8.23741e-10
0.00505453
-1.80238e-07
-4.68812e-10
0.00505475
-2.19377e-07
-2.85344e-10
0.00505499
-2.39038e-07
3.50687e-10
0.00505531
-3.13902e-07
1.09369e-10
0.00505562
-3.14389e-07
3.47821e-10
0.00505608
-4.58368e-07
6.04337e-10
0.00505649
-4.1313e-07
8.54975e-10
0.00505714
-6.52071e-07
3.54862e-10
0.0050577
-5.5918e-07
1.20061e-09
0.00505857
-8.7619e-07
2.71141e-09
0.00505929
-7.17601e-07
2.9304e-09
0.00506059
-1.30464e-06
3.10095e-09
0.00506102
-4.39273e-07
4.08814e-09
0.00506241
-1.38955e-06
2.61705e-09
-3.0969e-06
4.13076e-09
0.00501579
-4.52388e-06
0.00501796
-4.33101e-06
0.00502003
-4.14368e-06
0.00502201
-3.96179e-06
0.0050239
-3.78526e-06
0.00502571
-3.61399e-06
0.00502744
-3.44789e-06
0.00502908
-3.2869e-06
0.00503065
-3.13093e-06
0.00503214
-2.9799e-06
0.00503356
-2.83373e-06
0.0050349
-2.69232e-06
0.00503618
-2.55556e-06
0.0050374
-2.42334e-06
0.00503855
-2.29557e-06
0.00503963
-2.17214e-06
0.00504066
-2.05298e-06
0.00504163
-1.93805e-06
0.00504255
-1.82735e-06
0.00504341
-1.72087e-06
0.00504422
-1.61853e-06
0.00504499
-1.5202e-06
0.0050457
-1.42575e-06
0.00504637
-1.33503e-06
0.005047
-1.24794e-06
0.00504758
-1.16441e-06
0.00504813
-1.08454e-06
0.00504863
-1.00838e-06
0.0050491
-9.36016e-07
0.00504954
-8.67306e-07
0.00504994
-8.02339e-07
0.00505032
-7.40828e-07
0.00505066
-6.8279e-07
0.00505097
-6.27888e-07
0.00505126
-5.76207e-07
0.00505153
-5.2765e-07
0.00505177
-4.82215e-07
0.00505199
-4.39993e-07
0.0050522
-4.01207e-07
0.00505238
-3.65547e-07
0.00505255
-3.33159e-07
0.0050527
-3.03907e-07
0.00505284
-2.77931e-07
0.00505297
-2.54995e-07
0.00505309
-2.35596e-07
0.0050532
-2.19595e-07
0.00505331
-2.07402e-07
0.00505341
-1.98951e-07
0.00505351
-1.94926e-07
0.00505361
-1.95251e-07
0.00505371
-2.0025e-07
0.00505382
-2.1061e-07
0.00505393
-2.26064e-07
0.00505406
-2.49659e-07
0.0050542
-2.78103e-07
0.00505436
-3.2134e-07
0.00505454
-3.61043e-07
0.00505476
-4.39165e-07
0.005055
-4.77842e-07
0.00505531
-6.27852e-07
0.00505562
-6.28536e-07
0.00505608
-9.16369e-07
0.0050565
-8.25587e-07
0.00505715
-1.30412e-06
0.00505771
-1.11765e-06
0.00505858
-1.74934e-06
0.0050593
-1.43644e-06
0.00506059
-2.59442e-06
0.00506105
-9.03451e-07
0.00506242
-2.76095e-06
-6.12552e-06
0.00501584
-6.78162e-06
0.005018
-6.49274e-06
0.00502007
-6.21217e-06
0.00502205
-5.93976e-06
0.00502394
-5.67538e-06
0.00502574
-5.41889e-06
0.00502747
-5.17016e-06
0.00502911
-4.92906e-06
0.00503067
-4.69548e-06
0.00503216
-4.46928e-06
0.00503358
-4.25033e-06
0.00503493
-4.03847e-06
0.0050362
-3.83355e-06
0.00503742
-3.63543e-06
0.00503856
-3.44395e-06
0.00503965
-3.259e-06
0.00504068
-3.08047e-06
0.00504165
-2.90828e-06
0.00504256
-2.74239e-06
0.00504343
-2.58276e-06
0.00504424
-2.42927e-06
0.005045
-2.28176e-06
0.00504571
-2.14007e-06
0.00504638
-2.00405e-06
0.00504701
-1.87356e-06
0.00504759
-1.74851e-06
0.00504814
-1.62894e-06
0.00504864
-1.51488e-06
0.00504911
-1.40637e-06
0.00504955
-1.30327e-06
0.00504995
-1.20564e-06
0.00505032
-1.1132e-06
0.00505067
-1.02595e-06
0.00505098
-9.43531e-07
0.00505127
-8.65987e-07
0.00505154
-7.93193e-07
0.00505178
-7.25119e-07
0.005052
-6.6185e-07
0.00505221
-6.03618e-07
0.00505239
-5.50089e-07
0.00505256
-5.0141e-07
0.00505271
-4.57478e-07
0.00505285
-4.18505e-07
0.00505298
-3.8424e-07
0.0050531
-3.55219e-07
0.00505321
-3.31297e-07
0.00505332
-3.12989e-07
0.00505342
-3.00341e-07
0.00505352
-2.94127e-07
0.00505362
-2.9446e-07
0.00505372
-3.01765e-07
0.00505383
-3.17143e-07
0.00505394
-3.4032e-07
0.00505407
-3.75536e-07
0.00505421
-4.17986e-07
0.00505437
-4.82654e-07
0.00505455
-5.42041e-07
0.00505477
-6.59181e-07
0.00505501
-7.16863e-07
0.00505532
-9.4211e-07
0.00505564
-9.42913e-07
0.00505609
-1.37484e-06
0.00505651
-1.23836e-06
0.00505716
-1.95682e-06
0.00505772
-1.67706e-06
0.00505859
-2.62185e-06
0.00505932
-2.1634e-06
0.00506059
-3.86124e-06
0.00506111
-1.42427e-06
0.00506245
-4.10195e-06
-9.02872e-06
0.00501591
-9.03367e-06
0.00501807
-8.64921e-06
0.00502013
-8.27578e-06
0.00502211
-7.91322e-06
0.00502399
-7.56134e-06
0.00502579
-7.21995e-06
0.00502751
-6.88888e-06
0.00502915
-6.56797e-06
0.00503071
-6.25704e-06
0.0050322
-5.95591e-06
0.00503361
-5.6644e-06
0.00503496
-5.38231e-06
0.00503623
-5.10943e-06
0.00503744
-4.84557e-06
0.00503859
-4.59057e-06
0.00503968
-4.34426e-06
0.0050407
-4.1065e-06
0.00504167
-3.87717e-06
0.00504258
-3.65622e-06
0.00504345
-3.44354e-06
0.00504426
-3.23901e-06
0.00504502
-3.04242e-06
0.00504573
-2.8536e-06
0.0050464
-2.67235e-06
0.00504702
-2.49855e-06
0.00504761
-2.33205e-06
0.00504815
-2.17285e-06
0.00504866
-2.02094e-06
0.00504913
-1.87635e-06
0.00504956
-1.73891e-06
0.00504997
-1.60867e-06
0.00505034
-1.48534e-06
0.00505068
-1.36893e-06
0.005051
-1.25902e-06
0.00505129
-1.15565e-06
0.00505155
-1.05865e-06
0.00505179
-9.67969e-07
0.00505202
-8.83682e-07
0.00505222
-8.06026e-07
0.0050524
-7.34652e-07
0.00505257
-6.6971e-07
0.00505272
-6.11122e-07
0.00505287
-5.59164e-07
0.00505299
-5.13588e-07
0.00505311
-4.74957e-07
0.00505323
-4.43121e-07
0.00505333
-4.18713e-07
0.00505343
-4.01883e-07
0.00505353
-3.93488e-07
0.00505363
-3.93834e-07
0.00505373
-4.03459e-07
0.00505384
-4.23869e-07
0.00505395
-4.54787e-07
0.00505408
-5.01646e-07
0.00505422
-5.5811e-07
0.00505438
-6.44228e-07
0.00505456
-7.23307e-07
0.00505478
-8.79518e-07
0.00505502
-9.56186e-07
0.00505534
-1.2568e-06
0.00505565
-1.25761e-06
0.00505611
-1.83397e-06
0.00505653
-1.65159e-06
0.00505718
-2.61044e-06
0.00505774
-2.23785e-06
0.00505861
-3.49344e-06
0.00505935
-2.90211e-06
0.00506058
-5.09499e-06
0.00506119
-2.0267e-06
0.00506248
-5.39904e-06
-1.17511e-05
0.00501601
-1.12782e-05
0.00501816
-1.07987e-05
0.00502022
-1.03329e-05
0.00502219
-9.88069e-06
0.00502407
-9.44176e-06
0.00502586
-9.0159e-06
0.00502758
-8.6029e-06
0.00502921
-8.20254e-06
0.00503077
-7.8146e-06
0.00503225
-7.43886e-06
0.00503366
-7.0751e-06
0.005035
-6.72304e-06
0.00503628
-6.38246e-06
0.00503748
-6.05312e-06
0.00503863
-5.73481e-06
0.00503971
-5.42734e-06
0.00504073
-5.13055e-06
0.0050417
-4.84427e-06
0.00504261
-4.56841e-06
0.00504347
-4.30285e-06
0.00504428
-4.04741e-06
0.00504504
-3.80186e-06
0.00504575
-3.56603e-06
0.00504642
-3.33968e-06
0.00504704
-3.12267e-06
0.00504763
-2.91481e-06
0.00504817
-2.71607e-06
0.00504868
-2.5264e-06
0.00504915
-2.3458e-06
0.00504958
-2.17409e-06
0.00504998
-2.01131e-06
0.00505036
-1.85716e-06
0.0050507
-1.71163e-06
0.00505101
-1.57429e-06
0.0050513
-1.44514e-06
0.00505157
-1.32397e-06
0.00505181
-1.21072e-06
0.00505203
-1.10546e-06
0.00505223
-1.00841e-06
0.00505242
-9.19223e-07
0.00505259
-8.38053e-07
0.00505274
-7.64839e-07
0.00505288
-6.99917e-07
0.00505301
-6.43048e-07
0.00505313
-5.94822e-07
0.00505324
-5.55086e-07
0.00505335
-5.24596e-07
0.00505345
-5.03602e-07
0.00505355
-4.93037e-07
0.00505365
-4.93404e-07
0.00505375
-5.05364e-07
0.00505386
-5.30827e-07
0.00505397
-5.69507e-07
0.0050541
-6.28033e-07
0.00505424
-6.98526e-07
0.0050544
-8.06113e-07
0.00505458
-9.04893e-07
0.0050548
-1.10023e-06
0.00505504
-1.19587e-06
0.00505536
-1.57199e-06
0.00505567
-1.5727e-06
0.00505613
-2.29388e-06
0.00505655
-2.06541e-06
0.0050572
-3.26518e-06
0.00505777
-2.80041e-06
0.00505864
-4.36383e-06
0.00505939
-3.65565e-06
0.00506058
-6.28723e-06
0.00506129
-2.73158e-06
0.00506253
-6.64083e-06
-1.42461e-05
0.00501613
-1.35133e-05
0.00501827
-1.29394e-05
0.00502032
-1.2382e-05
0.00502228
-1.18407e-05
0.00502416
-1.13153e-05
0.00502595
-1.08055e-05
0.00502765
-1.0311e-05
0.00502928
-9.83169e-06
0.00503084
-9.36717e-06
0.00503231
-8.91722e-06
0.00503372
-8.48156e-06
0.00503506
-8.05989e-06
0.00503633
-7.65193e-06
0.00503753
-7.25739e-06
0.00503867
-6.87606e-06
0.00503975
-6.50769e-06
0.00504077
-6.15209e-06
0.00504174
-5.80909e-06
0.00504265
-5.47853e-06
0.00504351
-5.16027e-06
0.00504431
-4.85409e-06
0.00504507
-4.55976e-06
0.00504578
-4.27705e-06
0.00504645
-4.00574e-06
0.00504707
-3.74564e-06
0.00504765
-3.49655e-06
0.0050482
-3.25838e-06
0.0050487
-3.03105e-06
0.00504917
-2.81455e-06
0.0050496
-2.60866e-06
0.00505001
-2.41342e-06
0.00505038
-2.22853e-06
0.00505072
-2.05395e-06
0.00505103
-1.88924e-06
0.00505132
-1.73435e-06
0.00505159
-1.58907e-06
0.00505183
-1.45331e-06
0.00505205
-1.32712e-06
0.00505225
-1.21072e-06
0.00505244
-1.10376e-06
0.00505261
-1.00641e-06
0.00505276
-9.18609e-07
0.0050529
-8.40748e-07
0.00505303
-7.72609e-07
0.00505315
-7.14807e-07
0.00505326
-6.67191e-07
0.00505337
-6.30639e-07
0.00505347
-6.05498e-07
0.00505357
-5.92778e-07
0.00505367
-5.93179e-07
0.00505377
-6.07495e-07
0.00505388
-6.38034e-07
0.005054
-6.845e-07
0.00505412
-7.54717e-07
0.00505426
-8.39253e-07
0.00505443
-9.68334e-07
0.00505461
-1.08682e-06
0.00505483
-1.32136e-06
0.00505507
-1.43595e-06
0.00505538
-1.88774e-06
0.0050557
-1.8882e-06
0.00505616
-2.75468e-06
0.00505658
-2.47985e-06
0.00505723
-3.92121e-06
0.0050578
-3.36495e-06
0.00505866
-5.23286e-06
0.00505944
-4.42643e-06
0.00506058
-7.43166e-06
0.0050614
-3.55445e-06
0.00506258
-7.81852e-06
-1.64789e-05
0.00501628
-1.57373e-05
0.00501841
-1.50698e-05
0.00502045
-1.44214e-05
0.0050224
-1.37918e-05
0.00502426
-1.31805e-05
0.00502605
-1.25874e-05
0.00502775
-1.20121e-05
0.00502937
-1.14543e-05
0.00503092
-1.09137e-05
0.00503239
-1.03901e-05
0.00503379
-9.88294e-06
0.00503512
-9.39205e-06
0.00503639
-8.91708e-06
0.00503759
-8.45771e-06
0.00503873
-8.01367e-06
0.0050398
-7.58471e-06
0.00504082
-7.1706e-06
0.00504178
-6.77113e-06
0.00504269
-6.38611e-06
0.00504355
-6.01537e-06
0.00504435
-5.65866e-06
0.00504511
-5.31574e-06
0.00504582
-4.98634e-06
0.00504648
-4.67023e-06
0.0050471
-4.3672e-06
0.00504768
-4.07702e-06
0.00504822
-3.79955e-06
0.00504873
-3.53469e-06
0.00504919
-3.28239e-06
0.00504963
-3.04245e-06
0.00505003
-2.81485e-06
0.0050504
-2.5993e-06
0.00505074
-2.39576e-06
0.00505106
-2.20375e-06
0.00505135
-2.0232e-06
0.00505161
-1.85387e-06
0.00505185
-1.69566e-06
0.00505207
-1.54859e-06
0.00505228
-1.4129e-06
0.00505246
-1.28822e-06
0.00505263
-1.17473e-06
0.00505278
-1.07239e-06
0.00505292
-9.8162e-07
0.00505305
-9.02237e-07
0.00505317
-8.34881e-07
0.00505329
-7.79412e-07
0.00505339
-7.36821e-07
0.00505349
-7.07551e-07
0.00505359
-6.92695e-07
0.00505369
-6.93144e-07
0.0050538
-7.09843e-07
0.0050539
-7.45472e-07
0.00505402
-7.99776e-07
0.00505415
-8.81644e-07
0.00505429
-9.8038e-07
0.00505445
-1.13067e-06
0.00505463
-1.2695e-06
0.00505485
-1.54206e-06
0.0050551
-1.67788e-06
0.00505541
-2.2015e-06
0.00505573
-2.20812e-06
0.00505618
-3.21056e-06
0.00505661
-2.90253e-06
0.00505726
-4.56977e-06
0.00505783
-3.94025e-06
0.00505869
-6.09426e-06
0.00505948
-5.21726e-06
0.00506058
-8.52991e-06
0.00506152
-4.49247e-06
0.00506264
-8.94257e-06
-1.84113e-05
0.00525694
-1.80539e-05
0.00525916
-1.72895e-05
0.00526129
-1.65467e-05
0.00526332
-1.58253e-05
0.00526526
-1.5125e-05
0.00526712
-1.44453e-05
0.00526889
-1.3786e-05
0.00527059
-1.31466e-05
0.0052722
-1.25269e-05
0.00527374
-1.19266e-05
0.0052752
-1.13451e-05
0.00527659
-1.07822e-05
0.00527791
-1.02374e-05
0.00527916
-9.71057e-06
0.00528035
-9.20123e-06
0.00528147
-8.70915e-06
0.00528254
-8.23407e-06
0.00528354
-7.77574e-06
0.00528449
-7.33396e-06
0.00528538
-6.9085e-06
0.00528622
-6.49911e-06
0.00528701
-6.10549e-06
0.00528775
-5.72739e-06
0.00528845
-5.36454e-06
0.0052891
-5.01671e-06
0.0052897
-4.68364e-06
0.00529027
-4.36516e-06
0.0052908
-4.06112e-06
0.00529129
-3.77146e-06
0.00529174
-3.49596e-06
0.00529216
-3.23458e-06
0.00529255
-2.98703e-06
0.0052929
-2.75323e-06
0.00529323
-2.5327e-06
0.00529354
-2.32534e-06
0.00529381
-2.13089e-06
0.00529407
-1.94923e-06
0.0052943
-1.78037e-06
0.00529451
-1.62452e-06
0.0052947
-1.48134e-06
0.00529488
-1.351e-06
0.00529504
-1.23347e-06
0.00529519
-1.12922e-06
0.00529532
-1.03809e-06
0.00529545
-9.60748e-07
0.00529557
-8.97083e-07
0.00529568
-8.48194e-07
0.00529579
-8.14615e-07
0.00529589
-7.97548e-07
0.005296
-7.98054e-07
0.0052961
-8.17306e-07
0.00529622
-8.58226e-07
0.00529634
-9.20941e-07
0.00529647
-1.01463e-06
0.00529662
-1.12919e-06
0.00529679
-1.2997e-06
0.00529698
-1.46408e-06
0.00529721
-1.76819e-06
0.00529747
-1.94175e-06
0.00529778
-2.51377e-06
0.00529815
-2.57071e-06
0.00529859
-3.65004e-06
0.00529908
-3.39757e-06
0.0052997
-5.19116e-06
0.00530037
-4.6037e-06
0.00530123
-6.95349e-06
0.00530208
-6.07579e-06
0.00530321
-9.6602e-06
0.00530426
-5.53419e-06
0.00530546
-1.0151e-05
-2.00119e-05
0.00525715
-2.03544e-05
0.00525935
-1.9494e-05
0.00526146
-1.86579e-05
0.00526348
-1.78458e-05
0.00526541
-1.70573e-05
0.00526726
-1.6292e-05
0.00526902
-1.55495e-05
0.00527071
-1.48294e-05
0.00527231
-1.41313e-05
0.00527384
-1.34549e-05
0.00527529
-1.27997e-05
0.00527668
-1.21653e-05
0.00527799
-1.15514e-05
0.00527924
-1.09575e-05
0.00528042
-1.03833e-05
0.00528154
-9.82856e-06
0.0052826
-9.29291e-06
0.0052836
-8.77611e-06
0.00528454
-8.27791e-06
0.00528543
-7.79806e-06
0.00528627
-7.33627e-06
0.00528706
-6.89225e-06
0.00528779
-6.46571e-06
0.00528849
-6.05636e-06
0.00528913
-5.66395e-06
0.00528974
-5.28819e-06
0.0052903
-4.92889e-06
0.00529083
-4.58586e-06
0.00529131
-4.25902e-06
0.00529177
-3.94812e-06
0.00529218
-3.65311e-06
0.00529257
-3.37369e-06
0.00529293
-3.10975e-06
0.00529326
-2.86082e-06
0.00529356
-2.62675e-06
0.00529383
-2.40727e-06
0.00529409
-2.20226e-06
0.00529432
-2.01168e-06
0.00529453
-1.83576e-06
0.00529472
-1.67414e-06
0.0052949
-1.52702e-06
0.00529506
-1.39438e-06
0.00529521
-1.2767e-06
0.00529534
-1.17386e-06
0.00529547
-1.08656e-06
0.00529559
-1.01474e-06
0.0052957
-9.59585e-07
0.0052958
-9.21722e-07
0.00529591
-9.02468e-07
0.00529601
-9.03053e-07
0.00529612
-9.24888e-07
0.00529623
-9.71116e-07
0.00529636
-1.04229e-06
0.00529649
-1.14776e-06
0.00529664
-1.2783e-06
0.00529681
-1.46873e-06
0.005297
-1.65931e-06
0.00529723
-1.99372e-06
0.00529749
-2.20742e-06
0.0052978
-2.82371e-06
0.00529817
-2.93788e-06
0.0052986
-4.08394e-06
0.00529911
-3.90151e-06
0.00529972
-5.80404e-06
0.0053004
-5.27921e-06
0.00530125
-7.80389e-06
0.00530213
-6.95726e-06
0.00530321
-1.07409e-05
0.00530437
-6.69875e-06
0.00530552
-1.13008e-05
-2.12864e-05
0.00525737
-2.26367e-05
0.00525956
-2.16817e-05
0.00526165
-2.07535e-05
0.00526366
-1.98518e-05
0.00526558
-1.89761e-05
0.00526741
-1.81261e-05
0.00526916
-1.73013e-05
0.00527084
-1.65013e-05
0.00527243
-1.57256e-05
0.00527395
-1.49739e-05
0.0052754
-1.42457e-05
0.00527677
-1.35405e-05
0.00527808
-1.2858e-05
0.00527932
-1.21976e-05
0.00528049
-1.15592e-05
0.00528161
-1.09422e-05
0.00528266
-1.03464e-05
0.00528366
-9.77159e-06
0.0052846
-9.21736e-06
0.00528548
-8.68348e-06
0.00528631
-8.16964e-06
0.0052871
-7.67552e-06
0.00528783
-7.20083e-06
0.00528852
-6.74525e-06
0.00528917
-6.30851e-06
0.00528977
-5.8903e-06
0.00529033
-5.4904e-06
0.00529085
-5.10858e-06
0.00529134
-4.74475e-06
0.00529179
-4.39863e-06
0.00529221
-4.07017e-06
0.00529259
-3.75903e-06
0.00529295
-3.46509e-06
0.00529327
-3.18787e-06
0.00529357
-2.92722e-06
0.00529385
-2.68282e-06
0.0052941
-2.45455e-06
0.00529433
-2.24236e-06
0.00529454
-2.04645e-06
0.00529474
-1.86649e-06
0.00529491
-1.70267e-06
0.00529507
-1.55498e-06
0.00529522
-1.42392e-06
0.00529536
-1.30942e-06
0.00529548
-1.21221e-06
0.0052956
-1.13228e-06
0.00529571
-1.07089e-06
0.00529582
-1.02877e-06
0.00529592
-1.00735e-06
0.00529603
-1.00804e-06
0.00529613
-1.03248e-06
0.00529625
-1.08404e-06
0.00529637
-1.16369e-06
0.0052965
-1.28095e-06
0.00529665
-1.42747e-06
0.00529682
-1.63784e-06
0.00529702
-1.85456e-06
0.00529724
-2.2194e-06
0.00529751
-2.47306e-06
0.00529782
-3.13399e-06
0.00529818
-3.30491e-06
0.00529862
-4.51864e-06
0.00529912
-4.40544e-06
0.00529974
-6.41834e-06
0.00530041
-5.95667e-06
0.00530126
-8.65265e-06
0.00530216
-7.85901e-06
0.00530319
-1.1771e-05
0.00530448
-7.98671e-06
0.00530556
-1.23791e-05
-2.22812e-05
0.00525762
-2.4899e-05
0.00525978
-2.38506e-05
0.00526186
-2.28316e-05
0.00526385
-2.18415e-05
0.00526576
-2.08799e-05
0.00526758
-1.99462e-05
0.00526932
-1.90402e-05
0.00527098
-1.81612e-05
0.00527256
-1.73088e-05
0.00527407
-1.64826e-05
0.0052755
-1.56821e-05
0.00527687
-1.49068e-05
0.00527817
-1.41563e-05
0.0052794
-1.34301e-05
0.00528057
-1.27279e-05
0.00528168
-1.20493e-05
0.00528272
-1.1394e-05
0.00528371
-1.07615e-05
0.00528465
-1.01517e-05
0.00528553
-9.56418e-06
0.00528636
-8.99866e-06
0.00528714
-8.4548e-06
0.00528787
-7.93227e-06
0.00528855
-7.43076e-06
0.0052892
-6.94997e-06
0.0052898
-6.48957e-06
0.00529035
-6.0493e-06
0.00529087
-5.62893e-06
0.00529136
-5.22832e-06
0.00529181
-4.84719e-06
0.00529222
-4.48545e-06
0.00529261
-4.14277e-06
0.00529296
-3.81898e-06
0.00529329
-3.51362e-06
0.00529358
-3.22651e-06
0.00529386
-2.95731e-06
0.00529411
-2.70591e-06
0.00529434
-2.47222e-06
0.00529455
-2.25642e-06
0.00529474
-2.0582e-06
0.00529492
-1.87777e-06
0.00529508
-1.71511e-06
0.00529522
-1.57074e-06
0.00529536
-1.44463e-06
0.00529548
-1.33756e-06
0.0052956
-1.24956e-06
0.00529571
-1.18197e-06
0.00529582
-1.13562e-06
0.00529592
-1.11207e-06
0.00529603
-1.11288e-06
0.00529614
-1.13996e-06
0.00529625
-1.19687e-06
0.00529637
-1.28501e-06
0.0052965
-1.41407e-06
0.00529665
-1.57654e-06
0.00529682
-1.80687e-06
0.00529702
-2.04965e-06
0.00529724
-2.44503e-06
0.00529751
-2.73845e-06
0.00529782
-3.44439e-06
0.00529819
-3.67153e-06
0.00529862
-4.95394e-06
0.00529912
-4.909e-06
0.00529974
-7.03391e-06
0.00530042
-6.63566e-06
0.00530127
-9.5e-06
0.00530219
-8.77916e-06
0.00530317
-1.27581e-05
0.00530457
-9.37962e-06
0.00530558
-1.33948e-05
-2.30362e-05
0.00525788
-2.71393e-05
0.00526003
-2.59991e-05
0.00526209
-2.48906e-05
0.00526406
-2.38135e-05
0.00526595
-2.27671e-05
0.00526775
-2.1751e-05
0.00526948
-2.07647e-05
0.00527112
-1.98078e-05
0.00527269
-1.88796e-05
0.00527419
-1.79799e-05
0.00527562
-1.71079e-05
0.00527697
-1.62633e-05
0.00527826
-1.54455e-05
0.00527949
-1.46542e-05
0.00528065
-1.38889e-05
0.00528175
-1.31492e-05
0.00528279
-1.24347e-05
0.00528377
-1.17452e-05
0.0052847
-1.10803e-05
0.00528558
-1.04396e-05
0.0052864
-9.82278e-06
0.00528718
-9.22955e-06
0.0052879
-8.65954e-06
0.00528858
-8.11243e-06
0.00528922
-7.58789e-06
0.00528982
-7.08558e-06
0.00529037
-6.60522e-06
0.00529089
-6.14654e-06
0.00529137
-5.70939e-06
0.00529182
-5.29347e-06
0.00529223
-4.89866e-06
0.00529261
-4.52462e-06
0.00529297
-4.17116e-06
0.00529329
-3.83782e-06
0.00529359
-3.52439e-06
0.00529386
-3.23054e-06
0.00529411
-2.95612e-06
0.00529434
-2.70105e-06
0.00529455
-2.46548e-06
0.00529474
-2.24911e-06
0.00529491
-2.05215e-06
0.00529507
-1.8746e-06
0.00529522
-1.71699e-06
0.00529536
-1.57935e-06
0.00529548
-1.46245e-06
0.0052956
-1.36644e-06
0.00529571
-1.29269e-06
0.00529581
-1.24214e-06
0.00529592
-1.21649e-06
0.00529602
-1.21745e-06
0.00529613
-1.24718e-06
0.00529624
-1.30946e-06
0.00529636
-1.40609e-06
0.0052965
-1.54694e-06
0.00529665
-1.72533e-06
0.00529681
-1.97565e-06
0.00529701
-2.2444e-06
0.00529723
-2.6704e-06
0.0052975
-3.00332e-06
0.00529781
-3.75469e-06
0.00529818
-4.03739e-06
0.00529861
-5.38964e-06
0.00529911
-5.41172e-06
0.00529973
-7.65061e-06
0.00530041
-7.31558e-06
0.00530126
-1.03463e-05
0.00530219
-9.71526e-06
0.00530315
-1.3711e-05
0.00530462
-1.08558e-05
0.00530559
-1.43584e-05
-2.35995e-05
0.00525817
-2.93557e-05
0.00526029
-2.81253e-05
0.00526233
-2.6929e-05
0.00526428
-2.57662e-05
0.00526615
-2.46364e-05
0.00526794
-2.35391e-05
0.00526965
-2.24737e-05
0.00527128
-2.14399e-05
0.00527284
-2.0437e-05
0.00527432
-1.94646e-05
0.00527574
-1.8522e-05
0.00527708
-1.76089e-05
0.00527836
-1.67247e-05
0.00527958
-1.58689e-05
0.00528073
-1.50412e-05
0.00528182
-1.4241e-05
0.00528285
-1.34681e-05
0.00528383
-1.2722e-05
0.00528475
-1.20025e-05
0.00528562
-1.1309e-05
0.00528644
-1.06414e-05
0.00528721
-9.99924e-06
0.00528793
-9.38214e-06
0.00528861
-8.78978e-06
0.00528925
-8.22183e-06
0.00528984
-7.67792e-06
0.00529039
-7.15776e-06
0.0052909
-6.66105e-06
0.00529138
-6.18761e-06
0.00529183
-5.73714e-06
0.00529224
-5.30949e-06
0.00529262
-4.90429e-06
0.00529297
-4.52134e-06
0.00529329
-4.16019e-06
0.00529359
-3.82061e-06
0.00529386
-3.50225e-06
0.00529411
-3.20497e-06
0.00529433
-2.92864e-06
0.00529454
-2.67342e-06
0.00529473
-2.43901e-06
0.00529491
-2.22563e-06
0.00529506
-2.03328e-06
0.00529521
-1.86251e-06
0.00529534
-1.71339e-06
0.00529547
-1.58675e-06
0.00529558
-1.48276e-06
0.00529569
-1.40291e-06
0.0052958
-1.34819e-06
0.0052959
-1.32046e-06
0.00529601
-1.32159e-06
0.00529612
-1.354e-06
0.00529623
-1.42166e-06
0.00529635
-1.52676e-06
0.00529648
-1.67939e-06
0.00529663
-1.87368e-06
0.0052968
-2.14396e-06
0.00529699
-2.43857e-06
0.00529722
-2.89529e-06
0.00529748
-3.26743e-06
0.00529779
-4.06464e-06
0.00529816
-4.40218e-06
0.00529859
-5.82547e-06
0.00529909
-5.91318e-06
0.00529971
-8.26824e-06
0.00530039
-7.99585e-06
0.00530124
-1.11918e-05
0.00530219
-1.06646e-05
0.00530311
-1.46393e-05
0.00530465
-1.23927e-05
0.00530557
-1.52818e-05
-2.40222e-05
0.00525847
-3.15465e-05
0.00526058
-3.02276e-05
0.00526259
-2.8945e-05
0.00526452
-2.7698e-05
0.00526637
-2.64862e-05
0.00526814
-2.5309e-05
0.00526984
-2.41659e-05
0.00527145
-2.30563e-05
0.005273
-2.19798e-05
0.00527447
-2.09357e-05
0.00527587
-1.99235e-05
0.0052772
-1.89428e-05
0.00527847
-1.79929e-05
0.00527967
-1.70735e-05
0.00528082
-1.6184e-05
0.0052819
-1.53241e-05
0.00528293
-1.44933e-05
0.00528389
-1.36913e-05
0.00528481
-1.29176e-05
0.00528567
-1.2172e-05
0.00528649
-1.1454e-05
0.00528725
-1.07633e-05
0.00528797
-1.00996e-05
0.00528864
-9.46235e-06
0.00528927
-8.85135e-06
0.00528986
-8.26617e-06
0.00529041
-7.70652e-06
0.00529092
-7.17208e-06
0.00529139
-6.66263e-06
0.00529183
-6.17787e-06
0.00529224
-5.71761e-06
0.00529262
-5.28149e-06
0.00529297
-4.86926e-06
0.00529329
-4.48049e-06
0.00529358
-4.11493e-06
0.00529385
-3.77223e-06
0.0052941
-3.45223e-06
0.00529432
-3.15479e-06
0.00529453
-2.88004e-06
0.00529472
-2.62771e-06
0.00529489
-2.39802e-06
0.00529505
-2.19098e-06
0.00529519
-2.00714e-06
0.00529533
-1.84662e-06
0.00529545
-1.71028e-06
0.00529557
-1.59839e-06
0.00529568
-1.51247e-06
0.00529578
-1.45362e-06
0.00529588
-1.42384e-06
0.00529599
-1.42517e-06
0.00529609
-1.46025e-06
0.00529621
-1.53329e-06
0.00529633
-1.64686e-06
0.00529646
-1.81126e-06
0.00529661
-2.02138e-06
0.00529677
-2.31163e-06
0.00529697
-2.63197e-06
0.00529719
-3.11949e-06
0.00529745
-3.53052e-06
0.00529776
-4.37398e-06
0.00529813
-4.76556e-06
0.00529856
-6.26115e-06
0.00529906
-6.41296e-06
0.00529968
-8.88661e-06
0.00530036
-8.67585e-06
0.00530121
-1.20371e-05
0.00530217
-1.16243e-05
0.00530308
-1.55521e-05
0.00530466
-1.39692e-05
0.00530555
-1.61767e-05
-2.43541e-05
0.00525881
-3.37098e-05
0.00526088
-3.23043e-05
0.00526288
-3.0937e-05
0.00526479
-2.96075e-05
0.00526661
-2.83152e-05
0.00526836
-2.70595e-05
0.00527004
-2.58399e-05
0.00527164
-2.46558e-05
0.00527317
-2.35068e-05
0.00527462
-2.23921e-05
0.00527601
-2.13113e-05
0.00527733
-2.02639e-05
0.00527859
-1.92493e-05
0.00527978
-1.8267e-05
0.00528091
-1.73166e-05
0.00528199
-1.63976e-05
0.005283
-1.55096e-05
0.00528396
-1.46523e-05
0.00528487
-1.38252e-05
0.00528573
-1.30279e-05
0.00528653
-1.22601e-05
0.00528729
-1.15214e-05
0.005288
-1.08113e-05
0.00528867
-1.01297e-05
0.0052893
-9.47601e-06
0.00528988
-8.84993e-06
0.00529042
-8.25113e-06
0.00529093
-7.67927e-06
0.0052914
-7.13411e-06
0.00529184
-6.61534e-06
0.00529224
-6.12273e-06
0.00529262
-5.65592e-06
0.00529296
-5.21463e-06
0.00529328
-4.79845e-06
0.00529357
-4.40711e-06
0.00529384
-4.04024e-06
0.00529409
-3.69769e-06
0.00529431
-3.3793e-06
0.00529452
-3.08517e-06
0.00529471
-2.81504e-06
0.00529488
-2.56915e-06
0.00529503
-2.34752e-06
0.00529518
-2.1507e-06
0.00529531
-1.97886e-06
0.00529543
-1.8329e-06
0.00529555
-1.71317e-06
0.00529565
-1.62123e-06
0.00529576
-1.55829e-06
0.00529586
-1.52649e-06
0.00529597
-1.52803e-06
0.00529607
-1.56581e-06
0.00529618
-1.64423e-06
0.0052963
-1.76624e-06
0.00529643
-1.94238e-06
0.00529658
-2.16828e-06
0.00529675
-2.47847e-06
0.00529694
-2.82439e-06
0.00529716
-3.34276e-06
0.00529742
-3.79234e-06
0.00529773
-4.68247e-06
0.00529809
-5.12724e-06
0.00529853
-6.69645e-06
0.00529903
-6.91062e-06
0.00529965
-9.50553e-06
0.00530032
-9.35497e-06
0.00530117
-1.28827e-05
0.00530214
-1.25919e-05
0.00530304
-1.6458e-05
0.00530464
-1.55668e-05
0.00530552
-1.70543e-05
-2.46404e-05
0.00525917
-3.58439e-05
0.00526122
-3.43536e-05
0.00526318
-3.29035e-05
0.00526507
-3.14931e-05
0.00526687
-3.01219e-05
0.0052686
-2.87892e-05
0.00527026
-2.74946e-05
0.00527184
-2.62373e-05
0.00527335
-2.50169e-05
0.00527479
-2.38329e-05
0.00527616
-2.26845e-05
0.00527747
-2.15714e-05
0.00527872
-2.0493e-05
0.0052799
-1.94487e-05
0.00528102
-1.84382e-05
0.00528208
-1.74609e-05
0.00528309
-1.65164e-05
0.00528404
-1.56044e-05
0.00528494
-1.47244e-05
0.00528579
-1.38761e-05
0.00528659
-1.3059e-05
0.00528734
-1.22728e-05
0.00528805
-1.1517e-05
0.00528871
-1.07913e-05
0.00528933
-1.00954e-05
0.0052899
-9.42881e-06
0.00529045
-8.79121e-06
0.00529095
-8.18227e-06
0.00529142
-7.60172e-06
0.00529185
-7.04924e-06
0.00529225
-6.52455e-06
0.00529262
-6.02731e-06
0.00529297
-5.5572e-06
0.00529328
-5.11384e-06
0.00529357
-4.69692e-06
0.00529384
-4.30608e-06
0.00529408
-3.94115e-06
0.0052943
-3.60196e-06
0.00529451
-3.2886e-06
0.00529469
-3.00083e-06
0.00529486
-2.73886e-06
0.00529502
-2.50275e-06
0.00529516
-2.29305e-06
0.00529529
-2.10999e-06
0.00529541
-1.95447e-06
0.00529553
-1.82697e-06
0.00529563
-1.72906e-06
0.00529574
-1.66207e-06
0.00529584
-1.62829e-06
0.00529594
-1.63006e-06
0.00529605
-1.67054e-06
0.00529616
-1.75433e-06
0.00529627
-1.88476e-06
0.0052964
-2.07259e-06
0.00529655
-2.3142e-06
0.00529672
-2.64429e-06
0.00529691
-3.01565e-06
0.00529713
-3.56492e-06
0.00529739
-4.05268e-06
0.0052977
-4.98988e-06
0.00529806
-5.48692e-06
0.00529849
-7.13113e-06
0.00529899
-7.40578e-06
0.00529961
-1.01249e-05
0.00530028
-1.00326e-05
0.00530113
-1.3729e-05
0.0053021
-1.35648e-05
0.00530301
-1.73641e-05
0.00530461
-1.71711e-05
0.00530548
-1.79244e-05
-2.49194e-05
0.00525955
-3.7947e-05
0.00526157
-3.63739e-05
0.00526351
-3.4843e-05
0.00526537
-3.33535e-05
0.00526716
-3.19051e-05
0.00526887
-3.04969e-05
0.0052705
-2.91286e-05
0.00527206
-2.77996e-05
0.00527355
-2.65092e-05
0.00527498
-2.52569e-05
0.00527634
-2.40421e-05
0.00527763
-2.28644e-05
0.00527886
-2.17231e-05
0.00528003
-2.06178e-05
0.00528114
-1.9548e-05
0.00528219
-1.85132e-05
0.00528319
-1.75131e-05
0.00528413
-1.65471e-05
0.00528502
-1.56149e-05
0.00528586
-1.47161e-05
0.00528665
-1.38503e-05
0.0052874
-1.30171e-05
0.00528809
-1.2216e-05
0.00528875
-1.14468e-05
0.00528936
-1.07091e-05
0.00528994
-1.00024e-05
0.00529047
-9.32641e-06
0.00529097
-8.68076e-06
0.00529143
-8.06515e-06
0.00529186
-7.47926e-06
0.00529226
-6.92279e-06
0.00529263
-6.3954e-06
0.00529297
-5.89673e-06
0.00529328
-5.42642e-06
0.00529357
-4.98414e-06
0.00529383
-4.56953e-06
0.00529407
-4.18242e-06
0.0052943
-3.82261e-06
0.0052945
-3.49017e-06
0.00529468
-3.1849e-06
0.00529485
-2.90699e-06
0.005295
-2.65652e-06
0.00529514
-2.43405e-06
0.00529527
-2.23985e-06
0.00529539
-2.07488e-06
0.00529551
-1.93966e-06
0.00529561
-1.83583e-06
0.00529572
-1.76484e-06
0.00529582
-1.72911e-06
0.00529592
-1.73113e-06
0.00529602
-1.77432e-06
0.00529613
-1.86346e-06
0.00529625
-2.00227e-06
0.00529638
-2.20177e-06
0.00529652
-2.45901e-06
0.00529669