/*--------------------------------*- C++ -*----------------------------------*\
| =========                 |                                                 |
| \\      /  F ield         | OpenFOAM: The Open Source CFD Toolbox           |
|  \\    /   O peration     | Version:  2412                                  |
|   \\  /    A nd           | Website:  www.openfoam.com                      |
|    \\/     M anipulation  |                                                 |
\*---------------------------------------------------------------------------*/
FoamFile
{
    version     2.0;
    format      ascii;
    arch        "LSB;label=32;scalar=64";
    class       volVectorField;
    location    "7";
    object      vorticity;
}
// * * * * * * * * * * * * * * * * * * * * * * * * * * * * * * * * * * * * * //

dimensions      [0 0 -1 0 0 0 0];

internalField   nonuniform List<vector> 
5285
(
(0 -0 1.17497e-07)
(0 -0 1.28298e-07)
(0 -0 1.36479e-07)
(0 -0 1.41658e-07)
(0 -0 1.43187e-07)
(0 -0 1.40672e-07)
(0 -0 1.34105e-07)
(0 -0 1.23567e-07)
(0 -0 1.09505e-07)
(0 -0 9.2719e-08)
(0 -0 7.40135e-08)
(0 -0 5.41269e-08)
(0 -0 3.36974e-08)
(0 -0 1.31847e-08)
(0 -0 -7.34246e-09)
(0 -0 -2.84664e-08)
(0 -0 -5.06626e-08)
(0 -0 -7.55424e-08)
(0 -0 -1.03188e-07)
(0 -0 -1.31606e-07)
(0 -0 -1.5756e-07)
(0 -0 -1.80556e-07)
(0 -0 -2.01294e-07)
(0 -0 -2.21139e-07)
(0 -0 -2.41921e-07)
(0 -0 -2.66284e-07)
(0 -0 -2.95468e-07)
(0 -0 -3.27717e-07)
(0 -0 -3.5889e-07)
(0 -0 -3.89876e-07)
(0 -0 -4.18001e-07)
(0 -0 -4.42991e-07)
(0 -0 -4.65215e-07)
(0 -0 -4.84966e-07)
(0 -0 -5.07639e-07)
(0 -0 -5.3016e-07)
(0 -0 -5.55634e-07)
(0 -0 -5.8315e-07)
(0 -0 -6.08939e-07)
(0 -0 -6.31454e-07)
(0 -0 -6.53878e-07)
(0 -0 -6.76525e-07)
(0 -0 -6.96051e-07)
(0 -0 -7.16712e-07)
(0 -0 -7.42761e-07)
(0 -0 -7.68228e-07)
(0 -0 -7.88321e-07)
(0 -0 -8.18559e-07)
(0 -0 -8.44354e-07)
(0 -0 -8.69624e-07)
(0 -0 -8.90397e-07)
(0 -0 -9.14813e-07)
(0 -0 -9.38532e-07)
(0 -0 -9.69509e-07)
(0 -0 -1.00288e-06)
(0 -0 -1.03182e-06)
(0 -0 -1.06512e-06)
(0 -0 -1.10426e-06)
(0 -0 -1.14561e-06)
(0 -0 -1.19087e-06)
(0 -0 -1.23996e-06)
(0 -0 -1.2869e-06)
(0 -0 -1.3545e-06)
(0 -0 -1.4162e-06)
(0 -0 -1.51742e-06)
(0 -0 -1.56173e-06)
(0 -0 -1.6622e-06)
(0 -0 -2.61893e-06)
(0 -0 3.47022e-06)
(0 -0 -1.75468e-05)
(0 -0 8.24929e-06)
(0 -0 2.185e-07)
(0 -0 2.48698e-07)
(0 -0 2.67975e-07)
(0 -0 2.77209e-07)
(0 -0 2.76173e-07)
(0 -0 2.64902e-07)
(0 -0 2.44033e-07)
(0 -0 2.143e-07)
(0 -0 1.76648e-07)
(0 -0 1.32479e-07)
(0 -0 8.32713e-08)
(0 -0 3.03476e-08)
(0 -0 -2.55613e-08)
(0 -0 -8.41311e-08)
(0 -0 -1.45279e-07)
(0 -0 -2.09123e-07)
(0 -0 -2.75831e-07)
(0 -0 -3.46553e-07)
(0 -0 -4.20961e-07)
(0 -0 -4.96819e-07)
(0 -0 -5.70945e-07)
(0 -0 -6.42837e-07)
(0 -0 -7.12995e-07)
(0 -0 -7.82803e-07)
(0 -0 -8.53422e-07)
(0 -0 -9.271e-07)
(0 -0 -1.00459e-06)
(0 -0 -1.08501e-06)
(0 -0 -1.16423e-06)
(0 -0 -1.24366e-06)
(0 -0 -1.32065e-06)
(0 -0 -1.39576e-06)
(0 -0 -1.46751e-06)
(0 -0 -1.536e-06)
(0 -0 -1.6061e-06)
(0 -0 -1.67502e-06)
(0 -0 -1.74561e-06)
(0 -0 -1.8191e-06)
(0 -0 -1.89026e-06)
(0 -0 -1.9584e-06)
(0 -0 -2.02638e-06)
(0 -0 -2.09664e-06)
(0 -0 -2.16341e-06)
(0 -0 -2.23038e-06)
(0 -0 -2.30152e-06)
(0 -0 -2.37145e-06)
(0 -0 -2.43692e-06)
(0 -0 -2.51211e-06)
(0 -0 -2.58439e-06)
(0 -0 -2.65616e-06)
(0 -0 -2.72494e-06)
(0 -0 -2.79987e-06)
(0 -0 -2.87711e-06)
(0 -0 -2.96508e-06)
(0 -0 -3.05845e-06)
(0 -0 -3.15127e-06)
(0 -0 -3.25295e-06)
(0 -0 -3.36396e-06)
(0 -0 -3.48756e-06)
(0 -0 -3.61673e-06)
(0 -0 -3.76612e-06)
(0 -0 -3.9092e-06)
(0 -0 -4.11095e-06)
(0 -0 -4.28415e-06)
(0 -0 -4.57348e-06)
(0 -0 -4.71e-06)
(0 -0 -5.01227e-06)
(0 -0 -7.84429e-06)
(0 -0 1.01583e-05)
(0 -0 -5.19557e-05)
(0 -0 2.42938e-05)
(0 -0 1.64847e-07)
(0 -0 2.12295e-07)
(0 -0 2.4142e-07)
(0 -0 2.53603e-07)
(0 -0 2.49474e-07)
(0 -0 2.29436e-07)
(0 -0 1.94703e-07)
(0 -0 1.46622e-07)
(0 -0 8.6621e-08)
(0 -0 1.66165e-08)
(0 -0 -6.12897e-08)
(0 -0 -1.45236e-07)
(0 -0 -2.34413e-07)
(0 -0 -3.28614e-07)
(0 -0 -4.27709e-07)
(0 -0 -5.31469e-07)
(0 -0 -6.39801e-07)
(0 -0 -7.53383e-07)
(0 -0 -8.71479e-07)
(0 -0 -9.91698e-07)
(0 -0 -1.11088e-06)
(0 -0 -1.22855e-06)
(0 -0 -1.34488e-06)
(0 -0 -1.46119e-06)
(0 -0 -1.57809e-06)
(0 -0 -1.69747e-06)
(0 -0 -1.81969e-06)
(0 -0 -1.94486e-06)
(0 -0 -2.06882e-06)
(0 -0 -2.19343e-06)
(0 -0 -2.31612e-06)
(0 -0 -2.43793e-06)
(0 -0 -2.55576e-06)
(0 -0 -2.66968e-06)
(0 -0 -2.78378e-06)
(0 -0 -2.89575e-06)
(0 -0 -3.00824e-06)
(0 -0 -3.12439e-06)
(0 -0 -3.23776e-06)
(0 -0 -3.3485e-06)
(0 -0 -3.459e-06)
(0 -0 -3.57336e-06)
(0 -0 -3.68415e-06)
(0 -0 -3.79448e-06)
(0 -0 -3.90723e-06)
(0 -0 -4.01843e-06)
(0 -0 -4.12677e-06)
(0 -0 -4.24342e-06)
(0 -0 -4.35871e-06)
(0 -0 -4.47367e-06)
(0 -0 -4.58744e-06)
(0 -0 -4.70941e-06)
(0 -0 -4.83694e-06)
(0 -0 -4.97793e-06)
(0 -0 -5.12712e-06)
(0 -0 -5.27984e-06)
(0 -0 -5.44529e-06)
(0 -0 -5.6231e-06)
(0 -0 -5.82317e-06)
(0 -0 -6.03016e-06)
(0 -0 -6.27362e-06)
(0 -0 -6.50639e-06)
(0 -0 -6.83346e-06)
(0 -0 -7.11004e-06)
(0 -0 -7.5763e-06)
(0 -0 -7.79716e-06)
(0 -0 -8.29156e-06)
(0 -0 -1.28636e-05)
(0 -0 1.62273e-05)
(0 -0 -8.41529e-05)
(0 -0 3.90071e-05)
(0 -0 -2.11769e-08)
(0 -0 4.05337e-08)
(0 -0 7.67586e-08)
(0 -0 9.04047e-08)
(0 -0 8.23436e-08)
(0 -0 5.3435e-08)
(0 -0 5.458e-09)
(0 -0 -5.97082e-08)
(0 -0 -1.40203e-07)
(0 -0 -2.33645e-07)
(0 -0 -3.3738e-07)
(0 -0 -4.49169e-07)
(0 -0 -5.68081e-07)
(0 -0 -6.94043e-07)
(0 -0 -8.26879e-07)
(0 -0 -9.66144e-07)
(0 -0 -1.11141e-06)
(0 -0 -1.26303e-06)
(0 -0 -1.41982e-06)
(0 -0 -1.57935e-06)
(0 -0 -1.73846e-06)
(0 -0 -1.89668e-06)
(0 -0 -2.05383e-06)
(0 -0 -2.21117e-06)
(0 -0 -2.36873e-06)
(0 -0 -2.5281e-06)
(0 -0 -2.68955e-06)
(0 -0 -2.85388e-06)
(0 -0 -3.01723e-06)
(0 -0 -3.18172e-06)
(0 -0 -3.34466e-06)
(0 -0 -3.50754e-06)
(0 -0 -3.66587e-06)
(0 -0 -3.81962e-06)
(0 -0 -3.97217e-06)
(0 -0 -4.1218e-06)
(0 -0 -4.27101e-06)
(0 -0 -4.42446e-06)
(0 -0 -4.57498e-06)
(0 -0 -4.72326e-06)
(0 -0 -4.87126e-06)
(0 -0 -5.02423e-06)
(0 -0 -5.17378e-06)
(0 -0 -5.32244e-06)
(0 -0 -5.47138e-06)
(0 -0 -5.61872e-06)
(0 -0 -5.76518e-06)
(0 -0 -5.91791e-06)
(0 -0 -6.07065e-06)
(0 -0 -6.22354e-06)
(0 -0 -6.37709e-06)
(0 -0 -6.54048e-06)
(0 -0 -6.71266e-06)
(0 -0 -6.90017e-06)
(0 -0 -7.09841e-06)
(0 -0 -7.30411e-06)
(0 -0 -7.52578e-06)
(0 -0 -7.76214e-06)
(0 -0 -8.02945e-06)
(0 -0 -8.30428e-06)
(0 -0 -8.63155e-06)
(0 -0 -8.94282e-06)
(0 -0 -9.38117e-06)
(0 -0 -9.7476e-06)
(0 -0 -1.03715e-05)
(0 -0 -1.06649e-05)
(0 -0 -1.13334e-05)
(0 -0 -1.74225e-05)
(0 -0 2.13828e-05)
(0 -0 -0.000112537)
(0 -0 5.15989e-05)
(0 -0 -1.9031e-07)
(0 -0 -1.19634e-07)
(0 -0 -7.92146e-08)
(0 -0 -6.63807e-08)
(0 -0 -7.95489e-08)
(0 -0 -1.17449e-07)
(0 -0 -1.77865e-07)
(0 -0 -2.58462e-07)
(0 -0 -3.56988e-07)
(0 -0 -4.7067e-07)
(0 -0 -5.96453e-07)
(0 -0 -7.31812e-07)
(0 -0 -8.75775e-07)
(0 -0 -1.02836e-06)
(0 -0 -1.18936e-06)
(0 -0 -1.35817e-06)
(0 -0 -1.53414e-06)
(0 -0 -1.71727e-06)
(0 -0 -1.90603e-06)
(0 -0 -2.09802e-06)
(0 -0 -2.29008e-06)
(0 -0 -2.48176e-06)
(0 -0 -2.67252e-06)
(0 -0 -2.8635e-06)
(0 -0 -3.05426e-06)
(0 -0 -3.24613e-06)
(0 -0 -3.43934e-06)
(0 -0 -3.63544e-06)
(0 -0 -3.83086e-06)
(0 -0 -4.0279e-06)
(0 -0 -4.22382e-06)
(0 -0 -4.42014e-06)
(0 -0 -4.61139e-06)
(0 -0 -4.79752e-06)
(0 -0 -4.98117e-06)
(0 -0 -5.16132e-06)
(0 -0 -5.34037e-06)
(0 -0 -5.52402e-06)
(0 -0 -5.70472e-06)
(0 -0 -5.8836e-06)
(0 -0 -6.06222e-06)
(0 -0 -6.24638e-06)
(0 -0 -6.42746e-06)
(0 -0 -6.60737e-06)
(0 -0 -6.78552e-06)
(0 -0 -6.96213e-06)
(0 -0 -7.13991e-06)
(0 -0 -7.32171e-06)
(0 -0 -7.50462e-06)
(0 -0 -7.68818e-06)
(0 -0 -7.87431e-06)
(0 -0 -8.07149e-06)
(0 -0 -8.28039e-06)
(0 -0 -8.50574e-06)
(0 -0 -8.74382e-06)
(0 -0 -8.99289e-06)
(0 -0 -9.26043e-06)
(0 -0 -9.54417e-06)
(0 -0 -9.86628e-06)
(0 -0 -1.01959e-05)
(0 -0 -1.05922e-05)
(0 -0 -1.09671e-05)
(0 -0 -1.14971e-05)
(0 -0 -1.19353e-05)
(0 -0 -1.26904e-05)
(0 -0 -1.30388e-05)
(0 -0 -1.38593e-05)
(0 -0 -2.11552e-05)
(0 -0 2.54631e-05)
(0 -0 -0.000135452)
(0 -0 6.1407e-05)
(0 -0 -1.06923e-07)
(0 -0 -3.20167e-08)
(0 -0 8.43147e-09)
(0 -0 1.77275e-08)
(0 -0 -1.89769e-09)
(0 -0 -4.88955e-08)
(0 -0 -1.20747e-07)
(0 -0 -2.14765e-07)
(0 -0 -3.28367e-07)
(0 -0 -4.58475e-07)
(0 -0 -6.01781e-07)
(0 -0 -7.55616e-07)
(0 -0 -9.19027e-07)
(0 -0 -1.0921e-06)
(0 -0 -1.27464e-06)
(0 -0 -1.4659e-06)
(0 -0 -1.66508e-06)
(0 -0 -1.87189e-06)
(0 -0 -2.08456e-06)
(0 -0 -2.30073e-06)
(0 -0 -2.51731e-06)
(0 -0 -2.73387e-06)
(0 -0 -2.94958e-06)
(0 -0 -3.1654e-06)
(0 -0 -3.38048e-06)
(0 -0 -3.59597e-06)
(0 -0 -3.81211e-06)
(0 -0 -4.03113e-06)
(0 -0 -4.24983e-06)
(0 -0 -4.47057e-06)
(0 -0 -4.69057e-06)
(0 -0 -4.91115e-06)
(0 -0 -5.12621e-06)
(0 -0 -5.33577e-06)
(0 -0 -5.54176e-06)
(0 -0 -5.74389e-06)
(0 -0 -5.9445e-06)
(0 -0 -6.14982e-06)
(0 -0 -6.35233e-06)
(0 -0 -6.55337e-06)
(0 -0 -6.75424e-06)
(0 -0 -6.96076e-06)
(0 -0 -7.16461e-06)
(0 -0 -7.36715e-06)
(0 -0 -7.56618e-06)
(0 -0 -7.76382e-06)
(0 -0 -7.96442e-06)
(0 -0 -8.16691e-06)
(0 -0 -8.37131e-06)
(0 -0 -8.57679e-06)
(0 -0 -8.78663e-06)
(0 -0 -9.00833e-06)
(0 -0 -9.24415e-06)
(0 -0 -9.49677e-06)
(0 -0 -9.76354e-06)
(0 -0 -1.0044e-05)
(0 -0 -1.03449e-05)
(0 -0 -1.06625e-05)
(0 -0 -1.10243e-05)
(0 -0 -1.13928e-05)
(0 -0 -1.184e-05)
(0 -0 -1.22602e-05)
(0 -0 -1.28578e-05)
(0 -0 -1.33458e-05)
(0 -0 -1.41994e-05)
(0 -0 -1.45819e-05)
(0 -0 -1.55255e-05)
(0 -0 -2.36478e-05)
(0 -0 2.84354e-05)
(0 -0 -0.000151376)
(0 -0 6.79549e-05)
(0 -0 4.66775e-07)
(0 -0 5.39821e-07)
(0 -0 5.76092e-07)
(0 -0 5.79186e-07)
(0 -0 5.51928e-07)
(0 -0 4.96006e-07)
(0 -0 4.14092e-07)
(0 -0 3.09109e-07)
(0 -0 1.83896e-07)
(0 -0 4.17332e-08)
(0 -0 -1.13967e-07)
(0 -0 -2.80539e-07)
(0 -0 -4.5711e-07)
(0 -0 -6.43825e-07)
(0 -0 -8.40509e-07)
(0 -0 -1.04632e-06)
(0 -0 -1.26038e-06)
(0 -0 -1.48214e-06)
(0 -0 -1.7097e-06)
(0 -0 -1.94082e-06)
(0 -0 -2.17253e-06)
(0 -0 -2.40442e-06)
(0 -0 -2.63548e-06)
(0 -0 -2.86641e-06)
(0 -0 -3.09607e-06)
(0 -0 -3.32542e-06)
(0 -0 -3.55481e-06)
(0 -0 -3.78699e-06)
(0 -0 -4.01924e-06)
(0 -0 -4.25383e-06)
(0 -0 -4.48797e-06)
(0 -0 -4.72263e-06)
(0 -0 -4.95148e-06)
(0 -0 -5.17458e-06)
(0 -0 -5.39328e-06)
(0 -0 -5.608e-06)
(0 -0 -5.821e-06)
(0 -0 -6.03857e-06)
(0 -0 -6.25358e-06)
(0 -0 -6.46743e-06)
(0 -0 -6.68121e-06)
(0 -0 -6.90038e-06)
(0 -0 -7.11732e-06)
(0 -0 -7.33287e-06)
(0 -0 -7.54365e-06)
(0 -0 -7.75318e-06)
(0 -0 -7.96699e-06)
(0 -0 -8.18092e-06)
(0 -0 -8.39727e-06)
(0 -0 -8.61501e-06)
(0 -0 -8.83864e-06)
(0 -0 -9.07451e-06)
(0 -0 -9.32615e-06)
(0 -0 -9.59427e-06)
(0 -0 -9.87728e-06)
(0 -0 -1.01759e-05)
(0 -0 -1.04958e-05)
(0 -0 -1.08324e-05)
(0 -0 -1.12169e-05)
(0 -0 -1.1607e-05)
(0 -0 -1.20844e-05)
(0 -0 -1.25294e-05)
(0 -0 -1.31679e-05)
(0 -0 -1.36806e-05)
(0 -0 -1.4596e-05)
(0 -0 -1.49889e-05)
(0 -0 -1.6023e-05)
(0 -0 -2.45441e-05)
(0 -0 3.0352e-05)
(0 -0 -0.000159202)
(0 -0 7.10623e-05)
(0 -0 1.72121e-06)
(0 -0 1.7863e-06)
(0 -0 1.8143e-06)
(0 -0 1.80884e-06)
(0 -0 1.77306e-06)
(0 -0 1.70868e-06)
(0 -0 1.61839e-06)
(0 -0 1.50522e-06)
(0 -0 1.3722e-06)
(0 -0 1.22268e-06)
(0 -0 1.06004e-06)
(0 -0 8.86798e-07)
(0 -0 7.03694e-07)
(0 -0 5.10528e-07)
(0 -0 3.07447e-07)
(0 -0 9.53406e-08)
(0 -0 -1.24861e-07)
(0 -0 -3.52452e-07)
(0 -0 -5.85488e-07)
(0 -0 -8.21897e-07)
(0 -0 -1.05891e-06)
(0 -0 -1.29617e-06)
(0 -0 -1.53256e-06)
(0 -0 -1.76852e-06)
(0 -0 -2.00268e-06)
(0 -0 -2.23584e-06)
(0 -0 -2.46849e-06)
(0 -0 -2.70374e-06)
(0 -0 -2.93938e-06)
(0 -0 -3.17754e-06)
(0 -0 -3.41543e-06)
(0 -0 -3.65359e-06)
(0 -0 -3.88584e-06)
(0 -0 -4.11227e-06)
(0 -0 -4.33375e-06)
(0 -0 -4.55133e-06)
(0 -0 -4.76714e-06)
(0 -0 -4.98719e-06)
(0 -0 -5.20499e-06)
(0 -0 -5.42188e-06)
(0 -0 -5.63882e-06)
(0 -0 -5.8606e-06)
(0 -0 -6.08055e-06)
(0 -0 -6.2991e-06)
(0 -0 -6.51217e-06)
(0 -0 -6.72409e-06)
(0 -0 -6.94103e-06)
(0 -0 -7.1568e-06)
(0 -0 -7.37522e-06)
(0 -0 -7.59519e-06)
(0 -0 -7.82221e-06)
(0 -0 -8.06141e-06)
(0 -0 -8.31718e-06)
(0 -0 -8.58847e-06)
(0 -0 -8.87476e-06)
(0 -0 -9.17726e-06)
(0 -0 -9.50171e-06)
(0 -0 -9.84116e-06)
(0 -0 -1.02317e-05)
(0 -0 -1.06236e-05)
(0 -0 -1.11116e-05)
(0 -0 -1.15568e-05)
(0 -0 -1.2211e-05)
(0 -0 -1.27197e-05)
(0 -0 -1.36581e-05)
(0 -0 -1.40393e-05)
(0 -0 -1.51261e-05)
(0 -0 -2.35955e-05)
(0 -0 3.12997e-05)
(0 -0 -0.000158298)
(0 -0 7.08183e-05)
(0 -0 3.6569e-06)
(0 -0 3.71003e-06)
(0 -0 3.72738e-06)
(0 -0 3.71254e-06)
(0 -0 3.66871e-06)
(0 -0 3.59757e-06)
(0 -0 3.5017e-06)
(0 -0 3.38413e-06)
(0 -0 3.24796e-06)
(0 -0 3.09652e-06)
(0 -0 2.93301e-06)
(0 -0 2.7597e-06)
(0 -0 2.57715e-06)
(0 -0 2.3851e-06)
(0 -0 2.1837e-06)
(0 -0 1.97383e-06)
(0 -0 1.75646e-06)
(0 -0 1.53236e-06)
(0 -0 1.30342e-06)
(0 -0 1.0715e-06)
(0 -0 8.39082e-07)
(0 -0 6.06473e-07)
(0 -0 3.74793e-07)
(0 -0 1.43873e-07)
(0 -0 -8.48056e-08)
(0 -0 -3.11849e-07)
(0 -0 -5.37931e-07)
(0 -0 -7.66306e-07)
(0 -0 -9.95301e-07)
(0 -0 -1.22682e-06)
(0 -0 -1.45816e-06)
(0 -0 -1.6894e-06)
(0 -0 -1.91483e-06)
(0 -0 -2.13459e-06)
(0 -0 -2.34915e-06)
(0 -0 -2.56005e-06)
(0 -0 -2.76925e-06)
(0 -0 -2.98217e-06)
(0 -0 -3.19321e-06)
(0 -0 -3.40353e-06)
(0 -0 -3.61398e-06)
(0 -0 -3.82856e-06)
(0 -0 -4.04164e-06)
(0 -0 -4.25338e-06)
(0 -0 -4.45946e-06)
(0 -0 -4.66444e-06)
(0 -0 -4.87458e-06)
(0 -0 -5.08275e-06)
(0 -0 -5.29359e-06)
(0 -0 -5.50601e-06)
(0 -0 -5.72616e-06)
(0 -0 -5.958e-06)
(0 -0 -6.20624e-06)
(0 -0 -6.46866e-06)
(0 -0 -6.74525e-06)
(0 -0 -7.03816e-06)
(0 -0 -7.35194e-06)
(0 -0 -7.67994e-06)
(0 -0 -8.05763e-06)
(0 -0 -8.43545e-06)
(0 -0 -8.90992e-06)
(0 -0 -9.33662e-06)
(0 -0 -9.9765e-06)
(0 -0 -1.04557e-05)
(0 -0 -1.13798e-05)
(0 -0 -1.17226e-05)
(0 -0 -1.28296e-05)
(0 -0 -2.08046e-05)
(0 -0 3.13051e-05)
(0 -0 -0.000148683)
(0 -0 6.73162e-05)
(0 -0 6.0348e-06)
(0 -0 6.07463e-06)
(0 -0 6.08114e-06)
(0 -0 6.05773e-06)
(0 -0 6.0077e-06)
(0 -0 5.93261e-06)
(0 -0 5.83483e-06)
(0 -0 5.71731e-06)
(0 -0 5.58309e-06)
(0 -0 5.43539e-06)
(0 -0 5.27712e-06)
(0 -0 5.11022e-06)
(0 -0 4.93504e-06)
(0 -0 4.75132e-06)
(0 -0 4.55918e-06)
(0 -0 4.35954e-06)
(0 -0 4.1533e-06)
(0 -0 3.94126e-06)
(0 -0 3.72516e-06)
(0 -0 3.50659e-06)
(0 -0 3.28772e-06)
(0 -0 3.0688e-06)
(0 -0 2.85085e-06)
(0 -0 2.63397e-06)
(0 -0 2.41966e-06)
(0 -0 2.20747e-06)
(0 -0 1.9966e-06)
(0 -0 1.78382e-06)
(0 -0 1.57031e-06)
(0 -0 1.35445e-06)
(0 -0 1.13879e-06)
(0 -0 9.23589e-07)
(0 -0 7.13917e-07)
(0 -0 5.09542e-07)
(0 -0 3.10327e-07)
(0 -0 1.14422e-07)
(0 -0 -7.98994e-08)
(0 -0 -2.77356e-07)
(0 -0 -4.73298e-07)
(0 -0 -6.68644e-07)
(0 -0 -8.64179e-07)
(0 -0 -1.06304e-06)
(0 -0 -1.26064e-06)
(0 -0 -1.45704e-06)
(0 -0 -1.64801e-06)
(0 -0 -1.8379e-06)
(0 -0 -2.0326e-06)
(0 -0 -2.225e-06)
(0 -0 -2.41992e-06)
(0 -0 -2.61633e-06)
(0 -0 -2.82063e-06)
(0 -0 -3.03571e-06)
(0 -0 -3.26618e-06)
(0 -0 -3.50912e-06)
(0 -0 -3.76488e-06)
(0 -0 -4.03612e-06)
(0 -0 -4.3265e-06)
(0 -0 -4.62973e-06)
(0 -0 -4.97941e-06)
(0 -0 -5.32767e-06)
(0 -0 -5.76955e-06)
(0 -0 -6.15956e-06)
(0 -0 -6.76029e-06)
(0 -0 -7.1887e-06)
(0 -0 -8.06371e-06)
(0 -0 -8.34845e-06)
(0 -0 -9.443e-06)
(0 -0 -1.65404e-05)
(0 -0 3.0376e-05)
(0 -0 -0.000131669)
(0 -0 6.06775e-05)
(0 -0 8.47478e-06)
(0 -0 8.50296e-06)
(0 -0 8.50066e-06)
(0 -0 8.47127e-06)
(0 -0 8.41821e-06)
(0 -0 8.3429e-06)
(0 -0 8.24746e-06)
(0 -0 8.13467e-06)
(0 -0 8.00745e-06)
(0 -0 7.86881e-06)
(0 -0 7.72131e-06)
(0 -0 7.56652e-06)
(0 -0 7.4046e-06)
(0 -0 7.23529e-06)
(0 -0 7.05874e-06)
(0 -0 6.87587e-06)
(0 -0 6.68751e-06)
(0 -0 6.49441e-06)
(0 -0 6.29808e-06)
(0 -0 6.09985e-06)
(0 -0 5.90155e-06)
(0 -0 5.70335e-06)
(0 -0 5.50614e-06)
(0 -0 5.31026e-06)
(0 -0 5.11711e-06)
(0 -0 4.92639e-06)
(0 -0 4.73723e-06)
(0 -0 4.54657e-06)
(0 -0 4.35521e-06)
(0 -0 4.16182e-06)
(0 -0 3.96871e-06)
(0 -0 3.77637e-06)
(0 -0 3.58909e-06)
(0 -0 3.40656e-06)
(0 -0 3.22891e-06)
(0 -0 3.05419e-06)
(0 -0 2.88088e-06)
(0 -0 2.70506e-06)
(0 -0 2.5304e-06)
(0 -0 2.35624e-06)
(0 -0 2.18191e-06)
(0 -0 2.00502e-06)
(0 -0 1.82925e-06)
(0 -0 1.65446e-06)
(0 -0 1.48459e-06)
(0 -0 1.31579e-06)
(0 -0 1.14288e-06)
(0 -0 9.72252e-07)
(0 -0 7.99334e-07)
(0 -0 6.25103e-07)
(0 -0 4.43286e-07)
(0 -0 2.51951e-07)
(0 -0 4.68599e-08)
(0 -0 -1.6877e-07)
(0 -0 -3.95573e-07)
(0 -0 -6.36209e-07)
(0 -0 -8.93924e-07)
(0 -0 -1.16251e-06)
(0 -0 -1.47326e-06)
(0 -0 -1.78041e-06)
(0 -0 -2.1758e-06)
(0 -0 -2.51582e-06)
(0 -0 -3.05887e-06)
(0 -0 -3.42154e-06)
(0 -0 -4.22126e-06)
(0 -0 -4.43484e-06)
(0 -0 -5.49091e-06)
(0 -0 -1.1435e-05)
(0 -0 2.85449e-05)
(0 -0 -0.000109518)
(0 -0 5.14767e-05)
(0 -0 1.05568e-05)
(0 -0 1.05769e-05)
(0 -0 1.05696e-05)
(0 -0 1.05381e-05)
(0 -0 1.0486e-05)
(0 -0 1.04147e-05)
(0 -0 1.03259e-05)
(0 -0 1.02223e-05)
(0 -0 1.01066e-05)
(0 -0 9.98157e-06)
(0 -0 9.84933e-06)
(0 -0 9.71114e-06)
(0 -0 9.56695e-06)
(0 -0 9.41658e-06)
(0 -0 9.26024e-06)
(0 -0 9.09885e-06)
(0 -0 8.93313e-06)
(0 -0 8.76369e-06)
(0 -0 8.59183e-06)
(0 -0 8.4186e-06)
(0 -0 8.24551e-06)
(0 -0 8.07265e-06)
(0 -0 7.90078e-06)
(0 -0 7.73038e-06)
(0 -0 7.56271e-06)
(0 -0 7.39759e-06)
(0 -0 7.23415e-06)
(0 -0 7.06963e-06)
(0 -0 6.90452e-06)
(0 -0 6.73781e-06)
(0 -0 6.57147e-06)
(0 -0 6.40614e-06)
(0 -0 6.24523e-06)
(0 -0 6.08843e-06)
(0 -0 5.93604e-06)
(0 -0 5.78621e-06)
(0 -0 5.6376e-06)
(0 -0 5.48706e-06)
(0 -0 5.33737e-06)
(0 -0 5.18811e-06)
(0 -0 5.03876e-06)
(0 -0 4.88749e-06)
(0 -0 4.73731e-06)
(0 -0 4.5878e-06)
(0 -0 4.44257e-06)
(0 -0 4.29844e-06)
(0 -0 4.151e-06)
(0 -0 4.00564e-06)
(0 -0 3.85824e-06)
(0 -0 3.70974e-06)
(0 -0 3.55433e-06)
(0 -0 3.39089e-06)
(0 -0 3.2157e-06)
(0 -0 3.03197e-06)
(0 -0 2.83884e-06)
(0 -0 2.63402e-06)
(0 -0 2.41434e-06)
(0 -0 2.18617e-06)
(0 -0 1.92062e-06)
(0 -0 1.66137e-06)
(0 -0 1.32048e-06)
(0 -0 1.03829e-06)
(0 -0 5.63723e-07)
(0 -0 2.75033e-07)
(0 -0 -4.33551e-07)
(0 -0 -5.69843e-07)
(0 -0 -1.56916e-06)
(0 -0 -6.21099e-06)
(0 -0 2.58666e-05)
(0 -0 -8.48605e-05)
(0 -0 4.05123e-05)
(0 -0 1.19372e-05)
(0 -0 1.19542e-05)
(0 -0 1.19464e-05)
(0 -0 1.19173e-05)
(0 -0 1.18704e-05)
(0 -0 1.1807e-05)
(0 -0 1.17288e-05)
(0 -0 1.1638e-05)
(0 -0 1.15374e-05)
(0 -0 1.14292e-05)
(0 -0 1.13153e-05)
(0 -0 1.11966e-05)
(0 -0 1.1073e-05)
(0 -0 1.09442e-05)
(0 -0 1.08108e-05)
(0 -0 1.06735e-05)
(0 -0 1.05329e-05)
(0 -0 1.03896e-05)
(0 -0 1.02445e-05)
(0 -0 1.00985e-05)
(0 -0 9.9527e-06)
(0 -0 9.80731e-06)
(0 -0 9.66281e-06)
(0 -0 9.51985e-06)
(0 -0 9.37946e-06)
(0 -0 9.24158e-06)
(0 -0 9.10535e-06)
(0 -0 8.96845e-06)
(0 -0 8.83111e-06)
(0 -0 8.69265e-06)
(0 -0 8.55465e-06)
(0 -0 8.41776e-06)
(0 -0 8.28459e-06)
(0 -0 8.15483e-06)
(0 -0 8.02893e-06)
(0 -0 7.90523e-06)
(0 -0 7.78256e-06)
(0 -0 7.65846e-06)
(0 -0 7.53493e-06)
(0 -0 7.4118e-06)
(0 -0 7.2887e-06)
(0 -0 7.16422e-06)
(0 -0 7.04079e-06)
(0 -0 6.91771e-06)
(0 -0 6.79824e-06)
(0 -0 6.6799e-06)
(0 -0 6.55905e-06)
(0 -0 6.43996e-06)
(0 -0 6.31907e-06)
(0 -0 6.19732e-06)
(0 -0 6.06956e-06)
(0 -0 5.93535e-06)
(0 -0 5.79155e-06)
(0 -0 5.64112e-06)
(0 -0 5.48302e-06)
(0 -0 5.31556e-06)
(0 -0 5.13548e-06)
(0 -0 4.94944e-06)
(0 -0 4.73084e-06)
(0 -0 4.52152e-06)
(0 -0 4.23746e-06)
(0 -0 4.01539e-06)
(0 -0 3.61266e-06)
(0 -0 3.39964e-06)
(0 -0 2.78779e-06)
(0 -0 2.72834e-06)
(0 -0 1.79622e-06)
(0 -0 -1.51888e-06)
(0 -0 2.24564e-05)
(0 -0 -6.02277e-05)
(0 -0 2.86308e-05)
(0 -0 1.24321e-05)
(0 -0 1.2451e-05)
(0 -0 1.24474e-05)
(0 -0 1.24246e-05)
(0 -0 1.23865e-05)
(0 -0 1.23343e-05)
(0 -0 1.22694e-05)
(0 -0 1.2194e-05)
(0 -0 1.21105e-05)
(0 -0 1.2021e-05)
(0 -0 1.19269e-05)
(0 -0 1.18289e-05)
(0 -0 1.17268e-05)
(0 -0 1.16206e-05)
(0 -0 1.15107e-05)
(0 -0 1.13981e-05)
(0 -0 1.12831e-05)
(0 -0 1.11661e-05)
(0 -0 1.10477e-05)
(0 -0 1.09288e-05)
(0 -0 1.08102e-05)
(0 -0 1.06921e-05)
(0 -0 1.05747e-05)
(0 -0 1.04589e-05)
(0 -0 1.03453e-05)
(0 -0 1.0234e-05)
(0 -0 1.01243e-05)
(0 -0 1.00143e-05)
(0 -0 9.90395e-06)
(0 -0 9.79298e-06)
(0 -0 9.68252e-06)
(0 -0 9.5732e-06)
(0 -0 9.46687e-06)
(0 -0 9.36325e-06)
(0 -0 9.2629e-06)
(0 -0 9.16444e-06)
(0 -0 9.06682e-06)
(0 -0 8.96818e-06)
(0 -0 8.8699e-06)
(0 -0 8.77198e-06)
(0 -0 8.67425e-06)
(0 -0 8.57552e-06)
(0 -0 8.47782e-06)
(0 -0 8.38015e-06)
(0 -0 8.28548e-06)
(0 -0 8.19196e-06)
(0 -0 8.09663e-06)
(0 -0 8.0027e-06)
(0 -0 7.90718e-06)
(0 -0 7.81103e-06)
(0 -0 7.70989e-06)
(0 -0 7.60385e-06)
(0 -0 7.49029e-06)
(0 -0 7.37182e-06)
(0 -0 7.24727e-06)
(0 -0 7.11563e-06)
(0 -0 6.97345e-06)
(0 -0 6.82781e-06)
(0 -0 6.65409e-06)
(0 -0 6.49268e-06)
(0 -0 6.26298e-06)
(0 -0 6.09855e-06)
(0 -0 5.76475e-06)
(0 -0 5.62355e-06)
(0 -0 5.10527e-06)
(0 -0 5.11688e-06)
(0 -0 4.2554e-06)
(0 -0 2.18658e-06)
(0 -0 1.85071e-05)
(0 -0 -3.76618e-05)
(0 -0 1.66271e-05)
(0 -0 1.20432e-05)
(0 -0 1.20681e-05)
(0 -0 1.20724e-05)
(0 -0 1.20592e-05)
(0 -0 1.20325e-05)
(0 -0 1.19934e-05)
(0 -0 1.19433e-05)
(0 -0 1.18843e-05)
(0 -0 1.18185e-05)
(0 -0 1.17479e-05)
(0 -0 1.16735e-05)
(0 -0 1.15958e-05)
(0 -0 1.15146e-05)
(0 -0 1.143e-05)
(0 -0 1.13427e-05)
(0 -0 1.12535e-05)
(0 -0 1.11627e-05)
(0 -0 1.10703e-05)
(0 -0 1.0977e-05)
(0 -0 1.08832e-05)
(0 -0 1.07898e-05)
(0 -0 1.06968e-05)
(0 -0 1.06045e-05)
(0 -0 1.05136e-05)
(0 -0 1.04246e-05)
(0 -0 1.03376e-05)
(0 -0 1.0252e-05)
(0 -0 1.01663e-05)
(0 -0 1.00806e-05)
(0 -0 9.99455e-06)
(0 -0 9.90907e-06)
(0 -0 9.82467e-06)
(0 -0 9.74257e-06)
(0 -0 9.66253e-06)
(0 -0 9.58521e-06)
(0 -0 9.50952e-06)
(0 -0 9.43448e-06)
(0 -0 9.35872e-06)
(0 -0 9.28318e-06)
(0 -0 9.20799e-06)
(0 -0 9.13316e-06)
(0 -0 9.05756e-06)
(0 -0 8.98295e-06)
(0 -0 8.9081e-06)
(0 -0 8.83573e-06)
(0 -0 8.76453e-06)
(0 -0 8.69205e-06)
(0 -0 8.62063e-06)
(0 -0 8.54779e-06)
(0 -0 8.47453e-06)
(0 -0 8.39732e-06)
(0 -0 8.3166e-06)
(0 -0 8.23025e-06)
(0 -0 8.14041e-06)
(0 -0 8.04583e-06)
(0 -0 7.94622e-06)
(0 -0 7.83793e-06)
(0 -0 7.72844e-06)
(0 -0 7.59481e-06)
(0 -0 7.47631e-06)
(0 -0 7.29513e-06)
(0 -0 7.18236e-06)
(0 -0 6.9101e-06)
(0 -0 6.83285e-06)
(0 -0 6.39865e-06)
(0 -0 6.47195e-06)
(0 -0 5.67904e-06)
(0 -0 4.70196e-06)
(0 -0 1.42752e-05)
(0 -0 -1.8491e-05)
(0 -0 5.17286e-06)
(0 -0 1.09284e-05)
(0 -0 1.09626e-05)
(0 -0 1.09771e-05)
(0 -0 1.09752e-05)
(0 -0 1.09611e-05)
(0 -0 1.09357e-05)
(0 -0 1.09006e-05)
(0 -0 1.08576e-05)
(0 -0 1.08088e-05)
(0 -0 1.07559e-05)
(0 -0 1.06998e-05)
(0 -0 1.06406e-05)
(0 -0 1.05783e-05)
(0 -0 1.05132e-05)
(0 -0 1.04462e-05)
(0 -0 1.03779e-05)
(0 -0 1.03084e-05)
(0 -0 1.02377e-05)
(0 -0 1.01663e-05)
(0 -0 1.00945e-05)
(0 -0 1.0023e-05)
(0 -0 9.95195e-06)
(0 -0 9.88137e-06)
(0 -0 9.81202e-06)
(0 -0 9.74419e-06)
(0 -0 9.6781e-06)
(0 -0 9.61313e-06)
(0 -0 9.54829e-06)
(0 -0 9.48347e-06)
(0 -0 9.41878e-06)
(0 -0 9.3546e-06)
(0 -0 9.29139e-06)
(0 -0 9.22987e-06)
(0 -0 9.16989e-06)
(0 -0 9.11212e-06)
(0 -0 9.05575e-06)
(0 -0 8.99986e-06)
(0 -0 8.94348e-06)
(0 -0 8.88723e-06)
(0 -0 8.83135e-06)
(0 -0 8.77596e-06)
(0 -0 8.71996e-06)
(0 -0 8.66484e-06)
(0 -0 8.6093e-06)
(0 -0 8.55581e-06)
(0 -0 8.50353e-06)
(0 -0 8.45031e-06)
(0 -0 8.39786e-06)
(0 -0 8.34412e-06)
(0 -0 8.29016e-06)
(0 -0 8.2332e-06)
(0 -0 8.17394e-06)
(0 -0 8.11062e-06)
(0 -0 8.04492e-06)
(0 -0 7.97559e-06)
(0 -0 7.90292e-06)
(0 -0 7.82316e-06)
(0 -0 7.74416e-06)
(0 -0 7.64427e-06)
(0 -0 7.56198e-06)
(0 -0 7.42153e-06)
(0 -0 7.35242e-06)
(0 -0 7.13182e-06)
(0 -0 7.10842e-06)
(0 -0 6.74513e-06)
(0 -0 6.86895e-06)
(0 -0 6.13877e-06)
(0 -0 6.05921e-06)
(0 -0 1.00433e-05)
(0 -0 -3.29265e-06)
(0 -0 -5.23528e-06)
(0 -0 9.3385e-06)
(0 -0 9.38335e-06)
(0 -0 9.40914e-06)
(0 -0 9.41903e-06)
(0 -0 9.41734e-06)
(0 -0 9.40517e-06)
(0 -0 9.38391e-06)
(0 -0 9.35549e-06)
(0 -0 9.32186e-06)
(0 -0 9.28455e-06)
(0 -0 9.24424e-06)
(0 -0 9.20103e-06)
(0 -0 9.15488e-06)
(0 -0 9.10642e-06)
(0 -0 9.05651e-06)
(0 -0 9.00575e-06)
(0 -0 8.95412e-06)
(0 -0 8.90144e-06)
(0 -0 8.84807e-06)
(0 -0 8.7944e-06)
(0 -0 8.74089e-06)
(0 -0 8.68787e-06)
(0 -0 8.63512e-06)
(0 -0 8.58341e-06)
(0 -0 8.53285e-06)
(0 -0 8.48369e-06)
(0 -0 8.43542e-06)
(0 -0 8.38744e-06)
(0 -0 8.33954e-06)
(0 -0 8.29205e-06)
(0 -0 8.24504e-06)
(0 -0 8.19889e-06)
(0 -0 8.15391e-06)
(0 -0 8.11005e-06)
(0 -0 8.06799e-06)
(0 -0 8.02713e-06)
(0 -0 7.9866e-06)
(0 -0 7.94575e-06)
(0 -0 7.90501e-06)
(0 -0 7.86467e-06)
(0 -0 7.82494e-06)
(0 -0 7.78465e-06)
(0 -0 7.7451e-06)
(0 -0 7.70504e-06)
(0 -0 7.66671e-06)
(0 -0 7.6296e-06)
(0 -0 7.59178e-06)
(0 -0 7.55446e-06)
(0 -0 7.51596e-06)
(0 -0 7.47742e-06)
(0 -0 7.43671e-06)
(0 -0 7.39468e-06)
(0 -0 7.34983e-06)
(0 -0 7.3034e-06)
(0 -0 7.25418e-06)
(0 -0 7.20298e-06)
(0 -0 7.14597e-06)
(0 -0 7.09133e-06)
(0 -0 7.01835e-06)
(0 -0 6.96503e-06)
(0 -0 6.85696e-06)
(0 -0 6.82284e-06)
(0 -0 6.64324e-06)
(0 -0 6.66295e-06)
(0 -0 6.35618e-06)
(0 -0 6.51918e-06)
(0 -0 5.84381e-06)
(0 -0 6.45888e-06)
(0 -0 6.07265e-06)
(0 -0 7.98991e-06)
(0 -0 -1.43004e-05)
(0 -0 7.54398e-06)
(0 -0 7.59976e-06)
(0 -0 7.63659e-06)
(0 -0 7.65763e-06)
(0 -0 7.66735e-06)
(0 -0 7.66688e-06)
(0 -0 7.65765e-06)
(0 -0 7.64163e-06)
(0 -0 7.62072e-06)
(0 -0 7.59632e-06)
(0 -0 7.56897e-06)
(0 -0 7.53869e-06)
(0 -0 7.50561e-06)
(0 -0 7.47052e-06)
(0 -0 7.43431e-06)
(0 -0 7.39748e-06)
(0 -0 7.35992e-06)
(0 -0 7.32138e-06)
(0 -0 7.28219e-06)
(0 -0 7.24269e-06)
(0 -0 7.20325e-06)
(0 -0 7.16426e-06)
(0 -0 7.12537e-06)
(0 -0 7.08734e-06)
(0 -0 7.05009e-06)
(0 -0 7.01396e-06)
(0 -0 6.97852e-06)
(0 -0 6.94347e-06)
(0 -0 6.90852e-06)
(0 -0 6.8742e-06)
(0 -0 6.84028e-06)
(0 -0 6.80715e-06)
(0 -0 6.77478e-06)
(0 -0 6.74324e-06)
(0 -0 6.71315e-06)
(0 -0 6.68412e-06)
(0 -0 6.65527e-06)
(0 -0 6.62625e-06)
(0 -0 6.59737e-06)
(0 -0 6.56894e-06)
(0 -0 6.54118e-06)
(0 -0 6.51285e-06)
(0 -0 6.48511e-06)
(0 -0 6.45687e-06)
(0 -0 6.43008e-06)
(0 -0 6.40457e-06)
(0 -0 6.37843e-06)
(0 -0 6.35258e-06)
(0 -0 6.32565e-06)
(0 -0 6.29884e-06)
(0 -0 6.27056e-06)
(0 -0 6.24168e-06)
(0 -0 6.21093e-06)
(0 -0 6.17911e-06)
(0 -0 6.14511e-06)
(0 -0 6.11017e-06)
(0 -0 6.07042e-06)
(0 -0 6.0343e-06)
(0 -0 5.98173e-06)
(0 -0 5.95047e-06)
(0 -0 5.86686e-06)
(0 -0 5.85951e-06)
(0 -0 5.71076e-06)
(0 -0 5.76345e-06)
(0 -0 5.49943e-06)
(0 -0 5.69122e-06)
(0 -0 5.06202e-06)
(0 -0 6.18377e-06)
(0 -0 2.56279e-06)
(0 -0 1.58461e-05)
(0 -0 -2.19175e-05)
(0 -0 5.77761e-06)
(0 -0 5.8436e-06)
(0 -0 5.89045e-06)
(0 -0 5.9213e-06)
(0 -0 5.9408e-06)
(0 -0 5.95011e-06)
(0 -0 5.95071e-06)
(0 -0 5.94465e-06)
(0 -0 5.93382e-06)
(0 -0 5.91952e-06)
(0 -0 5.9022e-06)
(0 -0 5.88188e-06)
(0 -0 5.85883e-06)
(0 -0 5.83395e-06)
(0 -0 5.80815e-06)
(0 -0 5.78177e-06)
(0 -0 5.75469e-06)
(0 -0 5.72668e-06)
(0 -0 5.69803e-06)
(0 -0 5.6691e-06)
(0 -0 5.64009e-06)
(0 -0 5.6115e-06)
(0 -0 5.58284e-06)
(0 -0 5.55486e-06)
(0 -0 5.52737e-06)
(0 -0 5.50075e-06)
(0 -0 5.47465e-06)
(0 -0 5.44901e-06)
(0 -0 5.42346e-06)
(0 -0 5.39869e-06)
(0 -0 5.37426e-06)
(0 -0 5.35056e-06)
(0 -0 5.32732e-06)
(0 -0 5.30472e-06)
(0 -0 5.28332e-06)
(0 -0 5.26285e-06)
(0 -0 5.24244e-06)
(0 -0 5.22199e-06)
(0 -0 5.20177e-06)
(0 -0 5.18204e-06)
(0 -0 5.16299e-06)
(0 -0 5.14336e-06)
(0 -0 5.1241e-06)
(0 -0 5.10447e-06)
(0 -0 5.08609e-06)
(0 -0 5.06902e-06)
(0 -0 5.05133e-06)
(0 -0 5.03377e-06)
(0 -0 5.01523e-06)
(0 -0 4.99695e-06)
(0 -0 4.97774e-06)
(0 -0 4.95843e-06)
(0 -0 4.93796e-06)
(0 -0 4.91669e-06)
(0 -0 4.89366e-06)
(0 -0 4.87043e-06)
(0 -0 4.84318e-06)
(0 -0 4.8205e-06)
(0 -0 4.78271e-06)
(0 -0 4.76751e-06)
(0 -0 4.7015e-06)
(0 -0 4.71376e-06)
(0 -0 4.58707e-06)
(0 -0 4.664e-06)
(0 -0 4.43067e-06)
(0 -0 4.64259e-06)
(0 -0 4.05111e-06)
(0 -0 5.52081e-06)
(0 -0 -3.70659e-07)
(0 -0 2.09822e-05)
(0 -0 -2.81413e-05)
(0 -0 4.20191e-06)
(0 -0 4.27689e-06)
(0 -0 4.33231e-06)
(0 -0 4.37136e-06)
(0 -0 4.39882e-06)
(0 -0 4.41588e-06)
(0 -0 4.42412e-06)
(0 -0 4.42564e-06)
(0 -0 4.42239e-06)
(0 -0 4.41561e-06)
(0 -0 4.40565e-06)
(0 -0 4.39261e-06)
(0 -0 4.37689e-06)
(0 -0 4.35944e-06)
(0 -0 4.34112e-06)
(0 -0 4.32216e-06)
(0 -0 4.30247e-06)
(0 -0 4.28186e-06)
(0 -0 4.26068e-06)
(0 -0 4.23922e-06)
(0 -0 4.21761e-06)
(0 -0 4.19633e-06)
(0 -0 4.17485e-06)
(0 -0 4.15387e-06)
(0 -0 4.13314e-06)
(0 -0 4.1131e-06)
(0 -0 4.09345e-06)
(0 -0 4.07431e-06)
(0 -0 4.05523e-06)
(0 -0 4.03701e-06)
(0 -0 4.0191e-06)
(0 -0 4.00189e-06)
(0 -0 3.98492e-06)
(0 -0 3.96849e-06)
(0 -0 3.95307e-06)
(0 -0 3.93848e-06)
(0 -0 3.92387e-06)
(0 -0 3.90935e-06)
(0 -0 3.89517e-06)
(0 -0 3.88153e-06)
(0 -0 3.8685e-06)
(0 -0 3.85486e-06)
(0 -0 3.84142e-06)
(0 -0 3.82779e-06)
(0 -0 3.81524e-06)
(0 -0 3.80404e-06)
(0 -0 3.79222e-06)
(0 -0 3.78038e-06)
(0 -0 3.76764e-06)
(0 -0 3.75532e-06)
(0 -0 3.74245e-06)
(0 -0 3.7298e-06)
(0 -0 3.71649e-06)
(0 -0 3.70247e-06)
(0 -0 3.68697e-06)
(0 -0 3.6718e-06)
(0 -0 3.65322e-06)
(0 -0 3.63987e-06)
(0 -0 3.61229e-06)
(0 -0 3.60831e-06)
(0 -0 3.55436e-06)
(0 -0 3.58046e-06)
(0 -0 3.46873e-06)
(0 -0 3.5629e-06)
(0 -0 3.35047e-06)
(0 -0 3.57582e-06)
(0 -0 3.0143e-06)
(0 -0 4.70833e-06)
(0 -0 -2.69708e-06)
(0 -0 2.41416e-05)
(0 -0 -3.31378e-05)
(0 -0 2.90257e-06)
(0 -0 2.98516e-06)
(0 -0 3.04765e-06)
(0 -0 3.09331e-06)
(0 -0 3.12704e-06)
(0 -0 3.15003e-06)
(0 -0 3.16393e-06)
(0 -0 3.17098e-06)
(0 -0 3.17316e-06)
(0 -0 3.17167e-06)
(0 -0 3.16686e-06)
(0 -0 3.15889e-06)
(0 -0 3.14828e-06)
(0 -0 3.13598e-06)
(0 -0 3.12276e-06)
(0 -0 3.10874e-06)
(0 -0 3.09393e-06)
(0 -0 3.07825e-06)
(0 -0 3.06208e-06)
(0 -0 3.04567e-06)
(0 -0 3.02904e-06)
(0 -0 3.01266e-06)
(0 -0 2.99595e-06)
(0 -0 2.97957e-06)
(0 -0 2.96326e-06)
(0 -0 2.94751e-06)
(0 -0 2.93205e-06)
(0 -0 2.91716e-06)
(0 -0 2.90226e-06)
(0 -0 2.88829e-06)
(0 -0 2.87459e-06)
(0 -0 2.8616e-06)
(0 -0 2.84872e-06)
(0 -0 2.83632e-06)
(0 -0 2.82481e-06)
(0 -0 2.81404e-06)
(0 -0 2.80321e-06)
(0 -0 2.79258e-06)
(0 -0 2.78244e-06)
(0 -0 2.77286e-06)
(0 -0 2.76377e-06)
(0 -0 2.75407e-06)
(0 -0 2.74441e-06)
(0 -0 2.73479e-06)
(0 -0 2.72611e-06)
(0 -0 2.71881e-06)
(0 -0 2.7109e-06)
(0 -0 2.70283e-06)
(0 -0 2.69397e-06)
(0 -0 2.68566e-06)
(0 -0 2.67703e-06)
(0 -0 2.66879e-06)
(0 -0 2.66027e-06)
(0 -0 2.651e-06)
(0 -0 2.6404e-06)
(0 -0 2.63054e-06)
(0 -0 2.61773e-06)
(0 -0 2.61058e-06)
(0 -0 2.58973e-06)
(0 -0 2.59331e-06)
(0 -0 2.54722e-06)
(0 -0 2.58281e-06)
(0 -0 2.48058e-06)
(0 -0 2.58679e-06)
(0 -0 2.38769e-06)
(0 -0 2.62171e-06)
(0 -0 2.08332e-06)
(0 -0 3.91258e-06)
(0 -0 -4.45543e-06)
(0 -0 2.59875e-05)
(0 -0 -3.71349e-05)
(0 -0 1.90029e-06)
(0 -0 1.98921e-06)
(0 -0 2.05746e-06)
(0 -0 2.10837e-06)
(0 -0 2.14697e-06)
(0 -0 2.17441e-06)
(0 -0 2.19239e-06)
(0 -0 2.2033e-06)
(0 -0 2.20918e-06)
(0 -0 2.21123e-06)
(0 -0 2.20981e-06)
(0 -0 2.20519e-06)
(0 -0 2.198e-06)
(0 -0 2.1891e-06)
(0 -0 2.17915e-06)
(0 -0 2.16821e-06)
(0 -0 2.15641e-06)
(0 -0 2.14378e-06)