/*--------------------------------*- C++ -*----------------------------------*\
| =========                 |                                                 |
| \\      /  F ield         | OpenFOAM: The Open Source CFD Toolbox           |
|  \\    /   O peration     | Version:  2412                                  |
|   \\  /    A nd           | Website:  www.openfoam.com                      |
|    \\/     M anipulation  |                                                 |
\*---------------------------------------------------------------------------*/
FoamFile
{
    version     2.0;
    format      ascii;
    arch        "LSB;label=32;scalar=64";
    class       volVectorField;
    location    "18";
    object      U;
}
// * * * * * * * * * * * * * * * * * * * * * * * * * * * * * * * * * * * * * //

dimensions      [0 1 -1 0 0 0 0];

internalField   nonuniform List<vector> 
5285
(
(0.0985282 0.00402746 0)
(0.0985354 0.00415481 0)
(0.0985455 0.00428662 0)
(0.098559 0.00442299 0)
(0.098576 0.00456403 0)
(0.0985969 0.00470982 0)
(0.098622 0.00486047 0)
(0.0986518 0.00501604 0)
(0.0986866 0.00517661 0)
(0.0987267 0.00534222 0)
(0.0987728 0.00551292 0)
(0.0988252 0.00568872 0)
(0.0988844 0.00586961 0)
(0.098951 0.00605555 0)
(0.0990255 0.00624644 0)
(0.0991086 0.00644217 0)
(0.0986518 0.00401953 0)
(0.0986632 0.00414395 0)
(0.0986777 0.00427256 0)
(0.0986955 0.00440545 0)
(0.0987171 0.0045427 0)
(0.0987426 0.00468438 0)
(0.0987725 0.00483056 0)
(0.098807 0.0049813 0)
(0.0988466 0.00513663 0)
(0.0988916 0.00529659 0)
(0.0989425 0.00546118 0)
(0.0989997 0.00563039 0)
(0.0990637 0.00580418 0)
(0.0991351 0.00598249 0)
(0.0992143 0.00616519 0)
(0.0993019 0.00635214 0)
(0.0987724 0.00400752 0)
(0.0987878 0.00412892 0)
(0.0988064 0.00425424 0)
(0.0988284 0.00438356 0)
(0.0988542 0.00451695 0)
(0.098884 0.00465445 0)
(0.0989182 0.00479611 0)
(0.0989571 0.00494197 0)
(0.0990011 0.00509204 0)
(0.0990505 0.00524633 0)
(0.0991058 0.00540482 0)
(0.0991674 0.00556748 0)
(0.0992357 0.00573424 0)
(0.0993112 0.00590501 0)
(0.0993945 0.00607965 0)
(0.0994861 0.00625797 0)
(0.0988901 0.00399167 0)
(0.0989093 0.00410996 0)
(0.0989317 0.00423193 0)
(0.0989576 0.00435763 0)
(0.0989873 0.0044871 0)
(0.0990211 0.00462038 0)
(0.0990593 0.00475749 0)
(0.0991022 0.00489845 0)
(0.0991501 0.00504326 0)
(0.0992035 0.00519189 0)
(0.0992628 0.00534432 0)
(0.0993283 0.00550049 0)
(0.0994004 0.0056603 0)
(0.0994797 0.00582365 0)
(0.0995665 0.00599037 0)
(0.0996615 0.00616026 0)
(0.0990048 0.00397221 0)
(0.0990274 0.00408735 0)
(0.0990534 0.00420591 0)
(0.0990829 0.00432794 0)
(0.0991163 0.00445346 0)
(0.0991537 0.00458249 0)
(0.0991955 0.00471504 0)
(0.0992421 0.0048511 0)
(0.0992937 0.00499066 0)
(0.0993507 0.00513368 0)
(0.0994135 0.00528011 0)
(0.0994825 0.00542986 0)
(0.099558 0.00558283 0)
(0.0996405 0.0057389 0)
(0.0997304 0.00589787 0)
(0.0998283 0.00605953 0)
(0.0991164 0.00394939 0)
(0.0991423 0.00406133 0)
(0.0991716 0.00417645 0)
(0.0992044 0.00429477 0)
(0.0992411 0.00441632 0)
(0.0992819 0.00454109 0)
(0.0993271 0.00466909 0)
(0.099377 0.00480027 0)
(0.0994319 0.00493462 0)
(0.0994922 0.00507208 0)
(0.0995581 0.00521258 0)
(0.0996301 0.00535602 0)
(0.0997086 0.00550228 0)
(0.0997939 0.00565122 0)
(0.0998865 0.00580263 0)
(0.0999867 0.00595629 0)
(0.0992248 0.00392344 0)
(0.0992538 0.00403214 0)
(0.0992862 0.00414379 0)
(0.0993221 0.0042584 0)
(0.0993619 0.00437598 0)
(0.0994057 0.0044965 0)
(0.099454 0.00461996 0)
(0.0995069 0.00474631 0)
(0.0995647 0.0048755 0)
(0.0996279 0.00500747 0)
(0.0996966 0.00514213 0)
(0.0997713 0.00527938 0)
(0.0998524 0.00541907 0)
(0.09994 0.00556105 0)
(0.100035 0.00570511 0)
(0.100137 0.005851 0)
(0.0993302 0.00389456 0)
(0.099362 0.00400001 0)
(0.0993972 0.00410819 0)
(0.0994359 0.00421909 0)
(0.0994785 0.0043327 0)
(0.0995251 0.004449 0)
(0.0995761 0.00456795 0)
(0.0996317 0.00468951 0)
(0.0996923 0.00481362 0)
(0.099758 0.00494018 0)
(0.0998292 0.00506912 0)
(0.0999062 0.0052003 0)
(0.0999894 0.00533358 0)
(0.100079 0.00546878 0)
(0.100176 0.0056057 0)
(0.100279 0.00574407 0)
(0.0994324 0.00386298 0)
(0.0994668 0.00396518 0)
(0.0995046 0.00406988 0)
(0.0995459 0.00417708 0)
(0.0995911 0.00428675 0)
(0.0996402 0.00439886 0)
(0.0996937 0.00451336 0)
(0.0997517 0.0046302 0)
(0.0998146 0.00474929 0)
(0.0998825 0.00487056 0)
(0.0999559 0.00499388 0)
(0.100035 0.00511914 0)
(0.10012 0.00524617 0)
(0.100211 0.00537479 0)
(0.100309 0.00550479 0)
(0.100414 0.00563589 0)
(0.0995315 0.00382891 0)
(0.0995683 0.00392786 0)
(0.0996085 0.0040291 0)
(0.0996522 0.00413262 0)
(0.0996996 0.00423838 0)
(0.0997511 0.00434635 0)
(0.0998068 0.00445646 0)
(0.0998669 0.00456864 0)
(0.0999318 0.00468282 0)
(0.100002 0.00479889 0)
(0.100077 0.00491673 0)
(0.100158 0.00503622 0)
(0.100244 0.00515717 0)
(0.100337 0.00527942 0)
(0.100436 0.00540272 0)
(0.100542 0.00552681 0)
(0.0996275 0.00379255 0)
(0.0996665 0.00388826 0)
(0.0997088 0.00398606 0)
(0.0997546 0.00408594 0)
(0.0998042 0.00418784 0)
(0.0998577 0.00429171 0)
(0.0999154 0.0043975 0)
(0.0999774 0.00450512 0)
(0.100044 0.00461448 0)
(0.100116 0.00472547 0)
(0.100192 0.00483797 0)
(0.100275 0.00495184 0)
(0.100362 0.0050669 0)
(0.100456 0.00518297 0)
(0.100556 0.00529981 0)
(0.100662 0.00541716 0)
(0.0997205 0.00375408 0)
(0.0997614 0.00384658 0)
(0.0998057 0.00394098 0)
(0.0998535 0.00403725 0)
(0.0999049 0.00413534 0)
(0.0999602 0.00423519 0)
(0.10002 0.00433673 0)
(0.100083 0.00443988 0)
(0.100152 0.00454453 0)
(0.100225 0.00465057 0)
(0.100303 0.00475787 0)
(0.100386 0.00486629 0)
(0.100475 0.00497565 0)
(0.100569 0.00508575 0)
(0.10067 0.00519636 0)
(0.100776 0.00530721 0)
(0.0998104 0.0037137 0)
(0.0998532 0.00380301 0)
(0.0998992 0.00389405 0)
(0.0999487 0.00398677 0)
(0.100002 0.00408111 0)
(0.100059 0.00417701 0)
(0.10012 0.00427439 0)
(0.100185 0.00437316 0)
(0.100254 0.00447321 0)
(0.100328 0.00457444 0)
(0.100408 0.00467669 0)
(0.100492 0.00477982 0)
(0.100581 0.00488366 0)
(0.100676 0.00498801 0)
(0.100777 0.00509262 0)
(0.100884 0.00519725 0)
(0.0998973 0.00367158 0)
(0.0999418 0.00375775 0)
(0.0999894 0.00384547 0)
(0.10004 0.00393469 0)
(0.100095 0.00402535 0)
(0.100153 0.00411737 0)
(0.100215 0.00421068 0)
(0.100282 0.00430518 0)
(0.100352 0.00440076 0)
(0.100428 0.0044973 0)
(0.100508 0.00459466 0)
(0.100592 0.00469268 0)
(0.100682 0.00479119 0)
(0.100778 0.00488999 0)
(0.100878 0.00498885 0)
(0.100985 0.0050875 0)
(0.0999814 0.0036279 0)
(0.100027 0.00371096 0)
(0.100076 0.00379541 0)
(0.100129 0.0038812 0)
(0.100185 0.00396825 0)
(0.100244 0.00405649 0)
(0.100307 0.00414582 0)
(0.100375 0.00423616 0)
(0.100446 0.00432739 0)
(0.100522 0.00441939 0)
(0.100603 0.004512 0)
(0.100688 0.00460508 0)
(0.100778 0.00469846 0)
(0.100873 0.00479192 0)
(0.100974 0.00488525 0)
(0.10108 0.00497818 0)
(0.100063 0.0035828 0)
(0.10011 0.00366281 0)
(0.10016 0.00374406 0)
(0.100214 0.00382648 0)
(0.100271 0.00390999 0)
(0.100331 0.00399453 0)
(0.100395 0.00408 0)
(0.100464 0.00416629 0)
(0.100536 0.0042533 0)
(0.100612 0.00434088 0)
(0.100693 0.00442892 0)
(0.100779 0.00451723 0)
(0.100869 0.00460566 0)
(0.100964 0.004694 0)
(0.101065 0.00478203 0)
(0.10117 0.00486949 0)
(0.100141 0.00353646 0)
(0.100189 0.00361347 0)
(0.100241 0.00369157 0)
(0.100295 0.00377069 0)
(0.100353 0.00385076 0)
(0.100415 0.00393169 0)
(0.10048 0.00401339 0)
(0.100549 0.00409575 0)
(0.100621 0.00417866 0)
(0.100698 0.00426199 0)
(0.100779 0.00434559 0)
(0.100865 0.00442932 0)
(0.100955 0.00451299 0)
(0.10105 0.00459641 0)
(0.10115 0.00467937 0)
(0.101255 0.0047616 0)
(0.100217 0.003489 0)
(0.100266 0.00356308 0)
(0.100319 0.0036381 0)
(0.100374 0.003714 0)
(0.100433 0.0037907 0)
(0.100495 0.00386812 0)
(0.100561 0.00394616 0)
(0.10063 0.00402471 0)
(0.100703 0.00410365 0)
(0.10078 0.00418286 0)
(0.100861 0.0042622 0)
(0.100947 0.0043415 0)
(0.101037 0.00442061 0)
(0.101131 0.00449932 0)
(0.10123 0.00457742 0)
(0.101334 0.00465466 0)
(0.10029 0.00344059 0)
(0.10034 0.00351179 0)
(0.100394 0.0035838 0)
(0.10045 0.00365656 0)
(0.100509 0.00372998 0)
(0.100572 0.00380398 0)
(0.100638 0.00387846 0)
(0.100707 0.00395332 0)
(0.100781 0.00402843 0)
(0.100858 0.00410367 0)
(0.100939 0.00417889 0)
(0.101024 0.00425395 0)
(0.101114 0.00432867 0)
(0.101208 0.00440287 0)
(0.101306 0.00447633 0)
(0.101409 0.00454881 0)
(0.100361 0.00339133 0)
(0.100412 0.00345972 0)
(0.100466 0.0035288 0)
(0.100523 0.00359849 0)
(0.100582 0.00366873 0)
(0.100646 0.00373942 0)
(0.100712 0.00381045 0)
(0.100782 0.00388173 0)
(0.100855 0.00395314 0)
(0.100932 0.00402455 0)
(0.101013 0.00409582 0)
(0.101098 0.0041668 0)
(0.101187 0.00423732 0)
(0.10128 0.0043072 0)
(0.101377 0.00437623 0)
(0.101479 0.00444418 0)
(0.0999998 2.79104e-05 0)
(0.0999972 8.32168e-05 0)
(0.0999916 0.000137587 0)
(0.0999834 0.000190704 0)
(0.099973 0.000243629 0)
(0.0999603 0.000301257 0)
(0.0999448 0.000372566 0)
(0.0999251 0.000467207 0)
(0.0998992 0.000590187 0)
(0.0999998 2.84202e-05 0)
(0.0999973 8.47381e-05 0)
(0.0999919 0.000140098 0)
(0.099984 0.000194165 0)
(0.099974 0.000248031 0)
(0.0999618 0.00030675 0)
(0.0999467 0.000379588 0)
(0.0999275 0.000476499 0)
(0.0999021 0.000602629 0)
(0.0998687 0.000754432 0)
(0.0998261 0.000919687 0)
(0.0997747 0.00108139 0)
(0.099716 0.0012231 0)
(0.0996525 0.00133343 0)
(0.0995869 0.001408 0)
(0.0995219 0.00144907 0)
(0.0994595 0.00146351 0)
(0.0994011 0.00146022 0)
(0.0993472 0.00144805 0)
(0.0992979 0.00143437 0)
(0.0992529 0.00142445 0)
(0.0992114 0.00142152 0)
(0.099173 0.00142714 0)
(0.099137 0.00144161 0)
(0.0991029 0.00146454 0)
(0.0990703 0.00149514 0)
(0.0990387 0.00153249 0)
(0.099008 0.00157574 0)
(0.0989781 0.00162411 0)
(0.0989487 0.00167699 0)
(0.0989199 0.00173387 0)
(0.0988916 0.00179438 0)
(0.0988638 0.00185824 0)
(0.0988367 0.00192522 0)
(0.0988101 0.00199517 0)
(0.0987843 0.00206796 0)
(0.0987591 0.0021435 0)
(0.0987348 0.00222171 0)
(0.0987114 0.00230252 0)
(0.0986889 0.00238588 0)
(0.0986675 0.00247173 0)
(0.0986472 0.00256004 0)
(0.0986281 0.00265074 0)
(0.0986103 0.00274379 0)
(0.0985939 0.00283914 0)
(0.0985789 0.00293675 0)
(0.0985655 0.00303656 0)
(0.0985537 0.00313851 0)
(0.0985437 0.00324256 0)
(0.0985354 0.00334863 0)
(0.0985291 0.00345666 0)
(0.0985247 0.00356659 0)
(0.0985223 0.00367834 0)
(0.098522 0.00379183 0)
(0.0985239 0.003907 0)
(0.0999998 2.89115e-05 0)
(0.0999974 8.62047e-05 0)
(0.0999922 0.000142518 0)
(0.0999846 0.000197498 0)
(0.099975 0.000252268 0)
(0.0999632 0.000312048 0)
(0.0999487 0.000386402 0)
(0.09993 0.000485596 0)
(0.099905 0.000614916 0)
(0.0998719 0.000770663 0)
(0.0998295 0.000940186 0)
(0.0997782 0.0011059 0)
(0.0997195 0.00125085 0)
(0.0996561 0.00136328 0)
(0.0995909 0.00143873 0)
(0.0995266 0.00147956 0)
(0.0994653 0.0014929 0)
(0.0994082 0.001488 0)
(0.099356 0.00147398 0)
(0.0993086 0.00145846 0)
(0.0992657 0.00144687 0)
(0.0992266 0.00144255 0)
(0.0991907 0.00144704 0)
(0.0991572 0.00146069 0)
(0.0991257 0.00148303 0)
(0.0990956 0.00151323 0)
(0.0990667 0.00155035 0)
(0.0990387 0.00159347 0)
(0.0990114 0.00164178 0)
(0.0989847 0.00169463 0)
(0.0989586 0.00175151 0)
(0.0989331 0.001812 0)
(0.0989081 0.00187582 0)
(0.0988838 0.00194272 0)
(0.0988601 0.00201255 0)
(0.0988372 0.00208516 0)
(0.098815 0.00216045 0)
(0.0987937 0.00223835 0)
(0.0987734 0.00231876 0)
(0.0987541 0.00240164 0)
(0.0987359 0.00248693 0)
(0.0987188 0.00257456 0)
(0.0987031 0.0026645 0)
(0.0986887 0.00275667 0)
(0.0986758 0.00285104 0)
(0.0986644 0.00294754 0)
(0.0986545 0.00304612 0)
(0.0986464 0.00314672 0)
(0.0986401 0.00324927 0)
(0.0986356 0.00335371 0)
(0.098633 0.00345997 0)
(0.0986324 0.00356797 0)
(0.0986339 0.00367765 0)
(0.0986375 0.00378892 0)
(0.0986434 0.0039017 0)
(0.0999998 2.93842e-05 0)
(0.0999975 8.76161e-05 0)
(0.0999925 0.000144846 0)
(0.0999852 0.000200702 0)
(0.099976 0.000256339 0)
(0.0999647 0.000317149 0)
(0.0999507 0.000393008 0)
(0.0999325 0.000494501 0)
(0.0999079 0.000627057 0)
(0.099875 0.000786811 0)
(0.0998327 0.000960654 0)
(0.0997814 0.00113041 0)
(0.0997227 0.00127857 0)
(0.0996595 0.00139302 0)
(0.0995946 0.00146921 0)
(0.099531 0.00150964 0)
(0.0994706 0.00152171 0)
(0.099415 0.001515 0)
(0.0993645 0.00149897 0)
(0.0993191 0.00148146 0)
(0.0992784 0.00146809 0)
(0.0992417 0.00146226 0)
(0.0992082 0.00146556 0)
(0.0991773 0.00147831 0)
(0.0991484 0.00150001 0)
(0.099121 0.00152978 0)
(0.0990947 0.00156662 0)
(0.0990693 0.00160956 0)
(0.0990447 0.00165777 0)
(0.0990207 0.00171056 0)
(0.0989973 0.00176737 0)
(0.0989745 0.00182779 0)
(0.0989523 0.00189151 0)
(0.0989308 0.00195827 0)
(0.0989099 0.00202791 0)
(0.0988899 0.00210026 0)
(0.0988706 0.00217523 0)
(0.0988523 0.00225272 0)
(0.098835 0.00233266 0)
(0.0988188 0.00241496 0)
(0.0988037 0.00249958 0)
(0.0987899 0.00258645 0)
(0.0987774 0.00267552 0)
(0.0987663 0.00276672 0)
(0.0987567 0.00285999 0)
(0.0987487 0.00295528 0)
(0.0987424 0.00305252 0)
(0.0987377 0.00315165 0)
(0.0987349 0.0032526 0)
(0.098734 0.0033553 0)
(0.0987351 0.00345968 0)
(0.0987381 0.00356567 0)
(0.0987433 0.00367317 0)
(0.0987506 0.00378212 0)
(0.0987602 0.00389241 0)
(0.0999998 2.98382e-05 0)
(0.0999976 8.8972e-05 0)
(0.0999928 0.000147082 0)
(0.0999858 0.000203775 0)
(0.099977 0.000260242 0)
(0.0999661 0.000322054 0)
(0.0999527 0.000399409 0)
(0.099935 0.000503224 0)
(0.0999108 0.000639069 0)
(0.0998781 0.000802892 0)
(0.0998358 0.000981114 0)
(0.0997844 0.00115493 0)
(0.0997257 0.00130627 0)
(0.0996624 0.00142266 0)
(0.0995979 0.00149946 0)
(0.0995349 0.00153932 0)
(0.0994756 0.00154993 0)
(0.0994214 0.00154123 0)
(0.0993726 0.001523 0)
(0.0993293 0.00150335 0)
(0.0992909 0.00148807 0)
(0.0992566 0.00148063 0)
(0.0992256 0.00148267 0)
(0.0991974 0.00149446 0)
(0.0991711 0.00151547 0)
(0.0991463 0.00154477 0)
(0.0991227 0.00158129 0)
(0.0991 0.00162403 0)
(0.0990781 0.0016721 0)
(0.0990568 0.00172477 0)
(0.099036 0.00178148 0)
(0.0990159 0.00184178 0)
(0.0989965 0.00190534 0)
(0.0989777 0.0019719 0)
(0.0989596 0.00204128 0)
(0.0989423 0.00211331 0)
(0.098926 0.00218788 0)
(0.0989106 0.00226489 0)
(0.0988962 0.00234425 0)
(0.098883 0.00242591 0)
(0.098871 0.00250977 0)
(0.0988602 0.00259579 0)
(0.0988509 0.00268389 0)
(0.098843 0.00277401 0)
(0.0988366 0.0028661 0)
(0.0988319 0.00296007 0)
(0.0988289 0.00305588 0)
(0.0988276 0.00315345 0)
(0.0988282 0.0032527 0)
(0.0988307 0.00335357 0)
(0.0988352 0.00345598 0)
(0.0988417 0.00355985 0)
(0.0988504 0.00366509 0)
(0.0988612 0.00377163 0)
(0.0988743 0.00387936 0)
(0.0999998 3.02734e-05 0)
(0.0999977 9.02721e-05 0)
(0.0999931 0.000149224 0)
(0.0999864 0.000206717 0)
(0.099978 0.000263976 0)
(0.0999676 0.00032676 0)
(0.0999547 0.000405606 0)
(0.0999374 0.000511772 0)
(0.0999136 0.000650967 0)
(0.0998811 0.000818938 0)
(0.0998388 0.0010016 0)
(0.0997872 0.00117951 0)
(0.0997283 0.001334 0)
(0.0996651 0.00145223 0)
(0.0996008 0.00152949 0)
(0.0995384 0.00156858 0)
(0.0994802 0.00157753 0)
(0.0994274 0.00156664 0)
(0.0993805 0.00154604 0)
(0.0993393 0.0015241 0)
(0.0993032 0.00150678 0)
(0.0992713 0.00149764 0)
(0.099243 0.00149834 0)
(0.0992174 0.00150912 0)
(0.0991938 0.0015294 0)
(0.0991717 0.00155819 0)
(0.0991508 0.00159436 0)
(0.0991307 0.00163686 0)
(0.0991114 0.00168476 0)
(0.0990927 0.00173729 0)
(0.0990747 0.00179385 0)
(0.0990572 0.00185399 0)
(0.0990405 0.00191734 0)
(0.0990244 0.00198365 0)
(0.099009 0.0020527 0)
(0.0989945 0.00212434 0)
(0.098981 0.00219844 0)
(0.0989684 0.0022749 0)
(0.0989569 0.00235362 0)
(0.0989466 0.00243454 0)
(0.0989375 0.00251757 0)
(0.0989298 0.00260264 0)
(0.0989235 0.00268969 0)
(0.0989187 0.00277866 0)
(0.0989154 0.00286946 0)
(0.0989139 0.00296205 0)
(0.098914 0.00305633 0)
(0.098916 0.00315225 0)
(0.0989198 0.00324972 0)
(0.0989255 0.00334868 0)
(0.0989333 0.00344903 0)
(0.0989431 0.0035507 0)
(0.0989551 0.00365361 0)
(0.0989692 0.00375766 0)
(0.0989856 0.00386277 0)
(0.0999999 3.06896e-05 0)
(0.0999978 9.15161e-05 0)
(0.0999934 0.000151274 0)
(0.099987 0.000209526 0)
(0.099979 0.000267539 0)
(0.0999691 0.000331268 0)
(0.0999567 0.000411603 0)
(0.0999399 0.000520155 0)
(0.0999164 0.000662769 0)
(0.0998839 0.000834973 0)
(0.0998415 0.00102215 0)
(0.0997897 0.00120418 0)
(0.0997306 0.00136178 0)
(0.0996673 0.00148175 0)
(0.0996033 0.0015593 0)
(0.0995415 0.00159744 0)
(0.0994844 0.00160451 0)
(0.0994331 0.00159122 0)
(0.099388 0.00156806 0)
(0.099349 0.00154368 0)
(0.0993153 0.00152419 0)
(0.099286 0.00151326 0)
(0.0992603 0.00151255 0)
(0.0992373 0.00152227 0)
(0.0992164 0.00154179 0)
(0.099197 0.00157004 0)
(0.0991788 0.00160584 0)
(0.0991614 0.00164808 0)
(0.0991447 0.00169577 0)
(0.0991287 0.00174813 0)
(0.0991133 0.00180451 0)
(0.0990985 0.00186444 0)
(0.0990843 0.00192754 0)
(0.0990709 0.00199354 0)
(0.0990582 0.00206221 0)
(0.0990464 0.0021334 0)
(0.0990356 0.00220697 0)
(0.0990258 0.00228281 0)
(0.0990171 0.00236082 0)
(0.0990096 0.00244093 0)
(0.0990034 0.00252304 0)
(0.0989985 0.0026071 0)
(0.0989951 0.00269303 0)
(0.0989933 0.00278075 0)
(0.0989931 0.00287021 0)
(0.0989945 0.00296131 0)
(0.0989977 0.003054 0)
(0.0990027 0.00314819 0)
(0.0990096 0.00324381 0)
(0.0990185 0.00334077 0)
(0.0990293 0.003439 0)
(0.0990423 0.00353842 0)
(0.0990573 0.00363892 0)
(0.0990746 0.00374044 0)
(0.099094 0.00384287 0)
(0.0999999 3.10869e-05 0)
(0.0999979 9.27038e-05 0)
(0.0999937 0.00015323 0)
(0.0999876 0.000212203 0)
(0.09998 0.000270931 0)
(0.0999706 0.000335579 0)
(0.0999587 0.000417404 0)
(0.0999424 0.000528384 0)
(0.0999191 0.000674495 0)
(0.0998867 0.000851026 0)
(0.0998441 0.0010428 0)
(0.099792 0.00122896 0)
(0.0997325 0.00138963 0)
(0.0996691 0.00151124 0)
(0.0996053 0.00158891 0)
(0.0995442 0.00162587 0)
(0.0994882 0.00163084 0)
(0.0994384 0.00161495 0)
(0.0993953 0.00158904 0)
(0.0993585 0.00156204 0)
(0.0993272 0.00154027 0)
(0.0993006 0.00152746 0)
(0.0992776 0.00152527 0)
(0.0992573 0.00153389 0)
(0.0992391 0.00155261 0)
(0.0992224 0.00158031 0)
(0.0992068 0.00161572 0)
(0.0991921 0.00165767 0)
(0.0991781 0.00170515 0)
(0.0991646 0.0017573 0)
(0.0991518 0.00181348 0)
(0.0991395 0.00187316 0)
(0.099128 0.00193597 0)
(0.0991171 0.00200161 0)
(0.0991071 0.00206986 0)
(0.0990979 0.00214055 0)
(0.0990897 0.00221352 0)
(0.0990826 0.00228868 0)
(0.0990766 0.00236592 0)
(0.0990719 0.00244515 0)
(0.0990684 0.00252628 0)
(0.0990664 0.00260926 0)
(0.0990658 0.00269399 0)
(0.0990668 0.0027804 0)
(0.0990694 0.00286843 0)
(0.0990738 0.00295799 0)
(0.0990799 0.003049 0)
(0.0990878 0.0031414 0)
(0.0990976 0.0032351 0)
(0.0991094 0.00333001 0)
(0.0991232 0.00342606 0)
(0.0991391 0.00352316 0)
(0.0991571 0.00362122 0)
(0.0991772 0.00372015 0)
(0.0991995 0.00381986 0)
(0.0999999 3.14652e-05 0)
(0.099998 9.38351e-05 0)
(0.099994 0.000155091 0)
(0.0999882 0.000214745 0)
(0.099981 0.000274151 0)
(0.0999721 0.000339693 0)
(0.0999607 0.000423015 0)
(0.0999448 0.000536471 0)
(0.0999218 0.000686166 0)
(0.0998894 0.000867127 0)
(0.0998465 0.00106357 0)
(0.0997939 0.00125391 0)
(0.0997341 0.0014176 0)
(0.0996706 0.00154071 0)
(0.0996069 0.00161832 0)
(0.0995465 0.00165388 0)
(0.0994916 0.00165652 0)
(0.0994434 0.00163778 0)
(0.0994023 0.00160892 0)
(0.0993678 0.00157916 0)
(0.0993391 0.00155499 0)
(0.0993151 0.00154021 0)
(0.0992948 0.00153649 0)
(0.0992773 0.00154397 0)
(0.0992618 0.00156188 0)
(0.0992479 0.001589 0)
(0.0992349 0.00162401 0)
(0.0992228 0.00166567 0)
(0.0992114 0.00171291 0)
(0.0992005 0.00176484 0)
(0.0991902 0.00182078 0)
(0.0991805 0.00188019 0)
(0.0991715 0.00194267 0)
(0.0991631 0.00200792 0)
(0.0991556 0.0020757 0)
(0.099149 0.00214582 0)
(0.0991434 0.00221816 0)
(0.0991389 0.00229258 0)
(0.0991355 0.00236898 0)
(0.0991334 0.00244727 0)
(0.0991326 0.00252737 0)
(0.0991333 0.00260919 0)
(0.0991354 0.00269266 0)
(0.0991392 0.0027777 0)
(0.0991445 0.00286424 0)
(0.0991516 0.00295219 0)
(0.0991605 0.00304148 0)
(0.0991712 0.00313203 0)
(0.0991838 0.00322375 0)
(0.0991984 0.00331656 0)
(0.0992149 0.00341038 0)
(0.0992336 0.00350512 0)
(0.0992543 0.00360069 0)
(0.0992771 0.003697 0)
(0.0993021 0.00379395 0)
(0.0999999 3.18244e-05 0)
(0.0999981 9.491e-05 0)
(0.0999943 0.000156859 0)
(0.0999889 0.000217154 0)
(0.099982 0.000277198 0)
(0.0999736 0.000343611 0)
(0.0999627 0.000428441 0)
(0.0999472 0.000544429 0)
(0.0999244 0.000697802 0)
(0.0998919 0.000883302 0)
(0.0998487 0.0010845 0)
(0.0997957 0.00127904 0)
(0.0997354 0.00144571 0)
(0.0996717 0.00157018 0)
(0.0996083 0.00164753 0)
(0.0995485 0.00168145 0)
(0.0994948 0.0016815 0)
(0.0994483 0.0016597 0)
(0.0994092 0.00162769 0)
(0.0993771 0.00159501 0)
(0.0993509 0.00156831 0)
(0.0993296 0.00155149 0)
(0.0993121 0.00154619 0)
(0.0992974 0.0015525 0)
(0.0992847 0.00156957 0)
(0.0992734 0.00159611 0)
(0.0992631 0.00163072 0)
(0.0992536 0.00167208 0)
(0.0992447 0.00171907 0)
(0.0992363 0.00177077 0)
(0.0992285 0.00182645 0)
(0.0992213 0.00188556 0)
(0.0992147 0.00194768 0)
(0.0992089 0.0020125 0)
(0.0992039 0.00207976 0)
(0.0991998 0.00214929 0)
(0.0991966 0.00222093 0)
(0.0991946 0.00229456 0)
(0.0991938 0.00237007 0)
(0.0991942 0.00244737 0)
(0.099196 0.00252637 0)
(0.0991992 0.00260699 0)
(0.099204 0.00268915 0)
(0.0992103 0.00277276 0)
(0.0992183 0.00285775 0)
(0.099228 0.00294404 0)
(0.0992395 0.00303155 0)
(0.0992528 0.0031202 0)
(0.0992681 0.0032099 0)
(0.0992853 0.00330057 0)
(0.0993044 0.00339212 0)
(0.0993257 0.00348446 0)
(0.0993489 0.00357751 0)
(0.0993743 0.00367118 0)
(0.0994018 0.00376536 0)
(0.0999999 3.21645e-05 0)
(0.0999982 9.59283e-05 0)
(0.0999946 0.000158532 0)
(0.0999895 0.000219428 0)
(0.099983 0.000280073 0)
(0.0999751 0.000347336 0)
(0.0999647 0.000433687 0)
(0.0999496 0.000552268 0)
(0.0999269 0.000709423 0)
(0.0998943 0.000899576 0)
(0.0998507 0.00110562 0)
(0.0997972 0.00130438 0)
(0.0997365 0.00147396 0)
(0.0996725 0.00159965 0)
(0.0996093 0.00167652 0)
(0.0995503 0.00170856 0)
(0.0994978 0.00170577 0)
(0.099453 0.00168066 0)
(0.0994161 0.00164531 0)
(0.0993864 0.00160955 0)
(0.0993629 0.00158022 0)
(0.0993443 0.00156127 0)
(0.0993296 0.00155435 0)
(0.0993176 0.00155947 0)
(0.0993076 0.0015757 0)
(0.099299 0.00160166 0)
(0.0992913 0.00163586 0)
(0.0992844 0.00167692 0)
(0.099278 0.00172366 0)
(0.0992721 0.00177511 0)
(0.0992668 0.00183052 0)
(0.099262 0.00188931 0)
(0.0992578 0.00195105 0)
(0.0992544 0.0020154 0)
(0.0992518 0.00208211 0)
(0.09925 0.002151 0)
(0.0992493 0.00222191 0)
(0.0992497 0.0022947 0)
(0.0992513 0.00236928 0)
(0.0992542 0.00244554 0)
(0.0992585 0.00252339 0)
(0.0992642 0.00260275 0)
(0.0992714 0.00268354 0)
(0.0992802 0.00276568 0)
(0.0992907 0.00284908 0)
(0.0993029 0.00293366 0)
(0.0993169 0.00301935 0)
(0.0993327 0.00310605 0)
(0.0993504 0.00319369 0)
(0.0993701 0.00328218 0)
(0.0993917 0.00337143 0)
(0.0994153 0.00346136 0)
(0.099441 0.00355187 0)
(0.0994688 0.00364287 0)
(0.0994986 0.00373428 0)
(0.0999999 3.24856e-05 0)
(0.0999983 9.68902e-05 0)
(0.0999949 0.000160111 0)
(0.0999901 0.000221568 0)
(0.099984 0.000282777 0)
(0.0999766 0.000350867 0)
(0.0999667 0.000438757 0)
(0.0999519 0.000559999 0)
(0.0999294 0.000721043 0)
(0.0998966 0.000915968 0)
(0.0998526 0.00112695 0)
(0.0997986 0.00132995 0)
(0.0997374 0.00150236 0)
(0.0996732 0.00162912 0)
(0.0996102 0.0017053 0)
(0.099552 0.00173519 0)
(0.0995008 0.0017293 0)
(0.0994578 0.00170064 0)
(0.099423 0.00166175 0)
(0.0993958 0.00162275 0)
(0.099375 0.00159068 0)
(0.0993592 0.00156955 0)
(0.0993472 0.00156096 0)
(0.099338 0.00156489 0)
(0.0993308 0.00158028 0)
(0.0993248 0.00160566 0)
(0.0993198 0.00163946 0)
(0.0993153 0.00168023 0)
(0.0993114 0.00172671 0)
(0.0993079 0.00177791 0)
(0.099305 0.00183304 0)
(0.0993025 0.00189149 0)
(0.0993007 0.00195281 0)
(0.0992996 0.00201667 0)
(0.0992993 0.0020828 0)
(0.0992999 0.00215101 0)
(0.0993015 0.00222114 0)
(0.0993043 0.00229306 0)
(0.0993082 0.00236666 0)
(0.0993134 0.00244183 0)
(0.0993201 0.00251849 0)
(0.0993281 0.00259656 0)
(0.0993377 0.00267594 0)
(0.0993489 0.00275655 0)
(0.0993618 0.00283832 0)
(0.0993763 0.00292116 0)
(0.0993927 0.00300498 0)
(0.0994108 0.00308972 0)
(0.0994309 0.00317527 0)
(0.0994528 0.00326155 0)
(0.0994768 0.00334848 0)
(0.0995026 0.00343597 0)
(0.0995305 0.00352393 0)
(0.0995605 0.00361227 0)
(0.0995924 0.0037009 0)
(0.0999999 3.27876e-05 0)
(0.0999984 9.77958e-05 0)
(0.0999952 0.000161595 0)
(0.0999907 0.000223574 0)
(0.099985 0.000285308 0)
(0.0999781 0.000354208 0)
(0.0999686 0.000443657 0)
(0.0999543 0.00056763 0)
(0.0999319 0.000732674 0)
(0.0998989 0.000932491 0)
(0.0998545 0.00114849 0)
(0.0997999 0.00135574 0)
(0.0997382 0.00153092 0)
(0.0996739 0.00165858 0)
(0.0996112 0.00173382 0)
(0.0995537 0.00176131 0)
(0.0995039 0.00175205 0)
(0.0994628 0.00171961 0)
(0.0994303 0.00167698 0)
(0.0994056 0.00163461 0)
(0.0993874 0.00159969 0)
(0.0993744 0.00157631 0)
(0.0993652 0.00156604 0)
(0.0993588 0.00156875 0)
(0.0993542 0.00158331 0)
(0.0993509 0.00160813 0)
(0.0993484 0.00164155 0)
(0.0993464 0.00168202 0)
(0.0993449 0.00172826 0)
(0.0993438 0.00177921 0)
(0.0993431 0.00183404 0)
(0.099343 0.00189213 0)
(0.0993434 0.00195302 0)
(0.0993445 0.00201636 0)
(0.0993465 0.00208189 0)
(0.0993493 0.00214939 0)
(0.0993532 0.00221871 0)
(0.0993582 0.00228971 0)
(0.0993644 0.00236229 0)
(0.0993719 0.00243634 0)
(0.0993807 0.00251177 0)
(0.099391 0.0025885 0)
(0.0994029 0.00266643 0)
(0.0994163 0.00274549 0)
(0.0994314 0.00282559 0)
(0.0994482 0.00290665 0)
(0.0994668 0.00298859 0)
(0.0994872 0.00307132 0)
(0.0995094 0.00315476 0)
(0.0995335 0.00323882 0)
(0.0995596 0.00332342 0)
(0.0995875 0.00340846 0)
(0.0996175 0.00349387 0)
(0.0996494 0.00357954 0)
(0.0996834 0.0036654 0)
(0.0999999 3.30706e-05 0)
(0.0999985 9.8645e-05 0)
(0.0999955 0.000162985 0)
(0.0999913 0.000225445 0)
(0.099986 0.000287668 0)
(0.0999796 0.00035736 0)
(0.0999706 0.000448389 0)
(0.0999566 0.000575165 0)
(0.0999343 0.00074432 0)
(0.0999012 0.000949145 0)
(0.0998563 0.00117024 0)
(0.0998012 0.00138175 0)
(0.0997392 0.0015596 0)
(0.0996747 0.00168799 0)
(0.0996124 0.00176207 0)
(0.0995558 0.00178688 0)
(0.0995074 0.00177399 0)
(0.0994682 0.00173754 0)
(0.099438 0.00169097 0)
(0.0994158 0.00164509 0)
(0.0994004 0.00160724 0)
(0.0993901 0.00158157 0)
(0.0993837 0.00156959 0)
(0.09938 0.0015711 0)
(0.0993781 0.00158483 0)
(0.0993773 0.0016091 0)
(0.0993772 0.00164215 0)
(0.0993777 0.00168235 0)
(0.0993785 0.00172835 0)
(0.0993797 0.00177904 0)
(0.0993812 0.00183357 0)
(0.0993833 0.0018913 0)
(0.0993859 0.00195174 0)
(0.0993892 0.00201454 0)
(0.0993933 0.00207943 0)
(0.0993983 0.00214619 0)
(0.0994043 0.00221467 0)
(0.0994115 0.00228473 0)
(0.0994198 0.00235625 0)
(0.0994295 0.00242915 0)
(0.0994405 0.00250331 0)
(0.0994529 0.00257867 0)
(0.0994669 0.00265512 0)
(0.0994825 0.00273259 0)
(0.0994997 0.002811 0)
(0.0995186 0.00289026 0)
(0.0995393 0.00297028 0)
(0.0995617 0.00305099 0)
(0.099586 0.00313231 0)
(0.0996121 0.00321413 0)
(0.0996402 0.00329639 0)
(0.0996701 0.00337899 0)
(0.099702 0.00346184 0)
(0.0997357 0.00354486 0)
(0.0997715 0.00362796 0)
(0.0999999 3.33347e-05 0)
(0.0999986 9.94382e-05 0)
(0.0999958 0.000164281 0)
(0.0999919 0.000227182 0)
(0.099987 0.000289857 0)
(0.0999811 0.000360325 0)
(0.0999726 0.000452956 0)
(0.0999589 0.000582604 0)
(0.0999367 0.000755977 0)
(0.0999035 0.000965922 0)
(0.0998583 0.00119219 0)
(0.0998027 0.00140796 0)
(0.0997403 0.00158839 0)
(0.0996759 0.00171732 0)
(0.099614 0.00178999 0)
(0.0995585 0.00181187 0)
(0.0995116 0.00179509 0)
(0.0994743 0.0017544 0)
(0.0994464 0.00170373 0)
(0.0994268 0.0016542 0)
(0.099414 0.00161335 0)
(0.0994065 0.00158533 0)
(0.0994028 0.00157164 0)
(0.0994018 0.00157194 0)
(0.0994024 0.00158487 0)
(0.0994041 0.00160862 0)
(0.0994064 0.00164131 0)
(0.0994092 0.00168126 0)
(0.0994123 0.00172702 0)
(0.0994156 0.00177746 0)
(0.0994194 0.00183168 0)
(0.0994235 0.00188904 0)
(0.0994283 0.00194902 0)
(0.0994337 0.00201126 0)
(0.0994398 0.00207548 0)
(0.0994469 0.00214148 0)
(0.099455 0.00220909 0)
(0.0994642 0.00227817 0)
(0.0994746 0.00234862 0)
(0.0994862 0.00242033 0)
(0.0994993 0.0024932 0)
(0.0995138 0.00256715 0)
(0.0995298 0.0026421 0)
(0.0995474 0.00271796 0)
(0.0995666 0.00279465 0)
(0.0995875 0.00287208 0)
(0.0996101 0.00295018 0)
(0.0996345 0.00302886 0)
(0.0996607 0.00310804 0)
(0.0996887 0.00318762 0)
(0.0997186 0.00326754 0)
(0.0997503 0.0033477 0)
(0.0997839 0.00342801 0)
(0.0998194 0.00350839 0)
(0.0998568 0.00358876 0)
(0.0999999 3.35799e-05 0)
(0.0999987 0.000100175 0)
(0.0999961 0.000165484 0)
(0.0999925 0.000228786 0)
(0.099988 0.000291878 0)
(0.0999825 0.000363102 0)
(0.0999745 0.000457355 0)
(0.0999612 0.000589942 0)
(0.0999392 0.000767632 0)
(0.0999058 0.000982796 0)
(0.0998604 0.00121429 0)
(0.0998045 0.0014343 0)
(0.099742 0.00161721 0)
(0.0996777 0.00174651 0)
(0.0996164 0.00181755 0)
(0.0995619 0.00183623 0)
(0.0995167 0.00181533 0)
(0.0994814 0.00177018 0)
(0.0994558 0.00171524 0)
(0.0994387 0.00166195 0)
(0.0994286 0.00161802 0)
(0.0994238 0.00158763 0)
(0.0994227 0.00157222 0)
(0.0994242 0.00157133 0)
(0.0994273 0.00158348 0)
(0.0994314 0.00160672 0)
(0.0994361 0.00163909 0)
(0.099441 0.00167879 0)
(0.0994463 0.00172433 0)
(0.0994518 0.00177452 0)
(0.0994576 0.00182844 0)
(0.0994638 0.00188541 0)
(0.0994705 0.00194491 0)
(0.0994779 0.00200657 0)
(0.099486 0.00207012 0)
(0.0994951 0.00213533 0)
(0.0995051 0.00220204 0)
(0.0995163 0.00227013 0)
(0.0995286 0.00233947 0)
(0.0995423 0.00240996 0)
(0.0995572 0.00248151 0)
(0.0995737 0.00255404 0)
(0.0995916 0.00262746 0)
(0.0996111 0.00270169 0)
(0.0996322 0.00277664 0)
(0.099655 0.00285224 0)
(0.0996794 0.0029284 0)
(0.0997056 0.00300504 0)
(0.0997336 0.00308208 0)
(0.0997633 0.00315943 0)
(0.0997949 0.00323701 0)
(0.0998282 0.00331473 0)
(0.0998635 0.00339252 0)
(0.0999005 0.00347029 0)
(0.0999394 0.00354796 0)
(0.0999999 3.38063e-05 0)
(0.0999988 0.000100857 0)
(0.0999964 0.000166593 0)
(0.0999931 0.000230258 0)
(0.099989 0.00029373 0)
(0.099984 0.000365694 0)
(0.0999764 0.000461585 0)
(0.0999635 0.000597168 0)
(0.0999417 0.000779259 0)
(0.0999084 0.000999725 0)
(0.0998628 0.0012365 0)
(0.0998067 0.00146072 0)
(0.0997443 0.001646 0)
(0.0996803 0.00177549 0)
(0.0996198 0.00184467 0)
(0.0995666 0.00185992 0)
(0.0995229 0.00183466 0)
(0.0994897 0.00178487 0)
(0.0994665 0.00172551 0)
(0.0994519 0.00166836 0)