/*--------------------------------*- C++ -*----------------------------------*\
| =========                 |                                                 |
| \\      /  F ield         | OpenFOAM: The Open Source CFD Toolbox           |
|  \\    /   O peration     | Version:  2412                                  |
|   \\  /    A nd           | Website:  www.openfoam.com                      |
|    \\/     M anipulation  |                                                 |
\*---------------------------------------------------------------------------*/
FoamFile
{
    version     2.0;
    format      ascii;
    arch        "LSB;label=32;scalar=64";
    class       volScalarField;
    location    "5";
    object      p;
}
// * * * * * * * * * * * * * * * * * * * * * * * * * * * * * * * * * * * * * //

dimensions      [0 2 -2 0 0 0 0];

internalField   nonuniform List<scalar> 
63420
(
0.00112993
0.00115824
0.00113076
0.00114753
0.00114506
0.0011471
0.00115067
0.00115345
0.00115697
0.00116091
0.00116517
0.00116981
0.00117481
0.00118017
0.00118587
0.00119193
0.00119833
0.00120508
0.00121217
0.00121961
0.00122739
0.00123551
0.00124398
0.0012528
0.00126196
0.00127147
0.00128134
0.00129156
0.00130214
0.00131308
0.00132438
0.00133606
0.0013481
0.00136052
0.00137332
0.0013865
0.00140007
0.00141404
0.0014284
0.00144316
0.00145833
0.00147391
0.0014899
0.00150632
0.00152316
0.00154043
0.00155814
0.00157629
0.00159489
0.00161394
0.00163345
0.00165342
0.00167385
0.00169477
0.00171616
0.00112985
0.00115819
0.0011307
0.00114745
0.00114501
0.00114703
0.00115061
0.00115338
0.00115689
0.00116084
0.00116509
0.00116973
0.00117472
0.00118008
0.00118578
0.00119183
0.00119823
0.00120497
0.00121206
0.00121949
0.00122726
0.00123537
0.00124383
0.00125264
0.00126179
0.0012713
0.00128115
0.00129136
0.00130193
0.00131286
0.00132415
0.00133581
0.00134784
0.00136024
0.00137303
0.00138619
0.00139974
0.00141369
0.00142803
0.00144276
0.00145791
0.00147346
0.00148943
0.00150582
0.00152263
0.00153987
0.00155754
0.00157566
0.00159422
0.00161323
0.00163269
0.00165261
0.001673
0.00169386
0.0017152
0.0011297
0.0011581
0.00113058
0.00114729
0.00114489
0.00114689
0.00115047
0.00115324
0.00115675
0.00116069
0.00116493
0.00116956
0.00117455
0.00117989
0.00118559
0.00119163
0.00119802
0.00120475
0.00121182
0.00121924
0.001227
0.0012351
0.00124354
0.00125233
0.00126147
0.00127095
0.00128079
0.00129098
0.00130152
0.00131242
0.00132369
0.00133532
0.00134732
0.00135969
0.00137244
0.00138557
0.00139908
0.00141299
0.00142728
0.00144198
0.00145707
0.00147257
0.00148849
0.00150482
0.00152157
0.00153875
0.00155635
0.00157439
0.00159288
0.0016118
0.00163118
0.00165101
0.0016713
0.00169206
0.00171328
0.00112947
0.00115797
0.00113039
0.00114706
0.00114472
0.00114667
0.00115026
0.00115303
0.00115653
0.00116046
0.0011647
0.00116931
0.00117429
0.00117962
0.0011853
0.00119133
0.0011977
0.00120442
0.00121147
0.00121887
0.0012266
0.00123468
0.0012431
0.00125187
0.00126098
0.00127043
0.00128024
0.00129039
0.0013009
0.00131177
0.00132299
0.00133458
0.00134654
0.00135886
0.00137156
0.00138464
0.00139809
0.00141194
0.00142617
0.0014408
0.00145582
0.00147125
0.00148708
0.00150332
0.00151998
0.00153706
0.00155457
0.0015725
0.00159087
0.00160968
0.00162893
0.00164862
0.00166877
0.00168937
0.00171042
0.00112916
0.0011578
0.00113014
0.00114675
0.0011445
0.00114639
0.00114998
0.00115275
0.00115623
0.00116015
0.00116438
0.00116898
0.00117395
0.00117926
0.00118492
0.00119093
0.00119728
0.00120397
0.001211
0.00121837
0.00122608
0.00123413
0.00124252
0.00125125
0.00126032
0.00126974
0.0012795
0.00128962
0.00130008
0.0013109
0.00132207
0.0013336
0.0013455
0.00135776
0.00137039
0.0013834
0.00139678
0.00141054
0.00142469
0.00143923
0.00145415
0.00146948
0.00148521
0.00150134
0.00151788
0.00153483
0.0015522
0.00156999
0.00158821
0.00160686
0.00162593
0.00164545
0.0016654
0.0016858
0.00170663
0.00112876
0.00115761
0.00112982
0.00114636
0.00114422
0.00114603
0.00114964
0.0011524
0.00115587
0.00115977
0.00116398
0.00116857
0.00117351
0.00117881
0.00118445
0.00119043
0.00119675
0.00120342
0.00121042
0.00121776
0.00122543
0.00123344
0.00124179
0.00125048
0.00125951
0.00126888
0.00127859
0.00128865
0.00129905
0.00130981
0.00132092
0.00133238
0.0013442
0.00135639
0.00136893
0.00138185
0.00139514
0.0014088
0.00142285
0.00143727
0.00145208
0.00146728
0.00148288
0.00149887
0.00151526
0.00153205
0.00154926
0.00156687
0.0015849
0.00160335
0.00162222
0.00164151
0.00166122
0.00168137
0.00170193
0.00112832
0.00115732
0.0011295
0.00114585
0.00114391
0.0011456
0.00114923
0.00115198
0.00115543
0.00115932
0.00116351
0.00116807
0.001173
0.00117826
0.00118388
0.00118983
0.00119612
0.00120275
0.00120972
0.00121702
0.00122465
0.00123262
0.00124092
0.00124956
0.00125853
0.00126784
0.0012775
0.00128749
0.00129783
0.00130851
0.00131954
0.00133092
0.00134265
0.00135474
0.00136719
0.00138001
0.00139318
0.00140673
0.00142065
0.00143494
0.00144961
0.00146466
0.0014801
0.00149592
0.00151213
0.00152874
0.00154575
0.00156315
0.00158096
0.00159917
0.00161779
0.00163682
0.00165625
0.0016761
0.00169635
0.0017381
0.00176082
0.00178452
0.00180924
0.00183502
0.0018621
0.00189036
0.00191992
0.00195086
0.00198329
0.0020173
0.002053
0.00209052
0.00213001
0.0021716
0.00221548
0.00226181
0.00231079
0.00236262
0.00241752
0.00247575
0.00253757
0.0026033
0.00267325
0.0027478
0.00282737
0.00291242
0.00300346
0.00310107
0.0032059
0.00331866
0.00344017
0.00357134
0.00371316
0.00386675
0.00403335
0.00421429
0.00441098
0.00462481
0.00485708
0.00510868
0.00537969
0.0056688
0.00597253
0.00628501
0.00659833
0.00690294
0.00720061
0.00756632
0.00811043
0.00173711
0.00175983
0.00178352
0.00180827
0.00183418
0.00186114
0.00188937
0.00191892
0.00194987
0.00198229
0.0020163
0.00205201
0.00208953
0.00212902
0.00217061
0.00221448
0.0022608
0.00230976
0.00236156
0.00241643
0.00247461
0.00253637
0.002602
0.00267185
0.00274628
0.00282569
0.00291053
0.00300132
0.00309861
0.00320304
0.00331531
0.00343619
0.00356654
0.00370733
0.00385959
0.00402447
0.00420318
0.00439693
0.00460692
0.00483411
0.00507898
0.00534105
0.00561827
0.00590622
0.00619778
0.00648374
0.00675376
0.00700865
0.00731871
0.00778699
0.00173513
0.00175786
0.00178157
0.00180631
0.00183214
0.00185913
0.00188736
0.00191691
0.00194785
0.00198028
0.00201429
0.00205001
0.00208754
0.00212703
0.00216862
0.00221248
0.00225878
0.0023077
0.00235945
0.00241424
0.00247232
0.00253395
0.00259943
0.00266908
0.00274325
0.00282234
0.00290679
0.00299709
0.00309377
0.00319742
0.00330871
0.00342834
0.00355711
0.00369587
0.00384553
0.00400703
0.00418133
0.00436931
0.0045717
0.00478881
0.00502029
0.0052645
0.00551787
0.00577401
0.00602336
0.00625401
0.00645427
0.00662337
0.00681743
0.00714864
0.0017322
0.00175491
0.00177859
0.00180331
0.00182913
0.00185611
0.00188434
0.00191388
0.00194482
0.00197725
0.00201126
0.00204698
0.00208452
0.002124
0.00216559
0.00220942
0.00225568
0.00230455
0.0023562
0.00241088
0.0024688
0.00253024
0.00259546
0.0026648
0.00273858
0.00281719
0.00290104
0.00299058
0.00308632
0.0031888
0.00329859
0.00341635
0.00354273
0.00367843
0.00382415
0.00398058
0.00414828
0.00432764
0.00451868
0.00472081
0.00493236
0.00514999
0.00536783
0.00557652
0.0057628
0.00591061
0.00600614
0.00605046
0.00608318
0.00617318
0.00172828
0.00175098
0.00177465
0.00179936
0.00182517
0.00185215
0.00188036
0.00190989
0.00194083
0.00197326
0.00200728
0.00204301
0.00208056
0.00212006
0.00216164
0.00220546
0.00225168
0.00230048
0.00235204
0.00240657
0.00246431
0.0025255
0.00259042
0.00265936
0.00273265
0.00281064
0.00289372
0.00298229
0.0030768
0.00317772
0.00328556
0.00340082
0.00352402
0.00365564
0.00379611
0.00394573
0.00410456
0.00427231
0.00444807
0.00462998
0.00481466
0.0049965
0.00516656
0.00531167
0.00541383
0.00545155
0.00540713
0.00528559
0.00511644
0.00483655
0.00172342
0.00174613
0.00176981
0.00179452
0.00182034
0.00184732
0.00187554
0.00190509
0.00193606
0.00196853
0.00200263
0.00203844
0.00207609
0.0021157
0.0021574
0.00220132
0.00224763
0.0022965
0.0023481
0.00240266
0.00246038
0.00252152
0.00258634
0.00265512
0.00272818
0.00280583
0.00288844
0.00297637
0.00307002
0.00316979
0.00327607
0.00338926
0.00350969
0.00363761
0.00377311
0.00391602
0.00406573
0.00422097
0.00437943
0.00453726
0.00468824
0.00482287
0.00492716
0.00498169
0.00496137
0.00483747
0.0045867
0.00421559
0.00374799
0.00297068
0.00171762
0.00174025
0.00176388
0.00178854
0.0018143
0.00184122
0.00186938
0.00189887
0.00192978
0.00196222
0.00199628
0.00203208
0.00206973
0.00210934
0.00215104
0.00219495
0.00224123
0.00229005
0.00234158
0.00239602
0.00245361
0.00251457
0.00257917
0.00264767
0.00272036
0.00279756
0.00287958
0.00296676
0.00305944
0.00315794
0.00326258
0.00337362
0.00349122
0.00361539
0.00374588
0.00388203
0.00402251
0.00416493
0.00430531
0.00443719
0.00455053
0.00463029
0.00465502
0.00459629
0.00441949
0.00408638
0.00356852
0.00288069
0.0019965
0.000586022
-0.00308049
-0.00303255
-0.00290121
-0.00269803
-0.00244177
-0.00215132
-0.00184573
-0.00154285
-0.00125762
-0.0010009
-0.000779102
-0.000594604
-0.000446576
-0.00033195
-0.000246363
-0.000184944
-0.000142888
-0.000115815
-9.99632e-05
-9.22416e-05
-9.02051e-05
-9.19628e-05
-9.60994e-05
-0.000101613
-0.000107822
-0.000114228
-0.000120468
-0.000126329
-0.000131697
-0.000136509
-0.000140742
-0.000144398
-0.000147497
-0.000150069
-0.000152149
-0.000153774
-0.000154982
-0.00015581
-0.000156294
-0.000156468
-0.000156362
-0.000156006
-0.000155426
-0.000154647
-0.000153692
-0.00015258
-0.00015133
-0.00014996
-0.000148485
-0.00014692
-0.00322842
-0.00314399
-0.00298496
-0.00277279
-0.00251016
-0.00221542
-0.00190663
-0.0016007
-0.00131213
-0.00105162
-0.000825637
-0.000636699
-0.000484157
-0.000365111
-0.000275337
-0.000210056
-0.000164517
-0.000134358
-0.000115809
-0.000105758
-0.000101725
-0.000101783
-0.000104476
-0.000108768
-0.000113946
-0.000119481
-0.000124987
-0.000130228
-0.00013507
-0.000139435
-0.000143288
-0.000146619
-0.00014944
-0.000151772
-0.000153645
-0.00015509
-0.000156142
-0.000156833
-0.000157197
-0.000157265
-0.000157066
-0.000156626
-0.000155973
-0.000155128
-0.000154113
-0.000152948
-0.00015165
-0.000150237
-0.000148724
-0.000147124
-0.00352002
-0.00333314
-0.00315111
-0.00291746
-0.00264115
-0.0023382
-0.00202345
-0.00171195
-0.00141728
-0.00114981
-0.000916046
-0.00071877
-0.000557669
-0.000430175
-0.000332339
-0.00025958
-0.000207259
-0.000171065
-0.000147224
-0.000132585
-0.00012461
-0.000121304
-0.000121141
-0.000123006
-0.000126126
-0.000129932
-0.000133976
-0.00013798
-0.000141774
-0.000145249
-0.000148344
-0.000151028
-0.000153294
-0.000155149
-0.00015661
-0.000157698
-0.000158438
-0.000158858
-0.000158984
-0.000158842
-0.000158457
-0.000157853
-0.000157052
-0.000156076
-0.000154944
-0.000153674
-0.000152282
-0.000150784
-0.000149195
-0.000147526
-0.00391059
-0.00361887
-0.00338812
-0.00312316
-0.00282727
-0.00251213
-0.00218858
-0.00186913
-0.00156602
-0.00128901
-0.00104457
-0.000835785
-0.000662783
-0.000523461
-0.000414265
-0.000330907
-0.00026893
-0.000224109
-0.000192678
-0.000171441
-0.000157787
-0.00014963
-0.000145335
-0.000143696
-0.000143841
-0.000145124
-0.000147051
-0.00014926
-0.000151531
-0.000153713
-0.000155706
-0.000157449
-0.000158909
-0.00016007
-0.000160931
-0.000161499
-0.000161787
-0.000161812
-0.00016159
-0.000161142
-0.000160486
-0.000159642
-0.000158628
-0.000157461
-0.000156158
-0.000154734
-0.000153205
-0.000151583
-0.000149882
-0.000148113
-0.00437611
-0.00398531
-0.00368475
-0.00337582
-0.00305276
-0.00272085
-0.00238601
-0.00205745
-0.00174534
-0.00145833
-0.00120251
-0.0009811
-0.000794661
-0.000641621
-0.00051893
-0.000422715
-0.000348814
-0.000293173
-0.000252101
-0.000222396
-0.000201386
-0.000186899
-0.0001772
-0.000170946
-0.000167171
-0.000165136
-0.000164254
-0.000164092
-0.000164352
-0.000164827
-0.000165368
-0.000165872
-0.00016627
-0.000166519
-0.000166593
-0.000166478
-0.000166172
-0.000165677
-0.000165
-0.00016415
-0.000163139
-0.000161979
-0.000160684
-0.000159267
-0.000157739
-0.000156113
-0.000154402
-0.000152617
-0.000150769
-0.000148868
-0.00480577
-0.00436334
-0.00399109
-0.00363182
-0.00327959
-0.00293261
-0.0025908
-0.00225909
-0.00194447
-0.00165349
-0.00139118
-0.00116059
-0.000962597
-0.000796281
-0.000659319
-0.000548521
-0.000460297
-0.000391026
-0.000337308
-0.000296113
-0.000264843
-0.000241324
-0.00022377
-0.000210748
-0.000201156
-0.000194161
-0.000189082
-0.000185369
-0.000182628
-0.000180565
-0.000178958
-0.000177638
-0.000176484
-0.000175406
-0.000174342
-0.000173248
-0.000172094
-0.000170863
-0.000169543
-0.000168131
-0.000166626
-0.00016503
-0.000163348
-0.000161587
-0.000159754
-0.000157855
-0.0001559
-0.000153897
-0.000151853
-0.000149778
-0.00513295
-0.00478515
-0.00438126
-0.0039706
-0.00358204
-0.00321142
-0.00285369
-0.00251055
-0.00218631
-0.00188554
-0.00161215
-0.00136874
-0.00115633
-0.000974411
-0.000821218
-0.000694085
-0.000589882
-0.000505362
-0.000437399
-0.000383142
-0.000340087
-0.000306091
-0.000279335
-0.000258307
-0.000241808
-0.000228884
-0.000218745
-0.000210745
-0.000204368
-0.000199226
-0.00019501
-0.000191476
-0.00018844
-0.000185758
-0.000183322
-0.00018105
-0.000178884
-0.000176777
-0.0001747
-0.000172628
-0.000170548
-0.000168448
-0.000166325
-0.000164175
-0.000161998
-0.000159796
-0.000157572
-0.000155329
-0.000153073
-0.000150811
-0.000145273
-0.000143542
-0.000141718
-0.000139807
-0.000137819
-0.000135759
-0.000133632
-0.000131442
-0.000129189
-0.000126875
-0.000124503
-0.000122074
-0.000119592
-0.000117062
-0.000114489
-0.00011188
-0.000109242
-0.00010658
-0.000103901
-0.00010121
-9.85128e-05
-9.58131e-05
-9.31157e-05
-9.04244e-05
-8.77428e-05
-8.50743e-05
-8.24221e-05
-7.97894e-05
-7.7179e-05
-7.45936e-05
-7.2036e-05
-6.95085e-05
-6.70136e-05
-6.45535e-05
-6.21302e-05
-5.97457e-05
-5.7402e-05
-5.51005e-05
-5.28431e-05
-5.0631e-05
-4.84657e-05
-4.63483e-05
-4.42801e-05
-4.2262e-05
-4.02946e-05
-3.83786e-05
-3.65153e-05
-3.47048e-05
-3.29474e-05
-3.12435e-05
-2.95932e-05
-2.79967e-05
-2.64539e-05
-2.49648e-05
-2.35291e-05
-2.21465e-05
-2.08167e-05
-1.95391e-05
-1.83133e-05
-1.71384e-05
-1.60139e-05
-1.4939e-05
-1.39128e-05
-1.29343e-05
-1.20027e-05
-1.11168e-05
-1.02758e-05
-9.47828e-06
-8.72319e-06
-8.00938e-06
-7.33529e-06
-6.69987e-06
-6.10171e-06
-5.53942e-06
-5.01182e-06
-4.51748e-06
-4.0548e-06
-3.62284e-06
-3.21978e-06
-2.84444e-06
-2.49545e-06
-2.17154e-06
-1.87123e-06
-1.59321e-06
-1.33614e-06
-1.09837e-06
-8.79061e-07
-6.76176e-07
-4.89455e-07
-3.16487e-07
-1.56897e-07
-9.06054e-09
1.28691e-07
2.56742e-07
3.77338e-07
4.9024e-07
6.00371e-07
6.98668e-07
8.18049e-07
8.70485e-07
1.09876e-06
8.8637e-07
1.73214e-06
2.28215e-07
3.6408e-06
-2.40825e-06
8.29573e-06
-7.733e-06
1.40745e-05
-9.82296e-06
1.01049e-05
4.34356e-06
-1.13055e-05
2.77517e-05
-2.46587e-05
-0.000145449
-0.000143696
-0.000141853
-0.000139925
-0.000137921
-0.000135846
-0.000133705
-0.000131501
-0.000129236
-0.000126912
-0.000124529
-0.000122091
-0.000119602
-0.000117065
-0.000114488
-0.000111875
-0.000109233
-0.000106569
-0.000103888
-0.000101195
-9.84959e-05
-9.5795e-05
-9.30966e-05
-9.04044e-05
-8.77221e-05
-8.50531e-05
-8.24006e-05
-7.97676e-05
-7.7157e-05
-7.45717e-05
-7.20141e-05
-6.94868e-05
-6.69921e-05
-6.45322e-05
-6.21093e-05
-5.97253e-05
-5.7382e-05
-5.50811e-05
-5.28241e-05
-5.06126e-05
-4.84479e-05
-4.63311e-05
-4.42635e-05
-4.2246e-05
-4.02792e-05
-3.83639e-05
-3.65012e-05
-3.46913e-05
-3.29345e-05
-3.12312e-05
-2.95815e-05
-2.79856e-05
-2.64434e-05
-2.49548e-05
-2.35196e-05
-2.21375e-05
-2.08082e-05
-1.95311e-05
-1.83057e-05
-1.71314e-05
-1.60073e-05
-1.49328e-05
-1.3907e-05
-1.29288e-05
-1.19976e-05
-1.11121e-05
-1.02714e-05
-9.47421e-06
-8.71941e-06
-8.00588e-06
-7.33205e-06
-6.69687e-06
-6.09895e-06
-5.53687e-06
-5.00949e-06
-4.51534e-06
-4.05284e-06
-3.62106e-06
-3.21816e-06
-2.84296e-06
-2.49412e-06
-2.17033e-06
-1.87015e-06
-1.59222e-06
-1.33525e-06
-1.09757e-06
-8.78343e-07
-6.75531e-07
-4.88893e-07
-3.15986e-07
-1.56464e-07
-8.70436e-09
1.29021e-07
2.56982e-07
3.77558e-07
4.90426e-07
6.00482e-07
6.988e-07
8.18097e-07
8.7054e-07
1.09869e-06
8.86533e-07
1.73171e-06
2.28753e-07
3.63976e-06
-2.4072e-06
8.29456e-06
-7.73279e-06
1.40754e-05
-9.82575e-06
1.01083e-05
4.34102e-06
-1.13063e-05
2.77556e-05
-2.46697e-05
-0.000145796
-0.000144
-0.000142118
-0.000140156
-0.00013812
-0.000136015
-0.000133847
-0.000131618
-0.000129329
-0.000126983
-0.000124581
-0.000122126
-0.000119621
-0.000117072
-0.000114484
-0.000111864
-0.000109215
-0.000106546
-0.00010386
-0.000101164
-9.84621e-05
-9.57587e-05
-9.30582e-05
-9.03644e-05
-8.76807e-05
-8.50106e-05
-8.23574e-05
-7.97239e-05
-7.71131e-05
-7.45276e-05
-7.19702e-05
-6.94432e-05
-6.6949e-05
-6.44898e-05
-6.20676e-05
-5.96844e-05
-5.7342e-05
-5.50421e-05
-5.27862e-05
-5.05758e-05
-4.84122e-05
-4.62967e-05
-4.42302e-05
-4.22141e-05
-4.02485e-05
-3.83344e-05
-3.64729e-05
-3.46642e-05
-3.29087e-05
-3.12065e-05
-2.95581e-05
-2.79633e-05
-2.64222e-05
-2.49348e-05
-2.35006e-05
-2.21196e-05
-2.07913e-05
-1.95151e-05
-1.82907e-05
-1.71172e-05
-1.5994e-05
-1.49204e-05
-1.38953e-05
-1.2918e-05
-1.19875e-05
-1.11027e-05
-1.02626e-05
-9.46609e-06
-8.71188e-06
-7.99886e-06
-7.32556e-06
-6.69087e-06
-6.09341e-06
-5.53179e-06
-5.00482e-06
-4.51103e-06
-4.04895e-06
-3.61746e-06
-3.2149e-06
-2.84003e-06
-2.49145e-06
-2.16794e-06
-1.86795e-06
-1.59027e-06
-1.33346e-06
-1.09597e-06
-8.76902e-07
-6.74277e-07
-4.87745e-07
-3.15031e-07
-1.55596e-07
-7.97155e-09
1.29654e-07
2.57475e-07
3.78013e-07
4.90728e-07
6.00791e-07
6.98993e-07
8.18208e-07
8.70657e-07
1.09851e-06
8.86868e-07
1.73087e-06
2.2983e-07
3.63769e-06
-2.40513e-06
8.29217e-06
-7.73238e-06
1.40771e-05
-9.83126e-06
1.0115e-05
4.33587e-06
-1.13078e-05
2.77631e-05
-2.46912e-05
-0.000146301
-0.000144443
-0.000142506
-0.000140493
-0.00013841
-0.000136262
-0.000134053
-0.000131787
-0.000129463
-0.000127085
-0.000124655
-0.000122174
-0.000119648
-0.000117082
-0.000114479
-0.000111846
-0.000109188
-0.000106511
-0.000103819
-0.000101118
-9.84112e-05
-9.57042e-05
-9.30006e-05
-9.03042e-05
-8.76185e-05
-8.49469e-05
-8.22924e-05
-7.96582e-05
-7.7047e-05
-7.44615e-05
-7.19043e-05
-6.93778e-05
-6.68843e-05
-6.4426e-05
-6.2005e-05
-5.9623e-05
-5.7282e-05
-5.49836e-05
-5.27293e-05
-5.05206e-05
-4.83588e-05
-4.6245e-05
-4.41804e-05
-4.21661e-05
-4.02024e-05
-3.82901e-05
-3.64306e-05
-3.46237e-05
-3.287e-05
-3.11696e-05
-2.95229e-05
-2.79299e-05
-2.63905e-05
-2.49047e-05
-2.34722e-05
-2.20927e-05
-2.07659e-05
-1.94912e-05
-1.82681e-05
-1.7096e-05
-1.59741e-05
-1.49017e-05
-1.38779e-05
-1.29017e-05
-1.19723e-05
-1.10886e-05
-1.02495e-05
-9.45389e-06
-8.70056e-06
-7.98833e-06
-7.31584e-06
-6.68187e-06
-6.08511e-06
-5.52417e-06
-4.99781e-06
-4.50459e-06
-4.04309e-06
-3.61209e-06
-3.21002e-06
-2.83561e-06
-2.48743e-06
-2.16433e-06
-1.86467e-06
-1.58733e-06
-1.33079e-06
-1.09358e-06
-8.74762e-07
-6.72389e-07
-4.86053e-07
-3.13582e-07
-1.54311e-07
-6.87129e-09
1.30597e-07
2.58239e-07
3.78681e-07
4.91218e-07
6.01226e-07
6.99295e-07
8.1836e-07
8.70851e-07
1.09824e-06
8.8736e-07
1.7296e-06
2.31424e-07
3.6346e-06
-2.40211e-06
8.28867e-06
-7.73191e-06
1.40799e-05
-9.83976e-06
1.01252e-05
4.32809e-06
-1.13102e-05
2.77747e-05
-2.47228e-05
-0.000146949
-0.000145013
-0.000143005
-0.000140925
-0.000138782
-0.000136578
-0.000134317
-0.000132002
-0.000129634
-0.000127215
-0.000124748
-0.000122236
-0.000119682
-0.000117092
-0.000114471
-0.000111823
-0.000109152
-0.000106464
-0.000103764
-0.000101055
-9.83431e-05
-9.56311e-05
-9.29234e-05
-9.02236e-05
-8.75352e-05
-8.48615e-05
-8.22056e-05
-7.95704e-05
-7.69587e-05
-7.43732e-05
-7.18163e-05
-6.92905e-05
-6.6798e-05
-6.4341e-05
-6.19214e-05
-5.95411e-05
-5.7202e-05
-5.49056e-05
-5.26535e-05
-5.0447e-05
-4.82875e-05
-4.61762e-05
-4.4114e-05
-4.21022e-05
-4.01409e-05
-3.82312e-05
-3.63741e-05
-3.45697e-05
-3.28184e-05
-3.11204e-05
-2.94761e-05
-2.78854e-05
-2.63483e-05
-2.48647e-05
-2.34343e-05
-2.20569e-05
-2.0732e-05
-1.94593e-05
-1.82381e-05
-1.70678e-05
-1.59476e-05
-1.48769e-05
-1.38546e-05
-1.288e-05
-1.19521e-05
-1.10697e-05
-1.0232e-05
-9.4376e-06
-8.68544e-06
-7.9743e-06
-7.30287e-06
-6.66989e-06
-6.07406e-06
-5.51401e-06
-4.98848e-06
-4.49603e-06
-4.03529e-06
-3.60495e-06
-3.20352e-06
-2.82972e-06
-2.48208e-06
-2.1595e-06
-1.86029e-06
-1.58339e-06
-1.32723e-06
-1.0904e-06
-8.7192e-07
-6.69872e-07
-4.83816e-07
-3.11642e-07
-1.52606e-07
-5.40387e-09
1.31852e-07
2.59273e-07
3.79564e-07
4.91892e-07
6.01787e-07
6.99704e-07
8.18556e-07
8.7112e-07
1.09787e-06
8.87994e-07
1.72794e-06
2.33471e-07
3.63064e-06
-2.39835e-06
8.28445e-06
-7.73193e-06
1.40844e-05
-9.85198e-06
1.01395e-05
4.31769e-06
-1.13141e-05
2.77914e-05
-2.47647e-05
-0.000147724
-0.000145694
-0.000143601
-0.000141443
-0.000139226
-0.000136954
-0.00013463
-0.000132256
-0.000129834
-0.000127367
-0.000124857
-0.000122307
-0.000119721
-0.000117104
-0.000114459
-0.000111792
-0.000109106
-0.000106406
-0.000103695
-0.000100977
-9.82574e-05
-9.55392e-05
-9.28264e-05
-9.01224e-05
-8.74307e-05
-8.47545e-05
-8.20968e-05
-7.94604e-05
-7.68481e-05
-7.42626e-05
-7.17061e-05
-6.91812e-05
-6.669e-05
-6.42345e-05
-6.18168e-05
-5.94387e-05
-5.71019e-05
-5.48081e-05
-5.25586e-05
-5.0355e-05
-4.81984e-05
-4.60901e-05
-4.4031e-05
-4.20222e-05
-4.00641e-05
-3.81575e-05
-3.63035e-05
-3.45022e-05
-3.27539e-05
-3.1059e-05
-2.94176e-05
-2.78298e-05
-2.62955e-05
-2.48146e-05
-2.33869e-05
-2.20121e-05
-2.06897e-05
-1.94194e-05
-1.82006e-05
-1.70325e-05
-1.59145e-05
-1.48458e-05
-1.38256e-05
-1.28529e-05
-1.19268e-05
-1.10462e-05
-1.02101e-05
-9.41724e-06
-8.66655e-06
-7.95678e-06
-7.28666e-06
-6.65492e-06
-6.06027e-06
-5.50133e-06
-4.97684e-06
-4.48534e-06
-4.02553e-06
-3.59603e-06
-3.1954e-06
-2.82235e-06
-2.4754e-06
-2.15345e-06
-1.85483e-06
-1.57847e-06
-1.3228e-06
-1.08642e-06
-8.68377e-07
-6.66727e-07
-4.81032e-07
-3.09213e-07
-1.50481e-07
-3.56962e-09
1.3342e-07
2.60576e-07
3.80662e-07
4.92748e-07
6.02478e-07
7.0022e-07
8.18794e-07
8.71463e-07
1.0974e-06
8.88787e-07
1.72585e-06
2.36046e-07
3.62566e-06
-2.39361e-06
8.2791e-06
-7.7319e-06
1.40901e-05
-9.86723e-06
1.01573e-05
4.30466e-06
-1.13187e-05
2.78119e-05
-2.4814e-05
-0.000148607
-0.000146471
-0.000144281
-0.000142032
-0.000139731
-0.000137381
-0.000134984
-0.000132544
-0.000130061
-0.000127539
-0.000124979
-0.000122386
-0.000119764
-0.000117115
-0.000114444
-0.000111755
-0.000109051
-0.000106335
-0.000103611
-0.000100883
-9.8154e-05
-9.54284e-05
-9.27094e-05
-9.00004e-05
-8.73048e-05
-8.46255e-05
-8.19657e-05
-7.93279e-05
-7.6715e-05
-7.41295e-05
-7.15736e-05
-6.90498e-05
-6.65601e-05
-6.41066e-05
-6.16912e-05
-5.93157e-05
-5.69818e-05
-5.4691e-05
-5.24448e-05
-5.02446e-05
-4.80915e-05
-4.59868e-05
-4.39314e-05
-4.19264e-05
-3.9972e-05
-3.80691e-05
-3.62188e-05
-3.44212e-05
-3.26766e-05
-3.09853e-05
-2.93474e-05
-2.77631e-05
-2.62322e-05
-2.47546e-05
-2.33301e-05
-2.19584e-05
-2.06391e-05
-1.93716e-05
-1.81556e-05
-1.69902e-05
-1.58748e-05
-1.48086e-05
-1.37908e-05
-1.28204e-05
-1.18964e-05
-1.10179e-05
-1.01838e-05
-9.39281e-06
-8.64387e-06
-7.93577e-06
-7.26723e-06
-6.63698e-06
-6.04374e-06
-5.48612e-06
-4.96287e-06
-4.47254e-06
-4.01383e-06
-3.58534e-06
-3.18566e-06
-2.8135e-06
-2.46738e-06
-2.14619e-06
-1.84827e-06
-1.57256e-06
-1.3175e-06
-1.08166e-06
-8.64133e-07
-6.62958e-07
-4.77701e-07
-3.06298e-07
-1.47934e-07
-1.3689e-09
1.35301e-07
2.62148e-07
3.81976e-07
4.93786e-07
6.03296e-07
7.00847e-07
8.19064e-07
8.71909e-07
1.09676e-06
8.89917e-07
1.72294e-06
2.39977e-07
3.61804e-06
-2.38504e-06
8.26807e-06
-7.72531e-06
1.40888e-05
-9.87773e-06
1.01737e-05
4.28843e-06
-1.13164e-05
2.78231e-05
-2.48537e-05
-0.000149611
-0.000147354
-0.000145048
-0.000142696
-0.000140299
-0.00013786
-0.000135382
-0.000132867
-0.000130316
-0.000127732
-0.000125118
-0.000122478
-0.000119813
-0.000117129
-0.000114427
-0.000111712
-0.000108985
-0.00010625
-0.000103511
-0.00010077
-9.80299e-05
-9.52952e-05
-9.25688e-05
-8.98538e-05
-8.71535e-05
-8.44707e-05
-8.18084e-05
-7.91691e-05
-7.65555e-05
-7.397e-05
-7.1415e-05
-6.88925e-05
-6.64047e-05
-6.39536e-05
-6.1541e-05
-5.91686e-05
-5.68381e-05
-5.4551e-05
-5.23088e-05
-5.01126e-05
-4.79638e-05
-4.58634e-05
-4.38124e-05
-4.18119e-05
-3.9862e-05
-3.79636e-05
-3.61177e-05
-3.43245e-05
-3.25843e-05
-3.08972e-05
-2.92636e-05
-2.76834e-05
-2.61566e-05
-2.46829e-05
-2.32623e-05
-2.18943e-05
-2.05785e-05
-1.93146e-05
-1.81019e-05
-1.69397e-05
-1.58274e-05
-1.47642e-05
-1.37492e-05
-1.27815e-05
-1.18602e-05
-1.09842e-05
-1.01524e-05
-9.36363e-06
-8.6168e-06
-7.91068e-06
-7.24404e-06
-6.61556e-06
-6.02401e-06
-5.46796e-06
-4.94621e-06
-4.45726e-06
-3.99986e-06
-3.57257e-06
-3.17404e-06
-2.80294e-06
-2.4578e-06
-2.13752e-06
-1.84045e-06
-1.56551e-06
-1.31116e-06
-1.07598e-06
-8.59072e-07
-6.58461e-07
-4.73729e-07
-3.02815e-07
-1.44895e-07
1.25977e-09
1.37547e-07
2.6403e-07
3.83543e-07
4.95034e-07
6.04264e-07
7.01603e-07
8.19364e-07
8.72491e-07
1.09587e-06
8.91556e-07
1.71879e-06
2.46095e-07
3.60614e-06
-2.36976e-06
8.24663e-06
-7.70554e-06
1.40726e-05
-9.87561e-06
1.01838e-05
4.26799e-06
-1.12987e-05
2.7811e-05
-2.48677e-05
-0.000150727
-0.000148332
-0.000145899
-0.00014343
-0.000140926
-0.000138388
-0.000135819
-0.000133219
-0.000130593
-0.00012794
-0.000125266
-0.000122571
-0.00011986
-0.000117136
-0.0001144
-0.000111655
-0.000108903
-0.000106147
-0.00010339
-0.000100634
-9.78815e-05
-9.51364e-05
-9.24014e-05
-8.96797e-05
-8.6974e-05
-8.42872e-05
-8.16221e-05
-7.89812e-05
-7.6367e-05
-7.37817e-05
-7.12277e-05
-6.87069e-05
-6.62215e-05
-6.37732e-05
-6.13639e-05
-5.89953e-05
-5.66689e-05
-5.43862e-05
-5.21486e-05
-4.99573e-05
-4.78136e-05
-4.57183e-05
-4.36725e-05
-4.16772e-05
-3.97325e-05
-3.78394e-05
-3.59988e-05
-3.42108e-05
-3.24757e-05
-3.07938e-05
-2.91651e-05
-2.75898e-05
-2.60677e-05
-2.45987e-05
-2.31825e-05
-2.18189e-05
-2.05074e-05
-1.92475e-05
-1.80387e-05
-1.68804e-05
-1.57717e-05
-1.4712e-05
-1.37004e-05
-1.27359e-05
-1.18176e-05
-1.09445e-05
-1.01155e-05
-9.32933e-06
-8.58498e-06
-7.8812e-06
-7.21678e-06
-6.5904e-06
-6.00083e-06
-5.44664e-06
-4.92663e-06
-4.43931e-06
-3.98345e-06
-3.55758e-06
-3.16038e-06
-2.79052e-06
-2.44654e-06
-2.12733e-06
-1.83125e-06
-1.55721e-06
-1.30372e-06
-1.06931e-06
-8.53127e-07
-6.53179e-07
-4.69064e-07
-2.98721e-07
-1.41322e-07
4.34975e-09
1.40189e-07
2.66246e-07
3.85386e-07
4.96503e-07
6.05404e-07
7.02475e-07
8.19763e-07
8.73053e-07
1.09511e-06
8.92818e-07
1.71529e-06
2.50584e-07
3.597e-06
-2.35975e-06
8.23318e-06
-7.69755e-06
1.40704e-05
-9.8877e-06
1.0203e-05
4.24775e-06
-1.12937e-05
2.78207e-05
-2.49088e-05
-0.000151909
-0.000149368
-0.0001468
-0.000144206
-0.000141587
-0.000138943
-0.000136276
-0.000133588
-0.000130881
-0.000128156
-0.000125417
-0.000122666
-0.000119905
-0.000117137
-0.000114363
-0.000111586
-0.000108807
-0.000106028
-0.000103251
-0.000100477
-9.77112e-05
-9.49545e-05
-9.22101e-05
-8.94808e-05
-8.67693e-05
-8.40783e-05
-8.14102e-05
-7.87676e-05
-7.61528e-05
-7.35679e-05
-7.10152e-05
-6.84965e-05
-6.60138e-05
-6.35689e-05
-6.11635e-05
-5.87992e-05
-5.64775e-05
-5.41998e-05
-5.19675e-05
-4.97818e-05
-4.76437e-05
-4.55542e-05
-4.35143e-05
-4.15249e-05
-3.95863e-05
-3.76992e-05
-3.58645e-05
-3.40824e-05
-3.23531e-05
-3.06769e-05
-2.90538e-05
-2.7484e-05
-2.59673e-05
-2.45036e-05
-2.30925e-05
-2.17338e-05
-2.04271e-05
-1.91718e-05
-1.79675e-05
-1.68134e-05
-1.57089e-05
-1.46531e-05
-1.36452e-05
-1.26844e-05
-1.17696e-05
-1.08997e-05
-1.00738e-05
-9.2906e-06
-8.54905e-06
-7.84792e-06
-7.18601e-06
-6.56199e-06
-5.97466e-06
-5.42256e-06
-4.90453e-06
-4.41904e-06
-3.96492e-06
-3.54065e-06
-3.14496e-06
-2.7765e-06
-2.43382e-06
-2.11582e-06
-1.82086e-06
-1.54785e-06
-1.29532e-06
-1.06178e-06
-8.4642e-07
-6.47219e-07
-4.63801e-07
-2.94099e-07
-1.37289e-07
7.83917e-09
1.43174e-07
2.68753e-07
3.87467e-07
4.98166e-07
6.06691e-07
7.03447e-07
8.20244e-07
8.73607e-07
1.09444e-06
8.9383e-07
1.71217e-06
2.54108e-07
3.58929e-06
-2.35248e-06
8.22343e-06
-7.69488e-06
1.40739e-05
-9.90545e-06
1.02256e-05
4.22748e-06
-1.12927e-05
2.78373e-05
-2.49585e-05
-0.000153141
-0.000150445
-0.000147735
-0.00014501
-0.00014227
-0.000139516
-0.000136747
-0.000133967
-0.000131175
-0.000128375
-0.000125569
-0.000122758
-0.000119944
-0.00011713
-0.000114316
-0.000111504
-0.000108695
-0.00010589
-0.000103091
-0.0001003
-9.7518e-05
-9.47486e-05
-9.1994e-05
-8.92566e-05
-8.65388e-05
-8.38432e-05
-8.11722e-05
-7.85279e-05
-7.59127e-05
-7.33284e-05
-7.07773e-05
-6.8261e-05
-6.57815e-05
-6.33405e-05
-6.09395e-05
-5.85801e-05
-5.62637e-05
-5.39918e-05
-5.17654e-05
-4.95859e-05
-4.74542e-05
-4.53712e-05
-4.3338e-05
-4.13552e-05
-3.94233e-05
-3.75429e-05
-3.57148e-05
-3.39393e-05
-3.22165e-05
-3.05467e-05
-2.89299e-05
-2.73662e-05
-2.58555e-05
-2.43976e-05
-2.29922e-05
-2.1639e-05
-2.03376e-05
-1.90875e-05
-1.78881e-05
-1.67388e-05
-1.56388e-05
-1.45875e-05
-1.35838e-05
-1.2627e-05
-1.1716e-05
-1.08498e-05
-1.00273e-05
-9.24746e-06
-8.50903e-06
-7.81086e-06
-7.15175e-06
-6.53036e-06
-5.94552e-06
-5.39575e-06
-4.87991e-06
-4.39647e-06
-3.94428e-06
-3.5218e-06
-3.12779e-06
-2.76088e-06
-2.41966e-06
-2.10299e-06
-1.80929e-06
-1.53742e-06
-1.28596e-06
-1.0534e-06
-8.38952e-07
-6.40585e-07
-4.57941e-07
-2.88951e-07
-1.32795e-07
1.17267e-08
1.46499e-07
2.71547e-07
3.89785e-07
5.0002e-07
6.08124e-07
7.04523e-07
8.20795e-07
8.74181e-07
1.09379e-06
8.94772e-07
1.70902e-06
2.57511e-07
3.5814e-06
-2.34505e-06
8.21273e-06
-7.69089e-06
1.4075e-05
-9.92084e-06
1.02463e-05
4.20662e-06
-1.12879e-05
2.78473e-05
-2.49993e-05
-0.000154405
-0.000151549
-0.000148691
-0.00014583
-0.000142965
-0.000140096
-0.000137223
-0.000134347
-0.00013147
-0.000128592
-0.000125715
-0.000122842
-0.000119974
-0.000117111
-0.000114255
-0.000111406
-0.000108565
-0.000105732
-0.00010291
-0.000100098
-9.73005e-05
-9.45176e-05
-9.1752e-05
-8.9006e-05
-8.62817e-05
-8.35815e-05
-8.09074e-05
-7.82616e-05
-7.56461e-05
-7.30628e-05
-7.05136e-05
-6.80003e-05
-6.55245e-05
-6.30878e-05
-6.06918e-05
-5.8338e-05
-5.60276e-05
-5.3762e-05
-5.15423e-05
-4.93697e-05
-4.72451e-05
-4.51694e-05
-4.31434e-05
-4.11681e-05