/*--------------------------------*- C++ -*----------------------------------*\
| =========                 |                                                 |
| \\      /  F ield         | OpenFOAM: The Open Source CFD Toolbox           |
|  \\    /   O peration     | Version:  2412                                  |
|   \\  /    A nd           | Website:  www.openfoam.com                      |
|    \\/     M anipulation  |                                                 |
\*---------------------------------------------------------------------------*/
FoamFile
{
    version     2.0;
    format      ascii;
    arch        "LSB;label=32;scalar=64";
    class       surfaceScalarField;
    location    "5";
    object      phi;
}
// * * * * * * * * * * * * * * * * * * * * * * * * * * * * * * * * * * * * * //

dimensions      [0 3 -1 0 0 0 0];

oriented        oriented;

internalField   nonuniform List<scalar> 
126304
(
0.00505075
7.50533e-09
-1.06963e-10
0.00504702
3.7342e-06
-2.5652e-09
0.00504028
6.7455e-06
-6.07509e-09
0.00503283
7.45129e-06
-6.67665e-09
0.00502727
5.56917e-06
-4.18513e-09
0.00502399
3.28007e-06
-4.80209e-10
0.00502229
1.69388e-06
2.75233e-09
0.0050213
9.9036e-07
4.87598e-09
0.00502039
8.99109e-07
6.00344e-09
0.0050193
1.08574e-06
6.46445e-09
0.00501795
1.34277e-06
6.53672e-09
0.00501636
1.57981e-06
6.43637e-09
0.00501459
1.77224e-06
6.29589e-09
0.00501266
1.9235e-06
6.17459e-09
0.00501061
2.04462e-06
6.08882e-09
0.00500845
2.14608e-06
6.02966e-09
0.00500621
2.2358e-06
5.97988e-09
0.00500389
2.31924e-06
5.91889e-09
0.00500148
2.4e-06
5.83723e-09
0.00499899
2.4804e-06
5.74406e-09
0.00499643
2.56195e-06
5.64332e-09
0.00499378
2.64565e-06
5.527e-09
0.00499104
2.73213e-06
5.39113e-09
0.00498821
2.82181e-06
5.23529e-09
0.00498529
2.91496e-06
5.06879e-09
0.00498227
3.01177e-06
4.89766e-09
0.00497916
3.11236e-06
4.72223e-09
0.00497594
3.21685e-06
4.53803e-09
0.00497261
3.32532e-06
4.34025e-09
0.00496916
3.43784e-06
4.12764e-09
0.00496561
3.55448e-06
3.90018e-09
0.00496193
3.67533e-06
3.66127e-09
0.00495812
3.80046e-06
3.41505e-09
0.00495419
3.92995e-06
3.16533e-09
0.00495012
4.06391e-06
2.9148e-09
0.00494592
4.20246e-06
2.66283e-09
0.00494157
4.34575e-06
2.40851e-09
0.00493707
4.49393e-06
2.14774e-09
0.00493243
4.6472e-06
1.87911e-09
0.00492762
4.80577e-06
1.60111e-09
0.00492265
4.9699e-06
1.31523e-09
0.00491751
5.13988e-06
1.02346e-09
0.00491219
5.31607e-06
7.28795e-10
0.00490669
5.49887e-06
4.3347e-10
0.004901
5.68879e-06
1.38723e-10
0.00489511
5.88642e-06
-1.5594e-10
0.00488902
6.09248e-06
-4.50968e-10
0.00488272
6.30785e-06
-7.46222e-10
0.00487618
6.53355e-06
-1.04007e-09
0.00486941
6.77078e-06
-1.32849e-09
0.00486239
7.02076e-06
-1.60578e-09
0.00485511
7.28452e-06
-1.86565e-09
0.00484755
7.56252e-06
-2.10224e-09
0.0048397
7.85465e-06
-2.31068e-09
8.16161e-06
0.00483154
-2.48778e-09
0.00505075
1.20035e-08
0.0050471
7.38815e-06
0.0050405
1.33475e-05
0.00503316
1.47925e-05
0.00502762
1.11003e-05
0.00502431
6.58962e-06
0.00502256
3.45189e-06
0.0050215
2.05017e-06
0.00502054
1.85787e-06
0.00501941
2.21703e-06
0.00501803
2.7183e-06
0.00501643
3.18268e-06
0.00501464
3.56081e-06
0.0050127
3.85888e-06
0.00501065
4.09821e-06
0.0050085
4.29923e-06
0.00500626
4.47741e-06
0.00500393
4.64339e-06
0.00500153
4.80421e-06
0.00499904
4.96446e-06
0.00499648
5.1271e-06
0.00499383
5.29406e-06
0.0049911
5.46661e-06
0.00498827
5.64555e-06
0.00498536
5.83144e-06
0.00498234
6.02462e-06
0.00497923
6.22537e-06
0.00497601
6.43388e-06
0.00497269
6.65033e-06
0.00496925
6.87485e-06
0.0049657
7.10759e-06
0.00496202
7.34869e-06
0.00495823
7.59831e-06
0.0049543
7.85663e-06
0.00495024
8.12385e-06
0.00494604
8.40022e-06
0.0049417
8.686e-06
0.00493721
8.98152e-06
0.00493257
9.28714e-06
0.00492778
9.6033e-06
0.00492282
9.93049e-06
0.00491769
1.02693e-05
0.00491238
1.06204e-05
0.0049069
1.09846e-05
0.00490122
1.13629e-05
0.00489535
1.17564e-05
0.00488928
1.21666e-05
0.00488299
1.2595e-05
0.00487648
1.30439e-05
0.00486974
1.35153e-05
0.00486275
1.40117e-05
0.0048555
1.45351e-05
0.00484797
1.50862e-05
0.00484016
1.56649e-05
1.62725e-05
0.00483205
0.00505076
9.50134e-09
0.00504726
1.08852e-05
0.00504093
1.96762e-05
0.0050338
2.19305e-05
0.00502833
1.65669e-05
0.00502496
9.9603e-06
0.00502308
5.33199e-06
0.00502189
3.23751e-06
0.00502083
2.92215e-06
0.00501962
3.42495e-06
0.00501819
4.14511e-06
0.00501656
4.81799e-06
0.00501475
5.36893e-06
0.0050128
5.80532e-06
0.00501074
6.15736e-06
0.00500859
6.45434e-06
0.00500635
6.71856e-06
0.00500402
6.96541e-06
0.00500162
7.20511e-06
0.00499914
7.4443e-06
0.00499658
7.6873e-06
0.00499394
7.93691e-06
0.00499121
8.19497e-06
0.0049884
8.46266e-06
0.00498549
8.74076e-06
0.00498248
9.02982e-06
0.00497938
9.3302e-06
0.00497617
9.64219e-06
0.00497285
9.96604e-06
0.00496943
1.03019e-05
0.00496588
1.06501e-05
0.00496222
1.10108e-05
0.00495843
1.13841e-05
0.00495452
1.17704e-05
0.00495047
1.217e-05
0.00494629
1.25832e-05
0.00494197
1.30104e-05
0.0049375
1.34521e-05
0.00493287
1.39088e-05
0.0049281
1.43812e-05
0.00492316
1.48698e-05
0.00491805
1.53757e-05
0.00491277
1.58998e-05
0.00490731
1.64432e-05
0.00490167
1.70074e-05
0.00489583
1.75939e-05
0.00488979
1.82049e-05
0.00488355
1.88427e-05
0.00487708
1.95101e-05
0.00487038
2.02104e-05
0.00486345
2.09469e-05
0.00485626
2.17223e-05
0.00484881
2.25377e-05
0.00484108
2.33926e-05
2.42882e-05
0.00483307
0.00505077
-5.40972e-09
0.00504751
1.41454e-05
0.00504159
2.56021e-05
0.00503474
2.87736e-05
0.00502937
2.19443e-05
0.0050259
1.34242e-05
0.00502384
7.39233e-06
0.00502247
4.61129e-06
0.00502125
4.13981e-06
0.00501993
4.74383e-06
0.00501843
5.64594e-06
0.00501675
6.49998e-06
0.00501491
7.20505e-06
0.00501295
7.76749e-06
0.00501088
8.22427e-06
0.00500873
8.612e-06
0.00500649
8.95877e-06
0.00500417
9.28408e-06
0.00500177
9.60091e-06
0.0049993
9.91771e-06
0.00499674
1.024e-05
0.00499411
1.05714e-05
0.00499139
1.09141e-05
0.00498858
1.12698e-05
0.00498569
1.16393e-05
0.00498269
1.20235e-05
0.0049796
1.24227e-05
0.0049764
1.28374e-05
0.0049731
1.32678e-05
0.00496969
1.37141e-05
0.00496616
1.41767e-05
0.00496252
1.46559e-05
0.00495875
1.51518e-05
0.00495486
1.56649e-05
0.00495083
1.61955e-05
0.00494667
1.67441e-05
0.00494237
1.73111e-05
0.00493792
1.78972e-05
0.00493333
1.85031e-05
0.00492858
1.91295e-05
0.00492367
1.97774e-05
0.0049186
2.04478e-05
0.00491336
2.11419e-05
0.00490794
2.18613e-05
0.00490234
2.26077e-05
0.00489655
2.33832e-05
0.00489057
2.41901e-05
0.00488438
2.50316e-05
0.00487798
2.59111e-05
0.00487135
2.68325e-05
0.0048645
2.77999e-05
0.00485741
2.88164e-05
0.00485006
2.98834e-05
0.00484245
3.09996e-05
3.21663e-05
0.00483458
0.00505079
-3.84207e-08
0.00504784
1.70914e-05
0.00504243
3.10112e-05
0.00503597
3.52427e-05
0.0050307
2.72142e-05
0.00502711
1.70119e-05
0.00502482
9.68459e-06
0.0050232
6.22272e-06
0.00502179
5.55182e-06
0.00502033
6.20275e-06
0.00501874
7.23988e-06
0.005017
8.2405e-06
0.00501513
9.07612e-06
0.00501315
9.74913e-06
0.00501107
1.03006e-05
0.00500891
1.07724e-05
0.00500667
1.11973e-05
0.00500436
1.1598e-05
0.00500197
1.19897e-05
0.0049995
1.23824e-05
0.00499696
1.27826e-05
0.00499434
1.31945e-05
0.00499163
1.36208e-05
0.00498884
1.40634e-05
0.00498595
1.45235e-05
0.00498298
1.50017e-05
0.0049799
1.54988e-05
0.00497672
1.6015e-05
0.00497344
1.65508e-05
0.00497005
1.71064e-05
0.00496654
1.76821e-05
0.00496292
1.82784e-05
0.00495917
1.88954e-05
0.00495531
1.95336e-05
0.00495131
2.01934e-05
0.00494718
2.08754e-05
0.00494291
2.15802e-05
0.0049385
2.23084e-05
0.00493394
2.3061e-05
0.00492923
2.38387e-05
0.00492436
2.46427e-05
0.00491934
2.54742e-05
0.00491415
2.63347e-05
0.00490878
2.72258e-05
0.00490324
2.81497e-05
0.00489751
2.91086e-05
0.0048916
3.01054e-05
0.00488549
3.11435e-05
0.00487917
3.22267e-05
0.00487264
3.33594e-05
0.0048659
3.45461e-05
0.00485892
3.57902e-05
0.00485171
3.70927e-05
0.00484426
3.84515e-05
3.98661e-05
0.00483656
0.00505081
-9.54823e-08
0.00504824
1.96625e-05
0.00504344
3.58107e-05
0.00503741
4.12798e-05
0.00503226
3.23636e-05
0.00502852
2.07479e-05
0.00502596
1.22486e-05
0.00502407
8.11057e-06
0.00502243
7.18905e-06
0.00502081
7.82349e-06
0.00501911
8.94119e-06
0.0050173
1.00483e-05
0.00501539
1.09872e-05
0.00501339
1.17528e-05
0.0050113
1.23872e-05
0.00500914
1.29354e-05
0.0050069
1.34332e-05
0.00500459
1.39056e-05
0.00500221
1.43694e-05
0.00499976
1.4836e-05
0.00499723
1.53124e-05
0.00499462
1.58033e-05
0.00499193
1.6312e-05
0.00498915
1.68403e-05
0.00498629
1.73896e-05
0.00498333
1.79607e-05
0.00498027
1.85542e-05
0.00497712
1.91707e-05
0.00497386
1.98104e-05
0.00497049
2.04737e-05
0.00496701
2.1161e-05
0.00496342
2.18725e-05
0.0049597
2.26087e-05
0.00495587
2.337e-05
0.00495191
2.41569e-05
0.00494781
2.49699e-05
0.00494358
2.58098e-05
0.00493921
2.66774e-05
0.0049347
2.75734e-05
0.00493004
2.8499e-05
0.00492523
2.94554e-05
0.00492026
3.04439e-05
0.00491513
3.14661e-05
0.00490983
3.25239e-05
0.00490436
3.36195e-05
0.00489871
3.47553e-05
0.00489288
3.59346e-05
0.00488686
3.71607e-05
0.00488065
3.84378e-05
0.00487424
3.97705e-05
0.00486763
4.11631e-05
0.0048608
4.26191e-05
0.00485375
4.41387e-05
0.00484648
4.57184e-05
4.73545e-05
0.004839
0.00505082
-1.60747e-07
0.00504871
2.17757e-05
0.00504454
3.99844e-05
0.00503898
4.68321e-05
0.00503396
3.7387e-05
0.00503006
2.46465e-05
0.0050272
1.51053e-05
0.00502502
1.02971e-05
0.00502314
9.06925e-06
0.00502134
9.61868e-06
0.00501953
1.07582e-05
0.00501765
1.19286e-05
0.00501569
1.29412e-05
0.00501366
1.37798e-05
0.00501157
1.44842e-05
0.0050094
1.51003e-05
0.00500717
1.56651e-05
0.00500487
1.62051e-05
0.0050025
1.67381e-05
0.00500006
1.72761e-05
0.00499755
1.78267e-05
0.00499496
1.83951e-05
0.00499228
1.89845e-05
0.00498953
1.9597e-05
0.00498668
2.0234e-05
0.00498375
2.08964e-05
0.00498072
2.1585e-05
0.00497759
2.23e-05
0.00497436
2.3042e-05
0.00497102
2.38113e-05
0.00496757
2.46081e-05
0.00496401
2.54329e-05
0.00496033
2.6286e-05
0.00495654
2.71679e-05
0.00495261
2.80792e-05
0.00494856
2.90204e-05
0.00494438
2.99923e-05
0.00494006
3.09958e-05
0.0049356
3.20317e-05
0.004931
3.31012e-05
0.00492625
3.42055e-05
0.00492135
3.53461e-05
0.00491629
3.65247e-05
0.00491107
3.77432e-05
0.00490569
3.90038e-05
0.00490013
4.03092e-05
0.0048944
4.16624e-05
0.0048885
4.3067e-05
0.00488241
4.45271e-05
0.00487613
4.6047e-05
0.00486966
4.7631e-05
0.004863
4.92819e-05
0.00485614
5.09991e-05
0.00484908
5.27764e-05
0.00484184
5.46022e-05
0.00483347
-1.92816e-06
-2.64688e-09
0.00483489
-1.41453e-06
-2.81656e-09
0.0048358
-9.07041e-07
-2.96461e-09
0.00483623
-4.29143e-07
-3.1122e-09
0.00483621
1.98316e-08
-3.25041e-09
0.00483584
3.75042e-07
-3.24804e-09
0.00483516
6.85682e-07
-3.30373e-09
0.00483421
9.53257e-07
-3.36598e-09
0.004833
1.21277e-06
-3.40821e-09
0.00483149
1.51147e-06
-3.43623e-09
0.00482959
1.90102e-06
-3.44965e-09
0.00482717
2.42904e-06
-3.4463e-09
0.00482404
3.13213e-06
-3.42581e-09
0.00482001
4.03233e-06
-3.38751e-09
0.00481488
5.13735e-06
-3.34168e-09
0.00480844
6.44387e-06
-3.26586e-09
0.0048005
7.94243e-06
-3.20336e-09
0.00479088
9.62262e-06
-3.13992e-09
0.0047794
1.14773e-05
-3.09478e-09
0.0047659
1.35057e-05
-3.10364e-09
0.00475019
1.57148e-05
-3.11553e-09
0.00473207
1.81198e-05
-3.14209e-09
0.00471133
2.07441e-05
-3.16699e-09
0.00468772
2.36191e-05
-3.17391e-09
0.00466093
2.67846e-05
-3.14637e-09
0.00463065
3.02885e-05
-3.07265e-09
0.00459646
3.4188e-05
-2.94807e-09
0.00455792
3.85511e-05
-2.77527e-09
0.00451446
4.34587e-05
-2.56321e-09
0.00446545
4.90078e-05
-2.32674e-09
0.00441014
5.53156e-05
-2.08363e-09
0.00434762
6.25259e-05
-1.85047e-09
0.0042768
7.0816e-05
-1.64015e-09
0.0041964
8.04073e-05
-1.46053e-09
0.00410482
9.15778e-05
-1.31441e-09
0.00400014
0.000104679
-1.19875e-09
0.00387999
0.000120153
-1.10582e-09
0.00374144
0.000138556
-1.02637e-09
0.00358087
0.000160563
-9.51235e-10
0.00339392
0.000186955
-8.7516e-10
0.00317538
0.000218539
-7.95122e-10
0.00291944
0.000255939
-7.11965e-10
0.00262025
0.000299198
-6.29023e-10
0.00227317
0.000347074
-5.44035e-10
0.00187718
0.000395993
-4.50841e-10
0.00143857
0.000438614
-3.41971e-10
0.000976424
0.000462142
-2.18089e-10
0.000529993
0.000446431
-1.01185e-10
0.000168714
0.000361279
-2.35688e-11
0.000168714
1.0096e-11
0.00483263
-2.50581e-06
0.00483269
-1.48152e-06
0.00483225
-4.64493e-07
0.00483132
5.01895e-07
0.00482997
1.37208e-06
0.00482822
2.12311e-06
0.00482615
2.76116e-06
0.00482378
3.31965e-06
0.00482113
3.86619e-06
0.00481814
4.49269e-06
0.00481475
5.29973e-06
0.00481079
6.37977e-06
0.00480612
7.80394e-06
0.00480054
9.61511e-06
0.00479385
1.18286e-05
0.00478585
1.44387e-05
0.00477637
1.74278e-05
0.00476521
2.07768e-05
0.00475222
2.44732e-05
0.00473721
2.85171e-05
0.00472
3.29234e-05
0.0047004
3.77235e-05
0.00467817
4.29647e-05
0.00465308
4.87105e-05
0.00462483
5.504e-05
0.00459307
6.20494e-05
0.0045574
6.9853e-05
0.00451737
7.85868e-05
0.00447241
8.84122e-05
0.0044219
9.95227e-05
0.00436506
0.000112153
0.004301
0.000126588
0.00422863
0.000143182
0.00414666
0.000162375
0.00405352
0.000184718
0.0039473
0.000210907
0.00382563
0.000241818
0.00368565
0.000278542
0.0035238
0.000322407
0.00333582
0.000374937
0.00311667
0.000437685
0.00286079
0.000511823
0.00256266
0.00059733
0.00221811
0.000691622
0.00182662
0.000787485
0.00139495
0.000870283
0.000942473
0.000914617
0.000508075
0.000880829
0.000158638
0.000710716
0.000327352
0.00483095
-3.9328e-07
0.00482834
1.13712e-06
0.00482521
2.65709e-06
0.00482161
4.10773e-06
0.00481755
5.43074e-06
0.00481308
6.59151e-06
0.00480825
7.59364e-06
0.00480308
8.48822e-06
0.00479757
9.37347e-06
0.00479168
1.03818e-05
0.00478533
1.16575e-05
0.00477837
1.33332e-05
0.00477067
1.55107e-05
0.00476203
1.82519e-05
0.00475228
2.15794e-05
0.00474123
2.54865e-05
0.00472871
2.99505e-05
0.00471454
3.49467e-05
0.00469855
4.04604e-05
0.00468057
4.64953e-05
0.00466042
5.30767e-05
0.00463789
6.02535e-05
0.00461276
6.80982e-05
0.00458476
7.67065e-05
0.0045536
8.61975e-05
0.00451894
9.67155e-05
0.00448036
0.000108432
0.00443739
0.00012155
0.00438949
0.000136312
0.00433601
0.000153008
0.00427617
0.000171986
0.00420909
0.000193674
0.00413367
0.000218598
0.00404864
0.00024741
0.00395243
0.000280928
0.00384316
0.000320176
0.00371854
0.000366439
0.00357576
0.000421314
0.00341145
0.000486722
0.00322154
0.000564849
0.00300135
0.000657875
0.00274581
0.000767357
0.00245013
0.000893018
0.00211101
0.00103073
0.00172893
0.00116956
0.00131144
0.00128778
0.000878152
0.0013479
0.000467485
0.0012915
0.000143151
0.00103505
0.000470503
0.00482847
5.71004e-06
0.00482187
7.73553e-06
0.00481478
9.7552e-06
0.00480719
1.16958e-05
0.00479913
1.34875e-05
0.00479064
1.50867e-05
0.00478173
1.64983e-05
0.00477243
1.77879e-05
0.00476273
1.90797e-05
0.00475257
2.05404e-05
0.00474187
2.23513e-05
0.00473053
2.46786e-05
0.00471839
2.76501e-05
0.0047053
3.13441e-05
0.00469109
3.57909e-05
0.00467559
4.09847e-05
0.00465864
4.69012e-05
0.00464007
5.35146e-05
0.00461972
6.08121e-05
0.00459741
6.88046e-05
0.00457295
7.75309e-05
0.00454615
8.70594e-05
0.00451676
9.74888e-05
0.00448452
0.000108948
0.00444912
0.000121597
0.0044102
0.000135627
0.00436737
0.000151267
0.00432013
0.000168788
0.00426793
0.000188512
0.00421012
0.000210822
0.00414592
0.000236183
0.00407443
0.00026516
0.00399459
0.000298446
0.0039051
0.000336898
0.00380444
0.000381584
0.00369078
0.000433836
0.00356191
0.000495314
0.00341517
0.000568057
0.00324739
0.000654499
0.00305489
0.000757349
0.00283353
0.000879231
0.00257905
0.00102184
0.00228773
0.00118434
0.00195762
0.00136084
0.00159057
0.00153661
0.00119507
0.00168328
0.000790478
0.0017525
0.00041315
0.00166882
0.000121088
0.00132711
0.000591591
0.00482521
1.70601e-05
0.00481338
1.9565e-05
0.00480106
2.20751e-05
0.00478825
2.45069e-05
0.00477496
2.67814e-05
0.0047612
2.88499e-05
0.00474697
3.07197e-05
0.00473229
3.24681e-05
0.00471713
3.42403e-05
0.00470144
3.62304e-05
0.00468515
3.86485e-05
0.00466814
4.16873e-05
0.00465029
4.54955e-05
0.00463147
5.01649e-05
0.00461153
5.57337e-05
0.00459031
6.21999e-05
0.00456767
6.95416e-05
0.00454345
7.77363e-05
0.00451748
8.67782e-05
0.0044896
9.66894e-05
0.00445961
0.000107525
0.00442729
0.000119375
0.00439241
0.000132367
0.0043547
0.000146663
0.00431383
0.000162464
0.00426945
0.000180009
0.00422113
0.000199584
0.00416839
0.000221527
0.00411066
0.000246239
0.00404729
0.000274198
0.00397749
0.00030598
0.00390037
0.000342283
0.00381485
0.000383962
0.00371968
0.000432067
0.00361337
0.000487896
0.00349415
0.000553057
0.00335993
0.000629528
0.00320828
0.000719712
0.00303636
0.000826417
0.00284102
0.000952689
0.00261893
0.00110132
0.00236698
0.00127379
0.00208297
0.00146835
0.0017668
0.00167702
0.00142205
0.00188136
0.00105819
0.00204714
0.000693399
0.00211729
0.000358525
0.0020037
9.92682e-05
0.00158637
0.000690859
0.00482121
3.48467e-05
0.00480296
3.78086e-05
0.00478425
4.07935e-05
0.00476504
4.37114e-05
0.00474535
4.64779e-05
0.00472515
4.90421e-05
0.00470446
5.14142e-05
0.00468325
5.36809e-05
0.00466148
5.60037e-05
0.00463912
5.85963e-05
0.00461608
6.16901e-05
0.00459227
6.54968e-05
0.00456758
7.01806e-05
0.0045419
7.58449e-05
0.0045151
8.25356e-05
0.00448704
9.02572e-05
0.00445759
9.8994e-05
0.00442659
0.000108732
0.00439389
0.000119477
0.00435932
0.000131266
0.00432267
0.000144174
0.00428373
0.000158315
0.00424225
0.000173846
0.00419795
0.000190964
0.0041505
0.000209911
0.00409954
0.000230976
0.00404462
0.0002545
0.00398526
0.00028089
0.00392087
0.000310624
0.0038508
0.000344275
0.00377425
0.000382526
0.00369032
0.000426208
0.00359796
0.000476325
0.00349592
0.000534108
0.00338276
0.000601059
0.0032568
0.000679013
0.00311614
0.00077019
0.00295863
0.000877223
0.00278195
0.00100309
0.00258378
0.00115087
0.00236202
0.00132308
0.00211534
0.00152047
0.0018439
0.00173979
0.00155035
0.00197057
0.00124088
0.00219083
0.000926198
0.00236182
0.0006222
0.00242128
0.000348397
0.0022775
0.000120301
0.00181446
0.00081116
0.00481651
6.01722e-05
0.00479076
6.35617e-05
0.00476455
6.69995e-05
0.00473787
7.03911e-05
0.0047107
7.36498e-05
0.00468302
7.67248e-05
0.0046548
7.96296e-05
0.00462602
8.24591e-05
0.00459664
8.53863e-05
0.0045666
8.86386e-05
0.00453583
9.24616e-05
0.00450424
9.70798e-05
0.00447176
0.000102668
0.00443826
0.000109337
0.00440366
0.000117143
0.00436782
0.000126096
0.00433062
0.000136192
0.00429192
0.000147428
0.00425158
0.000159826
0.0042094
0.000173441
0.0041652
0.000188372
0.00411876
0.00020476
0.00406981
0.000222791
0.00401808
0.000242698
0.00396322
0.000264767
0.00390486
0.000289333
0.00384257
0.000316796
0.00377583
0.000347629
0.00370407
0.000382389
0.0036266
0.000421739
0.00354265
0.000466473
0.00345132
0.000517546
0.00335153
0.000576109
0.00324208
0.000643558
0.00312157
0.000721573
0.00298841
0.000812172
0.00284086
0.000917739
0.00267709
0.001041
0.00249532
0.00118486
0.00229413
0.00135205
0.00207292
0.00154429
0.00183262
0.00176077
0.00157657
0.00199583
0.00131154
0.0022356
0.00104846
0.00245392
0.000802123
0.00260816
0.000588021
0.00263539
0.000411969
0.00245355
0.000251383
0.00197505
0.00106254
-1.82105e-05
1.821e-05
5.20899e-10
-1.59088e-05
-2.30297e-06
1.25786e-09
3.18905e-05
-4.78012e-05
1.87701e-09
0.000135055
-0.000103167
2.28248e-09
0.000293728
-0.000158675
2.46336e-09
0.000501705
-0.000207979
2.43393e-09
0.000749289
-0.000247587
2.25757e-09
0.00102534
-0.00027605
2.02482e-09
0.00131862
-0.00029329
1.83402e-09
0.00161878
-0.000300154
1.76128e-09
0.00191684
-0.000298066
1.85289e-09
0.00220558
-0.000288741
2.11427e-09
0.00247955
-0.000273974
2.51903e-09
0.00273502
-0.000255476
3.01316e-09
0.0029698
-0.000234776
3.52883e-09
0.00318294
-0.000213152
3.99878e-09
0.00337455
-0.000191614
4.36506e-09
0.00354545
-0.000170904
4.58459e-09
0.00369697
-0.000151524
4.63048e-09
0.00383073
-0.000133767
4.51086e-09
0.0039485
-0.000117765
4.14033e-09
0.00405202
-0.000103526
3.63857e-09
0.00414299
-9.0975e-05
2.78667e-09
0.00422297
-7.99823e-05
2.06572e-09
0.00429336
-7.03925e-05
1.86795e-09
0.0043554
-6.20418e-05
2.03053e-09
0.00441017
-5.47702e-05
2.64725e-09
0.00445859
-4.84291e-05
3.46855e-09
0.00450148
-4.28856e-05
4.44296e-09
0.00453949
-3.80236e-05
5.49213e-09
0.00457323
-3.37438e-05
6.5378e-09
0.00460319
-2.99621e-05
7.50333e-09
0.00462979
-2.66076e-05
8.32755e-09
0.0046534
-2.36209e-05
8.96902e-09
0.00467434
-2.09525e-05
9.41379e-09
0.00469289
-1.85607e-05
9.67036e-09
0.00470929
-1.64106e-05
9.76521e-09
0.00472376
-1.44728e-05
9.73477e-09
0.00473647
-1.27224e-05
9.6169e-09
0.0047476
-1.11385e-05
9.44798e-09
0.00475729
-9.70294e-06
9.25748e-09
0.00476568
-8.40067e-06
9.06622e-09
0.00477289
-7.21878e-06
8.88925e-09
0.00477903
-6.14642e-06
8.73448e-09
0.0047842
-5.17462e-06
8.60571e-09
0.00478848
-4.29593e-06
8.50486e-09
0.00479198
-3.50414e-06
8.43093e-09
0.00479476
-2.79353e-06
8.38272e-09
0.00479691
-2.1578e-06
8.35982e-09
-1.58842e-06
0.00479849
8.36031e-09
-1.23748e-05
3.05848e-05
1.77613e-06
-1.64539e-05
6.00855e-05
-0.000106111
0.000171399
-0.00021448
0.000334716
-0.000321992
0.000543531
-0.000416795
0.000788545
-0.0004926
0.00105933
-0.000546833
0.00134549
-0.000579455
0.00163749
-0.000592146
0.00192707
-0.000587651
0.00220759
-0.000569256
0.002474
-0.000540386
0.00272283
-0.000504312
0.00295201
-0.000463955
0.00316063
-0.000421772
0.00334873
-0.000379709
0.00351703
-0.000339205
0.00366674
-0.000301239
0.00379937
-0.000266394
0.00391654
-0.000234938
0.00401992
-0.000206899
0.00411108
-0.00018214
0.00419152
-0.000160421
0.00426257
-0.000141445
0.00432543
-0.000124897
0.00438112
-0.000110469
0.00443057
-9.78726e-05
0.00447453
-8.68499e-05
0.00451368
-7.71744e-05
0.00454859
-6.86517e-05
0.00457974
-6.11165e-05
0.00460757
-5.44295e-05
0.00463242
-4.84738e-05
0.00465462
-4.31512e-05
0.00467444
-3.83794e-05
0.00469212
-3.40892e-05
0.00470787
-3.02222e-05
0.00472187
-2.67289e-05
0.0047343
-2.35675e-05
0.0047453
-2.07021e-05
0.004755
-1.81025e-05
0.00476353
-1.57429e-05
0.00477098
-1.36015e-05
0.00477747
-1.16604e-05
0.00478308
-9.90466e-06
0.00478789
-8.32162e-06
0.004792
-6.89981e-06
0.00479547
-5.62654e-06
-4.48464e-06
0.00479836
8.47564e-07
2.97372e-05
3.23431e-05
-4.79494e-05
0.000109682
-0.00018345
0.000235152
-0.00033995
0.000405786
-0.000492626
0.000614975
-0.000625984
0.000854287
-0.000731912
0.00111467
-0.000807218
0.00138729
-0.000852071
0.00166406
-0.000868921
0.00193804
-0.000861631
0.00220356
-0.000834778
0.0024563
-0.000793122
0.0026932
-0.000741217
0.00291239
-0.000683145
0.00311298
-0.000622362
0.0032949
-0.000561624
0.00345869
-0.000502992
0.00360533
-0.000447884
0.0037361
-0.000397163
0.00385241
-0.000351244
0.00395571
-0.000310196
0.00404742
-0.000273853
0.00412889
-0.000241888
0.00420134
-0.000213894
0.00426587
-0.00018943
0.00432346
-0.000168056
0.00437495
-0.000149364
0.00442108
-0.000132983
0.00446249
-0.000118585
0.00449973
-0.00010589
0.00453327
-9.46562e-05
0.00456352
-8.46801e-05
0.00459084
-7.57902e-05
0.00461553
-6.78418e-05
0.00463786
-6.07137e-05
0.00465808
-5.43033e-05
0.00467638
-4.8524e-05
0.00469295
-4.33025e-05
0.00470796
-3.85763e-05
0.00472155
-3.42922e-05
0.00473385
-3.04049e-05
0.00474498
-2.68757e-05
0.00475506
-2.3672e-05
0.00476416
-2.07667e-05
0.00477239
-1.81371e-05
0.00477984
-1.57642e-05
0.00478657
-1.36303e-05
0.00479266
-1.17164e-05
-9.99641e-06
0.00479817
1.53445e-05
1.43927e-05
7.07177e-05
-0.000103323
0.000170423
-0.000283155
0.000311416
-0.000480943
0.000488541
-0.00066975
0.000695351
-0.000832795
0.000924834
-0.000961394
0.00116989
-0.00105227
0.00142371
-0.00110589
0.00168009
-0.00112531
0.00193364
-0.00111518
0.00217988
-0.00108101
0.00241527
-0.00102851
0.00263724
-0.000963184
0.00284408
-0.000889989
0.00303489
-0.00081317
0.00320941
-0.000736151
0.00336795
-0.000661527
0.00351118
-0.000591119
0.00364008
-0.000526063
0.00375578
-0.000466938
0.00385947
-0.000413889
0.00395237
-0.000366749
0.00403563
-0.000325152
0.00411035
-0.00028861
0.0041775
-0.000256584
0.00423798
-0.000228537
0.00429257
-0.000203955
0.00434196
-0.000182371
0.00438675
-0.000163373
0.00442746
-0.000146599
0.00446454
-0.00013174
0.0044984
-0.000118534
0.00452936
-0.000106758
0.00455775
-9.62245e-05
0.00458381
-8.67738e-05
0.00460778
-7.82721e-05
0.00462986
-7.06056e-05
0.00465023
-6.36778e-05
0.00466906
-5.74061e-05
0.00468649
-5.17202e-05
0.00470265
-4.65599e-05
0.00471764
-4.18737e-05
0.00473159
-3.76182e-05
0.00474458
-3.37569e-05
0.0047567
-3.02592e-05
0.00476804
-2.70992e-05
0.00477866
-2.42532e-05
0.00478864
-2.16954e-05
-1.93905e-05
0.00479803
3.14799e-05
-1.70872e-05
0.000112066
-0.000183908
0.0002329
-0.000403989
0.000385665
-0.000633708
0.000564048
-0.000848134
0.000762701
-0.00103145
0.000976734
-0.00117543
0.00120144
-0.00127698
0.00143228
-0.00133673
0.00166498
-0.00135801
0.00189568
-0.00134588
0.00212096
-0.00130629
0.00233799
-0.00124554
0.00254452
-0.00116972
0.00273894
-0.0010844
0.00292019
-0.000994424
0.00308779
-0.000903754
0.00324172
-0.000815451
0.00338231
-0.000731711
0.0035102
-0.000653952
0.00362621
-0.000582946
0.00373126
-0.000518948
0.00382635
-0.000461838
0.00391244
-0.000411244
0.00399048
-0.000366641
0.00406132
-0.000327429
0.00412577
-0.00029299
0.00418455
-0.000262735
0.0042383
-0.000236117
0.00428757
-0.000212647
0.00433287
-0.000191897
0.00437463
-0.000173497
0.00441322
-0.000157129
0.00444899
-0.000142525
0.00448222
-0.000129453
0.00451317
-0.000117722
0.00454206
-0.000107165
0.0045691
-9.76434e-05
0.00459446
-8.90376e-05
0.0046183
-8.12457e-05
0.00464076
-7.41804e-05
0.00466197
-6.77668e-05
0.00468203
-6.19409e-05
0.00470106
-5.66481e-05
0.00471915
-5.18424e-05
0.00473637
-4.74852e-05
0.00475282
-4.35434e-05
0.00476855
-3.99868e-05
0.00478364
-3.67827e-05
-3.3887e-05
0.00479814
5.70977e-05
-7.41849e-05
0.000162965
-0.000289776
0.000296535
-0.00053756
0.000449851
-0.000787024
0.000618298
-0.00101658
0.000798986
-0.00121214
0.000989749
-0.00136619
0.00118843
-0.00147565
0.00139262
-0.00154093
0.00159973
-0.00156512
0.00180705
-0.00155319
0.0020119
-0.00151115
0.00221181
-0.00144546
0.00240463
-0.00136253
0.00258858
-0.00126835
0.00276235
-0.0011682
0.00292511
-0.00106651
0.00307643
-0.000966773
0.00321628
-0.000871565
0.00334495
-0.000782617
0.00346294
-0.000700932
0.00357091
-0.000626924
0.00366964
-0.000560568
0.00375993
-0.000501531
0.00384257
-0.000449284
0.00391834
-0.0004032
0.00398796
-0.000362612
0.0040521
-0.000326868
0.00411134
-0.000295359
0.00416622
-0.000267532
0.00421723
-0.0002429
0.00426477
-0.000221036
0.00430921
-0.000201572
0.00435088
-0.000184195
0.00439006
-0.000168637
0.00442701
-0.000154669
0.00446194
-0.000142097
0.00449505
-0.000130756
0.00452652
-0.000120505
0.0045565
-0.000111223
0.00458512
-0.000102805
0.00461252
-9.5162e-05
0.00463879
-8.82176e-05
0.00466405
-8.19058e-05
0.00468838
-7.6171e-05
0.00471186
-7.0966e-05
0.00473457
-6.62502e-05
0.00475657
-6.19869e-05
0.00477792
-5.81366e-05
-5.46473e-05
0.00479868
9.48378e-05
-0.000169023
0.000217588
-0.000412526
0.000347314
-0.000667286
0.000483768
-0.000923478
0.000627887
-0.0011607
0.000780363
-0.00136461
0.000941612
-0.00152744
0.00111141
-0.00164545
0.00128873
-0.00171825
0.00147186
-0.00174825
0.00165859
-0.00173993
0.00184647
-0.00169903
0.00203299
-0.00163198
0.00221579
-0.00154533
0.00239279
-0.00144535
0.00256232
-0.00133773
0.00272313
-0.00122732
0.00287442
-0.00111806
0.00301579
-0.00101294
0.0031472
-0.000914031
0.0032689
-0.000822629
0.00338133
-0.000739354
0.00348508
-0.000664318
0.00358082
-0.000597268
0.00366924
-0.000537708
0.00375104
-0.000485003
0.00382689
-0.00043846
0.00389741
-0.000397384
0.00396316
-0.00036111
0.00402466
-0.000329031
0.00408236
-0.000300605
0.00413668
-0.000275354
0.00418797
-0.000252863
0.00423655
-0.000232775
0.0042827
-0.000214785
0.00432666
-0.000198631
0.00436866
-0.000184091
0.00440887
-0.000170973
0.00444748
-0.000159116
0.00448464
-0.000148379
0.00452048
-0.000138641
0.00455511
-0.000129799
0.00458866
-0.000121762
0.00462121
-0.000114455
0.00465285
-0.000107811
0.00468366
-0.000101774
0.0047137
-9.62963e-05
0.00474305
-9.13338e-05
0.00477175
-8.68413e-05
0.00479987
-8.27624e-05
0.00481003
-1.15399e-05
8.42908e-09
0.00482132
-1.1306e-05
8.64014e-09
0.00483238
-1.10697e-05
8.873e-09
0.00484317
-1.07992e-05
9.12175e-09
0.00485362
-1.04551e-05
9.37655e-09
0.00486361
-9.99779e-06
9.62044e-09
0.004873
-9.39983e-06
9.82881e-09
0.00488165
-8.65859e-06
9.97366e-09
0.00488944
-7.80488e-06
1.00267e-08
0.00489633
-6.90152e-06
9.96307e-09
0.00490235
-6.03042e-06
9.76836e-09
0.00490762
-5.27194e-06
9.446e-09
0.00491229
-4.68425e-06
9.01559e-09
0.00491657
-4.29056e-06
8.50764e-09
0.00492064
-4.0783e-06
7.95839e-09
0.00492464
-4.00858e-06
7.40082e-09
0.00492867
-4.03085e-06
6.85501e-09
0.00493276
-4.0965e-06
6.32937e-09
0.00493692
-4.16775e-06
5.8269e-09
0.00494114
-4.22069e-06
5.34752e-09
0.00494537
-4.24395e-06
4.89085e-09
0.00494961
-4.23519e-06
4.45986e-09
0.0049538
-4.19735e-06
4.05759e-09
0.00495793
-4.1356e-06
3.68153e-09
0.00496198
-4.05553e-06
3.32532e-09
0.00496594
-3.96212e-06
2.98298e-09
0.0049698
-3.85944e-06
2.65022e-09
0.00497355
-3.75065e-06
2.32639e-09
0.00497718
-3.63812e-06
2.01407e-09
0.00498071
-3.52361e-06
1.71342e-09
0.00498411
-3.40839e-06
1.41989e-09
0.0049874
-3.29341e-06
1.12911e-09
0.00499058
-3.17935e-06
8.4117e-10
0.00499365
-3.06672e-06
5.61347e-10
0.0049966
-2.9559e-06
3.02333e-10
0.00499945
-2.84717e-06
7.90365e-11
0.00500219
-2.74072e-06
-1.03113e-10
0.00500483
-2.63666e-06
-2.51626e-10
0.00500736
-2.53506e-06
-3.83102e-10
0.0050098
-2.43596e-06
-5.17846e-10
0.00501214
-2.33938e-06
-6.67001e-10
0.00501439
-2.24532e-06
-8.25068e-10
0.00501654
-2.1538e-06
-9.80972e-10
0.00501861
-2.06478e-06
-1.12908e-09
0.00502059
-1.97825e-06
-1.28667e-09
0.00502248
-1.89409e-06
-1.47188e-09
0.0050243
-1.81227e-06
-1.69897e-09
0.00502603
-1.73274e-06
-1.9684e-09
0.00502769
-1.6555e-06
-2.26742e-09
0.00502927
-1.58052e-06
-2.58254e-09
0.00503078
-1.50778e-06
-2.89865e-09
0.00503222
-1.43724e-06
-3.18979e-09
0.0050336
-1.36891e-06
-3.43336e-09
0.0050349
-1.30274e-06
-3.63085e-09
0.00503615
-1.23868e-06
-3.77533e-09
0.00503733
-1.17668e-06
-3.87248e-09
0.00503845
-1.11668e-06
-3.94397e-09
0.00503951
-1.05862e-06
-4.03313e-09
0.00504052
-1.00246e-06
-4.16522e-09
0.00504147
-9.4816e-07
-4.33354e-09
0.00504237