/*--------------------------------*- C++ -*----------------------------------*\
| =========                 |                                                 |
| \\      /  F ield         | OpenFOAM: The Open Source CFD Toolbox           |
|  \\    /   O peration     | Version:  2412                                  |
|   \\  /    A nd           | Website:  www.openfoam.com                      |
|    \\/     M anipulation  |                                                 |
\*---------------------------------------------------------------------------*/
FoamFile
{
    version     2.0;
    format      ascii;
    arch        "LSB;label=32;scalar=64";
    class       volVectorField;
    location    "5";
    object      U;
}
// * * * * * * * * * * * * * * * * * * * * * * * * * * * * * * * * * * * * * //

dimensions      [0 1 -1 0 0 0 0];

internalField   nonuniform List<vector> 
63420
(
(0.100321 2.79758e-08 0)
(0.0997687 1.29658e-05 0)
(0.0999713 2.3894e-05 0)
(0.0996873 2.68791e-05 0)
(0.099577 2.04483e-05 0)
(0.0994972 1.22302e-05 0)
(0.099446 6.38666e-06 0)
(0.0994253 3.76784e-06 0)
(0.0994086 3.48767e-06 0)
(0.0993893 4.32511e-06 0)
(0.0993652 5.48497e-06 0)
(0.099336 6.60263e-06 0)
(0.0993025 7.56823e-06 0)
(0.0992656 8.38703e-06 0)
(0.0992261 9.09906e-06 0)
(0.0991844 9.74543e-06 0)
(0.0991409 1.03587e-05 0)
(0.0990956 1.09625e-05 0)
(0.0990488 1.15731e-05 0)
(0.0990004 1.22018e-05 0)
(0.0989504 1.28568e-05 0)
(0.0988987 1.35441e-05 0)
(0.0988454 1.42683e-05 0)
(0.0987904 1.50333e-05 0)
(0.0987335 1.58421e-05 0)
(0.0986747 1.66975e-05 0)
(0.0986141 1.76023e-05 0)
(0.0985513 1.85591e-05 0)
(0.0984865 1.95707e-05 0)
(0.0984195 2.06398e-05 0)
(0.0983502 2.17692e-05 0)
(0.0982786 2.2962e-05 0)
(0.0982046 2.4221e-05 0)
(0.098128 2.55497e-05 0)
(0.0980489 2.69516e-05 0)
(0.097967 2.84305e-05 0)
(0.0978824 2.99904e-05 0)
(0.0977949 3.1636e-05 0)
(0.0977044 3.33721e-05 0)
(0.0976108 3.5204e-05 0)
(0.097514 3.71375e-05 0)
(0.097414 3.91791e-05 0)
(0.0973105 4.13358e-05 0)
(0.0972035 4.36159e-05 0)
(0.0970928 4.60285e-05 0)
(0.0969782 4.8584e-05 0)
(0.0968597 5.12948e-05 0)
(0.0967371 5.4175e-05 0)
(0.09661 5.72412e-05 0)
(0.0964784 6.0512e-05 0)
(0.096342 6.40081e-05 0)
(0.0962005 6.77489e-05 0)
(0.0960537 7.17501e-05 0)
(0.0959012 7.60222e-05 0)
(0.0957428 8.05848e-05 0)
(0.100321 7.38305e-08 0)
(0.0997691 3.85941e-05 0)
(0.0999741 7.11132e-05 0)
(0.0996931 8.01658e-05 0)
(0.099584 6.11565e-05 0)
(0.0995042 3.67941e-05 0)
(0.0994519 1.94361e-05 0)
(0.0994299 1.16317e-05 0)
(0.099412 1.07726e-05 0)
(0.0993917 1.32395e-05 0)
(0.099367 1.66721e-05 0)
(0.0993374 1.9987e-05 0)
(0.0993036 2.28564e-05 0)
(0.0992666 2.52946e-05 0)
(0.099227 2.74191e-05 0)
(0.0991853 2.93511e-05 0)
(0.0991417 3.11867e-05 0)
(0.0990965 3.2995e-05 0)
(0.0990497 3.48244e-05 0)
(0.0990013 3.67086e-05 0)
(0.0989514 3.86717e-05 0)
(0.0988998 4.07316e-05 0)
(0.0988465 4.2902e-05 0)
(0.0987915 4.51941e-05 0)
(0.0987347 4.76173e-05 0)
(0.0986761 5.01801e-05 0)
(0.0986154 5.28907e-05 0)
(0.0985528 5.5757e-05 0)
(0.0984881 5.8787e-05 0)
(0.0984212 6.19889e-05 0)
(0.098352 6.5371e-05 0)
(0.0982805 6.89422e-05 0)
(0.0982066 7.27119e-05 0)
(0.0981301 7.66898e-05 0)
(0.0980511 8.08866e-05 0)
(0.0979694 8.53136e-05 0)
(0.0978849 8.99833e-05 0)
(0.0977975 9.49088e-05 0)
(0.0977072 0.000100105 0)
(0.0976138 0.000105587 0)
(0.0975173 0.000111372 0)
(0.0974174 0.000117481 0)
(0.0973142 0.000123933 0)
(0.0972074 0.000130754 0)
(0.097097 0.00013797 0)
(0.0969828 0.000145612 0)
(0.0968646 0.000153718 0)
(0.0967423 0.000162328 0)
(0.0966157 0.000171492 0)
(0.0964846 0.000181265 0)
(0.0963487 0.000191707 0)
(0.0962078 0.000202877 0)
(0.0960616 0.00021482 0)
(0.0959099 0.000227568 0)
(0.0957524 0.000241176 0)
(0.100321 8.99581e-08 0)
(0.0997699 6.34089e-05 0)
(0.0999797 0.000116886 0)
(0.0997046 0.000132339 0)
(0.099598 0.000101496 0)
(0.0995181 6.16956e-05 0)
(0.0994636 3.31868e-05 0)
(0.0994389 2.02473e-05 0)
(0.0994186 1.86941e-05 0)
(0.0993965 2.26266e-05 0)
(0.0993706 2.81825e-05 0)
(0.0993402 3.35803e-05 0)
(0.0993059 3.82733e-05 0)
(0.0992686 4.22766e-05 0)
(0.0992288 4.57776e-05 0)
(0.0991871 4.8971e-05 0)
(0.0991435 5.2012e-05 0)
(0.0990983 5.50129e-05 0)
(0.0990516 5.8052e-05 0)
(0.0990033 6.11844e-05 0)
(0.0989534 6.44495e-05 0)
(0.0989019 6.78765e-05 0)
(0.0988488 7.14878e-05 0)
(0.0987939 7.53019e-05 0)
(0.0987372 7.93343e-05 0)
(0.0986787 8.35992e-05 0)
(0.0986183 8.81099e-05 0)
(0.0985558 9.28795e-05 0)
(0.0984912 9.79213e-05 0)
(0.0984245 0.000103249 0)
(0.0983555 0.000108876 0)
(0.0982843 0.000114817 0)
(0.0982106 0.000121088 0)
(0.0981344 0.000127704 0)
(0.0980556 0.000134685 0)
(0.0979742 0.000142047 0)
(0.09789 0.000149812 0)
(0.097803 0.000158002 0)
(0.097713 0.000166641 0)
(0.09762 0.000175753 0)
(0.0975238 0.000185369 0)
(0.0974244 0.00019552 0)
(0.0973217 0.00020624 0)
(0.0972154 0.000217569 0)
(0.0971055 0.000229551 0)
(0.0969919 0.000242238 0)
(0.0968744 0.000255688 0)
(0.0967529 0.00026997 0)
(0.0966271 0.000285161 0)
(0.0964969 0.000301351 0)
(0.096362 0.000318638 0)
(0.0962223 0.000337113 0)
(0.0960775 0.000356851 0)
(0.0959273 0.000377899 0)
(0.0957715 0.000400342 0)
(0.10032 4.49023e-08 0)
(0.0997712 8.68616e-05 0)
(0.0999881 0.000160261 0)
(0.0997218 0.000182708 0)
(0.0996185 0.000141258 0)
(0.0995384 8.71736e-05 0)
(0.0994807 4.80976e-05 0)
(0.099452 3.00942e-05 0)
(0.0994283 2.76527e-05 0)
(0.0994036 3.27808e-05 0)
(0.0993759 4.02159e-05 0)
(0.0993443 4.75107e-05 0)
(0.0993093 5.38969e-05 0)
(0.0992716 5.93777e-05 0)
(0.0992317 6.41967e-05 0)
(0.0991898 6.86121e-05 0)
(0.0991462 7.28314e-05 0)
(0.0991011 7.70052e-05 0)
(0.0990544 8.12392e-05 0)
(0.0990062 8.5608e-05 0)
(0.0989565 9.01649e-05 0)
(0.0989052 9.49498e-05 0)
(0.0988522 9.99935e-05 0)
(0.0987975 0.000105321 0)
(0.0987411 0.000110954 0)
(0.0986828 0.000116912 0)
(0.0986225 0.000123213 0)
(0.0985603 0.000129876 0)
(0.098496 0.000136918 0)
(0.0984296 0.000144359 0)
(0.0983609 0.000152218 0)
(0.09829 0.000160515 0)
(0.0982166 0.000169271 0)
(0.0981408 0.000178509 0)
(0.0980624 0.000188254 0)
(0.0979814 0.000198531 0)
(0.0978977 0.000209368 0)
(0.0978112 0.000220797 0)
(0.0977217 0.000232849 0)
(0.0976293 0.00024556 0)
(0.0975337 0.000258969 0)
(0.097435 0.000273121 0)
(0.0973329 0.000288062 0)
(0.0972274 0.000303847 0)
(0.0971184 0.000320535 0)
(0.0970057 0.000338197 0)
(0.0968892 0.000356909 0)
(0.0967687 0.000376765 0)
(0.0966442 0.000397869 0)
(0.0965153 0.00042034 0)
(0.096382 0.000444305 0)
(0.096244 0.000469888 0)
(0.0961011 0.000497183 0)
(0.0959532 0.000526251 0)
(0.0957999 0.000557197 0)
(0.10032 -1.06957e-07 0)
(0.0997729 0.000108459 0)
(0.0999991 0.000200311 0)
(0.0997442 0.000230671 0)
(0.0996449 0.000180283 0)
(0.0995645 0.000113467 0)
(0.0995025 6.45978e-05 0)
(0.0994688 4.16086e-05 0)
(0.0994407 3.80067e-05 0)
(0.0994127 4.39628e-05 0)
(0.0993828 5.29475e-05 0)
(0.0993497 6.18896e-05 0)
(0.0993139 6.97946e-05 0)
(0.0992756 7.66353e-05 0)
(0.0992354 8.26939e-05 0)
(0.0991934 8.82785e-05 0)
(0.0991499 9.36393e-05 0)
(0.0991048 9.89594e-05 0)
(0.0990583 0.000104368 0)
(0.0990102 0.000109957 0)
(0.0989607 0.000115792 0)
(0.0989096 0.000121922 0)
(0.0988568 0.000128386 0)
(0.0988024 0.000135215 0)
(0.0987462 0.000142437 0)
(0.0986882 0.000150075 0)
(0.0986283 0.000158153 0)
(0.0985664 0.000166695 0)
(0.0985025 0.000175723 0)
(0.0984365 0.000185261 0)
(0.0983682 0.000195333 0)
(0.0982977 0.000205965 0)
(0.0982248 0.000217185 0)
(0.0981495 0.000229021 0)
(0.0980716 0.000241503 0)
(0.0979912 0.000254665 0)
(0.097908 0.000268542 0)
(0.0978221 0.000283173 0)
(0.0977334 0.000298598 0)
(0.0976417 0.000314862 0)
(0.097547 0.000332016 0)
(0.0974491 0.000350112 0)
(0.0973479 0.00036921 0)
(0.0972435 0.000389378 0)
(0.0971356 0.000410689 0)
(0.0970241 0.000433228 0)
(0.0969089 0.000457092 0)
(0.0967899 0.000482392 0)
(0.0966669 0.000509253 0)
(0.0965398 0.00053782 0)
(0.0964085 0.000568243 0)
(0.0962727 0.000600668 0)
(0.0961324 0.000635205 0)
(0.0959873 0.000671918 0)
(0.0958373 0.000710916 0)
(0.100319 -4.36132e-07 0)
(0.0997751 0.000127759 0)
(0.100012 0.000236255 0)
(0.0997707 0.000275731 0)
(0.0996758 0.000218463 0)
(0.0995951 0.000140789 0)
(0.0995281 8.30488e-05 0)
(0.0994885 5.515e-05 0)
(0.0994553 5.00476e-05 0)
(0.0994235 5.63829e-05 0)
(0.0993909 6.65176e-05 0)
(0.0993562 7.68052e-05 0)
(0.0993194 8.60186e-05 0)
(0.0992806 9.40775e-05 0)
(0.09924 0.000101281 0)
(0.099198 0.00010797 0)
(0.0991544 0.000114428 0)
(0.0991094 0.000120862 0)
(0.099063 0.00012742 0)
(0.0990152 0.000134208 0)
(0.0989659 0.000141304 0)
(0.0989151 0.000148763 0)
(0.0988626 0.000156633 0)
(0.0988085 0.000164948 0)
(0.0987527 0.000173743 0)
(0.098695 0.000183045 0)
(0.0986355 0.000192884 0)
(0.0985741 0.000203286 0)
(0.0985106 0.00021428 0)
(0.098445 0.000225893 0)
(0.0983773 0.000238155 0)
(0.0983073 0.000251098 0)
(0.098235 0.000264752 0)
(0.0981603 0.000279155 0)
(0.0980831 0.000294341 0)
(0.0980033 0.00031035 0)
(0.097921 0.000327226 0)
(0.0978359 0.000345012 0)
(0.097748 0.000363759 0)
(0.0976572 0.00038352 0)
(0.0975635 0.000404353 0)
(0.0974667 0.000426322 0)
(0.0973667 0.000449497 0)
(0.0972635 0.000473956 0)
(0.097157 0.000499785 0)
(0.097047 0.000527083 0)
(0.0969334 0.000555959 0)
(0.0968162 0.000586541 0)
(0.0966952 0.000618971 0)
(0.0965703 0.000653408 0)
(0.0964413 0.000690022 0)
(0.0963083 0.00072897 0)
(0.096171 0.000770369 0)
(0.0960293 0.000814272 0)
(0.0958832 0.000860759 0)
(0.100318 -9.48133e-07 0)
(0.0997774 0.000144005 0)
(0.100027 0.000267916 0)
(0.0997998 0.000317366 0)
(0.0997094 0.000255763 0)
(0.0996284 0.000169297 0)
(0.099556 0.000103686 0)
(0.09951 7.09665e-05 0)
(0.0994714 6.39738e-05 0)
(0.0994354 7.01831e-05 0)
(0.0994001 8.10215e-05 0)
(0.0993636 9.23175e-05 0)
(0.0993256 0.000102604 0)
(0.0992862 0.000111721 0)
(0.0992454 0.000119963 0)
(0.0992032 0.000127684 0)
(0.0991597 0.000135187 0)
(0.0991148 0.000142696 0)
(0.0990686 0.000150375 0)
(0.099021 0.000158339 0)
(0.098972 0.000166674 0)
(0.0989215 0.000175444 0)
(0.0988694 0.0001847 0)
(0.0988157 0.000194484 0)
(0.0987603 0.000204833 0)
(0.0987031 0.00021578 0)
(0.098644 0.000227358 0)
(0.0985831 0.000239599 0)
(0.0985201 0.000252534 0)
(0.0984551 0.000266197 0)
(0.098388 0.000280621 0)
(0.0983186 0.000295842 0)
(0.098247 0.000311898 0)
(0.0981731 0.000328829 0)
(0.0980967 0.000346677 0)
(0.0980178 0.000365489 0)
(0.0979363 0.000385312 0)
(0.0978522 0.000406199 0)
(0.0977653 0.000428206 0)
(0.0976757 0.000451395 0)
(0.0975831 0.000475831 0)
(0.0974876 0.000501587 0)
(0.097389 0.000528741 0)
(0.0972873 0.000557382 0)
(0.0971824 0.000587606 0)
(0.0970741 0.00061952 0)
(0.0969625 0.000653247 0)
(0.0968474 0.000688923 0)
(0.0967286 0.000726703 0)
(0.0966063 0.000766755 0)
(0.0964801 0.000809256 0)
(0.0963502 0.00085437 0)
(0.0962163 0.000902207 0)
(0.0960786 0.000952789 0)
(0.0959368 0.0010061 0)
(0.0955777 8.55427e-05 -5.21607e-24)
(0.0954043 9.05623e-05 -5.30898e-24)
(0.0952215 9.54982e-05 -3.39512e-26)
(0.0950298 0.000100099 1.62803e-23)
(0.0948297 0.000104114 -5.39437e-24)
(0.0946226 0.000107692 -5.54065e-24)
(0.0944099 0.000110636 -1.70294e-23)
(0.0941926 0.00011312 1.69152e-23)
(0.0939713 0.000115513 5.77771e-24)
(0.0937458 0.000118302 0)
(0.0935149 0.000122015 5.95597e-24)
(0.0932763 0.000127135 -6.052e-24)
(0.0930271 0.000134029 4.97013e-23)
(0.0927635 0.000142913 -1.06462e-22)
(0.092482 0.000153861 5.68715e-23)
(0.0921785 0.000166834 4.59898e-23)
(0.0918495 0.000181731 5.90158e-23)
(0.0914915 0.000198442 -6.74912e-24)
(0.0911015 0.000216891 6.88986e-24)
(0.0906763 0.000237064 -7.03909e-24)
(0.0902128 0.00025903 0)
(0.0897078 0.000282936 7.36586e-24)
(0.0891577 0.000309017 -7.54496e-24)
(0.0885583 0.000337587 0)
(0.0879049 0.000369041 -7.93914e-24)
(0.0871921 0.00040386 0)
(0.0864134 0.000442616 -8.38863e-24)
(0.0855612 0.000485988 -1.40493e-22)
(0.0846267 0.000534785 1.49182e-22)
(0.0835996 0.000589977 -1.49701e-22)
(0.0824675 0.000652735 1.49473e-22)
(0.0812159 0.000724496 0)
(0.0798274 0.000807032 0)
(0.0782814 0.000902556 1.83436e-22)
(0.0765525 0.00101385 -1.72597e-22)
(0.0746104 0.00114441 0)
(0.0724174 0.00129869 0)
(0.0699275 0.00148221 0)
(0.0670837 0.00170174 0)
(0.0638162 0.00196507 0)
(0.0600409 0.00228024 0)
(0.0556599 0.00265345 0)
(0.0505674 0.00308502 0)
(0.044664 0.00356242 0)
(0.037888 0.00404973 -1.7498e-23)
(0.030268 0.00447334 -6.04732e-22)
(0.0219838 0.00470586 6.03825e-22)
(0.0134651 0.00455127 6.5944e-22)
(0.00580481 0.00371347 -6.5845e-22)
(0.00119136 0.00174242 0)
(0.0955881 0.00025597 -5.27168e-24)
(0.0954154 0.000270976 -1.07352e-23)
(0.0952334 0.000285746 -5.60841e-24)
(0.0950422 0.000299653 5.24972e-24)
(0.0948428 0.000312103 -5.46411e-24)
(0.0946361 0.000322875 3.90928e-23)
(0.0944232 0.000331837 -6.13922e-23)
(0.0942053 0.000339518 5.69357e-24)
(0.0939827 0.000346978 7.58615e-23)
(0.0937554 0.000355639 -1.04782e-22)
(0.093522 0.000367049 -1.0211e-22)
(0.0932806 0.000382624 8.99754e-23)
(0.0930282 0.000403444 0)
(0.0927615 0.000430154 6.26583e-24)
(0.0924769 0.000462972 -1.91301e-23)
(0.0921706 0.000501789 -2.16612e-22)
(0.0918392 0.00054632 2.07679e-22)
(0.0914793 0.000596252 -2.2077e-22)
(0.0910878 0.000651373 -2.07015e-23)
(0.0906617 0.000711662 7.05453e-24)
(0.0901979 0.000777332 0)
(0.0896931 0.000848839 -7.38494e-24)
(0.0891436 0.000926887 -2.37734e-22)
(0.0885454 0.00101242 4.96644e-22)
(0.0878939 0.00110663 2.73573e-22)
(0.0871834 0.00121095 -5.16254e-22)
(0.0864078 0.00132709 5.55432e-22)
(0.0855596 0.00145709 -5.63604e-22)
(0.08463 0.00160336 -8.93934e-24)
(0.083609 0.0017688 0)
(0.0824844 0.00195692 0)
(0.0812422 0.00217201 0)
(0.0798655 0.00241934 0)
(0.0783342 0.00270552 -1.06285e-23)
(0.0766242 0.00303881 -7.2176e-22)
(0.074706 0.00342967 -3.14119e-23)
(0.072544 0.00389123 7.51215e-22)
(0.0700945 0.00443992 8.20995e-22)
(0.0673036 0.0050957 -8.19907e-22)
(0.0641056 0.00588154 -2.73465e-23)
(0.0604214 0.00682088 -2.86619e-23)
(0.0561585 0.00793149 -9.94024e-22)
(0.0512157 0.00921326 9.61194e-22)
(0.0454952 0.0106276 -3.30157e-23)
(0.0389286 0.0120661 1.76204e-23)
(0.0315224 0.013309 -1.23026e-21)
(0.0234122 0.0139768 1.22996e-21)
(0.0149501 0.0134878 -2.57854e-21)
(0.00707546 0.0109748 2.53541e-21)
(0.00171351 0.00511249 -2.59726e-21)
(0.0956088 0.00042475 -3.12097e-23)
(0.0954375 0.000449645 -1.09101e-23)
(0.0952569 0.000474272 4.21896e-23)
(0.0950673 0.000497651 -8.66131e-23)
(0.094869 0.00051887 1.85234e-22)
(0.094663 0.000537183 -8.77042e-23)
(0.0944501 0.000552709 1.4948e-26)
(0.094231 0.00056632 1.13579e-23)
(0.0940063 0.000579697 1.97713e-22)
(0.0937756 0.000595103 -1.85977e-22)
(0.0935379 0.000615011 0)
(0.0932913 0.000641684 1.48659e-26)
(0.0930333 0.000676856 0)
(0.0927608 0.000721566 2.1516e-22)
(0.0924706 0.000776178 -1.89655e-22)
(0.0921594 0.000840546 -4.07999e-22)
(0.0918237 0.000914244 2.22294e-23)
(0.0914605 0.000996812 -4.29166e-22)
(0.0910667 0.00108796 1.38527e-23)
(0.0906392 0.00118769 -4.58398e-22)
(0.090175 0.00129642 4.72436e-22)
(0.0896709 0.00141491 -4.80643e-22)
(0.0891232 0.00154437 4.95376e-22)
(0.0885278 0.00168636 1.55772e-23)
(0.0878801 0.00184287 -1.59942e-23)
(0.0871749 0.00201627 1.64388e-23)
(0.0864058 0.00220942 -5.50181e-22)
(0.0855658 0.00242568 5.67113e-22)
(0.0846464 0.00266905 6.03129e-22)
(0.083638 0.00294434 -5.84612e-22)
(0.082529 0.00325735 0)
(0.0813061 0.00361515 0)
(0.0799534 0.00402647 2.05585e-23)
(0.0784523 0.00450215 1.41761e-21)
(0.0767804 0.00505579 3.53892e-23)
(0.074911 0.00570445 -1.42808e-21)
(0.0728118 0.0064696 0)
(0.0704439 0.00737789 -2.50632e-23)
(0.0677597 0.00846157 1.75108e-21)
(0.0647018 0.00975734 -3.50147e-21)
(0.061201 0.0113021 3.72485e-21)
(0.0571758 0.0131226 1.2133e-22)
(0.0525341 0.015215 -1.94752e-21)
(0.0471806 0.0175116 -2.1303e-21)
(0.0410329 0.0198306 2.19548e-21)
(0.0340517 0.0218092 1.64884e-24)
(0.0262825 0.0228253 -3.77353e-23)
(0.0179242 0.021926 2.49202e-21)
(0.00959556 0.0177322 -2.41309e-21)
(0.00271628 0.00818385 -2.41125e-21)
(0.0956396 0.000590888 2.05738e-23)
(0.0954704 0.000625478 -1.04289e-23)
(0.095292 0.000659876 2.05176e-26)
(0.0951045 0.000692746 1.07091e-23)
(0.0949082 0.000722821 -2.06763e-26)
(0.0947033 0.0007493 1.77455e-22)
(0.0944906 0.000772289 -3.3515e-22)
(0.0942706 0.000792953 1.8003e-22)
(0.0940433 0.000813518 -1.15083e-23)
(0.0938085 0.000836971 2.12356e-22)
(0.0935654 0.000866568 -1.88878e-22)
(0.0933123 0.000905291 -3.91143e-22)
(0.0930472 0.000955428 7.8935e-22)
(0.0927676 0.00101837 -8.04058e-22)
(0.0924706 0.00109462 8.19509e-22)
(0.0921532 0.00118404 -8.22778e-22)
(0.0918124 0.00128614 -4.35359e-22)
(0.0914454 0.0014004 2.1378e-26)
(0.0910491 0.00152651 0)
(0.0906206 0.00166461 -4.46518e-22)
(0.0901569 0.0018153 4.60549e-22)
(0.0896547 0.00197975 0)
(0.0891103 0.00215964 -9.92328e-22)
(0.08852 0.00235717 9.76239e-22)
(0.087879 0.00257511 1.61464e-23)
(0.0871824 0.00281678 -3.45388e-26)
(0.0864241 0.00308611 1.7056e-23)
(0.0855973 0.00338781 0)
(0.0846943 0.00372741 -5.00701e-26)
(0.0837058 0.00411159 0)
(0.0826214 0.00454835 -1.93518e-23)
(0.0814288 0.00504748 1.30861e-21)
(0.0801137 0.00562099 -1.30824e-21)
(0.0786594 0.00628378 -2.16509e-23)
(0.0770466 0.00705444 4.48741e-23)
(0.0752522 0.00795621 -1.54982e-21)
(0.0732493 0.00901814 1.50163e-21)
(0.071006 0.0102761 2.54965e-23)
(0.0684844 0.011773 -3.64133e-25)
(0.0656394 0.0135571 2.73903e-23)
(0.0624166 0.0156755 -1.88982e-21)
(0.0587508 0.0181596 3.82943e-21)
(0.0545636 0.0209975 -2.00089e-21)
(0.0497627 0.0240878 2.09137e-21)
(0.0442439 0.0271747 -2.1896e-21)
(0.0378978 0.0297613 -4.39081e-21)
(0.0306278 0.0310045 8.96805e-21)
(0.0224041 0.0296056 -4.54529e-21)
(0.0134143 0.0237239 0)
(0.00420413 0.0108192 -4.264e-21)
(0.0956801 0.000753417 -1.02052e-23)
(0.0955135 0.000797376 -4.16304e-23)
(0.0953381 0.000841287 1.26115e-22)
(0.0951535 0.000883606 -1.7015e-22)
(0.0949598 0.000922861 7.49083e-23)
(0.0947569 0.00095815 1.09661e-23)
(0.0945452 0.000989596 -1.1138e-23)
(0.0943246 0.0010186 -2.6025e-26)
(0.0940952 0.00104784 1.1506e-23)
(0.0938566 0.00108086 -2.33808e-23)
(0.0936081 0.00112154 -3.84141e-22)
(0.0933486 0.00117341 3.96441e-22)
(0.0930764 0.00123921 -3.86426e-22)
(0.0927895 0.0013206 3.98912e-22)
(0.0924857 0.00141827 0)
(0.0921624 0.00153211 -2.40986e-26)
(0.091817 0.00166165 0)
(0.0914469 0.00180639 -4.28963e-22)
(0.0910491 0.00196614 4.56837e-22)
(0.090621 0.0021412 -1.43362e-23)
(0.0901594 0.00233246 -9.65475e-22)
(0.0896612 0.00254147 9.5122e-22)
(0.0891228 0.00277043 -1.54537e-23)
(0.0885405 0.00302219 0)
(0.08791 0.00330025 0)
(0.0872263 0.00360885 -1.10621e-21)
(0.086484 0.00395301 1.07261e-21)
(0.0856767 0.00433867 0)
(0.0847973 0.00477287 -3.67826e-23)
(0.0838376 0.00526403 0)
(0.0827883 0.0058223 1.96913e-23)
(0.0816387 0.00645999 -2.03162e-23)
(0.0803765 0.00719218 -2.11533e-23)
(0.078988 0.00803746 2.18409e-23)
(0.0774574 0.00901891 1.43904e-21)
(0.075767 0.0101652 -1.48521e-21)
(0.0738968 0.0115119 3.24027e-21)
(0.0718243 0.0131025 -3.24246e-21)
(0.0695244 0.0149884 3.46092e-21)
(0.0669684 0.0172261 1.12837e-22)
(0.0641219 0.019869 -3.66057e-21)
(0.0609412 0.0229484 -2.95006e-23)
(0.0573661 0.0264392 1.33217e-24)
(0.0533084 0.0302044 1.80041e-24)
(0.0486364 0.0339175 2.42853e-24)
(0.0431513 0.0369645 -6.51135e-23)
(0.0365662 0.0383207 -3.00322e-23)
(0.0285325 0.0363937 -2.85323e-23)
(0.0186823 0.0289054 0)
(0.00620018 0.0130043 8.84819e-24)
(0.0957297 0.000911453 -5.06429e-23)
(0.0955663 0.000964419 3.0463e-23)
(0.0953944 0.00101765 1.04048e-23)
(0.0952135 0.00106945 1.59488e-22)
(0.0950233 0.00111823 -1.59559e-22)
(0.0948235 0.00116302 1.64718e-22)
(0.0946137 0.00120401 -3.65459e-22)
(0.0943938 0.00124279 5.19655e-22)
(0.0941635 0.00128238 -3.63873e-22)
(0.0939223 0.00132673 -3.76689e-22)
(0.0936698 0.00138018 -1.85128e-23)
(0.0934051 0.00144666 7.63776e-22)
(0.0931271 0.00152922 -8.0372e-22)
(0.0928345 0.00162976 3.74699e-22)
(0.0925254 0.0017491 4.03584e-22)
(0.0921978 0.00188725 4.21138e-22)
(0.0918496 0.00204384 -3.16806e-23)
(0.0914782 0.00221851 8.5834e-22)
(0.0910812 0.00241124 8.84877e-22)
(0.0906557 0.0026226 2.16107e-23)
(0.090199 0.00285387 -9.37383e-22)
(0.0897079 0.00310701 0)
(0.0891792 0.00338479 0)
(0.0886091 0.0036907 -1.04225e-21)
(0.0879938 0.00402902 1.02728e-21)
(0.0873287 0.0044049 1.10571e-21)
(0.0866088 0.00482442 -1.10735e-21)
(0.0858286 0.00529477 0)
(0.0849818 0.00582448 1.23578e-21)
(0.0840615 0.00642369 -1.23817e-21)
(0.0830598 0.00710461 0)
(0.0819681 0.00788195 -2.68249e-21)
(0.0807769 0.00877368 2.70732e-21)
(0.0794758 0.00980173 -2.2392e-23)
(0.0780538 0.0109931 -3.00319e-21)
(0.0764996 0.0123808 3.03102e-21)
(0.0748019 0.0140052 0)
(0.07295 0.0159146 3.42674e-21)
(0.0709346 0.0181645 -3.40568e-21)
(0.0687473 0.0208133 2.77965e-23)
(0.066379 0.0239117 3.80737e-21)
(0.0638136 0.0274794 -7.66141e-21)
(0.0610147 0.031466 -2.07421e-24)
(0.0579035 0.0356893 1.84202e-23)
(0.0543222 0.0397526 4.03576e-21)
(0.0499782 0.042947 4.30046e-24)
(0.0443721 0.0441273 -3.49761e-21)
(0.0367486 0.0415249 3.58548e-21)
(0.0259136 0.0326136 0)
(0.00899234 0.0144118 3.15171e-23)
(0.0957876 0.00106413 9.97934e-24)
(0.095628 0.00112543 9.18166e-23)
(0.0954603 0.00118747 -8.1878e-23)
(0.095284 0.00124845 1.0493e-23)
(0.0950983 0.00130674 1.61065e-22)
(0.0949026 0.00136137 -1.61332e-22)
(0.0946963 0.00141259 -3.44885e-22)
(0.0944788 0.00146215 5.53757e-24)
(0.0942495 0.00151331 -6.01518e-24)
(0.094008 0.00157034 3.82225e-22)
(0.0937539 0.00163783 -3.72587e-22)
(0.0934868 0.00171999 7.90237e-22)
(0.0932059 0.00182009 -3.93567e-22)
(0.0929103 0.0019402 1.2701e-23)
(0.0925989 0.00208128 1.29852e-23)
(0.09227 0.00224349 8.57918e-22)
(0.0919219 0.00242666 -4.83977e-24)
(0.0915525 0.00263063 8.94746e-22)
(0.0911595 0.00285572 1.428e-23)
(0.0907405 0.00310284 0)
(0.0902926 0.00337372 0)
(0.0898132 0.00367085 -1.00028e-21)
(0.0892991 0.00399761 1.00281e-21)
(0.088747 0.0043582 0)
(0.0881534 0.00475776 1.68441e-23)
(0.0875144 0.00520239 0)
(0.0868258 0.00569932 -1.16255e-21)
(0.0860829 0.00625709 2.36673e-21)
(0.0852807 0.00688581 -1.20426e-21)
(0.0844138 0.00759748 -2.55265e-21)
(0.0834762 0.00840648 -8.66273e-23)
(0.082462 0.00933011 -9.20553e-23)
(0.0813649 0.0103893 -9.75787e-23)
(0.0801787 0.0116093 2.87515e-21)
(0.078898 0.0130209 3.09345e-21)
(0.0775188 0.014661 -3.10082e-21)
(0.0760395 0.0165734 0)
(0.0744621 0.0188082 3.45944e-21)
(0.0727941 0.0214198 -3.46747e-21)
(0.0710489 0.0244591 -3.71651e-21)
(0.0692439 0.0279584 3.69612e-21)
(0.0673931 0.0319032 3.04182e-23)
(0.0654895 0.0361868 3.79059e-21)
(0.0634728 0.040546 -9.75406e-23)
(0.0611782 0.0444832 -3.77095e-21)
(0.0582526 0.0471912 2.88979e-23)
(0.0540435 0.0474839 0)
(0.0474788 0.0436649 -2.29878e-23)
(0.0363488 0.0334638 -1.0813e-21)
(0.0144815 0.0143045 5.09713e-22)
(-0.000225988 0.000195683 0)
(-0.000465516 1.93399e-06 2.6458e-22)
(-5.42136e-05 -0.00047098 -2.64977e-22)
(0.00131388 -0.00104152 -2.29865e-22)
(0.00372069 -0.00161349 2.3021e-22)
(0.00709961 -0.00212208 -6.12182e-24)
(0.0112993 -0.00253117 0)
(0.0161281 -0.00282565 0)
(0.0213826 -0.00300481 0)
(0.0268668 -0.00307756 0)
(0.0324053 -0.00305876 0)
(0.0378511 -0.00296625 0)
(0.0430886 -0.00281855 0)
(0.0480339 -0.00263325 0)
(0.0526323 -0.00242595 0)
(0.0568546 -0.00220962 7.46475e-24)
(0.0606923 -0.00199445 -7.03783e-24)
(0.0641529 -0.00178788 0)
(0.0672552 -0.00159489 0)
(0.0700253 -0.00141838 -4.17988e-24)
(0.0724933 -0.00125958 4.18627e-24)
(0.0746905 -0.00111853 -4.04344e-24)
(0.0766477 -0.000994406 2.88562e-25)
(0.078394 -0.000885884 0)
(0.0799558 -0.000791372 3.20012e-25)
(0.0813566 -0.000709211 0)
(0.0826173 -0.000637785 0)
(0.0837558 -0.000575593 0)
(0.0847874 -0.000521301 3.87295e-25)
(0.0857255 -0.000473747 0)
(0.0865813 -0.00043194 -4.13624e-25)
(0.0873645 -0.000395039 4.24452e-25)
(0.0880833 -0.00036234 -4.33754e-25)
(0.088745 -0.000333254 3.97877e-24)
(0.0893555 -0.00030729 -3.99071e-24)
(0.0899204 -0.000284035 -3.1716e-24)
(0.0904442 -0.000263147 6.82762e-24)
(0.0909311 -0.000244336 -3.66009e-24)
(0.0913845 -0.000227357 -4.62203e-25)
(0.0918078 -0.000212004 4.63278e-25)
(0.0922037 -0.000198102 0)
(0.0925747 -0.000185502 4.6309e-25)
(0.0929233 -0.000174079 -2.30204e-24)
(0.0932515 -0.000163727 2.30322e-24)
(0.0935611 -0.00015436 -4.58074e-25)
(0.093854 -0.000145905 1.36136e-24)
(0.0941318 -0.000138303 -4.55079e-25)
(0.094396 -0.0001315 -8.95083e-25)
(0.0946481 -0.000125433 4.4693e-25)
(0.0948895 -0.000120021 -4.41074e-25)
(-0.000196761 0.000518694 -1.09436e-21)
(-0.000222112 -0.000139242 -1.11969e-21)
(0.000610508 -0.00152858 1.10294e-21)
(0.00241624 -0.00320696 -4.59947e-22)
(0.0051899 -0.00488183 4.62074e-22)
(0.00884075 -0.00636427 6.16408e-24)
(0.0132063 -0.00755275 -1.11127e-23)
(0.018099 -0.00840547 -2.73201e-22)
(0.0233299 -0.00892146 2.64171e-22)
(0.0287221 -0.0091273 -6.25041e-24)
(0.0341205 -0.00906653 -4.95196e-24)
(0.0393969 -0.00879103 1.02059e-22)
(0.0444518 -0.00835463 -1.02195e-22)
(0.0492141 -0.00780839 -5.84714e-23)
(0.0536382 -0.00719763 1.4175e-23)
(0.0577007 -0.00656017 4.4434e-23)
(0.0613966 -0.00592574 -4.40428e-25)
(0.0647344 -0.00531615 -8.76931e-25)
(0.0677325 -0.00474605 0)
(0.0704157 -0.00422404 0)
(0.0728121 -0.0037539 0)
(0.0749511 -0.00333581 -2.79417e-25)
(0.0768613 -0.00296747 1.87639e-23)
(0.0785697 -0.00264508 -2.04022e-23)
(0.0801011 -0.00236401 2.13073e-23)
(0.0814776 -0.00211941 -1.03165e-23)
(0.0827186 -0.00190656 -2.32113e-23)
(0.0838411 -0.00172108 1.18711e-23)
(0.0848598 -0.00155903 -3.88294e-25)
(0.0857872 -0.00141701 -8.29917e-25)
(0.0866342 -0.00129208 4.14528e-25)
(0.0874101 -0.00118177 -1.2953e-24)
(0.0881227 -0.00108398 1.36534e-23)
(0.0887791 -0.000996983 -2.88873e-23)
(0.0893852 -0.000919306 1.38786e-23)
(0.0899462 -0.00084973 -1.37297e-24)
(0.0904666 -0.000787229 4.57742e-25)
(0.0909504 -0.000730938 0)
(0.0914012 -0.00068013 -7.89282e-24)
(0.0918222 -0.000634185 6.96897e-24)
(0.0922159 -0.00059258 6.49078e-24)
(0.0925851 -0.000554868 -8.82897e-24)
(0.092932 -0.000520674 4.6187e-25)
(0.0932585 -0.000489681 2.28981e-24)
(0.0935666 -0.000461627 -4.14079e-24)
(0.093858 -0.000436297 -4.55005e-25)
(0.0941344 -0.00041351 -3.15909e-24)
(0.0943972 -0.000393101 -4.33263e-25)
(0.0946479 -0.000374887 9.03394e-25)
(0.0948878 -0.000358617 1.32633e-24)
(-0.00013155 0.000630229 -1.18903e-21)
(0.000325728 -0.000614352 1.20184e-21)
(0.00199611 -0.0028912 -1.1658e-21)
(0.00459978 -0.0055929 -1.62614e-23)
(0.00804816 -0.0082525 -9.11692e-25)
(0.0121904 -0.0105866 -7.85101e-22)
(0.016846 -0.0124467 8.11014e-22)
(0.0218399 -0.0137731 5.83821e-22)
(0.0270121 -0.0145676 -9.47012e-23)
(0.0322221 -0.0148737 -8.45602e-22)
(0.0373522 -0.0147605 6.86165e-22)
(0.0423087 -0.0143091 -2.96718e-22)
(0.0470214 -0.0136039 -3.52108e-24)
(0.0514417 -0.0127246 0)
(0.0555405 -0.0117423 1.1153e-22)
(0.0593052 -0.0107164 -2.48428e-23)
(0.0627362 -0.00969408 -8.50465e-23)
(0.0658442 -0.00871003 2.03128e-24)
(0.0686469 -0.00778785 0)
(0.0711668 -0.00694159 0)
(0.0734283 -0.00617768 2.2851e-23)
(0.0754571 -0.00549678 -2.20845e-23)
(0.0772779 -0.00489557 -2.20736e-23)
(0.0789141 -0.00436823 2.34272e-23)
(0.0803872 -0.00390755 7.87411e-25)
(0.0817166 -0.0035059 -8.02922e-25)
(0.0829196 -0.00315579 8.21053e-25)
(0.0840113 -0.00285023 -2.53293e-23)
(0.0850046 -0.00258293 2.61941e-23)
(0.0859112 -0.0023484 -2.58062e-23)
(0.0867409 -0.0021419 2.75419e-23)
(0.0875022 -0.00195942 8.73448e-25)
(0.0882026 -0.00179756 2.89619e-23)
(0.0888485 -0.00165347 -5.74195e-23)
(0.0894456 -0.00152478 3.02698e-23)
(0.0899988 -0.00140946 1.58199e-23)
(0.0905125 -0.00130585 -1.39685e-23)
(0.0909904 -0.00121251 0)
(0.0914359 -0.00112824 -1.29904e-26)
(0.0918521 -0.00105203 0)
(0.0922417 -0.000982998 1.49671e-23)
(0.0926071 -0.000920417 -1.40599e-23)
(0.0929504 -0.000863658 9.35993e-25)
(0.0932737 -0.000812193 -6.92839e-27)
(0.0935788 -0.000765586 7.32813e-24)
(0.0938673 -0.000723475 -1.3702e-23)
(0.0941408 -0.000685556 7.28009e-24)
(0.0944008 -0.00065155 -3.57859e-24)
(0.0946486 -0.00062115 2.70022e-24)
(0.0948855 -0.000593936 8.88808e-25)
(8.53284e-05 0.000465507 -2.68444e-21)
(0.00134408 -0.00153316 0)
(0.00415513 -0.00468671 2.41439e-21)
(0.0078372 -0.00827523 -4.65904e-21)
(0.012161 -0.0117374 2.25866e-21)
(0.0169142 -0.0147412 8.49864e-22)
(0.0219077 -0.0171157 -8.93075e-22)
(0.0269922 -0.0187949 6.43092e-22)
(0.0320507 -0.0197868 -1.18677e-21)
(0.0369922 -0.0201497 5.34902e-22)
(0.0417479 -0.0199726 6.59008e-24)
(0.0462681 -0.0193593 7.71948e-25)
(0.0505192 -0.0184169 3.58135e-24)
(0.0544811 -0.0172473 -1.79388e-22)
(0.0581451 -0.0159416 1.73842e-22)
(0.0615114 -0.0145764 3.95148e-24)
(0.0645877 -0.013213 -1.40011e-24)
(0.0673871 -0.0118972 7.86931e-23)
(0.0699263 -0.0106604 -7.83629e-23)
(0.0722247 -0.00952174 -1.15971e-24)
(0.0743024 -0.00849057 0)
(0.0761801 -0.00756846 1.9359e-25)
(0.0778775 -0.00675172 0)
(0.0794133 -0.00603311 9.27101e-25)
(0.080805 -0.00540361 1.21218e-25)
(0.0820681 -0.00485333 8.1053e-25)
(0.0832172 -0.00437253 -5.67036e-23)
(0.0842646 -0.00395203 5.59722e-23)
(0.0852215 -0.00358351 0)
(0.0860979 -0.00325967 -2.91465e-23)
(0.0869023 -0.00297417 3.01622e-23)
(0.0876423 -0.00272159 0)
(0.0883246 -0.00249736 -3.83884e-26)
(0.0889551 -0.0022976 -3.12709e-23)
(0.0895388 -0.00211907 6.18036e-23)
(0.0900805 -0.00195903 -6.10729e-23)
(0.090584 -0.00181517 6.12274e-23)
(0.091053 -0.00168552 -6.12364e-23)
(0.0914906 -0.00156845 3.06016e-23)
(0.0918998 -0.00146254 1.5231e-23)
(0.0922831 -0.00136658 -1.33336e-23)
(0.0926427 -0.00127956 -9.5259e-25)
(0.0929807 -0.0012006 -1.49733e-23)
(0.0932992 -0.00112897 3.17292e-23)
(0.0935997 -0.00106406 -1.48854e-23)
(0.0938839 -0.00100535 7.23641e-27)
(0.0941532 -0.000952409 9.06333e-25)
(0.0944091 -0.000904849 -5.43958e-27)
(0.0946527 -0.000862232 -8.8792e-25)
(0.0948852 -0.000823964 1.7597e-24)
(0.000537312 -4.21903e-05 -2.45789e-24)
(0.00304461 -0.00300221 -2.51871e-23)
(0.00723115 -0.00694735 -2.31422e-23)
(0.0121278 -0.0112185 -2.11152e-23)
(0.0173754 -0.0152478 -3.67761e-23)
(0.0227269 -0.0187026 -1.26886e-24)
(0.028009 -0.0214137 1.37633e-23)
(0.0331151 -0.0233178 -1.2986e-23)
(0.0379822 -0.0244286 -1.10978e-23)
(0.0425752 -0.0248137 1.01312e-21)
(0.0468781 -0.0245741 -1.97864e-22)