/*--------------------------------*- C++ -*----------------------------------*\
| =========                 |                                                 |
| \\      /  F ield         | OpenFOAM: The Open Source CFD Toolbox           |
|  \\    /   O peration     | Version:  2412                                  |
|   \\  /    A nd           | Website:  www.openfoam.com                      |
|    \\/     M anipulation  |                                                 |
\*---------------------------------------------------------------------------*/
FoamFile
{
    version     2.0;
    format      ascii;
    arch        "LSB;label=32;scalar=64";
    class       volVectorField;
    location    "5";
    object      vorticity;
}
// * * * * * * * * * * * * * * * * * * * * * * * * * * * * * * * * * * * * * //

dimensions      [0 0 -1 0 0 0 0];

internalField   nonuniform List<vector> 
63420
(
(0 0 4.63099e-05)
(0 0 7.86552e-05)
(0 0 2.13636e-05)
(0 0 -7.00416e-05)
(0 0 -0.000123117)
(0 0 -0.000121771)
(0 0 -9.06672e-05)
(0 0 -5.62434e-05)
(0 0 -3.09115e-05)
(0 0 -1.59705e-05)
(0 0 -8.40415e-06)
(0 0 -4.99995e-06)
(0 0 -3.61928e-06)
(0 0 -3.11857e-06)
(0 0 -2.96742e-06)
(0 0 -2.94336e-06)
(0 0 -2.96077e-06)
(0 0 -2.98934e-06)
(0 0 -3.02015e-06)
(0 0 -3.04983e-06)
(0 0 -3.07607e-06)
(0 0 -3.09781e-06)
(0 0 -3.11544e-06)
(0 0 -3.12984e-06)
(0 0 -3.14152e-06)
(0 0 -3.14961e-06)
(0 0 -3.15319e-06)
(0 0 -3.15105e-06)
(0 0 -3.14293e-06)
(0 0 -3.12839e-06)
(0 0 -3.10776e-06)
(0 0 -3.08078e-06)
(0 0 -3.04737e-06)
(0 0 -3.00678e-06)
(0 0 -2.95802e-06)
(0 0 -2.90001e-06)
(0 0 -2.8315e-06)
(0 0 -2.75171e-06)
(0 0 -2.65967e-06)
(0 0 -2.55465e-06)
(0 0 -2.4356e-06)
(0 0 -2.30108e-06)
(0 0 -2.149e-06)
(0 0 -1.97643e-06)
(0 0 -1.77964e-06)
(0 0 -1.55399e-06)
(0 0 -1.29429e-06)
(0 0 -9.96047e-07)
(0 0 -6.60411e-07)
(0 0 -3.06644e-07)
(0 0 3.8147e-09)
(0 0 1.38765e-07)
(0 0 -9.58843e-08)
(0 0 -7.75815e-07)
(0 5.17573e-23 -1.15465e-06)
(0 0 0.000137835)
(0 0 0.00023358)
(0 0 6.29811e-05)
(0 0 -0.000208668)
(0 0 -0.000366302)
(0 0 -0.000362224)
(0 0 -0.000269779)
(0 0 -0.000167506)
(0 0 -9.22615e-05)
(0 0 -4.78956e-05)
(0 0 -2.54364e-05)
(0 0 -1.53353e-05)
(0 0 -1.12381e-05)
(0 0 -9.7518e-06)
(0 0 -9.30421e-06)
(0 0 -9.23772e-06)
(0 0 -9.2988e-06)
(0 0 -9.39645e-06)
(0 0 -9.49995e-06)
(0 0 -9.59829e-06)
(0 0 -9.68683e-06)
(0 0 -9.76402e-06)
(0 0 -9.8302e-06)
(0 0 -9.88589e-06)
(0 0 -9.93084e-06)
(0 0 -9.96366e-06)
(0 0 -9.98269e-06)
(0 0 -9.98627e-06)
(0 0 -9.97324e-06)
(0 0 -9.94257e-06)
(0 0 -9.89365e-06)
(0 0 -9.8256e-06)
(0 0 -9.73746e-06)
(0 0 -9.62767e-06)
(0 0 -9.49434e-06)
(0 0 -9.33529e-06)
(0 0 -9.14808e-06)
(0 0 -8.93027e-06)
(0 0 -8.67904e-06)
(0 0 -8.39124e-06)
(0 0 -8.06284e-06)
(0 0 -7.68862e-06)
(0 0 -7.26187e-06)
(0 0 -6.77392e-06)
(0 0 -6.21397e-06)
(0 0 -5.56863e-06)
(0 0 -4.82235e-06)
(0 0 -3.96125e-06)
(0 0 -2.98756e-06)
(0 0 -1.95676e-06)
(0 0 -1.04847e-06)
(0 0 -6.50966e-07)
(0 0 -1.33692e-06)
(0 0 -3.33945e-06)
(0 5.22453e-23 -4.50153e-06)
(0 0 0.000226328)
(0 0 0.000382578)
(0 0 0.000102979)
(0 0 -0.000341795)
(0 0 -0.000599986)
(0 0 -0.000593492)
(0 0 -0.000442331)
(0 0 -0.000275039)
(0 0 -0.000151947)
(0 0 -7.93761e-05)
(0 0 -4.26524e-05)
(0 0 -2.61497e-05)
(0 0 -1.94692e-05)
(0 0 -1.70592e-05)
(0 0 -1.6348e-05)
(0 0 -1.62606e-05)
(0 0 -1.63827e-05)
(0 0 -1.65649e-05)
(0 0 -1.67559e-05)
(0 0 -1.69374e-05)
(0 0 -1.7103e-05)
(0 0 -1.72507e-05)
(0 0 -1.73808e-05)
(0 0 -1.74933e-05)
(0 0 -1.75873e-05)
(0 0 -1.76608e-05)
(0 0 -1.77117e-05)
(0 0 -1.77379e-05)
(0 0 -1.77375e-05)
(0 0 -1.7709e-05)
(0 0 -1.76511e-05)
(0 0 -1.75621e-05)
(0 0 -1.74403e-05)
(0 0 -1.72835e-05)
(0 0 -1.7089e-05)
(0 0 -1.68537e-05)
(0 0 -1.6574e-05)
(0 0 -1.62461e-05)
(0 0 -1.58654e-05)
(0 0 -1.54266e-05)
(0 0 -1.49231e-05)
(0 0 -1.43462e-05)
(0 0 -1.3685e-05)
(0 0 -1.29258e-05)
(0 0 -1.20513e-05)
(0 0 -1.10405e-05)
(0 0 -9.86866e-06)
(0 0 -8.51378e-06)
(0 0 -6.97946e-06)
(0 0 -5.35441e-06)
(0 0 -3.92553e-06)
(0 0 -3.31448e-06)
(0 0 -4.44454e-06)
(0 0 -7.72301e-06)
(0 3.08558e-22 -9.81885e-06)
(0 0 0.000309411)
(0 0 0.000522798)
(0 0 0.000143239)
(0 0 -0.000461991)
(0 0 -0.000814516)
(0 0 -0.000807031)
(0 0 -0.000602335)
(0 0 -0.000375256)
(0 0 -0.00020803)
(0 0 -0.00010941)
(0 0 -5.95138e-05)
(0 0 -3.7112e-05)
(0 0 -2.8067e-05)
(0 0 -2.48286e-05)
(0 0 -2.38992e-05)
(0 0 -2.38172e-05)
(0 0 -2.40196e-05)
(0 0 -2.43031e-05)
(0 0 -2.45974e-05)
(0 0 -2.48781e-05)
(0 0 -2.5137e-05)
(0 0 -2.5372e-05)
(0 0 -2.55833e-05)
(0 0 -2.57705e-05)
(0 0 -2.5932e-05)
(0 0 -2.60654e-05)
(0 0 -2.61682e-05)
(0 0 -2.62379e-05)
(0 0 -2.62724e-05)
(0 0 -2.62697e-05)
(0 0 -2.62277e-05)
(0 0 -2.61443e-05)
(0 0 -2.60173e-05)
(0 0 -2.58436e-05)
(0 0 -2.56201e-05)
(0 0 -2.53429e-05)
(0 0 -2.50074e-05)
(0 0 -2.46087e-05)
(0 0 -2.41408e-05)
(0 0 -2.35968e-05)
(0 0 -2.29676e-05)
(0 0 -2.22418e-05)
(0 0 -2.14052e-05)
(0 0 -2.04398e-05)
(0 0 -1.93234e-05)
(0 0 -1.80286e-05)
(0 0 -1.65235e-05)
(0 0 -1.47799e-05)
(0 0 -1.28033e-05)
(0 0 -1.0711e-05)
(0 0 -8.88107e-06)
(0 0 -8.13434e-06)
(0 0 -9.70545e-06)
(0 0 -1.42126e-05)
(0 -2.02678e-22 -1.7539e-05)
(0 0 0.000384409)
(0 0 0.000652557)
(0 0 0.000188705)
(0 0 -0.000558311)
(0 0 -0.000997237)
(0 0 -0.000992184)
(0 0 -0.000742401)
(0 0 -0.000463599)
(0 0 -0.000257809)
(0 0 -0.000136314)
(0 0 -7.48242e-05)
(0 0 -4.72336e-05)
(0 0 -3.61207e-05)
(0 0 -3.21722e-05)
(0 0 -3.10716e-05)
(0 0 -3.10155e-05)
(0 0 -3.13092e-05)
(0 0 -3.1702e-05)
(0 0 -3.21068e-05)
(0 0 -3.24942e-05)
(0 0 -3.2855e-05)
(0 0 -3.31869e-05)
(0 0 -3.34899e-05)
(0 0 -3.37632e-05)
(0 0 -3.40047e-05)
(0 0 -3.42116e-05)
(0 0 -3.43813e-05)
(0 0 -3.45113e-05)
(0 0 -3.45991e-05)
(0 0 -3.46425e-05)
(0 0 -3.46391e-05)
(0 0 -3.45861e-05)
(0 0 -3.44809e-05)
(0 0 -3.43201e-05)
(0 0 -3.41001e-05)
(0 0 -3.38163e-05)
(0 0 -3.34636e-05)
(0 0 -3.30362e-05)
(0 0 -3.25271e-05)
(0 0 -3.1928e-05)
(0 0 -3.12284e-05)
(0 0 -3.04149e-05)
(0 0 -2.94705e-05)
(0 0 -2.83746e-05)
(0 0 -2.71013e-05)
(0 0 -2.56189e-05)
(0 0 -2.38908e-05)
(0 0 -2.18849e-05)
(0 0 -1.96095e-05)
(0 0 -1.7205e-05)
(0 0 -1.51203e-05)
(0 0 -1.43356e-05)
(0 0 -1.6357e-05)
(0 0 -2.20856e-05)
(0 1.00064e-22 -2.71517e-05)
(0 0 0.00044829)
(0 0 0.00077144)
(0 0 0.000246257)
(0 0 -0.000618071)
(0 0 -0.00113437)
(0 0 -0.00113767)
(0 0 -0.000854766)
(0 0 -0.000535195)
(0 0 -0.000298251)
(0 0 -0.000158039)
(0 0 -8.69926e-05)
(0 0 -5.51102e-05)
(0 0 -4.22884e-05)
(0 0 -3.7759e-05)
(0 0 -3.65259e-05)
(0 0 -3.65013e-05)
(0 0 -3.68807e-05)
(0 0 -3.73737e-05)
(0 0 -3.788e-05)
(0 0 -3.8366e-05)
(0 0 -3.88218e-05)
(0 0 -3.92451e-05)
(0 0 -3.96358e-05)
(0 0 -3.99927e-05)
(0 0 -4.03133e-05)
(0 0 -4.05948e-05)
(0 0 -4.08344e-05)
(0 0 -4.10297e-05)
(0 0 -4.11782e-05)
(0 0 -4.12774e-05)
(0 0 -4.13248e-05)
(0 0 -4.13173e-05)
(0 0 -4.1252e-05)
(0 0 -4.11253e-05)
(0 0 -4.09332e-05)
(0 0 -4.06708e-05)
(0 0 -4.03327e-05)
(0 0 -3.99123e-05)
(0 0 -3.94024e-05)
(0 0 -3.87935e-05)
(0 0 -3.80744e-05)
(0 0 -3.72303e-05)
(0 0 -3.62431e-05)
(0 0 -3.50904e-05)
(0 0 -3.37445e-05)
(0 0 -3.21716e-05)
(0 0 -3.03328e-05)
(0 0 -2.81949e-05)
(0 0 -2.57697e-05)
(0 0 -2.32143e-05)
(0 0 -2.10274e-05)
(0 0 -2.03072e-05)
(0 0 -2.2803e-05)
(0 0 -2.98385e-05)
(0 4.93736e-22 -3.74785e-05)
(0 0 0.000498586)
(0 0 0.000879964)
(0 0 0.000322585)
(0 0 -0.000630171)
(0 0 -0.00121426)
(0 0 -0.00123414)
(0 0 -0.000933023)
(0 0 -0.000585989)
(0 0 -0.000326764)
(0 0 -0.000172757)
(0 0 -9.45385e-05)
(0 0 -5.93957e-05)
(0 0 -4.52628e-05)
(0 0 -4.02819e-05)
(0 0 -3.8941e-05)
(0 0 -3.89346e-05)
(0 0 -3.93742e-05)
(0 0 -3.99389e-05)
(0 0 -4.05184e-05)
(0 0 -4.10764e-05)
(0 0 -4.16022e-05)
(0 0 -4.20939e-05)
(0 0 -4.25508e-05)
(0 0 -4.29718e-05)
(0 0 -4.33543e-05)
(0 0 -4.36952e-05)
(0 0 -4.3992e-05)
(0 0 -4.42424e-05)
(0 0 -4.44439e-05)
(0 0 -4.4594e-05)
(0 0 -4.46901e-05)
(0 0 -4.47291e-05)
(0 0 -4.47079e-05)
(0 0 -4.46228e-05)
(0 0 -4.44696e-05)
(0 0 -4.42434e-05)
(0 0 -4.39384e-05)
(0 0 -4.3548e-05)
(0 0 -4.30645e-05)
(0 0 -4.24783e-05)
(0 0 -4.17776e-05)
(0 0 -4.09476e-05)
(0 0 -3.99696e-05)
(0 0 -3.88209e-05)
(0 0 -3.74736e-05)
(0 0 -3.58937e-05)
(0 0 -3.40427e-05)
(0 0 -3.18887e-05)
(0 0 -2.94474e-05)
(0 0 -2.68864e-05)
(0 0 -2.47318e-05)
(0 0 -2.41603e-05)
(0 0 -2.71562e-05)
(0 0 -3.57457e-05)
(0 -9.6647e-23 -4.74295e-05)
(-1.48402e-23 8.05377e-21 -9.57531e-06)
(-1.66172e-22 7.90935e-21 -2.08507e-05)
(4.05294e-23 -2.23083e-22 -3.68286e-05)
(3.24518e-23 -2.36408e-20 -5.69896e-05)
(-1.05716e-22 8.10393e-21 -7.93472e-05)
(4.20103e-22 7.95382e-21 -0.000100386)
(-8.96174e-22 2.31427e-20 -0.000115558)
(3.47186e-22 -2.35644e-20 -0.000120226)
(7.02967e-22 -7.56232e-21 -0.000110811)
(-1.01803e-21 -4.09086e-24 -8.57733e-05)
(-1.02684e-21 -7.60416e-21 -4.60544e-05)
(9.01836e-22 7.19103e-21 5.13894e-06)
(5.84365e-22 -5.96306e-20 6.31018e-05)
(-1.05308e-21 1.28317e-19 0.000122668)
(3.33591e-22 -6.92403e-20 0.000179188)
(-1.43106e-21 -5.22355e-20 0.000229192)
(2.57867e-21 -6.64569e-20 0.000270688)
(-2.06833e-21 7.90229e-21 0.000303028)
(-2.28098e-22 -7.33699e-21 0.00032671)
(9.75492e-23 7.35903e-21 0.000342825)
(-3.51974e-24 -1.43965e-22 0.000352773)
(-9.25406e-23 -7.10704e-21 0.000357933)
(-2.22759e-21 7.19222e-21 0.00035953)
(4.69455e-21 1.43128e-23 0.000358527)
(1.38589e-21 7.00035e-21 0.000355618)
(-3.65405e-21 -6.02731e-24 0.000351244)
(5.27288e-21 8.26452e-21 0.000345635)
(-5.97956e-21 1.06092e-19 0.00033886)
(5.62311e-22 -1.14045e-19 0.000330873)
(-2.17193e-21 1.04639e-19 0.00032156)
(2.11099e-21 -1.05926e-19 0.000310762)
(5.39865e-23 1.49284e-21 0.000298268)
(-7.03371e-23 -1.83452e-21 0.000283769)
(2.79845e-21 -1.0117e-19 0.000266734)
(-9.38546e-21 9.84e-20 0.000246153)
(-3.59999e-22 -1.72444e-21 0.000219965)
(6.92664e-21 1.51492e-23 0.000183801)
(7.55582e-21 1.65253e-23 0.000128274)
(-7.53164e-21 -1.64724e-23 3.35003e-05)
(-2.50733e-22 -5.48378e-25 -0.00014114)
(-2.62302e-22 -5.73681e-25 -0.000474201)
(-9.07994e-21 -1.98587e-23 -0.00110745)
(8.76369e-21 1.91671e-23 -0.00227674)
(-2.9171e-22 1.74338e-22 -0.00433943)
(9.98155e-24 8.9841e-21 -0.00778239)
(-2.80964e-20 5.75418e-20 -0.0131915)
(2.70435e-20 -7.62647e-20 -0.021167)
(-6.68764e-21 -1.08687e-20 -0.0321779)
(7.32971e-21 3.0024e-20 -0.0463657)
(-2.37383e-20 -6.62759e-21 -0.0631947)
(-2.86932e-22 8.07439e-21 -2.89445e-05)
(-1.0427e-22 1.58652e-20 -6.2104e-05)
(3.63241e-22 7.70612e-21 -0.000109203)
(-9.98777e-22 -7.92813e-21 -0.000168787)
(1.85179e-21 7.53086e-21 -0.000235102)
(-6.32008e-22 -5.41809e-20 -0.000297922)
(-1.33265e-22 8.61799e-20 -0.000343971)
(-7.2831e-23 -9.13315e-21 -0.000359674)
(2.27846e-21 -9.92636e-20 -0.000334561)
(-2.29037e-21 1.40513e-19 -0.000264091)
(-6.40266e-22 1.28229e-19 -0.000150955)
(4.42432e-22 -1.15663e-19 -4.44804e-06)
(-4.43026e-22 8.32958e-22 0.000161777)
(3.14452e-21 -7.36078e-21 0.000332724)
(-2.38792e-21 2.47904e-20 0.000494891)
(-5.94974e-21 2.4435e-19 0.000638233)
(1.10175e-21 -2.30322e-19 0.000756872)
(-5.49656e-21 2.47041e-19 0.000849041)
(-2.5403e-22 1.98044e-20 0.000916001)
(-4.31501e-21 -7.5355e-21 0.000961021)
(4.54421e-21 1.62465e-22 0.000988047)
(-4.53373e-21 9.56017e-21 0.00100105)
(1.97772e-21 2.15859e-19 0.00100353)
(4.88017e-21 -4.58714e-19 0.000998251)
(4.05546e-21 -2.19044e-19 0.000987163)
(-5.98313e-21 4.44104e-19 0.000971495)
(2.025e-21 -4.44619e-19 0.000951854)
(-1.00253e-22 4.56665e-19 0.000928367)
(3.68319e-21 1.11829e-21 0.000900832)
(-4.14578e-21 -1.08598e-22 0.000868834)
(-1.3918e-21 -3.044e-24 0.000831823)
(0 0 0.000789092)
(2.0595e-22 1.06844e-22 0.000739628)
(1.23527e-20 1.34111e-20 0.000681745)
(-1.42112e-20 3.80384e-19 0.000612289)
(-1.7346e-20 -2.49757e-20 0.000524886)
(1.71396e-20 -3.77128e-19 0.00040608)
(2.55308e-20 -3.27689e-19 0.000227035)
(-6.21358e-21 3.51279e-19 -7.32098e-05)
(-3.49245e-20 2.00506e-21 -0.000618855)
(3.46331e-20 1.9237e-20 -0.00164936)
(-4.2705e-20 2.5659e-19 -0.00359539)
(2.09755e-20 -2.67619e-19 -0.00717083)
(-2.0527e-20 1.64879e-20 -0.0134537)
(2.29393e-20 9.06791e-21 -0.0239087)
(-6.61797e-20 1.28358e-19 -0.0402949)
(6.61665e-20 -1.25526e-19 -0.0644104)
(-1.04909e-19 9.52496e-20 -0.0976435)
(1.0118e-19 -1.06606e-19 -0.140345)
(-2.19081e-20 -7.35295e-22 -0.189321)
(2.63571e-23 4.77662e-20 -4.79914e-05)
(-7.70294e-23 1.5026e-20 -0.000101195)
(3.45334e-22 -6.24826e-20 -0.000177087)
(-6.88482e-22 1.24397e-19 -0.000273555)
(1.53067e-21 -2.6671e-19 -0.000381655)
(6.93366e-22 1.27069e-19 -0.000485355)
(-2.77771e-21 -9.92281e-22 -0.000563711)
(1.73432e-21 -1.748e-20 -0.00059525)
(8.68817e-22 -2.60672e-19 -0.000563339)
(1.63974e-21 2.48825e-19 -0.000460665)
(-9.7587e-22 -1.85063e-21 -0.00029129)
(-4.75576e-21 -2.16385e-23 -6.96466e-05)
(7.5751e-21 -2.09413e-21 0.00018298)
(-5.69608e-21 -2.55566e-19 0.000443193)
(6.91553e-21 2.33062e-19 0.000689929)
(-1.05868e-20 4.62821e-19 0.000907472)
(-5.62434e-21 -1.29486e-20 0.00108668)
(-2.86715e-21 4.77031e-19 0.0012246)
(3.97014e-22 -1.44989e-20 0.00132323)
(-1.1364e-20 4.64739e-19 0.00138743)
(1.11776e-20 -4.83079e-19 0.00142322)
(-7.58961e-21 4.62663e-19 0.00143662)
(-1.42326e-22 -4.81675e-19 0.00143292)
(5.7772e-21 -9.18224e-21 0.00141624)
(-2.80066e-21 1.41475e-20 0.00138947)
(6.10772e-21 -8.7101e-21 0.00135434)
(-1.78158e-20 4.36932e-19 0.00131158)
(1.55963e-20 -4.67032e-19 0.00126119)
(1.68323e-20 -4.33992e-19 0.00120257)
(-1.32588e-20 4.37288e-19 0.00113481)
(-1.21545e-21 -5.80249e-21 0.00105672)
(1.25874e-20 -1.36191e-22 0.000966843)
(-1.45797e-20 -2.69208e-20 0.000863181)
(4.91904e-20 -8.04394e-19 0.000742567)
(1.80695e-20 5.85667e-20 0.000599303)
(-6.78922e-20 7.60068e-19 0.000422135)
(4.47433e-21 -1.3876e-20 0.000187543)
(-1.26728e-20 -6.20834e-21 -0.000154609)
(1.09051e-19 -6.47615e-19 -0.000709919)
(-2.00941e-19 1.2781e-18 -0.00169266)
(2.04285e-19 -1.28075e-18 -0.00351389)
(8.16101e-20 9.11736e-20 -0.0069088)
(-1.62934e-19 5.67379e-19 -0.0130889)
(-1.75462e-19 3.9603e-19 -0.023874)
(1.64537e-19 -4.71801e-19 -0.0417265)
(-2.60348e-20 2.24951e-20 -0.069599)
(6.44987e-20 -2.04316e-20 -0.110511)
(1.89114e-19 -1.1766e-19 -0.166763)
(-2.05227e-19 1.85093e-19 -0.238752)
(-2.97134e-20 -4.80375e-20 -0.315915)
(4.02728e-22 -3.1478e-20 -6.59532e-05)
(-3.92846e-22 1.5953e-20 -0.00013646)
(8.01847e-22 -1.96397e-22 -0.000237623)
(-7.39028e-22 -1.56821e-20 -0.000367055)
(-1.11439e-21 -1.6556e-21 -0.000513514)
(3.10415e-21 -2.45999e-19 -0.00065651)
(-3.92723e-21 4.66684e-19 -0.000769072)
(1.7905e-21 -2.51709e-19 -0.000823419)
(-2.01431e-21 1.51448e-20 -0.000797889)
(4.23964e-21 -2.75551e-19 -0.000682736)
(-5.50715e-21 2.52268e-19 -0.000482792)
(-1.92489e-21 4.80183e-19 -0.000216191)
(6.64105e-21 -9.73657e-19 9.01428e-05)
(-8.83649e-21 9.74019e-19 0.000406546)
(1.33745e-20 -9.70536e-19 0.000706277)
(-6.56511e-21 9.64223e-19 0.000969343)
(-7.91122e-21 4.89327e-19 0.00118399)
(-7.73249e-22 -4.29345e-21 0.00134633)
(5.11052e-21 4.42764e-21 0.00145858)
(-5.18922e-21 4.54025e-19 0.00152659)
(-5.80257e-21 -4.77635e-19 0.00155763)
(1.67232e-20 1.44027e-20 0.00155893)
(-3.01458e-20 9.19328e-19 0.00153682)
(2.102e-20 -9.24032e-19 0.00149614)
(2.45093e-21 -4.72536e-21 0.00144015)
(-1.10347e-20 -7.84686e-23 0.00137061)
(1.65468e-20 -1.40129e-20 0.00128799)
(-5.42637e-21 1.39203e-22 0.00119173)
(-6.00077e-21 -4.57884e-23 0.00108049)
(5.67126e-21 2.20655e-22 0.000952403)
(-3.99144e-21 5.6156e-22 0.000805195)
(5.84151e-20 -8.28648e-19 0.000636136)
(-5.18167e-20 8.54055e-19 0.000441672)
(-1.79273e-20 -6.40918e-22 0.000216537)
(2.0673e-20 -9.90099e-21 -4.82175e-05)
(-9.43255e-20 7.6984e-19 -0.000369623)
(1.13655e-19 -7.75072e-19 -0.000782609)
(-2.60453e-20 3.14617e-21 -0.00136102)
(1.82693e-20 -5.12021e-23 -0.00225968)
(4.3219e-20 8.0757e-21 -0.00379159)
(-2.59591e-19 5.90566e-19 -0.00655452)
(3.73606e-19 -1.2052e-18 -0.011612)
(-1.81676e-19 6.13527e-19 -0.020707)
(2.81448e-19 -4.76617e-19 -0.0364463)
(-2.70419e-19 5.65003e-19 -0.0623524)
(-6.60154e-19 5.86763e-19 -0.102668)
(1.25309e-18 -1.25607e-18 -0.161792)
(-6.18443e-19 6.40039e-19 -0.243115)
(2.208e-20 -2.63801e-21 -0.346907)
(5.3523e-21 -4.11153e-20 -0.446491)
(-8.12167e-22 1.60553e-20 -8.15563e-05)
(-1.58782e-22 6.11692e-20 -0.000166237)
(1.78693e-21 -1.86109e-19 -0.000288524)
(-8.20482e-22 2.50088e-19 -0.000446103)
(-6.22298e-22 -1.10947e-19 -0.000626462)
(8.30523e-23 -1.47112e-20 -0.000806321)
(-4.9084e-22 1.56317e-20 -0.000954741)
(3.45457e-21 -2.14228e-22 -0.00103962)
(-3.36638e-21 -1.52606e-20 -0.00103566)
(-5.82253e-21 3.47196e-20 -0.000931115)
(-4.81716e-21 4.88465e-19 -0.000730845)
(1.77856e-20 -5.08157e-19 -0.000454939)
(-2.24317e-20 4.74836e-19 -0.000133578)
(1.79518e-20 -4.94319e-19 0.000199828)
(-3.41647e-21 3.86932e-21 0.000515049)
(1.24519e-20 6.61412e-23 0.000789353)
(4.75003e-21 4.21069e-21 0.00100917)
(-1.78881e-21 4.63395e-19 0.00116968)
(1.84797e-20 -5.02313e-19 0.00127286)
(7.28704e-21 2.89224e-20 0.00132467)
(-4.22436e-20 9.58956e-19 0.0013326)
(2.35256e-20 -9.63407e-19 0.00130411)
(1.16226e-20 2.41358e-20 0.00124562)
(-2.03616e-20 -2.63246e-22 0.00116183)
(1.33206e-20 1.0858e-20 0.00105566)
(-3.2061e-20 9.28135e-19 0.000928246)
(2.4728e-20 -9.21134e-19 0.00077917)
(3.19649e-21 1.08408e-20 0.000606699)
(1.11636e-20 2.83204e-20 0.000408068)
(-1.29632e-20 -6.18739e-22 0.000179734)
(1.11814e-21 -1.3593e-20 -8.24901e-05)
(-4.17701e-20 1.38295e-20 -0.000383528)
(3.97976e-20 1.32102e-20 -0.000729506)
(-3.84394e-21 -2.75085e-20 -0.00112889)
(7.30223e-20 -7.79303e-19 -0.00159501)
(-6.23128e-20 8.02965e-19 -0.00215188)
(2.56348e-19 -1.55651e-18 -0.00284716)
(-2.3064e-19 1.57245e-18 -0.0037802)
(2.92492e-19 -1.48571e-18 -0.00515824)
(7.99997e-20 1.38748e-19 -0.00739941)
(-3.41177e-19 1.4208e-18 -0.0113013)
(-1.38689e-19 -2.59744e-20 -0.0182811)
(1.87571e-20 3.55097e-22 -0.0306584)
(-2.14897e-20 5.58187e-22 -0.0519061)
(6.34719e-20 1.85722e-21 -0.0867515)
(3.13332e-20 1.52639e-20 -0.141015)
(-1.32873e-19 5.76843e-21 -0.221038)
(7.623e-20 5.69303e-21 -0.332219)
(-1.94801e-22 -3.65726e-22 -0.47527)
(4.22994e-20 7.42927e-22 -0.592729)
(-5.72632e-22 7.71361e-20 -9.33915e-05)
(1.75817e-21 -4.71259e-20 -0.000189673)
(-1.96736e-21 -1.67482e-20 -0.000329124)
(4.53274e-21 -2.3062e-19 -0.000509679)
(-1.79858e-21 2.32708e-19 -0.000718691)
(1.32055e-21 -2.30223e-19 -0.000931948)
(-1.02135e-20 5.07895e-19 -0.00111682)
(9.50016e-21 -7.12216e-19 -0.00123905)
(-5.83807e-21 5.04684e-19 -0.0012713)
(-3.39535e-21 4.9117e-19 -0.00120024)
(-2.07717e-21 3.11024e-21 -0.00103005)
(2.03352e-20 -9.65687e-19 -0.000780922)
(-1.60157e-20 1.00694e-18 -0.000483863)
(1.87381e-21 -4.74937e-19 -0.000173483)
(9.28882e-21 -4.76834e-19 0.000118664)
(2.06481e-20 -4.69573e-19 0.000368573)
(-3.19464e-21 7.29207e-21 0.000561525)
(3.37855e-20 -9.75527e-19 0.000691695)
(2.34675e-20 -9.36886e-19 0.000760206)
(7.09929e-21 2.23349e-20 0.00077217)
(-1.94307e-20 9.74966e-19 0.000734217)
(-2.2746e-20 -9.14076e-21 0.000652921)
(1.3881e-20 1.00919e-20 0.000533712)
(-4.4725e-20 9.47705e-19 0.000380217)
(3.41783e-20 -9.65359e-19 0.000194074)
(6.82286e-20 -9.26358e-19 -2.50578e-05)
(-6.95826e-20 9.59558e-19 -0.000279372)
(1.69844e-20 -2.25425e-20 -0.000572706)
(5.96133e-20 -9.28698e-19 -0.000910294)
(-9.0792e-20 9.5429e-19 -0.00129854)
(4.92437e-21 1.39216e-20 -0.00174491)
(-1.93375e-19 1.754e-18 -0.00225806)
(1.70607e-19 -1.82368e-18 -0.0028484)
(5.50567e-20 6.89766e-20 -0.00352938)
(-2.51114e-19 1.67167e-18 -0.00432046)
(2.25459e-19 -1.74725e-18 -0.00525399)
(-3.58746e-20 -3.95733e-21 -0.00639086)
(4.7019e-19 -1.58572e-18 -0.00785493)
(-4.36329e-19 1.64222e-18 -0.00990279)
(-7.68669e-20 -8.21028e-20 -0.0130532)
(7.00562e-19 -1.3995e-18 -0.0183012)
(-1.21633e-18 2.90851e-18 -0.0274271)
(-8.24925e-20 -1.62433e-19 -0.043368)
(-1.13042e-19 -1.24516e-19 -0.0705668)
(8.23341e-19 -1.29092e-18 -0.115185)
(4.66532e-20 7.41923e-20 -0.185133)
(-9.87253e-19 8.8121e-19 -0.289985)
(9.66087e-19 -9.72232e-19 -0.440291)
(1.0942e-20 3.43503e-20 -0.642451)
(1.09782e-20 -3.16502e-21 -0.784031)
(6.47177e-22 -1.61773e-20 -0.000100415)
(1.40071e-21 -1.3705e-19 -0.00020835)
(-1.59472e-21 1.23793e-19 -0.000361722)
(-1.52253e-21 -1.76996e-20 -0.000559722)
(5.02656e-21 -2.29316e-19 -0.000790862)
(-4.55382e-21 2.3661e-19 -0.00103191)
(-3.89168e-21 4.77035e-19 -0.00125079)
(-5.60701e-21 -1.98869e-20 -0.00141333)
(2.8891e-21 -4.80628e-21 -0.00149165)
(1.28651e-20 -5.08964e-19 -0.00147147)
(-9.31417e-21 4.76668e-19 -0.00135556)
(1.12449e-20 -1.0096e-18 -0.00116264)
(-4.37684e-23 5.05625e-19 -0.000922277)
(-4.30826e-21 -1.94321e-20 -0.000667949)
(-5.69201e-21 -2.35985e-20 -0.000430549)
(2.12917e-20 -9.93687e-19 -0.000233944)
(-1.61782e-21 -1.97655e-20 -9.32452e-05)
(1.93968e-20 -1.01304e-18 -1.51243e-05)
(-6.29754e-21 -7.03888e-21 4.13098e-07)
(-1.83772e-22 1.35343e-22 -4.27603e-05)
(1.29597e-20 9.54244e-21 -0.000139331)
(-4.61865e-20 9.78635e-19 -0.000283956)
(3.96448e-20 -1.00142e-18 -0.000472337)
(1.44324e-20 9.43473e-21 -0.000701838)
(-1.00591e-20 -1.53936e-20 -0.000971676)
(-6.96156e-21 1.11755e-20 -0.00128292)
(-6.60711e-20 9.49698e-19 -0.00163833)
(1.43454e-19 -1.94269e-18 -0.00204212)
(-6.64783e-20 1.01769e-18 -0.00249957)
(-1.74222e-19 1.88419e-18 -0.0030166)
(-3.14392e-20 -4.57508e-20 -0.00359931)
(6.15645e-21 -2.40081e-20 -0.00425366)
(-7.10584e-20 -5.45983e-20 -0.0049853)
(2.39113e-19 -1.89678e-18 -0.00579992)
(3.88872e-19 -1.7573e-18 -0.00670496)
(-3.4024e-19 1.85088e-18 -0.00771488)
(-3.86207e-20 -6.24723e-20 -0.00886559)
(4.58574e-19 -1.69563e-18 -0.0102492)
(-3.94403e-19 1.80387e-18 -0.0120891)
(-6.7381e-19 1.60468e-18 -0.0148872)
(5.59041e-19 -1.70256e-18 -0.0196784)
(8.92623e-20 -1.27597e-20 -0.0284179)
(9.16755e-19 -1.53147e-18 -0.0444796)
(1.54009e-19 1.23878e-19 -0.0731738)
(-1.08407e-18 1.51471e-18 -0.122156)
(-1.98118e-20 -4.62541e-20 -0.201701)
(3.97999e-20 6.25728e-22 -0.325657)
(-3.99229e-20 1.8238e-20 -0.516535)
(-5.91685e-19 6.18768e-19 -0.81633)
(5.81417e-19 -6.29649e-19 -1.13844)
(-9.70368e-21 -2.62103e-21 0.00210931)
(-7.31522e-21 2.03995e-21 -0.00894877)
(6.76466e-21 5.54997e-21 -0.0174018)
(-9.19054e-21 -1.10752e-20 -0.0234163)
(9.60835e-21 3.90024e-21 -0.0271619)
(-3.31172e-22 1.69261e-21 -0.0288949)
(-9.80701e-23 -6.10022e-23 -0.0289488)
(-2.49091e-21 5.44786e-24 -0.027695)
(2.41308e-21 -5.27765e-24 -0.02551)
(-5.72013e-23 1.25105e-25 -0.0227459)
(-4.54033e-23 9.93014e-26 -0.0197078)
(9.37508e-22 -2.05042e-24 -0.0166406)
(-9.40526e-22 2.05702e-24 -0.0137253)
(-5.39141e-22 1.17915e-24 -0.0110812)
(1.33968e-22 -7.48403e-23 -0.00877466)
(3.09924e-21 7.33927e-20 -0.00682859)
(-2.39737e-21 -6.86273e-20 -0.00523436)
(-5.44862e-24 -7.03667e-23 -0.00396218)
(-1.50968e-24 4.17459e-23 -0.00297047)
(-1.72116e-21 -8.96641e-20 -0.00221312)
(1.72629e-21 8.98034e-20 -0.00164479)
(-1.16442e-21 -8.96124e-20 -0.00122427)
(2.91136e-22 6.02953e-21 -0.000916081)
(-1.91727e-22 1.0918e-25 -0.000691156)
(2.75031e-22 6.35482e-21 -0.000526996)
(-4.91852e-23 3.41327e-24 -0.000406459)
(-2.19396e-22 4.79841e-25 -0.000316515)
(1.12526e-22 -4.11385e-24 -0.00024809)
(7.60361e-23 6.79183e-21 -0.000194857)
(-8.08564e-24 8.02145e-24 -0.000152436)
(-6.14061e-23 -6.96775e-21 -0.000117831)
(4.7181e-23 7.04103e-21 -8.90025e-05)
(7.69845e-23 -7.14907e-21 -6.45568e-05)
(1.31872e-23 6.48562e-20 -4.35284e-05)
(-1.55149e-22 -6.49341e-20 -2.52355e-05)
(-1.82131e-22 -5.14177e-20 -9.18421e-06)
(3.79375e-22 1.10449e-19 4.99484e-06)
(-2.0197e-22 -5.91207e-20 1.75875e-05)
(-1.08434e-22 -7.51356e-21 2.8823e-05)
(9.78287e-23 7.51814e-21 3.88903e-05)
(6.30513e-23 -1.29481e-25 4.79494e-05)
(-6.01978e-23 7.64104e-21 5.61375e-05)
(-9.31079e-23 -3.8385e-20 6.35755e-05)
(1.18853e-22 3.84571e-20 7.03784e-05)
(-6.16655e-23 -7.73874e-21 7.66723e-05)
(3.88239e-23 2.33901e-20 8.26295e-05)
(-3.62905e-23 -7.783e-21 8.85258e-05)
(-3.6784e-23 -1.5755e-20 9.48256e-05)
(2.40733e-23 7.89067e-21 0.000102276)
(-2.55824e-24 -7.93856e-21 0.000111949)
(-1.43704e-20 2.21517e-20 0.0036559)
(4.23885e-21 -2.38766e-20 -0.0289828)
(7.60757e-22 -4.63486e-21 -0.0536772)
(-1.82649e-20 -1.17786e-20 -0.0709284)
(1.7489e-20 1.30804e-20 -0.081363)
(-7.61013e-21 5.36671e-21 -0.0858658)
(5.5559e-21 4.28534e-22 -0.0854978)
(-3.87889e-20 -1.08495e-19 -0.0813951)
(4.2466e-20 1.00152e-19 -0.0746793)
(-1.01196e-20 -2.01948e-21 -0.0663787)
(4.68527e-21 -6.6701e-21 -0.0573704)
(3.98593e-20 2.10151e-19 -0.0483494)
(-4.30748e-20 -2.07936e-19 -0.0398226)
(-3.74085e-20 -2.58638e-19 -0.0321203)
(4.30178e-21 -2.23126e-20 -0.0254205)
(3.4236e-20 2.79852e-19 -0.01978)
(-1.10062e-21 -4.34564e-21 -0.0151666)
(-1.0874e-21 -1.02925e-20 -0.0114894)
(9.82014e-25 -8.75014e-24 -0.00862507)
(3.89203e-23 -8.51225e-26 -0.0064387)
(1.76942e-22 1.98817e-24 -0.00479832)
(-3.30044e-22 -6.12289e-21 -0.00358422)
(1.32587e-20 3.77198e-19 -0.00269365)
(-1.46342e-20 -4.08623e-19 -0.0020434)
(1.13307e-20 4.05974e-19 -0.00156686)
(-6.36284e-21 -2.02809e-19 -0.00121594)
(-9.77536e-21 -4.23896e-19 -0.000953287)
(4.43049e-21 2.13509e-19 -0.000752597)
(1.53733e-22 -6.68962e-21 -0.000595705)
(-5.50445e-22 -1.38274e-20 -0.000470056)
(3.37918e-22 6.98741e-21 -0.000367085)
(-3.04815e-22 -2.13216e-20 -0.000280958)
(2.78552e-21 2.22204e-19 -0.000207685)
(-5.83066e-21 -4.67808e-19 -0.00014449)
(2.68778e-21 2.24004e-19 -8.94053e-05)
(-5.36789e-23 -2.18281e-20 -4.09935e-05)
(-1.57688e-22 7.36126e-21 1.82603e-06)
(3.16416e-23 8.31335e-23 3.98948e-05)
(-9.63833e-22 -1.27487e-19 7.38905e-05)
(8.28024e-22 1.12487e-19 0.000104375)
(7.64916e-22 1.06423e-19 0.000131825)
(-1.05092e-21 -1.44433e-19 0.000156649)
(6.33843e-23 7.54899e-21 0.000179208)
(1.56114e-22 3.86542e-20 0.000199845)
(-3.14966e-22 -6.95439e-20 0.00021893)
(-1.71986e-22 -7.78895e-21 0.000236971)
(-1.71918e-22 -5.47659e-20 0.000254773)
(-8.47661e-23 -7.97998e-21 0.000273696)
(8.92665e-23 1.56994e-20 0.000295942)
(9.43747e-23 2.37617e-20 0.000324719)
(-1.51779e-20 -4.46493e-23 -0.00302125)
(2.7671e-20 1.13581e-20 -0.0556277)
(-7.16178e-21 8.59935e-22 -0.0944916)
(-3.76888e-20 -1.19052e-20 -0.120548)
(1.47457e-20 6.98369e-21 -0.135298)
(-1.0357e-19 -1.519e-19 -0.140546)
(1.12412e-19 1.35088e-19 -0.138243)
(1.50972e-19 2.58493e-19 -0.130334)
(-8.92642e-21 7.13576e-20 -0.118651)
(-2.89586e-19 -6.54221e-19 -0.104808)
(3.00298e-19 7.5567e-19 -0.0901398)
(-1.47103e-19 -3.89892e-19 -0.0756786)
(-9.0136e-22 -1.06899e-20 -0.0621571)
(-9.36203e-22 -1.13488e-21 -0.0500381)
(1.17927e-19 5.93555e-19 -0.0395571)
(-1.32195e-20 2.89884e-20 -0.0307708)
(-1.02207e-19 -6.12557e-19 -0.0236072)
(3.69918e-21 2.02028e-20 -0.0179105)
(-7.59879e-22 2.4248e-23 -0.0134806)
(2.90056e-23 -2.26705e-22 -0.0101025)
(2.98788e-20 3.81802e-19 -0.00756892)
(-2.89757e-20 -3.69457e-19 -0.00569295)
(-2.327e-20 -3.89392e-19 -0.00431562)
(2.46318e-20 4.14258e-19 -0.00330668)
(5.12304e-22 1.32171e-20 -0.0025661)
(-5.68633e-22 -1.32018e-20 -0.00201589)
(2.45033e-22 1.36529e-20 -0.00160159)
(-1.30306e-20 -4.23679e-19 -0.00128231)
(1.40675e-20 4.37581e-19 -0.00103032)
(-1.11526e-20 -4.19728e-19 -0.000826502)
(1.19734e-20 4.47863e-19 -0.000657871)
(2.67613e-22 1.41916e-20 -0.000515596)
(8.67157e-21 4.61283e-19 -0.000393639)
(-1.69734e-20 -9.11393e-19 -0.000287799)
(9.02832e-21 4.78993e-19 -0.000195084)
(3.10613e-21 2.50897e-19 -0.000113294)
(-2.71234e-21 -2.21112e-19 -4.07571e-05)
(-5.89795e-22 -1.35307e-22 2.38524e-05)
(3.04164e-22 -9.26587e-24 8.16196e-05)
(9.09738e-23 -1.49104e-22 0.00013346)
(2.23586e-21 2.43122e-19 0.00018016)
(-2.31435e-21 -2.27928e-19 0.000222402)
(2.48128e-23 1.51765e-20 0.000260791)
(2.40022e-22 -6.83339e-23 0.000295893)
(8.23364e-22 1.23974e-19 0.000328318)
(-1.76995e-21 -2.32847e-19 0.000358878)
(9.31332e-22 1.24432e-19 0.000388854)
(-4.61282e-22 -6.2649e-20 0.000420409)
(3.26818e-22 4.69776e-20 0.000457086)
(8.83662e-23 1.57617e-20 0.00050421)
(1.33679e-21 2.63784e-20 -0.0228681)
(8.61966e-21 -5.02607e-20 -0.0936526)
(1.25317e-19 1.69436e-19 -0.143075)
(-3.40108e-19 -3.29434e-19 -0.173795)
(2.30393e-19 1.56667e-19 -0.188989)
(1.55735e-19 2.26487e-19 -0.191826)
(-1.76174e-19 -2.03062e-19 -0.185324)
(1.93078e-19 3.08898e-19 -0.172247)
(-4.0907e-19 -6.67796e-19 -0.155024)
(2.29124e-19 3.46243e-19 -0.13569)
(-6.65245e-21 1.25115e-20 -0.11586)
(-4.80752e-21 7.62178e-22 -0.0967292)
(7.52443e-21 9.66489e-21 -0.0791149)
(-1.80487e-19 -5.96037e-19 -0.0635041)
(1.71507e-19 5.74465e-19 -0.0501157)
(2.60173e-21 2.1773e-20 -0.0389628)
(-8.23261e-22 -1.10954e-20 -0.029913)
(1.17671e-19 7.15875e-19 -0.0227426)
(-1.17692e-19 -7.14378e-19 -0.0171814)
(-1.53725e-21 -1.26405e-20 -0.0129483)
(-2.16472e-22 -1.21625e-23 -0.00977606)
(5.18775e-22 1.31794e-22 -0.00742662)
(2.14315e-22 -8.37608e-24 -0.00569878)
(2.37781e-22 1.30111e-20 -0.00442939)
(8.64466e-22 7.55127e-23 -0.00349201)
(5.78179e-22 1.39319e-20 -0.00279064)
(-4.40236e-20 -8.89613e-19 -0.00225622)
(4.40467e-20 8.7539e-19 -0.00183941)
(-1.03034e-21 8.44097e-22 -0.00150595)
(-1.52498e-20 -4.53064e-19 -0.00123252)
(1.66438e-20 4.66961e-19 -0.00100333)
(-3.60182e-22 2.99529e-22 -0.000807697)
(-1.15066e-22 2.8415e-22 -0.00063832)
(-1.12605e-20 -4.83221e-19 -0.000490124)
(2.23439e-20 9.54449e-19 -0.000359472)
(-2.07622e-20 -9.45587e-19 -0.000243664)
(1.9007e-20 9.51345e-19 -0.000140606)
(-1.74517e-20 -9.56404e-19 -4.86027e-05)
(8.25277e-21 4.79002e-19 3.37753e-05)
(3.98937e-21 2.4258e-19 0.000107763)
(-3.45069e-21 -2.11753e-19 0.000174441)
(-9.21156e-23 -1.5228e-20 0.000234761)
(-3.00143e-21 -2.45562e-19 0.000289567)
(6.31912e-21 5.22257e-19 0.000339644)
(-3.01672e-21 -2.45981e-19 0.000385822)
(1.05044e-22 -1.52217e-22 0.000429173)
(2.08313e-22 1.5522e-20 0.000471366)
(-1.13999e-22 1.61088e-23 0.000515218)
(-1.13305e-22 -1.56374e-20 0.000565439)
(2.62849e-22 3.13236e-20 0.000629442)
(2.69022e-20 7.84093e-25 -0.06244)
(-7.78804e-22 -5.52703e-22 -0.148953)
(-5.70569e-20 -1.32421e-21 -0.20284)
(7.64151e-20 -2.8192e-21 -0.232013)
(-2.73805e-20 -6.02172e-21 -0.242395)
(-3.16361e-20 -1.37572e-21 -0.23889)
(1.48506e-20 4.25669e-21 -0.22559)
(-7.72074e-21 -5.87362e-21 -0.205912)
(4.43545e-20 -1.7201e-20 -0.182659)
(5.04564e-19 9.55159e-19 -0.158038)
(-2.64799e-20 9.16139e-20 -0.133706)
(-5.1066e-19 -1.06429e-18 -0.11083)
(4.59718e-19 1.19537e-18 -0.0901554)
(-4.67476e-19 -1.19398e-18 -0.0720845)
(1.97029e-19 6.67521e-19 -0.0567485)