/*--------------------------------*- C++ -*----------------------------------*\
| =========                 |                                                 |
| \\      /  F ield         | OpenFOAM: The Open Source CFD Toolbox           |
|  \\    /   O peration     | Version:  2412                                  |
|   \\  /    A nd           | Website:  www.openfoam.com                      |
|    \\/     M anipulation  |                                                 |
\*---------------------------------------------------------------------------*/
FoamFile
{
    version     2.0;
    format      ascii;
    arch        "LSB;label=32;scalar=64";
    class       surfaceScalarField;
    location    "19";
    object      phi;
}
// * * * * * * * * * * * * * * * * * * * * * * * * * * * * * * * * * * * * * //

dimensions      [0 3 -1 0 0 0 0];

oriented        oriented;

internalField   nonuniform List<scalar> 
10424
(
0.00531293
-0.000183945
-0.0053103
0.000181314
0.00531571
-0.0001877
0.000184922
0.00531864
-0.000191497
0.000188565
0.00532173
-0.000195332
0.000192239
0.00532499
-0.0001992
0.00019594
0.00532843
-0.000203097
0.000199663
0.00533204
-0.000207018
0.000203403
0.00533584
-0.000210957
0.000207155
0.00533984
-0.000214908
0.000210912
0.00534403
-0.000218864
0.000214668
0.00534843
-0.000222818
0.000218415
0.00535305
-0.000226761
0.000222146
0.00535789
-0.000230686
0.000225851
0.00536295
-0.000234582
0.000229521
0.00536824
-0.000238438
0.000233146
-0.000242242
0.000236714
0.0053091
-0.000186533
-0.00530651
0.00531183
-0.000190439
0.00531473
-0.000194394
0.00531779
-0.000198393
0.00532103
-0.000202434
0.00532444
-0.00020651
0.00532804
-0.000210617
0.00533183
-0.000214749
0.00533582
-0.000218901
0.00534003
-0.000223065
0.00534444
-0.000227234
0.00534908
-0.000231399
0.00535395
-0.000235553
0.00535905
-0.000239685
0.00536439
-0.000243783
-0.000247836
0.00530513
-0.000189071
-0.00530259
0.00530782
-0.000193132
0.00531067
-0.000197248
0.0053137
-0.000201417
0.0053169
-0.000205634
0.00532028
-0.000209894
0.00532386
-0.000214193
0.00532763
-0.000218525
0.00533162
-0.000222884
0.00533582
-0.000227264
0.00534024
-0.000231656
0.00534489
-0.000236053
0.00534978
-0.000240445
0.00535492
-0.000244823
0.00536031
-0.000249175
-0.000253487
0.00530102
-0.000191553
-0.00529854
0.00530366
-0.000195771
0.00530646
-0.000200053
0.00530944
-0.000204394
0.0053126
-0.000208792
0.00531595
-0.000213242
0.00531949
-0.000217738
0.00532324
-0.000222276
0.00532721
-0.00022685
0.0053314
-0.000231452
0.00533582
-0.000236076
0.00534048
-0.000240713
0.00534539
-0.000245354
0.00535055
-0.000249989
0.00535598
-0.000254605
-0.00025919
0.00529677
-0.00019397
-0.00529435
0.00529934
-0.000198349
0.00530209
-0.000202799
0.00530501
-0.000207317
0.00530812
-0.000211901
0.00531142
-0.000216544
0.00531493
-0.000221244
0.00531865
-0.000225994
0.00532259
-0.000230789
0.00532676
-0.000235622
0.00533117
-0.000240486
0.00533583
-0.000245372
0.00534074
-0.000250271
0.00534593
-0.000255174
0.00535139
-0.000260067
-0.000264937
0.00529236
-0.000196314
-0.00529002
0.00529487
-0.000200857
0.00529755
-0.000205478
0.00530041
-0.000210178
0.00530346
-0.000214951
0.00530671
-0.000219793
0.00531017
-0.000224701
0.00531384
-0.00022967
0.00531775
-0.000234693
0.00532189
-0.000239764
0.00532628
-0.000244875
0.00533093
-0.00025002
0.00533584
-0.000255188
0.00534104
-0.000260368
0.00534652
-0.00026555
-0.000270719
0.00528781
-0.000198578
-0.00528555
0.00529024
-0.000203286
0.00529284
-0.000208083
0.00529563
-0.000212966
0.00529861
-0.000217932
0.0053018
-0.000222978
0.0053052
-0.0002281
0.00530882
-0.000233292
0.00531268
-0.00023855
0.00531678
-0.000243866
0.00532114
-0.000249234
0.00532576
-0.000254646
0.00533067
-0.000260092
0.00533586
-0.000265563
0.00534136
-0.000271045
-0.000276526
0.0052831
-0.000200752
-0.00528092
0.00528544
-0.000205628
0.00528796
-0.000210602
0.00529066
-0.000215672
0.00529357
-0.000220835
0.00529668
-0.000226089
0.00530001
-0.000231429
0.00530357
-0.000236851
0.00530737
-0.00024235
0.00531142
-0.000247919
0.00531574
-0.000253551
0.00532033
-0.000259239
0.00532521
-0.000264974
0.00533039
-0.000270745
0.00533589
-0.000276541
-0.000282346
0.00527822
-0.000202827
-0.00527615
0.00528047
-0.000207872
0.00528289
-0.000213026
0.0052855
-0.000218286
0.00528832
-0.00022365
0.00529134
-0.000229115
0.00529459
-0.000234678
0.00529808
-0.000240335
0.00530181
-0.000246081
0.0053058
-0.000251909
0.00531006
-0.000257814
0.00531461
-0.000263788
0.00531946
-0.000269821
0.00532462
-0.000275904
0.0053301
-0.000282024
-0.000288169
0.00527318
-0.000204794
-0.00527122
0.00527532
-0.00021001
0.00527764
-0.000215344
0.00528015
-0.000220796
0.00528286
-0.000226364
0.00528579
-0.000232045
0.00528895
-0.000237835
0.00529235
-0.000243732
0.005296
-0.000249731
0.00529991
-0.000255825
0.00530411
-0.00026201
0.0053086
-0.000268278
0.0053134
-0.000274619
0.00531852
-0.000281025
0.00532397
-0.000287483
-0.000293979
0.00526798
-0.000206642
-0.00526613
0.00527
-0.000212029
0.0052722
-0.000217547
0.00527459
-0.000223193
0.0052772
-0.000228966
0.00528002
-0.000234865
0.00528307
-0.000240887
0.00528637
-0.000247028
0.00528992
-0.000253285
0.00529375
-0.000259653
0.00529786
-0.000266125
0.00530228
-0.000272695
0.00530701
-0.000279354
0.00531208
-0.000286093
0.0053175
-0.000292901
-0.000299763
0.0052626
-0.00020836
-0.00526088
0.00526449
-0.00021392
0.00526657
-0.000219621
0.00526884
-0.000225463
0.00527131
-0.000231444
0.00527401
-0.000237564
0.00527695
-0.00024382
0.00528013
-0.00025021
0.00528357
-0.00025673
0.0052873
-0.000263376
0.00529131
-0.000270143
0.00529564
-0.000277023
0.0053003
-0.00028401
0.0053053
-0.000291093
0.00531066
-0.000298263
-0.000305504
0.00525705
-0.000209939
-0.00525548
0.0052588
-0.000215671
0.00526074
-0.000221556
0.00526287
-0.000227594
0.00526521
-0.000233785
0.00526777
-0.000240127
0.00527058
-0.000246621
0.00527363
-0.000253263
0.00527695
-0.000260051
0.00528055
-0.000266981
0.00528446
-0.000274048
0.00528868
-0.000281246
0.00529324
-0.000288569
0.00529815
-0.000296007
0.00530344
-0.00030355
-0.000311184
0.00525134
-0.000211366
-0.00524991
0.00525294
-0.00021727
0.00525472
-0.000223339
0.0052567
-0.000229573
0.00525889
-0.000235974
0.0052613
-0.000242541
0.00526395
-0.000249274
0.00526686
-0.000256171
0.00527004
-0.00026323
0.00527351
-0.000270449
0.00527728
-0.000277823
0.00528138
-0.000285346
0.00528583
-0.000293014
0.00529064
-0.000300816
0.00529583
-0.000308744
-0.000316784
0.00524545
-0.000212631
-0.00524418
0.00524688
-0.000218705
0.0052485
-0.000224956
0.00525031
-0.000231387
0.00525234
-0.000237998
0.00525459
-0.00024479
0.00525708
-0.000251764
0.00525982
-0.000258918
0.00526284
-0.000266252
0.00526616
-0.000273763
0.00526978
-0.000281449
0.00527374
-0.000289304
0.00527805
-0.000297323
0.00528274
-0.000305499
0.00528781
-0.000313823
-0.000322281
0.00523939
-0.000213721
-0.0052383
0.00524065
-0.000219963
0.00524209
-0.000226395
0.00524372
-0.00023302
0.00524556
-0.000239841
0.00524763
-0.000246858
0.00524994
-0.000254073
0.00525251
-0.000261486
0.00525535
-0.000269097
0.0052585
-0.000276905
0.00526195
-0.000284906
0.00526575
-0.000293098
0.0052699
-0.000301477
0.00527444
-0.000310035
0.00527938
-0.000318764
-0.000327653
0.00523316
-0.000214623
-0.00523226
0.00523423
-0.000221031
0.00523548
-0.000227642
0.00523692
-0.00023446
0.00523856
-0.000241489
0.00524043
-0.00024873
0.00524255
-0.000256186
0.00524492
-0.000263858
0.00524757
-0.000271747
0.00525052
-0.000279853
0.00525378
-0.000288174
0.00525739
-0.000296708
0.00526137
-0.000305451
0.00526573
-0.000314399
0.00527051
-0.000323543
-0.000332873
0.00522677
-0.000215327
-0.00522606
0.00522763
-0.000221895
0.00522867
-0.000228682
0.0052299
-0.00023569
0.00523134
-0.000242924
0.005233
-0.000250388
0.00523489
-0.000258083
0.00523705
-0.000266014
0.00523948
-0.000274181
0.00524222
-0.000282586
0.00524527
-0.000291229
0.00524867
-0.000300108
0.00525244
-0.000309222
0.00525661
-0.000318566
0.0052612
-0.000328133
-0.000337915
0.00522021
-0.000215817
-0.00521972
0.00522086
-0.000222543
0.00522168
-0.000229501
0.00522268
-0.000236695
0.00522389
-0.000244131
0.00522532
-0.000251814
0.00522698
-0.000259747
0.0052289
-0.000267934
0.0052311
-0.000276379
0.00523359
-0.000285083
0.00523641
-0.000294049
0.00523958
-0.000303276
0.00524312
-0.000312763
0.00524707
-0.000322508
0.00525144
-0.000332506
-0.000342749
0.0052135
-0.00521323
0.00521391
0.0052145
0.00521526
0.00521622
0.0052174
0.00521881
0.00522047
0.00522241
0.00522465
0.00522721
0.00523012
0.0052334
0.00523709
0.00524121
0.00529287
-5.09623e-06
5.11742e-06
0.00529281
-1.48939e-05
1.49565e-05
0.00529271
-2.41448e-05
2.42454e-05
0.00529258
-3.27816e-05
3.29116e-05
0.00529243
-4.08876e-05
4.10419e-05
0.00529223
-4.91896e-05
4.939e-05
0.0052919
-5.92569e-05
5.95784e-05
0.00529133
-7.30129e-05
7.35866e-05
0.00529035
-9.17398e-05
9.27204e-05
0.00528884
-0.000115201
0.000116711
0.00528676
-0.000141438
0.000143515
0.00528419
-0.000167334
0.000169904
0.0052813
-0.000189617
0.000192509
0.00527832
-0.000205805
0.000208791
0.00527547
-0.000214747
0.000217594
0.00527296
-0.000216664
0.000219176
0.00527091
-0.000212812
0.000214859
0.00526939
-0.000204988
0.000206512
0.00526838
-0.000195055
0.00019606
0.00526785
-0.000184612
0.000185148
0.0052677
-0.000174825
0.000174969
0.00526787
-0.000166408
0.000166243
0.00526826
-0.000159679
0.000159288
0.00526881
-0.000154673
0.000154125
0.00526946
-0.000151244
0.000150593
0.00527017
-0.000149154
0.00014844
0.00527092
-0.00014814
0.000147389
0.00527169
-0.00014795
0.000147178
0.00527248
-0.000148366
0.000147581
0.00527328
-0.000149212
0.000148415
0.00527409
-0.000150349
0.000149537
0.00527492
-0.000151673
0.000150841
0.00527578
-0.000153107
0.00015225
0.00527667
-0.000154598
0.000153709
0.00527759
-0.000156105
0.000155178
0.00527856
-0.000157601
0.000156629
0.00527959
-0.000159066
0.000158045
0.00528066
-0.000160487
0.00015941
0.0052818
-0.000161852
0.000160715
0.005283
-0.000163155
0.000161953
0.00528427
-0.000164388
0.000163118
0.00528562
-0.000165548
0.000164207
0.00528703
-0.000166631
0.000165215
0.00528852
-0.000167633
0.00016614
0.0052901
-0.000168551
0.000166981
0.00529175
-0.000169384
0.000167734
0.00529348
-0.00017013
0.000168398
0.00529529
-0.000170786
0.000168973
0.00529719
-0.000171353
0.000169456
0.00529917
-0.000171828
0.000169849
0.00530123
-0.000172211
0.000170149
0.00530337
-0.000172502
0.000170357
0.0053056
-0.0001727
0.000170473
0.00530791
-0.000172806
0.000170498
-0.00017282
0.000170431
0.00529287
-5.07234e-06
0.0052928
-1.48234e-05
0.00529269
-2.40315e-05
0.00529254
-3.26341e-05
0.00529236
-4.07116e-05
0.00529214
-4.89635e-05
0.00529179
-5.89061e-05
0.00529118
-7.24065e-05
0.00529016
-9.07223e-05
0.00528861
-0.000113649
0.00528648
-0.000139313
0.00528386
-0.000164707
0.0052809
-0.000186657
0.00527783
-0.000202741
0.0052749
-0.000211812
0.00527229
-0.000214055
0.00527014
-0.000210662
0.00526851
-0.000203358
0.0052674
-0.000193942
0.00526675
-0.000183968
0.0052665
-0.000174576
0.00526656
-0.000166469
0.00526686
-0.00015997
0.00526731
-0.000155125
0.00526786
-0.000151801
0.00526849
-0.000149777
0.00526915
-0.000148802
0.00526983
-0.000148634
0.00527053
-0.000149066
0.00527125
-0.000149925
0.00527197
-0.000151077
0.00527272
-0.000152421
0.0052735
-0.000153882
0.0052743
-0.000155404
0.00527515
-0.00015695
0.00527604
-0.000158491
0.00527698
-0.000160008
0.00527798
-0.000161485
0.00527904
-0.000162911
0.00528016
-0.000164279
0.00528135
-0.000165582
0.00528262
-0.000166814
0.00528396
-0.000167972
0.00528538
-0.000169052
0.00528688
-0.000170051
0.00528846
-0.000170965
0.00529013
-0.000171794
0.00529188
-0.000172535
0.00529371
-0.000173186
0.00529563
-0.000173747
0.00529763
-0.000174216
0.00529973
-0.000174593
0.0053019
-0.000174876
0.00530416
-0.000175067
-0.000175164
0.00529287
-5.04574e-06
0.00529279
-1.47449e-05
0.00529266
-2.39053e-05
0.0052925
-3.2469e-05
0.0052923
-4.05134e-05
0.00529205
-4.87114e-05
0.00529167
-5.85267e-05
0.00529103
-7.177e-05
0.00528998
-8.96742e-05
0.0052884
-0.000112065
0.00528624
-0.000137152
0.00528357
-0.000162038
0.00528056
-0.000183647
0.00527743
-0.000199615
0.00527443
-0.000208803
0.00527173
-0.00021136
0.00526948
-0.000208415
0.00526775
-0.000201622
0.00526652
-0.000192718
0.00526577
-0.00018321
0.0052654
-0.000174212
0.00526535
-0.000166417
0.00526553
-0.000160151
0.00526588
-0.000155469
0.00526633
-0.000152255
0.00526685
-0.000150299
0.00526741
-0.000149365
0.005268
-0.000149223
0.00526861
-0.000149672
0.00526923
-0.000150546
0.00526987
-0.000151715
0.00527053
-0.00015308
0.00527121
-0.000154567
0.00527193
-0.000156123
0.00527269
-0.000157709
0.00527349
-0.000159296
0.00527435
-0.000160864
0.00527526
-0.000162397
0.00527624
-0.000163886
0.00527728
-0.00016532
0.00527839
-0.000166693
0.00527957
-0.000167999
0.00528084
-0.000169234
0.00528218
-0.000170393
0.0052836
-0.000171473
0.00528511
-0.000172472
0.0052867
-0.000173386
0.00528838
-0.000174213
0.00529014
-0.000174952
0.005292
-0.000175601
0.00529394
-0.000176158
0.00529597
-0.000176623
0.00529809
-0.000176995
0.00530029
-0.000177274
-0.000177459
0.00529286
-5.01639e-06
0.00529278
-1.46585e-05
0.00529264
-2.37662e-05
0.00529246
-3.2286e-05
0.00529224
-4.02928e-05
0.00529196
-4.84333e-05
0.00529155
-5.81194e-05
0.00529089
-7.11061e-05
0.00528981
-8.86007e-05
0.00528821
-0.000110458
0.00528602
-0.000134969
0.00528333
-0.000159344
0.00528028
-0.000180603
0.00527711
-0.000196442
0.00527404
-0.000205732
0.00527127
-0.000208587
0.00526893
-0.000206076
0.00526709
-0.000199782
0.00526575
-0.000191381
0.00526487
-0.000182334
0.00526439
-0.000173728
0.00526422
-0.000166244
0.00526428
-0.000160212
0.00526451
-0.000155697
0.00526485
-0.000152595
0.00526526
-0.000150712
0.00526572
-0.000149823
0.0052662
-0.000149709
0.00526671
-0.000150178
0.00526723
-0.000151069
0.00526777
-0.000152257
0.00526834
-0.000153644
0.00526893
-0.000155159
0.00526955
-0.000156749
0.00527022
-0.000158375
0.00527093
-0.000160008
0.0052717
-0.000161628
0.00527252
-0.00016322
0.0052734
-0.000164771
0.00527436
-0.000166272
0.00527538
-0.000167716
0.00527648
-0.000169097
0.00527765
-0.00017041
0.00527891
-0.00017165
0.00528025
-0.000172813
0.00528167
-0.000173897
0.00528319
-0.000174898
0.00528479
-0.000175814
0.00528648
-0.000176643
0.00528826
-0.000177382
0.00529013
-0.000178031
0.0052921
-0.000178587
0.00529415
-0.000179051
0.0052963
-0.000179421
-0.000179696
0.00529286
-4.98429e-06
0.00529277
-1.45641e-05
0.00529262
-2.36139e-05
0.00529241
-3.2085e-05
0.00529217
-4.00495e-05
0.00529187
-4.81289e-05
0.00529143
-5.76846e-05
0.00529074
-7.04166e-05
0.00528965
-8.75061e-05
0.00528802
-0.000108835
0.00528583
-0.000132773
0.00528312
-0.000156635
0.00528006
-0.000177539
0.00527685
-0.000193236
0.00527373
-0.000202612
0.00527089
-0.000205746
0.00526846
-0.00020365
0.00526652
-0.000197839
0.00526507
-0.000189929
0.00526407
-0.000181335
0.00526346
-0.000173116
0.00526316
-0.000165943
0.00526309
-0.000160146
0.00526319
-0.0001558
0.00526341
-0.000152814
0.00526371
-0.000151007
0.00526405
-0.000150167
0.00526443
-0.000150085
0.00526483
-0.000150576
0.00526524
-0.000151487
0.00526568
-0.000152695
0.00526615
-0.000154107
0.00526664
-0.000155651
0.00526716
-0.000157276
0.00526773
-0.000158943
0.00526835
-0.000160623
0.00526902
-0.000162296
0.00526974
-0.000163946
0.00527053
-0.000165561
0.00527139
-0.00016713
0.00527232
-0.000168646
0.00527333
-0.000170103
0.00527441
-0.000171495
0.00527558
-0.000172817
0.00527683
-0.000174065
0.00527817
-0.000175236
0.00527959
-0.000176326
0.00528111
-0.000177332
0.00528272
-0.000178253
0.00528442
-0.000179085
0.00528622
-0.000179827
0.00528811
-0.000180478
0.0052901
-0.000181036
0.00529218
-0.0001815
-0.00018187
0.00529286
-4.94941e-06
0.00529276
-1.44616e-05
0.00529259
-2.34486e-05
0.00529237
-3.18659e-05
0.00529211
-3.97834e-05
0.00529178
-4.77982e-05
0.00529131
-5.72227e-05
0.0052906
-6.9703e-05
0.00528949
-8.6394e-05
0.00528786
-0.000107203
0.00528566
-0.000130574
0.00528294
-0.000153924
0.00527987
-0.000174465
0.00527664
-0.000190008
0.00527348
-0.000199451
0.00527058
-0.000202844
0.00526807
-0.000201142
0.00526603
-0.000195797
0.00526446
-0.000188363
0.00526334
-0.000180211
0.0052626
-0.000172373
0.00526216
-0.000165508
0.00526196
-0.000159947
0.00526193
-0.000155772
0.00526202
-0.000152905
0.0052622
-0.000151178
0.00526242
-0.00015039
0.00526268
-0.000150344
0.00526296
-0.000150861
0.00526327
-0.000151794
0.0052636
-0.000153026
0.00526396
-0.000154463
0.00526434
-0.000156038
0.00526477
-0.000157699
0.00526523
-0.000159408
0.00526574
-0.000161136
0.00526631
-0.000162863
0.00526694
-0.000164572
0.00526763
-0.00016625
0.00526838
-0.000167888
0.00526922
-0.000169477
0.00527012
-0.00017101
0.00527111
-0.000172482
0.00527218
-0.000173887
0.00527334
-0.000175221
0.00527458
-0.000176481
0.00527592
-0.000177661
0.00527735
-0.00017876
0.00527887
-0.000179774
0.00528048
-0.000180702
0.0052822
-0.00018154
0.00528401
-0.000182288
0.00528591
-0.000182943
0.00528792
-0.000183505
-0.000183972
0.00529286
-4.91174e-06
0.00529275
-1.4351e-05
0.00529257
-2.327e-05
0.00529233
-3.16285e-05
0.00529204
-3.94941e-05
0.00529168
-4.74409e-05
0.00529119
-5.67338e-05
0.00529046
-6.89664e-05
0.00528933
-8.52668e-05
0.00528769
-0.000105565
0.0052855
-0.000128377
0.00528279
-0.000151218
0.00527972
-0.000171391
0.00527647
-0.000186768
0.00527328
-0.000196259
0.00527033
-0.000199889
0.00526774
-0.000198558
0.0052656
-0.000193656
0.00526392
-0.000186682
0.00526267
-0.00017896
0.00526179
-0.000171495
0.00526122
-0.000164934
0.00526088
-0.000159608
0.00526072
-0.000155607
0.00526067
-0.000152862
0.00526071
-0.000151219
0.00526081
-0.000150488
0.00526095
-0.00015048
0.00526111
-0.000151027
0.00526131
-0.000151986
0.00526152
-0.000153242
0.00526177
-0.000154708
0.00526204
-0.000156315
0.00526236
-0.000158013
0.00526271
-0.000159765
0.00526312
-0.000161542
0.00526358
-0.000163323
0.0052641
-0.000165091
0.00526468
-0.000166834
0.00526533
-0.00016854
0.00526606
-0.000170203
0.00526686
-0.000171813
0.00526775
-0.000173366
0.00526872
-0.000174855
0.00526977
-0.000176277
0.00527092
-0.000177625
0.00527215
-0.000178898
0.00527348
-0.000180091
0.00527491
-0.000181201
0.00527644
-0.000182226
0.00527806
-0.000183163
0.00527978
-0.00018401
0.0052816
-0.000184765
0.00528352
-0.000185427
-0.000185994
0.00529285
-4.87128e-06
0.00529273
-1.42322e-05
0.00529254
-2.30783e-05
0.00529229
-3.13728e-05
0.00529197
-3.91816e-05
0.00529159
-4.70568e-05
0.00529107
-5.6218e-05
0.00529032
-6.82073e-05
0.00528918
-8.41261e-05
0.00528753
-0.000103924
0.00528534
-0.000126187
0.00528265
-0.000148522
0.00527958
-0.000168324
0.00527634
-0.000183522
0.00527312
-0.000193042
0.00527012
-0.000196884
0.00526746
-0.000195901
0.00526522
-0.000191421
0.00526343
-0.000184887
0.00526205
-0.000177581
0.00526104
-0.000170481
0.00526032
-0.00016422
0.00525984
-0.000159128
0.00525953
-0.000155301
0.00525935
-0.000152681
0.00525926
-0.000151125
0.00525923
-0.000150454
0.00525924
-0.00015049
0.00525928
-0.000151069
0.00525935
-0.000152056
0.00525945
-0.00015334
0.00525957
-0.000154836
0.00525974
-0.000156477
0.00525994
-0.000158213
0.00526018
-0.000160009
0.00526047
-0.000161835
0.00526082
-0.000163671
0.00526123
-0.000165498
0.0052617
-0.000167306
0.00526224
-0.000169082
0.00526286
-0.000170818
0.00526355
-0.000172506
0.00526433
-0.000174141
0.00526518
-0.000175715
0.00526613
-0.000177224
0.00526717
-0.000178664
0.0052683
-0.00018003
0.00526953
-0.000181318
0.00527085
-0.000182526
0.00527228
-0.000183649
0.0052738
-0.000184687
0.00527543
-0.000185635
0.00527716
-0.000186493
0.00527899
-0.000187258
-0.000187929
0.00529285
-4.828e-06
0.00529272
-1.41053e-05
0.00529252
-2.28732e-05
0.00529224
-3.10987e-05
0.00529191
-3.88458e-05
0.0052915
-4.66458e-05
0.00529095
-5.5675e-05
0.00529017
-6.74258e-05
0.00528902
-8.29726e-05
0.00528738
-0.000102283
0.0052852
-0.000124006
0.00528252
-0.000145842
0.00527946
-0.000165269
0.00527622
-0.000180276
0.00527298
-0.000189805
0.00526993
-0.000193837
0.00526721
-0.000193175
0.00526488
-0.000189094
0.00526297
-0.000182981
0.00526147
-0.000176076
0.00526032
-0.000169329
0.00525946
-0.000163362
0.00525883
-0.000158502
0.00525838
-0.000154851
0.00525806
-0.000152358
0.00525783
-0.000150893
0.00525766
-0.000150286
0.00525754
-0.000150368
0.00525745
-0.000150983
0.0052574
-0.000152001
0.00525737
-0.000153315
0.00525738
-0.000154842
0.00525742
-0.000156518
0.0052575
-0.000158295
0.00525763
-0.000160135
0.0052578
-0.000162011
0.00525803
-0.000163901
0.00525832
-0.000165789
0.00525868
-0.000167662
0.0052591
-0.000169507
0.0052596
-0.000171317
0.00526018
-0.000173084
0.00526084
-0.0001748
0.00526158
-0.00017646
0.00526242
-0.000178057
0.00526334
-0.000179589
0.00526436
-0.000181049
0.00526548
-0.000182434
0.00526669
-0.000183741
0.00526801
-0.000184965
0.00526943
-0.000186105
0.00527095
-0.000187157
0.00527258
-0.00018812
0.00527431
-0.000188991
-0.000189768
0.00529285
-4.78191e-06
0.00529271
-1.39702e-05
0.00529249
-2.26548e-05
0.0052922
-3.0806e-05
0.00529184
-3.84865e-05
0.0052914
-4.62078e-05
0.00529083
-5.51047e-05
0.00529003
-6.66218e-05
0.00528886
-8.18062e-05
0.00528722
-0.000100642
0.00528505
-0.000121837
0.00528239
-0.000143178
0.00527935
-0.000162228
0.00527611
-0.000177033
0.00527285
-0.000186552
0.00526977
-0.000190749
0.00526698
-0.000190385
0.00526456
-0.000186677
0.00526254
-0.000180964
0.00526091
-0.000174445
0.00525962
-0.000168041
0.00525862
-0.000162362
0.00525785
-0.000157731
0.00525725
-0.000154254
0.00525679
-0.000151891
0.00525641
-0.000150518
0.00525611
-0.000149979
0.00525585
-0.000150111
0.00525563
-0.000150765
0.00525545
-0.000151817
0.00525529
-0.000153163
0.00525518
-0.000154724
0.00525509
-0.000156436
0.00525505
-0.000158253
0.00525505
-0.000160138
0.00525511
-0.000162064
0.00525522
-0.00016401
0.00525539
-0.000165958
0.00525562
-0.000167895
0.00525592
-0.000169811
0.0052563
-0.000171695
0.00525675
-0.000173539
0.00525729
-0.000175337
0.00525792
-0.000177083
0.00525863
-0.00017877
0.00525943
-0.000180393
0.00526033
-0.000181949
0.00526133
-0.000183431
0.00526243
-0.000184838
0.00526363
-0.000186165
0.00526493
-0.000187409
0.00526634
-0.000188567
0.00526786
-0.000189637
0.00526948
-0.000190615
-0.000191502
0.00529285
-4.73299e-06
0.0052927
-1.3827e-05
0.00529247
-2.2423e-05
0.00529216
-3.04949e-05
0.00529178
-3.81038e-05
0.00529131
-4.57427e-05
0.00529071
-5.45069e-05
0.00528989
-6.57947e-05
0.00528871
-8.06265e-05
0.00528706
-9.89993e-05
0.00528491
-0.000119678
0.00528226
-0.000140531
0.00527923
-0.000159203
0.005276
-0.000173794
0.00527273
-0.000183286
0.00526961
-0.000187625
0.00526675
-0.000187532
0.00526425
-0.000184175
0.00526213
-0.000178841
0.00526037
-0.00017269
0.00525895
-0.000166618
0.0052578
-0.000161218
0.00525689
-0.000156813
0.00525614
-0.00015351
0.00525553
-0.000151277
0.00525501
-0.000150001
0.00525456
-0.000149531
0.00525417
-0.000149716
0.00525382
-0.000150412
0.0052535
-0.0001515
0.00525322
-0.00015288
0.00525297
-0.000154476
0.00525276
-0.000156225
0.00525259
-0.000158083
0.00525246
-0.000160014
0.00525239
-0.000161991
0.00525237
-0.000163991
0.00525241
-0.000165999
0.00525252
-0.000168002
0.0052527
-0.000169986
0.00525294
-0.000171944
0.00525327
-0.000173867
0.00525368
-0.000175747
0.00525418
-0.000177578
0.00525476
-0.000179354
0.00525544
-0.000181071
0.00525621
-0.000182722
0.00525708
-0.000184303
0.00525806
-0.000185811
0.00525913
-0.000187241
0.00526031
-0.00018859
0.0052616
-0.000189856
0.005263
-0.000191034
0.00526451
-0.000192124
-0.000193121
0.00529284
-4.68126e-06
0.00529269
-1.36755e-05
0.00529245
-2.2178e-05
0.00529212
-3.01653e-05
0.00529171
-3.76975e-05
0.00529122
-4.52502e-05
0.00529059
-5.38812e-05
0.00528974
-6.4944e-05
0.00528855
-7.94323e-05
0.0052869
-9.73546e-05
0.00528475
-0.000117529
0.00528212
-0.0001379
0.00527911
-0.000156193
0.00527588
-0.000170562
0.0052726
-0.000180009
0.00526944
-0.000184467
0.00526653
-0.00018462
0.00526394
-0.000181589
0.00526172
-0.000176613
0.00525984
-0.000170814
0.00525828
-0.000165061
0.005257
-0.000159933
0.00525593
-0.000155749
0.00525504
-0.000152618
0.00525428
-0.000150516
0.00525362
-0.000149337
0.00525303
-0.000148941
0.00525249
-0.00014918
0.005252
-0.000149921
0.00525155
-0.000151047
0.00525113
-0.000152463
0.00525075
-0.000154095
0.00525041
-0.000155883
0.00525011
-0.000157783
0.00524985
-0.000159759
0.00524965
-0.000161786
0.0052495
-0.000163841
0.00524941
-0.000165909
0.00524938
-0.000167976
0.00524942
-0.000170029
0.00524954
-0.00017206
0.00524973
-0.000174061
0.00525001
-0.000176022
0.00525037
-0.000177939
0.00525082
-0.000179805
0.00525136
-0.000181613
0.005252
-0.00018336
0.00525274
-0.000185041
0.00525358
-0.00018665
0.00525452
-0.000188185
0.00525557
-0.000189641
0.00525673
-0.000191015
0.005258
-0.000192304
0.00525939
-0.000193506
-0.000194617
0.00529284
-4.6267e-06
0.00529268
-1.35158e-05
0.00529242
-2.19195e-05
0.00529207
-2.98173e-05
0.00529164
-3.72678e-05
0.00529112
-4.47304e-05
0.00529047
-5.32272e-05
0.00528959
-6.40688e-05
0.00528838
-7.82223e-05
0.00528674
-9.57057e-05
0.00528459
-0.000115386
0.00528198
-0.000135284
0.00527898
-0.000153196
0.00527575
-0.000167334
0.00527246
-0.000176719
0.00526927
-0.000181275
0.0052663
-0.000181651
0.00526364
-0.000178922
0.00526131
-0.000174283
0.00525931
-0.000168819
0.00525762
-0.000163372
0.0052562
-0.000158508
0.00525499
-0.00015454
0.00525395
-0.00015158
0.00525304
-0.000149609
0.00525223
-0.000148528
0.0052515
-0.000148206
0.00525082
-0.000148503
0.00525019
-0.00014929
0.0052496
-0.000150456
0.00524904
-0.000151909
0.00524853
-0.000153578
0.00524805
-0.000155405
0.00524761
-0.000157347
0.00524722
-0.000159369
0.00524688
-0.000161445
0.0052466
-0.000163555
0.00524637
-0.000165682
0.00524621
-0.000167812
0.00524611
-0.000169934
0.00524609
-0.000172038
0.00524614
-0.000174115
0.00524628
-0.000176157
0.0052465
-0.000178159
0.00524681
-0.000180114
0.00524721
-0.000182015
0.0052477
-0.000183858
0.0052483
-0.000185637
0.005249
-0.000187349
0.0052498
-0.000188988
0.00525071
-0.000190552
0.00525173
-0.000192036
0.00525287
-0.000193437
0.00525411
-0.000194752
-0.000195979
0.00529284
-4.56933e-06
0.00529267
-1.33479e-05
0.0052924
-2.16478e-05
0.00529203
-2.94508e-05
0.00529158
-3.68146e-05
0.00529103
-4.41832e-05
0.00529035
-5.25447e-05
0.00528945
-6.31683e-05
0.00528822
-7.69948e-05
0.00528656
-9.40502e-05
0.00528443
-0.000113248
0.00528182
-0.000132678
0.00527883
-0.000150211
0.00527561
-0.000164109
0.00527231
-0.000173418
0.00526908
-0.000178051
0.00526606
-0.000178627
0.00526332
-0.000176178
0.00526089
-0.000171855
0.00525878
-0.000166708
0.00525696
-0.000161555
0.0052554
-0.000156946
0.00525404
-0.000153188
0.00525286
-0.000150396
0.00525181
-0.000148554
0.00525085
-0.000147573
0.00524997
-0.000147327
0.00524915
-0.000147682
0.00524838
-0.000148517
0.00524764
-0.000149724
0.00524695
-0.000151215
0.0052463
-0.000152922
0.00524568
-0.000154788
0.0052451
-0.000156772
0.00524457
-0.000158839
0.00524409
-0.000160965
0.00524367
-0.000163129
0.0052433
-0.000165314
0.00524299
-0.000167506
0.00524275
-0.000169695
0.00524259
-0.00017187
0.0052425
-0.000174023
0.00524248
-0.000176146
0.00524256
-0.000178232
0.00524272
-0.000180274
0.00524297
-0.000182267
0.00524332
-0.000184206
0.00524377
-0.000186084
0.00524431
-0.000187898
0.00524497
-0.000189642
0.00524573
-0.000191314
0.0052466
-0.000192909
0.00524759
-0.000194423
0.00524869
-0.000195853
-0.000197197
0.00529283
-4.50914e-06
0.00529266
-1.31718e-05
0.00529237
-2.13627e-05
0.00529199
-2.90659e-05
0.00529151
-3.63381e-05
0.00529094
-4.36087e-05
0.00529023
-5.18333e-05
0.0052893
-6.22415e-05
0.00528805
-7.57482e-05
0.00528639
-9.23858e-05
0.00528425
-0.00011111
0.00528165
-0.00013008
0.00527867
-0.000147233
0.00527545
-0.000160885
0.00527214
-0.000170103
0.00526888
-0.000174795
0.0052658
-0.000175549
0.00526298
-0.000173357
0.00526046
-0.000169331
0.00525823
-0.000164485
0.00525629
-0.000159611
0.00525459
-0.000155248
0.0052531
-0.000151695
0.00525177
-0.000149067
0.00525057
-0.000147354
0.00524947
-0.000146472
0.00524844
-0.000146302
0.00524748
-0.000146717
0.00524656
-0.0001476
0.00524569
-0.000148849
0.00524485
-0.00015038
0.00524406
-0.000152125
0.0052433
-0.00015403
0.00524258
-0.000156055
0.00524191
-0.000158167
0.00524128
-0.000160341
0.00524071
-0.000162557
0.0052402
-0.000164799
0.00523975
-0.000167053
0.00523936
-0.000169308
0.00523904
-0.000171553
0.0052388
-0.00017378
0.00523863
-0.000175982
0.00523855
-0.000178151
0.00523856
-0.00018028
0.00523866
-0.000182364
0.00523885
-0.000184397
0.00523914
-0.000186374
0.00523953
-0.000188289
0.00524003
-0.000190139
0.00524063
-0.000191919
0.00524135
-0.000193624
0.00524217
-0.000195252
0.00524312
-0.000196798
-0.00019826
0.00529283
-4.44616e-06
0.00529265
-1.29876e-05
0.00529235
-2.10644e-05
0.00529195
-2.86627e-05
0.00529145
-3.58383e-05
0.00529084
-4.30068e-05
0.0052901
-5.10929e-05
0.00528915
-6.12878e-05
0.00528788
-7.44808e-05
0.00528621
-9.07098e-05
0.00528407
-0.000108971
0.00528147
-0.000127486
0.0052785
-0.00014426
0.00527527
-0.000157659
0.00527195
-0.000166774
0.00526866
-0.000171506
0.00526552
-0.000172417
0.00526263
-0.000170462
0.00526001
-0.000166713
0.00525768
-0.000162151
0.00525561
-0.000157546
0.00525378
-0.000153418
0.00525215
-0.000150063
0.00525068
-0.000147595
0.00524933
-0.000146009
0.00524809
-0.000145225
0.00524692
-0.000145131
0.00524581
-0.000145607
0.00524475
-0.000146539
0.00524373
-0.000147831
0.00524275
-0.000149401
0.00524181
-0.000151183
0.00524091
-0.000153127
0.00524004
-0.000155193
0.00523922
-0.000157349
0.00523845
-0.00015957
0.00523773
-0.000161838
0.00523707
-0.000164135
0.00523646
-0.000166448
0.00523592
-0.000168767
0.00523545
-0.00017108
0.00523505
-0.000173381
0.00523473
-0.000175659
0.00523449
-0.00017791
0.00523433
-0.000180125
0.00523427
-0.000182298
0.00523429
-0.000184424
0.00523442
-0.000186498
0.00523464
-0.000188515
0.00523497
-0.000190469
0.00523541
-0.000192356
0.00523596
-0.000194173
0.00523662
-0.000195914
0.0052374
-0.000197577
-0.000199159
0.00529283
-4.38038e-06
0.00529264
-1.27953e-05