/*--------------------------------*- C++ -*----------------------------------*\
| =========                 |                                                 |
| \\      /  F ield         | OpenFOAM: The Open Source CFD Toolbox           |
|  \\    /   O peration     | Version:  2412                                  |
|   \\  /    A nd           | Website:  www.openfoam.com                      |
|    \\/     M anipulation  |                                                 |
\*---------------------------------------------------------------------------*/
FoamFile
{
    version     2.0;
    format      ascii;
    arch        "LSB;label=32;scalar=64";
    class       volVectorField;
    location    "5.5";
    object      vorticity;
}
// * * * * * * * * * * * * * * * * * * * * * * * * * * * * * * * * * * * * * //

dimensions      [0 0 -1 0 0 0 0];

internalField   nonuniform List<vector> 
5285
(
(0 -0 3.24411e-05)
(0 -0 6.90015e-05)
(0 -0 3.77003e-05)
(0 -0 -3.97993e-05)
(0 -0 -0.000101379)
(0 -0 -0.000117133)
(0 -0 -9.79501e-05)
(0 -0 -6.70731e-05)
(0 -0 -4.01122e-05)
(0 -0 -2.20672e-05)
(0 -0 -1.18767e-05)
(0 -0 -6.80381e-06)
(0 -0 -4.52799e-06)
(0 -0 -3.60284e-06)
(0 -0 -3.26988e-06)
(0 -0 -3.17613e-06)
(0 -0 -3.17094e-06)
(0 -0 -3.19523e-06)
(0 -0 -3.22798e-06)
(0 -0 -3.26172e-06)
(0 -0 -3.29329e-06)
(0 -0 -3.3213e-06)
(0 -0 -3.34529e-06)
(0 -0 -3.366e-06)
(0 -0 -3.38368e-06)
(0 -0 -3.3982e-06)
(0 -0 -3.40869e-06)
(0 -0 -3.41437e-06)
(0 -0 -3.41456e-06)
(0 -0 -3.40907e-06)
(0 -0 -3.39771e-06)
(0 -0 -3.38056e-06)
(0 -0 -3.3574e-06)
(0 -0 -3.32787e-06)
(0 -0 -3.29122e-06)
(0 -0 -3.24657e-06)
(0 -0 -3.19292e-06)
(0 -0 -3.12937e-06)
(0 -0 -3.05512e-06)
(0 -0 -2.96941e-06)
(0 -0 -2.87138e-06)
(0 -0 -2.75992e-06)
(0 -0 -2.63341e-06)
(0 -0 -2.48968e-06)
(0 -0 -2.3258e-06)
(0 -0 -2.13825e-06)
(0 -0 -1.92304e-06)
(0 -0 -1.67703e-06)
(0 -0 -1.40137e-06)
(0 -0 -1.10965e-06)
(0 -0 -8.41068e-07)
(0 -0 -6.7e-07)
(0 -0 -6.72547e-07)
(0 -0 -7.28453e-07)
(0 5.08603e-23 1.73713e-07)
(0 -0 9.65444e-05)
(0 -0 0.000205137)
(0 -0 0.00011225)
(0 -0 -0.000117824)
(0 -0 -0.000300748)
(0 -0 -0.000347666)
(0 -0 -0.000290854)
(0 -0 -0.000199289)
(0 -0 -0.000119314)
(0 -0 -6.57845e-05)
(0 -0 -3.55585e-05)
(0 -0 -2.05135e-05)
(0 -0 -1.37627e-05)
(0 -0 -1.10164e-05)
(0 -0 -1.00272e-05)
(0 -0 -9.74964e-06)
(0 -0 -9.73888e-06)
(0 -0 -9.81921e-06)
(0 -0 -9.92547e-06)
(0 -0 -1.00341e-05)
(0 -0 -1.01363e-05)
(0 -0 -1.02287e-05)
(0 -0 -1.03108e-05)
(0 -0 -1.03826e-05)
(0 -0 -1.04442e-05)
(0 -0 -1.04946e-05)
(0 -0 -1.05327e-05)
(0 -0 -1.05569e-05)
(0 -0 -1.05661e-05)
(0 -0 -1.05594e-05)
(0 -0 -1.05359e-05)
(0 -0 -1.0495e-05)
(0 -0 -1.04358e-05)
(0 -0 -1.03572e-05)
(0 -0 -1.02577e-05)
(0 -0 -1.01354e-05)
(0 -0 -9.9883e-06)
(0 -0 -9.81426e-06)
(0 -0 -9.61087e-06)
(0 -0 -9.37545e-06)
(0 -0 -9.10474e-06)
(0 -0 -8.79465e-06)
(0 -0 -8.43989e-06)
(0 -0 -8.03369e-06)
(0 -0 -7.56753e-06)
(0 -0 -7.03101e-06)
(0 -0 -6.41246e-06)
(0 -0 -5.70222e-06)
(0 -0 -4.90301e-06)
(0 -0 -4.05385e-06)
(0 -0 -3.26938e-06)
(0 -0 -2.76867e-06)
(0 -0 -2.77922e-06)
(0 -0 -2.96104e-06)
(0 5.13439e-23 -3.81733e-07)
(0 -0 0.000158494)
(0 -0 0.000336555)
(0 -0 0.000185516)
(0 -0 -0.000190318)
(0 -0 -0.000489842)
(0 -0 -0.000567338)
(0 -0 -0.000475159)
(0 -0 -0.000325922)
(0 -0 -0.00019542)
(0 -0 -0.000108028)
(0 -0 -5.86724e-05)
(0 -0 -3.4109e-05)
(0 -0 -2.30939e-05)
(0 -0 -1.86204e-05)
(0 -0 -1.70174e-05)
(0 -0 -1.65775e-05)
(0 -0 -1.65743e-05)
(0 -0 -1.67208e-05)
(0 -0 -1.69095e-05)
(0 -0 -1.71015e-05)
(0 -0 -1.72829e-05)
(0 -0 -1.74488e-05)
(0 -0 -1.75982e-05)
(0 -0 -1.77308e-05)
(0 -0 -1.78462e-05)
(0 -0 -1.7943e-05)
(0 -0 -1.80193e-05)
(0 -0 -1.80733e-05)
(0 -0 -1.81033e-05)
(0 -0 -1.81079e-05)
(0 -0 -1.80858e-05)
(0 -0 -1.80354e-05)
(0 -0 -1.79555e-05)
(0 -0 -1.78441e-05)
(0 -0 -1.7699e-05)
(0 -0 -1.75177e-05)
(0 -0 -1.72971e-05)
(0 -0 -1.7034e-05)
(0 -0 -1.67245e-05)
(0 -0 -1.63642e-05)
(0 -0 -1.59477e-05)
(0 -0 -1.54683e-05)
(0 -0 -1.49172e-05)
(0 -0 -1.42837e-05)
(0 -0 -1.35541e-05)
(0 -0 -1.27119e-05)
(0 -0 -1.17387e-05)
(0 -0 -1.06192e-05)
(0 -0 -9.35771e-06)
(0 -0 -8.01695e-06)
(0 -0 -6.78111e-06)
(0 -0 -6.00435e-06)
(0 -0 -6.06438e-06)
(0 -0 -6.46246e-06)
(0 3.03214e-22 -2.64014e-06)
(0 -0 0.000216699)
(0 -0 0.000460653)
(0 -0 0.000258205)
(0 -0 -0.00025149)
(0 -0 -0.000659864)
(0 -0 -0.00076743)
(0 -0 -0.000644118)
(0 -0 -0.000442552)
(0 -0 -0.000265843)
(0 -0 -0.000147368)
(0 -0 -8.04218e-05)
(0 -0 -4.7102e-05)
(0 -0 -3.21706e-05)
(0 -0 -2.61205e-05)
(0 -0 -2.39682e-05)
(0 -0 -2.33949e-05)
(0 -0 -2.34148e-05)
(0 -0 -2.36377e-05)
(0 -0 -2.39175e-05)
(0 -0 -2.42013e-05)
(0 -0 -2.44706e-05)
(0 -0 -2.47192e-05)
(0 -0 -2.49457e-05)
(0 -0 -2.51495e-05)
(0 -0 -2.53298e-05)
(0 -0 -2.54846e-05)
(0 -0 -2.56119e-05)
(0 -0 -2.57093e-05)
(0 -0 -2.57749e-05)
(0 -0 -2.58068e-05)
(0 -0 -2.58033e-05)
(0 -0 -2.57623e-05)
(0 -0 -2.5682e-05)
(0 -0 -2.55598e-05)
(0 -0 -2.53931e-05)
(0 -0 -2.51785e-05)
(0 -0 -2.49124e-05)
(0 -0 -2.45904e-05)
(0 -0 -2.42076e-05)
(0 -0 -2.37581e-05)
(0 -0 -2.32348e-05)
(0 -0 -2.26286e-05)
(0 -0 -2.1928e-05)
(0 -0 -2.11189e-05)
(0 -0 -2.01836e-05)
(0 -0 -1.91006e-05)
(0 -0 -1.78461e-05)
(0 -0 -1.64003e-05)
(0 -0 -1.47697e-05)
(0 -0 -1.30378e-05)
(0 -0 -1.14495e-05)
(0 -0 -1.048e-05)
(0 -0 -1.06592e-05)
(0 -0 -1.14342e-05)
(0 -1.99159e-22 -7.09982e-06)
(0 -0 0.000269411)
(0 -0 0.000575449)
(0 -0 0.000332644)
(0 -0 -0.000293667)
(0 -0 -0.000800403)
(0 -0 -0.000938097)
(0 -0 -0.000790248)
(0 -0 -0.000544241)
(0 -0 -0.000327572)
(0 -0 -0.000181983)
(0 -0 -9.96167e-05)
(0 -0 -5.86033e-05)
(0 -0 -4.02315e-05)
(0 -0 -3.28031e-05)
(0 -0 -3.0179e-05)
(0 -0 -2.95012e-05)
(0 -0 -2.95545e-05)
(0 -0 -2.98576e-05)
(0 -0 -3.02302e-05)
(0 -0 -3.06074e-05)
(0 -0 -3.09667e-05)
(0 -0 -3.13011e-05)
(0 -0 -3.16088e-05)
(0 -0 -3.1889e-05)
(0 -0 -3.21403e-05)
(0 -0 -3.23605e-05)
(0 -0 -3.25472e-05)
(0 -0 -3.2698e-05)
(0 -0 -3.28108e-05)
(0 -0 -3.28834e-05)
(0 -0 -3.29136e-05)
(0 -0 -3.28992e-05)
(0 -0 -3.28377e-05)
(0 -0 -3.27264e-05)
(0 -0 -3.2562e-05)
(0 -0 -3.23407e-05)
(0 -0 -3.20583e-05)
(0 -0 -3.17098e-05)
(0 -0 -3.12893e-05)
(0 -0 -3.07899e-05)
(0 -0 -3.0203e-05)
(0 -0 -2.9518e-05)
(0 -0 -2.87215e-05)
(0 -0 -2.77966e-05)
(0 -0 -2.67228e-05)
(0 -0 -2.54753e-05)
(0 -0 -2.40263e-05)
(0 -0 -2.23534e-05)
(0 -0 -2.04656e-05)
(0 -0 -1.84636e-05)
(0 -0 -1.66425e-05)
(0 -0 -1.55829e-05)
(0 -0 -1.59772e-05)
(0 -0 -1.73753e-05)
(0 9.83265e-23 -1.35734e-05)
(0 -0 0.000314741)
(0 -0 0.000679745)
(0 -0 0.000412219)
(0 -0 -0.000308429)
(0 -0 -0.000900805)
(0 -0 -0.00106958)
(0 -0 -0.000906228)
(0 -0 -0.000626144)
(0 -0 -0.000377572)
(0 -0 -0.000209928)
(0 -0 -0.000114884)
(0 -0 -6.75022e-05)
(0 -0 -4.62726e-05)
(0 -0 -3.76991e-05)
(0 -0 -3.46855e-05)
(0 -0 -3.39251e-05)
(0 -0 -3.4011e-05)
(0 -0 -3.43857e-05)
(0 -0 -3.48407e-05)
(0 -0 -3.5301e-05)
(0 -0 -3.57412e-05)
(0 -0 -3.61534e-05)
(0 -0 -3.65356e-05)
(0 -0 -3.68867e-05)
(0 -0 -3.72051e-05)
(0 -0 -3.74883e-05)
(0 -0 -3.77339e-05)
(0 -0 -3.79394e-05)
(0 -0 -3.81026e-05)
(0 -0 -3.82212e-05)
(0 -0 -3.82928e-05)
(0 -0 -3.83149e-05)
(0 -0 -3.82848e-05)
(0 -0 -3.81995e-05)
(0 -0 -3.80555e-05)
(0 -0 -3.78487e-05)
(0 -0 -3.75743e-05)
(0 -0 -3.72268e-05)
(0 -0 -3.68e-05)
(0 -0 -3.62862e-05)
(0 -0 -3.5676e-05)
(0 -0 -3.49575e-05)
(0 -0 -3.41163e-05)
(0 -0 -3.31341e-05)
(0 -0 -3.19886e-05)
(0 -0 -3.06531e-05)
(0 -0 -2.90979e-05)
(0 -0 -2.72998e-05)
(0 -0 -2.52705e-05)
(0 -0 -2.31243e-05)
(0 -0 -2.11943e-05)
(0 -0 -2.0152e-05)
(0 -0 -2.08785e-05)
(0 -0 -2.32575e-05)
(0 4.85159e-22 -2.14061e-05)
(0 -0 0.000351598)
(0 -0 0.000773131)
(0 -0 0.000500272)
(0 -0 -0.000288666)
(0 -0 -0.000952453)
(0 -0 -0.00115417)
(0 -0 -0.000986328)
(0 -0 -0.000684456)
(0 -0 -0.000413422)
(0 -0 -0.0002296)
(0 -0 -0.000125036)
(0 -0 -7.27992e-05)
(0 -0 -4.93656e-05)
(0 -0 -3.98988e-05)
(0 -0 -3.65753e-05)
(0 -0 -3.57435e-05)
(0 -0 -3.58477e-05)
(0 -0 -3.62717e-05)
(0 -0 -3.67847e-05)
(0 -0 -3.73044e-05)
(0 -0 -3.78029e-05)
(0 -0 -3.8272e-05)
(0 -0 -3.87094e-05)
(0 -0 -3.91137e-05)
(0 -0 -3.94833e-05)
(0 -0 -3.98156e-05)
(0 -0 -4.01081e-05)
(0 -0 -4.03585e-05)
(0 -0 -4.05645e-05)
(0 -0 -4.07237e-05)
(0 -0 -4.08338e-05)
(0 -0 -4.08922e-05)
(0 -0 -4.0896e-05)
(0 -0 -4.08421e-05)
(0 -0 -4.07267e-05)
(0 -0 -4.05457e-05)
(0 -0 -4.0294e-05)
(0 -0 -3.9966e-05)
(0 -0 -3.9555e-05)
(0 -0 -3.9053e-05)
(0 -0 -3.84502e-05)
(0 -0 -3.77344e-05)
(0 -0 -3.68906e-05)
(0 -0 -3.59001e-05)
(0 -0 -3.47402e-05)
(0 -0 -3.33836e-05)
(0 -0 -3.18008e-05)
(0 -0 -2.9969e-05)
(0 -0 -2.79032e-05)
(0 -0 -2.57266e-05)
(0 -0 -2.37982e-05)
(0 -0 -2.28654e-05)
(0 -0 -2.40423e-05)
(0 -0 -2.79156e-05)
(0 -9.49637e-23 -3.00547e-05)
(-1.4863e-23 8.04787e-21 -6.02685e-06)
(-1.63483e-22 7.90523e-21 -1.3945e-05)
(3.9627e-23 -2.19441e-22 -2.55131e-05)
(3.28339e-23 -2.36261e-20 -4.07839e-05)
(-1.03861e-22 8.09512e-21 -5.88885e-05)
(4.12296e-22 7.94624e-21 -7.78375e-05)
(-8.82271e-22 2.31268e-20 -9.46307e-05)
(3.4233e-22 -2.35416e-20 -0.000105707)
(6.9266e-22 -7.55758e-21 -0.000107657)
(-1.0012e-21 -4.0358e-24 -9.80194e-05)
(-1.00853e-21 -7.59545e-21 -7.59072e-05)
(8.85566e-22 7.18725e-21 -4.22496e-05)
(5.80811e-22 -5.9546e-20 3.99624e-07)
(-1.04884e-21 1.28097e-19 4.8414e-05)
(3.34934e-22 -6.90941e-20 9.78199e-05)
(-1.4051e-21 -5.21293e-20 0.000144971)
(-2.82553e-22 8.06754e-21 -1.83344e-05)
(-1.03582e-22 1.58549e-20 -4.16491e-05)
(3.55526e-22 7.70336e-21 -7.57868e-05)
(-9.81577e-22 -7.92316e-21 -0.000120947)
(1.81974e-21 7.53108e-21 -0.000174634)
(-6.13509e-22 -5.4149e-20 -0.000231075)
(-1.45406e-22 8.61092e-20 -0.000281517)
(-7.04826e-23 -9.10359e-21 -0.000315539)
(2.26733e-21 -9.91761e-20 -0.00032316)
(-2.29104e-21 1.40339e-19 -0.000297167)
(-6.68056e-22 1.28089e-19 -0.000234931)
(4.67403e-22 -1.15495e-19 -0.000139122)
(-4.359e-22 8.19337e-22 -1.71504e-05)
(3.09548e-21 -7.35113e-21 0.00012045)
(-2.35594e-21 2.47156e-20 0.000262126)
(-5.9125e-21 2.43908e-19 0.000397291)
(2.13144e-23 4.7734e-20 -3.05365e-05)
(-7.74787e-23 1.50281e-20 -6.80641e-05)
(3.45185e-22 -6.24548e-20 -0.000123225)
(-6.97104e-22 1.24336e-19 -0.000196473)
(1.55248e-21 -2.66526e-19 -0.000283986)
(6.55367e-22 1.26949e-19 -0.000376738)
(-2.73262e-21 -9.75374e-22 -0.000460939)
(1.71155e-21 -1.74345e-20 -0.000520104)
(9.65681e-22 -2.60442e-19 -0.000538406)
(1.50427e-21 2.48545e-19 -0.000504357)
(-9.59645e-22 -1.81999e-21 -0.000413684)
(-4.68096e-21 -1.98429e-23 -0.000270461)
(7.45221e-21 -2.06054e-21 -8.62273e-05)
(-5.49207e-21 -2.55181e-19 0.000122553)
(6.70595e-21 2.32599e-19 0.000337811)
(-1.05895e-20 4.62014e-19 0.000542957)
(3.99707e-22 -3.14595e-20 -4.21941e-05)
(-3.87849e-22 1.59394e-20 -9.22189e-05)
(7.87364e-22 -1.93177e-22 -0.000166124)
(-7.23772e-22 -1.56715e-20 -0.000264735)
(-1.09453e-21 -1.62756e-21 -0.000383343)
(3.1367e-21 -2.45867e-19 -0.000510462)
(-4.0414e-21 4.66319e-19 -0.000628362)
(1.86811e-21 -2.51455e-19 -0.000715735)
(-1.99029e-21 1.51358e-20 -0.000752024)
(4.34081e-21 -2.75289e-19 -0.000722204)
(-5.56931e-21 2.51912e-19 -0.000620502)
(-2.20916e-21 4.79724e-19 -0.000451884)
(7.1461e-21 -9.72438e-19 -0.00023092)
(-9.27347e-21 9.72642e-19 2.14694e-05)
(1.37011e-20 -9.69073e-19 0.000282269)
(-6.95218e-21 9.62507e-19 0.000530312)
(-8.00322e-22 1.60382e-20 -5.25323e-05)
(-1.6786e-22 6.11498e-20 -0.000113236)
(1.79483e-21 -1.86002e-19 -0.000203354)
(-8.67763e-22 2.49904e-19 -0.000324109)
(-5.82042e-22 -1.10839e-19 -0.000470382)
(8.69155e-23 -1.4714e-20 -0.000629201)
(-4.89101e-22 1.56178e-20 -0.000780276)
(3.39822e-21 -2.10917e-22 -0.000899022)
(-3.30079e-21 -1.52502e-20 -0.000961556)
(-5.74861e-21 3.46274e-20 -0.000950234)
(-5.12041e-21 4.8801e-19 -0.000857976)
(1.78876e-20 -5.07617e-19 -0.000690017)
(-2.24208e-20 4.74256e-19 -0.00046264)
(1.80294e-20 -4.93662e-19 -0.000199465)
(-3.36204e-21 3.80659e-21 7.33977e-05)
(1.22558e-20 6.23321e-23 0.000331831)
(-5.79446e-22 7.70885e-20 -6.0746e-05)
(1.7372e-21 -4.70845e-20 -0.000131067)
(-1.92998e-21 -1.67161e-20 -0.000235332)
(4.5312e-21 -2.30478e-19 -0.000375017)
(-1.84282e-21 2.32538e-19 -0.000545141)
(1.41442e-21 -2.30075e-19 -0.000732348)
(-1.03231e-20 5.07546e-19 -0.000915318)
(9.81834e-21 -7.11623e-19 -0.00106791)
(-6.08983e-21 5.04122e-19 -0.00116447)
(-3.76207e-21 4.90769e-19 -0.00118575)
(-2.07105e-21 3.25322e-21 -0.0011236)
(2.0858e-20 -9.64835e-19 -0.000982886)
(-1.66234e-20 1.00581e-18 -0.00078024)
(2.23962e-21 -4.74245e-19 -0.000540185)
(9.50504e-21 -4.7625e-19 -0.00029006)
(2.06484e-20 -4.69008e-19 -5.53213e-05)
(6.39424e-22 -1.61518e-20 -6.6348e-05)
(1.41483e-21 -1.36966e-19 -0.000147957)
(-1.60187e-21 1.23691e-19 -0.000265206)
(-1.49161e-21 -1.76486e-20 -0.00042055)
(5.04887e-21 -2.29163e-19 -0.000609905)
(-4.58344e-21 2.36347e-19 -0.000820684)
(-4.14864e-21 4.7667e-19 -0.00103207)
(-5.55481e-21 -1.98279e-20 -0.00121807)
(2.79623e-21 -4.75652e-21 -0.00135283)
(1.30958e-20 -5.0858e-19 -0.00141655)
(-9.62401e-21 4.76292e-19 -0.00140027)
(1.20322e-20 -1.00866e-18 -0.00130794)
(-5.22612e-22 5.05031e-19 -0.00115528)
(-4.2244e-21 -1.93519e-20 -0.000966018)
(-5.5877e-21 -2.34523e-20 -0.000766969)
(2.1778e-20 -9.92565e-19 -0.000583355)
(-9.49873e-23 -0 -6.64817e-05)
(-8.7552e-22 -0 -0.000109916)
(7.82073e-22 -0 -0.000182906)
(-1.00411e-22 -0 -0.000288604)
(-1.54411e-21 -0 -0.000423565)
(1.54928e-21 -0 -0.000575922)
(3.31825e-21 -0 -0.000725626)
(-5.30513e-23 -0 -0.000847344)
(5.83964e-23 -0 -0.000915496)
(-3.69706e-21 -0 -0.000909964)
(3.61064e-21 -0 -0.000820662)
(-7.67144e-21 -0 -0.000649523)
(3.82739e-21 -0 -0.000409426)
(-1.2375e-22 -0 -0.000120673)
(-1.26749e-22 -0 0.000193733)
(-8.38976e-21 -0 0.000512483)
(0 -0 -6.94355e-05)
(0 -0 -0.000117731)
(0 -0 -0.000193984)
(0 -0 -0.000302057)
(0 -0 -0.000439771)
(0 -0 -0.000597107)
(0 -0 -0.00075632)
(0 -0 -0.000894455)
(0 -0 -0.000987871)
(0 -0 -0.00101746)
(0 -0 -0.000972909)
(0 -0 -0.000854676)
(0 -0 -0.000673215)
(0 -0 -0.00044593)
(0 -0 -0.00019301)
(0 -0 6.65491e-05)
(0 -0 -6.17883e-05)
(0 -0 -0.000109113)
(0 -0 -0.000182528)
(0 -0 -0.000285882)
(0 -0 -0.000417953)
(0 -0 -0.000570708)
(0 -0 -0.000729216)
(0 -0 -0.000873682)
(0 -0 -0.000983284)
(0 -0 -0.00104069)
(0 -0 -0.00103585)
(0 -0 -0.000967856)
(0 -0 -0.000844477)
(0 -0 -0.000679703)
(0 -0 -0.000490262)
(0 -0 -0.000292237)
(0 -0 -4.83489e-05)
(0 -0 -9.11774e-05)
(0 -0 -0.000157393)
(0 -0 -0.000250617)
(0 -0 -0.000370367)
(0 -0 -0.000510503)
(0 -0 -0.000659018)
(0 -0 -0.000799601)
(0 -0 -0.000914722)
(0 -0 -0.000989366)
(0 -0 -0.00101423)
(0 -0 -0.000987403)
(0 -0 -0.00091416)
(0 -0 -0.000805078)
(0 -0 -0.000673289)
(0 -0 -0.00053174)
(0 -0 -3.28163e-05)
(0 -0 -6.93995e-05)
(0 -0 -0.000126015)
(0 -0 -0.000205922)
(0 -0 -0.000309148)
(0 -0 -0.000431198)
(0 -0 -0.000562805)
(0 -0 -0.000691073)
(0 -0 -0.00080187)
(0 -0 -0.000882766)
(0 -0 -0.000925615)
(0 -0 -0.000927985)
(0 -0 -0.00089312)
(0 -0 -0.000828587)
(0 -0 -0.000744192)
(0 -0 -0.000649875)
(0 -0 -1.80031e-05)
(0 -0 -4.78542e-05)
(0 -0 -9.41465e-05)
(0 -0 -0.000159655)
(0 -0 -0.000244678)
(0 -0 -0.000346025)
(0 -0 -0.000456774)
(0 -0 -0.000567106)
(0 -0 -0.000666081)
(0 -0 -0.000743869)
(0 -0 -0.000793733)
(0 -0 -0.000813183)
(0 -0 -0.000804024)
(0 -0 -0.000771415)
(0 -0 -0.000722363)
(0 -0 -0.000664171)
(0 -0 -5.70206e-06)
(0 -0 -2.91917e-05)
(0 -0 -6.56819e-05)
(0 -0 -0.000117392)
(0 -0 -0.000184681)
(0 -0 -0.000265298)
(0 -0 -0.000354188)
(0 -0 -0.000444096)
(0 -0 -0.000526863)
(0 -0 -0.000595056)
(0 -0 -0.000643428)
(0 -0 -0.000669783)
(0 -0 -0.000675049)
(0 -0 -0.000662632)
(0 -0 -0.000637359)
(0 -0 -0.000604391)
(0 -0 3.31847e-06)
(0 -0 -1.46877e-05)
(0 -0 -4.2675e-05)
(0 -0 -8.2302e-05)
(0 -0 -0.000133842)
(0 -0 -0.000195657)
(0 -0 -0.000264076)
(0 -0 -0.000333848)
(0 -0 -0.000399075)
(0 -0 -0.000454377)
(0 -0 -0.000495915)
(0 -0 -0.000521995)
(0 -0 -0.000533114)
(0 -0 -0.000531512)
(0 -0 -0.000520441)
(0 -0 -0.000503429)
(0 -0 9.1215e-06)
(0 -0 -4.49588e-06)
(0 -0 -2.5633e-05)
(0 -0 -5.54397e-05)
(0 -0 -9.40249e-05)
(0 -0 -0.000140112)
(0 -0 -0.000190994)
(0 -0 -0.000242891)
(0 -0 -0.000291637)
(0 -0 -0.000333492)
(0 -0 -0.000365833)
(0 -0 -0.000387537)
(0 -0 -0.000398973)
(0 -0 -0.000401675)
(0 -0 -0.000397826)
(0 -0 -0.000389791)
(0 -0 1.22853e-05)
(0 -0 1.96225e-06)
(0 -0 -1.39986e-05)
(0 -0 -3.63256e-05)
(0 -0 -6.49419e-05)
(0 -0 -9.87613e-05)
(0 -0 -0.000135709)
(0 -0 -0.000173031)
(0 -0 -0.00020781)
(0 -0 -0.000237541)
(0 -0 -0.00026057)
(0 -0 -0.00027631)
(0 -0 -0.000285173)
(0 -0 -0.000288303)
(0 -0 -0.00028721)
(0 -0 -0.000283472)
(0 -0 1.35832e-05)
(0 -0 5.59539e-06)
(0 -0 -6.6707e-06)
(0 -0 -2.36196e-05)
(0 -0 -4.50058e-05)
(0 -0 -6.98304e-05)
(0 -0 -9.64141e-05)
(0 -0 -0.000122681)
(0 -0 -0.000146574)
(0 -0 -0.000166459)
(0 -0 -0.000181407)
(0 -0 -0.000191271)
(0 -0 -0.000196578)
(0 -0 -0.000198283)
(0 -0 -0.000197491)
(0 -0 -0.000195278)
(0 -0 1.37458e-05)
(0 -0 7.33081e-06)
(0 -0 -2.42749e-06)
(0 -0 -1.57014e-05)
(0 -0 -3.21117e-05)
(0 -0 -5.06932e-05)
(0 -0 -7.00048e-05)
(0 -0 -8.84028e-05)
(0 -0 -0.000104391)
(0 -0 -0.000116925)
(0 -0 -0.000125577)
(0 -0 -0.000130532)
(0 -0 -0.000132438)
(0 -0 -0.000132171)
(0 -0 -0.000130608)
(0 -0 -0.000128517)
(0 -0 1.33358e-05)
(0 -0 7.93414e-06)
(0 -0 -1.93459e-07)
(0 -0 -1.10625e-05)
(0 -0 -2.41989e-05)
(0 -0 -3.86481e-05)
(0 -0 -5.31109e-05)
(0 -0 -6.6211e-05)
(0 -0 -7.68059e-05)
(0 -0 -8.42268e-05)
(0 -0 -8.83765e-05)
(0 -0 -8.96682e-05)
(0 -0 -8.88472e-05)
(0 -0 -8.67624e-05)
(0 -0 -8.41656e-05)
(0 -0 -8.1647e-05)
(0 -0 1.27194e-05)
(0 -0 7.94789e-06)
(0 -0 8.46533e-07)
(0 -0 -8.5e-06)
(0 -0 -1.95562e-05)
(0 -0 -3.1373e-05)
(0 -0 -4.27375e-05)
(0 -0 -5.24367e-05)
(0 -0 -5.95447e-05)
(0 -0 -6.36244e-05)
(0 -0 -6.47825e-05)
(0 -0 -6.35761e-05)
(0 -0 -6.08169e-05)
(0 -0 -5.73452e-05)
(0 -0 -5.38447e-05)
(0 -0 -5.0803e-05)
(0 -0 1.20957e-05)
(0 -0 7.70778e-06)
(0 -0 1.24119e-06)
(0 -0 -7.15822e-06)
(0 -0 -1.69196e-05)
(0 -0 -2.71008e-05)
(0 -0 -3.65453e-05)
(0 -0 -4.41419e-05)
(0 -0 -4.90967e-05)
(0 -0 -5.11101e-05)
(0 -0 -5.04083e-05)
(0 -0 -4.76308e-05)
(0 -0 -4.36267e-05)
(0 -0 -3.92302e-05)
(0 -0 -3.5085e-05)
(0 -0 -3.16206e-05)
(0 -0 1.15486e-05)
(0 -0 7.39433e-06)
(0 -0 1.32286e-06)
(0 -0 -6.48399e-06)
(0 -0 -1.5438e-05)
(0 -0 -2.46077e-05)
(0 -0 -3.28777e-05)
(0 -0 -3.92042e-05)
(0 -0 -4.28749e-05)
(0 -0 -4.36709e-05)
(0 -0 -4.18845e-05)
(0 -0 -3.81967e-05)
(0 -0 -3.34711e-05)
(0 -0 -2.85322e-05)
(0 -0 -2.3997e-05)
(0 -0 -2.02603e-05)
(0 -0 1.10961e-05)
(0 -0 7.08903e-06)
(0 -0 1.27337e-06)
(0 -0 -6.14842e-06)
(0 -0 -1.45821e-05)
(0 -0 -2.31103e-05)
(0 -0 -3.06519e-05)
(0 -0 -3.62116e-05)
(0 -0 -3.91306e-05)
(0 -0 -3.92382e-05)
(0 -0 -3.68605e-05)
(0 -0 -3.26947e-05)
(0 -0 -2.76034e-05)
(0 -0 -2.2397e-05)
(0 -0 -1.76708e-05)
(0 -0 -1.37966e-05)
(0 -0 1.07264e-05)
(0 -0 6.81906e-06)
(0 -0 1.182e-06)
(0 -0 -5.97045e-06)
(0 -0 -1.40448e-05)
(0 -0 -2.21405e-05)
(0 -0 -2.92074e-05)
(0 -0 -3.42888e-05)
(0 -0 -3.67645e-05)
(0 -0 -3.6494e-05)
(0 -0 -3.38195e-05)
(0 -0 -2.94395e-05)
(0 -0 -2.42056e-05)
(0 -0 -1.89105e-05)
(0 -0 -1.41296e-05)
(0 -0 -1.02173e-05)
(0 -0 1.04189e-05)
(0 -0 6.58665e-06)
(0 -0 1.08739e-06)
(0 -0 -5.85746e-06)
(0 -0 -1.3659e-05)
(0 -0 -2.14349e-05)
(0 -0 -2.81644e-05)
(0 -0 -3.29249e-05)
(0 -0 -3.51272e-05)
(0 -0 -3.46512e-05)
(0 -0 -3.18458e-05)
(0 -0 -2.74028e-05)
(0 -0 -2.21572e-05)
(0 -0 -1.68813e-05)
(0 -0 -1.2131e-05)
(0 -0 -8.24571e-06)
(0 -0 1.01548e-05)
(0 -0 6.38548e-06)
(0 -0 1.00343e-06)
(0 -0 -5.76537e-06)
(0 -0 -1.33385e-05)
(0 -0 -2.08529e-05)
(0 -0 -2.73162e-05)
(0 -0 -3.18379e-05)
(0 -0 -3.38556e-05)
(0 -0 -3.32654e-05)
(0 -0 -3.0418e-05)
(0 -0 -2.59939e-05)
(0 -0 -2.08091e-05)
(0 -0 -1.56137e-05)
(0 -0 -1.09439e-05)
(0 -0 -7.12534e-06)
(0 -0 9.91964e-06)
(0 -0 6.2079e-06)
(0 -0 9.33287e-07)
(0 -0 -5.67485e-06)
(0 -0 -1.30415e-05)
(0 -0 -2.0323e-05)
(0 -0 -2.65556e-05)
(0 -0 -3.08792e-05)
(0 -0 -3.27568e-05)
(0 -0 -3.20982e-05)
(0 -0 -2.92539e-05)
(0 -0 -2.48913e-05)
(0 -0 -1.98054e-05)
(0 -0 -1.47238e-05)
(0 -0 -1.01625e-05)
(0 -0 -6.43384e-06)
(0 -0 9.70348e-06)
(0 -0 6.04722e-06)
(0 -0 8.75797e-07)
(0 -0 -5.57871e-06)
(0 -0 -1.27491e-05)
(0 -0 -1.98114e-05)
(0 -0 -2.58299e-05)
(0 -0 -2.99745e-05)
(0 -0 -3.1733e-05)
(0 -0 -3.1028e-05)
(0 -0 -2.82087e-05)
(0 -0 -2.39286e-05)
(0 -0 -1.89613e-05)
(0 -0 -1.40109e-05)
(0 -0 -9.57372e-06)
(0 -0 -5.94834e-06)
(0 -0 9.49892e-06)
(0 -0 5.89769e-06)
(0 -0 8.27855e-07)
(0 -0 -5.47594e-06)
(0 -0 -1.24545e-05)
(0 -0 -1.93036e-05)
(0 -0 -2.51153e-05)
(0 -0 -2.90893e-05)
(0 -0 -3.07379e-05)
(0 -0 -2.99964e-05)
(0 -0 -2.72123e-05)
(0 -0 -2.30249e-05)
(0 -0 -1.81859e-05)
(0 -0 -1.33762e-05)
(0 -0 -9.07192e-06)
(0 -0 -5.55819e-06)
(0 -0 9.29958e-06)
(0 -0 5.75354e-06)
(0 -0 7.84931e-07)
(0 -0 -5.36923e-06)
(0 -0 -1.21577e-05)
(0 -0 -1.87958e-05)
(0 -0 -2.44034e-05)
(0 -0 -2.82102e-05)
(0 -0 -2.97526e-05)
(0 -0 -2.89786e-05)
(0 -0 -2.6234e-05)
(0 -0 -2.21441e-05)
(0 -0 -1.74386e-05)
(0 -0 -1.2775e-05)
(0 -0 -8.60934e-06)
(0 -0 -5.21318e-06)
(0 -0 9.09813e-06)
(0 -0 5.60758e-06)
(0 -0 7.40223e-07)
(0 -0 -5.26453e-06)
(0 -0 -1.18634e-05)
(0 -0 -1.82911e-05)
(0 -0 -2.36954e-05)
(0 -0 -2.73357e-05)
(0 -0 -2.8773e-05)
(0 -0 -2.79678e-05)
(0 -0 -2.52646e-05)
(0 -0 -2.12745e-05)
(0 -0 -1.67055e-05)
(0 -0 -1.21916e-05)
(0 -0 -8.16904e-06)
(0 -0 -4.89537e-06)
(0 -0 8.88318e-06)
(0 -0 5.44812e-06)
(0 -0 6.82102e-07)
(0 -0 -5.17304e-06)
(0 -0 -1.15821e-05)
(0 -0 -1.77994e-05)
(0 -0 -2.30003e-05)
(0 -0 -2.64742e-05)
(0 -0 -2.78063e-05)
(0 -0 -2.69704e-05)
(0 -0 -2.43092e-05)
(0 -0 -2.04201e-05)
(0 -0 -1.59894e-05)
(0 -0 -1.16282e-05)
(0 -0 -7.75319e-06)
(0 -0 -4.60717e-06)
(0 -0 8.63453e-06)
(0 -0 5.25452e-06)
(0 -0 5.901e-07)
(0 -0 -5.11483e-06)
(0 -0 -1.13339e-05)
(0 -0 -1.73405e-05)
(0 -0 -2.23379e-05)
(0 -0 -2.5645e-05)
(0 -0 -2.68718e-05)
(0 -0 -2.60049e-05)
(0 -0 -2.3386e-05)
(0 -0 -1.95985e-05)
(0 -0 -1.53077e-05)
(0 -0 -1.11024e-05)
(0 -0 -7.38089e-06)
(0 -0 -4.36997e-06)
(0 -0 8.34005e-06)
(0 -0 5.01441e-06)
(0 -0 4.51702e-07)
(0 -0 -5.10159e-06)
(0 -0 -1.11301e-05)
(0 -0 -1.69263e-05)
(0 -0 -2.17203e-05)
(0 -0 -2.48609e-05)
(0 -0 -2.59823e-05)
(0 -0 -2.50844e-05)
(0 -0 -2.25078e-05)
(0 -0 -1.88226e-05)
(0 -0 -1.46732e-05)
(0 -0 -1.06281e-05)
(0 -0 -7.07154e-06)
(0 -0 -4.21139e-06)
(0 -0 8.0396e-06)
(0 -0 4.7719e-06)
(0 -0 3.11527e-07)
(0 -0 -5.08791e-06)
(0 -0 -1.09263e-05)
(0 -0 -1.65129e-05)
(0 -0 -2.11044e-05)
(0 -0 -2.40789e-05)
(0 -0 -2.50954e-05)
(0 -0 -2.41667e-05)
(0 -0 -2.16329e-05)
(0 -0 -1.80506e-05)
(0 -0 -1.40446e-05)
(0 -0 -1.01663e-05)
(0 -0 -6.79025e-06)
(0 -0 -4.09629e-06)
(0 -0 7.81024e-06)
(0 -0 4.5972e-06)
(0 -0 2.50109e-07)
(0 -0 -5.00006e-06)
(0 -0 -1.06465e-05)
(0 -0 -1.60258e-05)
(0 -0 -2.04157e-05)
(0 -0 -2.32246e-05)
(0 -0 -2.41364e-05)
(0 -0 -2.31774e-05)
(0 -0 -2.06867e-05)
(0 -0 -1.7208e-05)
(0 -0 -1.33465e-05)
(0 -0 -9.63781e-06)
(0 -0 -6.44347e-06)
(0 -0 -3.92081e-06)
(0 -0 0.000381822)
(0 -0 0.000857895)
(0 -0 0.000601485)
(0 -0 -0.000228509)
(0 -0 -0.000950171)
(0 -0 -0.00118803)
(0 -0 -0.00102805)
(0 -0 -0.000717583)
(0 -0 -0.000434024)
(0 -0 -0.000240152)
(0 -0 -0.000129344)
(0 -0 -7.38162e-05)
(0 -0 -4.88535e-05)
(0 -0 -3.87517e-05)
(0 -0 -3.5197e-05)
(0 -0 -3.42995e-05)
(0 -0 -3.44006e-05)
(0 -0 -3.48426e-05)
(0 -0 -3.538e-05)
(0 -0 -3.59255e-05)
(0 -0 -3.64499e-05)
(0 -0 -3.69447e-05)
(0 -0 -3.74075e-05)
(0 -0 -3.78371e-05)
(0 -0 -3.82315e-05)
(0 -0 -3.85885e-05)
(0 -0 -3.89056e-05)
(0 -0 -3.91806e-05)
(0 -0 -3.94112e-05)
(0 -0 -3.95952e-05)
(0 -0 -3.97302e-05)
(0 -0 -3.98135e-05)
(0 -0 -3.98424e-05)
(0 -0 -3.98136e-05)
(0 -0 -3.97234e-05)
(0 -0 -3.95674e-05)
(0 -0 -3.93405e-05)
(0 -0 -3.9037e-05)
(0 -0 -3.86499e-05)
(0 -0 -3.81712e-05)
(0 -0 -3.7591e-05)
(0 -0 -3.68972e-05)
(0 -0 -3.60747e-05)
(0 -0 -3.51051e-05)
(0 -0 -3.39662e-05)
(0 -0 -3.26315e-05)
(0 -0 -3.10724e-05)
(0 -0 -2.92681e-05)
(0 -0 -2.72361e-05)
(0 -0 -2.51032e-05)
(0 -0 -2.32401e-05)
(0 -0 -2.24476e-05)
(0 -0 -2.41111e-05)
(0 -0 -3.02093e-05)
(0 -0 -4.41608e-05)
(0 -0 0.000404806)
(0 -0 0.000933229)
(0 -0 0.000715702)
(0 -0 -0.000127467)
(0 -0 -0.000892708)
(0 -0 -0.00117012)
(0 -0 -0.00103076)
(0 -0 -0.00072528)
(0 -0 -0.000439407)
(0 -0 -0.000241725)
(0 -0 -0.000127966)
(0 -0 -7.06858e-05)
(0 -0 -4.48311e-05)
(0 -0 -3.43178e-05)
(0 -0 -3.05821e-05)
(0 -0 -2.96034e-05)
(0 -0 -2.96631e-05)
(0 -0 -3.00793e-05)
(0 -0 -3.0597e-05)
(0 -0 -3.1126e-05)
(0 -0 -3.16362e-05)
(0 -0 -3.21186e-05)
(0 -0 -3.25707e-05)
(0 -0 -3.29912e-05)
(0 -0 -3.33784e-05)
(0 -0 -3.37301e-05)
(0 -0 -3.4044e-05)
(0 -0 -3.43178e-05)
(0 -0 -3.45495e-05)
(0 -0 -3.47369e-05)
(0 -0 -3.48777e-05)
(0 -0 -3.49693e-05)
(0 -0 -3.50091e-05)
(0 -0 -3.49939e-05)
(0 -0 -3.49199e-05)
(0 -0 -3.47828e-05)
(0 -0 -3.45775e-05)
(0 -0 -3.42982e-05)
(0 -0 -3.3938e-05)
(0 -0 -3.34892e-05)
(0 -0 -3.29422e-05)
(0 -0 -3.22851e-05)
(0 -0 -3.15038e-05)
(0 -0 -3.05809e-05)
(0 -0 -2.94955e-05)
(0 -0 -2.82234e-05)
(0 -0 -2.67385e-05)
(0 -0 -2.50232e-05)
(0 -0 -2.3097e-05)
(0 -0 -2.10857e-05)
(0 -0 -1.93529e-05)
(0 -0 -1.86991e-05)
(0 -0 -2.05868e-05)
(0 -0 -2.73131e-05)
(0 -0 -4.21224e-05)
(0 -0 0.000419433)
(0 -0 0.000997531)
(0 -0 0.000837402)
(0 -0 6.29368e-06)
(0 -0 -0.00078856)
(0 -0 -0.00110713)
(0 -0 -0.000998946)
(0 -0 -0.000710328)
(0 -0 -0.000431274)
(0 -0 -0.000235467)
(0 -0 -0.000121801)
(0 -0 -6.42143e-05)
(0 -0 -3.80787e-05)
(0 -0 -2.73762e-05)
(0 -0 -2.35165e-05)
(0 -0 -2.24486e-05)
(0 -0 -2.24358e-05)
(0 -0 -2.27878e-05)
(0 -0 -2.32466e-05)
(0 -0 -2.37206e-05)
(0 -0 -2.41793e-05)
(0 -0 -2.46133e-05)
(0 -0 -2.50202e-05)
(0 -0 -2.53986e-05)
(0 -0 -2.57469e-05)
(0 -0 -2.60632e-05)
(0 -0 -2.63453e-05)
(0 -0 -2.6591e-05)
(0 -0 -2.67983e-05)
(0 -0 -2.69651e-05)
(0 -0 -2.70891e-05)
(0 -0 -2.71681e-05)
(0 -0 -2.71994e-05)
(0 -0 -2.71801e-05)
(0 -0 -2.71065e-05)
(0 -0 -2.6974e-05)
(0 -0 -2.67777e-05)
(0 -0 -2.65118e-05)
(0 -0 -2.61697e-05)
(0 -0 -2.57438e-05)
(0 -0 -2.52249e-05)
(0 -0 -2.46021e-05)
(0 -0 -2.3862e-05)
(0 -0 -2.29888e-05)
(0 -0 -2.19637e-05)
(0 -0 -2.07648e-05)
(0 -0 -1.93696e-05)
(0 -0 -1.77637e-05)
(0 -0 -1.59682e-05)
(0 -0 -1.41022e-05)
(0 -0 -1.25052e-05)
(0 -0 -1.19287e-05)
(0 -0 -1.37711e-05)
(0 -0 -2.02831e-05)
(0 -0 -3.4631e-05)
(0 -0 0.000427653)
(0 -0 0.00105171)
(0 -0 0.000961003)
(0 -0 0.000160529)
(0 -0 -0.000652671)
(0 -0 -0.00101246)
(0 -0 -0.00094257)
(0 -0 -0.000679285)
(0 -0 -0.000413741)
(0 -0 -0.000224038)
(0 -0 -0.000112755)
(0 -0 -5.59561e-05)
(0 -0 -3.00067e-05)
(0 -0 -1.92874e-05)
(0 -0 -1.53502e-05)
(0 -0 -1.419e-05)
(0 -0 -1.4084e-05)
(0 -0 -1.43457e-05)
(0 -0 -1.47184e-05)
(0 -0 -1.51107e-05)
(0 -0 -1.5492e-05)
(0 -0 -1.58527e-05)
(0 -0 -1.61902e-05)
(0 -0 -1.65031e-05)
(0 -0 -1.679e-05)
(0 -0 -1.70493e-05)
(0 -0 -1.72788e-05)
(0 -0 -1.74765e-05)
(0 -0 -1.76403e-05)
(0 -0 -1.7768e-05)
(0 -0 -1.78577e-05)
(0 -0 -1.79072e-05)
(0 -0 -1.79141e-05)
(0 -0 -1.78755e-05)
(0 -0 -1.77876e-05)
(0 -0 -1.7646e-05)
(0 -0 -1.74457e-05)
(0 -0 -1.7181e-05)
(0 -0 -1.68455e-05)
(0 -0 -1.64317e-05)
(0 -0 -1.59311e-05)
(0 -0 -1.53334e-05)
(0 -0 -1.46265e-05)
(0 -0 -1.37961e-05)
(0 -0 -1.28255e-05)
(0 -0 -1.16956e-05)
(0 -0 -1.03874e-05)
(0 -0 -8.88994e-06)
(0 -0 -7.22428e-06)
(0 -0 -5.49917e-06)
(0 -0 -4.01854e-06)
(0 -0 -3.45266e-06)
(0 -0 -5.05484e-06)
(0 -0 -1.08597e-05)
(0 -0 -2.37547e-05)
(0 -0 0.000432162)
(0 -0 0.00109725)
(0 -0 0.0010804)
(0 -0 0.000321155)
(0 -0 -0.000502391)
(0 -0 -0.000901771)
(0 -0 -0.00087321)
(0 -0 -0.000639735)
(0 -0 -0.000391502)
(0 -0 -0.000210408)
(0 -0 -0.000102901)
(0 -0 -4.75719e-05)
(0 -0 -2.21067e-05)
(0 -0 -1.14858e-05)
(0 -0 -7.50724e-06)
(0 -0 -6.25948e-06)
(0 -0 -6.0535e-06)
(0 -0 -6.21465e-06)
(0 -0 -6.48999e-06)
(0 -0 -6.78944e-06)
(0 -0 -7.08246e-06)
(0 -0 -7.35929e-06)
(0 -0 -7.61696e-06)
(0 -0 -7.85424e-06)
(0 -0 -8.06992e-06)
(0 -0 -8.26244e-06)
(0 -0 -8.4299e-06)
(0 -0 -8.57022e-06)
(0 -0 -8.68123e-06)
(0 -0 -8.76086e-06)
(0 -0 -8.80716e-06)
(0 -0 -8.81821e-06)
(0 -0 -8.79168e-06)
(0 -0 -8.72468e-06)
(0 -0 -8.61351e-06)
(0 -0 -8.45371e-06)
(0 -0 -8.24025e-06)
(0 -0 -7.96745e-06)
(0 -0 -7.62904e-06)
(0 -0 -7.21791e-06)
(0 -0 -6.72583e-06)
(0 -0 -6.1433e-06)
(0 -0 -5.45928e-06)
(0 -0 -4.66099e-06)
(0 -0 -3.73376e-06)
(0 -0 -2.6613e-06)
(0 -0 -1.42771e-06)
(0 -0 -2.49487e-08)
(0 -0 1.52667e-06)
(0 -0 3.1311e-06)
(0 -0 4.52572e-06)
(0 -0 5.13636e-06)
(0 -0 3.89176e-06)
(0 -0 -9.50111e-07)
(0 -0 -1.18735e-05)
(0 -0 0.000435337)
(0 -0 0.00113603)
(0 -0 0.00119048)
(0 -0 0.000475266)
(0 -0 -0.000354014)
(0 -0 -0.000789894)
(0 -0 -0.000801882)
(0 -0 -0.000598834)
(0 -0 -0.000368898)
(0 -0 -0.000197219)
(0 -0 -9.39975e-05)
(0 -0 -4.04103e-05)
(0 -0 -1.55591e-05)
(0 -0 -5.09406e-06)
(0 -0 -1.09894e-06)
(0 -0 2.24943e-07)
(0 -0 5.24554e-07)
(0 -0 4.59542e-07)
(0 -0 2.77726e-07)
(0 -0 6.76515e-08)
(0 -0 -1.40334e-07)
(0 -0 -3.36303e-07)
(0 -0 -5.17062e-07)
(0 -0 -6.81332e-07)
(0 -0 -8.28014e-07)
(0 -0 -9.55707e-07)
(0 -0 -1.06263e-06)
(0 -0 -1.14669e-06)
(0 -0 -1.2057e-06)
(0 -0 -1.23758e-06)
(0 -0 -1.24045e-06)
(0 -0 -1.21247e-06)
(0 -0 -1.15141e-06)
(0 -0 -1.05435e-06)
(0 -0 -9.17581e-07)
(0 -0 -7.36616e-07)
(0 -0 -5.064e-07)
(0 -0 -2.21304e-07)
(0 -0 1.24853e-07)
(0 -0 5.38983e-07)
(0 -0 1.02892e-06)
(0 -0 1.60357e-06)
(0 -0 2.27298e-06)
(0 -0 3.0486e-06)
(0 -0 3.94328e-06)
(0 -0 4.97095e-06)
(0 -0 6.14471e-06)
(0 -0 7.47031e-06)
(0 -0 8.92881e-06)
(0 -0 1.04375e-05)
(0 -0 1.17754e-05)
(0 -0 1.24657e-05)
(0 -0 1.16247e-05)
(0 -0 7.81958e-06)
(0 -0 -9.93575e-07)
(0 -0 0.000439036)
(0 -0 0.00117017)
(0 -0 0.00128822)
(0 -0 0.000613435)
(0 -0 -0.00022006)
(0 -0 -0.000688495)
(0 -0 -0.000737301)
(0 -0 -0.000562197)
(0 -0 -0.000349225)
(0 -0 -0.000186356)
(0 -0 -8.71814e-05)
(0 -0 -3.52578e-05)
(0 -0 -1.10044e-05)
(0 -0 -7.00915e-07)
(0 -0 3.29794e-06)
(0 -0 4.68315e-06)
(0 -0 5.06127e-06)
(0 -0 5.07754e-06)
(0 -0 4.97492e-06)
(0 -0 4.84044e-06)
(0 -0 4.70422e-06)
(0 -0 4.57634e-06)
(0 -0 4.46024e-06)
(0 -0 4.35731e-06)
(0 -0 4.26863e-06)
(0 -0 4.19547e-06)
(0 -0 4.13952e-06)
(0 -0 4.10283e-06)
(0 -0 4.08763e-06)
(0 -0 4.09597e-06)
(0 -0 4.12973e-06)
(0 -0 4.19074e-06)
(0 -0 4.28123e-06)
(0 -0 4.40415e-06)
(0 -0 4.56324e-06)
(0 -0 4.76301e-06)
(0 -0 5.00848e-06)
(0 -0 5.30524e-06)
(0 -0 5.6594e-06)
(0 -0 6.0777e-06)
(0 -0 6.56766e-06)
(0 -0 7.13764e-06)
(0 -0 7.79692e-06)