/*--------------------------------*- C++ -*----------------------------------*\
| =========                 |                                                 |
| \\      /  F ield         | OpenFOAM: The Open Source CFD Toolbox           |
|  \\    /   O peration     | Version:  2412                                  |
|   \\  /    A nd           | Website:  www.openfoam.com                      |
|    \\/     M anipulation  |                                                 |
\*---------------------------------------------------------------------------*/
FoamFile
{
    version     2.0;
    format      ascii;
    arch        "LSB;label=32;scalar=64";
    class       surfaceScalarField;
    location    "7.5";
    object      phi;
}
// * * * * * * * * * * * * * * * * * * * * * * * * * * * * * * * * * * * * * //

dimensions      [0 3 -1 0 0 0 0];

oriented        oriented;

internalField   nonuniform List<scalar> 
10422
(
0.00563853
3.69325e-05
-0.00564024
-3.52274e-05
0.00563632
4.90821e-05
-4.68661e-05
0.00563363
6.09631e-05
-5.82722e-05
0.00563049
7.24847e-05
-6.93452e-05
0.00562692
8.35652e-05
-7.99964e-05
0.00562293
9.4139e-05
-9.01537e-05
0.00561854
0.000104162
-9.97665e-05
0.00561373
0.000113609
-0.000108804
0.00560852
0.000122468
-0.000117254
0.0056029
0.000130738
-0.000125115
0.00559687
0.000138423
-0.000132398
0.00559046
0.000145535
-0.000139124
0.00558369
0.000152093
-0.00014532
0.00557659
0.000158119
-0.000151019
0.0055692
0.000163645
-0.000156259
0.00556158
0.000168706
-0.000161082
0.00555376
0.000173339
-0.000165525
0.00554581
0.000177582
-0.000169625
0.00553775
0.000181465
-0.000173411
0.00552964
0.000185016
-0.000176904
0.00552151
0.00018825
-0.000180116
0.00551338
0.000191177
-0.000183051
0.00550529
0.0001938
-0.000185708
0.000196117
-0.00018808
0.00564866
3.87478e-05
-0.00565048
0.00564633
5.14156e-05
0.00564351
6.37788e-05
0.00564024
7.57542e-05
0.00563654
8.72696e-05
0.00563241
9.82684e-05
0.00562786
0.000108715
0.00562287
0.00011859
0.00561746
0.000127884
0.0056116
0.000136594
0.00560531
0.000144718
0.00559859
0.000152257
0.00559146
0.000159217
0.00558397
0.00016561
0.00557616
0.000171458
0.00556808
0.000176788
0.00555978
0.000181635
0.00555132
0.000186036
0.00554276
0.000190026
0.00553414
0.000193635
0.00552551
0.000196887
0.00551689
0.000199796
0.00550832
0.000202372
0.000204615
0.00565952
4.06824e-05
-0.00566145
0.00565704
5.38859e-05
0.00565408
6.67462e-05
0.00565064
7.9189e-05
0.00564676
9.11528e-05
0.00564244
0.000102591
0.00563767
0.000113479
0.00563246
0.000123804
0.00562678
0.00013356
0.00562064
0.00014274
0.00561402
0.000151336
0.00560694
0.000159337
0.00559942
0.000166736
0.0055915
0.000173531
0.00558323
0.000179731
0.00557466
0.000185357
0.00556585
0.000190438
0.00555688
0.000195012
0.00554779
0.000199115
0.00553864
0.000202783
0.00552948
0.000206046
0.00552035
0.000208927
0.00551128
0.000211439
0.000213592
0.00567117
4.27463e-05
-0.00567324
0.00566855
5.65139e-05
0.00566539
6.98974e-05
0.00566175
8.2832e-05
0.00565764
9.52674e-05
0.00565306
0.000107169
0.00564802
0.000118521
0.0056425
0.000129321
0.0056365
0.000139565
0.00562999
0.000149244
0.00562299
0.000158341
0.00561549
0.000166834
0.00560753
0.0001747
0.00559913
0.000181925
0.00559036
0.000188503
0.00558127
0.000194445
0.00557193
0.000199776
0.00556241
0.000204532
0.00555278
0.000208752
0.00554308
0.000212478
0.00553338
0.000215746
0.00552372
0.000218586
0.00551414
0.00022102
0.000223062
0.0056837
4.49516e-05
-0.00568591
0.00568089
5.93238e-05
0.00567752
7.32688e-05
0.00567362
8.67311e-05
0.00566922
9.96722e-05
0.00566432
0.000112069
0.00565892
0.000123916
0.00565302
0.000135219
0.00564661
0.000145978
0.00563967
0.000156181
0.00563221
0.000165805
0.00562423
0.000174813
0.00561576
0.00018317
0.00560684
0.000190843
0.00559753
0.000197816
0.00558788
0.000204088
0.00557798
0.000209679
0.00556789
0.000214621
0.00555768
0.000218959
0.00554742
0.000222738
0.00553717
0.000226002
0.00552697
0.000228788
0.00551686
0.000231127
0.00023304
0.00569715
4.73122e-05
-0.00569951
0.00569413
6.23419e-05
0.0056905
7.68992e-05
0.0056863
9.09379e-05
0.00568154
0.00010443
0.00567624
0.000117363
0.00567042
0.000129743
0.00566405
0.000141583
0.00565715
0.000152885
0.00564969
0.000163637
0.00564169
0.000173807
0.00563315
0.000183348
0.00562412
0.000192209
0.00561462
0.000200343
0.00560471
0.000207719
0.00559447
0.000214327
0.00558397
0.00022018
0.00557329
0.000225309
0.00556248
0.00022976
0.00555164
0.000233585
0.00554081
0.000236833
0.00553004
0.000239551
0.00551939
0.000241776
0.000243539
0.00571156
4.98443e-05
-0.0057141
0.00570831
6.55968e-05
0.00570438
8.08298e-05
0.00569981
9.55054e-05
0.00569464
0.000109605
0.00568887
0.000123126
0.00568253
0.000136083
0.00567562
0.000148496
0.00566813
0.000160372
0.00566007
0.000171696
0.00565145
0.000182429
0.00564229
0.000192514
0.00563261
0.000201886
0.00562247
0.000210484
0.00561192
0.000218264
0.00560104
0.000225207
0.0055899
0.000231318
0.00557858
0.000236628
0.00556716
0.000241184
0.0055557
0.000245042
0.00554428
0.000248261
0.00553293
0.000250893
0.00552173
0.000252985
0.000254575
0.00572698
5.2567e-05
-0.0057297
0.00572345
6.9119e-05
0.00571918
8.51029e-05
0.0057142
0.000100487
0.00570854
0.000115261
0.00570224
0.00012943
0.00569531
0.000143015
0.00568776
0.000156044
0.0056796
0.000168526
0.00567086
0.000180444
0.00566153
0.000191755
0.00565165
0.000202391
0.00564126
0.000212275
0.00563041
0.000221334
0.00561917
0.000229512
0.00560759
0.00023678
0.00559577
0.000243139
0.00558378
0.000248617
0.0055717
0.000253264
0.00555961
0.00025714
0.00554756
0.00026031
0.00553561
0.000262836
0.00552383
0.000264773
0.000266165
0.00574342
5.55021e-05
-0.00574636
0.0057396
7.29416e-05
0.00573494
8.97624e-05
0.00572949
0.000105938
0.00572329
0.000121463
0.00571637
0.000136346
0.00570877
0.000150619
0.0057005
0.00016431
0.0056916
0.000177432
0.00568207
0.000189967
0.00567196
0.000201868
0.00566129
0.000213058
0.00565012
0.000223451
0.00563849
0.000232962
0.00562647
0.000241526
0.00561415
0.000249104
0.00560159
0.000255694
0.00558889
0.000261322
0.00557611
0.00026604
0.00556334
0.000269912
0.00555064
0.000273012
0.00553807
0.000275408
0.00552568
0.000277163
0.000278331
0.00576095
5.86747e-05
-0.00576412
0.00575679
7.71004e-05
0.0057517
9.48543e-05
0.00574572
0.000111912
0.00573891
0.000128272
0.00573131
0.000143947
0.00572296
0.00015897
0.0057139
0.000173374
0.00570416
0.000187174
0.00569377
0.000200351
0.00568279
0.000212854
0.00567124
0.0002246
0.0056592
0.000235495
0.00564672
0.000245445
0.00563387
0.000254376
0.00562073
0.000262244
0.00560738
0.000269042
0.00559391
0.000274796
0.00558039
0.000279559
0.0055669
0.000283402
0.00555351
0.000286403
0.00554028
0.00028864
0.00552725
0.000290184
0.000291096
0.0057796
6.21138e-05
-0.00578304
0.00577507
8.16345e-05
0.0057695
0.000100427
0.00576294
0.000118468
0.00575546
0.000135756
0.0057471
0.000152303
0.00573793
0.000168145
0.00572798
0.000183318
0.00571732
0.000197836
0.00570599
0.000211681
0.00569405
0.000224798
0.00568155
0.000237101
0.00566855
0.000248489
0.00565514
0.000258861
0.00564137
0.000268137
0.00562735
0.000276269
0.00561314
0.000283247
0.00559884
0.000289096
0.00558453
0.000293874
0.00557027
0.000297656
0.00555615
0.000300526
0.00554222
0.00030257
0.00552854
0.000303868
0.000304488
0.00579945
6.58521e-05
-0.00580319
0.0057945
8.65868e-05
0.0057884
0.000106533
0.0057812
0.000125665
0.00577297
0.00014398
0.00576379
0.000161489
0.00575371
0.000178225
0.0057428
0.000194225
0.00573113
0.000209504
0.00571877
0.000224045
0.00570578
0.00023779
0.00569223
0.00025065
0.0056782
0.00026252
0.00566376
0.000273295
0.00564901
0.000282891
0.00563402
0.000291256
0.00561889
0.00029838
0.0056037
0.00030429
0.00558852
0.000309045
0.00557345
0.000312727
0.00555855
0.000315427
0.00554388
0.000317239
0.0055295
0.000318249
0.000318536
0.00582058
6.99267e-05
-0.00582466
0.00581516
9.20054e-05
0.00580847
0.000113229
0.00580056
0.00013357
0.00579152
0.000153019
0.00578143
0.000171584
0.00577036
0.000189293
0.0057584
0.000206184
0.00574563
0.000222271
0.00573214
0.000237537
0.00571801
0.000251923
0.00570332
0.000265341
0.00568816
0.000277681
0.00567261
0.000288837
0.00565678
0.000298724
0.00564075
0.000307288
0.00562461
0.000314519
0.00560845
0.000320447
0.00559236
0.000325136
0.00557641
0.000328673
0.00556068
0.000331158
0.00554523
0.00033269
0.00553011
0.000333367
0.000333273
0.00584308
7.43795e-05
-0.00584754
0.00583714
9.79439e-05
0.00582979
0.00012058
0.00582111
0.000142255
0.00581117
0.000162954
0.00580008
0.000182674
0.00578793
0.000201442
0.00577483
0.000219291
0.00576086
0.000236235
0.00574614
0.000252257
0.00573077
0.000267301
0.00571483
0.000281275
0.00569844
0.000294072
0.00568169
0.000305586
0.00566469
0.00031573
0.00564752
0.000324453
0.00563029
0.000331747
0.00561309
0.000337646
0.00559601
0.000342218
0.00557913
0.000345559
0.00556251
0.000347774
0.00554623
0.000348974
0.00553033
0.000349262
0.000348734
0.00586708
7.92579e-05
-0.00587195
0.00586056
0.000104463
0.00585248
0.000128659
0.00584293
0.000151804
0.00583201
0.000173874
0.00581983
0.000194858
0.00580649
0.000214774
0.00579213
0.000233652
0.00577686
0.000251506
0.0057608
0.000268318
0.00574407
0.000284033
0.00572678
0.000298563
0.00570905
0.000311802
0.00569099
0.000323646
0.00567271
0.00033401
0.00565432
0.000342847
0.00563591
0.000350153
0.00561759
0.000355967
0.00559944
0.000360365
0.00558155
0.000363449
0.00556399
0.000365334
0.00554683
0.000366139
0.00553011
0.000365978
0.000364955
0.00589269
8.4616e-05
-0.00589805
0.00588552
0.000111632
0.00587664
0.000137546
0.00586613
0.000162308
0.00585412
0.000185883
0.00584073
0.000208245
0.0058261
0.000229406
0.00581037
0.000249389
0.00579367
0.000268207
0.00577614
0.000285843
0.00575793
0.000302245
0.00573916
0.000317327
0.00571998
0.000330989
0.00570049
0.000343131
0.00568083
0.000353673
0.0056611
0.000362573
0.00564142
0.000369833
0.00562189
0.000375499
0.0056026
0.000379656
0.00558364
0.000382414
0.00556507
0.000383899
0.00554697
0.000384239
0.00552939
0.000383558
0.00038197
0.00592008
9.05148e-05
-0.00592598
0.00591218
0.00011953
0.00590239
0.000147337
0.00589083
0.000173876
0.00587761
0.000199098
0.00586289
0.000222963
0.00584683
0.00024547
0.00582958
0.000266637
0.00581131
0.000286476
0.00579218
0.000304971
0.00577235
0.000322073
0.00575198
0.000337702
0.0057312
0.000351764
0.00571017
0.000364166
0.005689
0.000374837
0.00566784
0.000383741
0.00564678
0.000390888
0.00562595
0.000396333
0.00560543
0.000400173
0.00558532
0.000402527
0.00556568
0.000403532
0.00554659
0.000403327
0.00552811
0.000402047
0.000399815
0.00594942
-0.00595593
0.0059407
0.0059299
0.00591715
0.00590259
0.0058864
0.00586875
0.00584983
0.00582984
0.00580895
0.00578735
0.00576521
0.0057427
0.00571998
0.00038689
0.00569718
0.00039763
0.00567446
0.000406468
0.00565192
0.000413425
0.00562968
0.000418568
0.00560785
0.000422003
0.00558652
0.000423863
0.00556575
0.000424298
0.00554562
0.000423458
0.00552618
0.000421489
0.000418526
0.00572988
0.00570532
0.0056809
0.00565676
0.00563303
0.00560979
0.00558715
0.00556519
0.00554397
0.00552353
0.00533385
-4.78044e-05
-0.00532517
3.91265e-05
0.0053553
-5.0817e-05
2.93596e-05
0.00538929
-5.33179e-05
1.93334e-05
0.00543539
-5.51743e-05
9.06861e-06
0.00549307
-5.62774e-05
-1.39738e-06
0.00556162
-5.65471e-05
-1.20075e-05
-5.59281e-05
-2.2688e-05
0.00534314
-5.65916e-05
-0.00533435
0.00536471
-7.23923e-05
0.00539883
-8.74309e-05
0.00544508
-0.000101423
0.00550291
-0.000114113
0.00557165
-0.000125285
-0.000134754
0.005353
-6.5509e-05
-0.00534408
0.00537471
-9.41089e-05
0.00540898
-0.000121698
0.0054554
-0.000147842
0.00551342
-0.000172139
0.00558238
-0.000194239
-0.000213826
0.00536346
-7.45835e-05
-0.00535439
0.00538535
-0.000115996
0.0054198
-0.000156152
0.00546643
-0.000194465
0.00552468
-0.000230393
0.00559389
-0.000263444
-0.000293177
0.00537458
-8.38456e-05
-0.00536532
0.00539667
-0.000138087
0.00543135
-0.000190829
0.00547822
-0.000241333
0.00553674
-0.000288913
0.00560624
-0.000332943
-0.000372848
0.0053864
-9.33288e-05
-0.00537692
0.00540873
-0.000160419
0.00544367
-0.000225767
0.00549082
-0.000288485
0.00554965
-0.000347742
0.00561948
-0.000402775
-0.000452877
0.00539895
-0.000103068
-0.00538921
0.00542156
-0.000183029
0.0054568
-0.000261006
0.00550428
-0.000335962
0.00556346
-0.000406922
0.00563367
-0.000472983
-0.000533304
0.00541229
-0.000113099
-0.00540226
0.00543521
-0.000205955
0.00547079
-0.000296586
0.00551864
-0.000383806
0.00557821
-0.000466493
0.00564883
-0.000543607
-0.000614169
0.00542644
-0.000123458
-0.00541609
0.00544972
-0.000229234
0.00548568
-0.000332546
0.00553393
-0.000432057
0.00559394
-0.000526497
0.00566502
-0.000614686
-0.000695511
0.00544147
-0.000134182
-0.00543075
0.00546514
-0.000252905
0.00550152
-0.000368925
0.00555022
-0.000480752
0.00561069
-0.000586971
0.00568226
-0.000686261
-0.000777368
0.00545742
-0.000145308
-0.00544629
0.00548152
-0.000277007
0.00551835
-0.000405762
0.00556753
-0.000529933
0.00562852
-0.000647957
0.00570063
-0.00075837
-0.000859782
0.00547434
-0.000156877
-0.00546277
0.00549891
-0.000301578
0.00553625
-0.000443097
0.00558596
-0.000579639
0.00564749
-0.000709494
0.00572018
-0.000831056
-0.000942795
0.00549232
-0.000168931
-0.00548026
0.0055174
-0.000326664
0.00555528
-0.000480973
0.00560555
-0.000629915
0.00566769
-0.000771627
0.005741
-0.000904365
-0.00102646
0.00551141
-0.000181516
-0.00549883
0.00553706
-0.000352309
0.00557552
-0.000519438
0.00562642
-0.000680807
0.00568919
-0.000834405
0.00576318
-0.000978347
-0.00111082
0.00553172
-0.000194684
-0.00551855
0.00555798
-0.000378566
0.00559708
-0.000558544
0.00564865
-0.00073237
0.00571212
-0.000897883
0.00578683
-0.00105306
-0.00119593
0.00555333
-0.000208493
-0.00553953
0.00558026
-0.000405494
0.00562007
-0.00059835
0.00567236
-0.000784662
0.0057366
-0.000962121
0.0058121
-0.00112856
-0.00128188
0.00557637
-0.000223009
-0.00556185
0.00560403
-0.000433158
0.0056446
-0.000638922
0.00569769
-0.000837751
0.00576276
-0.00102719
0.00583913
-0.00120493
-0.00136873
0.00560094
-0.000238307
-0.00558564
0.00562941
-0.000461633
0.00567083
-0.000680336
0.00572479
-0.000891716
0.00579077
-0.00109317
0.00586809
-0.00128225
-0.00145657
0.00562718
-0.000254475
-0.00561101
0.00565656
-0.000491007
0.0056989
0.00575383
0.00582081
0.00589918
0.00565527
-0.00563813
0.00553551
-2.55196e-05
-0.00561002
0.000100022
0.00547114
-2.77525e-05
9.21314e-05
0.00541772
-3.05444e-05
8.3964e-05
0.00537595
-3.37566e-05
7.55272e-05
0.00534637
-3.72445e-05
6.68245e-05
0.00532936
-4.08557e-05
5.78579e-05
-4.44301e-05
4.86259e-05
0.00554424
4.8952e-05
-0.00561871
0.00547991
3.6578e-05
0.00542655
2.28134e-05
0.00538485
7.93998e-06
0.00535536
-7.7487e-06
0.00533845
-2.39467e-05
-4.03355e-05
0.00555341
0.000123384
-0.00562784
0.00548914
0.00010085
0.00543585
7.60965e-05
0.00539425
4.9548e-05
0.00536485
2.16465e-05
0.00534805
-7.14822e-06
-3.63614e-05
0.00556305
0.000197762
-0.00563743
0.00549885
0.00016505
0.00544566
0.00012929
0.00540416
9.10503e-05
0.00537488
5.09222e-05
0.00535822
9.51746e-06
-3.25318e-05
0.00557319
0.000272073
-0.0056475
0.00550908
0.000229162
0.005456
0.000182375
0.00541462
0.000132427
0.00538549
8.00559e-05
0.00536898
2.60257e-05
-2.88745e-05
0.00558385
0.000346301
-0.00565808
0.00551985
0.000293168
0.00546689
0.000235332
0.00542566
0.000173655
0.00539669
0.000109022
0.00538037
4.2349e-05
-2.54201e-05
0.00559506
0.000420428
-0.00566919
0.00553118
0.00035705
0.00547837
0.00028814
0.00543731
0.00021471
0.00540854
0.000137794
0.00539243
5.84576e-05
-2.22007e-05
0.00560684
0.000494435
-0.00568085
0.00554311
0.000420784
0.00549048
0.000340773
0.00544962
0.000255566
0.00542107
0.000166344
0.00540521
7.43204e-05
-1.92498e-05
0.00561924
0.000568301
-0.00569311
0.00555568
0.000484349
0.00550324
0.000393207
0.00546261
0.000296195
0.00543432
0.00019464
0.00541873
8.99052e-05
-1.66018e-05
0.00563229
0.000642002
-0.00570599
0.00556892
0.000547719
0.00551671
0.000445414
0.00547634
0.000336567
0.00544833
0.000222651
0.00543306
0.000105178
-1.42917e-05
0.00564602
0.000715514
-0.00571953
0.00558287
0.000610866
0.00553093
0.000497364
0.00549084
0.000376649
0.00546315
0.000250344
0.00544822
0.000120104
-1.23568e-05
0.00566048
0.000788806
-0.00573377
0.00559759
0.000673757
0.00554593
0.000549022
0.00550617
0.000416407
0.00547884
0.00027768
0.0054643
0.000134644
-1.08357e-05
0.00567571
0.000861844
-0.00574874
0.0056131
0.000736359
0.00556178
0.000600352
0.00552238
0.0004558
0.00549544
0.00030462
0.00548133
0.000148758
-9.77042e-06
0.00569175
0.000934589
-0.00576449
0.00562948
0.000798629
0.00557852
0.00065131
0.00553953
0.000494785
0.00551303
0.000331119
0.00549939
0.000162399
-9.20705e-06
0.00570865
0.001007
-0.00578105
0.00564675
0.000860522
0.00559621
0.000701849
0.00555769
0.000533313
0.00553168
0.000357126
0.00551856
0.000175517
-9.19809e-06
0.00572646
0.00107901
-0.00579847
0.00566499
0.000921985
0.00561493
0.000751913
0.00557692
0.000571326
0.00555146
0.000382583
0.00553892
0.000188053
-9.80059e-06
0.00574523
0.00115058
-0.0058168
0.00568426
0.000982953
0.00563474
0.000801438
0.0055973
0.00060876
0.00557246
0.000407426
0.00556057
0.000199942
-1.10807e-05
0.00576502
0.00122162
-0.00583606
0.00570462
0.00104336
0.0056557
0.000850351
0.00561892
0.00064554
0.00559477
0.000431579
0.0055836
0.000211109
-1.31146e-05
0.00578589
0.00572613
0.00567792
0.00564188
0.0056185
0.00560814
0.000221468
-1.59871e-05
0.00563432
0.00537692
-0.000185199
0.000180159
0.00538215
-0.000187576
0.000182342
0.00538758
-0.000189835
0.000184405
0.00539321
-0.000191963
0.000186336
0.00539903
-0.000193946
0.000188121
0.00540506
-0.00019577
0.000189747
0.00541128
-0.000197419
0.0001912
0.00541769
-0.000198877
0.000192464
0.00542429
-0.000200128
0.000193525
0.00543108
-0.000201156
0.000194368
0.00543804
-0.000201943
0.000194977
0.00544518
-0.000202472
0.000195336
0.00545248
-0.000202726
0.000195428
0.00545993
-0.000202686
0.000195237
0.00546752
-0.000202336
0.000194747
0.00547523
-0.000201656
0.000193942
0.00548305
-0.00020063
0.000192807
0.00549097
-0.00019924
0.000191325
0.00549896
-0.000197472
0.000189483
0.005507
-0.000195308
0.000187267
0.00551507
-0.000192736
0.000184664
0.00552315
-0.000189741
0.000181663
0.00553121
-0.000186313
0.000178254
0.00553922
-0.000182441
0.000174428
0.00554716
-0.000178117
0.00017018
0.00555499
-0.000173337
0.000165504
0.00556269
-0.000168096
0.000160398
0.00557022
-0.000162393
0.000154863
0.00557755
-0.000156231
0.000148901
0.00558465
-0.000149615
0.000142517
0.00559148
-0.000142551
0.00013572
0.00559801
-0.000135051
0.00012852
0.0056042
-0.000127125
0.00012093
-0.000118776
0.000112961
0.0053746
-0.000190344
0.00537996
-0.000192927
0.00538551
-0.000195395
0.00539129
-0.000197734
0.00539727
-0.00019993
0.00540347
-0.000201967
0.00540988
-0.000203827
0.00541649
-0.000205495
0.00542332
-0.000206953
0.00543035
-0.000208183
0.00543757
-0.000209167
0.00544498
-0.000209885
0.00545258
-0.000210318
0.00546034
-0.000210447
0.00546825
-0.000210253
0.00547631
-0.000209715
0.0054845
-0.000208815
0.00549279
-0.000207534
0.00550118
-0.000205854
0.00550962
-0.000203758
0.00551812
-0.000201228
0.00552663
-0.000198251
0.00553513
-0.000194813
0.00554359
-0.000190903
0.00555198
-0.00018651
0.00556027
-0.000181628
0.00556843
-0.000176252
0.00557642
-0.000170379
0.0055842
-0.000164012
0.00559174
-0.000157154
0.005599
-0.000149812
0.00560594
-0.000141995
0.00561253
-0.000133712
-0.000124956
0.00537209
-0.000195589
0.00537755
-0.000198392
0.00538324
-0.000201083
0.00538916
-0.000203649
0.0053953
-0.000206073
0.00540167
-0.000208339
0.00540827
-0.000210429
0.0054151
-0.000212324
0.00542216
-0.000214007
0.00542943
-0.000215458
0.00543692
-0.000216656
0.00544462
-0.000217582
0.00545251
-0.000218214
0.0054606
-0.000218531
0.00546886
-0.000218513
0.00547728
-0.000218136
0.00548584
-0.000217381
0.00549454
-0.000216227
0.00550333
-0.000214652
0.00551222
-0.000212638
0.00552115
-0.000210167
0.00553012
-0.000207221
0.0055391
-0.000203785
0.00554804
-0.000199845
0.00555692
-0.00019539
0.0055657
-0.000190411
0.00557435
-0.000184901
0.00558283
-0.000178858
0.0055911
-0.00017228
0.00559911
-0.000165172
0.00560684
-0.00015754
0.00561424
-0.000149391
0.00562126
-0.000140731
-0.00013154
0.00536935
-0.000200932
0.00537493
-0.000203968
0.00538074
-0.000206898
0.0053868
-0.000209706
0.0053931
-0.000212375
0.00539965
-0.000214887
0.00540644
-0.000217224
0.00541349
-0.000219366
0.00542077
-0.000221293
0.0054283
-0.000222984
0.00543606
-0.000224418
0.00544405
-0.000225573
0.00545226
-0.000226425
0.00546068
-0.000226952
0.0054693
-0.00022713
0.0054781
-0.000226936
0.00548706
-0.000226347
0.00549618
-0.000225338
0.00550541
-0.000223889
0.00551475
-0.000221976
0.00552416
-0.000219579
0.00553362
-0.000216679
0.00554309
-0.000213258
0.00555255
-0.0002093
0.00556195
-0.000204792
0.00557126
-0.000199721
0.00558044
-0.000194081
0.00558945
-0.000187867
0.00559825
-0.000181076
0.00560679
-0.000173711
0.00561502
-0.000165777
0.00562291
-0.000157279
0.0056304
-0.000148222
-0.00013857
0.00536637
-0.000206368
0.00537206
-0.000209653
0.00537799
-0.000212837
0.00538419
-0.000215903
0.00539065
-0.000218834
0.00539737
-0.000221611
0.00540437
-0.000224214
0.00541162
-0.000226623
0.00541914
-0.000228815
0.00542693
-0.000230768
0.00543497
-0.00023246
0.00544326
-0.000233866
0.0054518
-0.000234961
0.00546057
-0.000235721
0.00546956
-0.000236119
0.00547875
-0.000236131
0.00548814
-0.00023573
0.00549769
-0.000234891
0.00550739
-0.000233588
0.00551721
-0.000231796
0.00552712
-0.000229494
0.0055371
-0.000226658
0.00554711
-0.000223267
0.00555711
-0.000219304
0.00556707
-0.000214753
0.00557695
-0.0002096
0.00558671
-0.000203834
0.00559629
-0.00019745
0.00560565
-0.000190443
0.00561476
-0.000182814
0.00562355
-0.000174567
0.00563197
-0.000165706
0.00563998
-0.000156231
-0.00014609
0.00536313
-0.000211891
0.00536892
-0.00021544
0.00537498
-0.000218895
0.00538131
-0.000222237
0.00538793
-0.000225449
0.00539483
-0.00022851
0.00540201
-0.0002314
0.00540948
-0.000234096
0.00541725
-0.000236575
0.00542529
-0.000238814
0.00543362
-0.000240787
0.00544222
-0.000242469
0.00545109
-0.000243833
0.00546022
-0.000244851
0.0054696
-0.000245496
0.00547921
-0.000245739
0.00548903
-0.000245552
0.00549905
-0.000244906
0.00550923
-0.000243774
0.00551956
-0.000242128
0.00553001
-0.000239941
0.00554054
-0.000237189
0.00555112
-0.000233847
0.00556171
-0.000229896
0.00557227
-0.000225315
0.00558276
-0.000220088
0.00559313
-0.000214204
0.00560333
-0.000207652
0.00561332
-0.000200428
0.00562304
-0.00019253
0.00563243
-0.00018396
0.00564144
-0.000174721
0.00565002
-0.000164807
-0.000154149
0.00535962
-0.000217495
0.00536551
-0.000221324
0.00537168
-0.000225067
0.00537814
-0.000228703
0.00538491
-0.000232215
0.00539198
-0.000235581
0.00539936
-0.000238779
0.00540705
-0.000241786
0.00541505
-0.000244577
0.00542336
-0.000247126
0.00543198
-0.000249406
0.00544091
-0.000251391
0.00545012
-0.00025305
0.00545963
-0.000254355
0.0054694
-0.000255274
0.00547944
-0.000255777
0.00548972
-0.000255832
0.00550022
-0.000255408
0.00551092
-0.000254474
0.00552179
-0.000252998
0.00553281
-0.000250952
0.00554392
-0.000248307
0.00555511
-0.000245036
0.00556633
-0.000241114
0.00557754
-0.00023652
0.00558868
-0.000231233
0.00559972
-0.000225238
0.00561059
-0.000218524
0.00562124
-0.000211083
0.00563163
-0.000202912
0.00564168
-0.00019401
0.00565133
-0.000184379
0.00566053
-0.000174005
-0.000162802
0.00535582
-0.000223173
0.00536179
-0.000227299
0.00536807
-0.000231347
0.00537466
-0.000235297
0.00538158
-0.000239129
0.00538882
-0.000242822
0.00539639
-0.000246351
0.0054043
-0.000249693
0.00541254
-0.00025282
0.00542112
-0.000255706
0.00543004
-0.000258322
0.00543928
-0.000260638
0.00544886
-0.000262623
0.00545875
-0.000264244
0.00546894
-0.000265468
0.00547943
-0.000266262
0.00549018
-0.000266591
0.0055012
-0.000266419
0.00551244
-0.000265714
0.00552388
-0.000264439
0.00553549
-0.000262562
0.00554723
-0.000260051
0.00555907
-0.000256874
0.00557096
-0.000253004
0.00558285
-0.000248415
0.0055947
-0.000243083
0.00560646
-0.00023699
0.00561805
-0.000230121
0.00562944
-0.000222466
0.00564054
-0.000214018
0.00565131
-0.000204777
0.00566167
-0.000194738
0.00567155
-0.000183885
-0.000172105
0.0053517
-0.000228915
0.00535776
-0.000233356
0.00536414
-0.000237727
0.00537085
-0.000242011
0.00537791
-0.000246185
0.00538532
-0.000250227
0.00539308
-0.000254112
0.0054012
-0.000257814
0.00540968
-0.000261306
0.00541854
-0.000264557
0.00542775
-0.000267538
0.00543733
-0.000270217
0.00544727
-0.000272559
0.00545755
-0.00027453
0.00546818
-0.000276094
0.00547913
-0.000277213
0.00549039
-0.000277849
0.00550193
-0.000277965
0.00551374
-0.000277522
0.00552578
-0.000276481
0.00553803
-0.000274806
0.00555044
-0.000272458
0.00556297
-0.000269405
0.00557557
-0.000265612
0.00558821
-0.00026105
0.00560082
-0.000255692
0.00561334
-0.000249516
0.00562572
-0.000242502
0.00563789
-0.000234637
0.00564979
-0.000225912
0.00566134
-0.000216324
0.00567246
-0.000205865
0.00568309
-0.000194511
-0.000182125
0.00534727
-0.000234713
0.0053534
-0.000239485
0.00535987
-0.0002442
0.0053667
-0.000248837
0.00537389
-0.000253376
0.00538145
-0.000257791
0.0053894
-0.000262057
0.00539773
-0.000266147
0.00540646
-0.000270032
0.00541558
-0.00027368
0.0054251
-0.000277058
0.00543501
-0.000280133
0.00544532
-0.000282867
0.00545602
-0.000285224
0.00546709
-0.000287164
0.00547852
-0.000288646
0.0054903
-0.000289629
0.0055024
-0.00029007
0.00551481
-0.000289928
0.00552749
-0.000289158
0.0055404
-0.00028772
0.00555351
-0.000285571
0.00556678
-0.000282673
0.00558016
-0.000278987
0.00559359
-0.000274479
0.00560701
-0.000269118
0.00562037
-0.000262876
0.0056336
-0.00025573
0.00564663
-0.000247663
0.00565938
-0.000238663
0.00567177
-0.000228723
0.00568374
-0.000217831
0.00569519
-0.000205956
-0.00019293
0.0053425
-0.000240553
0.00534869
-0.000245675
0.00535524
-0.000250753
0.00536217
-0.000255766
0.00536949
-0.000260692
0.0053772
-0.000265506
0.00538532
-0.000270181
0.00539386
-0.000274687
0.00540283
-0.000278995
0.00541222
-0.000283072
0.00542204
-0.000286882
0.0054323
-0.000290389
0.00544299
-0.000293554
0.0054541
-0.000296336
0.00546563
-0.000298692
0.00547756
-0.000300579
0.00548988
-0.00030195
0.00550257
-0.000302759
0.0055156
-0.00030296
0.00552895
-0.000302503
0.00554257
-0.000301343
0.00555643
-0.000299433
0.00557049
-0.000296727
0.00558468
-0.000293183
0.00559896
-0.00028876
0.00561327
-0.000283422
0.00562753
-0.000277137
0.00564167
-0.000269875
0.00565563
-0.000261617
0.00566931
-0.000252346
0.00568264
-0.00024205
0.00569552
-0.000230715
0.00570786
-0.000218298
-0.000204599
0.00533737
-0.000246424
0.00534361
-0.000251914
0.00535023
-0.000257375
0.00535725
-0.000262786
0.00536468
-0.000268124
0.00537254
-0.000273362
0.00538083
-0.000278474
0.00538957
-0.000283428
0.00539877
-0.000288192
0.00540843
-0.000292732
0.00541856
-0.000297011
0.00542916
-0.000300989
0.00544023
-0.000304625
0.00545177
-0.000307874
0.00546376
-0.000310691
0.00547621
-0.000313027
0.0054891
-0.000314833
0.00550239
-0.000316057
0.00551608
-0.000316648
0.00553013
-0.000316552
0.0055445
-0.000315716
0.00555916
-0.000314088
0.00557405
-0.000311618
0.00558912
-0.000308255
0.00560432
-0.000303954
0.00561957
-0.000298672
0.0056348
-0.00029237
0.00564994
-0.000285014
0.0056649
-0.00027658
0.0056796
-0.000267044
0.00569394
-0.000256392
0.00570783
-0.000244603
0.00572115
-0.000231623
-0.000217216
0.00533187
-0.000252309
0.00533814
-0.000258187
0.00534482
-0.000264052
0.00535192
-0.000269884
0.00535945
-0.000275658
0.00536744
-0.000281349
0.00537589
-0.000286926
0.00538482
-0.000292359
0.00539425
-0.000297614
0.00540417
-0.000302655
0.0054146
-0.000307441
0.00542554
-0.000311932
0.005437
-0.000316083
0.00544897
-0.000319846
0.00546145
-0.000323171
0.00547443
-0.000326007
0.0054879
-0.000328298
0.00550183
-0.00032999
0.0055162
-0.000331023
0.00553099
-0.000331339
0.00554615
-0.00033088
0.00556165
-0.000329586
0.00557743
-0.0003274
0.00559344
-0.000324265
0.00560962
-0.000320127
0.00562588
-0.000314938
0.00564217
-0.000308652
0.00565838
-0.000301229
0.00567444
-0.000292637
0.00569024
-0.000282848
0.00570569
-0.000271841
0.00572068
-0.00025959
0.00573508
-0.000246028
-0.000230877
0.00532598
-0.000258194
0.00533227
-0.000264478
0.00533899
-0.000270768
0.00534615
-0.000277044
0.00535377
-0.00028328
0.00536187
-0.000289451
0.00537047
-0.000295525
0.00537958
-0.000301471
0.00538922
-0.000307253
0.0053994
-0.000312833
0.00541013
-0.000318169
0.00542141
-0.000323217
0.00543326
-0.000327929
0.00544567
-0.000332256
0.00545864
-0.000336142
0.00547217
-0.000339531
0.00548623
-0.000342365
0.00550082
-0.00034458
0.00551591
-0.000346114
0.00553148
-0.000346902
0.00554748
-0.000346878
0.00556386
-0.000345975
0.00558059
-0.000344128
0.0055976
-0.000341274
0.00561482
-0.00033735
0.00563219
-0.000332299
0.0056496
-0.000326068
0.00566698
-0.00031861
0.00568423
-0.000309884
0.00570124
-0.000299857
0.0057179
-0.000288501
0.00573409
-0.000275783
0.00574968
-0.00026162
-0.000245685
0.00531969
-0.000264058
0.00532598
-0.000270767
0.00533271
-0.000277504
0.00533992
-0.000284247
0.00534761
-0.000290973
0.00535581
-0.000297652
0.00536454
-0.000304256
0.00537382
-0.000310749
0.00538366
-0.000317096
0.00539408
-0.000323256
0.0054051
-0.000329186
0.00541672
-0.000334839
0.00542896
-0.000340164
0.00544181
-0.000345107
0.00545528
-0.000349611
0.00546936
-0.000353613
0.00548405
-0.000357049
0.00549932
-0.000359853
0.00551516
-0.000361953
0.00553153
-0.000363278
0.00554841
-0.000363754
0.00556574
-0.000363307
0.00558348
-0.000361864
0.00560155
-0.00035935
0.0056199
-0.000355697
0.00563844
-0.000350837
0.00565708
-0.000344708
0.00567572
-0.000337253
0.00569426
-0.000328424
0.00571258
-0.00031818
0.00573057
-0.000306486
0.00574808
-0.000293298
0.00576498
-0.000278517
-0.000261759
0.00531296
-0.000269882
0.00531923
-0.000277035
0.00532597
-0.000284239
0.00533319
-0.000291474
0.00534094
-0.000298715
0.00534922
-0.000305934
0.00535806
-0.000313099
0.00536749
-0.000320176
0.00537752
-0.000327128
0.00538818
-0.000333911
0.00539947
-0.000340482