/*--------------------------------*- C++ -*----------------------------------*\
| =========                 |                                                 |
| \\      /  F ield         | OpenFOAM: The Open Source CFD Toolbox           |
|  \\    /   O peration     | Version:  2412                                  |
|   \\  /    A nd           | Website:  www.openfoam.com                      |
|    \\/     M anipulation  |                                                 |
\*---------------------------------------------------------------------------*/
FoamFile
{
    version     2.0;
    format      ascii;
    arch        "LSB;label=32;scalar=64";
    class       volScalarField;
    location    "17";
    object      p;
}
// * * * * * * * * * * * * * * * * * * * * * * * * * * * * * * * * * * * * * //

dimensions      [0 2 -2 0 0 0 0];

internalField   nonuniform List<scalar> 
63420
(
0.000954582
0.000954841
0.000955662
0.000956931
0.000958631
0.000960747
0.000963264
0.000966168
0.000969447
0.00097309
0.000977086
0.000981426
0.000986101
0.000991104
0.000996433
0.00100208
0.00100806
0.00101435
0.00102097
0.00102791
0.00103517
0.00104276
0.00105067
0.00105892
0.00106749
0.00107639
0.00108563
0.0010952
0.00110511
0.00111536
0.00112595
0.0011369
0.00114819
0.00115983
0.00117184
0.0011842
0.00119693
0.00121002
0.00122349
0.00123734
0.00125156
0.00126617
0.00128117
0.00129657
0.00131236
0.00132855
0.00134515
0.00136216
0.00137959
0.00139744
0.00141572
0.00143442
0.00145356
0.00147315
0.00149317
0.000954523
0.000954781
0.000955602
0.00095687
0.000958568
0.000960683
0.000963198
0.0009661
0.000969376
0.000973017
0.00097701
0.000981346
0.000986017
0.000991017
0.000996341
0.00100199
0.00100796
0.00101424
0.00102086
0.00102779
0.00103505
0.00104263
0.00105053
0.00105877
0.00106733
0.00107622
0.00108545
0.00109501
0.00110491
0.00111515
0.00112573
0.00113666
0.00114794
0.00115957
0.00117156
0.0011839
0.00119661
0.00120969
0.00122314
0.00123696
0.00125116
0.00126575
0.00128072
0.00129609
0.00131185
0.00132801
0.00134458
0.00136156
0.00137895
0.00139676
0.00141499
0.00143366
0.00145275
0.00147228
0.00149226
0.000954404
0.000954662
0.000955482
0.000956748
0.000958443
0.000960555
0.000963067
0.000965964
0.000969236
0.00097287
0.000976858
0.000981187
0.000985851
0.000990843
0.000996158
0.0010018
0.00100775
0.00101403
0.00102063
0.00102755
0.0010348
0.00104236
0.00105025
0.00105847
0.00106702
0.00107589
0.0010851
0.00109464
0.00110452
0.00111473
0.00112529
0.00113619
0.00114744
0.00115904
0.001171
0.00118331
0.00119598
0.00120902
0.00122243
0.00123621
0.00125036
0.0012649
0.00127982
0.00129514
0.00131084
0.00132694
0.00134345
0.00136035
0.00137767
0.0013954
0.00141356
0.00143213
0.00145113
0.00147057
0.00149044
0.000954226
0.000954483
0.000955301
0.000956564
0.000958256
0.000960364
0.00096287
0.00096576
0.000969025
0.000972651
0.000976629
0.000980949
0.000985602
0.000990582
0.000995884
0.00100151
0.00100745
0.00101371
0.00102029
0.0010272
0.00103442
0.00104197
0.00104984
0.00105803
0.00106655
0.0010754
0.00108457
0.00109408
0.00110393
0.00111411
0.00112463
0.00113549
0.00114669
0.00115825
0.00117016
0.00118242
0.00119504
0.00120802
0.00122136
0.00123508
0.00124917
0.00126363
0.00127848
0.00129371
0.00130933
0.00132534
0.00134174
0.00135855
0.00137576
0.00139338
0.00141141
0.00142985
0.00144871
0.001468
0.00148771
0.000953988
0.000954245
0.00095506
0.00095632
0.000958007
0.000960109
0.000962607
0.000965489
0.000968744
0.000972359
0.000976325
0.000980631
0.00098527
0.000990234
0.00099552
0.00100112
0.00100705
0.00101329
0.00101985
0.00102673
0.00103392
0.00104144
0.00104928
0.00105744
0.00106593
0.00107474
0.00108387
0.00109334
0.00110314
0.00111327
0.00112374
0.00113455
0.0011457
0.0011572
0.00116904
0.00118123
0.00119378
0.00120669
0.00121995
0.00123358
0.00124758
0.00126195
0.00127669
0.00129181
0.00130732
0.00132321
0.00133949
0.00135616
0.00137322
0.00139069
0.00140855
0.00142682
0.00144551
0.0014646
0.0014841
0.000953691
0.000953947
0.00095476
0.000956015
0.000957696
0.00095979
0.000962279
0.000965151
0.000968393
0.000971995
0.000975946
0.000980235
0.000984855
0.0009898
0.000995064
0.00100065
0.00100654
0.00101276
0.00101929
0.00102614
0.0010333
0.00104078
0.00104858
0.00105671
0.00106515
0.00107391
0.001083
0.00109242
0.00110216
0.00111223
0.00112264
0.00113338
0.00114446
0.00115588
0.00116765
0.00117976
0.00119222
0.00120503
0.00121819
0.00123172
0.0012456
0.00125985
0.00127447
0.00128946
0.00130482
0.00132056
0.00133668
0.00135318
0.00137006
0.00138734
0.00140501
0.00142307
0.00144152
0.00146037
0.00147962
0.000953336
0.000953591
0.0009544
0.00095565
0.000957324
0.000959408
0.000961887
0.000964746
0.000967973
0.000971559
0.000975491
0.000979761
0.000984359
0.00098928
0.000994519
0.00100007
0.00100594
0.00101212
0.00101862
0.00102543
0.00103256
0.00104
0.00104775
0.00105583
0.00106422
0.00107293
0.00108196
0.00109131
0.00110099
0.00111099
0.00112132
0.00113199
0.00114298
0.00115431
0.00116598
0.00117799
0.00119035
0.00120304
0.00121609
0.00122949
0.00124324
0.00125735
0.00127181
0.00128664
0.00130184
0.0013174
0.00133333
0.00134963
0.0013663
0.00138335
0.00140078
0.00141859
0.00143678
0.00145535
0.00147429
0.00151371
0.00153497
0.00155714
0.00158029
0.00160446
0.00162972
0.00165613
0.00168376
0.00171269
0.00174301
0.00177481
0.00180818
0.00184322
0.00188007
0.00191883
0.00195965
0.00200267
0.00204807
0.00209601
0.00214669
0.00220033
0.00225716
0.00231744
0.00238146
0.00244952
0.00252199
0.00259925
0.00268171
0.00276985
0.0028642
0.00296533
0.00307387
0.00319051
0.00331602
0.0034512
0.00359692
0.00375405
0.00392343
0.00410582
0.0043017
0.0045111
0.00473331
0.00496653
0.00520761
0.00545237
0.00569641
0.00593555
0.00617592
0.00648435
0.00695326
0.00151277
0.00153403
0.00155621
0.00157935
0.00160352
0.00162877
0.00165517
0.0016828
0.00171173
0.00174205
0.00177384
0.0018072
0.00184223
0.00187906
0.00191781
0.00195861
0.00200161
0.00204697
0.00209487
0.00214551
0.00219909
0.00225585
0.00231604
0.00237995
0.00244789
0.00252019
0.00259724
0.00267945
0.00276728
0.00286123
0.00296186
0.00306978
0.00318563
0.00331013
0.00344403
0.00358809
0.00374307
0.00390968
0.00408844
0.00427957
0.00448275
0.0046968
0.00491934
0.00514649
0.00537314
0.00559398
0.00580427
0.00600927
0.00627156
0.00667661
0.0015109
0.00153216
0.00155433
0.00157746
0.00160162
0.00162687
0.00165326
0.00168089
0.00170981
0.00174011
0.00177189
0.00180523
0.00184025
0.00187705
0.00191577
0.00195653
0.00199948
0.00204478
0.00209261
0.00214315
0.00219662
0.00225324
0.00231326
0.00237696
0.00244463
0.00251661
0.00259325
0.00267497
0.00276218
0.00285535
0.00295501
0.0030617
0.003176
0.00329852
0.00342987
0.00357066
0.00372142
0.00388251
0.00405407
0.00423576
0.00442652
0.00462422
0.00482529
0.00502433
0.00521443
0.00538835
0.00554046
0.00567453
0.0058404
0.00613043
0.00150809
0.00152934
0.0015515
0.00157462
0.00159877
0.00162401
0.00165039
0.001678
0.0017069
0.00173719
0.00176894
0.00180226
0.00183724
0.001874
0.00191266
0.00195336
0.00199623
0.00204144
0.00208915
0.00213955
0.00219284
0.00224924
0.00230899
0.00237235
0.00243962
0.0025111
0.00258712
0.00266807
0.00275433
0.00284632
0.00294449
0.00304931
0.00316125
0.00328076
0.00340829
0.00354415
0.00368855
0.00384139
0.00400219
0.00416977
0.00434201
0.00451535
0.00468438
0.0048415
0.00497707
0.00508085
0.0051458
0.00517695
0.00520862
0.00529583
0.00150436
0.00152561
0.00154776
0.00157087
0.00159501
0.00162023
0.00164661
0.0016742
0.00170309
0.00173336
0.00176509
0.00179838
0.00183332
0.00187004
0.00190864
0.00194927
0.00199205
0.00203714
0.00208471
0.00213492
0.00218799
0.00224411
0.00230352
0.00236646
0.0024332
0.00250402
0.00257924
0.00265917
0.00274417
0.00283458
0.00293077
0.00303309
0.00314185
0.00325733
0.00337967
0.00350888
0.00364465
0.0037863
0.00393248
0.00408095
0.00422811
0.00436856
0.00449453
0.00459552
0.00465851
0.0046693
0.00461804
0.00451278
0.00437679
0.00415079
0.00149973
0.00152098
0.00154314
0.00156626
0.00159042
0.00161566
0.00164206
0.00166968
0.0016986
0.00172889
0.00176065
0.00179398
0.00182895
0.0018657
0.00190433
0.00194498
0.00198777
0.00203286
0.00208041
0.00213059
0.00218358
0.0022396
0.00229885
0.00236157
0.00242801
0.00249843
0.00257311
0.00265233
0.00273638
0.00282555
0.0029201
0.00302025
0.00312614
0.0032378
0.00335505
0.0034774
0.00360389
0.00373291
0.00386182
0.00398659
0.00410128
0.00419736
0.00426319
0.00428369
0.00424061
0.00411447
0.00389078
0.00357845
0.00319268
0.00254367
0.00149419
0.00151537
0.00153747
0.00156054
0.00158464
0.00160984
0.00163619
0.00166376
0.00169263
0.00172287
0.00175459
0.00178786
0.00182278
0.00185947
0.00189804
0.00193861
0.00198132
0.00202631
0.00207374
0.00212378
0.00217661
0.00223243
0.00229143
0.00235384
0.00241989
0.00248983
0.0025639
0.00264235
0.00272541
0.00281331
0.00290622
0.00300422
0.0031073
0.00321522
0.00332745
0.00344301
0.00356018
0.00367625
0.00378699
0.00388604
0.0039642
0.00400855
0.00400187
0.00392251
0.00374533
0.00344318
0.00299792
0.00242299
0.00168291
0.00048258
-0.0034717
-0.00354059
-0.00355275
-0.00352284
-0.00346336
-0.0033771
-0.00326728
-0.0031363
-0.00298664
-0.00282128
-0.00264365
-0.00245744
-0.00226539
-0.0020706
-0.00187602
-0.00168434
-0.00149795
-0.0013189
-0.00114889
-0.000989232
-0.000840906
-0.000704531
-0.000580425
-0.00046864
-0.00036898
-0.000281034
-0.000204234
-0.000137899
-8.12637e-05
-3.35089e-05
6.20889e-06
3.87333e-05
6.48884e-05
8.54636e-05
0.000101202
0.000112792
0.000120864
0.000125985
0.000128662
0.000129341
0.000128412
0.00012621
0.000123023
0.000119091
0.000114618
0.000109772
0.000104689
9.94805e-05
9.42337e-05
8.90189e-05
-0.00355955
-0.00360408
-0.0036017
-0.00356342
-0.00349857
-0.00340887
-0.00329747
-0.00316543
-0.00301566
-0.00284957
-0.00267089
-0.00248517
-0.00229303
-0.00209789
-0.00190278
-0.00171039
-0.00152313
-0.00134306
-0.00117191
-0.00101103
-0.000861422
-0.000723727
-0.000598292
-0.000485186
-0.000384238
-0.000295048
-0.00021706
-0.0001496
-9.19076e-05
-4.31675e-05
-2.53678e-06
3.08289e-05
5.77557e-05
7.9036e-05
9.54162e-05
0.000107589
0.000116188
0.000121786
0.000124893
0.00012596
0.000125378
0.000123489
0.000120582
0.000116902
0.000112654
0.00010801
0.000103108
9.80604e-05
9.2958e-05
8.78738e-05
-0.00373475
-0.00372853
-0.00369765
-0.00364259
-0.00356637
-0.00346882
-0.00335481
-0.00322099
-0.00307261
-0.00289992
-0.00272458
-0.00253878
-0.00234628
-0.00215055
-0.00195451
-0.00176084
-0.00157197
-0.00139002
-0.00121674
-0.00105355
-0.000901488
-0.000761267
-0.000633272
-0.000517618
-0.000414168
-0.000322564
-0.000242262
-0.000172607
-0.000112849
-6.21809e-05
-1.97613e-05
1.52548e-05
4.36971e-05
6.63631e-05
8.40059e-05
9.73256e-05
0.000106964
0.000113501
0.000117455
0.000119285
0.00011939
0.000118117
0.000115763
0.000112579
0.000108775
0.000104528
9.99817e-05
9.52527e-05
9.04345e-05
8.56076e-05
-0.00400321
-0.00390521
-0.00383735
-0.00375698
-0.00366377
-0.00355654
-0.00343704
-0.00329589
-0.00314544
-0.0029785
-0.00280114
-0.00261462
-0.00242172
-0.00222525
-0.00202801
-0.00183266
-0.00164164
-0.00145711
-0.0012809
-0.00111449
-0.000959007
-0.000815235
-0.000683625
-0.000564357
-0.000457352
-0.000362297
-0.000278688
-0.000205889
-0.000143168
-8.97283e-05
-4.47342e-05
-7.33991e-06
2.32883e-05
4.7955e-05
6.74223e-05
8.24005e-05
9.35423e-05
0.000101439
0.000106621
0.000109556
0.000110656
0.000110277
0.000108725
0.00010626
0.0001031
9.94291e-05
9.53978e-05
9.11296e-05
8.67235e-05
8.227e-05
-0.00433949
-0.00413516
-0.0040169
-0.0039008
-0.0037842
-0.00366794
-0.0035352
-0.00339181
-0.00323729
-0.00307012
-0.00289228
-0.00270571
-0.00251264
-0.00231563
-0.00211732
-0.00192032
-0.00172707
-0.00153976
-0.0013603
-0.00119024
-0.00103082
-0.000882892
-0.00074701
-0.000623418
-0.000512118
-0.000412862
-0.000325191
-0.000248504
-0.000182097
-0.00012519
-7.69574e-05
-3.6556e-05
-3.15052e-06
2.40693e-05
4.58743e-05
6.29855e-05
7.60674e-05
8.57242e-05
9.24985e-05
9.68722e-05
9.92686e-05
0.000100056
9.95513e-05
9.80255e-05
9.57074e-05
9.27891e-05
8.94305e-05
8.57629e-05
8.18937e-05
7.7925e-05
-0.00469395
-0.00441746
-0.00423521
-0.00406956
-0.003915
-0.00378221
-0.00363867
-0.00348867
-0.00333025
-0.00316212
-0.00298478
-0.00279939
-0.00260766
-0.00241175
-0.00221404
-0.00201696
-0.00182288
-0.00163397
-0.00145219
-0.00127916
-0.00111621
-0.000964331
-0.000824161
-0.00069606
-0.000580117
-0.000476178
-0.000383872
-0.000302652
-0.000231863
-0.000170763
-0.000118554
-7.44084e-05
-3.75015e-05
-7.02601e-06
1.77906e-05
3.76747e-05
5.3299e-05
6.52779e-05
7.41656e-05
8.04563e-05
8.45861e-05
8.69361e-05
8.78364e-05
8.75703e-05
8.63788e-05
8.44657e-05
8.20019e-05
7.91289e-05
7.59657e-05
7.26238e-05
-0.00503378
-0.00476704
-0.00452058
-0.00428881
-0.00411773
-0.00393955
-0.00377443
-0.00361236
-0.00344681
-0.00327534
-0.00309702
-0.00291192
-0.00272101
-0.00252586
-0.00232846
-0.00213098
-0.00193567
-0.00174468
-0.00155997
-0.00138328
-0.00121603
-0.00105934
-0.000913983
-0.000780443
-0.000658924
-0.000549376
-0.000451519
-0.000364892
-0.000288893
-0.000222826
-0.000165922
-0.000117377
-7.63726e-05
-4.21059e-05
-1.38002e-05
9.27908e-06
2.78163e-05
4.244e-05
5.37201e-05
6.21674e-05
6.82352e-05
7.23216e-05
7.47733e-05
7.58898e-05
7.59277e-05
7.51055e-05
7.36074e-05
7.15877e-05
6.91774e-05
6.64908e-05
8.38781e-05
7.87715e-05
7.37209e-05
6.87702e-05
6.39437e-05
5.92606e-05
5.47374e-05
5.03862e-05
4.62156e-05
4.22312e-05
3.84362e-05
3.48319e-05
3.14178e-05
2.81921e-05
2.51517e-05
2.22928e-05
1.96106e-05
1.71e-05
1.47554e-05
1.25709e-05
1.05406e-05
8.65864e-06
6.91924e-06
5.31674e-06
3.84562e-06
2.50051e-06
1.27609e-06
1.67037e-07
-8.32067e-07
-1.72673e-06
-2.52258e-06
-3.22539e-06
-3.84095e-06
-4.37506e-06
-4.83346e-06
-5.22173e-06
-5.54526e-06
-5.80917e-06
-6.01834e-06
-6.17737e-06
-6.2906e-06
-6.36205e-06
-6.39568e-06
-6.39478e-06
-6.36338e-06
-6.30398e-06
-6.21979e-06
-6.11383e-06
-5.98867e-06
-5.84676e-06
-5.69047e-06
-5.522e-06
-5.34335e-06
-5.15643e-06
-4.96299e-06
-4.76466e-06
-4.56291e-06
-4.3591e-06
-4.1545e-06
-3.95022e-06
-3.74728e-06
-3.5466e-06
-3.34899e-06
-3.15517e-06
-2.96577e-06
-2.78134e-06
-2.60235e-06
-2.42916e-06
-2.26211e-06
-2.10145e-06
-1.94736e-06
-1.79999e-06
-1.65941e-06
-1.52567e-06
-1.39876e-06
-1.27864e-06
-1.16522e-06
-1.05839e-06
-9.58032e-07
-8.63973e-07
-7.75993e-07
-6.93967e-07
-6.17529e-07
-5.46751e-07
-4.80762e-07
-4.20605e-07
-3.6342e-07
-3.14006e-07
-2.62565e-07
-2.26448e-07
-1.73624e-07
-1.59751e-07
-8.87888e-08
-1.20271e-07
5.20741e-09
-1.20434e-07
1.27268e-07
-1.76139e-07
2.94463e-07
-2.93553e-07
5.02651e-07
-4.43941e-07
6.99537e-07
-5.42269e-07
7.7823e-07
-4.66492e-07
6.30521e-07
-1.45971e-07
2.60321e-07
3.20429e-07
-1.2803e-07
6.40168e-07
-1.98821e-07
4.8612e-07
2.88002e-07
8.28697e-05
7.78477e-05
7.28729e-05
6.79977e-05
6.32418e-05
5.86233e-05
5.41591e-05
4.98618e-05
4.57402e-05
4.18004e-05
3.8046e-05
3.44786e-05
3.1098e-05
2.79027e-05
2.489e-05
2.20562e-05
1.93969e-05
1.69071e-05
1.45813e-05
1.2414e-05
1.03995e-05
8.53185e-06
6.8055e-06
5.21486e-06
3.75453e-06
2.41922e-06
1.20365e-06
1.02583e-07
-8.89334e-07
-1.77755e-06
-2.56764e-06
-3.2653e-06
-3.87627e-06
-4.40629e-06
-4.86104e-06
-5.24605e-06
-5.56666e-06
-5.82797e-06
-6.03482e-06
-6.19177e-06
-6.30314e-06
-6.37293e-06
-6.40508e-06
-6.40286e-06
-6.37028e-06
-6.30984e-06
-6.22472e-06
-6.11795e-06
-5.99207e-06
-5.84954e-06
-5.6927e-06
-5.52375e-06
-5.34469e-06
-5.15742e-06
-4.96367e-06
-4.76508e-06
-4.56311e-06
-4.35912e-06
-4.15437e-06
-3.94996e-06
-3.74692e-06
-3.54617e-06
-3.3485e-06
-3.15464e-06
-2.9652e-06
-2.78076e-06
-2.60175e-06
-2.42856e-06
-2.26152e-06
-2.10086e-06
-1.94679e-06
-1.79944e-06
-1.65889e-06
-1.52516e-06
-1.39828e-06
-1.2782e-06
-1.1648e-06
-1.058e-06
-9.57665e-07
-8.63633e-07
-7.75678e-07
-6.93677e-07
-6.17261e-07
-5.46506e-07
-4.80538e-07
-4.204e-07
-3.63236e-07
-3.13838e-07
-2.62416e-07
-2.2631e-07
-1.7351e-07
-1.59636e-07
-8.87084e-08
-1.20169e-07
5.25437e-09
-1.20336e-07
1.27279e-07
-1.7604e-07
2.94444e-07
-2.93459e-07
5.02622e-07
-4.4387e-07
6.99519e-07
-5.42241e-07
7.78252e-07
-4.66526e-07
6.30587e-07
-1.46046e-07
2.604e-07
3.20363e-07
-1.27962e-07
6.40116e-07
-1.98693e-07
4.85952e-07
2.88194e-07
8.08642e-05
7.6011e-05
7.11886e-05
6.64636e-05
6.18476e-05
5.7357e-05
5.30097e-05
4.88192e-05
4.4795e-05
4.09438e-05
3.727e-05
3.37757e-05
3.04616e-05
2.73268e-05
2.4369e-05
2.15851e-05
1.89712e-05
1.65227e-05
1.42346e-05
1.21017e-05
1.01183e-05
8.2792e-06
6.57881e-06
5.0118e-06
3.57295e-06
2.25712e-06
1.05919e-06
-2.59675e-08
-1.00357e-06
-1.87894e-06
-2.65755e-06
-3.34494e-06
-3.94675e-06
-4.46861e-06
-4.91608e-06
-5.29459e-06
-5.6094e-06
-5.86552e-06
-6.06772e-06
-6.22052e-06
-6.32817e-06
-6.39464e-06
-6.42383e-06
-6.41897e-06
-6.38404e-06
-6.32153e-06
-6.23457e-06
-6.12618e-06
-5.99886e-06
-5.85508e-06
-5.69715e-06
-5.52725e-06
-5.34737e-06
-5.15938e-06
-4.96503e-06
-4.76592e-06
-4.56352e-06
-4.35917e-06
-4.15411e-06
-3.94945e-06
-3.74622e-06
-3.5453e-06
-3.34751e-06
-3.15356e-06
-2.96407e-06
-2.77958e-06
-2.60055e-06
-2.42736e-06
-2.26033e-06
-2.09969e-06
-1.94565e-06
-1.79834e-06
-1.65783e-06
-1.52416e-06
-1.39733e-06
-1.2773e-06
-1.16395e-06
-1.05721e-06
-9.56932e-07
-8.62951e-07
-7.75049e-07
-6.93097e-07
-6.16728e-07
-5.46018e-07
-4.80091e-07
-4.19991e-07
-3.62869e-07
-3.13503e-07
-2.6212e-07
-2.26035e-07
-1.73282e-07
-1.59406e-07
-8.85475e-08
-1.19966e-07
5.3505e-09
-1.20143e-07
1.27301e-07
-1.75845e-07
2.94407e-07
-2.93269e-07
5.02557e-07
-4.43722e-07
6.99482e-07
-5.4219e-07
7.78299e-07
-4.66591e-07
6.30712e-07
-1.46198e-07
2.60559e-07
3.20228e-07
-1.27822e-07
6.40007e-07
-1.98434e-07
4.85615e-07
2.88582e-07
7.78865e-05
7.32842e-05
6.86913e-05
6.41892e-05
5.97799e-05
5.54782e-05
5.13038e-05
4.72712e-05
4.33909e-05
3.96707e-05
3.61161e-05
3.27303e-05
2.95148e-05
2.64696e-05
2.35933e-05
2.08836e-05
1.83372e-05
1.59501e-05
1.3718e-05
1.1636e-05
9.69921e-06
7.90247e-06
6.2407e-06
4.70887e-06
3.30201e-06
2.01519e-06
8.43523e-07
-2.17935e-07
-1.17421e-06
-2.03044e-06
-2.7919e-06
-3.46398e-06
-4.05212e-06
-4.56178e-06
-4.99837e-06
-5.36717e-06
-5.6733e-06
-5.92166e-06
-6.11692e-06
-6.2635e-06
-6.3656e-06
-6.42711e-06
-6.45187e-06
-6.44307e-06
-6.40462e-06
-6.339e-06
-6.24929e-06
-6.13846e-06
-6.00902e-06
-5.86336e-06
-5.7038e-06
-5.53247e-06
-5.35136e-06
-5.16232e-06
-4.96706e-06
-4.76717e-06
-4.56411e-06
-4.35922e-06
-4.1537e-06
-3.94868e-06
-3.74515e-06
-3.544e-06
-3.34603e-06
-3.15194e-06
-2.96236e-06
-2.77781e-06
-2.59875e-06
-2.42556e-06
-2.25854e-06
-2.09794e-06
-1.94395e-06
-1.79669e-06
-1.65625e-06
-1.52266e-06
-1.39591e-06
-1.27595e-06
-1.16269e-06
-1.05603e-06
-9.55831e-07
-8.61929e-07
-7.74105e-07
-6.92226e-07
-6.15927e-07
-5.45285e-07
-4.79421e-07
-4.1938e-07
-3.62319e-07
-3.13001e-07
-2.61677e-07
-2.25623e-07
-1.72942e-07
-1.59063e-07
-8.83048e-08
-1.19663e-07
5.49499e-09
-1.19855e-07
1.27338e-07
-1.75555e-07
2.94358e-07
-2.92992e-07
5.02469e-07
-4.43512e-07
6.99438e-07
-5.42124e-07
7.78379e-07
-4.66701e-07
6.3091e-07
-1.46428e-07
2.608e-07
3.20021e-07
-1.27616e-07
6.39843e-07
-1.98047e-07
4.85105e-07
2.89176e-07
7.39743e-05
6.9702e-05
6.54153e-05
6.12055e-05
5.7066e-05
5.3011e-05
4.90622e-05
4.52358e-05
4.15436e-05
3.79948e-05
3.45962e-05
3.13525e-05
2.82664e-05
2.53389e-05
2.25697e-05
1.99575e-05
1.74999e-05
1.51938e-05
1.30354e-05
1.10206e-05
9.14512e-06
7.40429e-06
5.79348e-06
4.30805e-06
2.94338e-06
1.69486e-06
5.57861e-07
-4.72292e-07
-1.40038e-06
-2.2313e-06
-2.97009e-06
-3.6219e-06
-4.19193e-06
-4.68544e-06
-5.1076e-06
-5.46352e-06
-5.75812e-06
-5.99618e-06
-6.18222e-06
-6.32056e-06
-6.41528e-06
-6.4702e-06
-6.48907e-06
-6.47504e-06
-6.43192e-06
-6.36217e-06
-6.26881e-06
-6.15476e-06
-6.02248e-06
-5.87434e-06
-5.71261e-06
-5.53939e-06
-5.35664e-06
-5.16619e-06
-4.96973e-06
-4.76882e-06
-4.56489e-06
-4.35927e-06
-4.15315e-06
-3.94764e-06
-3.74371e-06
-3.54225e-06
-3.34404e-06
-3.14978e-06
-2.96007e-06
-2.77545e-06
-2.59635e-06
-2.42315e-06
-2.25616e-06
-2.0956e-06
-1.94167e-06
-1.7945e-06
-1.65415e-06
-1.52065e-06
-1.394e-06
-1.27415e-06
-1.161e-06
-1.05445e-06
-9.54362e-07
-8.60566e-07
-7.72845e-07
-6.91064e-07
-6.1486e-07
-5.44308e-07
-4.78529e-07
-4.18566e-07
-3.61587e-07
-3.12333e-07
-2.61088e-07
-2.25075e-07
-1.72487e-07
-1.58608e-07
-8.79785e-08
-1.19264e-07
5.69279e-09
-1.1948e-07
1.27401e-07
-1.75187e-07
2.94315e-07
-2.92653e-07
5.0239e-07
-4.43278e-07
6.99431e-07
-5.42089e-07
7.78536e-07
-4.66894e-07
6.3121e-07
-1.46755e-07
2.61127e-07
3.1975e-07
-1.2736e-07
6.39643e-07
-1.97548e-07
4.84433e-07
2.89991e-07
6.9175e-05
6.5313e-05
6.14071e-05
5.75538e-05
5.37418e-05
4.99866e-05
4.63123e-05
4.27367e-05
3.92736e-05
3.59338e-05
3.27259e-05
2.96559e-05
2.67281e-05
2.39449e-05
2.13071e-05
1.88147e-05
1.64662e-05
1.42596e-05
1.2192e-05
1.026e-05
8.46005e-06
6.78811e-06
5.24012e-06
3.8119e-06
2.49928e-06
1.298e-06
2.03802e-07
-7.87693e-07
-1.68095e-06
-2.48058e-06
-3.19132e-06
-3.81802e-06
-4.36562e-06
-4.83908e-06
-5.24334e-06
-5.58325e-06
-5.86355e-06
-6.0888e-06
-6.26338e-06
-6.39147e-06
-6.47702e-06
-6.52374e-06
-6.5353e-06
-6.51475e-06
-6.46583e-06
-6.39096e-06
-6.29305e-06
-6.17499e-06
-6.03919e-06
-5.88796e-06
-5.72353e-06
-5.54796e-06
-5.36318e-06
-5.17098e-06
-4.97302e-06
-4.77083e-06
-4.56583e-06
-4.3593e-06
-4.15244e-06
-3.94632e-06
-3.74189e-06
-3.54005e-06
-3.34154e-06
-3.14706e-06
-2.95721e-06
-2.77249e-06
-2.59335e-06
-2.42014e-06
-2.25317e-06
-2.09268e-06
-1.93883e-06
-1.79175e-06
-1.65151e-06
-1.51814e-06
-1.39162e-06
-1.2719e-06
-1.1589e-06
-1.05248e-06
-9.52526e-07
-8.58861e-07
-7.71269e-07
-6.89612e-07
-6.13527e-07
-5.43086e-07
-4.77416e-07
-4.17551e-07
-3.60673e-07
-3.11498e-07
-2.60352e-07
-2.24391e-07
-1.71919e-07
-1.58038e-07
-8.75713e-08
-1.18765e-07
5.93773e-09
-1.19009e-07
1.27478e-07
-1.74724e-07
2.94258e-07
-2.92224e-07
5.02286e-07
-4.42977e-07
6.99413e-07
-5.42035e-07
7.78721e-07
-4.67125e-07
6.31577e-07
-1.47155e-07
2.61532e-07
3.19408e-07
-1.2703e-07
6.39373e-07
-1.96902e-07
4.83572e-07
2.91058e-07
6.35567e-05
6.01783e-05
5.67249e-05
5.32834e-05
4.98494e-05
4.64415e-05
4.30854e-05
3.98011e-05
3.66044e-05
3.35082e-05
3.05227e-05
2.76558e-05
2.49133e-05
2.22991e-05
1.98157e-05
1.7464e-05
1.52439e-05
1.31544e-05
1.11937e-05
9.35932e-06
7.64842e-06
6.05778e-06
4.58393e-06
3.22329e-06
1.97214e-06
8.26706e-07
-2.16897e-07
-1.16266e-06
-2.01468e-06
-2.77723e-06
-3.4547e-06
-4.05161e-06
-4.57255e-06
-5.02217e-06
-5.40512e-06
-5.72597e-06
-5.98921e-06
-6.19921e-06
-6.36013e-06
-6.47599e-06
-6.55061e-06
-6.58756e-06
-6.5904e-06
-6.56208e-06
-6.50623e-06
-6.42525e-06
-6.32193e-06
-6.19909e-06
-6.05907e-06
-5.90416e-06
-5.73651e-06
-5.55815e-06
-5.37095e-06
-5.17666e-06
-4.97691e-06
-4.7732e-06
-4.56691e-06
-4.35931e-06
-4.15156e-06
-3.9447e-06
-3.7397e-06
-3.53739e-06
-3.33853e-06
-3.1438e-06
-2.95376e-06
-2.76893e-06
-2.58973e-06
-2.41653e-06
-2.2496e-06
-2.08917e-06
-1.93542e-06
-1.78846e-06
-1.64835e-06
-1.51513e-06
-1.38877e-06
-1.26921e-06
-1.15637e-06
-1.05012e-06
-9.50323e-07
-8.56816e-07
-7.69379e-07
-6.8787e-07
-6.11927e-07
-5.41621e-07
-4.76081e-07
-4.16333e-07
-3.59578e-07
-3.10496e-07
-2.59475e-07
-2.23564e-07
-1.71248e-07
-1.57338e-07
-8.71106e-08
-1.18122e-07
6.16469e-09
-1.18348e-07
1.27432e-07
-1.73978e-07
2.93938e-07
-2.91388e-07
5.01767e-07
-4.4216e-07
6.98885e-07
-5.41441e-07
7.78427e-07
-4.66944e-07
6.31661e-07
-1.47415e-07
2.61956e-07
3.18903e-07
-1.26414e-07
6.38757e-07
-1.95842e-07
4.82353e-07
2.92461e-07
5.70074e-05
5.4212e-05
5.13004e-05
4.83311e-05
4.53283e-05
4.23178e-05
3.93268e-05
3.63775e-05
3.34878e-05
3.06728e-05
2.79447e-05
2.53132e-05
2.2786e-05
2.03685e-05
1.80648e-05
1.58772e-05
1.38071e-05
1.18546e-05
1.0019e-05
8.29889e-06
6.69238e-06
5.19704e-06
3.81017e-06
2.52881e-06
1.34984e-06
2.69998e-07
-7.14133e-07
-1.6061e-06
-2.40959e-06
-3.12845e-06
-3.76668e-06
-4.32839e-06
-4.81782e-06
-5.23925e-06
-5.59696e-06
-5.89523e-06
-6.13826e-06
-6.33016e-06
-6.47488e-06
-6.57624e-06
-6.63788e-06
-6.66324e-06
-6.65573e-06
-6.61821e-06
-6.55416e-06
-6.4659e-06
-6.35616e-06
-6.22764e-06
-6.08264e-06
-5.92335e-06
-5.75188e-06
-5.5702e-06
-5.38012e-06
-5.18335e-06
-4.98148e-06
-4.77596e-06
-4.56815e-06
-4.35927e-06
-4.15047e-06
-3.94275e-06
-3.73705e-06
-3.5342e-06
-3.33492e-06
-3.13988e-06
-2.94963e-06
-2.76467e-06
-2.58542e-06
-2.4122e-06
-2.24532e-06
-2.08498e-06
-1.93134e-06
-1.78452e-06
-1.64458e-06
-1.51153e-06
-1.38536e-06
-1.26599e-06
-1.15334e-06
-1.04729e-06
-9.47692e-07
-8.54375e-07
-7.67122e-07
-6.8579e-07
-6.10018e-07
-5.39872e-07
-4.74489e-07
-4.14879e-07
-3.58274e-07
-3.09297e-07
-2.58435e-07
-2.22568e-07
-1.70465e-07
-1.56472e-07
-8.66094e-08
-1.1728e-07
6.319e-09
-1.17388e-07
1.27134e-07
-1.72752e-07
2.93108e-07
-2.89821e-07
5.00449e-07
-4.40368e-07
6.97349e-07
-5.39787e-07
7.77157e-07
-4.65918e-07
6.31137e-07
-1.4735e-07
2.62372e-07
3.18107e-07
-1.25262e-07
6.37479e-07
-1.94054e-07
4.80557e-07
2.94347e-07
4.96688e-05
4.74979e-05
4.51623e-05
4.27152e-05
4.01928e-05
3.76261e-05
3.5044e-05
3.24707e-05
2.99266e-05
2.74289e-05
2.49919e-05
2.26274e-05
2.03446e-05
1.81509e-05
1.6052e-05
1.40518e-05
1.2153e-05
1.03572e-05
8.66485e-06
7.07577e-06
5.58898e-06
4.20304e-06
2.91605e-06
1.7258e-06
6.29817e-07
-3.7458e-07
-1.29025e-06
-2.12025e-06
-2.86777e-06
-3.53621e-06
-4.12909e-06
-4.6501e-06
-5.10302e-06
-5.49174e-06
-5.82015e-06
-6.09218e-06
-6.31171e-06
-6.48255e-06
-6.60841e-06
-6.69288e-06
-6.73941e-06
-6.75127e-06
-6.73171e-06
-6.68346e-06
-6.60987e-06
-6.51315e-06
-6.39591e-06
-6.26078e-06
-6.10997e-06
-5.94559e-06
-5.76967e-06
-5.58412e-06
-5.39069e-06
-5.19103e-06
-4.98669e-06
-4.77907e-06
-4.56949e-06
-4.35913e-06
-4.1491e-06
-3.94038e-06
-3.73388e-06
-3.53039e-06
-3.33063e-06
-3.13523e-06
-2.94475e-06
-2.75964e-06
-2.58031e-06
-2.4071e-06
-2.24027e-06
-2.08003e-06
-1.92654e-06
-1.77989e-06
-1.64014e-06
-1.5073e-06
-1.38134e-06
-1.26221e-06
-1.14979e-06
-1.04397e-06
-9.44596e-07
-8.51501e-07
-7.64466e-07
-6.83342e-07
-6.07772e-07
-5.37815e-07
-4.72616e-07
-4.13171e-07
-3.56738e-07
-3.07894e-07
-2.57201e-07
-2.21414e-07
-1.69515e-07
-1.55503e-07
-8.59419e-08
-1.16409e-07
6.67844e-09
-1.16517e-07
1.27144e-07
-1.71796e-07
2.92767e-07
-2.88772e-07
4.99857e-07
-4.39361e-07
6.96748e-07
-5.39086e-07
7.76863e-07
-4.65772e-07
6.31352e-07
-1.47806e-07
2.63065e-07
3.17273e-07
-1.24239e-07
6.36405e-07
-1.92325e-07
4.78592e-07
2.96761e-07
4.1795e-05
4.02582e-05
3.85165e-05
3.66197e-05
3.46074e-05
3.25137e-05
3.03688e-05
2.81991e-05
2.60272e-05
2.38721e-05
2.17503e-05
1.96753e-05
1.76583e-05
1.57085e-05
1.38331e-05
1.20377e-05
1.03265e-05
8.7025e-06
7.16745e-06
5.72229e-06
4.36717e-06
3.10162e-06
1.92461e-06
8.3475e-07
-1.69738e-07
-1.09089e-06
-1.93097e-06
-2.69247e-06
-3.37807e-06
-3.99065e-06
-4.53324e-06
-5.00904e-06
-5.42137e-06
-5.77367e-06
-6.06943e-06
-6.31218e-06
-6.50547e-06
-6.65279e-06
-6.75757e-06
-6.82317e-06
-6.85282e-06
-6.84958e-06
-6.81655e-06
-6.7563e-06
-6.67205e-06
-6.56585e-06
-6.44024e-06
-6.29772e-06
-6.14041e-06
-5.97033e-06
-5.78944e-06
-5.59956e-06
-5.40239e-06
-5.19951e-06
-4.99241e-06
-4.78244e-06
-4.57087e-06
-4.35886e-06
-4.14746e-06
-3.93762e-06
-3.73022e-06
-3.52603e-06
-3.32574e-06
-3.12995e-06
-2.93919e-06
-2.75392e-06
-2.57453e-06
-2.40132e-06
-2.23455e-06
-2.07443e-06
-1.9211e-06
-1.77464e-06
-1.63511e-06
-1.50251e-06
-1.37681e-06
-1.25793e-06
-1.14577e-06
-1.04021e-06
-9.41096e-07
-8.48254e-07
-7.61464e-07
-6.80577e-07
-6.05235e-07
-5.35493e-07
-4.705e-07
-4.11244e-07
-3.55001e-07
-3.06312e-07
-2.55803e-07
-2.20122e-07
-1.68426e-07
-1.54434e-07
-8.51482e-08
-1.15486e-07
7.17232e-09
-1.15659e-07
1.27329e-07
-1.70946e-07
2.92676e-07
-2.87952e-07
4.99619e-07
-4.38714e-07
6.96599e-07
-5.38837e-07
7.77053e-07
-4.66073e-07
6.3197e-07
-1.48581e-07
2.63986e-07
3.16297e-07
-1.23123e-07
6.35249e-07
-1.90393e-07
4.76301e-07
2.99782e-07
3.3462e-05
3.25718e-05
3.14401e-05
3.0114e-05
2.86337e-05
2.70349e-05
2.53494e-05
2.36053e-05
2.1827e-05
2.00354e-05
1.82487e-05
1.64825e-05
1.47496e-05
1.30609e-05
1.14254e-05
9.85026e-06
8.34113e-06
6.90237e-06
5.53712e-06
4.24753e-06
3.03487e-06
1.89968e-06
8.41876e-07
-1.39115e-07
-1.0443e-06
-1.87502e-06
-2.63292e-06
-3.31988e-06
-3.93801e-06
-4.48964e-06
-4.97729e-06
-5.40363e-06
-5.7715e-06
-6.08386e-06
-6.34376e-06
-6.55434e-06
-6.71876e-06
-6.84019e-06
-6.92178e-06
-6.96659e-06
-6.97764e-06
-6.95778e-06
-6.9099e-06
-6.83643e-06
-6.74042e-06
-6.6238e-06
-6.48895e-06
-6.33829e-06
-6.17382e-06
-5.99747e-06
-5.81109e-06
-5.61644e-06
-5.41514e-06
-5.20871e-06
-4.99857e-06
-4.78602e-06
-4.57227e-06
-4.35843e-06
-4.14552e-06
-3.93446e-06
-3.72607e-06
-3.52111e-06
-3.32023e-06
-3.12401e-06
-2.93296e-06
-2.74752e-06
-2.56805e-06
-2.39485e-06
-2.22817e-06
-2.06818e-06
-1.91503e-06
-1.76879e-06
-1.62951e-06
-1.49717e-06
-1.37174e-06
-1.25315e-06
-1.14129e-06
-1.03602e-06
-9.37195e-07
-8.44635e-07
-7.58119e-07
-6.77496e-07
-6.02407e-07
-5.32905e-07
-4.68143e-07
-4.09098e-07
-3.53066e-07
-3.04552e-07
-2.54244e-07
-2.18685e-07
-1.67209e-07
-1.53249e-07
-8.42566e-08
-1.14467e-07
7.73403e-09
-1.14716e-07
1.27547e-07
-1.70011e-07
2.92581e-07
-2.87036e-07
4.99339e-07
-4.37964e-07
6.96388e-07
-5.38504e-07
7.77205e-07
-4.66357e-07
6.3263e-07
-1.49456e-07
2.65074e-07
3.15084e-07
-1.21693e-07
6.33722e-07
-1.87978e-07
4.73506e-07
3.03512e-07
2.4748e-05
2.45168e-05
2.40076e-05
2.32659e-05
2.23326e-05
2.12445e-05
2.00347e-05
1.87328e-05
1.73646e-05
1.5953e-05
1.45177e-05
1.30759e-05
1.16422e-05
1.02293e-05
8.8476e-06
7.50586e-06
6.21125e-06
4.96949e-06
3.78506e-06
2.66133e-06
1.60072e-06
6.04793e-07
-3.25551e-07
-1.19003e-06
-1.98885e-06
-2.72263e-06
-3.39233e-06
-3.9992e-06
-4.54476e-06
-5.03075e-06
-5.45913e-06
-5.83205e-06
-6.15182e-06
-6.42092e-06
-6.64194e-06
-6.8176e-06
-6.95067e-06
-7.04397e-06
-7.10032e-06
-7.12253e-06
-7.11333e-06
-7.07538e-06
-7.01136e-06
-6.92349e-06
-6.81469e-06
-6.68671e-06
-6.54182e-06
-6.38229e-06
-6.21002e-06
-6.02683e-06
-5.83449e-06
-5.63465e-06
-5.42886e-06
-5.21856e-06
-5.0051e-06
-4.78974e-06
-4.57361e-06
-4.3578e-06
-4.14325e-06
-3.93085e-06
-3.7214e-06
-3.5156e-06
-3.31408e-06
-3.11741e-06
-2.92605e-06
-2.74043e-06
-2.56088e-06
-2.3877e-06
-2.2211e-06