/*--------------------------------*- C++ -*----------------------------------*\
| =========                 |                                                 |
| \\      /  F ield         | OpenFOAM: The Open Source CFD Toolbox           |
|  \\    /   O peration     | Version:  2412                                  |
|   \\  /    A nd           | Website:  www.openfoam.com                      |
|    \\/     M anipulation  |                                                 |
\*---------------------------------------------------------------------------*/
FoamFile
{
    version     2.0;
    format      ascii;
    arch        "LSB;label=32;scalar=64";
    class       surfaceScalarField;
    location    "17";
    object      phi;
}
// * * * * * * * * * * * * * * * * * * * * * * * * * * * * * * * * * * * * * //

dimensions      [0 3 -1 0 0 0 0];

oriented        oriented;

internalField   nonuniform List<scalar> 
126304
(
0.00505063
1.28411e-07
-1.85792e-13
0.00505025
3.75557e-07
2.52928e-11
0.00504965
6.06402e-07
6.81133e-11
0.00504883
8.21183e-07
1.24868e-10
0.00504778
1.04169e-06
1.6387e-10
0.00504647
1.31733e-06
1.10212e-10
0.00504476
1.70347e-06
-1.22116e-10
0.00504254
2.22431e-06
-5.67275e-10
0.00503969
2.84885e-06
-1.16299e-09
0.0050362
3.49732e-06
-1.75944e-09
0.00503213
4.07256e-06
-2.17547e-09
0.00502763
4.49629e-06
-2.26693e-09
0.0050229
4.7322e-06
-1.97286e-09
0.00501811
4.78908e-06
-1.32439e-09
0.00501341
4.70852e-06
-4.21182e-10
0.00500886
4.54627e-06
6.07243e-10
0.0050045
4.35586e-06
1.6376e-09
0.00500032
4.17837e-06
2.57566e-09
0.00499628
4.03905e-06
3.36471e-09
0.00499232
3.94879e-06
3.98316e-09
0.00498841
3.90803e-06
4.43593e-09
0.0049845
3.91101e-06
4.7441e-09
0.00498054
3.94939e-06
4.93557e-09
0.00497652
4.01466e-06
5.03846e-09
0.00497242
4.09942e-06
5.07758e-09
0.00496821
4.19795e-06
5.07284e-09
0.0049639
4.30614e-06
5.03895e-09
0.00495948
4.4213e-06
4.98608e-09
0.00495493
4.54177e-06
4.9209e-09
0.00495026
4.66664e-06
4.84745e-09
0.00494546
4.79549e-06
4.76819e-09
0.00494053
4.92818e-06
4.68426e-09
0.00493546
5.06472e-06
4.59621e-09
0.00493025
5.20522e-06
4.50422e-09
0.00492489
5.34979e-06
4.40836e-09
0.00491939
5.49856e-06
4.30867e-09
0.00491373
5.65165e-06
4.2052e-09
0.00490792
5.80913e-06
4.09799e-09
0.00490195
5.9711e-06
3.9871e-09
0.0048958
6.13762e-06
3.87261e-09
0.00488949
6.30873e-06
3.75452e-09
0.004883
6.48449e-06
3.63301e-09
0.00487634
6.66494e-06
3.50831e-09
0.00486948
6.85012e-06
3.38066e-09
0.00486244
7.04006e-06
3.25027e-09
0.0048552
7.23481e-06
3.11742e-09
0.00484776
7.4344e-06
2.98247e-09
0.00484012
7.63891e-06
2.84583e-09
0.00483227
7.84838e-06
2.70786e-09
0.0048242
8.06293e-06
2.5688e-09
0.00481592
8.28269e-06
2.42896e-09
0.00480741
8.50797e-06
2.28864e-09
0.00479867
8.73958e-06
2.14831e-09
0.00478969
8.97981e-06
2.00832e-09
9.23521e-06
0.00478045
1.86906e-09
0.00505063
2.56734e-07
0.00505025
7.50859e-07
0.00504965
1.21248e-06
0.00504883
1.64202e-06
0.00504779
2.08273e-06
0.00504647
2.6328e-06
0.00504477
3.40248e-06
0.00504256
4.4403e-06
0.00503972
5.68504e-06
0.00503624
6.9784e-06
0.00503218
8.12711e-06
0.0050277
8.97516e-06
0.00502299
9.44977e-06
0.00501821
9.56787e-06
0.0050135
9.41169e-06
0.00500896
9.09197e-06
0.0050046
8.7151e-06
0.00500042
8.36297e-06
0.00499637
8.08604e-06
0.00499241
7.90624e-06
0.00498849
7.82464e-06
0.00498458
7.82999e-06
0.00498062
7.90583e-06
0.0049766
8.03527e-06
0.00497249
8.20369e-06
0.00496829
8.39965e-06
0.00496398
8.61503e-06
0.00495956
8.8444e-06
0.00495502
9.08449e-06
0.00495035
9.33345e-06
0.00494556
9.59041e-06
0.00494063
9.85509e-06
0.00493557
1.01275e-05
0.00493036
1.04078e-05
0.00492502
1.06963e-05
0.00491952
1.09932e-05
0.00491388
1.12987e-05
0.00490807
1.16129e-05
0.00490211
1.19362e-05
0.00489598
1.22684e-05
0.00488967
1.26098e-05
0.0048832
1.29605e-05
0.00487654
1.33205e-05
0.0048697
1.36899e-05
0.00486267
1.40688e-05
0.00485545
1.44573e-05
0.00484803
1.48553e-05
0.00484041
1.52632e-05
0.00483257
1.56809e-05
0.00482453
1.61086e-05
0.00481626
1.65467e-05
0.00480778
1.69957e-05
0.00479906
1.74571e-05
0.0047901
1.79354e-05
1.84428e-05
0.0047809
0.00505063
3.8488e-07
0.00505025
1.1256e-06
0.00504965
1.81778e-06
0.00504883
2.46192e-06
0.00504779
3.12214e-06
0.00504648
3.94438e-06
0.00504479
5.09298e-06
0.00504259
6.64106e-06
0.00503977
8.49869e-06
0.00503632
1.04311e-05
0.0050323
1.21506e-05
0.00502785
1.34242e-05
0.00502316
1.41424e-05
0.00501839
1.43289e-05
0.0050137
1.41051e-05
0.00500916
1.36352e-05
0.0050048
1.30776e-05
0.0050006
1.25546e-05
0.00499655
1.21419e-05
0.00499258
1.18727e-05
0.00498866
1.17492e-05
0.00498473
1.17552e-05
0.00498077
1.18662e-05
0.00497675
1.20575e-05
0.00497265
1.23073e-05
0.00496845
1.25986e-05
0.00496414
1.29192e-05
0.00495973
1.32611e-05
0.00495519
1.36192e-05
0.00495053
1.39909e-05
0.00494575
1.43747e-05
0.00494083
1.47701e-05
0.00493578
1.51772e-05
0.0049306
1.55963e-05
0.00492526
1.60276e-05
0.00491979
1.64714e-05
0.00491416
1.69281e-05
0.00490837
1.7398e-05
0.00490243
1.78812e-05
0.00489632
1.83779e-05
0.00489004
1.88882e-05
0.00488359
1.94124e-05
0.00487696
1.99504e-05
0.00487014
2.05024e-05
0.00486314
2.10686e-05
0.00485595
2.16489e-05
0.00484857
2.22435e-05
0.00484098
2.28525e-05
0.00483318
2.34762e-05
0.00482517
2.41148e-05
0.00481695
2.47685e-05
0.00480851
2.54384e-05
0.00479984
2.61264e-05
0.00479094
2.68387e-05
2.75927e-05
0.00478179
0.00505063
5.12765e-07
0.00505026
1.4995e-06
0.00504965
2.4219e-06
0.00504883
3.2804e-06
0.0050478
4.15913e-06
0.00504649
5.25025e-06
0.00504481
6.77108e-06
0.00504263
8.81971e-06
0.00503985
1.12796e-05
0.00503644
1.38424e-05
0.00503246
1.61288e-05
0.00502806
1.783e-05
0.0050234
1.87987e-05
0.00501867
1.90639e-05
0.00501399
1.87839e-05
0.00500945
1.81744e-05
0.00500508
1.74444e-05
0.00500088
1.6756e-05
0.00499681
1.62101e-05
0.00499283
1.58519e-05
0.0049889
1.56851e-05
0.00498496
1.56889e-05
0.004981
1.58321e-05
0.00497697
1.60819e-05
0.00497287
1.64097e-05
0.00496868
1.67932e-05
0.00496438
1.72162e-05
0.00495997
1.7668e-05
0.00495545
1.81419e-05
0.00495081
1.86341e-05
0.00494604
1.91428e-05
0.00494114
1.96673e-05
0.00493611
2.02074e-05
0.00493094
2.07635e-05
0.00492563
2.13359e-05
0.00492018
2.1925e-05
0.00491458
2.25313e-05
0.00490882
2.31549e-05
0.00490291
2.37962e-05
0.00489683
2.44554e-05
0.00489058
2.51327e-05
0.00488417
2.58282e-05
0.00487758
2.6542e-05
0.0048708
2.72742e-05
0.00486385
2.8025e-05
0.0048567
2.87944e-05
0.00484936
2.95827e-05
0.00484183
3.03899e-05
0.00483409
3.12162e-05
0.00482614
3.2062e-05
0.00481798
3.29277e-05
0.0048096
3.38141e-05
0.00480101
3.47239e-05
0.00479218
3.56641e-05
3.66552e-05
0.00478312
0.00505063
6.40306e-07
0.00505026
1.87228e-06
0.00504965
3.02445e-06
0.00504884
4.09697e-06
0.0050478
5.1929e-06
0.00504651
6.54873e-06
0.00504484
8.4333e-06
0.00504269
1.09701e-05
0.00503995
1.40188e-05
0.00503659
1.72011e-05
0.00503267
2.00494e-05
0.00502832
2.21801e-05
0.00502371
2.34082e-05
0.00501901
2.37653e-05
0.00501435
2.34436e-05
0.00500982
2.27079e-05
0.00500545
2.18161e-05
0.00500124
2.09692e-05
0.00499715
2.02936e-05
0.00499316
1.98466e-05
0.00498921
1.96345e-05
0.00498526
1.96331e-05
0.00498129
1.98042e-05
0.00497727
2.01081e-05
0.00497317
2.05097e-05
0.00496898
2.09814e-05
0.00496469
2.15032e-05
0.0049603
2.20617e-05
0.00495579
2.26484e-05
0.00495117
2.32585e-05
0.00494642
2.38896e-05
0.00494155
2.45407e-05
0.00493654
2.52115e-05
0.0049314
2.59024e-05
0.00492612
2.66138e-05
0.0049207
2.7346e-05
0.00491514
2.80994e-05
0.00490942
2.88745e-05
0.00490354
2.96715e-05
0.00489751
3.04907e-05
0.00489131
3.13321e-05
0.00488494
3.21961e-05
0.0048784
3.30826e-05
0.00487168
3.39919e-05
0.00486478
3.4924e-05
0.0048577
3.5879e-05
0.00485042
3.6857e-05
0.00484295
3.78583e-05
0.00483529
3.8883e-05
0.00482742
3.99314e-05
0.00481934
4.10039e-05
0.00481105
4.21014e-05
0.00480255
4.32266e-05
0.00479383
4.43866e-05
4.56028e-05
0.00478488
0.00505063
7.67425e-07
0.00505026
2.24365e-06
0.00504966
3.62503e-06
0.00504884
4.9111e-06
0.00504781
6.2227e-06
0.00504652
7.83833e-06
0.00504488
1.00767e-05
0.00504276
1.30872e-05
0.00504007
1.67087e-05
0.00503678
2.04977e-05
0.00503293
2.39017e-05
0.00502864
2.64645e-05
0.00502409
2.7962e-05
0.00501943
2.84261e-05
0.00501479
2.80797e-05
0.00501026
2.72335e-05
0.00500589
2.61923e-05
0.00500166
2.51952e-05
0.00499756
2.43938e-05
0.00499355
2.38585e-05
0.00498959
2.35991e-05
0.00498563
2.35883e-05
0.00498165
2.37826e-05
0.00497762
2.41355e-05
0.00497353
2.46059e-05
0.00496935
2.5161e-05
0.00496507
2.57772e-05
0.0049607
2.64384e-05
0.00495621
2.71343e-05
0.00495161
2.7859e-05
0.00494689
2.86095e-05
0.00494205
2.93843e-05
0.00493708
3.01832e-05
0.00493197
3.10062e-05
0.00492673
3.18537e-05
0.00492135
3.27262e-05
0.00491583
3.36241e-05
0.00491015
3.45478e-05
0.00490433
3.54974e-05
0.00489835
3.64734e-05
0.0048922
3.74757e-05
0.00488589
3.85046e-05
0.00487942
3.95602e-05
0.00487277
4.06426e-05
0.00486594
4.17518e-05
0.00485893
4.2888e-05
0.00485173
4.40512e-05
0.00484435
4.52416e-05
0.00483678
4.64593e-05
0.004829
4.77045e-05
0.00482103
4.89777e-05
0.00481285
5.02796e-05
0.00480446
5.16124e-05
0.00479587
5.29826e-05
5.44092e-05
0.00478706
0.00505063
8.93999e-07
0.00505026
2.6134e-06
0.00504966
4.22322e-06
0.00504885
5.72228e-06
0.00504783
7.24776e-06
0.00504655
9.11774e-06
0.00504492
1.16988e-05
0.00504284
1.51671e-05
0.00504021
1.93436e-05
0.00503698
2.37248e-05
0.00503321
2.76776e-05
0.005029
3.06748e-05
0.00502451
3.24528e-05
0.00501989
3.30406e-05
0.00501528
3.26881e-05
0.00501077
3.17488e-05
0.00500639
3.05719e-05
0.00500215
2.94337e-05
0.00499803
2.85111e-05
0.004994
2.78881e-05
0.00499002
2.75788e-05
0.00498606
2.75545e-05
0.00498207
2.77666e-05
0.00497805
2.81627e-05
0.00497396
2.8696e-05
0.00496979
2.93293e-05
0.00496553
3.00349e-05
0.00496117
3.07942e-05
0.00495671
3.15952e-05
0.00495214
3.24308e-05
0.00494745
3.32971e-05
0.00494265
3.41924e-05
0.00493771
3.5116e-05
0.00493265
3.60679e-05
0.00492746
3.70484e-05
0.00492212
3.8058e-05
0.00491665
3.9097e-05
0.00491103
4.01658e-05
0.00490527
4.12645e-05
0.00489935
4.23935e-05
0.00489327
4.35528e-05
0.00488703
4.47425e-05
0.00488063
4.59627e-05
0.00487406
4.72136e-05
0.00486731
4.8495e-05
0.0048604
4.98072e-05
0.0048533
5.11501e-05
0.00484601
5.25237e-05
0.00483855
5.39283e-05
0.00483089
5.53638e-05
0.00482303
5.68305e-05
0.00481498
5.83291e-05
0.00480674
5.98608e-05
0.00479829
6.14297e-05
0.00478965
6.30466e-05
0.00478122
-7.75511e-07
1.73955e-09
0.00478148
-2.57331e-07
1.63066e-09
0.00478118
2.95727e-07
1.50699e-09
0.0047803
8.84504e-07
1.38793e-09
0.00477878
1.51489e-06
1.26026e-09
0.00477659
2.18944e-06
1.12509e-09
0.00477368
2.91211e-06
9.83062e-10
0.00476999
3.6873e-06
8.34099e-10
0.00476547
4.51987e-06
6.78137e-10
0.00476005
5.41525e-06
5.1519e-10
0.00475367
6.37941e-06
3.45532e-10
0.00474625
7.419e-06
1.69391e-10
0.00473771
8.54139e-06
-1.26928e-11
0.00472796
9.75478e-06
-2.00218e-10
0.00471689
1.10683e-05
-3.92976e-10
0.0047044
1.24923e-05
-5.93455e-10
0.00469036
1.40383e-05
-7.99579e-10
0.00467464
1.572e-05
-1.00119e-09
0.00465709
1.75524e-05
-1.1931e-09
0.00463754
1.95533e-05
-1.3768e-09
0.0046158
2.17431e-05
-1.55359e-09
0.00459165
2.41457e-05
-1.72351e-09
0.00456486
2.67893e-05
-1.88119e-09
0.00453516
2.97073e-05
-2.0248e-09
0.00450222
3.2939e-05
-2.15401e-09
0.00446569
3.65314e-05
-2.26849e-09
0.00442515
4.05403e-05
-2.36822e-09
0.00438012
4.50323e-05
-2.45446e-09
0.00433004
5.00875e-05
-2.5284e-09
0.00427424
5.58018e-05
-2.59157e-09
0.00421195
6.22917e-05
-2.64618e-09
0.00414226
6.96979e-05
-2.69407e-09
0.00406407
7.81925e-05
-2.73716e-09
0.00397608
8.79855e-05
-2.77728e-09
0.00387675
9.93334e-05
-2.81574e-09
0.00376421
0.000112548
-2.85362e-09
0.00363621
0.000128002
-2.89176e-09
0.00349008
0.000146133
-2.93024e-09
0.00332266
0.000167422
-2.96893e-09
0.0031303
0.00019236
-3.00827e-09
0.00290896
0.000221345
-3.04914e-09
0.00265446
0.000254509
-3.09257e-09
0.00236305
0.000291411
-3.14041e-09
0.0020325
0.00033055
-3.19332e-09
0.00166388
0.000368623
-3.24581e-09
0.0012644
0.000399488
-3.27834e-09
0.000851575
0.000412824
-3.2396e-09
0.000459117
0.000392461
-3.02149e-09
0.000145317
0.000313802
-2.4342e-09
0.000145318
-1.189e-09
0.0047803
-1.80238e-07
0.00477919
8.53071e-07
0.00477753
1.95565e-06
0.00477528
3.1328e-06
0.00477241
4.39122e-06
0.00476886
5.73792e-06
0.00476459
7.1808e-06
0.00475955
8.72869e-06
0.00475368
1.03914e-05
0.00474691
1.21796e-05
0.00473919
1.41055e-05
0.00473042
1.61824e-05
0.00472054
1.84249e-05
0.00470944
2.08495e-05
0.00469704
2.34746e-05
0.00468321
2.63207e-05
0.00466784
2.94113e-05
0.00465078
3.27733e-05
0.0046319
3.64375e-05
0.00461101
4.0439e-05
0.00458794
4.48189e-05
0.00456246
4.96252e-05
0.00453433
5.49145e-05
0.00450329
6.07535e-05
0.004469
6.72212e-05
0.00443112
7.44114e-05
0.00438923
8.24359e-05
0.00434283
9.14279e-05
0.00429137
0.000101547
0.00423419
0.000112985
0.00417051
0.000125974
0.00409941
0.000140795
0.00401981
0.000157788
0.00393043
0.000177371
0.00382971
0.00020005
0.00371582
0.000226442
0.00358654
0.000257281
0.00343925
0.000293421
0.00327087
0.000335803
0.00307786
0.000385369
0.00285634
0.000442871
0.00260233
0.000508514
0.00231239
0.000581353
0.00198461
0.000658325
0.00162042
0.000732812
0.00122732
0.00079259
0.00082298
0.000817166
0.000440759
0.000774682
0.00013685
0.000617712
0.000282168
0.00477848
3.13179e-06
0.00477465
4.67766e-06
0.00477028
6.32641e-06
0.00476533
8.08693e-06
0.00475975
9.96884e-06
0.0047535
1.19829e-05
0.00474654
1.41411e-05
0.00473881
1.64568e-05
0.00473026
1.89447e-05
0.00472082
2.1621e-05
0.00471042
2.45039e-05
0.00469899
2.76132e-05
0.00468644
3.09713e-05
0.00467269
3.46029e-05
0.00465763
3.85355e-05
0.00464115
4.28001e-05
0.00462313
4.7432e-05
0.00460343
5.24719e-05
0.0045819
5.79659e-05
0.00455837
6.39672e-05
0.00453266
7.05375e-05
0.00450453
7.77491e-05
0.00447376
8.56874e-05
0.00444006
9.44526e-05
0.00440312
0.000104164
0.00436257
0.000114961
0.00431799
0.000127013
0.0042689
0.00014052
0.00421473
0.000155719
0.00415481
0.000172899
0.00408838
0.000192403
0.00401453
0.000214651
0.00393217
0.000240148
0.00384003
0.000269511
0.00373659
0.000303487
0.00362005
0.000342978
0.00348828
0.000389054
0.00333875
0.00044295
0.00316854
0.000506013
0.00297435
0.000579564
0.00275261
0.00066461
0.00249981
0.000761314
0.00221307
0.000868097
0.00189115
0.000980238
0.00153617
0.00108779
0.0011561
0.00117267
0.000768638
0.00120462
0.000406693
0.00113663
0.000123855
0.000900549
0.000406023
0.00477577
1.04776e-05
0.00476792
1.25292e-05
0.00475953
1.47173e-05
0.00475056
1.70536e-05
0.00474098
1.95513e-05
0.00473074
2.22249e-05
0.00471979
2.50905e-05
0.00470808
2.8166e-05
0.00469555
3.14711e-05
0.00468215
3.50275e-05
0.00466779
3.88594e-05
0.00465241
4.29936e-05
0.00463592
4.74597e-05
0.00461824
5.22908e-05
0.00459925
5.75238e-05
0.00457885
6.32001e-05
0.00455691
6.93672e-05
0.0045333
7.60795e-05
0.00450787
8.33989e-05
0.00448044
9.13966e-05
0.00445082
0.000100155
0.0044188
0.000109772
0.00438413
0.000120362
0.00434652
0.000132058
0.00430567
0.000145019
0.00426119
0.000159435
0.00421268
0.000175528
0.00415963
0.000193565
0.00410149
0.000213864
0.00403758
0.000236804
0.00396714
0.000262844
0.00388926
0.000292532
0.00380288
0.000326533
0.00370673
0.000365653
0.00359936
0.000410861
0.00347902
0.00046332
0.00334367
0.000524396
0.00319098
0.000595646
0.00301825
0.000678738
0.00282256
0.000775257
0.00260085
0.000886315
0.00235032
0.00101185
0.00206895
0.00114947
0.00175653
0.00129265
0.00141614
0.00142819
0.00105627
0.00153253
0.000694195
0.0015667
0.000360952
0.00146987
0.000105395
0.00115611
0.000511418
0.00477224
2.31203e-05
0.0047591
2.56671e-05
0.00474543
2.83832e-05
0.0047312
3.1284e-05
0.00471637
3.43861e-05
0.00470089
3.77077e-05
0.00468471
4.12693e-05
0.00466778
4.5093e-05
0.00465005
4.92038e-05
0.00463145
5.36287e-05
0.00461191
5.83982e-05
0.00459136
6.35456e-05
0.00456971
6.91081e-05
0.00454687
7.51273e-05
0.00452274
8.16495e-05
0.00449722
8.87268e-05
0.00447017
9.64187e-05
0.00444145
0.000104794
0.00441092
0.00011393
0.0043784
0.000123916
0.0043437
0.000134857
0.0043066
0.000146876
0.00426684
0.000160114
0.00422416
0.000174742
0.00417822
0.000190958
0.00412866
0.000208999
0.00407504
0.000229145
0.00401688
0.000251727
0.0039536
0.000277141
0.00388454
0.00030586
0.00380894
0.000338448
0.00372589
0.000375581
0.00363435
0.000418075
0.0035331
0.000466905
0.00342072
0.00052324
0.00329557
0.000588465
0.00315578
0.000664186
0.00299923
0.000752197
0.0028236
0.000854367
0.00262648
0.00097238
0.00240556
0.00110724
0.002159
0.0012584
0.00188607
0.0014224
0.00158794
0.00159078
0.00126895
0.00174718
0.000938138
0.00186335
0.00061145
0.00189339
0.000315023
0.0017663
8.72199e-05
0.00138391
0.000598638
0.00476793
4.22531e-05
0.00474832
4.52781e-05
0.0047282
4.85063e-05
0.00470752
5.19556e-05
0.00468626
5.56464e-05
0.00466437
5.96006e-05
0.0046418
6.38427e-05
0.00461849
6.83994e-05
0.00459439
7.33002e-05
0.00456944
7.85781e-05
0.00454357
8.42693e-05
0.00451671
9.0414e-05
0.00448876
9.7057e-05
0.00445964
0.000104248
0.00442924
0.000112044
0.00439746
0.000120506
0.00436417
0.000129707
0.00432924
0.00013973
0.0042925
0.000150669
0.00425378
0.000162632
0.00421289
0.000175745
0.00416961
0.000190155
0.00412369
0.000206037
0.00407484
0.000223594
0.00402273
0.000243066
0.00396699
0.000264738
0.00390719
0.000288946
0.00384283
0.000316088
0.00377333
0.000346637
0.00369804
0.000381153
0.00361618
0.000420307
0.00352687
0.000464895
0.00342908
0.000515867
0.00332163
0.000574351
0.00320319
0.000641682
0.00307224
0.000719411
0.00292713
0.0008093
0.00276607
0.000913253
0.00258729
0.00103316
0.00238913
0.00117053
0.00217042
0.00132595
0.00193083
0.00149799
0.00167151
0.00168172
0.00139582
0.00186647
0.00111
0.002033
0.000823913
0.00214944
0.000551213
0.00216609
0.00030798
0.00200953
0.000106352
0.00158554
0.00070499
0.00476293
6.89756e-05
0.00473575
7.2454e-05
0.00470809
7.6172e-05
0.00467989
8.01489e-05
0.00465113
8.44076e-05
0.00462176
8.89737e-05
0.00459173
9.38753e-05
0.00456098
9.91433e-05
0.00452947
0.000104812
0.00449713
0.00011092
0.00446389
0.00011751
0.00442967
0.000124628
0.00439441
0.000132326
0.00435799
0.000140664
0.00432033
0.000149706
0.00428131
0.000159527
0.0042408
0.00017021
0.00419868
0.000181853
0.00415479
0.000194566
0.00410894
0.000208476
0.00406095
0.000223733
0.0040106
0.000240509
0.00395763
0.000259008
0.00390175
0.000279469
0.00384264
0.000302175
0.00377993
0.000327458
0.00371316
0.00035571
0.00364185
0.000387397
0.00356542
0.000423067
0.00348321
0.000463368
0.00339444
0.000509072
0.00329825
0.000561088
0.00319363
0.00062049
0.00307944
0.00068854
0.00295442
0.000766703
0.00281718
0.000856643
0.0026663
0.000960188
0.00250034
0.00107921
0.00231811
0.00121539
0.00211887
0.00136977
0.00190279
0.00154203
0.00167148
0.0017293
0.00142869
0.00192451
0.001181
0.00211416
0.000938323
0.00227567
0.000713484
0.00237427
0.000519638
0.00235993
0.000361297
0.00216787
0.000218711
0.00172812
0.000923701
-3.06651e-05
3.06658e-05
-6.72622e-10
-8.61831e-05
5.55194e-05
-1.4949e-09
-0.000144314
5.81332e-05
-1.965e-09
-0.00019204
4.77281e-05
-2.19718e-09
-0.000222143
3.01053e-05
-2.24383e-09
-0.000230834
8.69256e-06
-2.1273e-09
-0.000217148
-1.36839e-05
-1.80317e-09
-0.000181156
-3.59903e-05
-1.35951e-09
-0.000123675
-5.7481e-05
-7.73239e-10
-4.60643e-05
-7.76102e-05
-6.89557e-11
4.99934e-05
-9.60585e-05
7.92852e-10
0.000162458
-0.000112466
1.75915e-09
0.000289356
-0.000126901
2.77414e-09
0.000428664
-0.000139312
3.78955e-09
0.000578363
-0.000149704
4.75956e-09
0.000736488
-0.00015813
5.64324e-09
0.00090115
-0.000164668
6.41009e-09
0.00107056
-0.000169417
7.04345e-09
0.00124304
-0.000172489
7.53518e-09
0.00141704
-0.00017401
7.90498e-09
0.00159115
-0.000174113
8.1897e-09
0.00176408
-0.000172935
8.33202e-09
0.00193468
-0.000170611
8.52413e-09
0.00210194
-0.000167276
8.99704e-09
0.002265
-0.000163067
9.63083e-09
0.00242311
-0.000158117
1.01805e-08
0.00257565
-0.000152554
1.04841e-08
0.00272214
-0.0001465
1.04814e-08
0.0028622
-0.000140064
1.02238e-08
0.00299554
-0.000133352
9.72991e-09
0.00312199
-0.000126459
9.0196e-09
0.00324145
-0.000119469
8.12483e-09
0.0033539
-0.00011246
7.08512e-09
0.0034594
-0.000105501
5.94781e-09
0.00355804
-9.86484e-05
4.76244e-09
0.00364999
-9.19543e-05
3.57743e-09
0.00373545
-8.54601e-05
2.4354e-09
0.00381465
-7.92e-05
1.37343e-09
0.00388785
-7.32009e-05
4.19725e-10
0.00395533
-6.74829e-05
-4.04464e-10
0.00401739
-6.20598e-05
-1.08492e-09
0.00407433
-5.69401e-05
-1.61383e-09
0.00412646
-5.21272e-05
-1.98905e-09
0.00417409
-4.76203e-05
-2.21423e-09
0.0042175
-4.34148e-05
-2.29629e-09
0.00425701
-3.95031e-05
-2.24578e-09
0.00429288
-3.58749e-05
-2.07591e-09
0.0043254
-3.2518e-05
-1.8006e-09
0.00435482
-2.94181e-05
-1.43336e-09
-2.65598e-05
0.00438139
-9.86376e-10
-2.69053e-05
5.75711e-05
-7.53122e-05
0.000103926
-0.000125411
0.000108232
-0.00016574
8.80572e-05
-0.000189701
5.40658e-05
-0.000193669
1.26602e-05
-0.000176919
-3.04333e-05
-0.000139175
-7.3735e-05
-8.12156e-05
-0.00011544
-3.84941e-06
-0.000154976
9.07657e-05
-0.000190674
0.000201231
-0.000222931
0.000325674
-0.000251345
0.000462181
-0.000275819
0.00060885
-0.000296373
0.000763816
-0.000313096
0.000925274
-0.000326127
0.0010915
-0.000335647
0.00126089
-0.000341872
0.00143192
-0.00034504
0.00160321
-0.000345405
0.00177351
-0.000343231
0.00194168
-0.000338783
0.00210673
-0.000332326
0.00226779
-0.000324124
0.00242411
-0.000314442
0.00257509
-0.000303534
0.00272023
-0.000291636
0.00285913
-0.00027897
0.00299152
-0.000265743
0.00311721
-0.000252143
0.00323608
-0.000238342
0.00334811
-0.000224492
0.00345334
-0.000210729
0.00355186
-0.000197171
0.00364383
-0.000183919
0.00372942
-0.000171056
0.00380888
-0.000158652
0.00388244
-0.00014676
0.00395037
-0.000135421
0.00401298
-0.000124664
0.00407054
-0.000114506
0.00412337
-0.000104954
0.00417176
-9.60063e-05
0.004216
-8.76555e-05
0.00425638
-7.98864e-05
0.00429318
-7.2679e-05
0.00432668
-6.6009e-05
0.00435711
-5.98483e-05
-5.41652e-05
0.00438471
-2.0209e-05
7.77801e-05
-5.44125e-05
0.00013813
-8.91687e-05
0.000142989
-0.000115402
0.00011429
-0.000127823
6.64872e-05
-0.000122807
7.64359e-06
-0.000100557
-5.26834e-05
-5.9573e-05
-0.000114719
-4.72888e-07
-0.00017454
7.50777e-05
-0.000230527
0.000166928
-0.000282524
0.00027342
-0.000329423
0.000392971
-0.000370896
0.000523947
-0.000406795
0.000664676
-0.000437103
0.000813488
-0.000461907
0.000968738
-0.000481377
0.00112884
-0.000495749
0.00129228
-0.00050531
0.00145763
-0.000510389
0.00162356
-0.000511342
0.00178888
-0.000508543
0.00195247
-0.000502375
0.00211336
-0.000493215
0.00227068
-0.000481449
0.0024237
-0.000467462
0.00257179
-0.000451628
0.00271445
-0.000434296
0.00285128
-0.000415795
0.00298197
-0.000396429
0.0031063
-0.000376481
0.00322417
-0.000356205
0.00333551
-0.000335831
0.00344034
-0.000315561
0.00353874
-0.000295573
0.00363084
-0.000276018
0.00371681
-0.000257023
0.00379684
-0.000238691
0.00387119
-0.000221106
0.0039401
-0.00020433
0.00400384
-0.000188406
0.0040627
-0.000173361
0.00411695
-0.000159209
0.00416689
-0.000145947
0.0042128
-0.000133566
0.00425496
-0.000122043
0.00429363
-0.000111349
0.00432907
-0.000101451
0.00436153
-9.23047e-05
-8.38627e-05
0.00439123
-8.25284e-06
8.60329e-05
-2.381e-05
0.000153687
-3.74285e-05
0.000156607
-4.41884e-05
0.00012105
-4.061e-05
6.29088e-05
-2.45417e-05
-8.42462e-06
5.24011e-06
-8.24652e-05
4.91066e-05
-0.000158585
0.000107884
-0.000233318
0.000181523
-0.000304166
0.000268969
-0.000369969
0.000369364
-0.000429818
0.000481615
-0.000483146
0.000604471
-0.000529651
0.000736587
-0.000569218
0.00087656
-0.000601881
0.00102297
-0.00062779
0.00117442
-0.000647193
0.00132952
-0.000660412
0.00148696
-0.000667832
0.0016455
-0.000669882
0.00180398
-0.000667023
0.00196134
-0.000659731
0.00211661
-0.000648489
0.00226895
-0.000633782
0.00241759
-0.000616107
0.00256191
-0.000595949
0.00270138
-0.000573765
0.00283557
-0.000549985
0.00296415
-0.000525011
0.00308689
-0.000499215
0.00320361
-0.000472934
0.00331426
-0.000446475
0.0034188
-0.000420107
0.0035173
-0.000394068
0.00360984
-0.000368561
0.00369658
-0.000343757
0.00377768
-0.000319797
0.00385337
-0.000296793
0.00392387
-0.000274829
0.00398943
-0.000253968
0.00405031
-0.000234247
0.00410679
-0.000215684
0.00415912
-0.000198282
0.00420759
-0.000182028
0.00425244
-0.000166894
0.00429393
-0.000152845
0.00433232
-0.000139836
0.00436782
-0.000127811
-0.000116703
0.00440066
6.94022e-06
7.90927e-05
1.51603e-05
0.000145467
2.70503e-05
0.000144717
4.28844e-05
0.000105216
6.47279e-05
4.10653e-05
9.22179e-05
-3.59147e-05
0.000129221
-0.000119469
0.000176514
-0.000205878
0.000234652
-0.000291455
0.000304182
-0.000373696
0.000385112
-0.0004509
0.000477144
-0.000521851
0.000579715
-0.000585717
0.000692037
-0.000641974
0.000813157
-0.000690338
0.000942
-0.000730724
0.00107741
-0.000763201
0.00121819
-0.000787974
0.00136313
-0.000805353
0.00151104
-0.000815737
0.00166075
-0.00081959
0.00181116
-0.000817433
0.00196124
-0.000809813
0.00211004
-0.000797293
0.00225671
-0.000780448
0.00240047
-0.000759869
0.00254066
-0.000736143
0.00267673
-0.000709831
0.00280821
-0.00068146
0.00293472
-0.000651525
0.00305599
-0.000620487
0.00317183
-0.000588769
0.0032821
-0.000556751
0.00338677
-0.000524773
0.00348584
-0.000493135
0.00357937
-0.000462091
0.00366747
-0.000431861
0.0037503
-0.000402624
0.00382803
-0.000374523
0.00390087
-0.000347669
0.00396904
-0.000322141
0.00403279
-0.00029799
0.00409235
-0.000275244
0.00414797
-0.000253908
0.00419991
-0.000233968
0.00424841
-0.000215395
0.00429371
-0.000198147
0.00433605
-0.000182169
0.00437563
-0.000167394
-0.000153736
0.00441266
2.35132e-05
5.55795e-05
6.00258e-05
0.000108954
0.000100213
0.00010453
0.00014085
6.45792e-05
0.000182229
-3.13268e-07
0.000221502
-7.51876e-05
0.000264603
-0.00016257
0.000312901
-0.000254175
0.000367995
-0.00034655
0.000431142
-0.000436842
0.000503136
-0.000522895
0.000584376
-0.00060309
0.000674899
-0.00067624
0.00077444
-0.000741514
0.000882477
-0.000798376
0.000998293
-0.000846539
0.00112102
-0.000885925
0.00124967
-0.00091663
0.00138322
-0.000938898
0.00152057
-0.000953091
0.00166065
-0.000959673
0.00180241
-0.000959185
0.00194482
-0.000952223
0.00208693
-0.000939408
0.00222787
-0.000921385
0.00236683
-0.000898828
0.0025031
-0.000872418
0.00263608
-0.000842813
0.00276526
-0.000810633
0.0028902
-0.000776467
0.00301058
-0.000740866
0.00312615
-0.000704336
0.00323673
-0.000667337
0.00334224
-0.000630281
0.00344263
-0.00059353
0.00353794
-0.000557398
0.00362823
-0.000522152
0.00371362
-0.000488013
0.00379426
-0.00045516
0.00387032
-0.000423729
0.003942
-0.000393822
0.00400951
-0.000365506
0.00407309
-0.000338818
0.00413295
-0.00031377
0.00418933
-0.000290348
0.00424246
-0.000268523
0.00429256
-0.000248246
0.00433984
-0.000229455
0.00438452
-0.000212075
-0.000196004
0.00442679
4.37471e-05
1.18324e-05
0.000113596
3.91055e-05
0.000182647
3.54783e-05
0.000248386
-1.15987e-06
0.000300834
-5.27606e-05
0.000350153
-0.000124507
0.000396415
-0.000208833
0.000442884
-0.000300644
0.000492179
-0.000395845
0.000546433
-0.000491096
0.000607253
-0.000583715
0.000675739
-0.000671576
0.000752532
-0.000753034
0.000837875
-0.000826856
0.000931669
-0.00089217
0.00103354
-0.000948409
0.00114288
-0.000995271
0.00125894
-0.00103268
0.0013808
-0.00106076
0.0015075
-0.00107979
0.00163802
-0.00109019
0.00177132
-0.00109249
0.0019064
-0.0010873
0.00204227
-0.00107528
0.00217803
-0.00105715
0.00231283
-0.00103362
0.00244589
-0.00100548
0.00257656
-0.000973478
0.00270425
-0.000938319
0.00282847
-0.000900689
0.00294883
-0.00086123
0.00306503
-0.000820535
0.00317684
-0.000779147
0.00328411
-0.000737553
0.00338676
-0.000696184
0.00348478
-0.000655414
0.00357819
-0.000615565
0.00366708
-0.000576901
0.00375156
-0.00053964
0.00383178
-0.000503949
0.00390791
-0.000469954
0.00398015
-0.00043774
0.00404869
-0.000407356
0.00411374
-0.000378822
0.00417552
-0.000352127
0.00423424
-0.000327241
0.0042901
-0.000304113
0.00434332
-0.000282675
0.00439409
-0.000262844
0.0044426
-0.000244514
0.004415
-3.3614e-05
-4.73919e-10
0.00444686
-3.18586e-05
9.97145e-11
0.00447705
-3.01898e-05
7.27772e-10
0.00450566
-2.86103e-05
1.38377e-09
0.00453277
-2.71193e-05
2.04585e-09
0.00455849
-2.57148e-05
2.69747e-09
0.00458288
-2.43942e-05
3.32682e-09
0.00460603
-2.31545e-05
3.92602e-09
0.00462801
-2.1992e-05
4.4913e-09
0.00464891
-2.0903e-05
5.02251e-09
0.00466879
-1.98836e-05
5.52208e-09
0.00468771
-1.89294e-05
5.99392e-09
0.00470574
-1.80363e-05
6.44312e-09
0.00472294
-1.71995e-05
6.8756e-09
0.00473934
-1.64141e-05
7.29696e-09
0.00475501
-1.56746e-05
7.71126e-09
0.00476998
-1.49751e-05
8.12085e-09
0.00478428
-1.4309e-05
8.52589e-09
0.00479794
-1.36693e-05
8.92324e-09
0.00481098
-1.30489e-05
9.30586e-09
0.00482341
-1.24411e-05
9.66296e-09
0.00483524
-1.18401e-05
9.98068e-09
0.00484647
-1.12424e-05
1.02429e-08
0.00485711
-1.06467e-05
1.04326e-08
0.00486715
-1.00552e-05
1.05327e-08
0.00487662
-9.4731e-06
1.05309e-08
0.00488551
-8.90814e-06
1.04185e-08
0.00489387
-8.36971e-06
1.0193e-08
0.00490173
-7.86708e-06
9.85769e-09
0.00490913
-7.4079e-06
9.42237e-09
0.00491612
-6.9968e-06
8.90169e-09
0.00492274
-6.63465e-06
8.31357e-09
0.00492905
-6.31858e-06
7.67815e-09
0.00493509
-6.04271e-06
7.01417e-09
0.00494088
-5.79928e-06
6.33926e-09
0.00494646
-5.58002e-06
5.66835e-09
0.00495183
-5.37727e-06
5.01215e-09
0.00495701
-5.18481e-06
4.37803e-09
0.004962
-4.99819e-06
3.7714e-09
0.00496681
-4.81467e-06
3.19539e-09
0.00497144
-4.63292e-06
2.65084e-09
0.0049759
-4.45263e-06
2.13859e-09
0.00498017
-4.2741e-06
1.65982e-09
0.00498426
-4.09796e-06
1.21661e-09
0.00498819
-3.92461e-06
8.25481e-10
0.00499194
-3.75498e-06
4.60249e-10
0.00499553
-3.58953e-06
1.21805e-10
0.00499896
-3.42852e-06
-1.87626e-10
0.00500223
-3.27216e-06
-4.70765e-10
0.00500535
-3.12054e-06
-7.34413e-10
0.00500833
-2.97372e-06
-9.86349e-10
0.00501116
-2.83169e-06
-1.23548e-09
0.00501386
-2.69441e-06
-1.49113e-09
0.00501642
-2.56181e-06
-1.76097e-09
0.00501886
-2.43381e-06
-2.04973e-09
0.00502117
-2.3103e-06
-2.35984e-09
0.00502336
-2.19118e-06
-2.6887e-09
0.00502544
-2.07637e-06
-3.02673e-09
0.00502741
-1.96576e-06