/*--------------------------------*- C++ -*----------------------------------*\
| =========                 |                                                 |
| \\      /  F ield         | OpenFOAM: The Open Source CFD Toolbox           |
|  \\    /   O peration     | Version:  2412                                  |
|   \\  /    A nd           | Website:  www.openfoam.com                      |
|    \\/     M anipulation  |                                                 |
\*---------------------------------------------------------------------------*/
FoamFile
{
    version     2.0;
    format      ascii;
    arch        "LSB;label=32;scalar=64";
    class       volVectorField;
    location    "17";
    object      U;
}
// * * * * * * * * * * * * * * * * * * * * * * * * * * * * * * * * * * * * * //

dimensions      [0 1 -1 0 0 0 0];

internalField   nonuniform List<vector> 
63420
(
(0.0999997 4.34653e-07 0)
(0.099995 1.29659e-06 0)
(0.0999852 2.13528e-06 0)
(0.099971 2.94922e-06 0)
(0.0999527 3.81613e-06 0)
(0.0999298 4.92366e-06 0)
(0.0999006 6.4969e-06 0)
(0.0998624 8.65661e-06 0)
(0.0998126 1.13122e-05 0)
(0.0997498 1.41665e-05 0)
(0.0996743 1.68258e-05 0)
(0.0995887 1.89448e-05 0)
(0.0994965 2.0332e-05 0)
(0.0994014 2.09806e-05 0)
(0.0993069 2.10317e-05 0)
(0.099215 2.07042e-05 0)
(0.0991268 2.02254e-05 0)
(0.0990424 1.9782e-05 0)
(0.0989612 1.94991e-05 0)
(0.0988823 1.94409e-05 0)
(0.0988047 1.9623e-05 0)
(0.0987274 2.00301e-05 0)
(0.0986496 2.06319e-05 0)
(0.0985708 2.13936e-05 0)
(0.0984904 2.2284e-05 0)
(0.0984083 2.3278e-05 0)
(0.098324 2.43576e-05 0)
(0.0982376 2.55112e-05 0)
(0.0981488 2.67325e-05 0)
(0.0980576 2.80187e-05 0)
(0.0979638 2.93701e-05 0)
(0.0978675 3.07882e-05 0)
(0.0977685 3.22758e-05 0)
(0.0976668 3.38364e-05 0)
(0.0975622 3.54735e-05 0)
(0.0974548 3.7191e-05 0)
(0.0973444 3.89928e-05 0)
(0.0972309 4.08828e-05 0)
(0.0971142 4.2865e-05 0)
(0.0969943 4.49436e-05 0)
(0.0968711 4.71225e-05 0)
(0.0967444 4.94062e-05 0)
(0.0966142 5.17988e-05 0)
(0.0964804 5.4305e-05 0)
(0.0963428 5.69293e-05 0)
(0.0962015 5.96766e-05 0)
(0.0960563 6.25519e-05 0)
(0.095907 6.55607e-05 0)
(0.0957537 6.87084e-05 0)
(0.0955962 7.20012e-05 0)
(0.0954344 7.54459e-05 0)
(0.0952681 7.90512e-05 0)
(0.0950974 8.28309e-05 0)
(0.094922 8.68143e-05 0)
(0.0947418 9.10758e-05 0)
(0.0999997 1.30366e-06 0)
(0.099995 3.88914e-06 0)
(0.0999852 6.40543e-06 0)
(0.099971 8.84778e-06 0)
(0.0999527 1.14478e-05 0)
(0.0999298 1.47652e-05 0)
(0.0999007 1.94722e-05 0)
(0.0998626 2.59306e-05 0)
(0.0998131 3.38721e-05 0)
(0.0997505 4.24118e-05 0)
(0.0996753 5.03756e-05 0)
(0.09959 5.67319e-05 0)
(0.099498 6.09075e-05 0)
(0.0994032 6.28791e-05 0)
(0.0993088 6.30656e-05 0)
(0.099217 6.21186e-05 0)
(0.0991288 6.0715e-05 0)
(0.0990443 5.94124e-05 0)
(0.098963 5.85851e-05 0)
(0.098884 5.84247e-05 0)
(0.0988063 5.89793e-05 0)
(0.0987289 6.02047e-05 0)
(0.0986511 6.20102e-05 0)
(0.0985723 6.42936e-05 0)
(0.0984919 6.69615e-05 0)
(0.0984098 6.99395e-05 0)
(0.0983256 7.3174e-05 0)
(0.0982392 7.66306e-05 0)
(0.0981505 8.029e-05 0)
(0.0980593 8.41446e-05 0)
(0.0979657 8.81944e-05 0)
(0.0978695 9.24445e-05 0)
(0.0977706 9.69031e-05 0)
(0.097669 0.00010158 0)
(0.0975646 0.000106487 0)
(0.0974573 0.000111634 0)
(0.0973471 0.000117034 0)
(0.0972338 0.000122697 0)
(0.0971173 0.000128637 0)
(0.0969976 0.000134866 0)
(0.0968746 0.000141395 0)
(0.0967481 0.000148237 0)
(0.0966181 0.000155405 0)
(0.0964846 0.000162914 0)
(0.0963473 0.000170775 0)
(0.0962063 0.000179005 0)
(0.0960614 0.000187618 0)
(0.0959125 0.000196629 0)
(0.0957595 0.000206057 0)
(0.0956024 0.000215918 0)
(0.095441 0.000226233 0)
(0.0952752 0.000237029 0)
(0.0951049 0.000248344 0)
(0.09493 0.000260266 0)
(0.0947503 0.000273009 0)
(0.0999997 2.17176e-06 0)
(0.099995 6.47879e-06 0)
(0.0999852 1.06715e-05 0)
(0.099971 1.47413e-05 0)
(0.0999528 1.90705e-05 0)
(0.0999299 2.45847e-05 0)
(0.0999009 3.23981e-05 0)
(0.0998631 4.31144e-05 0)
(0.0998139 5.62957e-05 0)
(0.0997518 7.0482e-05 0)
(0.0996773 8.37301e-05 0)
(0.0995926 9.43283e-05 0)
(0.0995012 0.00010132 0)
(0.0994068 0.00010466 0)
(0.0993126 0.000105034 0)
(0.0992209 0.000103517 0)
(0.0991327 0.000101229 0)
(0.0990481 9.90945e-05 0)
(0.0989667 9.7737e-05 0)
(0.0988875 9.74771e-05 0)
(0.0988096 9.83978e-05 0)
(0.0987321 0.000100428 0)
(0.0986542 0.000103421 0)
(0.0985753 0.000107208 0)
(0.0984949 0.000111635 0)
(0.0984128 0.000116579 0)
(0.0983287 0.000121951 0)
(0.0982424 0.000127695 0)
(0.0981538 0.000133777 0)
(0.0980628 0.000140186 0)
(0.0979694 0.000146921 0)
(0.0978734 0.000153989 0)
(0.0977748 0.000161406 0)
(0.0976735 0.000169186 0)
(0.0975694 0.000177347 0)
(0.0974624 0.00018591 0)
(0.0973525 0.000194892 0)
(0.0972395 0.000204313 0)
(0.0971234 0.000214194 0)
(0.0970041 0.000224553 0)
(0.0968815 0.000235412 0)
(0.0967555 0.000246791 0)
(0.0966261 0.000258712 0)
(0.0964931 0.000271197 0)
(0.0963564 0.000284268 0)
(0.0962159 0.000297951 0)
(0.0960716 0.000312268 0)
(0.0959234 0.000327248 0)
(0.0957711 0.000342916 0)
(0.0956148 0.000359304 0)
(0.0954542 0.000376444 0)
(0.0952892 0.000394378 0)
(0.0951199 0.000413171 0)
(0.094946 0.000432959 0)
(0.0947674 0.000454083 0)
(0.0999997 3.03837e-06 0)
(0.0999951 9.06358e-06 0)
(0.0999852 1.49306e-05 0)
(0.0999711 2.06263e-05 0)
(0.0999529 2.66784e-05 0)
(0.0999301 3.43681e-05 0)
(0.0999012 4.52436e-05 0)
(0.0998637 6.01517e-05 0)
(0.0998151 7.8498e-05 0)
(0.0997537 9.82676e-05 0)
(0.0996801 0.000116767 0)
(0.0995963 0.000131614 0)
(0.0995057 0.000141468 0)
(0.0994119 0.000146248 0)
(0.0993182 0.000146893 0)
(0.0992267 0.000144886 0)
(0.0991384 0.000141779 0)
(0.0990537 0.000138858 0)
(0.098972 0.000136994 0)
(0.0988926 0.000136639 0)
(0.0988144 0.000137915 0)
(0.0987367 0.00014073 0)
(0.0986587 0.000144883 0)
(0.0985797 0.000150143 0)
(0.0984993 0.000156299 0)
(0.0984173 0.000163179 0)
(0.0983333 0.000170662 0)
(0.0982471 0.000178666 0)
(0.0981588 0.000187147 0)
(0.0980681 0.000196086 0)
(0.0979749 0.000205483 0)
(0.0978793 0.000215348 0)
(0.097781 0.0002257 0)
(0.0976801 0.00023656 0)
(0.0975764 0.000247954 0)
(0.0974699 0.000259908 0)
(0.0973605 0.000272447 0)
(0.0972481 0.000285599 0)
(0.0971326 0.000299391 0)
(0.0970139 0.00031385 0)
(0.096892 0.000329006 0)
(0.0967667 0.000344886 0)
(0.0966379 0.00036152 0)
(0.0965057 0.000378939 0)
(0.0963698 0.000397175 0)
(0.0962303 0.000416261 0)
(0.0960869 0.00043623 0)
(0.0959397 0.000457119 0)
(0.0957885 0.000478965 0)
(0.0956332 0.00050181 0)
(0.0954738 0.000525698 0)
(0.0953102 0.000550685 0)
(0.0951422 0.000576857 0)
(0.0949698 0.000604391 0)
(0.0947928 0.000633724 0)
(0.0999997 3.90295e-06 0)
(0.0999951 1.16416e-05 0)
(0.0999853 1.91801e-05 0)
(0.0999712 2.64994e-05 0)
(0.099953 3.42656e-05 0)
(0.0999303 4.41023e-05 0)
(0.0999016 5.79805e-05 0)
(0.0998646 7.69916e-05 0)
(0.0998166 0.000100402 0)
(0.0997562 0.00012567 0)
(0.0996837 0.000149375 0)
(0.0996011 0.00016848 0)
(0.0995115 0.000181256 0)
(0.0994186 0.000187573 0)
(0.0993253 0.000188601 0)
(0.099234 0.000186211 0)
(0.0991458 0.000182373 0)
(0.0990609 0.000178726 0)
(0.0989789 0.000176386 0)
(0.0988992 0.000175942 0)
(0.0988207 0.000177559 0)
(0.0987428 0.000181131 0)
(0.0986646 0.000186407 0)
(0.0985855 0.000193101 0)
(0.0985051 0.000200944 0)
(0.0984232 0.000209721 0)
(0.0983393 0.000219275 0)
(0.0982534 0.000229504 0)
(0.0981654 0.00024035 0)
(0.098075 0.000251788 0)
(0.0979823 0.000263816 0)
(0.0978871 0.000276447 0)
(0.0977893 0.000289703 0)
(0.0976889 0.000303613 0)
(0.0975858 0.000318207 0)
(0.09748 0.000333518 0)
(0.0973712 0.000349578 0)
(0.0972595 0.000366423 0)
(0.0971448 0.000384086 0)
(0.0970269 0.000402603 0)
(0.0969058 0.000422009 0)
(0.0967814 0.00044234 0)
(0.0966537 0.000463634 0)
(0.0965225 0.00048593 0)
(0.0963877 0.000509267 0)
(0.0962493 0.000533687 0)
(0.0961072 0.000559234 0)
(0.0959613 0.000585951 0)
(0.0958115 0.000613887 0)
(0.0956577 0.000643092 0)
(0.0954999 0.000673622 0)
(0.095338 0.000705545 0)
(0.0951718 0.000738961 0)
(0.0950013 0.000774071 0)
(0.0948264 0.000811369 0)
(0.0999997 4.76512e-06 0)
(0.0999951 1.42109e-05 0)
(0.0999853 2.34172e-05 0)
(0.0999713 3.23571e-05 0)
(0.0999531 4.18265e-05 0)
(0.0999305 5.37754e-05 0)
(0.0999021 7.0584e-05 0)
(0.0998656 9.35902e-05 0)
(0.0998184 0.000121943 0)
(0.0997592 0.000152604 0)
(0.099688 0.00018146 0)
(0.0996067 0.000204832 0)
(0.0995184 0.000220602 0)
(0.0994264 0.000228571 0)
(0.0993338 0.000230117 0)
(0.0992428 0.000227475 0)
(0.0991546 0.000223012 0)
(0.0990695 0.000218713 0)
(0.0989872 0.000215936 0)
(0.0989071 0.000215409 0)
(0.0988284 0.000217351 0)
(0.0987501 0.000221644 0)
(0.0986717 0.000228 0)
(0.0985926 0.000236078 0)
(0.0985123 0.000245558 0)
(0.0984304 0.000256181 0)
(0.0983468 0.00026776 0)
(0.0982612 0.000280169 0)
(0.0981735 0.000293337 0)
(0.0980836 0.000307233 0)
(0.0979913 0.000321853 0)
(0.0978967 0.000337211 0)
(0.0977996 0.000353334 0)
(0.0976999 0.000370253 0)
(0.0975975 0.000388006 0)
(0.0974924 0.000406632 0)
(0.0973845 0.000426169 0)
(0.0972737 0.000446659 0)
(0.0971598 0.000468142 0)
(0.097043 0.000490661 0)
(0.096923 0.000514257 0)
(0.0967997 0.000538976 0)
(0.0966732 0.000564861 0)
(0.0965433 0.000591959 0)
(0.0964099 0.000620318 0)
(0.0962729 0.000649986 0)
(0.0961324 0.000681016 0)
(0.0959881 0.00071346 0)
(0.0958401 0.000747374 0)
(0.0956881 0.000782818 0)
(0.0955323 0.000819857 0)
(0.0953724 0.000858566 0)
(0.0952085 0.000899055 0)
(0.0950404 0.000941527 0)
(0.0948681 0.000986479 0)
(0.0999997 5.62416e-06 0)
(0.0999951 1.67701e-05 0)
(0.0999854 2.76392e-05 0)
(0.0999714 3.81956e-05 0)
(0.0999533 4.93557e-05 0)
(0.0999308 6.33771e-05 0)
(0.0999027 8.30341e-05 0)
(0.0998667 0.000109912 0)
(0.0998205 0.000143066 0)
(0.0997625 0.000179001 0)
(0.0996928 0.000212943 0)
(0.0996131 0.000240591 0)
(0.0995261 0.000259434 0)
(0.0994353 0.000269188 0)
(0.0993434 0.000271405 0)
(0.0992528 0.000268658 0)
(0.0991646 0.000263692 0)
(0.0990793 0.000258823 0)
(0.0989967 0.000255653 0)
(0.0989163 0.000255053 0)
(0.0988371 0.000257298 0)
(0.0987587 0.000262274 0)
(0.0986801 0.000269658 0)
(0.0986009 0.000279062 0)
(0.0985206 0.00029012 0)
(0.098439 0.000302533 0)
(0.0983556 0.00031608 0)
(0.0982704 0.000330617 0)
(0.0981831 0.000346058 0)
(0.0980938 0.000362364 0)
(0.0980021 0.000379529 0)
(0.0979082 0.000397568 0)
(0.0978118 0.00041651 0)
(0.0977129 0.000436392 0)
(0.0976114 0.000457255 0)
(0.0975072 0.000479143 0)
(0.0974003 0.000502102 0)
(0.0972905 0.000526179 0)
(0.0971778 0.000551421 0)
(0.0970622 0.000577875 0)
(0.0969434 0.000605592 0)
(0.0968215 0.000634622 0)
(0.0966964 0.000665015 0)
(0.096568 0.000696826 0)
(0.0964363 0.000730109 0)
(0.0963011 0.000764921 0)
(0.0961623 0.00080132 0)
(0.09602 0.000839368 0)
(0.095874 0.000879128 0)
(0.0957243 0.000920667 0)
(0.0955707 0.000964055 0)
(0.0954134 0.00100938 0)
(0.095252 0.00105673 0)
(0.0950868 0.00110631 0)
(0.0949175 0.00115851 0)
(0.0945557 9.58297e-05 -4.54253e-24)
(0.0943618 0.00010085 -4.6303e-24)
(0.0941583 0.000106211 -3.1771e-26)
(0.0939444 0.000111955 1.42249e-23)
(0.0937195 0.0001181 -4.71208e-24)
(0.0934829 0.000124678 -4.84904e-24)
(0.0932337 0.000131731 -1.49297e-23)
(0.092971 0.000139301 1.48245e-23)
(0.0926938 0.000147438 5.07222e-24)
(0.0924011 0.000156194 0)
(0.0920917 0.00016563 5.23989e-24)
(0.0917643 0.000175812 -5.33014e-24)
(0.0914176 0.000186812 4.38458e-23)
(0.0910499 0.000198712 -9.39697e-23)
(0.0906597 0.000211603 5.02279e-23)
(0.0902449 0.000225587 4.07034e-23)
(0.0898036 0.000240781 5.22307e-23)
(0.0893335 0.000257317 -5.98153e-24)
(0.0888321 0.000275347 6.11209e-24)
(0.0882965 0.000295047 -6.25021e-24)
(0.0877236 0.00031662 0)
(0.0871099 0.000340304 6.55156e-24)
(0.0864513 0.000366379 -6.71612e-24)
(0.0857434 0.000395177 0)
(0.0849809 0.000427091 -7.07693e-24)
(0.084158 0.000462587 0)
(0.0832678 0.00050222 -7.48613e-24)
(0.0823023 0.000546656 -1.25465e-22)
(0.0812525 0.000596689 1.33226e-22)
(0.0801075 0.000653278 -1.33755e-22)
(0.0788549 0.000717581 1.33551e-22)
(0.0774798 0.000791003 0)
(0.0759646 0.000875256 0)
(0.0742885 0.000972435 1.63771e-22)
(0.0724265 0.0010851 -1.54092e-22)
(0.0703488 0.00121636 0)
(0.0680196 0.00136993 0)
(0.0653958 0.00155017 0)
(0.0624265 0.00176189 0)
(0.0590519 0.00200995 0)
(0.0552039 0.00229831 0)
(0.0508093 0.00262823 0)
(0.0457956 0.00299523 0)
(0.0401053 0.00338423 0)
(0.0337197 0.00376221 -1.51749e-23)
(0.0266998 0.00406778 -5.21004e-22)
(0.0192296 0.00419848 5.20223e-22)
(0.0116916 0.00399739 5.65363e-22)
(0.00500976 0.00322333 -5.64514e-22)
(0.00102229 0.00150023 0)
(0.0945646 0.000287215 -4.59516e-24)
(0.094371 0.000302267 -9.3713e-24)
(0.0941676 0.00031834 -4.9112e-24)
(0.093954 0.000335529 4.57643e-24)
(0.0937295 0.000353917 -4.77726e-24)
(0.0934932 0.000373606 3.42326e-23)
(0.0932443 0.000394717 -5.37621e-23)
(0.0929821 0.000417379 4.99311e-24)
(0.0927054 0.000441739 6.66409e-23)
(0.0924133 0.000467957 -9.20393e-23)
(0.0921046 0.000496211 -8.98772e-23)
(0.0917779 0.0005267 7.91967e-23)
(0.091432 0.000559643 0)
(0.0910652 0.000595283 5.53039e-24)
(0.0906759 0.000633894 -1.69015e-23)
(0.0902623 0.000675781 -1.91678e-22)
(0.0898223 0.000721294 1.83964e-22)
(0.0893536 0.000770833 -1.95559e-22)
(0.0888538 0.000824854 -1.83629e-23)
(0.08832 0.000883881 6.26393e-24)
(0.0877491 0.000948525 0)
(0.0871377 0.0010195 -6.56853e-24)
(0.0864817 0.00109765 -2.11687e-22)
(0.0857767 0.00118396 4.42384e-22)
(0.0850177 0.00127962 2.44064e-22)
(0.0841986 0.00138602 -4.60303e-22)
(0.0833129 0.00150483 4.95756e-22)
(0.0823528 0.00163803 -5.03053e-22)
(0.0813093 0.00178801 -7.98402e-24)
(0.0801718 0.00195762 0)
(0.0789282 0.00215033 0)
(0.0775639 0.00237033 0)
(0.0760621 0.00262272 0)
(0.0744025 0.00291374 -9.49082e-24)
(0.0725612 0.00325099 -6.43768e-22)
(0.0705096 0.0036437 -2.734e-23)
(0.0682133 0.00410288 6.69363e-22)
(0.0656316 0.00464137 7.29291e-22)
(0.0627161 0.00527334 -7.28324e-22)
(0.0594102 0.00601297 -2.41988e-23)
(0.0556494 0.00687163 -2.52845e-23)
(0.0513637 0.00785253 -8.72198e-22)
(0.0464831 0.00894157 8.43466e-22)
(0.0409489 0.010093 -2.87489e-23)
(0.0347347 0.0112077 1.52809e-23)
(0.0278814 0.0121025 -1.05936e-21)
(0.020536 0.0124722 1.05898e-21)
(0.0130173 0.0118507 -2.2102e-21)
(0.00612381 0.00953103 2.17324e-21)
(0.00147523 0.00440413 -2.22689e-21)
(0.0945825 0.000477624 -2.71844e-23)
(0.0943892 0.000502635 -9.53662e-24)
(0.0941864 0.000529337 3.67919e-23)
(0.0939733 0.000557867 -7.56766e-23)
(0.0937494 0.000588385 1.61929e-22)
(0.0935138 0.000621069 -7.67075e-23)
(0.0932658 0.000656116 1.41936e-26)
(0.0930044 0.000693744 9.95872e-24)
(0.0927288 0.000734194 1.73638e-22)
(0.0924378 0.000777735 -1.63335e-22)
(0.0921304 0.000824664 0)
(0.0918052 0.00087531 1.461e-26)
(0.0914609 0.000930039 0)
(0.091096 0.000989256 1.89967e-22)
(0.0907088 0.00105342 -1.67448e-22)
(0.0902975 0.00112303 -3.60987e-22)
(0.0898601 0.00119868 2.00491e-23)
(0.0893943 0.00128103 -3.80084e-22)
(0.0888978 0.00137084 1.22872e-23)
(0.0883677 0.001469 -4.07105e-22)
(0.0878009 0.0015765 4.19577e-22)
(0.0871942 0.00169455 -4.27566e-22)
(0.0865435 0.00182456 4.40674e-22)
(0.0858446 0.00196816 1.387e-23)
(0.0850925 0.00212733 -1.42506e-23)
(0.0842815 0.00230438 1.46553e-23)
(0.0834051 0.00250208 -4.90945e-22)
(0.0824559 0.00272374 5.06059e-22)
(0.0814252 0.00297329 5.38542e-22)
(0.0803031 0.00325548 -5.22014e-22)
(0.0790778 0.00357601 0)
(0.0777359 0.00394181 0)
(0.0762613 0.00436128 1.83503e-23)
(0.0746354 0.00484463 1.26479e-21)
(0.072836 0.00540431 3.05768e-23)
(0.070837 0.00605533 -1.27315e-21)
(0.0686074 0.00681559 0)
(0.0661107 0.00770574 -2.2259e-23)
(0.0633036 0.0087484 1.55081e-21)
(0.0601361 0.00996591 -3.09642e-21)
(0.0565506 0.0113755 3.28352e-21)
(0.0524839 0.0129804 9.95129e-23)
(0.0478703 0.014755 -1.70681e-21)
(0.042649 0.0166213 -1.84875e-21)
(0.0367779 0.0184144 1.90529e-21)
(0.0302568 0.0198329 1.47622e-24)
(0.0231572 0.020376 -3.24109e-23)
(0.0156721 0.0192785 2.13488e-21)
(0.00833466 0.0154149 -2.06728e-21)
(0.00234576 0.00705689 -2.06778e-21)
(0.0946091 0.000666386 1.79118e-23)
(0.0944165 0.000701198 -9.08913e-24)
(0.0942143 0.000738347 1.94952e-26)
(0.0940021 0.00077804 9.35164e-24)
(0.0937792 0.000820499 -1.96073e-26)
(0.0935447 0.000865973 1.55346e-22)
(0.093298 0.000914739 -2.93544e-22)
(0.0930381 0.000967103 1.5776e-22)
(0.0927641 0.0010234 -1.00995e-23)
(0.092475 0.00108401 1.86662e-22)
(0.0921696 0.00114935 -1.66034e-22)
(0.0918467 0.00121987 -3.44562e-22)
(0.091505 0.00129608 6.95719e-22)
(0.091143 0.00137856 -7.09426e-22)
(0.090759 0.00146794 7.23801e-22)
(0.0903514 0.00156493 -7.27427e-22)
(0.089918 0.00167035 -3.85103e-22)
(0.0894568 0.00178513 2.26019e-26)
(0.0889653 0.00191033 0)
(0.088441 0.00204718 -3.96446e-22)
(0.0878807 0.00219709 4.08892e-22)
(0.0872813 0.00236175 0)
(0.086639 0.00254311 -8.83123e-22)
(0.0859496 0.00274347 8.68793e-22)
(0.0852084 0.00296558 1.43863e-23)
(0.08441 0.00321267 -3.71699e-26)
(0.0835482 0.00348859 1.52064e-23)
(0.082616 0.00379793 0)
(0.0816055 0.00414617 -5.31419e-26)
(0.0805072 0.00453987 0)
(0.0793106 0.00498692 -1.72682e-23)
(0.0780032 0.00549685 1.16786e-21)
(0.0765708 0.00608118 -1.16754e-21)
(0.0749968 0.00675389 -1.93167e-23)
(0.0732618 0.0075319 3.9991e-23)
(0.0713436 0.00843553 -1.37899e-21)
(0.0692159 0.00948877 1.33613e-21)
(0.0668485 0.0107191 2.26439e-23)
(0.0642062 0.0121562 -3.58159e-25)
(0.0612482 0.0138284 2.41676e-23)
(0.0579276 0.0157566 -1.66021e-21)
(0.0541913 0.017941 3.35665e-21)
(0.04998 0.0203416 -1.75002e-21)
(0.0452297 0.0228464 1.81084e-21)
(0.0398747 0.0252257 -1.89573e-21)
(0.0338529 0.0270682 -3.76785e-21)
(0.0271169 0.0276949 7.68683e-21)
(0.0196708 0.0260591 -3.89143e-21)
(0.0116886 0.0206553 0)
(0.00363921 0.00934496 -3.65792e-21)
(0.0946444 0.000852825 -8.88397e-24)
(0.0944526 0.000897225 -3.629e-23)
(0.0942515 0.000944592 1.10012e-22)
(0.0940405 0.000995197 -1.48545e-22)
(0.0938189 0.00104933 6.54237e-23)
(0.0935861 0.00110731 9.5939e-24)
(0.0933412 0.0011695 -9.75426e-24)
(0.0930833 0.00123629 -2.46459e-26)
(0.0928117 0.00130811 1.00976e-23)
(0.0925251 0.00138544 -2.05383e-23)
(0.0922227 0.00146881 -3.37969e-22)
(0.0919031 0.00155881 3.48797e-22)
(0.091565 0.0016561 -3.4069e-22)
(0.091207 0.0017614 3.51688e-22)
(0.0908276 0.00187552 0)
(0.090425 0.00199937 -2.49196e-26)
(0.0899974 0.00213401 0)
(0.0895426 0.00228063 -3.8004e-22)
(0.0890583 0.00244059 4.04734e-22)
(0.088542 0.00261546 -1.27204e-23)
(0.0879909 0.00280706 -8.57564e-22)
(0.0874019 0.00301754 8.44906e-22)
(0.0867713 0.0032494 -1.37451e-23)
(0.0860954 0.0035056 0)
(0.0853695 0.00378962 0)
(0.0845889 0.00410561 -9.85767e-22)
(0.0837477 0.00445847 9.55819e-22)
(0.0828397 0.00485402 0)
(0.0818574 0.0052992 -3.28059e-23)
(0.0807928 0.00580232 0)
(0.0796363 0.00637331 1.75712e-23)
(0.0783773 0.00702412 -1.81118e-23)
(0.0770037 0.00776914 -1.88675e-23)
(0.0755017 0.00862573 1.94508e-23)
(0.0738559 0.00961472 1.28042e-21)
(0.0720487 0.010761 -1.32153e-21)
(0.0700605 0.0120935 2.87444e-21)
(0.0678695 0.0136451 -2.8763e-21)
(0.0654507 0.0154506 3.05502e-21)
(0.0627761 0.017542 8.8864e-23)
(0.0598127 0.0199403 -3.22035e-21)
(0.0565208 0.0226399 -2.57331e-23)
(0.0528501 0.0255838 1.27366e-24)
(0.0487333 0.0286255 1.68868e-24)
(0.0440758 0.0314755 2.23191e-24)
(0.0387377 0.0336275 -5.5731e-23)
(0.0325124 0.034257 -2.55648e-23)
(0.0251393 0.0320766 -2.42938e-23)
(0.0163235 0.0252161 0)
(0.00537986 0.011261 7.60427e-24)
(0.0946881 0.00103634 -4.40859e-23)
(0.0944974 0.0010901 2.65193e-23)
(0.0942978 0.00114748 9.07337e-24)
(0.0940884 0.0012088 1.39279e-22)
(0.0938688 0.00127441 -1.39332e-22)
(0.0936382 0.00134471 1.44144e-22)
(0.0933957 0.00142014 -3.19965e-22)
(0.0931407 0.00150117 4.55528e-22)
(0.0928721 0.00158833 -3.19078e-22)
(0.0925891 0.00168221 -3.31003e-22)
(0.0922906 0.00178346 -1.66184e-23)
(0.0919753 0.00189278 6.72185e-22)
(0.0916421 0.00201098 -7.08052e-22)
(0.0912896 0.00213895 3.30251e-22)
(0.0909162 0.00227768 3.56426e-22)
(0.0905204 0.00242828 3.72631e-22)
(0.0901003 0.00259203 -2.87269e-23)
(0.0896541 0.0027704 7.59458e-22)
(0.0891794 0.00296507 7.84356e-22)
(0.0886739 0.00317794 1.98586e-23)
(0.0881351 0.00341125 -8.31591e-22)
(0.0875598 0.00366762 0)
(0.0869451 0.00395012 0)
(0.0862871 0.00426236 -9.27303e-22)
(0.0855819 0.00460859 9.13985e-22)
(0.0848251 0.00499385 9.84795e-22)
(0.0840115 0.00542408 -9.86254e-22)
(0.0831357 0.00590636 0)
(0.0821914 0.00644905 1.10154e-21)
(0.0811715 0.00706214 -1.10366e-21)
(0.0800684 0.00775749 0)
(0.0788735 0.00854931 -2.38989e-21)
(0.0775774 0.00945456 2.41202e-21)
(0.0761699 0.0104935 -1.99416e-23)
(0.0746403 0.01169 -2.6686e-21)
(0.0729772 0.0130725 2.69336e-21)
(0.071169 0.0146729 0)
(0.069204 0.0165268 3.02613e-21)
(0.0670705 0.0186699 -3.00748e-21)
(0.0647558 0.0211326 2.43828e-23)
(0.0622448 0.0239293 3.32212e-21)
(0.0595151 0.0270401 -6.66602e-21)
(0.0565294 0.0303825 1.85497e-23)
(0.0532202 0.0337701 3.66754e-23)
(0.0494654 0.0368556 3.45948e-21)
(0.0450442 0.0390582 3.86133e-24)
(0.039574 0.039458 -2.96746e-21)
(0.0324551 0.0366266 3.04208e-21)
(0.0226879 0.0284913 0)
(0.00782032 0.012511 2.69548e-23)
(0.09474 0.00121612 8.68271e-24)
(0.0945511 0.00127873 7.99883e-23)
(0.0943534 0.00134563 -7.13327e-23)
(0.0941464 0.00141719 9.15682e-24)
(0.0939295 0.00149382 1.40755e-22)
(0.0937018 0.00157599 -1.40978e-22)
(0.0934627 0.00166421 -3.02027e-22)
(0.0932114 0.00175904 4.51993e-24)
(0.092947 0.00186111 -5.61353e-24)
(0.0926686 0.00197111 3.35434e-22)
(0.0923752 0.0020898 -3.27645e-22)
(0.0920656 0.00221803 6.9526e-22)
(0.0917388 0.00235676 -3.46435e-22)
(0.0913934 0.00250704 1.11982e-23)
(0.091028 0.00267004 1.14598e-23)
(0.0906411 0.0028471 7.5807e-22)
(0.090231 0.00303975 -4.98084e-24)
(0.0897959 0.00324974 7.91346e-22)
(0.0893338 0.00347906 1.26491e-23)
(0.0888426 0.00373001 0)
(0.0883198 0.00400526 0)
(0.0877628 0.00430795 -8.88355e-22)
(0.0871688 0.00464175 8.90599e-22)
(0.0865347 0.00501096 0)
(0.0858568 0.00542069 1.49869e-23)
(0.0851315 0.00587693 0)
(0.0843545 0.00638676 -1.03525e-21)
(0.0835214 0.00695856 2.10784e-21)
(0.0826271 0.00760225 -1.07266e-21)
(0.0816662 0.00832956 -2.2739e-21)
(0.0806332 0.00915442 -7.66766e-23)
(0.079522 0.0100933 -8.09587e-23)
(0.0783264 0.0111658 -8.51573e-23)
(0.0770407 0.0123948 2.55786e-21)
(0.0756593 0.0138071 2.74565e-21)
(0.0741777 0.0154332 -2.75219e-21)
(0.0725933 0.0173066 0)
(0.0709054 0.0194622 3.0481e-21)
(0.0691161 0.0219313 -3.05518e-21)
(0.0672297 0.024734 -3.24622e-21)
(0.0652498 0.0278649 3.22834e-21)
(0.0631742 0.0312718 2.64029e-23)
(0.0609816 0.0348234 3.24683e-21)
(0.0586114 0.0382675 -1.06239e-22)
(0.0559277 0.0411781 -3.20749e-21)
(0.0526549 0.0429018 2.44728e-23)
(0.0482857 0.0424926 0)
(0.0419661 0.0385813 -1.9441e-23)
(0.0318352 0.0293034 -9.06816e-22)
(0.0126062 0.0124508 4.33812e-22)
(-0.000242837 0.00032008 0)
(-0.00101857 0.000579249 3.16287e-22)
(-0.00210819 0.000601333 -3.16762e-22)
(-0.0031126 0.00049199 -3.12446e-22)
(-0.00383524 0.000310316 3.12915e-22)
(-0.00419124 9.26703e-05 -9.51293e-24)
(-0.00414474 -0.000137511 0)
(-0.00368948 -0.000367659 0)
(-0.00283285 -0.000588318 0)
(-0.00159333 -0.000795189 0)
(3.02837e-06 -0.000984086 0)
(0.00192351 -0.00115227 0)
(0.00413279 -0.0013002 0)
(0.00659598 -0.00142748 0)
(0.00927738 -0.00153425 0)
(0.0121415 -0.00162106 7.2462e-23)
(0.015154 -0.00168877 -6.82661e-23)
(0.0182818 -0.0017384 0)
(0.0214934 -0.00177114 0)
(0.0247595 -0.00178828 -4.19272e-23)
(0.0280529 -0.0017912 4.19913e-23)
(0.0313487 -0.00178128 -2.74759e-23)
(0.0346243 -0.0017599 1.69561e-24)
(0.0378595 -0.00172843 0)
(0.0410364 -0.00168824 1.08686e-24)
(0.0441396 -0.00164067 0)
(0.047156 -0.001587 0)
(0.0500746 -0.00152842 0)
(0.0528868 -0.00146604 2.51441e-25)
(0.0555857 -0.00140088 0)
(0.0581663 -0.0013339 5.3186e-27)
(0.0606253 -0.00126593 -1.0143e-25)
(0.0629609 -0.00119774 1.79129e-25)
(0.0651727 -0.00112999 -2.42543e-24)
(0.0672614 -0.00106327 2.47624e-24)
(0.0692289 -0.000998061 2.4198e-24)
(0.0710778 -0.000934788 -5.3016e-24)
(0.0728117 -0.000873785 2.90707e-24)
(0.0744346 -0.000815317 3.73825e-25)
(0.075951 -0.000759584 -3.76986e-25)
(0.077366 -0.000706724 0)
(0.0786847 -0.000656821 -3.69865e-25)
(0.0799123 -0.000609911 1.79815e-24)
(0.0810544 -0.000565987 -1.78965e-24)
(0.0821163 -0.000525007 3.38225e-25)
(0.0831034 -0.000486897 -9.63918e-25)
(0.0840208 -0.000451559 3.30102e-25)
(0.0848735 -0.000418871 5.84996e-25)
(0.0856663 -0.000388698 -2.9009e-25)
(0.0864038 -0.000360889 2.65346e-25)
(-0.000309314 0.000920221 -1.20623e-21)
(-0.00111955 0.00165533 -1.31564e-21)
(-0.002087 0.00171504 1.29676e-21)
(-0.00291051 0.00139502 -6.15989e-22)
(-0.00344109 0.000864036 6.17203e-22)
(-0.00361377 0.000227713 9.57891e-24)
(-0.00340525 -0.000446215 -1.88065e-23)
(-0.00281408 -0.00112156 -5.77945e-22)
(-0.00184838 -0.00176946 5.60609e-22)
(-0.000525427 -0.00238009 -1.63189e-23)
(0.00113305 -0.00293368 -1.53346e-23)
(0.00309436 -0.00343075 4.35097e-22)
(0.00532478 -0.00386861 -4.35675e-22)
(0.0077934 -0.00424569 -3.65265e-22)
(0.0104668 -0.00456247 3.54267e-23)
(0.0133117 -0.0048205 3.30765e-22)
(0.0162956 -0.00502214 -4.32726e-24)
(0.0193873 -0.00517037 -7.84073e-24)
(0.0225569 -0.00526859 0)
(0.0257766 -0.00532057 0)
(0.0290204 -0.00533029 0)
(0.0322644 -0.00530184 -2.05951e-24)
(0.0354871 -0.00523928 9.48571e-23)
(0.038669 -0.00514662 -1.0315e-22)
(0.0417929 -0.00502791 6.1845e-23)
(0.0448439 -0.00488715 -3.92649e-23)
(0.0478093 -0.00472813 -4.08175e-23)
(0.0506788 -0.0045544 1.70536e-23)
(0.0534437 -0.00436926 -2.52088e-25)
(0.0560975 -0.00417577 -3.07345e-25)
(0.0586353 -0.00397674 -5.33019e-27)
(0.061054 -0.0037747 2.36128e-25)
(0.0633518 -0.00357191 -6.2885e-24)
(0.0655283 -0.00337037 1.48357e-23)
(0.0675843 -0.00317181 -7.95334e-24)
(0.0695214 -0.00297772 9.25832e-25)
(0.0713425 -0.00278933 -3.4875e-25)
(0.0730508 -0.00260765 0)
(0.0746503 -0.00243349 6.26191e-24)
(0.0761455 -0.00226744 -5.55184e-24)
(0.0775412 -0.00210991 -5.16589e-24)
(0.0788424 -0.00196117 6.98351e-24)
(0.0800543 -0.00182133 -3.61313e-25)
(0.0811822 -0.00169036 -1.69536e-24)
(0.0822315 -0.00156815 3.05182e-24)
(0.0832071 -0.00145448 3.24329e-25)
(0.0841143 -0.00134905 2.11556e-24)
(0.0849579 -0.00125152 2.21735e-25)
(0.0857427 -0.00116147 -6.01725e-25)
(0.0864729 -0.00107845 -8.06447e-25)
(-0.000426312 0.00140467 -1.26083e-21)
(-0.00128106 0.00248755 1.37623e-21)
(-0.00199224 0.00257082 -1.33511e-21)
(-0.00246054 0.00206422 -2.05912e-23)
(-0.00262048 0.00122784 -4.7506e-25)
(-0.00244263 0.000226753 -1.23002e-21)
(-0.00192704 -0.000845578 1.27039e-21)
(-0.00107928 -0.00192546 1.17354e-21)
(8.90755e-05 -0.00296274 -4.11371e-23)
(0.00156975 -0.00393551 -2.11623e-21)
(0.00334357 -0.00482646 2.01976e-21)
(0.00537481 -0.0056311 -9.54963e-22)
(0.00764189 -0.00634117 -1.37432e-23)
(0.0101173 -0.00695446 0)
(0.0127719 -0.00747138 6.98029e-22)
(0.0155767 -0.007894 -8.11414e-23)
(0.0185031 -0.0082257 -6.07717e-22)
(0.0215232 -0.00847093 1.61609e-23)
(0.0246105 -0.00863495 0)
(0.0277395 -0.00872361 0)
(0.0308868 -0.0087432 1.54502e-22)
(0.0340306 -0.00870024 -1.50065e-22)
(0.0371509 -0.0086012 -1.03559e-22)
(0.0402299 -0.00845267 1.10166e-22)
(0.0432515 -0.00826103 2.5415e-24)
(0.046202 -0.0080329 -1.99918e-24)
(0.0490695 -0.00777443 1.52227e-24)
(0.0518443 -0.00749145 -2.55935e-23)
(0.0545183 -0.00718938 2.6726e-23)
(0.0570854 -0.00687327 -6.92439e-24)
(0.0595411 -0.00654772 7.68595e-24)
(0.0618824 -0.00621693 -1.35027e-25)
(0.0641075 -0.00588463 -1.04459e-23)
(0.0662162 -0.00555413 2.41648e-23)
(0.0682092 -0.00522831 -1.46875e-23)
(0.0700881 -0.00490963 -1.0231e-23)
(0.0718554 -0.00460016 9.04567e-24)
(0.0735145 -0.00430158 0)
(0.075069 -0.00401522 -5.4034e-26)
(0.0765232 -0.00374209 0)
(0.0778816 -0.0034829 -1.12895e-23)
(0.0791491 -0.00323808 1.05409e-23)
(0.0803307 -0.00300783 -6.6556e-25)
(0.0814312 -0.00279214 -3.15987e-26)
(0.0824559 -0.00259081 -5.09746e-24)
(0.0834095 -0.00240351 9.33211e-24)
(0.0842971 -0.00222975 -4.89224e-24)
(0.0851231 -0.00206896 2.19201e-24)
(0.0858921 -0.00192046 -1.69317e-24)
(0.0866082 -0.00178348 -5.49757e-25)
(-0.000560827 0.00167608 -2.74734e-21)
(-0.00140905 0.00294044 0)
(-0.00170369 0.00302944 2.81659e-21)
(-0.00165827 0.00237052 -5.61456e-21)
(-0.00129292 0.00129574 2.81881e-21)
(-0.000636601 9.45433e-06 1.26689e-21)
(0.000287897 -0.00138657 -1.32945e-21)
(0.00148277 -0.00279203 1.20614e-21)
(0.00293328 -0.00415431 -2.37193e-21)
(0.0046195 -0.00543703 1.14757e-21)
(0.00653268 -0.00662534 1.66818e-23)
(0.00865274 -0.00770108 4.91136e-25)
(0.0109609 -0.0086551 1.39792e-23)
(0.0134361 -0.00948351 -8.11523e-22)
(0.0160558 -0.0101855 7.86813e-22)
(0.018797 -0.0107627 2.15654e-23)
(0.0216364 -0.0112189 -9.43636e-24)
(0.024551 -0.0115591 5.15037e-22)
(0.0275183 -0.0117899 -5.14784e-22)
(0.0305167 -0.0119186 -6.77653e-24)
(0.0335259 -0.0119533 0)
(0.0365268 -0.0119025 3.58831e-25)
(0.0395018 -0.0117749 0)
(0.0424351 -0.011579 3.49797e-24)
(0.0453123 -0.0113236 2.89204e-25)
(0.0481211 -0.0110175 2.01809e-24)
(0.0508508 -0.0106691 -9.29068e-23)
(0.0534924 -0.0102864 9.16279e-23)
(0.0560387 -0.00987679 0)
(0.0584841 -0.00944718 -1.25041e-23)
(0.0608244 -0.00900396 1.30547e-23)
(0.0630569 -0.0085529 0)
(0.0651799 -0.0080992 -1.38581e-25)
(0.0671933 -0.00764744 1.12422e-23)
(0.0690976 -0.00720163 -2.54083e-23)
(0.0708945 -0.00676522 3.08109e-23)
(0.0725862 -0.00634108 -3.50027e-23)
(0.0741758 -0.00593158 3.8146e-23)
(0.0756668 -0.0055386 -1.97726e-23)
(0.0770631 -0.00516356 -1.04282e-23)
(0.0783689 -0.00480747 9.12937e-24)
(0.0795887 -0.00447098 6.22861e-25)
(0.0807272 -0.00415436 1.02392e-23)
(0.081789 -0.00385765 -2.13766e-23)
(0.0827787 -0.0035806 9.8926e-24)
(0.0837011 -0.00332274 3.48237e-26)
(0.0845606 -0.00308346 -5.79657e-25)
(0.0853615 -0.00286195 -2.81632e-26)
(0.0861081 -0.0026573 5.25968e-25)
(0.0868042 -0.00246838 -9.74186e-25)
(-0.000607196 0.00165569 -1.9003e-24)
(-0.00128694 0.00293521 -2.57953e-23)
(-0.00102429 0.00299956 -2.4874e-23)
(-0.000339457 0.00223508 -2.4011e-23)
(0.000659634 0.00101087 -4.56034e-23)
(0.0018769 -0.000464715 -6.81317e-25)
(0.00327475 -0.00207661 2.0971e-23)
(0.0048578 -0.00371161 -2.06879e-23)
(0.00660821 -0.00531865 -1.97384e-23)
(0.00851625 -0.00684936 2.27313e-21)