/*--------------------------------*- C++ -*----------------------------------*\
| =========                 |                                                 |
| \\      /  F ield         | OpenFOAM: The Open Source CFD Toolbox           |
|  \\    /   O peration     | Version:  2412                                  |
|   \\  /    A nd           | Website:  www.openfoam.com                      |
|    \\/     M anipulation  |                                                 |
\*---------------------------------------------------------------------------*/
FoamFile
{
    version     2.0;
    format      ascii;
    arch        "LSB;label=32;scalar=64";
    class       volVectorField;
    location    "17";
    object      vorticity;
}
// * * * * * * * * * * * * * * * * * * * * * * * * * * * * * * * * * * * * * //

dimensions      [0 0 -1 0 0 0 0];

internalField   nonuniform List<vector> 
63420
(
(0 0 5.88698e-06)
(0 0 5.83449e-06)
(0 0 5.71073e-06)
(0 0 5.84891e-06)
(0 0 6.95176e-06)
(0 0 9.5263e-06)
(0 0 1.31904e-05)
(0 0 1.65384e-05)
(0 0 1.7763e-05)
(0 0 1.5593e-05)
(0 0 9.92372e-06)
(0 0 1.81878e-06)
(0 0 -7.0017e-06)
(0 0 -1.48312e-05)
(0 0 -2.04813e-05)
(0 0 -2.34776e-05)
(0 0 -2.39792e-05)
(0 0 -2.25484e-05)
(0 0 -1.9897e-05)
(0 0 -1.66925e-05)
(0 0 -1.34501e-05)
(0 0 -1.05016e-05)
(0 0 -8.01479e-06)
(0 0 -6.03519e-06)
(0 0 -4.53155e-06)
(0 0 -3.43375e-06)
(0 0 -2.65944e-06)
(0 0 -2.13002e-06)
(0 0 -1.77849e-06)
(0 0 -1.55177e-06)
(0 0 -1.41005e-06)
(0 0 -1.32469e-06)
(0 0 -1.27578e-06)
(0 0 -1.24986e-06)
(0 0 -1.23805e-06)
(0 0 -1.23458e-06)
(0 0 -1.23578e-06)
(0 0 -1.23936e-06)
(0 0 -1.24388e-06)
(0 0 -1.24843e-06)
(0 0 -1.25248e-06)
(0 0 -1.25568e-06)
(0 0 -1.25779e-06)
(0 0 -1.25867e-06)
(0 0 -1.25821e-06)
(0 0 -1.25629e-06)
(0 0 -1.25274e-06)
(0 0 -1.24715e-06)
(0 0 -1.23811e-06)
(0 0 -1.2208e-06)
(0 0 -1.1786e-06)
(0 0 -1.05571e-06)
(0 0 -6.71083e-07)
(0 0 5.43641e-07)
(0 4.5074e-23 4.3122e-06)
(0 0 1.76579e-05)
(0 0 1.75034e-05)
(0 0 1.71353e-05)
(0 0 1.75457e-05)
(0 0 2.08315e-05)
(0 0 2.85118e-05)
(0 0 3.94598e-05)
(0 0 4.9495e-05)
(0 0 5.32293e-05)
(0 0 4.68613e-05)
(0 0 3.00593e-05)
(0 0 5.97335e-06)
(0 0 -2.02828e-05)
(0 0 -4.36265e-05)
(0 0 -6.05111e-05)
(0 0 -6.95117e-05)
(0 0 -7.10903e-05)
(0 0 -6.69114e-05)
(0 0 -5.90885e-05)
(0 0 -4.96061e-05)
(0 0 -3.99974e-05)
(0 0 -3.1252e-05)
(0 0 -2.38711e-05)
(0 0 -1.79926e-05)
(0 0 -1.35256e-05)
(0 0 -1.02631e-05)
(0 0 -7.96145e-06)
(0 0 -6.3876e-06)
(0 0 -5.3428e-06)
(0 0 -4.66949e-06)
(0 0 -4.24944e-06)
(0 0 -3.99751e-06)
(0 0 -3.8545e-06)
(0 0 -3.78035e-06)
(0 0 -3.74858e-06)
(0 0 -3.74204e-06)
(0 0 -3.74977e-06)
(0 0 -3.7649e-06)
(0 0 -3.78313e-06)
(0 0 -3.80178e-06)
(0 0 -3.81919e-06)
(0 0 -3.83431e-06)
(0 0 -3.84646e-06)
(0 0 -3.85516e-06)
(0 0 -3.86006e-06)
(0 0 -3.86079e-06)
(0 0 -3.85687e-06)
(0 0 -3.84704e-06)
(0 0 -3.82725e-06)
(0 0 -3.78353e-06)
(0 0 -3.66771e-06)
(0 0 -3.31803e-06)
(0 0 -2.20876e-06)
(0 0 1.31385e-06)
(0 4.55406e-23 1.22744e-05)
(0 0 2.94161e-05)
(0 0 2.91619e-05)
(0 0 2.8553e-05)
(0 0 2.92239e-05)
(0 0 3.46439e-05)
(0 0 4.73504e-05)
(0 0 6.55239e-05)
(0 0 8.22907e-05)
(0 0 8.87478e-05)
(0 0 7.85732e-05)
(0 0 5.11511e-05)
(0 0 1.16185e-05)
(0 0 -3.16209e-05)
(0 0 -7.01825e-05)
(0 0 -9.81905e-05)
(0 0 -0.000113257)
(0 0 -0.000116104)
(0 0 -0.000109448)
(0 0 -9.6755e-05)
(0 0 -8.12878e-05)
(0 0 -6.55742e-05)
(0 0 -5.12497e-05)
(0 0 -3.91469e-05)
(0 0 -2.94997e-05)
(0 0 -2.2164e-05)
(0 0 -1.68035e-05)
(0 0 -1.30198e-05)
(0 0 -1.04315e-05)
(0 0 -8.71265e-06)
(0 0 -7.60466e-06)
(0 0 -6.9133e-06)
(0 0 -6.4987e-06)
(0 0 -6.26352e-06)
(0 0 -6.14186e-06)
(0 0 -6.09014e-06)
(0 0 -6.08013e-06)
(0 0 -6.09381e-06)
(0 0 -6.11982e-06)
(0 0 -6.15109e-06)
(0 0 -6.1832e-06)
(0 0 -6.21341e-06)
(0 0 -6.23999e-06)
(0 0 -6.26181e-06)
(0 0 -6.27807e-06)
(0 0 -6.28819e-06)
(0 0 -6.29159e-06)
(0 0 -6.28747e-06)
(0 0 -6.27385e-06)
(0 0 -6.24443e-06)
(0 0 -6.17758e-06)
(0 0 -5.99868e-06)
(0 0 -5.45666e-06)
(0 0 -3.73259e-06)
(0 0 1.75997e-06)
(0 2.68762e-22 1.89108e-05)
(0 0 4.11532e-05)
(0 0 4.0803e-05)
(0 0 3.99592e-05)
(0 0 4.08714e-05)
(0 0 4.83472e-05)
(0 0 6.59507e-05)
(0 0 9.12539e-05)
(0 0 0.000114821)
(0 0 0.000124342)
(0 0 0.000110987)
(0 0 7.37687e-05)
(0 0 1.96494e-05)
(0 0 -3.98439e-05)
(0 0 -9.31444e-05)
(0 0 -0.000132095)
(0 0 -0.000153322)
(0 0 -0.000157747)
(0 0 -0.000149048)
(0 0 -0.000131968)
(0 0 -0.000110988)
(0 0 -8.95898e-05)
(0 0 -7.0037e-05)
(0 0 -5.34896e-05)
(0 0 -4.02833e-05)
(0 0 -3.02316e-05)
(0 0 -2.28804e-05)
(0 0 -1.76878e-05)
(0 0 -1.41333e-05)
(0 0 -1.17714e-05)
(0 0 -1.02478e-05)
(0 0 -9.29645e-06)
(0 0 -8.72544e-06)
(0 0 -8.40116e-06)
(0 0 -8.2331e-06)
(0 0 -8.16141e-06)
(0 0 -8.14726e-06)
(0 0 -8.16587e-06)
(0 0 -8.20162e-06)
(0 0 -8.24478e-06)
(0 0 -8.28926e-06)
(0 0 -8.33131e-06)
(0 0 -8.36852e-06)
(0 0 -8.39933e-06)
(0 0 -8.42267e-06)
(0 0 -8.43771e-06)
(0 0 -8.4437e-06)
(0 0 -8.43954e-06)
(0 0 -8.42272e-06)
(0 0 -8.38533e-06)
(0 0 -8.3004e-06)
(0 0 -8.07496e-06)
(0 0 -7.39554e-06)
(0 0 -5.23444e-06)
(0 0 1.67723e-06)
(0 -1.76454e-22 2.3387e-05)
(0 0 5.28614e-05)
(0 0 5.24196e-05)
(0 0 5.13485e-05)
(0 0 5.24768e-05)
(0 0 6.19039e-05)
(0 0 8.42313e-05)
(0 0 0.000116533)
(0 0 0.000146987)
(0 0 0.000160016)
(0 0 0.000144311)
(0 0 9.83867e-05)
(0 0 3.08228e-05)
(0 0 -4.3953e-05)
(0 0 -0.000111352)
(0 0 -0.000161)
(0 0 -0.000188512)
(0 0 -0.000194917)
(0 0 -0.000184752)
(0 0 -0.000163927)
(0 0 -0.000138058)
(0 0 -0.000111534)
(0 0 -8.72193e-05)
(0 0 -6.6596e-05)
(0 0 -5.01097e-05)
(0 0 -3.75449e-05)
(0 0 -2.83457e-05)
(0 0 -2.18415e-05)
(0 0 -1.73853e-05)
(0 0 -1.44214e-05)
(0 0 -1.25078e-05)
(0 0 -1.13115e-05)
(0 0 -1.05924e-05)
(0 0 -1.01831e-05)
(0 0 -9.97017e-06)
(0 0 -9.87844e-06)
(0 0 -9.85923e-06)
(0 0 -9.88142e-06)
(0 0 -9.92539e-06)
(0 0 -9.97889e-06)
(0 0 -1.00343e-05)
(0 0 -1.00869e-05)
(0 0 -1.01336e-05)
(0 0 -1.01725e-05)
(0 0 -1.02023e-05)
(0 0 -1.02219e-05)
(0 0 -1.02303e-05)
(0 0 -1.02263e-05)
(0 0 -1.0207e-05)
(0 0 -1.01638e-05)
(0 0 -1.00671e-05)
(0 0 -9.81613e-06)
(0 0 -9.07084e-06)
(0 0 -6.71015e-06)
(0 0 8.72254e-07)
(0 8.71093e-23 2.49285e-05)
(0 0 6.4534e-05)
(0 0 6.4004e-05)
(0 0 6.27151e-05)
(0 0 6.40297e-05)
(0 0 7.5282e-05)
(0 0 0.000102123)
(0 0 0.00014126)
(0 0 0.000178696)
(0 0 0.000195757)
(0 0 0.000178683)
(0 0 0.000125356)
(0 0 4.57154e-05)
(0 0 -4.31756e-05)
(0 0 -0.0001239)
(0 0 -0.000183943)
(0 0 -0.000217881)
(0 0 -0.000226747)
(0 0 -0.0002158)
(0 0 -0.000191993)
(0 0 -0.000161985)
(0 0 -0.000131004)
(0 0 -0.000102484)
(0 0 -7.82274e-05)
(0 0 -5.87955e-05)
(0 0 -4.39613e-05)
(0 0 -3.30856e-05)
(0 0 -2.53867e-05)
(0 0 -2.01061e-05)
(0 0 -1.65899e-05)
(0 0 -1.43169e-05)
(0 0 -1.28938e-05)
(0 0 -1.20367e-05)
(0 0 -1.15473e-05)
(0 0 -1.12912e-05)
(0 0 -1.11794e-05)
(0 0 -1.1154e-05)
(0 0 -1.11782e-05)
(0 0 -1.12285e-05)
(0 0 -1.12905e-05)
(0 0 -1.13551e-05)
(0 0 -1.14166e-05)
(0 0 -1.14715e-05)
(0 0 -1.15175e-05)
(0 0 -1.15528e-05)
(0 0 -1.15764e-05)
(0 0 -1.15871e-05)
(0 0 -1.15835e-05)
(0 0 -1.15627e-05)
(0 0 -1.15158e-05)
(0 0 -1.14141e-05)
(0 0 -1.11604e-05)
(0 0 -1.04299e-05)
(0 0 -8.15145e-06)
(0 0 -8.3195e-07)
(0 4.29809e-22 2.27804e-05)
(0 0 7.61621e-05)
(0 0 7.55478e-05)
(0 0 7.40523e-05)
(0 0 7.55202e-05)
(0 0 8.84564e-05)
(0 0 0.000119571)
(0 0 0.000165353)
(0 0 0.000209861)
(0 0 0.000231525)
(0 0 0.000214169)
(0 0 0.000154885)
(0 0 6.46952e-05)
(0 0 -3.70016e-05)
(0 0 -0.000130177)
(0 0 -0.000200269)
(0 0 -0.000240778)
(0 0 -0.00025263)
(0 0 -0.00024166)
(0 0 -0.000215724)
(0 0 -0.000182409)
(0 0 -0.000147716)
(0 0 -0.000115616)
(0 0 -8.82196e-05)
(0 0 -6.62166e-05)
(0 0 -4.93859e-05)
(0 0 -3.70258e-05)
(0 0 -2.82634e-05)
(0 0 -2.2245e-05)
(0 0 -1.82321e-05)
(0 0 -1.56341e-05)
(0 0 -1.40046e-05)
(0 0 -1.30206e-05)
(0 0 -1.24567e-05)
(0 0 -1.21595e-05)
(0 0 -1.20275e-05)
(0 0 -1.19947e-05)
(0 0 -1.20189e-05)
(0 0 -1.20736e-05)
(0 0 -1.21419e-05)
(0 0 -1.22137e-05)
(0 0 -1.22823e-05)
(0 0 -1.23438e-05)
(0 0 -1.23955e-05)
(0 0 -1.24355e-05)
(0 0 -1.24624e-05)
(0 0 -1.24751e-05)
(0 0 -1.2472e-05)
(0 0 -1.24502e-05)
(0 0 -1.24018e-05)
(0 0 -1.23012e-05)
(0 0 -1.20653e-05)
(0 0 -1.14255e-05)
(0 0 -9.52262e-06)
(0 0 -3.57833e-06)
(0 -8.40895e-23 1.60806e-05)
(-1.65488e-23 7.96143e-21 2.47172e-06)
(-1.46883e-22 7.82813e-21 1.90098e-06)
(3.32046e-23 -1.96704e-22 1.12568e-06)
(3.66454e-23 -2.33746e-20 1.0358e-07)
(-9.22152e-23 7.98655e-21 -1.20332e-06)
(3.62827e-22 7.84501e-21 -2.82879e-06)
(-7.91662e-22 2.28717e-20 -4.80342e-06)
(3.10127e-22 -2.32417e-20 -7.15776e-06)
(6.2508e-22 -7.47827e-21 -9.9251e-06)
(-8.9423e-22 -3.70431e-24 -1.31434e-05)
(-8.94313e-22 -7.49474e-21 -1.68561e-05)
(7.83432e-22 7.11897e-21 -2.11134e-05)
(5.61612e-22 -5.86638e-20 -2.59721e-05)
(-1.03553e-21 1.25953e-19 -3.14947e-05)
(3.54902e-22 -6.77663e-20 -3.77452e-05)
(-1.22768e-21 -5.10986e-20 -4.47777e-05)
(2.34767e-21 -6.50656e-20 -5.26364e-05)
(-1.84521e-21 7.6699e-21 -6.13689e-05)
(-1.89024e-22 -7.15575e-21 -7.10341e-05)
(7.30714e-23 7.16144e-21 -8.16681e-05)
(-3.12808e-24 -1.27943e-22 -9.32812e-05)
(-6.81527e-23 -6.909e-21 -0.000105876)
(-1.9981e-21 6.97015e-21 -0.000119454)
(4.18165e-21 1.2846e-23 -0.000134017)
(1.2213e-21 6.76896e-21 -0.000149584)
(-3.2579e-21 -5.28981e-24 -0.000166206)
(4.68941e-21 7.86573e-21 -0.000183982)
(-5.4841e-21 1.02065e-19 -0.000203086)
(6.6729e-22 -1.09602e-19 -0.000223793)
(-2.10475e-21 1.00162e-19 -0.000246523)
(2.04995e-21 -1.01299e-19 -0.000271895)
(4.82357e-23 1.33382e-21 -0.000300829)
(-6.27967e-23 -1.63785e-21 -0.000334721)
(2.74104e-21 -9.59708e-20 -0.000375761)
(-8.58976e-21 9.31408e-20 -0.000427503)
(-3.14897e-22 -1.53954e-21 -0.000495895)
(6.17192e-21 1.34986e-23 -0.000591059)
(6.71184e-21 1.46795e-23 -0.000730269)
(-6.69036e-21 -1.46325e-23 -0.000942732)
(-2.21873e-22 -4.85259e-25 -0.00127683)
(-2.31394e-22 -5.06082e-25 -0.00181044)
(-7.96711e-21 -1.74249e-23 -0.00266431)
(7.6903e-21 1.68195e-23 -0.0040175)
(-2.54041e-22 1.51189e-22 -0.00612177)
(-3.11757e-23 7.82712e-21 -0.00930896)
(-2.46382e-20 5.06872e-20 -0.0139827)
(2.37305e-20 -6.67889e-20 -0.0205809)
(-5.56366e-21 -9.51218e-21 -0.029496)
(6.11603e-21 2.59597e-20 -0.0409443)
(-2.03532e-20 -5.68209e-21 -0.0547055)
(-2.57257e-22 7.97368e-21 7.07981e-06)
(-1.02836e-22 1.56856e-20 5.30035e-06)
(3.03862e-22 7.62977e-21 2.85633e-06)
(-8.69437e-22 -7.84128e-21 -3.79169e-07)
(1.61428e-21 7.47953e-21 -4.5145e-06)
(-5.02983e-22 -5.35765e-20 -9.6433e-06)
(-2.09493e-22 8.5079e-20 -1.58529e-05)
(-5.72222e-23 -8.86439e-21 -2.32331e-05)
(2.15632e-21 -9.79898e-20 -3.18838e-05)
(-2.23744e-21 1.38359e-19 -4.19202e-05)
(-8.11038e-22 1.26432e-19 -5.34767e-05)
(5.96539e-22 -1.13751e-19 -6.67086e-05)
(-3.9091e-22 7.33019e-22 -8.17921e-05)
(2.78783e-21 -7.24528e-21 -9.89223e-05)
(-2.1688e-21 2.4098e-20 -0.0001183)
(-5.91198e-21 2.39359e-19 -0.000140097)
(1.58979e-21 -2.25115e-19 -0.000164449)
(-5.52849e-21 2.41253e-19 -0.000191522)
(-2.91313e-22 1.95259e-20 -0.00022151)
(-3.8186e-21 -7.31983e-21 -0.000254549)
(4.03578e-21 1.44373e-22 -0.00029069)
(-4.0471e-21 9.09536e-21 -0.00032996)
(1.0595e-21 2.09653e-19 -0.00037239)
(5.79441e-21 -4.43973e-19 -0.000418028)
(4.42952e-21 -2.1214e-19 -0.000466968)
(-6.86473e-21 4.29443e-19 -0.000519404)
(3.50228e-21 -4.28357e-19 -0.000575687)
(-1.83455e-21 4.39527e-19 -0.00063639)
(3.26989e-21 1.45396e-21 -0.000702404)
(-3.70109e-21 -9.69865e-23 -0.000775052)
(-1.24354e-21 -2.71974e-24 -0.000856273)
(0 0 -0.000948918)
(1.83834e-22 9.54066e-23 -0.00105729)
(1.09935e-20 1.23158e-20 -0.00118808)
(-1.55109e-20 3.59605e-19 -0.00135214)
(-1.56947e-20 -2.40473e-20 -0.00156761)
(1.83382e-20 -3.54826e-19 -0.00186528)
(2.62907e-20 -3.06802e-19 -0.00229765)
(-9.16595e-21 3.27749e-19 -0.00295347)
(-3.10565e-20 2.17896e-21 -0.0039796)
(3.0347e-20 1.7304e-20 -0.00561214)
(-4.18802e-20 2.34154e-19 -0.00821683)
(2.25843e-20 -2.43563e-19 -0.0123354)
(-1.79781e-20 1.46469e-20 -0.0187285)
(1.99324e-20 7.71654e-21 -0.0283982)
(-5.97739e-20 1.13404e-19 -0.0425619)
(5.97018e-20 -1.11e-19 -0.0625375)
(-9.19589e-20 8.29769e-20 -0.089485)
(8.87405e-20 -9.26426e-20 -0.123984)
(-1.87885e-20 -6.36637e-22 -0.163992)
(-3.49935e-23 4.72367e-20 1.13237e-05)
(-8.39039e-23 1.49348e-20 8.11873e-06)
(3.68654e-22 -6.18759e-20 3.62716e-06)
(-7.80683e-22 1.23107e-19 -2.35008e-06)
(1.72464e-21 -2.6356e-19 -9.96932e-06)
(4.08703e-22 1.25336e-19 -1.93641e-05)
(-2.44401e-21 -8.68572e-22 -3.06657e-05)
(1.55825e-21 -1.70396e-20 -4.40189e-05)
(1.42474e-21 -2.57258e-19 -5.95928e-05)
(7.94756e-22 2.45147e-19 -7.75886e-05)
(-8.56625e-22 -1.62533e-21 -9.82437e-05)
(-4.20787e-21 -1.5707e-23 -0.000121835)
(6.6763e-21 -1.84897e-21 -0.000148677)
(-4.01435e-21 -2.51031e-19 -0.000179122)
(5.2167e-21 2.28156e-19 -0.000213536)
(-1.1318e-20 4.53395e-19 -0.00025224)
(-4.85052e-21 -1.21196e-20 -0.000295501)
(-4.61156e-21 4.66549e-19 -0.00034364)
(4.06439e-22 -1.41638e-20 -0.000397046)
(-1.227e-20 4.53193e-19 -0.000456016)
(1.21843e-20 -4.7068e-19 -0.000520707)
(-9.04778e-21 4.4959e-19 -0.000591257)
(2.25096e-21 -4.67644e-19 -0.000667823)
(5.22727e-21 -9.32191e-21 -0.000750601)
(-2.59172e-21 1.37094e-20 -0.000839886)
(5.5437e-21 -8.82724e-21 -0.000936153)
(-1.87025e-20 4.21803e-19 -0.00104016)
(1.67899e-20 -4.49597e-19 -0.00115304)
(1.8264e-20 -4.17889e-19 -0.00127652)
(-1.49567e-20 4.19844e-19 -0.00141302)
(-1.08519e-21 -5.18118e-21 -0.00156606)
(1.12335e-20 -1.21573e-22 -0.00174071)
(-1.28645e-20 -2.48184e-20 -0.0019445)
(5.28266e-20 -7.64187e-19 -0.00218907)
(1.66506e-20 5.62024e-20 -0.00249311)
(-6.98218e-20 7.19869e-19 -0.00288772)
(3.96707e-21 -1.23716e-20 -0.00342556)
(-1.14649e-20 -4.88858e-21 -0.00419632)
(1.09897e-19 -6.05195e-19 -0.00535132)
(-2.04433e-19 1.18891e-18 -0.00714078)
(2.08634e-19 -1.18192e-18 -0.00996634)
(7.16108e-20 8.51698e-20 -0.0144491)
(-1.5728e-19 5.17937e-19 -0.0215077)
(-1.65413e-19 3.57741e-19 -0.0324309)
(1.56284e-19 -4.24104e-19 -0.0489162)
(-2.23189e-20 1.9555e-20 -0.073029)
(5.51413e-20 -1.74148e-20 -0.107004)
(1.65742e-19 -1.0302e-19 -0.152766)
(-1.79391e-19 1.60731e-19 -0.211088)
(-2.54911e-20 -4.11742e-20 -0.273982)
(4.0099e-22 -3.1151e-20 1.48592e-05)
(-3.64195e-22 1.57536e-20 9.72098e-06)
(6.91724e-22 -1.71805e-22 2.37565e-06)
(-6.20128e-22 -1.55003e-20 -7.38572e-06)
(-9.65991e-22 -1.44874e-21 -1.97112e-05)
(3.29832e-21 -2.43313e-19 -3.47412e-05)
(-4.6245e-21 4.60787e-19 -5.26385e-05)
(2.2528e-21 -2.48119e-19 -7.36046e-05)
(-1.82679e-21 1.4969e-20 -9.7891e-05)
(4.80748e-21 -2.71734e-19 -0.000125805)
(-5.81073e-21 2.4797e-19 -0.000157714)
(-4.02216e-21 4.73426e-19 -0.000194047)
(1.06106e-20 -9.57907e-19 -0.000235297)
(-1.28115e-20 9.56956e-19 -0.000282014)
(1.70646e-20 -9.52567e-19 -0.000334778)
(-1.11364e-20 9.44159e-19 -0.000394121)
(-9.83083e-21 4.80258e-19 -0.000460505)
(-7.08671e-22 -3.7847e-21 -0.000534487)
(4.52888e-21 3.93112e-21 -0.00061675)
(-7.52431e-21 4.43212e-19 -0.000707851)
(-2.1092e-21 -4.65487e-19 -0.00080819)
(1.48631e-20 1.2808e-20 -0.000918163)
(-3.34244e-20 8.94004e-19 -0.00103822)
(2.52379e-20 -8.97012e-19 -0.00116892)
(2.27629e-21 -5.33897e-21 -0.00131096)
(-9.80211e-21 -9.14113e-23 -0.00146535)
(1.48883e-20 -1.35652e-20 -0.00163356)
(-4.8422e-21 1.24168e-22 -0.00181761)
(-5.32128e-21 -6.51902e-23 -0.00202039)
(5.06395e-21 1.96832e-22 -0.00224587)
(-3.73385e-21 1.42366e-21 -0.0024996)
(6.28459e-20 -7.93722e-19 -0.00278938)
(-5.69046e-20 8.16341e-19 -0.0031266)
(-1.61568e-20 1.94416e-22 -0.00352852)
(1.88105e-20 -1.03442e-20 -0.00402258)
(-9.87603e-20 7.29489e-19 -0.00465396)
(1.1543e-19 -7.3275e-19 -0.00549887)
(-2.28665e-20 2.2238e-21 -0.00668675)
(1.61549e-20 -9.20166e-23 -0.00843576)
(3.84116e-20 6.48366e-21 -0.0111064)
(-2.48787e-19 5.48314e-19 -0.0152767)
(3.68711e-19 -1.11184e-18 -0.0218403)
(-1.80043e-19 5.635e-19 -0.0321181)
(2.62403e-19 -4.31681e-19 -0.0479664)
(-2.53941e-19 5.0859e-19 -0.0718426)
(-5.9313e-19 5.25422e-19 -0.106767)
(1.1204e-18 -1.11361e-18 -0.156055)
(-5.48817e-19 5.62439e-19 -0.222559)
(1.89455e-20 -2.18628e-21 -0.307059)
(4.571e-21 -3.52636e-20 -0.38796)
(-7.35569e-22 1.58346e-20 1.71732e-05)
(-2.74165e-22 6.06356e-20 8.99521e-06)
(1.9711e-21 -1.84124e-19 -2.74193e-06)
(-1.307e-21 2.47102e-19 -1.80722e-05)
(-2.72417e-22 -1.09429e-19 -3.70487e-05)
(1.11393e-22 -1.46259e-20 -5.97946e-05)
(-4.73102e-22 1.54214e-20 -8.65127e-05)
(3.04029e-21 -1.87363e-22 -0.000117488)
(-2.89433e-21 -1.50753e-20 -0.000153088)
(-5.25945e-21 3.38207e-20 -0.00019377)
(-6.8999e-21 4.81498e-19 -0.000240076)
(1.83922e-20 -5.00457e-19 -0.00029264)
(-2.27307e-20 4.66928e-19 -0.00035219)
(1.89132e-20 -4.8572e-19 -0.000419543)
(-3.01866e-21 3.41125e-21 -0.000495571)
(1.10318e-20 4.77831e-23 -0.000581105)
(4.19563e-21 3.73036e-21 -0.000676909)
(-5.14255e-21 4.53913e-19 -0.000783903)
(2.0154e-20 -4.91221e-19 -0.000903204)
(6.36933e-21 2.70044e-20 -0.00103581)
(-4.5549e-20 9.36172e-19 -0.00118256)
(2.8831e-20 -9.38876e-19 -0.00134434)
(1.0223e-20 2.26909e-20 -0.00152219)
(-1.81182e-20 -2.34184e-22 -0.00171729)
(1.18555e-20 9.67577e-21 -0.00193115)
(-3.84192e-20 9.00235e-19 -0.00216573)
(3.16188e-20 -8.91813e-19 -0.00242364)
(2.84853e-21 9.66064e-21 -0.00270835)
(9.60314e-21 2.73343e-20 -0.00302453)
(-1.15551e-20 -5.51896e-22 -0.00337837)
(1.17363e-21 -1.3076e-20 -0.00377823)
(-3.74671e-20 1.32804e-20 -0.00423553)
(3.52729e-20 1.26538e-20 -0.00476647)
(-3.14834e-21 -2.5369e-20 -0.00539501)
(8.21673e-20 -7.42947e-19 -0.00615846)
(-7.31481e-20 7.65773e-19 -0.00711742)
(2.69453e-19 -1.47435e-18 -0.00837322)
(-2.46901e-19 1.48865e-18 -0.0100973)
(3.06708e-19 -1.3939e-18 -0.0125782)
(7.21695e-20 1.32284e-19 -0.016293)
(-3.53032e-19 1.32846e-18 -0.0220079)
(-1.2156e-19 -2.23182e-20 -0.0309089)
(1.65447e-20 3.87863e-22 -0.0447551)
(-1.8463e-20 5.63967e-22 -0.0660355)
(5.45233e-20 1.67419e-21 -0.0980944)
(2.62521e-20 1.3681e-20 -0.145168)
(-1.13826e-19 5.17459e-21 -0.212171)
(6.4804e-20 5.0184e-21 -0.303706)
(-1.66237e-22 -3.12086e-22 -0.421069)
(3.62791e-20 6.43727e-22 -0.516283)
(-7.01371e-22 7.63211e-20 1.74961e-05)
(1.6471e-21 -4.654e-20 3.8295e-06)
(-1.67709e-21 -1.6413e-20 -1.50373e-05)
(4.65485e-21 -2.28044e-19 -3.86931e-05)
(-2.26433e-21 2.29925e-19 -6.70918e-05)
(2.0066e-21 -2.27518e-19 -0.000100397)
(-1.09363e-20 5.01729e-19 -0.00013892)
(1.15091e-20 -7.02696e-19 -0.000183097)
(-7.42469e-21 4.96931e-19 -0.00023348)
(-5.86512e-21 4.84432e-19 -0.00029074)
(-2.20366e-21 3.95068e-21 -0.000355665)
(2.43317e-20 -9.5168e-19 -0.000429171)
(-2.12316e-20 9.9047e-19 -0.000512303)
(5.04597e-21 -4.6602e-19 -0.000606241)
(1.20494e-20 -4.6831e-19 -0.000712261)
(2.23988e-20 -4.6083e-19 -0.000831624)
(-3.23598e-21 6.70556e-21 -0.000965547)
(3.82688e-20 -9.55692e-19 -0.0011155)
(2.95448e-20 -9.17615e-19 -0.00128324)
(6.58414e-21 2.12156e-20 -0.00147046)
(-2.65534e-20 9.53139e-19 -0.00167874)
(-2.01997e-20 -8.10923e-21 -0.0019098)
(1.2333e-20 8.97885e-21 -0.00216565)
(-5.06516e-20 9.23129e-19 -0.00244861)
(4.10989e-20 -9.3776e-19 -0.00276152)
(7.27366e-20 -9.00855e-19 -0.00310791)
(-7.39682e-20 9.30572e-19 -0.00349226)
(1.51229e-20 -2.00861e-20 -0.00392034)
(6.7552e-20 -8.98382e-19 -0.00439954)
(-9.54e-20 9.21336e-19 -0.00493938)
(4.39021e-21 1.23977e-20 -0.00555225)
(-2.06924e-19 1.68801e-18 -0.00625458)
(1.86984e-19 -1.75134e-18 -0.00706884)
(4.87001e-20 6.2293e-20 -0.00802721)
(-2.6718e-19 1.59861e-18 -0.00917828)
(2.44783e-19 -1.6669e-18 -0.0105992)
(-3.17348e-20 -3.33412e-21 -0.0124169)
(4.72632e-19 -1.50398e-18 -0.0148448)
(-4.42304e-19 1.55328e-18 -0.0182416)
(-6.66373e-20 -7.28628e-20 -0.0232014)
(6.80829e-19 -1.31371e-18 -0.0306832)
(-1.19794e-18 2.70981e-18 -0.0421804)
(-6.67693e-20 -1.55757e-19 -0.0599253)
(-8.94027e-20 -1.22132e-19 -0.0871144)
(7.74641e-19 -1.1809e-18 -0.128143)
(3.97499e-20 6.3388e-20 -0.188868)
(-8.76132e-19 7.83796e-19 -0.276899)
(8.59089e-19 -8.61866e-19 -0.401368)
(9.40364e-21 2.91427e-20 -0.568808)
(9.4296e-21 -2.75733e-21 -0.684159)
(6.05934e-22 -1.5898e-20 1.48135e-05)
(1.65538e-21 -1.35589e-19 -1.01424e-05)
(-1.78172e-21 1.22287e-19 -4.02261e-05)
(-1.281e-21 -1.72227e-20 -7.55134e-05)
(5.29616e-21 -2.26638e-19 -0.000116263)
(-4.8834e-21 2.3312e-19 -0.000162857)
(-5.70915e-21 4.70906e-19 -0.000215812)
(-5.12634e-21 -1.94543e-20 -0.000275765)
(2.22429e-21 -4.56224e-21 -0.000343479)
(1.43594e-20 -5.02195e-19 -0.000419846)
(-1.16778e-20 4.69935e-19 -0.000505899)
(1.74837e-20 -9.94255e-19 -0.000602818)
(-3.92578e-21 4.97024e-19 -0.000711942)
(-3.6708e-21 -1.87108e-20 -0.000834773)
(-4.89631e-21 -2.2395e-20 -0.000972941)
(2.8308e-20 -9.75786e-19 -0.00112807)
(-1.60967e-21 -2.01347e-20 -0.00130176)
(2.7172e-20 -9.93979e-19 -0.0014959)
(-5.43543e-21 -7.70316e-21 -0.00171278)
(-1.70229e-22 1.19862e-22 -0.00195458)
(1.15001e-20 8.47469e-21 -0.00222338)
(-5.28214e-20 9.56638e-19 -0.00252143)
(4.7056e-20 -9.77204e-19 -0.00285128)
(1.28351e-20 8.37886e-21 -0.00321581)
(-8.75671e-21 -1.49794e-20 -0.00361839)
(-6.20101e-21 9.95167e-21 -0.00406306)
(-7.40062e-20 9.2386e-19 -0.00455474)
(1.59101e-19 -1.88489e-18 -0.00509949)
(-7.53937e-20 9.83025e-19 -0.00570473)
(-1.91649e-19 1.82225e-18 -0.00637966)
(-3.05271e-20 -4.53974e-20 -0.00713567)
(2.67181e-21 -2.62816e-20 -0.00798728)
(-6.63995e-20 -5.37422e-20 -0.0089537)
(2.58867e-19 -1.82199e-18 -0.0100621)
(3.99394e-19 -1.68733e-18 -0.0113538)
(-3.56413e-19 1.77095e-18 -0.0128967)
(-3.41448e-20 -5.52355e-20 -0.0148072)
(4.73803e-19 -1.61462e-18 -0.0172907)
(-4.17723e-19 1.7102e-18 -0.0207082)
(-6.69934e-19 1.5199e-18 -0.0256839)
(5.69298e-19 -1.60519e-18 -0.0332641)
(7.87235e-20 -1.12923e-20 -0.0451361)
(8.72718e-19 -1.42005e-18 -0.0639048)
(1.22459e-19 1.22261e-19 -0.0934163)
(-1.00915e-18 1.39163e-18 -0.139132)
(-1.63519e-20 -3.98792e-20 -0.208633)
(3.37663e-20 5.2986e-22 -0.312962)
(-3.42384e-20 1.56572e-20 -0.471564)
(-5.17053e-19 5.41113e-19 -0.721928)
(5.08444e-19 -5.5026e-19 -0.992851)
(-1.0682e-20 -3.13527e-21 0.010303)
(-1.06516e-20 -6.02341e-22 0.0047611)
(9.98752e-21 1.00576e-20 8.18315e-05)
(-7.05876e-21 2.18022e-21 -0.00380991)
(7.57706e-21 -1.15199e-20 -0.00699572)
(2.58526e-23 3.42732e-21 -0.00956003)
(-1.66392e-22 -9.47631e-23 -0.0115827)
(-5.26942e-21 1.15247e-23 -0.0131352)
(5.12089e-21 -1.11999e-23 -0.0142802)
(-1.49344e-22 3.26631e-25 -0.0150721)
(-1.40599e-22 3.07504e-25 -0.0155593)
(3.99678e-21 -8.74136e-24 -0.0157851)
(-4.00963e-21 8.76945e-24 -0.0157874)
(-3.36796e-21 7.36606e-24 -0.0156009)
(3.56583e-22 -7.24427e-22 -0.0152575)
(5.76331e-21 1.77025e-20 -0.0147859)
(-2.58131e-21 -1.51082e-20 -0.0142117)
(-4.66691e-23 -6.82561e-22 -0.0135581)
(-1.51432e-23 4.18742e-22 -0.0128458)
(-2.62387e-21 -3.3631e-20 -0.0120931)
(2.64997e-21 3.31344e-20 -0.0113158)
(-2.00715e-21 -3.87432e-20 -0.0105273)
(8.83983e-22 2.49586e-21 -0.00973909)
(-9.69579e-22 8.22304e-24 -0.00896132)
(6.98493e-22 3.28765e-21 -0.00820312)
(-2.29556e-22 1.16797e-23 -0.00747123)
(-3.85813e-22 8.4381e-25 -0.00677076)
(1.6157e-22 -2.8644e-24 -0.00610572)
(2.29134e-22 4.25699e-21 -0.00547909)
(-2.98361e-24 2.46791e-24 -0.00489286)
(-2.1386e-22 -4.69461e-21 -0.00434815)
(2.06536e-22 4.90015e-21 -0.00384535)
(-2.55058e-22 -5.07583e-21 -0.00338419)
(1.01608e-21 4.81238e-20 -0.00296388)
(-9.40419e-22 -4.84642e-20 -0.00258314)
(-4.29568e-22 -3.9884e-20 -0.00224034)
(1.00585e-21 8.67526e-20 -0.00193355)
(-5.61384e-22 -4.70166e-20 -0.00166062)
(-7.63873e-23 -6.06206e-21 -0.00141925)
(7.38474e-23 6.23492e-21 -0.00120702)
(-5.01805e-23 3.33135e-26 -0.00102147)
(1.79502e-22 6.46288e-21 -0.00086017)
(-2.87381e-22 -3.31278e-20 -0.000720699)
(2.60283e-22 3.33212e-20 -0.000600727)
(-6.00354e-23 -6.81337e-21 -0.000498029)
(1.64808e-22 2.07709e-20 -0.000410501)
(2.07461e-23 -6.92327e-21 -0.000336177)
(-1.01155e-22 -1.41784e-20 -0.000273211)
(2.49144e-23 7.12564e-21 -0.000219869)
(-7.08271e-23 -7.23853e-21 -0.000174531)
(-1.54367e-20 2.52554e-20 0.0297986)
(3.0994e-20 -9.1096e-21 0.0133058)
(-2.50409e-20 -2.26884e-20 -0.000706041)
(6.91121e-21 2.1993e-20 -0.0122692)
(-7.355e-21 -2.14195e-20 -0.0216685)
(-1.22879e-20 6.09207e-21 -0.0291877)
(1.08092e-20 6.21904e-21 -0.0350825)
(4.4129e-21 6.02566e-21 -0.0395785)
(7.52485e-21 -1.7169e-20 -0.0428689)
(-2.10023e-20 5.74462e-21 -0.0451184)
(1.88351e-20 -4.92643e-21 -0.0464728)
(8.68361e-21 2.52322e-20 -0.0470602)
(-1.93545e-20 -1.30605e-20 -0.0469932)
(-2.1401e-20 -5.04162e-20 -0.0463759)
(5.96064e-21 -2.08065e-20 -0.045302)
(2.20525e-20 6.01409e-20 -0.043856)
(-5.75019e-21 2.16369e-21 -0.0421136)
(-9.18636e-22 -3.26823e-21 -0.0401431)
(8.78028e-24 -7.82359e-23 -0.0380049)
(3.90399e-22 -8.53841e-25 -0.0357527)
(1.06849e-21 1.5419e-23 -0.0334326)
(-1.35347e-21 -3.46391e-21 -0.0310839)
(2.39324e-20 1.81074e-19 -0.0287397)
(-2.65256e-20 -1.94918e-19 -0.0264301)
(2.51102e-20 2.17216e-19 -0.0241808)
(-1.31662e-20 -1.02061e-19 -0.0220124)
(-2.41414e-20 -2.45402e-19 -0.0199391)
(1.16986e-20 1.25981e-19 -0.0179724)
(5.39717e-24 -4.09955e-21 -0.0161207)
(-9.56644e-22 -9.1129e-21 -0.0143896)
(2.88561e-22 4.70364e-21 -0.0127822)
(-1.01623e-21 -1.47839e-20 -0.0112993)
(8.32342e-21 1.61538e-19 -0.00993997)
(-1.74202e-20 -3.45156e-19 -0.00870166)
(7.8181e-21 1.67582e-19 -0.00758049)
(-9.22475e-22 -1.70816e-20 -0.0065715)
(2.90227e-22 5.8141e-21 -0.0056689)
(-2.51417e-23 -6.58116e-23 -0.00486626)
(-3.47867e-21 -1.04805e-19 -0.00415669)
(2.9581e-21 9.27709e-20 -0.00353303)
(2.10941e-21 8.98558e-20 -0.00298802)
(-3.10722e-21 -1.22462e-19 -0.00251439)
(7.37381e-23 6.67959e-21 -0.00210501)
(6.30851e-22 3.38184e-20 -0.00175301)
(-1.3889e-21 -6.09274e-20 -0.0014518)
(2.05435e-23 -6.88374e-21 -0.0011952)
(-8.5538e-22 -4.90467e-20 -0.000977397)
(-1.59951e-22 -7.32963e-21 -0.000792936)
(2.01629e-22 1.41128e-20 -0.000636638)
(2.39098e-22 2.15946e-20 -0.000503505)
(-1.43832e-20 -1.02165e-21 0.0458958)
(-1.41053e-20 -1.58903e-20 0.0186984)
(3.63336e-20 2.98951e-20 -0.0045399)
(-4.39312e-20 -1.25758e-20 -0.023389)
(1.80893e-20 1.17153e-20 -0.0384837)
(1.24092e-20 9.05567e-21 -0.0504074)
(-3.59088e-21 -4.6225e-20 -0.0596375)
(3.82239e-20 7.65426e-21 -0.0665795)
(-2.50305e-20 4.64283e-20 -0.0715774)
(-6.22615e-20 -5.36758e-20 -0.0749103)
(1.00492e-19 5.78303e-20 -0.0768127)
(-6.03784e-20 -2.28636e-20 -0.0774947)
(5.11558e-21 -1.09827e-20 -0.0771436)
(-2.8939e-21 -7.03656e-21 -0.0759275)
(8.6501e-20 1.4729e-19 -0.0739971)
(-3.14968e-21 3.94308e-20 -0.071488)
(-8.04001e-20 -1.71584e-19 -0.0685218)
(8.89995e-21 8.81531e-22 -0.0652071)
(-4.9971e-21 1.8727e-22 -0.0616404)
(2.06395e-22 -1.53287e-21 -0.0579065)
(4.4424e-20 1.6787e-19 -0.0540786)
(-4.34935e-20 -1.58368e-19 -0.0502186)
(-4.31635e-20 -1.9557e-19 -0.0463791)
(4.61314e-20 2.0436e-19 -0.0426059)
(8.22202e-22 8.24685e-21 -0.0389397)
(-1.14597e-21 -7.59512e-21 -0.0354125)
(9.44189e-22 8.30216e-21 -0.0320465)
(-3.57571e-20 -2.66763e-19 -0.0288588)
(3.80319e-20 2.75185e-19 -0.025862)
(-3.2713e-20 -2.83606e-19 -0.0230641)
(3.49694e-20 3.02645e-19 -0.0204694)
(7.90173e-22 1.01645e-20 -0.0180784)
(2.94818e-20 3.38738e-19 -0.0158891)
(-5.68599e-20 -6.78905e-19 -0.0138967)
(2.8612e-20 3.6211e-19 -0.0120946)
(1.33793e-20 1.96552e-19 -0.0104743)
(-1.18734e-20 -1.73924e-19 -0.00902619)
(3.67088e-22 8.83206e-23 -0.00773956)
(-5.09446e-22 -8.20968e-23 -0.00660312)
(-5.52911e-23 1.11766e-22 -0.00560514)
(8.75935e-21 2.06247e-19 -0.00473376)
(-8.47486e-21 -1.93795e-19 -0.00397716)
(6.89454e-22 1.33708e-20 -0.00332379)
(-3.7458e-22 -5.05301e-24 -0.00276251)
(3.20403e-21 1.09444e-19 -0.00228269)
(-5.89787e-21 -2.06851e-19 -0.00187432)
(2.89702e-21 1.11121e-19 -0.00152802)
(-1.45826e-21 -5.6778e-20 -0.00123498)
(1.10055e-21 4.24524e-20 -0.000986621)
(2.60785e-22 1.42461e-20 -0.000774214)
(1.86594e-21 2.70646e-20 0.0553042)
(8.79505e-21 -5.48416e-20 0.0179341)
(-6.57477e-20 2.08779e-20 -0.014122)
(9.57849e-20 6.52789e-20 -0.0393983)
(-1.40622e-20 -9.88087e-20 -0.0591589)
(3.10649e-21 3.92149e-20 -0.0744532)
(-1.90996e-20 2.1748e-21 -0.0860657)
(2.07019e-20 3.32304e-20 -0.0946098)
(-8.55719e-20 -6.17295e-20 -0.100581)
(1.00194e-19 1.5369e-20 -0.104369)
(-2.35671e-20 1.28263e-20 -0.106295)
(-1.21403e-20 7.07313e-22 -0.106647)
(1.71768e-20 9.41455e-21 -0.105674)
(-1.19704e-19 -1.63293e-19 -0.1036)
(1.04074e-19 1.42751e-19 -0.100621)
(-5.97456e-21 1.40792e-20 -0.0969173)
(5.69018e-21 -8.16476e-21 -0.0926475)
(1.20313e-19 2.76606e-19 -0.0879532)
(-1.22931e-19 -2.66046e-19 -0.0829594)
(-7.94851e-22 -1.03295e-20 -0.077776)
(-1.46854e-21 -6.23674e-23 -0.072498)
(1.84045e-21 4.47716e-22 -0.067205)
(1.00484e-21 -3.63199e-23 -0.061964)
(-1.1281e-21 7.16212e-21 -0.0568332)
(2.58198e-21 3.78138e-22 -0.0518638)
(1.39128e-21 8.62054e-21 -0.0470956)
(-1.10878e-19 -5.54494e-19 -0.0425584)
(1.1043e-19 5.45083e-19 -0.0382714)
(-1.02999e-21 1.03139e-21 -0.0342496)
(-4.72177e-20 -3.12146e-19 -0.0305022)
(4.99194e-20 3.22376e-19 -0.0270332)
(-5.37484e-23 1.30247e-22 -0.0238421)
(-1.98233e-22 -3.08285e-22 -0.0209249)
(-4.02893e-20 -3.68058e-19 -0.0182742)
(7.71003e-20 7.36019e-19 -0.0158801)
(-7.09681e-20 -7.43903e-19 -0.0137307)
(6.69926e-20 7.62179e-19 -0.0118124)
(-6.25148e-20 -7.79331e-19 -0.0101104)
(3.00291e-20 3.94187e-19 -0.0086091)
(1.29571e-20 2.04066e-19 -0.00729253)
(-1.14081e-20 -1.78773e-19 -0.00614456)
(-9.41899e-22 -1.31474e-20 -0.00514919)
(-1.03699e-20 -2.1367e-19 -0.00429087)
(2.1623e-20 4.57764e-19 -0.0035546)
(-9.90664e-21 -2.17133e-19 -0.00292616)
(1.00626e-22 1.57702e-22 -0.00239216)
(4.02267e-22 1.39209e-20 -0.00194006)
(-8.90869e-23 -5.56708e-23 -0.001558)
(-3.80724e-22 -1.4183e-20 -0.00123421)
(8.18386e-22 2.86728e-20 -0.000955672)
(2.75927e-20 9.78158e-23 0.0536959)
(3.27461e-22 3.81061e-22 0.00673054)
(-6.20852e-20 3.79713e-22 -0.0330603)
(9.12353e-20 -4.31757e-22 -0.0630661)
(-2.74613e-20 -3.65351e-22 -0.0857081)
(-4.30445e-20 -9.11765e-22 -0.102729)
(1.45794e-20 4.1746e-22 -0.115289)
(-1.10655e-20 -7.1722e-22 -0.124203)
(8.81489e-20 -2.43551e-20 -0.130105)
(1.21298e-19 2.04989e-19 -0.133487)
(7.98335e-21 8.55647e-20 -0.134742)
(-1.61401e-19 -2.72194e-19 -0.134211)
(2.17705e-19 3.44504e-19 -0.132186)
(-2.34765e-19 -3.37346e-19 -0.128928)
(1.17715e-19 2.19767e-19 -0.124671)
(-1.28745e-19 -2.29973e-19 -0.11962)
(5.37061e-21 -3.0621e-21 -0.11396)
(-1.98755e-20 -4.13498e-21 -0.107854)
(1.50915e-20 -5.7865e-21 -0.101447)