/*--------------------------------*- C++ -*----------------------------------*\
| =========                 |                                                 |
| \\      /  F ield         | OpenFOAM: The Open Source CFD Toolbox           |
|  \\    /   O peration     | Version:  2412                                  |
|   \\  /    A nd           | Website:  www.openfoam.com                      |
|    \\/     M anipulation  |                                                 |
\*---------------------------------------------------------------------------*/
FoamFile
{
    version     2.0;
    format      ascii;
    arch        "LSB;label=32;scalar=64";
    class       volVectorField;
    location    "20";
    object      vorticity;
}
// * * * * * * * * * * * * * * * * * * * * * * * * * * * * * * * * * * * * * //

dimensions      [0 0 -1 0 0 0 0];

internalField   nonuniform List<vector> 
5285
(
(0 -0 4.97488e-06)
(0 -0 5.06078e-06)
(0 -0 5.2285e-06)
(0 -0 5.40212e-06)
(0 -0 5.55883e-06)
(0 -0 5.70739e-06)
(0 -0 5.86895e-06)
(0 -0 6.04207e-06)
(0 -0 6.22391e-06)
(0 -0 6.40895e-06)
(0 -0 6.58621e-06)
(0 -0 6.73111e-06)
(0 -0 6.78018e-06)
(0 -0 6.58021e-06)
(0 -0 5.93651e-06)
(0 -0 5.08821e-06)
(0 -0 5.12674e-06)
(0 -0 5.21225e-06)
(0 -0 5.36486e-06)
(0 -0 5.55351e-06)
(0 -0 5.71214e-06)
(0 -0 5.86017e-06)
(0 -0 6.02114e-06)
(0 -0 6.19346e-06)
(0 -0 6.37425e-06)
(0 -0 6.5581e-06)
(0 -0 6.73415e-06)
(0 -0 6.87747e-06)
(0 -0 6.92213e-06)
(0 -0 6.70009e-06)
(0 -0 6.01172e-06)
(0 -0 5.01026e-06)
(0 -0 5.25388e-06)
(0 -0 5.33438e-06)
(0 -0 5.50126e-06)
(0 -0 5.69511e-06)
(0 -0 5.85478e-06)
(0 -0 6.00365e-06)
(0 -0 6.16563e-06)
(0 -0 6.33898e-06)
(0 -0 6.52081e-06)
(0 -0 6.70575e-06)
(0 -0 6.883e-06)
(0 -0 7.02755e-06)
(0 -0 7.07249e-06)
(0 -0 6.84832e-06)
(0 -0 6.11233e-06)
(0 -0 5.11807e-06)
(0 -0 5.32741e-06)
(0 -0 5.41163e-06)
(0 -0 5.5847e-06)
(0 -0 5.78298e-06)
(0 -0 5.94577e-06)
(0 -0 6.09729e-06)
(0 -0 6.2619e-06)
(0 -0 6.43792e-06)
(0 -0 6.62246e-06)
(0 -0 6.81025e-06)
(0 -0 6.99063e-06)
(0 -0 7.13872e-06)
(0 -0 7.18759e-06)
(0 -0 6.969e-06)
(0 -0 6.25831e-06)
(0 -0 5.25589e-06)
(0 -0 5.31853e-06)
(0 -0 5.40776e-06)
(0 -0 5.58709e-06)
(0 -0 5.79153e-06)
(0 -0 5.9596e-06)
(0 -0 6.11596e-06)
(0 -0 6.28536e-06)
(0 -0 6.46619e-06)
(0 -0 6.65566e-06)
(0 -0 6.84861e-06)
(0 -0 7.03451e-06)
(0 -0 7.18879e-06)
(0 -0 7.2449e-06)
(0 -0 7.03606e-06)
(0 -0 6.34481e-06)
(0 -0 5.39622e-06)
(0 -0 5.19938e-06)
(0 -0 5.29593e-06)
(0 -0 5.48368e-06)
(0 -0 5.69669e-06)
(0 -0 5.87279e-06)
(0 -0 6.03685e-06)
(0 -0 6.21403e-06)
(0 -0 6.40271e-06)
(0 -0 6.60025e-06)
(0 -0 6.8016e-06)
(0 -0 6.99644e-06)
(0 -0 7.16046e-06)
(0 -0 7.22764e-06)
(0 -0 7.03215e-06)
(0 -0 6.35908e-06)
(0 -0 5.44115e-06)
(0 -0 4.93515e-06)
(0 -0 5.04229e-06)
(0 -0 5.24158e-06)
(0 -0 5.46641e-06)
(0 -0 5.65397e-06)
(0 -0 5.82939e-06)
(0 -0 6.0181e-06)
(0 -0 6.21858e-06)
(0 -0 6.42827e-06)
(0 -0 6.64226e-06)
(0 -0 6.85047e-06)
(0 -0 7.02883e-06)
(0 -0 7.11187e-06)
(0 -0 6.93426e-06)
(0 -0 6.28172e-06)
(0 -0 5.3893e-06)
(0 -0 4.48256e-06)
(0 -0 4.60405e-06)
(0 -0 4.81866e-06)
(0 -0 5.05927e-06)
(0 -0 5.26243e-06)
(0 -0 5.45356e-06)
(0 -0 5.65836e-06)
(0 -0 5.87541e-06)
(0 -0 6.10223e-06)
(0 -0 6.33406e-06)
(0 -0 6.56104e-06)
(0 -0 6.75944e-06)
(0 -0 6.86421e-06)
(0 -0 6.71039e-06)
(0 -0 6.08355e-06)
(0 -0 5.21925e-06)
(0 -0 3.79043e-06)
(0 -0 3.9304e-06)
(0 -0 4.1646e-06)
(0 -0 4.42544e-06)
(0 -0 4.64893e-06)
(0 -0 4.86079e-06)
(0 -0 5.08693e-06)
(0 -0 5.32603e-06)
(0 -0 5.57575e-06)
(0 -0 5.83149e-06)
(0 -0 6.0836e-06)
(0 -0 6.3087e-06)
(0 -0 6.44217e-06)
(0 -0 6.31941e-06)
(0 -0 5.72557e-06)
(0 -0 4.89598e-06)
(0 -0 2.80177e-06)
(0 -0 2.96459e-06)
(0 -0 3.22299e-06)
(0 -0 3.50891e-06)
(0 -0 3.75794e-06)
(0 -0 3.99598e-06)
(0 -0 4.24927e-06)
(0 -0 4.51656e-06)
(0 -0 4.79562e-06)
(0 -0 5.08208e-06)
(0 -0 5.3665e-06)
(0 -0 5.62586e-06)
(0 -0 5.796e-06)
(0 -0 5.71274e-06)
(0 -0 5.16082e-06)
(0 -0 4.37496e-06)
(0 -0 1.45678e-06)
(0 -0 1.64697e-06)
(0 -0 1.93435e-06)
(0 -0 2.25043e-06)
(0 -0 2.53045e-06)
(0 -0 2.80051e-06)
(0 -0 3.08711e-06)
(0 -0 3.38915e-06)
(0 -0 3.70453e-06)
(0 -0 4.02905e-06)
(0 -0 4.3536e-06)
(0 -0 4.6555e-06)
(0 -0 4.87111e-06)
(0 -0 4.83675e-06)
(0 -0 4.3369e-06)
(0 -0 3.60543e-06)
(0 -0 -3.03461e-07)
(0 -0 -8.13988e-08)
(0 -0 2.3969e-07)
(0 -0 5.91044e-07)
(0 -0 9.0756e-07)
(0 -0 1.21559e-06)
(0 -0 1.54185e-06)
(0 -0 1.88538e-06)
(0 -0 2.2443e-06)
(0 -0 2.61461e-06)
(0 -0 2.98749e-06)
(0 -0 3.34069e-06)
(0 -0 3.61114e-06)
(0 -0 3.63575e-06)
(0 -0 3.19896e-06)
(0 -0 2.53361e-06)
(0 -0 -2.53255e-06)
(0 -0 -2.27445e-06)
(0 -0 -1.91514e-06)
(0 -0 -1.52362e-06)
(0 -0 -1.16527e-06)
(0 -0 -8.13528e-07)
(0 -0 -4.41376e-07)
(0 -0 -4.96415e-08)
(0 -0 3.59987e-07)
(0 -0 7.83825e-07)
(0 -0 1.21335e-06)
(0 -0 1.62679e-06)
(0 -0 1.96167e-06)
(0 -0 2.05569e-06)
(0 -0 1.69341e-06)
(0 -0 1.10649e-06)
(0 -0 -5.27397e-06)
(0 -0 -4.97615e-06)
(0 -0 -4.57461e-06)
(0 -0 -4.13855e-06)
(0 -0 -3.73352e-06)
(0 -0 -3.33276e-06)
(0 -0 -2.90898e-06)
(0 -0 -2.46277e-06)
(0 -0 -1.99558e-06)
(0 -0 -1.51081e-06)
(0 -0 -1.01656e-06)
(0 -0 -5.34149e-07)
(0 -0 -1.25338e-07)
(0 -0 4.84519e-08)
(0 -0 -2.27906e-07)
(0 -0 -7.23949e-07)
(0 -0 -8.55597e-06)
(0 -0 -8.21547e-06)
(0 -0 -7.76845e-06)
(0 -0 -7.28426e-06)
(0 -0 -6.82856e-06)
(0 -0 -6.3743e-06)
(0 -0 -5.89392e-06)
(0 -0 -5.38774e-06)
(0 -0 -4.85689e-06)
(0 -0 -4.30442e-06)
(0 -0 -3.73803e-06)
(0 -0 -3.17849e-06)
(0 -0 -2.6868e-06)
(0 -0 -2.4234e-06)
(0 -0 -2.60288e-06)
(0 -0 -2.99607e-06)
(0 -0 -1.23867e-05)
(0 -0 -1.20015e-05)
(0 -0 -1.15068e-05)
(0 -0 -1.0972e-05)
(0 -0 -1.04628e-05)
(0 -0 -9.95184e-06)
(0 -0 -9.41104e-06)
(0 -0 -8.84048e-06)
(0 -0 -8.24091e-06)
(0 -0 -7.61501e-06)
(0 -0 -6.97004e-06)
(0 -0 -6.3262e-06)
(0 -0 -5.74366e-06)
(0 -0 -5.38178e-06)
(0 -0 -5.45446e-06)
(0 -0 -5.73383e-06)
(0 -0 -1.67502e-05)
(0 -0 -1.63191e-05)
(0 -0 -1.5776e-05)
(0 -0 -1.51899e-05)
(0 -0 -1.46261e-05)
(0 -0 -1.40566e-05)
(0 -0 -1.3453e-05)
(0 -0 -1.2815e-05)
(0 -0 -1.2143e-05)
(0 -0 -1.14392e-05)
(0 -0 -1.07106e-05)
(0 -0 -9.97656e-06)
(0 -0 -9.29661e-06)
(0 -0 -8.82886e-06)
(0 -0 -8.7864e-06)
(0 -0 -8.94258e-06)
(0 -0 -2.16033e-05)
(0 -0 -2.11263e-05)
(0 -0 -2.05365e-05)
(0 -0 -1.99007e-05)
(0 -0 -1.9283e-05)
(0 -0 -1.86549e-05)
(0 -0 -1.79876e-05)
(0 -0 -1.72804e-05)
(0 -0 -1.65337e-05)
(0 -0 -1.57492e-05)
(0 -0 -1.49333e-05)
(0 -0 -1.4105e-05)
(0 -0 -1.33228e-05)
(0 -0 -1.27438e-05)
(0 -0 -1.25802e-05)
(0 -0 -1.26062e-05)
(0 -0 -2.68745e-05)
(0 -0 -2.63513e-05)
(0 -0 -2.57227e-05)
(0 -0 -2.50423e-05)
(0 -0 -2.43731e-05)
(0 -0 -2.36874e-05)
(0 -0 -2.29565e-05)
(0 -0 -2.218e-05)
(0 -0 -2.13578e-05)
(0 -0 -2.04913e-05)
(0 -0 -1.95864e-05)
(0 -0 -1.86615e-05)
(0 -0 -1.77744e-05)
(0 -0 -1.70812e-05)
(0 -0 -1.67938e-05)
(0 -0 -1.66871e-05)
(0 -0 -3.24722e-05)
(0 -0 -3.19036e-05)
(0 -0 -3.1233e-05)
(0 -0 -3.05314e-05)
(0 -0 -2.98123e-05)
(0 -0 -2.90696e-05)
(0 -0 -2.82761e-05)
(0 -0 -2.74311e-05)
(0 -0 -2.65341e-05)
(0 -0 -2.55862e-05)
(0 -0 -2.45926e-05)
(0 -0 -2.35711e-05)
(0 -0 -2.25787e-05)
(0 -0 -2.17715e-05)
(0 -0 -2.13637e-05)
(0 -0 -2.11279e-05)
(0 -0 0.00037849)
(0 -0 0.000377477)
(0 -0 0.000375787)
(0 -0 0.000372369)
(0 -0 0.000371637)
(0 -0 0.000388271)
(0 -0 0.00044386)
(0 -0 0.000554313)
(0 -0 0.000715977)
(0 -0 0.000385408)
(0 -0 0.000384385)
(0 -0 0.000382659)
(0 -0 0.000379144)
(0 -0 0.000378403)
(0 -0 0.0003956)
(0 -0 0.000453038)
(0 -0 0.000567136)
(0 -0 0.000734133)
(0 -0 0.000924613)
(0 -0 0.00109177)
(0 -0 0.00118877)
(0 -0 0.00118546)
(0 -0 0.00107734)
(0 -0 0.000884194)
(0 -0 0.000641224)
(0 -0 0.000387481)
(0 -0 0.000156185)
(0 -0 -3.07702e-05)
(0 -0 -0.000163936)
(0 -0 -0.000244276)
(0 -0 -0.000279635)
(0 -0 -0.000281103)
(0 -0 -0.000260133)
(0 -0 -0.00022671)
(0 -0 -0.000188508)
(0 -0 -0.000150763)
(0 -0 -0.000116585)
(0 -0 -8.74539e-05)
(0 -0 -6.37287e-05)
(0 -0 -4.50918e-05)
(0 -0 -3.08794e-05)
(0 -0 -2.03081e-05)
(0 -0 -1.26114e-05)
(0 -0 -7.11093e-06)
(0 -0 -3.24422e-06)
(0 -0 -5.65889e-07)
(0 -0 1.26433e-06)
(0 -0 2.49919e-06)
(0 -0 3.32219e-06)
(0 -0 3.86407e-06)
(0 -0 4.21645e-06)
(0 -0 4.44268e-06)
(0 -0 4.58612e-06)
(0 -0 4.67613e-06)
(0 -0 4.73245e-06)
(0 -0 4.76831e-06)
(0 -0 4.79247e-06)
(0 -0 4.81072e-06)
(0 -0 4.82676e-06)
(0 -0 4.84272e-06)
(0 -0 4.85903e-06)
(0 -0 4.8757e-06)
(0 -0 4.88602e-06)
(0 -0 4.90053e-06)
(0 -0 0.000392076)
(0 -0 0.000391045)
(0 -0 0.000389283)
(0 -0 0.000385668)
(0 -0 0.000384918)
(0 -0 0.000402704)
(0 -0 0.000462064)
(0 -0 0.000579948)
(0 -0 0.000752444)
(0 -0 0.000949165)
(0 -0 0.00112174)
(0 -0 0.00122179)
(0 -0 0.00121824)
(0 -0 0.00110647)
(0 -0 0.000906998)
(0 -0 0.000656209)
(0 -0 0.000394445)
(0 -0 0.000155997)
(0 -0 -3.65576e-05)
(0 -0 -0.000173504)
(0 -0 -0.000255881)
(0 -0 -0.000291823)
(0 -0 -0.000292809)
(0 -0 -0.000270681)
(0 -0 -0.000235759)
(0 -0 -0.000195968)
(0 -0 -0.00015671)
(0 -0 -0.000121191)
(0 -0 -9.09305e-05)
(0 -0 -6.62923e-05)
(0 -0 -4.69405e-05)
(0 -0 -3.21831e-05)
(0 -0 -2.12054e-05)
(0 -0 -1.32113e-05)
(0 -0 -7.49652e-06)
(0 -0 -3.47726e-06)
(0 -0 -6.91355e-07)
(0 -0 1.21425e-06)
(0 -0 2.50184e-06)
(0 -0 3.36184e-06)
(0 -0 3.92991e-06)
(0 -0 4.30117e-06)
(0 -0 4.54137e-06)
(0 -0 4.6955e-06)
(0 -0 4.79409e-06)
(0 -0 4.85762e-06)
(0 -0 4.89983e-06)
(0 -0 4.92982e-06)
(0 -0 4.95361e-06)
(0 -0 4.97504e-06)
(0 -0 4.99637e-06)
(0 -0 5.01802e-06)
(0 -0 5.03819e-06)
(0 -0 5.05706e-06)
(0 -0 5.05655e-06)
(0 -0 0.000398493)
(0 -0 0.000397455)
(0 -0 0.000395657)
(0 -0 0.000391939)
(0 -0 0.00039118)
(0 -0 0.000409582)
(0 -0 0.000470949)
(0 -0 0.000592779)
(0 -0 0.000770991)
(0 -0 0.000974141)
(0 -0 0.00115226)
(0 -0 0.00125541)
(0 -0 0.0012515)
(0 -0 0.00113585)
(0 -0 0.000929744)
(0 -0 0.000670798)
(0 -0 0.000400703)
(0 -0 0.000154862)
(0 -0 -4.34454e-05)
(0 -0 -0.000184236)
(0 -0 -0.000268634)
(0 -0 -0.000305084)
(0 -0 -0.000305475)
(0 -0 -0.000282059)
(0 -0 -0.000245505)
(0 -0 -0.000203999)
(0 -0 -0.000163117)
(0 -0 -0.000126162)
(0 -0 -9.46951e-05)
(0 -0 -6.90824e-05)
(0 -0 -4.8968e-05)
(0 -0 -3.36293e-05)
(0 -0 -2.2218e-05)
(0 -0 -1.39063e-05)
(0 -0 -7.96238e-06)
(0 -0 -3.77966e-06)
(0 -0 -8.78135e-07)
(0 -0 1.10888e-06)
(0 -0 2.45379e-06)
(0 -0 3.35438e-06)
(0 -0 3.95156e-06)
(0 -0 4.3441e-06)
(0 -0 4.60034e-06)
(0 -0 4.76705e-06)
(0 -0 4.8759e-06)
(0 -0 4.94824e-06)
(0 -0 4.99831e-06)
(0 -0 5.03558e-06)
(0 -0 5.0663e-06)
(0 -0 5.09449e-06)
(0 -0 5.12248e-06)
(0 -0 5.15075e-06)
(0 -0 5.17719e-06)
(0 -0 5.19726e-06)
(0 -0 5.20038e-06)
(0 -0 0.000404656)
(0 -0 0.000403613)
(0 -0 0.000401778)
(0 -0 0.000397953)
(0 -0 0.000397188)
(0 -0 0.00041624)
(0 -0 0.000479713)
(0 -0 0.000605668)
(0 -0 0.000789799)
(0 -0 0.000999583)
(0 -0 0.0011834)
(0 -0 0.00128963)
(0 -0 0.0012852)
(0 -0 0.00116539)
(0 -0 0.000952249)
(0 -0 0.000684743)
(0 -0 0.00040596)
(0 -0 0.00015246)
(0 -0 -5.17542e-05)
(0 -0 -0.000196434)
(0 -0 -0.000282805)
(0 -0 -0.000319651)
(0 -0 -0.000319295)
(0 -0 -0.000294424)
(0 -0 -0.000256071)
(0 -0 -0.000212697)
(0 -0 -0.000170058)
(0 -0 -0.000131557)
(0 -0 -9.87956e-05)
(0 -0 -7.21392e-05)
(0 -0 -5.12095e-05)
(0 -0 -3.52502e-05)
(0 -0 -2.33766e-05)
(0 -0 -1.47265e-05)
(0 -0 -8.53844e-06)
(0 -0 -4.18162e-06)
(0 -0 -1.15692e-06)
(0 -0 9.16886e-07)
(0 -0 2.32299e-06)
(0 -0 3.26699e-06)
(0 -0 3.89535e-06)
(0 -0 4.31076e-06)
(0 -0 4.58429e-06)
(0 -0 4.76455e-06)
(0 -0 4.8845e-06)
(0 -0 4.9663e-06)
(0 -0 5.02479e-06)
(0 -0 5.06979e-06)
(0 -0 5.10781e-06)
(0 -0 5.14306e-06)
(0 -0 5.17794e-06)
(0 -0 5.21297e-06)
(0 -0 5.24595e-06)
(0 -0 5.27155e-06)
(0 -0 5.27895e-06)
(0 -0 0.000410565)
(0 -0 0.000409517)
(0 -0 0.000407645)
(0 -0 0.000403707)
(0 -0 0.000402938)
(0 -0 0.00042268)
(0 -0 0.000488367)
(0 -0 0.000618636)
(0 -0 0.000808937)
(0 -0 0.00102558)
(0 -0 0.0012152)
(0 -0 0.00132445)
(0 -0 0.00131927)
(0 -0 0.00119488)
(0 -0 0.00097425)
(0 -0 0.000697711)
(0 -0 0.000409843)
(0 -0 0.000148405)
(0 -0 -6.18597e-05)
(0 -0 -0.000210445)
(0 -0 -0.000298703)
(0 -0 -0.000335787)
(0 -0 -0.000334488)
(0 -0 -0.000307952)
(0 -0 -0.000267599)
(0 -0 -0.000222176)
(0 -0 -0.000177624)
(0 -0 -0.00013745)
(0 -0 -0.000103291)
(0 -0 -7.55126e-05)
(0 -0 -5.37084e-05)
(0 -0 -3.70845e-05)
(0 -0 -2.47165e-05)
(0 -0 -1.57049e-05)
(0 -0 -9.25634e-06)
(0 -0 -4.71375e-06)
(0 -0 -1.55758e-06)
(0 -0 6.08975e-07)
(0 -0 2.08059e-06)
(0 -0 3.0712e-06)
(0 -0 3.7332e-06)
(0 -0 4.17346e-06)
(0 -0 4.4659e-06)
(0 -0 4.66111e-06)
(0 -0 4.79339e-06)
(0 -0 4.88578e-06)
(0 -0 4.95372e-06)
(0 -0 5.00744e-06)
(0 -0 5.05371e-06)
(0 -0 5.09689e-06)
(0 -0 5.13951e-06)
(0 -0 5.18214e-06)
(0 -0 5.22257e-06)
(0 -0 5.25547e-06)
(0 -0 5.27067e-06)
(0 -0 0.000416217)
(0 -0 0.000415168)
(0 -0 0.000413256)
(0 -0 0.000409201)
(0 -0 0.000408431)
(0 -0 0.000428905)
(0 -0 0.000496924)
(0 -0 0.000631706)
(0 -0 0.000828431)
(0 -0 0.00105215)
(0 -0 0.00124765)
(0 -0 0.00135982)
(0 -0 0.00135356)
(0 -0 0.00122414)
(0 -0 0.000995462)
(0 -0 0.000709359)
(0 -0 0.000411965)
(0 -0 0.000142292)
(0 -0 -7.41631e-05)
(0 -0 -0.000226647)
(0 -0 -0.000316672)
(0 -0 -0.000353795)
(0 -0 -0.000351313)
(0 -0 -0.000322861)
(0 -0 -0.000280269)
(0 -0 -0.000232582)
(0 -0 -0.000185936)
(0 -0 -0.000143938)
(0 -0 -0.000108265)
(0 -0 -7.92723e-05)
(0 -0 -5.65246e-05)
(0 -0 -3.91853e-05)
(0 -0 -2.62857e-05)
(0 -0 -1.68859e-05)
(0 -0 -1.01576e-05)
(0 -0 -5.41554e-06)
(0 -0 -2.1181e-06)
(0 -0 1.48277e-07)
(0 -0 1.69062e-06)
(0 -0 2.73181e-06)
(0 -0 3.43058e-06)
(0 -0 3.89823e-06)
(0 -0 4.21178e-06)
(0 -0 4.42391e-06)
(0 -0 4.57031e-06)
(0 -0 4.67501e-06)
(0 -0 4.75405e-06)
(0 -0 4.8181e-06)
(0 -0 4.87419e-06)
(0 -0 4.92687e-06)
(0 -0 4.97879e-06)
(0 -0 5.03058e-06)
(0 -0 5.08015e-06)
(0 -0 5.1224e-06)
(0 -0 5.1484e-06)
(0 -0 0.000421613)
(0 -0 0.000420563)
(0 -0 0.00041861)
(0 -0 0.000414432)
(0 -0 0.000413666)
(0 -0 0.000434919)
(0 -0 0.000505396)
(0 -0 0.000644903)
(0 -0 0.000848305)
(0 -0 0.00107931)
(0 -0 0.00128073)
(0 -0 0.00139565)
(0 -0 0.00138792)
(0 -0 0.0012529)
(0 -0 0.00101554)
(0 -0 0.00071927)
(0 -0 0.000411868)
(0 -0 0.000133646)
(0 -0 -8.91306e-05)
(0 -0 -0.00024548)
(0 -0 -0.000337108)
(0 -0 -0.000374021)
(0 -0 -0.000370065)
(0 -0 -0.000339399)
(0 -0 -0.000294285)
(0 -0 -0.000244084)
(0 -0 -0.00019513)
(0 -0 -0.000151136)
(0 -0 -0.000113809)
(0 -0 -8.34978e-05)
(0 -0 -5.97271e-05)
(0 -0 -4.16134e-05)
(0 -0 -2.81395e-05)
(0 -0 -1.83206e-05)
(0 -0 -1.12906e-05)
(0 -0 -6.33347e-06)
(0 -0 -2.8835e-06)
(0 -0 -5.09127e-07)
(0 -0 1.11002e-06)
(0 -0 2.20644e-06)
(0 -0 2.94569e-06)
(0 -0 3.44385e-06)
(0 -0 3.7812e-06)
(0 -0 4.01269e-06)
(0 -0 4.17553e-06)
(0 -0 4.29475e-06)
(0 -0 4.38707e-06)
(0 -0 4.46361e-06)
(0 -0 4.53169e-06)
(0 -0 4.59604e-06)
(0 -0 4.65945e-06)
(0 -0 4.72265e-06)
(0 -0 4.78367e-06)
(0 -0 4.8378e-06)
(0 -0 4.87742e-06)
(0 -0 0.000426751)
(0 -0 0.000425701)
(0 -0 0.000423707)
(0 -0 0.000419399)
(0 -0 0.000418641)
(0 -0 0.000440726)
(0 -0 0.000513797)
(0 -0 0.000658249)
(0 -0 0.000868581)
(0 -0 0.00110705)
(0 -0 0.0013144)
(0 -0 0.00143182)
(0 -0 0.00142213)
(0 -0 0.00128084)
(0 -0 0.00103407)
(0 -0 0.000726965)
(0 -0 0.000409028)
(0 -0 0.00012193)
(0 -0 -0.000107285)
(0 -0 -0.000267429)
(0 -0 -0.000360447)
(0 -0 -0.000396848)
(0 -0 -0.00039107)
(0 -0 -0.000357836)
(0 -0 -0.000309871)
(0 -0 -0.000256864)
(0 -0 -0.000205356)
(0 -0 -0.000159164)
(0 -0 -0.000120028)
(0 -0 -8.82763e-05)
(0 -0 -6.33918e-05)
(0 -0 -4.44369e-05)
(0 -0 -3.03401e-05)
(0 -0 -2.00674e-05)
(0 -0 -1.27108e-05)
(0 -0 -7.52079e-06)
(0 -0 -3.90564e-06)
(0 -0 -1.4141e-06)
(0 -0 2.88656e-07)
(0 -0 1.4455e-06)
(0 -0 2.22939e-06)
(0 -0 2.76153e-06)
(0 -0 3.12575e-06)
(0 -0 3.37939e-06)
(0 -0 3.56132e-06)
(0 -0 3.69765e-06)
(0 -0 3.80581e-06)
(0 -0 3.89741e-06)
(0 -0 3.98007e-06)
(0 -0 4.05875e-06)
(0 -0 4.13633e-06)
(0 -0 4.21369e-06)
(0 -0 4.289e-06)
(0 -0 4.35796e-06)
(0 -0 4.41423e-06)
(0 -0 0.000431631)
(0 -0 0.000430584)
(0 -0 0.000428545)
(0 -0 0.000424101)
(0 -0 0.000423358)
(0 -0 0.000446331)
(0 -0 0.000522141)
(0 -0 0.000671764)
(0 -0 0.000889272)
(0 -0 0.00113535)
(0 -0 0.00134858)
(0 -0 0.00146816)
(0 -0 0.00145592)
(0 -0 0.0013076)
(0 -0 0.0010506)
(0 -0 0.000731909)
(0 -0 0.00040287)
(0 -0 0.00010656)
(0 -0 -0.00012919)
(0 -0 -0.000293018)
(0 -0 -0.000387158)
(0 -0 -0.00042268)
(0 -0 -0.00041467)
(0 -0 -0.000378459)
(0 -0 -0.00032726)
(0 -0 -0.000271112)
(0 -0 -0.000216769)
(0 -0 -0.000168153)
(0 -0 -0.000127029)
(0 -0 -9.37001e-05)
(0 -0 -6.75996e-05)
(0 -0 -4.77284e-05)
(0 -0 -3.29543e-05)
(0 -0 -2.21888e-05)
(0 -0 -1.44781e-05)
(0 -0 -9.03571e-06)
(0 -0 -5.2415e-06)
(0 -0 -2.62281e-06)
(0 -0 -8.29131e-07)
(0 -0 3.93717e-07)
(0 -0 1.22665e-06)
(0 -0 1.79644e-06)
(0 -0 2.19076e-06)
(0 -0 2.46954e-06)
(0 -0 2.67339e-06)
(0 -0 2.82959e-06)
(0 -0 2.95638e-06)
(0 -0 3.06584e-06)
(0 -0 3.16596e-06)
(0 -0 3.26188e-06)
(0 -0 3.35666e-06)
(0 -0 3.45127e-06)
(0 -0 3.54408e-06)
(0 -0 3.63114e-06)
(0 -0 3.70738e-06)
(0 -0 0.000436253)
(0 -0 0.00043521)
(0 -0 0.000433123)
(0 -0 0.000428537)
(0 -0 0.000427815)
(0 -0 0.00045174)
(0 -0 0.000530439)
(0 -0 0.000685465)
(0 -0 0.000910383)
(0 -0 0.0011642)
(0 -0 0.00138318)
(0 -0 0.00150451)
(0 -0 0.00148902)
(0 -0 0.00133278)
(0 -0 0.00106463)
(0 -0 0.000733534)
(0 -0 0.000392787)
(0 -0 8.69264e-05)
(0 -0 -0.000155431)
(0 -0 -0.000322784)
(0 -0 -0.000417719)
(0 -0 -0.000451929)
(0 -0 -0.000441213)
(0 -0 -0.000401553)
(0 -0 -0.000346688)
(0 -0 -0.000287021)
(0 -0 -0.000229527)
(0 -0 -0.000178232)
(0 -0 -0.000134919)
(0 -0 -9.9862e-05)
(0 -0 -7.2432e-05)
(0 -0 -5.15615e-05)
(0 -0 -3.60503e-05)
(0 -0 -2.47494e-05)
(0 -0 -1.66545e-05)
(0 -0 -1.09386e-05)
(0 -0 -6.95052e-06)
(0 -0 -4.19413e-06)
(0 -0 -2.30188e-06)
(0 -0 -1.00733e-06)
(0 -0 -1.2088e-07)
(0 -0 4.90243e-07)
(0 -0 9.17849e-07)
(0 -0 1.2247e-06)
(0 -0 1.45328e-06)
(0 -0 1.63214e-06)
(0 -0 1.78035e-06)
(0 -0 1.91055e-06)
(0 -0 2.03106e-06)
(0 -0 2.14728e-06)
(0 -0 2.26241e-06)
(0 -0 2.37757e-06)
(0 -0 2.49126e-06)
(0 -0 2.59995e-06)
(0 -0 2.69968e-06)
(0 -0 0.000440617)
(0 -0 0.000439579)
(0 -0 0.000437443)
(0 -0 0.000432706)
(0 -0 0.000432015)
(0 -0 0.000456956)
(0 -0 0.000538701)
(0 -0 0.00069936)
(0 -0 0.00093191)
(0 -0 0.00119354)
(0 -0 0.00141808)
(0 -0 0.00154064)
(0 -0 0.00152108)
(0 -0 0.00135594)
(0 -0 0.00107563)
(0 -0 0.000731259)
(0 -0 0.000378171)
(0 -0 6.2422e-05)
(0 -0 -0.000186583)
(0 -0 -0.000357254)
(0 -0 -0.000452592)
(0 -0 -0.000484994)
(0 -0 -0.000471031)
(0 -0 -0.000427395)
(0 -0 -0.000368379)
(0 -0 -0.000304772)
(0 -0 -0.000243778)
(0 -0 -0.000189522)
(0 -0 -0.000143803)
(0 -0 -0.00010685)
(0 -0 -7.79664e-05)
(0 -0 -5.60064e-05)
(0 -0 -3.96934e-05)
(0 -0 -2.78114e-05)
(0 -0 -1.93001e-05)
(0 -0 -1.32885e-05)
(0 -0 -9.09098e-06)
(0 -0 -6.18609e-06)
(0 -0 -4.1876e-06)
(0 -0 -2.81574e-06)
(0 -0 -1.87152e-06)
(0 -0 -1.21563e-06)
(0 -0 -7.5178e-07)
(0 -0 -4.14176e-07)
(0 -0 -1.58283e-07)
(0 -0 4.58174e-08)
(0 -0 2.18073e-07)
(0 -0 3.71724e-07)
(0 -0 5.15476e-07)
(0 -0 6.5497e-07)
(0 -0 7.93582e-07)
(0 -0 9.32553e-07)
(0 -0 1.07057e-06)
(0 -0 1.20443e-06)
(0 -0 1.33123e-06)
(0 -0 0.000444723)
(0 -0 0.000443692)
(0 -0 0.000441503)
(0 -0 0.000436608)
(0 -0 0.000435958)
(0 -0 0.000461984)
(0 -0 0.000546933)
(0 -0 0.000713452)
(0 -0 0.000953831)
(0 -0 0.0012233)
(0 -0 0.00145315)
(0 -0 0.00157632)
(0 -0 0.00155179)
(0 -0 0.00137666)
(0 -0 0.0010831)
(0 -0 0.000724524)
(0 -0 0.000358442)
(0 -0 3.24803e-05)
(0 -0 -0.00022318)
(0 -0 -0.000396906)
(0 -0 -0.000492198)
(0 -0 -0.00052223)
(0 -0 -0.000504422)
(0 -0 -0.000456226)
(0 -0 -0.000392528)
(0 -0 -0.000324523)
(0 -0 -0.000259649)
(0 -0 -0.000202129)
(0 -0 -0.000153766)
(0 -0 -0.000114739)
(0 -0 -8.42704e-05)
(0 -0 -6.11247e-05)
(0 -0 -4.39412e-05)
(0 -0 -3.14298e-05)
(0 -0 -2.24688e-05)
(0 -0 -1.61384e-05)
(0 -0 -1.17158e-05)
(0 -0 -8.6517e-06)
(0 -0 -6.5396e-06)
(0 -0 -5.08524e-06)
(0 -0 -4.07946e-06)
(0 -0 -3.37585e-06)
(0 -0 -2.8733e-06)
(0 -0 -2.50273e-06)
(0 -0 -2.21739e-06)
(0 -0 -1.98592e-06)
(0 -0 -1.78739e-06)
(0 -0 -1.60792e-06)
(0 -0 -1.43842e-06)
(0 -0 -1.27295e-06)
(0 -0 -1.10799e-06)
(0 -0 -9.42135e-07)
(0 -0 -7.76551e-07)
(0 -0 -6.14091e-07)
(0 -0 -4.56744e-07)
(0 -0 0.000448572)
(0 -0 0.000447549)
(0 -0 0.000445304)
(0 -0 0.000440245)
(0 -0 0.000439646)
(0 -0 0.000466828)
(0 -0 0.000555139)
(0 -0 0.000727733)
(0 -0 0.000976112)
(0 -0 0.00125341)
(0 -0 0.00148822)
(0 -0 0.00161132)
(0 -0 0.00158082)
(0 -0 0.00139453)
(0 -0 0.00108658)
(0 -0 0.000712834)
(0 -0 0.000333098)
(0 -0 -3.38317e-06)
(0 -0 -0.000265666)
(0 -0 -0.000442138)
(0 -0 -0.000536876)
(0 -0 -0.000563922)
(0 -0 -0.000541619)
(0 -0 -0.000488235)
(0 -0 -0.000419288)
(0 -0 -0.000346397)
(0 -0 -0.000277239)
(0 -0 -0.000216133)
(0 -0 -0.000164878)
(0 -0 -0.000123588)
(0 -0 -9.13951e-05)
(0 -0 -6.69634e-05)
(0 -0 -4.88383e-05)
(0 -0 -3.56479e-05)
(0 -0 -2.62032e-05)
(0 -0 -1.95309e-05)
(0 -0 -1.48678e-05)
(0 -0 -1.16343e-05)
(0 -0 -9.40181e-06)
(0 -0 -7.86048e-06)
(0 -0 -6.79008e-06)
(0 -0 -6.03658e-06)
(0 -0 -5.49362e-06)
(0 -0 -5.0886e-06)
(0 -0 -4.7724e-06)
(0 -0 -4.51208e-06)
(0 -0 -4.28567e-06)
(0 -0 -4.07863e-06)
(0 -0 -3.88141e-06)
(0 -0 -3.68781e-06)
(0 -0 -3.49409e-06)
(0 -0 -3.29873e-06)
(0 -0 -3.10272e-06)
(0 -0 -2.90862e-06)
(0 -0 -2.71754e-06)
(0 -0 0.000452165)
(0 -0 0.000451151)
(0 -0 0.000448846)
(0 -0 0.000443616)
(0 -0 0.00044308)
(0 -0 0.000471488)
(0 -0 0.000563314)
(0 -0 0.000742182)
(0 -0 0.000998702)
(0 -0 0.00128376)
(0 -0 0.00152314)
(0 -0 0.0016454)
(0 -0 0.00160786)
(0 -0 0.0014092)
(0 -0 0.00108567)
(0 -0 0.000695791)
(0 -0 0.000301755)
(0 -0 -4.55251e-05)
(0 -0 -0.00031436)
(0 -0 -0.000493222)
(0 -0 -0.000586854)
(0 -0 -0.000610256)
(0 -0 -0.000582769)
(0 -0 -0.000523537)
(0 -0 -0.000448747)
(0 -0 -0.000370461)
(0 -0 -0.000296602)
(0 -0 -0.000231577)
(0 -0 -0.000177173)
(0 -0 -0.000133428)
(0 -0 -9.9369e-05)
(0 -0 -7.35493e-05)
(0 -0 -5.44108e-05)
(0 -0 -4.04917e-05)
(0 -0 -3.05294e-05)
(0 -0 -2.3493e-05)
(0 -0 -1.85747e-05)
(0 -0 -1.51625e-05)
(0 -0 -1.2804e-05)
(0 -0 -1.11722e-05)
(0 -0 -1.00352e-05)
(0 -0 -9.2306e-06)
(0 -0 -8.64652e-06)
(0 -0 -8.20653e-06)
(0 -0 -7.85897e-06)
(0 -0 -7.56922e-06)
(0 -0 -7.31419e-06)
(0 -0 -7.07864e-06)
(0 -0 -6.85252e-06)
(0 -0 -6.62936e-06)
(0 -0 -6.40521e-06)
(0 -0 -6.17839e-06)
(0 -0 -5.94975e-06)
(0 -0 -5.72154e-06)
(0 -0 -5.49411e-06)
(0 -0 0.000455501)
(0 -0 0.000454499)
(0 -0 0.000452131)
(0 -0 0.000446723)
(0 -0 0.000446263)
(0 -0 0.000475965)
(0 -0 0.000571448)
(0 -0 0.000756768)
(0 -0 0.00102153)
(0 -0 0.00131423)
(0 -0 0.00155774)
(0 -0 0.00167835)
(0 -0 0.00163266)
(0 -0 0.0014204)
(0 -0 0.00108012)
(0 -0 0.000673145)
(0 -0 0.00026419)
(0 -0 -9.413e-05)
(0 -0 -0.000369407)
(0 -0 -0.000550268)
(0 -0 -0.000642212)
(0 -0 -0.000661284)
(0 -0 -0.000627905)
(0 -0 -0.000562152)
(0 -0 -0.000480916)
(0 -0 -0.000396721)
(0 -0 -0.000317738)
(0 -0 -0.000248461)
(0 -0 -0.000190651)
(0 -0 -0.000144258)
(0 -0 -0.000108192)
(0 -0 -8.08834e-05)
(0 -0 -6.06609e-05)
(0 -0 -4.59649e-05)
(0 -0 -3.54528e-05)
(0 -0 -2.80312e-05)
(0 -0 -2.28447e-05)
(0 -0 -1.92459e-05)
(0 -0 -1.67569e-05)
(0 -0 -1.50326e-05)
(0 -0 -1.38282e-05)
(0 -0 -1.29726e-05)
(0 -0 -1.23478e-05)
(0 -0 -1.18735e-05)
(0 -0 -1.14952e-05)
(0 -0 -1.11766e-05)
(0 -0 -1.08932e-05)
(0 -0 -1.06293e-05)
(0 -0 -1.03741e-05)
(0 -0 -1.01209e-05)
(0 -0 -9.86554e-06)
(0 -0 -9.60622e-06)
(0 -0 -9.34357e-06)
(0 -0 -9.0796e-06)
(0 -0 -8.81395e-06)
(0 -0 0.000458584)
(0 -0 0.000457594)
(0 -0 0.00045516)
(0 -0 0.000449569)
(0 -0 0.000449197)
(0 -0 0.000480256)
(0 -0 0.000579524)
(0 -0 0.000771445)
(0 -0 0.00104451)
(0 -0 0.00134469)
(0 -0 0.00159184)
(0 -0 0.00170997)
(0 -0 0.00165505)
(0 -0 0.00142797)
(0 -0 0.0010698)
(0 -0 0.000644827)
(0 -0 0.000220387)
(0 -0 -0.000149169)
(0 -0 -0.000430744)
(0 -0 -0.00061319)
(0 -0 -0.000702848)
(0 -0 -0.000716903)
(0 -0 -0.000676928)
(0 -0 -0.000603987)
(0 -0 -0.000515711)
(0 -0 -0.000425103)
(0 -0 -0.000340584)
(0 -0 -0.00026673)
(0 -0 -0.000205265)
(0 -0 -0.000156039)
(0 -0 -0.00011783)
(0 -0 -8.89364e-05)
(0 -0 -6.75632e-05)
(0 -0 -5.2045e-05)
(0 -0 -4.09536e-05)
(0 -0 -3.3128e-05)
(0 -0 -2.76621e-05)
(0 -0 -2.38707e-05)
(0 -0 -2.12484e-05)
(0 -0 -1.9431e-05)
(0 -0 -1.81599e-05)
(0 -0 -1.72548e-05)
(0 -0 -1.65913e-05)
(0 -0 -1.60846e-05)
(0 -0 -1.56774e-05)
(0 -0 -1.53316e-05)
(0 -0 -1.50215e-05)
(0 -0 -1.47304e-05)
(0 -0 -1.44471e-05)
(0 -0 -1.41646e-05)
(0 -0 -1.38784e-05)
(0 -0 -1.35866e-05)
(0 -0 -1.32896e-05)
(0 -0 -1.29892e-05)
(0 -0 -1.26843e-05)
(0 -0 0.000461413)
(0 -0 0.000460436)
(0 -0 0.000457935)
(0 -0 0.000452156)
(0 -0 0.000451883)
(0 -0 0.000484355)
(0 -0 0.000587516)
(0 -0 0.000786153)
(0 -0 0.00106755)
(0 -0 0.00137502)
(0 -0 0.0016253)
(0 -0 0.00174013)
(0 -0 0.00167491)
(0 -0 0.00143188)
(0 -0 0.00105477)
(0 -0 0.000610985)
(0 -0 0.000170567)
(0 -0 -0.00021037)
(0 -0 -0.000498068)
(0 -0 -0.000681674)
(0 -0 -0.000768461)
(0 -0 -0.000776833)
(0 -0 -0.000729586)
(0 -0 -0.000648823)
(0 -0 -0.000552946)
(0 -0 -0.00045545)
(0 -0 -0.00036501)
(0 -0 -0.000286274)
(0 -0 -0.000220922)
(0 -0 -0.000168689)
(0 -0 -0.000128213)
(0 -0 -9.76463e-05)
(0 -0 -7.50618e-05)
(0 -0 -5.86811e-05)
(0 -0 -4.69845e-05)
(0 -0 -3.87393e-05)
(0 -0 -3.29854e-05)
(0 -0 -2.89973e-05)
(0 -0 -2.6241e-05)
(0 -0 -2.43316e-05)
(0 -0 -2.29961e-05)
(0 -0 -2.20444e-05)
(0 -0 -2.13453e-05)
(0 -0 -2.08095e-05)
(0 -0 -2.03768e-05)
(0 -0 -2.00068e-05)
(0 -0 -1.96728e-05)
(0 -0 -1.9357e-05)
(0 -0 -1.90479e-05)
(0 -0 -1.87379e-05)
(0 -0 -1.84225e-05)
(0 -0 -1.80993e-05)
(0 -0 -1.77688e-05)
(0 -0 -1.74323e-05)
(0 -0 -1.70884e-05)
(0 -0 0.00046399)
(0 -0 0.000463028)
(0 -0 0.000460457)
(0 -0 0.000454487)
(0 -0 0.000454325)
(0 -0 0.000488256)
(0 -0 0.000595392)
(0 -0 0.00080082)
(0 -0 0.00109052)
(0 -0 0.00140505)
(0 -0 0.00165797)
(0 -0 0.00176873)
(0 -0 0.00169226)
(0 -0 0.00143226)
(0 -0 0.00103529)
(0 -0 0.000572)
(0 -0 0.000115207)
(0 -0 -0.000277194)
(0 -0 -0.000570817)
(0 -0 -0.000755168)
(0 -0 -0.000838532)
(0 -0 -0.000840606)
(0 -0 -0.00078547)
(0 -0 -0.000696311)
(0 -0 -0.000592327)
(0 -0 -0.000487516)
(0 -0 -0.000390809)
(0 -0 -0.000306922)
(0 -0 -0.000237477)
(0 -0 -0.000182086)
(0 -0 -0.000139234)
(0 -0 -0.000106917)
(0 -0 -8.30697e-05)
(0 -0 -6.57928e-05)
(0 -0 -5.347e-05)
(0 -0 -4.47934e-05)
(0 -0 -3.87457e-05)
(0 -0 -3.45595e-05)
(0 -0 -3.16703e-05)
(0 -0 -2.96716e-05)
(0 -0 -2.82757e-05)
(0 -0 -2.72818e-05)
(0 -0 -2.65517e-05)
(0 -0 -2.59916e-05)
(0 -0 -2.55378e-05)
(0 -0 -2.51481e-05)
(0 -0 -2.47942e-05)
(0 -0 -2.44576e-05)
(0 -0 -2.41261e-05)
(0 -0 -2.37918e-05)
(0 -0 -2.34499e-05)
(0 -0 -2.30979e-05)
(0 -0 -2.27358e-05)
(0 -0 -2.23646e-05)
(0 -0 -2.19828e-05)
(0 -0 0.000466317)
(0 -0 0.000465371)
(0 -0 0.000462728)
(0 -0 0.000456566)
(0 -0 0.000456523)
(0 -0 0.000491946)
(0 -0 0.00060311)
(0 -0 0.000815358)
(0 -0 0.0011133)
(0 -0 0.00143464)
(0 -0 0.00168974)
(0 -0 0.00179574)
(0 -0 0.0017072)
(0 -0 0.0014294)
(0 -0 0.00101183)
(0 -0 0.000528495)
(0 -0 5.50459e-05)
(0 -0 -0.000348834)
(0 -0 -0.000648169)
(0 -0 -0.000832881)
(0 -0 -0.000912329)
(0 -0 -0.000907569)
(0 -0 -0.000844014)
(0 -0 -0.00074597)
(0 -0 -0.000633451)
(0 -0 -0.00052097)
(0 -0 -0.000417709)
(0 -0 -0.000328446)
(0 -0 -0.00025474)
(0 -0 -0.000196067)
(0 -0 -0.000150749)
(0 -0 -0.000116622)
(0 -0 -9.14708e-05)
(0 -0 -7.3272e-05)
(0 -0 -6.0308e-05)
(0 -0 -5.11925e-05)
(0 -0 -4.48485e-05)
(0 -0 -4.04651e-05)
(0 -0 -3.74463e-05)
(0 -0 -3.5363e-05)
(0 -0 -3.39119e-05)
(0 -0 -3.28815e-05)
(0 -0 -3.21265e-05)
(0 -0 -3.15478e-05)
(0 -0 -3.10787e-05)
(0 -0 -3.06747e-05)
(0 -0 -3.03062e-05)
(0 -0 -2.99537e-05)
(0 -0 -2.96045e-05)
(0 -0 -2.92504e-05)
(0 -0 -2.8886e-05)
(0 -0 -2.85087e-05)
(0 -0 -2.81178e-05)
(0 -0 -2.77138e-05)
(0 -0 -2.72973e-05)
(0 -0 0.000468396)
(0 -0 0.000467467)
(0 -0 0.000464751)
(0 -0 0.000458397)
(0 -0 0.000458481)
(0 -0 0.000495415)
(0 -0 0.000610623)
(0 -0 0.000829673)
(0 -0 0.00113574)
(0 -0 0.00146365)
(0 -0 0.0017205)
(0 -0 0.00182119)
(0 -0 0.00171995)
(0 -0 0.00142373)
(0 -0 0.000985052)
(0 -0 0.000481324)
(0 -0 -8.92377e-06)
(0 -0 -0.00042423)
(0 -0 -0.000729056)
(0 -0 -0.000913789)
(0 -0 -0.000988915)
(0 -0 -0.000976892)
(0 -0 -0.000904504)
(0 -0 -0.000797199)
(0 -0 -0.000675821)
(0 -0 -0.000555401)
(0 -0 -0.000445372)
(0 -0 -0.000350568)
(0 -0 -0.000272477)
(0 -0 -0.000210432)
(0 -0 -0.000162586)
(0 -0 -0.000126606)
(0 -0 -0.000100123)
(0 -0 -8.09866e-05)
(0 -0 -6.73732e-05)
(0 -0 -5.7816e-05)
(0 -0 -5.11769e-05)
(0 -0 -4.65999e-05)
(0 -0 -4.34564e-05)
(0 -0 -4.12946e-05)
(0 -0 -3.97949e-05)
(0 -0 -3.8735e-05)
(0 -0 -3.79618e-05)
(0 -0 -3.73714e-05)
(0 -0 -3.68937e-05)
(0 -0 -3.64819e-05)
(0 -0 -3.61051e-05)
(0 -0 -3.57427e-05)
(0 -0 -3.53815e-05)
(0 -0 -3.50128e-05)
(0 -0 -3.46311e-05)
(0 -0 -3.42331e-05)
(0 -0 -3.38169e-05)
(0 -0 -3.33866e-05)
(0 -0 -3.29266e-05)
(0 -0 0.000470193)
(0 -0 0.000469279)
(0 -0 0.000466493)
(0 -0 0.000459951)
(0 -0 0.000460164)
(0 -0 0.000498579)
(0 -0 0.00061773)
(0 -0 0.000843372)
(0 -0 0.00115725)
(0 -0 0.00149134)
(0 -0 0.00174958)
(0 -0 0.00184469)
(0 -0 0.00173062)
(0 -0 0.00141601)
(0 -0 0.000956417)
(0 -0 0.000432601)
(0 -0 -7.40888e-05)
(0 -0 -0.00050046)
(0 -0 -0.000810451)
(0 -0 -0.000994939)
(0 -0 -0.00106554)
(0 -0 -0.00104612)
(0 -0 -0.000964817)
(0 -0 -0.00084821)
(0 -0 -0.000717961)
(0 -0 -0.000589608)
(0 -0 -0.000472828)
(0 -0 -0.000372506)
(0 -0 -0.000290052)
(0 -0 -0.000224657)
(0 -0 -0.000174303)
(0 -0 -0.000136488)
(0 -0 -0.000108691)
(0 -0 -8.86297e-05)
(0 -0 -7.43794e-05)
(0 -0 -6.43915e-05)
(0 -0 -5.74673e-05)
(0 -0 -5.27058e-05)
(0 -0 -4.94462e-05)
(0 -0 -4.72137e-05)
(0 -0 -4.56729e-05)
(0 -0 -4.45904e-05)
(0 -0 -4.38057e-05)
(0 -0 -4.32098e-05)
(0 -0 -4.27293e-05)
(0 -0 -4.23153e-05)
(0 -0 -4.19353e-05)
(0 -0 -4.1568e-05)
(0 -0 -4.11994e-05)
(0 -0 -4.08204e-05)
(0 -0 -4.04253e-05)
(0 -0 -4.00101e-05)
(0 -0 -3.95736e-05)
(0 -0 -3.91095e-05)
(0 -0 -3.86284e-05)
(0 -0 0.000471743)
(0 -0 0.000470844)
(0 -0 0.000467989)
(0 -0 0.000461266)
(0 -0 0.000461607)
(0 -0 0.000501473)
(0 -0 0.000624468)
(0 -0 0.000856512)
(0 -0 0.00117793)
(0 -0 0.00151791)
(0 -0 0.00177728)
(0 -0 0.00186665)
(0 -0 0.00173974)
(0 -0 0.0014069)
(0 -0 0.000926648)
(0 -0 0.000383071)
(0 -0 -0.000139719)
(0 -0 -0.000576843)
(0 -0 -0.000891745)
(0 -0 -0.0010758)
(0 -0 -0.00114176)
(0 -0 -0.00111488)
(0 -0 -0.00102465)
(0 -0 -0.000898757)