/*--------------------------------*- C++ -*----------------------------------*\
| =========                 |                                                 |
| \\      /  F ield         | OpenFOAM: The Open Source CFD Toolbox           |
|  \\    /   O peration     | Version:  2412                                  |
|   \\  /    A nd           | Website:  www.openfoam.com                      |
|    \\/     M anipulation  |                                                 |
\*---------------------------------------------------------------------------*/
FoamFile
{
    version     2.0;
    format      ascii;
    arch        "LSB;label=32;scalar=64";
    class       volScalarField;
    location    "27";
    object      p;
}
// * * * * * * * * * * * * * * * * * * * * * * * * * * * * * * * * * * * * * //

dimensions      [0 2 -2 0 0 0 0];

internalField   nonuniform List<scalar> 
5285
(
0.000775866
0.000770889
0.000765606
0.000760002
0.000754065
0.00074778
0.000741133
0.000734109
0.000726694
0.000718874
0.000710633
0.000701957
0.000692832
0.000683243
0.000673177
0.000662619
0.000786032
0.000781191
0.000776038
0.000770558
0.000764738
0.000758561
0.000752013
0.000745079
0.000737743
0.000729988
0.0007218
0.000713162
0.000704059
0.000694475
0.000684394
0.000673802
0.000796479
0.000791787
0.000786777
0.000781435
0.000775745
0.000769691
0.000763257
0.000756426
0.000749182
0.000741508
0.000733387
0.000724801
0.000715734
0.000706168
0.000696086
0.000685472
0.00080721
0.00080268
0.000797828
0.000792638
0.000787093
0.000781176
0.000774871
0.00076816
0.000761024
0.000753446
0.000745407
0.000736889
0.000727873
0.00071834
0.000708272
0.000697651
0.00081823
0.000813876
0.000809196
0.000804173
0.000798789
0.000793026
0.000786866
0.00078029
0.000773279
0.000765814
0.000757875
0.000749441
0.000740493
0.000731009
0.000720971
0.000710358
0.00082954
0.000825378
0.000820886
0.000816046
0.000810839
0.000805246
0.000799249
0.000792826
0.000785958
0.000778624
0.000770802
0.000762471
0.000753609
0.000744193
0.000734203
0.000723615
0.000841143
0.00083719
0.000832902
0.000828262
0.00082325
0.000817845
0.000812028
0.000805778
0.000799072
0.000791888
0.000784203
0.000775994
0.000767238
0.00075791
0.000747987
0.000737444
0.000853042
0.000849313
0.000845247
0.000840825
0.000836025
0.000830829
0.000825212
0.000819154
0.00081263
0.000805617
0.00079809
0.000790025
0.000781397
0.000772178
0.000762343
0.000751866
0.000865237
0.00086175
0.000857924
0.000853738
0.000849172
0.000844202
0.000838807
0.000832961
0.000826642
0.000819822
0.000812477
0.000804579
0.000796101
0.000787014
0.000777292
0.000766904
0.000877729
0.000874502
0.000870935
0.000867005
0.000862692
0.000857971
0.000852819
0.000847209
0.000841117
0.000834515
0.000827375
0.000819669
0.000811366
0.000802438
0.000792853
0.00078258
0.000890518
0.000887569
0.000884281
0.000880628
0.00087659
0.00087214
0.000867254
0.000861904
0.000856064
0.000849705
0.000842796
0.000835308
0.000827209
0.000818466
0.000809046
0.000798916
0.000903602
0.000900952
0.000897962
0.000894609
0.000890867
0.000886712
0.000882116
0.000877052
0.00087149
0.000865401
0.000858751
0.00085151
0.000843643
0.000835115
0.000825891
0.000815934
0.000916979
0.000914648
0.000911979
0.000908947
0.000905526
0.00090169
0.00089741
0.000892658
0.000887402
0.000881611
0.000875251
0.000868287
0.000860684
0.000852403
0.000843407
0.000833657
0.000930646
0.000928656
0.000926329
0.000923642
0.000920566
0.000917074
0.000913138
0.000908726
0.000903806
0.000898344
0.000892304
0.000885651
0.000878344
0.000870346
0.000861613
0.000852105
0.000944599
0.000942971
0.00094101
0.000938691
0.000935986
0.000932866
0.000929301
0.000925259
0.000920705
0.000915604
0.000909919
0.00090361
0.000896637
0.000888957
0.000880526
0.000871299
0.000958832
0.000957588
0.000956017
0.000954092
0.000951784
0.000949064
0.0009459
0.000942258
0.000938103
0.000933397
0.000928102
0.000922175
0.000915573
0.000908252
0.000900163
0.000891259
0.000973337
0.000972501
0.000971344
0.000969838
0.000967956
0.000965664
0.000962932
0.000959723
0.000956
0.000951726
0.000946857
0.000941351
0.000935162
0.000928242
0.000920539
0.000912003
0.000988107
0.000987702
0.000986984
0.000985925
0.000984495
0.000982662
0.000980393
0.000977651
0.000974397
0.00097059
0.000966188
0.000961145
0.000955411
0.000948937
0.000941668
0.000933549
0.00100313
0.00100318
0.00100293
0.00100234
0.00100139
0.00100005
0.000998279
0.000996038
0.00099329
0.000989991
0.000986097
0.000981559
0.000976327
0.000970347
0.000963562
0.000955912
0.0010184
0.00101893
0.00101917
0.00101908
0.00101865
0.00101783
0.00101658
0.00101488
0.00101268
0.00100993
0.00100658
0.0010026
0.000997915
0.000992479
0.000986231
0.000979106
0.000827797
0.000827839
0.000827971
0.000828173
0.00082844
0.000828766
0.000829145
0.00082957
0.000830035
0.000830534
0.000831058
0.000831602
0.000832158
0.000832717
0.000833274
0.000833818
0.000834343
0.000834838
0.000835297
0.00083571
0.000836073
0.000836377
0.000836618
0.000836792
0.000836893
0.000836917
0.000836859
0.000836714
0.000836477
0.000836142
0.000835703
0.000835152
0.000834484
0.000833692
0.000832769
0.000831711
0.000830509
0.000829161
0.000827659
0.000826
0.00082418
0.000822195
0.000820041
0.000817715
0.000815216
0.000812541
0.000809689
0.000806659
0.00080345
0.000800061
0.000796494
0.000792748
0.000788824
0.000784725
0.000780453
0.000830308
0.000830355
0.000830504
0.000830732
0.000831033
0.000831402
0.000831832
0.000832316
0.000832848
0.000833419
0.000834024
0.000834655
0.000835305
0.000835965
0.000836628
0.000837285
0.000837928
0.000838548
0.000839137
0.000839686
0.00084019
0.00084064
0.000841033
0.000841362
0.000841623
0.00084181
0.00084192
0.000841947
0.000841884
0.000841726
0.000841467
0.000841099
0.000840615
0.00084001
0.000839275
0.000838406
0.000837395
0.000836238
0.000834928
0.00083346
0.00083183
0.000830035
0.000828069
0.00082593
0.000823615
0.000821122
0.000818448
0.000815593
0.000812555
0.000809333
0.000805928
0.000802339
0.000798568
0.000794615
0.000790481
0.000832807
0.00083286
0.000833025
0.000833279
0.000833615
0.000834027
0.000834509
0.000835052
0.00083565
0.000836296
0.000836983
0.000837702
0.000838447
0.000839208
0.000839979
0.000840751
0.000841514
0.00084226
0.000842981
0.000843669
0.000844316
0.000844915
0.000845462
0.00084595
0.000846374
0.00084673
0.000847011
0.000847213
0.000847329
0.000847354
0.000847279
0.000847099
0.000846806
0.000846393
0.000845854
0.000845181
0.000844368
0.000843409
0.000842298
0.00084103
0.000839599
0.000838002
0.000836234
0.000834291
0.000832171
0.000829869
0.000827385
0.000824715
0.000821859
0.000818815
0.000815584
0.000812164
0.000808555
0.00080476
0.000800779
0.000835293
0.000835351
0.000835533
0.000835813
0.000836184
0.00083664
0.000837174
0.000837777
0.000838443
0.000839163
0.000839932
0.00084074
0.000841581
0.000842446
0.000843326
0.000844213
0.000845098
0.000845973
0.000846828
0.000847656
0.000848448
0.0008492
0.000849903
0.000850553
0.000851144
0.000851671
0.000852128
0.00085251
0.00085281
0.000853021
0.000853137
0.00085315
0.000853053
0.00085284
0.000852501
0.000852032
0.000851424
0.000850671
0.000849768
0.000848707
0.000847485
0.000846095
0.000844534
0.000842797
0.000840881
0.000838782
0.000836497
0.000834024
0.000831362
0.000828508
0.000825461
0.000822222
0.00081879
0.000815164
0.000811347
0.000837764
0.000837827
0.000838026
0.000838333
0.000838739
0.000839239
0.000839825
0.000840489
0.000841222
0.000842019
0.00084287
0.000843769
0.000844706
0.000845675
0.000846665
0.00084767
0.000848678
0.000849683
0.000850674
0.000851644
0.000852586
0.000853491
0.000854354
0.000855169
0.000855931
0.000856632
0.000857269
0.000857834
0.000858322
0.000858725
0.000859037
0.000859249
0.000859355
0.000859346
0.000859216
0.000858956
0.000858561
0.000858022
0.000857334
0.00085649
0.000855485
0.000854312
0.000852968
0.000851447
0.000849745
0.000847859
0.000845785
0.000843521
0.000841063
0.000838411
0.000835562
0.000832516
0.000829272
0.00082583
0.00082219
0.000840219
0.000840288
0.000840504
0.000840837
0.000841279
0.000841824
0.000842462
0.000843186
0.000843988
0.000844861
0.000845796
0.000846785
0.000847821
0.000848894
0.000849996
0.000851119
0.000852253
0.000853389
0.000854518
0.000855633
0.000856725
0.000857787
0.000858812
0.000859795
0.00086073
0.00086161
0.00086243
0.000863184
0.000863864
0.000864464
0.000864976
0.000865392
0.000865706
0.000865909
0.000865993
0.000865951
0.000865776
0.000865459
0.000864994
0.000864375
0.000863596
0.00086265
0.000861532
0.000860237
0.000858761
0.000857098
0.000855247
0.000853202
0.000850962
0.000848524
0.000845886
0.000843046
0.000840003
0.000836758
0.000833309
0.000842657
0.000842731
0.000842965
0.000843325
0.000843802
0.000844391
0.000845082
0.000845867
0.000846739
0.000847688
0.000848707
0.000849788
0.000850922
0.000852101
0.000853316
0.000854559
0.000855819
0.000857088
0.000858357
0.000859618
0.000860863
0.000862084
0.000863275
0.000864429
0.00086554
0.000866602
0.000867609
0.000868555
0.000869431
0.000870233
0.00087095
0.000871577
0.000872105
0.000872525
0.000872831
0.000873013
0.000873064
0.000872977
0.000872745
0.000872359
0.000871815
0.000871105
0.000870223
0.000869165
0.000867925
0.000866498
0.000864881
0.000863068
0.000861058
0.000858847
0.000856432
0.000853812
0.000850985
0.00084795
0.000844706
0.000845076
0.000845156
0.000845407
0.000845794
0.000846307
0.000846941
0.000847685
0.000848531
0.000849472
0.000850498
0.000851602
0.000852775
0.000854009
0.000855295
0.000856624
0.000857987
0.000859375
0.000860779
0.000862189
0.000863599
0.000864998
0.00086638
0.000867739
0.000869066
0.000870357
0.000871605
0.000872802
0.000873944
0.000875022
0.000876029
0.000876957
0.000877799
0.000878547
0.000879191
0.000879724
0.000880138
0.000880424
0.000880574
0.000880582
0.000880439
0.000880139
0.000879674
0.00087904
0.000878228
0.000877235
0.000876055
0.000874684
0.000873116
0.000871348
0.000869377
0.0008672
0.000864813
0.000862216
0.000859406
0.000856383
0.000847476
0.000847561
0.000847829
0.000848243
0.000848792
0.00084947
0.000850268
0.000851176
0.000852187
0.00085329
0.00085448
0.000855745
0.000857079
0.000858472
0.000859916
0.000861401
0.000862918
0.000864458
0.000866012
0.000867571
0.000869127
0.000870673
0.000872201
0.000873705
0.000875178
0.000876614
0.000878006
0.000879347
0.00088063
0.000881848
0.000882992
0.000884055
0.000885028
0.000885902
0.000886669
0.000887321
0.000887849
0.000888245
0.000888501
0.000888609
0.000888563
0.000888354
0.000887976
0.000887423
0.000886688
0.000885767
0.000884653
0.000883343
0.000881831
0.000880113
0.000878187
0.000876049
0.000873696
0.000871127
0.00086834
0.000849854
0.000849945
0.00085023
0.00085067
0.000851256
0.000851979
0.00085283
0.0008538
0.000854881
0.000856062
0.000857337
0.000858696
0.000860131
0.000861632
0.000863191
0.000864799
0.000866446
0.000868123
0.000869822
0.000871532
0.000873247
0.000874959
0.000876659
0.000878342
0.00088
0.000881627
0.000883217
0.000884762
0.000886254
0.000887687
0.000889051
0.00089034
0.000891544
0.000892654
0.000893662
0.000894559
0.000895336
0.000895985
0.000896498
0.000896867
0.000897083
0.000897139
0.000897029
0.000896744
0.00089628
0.000895629
0.000894786
0.000893745
0.000892503
0.000891053
0.000889392
0.000887517
0.000885425
0.000883112
0.000880577
0.000852209
0.000852305
0.000852608
0.000853076
0.000853697
0.000854466
0.00085537
0.000856402
0.000857553
0.000858813
0.000860173
0.000861626
0.000863162
0.000864772
0.000866447
0.000868179
0.000869957
0.000871773
0.000873617
0.000875481
0.000877356
0.000879234
0.000881109
0.000882973
0.000884819
0.000886641
0.000888431
0.000890183
0.000891889
0.000893541
0.000895131
0.00089665
0.00089809
0.000899442
0.000900697
0.000901846
0.00090288
0.00090379
0.000904568
0.000905205
0.000905694
0.000906025
0.000906193
0.000906188
0.000906005
0.000905637
0.000905077
0.00090432
0.00090336
0.000902192
0.000900812
0.000899216
0.000897399
0.000895359
0.000893093
0.00085454
0.000854642
0.000854962
0.000855457
0.000856114
0.000856928
0.000857886
0.000858981
0.000860201
0.000861539
0.000862986
0.000864533
0.00086617
0.00086789
0.000869682
0.000871538
0.000873448
0.000875403
0.000877394
0.000879412
0.000881449
0.000883497
0.000885548
0.000887596
0.000889632
0.000891651
0.000893645
0.000895608
0.00089753
0.000899406
0.000901225
0.00090298
0.000904662
0.000906262
0.00090777
0.000909177
0.000910475
0.000911654
0.000912706
0.000913621
0.00091439
0.000915007
0.000915462
0.000915749
0.000915859
0.000915785
0.000915522
0.000915061
0.000914398
0.000913527
0.000912443
0.000911141
0.000909616
0.000907865
0.000905885
0.000856845
0.000856953
0.000857291
0.000857812
0.000858506
0.000859364
0.000860377
0.000861533
0.000862824
0.000864241
0.000865774
0.000867415
0.000869154
0.000870983
0.000872893
0.000874874
0.000876917
0.000879012
0.000881151
0.000883325
0.000885525
0.000887744
0.000889973
0.000892206
0.000894435
0.000896654
0.000898855
0.000901031
0.000903174
0.000905277
0.00090733
0.000909326
0.000911255
0.000913108
0.000914875
0.000916548
0.000918117
0.000919572
0.000920905
0.000922106
0.000923167
0.000924078
0.000924832
0.000925421
0.000925835
0.000926069
0.000926114
0.000925964
0.000925613
0.000925053
0.00092428
0.000923288
0.000922072
0.000920628
0.000918952
0.000859124
0.000859237
0.000859592
0.00086014
0.00086087
0.000861774
0.00086284
0.000864059
0.00086542
0.000866915
0.000868535
0.00087027
0.000872112
0.000874051
0.000876078
0.000878185
0.000880361
0.000882597
0.000884885
0.000887216
0.00088958
0.000891971
0.00089438
0.0008968
0.000899224
0.000901645
0.000904056
0.000906449
0.000908816
0.00091115
0.000913441
0.000915682
0.000917863
0.000919974
0.000922007
0.000923951
0.000925798
0.000927537
0.000929159
0.000930656
0.000932016
0.000933233
0.000934296
0.000935197
0.000935928
0.000936481
0.000936849
0.000937023
0.000936997
0.000936764
0.000936318
0.000935652
0.000934762
0.000933643
0.000932289
0.000861374
0.000861493
0.000861865
0.00086244
0.000863206
0.000864155
0.000865275
0.000866555
0.000867987
0.000869561
0.000871267
0.000873096
0.00087504
0.00087709
0.000879235
0.000881468
0.000883778
0.000886156
0.000888593
0.000891081
0.000893611
0.000896175
0.000898766
0.000901375
0.000903996
0.000906621
0.000909244
0.000911856
0.000914451
0.000917019
0.000919553
0.000922043
0.00092448
0.000926856
0.000929159
0.000931382
0.000933513
0.000935543
0.000937463
0.000939262
0.000940932
0.000942463
0.000943845
0.000945071
0.00094613
0.000947015
0.000947718
0.00094823
0.000948544
0.000948653
0.00094855
0.000948228
0.000947681
0.000946904
0.000945892
0.000863595
0.000863719
0.000864108
0.00086471
0.000865513
0.000866506
0.000867679
0.000869022
0.000870524
0.000872176
0.000873968
0.000875892
0.000877939
0.000880098
0.000882362
0.00088472
0.000887164
0.000889685
0.000892273
0.000894919
0.000897615
0.000900354
0.000903126
0.000905926
0.000908745
0.000911577
0.000914414
0.000917249
0.000920074
0.00092288
0.000925659
0.000928403
0.000931102
0.000933746
0.000936326
0.000938832
0.000941255
0.000943583
0.000945808
0.000947919
0.000949907
0.000951761
0.000953473
0.000955034
0.000956433
0.000957663
0.000958714
0.000959578
0.000960247
0.000960713
0.000960969
0.000961007
0.000960822
0.000960406
0.000959754
0.000865784
0.000865914
0.000866321
0.000866949
0.000867787
0.000868825
0.000870052
0.000871456
0.000873028
0.000874759
0.000876637
0.000878655
0.000880804
0.000883074
0.000885456
0.00088794
0.000890519
0.000893182
0.00089592
0.000898725
0.000901589
0.000904502
0.000907459
0.00091045
0.000913469
0.000916509
0.000919563
0.000922622
0.000925679
0.000928727
0.000931755
0.000934757
0.000937721
0.000940639
0.0009435
0.000946296
0.000949016
0.000951649
0.000954186
0.000956617
0.000958931
0.00096112
0.000963172
0.000965078
0.000966829
0.000968415
0.000969827
0.000971057
0.000972095
0.000972934
0.000973566
0.000973982
0.000974176
0.00097414
0.000973868
0.000867941
0.000868076
0.0008685
0.000869155
0.000870029
0.000871112
0.000872391
0.000873857
0.000875499
0.000877307
0.000879272
0.000881384
0.000883634
0.000886014
0.000888514
0.000891125
0.000893838
0.000896643
0.000899533
0.000902497
0.000905528
0.000908618
0.000911758
0.000914942
0.000918163
0.000921413
0.000924684
0.000927971
0.000931263
0.000934555
0.000937836
0.000941098
0.000944331
0.000947527
0.000950676
0.000953766
0.000956789
0.000959734
0.000962591
0.000965349
0.000967998
0.000970529
0.000972931
0.000975193
0.000977307
0.000979262
0.000981048
0.000982658
0.00098408
0.000985308
0.000986331
0.000987142
0.000987733
0.000988096
0.000988225
0.000870064
0.000870205
0.000870646
0.000871327
0.000872236
0.000873363
0.000874696
0.000876223
0.000877934
0.00087982
0.00088187
0.000884076
0.000886428
0.000888917
0.000891535
0.000894272
0.000897119
0.000900067
0.000903107
0.000906231
0.00090943
0.000912696
0.000916021
0.000919399
0.000922822
0.000926283
0.000929775
0.00093329
0.00093682
0.000940358
0.000943894
0.00094742
0.000950927
0.000954405
0.000957845
0.000961236
0.000964568
0.00096783
0.000971013
0.000974106
0.000977099
0.000979981
0.000982741
0.00098537
0.000987858
0.000990194
0.000992367
0.00099437
0.000996191
0.000997822
0.000999254
0.00100048
0.00100148
0.00100227
0.00100281
0.000986223
0.000989465
0.000992594
0.0009956
0.000998472
0.0010012
0.00100377
0.00100618
0.00100842
0.00101047
0.00101232
0.00101398
0.00101542
0.00101664
0.00101763
0.000671587
0.000671394
0.0006709
0.000670105
0.000669038
0.000667718
0.000666161
0.000664379
0.000662384
0.000660188
0.000657803
0.00065524
0.000652509
0.00064962
0.000646583
0.000643406
0.000640096
0.000636663
0.000633113
0.000629453
0.00062569
0.00062183
0.000617882
0.000613851
0.000609746
0.000605572
0.000601338
0.000597049
0.000592713
0.000588336
0.000583923
0.000579482
0.000575017
0.000570534
0.000566037
0.000561531
0.000557022
0.000552512
0.000548006
0.000543509
0.000539022
0.00053455
0.000530096
0.000525663
0.000521254
0.000516871
0.000512517
0.000508193
0.000503904
0.000499649
0.000495432
0.000491253
0.000487115
0.000483019
0.000478966
0.000671904
0.000671713
0.000671219
0.000670425
0.000669358
0.000668041
0.000666485
0.000664705
0.000662711
0.000660518
0.000658135
0.000655574
0.000652846
0.000649959
0.000646924
0.000643749
0.000640442
0.000637011
0.000633463
0.000629805
0.000626043
0.000622186
0.000618239
0.000614209
0.000610105
0.000605932
0.000601698
0.00059741
0.000593074
0.000588697
0.000584284
0.000579842
0.000575376
0.000570892
0.000566393
0.000561886
0.000557375
0.000552863
0.000548355
0.000543855
0.000539365
0.00053489
0.000530433
0.000525997
0.000521583
0.000517196
0.000512838
0.000508511
0.000504216
0.000499957
0.000495735
0.000491551
0.000487408
0.000483307
0.000479249
0.000672521
0.000672331
0.000671838
0.000671045
0.000669981
0.000668666
0.000667114
0.000665337
0.000663348
0.000661158
0.00065878
0.000656224
0.0006535
0.000650618
0.000647588
0.000644417
0.000641115
0.000637688
0.000634143
0.000630489
0.000626731
0.000622876
0.000618932
0.000614905
0.000610803
0.000606632
0.000602399
0.000598112
0.000593776
0.000589398
0.000584985
0.000580542
0.000576075
0.000571588
0.000567087
0.000562577
0.000558062
0.000553546
0.000549034
0.000544528
0.000540033
0.000535552
0.000531089
0.000526645
0.000522225
0.00051783
0.000513464
0.000509128
0.000504825
0.000500557
0.000496326
0.000492133
0.00048798
0.000483868
0.0004798
0.000673419
0.000673229
0.000672738
0.000671947
0.000670887
0.000669576
0.000668029
0.000666258
0.000664274
0.000662091
0.000659719
0.000657169
0.000654452
0.000651577
0.000648554
0.00064539
0.000642094
0.000638673
0.000635134
0.000631485
0.000627732
0.000623883
0.000619943
0.00061592
0.00061182
0.000607652
0.000603421
0.000599135
0.0005948
0.000590422
0.000586008
0.000581564
0.000577094
0.000572605
0.0005681
0.000563586
0.000559066
0.000554544
0.000550025
0.000545512
0.000541009
0.00053652
0.000532047
0.000527593
0.000523163
0.000518757
0.000514379
0.000510031
0.000505716
0.000501434
0.00049719
0.000492983
0.000488815
0.000484689
0.000480606
0.000674579
0.000674391
0.000673902
0.000673114
0.000672058
0.000670753
0.000669213
0.000667448
0.000665472
0.000663297
0.000660934
0.000658393
0.000655685
0.000652819
0.000649804
0.000646649
0.000643361
0.000639949
0.000636418
0.000632776
0.00062903
0.000625187
0.000621253
0.000617234
0.000613139
0.000608975
0.000604747
0.000600462
0.000596129
0.000591751
0.000587337
0.00058289
0.000578418
0.000573925
0.000569416
0.000564896
0.000560369
0.00055584
0.000551313
0.000546791
0.000542278
0.000537777
0.000533292
0.000528827
0.000524382
0.000519963
0.00051557
0.000511206
0.000506875
0.000502577
0.000498314
0.00049409
0.000489904
0.000485759
0.000481657
0.000675986
0.000675799
0.000675312
0.000674528
0.000673478
0.00067218
0.000670647
0.000668891
0.000666925
0.00066476
0.000662407
0.000659878
0.000657181
0.000654326
0.000651322
0.000648178
0.000644901
0.000641498
0.000637977
0.000634345
0.000630608
0.000626772
0.000622845
0.000618833
0.000614744
0.000610584
0.000606359
0.000602078
0.000597746
0.000593369
0.000588954
0.000584506
0.00058003
0.000575533
0.000571019
0.000566493
0.000561959
0.000557421
0.000552883
0.00054835
0.000543825
0.000539312
0.000534813
0.000530332
0.000525872
0.000521435
0.000517025
0.000512642
0.000508291
0.000503973
0.00049969
0.000495443
0.000491236
0.000487068
0.000482942
0.000677621
0.000677435
0.000676952
0.000676173
0.000675129
0.000673839
0.000672316
0.000670571
0.000668616
0.000666463
0.000664123
0.000661606
0.000658922
0.000656081
0.000653091
0.000649959
0.000646695
0.000643305
0.000639796
0.000636175
0.000632448
0.000628622
0.000624704
0.0006207
0.000616618
0.000612464
0.000608244
0.000603966
0.000599636
0.00059526
0.000590845
0.000586395
0.000581917
0.000577416
0.000572896
0.000568363
0.00056382
0.000559273
0.000554724
0.000550179
0.00054564
0.000541112
0.000536597
0.000532099
0.00052762
0.000523164
0.000518733
0.000514329
0.000509955
0.000505614
0.000501306
0.000497035
0.000492801
0.000488607
0.000484454
0.000679469
0.000679285
0.000678805
0.000678032
0.000676996
0.000675716
0.000674203
0.00067247
0.000670528
0.000668389
0.000666064
0.000663562
0.000660894
0.000658068
0.000655094
0.000651978
0.000648729
0.000645354
0.000641859
0.000638251
0.000634536
0.000630722
0.000626815
0.000622821
0.000618747
0.0006146
0.000610386
0.000606113
0.000601786
0.000597412
0.000592997
0.000588546
0.000584066
0.00057956
0.000575034
0.000570494
0.000565942
0.000561384
0.000556824
0.000552265
0.000547711
0.000543166
0.000538634
0.000534116
0.000529617
0.000525139
0.000520685
0.000516257
0.000511858
0.00050749
0.000503156
0.000498856
0.000494593
0.000490369
0.000486185
0.000681515
0.000681333
0.000680857
0.00068009
0.000679063
0.000677793
0.000676293
0.000674573
0.000672646
0.000670524
0.000668215
0.000665731
0.000663081
0.000660273
0.000657317
0.000654219
0.000650987
0.000647629
0.00064415
0.000640558
0.000636858
0.000633058
0.000629163
0.00062518
0.000621116
0.000616978
0.000612772
0.000608504
0.000604182
0.000599811
0.000595397
0.000590946
0.000586463
0.000581953
0.000577422
0.000572874
0.000568313
0.000563744
0.000559171
0.000554598
0.000550028
0.000545466
0.000540914
0.000536376
0.000531854
0.000527352
0.000522873
0.000518419
0.000513993
0.000509596
0.000505231
0.0005009
0.000496606
0.000492349
0.000488131
0.000683743
0.000683564
0.000683092
0.000682333
0.000681315
0.000680057
0.000678571
0.000676867
0.000674957
0.000672852
0.000670562
0.000668098
0.000665468
0.000662681
0.000659745
0.000656667
0.000653455
0.000650116
0.000646656
0.000643082
0.000639399
0.000635614
0.000631734
0.000627765
0.000623713
0.000619585
0.000615388
0.000611128
0.000606812
0.000602444
0.000598033
0.000593582
0.000589097
0.000584584
0.000580048
0.000575492
0.000570922
0.000566342
0.000561756
0.000557168
0.000552582
0.000548001
0.000543429
0.000538868
0.000534323
0.000529796
0.00052529
0.000520808
0.000516351
0.000511924
0.000507527
0.000503162
0.000498833
0.00049454
0.000490285
0.00068614
0.000685963
0.000685496
0.000684745
0.000683738
0.000682493
0.000681022
0.000679335
0.000677444
0.000675359
0.000673091
0.000670649
0.000668041
0.000665277
0.000662364
0.000659309
0.00065612
0.000652803
0.000649364
0.00064581
0.000642146
0.00063838
0.000634516
0.000630563
0.000626525
0.00062241
0.000618223
0.000613972
0.000609663
0.000605301
0.000600893
0.000596444
0.000591959
0.000587443
0.000582902
0.00057834
0.000573761
0.00056917
0.000564571
0.000559968
0.000555364
0.000550764
0.000546171
0.000541587
0.000537017
0.000532464
0.000527929
0.000523417
0.000518929
0.000514468
0.000510037
0.000505636
0.00050127
0.000496939
0.000492645
0.000688692
0.000688517
0.000688055
0.000687313
0.000686318
0.000685088
0.000683634
0.000681966
0.000680095
0.000678033
0.000675788
0.00067337
0.000670787
0.000668048
0.000665161
0.000662131
0.000658967
0.000655675
0.00065226
0.000648728
0.000645087
0.000641341
0.000637497
0.000633561
0.000629539
0.000625439
0.000621265
0.000617026
0.000612725
0.000608371
0.000603968
0.000599521
0.000595037
0.00059052
0.000585975
0.000581407
0.00057682
0.000572218
0.000567606
0.000562988
0.000558367
0.000553748
0.000549133
0.000544526
0.00053993
0.000535349
0.000530785
0.000526241
0.00052172
0.000517224
0.000512756
0.000508318
0.000503913
0.000499541
0.000495205
0.000691385
0.000691213
0.000690757
0.000690024
0.000689042
0.000687828
0.000686392
0.000684745
0.000682897
0.000680859
0.000678639
0.000676248
0.000673693
0.000670982
0.000668122
0.000665121
0.000661985
0.00065872
0.000655331
0.000651826
0.000648209
0.000644486
0.000640664
0.000636748
0.000632745
0.000628662
0.000624504
0.000620277
0.000615988
0.000611642
0.000607246
0.000602804
0.000598322
0.000593805
0.000589258
0.000584685
0.00058009
0.000575479
0.000570855
0.000566222
0.000561584
0.000556945
0.000552308
0.000547677
0.000543056
0.000538446
0.000533852
0.000529275
0.00052472
0.000520188
0.000515682
0.000511205
0.000506758
0.000502343
0.000497963
0.000694206
0.000694037
0.000693588
0.000692865
0.000691898
0.000690701
0.000689284
0.00068766
0.000685836
0.000683824
0.000681633
0.000679271
0.000676746
0.000674065
0.000671237
0.000668267
0.000665161
0.000661926
0.000658567
0.000655089
0.0006515
0.000647803
0.000644006
0.000640113
0.000636132
0.000632068
0.000627927
0.000623716
0.00061944
0.000615106
0.000610719
0.000606284
0.000601806
0.00059729
0.000592742
0.000588165
0.000583565
0.000578945
0.000574309
0.000569662
0.000565008
0.00056035
0.000555692
0.000551037
0.000546388
0.00054175
0.000537125
0.000532515
0.000527925
0.000523355
0.00051881
0.000514292
0.000509802
0.000505343
0.000500917
0.000697144
0.000696978
0.000696536
0.000695825
0.000694872
0.000693694
0.000692299
0.000690698
0.000688902
0.000686918
0.000684757
0.000682427
0.000679934
0.000677287
0.000674492
0.000671555
0.000668483
0.000665281
0.000661954
0.000658509
0.000654949
0.000651282
0.000647512
0.000643645
0.000639688
0.000635646
0.000631526
0.000627333
0.000623073
0.000618753
0.000614377
0.00060995
0.000605479
0.000600967
0.00059642
0.000591841
0.000587236
0.000582608
0.000577963
0.000573303
0.000568633
0.000563956
0.000559277
0.000554598
0.000549923
0.000545256
0.0005406
0.000535957
0.00053133
0.000526723
0.000522138
0.000517577
0.000513043
0.000508539
0.000504065
0.000700188
0.000700025
0.00069959
0.000698891
0.000697955
0.000696796
0.000695424
0.000693849
0.000692081
0.000690128
0.000688
0.000685703
0.000683246
0.000680635
0.000677876
0.000674976
0.000671941
0.000668775
0.000665484
0.000662072
0.000658546
0.000654911
0.000651171
0.000647334
0.000643403
0.000639387
0.00063529
0.000631118
0.000626877
0.000622573
0.000618211
0.000613796
0.000609333
0.000604827
0.000600283
0.000595704
0.000591096
0.000586463
0.000581809
0.000577137
0.000572453
0.000567758
0.000563059
0.000558357
0.000553656
0.00054896
0.000544273
0.000539596
0.000534933
0.000530287
0.000525661
0.000521058
0.000516479
0.000511927
0.000507405
0.000703325
0.000703166
0.000702738
0.000702052
0.000701133
0.000699996
0.000698649
0.000697102
0.000695364
0.000693444
0.00069135
0.00068909
0.000686671
0.000684098
0.000681379
0.000678519
0.000675523
0.000672396
0.000669143
0.00066577
0.00066228
0.00065868
0.000654974
0.000651169
0.000647269
0.000643281
0.00063921
0.000635062
0.000630843
0.000626559
0.000622213
0.000617812
0.000613361
0.000608863
0.000604324
0.000599748
0.000595139
0.000590502
0.000585841
0.000581159
0.000576462
0.000571751
0.000567032
0.000562308
0.000557582
0.000552858
0.00054814
0.000543429
0.000538731
0.000534046
0.000529379
0.000524732
0.000520107
0.000515508
0.000510936
0.000706545
0.00070639
0.000705971
0.000705299
0.000704398
0.000703283
0.000701962
0.000700444
0.000698739
0.000696854
0.000694798
0.000692577
0.000690198
0.000687667
0.00068499
0.000682173
0.000679219
0.000676135
0.000672924
0.000669591
0.000666141
0.00066258
0.000658911
0.000655141
0.000651275
0.000647318
0.000643277
0.000639157
0.000634963
0.000630701
0.000626375
0.000621991
0.000617554
0.000613067
0.000608536
0.000603965
0.000599358
0.00059472
0.000590054
0.000585364
0.000580655
0.00057593
0.000571193
0.000566448
0.000561698
0.000556947
0.000552198
0.000547454
0.00054272
0.000537996
0.000533288
0.000528597
0.000523926
0.000519278
0.000514656
0.000709839
0.000709688
0.000709278
0.00070862
0.000707739
0.000706647
0.000705354
0.000703868
0.000702197
0.000700349
0.000698332
0.000696153
0.000693817
0.000691331
0.000688699
0.000685927
0.000683019
0.000679981
0.000676815
0.000673526
0.00067012
0.0006666
0.000662972
0.000659241
0.000655412
0.000651491
0.000647483
0.000643393
0.000639228
0.000634991
0.000630689
0.000626325
0.000621905
0.000617432
0.000612913
0.000608349
0.000603747
0.000599109
0.000594441
0.000589745
0.000585027
0.000580289
0.000575536
0.000570771
0.000565999
0.000561221
0.000556443
0.000551667
0.000546897
0.000542136
0.000537387
0.000532652
0.000527935
0.000523238
0.000518565
0.000713197
0.000713049
0.000712649
0.000712006
0.000711145
0.000710079
0.000708815
0.000707362
0.000705727
0.000703919
0.000701944
0.000699809
0.000697519
0.000695079
0.000692496
0.000689773
0.000686914
0.000683924
0.000680807
0.000677566
0.000674207
0.000670732
0.000667148
0.00066346