/*--------------------------------*- C++ -*----------------------------------*\
| =========                 |                                                 |
| \\      /  F ield         | OpenFOAM: The Open Source CFD Toolbox           |
|  \\    /   O peration     | Version:  2412                                  |
|   \\  /    A nd           | Website:  www.openfoam.com                      |
|    \\/     M anipulation  |                                                 |
\*---------------------------------------------------------------------------*/
FoamFile
{
    version     2.0;
    format      ascii;
    arch        "LSB;label=32;scalar=64";
    class       surfaceScalarField;
    location    "16";
    object      phi;
}
// * * * * * * * * * * * * * * * * * * * * * * * * * * * * * * * * * * * * * //

dimensions      [0 3 -1 0 0 0 0];

oriented        oriented;

internalField   nonuniform List<scalar> 
10424
(
0.00527147
-0.000345701
-0.00527782
0.00526554
-0.000342928
0.00526003
-0.000339876
-0.000336555
0.00528185
-0.000339209
-0.00528834
0.00527575
-0.000336834
0.00527005
-0.000334179
0.00526475
-0.000331252
0.00525984
-0.000328062
0.00525531
-0.00032462
0.00525116
-0.000320938
0.00524738
-0.000317027
0.00524396
-0.000312896
0.0052409
-0.000308559
0.00523817
-0.000304027
0.00523578
-0.000299313
0.0052337
-0.000294432
0.00523193
-0.000289396
0.00523045
-0.000284219
0.00522925
-0.000278913
0.00522832
-0.000273494
0.00522764
-0.000267972
0.0052272
-0.000262361
0.00522698
-0.000256671
0.00522698
-0.000250915
0.00522717
-0.000245103
0.00522756
-0.000239246
0.00522812
-0.000233354
0.00522884
-0.000227442
0.00522971
-0.00022152
0.00523072
-0.000215602
0.00523186
-0.000209704
0.00523311
-0.000203839
0.00523447
-0.000198021
0.00523591
-0.00019226
0.00523743
-0.000186567
0.00523902
-0.000180948
0.00524066
-0.000175408
0.00524235
-0.000169948
0.00524407
-0.00016457
0.00524582
-0.000159273
0.00524759
-0.000154057
0.00524937
-0.000148922
0.00525115
-0.000143869
0.00525293
-0.000138897
0.00525469
-0.000134007
0.00525645
-0.000129201
-0.000124479
0.00529165
-0.000332603
-0.00529826
0.00528542
-0.000330606
0.00527957
-0.000328329
0.0052741
-0.000325779
0.005269
-0.000322965
0.00526428
-0.000319894
0.00525991
-0.000316577
0.00525591
-0.000313025
0.00525226
-0.000309246
0.00524896
-0.000305253
0.00524599
-0.000301056
0.00524334
-0.000296668
0.00524101
-0.0002921
0.00523898
-0.000287368
0.00523724
-0.000282482
0.00523579
-0.000277456
0.0052346
-0.000272303
0.00523366
-0.000267036
0.00523296
-0.000261666
0.0052325
-0.000256206
0.00523225
-0.000250667
0.00523221
-0.000245059
0.00523236
-0.000239394
0.00523269
-0.000233684
0.00523318
-0.00022794
0.00523384
-0.000222174
0.00523464
-0.000216402
0.00523557
-0.000210637
0.00523663
-0.000204893
0.00523779
-0.000199183
0.00523905
-0.00019352
0.00524039
-0.000187913
0.00524181
-0.000182368
0.0052433
-0.00017689
0.00524483
-0.000171483
0.00524641
-0.000166147
0.00524802
-0.000160884
0.00524965
-0.000155693
0.00525131
-0.000150575
0.00525297
-0.00014553
0.00525463
-0.000140561
0.00525629
-0.000135668
0.00525794
-0.000130852
-0.000126117
0.00530091
-0.000325912
-0.0053076
0.00529457
-0.000324272
0.0052886
-0.000322354
0.00528298
-0.000320165
0.00527773
-0.00031771
0.00527283
-0.000314996
0.00526829
-0.000312032
0.00526409
-0.000308827
0.00526023
-0.00030539
0.00525671
-0.000301732
0.00525352
-0.000297863
0.00525064
-0.000293793
0.00524808
-0.000289536
0.00524581
-0.000285103
0.00524384
-0.000280506
0.00524214
-0.000275758
0.00524071
-0.000270872
0.00523953
-0.00026586
0.0052386
-0.000260734
0.0052379
-0.000255506
0.00523742
-0.000250187
0.00523715
-0.000244787
0.00523707
-0.000239319
0.00523718
-0.000233794
0.00523747
-0.000228223
0.00523791
-0.00022262
0.00523851
-0.000216998
0.00523925
-0.000211372
0.00524011
-0.000205755
0.00524109
-0.000200161
0.00524217
-0.000194602
0.00524334
-0.000189087
0.0052446
-0.000183623
0.00524592
-0.000178215
0.0052473
-0.000172867
0.00524874
-0.000167581
0.00525021
-0.000162357
0.00525172
-0.000157198
0.00525325
-0.000152103
0.00525479
-0.000147075
0.00525634
-0.000142114
0.0052579
-0.000137223
0.00525945
-0.000132404
-0.00012766
0.00530963
-0.000319162
-0.00531638
0.00530322
-0.00031786
0.00529715
-0.000316283
0.00529142
-0.000314436
0.00528603
-0.000312323
0.00528099
-0.000309951
0.00527628
-0.000307327
0.00527191
-0.000304458
0.00526788
-0.000301353
0.00526416
-0.00029802
0.00526077
-0.00029447
0.00525769
-0.000290712
0.00525491
-0.000286759
0.00525243
-0.000282621
0.00525024
-0.00027831
0.00524832
-0.000273839
0.00524666
-0.000269218
0.00524526
-0.000264461
0.00524411
-0.000259579
0.00524319
-0.000254584
0.00524249
-0.000249487
0.005242
-0.000244298
0.00524171
-0.00023903
0.00524161
-0.000233694
0.00524169
-0.000228301
0.00524193
-0.000222865
0.00524233
-0.000217399
0.00524288
-0.000211917
0.00524355
-0.000206433
0.00524435
-0.000200961
0.00524526
-0.000195511
0.00524627
-0.000190094
0.00524736
-0.000184717
0.00524854
-0.000179386
0.00524977
-0.000174104
0.00525107
-0.000168874
0.0052524
-0.000163697
0.00525378
-0.000158575
0.00525519
-0.00015351
0.00525662
-0.000148503
0.00525806
-0.000143557
0.00525951
-0.000138674
0.00526096
-0.000133857
-0.000129109
0.00531784
-0.000312377
-0.00532463
0.00531138
-0.000311393
0.00530523
-0.000310138
0.00529941
-0.000308616
0.00529392
-0.000306831
0.00528875
-0.000304785
0.00528391
-0.000302487
0.0052794
-0.000299941
0.0052752
-0.000297155
0.00527132
-0.000294138
0.00526775
-0.000290898
0.00526448
-0.000287446
0.00526151
-0.00028379
0.00525883
-0.000279942
0.00525643
-0.000275912
0.00525431
-0.000271714
0.00525245
-0.000267357
0.00525084
-0.000262854
0.00524947
-0.000258215
0.00524834
-0.000253454
0.00524744
-0.00024858
0.00524674
-0.000243605
0.00524625
-0.000238539
0.00524595
-0.000233395
0.00524584
-0.000228183
0.00524589
-0.000222918
0.0052461
-0.000217612
0.00524646
-0.000212279
0.00524696
-0.000206933
0.00524759
-0.000201587
0.00524833
-0.000196252
0.00524918
-0.00019094
0.00525011
-0.000185656
0.00525114
-0.000180407
0.00525223
-0.000175197
0.00525338
-0.000170029
0.00525459
-0.000164905
0.00525584
-0.000159826
0.00525713
-0.000154796
0.00525844
-0.000149817
0.00525978
-0.000144891
0.00526113
-0.000140022
0.00526248
-0.000135212
-0.000130465
0.00532556
-0.000305578
-0.00533236
0.00531906
-0.000304893
0.00531287
-0.000303943
0.00530698
-0.000302729
0.0053014
-0.000301253
0.00529614
-0.00029952
0.00529118
-0.000297533
0.00528654
-0.000295297
0.00528221
-0.00029282
0.00527818
-0.000290108
0.00527445
-0.000287169
0.00527101
-0.000284012
0.00526787
-0.000280647
0.00526501
-0.000277083
0.00526243
-0.00027333
0.00526012
-0.0002694
0.00525806
-0.000265304
0.00525626
-0.000261052
0.0052547
-0.000256657
0.00525338
-0.000252129
0.00525228
-0.000247478
0.00525139
-0.000242717
0.00525071
-0.000237856
0.00525022
-0.000232906
0.00524991
-0.000227879
0.00524978
-0.000222787
0.00524981
-0.000217645
0.00525
-0.000212465
0.00525033
-0.000207261
0.00525079
-0.000202046
0.00525137
-0.000196832
0.00525206
-0.000191629
0.00525284
-0.000186443
0.00525372
-0.000181283
0.00525467
-0.00017615
0.00525569
-0.00017105
0.00525677
-0.000165984
0.0052579
-0.000160955
0.00525907
-0.000155965
0.00526027
-0.000151019
0.0052615
-0.000146119
0.00526274
-0.000141268
0.005264
-0.00013647
-0.00013173
0.00533281
-0.000298784
-0.0053396
0.0053263
-0.000298381
0.00532007
-0.000297717
0.00531414
-0.000296794
0.0053085
-0.000295613
0.00530315
-0.000294175
0.00529811
-0.000292486
0.00529336
-0.000290547
0.0052889
-0.000288366
0.00528474
-0.000285949
0.00528088
-0.000283301
0.00527729
-0.000280432
0.005274
-0.000277349
0.00527098
-0.000274061
0.00526823
-0.00027058
0.00526574
-0.000266914
0.00526351
-0.000263075
0.00526153
-0.000259072
0.00525979
-0.000254917
0.00525828
-0.000250621
0.005257
-0.000246194
0.00525593
-0.000241647
0.00525506
-0.000236991
0.0052544
-0.000232237
0.00525391
-0.000227396
0.00525361
-0.000222481
0.00525347
-0.000217505
0.00525348
-0.000212482
0.00525365
-0.000207424
0.00525395
-0.000202345
0.00525437
-0.000197256
0.00525491
-0.000192166
0.00525555
-0.000187084
0.00525628
-0.000182017
0.0052571
-0.000176967
0.00525799
-0.000171939
0.00525894
-0.000166937
0.00525995
-0.000161962
0.005261
-0.000157019
0.00526209
-0.00015211
0.00526322
-0.000147241
0.00526436
-0.000142413
0.00526552
-0.000137632
-0.000132903
0.00533961
-0.000292014
-0.00534638
0.0053331
-0.000291874
0.00532686
-0.000291479
0.0053209
-0.00029083
0.00531521
-0.000289927
0.00530981
-0.000288772
0.00530469
-0.000287365
0.00529985
-0.000285711
0.0052953
-0.000283814
0.00529103
-0.000281679
0.00528704
-0.000279312
0.00528333
-0.00027672
0.00527989
-0.000273912
0.00527672
-0.000270895
0.00527382
-0.000267678
0.00527118
-0.000264271
0.00526879
-0.000260684
0.00526664
-0.000256927
0.00526473
-0.00025301
0.00526306
-0.000248944
0.0052616
-0.000244739
0.00526036
-0.000240406
0.00525933
-0.000235956
0.00525849
-0.000231398
0.00525784
-0.000226745
0.00525736
-0.000222009
0.00525706
-0.000217202
0.00525691
-0.000212337
0.00525692
-0.000207429
0.00525706
-0.000202489
0.00525734
-0.000197528
0.00525773
-0.000192557
0.00525823
-0.000187583
0.00525882
-0.000182613
0.00525951
-0.000177651
0.00526027
-0.000172701
0.0052611
-0.000167767
0.00526199
-0.000162852
0.00526293
-0.000157959
0.00526391
-0.000153093
0.00526493
-0.000148259
0.00526598
-0.000143459
0.00526704
-0.0001387
-0.000133986
0.00534597
-0.000285283
-0.0053527
0.00533948
-0.000285389
0.00533325
-0.000285246
0.00532727
-0.000284855
0.00532156
-0.000284215
0.00531612
-0.000283326
0.00531094
-0.000282188
0.00530603
-0.000280805
0.0053014
-0.000279179
0.00529703
-0.000277315
0.00529294
-0.000275219
0.00528912
-0.000272896
0.00528556
-0.000270353
0.00528226
-0.000267598
0.00527922
-0.000264638
0.00527643
-0.000261484
0.0052739
-0.000258145
0.0052716
-0.000254629
0.00526954
-0.000250947
0.0052677
-0.000247109
0.00526609
-0.000243125
0.00526468
-0.000239005
0.00526349
-0.000234759
0.00526249
-0.000230398
0.00526168
-0.000225934
0.00526105
-0.000221377
0.00526059
-0.000216741
0.00526029
-0.000212039
0.00526014
-0.000207282
0.00526014
-0.000202484
0.00526026
-0.000197656
0.00526051
-0.000192807
0.00526088
-0.000187945
0.00526134
-0.000183076
0.00526189
-0.000178206
0.00526253
-0.000173338
0.00526324
-0.000168477
0.00526402
-0.000163626
0.00526485
-0.000158788
0.00526572
-0.00015397
0.00526664
-0.000149175
0.00526759
-0.000144408
0.00526856
-0.000139674
-0.000134979
0.00535191
-0.000278606
-0.00535859
0.00534547
-0.00027894
0.00533925
-0.000279034
0.00533328
-0.000278885
0.00532756
-0.000278492
0.00532209
-0.000277854
0.00531687
-0.000276971
0.00531191
-0.000275845
0.00530721
-0.000274478
0.00530277
-0.000272874
0.00529859
-0.000271038
0.00529466
-0.000268973
0.005291
-0.000266686
0.00528759
-0.000264185
0.00528442
-0.000261477
0.00528151
-0.000258569
0.00527884
-0.000255472
0.0052764
-0.000252193
0.00527419
-0.000248742
0.00527221
-0.000245128
0.00527045
-0.000241362
0.0052689
-0.000237454
0.00526755
-0.000233412
0.0052664
-0.000229248
0.00526544
-0.000224972
0.00526466
-0.000220596
0.00526405
-0.000216132
0.0052636
-0.000211593
0.00526331
-0.000206991
0.00526316
-0.000202338
0.00526315
-0.000197644
0.00526327
-0.000192921
0.00526349
-0.000188174
0.00526383
-0.000183411
0.00526426
-0.000178636
0.00526478
-0.000173855
0.00526537
-0.00016907
0.00526603
-0.000164287
0.00526675
-0.000159509
0.00526752
-0.000154742
0.00526834
-0.00014999
0.00526919
-0.00014526
0.00527007
-0.000140556
-0.000135885
0.00535747
-0.000271994
-0.00536408
0.00535107
-0.000272541
0.00534489
-0.000272854
0.00533894
-0.000272932
0.00533322
-0.000272771
0.00532773
-0.00027237
0.00532249
-0.000271729
0.00531749
-0.000270847
0.00531274
-0.000269727
0.00530824
-0.000268371
0.00530398
-0.000266783
0.00529998
-0.000264966
0.00529622
-0.000262927
0.0052927
-0.000260671
0.00528943
-0.000258206
0.0052864
-0.000255538
0.00528361
-0.000252677
0.00528105
-0.000249629
0.00527871
-0.000246405
0.00527659
-0.000243013
0.00527469
-0.000239462
0.005273
-0.000235763
0.00527151
-0.000231923
0.00527022
-0.000227955
0.00526912
-0.000223867
0.00526819
-0.000219672
0.00526744
-0.000215381
0.00526685
-0.000211007
0.00526642
-0.00020656
0.00526614
-0.000202054
0.005266
-0.000197499
0.00526598
-0.000192903
0.00526608
-0.000188275
0.00526629
-0.000183621
0.0052666
-0.000178945
0.005267
-0.000174254
0.00526748
-0.00016955
0.00526803
-0.000164838
0.00526864
-0.000160124
0.00526931
-0.000155412
0.00527003
-0.000150708
0.00527079
-0.000146018
0.00527158
-0.000141347
-0.000136704
0.00536265
-0.000265459
-0.00536918
0.00535631
-0.000266204
0.00535018
-0.000266722
0.00534426
-0.000267011
0.00533855
-0.000267068
0.00533307
-0.00026689
0.00532782
-0.000266475
0.00532279
-0.000265825
0.00531801
-0.000264939
0.00531345
-0.000263819
0.00530914
-0.000262468
0.00530506
-0.00026089
0.00530122
-0.000259088
0.00529762
-0.00025707
0.00529426
-0.000254839
0.00529112
-0.000252404
0.00528822
-0.000249772
0.00528554
-0.000246951
0.00528308
-0.000243948
0.00528084
-0.000240773
0.00527882
-0.000237435
0.00527699
-0.000233941
0.00527537
-0.000230303
0.00527395
-0.000226528
0.00527271
-0.000222629
0.00527165
-0.000218614
0.00527077
-0.000214496
0.00527005
-0.000210287
0.00526948
-0.000205998
0.00526907
-0.00020164
0.0052688
-0.000197224
0.00526865
-0.000192759
0.00526863
-0.000188252
0.00526872
-0.00018371
0.00526891
-0.000179137
0.00526919
-0.000174538
0.00526956
-0.000169918
0.00527001
-0.000165282
0.00527052
-0.000160635
0.00527109
-0.000155981
0.00527171
-0.000151329
0.00527237
-0.000146683
0.00527307
-0.00014205
-0.000137437
0.00536747
-0.000259012
-0.00537392
0.00536121
-0.000259938
0.00535513
-0.000260646
0.00534925
-0.000261132
0.00534358
-0.000261392
0.00533811
-0.000261423
0.00533286
-0.000261223
0.00532782
-0.00026079
0.00532301
-0.000260126
0.00531842
-0.000259231
0.00531406
-0.000258106
0.00530993
-0.000256756
0.00530602
-0.000255183
0.00530234
-0.000253392
0.00529889
-0.000251388
0.00529567
-0.000249179
0.00529266
-0.00024677
0.00528988
-0.000244168
0.00528732
-0.000241383
0.00528496
-0.00023842
0.00528282
-0.00023529
0.00528088
-0.000232
0.00527913
-0.000228559
0.00527758
-0.000224977
0.00527622
-0.000221264
0.00527503
-0.000217429
0.00527402
-0.000213484
0.00527317
-0.000209441
0.00527249
-0.000205309
0.00527195
-0.000201102
0.00527155
-0.000196827
0.00527128
-0.000192494
0.00527114
-0.000188111
0.00527111
-0.000183682
0.00527119
-0.000179215
0.00527137
-0.000174712
0.00527163
-0.000170179
0.00527197
-0.000165621
0.00527238
-0.000161044
0.00527285
-0.000156453
0.00527337
-0.000151855
0.00527395
-0.000147256
0.00527456
-0.000142664
-0.000138085
0.00537196
-0.00025266
-0.00537831
0.00536578
-0.000253754
0.00535977
-0.000254637
0.00535394
-0.000255306
0.00534831
-0.000255755
0.00534286
-0.000255982
0.00533762
-0.000255982
0.00533259
-0.000255756
0.00532776
-0.000255301
0.00532315
-0.000254619
0.00531875
-0.00025371
0.00531458
-0.000252576
0.00531061
-0.000251222
0.00530687
-0.00024965
0.00530335
-0.000247865
0.00530004
-0.000245873
0.00529695
-0.00024368
0.00529408
-0.000241293
0.00529141
-0.000238718
0.00528896
-0.000235964
0.0052867
-0.000233037
0.00528465
-0.000229947
0.00528279
-0.000226701
0.00528112
-0.000223309
0.00527964
-0.00021978
0.00527834
-0.000216124
0.0052772
-0.000212352
0.00527624
-0.000208474
0.00527543
-0.000204501
0.00527477
-0.000200444
0.00527426
-0.000196312
0.00527387
-0.000192113
0.00527362
-0.000187855
0.00527348
-0.000183543
0.00527345
-0.000179182
0.00527351
-0.000174778
0.00527367
-0.000170335
0.00527391
-0.000165859
0.00527422
-0.000161354
0.00527459
-0.000156829
0.00527503
-0.000152288
0.00527551
-0.00014774
0.00527604
-0.000143191
-0.00013865
0.00537614
-0.000246411
-0.00538238
0.00537004
-0.000247658
0.00536411
-0.000248703
0.00535834
-0.000249541
0.00535275
-0.000250167
0.00534735
-0.000250575
0.00534213
-0.000250764
0.0053371
-0.000250731
0.00533228
-0.000250474
0.00532765
-0.000249993
0.00532323
-0.000249288
0.00531902
-0.000248362
0.00531501
-0.000247216
0.00531121
-0.000245854
0.00530763
-0.000244279
0.00530425
-0.000242497
0.00530109
-0.000240514
0.00529813
-0.000238334
0.00529537
-0.000235964
0.00529282
-0.000233413
0.00529047
-0.000230686
0.00528832
-0.000227791
0.00528635
-0.000224738
0.00528458
-0.000221533
0.00528298
-0.000218187
0.00528156
-0.000214708
0.00528032
-0.000211106
0.00527924
-0.000207393
0.00527832
-0.000203578
0.00527754
-0.000199672
0.00527692
-0.000195683
0.00527642
-0.00019162
0.00527606
-0.000187488
0.00527581
-0.000183294
0.00527567
-0.000179043
0.00527563
-0.00017474
0.00527568
-0.000170389
0.00527582
-0.000165997
0.00527604
-0.000161568
0.00527632
-0.00015711
0.00527666
-0.00015263
0.00527706
-0.000148136
0.0052775
-0.000143634
-0.000139133
0.00538001
-0.000240272
-0.00538615
0.00537401
-0.000241659
0.00536816
-0.000242852
0.00536247
-0.000243846
0.00535694
-0.000244635
0.00535157
-0.000245213
0.00534639
-0.000245577
0.00534138
-0.000245725
0.00533656
-0.000245654
0.00533193
-0.000245363
0.0053275
-0.000244852
0.00532326
-0.000244123
0.00531922
-0.000243176
0.00531538
-0.000242015
0.00531174
-0.000240642
0.0053083
-0.000239062
0.00530507
-0.00023728
0.00530204
-0.000235301
0.0052992
-0.000233131
0.00529657
-0.000230776
0.00529412
-0.000228244
0.00529188
-0.000225542
0.00528981
-0.000222676
0.00528794
-0.000219656
0.00528624
-0.000216489
0.00528472
-0.000213185
0.00528336
-0.000209754
0.00528218
-0.000206205
0.00528114
-0.000202548
0.00528026
-0.000198792
0.00527953
-0.000194947
0.00527893
-0.000191019
0.00527846
-0.000187015
0.0052781
-0.000182941
0.00527786
-0.000178801
0.00527772
-0.0001746
0.00527768
-0.000170344
0.00527772
-0.000166037
0.00527784
-0.000161687
0.00527803
-0.0001573
0.00527828
-0.000152883
0.00527859
-0.000148445
0.00527895
-0.000143993
-0.000139536
0.00538361
-0.000234247
-0.00538964
0.00537771
-0.000235762
0.00537195
-0.000237091
0.00536633
-0.000238228
0.00536087
-0.000239167
0.00535555
-0.000239902
0.00535041
-0.00024043
0.00534543
-0.000240747
0.00534063
-0.00024085
0.005336
-0.000240738
0.00533156
-0.000240411
0.0053273
-0.000239868
0.00532324
-0.000239111
0.00531937
-0.000238141
0.00531568
-0.000236961
0.0053122
-0.000235575
0.00530891
-0.000233987
0.00530581
-0.000232202
0.0053029
-0.000230226
0.00530019
-0.000228063
0.00529767
-0.000225721
0.00529533
-0.000223205
0.00529318
-0.000220524
0.00529121
-0.000217685
0.00528941
-0.000214695
0.00528779
-0.000211564
0.00528634
-0.000208301
0.00528505
-0.000204914
0.00528392
-0.000201414
0.00528293
-0.000197809
0.00528209
-0.000194107
0.00528139
-0.000190316
0.00528081
-0.000186441
0.00528036
-0.000182487
0.00528002
-0.000178459
0.00527978
-0.000174363
0.00527964
-0.000170202
0.00527959
-0.000165984
0.00527961
-0.000161714
0.00527971
-0.0001574
0.00527988
-0.000153049
0.0052801
-0.000148669
0.00528038
-0.000144269
-0.000139858
0.00538695
-0.00022834
-0.00539285
0.00538116
-0.000229971
0.00537549
-0.000231423
0.00536995
-0.000232691
0.00536456
-0.000233769
0.0053593
-0.000234649
0.0053542
-0.000235329
0.00534926
-0.000235804
0.00534448
-0.00023607
0.00533987
-0.000236127
0.00533543
-0.000235972
0.00533117
-0.000235606
0.00532709
-0.000235029
0.00532319
-0.000234241
0.00531947
-0.000233246
0.00531594
-0.000232046
0.0053126
-0.000230645
0.00530944
-0.000229047
0.00530648
-0.000227257
0.00530369
-0.000225281
0.0053011
-0.000223123
0.00529868
-0.00022079
0.00529645
-0.000218289
0.00529439
-0.000215627
0.00529251
-0.000212812
0.00529079
-0.000209851
0.00528925
-0.000206754
0.00528786
-0.000203528
0.00528663
-0.000200183
0.00528555
-0.000196728
0.00528461
-0.000193169
0.00528381
-0.000189514
0.00528313
-0.000185768
0.00528258
-0.000181935
0.00528214
-0.000178021
0.00528181
-0.00017403
0.00528158
-0.000169967
0.00528143
-0.000165838
0.00528137
-0.000161651
0.00528138
-0.000157411
0.00528146
-0.000153128
0.0052816
-0.00014881
0.00528179
-0.000144465
-0.000140102
0.00539004
-0.00539583
-0.000222555
0.00538436
-0.00022429
0.00537879
-0.000225854
0.00537334
-0.000227242
0.00536802
-0.000228446
0.00536283
-0.000229461
0.00535778
-0.000230281
0.00535288
-0.000230902
0.00534813
-0.000231322
0.00534354
-0.000231536
0.00533911
-0.000231544
0.00533485
-0.000231345
0.00533076
-0.000230938
0.00532684
-0.000230324
0.0053231
-0.000229505
0.00531954
-0.000228483
0.00531615
-0.000227262
0.00531295
-0.000225844
0.00530993
-0.000224234
0.00530708
-0.000222437
0.00530442
-0.000220458
0.00530193
-0.000218304
0.00529962
-0.000215979
0.00529748
-0.00021349
0.00529552
-0.000210845
0.00529372
-0.000208052
0.00529208
-0.000205118
0.00529061
-0.000202051
0.00528928
-0.00019886
0.00528811
-0.000195554
0.00528708
-0.000192137
0.00528618
-0.000188618
0.00528541
-0.000185
0.00528477
-0.000181289
0.00528424
-0.000177489
0.00528381
-0.000173605
0.00528348
-0.000169641
0.00528325
-0.000165603
0.0052831
-0.000161499
0.00528302
-0.000157337
0.00528302
-0.000153124
0.00528308
-0.000148868
0.00528319
-0.00014458
-0.000140269
0.0057491
-0.000540742
0.0057202
-0.000546606
0.0056918
-0.000550765
0.00566401
-0.000553312
0.00563692
-0.000554338
0.00561061
-0.000553939
0.00558515
-0.000552208
0.0055606
-0.000549239
0.005537
-0.000545125
0.00551438
-0.00053996
0.00549278
-0.000533836
0.0054722
-0.000526847
0.00545266
-0.000519084
0.00543415
-0.00051064
0.00541666
-0.000501606
0.00540018
-0.000492068
0.00538469
-0.000482112
0.00537018
-0.000471816
0.0053566
-0.000461256
0.00534393
-0.000450501
0.00533214
-0.000439612
0.0053212
-0.000428647
0.00531106
-0.000417655
0.00530168
-0.00040668
0.00529305
-0.000395761
0.0052851
-0.000384931
-0.000374217
0.00574323
-0.00051326
0.00571605
-0.000519431
0.0056893
-0.000524008
0.00566305
-0.000527071
0.00563742
-0.000528701
0.00561246
-0.000528983
0.00558825
-0.000527999
0.00556485
-0.000525833
0.00554229
-0.000522567
0.00552061
-0.000518285
0.00549985
-0.000513071
0.00548001
-0.00050701
0.00546111
-0.000500186
0.00544316
-0.000492685
0.00542614
-0.00048459
0.00541006
-0.000475984
0.00539489
-0.000466946
0.00538063
-0.00045755
0.00536724
-0.000447869
0.00535471
-0.000437966
0.005343
-0.000427904
0.00533209
-0.000417734
0.00532194
-0.000407507
0.00531252
-0.000397265
0.00530381
-0.000387045
0.00529576
-0.00037688
-0.000366799
0.00573697
-0.000487469
0.00571142
-0.000493881
0.00568621
-0.000498801
0.00566144
-0.0005023
0.00563719
-0.000504448
0.00561353
-0.000505321
0.00559052
-0.000504991
0.00556822
-0.000503532
0.00554667
-0.000501019
0.00552591
-0.000497526
0.00550597
-0.000493129
0.00548686
-0.000487906
0.00546861
-0.000481934
0.00545122
-0.000475292
0.00543469
-0.000468059
0.00541901
-0.000460309
0.00540419
-0.000452119
0.0053902
-0.000443559
0.00537702
-0.000434697
0.00536465
-0.000425593
0.00535305
-0.000416306
0.00534221
-0.000406888
0.00533208
-0.000397385
0.00532266
-0.000387838
0.0053139
-0.000378285
0.00530577
-0.000368757
-0.000359283
0.00573042
-0.000463262
0.0057064
-0.000469858
0.00568266
-0.000475057
0.00565927
-0.000478919
0.00563634
-0.000481509
0.00561391
-0.000482891
0.00559205
-0.000483131
0.00557081
-0.000482294
0.00555024
-0.000480446
0.00553037
-0.000477656
0.00551123
-0.000473991
0.00549284
-0.000469522
0.00547523
-0.000464322
0.0054584
-0.000458462
0.00544236
-0.000452016
0.0054271
-0.000445054
0.00541263
-0.000437648
0.00539893
-0.000429862
0.005386
-0.000421761
0.00537381
-0.000413405
0.00536235
-0.000404846
0.0053516
-0.000396135
0.00534153
-0.000387316
0.00533212
-0.00037843
0.00532335
-0.000369511
0.00531518
-0.000360592
-0.000351699
0.00572367
-0.000440537
0.00570108
-0.000447268
0.00567871
-0.000452688
0.00565664
-0.000456851
0.00563495
-0.000459814
0.00561369
-0.000461634
0.00559292
-0.000462367
0.0055727
-0.000462074
0.00555307
-0.000460813
0.00553406
-0.000458646
0.00551571
-0.000455634
0.00549803
-0.000451844
0.00548105
-0.000447341
0.00546478
-0.000442192
0.00544922
-0.000436464
0.00543439
-0.000430226
0.00542029
-0.000423541
0.0054069
-0.000416473
0.00539422
-0.000409081
0.00538223
-0.000401421
0.00537093
-0.000393545
0.0053603
-0.0003855
0.00535031
-0.000377327
0.00534095
-0.000369066
0.00533219
-0.000360751
0.00532401
-0.000352412
-0.000344075
0.00571677
-0.000419196
0.00569552
-0.000426019
0.00567445
-0.000431612
0.00565361
-0.000436021
0.0056331
-0.000439296
0.00561295
-0.000441487
0.00559323
-0.000442647
0.00557398
-0.000442827
0.00555525
-0.000442081
0.00553707
-0.000440465
0.00551947
-0.000438036
0.00550248
-0.000434854
0.00548612
-0.000430979
0.0054704
-0.000426474
0.00545534
-0.000421403
0.00544094
-0.000415826
0.00542721
-0.000409807
0.00541414
-0.000403402
0.00540173
-0.000396669
0.00538996
-0.00038966
0.00537884
-0.000382423
0.00536834
-0.000375003
0.00535846
-0.00036744
0.00534916
-0.000359771
0.00534044
-0.000352028
0.00533227
-0.000344241
-0.000336435
0.00570978
-0.000399149
0.00568978
-0.000406028
0.00566992
-0.00041175
0.00565026
-0.000416355
0.00563085
-0.000419888
0.00561176
-0.000422394
0.00559303
-0.000423918
0.00557471
-0.000424508
0.00555684
-0.000424213
0.00553946
-0.000423083
0.00552259
-0.000421171
0.00550627
-0.000418532
0.00549051
-0.000415223
0.00547534
-0.000411302
0.00546077
-0.000406828
0.0054468
-0.000401858
0.00543344
-0.00039645
0.0054207
-0.000390658
0.00540857
-0.000384537
0.00539704
-0.000378134
0.00538611
-0.000371495
0.00537577
-0.000364662
0.005366
-0.000357674
0.0053568
-0.000350564
0.00534813
-0.000343364
0.00533999
-0.000336102
-0.000328803
0.00570273
-0.000380308
0.00568391
-0.000387212
0.00566519
-0.000393025
0.00564662
-0.000397784
0.00562826
-0.000401528
0.00561016
-0.000404296
0.00559237
-0.00040613
0.00557494
-0.000407073
0.00555789
-0.000407169
0.00554128
-0.000406466
0.00552512
-0.000405012
0.00550945
-0.000402859
0.00549428
-0.000400058
0.00547964
-0.000396665
0.00546555
-0.000392733
0.00545201
-0.000388318
0.00543903
-0.000383472
0.00542662
-0.000378248
0.00541478
-0.000372693
0.0054035
-0.000366855
0.00539278
-0.000360775
0.00538261
-0.000354493
0.00537298
-0.000348045
0.00536388
-0.000341464
0.0053553
-0.000334778
0.00534721
-0.000328015
-0.000321198
0.00569567
-0.000362593
0.00567795
-0.000369494
0.00566029
-0.000375367
0.00564275
-0.000380241
0.00562538
-0.000384153
0.00560822
-0.000387137
0.00559132
-0.000389232
0.00557472
-0.000390477
0.00555847
-0.000390913
0.00554258
-0.000390584
0.00552711
-0.000389534
0.00551206
-0.000387813
0.00549747
-0.000385468
0.00548336
-0.000382551
0.00546974
-0.000379113
0.00545662
-0.000375205
0.00544403
-0.000370876
0.00543195
-0.000366174
0.0054204
-0.000361145
0.00540938
-0.000355832
0.00539888
-0.000350274
0.0053889
-0.000344509
0.00537942
-0.00033857
0.00537044
-0.000332486
0.00536195
-0.000326287
0.00535393
-0.000319997
-0.000313639
0.00568862
-0.000345925
0.00567193
-0.000352801
0.00565527
-0.000358704
0.00563869
-0.000363662
0.00562224
-0.000367704
0.00560597
-0.000370864
0.00558991
-0.000373177
0.00557411
-0.000374678
0.00555861
-0.000375406
0.00554342
-0.000375403
0.0055286
-0.000374709
0.00551416
-0.000373372
0.00550013
-0.000371436
0.00548652
-0.000368949
0.00547337
-0.000365959
0.00546068
-0.000362513
0.00544846
-0.000358659
0.00543673
-0.000354439
0.00542548
-0.000349897
0.00541472
-0.000345073
0.00540445
-0.000340003
0.00539466
-0.000334721
0.00538535
-0.000329259
0.00537651
-0.000323645
0.00536813
-0.000317906
0.00536019
-0.000312064
-0.000306142
0.00568162
-0.000330232
0.00566588
-0.000337063
0.00565015
-0.000342972
0.00563447
-0.000347983
0.00561889
-0.000352124
0.00560345
-0.000355424
0.00558819
-0.000357916
0.00557314
-0.000359633
0.00555835
-0.000360612
0.00554384
-0.000360892
0.00552964
-0.000360512
0.00551578
-0.000359514
0.00550229
-0.000357944
0.00548919
-0.000355845
0.00547649
-0.000353262
0.00546422
-0.000350239
0.00545238
-0.000346819
0.00544098
-0.000343044
0.00543004
-0.000338954
0.00541955
-0.000334583
0.00540951
-0.000329968
0.00539993
-0.000325139
0.0053908
-0.000320125
0.00538211
-0.000314953
0.00537385
-0.000309647
0.00536601
-0.00030423
-0.000298721
0.00567467
-0.000315444
0.00565982
-0.000322214
0.00564496
-0.000328107
0.00563012
-0.000333147
0.00561536
-0.000337358
0.0056007
-0.000340767
0.00558619
-0.000343405
0.00557186
-0.000345302
0.00555774
-0.000346495
0.00554387
-0.00034702
0.00553027
-0.000346914
0.00551697
-0.000346219
0.00550401
-0.000344975
0.00549139
-0.000343226
0.00547914
-0.000341012
0.00546727
-0.000338375
0.00545581
-0.000335354
0.00544475
-0.00033199
0.00543412
-0.000328316
0.0054239
-0.000324368
0.00541411
-0.000320176
0.00540474
-0.00031577
0.00539579
-0.000311177
0.00538726
-0.00030642
0.00537913
-0.000301523
0.00537141
-0.000296506
-0.000291389
0.00566781
-0.000301497
0.00565378
-0.00030819
0.00563973
-0.00031405
0.00562568
-0.000319097
0.00561167
-0.000323353
0.00559775
-0.000326844
0.00558394
-0.000329598
0.00557029
-0.000331646
0.00555681
-0.00033302
0.00554355
-0.000333756
0.00553052
-0.000333891
0.00551777
-0.000333464
0.00550531
-0.000332513
0.00549316
-0.000331078
0.00548135
-0.000329199
0.00546988
-0.000326914
0.00545879
-0.00032426
0.00544807
-0.000321273
0.00543774
-0.000317986
0.00542781
-0.00031443
0.00541826
-0.000310633
0.00540911
-0.000306622
0.00540036
-0.000302422
0.00539199
-0.000298056
0.00538401
-0.000293543
0.00537641
-0.000288905
-0.000284158
0.00566104
-0.000288327
0.00564778
-0.000294932
0.00563447
-0.000300743
0.00562116
-0.000305779
0.00560786
-0.00031006
0.00559463
-0.000313609
0.00558148
-0.000316454
0.00556846
-0.000318625
0.00555559
-0.000320152
0.00554291
-0.000321072
0.00553044
-0.000321418
0.0055182
-0.000321227
0.00550623
-0.000320538
0.00549454
-0.000319388
0.00548315
-0.000317813
0.00547209
-0.00031585
0.00546136
-0.000313533
0.00545098
-0.000310894
0.00544096
-0.000307963
0.0054313
-0.00030477
0.005422
-0.000301341
0.00541308
-0.000297699
0.00540453
-0.000293867
0.00539634
-0.000289867
0.00538851
-0.000285716
0.00538104
-0.000281434
-0.000277037
0.00565438
-0.000275878
0.00564183
-0.000282384
0.00562922
-0.000288133
0.00561658
-0.000293142
0.00560395
-0.000297429
0.00559136
-0.000301018
0.00557884
-0.000303933
0.00556642
-0.000306204
0.00555413
-0.000307861
0.00554199