/*--------------------------------*- C++ -*----------------------------------*\
| =========                 |                                                 |
| \\      /  F ield         | OpenFOAM: The Open Source CFD Toolbox           |
|  \\    /   O peration     | Version:  2412                                  |
|   \\  /    A nd           | Website:  www.openfoam.com                      |
|    \\/     M anipulation  |                                                 |
\*---------------------------------------------------------------------------*/
FoamFile
{
    version     2.0;
    format      ascii;
    arch        "LSB;label=32;scalar=64";
    class       volVectorField;
    location    "6";
    object      vorticity;
}
// * * * * * * * * * * * * * * * * * * * * * * * * * * * * * * * * * * * * * //

dimensions      [0 0 -1 0 0 0 0];

internalField   nonuniform List<vector> 
5285
(
(0 -0 8.78733e-06)
(0 -0 6.52925e-06)
(0 -0 3.29607e-06)
(0 -0 -8.21197e-07)
(0 -0 -5.56567e-06)
(0 -0 -1.0491e-05)
(0 -0 -1.50391e-05)
(0 -0 -1.86538e-05)
(0 -0 -2.09039e-05)
(0 -0 -2.15782e-05)
(0 -0 -2.07245e-05)
(0 -0 -1.86213e-05)
(0 -0 -1.56994e-05)
(0 -0 -1.24381e-05)
(0 -0 -9.25016e-06)
(0 -0 -6.41874e-06)
(0 -0 8.5697e-06)
(0 -0 6.34259e-06)
(0 -0 3.18324e-06)
(0 -0 -8.3232e-07)
(0 -0 -5.43528e-06)
(0 -0 -1.01845e-05)
(0 -0 -1.45459e-05)
(0 -0 -1.79859e-05)
(0 -0 -2.00964e-05)
(0 -0 -2.0685e-05)
(0 -0 -1.98087e-05)
(0 -0 -1.77442e-05)
(0 -0 -1.49097e-05)
(0 -0 -1.17635e-05)
(0 -0 -8.69529e-06)
(0 -0 -5.94994e-06)
(0 -0 8.26805e-06)
(0 -0 6.07687e-06)
(0 -0 2.97977e-06)
(0 -0 -9.37551e-07)
(0 -0 -5.39348e-06)
(0 -0 -9.96716e-06)
(0 -0 -1.41423e-05)
(0 -0 -1.7408e-05)
(0 -0 -1.93795e-05)
(0 -0 -1.98826e-05)
(0 -0 -1.89835e-05)
(0 -0 -1.69572e-05)
(0 -0 -1.42083e-05)
(0 -0 -1.11708e-05)
(0 -0 -8.20226e-06)
(0 -0 -5.54767e-06)
(0 -0 7.9264e-06)
(0 -0 5.76729e-06)
(0 -0 2.73049e-06)
(0 -0 -1.08078e-06)
(0 -0 -5.39139e-06)
(0 -0 -9.79108e-06)
(0 -0 -1.37812e-05)
(0 -0 -1.68736e-05)
(0 -0 -1.87067e-05)
(0 -0 -1.91245e-05)
(0 -0 -1.82028e-05)
(0 -0 -1.62147e-05)
(0 -0 -1.35523e-05)
(0 -0 -1.06257e-05)
(0 -0 -7.76685e-06)
(0 -0 -5.2109e-06)
(0 -0 7.58268e-06)
(0 -0 5.4544e-06)
(0 -0 2.48337e-06)
(0 -0 -1.22215e-06)
(0 -0 -5.38876e-06)
(0 -0 -9.61584e-06)
(0 -0 -1.34222e-05)
(0 -0 -1.63423e-05)
(0 -0 -1.80375e-05)
(0 -0 -1.83706e-05)
(0 -0 -1.74266e-05)
(0 -0 -1.54772e-05)
(0 -0 -1.29024e-05)
(0 -0 -1.00926e-05)
(0 -0 -7.35631e-06)
(0 -0 -4.91954e-06)
(0 -0 7.24506e-06)
(0 -0 5.14881e-06)
(0 -0 2.24386e-06)
(0 -0 -1.35657e-06)
(0 -0 -5.38037e-06)
(0 -0 -9.43626e-06)
(0 -0 -1.30602e-05)
(0 -0 -1.58092e-05)
(0 -0 -1.73676e-05)
(0 -0 -1.76165e-05)
(0 -0 -1.66506e-05)
(0 -0 -1.47402e-05)
(0 -0 -1.22543e-05)
(0 -0 -9.56486e-06)
(0 -0 -6.96038e-06)
(0 -0 -4.65351e-06)
(0 -0 6.92577e-06)
(0 -0 4.8607e-06)
(0 -0 2.02075e-06)
(0 -0 -1.47607e-06)
(0 -0 -5.35885e-06)
(0 -0 -9.24554e-06)
(0 -0 -1.26891e-05)
(0 -0 -1.52686e-05)
(0 -0 -1.66915e-05)
(0 -0 -1.68571e-05)
(0 -0 -1.58697e-05)
(0 -0 -1.39986e-05)
(0 -0 -1.16022e-05)
(0 -0 -9.03515e-06)
(0 -0 -6.56689e-06)
(0 -0 -4.39433e-06)
(0 -0 6.67402e-06)
(0 -0 4.6383e-06)
(0 -0 1.86132e-06)
(0 -0 -1.53419e-06)
(0 -0 -5.27854e-06)
(0 -0 -8.9987e-06)
(0 -0 -1.22644e-05)
(0 -0 -1.46768e-05)
(0 -0 -1.59658e-05)
(0 -0 -1.60492e-05)
(0 -0 -1.50409e-05)
(0 -0 -1.32094e-05)
(0 -0 -1.09026e-05)
(0 -0 -8.45885e-06)
(0 -0 -6.12888e-06)
(0 -0 -4.09303e-06)
(0 -0 6.59787e-06)
(0 -0 4.58968e-06)
(0 -0 1.87355e-06)
(0 -0 -1.42311e-06)
(0 -0 -5.03178e-06)
(0 -0 -8.58834e-06)
(0 -0 -1.16791e-05)
(0 -0 -1.39267e-05)
(0 -0 -1.50838e-05)
(0 -0 -1.50862e-05)
(0 -0 -1.40575e-05)
(0 -0 -1.22656e-05)
(0 -0 -1.00486e-05)
(0 -0 -7.72841e-06)
(0 -0 -5.53774e-06)
(0 -0 -3.64012e-06)
(0 -0 6.87459e-06)
(0 -0 4.89385e-06)
(0 -0 2.23808e-06)
(0 -0 -9.60656e-07)
(0 -0 -4.43507e-06)
(0 -0 -7.82977e-06)
(0 -0 -1.07474e-05)
(0 -0 -1.28321e-05)
(0 -0 -1.38588e-05)
(0 -0 -1.37811e-05)
(0 -0 -1.27325e-05)
(0 -0 -1.09804e-05)
(0 -0 -8.85313e-06)
(0 -0 -6.6568e-06)
(0 -0 -4.60614e-06)
(0 -0 -2.84793e-06)
(0 -0 7.73942e-06)
(0 -0 5.7907e-06)
(0 -0 3.19947e-06)
(0 -0 1.02203e-07)
(0 -0 -3.23513e-06)
(0 -0 -6.466e-06)
(0 -0 -9.20929e-06)
(0 -0 -1.11305e-05)
(0 -0 -1.20266e-05)
(0 -0 -1.18691e-05)
(0 -0 -1.08009e-05)
(0 -0 -9.08919e-06)
(0 -0 -7.05241e-06)
(0 -0 -4.9808e-06)
(0 -0 -3.07132e-06)
(0 -0 -1.45394e-06)
(0 -0 9.43814e-06)
(0 -0 7.53495e-06)
(0 -0 5.0215e-06)
(0 -0 2.03823e-06)
(0 -0 -1.15071e-06)
(0 -0 -4.20806e-06)
(0 -0 -6.76936e-06)
(0 -0 -8.52168e-06)
(0 -0 -9.28392e-06)
(0 -0 -9.04535e-06)
(0 -0 -7.95811e-06)
(0 -0 -6.28836e-06)
(0 -0 -4.34445e-06)
(0 -0 -2.40034e-06)
(0 -0 -6.34776e-07)
(0 -0 8.39284e-07)
(0 -0 1.21347e-05)
(0 -0 1.03048e-05)
(0 -0 7.89706e-06)
(0 -0 5.055e-06)
(0 -0 2.03984e-06)
(0 -0 -8.21613e-07)
(0 -0 -3.18262e-06)
(0 -0 -4.75261e-06)
(0 -0 -5.37287e-06)
(0 -0 -5.05008e-06)
(0 -0 -3.94484e-06)
(0 -0 -2.32126e-06)
(0 -0 -4.76162e-07)
(0 -0 1.33399e-06)
(0 -0 2.94959e-06)
(0 -0 4.2754e-06)
(0 -0 1.57833e-05)
(0 -0 1.40743e-05)
(0 -0 1.18206e-05)
(0 -0 9.16763e-06)
(0 -0 6.37158e-06)
(0 -0 3.74648e-06)
(0 -0 1.61908e-06)
(0 -0 2.55814e-07)
(0 -0 -2.07849e-07)
(0 -0 2.04255e-07)
(0 -0 1.32451e-06)
(0 -0 2.89305e-06)
(0 -0 4.62716e-06)
(0 -0 6.29039e-06)
(0 -0 7.74425e-06)
(0 -0 8.91255e-06)
(0 -0 2.0002e-05)
(0 -0 1.8485e-05)
(0 -0 1.64588e-05)
(0 -0 1.40681e-05)
(0 -0 1.15611e-05)
(0 -0 9.23512e-06)
(0 -0 7.39299e-06)
(0 -0 6.27392e-06)
(0 -0 5.98849e-06)
(0 -0 6.49608e-06)
(0 -0 7.62423e-06)
(0 -0 9.1211e-06)
(0 -0 1.07223e-05)
(0 -0 1.22157e-05)
(0 -0 1.34873e-05)
(0 -0 1.4482e-05)
(0 -0 2.40092e-05)
(0 -0 2.27797e-05)
(0 -0 2.10802e-05)
(0 -0 1.90517e-05)
(0 -0 1.69297e-05)
(0 -0 1.49892e-05)
(0 -0 1.35032e-05)
(0 -0 1.26789e-05)
(0 -0 1.25993e-05)
(0 -0 1.32076e-05)
(0 -0 1.43296e-05)
(0 -0 1.57269e-05)
(0 -0 1.71601e-05)
(0 -0 1.84472e-05)
(0 -0 1.95037e-05)
(0 -0 2.02992e-05)
(0 -0 2.66889e-05)
(0 -0 2.58619e-05)
(0 -0 2.461e-05)
(0 -0 2.30666e-05)
(0 -0 2.14483e-05)
(0 -0 2e-05)
(0 -0 1.89571e-05)
(0 -0 1.84882e-05)
(0 -0 1.86455e-05)
(0 -0 1.93559e-05)
(0 -0 2.0448e-05)
(0 -0 2.17038e-05)
(0 -0 2.29174e-05)
(0 -0 2.39455e-05)
(0 -0 2.47397e-05)
(0 -0 2.52981e-05)
(0 -0 2.68165e-05)
(0 -0 2.65167e-05)
(0 -0 2.58454e-05)
(0 -0 2.49232e-05)
(0 -0 2.39405e-05)
(0 -0 2.31031e-05)
(0 -0 2.25991e-05)
(0 -0 2.25508e-05)
(0 -0 2.29749e-05)
(0 -0 2.37823e-05)
(0 -0 2.48093e-05)
(0 -0 2.58671e-05)
(0 -0 2.67932e-05)
(0 -0 2.74931e-05)
(0 -0 2.79626e-05)
(0 -0 2.82332e-05)
(0 -0 2.34118e-05)
(0 -0 2.37592e-05)
(0 -0 2.37994e-05)
(0 -0 2.3633e-05)
(0 -0 2.34166e-05)
(0 -0 2.33079e-05)
(0 -0 2.34372e-05)
(0 -0 2.38713e-05)
(0 -0 2.45865e-05)
(0 -0 2.5478e-05)
(0 -0 2.63946e-05)
(0 -0 2.71858e-05)
(0 -0 2.77439e-05)
(0 -0 2.80336e-05)
(0 -0 2.81035e-05)
(0 -0 2.80248e-05)
(0 -0 1.61104e-05)
(0 -0 1.72044e-05)
(0 -0 1.80642e-05)
(0 -0 1.87726e-05)
(0 -0 1.94357e-05)
(0 -0 2.0157e-05)
(0 -0 2.1e-05)
(0 -0 2.19672e-05)
(0 -0 2.29892e-05)
(0 -0 2.39449e-05)
(0 -0 2.47006e-05)
(0 -0 2.51523e-05)
(0 -0 2.52575e-05)
(0 -0 2.50504e-05)
(0 -0 2.46409e-05)
(0 -0 2.4146e-05)
(0 -0 0.000672489)
(0 -0 0.00193595)
(0 -0 0.00272987)
(0 -0 0.00213525)
(0 -0 0.000743835)
(0 -0 -0.000438945)
(0 -0 -0.000964063)
(0 -0 -0.000950925)
(0 -0 -0.000699459)
(0 -0 0.000688823)
(0 -0 0.00199264)
(0 -0 0.00281132)
(0 -0 0.0021969)
(0 -0 0.00076091)
(0 -0 -0.00045875)
(0 -0 -0.000999132)
(0 -0 -0.000984054)
(0 -0 -0.000723382)
(0 -0 -0.000443969)
(0 -0 -0.000238397)
(0 -0 -0.000114354)
(0 -0 -4.88777e-05)
(0 -0 -1.7624e-05)
(0 -0 -3.85649e-06)
(0 -0 1.81222e-06)
(0 -0 4.00617e-06)
(0 -0 4.79796e-06)
(0 -0 5.05178e-06)
(0 -0 5.1082e-06)
(0 -0 5.09541e-06)
(0 -0 5.06003e-06)
(0 -0 5.01866e-06)
(0 -0 4.97752e-06)
(0 -0 4.93985e-06)
(0 -0 4.90797e-06)
(0 -0 4.88419e-06)
(0 -0 4.87077e-06)
(0 -0 4.86956e-06)
(0 -0 4.88214e-06)
(0 -0 4.9096e-06)
(0 -0 4.95287e-06)
(0 -0 5.01296e-06)
(0 -0 5.09099e-06)
(0 -0 5.18849e-06)
(0 -0 5.30719e-06)
(0 -0 5.44887e-06)
(0 -0 5.61528e-06)
(0 -0 5.80806e-06)
(0 -0 6.02873e-06)
(0 -0 6.27871e-06)
(0 -0 6.55934e-06)
(0 -0 6.87204e-06)
(0 -0 7.21822e-06)
(0 -0 7.59914e-06)
(0 -0 8.01565e-06)
(0 -0 8.46744e-06)
(0 -0 8.95137e-06)
(0 -0 9.45837e-06)
(0 -0 9.96799e-06)
(0 -0 1.04407e-05)
(0 -0 1.08095e-05)
(0 -0 1.09731e-05)
(0 -0 1.07979e-05)
(0 -0 1.01213e-05)
(0 -0 0.000705156)
(0 -0 0.00205053)
(0 -0 0.0028947)
(0 -0 0.00225992)
(0 -0 0.000778128)
(0 -0 -0.000479395)
(0 -0 -0.00103539)
(0 -0 -0.00101824)
(0 -0 -0.000748039)
(0 -0 -0.000458947)
(0 -0 -0.000246389)
(0 -0 -0.00011817)
(0 -0 -5.05069e-05)
(0 -0 -1.82146e-05)
(0 -0 -3.99301e-06)
(0 -0 1.8598e-06)
(0 -0 4.12218e-06)
(0 -0 4.93616e-06)
(0 -0 5.19488e-06)
(0 -0 5.25032e-06)
(0 -0 5.23467e-06)
(0 -0 5.1958e-06)
(0 -0 5.15066e-06)
(0 -0 5.1055e-06)
(0 -0 5.06362e-06)
(0 -0 5.02744e-06)
(0 -0 4.99939e-06)
(0 -0 4.98186e-06)
(0 -0 4.97663e-06)
(0 -0 4.98522e-06)
(0 -0 5.00852e-06)
(0 -0 5.04738e-06)
(0 -0 5.10272e-06)
(0 -0 5.17566e-06)
(0 -0 5.26775e-06)
(0 -0 5.38065e-06)
(0 -0 5.51603e-06)
(0 -0 5.67543e-06)
(0 -0 5.86028e-06)
(0 -0 6.07191e-06)
(0 -0 6.31159e-06)
(0 -0 6.58054e-06)
(0 -0 6.88013e-06)
(0 -0 7.21177e-06)
(0 -0 7.5767e-06)
(0 -0 7.97572e-06)
(0 -0 8.40841e-06)
(0 -0 8.87154e-06)
(0 -0 9.35592e-06)
(0 -0 9.84114e-06)
(0 -0 1.02881e-05)
(0 -0 1.06311e-05)
(0 -0 1.07714e-05)
(0 -0 1.05777e-05)
(0 -0 9.90003e-06)
(0 -0 0.000721507)
(0 -0 0.00210973)
(0 -0 0.00298022)
(0 -0 0.00232451)
(0 -0 0.000795609)
(0 -0 -0.000500837)
(0 -0 -0.00107284)
(0 -0 -0.0010535)
(0 -0 -0.000773465)
(0 -0 -0.000474383)
(0 -0 -0.000254624)
(0 -0 -0.000122107)
(0 -0 -5.21901e-05)
(0 -0 -1.88297e-05)
(0 -0 -4.14237e-06)
(0 -0 1.89815e-06)
(0 -0 4.2294e-06)
(0 -0 5.06482e-06)
(0 -0 5.3274e-06)
(0 -0 5.38061e-06)
(0 -0 5.36084e-06)
(0 -0 5.31724e-06)
(0 -0 5.26708e-06)
(0 -0 5.21674e-06)
(0 -0 5.16947e-06)
(0 -0 5.12791e-06)
(0 -0 5.09452e-06)
(0 -0 5.07166e-06)
(0 -0 5.06113e-06)
(0 -0 5.06426e-06)
(0 -0 5.08189e-06)
(0 -0 5.11471e-06)
(0 -0 5.1636e-06)
(0 -0 5.22975e-06)
(0 -0 5.31465e-06)
(0 -0 5.41992e-06)
(0 -0 5.54706e-06)
(0 -0 5.69744e-06)
(0 -0 5.87229e-06)
(0 -0 6.07272e-06)
(0 -0 6.29983e-06)
(0 -0 6.5548e-06)
(0 -0 6.83893e-06)
(0 -0 7.1536e-06)
(0 -0 7.50002e-06)
(0 -0 7.87893e-06)
(0 -0 8.28981e-06)
(0 -0 8.72929e-06)
(0 -0 9.18809e-06)
(0 -0 9.64582e-06)
(0 -0 1.00639e-05)
(0 -0 1.03776e-05)
(0 -0 1.04909e-05)
(0 -0 1.02773e-05)
(0 -0 9.5938e-06)
(0 -0 0.000737886)
(0 -0 0.00217037)
(0 -0 0.0030681)
(0 -0 0.00239094)
(0 -0 0.000813542)
(0 -0 -0.000522994)
(0 -0 -0.00111148)
(0 -0 -0.00108987)
(0 -0 -0.000799681)
(0 -0 -0.000490301)
(0 -0 -0.000263116)
(0 -0 -0.000126167)
(0 -0 -5.39292e-05)
(0 -0 -1.94695e-05)
(0 -0 -4.30393e-06)
(0 -0 1.92846e-06)
(0 -0 4.32934e-06)
(0 -0 5.18573e-06)
(0 -0 5.45126e-06)
(0 -0 5.50116e-06)
(0 -0 5.4761e-06)
(0 -0 5.42661e-06)
(0 -0 5.37034e-06)
(0 -0 5.31384e-06)
(0 -0 5.26036e-06)
(0 -0 5.21262e-06)
(0 -0 5.17312e-06)
(0 -0 5.14412e-06)
(0 -0 5.12738e-06)
(0 -0 5.12409e-06)
(0 -0 5.135e-06)
(0 -0 5.16074e-06)
(0 -0 5.20215e-06)
(0 -0 5.26046e-06)
(0 -0 5.33714e-06)
(0 -0 5.43372e-06)
(0 -0 5.55157e-06)
(0 -0 5.69189e-06)
(0 -0 5.85568e-06)
(0 -0 6.04389e-06)
(0 -0 6.2575e-06)
(0 -0 6.4976e-06)
(0 -0 6.76547e-06)
(0 -0 7.06242e-06)
(0 -0 7.38964e-06)
(0 -0 7.74778e-06)
(0 -0 8.13622e-06)
(0 -0 8.55144e-06)
(0 -0 8.98405e-06)
(0 -0 9.41372e-06)
(0 -0 9.80226e-06)
(0 -0 1.00862e-05)
(0 -0 1.0172e-05)
(0 -0 9.93779e-06)
(0 -0 9.24738e-06)
(0 -0 0.000754329)
(0 -0 0.00223262)
(0 -0 0.0031587)
(0 -0 0.00245957)
(0 -0 0.000832191)
(0 -0 -0.000545728)
(0 -0 -0.00115127)
(0 -0 -0.00112735)
(0 -0 -0.000826701)
(0 -0 -0.000506706)
(0 -0 -0.000271869)
(0 -0 -0.000130352)
(0 -0 -5.57216e-05)
(0 -0 -2.01296e-05)
(0 -0 -4.4719e-06)
(0 -0 1.95734e-06)
(0 -0 4.42922e-06)
(0 -0 5.30655e-06)
(0 -0 5.57442e-06)
(0 -0 5.62021e-06)
(0 -0 5.58896e-06)
(0 -0 5.53267e-06)
(0 -0 5.4695e-06)
(0 -0 5.40619e-06)
(0 -0 5.34604e-06)
(0 -0 5.29176e-06)
(0 -0 5.2458e-06)
(0 -0 5.21032e-06)
(0 -0 5.18699e-06)
(0 -0 5.17685e-06)
(0 -0 5.1806e-06)
(0 -0 5.19883e-06)
(0 -0 5.23241e-06)
(0 -0 5.28255e-06)
(0 -0 5.35071e-06)
(0 -0 5.43832e-06)
(0 -0 5.54663e-06)
(0 -0 5.67665e-06)
(0 -0 5.82923e-06)
(0 -0 6.00516e-06)
(0 -0 6.20532e-06)
(0 -0 6.43076e-06)
(0 -0 6.68269e-06)
(0 -0 6.96237e-06)
(0 -0 7.27092e-06)
(0 -0 7.6089e-06)
(0 -0 7.97555e-06)
(0 -0 8.36721e-06)
(0 -0 8.77437e-06)
(0 -0 9.17678e-06)
(0 -0 9.53672e-06)
(0 -0 9.79187e-06)
(0 -0 9.85105e-06)
(0 -0 9.59676e-06)
(0 -0 8.89959e-06)
(0 -0 0.000770845)
(0 -0 0.00229669)
(0 -0 0.00325246)
(0 -0 0.00253093)
(0 -0 0.000851954)
(0 -0 -0.000568813)
(0 -0 -0.00119209)
(0 -0 -0.0011659)
(0 -0 -0.000854522)
(0 -0 -0.000523602)
(0 -0 -0.000280878)
(0 -0 -0.000134652)
(0 -0 -5.75551e-05)
(0 -0 -2.07955e-05)
(0 -0 -4.63075e-06)
(0 -0 2.00099e-06)
(0 -0 4.54561e-06)
(0 -0 5.44407e-06)
(0 -0 5.71382e-06)
(0 -0 5.75474e-06)
(0 -0 5.71636e-06)
(0 -0 5.65235e-06)
(0 -0 5.58143e-06)
(0 -0 5.51061e-06)
(0 -0 5.44325e-06)
(0 -0 5.38198e-06)
(0 -0 5.32915e-06)
(0 -0 5.28676e-06)
(0 -0 5.25633e-06)
(0 -0 5.23883e-06)
(0 -0 5.23487e-06)
(0 -0 5.24507e-06)
(0 -0 5.2703e-06)
(0 -0 5.31179e-06)
(0 -0 5.37093e-06)
(0 -0 5.44909e-06)
(0 -0 5.54735e-06)
(0 -0 5.66661e-06)
(0 -0 5.80756e-06)
(0 -0 5.97091e-06)
(0 -0 6.15745e-06)
(0 -0 6.36815e-06)
(0 -0 6.60417e-06)
(0 -0 6.8667e-06)
(0 -0 7.15677e-06)
(0 -0 7.47482e-06)
(0 -0 7.81993e-06)
(0 -0 8.18828e-06)
(0 -0 8.57028e-06)
(0 -0 8.94573e-06)
(0 -0 9.27741e-06)
(0 -0 9.50418e-06)
(0 -0 9.53716e-06)
(0 -0 9.26292e-06)
(0 -0 8.5585e-06)
(0 -0 0.000787445)
(0 -0 0.00236289)
(0 -0 0.00335)
(0 -0 0.00260568)
(0 -0 0.000873365)
(0 -0 -0.000591941)
(0 -0 -0.00123383)
(0 -0 -0.00120548)
(0 -0 -0.000883135)
(0 -0 -0.000540981)
(0 -0 -0.00029013)
(0 -0 -0.000139047)
(0 -0 -5.94044e-05)
(0 -0 -2.14395e-05)
(0 -0 -4.75133e-06)
(0 -0 2.08934e-06)
(0 -0 4.70888e-06)
(0 -0 5.62887e-06)
(0 -0 5.90013e-06)
(0 -0 5.93541e-06)
(0 -0 5.88894e-06)
(0 -0 5.81618e-06)
(0 -0 5.73655e-06)
(0 -0 5.65734e-06)
(0 -0 5.58202e-06)
(0 -0 5.51306e-06)
(0 -0 5.45266e-06)
(0 -0 5.40262e-06)
(0 -0 5.36431e-06)
(0 -0 5.3386e-06)
(0 -0 5.32607e-06)
(0 -0 5.32736e-06)
(0 -0 5.34337e-06)
(0 -0 5.37529e-06)
(0 -0 5.42449e-06)
(0 -0 5.4922e-06)
(0 -0 5.57944e-06)
(0 -0 5.68695e-06)
(0 -0 5.81536e-06)
(0 -0 5.96528e-06)
(0 -0 6.13742e-06)
(0 -0 6.33271e-06)
(0 -0 6.55222e-06)
(0 -0 6.79707e-06)
(0 -0 7.06815e-06)
(0 -0 7.36574e-06)
(0 -0 7.68877e-06)
(0 -0 8.03323e-06)
(0 -0 8.38947e-06)
(0 -0 8.73741e-06)
(0 -0 9.04027e-06)
(0 -0 9.23809e-06)
(0 -0 9.24429e-06)
(0 -0 8.94937e-06)
(0 -0 8.23649e-06)
(0 -0 0.000804156)
(0 -0 0.00243161)
(0 -0 0.00345211)
(0 -0 0.00268471)
(0 -0 0.00089706)
(0 -0 -0.000614779)
(0 -0 -0.00127637)
(0 -0 -0.00124609)
(0 -0 -0.000912548)
(0 -0 -0.00055884)
(0 -0 -0.000299607)
(0 -0 -0.000143503)
(0 -0 -6.12266e-05)
(0 -0 -2.20132e-05)
(0 -0 -4.78215e-06)
(0 -0 2.27572e-06)
(0 -0 4.97358e-06)
(0 -0 5.91643e-06)
(0 -0 6.18954e-06)
(0 -0 6.21903e-06)
(0 -0 6.16406e-06)
(0 -0 6.08197e-06)
(0 -0 5.99305e-06)
(0 -0 5.90489e-06)
(0 -0 5.82106e-06)
(0 -0 5.74386e-06)
(0 -0 5.6753e-06)
(0 -0 5.61696e-06)
(0 -0 5.57003e-06)
(0 -0 5.5353e-06)
(0 -0 5.51335e-06)
(0 -0 5.50482e-06)
(0 -0 5.51063e-06)
(0 -0 5.53198e-06)
(0 -0 5.57015e-06)
(0 -0 5.62629e-06)
(0 -0 5.70132e-06)
(0 -0 5.79592e-06)
(0 -0 5.91062e-06)
(0 -0 6.046e-06)
(0 -0 6.2027e-06)
(0 -0 6.38159e-06)
(0 -0 6.58362e-06)
(0 -0 6.80983e-06)
(0 -0 7.06093e-06)
(0 -0 7.33703e-06)
(0 -0 7.63688e-06)
(0 -0 7.95635e-06)
(0 -0 8.28565e-06)
(0 -0 8.60487e-06)
(0 -0 8.8777e-06)
(0 -0 9.04536e-06)
(0 -0 9.02352e-06)
(0 -0 8.70651e-06)
(0 -0 7.98341e-06)
(0 -0 0.000821038)
(0 -0 0.00250342)
(0 -0 0.00355979)
(0 -0 0.00276901)
(0 -0 0.000923668)
(0 -0 -0.000637097)
(0 -0 -0.00131971)
(0 -0 -0.00128781)
(0 -0 -0.000942841)
(0 -0 -0.000577212)
(0 -0 -0.000309296)
(0 -0 -0.00014798)
(0 -0 -6.29636e-05)
(0 -0 -2.24484e-05)
(0 -0 -4.64901e-06)
(0 -0 2.6382e-06)
(0 -0 5.42054e-06)
(0 -0 6.38978e-06)
(0 -0 6.66702e-06)
(0 -0 6.69232e-06)
(0 -0 6.63006e-06)
(0 -0 6.53961e-06)
(0 -0 6.44219e-06)
(0 -0 6.34574e-06)
(0 -0 6.25395e-06)
(0 -0 6.16899e-06)
(0 -0 6.09262e-06)
(0 -0 6.02621e-06)
(0 -0 5.97078e-06)
(0 -0 5.92705e-06)
(0 -0 5.89558e-06)
(0 -0 5.87707e-06)
(0 -0 5.87243e-06)
(0 -0 5.88283e-06)
(0 -0 5.9095e-06)
(0 -0 5.95352e-06)
(0 -0 6.01575e-06)
(0 -0 6.09682e-06)
(0 -0 6.19721e-06)
(0 -0 6.31744e-06)
(0 -0 6.4581e-06)
(0 -0 6.61997e-06)
(0 -0 6.80394e-06)
(0 -0 7.01084e-06)
(0 -0 7.24125e-06)
(0 -0 7.4951e-06)
(0 -0 7.77091e-06)
(0 -0 8.06443e-06)
(0 -0 8.36583e-06)
(0 -0 8.6553e-06)
(0 -0 8.89706e-06)
(0 -0 9.03349e-06)
(0 -0 8.98249e-06)
(0 -0 8.64212e-06)
(0 -0 7.90721e-06)
(0 -0 0.000838208)
(0 -0 0.00257905)
(0 -0 0.0036742)
(0 -0 0.0028595)
(0 -0 0.000953554)
(0 -0 -0.000659028)
(0 -0 -0.00136423)
(0 -0 -0.001331)
(0 -0 -0.000974257)
(0 -0 -0.000596224)
(0 -0 -0.000319233)
(0 -0 -0.000152457)
(0 -0 -6.45613e-05)
(0 -0 -2.26727e-05)
(0 -0 -4.269e-06)
(0 -0 3.2665e-06)
(0 -0 6.14451e-06)
(0 -0 7.14781e-06)
(0 -0 7.43517e-06)
(0 -0 7.46132e-06)
(0 -0 7.39624e-06)
(0 -0 7.30144e-06)
(0 -0 7.19918e-06)
(0 -0 7.09783e-06)
(0 -0 7.00118e-06)
(0 -0 6.91131e-06)
(0 -0 6.82976e-06)
(0 -0 6.75772e-06)
(0 -0 6.69605e-06)
(0 -0 6.64542e-06)
(0 -0 6.60642e-06)
(0 -0 6.57974e-06)
(0 -0 6.56633e-06)
(0 -0 6.56735e-06)
(0 -0 6.58396e-06)
(0 -0 6.61721e-06)
(0 -0 6.66792e-06)
(0 -0 6.73668e-06)
(0 -0 6.82395e-06)
(0 -0 6.9302e-06)
(0 -0 7.05597e-06)
(0 -0 7.20194e-06)
(0 -0 7.36889e-06)
(0 -0 7.55749e-06)
(0 -0 7.76813e-06)
(0 -0 8.00054e-06)
(0 -0 8.25307e-06)
(0 -0 8.52133e-06)
(0 -0 8.79547e-06)
(0 -0 9.05581e-06)
(0 -0 9.26711e-06)
(0 -0 9.3729e-06)
(0 -0 9.29331e-06)
(0 -0 8.93002e-06)
(0 -0 8.18345e-06)
(0 -0 0.000855873)
(0 -0 0.00265945)
(0 -0 0.00379649)
(0 -0 0.00295676)
(0 -0 0.000986392)
(0 -0 -0.000681486)
(0 -0 -0.00141095)
(0 -0 -0.00137651)
(0 -0 -0.00100736)
(0 -0 -0.000616191)
(0 -0 -0.000329568)
(0 -0 -0.000156981)
(0 -0 -6.60119e-05)
(0 -0 -2.26486e-05)
(0 -0 -3.58766e-06)
(0 -0 4.22577e-06)
(0 -0 7.21847e-06)
(0 -0 8.27001e-06)
(0 -0 8.57933e-06)
(0 -0 8.61687e-06)
(0 -0 8.55866e-06)
(0 -0 8.46855e-06)
(0 -0 8.3699e-06)
(0 -0 8.27158e-06)
(0 -0 8.17752e-06)
(0 -0 8.08979e-06)
(0 -0 8.00978e-06)
(0 -0 7.93852e-06)
(0 -0 7.87679e-06)
(0 -0 7.82523e-06)
(0 -0 7.78446e-06)
(0 -0 7.75523e-06)
(0 -0 7.7385e-06)
(0 -0 7.73541e-06)
(0 -0 7.74713e-06)
(0 -0 7.77467e-06)
(0 -0 7.81885e-06)
(0 -0 7.88026e-06)
(0 -0 7.95932e-06)
(0 -0 8.05644e-06)
(0 -0 8.17214e-06)
(0 -0 8.307e-06)
(0 -0 8.46166e-06)
(0 -0 8.63664e-06)
(0 -0 8.83213e-06)
(0 -0 9.04767e-06)
(0 -0 9.28146e-06)
(0 -0 9.52899e-06)
(0 -0 9.78041e-06)
(0 -0 1.00162e-05)
(0 -0 1.02017e-05)
(0 -0 1.02816e-05)
(0 -0 1.01781e-05)
(0 -0 9.79664e-06)
(0 -0 9.04285e-06)
(0 -0 0.00087438)
(0 -0 0.00274577)
(0 -0 0.00392762)
(0 -0 0.00306048)
(0 -0 0.00102056)
(0 -0 -0.000706731)
(0 -0 -0.00146203)
(0 -0 -0.00142597)
(0 -0 -0.00104323)
(0 -0 -0.00063775)
(0 -0 -0.000340652)
(0 -0 -0.000161744)
(0 -0 -6.74223e-05)
(0 -0 -2.24387e-05)
(0 -0 -2.64359e-06)
(0 -0 5.49209e-06)
(0 -0 8.62907e-06)
(0 -0 9.75177e-06)
(0 -0 1.01028e-05)
(0 -0 1.01697e-05)
(0 -0 1.01352e-05)
(0 -0 1.00657e-05)
(0 -0 9.98578e-06)
(0 -0 9.90489e-06)
(0 -0 9.82715e-06)
(0 -0 9.75474e-06)
(0 -0 9.68898e-06)
(0 -0 9.63084e-06)
(0 -0 9.5811e-06)
(0 -0 9.54041e-06)
(0 -0 9.50947e-06)
(0 -0 9.4891e-06)
(0 -0 9.48031e-06)
(0 -0 9.48426e-06)
(0 -0 9.50214e-06)
(0 -0 9.53498e-06)
(0 -0 9.5836e-06)
(0 -0 9.64858e-06)
(0 -0 9.73037e-06)
(0 -0 9.82932e-06)
(0 -0 9.9459e-06)
(0 -0 1.00806e-05)
(0 -0 1.0234e-05)
(0 -0 1.04064e-05)
(0 -0 1.05978e-05)
(0 -0 1.08076e-05)
(0 -0 1.10339e-05)
(0 -0 1.12721e-05)
(0 -0 1.15124e-05)
(0 -0 1.17354e-05)
(0 -0 1.19071e-05)
(0 -0 1.19732e-05)
(0 -0 1.18584e-05)
(0 -0 1.14712e-05)
(0 -0 1.07227e-05)
(0 -0 0.00089425)
(0 -0 0.0028393)
(0 -0 0.00406798)
(0 -0 0.00316889)
(0 -0 0.00105244)
(0 -0 -0.000738974)
(0 -0 -0.00152117)
(0 -0 -0.00148212)
(0 -0 -0.00108364)
(0 -0 -0.000661995)
(0 -0 -0.000353152)
(0 -0 -0.000167175)
(0 -0 -6.90997e-05)
(0 -0 -2.22903e-05)
(0 -0 -1.65353e-06)
(0 -0 6.86636e-06)
(0 -0 1.01893e-05)
(0 -0 1.14158e-05)
(0 -0 1.18371e-05)
(0 -0 1.19597e-05)
(0 -0 1.19738e-05)
(0 -0 1.19489e-05)
(0 -0 1.19106e-05)
(0 -0 1.18692e-05)
(0 -0 1.1829e-05)
(0 -0 1.17926e-05)
(0 -0 1.17612e-05)
(0 -0 1.17359e-05)
(0 -0 1.17176e-05)
(0 -0 1.1707e-05)
(0 -0 1.17049e-05)
(0 -0 1.17124e-05)
(0 -0 1.17304e-05)
(0 -0 1.17603e-05)
(0 -0 1.18033e-05)
(0 -0 1.18603e-05)
(0 -0 1.19325e-05)
(0 -0 1.20202e-05)
(0 -0 1.21239e-05)
(0 -0 1.22442e-05)
(0 -0 1.23812e-05)
(0 -0 1.25356e-05)
(0 -0 1.27077e-05)
(0 -0 1.28977e-05)
(0 -0 1.31056e-05)
(0 -0 1.33305e-05)
(0 -0 1.35706e-05)
(0 -0 1.3821e-05)
(0 -0 1.40721e-05)
(0 -0 1.43049e-05)
(0 -0 1.44858e-05)
(0 -0 1.45618e-05)
(0 -0 1.44597e-05)
(0 -0 1.40917e-05)
(0 -0 1.33736e-05)
(0 -0 0.000916206)
(0 -0 0.00294137)
(0 -0 0.00421701)
(0 -0 0.00327817)
(0 -0 0.00107585)
(0 -0 -0.000784841)
(0 -0 -0.00159397)
(0 -0 -0.00154898)
(0 -0 -0.00113123)
(0 -0 -0.000690567)
(0 -0 -0.000368118)
(0 -0 -0.00017401)
(0 -0 -7.16262e-05)
(0 -0 -2.27127e-05)
(0 -0 -1.09244e-06)
(0 -0 7.89126e-06)
(0 -0 1.14527e-05)
(0 -0 1.28241e-05)
(0 -0 1.33514e-05)
(0 -0 1.35631e-05)
(0 -0 1.36578e-05)
(0 -0 1.37083e-05)
(0 -0 1.37417e-05)
(0 -0 1.37689e-05)
(0 -0 1.37948e-05)
(0 -0 1.38221e-05)
(0 -0 1.38525e-05)
(0 -0 1.38872e-05)
(0 -0 1.39273e-05)
(0 -0 1.39738e-05)
(0 -0 1.40275e-05)
(0 -0 1.40898e-05)
(0 -0 1.41619e-05)
(0 -0 1.42451e-05)
(0 -0 1.43407e-05)
(0 -0 1.44499e-05)
(0 -0 1.45737e-05)
(0 -0 1.47128e-05)
(0 -0 1.48676e-05)
(0 -0 1.50384e-05)
(0 -0 1.52259e-05)
(0 -0 1.54303e-05)
(0 -0 1.5652e-05)
(0 -0 1.58913e-05)
(0 -0 1.61479e-05)
(0 -0 1.6421e-05)
(0 -0 1.67085e-05)
(0 -0 1.70059e-05)
(0 -0 1.73034e-05)
(0 -0 1.75824e-05)
(0 -0 1.781e-05)
(0 -0 1.79346e-05)
(0 -0 1.7885e-05)
(0 -0 1.75771e-05)
(0 -0 1.69315e-05)
(0 -0 0.000941156)
(0 -0 0.00305318)
(0 -0 0.0043729)
(0 -0 0.00338217)
(0 -0 0.00108188)
(0 -0 -0.000853397)
(0 -0 -0.00168783)
(0 -0 -0.00163181)
(0 -0 -0.0011894)
(0 -0 -0.000725622)
(0 -0 -0.000386982)
(0 -0 -0.000183304)
(0 -0 -7.58776e-05)
(0 -0 -2.45034e-05)
(0 -0 -1.72545e-06)
(0 -0 7.81471e-06)
(0 -0 1.16728e-05)
(0 -0 1.3233e-05)
(0 -0 1.39047e-05)
(0 -0 1.42415e-05)
(0 -0 1.44516e-05)
(0 -0 1.46115e-05)
(0 -0 1.475e-05)
(0 -0 1.48788e-05)
(0 -0 1.50032e-05)
(0 -0 1.51266e-05)
(0 -0 1.52509e-05)
(0 -0 1.53778e-05)
(0 -0 1.55087e-05)
(0 -0 1.56447e-05)
(0 -0 1.57873e-05)
(0 -0 1.59378e-05)
(0 -0 1.60978e-05)
(0 -0 1.62687e-05)
(0 -0 1.64521e-05)
(0 -0 1.66493e-05)
(0 -0 1.68613e-05)
(0 -0 1.70889e-05)
(0 -0 1.73328e-05)
(0 -0 1.75934e-05)
(0 -0 1.78711e-05)
(0 -0 1.81665e-05)
(0 -0 1.84799e-05)
(0 -0 1.88116e-05)
(0 -0 1.91614e-05)
(0 -0 1.95285e-05)
(0 -0 1.99108e-05)
(0 -0 2.03038e-05)
(0 -0 2.0698e-05)
(0 -0 2.10751e-05)
(0 -0 2.1403e-05)
(0 -0 2.16316e-05)
(0 -0 2.16921e-05)
(0 -0 2.1504e-05)
(0 -0 2.09928e-05)
(0 -0 0.000970117)
(0 -0 0.00317559)
(0 -0 0.00453255)
(0 -0 0.00347266)
(0 -0 0.00105943)
(0 -0 -0.000955464)
(0 -0 -0.00181137)
(0 -0 -0.00173658)
(0 -0 -0.00126201)
(0 -0 -0.000769617)
(0 -0 -0.000411406)
(0 -0 -0.00019632)
(0 -0 -8.29378e-05)
(0 -0 -2.86752e-05)
(0 -0 -4.5427e-06)
(0 -0 5.64937e-06)
(0 -0 9.85792e-06)
(0 -0 1.16448e-05)
(0 -0 1.2493e-05)
(0 -0 1.29851e-05)
(0 -0 1.33405e-05)
(0 -0 1.36398e-05)
(0 -0 1.39134e-05)
(0 -0 1.4174e-05)
(0 -0 1.44275e-05)
(0 -0 1.46778e-05)
(0 -0 1.49273e-05)
(0 -0 1.51783e-05)
(0 -0 1.54325e-05)
(0 -0 1.56915e-05)
(0 -0 1.59572e-05)
(0 -0 1.62312e-05)
(0 -0 1.65154e-05)
(0 -0 1.68115e-05)
(0 -0 1.71212e-05)
(0 -0 1.74461e-05)
(0 -0 1.77874e-05)
(0 -0 1.8146e-05)
(0 -0 1.85228e-05)
(0 -0 1.89184e-05)
(0 -0 1.93333e-05)
(0 -0 1.97683e-05)
(0 -0 2.02238e-05)
(0 -0 2.07003e-05)
(0 -0 2.11977e-05)
(0 -0 2.17151e-05)
(0 -0 2.22508e-05)
(0 -0 2.28003e-05)
(0 -0 2.33544e-05)
(0 -0 2.38952e-05)
(0 -0 2.43917e-05)
(0 -0 2.47954e-05)
(0 -0 2.50403e-05)
(0 -0 2.50498e-05)
(0 -0 2.47543e-05)
(0 -0 0.00100408)
(0 -0 0.0033089)
(0 -0 0.00469175)
(0 -0 0.00354035)
(0 -0 0.000996766)
(0 -0 -0.00110206)
(0 -0 -0.00197311)
(0 -0 -0.00186908)
(0 -0 -0.00135271)
(0 -0 -0.000824871)
(0 -0 -0.000442971)
(0 -0 -0.000214284)
(0 -0 -9.38841e-05)
(0 -0 -3.62568e-05)
(0 -0 -1.05681e-05)
(0 -0 3.59333e-07)
(0 -0 4.95474e-06)
(0 -0 6.98782e-06)
(0 -0 8.02701e-06)
(0 -0 8.6884e-06)
(0 -0 9.20379e-06)
(0 -0 9.65856e-06)
(0 -0 1.00848e-05)
(0 -0 1.04957e-05)
(0 -0 1.08982e-05)
(0 -0 1.12965e-05)
(0 -0 1.16938e-05)
(0 -0 1.20927e-05)
(0 -0 1.24955e-05)
(0 -0 1.29044e-05)
(0 -0 1.33215e-05)
(0 -0 1.37491e-05)
(0 -0 1.41892e-05)
(0 -0 1.4644e-05)
(0 -0 1.51154e-05)
(0 -0 1.56052e-05)
(0 -0 1.6115e-05)
(0 -0 1.66458e-05)
(0 -0 1.71988e-05)
(0 -0 1.77749e-05)
(0 -0 1.83749e-05)
(0 -0 1.89997e-05)
(0 -0 1.96503e-05)
(0 -0 2.03272e-05)
(0 -0 2.10305e-05)
(0 -0 2.17597e-05)
(0 -0 2.25131e-05)
(0 -0 2.32866e-05)
(0 -0 2.40713e-05)
(0 -0 2.48499e-05)
(0 -0 2.55927e-05)
(0 -0 2.62531e-05)
(0 -0 2.67685e-05)
(0 -0 2.70665e-05)
(0 -0 2.7083e-05)
(0 -0 0.00104384)
(0 -0 0.0034527)
(0 -0 0.00484594)
(0 -0 0.00357664)
(0 -0 0.000883832)
(0 -0 -0.0013021)
(0 -0 -0.0021796)
(0 -0 -0.00203357)
(0 -0 -0.0014641)
(0 -0 -0.000892962)
(0 -0 -0.000482737)
(0 -0 -0.000238026)
(0 -0 -0.000109467)
(0 -0 -4.79882e-05)
(0 -0 -2.05601e-05)
(0 -0 -8.8427e-06)
(0 -0 -3.855e-06)
(0 -0 -1.58651e-06)
(0 -0 -3.70499e-07)
(0 -0 4.4716e-07)
(0 -0 1.11222e-06)
(0 -0 1.71488e-06)
(0 -0 2.28879e-06)
(0 -0 2.84794e-06)
(0 -0 3.39959e-06)
(0 -0 3.94851e-06)
(0 -0 4.49843e-06)
(0 -0 5.05252e-06)
(0 -0 5.61359e-06)
(0 -0 6.18425e-06)
(0 -0 6.76717e-06)
(0 -0 7.36493e-06)
(0 -0 7.98011e-06)
(0 -0 8.61515e-06)
(0 -0 9.27234e-06)
(0 -0 9.95374e-06)
(0 -0 1.06611e-05)
(0 -0 1.13961e-05)
(0 -0 1.216e-05)
(0 -0 1.29542e-05)
(0 -0 1.378e-05)
(0 -0 1.46387e-05)
(0 -0 1.55315e-05)
(0 -0 1.64594e-05)
(0 -0 1.74228e-05)
(0 -0 1.84217e-05)
(0 -0 1.94546e-05)
(0 -0 2.05177e-05)
(0 -0 2.16026e-05)
(0 -0 2.26929e-05)
(0 -0 2.37601e-05)
(0 -0 2.47605e-05)
(0 -0 2.56351e-05)
(0 -0 2.63167e-05)
(0 -0 2.67468e-05)
(0 -0 0.00108976)
(0 -0 0.00360569)
(0 -0 0.00499107)
(0 -0 0.00357577)
(0 -0 0.000715016)
(0 -0 -0.00155978)
(0 -0 -0.00243339)
(0 -0 -0.00223135)
(0 -0 -0.00159675)
(0 -0 -0.000974109)
(0 -0 -0.00053079)
(0 -0 -0.000267608)
(0 -0 -0.00012977)
(0 -0 -6.39936e-05)
(0 -0 -3.46859e-05)
(0 -0 -2.2166e-05)
(0 -0 -1.68208e-05)
(0 -0 -1.43656e-05)
(0 -0 -1.30227e-05)
(0 -0 -1.20954e-05)
(0 -0 -1.1323e-05)
(0 -0 -1.06103e-05)
(0 -0 -9.92227e-06)
(0 -0 -9.24459e-06)
(0 -0 -8.5698e-06)
(0 -0 -7.89276e-06)
(0 -0 -7.20936e-06)
(0 -0 -6.51601e-06)
(0 -0 -5.80947e-06)
(0 -0 -5.08668e-06)
(0 -0 -4.34459e-06)
(0 -0 -3.58017e-06)
(0 -0 -2.79045e-06)
(0 -0 -1.97262e-06)
(0 -0 -1.1241e-06)
(0 -0 -2.42494e-07)
(0 -0 6.74372e-07)
(0 -0 1.62848e-06)
(0 -0 2.62171e-06)
(0 -0 3.65587e-06)
(0 -0 4.73282e-06)
(0 -0 5.85441e-06)
(0 -0 7.02236e-06)
(0 -0 8.23816e-06)
(0 -0 9.50281e-06)
(0 -0 1.08165e-05)
(0 -0 1.21784e-05)
(0 -0 1.35848e-05)
(0 -0 1.50282e-05)
(0 -0 1.64932e-05)
(0 -0 1.79532e-05)
(0 -0 1.93672e-05)
(0 -0 2.0681e-05)
(0 -0 2.18331e-05)
(0 -0 2.2772e-05)
(0 -0 0.00114118)
(0 -0 0.00376562)
(0 -0 0.0051246)
(0 -0 0.00353681)
(0 -0 0.00049155)
(0 -0 -0.00187238)
(0 -0 -0.00273138)
(0 -0 -0.00245969)
(0 -0 -0.00174853)
(0 -0 -0.00106673)
(0 -0 -0.000585936)
(0 -0 -0.000302079)
(0 -0 -0.000153989)
(0 -0 -8.35561e-05)
(0 -0 -5.22908e-05)
(0 -0 -3.90042e-05)
(0 -0 -3.33777e-05)
(0 -0 -3.08221e-05)
(0 -0 -2.94372e-05)
(0 -0 -2.84803e-05)
(0 -0 -2.76746e-05)
(0 -0 -2.69202e-05)
(0 -0 -2.6181e-05)
(0 -0 -2.54428e-05)
(0 -0 -2.46982e-05)
(0 -0 -2.39422e-05)
(0 -0 -2.31703e-05)
(0 -0 -2.23787e-05)
(0 -0 -2.1564e-05)
(0 -0 -2.07229e-05)
(0 -0 -1.98518e-05)
(0 -0 -1.89476e-05)
(0 -0 -1.80067e-05)
(0 -0 -1.70263e-05)
(0 -0 -1.60032e-05)
(0 -0 -1.49348e-05)
(0 -0 -1.38185e-05)
(0 -0 -1.26519e-05)
(0 -0 -1.14324e-05)
(0 -0 -1.01577e-05)
(0 -0 -8.82523e-06)
(0 -0 -7.43254e-06)
(0 -0 -5.97726e-06)
(0 -0 -4.45732e-06)
(0 -0 -2.87116e-06)
(0 -0 -1.21802e-06)
(0 -0 5.01583e-07)
(0 -0 2.28481e-06)
(0 -0 4.12463e-06)
(0 -0 6.00699e-06)
(0 -0 7.90742e-06)
(0 -0 9.78865e-06)
(0 -0 1.16013e-05)
(0 -0 1.32915e-05)
(0 -0 1.4812e-05)
(0 -0 0.00119489)
(0 -0 0.00392612)
(0 -0 0.00524388)
(0 -0 0.00346677)
(0 -0 0.000228887)
(0 -0 -0.0022213)
(0 -0 -0.00305677)
(0 -0 -0.00270585)
(0 -0 -0.00191075)
(0 -0 -0.00116515)
(0 -0 -0.000644358)
(0 -0 -0.000338642)
(0 -0 -0.000179839)
(0 -0 -0.000104639)
(0 -0 -7.14549e-05)
(0 -0 -5.74972e-05)
(0 -0 -5.1701e-05)
(0 -0 -4.91572e-05)
(0 -0 -4.78374e-05)
(0 -0 -4.69516e-05)
(0 -0 -4.6207e-05)
(0 -0 -4.54992e-05)
(0 -0 -4.47918e-05)
(0 -0 -4.40709e-05)
(0 -0 -4.33298e-05)
(0 -0 -4.25636e-05)
(0 -0 -4.17682e-05)
(0 -0 -4.09397e-05)
(0 -0 -4.00746e-05)
(0 -0 -3.91694e-05)
(0 -0 -3.82207e-05)
(0 -0 -3.72246e-05)
(0 -0 -3.61778e-05)
(0 -0 -3.50769e-05)
(0 -0 -3.39186e-05)
(0 -0 -3.27e-05)
(0 -0 -3.14179e-05)
(0 -0 -3.00694e-05)
(0 -0 -2.86514e-05)
(0 -0 -2.71608e-05)
(0 -0 -2.55944e-05)
(0 -0 -2.3949e-05)
(0 -0 -2.22217e-05)
(0 -0 -2.04096e-05)
(0 -0 -1.85107e-05)
(0 -0 -1.65236e-05)
(0 -0 -1.44483e-05)
(0 -0 -1.22869e-05)
(0 -0 -1.00457e-05)
(0 -0 -7.73731e-06)
(0 -0 -5.38374e-06)
(0 -0 -3.01842e-06)
(0 -0 -6.84737e-07)
(0 -0 1.56896e-06)
(0 -0 3.70802e-06)
(0 -0 0.00124951)
(0 -0 0.00408541)
(0 -0 0.00535232)
(0 -0 0.00337579)
(0 -0 -5.85018e-05)
(0 -0 -0.00259209)
(0 -0 -0.00339783)
(0 -0 -0.00296151)
(0 -0 -0.0020779)
(0 -0 -0.00126568)
(0 -0 -0.0007034)
(0 -0 -0.000375152)
(0 -0 -0.000205405)
(0 -0 -0.000125417)
(0 -0 -9.03856e-05)
(0 -0 -7.58633e-05)
(0 -0 -7.00137e-05)
(0 -0 -6.75972e-05)
(0 -0 -6.64536e-05)
(0 -0 -6.57445e-05)
(0 -0 -6.5161e-05)
(0 -0 -6.45947e-05)
(0 -0 -6.40089e-05)
(0 -0 -6.33907e-05)
(0 -0 -6.27343e-05)
(0 -0 -6.20353e-05)
(0 -0 -6.12901e-05)
(0 -0 -6.04952e-05)
(0 -0 -5.96471e-05)
(0 -0 -5.87425e-05)
(0 -0 -5.77778e-05)
(0 -0 -5.67494e-05)
(0 -0 -5.56536e-05)
(0 -0 -5.44869e-05)
(0 -0 -5.32458e-05)
(0 -0 -5.19271e-05)
(0 -0 -5.05272e-05)
(0 -0 -4.90426e-05)