/*--------------------------------*- C++ -*----------------------------------*\
| =========                 |                                                 |
| \\      /  F ield         | OpenFOAM: The Open Source CFD Toolbox           |
|  \\    /   O peration     | Version:  2412                                  |
|   \\  /    A nd           | Website:  www.openfoam.com                      |
|    \\/     M anipulation  |                                                 |
\*---------------------------------------------------------------------------*/
FoamFile
{
    version     2.0;
    format      ascii;
    arch        "LSB;label=32;scalar=64";
    class       volScalarField;
    location    "8";
    object      p;
}
// * * * * * * * * * * * * * * * * * * * * * * * * * * * * * * * * * * * * * //

dimensions      [0 2 -2 0 0 0 0];

internalField   nonuniform List<scalar> 
63420
(
0.00104535
0.00104644
0.00104657
0.00104826
0.00104994
0.00105208
0.00105465
0.00105756
0.00106085
0.0010645
0.00106852
0.00107288
0.0010776
0.00108266
0.00108806
0.00109379
0.00109986
0.00110626
0.00111299
0.00112006
0.00112745
0.00113517
0.00114323
0.00115162
0.00116035
0.00116941
0.00117882
0.00118856
0.00119865
0.00120909
0.00121988
0.00123102
0.00124252
0.00125438
0.0012666
0.0012792
0.00129217
0.00130551
0.00131924
0.00133335
0.00134785
0.00136275
0.00137805
0.00139376
0.00140987
0.0014264
0.00144335
0.00146072
0.00147852
0.00149676
0.00151544
0.00153456
0.00155413
0.00157417
0.00159466
0.00104529
0.00104638
0.00104651
0.0010482
0.00104987
0.00105202
0.00105458
0.00105749
0.00106078
0.00106443
0.00106844
0.0010728
0.00107752
0.00108257
0.00108796
0.00109369
0.00109976
0.00110615
0.00111288
0.00111994
0.00112732
0.00113504
0.00114309
0.00115147
0.00116019
0.00116925
0.00117864
0.00118837
0.00119845
0.00120888
0.00121965
0.00123078
0.00124227
0.00125411
0.00126632
0.0012789
0.00129185
0.00130517
0.00131888
0.00133297
0.00134745
0.00136232
0.0013776
0.00139327
0.00140936
0.00142585
0.00144277
0.00146011
0.00147787
0.00149607
0.00151471
0.00153378
0.00155331
0.00157329
0.00159373
0.00104518
0.00104626
0.00104639
0.00104808
0.00104975
0.00105189
0.00105445
0.00105735
0.00106064
0.00106428
0.00106829
0.00107264
0.00107735
0.0010824
0.00108778
0.0010935
0.00109956
0.00110594
0.00111265
0.0011197
0.00112707
0.00113478
0.00114281
0.00115118
0.00115988
0.00116891
0.00117829
0.001188
0.00119805
0.00120846
0.00121921
0.00123031
0.00124176
0.00125358
0.00126575
0.0012783
0.00129121
0.0013045
0.00131816
0.00133221
0.00134664
0.00136147
0.00137669
0.00139231
0.00140833
0.00142477
0.00144162
0.00145889
0.00147658
0.0014947
0.00151325
0.00153224
0.00155167
0.00157155
0.00159188
0.001045
0.00104609
0.00104621
0.00104789
0.00104956
0.00105169
0.00105425
0.00105715
0.00106042
0.00106406
0.00106806
0.00107241
0.0010771
0.00108213
0.00108751
0.00109321
0.00109925
0.00110562
0.00111232
0.00111934
0.00112669
0.00113438
0.00114239
0.00115073
0.0011594
0.00116841
0.00117776
0.00118744
0.00119746
0.00120782
0.00121854
0.0012296
0.00124101
0.00125278
0.00126491
0.0012774
0.00129026
0.00130348
0.00131709
0.00133107
0.00134543
0.00136019
0.00137533
0.00139087
0.0014068
0.00142315
0.0014399
0.00145706
0.00147464
0.00149264
0.00151107
0.00152992
0.00154922
0.00156895
0.00158912
0.00104477
0.00104585
0.00104597
0.00104764
0.00104931
0.00105143
0.00105398
0.00105687
0.00106014
0.00106377
0.00106775
0.00107209
0.00107677
0.00108179
0.00108714
0.00109283
0.00109885
0.00110519
0.00111187
0.00111887
0.00112619
0.00113385
0.00114183
0.00115014
0.00115878
0.00116775
0.00117705
0.00118669
0.00119667
0.00120698
0.00121764
0.00122865
0.00124001
0.00125171
0.00126378
0.0012762
0.00128899
0.00130214
0.00131566
0.00132955
0.00134383
0.00135848
0.00137352
0.00138895
0.00140477
0.00142099
0.00143761
0.00145463
0.00147207
0.00148991
0.00150817
0.00152686
0.00154596
0.00156549
0.00158545
0.00104448
0.00104556
0.00104567
0.00104733
0.00104899
0.0010511
0.00105365
0.00105653
0.00105979
0.0010634
0.00106737
0.00107169
0.00107635
0.00108135
0.00108668
0.00109235
0.00109834
0.00110466
0.0011113
0.00111827
0.00112557
0.00113318
0.00114113
0.0011494
0.00115799
0.00116692
0.00117617
0.00118576
0.00119568
0.00120594
0.00121653
0.00122747
0.00123876
0.00125039
0.00126237
0.00127471
0.00128741
0.00130046
0.00131388
0.00132767
0.00134183
0.00135636
0.00137127
0.00138656
0.00140224
0.00141831
0.00143476
0.00145162
0.00146887
0.00148652
0.00150458
0.00152305
0.00154192
0.00156121
0.0015809
0.00104414
0.00104521
0.00104531
0.00104696
0.00104862
0.00105071
0.00105325
0.00105612
0.00105936
0.00106296
0.00106692
0.00107121
0.00107585
0.00108083
0.00108614
0.00109177
0.00109774
0.00110402
0.00111063
0.00111756
0.00112482
0.00113239
0.00114029
0.00114851
0.00115705
0.00116592
0.00117512
0.00118464
0.0011945
0.00120468
0.00121521
0.00122607
0.00123726
0.00124881
0.00126069
0.00127293
0.00128552
0.00129846
0.00131176
0.00132542
0.00133944
0.00135383
0.00136859
0.00138372
0.00139922
0.00141511
0.00143137
0.00144802
0.00146506
0.00148248
0.0015003
0.00151851
0.00153711
0.00155611
0.00157549
0.00161568
0.00163745
0.00166016
0.00168385
0.00170865
0.00173455
0.00176164
0.00179
0.0018197
0.00185084
0.0018835
0.00191779
0.00195382
0.00199172
0.0020316
0.00207364
0.00211798
0.00216483
0.00221435
0.00226678
0.00232236
0.00238135
0.00244404
0.00251075
0.00258183
0.00265768
0.00273871
0.00282541
0.00291831
0.003018
0.00312512
0.00324042
0.00336469
0.00349883
0.00364379
0.00380065
0.00397049
0.00415443
0.00435353
0.0045686
0.00480001
0.00504729
0.00530866
0.00558058
0.00585787
0.00613446
0.00640383
0.00667056
0.00700626
0.00751269
0.00161473
0.00163649
0.00165918
0.00168294
0.0017077
0.00173359
0.00176067
0.00178902
0.00181872
0.00184985
0.00188251
0.00191679
0.00195281
0.0019907
0.00203057
0.00207259
0.00211692
0.00216374
0.00221324
0.00226564
0.00232117
0.0023801
0.00244271
0.00250932
0.00258028
0.00265597
0.0027368
0.00282325
0.00291583
0.00301512
0.00312174
0.0032364
0.00335986
0.00349296
0.0036366
0.00379174
0.00395936
0.00414041
0.00433572
0.00454581
0.00477066
0.00500928
0.00525921
0.0055161
0.00577369
0.00602481
0.0062623
0.00648982
0.00677452
0.00721106
0.00161282
0.0016346
0.00165733
0.00168101
0.00170576
0.00173165
0.00175873
0.00178707
0.00181675
0.00184787
0.00188052
0.00191478
0.00195079
0.00198865
0.00202851
0.0020705
0.0021148
0.00216158
0.00221102
0.00226335
0.00231879
0.0023776
0.00244006
0.00250648
0.0025772
0.00265257
0.00273301
0.00281897
0.00291093
0.00300943
0.00311507
0.00322847
0.00335034
0.0034814
0.00362243
0.00377419
0.00393743
0.00411276
0.00430056
0.00450076
0.00471252
0.00493379
0.00516076
0.00538734
0.00560516
0.00580478
0.00597797
0.00612686
0.00630509
0.00661543
0.00160998
0.00163173
0.00165443
0.00167812
0.00170287
0.00172874
0.0017558
0.00178413
0.0018138
0.00184489
0.00187751
0.00191175
0.00194773
0.00198556
0.00202537
0.00206732
0.00211156
0.00215827
0.00220763
0.00225984
0.00231513
0.00237376
0.00243599
0.0025021
0.00257244
0.00264733
0.00272717
0.00281236
0.00290337
0.00300067
0.0031048
0.0032163
0.00333575
0.00346374
0.00360083
0.00374752
0.00390418
0.00407095
0.00424753
0.00443297
0.00462523
0.00482066
0.00501339
0.00519473
0.00535315
0.00547569
0.00555243
0.00558707
0.00561712
0.00570485
0.00160619
0.00162794
0.00165062
0.0016743
0.00169904
0.0017249
0.00175195
0.00178026
0.00180991
0.00184099
0.00187358
0.00190779
0.00194374
0.00198153
0.00202131
0.0020632
0.00210738
0.00215401
0.00220327
0.00225534
0.00231046
0.00236886
0.00243079
0.00249652
0.00256636
0.00264063
0.00271968
0.00280388
0.00289363
0.00298935
0.00309148
0.00320044
0.00331667
0.00344053
0.00357232
0.00371218
0.00385997
0.00401516
0.00417657
0.00434203
0.00450791
0.00466847
0.00481513
0.00493585
0.00501511
0.00503536
0.00498334
0.00486628
0.00471095
0.00445591
0.00160149
0.00162324
0.00164593
0.00166962
0.00169438
0.00172025
0.00174732
0.00177564
0.00180531
0.0018364
0.00186902
0.00190326
0.00193923
0.00197706
0.00201688
0.00205883
0.00210306
0.00214975
0.00219905
0.00225115
0.00230628
0.00236464
0.00242649
0.00249207
0.00256167
0.00263559
0.00271415
0.00279767
0.00288651
0.00298101
0.00308151
0.00318832
0.00330168
0.00342173
0.00354841
0.00368137
0.00381981
0.00396222
0.00410603
0.00424714
0.00437929
0.00449324
0.00457594
0.00461003
0.00457394
0.00444398
0.00420178
0.00385559
0.00342502
0.00270738
0.00159586
0.00161754
0.00164018
0.00166382
0.00168852
0.00171434
0.00174135
0.00176962
0.00179923
0.00183026
0.00186281
0.00189699
0.0019329
0.00197067
0.00201043
0.00205233
0.00209651
0.00214313
0.00219236
0.00224438
0.00229939
0.0023576
0.00241924
0.00248455
0.00255379
0.00262725
0.0027052
0.00278795
0.00287578
0.00296899
0.0030678
0.00317242
0.00328289
0.00339912
0.00352071
0.00364678
0.00377578
0.00390507
0.00403038
0.00414512
0.00423941
0.00429902
0.00430447
0.00423073
0.00404819
0.00372457
0.00323709
0.00260016
0.00178201
0.0004673
-0.00317984
-0.00318868
-0.00311903
-0.00299055
-0.00281221
-0.00259527
-0.00235022
-0.0020886
-0.00182164
-0.00155931
-0.00130987
-0.00107956
-0.000872515
-0.000690955
-0.00053544
-0.000405227
-0.00029863
-0.00021335
-0.000146772
-9.61974e-05
-5.90008e-05
-3.26795e-05
-1.49833e-05
-4.085e-06
1.47042e-06
3.03028e-06
1.8128e-06
-1.31152e-06
-5.72275e-06
-1.09256e-05
-1.65421e-05
-2.22969e-05
-2.79945e-05
-3.34998e-05
-3.87234e-05
-4.36102e-05
-4.81297e-05
-5.22696e-05
-5.60299e-05
-5.94195e-05
-6.24525e-05
-6.5147e-05
-6.75225e-05
-6.95999e-05
-7.13999e-05
-7.29429e-05
-7.42486e-05
-7.53359e-05
-7.62226e-05
-7.69252e-05
-0.0032995
-0.00327887
-0.00319442
-0.00305367
-0.00286837
-0.00264797
-0.00240041
-0.00213676
-0.00186785
-0.00160341
-0.00135161
-0.00111868
-0.000908833
-0.000724341
-0.000565854
-0.000432705
-0.000323272
-0.000235306
-0.000166227
-0.000113356
-7.40743e-05
-4.58877e-05
-2.65205e-05
-1.41339e-05
-7.27571e-06
-4.57659e-06
-4.80397e-06
-7.06693e-06
-1.07303e-05
-1.52858e-05
-2.03429e-05
-2.56146e-05
-3.08951e-05
-3.60401e-05
-4.09523e-05
-4.55695e-05
-4.98553e-05
-5.37921e-05
-5.73755e-05
-6.06106e-05
-6.35084e-05
-6.60841e-05
-6.8355e-05
-7.03398e-05
-7.20578e-05
-7.35279e-05
-7.47685e-05
-7.57977e-05
-7.66323e-05
-7.72877e-05
-0.00354219
-0.00345016
-0.00333814
-0.00317218
-0.00297739
-0.00274959
-0.00249703
-0.00222957
-0.00195705
-0.00168873
-0.00143258
-0.00119479
-0.000979654
-0.0007896
-0.000625433
-0.000486638
-0.000371724
-0.000278546
-0.000204594
-0.000147235
-0.000103874
-7.20129e-05
-4.9377e-05
-3.40631e-05
-2.45989e-05
-1.96492e-05
-1.79216e-05
-1.84794e-05
-2.06597e-05
-2.39306e-05
-2.78774e-05
-3.21902e-05
-3.66427e-05
-4.10725e-05
-4.53666e-05
-4.94488e-05
-5.32709e-05
-5.68049e-05
-6.00377e-05
-6.29667e-05
-6.55966e-05
-6.7937e-05
-7.00007e-05
-7.18026e-05
-7.33584e-05
-7.46843e-05
-7.57964e-05
-7.67107e-05
-7.74424e-05
-7.80048e-05
-0.00389964
-0.00368672
-0.0035371
-0.00334938
-0.0031344
-0.00289467
-0.0026347
-0.00236164
-0.002084
-0.00181027
-0.00154807
-0.00130353
-0.00108102
-0.000883161
-0.000710989
-0.000564203
-0.000441502
-0.000340893
-0.000259975
-0.000196182
-0.00014696
-0.000109833
-8.24695e-05
-6.29557e-05
-4.97541e-05
-4.15069e-05
-3.69524e-05
-3.50452e-05
-3.50783e-05
-3.64882e-05
-3.88263e-05
-4.17492e-05
-4.50012e-05
-4.8394e-05
-5.17914e-05
-5.50975e-05
-5.82466e-05
-6.1196e-05
-6.39197e-05
-6.64043e-05
-6.8645e-05
-7.06436e-05
-7.24063e-05
-7.39421e-05
-7.52621e-05
-7.63783e-05
-7.73035e-05
-7.80506e-05
-7.86326e-05
-7.90593e-05
-0.00433054
-0.00399774
-0.00379561
-0.00356921
-0.00332769
-0.00307169
-0.00280133
-0.00252093
-0.00223719
-0.00195746
-0.00168871
-0.00143682
-0.00120616
-0.000999515
-0.000818146
-0.000662011
-0.00053005
-0.000420471
-0.000331031
-0.000259277
-0.00020272
-0.000158932
-0.000125602
-0.0001007
-8.26769e-05
-7.01897e-05
-6.19188e-05
-5.67866e-05
-5.40054e-05
-5.29721e-05
-5.31951e-05
-5.42895e-05
-5.59616e-05
-5.79893e-05
-6.02069e-05
-6.24921e-05
-6.47568e-05
-6.69383e-05
-6.89938e-05
-7.08953e-05
-7.26259e-05
-7.41766e-05
-7.55449e-05
-7.67322e-05
-7.77433e-05
-7.8585e-05
-7.92655e-05
-7.97941e-05
-8.01802e-05
-8.04297e-05
-0.00478073
-0.00440294
-0.00409531
-0.00381052
-0.00353331
-0.00325554
-0.00297282
-0.00268597
-0.0023989
-0.00211689
-0.00184552
-0.00158987
-0.001354
-0.00114068
-0.000951362
-0.000786321
-0.000644842
-0.000525468
-0.000426253
-0.000344975
-0.000279334
-0.000227038
-0.000185861
-0.000153798
-0.000129214
-0.000110803
-9.73052e-05
-8.75674e-05
-8.07427e-05
-7.61803e-05
-7.33371e-05
-7.1776e-05
-7.11539e-05
-7.12032e-05
-7.17163e-05
-7.25332e-05
-7.35323e-05
-7.46215e-05
-7.57325e-05
-7.68153e-05
-7.78342e-05
-7.87645e-05
-7.959e-05
-8.0301e-05
-8.08927e-05
-8.1364e-05
-8.17166e-05
-8.19541e-05
-8.20814e-05
-8.21008e-05
-0.00518168
-0.00483377
-0.00447598
-0.00413072
-0.00380894
-0.00350115
-0.00319868
-0.00289915
-0.00260365
-0.00231516
-0.00203764
-0.00177519
-0.00153139
-0.00130889
-0.0011093
-0.000933155
-0.000780066
-0.00064892
-0.000538069
-0.000445525
-0.000369162
-0.000306839
-0.000256423
-0.000215901
-0.000183643
-0.0001583
-0.000138616
-0.000123446
-0.000111857
-0.000103137
-9.66821e-05
-9.19953e-05
-8.86758e-05
-8.64023e-05
-8.49177e-05
-8.40176e-05
-8.35407e-05
-8.336e-05
-8.33769e-05
-8.35153e-05
-8.37171e-05
-8.39386e-05
-8.41478e-05
-8.43212e-05
-8.44427e-05
-8.45017e-05
-8.44917e-05
-8.441e-05
-8.4256e-05
-8.40307e-05
-7.74597e-05
-7.78535e-05
-7.81094e-05
-7.82307e-05
-7.82245e-05
-7.80977e-05
-7.78565e-05
-7.75074e-05
-7.70564e-05
-7.65092e-05
-7.58709e-05
-7.51457e-05
-7.43376e-05
-7.34496e-05
-7.24851e-05
-7.14472e-05
-7.03395e-05
-6.91661e-05
-6.79318e-05
-6.66417e-05
-6.53012e-05
-6.39159e-05
-6.24914e-05
-6.10331e-05
-5.95462e-05
-5.80354e-05
-5.65054e-05
-5.49602e-05
-5.34038e-05
-5.18398e-05
-5.02715e-05
-4.87023e-05
-4.71351e-05
-4.55729e-05
-4.40183e-05
-4.24739e-05
-4.09421e-05
-3.94253e-05
-3.79256e-05
-3.64451e-05
-3.49857e-05
-3.35491e-05
-3.21366e-05
-3.07518e-05
-2.93929e-05
-2.8061e-05
-2.67617e-05
-2.54928e-05
-2.42553e-05
-2.30504e-05
-2.18789e-05
-2.07413e-05
-1.96381e-05
-1.85697e-05
-1.75364e-05
-1.65383e-05
-1.55756e-05
-1.46484e-05
-1.37564e-05
-1.28995e-05
-1.20776e-05
-1.12902e-05
-1.05371e-05
-9.81779e-06
-9.13163e-06
-8.47825e-06
-7.85687e-06
-7.26684e-06
-6.70751e-06
-6.17796e-06
-5.67757e-06
-5.2054e-06
-4.76051e-06
-4.34204e-06
-3.94913e-06
-3.5807e-06
-3.23594e-06
-2.91387e-06
-2.61337e-06
-2.33373e-06
-2.07362e-06
-1.83251e-06
-1.60901e-06
-1.40234e-06
-1.21154e-06
-1.03559e-06
-8.73638e-07
-7.24721e-07
-5.87946e-07
-4.62367e-07
-3.47029e-07
-2.41656e-07
-1.43664e-07
-5.71989e-08
3.09008e-08
9.1921e-08
1.95703e-07
1.87438e-07
4.05354e-07
1.48731e-07
8.11101e-07
-2.39865e-07
1.72082e-06
-1.31243e-06
3.40832e-06
-3.04883e-06
5.29708e-06
-4.02472e-06
5.07952e-06
-1.41722e-06
3.79753e-07
5.3567e-06
-6.42829e-06
1.07584e-05
-7.97724e-06
-7.77773e-05
-7.814e-05
-7.83685e-05
-7.8464e-05
-7.84341e-05
-7.82856e-05
-7.80246e-05
-7.76573e-05
-7.71896e-05
-7.66269e-05
-7.59743e-05
-7.52361e-05
-7.44158e-05
-7.35168e-05
-7.25423e-05
-7.14954e-05
-7.03796e-05
-6.91992e-05
-6.79588e-05
-6.66634e-05
-6.53184e-05
-6.39292e-05
-6.25014e-05
-6.10402e-05
-5.95507e-05
-5.80378e-05
-5.65058e-05
-5.49589e-05
-5.34011e-05
-5.18358e-05
-5.02664e-05
-4.86963e-05
-4.71283e-05
-4.55654e-05
-4.40102e-05
-4.24654e-05
-4.09333e-05
-3.94163e-05
-3.79164e-05
-3.64358e-05
-3.49763e-05
-3.35399e-05
-3.21274e-05
-3.07427e-05
-2.93839e-05
-2.80522e-05
-2.67531e-05
-2.54845e-05
-2.42472e-05
-2.30426e-05
-2.18714e-05
-2.0734e-05
-1.96311e-05
-1.8563e-05
-1.753e-05
-1.65322e-05
-1.55698e-05
-1.46429e-05
-1.37512e-05
-1.28946e-05
-1.2073e-05
-1.12859e-05
-1.0533e-05
-9.81392e-06
-9.128e-06
-8.47486e-06
-7.8537e-06
-7.26387e-06
-6.70476e-06
-6.17539e-06
-5.67519e-06
-5.2032e-06
-4.75847e-06
-4.34017e-06
-3.94741e-06
-3.57911e-06
-3.23448e-06
-2.91254e-06
-2.61215e-06
-2.33264e-06
-2.07261e-06
-1.8316e-06
-1.60818e-06
-1.40158e-06
-1.21087e-06
-1.03498e-06
-8.73093e-07
-7.24232e-07
-5.87514e-07
-4.61978e-07
-3.46695e-07
-2.41354e-07
-1.43411e-07
-5.69688e-08
3.10862e-08
9.2112e-08
1.95815e-07
1.87599e-07
4.05382e-07
1.48909e-07
8.10994e-07
-2.39574e-07
1.72046e-06
-1.31197e-06
3.40791e-06
-3.0486e-06
5.29709e-06
-4.02514e-06
5.08028e-06
-1.41821e-06
3.80592e-07
5.35632e-06
-6.42862e-06
1.07591e-05
-7.9815e-06
-7.84071e-05
-7.87084e-05
-7.88827e-05
-7.89268e-05
-7.88498e-05
-7.86583e-05
-7.83581e-05
-7.79546e-05
-7.74537e-05
-7.68604e-05
-7.61795e-05
-7.54151e-05
-7.45709e-05
-7.36501e-05
-7.26558e-05
-7.1591e-05
-7.04594e-05
-6.92651e-05
-6.80126e-05
-6.67067e-05
-6.53527e-05
-6.39557e-05
-6.25212e-05
-6.10542e-05
-5.95598e-05
-5.80424e-05
-5.65066e-05
-5.49564e-05
-5.33956e-05
-5.18277e-05
-5.02562e-05
-4.86842e-05
-4.71146e-05
-4.55504e-05
-4.39941e-05
-4.24484e-05
-4.09157e-05
-3.93982e-05
-3.7898e-05
-3.64172e-05
-3.49577e-05
-3.35212e-05
-3.21089e-05
-3.07245e-05
-2.9366e-05
-2.80347e-05
-2.6736e-05
-2.54678e-05
-2.42311e-05
-2.3027e-05
-2.18563e-05
-2.07195e-05
-1.96172e-05
-1.85497e-05
-1.75173e-05
-1.65201e-05
-1.55583e-05
-1.46319e-05
-1.37408e-05
-1.28847e-05
-1.20637e-05
-1.12771e-05
-1.05248e-05
-9.80617e-06
-9.12076e-06
-8.46806e-06
-7.84734e-06
-7.25796e-06
-6.69923e-06
-6.17028e-06
-5.67044e-06
-5.19879e-06
-4.75441e-06
-4.33642e-06
-3.94395e-06
-3.57595e-06
-3.23159e-06
-2.90988e-06
-2.60975e-06
-2.33041e-06
-2.07063e-06
-1.82976e-06
-1.60653e-06
-1.40009e-06
-1.20952e-06
-1.03376e-06
-8.72006e-07
-7.23252e-07
-5.86629e-07
-4.61215e-07
-3.45995e-07
-2.4078e-07
-1.42893e-07
-5.65301e-08
3.14816e-08
9.24539e-08
1.96081e-07
1.87894e-07
4.05425e-07
1.4929e-07
8.10713e-07
-2.38918e-07
1.71973e-06
-1.31109e-06
3.40706e-06
-3.04811e-06
5.2971e-06
-4.02605e-06
5.0818e-06
-1.42015e-06
3.82195e-07
5.35558e-06
-6.4293e-06
1.07605e-05
-7.9898e-06
-7.93382e-05
-7.95494e-05
-7.9643e-05
-7.96113e-05
-7.94646e-05
-7.92097e-05
-7.88513e-05
-7.83944e-05
-7.78442e-05
-7.72056e-05
-7.64829e-05
-7.568e-05
-7.48005e-05
-7.38474e-05
-7.28238e-05
-7.17327e-05
-7.05778e-05
-6.93629e-05
-6.80924e-05
-6.6771e-05
-6.54036e-05
-6.39951e-05
-6.25506e-05
-6.10751e-05
-5.95731e-05
-5.80492e-05
-5.65076e-05
-5.49523e-05
-5.33871e-05
-5.18155e-05
-5.02407e-05
-4.86658e-05
-4.70939e-05
-4.55277e-05
-4.39699e-05
-4.24229e-05
-4.08892e-05
-3.9371e-05
-3.78703e-05
-3.63893e-05
-3.49297e-05
-3.34933e-05
-3.20812e-05
-3.06972e-05
-2.93391e-05
-2.80084e-05
-2.67103e-05
-2.54428e-05
-2.42068e-05
-2.30036e-05
-2.18337e-05
-2.06978e-05
-1.95963e-05
-1.85297e-05
-1.74982e-05
-1.65019e-05
-1.5541e-05
-1.46155e-05
-1.37252e-05
-1.287e-05
-1.20497e-05
-1.12639e-05
-1.05124e-05
-9.79456e-06
-9.10989e-06
-8.45787e-06
-7.83782e-06
-7.24908e-06
-6.69095e-06
-6.16261e-06
-5.66332e-06
-5.19219e-06
-4.74832e-06
-4.33081e-06
-3.93877e-06
-3.57121e-06
-3.22724e-06
-2.9059e-06
-2.60613e-06
-2.32709e-06
-2.06764e-06
-1.82702e-06
-1.60405e-06
-1.39784e-06
-1.20749e-06
-1.03193e-06
-8.70379e-07
-7.21791e-07
-5.85322e-07
-4.60069e-07
-3.44967e-07
-2.39905e-07
-1.42123e-07
-5.5863e-08
3.20574e-08
9.2973e-08
1.96454e-07
1.88347e-07
4.05478e-07
1.4987e-07
8.1028e-07
-2.37948e-07
1.71865e-06
-1.30979e-06
3.40584e-06
-3.04744e-06
5.29719e-06
-4.02749e-06
5.08416e-06
-1.42313e-06
3.84623e-07
5.3545e-06
-6.43038e-06
1.07626e-05
-8.00187e-06
-8.05551e-05
-8.06498e-05
-8.06373e-05
-8.05063e-05
-8.02688e-05
-7.99309e-05
-7.94964e-05
-7.89695e-05
-7.8355e-05
-7.7657e-05
-7.68797e-05
-7.60266e-05
-7.51009e-05
-7.41057e-05
-7.30439e-05
-7.19186e-05
-7.07332e-05
-6.94915e-05
-6.81975e-05
-6.68558e-05
-6.54707e-05
-6.4047e-05
-6.25893e-05
-6.11023e-05
-5.95903e-05
-5.80577e-05
-5.65085e-05
-5.49466e-05
-5.33756e-05
-5.17989e-05
-5.02197e-05
-4.86412e-05
-4.70661e-05
-4.54974e-05
-4.39374e-05
-4.23888e-05
-4.08538e-05
-3.93346e-05
-3.78333e-05
-3.6352e-05
-3.48922e-05
-3.3456e-05
-3.20443e-05
-3.06607e-05
-2.93033e-05
-2.79733e-05
-2.6676e-05
-2.54095e-05
-2.41745e-05
-2.29723e-05
-2.18035e-05
-2.06688e-05
-1.95685e-05
-1.8503e-05
-1.74727e-05
-1.64776e-05
-1.55179e-05
-1.45935e-05
-1.37044e-05
-1.28503e-05
-1.20311e-05
-1.12464e-05
-1.04959e-05
-9.77908e-06
-9.09539e-06
-8.44429e-06
-7.82513e-06
-7.23725e-06
-6.67993e-06
-6.15239e-06
-5.65384e-06
-5.18341e-06
-4.74021e-06
-4.32333e-06
-3.93188e-06
-3.56489e-06
-3.22145e-06
-2.90059e-06
-2.6013e-06
-2.32267e-06
-2.06364e-06
-1.82337e-06
-1.60075e-06
-1.39486e-06
-1.2048e-06
-1.02951e-06
-8.68213e-07
-7.1985e-07
-5.8359e-07
-4.5854e-07
-3.4361e-07
-2.38732e-07
-1.41099e-07
-5.49696e-08
3.28151e-08
9.36663e-08
1.96936e-07
1.88952e-07
4.05549e-07
1.50633e-07
8.09723e-07
-2.36711e-07
1.7173e-06
-1.30822e-06
3.40442e-06
-3.04683e-06
5.29766e-06
-4.02977e-06
5.08761e-06
-1.4273e-06
3.87864e-07
5.35327e-06
-6.43218e-06
1.07658e-05
-8.01752e-06
-8.20412e-05
-8.19931e-05
-8.18501e-05
-8.15983e-05
-8.12502e-05
-8.08111e-05
-8.02837e-05
-7.96715e-05
-7.89784e-05
-7.82081e-05
-7.73641e-05
-7.64497e-05
-7.54679e-05
-7.44215e-05
-7.33133e-05
-7.21463e-05
-7.09238e-05
-6.96493e-05
-6.83267e-05
-6.696e-05
-6.55532e-05
-6.41107e-05
-6.26368e-05
-6.11355e-05
-5.96112e-05
-5.80677e-05
-5.6509e-05
-5.49388e-05
-5.33606e-05
-5.17776e-05
-5.01931e-05
-4.861e-05
-4.70311e-05
-4.54591e-05
-4.38966e-05
-4.23459e-05
-4.08093e-05
-3.9289e-05
-3.7787e-05
-3.63052e-05
-3.48454e-05
-3.34093e-05
-3.1998e-05
-3.0615e-05
-2.92584e-05
-2.79294e-05
-2.66332e-05
-2.53678e-05
-2.41341e-05
-2.29332e-05
-2.17659e-05
-2.06325e-05
-1.95337e-05
-1.84697e-05
-1.74409e-05
-1.64473e-05
-1.5489e-05
-1.45661e-05
-1.36784e-05
-1.28257e-05
-1.20079e-05
-1.12245e-05
-1.04753e-05
-9.75975e-06
-9.07727e-06
-8.42733e-06
-7.80929e-06
-7.22248e-06
-6.66618e-06
-6.13962e-06
-5.642e-06
-5.17244e-06
-4.73007e-06
-4.31398e-06
-3.92327e-06
-3.55698e-06
-3.2142e-06
-2.89396e-06
-2.59525e-06
-2.31715e-06
-2.05863e-06
-1.81881e-06
-1.59662e-06
-1.39113e-06
-1.20144e-06
-1.02649e-06
-8.6551e-07
-7.1743e-07
-5.81433e-07
-4.56633e-07
-3.41922e-07
-2.37264e-07
-1.3982e-07
-5.38512e-08
3.37549e-08
9.45329e-08
1.97527e-07
1.89713e-07
4.05631e-07
1.51593e-07
8.09012e-07
-2.35156e-07
1.7156e-06
-1.30622e-06
3.40262e-06
-3.04604e-06
5.29821e-06
-4.03258e-06
5.0919e-06
-1.43248e-06
3.91923e-07
5.35168e-06
-6.43427e-06
1.07696e-05
-8.03548e-06
-8.37728e-05
-8.35592e-05
-8.32633e-05
-8.28711e-05
-8.2395e-05
-8.18381e-05
-8.12024e-05
-8.04906e-05
-7.97059e-05
-7.88513e-05
-7.79298e-05
-7.69441e-05
-7.5897e-05
-7.4791e-05
-7.36289e-05
-7.24135e-05
-7.11479e-05
-6.98352e-05
-6.8479e-05
-6.70829e-05
-6.56506e-05
-6.41858e-05
-6.26925e-05
-6.11743e-05
-5.96352e-05
-5.80788e-05
-5.65088e-05
-5.49287e-05
-5.33419e-05
-5.17515e-05
-5.01606e-05
-4.85721e-05
-4.69886e-05
-4.54129e-05
-4.38472e-05
-4.22941e-05
-4.07557e-05
-3.9234e-05
-3.77311e-05
-3.62489e-05
-3.4789e-05
-3.33532e-05
-3.19424e-05
-3.05601e-05
-2.92045e-05
-2.78766e-05
-2.65817e-05
-2.53178e-05
-2.40856e-05
-2.28863e-05
-2.17206e-05
-2.0589e-05
-1.9492e-05
-1.84298e-05
-1.74027e-05
-1.64109e-05
-1.54544e-05
-1.45332e-05
-1.36472e-05
-1.27962e-05
-1.198e-05
-1.11983e-05
-1.04506e-05
-9.73656e-06
-9.05553e-06
-8.40698e-06
-7.79029e-06
-7.20477e-06
-6.6497e-06
-6.12431e-06
-5.6278e-06
-5.15929e-06
-4.71792e-06
-4.30277e-06
-3.91295e-06
-3.5475e-06
-3.20551e-06
-2.886e-06
-2.58799e-06
-2.31053e-06
-2.05262e-06
-1.81335e-06
-1.59168e-06
-1.38666e-06
-1.19741e-06
-1.02287e-06
-8.6227e-07
-7.14533e-07
-5.78852e-07
-4.54348e-07
-3.39903e-07
-2.35501e-07
-1.38289e-07
-5.2507e-08
3.48723e-08
9.55819e-08
1.98204e-07
1.90674e-07
4.05628e-07
1.52934e-07
8.07809e-07
-2.32696e-07
1.71258e-06
-1.30233e-06
3.39833e-06
-3.04233e-06
5.2956e-06
-4.03256e-06
5.09416e-06
-1.43707e-06
3.9707e-07
5.34731e-06
-6.43228e-06
1.07687e-05
-8.04968e-06
-8.57865e-05
-8.53765e-05
-8.48969e-05
-8.43435e-05
-8.37197e-05
-8.3027e-05
-8.22662e-05
-8.14394e-05
-8.05489e-05
-7.95969e-05
-7.85858e-05
-7.75179e-05
-7.63956e-05
-7.52212e-05
-7.39971e-05
-7.27259e-05
-7.14104e-05
-7.00535e-05
-6.86582e-05
-6.72278e-05
-6.57653e-05
-6.42742e-05
-6.27578e-05
-6.12195e-05
-5.96627e-05
-5.80909e-05
-5.65075e-05
-5.49157e-05
-5.33187e-05
-5.17195e-05
-5.01211e-05
-4.85261e-05
-4.69373e-05
-4.53571e-05
-4.37879e-05
-4.22319e-05
-4.06913e-05
-3.91681e-05
-3.76642e-05
-3.61815e-05
-3.47215e-05
-3.3286e-05
-3.18758e-05
-3.04944e-05
-2.914e-05
-2.78136e-05
-2.65202e-05
-2.52579e-05
-2.40276e-05
-2.28303e-05
-2.16666e-05
-2.05371e-05
-1.94421e-05
-1.8382e-05
-1.73571e-05
-1.63674e-05
-1.5413e-05
-1.44939e-05
-1.36099e-05
-1.2761e-05
-1.19468e-05
-1.1167e-05
-1.04212e-05
-9.70888e-06
-9.02958e-06
-8.3827e-06
-7.76761e-06
-7.18362e-06
-6.63002e-06
-6.10603e-06
-5.61084e-06
-5.14359e-06
-4.70341e-06
-4.28938e-06
-3.90062e-06
-3.53618e-06
-3.19513e-06
-2.8765e-06
-2.57932e-06
-2.30263e-06
-2.04544e-06
-1.80682e-06
-1.58578e-06
-1.38133e-06
-1.19261e-06
-1.01856e-06
-8.58406e-07
-7.11078e-07
-5.75775e-07
-4.51622e-07
-3.37497e-07
-2.33394e-07
-1.36463e-07
-5.08985e-08
3.61945e-08
9.685e-08
1.98967e-07
1.91903e-07
4.05456e-07
1.54856e-07
8.05777e-07
-2.28724e-07
1.70726e-06
-1.29505e-06
3.38941e-06
-3.03289e-06
5.28653e-06
-4.02636e-06
5.09158e-06
-1.43959e-06
4.03775e-07
5.33749e-06
-6.42163e-06
1.07576e-05
-8.05458e-06
-8.80558e-05
-8.74271e-05
-8.67463e-05
-8.60103e-05
-8.52198e-05
-8.43735e-05
-8.34712e-05
-8.25143e-05
-8.1504e-05
-8.04419e-05
-7.93294e-05
-7.81686e-05
-7.69612e-05
-7.57094e-05
-7.44152e-05
-7.30808e-05
-7.17089e-05
-7.03017e-05
-6.88619e-05
-6.73922e-05
-6.58953e-05
-6.4374e-05
-6.2831e-05
-6.12695e-05
-5.96924e-05
-5.81028e-05
-5.65038e-05
-5.48985e-05
-5.32897e-05
-5.16804e-05
-5.00732e-05
-4.84709e-05
-4.68759e-05
-4.52906e-05
-4.37173e-05
-4.2158e-05
-4.0615e-05
-3.90901e-05
-3.75851e-05
-3.61018e-05
-3.46418e-05
-3.32067e-05
-3.17973e-05
-3.0417e-05
-2.9064e-05
-2.77393e-05
-2.64477e-05
-2.51875e-05
-2.39593e-05
-2.27643e-05
-2.1603e-05
-2.04759e-05
-1.93834e-05
-1.83258e-05
-1.73034e-05
-1.63162e-05
-1.53643e-05
-1.44477e-05
-1.35661e-05
-1.27196e-05
-1.19077e-05
-1.11301e-05
-1.03865e-05
-9.67633e-06
-8.99907e-06
-8.35416e-06
-7.74095e-06
-7.15877e-06
-6.60689e-06
-6.08454e-06
-5.59091e-06
-5.12514e-06
-4.68636e-06
-4.27365e-06
-3.88614e-06
-3.52287e-06
-3.18293e-06
-2.86533e-06
-2.56912e-06
-2.29334e-06
-2.037e-06
-1.79916e-06
-1.57884e-06
-1.37507e-06
-1.18697e-06
-1.01349e-06
-8.53866e-07
-7.07021e-07
-5.72163e-07
-4.48421e-07
-3.34673e-07
-2.30919e-07
-1.34315e-07
-4.90155e-08
3.77621e-08
9.83012e-08
1.99937e-07
1.93184e-07
4.05566e-07
1.56535e-07
8.04402e-07
-2.25748e-07
1.70365e-06
-1.29035e-06
3.38417e-06
-3.02834e-06
5.28323e-06
-4.02629e-06
5.09432e-06
-1.44546e-06
4.10685e-07
5.33106e-06
-6.41748e-06
1.07545e-05
-8.06841e-06
-9.05012e-05
-8.96423e-05
-8.87482e-05
-8.78165e-05
-8.68459e-05
-8.58336e-05
-8.47784e-05
-8.36807e-05
-8.25408e-05
-8.13594e-05
-8.01373e-05
-7.88759e-05
-7.75766e-05
-7.62411e-05
-7.4871e-05
-7.34682e-05
-7.20349e-05
-7.0573e-05
-6.90846e-05
-6.75719e-05
-6.6037e-05
-6.44822e-05
-6.29099e-05
-6.13226e-05
-5.97229e-05
-5.81135e-05
-5.64972e-05
-5.48768e-05
-5.32549e-05
-5.16344e-05
-5.00176e-05
-4.84071e-05
-4.68053e-05
-4.52144e-05
-4.36365e-05
-4.20738e-05
-4.05281e-05
-3.90013e-05
-3.74952e-05
-3.60114e-05
-3.45514e-05
-3.31168e-05
-3.17084e-05
-3.03293e-05
-2.89779e-05
-2.76552e-05
-2.63657e-05
-2.51078e-05
-2.38821e-05
-2.26897e-05
-2.15311e-05
-2.04068e-05
-1.93171e-05
-1.82624e-05
-1.72428e-05
-1.62584e-05
-1.53093e-05
-1.43955e-05
-1.35167e-05
-1.26728e-05
-1.18635e-05
-1.10885e-05
-1.03474e-05
-9.63958e-06
-8.96462e-06
-8.32193e-06
-7.71085e-06
-7.13071e-06
-6.58078e-06
-6.06028e-06
-5.56841e-06
-5.1043e-06
-4.6671e-06
-4.25589e-06
-3.86979e-06
-3.50785e-06
-3.16915e-06
-2.85273e-06
-2.55761e-06
-2.28285e-06
-2.02747e-06
-1.79051e-06
-1.57102e-06
-1.368e-06
-1.1806e-06
-1.00777e-06
-8.48743e-07
-7.02443e-07
-5.68087e-07
-4.44809e-07
-3.31487e-07
-2.28126e-07
-1.31889e-07
-4.68947e-08
3.95395e-08
9.99149e-08
2.01076e-07
1.94536e-07
4.05867e-07
1.58109e-07
8.03394e-07
-2.23265e-07
1.70089e-06
-1.28688e-06
3.38063e-06
-3.026e-06
5.28246e-06
-4.02892e-06
5.09939e-06
-1.45295e-06
4.18028e-07
5.32551e-06
-6.41524e-06
1.07538e-05
-8.08474e-06
-9.30962e-05
-9.19966e-05
-9.08788e-05
-8.97402e-05
-8.85787e-05
-8.73903e-05
-8.61727e-05
-8.49252e-05
-8.36475e-05
-8.23392e-05
-8.10006e-05
-7.96323e-05
-7.82353e-05
-7.68107e-05
-7.53598e-05
-7.38841e-05
-7.23852e-05
-7.08645e-05
-6.93238e-05
-6.77646e-05
-6.61886e-05
-6.45975e-05
-6.29931e-05
-6.13776e-05
-5.97531e-05
-5.8122e-05
-5.64868e-05
-5.48498e-05
-5.32137e-05
-5.15809e-05
-4.99536e-05
-4.83343e-05
-4.67251e-05
-4.51281e-05
-4.35454e-05
-4.19789e-05
-4.04304e-05
-3.89016e-05
-3.73943e-05
-3.591e-05
-3.44501e-05
-3.30162e-05
-3.16089e-05
-3.02313e-05
-2.88818e-05
-2.75613e-05
-2.62742e-05
-2.50189e-05
-2.3796e-05
-2.26065e-05
-2.14509e-05
-2.03297e-05
-1.92432e-05
-1.81916e-05
-1.71752e-05
-1.6194e-05
-1.52481e-05
-1.43373e-05
-1.34616e-05
-1.26207e-05
-1.18143e-05
-1.10422e-05
-1.03038e-05
-9.59862e-06
-8.92624e-06
-8.28602e-06
-7.67732e-06
-7.09945e-06
-6.55169e-06
-6.03325e-06
-5.54334e-06
-5.08109e-06
-4.64565e-06
-4.2361e-06
-3.85158e-06
-3.49112e-06
-3.15381e-06
-2.83868e-06
-2.54479e-06
-2.27117e-06
-2.01685e-06
-1.78088e-06
-1.5623e-06
-1.36013e-06
-1.17351e-06
-1.0014e-06
-8.43038e-07
-6.97346e-07
-5.6355e-07
-4.40788e-07
-3.2794e-07
-2.25016e-07
-1.29186e-07
-4.4535e-08
4.15215e-08
1.01701e-07
2.0236e-07
1.96005e-07
4.06261e-07
1.59764e-07
8.02408e-07
-2.20677e-07
1.698e-06
-1.28314e-06
3.37664e-06
-3.02306e-06
5.28088e-06
-4.03079e-06
5.10386e-06
-1.46039e-06
4.26078e-07
5.31835e-06
-6.41039e-06
1.075e-05
-8.09726e-06
-9.58152e-05
-9.44649e-05
-9.31141e-05
-9.17599e-05
-9.0399e-05
-8.90263e-05
-8.76386e-05
-8.62343e-05
-8.48121e-05
-8.33708e-05
-8.191e-05
-8.04296e-05
-7.89301e-05
-7.74121e-05
-7.58763e-05
-7.43238e-05
-7.27556e-05
-7.11728e-05
-6.95765e-05
-6.79677e-05
-6.63476e-05
-6.47175e-05
-6.30786e-05
-6.14327e-05
-5.97815e-05
-5.8127e-05
-5.64714e-05
-5.48167e-05
-5.31652e-05
-5.15192e-05
-4.98807e-05
-4.82519e-05
-4.66348e-05
-4.50314e-05
-4.34435e-05
-4.1873e-05
-4.03215e-05
-3.87908e-05
-3.72823e-05
-3.57976e-05
-3.4338e-05