/*--------------------------------*- C++ -*----------------------------------*\
| =========                 |                                                 |
| \\      /  F ield         | OpenFOAM: The Open Source CFD Toolbox           |
|  \\    /   O peration     | Version:  2412                                  |
|   \\  /    A nd           | Website:  www.openfoam.com                      |
|    \\/     M anipulation  |                                                 |
\*---------------------------------------------------------------------------*/
FoamFile
{
    version     2.0;
    format      ascii;
    arch        "LSB;label=32;scalar=64";
    class       surfaceScalarField;
    location    "8";
    object      phi;
}
// * * * * * * * * * * * * * * * * * * * * * * * * * * * * * * * * * * * * * //

dimensions      [0 3 -1 0 0 0 0];

oriented        oriented;

internalField   nonuniform List<scalar> 
126304
(
0.0050507
6.03516e-08
4.89521e-11
0.00505018
5.12097e-07
-1.14259e-10
0.00504833
1.85926e-06
-1.29173e-09
0.00504455
3.78464e-06
-3.22083e-09
0.00503928
5.27385e-06
-4.67901e-09
0.00503359
5.69231e-06
-4.70298e-09
0.00502846
5.12756e-06
-3.24305e-09
0.00502437
4.09539e-06
-9.46213e-10
0.00502127
3.09632e-06
1.42528e-09
0.00501887
2.39391e-06
3.37183e-09
0.00501684
2.02805e-06
4.71965e-09
0.00501492
1.92033e-06
5.51571e-09
0.00501294
1.96669e-06
5.90248e-09
0.00501085
2.08448e-06
6.03244e-09
0.00500862
2.22332e-06
6.02593e-09
0.00500626
2.35887e-06
5.96137e-09
0.00500377
2.48283e-06
5.88129e-09
0.00500117
2.59482e-06
5.80383e-09
0.00499847
2.69757e-06
5.73195e-09
0.00499567
2.79437e-06
5.66195e-09
0.00499277
2.88811e-06
5.5888e-09
0.00498979
2.98105e-06
5.50879e-09
0.00498671
3.07479e-06
5.41961e-09
0.00498353
3.17046e-06
5.3197e-09
0.00498026
3.26884e-06
5.20828e-09
0.00497688
3.37045e-06
5.08578e-09
0.0049734
3.47564e-06
4.95337e-09
0.00496981
3.58464e-06
4.81236e-09
0.00496611
3.69762e-06
4.66322e-09
0.00496229
3.81469e-06
4.50587e-09
0.00495835
3.93595e-06
4.33975e-09
0.00495428
4.06147e-06
4.16439e-09
0.00495009
4.1913e-06
3.97945e-09
0.00494576
4.3255e-06
3.78544e-09
0.00494129
4.46414e-06
3.58352e-09
0.00493668
4.60726e-06
3.37513e-09
0.00493192
4.75494e-06
3.16166e-09
0.00492701
4.90724e-06
2.94405e-09
0.00492194
5.06426e-06
2.72281e-09
0.00491672
5.22609e-06
2.49808e-09
0.00491132
5.39283e-06
2.2699e-09
0.00490575
5.56461e-06
2.03829e-09
0.00490001
5.74157e-06
1.80363e-09
0.00489409
5.92386e-06
1.5663e-09
0.00488797
6.11167e-06
1.32683e-09
0.00488167
6.30521e-06
1.08602e-09
0.00487516
6.50473e-06
8.44765e-10
0.00486845
6.71049e-06
6.03825e-10
0.00486153
6.92282e-06
3.63959e-10
0.00485438
7.14211e-06
1.25938e-10
0.00484702
7.36878e-06
-1.09586e-10
0.00483941
7.60341e-06
-3.41366e-10
0.00483157
7.84693e-06
-5.6795e-10
0.00482347
8.10147e-06
-7.87301e-10
8.37278e-06
0.00481509
-9.966e-10
0.00505069
1.22625e-07
0.00505019
1.01885e-06
0.00504836
3.68586e-06
0.00504464
7.50595e-06
0.00503944
1.0473e-05
0.00503381
1.13253e-05
0.00502871
1.02275e-05
0.00502461
8.19562e-06
0.00502148
6.22027e-06
0.00501905
4.82609e-06
0.00501698
4.09542e-06
0.00501503
3.87554e-06
0.00501303
3.96179e-06
0.00501093
4.19096e-06
0.00500869
4.46326e-06
0.00500632
4.73022e-06
0.00500382
4.97509e-06
0.00500122
5.19691e-06
0.00499852
5.40086e-06
0.00499572
5.59332e-06
0.00499283
5.77996e-06
0.00498984
5.96516e-06
0.00498677
6.15207e-06
0.00498359
6.34292e-06
0.00498032
6.53921e-06
0.00497695
6.74197e-06
0.00497348
6.95188e-06
0.00496989
7.16942e-06
0.00496619
7.39491e-06
0.00496238
7.62856e-06
0.00495845
7.87056e-06
0.00495439
8.12104e-06
0.0049502
8.38012e-06
0.00494587
8.64791e-06
0.00494141
8.92453e-06
0.00493681
9.21008e-06
0.00493206
9.5047e-06
0.00492716
9.80853e-06
0.0049221
1.01217e-05
0.00491688
1.04445e-05
0.0049115
1.07771e-05
0.00490594
1.11197e-05
0.00490021
1.14725e-05
0.0048943
1.1836e-05
0.0048882
1.22104e-05
0.00488191
1.25962e-05
0.00487542
1.29938e-05
0.00486873
1.34038e-05
0.00486183
1.38268e-05
0.0048547
1.42636e-05
0.00484736
1.47149e-05
0.00483978
1.51819e-05
0.00483196
1.56664e-05
0.00482389
1.61724e-05
1.67109e-05
0.00481555
0.00505069
1.88539e-07
0.00505019
1.51534e-06
0.00504843
5.45123e-06
0.00504483
1.111e-05
0.00503976
1.55356e-05
0.00503424
1.68518e-05
0.00502918
1.528e-05
0.00502507
1.2307e-05
0.0050219
9.39514e-06
0.0050194
7.32614e-06
0.00501726
6.23011e-06
0.00501525
5.88791e-06
0.00501321
6.0007e-06
0.00501107
6.32854e-06
0.00500881
6.7238e-06
0.00500643
7.11422e-06
0.00500393
7.47422e-06
0.00500133
7.80177e-06
0.00499862
8.10401e-06
0.00499583
8.39007e-06
0.00499294
8.66807e-06
0.00498996
8.94435e-06
0.00498689
9.2235e-06
0.00498372
9.50872e-06
0.00498046
9.80221e-06
0.00497709
1.01055e-05
0.00497363
1.04195e-05
0.00497005
1.07449e-05
0.00496636
1.10822e-05
0.00496256
1.14318e-05
0.00495864
1.17938e-05
0.00495459
1.21685e-05
0.00495041
1.25561e-05
0.00494611
1.29566e-05
0.00494166
1.33703e-05
0.00493707
1.37973e-05
0.00493234
1.42378e-05
0.00492746
1.46921e-05
0.00492242
1.51603e-05
0.00491722
1.56427e-05
0.00491186
1.61397e-05
0.00490632
1.66516e-05
0.00490062
1.71787e-05
0.00489473
1.77216e-05
0.00488866
1.82807e-05
0.0048824
1.88567e-05
0.00487595
1.94501e-05
0.00486929
2.00618e-05
0.00486242
2.06927e-05
0.00485534
2.13438e-05
0.00484804
2.20163e-05
0.00484051
2.27117e-05
0.00483274
2.34325e-05
0.00482473
2.41843e-05
2.49821e-05
0.00481646
0.00505069
2.59678e-07
0.0050502
1.997e-06
0.00504853
7.12867e-06
0.00504509
1.45456e-05
0.00504022
2.0402e-05
0.00503485
2.2225e-05
0.00502987
2.02636e-05
0.00502574
1.64337e-05
0.00502249
1.26426e-05
0.0050199
9.92319e-06
0.00501767
8.46113e-06
0.00501557
7.98213e-06
0.00501347
8.10237e-06
0.00501129
8.51064e-06
0.005009
9.01382e-06
0.0050066
9.51622e-06
0.00500409
9.98304e-06
0.00500148
1.04104e-05
0.00499878
1.08067e-05
0.00499598
1.11834e-05
0.0049931
1.15505e-05
0.00499013
1.19161e-05
0.00498707
1.22861e-05
0.00498391
1.26645e-05
0.00498066
1.30542e-05
0.00497731
1.34569e-05
0.00497385
1.3874e-05
0.00497029
1.43064e-05
0.00496662
1.47546e-05
0.00496283
1.52191e-05
0.00495892
1.57001e-05
0.00495489
1.61979e-05
0.00495074
1.67127e-05
0.00494645
1.72447e-05
0.00494203
1.77941e-05
0.00493746
1.83612e-05
0.00493275
1.89461e-05
0.0049279
1.95491e-05
0.00492289
2.01705e-05
0.00491772
2.08107e-05
0.00491239
2.14701e-05
0.00490689
2.2149e-05
0.00490122
2.2848e-05
0.00489538
2.35677e-05
0.00488935
2.43086e-05
0.00488313
2.50716e-05
0.00487673
2.58574e-05
0.00487012
2.66671e-05
0.00486331
2.75017e-05
0.00485629
2.83626e-05
0.00484906
2.92511e-05
0.0048416
3.01691e-05
0.00483391
3.11195e-05
0.00482599
3.21089e-05
3.31553e-05
0.00481782
0.00505068
3.37352e-07
0.00505022
2.45992e-06
0.00504865
8.69612e-06
0.00504542
1.77706e-05
0.0050408
2.50227e-05
0.00503562
2.74059e-05
0.00503073
2.51602e-05
0.00502658
2.05785e-05
0.00502324
1.59797e-05
0.00502053
1.26408e-05
0.00501818
1.08121e-05
0.00501598
1.01784e-05
0.0050138
1.02824e-05
0.00501156
1.07483e-05
0.00500923
1.13405e-05
0.00500681
1.19405e-05
0.00500429
1.25037e-05
0.00500168
1.30233e-05
0.00499898
1.35084e-05
0.00499619
1.39717e-05
0.00499331
1.44251e-05
0.00499035
1.48779e-05
0.0049873
1.53369e-05
0.00498416
1.5807e-05
0.00498092
1.62914e-05
0.00497758
1.67923e-05
0.00497415
1.73113e-05
0.0049706
1.78494e-05
0.00496695
1.84072e-05
0.00496319
1.89852e-05
0.0049593
1.95837e-05
0.0049553
2.02032e-05
0.00495117
2.08437e-05
0.0049469
2.15055e-05
0.00494251
2.21889e-05
0.00493798
2.2894e-05
0.0049333
2.36213e-05
0.00492848
2.43708e-05
0.00492351
2.51431e-05
0.00491838
2.59385e-05
0.00491309
2.67575e-05
0.00490764
2.76006e-05
0.00490202
2.84682e-05
0.00489623
2.93612e-05
0.00489026
3.02803e-05
0.0048841
3.12262e-05
0.00487776
3.22e-05
0.00487122
3.32028e-05
0.00486449
3.42358e-05
0.00485755
3.53004e-05
0.0048504
3.63983e-05
0.00484304
3.75314e-05
0.00483546
3.87028e-05
0.00482765
3.9919e-05
4.11987e-05
0.0048196
0.00505067
4.22455e-07
0.00505023
2.90133e-06
0.00504879
1.01375e-05
0.00504581
2.07538e-05
0.00504147
2.93608e-05
0.00503651
3.23645e-05
0.00503171
2.99548e-05
0.00502755
2.4742e-05
0.00502411
1.9418e-05
0.00502126
1.54955e-05
0.00501877
1.33e-05
0.00501646
1.24915e-05
0.00501419
1.2552e-05
0.00501189
1.30495e-05
0.00500952
1.37091e-05
0.00500707
1.43901e-05
0.00500453
1.50374e-05
0.00500192
1.56406e-05
0.00499922
1.62081e-05
0.00499644
1.67536e-05
0.00499357
1.72898e-05
0.00499062
1.78271e-05
0.00498759
1.83729e-05
0.00498446
1.89328e-05
0.00498124
1.95102e-05
0.00497793
2.01078e-05
0.00497451
2.07271e-05
0.00497099
2.13692e-05
0.00496736
2.2035e-05
0.00496362
2.27249e-05
0.00495977
2.34393e-05
0.00495579
2.41785e-05
0.00495169
2.49428e-05
0.00494747
2.57324e-05
0.00494311
2.65475e-05
0.00493861
2.73884e-05
0.00493398
2.82554e-05
0.0049292
2.91488e-05
0.00492427
3.0069e-05
0.0049192
3.10165e-05
0.00491396
3.19918e-05
0.00490857
3.29953e-05
0.00490301
3.40277e-05
0.00489728
3.50898e-05
0.00489138
3.61824e-05
0.0048853
3.73063e-05
0.00487903
3.84627e-05
0.00487258
3.96526e-05
0.00486594
4.08775e-05
0.0048591
4.21387e-05
0.00485207
4.3438e-05
0.00484482
4.47772e-05
0.00483736
4.6159e-05
0.00482969
4.75894e-05
4.90845e-05
0.00482181
0.00505066
5.15917e-07
0.00505025
3.31855e-06
0.00504894
1.14448e-05
0.00504622
2.34772e-05
0.00504218
3.33944e-05
0.00503746
3.7082e-05
0.00503278
3.46366e-05
0.0050286
2.89223e-05
0.00502506
2.29624e-05
0.00502206
1.84956e-05
0.00501942
1.59341e-05
0.00501699
1.49295e-05
0.00501462
1.49178e-05
0.00501225
1.54189e-05
0.00500984
1.61225e-05
0.00500736
1.68664e-05
0.00500481
1.75844e-05
0.00500219
1.82615e-05
0.0049995
1.89046e-05
0.00499672
1.95271e-05
0.00499387
2.01423e-05
0.00499094
2.07609e-05
0.00498792
2.13911e-05
0.00498481
2.20385e-05
0.00498162
2.2707e-05
0.00497832
2.33993e-05
0.00497493
2.41171e-05
0.00497144
2.48615e-05
0.00496784
2.56333e-05
0.00496414
2.64332e-05
0.00496031
2.72614e-05
0.00495637
2.81182e-05
0.00495231
2.90039e-05
0.00494813
2.99187e-05
0.00494381
3.08629e-05
0.00493936
3.18368e-05
0.00493478
3.28406e-05
0.00493005
3.38746e-05
0.00492518
3.49393e-05
0.00492016
3.60352e-05
0.00491499
3.71627e-05
0.00490966
3.83224e-05
0.00490418
3.9515e-05
0.00489853
4.07413e-05
0.00489271
4.20019e-05
0.00488671
4.3298e-05
0.00488055
4.46306e-05
0.0048742
4.60008e-05
0.00486767
4.741e-05
0.00486095
4.88597e-05
0.00485403
5.03513e-05
0.00484692
5.18865e-05
0.00483961
5.34674e-05
0.00483211
5.50973e-05
0.00482441
5.67847e-05
0.0048168
-1.70443e-06
-1.20044e-09
0.00481799
-1.18871e-06
-1.41389e-09
0.00481863
-6.37653e-07
-1.63431e-09
0.00481868
-4.79945e-08
-1.9234e-09
0.00481812
5.60476e-07
-2.04829e-09
0.00481692
1.20663e-06
-2.22968e-09
0.00481504
1.8793e-06
-2.40574e-09
0.00481247
2.57536e-06
-2.56226e-09
0.00480918
3.29273e-06
-2.69926e-09
0.00480515
4.03155e-06
-2.81641e-09
0.00480035
4.79555e-06
-2.91353e-09
0.00479476
5.59294e-06
-2.9908e-09
0.00478833
6.43692e-06
-3.04897e-09
0.00478099
7.34554e-06
-3.08234e-09
0.00477265
8.3409e-06
-3.11143e-09
0.00476321
9.44796e-06
-3.06407e-09
0.00475252
1.06927e-05
-3.058e-09
0.00474042
1.21009e-05
-3.04139e-09
0.00472672
1.36973e-05
-2.98994e-09
0.00471122
1.55058e-05
-2.99685e-09
0.00469367
1.75493e-05
-2.95153e-09
0.00467383
1.98504e-05
-2.90257e-09
0.0046514
2.24332e-05
-2.85945e-09
0.00462607
2.53248e-05
-2.82216e-09
0.00459752
2.85577e-05
-2.78823e-09
0.00456535
3.21716e-05
-2.75402e-09
0.00452914
3.62156e-05
-2.71394e-09
0.00448839
4.07509e-05
-2.66231e-09
0.00444254
4.58534e-05
-2.59373e-09
0.00439093
5.16165e-05
-2.50346e-09
0.00433277
5.81561e-05
-2.3888e-09
0.00426716
6.5615e-05
-2.24937e-09
0.00419299
7.41704e-05
-2.08756e-09
0.00410895
8.40425e-05
-1.90816e-09
0.00401345
9.55053e-05
-1.71748e-09
0.00390455
0.000108899
-1.52278e-09
0.00377991
0.000124643
-1.33142e-09
0.00363667
0.00014324
-1.14929e-09
0.00347139
0.000165276
-9.80808e-10
0.00328002
0.000191374
-8.29092e-10
0.00305792
0.0002221
-6.95361e-10
0.00280015
0.00025777
-5.79825e-10
0.00250206
0.000298092
-4.8329e-10
0.00216046
0.000341605
-4.0619e-10
0.00177563
0.000384825
-3.49704e-10
0.00135458
0.000421053
-3.11593e-10
0.000915706
0.000438873
-2.8141e-10
0.000495392
0.000420314
-2.29275e-10
0.000157309
0.000338083
-1.11552e-10
0.000157309
3.74028e-11
0.00481589
-2.04385e-06
0.00481572
-1.0173e-06
0.00481499
9.38507e-08
0.00481369
1.24644e-06
0.00481178
2.47509e-06
0.00480922
3.76381e-06
0.00480599
5.10673e-06
0.00480207
6.49761e-06
0.00479743
7.93245e-06
0.00479205
9.41187e-06
0.0047859
1.09435e-05
0.00477895
1.25438e-05
0.00477115
1.42392e-05
0.00476243
1.60653e-05
0.00475271
1.80662e-05
0.00474186
2.0291e-05
0.00472976
2.27912e-05
0.00471625
2.56177e-05
0.00470112
2.88197e-05
0.00468419
3.24445e-05
0.0046652
3.65379e-05
0.0046439
4.11452e-05
0.00462002
4.63148e-05
0.00459324
5.21012e-05
0.00456323
5.857e-05
0.0045296
6.58008e-05
0.00449193
7.38926e-05
0.00444971
8.29681e-05
0.00440238
9.31788e-05
0.00434929
0.000104712
0.00428965
0.000117799
0.00422254
0.000132724
0.00414687
0.000149839
0.00406133
0.000169583
0.00396433
0.000192498
0.00385398
0.000219256
0.00372794
0.000250684
0.0035834
0.000287772
0.00341702
0.000331662
0.00322483
0.000383563
0.00300237
0.000444558
0.00274494
0.000515207
0.00244818
0.000594851
0.00210929
0.000680493
0.00172898
0.000765134
0.0013146
0.000835435
0.000884743
0.000868727
0.000475455
0.000829603
0.000148109
0.000665429
0.000305418
0.00481408
3.33929e-07
0.0048112
1.86924e-06
0.00480778
3.5098e-06
0.00480378
5.2457e-06
0.00479918
7.08064e-06
0.00479393
9.00698e-06
0.00478802
1.1016e-05
0.00478142
1.30992e-05
0.0047741
1.52515e-05
0.00476604
1.74746e-05
0.0047572
1.97803e-05
0.00474755
2.21936e-05
0.00473704
2.47538e-05
0.00472559
2.75138e-05
0.00471312
3.05385e-05
0.00469951
3.39005e-05
0.00468462
3.76755e-05
0.0046683
4.19386e-05
0.00465036
4.67626e-05
0.00463059
5.22179e-05
0.00460875
5.83725e-05
0.0045846
6.52948e-05
0.00455786
7.30578e-05
0.00452822
8.17445e-05
0.00449533
9.1454e-05
0.00445883
0.000102307
0.00441827
0.000114453
0.00437316
0.000128077
0.00432293
0.000143407
0.00426692
0.000160723
0.00420434
0.000180371
0.00413429
0.000202774
0.00405568
0.000228458
0.00396719
0.000258069
0.00386728
0.000292411
0.00375406
0.000332471
0.00362529
0.000379457
0.00347825
0.000434811
0.00330974
0.000500172
0.00311604
0.00057726
0.00289303
0.000667565
0.00263648
0.000771758
0.00234268
0.000888658
0.00200957
0.0010136
0.00163866
0.00113605
0.00123788
0.00123621
0.000825958
0.00128065
0.000438474
0.00121709
0.000133995
0.000969908
0.000439413
0.00481141
6.73773e-06
0.00480451
8.77277e-06
0.00479708
1.09421e-05
0.00478908
1.32447e-05
0.00478048
1.56772e-05
0.00477125
1.82326e-05
0.00476137
2.09007e-05
0.0047508
2.36718e-05
0.00473951
2.65404e-05
0.00472747
2.951e-05
0.00471466
3.25972e-05
0.00470101
3.58357e-05
0.00468649
3.92773e-05
0.00467101
4.29917e-05
0.00465449
4.70634e-05
0.0046368
5.15871e-05
0.00461782
5.66613e-05
0.00459737
6.23841e-05
0.00457528
6.88505e-05
0.00455135
7.61531e-05
0.00452534
8.43824e-05
0.004497
9.36298e-05
0.00446607
0.000103994
0.00443222
0.000115586
0.00439514
0.000128541
0.00435442
0.000143022
0.00430965
0.00015923
0.00426031
0.000177412
0.00420585
0.000197873
0.00414558
0.000220986
0.00407875
0.00024721
0.00400441
0.000277105
0.00392151
0.000311362
0.00382875
0.000350829
0.00372461
0.000396551
0.00360727
0.000449807
0.00347458
0.000512149
0.00332399
0.000585404
0.00315253
0.00067163
0.00295687
0.000772926
0.00273341
0.000891022
0.00247867
0.00102649
0.00218992
0.00117741
0.00186624
0.00133728
0.00151025
0.00149203
0.00113059
0.00161588
0.000745567
0.00166567
0.000388849
0.0015738
0.000113861
0.0012449
0.000553274
0.00480791
1.84339e-05
0.00479573
2.09548e-05
0.00478303
2.36416e-05
0.00476978
2.6495e-05
0.00475594
2.95115e-05
0.00474149
3.26835e-05
0.00472639
3.60003e-05
0.00471061
3.94516e-05
0.00469412
4.30326e-05
0.00467688
4.67495e-05
0.00465885
5.06243e-05
0.00463999
5.46993e-05
0.00462023
5.90389e-05
0.00459949
6.37286e-05
0.00457768
6.88712e-05
0.00455469
7.4582e-05
0.00453037
8.09808e-05
0.00450457
8.81866e-05
0.0044771
9.63159e-05
0.00444777
0.000105483
0.00441635
0.000115799
0.0043826
0.00012738
0.00434625
0.000140349
0.00430698
0.000154851
0.00426447
0.000171054
0.00421833
0.000189165
0.00416812
0.000209439
0.00411334
0.000232187
0.00405343
0.00025779
0.0039877
0.000286713
0.00391538
0.000319526
0.00383557
0.000356922
0.00374718
0.000399749
0.00364897
0.000449041
0.00353945
0.000506064
0.00341691
0.000572351
0.00327932
0.000649739
0.00312436
0.000740359
0.00294944
0.000846552
0.00275175
0.000970621
0.00252847
0.0011143
0.0022772
0.00127776
0.00199655
0.00145806
0.0016872
0.00164664
0.00135322
0.00182601
0.00100392
0.00196518
0.000656374
0.00201321
0.000339035
0.00189114
9.40182e-05
0.00148991
0.000647292
0.00480362
3.66171e-05
0.00478497
3.96047e-05
0.00476583
4.27906e-05
0.00474614
4.61762e-05
0.0047259
4.9759e-05
0.00470505
5.35311e-05
0.00468357
5.7482e-05
0.00466142
6.16019e-05
0.00463856
6.58877e-05
0.00461496
7.03487e-05
0.00459057
7.50132e-05
0.00456534
7.99326e-05
0.0045392
8.51833e-05
0.00451206
9.08658e-05
0.00448383
9.71003e-05
0.00445439
0.000104021
0.00442361
0.000111766
0.00439132
0.000120476
0.00435735
0.000130286
0.0043215
0.000141331
0.00428355
0.000153744
0.00424327
0.000167665
0.00420037
0.000183243
0.00415457
0.000200654
0.00410552
0.000220106
0.00405283
0.000241851
0.00399608
0.000266196
0.00393474
0.000293519
0.00386825
0.000324278
0.00379594
0.00035903
0.00371701
0.000398453
0.00363057
0.000443367
0.00353555
0.000494766
0.00343073
0.000553855
0.00331471
0.000622087
0.00318587
0.000701198
0.00304238
0.000793224
0.00288227
0.000900467
0.00270347
0.00102536
0.00250398
0.00117011
0.00228219
0.00133609
0.00203731
0.00152264
0.00177007
0.0017253
0.00148354
0.00193316
0.00118401
0.00212555
0.000881772
0.00226741
0.000591586
0.0023034
0.000331212
0.00215152
0.000114526
0.0017066
0.000761818
0.00479863
6.239e-05
0.00477242
6.58185e-05
0.00474573
6.94796e-05
0.00471853
7.33745e-05
0.00469079
7.7501e-05
0.00466247
8.18519e-05
0.00463353
8.64169e-05
0.00460395
9.11876e-05
0.00457367
9.61631e-05
0.00454267
0.000101357
0.00451087
0.000106804
0.00447824
0.000112565
0.0044447
0.000118729
0.00441015
0.00012541
0.00437451
0.000132745
0.00433764
0.000140885
0.00429942
0.000149987
0.00425969
0.000160208
0.00421827
0.000171703
0.00417498
0.000184625
0.00412959
0.00019913
0.00408188
0.000215378
0.00403157
0.00023355
0.00397838
0.000253852
0.00392195
0.000276532
0.00386191
0.000301887
0.00379783
0.000330283
0.00372918
0.000362162
0.0036554
0.00039806
0.0035758
0.000438627
0.00348961
0.000484645
0.00339592
0.000537056
0.00329369
0.000596995
0.00318173
0.000665817
0.00305868
0.000745135
0.00292305
0.000836833
0.00277321
0.000943062
0.00260753
0.00106615
0.00242452
0.00120837
0.00222311
0.00137152
0.00200313
0.00155607
0.0017659
0.00175988
0.00151501
0.00197618
0.00125719
0.00219099
0.00100284
0.0023799
0.00076572
0.00250453
0.000560071
0.00250905
0.00039102
0.00232057
0.000237351
0.00186027
0.00099917
-2.4515e-05
2.45125e-05
2.53813e-09
-5.05487e-05
2.60291e-05
4.54107e-09
-5.11449e-05
5.91449e-07
4.76313e-09
-1.53087e-05
-3.58406e-05
4.42552e-09
6.22201e-05
-7.75327e-05
3.88637e-09
0.000180687
-0.00011847
3.28879e-09
0.000336256
-0.000155572
2.6666e-09
0.000523295
-0.000187041
2.05895e-09
0.000735342
-0.000212048
1.51317e-09
0.000965762
-0.000230422
1.0647e-09
0.00120818
-0.000242419
7.42198e-10
0.00145675
-0.000248575
5.61174e-10
0.00170634
-0.000249588
5.18504e-10
0.00195258
-0.000246234
6.03413e-10
0.00219188
-0.000239306
7.95018e-10
0.00242145
-0.000229572
1.06921e-09
0.0026392
-0.000217748
1.40347e-09
0.00284367
-0.000204477
1.78111e-09
0.003034
-0.000190325
2.19315e-09
0.00320977
-0.000175774
2.77395e-09
0.00337099
-0.00016122
2.97777e-09
0.00351796
-0.000146983
3.82787e-09
0.00365127
-0.000133305
3.46882e-09
0.00377163
-0.000120364
2.84072e-09
0.0038799
-0.000108277
2.9325e-09
0.00397701
-9.71113e-05
2.38642e-09
0.0040639
-8.68937e-05
2.60404e-09
0.00414152
-7.76172e-05
2.88019e-09
0.00421076
-6.92486e-05
3.12794e-09
0.0042725
-6.1737e-05
3.36901e-09
0.00432751
-5.50203e-05
3.63675e-09
0.00437654
-4.903e-05
3.95649e-09
0.00442023
-4.36956e-05
4.34094e-09
0.00445917
-3.89479e-05
4.78587e-09
0.00449389
-3.47211e-05
5.27344e-09
0.00452484
-3.09541e-05
5.77972e-09
0.00455242
-2.75915e-05
6.27586e-09
0.004577
-2.45839e-05
6.73657e-09
0.00459888
-2.18876e-05
7.13968e-09
0.00461834
-1.94645e-05
7.46979e-09
0.00463561
-1.72815e-05
7.72275e-09
0.00465091
-1.53101e-05
7.89913e-09
0.00466443
-1.35258e-05
8.00461e-09
0.00467633
-1.19074e-05
8.05234e-09
0.00468676
-1.04368e-05
8.05493e-09
0.00469585
-9.09843e-06
8.02595e-09
0.00470372
-7.8789e-06
7.9798e-09
0.00471048
-6.76653e-06
7.92684e-09
0.00471622
-5.75096e-06
7.8757e-09
-4.82278e-06
0.00472104
7.83356e-09
-2.06562e-05
4.51687e-05
-3.80069e-05
4.33798e-05
-3.08645e-05
-6.55096e-06
1.21356e-05
-7.88408e-05
9.43478e-05
-0.000159745
0.000215234
-0.000239356
0.000371087
-0.000311425
0.000556564
-0.000372518
0.000765578
-0.000421063
0.00099188
-0.000456723
0.00122946
-0.000479994
0.00147279
-0.000491905
0.001717
-0.000493803
0.00195795
-0.000487187
0.00219224
-0.000473593
0.00241718
-0.000454512
0.00263076
-0.000431331
0.00283159
-0.000405306
0.0030188
-0.000377537
0.00319199
-0.000348963
0.00335114
-0.000320364
0.00349652
-0.000292362
0.00362865
-0.000265435
0.00374822
-0.000239938
0.00385605
-0.000216107
0.00395301
-0.000194072
0.00404
-0.000173887
0.00411793
-0.000155545
0.00418767
-0.000138985
0.00425004
-0.000124107
0.00430581
-0.000110794
0.00435569
-9.89109e-05
0.00440032
-8.83216e-05
0.00444026
-7.88908e-05
0.00447603
-7.04895e-05
0.00450807
-6.29981e-05
0.00453679
-5.63079e-05
0.00456253
-5.03215e-05
0.00458559
-4.49529e-05
0.00460625
-4.01269e-05
0.00462475
-3.57782e-05
0.00464129
-3.18503e-05
0.00465606
-2.82945e-05
0.00466922
-2.5069e-05
0.00468092
-2.21379e-05
0.00469129
-1.94701e-05
0.00470045
-1.70389e-05
0.00470851
-1.48211e-05
0.00471555
-1.2796e-05
-1.09445e-05
0.00472168
-1.23645e-05
5.75332e-05
-1.41295e-05
4.51449e-05
8.04706e-06
-2.87275e-05
6.23449e-05
-0.000133139
0.00015247
-0.00024987
0.000277036
-0.000363922
0.000432564
-0.000466953
0.000614348
-0.000554302
0.000817045
-0.000623759
0.00103515
-0.000674824
0.00126332
-0.000708169
0.00149665
-0.000725232
0.00173075
-0.000727904
0.00196187
-0.000718306
0.0021869
-0.000698621
0.00240336
-0.000670975
0.00260938
-0.000637354
0.00280364
-0.000599562
0.00298528
-0.000559184
0.0031539
-0.000517579
0.00330942
-0.000475878
0.00345204
-0.000434985
0.00358221
-0.000395606
0.00370053
-0.000358256
0.00380772
-0.000323298
0.00390458
-0.000290937
0.00399194
-0.000261246
0.00407062
-0.000234227
0.00414144
-0.000209798
0.00420515
-0.000187824
0.0042625
-0.000168134
0.00431412
-0.000150539
0.00436064
-0.000134843
0.0044026
-0.000120849
0.00444048
-0.000108371
0.00447472
-9.72361e-05
0.0045057
-8.72847e-05
0.00453375
-7.83746e-05
0.00455918
-7.038e-05
0.00458224
-6.31903e-05
0.00460317
-5.67093e-05
0.00462218
-5.08538e-05
0.00463944
-4.55518e-05
0.00465511
-4.07413e-05
0.00466934
-3.63691e-05
0.00468226
-3.23891e-05
0.00469398
-2.87617e-05
0.00470461
-2.54521e-05
0.00471424
-2.24293e-05
-1.96638e-05
0.00472296
6.29275e-07
5.69039e-05
1.7371e-05
2.84031e-05
5.75333e-05
-6.88898e-05
0.000127037
-0.000202643
0.000226179
-0.000349011
0.000353642
-0.000491385
0.000506702
-0.000620013
0.000681682
-0.000729282
0.000874346
-0.000816423
0.00108024
-0.00088072
0.00129497
-0.000922899
0.00151439
-0.000944648
0.00173473
-0.000948248
0.00195272
-0.000936294
0.00216558
-0.000911483
0.00237107
-0.000876463
0.00256744
-0.000833727
0.00275343
-0.000785548
0.00292818
-0.00073394
0.00309124
-0.000680636
0.00324245
-0.000627086
0.00338192
-0.000574459
0.00350998
-0.000523661
0.00362711
-0.000475388
0.00373392
-0.000430111
0.00383109
-0.00038811
0.00391936
-0.000349511
0.00399945
-0.000314317
0.00407209
-0.000282441
0.00413799
-0.000253718
0.00419779
-0.00022794
0.00425212
-0.00020487
0.00430154
-0.000184259
0.00434655
-0.000165861
0.00438762
-0.000149438
0.00442515
-0.000134767
0.00445951
-0.000121644
0.00449102
-0.000109886
0.00451997
-9.93286e-05
0.00454661
-8.98294e-05
0.00457116
-8.1263e-05
0.00459383
-7.35205e-05
0.00461478
-6.6508e-05
0.00463419
-6.01441e-05
0.00465218
-5.43588e-05
0.00466888
-4.90917e-05
0.00468441
-4.42902e-05
0.00469887
-3.99086e-05
0.00471234
-3.59055e-05
-3.22404e-05
0.00472492
1.5008e-05
4.18958e-05
5.42484e-05
-1.08373e-05
0.000114931
-0.000129572
0.000198961
-0.000286673
0.000304957
-0.000455008
0.000431944
-0.000618371
0.000578413
-0.000766482
0.000742173
-0.000893043
0.000920454
-0.000994704
0.0011101
-0.00107037
0.00130781
-0.0011206
0.00151027
-0.00114711
0.00171438
-0.00115235
0.00191729
-0.00113921
0.00211654
-0.00111073
0.00231004
-0.00106997
0.00249613
-0.00101982
0.00267354
-0.000962953
0.00284136
-0.000901757
0.00299902
-0.000838302
0.00314627
-0.000774332
0.00328308
-0.000711266
0.00340963
-0.000650218
0.00352628
-0.000592031
0.00363348
-0.000537314
0.0037318
-0.000486436
0.00382186
-0.000439566
0.00390428
-0.000396741
0.00397971
-0.00035787
0.00404877
-0.000322777
0.00411205
-0.000291222
0.00417012
-0.000262933
0.00422348
-0.000237622
0.00427261
-0.000214996
0.00431795
-0.000194774
0.00435987
-0.000176689
0.00439872
-0.000160497
0.00443482
-0.000145977
0.00446842
-0.000132933
0.00449978
-0.000121189
0.00452911
-0.000110593
0.0045566
-0.000101013
0.00458243
-9.23344e-05
0.00460674
-8.44563e-05
0.00462968
-7.72932e-05
0.00465135
-7.07703e-05
0.00467189
-6.48231e-05
0.00469137
-5.93948e-05
0.0047099
-5.4434e-05
-4.98888e-05
0.00472755
3.64132e-05
5.4826e-06
9.86831e-05
-7.31071e-05
0.000180007
-0.000210896
0.000274471
-0.000381136
0.000381519
-0.000562056
0.00050153
-0.000738382
0.000634899
-0.000899851
0.000781402
-0.00103955
0.000940034
-0.00115334
0.00110911
-0.00123944
0.00128644
-0.00129793
0.00146955
-0.00133023
0.00165589
-0.00133869
0.00184296
-0.00132627
0.00202844
-0.00129621
0.0022103
-0.00125183
0.00238683
-0.00119635
0.00255665
-0.00113277
0.00271871
-0.00106381
0.00287227
-0.00099187
0.00301691
-0.00091897
0.00315243
-0.000846784
0.00327885
-0.000776636
0.00339636
-0.000709542
0.00350528
-0.000646232
0.00360603
-0.000587188
0.00369912
-0.000532658
0.00378509
-0.000482708
0.00386448
-0.000437266
0.00393786
-0.000396152
0.00400575
-0.000359112
0.00406866
-0.000325847
0.00412708
-0.000296037
0.00418143
-0.000269352
0.00423213
-0.000245472
0.00427954
-0.000224095
0.00432398
-0.000204938
0.00436575
-0.000187747
0.00440511
-0.000172293
0.00444229
-0.000158373
0.00447751
-0.00014581
0.00451094
-0.000134448
0.00454276
-0.000124152
0.00457311
-0.000114804
0.00460212
-0.000106303
0.00462991
-9.85613e-05
0.00465659
-9.15014e-05
0.00468225
-8.50564e-05
0.00470698
-7.91653e-05
-7.37657e-05
0.00473086
6.57277e-05
-6.02451e-05
0.000155798
-0.000163178
0.000249143
-0.000304241
0.00034364
-0.000475634
0.000441313
-0.000659729
0.000545106
-0.000842176
0.000657779
-0.00101252
0.000781182
-0.00116295
0.000916011
-0.00128816
0.00106186
-0.0013853
0.00121746
-0.00145353
0.00138092
-0.00149369
0.00155
-0.00150777
0.00172233
-0.0014986
0.00189559
-0.00146947
0.00206763
-0.00142388
0.00223659
-0.0013653
0.00240086
-0.00129704
0.0025592
-0.00122215
0.00271067
-0.00114333
0.00285461
-0.00106291
0.00299064
-0.000982819
0.00311862
-0.000904613
0.00323857
-0.000829489
0.00335067
-0.000758337
0.00345524
-0.000691752
0.00355265
-0.000630076
0.00364338
-0.000573438
0.00372791
-0.000521788
0.00380671
-0.000474957
0.00388029
-0.000432688
0.0039491
-0.000394664
0.0040136
-0.000360537
0.0040742
-0.000329951
0.00413128
-0.000302551
0.00418519
-0.000277999
0.00423623
-0.000255982
0.0042847
-0.000236212
0.00433084
-0.000218432
0.00437487
-0.000202411
0.00441701
-0.000187947
0.00445743
-0.000174863
0.00449628
-0.000163005
0.00453371
-0.000152238
0.00456985
-0.000142445
0.00460482
-0.000133526
0.00463871
-0.000125391
0.00467162
-0.000117964
0.00470362
-0.000111174
0.00473481
-0.000104955
0.00473532
-1.42879e-05
7.84433e-09
0.00474911
-1.38032e-05
7.9722e-09
0.00476245
-1.33512e-05
8.10721e-09
0.00477537
-1.29289e-05
8.2571e-09
0.0047879
-1.2531e-05
8.42815e-09
0.00480004
-1.21494e-05
8.62322e-09
0.0048118
-1.17724e-05
8.84139e-09
0.00482318
-1.13856e-05
9.07476e-09
0.00483414
-1.09724e-05
9.31211e-09
0.00484465
-1.05171e-05
9.54036e-09
0.00485465
-1.00078e-05
9.74153e-09
0.00486408
-9.44059e-06
9.89215e-09
0.00487289
-8.82236e-06
9.97202e-09
0.00488105
-8.17199e-06
9.96315e-09
0.00488856
-7.51836e-06
9.85017e-09
0.00489545
-6.8956e-06
9.62664e-09
0.00490177
-6.33641e-06
9.29947e-09
0.00490763
-5.86544e-06
8.8822e-09
0.00491312
-5.49475e-06
8.393e-09
0.00491833
-5.22249e-06
7.85615e-09
0.00492336
-5.03499e-06
7.29539e-09
0.00492826
-4.91123e-06
6.72805e-09
0.00493309
-4.82799e-06
6.16857e-09
0.00493784
-4.76426e-06
5.62874e-09
0.00494254
-4.70392e-06
5.11319e-09
0.00494717
-4.6366e-06
4.62237e-09
0.00495173
-4.55712e-06
4.15782e-09
0.00495619
-4.46419e-06
3.71826e-09
0.00496054
-4.35894e-06
3.29869e-09
0.00496478
-4.24369e-06
2.89699e-09
0.0049689
-4.12107e-06
2.51362e-09
0.00497289
-3.99356e-06
2.14569e-09
0.00497676
-3.86323e-06
1.79045e-09
0.00498049
-3.73174e-06
1.44811e-09
0.00498409
-3.60034e-06
1.11797e-09
0.00498755
-3.46996e-06
8.00672e-10
0.0049909
-3.34128e-06
5.03086e-10
0.00499411
-3.21479e-06
2.32948e-10
0.0049972
-3.09083e-06
-6.10233e-12
0.00500017
-2.96963e-06
-2.13235e-10
0.00500302
-2.85135e-06
-3.93951e-10
0.00500576
-2.73607e-06
-5.60387e-10
0.00500838
-2.62384e-06
-7.22628e-10
0.0050109
-2.51466e-06
-8.80093e-10
0.00501331
-2.40857e-06
-1.05234e-09
0.00501562
-2.30548e-06
-1.23457e-09
0.00501782
-2.20538e-06
-1.41604e-09
0.00501993
-2.10822e-06
-1.6192e-09
0.00502195
-2.01393e-06
-1.85059e-09
0.00502387
-1.92246e-06
-2.11407e-09
0.00502571
-1.83377e-06
-2.40697e-09
0.00502746
-1.7478e-06
-2.72009e-09
0.00502913
-1.66453e-06
-3.03415e-09
0.00503071
-1.58393e-06
-3.32906e-09
0.00503222
-1.50595e-06
-3.58609e-09
0.00503366
-1.43056e-06
-3.79399e-09
0.00503502
-1.35769e-06
-3.94765e-09
0.00503631
-1.2873e-06
-4.05846e-09
0.00503753
-1.2193e-06
-4.15723e-09
0.00503869