/*--------------------------------*- C++ -*----------------------------------*\
| =========                 |                                                 |
| \\      /  F ield         | OpenFOAM: The Open Source CFD Toolbox           |
|  \\    /   O peration     | Version:  2412                                  |
|   \\  /    A nd           | Website:  www.openfoam.com                      |
|    \\/     M anipulation  |                                                 |
\*---------------------------------------------------------------------------*/
FoamFile
{
    version     2.0;
    format      ascii;
    arch        "LSB;label=32;scalar=64";
    class       volVectorField;
    location    "8";
    object      U;
}
// * * * * * * * * * * * * * * * * * * * * * * * * * * * * * * * * * * * * * //

dimensions      [0 1 -1 0 0 0 0];

internalField   nonuniform List<vector> 
63420
(
(0.100007 2.0256e-07 0)
(0.0999926 1.77277e-06 0)
(0.099982 6.57913e-06 0)
(0.0999241 1.36587e-05 0)
(0.0998303 1.94017e-05 0)
(0.0997162 2.13386e-05 0)
(0.0996051 1.9578e-05 0)
(0.099513 1.59184e-05 0)
(0.0994428 1.22453e-05 0)
(0.0993901 9.63249e-06 0)
(0.0993478 8.31057e-06 0)
(0.0993096 8.02569e-06 0)
(0.0992715 8.39091e-06 0)
(0.0992315 9.08097e-06 0)
(0.0991888 9.88857e-06 0)
(0.0991433 1.07086e-05 0)
(0.0990952 1.15024e-05 0)
(0.0990447 1.22659e-05 0)
(0.0989922 1.30098e-05 0)
(0.0989377 1.37488e-05 0)
(0.0988813 1.44964e-05 0)
(0.0988231 1.5264e-05 0)
(0.0987631 1.60606e-05 0)
(0.0987012 1.68933e-05 0)
(0.0986374 1.77675e-05 0)
(0.0985716 1.8688e-05 0)
(0.0985037 1.96584e-05 0)
(0.0984338 2.06822e-05 0)
(0.0983616 2.17626e-05 0)
(0.0982872 2.29026e-05 0)
(0.0982104 2.41052e-05 0)
(0.0981312 2.53734e-05 0)
(0.0980494 2.67104e-05 0)
(0.0979651 2.81191e-05 0)
(0.097878 2.9603e-05 0)
(0.0977882 3.11655e-05 0)
(0.0976955 3.28102e-05 0)
(0.0975998 3.45408e-05 0)
(0.0975011 3.63615e-05 0)
(0.0973992 3.82764e-05 0)
(0.0972941 4.02903e-05 0)
(0.0971856 4.24079e-05 0)
(0.0970737 4.46345e-05 0)
(0.0969582 4.69756e-05 0)
(0.0968391 4.94372e-05 0)
(0.0967162 5.2026e-05 0)
(0.0965894 5.47489e-05 0)
(0.0964586 5.76138e-05 0)
(0.0963237 6.06293e-05 0)
(0.0961845 6.38046e-05 0)
(0.0960409 6.71504e-05 0)
(0.0958927 7.06789e-05 0)
(0.0957399 7.44065e-05 0)
(0.0955821 7.83627e-05 0)
(0.0954192 8.26154e-05 0)
(0.100007 6.14757e-07 0)
(0.0999925 5.29844e-06 0)
(0.0999822 1.96075e-05 0)
(0.0999252 4.07114e-05 0)
(0.0998329 5.78769e-05 0)
(0.0997201 6.37391e-05 0)
(0.0996099 5.8591e-05 0)
(0.0995179 4.77634e-05 0)
(0.0994474 3.68639e-05 0)
(0.099394 2.90952e-05 0)
(0.0993509 2.51543e-05 0)
(0.0993121 2.42952e-05 0)
(0.0992735 2.5372e-05 0)
(0.0992331 2.74194e-05 0)
(0.0991901 2.98213e-05 0)
(0.0991444 3.22646e-05 0)
(0.0990962 3.46333e-05 0)
(0.0990458 3.69148e-05 0)
(0.0989932 3.91404e-05 0)
(0.0989387 4.13528e-05 0)
(0.0988824 4.35922e-05 0)
(0.0988243 4.58924e-05 0)
(0.0987643 4.828e-05 0)
(0.0987024 5.07756e-05 0)
(0.0986387 5.3396e-05 0)
(0.0985729 5.61545e-05 0)
(0.0985052 5.90627e-05 0)
(0.0984353 6.21308e-05 0)
(0.0983632 6.53682e-05 0)
(0.0982889 6.8784e-05 0)
(0.0982122 7.23871e-05 0)
(0.0981331 7.61865e-05 0)
(0.0980515 8.01914e-05 0)
(0.0979673 8.44111e-05 0)
(0.0978804 8.88555e-05 0)
(0.0977907 9.3535e-05 0)
(0.0976981 9.84602e-05 0)
(0.0976026 0.000103643 0)
(0.0975041 0.000109094 0)
(0.0974024 0.000114828 0)
(0.0972975 0.000120858 0)
(0.0971892 0.000127197 0)
(0.0970775 0.000133863 0)
(0.0969623 0.000140871 0)
(0.0968435 0.000148239 0)
(0.0967209 0.000155987 0)
(0.0965944 0.000164136 0)
(0.096464 0.00017271 0)
(0.0963294 0.000181732 0)
(0.0961906 0.000191232 0)
(0.0960474 0.000201241 0)
(0.0958998 0.000211795 0)
(0.0957474 0.000222942 0)
(0.0955902 0.000234768 0)
(0.0954279 0.000247472 0)
(0.100007 1.04591e-06 0)
(0.0999924 8.76986e-06 0)
(0.0999826 3.23058e-05 0)
(0.0999275 6.71187e-05 0)
(0.0998379 9.55856e-05 0)
(0.0997278 0.00010553 0)
(0.0996191 9.73268e-05 0)
(0.0995274 7.96756e-05 0)
(0.0994562 6.17928e-05 0)
(0.0994016 4.89794e-05 0)
(0.0993571 4.24243e-05 0)
(0.099317 4.09337e-05 0)
(0.0992774 4.26415e-05 0)
(0.0992363 4.59667e-05 0)
(0.0991928 4.98953e-05 0)
(0.0991468 5.39092e-05 0)
(0.0990984 5.78134e-05 0)
(0.0990478 6.15843e-05 0)
(0.0989953 6.52706e-05 0)
(0.0989408 6.89408e-05 0)
(0.0988845 7.26601e-05 0)
(0.0988265 7.64832e-05 0)
(0.0987666 8.04534e-05 0)
(0.0987049 8.46047e-05 0)
(0.0986412 8.89642e-05 0)
(0.0985757 9.35541e-05 0)
(0.0985081 9.83932e-05 0)
(0.0984384 0.000103499 0)
(0.0983665 0.000108886 0)
(0.0982924 0.000114569 0)
(0.0982159 0.000120565 0)
(0.0981371 0.000126886 0)
(0.0980557 0.000133549 0)
(0.0979717 0.000140569 0)
(0.0978851 0.000147962 0)
(0.0977957 0.000155746 0)
(0.0977035 0.000163938 0)
(0.0976083 0.000172557 0)
(0.0975101 0.000181623 0)
(0.0974088 0.000191157 0)
(0.0973043 0.000201182 0)
(0.0971965 0.000211722 0)
(0.0970853 0.000222802 0)
(0.0969706 0.00023445 0)
(0.0968523 0.000246695 0)
(0.0967303 0.00025957 0)
(0.0966044 0.000273108 0)
(0.0964746 0.000287349 0)
(0.0963408 0.000302332 0)
(0.0962028 0.000318105 0)
(0.0960605 0.000334717 0)
(0.0959137 0.000352228 0)
(0.0957624 0.000370715 0)
(0.0956063 0.000390313 0)
(0.0954452 0.000411332 0)
(0.100007 1.5075e-06 0)
(0.0999922 1.21536e-05 0)
(0.0999832 4.44721e-05 0)
(0.0999308 9.24867e-05 0)
(0.0998452 0.00013206 0)
(0.0997388 0.000146338 0)
(0.0996325 0.000135614 0)
(0.0995412 0.000111693 0)
(0.0994689 8.72189e-05 0)
(0.0994125 6.95399e-05 0)
(0.099366 6.03788e-05 0)
(0.0993241 5.81651e-05 0)
(0.099283 6.03747e-05 0)
(0.0992409 6.48496e-05 0)
(0.0991967 7.01961e-05 0)
(0.0991502 7.56955e-05 0)
(0.0991016 8.10719e-05 0)
(0.0990509 8.62857e-05 0)
(0.0989983 9.13986e-05 0)
(0.0989439 9.65012e-05 0)
(0.0988877 0.000101681 0)
(0.0988297 0.000107011 0)
(0.09877 0.00011255 0)
(0.0987085 0.000118345 0)
(0.0986451 0.000124432 0)
(0.0985797 0.000130842 0)
(0.0985124 0.000137601 0)
(0.098443 0.000144732 0)
(0.0983714 0.000152256 0)
(0.0982976 0.000160195 0)
(0.0982214 0.000168568 0)
(0.0981429 0.000177396 0)
(0.0980619 0.000186701 0)
(0.0979783 0.000196503 0)
(0.0978921 0.000206826 0)
(0.0978032 0.000217693 0)
(0.0977114 0.000229128 0)
(0.0976168 0.000241159 0)
(0.0975191 0.000253812 0)
(0.0974184 0.000267116 0)
(0.0973145 0.000281104 0)
(0.0972074 0.000295807 0)
(0.0970969 0.000311261 0)
(0.0969829 0.000327505 0)
(0.0968654 0.000344578 0)
(0.0967443 0.000362524 0)
(0.0966194 0.000381391 0)
(0.0964906 0.000401231 0)
(0.0963578 0.000422099 0)
(0.096221 0.000444059 0)
(0.0960799 0.000467177 0)
(0.0959346 0.000491533 0)
(0.0957847 0.000517228 0)
(0.0956302 0.000544439 0)
(0.0954709 0.000573564 0)
(0.100007 2.0089e-06 0)
(0.099992 1.54216e-05 0)
(0.0999839 5.59305e-05 0)
(0.0999349 0.000116475 0)
(0.0998542 0.000166894 0)
(0.0997526 0.000185839 0)
(0.0996492 0.000173302 0)
(0.0995585 0.000143845 0)
(0.0994849 0.000113299 0)
(0.0994262 9.09933e-05 0)
(0.0993772 7.92383e-05 0)
(0.099333 7.61812e-05 0)
(0.0992902 7.87217e-05 0)
(0.0992467 8.41765e-05 0)
(0.0992016 9.07964e-05 0)
(0.0991546 9.76682e-05 0)
(0.0991057 0.000104432 0)
(0.0990548 0.000111027 0)
(0.0990022 0.00011752 0)
(0.0989479 0.000124021 0)
(0.0988918 0.000130634 0)
(0.098834 0.000137449 0)
(0.0987745 0.000144539 0)
(0.0987132 0.000151961 0)
(0.0986501 0.00015976 0)
(0.0985851 0.000167974 0)
(0.0985181 0.000176637 0)
(0.098449 0.000185777 0)
(0.0983778 0.000195422 0)
(0.0983044 0.000205597 0)
(0.0982287 0.000216329 0)
(0.0981506 0.000227643 0)
(0.0980701 0.000239566 0)
(0.0979871 0.000252126 0)
(0.0979014 0.000265352 0)
(0.0978131 0.000279272 0)
(0.0977219 0.000293919 0)
(0.097628 0.000309325 0)
(0.097531 0.000325526 0)
(0.0974311 0.000342559 0)
(0.097328 0.000360462 0)
(0.0972217 0.000379278 0)
(0.0971122 0.000399051 0)
(0.0969992 0.000419828 0)
(0.0968828 0.000441661 0)
(0.0967628 0.000464604 0)
(0.0966391 0.000488716 0)
(0.0965117 0.000514061 0)
(0.0963804 0.00054071 0)
(0.0962451 0.000568738 0)
(0.0961057 0.000598229 0)
(0.0959621 0.000629277 0)
(0.0958142 0.000662003 0)
(0.0956618 0.000696609 0)
(0.0955049 0.000733543 0)
(0.100007 2.55706e-06 0)
(0.0999917 1.85518e-05 0)
(0.0999847 6.65438e-05 0)
(0.0999395 0.000138818 0)
(0.0998646 0.000199767 0)
(0.0997685 0.000223772 0)
(0.0996684 0.000210262 0)
(0.0995784 0.000176144 0)
(0.0995034 0.000140148 0)
(0.0994421 0.000113504 0)
(0.0993903 9.91729e-05 0)
(0.0993435 9.51309e-05 0)
(0.0992987 9.77995e-05 0)
(0.0992537 0.000104032 0)
(0.0992076 0.000111753 0)
(0.0991599 0.000119861 0)
(0.0991106 0.00012791 0)
(0.0990596 0.00013581 0)
(0.0990069 0.000143629 0)
(0.0989527 0.000151485 0)
(0.0988968 0.000159499 0)
(0.0988393 0.000167772 0)
(0.09878 0.000176389 0)
(0.0987191 0.000185416 0)
(0.0986563 0.000194907 0)
(0.0985916 0.000204907 0)
(0.098525 0.000215453 0)
(0.0984564 0.000226582 0)
(0.0983857 0.000238325 0)
(0.0983128 0.000250714 0)
(0.0982376 0.000263779 0)
(0.0981601 0.000277552 0)
(0.0980802 0.000292065 0)
(0.0979978 0.000307351 0)
(0.0979128 0.000323444 0)
(0.0978252 0.00034038 0)
(0.0977349 0.000358198 0)
(0.0976418 0.000376935 0)
(0.0975457 0.000396636 0)
(0.0974467 0.000417343 0)
(0.0973447 0.000439103 0)
(0.0972395 0.000461967 0)
(0.0971311 0.000485987 0)
(0.0970194 0.00051122 0)
(0.0969043 0.000537727 0)
(0.0967857 0.00056557 0)
(0.0966636 0.000594822 0)
(0.0965378 0.000625556 0)
(0.0964082 0.000657854 0)
(0.0962748 0.000691803 0)
(0.0961375 0.0007275 0)
(0.0959961 0.00076505 0)
(0.0958506 0.000804584 0)
(0.0957009 0.000846308 0)
(0.0955468 0.000890672 0)
(0.100007 3.16064e-06 0)
(0.0999914 2.15185e-05 0)
(0.0999856 7.6232e-05 0)
(0.0999446 0.000159333 0)
(0.0998757 0.000230462 0)
(0.0997856 0.000259952 0)
(0.0996891 0.000246397 0)
(0.0996 0.000208587 0)
(0.0995235 0.000167833 0)
(0.0994595 0.000137176 0)
(0.0994046 0.000120292 0)
(0.0993551 0.000115112 0)
(0.0993081 0.000117686 0)
(0.0992614 0.000124473 0)
(0.0992142 0.000133102 0)
(0.0991659 0.000142294 0)
(0.0991162 0.000151514 0)
(0.099065 0.000160633 0)
(0.0990124 0.000169713 0)
(0.0989583 0.000178877 0)
(0.0989026 0.000188252 0)
(0.0988454 0.000197953 0)
(0.0987865 0.000208069 0)
(0.0987259 0.000218677 0)
(0.0986635 0.000229836 0)
(0.0985993 0.000241596 0)
(0.0985332 0.000254003 0)
(0.0984651 0.000267095 0)
(0.0983949 0.000280909 0)
(0.0983226 0.000295483 0)
(0.0982481 0.000310852 0)
(0.0981713 0.000327051 0)
(0.0980921 0.000344118 0)
(0.0980105 0.000362092 0)
(0.0979264 0.000381011 0)
(0.0978396 0.000400918 0)
(0.0977502 0.000421855 0)
(0.0976581 0.00044387 0)
(0.0975631 0.00046701 0)
(0.0974653 0.000491327 0)
(0.0973644 0.000516874 0)
(0.0972605 0.000543708 0)
(0.0971535 0.00057189 0)
(0.0970433 0.000601485 0)
(0.0969298 0.000632561 0)
(0.0968129 0.000665192 0)
(0.0966925 0.000699457 0)
(0.0965687 0.00073544 0)
(0.0964412 0.000773231 0)
(0.09631 0.000812929 0)
(0.0961751 0.000854636 0)
(0.0960363 0.000898467 0)
(0.0958936 0.000944551 0)
(0.095747 0.00099307 0)
(0.0955963 0.00104439 0)
(0.0952501 8.736e-05 -4.84863e-24)
(0.0950731 9.23916e-05 -4.93803e-24)
(0.0948864 9.77534e-05 -3.24968e-26)
(0.0946893 0.000103384 1.51544e-23)
(0.0944814 0.000109424 -5.02079e-24)
(0.094262 0.000115759 -5.16102e-24)
(0.0940307 0.000122342 -1.58746e-23)
(0.0937871 0.000129145 1.57658e-23)
(0.0935308 0.000136151 5.38918e-24)
(0.0932615 0.000143361 0)
(0.0929788 0.000150813 5.56084e-24)
(0.0926823 0.000158591 -5.65332e-24)
(0.0923714 0.000166826 4.6463e-23)
(0.092045 0.000175701 -9.95497e-23)
(0.0917019 0.000185438 5.31935e-23)
(0.0913402 0.000196287 4.30571e-23)
(0.0909578 0.000208512 5.52517e-23)
(0.0905518 0.000222368 -6.32264e-24)
(0.0901191 0.000238104 6.45732e-24)
(0.0896561 0.000255959 -6.60001e-24)
(0.0891587 0.000276158 0)
(0.0886224 0.000298928 6.91221e-24)
(0.0880425 0.000324506 -7.08322e-24)
(0.0874137 0.000353162 0)
(0.0867303 0.000385215 -7.45943e-24)
(0.0859858 0.000421062 0)
(0.0851731 0.000461189 -7.8881e-24)
(0.0842842 0.000506207 -1.32189e-22)
(0.0833097 0.000556869 1.40366e-22)
(0.0822388 0.000614108 -1.4095e-22)
(0.0810591 0.000679079 1.40735e-22)
(0.0797556 0.000753206 0)
(0.0783108 0.000838259 0)
(0.0767035 0.000936435 1.72853e-22)
(0.0749084 0.00105047 -1.6264e-22)
(0.0728949 0.00118376 0)
(0.0706254 0.00134049 0)
(0.0680548 0.00152569 0)
(0.065128 0.00174519 0)
(0.0617792 0.0020052 0)
(0.0579318 0.00231136 0)
(0.0535004 0.00266674 0)
(0.0483977 0.00306833 0)
(0.0425485 0.00350141 0)
(0.0359179 0.00393107 -1.63048e-23)
(0.0285555 0.00429027 -5.61599e-22)
(0.0206472 0.00446557 5.60757e-22)
(0.0125992 0.00428244 6.10759e-22)
(0.00541659 0.00347337 -6.09842e-22)
(0.00110931 0.00162409 0)
(0.0952593 0.000261637 -4.90215e-24)
(0.0950827 0.000276654 -9.98865e-24)
(0.0948964 0.000292628 -5.22554e-24)
(0.0946998 0.000309669 4.88183e-24)
(0.0944925 0.000327729 -5.08756e-24)
(0.0942737 0.000346653 3.64232e-23)
(0.094043 0.000366344 -5.72009e-23)
(0.0938 0.000386718 5.30821e-24)
(0.0935444 0.000407716 7.07803e-23)
(0.0932756 0.000429346 -9.77602e-23)
(0.0929935 0.000451724 -9.53568e-23)
(0.0926974 0.000475096 8.40251e-23)
(0.0923867 0.000499861 0)
(0.0920605 0.000526558 5.85888e-24)
(0.0917173 0.00055585 -1.78955e-23)
(0.0913555 0.000588481 -2.02778e-22)
(0.0909729 0.000625228 1.94508e-22)
(0.0905667 0.000666856 -2.06768e-22)
(0.0901338 0.000714104 -1.94008e-23)
(0.0896707 0.00076768 6.61449e-24)
(0.0891735 0.000828267 0)
(0.0886377 0.000896537 -6.93011e-24)
(0.0880587 0.000973206 -2.23228e-22)
(0.0874312 0.00105908 4.66436e-22)
(0.0867496 0.00115514 2.57185e-22)
(0.0860076 0.00126255 -4.85149e-22)
(0.0851983 0.00138279 5.22378e-22)
(0.0843135 0.00151769 -5.30068e-22)
(0.0833443 0.0016695 -8.41227e-24)
(0.0822801 0.00184102 0)
(0.0811085 0.0020357 0)
(0.0798152 0.0022578 0)
(0.0783831 0.00251258 0)
(0.0767918 0.0028066 -1.00145e-23)
(0.0750169 0.00314799 -6.8004e-22)
(0.0730289 0.00354685 -2.95081e-23)
(0.0707923 0.00401557 7.07705e-22)
(0.068264 0.00456904 7.72876e-22)
(0.065392 0.00522443 -7.71852e-22)
(0.0621141 0.00599996 -2.57086e-23)
(0.0583578 0.00691197 -2.69133e-23)
(0.0540419 0.00796898 -9.31366e-22)
(0.0490823 0.00916117 9.00645e-22)
(0.0434035 0.0104437 -3.08198e-23)
(0.0369629 0.0117116 1.64188e-23)
(0.0297889 0.0127647 -1.14195e-21)
(0.0220268 0.0132652 1.14159e-21)
(0.0140127 0.0126947 -2.38721e-21)
(0.00661321 0.0102692 2.3473e-21)
(0.00159802 0.00476742 -2.40516e-21)
(0.0952776 0.000434753 -2.90132e-23)
(0.0951017 0.000459693 -1.01575e-23)
(0.0949163 0.00048627 3.924e-23)
(0.0947208 0.000514605 -8.06214e-23)
(0.0945145 0.000544497 1.72458e-22)
(0.0942969 0.000575849 -8.16723e-23)
(0.0940675 0.000608526 1.44535e-26)
(0.0938258 0.000642385 1.05882e-23)
(0.0935715 0.000677334 1.84448e-22)
(0.093304 0.000713395 -1.73501e-22)
(0.0930229 0.000750761 0)
(0.0927277 0.000789847 1.48946e-26)
(0.0924177 0.000831307 0)
(0.0920919 0.000876029 2.01207e-22)
(0.0917489 0.000925098 -1.77356e-22)
(0.091387 0.000979732 -3.81907e-22)
(0.0910042 0.0010412 2.09927e-23)
(0.0905978 0.00111076 -4.01899e-22)
(0.0901648 0.00118961 1.2982e-23)
(0.089702 0.00127893 -4.2984e-22)
(0.0892054 0.00137985 4.43006e-22)
(0.0886709 0.00149349 -4.51082e-22)
(0.0880939 0.00162104 4.6491e-22)
(0.0874694 0.00176387 1.46272e-23)
(0.0867919 0.00192359 -1.50249e-23)
(0.0860553 0.00210219 1.54488e-23)
(0.0852529 0.00230213 -5.17388e-22)
(0.0843769 0.00252644 5.33314e-22)
(0.0834186 0.00277889 5.67575e-22)
(0.082368 0.0030641 -5.50154e-22)
(0.0812133 0.0033878 0)
(0.0799409 0.00375701 0)
(0.0785347 0.00418043 1.93604e-23)
(0.0769759 0.0046688 1.33536e-21)
(0.0752419 0.00523547 3.32828e-23)
(0.0733059 0.00589692 -1.34517e-21)
(0.0711358 0.00667329 0)
(0.0686931 0.00758869 -2.35841e-23)
(0.0659315 0.00867067 1.64648e-21)
(0.0627963 0.00994814 -3.29049e-21)
(0.0592233 0.0114464 3.49606e-21)
(0.0551398 0.0131772 1.1037e-22)
(0.0504676 0.0151216 -1.8233e-21)
(0.0451306 0.0172025 -1.9849e-21)
(0.0390701 0.0192447 2.04562e-21)
(0.0322711 0.0209187 1.57975e-24)
(0.0247964 0.02167 -3.49698e-23)
(0.0168437 0.0206482 2.30492e-21)
(0.00898788 0.0166049 -2.23193e-21)
(0.00253736 0.00763801 -2.23139e-21)
(0.0953049 0.000605999 1.9122e-23)
(0.0951301 0.000640695 -9.69724e-24)
(0.094946 0.000677714 1.99161e-26)
(0.0947519 0.000716983 9.96591e-24)
(0.0945472 0.000758466 -1.99407e-26)
(0.0943314 0.000802039 1.65315e-22)
(0.094104 0.000847515 -3.1229e-22)
(0.0938644 0.00089471 1.67787e-22)
(0.093612 0.000943518 -1.07325e-23)
(0.0933465 0.000993985 1.98183e-22)
(0.0930673 0.0010464 -1.76276e-22)
(0.0927737 0.00110133 -3.65389e-22)
(0.0924649 0.00115968 7.37556e-22)
(0.09214 0.00122268 -7.51653e-22)
(0.0917977 0.0012918 7.66451e-22)
(0.0914362 0.0013687 -7.69863e-22)
(0.0910537 0.00145511 -4.07456e-22)
(0.0906477 0.00155273 2.23753e-26)
(0.0902153 0.00166323 0)
(0.0897535 0.00178822 -4.1864e-22)
(0.0892587 0.00192926 4.31788e-22)
(0.0887268 0.00208792 0)
(0.0881536 0.00226589 -9.31554e-22)
(0.0875344 0.00246507 9.16445e-22)
(0.0868639 0.00268776 1.51679e-23)
(0.0861363 0.00293675 -3.52598e-26)
(0.0853452 0.00321549 1.6032e-23)
(0.0844833 0.00352823 0)
(0.0835425 0.0038802 -5.10493e-26)
(0.0825134 0.00427785 0)
(0.0813851 0.00472909 -1.82117e-23)
(0.0801454 0.00524363 1.23207e-21)
(0.0787796 0.00583341 -1.23173e-21)
(0.0772711 0.00651319 -2.03909e-23)
(0.0756003 0.00730116 4.22517e-23)
(0.0737441 0.00821968 -1.45886e-21)
(0.0716757 0.00929591 1.41351e-21)
(0.0693633 0.0105621 2.39919e-23)
(0.0667697 0.0120546 -3.65233e-25)
(0.0638509 0.013811 2.57035e-23)
(0.0605553 0.0158626 -1.77053e-21)
(0.0568227 0.0182211 3.58399e-21)
(0.0525837 0.0208547 -1.87075e-21)
(0.047761 0.0236517 1.94539e-21)
(0.0422721 0.026367 -2.03665e-21)
(0.0360356 0.0285503 -4.06327e-21)
(0.0289843 0.0294499 8.29237e-21)
(0.0211087 0.0279032 -4.19945e-21)
(0.0125901 0.0222409 0)
(0.00393314 0.010111 -3.94043e-21)
(0.095341 0.000774631 -9.48473e-24)
(0.0951676 0.000818759 -3.87129e-23)
(0.0949851 0.000865805 1.17311e-22)
(0.0947929 0.000915757 -1.58325e-22)
(0.0945905 0.000968562 6.97145e-23)
(0.0943772 0.00102407 1.02131e-23)
(0.0941524 0.00108209 -1.03778e-23)
(0.0939156 0.0011424 -2.51255e-26)
(0.0936661 0.00120492 1.07304e-23)
(0.0934034 0.00126973 -2.18136e-23)
(0.0931269 0.00133721 -3.58636e-22)
(0.0928358 0.00140811 3.70123e-22)
(0.0925292 0.00148356 -3.611e-22)
(0.0922062 0.00156509 3.72762e-22)
(0.0918654 0.00165453 0)
(0.0915054 0.00175394 -2.52494e-26)
(0.0911243 0.00186548 0)
(0.0907198 0.00199125 -4.01745e-22)
(0.0902894 0.00213334 4.27849e-22)
(0.0898302 0.00229378 -1.34367e-23)
(0.0893389 0.00247453 -9.05398e-22)
(0.088812 0.00267761 8.92032e-22)
(0.0882453 0.0029052 -1.45028e-23)
(0.0876345 0.00315976 0)
(0.0869747 0.00344427 0)
(0.0862606 0.00376232 -1.03949e-21)
(0.0854862 0.00411835 1.00791e-21)
(0.0846449 0.00451778 0)
(0.0837292 0.00496731 -3.4593e-23)
(0.0827308 0.0054751 0)
(0.0816401 0.00605115 1.85313e-23)
(0.0804463 0.00670768 -1.91155e-23)
(0.0791372 0.00745965 -1.99131e-23)
(0.0776989 0.00832544 2.05502e-23)
(0.0761156 0.00932754 1.35403e-21)
(0.0743695 0.0104934 -1.39748e-21)
(0.0724406 0.0118562 3.04622e-21)
(0.0703063 0.0134545 -3.04824e-21)
(0.0679411 0.0153316 3.24763e-21)
(0.0653154 0.0175307 1.01017e-22)
(0.0623944 0.0200859 -3.43003e-21)
(0.0591344 0.0230049 -2.75237e-23)
(0.0554782 0.0262397 1.32268e-24)
(0.0513474 0.0296429 1.76995e-24)
(0.0466302 0.0329043 2.36136e-24)
(0.041161 0.0354688 -6.01137e-23)
(0.0346991 0.0364224 -2.75983e-23)
(0.0269447 0.0343363 -2.61882e-23)
(0.0175672 0.0271382 0)
(0.0058104 0.0121761 8.28189e-24)
(0.0953854 0.000939943 -4.70669e-23)
(0.0952137 0.000993219 2.83122e-23)
(0.0950334 0.00105003 9.67709e-24)
(0.0948437 0.0011104 1.48423e-22)
(0.0946441 0.00117427 -1.48485e-22)
(0.094434 0.0012415 1.53425e-22)
(0.0942126 0.00131187 -3.40474e-22)
(0.0939795 0.0013852 4.84385e-22)
(0.0937338 0.00146142 -3.39225e-22)
(0.093475 0.00154066 -3.51481e-22)
(0.0932022 0.00162343 -1.74296e-23)
(0.0929147 0.00171064 7.13128e-22)
(0.0926116 0.00180367 -7.50741e-22)
(0.0922918 0.00190432 3.50068e-22)
(0.0919541 0.00201476 3.77384e-22)
(0.0915971 0.00213742 3.94137e-22)
(0.0912191 0.00227482 -2.99987e-23)
(0.0908181 0.00242945 8.03313e-22)
(0.0903918 0.00260379 8.28902e-22)
(0.0899377 0.00280024 2.06392e-23)
(0.0894529 0.00302119 -8.78477e-22)
(0.0889339 0.0032691 0)
(0.0883774 0.00354663 0)
(0.0877792 0.00385687 -9.78442e-22)
(0.087135 0.00420347 9.64389e-22)
(0.0864401 0.00459087 1.03881e-21)
(0.085689 0.00502452 -1.04035e-21)
(0.0848761 0.00551106 0)
(0.0839947 0.00605861 1.16205e-21)
(0.0830379 0.00667705 -1.1643e-21)
(0.0819977 0.00737838 0)
(0.0808654 0.00817722 -2.52349e-21)
(0.0796315 0.0090913 2.54685e-21)
(0.0782858 0.0101422 -2.10687e-23)
(0.0768172 0.0113559 -2.82379e-21)
(0.0752144 0.012764 2.84997e-21)
(0.0734659 0.0144034 0)
(0.0715604 0.0163168 3.21476e-21)
(0.069487 0.0185495 -3.19498e-21)
(0.0672343 0.0211447 2.59927e-23)
(0.0647881 0.0241313 3.55183e-21)
(0.0621266 0.0275033 -7.1365e-21)
(0.0592096 0.0311872 1.0299e-23)
(0.0559614 0.0349925 3.05391e-23)
(0.052242 0.0385459 3.72742e-21)
(0.0477989 0.0412083 4.12859e-24)
(0.0421976 0.0419585 -3.20131e-21)
(0.0347668 0.0392089 3.28178e-21)
(0.0244086 0.0306587 0)
(0.00844327 0.0135215 2.86578e-23)
(0.0954378 0.00110114 9.27264e-24)
(0.0952686 0.00116299 8.53588e-23)
(0.095091 0.00122903 -7.61203e-23)
(0.0949045 0.00129927 9.76199e-24)
(0.0947085 0.00137368 1.49935e-22)
(0.0945023 0.00145213 -1.50178e-22)
(0.0942853 0.00153441 -3.2134e-22)
(0.0940567 0.00162037 5.0108e-24)
(0.0938159 0.00170997 -5.75812e-24)
(0.0935621 0.00180345 3.56447e-22)
(0.0932945 0.00190143 -3.47747e-22)
(0.0930122 0.002005 7.377e-22)
(0.0927142 0.00211578 -3.67473e-22)
(0.0923996 0.00223585 1.18673e-23)
(0.0920671 0.00236769 1.21379e-23)
(0.0917155 0.00251409 8.02344e-22)
(0.0913433 0.00267789 -4.88416e-24)
(0.0909487 0.00286197 8.37161e-22)
(0.0905298 0.00306916 1.33716e-23)
(0.0900844 0.00330224 0)
(0.0896099 0.00356402 0)
(0.0891035 0.00385744 -9.38042e-22)
(0.0885621 0.00418571 9.40413e-22)
(0.0879823 0.00455256 0)
(0.0873603 0.00496244 1.58143e-23)
(0.0866921 0.00542072 0)
(0.0859733 0.00593396 -1.09231e-21)
(0.085199 0.00651013 2.22406e-21)
(0.0843641 0.00715892 -1.13182e-21)
(0.083463 0.00789205 -2.40006e-21)
(0.08249 0.00872368 -8.1706e-23)
(0.0814389 0.00967089 -8.65994e-23)
(0.0803035 0.0107543 -9.14987e-23)
(0.0790778 0.0119985 2.70334e-21)
(0.0777566 0.0134329 2.90669e-21)
(0.0763356 0.0150921 -2.91361e-21)
(0.0748128 0.0170156 0)
(0.0731892 0.0192464 3.24098e-21)
(0.0714694 0.0218268 -3.2485e-21)
(0.0696612 0.0247906 -3.46711e-21)
(0.0677732 0.0281472 3.44804e-21)
(0.0658078 0.0318568 2.82899e-23)
(0.0637465 0.0357934 3.49708e-21)
(0.0615249 0.0396936 -1.06128e-22)
(0.0589913 0.0430953 -3.46291e-21)
(0.0558344 0.0452753 2.64497e-23)
(0.0514813 0.0451794 0)
(0.0449755 0.0412836 -2.09092e-23)
(0.0342773 0.031515 -9.41819e-22)
(0.0136189 0.0134516 4.75527e-22)
(-0.000238019 0.00025704 0)
(-0.000747087 0.000276824 2.81256e-22)
(-0.00104609 2.70888e-05 -2.81678e-22)
(-0.000754035 -0.000358898 -2.59516e-22)
(0.000281109 -0.000788321 2.59906e-22)
(0.00208472 -0.00120927 -7.35044e-24)
(0.0046075 -0.00159053 0)
(0.00776296 -0.00191384 0)
(0.0114418 -0.00217085 0)
(0.0155257 -0.00235996 0)
(0.0198976 -0.00248398 0)
(0.0244471 -0.00254853 0)
(0.0290749 -0.00256087 0)
(0.0336946 -0.00252901 0)
(0.0382337 -0.00246109 0)
(0.0426334 -0.00236496 1.60267e-23)
(0.0468485 -0.00224788 -1.51645e-23)
(0.0508457 -0.00211636 0)
(0.0546027 -0.00197609 0)
(0.0581067 -0.0018319 -3.55532e-24)
(0.0613528 -0.00168777 3.56075e-24)
(0.0643431 -0.00154687 -9.82255e-25)
(0.0670844 -0.00141161 5.97566e-26)
(0.0695875 -0.00128371 0)
(0.071866 -0.00116435 8.41479e-27)
(0.0739359 -0.00105417 0)
(0.0758134 -0.00095346 0)
(0.0775151 -0.000862112 0)
(0.0790576 -0.000779782 2.39044e-26)
(0.0804566 -0.000705956 0)
(0.081727 -0.000640008 -5.3726e-26)
(0.0828823 -0.000581254 6.98886e-26)
(0.0839351 -0.000528989 -8.60308e-26)
(0.0848964 -0.000482523 9.47064e-25)
(0.0857763 -0.000441198 -9.63379e-25)
(0.0865836 -0.000404407 -9.46188e-25)
(0.0873262 -0.000371601 2.11527e-24)
(0.0880108 -0.000342286 -1.18239e-24)
(0.0886435 -0.000316031 -1.67204e-25)
(0.0892296 -0.000292459 1.77245e-25)
(0.0897737 -0.000271241 0)
(0.09028 -0.000252097 1.94388e-25)
(0.090752 -0.000234784 -1.01531e-24)
(0.091193 -0.000219095 1.02293e-24)
(0.0916058 -0.000204851 -2.13494e-25)
(0.0919929 -0.000191899 6.57104e-25)
(0.0923566 -0.00018011 -2.17011e-25)
(0.0926991 -0.000169367 -4.52582e-25)
(0.0930221 -0.00015957 2.26964e-25)
(0.0933273 -0.000150629 -2.31324e-25)
(-0.000258618 0.000728634 -1.11832e-21)
(-0.000682551 0.000732182 -1.18229e-21)
(-0.000726043 -1.75024e-05 1.16492e-21)
(-0.000134028 -0.0011533 -5.16028e-22)
(0.00119304 -0.00241189 5.17781e-22)
(0.00324256 -0.00364779 7.40128e-24)
(0.00595399 -0.00476671 -1.38468e-23)
(0.00923898 -0.00571509 -3.75075e-22)
(0.0129909 -0.00646874 3.63195e-22)
(0.0170979 -0.00702294 -9.34555e-24)
(0.0214507 -0.00738589 -7.9143e-24)
(0.0259474 -0.00757407 1.84617e-22)
(0.030497 -0.00760872 -1.84863e-22)
(0.0350208 -0.00751332 -1.17792e-22)
(0.0394529 -0.00731175 2.66617e-23)
(0.0437403 -0.00702702 9.14098e-23)
(0.0478422 -0.00668046 -8.90898e-25)
(0.051729 -0.00629125 -1.47494e-24)
(0.0553809 -0.00587609 0)
(0.0587871 -0.00544922 0)
(0.0619437 -0.00502236 0)
(0.0648533 -0.00460488 -1.13353e-25)
(0.0675231 -0.00420387 3.4768e-24)
(0.069963 -0.00382455 -3.90115e-24)
(0.0721868 -0.00347039 1.08965e-24)
(0.0742096 -0.0031433 -6.64404e-25)
(0.076047 -0.00284408 -9.87197e-25)
(0.0777145 -0.00257252 5.52192e-25)
(0.0792282 -0.00232762 -2.3966e-26)
(0.0806029 -0.0021079 -1.14434e-25)
(0.0818529 -0.00191152 5.38433e-26)
(0.0829912 -0.00173646 -2.39059e-25)
(0.0840296 -0.00158066 3.02291e-24)
(0.0849788 -0.00144207 -6.85083e-24)
(0.0858485 -0.00131876 3.47867e-24)
(0.0866472 -0.00120894 -4.10284e-25)
(0.0873824 -0.00111097 1.44164e-25)
(0.0880606 -0.0010234 0)
(0.0886879 -0.000944956 -2.96405e-24)
(0.0892693 -0.000874508 2.61136e-24)
(0.0898093 -0.000811088 2.68516e-24)
(0.0903119 -0.000753858 -3.66268e-24)
(0.0907807 -0.000702096 2.01535e-25)
(0.0912188 -0.000655185 1.06187e-24)
(0.091629 -0.000612592 -1.91341e-24)
(0.0920138 -0.000573862 -2.18131e-25)
(0.0923754 -0.000538602 -1.56943e-24)
(0.0927159 -0.00050647 -2.40923e-25)
(0.0930372 -0.000477163 4.51407e-25)
(0.0933408 -0.000450405 6.91891e-25)
(-0.000297198 0.00106181 -1.1963e-21)
(-0.000528318 0.0009141 1.25807e-21)
(-4.31555e-05 -0.000322601 -1.22042e-21)
(0.00113075 -0.00214007 -1.77913e-23)
(0.00300473 -0.00415623 -7.64953e-25)
(0.00550778 -0.00613256 -9.44989e-22)
(0.00856506 -0.00791833 9.76099e-22)
(0.0120831 -0.009431 7.80945e-22)
(0.0159617 -0.0106327 -8.7756e-23)
(0.0201019 -0.0115158 -1.23495e-21)
(0.02441 -0.0120931 1.06615e-21)
(0.0288004 -0.0123906 -4.76878e-22)
(0.0331976 -0.012442 -5.94215e-24)
(0.037537 -0.0122846 0)
(0.0417652 -0.0119564 2.09343e-22)
(0.0458395 -0.0114942 -4.99636e-23)
(0.0497275 -0.0109321 -1.56552e-22)
(0.0534059 -0.0103007 3.28458e-24)
(0.0568599 -0.00962704 0)
(0.0600818 -0.00893387 0)
(0.0630699 -0.00824016 1.63431e-23)
(0.0658276 -0.007561 -1.5829e-23)
(0.068362 -0.00690798 -7.54666e-24)
(0.0706834 -0.00628959 7.91604e-24)
(0.0728034 -0.00571163 2.17407e-25)
(0.074737 -0.00517737 -1.78996e-25)
(0.0764979 -0.004688 1.60724e-25)
(0.0781005 -0.00424334 -3.50438e-24)
(0.0795592 -0.0038419 3.6647e-24)
(0.0808876 -0.00348133 -4.56334e-24)
(0.0820985 -0.00315872 4.86014e-24)
(0.0832039 -0.00287085 1.697e-25)
(0.0842147 -0.00261439 7.26279e-24)
(0.0851406 -0.00238607 -1.518e-23)
(0.0859905 -0.00218275 8.39366e-24)
(0.0867724 -0.00200154 5.12081e-24)
(0.0874932 -0.00183978 -4.51663e-24)
(0.0881591 -0.00169511 0)
(0.0887757 -0.00156545 -1.93522e-26)
(0.0893478 -0.00144895 0)
(0.0898797 -0.00134404 6.30763e-24)
(0.0903752 -0.00124934 -5.93182e-24)
(0.0908377 -0.00116367 4.22247e-25)
(0.0912701 -0.00108601 -1.06959e-26)
(0.0916753 -0.00101548 3.50867e-24)
(0.0920555 -0.000951331 -6.65187e-24)
(0.092413 -0.000892921 3.57536e-24)
(0.0927498 -0.00083968 -1.84362e-24)
(0.0930675 -0.000791105 1.377e-24)
(0.0933678 -0.000746726 4.59119e-25)
(-0.000306299 0.00115602 -2.67678e-21)
(-0.000170719 0.000734401 0)
(0.00111517 -0.000967804 2.55378e-21)
(0.00309137 -0.00339563 -4.99909e-21)
(0.00568986 -0.00606406 2.46192e-21)
(0.00879351 -0.00866191 1.00051e-21)
(0.0122959 -0.0110054 -1.05076e-21)
(0.0161021 -0.0129908 8.32331e-22)
(0.0201252 -0.0145687 -1.57385e-21)
(0.024286 -0.0157284 7.29651e-22)
(0.0285128 -0.0164858 9.4879e-24)
(0.0327425 -0.016874 7.1215e-25)
(0.0369205 -0.0169365 6.04391e-24)
(0.041001 -0.0167219 -3.04673e-22)
(0.0449466 -0.0162798 2.95338e-22)
(0.048728 -0.0156585 6.68957e-24)
(0.0523233 -0.014903 -2.38975e-24)
(0.0557178 -0.014054 1.13346e-22)
(0.0589025 -0.0131472 -1.1297e-22)
(0.0618737 -0.012213 -1.34131e-24)
(0.0646324 -0.0112768 0)
(0.0671831 -0.0103588 2.56495e-25)
(0.0695335 -0.00947477 0)
(0.071692 -0.00863628 4.83101e-25)
(0.0736709 -0.00785136 1.71512e-25)
(0.0754814 -0.00712465 1.80691e-25)
(0.0771371 -0.006458 -1.37385e-23)
(0.0786498 -0.00585124 1.36944e-23)
(0.0800321 -0.00530259 0)
(0.0812959 -0.00480902 -7.02262e-24)
(0.0824521 -0.00436675 7.38287e-24)
(0.0835114 -0.00397155 0)
(0.084483 -0.00361899 -5.71514e-26)
(0.0853759 -0.00330473 -9.73349e-24)
(0.0861977 -0.00302456 1.99097e-23)
(0.0869555 -0.00277459 -2.08299e-23)
(0.0876558 -0.00255125 2.20589e-23)
(0.088304 -0.00235135 -2.31466e-23)
(0.0889052 -0.00217206 1.18193e-23)
(0.0894638 -0.00201088 6.39536e-24)
(0.089984 -0.00186565 -5.58177e-24)
(0.0904691 -0.00173449 -4.28956e-25)
(0.0909223 -0.00161579 -6.92114e-24)
(0.0913466 -0.00150816 1.48939e-23)
(0.0917443 -0.00141038 -7.09081e-24)
(0.0921179 -0.00132142 1.15714e-26)
(0.0924694 -0.0012404 4.54225e-25)
(0.0928006 -0.00116652 -9.15078e-27)
(0.0931132 -0.00109908 -4.63366e-25)
(0.0934088 -0.00103741 9.39955e-25)
(-0.000146551 0.000967052 -2.42361e-24)
(0.000641713 0.000164451 -2.53481e-23)
(0.0028971 -0.0020118 -2.37916e-23)
(0.00582539 -0.00494889 -2.22364e-23)
(0.00925177 -0.00810951 -4.01189e-23)
(0.0130082 -0.0111713 -1.08944e-24)
(0.0169718 -0.0139357 1.63528e-23)
(0.0210564 -0.0162836 -1.566e-23)
(0.0251959 -0.0181555 -1.39382e-23)
(0.0293361 -0.0195361 1.38899e-21)