/*--------------------------------*- C++ -*----------------------------------*\
| =========                 |                                                 |
| \\      /  F ield         | OpenFOAM: The Open Source CFD Toolbox           |
|  \\    /   O peration     | Version:  2412                                  |
|   \\  /    A nd           | Website:  www.openfoam.com                      |
|    \\/     M anipulation  |                                                 |
\*---------------------------------------------------------------------------*/
FoamFile
{
    version     2.0;
    format      ascii;
    arch        "LSB;label=32;scalar=64";
    class       volVectorField;
    location    "8";
    object      vorticity;
}
// * * * * * * * * * * * * * * * * * * * * * * * * * * * * * * * * * * * * * //

dimensions      [0 0 -1 0 0 0 0];

internalField   nonuniform List<vector> 
63420
(
(0 0 6.77662e-06)
(0 0 2.28169e-05)
(0 0 3.99402e-05)
(0 0 3.44847e-05)
(0 0 2.4459e-06)
(0 0 -3.84034e-05)
(0 0 -6.77439e-05)
(0 0 -7.70164e-05)
(0 0 -6.96674e-05)
(0 0 -5.41207e-05)
(0 0 -3.76928e-05)
(0 0 -2.43227e-05)
(0 0 -1.50385e-05)
(0 0 -9.28971e-06)
(0 0 -6.03949e-06)
(0 0 -4.34001e-06)
(0 0 -3.51538e-06)
(0 0 -3.14813e-06)
(0 0 -3.00508e-06)
(0 0 -2.96561e-06)
(0 0 -2.97112e-06)
(0 0 -2.99448e-06)
(0 0 -3.0237e-06)
(0 0 -3.05359e-06)
(0 0 -3.08215e-06)
(0 0 -3.10859e-06)
(0 0 -3.13263e-06)
(0 0 -3.154e-06)
(0 0 -3.17244e-06)
(0 0 -3.1876e-06)
(0 0 -3.19922e-06)
(0 0 -3.20707e-06)
(0 0 -3.21102e-06)
(0 0 -3.21094e-06)
(0 0 -3.2067e-06)
(0 0 -3.1981e-06)
(0 0 -3.18482e-06)
(0 0 -3.16651e-06)
(0 0 -3.14273e-06)
(0 0 -3.11302e-06)
(0 0 -3.07687e-06)
(0 0 -3.03378e-06)
(0 0 -2.98316e-06)
(0 0 -2.92434e-06)
(0 0 -2.85651e-06)
(0 0 -2.77867e-06)
(0 0 -2.68972e-06)
(0 0 -2.58861e-06)
(0 0 -2.47457e-06)
(0 0 -2.3466e-06)
(0 0 -2.19902e-06)
(0 0 -2.00138e-06)
(0 0 -1.6263e-06)
(0 0 -6.15013e-07)
(0 4.81113e-23 2.53236e-06)
(0 0 2.02852e-05)
(0 0 6.79397e-05)
(0 0 0.000119048)
(0 0 0.000103301)
(0 0 8.54715e-06)
(0 0 -0.000112626)
(0 0 -0.00019989)
(0 0 -0.000227715)
(0 0 -0.000206208)
(0 0 -0.000160308)
(0 0 -0.000111714)
(0 0 -7.21322e-05)
(0 0 -4.46327e-05)
(0 0 -2.7598e-05)
(0 0 -1.79623e-05)
(0 0 -1.29203e-05)
(0 0 -1.04709e-05)
(0 0 -9.37827e-06)
(0 0 -8.952e-06)
(0 0 -8.83463e-06)
(0 0 -8.85201e-06)
(0 0 -8.92336e-06)
(0 0 -9.01276e-06)
(0 0 -9.10479e-06)
(0 0 -9.19309e-06)
(0 0 -9.27507e-06)
(0 0 -9.34956e-06)
(0 0 -9.41581e-06)
(0 0 -9.47314e-06)
(0 0 -9.52085e-06)
(0 0 -9.55832e-06)
(0 0 -9.58493e-06)
(0 0 -9.60016e-06)
(0 0 -9.60348e-06)
(0 0 -9.59432e-06)
(0 0 -9.57203e-06)
(0 0 -9.53579e-06)
(0 0 -9.48468e-06)
(0 0 -9.41759e-06)
(0 0 -9.3333e-06)
(0 0 -9.23042e-06)
(0 0 -9.10736e-06)
(0 0 -8.96227e-06)
(0 0 -8.79291e-06)
(0 0 -8.59658e-06)
(0 0 -8.37011e-06)
(0 0 -8.11007e-06)
(0 0 -7.81321e-06)
(0 0 -7.47716e-06)
(0 0 -7.09901e-06)
(0 0 -6.66244e-06)
(0 0 -6.07978e-06)
(0 0 -4.98227e-06)
(0 0 -2.03752e-06)
(0 4.85831e-23 7.12058e-06)
(0 0 3.36675e-05)
(0 0 0.000111731)
(0 0 0.00019634)
(0 0 0.000172232)
(0 0 1.85873e-05)
(0 0 -0.000179243)
(0 0 -0.000322547)
(0 0 -0.000369114)
(0 0 -0.000335018)
(0 0 -0.000260795)
(0 0 -0.000181884)
(0 0 -0.000117478)
(0 0 -7.26787e-05)
(0 0 -4.49045e-05)
(0 0 -2.91843e-05)
(0 0 -2.09543e-05)
(0 0 -1.69544e-05)
(0 0 -1.51697e-05)
(0 0 -1.44736e-05)
(0 0 -1.42827e-05)
(0 0 -1.43125e-05)
(0 0 -1.44309e-05)
(0 0 -1.45791e-05)
(0 0 -1.47319e-05)
(0 0 -1.48788e-05)
(0 0 -1.50156e-05)
(0 0 -1.51402e-05)
(0 0 -1.52513e-05)
(0 0 -1.5348e-05)
(0 0 -1.54292e-05)
(0 0 -1.54939e-05)
(0 0 -1.55413e-05)
(0 0 -1.55704e-05)
(0 0 -1.55803e-05)
(0 0 -1.55701e-05)
(0 0 -1.55387e-05)
(0 0 -1.54849e-05)
(0 0 -1.5407e-05)
(0 0 -1.53036e-05)
(0 0 -1.51726e-05)
(0 0 -1.50119e-05)
(0 0 -1.48188e-05)
(0 0 -1.45904e-05)
(0 0 -1.4323e-05)
(0 0 -1.40121e-05)
(0 0 -1.36525e-05)
(0 0 -1.32389e-05)
(0 0 -1.27659e-05)
(0 0 -1.22299e-05)
(0 0 -1.16269e-05)
(0 0 -1.09331e-05)
(0 0 -1.00154e-05)
(0 0 -8.30482e-06)
(0 0 -3.72542e-06)
(0 2.86842e-22 1.05655e-05)
(0 0 4.68333e-05)
(0 0 0.000153383)
(0 0 0.00027075)
(0 0 0.000241466)
(0 0 3.51395e-05)
(0 0 -0.000233427)
(0 0 -0.000429757)
(0 0 -0.000495404)
(0 0 -0.000451278)
(0 0 -0.00035203)
(0 0 -0.000245793)
(0 0 -0.000158809)
(0 0 -9.81883e-05)
(0 0 -6.05563e-05)
(0 0 -3.92363e-05)
(0 0 -2.80666e-05)
(0 0 -2.26351e-05)
(0 0 -2.02109e-05)
(0 0 -1.92657e-05)
(0 0 -1.90075e-05)
(0 0 -1.90495e-05)
(0 0 -1.92124e-05)
(0 0 -1.94162e-05)
(0 0 -1.96268e-05)
(0 0 -1.98297e-05)
(0 0 -2.00191e-05)
(0 0 -2.01923e-05)
(0 0 -2.03475e-05)
(0 0 -2.04834e-05)
(0 0 -2.05987e-05)
(0 0 -2.06923e-05)
(0 0 -2.07628e-05)
(0 0 -2.08091e-05)
(0 0 -2.083e-05)
(0 0 -2.08241e-05)
(0 0 -2.07901e-05)
(0 0 -2.07263e-05)
(0 0 -2.06308e-05)
(0 0 -2.05013e-05)
(0 0 -2.03354e-05)
(0 0 -2.01301e-05)
(0 0 -1.98821e-05)
(0 0 -1.95872e-05)
(0 0 -1.92406e-05)
(0 0 -1.88363e-05)
(0 0 -1.83675e-05)
(0 0 -1.7827e-05)
(0 0 -1.72078e-05)
(0 0 -1.65057e-05)
(0 0 -1.57168e-05)
(0 0 -1.48149e-05)
(0 0 -1.36406e-05)
(0 0 -1.14918e-05)
(0 0 -5.76361e-06)
(0 -1.88376e-22 1.22271e-05)
(0 0 5.97001e-05)
(0 0 0.000192187)
(0 0 0.000341396)
(0 0 0.000311241)
(0 0 6.05409e-05)
(0 0 -0.000270882)
(0 0 -0.000516254)
(0 0 -0.00060147)
(0 0 -0.000550752)
(0 0 -0.000430887)
(0 0 -0.000301314)
(0 0 -0.00019474)
(0 0 -0.000120264)
(0 0 -7.39446e-05)
(0 0 -4.76669e-05)
(0 0 -3.38853e-05)
(0 0 -2.71778e-05)
(0 0 -2.41817e-05)
(0 0 -2.30128e-05)
(0 0 -2.26931e-05)
(0 0 -2.27451e-05)
(0 0 -2.29472e-05)
(0 0 -2.32004e-05)
(0 0 -2.34626e-05)
(0 0 -2.37159e-05)
(0 0 -2.39532e-05)
(0 0 -2.41708e-05)
(0 0 -2.43669e-05)
(0 0 -2.45397e-05)
(0 0 -2.46879e-05)
(0 0 -2.481e-05)
(0 0 -2.49045e-05)
(0 0 -2.497e-05)
(0 0 -2.5005e-05)
(0 0 -2.50081e-05)
(0 0 -2.49773e-05)
(0 0 -2.49108e-05)
(0 0 -2.48063e-05)
(0 0 -2.46611e-05)
(0 0 -2.44723e-05)
(0 0 -2.42363e-05)
(0 0 -2.3949e-05)
(0 0 -2.36054e-05)
(0 0 -2.31998e-05)
(0 0 -2.27249e-05)
(0 0 -2.21727e-05)
(0 0 -2.15343e-05)
(0 0 -2.0802e-05)
(0 0 -1.99712e-05)
(0 0 -1.90398e-05)
(0 0 -1.79855e-05)
(0 0 -1.66486e-05)
(0 0 -1.42864e-05)
(0 0 -8.06086e-06)
(0 9.29999e-23 1.17002e-05)
(0 0 7.21809e-05)
(0 0 0.000227601)
(0 0 0.000407628)
(0 0 0.000381827)
(0 0 9.67253e-05)
(0 0 -0.000288148)
(0 0 -0.000577848)
(0 0 -0.000683265)
(0 0 -0.000630096)
(0 0 -0.000494896)
(0 0 -0.000346761)
(0 0 -0.000224168)
(0 0 -0.000138181)
(0 0 -8.45675e-05)
(0 0 -5.40951e-05)
(0 0 -3.80894e-05)
(0 0 -3.02887e-05)
(0 0 -2.67989e-05)
(0 0 -2.54338e-05)
(0 0 -2.50574e-05)
(0 0 -2.51144e-05)
(0 0 -2.53468e-05)
(0 0 -2.56396e-05)
(0 0 -2.59436e-05)
(0 0 -2.62383e-05)
(0 0 -2.65149e-05)
(0 0 -2.67696e-05)
(0 0 -2.7e-05)
(0 0 -2.72044e-05)
(0 0 -2.73811e-05)
(0 0 -2.75284e-05)
(0 0 -2.76449e-05)
(0 0 -2.77288e-05)
(0 0 -2.77786e-05)
(0 0 -2.77925e-05)
(0 0 -2.77685e-05)
(0 0 -2.77043e-05)
(0 0 -2.75973e-05)
(0 0 -2.74447e-05)
(0 0 -2.72431e-05)
(0 0 -2.69883e-05)
(0 0 -2.66759e-05)
(0 0 -2.63001e-05)
(0 0 -2.58544e-05)
(0 0 -2.53308e-05)
(0 0 -2.47203e-05)
(0 0 -2.4013e-05)
(0 0 -2.32005e-05)
(0 0 -2.22787e-05)
(0 0 -2.12491e-05)
(0 0 -2.01001e-05)
(0 0 -1.87022e-05)
(0 0 -1.6388e-05)
(0 0 -1.04739e-05)
(0 4.58872e-22 8.647e-06)
(0 0 8.42354e-05)
(0 0 0.000259282)
(0 0 0.000469029)
(0 0 0.000453371)
(0 0 0.000144884)
(0 0 -0.000283065)
(0 0 -0.000611905)
(0 0 -0.000738234)
(0 0 -0.000687191)
(0 0 -0.000542491)
(0 0 -0.00038106)
(0 0 -0.000246382)
(0 0 -0.000151467)
(0 0 -9.20944e-05)
(0 0 -5.82653e-05)
(0 0 -4.046e-05)
(0 0 -3.17646e-05)
(0 0 -2.78642e-05)
(0 0 -2.63307e-05)
(0 0 -2.59e-05)
(0 0 -2.59537e-05)
(0 0 -2.62041e-05)
(0 0 -2.65232e-05)
(0 0 -2.68558e-05)
(0 0 -2.71792e-05)
(0 0 -2.74836e-05)
(0 0 -2.77646e-05)
(0 0 -2.80199e-05)
(0 0 -2.82473e-05)
(0 0 -2.84452e-05)
(0 0 -2.86119e-05)
(0 0 -2.87457e-05)
(0 0 -2.88448e-05)
(0 0 -2.89075e-05)
(0 0 -2.89319e-05)
(0 0 -2.89158e-05)
(0 0 -2.88568e-05)
(0 0 -2.87521e-05)
(0 0 -2.85985e-05)
(0 0 -2.83923e-05)
(0 0 -2.81292e-05)
(0 0 -2.78041e-05)
(0 0 -2.74111e-05)
(0 0 -2.6943e-05)
(0 0 -2.63913e-05)
(0 0 -2.57464e-05)
(0 0 -2.49981e-05)
(0 0 -2.41376e-05)
(0 0 -2.31618e-05)
(0 0 -2.20769e-05)
(0 0 -2.08882e-05)
(0 0 -1.95256e-05)
(0 0 -1.753e-05)
(0 0 -1.28934e-05)
(0 -8.98028e-23 2.51197e-06)
(-1.51328e-23 8.02262e-21 2.21645e-07)
(-1.5531e-22 7.88519e-21 -1.47093e-06)
(3.68384e-23 -2.08354e-22 -4.1386e-06)
(3.376e-23 -2.35588e-20 -8.07314e-06)
(-9.82527e-23 8.06073e-21 -1.3531e-05)
(3.88866e-22 7.91601e-21 -2.06626e-05)
(-8.39035e-22 2.30598e-20 -2.94341e-05)
(3.26843e-22 -2.3453e-20 -3.9545e-05)
(6.6052e-22 -7.53774e-21 -5.03921e-05)
(-9.49812e-22 -3.87025e-24 -6.10807e-05)
(-9.52936e-22 -7.56439e-21 -7.04982e-05)
(8.35754e-22 7.17122e-21 -7.74513e-05)
(5.73588e-22 -5.92473e-20 -8.08411e-05)
(-1.04595e-21 1.27328e-19 -7.98432e-05)
(3.45804e-22 -6.85923e-20 -7.40523e-05)
(-1.32064e-21 -5.17403e-20 -6.36253e-05)
(2.44645e-21 -6.58597e-20 -4.91909e-05)
(-1.94299e-21 7.79454e-21 -3.1909e-05)
(-2.08184e-22 -7.25909e-21 -1.29527e-05)
(8.60669e-23 7.27385e-21 6.21154e-06)
(-3.30164e-24 -1.35043e-22 2.4265e-05)
(-8.14932e-23 -7.02594e-21 4.00303e-05)
(-2.09717e-21 7.10009e-21 5.26416e-05)
(4.409e-21 1.35023e-23 6.15467e-05)
(1.2971e-21 6.90774e-21 6.64813e-05)
(-3.43384e-21 -5.60156e-24 6.741e-05)
(4.95197e-21 8.08373e-21 6.44485e-05)
(-5.68897e-21 1.04544e-19 5.77839e-05)
(6.02372e-22 -1.12309e-19 4.75983e-05)
(-2.12257e-21 1.02893e-19 3.40042e-05)
(2.065e-21 -1.04098e-19 1.69809e-05)
(5.08304e-23 1.40557e-21 -3.69999e-06)
(-6.62791e-23 -1.72868e-21 -2.85922e-05)
(2.76362e-21 -9.91338e-20 -5.88037e-05)
(-8.95619e-21 9.62854e-20 -9.64585e-05)
(-3.38383e-22 -1.62495e-21 -0.000145615)
(6.52545e-21 1.42718e-23 -0.000214029)
(7.11297e-21 1.55568e-23 -0.000316364)
(-7.09021e-21 -1.5507e-23 -0.000479705)
(-2.35715e-22 -5.15533e-25 -0.000752377)
(-2.463e-22 -5.38683e-25 -0.00121692)
(-8.50758e-21 -1.86069e-23 -0.00200725)
(8.21163e-21 1.79597e-23 -0.0033283)
(-2.72323e-22 1.62448e-22 -0.00547373)
(-1.56448e-23 8.40229e-21 -0.0088337)
(-2.63697e-20 5.42644e-20 -0.0138819)
(2.53915e-20 -7.16344e-20 -0.0211269)
(-6.06133e-21 -1.0256e-20 -0.0310121)
(6.65741e-21 2.80119e-20 -0.0437572)
(-2.19826e-20 -6.13832e-21 -0.0590446)
(-2.6947e-22 8.03921e-21 5.56772e-07)
(-1.01644e-22 1.58085e-20 -4.48576e-06)
(3.32296e-22 7.68708e-21 -1.24568e-05)
(-9.28677e-22 -7.90053e-21 -2.42237e-05)
(1.72199e-21 7.52434e-21 -4.05476e-05)
(-5.6185e-22 -5.40033e-20 -6.18859e-05)
(-1.73708e-22 8.58174e-20 -8.81356e-05)
(-6.40036e-23 -9.00729e-21 -0.000118428)
(2.22234e-21 -9.88417e-20 -0.000151008)
(-2.27699e-21 1.39714e-19 -0.000183256)
(-7.5254e-22 1.27585e-19 -0.000211917)
(5.42814e-22 -1.14913e-19 -0.00023349)
(-4.14199e-22 7.77797e-22 -0.000244752)
(2.94732e-21 -7.31593e-21 -0.000243279)
(-2.26598e-21 2.44657e-20 -0.000227903)
(-5.89059e-21 2.42248e-19 -0.000199)
(1.3156e-21 -2.28087e-19 -0.000158678)
(-5.45218e-21 2.44525e-19 -0.00010989)
(-2.65725e-22 1.97202e-20 -5.65194e-05)
(-4.04078e-21 -7.44034e-21 -2.49017e-06)
(4.26113e-21 1.52391e-22 4.81196e-05)
(-4.26015e-21 9.33061e-21 9.18417e-05)
(1.58902e-21 2.1343e-19 0.00012613)
(5.14033e-21 -4.52696e-19 0.000149342)
(4.1452e-21 -2.16517e-19 0.000160666)
(-6.23491e-21 4.38348e-19 0.000159945)
(2.63103e-21 -4.38287e-19 0.000147459)
(-8.42716e-22 4.49889e-19 0.00012368)
(3.45806e-21 1.34806e-21 8.90611e-05)
(-3.90074e-21 -1.02194e-22 4.38319e-05)
(-1.31043e-21 -2.86604e-24 -1.21816e-05)
(0 0 -7.978e-05)
(1.93955e-22 1.00671e-22 -0.000160752)
(1.1622e-20 1.28692e-20 -0.000258569)
(-1.48982e-20 3.7212e-19 -0.000379789)
(-1.65014e-20 -2.44847e-20 -0.00053686)
(1.78138e-20 -3.68045e-19 -0.000753484)
(2.60762e-20 -3.19251e-19 -0.00107438)
(-7.90522e-21 3.41444e-19 -0.00158204)
(-3.29196e-20 2.17139e-21 -0.00242343)
(3.23985e-20 1.83054e-20 -0.00384914)
(-4.26896e-20 2.46664e-19 -0.00626503)
(2.21995e-20 -2.56808e-19 -0.010291)
(-1.92291e-20 1.55818e-20 -0.0168139)
(2.13909e-20 8.35465e-21 -0.0270101)
(-6.32419e-20 1.21269e-19 -0.0423063)
(6.31938e-20 -1.18659e-19 -0.0642311)
(-9.86975e-20 8.93634e-20 -0.0940979)
(9.52238e-20 -9.98276e-20 -0.132494)
(-2.02747e-20 -6.8661e-22 -0.176975)
(2.88864e-24 4.75925e-20 7.61357e-07)
(-7.85333e-23 1.50193e-20 -7.61476e-06)
(3.46955e-22 -6.2311e-20 -2.08969e-05)
(-7.19058e-22 1.24029e-19 -4.04953e-05)
(1.60251e-21 -2.65711e-19 -6.76472e-05)
(5.50844e-22 1.26464e-19 -0.000103094)
(-2.59411e-21 -9.24308e-22 -0.000146707)
(1.63854e-21 -1.72821e-20 -0.000197141)
(1.21657e-21 -2.59539e-19 -0.000251632)
(1.13359e-21 2.47502e-19 -0.00030604)
(-9.10146e-22 -1.72649e-21 -0.000355194)
(-4.45369e-21 -1.6387e-23 -0.000393529)
(7.07793e-21 -1.95835e-21 -0.00041591)
(-4.76177e-21 -2.5376e-19 -0.000418471)
(5.97151e-21 2.30967e-19 -0.000399331)
(-1.08684e-20 4.58934e-19 -0.000359158)
(-5.2691e-21 -1.25947e-20 -0.000301113)
(-3.63819e-21 4.72658e-19 -0.000230227)
(3.94917e-22 -1.43613e-20 -0.000152288)
(-1.15105e-20 4.60075e-19 -7.38076e-05)
(1.13668e-20 -4.77996e-19 -1.26038e-06)
(-7.99642e-21 4.57419e-19 5.97778e-05)
(7.70264e-22 -4.75962e-19 0.000105169)
(5.45619e-21 -9.33119e-21 0.000132181)
(-2.66999e-21 1.3979e-20 0.000139369)
(5.78033e-21 -8.85307e-21 0.000126298)
(-1.79629e-20 4.31235e-19 9.31857e-05)
(1.59051e-20 -4.60142e-19 4.05274e-05)
(1.73291e-20 -4.28069e-19 -3.12581e-05)
(-1.39137e-20 4.30534e-19 -0.000122141)
(-1.14382e-21 -5.46048e-21 -0.000232788)
(1.18512e-20 -1.28269e-22 -0.00036493)
(-1.36539e-20 -2.58802e-20 -0.000521981)
(5.10128e-20 -7.8878e-19 -0.000710217)
(1.74191e-20 5.7343e-20 -0.000941181)
(-6.89139e-20 7.44306e-19 -0.00123648)
(4.20445e-21 -1.30707e-20 -0.00163697)
(-1.20475e-20 -5.43644e-21 -0.00221943)
(1.10218e-19 -6.30492e-19 -0.00312518)
(-2.04424e-19 1.24109e-18 -0.00460541)
(2.08698e-19 -1.23829e-18 -0.0070874)
(7.66488e-20 8.84146e-20 -0.0112612)
(-1.61364e-19 5.45475e-19 -0.018178)
(-1.71756e-19 3.78856e-19 -0.0293378)
(1.61803e-19 -4.4985e-19 -0.0467285)
(-2.40687e-20 2.09832e-20 -0.0727617)
(5.95268e-20 -1.88298e-20 -0.110021)
(1.77919e-19 -1.10772e-19 -0.160688)
(-1.92676e-19 1.73086e-19 -0.225546)
(-2.74264e-20 -4.44423e-20 -0.295591)
(3.93186e-22 -3.13747e-20 6.97002e-07)
(-3.73499e-22 1.58831e-20 -1.11333e-05)
(7.42761e-22 -1.83246e-22 -2.99195e-05)
(-6.77179e-22 -1.56241e-20 -5.75253e-05)
(-1.03389e-21 -1.54173e-21 -9.55914e-05)
(3.19267e-21 -2.45226e-19 -0.000145128)
(-4.29645e-21 4.64769e-19 -0.00020603)
(2.04835e-21 -2.50447e-19 -0.000276618)
(-1.91326e-21 1.50937e-20 -0.000353356)
(4.6182e-21 -2.74253e-19 -0.000430892)
(-5.73292e-21 2.50614e-19 -0.000502507)
(-3.18436e-21 4.77874e-19 -0.000560948)
(8.99132e-21 -9.67796e-19 -0.000599509)
(-1.10794e-20 9.67432e-19 -0.000613128)
(1.53114e-20 -9.63481e-19 -0.000599334)
(-8.82471e-21 9.5602e-19 -0.000558972)
(-8.78399e-21 4.85849e-19 -0.000496264)
(-7.34154e-22 -4.00722e-21 -0.000417655)
(4.78688e-21 4.1512e-21 -0.000330839)
(-6.0135e-21 4.4982e-19 -0.000244349)
(-4.24238e-21 -4.72747e-19 -0.000166758)
(1.56876e-20 1.35151e-20 -0.000105508)
(-3.0854e-20 9.09749e-19 -6.62262e-05)
(2.22626e-20 -9.13437e-19 -5.27682e-05)
(2.33885e-21 -5.14312e-21 -6.73852e-05)
(-1.03558e-20 -8.66615e-23 -0.000111085)
(1.56112e-20 -1.38491e-20 -0.000184101)
(-5.10299e-21 1.30871e-22 -0.000286384)
(-5.62978e-21 -5.68597e-23 -0.000418071)
(5.33697e-21 2.07616e-22 -0.000579906)
(-3.84096e-21 1.12233e-21 -0.000773655)
(6.03765e-20 -8.15759e-19 -0.00100263)
(-5.4137e-20 8.39647e-19 -0.00127256)
(-1.69689e-20 -8.92862e-23 -0.0015933)
(1.96691e-20 -1.03218e-20 -0.00198225)
(-9.68705e-20 7.5441e-19 -0.00247132)
(1.14787e-19 -7.58404e-19 -0.00312017)
(-2.4353e-20 2.56353e-21 -0.0040403)
(1.71555e-20 -7.63819e-23 -0.00543641)
(4.07432e-20 7.16592e-21 -0.0076717)
(-2.55625e-19 5.73341e-19 -0.0113629)
(3.74629e-19 -1.16572e-18 -0.0175042)
(-1.82787e-19 5.91975e-19 -0.0276073)
(2.73665e-19 -4.56588e-19 -0.0438285)
(-2.64089e-19 5.39125e-19 -0.0690338)
(-6.28887e-19 5.59262e-19 -0.106728)
(1.19096e-18 -1.18958e-18 -0.160717)
(-5.85467e-19 6.02797e-19 -0.234224)
(2.04265e-20 -2.42867e-21 -0.328043)
(4.95461e-21 -3.79847e-20 -0.418359)
(-7.65561e-22 1.5972e-20 2.61887e-07)
(-2.00463e-22 6.1033e-20 -1.55878e-05)
(1.82752e-21 -1.85501e-19 -4.05941e-05)
(-1.01245e-21 2.49106e-19 -7.68492e-05)
(-4.61788e-22 -1.10405e-19 -0.000126273)
(9.6428e-23 -1.47075e-20 -0.00019013)
(-4.80433e-22 1.55603e-20 -0.000268427)
(3.22619e-21 -1.99716e-22 -0.000359342)
(-3.10431e-21 -1.52039e-20 -0.000458868)
(-5.5185e-21 3.43159e-20 -0.000560848)
(-6.08738e-21 4.86117e-19 -0.000657489)
(1.82438e-20 -5.05452e-19 -0.000740334)
(-2.26326e-20 4.71946e-19 -0.000801541)
(1.85196e-20 -4.91099e-19 -0.000835176)
(-3.19646e-21 3.61567e-21 -0.00083833)
(1.16611e-20 5.205e-23 -0.000811996)
(4.44253e-21 3.94345e-21 -0.000761174)
(-3.2014e-21 4.59866e-19 -0.000693493)
(1.89278e-20 -4.98002e-19 -0.000618029)
(6.79283e-21 2.79138e-20 -0.000544958)
(-4.27342e-20 9.50552e-19 -0.000484613)
(2.51472e-20 -9.53971e-19 -0.000446072)
(1.08635e-20 2.3402e-20 -0.000436394)
(-1.91148e-20 -2.47081e-22 -0.000460691)
(1.25077e-20 1.02031e-20 -0.000522328)
(-3.43065e-20 9.18151e-19 -0.000623351)
(2.73035e-20 -9.10199e-19 -0.000765046)
(3.00377e-21 1.01872e-20 -0.000948525)
(1.03378e-20 2.79607e-20 -0.00117529)
(-1.21899e-20 -5.82016e-22 -0.00144775)
(1.13751e-21 -1.34061e-20 -0.00176973)
(-3.94208e-20 1.36278e-20 -0.00214718)
(3.73453e-20 1.30067e-20 -0.00258925)
(-3.47589e-21 -2.64587e-20 -0.00311053)
(7.79183e-20 -7.65955e-19 -0.00373557)
(-6.81132e-20 7.89349e-19 -0.00450786)
(2.64383e-19 -1.52543e-18 -0.00550739)
(-2.40352e-19 1.5405e-18 -0.00688251)
(3.02531e-19 -1.44924e-18 -0.00890481)
(7.67161e-20 1.35668e-19 -0.0120562)
(-3.50846e-19 1.38406e-18 -0.0171559)
(-1.29742e-19 -2.39697e-20 -0.0255255)
(1.76197e-20 3.82588e-22 -0.039179)
(-1.98949e-20 5.72844e-22 -0.0610034)
(5.87175e-20 1.77293e-21 -0.0948818)
(2.85752e-20 1.45444e-20 -0.145691)
(-1.22697e-19 5.50864e-21 -0.219008)
(6.99721e-20 5.37803e-21 -0.319969)
(-1.79647e-22 -3.3725e-22 -0.449916)
(3.90774e-20 6.94827e-22 -0.556408)
(-6.10228e-22 7.68746e-20 -9.00137e-07)
(1.67869e-21 -4.69165e-20 -2.24474e-05)
(-1.81446e-21 -1.66037e-20 -5.54253e-05)
(4.5215e-21 -2.2982e-19 -0.000101723)
(-1.97439e-21 2.31795e-19 -0.000163507)
(1.659e-21 -2.29387e-19 -0.000242338)
(-1.05525e-20 5.05956e-19 -0.000338465)
(1.06204e-20 -7.09062e-19 -0.000450164)
(-6.73955e-21 5.0188e-19 -0.000573319)
(-4.85862e-21 4.88985e-19 -0.000701438)
(-2.14967e-21 3.65123e-21 -0.000826192)
(2.27088e-20 -9.6107e-19 -0.000938483)
(-1.89717e-20 1.00113e-18 -0.00102983)
(3.63394e-21 -4.71541e-19 -0.00109382)
(1.06197e-20 -4.73783e-19 -0.00112728)
(2.11746e-20 -4.66507e-19 -0.00113133)
(-2.9616e-21 7.1436e-21 -0.00111151)
(3.53856e-20 -9.68166e-19 -0.0010764)
(2.5562e-20 -9.30084e-19 -0.001036)
(6.66611e-21 2.15316e-20 -0.00100177)
(-2.19166e-20 9.67063e-19 -0.000985546)
(-2.13292e-20 -8.5664e-21 -0.000997884)
(1.30206e-20 9.47404e-21 -0.00104735)
(-4.63966e-20 9.39155e-19 -0.00114062)
(3.64241e-20 -9.55062e-19 -0.00128266)
(6.92427e-20 -9.1777e-19 -0.00147726)
(-7.05287e-20 9.49052e-19 -0.00172763)
(1.59585e-20 -2.11887e-20 -0.00203706)
(6.28281e-20 -9.18217e-19 -0.0024096)
(-9.21788e-20 9.42376e-19 -0.00285065)
(4.632e-21 1.3101e-20 -0.00336758)
(-1.99434e-19 1.73097e-18 -0.00397052)
(1.78176e-19 -1.79732e-18 -0.00467378)
(5.16257e-20 6.54728e-20 -0.00549841)
(-2.5975e-19 1.64567e-18 -0.00647765)
(2.3584e-19 -1.71747e-18 -0.00766779)
(-3.36906e-20 -3.65055e-21 -0.00916952)
(4.73667e-19 -1.55585e-18 -0.0111673)
(-4.41688e-19 1.60847e-18 -0.0139981)
(-7.14328e-20 -7.73334e-20 -0.0182614)
(6.95426e-19 -1.36749e-18 -0.0249822)
(-1.21806e-18 2.82972e-18 -0.0358262)
(-7.48636e-20 -1.59725e-19 -0.0533533)
(-1.00857e-19 -1.24183e-19 -0.0812751)
(8.05123e-19 -1.24448e-18 -0.124689)
(4.28719e-20 6.83078e-20 -0.190301)
(-9.34889e-19 8.37211e-19 -0.28665)
(9.16271e-19 -9.21251e-19 -0.423761)
(1.05648e-20 3.14444e-20 -0.608532)
(1.02644e-20 -2.98196e-21 -0.737299)
(6.17854e-22 -1.60605e-20 -3.37385e-06)
(1.4745e-21 -1.36586e-19 -3.53838e-05)
(-1.63827e-21 1.2327e-19 -7.92279e-05)
(-1.3965e-21 -1.74781e-20 -0.000137445)
(5.09874e-21 -2.28467e-19 -0.000212585)
(-4.65698e-21 2.35316e-19 -0.000306671)
(-4.83676e-21 4.75037e-19 -0.000420326)
(-5.40057e-21 -1.96542e-20 -0.000552137)
(2.47675e-21 -4.62977e-21 -0.000698203)
(1.37362e-20 -5.06804e-19 -0.000852127)
(-1.06803e-20 4.74524e-19 -0.00100556)
(1.47815e-20 -1.00448e-18 -0.00114927)
(-2.21396e-21 5.02552e-19 -0.00127463)
(-3.95725e-21 -1.90864e-20 -0.00137505)
(-5.25549e-21 -2.29846e-20 -0.00144726)
(2.43584e-20 -9.8758e-19 -0.00149229)
(-1.36822e-21 -1.99125e-20 -0.0015158)
(2.26017e-20 -1.0065e-18 -0.00152679)
(-5.83878e-21 -7.47337e-21 -0.00153582)
(-1.76274e-22 1.26721e-22 -0.00155476)
(1.21473e-20 8.94871e-21 -0.00159615)
(-4.80125e-20 9.71247e-19 -0.00167126)
(4.18954e-20 -9.92817e-19 -0.00178944)
(1.35453e-20 8.84758e-21 -0.00195814)
(-9.36327e-21 -1.52475e-20 -0.00218311)
(-6.54e-21 1.05002e-20 -0.00246884)
(-6.88853e-20 9.41289e-19 -0.00281909)
(1.4907e-19 -1.92275e-18 -0.00323755)
(-6.99434e-20 1.00468e-18 -0.00372828)
(-1.81521e-19 1.86297e-18 -0.00429617)
(-3.12704e-20 -4.51747e-20 -0.00494727)
(3.89373e-21 -2.4886e-20 -0.00568917)
(-6.89505e-20 -5.38007e-20 -0.00653183)
(2.48739e-19 -1.86996e-18 -0.00748946)
(3.94591e-19 -1.73376e-18 -0.00858508)
(-3.49002e-19 1.82203e-18 -0.00986082)
(-3.62317e-20 -5.86093e-20 -0.0113995)
(4.69309e-19 -1.66721e-18 -0.0133667)
(-4.09443e-19 1.7688e-18 -0.0160876)
(-6.76803e-19 1.57504e-18 -0.0201765)
(5.69499e-19 -1.66619e-18 -0.0267354)
(8.37927e-20 -1.20487e-20 -0.0376329)
(9.01562e-19 -1.48753e-18 -0.0558488)
(1.37566e-19 1.23486e-19 -0.085855)
(-1.0531e-18 1.46433e-18 -0.134008)
(-1.78436e-20 -4.28794e-20 -0.209017)
(3.64272e-20 5.7147e-22 -0.323252)
(-3.71698e-20 1.64921e-20 -0.497946)
(-5.56871e-19 5.83103e-19 -0.773555)
(5.47925e-19 -5.92617e-19 -1.07151)
(-9.91006e-21 -2.78711e-21 0.00608302)
(-8.67824e-21 6.62731e-22 -0.00242695)
(8.09064e-21 7.55995e-21 -0.00923768)
(-8.10207e-21 -4.82876e-21 -0.0144694)
(8.5539e-21 -3.10728e-21 -0.0182579)
(-1.84878e-22 2.39526e-21 -0.0207644)
(-1.22337e-22 -7.32351e-23 -0.0221642)
(-3.41975e-21 7.47933e-24 -0.0226401)
(3.31761e-21 -7.25594e-24 -0.0223714)
(-8.55268e-23 1.87056e-25 -0.0215272)
(-7.25643e-23 1.58705e-25 -0.0202613)
(1.69588e-21 -3.70906e-24 -0.0187091)
(-1.70134e-21 3.72099e-24 -0.0169863)
(-1.08611e-21 2.37544e-24 -0.015188)
(2.52783e-22 -1.60604e-22 -0.0133902)
(3.86431e-21 5.59669e-20 -0.0116514)
(-2.7039e-21 -5.20706e-20 -0.0100139)
(-7.8884e-24 -1.51628e-22 -0.00850679)
(-1.2841e-24 3.55083e-23 -0.00714732)
(-2.24491e-21 -7.51575e-20 -0.00594346)
(2.2517e-21 7.52492e-20 -0.00489518)
(-1.62807e-21 -7.78515e-20 -0.00399676)
(2.44554e-22 5.31305e-21 -0.0032374)
(-3.66781e-23 5.93761e-25 -0.00260448)
(1.95461e-22 5.71979e-21 -0.00208404)
(-7.24765e-24 9.7864e-26 -0.0016632)
(-9.33111e-24 2.04081e-26 -0.00132543)
(5.23574e-24 -2.50174e-25 -0.00105661)
(1.24107e-22 6.33697e-21 -0.000844305)
(-1.10673e-24 7.7801e-25 -0.000677503)
(-1.01651e-22 -6.57684e-21 -0.000546759)
(9.05144e-23 6.68256e-21 -0.000444174)
(-5.53419e-23 -6.78942e-21 -0.000363316)
(3.18142e-22 6.21157e-20 -0.000299061)
(-3.44898e-22 -6.2289e-20 -0.000247418)
(-2.01585e-22 -4.95122e-20 -0.000205333)
(4.49247e-22 1.0663e-19 -0.000170507)
(-2.44712e-22 -5.72001e-20 -0.000141236)
(-7.84508e-23 -7.26305e-21 -0.000116266)
(7.14578e-23 7.31097e-21 -9.46805e-05)
(2.60857e-23 -2.25743e-25 -7.58089e-05)
(3.76081e-24 7.44014e-21 -5.91564e-05)
(-1.1741e-22 -3.74991e-20 -4.43515e-05)
(1.27511e-22 3.75992e-20 -3.11078e-05)
(-5.05376e-23 -7.58337e-21 -1.91956e-05)
(5.83733e-23 2.29347e-20 -8.4202e-06)
(-1.87147e-23 -7.63904e-21 1.39872e-06)
(-4.42383e-23 -1.54712e-20 1.04489e-05)
(2.04406e-23 7.75423e-21 1.89507e-05)
(-1.60252e-23 -7.81061e-21 2.71635e-05)
(-1.45287e-20 2.30326e-20 0.0167261)
(1.66246e-20 -1.58222e-20 -0.00864488)
(-1.12923e-20 -1.35261e-20 -0.0288696)
(-7.30987e-21 3.92797e-21 -0.0442351)
(6.66195e-21 -2.92911e-21 -0.0552081)
(-9.30893e-21 5.54641e-21 -0.0623292)
(7.50083e-21 2.65131e-21 -0.0661649)
(-2.35116e-20 -6.05142e-20 -0.0672866)
(2.98967e-20 5.15229e-20 -0.0662427)
(-1.34622e-20 8.57878e-22 -0.0635426)
(8.68279e-21 -5.54501e-21 -0.0596443)
(3.31654e-20 1.42591e-19 -0.0549468)
(-3.83668e-20 -1.3804e-19 -0.0497866)
(-3.68267e-20 -1.88547e-19 -0.044439)
(3.43839e-21 -2.39604e-20 -0.0391213)
(3.53593e-20 2.09276e-19 -0.0339986)
(-1.79413e-21 -2.79107e-21 -0.0291902)
(-1.27753e-21 -8.2929e-21 -0.0247757)
(1.65168e-24 -1.47172e-23 -0.020802)
(3.31048e-23 -7.24035e-26 -0.017289)
(1.2135e-22 5.71582e-25 -0.0142345)
(-3.81899e-22 -5.15964e-21 -0.0116192)
(1.92361e-20 3.33593e-19 -0.00941079)
(-2.11903e-20 -3.61507e-19 -0.00757558)
(1.67021e-20 3.67926e-19 -0.00606393)
(-9.26057e-21 -1.82231e-19 -0.00484)
(-1.46048e-20 -3.89438e-19 -0.00385852)
(6.91788e-21 1.97303e-19 -0.00307792)
(-9.0622e-23 -6.35239e-21 -0.00246158)
(-4.94146e-22 -1.29994e-20 -0.0019773)
(1.50129e-22 6.59642e-21 -0.00159755)
(-4.63409e-22 -2.01556e-20 -0.00129937)
(3.72631e-21 2.12095e-19 -0.00106411)
(-7.73584e-21 -4.47744e-19 -0.000876914)
(3.46882e-21 2.14959e-19 -0.000726247)
(-2.70256e-22 -2.11273e-20 -0.000603278)
(-3.49302e-24 7.11758e-21 -0.000501368)
(1.00434e-23 3.09471e-23 -0.000415592)
(-1.34232e-21 -1.2378e-19 -0.000342331)
(1.14569e-21 1.09331e-19 -0.000278934)
(9.10441e-22 1.03645e-19 -0.000223462)
(-1.29697e-21 -1.40829e-19 -0.000174479)
(5.3986e-23 7.43465e-21 -0.000130907)
(2.28269e-22 3.78187e-20 -9.19134e-05)
(-4.84156e-22 -6.80853e-20 -5.6828e-05)
(-1.03505e-22 -7.6293e-21 -2.50819e-05)
(-2.84927e-22 -5.37576e-20 3.85381e-06)
(-8.71982e-23 -7.84763e-21 3.05373e-05)
(9.8086e-23 1.54221e-20 5.5645e-05)
(1.09375e-22 2.33637e-20 8.0037e-05)
(-1.47089e-20 -5.0604e-22 0.0224481)
(7.39905e-21 -2.76287e-21 -0.0192498)
(1.34947e-20 1.55332e-20 -0.0521774)
(-3.98305e-20 -1.19612e-20 -0.0766114)
(1.60123e-20 8.74271e-21 -0.0935461)
(-5.73241e-20 -7.94282e-20 -0.104077)
(6.59612e-20 5.49525e-20 -0.109275)
(1.10981e-19 1.53644e-19 -0.110156)
(-1.07047e-20 6.3457e-20 -0.10766)
(-2.19834e-19 -4.1595e-19 -0.102635)
(2.46701e-19 4.90797e-19 -0.0958301)
(-1.25803e-19 -2.54167e-19 -0.0878818)
(5.01123e-22 -1.03087e-20 -0.0793179)
(-1.37582e-21 -2.12553e-21 -0.0705615)
(1.23998e-19 4.53069e-19 -0.0619412)
(-8.90272e-21 3.66644e-20 -0.0537015)
(-1.12193e-19 -4.79808e-19 -0.0460148)
(4.68127e-21 1.55381e-20 -0.0389928)
(-1.09613e-21 3.84949e-23 -0.0326972)
(1.58017e-23 -1.62113e-22 -0.0271492)
(4.0467e-20 3.30513e-19 -0.0223374)
(-3.91425e-20 -3.19867e-19 -0.0182255)
(-3.30087e-20 -3.46587e-19 -0.0147635)
(3.48192e-20 3.68943e-19 -0.0118845)
(1.07224e-21 1.18717e-20 -0.00952883)
(-9.849e-22 -1.21073e-20 -0.00761217)
(7.72075e-22 1.24325e-20 -0.00607727)
(-1.9956e-20 -3.95028e-19 -0.00485716)
(2.09308e-20 4.08187e-19 -0.00389383)
(-1.61524e-20 -3.96294e-19 -0.0031365)
(1.7311e-20 4.22993e-19 -0.00254199)
(3.79138e-22 1.34738e-20 -0.00207439)
(1.28002e-20 4.4081e-19 -0.00170461)
(-2.44961e-20 -8.7327e-19 -0.00140955)
(1.23846e-20 4.60263e-19 -0.00117128)
(5.06765e-21 2.41893e-19 -0.000976105)
(-4.45355e-21 -2.13534e-19 -0.000813751)
(-2.23541e-22 -4.34236e-23 -0.000676607)
(4.41797e-23 -1.85664e-23 -0.000559084)
(4.12812e-23 -6.29865e-23 -0.000457093)
(3.23783e-21 2.36994e-19 -0.000367637)
(-3.2201e-21 -2.22333e-19 -0.000288498)
(1.61705e-22 1.49132e-20 -0.000218002)
(6.72164e-23 -4.18959e-23 -0.000154849)
(1.18018e-21 1.21442e-19 -9.79907e-05)
(-2.33101e-21 -2.28345e-19 -4.65268e-05)
(1.18466e-21 1.22134e-19 3.88724e-07)
(-5.93735e-22 -6.16068e-20 4.36718e-05)
(4.34313e-22 4.61812e-20 8.45029e-05)
(1.09791e-22 1.54823e-20 0.000124595)
(1.48079e-21 2.63446e-20 0.0191143)
(8.60266e-21 -5.15577e-20 -0.0380763)
(3.60565e-20 9.26886e-20 -0.0822366)
(-1.41607e-19 -1.33471e-19 -0.113672)
(1.21059e-19 3.36102e-20 -0.134388)
(9.47258e-20 1.40877e-19 -0.146308)
(-1.13292e-19 -1.09909e-19 -0.151142)
(1.33211e-19 1.92937e-19 -0.150404)
(-3.0116e-19 -4.19997e-19 -0.145436)
(1.87824e-19 2.14592e-19 -0.137409)
(-1.17603e-20 1.22908e-20 -0.127319)
(-6.80003e-21 7.84127e-22 -0.115994)
(9.86737e-21 8.65755e-21 -0.104101)
(-1.81952e-19 -4.56419e-19 -0.0921603)
(1.70923e-19 4.36697e-19 -0.0805665)
(1.78322e-21 1.88431e-20 -0.0696039)
(-2.78588e-22 -9.35983e-21 -0.0594653)
(1.41814e-19 5.98205e-19 -0.0502684)
(-1.41966e-19 -5.95843e-19 -0.04207)
(-1.93569e-21 -1.13666e-20 -0.0348788)
(-1.53272e-22 -1.4911e-23 -0.0286656)
(5.73344e-22 2.43589e-22 -0.023372)
(7.32018e-23 -2.62472e-24 -0.0189268)
(1.16111e-21 1.17974e-20 -0.0152443)
(6.80824e-22 1.58628e-22 -0.0122315)
(9.79811e-22 1.24016e-20 -0.00979041)
(-6.52303e-20 -8.27048e-19 -0.00783261)
(6.46864e-20 8.14706e-19 -0.00627728)
(-2.75428e-22 2.05601e-22 -0.00504914)
(-2.35457e-20 -4.28581e-19 -0.00408286)
(2.47978e-20 4.42241e-19 -0.00332312)
(-1.13952e-22 7.39377e-23 -0.00272416)
(-1.38641e-22 4.5638e-23 -0.00224895)
(-1.68876e-20 -4.64063e-19 -0.00186825)
(3.22837e-20 9.1861e-19 -0.00155936)
(-2.92451e-20 -9.12756e-19 -0.00130504)
(2.68899e-20 9.2058e-19 -0.00109239)
(-2.46437e-20 -9.27676e-19 -0.000911857)
(1.16906e-20 4.6543e-19 -0.000756447)
(5.21238e-21 2.36094e-19 -0.00062105)
(-4.56201e-21 -2.06373e-19 -0.000501914)
(-2.62217e-22 -1.48787e-20 -0.000396259)
(-4.03408e-21 -2.401e-19 -0.000301973)
(8.4503e-21 5.11319e-19 -0.000217408)
(-3.94735e-21 -2.41137e-19 -0.00014122)
(8.70646e-23 -6.24917e-23 -7.22459e-05)
(2.15053e-22 1.52411e-20 -9.37089e-06)
(-9.14164e-23 -5.02086e-25 4.86546e-05)
(-1.50698e-22 -1.53718e-20 0.000103575)
(3.37499e-22 3.08409e-20 0.00015833)
(2.68766e-20 5.86858e-23 0.00175604)
(-1.83824e-22 -3.97121e-23 -0.0702615)
(-5.87142e-20 -4.32241e-22 -0.122814)
(8.21412e-20 -1.60788e-21 -0.157745)
(-2.69945e-20 -3.27613e-21 -0.178924)
(-3.58045e-20 -1.145e-21 -0.18939)
(1.48161e-20 2.53886e-21 -0.19158)
(-8.594e-21 -3.69561e-21 -0.187509)
(5.84971e-20 -1.87596e-20 -0.178874)
(3.98445e-19 6.70992e-19 -0.167097)
(-2.89409e-21 1.0119e-19 -0.153345)
(-4.29688e-19 -7.76697e-19 -0.138559)
(4.32417e-19 9.16108e-19 -0.123474)
(-4.42565e-19 -9.1376e-19 -0.108645)