/*--------------------------------*- C++ -*----------------------------------*\
| =========                 |                                                 |
| \\      /  F ield         | OpenFOAM: The Open Source CFD Toolbox           |
|  \\    /   O peration     | Version:  2412                                  |
|   \\  /    A nd           | Website:  www.openfoam.com                      |
|    \\/     M anipulation  |                                                 |
\*---------------------------------------------------------------------------*/
FoamFile
{
    version     2.0;
    format      ascii;
    arch        "LSB;label=32;scalar=64";
    class       volVectorField;
    location    "3.5";
    object      U;
}
// * * * * * * * * * * * * * * * * * * * * * * * * * * * * * * * * * * * * * //

dimensions      [0 1 -1 0 0 0 0];

internalField   nonuniform List<vector> 
5285
(
(0.0925377 0.000174451 6.34149e-23)
(0.0921928 0.000191935 -7.24767e-24)
(0.0918152 0.00021041 7.39541e-24)
(0.091403 0.000230048 -7.55206e-24)
(0.090954 0.000251087 0)
(0.0904654 0.000273814 7.89497e-24)
(0.0899342 0.000298563 -8.08289e-24)
(0.0893563 0.000325714 0)
(0.0887271 0.000355699 -8.49653e-24)
(0.0880413 0.000389009 0)
(0.0872924 0.000426204 -8.96839e-24)
(0.086473 0.000467938 -1.50084e-22)
(0.0855745 0.000514978 1.59365e-22)
(0.0845867 0.000568251 -1.59765e-22)
(0.0834977 0.000628889 1.59522e-22)
(0.0822933 0.000698292 0)
(0.0809567 0.000778195 0)
(0.0794676 0.000870771 1.95446e-22)
(0.0778016 0.00097875 -1.83895e-22)
(0.0759288 0.0011056 0)
(0.0738124 0.00125574 0)
(0.0714071 0.00143485 0)
(0.0686563 0.00165011 0)
(0.0654895 0.00191039 0)
(0.061819 0.00222593 0)
(0.0575385 0.00260677 0)
(0.0525254 0.00305876 0)
(0.0466525 0.00357537 0)
(0.0398199 0.00412397 -1.87834e-23)
(0.0320162 0.00462635 -6.51598e-22)
(0.0233957 0.00493795 6.50621e-22)
(0.0144017 0.00483244 7.1314e-22)
(0.00622863 0.00397432 -7.1207e-22)
(0.00128047 0.00187168 0)
(0.0924999 0.000524474 2.23071e-22)
(0.0921534 0.000576572 -2.37134e-22)
(0.0917747 0.00063169 -2.22212e-23)
(0.091362 0.000690347 7.56863e-24)
(0.090913 0.000753248 0)
(0.0904249 0.00082125 -7.91542e-24)
(0.0898945 0.00089535 -2.5462e-22)
(0.0893178 0.000976683 5.31789e-22)
(0.0886904 0.00106654 2.92574e-22)
(0.0880068 0.00116639 -5.52366e-22)
(0.0872608 0.0012779 5.93684e-22)
(0.0864451 0.00140303 -6.02413e-22)
(0.085551 0.00154409 -9.54756e-24)
(0.0845688 0.00170383 0)
(0.0834867 0.00188564 0)
(0.0822909 0.00209371 0)
(0.0809651 0.00233321 0)
(0.0794896 0.00261063 -1.13268e-23)
(0.077841 0.0029341 -7.68892e-22)
(0.0759904 0.00331394 -3.3311e-23)
(0.0739029 0.00376331 8.00118e-22)
(0.0715354 0.00429902 8.74426e-22)
(0.0688345 0.00494238 -8.73268e-22)
(0.0657337 0.0057196 -2.91476e-23)
(0.062151 0.00666075 -3.05711e-23)
(0.0579866 0.00779502 -1.06176e-21)
(0.0531246 0.00913859 1.02665e-21)
(0.047442 0.0106702 -3.53844e-23)
(0.0408353 0.0122907 1.89148e-23)
(0.0332722 0.0137657 -1.32655e-21)
(0.0248595 0.0146645 1.32633e-21)
(0.0159536 0.0143163 -2.79043e-21)
(0.00757625 0.0117395 2.7437e-21)
(0.00183884 0.0054881 -2.81099e-21)
(0.092433 0.000877807 2.36791e-23)
(0.0920836 0.000963511 -4.61008e-22)
(0.0917033 0.00105441 1.48698e-23)
(0.0912899 0.00115135 -4.91719e-22)
(0.0908411 0.0012555 5.06775e-22)
(0.0903541 0.00136828 -5.15079e-22)
(0.0898256 0.00149131 5.30863e-22)
(0.0892517 0.00162647 1.66818e-23)
(0.0886281 0.00177589 -1.71199e-23)
(0.0879493 0.00194201 1.7587e-23)
(0.0872093 0.0021276 -5.88131e-22)
(0.0864011 0.00233591 6.06225e-22)
(0.0855164 0.00257074 6.4412e-22)
(0.0845456 0.00283669 -6.24338e-22)
(0.0834777 0.00313937 0)
(0.0822995 0.00348569 0)
(0.0809957 0.00388421 2.19268e-23)
(0.079548 0.00434559 1.511e-21)
(0.0779345 0.00488322 3.7356e-23)
(0.0761291 0.00551402 -1.52178e-21)
(0.0741 0.00625951 0)
(0.0718088 0.0071471 -2.67132e-23)
(0.0692084 0.00821136 1.86656e-21)
(0.066241 0.00949455 -3.73355e-21)
(0.0628354 0.0110446 3.97487e-21)
(0.0589051 0.0129069 1.3258e-22)
(0.0543475 0.0151038 -2.08217e-21)
(0.0490477 0.0175947 -2.28777e-21)
(0.0428937 0.02021 2.35779e-21)
(0.0358089 0.0225614 1.69975e-24)
(0.0278031 0.0239425 -4.07751e-23)
(0.019061 0.0232572 2.70102e-21)
(0.0102459 0.0189479 -2.61545e-21)
(0.00290944 0.00877376 -2.61309e-21)
(0.0923533 0.00123512 -4.67914e-22)
(0.0920009 0.00135289 2.13556e-26)
(0.091619 0.00147821 0)
(0.0912054 0.00161228 -4.79015e-22)
(0.0907577 0.00175669 4.94074e-22)
(0.090273 0.00191337 0)
(0.089748 0.00208457 -1.06301e-21)
(0.0891791 0.00227288 1.04578e-21)
(0.0885617 0.00248125 1.72828e-23)
(0.0878909 0.00271304 -3.39151e-26)
(0.0871607 0.00297213 1.8242e-23)
(0.0863646 0.00326301 0)
(0.0854947 0.00359099 -4.88e-26)
(0.0845421 0.00396243 0)
(0.0834966 0.00438513 -2.06619e-23)
(0.082346 0.00486863 1.39617e-21)
(0.0810766 0.00542475 -1.39576e-21)
(0.0796719 0.00606816 -2.30846e-23)
(0.0781129 0.00681721 4.78465e-23)
(0.0763769 0.007695 -1.65217e-21)
(0.0744374 0.00873079 1.6008e-21)
(0.0722628 0.00996165 2.7175e-23)
(0.0698156 0.011434 -3.60496e-25)
(0.0670509 0.0132039 2.92515e-23)
(0.0639144 0.015334 -2.02016e-21)
(0.0603393 0.017881 4.09708e-21)
(0.0562428 0.0208671 -2.14255e-21)
(0.0515212 0.0242254 2.25069e-21)
(0.046048 0.0277123 -2.35653e-21)
(0.039677 0.030792 -4.75478e-21)
(0.0322643 0.0325074 9.72302e-21)
(0.0237387 0.0313696 -4.93378e-21)
(0.0142839 0.0253096 0)
(0.00449378 0.0115763 -4.63317e-21)
(0.0922835 0.00159612 0)
(0.0919287 0.00174413 -4.60675e-22)
(0.0915463 0.00190226 4.90609e-22)
(0.0911339 0.00207201 -1.53844e-23)
(0.090689 0.00225539 -1.03539e-21)
(0.0902086 0.00245482 1.0201e-21)
(0.0896897 0.00267314 -1.65598e-23)
(0.0891285 0.00291359 0)
(0.0885208 0.00317991 0)
(0.087862 0.00347637 -1.18353e-21)
(0.0871465 0.00380789 1.14758e-21)
(0.0863681 0.00418018 0)
(0.0855198 0.00459998 -3.93103e-23)
(0.0845935 0.00507539 0)
(0.08358 0.00561625 2.10244e-23)
(0.0824689 0.00623464 -2.16925e-23)
(0.081248 0.00694539 -2.25701e-23)
(0.0799039 0.00776688 2.33104e-23)
(0.0784209 0.00872197 1.5352e-21)
(0.0767815 0.00983927 -1.58446e-21)
(0.0749656 0.0111548 3.45763e-21)
(0.0729511 0.0127138 -3.45999e-21)
(0.0707133 0.0145723 3.69716e-21)
(0.0682248 0.0167973 1.24576e-22)
(0.0654536 0.0194614 -3.91452e-21)
(0.0623598 0.0226268 -3.1671e-23)
(0.0588866 0.0263091 1.32427e-24)
(0.0549449 0.0304093 1.80507e-24)
(0.0503886 0.0346104 2.46142e-24)
(0.0449811 0.0382457 -7.07344e-23)
(0.038371 0.0401507 -3.28437e-23)
(0.0301328 0.0385081 -3.12856e-23)
(0.0198395 0.030772 0)
(0.00661083 0.0138757 9.40299e-24)
(0.0922478 0.00196418 -3.36123e-23)
(0.0918925 0.00214124 9.22358e-22)
(0.0915116 0.00233122 9.49961e-22)
(0.0911027 0.00253599 2.27261e-23)
(0.0906632 0.00275795 -1.00586e-21)
(0.0901903 0.00299999 0)
(0.0896808 0.0032655 0)
(0.0891314 0.00355839 -1.11631e-21)
(0.088538 0.00388318 1.10028e-21)
(0.0878965 0.00424503 1.18323e-21)
(0.0872018 0.00464991 -1.18498e-21)
(0.0864485 0.00510472 0)
(0.0856303 0.00561767 1.32081e-21)
(0.0847403 0.00619854 -1.32336e-21)
(0.0837708 0.00685922 0)
(0.0827132 0.0076142 -2.86444e-21)
(0.0815581 0.00848122 2.89095e-21)
(0.0802952 0.00948204 -2.38984e-23)
(0.0789133 0.0106436 -3.20612e-21)
(0.0774011 0.011999 3.23582e-21)
(0.075747 0.0135897 0)
(0.0739403 0.0154665 3.66284e-21)
(0.0719725 0.0176912 -3.64036e-21)
(0.0698379 0.0203348 2.9792e-23)
(0.067533 0.0234704 4.08874e-21)
(0.0650518 0.0271527 -8.23975e-21)
(0.0623717 0.0313745 -1.75686e-23)
(0.0594242 0.0359909 1.24622e-24)
(0.0560458 0.0406074 4.38152e-21)
(0.0519039 0.0444482 4.41901e-24)
(0.0464137 0.0462109 -3.84858e-21)
(0.0387005 0.0438822 3.94523e-21)
(0.027443 0.0346483 0)
(0.00955776 0.0153289 3.51752e-23)
(0.0922678 0.00233298 -4.75032e-24)
(0.0919152 0.00253791 9.61639e-22)
(0.0915392 0.00275886 1.53353e-23)
(0.0911374 0.00299805 0)
(0.0907073 0.00325831 0)
(0.0902462 0.00354302 -1.07254e-21)
(0.0897511 0.00385616 1.07525e-21)
(0.089219 0.00420233 0)
(0.0886465 0.00458686 1.80391e-23)
(0.0880297 0.00501586 0)
(0.0873644 0.00549641 -1.24387e-21)
(0.0866461 0.00603675 2.53179e-21)
(0.0858698 0.0066466 -1.28801e-21)
(0.0850299 0.00733763 -2.72833e-21)
(0.0841206 0.0081239 -9.18274e-23)
(0.0831359 0.00902251 -9.77647e-23)
(0.0820693 0.0100542 -1.03879e-22)
(0.0809147 0.0112443 3.07122e-21)
(0.0796664 0.0126237 3.30483e-21)
(0.0783199 0.0142298 -3.3127e-21)
(0.0768733 0.0161083 0)
(0.0753288 0.0183135 3.70291e-21)
(0.0736949 0.0209078 -3.7115e-21)
(0.071989 0.0239577 -3.99244e-21)
(0.0702373 0.0275208 3.9706e-21)
(0.06847 0.0316187 3.27696e-23)
(0.066703 0.0361856 4.12113e-21)
(0.0648983 0.0409867 -8.18446e-23)
(0.062895 0.0455108 -4.12388e-21)
(0.0603037 0.0488635 3.1758e-23)
(0.0563731 0.0496891 0)
(0.0498752 0.0460579 -2.55491e-23)
(0.0383932 0.0354529 -1.28464e-21)
(0.0153392 0.0151564 5.43669e-22)
(-0.000242783 0.000186162 0)
(-0.000385629 -0.000136281 2.63737e-22)
(0.000413032 -0.000762224 -2.64133e-22)
(0.00247229 -0.00149644 -2.2026e-22)
(0.00583248 -0.00220271 2.20591e-22)
(0.010353 -0.00279106 -5.62467e-24)
(0.0157739 -0.00321358 0)
(0.0217855 -0.00345624 0)
(0.0280789 -0.00353035 0)
(0.0343802 -0.00346361 0)
(0.040471 -0.00329144 0)
(0.0461957 -0.00304999 0)
(0.0514589 -0.00277141 0)
(0.0562166 -0.00248133 0)
(0.0604639 -0.00219824 0)
(0.0642229 -0.00193402 9.40577e-24)
(0.0675325 -0.00169509 -8.82449e-24)
(0.0704391 -0.00148386 0)
(0.0729916 -0.00130005 0)
(0.0752367 -0.00114171 -9.12853e-24)
(0.0772172 -0.00100612 9.14247e-24)
(0.0789708 -0.000890286 -9.07379e-24)
(-0.000181915 0.000462407 -1.11703e-21)
(1.25043e-05 -0.000576982 -1.12061e-21)
(0.00138222 -0.00243563 1.10366e-21)
(0.0039821 -0.00458222 -4.43047e-22)
(0.00776499 -0.00663156 4.45454e-22)
(0.0125486 -0.00833051 5.66345e-24)
(0.0180679 -0.00954584 -9.99145e-24)
(0.0240355 -0.0102399 -2.30724e-22)
(0.0301786 -0.0104463 2.22879e-22)
(0.0362626 -0.0102451 -5.09451e-24)
(0.0421043 -0.00973825 -3.96772e-24)
(0.0475757 -0.0090298 8.14761e-23)
(0.0526003 -0.00821256 -8.15851e-23)
(0.0571451 -0.00736087 -5.34956e-23)
(0.0612099 -0.00652857 7.4588e-24)
(0.0648173 -0.00575045 4.61701e-23)
(0.0680038 -0.00504561 -5.98516e-25)
(0.0708124 -0.0044214 -1.29486e-24)
(0.0732876 -0.00387725 0)
(0.0754723 -0.00340777 0)
(0.0774058 -0.00300512 0)
(0.0791228 -0.00266065 -6.1049e-25)
(-2.16737e-05 0.000459968 -1.22594e-21)
(0.000886366 -0.00145846 1.21259e-21)
(0.00335223 -0.00450169 -1.17624e-21)
(0.00695464 -0.00791009 -1.59275e-23)
(0.0115021 -0.0111104 -1.04597e-24)
(0.0167475 -0.0137364 -7.23711e-22)
(0.0224245 -0.0156001 7.47642e-22)
(0.028291 -0.0166523 5.04993e-22)
(0.034142 -0.0169483 -9.37488e-23)
(0.0398146 -0.0166115 -7.03477e-22)
(0.0451891 -0.0157982 5.61811e-22)
(0.0501873 -0.0146682 -2.41814e-22)
(0.0547666 -0.013365 -3.00025e-24)
(0.0589137 -0.0120043 0)
(0.0626369 -0.0106708 1.13469e-22)
(0.0659597 -0.00942004 -1.38242e-23)
(0.0689143 -0.00828311 -9.79415e-23)
(0.0715371 -0.00727274 2.8412e-24)
(0.0738653 -0.00638895 0)
(0.0759345 -0.00562397 0)
(0.0777776 -0.00496593 4.29439e-23)
(0.0794239 -0.00440146 -4.15685e-23)
(0.000355873 9.50522e-05 -2.79073e-21)
(0.00243637 -0.00295301 0)
(0.00638572 -0.00711691 2.41799e-21)
(0.0113038 -0.0115589 -4.6259e-21)
(0.0168093 -0.0156248 2.22092e-21)
(0.0225964 -0.0189096 7.97586e-22)
(0.0284189 -0.0212132 -8.38462e-22)
(0.0341038 -0.0224913 5.72059e-22)
(0.0395369 -0.0228182 -1.04399e-21)
(0.0446466 -0.0223472 4.64339e-22)
(0.049393 -0.0212711 5.69202e-24)
(0.0537593 -0.019788 8.0905e-25)
(0.0577447 -0.0180773 3.0516e-24)
(0.0613605 -0.0162857 -1.66353e-22)
(0.0646256 -0.0145225 1.6119e-22)
(0.0675645 -0.0128607 4.13525e-24)
(0.0702042 -0.0113426 -1.66845e-24)
(0.072573 -0.00998669 1.05638e-22)
(0.0746985 -0.00879489 -1.05362e-22)
(0.0766072 -0.00775856 -1.67716e-24)
(0.0783234 -0.00686334 0)
(0.0798696 -0.00609245 1.60494e-25)
(0.0010468 -0.000748377 -2.49234e-24)
(0.00490865 -0.00517486 -2.59445e-23)
(0.0106151 -0.0103062 -2.35309e-23)
(0.0169467 -0.0154685 -2.11756e-23)
(0.0233955 -0.0200528 -3.61587e-23)
(0.0296468 -0.0236913 -1.43085e-24)
(0.0355112 -0.0262108 1.28711e-23)
(0.0409061 -0.0275825 -1.21342e-23)
(0.045817 -0.027892 -1.01861e-23)
(0.050267 -0.0273048 8.94524e-22)
(0.0542958 -0.0260286 -1.79014e-22)
(0.0579473 -0.0242797 -7.40907e-22)
(0.0612624 -0.0222577 4.92509e-22)
(0.0642767 -0.0201292 -4.93933e-22)
(0.0670202 -0.0180212 1.78428e-22)
(0.0695184 -0.0160212 -1.83657e-22)
(0.0717934 -0.0141819 2.61821e-24)
(0.0738646 -0.0125285 -1.90763e-24)
(0.0757501 -0.0110663 -2.17087e-24)
(0.0774664 -0.00978761 1.70642e-24)
(0.0790289 -0.00867728 0)
(0.080452 -0.00771671 -3.46861e-24)
(0.0817493 -0.0068866 0)
(0.00227926 -0.00185302 5.55566e-23)
(0.00877804 -0.00767179 -2.40939e-24)
(0.0162975 -0.0135631 -3.03811e-21)
(0.0238321 -0.0191525 3.10646e-21)
(0.0309507 -0.0239744 -1.78085e-24)
(0.0374128 -0.0277539 -2.09878e-21)
(0.0431226 -0.0303635 2.89974e-22)
(0.0480954 -0.031787 2.96707e-22)
(0.0524074 -0.0321067 2.8878e-21)
(0.0561599 -0.0314802 -1.31207e-21)
(0.0594564 -0.0301091 1.58427e-23)
(0.0623889 -0.0282095 7.70472e-22)
(0.0650315 -0.0259877 -7.64458e-22)
(0.0674397 -0.0236219 0)
(0.0696528 -0.0212529 -4.70468e-22)
(0.0716976 -0.0189818 4.72842e-22)
(0.0735922 -0.0168731 -2.68375e-24)
(0.0753488 -0.0149608 -3.2896e-22)
(0.0769765 -0.0132562 3.30708e-22)
(0.078483 -0.0117552 -2.51001e-24)
(0.0798752 -0.0104438 1.33003e-22)
(0.0811602 -0.00930323 -1.28727e-22)
(0.082345 -0.00831326 0)
(0.00453544 -0.00288745 -7.58499e-21)
(0.0145604 -0.0101585 4.25859e-21)
(0.0236057 -0.0166474 -2.78671e-23)
(0.0317701 -0.0224449 0)
(0.0390394 -0.0273219 2.2242e-23)
(0.0453268 -0.03112 2.45092e-21)
(0.050637 -0.033759 -3.11673e-22)
(0.0550655 -0.0352308 -2.16292e-21)
(0.0587491 -0.035605 1.25674e-23)
(0.0618352 -0.0350173 -1.3533e-21)
(0.0644625 -0.033649 1.34105e-21)
(0.0667498 -0.0317028 9.72645e-22)
(0.0687899 -0.029381 -9.70233e-22)
(0.0706505 -0.0268663 0)
(0.0723772 -0.0243094 6.09717e-22)
(0.0739981 -0.0218241 -6.0819e-22)
(0.0755291 -0.0194878 -4.68451e-22)
(0.0769779 -0.0173459 4.89003e-23)
(0.0783474 -0.0154182 3.87748e-23)
(0.0796388 -0.0137065 3.32867e-23)
(0.0808526 -0.0122005 3.46019e-22)
(0.0819897 -0.0108832 1.48509e-22)
(0.0830519 -0.00973435 -2.93027e-22)
(0.00955547 -0.0098951 0)
(0.0220891 -0.0158521 0)
(0.0319774 -0.0214649 0)
(0.0400305 -0.026598 0)
(0.046923 -0.0309362 0)
(0.0527185 -0.0342768 0)
(0.0574737 -0.0365467 0)
(0.0613225 -0.0377481 0)
(0.0644248 -0.0379422 0)
(0.0669409 -0.0372429 0)
(0.0690189 -0.0358052 0)
(0.0707848 -0.0338081 0)
(0.0723383 -0.0314362 0)
(0.0737517 -0.0288617 0)
(0.0750734 -0.0262312 0)
(0.0763324 -0.0236588 0)
(0.0775439 -0.0212245 0)
(0.0787133 -0.0189773 0)
(0.0798409 -0.0169412 0)
(0.0809242 -0.0151211 0)
(0.0819599 -0.0135093 0)
(0.0829453 -0.0120907 0)
(0.0838784 -0.0108464 0)
(0.0847587 -0.00975636 0)
(0.0256636 -0.0219502 0)
(0.036552 -0.0264219 0)
(0.0453245 -0.0306348 0)
(0.0521809 -0.0343638 0)
(0.0579064 -0.0373655 0)
(0.0625949 -0.0394802 0)
(0.0663033 -0.0406628 0)
(0.0691736 -0.0409417 0)
(0.0713723 -0.0403924 0)
(0.073061 -0.039127 0)
(0.0743867 -0.0372845 0)
(0.075474 -0.0350181 0)
(0.0764201 -0.0324816 0)
(0.0772945 -0.0298171 0)
(0.0781418 -0.0271447 0)
(0.0789863 -0.0245572 0)
(0.0798377 -0.0221194 0)
(0.0806961 -0.0198702 0)
(0.0815561 -0.0178278 0)
(0.0824098 -0.0159947 0)
(0.083249 -0.0143627 0)
(0.0840663 -0.0129176 0)
(0.0848559 -0.0116416 0)
(0.0466505 -0.03064 0)
(0.0547171 -0.0342606 0)
(0.0613102 -0.0374953 0)
(0.0662355 -0.0401212 0)
(0.0702268 -0.0420235 0)
(0.0733795 -0.0431323 0)
(0.0757318 -0.0434428 0)
(0.0774084 -0.0430029 0)
(0.0785603 -0.0418948 0)
(0.0793325 -0.040224 0)
(0.0798561 -0.0381118 0)
(0.0802413 -0.0356869 0)
(0.0805734 -0.0330755 0)
(0.0809112 -0.030393 0)
(0.0812905 -0.0277365 0)
(0.0817278 -0.0251808 0)
(0.0822256 -0.0227778 0)
(0.0827776 -0.0205585 0)
(0.0833725 -0.0185368 0)
(0.0839971 -0.0167137 0)
(0.0846386 -0.0150815 0)
(0.0852853 -0.0136271 0)
(0.0859276 -0.0123346 0)
(0.0686116 -0.0361668 0)
(0.0735793 -0.0391595 0)
(0.0776076 -0.0417164 0)
(0.0803421 -0.0435685 0)
(0.0823966 -0.0446796 0)
(0.0838683 -0.0450628 0)
(0.0847819 -0.0447554 0)
(0.0852348 -0.0438233 0)
(0.0853492 -0.0423532 0)
(0.0852418 -0.0404444 0)
(0.0850168 -0.0382024 0)
(0.0847613 -0.0357345 0)
(0.084541 -0.0331431 0)
(0.0843998 -0.0305208 0)
(0.0843614 -0.0279447 0)
(0.084433 -0.0254745 0)
(0.0846102 -0.0231514 0)
(0.0848808 -0.0210001 0)
(0.0852287 -0.0190318 0)
(0.0856368 -0.0172468 0)
(0.0860885 -0.0156386 0)
(0.0865692 -0.014196 0)
(0.0870663 -0.0129052 0)
(0.0887156 -0.0389698 0)
(0.0908505 -0.0415339 0)
(0.0924144 -0.043622 0)
(0.0930874 -0.0449611 0)
(0.0933311 -0.045553 0)
(0.0932383 -0.0454675 0)
(0.0928306 -0.0447747 0)
(0.0921804 -0.0435544 0)
(0.0913779 -0.0418958 0)
(0.0905084 -0.0398924 0)
(0.0896464 -0.0376373 0)
(0.0888531 -0.0352204 0)
(0.088173 -0.0327251 0)
(0.0876333 -0.030225 0)
(0.0872455 -0.0277811 0)
(0.087008 -0.0254402 0)
(0.0869099 -0.0232351 0)
(0.0869348 -0.0211853 0)
(0.0870631 -0.0193 0)
(0.0872751 -0.0175797 0)
(0.087552 -0.0160191 0)
(0.0878772 -0.0146093 0)
(0.0882362 -0.013339 0)
(0.105298 -0.0393761 0)
(0.105144 -0.0417084 0)
(0.104642 -0.0435086 0)
(0.10362 -0.0445541 0)
(0.102386 -0.0448678 0)
(0.101017 -0.0445489 0)
(0.0995374 -0.0436866 0)
(0.0980011 -0.0423673 0)
(0.0964703 -0.04068 0)
(0.0950019 -0.0387122 0)
(0.093644 -0.036547 0)
(0.0924341 -0.0342612 0)
(0.0913976 -0.0319235 0)
(0.0905467 -0.0295934 0)
(0.0898825 -0.0273195 0)
(0.089396 -0.025139 0)
(0.0890717 -0.0230782 0)
(0.0888901 -0.0211534 0)
(0.08883 -0.0193722 0)
(0.0888703 -0.0177358 0)
(0.0889911 -0.0162408 0)
(0.089175 -0.0148803 0)
(0.0894066 -0.0136456 0)
(0.117716 -0.0379232 0)
(0.115919 -0.0401777 0)
(0.113891 -0.0418382 0)
(0.111639 -0.0427603 0)
(0.109343 -0.0429841 0)
(0.107057 -0.0426177 0)
(0.10481 -0.0417567 0)
(0.102642 -0.0404882 0)
(0.100595 -0.0388975 0)
(0.0987041 -0.0370663 0)
(0.0969961 -0.0350692 0)
(0.0954907 -0.0329733 0)
(0.0941982 -0.0308368 0)
(0.0931198 -0.0287087 0)
(0.0922484 -0.026629 0)
(0.0915702 -0.0246281 0)
(0.0910669 -0.0227279 0)
(0.0907175 -0.0209424 0)
(0.0905002 -0.019279 0)
(0.0903939 -0.0177398 0)
(0.0903789 -0.016323 0)
(0.0904374 -0.015024 0)
(0.090554 -0.0138365 0)
(0.126091 -0.0352391 0)
(0.123278 -0.0375051 0)
(0.120278 -0.0391284 0)
(0.117259 -0.0400431 0)
(0.114309 -0.0403043 0)
(0.111459 -0.0400161 0)
(0.108739 -0.0392715 0)
(0.106185 -0.0381537 0)
(0.103822 -0.0367426 0)
(0.101671 -0.0351134 0)
(0.0997459 -0.0333338 0)
(0.0980534 -0.0314632 0)
(0.0965939 -0.0295524 0)
(0.0953613 -0.0276431 0)
(0.0943435 -0.0257693 0)
(0.0935243 -0.0239569 0)
(0.0928842 -0.0222249 0)
(0.0924022 -0.0205861 0)
(0.0920571 -0.0190481 0)
(0.0918285 -0.017614 0)
(0.0916975 -0.0162838 0)
(0.091647 -0.015055 0)
(0.0916618 -0.0139234 0)
(0.131018 -0.0319028 0)
(0.127716 -0.0342063 0)
(0.124227 -0.0358465 0)
(0.120839 -0.036819 0)
(0.117579 -0.0371887 0)
(0.114461 -0.0370492 0)
(0.111519 -0.0364849 0)
(0.108783 -0.0355725 0)
(0.106272 -0.0343849 0)
(0.103997 -0.0329908 0)
(0.101965 -0.0314519 0)
(0.100175 -0.0298214 0)
(0.0986215 -0.0281446 0)
(0.0972952 -0.0264581 0)
(0.0961818 -0.0247917 0)
(0.0952642 -0.0231684 0)
(0.0945236 -0.0216054 0)
(0.0939399 -0.020115 0)
(0.0934933 -0.018705 0)
(0.0931648 -0.0173799 0)
(0.0929366 -0.0161411 0)
(0.0927929 -0.014988 0)
(0.0927192 -0.0139183 0)
(0.133296 -0.0283694 0)
(0.129892 -0.0306916 0)
(0.126285 -0.0323625 0)
(0.122829 -0.0334166 0)
(0.119517 -0.0339217 0)
(0.116355 -0.0339576 0)
(0.113378 -0.0335972 0)
(0.110616 -0.0329089 0)
(0.108084 -0.0319582 0)
(0.105789 -0.0308071 0)
(0.103734 -0.0295115 0)
(0.101915 -0.0281199 0)
(0.100324 -0.0266727 0)
(0.0989519 -0.0252033 0)
(0.0977834 -0.0237382 0)
(0.0968024 -0.0222985 0)
(0.0959915 -0.0209002 0)
(0.0953324 -0.0195555 0)
(0.0948073 -0.0182726 0)
(0.0943988 -0.0170571 0)
(0.0940909 -0.0159116 0)
(0.0938688 -0.0148372 0)
(0.0937193 -0.0138333 0)
(0.133723 -0.0249469 0)
(0.130468 -0.0272472 0)
(0.12699 -0.0289366 0)
(0.123666 -0.0300675 0)
(0.120475 -0.0307043 0)
(0.11742 -0.0309119 0)
(0.114537 -0.030751 0)
(0.111856 -0.0302808 0)
(0.109391 -0.029559 0)
(0.107148 -0.0286411 0)
(0.105129 -0.0275776 0)
(0.103331 -0.0264122 0)
(0.101745 -0.025182 0)
(0.100363 -0.0239172 0)
(0.0991707 -0.0226421 0)
(0.0981541 -0.0213763 0)
(0.0972977 -0.0201352 0)
(0.0965854 -0.0189305 0)
(0.0960014 -0.0177711 0)
(0.0955306 -0.0166632 0)
(0.0951584 -0.0156108 0)
(0.0948717 -0.0146161 0)
(0.0946582 -0.0136799 0)
(0.132974 -0.0218102 0)
(0.130006 -0.0240449 0)
(0.126798 -0.025728 0)
(0.123721 -0.026915 0)
(0.120753 -0.0276623 0)
(0.117894 -0.0280203 0)
(0.115183 -0.0280379 0)
(0.112648 -0.0277649 0)
(0.110306 -0.0272513 0)
(0.108162 -0.0265462 0)
(0.106219 -0.0256946 0)
(0.104475 -0.0247365 0)
(0.102924 -0.0237053 0)
(0.101558 -0.0226287 0)
(0.100366 -0.0215293 0)
(0.0993354 -0.0204253 0)
(0.0984533 -0.0193313 0)
(0.0977061 -0.0182591 0)
(0.0970802 -0.0172177 0)
(0.0965622 -0.0162139 0)
(0.0961396 -0.0152525 0)
(0.0958005 -0.0143369 0)
(0.0955342 -0.0134688 0)
(0.131561 -0.0190341 0)
(0.128933 -0.0211671 0)
(0.126057 -0.0228168 0)
(0.123281 -0.0240334 0)
(0.120582 -0.0248626 0)
(0.117963 -0.0253419 0)
(0.115463 -0.0255093 0)
(0.11311 -0.0254054 0)
(0.11092 -0.0250732 0)
(0.108902 -0.0245551 0)
(0.107059 -0.0238915 0)
(0.105391 -0.0231182 0)
(0.103895 -0.0222656 0)
(0.102564 -0.0213591 0)
(0.10139 -0.0204195 0)
(0.100362 -0.0194637 0)
(0.0994703 -0.0185059 0)
(0.0987033 -0.0175573 0)
(0.0980494 -0.0166271 0)
(0.0974975 -0.0157225 0)
(0.0970365 -0.0148491 0)
(0.0966562 -0.0140106 0)
(0.0963469 -0.0132099 0)
(0.129832 -0.0166282 0)
(0.127545 -0.0186351 0)
(0.125013 -0.0202282 0)
(0.122548 -0.0214485 0)
(0.12013 -0.0223308 0)
(0.117765 -0.0229011 0)
(0.115488 -0.0231879 0)
(0.11333 -0.0232235 0)
(0.111306 -0.0230439 0)
(0.109426 -0.0226859 0)
(0.107696 -0.022185 0)
(0.106118 -0.0215734 0)
(0.104689 -0.0208785 0)
(0.103405 -0.0201234 0)
(0.102261 -0.0193273 0)
(0.101249 -0.0185059 0)
(0.10036 -0.0176726 0)
(0.0995858 -0.0168382 0)
(0.0989158 -0.0160118 0)
(0.098341 -0.0152009 0)
(0.0978522 -0.0144112 0)
(0.0974403 -0.0136472 0)
(0.0970969 -0.0129122 0)
(0.128006 -0.0145661 0)
(0.126035 -0.0164344 0)
(0.123827 -0.0179542 0)
(0.121658 -0.0191567 0)
(0.119512 -0.0200664 0)
(0.117393 -0.0207 0)
(0.115339 -0.0210776 0)
(0.113374 -0.0212245 0)
(0.111518 -0.0211701 0)
(0.10978 -0.0209461 0)
(0.108168 -0.0205837 0)
(0.106685 -0.0201113 0)
(0.105331 -0.0195537 0)
(0.104103 -0.018932 0)
(0.102999 -0.0182635 0)
(0.102012 -0.0175629 0)
(0.101135 -0.0168424 0)
(0.100363 -0.0161126 0)
(0.0996864 -0.0153823 0)
(0.0990982 -0.0146588 0)
(0.0985905 -0.0139482 0)
(0.0981555 -0.0132553 0)
(0.0977859 -0.0125838 0)
(0.126207 -0.0128066 0)
(0.124515 -0.0145329 0)
(0.122599 -0.0159694 0)
(0.1207 -0.0171379 0)
(0.118803 -0.0180542 0)
(0.116916 -0.0187277 0)
(0.11507 -0.0191713 0)
(0.113292 -0.0194042 0)
(0.111598 -0.0194504 0)
(0.109999 -0.0193366 0)
(0.108505 -0.0190902 0)
(0.107119 -0.0187363 0)
(0.105843 -0.0182972 0)
(0.104676 -0.0177918 0)
(0.103617 -0.0172359 0)
(0.102662 -0.0166428 0)
(0.101806 -0.016024 0)
(0.101043 -0.0153893 0)
(0.100369 -0.0147472 0)
(0.0997748 -0.0141049 0)
(0.0992557 -0.0134684 0)
(0.0988049 -0.0128426 0)
(0.0984162 -0.0122317 0)
(0.124499 -0.0113052 0)
(0.123046 -0.012893 0)
(0.121385 -0.0142413 0)
(0.119725 -0.0153648 0)
(0.118053 -0.0162721 0)
(0.116376 -0.0169666 0)
(0.114723 -0.0174557 0)
(0.113118 -0.0177531 0)
(0.111577 -0.0178783 0)
(0.110112 -0.0178538 0)
(0.108731 -0.0177034 0)
(0.107441 -0.0174494 0)
(0.106244 -0.0171116 0)
(0.105141 -0.0167069 0)
(0.104132 -0.0162496 0)
(0.103213 -0.0157518 0)
(0.102383 -0.015224 0)
(0.101636 -0.0146753 0)
(0.100969 -0.0141136 0)
(0.100376 -0.013546 0)
(0.0998525 -0.0129784 0)
(0.0993922 -0.0124157 0)
(0.0989902 -0.0118622 0)
(0.122909 -0.0100206 0)
(0.121658 -0.0114771 0)
(0.120217 -0.0127369 0)
(0.118766 -0.0138087 0)
(0.117292 -0.0146958 0)
(0.115803 -0.0153968 0)
(0.114324 -0.0159147 0)
(0.112878 -0.0162589 0)
(0.111479 -0.0164449 0)
(0.110139 -0.0164918 0)
(0.108868 -0.0164201 0)
(0.107671 -0.0162495 0)
(0.106552 -0.0159976 0)
(0.105513 -0.0156796 0)
(0.104555 -0.0153082 0)
(0.103676 -0.0148942 0)
(0.102876 -0.0144474 0)
(0.10215 -0.0139759 0)
(0.101496 -0.0134873 0)
(0.100909 -0.0129881 0)
(0.100386 -0.0124842 0)
(0.0999211 -0.0119803 0)
(0.099511 -0.0114807 0)
(0.121444 -0.00891701 0)
(0.120363 -0.0102516 0)
(0.11911 -0.0114252 0)
(0.117839 -0.012442 0)
(0.116539 -0.0133013 0)
(0.115217 -0.013998 0)
(0.113894 -0.0145317 0)
(0.112592 -0.0149084 0)
(0.111323 -0.0151402 0)
(0.1101 -0.0152432 0)
(0.108931 -0.0152352 0)
(0.107823 -0.0151337 0)
(0.10678 -0.0149543 0)
(0.105805 -0.0147104 0)
(0.104899 -0.0144134 0)
(0.104062 -0.014073 0)
(0.103294 -0.0136978 0)
(0.102592 -0.0132954 0)
(0.101955 -0.0128727 0)
(0.101379 -0.0124359 0)
(0.10086 -0.0119904 0)
(0.100396 -0.0115411 0)
(0.0999817 -0.0110919 0)
(0.1201 -0.00796458 0)
(0.119162 -0.00918745 0)
(0.11807 -0.0102787 0)
(0.116954 -0.0112397 0)
(0.115806 -0.0120663 0)
(0.11463 -0.012751 0)
(0.113447 -0.0132906 0)
(0.112274 -0.0136884 0)
(0.111124 -0.0139536 0)
(0.110008 -0.0141001 0)
(0.108935 -0.0141432 0)
(0.107911 -0.0140985 0)
(0.106941 -0.0139797 0)
(0.106028 -0.0137989 0)
(0.105174 -0.013566 0)
(0.10438 -0.0132897 0)
(0.103646 -0.0129777 0)
(0.102971 -0.0126369 0)
(0.102353 -0.0122735 0)
(0.10179 -0.0118932 0)
(0.10128 -0.0115012 0)
(0.100819 -0.0111021 0)
(0.100406 -0.0106999 0)
(0.11887 -0.00713873 0)
(0.118053 -0.00825989 0)
(0.117097 -0.00927394 0)
(0.116115 -0.0101798 0)
(0.115099 -0.010971 0)
(0.114052 -0.0116383 0)
(0.112993 -0.0121763 0)
(0.111936 -0.0125861 0)
(0.110894 -0.0128749 0)
(0.109876 -0.0130543 0)
(0.108892 -0.013138 0)
(0.107946 -0.0131395 0)
(0.107045 -0.0130712 0)
(0.106192 -0.0129437 0)
(0.105389 -0.0127659 0)
(0.104638 -0.0125453 0)
(0.103939 -0.0122888 0)
(0.103292 -0.0120026 0)
(0.102696 -0.0116922 0)
(0.102149 -0.011363 0)
(0.10165 -0.0110197 0)
(0.101197 -0.0106667 0)
(0.100786 -0.0103079 0)
(0.117743 -0.00641938 0)
(0.117029 -0.00744841 0)
(0.11619 -0.00839057 0)
(0.115324 -0.00924309 0)
(0.114423 -0.00999783 0)
(0.113489 -0.0106441 0)
(0.112539 -0.0111749 0)
(0.111586 -0.0115898 0)
(0.110641 -0.0118942 0)
(0.109714 -0.012098 0)
(0.10881 -0.0122133 0)
(0.107939 -0.0122522 0)
(0.107103 -0.0122257 0)
(0.106307 -0.0121431 0)
(0.105553 -0.0120123 0)
(0.104845 -0.0118399 0)
(0.104181 -0.0116319 0)
(0.103563 -0.0113939 0)
(0.10299 -0.0111308 0)
(0.102461 -0.0108475 0)
(0.101976 -0.0105484 0)
(0.101531 -0.0102376 0)
(0.101126 -0.0099187 0)
(0.116711 -0.00579011 0)
(0.116084 -0.00673588 0)
(0.115345 -0.00761159 0)
(0.114579 -0.00841321 0)
(0.113778 -0.00913136 0)
(0.112944 -0.00975429 0)
(0.112091 -0.010274 0)
(0.111231 -0.0106887 0)
(0.110374 -0.0110024 0)
(0.109527 -0.0112236 0)
(0.108699 -0.0113632 0)
(0.107896 -0.0114319 0)
(0.107121 -0.0114396 0)
(0.10638 -0.0113947 0)
(0.105674 -0.0113038 0)
(0.105006 -0.011173 0)
(0.104377 -0.0110073 0)
(0.103789 -0.0108117 0)
(0.10324 -0.0105907 0)
(0.10273 -0.0103485 0)
(0.10226 -0.0100893 0)
(0.101826 -0.00981692 0)
(0.101428 -0.00953469 0)
(0.115765 -0.00523747 0)
(0.115212 -0.00610805 0)
(0.114559 -0.00692259 0)
(0.11388 -0.00767609 0)
(0.113165 -0.00835828 0)
(0.112419 -0.00895669 0)
(0.111652 -0.00946252 0)
(0.110875 -0.00987292 0)
(0.110097 -0.0101909 0)
(0.109325 -0.010424 0)
(0.108565 -0.0105817 0)
(0.107825 -0.010674 0)
(0.107107 -0.0107096 0)
(0.106417 -0.0106959 0)
(0.105757 -0.0106389 0)
(0.105129 -0.0105437 0)
(0.104534 -0.0104148 0)
(0.103975 -0.0102564 0)
(0.103451 -0.0100726 0)
(0.102961 -0.00986722 0)
(0.102506 -0.009644 0)
(0.102085 -0.00940642 0)
(0.101697 -0.00915769 0)
(0.114895 -0.00475033 0)
(0.114407 -0.00555303 0)
(0.113828 -0.00631141 0)
(0.113224 -0.00701973 0)
(0.112586 -0.00766706 0)
(0.111916 -0.00824045 0)
(0.111225 -0.00873049 0)
(0.110523 -0.00913362 0)
(0.109815 -0.00945206 0)
(0.10911 -0.00969239 0)
(0.108414 -0.00986334 0)
(0.107731 -0.00997387 0)
(0.107067 -0.0100319 0)
(0.106425 -0.0100441 0)
(0.105808 -0.0100156 0)
(0.105218 -0.00995085 0)
(0.104657 -0.00985374 0)
(0.104126 -0.00972793 0)
(0.103626 -0.00957699 0)
(0.103157 -0.00940438 0)
(0.102719 -0.00921345 0)
(0.102312 -0.0090074 0)
(0.101934 -0.0087892 0)
(0.114095 -0.00431949 0)
(0.113662 -0.00506086 0)
(0.113148 -0.00576775 0)
(0.112609 -0.00643384 0)
(0.112037 -0.00704772 0)
(0.111436 -0.0075961 0)
(0.110813 -0.00806918 0)
(0.110176 -0.00846285 0)
(0.109533 -0.00877873 0)
(0.108889 -0.00902271 0)
(0.108249 -0.00920279 0)
(0.10762 -0.0093272 0)
(0.107005 -0.00940317 0)
(0.106408 -0.00943653 0)
(0.105832 -0.0094319 0)
(0.105278 -0.00939307 0)
(0.104749 -0.00932337 0)
(0.104247 -0.00922596 0)
(0.103771 -0.00910396 0)
(0.103323 -0.00896044 0)
(0.102902 -0.00879843 0)
(0.102509 -0.00862081 0)
(0.102142 -0.00843035 0)
(0.113358 -0.00393726 0)
(0.112972 -0.00462317 0)
(0.112514 -0.00528288 0)
(0.112032 -0.00590964 0)
(0.11152 -0.00649163 0)
(0.110978 -0.0070154 0)
(0.110415 -0.00747085 0)
(0.109838 -0.00785351 0)
(0.109252 -0.00816454 0)
(0.108663 -0.00840929 0)
(0.108076 -0.00859518 0)
(0.107496 -0.00872983 0)
(0.106926 -0.00881984 0)
(0.106371 -0.00887043 0)
(0.105833 -0.00888567 0)
(0.105314 -0.00886879 0)
(0.104816 -0.00882263 0)
(0.104341 -0.0087499 0)
(0.103889 -0.00865331 0)
(0.103461 -0.00853556 0)
(0.103058 -0.00839936 0)
(0.102679 -0.00824734 0)
(0.102325 -0.00808202 0)
(0.112677 -0.0035972 0)
(0.112333 -0.00423289 0)
(0.111924 -0.00484939 0)
(0.111492 -0.00543956 0)
(0.111032 -0.00599133 0)
(0.110543 -0.00649112 0)
(0.110034 -0.00692867 0)
(0.109509 -0.00729925 0)
(0.108974 -0.0076037 0)
(0.108435 -0.00784696 0)
(0.107896 -0.00803598 0)
(0.107361 -0.00817784 0)
(0.106834 -0.00827864 0)
(0.106318 -0.00834309 0)
(0.105815 -0.00837474 0)
(0.105329 -0.00837636 0)
(0.10486 -0.00835035 0)
(0.104411 -0.008299 0)
(0.103983 -0.00822465 0)
(0.103576 -0.00812967 0)
(0.10319 -0.00801647 0)
(0.102826 -0.00788742 0)
(0.102484 -0.00774482 0)
(0.112048 -0.00329389 0)
(0.11174 -0.00388405 0)
(0.111374 -0.00446094 0)
(0.110986 -0.00501713 0)
(0.110571 -0.00554035 0)
(0.11013 -0.00601696 0)
(0.109668 -0.00643661 0)