/*--------------------------------*- C++ -*----------------------------------*\
| =========                 |                                                 |
| \\      /  F ield         | OpenFOAM: The Open Source CFD Toolbox           |
|  \\    /   O peration     | Version:  2412                                  |
|   \\  /    A nd           | Website:  www.openfoam.com                      |
|    \\/     M anipulation  |                                                 |
\*---------------------------------------------------------------------------*/
FoamFile
{
    version     2.0;
    format      ascii;
    arch        "LSB;label=32;scalar=64";
    class       volVectorField;
    location    "3.5";
    object      vorticity;
}
// * * * * * * * * * * * * * * * * * * * * * * * * * * * * * * * * * * * * * //

dimensions      [0 0 -1 0 0 0 0];

internalField   nonuniform List<vector> 
5285
(
(2.75302e-21 -6.69125e-20 0.000564418)
(-2.2182e-21 7.99635e-21 0.000576417)
(-2.48467e-22 -7.3933e-21 0.00058301)
(1.08582e-22 7.42146e-21 0.000586206)
(-3.77432e-24 -1.5438e-22 0.000587332)
(-1.0392e-22 -7.1613e-21 0.000587242)
(-2.38061e-21 7.25817e-21 0.000586449)
(5.02675e-21 1.52413e-23 0.000585212)
(1.48787e-21 7.06515e-21 0.000583586)
(-3.90971e-21 -6.5396e-24 0.000581476)
(5.64345e-21 8.42987e-21 0.000578714)
(-6.32286e-21 1.0716e-19 0.000575149)
(5.23885e-22 -1.15288e-19 0.000570727)
(-2.23653e-21 1.05911e-19 0.000565512)
(2.17171e-21 -1.07296e-19 0.000559634)
(5.76157e-23 1.5932e-21 0.000553185)
(-7.49423e-23 -1.95463e-21 0.000546121)
(2.84717e-21 -1.02671e-19 0.000538195)
(-9.8788e-21 1.00038e-19 0.000528895)
(-3.82112e-22 -1.83731e-21 0.000517262)
(7.37756e-21 1.61355e-23 0.00050132)
(8.04755e-21 1.76008e-23 0.000476528)
(-8.02181e-21 -1.75445e-23 0.000431964)
(-2.67247e-22 -5.84496e-25 0.000341619)
(-2.79775e-22 -6.11896e-25 0.000146285)
(-9.69865e-21 -2.12119e-23 -0.000279613)
(9.36047e-21 2.04723e-23 -0.00117873)
(-3.12623e-22 1.87146e-22 -0.00296927)
(4.58748e-23 9.59952e-21 -0.00627897)
(-2.98842e-20 6.09162e-20 -0.0119031)
(2.875e-20 -8.11175e-20 -0.0206433)
(-7.41002e-21 -1.15236e-20 -0.0330361)
(8.10206e-21 3.22157e-20 -0.0490503)
(-2.56915e-20 -7.16735e-21 -0.0677106)
(1.02084e-21 -2.31997e-19 0.0016047)
(-5.73046e-21 2.48986e-19 0.00163859)
(-2.54507e-22 1.97997e-20 0.00165685)
(-4.6326e-21 -7.60947e-21 0.00166515)
(4.8745e-21 1.74224e-22 0.00166733)
(-4.85393e-21 9.78713e-21 0.00166588)
(2.37907e-21 2.17398e-19 0.00166226)
(4.67462e-21 -4.63033e-19 0.00165718)
(3.98863e-21 -2.20534e-19 0.00165077)
(-5.77133e-21 4.48047e-19 0.00164269)
(1.40429e-21 -4.49092e-19 0.00163238)
(6.75609e-22 4.61612e-19 0.00161935)
(3.94152e-21 8.07037e-22 0.00160339)
(-4.42851e-21 -1.15987e-22 0.00158463)
(-1.48536e-21 -3.24863e-24 0.0015634)
(0 -0 0.00153991)
(2.19647e-22 1.13864e-22 0.00151398)
(1.3181e-20 1.39768e-20 0.0014848)
(-1.35275e-20 3.8668e-19 0.00145076)
(-1.82849e-20 -2.55808e-20 0.00140886)
(1.64526e-20 -3.84297e-19 0.00135291)
(2.49062e-20 -3.34096e-19 0.00126876)
(-4.32173e-21 3.59247e-19 0.00112242)
(-3.7124e-20 1.72986e-21 0.000833354)
(3.70865e-20 2.01657e-20 0.000219172)
(-4.21641e-20 2.65192e-19 -0.00110455)
(1.91135e-20 -2.77245e-19 -0.00387579)
(-2.19012e-20 1.74162e-20 -0.00935821)
(2.46089e-20 9.8633e-21 -0.0194377)
(-6.88029e-20 1.3556e-19 -0.0364921)
(6.88433e-20 -1.32466e-19 -0.0629094)
(-1.11446e-19 1.01529e-19 -0.100269)
(1.07437e-19 -1.13882e-19 -0.148405)
(-2.3743e-20 -7.99424e-22 -0.20271)
(-6.06768e-21 -1.31072e-20 0.00238409)
(-2.52269e-21 4.80233e-19 0.00243347)
(4.10715e-22 -1.45913e-20 0.00245846)
(-1.15212e-20 4.67825e-19 0.00246763)
(1.12952e-20 -4.86582e-19 0.00246686)
(-7.32572e-21 4.66238e-19 0.00245989)
(-9.87704e-22 -4.85722e-19 0.00244891)
(6.15629e-21 -8.92826e-21 0.00243495)
(-2.95727e-21 1.42616e-20 0.00241809)
(6.49256e-21 -8.46232e-21 0.00239764)
(-1.778e-20 4.4077e-19 0.00237255)
(1.5377e-20 -4.72163e-19 0.00234181)
(1.6416e-20 -4.37905e-19 0.00230486)
(-1.26543e-20 4.42251e-19 0.00226173)
(-1.298e-21 -6.19678e-21 0.00221271)
(1.34296e-20 -1.45231e-22 0.00215791)
(-1.56309e-20 -2.80128e-20 0.00209675)
(4.74553e-20 -8.16042e-19 0.00202765)
(1.87758e-20 5.99794e-20 0.00194763)
(-6.70244e-20 7.71965e-19 0.00185129)
(4.77766e-21 -1.47864e-20 0.00172757)
(-1.3366e-20 -7.14971e-21 0.00155121)
(1.07396e-19 -6.60688e-19 0.00126197)
(-1.95974e-19 1.30771e-18 0.000717814)
(1.97375e-19 -1.31649e-18 -0.000400145)
(8.6415e-20 9.38441e-20 -0.00275716)
(-1.62808e-19 5.8662e-19 -0.00761606)
(-1.76944e-19 4.11568e-19 -0.0171152)
(1.6489e-19 -4.92417e-19 -0.0344145)
(-2.82344e-20 2.4124e-20 -0.0634696)
(7.00979e-20 -2.22398e-20 -0.108238)
(2.00864e-19 -1.24845e-19 -0.171309)
(-2.18533e-19 1.98024e-19 -0.252232)
(-3.23516e-20 -5.2063e-20 -0.337798)
(-7.70538e-21 4.91608e-19 0.00275262)
(-8.22532e-22 -4.626e-21 0.00280636)
(5.48758e-21 4.74989e-21 0.00282893)
(-4.64632e-21 4.56711e-19 0.00283075)
(-7.18332e-21 -4.81053e-19 0.0028188)
(1.79288e-20 1.54357e-20 0.00279756)
(-2.97899e-20 9.25434e-19 0.00276961)
(2.00378e-20 -9.31406e-19 0.00273604)
(2.58651e-21 -4.15659e-21 0.00269668)
(-1.18198e-20 -7.21714e-23 0.00265027)
(1.76371e-20 -1.41206e-20 0.002595)
(-5.8006e-21 1.48852e-22 0.00252903)
(-6.42664e-21 -3.60188e-23 0.00245115)
(6.05663e-21 2.35647e-22 0.0023608)
(-4.17163e-21 -1.66336e-22 0.00225779)
(5.66521e-20 -8.37591e-19 0.00214163)
(-4.96408e-20 8.64735e-19 0.00201086)
(-1.90234e-20 -1.36672e-21 0.00186262)
(2.18246e-20 -9.24509e-21 0.00169206)
(-9.17825e-20 7.81104e-19 0.00149078)
(1.12682e-19 -7.87921e-19 0.00124189)
(-2.79386e-20 3.89897e-21 0.000907225)
(1.9505e-20 -2.40278e-23 0.000396098)
(4.59135e-20 9.15839e-21 -0.000504119)
(-2.62135e-19 6.03925e-19 -0.00226712)
(3.68136e-19 -1.23777e-18 -0.00587079)
(-1.77842e-19 6.31795e-19 -0.0131492)
(2.86456e-19 -4.94538e-19 -0.0271711)
(-2.73648e-19 5.89189e-19 -0.0524269)
(-6.89419e-19 6.12442e-19 -0.0945147)
(1.31292e-18 -1.3219e-18 -0.159071)
(-6.51418e-19 6.78402e-19 -0.24985)
(2.39492e-20 -2.81704e-21 -0.365974)
(5.78334e-21 -4.46917e-20 -0.476443)
(5.10901e-21 4.52203e-21 0.00261621)
(-8.72176e-22 4.65574e-19 0.00265873)
(1.87312e-20 -5.05279e-19 0.00266518)
(7.84607e-21 3.00277e-20 0.00264639)
(-4.25347e-20 9.64073e-19 0.00260954)
(2.24878e-20 -9.69794e-19 0.00255912)
(1.24966e-20 2.49126e-20 0.00249761)
(-2.18102e-20 -2.82039e-22 0.00242578)
(1.42639e-20 1.1617e-20 0.00234283)
(-2.99542e-20 9.34424e-19 0.00224657)
(2.22255e-20 -9.28687e-19 0.00213394)
(3.41979e-21 1.15981e-20 0.0020018)
(1.20988e-20 2.85658e-20 0.00184754)
(-1.38551e-20 -6.61067e-22 0.00166933)
(1.10434e-21 -1.37184e-20 0.00146561)
(-4.44689e-20 1.39728e-20 0.00123433)
(4.25949e-20 1.33504e-20 0.00097217)
(-4.25027e-21 -2.86068e-20 0.000674009)
(6.79885e-20 -7.88591e-19 0.000332147)
(-5.62707e-20 8.12387e-19 -6.58498e-05)
(2.4771e-19 -1.57908e-18 -0.000543699)
(-2.20131e-19 1.596e-18 -0.00115391)
(2.79996e-19 -1.51399e-18 -0.00202036)
(8.22335e-20 1.42232e-19 -0.00343283)
(-3.27702e-19 1.44897e-18 -0.00603459)
(-1.48473e-19 -2.82826e-20 -0.0111459)
(1.99831e-20 3.14002e-22 -0.0212248)
(-2.32614e-20 5.27573e-22 -0.0403561)
(6.87689e-20 1.93421e-21 -0.0745038)
(3.45249e-20 1.59332e-20 -0.131179)
(-1.44399e-19 6.00191e-21 -0.21825)
(8.34933e-20 6.00834e-21 -0.341581)
(-2.12016e-22 -3.98093e-22 -0.500497)
(4.59833e-20 7.93387e-22 -0.630758)
(-3.31315e-21 7.2129e-21 0.00197052)
(3.38081e-20 -9.80456e-19 0.00198275)
(2.23998e-20 -9.40844e-19 0.00195504)
(7.35966e-21 2.34425e-20 0.00189728)
(-1.77176e-20 9.79891e-19 0.0018158)
(-2.4393e-20 -9.80846e-21 0.00171435)
(1.48801e-20 1.08091e-20 0.00159462)
(-4.34203e-20 9.52783e-19 0.0014565)
(3.21984e-20 -9.72529e-19 0.00129799)
(6.76691e-20 -9.31219e-19 0.00111534)
(-6.91019e-20 9.66633e-19 0.00090356)
(1.81717e-20 -2.41075e-20 0.000657264)
(5.6627e-20 -9.35266e-19 0.000371453)
(-8.9917e-20 9.62502e-19 4.16743e-05)
(5.26097e-21 1.48542e-20 -0.00033647)
(-1.8798e-19 1.76892e-18 -0.000768226)
(1.63512e-19 -1.84229e-18 -0.00126054)
(5.89553e-20 7.2868e-20 -0.00182266)
(-2.42584e-19 1.68905e-18 -0.00246696)
(2.14968e-19 -1.76879e-18 -0.00321141)
(-3.83049e-20 -4.26877e-21 -0.00408741)
(4.65834e-19 -1.60626e-18 -0.00516119)
(-4.29849e-19 1.66715e-18 -0.00658692)
(-8.28876e-20 -8.72781e-20 -0.0087258)
(7.0059e-19 -1.42096e-18 -0.0123842)
(-1.20091e-18 2.9675e-18 -0.0192257)
(-8.90623e-20 -1.65141e-19 -0.0323609)
(-1.25657e-19 -1.24139e-19 -0.0569876)
(8.32407e-19 -1.32847e-18 -0.100784)
(5.1019e-20 8.09487e-20 -0.173735)
(-1.03945e-18 9.22834e-19 -0.287332)
(1.01502e-18 -1.02187e-18 -0.452883)
(1.09503e-20 3.77884e-20 -0.675426)
(1.17026e-20 -3.34463e-21 -0.831776)
(-1.67241e-21 -1.96689e-20 0.000932828)
(1.77361e-20 -1.01697e-18 0.000899112)
(-6.80596e-21 -6.47264e-21 0.000823243)
(-1.92345e-22 1.45363e-22 0.000713372)
(1.39039e-20 1.02319e-20 0.000574578)
(-4.4981e-20 9.82828e-19 0.000409662)
(3.79495e-20 -1.00701e-18 0.000219642)
(1.54622e-20 1.01165e-20 3.81293e-06)
(-1.08562e-20 -1.54866e-20 -0.000240426)
(-7.45034e-21 1.19574e-20 -0.000517527)
(-6.36065e-20 9.54325e-19 -0.000833218)
(1.38594e-19 -1.95539e-18 -0.00119348)
(-6.33155e-20 1.02745e-18 -0.00160356)
(-1.67649e-19 1.89767e-18 -0.00206755)
(-3.16985e-20 -4.67122e-20 -0.00258857)
(8.71953e-21 -2.33029e-20 -0.00316922)
(-7.3441e-20 -5.58085e-20 -0.00381176)
(2.29997e-19 -1.91549e-18 -0.00451765)
(3.83866e-19 -1.77161e-18 -0.00528686)
(-3.31788e-19 1.87116e-18 -0.00611818)
(-4.13019e-20 -6.68085e-20 -0.00701445)
(4.45852e-19 -1.71406e-18 -0.00800166)
(-3.76893e-19 1.82965e-18 -0.00918295)
(-6.66188e-19 1.62281e-18 -0.0108687)
(5.43168e-19 -1.72819e-18 -0.0138503)
(9.51876e-20 -1.34798e-20 -0.019897)
(9.22378e-19 -1.56296e-18 -0.0325059)
(1.71517e-19 1.24336e-19 -0.0577853)
(-1.10606e-18 1.55309e-18 -0.105139)
(-2.21621e-20 -4.9998e-20 -0.187377)
(4.37952e-20 6.9056e-22 -0.320888)
(-4.27975e-20 2.05761e-20 -0.529813)
(-6.27043e-19 6.54036e-19 -0.856725)
(6.14848e-19 -6.66894e-19 -1.20461)
(-9.90814e-21 -2.61217e-21 0.000313369)
(-6.80952e-21 2.69552e-21 -0.013428)
(6.26209e-21 4.78031e-21 -0.0239057)
(-1.02291e-20 -1.49547e-20 -0.030963)
(1.06412e-20 7.9832e-21 -0.0346038)
(-4.36295e-22 1.3303e-21 -0.0351731)
(-8.81146e-23 -5.60526e-23 -0.0333029)
(-2.10363e-21 4.60084e-24 -0.0297728)
(2.03589e-21 -4.45269e-24 -0.0253591)
(-4.6623e-23 1.01969e-25 -0.0207173)
(-3.63791e-23 7.95646e-26 -0.0163221)
(7.48436e-22 -1.6369e-24 -0.0124601)
(-7.50847e-22 1.64218e-24 -0.00925734)
(-4.93261e-22 1.07881e-24 -0.00672332)
(7.2709e-23 -9.40905e-23 -0.00479521)
(2.77375e-21 8.22733e-20 -0.0033753)
(-2.10571e-21 -7.69633e-20 -0.0023574)
(-8.64637e-24 -8.82264e-23 -0.00164304)
(-3.29703e-24 9.11698e-23 -0.00114926)
(-1.43182e-21 -9.59613e-20 -0.000810808)
(1.4382e-21 9.60646e-20 -0.00057901)
(-9.35363e-22 -9.43867e-20 -0.000419022)
(-1.47631e-20 2.2379e-20 -0.00284846)
(-2.30871e-21 -2.91067e-20 -0.0431229)
(7.29135e-21 1.31378e-22 -0.0733446)
(-2.57818e-20 -2.14912e-20 -0.0932042)
(2.48957e-20 2.29942e-20 -0.102964)
(-6.91729e-21 5.45598e-21 -0.103825)
(4.63315e-21 -8.04842e-22 -0.0977388)
(-4.8275e-20 -1.40701e-19 -0.08701)
(5.07568e-20 1.32292e-19 -0.0738834)
(-8.95938e-21 -3.62236e-21 -0.060228)
(3.36318e-21 -7.67972e-21 -0.0473815)
(4.06413e-20 2.50683e-19 -0.0361406)
(-4.32805e-20 -2.48992e-19 -0.0268448)
(-3.46486e-20 -2.97174e-19 -0.019504)
(5.22491e-21 -2.0238e-20 -0.0139256)
(3.06143e-20 3.16685e-19 -0.00982064)
(-1.16144e-21 -4.85244e-21 -0.00687887)
(-8.95476e-22 -1.12213e-20 -0.00481396)
(1.45002e-24 -1.29203e-23 -0.00338552)
(8.49988e-23 -1.85901e-25 -0.00240485)
(3.20543e-22 4.61331e-24 -0.00173136)
(-4.11593e-22 -6.66171e-21 -0.00126457)
(-1.60698e-20 1.99778e-22 -0.0174017)
(4.01411e-20 2.0754e-20 -0.0814785)
(-1.91465e-20 -8.363e-21 -0.127768)
(-3.77912e-20 -1.23167e-20 -0.156474)
(1.4529e-20 6.21526e-21 -0.16891)
(-1.35375e-19 -2.01455e-19 -0.167598)
(1.44744e-19 1.88356e-19 -0.155936)
(1.76978e-19 3.27331e-19 -0.137632)
(-1.19859e-20 7.60714e-20 -0.116141)
(-3.25223e-19 -8.04223e-19 -0.094258)
(3.21358e-19 9.15449e-19 -0.0739355)
(-1.53657e-19 -4.6957e-19 -0.056301)
(-1.17394e-21 -1.13302e-20 -0.0418003)
(-8.54486e-22 -1.14944e-21 -0.0303934)
(1.05645e-19 6.64482e-19 -0.0217478)
(-1.47549e-20 2.3447e-20 -0.0153966)
(-8.86795e-20 -6.76964e-19 -0.0108486)
(3.53359e-21 2.18798e-20 -0.00765579)
(-1.02189e-21 3.36956e-23 -0.00544411)
(5.93605e-23 -4.26073e-22 -0.00392121)
(2.39294e-20 4.03309e-19 -0.00286994)
(-2.33238e-20 -3.89781e-19 -0.00213577)
(1.25269e-21 2.73931e-20 -0.0499751)
(8.95061e-21 -5.13448e-20 -0.134543)
(1.84297e-19 2.27731e-19 -0.19057)
(-4.73582e-19 -4.71919e-19 -0.221504)
(3.05571e-19 2.43022e-19 -0.231092)
(1.96967e-19 2.86857e-19 -0.223819)
(-2.19199e-19 -2.67175e-19 -0.204602)
(2.29026e-19 3.83672e-19 -0.178261)
(-4.71542e-19 -8.23164e-19 -0.149015)
(2.53251e-19 4.26207e-19 -0.120134)
(-4.82298e-21 1.30283e-20 -0.0938151)
(-4.29733e-21 6.88732e-22 -0.0712589)
(6.97963e-21 1.07542e-20 -0.0528672)
(-1.6745e-19 -6.66407e-19 -0.0384847)
(1.59259e-19 6.42944e-19 -0.0276294)
(1.99976e-21 2.36125e-20 -0.0196776)
(-3.57694e-22 -1.23184e-20 -0.0139932)
(9.78536e-20 7.67892e-19 -0.0100039)
(-9.80955e-20 -7.65971e-19 -0.00723655)
(-1.1442e-21 -1.35845e-20 -0.00532368)
(-4.08547e-22 -1.58986e-23 -0.00399366)
(6.36235e-22 8.21171e-23 -0.00305419)
(2.79101e-20 -5.07882e-23 -0.109758)
(-1.20965e-21 -9.59164e-22 -0.209296)
(-5.80732e-20 -2.02232e-21 -0.264779)
(7.56534e-20 -3.76937e-21 -0.28852)
(-2.86159e-20 -8.05693e-21 -0.288157)
(-3.05228e-20 -1.56994e-21 -0.270487)
(1.52917e-20 5.42887e-21 -0.241652)
(-7.64117e-21 -7.25325e-21 -0.207016)
(3.95985e-20 -1.73498e-20 -0.170939)
(5.48452e-19 1.11599e-18 -0.136611)
(-4.79188e-20 8.01812e-20 -0.106058)
(-5.32268e-19 -1.22011e-18 -0.080282)
(4.43219e-19 1.33295e-18 -0.0594938)
(-4.50498e-19 -1.33146e-18 -0.0433661)
(1.76903e-19 7.27981e-19 -0.0312666)
(-1.83197e-19 -7.52089e-19 -0.0224439)
(3.24838e-21 1.03732e-20 -0.0161576)
(-6.35471e-21 -1.21571e-20 -0.0117533)
(2.44612e-21 -1.28044e-20 -0.00869629)
(1.46284e-21 1.28271e-20 -0.0065748)
(1.3573e-21 4.33856e-23 -0.00508713)
(-3.89962e-21 -2.68044e-20 -0.00402101)
(-2.9619e-22 1.00704e-21 -0.00323317)
(-8.61192e-20 6.96428e-22 -0.205991)
(2.8278e-20 2.89005e-20 -0.313291)
(-3.45977e-19 -4.81661e-19 -0.351985)
(3.92652e-19 4.30898e-19 -0.356332)
(-3.2276e-20 4.89218e-20 -0.338376)
(-6.17724e-19 -9.02083e-19 -0.306308)
(-3.52248e-20 -1.43918e-19 -0.266455)
(-1.82053e-20 -1.12833e-19 -0.223831)
(1.42399e-18 2.36818e-18 -0.182202)
(-7.48639e-19 -1.1825e-18 -0.144135)
(3.83809e-20 6.59424e-22 -0.111118)
(6.20383e-19 1.43295e-18 -0.0837488)
(-6.20156e-19 -1.40397e-18 -0.0619529)
(6.62312e-21 -2.85948e-21 -0.0452069)
(-4.39984e-19 -1.57599e-18 -0.0327435)
(4.46562e-19 1.57587e-18 -0.0237178)
(-1.14092e-20 -4.81547e-21 -0.0173238)
(-3.09621e-19 -1.68608e-18 -0.0128629)
(3.14865e-19 1.68937e-18 -0.00977114)
(-2.67339e-21 -1.16879e-20 -0.00761951)
(1.11609e-19 8.85237e-19 -0.00609699)
(-1.03811e-19 -8.53127e-19 -0.00498831)
(-2.25714e-21 -2.37815e-21 -0.00414899)
(-1.97893e-19 -2.04471e-19 -0.36377)
(2.28456e-19 1.64663e-19 -0.433124)
(-3.06914e-21 3.65629e-20 -0.426145)
(-3.45982e-20 -3.60639e-22 -0.398972)
(2.33315e-20 -1.67214e-20 -0.359865)
(8.00981e-19 1.154e-18 -0.313787)
(1.2654e-20 1.61086e-19 -0.265236)
(-8.35338e-19 -1.2787e-18 -0.217825)
(-1.98717e-20 2.81855e-21 -0.174065)
(-7.93657e-19 -1.51315e-18 -0.135514)
(8.22491e-19 1.46078e-18 -0.102944)
(6.97688e-19 1.61938e-18 -0.0764885)
(-7.15364e-19 -1.58175e-18 -0.0557915)
(9.32442e-21 -1.50422e-20 -0.040169)
(5.39407e-19 1.71036e-18 -0.0287649)
(-5.46664e-19 -1.68758e-18 -0.0206876)
(-4.22331e-19 -1.7683e-18 -0.0151099)
(5.3074e-20 -3.72731e-20 -0.0113279)
(3.81039e-20 -3.03468e-20 -0.00878333)
(4.05129e-20 -1.74297e-20 -0.00705958)
(2.94025e-19 1.82454e-18 -0.00586195)
(1.13644e-19 9.2672e-19 -0.00499213)
(-2.22028e-19 -1.87181e-18 -0.00432366)
(8.0091e-20 1.46728e-19 -0.303349)
(-4.48846e-20 -0 -0.325272)
(2.93175e-22 -0 -0.315673)
(0 -0 -0.290997)
(-2.33143e-22 -0 -0.258932)
(-2.56441e-20 -0 -0.223638)
(3.25512e-21 -0 -0.187603)
(2.25487e-20 -0 -0.152579)
(-1.30779e-22 -0 -0.119921)
(1.40573e-20 -0 -0.090662)
(-1.39049e-20 -0 -0.0655034)
(-1.00669e-20 -0 -0.0447871)
(1.00239e-20 -0 -0.0284917)
(0 -0 -0.0162797)
(-6.27666e-21 -0 -0.00759186)
(6.24974e-21 -0 -0.00176049)
(4.80519e-21 -0 0.00188835)
(-5.00708e-22 -0 0.0039617)
(-3.96324e-22 -0 0.00496082)
(-3.39625e-22 -0 0.00527106)
(-3.52418e-21 -0 0.00517087)
(-1.50987e-21 -0 0.00484975)
(2.97392e-21 -0 0.00443023)
(1.44151e-21 -0 0.00398474)
(0 -8.30017e-20 -0.431818)
(0 -0 -0.390266)
(0 -0 -0.35212)
(0 -0 -0.311132)
(0 -0 -0.268474)
(0 -0 -0.226325)
(0 -0 -0.186284)
(0 -0 -0.149403)
(0 -0 -0.11639)
(0 -0 -0.0876999)
(0 -0 -0.0635595)
(0 -0 -0.0439611)
(0 -0 -0.0286624)
(0 -0 -0.017218)
(0 -0 -0.00904325)
(0 -0 -0.00349565)
(0 -0 5.01439e-05)
(0 -0 0.00214759)
(0 -0 0.00324998)
(0 -0 0.00370492)
(0 -0 0.00376388)
(0 -0 0.00359945)
(0 -0 0.00332321)
(0 6.43158e-22 -0.475951)
(0 -0 -0.414543)
(0 -0 -0.36033)
(0 -0 -0.308804)
(0 -0 -0.259793)
(0 -0 -0.214369)
(0 -0 -0.173339)
(0 -0 -0.137102)
(0 -0 -0.105784)
(0 -0 -0.0793315)
(0 -0 -0.0575582)
(0 -0 -0.0401571)
(0 -0 -0.0267061)
(0 -0 -0.0166854)
(0 -0 -0.00951598)
(0 -0 -0.0046099)
(0 -0 -0.00141862)
(0 -0 0.000532312)
(0 -0 0.00162666)
(0 -0 0.00215697)
(0 -0 0.00233466)
(0 -0 0.00230511)
(0 -0 0.00216413)
(0 -0 -0.458242)
(0 -0 -0.393764)
(0 -0 -0.33548)
(0 -0 -0.281652)
(0 -0 -0.232374)
(0 -0 -0.188314)
(0 -0 -0.149816)
(0 -0 -0.116853)
(0 -0 -0.0891644)
(0 -0 -0.0663629)
(0 -0 -0.0479927)
(0 -0 -0.0335592)
(0 -0 -0.0225397)
(0 -0 -0.0143939)
(0 -0 -0.00858345)
(0 -0 -0.00459851)
(0 -0 -0.00198359)
(0 -0 -0.000355115)
(0 -0 0.000592021)
(0 -0 0.00108808)
(0 -0 0.00129859)
(0 -0 0.00133721)
(0 -0 0.00127899)
(0 -5.62559e-22 -0.401739)
(0 -0 -0.342127)
(0 -0 -0.287764)
(0 -0 -0.238139)
(0 -0 -0.193616)
(0 -0 -0.154644)
(0 -0 -0.121318)
(0 -0 -0.0934018)
(0 -0 -0.0704632)
(0 -0 -0.0519714)
(0 -0 -0.0373631)
(0 -0 -0.0260793)
(0 -0 -0.0175822)
(0 -0 -0.0113641)
(0 -0 -0.00695588)
(0 -0 -0.00393834)
(0 -0 -0.00195186)
(0 -0 -0.000702111)
(0 -0 4.05629e-05)
(0 -0 0.000447242)
(0 -0 0.000639845)
(0 -0 0.000701637)
(0 -0 0.00068766)
(0 -6.22957e-20 -0.326592)
(0 -0 -0.275854)
(0 -0 -0.229764)
(0 -0 -0.188087)
(0 -0 -0.15121)
(0 -0 -0.119383)
(0 -0 -0.0925565)
(0 -0 -0.0704282)
(0 -0 -0.0525452)
(0 -0 -0.038379)
(0 -0 -0.0273821)
(0 -0 -0.0190261)
(0 -0 -0.0128234)
(0 -0 -0.00833643)
(0 -0 -0.00518174)
(0 -0 -0.00303231)
(0 -0 -0.00161796)
(0 -0 -0.000723742)
(0 -0 -0.000185352)
(0 -0 0.000117787)
(0 -0 0.000270684)
(0 -0 0.000330916)
(0 -0 0.000336475)
(0 6.25196e-20 -0.248574)
(0 -0 -0.208292)
(0 -0 -0.172097)
(0 -0 -0.139669)
(0 -0 -0.111289)
(0 -0 -0.0870439)
(0 -0 -0.0668082)
(0 -0 -0.050297)
(0 -0 -0.0371218)
(0 -0 -0.0268362)
(0 -0 -0.0189771)
(0 -0 -0.0131001)
(0 -0 -0.00880177)
(0 -0 -0.00573153)
(0 -0 -0.003594)
(0 -0 -0.00214703)
(0 -0 -0.00119749)
(0 -0 -0.000596028)
(0 -0 -0.000230885)
(0 -0 -2.13512e-05)
(0 -0 8.87955e-05)
(0 -0 0.000137247)
(0 -0 0.000148815)
(0 3.90128e-22 -0.178186)
(0 -0 -0.148175)
(0 -0 -0.121614)
(0 -0 -0.0980212)
(0 -0 -0.0775502)
(0 -0 -0.0601842)
(0 -0 -0.0457824)
(0 -0 -0.034119)
(0 -0 -0.0249041)
(0 -0 -0.017802)
(0 -0 -0.0124579)
(0 -0 -0.00852693)
(0 -0 -0.00569789)
(0 -0 -0.00370581)
(0 -0 -0.00233465)
(0 -0 -0.00141377)
(0 -0 -0.000811893)
(0 -0 -0.000430481)
(0 -0 -0.000197511)
(0 -0 -6.18301e-05)
(0 -0 1.17378e-05)
(0 -0 4.65016e-05)
(0 -0 5.77974e-05)
(0 -3.38238e-22 -0.12081)
(0 -0 -0.0997332)
(0 -0 -0.0814308)
(0 -0 -0.0652922)
(0 -0 -0.0513709)
(0 -0 -0.0396038)
(0 -0 -0.0298732)
(0 -0 -0.0220278)
(0 -0 -0.0158786)
(0 -0 -0.0111978)
(0 -0 -0.007733)
(0 -0 -0.00523245)
(0 -0 -0.0034676)
(0 -0 -0.00224675)
(0 -0 -0.00141838)
(0 -0 -0.000867487)
(0 -0 -0.000509196)
(0 -0 -0.000282078)
(0 -0 -0.000142485)
(0 -0 -6.00197e-05)
(0 -0 -1.40722e-05)
(0 -0 8.82945e-06)
(0 -0 1.75948e-05)
(0 3.60514e-20 -0.0777497)
(0 -0 -0.0637253)
(0 -0 -0.0518449)
(0 -0 -0.04143)
(0 -0 -0.0324672)
(0 -0 -0.0248851)
(0 -0 -0.0186056)
(0 -0 -0.0135482)
(0 -0 -0.00960983)
(0 -0 -0.00665175)
(0 -0 -0.00450583)
(0 -0 -0.00299567)
(0 -0 -0.00195857)
(0 -0 -0.00125949)
(0 -0 -0.000795103)
(0 -0 -0.000490659)
(0 -0 -0.000293935)
(0 -0 -0.000169065)
(0 -0 -9.16073e-05)
(0 -0 -4.50185e-05)
(0 -0 -1.82846e-05)
(0 -0 -4.34284e-06)
(0 -0 1.56534e-06)
(0 -3.5648e-20 -0.0476578)
(0 -0 -0.0387627)
(0 -0 -0.0314854)
(0 -0 -0.0251328)
(0 -0 -0.0196529)
(0 -0 -0.0149833)
(0 -0 -0.0110851)
(0 -0 -0.00793468)
(0 -0 -0.00549394)
(0 -0 -0.00369013)
(0 -0 -0.00241763)
(0 -0 -0.00155589)
(0 -0 -0.000990279)
(0 -0 -0.000626238)
(0 -0 -0.000393909)
(0 -0 -0.000245766)
(0 -0 -0.000151186)
(0 -0 -9.09208e-05)
(0 -0 -5.28567e-05)
(0 -0 -2.92481e-05)
(0 -0 -1.51218e-05)
(0 -0 -7.41134e-06)
(0 -0 -3.93018e-06)
(0 -2.72831e-20 -0.0279197)
(0 -0 -0.0225015)
(0 -0 -0.0182983)
(0 -0 -0.0146385)
(0 -0 -0.0114506)
(0 -0 -0.00868493)
(0 -0 -0.00633392)
(0 -0 -0.00441398)
(0 -0 -0.00293144)
(0 -0 -0.00185889)
(0 -0 -0.00113381)
(0 -0 -0.000674227)
(0 -0 -0.000398397)
(0 -0 -0.000238826)
(0 -0 -0.000147446)
(0 -0 -9.39884e-05)
(0 -0 -6.12492e-05)
(0 -0 -4.01616e-05)
(0 -0 -2.61029e-05)
(0 -0 -1.66458e-05)
(0 -0 -1.0453e-05)
(0 -0 -6.85084e-06)
(0 -0 -5.18988e-06)
(0 2.71713e-20 -0.0156868)
(0 -0 -0.0124903)
(0 -0 -0.0102174)
(0 -0 -0.00823885)
(0 -0 -0.00647446)
(0 -0 -0.00488585)
(0 -0 -0.00348666)
(0 -0 -0.00231903)
(0 -0 -0.0014175)
(0 -0 -0.000783772)
(0 -0 -0.0003835)
(0 -0 -0.000160021)
(0 -0 -5.29206e-05)
(0 -0 -1.18151e-05)
(0 -0 -1.975e-06)
(0 -0 -3.3783e-06)
(0 -0 -6.61173e-06)
(0 -0 -8.45432e-06)
(0 -0 -8.57081e-06)
(0 -0 -7.58434e-06)
(0 -0 -6.24926e-06)
(0 -0 -5.26983e-06)
(0 -0 -4.88698e-06)
(0 -0 -0.0084775)
(0 -0 -0.0066374)
(0 -0 -0.00551479)
(0 -0 -0.00453292)
(0 -0 -0.00360861)
(0 -0 -0.00271174)
(0 -0 -0.00186922)
(0 -0 -0.00113852)
(0 -0 -0.000571039)
(0 -0 -0.00018638)
(0 -0 3.20907e-05)
(0 -0 0.000125042)
(0 -0 0.000139622)
(0 -0 0.000115922)
(0 -0 8.09992e-05)
(0 -0 4.92271e-05)
(0 -0 2.58466e-05)
(0 -0 1.09812e-05)
(0 -0 2.68298e-06)
(0 -0 -1.31776e-06)
(0 -0 -2.92126e-06)
(0 -0 -3.59456e-06)
(0 -0 -4.08104e-06)
(0 -1.87184e-20 -0.00441012)
(0 -0 -0.00337483)
(0 -0 -0.00291009)
(0 -0 -0.0024942)
(0 -0 -0.00204405)
(0 -0 -0.00153536)
(0 -0 -0.00100302)
(0 -0 -0.000513292)
(0 -0 -0.000127309)
(0 -0 0.000124583)
(0 -0 0.000248123)
(0 -0 0.0002741)
(0 -0 0.000241656)
(0 -0 0.000184969)
(0 -0 0.000126976)
(0 -0 7.92303e-05)
(0 -0 4.49838e-05)
(0 -0 2.29026e-05)
(0 -0 9.94228e-06)
(0 -0 3.01366e-06)
(0 -0 -3.75134e-07)
(0 -0 -2.09554e-06)
(0 -0 -3.16903e-06)
(0 1.86415e-20 -0.00219591)
(0 -0 -0.0016355)
(0 -0 -0.00153719)
(0 -0 -0.0014326)
(0 -0 -0.00124027)
(0 -0 -0.000940295)
(0 -0 -0.000572542)
(0 -0 -0.000208348)
(0 -0 8.54956e-05)
(0 -0 0.000272207)
(0 -0 0.000350832)
(0 -0 0.000346099)
(0 -0 0.000292407)
(0 -0 0.000220678)
(0 -0 0.000151833)
(0 -0 9.6225e-05)
(0 -0 5.63567e-05)
(0 -0 3.0355e-05)
(0 -0 1.4743e-05)
(0 -0 6.0754e-06)
(0 -0 1.57975e-06)
(0 -0 -8.185e-07)
(0 -0 -2.29284e-06)
(0 1.48908e-20 -0.00102156)
(0 -0 -0.000747825)
(0 -0 -0.000852321)
(0 -0 -0.00091598)
(0 -0 -0.000859789)
(0 -0 -0.000667469)
(0 -0 -0.000382342)
(0 -0 -7.89356e-05)
(0 -0 0.000172532)
(0 -0 0.000331316)
(0 -0 0.000392275)
(0 -0 0.000376389)
(0 -0 0.000315262)
(0 -0 0.000238095)
(0 -0 0.00016496)
(0 -0 0.000105884)
(0 -0 6.32638e-05)
(0 -0 3.51679e-05)
(0 -0 1.80351e-05)
(0 -0 8.30928e-06)
(0 -0 3.10474e-06)
(0 -0 2.53496e-07)
(0 -0 -1.49999e-06)
(0 -1.48293e-20 -0.000407425)
(0 -0 -0.000315917)
(0 -0 -0.000534904)
(0 -0 -0.000689604)
(0 -0 -0.000703815)
(0 -0 -0.000564529)
(0 -0 -0.000317833)
(0 -0 -4.05366e-05)
(0 -0 0.000194886)
(0 -0 0.00034513)
(0 -0 0.000402358)
(0 -0 0.000385181)
(0 -0 0.000323539)
(0 -0 0.000245765)
(0 -0 0.000171686)
(0 -0 0.000111426)
(0 -0 6.75847e-05)
(0 -0 3.83948e-05)
(0 -0 2.03772e-05)
(0 -0 9.9871e-06)
(0 -0 4.31164e-06)
(0 -0 1.14786e-06)
(0 -0 -8.03096e-07)
(0 -0 -8.6322e-05)
(0 -0 -0.000119114)
(0 -0 -0.00040593)
(0 -0 -0.000611023)
(0 -0 -0.000661114)
(0 -0 -0.000546283)
(0 -0 -0.000315077)
(0 -0 -4.61574e-05)
(0 -0 0.000186369)
(0 -0 0.000337461)
(0 -0 0.000397491)
(0 -0 0.000383532)
(0 -0 0.000324514)
(0 -0 0.000248358)
(0 -0 0.000174928)
(0 -0 0.000114624)
(0 -0 7.03629e-05)
(0 -0 4.0628e-05)
(0 -0 2.20904e-05)
(0 -0 1.12717e-05)
(0 -0 5.27397e-06)
(0 -0 1.8899e-06)
(0 -0 -2.0125e-07)
(0 -0 8.38057e-05)
(0 -0 -4.01048e-05)
(0 -0 -0.000370008)
(0 -0 -0.000604186)
(0 -0 -0.000672252)
(0 -0 -0.000567243)
(0 -0 -0.000340018)
(0 -0 -7.08686e-05)
(0 -0 0.000164835)
(0 -0 0.000320832)
(0 -0 0.000386282)
(0 -0 0.000377244)
(0 -0 0.000322022)
(0 -0 0.00024835)
(0 -0 0.000176249)
(0 -0 0.000116439)
(0 -0 7.21734e-05)
(0 -0 4.2201e-05)
(0 -0 2.33616e-05)
(0 -0 1.22632e-05)
(0 -0 6.04205e-06)
(0 -0 2.50211e-06)
(0 -0 3.1274e-07)
(0 -7.79386e-23 0.000175826)
(0 -0 -1.88887e-05)
(0 -0 -0.000378283)
(0 -0 -0.000630116)
(0 -0 -0.000706784)
(0 -0 -0.000604169)
(0 -0 -0.000375341)
(0 -0 -0.000102074)
(0 -0 0.000139247)
(0 -0 0.000301502)
(0 -0 0.000373037)
(0 -0 0.000369236)
(0 -0 0.000318011)
(0 -0 0.000247024)
(0 -0 0.000176477)
(0 -0 0.000117393)
(0 -0 7.33382e-05)
(0 -0 4.3308e-05)
(0 -0 2.43055e-05)
(0 -0 1.30281e-05)
(0 -0 6.65369e-06)
(0 -0 3.00537e-06)
(0 -0 7.49574e-07)
(0 -4.36956e-21 0.000226312)
(0 -0 -2.56456e-05)
(0 -0 -0.000406528)
(0 -0 -0.000669544)
(0 -0 -0.000749738)
(0 -0 -0.000645722)
(0 -0 -0.000412686)
(0 -0 -0.000133768)
(0 -0 0.000113833)
(0 -0 0.000282408)
(0 -0 0.00035978)
(0 -0 0.000360903)
(0 -0 0.00031344)
(0 -0 0.000245034)
(0 -0 0.000176051)
(0 -0 0.000117777)
(0 -0 7.40467e-05)
(0 -0 4.40703e-05)
(0 -0 2.4999e-05)
(0 -0 1.36151e-05)
(0 -0 7.13991e-06)
(0 -0 3.41964e-06)
(0 -0 1.12254e-06)
(0 8.2902e-21 0.000253565)
(0 -0 -4.57928e-05)
(0 -0 -0.000443014)
(0 -0 -0.000713249)
(0 -0 -0.000794055)
(0 -0 -0.000686663)
(0 -0 -0.000448289)
(0 -0 -0.00016332)
(0 -0 9.03992e-05)
(0 -0 0.000264792)
(0 -0 0.000347383)
(0 -0 0.00035287)
(0 -0 0.000308766)
(0 -0 0.000242714)
(0 -0 0.000175215)
(0 -0 0.000117765)
(0 -0 7.44193e-05)
(0 -0 4.45707e-05)
(0 -0 2.54984e-05)
(0 -0 1.40626e-05)
(0 -0 7.52721e-06)
(0 -0 3.76393e-06)
(0 -0 1.44632e-06)
(0 -3.9224e-21 0.000266943)
(0 -0 -7.21997e-05)
(0 -0 -0.000482145)
(0 -0 -0.000756958)
(0 -0 -0.000836585)
(0 -0 -0.000724764)
(0 -0 -0.000480647)
(0 -0 -0.000189754)
(0 -0 6.95729e-05)
(0 -0 0.000249072)
(0 -0 0.00033615)
(0 -0 0.00034538)
(0 -0 0.000304194)
(0 -0 0.000240236)
(0 -0 0.000174107)
(0 -0 0.000117466)
(0 -0 7.45383e-05)
(0 -0 4.48689e-05)
(0 -0 2.58464e-05)
(0 -0 1.4401e-05)
(0 -0 7.83783e-06)
(0 -0 4.05539e-06)
(0 -0 1.73485e-06)
(0 -0 0.000271473)
(0 -0 -0.000101313)
(0 -0 -0.000521264)
(0 -0 -0.000798768)
(0 -0 -0.000876043)
(0 -0 -0.000759232)
(0 -0 -0.000509325)
(0 -0 -0.00021287)
(0 -0 5.14331e-05)
(0 -0 0.000235289)
(0 -0 0.000326126)
(0 -0 0.000338502)
(0 -0 0.000299808)
(0 -0 0.000237692)
(0 -0 0.000172816)
(0 -0 0.000116953)
(0 -0 7.44619e-05)
(0 -0 4.50087e-05)
(0 -0 2.60748e-05)
(0 -0 1.46529e-05)
(0 -0 8.08827e-06)
(0 -0 4.30721e-06)
(0 -0 2.00023e-06)
(0 -4.60906e-23 0.000270056)
(0 -0 -0.000131294)
(0 -0 -0.000559115)
(0 -0 -0.00083789)
(0 -0 -0.00091201)
(0 -0 -0.000789925)
(0 -0 -0.000534366)
(0 -0 -0.000232803)
(0 -0 3.58255e-05)
(0 -0 0.000223319)
(0 -0 0.000317245)
(0 -0 0.000332222)
(0 -0 0.000295638)
(0 -0 0.00023513)
(0 -0 0.000171393)
(0 -0 0.000116274)
(0 -0 7.42292e-05)
(0 -0 4.50187e-05)
(0 -0 2.62027e-05)
(0 -0 1.48307e-05)
(0 -0 8.28665e-06)
(0 -0 4.52668e-06)
(0 -0 2.25245e-06)
(0 -0 0.000264496)
(0 -0 -0.00016115)
(0 -0 -0.000595109)
(0 -0 -0.000874052)
(0 -0 -0.000944458)
(0 -0 -0.000816984)
(0 -0 -0.000556008)
(0 -0 -0.000249819)
(0 -0 2.25101e-05)
(0 -0 0.000212983)
(0 -0 0.000309399)
(0 -0 0.000326495)
(0 -0 0.000291679)
(0 -0 0.000232572)
(0 -0 0.00016987)
(0 -0 0.000115459)
(0 -0 7.3861e-05)
(0 -0 4.49113e-05)
(0 -0 2.62355e-05)
(0 -0 1.49342e-05)
(0 -0 8.43029e-06)
(0 -0 4.71429e-06)
(0 -0 2.50037e-06)
(0 2.32836e-21 0.00025598)
(0 -0 -0.000190343)
(0 -0 -0.000628993)
(0 -0 -0.000907234)
(0 -0 -0.000973536)
(0 -0 -0.000840669)
(0 -0 -0.000574561)
(0 -0 -0.000264227)
(0 -0 1.12243e-05)
(0 -0 0.000204087)
(0 -0 0.000302462)
(0 -0 0.000321256)
(0 -0 0.00028791)
(0 -0 0.000230019)
(0 -0 0.000168255)
(0 -0 0.000114514)
(0 -0 7.33596e-05)
(0 -0 4.46822e-05)
(0 -0 2.61629e-05)
(0 -0 1.49488e-05)
(0 -0 8.50454e-06)
(0 -0 4.86418e-06)
(0 -0 2.74618e-06)
(0 -4.40571e-21 0.000245265)
(0 -0 -0.000218621)
(0 -0 -0.00066075)
(0 -0 -0.000937564)
(0 -0 -0.000999494)
(0 -0 -0.000861303)
(0 -0 -0.000590373)
(0 -0 -0.000276353)
(0 -0 1.69108e-06)
(0 -0 0.000196419)
(0 -0 0.000296292)
(0 -0 0.000316417)
(0 -0 0.00028428)
(0 -0 0.00022744)
(0 -0 0.000166526)
(0 -0 0.000113418)
(0 -0 7.26992e-05)
(0 -0 4.43012e-05)
(0 -0 2.59506e-05)
(0 -0 1.4838e-05)
(0 -0 8.47412e-06)
(0 -0 4.93048e-06)
(0 -0 2.91683e-06)
(0 2.07836e-21 0.000232829)
(0 -0 -0.000245815)
(0 -0 -0.000690434)
(0 -0 -0.000965269)
(0 -0 -0.00102263)
(0 -0 -0.000879227)
(0 -0 -0.000603792)
(0 -0 -0.00028652)
(0 -0 -6.35871e-06)
(0 -0 0.000189774)
(0 -0 0.000290743)
(0 -0 0.000311881)
(0 -0 0.000280728)
(0 -0 0.000224794)
(0 -0 0.000164649)
(0 -0 0.000112137)
(0 -0 7.18451e-05)
(0 -0 4.37306e-05)
(0 -0 2.55587e-05)
(0 -0 1.45597e-05)
(0 -0 8.28391e-06)
(0 -0 4.85152e-06)
(0 -0 2.98092e-06)
(0 -0 0.000219478)
(0 -0 -0.000271836)
(0 -0 -0.000717896)
(0 -0 -0.000990369)
(0 -0 -0.00104308)
(0 -0 -0.000894608)
(0 -0 -0.000614981)
(0 -0 -0.000294864)
(0 -0 -1.30193e-05)
(0 -0 0.000184108)
(0 -0 0.000285821)
(0 -0 0.000307695)
(0 -0 0.000277324)
(0 -0 0.000222166)
(0 -0 0.000162712)
(0 -0 0.000110758)
(0 -0 7.08772e-05)
(0 -0 4.30439e-05)
(0 -0 2.50538e-05)
(0 -0 1.41713e-05)
(0 -0 7.98373e-06)
(0 -0 4.64939e-06)
(0 -0 2.86436e-06)
(0 -0 -0.000296103)
(0 -0 -0.000743186)
(0 -0 -0.00101275)
(0 -0 -0.00106074)
(0 -0 -0.000907353)
(0 -0 -0.000623843)
(0 -0 -0.000301266)
(0 -0 -1.81405e-05)
(0 -0 0.000179606)
(0 -0 0.000281738)
(0 -0 0.000304091)
(0 -0 0.000274312)