/*--------------------------------*- C++ -*----------------------------------*\
| =========                 |                                                 |
| \\      /  F ield         | OpenFOAM: The Open Source CFD Toolbox           |
|  \\    /   O peration     | Version:  2412                                  |
|   \\  /    A nd           | Website:  www.openfoam.com                      |
|    \\/     M anipulation  |                                                 |
\*---------------------------------------------------------------------------*/
FoamFile
{
    version     2.0;
    format      ascii;
    arch        "LSB;label=32;scalar=64";
    class       surfaceScalarField;
    location    "11";
    object      phi;
}
// * * * * * * * * * * * * * * * * * * * * * * * * * * * * * * * * * * * * * //

dimensions      [0 3 -1 0 0 0 0];

oriented        oriented;

internalField   nonuniform List<scalar> 
10423
(
-2.83961e-05
-0.00607453
0.00603743
-2.64868e-05
-0.00603934
0.00603312
-5.94443e-05
0.00602649
-9.18884e-05
0.0060176
-0.000123687
0.00600656
-0.000154661
0.00599348
-0.000184598
0.00597851
-0.000213302
0.00596178
-0.000240606
0.00594347
-0.000266374
0.00592374
-0.000290501
0.00590276
-0.000312916
0.00588073
-0.00033358
0.00585783
-0.000352484
0.00583423
-0.000369639
0.0058101
-0.000385072
0.00578562
-0.000398816
0.00576095
-0.000410907
0.00573622
-0.000421378
0.00571158
-0.000430259
0.00568715
-0.00043758
0.00566304
-0.000443372
0.00563936
-0.000447674
-0.000450534
0.00600482
-2.47479e-05
-0.00600656
0.00600089
-5.55184e-05
0.00599484
-8.58356e-05
0.00598673
-0.000115578
0.00597665
-0.000144582
0.00596471
-0.000172652
0.00595101
-0.000199608
0.0059357
-0.000225297
0.00591892
-0.000249593
0.00590082
-0.000272401
0.00588156
-0.000293654
0.0058613
-0.000313319
0.0058402
-0.000331385
0.00581843
-0.000347862
0.00579613
-0.000362772
0.00577345
-0.000376142
0.00575055
-0.000388001
0.00572754
-0.000398372
0.00570456
-0.000407278
0.00568172
-0.000414737
0.00565912
-0.000420772
0.00563685
-0.000425411
-0.000428693
0.00597437
-2.31545e-05
-0.00597597
0.00597078
-5.19277e-05
0.00596525
-8.03006e-05
0.00595783
-0.000108161
0.00594861
-0.000135359
0.00593767
-0.000161715
0.00592513
-0.000187063
0.00591109
-0.000211263
0.0058957
-0.000234197
0.00587908
-0.000255779
0.00586137
-0.000275946
0.00584272
-0.000294669
0.00582327
-0.000311936
0.00580316
-0.000327756
0.00578254
-0.000342148
0.00576153
-0.000355132
0.00574026
-0.000366731
0.00571885
-0.000376962
0.00569741
-0.000385839
0.00567605
-0.000393373
0.00565485
-0.000399578
0.00563392
-0.000404476
-0.000408098
0.00594591
-2.16852e-05
-0.00594737
0.00594261
-4.86311e-05
0.00593753
-7.52238e-05
0.00593073
-0.00010136
0.00592227
-0.000126902
0.00591224
-0.000151683
0.00590073
-0.000175552
0.00588784
-0.000198378
0.0058737
-0.000220053
0.00585842
-0.000240496
0.00584212
-0.000259651
0.00582494
-0.000277487
0.005807
-0.000293996
0.00578843
-0.000309184
0.00576934
-0.000323065
0.00574987
-0.000335656
0.00573011
-0.000346975
0.00571018
-0.000357031
0.00569017
-0.000365833
0.00567019
-0.000373387
0.00565031
-0.0003797
0.00563062
-0.000384789
-0.000388677
0.00591925
-2.03219e-05
-0.00592061
0.00591621
-4.55928e-05
0.00591154
-7.05529e-05
0.00590529
-9.51071e-05
0.00589751
-0.000119128
0.00588829
-0.000142462
0.00587771
-0.00016497
0.00586586
-0.000186529
0.00585285
-0.000207041
0.00583878
-0.000226429
0.00582377
-0.00024464
0.00580793
-0.000261646
0.00579137
-0.000277437
0.00577421
-0.000292018
0.00575654
-0.000305399
0.00573848
-0.000317595
0.00572012
-0.000328616
0.00570156
-0.000338469
0.00568289
-0.000347158
0.00566418
-0.000354684
0.00564554
-0.000361051
0.00562701
-0.000366268
-0.000370358
0.00589427
-1.90495e-05
-0.00589554
0.00589146
-4.27821e-05
0.00588715
-6.62427e-05
0.00588138
-8.93433e-05
0.00587422
-0.000111966
0.00586573
-0.00013397
0.00585598
-0.000155225
0.00584507
-0.000175619
0.00583309
-0.000195057
0.00582013
-0.000213467
0.00580629
-0.000230801
0.00579167
-0.00024703
0.00577638
-0.000262143
0.0057605
-0.000276143
0.00574414
-0.000289038
0.00572738
-0.000300837
0.00571032
-0.000311549
0.00569302
-0.000321177
0.00567559
-0.00032972
0.00565808
-0.000337176
0.00564058
-0.000343548
0.00562315
-0.000348841
-0.000353075
0.00587083
-1.78558e-05
-0.00587202
0.00586822
-4.01731e-05
0.00586423
-6.2254e-05
0.00585891
-8.40175e-05
0.00585229
-0.000105354
0.00584446
-0.000126134
0.00583547
-0.000146237
0.00582541
-0.000165556
0.00581435
-0.000184003
0.0058024
-0.00020151
0.00578963
-0.000218029
0.00577613
-0.000233532
0.00576199
-0.000248007
0.0057473
-0.000261453
0.00573214
-0.000273876
0.00571658
-0.000285282
0.00570071
-0.000295676
0.00568459
-0.000305058
0.0056683
-0.000313427
0.0056519
-0.000320779
0.00563547
-0.000327114
0.00561906
-0.000332437
-0.000336763
0.00584882
-1.67314e-05
-0.00584995
0.00584639
-3.77441e-05
0.00584269
-5.85537e-05
0.00583776
-7.90853e-05
0.00583164
-9.9238e-05
0.0058244
-0.000118891
0.0058161
-0.000137932
0.0058068
-0.000156262
0.0057966
-0.000173795
0.00578555
-0.000190467
0.00577375
-0.00020623
0.00576128
-0.000221056
0.0057482
-0.00023493
0.00573459
-0.000247848
0.00572053
-0.000259815
0.00570608
-0.000270832
0.00569131
-0.000280902
0.00567628
-0.000290025
0.00566105
-0.000298196
0.00564568
-0.000305413
0.00563024
-0.000311675
0.00561479
-0.000316986
-0.000321363
0.00582815
-1.56694e-05
-0.00582921
0.00582588
-3.54774e-05
0.00582244
-5.51134e-05
0.00581786
-7.45086e-05
0.0058122
-9.35694e-05
0.00580549
-0.000112184
0.0057978
-0.000130247
0.00578921
-0.000147664
0.00577977
-0.000164355
0.00576955
-0.000180255
0.00575864
-0.000195317
0.0057471
-0.000209511
0.00573499
-0.000222819
0.00572237
-0.000235237
0.00570932
-0.000246762
0.00569589
-0.000257397
0.00568212
-0.00026714
0.00566809
-0.000275992
0.00565384
-0.000283947
0.00563943
-0.000291003
0.00562492
-0.000297161
0.00561036
-0.000302427
-0.000306815
0.00580872
-1.46651e-05
-0.00580972
0.0058066
-3.33588e-05
0.00580339
-5.19099e-05
0.00579914
-7.02548e-05
0.00579388
-8.83073e-05
0.00578766
-0.000105964
0.00578053
-0.000123124
0.00577257
-0.0001397
0.00576383
-0.000155612
0.00575437
-0.000170798
0.00574426
-0.000185209
0.00573356
-0.000198813
0.00572233
-0.00021159
0.00571063
-0.000223531
0.0056985
-0.000234631
0.00568599
-0.00024489
0.00567316
-0.000254306
0.00566004
-0.000262877
0.0056467
-0.000270602
0.00563317
-0.000277477
0.00561952
-0.000283506
0.00560579
-0.000288697
-0.000293065
0.00579044
-1.37164e-05
-0.00579139
0.00578846
-3.13777e-05
0.00578548
-4.89237e-05
0.00578152
-6.62963e-05
0.00577663
-8.34158e-05
0.00577085
-0.000100186
0.00576424
-0.000116512
0.00575685
-0.000132309
0.00574873
-0.000147501
0.00573996
-0.000162025
0.00573058
-0.000175831
0.00572066
-0.000188884
0.00571023
-0.00020116
0.00569934
-0.000212647
0.00568805
-0.000223338
0.00567639
-0.000233229
0.0056644
-0.000242319
0.00565213
-0.000250605
0.00563962
-0.000258088
0.0056269
-0.000264766
0.00561405
-0.000270647
0.00560109
-0.000275739
-0.000280062
0.00577326
-1.28231e-05
-0.00577415
0.00577141
-2.95261e-05
0.00576862
-4.61394e-05
0.00576494
-6.26099e-05
0.00576038
-7.88641e-05
0.00575501
-9.48119e-05
0.00574886
-0.000110365
0.00574199
-0.00012544
0.00573446
-0.000139964
0.0057263
-0.000153872
0.00571759
-0.000167113
0.00570835
-0.000179649
0.00569864
-0.000191453
0.0056885
-0.000202508
0.00567797
-0.000212804
0.00566708
-0.000222336
0.00565586
-0.000231103
0.00564436
-0.000239102
0.0056326
-0.000246335
0.00562064
-0.000252806
0.00560852
-0.000258524
0.00559628
-0.0002635
-0.000267757
0.00575709
-1.19865e-05
-0.00575793
0.00575536
-2.77985e-05
0.00575277
-4.35444e-05
0.00574934
-5.9176e-05
0.0057451
-7.46254e-05
0.00574009
-8.98087e-05
0.00573437
-0.000104642
0.00572798
-0.000119045
0.00572096
-0.000132946
0.00571336
-0.000146278
0.00570524
-0.00015899
0.00569663
-0.000171039
0.00568757
-0.000182394
0.0056781
-0.000193036
0.00566825
-0.000202953
0.00565805
-0.000212136
0.00564753
-0.000220584
0.00563673
-0.000228297
0.00562567
-0.000235278
0.0056144
-0.000241535
0.00560295
-0.00024708
0.00559138
-0.000251929
-0.000256105
0.00574188
-1.12091e-05
-0.00574266
0.00574027
-2.61911e-05
0.00573786
-4.11287e-05
0.00573466
-5.59781e-05
0.00573071
-7.06766e-05
0.00572605
-8.5146e-05
0.00572071
-9.93065e-05
0.00571475
-0.000113081
0.0057082
-0.000126397
0.00570111
-0.000139188
0.00569352
-0.0001514
0.00568547
-0.000162988
0.00567699
-0.000173917
0.00566812
-0.000184164
0.00565888
-0.000193713
0.0056493
-0.000202558
0.00563941
-0.000210694
0.00562924
-0.000218124
0.00561881
-0.000224855
0.00560818
-0.000230896
0.00559736
-0.000236264
0.00558641
-0.000240978
-0.000245063
0.00572756
-1.0494e-05
-0.00572828
0.00572607
-2.47015e-05
0.00572383
-3.8884e-05
0.00572085
-5.3002e-05
0.00571717
-6.69974e-05
0.00571282
-8.07971e-05
0.00570784
-9.43254e-05
0.00570227
-0.000107507
0.00569614
-0.000120271
0.0056895
-0.000132551
0.00568239
-0.000144288
0.00567484
-0.000155436
0.00566688
-0.000165957
0.00565854
-0.000175824
0.00564985
-0.00018502
0.00564083
-0.000193536
0.0056315
-0.000201369
0.0056219
-0.000208523
0.00561205
-0.000215008
0.00560199
-0.000220836
0.00559175
-0.000226027
0.00558138
-0.000230604
-0.000234594
0.00571407
-9.84423e-06
-0.00571472
0.0057127
-2.33275e-05
0.00571062
-3.6803e-05
0.00570785
-5.02351e-05
0.00570442
-6.35695e-05
0.00570037
-7.67381e-05
0.00569571
-8.96689e-05
0.00569049
-0.000102289
0.00568475
-0.000114528
0.00567852
-0.000126319
0.00567183
-0.000137602
0.00566472
-0.000148328
0.00565722
-0.000158456
0.00564936
-0.000167957
0.00564115
-0.000176812
0.00563262
-0.000185011
0.0056238
-0.000192551
0.00561472
-0.000199438
0.0056054
-0.000205684
0.00559586
-0.000211305
0.00558616
-0.000216324
0.00557632
-0.000220766
-0.000224661
0.00570136
-9.26287e-06
-0.00570194
0.0057001
-2.20665e-05
0.00569818
-3.48787e-05
0.00569561
-4.76656e-05
0.00569241
-6.03764e-05
0.00568862
-7.29472e-05
0.00568426
-8.53099e-05
0.00567937
-9.73943e-05
0.00567397
-0.00010913
0.0056681
-0.000120452
0.0056618
-0.000131297
0.00565508
-0.000141615
0.00564799
-0.000151364
0.00564055
-0.000160511
0.00563277
-0.000169036
0.00562469
-0.000176929
0.00561633
-0.000184188
0.00560771
-0.000190819
0.00559886
-0.000196837
0.00558981
-0.00020226
0.0055806
-0.000207114
0.00557127
-0.000211427
-0.00021523
0.00568936
-0.00568987
-8.75184e-06
0.00568821
-2.09148e-05
0.00568643
-3.31038e-05
0.00568405
-4.52824e-05
0.00568108
-5.74022e-05
0.00567753
-6.94043e-05
0.00567345
-8.12241e-05
0.00566885
-9.27939e-05
0.00566376
-0.000104045
0.00565822
-0.000114912
0.00565226
-0.000125333
0.0056459
-0.000135255
0.00563917
-0.000144635
0.0056321
-0.000153439
0.00562471
-0.000161646
0.00561702
-0.000169245
0.00560907
-0.000176235
0.00560087
-0.000182623
0.00559246
-0.000188425
0.00558386
-0.000193663
0.00557511
-0.000198363
0.00556624
-0.000202555
-0.000206271
0.00570839
0.000334186
-0.00568632
0.000573267
0.00567995
0.000313423
-0.00565919
0.0057142
0.00053902
0.00576171
0.000759884
0.00582209
0.000973249
0.00589484
0.00117642
0.00597927
0.00136681
0.00154172
0.00565327
0.000293844
-0.00563369
0.00568627
0.000506013
0.00573248
0.000713682
0.00579149
0.000914233
0.00586279
0.00110512
0.00594569
0.0012839
0.00144807
0.00562819
0.000275333
-0.00560968
0.00566008
0.000474128
0.0057051
0.000668659
0.00576287
0.000856461
0.00583286
0.00103513
0.00591437
0.00120239
0.00135589
0.00560461
0.00025779
-0.00558706
0.00563547
0.00044326
0.00567942
0.000624708
0.00573607
0.000799818
0.00580486
0.000966343
0.00588511
0.00112214
0.00126503
0.00558239
0.000241123
-0.00556573
0.00561234
0.000413316
0.00565531
0.000581731
0.00571093
0.000744205
0.00577863
0.000898639
0.00585773
0.00104303
0.00117539
0.00556146
0.000225254
-0.00554559
0.00559056
0.000384214
0.00563265
0.000539642
0.00568732
0.00068953
0.00575403
0.000831928
0.00583208
0.000964984
0.00108686
0.0055417
0.00021011
-0.00552656
0.00557004
0.000355878
0.00561132
0.000498364
0.00566513
0.000635714
0.00573094
0.000766127
0.00580802
0.000887897
0.000999341
0.00552305
0.000195626
-0.00550857
0.00555069
0.000328241
0.00559123
0.000457827
0.00564426
0.000582682
0.00570923
0.000701157
0.00578544
0.000811691
0.000912754
0.00550543
0.000181742
-0.00549155
0.00553243
0.000301242
0.00557229
0.000417966
0.0056246
0.000530367
0.00568881
0.000636948
0.00576421
0.000736291
0.000827019
0.00548877
0.000168407
-0.00547543
0.00551518
0.000274825
0.00555443
0.000378724
0.00560608
0.000478709
0.0056696
0.000573436
0.00574426
0.000661631
0.000742064
0.005473
0.000155571
-0.00546016
0.00549888
0.00024894
0.00553756
0.000340045
0.00558862
0.00042765
0.00565149
0.00051056
0.00572548
0.000587647
0.000657823
0.00545807
0.00014319
-0.00544568
0.00548347
0.000223539
0.00552163
0.000301882
0.00557214
0.000377139
0.00563444
0.000448266
0.0057078
0.000514279
0.000574234
0.00544392
0.000131223
-0.00543195
0.00546888
0.000198579
0.00550657
0.000264188
0.00555658
0.000327126
0.00561835
0.000386502
0.00569116
0.000441473
0.000491238
0.00543051
0.000119633
-0.00541892
0.00545507
0.000174021
0.00549233
0.000226922
0.00554189
0.000277567
0.00560318
0.000325218
0.00567547
0.000369176
0.000408781
0.00541779
0.000108385
-0.00540654
0.00544198
0.000149828
0.00547886
0.000190043
0.00552801
0.00022842
0.00558885
0.000264371
0.00566069
0.000297342
0.00032681
0.00540572
9.74499e-05
-0.00539478
0.00542958
0.000125968
0.0054661
0.000153518
0.00551488
0.000179647
0.00557533
0.000203919
0.00564674
0.000225925
0.000245279
0.00539426
8.67987e-05
-0.0053836
0.00541781
0.00010241
0.00545402
0.000117313
0.00550245
0.000131213
0.00556255
0.000143825
0.00563359
0.000154885
0.000164142
0.00538337
7.64071e-05
-0.00537298
0.00540665
7.91288e-05
0.00544256
8.14008e-05
0.00549069
8.30864e-05
0.00555046
8.40542e-05
0.00562116
8.41837e-05
8.33608e-05
0.00537302
-0.00536287
6.62537e-05
0.00539605
5.6101e-05
0.00543169
4.57567e-05
0.00547954
3.52423e-05
0.00553901
2.45792e-05
0.00560941
1.37898e-05
2.89636e-06
0.00567786
-0.000147001
9.30954e-05
0.00581191
-0.00116342
-0.00587951
0.00575524
-0.000982661
0.00571034
-0.000787203
0.00567786
-0.000579955
0.00565829
-0.000363575
0.00565199
-0.000140706
8.58971e-05
0.00579241
-0.00109501
-0.00586081
0.00573487
-0.000925124
0.00568905
-0.000741382
0.00565559
-0.000546496
0.00563499
-0.000342977
0.00562762
-0.000133333
7.98286e-05
0.00577376
-0.0010259
-0.00584287
0.00571547
-0.000866827
0.00566883
-0.000694742
0.0056345
-0.000512166
0.00561298
-0.000321458
0.00560463
-0.000124989
7.47785e-05
0.00575595
-0.000956172
-0.00582568
0.00569698
-0.000807856
0.00564961
-0.000647374
0.0056145
-0.000477055
0.00559215
-0.000299111
0.00558293
-0.000115772
7.06484e-05
0.00573892
-0.000885894
-0.0058092
0.00567935
-0.000748289
0.00563134
-0.000599356
0.00559553
-0.000441245
0.00557244
-0.000276019
0.00556243
-0.000105765
6.73508e-05
0.00572266
-0.000815134
-0.00579342
0.00566256
-0.000688191
0.00561396
-0.000550758
0.00557753
-0.000404808
0.00555376
-0.000252256
0.00554304
-9.50462e-05
6.48077e-05
0.00570712
-0.00074395
-0.00577831
0.00564655
-0.000627623
0.00559743
-0.000501641
0.00556043
-0.000367807
0.00553607
-0.000227888
0.0055247
-8.36818e-05
6.29494e-05
0.00569228
-0.00067239
-0.00576384
0.00563129
-0.000566634
0.00558171
-0.000452058
0.0055442
-0.000330299
0.00551928
-0.000202973
0.00550733
-7.17326e-05
6.17133e-05
0.00567809
-0.000600497
-0.00574999
0.00561673
-0.000505272
0.00556673
-0.000402059
0.00552877
-0.000292333
0.00550336
-0.000177563
0.00549088
-5.9253e-05
6.10428e-05
0.00566454
-0.000528311
-0.00573673
0.00560284
-0.000443576
0.00555247
-0.000351686
0.00551409
-0.000253955
0.00548824
-0.000151706
0.00547527
-4.62925e-05
6.08869e-05
0.00565159
-0.000455864
-0.00572403
0.00558959
-0.000381582
0.00553888
-0.000300976
0.00550013
-0.000215205
0.00547387
-0.000125444
0.00546047
-3.28948e-05
6.1199e-05
0.0056392
-0.000383187
-0.00571188
0.00557694
-0.000319322
0.00552593
-0.000249964
0.00548685
-0.00017612
0.00546022
-9.88146e-05
0.00544642
-1.91005e-05
6.19369e-05
0.00562736
-0.000310304
-0.00570025
0.00556487
-0.000256823
0.00551358
-0.00019868
0.00547419
-0.000136731
0.00544723
-7.18528e-05
0.00543308
-4.9462e-06
6.30622e-05
0.00561604
-0.000237239
-0.00568911
0.00555333
-0.000194111
0.0055018
-0.000147152
0.00546214
-9.70688e-05
0.00543488
-4.45902e-05
0.00542039
9.53595e-06
6.45395e-05
0.00560521
-0.000164014
-0.00567844
0.00554231
-0.000131209
0.00549056
-9.54036e-05
0.00545065
-5.71591e-05
0.00542312
-1.70548e-05
0.00540834
2.43153e-05
6.63368e-05
0.00559485
-9.06455e-05
-0.00566822
0.00553178
-6.81369e-05
0.00547983
-4.34576e-05
0.0054397
-1.7026e-05
0.00541192
1.07281e-05
0.00539687
3.9364e-05
6.84255e-05
0.00558494
-1.71512e-05
-0.00565844
0.00552172
-4.9124e-06
0.0054696
8.6663e-06
0.00542926
2.33097e-05
0.00540125
3.87358e-05
0.00538596
5.46578e-05
7.07793e-05
0.00557547
5.64524e-05
-0.00564907
0.00551211
5.84492e-05
0.00545982
6.09516e-05
0.0054193
6.38283e-05
0.00539109
6.69473e-05
0.00537557
7.01754e-05
7.33753e-05
0.00556641
-0.00564011
0.000130153
0.00550292
0.000121934
0.00545049
0.000113382
0.00540981
0.000104514
0.00538141
9.53453e-05
0.00536569
8.58979e-05
7.61933e-05
0.00528108
0.000306592
0.00528716
0.000315478
0.00529379
0.000324493
0.005301
0.00033362
0.00530881
0.000342839
0.00531728
0.000352125
0.00532644
0.000361449
0.00533632
0.000370781
0.00534695
0.000380083
0.00535839
0.000389312
0.00537065
0.000398422
0.00538377
0.00040736
0.00539779
0.000416067
0.00541273
0.000424481
0.00542861
0.00043253
0.00544545
0.00044014
0.00546327
0.000447228
0.00548207
0.00045371
0.00550186
0.000459491
0.00552262
0.000464475
0.00554432
0.00046856
0.00556695
0.000471641
0.00559045
0.00047361
0.00561477
0.000474358
0.00563984
0.000473773
0.00566558
0.000471748
0.00569187
0.000468176
0.00571861
0.000462955
0.00574565
0.000455989
0.00577286
0.00044719
0.00580007
0.00043647
0.00582708
0.000423716
0.00585367
0.000408698
0.000390646
0.00528999
0.000300877
0.0052962
0.000309267
0.00530294
0.000317756
0.00531023
0.000326326
0.00531812
0.000334955
0.00532662
0.00034362
0.00533578
0.000352292
0.00534562
0.000360939
0.00535618
0.000369524
0.00536749
0.000378006
0.00537957
0.000386339
0.00539246
0.000394472
0.00540618
0.00040235
0.00542074
0.000409912
0.00543618
0.000417092
0.0054525
0.00042382
0.00546971
0.000430019
0.00548781
0.000435609
0.0055068
0.000440506
0.00552665
0.000444619
0.00554735
0.000447858
0.00556887
0.000450127
0.00559115
0.000451329
0.00561414
0.000451367
0.00563777
0.000450142
0.00566196
0.00044756
0.0056866
0.000443527
0.0057116
0.000437956
0.00573683
0.000430764
0.00576214
0.000421878
0.00578739
0.000411222
0.0058124
0.000398702
0.00583698
0.000384123
0.000366814
0.0052984
0.000295044
0.00530471
0.000302955
0.00531153
0.000310937
0.00531888
0.000318972
0.0053268
0.000327039
0.0053353
0.000335113
0.00534443
0.000343165
0.00535421
0.000351164
0.00536466
0.000359074
0.00537581
0.000366854
0.00538769
0.00037446
0.00540031
0.000381845
0.00541371
0.000388954
0.00542789
0.00039573
0.00544287
0.000402112
0.00545866
0.000408032
0.00547526
0.000413421
0.00549266
0.000418205
0.00551086
0.000422305
0.00552984
0.000425641
0.00554957
0.000428128
0.00557002
0.000429681
0.00559114
0.000430213
0.00561287
0.000429637
0.00563514
0.000427867
0.00565788
0.000424819
0.005681
0.000420412
0.00570438
0.000414571
0.00572792
0.000407225
0.00575149
0.000398311
0.00577494
0.000387768
0.00579813
0.000375516
0.00582086
0.000361388
0.000344804
0.00530632
0.000289121
0.00531271
0.00029657
0.00531958
0.000304066
0.00532696
0.000311589
0.00533488
0.00031912
0.00534337
0.000326631
0.00535243
0.000334096
0.00536212
0.000341483
0.00537243
0.000348758
0.0053834
0.000355881
0.00539506
0.000362809
0.0054074
0.000369497
0.00542046
0.000375894
0.00543425
0.000381946
0.00544876
0.000387595
0.00546402
0.000392779
0.00548001
0.000397432
0.00549672
0.000401487
0.00551416
0.000404871
0.00553229
0.000407511
0.00555108
0.000409332
0.00557051
0.000410255
0.00559052
0.000410204
0.00561105
0.0004091
0.00563205
0.000406868
0.00565344
0.000403434
0.00567512
0.000398728
0.00569701
0.000392685
0.00571899
0.000385244
0.00574095
0.000376353
0.00576275
0.000365961
0.00578427
0.000354001
0.00580532
0.000340332
0.00032445
0.00531379
0.000283131
0.00532022
0.000290136
0.00532712
0.000297166
0.00533451
0.000304202
0.00534241
0.000311221
0.00535084
0.000318199
0.00535983
0.000325109
0.00536939
0.00033192
0.00537955
0.000338599
0.00539032
0.000345107
0.00540173
0.000351404
0.00541378
0.000357445
0.00542649
0.000363184
0.00543987
0.00036857
0.00545392
0.000373547
0.00546864
0.000378058
0.00548402
0.000382043
0.00550007
0.00038544
0.00551676
0.000388182
0.00553407
0.000390203
0.00555197
0.000391433
0.00557042
0.000391804
0.00558938
0.000391246
0.00560879
0.00038969
0.00562859
0.000387069
0.0056487
0.000383319
0.00566905
0.000378378
0.00568955
0.00037219
0.00571008
0.000364705
0.00573056
0.000355879
0.00575085
0.000345668
0.00577084
0.000334018
0.00579036
0.000320809
0.000305608
0.00532081
0.000277097
0.00532727
0.000283677
0.00533417
0.000290262
0.00534154
0.000296832
0.0053494
0.000303366
0.00535776
0.000309839
0.00536664
0.000316226
0.00537606
0.000322495
0.00538605
0.000328614
0.00539661
0.000334548
0.00540775
0.000340257
0.0054195
0.0003457
0.00543185
0.000350832
0.00544482
0.000355604
0.0054584
0.000359966
0.00547259
0.000363865
0.00548739
0.000367245
0.00550278
0.000370049
0.00551875
0.000372216
0.00553526
0.000373685
0.0055523
0.000374394
0.00556983
0.000374282
0.00558779
0.000373285
0.00560613
0.000371343
0.0056248
0.000368397
0.00564373
0.000364391
0.00566284
0.00035927
0.00568204
0.000352988
0.00570125
0.000345501
0.00572035
0.000336772
0.00573925
0.000326767
0.00575783
0.000315439
0.00577595
0.000302688
0.000288143
0.0053274
0.000271039
0.00533386
0.000277212
0.00534075
0.000283372
0.00534808
0.000289499
0.00535588
0.000295573
0.00536415
0.00030157
0.00537291
0.000307463
0.00538218
0.000313223
0.00539198
0.00031882
0.00540231
0.000324218
0.00541318
0.000329381
0.00542461
0.00033427
0.0054366
0.000338841
0.00544915
0.000343051
0.00546227
0.000346852
0.00547594
0.000350194
0.00549016
0.000353026
0.00550491
0.000355295
0.00552018
0.000356947
0.00553594
0.000357927
0.00555216
0.000358177
0.0055688
0.000357643
0.00558581
0.000356268
0.00560316
0.000354
0.00562077
0.000350785
0.00563859
0.000346574
0.00565654
0.000341321
0.00567454
0.000334986
0.00569251
0.000327532
0.00571035
0.000318928
0.00572797
0.000309146
0.00574526
0.000298149
0.0057621
0.000285851
0.000271936
0.00533358
0.000264975
0.00534003
0.00027076
0.00534689
0.000276515
0.00535416
0.000282222
0.00536188
0.00028786
0.00537004
0.000293407
0.00537867
0.000298835
0.00538777
0.000304119
0.00539736
0.000309227
0.00540746
0.000314127
0.00541805
0.000318784
0.00542916
0.00032316
0.00544079
0.000327216
0.00545293
0.00033091
0.00546558
0.000334197
0.00547874
0.000337033
0.0054924
0.000339371
0.00550654
0.00034116
0.00552113
0.000342352
0.00553616
0.000342897
0.00555159
0.000342744
0.00556739
0.000341843
0.00558352
0.000340145
0.00559991
0.000337601
0.00561653
0.000334166
0.00563331
0.000329796
0.00565018
0.000324452
0.00566707
0.0003181
0.00568389
0.000310707
0.00570057
0.00030225
0.00571701
0.000292704
0.00573312
0.000282041
0.00574878
0.00027019
0.000256881
0.00533936
0.000258921
0.00534579
0.000264335
0.0053526
0.000269705
0.00535981
0.000275015
0.00536743
0.000280241
0.00537547
0.000285364
0.00538395
0.000290357
0.00539287
0.000295194
0.00540225
0.000299846
0.0054121
0.000304282
0.00542241
0.00030847
0.0054332
0.000312373
0.00544446
0.000315955
0.00545619
0.000319176
0.00546839
0.000321996
0.00548105
0.000324373
0.00549416
0.000326264
0.0055077
0.000327623
0.00552164
0.000328405
0.00553598
0.000328566
0.00555066
0.00032806
0.00556566
0.000326841
0.00558094
0.000324866
0.00559645
0.000322092
0.00561214
0.000318479
0.00562794
0.00031399
0.00564381
0.00030859
0.00565966
0.000302249
0.00567542
0.000294942
0.00569102
0.000286648
0.00570638
0.000277349
0.0057214
0.000267021
0.00573598
0.000255607
0.000242879
0.00534478
0.000252891
0.00535116
0.000257952
0.00535791
0.000262958
0.00536503
0.00026789
0.00537254
0.000272729
0.00538045
0.000277453
0.00538877
0.000282037
0.00539751
0.000286457
0.00540667
0.000290684
0.00541627
0.00029469
0.00542629
0.000298443
0.00543676
0.00030191
0.00544765
0.000305057
0.00545898
0.000307846
0.00547074
0.00031024
0.00548291
0.000312201
0.00549549
0.000313689
0.00550845
0.000314662
0.00552177
0.00031508
0.00553544
0.000314902
0.00554941
0.000314087
0.00556366
0.000312594
0.00557814
0.000310384
0.00559281
0.00030742
0.00560762
0.000303667
0.00562252
0.000299092
0.00563744
0.000293665
0.00565233
0.000287361
0.00566712
0.000280159
0.00568172
0.000272042
0.00569608
0.000262995
0.0057101
0.000253001
0.00572369
0.000242013
0.000229842
0.00534983
0.000246897
0.00535616
0.000251624
0.00536283
0.000256284
0.00536986
0.000260861
0.00537726
0.000265334
0.00538503
0.000269683
0.00539318
0.000273885
0.00540172
0.000277915
0.00541066
0.000281747
0.00542
0.000285354
0.00542973
0.000288705
0.00543987
0.00029177
0.00545041
0.000294517
0.00546135
0.000296912
0.00547267
0.000298919
0.00548437
0.000300503
0.00549643
0.000301628
0.00550883
0.000302257
0.00552156
0.000302351
0.00553459
0.000301875
0.00554788
0.00030079
0.00556142
0.000299062
0.00557514
0.000296655
0.00558903
0.000293537
0.00560302
0.000289676
0.00561707
0.000285043
0.00563112
0.000279615
0.00564511
0.000273368
0.00565898
0.000266287
0.00567267
0.000258356
0.0056861
0.000249566
0.0056992
0.000239902
0.00571188
0.000229329
0.00021769
0.00535455
0.000240952
0.00536081
0.000245361
0.0053674
0.000249695
0.00537432
0.000253936
0.00538159
0.000258065
0.00538921
0.000262063
0.00539719
0.000265906
0.00540553
0.000269573
0.00541424
0.000273038
0.00542332
0.000276274
0.00543277
0.000279255
0.00544259
0.000281951
0.00545277
0.000284332
0.00546332
0.000286366
0.00547422
0.000288022
0.00548546
0.000289266
0.00549702
0.000290065
0.00550889
0.000290385
0.00552105
0.000290193
0.00553347
0.000289455
0.00554612
0.000288138
0.00555897
0.000286209
0.00557199
0.000283637
0.00558513
0.000280395
0.00559836
0.000276454
0.00561161
0.000271789
0.00562485
0.00026638
0.00563801
0.000260208
0.00565103
0.000253259
0.00566387
0.000245522
0.00567644
0.00023699
0.00568869
0.000227652
0.00570054
0.000217481
0.00020635
0.00535894
0.000235066
0.00536512
0.000239174
0.00537162
0.000243199
0.00537843
0.000247123
0.00538557
0.00025093
0.00539303
0.000254598
0.00540083
0.000258107
0.00540897
0.000261435
0.00541745
0.000264559
0.00542627
0.000267453
0.00543543
0.000270092
0.00544493
0.000272448
0.00545477
0.000274494
0.00546494
0.0002762
0.00547542
0.000277536
0.00548622
0.000278474
0.0054973
0.000278981
0.00550866
0.000279027
0.00552027
0.000278581
0.00553211
0.000277614
0.00554415
0.000276095
0.00555637
0.000273996
0.00556871
0.00027129
0.00558116
0.00026795
0.00559366
0.000263953
0.00560617
0.000259278
0.00561864
0.000253906
0.00563103
0.000247823
0.00564327
0.000241016
0.00565532
0.000233477
0.00566711
0.000225202
0.00567857
0.000216184
0.00568965
0.000206402
0.000195756
0.00536302
0.000229246
0.00536912
0.00023307
0.00537552
0.000236804
0.00538221
0.000240431
0.00538921
0.000243933
0.00539651
0.000247294
0.00540413
0.000250491
0.00541206
0.000253504
0.00542031
0.000256311
0.00542887
0.000258889
0.00543775
0.000261213
0.00544694
0.000263257
0.00545644
0.000264997
0.00546623
0.000266404
0.00547632
0.000267451
0.00548668
0.000268112
0.0054973
0.000268357
0.00550817
0.000268159
0.00551926
0.000267491
0.00553055
0.000266324
0.00554201
0.000264633
0.00555362
0.000262391
0.00556533
0.000259574
0.00557712
0.000256161
0.00558895
0.000252129
0.00560076
0.000247461
0.00561253
0.000242142
0.00562419
0.000236158
0.00563571
0.0002295
0.00564702
0.000222163
0.00565808
0.000214143
0.00566883
0.000205437
0.0056792
0.000196031
0.000185848
0.00536681
0.000223501
0.00537282
0.000227056
0.00537911
0.000230515
0.00538568
0.000233863
0.00539253
0.000237082
0.00539967
0.000240154
0.0054071
0.00024306
0.00541483
0.000245781
0.00542284
0.000248295
0.00543115
0.00025058
0.00543975
0.000252614
0.00544863
0.000254373
0.0054578
0.000255832
0.00546724
0.000256967
0.00547693
0.000257754
0.00548688
0.000258165
0.00549706
0.000258177
0.00550746
0.000257763
0.00551805
0.000256898
0.00552882
0.000255558
0.00553973
0.000253719
0.00555076
0.000251359
0.00556188
0.000248455
0.00557305
0.000244988
0.00558424
0.00024094
0.00559541
0.000236295
0.00560651
0.00023104
0.0056175
0.000225165
0.00562834
0.000218662
0.00563898
0.000211527
0.00564936
0.000203759
0.00565944
0.000195357
0.00566916
0.000186313
0.000176572
0.00537033
0.000217837
0.00537625
0.000221139
0.00538242
0.00022434
0.00538886
0.000227425
0.00539557
0.000230378
0.00540254
0.000233181
0.00540978
0.000235817
0.0054173
0.000238266
0.00542508
0.000240508
0.00543314
0.000242524
0.00544146
0.000244291
0.00545005
0.000245788
0.00545889
0.000246992
0.00546798
0.000247881
0.0054773
0.00024843
0.00548684
0.000248618
0.0054966
0.000248421
0.00550655
0.000247816
0.00551666
0.00024678
0.00552693
0.000245291
0.00553732
0.000243327
0.00554781
0.000240869
0.00555837
0.000237898
0.00556896
0.000234395
0.00557956
0.000230346
0.00559012
0.000225737
0.0056006
0.000220556
0.00561097
0.000214797
0.00562118
0.000208452
0.00563119
0.000201519
0.00564095
0.000193999
0.00565041
0.000185893
0.00565953
0.000177198
0.000167876
0.00537359
0.00021226
0.00537941
0.000215323
0.00538547
0.000218281
0.00539177
0.00022112
0.00539833
0.000223824
0.00540513
0.000226377
0.00541219
0.000228761
0.0054195
0.000230958
0.00542705
0.00023295
0.00543486
0.000234716
0.00544291
0.000236239
0.00545121
0.000237496
0.00545973
0.000238467
0.00546848
0.000239132
0.00547744
0.000239469
0.0054866
0.000239457
0.00549595
0.000239074
0.00550547
0.0002383
0.00551513
0.000237114
0.00552493
0.000235497
0.00553482
0.000233429
0.0055448
0.000230892
0.00555483
0.00022787
0.00556488
0.000224347
0.00557491
0.000220311
0.0055849
0.000215748
0.00559481
0.00021065
0.00560459
0.000205011
0.00561422
0.000198827
0.00562364
0.000192095
0.00563282