/*--------------------------------*- C++ -*----------------------------------*\
| =========                 |                                                 |
| \\      /  F ield         | OpenFOAM: The Open Source CFD Toolbox           |
|  \\    /   O peration     | Version:  2412                                  |
|   \\  /    A nd           | Website:  www.openfoam.com                      |
|    \\/     M anipulation  |                                                 |
\*---------------------------------------------------------------------------*/
FoamFile
{
    version     2.0;
    format      ascii;
    arch        "LSB;label=32;scalar=64";
    class       volScalarField;
    location    "26";
    object      p;
}
// * * * * * * * * * * * * * * * * * * * * * * * * * * * * * * * * * * * * * //

dimensions      [0 2 -2 0 0 0 0];

internalField   nonuniform List<scalar> 
5285
(
-6.51977e-06
-5.69761e-06
-4.95317e-06
-4.28098e-06
-3.67594e-06
-3.13312e-06
-2.64781e-06
-2.21548e-06
-1.83185e-06
-1.49285e-06
-1.19461e-06
-9.33511e-07
-7.06136e-07
-5.09285e-07
-3.3997e-07
-1.95409e-07
-7.30209e-08
2.95851e-08
1.14613e-07
1.84092e-07
2.39882e-07
2.83681e-07
3.17039e-07
3.41362e-07
3.57919e-07
3.67855e-07
3.72195e-07
3.71857e-07
3.6766e-07
3.60325e-07
3.50492e-07
3.38711e-07
3.2549e-07
3.11217e-07
2.9631e-07
2.80966e-07
2.65651e-07
2.50203e-07
2.35473e-07
2.20417e-07
2.07192e-07
1.92423e-07
1.81913e-07
1.66366e-07
1.60715e-07
1.41639e-07
1.44937e-07
1.16798e-07
1.36392e-07
8.96307e-08
1.372e-07
5.77707e-08
1.489e-07
2.01328e-08
1.70556e-07
-2.0816e-08
1.96587e-07
-5.71906e-08
2.16226e-07
-7.73373e-08
2.18133e-07
-7.39189e-08
2.01986e-07
-5.68759e-08
1.89484e-07
-5.78243e-08
2.18445e-07
-1.14586e-07
3.2935e-07
-2.7107e-07
5.74837e-07
-6.16042e-06
-5.35899e-06
-4.63495e-06
-3.98265e-06
-3.39685e-06
-2.87261e-06
-2.40513e-06
-1.98987e-06
-1.62249e-06
-1.29892e-06
-1.01528e-06
-7.67959e-07
-5.53539e-07
-3.68841e-07
-2.10897e-07
-7.69501e-08
3.55526e-08
1.28972e-07
2.0548e-07
2.67072e-07
3.15574e-07
3.52649e-07
3.79814e-07
3.98441e-07
4.09766e-07
4.14904e-07
4.14848e-07
4.10489e-07
4.02616e-07
3.91924e-07
3.7903e-07
3.6446e-07
3.48699e-07
3.32115e-07
3.15109e-07
2.97858e-07
2.80817e-07
2.63796e-07
2.47656e-07
2.313e-07
2.1694e-07
2.01082e-07
1.89692e-07
1.73196e-07
1.66924e-07
1.46949e-07
1.49931e-07
1.20825e-07
1.40483e-07
9.25583e-08
1.40651e-07
5.97663e-08
1.51892e-07
2.13941e-08
1.73162e-07
-2.00424e-08
1.98812e-07
-5.66939e-08
2.18171e-07
-7.71607e-08
2.20251e-07
-7.45682e-08
2.05194e-07
-5.92205e-08
1.94862e-07
-6.26238e-08
2.2684e-07
-1.22328e-07
3.41863e-07
-2.82942e-07
5.94694e-07
-5.78467e-06
-5.00576e-06
-4.30378e-06
-3.67284e-06
-3.10763e-06
-2.60317e-06
-2.15462e-06
-1.75739e-06
-1.40714e-06
-1.09977e-06
-8.31433e-07
-5.98496e-07
-3.97574e-07
-2.25507e-07
-7.93537e-08
4.36108e-08
1.45907e-07
2.2986e-07
2.97605e-07
3.51099e-07
3.92131e-07
4.22328e-07
4.43167e-07
4.55985e-07
4.61983e-07
4.62241e-07
4.57723e-07
4.49285e-07
4.3769e-07
4.23604e-07
4.07617e-07
3.90233e-07
3.71914e-07
3.53003e-07
3.33888e-07
3.1472e-07
2.95947e-07
2.77349e-07
2.59798e-07
2.4214e-07
2.26646e-07
2.097e-07
1.97431e-07
1.79985e-07
1.731e-07
1.52221e-07
1.54899e-07
1.24815e-07
1.44558e-07
9.54477e-08
1.44099e-07
6.17161e-08
1.54898e-07
2.25945e-08
1.75809e-07
-1.935e-08
2.01104e-07
-5.62973e-08
2.20192e-07
-7.70754e-08
2.22417e-07
-7.52458e-08
2.08353e-07
-6.14625e-08
2.00031e-07
-6.71643e-08
2.34904e-07
-1.2978e-07
3.5408e-07
-2.94617e-07
6.14293e-07
-5.39275e-06
-4.63817e-06
-3.95987e-06
-3.35177e-06
-2.80849e-06
-2.32501e-06
-1.89646e-06
-1.51823e-06
-1.18597e-06
-8.95581e-07
-6.43214e-07
-4.25265e-07
-2.38372e-07
-7.94022e-08
5.45503e-08
1.66174e-07
2.57952e-07
3.32167e-07
3.90914e-07
4.36108e-07
4.69497e-07
4.92665e-07
5.07052e-07
5.13953e-07
5.14533e-07
5.09835e-07
5.0079e-07
4.88221e-07
4.7286e-07
4.55345e-07
4.36238e-07
4.16017e-07
3.95121e-07
3.73871e-07
3.52636e-07
3.31545e-07
3.11035e-07
2.90857e-07
2.71892e-07
2.52934e-07
2.36305e-07
2.18272e-07
2.05125e-07
1.86735e-07
1.79235e-07
1.5746e-07
1.59829e-07
1.2878e-07
1.48597e-07
9.83213e-08
1.47511e-07
6.36598e-08
1.57869e-07
2.37965e-08
1.78421e-07
-1.86522e-08
2.03364e-07
-5.58936e-08
2.22181e-07
-7.69719e-08
2.24527e-07
-7.58575e-08
2.11378e-07
-6.35317e-08
2.0493e-07
-7.13895e-08
2.42565e-07
-1.36848e-07
3.65859e-07
-3.05914e-07
6.33398e-07
-4.98498e-06
-4.25653e-06
-3.60353e-06
-3.01974e-06
-2.49971e-06
-2.03841e-06
-1.63093e-06
-1.27265e-06
-9.59227e-07
-6.86564e-07
-4.50834e-07
-2.48461e-07
-7.61117e-08
6.93076e-08
1.90663e-07
2.90602e-07
3.71561e-07
4.35778e-07
4.85303e-07
5.22004e-07
5.47584e-07
5.63584e-07
5.71399e-07
5.72282e-07
5.67359e-07
5.57636e-07
5.44005e-07
5.27257e-07
5.08092e-07
4.87116e-07
4.64864e-07
4.41787e-07
4.18299e-07
3.94698e-07
3.71336e-07
3.48316e-07
3.26066e-07
3.04307e-07
2.83928e-07
2.6367e-07
2.45908e-07
2.26792e-07
2.12769e-07
1.93439e-07
1.85323e-07
1.62662e-07
1.64716e-07
1.32719e-07
1.52596e-07
1.0118e-07
1.50882e-07
6.56006e-08
1.60796e-07
2.50071e-08
1.80987e-07
-1.7938e-08
2.05579e-07
-5.54685e-08
2.24122e-07
-7.68339e-08
2.26565e-07
-7.63889e-08
2.14259e-07
-6.54184e-08
2.09551e-07
-7.52931e-08
2.49818e-07
-1.4352e-07
3.77181e-07
-3.16799e-07
6.51957e-07
-4.56169e-06
-3.86115e-06
-3.23507e-06
-2.67706e-06
-2.1816e-06
-1.74365e-06
-1.35829e-06
-1.02089e-06
-7.2713e-07
-4.72927e-07
-2.54484e-07
-6.82561e-08
8.90476e-08
2.20478e-07
3.28855e-07
4.16776e-07
4.86627e-07
5.40598e-07
5.80687e-07
6.08712e-07
6.26327e-07
6.35025e-07
6.36155e-07
6.30926e-07
6.20422e-07
6.05606e-07
5.87336e-07
5.66366e-07
5.4336e-07
5.18895e-07
4.93476e-07
4.67525e-07
4.41434e-07
4.15474e-07
3.89977e-07
3.65024e-07
3.41032e-07
3.17693e-07
2.959e-07
2.74345e-07
2.55452e-07
2.35257e-07
2.20358e-07
2.00095e-07
1.91364e-07
1.67825e-07
1.69561e-07
1.36628e-07
1.56553e-07
1.04019e-07
1.54213e-07
6.75341e-08
1.63682e-07
2.62202e-08
1.83512e-07
-1.72151e-08
2.07754e-07
-5.50307e-08
2.26022e-07
-7.66701e-08
2.28538e-07
-7.68488e-08
2.17002e-07
-6.71328e-08
2.13906e-07
-7.88891e-08
2.56674e-07
-1.49809e-07
3.88052e-07
-3.27279e-07
6.69954e-07
-4.12326e-06
-3.45242e-06
-2.85487e-06
-2.32407e-06
-1.85448e-06
-1.44103e-06
-1.07882e-06
-7.63228e-07
-4.89939e-07
-2.54913e-07
-5.43848e-08
1.15145e-07
2.56919e-07
3.73939e-07
4.6897e-07
5.44554e-07
6.03024e-07
6.46513e-07
6.76962e-07
6.96138e-07
7.05641e-07
7.06913e-07
7.01253e-07
6.89825e-07
6.73666e-07
6.537e-07
6.30742e-07
6.0551e-07
5.78633e-07
5.50654e-07
5.22048e-07
4.93211e-07
4.64505e-07
4.36179e-07
4.08544e-07
3.81657e-07
3.55922e-07
3.31003e-07
3.07799e-07
2.8495e-07
2.64928e-07
2.43659e-07
2.27889e-07
2.06698e-07
1.97352e-07
1.72944e-07
1.74359e-07
1.40504e-07
1.60469e-07
1.06838e-07
1.57503e-07
6.94573e-08
1.66527e-07
2.74326e-08
1.85997e-07
-1.64869e-08
2.09893e-07
-5.45833e-08
2.27884e-07
-7.64835e-08
2.30449e-07
-7.72406e-08
2.19613e-07
-6.86808e-08
2.18003e-07
-8.21877e-08
2.63146e-07
-1.55724e-07
3.98477e-07
-3.37354e-07
6.87368e-07
-3.6701e-06
-3.03072e-06
-2.4633e-06
-1.96114e-06
-1.51868e-06
-1.13088e-06
-7.92829e-07
-4.99933e-07
-2.47907e-07
-3.27524e-08
1.49249e-07
3.01546e-07
4.27325e-07
5.29529e-07
6.10862e-07
6.73807e-07
7.20634e-07
7.53415e-07
7.74034e-07
7.84198e-07
7.8545e-07
7.79181e-07
7.66635e-07
7.48927e-07
7.27048e-07
7.01875e-07
6.74186e-07
6.44658e-07
6.13881e-07
5.82368e-07
5.5056e-07
5.18824e-07
4.87497e-07
4.568e-07
4.27024e-07
3.98202e-07
3.70727e-07
3.44229e-07
3.19618e-07
2.95478e-07
2.74333e-07
2.51994e-07
2.35355e-07
2.13244e-07
2.03285e-07
1.78018e-07
1.79109e-07
1.44346e-07
1.6434e-07
1.09633e-07
1.60752e-07
7.13689e-08
1.69332e-07
2.86432e-08
1.88443e-07
-1.57542e-08
2.11994e-07
-5.41267e-08
2.29706e-07
-7.62741e-08
2.32298e-07
-7.75653e-08
2.22094e-07
-7.00676e-08
2.2185e-07
-8.51992e-08
2.69243e-07
-1.61273e-07
4.08452e-07
-3.47019e-07
7.04172e-07
-3.20266e-06
-2.59649e-06
-2.06077e-06
-1.58866e-06
-1.17459e-06
-8.13544e-07
-5.00636e-07
-2.31305e-07
-1.30796e-09
1.93303e-07
3.5619e-07
4.9074e-07
6.00077e-07
6.87077e-07
7.54378e-07
8.04395e-07
8.39331e-07
8.61194e-07
8.71802e-07
8.72802e-07
8.65677e-07
8.51759e-07
8.32237e-07
8.08176e-07
7.80517e-07
7.50091e-07
7.17632e-07
6.83776e-07
6.49077e-07
6.14011e-07
5.7899e-07
5.44346e-07
5.10392e-07
4.77322e-07
4.45405e-07
4.1465e-07
3.85435e-07
3.57364e-07
3.31349e-07
3.05924e-07
2.83659e-07
2.60258e-07
2.42754e-07
2.19731e-07
2.0916e-07
1.83043e-07
1.83807e-07
1.48151e-07
1.68166e-07
1.12403e-07
1.63957e-07
7.32675e-08
1.72095e-07
2.98511e-08
1.90849e-07
-1.50175e-08
2.14057e-07
-5.36612e-08
2.31489e-07
-7.60422e-08
2.34084e-07
-7.78245e-08
2.24446e-07
-7.12987e-08
2.25453e-07
-8.79349e-08
2.74976e-07
-1.66466e-07
4.17981e-07
-3.5627e-07
7.20335e-07
-2.72145e-06
-2.15023e-06
-1.64774e-06
-1.20706e-06
-8.226e-07
-4.89391e-07
-2.02584e-07
4.23402e-08
2.49568e-07
4.22988e-07
5.66195e-07
6.82506e-07
7.74975e-07
8.46404e-07
8.99356e-07
9.36172e-07
9.58986e-07
9.69733e-07
9.70165e-07
9.6186e-07
9.4624e-07
9.24574e-07
8.97997e-07
8.67517e-07
8.34024e-07
7.98302e-07
7.61039e-07
7.2283e-07
6.8419e-07
6.45558e-07
6.07313e-07
5.69756e-07
5.33173e-07
4.97729e-07
4.63673e-07
4.30987e-07
4.00038e-07
3.70398e-07
3.42984e-07
3.1628e-07
2.92901e-07
2.68445e-07
2.50081e-07
2.26153e-07
2.14973e-07
1.88017e-07
1.88453e-07
1.51917e-07
1.71945e-07
1.15147e-07
1.67118e-07
7.51518e-08
1.74815e-07
3.1055e-08
1.93213e-07
-1.42777e-08
2.16081e-07
-5.31871e-08
2.33231e-07
-7.57881e-08
2.35808e-07
-7.80199e-08
2.26672e-07
-7.23801e-08
2.28821e-07
-9.0407e-08
2.80356e-07
-1.71313e-07
4.27064e-07
-3.65106e-07
7.35835e-07
-2.22703e-06
-1.69244e-06
-1.2247e-06
-8.16794e-07
-4.63135e-07
-1.58816e-07
1.00965e-07
3.20669e-07
5.04416e-07
6.56024e-07
7.79011e-07
8.76617e-07
9.51814e-07
1.00732e-06
1.04563e-06
1.06899e-06
1.07947e-06
1.07891e-06
1.06901e-06
1.05128e-06
1.02705e-06
9.97553e-07
9.63848e-07
9.26891e-07
8.87518e-07
8.46464e-07
8.04369e-07
7.61787e-07
7.1919e-07
6.76983e-07
6.35508e-07
5.95035e-07
5.55822e-07
5.18007e-07
4.81815e-07
4.47204e-07
4.14525e-07
3.83322e-07
3.54516e-07
3.26541e-07
3.02054e-07
2.7655e-07
2.57331e-07
2.32507e-07
2.20722e-07
1.92937e-07
1.93043e-07
1.55641e-07
1.75674e-07
1.17863e-07
1.70234e-07
7.70203e-08
1.77491e-07
3.22536e-08
1.95536e-07
-1.35359e-08
2.18066e-07
-5.27052e-08
2.34931e-07
-7.55127e-08
2.37469e-07
-7.81539e-08
2.28777e-07
-7.33186e-08
2.31965e-07
-9.2628e-08
2.85397e-07
-1.75825e-07
4.35705e-07
-3.73525e-07
7.50646e-07
-1.71999e-06
-1.2237e-06
-7.92183e-07
-4.18353e-07
-9.66493e-08
1.77765e-07
4.09628e-07
6.03331e-07
7.62918e-07
8.92122e-07
9.94377e-07
1.07284e-06
1.13038e-06
1.16964e-06
1.19302e-06
1.20269e-06
1.20063e-06
1.18861e-06
1.16824e-06
1.14095e-06
1.10803e-06
1.07062e-06
1.02972e-06
9.8624e-07
9.40949e-07
8.94531e-07
8.47583e-07
8.00611e-07
7.54048e-07
7.08258e-07
6.6355e-07
6.20162e-07
5.78322e-07
5.3814e-07
4.99817e-07
4.63287e-07
4.28886e-07
3.96128e-07
3.65938e-07
3.36699e-07
3.11112e-07
2.84568e-07
2.645e-07
2.3879e-07
2.26402e-07
1.97799e-07
1.97575e-07
1.59323e-07
1.79352e-07
1.20548e-07
1.73302e-07
7.88715e-08
1.80123e-07
3.34457e-08
1.97816e-07
-1.27929e-08
2.20011e-07
-5.22161e-08
2.36591e-07
-7.52166e-08
2.39069e-07
-7.82289e-08
2.30764e-07
-7.41211e-08
2.34893e-07
-9.46112e-08
2.90113e-07
-1.80015e-07
4.43909e-07
-3.81528e-07
7.64751e-07
-1.20099e-06
-7.44602e-07
-3.50746e-07
-1.2258e-08
2.76378e-07
5.1991e-07
7.23e-07
8.89959e-07
1.02474e-06
1.13098e-06
1.21202e-06
1.27091e-06
1.31045e-06
1.33317e-06
1.34136e-06
1.33713e-06
1.32234e-06
1.29871e-06
1.26774e-06
1.2308e-06
1.18909e-06
1.1437e-06
1.09556e-06
1.04551e-06
9.94263e-07
9.42459e-07
8.90641e-07
8.39268e-07
7.88731e-07
7.39357e-07
6.91418e-07
6.45117e-07
6.00656e-07
5.58112e-07
5.17666e-07
4.79225e-07
4.43111e-07
4.08807e-07
3.77241e-07
3.46748e-07
3.20069e-07
2.92494e-07
2.71584e-07
2.44997e-07
2.32011e-07
2.02601e-07
2.02046e-07
1.62958e-07
1.82978e-07
1.23202e-07
1.76323e-07
8.0704e-08
1.8271e-07
3.46303e-08
2.00054e-07
-1.20496e-08
2.21917e-07
-5.17205e-08
2.38209e-07
-7.49009e-08
2.40609e-07
-7.82473e-08
2.32636e-07
-7.47947e-08
2.37616e-07
-9.63701e-08
2.94516e-07
-1.83895e-07
4.51683e-07
-3.89117e-07
7.78133e-07
-6.70713e-07
-2.55804e-07
9.90094e-08
4.00938e-07
6.55438e-07
8.67154e-07
1.04066e-06
1.18017e-06
1.28953e-06
1.37228e-06
1.43165e-06
1.4706e-06
1.4918e-06
1.49769e-06
1.49047e-06
1.47213e-06
1.44446e-06
1.40907e-06
1.36739e-06
1.3207e-06
1.27015e-06
1.21671e-06
1.16128e-06
1.10463e-06
1.04741e-06
9.902e-07
9.335e-07
8.77722e-07
8.2321e-07
7.70254e-07
7.19086e-07
6.69879e-07
6.22804e-07
5.77909e-07
5.35349e-07
4.95007e-07
4.5719e-07
4.2135e-07
3.88419e-07
3.56681e-07
3.28918e-07
3.00324e-07
2.78579e-07
2.51126e-07
2.37545e-07
2.07341e-07
2.06455e-07
1.66546e-07
1.8655e-07
1.25822e-07
1.79295e-07
8.25165e-08
1.85251e-07
3.5806e-08
2.0225e-07
-1.1307e-08
2.23782e-07
-5.12191e-08
2.39786e-07
-7.45664e-08
2.42088e-07
-7.8212e-08
2.34397e-07
-7.53467e-08
2.40143e-07
-9.79182e-08
2.98621e-07
-1.87479e-07
4.59032e-07
-3.96296e-07
7.90782e-07
-1.29912e-07
2.42006e-07
5.56447e-07
8.2065e-07
1.04e-06
1.21901e-06
1.36216e-06
1.47356e-06
1.55693e-06
1.6157e-06
1.65299e-06
1.67163e-06
1.67419e-06
1.66299e-06
1.64014e-06
1.60752e-06
1.56682e-06
1.51956e-06
1.46708e-06
1.41057e-06
1.3511e-06
1.28958e-06
1.22683e-06
1.16354e-06
1.10033e-06
1.03771e-06
9.76122e-07
9.15937e-07
8.57453e-07
8.00919e-07
7.46533e-07
6.94428e-07
6.44749e-07
5.97514e-07
5.52852e-07
5.10621e-07
4.71112e-07
4.33748e-07
3.99463e-07
3.66492e-07
3.37656e-07
3.08053e-07
2.85481e-07
2.57172e-07
2.43002e-07
2.12015e-07
2.10799e-07
1.70084e-07
1.90065e-07
1.28407e-07
1.82217e-07
8.43075e-08
1.87746e-07
3.69717e-08
2.04401e-07
-1.05659e-08
2.25607e-07
-5.07125e-08
2.4132e-07
-7.42143e-08
2.43509e-07
-7.81259e-08
2.36053e-07
-7.57848e-08
2.42485e-07
-9.9269e-08
3.02444e-07
-1.90779e-07
4.65965e-07
-4.03068e-07
8.02689e-07
4.20669e-07
7.48145e-07
1.02094e-06
1.24631e-06
1.42953e-06
1.57501e-06
1.68708e-06
1.76974e-06
1.82659e-06
1.86093e-06
1.87574e-06
1.87375e-06
1.8574e-06
1.8289e-06
1.79023e-06
1.74317e-06
1.68931e-06
1.63007e-06
1.5667e-06
1.50031e-06
1.43187e-06
1.36223e-06
1.29213e-06
1.2222e-06
1.15298e-06
1.08494e-06
1.01847e-06
9.53885e-07
8.91436e-07
8.31334e-07
7.73738e-07
7.18749e-07
6.66479e-07
6.16917e-07
5.70165e-07
5.26059e-07
4.84871e-07
4.45996e-07
4.10368e-07
3.76177e-07
3.46278e-07
3.15676e-07
2.92286e-07
2.63132e-07
2.48379e-07
2.16622e-07
2.15077e-07
1.7357e-07
1.93524e-07
1.30955e-07
1.85088e-07
8.60762e-08
1.90193e-07
3.81265e-08
2.06509e-07
-9.82731e-09
2.27391e-07
-5.02017e-08
2.42813e-07
-7.3846e-08
2.44872e-07
-7.79924e-08
2.37607e-07
-7.61163e-08
2.44651e-07
-1.00436e-07
3.05997e-07
-1.93809e-07
4.72491e-07
-4.09439e-07
8.13853e-07
9.80362e-07
1.262e-06
1.49193e-06
1.6774e-06
1.82358e-06
1.93473e-06
2.01505e-06
2.06838e-06
2.09822e-06
2.1077e-06
2.09969e-06
2.07677e-06
2.04125e-06
1.99523e-06
1.94057e-06
1.87894e-06
1.81181e-06
1.74051e-06
1.66618e-06
1.58985e-06
1.51241e-06
1.43462e-06
1.35715e-06
1.28056e-06
1.20534e-06
1.13188e-06
1.06053e-06
9.91547e-07
9.25143e-07
8.61484e-07
8.00692e-07
7.42831e-07
6.87985e-07
6.36111e-07
5.87284e-07
5.41316e-07
4.98464e-07
4.5809e-07
4.21133e-07
3.85733e-07
3.54782e-07
3.23194e-07
2.98995e-07
2.69007e-07
2.53676e-07
2.21161e-07
2.19287e-07
1.77005e-07
1.96926e-07
1.33467e-07
1.87908e-07
8.78221e-08
1.92594e-07
3.92695e-08
2.08574e-07
-9.09211e-09
2.29133e-07
-4.96878e-08
2.44264e-07
-7.34636e-08
2.46178e-07
-7.7816e-08
2.39063e-07
-7.63496e-08
2.46653e-07
-1.01434e-07
3.09294e-07
-1.96583e-07
4.78618e-07
-4.15419e-07
8.24274e-07
1.54812e-06
1.78259e-06
1.96852e-06
2.1131e-06
2.2214e-06
2.29749e-06
2.34543e-06
2.36892e-06
2.37129e-06
2.35554e-06
2.32439e-06
2.28029e-06
2.2254e-06
2.16169e-06
2.0909e-06
2.01458e-06
1.9341e-06
1.85066e-06
1.76533e-06
1.67903e-06
1.59256e-06
1.50661e-06
1.42177e-06
1.33852e-06
1.2573e-06
1.17844e-06
1.10221e-06
1.02885e-06
9.58512e-07
8.91315e-07
8.27347e-07
7.66633e-07
7.0923e-07
6.55062e-07
6.04179e-07
5.56366e-07
5.11867e-07
4.70011e-07
4.31739e-07
3.95145e-07
3.63154e-07
3.30593e-07
3.05595e-07
2.74787e-07
2.58884e-07
2.25625e-07
2.23424e-07
1.80381e-07
2.00266e-07
1.35937e-07
1.90674e-07
8.95421e-08
1.94945e-07
4.0399e-08
2.10593e-07
-8.36115e-09
2.30834e-07
-4.91704e-08
2.45673e-07
-7.30663e-08
2.4743e-07
-7.75963e-08
2.40425e-07
-7.64939e-08
2.48496e-07
-1.02277e-07
3.12346e-07
-1.99118e-07
4.84353e-07
-4.2102e-07
8.33955e-07
2.12285e-06
2.30892e-06
2.4498e-06
2.5526e-06
2.62224e-06
2.66262e-06
2.67763e-06
2.67082e-06
2.64533e-06
2.60404e-06
2.54948e-06
2.48397e-06
2.40954e-06
2.328e-06
2.24097e-06
2.14989e-06
2.05599e-06
1.96038e-06
1.86401e-06
1.76772e-06
1.67222e-06
1.57811e-06
1.4859e-06
1.39601e-06
1.30881e-06
1.22455e-06
1.14348e-06
1.06577e-06
9.9151e-07
9.20799e-07
8.53677e-07
7.90133e-07
7.30195e-07
6.73755e-07
6.20835e-07
5.71198e-07
5.25068e-07
4.81749e-07
4.42179e-07
4.04405e-07
3.7139e-07
3.37868e-07
3.12083e-07
2.80467e-07
2.64001e-07
2.30011e-07
2.27487e-07
1.83699e-07
2.03543e-07
1.38365e-07
1.93385e-07
9.12354e-08
1.97246e-07
4.15144e-08
2.12566e-07
-7.63515e-09
2.32492e-07
-4.86513e-08
2.47041e-07
-7.26569e-08
2.48627e-07
-7.73378e-08
2.417e-07
-7.65524e-08
2.50196e-07
-1.02973e-07
3.15174e-07
-2.01423e-07
4.89716e-07
-4.26242e-07
8.42915e-07
2.70343e-06
2.84002e-06
2.93487e-06
2.99509e-06
3.02538e-06
3.02947e-06
3.01107e-06
2.97355e-06
2.91988e-06
2.85277e-06
2.77459e-06
2.6875e-06
2.59339e-06
2.49391e-06
2.39057e-06
2.28466e-06
2.1773e-06
2.0695e-06
1.96209e-06
1.85581e-06
1.75128e-06
1.64903e-06
1.54947e-06
1.45296e-06
1.3598e-06
1.27018e-06
1.18429e-06
1.10225e-06
1.0241e-06
9.49904e-07
8.79656e-07
8.13307e-07
7.50861e-07
6.92171e-07
6.37237e-07
5.85797e-07
5.38057e-07
4.93294e-07
4.52443e-07
4.13508e-07
3.79482e-07
3.45015e-07
3.18454e-07
2.86043e-07
2.69023e-07
2.34315e-07
2.31472e-07
1.86955e-07
2.06756e-07
1.40749e-07
1.96039e-07
9.29007e-08
1.99496e-07
4.26146e-08
2.14493e-07
-6.91507e-09
2.34107e-07
-4.81323e-08
2.48367e-07
-7.22371e-08
2.49773e-07
-7.70426e-08
2.42891e-07
-7.65332e-08
2.51762e-07
-1.03537e-07
3.17789e-07
-2.03511e-07
4.9472e-07
-4.31095e-07
8.51168e-07
2.44003e-07
-7.64442e-08
2.53203e-07
-1.03979e-07
3.20206e-07
-2.05395e-07
4.99376e-07
-4.35589e-07
8.58732e-07
-1.08126e-06
-1.26971e-06
-1.43313e-06
-1.57268e-06
-1.68968e-06
-1.78554e-06
-1.86162e-06
-1.91926e-06
-1.95981e-06
-1.98461e-06
-1.99499e-06
-1.99226e-06
-1.97769e-06
-1.95251e-06
-1.91792e-06
-1.87508e-06
-1.82509e-06
-1.769e-06
-1.70781e-06
-1.64243e-06
-1.57377e-06
-1.50261e-06
-1.42973e-06
-1.3558e-06
-1.28145e-06
-1.20725e-06
-1.1337e-06
-1.06125e-06
-9.90301e-07
-9.21176e-07
-8.54167e-07
-7.89512e-07
-7.27405e-07
-6.67996e-07
-6.11398e-07
-5.57687e-07
-5.06909e-07
-4.59078e-07
-4.14186e-07
-3.722e-07
-3.33068e-07
-2.96722e-07
-2.6308e-07
-2.32047e-07
-2.03528e-07
-1.77396e-07
-1.53583e-07
-1.31867e-07
-1.12392e-07
-9.44337e-08
-7.92734e-08
-6.37419e-08
-5.42295e-08
-3.746e-08
-3.88818e-08
-1.16163e-08
-3.61247e-08
1.60102e-08
-4.13756e-08
2.9697e-08
-2.12335e-08
-2.00238e-08
7.40568e-08
-1.49872e-07
1.84702e-07
-2.16638e-07
1.42455e-07
-1.65777e-07
1.01735e-07
-2.97222e-07
-1.13212e-06
-1.31603e-06
-1.47516e-06
-1.61066e-06
-1.72384e-06
-1.81614e-06
-1.8889e-06
-1.94345e-06
-1.98113e-06
-2.00329e-06
-2.01125e-06
-2.00629e-06
-1.9897e-06
-1.96269e-06
-1.92646e-06
-1.88215e-06
-1.83084e-06
-1.77358e-06
-1.71136e-06
-1.64509e-06
-1.57564e-06
-1.50382e-06
-1.43037e-06
-1.35596e-06
-1.28122e-06
-1.20669e-06
-1.13289e-06
-1.06024e-06
-9.89133e-07
-9.199e-07
-8.52819e-07
-7.88124e-07
-7.26003e-07
-6.66603e-07
-6.10031e-07
-5.56361e-07
-5.05634e-07
-4.57863e-07
-4.13037e-07
-3.7112e-07
-3.3206e-07
-2.95786e-07
-2.62216e-07
-2.31253e-07
-2.02801e-07
-1.76732e-07
-1.52983e-07
-1.31317e-07
-1.1191e-07
-9.39692e-08
-7.89177e-08
-6.32989e-08
-5.40675e-08
-3.68807e-08
-3.91172e-08
-1.05702e-08
-3.71295e-08
1.79336e-08
-4.33131e-08
3.21858e-08
-2.28683e-08
-1.93547e-08
7.5788e-08
-1.54196e-07
1.92666e-07
-2.26518e-07
1.54619e-07
-1.76862e-07
1.12325e-07
-3.08392e-07
-1.23046e-06
-1.40558e-06
-1.55638e-06
-1.68403e-06
-1.78984e-06
-1.87523e-06
-1.94155e-06
-1.99011e-06
-2.02225e-06
-2.0393e-06
-2.04256e-06
-2.03332e-06
-2.01283e-06
-1.98229e-06
-1.94287e-06
-1.8957e-06
-1.84185e-06
-1.78234e-06
-1.71814e-06
-1.65014e-06
-1.5792e-06
-1.50609e-06
-1.43155e-06
-1.35622e-06
-1.28071e-06
-1.20557e-06
-1.13126e-06
-1.05823e-06
-9.86832e-07
-9.17391e-07
-8.50176e-07
-7.85406e-07
-7.23263e-07
-6.63882e-07
-6.07364e-07
-5.53774e-07
-5.03149e-07
-4.55496e-07
-4.10799e-07
-3.69019e-07
-3.30098e-07
-2.93965e-07
-2.60535e-07
-2.29707e-07
-2.01387e-07
-1.75442e-07
-1.51816e-07
-1.30251e-07
-1.10966e-07
-9.30818e-08
-7.81934e-08
-6.2509e-08
-5.36088e-08
-3.60362e-08
-3.90549e-08
-9.45142e-09
-3.75971e-08
1.94011e-08
-4.41082e-08
3.35629e-08
-2.3304e-08
-1.8659e-08
7.61565e-08
-1.54301e-07
1.94263e-07
-2.29377e-07
1.61167e-07
-1.85766e-07
1.22126e-07
-3.17639e-07
-1.37255e-06
-1.5349e-06
-1.67364e-06
-1.78991e-06
-1.88504e-06
-1.96043e-06
-2.01742e-06
-2.05732e-06
-2.08144e-06
-2.0911e-06
-2.08758e-06
-2.07215e-06
-2.04602e-06
-2.01037e-06
-1.96636e-06
-1.91508e-06
-1.85757e-06
-1.79482e-06
-1.72776e-06
-1.65727e-06
-1.58418e-06
-1.50922e-06
-1.4331e-06
-1.35646e-06
-1.27986e-06
-1.20383e-06
-1.12881e-06
-1.05523e-06
-9.83421e-07
-9.13689e-07
-8.46285e-07
-7.81415e-07
-7.19244e-07
-6.59897e-07
-6.03461e-07
-5.49994e-07
-4.99521e-07
-4.52042e-07
-4.07535e-07
-3.65955e-07
-3.27239e-07
-2.91312e-07
-2.58086e-07
-2.27457e-07
-1.9933e-07
-1.73565e-07
-1.50117e-07
-1.28701e-07
-1.09593e-07
-9.17938e-08
-7.71348e-08
-6.13738e-08
-5.29138e-08
-3.48652e-08
-3.88602e-08
-8.00444e-09
-3.79967e-08
2.11395e-08
-4.47573e-08
3.50265e-08
-2.34276e-08
-1.78818e-08
7.64151e-08
-1.53512e-07
1.94978e-07
-2.31099e-07
1.67679e-07
-1.94801e-07
1.32845e-07
-3.26489e-07
-1.55457e-06
-1.70049e-06
-1.8237e-06
-1.92534e-06
-2.00673e-06
-2.06927e-06
-2.11429e-06
-2.14306e-06
-2.1569e-06
-2.15708e-06
-2.14487e-06
-2.1215e-06
-2.08815e-06
-2.04598e-06
-1.9961e-06
-1.93955e-06
-1.87736e-06
-1.81047e-06
-1.73978e-06
-1.66612e-06
-1.59028e-06
-1.51298e-06
-1.43486e-06
-1.35655e-06
-1.27857e-06
-1.20141e-06
-1.12551e-06
-1.05123e-06
-9.7891e-07
-9.08818e-07
-8.41184e-07
-7.76197e-07
-7.14001e-07
-6.54705e-07
-5.98384e-07
-5.4508e-07
-4.94809e-07
-4.47561e-07
-4.03303e-07
-3.61984e-07
-3.23537e-07
-2.87878e-07
-2.54917e-07
-2.24546e-07
-1.96669e-07
-1.71137e-07
-1.47922e-07
-1.26698e-07
-1.0782e-07
-9.01287e-08
-7.57691e-08
-5.9907e-08
-5.20159e-08
-3.33588e-08
-3.85965e-08
-6.15844e-09
-3.84847e-08
2.33635e-08
-4.56008e-08
3.69809e-08
-2.36842e-08
-1.6799e-08
7.68175e-08
-1.52821e-07
1.96483e-07
-2.33738e-07
1.7587e-07
-2.05084e-07
1.45016e-07
-3.35606e-07
-1.77259e-06
-1.89871e-06
-2.00322e-06
-2.08724e-06
-2.1521e-06
-2.1992e-06
-2.22982e-06
-2.24524e-06
-2.24673e-06
-2.23555e-06
-2.21292e-06
-2.18004e-06
-2.13806e-06
-2.08808e-06
-2.03117e-06
-1.96835e-06
-1.90058e-06
-1.82875e-06
-1.75373e-06
-1.6763e-06
-1.5972e-06
-1.5171e-06
-1.43663e-06
-1.35634e-06
-1.27673e-06
-1.19825e-06
-1.1213e-06
-1.04622e-06
-9.73298e-07
-9.02792e-07
-8.34901e-07
-7.69788e-07
-7.07577e-07
-6.48358e-07
-5.92187e-07
-5.39091e-07
-4.89072e-07
-4.42109e-07
-3.98159e-07
-3.57162e-07
-3.19043e-07
-2.83712e-07
-2.51075e-07
-2.21017e-07
-1.93446e-07
-1.68196e-07
-1.45264e-07
-1.24271e-07
-1.05677e-07
-8.81107e-08
-7.4121e-08
-5.81277e-08
-5.09347e-08
-3.15355e-08
-3.82725e-08
-3.9432e-09
-3.90456e-08
2.60159e-08
-4.65948e-08
3.93536e-08
-2.40561e-08
-1.54087e-08
7.72917e-08
-1.52147e-07
1.98601e-07
-2.3708e-07
1.85368e-07
-2.16316e-07
1.58237e-07
-3.44707e-07
-2.02264e-06
-2.12588e-06
-2.20879e-06
-2.27248e-06
-2.31829e-06
-2.34759e-06
-2.36164e-06
-2.3617e-06
-2.349e-06
-2.32476e-06
-2.29018e-06
-2.2464e-06
-2.19452e-06
-2.1356e-06
-2.07067e-06
-2.00067e-06
-1.92652e-06
-1.84906e-06
-1.76911e-06
-1.68739e-06
-1.60459e-06
-1.52133e-06
-1.43818e-06
-1.35565e-06
-1.2742e-06
-1.19424e-06
-1.11612e-06
-1.04015e-06
-9.66573e-07
-8.95618e-07
-8.27456e-07
-7.62222e-07
-7.00014e-07
-6.40901e-07
-5.84919e-07
-5.32078e-07
-4.82364e-07
-4.35741e-07
-3.92156e-07
-3.51539e-07
-3.13806e-07
-2.7886e-07
-2.46603e-07
-2.16911e-07
-1.89697e-07
-1.64777e-07
-1.42177e-07
-1.2145e-07
-1.0319e-07
-8.5763e-08
-7.2215e-08
-5.60536e-08
-4.96905e-08
-2.94116e-08
-3.78989e-08
-1.38541e-09
-3.96658e-08
2.90417e-08
-4.76898e-08
4.2058e-08
-2.44744e-08
-1.3786e-08
7.78481e-08
-1.51442e-07
2.01148e-07
-2.40809e-07
1.95685e-07
-2.27997e-07
1.72071e-07
-3.53496e-07
-2.30074e-06
-2.37832e-06
-2.43701e-06
-2.47794e-06
-2.50243e-06
-2.51183e-06
-2.50737e-06
-2.49028e-06
-2.46176e-06
-2.42298e-06
-2.37509e-06
-2.31918e-06
-2.25631e-06
-2.18747e-06
-2.11363e-06
-2.03569e-06
-1.95448e-06
-1.87082e-06
-1.78542e-06
-1.69897e-06
-1.6121e-06
-1.52537e-06
-1.43929e-06
-1.35432e-06
-1.27087e-06
-1.18931e-06
-1.10992e-06
-1.03299e-06
-9.5872e-07
-8.87299e-07
-8.18866e-07
-7.53525e-07
-6.91348e-07
-6.32378e-07
-5.76629e-07
-5.24092e-07
-4.74735e-07
-4.28508e-07
-3.85345e-07
-3.45164e-07
-3.07873e-07
-2.73368e-07
-2.41544e-07
-2.12269e-07
-1.85462e-07
-1.60914e-07
-1.38693e-07
-1.18264e-07
-1.00389e-07
-8.31074e-08
-7.00755e-08
-5.37009e-08
-4.83047e-08
-2.70006e-08
-3.74902e-08
1.49626e-09
-4.03446e-08
3.24073e-08
-4.88657e-08
4.50478e-08
-2.49086e-08
-1.19818e-08
7.85151e-08
-1.50731e-07
2.04066e-07
-2.44774e-07
2.06514e-07
-2.39747e-07
1.86168e-07
-3.61777e-07
-2.60296e-06
-2.65237e-06
-2.68452e-06
-2.70052e-06
-2.70167e-06
-2.68932e-06
-2.66465e-06
-2.62885e-06
-2.58308e-06
-2.52847e-06
-2.4661e-06
-2.39702e-06
-2.32221e-06
-2.24262e-06
-2.15914e-06
-2.0726e-06
-1.98378e-06
-1.89341e-06
-1.80215e-06
-1.71062e-06
-1.61938e-06
-1.52893e-06
-1.43973e-06
-1.35216e-06
-1.2666e-06
-1.18333e-06
-1.10263e-06
-1.0247e-06
-9.4972e-07
-8.77834e-07
-8.09145e-07
-7.43724e-07
-6.81613e-07
-6.22829e-07
-5.67361e-07
-5.1518e-07
-4.66234e-07
-4.20459e-07
-3.77774e-07
-3.38086e-07
-3.01292e-07
-2.67279e-07
-2.35939e-07
-2.07129e-07
-1.80775e-07
-1.5664e-07
-1.34842e-07
-1.14738e-07
-9.72995e-08
-8.0165e-08
-6.77266e-08
-5.10849e-08
-4.67986e-08
-2.43151e-08
-3.70607e-08
4.68377e-09
-4.10815e-08
3.60812e-08
-5.01061e-08
4.82838e-08
-2.5341e-08
-1.00272e-08
7.92965e-08
-1.50015e-07
2.07289e-07
-2.4884e-07
2.17598e-07
-2.51261e-07
2.00219e-07
-3.69398e-07
-2.92542e-06
-2.94445e-06
-2.94799e-06
-2.93716e-06
-2.91323e-06
-2.8775e-06
-2.83114e-06
-2.77529e-06
-2.71106e-06
-2.63951e-06
-2.56168e-06
-2.47855e-06
-2.39103e-06
-2.29999e-06
-2.20627e-06
-2.11061e-06
-2.01372e-06
-1.91626e-06
-1.81881e-06
-1.72193e-06
-1.6261e-06
-1.53175e-06
-1.43928e-06
-1.34901e-06
-1.26125e-06
-1.17623e-06
-1.09417e-06
-1.01524e-06
-9.39555e-07
-8.67222e-07
-7.98306e-07
-7.32842e-07
-6.70842e-07
-6.12292e-07
-5.57159e-07
-5.05388e-07
-4.5691e-07
-4.11643e-07
-3.69492e-07
-3.3035e-07
-2.94106e-07
-2.60636e-07
-2.2983e-07
-2.01529e-07
-1.75673e-07
-1.51987e-07
-1.30656e-07
-1.109e-07
-9.39484e-08
-7.6956e-08
-6.51918e-08
-4.82205e-08
-4.51926e-08
-2.13678e-08
-3.66232e-08
8.15806e-09
-4.18739e-08
4.00304e-08
-5.13921e-08
5.1726e-08
-2.5755e-08
-7.94595e-09
8.01779e-08
-1.49266e-07
2.10713e-07
-2.52844e-07
2.28673e-07
-2.62265e-07
2.13942e-07
-3.76218e-07
-3.26436e-06
-3.25106e-06
-3.22421e-06
-3.1849e-06
-3.13437e-06
-3.0739e-06
-3.0046e-06
-2.92757e-06
-2.84385e-06
-2.75447e-06
-2.66037e-06
-2.56246e-06
-2.4616e-06
-2.35858e-06
-2.25413e-06
-2.14894e-06
-2.04364e-06
-1.9388e-06
-1.83493e-06
-1.7325e-06
-1.63192e-06
-1.53355e-06
-1.43772e-06
-1.34469e-06
-1.25469e-06
-1.16791e-06
-1.0845e-06
-1.00457e-06
-9.28207e-07
-8.55463e-07
-7.86361e-07
-7.20903e-07
-6.59065e-07
-6.00806e-07
-5.46063e-07
-4.9476e-07
-4.46808e-07
-4.02105e-07
-3.60542e-07
-3.22e-07
-2.86358e-07
-2.5348e-07
-2.23253e-07
-1.95504e-07
-1.70188e-07
-1.46985e-07
-1.26163e-07
-1.06773e-07
-9.03613e-08
-7.34993e-08
-6.24942e-08
-4.51217e-08
-4.3506e-08
-1.81715e-08
-3.61891e-08
1.18993e-08
-4.27173e-08
4.42211e-08
-5.27045e-08
5.53355e-08
-2.61362e-08
-5.75543e-09
8.11342e-08
-1.48435e-07
2.14213e-07
-2.56608e-07
2.39482e-07
-2.72502e-07
2.27076e-07
-3.82097e-07
-3.6161e-06
-3.56881e-06
-3.51005e-06
-3.44085e-06
-3.36247e-06
-3.27611e-06
-3.18285e-06
-3.08371e-06
-2.97969e-06
-2.87174e-06
-2.76073e-06
-2.6475e-06
-2.53282e-06
-2.41739e-06
-2.30187e-06
-2.18687e-06
-2.07291e-06
-1.96049e-06
-1.85004e-06
-1.74194e-06
-1.63652e-06
-1.53408e-06
-1.43486e-06
-1.33905e-06
-1.24681e-06
-1.15828e-06
-1.07354e-06
-9.92659e-07
-9.15661e-07
-8.42556e-07
-7.73324e-07
-7.0793e-07
-6.46315e-07
-5.88406e-07
-5.34114e-07
-4.8334e-07
-4.35971e-07
-3.9189e-07
-3.50971e-07
-3.13081e-07
-2.7809e-07
-2.45849e-07
-2.16246e-07
-1.89088e-07
-1.64354e-07
-1.41664e-07
-1.21392e-07
-1.02383e-07
-8.6563e-08
-6.98135e-08
-5.96557e-08
-4.18021e-08
-4.17572e-08
-1.47395e-08
-3.57679e-08
1.58865e-08
-4.36058e-08
4.86198e-08
-5.40247e-08
5.90768e-08
-2.64754e-08
-3.4651e-09
8.21307e-08
-1.47465e-07
2.17658e-07
-2.59957e-07
2.49781e-07
-2.81735e-07
2.39377e-07
-3.86887e-07
-3.97714e-06
-3.89445e-06
-3.8025e-06
-3.70228e-06
-3.595e-06
-3.48183e-06
-3.36379e-06
-3.24183e-06
-3.11688e-06
-2.98981e-06
-2.86143e-06
-2.73247e-06
-2.60363e-06
-2.47551e-06
-2.3487e-06
-2.22369e-06
-2.10093e-06
-1.98083e-06
-1.86372e-06
-1.7499e-06
-1.63963e-06
-1.5331e-06
-1.4305e-06
-1.33193e-06
-1.2375e-06
-1.14726e-06
-1.06126e-06
-9.79476e-07
-9.01906e-07
-8.28504e-07
-7.59211e-07
-6.93947e-07
-6.32622e-07
-5.75129e-07
-5.21354e-07
-4.71169e-07
-4.24444e-07
-3.81041e-07
-3.40819e-07
-3.03632e-07
-2.6934e-07
-2.37782e-07
-2.08846e-07
-1.82316e-07
-1.58201e-07
-1.36051e-07
-1.1637e-07
-9.77512e-08
-8.25775e-08
-6.59157e-08
-5.66973e-08
-3.8275e-08
-3.99628e-08
-1.10854e-08
-3.5367e-08
2.00982e-08
-4.45318e-08
5.31934e-08
-5.53352e-08
6.29183e-08
-2.6768e-08
-1.07704e-09
8.31253e-08
-1.46289e-07
2.20916e-07
-2.62725e-07
2.59348e-07
-2.89754e-07
2.50619e-07
-3.90434e-07
-4.34409e-06
-4.22487e-06
-4.0987e-06
-3.96655e-06
-3.82957e-06
-3.68889e-06
-3.54545e-06
-3.40014e-06
-3.25382e-06
-3.10726e-06
-2.96118e-06
-2.81625e-06
-2.67304e-06