/*--------------------------------*- C++ -*----------------------------------*\
| =========                 |                                                 |
| \\      /  F ield         | OpenFOAM: The Open Source CFD Toolbox           |
|  \\    /   O peration     | Version:  2412                                  |
|   \\  /    A nd           | Website:  www.openfoam.com                      |
|    \\/     M anipulation  |                                                 |
\*---------------------------------------------------------------------------*/
FoamFile
{
    version     2.0;
    format      ascii;
    arch        "LSB;label=32;scalar=64";
    class       volScalarField;
    location    "8.5";
    object      p;
}
// * * * * * * * * * * * * * * * * * * * * * * * * * * * * * * * * * * * * * //

dimensions      [0 2 -2 0 0 0 0];

internalField   nonuniform List<scalar> 
63420
(
0.0010363
0.00103703
0.00103748
0.00103898
0.00104068
0.00104282
0.00104537
0.00104827
0.00105154
0.00105518
0.00105917
0.00106351
0.0010682
0.00107324
0.00107861
0.00108432
0.00109036
0.00109674
0.00110344
0.00111048
0.00111784
0.00112553
0.00113356
0.00114192
0.00115061
0.00115964
0.001169
0.00117871
0.00118876
0.00119916
0.00120991
0.00122101
0.00123247
0.00124428
0.00125646
0.00126901
0.00128193
0.00129523
0.00130891
0.00132297
0.00133742
0.00135227
0.00136751
0.00138316
0.00139922
0.00141569
0.00143257
0.00144988
0.00146762
0.0014858
0.00150441
0.00152346
0.00154297
0.00156293
0.00158335
0.00103625
0.00103697
0.00103742
0.00103892
0.00104062
0.00104275
0.0010453
0.0010482
0.00105147
0.0010551
0.00105909
0.00106343
0.00106812
0.00107315
0.00107852
0.00108423
0.00109026
0.00109663
0.00110333
0.00111036
0.00111771
0.0011254
0.00113342
0.00114177
0.00115045
0.00115947
0.00116883
0.00117853
0.00118857
0.00119895
0.00120969
0.00122077
0.00123222
0.00124402
0.00125618
0.00126871
0.00128162
0.00129489
0.00130855
0.00132259
0.00133702
0.00135184
0.00136706
0.00138268
0.00139871
0.00141514
0.001432
0.00144927
0.00146698
0.00148511
0.00150368
0.00152269
0.00154215
0.00156206
0.00158242
0.00103613
0.00103685
0.0010373
0.0010388
0.00104049
0.00104262
0.00104517
0.00104806
0.00105133
0.00105496
0.00105894
0.00106327
0.00106796
0.00107298
0.00107834
0.00108403
0.00109006
0.00109642
0.0011031
0.00111012
0.00111746
0.00112513
0.00113314
0.00114147
0.00115014
0.00115914
0.00116847
0.00117815
0.00118817
0.00119853
0.00120924
0.0012203
0.00123171
0.00124349
0.00125562
0.00126811
0.00128098
0.00129422
0.00130783
0.00132183
0.00133621
0.00135099
0.00136615
0.00138172
0.00139769
0.00141406
0.00143085
0.00144806
0.00146568
0.00148374
0.00150222
0.00152115
0.00154051
0.00156032
0.00158058
0.00103596
0.00103667
0.00103712
0.00103861
0.0010403
0.00104243
0.00104497
0.00104786
0.00105112
0.00105474
0.00105871
0.00106304
0.00106771
0.00107272
0.00107807
0.00108375
0.00108976
0.0010961
0.00110277
0.00110976
0.00111709
0.00112474
0.00113272
0.00114103
0.00114967
0.00115864
0.00116795
0.00117759
0.00118757
0.0011979
0.00120857
0.00121959
0.00123096
0.00124269
0.00125477
0.00126722
0.00128003
0.00129321
0.00130676
0.0013207
0.00133501
0.00134971
0.0013648
0.00138028
0.00139616
0.00141244
0.00142913
0.00144623
0.00146375
0.00148169
0.00150005
0.00151884
0.00153806
0.00155772
0.00157782
0.00103572
0.00103644
0.00103688
0.00103836
0.00104005
0.00104217
0.0010447
0.00104758
0.00105083
0.00105444
0.00105841
0.00106272
0.00106737
0.00107237
0.0010777
0.00108336
0.00108935
0.00109567
0.00110232
0.00110929
0.00111659
0.00112421
0.00113216
0.00114043
0.00114904
0.00115797
0.00116724
0.00117684
0.00118678
0.00119706
0.00120768
0.00121865
0.00122996
0.00124163
0.00125365
0.00126602
0.00127876
0.00129187
0.00130534
0.00131918
0.00133341
0.00134801
0.00136299
0.00137837
0.00139413
0.00141029
0.00142685
0.00144381
0.00146119
0.00147897
0.00149716
0.00151578
0.00153482
0.00155428
0.00157416
0.00103543
0.00103614
0.00103658
0.00103806
0.00103974
0.00104185
0.00104437
0.00104724
0.00105048
0.00105408
0.00105803
0.00106232
0.00106696
0.00107194
0.00107724
0.00108288
0.00108885
0.00109514
0.00110176
0.0011087
0.00111596
0.00112355
0.00113146
0.00113969
0.00114826
0.00115715
0.00116636
0.00117591
0.0011858
0.00119602
0.00120658
0.00121747
0.00122872
0.00124031
0.00125225
0.00126454
0.00127719
0.0012902
0.00130357
0.0013173
0.00133141
0.00134589
0.00136075
0.00137599
0.00139161
0.00140762
0.00142401
0.00144081
0.001458
0.00147559
0.00149358
0.00151198
0.00153079
0.00155
0.00156963
0.00103508
0.00103579
0.00103622
0.00103769
0.00103936
0.00104146
0.00104397
0.00104683
0.00105006
0.00105364
0.00105757
0.00106185
0.00106646
0.00107142
0.0010767
0.00108231
0.00108825
0.00109451
0.00110109
0.00110799
0.00111521
0.00112276
0.00113062
0.00113881
0.00114732
0.00115615
0.00116531
0.0011748
0.00118462
0.00119477
0.00120525
0.00121607
0.00122723
0.00123873
0.00125057
0.00126276
0.0012753
0.0012882
0.00130145
0.00131506
0.00132903
0.00134337
0.00135807
0.00137315
0.0013886
0.00140442
0.00142063
0.00143722
0.0014542
0.00147156
0.00148931
0.00150745
0.00152599
0.00154492
0.00156423
0.0016043
0.00162599
0.00164861
0.0016722
0.00169693
0.00172274
0.00174973
0.00177799
0.00180759
0.00183861
0.00187116
0.00190533
0.00194124
0.001979
0.00201875
0.00206063
0.00210481
0.00215147
0.0022008
0.00225301
0.00230835
0.00236707
0.00242947
0.00249587
0.00256661
0.00264208
0.0027227
0.00280896
0.00290137
0.00300053
0.00310706
0.00322171
0.00334525
0.00347857
0.00362262
0.00377842
0.00394706
0.00412963
0.00432713
0.00454035
0.00476959
0.00501436
0.00527285
0.00554154
0.00581537
0.00608842
0.00635448
0.00661832
0.00695113
0.00745377
0.00160334
0.00162503
0.00164766
0.00167134
0.00169599
0.00172178
0.00174877
0.00177702
0.00180661
0.00183763
0.00187017
0.00190433
0.00194023
0.00197798
0.00201771
0.00205958
0.00210374
0.00215038
0.00219968
0.00225185
0.00230714
0.00236581
0.00242814
0.00249443
0.00256505
0.00264036
0.00272079
0.00280679
0.00289889
0.00299765
0.00310368
0.00321769
0.00334042
0.0034727
0.00361543
0.00376952
0.00393594
0.00411562
0.00430934
0.0045176
0.00474031
0.00497645
0.00522357
0.00547733
0.00573159
0.00597939
0.00621385
0.00643887
0.00672116
0.00715452
0.00160144
0.00162314
0.00164579
0.00166939
0.00169406
0.00171985
0.00174683
0.00177507
0.00180465
0.00183566
0.00186818
0.00190233
0.00193821
0.00197594
0.00201564
0.00205748
0.00210161
0.0021482
0.00219744
0.00224955
0.00230474
0.00236329
0.00242547
0.00249158
0.00256195
0.00263695
0.00271699
0.0028025
0.00289398
0.00299195
0.003097
0.00320976
0.0033309
0.00346115
0.00360126
0.00375198
0.00391403
0.004088
0.00427423
0.00447262
0.00468228
0.00490116
0.00512544
0.00534907
0.00556385
0.00576058
0.00593134
0.00607848
0.00625529
0.00656356
0.0015986
0.00162029
0.0016429
0.0016665
0.00169117
0.00171695
0.00174391
0.00177214
0.0018017
0.00183269
0.00186519
0.00189931
0.00193515
0.00197284
0.00201251
0.00205429
0.00209836
0.00214488
0.00219403
0.00224601
0.00230106
0.00235943
0.00242136
0.00248717
0.00255716
0.00263169
0.00271112
0.00279588
0.00288641
0.00298318
0.00308673
0.00319758
0.00331631
0.00344348
0.00357966
0.00372531
0.0038808
0.00404622
0.00422126
0.00440493
0.00459516
0.00478831
0.00497851
0.00515719
0.00531302
0.00543332
0.00550852
0.00554251
0.00557253
0.00566012
0.00159483
0.0016165
0.00163911
0.0016627
0.00168735
0.00171312
0.00174007
0.00176828
0.00179783
0.00182879
0.00186127
0.00189535
0.00193116
0.00196881
0.00200843
0.00205016
0.00209416
0.0021406
0.00218964
0.00224148
0.00229636
0.00235449
0.00241613
0.00248155
0.00255105
0.00262496
0.00270361
0.00278737
0.00287664
0.00297184
0.00307338
0.0031817
0.0032972
0.00342025
0.00355113
0.00368996
0.00383658
0.00399044
0.00415033
0.00431407
0.00447801
0.00463643
0.00478081
0.00489926
0.00497652
0.0049954
0.00494305
0.00482683
0.00467319
0.00442087
0.00159014
0.00161181
0.00163443
0.00165803
0.0016827
0.00170848
0.00173545
0.00176368
0.00179324
0.00182423
0.00185672
0.00189083
0.00192667
0.00196435
0.00200401
0.00204578
0.00208982
0.0021363
0.00218538
0.00223725
0.00229212
0.00235022
0.00241178
0.00247705
0.00254632
0.00261988
0.00269804
0.00278113
0.00286949
0.00296346
0.00306338
0.00316953
0.00328216
0.00340139
0.00352715
0.00365907
0.00379632
0.00393738
0.00407966
0.00421907
0.00434933
0.00446128
0.00454199
0.00457433
0.00453709
0.00440703
0.00416622
0.00382303
0.0033966
0.00268542
0.00158453
0.00160613
0.00162869
0.00165224
0.00167685
0.00170259
0.0017295
0.00175768
0.00178718
0.0018181
0.00185054
0.00188458
0.00192035
0.00195797
0.00199756
0.00203927
0.00208325
0.00212966
0.00217866
0.00223044
0.00228519
0.00234314
0.00240449
0.0024695
0.00253842
0.00261152
0.00268908
0.0027714
0.00285876
0.00295143
0.00304967
0.00315362
0.00326337
0.00337878
0.00349943
0.00362445
0.00375225
0.00388017
0.00400395
0.00411697
0.00420943
0.00426721
0.00427103
0.00419624
0.0040137
0.00369168
0.0032079
0.00257669
0.00176581
0.000461647
-0.00320552
-0.003222
-0.00316257
-0.00304207
-0.00287439
-0.00266783
-0.00243204
-0.00217786
-0.00191588
-0.00165568
-0.00140542
-0.00117151
-0.000958499
-0.000769109
-0.000604477
-0.000464429
-0.000347792
-0.000252702
-0.000176876
-0.000117851
-7.31444e-05
-4.03138e-05
-1.71099e-05
-1.66292e-06
7.55974e-06
1.20059e-05
1.29992e-05
1.15138e-05
8.26681e-06
3.842e-06
-1.30489e-06
-6.83209e-06
-1.24887e-05
-1.80943e-05
-2.35229e-05
-2.86903e-05
-3.35435e-05
-3.80524e-05
-4.22038e-05
-4.59966e-05
-4.94374e-05
-5.25387e-05
-5.53163e-05
-5.7788e-05
-5.99728e-05
-6.18898e-05
-6.35578e-05
-6.49952e-05
-6.62197e-05
-6.72477e-05
-0.00332189
-0.00330875
-0.00323165
-0.00310281
-0.00292882
-0.002719
-0.0024808
-0.00222472
-0.00196098
-0.00169888
-0.00144649
-0.00121019
-0.000994582
-0.000802448
-0.000635006
-0.000492155
-0.000372786
-0.000275086
-0.000196808
-0.000135515
-8.87336e-05
-5.40331e-05
-2.91418e-05
-1.21819e-05
-1.62703e-06
3.99041e-06
6.0074e-06
5.4172e-06
2.9513e-06
-7.94452e-07
-5.35221e-06
-1.03689e-05
-1.55834e-05
-2.08061e-05
-2.5903e-05
-3.07829e-05
-3.53864e-05
-3.96783e-05
-4.36409e-05
-4.72686e-05
-5.0565e-05
-5.35396e-05
-5.62057e-05
-5.85791e-05
-6.06767e-05
-6.25163e-05
-6.41154e-05
-6.54913e-05
-6.66608e-05
-6.7639e-05
-0.00355912
-0.00347653
-0.003374
-0.00321622
-0.00303436
-0.00281761
-0.00257458
-0.00231499
-0.00204802
-0.00178245
-0.00152612
-0.00128539
-0.0010649
-0.000867574
-0.000694771
-0.000546539
-0.000421898
-0.000319138
-0.000236091
-0.00017037
-0.000119533
-8.11517e-05
-5.29633e-05
-3.30305e-05
-1.98131e-05
-1.18836e-05
-7.84695e-06
-6.66621e-06
-7.58429e-06
-9.9835e-06
-1.33728e-05
-1.73767e-05
-2.17139e-05
-2.61769e-05
-3.06159e-05
-3.49253e-05
-3.90339e-05
-4.28956e-05
-4.64835e-05
-4.97844e-05
-5.27949e-05
-5.55187e-05
-5.79641e-05
-6.01428e-05
-6.20683e-05
-6.3755e-05
-6.5218e-05
-6.64724e-05
-6.75332e-05
-6.84132e-05
-0.00391208
-0.00371293
-0.00357017
-0.00339083
-0.00318723
-0.00295833
-0.00270824
-0.00244351
-0.00217191
-0.00190149
-0.00163971
-0.00139283
-0.00116554
-0.000960933
-0.000780583
-0.000624739
-0.000492612
-0.000382643
-0.000292782
-0.000220716
-0.000164054
-0.000120402
-8.74472e-05
-6.32504e-05
-4.62153e-05
-3.4899e-05
-2.79425e-05
-2.42022e-05
-2.28801e-05
-2.33291e-05
-2.50256e-05
-2.75619e-05
-3.06275e-05
-3.39891e-05
-3.74738e-05
-4.09559e-05
-4.43463e-05
-4.75839e-05
-5.06282e-05
-5.34546e-05
-5.60499e-05
-5.84094e-05
-6.05344e-05
-6.24303e-05
-6.41053e-05
-6.55698e-05
-6.6835e-05
-6.79128e-05
-6.88155e-05
-6.95523e-05
-0.0043383
-0.0040122
-0.00382267
-0.00360558
-0.00337506
-0.00313021
-0.00287019
-0.00259857
-0.00232138
-0.00204555
-0.00177787
-0.00152431
-0.00128954
-0.00107678
-0.000887798
-0.000723095
-0.000582107
-0.000463481
-0.000365325
-0.000285446
-0.00022153
-0.000171241
-0.0001323
-0.000102657
-8.0716e-05
-6.50602e-05
-5.42782e-05
-4.71989e-05
-4.29474e-05
-4.08408e-05
-4.03152e-05
-4.09226e-05
-4.23157e-05
-4.42281e-05
-4.64571e-05
-4.8851e-05
-5.12974e-05
-5.37149e-05
-5.60454e-05
-5.82493e-05
-6.03003e-05
-6.21824e-05
-6.38876e-05
-6.54131e-05
-6.67605e-05
-6.79341e-05
-6.89405e-05
-6.97874e-05
-7.04835e-05
-7.10335e-05
-0.00477859
-0.00440888
-0.00411456
-0.00384177
-0.00357621
-0.00330951
-0.00303692
-0.0027587
-0.0024782
-0.00220031
-0.00193043
-0.00167371
-0.00143444
-0.00121576
-0.0010196
-0.000846717
-0.000696864
-0.000569002
-0.000461526
-0.000372479
-0.00029974
-0.000241119
-0.000194433
-0.000157665
-0.000129146
-0.000107507
-9.14099e-05
-7.96147e-05
-7.11958e-05
-6.5429e-05
-6.17045e-05
-5.95267e-05
-5.85021e-05
-5.83207e-05
-5.87398e-05
-5.95703e-05
-6.06667e-05
-6.19177e-05
-6.32392e-05
-6.45685e-05
-6.58599e-05
-6.70805e-05
-6.82077e-05
-6.92269e-05
-7.01292e-05
-7.09105e-05
-7.15701e-05
-7.21099e-05
-7.25331e-05
-7.28407e-05
-0.00518749
-0.00484071
-0.00449128
-0.00415712
-0.00384642
-0.00354928
-0.00325677
-0.00296588
-0.00267719
-0.00239328
-0.00211792
-0.0018552
-0.00160887
-0.00138192
-0.00117634
-0.000993146
-0.000832375
-0.000693313
-0.000574654
-0.000474683
-0.000391465
-0.000322976
-0.000267132
-0.000221926
-0.000185698
-0.000157051
-0.00013466
-0.000117305
-0.00010398
-9.39088e-05
-8.64251e-05
-8.09778e-05
-7.71193e-05
-7.44884e-05
-7.2794e-05
-7.18036e-05
-7.13317e-05
-7.12319e-05
-7.13888e-05
-7.17129e-05
-7.2135e-05
-7.26022e-05
-7.30748e-05
-7.35238e-05
-7.39281e-05
-7.42732e-05
-7.45499e-05
-7.47529e-05
-7.48797e-05
-7.49298e-05
-6.80961e-05
-6.87962e-05
-6.93524e-05
-6.97674e-05
-7.0048e-05
-7.02007e-05
-7.02318e-05
-7.01476e-05
-6.99544e-05
-6.9658e-05
-6.92639e-05
-6.87771e-05
-6.82018e-05
-6.75417e-05
-6.68003e-05
-6.59808e-05
-6.50867e-05
-6.41218e-05
-6.30905e-05
-6.19975e-05
-6.0848e-05
-5.96475e-05
-5.84015e-05
-5.71154e-05
-5.57947e-05
-5.44443e-05
-5.3069e-05
-5.16732e-05
-5.0261e-05
-4.88363e-05
-4.74026e-05
-4.59633e-05
-4.45216e-05
-4.30805e-05
-4.16427e-05
-4.02111e-05
-3.87881e-05
-3.73761e-05
-3.59775e-05
-3.45943e-05
-3.32285e-05
-3.18822e-05
-3.05563e-05
-2.92549e-05
-2.79761e-05
-2.6721e-05
-2.54956e-05
-2.42977e-05
-2.31281e-05
-2.19884e-05
-2.08793e-05
-1.98014e-05
-1.87553e-05
-1.77415e-05
-1.67604e-05
-1.58121e-05
-1.48968e-05
-1.40147e-05
-1.31657e-05
-1.23498e-05
-1.15667e-05
-1.08162e-05
-1.0098e-05
-9.41185e-06
-8.75712e-06
-8.13337e-06
-7.53998e-06
-6.97635e-06
-6.44187e-06
-5.93575e-06
-5.45726e-06
-5.00563e-06
-4.58012e-06
-4.17986e-06
-3.80394e-06
-3.45154e-06
-3.12173e-06
-2.81351e-06
-2.52601e-06
-2.25824e-06
-2.00934e-06
-1.77821e-06
-1.56413e-06
-1.36612e-06
-1.18323e-06
-1.01456e-06
-8.59389e-07
-7.16825e-07
-5.85867e-07
-4.66203e-07
-3.55878e-07
-2.56041e-07
-1.62061e-07
-8.12854e-08
5.67991e-09
5.71224e-08
1.68433e-07
1.35932e-07
3.85678e-07
6.81369e-08
8.0952e-07
-3.51167e-07
1.71149e-06
-1.38404e-06
3.25251e-06
-2.87819e-06
4.76158e-06
-3.45387e-06
4.21289e-06
-8.4042e-07
-6.83928e-08
4.99359e-06
-5.68972e-06
9.26635e-06
-6.68114e-06
-6.84392e-05
-6.91064e-05
-6.96336e-05
-7.0021e-05
-7.02763e-05
-7.04059e-05
-7.04159e-05
-7.03124e-05
-7.01014e-05
-6.97886e-05
-6.93795e-05
-6.88788e-05
-6.82907e-05
-6.7619e-05
-6.68669e-05
-6.60378e-05
-6.5135e-05
-6.41624e-05
-6.31243e-05
-6.20254e-05
-6.08708e-05
-5.96659e-05
-5.84161e-05
-5.71267e-05
-5.58031e-05
-5.44502e-05
-5.30727e-05
-5.1675e-05
-5.02612e-05
-4.88349e-05
-4.74e-05
-4.59596e-05
-4.45169e-05
-4.3075e-05
-4.16366e-05
-4.02043e-05
-3.87809e-05
-3.73685e-05
-3.59696e-05
-3.45862e-05
-3.32203e-05
-3.1874e-05
-3.0548e-05
-2.92468e-05
-2.7968e-05
-2.6713e-05
-2.54878e-05
-2.429e-05
-2.31207e-05
-2.19812e-05
-2.08723e-05
-1.97946e-05
-1.87488e-05
-1.77353e-05
-1.67544e-05
-1.58064e-05
-1.48914e-05
-1.40095e-05
-1.31608e-05
-1.23451e-05
-1.15623e-05
-1.0812e-05
-1.00941e-05
-9.40818e-06
-8.75366e-06
-8.13014e-06
-7.53696e-06
-6.97353e-06
-6.43925e-06
-5.93331e-06
-5.455e-06
-5.00354e-06
-4.57819e-06
-4.17808e-06
-3.8023e-06
-3.45003e-06
-3.12035e-06
-2.81225e-06
-2.52485e-06
-2.25718e-06
-2.00838e-06
-1.77734e-06
-1.56335e-06
-1.36541e-06
-1.18259e-06
-1.01398e-06
-8.5887e-07
-7.16366e-07
-5.85445e-07
-4.65845e-07
-3.5554e-07
-2.55758e-07
-1.61803e-07
-8.10631e-08
5.87023e-09
5.72789e-08
1.68571e-07
1.36066e-07
3.85695e-07
6.8343e-08
8.09328e-07
-3.50804e-07
1.71113e-06
-1.38367e-06
3.25218e-06
-2.87802e-06
4.76162e-06
-3.45428e-06
4.21358e-06
-8.41268e-07
-6.77458e-08
4.99328e-06
-5.68996e-06
9.26685e-06
-6.68483e-06
-6.91202e-05
-6.97221e-05
-7.01916e-05
-7.05244e-05
-7.07293e-05
-7.08132e-05
-7.07814e-05
-7.06394e-05
-7.03931e-05
-7.00479e-05
-6.9609e-05
-6.90807e-05
-6.84673e-05
-6.77723e-05
-6.69991e-05
-6.61508e-05
-6.52309e-05
-6.42431e-05
-6.31916e-05
-6.2081e-05
-6.09162e-05
-5.97025e-05
-5.84451e-05
-5.71492e-05
-5.58199e-05
-5.4462e-05
-5.30801e-05
-5.16785e-05
-5.02613e-05
-4.88322e-05
-4.73947e-05
-4.59521e-05
-4.45075e-05
-4.30639e-05
-4.16241e-05
-4.01908e-05
-3.87664e-05
-3.73534e-05
-3.5954e-05
-3.45702e-05
-3.3204e-05
-3.18576e-05
-3.05316e-05
-2.92304e-05
-2.79519e-05
-2.66971e-05
-2.54722e-05
-2.42748e-05
-2.31058e-05
-2.19668e-05
-2.08583e-05
-1.97812e-05
-1.87359e-05
-1.77228e-05
-1.67424e-05
-1.5795e-05
-1.48805e-05
-1.39992e-05
-1.3151e-05
-1.23358e-05
-1.15535e-05
-1.08037e-05
-1.00863e-05
-9.40083e-06
-8.74678e-06
-8.12368e-06
-7.53092e-06
-6.9679e-06
-6.434e-06
-5.92843e-06
-5.45048e-06
-4.99937e-06
-4.57434e-06
-4.17453e-06
-3.79904e-06
-3.44703e-06
-3.11758e-06
-2.80971e-06
-2.52252e-06
-2.25506e-06
-2.00643e-06
-1.77559e-06
-1.56176e-06
-1.36397e-06
-1.1813e-06
-1.01284e-06
-8.57853e-07
-7.15444e-07
-5.84656e-07
-4.65088e-07
-3.5492e-07
-2.55157e-07
-1.61308e-07
-8.05837e-08
6.22377e-09
5.76685e-08
1.68761e-07
1.36397e-07
3.85664e-07
6.87607e-08
8.09015e-07
-3.50182e-07
1.7105e-06
-1.38291e-06
3.25151e-06
-2.87772e-06
4.76178e-06
-3.45519e-06
4.21494e-06
-8.42926e-07
-6.64008e-08
4.99264e-06
-5.69049e-06
9.26783e-06
-6.69201e-06
-7.01277e-05
-7.06338e-05
-7.10174e-05
-7.12692e-05
-7.13999e-05
-7.14161e-05
-7.13223e-05
-7.11236e-05
-7.08251e-05
-7.04318e-05
-6.99486e-05
-6.93796e-05
-6.87288e-05
-6.79995e-05
-6.7195e-05
-6.63184e-05
-6.53732e-05
-6.43628e-05
-6.32915e-05
-6.21636e-05
-6.09838e-05
-5.9757e-05
-5.84883e-05
-5.71826e-05
-5.58447e-05
-5.44794e-05
-5.3091e-05
-5.16837e-05
-5.02614e-05
-4.88279e-05
-4.73865e-05
-4.59406e-05
-4.44932e-05
-4.30472e-05
-4.16054e-05
-4.01704e-05
-3.87447e-05
-3.73306e-05
-3.59304e-05
-3.45461e-05
-3.31796e-05
-3.18329e-05
-3.05069e-05
-2.92059e-05
-2.79276e-05
-2.66732e-05
-2.54487e-05
-2.42519e-05
-2.30835e-05
-2.19451e-05
-2.08374e-05
-1.9761e-05
-1.87164e-05
-1.77041e-05
-1.67245e-05
-1.57779e-05
-1.48642e-05
-1.39837e-05
-1.31363e-05
-1.23219e-05
-1.15403e-05
-1.07913e-05
-1.00746e-05
-9.38981e-06
-8.73645e-06
-8.11399e-06
-7.52187e-06
-6.95946e-06
-6.42613e-06
-5.92112e-06
-5.44371e-06
-4.99311e-06
-4.56856e-06
-4.16919e-06
-3.79413e-06
-3.44252e-06
-3.11343e-06
-2.8059e-06
-2.51903e-06
-2.25188e-06
-2.00352e-06
-1.77296e-06
-1.55938e-06
-1.36182e-06
-1.17937e-06
-1.01111e-06
-8.56315e-07
-7.14062e-07
-5.83448e-07
-4.63974e-07
-3.53969e-07
-2.54278e-07
-1.60561e-07
-7.98923e-08
6.76184e-09
5.82211e-08
1.69064e-07
1.36881e-07
3.85646e-07
6.93774e-08
8.08554e-07
-3.49248e-07
1.70954e-06
-1.38179e-06
3.25053e-06
-2.87731e-06
4.76208e-06
-3.4566e-06
4.21703e-06
-8.45447e-07
-6.43816e-08
4.99173e-06
-5.6913e-06
9.26933e-06
-6.70241e-06
-7.14461e-05
-7.18279e-05
-7.20984e-05
-7.22442e-05
-7.22779e-05
-7.22056e-05
-7.20307e-05
-7.17575e-05
-7.13907e-05
-7.09346e-05
-7.03934e-05
-6.97712e-05
-6.90714e-05
-6.82973e-05
-6.7452e-05
-6.65385e-05
-6.55601e-05
-6.45203e-05
-6.3423e-05
-6.22724e-05
-6.10728e-05
-5.98289e-05
-5.85452e-05
-5.72266e-05
-5.58774e-05
-5.45021e-05
-5.3105e-05
-5.16901e-05
-5.02612e-05
-4.88218e-05
-4.73754e-05
-4.59251e-05
-4.44739e-05
-4.30247e-05
-4.15803e-05
-4.01431e-05
-3.87156e-05
-3.73001e-05
-3.58989e-05
-3.45138e-05
-3.31468e-05
-3.18e-05
-3.0474e-05
-2.91731e-05
-2.78952e-05
-2.66413e-05
-2.54175e-05
-2.42213e-05
-2.30538e-05
-2.19163e-05
-2.08095e-05
-1.9734e-05
-1.86905e-05
-1.76792e-05
-1.67007e-05
-1.57551e-05
-1.48425e-05
-1.3963e-05
-1.31167e-05
-1.23033e-05
-1.15227e-05
-1.07747e-05
-1.0059e-05
-9.37514e-06
-8.72268e-06
-8.10109e-06
-7.50981e-06
-6.94821e-06
-6.41565e-06
-5.91138e-06
-5.43468e-06
-4.98476e-06
-4.56085e-06
-4.16207e-06
-3.78758e-06
-3.43649e-06
-3.10789e-06
-2.80083e-06
-2.51439e-06
-2.24764e-06
-1.99965e-06
-1.76947e-06
-1.55621e-06
-1.35895e-06
-1.1768e-06
-1.00881e-06
-8.54259e-07
-7.1222e-07
-5.81823e-07
-4.62502e-07
-3.52691e-07
-2.5312e-07
-1.59565e-07
-7.89877e-08
7.48318e-09
5.89374e-08
1.69481e-07
1.37514e-07
3.8565e-07
7.01767e-08
8.07976e-07
-3.48054e-07
1.70834e-06
-1.38042e-06
3.24943e-06
-2.877e-06
4.76276e-06
-3.45876e-06
4.22008e-06
-8.48939e-07
-6.17215e-08
4.99073e-06
-5.69268e-06
9.27169e-06
-6.71585e-06
-7.30578e-05
-7.32873e-05
-7.34183e-05
-7.3435e-05
-7.33506e-05
-7.31703e-05
-7.28964e-05
-7.25324e-05
-7.2082e-05
-7.15491e-05
-7.09373e-05
-7.02501e-05
-6.94906e-05
-6.86618e-05
-6.77667e-05
-6.68083e-05
-6.57896e-05
-6.47139e-05
-6.35849e-05
-6.24064e-05
-6.11825e-05
-5.99174e-05
-5.86154e-05
-5.72806e-05
-5.59174e-05
-5.45298e-05
-5.3122e-05
-5.16976e-05
-5.02604e-05
-4.88138e-05
-4.7361e-05
-4.59053e-05
-4.44494e-05
-4.29963e-05
-4.15486e-05
-4.01087e-05
-3.8679e-05
-3.72619e-05
-3.58593e-05
-3.44734e-05
-3.31058e-05
-3.17587e-05
-3.04328e-05
-2.91321e-05
-2.78547e-05
-2.66015e-05
-2.53784e-05
-2.41831e-05
-2.30166e-05
-2.18802e-05
-2.07746e-05
-1.97003e-05
-1.8658e-05
-1.76481e-05
-1.66709e-05
-1.57266e-05
-1.48154e-05
-1.39372e-05
-1.30922e-05
-1.22801e-05
-1.15008e-05
-1.0754e-05
-1.00395e-05
-9.35681e-06
-8.70547e-06
-8.08498e-06
-7.49474e-06
-6.93416e-06
-6.40256e-06
-5.89922e-06
-5.4234e-06
-4.97432e-06
-4.5512e-06
-4.15318e-06
-3.77939e-06
-3.42896e-06
-3.10097e-06
-2.79449e-06
-2.50859e-06
-2.24235e-06
-1.99483e-06
-1.7651e-06
-1.55226e-06
-1.35538e-06
-1.17358e-06
-1.00593e-06
-8.51685e-07
-7.09918e-07
-5.79784e-07
-4.6067e-07
-3.51087e-07
-2.51682e-07
-1.5832e-07
-7.78694e-08
8.38588e-09
5.98194e-08
1.70007e-07
1.38302e-07
3.85663e-07
7.11784e-08
8.07248e-07
-3.46545e-07
1.70681e-06
-1.37867e-06
3.24802e-06
-2.87656e-06
4.76356e-06
-3.46142e-06
4.22386e-06
-8.53275e-07
-5.83941e-08
4.98943e-06
-5.69424e-06
9.27443e-06
-6.73121e-06
-7.49381e-05
-7.49906e-05
-7.4958e-05
-7.48247e-05
-7.46035e-05
-7.42974e-05
-7.39081e-05
-7.3438e-05
-7.28902e-05
-7.22677e-05
-7.15735e-05
-7.08104e-05
-6.99813e-05
-6.90889e-05
-6.8136e-05
-6.71252e-05
-6.60595e-05
-6.49419e-05
-6.37758e-05
-6.25647e-05
-6.13122e-05
-6.0022e-05
-5.86981e-05
-5.73443e-05
-5.59643e-05
-5.45621e-05
-5.31414e-05
-5.17057e-05
-5.02586e-05
-4.88034e-05
-4.73432e-05
-4.5881e-05
-4.44196e-05
-4.29618e-05
-4.15102e-05
-4.00671e-05
-3.86349e-05
-3.72157e-05
-3.58117e-05
-3.44247e-05
-3.30565e-05
-3.17091e-05
-3.03833e-05
-2.90829e-05
-2.7806e-05
-2.65536e-05
-2.53314e-05
-2.41373e-05
-2.2972e-05
-2.18369e-05
-2.07327e-05
-1.96599e-05
-1.86192e-05
-1.76108e-05
-1.66352e-05
-1.56925e-05
-1.47828e-05
-1.39063e-05
-1.30628e-05
-1.22522e-05
-1.14745e-05
-1.07292e-05
-1.00161e-05
-9.33483e-06
-8.68484e-06
-8.06566e-06
-7.47668e-06
-6.91731e-06
-6.38686e-06
-5.88463e-06
-5.40987e-06
-4.9618e-06
-4.53963e-06
-4.1425e-06
-3.76957e-06
-3.41993e-06
-3.09268e-06
-2.78689e-06
-2.50164e-06
-2.23601e-06
-1.98906e-06
-1.75986e-06
-1.54752e-06
-1.35109e-06
-1.16973e-06
-1.00247e-06
-8.48595e-07
-7.07157e-07
-5.77332e-07
-4.58478e-07
-3.49159e-07
-2.49963e-07
-1.56831e-07
-7.65337e-08
9.4619e-09
6.08822e-08
1.70612e-07
1.39306e-07
3.85567e-07
7.25982e-08
8.05989e-07
-3.44084e-07
1.70396e-06
-1.37507e-06
3.24427e-06
-2.87344e-06
4.76157e-06
-3.46167e-06
4.22601e-06
-8.5729e-07
-5.38985e-08
4.98553e-06
-5.69211e-06
9.27299e-06
-6.74333e-06
-7.71271e-05
-7.69693e-05
-7.674e-05
-7.64343e-05
-7.60553e-05
-7.56043e-05
-7.50815e-05
-7.44888e-05
-7.38283e-05
-7.3102e-05
-7.23124e-05
-7.14617e-05
-7.05523e-05
-6.95865e-05
-6.85668e-05
-6.74956e-05
-6.63756e-05
-6.52095e-05
-6.40003e-05
-6.2751e-05
-6.14649e-05
-6.01453e-05
-5.87955e-05
-5.7419e-05
-5.60191e-05
-5.45995e-05
-5.31634e-05
-5.17144e-05
-5.02556e-05
-4.87901e-05
-4.73211e-05
-4.58512e-05
-4.43834e-05
-4.29201e-05
-4.14639e-05
-4.0017e-05
-3.85818e-05
-3.71603e-05
-3.57545e-05
-3.43663e-05
-3.29974e-05
-3.16497e-05
-3.0324e-05
-2.90239e-05
-2.77477e-05
-2.64964e-05
-2.52753e-05
-2.40824e-05
-2.29186e-05
-2.17851e-05
-2.06826e-05
-1.96116e-05
-1.85727e-05
-1.75662e-05
-1.65925e-05
-1.56517e-05
-1.47439e-05
-1.38693e-05
-1.30277e-05
-1.2219e-05
-1.14431e-05
-1.06996e-05
-9.9882e-06
-9.30858e-06
-8.66022e-06
-8.04259e-06
-7.45512e-06
-6.89719e-06
-6.36813e-06
-5.86722e-06
-5.39372e-06
-4.94685e-06
-4.52582e-06
-4.12976e-06
-3.75783e-06
-3.40914e-06
-3.08278e-06
-2.77782e-06
-2.49334e-06
-2.22844e-06
-1.98217e-06
-1.75361e-06
-1.54186e-06
-1.34598e-06
-1.16513e-06
-9.98346e-07
-8.44904e-07
-7.0386e-07
-5.74401e-07
-4.55863e-07
-3.46855e-07
-2.47914e-07
-1.55056e-07
-7.49409e-08
1.07348e-08
6.21676e-08
1.71287e-07
1.40606e-07
3.85258e-07
7.46693e-08
8.03815e-07
-3.40014e-07
1.69875e-06
-1.3681e-06
3.23608e-06
-2.86501e-06
4.75382e-06
-3.45661e-06
4.22428e-06
-8.59955e-07
-4.75516e-08
4.97648e-06
-5.68221e-06
9.26262e-06
-6.7475e-06
-7.95958e-05
-7.9204e-05
-7.87596e-05
-7.82588e-05
-7.77017e-05
-7.70867e-05
-7.64129e-05
-7.56814e-05
-7.48931e-05
-7.40494e-05
-7.31517e-05
-7.22018e-05
-7.12013e-05
-7.01524e-05
-6.90571e-05
-6.79175e-05
-6.67358e-05
-6.55146e-05
-6.42563e-05
-6.29636e-05
-6.16391e-05
-6.02857e-05
-5.89061e-05
-5.75035e-05
-5.60807e-05
-5.46409e-05
-5.31872e-05
-5.17226e-05
-5.02502e-05
-4.87729e-05
-4.72936e-05
-4.5815e-05
-4.43396e-05
-4.287e-05
-4.14086e-05
-3.99574e-05
-3.85187e-05
-3.70946e-05
-3.56868e-05
-3.42973e-05
-3.29276e-05
-3.15796e-05
-3.0254e-05
-2.89544e-05
-2.76791e-05
-2.64289e-05
-2.52091e-05
-2.40179e-05
-2.28558e-05
-2.17242e-05
-2.06237e-05
-1.95548e-05
-1.85181e-05
-1.75138e-05
-1.65423e-05
-1.56037e-05
-1.46982e-05
-1.38258e-05
-1.29864e-05
-1.21799e-05
-1.14061e-05
-1.06647e-05
-9.95538e-06
-9.27772e-06
-8.63126e-06
-8.01548e-06
-7.42978e-06
-6.87355e-06
-6.34612e-06
-5.84676e-06
-5.37474e-06
-4.92927e-06
-4.50957e-06
-4.11477e-06
-3.74403e-06
-3.39645e-06
-3.07113e-06
-2.76715e-06
-2.48359e-06
-2.21955e-06
-1.97408e-06
-1.74626e-06
-1.53521e-06
-1.33997e-06
-1.15972e-06
-9.93495e-07
-8.40563e-07
-6.99983e-07
-5.70952e-07
-4.52792e-07
-3.44145e-07
-2.45511e-07
-1.52968e-07
-7.30852e-08
1.22526e-08
6.3623e-08
1.72183e-07
1.41935e-07
3.85269e-07
7.6445e-08
8.02376e-07
-3.37016e-07
1.69533e-06
-1.36371e-06
3.23148e-06
-2.86116e-06
4.7513e-06
-3.45689e-06
4.22697e-06
-8.65179e-07
-4.14036e-08
4.97067e-06
-5.67799e-06
9.25899e-06
-6.75914e-06
-8.22581e-05
-8.16205e-05
-8.09484e-05
-8.02385e-05
-7.94891e-05
-7.86968e-05
-7.78597e-05
-7.69778e-05
-7.60512e-05
-7.50802e-05
-7.40654e-05
-7.30078e-05
-7.19089e-05
-7.07699e-05
-6.95926e-05
-6.83787e-05
-6.71302e-05
-6.58489e-05
-6.45371e-05
-6.31967e-05
-6.183e-05
-6.04393e-05
-5.90269e-05
-5.75952e-05
-5.61469e-05
-5.46847e-05
-5.32113e-05
-5.17294e-05
-5.0242e-05
-4.87516e-05
-4.7261e-05
-4.57726e-05
-4.42889e-05
-4.28123e-05
-4.1345e-05
-3.98892e-05
-3.84467e-05
-3.70196e-05
-3.56097e-05
-3.42187e-05
-3.28483e-05
-3.15e-05
-3.01746e-05
-2.88756e-05
-2.76013e-05
-2.63525e-05
-2.51343e-05
-2.39448e-05
-2.27848e-05
-2.16553e-05
-2.05571e-05
-1.94906e-05
-1.84563e-05
-1.74545e-05
-1.64855e-05
-1.55495e-05
-1.46466e-05
-1.37767e-05
-1.29398e-05
-1.21358e-05
-1.13644e-05
-1.06253e-05
-9.91831e-06
-9.24288e-06
-8.59857e-06
-7.98487e-06
-7.40117e-06
-6.84686e-06
-6.32126e-06
-5.82365e-06
-5.35331e-06
-4.90943e-06
-4.49123e-06
-4.09785e-06
-3.72845e-06
-3.38213e-06
-3.05799e-06
-2.75511e-06
-2.47259e-06
-2.20951e-06
-1.96494e-06
-1.73797e-06
-1.5277e-06
-1.33319e-06
-1.15362e-06
-9.88016e-07
-8.3566e-07
-6.95604e-07
-5.67055e-07
-4.49326e-07
-3.41083e-07
-2.42803e-07
-1.50609e-07
-7.10012e-08
1.39786e-08
6.52322e-08
1.73255e-07
1.43322e-07
3.85492e-07
7.80925e-08
8.01339e-07
-3.34537e-07
1.69278e-06
-1.36055e-06
3.22852e-06
-2.85937e-06
4.75107e-06
-3.45954e-06
4.23165e-06
-8.71715e-07
-3.49777e-08
4.96569e-06
-5.6754e-06
9.25734e-06
-6.77279e-06
-8.5086e-05
-8.41916e-05
-8.32807e-05
-8.23501e-05
-8.13968e-05
-8.04163e-05
-7.94057e-05
-7.83639e-05
-7.72899e-05
-7.61832e-05
-7.50437e-05
-7.38716e-05
-7.26676e-05
-7.14327e-05
-7.0168e-05
-6.88749e-05
-6.75548e-05
-6.62092e-05
-6.48398e-05
-6.3448e-05
-6.20357e-05
-6.06044e-05
-5.91562e-05
-5.76929e-05
-5.62167e-05
-5.47299e-05
-5.32349e-05
-5.17341e-05
-5.02302e-05
-4.87255e-05
-4.72224e-05
-4.57234e-05
-4.42307e-05
-4.27465e-05
-4.1273e-05
-3.9812e-05
-3.83655e-05
-3.69353e-05
-3.55231e-05
-3.41306e-05
-3.27593e-05
-3.14108e-05
-3.00857e-05
-2.87875e-05
-2.75143e-05
-2.62671e-05
-2.50506e-05
-2.38632e-05
-2.27054e-05
-2.15784e-05
-2.04828e-05
-1.9419e-05
-1.83874e-05
-1.73884e-05
-1.64223e-05
-1.54891e-05
-1.4589e-05
-1.3722e-05
-1.28879e-05
-1.20866e-05
-1.13179e-05
-1.05815e-05
-9.877e-06
-9.20405e-06
-8.56215e-06
-7.95077e-06
-7.3693e-06
-6.81712e-06
-6.29356e-06
-5.79791e-06
-5.32942e-06
-4.88731e-06
-4.47079e-06
-4.079e-06
-3.71109e-06
-3.36617e-06
-3.04334e-06
-2.7417e-06
-2.46033e-06
-2.19833e-06
-1.95477e-06
-1.72874e-06
-1.51934e-06
-1.32564e-06
-1.14682e-06
-9.81912e-07
-8.30197e-07
-6.90725e-07
-5.62712e-07
-4.45466e-07
-3.37672e-07
-2.39789e-07
-1.47983e-07
-6.86865e-08
1.59051e-08
6.70092e-08
1.74472e-07
1.44827e-07
3.85807e-07
7.98311e-08
8.00314e-07
-3.31929e-07
1.69008e-06
-1.35708e-06
3.22512e-06
-2.857e-06
4.75014e-06
-3.46158e-06
4.23593e-06
-8.78356e-07
-2.7764e-08
4.95917e-06
-5.67042e-06
9.25294e-06
-6.78304e-06
-8.8052e-05
-8.68904e-05
-8.57311e-05
-8.45703e-05
-8.34041e-05
-8.22267e-05
-8.10343e-05
-7.98248e-05
-7.85962e-05
-7.73471e-05
-7.60765e-05
-7.4784e-05
-7.34698e-05
-7.2134e-05
-7.07775e-05
-6.94009e-05
-6.80052e-05
-6.65916e-05
-6.5161e-05
-6.37146e-05
-6.22534e-05
-6.07788e-05
-5.9292e-05
-5.77946e-05
-5.62883e-05
-5.4775e-05
-5.32567e-05
-5.17356e-05
-5.02139e-05
-4.86937e-05
-4.71773e-05
-4.56669e-05
-4.41646e-05
-4.26723e-05
-4.1192e-05
-3.97256e-05
-3.82748e-05
-3.68413e-05
-3.54268e-05
-3.40328e-05