/*--------------------------------*- C++ -*----------------------------------*\
| =========                 |                                                 |
| \\      /  F ield         | OpenFOAM: The Open Source CFD Toolbox           |
|  \\    /   O peration     | Version:  2412                                  |
|   \\  /    A nd           | Website:  www.openfoam.com                      |
|    \\/     M anipulation  |                                                 |
\*---------------------------------------------------------------------------*/
FoamFile
{
    version     2.0;
    format      ascii;
    arch        "LSB;label=32;scalar=64";
    class       surfaceScalarField;
    location    "8.5";
    object      phi;
}
// * * * * * * * * * * * * * * * * * * * * * * * * * * * * * * * * * * * * * //

dimensions      [0 3 -1 0 0 0 0];

oriented        oriented;

internalField   nonuniform List<scalar> 
126304
(
0.00505067
8.29461e-08
5.52812e-11
0.00505026
4.16934e-07
4.61009e-14
0.00504879
1.46692e-06
-8.70161e-10
0.00504562
3.17137e-06
-2.56614e-09
0.00504088
4.74986e-06
-4.15118e-09
0.00503538
5.50504e-06
-4.62602e-09
0.00503007
5.30495e-06
-3.67722e-09
0.00502558
4.49666e-06
-1.71385e-09
0.00502203
3.54602e-06
5.75625e-10
0.00501926
2.77399e-06
2.63139e-09
0.00501696
2.29647e-06
4.17593e-09
0.00501486
2.08697e-06
5.17321e-09
0.0050128
2.06218e-06
5.72204e-09
0.00501065
2.13951e-06
5.96217e-09
0.00500838
2.26017e-06
6.01945e-09
0.00500599
2.39069e-06
5.98533e-09
0.00500347
2.51599e-06
5.91598e-09
0.00500083
2.63167e-06
5.83959e-09
0.00499808
2.7384e-06
5.76599e-09
0.00499524
2.83867e-06
5.69497e-09
0.0049923
2.93517e-06
5.62309e-09
0.00498926
3.0302e-06
5.54691e-09
0.00498613
3.12551e-06
5.46363e-09
0.0049829
3.22238e-06
5.37103e-09
0.00497958
3.3217e-06
5.26785e-09
0.00497615
3.42407e-06
5.15394e-09
0.00497261
3.52991e-06
5.03015e-09
0.00496897
3.63951e-06
4.89754e-09
0.00496521
3.75305e-06
4.75693e-09
0.00496134
3.87067e-06
4.6084e-09
0.00495734
3.99247e-06
4.45158e-09
0.00495322
4.11853e-06
4.28593e-09
0.00494896
4.24891e-06
4.11129e-09
0.00494458
4.38366e-06
3.92799e-09
0.00494005
4.52284e-06
3.73681e-09
0.00493538
4.66651e-06
3.53869e-09
0.00493056
4.81472e-06
3.33475e-09
0.00492559
4.96755e-06
3.12604e-09
0.00492046
5.12506e-06
2.91339e-09
0.00491517
5.28734e-06
2.69736e-09
0.00490972
5.45448e-06
2.47816e-09
0.00490409
5.6266e-06
2.25591e-09
0.00489828
5.8038e-06
2.03078e-09
0.00489229
5.98625e-06
1.80306e-09
0.00488612
6.17408e-06
1.5732e-09
0.00487975
6.36748e-06
1.34195e-09
0.00487318
6.56666e-06
1.10999e-09
0.00486641
6.77186e-06
8.77955e-10
0.00485942
6.98335e-06
6.46598e-10
0.00485222
7.20147e-06
4.16623e-10
0.00484479
7.42659e-06
1.88763e-10
0.00483714
7.65924e-06
-3.61096e-11
0.00482924
7.90034e-06
-2.56852e-10
0.00482108
8.15206e-06
-4.71986e-10
8.42028e-06
0.00481266
-6.79642e-10
0.00505067
1.67278e-07
0.00505026
8.31451e-07
0.00504881
2.91106e-06
0.00504569
6.29199e-06
0.00504101
9.43268e-06
0.00503557
1.09493e-05
0.0050303
1.05734e-05
0.00502581
8.98653e-06
0.00502224
7.1095e-06
0.00501944
5.57958e-06
0.00501711
4.62914e-06
0.00501499
4.20826e-06
0.00501289
4.15366e-06
0.00501073
4.30248e-06
0.00500845
4.53844e-06
0.00500605
4.79512e-06
0.00500352
5.04241e-06
0.00500088
5.27134e-06
0.00499814
5.48305e-06
0.00499529
5.6823e-06
0.00499235
5.87434e-06
0.00498932
6.06364e-06
0.00498619
6.25365e-06
0.00498297
6.44686e-06
0.00497964
6.645e-06
0.00497622
6.84928e-06
0.00497269
7.06051e-06
0.00496905
7.27923e-06
0.0049653
7.50584e-06
0.00496143
7.74059e-06
0.00495744
7.98367e-06
0.00495332
8.23524e-06
0.00494907
8.49542e-06
0.00494469
8.76432e-06
0.00494017
9.04204e-06
0.00493551
9.32869e-06
0.0049307
9.6244e-06
0.00492574
9.92928e-06
0.00492062
1.02435e-05
0.00491534
1.05672e-05
0.00490989
1.09006e-05
0.00490428
1.12438e-05
0.00489848
1.15972e-05
0.00489251
1.1961e-05
0.00488635
1.23355e-05
0.00487999
1.2721e-05
0.00487344
1.3118e-05
0.00486669
1.3527e-05
0.00485972
1.39484e-05
0.00485254
1.43829e-05
0.00484514
1.48312e-05
0.0048375
1.52944e-05
0.00482963
1.57742e-05
0.00482151
1.62747e-05
1.68073e-05
0.00481312
0.00505067
2.54204e-07
0.00505026
1.24123e-06
0.00504886
4.31244e-06
0.00504583
9.31865e-06
0.00504127
1.39929e-05
0.00503594
1.62841e-05
0.00503073
1.57778e-05
0.00502625
1.34663e-05
0.00502266
1.07057e-05
0.0050198
8.44146e-06
0.0050174
7.02406e-06
0.00501522
6.38629e-06
0.00501308
6.29102e-06
0.00501089
6.49949e-06
0.00500859
6.84022e-06
0.00500617
7.21464e-06
0.00500363
7.57758e-06
0.00500099
7.91515e-06
0.00499824
8.22853e-06
0.0049954
8.52439e-06
0.00499246
8.81022e-06
0.00498944
9.09247e-06
0.00498631
9.37613e-06
0.00498309
9.66479e-06
0.00497978
9.961e-06
0.00497636
1.02665e-05
0.00497284
1.05824e-05
0.00496921
1.09096e-05
0.00496547
1.12486e-05
0.00496161
1.15998e-05
0.00495763
1.19634e-05
0.00495352
1.23398e-05
0.00494929
1.2729e-05
0.00494492
1.31311e-05
0.00494042
1.35465e-05
0.00493577
1.39752e-05
0.00493098
1.44173e-05
0.00492604
1.48732e-05
0.00492094
1.53429e-05
0.00491568
1.58267e-05
0.00491025
1.6325e-05
0.00490466
1.68379e-05
0.00489889
1.73659e-05
0.00489294
1.79092e-05
0.00488681
1.84685e-05
0.00488048
1.90442e-05
0.00487397
1.96367e-05
0.00486725
2.0247e-05
0.00486032
2.08756e-05
0.00485318
2.15235e-05
0.00484582
2.21917e-05
0.00483823
2.28817e-05
0.00483041
2.35958e-05
0.00482234
2.43399e-05
2.51294e-05
0.00481402
0.00505067
3.44838e-07
0.00505026
1.64414e-06
0.00504892
5.65251e-06
0.00504603
1.22106e-05
0.00504165
1.83771e-05
0.00503647
2.14615e-05
0.00503136
2.08896e-05
0.00502689
1.79309e-05
0.00502325
1.43482e-05
0.00502031
1.13836e-05
0.00501783
9.50795e-06
0.00501557
8.64547e-06
0.00501336
8.49405e-06
0.00501112
8.74523e-06
0.00500878
9.17562e-06
0.00500634
9.65567e-06
0.00500379
1.01251e-05
0.00500114
1.05647e-05
0.0049984
1.0975e-05
0.00499556
1.1364e-05
0.00499263
1.1741e-05
0.0049896
1.21143e-05
0.00498649
1.24901e-05
0.00498328
1.28729e-05
0.00497998
1.3266e-05
0.00497657
1.36716e-05
0.00497306
1.40913e-05
0.00496945
1.4526e-05
0.00496572
1.49764e-05
0.00496188
1.5443e-05
0.00495791
1.59261e-05
0.00495383
1.64261e-05
0.00494961
1.69431e-05
0.00494527
1.74773e-05
0.00494078
1.80289e-05
0.00493616
1.85982e-05
0.00493139
1.91852e-05
0.00492648
1.97904e-05
0.00492141
2.04138e-05
0.00491618
2.10559e-05
0.00491078
2.17169e-05
0.00490523
2.23973e-05
0.00489949
2.30975e-05
0.00489358
2.38179e-05
0.00488749
2.45592e-05
0.00488122
2.53219e-05
0.00487475
2.61068e-05
0.00486808
2.69147e-05
0.00486121
2.77465e-05
0.00485413
2.86034e-05
0.00484683
2.94867e-05
0.00483932
3.03979e-05
0.00483157
3.13401e-05
0.00482359
3.23199e-05
3.33558e-05
0.00481537
0.00505066
4.40094e-07
0.00505027
2.03838e-06
0.005049
6.91598e-06
0.00504628
1.4934e-05
0.00504212
2.25409e-05
0.00503714
2.64414e-05
0.00503214
2.58847e-05
0.0050277
2.23753e-05
0.005024
1.80476e-05
0.00502096
1.44252e-05
0.00501836
1.21025e-05
0.005016
1.10058e-05
0.00501372
1.0779e-05
0.00501141
1.10518e-05
0.00500903
1.15529e-05
0.00500657
1.21234e-05
0.005004
1.26879e-05
0.00500135
1.32211e-05
0.0049986
1.37221e-05
0.00499576
1.41999e-05
0.00499284
1.46649e-05
0.00498983
1.51267e-05
0.00498672
1.55925e-05
0.00498353
1.60678e-05
0.00498024
1.65564e-05
0.00497685
1.70608e-05
0.00497336
1.75829e-05
0.00496976
1.81237e-05
0.00496605
1.86842e-05
0.00496223
1.92648e-05
0.00495829
1.9866e-05
0.00495423
2.04881e-05
0.00495004
2.11314e-05
0.00494572
2.17959e-05
0.00494127
2.24821e-05
0.00493668
2.319e-05
0.00493194
2.39199e-05
0.00492706
2.46722e-05
0.00492203
2.5447e-05
0.00491684
2.62448e-05
0.00491149
2.70659e-05
0.00490598
2.79109e-05
0.00490029
2.87801e-05
0.00489444
2.96741e-05
0.0048884
3.05937e-05
0.00488218
3.15395e-05
0.00487578
3.25124e-05
0.00486918
3.35132e-05
0.00486238
3.45432e-05
0.00485538
3.56034e-05
0.00484818
3.66953e-05
0.00484075
3.78207e-05
0.00483311
3.89827e-05
0.00482524
4.0188e-05
4.14558e-05
0.00481714
0.00505066
5.40586e-07
0.00505027
2.42264e-06
0.0050491
8.09173e-06
0.00504657
1.74643e-05
0.00504266
2.64515e-05
0.0050379
3.11934e-05
0.00503304
3.0744e-05
0.00502863
2.67945e-05
0.00502486
2.18102e-05
0.00502171
1.75795e-05
0.00501899
1.4823e-05
0.00501651
1.34816e-05
0.00501413
1.31577e-05
0.00501176
1.34279e-05
0.00500933
1.39781e-05
0.00500683
1.46214e-05
0.00500425
1.52677e-05
0.00500159
1.58846e-05
0.00499884
1.64694e-05
0.00499601
1.70307e-05
0.0049931
1.75798e-05
0.0049901
1.81271e-05
0.00498701
1.86806e-05
0.00498383
1.92463e-05
0.00498056
1.98285e-05
0.00497719
2.043e-05
0.00497372
2.10528e-05
0.00497014
2.16982e-05
0.00496646
2.23671e-05
0.00496267
2.30601e-05
0.00495875
2.37777e-05
0.00495472
2.45201e-05
0.00495057
2.52876e-05
0.00494628
2.60804e-05
0.00494187
2.68988e-05
0.00493731
2.7743e-05
0.00493262
2.86133e-05
0.00492778
2.95099e-05
0.0049228
3.04332e-05
0.00491766
3.13836e-05
0.00491236
3.23615e-05
0.0049069
3.33674e-05
0.00490128
3.44018e-05
0.00489549
3.54654e-05
0.00488953
3.65588e-05
0.00488338
3.76828e-05
0.00487706
3.88383e-05
0.00487054
4.00264e-05
0.00486384
4.12481e-05
0.00485694
4.25048e-05
0.00484983
4.37977e-05
0.00484253
4.51288e-05
0.00483501
4.65007e-05
0.00482728
4.79194e-05
4.94019e-05
0.00481933
0.00505065
6.46844e-07
0.00505028
2.79558e-06
0.0050492
9.17412e-06
0.00504687
1.9787e-05
0.00504324
3.00892e-05
0.00503873
3.56982e-05
0.00503402
3.5454e-05
0.00502963
3.11831e-05
0.0050258
2.56379e-05
0.00502253
2.08528e-05
0.00501968
1.76778e-05
0.00501708
1.60809e-05
0.0050146
1.56368e-05
0.00501215
1.58786e-05
0.00500967
1.64544e-05
0.00500714
1.71517e-05
0.00500454
1.78651e-05
0.00500187
1.85551e-05
0.00499913
1.92157e-05
0.0049963
1.98547e-05
0.0049934
2.04835e-05
0.00499041
2.11129e-05
0.00498734
2.17513e-05
0.00498418
2.24051e-05
0.00498093
2.30788e-05
0.00497759
2.37754e-05
0.00497414
2.4497e-05
0.0049706
2.52451e-05
0.00496694
2.60205e-05
0.00496318
2.68238e-05
0.0049593
2.76556e-05
0.00495531
2.85161e-05
0.00495119
2.94055e-05
0.00494694
3.03241e-05
0.00494257
3.12722e-05
0.00493806
3.22499e-05
0.00493342
3.32575e-05
0.00492863
3.42953e-05
0.0049237
3.53637e-05
0.00491862
3.6463e-05
0.00491339
3.75937e-05
0.004908
3.87562e-05
0.00490245
3.99513e-05
0.00489674
4.11794e-05
0.00489086
4.24413e-05
0.0048848
4.37379e-05
0.00487857
4.507e-05
0.00487216
4.64386e-05
0.00486556
4.78448e-05
0.00485878
4.92899e-05
0.0048518
5.07753e-05
0.00484463
5.23024e-05
0.00483725
5.38732e-05
0.00482968
5.54914e-05
0.00482192
5.71662e-05
0.00481432
-1.6544e-06
-8.83974e-10
0.00481546
-1.14085e-06
-1.09856e-09
0.00481606
-5.92797e-07
-1.31612e-09
0.00481605
5.8579e-09
-1.50759e-09
0.00481544
6.11147e-07
-1.72417e-09
0.00481418
1.26753e-06
-1.91322e-09
0.00481222
1.9554e-06
-2.09268e-09
0.00480955
2.67397e-06
-2.2548e-09
0.00480613
3.42186e-06
-2.39936e-09
0.00480194
4.19884e-06
-2.52527e-09
0.00479693
5.00713e-06
-2.63148e-09
0.00479108
5.8523e-06
-2.71757e-09
0.00478434
6.74401e-06
-2.78347e-09
0.00477665
7.69639e-06
-2.82349e-09
0.00476792
8.72781e-06
-2.85571e-09
0.00475806
9.86028e-06
-2.81463e-09
0.00474695
1.11181e-05
-2.80875e-09
0.00473442
1.25268e-05
-2.79458e-09
0.00472032
1.41125e-05
-2.74825e-09
0.00470442
1.59015e-05
-2.75155e-09
0.0046865
1.79198e-05
-2.70248e-09
0.00466631
2.01936e-05
-2.64509e-09
0.00464356
2.27502e-05
-2.58958e-09
0.00461794
2.56194e-05
-2.53825e-09
0.00458911
2.88355e-05
-2.49034e-09
0.00455667
3.24391e-05
-2.44357e-09
0.0045202
3.64798e-05
-2.39413e-09
0.00447918
4.10183e-05
-2.33717e-09
0.00443305
4.61297e-05
-2.26781e-09
0.00438115
5.19066e-05
-2.1813e-09
0.00432269
5.84637e-05
-2.07396e-09
0.00425675
6.5943e-05
-1.9441e-09
0.00418223
7.45203e-05
-1.79245e-09
0.00409781
8.44148e-05
-1.62171e-09
0.00400192
9.58985e-05
-1.43648e-09
0.00389261
0.000109309
-1.24312e-09
0.00376755
0.000125062
-1.04888e-09
0.0036239
0.000143653
-8.60097e-10
0.00345824
0.000165655
-6.82236e-10
0.00326657
0.000191676
-5.20369e-10
0.0030443
0.000222263
-3.77732e-10
0.0027866
0.000257703
-2.56851e-10
0.00248892
0.000297685
-1.61047e-10
0.00214818
0.00034074
-9.32527e-11
0.00176477
0.000383403
-5.61981e-11
0.00134574
0.000419038
-4.7859e-11
0.000909381
0.000436355
-5.48023e-11
0.000491807
0.000417574
-4.34089e-11
0.000156127
0.00033568
1.64866e-11
0.000156127
1.07752e-10
0.00481341
-1.94228e-06
0.00481318
-9.18033e-07
0.0048124
1.86133e-07
0.00481106
1.34707e-06
0.00480909
2.58179e-06
0.00480647
3.88767e-06
0.00480317
5.26012e-06
0.00479915
6.69503e-06
0.00479438
8.18956e-06
0.00478883
9.7436e-06
0.00478248
1.13617e-05
0.00477528
1.30553e-05
0.00476718
1.48437e-05
0.00475812
1.67549e-05
0.00474802
1.88257e-05
0.00473678
2.10996e-05
0.00472427
2.36247e-05
0.00471035
2.64519e-05
0.00469483
2.96327e-05
0.00467751
3.32193e-05
0.00465817
3.72638e-05
0.00463654
4.18183e-05
0.00461236
4.69375e-05
0.00458529
5.26811e-05
0.00455501
5.9118e-05
0.00452112
6.63299e-05
0.00448318
7.44162e-05
0.0044407
8.34989e-05
0.0043931
9.3728e-05
0.00433972
0.000105289
0.00427978
0.000118411
0.00421234
0.000133376
0.00413633
0.000150535
0.00405042
0.000170322
0.00395304
0.000193277
0.00384228
0.000220068
0.00371583
0.000251511
0.0035709
0.000288583
0.00340416
0.000332404
0.00321168
0.000384149
0.00298908
0.000444861
0.00273174
0.000515051
0.0024354
0.000594019
0.00209739
0.000678755
0.00171849
0.000762299
0.00130609
0.00083144
0.000878692
0.000863753
0.000472051
0.000824215
0.000147008
0.000660724
0.000303135
0.00481159
4.87915e-07
0.00480865
2.0192e-06
0.00480518
3.65659e-06
0.00480113
5.3969e-06
0.00479647
7.24395e-06
0.00479116
9.19558e-06
0.00478518
1.12476e-05
0.00477848
1.33949e-05
0.00477103
1.56339e-05
0.00476281
1.7965e-05
0.00475378
2.03957e-05
0.00474389
2.29433e-05
0.0047331
2.56371e-05
0.00472133
2.85191e-05
0.00470851
3.16435e-05
0.00469454
3.5075e-05
0.00467928
3.88848e-05
0.00466258
4.31478e-05
0.00464427
4.79407e-05
0.00462415
5.33408e-05
0.00460199
5.94255e-05
0.00457754
6.62729e-05
0.00455051
7.3965e-05
0.0045206
8.2592e-05
0.00448746
9.2258e-05
0.0044507
0.000103086
0.00440989
0.000115227
0.00436452
0.000128864
0.00431403
0.000144222
0.00425774
0.00016158
0.00419487
0.000181279
0.0041245
0.000203742
0.00404555
0.000229488
0.00395671
0.000259163
0.00385643
0.000293562
0.00374283
0.000333666
0.00361367
0.00038067
0.00346626
0.000435993
0.00329742
0.000501244
0.00310347
0.000578092
0.00288037
0.000667967
0.00262395
0.000771471
0.0023306
0.000887367
0.00199838
0.00101097
0.00162886
0.00113181
0.00123
0.0012303
0.000820416
0.00127334
0.000435402
0.00120923
0.00013302
0.000963106
0.000436155
0.00480891
6.9473e-06
0.00480195
8.97707e-06
0.00479446
1.11442e-05
0.00478641
1.34517e-05
0.00477775
1.59004e-05
0.00476846
1.84888e-05
0.00475849
2.12123e-05
0.00474782
2.40654e-05
0.00473641
2.70445e-05
0.00472422
3.01514e-05
0.00471122
3.33969e-05
0.00469736
3.6805e-05
0.00468258
4.04147e-05
0.00466682
4.42818e-05
0.00464999
4.84776e-05
0.00463198
5.30869e-05
0.00461266
5.82031e-05
0.00459188
6.39241e-05
0.00456947
7.03501e-05
0.00454523
7.7583e-05
0.00451893
8.5725e-05
0.00449032
9.48799e-05
0.00445913
0.000105157
0.00442504
0.000116678
0.00438772
0.000129582
0.00434677
0.000144036
0.00430176
0.000160241
0.00425218
0.000178444
0.00419745
0.000198944
0.00413692
0.000222114
0.0040698
0.000248405
0.00399516
0.000278377
0.00391194
0.000312714
0.00381884
0.000352259
0.00371435
0.000398051
0.00359666
0.000451359
0.00346361
0.000513714
0.00331269
0.000586919
0.00314095
0.000672984
0.00294509
0.000773948
0.0027216
0.000891463
0.00246705
0.00102602
0.0021788
0.00117562
0.00185603
0.00133375
0.00150141
0.00148643
0.00112356
0.00160815
0.000740699
0.0016562
0.000386213
0.00156372
0.00011307
0.00123625
0.000549224
0.00480539
1.87016e-05
0.00479315
2.1217e-05
0.00478039
2.39022e-05
0.00476708
2.67622e-05
0.00475318
2.97989e-05
0.00473866
3.3011e-05
0.00472348
3.63942e-05
0.0047076
3.9943e-05
0.00469099
4.36549e-05
0.00467361
4.75336e-05
0.00465541
5.15942e-05
0.00463635
5.58674e-05
0.00461636
6.04025e-05
0.00459537
6.52686e-05
0.0045733
7.05536e-05
0.00455002
7.63613e-05
0.00452542
8.28059e-05
0.00449934
9.00071e-05
0.0044716
9.80878e-05
0.00444201
0.000107173
0.00441034
0.000117389
0.00437636
0.000128865
0.00433978
0.000141738
0.0043003
0.000156161
0.00425757
0.000172311
0.0042112
0.000190398
0.00416077
0.000210675
0.00410576
0.000233452
0.0040456
0.000259107
0.00397961
0.0002881
0.00390702
0.000320996
0.00382691
0.000358483
0.00373823
0.000401403
0.0036397
0.000450786
0.00352986
0.000507886
0.003407
0.000574224
0.0032691
0.000651614
0.00311387
0.000742151
0.00293873
0.000848125
0.00274091
0.000971761
0.00251768
0.0011147
0.00226666
0.00127703
0.00198658
0.0014557
0.00167814
0.00164219
0.00134547
0.0018191
0.000997851
0.00195577
0.000652234
0.00200182
0.00033684
0.00187911
9.34112e-05
0.00147968
0.000642636
0.00480109
3.69458e-05
0.00478238
3.99284e-05
0.00476316
4.31137e-05
0.00474342
4.65082e-05
0.0047231
5.01151e-05
0.00470218
5.39339e-05
0.00468061
5.79609e-05
0.00465836
6.21916e-05
0.00463539
6.66249e-05
0.00461166
7.12674e-05
0.00458711
7.61393e-05
0.0045617
8.12785e-05
0.00453536
8.67448e-05
0.00450801
9.26203e-05
0.00447955
9.90089e-05
0.00444988
0.000106032
0.00441886
0.000113825
0.00438635
0.000122526
0.00435215
0.00013228
0.00431609
0.000143234
0.00427794
0.000155539
0.00423746
0.000169347
0.00419437
0.000184825
0.00414838
0.000202158
0.00409913
0.000221559
0.00404624
0.000243285
0.00398927
0.000267643
0.00392772
0.000295007
0.003861
0.00032583
0.00378843
0.000360665
0.00370924
0.000400183
0.00362253
0.0004452
0.00352723
0.000496702
0.00342213
0.000555887
0.00330582
0.000624196
0.0031767
0.000703348
0.00303296
0.000795352
0.00287264
0.000902468
0.0026937
0.00102706
0.00249419
0.00117128
0.00227253
0.00133636
0.00202799
0.00152156
0.00176136
0.00172234
0.00147573
0.00192781
0.00117739
0.00211744
0.000876606
0.00225655
0.000588002
0.00229042
0.000329172
0.00213794
0.000113823
0.00169503
0.000756459
0.00479608
6.27825e-05
0.0047698
6.6207e-05
0.00474305
6.98691e-05
0.00471578
7.37754e-05
0.00468796
7.79301e-05
0.00465956
8.23338e-05
0.00463054
8.69834e-05
0.00460086
9.18761e-05
0.00457047
9.70127e-05
0.00453933
0.000102403
0.0045074
0.000108074
0.00447461
0.000114071
0.00444089
0.000120463
0.00440616
0.000127347
0.00437033
0.000134842
0.00433328
0.000143086
0.00429487
0.000152231
0.00425496
0.000162438
0.00421337
0.000173871
0.0041699
0.000186697
0.00412435
0.000201088
0.00407648
0.000217223
0.00402601
0.000235296
0.00397264
0.000255524
0.00391604
0.000278161
0.00385582
0.000303508
0.00379153
0.000331929
0.00372268
0.000363861
0.00364867
0.000399836
0.00356884
0.000440497
0.0034824
0.000486622
0.00338846
0.000539145
0.00328597
0.000599192
0.00317374
0.00066811
0.00305044
0.000747496
0.00291457
0.000839217
0.00276454
0.000945388
0.00259872
0.00106829
0.00241566
0.00121013
0.00221433
0.00137261
0.00199459
0.0015561
0.00175779
0.00175835
0.00150757
0.00197256
0.00125062
0.00218477
0.000997294
0.00237077
0.000761248
0.0024926
0.000556615
0.00249505
0.000388453
0.0023061
0.000235694
0.00184778
0.000992153
-2.54257e-05
2.54225e-05
3.21854e-09
-5.50482e-05
2.96164e-05
6.08642e-09
-6.25434e-05
7.48849e-06
6.69426e-09
-3.53919e-05
-2.71577e-05
6.15881e-09
3.16e-05
-6.69972e-05
5.33429e-09
0.000138153
-0.000106557
4.43498e-09
0.000281172
-0.000143023
3.53044e-09
0.000455691
-0.000174521
2.67013e-09
0.000655813
-0.000200124
1.89256e-09
0.000875373
-0.000219561
1.22707e-09
0.00110835
-0.000232982
6.97539e-10
0.00134917
-0.000240811
3.18037e-10
0.0015928
-0.000243638
8.81719e-11
0.00183495
-0.000242144
-7.90459e-13
0.00207199
-0.00023704
2.43848e-11
0.00230102
-0.000229028
1.56457e-10
0.00251979
-0.000218771
3.8461e-10
0.00272666
-0.000206876
7.06601e-10
0.00292055
-0.000193887
1.13102e-09
0.00310082
-0.000180272
1.80839e-09
0.00326725
-0.000166433
2.18811e-09
0.00341994
-0.000152693
3.28969e-09
0.00355925
-0.000139315
3.23143e-09
0.00368575
-0.000126499
2.85404e-09
0.00380013
-0.000114385
3.11174e-09
0.0039032
-0.000103071
2.58251e-09
0.0039958
-9.26102e-05
2.70445e-09
0.00407882
-8.30226e-05
2.83416e-09
0.00415312
-7.4299e-05
2.9221e-09
0.00421953
-6.64089e-05
3.00221e-09
0.00427883
-5.93069e-05
3.1122e-09
0.00433176
-5.29377e-05
3.27755e-09
0.004379
-4.72405e-05
3.51716e-09
0.00442115
-4.21525e-05
3.83247e-09
0.00445876
-3.76116e-05
4.21426e-09
0.00449231
-3.35587e-05
4.64525e-09
0.00452224
-2.99382e-05
5.10045e-09
0.00454894
-2.66997e-05
5.55468e-09
0.00457273
-2.37976e-05
5.98345e-09
0.00459391
-2.11917e-05
6.36576e-09
0.00461275
-1.88464e-05
6.68999e-09
0.00462948
-1.67309e-05
6.94914e-09
0.00464429
-1.48182e-05
7.14173e-09
0.00465737
-1.30852e-05
7.27487e-09
0.00466887
-1.1512e-05
7.35705e-09
0.00467895
-1.00811e-05
7.39853e-09
0.00468772
-8.77781e-06
7.41247e-09
0.0046953
-7.5891e-06
7.4097e-09
0.00470179
-6.50356e-06
7.39935e-09
-5.51088e-06
0.0047073
7.38938e-09
-2.17506e-05
4.71731e-05
-4.32729e-05
5.11387e-05
-4.23294e-05
6.54496e-06
-7.99875e-06
-6.14883e-05
6.338e-05
-0.000138376
0.000172359
-0.000215536
0.000315858
-0.000286523
0.0004891
-0.000347763
0.000686527
-0.000397551
0.000902328
-0.000435362
0.00113082
-0.000461476
0.00136672
-0.000476705
0.00160527
-0.000482187
0.00184236
-0.000479236
0.00207455
-0.000469229
0.00229904
-0.000453527
0.00251369
-0.000433419
0.00271691
-0.00041009
0.00290762
-0.000384597
0.0030852
-0.00035786
0.00324943
-0.000330657
0.00340037
-0.000303632
0.00353835
-0.000277293
0.00366389
-0.000252039
0.00377766
-0.000228159
0.00388042
-0.000205833
0.00397299
-0.000185174
0.00405619
-0.000166223
0.00413085
-0.000148966
0.00419779
-0.000133346
0.00425776
-0.000119276
0.00431147
-0.000106648
0.00435957
-9.53442e-05
0.00440266
-8.52429e-05
0.00444128
-7.62224e-05
0.00447588
-6.81666e-05
0.00450691
-6.09669e-05
0.00453474
-5.4524e-05
0.00455969
-4.87482e-05
0.00458206
-4.35602e-05
0.0046021
-3.88898e-05
0.00462004
-3.4676e-05
0.00463609
-3.08656e-05
0.00465042
-2.74128e-05
0.00466318
-2.42777e-05
0.00467453
-2.14262e-05
0.00468458
-1.88286e-05
0.00469345
-1.64591e-05
0.00470124
-1.4295e-05
-1.23154e-05
0.00470805
-1.36239e-05
6.0797e-05
-1.96995e-05
5.72143e-05
-3.41551e-06
-9.73907e-06
4.14227e-05
-0.000106327
0.000120896
-0.000217849
0.000233927
-0.000328568
0.000377574
-0.000430169
0.000547695
-0.000517885
0.000739436
-0.000589291
0.000947681
-0.000643607
0.00116739
-0.000681188
0.00139384
-0.000703152
0.00162274
-0.000711091
0.00185036
-0.000706858
0.00207355
-0.000692409
0.0022897
-0.000669686
0.00249682
-0.000640537
0.0026934
-0.000606665
0.0028784
-0.000569596
0.0030512
-0.000530661
0.00321153
-0.000490992
0.00335942
-0.000451521
0.00349513
-0.000413001
0.0036191
-0.000376011
0.00373193
-0.000340986
0.0038343
-0.000308208
0.00392696
-0.00027783
0.00401066
-0.000249928
0.00408619
-0.000224488
0.00415427
-0.000201433
0.00421564
-0.00018064
0.00427095
-0.000161957
0.00432082
-0.000145216
0.00436582
-0.00013024
0.00440645
-0.000116855
0.00444317
-0.00010489
0.0044764
-9.41895e-05
0.00450648
-8.46069e-05
0.00453374
-7.60119e-05
0.00455847
-6.82876e-05
0.00458091
-6.13313e-05
0.00460129
-5.50528e-05
0.0046198
-4.93739e-05
0.00463661
-4.42265e-05
0.00465188
-3.9552e-05
0.00466576
-3.52997e-05
0.00467835
-3.14254e-05
0.00468979
-2.78909e-05
0.00470015
-2.4662e-05
-2.17065e-05
0.00470954
-8.16695e-07
6.16137e-05
1.17548e-05
4.46428e-05
4.48547e-05
-4.2839e-05
0.000105743
-0.000167215
0.000194795
-0.000306901
0.000311355
-0.000445127
0.000453281
-0.000572095
0.000617413
-0.000682017
0.000799951
-0.000771829
0.000996786
-0.000840442
0.00120377
-0.000888173
0.00141692
-0.0009163
0.00163255
-0.000926721
0.00184738
-0.000921693
0.0020586
-0.000903624
0.00226385
-0.000874934
0.00246125
-0.000837941
0.00264938
-0.000794796
0.00282722
-0.000747436
0.00299412
-0.000697564
0.00314976
-0.000646631
0.00329408
-0.000595842
0.00342724
-0.000546162
0.0035496
-0.000498365
0.00366163
-0.000453018
0.00376392
-0.000410496
0.00385712
-0.000371029
0.0039419
-0.000334712
0.00401896
-0.000301545
0.00408896
-0.000271437
0.00415256
-0.000244242
0.00421038
-0.000219772
0.00426298
-0.000197814
0.00431088
-0.000178147
0.00435458
-0.000160548
0.00439449
-0.000144801
0.004431
-0.000130704
0.00446447
-0.00011807
0.00449518
-0.00010673
0.00452343
-9.65331e-05
0.00454944
-8.7345e-05
0.00457344
-7.90489e-05
0.00459561
-7.15424e-05
0.00461612
-6.47368e-05
0.00463512
-5.85549e-05
0.00465275
-5.29302e-05
0.00466913
-4.78047e-05
0.00468437
-4.31278e-05
0.00469856
-3.88541e-05
-3.49397e-05
0.00471179
1.36567e-05
4.7957e-05
4.93451e-05
8.95447e-06
0.000103078
-9.6572e-05
0.000178877
-0.000243013
0.000275526
-0.00040355
0.000392544
-0.000562146
0.000528893
-0.000708444
0.000682806
-0.00083593
0.00085188
-0.000940903
0.00103327
-0.00102183
0.00122387
-0.00107878
0.00142056
-0.00111298
0.00162026
-0.00112643
0.00182018
-0.00112161
0.00201779
-0.00110123
0.00221092
-0.00106807
0.00239779
-0.00102481
0.002577
-0.000973998
0.00274747
-0.000917915
0.00290851
-0.000858598
0.00305967
-0.000797795
0.0032008
-0.000736967
0.00333193
-0.000677297
0.00345329
-0.00061972
0.00356522
-0.000564953
0.00366821
-0.000513484
0.00376278
-0.000465601
0.00384953
-0.000421453
0.00392903
-0.000381053
0.00400191
-0.000344311
0.00406873
-0.000311064
0.00413005
-0.000281098
0.00418641
-0.000254167
0.00423827
-0.000230012
0.00428609
-0.000208369
0.00433027
-0.000188982
0.00437118
-0.000171608
0.00440913
-0.000156024
0.00444443
-0.000142026
0.00447732
-0.00012943
0.00450805
-0.000118076
0.00453682
-0.000107819
0.00456382
-9.85349e-05
0.0045892
-9.01155e-05
0.00461311
-8.2466e-05
0.00463568
-7.55046e-05
0.00465704
-6.91599e-05
0.00467728
-6.33695e-05
0.0046965
-5.80769e-05
-5.32261e-05
0.00471479
3.50957e-05
1.28613e-05
9.33771e-05
-4.93269e-05
0.000169151
-0.000172346
0.000256821
-0.000330683
0.000356108
-0.000502837
0.000467705
-0.000673743
0.000592361
-0.0008331
0.00073021
-0.000973778
0.00088058
-0.00109127
0.00104207
-0.00118332
0.00121274
-0.00124944
0.00139027
-0.00129051
0.0015722
-0.00130837
0.00175609
-0.0013055
0.00193961
-0.00128475
0.00212068
-0.00124913
0.00229747
-0.00120161
0.00246851
-0.00114503
0.00263261
-0.00108202
0.00278891
-0.0010149
0.00293683
-0.000945717
0.00307605
-0.000876182
0.00320645
-0.000807696
0.00332811
-0.000741379
0.00344124
-0.000678083
0.00354617
-0.000618421
0.00364335
-0.00056278
0.00373325
-0.000511353
0.00381639
-0.000464187
0.00389328
-0.000421203
0.00396445
-0.000382234
0.0040304
-0.000347048
0.00409161
-0.000315377
0.00414853
-0.000286929
0.00420157
-0.000261407
0.0042511
-0.00023852
0.00429749
-0.000217991
0.00434102
-0.00019956
0.00438199
-0.000182994
0.00442064
-0.00016808
0.00445719
-0.000154628
0.00449185
-0.000142473
0.00452478
-0.000131467
0.00455615
-0.000121484
0.00458609
-0.000112412
0.00461474
-0.000104155
0.00464221
-9.66284e-05
0.0046686
-8.97584e-05
0.004694
-8.34781e-05
-7.77201e-05
0.0047185
6.28711e-05
-5.00098e-05
0.000150247
-0.000136703
0.000240444
-0.000262544
0.000330697
-0.000420936
0.000422952
-0.000595092
0.000520325
-0.000771116
0.000625862
-0.000938637
0.000741752
-0.00108967
0.000869037
-0.00121856
0.00100765
-0.00132193
0.0011566
-0.0013984
0.00131424
-0.00144815
0.00147848
-0.00147261
0.00164706
-0.00147408
0.00181769
-0.00145538
0.0019882
-0.00141964
0.00215666
-0.00137006
0.00232138
-0.00130976
0.00248101
-0.00124164
0.00263447
-0.00116836
0.00278098
-0.00109223
0.00292005
-0.00101525
0.0030514
-0.000939042
0.00317493
-0.000864913
0.00329074
-0.000793891
0.00339903
-0.000726715
0.00350013
-0.000663879
0.00359444
-0.000605657
0.00368238
-0.000552131
0.00376443
-0.000503248
0.00384104
-0.000458847
0.00391268
-0.000418689
0.00397979
-0.000382488
0.00404279
-0.000349928
0.00410207
-0.000320684
0.00415798
-0.000294433
0.00421085
-0.000270866
0.00426099
-0.000249696
0.00430865
-0.000230655
0.00435408
-0.000213505
0.00439748
-0.000198032
0.00443905
-0.000184046
0.00447897
-0.000171381
0.00451737
-0.00015989
0.00455441
-0.000149447
0.00459019
-0.00013994
0.00462484
-0.000131274
0.00465844
-0.000123362
0.00469109
-0.000116131
0.00472288
-0.000109504
0.00472218
-1.489e-05
7.4217e-09
0.00473653
-1.43616e-05
7.55607e-09
0.00475039
-1.38675e-05
7.68838e-09
0.00476379
-1.34059e-05
7.82964e-09
0.00477676
-1.29727e-05
7.99029e-09
0.00478931
-1.25619e-05
8.17555e-09
0.00480147
-1.21646e-05
8.38761e-09
0.00481323
-1.17693e-05
8.62165e-09
0.00482458
-1.13618e-05
8.86748e-09
0.0048355
-1.09274e-05
9.11376e-09
0.00484594
-1.04524e-05
9.34604e-09
0.00485586
-9.92831e-06
9.54266e-09
0.0048652
-9.35411e-06
9.68254e-09
0.00487393
-8.73906e-06
9.74717e-09
0.00488203
-8.10273e-06
9.71886e-09
0.00488949
-7.47268e-06
9.58469e-09
0.00489636
-6.87975e-06
9.34362e-09
0.0049027
-6.35209e-06
9.00328e-09
0.0049086
-5.90968e-06
8.57658e-09
0.00491416
-5.5608e-06
8.08387e-09
0.00491945
-5.3015e-06
7.54982e-09
0.00492456
-5.1179e-06
6.99488e-09
0.00492955
-4.99029e-06
6.43488e-09
0.00493444
-4.89768e-06
5.88443e-09
0.00493925
-4.82147e-06
5.35334e-09
0.004944
-4.74763e-06
4.84492e-09
0.00494866
-4.6673e-06
4.36103e-09
0.00495323
-4.57618e-06
3.90267e-09
0.0049577
-4.47334e-06
3.46667e-09
0.00496206
-4.35993e-06
3.04979e-09
0.00496629
-4.23809e-06
2.65173e-09
0.0049704
-4.1102e-06
2.27118e-09
0.00497438
-3.97847e-06
1.90494e-09
0.00497822
-3.84477e-06
1.55227e-09
0.00498193
-3.71056e-06
1.21331e-09
0.00498551
-3.57696e-06
8.87393e-10
0.00498895
-3.44478e-06
5.78187e-10
0.00499227
-3.31463e-06
2.93788e-10
0.00499545
-3.18694e-06
3.93328e-11
0.00499851
-3.06199e-06
-1.84098e-10
0.00500146
-2.93998e-06
-3.78231e-10
0.00500428
-2.82102e-06
-5.52065e-10
0.00500698
-2.70519e-06
-7.16955e-10
0.00500958
-2.59251e-06
-8.74492e-10
0.00501206
-2.48299e-06
-1.04534e-09
0.00501444
-2.37657e-06
-1.22658e-09
0.00501671
-2.27327e-06
-1.40569e-09
0.00501889
-2.17301e-06
-1.60229e-09
0.00502096
-2.07574e-06
-1.82292e-09
0.00502295
-1.98139e-06
-2.07521e-09
0.00502484
-1.88991e-06
-2.35802e-09
0.00502664
-1.80127e-06
-2.66407e-09
0.00502836
-1.7154e-06
-2.97767e-09
0.00503
-1.63229e-06
-3.27932e-09
0.00503155
-1.5519e-06
-3.5498e-09
0.00503303
-1.47417e-06
-3.7736e-09
0.00503443
-1.39907e-06
-3.94543e-09
0.00503577
-1.32652e-06
-4.0696e-09
0.00503703
-1.25646e-06
-4.17162e-09
0.00503822
-1.18882e-06
-4.28176e-09
0.00503935