/*--------------------------------*- C++ -*----------------------------------*\
| =========                 |                                                 |
| \\      /  F ield         | OpenFOAM: The Open Source CFD Toolbox           |
|  \\    /   O peration     | Version:  2412                                  |
|   \\  /    A nd           | Website:  www.openfoam.com                      |
|    \\/     M anipulation  |                                                 |
\*---------------------------------------------------------------------------*/
FoamFile
{
    version     2.0;
    format      ascii;
    arch        "LSB;label=32;scalar=64";
    class       volVectorField;
    location    "8.5";
    object      U;
}
// * * * * * * * * * * * * * * * * * * * * * * * * * * * * * * * * * * * * * //

dimensions      [0 1 -1 0 0 0 0];

internalField   nonuniform List<vector> 
63420
(
(0.100004 2.79445e-07 0)
(0.0999943 1.4414e-06 0)
(0.0999845 5.18778e-06 0)
(0.0999391 1.1443e-05 0)
(0.0998581 1.74736e-05 0)
(0.0997517 2.06401e-05 0)
(0.0996404 2.02639e-05 0)
(0.0995416 1.7492e-05 0)
(0.0994622 1.40411e-05 0)
(0.099401 1.11787e-05 0)
(0.0993522 9.42281e-06 0)
(0.0993098 8.72851e-06 0)
(0.0992693 8.80037e-06 0)
(0.0992279 9.32052e-06 0)
(0.0991844 1.00515e-05 0)
(0.0991382 1.0852e-05 0)
(0.0990895 1.16551e-05 0)
(0.0990384 1.24395e-05 0)
(0.0989851 1.32064e-05 0)
(0.0989297 1.39666e-05 0)
(0.0988724 1.47325e-05 0)
(0.0988133 1.55157e-05 0)
(0.0987523 1.63256e-05 0)
(0.0986893 1.717e-05 0)
(0.0986245 1.80548e-05 0)
(0.0985576 1.89852e-05 0)
(0.0984887 1.99653e-05 0)
(0.0984176 2.09986e-05 0)
(0.0983444 2.20886e-05 0)
(0.0982689 2.32384e-05 0)
(0.098191 2.4451e-05 0)
(0.0981106 2.57295e-05 0)
(0.0980277 2.70769e-05 0)
(0.0979422 2.84965e-05 0)
(0.097854 2.99916e-05 0)
(0.097763 3.15654e-05 0)
(0.0976691 3.32217e-05 0)
(0.0975723 3.49642e-05 0)
(0.0974723 3.67968e-05 0)
(0.0973692 3.87237e-05 0)
(0.0972629 4.07494e-05 0)
(0.0971532 4.28786e-05 0)
(0.09704 4.51165e-05 0)
(0.0969233 4.74683e-05 0)
(0.0968029 4.99398e-05 0)
(0.0966788 5.25373e-05 0)
(0.0965508 5.52675e-05 0)
(0.0964188 5.81378e-05 0)
(0.0962826 6.11562e-05 0)
(0.0961423 6.43314e-05 0)
(0.0959975 6.76733e-05 0)
(0.0958482 7.11935e-05 0)
(0.0956943 7.49081e-05 0)
(0.0955354 7.88465e-05 0)
(0.0953715 8.30777e-05 0)
(0.100004 8.43643e-07 0)
(0.0999943 4.31574e-06 0)
(0.0999846 1.5473e-05 0)
(0.0999399 3.41169e-05 0)
(0.0998601 5.21268e-05 0)
(0.099755 6.16388e-05 0)
(0.0996446 6.06094e-05 0)
(0.0995462 5.24295e-05 0)
(0.0994667 4.22005e-05 0)
(0.0994049 3.36977e-05 0)
(0.0993554 2.84713e-05 0)
(0.0993125 2.6397e-05 0)
(0.0992714 2.66019e-05 0)
(0.0992296 2.81436e-05 0)
(0.0991858 3.03166e-05 0)
(0.0991395 3.27008e-05 0)
(0.0990906 3.50967e-05 0)
(0.0990394 3.74396e-05 0)
(0.0989861 3.97332e-05 0)
(0.0989308 4.20086e-05 0)
(0.0988735 4.43025e-05 0)
(0.0988144 4.66491e-05 0)
(0.0987534 4.90764e-05 0)
(0.0986906 5.16071e-05 0)
(0.0986258 5.42593e-05 0)
(0.098559 5.70478e-05 0)
(0.0984901 5.99851e-05 0)
(0.0984192 6.3082e-05 0)
(0.098346 6.63484e-05 0)
(0.0982706 6.97936e-05 0)
(0.0981928 7.34269e-05 0)
(0.0981126 7.72574e-05 0)
(0.0980298 8.12941e-05 0)
(0.0979445 8.55467e-05 0)
(0.0978564 9.00248e-05 0)
(0.0977655 9.47388e-05 0)
(0.0976718 9.96993e-05 0)
(0.0975751 0.000104918 0)
(0.0974754 0.000110405 0)
(0.0973725 0.000116175 0)
(0.0972663 0.000122241 0)
(0.0971568 0.000128616 0)
(0.0970439 0.000135316 0)
(0.0969275 0.000142356 0)
(0.0968074 0.000149755 0)
(0.0966835 0.00015753 0)
(0.0965558 0.000165702 0)
(0.0964241 0.000174292 0)
(0.0962884 0.000183325 0)
(0.0961484 0.000192825 0)
(0.096004 0.000202824 0)
(0.0958552 0.000213355 0)
(0.0957017 0.000224465 0)
(0.0955435 0.00023624 0)
(0.0953802 0.000248883 0)
(0.100004 1.42133e-06 0)
(0.0999942 7.16501e-06 0)
(0.0999848 2.55276e-05 0)
(0.0999414 5.62735e-05 0)
(0.099864 8.60917e-05 0)
(0.0997614 0.000102011 0)
(0.0996529 0.000100581 0)
(0.0995551 8.73079e-05 0)
(0.0994753 7.05599e-05 0)
(0.0994126 5.65665e-05 0)
(0.0993619 4.79142e-05 0)
(0.0993177 4.44319e-05 0)
(0.0992756 4.47056e-05 0)
(0.099233 4.71953e-05 0)
(0.0991886 5.07429e-05 0)
(0.0991419 5.46553e-05 0)
(0.0990928 5.86009e-05 0)
(0.0990416 6.24702e-05 0)
(0.0989882 6.62668e-05 0)
(0.0989329 7.00396e-05 0)
(0.0988757 7.3848e-05 0)
(0.0988166 7.77471e-05 0)
(0.0987557 8.17827e-05 0)
(0.098693 8.59918e-05 0)
(0.0986283 9.0404e-05 0)
(0.0985617 9.50436e-05 0)
(0.098493 9.9931e-05 0)
(0.0984223 0.000105084 0)
(0.0983493 0.000110519 0)
(0.0982741 0.000116252 0)
(0.0981965 0.000122298 0)
(0.0981165 0.000128671 0)
(0.098034 0.000135387 0)
(0.0979489 0.000142462 0)
(0.0978611 0.000149911 0)
(0.0977706 0.000157753 0)
(0.0976771 0.000166003 0)
(0.0975808 0.000174682 0)
(0.0974814 0.000183809 0)
(0.0973789 0.000193404 0)
(0.0972732 0.000203489 0)
(0.0971641 0.000214088 0)
(0.0970517 0.000225226 0)
(0.0969357 0.000236928 0)
(0.0968162 0.000249225 0)
(0.0966929 0.000262145 0)
(0.0965658 0.000275723 0)
(0.0964348 0.000289993 0)
(0.0962998 0.000304995 0)
(0.0961606 0.000320771 0)
(0.0960171 0.00033737 0)
(0.0958691 0.000354846 0)
(0.0957167 0.000373276 0)
(0.0955595 0.000392796 0)
(0.0953973 0.000413723 0)
(0.100004 2.02065e-06 0)
(0.099994 9.97374e-06 0)
(0.099985 3.52108e-05 0)
(0.0999437 7.75978e-05 0)
(0.0998696 0.000118948 0)
(0.0997706 0.000141373 0)
(0.0996647 0.000139949 0)
(0.099568 0.000122088 0)
(0.0994878 9.92381e-05 0)
(0.0994236 7.99959e-05 0)
(0.0993712 6.79898e-05 0)
(0.0993252 6.3055e-05 0)
(0.0992817 6.32947e-05 0)
(0.099238 6.66144e-05 0)
(0.0991928 7.14278e-05 0)
(0.0991455 7.67788e-05 0)
(0.0990961 8.22049e-05 0)
(0.0990447 8.75488e-05 0)
(0.0989912 9.28097e-05 0)
(0.0989359 9.80511e-05 0)
(0.0988788 0.000103352 0)
(0.0988199 0.000108786 0)
(0.0987592 0.000114415 0)
(0.0986966 0.000120289 0)
(0.0986322 0.000126449 0)
(0.0985658 0.000132928 0)
(0.0984973 0.000139754 0)
(0.0984268 0.000146951 0)
(0.0983542 0.000154543 0)
(0.0982792 0.00016255 0)
(0.098202 0.000170993 0)
(0.0981223 0.000179894 0)
(0.0980402 0.000189273 0)
(0.0979555 0.000199152 0)
(0.0978681 0.000209553 0)
(0.097778 0.000220501 0)
(0.0976851 0.000232019 0)
(0.0975893 0.000244133 0)
(0.0974904 0.00025687 0)
(0.0973885 0.00027026 0)
(0.0972834 0.000284332 0)
(0.097175 0.000299119 0)
(0.0970633 0.000314655 0)
(0.0969481 0.000330976 0)
(0.0968293 0.000348122 0)
(0.0967069 0.000366134 0)
(0.0965808 0.000385058 0)
(0.0964508 0.000404942 0)
(0.0963168 0.00042584 0)
(0.0961787 0.000447809 0)
(0.0960365 0.000470915 0)
(0.0958899 0.00049523 0)
(0.0957389 0.000520856 0)
(0.0955833 0.00054797 0)
(0.0954229 0.000576977 0)
(0.100004 2.64828e-06 0)
(0.0999938 1.2729e-05 0)
(0.0999854 4.4401e-05 0)
(0.0999465 9.78186e-05 0)
(0.0998766 0.000150334 0)
(0.0997822 0.000179392 0)
(0.0996796 0.000178511 0)
(0.0995842 0.000156731 0)
(0.0995035 0.000128333 0)
(0.0994376 0.000104163 0)
(0.0993829 8.89009e-05 0)
(0.0993348 8.2456e-05 0)
(0.0992894 8.25259e-05 0)
(0.0992443 8.65196e-05 0)
(0.0991981 9.24546e-05 0)
(0.0991502 9.91252e-05 0)
(0.0991004 0.000105939 0)
(0.0990487 0.000112688 0)
(0.0989952 0.000119362 0)
(0.0989399 0.000126033 0)
(0.0988829 0.000132796 0)
(0.0988242 0.00013974 0)
(0.0987637 0.000146942 0)
(0.0987013 0.000154464 0)
(0.0986372 0.000162355 0)
(0.0985711 0.000170657 0)
(0.098503 0.000179405 0)
(0.0984328 0.00018863 0)
(0.0983605 0.00019836 0)
(0.098286 0.000208623 0)
(0.0982092 0.000219445 0)
(0.09813 0.000230851 0)
(0.0980484 0.00024287 0)
(0.0979642 0.000255528 0)
(0.0978774 0.000268855 0)
(0.0977879 0.000282879 0)
(0.0976956 0.000297632 0)
(0.0976005 0.000313146 0)
(0.0975023 0.000329456 0)
(0.0974012 0.000346599 0)
(0.0972969 0.000364611 0)
(0.0971894 0.000383536 0)
(0.0970786 0.000403414 0)
(0.0969644 0.000424293 0)
(0.0968467 0.000446221 0)
(0.0967255 0.000469251 0)
(0.0966006 0.00049344 0)
(0.0964719 0.000518847 0)
(0.0963393 0.00054554 0)
(0.0962028 0.000573589 0)
(0.0960622 0.000603072 0)
(0.0959174 0.000634081 0)
(0.0957683 0.000666734 0)
(0.0956148 0.000701232 0)
(0.0954567 0.000738035 0)
(0.100004 3.30921e-06 0)
(0.0999936 1.54207e-05 0)
(0.0999858 5.30034e-05 0)
(0.0999497 0.000116723 0)
(0.0998847 0.000179962 0)
(0.0997954 0.000215803 0)
(0.0996966 0.000216099 0)
(0.0996029 0.000191198 0)
(0.0995216 0.000157912 0)
(0.0994537 0.000129202 0)
(0.0993965 0.000110803 0)
(0.0993459 0.000102781 0)
(0.0992985 0.000102521 0)
(0.0992517 0.000107003 0)
(0.0992044 0.000113888 0)
(0.0991557 0.000121735 0)
(0.0991055 0.000129826 0)
(0.0990536 0.000137896 0)
(0.099 0.000145919 0)
(0.0989448 0.000153972 0)
(0.0988879 0.00016216 0)
(0.0988294 0.000170585 0)
(0.0987692 0.000179335 0)
(0.0987071 0.000188481 0)
(0.0986433 0.000198082 0)
(0.0985776 0.000208186 0)
(0.0985099 0.000218836 0)
(0.0984402 0.000230067 0)
(0.0983684 0.000241914 0)
(0.0982944 0.000254409 0)
(0.0982181 0.000267583 0)
(0.0981395 0.000281469 0)
(0.0980585 0.000296098 0)
(0.097975 0.000311504 0)
(0.0978889 0.00032772 0)
(0.0978001 0.000344783 0)
(0.0977086 0.00036273 0)
(0.0976143 0.0003816 0)
(0.0975171 0.000401434 0)
(0.0974169 0.000422275 0)
(0.0973136 0.00044417 0)
(0.0972072 0.000467168 0)
(0.0970976 0.000491319 0)
(0.0969846 0.000516678 0)
(0.0968683 0.000543304 0)
(0.0967484 0.000571258 0)
(0.096625 0.000600608 0)
(0.096498 0.000631424 0)
(0.0963672 0.000663784 0)
(0.0962325 0.00069777 0)
(0.0960939 0.000733473 0)
(0.0959513 0.000770994 0)
(0.0958046 0.000810461 0)
(0.0956537 0.000852081 0)
(0.0954984 0.000896317 0)
(0.100004 4.00869e-06 0)
(0.0999934 1.80361e-05 0)
(0.0999862 6.09613e-05 0)
(0.0999532 0.000134169 0)
(0.0998933 0.000207637 0)
(0.0998097 0.000250417 0)
(0.0997151 0.00025259 0)
(0.0996231 0.000225448 0)
(0.0995412 0.00018801 0)
(0.0994714 0.000155192 0)
(0.0994115 0.000133793 0)
(0.0993583 0.000124127 0)
(0.0993085 0.000123362 0)
(0.0992601 0.000128127 0)
(0.0992115 0.00013577 0)
(0.099162 0.000144635 0)
(0.0991113 0.000153877 0)
(0.0990592 0.000163173 0)
(0.0990056 0.000172474 0)
(0.0989505 0.000181854 0)
(0.0988938 0.000191424 0)
(0.0988355 0.000201294 0)
(0.0987756 0.000211562 0)
(0.0987139 0.000222305 0)
(0.0986505 0.000233591 0)
(0.0985852 0.000245473 0)
(0.098518 0.000257999 0)
(0.0984489 0.000271211 0)
(0.0983776 0.000285147 0)
(0.0983042 0.000299846 0)
(0.0982286 0.000315342 0)
(0.0981507 0.000331674 0)
(0.0980704 0.000348878 0)
(0.0979876 0.000366993 0)
(0.0979024 0.000386057 0)
(0.0978145 0.000406113 0)
(0.0977239 0.000427204 0)
(0.0976306 0.000449375 0)
(0.0975345 0.000472673 0)
(0.0974354 0.00049715 0)
(0.0973334 0.000522856 0)
(0.0972283 0.00054985 0)
(0.09712 0.000578189 0)
(0.0970085 0.000607936 0)
(0.0968938 0.000639157 0)
(0.0967756 0.000671924 0)
(0.096654 0.000706312 0)
(0.0965289 0.000742401 0)
(0.0964002 0.000780277 0)
(0.0962677 0.000820033 0)
(0.0961315 0.000861766 0)
(0.0959915 0.000905586 0)
(0.0958475 0.000951621 0)
(0.0956996 0.00100005 0)
(0.0955476 0.00105126 0)
(0.0952016 8.77989e-05 -4.81445e-24)
(0.0950237 9.28055e-05 -4.90357e-24)
(0.0948362 9.81336e-05 -3.24067e-26)
(0.0946383 0.000103735 1.50499e-23)
(0.0944294 0.000109855 -4.98605e-24)
(0.0942091 0.000116298 -5.12588e-24)
(0.0939766 0.000123036 -1.57679e-23)
(0.0937314 0.000130066 1.56595e-23)
(0.0934731 0.000137378 5.3533e-24)
(0.093201 0.000144971 0)
(0.0929148 0.000152867 5.52441e-24)
(0.092614 0.000161123 -5.61659e-24)
(0.0922977 0.000169836 4.61651e-23)
(0.0919651 0.000179147 -9.89142e-23)
(0.091615 0.000189241 5.28555e-23)
(0.0912459 0.00020034 4.27883e-23)
(0.0908555 0.000212687 5.49067e-23)
(0.0904416 0.000226539 -6.28361e-24)
(0.0900011 0.000242156 6.41777e-24)
(0.0895305 0.000259802 -6.55989e-24)
(0.0890261 0.000279735 0)
(0.0884834 0.000302218 6.87075e-24)
(0.0878975 0.000327519 -7.04099e-24)
(0.0872633 0.000355935 0)
(0.0865748 0.000387807 -7.41542e-24)
(0.0858255 0.000423538 0)
(0.0850083 0.000463619 -7.84197e-24)
(0.0841147 0.000508657 -1.31421e-22)
(0.0831355 0.000559396 1.3955e-22)
(0.0820598 0.000616762 -1.40134e-22)
(0.0808749 0.000681895 1.39921e-22)
(0.0795659 0.000756212 0)
(0.0781152 0.00084147 0)
(0.0765017 0.000939851 1.7185e-22)
(0.0746999 0.00105408 -1.61696e-22)
(0.0726794 0.00118751 0)
(0.0704027 0.0013443 0)
(0.0678249 0.00152941 0)
(0.0648911 0.00174854 0)
(0.0615363 0.00200775 0)
(0.0576847 0.00231246 0)
(0.0532524 0.0026655 0)
(0.0481537 0.00306364 0)
(0.0423157 0.00349209 0)
(0.0357054 0.00391614 -1.61862e-23)
(0.0283741 0.00426939 -5.57327e-22)
(0.0205076 0.00443965 5.56491e-22)
(0.0125095 0.00425431 6.05964e-22)
(0.00537641 0.00344856 -6.05055e-22)
(0.00110076 0.00161184 0)
(0.0952107 0.000262985 -4.86782e-24)
(0.0950332 0.000277951 -9.91949e-24)
(0.0948459 0.000293903 -5.1902e-24)
(0.0946485 0.000310923 4.84781e-24)
(0.0944403 0.000329119 -5.05267e-24)
(0.0942205 0.000348315 3.61762e-23)
(0.0939886 0.000368451 -5.68131e-23)
(0.0937441 0.000389489 5.2726e-24)
(0.0934864 0.000411389 7.03114e-23)
(0.093215 0.000434148 -9.71122e-23)
(0.0929295 0.000457834 -9.47345e-23)
(0.0926291 0.000482616 8.34767e-23)
(0.0923134 0.000508785 0)
(0.0919812 0.000536764 5.82147e-24)
(0.0916314 0.000567105 -1.77821e-23)
(0.0912623 0.000600465 -2.0151e-22)
(0.0908722 0.000637571 1.93302e-22)
(0.0904583 0.000679183 -2.05486e-22)
(0.0900179 0.00072608 -1.92819e-23)
(0.0895476 0.000779042 6.57428e-24)
(0.0890435 0.00083885 0)
(0.0885014 0.000906279 -6.88855e-24)
(0.0879166 0.000982142 -2.219e-22)
(0.0872838 0.00106733 4.63668e-22)
(0.0865972 0.00116286 2.55677e-22)
(0.0858505 0.00126994 -4.82292e-22)
(0.0850366 0.00139006 5.19328e-22)
(0.0841473 0.00152502 -5.26973e-22)
(0.0831734 0.00167708 -8.36342e-24)
(0.0821043 0.00184898 0)
(0.0809276 0.00204414 0)
(0.0796289 0.0022668 0)
(0.0781909 0.00252219 0)
(0.0765934 0.00281682 -9.95648e-24)
(0.074812 0.00315877 -6.76068e-22)
(0.0728171 0.00355806 -2.93034e-23)
(0.0705735 0.00402694 7.03538e-22)
(0.068038 0.0045801 7.68211e-22)
(0.0651591 0.00523437 -7.67194e-22)
(0.0618751 0.00600747 -2.55484e-23)
(0.0581144 0.00691513 -2.67414e-23)
(0.0537971 0.00796512 -9.25155e-22)
(0.0488406 0.00914703 8.94644e-22)
(0.0431715 0.0104158 -3.0602e-23)
(0.0367492 0.011667 1.62993e-23)
(0.0296038 0.0127027 -1.13322e-21)
(0.0218809 0.0131884 1.13287e-21)
(0.0139149 0.0126116 -2.36844e-21)
(0.00656512 0.0101962 2.32884e-21)
(0.00158599 0.00473162 -2.3863e-21)
(0.0952288 0.000437053 -2.88089e-23)
(0.0950519 0.000461913 -1.00876e-23)
(0.0948656 0.000488469 3.89659e-23)
(0.0946691 0.000516848 -8.00659e-23)
(0.0944619 0.000546911 1.71275e-22)
(0.0942432 0.000578674 -8.11136e-23)
(0.0940126 0.000612067 1.44132e-26)
(0.0937694 0.000646999 1.05171e-23)
(0.093513 0.000683403 1.83224e-22)
(0.093243 0.000721281 -1.72349e-22)
(0.0929588 0.000760753 0)
(0.0926596 0.000802103 1.48695e-26)
(0.0923449 0.000845815 0)
(0.0920136 0.000892589 1.99925e-22)
(0.0916645 0.000943332 -1.76227e-22)
(0.091296 0.000999124 -3.79516e-22)
(0.0909062 0.00106116 2.08816e-23)
(0.0904928 0.00113068 -3.99403e-22)
(0.0900528 0.00120897 1.29023e-23)
(0.0895832 0.00129731 -4.27229e-22)
(0.0890802 0.00139699 4.40315e-22)
(0.0885397 0.00150929 -4.48377e-22)
(0.0879572 0.00163558 4.62122e-22)
(0.0873275 0.00177733 1.45401e-23)
(0.0866452 0.00193624 -1.49359e-23)
(0.085904 0.00211435 1.53576e-23)
(0.085097 0.00231412 -5.1436e-22)
(0.0842166 0.00253858 5.30194e-22)
(0.0832537 0.00279144 5.64274e-22)
(0.0821983 0.00307729 -5.46954e-22)
(0.0810385 0.00340179 0)
(0.0797608 0.00377192 0)
(0.078349 0.00419632 1.92478e-23)
(0.0767841 0.00468567 1.32757e-21)
(0.0750438 0.00525323 3.30431e-23)
(0.0731012 0.00591533 -1.33728e-21)
(0.0709242 0.00669192 0)
(0.0684744 0.00760673 -2.34414e-23)
(0.0657061 0.00868676 1.63629e-21)
(0.0625647 0.00996012 -3.26988e-21)
(0.0589869 0.0114511 3.47359e-21)
(0.0549008 0.0131703 1.09247e-22)
(0.0502298 0.0150977 -1.81103e-21)
(0.0448995 0.0171561 -1.97053e-21)
(0.0388534 0.0191713 2.0308e-21)
(0.0320782 0.0208172 1.57098e-24)
(0.0246379 0.0215451 -3.46981e-23)
(0.0167297 0.0205138 2.28671e-21)
(0.00892416 0.0164877 -2.2143e-21)
(0.00251865 0.00758106 -2.21389e-21)
(0.0952559 0.000609294 1.8987e-23)
(0.09508 0.000643877 -9.62925e-24)
(0.0948949 0.000680833 1.98269e-26)
(0.0946997 0.000720182 9.89698e-24)
(0.094494 0.000761936 -1.98812e-26)
(0.0942771 0.000806078 1.64191e-22)
(0.0940483 0.000852521 -3.10176e-22)
(0.0938071 0.000901155 1.66655e-22)
(0.0935529 0.000951908 -1.06608e-23)
(0.093285 0.0010048 1.96876e-22)
(0.0930029 0.00106001 -1.75115e-22)
(0.0927057 0.00111794 -3.6302e-22)
(0.0923928 0.00117928 7.32793e-22)
(0.0920631 0.00124498 -7.46839e-22)
(0.0917154 0.0013163 7.61582e-22)
(0.0913481 0.00139471 -7.65012e-22)
(0.0909594 0.00148184 -4.04898e-22)
(0.0905471 0.00157941 2.24977e-26)
(0.0901085 0.00168915 0)
(0.0896406 0.00181285 -4.16088e-22)
(0.0891398 0.00195227 4.29156e-22)
(0.0886024 0.00210921 0)
(0.088024 0.00228554 -9.25979e-22)
(0.0873999 0.00248336 9.10959e-22)
(0.0867247 0.00270504 1.5078e-23)
(0.0859926 0.00295346 -3.54128e-26)
(0.0851971 0.00323205 1.59374e-23)
(0.0843308 0.00354504 0)
(0.0833855 0.00389762 -5.11576e-26)
(0.0823517 0.00429617 0)
(0.0812185 0.00474851 -1.81054e-23)
(0.0799736 0.0052643 1.2249e-21)
(0.0786024 0.0058554 -1.22456e-21)
(0.0770881 0.00653648 -2.0272e-23)
(0.0754112 0.00732559 4.20031e-23)
(0.0735487 0.00824492 -1.45017e-21)
(0.0714737 0.00932133 1.40509e-21)
(0.0691547 0.0105865 2.38468e-23)
(0.0665544 0.0120762 -3.64964e-25)
(0.0636292 0.0138267 2.55394e-23)
(0.060328 0.0158681 -1.75883e-21)
(0.0565912 0.0182105 3.55989e-21)
(0.0523505 0.0208209 -1.85795e-21)
(0.0475302 0.0235872 1.93106e-21)
(0.0420498 0.0262663 -2.02164e-21)
(0.03583 0.0284121 -4.03146e-21)
(0.0288062 0.0292812 8.22698e-21)
(0.0209704 0.0277233 -4.16609e-21)
(0.0125029 0.0220858 0)
(0.00390462 0.0100365 -3.90953e-21)
(0.0952916 0.000778989 -9.41769e-24)
(0.0951171 0.000822998 -3.84419e-23)
(0.0949335 0.000869991 1.16493e-22)
(0.0947402 0.000920045 -1.57228e-22)
(0.0945366 0.000973197 6.92329e-23)
(0.094322 0.00102942 1.01434e-23)
(0.0940958 0.00108861 -1.03075e-23)
(0.0938574 0.00115068 -2.5046e-26)
(0.0936061 0.00121555 1.06588e-23)
(0.0933412 0.00128329 -2.16691e-23)
(0.0930621 0.00135414 -3.56288e-22)
(0.0927679 0.00142864 3.677e-22)
(0.0924577 0.00150765 -3.58774e-22)
(0.0921306 0.00159239 3.7036e-22)
(0.0917853 0.00168443 0)
(0.0914203 0.00178562 -2.53197e-26)
(0.091034 0.00189798 0)
(0.0906241 0.00202366 -3.99251e-22)
(0.0901883 0.00216484 4.25194e-22)
(0.0897237 0.00232373 -1.33543e-23)
(0.0892272 0.00250258 -8.99888e-22)
(0.0886952 0.00270366 8.86604e-22)
(0.0881237 0.00292938 -1.44155e-23)
(0.0875082 0.00318241 0)
(0.086844 0.00346582 0)
(0.0861255 0.00378329 -1.03333e-21)
(0.0853468 0.00413925 1.00194e-21)
(0.0845012 0.00453909 0)
(0.0835811 0.00498943 -3.43899e-23)
(0.0825782 0.00549837 0)
(0.0814827 0.00607581 1.84231e-23)
(0.080284 0.00673387 -1.90032e-23)
(0.0789697 0.00748745 -1.97966e-23)
(0.0775259 0.00835477 2.04286e-23)
(0.0759369 0.0093582 1.34596e-21)
(0.0741849 0.0105249 -1.38915e-21)
(0.0722498 0.0118877 3.02762e-21)
(0.0701092 0.0134846 -3.02961e-21)
(0.0677374 0.0153578 3.22697e-21)
(0.0651051 0.0175492 9.97787e-23)
(0.0621773 0.0200913 -3.4076e-21)
(0.0589108 0.0229899 -2.73314e-23)
(0.055249 0.0261958 1.3199e-24)
(0.0511148 0.0295612 1.76441e-24)
(0.0463981 0.0327785 2.35143e-24)
(0.0409367 0.0352978 -5.96344e-23)
(0.0344935 0.0362155 -2.73702e-23)
(0.0267729 0.0341175 -2.59717e-23)
(0.0174481 0.0269517 0)
(0.00576899 0.0120881 8.21902e-24)
(0.0953357 0.000945455 -4.67342e-23)
(0.0951629 0.000998618 2.81121e-23)
(0.0949813 0.0010554 9.60951e-24)
(0.0947903 0.0011159 1.47397e-22)
(0.0945894 0.0011802 -1.47458e-22)
(0.0943778 0.00124825 1.5238e-22)
(0.094155 0.00132 -3.38163e-22)
(0.0939202 0.00139534 4.81126e-22)
(0.0936728 0.00147425 -3.36948e-22)
(0.0934119 0.00155681 -3.49159e-22)
(0.0931368 0.00164339 -1.73334e-23)
(0.0928467 0.00173465 7.08473e-22)
(0.0925406 0.00183165 -7.45878e-22)
(0.0922174 0.00193587 3.47809e-22)
(0.091876 0.00204917 3.74984e-22)
(0.091515 0.00217374 3.91663e-22)
(0.0911327 0.00231201 -2.9843e-23)
(0.0907273 0.00246648 7.98271e-22)
(0.0902964 0.00263976 8.23766e-22)
(0.0898377 0.00283449 2.05458e-23)
(0.0893482 0.00305336 -8.73068e-22)
(0.0888247 0.00329911 0)
(0.0882637 0.00357467 0)
(0.0876612 0.00388332 -9.72563e-22)
(0.0870128 0.00422885 9.58593e-22)
(0.0863137 0.00461576 1.03263e-21)
(0.0855585 0.00504948 -1.03416e-21)
(0.0847413 0.00553661 0)
(0.0838557 0.0060852 1.1552e-21)
(0.0828945 0.00670502 -1.15744e-21)
(0.0818498 0.00740798 0)
(0.0807128 0.00820858 -2.50859e-21)
(0.079474 0.00912443 2.53182e-21)
(0.0781231 0.0101769 -2.0944e-23)
(0.0766492 0.011392 -2.80677e-21)
(0.0750409 0.0128008 2.8328e-21)
(0.0732867 0.0144398 0)
(0.0713752 0.0163509 3.19437e-21)
(0.0692953 0.0185784 -3.17471e-21)
(0.0670354 0.0211639 2.58185e-23)
(0.0645811 0.0241343 3.52705e-21)
(0.0619102 0.027482 -7.08564e-21)
(0.0589826 0.0311319 1.13659e-23)
(0.0557235 0.0348937 3.14726e-23)
(0.0519951 0.038397 3.69795e-21)
(0.0475481 0.0410094 4.10627e-24)
(0.0419542 0.041721 -3.17422e-21)
(0.0345494 0.0389607 3.25401e-21)
(0.0242456 0.0304503 0)
(0.00838408 0.0134255 2.84228e-23)
(0.0953878 0.0011079 9.20687e-24)
(0.0952173 0.00116965 8.47585e-23)
(0.0950383 0.00123568 -7.55851e-23)
(0.0948504 0.00130611 9.69414e-24)
(0.0946529 0.00138102 1.48903e-22)
(0.0944452 0.00146041 -1.49145e-22)
(0.0942265 0.00154423 -3.19162e-22)
(0.0939963 0.00163241 4.95903e-24)
(0.0937537 0.00172497 -5.73798e-24)
(0.093498 0.00182207 3.54069e-22)
(0.0932283 0.00192418 -3.45465e-22)
(0.0929437 0.0020321 7.32875e-22)
(0.0926433 0.00214712 -3.65079e-22)
(0.092326 0.00227097 1.17909e-23)
(0.0919906 0.00240579 1.20602e-23)
(0.0916359 0.00255414 7.97254e-22)
(0.0912603 0.00271877 -4.88387e-24)
(0.0908621 0.00290259 8.31882e-22)
(0.0904394 0.0031086 1.32883e-23)
(0.0899901 0.00333984 0)
(0.0895116 0.00359946 0)
(0.0890012 0.00389067 -9.32307e-22)
(0.0884558 0.00421699 9.34663e-22)
(0.087872 0.00458235 0)
(0.087246 0.0049913 1.57193e-23)
(0.0865738 0.00544928 0)
(0.0858509 0.00596282 -1.08582e-21)
(0.0850725 0.00653983 2.21085e-21)
(0.0842335 0.0071899 -1.12511e-21)
(0.0833282 0.00792465 -2.38587e-21)
(0.0823508 0.00875812 -8.1208e-23)
(0.0812952 0.00970726 -8.60414e-23)
(0.0801552 0.0107925 -9.08712e-23)
(0.0789247 0.0120384 2.6872e-21)
(0.0775985 0.013474 2.88901e-21)
(0.0761724 0.0151335 -2.89588e-21)
(0.0746443 0.0170559 0)
(0.0730149 0.0192831 3.22001e-21)
(0.0712884 0.0218565 -3.22748e-21)
(0.0694723 0.0248079 -3.44307e-21)
(0.0675745 0.0281449 3.42413e-21)
(0.0655964 0.0318259 2.80846e-23)
(0.0635192 0.035724 3.46924e-21)
(0.0612786 0.0395767 -1.06563e-22)
(0.0587246 0.0429259 -3.43408e-21)
(0.0555501 0.0450563 2.62235e-23)
(0.0511892 0.0449257 0)
(0.0446964 0.0410261 -2.07276e-23)
(0.0340489 0.0313046 -9.32676e-22)
(0.0135239 0.0133579 4.71721e-22)
(-0.000240353 0.000266013 0)
(-0.000784829 0.000312377 2.84683e-22)
(-0.00118046 8.76072e-05 -2.8511e-22)
(-0.00103197 -0.00027162 -2.64602e-22)
(-0.000174217 -0.000681471 2.64999e-22)
(0.00142197 -0.00108822 -7.55171e-24)
(0.00371888 -0.00146268 0)
(0.00664288 -0.00178604 0)
(0.0100957 -0.00204895 0)
(0.0139686 -0.00224875 0)
(0.0181518 -0.00238713 0)
(0.0225408 -0.00246856 0)
(0.0270397 -0.00249921 0)
(0.0315641 -0.00248612 0)
(0.0360415 -0.00243659 0)
(0.0404122 -0.0023578 1.84941e-23)
(0.0446286 -0.0022565 -1.74951e-23)
(0.0486544 -0.00213883 0)
(0.0524636 -0.00201026 0)
(0.0560393 -0.00187551 -4.37538e-24)
(0.0593728 -0.00173857 4.38206e-24)
(0.0624619 -0.00160271 -1.18385e-24)
(0.0653097 -0.00147049 6.65885e-26)
(0.0679236 -0.00134388 0)
(0.0703141 -0.0012243 -8.51975e-27)
(0.0724946 -0.00111268 0)
(0.0744794 -0.00100959 0)
(0.0762834 -0.000915171 0)
(0.0779223 -0.000829335 -1.62665e-26)
(0.079411 -0.000751768 0)
(0.0807642 -0.000682012 -9.7077e-27)
(0.0819953 -0.000619512 2.50984e-26)
(0.0831171 -0.000563661 -4.1015e-26)
(0.0841411 -0.000513832 5.44028e-25)
(0.0850776 -0.000469407 -5.60291e-25)
(0.085936 -0.000429796 -6.43375e-25)
(0.0867246 -0.000394447 1.47235e-24)
(0.0874508 -0.000362858 -8.43178e-25)
(0.0881211 -0.00033458 -1.26569e-25)
(0.0887411 -0.000309211 1.37723e-25)
(0.0893161 -0.0002864 0)
(0.0898503 -0.000265842 1.5713e-25)
(0.0903477 -0.000247273 -8.36646e-25)
(0.0908119 -0.000230462 8.4515e-25)
(0.0912458 -0.000215214 -1.79551e-25)
(0.0916523 -0.000201359 5.59397e-25)
(0.0920337 -0.00018875 -1.83954e-25)
(0.0923924 -0.000177261 -3.91294e-25)
(0.0927302 -0.000166781 1.96499e-25)
(0.0930491 -0.000157209 -2.02334e-25)
(-0.000268393 0.000758625 -1.12588e-21)
(-0.00074573 0.000848111 -1.19451e-21)
(-0.00089849 0.000182631 1.177e-21)
(-0.000460943 -0.000887738 -5.25641e-22)
(0.000677665 -0.00208791 5.27339e-22)
(0.00251536 -0.00328446 7.60396e-24)
(0.00499963 -0.00438551 -1.42931e-23)
(0.00805649 -0.00533533 -3.91969e-22)
(0.0115896 -0.00610734 3.7962e-22)
(0.0154953 -0.0066939 -9.88245e-24)
(0.0196707 -0.00709989 -8.44973e-24)
(0.024019 -0.0073384 2.00758e-22)
(0.0284518 -0.00742747 -2.01025e-22)
(0.0328915 -0.00738772 -1.31237e-22)
(0.0372721 -0.00724059 2.83674e-23)
(0.041539 -0.00700713 1.03182e-22)
(0.0456491 -0.00670718 -1.03224e-24)
(0.0495696 -0.00635885 -1.7055e-24)
(0.0532772 -0.00597819 0)
(0.0567572 -0.00557914 0)
(0.0600018 -0.00517348 0)
(0.0630097 -0.00477082 -1.36108e-25)
(0.0657846 -0.00437878 3.51371e-24)
(0.0683333 -0.00400324 -3.95434e-24)
(0.0706665 -0.00364843 -2.10584e-25)
(0.0727972 -0.00331707 -2.44392e-25)
(0.0747389 -0.00301081 9.95121e-25)
(0.076506 -0.00273018 -5.31393e-25)
(0.0781133 -0.00247492 1.63085e-26)
(0.0795753 -0.00224413 -3.15454e-26)
(0.0809058 -0.00203648 9.72889e-27)
(0.0821179 -0.00185033 -1.0633e-25)
(0.0832235 -0.0016839 1.63595e-24)
(0.0842338 -0.00153535 -3.95366e-24)
(0.0851588 -0.00140284 2.09984e-24)
(0.0860074 -0.00128464 -2.80511e-25)
(0.0867877 -0.00117913 1.01417e-25)
(0.0875067 -0.0010848 0)
(0.0881709 -0.00100033 -2.28509e-24)
(0.0887856 -0.000924539 2.01093e-24)
(0.0893559 -0.000856374 2.1581e-24)
(0.0898861 -0.000794931 -2.94743e-24)
(0.09038 -0.000739422 1.65411e-25)
(0.090841 -0.000689166 8.91481e-25)
(0.0912721 -0.000643577 -1.60456e-24)
(0.091676 -0.000602149 -1.85271e-25)
(0.0920552 -0.000564446 -1.34925e-24)
(0.0924117 -0.000530088 -2.14469e-25)
(0.0927477 -0.00049874 3.88797e-25)
(0.0930647 -0.000470102 6.04193e-25)
(-0.000316573 0.00111735 -1.20198e-21)
(-0.000626897 0.00111542 1.26959e-21)
(-0.00029528 1.28806e-05 -1.2316e-21)
(0.000695763 -0.00169243 -1.80574e-23)
(0.00237483 -0.00361436 -7.43074e-25)
(0.0046569 -0.0055325 -9.71283e-22)
(0.00748762 -0.00729295 1.00325e-21)
(0.0107862 -0.00881061 8.13822e-22)
(0.0144607 -0.0100444 -8.57191e-23)
(0.0184186 -0.0109819 -1.30281e-21)
(0.022571 -0.0116305 1.13506e-21)
(0.0268355 -0.0120108 -5.1029e-22)
(0.031138 -0.0121512 -6.43134e-24)
(0.0354141 -0.0120844 0)
(0.0396092 -0.0118446 2.33624e-22)
(0.0436786 -0.0114655 -5.38563e-23)
(0.0475872 -0.0109787 -1.76637e-22)
(0.0513085 -0.0104135 3.75577e-24)
(0.0548244 -0.00979545 0)
(0.0581234 -0.00914719 0)
(0.0612003 -0.00848765 1.86472e-23)
(0.0640553 -0.00783241 -1.80779e-23)
(0.066692 -0.00719385 -7.76622e-24)
(0.0691183 -0.00658154 8.14524e-24)
(0.0713429 -0.00600251 1.93175e-25)
(0.0733791 -0.00546135 -1.37088e-25)
(0.0752391 -0.00496058 1.05015e-25)
(0.0769359 -0.00450124 -1.2424e-24)
(0.0784831 -0.004083 1.33431e-24)
(0.079894 -0.00370447 -2.05948e-24)
(0.0811812 -0.00336355 2.1911e-24)
(0.0823565 -0.00305764 8.1502e-26)
(0.0834312 -0.00278389 4.45693e-24)
(0.0844152 -0.00253933 -9.67136e-24)
(0.0853179 -0.00232101 5.51433e-24)
(0.0861476 -0.00212612 3.67908e-24)
(0.0869117 -0.00195202 -3.24291e-24)
(0.0876169 -0.00179628 0)
(0.0882691 -0.00165675 -2.06626e-26)
(0.0888735 -0.00153149 0)
(0.0894347 -0.00141879 5.11243e-24)
(0.0899569 -0.00131716 -4.81047e-24)
(0.0904438 -0.00122533 3.5136e-25)
(0.0908986 -0.00114216 -1.1435e-26)
(0.0913241 -0.0010667 2.97997e-24)
(0.0917231 -0.00099811 -5.67636e-24)
(0.0920978 -0.000935676 3.06272e-24)
(0.0924503 -0.000878769 -1.60404e-24)
(0.0927824 -0.000826834 1.19417e-24)
(0.0930961 -0.000779358 3.99718e-25)
(-0.000345687 0.00123589 -2.68529e-21)
(-0.000338028 0.00100267 0)
(0.000757652 -0.000510452 2.58145e-21)
(0.00252145 -0.00276991 -5.06225e-21)
(0.00489979 -0.00531673 2.49782e-21)
(0.00777599 -0.00783976 1.02544e-21)
(0.0110575 -0.0101525 -1.07686e-21)
(0.014659 -0.0121484 8.64126e-22)
(0.0184998 -0.0137731 -1.63974e-21)
(0.0225049 -0.0150092 7.63219e-22)
(0.0266055 -0.0158651 1.00173e-23)
(0.0307394 -0.0163665 7.02994e-25)
(0.034852 -0.01655 6.54149e-24)
(0.038896 -0.016458 -3.32782e-22)
(0.042832 -0.0161351 3.22596e-22)
(0.0466282 -0.0156256 7.3999e-24)
(0.0502598 -0.0149713 -2.68709e-24)
(0.0537085 -0.0142109 1.27365e-22)
(0.0569625 -0.0133787 -1.26987e-22)
(0.0600147 -0.0125046 -1.49039e-24)
(0.0628629 -0.0116142 0)
(0.0655089 -0.0107282 2.65848e-25)
(0.0679576 -0.00986362 0)
(0.0702154 -0.0090333 4.8979e-25)
(0.0722925 -0.00824698 1.79853e-25)
(0.0741985 -0.00751104 1.38386e-25)
(0.0759459 -0.0068291 -9.9386e-24)
(0.0775455 -0.00620264 9.95594e-24)
(0.0790095 -0.0056314 0)
(0.0803493 -0.00511365 -4.47267e-24)
(0.081576 -0.00464669 4.7587e-24)
(0.0826999 -0.00422712 0)
(0.0837309 -0.00385117 -6.09466e-26)
(0.0846779 -0.00351488 -6.93222e-24)
(0.085549 -0.00321435 1.44203e-23)
(0.0863517 -0.00294578 -1.5486e-23)
(0.0870927 -0.00270562 1.6805e-23)
(0.0877781 -0.00249063 -1.79963e-23)
(0.088413 -0.00229786 9.27031e-24)
(0.0890025 -0.00212468 5.18567e-24)
(0.0895507 -0.00196877 -4.52063e-24)
(0.0900614 -0.00182813 -3.57199e-25)
(0.0905381 -0.00170097 -5.81152e-24)
(0.0909839 -0.00158578 1.25737e-23)
(0.0914014 -0.00148122 -6.01639e-24)
(0.0917931 -0.00138615 1.23972e-26)
(0.0921612 -0.00129959 3.91782e-25)
(0.0925077 -0.00122067 -9.83796e-27)
(0.0928344 -0.00114862 -4.04801e-25)
(0.093143 -0.00108269 8.27112e-25)
(-0.000224364 0.00107256 -2.38311e-24)
(0.000380245 0.000534289 -2.54089e-23)
(0.00241599 -0.00140776 -2.39306e-23)
(0.00509465 -0.00415339 -2.24399e-23)
(0.008279 -0.00717239 -4.0692e-23)
(0.0118057 -0.0101474 -1.0603e-24)
(0.0155593 -0.012879 1.67809e-23)
(0.0194599 -0.0152445 -1.61118e-23)
(0.0234448 -0.0171778 -1.44291e-23)
(0.0274615 -0.0186551 1.45661e-21)