/*--------------------------------*- C++ -*----------------------------------*\
| =========                 |                                                 |
| \\      /  F ield         | OpenFOAM: The Open Source CFD Toolbox           |
|  \\    /   O peration     | Version:  2412                                  |
|   \\  /    A nd           | Website:  www.openfoam.com                      |
|    \\/     M anipulation  |                                                 |
\*---------------------------------------------------------------------------*/
FoamFile
{
    version     2.0;
    format      ascii;
    arch        "LSB;label=32;scalar=64";
    class       volVectorField;
    location    "8.5";
    object      vorticity;
}
// * * * * * * * * * * * * * * * * * * * * * * * * * * * * * * * * * * * * * //

dimensions      [0 0 -1 0 0 0 0];

internalField   nonuniform List<vector> 
63420
(
(0 0 5.84314e-06)
(0 0 1.75779e-05)
(0 0 3.43404e-05)
(0 0 3.61349e-05)
(0 0 1.37616e-05)
(0 0 -2.23009e-05)
(0 0 -5.39521e-05)
(0 0 -6.97141e-05)
(0 0 -6.89075e-05)
(0 0 -5.75362e-05)
(0 0 -4.26144e-05)
(0 0 -2.89359e-05)
(0 0 -1.85505e-05)
(0 0 -1.16099e-05)
(0 0 -7.40127e-06)
(0 0 -5.04583e-06)
(0 0 -3.81866e-06)
(0 0 -3.22389e-06)
(0 0 -2.96043e-06)
(0 0 -2.86062e-06)
(0 0 -2.83729e-06)
(0 0 -2.84749e-06)
(0 0 -2.87105e-06)
(0 0 -2.89881e-06)
(0 0 -2.92683e-06)
(0 0 -2.95349e-06)
(0 0 -2.97814e-06)
(0 0 -3.00044e-06)
(0 0 -3.02011e-06)
(0 0 -3.03688e-06)
(0 0 -3.05048e-06)
(0 0 -3.06068e-06)
(0 0 -3.06733e-06)
(0 0 -3.0703e-06)
(0 0 -3.06948e-06)
(0 0 -3.06471e-06)
(0 0 -3.05577e-06)
(0 0 -3.04235e-06)
(0 0 -3.02411e-06)
(0 0 -3.00064e-06)
(0 0 -2.97153e-06)
(0 0 -2.93632e-06)
(0 0 -2.89451e-06)
(0 0 -2.84554e-06)
(0 0 -2.78874e-06)
(0 0 -2.72331e-06)
(0 0 -2.64836e-06)
(0 0 -2.56299e-06)
(0 0 -2.46622e-06)
(0 0 -2.35605e-06)
(0 0 -2.22394e-06)
(0 0 -2.0333e-06)
(0 0 -1.64495e-06)
(0 0 -5.79556e-07)
(0 4.77722e-23 2.69635e-06)
(0 0 1.75203e-05)
(0 0 5.23729e-05)
(0 0 0.000102349)
(0 0 0.000108075)
(0 0 4.20299e-05)
(0 0 -6.4867e-05)
(0 0 -0.000158918)
(0 0 -0.000205962)
(0 0 -0.000203865)
(0 0 -0.000170369)
(0 0 -0.000126265)
(0 0 -8.57847e-05)
(0 0 -5.50291e-05)
(0 0 -3.44652e-05)
(0 0 -2.199e-05)
(0 0 -1.50039e-05)
(0 0 -1.13608e-05)
(0 0 -9.59267e-06)
(0 0 -8.80805e-06)
(0 0 -8.51026e-06)
(0 0 -8.44066e-06)
(0 0 -8.47167e-06)
(0 0 -8.54311e-06)
(0 0 -8.62765e-06)
(0 0 -8.71334e-06)
(0 0 -8.79507e-06)
(0 0 -8.87064e-06)
(0 0 -8.93891e-06)
(0 0 -8.99915e-06)
(0 0 -9.05071e-06)
(0 0 -9.09298e-06)
(0 0 -9.1254e-06)
(0 0 -9.14745e-06)
(0 0 -9.15864e-06)
(0 0 -9.15846e-06)
(0 0 -9.14635e-06)
(0 0 -9.12163e-06)
(0 0 -9.08352e-06)
(0 0 -9.0311e-06)
(0 0 -8.96332e-06)
(0 0 -8.879e-06)
(0 0 -8.77679e-06)
(0 0 -8.65512e-06)
(0 0 -8.51215e-06)
(0 0 -8.34567e-06)
(0 0 -8.15313e-06)
(0 0 -7.93168e-06)
(0 0 -7.67848e-06)
(0 0 -7.39058e-06)
(0 0 -7.06205e-06)
(0 0 -6.66832e-06)
(0 0 -6.10366e-06)
(0 0 -4.96472e-06)
(0 0 -1.85873e-06)
(0 4.82429e-23 7.67956e-06)
(0 0 2.91605e-05)
(0 0 8.62245e-05)
(0 0 0.000168752)
(0 0 0.000179573)
(0 0 7.29214e-05)
(0 0 -0.000101325)
(0 0 -0.000255469)
(0 0 -0.000333307)
(0 0 -0.000330915)
(0 0 -0.000277018)
(0 0 -0.000205513)
(0 0 -0.000139698)
(0 0 -8.96144e-05)
(0 0 -5.60927e-05)
(0 0 -3.57411e-05)
(0 0 -2.43369e-05)
(0 0 -1.83867e-05)
(0 0 -1.54973e-05)
(0 0 -1.42145e-05)
(0 0 -1.37276e-05)
(0 0 -1.36142e-05)
(0 0 -1.36656e-05)
(0 0 -1.37834e-05)
(0 0 -1.39231e-05)
(0 0 -1.40649e-05)
(0 0 -1.42004e-05)
(0 0 -1.43258e-05)
(0 0 -1.44395e-05)
(0 0 -1.45401e-05)
(0 0 -1.46267e-05)
(0 0 -1.46983e-05)
(0 0 -1.47541e-05)
(0 0 -1.47933e-05)
(0 0 -1.4815e-05)
(0 0 -1.48183e-05)
(0 0 -1.48024e-05)
(0 0 -1.47661e-05)
(0 0 -1.47082e-05)
(0 0 -1.46272e-05)
(0 0 -1.45216e-05)
(0 0 -1.43894e-05)
(0 0 -1.42285e-05)
(0 0 -1.40363e-05)
(0 0 -1.38098e-05)
(0 0 -1.35453e-05)
(0 0 -1.32387e-05)
(0 0 -1.28855e-05)
(0 0 -1.24809e-05)
(0 0 -1.20205e-05)
(0 0 -1.14954e-05)
(0 0 -1.08686e-05)
(0 0 -9.9782e-06)
(0 0 -8.19989e-06)
(0 0 -3.3617e-06)
(0 2.84823e-22 1.15368e-05)
(0 0 4.07344e-05)
(0 0 0.00011856)
(0 0 0.000232588)
(0 0 0.000250418)
(0 0 0.000108122)
(0 0 -0.000127858)
(0 0 -0.000338389)
(0 0 -0.000446252)
(0 0 -0.000445185)
(0 0 -0.000373675)
(0 0 -0.000277649)
(0 0 -0.000188862)
(0 0 -0.00012113)
(0 0 -7.57212e-05)
(0 0 -4.81205e-05)
(0 0 -3.26403e-05)
(0 0 -2.45573e-05)
(0 0 -2.06299e-05)
(0 0 -1.88853e-05)
(0 0 -1.82229e-05)
(0 0 -1.80687e-05)
(0 0 -1.81393e-05)
(0 0 -1.83007e-05)
(0 0 -1.84921e-05)
(0 0 -1.86868e-05)
(0 0 -1.88734e-05)
(0 0 -1.90466e-05)
(0 0 -1.92041e-05)
(0 0 -1.93442e-05)
(0 0 -1.94656e-05)
(0 0 -1.95672e-05)
(0 0 -1.96478e-05)
(0 0 -1.97064e-05)
(0 0 -1.97417e-05)
(0 0 -1.97527e-05)
(0 0 -1.97381e-05)
(0 0 -1.96964e-05)
(0 0 -1.96261e-05)
(0 0 -1.95252e-05)
(0 0 -1.93916e-05)
(0 0 -1.92228e-05)
(0 0 -1.90159e-05)
(0 0 -1.87675e-05)
(0 0 -1.84736e-05)
(0 0 -1.81293e-05)
(0 0 -1.77291e-05)
(0 0 -1.72668e-05)
(0 0 -1.67365e-05)
(0 0 -1.61326e-05)
(0 0 -1.54448e-05)
(0 0 -1.46294e-05)
(0 0 -1.34895e-05)
(0 0 -1.12504e-05)
(0 0 -5.18131e-06)
(0 -1.87046e-22 1.36085e-05)
(0 0 5.22141e-05)
(0 0 0.00014888)
(0 0 0.000293048)
(0 0 0.00032045)
(0 0 0.000149113)
(0 0 -0.000141145)
(0 0 -0.000403161)
(0 0 -0.000540044)
(0 0 -0.000542464)
(0 0 -0.000457048)
(0 0 -0.000340319)
(0 0 -0.000231697)
(0 0 -0.00014854)
(0 0 -9.26632e-05)
(0 0 -5.8643e-05)
(0 0 -3.95378e-05)
(0 0 -2.95514e-05)
(0 0 -2.46943e-05)
(0 0 -2.25342e-05)
(0 0 -2.17126e-05)
(0 0 -2.15203e-05)
(0 0 -2.16065e-05)
(0 0 -2.18059e-05)
(0 0 -2.2043e-05)
(0 0 -2.22849e-05)
(0 0 -2.25171e-05)
(0 0 -2.27336e-05)
(0 0 -2.2931e-05)
(0 0 -2.31076e-05)
(0 0 -2.32617e-05)
(0 0 -2.33921e-05)
(0 0 -2.34973e-05)
(0 0 -2.3576e-05)
(0 0 -2.3627e-05)
(0 0 -2.36487e-05)
(0 0 -2.36397e-05)
(0 0 -2.35982e-05)
(0 0 -2.35223e-05)
(0 0 -2.34097e-05)
(0 0 -2.32578e-05)
(0 0 -2.30637e-05)
(0 0 -2.28238e-05)
(0 0 -2.2534e-05)
(0 0 -2.21894e-05)
(0 0 -2.17843e-05)
(0 0 -2.13118e-05)
(0 0 -2.07648e-05)
(0 0 -2.01361e-05)
(0 0 -1.94199e-05)
(0 0 -1.86064e-05)
(0 0 -1.76526e-05)
(0 0 -1.63545e-05)
(0 0 -1.38841e-05)
(0 0 -7.25529e-06)
(0 9.23426e-23 1.34482e-05)
(0 0 6.35661e-05)
(0 0 0.000176803)
(0 0 0.000349519)
(0 0 0.000389579)
(0 0 0.000197081)
(0 0 -0.000138582)
(0 0 -0.000446262)
(0 0 -0.000610992)
(0 0 -0.000619487)
(0 0 -0.000524583)
(0 0 -0.000391701)
(0 0 -0.000266974)
(0 0 -0.000171038)
(0 0 -0.000106376)
(0 0 -6.69203e-05)
(0 0 -4.47243e-05)
(0 0 -3.31049e-05)
(0 0 -2.74448e-05)
(0 0 -2.49225e-05)
(0 0 -2.39591e-05)
(0 0 -2.37296e-05)
(0 0 -2.38257e-05)
(0 0 -2.40544e-05)
(0 0 -2.43279e-05)
(0 0 -2.46078e-05)
(0 0 -2.48774e-05)
(0 0 -2.51292e-05)
(0 0 -2.53598e-05)
(0 0 -2.55669e-05)
(0 0 -2.57487e-05)
(0 0 -2.59039e-05)
(0 0 -2.60308e-05)
(0 0 -2.6128e-05)
(0 0 -2.61939e-05)
(0 0 -2.6227e-05)
(0 0 -2.62254e-05)
(0 0 -2.61874e-05)
(0 0 -2.61105e-05)
(0 0 -2.59924e-05)
(0 0 -2.583e-05)
(0 0 -2.56199e-05)
(0 0 -2.53582e-05)
(0 0 -2.50401e-05)
(0 0 -2.46602e-05)
(0 0 -2.42119e-05)
(0 0 -2.36875e-05)
(0 0 -2.30791e-05)
(0 0 -2.2379e-05)
(0 0 -2.15814e-05)
(0 0 -2.06793e-05)
(0 0 -1.96385e-05)
(0 0 -1.82806e-05)
(0 0 -1.58455e-05)
(0 0 -9.48925e-06)
(0 4.55628e-22 1.06576e-05)
(0 0 7.47762e-05)
(0 0 0.000202086)
(0 0 0.000401596)
(0 0 0.000457694)
(0 0 0.000252695)
(0 0 -0.000118615)
(0 0 -0.000465552)
(0 0 -0.000656827)
(0 0 -0.000674236)
(0 0 -0.000574696)
(0 0 -0.000430657)
(0 0 -0.000293923)
(0 0 -0.000188113)
(0 0 -0.000116517)
(0 0 -7.27063e-05)
(0 0 -4.80047e-05)
(0 0 -3.50474e-05)
(0 0 -2.87215e-05)
(0 0 -2.58932e-05)
(0 0 -2.48051e-05)
(0 0 -2.45375e-05)
(0 0 -2.46348e-05)
(0 0 -2.48813e-05)
(0 0 -2.51791e-05)
(0 0 -2.54851e-05)
(0 0 -2.57806e-05)
(0 0 -2.60575e-05)
(0 0 -2.63116e-05)
(0 0 -2.65407e-05)
(0 0 -2.67429e-05)
(0 0 -2.69165e-05)
(0 0 -2.706e-05)
(0 0 -2.71716e-05)
(0 0 -2.72499e-05)
(0 0 -2.7293e-05)
(0 0 -2.7299e-05)
(0 0 -2.72659e-05)
(0 0 -2.71911e-05)
(0 0 -2.7072e-05)
(0 0 -2.69053e-05)
(0 0 -2.66873e-05)
(0 0 -2.64137e-05)
(0 0 -2.60794e-05)
(0 0 -2.56784e-05)
(0 0 -2.52036e-05)
(0 0 -2.4647e-05)
(0 0 -2.4e-05)
(0 0 -2.32548e-05)
(0 0 -2.24064e-05)
(0 0 -2.1452e-05)
(0 0 -2.03733e-05)
(0 0 -1.90494e-05)
(0 0 -1.69262e-05)
(0 0 -1.18336e-05)
(0 -8.91658e-23 4.61695e-06)
(-1.52061e-23 8.01821e-21 5.91875e-07)
(-1.5432e-22 7.88137e-21 -7.36072e-07)
(3.64773e-23 -2.07006e-22 -2.83218e-06)
(3.38966e-23 -2.35464e-20 -5.94302e-06)
(-9.7565e-23 8.0551e-21 -1.03013e-05)
(3.86007e-22 7.91089e-21 -1.60928e-05)
(-8.33654e-22 2.30476e-20 -2.33923e-05)
(3.24895e-22 -2.34381e-20 -3.20846e-05)
(6.56495e-22 -7.53405e-21 -4.18282e-05)
(-9.43516e-22 -3.85043e-24 -5.20365e-05)
(-9.4622e-22 -7.5595e-21 -6.18998e-05)
(8.2972e-22 7.16824e-21 -7.04598e-05)
(5.72734e-22 -5.92031e-20 -7.67268e-05)
(-1.04594e-21 1.27218e-19 -7.98201e-05)
(3.47507e-22 -6.85221e-20 -7.91075e-05)
(-1.30974e-21 -5.1684e-20 -7.43748e-05)
(2.43562e-21 -6.5791e-20 -6.57999e-05)
(-1.93183e-21 7.78269e-21 -5.40676e-05)
(-2.06026e-22 -7.24968e-21 -3.99571e-05)
(8.46812e-23 7.26346e-21 -2.46393e-05)
(-3.28171e-24 -1.34228e-22 -9.29347e-06)
(-8.01945e-23 -7.01534e-21 4.89604e-06)
(-2.08549e-21 7.08823e-21 1.69257e-05)
(4.38284e-21 1.34267e-23 2.60212e-05)
(1.28875e-21 6.89546e-21 3.16597e-05)
(-3.41361e-21 -5.5645e-24 3.35506e-05)
(4.92224e-21 8.06304e-21 3.15887e-05)
(-5.66283e-21 1.04336e-19 2.5789e-05)
(6.06826e-22 -1.12079e-19 1.62159e-05)
(-2.11846e-21 1.02665e-19 2.91077e-06)
(2.0612e-21 -1.03861e-19 -1.41834e-05)
(5.05364e-23 1.39744e-21 -3.5315e-05)
(-6.58946e-23 -1.71865e-21 -6.10624e-05)
(2.76056e-21 -9.88711e-20 -9.2587e-05)
(-8.91555e-21 9.60195e-20 -0.000132122)
(-3.36111e-22 -1.61553e-21 -0.00018392)
(6.48703e-21 1.41878e-23 -0.000256039)
(7.07004e-21 1.54629e-23 -0.00036354)
(-7.04742e-21 -1.54134e-23 -0.000533928)
(-2.34247e-22 -5.12321e-25 -0.000815758)
(-2.44727e-22 -5.35241e-25 -0.00129122)
(-8.45085e-21 -1.84828e-23 -0.00209273)
(8.15691e-21 1.784e-23 -0.003422)
(-2.704e-22 1.61266e-22 -0.00556728)
(-1.77081e-23 8.34327e-21 -0.00891142)
(-2.6193e-20 5.39166e-20 -0.0139199)
(2.52222e-20 -7.11529e-20 -0.021094)
(-6.00369e-21 -1.01881e-20 -0.0308738)
(6.5952e-21 2.7806e-20 -0.0434819)
(-2.18102e-20 -6.09014e-21 -0.0586152)
(-2.67933e-22 8.03439e-21 1.72297e-06)
(-1.01502e-22 1.58e-20 -2.24614e-06)
(3.29386e-22 7.68359e-21 -8.53392e-06)
(-9.22115e-22 -7.89641e-21 -1.78735e-05)
(1.70997e-21 7.52211e-21 -3.09612e-05)
(-5.55814e-22 -5.39756e-20 -4.83487e-05)
(-1.76628e-22 8.57663e-20 -7.02403e-05)
(-6.3276e-23 -8.99415e-21 -9.63166e-05)
(2.21509e-21 -9.87848e-20 -0.000125589)
(-2.27276e-21 1.39615e-19 -0.000156345)
(-7.61025e-22 1.27505e-19 -0.000186214)
(5.5044e-22 -1.14826e-19 -0.000212388)
(-4.11547e-22 7.72712e-22 -0.000231964)
(2.92927e-21 -7.31064e-21 -0.000242355)
(-2.25552e-21 2.44319e-20 -0.00024173)
(-5.89771e-21 2.42002e-19 -0.000229388)
(1.34918e-21 -2.27824e-19 -0.000206099)
(-5.46325e-21 2.44233e-19 -0.000173463)
(-2.68449e-22 1.97055e-20 -0.00013417)
(-4.01537e-21 -7.42903e-21 -9.13146e-05)
(4.23525e-21 1.5147e-22 -4.8553e-05)
(-4.2354e-21 9.3064e-21 -9.38089e-06)
(1.54257e-21 2.13098e-19 2.32459e-05)
(5.18454e-21 -4.51912e-19 4.70335e-05)
(4.15952e-21 -2.16153e-19 6.04135e-05)
(-6.27313e-21 4.37573e-19 6.24881e-05)
(2.69693e-21 -4.37441e-19 5.28902e-05)
(-9.21473e-22 4.48997e-19 3.15944e-05)
(3.43704e-21 1.3651e-21 -1.29144e-06)
(-3.87802e-21 -1.016e-22 -4.57427e-05)
(-1.30285e-21 -2.84947e-24 -0.000102041)
(0 0 -0.00017105)
(1.92827e-22 1.00088e-22 -0.000254634)
(1.15528e-20 1.28135e-20 -0.000356431)
(-1.4965e-20 3.71072e-19 -0.000483334)
(-1.64189e-20 -2.44383e-20 -0.000648382)
(1.78771e-20 -3.66919e-19 -0.000876187)
(2.61191e-20 -3.18192e-19 -0.00121267)
(-8.05969e-21 3.4025e-19 -0.00174157)
(-3.2723e-20 2.18028e-21 -0.00261051)
(3.21801e-20 1.82069e-20 -0.00406897)
(-4.26474e-20 2.45518e-19 -0.00651826)
(2.22813e-20 -2.55579e-19 -0.0105685)
(-1.90989e-20 1.5488e-20 -0.0170903)
(2.12374e-20 8.28566e-21 -0.0272383)
(-6.29136e-20 1.2051e-19 -0.0424148)
(6.28626e-20 -1.17922e-19 -0.0641269)
(-9.80419e-20 8.87434e-20 -0.0936774)
(9.45941e-20 -9.91212e-20 -0.131663)
(-2.01158e-20 -6.81759e-22 -0.175694)
(-6.37264e-27 4.75673e-20 2.69967e-06)
(-7.8763e-23 1.50153e-20 -3.96424e-06)
(3.47826e-22 -6.22826e-20 -1.45494e-05)
(-7.22416e-22 1.23969e-19 -3.02436e-05)
(1.60918e-21 -2.65563e-19 -5.21857e-05)
(5.38148e-22 1.26382e-19 -8.126e-05)
(-2.57706e-21 -9.18069e-22 -0.000117812)
(1.62924e-21 -1.72606e-20 -0.000161364)
(1.24041e-21 -2.59384e-19 -0.000210376)
(1.09488e-21 2.47333e-19 -0.000262145)
(-9.04085e-22 -1.71503e-21 -0.000312917)
(-4.42586e-21 -1.6214e-23 -0.000358232)
(7.03221e-21 -1.94588e-21 -0.00039347)
(-4.6664e-21 -2.53546e-19 -0.000414512)
(5.87639e-21 2.30731e-19 -0.000418428)
(-1.09323e-20 4.58469e-19 -0.000404179)
(-5.22754e-21 -1.25434e-20 -0.000372828)
(-3.75573e-21 4.72131e-19 -0.00032724)
(3.96054e-22 -1.43439e-20 -0.000271353)
(-1.15746e-20 4.59468e-19 -0.000210347)
(1.14365e-20 -4.77345e-19 -0.000150045)
(-8.07543e-21 4.56727e-19 -9.60794e-05)
(8.97039e-22 -4.7522e-19 -5.32412e-05)
(5.4279e-21 -9.33762e-21 -2.52945e-05)
(-2.65895e-21 1.3956e-20 -1.48776e-05)
(5.75103e-21 -8.85863e-21 -2.3596e-05)
(-1.79926e-20 4.30451e-19 -5.22462e-05)
(1.59501e-20 -4.59241e-19 -0.000101119)
(1.73871e-20 -4.27247e-19 -0.000170336)
(-1.39859e-20 4.29643e-19 -0.000260194)
(-1.13716e-21 -5.42872e-21 -0.000371534)
(1.17822e-20 -1.27523e-22 -0.000506198)
(-1.35666e-20 -2.57735e-20 -0.000667739)
(5.1195e-20 -7.8676e-19 -0.000862726)
(1.73525e-20 5.72226e-20 -0.00110329)
(-6.90149e-20 7.42286e-19 -0.00141203)
(4.17868e-21 -1.29941e-20 -0.00183135)
(-1.19863e-20 -5.36892e-21 -0.00244005)
(1.10276e-19 -6.28345e-19 -0.00338148)
(-2.04627e-19 1.23656e-18 -0.00490785)
(2.08938e-19 -1.23327e-18 -0.00744441)
(7.61323e-20 8.81121e-20 -0.0116734)
(-1.61076e-19 5.42954e-19 -0.0186295)
(-1.71233e-19 3.76906e-19 -0.0297857)
(1.61372e-19 -4.4742e-19 -0.0470938)
(-2.3879e-20 2.08331e-20 -0.0729251)
(5.90491e-20 -1.86759e-20 -0.109828)
(1.76735e-19 -1.10033e-19 -0.159968)
(-1.91367e-19 1.71851e-19 -0.224142)
(-2.7211e-20 -4.40926e-20 -0.293472)
(3.92921e-22 -3.13592e-20 3.34956e-06)
(-3.71953e-22 1.58735e-20 -6.23518e-06)
(7.3721e-22 -1.82004e-22 -2.14734e-05)
(-6.71304e-22 -1.56155e-20 -4.39216e-05)
(-1.02641e-21 -1.5312e-21 -7.50783e-05)
(3.19717e-21 -2.45102e-19 -0.000116122)
(-4.32107e-21 4.64494e-19 -0.000167559)
(2.06566e-21 -2.50278e-19 -0.000228832)
(-1.90332e-21 1.50857e-20 -0.000297997)
(4.64321e-21 -2.74078e-19 -0.000371583)
(-5.74505e-21 2.50412e-19 -0.000444728)
(-3.29865e-21 4.77564e-19 -0.000511633)
(9.21721e-21 -9.6706e-19 -0.000566275)
(-1.13228e-20 9.66623e-19 -0.000603277)
(1.55559e-20 -9.62616e-19 -0.000618813)
(-9.12419e-21 9.55035e-19 -0.000611519)
(-8.91893e-21 4.85403e-19 -0.000582897)
(-7.31053e-22 -3.98124e-21 -0.000536612)
(4.75724e-21 4.1259e-21 -0.000477953)
(-6.15431e-21 4.49257e-19 -0.000413745)
(-4.03128e-21 -4.72116e-19 -0.000351732)
(1.55927e-20 1.34337e-20 -0.000299442)
(-3.10144e-20 9.08421e-19 -0.000263355)
(2.2471e-20 -9.12023e-19 -0.000248665)
(2.32957e-21 -5.17386e-21 -0.000259163)
(-1.0293e-20 -8.75856e-23 -0.000297366)
(1.55258e-20 -1.38261e-20 -0.00036481)
(-5.07313e-21 1.30103e-22 -0.000462458)
(-5.5952e-21 -5.80583e-23 -0.000591144)
(5.30593e-21 2.06401e-22 -0.000752036)
(-3.82731e-21 1.16675e-21 -0.000947139)
(6.0583e-20 -8.14011e-19 -0.00117993)
(-5.43771e-20 8.37757e-19 -0.00145635)
(-1.68786e-20 -4.61483e-23 -0.0017867)
(1.95744e-20 -1.03455e-20 -0.00218924)
(-9.71085e-20 7.52392e-19 -0.00269732)
(1.14889e-19 -7.56285e-19 -0.00337279)
(-2.41911e-20 2.51622e-21 -0.00433)
(1.70479e-20 -7.86427e-23 -0.00577648)
(4.04986e-20 7.08435e-21 -0.00807674)
(-2.55084e-19 5.712e-19 -0.0118444)
(3.7439e-19 -1.16098e-18 -0.0180623)
(-1.82704e-19 5.89432e-19 -0.0282184)
(2.72681e-19 -4.54301e-19 -0.0444311)
(-2.63236e-19 5.36252e-19 -0.0695159)
(-6.25461e-19 5.56152e-19 -0.106922)
(1.18419e-18 -1.18235e-18 -0.160407)
(-5.81928e-19 5.9886e-19 -0.233168)
(2.02668e-20 -2.40538e-21 -0.326022)
(4.9148e-21 -3.76863e-20 -0.415401)
(-7.61575e-22 1.59613e-20 3.51045e-06)
(-2.05701e-22 6.10082e-20 -9.69884e-06)
(1.83468e-21 -1.85407e-19 -3.05144e-05)
(-1.03348e-21 2.48964e-19 -6.0645e-05)
(-4.45828e-22 -1.10332e-19 -0.00010182)
(9.75306e-23 -1.47039e-20 -0.000155477)
(-4.79137e-22 1.55504e-20 -0.000222319)
(3.20509e-21 -1.98269e-22 -0.000301824)
(-3.08073e-21 -1.51954e-20 -0.000391846)
(-5.48927e-21 3.4272e-20 -0.000488435)
(-6.19382e-21 4.85793e-19 -0.000585985)
(1.82753e-20 -5.05091e-19 -0.00067776)
(-2.26678e-20 4.7157e-19 -0.000756744)
(1.85892e-20 -4.90689e-19 -0.000816655)
(-3.17623e-21 3.59237e-21 -0.000853025)
(1.15889e-20 5.11387e-23 -0.000864292)
(4.41437e-21 3.91897e-21 -0.00085231)
(-3.41224e-21 4.59388e-19 -0.000821491)
(1.90554e-20 -4.97442e-19 -0.000778139)
(6.74509e-21 2.78158e-20 -0.000730458)
(-4.2933e-20 9.49375e-19 -0.000687833)
(2.54476e-20 -9.52705e-19 -0.000659452)
(1.07921e-20 2.33278e-20 -0.000653372)
(-1.90001e-20 -2.45596e-22 -0.000676253)
(1.24328e-20 1.01427e-20 -0.000733239)
(-3.4581e-20 9.16727e-19 -0.000828112)
(2.76066e-20 -9.08702e-19 -0.00096366)
(2.98599e-21 1.01268e-20 -0.00114216)
(1.02598e-20 2.7911e-20 -0.00136592)
(-1.21181e-20 -5.78604e-22 -0.00163785)
(1.1398e-21 -1.33802e-20 -0.00196208)
(-3.92012e-20 1.36005e-20 -0.00234476)
(3.71151e-20 1.2979e-20 -0.00279536)
(-3.44059e-21 -2.63507e-20 -0.0033291)
(7.83917e-20 -7.64153e-19 -0.00397164)
(-6.86727e-20 7.87506e-19 -0.00476841)
(2.65097e-19 -1.52134e-18 -0.00580226)
(-2.41227e-19 1.53632e-18 -0.00722527)
(3.03309e-19 -1.44464e-18 -0.00931272)
(7.63077e-20 1.35354e-19 -0.0125482)
(-3.51496e-19 1.37941e-18 -0.0177465)
(-1.28868e-19 -2.37831e-20 -0.0262142)
(1.7507e-20 3.84361e-22 -0.0399342)
(-1.97403e-20 5.73197e-22 -0.0617434)
(5.826e-20 1.76361e-21 -0.0954591)
(2.8316e-20 1.44639e-20 -0.145886)
(-1.21725e-19 5.47856e-21 -0.218536)
(6.93884e-20 5.34388e-21 -0.318508)
(-1.78192e-22 -3.34517e-22 -0.447168)
(3.87704e-20 6.89798e-22 -0.552545)
(-6.16032e-22 7.68359e-20 2.76131e-06)
(1.67264e-21 -4.68883e-20 -1.59185e-05)
(-1.79991e-21 -1.65872e-20 -4.43056e-05)
(4.5233e-21 -2.29699e-19 -8.38459e-05)
(-1.99371e-21 2.31663e-19 -0.000136468)
(1.68729e-21 -2.2926e-19 -0.000203889)
(-1.05741e-20 5.05665e-19 -0.000287087)
(1.07008e-20 -7.08612e-19 -0.000385733)
(-6.80517e-21 5.0151e-19 -0.000497725)
(-4.97769e-21 4.88667e-19 -0.000618974)
(-2.16463e-21 3.69453e-21 -0.000743553)
(2.29266e-20 -9.60406e-19 -0.000864263)
(-1.92744e-20 1.00034e-18 -0.000973562)
(3.81768e-21 -4.71109e-19 -0.00106469)
(1.08023e-20 -4.73367e-19 -0.00113284)
(2.13152e-20 -4.66074e-19 -0.00117638)
(-2.96599e-21 7.10745e-21 -0.00119749)
(3.57098e-20 -9.67181e-19 -0.0012013)
(2.59427e-20 -9.29115e-19 -0.00119485)
(6.61837e-21 2.14795e-20 -0.00118748)
(-2.2332e-20 9.65958e-19 -0.00118999)
(-2.11989e-20 -8.51366e-21 -0.00121309)
(1.29413e-20 9.4171e-21 -0.0012664)
(-4.66615e-20 9.37909e-19 -0.00135824)
(3.67405e-20 -9.53661e-19 -0.0014955)
(6.94137e-20 -9.16487e-19 -0.00168381)
(-7.06934e-20 9.47591e-19 -0.00192798)
(1.58636e-20 -2.10633e-20 -0.00223256)
(6.31782e-20 -9.16712e-19 -0.00260248)
(-9.23592e-20 9.40736e-19 -0.00304368)
(4.60477e-21 1.30236e-20 -0.00356386)
(-2.00079e-19 1.72772e-18 -0.00417346)
(1.78964e-19 -1.79375e-18 -0.00488719)
(5.13025e-20 6.51337e-20 -0.0057269)
(-2.60593e-19 1.64208e-18 -0.00672723)
(2.36848e-19 -1.71351e-18 -0.00794688)
(-3.348e-20 -3.61864e-21 -0.00949015)
(4.7386e-19 -1.55181e-18 -0.0115462)
(-4.4206e-19 1.60406e-18 -0.0144567)
(-7.09099e-20 -7.68631e-20 -0.0188234)
(6.94455e-19 -1.36319e-18 -0.0256664)
(-1.21717e-18 2.81971e-18 -0.0366329)
(-7.40395e-20 -1.59404e-19 -0.0542432)
(-9.96395e-20 -1.24072e-19 -0.0821456)
(8.02615e-19 -1.23889e-18 -0.125353)
(4.25189e-20 6.77555e-20 -0.190476)
(-9.29247e-19 8.32276e-19 -0.285962)
(9.1084e-19 -9.15656e-19 -0.421769)
(1.04888e-20 3.11783e-20 -0.604798)
(1.01865e-20 -2.96139e-21 -0.732249)
(6.15619e-22 -1.60468e-20 4.47056e-07)
(1.48566e-21 -1.36517e-19 -2.86633e-05)
(-1.64615e-21 1.23197e-19 -6.77823e-05)
(-1.3845e-21 -1.74544e-20 -0.000118972)
(5.10656e-21 -2.2834e-19 -0.00018451)
(-4.6679e-21 2.35148e-19 -0.000266543)
(-4.91389e-21 4.74745e-19 -0.000366407)
(-5.37742e-21 -1.96329e-20 -0.000484092)
(2.43954e-21 -4.6175e-21 -0.000617745)
(1.38002e-20 -5.06482e-19 -0.000763435)
(-1.08046e-20 4.74201e-19 -0.00091529)
(1.51186e-20 -1.00374e-18 -0.00106607)
(-2.4269e-21 5.02135e-19 -0.00120815)
(-3.92384e-21 -1.90504e-20 -0.00133464)
(-5.21366e-21 -2.29239e-20 -0.00144065)
(2.48181e-20 -9.86703e-19 -0.00152444)
(-1.36502e-21 -1.99343e-20 -0.00158829)
(2.31012e-20 -1.00556e-18 -0.00163769)
(-5.79343e-21 -7.50766e-21 -0.0016802)
(-1.75542e-22 1.25929e-22 -0.00172557)
(1.20726e-20 8.89399e-21 -0.00178528)
(-4.83462e-20 9.70151e-19 -0.00187075)
(4.22689e-20 -9.91607e-19 -0.00199238)
(1.34636e-20 8.79348e-21 -0.0021593)
(-9.29746e-21 -1.52267e-20 -0.00237917)
(-6.5011e-21 1.04378e-20 -0.00265834)
(-6.9221e-20 9.40016e-19 -0.0030022)
(1.49733e-19 -1.9199e-18 -0.00341567)
(-7.03321e-20 1.00296e-18 -0.00390372)
(-1.82315e-19 1.85994e-18 -0.00447178)
(-3.12488e-20 -4.51459e-20 -0.00512626)
(3.68931e-21 -2.49924e-20 -0.00587509)
(-6.87411e-20 -5.37498e-20 -0.00672872)
(2.49729e-19 -1.86631e-18 -0.00770229)
(3.95163e-19 -1.73036e-18 -0.00882053)
(-3.49861e-19 1.81813e-18 -0.0101285)
(-3.60038e-20 -5.82408e-20 -0.0117134)
(4.70166e-19 -1.66324e-18 -0.013747)
(-4.10714e-19 1.76418e-18 -0.0165612)
(-6.76673e-19 1.57085e-18 -0.0207749)
(5.7009e-19 -1.66135e-18 -0.0274877)
(8.32548e-20 -1.19739e-20 -0.0385495)
(8.99309e-19 -1.4819e-18 -0.0568964)
(1.35944e-19 1.2342e-19 -0.0869248)
(-1.04926e-18 1.45809e-18 -0.134885)
(-1.76665e-20 -4.25535e-20 -0.209358)
(3.61189e-20 5.66567e-22 -0.322583)
(-3.68816e-20 1.63585e-20 -0.495646)
(-5.53097e-19 5.79173e-19 -0.768764)
(5.44239e-19 -5.88596e-19 -1.06413)
(-9.97629e-21 -2.82119e-21 0.00661754)
(-8.87636e-21 4.88414e-22 -0.00160909)
(8.2814e-21 7.85402e-21 -0.00824555)
(-7.99357e-21 -4.02055e-21 -0.013391)
(8.45178e-21 -4.05129e-21 -0.0171735)
(-1.6525e-22 2.49933e-21 -0.0197455)
(-1.26299e-22 -7.52391e-23 -0.0212671)
(-3.57378e-21 7.81621e-24 -0.0219038)
(3.46764e-21 -7.58408e-24 -0.0218203)
(-9.04403e-23 1.97802e-25 -0.0211714)
(-7.74735e-23 1.69442e-25 -0.0200985)
(1.84415e-21 -4.03334e-24 -0.0187271)
(-1.85008e-21 4.04631e-24 -0.0171652)
(-1.21008e-21 2.64657e-24 -0.0155031)
(2.69538e-22 -1.85282e-22 -0.0138141)
(3.99589e-21 5.32198e-20 -0.0121556)
(-2.72972e-21 -4.94425e-20 -0.010571)
(-9.13677e-24 -1.74931e-22 -0.00909097)
(-1.58029e-24 4.36984e-23 -0.00773601)
(-2.31158e-21 -7.26206e-20 -0.00651761)
(2.31902e-21 7.26927e-20 -0.00543966)
(-1.69243e-21 -7.56821e-20 -0.00450039)
(2.52066e-22 5.17211e-21 -0.00369283)
(-3.71853e-23 8.32309e-25 -0.00300788)
(1.96102e-22 5.59784e-21 -0.00243464)
(-6.55288e-24 -8.01626e-26 -0.00196273)
(9.40601e-24 -2.05719e-26 -0.00157743)
(-5.03676e-24 1.73463e-25 -0.00126578)
(1.32761e-22 6.24689e-21 -0.00101595)
(-2.98155e-25 -6.50727e-26 -0.000817079)
(-1.0922e-22 -6.49961e-21 -0.000659561)
(9.83428e-23 6.61164e-21 -0.000535086)
(-7.46809e-23 -6.72026e-21 -0.00043666)
(3.67291e-22 6.15808e-20 -0.000358533)
(-3.78859e-22 -6.17682e-20 -0.000296074)
(-2.08347e-22 -4.91481e-20 -0.000245634)
(4.67986e-22 1.05894e-19 -0.000204387)
(-2.55511e-22 -5.68279e-20 -0.000170178)
(-7.53523e-23 -7.21678e-21 -0.00014139)
(6.87509e-23 7.27157e-21 -0.00011682)
(2.09661e-23 -2.37724e-25 -9.55775e-05)
(1.33591e-23 7.40315e-21 -7.70068e-05)
(-1.22728e-22 -3.73349e-20 -6.06189e-05)
(1.306e-22 3.74395e-20 -4.60451e-05)
(-4.95504e-23 -7.55449e-21 -3.29993e-05)
(6.20862e-23 2.28515e-20 -2.12494e-05)
(-1.63012e-23 -7.6122e-21 -1.05933e-05)
(-4.59267e-23 -1.54201e-20 -8.3373e-07)
(2.01518e-23 7.72956e-21 8.24696e-06)
(-1.82783e-23 -7.78772e-21 1.6892e-05)
(-1.46062e-20 2.32324e-20 0.0184599)
(1.83083e-20 -1.48506e-20 -0.0061213)
(-1.29142e-20 -1.47093e-20 -0.0258661)
(-5.87384e-21 5.96668e-21 -0.0410067)
(5.24398e-21 -5.01445e-21 -0.0519968)
(-9.58457e-21 5.5936e-21 -0.0593476)
(7.80527e-21 2.97781e-21 -0.0635699)
(-2.1266e-20 -5.40909e-20 -0.0651879)
(2.80978e-20 4.49477e-20 -0.0647044)
(-1.40506e-20 1.28502e-21 -0.0625865)
(9.40617e-21 -5.4322e-21 -0.0592566)
(3.17908e-20 1.32835e-19 -0.0550857)
(-3.73659e-20 -1.27815e-19 -0.05039)
(-3.63096e-20 -1.77936e-19 -0.0454315)
(3.43195e-21 -2.40324e-20 -0.0404208)
(3.50676e-20 1.98286e-19 -0.0355219)
(-1.9771e-21 -2.49705e-21 -0.0308568)
(-1.28714e-21 -7.95902e-21 -0.0265117)
(1.90987e-24 -1.70177e-23 -0.0225426)
(4.07406e-23 -8.91038e-26 -0.0189797)
(1.35472e-22 7.26198e-25 -0.0158327)
(-4.10107e-22 -5.01216e-21 -0.0130935)
(2.00874e-20 3.25436e-19 -0.0107411)
(-2.21279e-20 -3.52657e-19 -0.00875184)
(1.75911e-20 3.60557e-19 -0.00708451)
(-9.72167e-21 -1.78242e-19 -0.00571049)
(-1.54584e-20 -3.82715e-19 -0.00458962)
(7.35428e-21 1.94093e-19 -0.00368365)
(-1.1958e-22 -6.27354e-21 -0.0029577)
(-4.99146e-22 -1.2836e-20 -0.00237998)
(1.30831e-22 6.51903e-21 -0.00192236)
(-4.9517e-22 -1.99321e-20 -0.00156064)
(3.93855e-21 2.10122e-19 -0.00127448)
(-8.16897e-21 -4.43811e-19 -0.00104716)
(3.65257e-21 2.13176e-19 -0.000865256)
(-3.06838e-22 -2.09852e-20 -0.0007182)
(1.86985e-23 7.07005e-21 -0.000597802)
(7.08821e-24 2.37626e-23 -0.000497833)
(-1.42097e-21 -1.23078e-19 -0.000413614)
(1.21201e-21 1.08726e-19 -0.000341664)
(9.46116e-22 1.03128e-19 -0.00027941)
(-1.35355e-21 -1.40151e-19 -0.000224948)
(5.33538e-23 7.41031e-21 -0.000176862)
(2.42218e-22 3.76658e-20 -0.000134082)
(-5.16233e-22 -6.78152e-20 -9.57738e-05)
(-9.45385e-23 -7.60033e-21 -6.12625e-05)
(-3.05649e-22 -5.35743e-20 -2.99553e-05)
(-8.86614e-23 -7.82512e-21 -1.26725e-06)
(1.00667e-22 1.53714e-20 2.54711e-05)
(1.13046e-22 2.32927e-20 5.10764e-05)
(-1.46989e-20 -5.61439e-22 0.025613)
(4.78068e-21 -4.47735e-21 -0.0148392)
(1.62463e-20 1.73594e-20 -0.0470682)
(-4.02573e-20 -1.20097e-20 -0.0712568)
(1.62324e-20 9.0213e-21 -0.0883432)
(-5.09594e-20 -7.01446e-20 -0.0993484)
(5.96053e-20 4.44928e-20 -0.105259)
(1.05196e-19 1.39585e-19 -0.107008)
(-1.1401e-20 6.22628e-20 -0.105457)
(-2.08694e-19 -3.82966e-19 -0.101388)
(2.3741e-19 4.53081e-19 -0.0954956)
(-1.21904e-19 -2.34511e-19 -0.0883753)
(7.84268e-22 -1.0314e-20 -0.0805272)
(-1.46841e-21 -2.37044e-21 -0.0723587)
(1.23496e-19 4.30804e-19 -0.0641915)
(-8.28263e-21 3.75244e-20 -0.0562714)
(-1.12265e-19 -4.5825e-19 -0.0487783)
(4.89321e-21 1.46707e-20 -0.0418356)
(-1.23226e-21 4.39034e-23 -0.0355204)
(1.84159e-23 -1.8497e-22 -0.0298712)
(4.17927e-20 3.21201e-19 -0.0248946)
(-4.04262e-20 -3.10772e-19 -0.0205725)
(-3.44525e-20 -3.38573e-19 -0.016872)
(3.63445e-20 3.60362e-19 -0.0137417)
(1.13971e-21 1.1645e-20 -0.0111352)
(-1.04346e-21 -1.18942e-20 -0.00897814)
(8.45155e-22 1.22127e-20 -0.00722125)
(-2.12262e-20 -3.89395e-19 -0.00580235)
(2.22228e-20 4.02383e-19 -0.00466583)
(-1.71664e-20 -3.91658e-19 -0.00376136)
(1.83939e-20 4.18059e-19 -0.00304462)
(4.02329e-22 1.33354e-20 -0.00247759)
(1.36489e-20 4.36824e-19 -0.00202839)
(-2.60679e-20 -8.65811e-19 -0.00167091)
(1.31166e-20 4.56574e-19 -0.00138418)
(5.44815e-21 2.40173e-19 -0.00115175)
(-4.7914e-21 -2.12064e-19 -0.000960886)
(-1.74015e-22 -3.10379e-23 -0.000801912)
(6.79464e-24 -2.04471e-23 -0.000667575)
(3.45094e-23 -5.11053e-23 -0.000552485)
(3.4367e-21 2.35846e-19 -0.000452657)
(-3.40447e-21 -2.21277e-19 -0.000365145)
(1.84549e-22 1.48602e-20 -0.000287754)
(4.2241e-23 -3.84882e-23 -0.000218817)
(1.24952e-21 1.20979e-19 -0.000157036)
(-2.44614e-21 -2.27519e-19 -0.000101348)
(1.23823e-21 1.21711e-19 -5.08124e-05)
(-6.21273e-22 -6.14171e-20 -4.47246e-06)
(4.56046e-22 4.60356e-20 3.88422e-05)
(1.14438e-22 1.54326e-20 8.07867e-05)
(1.50784e-21 2.6433e-20 0.0239602)
(8.63584e-21 -5.19142e-20 -0.0314926)
(2.47709e-20 8.37701e-20 -0.0748996)
(-1.16143e-19 -1.09887e-19 -0.106263)
(1.06917e-19 1.84067e-20 -0.127419)
(8.6332e-20 1.30139e-19 -0.140181)
(-1.04682e-19 -9.80757e-20 -0.146136)
(1.24259e-19 1.7743e-19 -0.146678)
(-2.84699e-19 -3.8619e-19 -0.143042)
(1.81499e-19 1.9626e-19 -0.136315)
(-1.26529e-20 1.23116e-20 -0.127427)
(-7.18138e-21 7.8155e-22 -0.117162)
(1.03404e-20 8.59608e-21 -0.106159)
(-1.80302e-19 -4.34414e-19 -0.0949263)
(1.68914e-19 4.14823e-19 -0.0838578)
(1.47371e-21 1.84355e-20 -0.0732449)
(-5.61084e-23 -9.1504e-21 -0.0632947)
(1.43796e-19 5.77797e-19 -0.0541432)
(-1.44024e-19 -5.75135e-19 -0.0458691)
(-1.95161e-21 -1.1212e-20 -0.0385039)
(-1.75043e-22 -1.63541e-23 -0.0320422)
(6.08706e-22 2.61017e-22 -0.0264484)
(7.53108e-23 -2.60982e-24 -0.0216732)
(1.23144e-21 1.15651e-20 -0.0176499)
(6.97385e-22 1.73746e-22 -0.0143017)
(1.04175e-21 1.21487e-20 -0.0115428)
(-6.90669e-20 -8.14812e-19 -0.00929379)
(6.84517e-20 8.02749e-19 -0.00747947)
(-1.97656e-22 1.43234e-22 -0.00602696)
(-2.51351e-20 -4.23775e-19 -0.00487097)
(2.64029e-20 4.37354e-19 -0.00395438)
(-8.41636e-23 4.79574e-23 -0.00322837)
(-1.43697e-22 1.23802e-23 -0.00265213)
(-1.80274e-20 -4.60361e-19 -0.00219235)
(3.43466e-20 9.11662e-19 -0.00182238)
(-3.10328e-20 -9.06409e-19 -0.0015213)
(2.85351e-20 9.14662e-19 -0.00127302)
(-2.61347e-20 -9.22168e-19 -0.00106532)
(1.2399e-20 4.62814e-19 -0.000889066)
(5.47677e-21 2.34882e-19 -0.000737479)
(-4.79938e-21 -2.05351e-19 -0.000605553)
(-2.91407e-22 -1.48131e-20 -0.000489584)
(-4.24537e-21 -2.39091e-19 -0.000386808)
(8.88641e-21 5.09287e-19 -0.00029512)
(-4.14047e-21 -2.40232e-19 -0.000212868)
(8.54608e-23 -4.98891e-23 -0.00013869)
(2.18808e-22 1.51897e-20 -7.13572e-05)
(-8.91205e-23 -2.93593e-24 -9.5728e-06)
(-1.58249e-22 -1.53242e-20 4.83972e-05)
(3.53001e-22 3.07538e-20 0.00010544)
(2.69665e-20 6.41166e-23 0.00891686)
(-1.14189e-22 1.63159e-23 -0.0610934)
(-5.90896e-20 -3.3194e-22 -0.113172)
(8.3127e-20 -1.46903e-21 -0.14843)
(-2.70347e-20 -2.94721e-21 -0.170532)
(-3.65061e-20 -1.11982e-21 -0.182343)
(1.48325e-20 2.31925e-21 -0.186133)
(-8.77764e-21 -3.40453e-21 -0.183772)
(6.09417e-20 -1.91331e-20 -0.176832)
(3.7996e-19 6.30063e-19 -0.166643)
(-3.84446e-22 1.01524e-19 -0.154307)
(-4.13869e-19 -7.34112e-19 -0.140726)
(4.23405e-19 8.72093e-19 -0.126614)