/*--------------------------------*- C++ -*----------------------------------*\
| =========                 |                                                 |
| \\      /  F ield         | OpenFOAM: The Open Source CFD Toolbox           |
|  \\    /   O peration     | Version:  2412                                  |
|   \\  /    A nd           | Website:  www.openfoam.com                      |
|    \\/     M anipulation  |                                                 |
\*---------------------------------------------------------------------------*/
FoamFile
{
    version     2.0;
    format      ascii;
    arch        "LSB;label=32;scalar=64";
    class       volVectorField;
    location    "25";
    object      U;
}
// * * * * * * * * * * * * * * * * * * * * * * * * * * * * * * * * * * * * * //

dimensions      [0 1 -1 0 0 0 0];

internalField   nonuniform List<vector> 
5285
(
(0.0891928 0.000248928 5.13688e-23)
(0.0887068 0.000265688 -5.88437e-24)
(0.0881891 0.000283988 6.01383e-24)
(0.0876366 0.00030401 -6.15067e-24)
(0.0870462 0.000325966 0)
(0.0864142 0.000350101 6.44888e-24)
(0.0857365 0.000376696 -6.61153e-24)
(0.0850084 0.000406079 0)
(0.0842247 0.000438635 -6.96769e-24)
(0.0833792 0.000474814 0)
(0.0824652 0.00051515 -7.37083e-24)
(0.0814746 0.000560276 -1.23526e-22)
(0.0803985 0.00061095 1.31166e-22)
(0.0792261 0.000668085 -1.31659e-22)
(0.0779451 0.000732784 1.31458e-22)
(0.0765411 0.000806391 0)
(0.0749969 0.000890549 0)
(0.0732923 0.000987268 1.61038e-22)
(0.071403 0.00109901 -1.51519e-22)
(0.0693 0.00122876 0)
(0.0669488 0.00138008 0)
(0.0643078 0.00155712 0)
(0.0613279 0.00176442 0)
(0.0579517 0.0020065 0)
(0.0541144 0.00228692 0)
(0.0497464 0.00260652 0)
(0.04478 0.00296049 0)
(0.0391625 0.0033337 0)
(0.0328803 0.00369377 -1.48005e-23)
(0.025997 0.00398112 -5.07521e-22)
(0.018696 0.00409691 5.0676e-22)
(0.0113509 0.00389031 5.50255e-22)
(0.00485704 0.00312982 -5.4943e-22)
(0.000989518 0.00145386 0)
(0.089211 0.000745816 1.8096e-22)
(0.0887264 0.00079603 -1.92365e-22)
(0.0882101 0.000850858 -1.80676e-23)
(0.0876594 0.000910852 6.16416e-24)
(0.087071 0.000976645 0)
(0.0864413 0.00104897 -6.46558e-24)
(0.0857661 0.00112867 -2.08399e-22)
(0.085041 0.00121673 4.35526e-22)
(0.0842607 0.0013143 2.40309e-22)
(0.0834192 0.00142273 -4.53203e-22)
(0.0825097 0.00154362 4.88111e-22)
(0.0815246 0.00167886 -4.95295e-22)
(0.0804549 0.00183072 -7.86029e-24)
(0.0792902 0.00200193 0)
(0.0780184 0.00219579 0)
(0.0766254 0.0024163 0)
(0.0750947 0.00266836 0)
(0.0734067 0.00295795 -9.33405e-24)
(0.0715381 0.00329239 -6.32731e-22)
(0.0694611 0.00368052 -2.65408e-23)
(0.0671426 0.00413291 6.57557e-22)
(0.0645433 0.00466177 7.15534e-22)
(0.0616164 0.00528046 -7.14586e-22)
(0.0583077 0.00600216 -2.37144e-23)
(0.0545557 0.00683704 -2.47567e-23)
(0.0502941 0.00778707 -8.5278e-22)
(0.045457 0.00883718 8.24702e-22)
(0.0399909 0.00994157 -2.80668e-23)
(0.0338741 0.0110031 1.49039e-23)
(0.0271509 0.0118439 -1.03205e-21)
(0.0199686 0.0121697 1.03167e-21)
(0.0126397 0.0115325 -2.15165e-21)
(0.00593824 0.00925383 2.11567e-21)
(0.00142862 0.00426746 -2.16746e-21)
(0.0892479 0.00123955 1.97892e-23)
(0.088766 0.00132303 -3.73871e-22)
(0.088253 0.00141419 1.20896e-23)
(0.0877058 0.00151395 -4.00644e-22)
(0.0871215 0.00162336 4.12919e-22)
(0.0864963 0.00174365 -4.20881e-22)
(0.0858265 0.00187621 4.33785e-22)
(0.0851074 0.00202269 1.36549e-23)
(0.0843341 0.00218499 -1.40303e-23)
(0.0835007 0.00236537 1.44292e-23)
(0.0826008 0.00256647 -4.83365e-22)
(0.0816268 0.00279145 4.98246e-22)
(0.0805702 0.00304405 5.30152e-22)
(0.079421 0.0033288 -5.1388e-22)
(0.0781679 0.00365113 0)
(0.0767976 0.00401766 0)
(0.0752944 0.00443645 1.80513e-23)
(0.0736401 0.0049173 1.24357e-21)
(0.0718134 0.00547216 2.9517e-23)
(0.0697889 0.00611544 -1.25125e-21)
(0.0675366 0.00686426 0)
(0.0650213 0.00773826 -2.1844e-23)
(0.0622013 0.00875875 1.5203e-21)
(0.0590285 0.0099464 -3.03419e-21)
(0.0554481 0.0113165 3.21475e-21)
(0.0514001 0.0128703 9.57511e-23)
(0.0468227 0.0145807 -1.66874e-21)
(0.0416598 0.0163698 -1.80404e-21)
(0.0358742 0.018076 1.85922e-21)
(0.0294702 0.019407 1.43254e-24)
(0.0225218 0.0198797 -3.15698e-23)
(0.01522 0.0187588 2.07947e-21)
(0.00808344 0.0149646 -2.01363e-21)
(0.00227229 0.00683625 -2.01414e-21)
(0.0893045 0.00172752 -3.78731e-22)
(0.088827 0.00184388 2.24752e-26)
(0.0883189 0.00197096 0)
(0.0877774 0.00211005 -3.9015e-22)
(0.0871994 0.00226263 4.02396e-22)
(0.0865815 0.00243038 0)
(0.0859199 0.00261527 -8.69381e-22)
(0.0852104 0.00281959 8.55273e-22)
(0.084448 0.003046 1.41639e-23)
(0.0836273 0.00329764 -3.69816e-26)
(0.0827422 0.00357818 1.49712e-23)
(0.0817856 0.00389201 0)
(0.0807494 0.00424434 -5.30294e-26)
(0.0796246 0.00464142 0)
(0.0784005 0.00509076 -1.6994e-23)
(0.0770651 0.00560148 1.14895e-21)
(0.0756044 0.00618462 -1.14864e-21)
(0.0740023 0.00685359 -1.89957e-23)
(0.07224 0.00762462 3.93083e-23)
(0.0702958 0.0085172 -1.35444e-21)
(0.0681446 0.00955424 1.31234e-21)
(0.0657571 0.0107618 2.22218e-23)
(0.0630993 0.0121678 -3.54502e-25)
(0.0601321 0.0137984 2.36781e-23)
(0.0568109 0.0156716 -1.62456e-21)
(0.053085 0.0177852 3.28302e-21)
(0.0488986 0.0200975 -1.71084e-21)
(0.0441918 0.0224967 1.76716e-21)
(0.0389043 0.024758 -1.84999e-21)
(0.0329799 0.0264826 -3.67292e-21)
(0.0263774 0.0270161 7.49297e-21)
(0.0191058 0.0253527 -3.79317e-21)
(0.0113367 0.0200485 0)
(0.00352517 0.00905021 -3.56869e-21)
(0.0893824 0.00220739 0)
(0.0889112 0.00235604 -3.7388e-22)
(0.08841 0.00251842 3.98174e-22)
(0.0878764 0.00269615 -1.25173e-23)
(0.0873074 0.00289114 -8.44032e-22)
(0.0866997 0.00310554 8.31574e-22)
(0.0860498 0.00334186 -1.35305e-23)
(0.0853537 0.00360303 0)
(0.0846068 0.00389244 0)
(0.0838041 0.00421408 -9.70509e-22)
(0.0829399 0.00457265 9.41024e-22)
(0.0820076 0.0049737 0)
(0.0810002 0.00542384 -3.22937e-23)
(0.0799094 0.00593096 0)
(0.0787259 0.00650454 1.72922e-23)
(0.0774393 0.00715599 -1.78185e-23)
(0.0760377 0.00789909 -1.85585e-23)
(0.0745078 0.00875048 1.91229e-23)
(0.0728344 0.00973015 1.25809e-21)
(0.0710007 0.0108619 -1.29849e-21)
(0.0689878 0.0121734 2.82113e-21)
(0.0667743 0.0136956 -2.82293e-21)
(0.0643365 0.0154611 2.99404e-21)
(0.0616473 0.0174993 8.45384e-23)
(0.0586752 0.0198279 -3.15349e-21)
(0.0553823 0.0224382 -2.51626e-23)
(0.0517207 0.0252713 1.24796e-24)
(0.047627 0.0281814 1.649e-24)
(0.0430122 0.0308857 2.17235e-24)
(0.0377441 0.0328937 -5.43601e-23)
(0.0316279 0.0334108 -2.49562e-23)
(0.024417 0.0312006 -2.37467e-23)
(0.0158305 0.0244701 0)
(0.00521036 0.0109025 7.33089e-24)
(0.0894839 0.00268149 -2.83983e-23)
(0.089021 0.00286236 7.46998e-22)
(0.0885292 0.00305997 7.71758e-22)
(0.0880062 0.00327633 1.96615e-23)
(0.0874492 0.00351372 -8.18354e-22)
(0.0868552 0.00377481 0)
(0.086221 0.00406265 0)
(0.0855429 0.00438079 -9.12902e-22)
(0.0848167 0.00473337 8.9979e-22)
(0.084038 0.00512523 9.69533e-22)
(0.0832016 0.00556208 -9.70969e-22)
(0.082302 0.00605063 0)
(0.0813329 0.00659885 1.08421e-21)
(0.0802873 0.00721621 -1.0863e-21)
(0.0791576 0.00791406 0)
(0.0779355 0.00870593 -2.35067e-21)
(0.0766116 0.00960804 2.37245e-21)
(0.0751762 0.0106398 -1.96055e-23)
(0.0736187 0.0118241 -2.62154e-21)
(0.0719281 0.013188 2.64586e-21)
(0.0700933 0.014762 0)
(0.0681029 0.0165794 2.96716e-21)
(0.0659455 0.0186734 -2.94885e-21)
(0.063609 0.0210714 2.38773e-23)
(0.0610786 0.0237841 3.24942e-21)
(0.0583328 0.0267884 -6.51735e-21)
(0.0553355 0.0300003 2.05593e-23)
(0.0520223 0.0332348 3.75413e-23)
(0.0482767 0.0361532 3.37664e-21)
(0.0438883 0.0381936 3.74353e-24)
(0.0384918 0.0384702 -2.90183e-21)
(0.0315139 0.0356127 2.97482e-21)
(0.0219938 0.0276371 0)
(0.0075703 0.0121069 2.66764e-23)
(0.0896133 0.00314527 -5.04925e-24)
(0.0891613 0.00335824 7.78348e-22)
(0.0886819 0.00359107 1.24448e-23)
(0.0881728 0.00384616 0)
(0.0876318 0.00412623 0)
(0.0870559 0.00443445 -8.74432e-22)
(0.0864424 0.00477446 8.76641e-22)
(0.0857881 0.00515051 0)
(0.0850892 0.00556752 1.47546e-23)
(0.0843422 0.00603125 0)
(0.0835426 0.00654848 -1.01918e-21)
(0.0826858 0.00712718 2.07503e-21)
(0.081767 0.00777676 -1.05592e-21)
(0.0807808 0.0085084 -2.23771e-21)
(0.0797215 0.00933534 -7.48957e-23)
(0.0785832 0.0102733 -7.89233e-23)
(0.0773599 0.011341 -8.28396e-23)
(0.0760458 0.0125603 2.51487e-21)
(0.0746357 0.0139568 2.69697e-21)
(0.0731252 0.0155595 -2.70339e-21)
(0.0715115 0.0174001 0)
(0.0697942 0.019511 2.98818e-21)
(0.067975 0.0219208 -2.99513e-21)
(0.0660577 0.0246462 -3.17727e-21)
(0.0640454 0.0276784 3.15977e-21)
(0.061935 0.0309624 2.58122e-23)
(0.0597054 0.0343667 3.17098e-21)
(0.0572975 0.037643 -1.04344e-22)
(0.0545805 0.0403771 -3.13201e-21)
(0.0512903 0.0419386 2.39035e-23)
(0.0469421 0.0414184 0)
(0.0407195 0.0375049 -1.90906e-23)
(0.0308324 0.0284167 -9.24619e-22)
(0.0121907 0.0120412 4.16604e-22)
(-0.000209578 0.000284974 0)
(-0.00091581 0.00054483 3.18297e-22)
(-0.00197256 0.00061068 -3.18775e-22)
(-0.00304613 0.000569715 -3.18047e-22)
(-0.00397559 0.000469944 3.18525e-22)
(-0.00469484 0.000339836 -9.82412e-24)
(-0.00517022 0.000196541 0)
(-0.00538519 5.02154e-05 0)
(-0.0053419 -9.25977e-05 0)
(-0.00505113 -0.000230473 0)
(-0.00452129 -0.000361304 0)
(-0.0037637 -0.000483941 0)
(-0.00279203 -0.000598118 0)
(-0.00162032 -0.000703897 0)
(-0.000262293 -0.000801283 0)
(0.00126781 -0.000890098 1.05848e-22)
(0.00295557 -0.00097072 -9.95627e-23)
(0.00478728 -0.00104333 0)
(0.00674924 -0.00110808 0)
(0.00882792 -0.00116518 -7.99827e-23)
(0.0110101 -0.00121483 8.01048e-23)
(0.0132828 -0.00125721 -6.28895e-23)
(-0.000272858 0.000819355 -1.20669e-21)
(-0.00102292 0.00156146 -1.3193e-21)
(-0.00198977 0.0017501 1.30048e-21)
(-0.00292072 0.00163086 -6.25291e-22)
(-0.00369465 0.00134074 6.26347e-22)
(-0.00426318 0.000962163 9.89229e-24)
(-0.00460182 0.000544492 -1.96084e-23)
(-0.0046968 0.000117004 -6.21538e-22)
(-0.00455273 -0.000300535 6.03166e-22)
(-0.00418038 -0.000704765 -1.81408e-23)
(-0.00358481 -0.00108922 -1.75361e-23)
(-0.00277603 -0.00145017 5.25745e-22)
(-0.00176648 -0.00178685 -5.26444e-22)
(-0.000568553 -0.00209935 -4.78971e-22)
(0.000805947 -0.00238672 2.54176e-23)
(0.00234386 -0.00264975 4.54796e-22)
(0.00403158 -0.00288886 -6.47764e-24)
(0.00585665 -0.00310437 -1.22872e-23)
(0.00780635 -0.00329674 0)
(0.00986793 -0.00346653 0)
(0.0120289 -0.00361432 0)
(0.0142769 -0.00374061 -4.44555e-24)
(-0.000383342 0.00125259 -1.24969e-21)
(-0.00119863 0.00236141 1.37139e-21)
(-0.00197477 0.00265091 -1.33044e-21)
(-0.0026237 0.0024644 -2.07493e-23)
(-0.00309598 0.00201141 -3.4429e-25)
(-0.00337503 0.00142022 -1.26998e-21)
(-0.00345323 0.000767806 1.31163e-21)
(-0.0033201 0.00010102 1.25224e-21)
(-0.00298513 -0.000566296 -1.58218e-23)
(-0.00245967 -0.00121279 -2.34297e-21)
(-0.00174112 -0.00182845 2.30012e-21)
(-0.000836905 -0.00240783 -1.10383e-21)
(0.00024257 -0.00295005 -1.66036e-23)
(0.00148901 -0.00345425 0)
(0.00289292 -0.00391974 9.45562e-22)
(0.00444296 -0.00434739 -6.68754e-23)
(0.00612865 -0.0047371 -8.6614e-22)
(0.00793929 -0.00508921 2.50431e-23)
(0.0098638 -0.00540431 0)
(0.011891 -0.00568313 0)
(0.0140098 -0.00592644 3.07043e-22)
(0.0162091 -0.00613499 -2.9801e-22)
(-0.000511904 0.00150265 -2.68975e-21)
(-0.00135925 0.00282246 0)
(-0.00181721 0.00318372 2.79921e-21)
(-0.00205545 0.00294521 -5.60135e-21)
(-0.00209902 0.00237321 2.82336e-21)
(-0.00197137 0.00162524 1.29721e-21)
(-0.00168481 0.000795478 -1.36099e-21)
(-0.00125054 -6.17576e-05 1.27714e-21)
(-0.000667394 -0.000929115 -2.53758e-21)
(6.91905e-05 -0.00177194 1.24087e-21)
(0.000954503 -0.0025791 1.86071e-23)
(0.00198598 -0.00334484 3.00003e-25)
(0.00315756 -0.00406606 1.68892e-23)
(0.00446531 -0.00473985 -1.03134e-21)
(0.00590379 -0.0053656 9.99963e-22)
(0.00746584 -0.00594262 2.93225e-23)
(0.00914389 -0.00647055 -1.36685e-23)
(0.0109298 -0.00694948 8.02152e-22)
(0.0128149 -0.00737976 -8.02132e-22)
(0.0147902 -0.00776196 -1.14211e-23)
(0.0168465 -0.00809684 0)
(0.0189743 -0.00838516 2.97216e-25)
(-0.000569734 0.00149717 -1.55395e-24)
(-0.00131657 0.00286984 -2.50103e-23)
(-0.00133544 0.00326278 -2.42797e-23)
(-0.00105476 0.00299982 -2.3624e-23)
(-0.00057743 0.00236763 -4.54848e-23)
(2.88492e-05 0.00152976 -4.76966e-25)
(0.000735741 0.000591682 2.1497e-23)
(0.00152352 -0.000393 -2.13439e-23)
(0.00239555 -0.00139176 -2.07318e-23)
(0.00336643 -0.00237459 2.4857e-21)
(0.0044348 -0.00332639 -1.2692e-22)
(0.00560292 -0.00423912 -2.4336e-21)
(0.00687182 -0.00510581 2.20442e-21)
(0.0082418 -0.00592171 -2.2046e-21)
(0.00971159 -0.00668427 1.00608e-21)
(0.0112783 -0.00739165 -1.03625e-21)
(0.0129381 -0.00804261 1.462e-23)
(0.0146858 -0.00863643 -1.33822e-23)
(0.0165157 -0.00917281 -1.28655e-23)
(0.0184213 -0.00965181 1.16205e-23)
(0.0203956 -0.0100738 0)
(0.022431 -0.0104394 -2.01291e-23)
(0.0245201 -0.0107491 0)
(-0.000444596 0.00123747 5.04809e-23)
(-0.000782693 0.00246954 -1.62896e-24)
(-0.000245723 0.00283598 -3.19795e-21)
(0.000619779 0.0025894 3.26968e-21)
(0.00164621 0.00197629 -7.87798e-25)
(0.00274526 0.00114426 -2.92765e-21)
(0.00387903 0.000205756 7.74949e-23)
(0.00502039 -0.00083078 1.22544e-22)
(0.00617785 -0.00189861 5.53001e-21)
(0.00737439 -0.00296441 -2.69893e-21)
(0.00861566 -0.00401246 4.04261e-23)
(0.00990958 -0.00503007 2.43753e-21)
(0.0112632 -0.00600726 -2.41546e-21)
(0.0126816 -0.00693687 0)
(0.0141681 -0.00781374 -2.11475e-21)
(0.015724 -0.008634 2.12751e-21)
(0.0173491 -0.00939472 -1.49869e-23)
(0.0190417 -0.0100938 -1.76885e-21)
(0.020799 -0.0107297 1.77939e-21)
(0.022617 -0.0113015 -1.26689e-23)
(0.0244911 -0.011809 7.09798e-22)
(0.026416 -0.0122522 -6.87446e-22)
(0.0283858 -0.0126311 0)
(-0.000109931 0.000666385 -6.97598e-21)
(0.000564235 0.00141215 3.9334e-21)
(0.00182216 0.00169882 -2.76998e-23)
(0.00328307 0.00156045 0)
(0.00481459 0.00111438 2.57224e-23)
(0.00635217 0.00045637 3.15927e-21)
(0.0078368 -0.000396782 -9.1141e-23)
(0.00925771 -0.00139433 -3.10183e-21)
(0.0106545 -0.00244601 2.26771e-23)
(0.0120328 -0.00352853 -2.7869e-21)
(0.0134062 -0.00461941 2.75919e-21)
(0.0147896 -0.00569901 2.57852e-21)
(0.0161955 -0.00675256 -2.57239e-21)
(0.0176333 -0.00776877 0)
(0.0191104 -0.0087388 2.24049e-21)
(0.0206318 -0.00965571 -2.23509e-21)
(0.0222007 -0.0105141 -2.00169e-21)
(0.0238184 -0.0113096 1.16731e-22)
(0.0254846 -0.0120392 1.1748e-22)
(0.0271979 -0.0127005 1.30467e-22)
(0.0289559 -0.0132921 1.63224e-21)
(0.030755 -0.0138131 6.87213e-22)
(0.0325914 -0.014263 -1.33676e-21)
(6.77486e-05 -0.00035822 0)
(0.00288277 0.000131753 0)
(0.00505963 0.000424752 0)
(0.00703037 0.000363347 0)
(0.00893512 1.75955e-05 0)
(0.0107275 -0.000548321 0)
(0.0124146 -0.00132886 0)
(0.0140343 -0.0022373 0)
(0.0155879 -0.00323501 0)
(0.0170858 -0.00429021 0)
(0.0185465 -0.00537472 0)
(0.0199875 -0.00646627 0)
(0.0214233 -0.00754724 0)
(0.0228659 -0.00860345 0)
(0.0243247 -0.00962339 0)
(0.025807 -0.0105977 0)
(0.027318 -0.0115188 0)
(0.028861 -0.0123805 0)
(0.0304378 -0.0131778 0)
(0.0320486 -0.013907 0)
(0.0336926 -0.0145651 0)
(0.0353681 -0.0151504 0)
(0.0370722 -0.015661 0)
(0.0388018 -0.0160958 0)
(0.00532026 -0.0027218 0)
(0.00838425 -0.00223196 0)
(0.0107732 -0.00185006 0)
(0.0128406 -0.00180104 0)
(0.0148414 -0.0020485 0)
(0.0167385 -0.00252932 0)
(0.0185226 -0.00318539 0)
(0.0202145 -0.00398765 0)
(0.0218234 -0.0049021 0)
(0.0233626 -0.00589348 0)
(0.0248482 -0.00693197 0)
(0.0262958 -0.00799339 0)
(0.0277189 -0.00905782 0)
(0.0291295 -0.0101087 0)
(0.0305376 -0.0111324 0)
(0.0319512 -0.0121175 0)
(0.0333764 -0.0130545 0)
(0.0348177 -0.0139355 0)
(0.0362783 -0.0147542 0)
(0.0377597 -0.0155054 0)
(0.0392624 -0.0161853 0)
(0.040786 -0.016791 0)
(0.0423292 -0.0173201 0)
(0.0140724 -0.00470644 0)
(0.0166961 -0.00433459 0)
(0.018798 -0.00397426 0)
(0.0205986 -0.00386401 0)
(0.0224126 -0.00401908 0)
(0.0241901 -0.00439879 0)
(0.0258905 -0.0049619 0)
(0.0275138 -0.00567911 0)
(0.0290651 -0.00651738 0)
(0.0305519 -0.0074443 0)
(0.0319842 -0.00843139 0)
(0.0333727 -0.00945423 0)
(0.0347282 -0.0104918 0)
(0.0360603 -0.0115261 0)
(0.0373778 -0.0125419 0)
(0.0386881 -0.013526 0)
(0.0399971 -0.0144676 0)
(0.0413096 -0.0153573 0)
(0.0426292 -0.0161874 0)
(0.0439582 -0.0169517 0)
(0.0452981 -0.0176452 0)
(0.0466494 -0.0182641 0)
(0.0480119 -0.0188055 0)
(0.0253009 -0.00594371 0)
(0.0271832 -0.00579117 0)
(0.0287351 -0.00558888 0)
(0.030046 -0.00553463 0)
(0.0314661 -0.00568318 0)
(0.0329375 -0.00602372 0)
(0.0343938 -0.00653534 0)
(0.0358163 -0.00719473 0)
(0.0371984 -0.00797475 0)
(0.0385375 -0.0088478 0)
(0.039835 -0.00978812 0)
(0.0410953 -0.0107724 0)
(0.0423239 -0.0117797 0)
(0.0435269 -0.0127917 0)
(0.0447103 -0.0137924 0)
(0.0458796 -0.0147676 0)
(0.0470397 -0.0157054 0)
(0.0481947 -0.0165955 0)
(0.0493479 -0.017429 0)
(0.050502 -0.0181989 0)
(0.0516587 -0.0188993 0)
(0.0528191 -0.0195258 0)
(0.0539839 -0.0200746 0)
(0.0380979 -0.00638827 0)
(0.0391345 -0.00652146 0)
(0.0400304 -0.00657668 0)
(0.0407514 -0.00668705 0)
(0.0416605 -0.00692598 0)
(0.0427053 -0.00730729 0)
(0.0438036 -0.007827 0)
(0.0449215 -0.00847329 0)
(0.0460411 -0.00922816 0)
(0.0471495 -0.0100707 0)
(0.0482392 -0.0109794 0)
(0.0493072 -0.0119338 0)
(0.0503532 -0.0129146 0)
(0.0513787 -0.0139043 0)
(0.0523861 -0.0148869 0)
(0.0533782 -0.0158483 0)
(0.0543579 -0.0167761 0)
(0.0553283 -0.0176595 0)
(0.0562917 -0.0184893 0)
(0.0572504 -0.0192575 0)
(0.0582062 -0.019958 0)
(0.0591604 -0.0205855 0)
(0.060114 -0.0211361 0)
(0.0516156 -0.00608125 0)
(0.0518345 -0.00653705 0)
(0.0520754 -0.00690732 0)
(0.0522015 -0.0072584 0)
(0.0525659 -0.0076652 0)
(0.0531307 -0.00815817 0)
(0.053809 -0.00874668 0)
(0.0545581 -0.00943006 0)
(0.0553517 -0.0101998 0)
(0.056169 -0.0110426 0)
(0.056995 -0.0119426 0)
(0.0578199 -0.0128832 0)
(0.0586378 -0.0138481 0)
(0.0594455 -0.0148216 0)
(0.0602414 -0.015789 0)
(0.0610256 -0.0167368 0)
(0.0617986 -0.017653 0)
(0.0625616 -0.0185268 0)
(0.063316 -0.0193489 0)
(0.0640632 -0.0201113 0)
(0.0648046 -0.0208074 0)
(0.0655415 -0.0214319 0)
(0.0662751 -0.0219804 0)
(0.0650907 -0.00513477 0)
(0.0646082 -0.0059243 0)
(0.0642668 -0.00663049 0)
(0.0638613 -0.00726323 0)
(0.0637141 -0.00788815 0)
(0.063805 -0.00854477 0)
(0.0640522 -0.00925154 0)
(0.0644103 -0.0100164 0)
(0.0648491 -0.0108391 0)
(0.065343 -0.0117136 0)
(0.0658722 -0.01263 0)
(0.0664218 -0.0135764 0)
(0.0669814 -0.0145399 0)
(0.0675435 -0.0155076 0)
(0.0681033 -0.0164667 0)
(0.0686579 -0.0174052 0)
(0.0692055 -0.0183119 0)
(0.0697456 -0.0191767 0)
(0.0702782 -0.0199907 0)
(0.0708038 -0.020746 0)
(0.0713231 -0.0214361 0)
(0.0718372 -0.0220558 0)
(0.072347 -0.0226007 0)
(0.0778797 -0.00370812 0)
(0.0768638 -0.00482045 0)
(0.076057 -0.00585318 0)
(0.0752254 -0.00677636 0)
(0.0746466 -0.00764131 0)
(0.0743164 -0.00849064 0)
(0.0741645 -0.00934778 0)
(0.074148 -0.0102262 0)
(0.0742368 -0.0111318 0)
(0.0744044 -0.0120647 0)
(0.0746287 -0.0130204 0)
(0.074892 -0.0139915 0)
(0.0751809 -0.014969 0)
(0.0754852 -0.0159428 0)
(0.0757974 -0.0169027 0)
(0.0761122 -0.0178384 0)
(0.076426 -0.0187402 0)
(0.0767365 -0.019599 0)
(0.0770425 -0.0204066 0)
(0.0773436 -0.0211558 0)
(0.0776398 -0.0218405 0)
(0.0779317 -0.0224555 0)
(0.0782201 -0.0229967 0)
(0.0894892 -0.00197973 0)
(0.0881273 -0.00338483 0)
(0.0869935 -0.0047116 0)
(0.0858617 -0.00590758 0)
(0.0849579 -0.00700915 0)
(0.0842899 -0.00805768 0)
(0.083802 -0.00907836 0)
(0.0834576 -0.0100873 0)
(0.0832299 -0.0110945 0)
(0.0830943 -0.0121042 0)
(0.083029 -0.0131163 0)
(0.0830158 -0.0141274 0)
(0.0830402 -0.0151321 0)
(0.0830905 -0.0161232 0)
(0.0831578 -0.0170928 0)
(0.083235 -0.018033 0)
(0.0833174 -0.0189355 0)
(0.0834015 -0.0197926 0)
(0.0834849 -0.0205972 0)
(0.0835666 -0.0213428 0)
(0.0836458 -0.0220238 0)
(0.0837228 -0.0226357 0)
(0.0837981 -0.0231746 0)
(0.0995914 -0.000124258 0)
(0.0980644 -0.00177654 0)
(0.096744 -0.00334885 0)
(0.0954395 -0.0047808 0)
(0.0943259 -0.00609567 0)
(0.093418 -0.00733091 0)
(0.0926753 -0.00851101 0)
(0.0920696 -0.00965262 0)
(0.0915792 -0.0107675 0)
(0.0911834 -0.0118625 0)
(0.0908629 -0.0129407 0)
(0.0906008 -0.0140016 0)
(0.0903831 -0.0150427 0)
(0.0901981 -0.0160594 0)
(0.0900363 -0.0170464 0)
(0.0898903 -0.0179974 0)
(0.0897545 -0.018906 0)
(0.0896248 -0.0197659 0)
(0.0894983 -0.0205712 0)
(0.0893732 -0.0213163 0)
(0.0892486 -0.0219964 0)
(0.0891243 -0.0226074 0)
(0.0890005 -0.0231461 0)
(0.108021 0.0017051 0)
(0.106484 -0.000137912 0)
(0.105105 -0.00189821 0)
(0.103744 -0.00351748 0)
(0.10253 -0.00500889 0)
(0.10148 -0.00640438 0)
(0.10057 -0.00772618 0)
(0.0997781 -0.00898989 0)
(0.09909 -0.0102074 0)
(0.0984895 -0.0113867 0)
(0.0979611 -0.0125326 0)
(0.0974906 -0.0136467 0)
(0.0970656 -0.0147284 0)
(0.0966755 -0.0157755 0)
(0.0963116 -0.0167844 0)
(0.0959667 -0.0177506 0)
(0.0956351 -0.0186695 0)
(0.0953127 -0.0195359 0)
(0.0949964 -0.0203452 0)
(0.0946843 -0.0210928 0)
(0.0943751 -0.0217746 0)
(0.0940686 -0.0223873 0)
(0.0937648 -0.0229282 0)
(0.114755 0.00338835 0)
(0.113329 0.00141616 0)
(0.111995 -0.000471812 0)
(0.110672 -0.00222467 0)
(0.109452 -0.00384857 0)
(0.10835 -0.00536935 0)
(0.107354 -0.00680595 0)
(0.106451 -0.00817194 0)
(0.105633 -0.00947817 0)
(0.104888 -0.0107327 0)
(0.104205 -0.0119408 0)
(0.103574 -0.0131053 0)
(0.102984 -0.014227 0)
(0.102427 -0.0153049 0)
(0.101896 -0.016337 0)
(0.101383 -0.0173204 0)
(0.100885 -0.0182516 0)
(0.100397 -0.0191269 0)
(0.0999173 -0.0199424 0)
(0.099443 -0.0206947 0)
(0.0989734 -0.0213805 0)
(0.0985081 -0.021997 0)
(0.0980474 -0.022542 0)
(0.119887 0.00484403 0)
(0.118649 0.00280353 0)
(0.117438 0.000845942 0)
(0.116225 -0.000987413 0)
(0.11507 -0.00269805 0)
(0.11399 -0.00430567 0)
(0.112978 -0.00582542 0)
(0.112032 -0.00726837 0)
(0.111146 -0.00864364 0)
(0.110315 -0.00995845 0)
(0.109531 -0.0112179 0)
(0.108788 -0.012425 0)
(0.108079 -0.0135813 0)
(0.107397 -0.0146867 0)
(0.106736 -0.0157402 0)
(0.106092 -0.0167399 0)
(0.105461 -0.0176834 0)
(0.104839 -0.0185679 0)
(0.104225 -0.0193906 0)
(0.103616 -0.0201487 0)
(0.103014 -0.0208396 0)
(0.102416 -0.0214613 0)
(0.101824 -0.022012 0)
(0.123583 0.0060284 0)
(0.122577 0.00397468 0)
(0.121536 0.00199915 0)
(0.120478 0.000133645 0)
(0.11944 -0.00162039 0)
(0.118434 -0.0032769 0)
(0.117463 -0.00484721 0)
(0.116528 -0.00633966 0)
(0.115628 -0.00776137 0)
(0.114763 -0.00911817 0)
(0.113928 -0.0104144 0)
(0.11312 -0.0116529 0)
(0.112335 -0.0128352 0)
(0.111569 -0.0139617 0)
(0.110817 -0.015032 0)
(0.110078 -0.0160448 0)
(0.109348 -0.0169984 0)
(0.108624 -0.0178908 0)
(0.107907 -0.01872 0)
(0.107195 -0.0194836 0)
(0.106487 -0.0201799 0)
(0.105784 -0.0208071 0)
(0.105087 -0.0213641 0)
(0.126056 0.00693019 0)
(0.125294 0.00490904 0)
(0.124445 0.00295818 0)
(0.123565 0.00110159 0)
(0.122673 -0.00065771 0)
(0.121777 -0.00232862 0)
(0.120885 -0.0039188 0)
(0.120002 -0.00543396 0)
(0.119131 -0.00687911 0)
(0.118273 -0.00825851 0)
(0.117429 -0.00957543 0)
(0.116596 -0.0108321 0)
(0.115775 -0.0120298 0)
(0.114962 -0.013169 0)
(0.114156 -0.0142494 0)
(0.113356 -0.0152702 0)
(0.11256 -0.01623 0)
(0.111767 -0.0171275 0)
(0.110977 -0.017961 0)
(0.110189 -0.0187288 0)
(0.109405 -0.0194294 0)
(0.108624 -0.0200617 0)
(0.107849 -0.0206247 0)
(0.127532 0.00756285 0)
(0.127002 0.00560917 0)
(0.126348 0.00371574 0)
(0.125651 0.0019004 0)
(0.124915 0.000167044 0)
(0.124148 -0.00148906 0)
(0.123358 -0.0030723 0)
(0.122554 -0.00458598 0)
(0.121741 -0.00603314 0)
(0.120922 -0.00741644 0)
(0.120101 -0.008738 0)
(0.119277 -0.00999923 0)
(0.118451 -0.0112009 0)
(0.117624 -0.0123433 0)
(0.116795 -0.0134261 0)
(0.115965 -0.0144485 0)
(0.115133 -0.0154096 0)
(0.114299 -0.016308 0)
(0.113464 -0.0171427 0)
(0.112629 -0.0179121 0)
(0.111794 -0.0186152 0)
(0.110961 -0.0192511 0)
(0.110132 -0.0198191 0)
(0.128228 0.00795597 0)
(0.127904 0.00609373 0)
(0.127434 0.00428073 0)
(0.126909 0.00253024 0)
(0.126328 0.00084663 0)
(0.125693 -0.000771538 0)
(0.125016 -0.00232591 0)
(0.124306 -0.00381772 0)
(0.123569 -0.00524827 0)
(0.122811 -0.00661877 0)
(0.122035 -0.00793015 0)
(0.121244 -0.009183 0)
(0.12044 -0.0103775 0)
(0.119624 -0.0115135 0)
(0.118798 -0.0125906 0)
(0.117963 -0.0136079 0)
(0.11712 -0.0145644 0)
(0.116271 -0.0154592 0)
(0.115416 -0.0162911 0)
(0.114557 -0.017059 0)
(0.113695 -0.017762 0)
(0.112833 -0.0183994 0)
(0.111971 -0.0189706 0)
(0.128339 0.00814754 0)
(0.128189 0.00639096 0)
(0.127879 0.00467265 0)
(0.127509 0.00300263 0)
(0.12707 0.00138549 0)
(0.126563 -0.000177735 0)
(0.125999 -0.00168645 0)
(0.125388 -0.00314029 0)
(0.124737 -0.00453907 0)
(0.124051 -0.00588273 0)
(0.123335 -0.00717119 0)
(0.122593 -0.00840422 0)
(0.121828 -0.00958141 0)
(0.121043 -0.0107022 0)
(0.12024 -0.0117657 0)
(0.11942 -0.0127712 0)
(0.118587 -0.0137175 0)
(0.117742 -0.0146037 0)
(0.116888 -0.0154287 0)
(0.116025 -0.0161915 0)
(0.115156 -0.0168913 0)
(0.114283 -0.0175275 0)
(0.113409 -0.0180997 0)
(0.12803 0.00817777 0)
(0.128019 0.00653313 0)
(0.127844 0.00491662 0)
(0.127606 0.00333595 0)
(0.127292 0.00179583 0)
(0.126901 0.000299049 0)
(0.126444 -0.00115218 0)
(0.125929 -0.00255619 0)
(0.125364 -0.00391165 0)
(0.124755 -0.00521748 0)
(0.124107 -0.00647272 0)
(0.123424 -0.00767644 0)
(0.122709 -0.00882766 0)
(0.121967 -0.00992539 0)
(0.121201 -0.0109685 0)
(0.120412 -0.011956 0)
(0.119604 -0.0128867 0)
(0.118779 -0.0137596 0)
(0.11794 -0.0145735 0)
(0.11709 -0.0153275 0)
(0.11623 -0.0160209 0)
(0.115363 -0.0166531 0)
(0.114493 -0.0172238 0)
(0.127434 0.00808486 0)
(0.127528 0.00655251 0)
(0.127463 0.00503944 0)
(0.127332 0.00355176 0)
(0.127124 0.00209414 0)
(0.126834 0.000670594 0)
(0.126472 -0.00071561 0)
(0.126047 -0.00206181 0)
(0.125565 -0.00336581 0)
(0.125032 -0.00462577 0)
(0.124453 -0.00584001 0)
(0.123832 -0.00700703 0)
(0.123174 -0.0081254 0)
(0.122483 -0.00919372 0)
(0.121762 -0.0102107 0)
(0.121013 -0.0111749 0)
(0.120241 -0.0120852 0)
(0.119448 -0.0129404 0)
(0.118637 -0.0137394 0)
(0.117811 -0.0144812 0)
(0.116972 -0.0151651 0)
(0.116124 -0.0157905 0)
(0.11527 -0.0163571 0)
(0.126653 0.00790243 0)
(0.126825 0.00647873 0)
(0.126843 0.00506691 0)
(0.126799 0.00367198 0)
(0.126676 0.00229849 0)
(0.126471 0.00095117 0)
(0.126191 -0.000365965 0)
(0.125845 -0.00164963 0)
(0.125439 -0.00289703 0)
(0.124977 -0.00410573 0)
(0.124465 -0.00527356 0)
(0.123907 -0.00639857 0)
(0.123308 -0.00747894 0)
(0.122671 -0.00851299 0)
(0.121999 -0.00949912 0)
(0.121297 -0.0104359 0)
(0.120567 -0.0113218 0)
(0.119814 -0.0121557 0)
(0.119038 -0.0129364 0)
(0.118245 -0.013663 0)
(0.117437 -0.0143345 0)
(0.116617 -0.0149504 0)
(0.115787 -0.0155105 0)
(0.125766 0.0076585 0)
(0.125991 0.00633735 0)
(0.126071 0.00502214 0)
(0.126092 0.00371711 0)
(0.126036 0.00242661 0)
(0.1259 0.00115575 0)
(0.125689 -9.10263e-05 0)
(0.125411 -0.00131006 0)
(0.125072 -0.00249816 0)
(0.124675 -0.00365251 0)
(0.124225 -0.00477059 0)
(0.123727 -0.00585011 0)
(0.123185 -0.00688899 0)
(0.122602 -0.00788531 0)
(0.121982 -0.0088373 0)
(0.121329 -0.00974332 0)
(0.120645 -0.0106019 0)
(0.119934 -0.0114116 0)
(0.1192 -0.0121713 0)
(0.118445 -0.0128799 0)
(0.117673 -0.0135366 0)
(0.116887 -0.0141407 0)
(0.116089 -0.014692 0)
(0.124826 0.00737534 0)
(0.125084 0.00614939 0)
(0.12521 0.00492479 0)
(0.125278 0.00370517 0)
(0.125274 0.0024947 0)
(0.125192 0.00129859 0)
(0.125038 0.000121463 0)
(0.124817 -0.00103282 0)
(0.124535 -0.00216085 0)
(0.124195 -0.00325959 0)
(0.123802 -0.00432627 0)
(0.123359 -0.00535841 0)
(0.122871 -0.00635373 0)
(0.12234 -0.00731016 0)
(0.12177 -0.00822578 0)
(0.121166 -0.00909886 0)
(0.120529 -0.00992779 0)
(0.119864 -0.0107112 0)
(0.119173 -0.0114477 0)
(0.11846 -0.0121364 0)
(0.117727 -0.0127762 0)
(0.116979 -0.0133666 0)
(0.116218 -0.0139071 0)
(0.123872 0.00706994 0)
(0.124149 0.00593144 0)
(0.124305 0.00479084 0)
(0.124407 0.00365132 0)
(0.124441 0.00251681 0)
(0.124401 0.00139247 0)
(0.124291 0.000282921 0)
(0.124118 -0.000807905 0)
(0.123885 -0.00187652 0)
(0.123594 -0.00291975 0)
(0.123251 -0.00393473 0)
(0.122858 -0.00491884 0)
(0.122418 -0.00586972 0)
(0.121936 -0.00678517 0)
(0.121415 -0.00766321 0)
(0.120857 -0.00850201 0)
(0.120267 -0.00929994 0)
(0.119647 -0.0100555 0)
(0.119 -0.0107674 0)
(0.118329 -0.0114346 0)
(0.117638 -0.012056 0)
(0.11693 -0.012631 0)
(0.116207 -0.0131592 0)
(0.122929 0.00675484 0)
(0.123215 0.00569616 0)
(0.123389 0.00463288 0)
(0.123514 0.0035678 0)
(0.123575 0.00250463 0)
(0.123566 0.00144834 0)
(0.123492 0.000403452 0)
(0.123357 -0.000626148 0)
(0.123164 -0.00163697 0)
(0.122915 -0.00262581 0)
(0.122615 -0.00358978 0)
(0.122266 -0.00452621 0)
(0.121871 -0.00543267 0)
(0.121434 -0.00630694 0)
(0.120958 -0.00714698 0)
(0.120445 -0.00795093 0)
(0.119899 -0.00871713 0)
(0.119322 -0.00944407 0)
(0.118718 -0.0101304 0)
(0.11809 -0.010775 0)
(0.117441 -0.011377 0)
(0.116773 -0.0119355 0)
(0.116089 -0.0124501 0)
(0.122013 0.00643892 0)
(0.122299 0.00545288 0)
(0.122484 0.00446049 0)
(0.122623 0.00346424 0)
(0.122703 0.0024676 0)
(0.122718 0.00147529 0)
(0.122671 0.000491656 0)
(0.122566 -0.000479521 0)
(0.122406 -0.00143482 0)
(0.122193 -0.00237108 0)
(0.12193 -0.00328543 0)
(0.121619 -0.0041752 0)
(0.121264 -0.00503797 0)
(0.120867 -0.00587151 0)
(0.120432 -0.00667378 0)
(0.11996 -0.00744291 0)
(0.119456 -0.00817723 0)
(0.118921 -0.00887522 0)
(0.118358 -0.00953555 0)
(0.117771 -0.0101571 0)
(0.117162 -0.0107388 0)
(0.116534 -0.0112799 0)
(0.11589 -0.01178 0)
(0.121133 0.00612825 0)
(0.121414 0.00520828 0)
(0.121603 0.00428077 0)
(0.12175 0.00334797 0)
(0.121843 0.00241311 0)
(0.121874 0.00148062 0)
(0.121848 0.000554635 0)
(0.121767 -0.000361221 0)
(0.121634 -0.00126364 0)
(0.121451 -0.00214955 0)
(0.121219 -0.00301612 0)
(0.120942 -0.00386076 0)
(0.120622 -0.00468105 0)
(0.120262 -0.00547481 0)
(0.119863 -0.00624001 0)
(0.11943 -0.00697481 0)
(0.118964 -0.00767753 0)
(0.118468 -0.00834668 0)
(0.117944 -0.00898093 0)
(0.117396 -0.00957912 0)
(0.116827 -0.0101403 0)
(0.116237 -0.0106636 0)
(0.115632 -0.0111486 0)
(0.120294 0.00582681 0)
(0.120567 0.00496695 0)
(0.120756 0.00409882 0)
(0.120907 0.00322446 0)
(0.121006 0.00234683 0)
(0.121049 0.00147009 0)
(0.121039 0.00059812 0)
(0.120977 -0.00026563 0)
(0.120866 -0.00111799 0)
(0.120707 -0.001956 0)
(0.120502 -0.00277693 0)
(0.120254 -0.00357825 0)
(0.119965 -0.00435762 0)
(0.119637 -0.00511288 0)