/*--------------------------------*- C++ -*----------------------------------*\
| =========                 |                                                 |
| \\      /  F ield         | OpenFOAM: The Open Source CFD Toolbox           |
|  \\    /   O peration     | Version:  2412                                  |
|   \\  /    A nd           | Website:  www.openfoam.com                      |
|    \\/     M anipulation  |                                                 |
\*---------------------------------------------------------------------------*/
FoamFile
{
    version     2.0;
    format      ascii;
    arch        "LSB;label=32;scalar=64";
    class       volVectorField;
    location    "25";
    object      vorticity;
}
// * * * * * * * * * * * * * * * * * * * * * * * * * * * * * * * * * * * * * //

dimensions      [0 0 -1 0 0 0 0];

internalField   nonuniform List<vector> 
5285
(
(2.31889e-21 -6.46336e-20 -5.04746e-05)
(-1.81711e-21 7.61172e-21 -5.83476e-05)
(-1.83873e-22 -7.10393e-21 -6.70402e-05)
(6.97055e-23 7.10737e-21 -7.66624e-05)
(-3.07867e-24 -1.25922e-22 -8.72992e-05)
(-6.46561e-23 -6.85431e-21 -9.9068e-05)
(-1.96963e-21 6.91205e-21 -0.000112101)
(4.11683e-21 1.26562e-23 -0.000126549)
(1.19965e-21 6.70867e-21 -0.000142585)
(-3.20765e-21 -5.20573e-24 -0.00016041)
(4.61381e-21 7.78255e-21 -0.000180259)
(-5.42832e-21 1.01023e-19 -0.000202414)
(6.89445e-22 -1.08474e-19 -0.000227224)
(-2.10421e-21 9.90337e-20 -0.000255138)
(2.05021e-21 -1.00152e-19 -0.000286764)
(4.74799e-23 1.31292e-21 -0.000322977)
(-6.17488e-23 -1.61052e-21 -0.000365104)
(2.73953e-21 -9.46563e-20 -0.000415268)
(-8.48302e-21 9.18538e-20 -0.000476984)
(-3.06473e-22 -1.51383e-21 -0.000556217)
(6.06306e-21 1.32605e-23 -0.000663163)
(6.58523e-21 1.44025e-23 -0.00081519)
(-6.56416e-21 -1.43565e-23 -0.00104147)
(-2.17431e-22 -4.75544e-25 -0.00138992)
(-2.26564e-22 -4.95517e-25 -0.0019369)
(-7.78974e-21 -1.70369e-23 -0.00279971)
(7.51922e-21 1.64453e-23 -0.00415078)
(-2.48021e-22 1.47459e-22 -0.00623058)
(-3.44176e-23 7.6273e-21 -0.00935398)
(-2.4033e-20 4.93169e-20 -0.0139017)
(2.31488e-20 -6.49975e-20 -0.0202855)
(-5.42872e-21 -9.19641e-21 -0.0288731)
(5.96639e-21 2.5209e-20 -0.0398699)
(-1.981e-20 -5.53026e-21 -0.0530777)
(1.65874e-21 -2.23558e-19 -0.000158172)
(-5.5402e-21 2.39565e-19 -0.000182711)
(-2.97178e-22 1.94027e-20 -0.000209884)
(-3.7558e-21 -7.2634e-21 -0.000239929)
(3.97174e-21 1.42091e-22 -0.000273182)
(-3.98624e-21 9.00689e-21 -0.000310019)
(9.17855e-22 2.07917e-19 -0.000350858)
(5.96687e-21 -4.40131e-19 -0.00039618)
(4.51693e-21 -2.10199e-19 -0.000446539)
(-7.04599e-21 4.2556e-19 -0.000502575)
(3.77801e-21 -4.24142e-19 -0.000565039)
(-2.14616e-21 4.35168e-19 -0.000634832)
(3.21498e-21 1.46322e-21 -0.00071306)
(-3.64354e-21 -9.54823e-23 -0.000801142)
(-1.22405e-21 -2.67713e-24 -0.000900987)
(0 -0 -0.00101531)
(1.80836e-22 9.38308e-23 -0.00114822)
(1.08037e-20 1.21266e-20 -0.00130622)
(-1.57433e-20 3.54394e-19 -0.00150006)
(-1.54327e-20 -2.39379e-20 -0.00174792)
(1.85257e-20 -3.49375e-19 -0.00208082)
(2.63319e-20 -3.01589e-19 -0.00255153)
(-9.54001e-21 3.22147e-19 -0.00324865)
(-3.04563e-20 2.141e-21 -0.00431752)
(2.96872e-20 1.69418e-20 -0.0059896)
(-4.14686e-20 2.29146e-19 -0.00862005)
(2.25682e-20 -2.38344e-19 -0.0127304)
(-1.75597e-20 1.43148e-20 -0.0190473)
(1.94511e-20 7.5147e-21 -0.0285216)
(-5.84227e-20 1.10357e-19 -0.0423022)
(5.83427e-20 -1.08026e-19 -0.0616275)
(-8.93677e-20 8.05107e-20 -0.0875844)
(8.62407e-20 -8.9922e-20 -0.120719)
(-1.83005e-20 -6.15386e-22 -0.159097)
(-4.74649e-21 -1.1939e-20 -0.000286422)
(-4.86128e-21 4.63319e-19 -0.000330562)
(4.08617e-22 -1.40617e-20 -0.000379447)
(-1.24389e-20 4.49776e-19 -0.000433612)
(1.23683e-20 -4.67096e-19 -0.000493669)
(-9.30971e-21 4.4593e-19 -0.000560322)
(2.63363e-21 -4.63801e-19 -0.00063436)
(5.16211e-21 -9.27374e-21 -0.00071669)
(-2.56933e-21 1.35873e-20 -0.000808355)
(5.4768e-21 -8.77475e-21 -0.000910563)
(-1.89612e-20 4.17676e-19 -0.00102473)
(1.70918e-20 -4.45109e-19 -0.00115254)
(1.86208e-20 -4.13453e-19 -0.00129606)
(-1.53417e-20 4.15309e-19 -0.00145791)
(-1.06824e-21 -5.10045e-21 -0.00164154)
(1.10516e-20 -1.19586e-22 -0.00185183)
(-1.26269e-20 -2.44523e-20 -0.00209602)
(5.35643e-20 -7.5373e-19 -0.00238543)
(1.63774e-20 5.58801e-20 -0.00273864)
(-7.02397e-20 7.09492e-19 -0.00318683)
(3.89379e-21 -1.21591e-20 -0.00378302)
(-1.12794e-20 -4.75792e-21 -0.0046173)
(1.09591e-19 -5.94433e-19 -0.00584061)
(-2.03925e-19 1.16709e-18 -0.00770033)
(2.07881e-19 -1.15887e-18 -0.0105898)
(6.98686e-20 8.4e-20 -0.015112)
(-1.55449e-19 5.06872e-19 -0.0221507)
(-1.62697e-19 3.49193e-19 -0.0329372)
(1.53819e-19 -4.13987e-19 -0.049083)
(-2.17613e-20 1.90818e-20 -0.0725386)
(5.3758e-20 -1.6968e-20 -0.105405)
(1.61051e-19 -9.99371e-20 -0.149484)
(-1.74383e-19 1.56163e-19 -0.205492)
(-2.48988e-20 -4.01062e-20 -0.265758)
(-1.01174e-20 4.77101e-19 -0.000450842)
(-7.01575e-22 -3.72213e-21 -0.000519585)
(4.45566e-21 3.86867e-21 -0.000595904)
(-7.89968e-21 4.39863e-19 -0.000680671)
(-1.55946e-21 -4.61903e-19 -0.000774894)
(1.46295e-20 1.26073e-20 -0.000879738)
(-3.41045e-20 8.86511e-19 -0.000996516)
(2.60336e-20 -8.89372e-19 -0.00112674)
(2.25865e-21 -5.34825e-21 -0.00127214)
(-9.64424e-21 -9.00603e-23 -0.00143474)
(1.46847e-20 -1.34348e-20 -0.00161688)
(-4.76744e-21 1.22254e-22 -0.00182137)
(-5.23101e-21 -6.45502e-23 -0.00205158)
(4.98503e-21 1.93708e-22 -0.00231175)
(-3.7075e-21 1.46197e-21 -0.0026074)
(6.38884e-20 -7.83986e-19 -0.00294609)
(-5.80333e-20 8.06237e-19 -0.00333883)
(-1.59174e-20 2.26884e-22 -0.00380254)
(1.85587e-20 -1.02522e-20 -0.00436447)
(-9.94559e-20 7.1853e-19 -0.00507)
(1.15734e-19 -7.21669e-19 -0.00599582)
(-2.24053e-20 2.16925e-21 -0.00727182)
(1.58392e-20 -9.23643e-23 -0.00911532)
(3.76522e-20 6.31049e-21 -0.0118822)
(-2.45983e-19 5.37512e-19 -0.0161381)
(3.65464e-19 -1.08919e-18 -0.0227492)
(-1.78402e-19 5.51687e-19 -0.0329859)
(2.57798e-19 -4.21519e-19 -0.0486215)
(-2.49646e-19 4.9651e-19 -0.0719907)
(-5.79357e-19 5.11381e-19 -0.10595)
(1.09305e-18 -1.08346e-18 -0.153624)
(-5.3465e-19 5.46956e-19 -0.217683)
(1.84659e-20 -2.10025e-21 -0.29883)
(4.4405e-21 -3.44088e-20 -0.376231)
(4.12495e-21 3.66987e-21 -0.00066959)
(-5.65221e-21 4.50694e-19 -0.000770462)
(2.04586e-20 -4.87667e-19 -0.000882765)
(6.25125e-21 2.66978e-20 -0.00100787)
(-4.62475e-20 9.28844e-19 -0.00114738)
(2.97767e-20 -9.31394e-19 -0.00130312)
(1.00424e-20 2.24404e-20 -0.00147717)
(-1.78365e-20 -2.30535e-22 -0.00167192)
(1.16715e-20 9.526e-21 -0.00189016)
(-3.97398e-20 8.91776e-19 -0.00213508)
(3.29931e-20 -8.8332e-19 -0.00241044)
(2.80442e-21 9.51106e-21 -0.00272066)
(9.38279e-21 2.70479e-20 -0.00307107)
(-1.13733e-20 -5.43227e-22 -0.00346822)
(1.18968e-21 -1.29271e-20 -0.00392048)
(-3.69002e-20 1.31214e-20 -0.00443903)
(3.46581e-20 1.24953e-20 -0.00503965)
(-3.04286e-21 -2.49817e-20 -0.00574593)
(8.37037e-20 -7.32443e-19 -0.00659503)
(-7.4931e-20 7.54993e-19 -0.00764781)
(2.70997e-19 -1.45124e-18 -0.00900623)
(-2.48905e-19 1.46529e-18 -0.0108421)
(3.07237e-19 -1.36945e-18 -0.0134425)
(7.03144e-20 1.31096e-19 -0.0172777)
(-3.52513e-19 1.30387e-18 -0.023096)
(-1.18938e-19 -2.18466e-20 -0.0320456)
(1.61925e-20 3.82158e-22 -0.0458165)
(-1.80057e-20 5.53323e-22 -0.0667856)
(5.32105e-20 1.63469e-21 -0.0981322)
(2.55534e-20 1.33302e-20 -0.143872)
(-1.11054e-19 5.0313e-21 -0.208656)
(6.32817e-20 4.87413e-21 -0.296824)
(-1.61952e-22 -3.04059e-22 -0.409562)
(3.54004e-20 6.24286e-22 -0.500523)
(-3.26313e-21 6.48733e-21 -0.000964155)
(3.90587e-20 -9.48981e-19 -0.00110753)
(3.05893e-20 -9.10876e-19 -0.00126767)
(6.55792e-21 2.11582e-20 -0.00144669)
(-2.77771e-20 9.45841e-19 -0.00164703)
(-1.98816e-20 -7.98017e-21 -0.00187151)
(1.21401e-20 8.8394e-21 -0.00212336)
(-5.19308e-20 9.15082e-19 -0.00240629)
(4.24943e-20 -9.29402e-19 -0.00272462)
(7.39552e-20 -8.92446e-19 -0.00308335)
(-7.51723e-20 9.21713e-19 -0.00348835)
(1.4888e-20 -1.97723e-20 -0.00394649)
(6.93564e-20 -8.88855e-19 -0.00446602)
(-9.67791e-20 9.11451e-19 -0.00505691)
(4.3208e-21 1.21871e-20 -0.00573167)
(-2.10149e-19 1.66756e-18 -0.0065065)
(1.90615e-19 -1.72993e-18 -0.00740346)
(4.78245e-20 6.12826e-20 -0.00845439)
(-2.70034e-19 1.57627e-18 -0.00970777)
(2.48102e-19 -1.64342e-18 -0.0112411)
(-3.11204e-20 -3.22099e-21 -0.0131821)
(4.71787e-19 -1.4795e-18 -0.0157444)
(-4.41964e-19 1.52782e-18 -0.0192846)
(-6.51402e-20 -7.13877e-20 -0.0243875)
(6.74109e-19 -1.28857e-18 -0.031988)
(-1.18684e-18 2.65589e-18 -0.0435291)
(-6.37209e-20 -1.54083e-19 -0.0611516)
(-8.53444e-20 -1.2105e-19 -0.0879039)
(7.61289e-19 -1.15342e-18 -0.127963)
(3.88325e-20 6.19192e-20 -0.18689)
(-8.53144e-19 7.61597e-19 -0.271919)
(8.36379e-19 -8.37814e-19 -0.391758)
(8.76015e-21 2.84938e-20 -0.552658)
(9.09194e-21 -2.66272e-21 -0.662835)
(-1.62358e-21 -2.02079e-20 -0.00131074)
(2.84755e-20 -9.87063e-19 -0.00149839)
(-5.32242e-21 -7.71559e-21 -0.0017077)
(-1.68765e-22 1.17922e-22 -0.00194126)
(1.13178e-20 8.34186e-21 -0.0022021)
(-5.41976e-20 9.48863e-19 -0.00249364)
(4.85309e-20 -9.69134e-19 -0.00281976)
(1.26353e-20 8.24752e-21 -0.00318489)
(-8.5834e-21 -1.48452e-20 -0.00359403)
(-6.10501e-21 9.79719e-21 -0.00405289)
(-7.5879e-20 9.14908e-19 -0.00456795)
(1.62878e-19 -1.86603e-18 -0.00514658)
(-7.74501e-20 9.72762e-19 -0.00579723)
(-1.95808e-19 1.80211e-18 -0.00652975)
(-3.03783e-20 -4.56809e-20 -0.00735583)
(2.31356e-21 -2.69167e-20 -0.00828996)
(-6.55684e-20 -5.39579e-20 -0.00935125)
(2.63047e-19 -1.79885e-18 -0.0105669)
(4.01544e-19 -1.66413e-18 -0.0119787)
(-3.59349e-19 1.74631e-18 -0.0136557)
(-3.35044e-20 -5.42003e-20 -0.0157167)
(4.74485e-19 -1.58875e-18 -0.0183691)
(-4.1958e-19 1.68243e-18 -0.0219741)
(-6.65785e-19 1.49279e-18 -0.0271483)
(5.67243e-19 -1.5763e-18 -0.034914)
(7.70837e-20 -1.10044e-20 -0.0469022)
(8.59744e-19 -1.38928e-18 -0.0656095)
(1.17219e-19 1.21674e-19 -0.0946986)
(-9.90784e-19 1.35929e-18 -0.139352)
(-1.59572e-20 -3.89196e-20 -0.206759)
(3.30199e-20 5.18631e-22 -0.307435)
(-3.31342e-20 1.5619e-20 -0.460018)
(-5.01013e-19 5.23872e-19 -0.700592)
(4.92238e-19 -5.33178e-19 -0.960599)
(-1.0685e-20 -3.15534e-21 0.00950174)
(-1.06375e-20 -2.92902e-22 0.00520307)
(9.96866e-21 9.84378e-21 0.00156881)
(-6.89986e-21 2.19427e-21 -0.00146656)
(7.42324e-21 -1.16632e-20 -0.00397635)
(6.62726e-23 3.52751e-21 -0.00603637)
(-1.73533e-22 -9.78593e-23 -0.00771733)
(-5.66688e-21 1.2394e-23 -0.00908013)
(5.50963e-21 -1.20501e-23 -0.0101749)
(-1.66018e-22 3.63097e-25 -0.0110424)
(-1.60785e-22 3.51652e-25 -0.0117155)
(4.82947e-21 -1.05625e-23 -0.0122221)
(-4.84499e-21 1.05965e-23 -0.0125842)
(-4.41639e-21 9.65909e-24 -0.0128199)
(2.77623e-22 -1.05766e-21 -0.0129448)
(6.30113e-21 3.62067e-21 -0.0129724)
(-2.14731e-21 -1.30896e-21 -0.0129147)
(-7.59793e-23 -9.95464e-22 -0.0127819)
(-2.8888e-23 7.98815e-22 -0.0125838)
(-2.20809e-21 -1.3276e-20 -0.0123289)
(2.24864e-21 1.23296e-20 -0.0120243)
(-1.51906e-21 -1.64102e-20 -0.0116763)
(-1.53606e-20 2.529e-20 0.027539)
(3.06337e-20 -1.01154e-20 0.014743)
(-2.47005e-20 -2.16802e-20 0.00383632)
(8.67428e-21 2.25745e-20 -0.00519733)
(-9.04971e-21 -2.21092e-20 -0.0126114)
(-1.27082e-20 6.14831e-21 -0.01866)
(1.13286e-20 6.8658e-21 -0.0235722)
(1.21728e-20 1.72735e-20 -0.0275388)
(1.09564e-21 -2.89701e-20 -0.0307117)
(-2.28334e-20 6.79707e-21 -0.0332159)
(2.19514e-20 -5.09568e-21 -0.0351494)
(-2.96841e-21 -6.21345e-21 -0.0365945)
(-9.48297e-21 2.13682e-20 -0.0376167)
(-1.04631e-20 -6.10479e-21 -0.0382691)
(8.63782e-21 -1.66519e-20 -0.0385976)
(1.09539e-20 8.2397e-21 -0.0386419)
(-7.93113e-21 4.41681e-21 -0.0384363)
(-4.01965e-22 -1.15386e-21 -0.038012)
(1.37596e-23 -1.22604e-22 -0.0373972)
(7.44746e-22 -1.62883e-24 -0.0366168)
(2.15427e-21 3.40887e-23 -0.0356924)
(-2.20238e-21 -3.43802e-21 -0.0346422)
(-1.38223e-20 -1.08822e-21 0.0426541)
(-1.38412e-20 -1.53122e-20 0.0215113)
(3.58965e-20 2.93412e-20 0.00333843)
(-4.36821e-20 -1.25179e-20 -0.0114373)
(1.79925e-20 1.21542e-20 -0.0233721)
(2.67105e-20 2.08367e-20 -0.0329871)
(-1.79429e-20 -6.0001e-20 -0.0407223)
(1.66804e-20 -1.93241e-20 -0.0469194)
(-3.17047e-20 3.9912e-20 -0.0518325)
(-6.25014e-21 2.51768e-20 -0.0556737)
(3.98181e-20 -4.70431e-20 -0.0586103)
(-3.09002e-20 3.6189e-20 -0.0607727)
(6.95309e-21 -1.12592e-20 -0.0622655)
(-3.41929e-21 -9.51475e-21 -0.0631739)
(5.18428e-20 3.86428e-20 -0.0635707)
(-4.26895e-21 3.35357e-20 -0.0635185)
(-4.51581e-20 -5.36157e-20 -0.0630727)
(1.11322e-20 -6.03461e-21 -0.0622828)
(-7.78618e-21 2.90426e-22 -0.0611935)
(4.29928e-22 -3.0464e-21 -0.0598445)
(3.03523e-20 8.04085e-20 -0.0582703)
(-3.06221e-20 -6.92171e-20 -0.0565008)
(1.97441e-21 2.64973e-20 0.052081)
(8.54954e-21 -5.41019e-20 0.02291)
(-7.32475e-20 1.54746e-20 -0.00233282)
(1.20504e-19 8.27948e-20 -0.0222471)
(-3.14508e-20 -1.11702e-19 -0.0379329)
(-1.57968e-20 2.28869e-20 -0.0503244)
(7.32091e-22 1.9274e-20 -0.060142)
(-1.14012e-20 1.73359e-21 -0.0679036)
(-1.86386e-20 1.36911e-20 -0.0739809)
(6.92634e-20 -2.85867e-20 -0.0786647)
(-2.68032e-20 1.28092e-20 -0.0821794)
(-1.35537e-20 6.26815e-22 -0.0846948)
(1.95326e-20 1.0325e-20 -0.0863478)
(-7.20947e-20 -6.44899e-20 -0.0872502)
(5.55837e-20 4.27186e-20 -0.0874964)
(-1.06793e-20 1.25559e-20 -0.0871676)
(9.63823e-21 -8.91115e-21 -0.0863354)
(7.2212e-20 1.31943e-19 -0.0850635)
(-7.66904e-20 -1.15646e-19 -0.0834095)
(7.49739e-22 -1.06206e-20 -0.0814251)
(-2.9245e-21 -9.96642e-23 -0.0791566)
(3.01995e-21 4.94358e-22 -0.0766413)
(2.70084e-20 9.51849e-23 0.0520641)
(3.29035e-22 3.9805e-22 0.0152233)
(-6.10224e-20 4.56005e-22 -0.0163777)
(9.03905e-20 -2.65293e-22 -0.0401731)
(-2.70544e-20 6.38082e-23 -0.0582416)
(-4.34148e-20 -8.18307e-22 -0.0721171)
(1.40625e-20 4.58113e-23 -0.0828762)
(-1.16382e-20 -7.79572e-23 -0.0912363)
(9.39459e-20 -2.5699e-20 -0.0976636)
(1.85766e-20 8.4147e-20 -0.102494)
(-1.67529e-21 7.05436e-20 -0.105995)
(-4.56998e-20 -1.31256e-19 -0.108363)
(9.2117e-20 1.58407e-19 -0.109756)
(-1.1098e-19 -1.4921e-19 -0.110304)
(4.76545e-20 1.0113e-19 -0.110111)
(-5.92432e-20 -1.06563e-19 -0.10927)
(5.1563e-21 -7.45716e-21 -0.107862)
(-2.76672e-20 -1.73279e-21 -0.105959)
(2.47823e-20 -3.50764e-21 -0.103627)
(1.4749e-21 2.64819e-21 -0.100926)
(7.23045e-21 2.71909e-22 -0.0979076)
(-1.05485e-20 -7.48876e-21 -0.0946192)
(-1.43347e-21 4.87502e-21 -0.0911005)
(-8.02349e-20 -3.43573e-22 0.0390013)
(2.38425e-20 3.1111e-20 -0.00690256)
(8.43337e-20 -3.58943e-20 -0.0430253)
(-4.39839e-20 -2.66868e-20 -0.0682077)
(-3.76959e-20 5.9429e-20 -0.0863862)
(5.32213e-20 -7.48472e-20 -0.0998251)
(-5.4823e-21 -5.51873e-20 -0.109965)
(-2.72515e-20 -7.67074e-20 -0.117661)
(6.66208e-20 3.05177e-19 -0.123373)
(-1.39705e-19 -9.80266e-20 -0.127467)
(6.06695e-20 -4.66546e-20 -0.130217)
(1.63384e-19 2.60373e-19 -0.131828)
(-1.84533e-19 -2.1101e-19 -0.132457)
(2.45708e-20 -2.99574e-21 -0.132232)
(-1.57542e-19 -3.52898e-19 -0.13126)
(1.78686e-19 3.13708e-19 -0.129632)
(-4.08679e-20 3.50859e-20 -0.12743)
(-2.20193e-19 -4.57489e-19 -0.124728)
(2.39294e-19 4.25489e-19 -0.121592)
(-5.22913e-21 6.02036e-21 -0.118084)
(1.46853e-19 2.8592e-19 -0.11426)
(-1.22443e-19 -2.62966e-19 -0.110169)
(-9.92162e-21 -1.18372e-20 -0.105851)
(-7.77126e-21 2.32929e-20 0.0103322)
(3.5397e-20 -6.0597e-20 -0.0458555)
(4.69548e-21 3.71438e-20 -0.0779974)
(-3.64111e-20 -3.8612e-22 -0.0985282)
(2.34864e-20 -2.95141e-20 -0.112904)
(3.402e-20 1.71422e-19 -0.123226)
(-2.38397e-20 9.45874e-20 -0.130858)
(-2.47508e-20 -2.07124e-19 -0.136532)
(-5.82569e-20 -1.13784e-21 -0.140567)
(-5.12292e-20 -3.28382e-19 -0.143266)
(1.31873e-19 2.4782e-19 -0.144863)
(8.85322e-20 4.15994e-19 -0.145519)
(-1.37453e-19 -3.39235e-19 -0.14535)
(2.83395e-20 -4.58314e-20 -0.144449)
(2.2629e-19 4.84013e-19 -0.142895)
(-2.61449e-19 -4.20481e-19 -0.140757)
(-2.40626e-19 -5.54038e-19 -0.138099)
(1.2706e-20 -5.80145e-20 -0.134977)
(-3.49771e-20 -3.88144e-20 -0.131448)
(-4.81455e-21 -4.96324e-20 -0.127566)
(2.91606e-19 6.33453e-19 -0.123378)
(1.51278e-19 3.82063e-19 -0.11893)
(-3.28076e-19 -7.23321e-19 -0.114254)
(7.36604e-20 9.59097e-20 -0.0419586)
(-4.14572e-20 -0 -0.0690109)
(2.91415e-22 -0 -0.0858457)
(0 -0 -0.0980851)
(-2.69626e-22 -0 -0.107599)
(-3.30555e-20 -0 -0.115282)
(9.51879e-22 -0 -0.121465)
(3.23368e-20 -0 -0.126185)
(-2.35983e-22 -0 -0.129636)
(2.89486e-20 -0 -0.131995)
(-2.86091e-20 -0 -0.133385)
(-2.66876e-20 -0 -0.133912)
(2.65764e-20 -0 -0.133672)
(0 -0 -0.132746)
(-2.30645e-20 -0 -0.131208)
(2.29678e-20 -0 -0.129127)
(2.05326e-20 -0 -0.126564)
(-1.19525e-21 -0 -0.123577)
(-1.20078e-21 -0 -0.120221)
(-1.33116e-21 -0 -0.116547)
(-1.66242e-20 -0 -0.112605)
(-6.98683e-21 -0 -0.108434)
(1.35667e-20 -0 -0.104068)
(6.46914e-21 -0 -0.0995442)
(0 -5.42694e-20 -0.123511)
(0 -0 -0.122255)
(0 -0 -0.12571)
(0 -0 -0.130048)
(0 -0 -0.134196)
(0 -0 -0.137917)
(0 -0 -0.141079)
(0 -0 -0.143553)
(0 -0 -0.145318)
(0 -0 -0.146385)
(0 -0 -0.146778)
(0 -0 -0.146527)
(0 -0 -0.145669)
(0 -0 -0.144241)
(0 -0 -0.142284)
(0 -0 -0.139839)
(0 -0 -0.136948)
(0 -0 -0.133654)
(0 -0 -0.129998)
(0 -0 -0.126025)
(0 -0 -0.121777)
(0 -0 -0.11729)
(0 -0 -0.112598)
(0 4.27013e-22 -0.182853)
(0 -0 -0.17067)
(0 -0 -0.165234)
(0 -0 -0.162956)
(0 -0 -0.162099)
(0 -0 -0.161933)
(0 -0 -0.162025)
(0 -0 -0.162079)
(0 -0 -0.161917)
(0 -0 -0.161432)
(0 -0 -0.160561)
(0 -0 -0.159269)
(0 -0 -0.15754)
(0 -0 -0.155373)
(0 -0 -0.152777)
(0 -0 -0.149768)
(0 -0 -0.146371)
(0 -0 -0.142613)
(0 -0 -0.138525)
(0 -0 -0.134143)
(0 -0 -0.129501)
(0 -0 -0.124634)
(0 -0 -0.119568)
(0 -0 -0.225145)
(0 -0 -0.208615)
(0 -0 -0.198151)
(0 -0 -0.191267)
(0 -0 -0.186448)
(0 -0 -0.182957)
(0 -0 -0.18028)
(0 -0 -0.178041)
(0 -0 -0.175982)
(0 -0 -0.173921)
(0 -0 -0.171736)
(0 -0 -0.169341)
(0 -0 -0.16668)
(0 -0 -0.16372)
(0 -0 -0.160443)
(0 -0 -0.156844)
(0 -0 -0.152929)
(0 -0 -0.148711)
(0 -0 -0.144212)
(0 -0 -0.139456)
(0 -0 -0.134472)
(0 -0 -0.129289)
(0 -0 -0.123931)
(0 -4.0325e-22 -0.252036)
(0 -0 -0.234651)
(0 -0 -0.222051)
(0 -0 -0.212595)
(0 -0 -0.205182)
(0 -0 -0.199269)
(0 -0 -0.194423)
(0 -0 -0.190283)
(0 -0 -0.186578)
(0 -0 -0.183102)
(0 -0 -0.179704)
(0 -0 -0.176273)
(0 -0 -0.172726)
(0 -0 -0.169008)
(0 -0 -0.165082)
(0 -0 -0.160926)
(0 -0 -0.156533)
(0 -0 -0.151903)
(0 -0 -0.147047)
(0 -0 -0.141982)
(0 -0 -0.13673)
(0 -0 -0.131313)
(0 -0 -0.125753)
(0 -4.91543e-20 -0.264576)
(0 -0 -0.248445)
(0 -0 -0.235766)
(0 -0 -0.22547)
(0 -0 -0.216831)
(0 -0 -0.209537)
(0 -0 -0.203297)
(0 -0 -0.197831)
(0 -0 -0.192905)
(0 -0 -0.188331)
(0 -0 -0.183961)
(0 -0 -0.179677)
(0 -0 -0.175391)
(0 -0 -0.171037)
(0 -0 -0.166567)
(0 -0 -0.161951)
(0 -0 -0.157169)
(0 -0 -0.152216)
(0 -0 -0.147094)
(0 -0 -0.141812)
(0 -0 -0.136386)
(0 -0 -0.130834)
(0 -0 -0.125172)
(0 4.93171e-20 -0.264222)
(0 -0 -0.250572)
(0 -0 -0.239194)
(0 -0 -0.229379)
(0 -0 -0.220694)
(0 -0 -0.213013)
(0 -0 -0.206193)
(0 -0 -0.200055)
(0 -0 -0.194433)
(0 -0 -0.189181)
(0 -0 -0.184176)
(0 -0 -0.179317)
(0 -0 -0.174521)
(0 -0 -0.169724)
(0 -0 -0.164877)
(0 -0 -0.159948)
(0 -0 -0.154914)
(0 -0 -0.149763)
(0 -0 -0.144494)
(0 -0 -0.139109)
(0 -0 -0.133622)
(0 -0 -0.128046)
(0 -0 -0.122392)
(0 3.48013e-22 -0.253039)
(0 -0 -0.24244)
(0 -0 -0.233168)
(0 -0 -0.224722)
(0 -0 -0.216877)
(0 -0 -0.209634)
(0 -0 -0.202964)
(0 -0 -0.196786)
(0 -0 -0.191005)
(0 -0 -0.18553)
(0 -0 -0.180275)
(0 -0 -0.175165)
(0 -0 -0.170136)
(0 -0 -0.165135)
(0 -0 -0.16012)
(0 -0 -0.155063)
(0 -0 -0.149941)
(0 -0 -0.144744)
(0 -0 -0.139466)
(0 -0 -0.13411)
(0 -0 -0.128685)
(0 -0 -0.123201)
(0 -0 -0.117668)
(0 -3.26123e-22 -0.233549)
(0 -0 -0.226082)
(0 -0 -0.219254)
(0 -0 -0.212659)
(0 -0 -0.206214)
(0 -0 -0.199992)
(0 -0 -0.194038)
(0 -0 -0.188344)
(0 -0 -0.18288)
(0 -0 -0.177604)
(0 -0 -0.172471)
(0 -0 -0.167438)
(0 -0 -0.162462)
(0 -0 -0.157509)
(0 -0 -0.15255)
(0 -0 -0.147563)
(0 -0 -0.142532)
(0 -0 -0.137449)
(0 -0 -0.132309)
(0 -0 -0.127116)
(0 -0 -0.121878)
(0 -0 -0.116603)
(0 -0 -0.1113)
(0 3.89e-20 -0.208463)
(0 -0 -0.203873)
(0 -0 -0.199471)
(0 -0 -0.194872)
(0 -0 -0.190084)
(0 -0 -0.185209)
(0 -0 -0.180331)
(0 -0 -0.17549)
(0 -0 -0.170701)
(0 -0 -0.165963)
(0 -0 -0.161266)
(0 -0 -0.156594)
(0 -0 -0.151932)
(0 -0 -0.14726)
(0 -0 -0.142566)
(0 -0 -0.137838)
(0 -0 -0.133067)
(0 -0 -0.128252)
(0 -0 -0.12339)
(0 -0 -0.118488)
(0 -0 -0.113553)
(0 -0 -0.108594)
(0 -0 -0.103619)
(0 -3.84493e-20 -0.180402)
(0 -0 -0.178236)
(0 -0 -0.175995)
(0 -0 -0.173285)
(0 -0 -0.170161)
(0 -0 -0.16673)
(0 -0 -0.163088)
(0 -0 -0.159298)
(0 -0 -0.155402)
(0 -0 -0.151427)
(0 -0 -0.147389)
(0 -0 -0.143294)
(0 -0 -0.139146)
(0 -0 -0.134944)
(0 -0 -0.130688)
(0 -0 -0.126377)
(0 -0 -0.122012)
(0 -0 -0.117595)
(0 -0 -0.113132)
(0 -0 -0.108629)
(0 -0 -0.104095)
(0 -0 -0.0995425)
(0 -0 -0.094978)
(0 -3.30053e-20 -0.151674)
(0 -0 -0.151382)
(0 -0 -0.150896)
(0 -0 -0.149803)
(0 -0 -0.148174)
(0 -0 -0.146107)
(0 -0 -0.143692)
(0 -0 -0.140997)
(0 -0 -0.138077)
(0 -0 -0.134972)
(0 -0 -0.131713)
(0 -0 -0.128324)
(0 -0 -0.124819)
(0 -0 -0.121214)
(0 -0 -0.117516)
(0 -0 -0.113737)
(0 -0 -0.109883)
(0 -0 -0.105963)
(0 -0 -0.101986)
(0 -0 -0.0979637)
(0 -0 -0.093906)
(0 -0 -0.0898261)
(0 -0 -0.085732)
(0 3.28641e-20 -0.124109)
(0 -0 -0.125133)
(0 -0 -0.125941)
(0 -0 -0.126109)
(0 -0 -0.125703)
(0 -0 -0.124803)
(0 -0 -0.123484)
(0 -0 -0.12181)
(0 -0 -0.119834)
(0 -0 -0.117601)
(0 -0 -0.115149)
(0 -0 -0.112508)
(0 -0 -0.109702)
(0 -0 -0.106753)
(0 -0 -0.103678)
(0 -0 -0.100492)
(0 -0 -0.0972105)
(0 -0 -0.0938454)
(0 -0 -0.0904098)
(0 -0 -0.0869166)
(0 -0 -0.0833793)
(0 -0 -0.0798117)
(0 -0 -0.0762233)
(0 -0 -0.0989973)
(0 -0 -0.10083)
(0 -0 -0.102485)
(0 -0 -0.103538)
(0 -0 -0.10404)
(0 -0 -0.104051)
(0 -0 -0.103627)
(0 -0 -0.10282)
(0 -0 -0.101678)
(0 -0 -0.100241)
(0 -0 -0.098546)
(0 -0 -0.0966257)
(0 -0 -0.0945074)
(0 -0 -0.0922154)
(0 -0 -0.0897711)
(0 -0 -0.0871937)
(0 -0 -0.0845004)
(0 -0 -0.0817075)
(0 -0 -0.07883)
(0 -0 -0.0758826)
(0 -0 -0.0728802)
(0 -0 -0.0698375)
(0 -0 -0.0667651)
(0 -2.51543e-20 -0.0770982)
(0 -0 -0.0793195)
(0 -0 -0.0814309)
(0 -0 -0.0830216)
(0 -0 -0.0841251)
(0 -0 -0.084779)
(0 -0 -0.0850219)
(0 -0 -0.084892)
(0 -0 -0.0844259)
(0 -0 -0.0836581)
(0 -0 -0.0826206)
(0 -0 -0.0813426)
(0 -0 -0.0798506)
(0 -0 -0.0781688)
(0 -0 -0.0763191)
(0 -0 -0.0743217)
(0 -0 -0.0721951)
(0 -0 -0.0699565)
(0 -0 -0.0676219)
(0 -0 -0.065207)
(0 -0 -0.0627268)
(0 -0 -0.0601966)
(0 -0 -0.0576274)
(0 2.50489e-20 -0.0587111)
(0 -0 -0.0610047)
(0 -0 -0.0632646)
(0 -0 -0.0651041)
(0 -0 -0.0665392)
(0 -0 -0.0675896)
(0 -0 -0.068278)
(0 -0 -0.0686289)
(0 -0 -0.0686682)
(0 -0 -0.0684216)
(0 -0 -0.067914)
(0 -0 -0.0671696)
(0 -0 -0.0662113)
(0 -0 -0.0650607)
(0 -0 -0.0637379)
(0 -0 -0.0622621)
(0 -0 -0.0606509)
(0 -0 -0.0589212)
(0 -0 -0.0570888)
(0 -0 -0.0551687)
(0 -0 -0.0531759)
(0 -0 -0.0511253)
(0 -0 -0.0490277)
(0 2.09459e-20 -0.0437821)
(0 -0 -0.0459346)
(0 -0 -0.048123)
(0 -0 -0.0499928)
(0 -0 -0.0515457)
(0 -0 -0.0527878)
(0 -0 -0.0537289)
(0 -0 -0.0543824)
(0 -0 -0.0547637)
(0 -0 -0.05489)
(0 -0 -0.0547791)
(0 -0 -0.0544489)
(0 -0 -0.0539176)
(0 -0 -0.0532027)
(0 -0 -0.0523213)
(0 -0 -0.0512901)
(0 -0 -0.0501247)
(0 -0 -0.0488403)
(0 -0 -0.0474515)
(0 -0 -0.0459721)
(0 -0 -0.044416)
(0 -0 -0.0427971)
(0 -0 -0.0411259)
(0 -2.08586e-20 -0.032019)
(0 -0 -0.0339068)
(0 -0 -0.0358858)
(0 -0 -0.0376377)
(0 -0 -0.0391548)
(0 -0 -0.0404335)
(0 -0 -0.0414747)
(0 -0 -0.0422828)
(0 -0 -0.0428653)
(0 -0 -0.0432317)
(0 -0 -0.0433931)
(0 -0 -0.0433618)
(0 -0 -0.0431505)
(0 -0 -0.0427726)
(0 -0 -0.0422416)
(0 -0 -0.0415706)
(0 -0 -0.0407729)
(0 -0 -0.0398613)
(0 -0 -0.0388482)
(0 -0 -0.0377459)
(0 -0 -0.0365667)
(0 -0 -0.035323)
(0 -0 -0.0340243)
(0 -0 -0.0229976)
(0 -0 -0.0245675)
(0 -0 -0.0262667)
(0 -0 -0.0278144)
(0 -0 -0.0291976)
(0 -0 -0.0304072)
(0 -0 -0.0314382)
(0 -0 -0.0322891)
(0 -0 -0.0329613)
(0 -0 -0.0334585)
(0 -0 -0.0337864)
(0 -0 -0.033952)
(0 -0 -0.0339638)
(0 -0 -0.0338307)
(0 -0 -0.0335625)
(0 -0 -0.0331693)
(0 -0 -0.0326611)
(0 -0 -0.0320483)
(0 -0 -0.0313411)
(0 -0 -0.0305495)
(0 -0 -0.0296841)
(0 -0 -0.0287555)
(0 -0 -0.0277722)
(0 -0 -0.016246)
(0 -0 -0.0174943)
(0 -0 -0.0188935)
(0 -0 -0.0201994)
(0 -0 -0.0213969)
(0 -0 -0.0224746)
(0 -0 -0.0234243)
(0 -0 -0.0242409)
(0 -0 -0.024922)
(0 -0 -0.0254672)
(0 -0 -0.025878)
(0 -0 -0.0261577)
(0 -0 -0.0263108)
(0 -0 -0.0263428)
(0 -0 -0.0262601)
(0 -0 -0.0260697)
(0 -0 -0.025779)
(0 -0 -0.0253957)
(0 -0 -0.0249276)
(0 -0 -0.0243829)
(0 -0 -0.02377)
(0 -0 -0.0230978)
(0 -0 -0.0223734)
(0 -1.17322e-22 -0.0113036)
(0 -0 -0.0122575)
(0 -0 -0.0133701)
(0 -0 -0.014431)
(0 -0 -0.0154258)
(0 -0 -0.0163425)
(0 -0 -0.017172)
(0 -0 -0.0179076)
(0 -0 -0.0185446)
(0 -0 -0.0190802)
(0 -0 -0.0195132)
(0 -0 -0.0198441)
(0 -0 -0.0200745)
(0 -0 -0.0202071)
(0 -0 -0.0202457)
(0 -0 -0.0201947)
(0 -0 -0.0200591)
(0 -0 -0.0198442)
(0 -0 -0.0195559)
(0 -0 -0.0192001)
(0 -0 -0.0187835)
(0 -0 -0.0183135)
(0 -0 -0.0177954)
(0 -6.82412e-21 -0.00775737)
(0 -0 -0.00845957)
(0 -0 -0.00931807)
(0 -0 -0.0101528)
(0 -0 -0.0109511)
(0 -0 -0.011702)
(0 -0 -0.0123969)
(0 -0 -0.0130286)
(0 -0 -0.0135915)
(0 -0 -0.0140817)
(0 -0 -0.0144965)
(0 -0 -0.0148344)
(0 -0 -0.0150952)
(0 -0 -0.0152797)
(0 -0 -0.0153896)
(0 -0 -0.0154272)
(0 -0 -0.0153956)
(0 -0 -0.0152983)
(0 -0 -0.0151392)
(0 -0 -0.0149226)
(0 -0 -0.0146536)
(0 -0 -0.0143378)
(0 -0 -0.0139795)
(0 1.3096e-20 -0.00525852)
(0 -0 -0.00575676)
(0 -0 -0.00640192)
(0 -0 -0.00704066)
(0 -0 -0.00766258)
(0 -0 -0.0082585)
(0 -0 -0.00882072)
(0 -0 -0.00934273)
(0 -0 -0.00981901)
(0 -0 -0.0102451)
(0 -0 -0.0106178)
(0 -0 -0.0109346)
(0 -0 -0.0111942)
(0 -0 -0.011396)
(0 -0 -0.0115404)
(0 -0 -0.0116282)
(0 -0 -0.0116611)
(0 -0 -0.0116409)
(0 -0 -0.0115703)
(0 -0 -0.0114521)
(0 -0 -0.01129)
(0 -0 -0.0110883)
(0 -0 -0.0108501)
(0 -6.274e-21 -0.00352615)
(0 -0 -0.00386615)
(0 -0 -0.00433973)
(0 -0 -0.00481662)
(0 -0 -0.00528876)
(0 -0 -0.00574883)
(0 -0 -0.00619051)
(0 -0 -0.00660825)
(0 -0 -0.00699713)
(0 -0 -0.00735294)
(0 -0 -0.00767225)
(0 -0 -0.00795238)
(0 -0 -0.00819138)
(0 -0 -0.008388)
(0 -0 -0.00854164)
(0 -0 -0.00865227)
(0 -0 -0.0087204)
(0 -0 -0.00874698)
(0 -0 -0.00873342)
(0 -0 -0.00868151)
(0 -0 -0.00859377)
(0 -0 -0.00847349)
(0 -0 -0.00832274)
(0 -0 -0.00234252)
(0 -0 -0.00256434)
(0 -0 -0.00290468)
(0 -0 -0.00325296)
(0 -0 -0.00360323)
(0 -0 -0.0039499)
(0 -0 -0.00428806)
(0 -0 -0.00461327)
(0 -0 -0.0049214)
(0 -0 -0.0052088)
(0 -0 -0.00547231)
(0 -0 -0.00570931)
(0 -0 -0.0059177)
(0 -0 -0.00609591)
(0 -0 -0.00624289)
(0 -0 -0.00635804)
(0 -0 -0.00644119)
(0 -0 -0.0064926)
(0 -0 -0.00651286)
(0 -0 -0.006503)
(0 -0 -0.00646467)
(0 -0 -0.00640032)
(0 -0 -0.00631126)
(0 -7.91987e-23 -0.00154411)
(0 -0 -0.00168073)
(0 -0 -0.00192061)
(0 -0 -0.00216992)
(0 -0 -0.00242443)
(0 -0 -0.00268004)
(0 -0 -0.00293308)
(0 -0 -0.00318018)
(0 -0 -0.00341806)
(0 -0 -0.00364374)
(0 -0 -0.00385451)
(0 -0 -0.00404804)
(0 -0 -0.00422235)
(0 -0 -0.00437583)
(0 -0 -0.00450725)
(0 -0 -0.00461573)
(0 -0 -0.00470075)
(0 -0 -0.0047621)
(0 -0 -0.00479988)
(0 -0 -0.00481455)
(0 -0 -0.00480718)
(0 -0 -0.00477955)
(0 -0 -0.0047324)
(0 -0 -0.00101148)
(0 -0 -0.00108872)
(0 -0 -0.00125475)
(0 -0 -0.00142994)
(0 -0 -0.00161138)
(0 -0 -0.00179616)
(0 -0 -0.00198164)
(0 -0 -0.00216535)
(0 -0 -0.00234482)
(0 -0 -0.00251771)
(0 -0 -0.00268184)
(0 -0 -0.00283527)
(0 -0 -0.00297625)
(0 -0 -0.00310331)
(0 -0 -0.00321525)
(0 -0 -0.0033111)
(0 -0 -0.00339019)
(0 -0 -0.00345205)
(0 -0 -0.00349649)
(0 -0 -0.00352362)
(0 -0 -0.00353409)
(0 -0 -0.00352925)
(0 -0 -0.00350937)
(0 4.3165e-21 -0.000659414)
(0 -0 -0.000696662)
(0 -0 -0.000809565)
(0 -0 -0.000930515)
(0 -0 -0.00105761)
(0 -0 -0.00118878)
(0 -0 -0.0013222)
(0 -0 -0.00145612)
(0 -0 -0.00158873)
(0 -0 -0.0017183)
(0 -0 -0.00184313)
(0 -0 -0.00196167)
(0 -0 -0.00207251)
(0 -0 -0.00217437)
(0 -0 -0.00226619)
(0 -0 -0.00234703)
(0 -0 -0.0024162)
(0 -0 -0.00247315)
(0 -0 -0.00251752)
(0 -0 -0.00254922)
(0 -0 -0.00256866)
(0 -0 -0.00257688)
(0 -0 -0.00257388)
(0 -8.31279e-21 -0.000428381)
(0 -0 -0.000439528)
(0 -0 -0.000514929)
(0 -0 -0.000597051)
(0 -0 -0.000684628)
(0 -0 -0.000776214)
(0 -0 -0.000870533)
(0 -0 -0.000966398)
(0 -0 -0.00106254)
(0 -0 -0.0011577)
(0 -0 -0.00125064)
(0 -0 -0.00134016)
(0 -0 -0.00142515)
(0 -0 -0.00150461)
(0 -0 -0.00157761)
(0 -0 -0.00164337)
(0 -0 -0.00170121)
(0 -0 -0.0017506)
(0 -0 -0.00179113)
(0 -0 -0.00182262)
(0 -0 -0.00184533)
(0 -0 -0.00186019)
(0 -0 -0.00186709)
(0 3.99754e-21 -0.000277757)
(0 -0 -0.00027274)
(0 -0 -0.000321449)
(0 -0 -0.000376521)
(0 -0 -0.00043606)
(0 -0 -0.000499075)
(0 -0 -0.000564708)
(0 -0 -0.000632191)
(0 -0 -0.000700673)
(0 -0 -0.000769278)
(0 -0 -0.000837125)
(0 -0 -0.000903349)
(0 -0 -0.000967114)
(0 -0 -0.00102764)
(0 -0 -0.00108419)
(0 -0 -0.00113612)
(0 -0 -0.00118286)
(0 -0 -0.00122392)
(0 -0 -0.0012589)
(0 -0 -0.0012876)
(0 -0 -0.00131022)
(0 -0 -0.00132758)
(0 -0 -0.00133999)
(0 -0 -0.00017948)
(0 -0 -0.00016626)
(0 -0 -0.000197417)
(0 -0 -0.000232424)
(0 -0 -0.000272693)
(0 -0 -0.000315577)
(0 -0 -0.000360648)
(0 -0 -0.000407475)
(0 -0 -0.000455524)
(0 -0 -0.000504219)
(0 -0 -0.00055296)
(0 -0 -0.000601137)
(0 -0 -0.00064815)
(0 -0 -0.000693415)
(0 -0 -0.000736381)
(0 -0 -0.000776537)
(0 -0 -0.000813415)
(0 -0 -0.000846603)
(0 -0 -0.000875755)
(0 -0 -0.000900661)
(0 -0 -0.00092148)
(0 -0 -0.000938956)
(0 -0 -0.0009534)
(0 -0 -9.89389e-05)
(0 -0 -0.000119098)
(0 -0 -0.000142061)
(0 -0 -0.000167748)
(0 -0 -0.000196644)
(0 -0 -0.000227278)
(0 -0 -0.000259447)
(0 -0 -0.000292832)
(0 -0 -0.000327065)
(0 -0 -0.00036175)
(0 -0 -0.000396472)
(0 -0 -0.000430808)
(0 -0 -0.000464343)
(0 -0 -0.00049667)
(0 -0 -0.000527404)
(0 -0 -0.000556181)
(0 -0 -0.000582667)
(0 -0 -0.000606573)
(0 -0 -0.00062771)
(0 -0 -0.000646176)
(0 -0 -0.000662581)
(0 -0 -0.000676768)
(-5.39054e-21 -2.06444e-20 -0.533018)
(4.63424e-20 -2.93727e-20 -0.455821)
(1.81117e-22 -2.46177e-20 -0.380193)
(4.84729e-20 5.56478e-21 -0.305901)
(-3.4908e-22 4.88651e-20 -0.23177)
(-8.62496e-22 -1.04638e-19 -0.156559)
(8.6044e-20 4.06161e-20 -0.0861698)
(1.41277e-20 -1.33883e-19 -0.514476)
(-4.28871e-20 4.4687e-19 -0.456558)
(-3.23142e-20 -3.47557e-19 -0.397613)
(-9.32215e-20 1.49096e-20 -0.33777)
(3.82478e-22 -2.02829e-22 -0.277505)