/*--------------------------------*- C++ -*----------------------------------*\
| =========                 |                                                 |
| \\      /  F ield         | OpenFOAM: The Open Source CFD Toolbox           |
|  \\    /   O peration     | Version:  2412                                  |
|   \\  /    A nd           | Website:  www.openfoam.com                      |
|    \\/     M anipulation  |                                                 |
\*---------------------------------------------------------------------------*/
FoamFile
{
    version     2.0;
    format      ascii;
    arch        "LSB;label=32;scalar=64";
    class       volVectorField;
    location    "28.5";
    object      vorticity;
}
// * * * * * * * * * * * * * * * * * * * * * * * * * * * * * * * * * * * * * //

dimensions      [0 0 -1 0 0 0 0];

internalField   nonuniform List<vector> 
5285
(
(0 -5.29214e-23 -0.000139882)
(0 3.08636e-21 -9.09464e-05)
(0 -0 -7.74546e-05)
(0 -0 -9.36853e-05)
(0 -0 -0.000112035)
(0 -0 -0.00013339)
(0 -0 -0.00015719)
(0 -0 -0.000183152)
(0 -0 -0.000211096)
(0 -0 -0.000240795)
(0 -0 -0.000271992)
(0 -0 -0.000304404)
(0 -0 -0.000337718)
(0 -0 -0.0003716)
(0 -0 -0.000405705)
(0 -0 -0.000439682)
(0 -0 -0.000473185)
(0 -0 -0.000505875)
(0 -0 -0.000537435)
(0 -0 -0.000567586)
(0 -0 -0.000596152)
(0 -0 -0.000623219)
(0 -0 -0.000649224)
(0 -0 -0.000673785)
(0 -6.1003e-21 -5.86985e-05)
(0 -0 -4.44423e-05)
(0 -0 -5.50308e-05)
(0 -0 -6.69506e-05)
(0 -0 -8.08738e-05)
(0 -0 -9.66224e-05)
(0 -0 -0.000114017)
(0 -0 -0.000132968)
(0 -0 -0.000153344)
(0 -0 -0.000174989)
(0 -0 -0.000197723)
(0 -0 -0.000221344)
(0 -0 -0.000245631)
(0 -0 -0.000270351)
(0 -0 -0.000295262)
(0 -0 -0.000320118)
(0 -0 -0.000344679)
(0 -0 -0.000368714)
(0 -0 -0.00039202)
(0 -0 -0.000414483)
(0 -0 -0.00043624)
(0 -0 -0.000457643)
(0 -0 -0.000478248)
(0 2.91914e-21 -3.70284e-05)
(0 -0 -2.29483e-05)
(0 -0 -2.94692e-05)
(0 -0 -3.71715e-05)
(0 -0 -4.62658e-05)
(0 -0 -5.66288e-05)
(0 -0 -6.81629e-05)
(0 -0 -8.08541e-05)
(0 -0 -9.46427e-05)
(0 -0 -0.000109444)
(0 -0 -0.000125155)
(0 -0 -0.000141651)
(0 -0 -0.000158793)
(0 -0 -0.00017643)
(0 -0 -0.000194402)
(0 -0 -0.000212543)
(0 -0 -0.000230689)
(0 -0 -0.00024868)
(0 -0 -0.000266379)
(0 -0 -0.000283731)
(0 -0 -0.000300925)
(0 -0 -0.00031844)
(0 -0 -0.00033567)
(0 -4.03955e-23 -2.21948e-05)
(0 -0 -9.09338e-06)
(0 -0 -1.30091e-05)
(0 -0 -1.78064e-05)
(0 -0 -2.36348e-05)
(0 -0 -3.03638e-05)
(0 -0 -3.79116e-05)
(0 -0 -4.62938e-05)
(0 -0 -5.54915e-05)
(0 -0 -6.54662e-05)
(0 -0 -7.61636e-05)
(0 -0 -8.75143e-05)
(0 -0 -9.94361e-05)
(0 -0 -0.000111837)
(0 -0 -0.000124616)
(0 -0 -0.000137669)
(0 -0 -0.000150889)
(0 -0 -0.000164175)
(0 -0 -0.000177443)
(0 -0 -0.000190685)
(0 -0 -0.000204136)
(0 -0 -0.000218342)
(0 -0 -0.00023295)
(0 -3.77774e-23 -1.20348e-05)
(0 -0 -4.01137e-07)
(0 -0 -2.6114e-06)
(0 -0 -5.46643e-06)
(0 -0 -9.11438e-06)
(0 -0 -1.34195e-05)
(0 -0 -1.82968e-05)
(0 -0 -2.37693e-05)
(0 -0 -2.98365e-05)
(0 -0 -3.64855e-05)
(0 -0 -4.36927e-05)
(0 -0 -5.14233e-05)
(0 -0 -5.96336e-05)
(0 -0 -6.82721e-05)
(0 -0 -7.72816e-05)
(0 -0 -8.66013e-05)
(0 -0 -9.6169e-05)
(0 -0 -0.000105926)
(0 -0 -0.000115832)
(0 -0 -0.000125917)
(0 -0 -0.000136447)
(0 -0 -0.000147997)
(0 -0 -0.000160329)
(0 -1.12175e-21 -4.96866e-06)
(0 -0 5.00475e-06)
(0 -0 3.855e-06)
(0 -0 2.25063e-06)
(0 -0 2.6978e-08)
(0 -0 -2.6848e-06)
(0 -0 -5.79661e-06)
(0 -0 -9.33154e-06)
(0 -0 -1.32968e-05)
(0 -0 -1.76925e-05)
(0 -0 -2.25124e-05)
(0 -0 -2.77434e-05)
(0 -0 -3.33666e-05)
(0 -0 -3.93579e-05)
(0 -0 -4.56901e-05)
(0 -0 -5.23336e-05)
(0 -0 -5.92587e-05)
(0 -0 -6.64394e-05)
(0 -0 -7.38671e-05)
(0 -0 -8.16015e-05)
(0 -0 -8.99285e-05)
(0 -0 -9.94323e-05)
(0 -0 -0.000109933)
(0 2.1332e-21 -2.3985e-08)
(0 -0 8.29105e-06)
(0 -0 7.78299e-06)
(0 -0 6.96401e-06)
(0 -0 5.65391e-06)
(0 -0 3.97588e-06)
(0 -0 2.01875e-06)
(0 -0 -2.38919e-07)
(0 -0 -2.80761e-06)
(0 -0 -5.6939e-06)
(0 -0 -8.90123e-06)
(0 -0 -1.24295e-05)
(0 -0 -1.62753e-05)
(0 -0 -2.0433e-05)
(0 -0 -2.48953e-05)
(0 -0 -2.96548e-05)
(0 -0 -3.4705e-05)
(0 -0 -4.0044e-05)
(0 -0 -4.56871e-05)
(0 -0 -5.17157e-05)
(0 -0 -5.84279e-05)
(0 -0 -6.64054e-05)
(0 -0 -7.55017e-05)
(0 -2.05702e-21 3.41045e-06)
(0 -0 1.01725e-05)
(0 -0 1.00439e-05)
(0 -0 9.70869e-06)
(0 -0 8.97538e-06)
(0 -0 7.95911e-06)
(0 -0 6.74842e-06)
(0 -0 5.32337e-06)
(0 -0 3.67222e-06)
(0 -0 1.78502e-06)
(0 -0 -3.47079e-07)
(0 -0 -2.73154e-06)
(0 -0 -5.37474e-06)
(0 -0 -8.28277e-06)
(0 -0 -1.14621e-05)
(0 -0 -1.49203e-05)
(0 -0 -1.86676e-05)
(0 -0 -2.27196e-05)
(0 -0 -2.71091e-05)
(0 -0 -3.19334e-05)
(0 -0 -3.74967e-05)
(0 -0 -4.43716e-05)
(0 -0 -5.24338e-05)
(0 9.48261e-22 5.72277e-06)
(0 -0 1.10907e-05)
(0 -0 1.11827e-05)
(0 -0 1.11426e-05)
(0 -0 1.07704e-05)
(0 -0 1.01739e-05)
(0 -0 9.44072e-06)
(0 -0 8.55232e-06)
(0 -0 7.49654e-06)
(0 -0 6.26176e-06)
(0 -0 4.83611e-06)
(0 -0 3.20785e-06)
(0 -0 1.36458e-06)
(0 -0 -7.07375e-07)
(0 -0 -3.0236e-06)
(0 -0 -5.60227e-06)
(0 -0 -8.46517e-06)
(0 -0 -1.16406e-05)
(0 -0 -1.51742e-05)
(0 -0 -1.91745e-05)
(0 -0 -2.39478e-05)
(0 -0 -3.00534e-05)
(0 -0 -3.73828e-05)
(0 -0 7.16466e-06)
(0 -0 1.13242e-05)
(0 -0 1.15469e-05)
(0 -0 1.16893e-05)
(0 -0 1.15449e-05)
(0 -0 1.12146e-05)
(0 -0 1.07844e-05)
(0 -0 1.02377e-05)
(0 -0 9.5622e-06)
(0 -0 8.74587e-06)
(0 -0 7.77554e-06)
(0 -0 6.63699e-06)
(0 -0 5.31426e-06)
(0 -0 3.78884e-06)
(0 -0 2.03904e-06)
(0 -0 3.94287e-08)
(0 -0 -2.2401e-06)
(0 -0 -4.83692e-06)
(0 -0 -7.80632e-06)
(0 -0 -1.12643e-05)
(0 -0 -1.55163e-05)
(0 -0 -2.11063e-05)
(0 -0 -2.79378e-05)
(0 7.76222e-22 7.91178e-06)
(0 -0 1.10617e-05)
(0 -0 1.13717e-05)
(0 -0 1.16346e-05)
(0 -0 1.16386e-05)
(0 -0 1.14781e-05)
(0 -0 1.12383e-05)
(0 -0 1.09043e-05)
(0 -0 1.04651e-05)
(0 -0 9.90901e-06)
(0 -0 9.22296e-06)
(0 -0 8.39159e-06)
(0 -0 7.39678e-06)
(0 -0 6.21696e-06)
(0 -0 4.82642e-06)
(0 -0 3.1947e-06)
(0 -0 1.28564e-06)
(0 -0 -9.44871e-07)
(0 -0 -3.55911e-06)
(0 -0 -6.67824e-06)
(0 -0 -1.06046e-05)
(0 -0 -1.58659e-05)
(0 -0 -2.23746e-05)
(0 -8.21562e-22 8.11193e-06)
(0 -0 1.04564e-05)
(0 -0 1.08406e-05)
(0 -0 1.1192e-05)
(0 -0 1.12956e-05)
(0 -0 1.12414e-05)
(0 -0 1.11152e-05)
(0 -0 1.09054e-05)
(0 -0 1.06031e-05)
(0 -0 1.01983e-05)
(0 -0 9.67874e-06)
(0 -0 9.02879e-06)
(0 -0 8.22928e-06)
(0 -0 7.25669e-06)
(0 -0 6.08249e-06)
(0 -0 4.67249e-06)
(0 -0 2.98611e-06)
(0 -0 9.7406e-07)
(0 -0 -1.43106e-06)
(0 -0 -4.35385e-06)
(0 -0 -8.0922e-06)
(0 -0 -1.31569e-05)
(0 -0 -1.94676e-05)
(0 -3.71272e-22 7.92973e-06)
(0 -0 9.66891e-06)
(0 -0 1.01263e-05)
(0 -0 1.05427e-05)
(0 -0 1.0706e-05)
(0 -0 1.07065e-05)
(0 -0 1.0633e-05)
(0 -0 1.04795e-05)
(0 -0 1.02407e-05)
(0 -0 9.90877e-06)
(0 -0 9.4726e-06)
(0 -0 8.91684e-06)
(0 -0 8.22164e-06)
(0 -0 7.362e-06)
(0 -0 6.30714e-06)
(0 -0 5.01992e-06)
(0 -0 3.45628e-06)
(0 -0 1.56294e-06)
(0 -0 -7.31419e-07)
(0 -0 -3.5536e-06)
(0 -0 -7.19617e-06)
(0 -0 -1.21526e-05)
(0 -0 -1.83488e-05)
(0 3.68294e-22 7.59064e-06)
(0 -0 8.8988e-06)
(0 -0 9.41132e-06)
(0 -0 9.851e-06)
(0 -0 1.00203e-05)
(0 -0 1.00169e-05)
(0 -0 9.93678e-06)
(0 -0 9.7804e-06)
(0 -0 9.54625e-06)
(0 -0 9.2285e-06)
(0 -0 8.81652e-06)
(0 -0 8.29486e-06)
(0 -0 7.64275e-06)
(0 -0 6.83359e-06)
(0 -0 5.83445e-06)
(0 -0 4.60567e-06)
(0 -0 3.10021e-06)
(0 -0 1.26167e-06)
(0 -0 -9.84452e-07)
(0 -0 -3.76617e-06)
(0 -0 -7.37009e-06)
(0 -0 -1.22726e-05)
(0 -0 -1.84043e-05)
(0 -1.90934e-23 7.41652e-06)
(0 -0 8.38957e-06)
(0 -0 8.8742e-06)
(0 -0 9.24405e-06)
(0 -0 9.33287e-06)
(0 -0 9.25143e-06)
(0 -0 9.10203e-06)
(0 -0 8.88948e-06)
(0 -0 8.61332e-06)
(0 -0 8.26728e-06)
(0 -0 7.83965e-06)
(0 -0 7.31348e-06)
(0 -0 6.66622e-06)
(0 -0 5.86924e-06)
(0 -0 4.88736e-06)
(0 -0 3.67854e-06)
(0 -0 2.19319e-06)
(0 -0 3.72227e-07)
(0 -0 -1.8612e-06)
(0 -0 -4.63564e-06)
(0 -0 -8.23134e-06)
(0 -0 -1.31077e-05)
(0 -0 -1.91988e-05)
(0 -1.4133e-22 7.82487e-06)
(0 -0 8.3658e-06)
(0 -0 8.60977e-06)
(0 -0 8.74547e-06)
(0 -0 8.63822e-06)
(0 -0 8.40018e-06)
(0 -0 8.12803e-06)
(0 -0 7.82147e-06)
(0 -0 7.47485e-06)
(0 -0 7.07742e-06)
(0 -0 6.61389e-06)
(0 -0 6.06418e-06)
(0 -0 5.40306e-06)
(0 -0 4.59945e-06)
(0 -0 3.61596e-06)
(0 -0 2.40833e-06)
(0 -0 9.24802e-07)
(0 -0 -8.95821e-07)
(0 -0 -3.13206e-06)
(0 -0 -5.91234e-06)
(0 -0 -9.51029e-06)
(0 -0 -1.43686e-05)
(0 -0 -2.04218e-05)
(0 1.24197e-22 9.17486e-06)
(0 -0 8.834e-06)
(0 -0 8.45124e-06)
(0 -0 8.1696e-06)
(0 -0 7.78173e-06)
(0 -0 7.35079e-06)
(0 -0 6.9425e-06)
(0 -0 6.53865e-06)
(0 -0 6.12204e-06)
(0 -0 5.67451e-06)
(0 -0 5.17569e-06)
(0 -0 4.60185e-06)
(0 -0 3.92493e-06)
(0 -0 3.11163e-06)
(0 -0 2.12265e-06)
(0 -0 9.12046e-07)
(0 -0 -5.73515e-07)
(0 -0 -2.39664e-06)
(0 -0 -4.6368e-06)
(0 -0 -7.42168e-06)
(0 -0 -1.10183e-05)
(0 -0 -1.58538e-05)
(0 -0 -2.18569e-05)
(0 -1.53307e-23 1.12386e-05)
(0 -0 8.96155e-06)
(0 -0 7.81942e-06)
(0 -0 7.0699e-06)
(0 -0 6.4805e-06)
(0 -0 5.92994e-06)
(0 -0 5.44354e-06)
(0 -0 4.98694e-06)
(0 -0 4.53413e-06)
(0 -0 4.06196e-06)
(0 -0 3.54691e-06)
(0 -0 2.96314e-06)
(0 -0 2.281e-06)
(0 -0 1.46601e-06)
(0 -0 4.77889e-07)
(0 -0 -7.30112e-07)
(0 -0 -2.21207e-06)
(0 -0 -4.03112e-06)
(0 -0 -6.26684e-06)
(0 -0 -9.04547e-06)
(0 -0 -1.26284e-05)
(0 -0 -1.7432e-05)
(0 -0 -2.33823e-05)
(-7.61718e-22 9.28531e-21 0.000234148)
(2.10654e-21 -7.91552e-21 0.000218063)
(7.0778e-22 -9.89163e-21 0.000215915)
(-2.48927e-20 3.24203e-19 0.000201145)
(1.61995e-21 -1.80778e-20 0.000183654)
(1.63324e-21 -1.73638e-21 0.00014698)
(-3.61184e-20 5.97881e-19 2.70249e-05)
(7.55966e-20 -1.21519e-18 -0.00039992)
(4.08309e-21 -2.41624e-20 -0.00133309)
(-8.02817e-22 1.03549e-20 0.000196424)
(4.1732e-20 -5.8198e-19 0.000183354)
(4.19891e-20 -5.97701e-19 0.000168345)
(1.31423e-21 1.61414e-21 0.000136846)
(7.4668e-20 -1.24651e-18 3.34867e-05)
(-7.14172e-20 1.25458e-18 -0.000334914)
(-6.88383e-20 1.24827e-18 -0.00115614)
(5.95122e-21 -8.30668e-20 0.000177499)
(-2.01994e-20 3.02982e-19 0.0001657)
(-7.61326e-20 1.17274e-18 0.000152387)
(-3.95483e-20 6.20745e-19 0.000124896)
(-3.30138e-20 6.16977e-19 3.5124e-05)
(1.30136e-19 -2.44372e-18 -0.000283253)
(1.25609e-19 -2.53697e-18 -0.0010048)
(-5.57048e-21 8.26143e-20 0.000159356)
(-1.11105e-21 1.05938e-20 0.00014859)
(3.61036e-20 -6.11561e-19 0.000136525)
(7.23312e-20 -1.21982e-18 0.000111986)
(-1.4106e-21 -3.7667e-21 3.36412e-05)
(-2.79934e-20 6.32452e-19 -0.000241272)
(-5.48491e-20 1.2484e-18 -0.000873489)
(-4.49241e-21 6.39048e-20 0.000142223)
(-1.75559e-21 2.8269e-20 0.000132171)
(2.00519e-20 -3.16953e-19 0.000120991)
(-6.67968e-20 1.19529e-18 9.89802e-05)
(1.05451e-21 6.98489e-22 3.06055e-05)
(-3.19074e-20 6.30599e-19 -0.000206118)
(-1.92117e-21 -1.72367e-20 -0.000758167)
(8.73521e-21 -1.37178e-19 0.00012613)
(5.23363e-22 -9.84122e-21 0.00011667)
(-1.57171e-20 2.80001e-19 0.000106231)
(6.28492e-20 -1.19271e-18 8.64541e-05)
(-3.07615e-20 5.96612e-19 2.69246e-05)
(-3.31058e-20 6.45048e-19 -0.000176064)
(-1.79817e-22 -1.76709e-20 -0.000656073)
(-4.33852e-21 7.32344e-20 0.000111067)
(2.23417e-22 9.03504e-23 0.000102161)
(-4.68393e-22 -9.65564e-22 9.24087e-05)
(-2.92565e-20 5.96227e-19 7.46656e-05)
(3.03118e-20 -6.14924e-19 2.30616e-05)
(5.44261e-20 -1.18745e-18 -0.000150051)
(2.69175e-20 -6.09904e-19 -0.000565285)
(-6.35275e-22 8.96727e-21 9.69932e-05)
(-8.60944e-21 1.55881e-19 8.86457e-05)
(5.17236e-23 2.50101e-22 7.95755e-05)
(-1.36365e-21 -7.30291e-22 6.37323e-05)
(-2.59473e-20 5.74245e-19 1.92775e-05)
(-5.05744e-20 1.21666e-18 -0.000127354)
(-4.84664e-20 1.19141e-18 -0.000484326)
(4.86397e-22 -8.98324e-21 8.38488e-05)
(7.112e-21 -1.37758e-19 7.60819e-05)
(-3.68865e-22 2.56778e-22 6.77158e-05)
(1.40597e-20 -2.94208e-19 5.36799e-05)
(2.61435e-20 -5.94919e-19 1.57012e-05)
(-2.57706e-21 1.82725e-20 -0.000107459)
(4.56033e-20 -1.21788e-18 -0.000412033)
(1.12683e-24 1.44888e-22 7.15714e-05)
(6.79283e-21 -1.27708e-19 6.44079e-05)
(1.42812e-20 -2.94064e-19 5.6776e-05)
(-1.15909e-20 2.57958e-19 4.44754e-05)
(-6.74367e-22 3.81821e-20 1.23754e-05)
(2.34066e-20 -5.95151e-19 -9.00007e-05)
(-1.96912e-20 5.76632e-19 -0.000347464)
(5.0386e-22 -9.35274e-21 6.00804e-05)
(-8.52166e-21 1.73789e-19 5.35411e-05)
(-1.26849e-20 2.75785e-19 4.6674e-05)
(-8.05215e-22 1.87727e-20 3.60476e-05)
(7.18946e-22 -1.75333e-20 9.28841e-06)
(2.41498e-20 -5.89749e-19 -7.47115e-05)
(-1.59101e-22 -8.03619e-22 -0.000289831)
(-2.24563e-21 4.56196e-20 4.92547e-05)
(2.64802e-22 -9.07013e-21 4.33663e-05)
(4.49171e-22 -1.86742e-20 3.72989e-05)
(-1.2812e-20 2.93059e-19 2.82975e-05)
(2.21273e-24 -9.70336e-22 6.39563e-06)
(-3.3725e-20 9.17519e-19 -6.13836e-05)
(-1.95856e-20 5.69617e-19 -0.000238458)
(2.1629e-21 -4.57124e-20 3.8945e-05)
(-1.20955e-21 2.73975e-20 3.37444e-05)
(-7.76257e-23 7.69436e-22 2.85229e-05)
(2.50398e-20 -6.22281e-19 2.11154e-05)
(-7.30262e-22 1.8301e-20 3.64416e-06)
(1.90645e-20 -5.65397e-19 -4.98363e-05)
(1.8861e-20 -6.03358e-19 -0.000192731)
(-3.71542e-22 9.13695e-21 2.89877e-05)
(-3.8672e-22 9.31201e-21 2.45313e-05)
(6.18127e-21 -1.46364e-19 2.02247e-05)
(-1.0802e-20 2.9247e-19 1.44093e-05)
(8.26358e-22 -1.82878e-20 1.00739e-06)
(-1.02403e-20 3.09862e-19 -3.98742e-05)
(1.05778e-20 -3.07391e-19 -0.000152057)
(3.76627e-22 -9.14093e-21 1.92203e-05)
(-3.4932e-22 8.86923e-21 1.56052e-05)
(-1.08364e-20 2.73933e-19 1.23248e-05)
(-3.79065e-22 6.74147e-23 8.14804e-06)
(-5.87456e-21 1.63722e-19 -1.4665e-06)
(9.69787e-21 -3.07559e-19 -3.12339e-05)
(-9.01997e-21 3.06181e-19 -0.000115804)
(3.96946e-22 -9.2082e-21 9.52413e-06)
(-2.53153e-21 6.40344e-20 6.91765e-06)
(5.50367e-21 -1.46025e-19 4.84503e-06)
(6.71471e-22 -1.80201e-20 2.42809e-06)
(9.67612e-21 -2.90253e-19 -3.58312e-06)
(-9.38997e-21 3.0642e-19 -2.35121e-05)
(3.63591e-23 -1.75244e-20 -8.32458e-05)
(-7.25943e-22 1.82619e-20 -9.84577e-08)
(-3.32379e-22 9.0368e-21 -1.42102e-06)
(-2.51464e-21 7.28763e-20 -1.99918e-06)
(6.9591e-23 -5.72942e-23 -2.42793e-06)
(-4.39338e-21 1.44722e-19 -4.90205e-06)
(3.08762e-22 -1.76329e-20 -1.60789e-05)
(3.98428e-21 -1.42189e-19 -5.34964e-05)
(3.58229e-22 -9.12618e-21 -9.396e-06)
(6.97e-22 -1.82527e-20 -8.98849e-06)
(3.19235e-21 -9.1197e-20 -7.66386e-06)
(-6.45727e-22 1.8019e-20 -5.73374e-06)
(-1.24545e-21 3.59246e-20 -4.60729e-06)
(-2.53521e-21 8.9155e-20 -7.98948e-06)
(-3.21922e-21 1.24071e-19 -2.54355e-05)
(-3.3026e-22 9.1684e-21 -1.76732e-05)
(1.01674e-21 -2.74138e-20 -1.49403e-05)
(-5.27394e-22 1.82254e-20 -1.10317e-05)
(1.13768e-21 -3.61761e-20 -6.267e-06)
(5.08832e-22 -1.79922e-20 -1.35047e-06)
(1.45731e-21 -5.34384e-20 2.03651e-06)
(3.45498e-22 -1.76219e-20 2.43204e-06)
(-2.63932e-20 2.85909e-19 0.000269799)
(-8.269e-22 9.66411e-21 0.000250968)
(9.34151e-22 -2.07775e-20 0.000441332)
(-1.29099e-19 1.2372e-18 0.000333)
(5.90994e-20 -6.09549e-19 0.000309492)
(-9.00586e-22 -8.65102e-22 0.000286892)
(1.43679e-21 -1.84579e-20 0.000265983)
(-2.46411e-21 2.74518e-20 0.000246837)
(7.72709e-22 -9.09535e-21 0.000230435)
(1.21436e-19 -1.22173e-18 0.000388577)
(1.11644e-19 -1.17469e-18 0.000298367)
(-5.41211e-20 5.72686e-19 0.000278726)
(-7.31186e-22 -2.73394e-22 0.000259745)
(-5.11062e-20 5.84754e-19 0.000241595)
(-2.53855e-20 3.0226e-19 0.00022522)
(-6.20798e-22 9.58294e-21 0.000210525)
(-2.27176e-19 2.37689e-18 0.000340561)
(-2.20727e-19 2.39673e-18 0.000266119)
(-6.74048e-22 2.93072e-21 0.000250147)
(4.90703e-20 -5.66082e-19 0.000234213)
(9.82054e-20 -1.1889e-18 0.00021868)
(4.55937e-20 -5.77599e-19 0.00020395)
(-4.82795e-21 6.32907e-20 0.000190175)
(1.09486e-19 -1.19336e-18 0.000296942)
(5.15671e-20 -5.76457e-19 0.000236254)
(3.97954e-23 -1.85779e-21 0.000223474)
(-9.54237e-20 1.15252e-18 0.000210211)
(-4.39277e-20 5.68135e-19 0.000196758)
(-2.24919e-20 3.0261e-19 0.000183553)
(4.53419e-21 -6.38708e-20 0.000171008)
(2.49641e-21 -1.78325e-20 0.000257587)
(4.95409e-20 -5.71375e-19 0.000208668)
(-4.87395e-22 6.72518e-22 0.000198634)
(9.19069e-20 -1.16969e-18 0.00018772)
(-2.1357e-20 2.71901e-19 0.000176177)
(-2.44789e-21 2.7749e-20 0.000164455)
(5.91936e-21 -8.21844e-20 0.00015303)
(1.85182e-21 -1.79696e-20 0.000222156)
(4.4752e-20 -5.48874e-19 0.00018327)
(4.5213e-20 -5.85662e-19 0.000175584)
(-8.77912e-20 1.16713e-18 0.00016672)
(2.2658e-20 -3.08976e-19 0.000156895)
(5.83224e-22 -9.68353e-21 0.000146547)
(-1.03203e-20 1.55422e-19 0.000136169)
(-4.64609e-20 5.84984e-19 0.000190285)
(-9.23235e-20 1.18719e-18 0.000159917)
(-4.3216e-20 5.67594e-19 0.000154233)
(8.35314e-20 -1.16472e-18 0.000147146)
(3.50114e-22 -1.04854e-21 0.000138851)
(-1.31468e-22 8.66648e-23 0.00012977)
(4.56031e-21 -7.32168e-20 0.000120376)
(9.07227e-20 -1.18419e-18 0.000161638)
(8.4314e-20 -1.14674e-18 0.000138459)
(4.20553e-20 -6.00612e-19 0.000134476)
(-3.99091e-20 5.81834e-19 0.000128938)
(-4.16724e-23 6.05138e-22 0.00012199)
(8.65198e-21 -1.36429e-19 0.000114063)
(-4.83516e-22 8.95981e-21 0.000105593)
(-4.18527e-20 5.62611e-19 0.000135903)
(-2.06774e-21 1.91707e-20 0.000118743)
(-4.03594e-20 5.8062e-19 0.000116203)
(-1.96267e-20 2.9037e-19 0.000112009)
(2.35105e-22 7.84795e-23 0.000106247)
(-9.37847e-21 1.54889e-19 9.93492e-05)
(5.3609e-22 -8.93844e-21 9.17459e-05)
(4.07505e-20 -5.95173e-19 0.00011279)
(-4.01152e-20 5.78083e-19 0.000100618)
(-2.81196e-21 3.67065e-20 9.92823e-05)
(2.09648e-20 -3.26604e-19 9.62394e-05)
(-1.7721e-20 2.89665e-19 9.15367e-05)
(-9.74118e-21 1.63747e-19 8.55682e-05)
(1.6036e-24 1.44066e-22 7.8778e-05)
(-1.40867e-21 6.81931e-22 9.20299e-05)
(-3.75857e-20 5.75203e-19 8.39347e-05)
(1.10423e-21 -1.78012e-20 8.35834e-05)
(-1.04493e-21 1.83087e-20 8.15105e-05)
(1.82533e-20 -3.08547e-19 7.77508e-05)
(6.68922e-21 -1.18608e-19 7.26372e-05)
(4.79079e-22 -9.1997e-21 6.66105e-05)
(-2.82274e-22 -1.65816e-20 7.337e-05)
(5.21904e-20 -8.24816e-19 6.85427e-05)
(5.4317e-23 -1.64602e-22 6.89779e-05)
(1.69517e-20 -2.88663e-19 6.7709e-05)
(1.2902e-21 -1.82541e-20 6.47576e-05)
(6.63879e-22 -9.08327e-21 6.0418e-05)
(1.4028e-21 -2.73599e-20 5.51135e-05)
(-3.49743e-20 5.50772e-19 5.6563e-05)
(-3.53323e-20 5.89595e-19 5.42794e-05)
(-1.04246e-21 1.79008e-20 5.53038e-05)
(-3.05233e-20 5.41156e-19 5.46843e-05)
(5.98368e-23 2.02807e-22 5.24034e-05)
(-5.18201e-21 9.98527e-20 4.87505e-05)
(-1.36233e-21 2.75009e-20 4.41293e-05)
(-1.57421e-20 2.64926e-19 4.13532e-05)
(1.56593e-20 -2.67144e-19 4.09525e-05)
(9.35116e-22 -1.78781e-20 4.23571e-05)
(1.56094e-20 -2.88626e-19 4.22186e-05)
(-7.6099e-21 1.44522e-19 4.04833e-05)
(3.17076e-21 -6.36299e-20 3.74422e-05)
(-4.64449e-22 9.0494e-21 3.3478e-05)
(1.54263e-20 -2.6402e-19 2.7465e-05)
(-1.4467e-20 2.65807e-19 2.83121e-05)
(6.71805e-21 -1.24885e-19 2.98731e-05)
(1.83535e-22 1.66865e-22 3.00362e-05)
(1.54493e-20 -3.07552e-19 2.87388e-05)
(-3.86885e-22 8.91975e-21 2.62596e-05)
(-4.19317e-22 9.11883e-21 2.2959e-05)
(1.03331e-21 -1.74307e-20 1.45058e-05)
(1.44199e-20 -2.65438e-19 1.59475e-05)
(-1.48308e-20 2.85241e-19 1.74392e-05)
(8.82001e-22 -1.79612e-20 1.7762e-05)
(-7.02137e-21 1.4476e-19 1.68476e-05)
(3.79671e-22 -8.96913e-21 1.49451e-05)
(1.23195e-21 -2.73559e-20 1.23833e-05)
(-7.26044e-21 1.39197e-19 1.82321e-06)
(9.61568e-22 -1.75387e-20 3.17574e-06)
(1.06238e-20 -2.13614e-19 4.42196e-06)
(-1.45002e-23 -7.021e-23 4.88985e-06)
(3.19533e-21 -7.22864e-20 4.44235e-06)
(-4.79792e-22 9.09326e-21 3.26412e-06)
(7.58244e-24 -6.3639e-24 1.63656e-06)
(8.07012e-21 -1.56042e-19 -1.19322e-05)
(2.54863e-21 -5.26703e-20 -1.11527e-05)
(-3.40654e-21 7.10595e-20 -9.99709e-06)
(-8.26508e-22 1.79549e-20 -9.07675e-06)
(-8.36648e-22 1.81717e-20 -8.72503e-06)
(-8.28469e-22 1.82275e-20 -8.8405e-06)
(-3.77869e-22 9.14618e-21 -9.1759e-06)
(8.56124e-22 -1.7274e-20 -3.04068e-05)
(-4.24182e-21 8.74998e-20 -2.87108e-05)
(-8.25919e-22 1.77594e-20 -2.63921e-05)
(1.59189e-21 -3.58349e-20 -2.42594e-05)
(-2.38761e-21 5.41922e-20 -2.25023e-05)
(-4.08597e-22 9.11357e-21 -2.10384e-05)
(-3.73981e-22 9.11711e-21 -1.95331e-05)
(0 -0 3.427e-06)
(0 -0 4.13639e-06)
(0 -0 4.90748e-06)
(0 -0 5.2684e-06)
(0 -0 5.3883e-06)
(0 -0 5.50191e-06)
(0 -0 5.60899e-06)
(0 -0 5.70748e-06)
(0 -0 5.79304e-06)
(0 -0 5.85983e-06)
(0 -0 5.90078e-06)
(0 -0 5.90788e-06)
(0 -0 5.87247e-06)
(0 -0 5.7853e-06)
(0 -0 5.63663e-06)
(0 -0 5.41659e-06)
(0 -0 5.11556e-06)
(0 -0 4.72454e-06)
(0 -0 4.23564e-06)
(0 -0 3.64252e-06)
(0 -0 2.94102e-06)
(0 -0 2.12939e-06)
(0 -0 1.2086e-06)
(0 -0 1.81909e-07)
(0 -0 -9.48068e-07)
(0 -0 -2.19027e-06)
(0 -0 -3.60423e-06)
(0 -0 -5.44083e-06)
(0 -0 -8.65109e-06)
(0 -0 -1.67478e-05)
(0 -0 -4.26821e-05)
(0 -0 -0.000134471)
(0 -0 -0.000471581)
(0 1.99393e-23 -0.0018065)
(0 -0 3.46453e-06)
(0 -0 4.27528e-06)
(0 -0 5.26548e-06)
(0 -0 5.70037e-06)
(0 -0 5.87777e-06)
(0 -0 6.04363e-06)
(0 -0 6.19853e-06)
(0 -0 6.34185e-06)
(0 -0 6.47078e-06)
(0 -0 6.58097e-06)
(0 -0 6.66673e-06)
(0 -0 6.72119e-06)
(0 -0 6.7367e-06)
(0 -0 6.70499e-06)
(0 -0 6.61732e-06)
(0 -0 6.46478e-06)
(0 -0 6.23862e-06)
(0 -0 5.93056e-06)
(0 -0 5.53315e-06)
(0 -0 5.04022e-06)
(0 -0 4.44762e-06)
(0 -0 3.75313e-06)
(0 -0 2.95691e-06)
(0 -0 2.06112e-06)
(0 -0 1.06704e-06)
(0 -0 -3.42724e-08)
(0 -0 -1.29695e-06)
(0 -0 -2.94606e-06)
(0 -0 -5.83252e-06)
(0 -0 -1.30969e-05)
(0 -0 -3.63064e-05)
(0 -0 -0.000118289)
(0 -0 -0.000418738)
(0 1.06242e-21 -0.00160228)
(0 -0 3.2106e-06)
(0 -0 4.18045e-06)
(0 -0 5.17998e-06)
(0 -0 5.62458e-06)
(0 -0 5.82174e-06)
(0 -0 6.01413e-06)
(0 -0 6.19831e-06)
(0 -0 6.37216e-06)
(0 -0 6.53266e-06)
(0 -0 6.67567e-06)
(0 -0 6.79606e-06)
(0 -0 6.88775e-06)
(0 -0 6.94387e-06)
(0 -0 6.95699e-06)
(0 -0 6.91921e-06)
(0 -0 6.82248e-06)
(0 -0 6.65881e-06)
(0 -0 6.42061e-06)
(0 -0 6.10099e-06)
(0 -0 5.69427e-06)
(0 -0 5.19619e-06)
(0 -0 4.60448e-06)
(0 -0 3.91878e-06)
(0 -0 3.14046e-06)
(0 -0 2.27014e-06)
(0 -0 1.29931e-06)
(0 -0 1.78943e-07)
(0 -0 -1.29244e-06)
(0 -0 -3.8751e-06)
(0 -0 -1.03725e-05)
(0 -0 -3.10989e-05)
(0 -0 -0.000104182)
(0 -0 -0.000371493)
(0 -1.98194e-21 -0.00141862)
(0 -0 2.76902e-06)
(0 -0 3.73671e-06)
(0 -0 4.73113e-06)
(0 -0 5.17312e-06)
(0 -0 5.37372e-06)
(0 -0 5.57637e-06)
(0 -0 5.77542e-06)
(0 -0 5.96735e-06)
(0 -0 6.14847e-06)
(0 -0 6.31441e-06)
(0 -0 6.46015e-06)
(0 -0 6.57998e-06)
(0 -0 6.66755e-06)
(0 -0 6.71605e-06)
(0 -0 6.71831e-06)
(0 -0 6.66699e-06)
(0 -0 6.55477e-06)
(0 -0 6.37469e-06)
(0 -0 6.12039e-06)
(0 -0 5.78665e-06)
(0 -0 5.3694e-06)
(0 -0 4.86631e-06)
(0 -0 4.27686e-06)
(0 -0 3.60191e-06)
(0 -0 2.84176e-06)
(0 -0 1.98849e-06)
(0 -0 9.98095e-07)
(0 -0 -3.09274e-07)
(0 -0 -2.61154e-06)
(0 -0 -8.40614e-06)
(0 -0 -2.687e-05)
(0 -0 -9.18681e-05)
(0 -0 -0.000329127)
(0 9.55266e-22 -0.00125331)
(0 -0 2.12798e-06)
(0 -0 3.10588e-06)
(0 -0 4.1081e-06)
(0 -0 4.55324e-06)
(0 -0 4.75764e-06)
(0 -0 4.96804e-06)
(0 -0 5.17856e-06)
(0 -0 5.38525e-06)
(0 -0 5.58403e-06)
(0 -0 5.77039e-06)
(0 -0 5.93935e-06)
(0 -0 6.08537e-06)
(0 -0 6.20251e-06)
(0 -0 6.28437e-06)
(0 -0 6.32438e-06)
(0 -0 6.3157e-06)
(0 -0 6.25161e-06)
(0 -0 6.12569e-06)
(0 -0 5.9321e-06)
(0 -0 5.66587e-06)
(0 -0 5.32324e-06)
(0 -0 4.90191e-06)
(0 -0 4.40119e-06)
(0 -0 3.82163e-06)
(0 -0 3.16335e-06)
(0 -0 2.4191e-06)
(0 -0 1.54963e-06)
(0 -0 3.94777e-07)
(0 -0 -1.64836e-06)
(0 -0 -6.79885e-06)
(0 -0 -2.31994e-05)
(0 -0 -8.08433e-05)
(0 -0 -0.000290819)
(0 1.4328e-23 -0.00110404)
(0 -0 1.32863e-06)
(0 -0 2.32511e-06)
(0 -0 3.34467e-06)
(0 -0 3.80121e-06)
(0 -0 4.01523e-06)
(0 -0 4.23711e-06)
(0 -0 4.4615e-06)
(0 -0 4.68464e-06)
(0 -0 4.90253e-06)
(0 -0 5.11073e-06)
(0 -0 5.30438e-06)
(0 -0 5.47816e-06)
(0 -0 5.62643e-06)
(0 -0 5.74319e-06)
(0 -0 5.82223e-06)
(0 -0 5.85719e-06)
(0 -0 5.84185e-06)
(0 -0 5.77019e-06)
(0 -0 5.63678e-06)
(0 -0 5.43694e-06)
(0 -0 5.16709e-06)
(0 -0 4.82494e-06)
(0 -0 4.40967e-06)
(0 -0 3.92157e-06)
(0 -0 3.3606e-06)
(0 -0 2.7202e-06)
(0 -0 1.96554e-06)
(0 -0 9.54451e-07)
(0 -0 -8.47721e-07)
(0 -0 -5.40628e-06)
(0 -0 -1.99223e-05)
(0 -0 -7.08676e-05)
(0 -0 -0.000256047)
(0 1.3114e-23 -0.000969063)
(0 -0 3.48303e-07)
(0 -0 1.36736e-06)
(0 -0 2.40994e-06)
(0 -0 2.88441e-06)
(0 -0 3.11421e-06)
(0 -0 3.35279e-06)
(0 -0 3.59541e-06)
(0 -0 3.83871e-06)
(0 -0 4.07901e-06)
(0 -0 4.31217e-06)
(0 -0 4.53351e-06)
(0 -0 4.73804e-06)
(0 -0 4.92036e-06)
(0 -0 5.07485e-06)
(0 -0 5.19562e-06)
(0 -0 5.27675e-06)
(0 -0 5.31239e-06)
(0 -0 5.29687e-06)
(0 -0 5.22509e-06)
(0 -0 5.09261e-06)
(0 -0 4.89594e-06)
(0 -0 4.63279e-06)
(0 -0 4.30213e-06)
(0 -0 3.90407e-06)
(0 -0 3.43841e-06)
(0 -0 2.89922e-06)
(0 -0 2.25561e-06)
(0 -0 1.38196e-06)
(0 -0 -1.94052e-07)
(0 -0 -4.2063e-06)
(0 -0 -1.69972e-05)
(0 -0 -6.18324e-05)
(0 -0 -0.000224451)
(0 -3.32016e-22 -0.000846901)
(0 -0 -8.39955e-07)
(0 -0 2.044e-07)
(0 -0 1.27378e-06)
(0 -0 1.77125e-06)
(0 -0 2.02238e-06)
(0 -0 2.28307e-06)
(0 -0 2.54899e-06)
(0 -0 2.81723e-06)
(0 -0 3.0845e-06)
(0 -0 3.34696e-06)
(0 -0 3.60026e-06)
(0 -0 3.83973e-06)
(0 -0 4.06028e-06)
(0 -0 4.25659e-06)
(0 -0 4.42318e-06)
(0 -0 4.55444e-06)
(0 -0 4.64484e-06)
(0 -0 4.68906e-06)
(0 -0 4.68221e-06)
(0 -0 4.62002e-06)
(0 -0 4.49901e-06)
(0 -0 4.31688e-06)
(0 -0 4.07241e-06)
(0 -0 3.76545e-06)
(0 -0 3.39555e-06)
(0 -0 2.95741e-06)
(0 -0 2.42369e-06)
(0 -0 1.68379e-06)
(0 -0 3.22491e-07)
(0 -0 -3.18271e-06)
(0 -0 -1.43903e-05)
(0 -0 -5.36443e-05)
(0 -0 -0.000195716)
(0 6.41271e-22 -0.000736256)
(0 -0 -2.26499e-06)
(0 -0 -1.19299e-06)
(0 -0 -9.38416e-08)
(0 -0 4.30781e-07)
(0 -0 7.08108e-07)
(0 -0 9.95949e-07)
(0 -0 1.29032e-06)
(0 -0 1.58868e-06)
(0 -0 1.88806e-06)
(0 -0 2.18492e-06)
(0 -0 2.4753e-06)
(0 -0 2.7548e-06)
(0 -0 3.01875e-06)
(0 -0 3.26211e-06)
(0 -0 3.47969e-06)
(0 -0 3.66627e-06)
(0 -0 3.81658e-06)
(0 -0 3.92559e-06)
(0 -0 3.98852e-06)
(0 -0 4.00123e-06)
(0 -0 3.96026e-06)
(0 -0 3.86322e-06)
(0 -0 3.70862e-06)
(0 -0 3.49598e-06)
(0 -0 3.22462e-06)
(0 -0 2.8897e-06)
(0 -0 2.46717e-06)
(0 -0 1.85999e-06)
(0 -0 7.05102e-07)
(0 -0 -2.32651e-06)
(0 -0 -1.2077e-05)
(0 -0 -4.62259e-05)
(0 -0 -0.000169567)
(0 -2.88664e-22 -0.000635983)
(0 -0 -3.95501e-06)
(0 -0 -2.85321e-06)
(0 -0 -1.72172e-06)
(0 -0 -1.16637e-06)
(0 -0 -8.58625e-07)
(0 -0 -5.38982e-07)
(0 -0 -2.11215e-07)
(0 -0 1.22374e-07)
(0 -0 4.59112e-07)
(0 -0 7.95789e-07)
(0 -0 1.12881e-06)
(0 -0 1.45407e-06)
(0 -0 1.76719e-06)
(0 -0 2.0635e-06)
(0 -0 2.33814e-06)
(0 -0 2.58616e-06)
(0 -0 2.80257e-06)
(0 -0 2.9825e-06)
(0 -0 3.12137e-06)
(0 -0 3.21503e-06)
(0 -0 3.26007e-06)
(0 -0 3.25379e-06)
(0 -0 3.1945e-06)
(0 -0 3.0813e-06)
(0 -0 2.91325e-06)
(0 -0 2.68585e-06)
(0 -0 2.37784e-06)
(0 -0 1.90465e-06)
(0 -0 9.50862e-07)
(0 -0 -1.63531e-06)
(0 -0 -1.00411e-05)
(0 -0 -3.95141e-05)
(0 -0 -0.000145765)
(0 2.49219e-22 -0.000545066)
(0 -0 -5.93504e-06)
(0 -0 -4.80158e-06)
(0 -0 -3.63557e-06)
(0 -0 -3.04639e-06)
(0 -0 -2.70445e-06)
(0 -0 -2.34882e-06)
(0 -0 -1.98316e-06)
(0 -0 -1.60951e-06)
(0 -0 -1.23028e-06)
(0 -0 -8.48353e-07)
(0 -0 -4.67073e-07)
(0 -0 -9.01725e-08)
(0 -0 2.78241e-07)
(0 -0 6.33849e-07)
(0 -0 9.72105e-07)
(0 -0 1.28827e-06)
(0 -0 1.57763e-06)
(0 -0 1.83548e-06)
(0 -0 2.05737e-06)
(0 -0 2.23911e-06)
(0 -0 2.37718e-06)
(0 -0 2.4686e-06)
(0 -0 2.51142e-06)
(0 -0 2.50435e-06)
(0 -0 2.44602e-06)
(0 -0 2.33205e-06)
(0 -0 2.14366e-06)
(0 -0 1.80768e-06)
(0 -0 1.05235e-06)
(0 -0 -1.11199e-06)
(0 -0 -8.27335e-06)
(0 -0 -3.34581e-05)
(0 -0 -0.000124104)
(0 -2.64254e-23 -0.000462609)
(0 -0 -8.22474e-06)
(0 -0 -7.05818e-06)
(0 -0 -5.85591e-06)
(0 -0 -5.23025e-06)
(0 -0 -4.85083e-06)
(0 -0 -4.45561e-06)
(0 -0 -4.04802e-06)
(0 -0 -3.62989e-06)
(0 -0 -3.20336e-06)
(0 -0 -2.77105e-06)
(0 -0 -2.33605e-06)
(0 -0 -1.90175e-06)
(0 -0 -1.47189e-06)
(0 -0 -1.05057e-06)
(0 -0 -6.42028e-07)
(0 -0 -2.50733e-07)
(0 -0 1.18796e-07)
(0 -0 4.62055e-07)
(0 -0 7.74534e-07)
(0 -0 1.05209e-06)
(0 -0 1.29093e-06)
(0 -0 1.48797e-06)
(0 -0 1.64079e-06)
(0 -0 1.74755e-06)
(0 -0 1.80647e-06)
(0 -0 1.81313e-06)
(0 -0 1.75096e-06)
(0 -0 1.55705e-06)
(0 -0 9.99483e-07)
(0 -0 -7.62889e-07)
(0 -0 -6.76946e-06)
(0 -0 -2.80173e-05)
(0 -0 -0.000104406)
(0 -1.80705e-23 -0.000387822)
(0 -0 -1.08367e-05)
(0 -0 -9.636e-06)
(0 -0 -8.3962e-06)
(0 -0 -7.73197e-06)
(0 -0 -7.31238e-06)
(0 -0 -6.87446e-06)
(0 -0 -6.42144e-06)
(0 -0 -5.95492e-06)
(0 -0 -5.47682e-06)
(0 -0 -4.98949e-06)
(0 -0 -4.49567e-06)
(0 -0 -3.9985e-06)
(0 -0 -3.50141e-06)
(0 -0 -3.00818e-06)
(0 -0 -2.5228e-06)
(0 -0 -2.04943e-06)
(0 -0 -1.59246e-06)
(0 -0 -1.15631e-06)
(0 -0 -7.45476e-07)
(0 -0 -3.64103e-07)
(0 -0 -1.61793e-08)
(0 -0 2.94842e-07)
(0 -0 5.66045e-07)
(0 -0 7.95016e-07)
(0 -0 9.79476e-07)
(0 -0 1.11486e-06)
(0 -0 1.18644e-06)
(0 -0 1.14049e-06)
(0 -0 7.81516e-07)
(0 -0 -5.95661e-07)
(0 -0 -5.52834e-06)
(0 -0 -2.31597e-05)
(0 -0 -8.65198e-05)
(0 -1.79726e-22 -0.000320012)
(0 -0 -1.37745e-05)
(0 -0 -1.25392e-05)
(0 -0 -1.12612e-05)
(0 -0 -1.05569e-05)
(0 -0 -1.0095e-05)
(0 -0 -9.61189e-06)
(0 -0 -9.11057e-06)
(0 -0 -8.59241e-06)
(0 -0 -8.05909e-06)
(0 -0 -7.51265e-06)
(0 -0 -6.95553e-06)
(0 -0 -6.3906e-06)
(0 -0 -5.82099e-06)
(0 -0 -5.25011e-06)
(0 -0 -4.68169e-06)
(0 -0 -4.11973e-06)
(0 -0 -3.5684e-06)
(0 -0 -3.0321e-06)
(0 -0 -2.51518e-06)
(0 -0 -2.02204e-06)
(0 -0 -1.55681e-06)
(0 -0 -1.12341e-06)
(0 -0 -7.25291e-07)
(0 -0 -3.65412e-07)
(0 -0 -4.67507e-08)
(0 -0 2.25836e-07)
(0 -0 4.39138e-07)
(0 -0 5.47667e-07)
(0 -0 3.89121e-07)
(0 -0 -6.17394e-07)
(0 -0 -4.55032e-06)
(0 -0 -1.88601e-05)
(0 -0 -7.03173e-05)
(0 -6.37903e-23 -0.00025858)
(0 -0 -1.70318e-05)
(0 -0 -1.57621e-05)
(0 -0 -1.44457e-05)
(0 -0 -1.37003e-05)
(0 -0 -1.31946e-05)
(0 -0 -1.26645e-05)
(0 -0 -1.21127e-05)
(0 -0 -1.15404e-05)
(0 -0 -1.09489e-05)
(0 -0 -1.03401e-05)
(0 -0 -9.71595e-06)
(0 -0 -9.0791e-06)
(0 -0 -8.43234e-06)
(0 -0 -7.77877e-06)
(0 -0 -7.12185e-06)
(0 -0 -6.46538e-06)
(0 -0 -5.81335e-06)
(0 -0 -5.17006e-06)
(0 -0 -4.53992e-06)
(0 -0 -3.92746e-06)
(0 -0 -3.33712e-06)
(0 -0 -2.77322e-06)
(0 -0 -2.23976e-06)
(0 -0 -1.74045e-06)
(0 -0 -1.27907e-06)
(0 -0 -8.60813e-07)
(0 -0 -4.9774e-07)
(0 -0 -2.27962e-07)
(0 -0 -1.83842e-07)
(0 -0 -8.33099e-07)
(0 -0 -3.83597e-06)
(0 -0 -1.51002e-05)
(0 -0 -5.56986e-05)
(0 6.4235e-23 -0.000203036)
(0 -0 -2.05916e-05)
(0 -0 -1.9288e-05)
(0 -0 -1.79335e-05)
(0 -0 -1.71465e-05)
(0 -0 -1.65962e-05)
(0 -0 -1.60179e-05)
(0 -0 -1.54143e-05)
(0 -0 -1.47862e-05)
(0 -0 -1.41346e-05)
(0 -0 -1.34609e-05)
(0 -0 -1.27669e-05)
(0 -0 -1.20549e-05)
(0 -0 -1.13273e-05)
(0 -0 -1.05869e-05)
(0 -0 -9.83686e-06)
(0 -0 -9.0808e-06)
(0 -0 -8.32256e-06)
(0 -0 -7.56627e-06)
(0 -0 -6.81655e-06)