/*--------------------------------*- C++ -*----------------------------------*\
| =========                 |                                                 |
| \\      /  F ield         | OpenFOAM: The Open Source CFD Toolbox           |
|  \\    /   O peration     | Version:  2412                                  |
|   \\  /    A nd           | Website:  www.openfoam.com                      |
|    \\/     M anipulation  |                                                 |
\*---------------------------------------------------------------------------*/
FoamFile
{
    version     2.0;
    format      ascii;
    arch        "LSB;label=32;scalar=64";
    class       volScalarField;
    location    "16.5";
    object      p;
}
// * * * * * * * * * * * * * * * * * * * * * * * * * * * * * * * * * * * * * //

dimensions      [0 2 -2 0 0 0 0];

internalField   nonuniform List<scalar> 
63420
(
0.00095749
0.000957748
0.00095857
0.000959838
0.000961536
0.000963652
0.000966168
0.00096907
0.000972347
0.000975988
0.00097998
0.000984315
0.000988984
0.000993981
0.000999303
0.00100495
0.00101092
0.0010172
0.00102382
0.00103075
0.00103801
0.0010456
0.00105351
0.00106175
0.00107032
0.00107922
0.00108846
0.00109803
0.00110793
0.00111818
0.00112878
0.00113972
0.00115101
0.00116265
0.00117465
0.00118701
0.00119974
0.00121283
0.0012263
0.00124014
0.00125437
0.00126898
0.00128398
0.00129937
0.00131516
0.00133136
0.00134796
0.00136497
0.0013824
0.00140025
0.00141853
0.00143724
0.00145638
0.00147597
0.001496
0.000957431
0.000957689
0.000958509
0.000959777
0.000961474
0.000963588
0.000966102
0.000969002
0.000972277
0.000975915
0.000979904
0.000984236
0.000988901
0.000993894
0.000999212
0.00100485
0.00101081
0.0010171
0.00102371
0.00103064
0.00103789
0.00104547
0.00105337
0.0010616
0.00107017
0.00107906
0.00108828
0.00109784
0.00110774
0.00111797
0.00112855
0.00113948
0.00115076
0.00116239
0.00117437
0.00118671
0.00119942
0.0012125
0.00122595
0.00123977
0.00125397
0.00126856
0.00128353
0.0012989
0.00131466
0.00133082
0.00134739
0.00136437
0.00138176
0.00139957
0.00141781
0.00143647
0.00145557
0.00147511
0.00149509
0.000957312
0.000957569
0.000958389
0.000959654
0.000961349
0.00096346
0.00096597
0.000968866
0.000972136
0.000975768
0.000979752
0.000984077
0.000988735
0.00099372
0.000999029
0.00100466
0.00101061
0.00101689
0.00102348
0.0010304
0.00103764
0.0010452
0.00105309
0.00106131
0.00106985
0.00107873
0.00108793
0.00109747
0.00110734
0.00111756
0.00112811
0.00113901
0.00115026
0.00116186
0.00117381
0.00118612
0.00119879
0.00121183
0.00122524
0.00123902
0.00125317
0.00126771
0.00128263
0.00129794
0.00131365
0.00132975
0.00134625
0.00136316
0.00138048
0.00139822
0.00141637
0.00143495
0.00145395
0.00147339
0.00149327
0.000957133
0.000957391
0.000958208
0.000959471
0.000961162
0.000963269
0.000965773
0.000968663
0.000971925
0.000975549
0.000979524
0.000983838
0.000988485
0.000993459
0.000998755
0.00100437
0.00101031
0.00101657
0.00102315
0.00103005
0.00103727
0.00104481
0.00105268
0.00106087
0.00106938
0.00107823
0.0010874
0.00109691
0.00110675
0.00111693
0.00112745
0.00113831
0.00114951
0.00116107
0.00117297
0.00118523
0.00119785
0.00121083
0.00122417
0.00123789
0.00125198
0.00126644
0.00128129
0.00129652
0.00131213
0.00132814
0.00134455
0.00136136
0.00137857
0.00139619
0.00141422
0.00143267
0.00145154
0.00147083
0.00149054
0.000956896
0.000957152
0.000957968
0.000959227
0.000960913
0.000963014
0.000965511
0.000968392
0.000971645
0.000975258
0.00097922
0.000983521
0.000988154
0.000993111
0.000998391
0.00100399
0.00100991
0.00101614
0.0010227
0.00102957
0.00103677
0.00104428
0.00105212
0.00106028
0.00106876
0.00107757
0.00108671
0.00109617
0.00110597
0.0011161
0.00112657
0.00113737
0.00114852
0.00116001
0.00117185
0.00118405
0.00119659
0.0012095
0.00122276
0.00123639
0.00125039
0.00126476
0.0012795
0.00129462
0.00131013
0.00132601
0.00134229
0.00135896
0.00137603
0.0013935
0.00141137
0.00142964
0.00144833
0.00146742
0.00148693
0.000956599
0.000956855
0.000957667
0.000958922
0.000960603
0.000962695
0.000965183
0.000968054
0.000971294
0.000974893
0.00097884
0.000983125
0.000987739
0.000992678
0.000997936
0.00100351
0.00100941
0.00101561
0.00102214
0.00102899
0.00103615
0.00104363
0.00105142
0.00105954
0.00106798
0.00107675
0.00108583
0.00109525
0.00110499
0.00111506
0.00112546
0.0011362
0.00114728
0.0011587
0.00117046
0.00118257
0.00119503
0.00120784
0.001221
0.00123452
0.00124841
0.00126266
0.00127728
0.00129226
0.00130763
0.00132337
0.00133948
0.00135599
0.00137288
0.00139015
0.00140782
0.00142588
0.00144434
0.0014632
0.00148245
0.000956244
0.000956499
0.000957307
0.000958557
0.00096023
0.000962313
0.000964791
0.000967648
0.000970874
0.000974457
0.000978386
0.000982651
0.000987243
0.000992158
0.000997391
0.00100294
0.0010088
0.00101498
0.00102147
0.00102828
0.0010354
0.00104284
0.00105059
0.00105866
0.00106705
0.00107576
0.00108479
0.00109414
0.00110382
0.00111382
0.00112415
0.00113481
0.0011458
0.00115713
0.0011688
0.00118081
0.00119316
0.00120586
0.0012189
0.0012323
0.00124605
0.00126016
0.00127462
0.00128945
0.00130464
0.0013202
0.00133613
0.00135244
0.00136911
0.00138617
0.0014036
0.00142141
0.0014396
0.00145817
0.00147712
0.00151654
0.00153781
0.00155999
0.00158315
0.00160732
0.00163259
0.00165901
0.00168665
0.0017156
0.00174594
0.00177775
0.00181114
0.00184621
0.00188307
0.00192186
0.00196271
0.00200577
0.0020512
0.00209918
0.0021499
0.00220359
0.00226048
0.00232082
0.00238491
0.00245306
0.00252562
0.00260298
0.00268556
0.00277384
0.00286835
0.00296966
0.00307841
0.00319529
0.00332108
0.00345659
0.00360267
0.00376023
0.0039301
0.00411305
0.00430956
0.00451968
0.0047427
0.0049768
0.00521884
0.00546458
0.00570959
0.00594962
0.00619077
0.00650004
0.00697015
0.0015156
0.00153687
0.00155906
0.00158221
0.00160638
0.00163164
0.00165806
0.0016857
0.00171464
0.00174497
0.00177678
0.00181016
0.00184521
0.00188207
0.00192084
0.00196167
0.0020047
0.0020501
0.00209804
0.00214872
0.00220235
0.00225917
0.00231943
0.00238341
0.00245142
0.00252382
0.00260097
0.0026833
0.00277127
0.00286538
0.00296619
0.00307432
0.00319042
0.0033152
0.00344941
0.00359384
0.00374925
0.00391634
0.00409565
0.00428741
0.0044913
0.00470614
0.00492954
0.00515759
0.00538517
0.0056069
0.00581798
0.00602363
0.0062866
0.00669266
0.00151373
0.001535
0.00155717
0.00158031
0.00160448
0.00162974
0.00165615
0.00168378
0.00171272
0.00174303
0.00177483
0.00180819
0.00184323
0.00188005
0.0019188
0.00195959
0.00200257
0.00204791
0.00209578
0.00214636
0.00219988
0.00225656
0.00231664
0.00238041
0.00244816
0.00252023
0.00259699
0.00267882
0.00276617
0.00285951
0.00295935
0.00306625
0.00318079
0.00330359
0.00343526
0.00357642
0.00372759
0.00388916
0.00406126
0.00424355
0.00443499
0.00463344
0.00483531
0.00503518
0.00522609
0.00540074
0.00555344
0.0056879
0.00585413
0.00614481
0.00151092
0.00153218
0.00155435
0.00157748
0.00160163
0.00162688
0.00165328
0.00168089
0.00170981
0.00174011
0.00177188
0.00180521
0.00184022
0.001877
0.00191569
0.00195642
0.00199932
0.00204457
0.00209231
0.00214276
0.0021961
0.00225255
0.00231237
0.0023758
0.00244315
0.00251472
0.00259086
0.00267193
0.00275832
0.00285048
0.00294883
0.00305386
0.00316604
0.00328584
0.00341368
0.00354991
0.00369471
0.00384802
0.00400933
0.0041775
0.00435038
0.0045244
0.00469415
0.00485197
0.00498818
0.00509245
0.00515768
0.00518885
0.00522042
0.00530763
0.00150719
0.00152845
0.0015506
0.00157372
0.00159787
0.00162311
0.00164949
0.0016771
0.001706
0.00173628
0.00176803
0.00180133
0.0018363
0.00187304
0.00191167
0.00195232
0.00199514
0.00204026
0.00208787
0.00213813
0.00219125
0.00224742
0.0023069
0.00236991
0.00243673
0.00250765
0.00258298
0.00266304
0.00274817
0.00283875
0.00293513
0.00303766
0.00314667
0.00326242
0.00338508
0.00351463
0.00365081
0.0037929
0.00393958
0.00408858
0.00423633
0.00437738
0.00450394
0.00460547
0.00466887
0.00467984
0.00462843
0.00452269
0.004386
0.00415902
0.00150257
0.00152382
0.00154598
0.00156911
0.00159328
0.00161853
0.00164494
0.00167257
0.0017015
0.00173181
0.00176359
0.00179693
0.00183193
0.0018687
0.00190736
0.00194803
0.00199086
0.00203598
0.00208357
0.00213379
0.00218684
0.00224291
0.00230222
0.00236502
0.00243154
0.00250206
0.00257685
0.0026562
0.0027404
0.00282974
0.00292448
0.00302485
0.00313099
0.00324293
0.00336049
0.00348318
0.00361007
0.00373952
0.00386889
0.00399417
0.00410937
0.00420596
0.00427224
0.00429304
0.00425004
0.00412363
0.0038992
0.00358566
0.00319834
0.002547
0.00149702
0.00151821
0.00154031
0.00156339
0.0015875
0.00161271
0.00163906
0.00166665
0.00169553
0.00172579
0.00175752
0.00179081
0.00182575
0.00186246
0.00190105
0.00194165
0.00198439
0.00202942
0.00207689
0.00212698
0.00217985
0.00223572
0.00229479
0.00235727
0.00242341
0.00249345
0.00256763
0.00264621
0.00272943
0.0028175
0.0029106
0.00300883
0.00311215
0.00322035
0.0033329
0.00344879
0.00356635
0.00368283
0.00379401
0.00389351
0.00397211
0.00401686
0.00401043
0.0039311
0.00375357
0.00345056
0.00300376
0.00242668
0.00168392
0.000479633
-0.00346372
-0.00353184
-0.0035423
-0.00350978
-0.00344679
-0.00335611
-0.0032418
-0.00310558
-0.00295049
-0.00277993
-0.00259724
-0.00240589
-0.00220924
-0.00201062
-0.0018131
-0.00161947
-0.00143215
-0.00125319
-0.00108423
-0.000926529
-0.000780942
-0.000647974
-0.000527813
-0.000420371
-0.000325317
-0.000242119
-0.000170096
-0.000108469
-5.63876e-05
-1.29644e-05
2.26956e-05
5.14729e-05
7.42146e-05
9.1721e-05
0.000104736
0.000113939
0.000119947
0.000123307
0.000124503
0.000123957
0.000122031
0.000119036
0.000115233
0.00011084
0.000106039
0.000100976
9.57707e-05
9.05168e-05
8.52884e-05
8.01431e-05
-0.00355295
-0.00359647
-0.00359223
-0.0035512
-0.00348257
-0.00338794
-0.00327235
-0.00313529
-0.00297978
-0.00280894
-0.00262607
-0.00243457
-0.00223763
-0.00203856
-0.00184041
-0.00164596
-0.00145766
-0.00127759
-0.00110741
-0.000948395
-0.000801448
-0.000667096
-0.000545551
-0.000436745
-0.000340369
-0.000255901
-0.000182674
-0.000119912
-6.67692e-05
-2.23616e-05
1.42066e-05
4.38174e-05
6.7321e-05
8.5521e-05
9.91651e-05
0.000108939
0.000115461
0.000119284
0.000120898
0.000120726
0.000119136
0.000116442
0.000112909
0.000108758
0.000104173
9.93032e-05
9.427e-05
8.91702e-05
8.40792e-05
7.9058e-05
-0.00373102
-0.00372309
-0.00369016
-0.00363219
-0.00355177
-0.00344798
-0.00333084
-0.00319218
-0.00303588
-0.00286425
-0.00268143
-0.0024897
-0.00229231
-0.00209247
-0.0018932
-0.00169729
-0.0015072
-0.00132505
-0.00115256
-0.000991066
-0.000841522
-0.000704514
-0.0005803
-0.000468857
-0.000369911
-0.000282977
-0.000207401
-0.000142422
-8.72048e-05
-4.0869e-05
-2.51974e-06
2.87278e-05
5.37285e-05
7.32928e-05
8.8176e-05
9.90716e-05
0.000106608
0.000111345
0.000113781
0.000114348
0.000113422
0.000111323
0.000108322
0.000104647
0.000100487
9.59976e-05
9.13041e-05
8.65077e-05
8.16873e-05
7.69107e-05
-0.00400377
-0.00390285
-0.00383286
-0.00374955
-0.00365334
-0.00354678
-0.00341584
-0.00327175
-0.00311447
-0.00294284
-0.00275966
-0.00256764
-0.00236974
-0.00216897
-0.00196827
-0.00177042
-0.0015779
-0.00139291
-0.00121722
-0.00105227
-0.000899088
-0.000758337
-0.000630347
-0.000515159
-0.000412555
-0.000322094
-0.000243155
-0.000174998
-0.0001168
-6.76911e-05
-2.67766e-05
6.83096e-06
3.39927e-05
5.5528e-05
7.22027e-05
8.47218e-05
9.37254e-05
9.97869e-05
0.000103414
0.000105053
0.000105088
0.000103851
0.000101621
9.86371e-05
9.50944e-05
9.11559e-05
8.69546e-05
8.25976e-05
7.81696e-05
7.3748e-05
-0.00434495
-0.00413673
-0.00401577
-0.00389598
-0.00377567
-0.00365443
-0.0035178
-0.00336989
-0.00320962
-0.00303694
-0.00285347
-0.00266135
-0.00246313
-0.0022616
-0.00205957
-0.00185977
-0.00166471
-0.00147661
-0.00129736
-0.00112847
-0.000971065
-0.000825919
-0.000693446
-0.00057376
-0.000466722
-0.000371951
-0.00028887
-0.000216772
-0.000154858
-0.000102268
-5.81178e-05
-2.15185e-05
8.39568e-06
3.24521e-05
5.14274e-05
6.6039e-05
7.69401e-05
8.47181e-05
8.98949e-05
9.29288e-05
9.42183e-05
9.41067e-05
9.28864e-05
9.08049e-05
8.80691e-05
8.48511e-05
8.12923e-05
7.75079e-05
7.35911e-05
6.96304e-05
-0.00470457
-0.00442368
-0.00423735
-0.00406845
-0.00391507
-0.00377369
-0.00362503
-0.00346981
-0.00330578
-0.00313202
-0.00294899
-0.00275802
-0.00256107
-0.0023605
-0.00215887
-0.00195873
-0.00176253
-0.00157251
-0.0013906
-0.00121839
-0.00105715
-0.000907739
-0.000770703
-0.000646265
-0.000534378
-0.000434753
-0.0003469
-0.000270161
-0.000203787
-0.000146952
-9.87936e-05
-5.84376e-05
-2.50243e-05
2.27306e-06
2.42353e-05
4.15875e-05
5.49929e-05
6.50507e-05
7.22957e-05
7.71997e-05
8.01751e-05
8.15788e-05
8.1717e-05
8.08499e-05
7.91974e-05
7.69434e-05
7.42408e-05
7.1215e-05
6.79708e-05
6.4606e-05
-0.00504902
-0.00477764
-0.00452593
-0.00429318
-0.00411269
-0.00393391
-0.00376473
-0.00359732
-0.00342624
-0.00324912
-0.00306506
-0.00287434
-0.00267809
-0.00247809
-0.0022765
-0.00207564
-0.00187785
-0.00168533
-0.00150009
-0.00132381
-0.00115787
-0.00100329
-0.000860731
-0.000730561
-0.000612848
-0.000507407
-0.000413837
-0.000331563
-0.000259885
-0.000198019
-0.00014513
-0.000100359
-6.28519e-05
-3.17809e-05
-6.35858e-06
1.4151e-05
3.04252e-05
4.30792e-05
5.26652e-05
5.96731e-05
6.45334e-05
6.76209e-05
6.92594e-05
6.97258e-05
6.9256e-05
6.80488e-05
6.62708e-05
6.40604e-05
6.15341e-05
5.87931e-05
7.51126e-05
7.01519e-05
6.52757e-05
6.05215e-05
5.59088e-05
5.14528e-05
4.71661e-05
4.30579e-05
3.9134e-05
3.53978e-05
3.18508e-05
2.84927e-05
2.53218e-05
2.23352e-05
1.95291e-05
1.6899e-05
1.44396e-05
1.21456e-05
1.00112e-05
8.03037e-06
6.19732e-06
4.50624e-06
2.95148e-06
1.52755e-06
2.29143e-07
-9.48998e-07
-2.01208e-06
-2.96538e-06
-3.81424e-06
-4.56419e-06
-5.22086e-06
-5.79001e-06
-6.2774e-06
-6.68871e-06
-7.02956e-06
-7.30539e-06
-7.52142e-06
-7.68257e-06
-7.79351e-06
-7.85864e-06
-7.88214e-06
-7.86783e-06
-7.81952e-06
-7.74026e-06
-7.63407e-06
-7.50335e-06
-7.35098e-06
-7.17998e-06
-6.99278e-06
-6.79177e-06
-6.57916e-06
-6.35701e-06
-6.12728e-06
-5.89177e-06
-5.65214e-06
-5.40989e-06
-5.16643e-06
-4.92306e-06
-4.68096e-06
-4.44114e-06
-4.20455e-06
-3.97202e-06
-3.74431e-06
-3.52205e-06
-3.3058e-06
-3.09605e-06
-2.89322e-06
-2.69759e-06
-2.50942e-06
-2.32894e-06
-2.15631e-06
-1.99155e-06
-1.83468e-06
-1.68571e-06
-1.54461e-06
-1.41128e-06
-1.28555e-06
-1.16728e-06
-1.05631e-06
-9.52428e-07
-8.55339e-07
-7.64853e-07
-6.80635e-07
-6.0268e-07
-5.30162e-07
-4.6388e-07
-4.01374e-07
-3.46673e-07
-2.91139e-07
-2.50066e-07
-1.94583e-07
-1.75512e-07
-1.03763e-07
-1.29449e-07
-4.69599e-09
-1.24991e-07
1.23489e-07
-1.80464e-07
3.01369e-07
-3.05903e-07
5.2854e-07
-4.74339e-07
7.51795e-07
-5.94293e-07
8.52114e-07
-5.25136e-07
6.98912e-07
-1.74255e-07
2.80772e-07
3.62102e-07
-1.82958e-07
7.57476e-07
-3.09498e-07
6.33315e-07
1.85031e-07
7.41573e-05
6.92775e-05
6.44736e-05
5.97912e-05
5.52454e-05
5.08506e-05
4.66197e-05
4.25625e-05
3.8685e-05
3.4991e-05
3.14824e-05
2.81592e-05
2.50199e-05
2.20621e-05
1.92821e-05
1.66758e-05
1.42381e-05
1.19638e-05
9.8473e-06
7.88285e-06
6.06472e-06
4.38724e-06
2.84487e-06
1.43222e-06
1.4405e-07
-1.02482e-06
-2.07953e-06
-3.02527e-06
-3.86736e-06
-4.61124e-06
-5.2625e-06
-5.82683e-06
-6.30991e-06
-6.71739e-06
-7.05482e-06
-7.3276e-06
-7.5409e-06
-7.69961e-06
-7.80838e-06
-7.87156e-06
-7.89333e-06
-7.87747e-06
-7.82778e-06
-7.74729e-06
-7.64001e-06
-7.50833e-06
-7.35511e-06
-7.18335e-06
-6.99551e-06
-6.79392e-06
-6.58082e-06
-6.35824e-06
-6.12814e-06
-5.89231e-06
-5.65242e-06
-5.40994e-06
-5.16629e-06
-4.92277e-06
-4.68054e-06
-4.44063e-06
-4.20395e-06
-3.97137e-06
-3.74361e-06
-3.52132e-06
-3.30506e-06
-3.09531e-06
-2.89248e-06
-2.69686e-06
-2.50871e-06
-2.32825e-06
-2.15564e-06
-1.99091e-06
-1.83407e-06
-1.68513e-06
-1.54407e-06
-1.41077e-06
-1.28507e-06
-1.16684e-06
-1.0559e-06
-9.52043e-07
-8.54984e-07
-7.64528e-07
-6.80339e-07
-6.0241e-07
-5.29916e-07
-4.63656e-07
-4.01171e-07
-3.46488e-07
-2.90975e-07
-2.49914e-07
-1.94457e-07
-1.75387e-07
-1.03672e-07
-1.2934e-07
-4.64008e-09
-1.24893e-07
1.23508e-07
-1.80368e-07
3.01356e-07
-3.05804e-07
5.28509e-07
-4.7425e-07
7.51772e-07
-5.94255e-07
8.52145e-07
-5.25177e-07
6.98993e-07
-1.74335e-07
2.80861e-07
3.62018e-07
-1.82875e-07
7.57411e-07
-3.09371e-07
6.33136e-07
1.85169e-07
7.22575e-05
6.75391e-05
6.28805e-05
5.83408e-05
5.39277e-05
4.9654e-05
4.55338e-05
4.15776e-05
3.77922e-05
3.4182e-05
3.07495e-05
2.74955e-05
2.44191e-05
2.15184e-05
1.87905e-05
1.62314e-05
1.38368e-05
1.16017e-05
9.52085e-06
7.58896e-06
5.80052e-06
4.15011e-06
2.6324e-06
1.2422e-06
-2.55875e-08
-1.17599e-06
-2.21401e-06
-3.14472e-06
-3.97332e-06
-4.70513e-06
-5.3456e-06
-5.9003e-06
-6.3748e-06
-6.77463e-06
-7.10524e-06
-7.37193e-06
-7.57979e-06
-7.73364e-06
-7.83806e-06
-7.89737e-06
-7.91566e-06
-7.89671e-06
-7.84426e-06
-7.76133e-06
-7.65188e-06
-7.51826e-06
-7.36334e-06
-7.19009e-06
-7.00095e-06
-6.79822e-06
-6.58412e-06
-6.3607e-06
-6.12986e-06
-5.89341e-06
-5.65297e-06
-5.41004e-06
-5.16602e-06
-4.92219e-06
-4.67971e-06
-4.43959e-06
-4.20276e-06
-3.97006e-06
-3.74222e-06
-3.51987e-06
-3.30358e-06
-3.09382e-06
-2.89099e-06
-2.69539e-06
-2.50728e-06
-2.32687e-06
-2.15431e-06
-1.98963e-06
-1.83285e-06
-1.68398e-06
-1.54298e-06
-1.40974e-06
-1.28411e-06
-1.16595e-06
-1.05507e-06
-9.51272e-07
-8.54273e-07
-7.6388e-07
-6.79749e-07
-6.01869e-07
-5.29424e-07
-4.63209e-07
-4.00768e-07
-3.46115e-07
-2.90642e-07
-2.49606e-07
-1.94205e-07
-1.75141e-07
-1.03494e-07
-1.29121e-07
-4.53174e-09
-1.24687e-07
1.23531e-07
-1.80165e-07
3.01312e-07
-3.05596e-07
5.2844e-07
-4.74078e-07
7.51738e-07
-5.94183e-07
8.52198e-07
-5.25241e-07
6.9914e-07
-1.745e-07
2.81047e-07
3.6185e-07
-1.82715e-07
7.57279e-07
-3.09106e-07
6.32781e-07
1.8545e-07
6.94368e-05
6.49582e-05
6.05182e-05
5.61901e-05
5.19731e-05
4.78784e-05
4.39219e-05
4.0115e-05
3.64657e-05
3.29795e-05
2.96597e-05
2.65082e-05
2.35251e-05
2.07093e-05
1.80585e-05
1.55697e-05
1.3239e-05
1.10621e-05
9.03441e-06
7.15095e-06
5.40669e-06
3.79656e-06
2.31555e-06
9.58747e-07
-2.787e-07
-1.40161e-06
-2.41479e-06
-3.32311e-06
-4.13159e-06
-4.84539e-06
-5.46978e-06
-6.01011e-06
-6.4718e-06
-6.8602e-06
-7.18063e-06
-7.43823e-06
-7.63795e-06
-7.78454e-06
-7.88247e-06
-7.93597e-06
-7.94907e-06
-7.92548e-06
-7.8689e-06
-7.78231e-06
-7.6696e-06
-7.53311e-06
-7.37565e-06
-7.20017e-06
-7.00907e-06
-6.80463e-06
-6.58906e-06
-6.36435e-06
-6.13242e-06
-5.89502e-06
-5.65378e-06
-5.41018e-06
-5.1656e-06
-4.92131e-06
-4.67844e-06
-4.43803e-06
-4.20097e-06
-3.96809e-06
-3.74012e-06
-3.5177e-06
-3.30136e-06
-3.09158e-06
-2.88876e-06
-2.6932e-06
-2.50514e-06
-2.3248e-06
-2.1523e-06
-1.98771e-06
-1.83103e-06
-1.68226e-06
-1.54135e-06
-1.40821e-06
-1.28268e-06
-1.16461e-06
-1.05383e-06
-9.5012e-07
-8.53211e-07
-7.62907e-07
-6.78861e-07
-6.01057e-07
-5.28685e-07
-4.62538e-07
-4.00162e-07
-3.45558e-07
-2.90148e-07
-2.4915e-07
-1.93827e-07
-1.7477e-07
-1.03224e-07
-1.28794e-07
-4.36892e-09
-1.2438e-07
1.23573e-07
-1.79859e-07
3.01254e-07
-3.05291e-07
5.28344e-07
-4.73835e-07
7.51694e-07
-5.94094e-07
8.52286e-07
-5.25353e-07
6.99369e-07
-1.74756e-07
2.8133e-07
3.61601e-07
-1.82476e-07
7.57084e-07
-3.08707e-07
6.32248e-07
1.85891e-07
6.57312e-05
6.15674e-05
5.74189e-05
5.33685e-05
4.94073e-05
4.55464e-05
4.18036e-05
3.81919e-05
3.47205e-05
3.13964e-05
2.82243e-05
2.52072e-05
2.23465e-05
1.96421e-05
1.70927e-05
1.46962e-05
1.24496e-05
1.03495e-05
8.39177e-06
6.57213e-06
4.88609e-06
3.32907e-06
1.89645e-06
5.83698e-07
-6.13725e-07
-1.70035e-06
-2.68072e-06
-3.55948e-06
-4.34139e-06
-5.03138e-06
-5.63447e-06
-6.15579e-06
-6.60051e-06
-6.97377e-06
-7.28068e-06
-7.52621e-06
-7.71516e-06
-7.8521e-06
-7.9414e-06
-7.98718e-06
-7.99339e-06
-7.96366e-06
-7.9016e-06
-7.81014e-06
-7.6931e-06
-7.5528e-06
-7.39197e-06
-7.21353e-06
-7.01983e-06
-6.81313e-06
-6.59558e-06
-6.36918e-06
-6.13578e-06
-5.89714e-06
-5.65483e-06
-5.41033e-06
-5.16501e-06
-4.92011e-06
-4.67675e-06
-4.43593e-06
-4.19856e-06
-3.96546e-06
-3.73732e-06
-3.51479e-06
-3.29839e-06
-3.0886e-06
-2.88579e-06
-2.69027e-06
-2.50229e-06
-2.32203e-06
-2.14964e-06
-1.98515e-06
-1.82859e-06
-1.67995e-06
-1.53918e-06
-1.40616e-06
-1.28077e-06
-1.16283e-06
-1.05218e-06
-9.48586e-07
-8.51796e-07
-7.6161e-07
-6.77676e-07
-5.99973e-07
-5.27699e-07
-4.61642e-07
-3.99353e-07
-3.44818e-07
-2.89492e-07
-2.48544e-07
-1.93322e-07
-1.74275e-07
-1.02862e-07
-1.28362e-07
-4.14656e-09
-1.23978e-07
1.23644e-07
-1.79466e-07
3.01205e-07
-3.04917e-07
5.28255e-07
-4.73562e-07
7.51685e-07
-5.94035e-07
8.52457e-07
-5.25557e-07
6.99713e-07
-1.75121e-07
2.81713e-07
3.61278e-07
-1.82176e-07
7.5685e-07
-3.08196e-07
6.31552e-07
1.86512e-07
6.11852e-05
5.74126e-05
5.36262e-05
4.99143e-05
4.62639e-05
4.26872e-05
3.92043e-05
3.58302e-05
3.25757e-05
2.94494e-05
2.64577e-05
2.36051e-05
2.08942e-05
1.83263e-05
1.59014e-05
1.36183e-05
1.14753e-05
9.46948e-06
7.59785e-06
5.85679e-06
4.24247e-06
2.75087e-06
1.37791e-06
1.19464e-07
-1.0286e-06
-2.07046e-06
-3.01034e-06
-3.85258e-06
-4.60167e-06
-5.26221e-06
-5.83894e-06
-6.3367e-06
-6.76037e-06
-7.11486e-06
-7.40499e-06
-7.63552e-06
-7.81107e-06
-7.93603e-06
-8.01461e-06
-8.05081e-06
-8.04845e-06
-8.01108e-06
-7.94221e-06
-7.8447e-06
-7.72226e-06
-7.57722e-06
-7.41221e-06
-7.23009e-06
-7.03317e-06
-6.82365e-06
-6.60366e-06
-6.37514e-06
-6.13993e-06
-5.89973e-06
-5.6561e-06
-5.41049e-06
-5.16425e-06
-4.91859e-06
-4.67461e-06
-4.4333e-06
-4.19555e-06
-3.96215e-06
-3.73381e-06
-3.51114e-06
-3.29467e-06
-3.08486e-06
-2.88207e-06
-2.68661e-06
-2.49871e-06
-2.31857e-06
-2.1463e-06
-1.98196e-06
-1.82555e-06
-1.67707e-06
-1.53646e-06
-1.40361e-06
-1.27838e-06
-1.16061e-06
-1.05011e-06
-9.46671e-07
-8.5003e-07
-7.5999e-07
-6.76193e-07
-5.98618e-07
-5.26467e-07
-4.60521e-07
-3.98343e-07
-3.43895e-07
-2.88675e-07
-2.47789e-07
-1.92692e-07
-1.73655e-07
-1.02408e-07
-1.27821e-07
-3.8703e-09
-1.23474e-07
1.23733e-07
-1.7897e-07
3.01141e-07
-3.04444e-07
5.28137e-07
-4.73214e-07
7.51662e-07
-5.93953e-07
8.52659e-07
-5.25802e-07
7.00133e-07
-1.75571e-07
2.82188e-07
3.60872e-07
-1.81789e-07
7.56539e-07
-3.0753e-07
6.30658e-07
1.87361e-07
5.58637e-05
5.2551e-05
4.91946e-05
4.58738e-05
4.25822e-05
3.93348e-05
3.61536e-05
3.30555e-05
3.00533e-05
2.71576e-05
2.43765e-05
2.17161e-05
1.91807e-05
1.6773e-05
1.44942e-05
1.23445e-05
1.03231e-05
8.42839e-06
6.6582e-06
5.00977e-06
3.48003e-06
2.06563e-06
7.63057e-07
-4.31261e-07
-1.52102e-06
-2.50998e-06
-3.402e-06
-4.20105e-06
-4.91127e-06
-5.5369e-06
-6.08236e-06
-6.55214e-06
-6.95081e-06
-7.28294e-06
-7.55311e-06
-7.76579e-06
-7.92537e-06
-8.03604e-06
-8.10184e-06
-8.12661e-06
-8.11404e-06
-8.06754e-06
-7.99056e-06
-7.88585e-06
-7.75699e-06
-7.6063e-06
-7.4363e-06
-7.24979e-06
-7.04902e-06
-6.83615e-06
-6.61324e-06
-6.3822e-06
-6.14482e-06
-5.90277e-06
-5.65757e-06
-5.41064e-06
-5.16329e-06
-4.91673e-06
-4.67201e-06
-4.43011e-06
-4.19191e-06
-3.95817e-06
-3.72959e-06
-3.50676e-06
-3.2902e-06
-3.08037e-06
-2.87761e-06
-2.68222e-06
-2.49443e-06
-2.31442e-06
-2.1423e-06
-1.97812e-06
-1.8219e-06
-1.67361e-06
-1.5332e-06
-1.40055e-06
-1.27551e-06
-1.15794e-06
-1.04763e-06
-9.44374e-07
-8.47913e-07
-7.58046e-07
-6.74415e-07
-5.96993e-07
-5.24989e-07
-4.59176e-07
-3.97132e-07
-3.42788e-07
-2.877e-07
-2.46879e-07
-1.91946e-07
-1.72895e-07
-1.0189e-07
-1.27132e-07
-3.60329e-09
-1.22774e-07
1.23703e-07
-1.78182e-07
3.00807e-07
-3.03543e-07
5.2758e-07
-4.7231e-07
7.51086e-07
-5.93279e-07
8.52331e-07
-5.25587e-07
7.00236e-07
-1.75863e-07
2.82687e-07
3.60275e-07
-1.81062e-07
7.55811e-07
-3.06365e-07
6.29322e-07
1.88601e-07
4.96601e-05
4.69007e-05
4.40587e-05
4.11865e-05
3.83044e-05
3.54343e-05
3.25994e-05
2.98188e-05
2.71076e-05
2.44783e-05
2.19411e-05
1.95037e-05
1.71722e-05
1.49507e-05
1.28422e-05
1.08481e-05
8.96888e-06
7.2041e-06
5.55262e-06
4.01266e-06
2.58201e-06
1.2581e-06
3.80878e-08
-1.081e-06
-2.10232e-06
-3.02916e-06
-3.86493e-06
-4.61318e-06
-5.27762e-06
-5.86213e-06
-6.37069e-06
-6.80743e-06
-7.17653e-06
-7.48222e-06
-7.72873e-06
-7.92026e-06
-8.0609e-06
-8.15463e-06
-8.20527e-06
-8.21648e-06
-8.1918e-06
-8.13448e-06
-8.04788e-06
-7.93461e-06
-7.79816e-06
-7.64075e-06
-7.46482e-06
-7.2731e-06
-7.06778e-06
-6.85092e-06
-6.62455e-06
-6.39052e-06
-6.15057e-06
-5.90632e-06
-5.65925e-06
-5.41076e-06
-5.16211e-06
-4.91446e-06
-4.66887e-06
-4.42628e-06
-4.18754e-06
-3.9534e-06
-3.72453e-06
-3.50152e-06
-3.28486e-06
-3.075e-06
-2.87227e-06
-2.67697e-06
-2.4893e-06
-2.30945e-06
-2.13752e-06
-1.97354e-06
-1.81754e-06
-1.66949e-06
-1.52931e-06
-1.39689e-06
-1.27209e-06
-1.15475e-06
-1.04467e-06
-9.41633e-07
-8.45386e-07
-7.55725e-07
-6.72291e-07
-5.95052e-07
-5.23225e-07
-4.57569e-07
-3.95688e-07
-3.41464e-07
-2.86543e-07
-2.45785e-07
-1.91072e-07
-1.7196e-07
-1.01317e-07
-1.26237e-07
-3.39703e-09
-1.21769e-07
1.23425e-07
-1.76899e-07
2.99951e-07
-3.01875e-07
5.2618e-07
-4.70364e-07
7.4942e-07
-5.91447e-07
8.50927e-07
-5.24431e-07
6.99654e-07
-1.75786e-07
2.83181e-07
3.59338e-07
-1.79699e-07
7.54286e-07
-3.0431e-07
6.27248e-07
1.90451e-07
4.27011e-05
4.05371e-05
3.82438e-05
3.58686e-05
3.34432e-05
3.09947e-05
2.85481e-05
2.61243e-05
2.37409e-05
2.14126e-05
1.91513e-05
1.69668e-05
1.4867e-05
1.28577e-05
1.09433e-05
9.12676e-06
7.41002e-06
5.79388e-06
4.27836e-06
2.86272e-06
1.54573e-06
3.25664e-07
-7.99551e-07
-1.83221e-06
-2.77488e-06
-3.63027e-06
-4.40129e-06
-5.09102e-06
-5.70269e-06
-6.2397e-06
-6.70562e-06
-7.10411e-06
-7.43894e-06
-7.71395e-06
-7.933e-06
-8.09994e-06
-8.21856e-06
-8.29257e-06
-8.32556e-06
-8.32099e-06
-8.28219e-06
-8.21229e-06
-8.11447e-06
-7.99124e-06
-7.84595e-06
-7.68072e-06
-7.49789e-06
-7.30011e-06
-7.08947e-06
-6.86798e-06
-6.63758e-06
-6.40007e-06
-6.15713e-06
-5.91032e-06
-5.66109e-06
-5.41077e-06
-5.1606e-06
-4.91171e-06
-4.66511e-06
-4.42171e-06
-4.18235e-06
-3.94774e-06
-3.71855e-06
-3.49532e-06
-3.27855e-06
-3.06866e-06
-2.86598e-06
-2.67078e-06
-2.48327e-06
-2.3036e-06
-2.13188e-06
-1.96815e-06
-1.81241e-06
-1.66463e-06
-1.52472e-06
-1.39258e-06
-1.26807e-06
-1.151e-06
-1.04118e-06
-9.38409e-07
-8.42414e-07
-7.52995e-07
-6.69793e-07
-5.9277e-07
-5.21149e-07
-4.55681e-07
-3.93987e-07
-3.39913e-07
-2.85175e-07
-2.44516e-07
-1.90016e-07
-1.70905e-07
-1.00569e-07
-1.253e-07
-2.9801e-09
-1.20843e-07
1.23462e-07
-1.75884e-07
2.99598e-07
-3.00743e-07
5.25543e-07
-4.69251e-07
7.48757e-07
-5.90648e-07
8.50592e-07
-5.24245e-07
6.99895e-07
-1.76289e-07
2.83979e-07
3.58377e-07
-1.78515e-07
7.53051e-07
-3.02413e-07
6.25102e-07
1.92718e-07
3.52284e-05
3.36707e-05
3.1944e-05
3.00933e-05
2.81538e-05
2.61551e-05
2.41241e-05
2.20838e-05
2.00536e-05
1.80504e-05
1.60881e-05
1.41782e-05
1.23304e-05
1.05523e-05
8.84988e-06
7.22764e-06
5.68886e-06
4.23572e-06
2.86943e-06
1.59039e-06
3.98372e-07
-7.07438e-07
-1.72828e-06
-2.66573e-06
-3.52168e-06
-4.29825e-06
-4.99778e-06
-5.62282e-06
-6.17608e-06
-6.66048e-06
-7.07908e-06
-7.43508e-06
-7.73179e-06
-7.97263e-06
-8.16106e-06
-8.30056e-06
-8.39459e-06
-8.44658e-06
-8.45986e-06
-8.43765e-06
-8.38308e-06
-8.29912e-06
-8.18875e-06
-8.05439e-06
-7.89923e-06
-7.72524e-06
-7.53471e-06
-7.33015e-06
-7.11357e-06
-6.8869e-06
-6.652e-06
-6.4106e-06
-6.16432e-06
-5.91465e-06
-5.66299e-06
-5.41064e-06
-5.15878e-06
-4.90849e-06
-4.66076e-06
-4.41648e-06
-4.17642e-06
-3.9413e-06
-3.71174e-06
-3.48828e-06
-3.27139e-06
-3.06148e-06
-2.85885e-06
-2.66377e-06
-2.47643e-06
-2.29698e-06
-2.12551e-06
-1.96206e-06
-1.80661e-06
-1.65913e-06
-1.51954e-06
-1.38772e-06
-1.26352e-06
-1.14676e-06
-1.03725e-06
-9.34768e-07
-8.39058e-07
-7.49912e-07
-6.6697e-07
-5.90192e-07
-5.18805e-07
-4.53549e-07
-3.92065e-07
-3.38166e-07
-2.83625e-07
-2.43092e-07
-1.88809e-07
-1.69739e-07
-9.96851e-08
-1.24301e-07
-2.42241e-09
-1.19922e-07
1.23678e-07
-1.74972e-07
2.99506e-07
-2.99845e-07
5.25277e-07
-4.68516e-07
7.48577e-07
-5.90335e-07
8.50782e-07
-5.24548e-07
7.00578e-07
-1.77141e-07
2.85024e-07
3.57274e-07
-1.77247e-07
7.51757e-07
-3.00337e-07
6.22656e-07
1.95563e-07
2.73144e-05
2.63756e-05
2.52321e-05
2.39262e-05
2.24939e-05
2.09666e-05
1.93727e-05
1.7737e-05
1.60809e-05
1.44229e-05
1.27787e-05
1.11619e-05
9.58369e-06
8.05336e-06
6.57851e-06
5.16519e-06
3.8181e-06
2.54075e-06
1.33561e-06
2.04216e-07
-8.52589e-07
-1.83468e-06
-2.74243e-06
-3.57664e-06
-4.33849e-06
-5.02944e-06
-5.65124e-06
-6.20586e-06
-6.69548e-06
-7.12246e-06
-7.48935e-06
-7.79885e-06
-8.0538e-06
-8.25715e-06
-8.41194e-06
-8.52127e-06
-8.58826e-06
-8.61601e-06
-8.60758e-06
-8.56594e-06
-8.49402e-06
-8.39457e-06
-8.27039e-06
-8.12376e-06
-7.95772e-06
-7.77411e-06
-7.57509e-06
-7.36306e-06
-7.13994e-06
-6.90756e-06
-6.6677e-06
-6.42202e-06
-6.17205e-06
-5.91924e-06
-5.66492e-06
-5.41033e-06
-5.1566e-06
-4.90479e-06
-4.65582e-06
-4.41055e-06
-4.16974e-06
-3.93406e-06
-3.7041e-06
-3.48039e-06
-3.26338e-06
-3.05344e-06
-2.85088e-06
-2.65594e-06
-2.4688e-06
-2.28959e-06
-2.1184e-06
-1.95526e-06
-1.80014e-06
-1.653e-06
-1.51376e-06
-1.3823e-06
-1.25845e-06
-1.14204e-06
-1.03286e-06
-9.3071e-07
-8.35317e-07
-7.46477e-07
-6.63825e-07
-5.87319e-07
-5.16192e-07
-4.51174e-07
-3.89922e-07
-3.3622e-07
-2.81898e-07
-2.41509e-07
-1.87461e-07
-1.68444e-07
-9.86932e-08
-1.23198e-07
-1.78864e-09
-1.1891e-07
1.23935e-07
-1.73968e-07
2.99412e-07
-2.98845e-07
5.24968e-07
-4.67669e-07
7.48328e-07
-5.89927e-07
8.50925e-07
-5.24824e-07
7.01299e-07
-1.78094e-07
2.86247e-07
3.55914e-07
-1.75634e-07
7.50054e-07
-2.97726e-07
6.19652e-07
1.99175e-07
1.90325e-05
1.87259e-05
1.81783e-05
1.74311e-05
1.65209e-05
1.54806e-05
1.43399e-05
1.31251e-05
1.18591e-05
1.05622e-05
9.25191e-06
7.94326e-06
6.64918e-06
5.38059e-06
4.14663e-06
2.95485e-06
1.81134e-06
7.20986e-07
-3.1254e-07
-1.2865e-06
-2.19901e-06
-3.04894e-06
-3.83578e-06
-4.55952e-06
-5.22059e-06
-5.81976e-06
-6.35815e-06
-6.83711e-06
-7.25825e-06
-7.62337e-06
-7.93447e-06
-8.19372e-06
-8.40347e-06
-8.5662e-06
-8.68451e-06
-8.7611e-06
-8.7987e-06
-8.80011e-06
-8.76806e-06
-8.70531e-06
-8.61451e-06
-8.4982e-06
-8.35901e-06
-8.19903e-06
-8.02115e-06
-7.82706e-06
-7.6188e-06
-7.39865e-06
-7.16841e-06
-6.92982e-06
-6.68457e-06
-6.43423e-06
-6.18026e-06
-5.92402e-06
-5.6668e-06
-5.40978e-06
-5.15404e-06
-4.90056e-06
-4.65025e-06
-4.40392e-06
-4.16228e-06
-3.92599e-06
-3.69562e-06
-3.47164e-06
-3.2545e-06