/*--------------------------------*- C++ -*----------------------------------*\
| =========                 |                                                 |
| \\      /  F ield         | OpenFOAM: The Open Source CFD Toolbox           |
|  \\    /   O peration     | Version:  2412                                  |
|   \\  /    A nd           | Website:  www.openfoam.com                      |
|    \\/     M anipulation  |                                                 |
\*---------------------------------------------------------------------------*/
FoamFile
{
    version     2.0;
    format      ascii;
    arch        "LSB;label=32;scalar=64";
    class       surfaceScalarField;
    location    "16.5";
    object      phi;
}
// * * * * * * * * * * * * * * * * * * * * * * * * * * * * * * * * * * * * * //

dimensions      [0 3 -1 0 0 0 0];

oriented        oriented;

internalField   nonuniform List<scalar> 
126304
(
0.00505063
1.28437e-07
3.42687e-12
0.00505025
3.755e-07
3.58455e-11
0.00504965
6.04783e-07
8.5559e-11
0.00504883
8.19068e-07
1.46301e-10
0.00504778
1.04953e-06
1.72842e-10
0.00504642
1.35602e-06
7.44973e-11
0.00504463
1.79474e-06
-2.3485e-10
0.00504225
2.37612e-06
-7.65096e-10
0.00503921
3.04646e-06
-1.41457e-09
0.0050355
3.70636e-06
-1.99946e-09
0.00503125
4.25173e-06
-2.32778e-09
0.00502664
4.61196e-06
-2.27226e-09
0.00502188
4.76784e-06
-1.80747e-09
0.00501713
4.7469e-06
-1.00295e-09
0.00501253
4.60474e-06
1.3509e-11
0.00500812
4.40378e-06
1.10006e-09
0.00500392
4.19729e-06
2.13544e-09
0.0049999
4.02173e-06
3.03729e-09
0.004996
3.89595e-06
3.76477e-09
0.00499217
3.8248e-06
4.31142e-09
0.00498836
3.80406e-06
4.6936e-09
0.00498453
3.82509e-06
4.93926e-09
0.00498065
3.87819e-06
5.07954e-09
0.00497669
3.95453e-06
5.14318e-09
0.00497264
4.04707e-06
5.15403e-09
0.00496848
4.15069e-06
5.12985e-09
0.00496421
4.26199e-06
5.08319e-09
0.00495983
4.37886e-06
5.02204e-09
0.00495532
4.50014e-06
4.95154e-09
0.00495069
4.62528e-06
4.87454e-09
0.00494594
4.75409e-06
4.79268e-09
0.00494104
4.88658e-06
4.70649e-09
0.00493602
5.02288e-06
4.61614e-09
0.00493085
5.16312e-06
4.52161e-09
0.00492554
5.30746e-06
4.42303e-09
0.00492008
5.45602e-06
4.32055e-09
0.00491446
5.60892e-06
4.21411e-09
0.00490869
5.76625e-06
4.1036e-09
0.00490276
5.92809e-06
3.98903e-09
0.00489666
6.09449e-06
3.87057e-09
0.00489039
6.2655e-06
3.74842e-09
0.00488395
6.44117e-06
3.62287e-09
0.00487732
6.62154e-06
3.49412e-09
0.00487051
6.80664e-06
3.36229e-09
0.00486351
6.99652e-06
3.22764e-09
0.00485632
7.19121e-06
3.09058e-09
0.00484893
7.39077e-06
2.9515e-09
0.00484133
7.59525e-06
2.81071e-09
0.00483352
7.80471e-06
2.66859e-09
0.0048255
8.01926e-06
2.52551e-09
0.00481726
8.23905e-06
2.38182e-09
0.00480879
8.46438e-06
2.23789e-09
0.00480009
8.69607e-06
2.09408e-09
0.00479115
8.93639e-06
1.95066e-09
9.19185e-06
0.00478196
1.80791e-09
0.00505063
2.56788e-07
0.00505025
7.50758e-07
0.00504965
1.20929e-06
0.00504883
1.63783e-06
0.00504778
2.09827e-06
0.00504643
2.70958e-06
0.00504464
3.58375e-06
0.00504227
4.74201e-06
0.00503924
6.07806e-06
0.00503555
7.39455e-06
0.00503132
8.48431e-06
0.00502673
9.20643e-06
0.00502197
9.52206e-06
0.00501723
9.48534e-06
0.00501263
9.20644e-06
0.00500823
8.80934e-06
0.00500402
8.4001e-06
0.00499999
8.05143e-06
0.00499609
7.80111e-06
0.00499225
7.65906e-06
0.00498844
7.61713e-06
0.00498461
7.65831e-06
0.00498072
7.76339e-06
0.00497676
7.91488e-06
0.00497271
8.09878e-06
0.00496856
8.30493e-06
0.00496429
8.52652e-06
0.00495991
8.75936e-06
0.00495541
9.0011e-06
0.00495079
9.25062e-06
0.00494603
9.50753e-06
0.00494115
9.77185e-06
0.00493613
1.00438e-05
0.00493097
1.03236e-05
0.00492566
1.06117e-05
0.00492021
1.09081e-05
0.0049146
1.12132e-05
0.00490884
1.15272e-05
0.00490292
1.18501e-05
0.00489683
1.21822e-05
0.00489058
1.25234e-05
0.00488414
1.28739e-05
0.00487753
1.32337e-05
0.00487073
1.3603e-05
0.00486375
1.39817e-05
0.00485657
1.43701e-05
0.00484919
1.47681e-05
0.00484161
1.51758e-05
0.00483382
1.55935e-05
0.00482582
1.60212e-05
0.0048176
1.64594e-05
0.00480916
1.69084e-05
0.00480048
1.737e-05
0.00479157
1.78485e-05
1.83561e-05
0.00478241
0.00505063
3.84959e-07
0.00505025
1.12546e-06
0.00504965
1.81306e-06
0.00504883
2.4557e-06
0.00504779
3.1451e-06
0.00504644
4.05814e-06
0.00504466
5.36197e-06
0.00504231
7.08932e-06
0.00503931
9.08333e-06
0.00503565
1.1051e-05
0.00503145
1.26839e-05
0.00502689
1.3771e-05
0.00502215
1.4253e-05
0.00501743
1.4209e-05
0.00501284
1.3802e-05
0.00500843
1.32161e-05
0.00500422
1.26094e-05
0.00500018
1.20906e-05
0.00499626
1.17168e-05
0.00499242
1.15033e-05
0.0049886
1.14385e-05
0.00498476
1.14976e-05
0.00498087
1.16522e-05
0.00497691
1.18764e-05
0.00497286
1.21493e-05
0.00496871
1.24559e-05
0.00496445
1.27859e-05
0.00496007
1.3133e-05
0.00495558
1.34937e-05
0.00495097
1.38663e-05
0.00494622
1.42501e-05
0.00494135
1.46451e-05
0.00493634
1.50515e-05
0.0049312
1.54699e-05
0.00492591
1.59005e-05
0.00492047
1.63438e-05
0.00491489
1.68e-05
0.00490914
1.72694e-05
0.00490324
1.77522e-05
0.00489718
1.82485e-05
0.00489094
1.87586e-05
0.00488453
1.92825e-05
0.00487794
1.98203e-05
0.00487118
2.03721e-05
0.00486422
2.0938e-05
0.00485707
2.15181e-05
0.00484973
2.21126e-05
0.00484218
2.27216e-05
0.00483443
2.33452e-05
0.00482647
2.39837e-05
0.00481829
2.46376e-05
0.00480989
2.53076e-05
0.00480126
2.59958e-05
0.0047924
2.67084e-05
2.74625e-05
0.0047833
0.00505063
5.12863e-07
0.00505026
1.49932e-06
0.00504965
2.41573e-06
0.00504884
3.27219e-06
0.00504779
4.1891e-06
0.00504645
5.39942e-06
0.00504469
7.12451e-06
0.00504237
9.40967e-06
0.0050394
1.20504e-05
0.00503579
1.46614e-05
0.00503164
1.68354e-05
0.00502712
1.8292e-05
0.00502242
1.895e-05
0.00501772
1.89109e-05
0.00501313
1.83882e-05
0.00500872
1.76241e-05
0.00500451
1.68276e-05
0.00500045
1.61432e-05
0.00499652
1.56473e-05
0.00499267
1.53616e-05
0.00498883
1.52717e-05
0.00498498
1.53455e-05
0.00498109
1.5546e-05
0.00497713
1.58392e-05
0.00497308
1.61978e-05
0.00496893
1.66017e-05
0.00496468
1.70374e-05
0.00496032
1.74963e-05
0.00495584
1.79738e-05
0.00495124
1.84675e-05
0.00494651
1.89763e-05
0.00494166
1.95002e-05
0.00493667
2.00396e-05
0.00493154
2.05948e-05
0.00492628
2.11664e-05
0.00492087
2.17548e-05
0.00491531
2.23604e-05
0.00490959
2.29834e-05
0.00490372
2.36243e-05
0.00489769
2.42831e-05
0.00489148
2.49599e-05
0.00488511
2.5655e-05
0.00487856
2.63685e-05
0.00487183
2.71005e-05
0.00486492
2.7851e-05
0.00485782
2.86202e-05
0.00485052
2.94083e-05
0.00484303
3.02153e-05
0.00483533
3.10416e-05
0.00482743
3.18874e-05
0.00481931
3.27531e-05
0.00481098
3.36397e-05
0.00480243
3.45498e-05
0.00479365
3.54902e-05
3.64816e-05
0.00478463
0.00505063
6.40417e-07
0.00505026
1.87206e-06
0.00504966
3.01692e-06
0.00504884
4.08684e-06
0.0050478
5.22937e-06
0.00504647
6.73132e-06
0.00504473
8.86704e-06
0.00504244
1.16957e-05
0.00503952
1.49688e-05
0.00503597
1.82132e-05
0.00503188
2.09257e-05
0.00502741
2.27572e-05
0.00502276
2.36031e-05
0.00501809
2.35846e-05
0.00501351
2.29619e-05
0.00500911
2.20331e-05
0.00500488
2.10566e-05
0.00500081
2.02121e-05
0.00499686
1.95961e-05
0.00499298
1.92371e-05
0.00498914
1.91191e-05
0.00498528
1.92035e-05
0.00498138
1.94453e-05
0.00497741
1.98031e-05
0.00497337
2.0243e-05
0.00496923
2.07402e-05
0.00496499
2.1278e-05
0.00496064
2.18456e-05
0.00495618
2.24371e-05
0.0049516
2.30492e-05
0.00494689
2.36807e-05
0.00494206
2.43313e-05
0.0049371
2.50013e-05
0.004932
2.56913e-05
0.00492677
2.64017e-05
0.00492139
2.71331e-05
0.00491586
2.78858e-05
0.00491019
2.86602e-05
0.00490435
2.94567e-05
0.00489836
3.02753e-05
0.0048922
3.11163e-05
0.00488588
3.19798e-05
0.00487938
3.2866e-05
0.00487271
3.37749e-05
0.00486585
3.47066e-05
0.00485881
3.56614e-05
0.00485158
3.66392e-05
0.00484416
3.76403e-05
0.00483653
3.86649e-05
0.00482871
3.97132e-05
0.00482067
4.07858e-05
0.00481243
4.18835e-05
0.00480397
4.3009e-05
0.00479529
4.41694e-05
4.53859e-05
0.00478639
0.00505063
7.67542e-07
0.00505026
2.24341e-06
0.00504966
3.61623e-06
0.00504885
4.89914e-06
0.00504781
6.26507e-06
0.00504649
8.05202e-06
0.00504477
1.05859e-05
0.00504253
1.39413e-05
0.00503967
1.78299e-05
0.00503618
2.16958e-05
0.00503216
2.49436e-05
0.00502777
2.71564e-05
0.00502316
2.82041e-05
0.00501852
2.82241e-05
0.00501397
2.75198e-05
0.00500956
2.64421e-05
0.00500532
2.5297e-05
0.00500123
2.42991e-05
0.00499726
2.35653e-05
0.00499337
2.31319e-05
0.0049895
2.29823e-05
0.00498563
2.30725e-05
0.00498173
2.33503e-05
0.00497777
2.3767e-05
0.00497373
2.42831e-05
0.0049696
2.4869e-05
0.00496537
2.55046e-05
0.00496104
2.61771e-05
0.0049566
2.68791e-05
0.00495204
2.76065e-05
0.00494736
2.83578e-05
0.00494256
2.91323e-05
0.00493763
2.99304e-05
0.00493257
3.07525e-05
0.00492737
3.1599e-05
0.00492204
3.24707e-05
0.00491655
3.33678e-05
0.00491092
3.42907e-05
0.00490514
3.52397e-05
0.0048992
3.62151e-05
0.0048931
3.72169e-05
0.00488683
3.82453e-05
0.0048804
3.93005e-05
0.00487379
4.03824e-05
0.00486701
4.14913e-05
0.00486004
4.26271e-05
0.00485289
4.379e-05
0.00484555
4.49802e-05
0.00483802
4.61978e-05
0.00483029
4.7443e-05
0.00482236
4.87162e-05
0.00481422
5.00182e-05
0.00480588
5.13514e-05
0.00479733
5.27219e-05
5.4149e-05
0.00478857
0.00505063
8.94115e-07
0.00505026
2.61314e-06
0.00504966
4.21328e-06
0.00504885
5.70857e-06
0.00504782
7.2954e-06
0.00504652
9.36002e-06
0.00504482
1.22783e-05
0.00504262
1.61419e-05
0.00503983
2.06271e-05
0.00503642
2.51012e-05
0.00503248
2.88805e-05
0.00502816
3.14812e-05
0.00502362
3.27459e-05
0.00501902
3.28241e-05
0.00501448
3.20586e-05
0.00501007
3.08495e-05
0.00500582
2.95484e-05
0.00500171
2.84047e-05
0.00499772
2.75556e-05
0.00499381
2.70466e-05
0.00498993
2.68616e-05
0.00498605
2.69521e-05
0.00498214
2.72599e-05
0.00497818
2.77296e-05
0.00497414
2.8316e-05
0.00497003
2.89851e-05
0.00496582
2.97137e-05
0.00496151
3.04867e-05
0.00495709
3.12953e-05
0.00495257
3.21345e-05
0.00494792
3.30021e-05
0.00494316
3.38973e-05
0.00493827
3.48203e-05
0.00493325
3.57714e-05
0.0049281
3.6751e-05
0.00492281
3.77597e-05
0.00491738
3.87979e-05
0.0049118
3.9866e-05
0.00490608
4.09641e-05
0.0049002
4.20924e-05
0.00489417
4.32511e-05
0.00488797
4.44403e-05
0.00488161
4.56601e-05
0.00487508
4.69104e-05
0.00486838
4.81914e-05
0.00486151
4.95032e-05
0.00485445
5.08457e-05
0.00484721
5.22191e-05
0.00483979
5.36235e-05
0.00483217
5.50589e-05
0.00482436
5.65257e-05
0.00481635
5.80244e-05
0.00480815
5.95564e-05
0.00479975
6.11257e-05
0.00479115
6.27432e-05
0.00478278
-8.22564e-07
1.67434e-09
0.00478309
-3.0541e-07
1.56055e-09
0.00478284
2.47222e-07
1.43233e-09
0.004782
8.3477e-07
1.30987e-09
0.00478054
1.46432e-06
1.17762e-09
0.0047784
2.13805e-06
1.03761e-09
0.00477554
2.85993e-06
8.90677e-10
0.0047719
3.63436e-06
7.36726e-10
0.00476743
4.46617e-06
5.75852e-10
0.00476207
5.36073e-06
4.0822e-10
0.00475575
6.32397e-06
2.33991e-10
0.00474839
7.36247e-06
5.39827e-11
0.0047399
8.48349e-06
-1.312e-10
0.00473021
9.69509e-06
-3.20998e-10
0.0047192
1.10063e-05
-5.14276e-10
0.00470678
1.24272e-05
-7.14557e-10
0.00469281
1.39694e-05
-9.1822e-10
0.00467716
1.56461e-05
-1.11503e-09
0.00465969
1.74726e-05
-1.29991e-09
0.00464023
1.94664e-05
-1.47381e-09
0.00461858
2.1648e-05
-1.63845e-09
0.00459454
2.40414e-05
-1.79387e-09
0.00456787
2.6675e-05
-1.93546e-09
0.00453829
2.95824e-05
-2.062e-09
0.00450548
3.28034e-05
-2.17311e-09
0.0044691
3.63854e-05
-2.26835e-09
0.00442872
4.03847e-05
-2.34895e-09
0.00438385
4.48685e-05
-2.41641e-09
0.00433394
4.99172e-05
-2.47205e-09
0.00427831
5.56274e-05
-2.51807e-09
0.0042162
6.21157e-05
-2.55678e-09
0.00414668
6.95236e-05
-2.58987e-09
0.00406866
7.80231e-05
-2.61907e-09
0.00398084
8.78247e-05
-2.64628e-09
0.00388165
9.91853e-05
-2.67274e-09
0.00376924
0.000112417
-2.69893e-09
0.00364135
0.000127895
-2.7252e-09
0.00349529
0.000146056
-2.75174e-09
0.00332791
0.000167385
-2.77852e-09
0.00313554
0.000192375
-2.80569e-09
0.00291411
0.000221428
-2.83395e-09
0.00265944
0.000254681
-2.86486e-09
0.00236774
0.000291695
-2.90055e-09
0.00203678
0.00033097
-2.94255e-09
0.00166758
0.000369199
-2.98751e-09
0.00126736
0.000400223
-3.01865e-09
0.000853674
0.000413689
-2.99004e-09
0.000460303
0.000393374
-2.80131e-09
0.00014571
0.000314595
-2.27185e-09
0.000145711
-1.12191e-09
0.00478186
-2.74565e-07
0.0047808
7.57521e-07
0.00477919
1.85816e-06
0.00477699
3.03346e-06
0.00477416
4.29015e-06
0.00477066
5.6352e-06
0.00476645
7.07651e-06
0.00476146
8.62285e-06
0.00475564
1.0284e-05
0.00474893
1.20706e-05
0.00474126
1.39946e-05
0.00473255
1.60693e-05
0.00472273
1.8309e-05
0.00471169
2.073e-05
0.00469935
2.33504e-05
0.00468559
2.61904e-05
0.00467028
2.92732e-05
0.0046533
3.26256e-05
0.0046345
3.62779e-05
0.0046137
4.02653e-05
0.00459072
4.46289e-05
0.00456534
4.94169e-05
0.00453733
5.46864e-05
0.00450641
6.05045e-05
0.00447226
6.69512e-05
0.00443453
7.4121e-05
0.00439278
8.21266e-05
0.00434655
9.11026e-05
0.00429526
0.000101209
0.00423824
0.00011264
0.00417473
0.000125626
0.00410381
0.00014045
0.00402438
0.000157454
0.00393515
0.000177054
0.00383457
0.000199759
0.00372081
0.000226186
0.00359163
0.000257072
0.00344441
0.000293273
0.00327606
0.000335735
0.00308303
0.000385406
0.00286142
0.000443044
0.00260723
0.000508864
0.002317
0.000581926
0.0019888
0.000659168
0.00162404
0.000733962
0.00123021
0.000794052
0.000825016
0.000818883
0.000441902
0.000776488
0.000137222
0.000619276
0.000282933
0.00478003
2.99111e-06
0.00477626
4.53433e-06
0.00477193
6.18035e-06
0.00476703
7.9382e-06
0.0047615
9.81755e-06
0.00475531
1.18292e-05
0.0047484
1.3985e-05
0.00474072
1.62984e-05
0.00473222
1.87839e-05
0.00472284
2.14577e-05
0.00471249
2.43377e-05
0.00470112
2.74437e-05
0.00468863
3.07976e-05
0.00467494
3.44238e-05
0.00465994
3.83493e-05
0.00464352
4.26047e-05
0.00462557
4.7225e-05
0.00460595
5.22503e-05
0.0045845
5.77267e-05
0.00456106
6.3707e-05
0.00453543
7.02531e-05
0.00450741
7.74378e-05
0.00447675
8.53468e-05
0.00444317
9.40814e-05
0.00440636
0.000103761
0.00436595
0.000114529
0.00432153
0.000126554
0.00427259
0.000140037
0.00421858
0.000155219
0.00415883
0.000172388
0.00409257
0.00019189
0.00401888
0.000214144
0.00393667
0.000239658
0.00384468
0.000269047
0.00374138
0.000303063
0.00362495
0.000342607
0.00349327
0.000388753
0.0033438
0.000442742
0.00317361
0.000505925
0.00297939
0.000579633
0.00275755
0.000664884
0.00250456
0.000761852
0.00221752
0.000868967
0.00189518
0.000981507
0.00153963
0.00108951
0.00115884
0.00117484
0.000770554
0.00120717
0.000407755
0.00113929
0.000124196
0.000902835
0.000407128
0.00477733
1.02907e-05
0.00476952
1.23386e-05
0.00476118
1.45231e-05
0.00475226
1.68559e-05
0.00474273
1.93502e-05
0.00473254
2.20205e-05
0.00472164
2.4883e-05
0.00470998
2.79554e-05
0.00469751
3.12573e-05
0.00468416
3.48103e-05
0.00466986
3.86384e-05
0.00465453
4.2768e-05
0.0046381
4.72284e-05
0.00462047
5.20522e-05
0.00460155
5.72756e-05
0.00458121
6.29398e-05
0.00455935
6.90913e-05
0.00453581
7.57843e-05
0.00451046
8.30803e-05
0.00448311
9.10505e-05
0.00445359
9.97776e-05
0.00442167
0.000109359
0.00438711
0.000119911
0.00434962
0.000131567
0.00430889
0.000144489
0.00426456
0.000158866
0.00421619
0.000174925
0.00416329
0.000192933
0.0041053
0.00021321
0.00404155
0.000236138
0.00397126
0.000262175
0.00389353
0.000291873
0.00380729
0.000325898
0.00371129
0.000365056
0.00360403
0.000410318
0.00348379
0.000462849
0.00334852
0.00052402
0.00319587
0.000595394
0.00302315
0.000678647
0.00282741
0.000775376
0.00260558
0.000886707
0.00235484
0.00101259
0.00207317
0.00115064
0.00176032
0.00129435
0.00141936
0.00143047
0.00105881
0.0015354
0.000695947
0.00157003
0.000361906
0.00147333
0.000105687
0.00115905
0.000512815
0.00477379
2.28875e-05
0.0047607
2.54297e-05
0.00474708
2.81415e-05
0.0047329
3.1038e-05
0.00471811
3.41358e-05
0.00470268
3.74534e-05
0.00468655
4.10111e-05
0.00466968
4.48309e-05
0.004652
4.89377e-05
0.00463345
5.33584e-05
0.00461396
5.81229e-05
0.00459347
6.32645e-05
0.00457188
6.88198e-05
0.0045491
7.48297e-05
0.00452503
8.13399e-05
0.00449957
8.84018e-05
0.00447259
9.60743e-05
0.00444395
0.000104425
0.0044135
0.000113532
0.00438106
0.000123485
0.00434645
0.000134387
0.00430945
0.000146363
0.0042698
0.000159555
0.00422724
0.000174135
0.00418142
0.000190304
0.00413199
0.0002083
0.00407851
0.000228404
0.00402049
0.000250953
0.00395735
0.000276344
0.00388844
0.00030505
0.00381298
0.000337638
0.00373007
0.000374786
0.00363865
0.000417311
0.00353752
0.00046619
0.00342524
0.000522595
0.00330018
0.000587912
0.00316044
0.000663754
0.00300392
0.000751921
0.00282827
0.000854293
0.00263108
0.000972569
0.00241002
0.00110777
0.00216325
0.00125936
0.00189
0.0014239
0.00159144
0.00159291
0.00127191
0.00175001
0.000940437
0.00186687
0.000613022
0.00189744
0.000315868
0.00177048
8.74639e-05
0.00138746
0.000600279
0.00476948
4.19751e-05
0.00474991
4.49948e-05
0.00472984
4.82178e-05
0.00470921
5.16621e-05
0.004688
5.53479e-05
0.00466616
5.92974e-05
0.00464363
6.35348e-05
0.00462038
6.80868e-05
0.00459633
7.29828e-05
0.00457144
7.82555e-05
0.00454562
8.39407e-05
0.0045188
9.00783e-05
0.00449091
9.67125e-05
0.00446185
0.000103892
0.00443151
0.000111673
0.0043998
0.000120117
0.00436658
0.000129295
0.00433171
0.00013929
0.00429505
0.000150194
0.00425642
0.000162117
0.00421562
0.000175184
0.00417244
0.000189545
0.00412662
0.000205373
0.00407788
0.000222875
0.00402589
0.000242293
0.00397028
0.000263914
0.00391061
0.000288077
0.00384638
0.000315183
0.00377701
0.000345707
0.00370185
0.000380212
0.00362012
0.000419371
0.00353092
0.00046398
0.00343324
0.000514993
0.00332589
0.00057354
0.00320753
0.000640956
0.00307664
0.000718799
0.00293156
0.000808835
0.0027705
0.000912978
0.00259167
0.00103313
0.00239342
0.00117082
0.00217455
0.00132664
0.00193473
0.00149918
0.00167509
0.00168353
0.00139899
0.00186901
0.00111266
0.00203633
0.000825994
0.00215354
0.000552671
0.00217077
0.000308825
0.00201433
0.000106653
0.00158963
0.000706932
0.00476447
6.86531e-05
0.00473734
7.21256e-05
0.00470972
7.58378e-05
0.00468158
7.98089e-05
0.00465286
8.40621e-05
0.00462354
8.86227e-05
0.00459355
9.35189e-05
0.00456286
9.87815e-05
0.0045314
0.000104445
0.0044991
0.000110547
0.00446592
0.000117129
0.00443176
0.000124239
0.00439654
0.000131927
0.00436018
0.000140251
0.00432258
0.000149276
0.00428362
0.000159075
0.00424319
0.000169731
0.00420113
0.000181341
0.00415731
0.000194015
0.00411155
0.000207879
0.00406365
0.000223084
0.00401339
0.000239803
0.00396052
0.000258242
0.00390476
0.000278642
0.00384576
0.000301289
0.00378316
0.000326516
0.00371651
0.000354722
0.00364533
0.000386371
0.00356902
0.000422017
0.00348692
0.000462311
0.00339826
0.000508026
0.00330217
0.000560072
0.00319764
0.000619527
0.00308352
0.000687654
0.00295856
0.000765921
0.00282136
0.000855998
0.00267048
0.000959718
0.00250449
0.00107896
0.00232219
0.00121543
0.00212283
0.00137018
0.00190657
0.0015429
0.00167501
0.00173074
0.0014319
0.00192664
0.00118383
0.00211709
0.000940718
0.00227944
0.000715425
0.00237883
0.000521138
0.00236505
0.000362389
0.00217308
0.00021938
0.00173264
0.000926312
-3.07703e-05
3.07709e-05
-6.1488e-10
-8.60739e-05
5.53049e-05
-1.30553e-09
-0.000143375
5.73032e-05
-1.63907e-09
-0.0001895
4.61262e-05
-1.7459e-09
-0.000217154
2.76554e-05
-1.67917e-09
-0.000222429
5.27723e-06
-1.46725e-09
-0.000204726
-1.77023e-05
-1.08506e-09
-0.000164018
-4.07074e-05
-5.92257e-10
-0.000101241
-6.2777e-05
2.61349e-11
-1.7922e-05
-8.33197e-05
7.57959e-10
8.40483e-05
-0.000101972
1.5925e-09
0.000202621
-0.000118575
2.4918e-09
0.000335652
-0.000133034
3.41164e-09
0.000480974
-0.000145327
4.30305e-09
0.00063645
-0.000155481
5.116e-09
0.00080001
-0.000163565
5.80985e-09
0.000969675
-0.000169672
6.35466e-09
0.00114358
-0.000173916
6.73876e-09
0.00132
-0.000176427
6.96045e-09
0.00149735
-0.000177348
7.0431e-09
0.00167416
-0.000176825
7.06575e-09
0.00184917
-0.00017501
6.974e-09
0.00202121
-0.000172054
7.03472e-09
0.00218931
-0.000168103
7.48463e-09
0.0023526
-0.000163303
8.15092e-09
0.00251039
-0.000157797
8.80661e-09
0.0026621
-0.00015172
9.2364e-09
0.00280729
-0.000145196
9.36406e-09
0.00294562
-0.000138342
9.22894e-09
0.00307687
-0.000131262
8.8438e-09
0.00320092
-0.000124053
8.23024e-09
0.00331771
-0.000116801
7.42375e-09
0.00342729
-0.000109582
6.47035e-09
0.00352974
-0.00010246
5.42204e-09
0.00362523
-9.54936e-05
4.33001e-09
0.00371396
-8.87282e-05
3.24251e-09
0.00379616
-8.22027e-05
2.20113e-09
0.0038721
-7.59472e-05
1.24018e-09
0.00394209
-6.99842e-05
3.86737e-10
0.00400642
-6.43297e-05
-3.38808e-10
0.00406541
-5.89934e-05
-9.23207e-10
0.00411939
-5.39794e-05
-1.36025e-09
0.00416868
-4.92872e-05
-1.64872e-09
0.0042136
-4.49122e-05
-1.7928e-09
0.00425444
-4.08465e-05
-1.80147e-09
0.00429153
-3.70793e-05
-1.68714e-09
0.00432512
-3.35977e-05
-1.46428e-09
0.00435551
-3.03869e-05
-1.148e-09
0.00438294
-2.74308e-05
-7.53032e-10
-2.47123e-05
0.00440766
-2.92401e-10
-2.69963e-05
5.77672e-05
-7.51523e-05
0.000103461
-0.000124413
0.000106564
-0.000163177
8.48901e-05
-0.000184804
4.92827e-05
-0.000185336
5.80925e-06
-0.000164716
-3.8322e-05
-0.000122417
-8.30064e-05
-5.92527e-05
-0.000125942
2.34465e-05
-0.000166019
0.000123965
-0.00020249
0.000240442
-0.000235052
0.000370896
-0.000263489
0.000513304
-0.000287734
0.000665649
-0.000307827
0.000825964
-0.00032388
0.000992357
-0.000336065
0.00116304
-0.000344594
0.00133632
-0.000349715
0.00151067
-0.000351696
0.00168467
-0.000350824
0.00185705
-0.000347391
0.00202669
-0.00034169
0.0021926
-0.00033401
0.00235393
-0.000324636
0.00250998
-0.00031385
0.00266018
-0.000301917
0.00280407
-0.000289085
0.00294131
-0.000275584
0.00307167
-0.000261624
0.00319501
-0.000247395
0.00331128
-0.000233069
0.0034205
-0.000218798
0.00352275
-0.000204711
0.00361818
-0.000190923
0.00370698
-0.000177527
0.00378937
-0.0001646
0.00386563
-0.000152202
0.00393602
-0.00014038
0.00400086
-0.000129166
0.00406045
-0.00011858
0.0041151
-0.00010863
0.00416513
-9.93161e-05
0.00421084
-9.063e-05
0.00425255
-8.2556e-05
0.00429055
-7.50731e-05
0.0043251
-6.8156e-05
0.00435649
-6.17757e-05
0.00438496
-5.59001e-05
-5.04945e-05
0.00441075
-2.02536e-05
7.80208e-05
-5.41326e-05
0.00013734
-8.80268e-05
0.000140458
-0.00011274
0.000109603
-0.000122909
5.94521e-05
-0.000114907
-2.19307e-06
-8.88969e-05
-6.43318e-05
-4.37285e-05
-0.000128175
1.99047e-05
-0.000189575
0.00010103
-0.000247144
0.000198477
-0.000299937
0.000310695
-0.000347269
0.000436004
-0.000388798
0.000572653
-0.000424384
0.000718863
-0.000454036
0.000872861
-0.000477878
0.00103292
-0.000496123
0.00119738
-0.000509051
0.00136466
-0.000516998
0.0015333
-0.000520337
0.00170195
-0.000519469
0.00186937
-0.000514815
0.00203447
-0.000506793
0.00219628
-0.000495822
0.00235397
-0.000482318
0.00250681
-0.00046669
0.00265422
-0.000449332
0.00279575
-0.00043061
0.00293102
-0.000410862
0.0030598
-0.000390401
0.00318192
-0.000369513
0.0032973
-0.000348452
0.00340595
-0.000327444
0.00350793
-0.000306687
0.00360335
-0.000286351
0.0036924
-0.000266576
0.00377528
-0.000247479
0.00385223
-0.000229153
0.00392352
-0.000211667
0.00398942
-0.000195071
0.00405024
-0.000179397
0.00410627
-0.000164658
0.00415781
-0.000150857
0.00420516
-0.00013798
0.00424861
-0.000126007
0.00428844
-0.000114907
0.00432493
-0.000104643
0.00435833
-9.51724e-05
0.00438887
-8.64483e-05
-7.84172e-05
0.0044168
-8.18012e-06
8.62009e-05
-2.33498e-05
0.00015251
-3.60948e-05
0.000153203
-4.13922e-05
0.0001149
-3.54925e-05
5.35524e-05
-1.73884e-05
-2.02972e-05
1.56577e-05
-9.73779e-05
6.36481e-05
-0.000176165
0.000127034
-0.00025296
0.000205405
-0.000325516
0.000297949
-0.000392481
0.000403646
-0.000452966
0.000521276
-0.000506428
0.000649476
-0.000552584
0.000786794
-0.000591354
0.000931732
-0.000622817
0.00108279
-0.000647176
0.00123847
-0.000664737
0.00139735
-0.000675881
0.00155807
-0.000681053
0.00171934
-0.000680742
0.00187999
-0.000675465
0.00203895
-0.000665752
0.00219527
-0.000652135
0.00234809
-0.000635143
0.00249671
-0.000615307
0.00264051
-0.000593138
0.00277902
-0.000569114
0.00291184
-0.000543683
0.00303869
-0.000517255
0.00315939
-0.000490208
0.00327381
-0.00046288
0.00338194
-0.000435573
0.00348381
-0.000408551
0.0035795
-0.000382041
0.00366916
-0.000356233
0.00375296
-0.000331285
0.00383113
-0.000307321
0.0039039
-0.000284439
0.00397154
-0.000262705
0.0040343
-0.000242165
0.00409249
-0.00022284
0.00414636
-0.000204734
0.00419622
-0.000187833
0.00424232
-0.000172111
0.00428494
-0.00015753
0.00432434
-0.000144042
0.00436076
-0.000131593
0.00439444
-0.00012012
-0.000109551
0.00442557
7.08131e-06
7.91196e-05
1.57427e-05
0.000143848
2.84688e-05
0.000140477
4.55747e-05
9.77945e-05
6.89741e-05
3.0153e-05
9.88724e-05
-5.01955e-05
0.000138774
-0.000137279
0.000189368
-0.00022676
0.000251336
-0.000314928
0.000325067
-0.000399247
0.000410522
-0.000477936
0.000507316
-0.00054976
0.000614783
-0.000613895
0.000732035
-0.000669836
0.000858018
-0.000717337
0.000991561
-0.00075636
0.00113142
-0.000787039
0.00127633
-0.000809643
0.001425
-0.000824554
0.00157619
-0.000832242
0.00172869
-0.000833246
0.00188138
-0.000828155
0.00203321
-0.000817582
0.00218323
-0.000802153
0.00233059
-0.0007825
0.00247454
-0.000759255
0.00261444
-0.000733043
0.00274978
-0.00070445
0.00288012
-0.000674025
0.00300514
-0.000642278
0.00312461
-0.000609678
0.00323838
-0.000576646
0.00334637
-0.000543562
0.00344857
-0.000510757
0.00354505
-0.000478516
0.0036359
-0.000447083
0.00372127
-0.000416658
0.00380135
-0.0003874
0.00387635
-0.000359434
0.00394649
-0.000332849
0.00401203
-0.000307704
0.00407322
-0.000284031
0.00413032
-0.000261837
0.0041836
-0.000241109
0.00423331
-0.000221818
0.0042797
-0.000203919
0.00432301
-0.000187355
0.00436348
-0.000172061
0.00440132
-0.000157961
-0.000144963
0.00443673
2.38234e-05
5.52962e-05
6.0956e-05
0.000106716
0.000102063
9.93699e-05
0.000143998
5.58595e-05
0.000185572
-1.14211e-05
0.000227046
-9.16694e-05
0.000272425
-0.000182658
0.000323387
-0.000277722
0.000381566
-0.000373108
0.000448182
-0.000465862
0.000523996
-0.00055375
0.000609345
-0.000635109
0.000704188
-0.000708739
0.000808171
-0.000773819
0.000920681
-0.000829847
0.00104091
-0.000876585
0.00116789
-0.00091402
0.00130056
-0.00094232
0.00143782
-0.000961809
0.00157851
-0.000972934
0.00172151
-0.000976243
0.00186571
-0.000972357
0.00201008
-0.000961953
0.00215366
-0.000945728
0.00229555
-0.000924395
0.00243498
-0.000898685
0.00257126
-0.000869322
0.00270381
-0.000836998
0.00283214
-0.000802362
0.00295589
-0.000766022
0.00307475
-0.000728539
0.00318853
-0.000690422
0.00329709
-0.000652128
0.0034004
-0.00061406
0.00349845
-0.000576566
0.00359131
-0.000539944
0.00367909
-0.00050444
0.00376194
-0.000470253
0.00384004
-0.000437536
0.0039136
-0.000406403
0.00398282
-0.000376931
0.00404796
-0.000349163
0.00410923
-0.000323114
0.0041669
-0.000298771
0.00422118
-0.000276104
0.00427233
-0.000255064
0.00432056
-0.000235586
0.00436609
-0.000217595
0.00440914
-0.000201005
-0.000185704
0.00444988
4.44154e-05
1.08808e-05
0.000114929
3.62023e-05
0.000184923
2.93751e-05
0.000250257
-9.4746e-06
0.000304458
-6.56218e-05
0.000354585
-0.000141796
0.000402205
-0.000230278
0.000450432
-0.00032595
0.000501911
-0.000424586
0.000558776
-0.000522727
0.000622616
-0.00061759
0.00069449
-0.000706984
0.00077498
-0.000789229
0.000864251
-0.00086309
0.000962119
-0.000927714
0.00106811
-0.00098258
0.00118154
-0.00102745
0.00130155
-0.00106232
0.00142715
-0.00108741
0.00155729
-0.00110308
0.0016909
-0.00110985
0.00182688
-0.00110834
0.00196419
-0.00109927
0.00210184
-0.00108337
0.00223889
-0.00106144
0.0023745
-0.00103429
0.00250791
-0.00100274
0.00263849
-0.000967575
0.00276568
-0.000929552
0.00288903
-0.000889377
0.0030082
-0.000847705
0.00312292
-0.000805137
0.003233
-0.000762211
0.00333835
-0.000719407
0.00343892
-0.00067714
0.00353474
-0.000635767
0.00362588
-0.000595583
0.00371246
-0.000556829
0.00379462
-0.000519694
0.00387253
-0.000484319
0.0039464
-0.000450799
0.00401643
-0.000419192
0.00408284
-0.000389522
0.00414585
-0.000361781
0.00420568
-0.000335937
0.00426256
-0.000311938
0.00431668
-0.000289715
0.00436827
-0.000269184
0.00441751
-0.000250248
0.0044646
-0.000232792
0.0044396
-3.19488e-05
2.24335e-10
0.00446989
-3.02892e-05
7.99378e-10
0.00449861
-2.87156e-05
1.41659e-09
0.00452583
-2.72294e-05
2.04995e-09
0.00455166
-2.58292e-05
2.67887e-09
0.00457617
-2.45121e-05
3.28861e-09
0.00459944
-2.32753e-05
3.86948e-09
0.00462155
-2.21152e-05
4.41648e-09
0.00464258
-2.10281e-05
4.92866e-09
0.00466258
-2.001e-05
5.40831e-09
0.00468163
-1.90569e-05
5.8598e-09
0.00469979
-1.81646e-05
6.28862e-09
0.00471711
-1.73287e-05
6.70061e-09
0.00473365
-1.65445e-05
7.10153e-09
0.00474945
-1.58067e-05
7.49645e-09
0.00476455
-1.51098e-05
7.88891e-09
0.00477899
-1.44474e-05
8.27998e-09
0.00479279
-1.38127e-05
8.66771e-09
0.00480598
-1.31985e-05
9.04654e-09
0.00481857
-1.25978e-05
9.40709e-09
0.00483057
-1.20043e-05
9.7364e-09
0.00484197
-1.14134e-05
1.00189e-08
0.00485278
-1.08229e-05
1.02372e-08
0.004863
-1.02337e-05
1.03746e-08
0.00487264
-9.64997e-06
1.04165e-08
0.00488171
-9.07902e-06
1.03523e-08
0.00489023
-8.5302e-06
1.01768e-08
0.00489824
-8.01351e-06
9.89073e-09
0.00490577
-7.53785e-06
9.50146e-09
0.00491287
-7.10949e-06
9.02195e-09
0.00491959
-6.73101e-06
8.46892e-09
0.00492598
-6.40098e-06
7.86132e-09
0.00493209
-6.11442e-06
7.21854e-09
0.00493795
-5.86393e-06
6.55847e-09
0.00494358
-5.64101e-06
5.89629e-09
0.00494901
-5.43741e-06
5.24439e-09
0.00495425
-5.24608e-06
4.61172e-09
0.00495931
-5.06174e-06
4.00389e-09
0.00496419
-4.88093e-06
3.42432e-09
0.00496889
-4.70183e-06
2.87505e-09
0.00497341
-4.5238e-06
2.35701e-09
0.00497776
-4.34699e-06
1.87108e-09
0.00498193
-4.17196e-06
1.41758e-09
0.00498592
-3.99945e-06
9.9928e-10
0.00498975
-3.82986e-06
6.31675e-10
0.00499342
-3.66411e-06
2.88836e-10
0.00499692
-3.50259e-06
-2.95755e-11
0.00500027
-3.34552e-06
-3.2141e-10
0.00500346
-3.19303e-06
-5.89205e-10
0.00500651
-3.04521e-06
-8.40411e-10
0.00500941
-2.90209e-06
-1.08389e-09
0.00501217
-2.76365e-06
-1.32849e-09
0.00501481
-2.62983e-06
-1.58225e-09
0.00501731
-2.50057e-06
-1.85241e-09
0.00501969
-2.37577e-06
-2.14387e-09
0.00502194
-2.25533e-06
-2.45733e-09
0.00502409
-2.13916e-06
-2.78714e-09
0.00502612
-2.02717e-06
-3.12191e-09