/*--------------------------------*- C++ -*----------------------------------*\
| =========                 |                                                 |
| \\      /  F ield         | OpenFOAM: The Open Source CFD Toolbox           |
|  \\    /   O peration     | Version:  2412                                  |
|   \\  /    A nd           | Website:  www.openfoam.com                      |
|    \\/     M anipulation  |                                                 |
\*---------------------------------------------------------------------------*/
FoamFile
{
    version     2.0;
    format      ascii;
    arch        "LSB;label=32;scalar=64";
    class       volVectorField;
    location    "16.5";
    object      U;
}
// * * * * * * * * * * * * * * * * * * * * * * * * * * * * * * * * * * * * * //

dimensions      [0 1 -1 0 0 0 0];

internalField   nonuniform List<vector> 
63420
(
(0.0999997 4.34729e-07 0)
(0.099995 1.29635e-06 0)
(0.0999852 2.1295e-06 0)
(0.099971 2.94153e-06 0)
(0.0999528 3.84496e-06 0)
(0.0999295 5.06888e-06 0)
(0.0998991 6.84632e-06 0)
(0.0998586 9.24923e-06 0)
(0.0998052 1.20987e-05 0)
(0.0997381 1.50146e-05 0)
(0.0996586 1.75666e-05 0)
(0.09957 1.94316e-05 0)
(0.0994762 2.04834e-05 0)
(0.0993812 2.07929e-05 0)
(0.0992882 2.05643e-05 0)
(0.0991989 2.00509e-05 0)
(0.0991137 1.94845e-05 0)
(0.0990325 1.9036e-05 0)
(0.0989543 1.88046e-05 0)
(0.0988781 1.88274e-05 0)
(0.0988027 1.90986e-05 0)
(0.0987273 1.95886e-05 0)
(0.0986511 2.02589e-05 0)
(0.0985735 2.10726e-05 0)
(0.0984943 2.19991e-05 0)
(0.0984131 2.30157e-05 0)
(0.0983297 2.41077e-05 0)
(0.0982441 2.52662e-05 0)
(0.0981562 2.64873e-05 0)
(0.0980658 2.77703e-05 0)
(0.0979728 2.91163e-05 0)
(0.0978773 3.05282e-05 0)
(0.0977792 3.2009e-05 0)
(0.0976783 3.35626e-05 0)
(0.0975746 3.51926e-05 0)
(0.097468 3.69031e-05 0)
(0.0973584 3.86978e-05 0)
(0.0972457 4.05809e-05 0)
(0.0971299 4.25561e-05 0)
(0.0970109 4.46277e-05 0)
(0.0968885 4.67996e-05 0)
(0.0967627 4.90761e-05 0)
(0.0966333 5.14616e-05 0)
(0.0965003 5.39604e-05 0)
(0.0963637 5.65774e-05 0)
(0.0962232 5.93172e-05 0)
(0.0960788 6.21851e-05 0)
(0.0959305 6.51863e-05 0)
(0.095778 6.83264e-05 0)
(0.0956214 7.16117e-05 0)
(0.0954604 7.50489e-05 0)
(0.0952951 7.86468e-05 0)
(0.0951252 8.24191e-05 0)
(0.0949507 8.63953e-05 0)
(0.0947713 9.06491e-05 0)
(0.0999997 1.30393e-06 0)
(0.099995 3.88859e-06 0)
(0.0999852 6.38842e-06 0)
(0.0999711 8.82509e-06 0)
(0.0999528 1.15339e-05 0)
(0.0999296 1.51982e-05 0)
(0.0998993 2.05142e-05 0)
(0.0998588 2.76986e-05 0)
(0.0998057 3.62197e-05 0)
(0.0997389 4.49454e-05 0)
(0.0996598 5.25913e-05 0)
(0.0995714 5.81919e-05 0)
(0.0994779 6.13681e-05 0)
(0.0993832 6.23283e-05 0)
(0.0992903 6.16795e-05 0)
(0.0992009 6.0176e-05 0)
(0.0991158 5.85093e-05 0)
(0.0990345 5.71895e-05 0)
(0.0989562 5.65133e-05 0)
(0.0988798 5.65931e-05 0)
(0.0988043 5.74124e-05 0)
(0.0987288 5.88837e-05 0)
(0.0986525 6.08933e-05 0)
(0.098575 6.33313e-05 0)
(0.0984957 6.61067e-05 0)
(0.0984146 6.91525e-05 0)
(0.0983313 7.24239e-05 0)
(0.0982457 7.58952e-05 0)
(0.0981578 7.95543e-05 0)
(0.0980675 8.3399e-05 0)
(0.0979747 8.74332e-05 0)
(0.0978793 9.16645e-05 0)
(0.0977813 9.61028e-05 0)
(0.0976805 0.000100759 0)
(0.097577 0.000105644 0)
(0.0974705 0.00011077 0)
(0.0973611 0.000116149 0)
(0.0972486 0.000121792 0)
(0.097133 0.000127711 0)
(0.0970141 0.000133918 0)
(0.096892 0.000140426 0)
(0.0967664 0.000147247 0)
(0.0966373 0.000154393 0)
(0.0965046 0.000161879 0)
(0.0963682 0.000169719 0)
(0.096228 0.000177926 0)
(0.096084 0.000186516 0)
(0.0959359 0.000195505 0)
(0.0957838 0.00020491 0)
(0.0956275 0.000214748 0)
(0.095467 0.000225041 0)
(0.0953021 0.000235814 0)
(0.0951327 0.000247107 0)
(0.0949587 0.000259007 0)
(0.0947798 0.000271728 0)
(0.0999997 2.17222e-06 0)
(0.099995 6.47794e-06 0)
(0.0999852 1.06435e-05 0)
(0.0999711 1.47038e-05 0)
(0.0999529 1.92123e-05 0)
(0.0999297 2.52992e-05 0)
(0.0998995 3.41195e-05 0)
(0.0998594 4.60379e-05 0)
(0.0998067 6.01815e-05 0)
(0.0997405 7.46807e-05 0)
(0.099662 8.74085e-05 0)
(0.0995743 9.67607e-05 0)
(0.0994813 0.000102101 0)
(0.099387 0.000103766 0)
(0.0992943 0.000102754 0)
(0.099205 0.00010031 0)
(0.0991197 9.75809e-05 0)
(0.0990383 9.54126e-05 0)
(0.0989598 9.43004e-05 0)
(0.0988832 9.44344e-05 0)
(0.0988075 9.5791e-05 0)
(0.0987319 9.82275e-05 0)
(0.0986555 0.000101558 0)
(0.0985779 0.0001056 0)
(0.0984986 0.000110206 0)
(0.0984175 0.000115263 0)
(0.0983343 0.000120697 0)
(0.0982489 0.000126465 0)
(0.0981611 0.000132548 0)
(0.098071 0.000138941 0)
(0.0979784 0.00014565 0)
(0.0978832 0.000152688 0)
(0.0977854 0.000160071 0)
(0.097685 0.000167816 0)
(0.0975817 0.000175943 0)
(0.0974756 0.00018447 0)
(0.0973665 0.000193418 0)
(0.0972544 0.000202804 0)
(0.0971391 0.00021265 0)
(0.0970207 0.000222974 0)
(0.0968989 0.000233798 0)
(0.0967738 0.000245141 0)
(0.0966452 0.000257026 0)
(0.096513 0.000269474 0)
(0.0963772 0.000282508 0)
(0.0962376 0.000296153 0)
(0.0960942 0.000310433 0)
(0.0959468 0.000325374 0)
(0.0957954 0.000341005 0)
(0.0956399 0.000357354 0)
(0.0954802 0.000374456 0)
(0.0953161 0.000392352 0)
(0.0951476 0.000411108 0)
(0.0949746 0.00043086 0)
(0.0947968 0.000451946 0)
(0.0999997 3.03898e-06 0)
(0.0999951 9.06246e-06 0)
(0.0999852 1.48921e-05 0)
(0.0999712 2.05744e-05 0)
(0.0999529 2.68732e-05 0)
(0.0999299 3.5354e-05 0)
(0.0998999 4.7623e-05 0)
(0.0998602 6.41985e-05 0)
(0.0998081 8.38848e-05 0)
(0.0997428 0.000104098 0)
(0.0996653 0.000121888 0)
(0.0995785 0.000135018 0)
(0.0994863 0.000142586 0)
(0.0993925 0.000145043 0)
(0.0993001 0.000143759 0)
(0.0992109 0.000140457 0)
(0.0991255 0.000136726 0)
(0.0990438 0.000133746 0)
(0.098965 0.000132212 0)
(0.0988882 0.000132396 0)
(0.0988122 0.000134272 0)
(0.0987364 0.000137648 0)
(0.0986599 0.000142268 0)
(0.0985822 0.000147884 0)
(0.098503 0.000154288 0)
(0.0984219 0.000161327 0)
(0.0983388 0.000168896 0)
(0.0982536 0.000176937 0)
(0.0981661 0.000185419 0)
(0.0980762 0.000194338 0)
(0.0979839 0.0002037 0)
(0.0978891 0.000213523 0)
(0.0977917 0.000223829 0)
(0.0976916 0.000234641 0)
(0.0975888 0.000245987 0)
(0.0974831 0.000257892 0)
(0.0973745 0.000270383 0)
(0.0972629 0.000283486 0)
(0.0971483 0.00029723 0)
(0.0970304 0.00031164 0)
(0.0969094 0.000326746 0)
(0.0967849 0.000342576 0)
(0.096657 0.00035916 0)
(0.0965257 0.000376528 0)
(0.0963907 0.000394712 0)
(0.096252 0.000413745 0)
(0.0961095 0.000433662 0)
(0.0959631 0.000454497 0)
(0.0958128 0.00047629 0)
(0.0956584 0.000499081 0)
(0.0954998 0.000522915 0)
(0.0953371 0.00054785 0)
(0.0951699 0.00057397 0)
(0.0949984 0.000601451 0)
(0.0948222 0.000630731 0)
(0.0999997 3.90367e-06 0)
(0.0999951 1.16402e-05 0)
(0.0999853 1.91316e-05 0)
(0.0999712 2.64334e-05 0)
(0.0999531 3.451e-05 0)
(0.0999301 4.5346e-05 0)
(0.0999004 6.09892e-05 0)
(0.0998612 8.21186e-05 0)
(0.09981 0.00010724 0)
(0.0997457 0.000133089 0)
(0.0996695 0.000155913 0)
(0.0995839 0.000172853 0)
(0.0994927 0.000182735 0)
(0.0993996 0.000186099 0)
(0.0993076 0.000184667 0)
(0.0992185 0.000180615 0)
(0.099133 0.000175964 0)
(0.099051 0.000172223 0)
(0.0989718 0.000170287 0)
(0.0988946 0.000170515 0)
(0.0988184 0.000172887 0)
(0.0987423 0.000177166 0)
(0.0986656 0.000183035 0)
(0.0985879 0.000190181 0)
(0.0985087 0.000198342 0)
(0.0984277 0.000207322 0)
(0.0983448 0.00021699 0)
(0.0982598 0.000227268 0)
(0.0981726 0.000238117 0)
(0.0980831 0.00024953 0)
(0.0979912 0.000261516 0)
(0.0978968 0.000274095 0)
(0.0977999 0.000287293 0)
(0.0977004 0.000301143 0)
(0.0975981 0.000315676 0)
(0.0974931 0.000330925 0)
(0.0973852 0.000346924 0)
(0.0972743 0.000363708 0)
(0.0971604 0.000381309 0)
(0.0970434 0.000399763 0)
(0.0969232 0.000419105 0)
(0.0967997 0.000439372 0)
(0.0966728 0.000460602 0)
(0.0965424 0.000482832 0)
(0.0964085 0.000506102 0)
(0.096271 0.000530455 0)
(0.0961297 0.000555934 0)
(0.0959847 0.000582582 0)
(0.0958357 0.00061045 0)
(0.0956828 0.000639586 0)
(0.0955259 0.000670047 0)
(0.0953648 0.000701901 0)
(0.0951995 0.000735249 0)
(0.0950299 0.000770292 0)
(0.0948558 0.00080752 0)
(0.0999997 4.76591e-06 0)
(0.0999951 1.42093e-05 0)
(0.0999853 2.33595e-05 0)
(0.0999713 3.22776e-05 0)
(0.0999532 4.21165e-05 0)
(0.0999304 5.52607e-05 0)
(0.099901 7.41877e-05 0)
(0.0998624 9.97456e-05 0)
(0.0998122 0.000130172 0)
(0.0997492 0.000161557 0)
(0.0996744 0.000189382 0)
(0.0995902 0.000210172 0)
(0.0995002 0.000222469 0)
(0.099408 0.000226881 0)
(0.0993165 0.000225449 0)
(0.0992275 0.000220779 0)
(0.0991419 0.000215308 0)
(0.0990596 0.000210866 0)
(0.09898 0.000208552 0)
(0.0989024 0.000208818 0)
(0.0988258 0.000211656 0)
(0.0987494 0.000216796 0)
(0.0986726 0.000223863 0)
(0.0985948 0.000232487 0)
(0.0985156 0.000242353 0)
(0.0984348 0.000253225 0)
(0.0983522 0.000264944 0)
(0.0982675 0.000277415 0)
(0.0981807 0.000290592 0)
(0.0980916 0.00030446 0)
(0.0980002 0.000319031 0)
(0.0979064 0.000334328 0)
(0.0978101 0.000350382 0)
(0.0977113 0.00036723 0)
(0.0976098 0.00038491 0)
(0.0975055 0.000403462 0)
(0.0973984 0.000422925 0)
(0.0972884 0.00044334 0)
(0.0971755 0.000464748 0)
(0.0970595 0.000487191 0)
(0.0969403 0.000510711 0)
(0.0968179 0.000535352 0)
(0.0966923 0.000561158 0)
(0.0965632 0.000588176 0)
(0.0964306 0.000616453 0)
(0.0962946 0.000646039 0)
(0.0961548 0.000676985 0)
(0.0960114 0.000709345 0)
(0.0958642 0.000743176 0)
(0.0957132 0.000778535 0)
(0.0955582 0.000815489 0)
(0.0953992 0.000854114 0)
(0.0952361 0.000894519 0)
(0.0950689 0.000936909 0)
(0.0948974 0.000981777 0)
(0.0999997 5.62496e-06 0)
(0.0999951 1.67683e-05 0)
(0.0999854 2.7573e-05 0)
(0.0999714 3.81033e-05 0)
(0.0999534 4.96867e-05 0)
(0.0999307 6.50857e-05 0)
(0.0999017 8.71939e-05 0)
(0.0998638 0.000117038 0)
(0.0998146 0.00015262 0)
(0.0997531 0.000189429 0)
(0.0996799 0.000222213 0)
(0.0995973 0.000246895 0)
(0.0995087 0.000261723 0)
(0.0994175 0.00026734 0)
(0.0993265 0.000266075 0)
(0.0992377 0.000260937 0)
(0.099152 0.000254759 0)
(0.0990694 0.000249687 0)
(0.0989894 0.000247022 0)
(0.0989113 0.000247317 0)
(0.0988344 0.000250589 0)
(0.0987577 0.00025654 0)
(0.0986807 0.000264748 0)
(0.0986029 0.000274788 0)
(0.0985238 0.000286298 0)
(0.0984432 0.000299005 0)
(0.0983609 0.000312721 0)
(0.0982766 0.000327335 0)
(0.0981902 0.00034279 0)
(0.0981017 0.000359068 0)
(0.098011 0.000376179 0)
(0.0979178 0.000394149 0)
(0.0978223 0.000413014 0)
(0.0977242 0.000432813 0)
(0.0976236 0.000453592 0)
(0.0975203 0.000475395 0)
(0.0974142 0.000498268 0)
(0.0973053 0.000522258 0)
(0.0971934 0.000547412 0)
(0.0970786 0.000573778 0)
(0.0969607 0.000601405 0)
(0.0968397 0.000630343 0)
(0.0967155 0.000660643 0)
(0.0965879 0.00069236 0)
(0.096457 0.000725547 0)
(0.0963226 0.000760261 0)
(0.0961847 0.000796562 0)
(0.0960433 0.000834511 0)
(0.0958981 0.000874171 0)
(0.0957493 0.000915609 0)
(0.0955966 0.000958897 0)
(0.0954401 0.00100412 0)
(0.0952796 0.00105138 0)
(0.0951152 0.00110085 0)
(0.0949468 0.00115295 0)
(0.0945861 9.53939e-05 -4.55104e-24)
(0.0943931 0.000100407 -4.63882e-24)
(0.0941904 0.000105756 -3.17814e-26)
(0.0939774 0.000111493 1.42505e-23)
(0.0937534 0.000117631 -4.72059e-24)
(0.0935177 0.000124204 -4.85759e-24)
(0.0932694 0.00013125 -1.49555e-23)
(0.0930077 0.000138813 1.48502e-23)
(0.0927315 0.000146944 5.08083e-24)
(0.0924398 0.000155693 0)
(0.0921314 0.000165122 5.24858e-24)
(0.091805 0.000175294 -5.33887e-24)
(0.0914593 0.000186281 4.39163e-23)
(0.0910927 0.000198165 -9.41199e-23)
(0.0907035 0.000211035 5.03077e-23)
(0.0902898 0.00022499 4.07666e-23)
(0.0898497 0.000240146 5.23118e-23)
(0.0893809 0.000256635 -5.99067e-24)
(0.0888808 0.000274608 6.12133e-24)
(0.0883467 0.000294238 -6.25958e-24)
(0.0877754 0.000315731 0)
(0.0871635 0.000339324 6.5612e-24)
(0.0865069 0.000365302 -6.72593e-24)
(0.0858011 0.000393997 0)
(0.0850409 0.000425806 -7.08715e-24)
(0.0842205 0.000461201 0)
(0.0833329 0.000500742 -7.49688e-24)
(0.0823704 0.000545099 -1.25645e-22)
(0.0813235 0.000595072 1.33418e-22)
(0.0801816 0.000651624 -1.33949e-22)
(0.0789321 0.000715918 1.33745e-22)
(0.0775601 0.000789361 0)
(0.0760479 0.000873671 0)
(0.0743747 0.000970944 1.64023e-22)
(0.0725154 0.00108374 -1.5433e-22)
(0.0704402 0.00121518 0)
(0.068113 0.001369 0)
(0.0654907 0.00154955 0)
(0.0625223 0.00176168 0)
(0.0591478 0.00201027 0)
(0.0552989 0.00229933 0)
(0.0509018 0.00263014 0)
(0.0458841 0.00299828 0)
(0.0401873 0.00338864 0)
(0.0337928 0.00376817 -1.52088e-23)
(0.0267609 0.00407533 -5.22225e-22)
(0.0192761 0.00420733 5.21442e-22)
(0.0117212 0.00400671 5.66726e-22)
(0.00502306 0.00323148 -5.65876e-22)
(0.00102514 0.00150428 0)
(0.094595 0.00028591 -4.60367e-24)
(0.0944022 0.000300933 -9.38835e-24)
(0.0941997 0.000316979 -4.9198e-24)
(0.0939871 0.000334145 4.58491e-24)
(0.0937634 0.000352511 -4.78579e-24)
(0.093528 0.00037218 3.42926e-23)
(0.0932801 0.00039327 -5.38562e-23)
(0.0930188 0.000415913 5.0017e-24)
(0.0927431 0.000440253 6.67533e-23)
(0.092452 0.00046645 -9.21947e-23)
(0.0921442 0.000494681 -9.00254e-23)
(0.0918186 0.00052514 7.93273e-23)
(0.0914737 0.000558046 0)
(0.091108 0.000593637 5.53924e-24)
(0.0907198 0.000632182 -1.69282e-23)
(0.0903073 0.000673982 -1.91976e-22)
(0.0898685 0.000719384 1.84247e-22)
(0.089401 0.000768781 -1.95859e-22)
(0.0889026 0.00082263 -1.83907e-23)
(0.0883703 0.000881452 6.27331e-24)
(0.087801 0.000945857 0)
(0.0871913 0.00101656 -6.5782e-24)
(0.0865373 0.00109442 -2.11995e-22)
(0.0858344 0.00118043 4.43026e-22)
(0.0850776 0.00127578 2.44415e-22)
(0.0842611 0.00138189 -4.60967e-22)
(0.0833781 0.00150042 4.96469e-22)
(0.0824208 0.00163339 -5.03776e-22)
(0.0813802 0.00178319 -7.99552e-24)
(0.0802457 0.0019527 0)
(0.0790052 0.00214538 0)
(0.077644 0.00236545 0)
(0.0761452 0.00261801 0)
(0.0744885 0.00290932 -9.50532e-24)
(0.0726499 0.00324697 -6.44788e-22)
(0.0706006 0.00364023 -2.74126e-23)
(0.0683064 0.00410014 6.70453e-22)
(0.0657263 0.00463957 7.30556e-22)
(0.0628118 0.00527276 -7.29588e-22)
(0.059506 0.00601399 -2.42433e-23)
(0.0557444 0.00687473 -2.53329e-23)
(0.0514566 0.0078583 -8.73968e-22)
(0.0465722 0.00895071 8.45177e-22)
(0.041032 0.0101062 -2.88109e-23)
(0.0348093 0.0112255 1.53151e-23)
(0.0279447 0.012125 -1.06183e-21)
(0.0205852 0.0124985 1.06145e-21)
(0.0130501 0.0118784 -2.21549e-21)
(0.00613991 0.00955515 2.17844e-21)
(0.00147927 0.00441603 -2.23225e-21)
(0.0946128 0.000475445 -2.72352e-23)
(0.0944204 0.000500412 -9.55369e-24)
(0.0942185 0.000527073 3.68596e-23)
(0.0940063 0.000555563 -7.58127e-23)
(0.0937833 0.000586043 1.62219e-22)
(0.0935486 0.000618692 -7.68438e-23)
(0.0933016 0.000653704 1.41967e-26)
(0.0930412 0.000691299 9.97589e-24)
(0.0927665 0.000731716 1.73932e-22)
(0.0924766 0.000775221 -1.63611e-22)
(0.0921701 0.00082211 0)
(0.091846 0.000872706 1.46153e-26)
(0.0915027 0.000927371 0)
(0.0911389 0.000986506 1.90269e-22)
(0.0907528 0.00105056 -1.67715e-22)
(0.0903426 0.00112003 -3.61549e-22)
(0.0899064 0.00119549 2.00737e-23)
(0.0894419 0.00127761 -3.80669e-22)
(0.0889467 0.00136713 1.23058e-23)
(0.0884181 0.00146495 -4.07713e-22)
(0.0878529 0.00157206 4.20203e-22)
(0.0872479 0.00168967 -4.28194e-22)
(0.0865992 0.0018192 4.41321e-22)
(0.0859024 0.0019623 1.38902e-23)
(0.0851525 0.00212097 -1.42713e-23)
(0.0843439 0.00229754 1.46765e-23)
(0.0834701 0.0024948 -4.91652e-22)
(0.0825237 0.00271608 5.06788e-22)
(0.0814959 0.00296536 5.39323e-22)
(0.0803767 0.00324738 -5.22771e-22)
(0.0791544 0.00356789 0)
(0.0778155 0.00393382 0)
(0.0763438 0.00435357 1.83781e-23)
(0.0747207 0.0048374 1.26676e-21)
(0.072924 0.00539777 3.06726e-23)
(0.0709274 0.00604971 -1.27518e-21)
(0.0686999 0.00681117 0)
(0.0662048 0.00770289 -2.22972e-23)
(0.0633989 0.00874759 1.55361e-21)
(0.0602317 0.00996774 -3.10213e-21)
(0.0566457 0.0113808 3.28982e-21)
(0.0525774 0.0129901 9.98494e-23)
(0.0479606 0.0147702 -1.71029e-21)
(0.0427342 0.0166432 -1.85281e-21)
(0.0368557 0.0184438 1.90949e-21)
(0.0303245 0.0198699 1.48e-24)
(0.023212 0.0204191 -3.24871e-23)
(0.015711 0.0193236 2.1399e-21)
(0.00835631 0.015454 -2.07215e-21)
(0.0023521 0.00707605 -2.07263e-21)
(0.0946394 0.000663331 1.79455e-23)
(0.0944476 0.000698086 -9.10599e-24)
(0.0942464 0.000735179 1.94988e-26)
(0.0940351 0.000774815 9.36858e-24)
(0.0938131 0.000817222 -1.96107e-26)
(0.0935796 0.000862646 1.55619e-22)
(0.0933338 0.000911363 -2.94056e-22)
(0.0930749 0.000963679 1.58033e-22)
(0.0928019 0.00101993 -1.01167e-23)
(0.0925138 0.00108049 1.86974e-22)
(0.0922094 0.00114577 -1.66312e-22)
(0.0918876 0.00121622 -3.45124e-22)
(0.0915469 0.00129234 6.96847e-22)
(0.091186 0.0013747 -7.10562e-22)
(0.0908031 0.00146393 7.24948e-22)
(0.0903966 0.00156072 -7.28566e-22)
(0.0899644 0.00166587 -3.85703e-22)
(0.0895045 0.00178033 2.26171e-26)
(0.0890144 0.00190513 0)
(0.0884915 0.00204151 -3.97038e-22)
(0.0879329 0.00219089 4.09502e-22)
(0.0873352 0.00235495 0)
(0.0866948 0.00253566 -8.84412e-22)
(0.0860074 0.00273534 8.70061e-22)
(0.0852684 0.00295677 1.44071e-23)
(0.0844723 0.00320321 -3.71636e-26)
(0.083613 0.00347854 1.52284e-23)
(0.0826835 0.00378739 0)
(0.0816757 0.00413527 -5.31027e-26)
(0.0805803 0.00452876 0)
(0.0793866 0.0049758 -1.72938e-23)
(0.0780821 0.00548592 1.16962e-21)
(0.0766526 0.00607067 -1.1693e-21)
(0.0750814 0.00674407 -1.93465e-23)
(0.073349 0.00752304 4.00543e-23)
(0.0714332 0.00842795 -1.38126e-21)
(0.0693077 0.00948288 1.33833e-21)
(0.0669421 0.0107154 2.26828e-23)
(0.064301 0.0121553 -3.5844e-25)
(0.0613437 0.0138313 2.42126e-23)
(0.0580231 0.0157642 -1.66348e-21)
(0.0542859 0.0179547 3.36339e-21)
(0.0500724 0.0203629 -1.7536e-21)
(0.0453183 0.0228768 1.81482e-21)
(0.0399576 0.0252663 -1.8999e-21)
(0.0339275 0.0271189 -3.77651e-21)
(0.0271801 0.0277536 7.70452e-21)
(0.0197191 0.0261201 -3.9004e-21)
(0.0117187 0.0207077 0)
(0.003649 0.00937041 -3.66606e-21)
(0.0946746 0.0008489 -8.90069e-24)
(0.0944837 0.000893225 -3.63571e-23)
(0.0942836 0.00094052 1.10214e-22)
(0.0940735 0.000991054 -1.48815e-22)
(0.0938529 0.00104512 6.5542e-23)
(0.093621 0.00110304 9.61088e-24)
(0.093377 0.00116516 -9.77131e-24)
(0.0931202 0.00123189 -2.46518e-26)
(0.0928495 0.00130364 1.01148e-23)
(0.092564 0.00138091 -2.0573e-23)
(0.0922626 0.0014642 -3.38528e-22)
(0.091944 0.00155411 3.49374e-22)
(0.091607 0.00165128 -3.41239e-22)
(0.0912502 0.00175642 3.52256e-22)
(0.0908719 0.00187034 0)
(0.0904705 0.00199394 -2.49375e-26)
(0.090044 0.00212824 0)
(0.0895905 0.00227445 -3.8062e-22)
(0.0891076 0.00243391 4.05351e-22)
(0.0885928 0.00260819 -1.27395e-23)
(0.0880433 0.00279912 -8.58836e-22)
(0.0874559 0.00300885 8.46159e-22)
(0.0868272 0.0032399 -1.37652e-23)
(0.0861532 0.00349526 0)
(0.0854295 0.00377845 0)
(0.0846511 0.00409364 -9.87196e-22)
(0.0838123 0.00444578 9.57204e-22)
(0.0829068 0.00484074 0)
(0.0819272 0.00528551 -3.28538e-23)
(0.0808653 0.0057884 0)
(0.0797116 0.00635941 1.75973e-23)
(0.0784554 0.0070105 -1.81393e-23)
(0.0770846 0.00775609 -1.88962e-23)
(0.0755853 0.00861357 1.94814e-23)
(0.0739421 0.00960381 1.28249e-21)
(0.0721373 0.0107517 -1.32367e-21)
(0.0701514 0.0120864 2.87937e-21)
(0.0679623 0.0136408 -2.88123e-21)
(0.0655452 0.0154499 3.06063e-21)
(0.0628717 0.0175459 8.92485e-23)
(0.059909 0.0199503 -3.22649e-21)
(0.0566172 0.0226576 -2.57854e-23)
(0.0529456 0.025611 1.27584e-24)
(0.0488269 0.028664 1.69206e-24)
(0.0441658 0.0315264 2.23698e-24)
(0.0388218 0.0336909 -5.58569e-23)
(0.0325874 0.03433 -2.56214e-23)
(0.0252006 0.032152 -2.43452e-23)
(0.0163655 0.0252802 0)
(0.00539432 0.0112917 7.62765e-24)
(0.0947183 0.00103154 -4.41688e-23)
(0.0945285 0.00108522 2.65692e-23)
(0.0943298 0.00114251 9.09007e-24)
(0.0941214 0.00120374 1.39531e-22)
(0.0939027 0.00126926 -1.39584e-22)
(0.093673 0.00133949 1.44398e-22)
(0.0934316 0.00141484 -3.20526e-22)
(0.0931775 0.00149579 4.56316e-22)
(0.09291 0.00158287 -3.19627e-22)
(0.092628 0.00167667 -3.31559e-22)
(0.0923305 0.00177782 -1.66392e-23)
(0.0920163 0.00188702 6.73292e-22)
(0.0916842 0.00200508 -7.09204e-22)
(0.0913328 0.00213285 3.30785e-22)
(0.0909606 0.00227133 3.56988e-22)
(0.090566 0.00242161 3.73206e-22)
(0.0901472 0.00258496 -2.87579e-23)
(0.0897023 0.00276284 7.60629e-22)
(0.089229 0.0029569 7.8554e-22)
(0.088725 0.00316907 1.98767e-23)
(0.0881877 0.00340158 -8.32834e-22)
(0.0876141 0.00365707 0)
(0.0870011 0.00393862 0)
(0.086345 0.00424988 -9.28655e-22)
(0.0856419 0.00459515 9.15317e-22)
(0.0848872 0.0049795 9.86227e-22)
(0.0840759 0.00540893 -9.87688e-22)
(0.0832025 0.00589057 0)
(0.0822607 0.00643282 1.10316e-21)
(0.0812434 0.0070457 -1.10529e-21)
(0.080143 0.00774115 0)
(0.0789508 0.00853337 -2.39356e-21)
(0.0776574 0.00943937 2.41573e-21)
(0.0762526 0.0104794 -1.99729e-23)
(0.0747256 0.0116775 -2.67298e-21)
(0.0730649 0.013062 2.69778e-21)
(0.0712591 0.0146651 0)
(0.0692962 0.0165225 3.03158e-21)
(0.0671647 0.0186699 -3.0129e-21)
(0.0648518 0.0211383 2.44294e-23)
(0.0623423 0.0239422 3.3288e-21)
(0.059614 0.0270621 -6.67968e-21)
(0.0566293 0.0304157 1.83604e-23)
(0.0533205 0.0338163 3.65784e-23)
(0.049565 0.036916 3.46711e-21)
(0.0451413 0.0391326 3.87132e-24)
(0.039665 0.0395428 -2.97367e-21)
(0.0325345 0.0367134 3.04845e-21)
(0.0227465 0.0285642 0)
(0.00784149 0.0125454 2.69872e-23)
(0.0947702 0.00121046 8.69914e-24)
(0.0945821 0.00127297 8.01373e-23)
(0.0943854 0.00133976 -7.14655e-23)
(0.0941794 0.00141122 9.17353e-24)
(0.0939634 0.00148775 1.41007e-22)
(0.0937367 0.00156982 -1.41231e-22)
(0.0934986 0.00165795 -3.02555e-22)
(0.0932483 0.00175269 4.53471e-24)
(0.0929849 0.00185466 -5.61615e-24)
(0.0927076 0.00196455 3.36005e-22)
(0.0924152 0.00208313 -3.28189e-22)
(0.0921068 0.00221122 6.96408e-22)
(0.0917811 0.00234976 -3.47003e-22)
(0.0914368 0.00249981 1.12163e-23)
(0.0910726 0.00266251 1.14781e-23)
(0.0906869 0.00283919 7.59255e-22)
(0.0902781 0.00303136 -4.97451e-24)
(0.0898443 0.00324076 7.92567e-22)
(0.0893836 0.00346938 1.26683e-23)
(0.0888938 0.00371952 0)
(0.0883726 0.00399385 0)
(0.0878173 0.00429553 -8.89662e-22)
(0.087225 0.00462825 8.9191e-22)
(0.0865926 0.00499637 0)
(0.0859167 0.00540503 1.50087e-23)
(0.0851935 0.00586027 0)
(0.0844187 0.00636925 -1.03676e-21)
(0.0835878 0.00694038 2.11093e-21)
(0.0826959 0.00758364 -1.07424e-21)
(0.0817375 0.00831082 -2.27731e-21)
(0.080707 0.00913588 -7.68434e-23)
(0.0795984 0.0100753 -8.11471e-23)
(0.0784055 0.0111488 -8.53694e-23)
(0.0771224 0.0123792 2.5619e-21)
(0.0757435 0.0137934 2.75021e-21)
(0.0742645 0.015422 -2.75675e-21)
(0.0726826 0.0172986 0)
(0.0709972 0.0194583 3.05365e-21)
(0.0692104 0.0219327 -3.06074e-21)
(0.0673265 0.024742 -3.25258e-21)
(0.0653493 0.0278814 3.23466e-21)
(0.0632766 0.0312987 2.64573e-23)
(0.0610872 0.0348629 3.25385e-21)
(0.0587203 0.0383212 -1.06371e-22)
(0.0560397 0.0412468 -3.21453e-21)
(0.0527687 0.0429843 2.45262e-23)
(0.048398 0.0425843 0)
(0.0420706 0.038673 -1.94761e-23)
(0.0319194 0.0293786 -9.05998e-22)
(0.0126411 0.0124852 4.35266e-22)
(-0.000244612 0.000321152 0)
(-0.00102063 0.000576998 3.15432e-22)
(-0.00210146 0.000592741 -3.15905e-22)
(-0.00308419 0.000475444 -3.11121e-22)
(-0.00377003 0.000285091 3.11589e-22)
(-0.00407217 5.87156e-05 -9.45414e-24)
(-0.00395728 -0.000179298 0)
(-0.00342181 -0.000416263 0)
(-0.00247303 -0.000642914 0)
(-0.00113208 -0.000853644 0)
(0.000571798 -0.00104481 0)
(0.00260409 -0.00121493 0)
(0.00492737 -0.00136314 0)
(0.007504 -0.00148925 0)
(0.0102959 -0.00159362 0)
(0.0132656 -0.00167698 6.94865e-23)
(0.0163768 -0.00174033 -6.54731e-23)
(0.0195949 -0.00178488 0)
(0.0228874 -0.00181198 0)
(0.0262237 -0.00182308 -3.91169e-23)
(0.0295762 -0.00181971 3.91767e-23)
(0.0329196 -0.00180341 -2.51298e-23)
(0.036231 -0.0017757 1.54407e-24)
(0.0394905 -0.00173806 0)
(0.0426804 -0.00169196 9.6056e-25)
(0.0457859 -0.00163884 0)
(0.0487945 -0.00158002 0)
(0.0516961 -0.00151674 0)
(0.0544827 -0.00145016 1.78832e-25)
(0.0571485 -0.00138132 0)
(0.0596894 -0.00131117 5.37102e-26)
(0.062103 -0.00124056 -1.38955e-25)
(0.0643886 -0.00117023 2.06725e-25)
(0.0665465 -0.00110084 -2.55865e-24)
(0.0685786 -0.00103293 2.60167e-24)
(0.0704874 -0.00096697 2.41882e-24)
(0.0722765 -0.00090334 -5.26444e-24)
(0.0739501 -0.000842336 2.86472e-24)
(0.0755128 -0.000784182 3.61803e-25)
(0.0769698 -0.000729035 -3.61306e-25)
(0.0783266 -0.000676992 0)
(0.0795886 -0.000628096 -3.48799e-25)
(0.0807617 -0.000582344 1.68002e-24)
(0.0818514 -0.000539692 -1.66995e-24)
(0.0828634 -0.000500064 3.12835e-25)
(0.0838032 -0.000463355 -8.85024e-25)
(0.0846759 -0.000429438 3.0372e-25)
(0.0854866 -0.000398172 5.31525e-25)
(0.0862401 -0.000369398 -2.63271e-25)
(0.086941 -0.000342951 2.38808e-25)
(-0.000310721 0.000923309 -1.204e-21)
(-0.00111945 0.00164818 -1.31253e-21)
(-0.00207498 0.00168929 1.29369e-21)
(-0.00287366 0.00134615 -6.13511e-22)
(-0.0033648 0.000790496 6.14744e-22)
(-0.00348111 0.000129694 9.51971e-24)
(-0.0032021 -0.000568584 -1.86677e-23)
(-0.00253016 -0.00126488 -5.71798e-22)
(-0.00147179 -0.00193114 5.5462e-22)
(-4.68591e-05 -0.00255144 -1.61025e-23)
(0.00171701 -0.00311498 -1.50846e-23)
(0.00378747 -0.00361734 4.25444e-22)
(0.00613016 -0.0040557 -4.2601e-22)
(0.00870998 -0.00442928 -3.54152e-22)
(0.0114914 -0.00473899 3.58924e-23)
(0.0144391 -0.00498682 3.19156e-22)
(0.0175189 -0.00517559 -4.13926e-24)
(0.0206983 -0.00530877 -7.46659e-24)
(0.0239461 -0.00539026 0)
(0.0272337 -0.00542431 0)
(0.0305344 -0.00541537 0)
(0.033824 -0.00536795 -1.8963e-24)
(0.0370807 -0.00528654 8.59648e-23)
(0.0402853 -0.00517551 -9.35072e-23)
(0.043421 -0.00503921 5.42802e-23)
(0.0464733 -0.00488188 -3.49741e-23)
(0.0494303 -0.0047075 -3.44257e-23)
(0.0522821 -0.00451976 1.40734e-23)
(0.0550212 -0.00432208 -1.79292e-25)
(0.0576418 -0.00411758 -1.84569e-25)
(0.06014 -0.0039091 -5.38273e-26)
(0.0625136 -0.00369916 3.51073e-25)
(0.0647618 -0.00348998 -7.01033e-24)
(0.066885 -0.00328352 1.60868e-23)
(0.068885 -0.00308142 -8.42126e-24)
(0.0707643 -0.00288507 9.386e-25)
(0.0725263 -0.0026956 -3.46331e-25)
(0.0741751 -0.00251391 0)
(0.0757153 -0.00234067 6.03346e-24)
(0.0771519 -0.00217635 -5.34938e-24)
(0.0784903 -0.00202126 -4.88749e-24)
(0.0797358 -0.00187551 6.6065e-24)
(0.0808939 -0.00173911 -3.38379e-25)
(0.0819703 -0.00161192 -1.56993e-24)
(0.0829704 -0.00149373 2.82951e-24)
(0.0838995 -0.00138423 2.98264e-25)
(0.0847627 -0.00128304 1.9311e-24)
(0.085565 -0.00118975 1.9548e-25)
(0.086311 -0.00110387 -5.48362e-25)
(0.0870051 -0.00102491 -7.26962e-25)
(-0.000427167 0.00140905 -1.25959e-21)
(-0.00127658 0.00247429 1.37383e-21)
(-0.00196908 0.00252767 -1.33278e-21)
(-0.00240561 0.00198381 -2.05266e-23)
(-0.00252015 0.00110808 -4.91109e-25)
(-0.00228366 6.97432e-05 -1.22189e-21)
(-0.00169602 -0.00104582 1.26203e-21)
(-0.000766054 -0.00215776 1.16134e-21)
(0.000498336 -0.00322246 -4.25915e-23)
(0.00207923 -0.0042167 -2.08863e-21)
(0.00395298 -0.00512443 1.98801e-21)
(0.00609167 -0.00593638 -9.3824e-22)
(0.008467 -0.00664709 -1.34379e-23)
(0.0110488 -0.00725484 0)
(0.0138063 -0.00776044 6.74608e-22)
(0.0167087 -0.00816661 -8.14185e-23)
(0.0197258 -0.00847746 -5.84331e-22)
(0.0228285 -0.00869825 1.54092e-23)
(0.025989 -0.00883502 0)
(0.0291814 -0.00889441 0)
(0.0323814 -0.00888347 1.43656e-22)
(0.035567 -0.00880943 -1.3954e-22)
(0.0387181 -0.00867947 -9.43959e-23)
(0.041817 -0.00850075 1.00403e-22)
(0.0448481 -0.0082802 2.28191e-24)
(0.0477981 -0.00802478 -1.76637e-24)
(0.0506558 -0.00774101 1.31668e-24)
(0.0534121 -0.00743494 -2.05498e-23)
(0.0560598 -0.00711219 2.14988e-23)
(0.0585937 -0.0067779 -3.56163e-24)
(0.06101 -0.00643674 4.06944e-24)
(0.0633067 -0.00609288 -2.12678e-25)
(0.0654831 -0.00575001 -1.20366e-23)
(0.0675396 -0.00541136 2.67618e-23)
(0.0694779 -0.00507966 -1.57559e-23)
(0.0713003 -0.00475722 -1.03056e-23)
(0.0730102 -0.00444594 9.11171e-24)
(0.0746114 -0.00414729 0)
(0.0761083 -0.00386243 -5.16998e-26)
(0.0775056 -0.00359213 0)
(0.0788085 -0.00333691 -1.06832e-23)
(0.080022 -0.003097 9.97701e-24)
(0.0811514 -0.0028724 -6.22436e-25)
(0.082202 -0.00266293 -3.00522e-26)
(0.0831791 -0.00246821 -4.69635e-24)
(0.0840875 -0.00228776 8.57267e-24)
(0.0849324 -0.00212097 -4.48134e-24)
(0.0857183 -0.00196714 1.98464e-24)
(0.0864497 -0.0018255 -1.53697e-24)
(0.0871308 -0.00169521 -4.97022e-25)
(-0.000560727 0.00167989 -2.74775e-21)
(-0.0013976 0.00291959 0)
(-0.0016641 0.00296865 2.81217e-21)
(-0.0015777 0.00226007 -5.60341e-21)
(-0.00115679 0.00113229 2.812e-21)
(-0.000441541 -0.000211949 1.26124e-21)
(0.000557527 -0.00165865 -1.32354e-21)
(0.00184112 -0.00310663 1.19581e-21)
(0.00338216 -0.00450577 -2.34891e-21)
(0.00516594 -0.00582101 1.13507e-21)
(0.00717856 -0.00702919 1.64466e-23)
(0.00940051 -0.0081153 5.05039e-25)
(0.0118103 -0.00907094 1.36687e-23)
(0.014385 -0.00989246 -7.89421e-22)
(0.0171002 -0.0105797 7.65382e-22)
(0.0199316 -0.0111351 2.0836e-23)
(0.0228544 -0.0115633 -9.05912e-24)
(0.0258444 -0.0118707 4.91006e-22)
(0.0288783 -0.0120646 -4.9074e-22)
(0.0319338 -0.0121536 -6.41215e-24)
(0.03499 -0.0121467 0)
(0.0380277 -0.0120535 3.58183e-25)
(0.0410292 -0.0118836 0)
(0.0439788 -0.0116463 3.20701e-24)
(0.0468626 -0.0113513 2.85843e-25)
(0.0496686 -0.0110077 1.78307e-24)
(0.0523868 -0.0106245 -8.01745e-23)
(0.0550088 -0.0102099 7.90939e-23)
(0.0575283 -0.00977175 0)
(0.0599405 -0.00931703 -8.73415e-24)
(0.0622419 -0.00885222 9.17012e-24)
(0.0644307 -0.00838307 0)
(0.0665063 -0.00791472 -1.34101e-25)
(0.0684691 -0.00745163 1.24526e-23)
(0.0703206 -0.00699764 -2.72783e-23)
(0.0720631 -0.00655596 3.17195e-23)
(0.0736996 -0.00612924 -3.51043e-23)
(0.0752337 -0.00571958 3.75471e-23)
(0.0766695 -0.00532858 -1.93095e-23)
(0.0780114 -0.00495738 -9.9513e-24)
(0.079264 -0.0046067 8.71787e-24)
(0.0804323 -0.00427691 5.86211e-25)
(0.081521 -0.00396804 9.53886e-24)
(0.082535 -0.00367984 -1.98471e-23)
(0.0834793 -0.00341185 9.15317e-24)
(0.0843585 -0.0031634 3.30656e-26)
(0.0851772 -0.00293368 -5.28862e-25)
(0.0859398 -0.00272173 -2.67086e-26)
(0.0866504 -0.0025265 4.74602e-25)
(0.0873129 -0.00234677 -8.73122e-25)
(-0.000604292 0.00165703 -1.92795e-24)
(-0.00126383 0.00290542 -2.58193e-23)
(-0.000962009 0.00292145 -2.48774e-23)
(-0.000226441 0.00210011 -2.39934e-23)
(0.000831881 0.000813322 -4.55216e-23)
(0.00211846 -0.000736356 -6.85766e-25)
(0.00359741 -0.00240555 2.0855e-23)
(0.00526584 -0.00409769 -2.05654e-23)
(0.0071052 -0.00575114 -1.95818e-23)
(0.00910636 -0.0073192 2.24563e-21)