/*--------------------------------*- C++ -*----------------------------------*\
| =========                 |                                                 |
| \\      /  F ield         | OpenFOAM: The Open Source CFD Toolbox           |
|  \\    /   O peration     | Version:  2412                                  |
|   \\  /    A nd           | Website:  www.openfoam.com                      |
|    \\/     M anipulation  |                                                 |
\*---------------------------------------------------------------------------*/
FoamFile
{
    version     2.0;
    format      ascii;
    arch        "LSB;label=32;scalar=64";
    class       volVectorField;
    location    "16.5";
    object      vorticity;
}
// * * * * * * * * * * * * * * * * * * * * * * * * * * * * * * * * * * * * * //

dimensions      [0 0 -1 0 0 0 0];

internalField   nonuniform List<vector> 
63420
(
(0 0 5.88657e-06)
(0 0 5.81323e-06)
(0 0 5.68535e-06)
(0 0 5.98377e-06)
(0 0 7.5232e-06)
(0 0 1.068e-05)
(0 0 1.46856e-05)
(0 0 1.77324e-05)
(0 0 1.78871e-05)
(0 0 1.41365e-05)
(0 0 6.88115e-06)
(0 0 -2.32016e-06)
(0 0 -1.14692e-05)
(0 0 -1.88637e-05)
(0 0 -2.35351e-05)
(0 0 -2.53174e-05)
(0 0 -2.46503e-05)
(0 0 -2.22822e-05)
(0 0 -1.90032e-05)
(0 0 -1.54723e-05)
(0 0 -1.21453e-05)
(0 0 -9.27654e-06)
(0 0 -6.96094e-06)
(0 0 -5.18733e-06)
(0 0 -3.88681e-06)
(0 0 -2.96835e-06)
(0 0 -2.34107e-06)
(0 0 -1.92578e-06)
(0 0 -1.65911e-06)
(0 0 -1.4933e-06)
(0 0 -1.39403e-06)
(0 0 -1.33752e-06)
(0 0 -1.30776e-06)
(0 0 -1.2943e-06)
(0 0 -1.29039e-06)
(0 0 -1.29182e-06)
(0 0 -1.29594e-06)
(0 0 -1.30114e-06)
(0 0 -1.30643e-06)
(0 0 -1.31119e-06)
(0 0 -1.31507e-06)
(0 0 -1.31781e-06)
(0 0 -1.31926e-06)
(0 0 -1.31931e-06)
(0 0 -1.31785e-06)
(0 0 -1.31479e-06)
(0 0 -1.30996e-06)
(0 0 -1.30292e-06)
(0 0 -1.2923e-06)
(0 0 -1.27329e-06)
(0 0 -1.22936e-06)
(0 0 -1.10503e-06)
(0 0 -7.20161e-07)
(0 0 4.91016e-07)
(0 4.51585e-23 4.24533e-06)
(0 0 1.76573e-05)
(0 0 1.74407e-05)
(0 0 1.70598e-05)
(0 0 1.7947e-05)
(0 0 2.2534e-05)
(0 0 3.19534e-05)
(0 0 4.39285e-05)
(0 0 5.30798e-05)
(0 0 5.36404e-05)
(0 0 4.25729e-05)
(0 0 2.10469e-05)
(0 0 -6.31204e-06)
(0 0 -3.35598e-05)
(0 0 -5.5623e-05)
(0 0 -6.96065e-05)
(0 0 -7.50019e-05)
(0 0 -7.3106e-05)
(0 0 -6.61382e-05)
(0 0 -5.64456e-05)
(0 0 -4.59886e-05)
(0 0 -3.61248e-05)
(0 0 -2.76133e-05)
(0 0 -2.07391e-05)
(0 0 -1.54715e-05)
(0 0 -1.16075e-05)
(0 0 -8.87788e-06)
(0 0 -7.01331e-06)
(0 0 -5.77899e-06)
(0 0 -4.98684e-06)
(0 0 -4.49509e-06)
(0 0 -4.20174e-06)
(0 0 -4.03606e-06)
(0 0 -3.95049e-06)
(0 0 -3.91381e-06)
(0 0 -3.906e-06)
(0 0 -3.91444e-06)
(0 0 -3.93126e-06)
(0 0 -3.95161e-06)
(0 0 -3.97254e-06)
(0 0 -3.99221e-06)
(0 0 -4.0095e-06)
(0 0 -4.02368e-06)
(0 0 -4.03426e-06)
(0 0 -4.04088e-06)
(0 0 -4.04324e-06)
(0 0 -4.041e-06)
(0 0 -4.03368e-06)
(0 0 -4.02001e-06)
(0 0 -3.99596e-06)
(0 0 -3.94762e-06)
(0 0 -3.82713e-06)
(0 0 -3.47362e-06)
(0 0 -2.36403e-06)
(0 0 1.14785e-06)
(0 4.5625e-23 1.20662e-05)
(0 0 2.94154e-05)
(0 0 2.90589e-05)
(0 0 2.8428e-05)
(0 0 2.98834e-05)
(0 0 3.74525e-05)
(0 0 5.3043e-05)
(0 0 7.29438e-05)
(0 0 8.82985e-05)
(0 0 8.9566e-05)
(0 0 7.16689e-05)
(0 0 3.64589e-05)
(0 0 -8.49333e-06)
(0 0 -5.34071e-05)
(0 0 -8.99018e-05)
(0 0 -0.000113167)
(0 0 -0.000122319)
(0 0 -0.000119456)
(0 0 -0.00010821)
(0 0 -9.24332e-05)
(0 0 -7.53541e-05)
(0 0 -5.92125e-05)
(0 0 -4.52662e-05)
(0 0 -3.39921e-05)
(0 0 -2.53466e-05)
(0 0 -1.9001e-05)
(0 0 -1.45159e-05)
(0 0 -1.14509e-05)
(0 0 -9.42106e-06)
(0 0 -8.11794e-06)
(0 0 -7.30883e-06)
(0 0 -6.82616e-06)
(0 0 -6.55369e-06)
(0 0 -6.41319e-06)
(0 0 -6.35335e-06)
(0 0 -6.34122e-06)
(0 0 -6.35602e-06)
(0 0 -6.38478e-06)
(0 0 -6.41951e-06)
(0 0 -6.45533e-06)
(0 0 -6.48924e-06)
(0 0 -6.51938e-06)
(0 0 -6.54454e-06)
(0 0 -6.56391e-06)
(0 0 -6.57689e-06)
(0 0 -6.58297e-06)
(0 0 -6.58163e-06)
(0 0 -6.57207e-06)
(0 0 -6.5523e-06)
(0 0 -6.51604e-06)
(0 0 -6.44179e-06)
(0 0 -6.25536e-06)
(0 0 -5.70706e-06)
(0 0 -3.98216e-06)
(0 0 1.49396e-06)
(0 2.69264e-22 1.8579e-05)
(0 0 4.11523e-05)
(0 0 4.06615e-05)
(0 0 3.97854e-05)
(0 0 4.17762e-05)
(0 0 5.22217e-05)
(0 0 7.38351e-05)
(0 0 0.000101589)
(0 0 0.000123303)
(0 0 0.000125758)
(0 0 0.000101813)
(0 0 5.38611e-05)
(0 0 -7.77626e-06)
(0 0 -6.96579e-05)
(0 0 -0.000120201)
(0 0 -0.000152695)
(0 0 -0.000165832)
(0 0 -0.000162422)
(0 0 -0.000147412)
(0 0 -0.000126082)
(0 0 -0.000102869)
(0 0 -8.08669e-05)
(0 0 -6.18203e-05)
(0 0 -4.64017e-05)
(0 0 -3.45652e-05)
(0 0 -2.58697e-05)
(0 0 -1.9719e-05)
(0 0 -1.55128e-05)
(0 0 -1.27255e-05)
(0 0 -1.09348e-05)
(0 0 -9.82208e-06)
(0 0 -9.15771e-06)
(0 0 -8.7822e-06)
(0 0 -8.58819e-06)
(0 0 -8.50524e-06)
(0 0 -8.48806e-06)
(0 0 -8.50807e-06)
(0 0 -8.54746e-06)
(0 0 -8.59525e-06)
(0 0 -8.64472e-06)
(0 0 -8.69174e-06)
(0 0 -8.73374e-06)
(0 0 -8.76907e-06)
(0 0 -8.79659e-06)
(0 0 -8.8155e-06)
(0 0 -8.8251e-06)
(0 0 -8.82467e-06)
(0 0 -8.81315e-06)
(0 0 -8.78799e-06)
(0 0 -8.74134e-06)
(0 0 -8.64634e-06)
(0 0 -8.41058e-06)
(0 0 -7.72236e-06)
(0 0 -5.55923e-06)
(0 0 1.33277e-06)
(0 -1.76785e-22 2.29604e-05)
(0 0 5.28602e-05)
(0 0 5.22418e-05)
(0 0 5.11272e-05)
(0 0 5.36097e-05)
(0 0 6.67907e-05)
(0 0 9.42278e-05)
(0 0 0.000129733)
(0 0 0.000158007)
(0 0 0.000162281)
(0 0 0.00013332)
(0 0 7.38761e-05)
(0 0 -3.23998e-06)
(0 0 -8.11596e-05)
(0 0 -0.000145236)
(0 0 -0.000186886)
(0 0 -0.000204307)
(0 0 -0.000200904)
(0 0 -0.000182812)
(0 0 -0.00015663)
(0 0 -0.000127932)
(0 0 -0.000100622)
(0 0 -7.69194e-05)
(0 0 -5.76956e-05)
(0 0 -4.29166e-05)
(0 0 -3.20465e-05)
(0 0 -2.43497e-05)
(0 0 -1.90813e-05)
(0 0 -1.55868e-05)
(0 0 -1.33396e-05)
(0 0 -1.19417e-05)
(0 0 -1.11058e-05)
(0 0 -1.06323e-05)
(0 0 -1.03867e-05)
(0 0 -1.02807e-05)
(0 0 -1.02575e-05)
(0 0 -1.02812e-05)
(0 0 -1.03295e-05)
(0 0 -1.03886e-05)
(0 0 -1.04501e-05)
(0 0 -1.05087e-05)
(0 0 -1.05613e-05)
(0 0 -1.06057e-05)
(0 0 -1.06406e-05)
(0 0 -1.06649e-05)
(0 0 -1.06777e-05)
(0 0 -1.06783e-05)
(0 0 -1.06652e-05)
(0 0 -1.06356e-05)
(0 0 -1.05809e-05)
(0 0 -1.04718e-05)
(0 0 -1.02079e-05)
(0 0 -9.45127e-06)
(0 0 -7.08647e-06)
(0 0 4.76259e-07)
(0 8.72732e-23 2.44431e-05)
(0 0 6.45324e-05)
(0 0 6.3793e-05)
(0 0 6.24476e-05)
(0 0 6.53699e-05)
(0 0 8.11167e-05)
(0 0 0.000114135)
(0 0 0.000157263)
(0 0 0.000192325)
(0 0 0.000199163)
(0 0 0.000166413)
(0 0 9.69676e-05)
(0 0 5.81793e-06)
(0 0 -8.70214e-05)
(0 0 -0.000164008)
(0 0 -0.000214718)
(0 0 -0.000236773)
(0 0 -0.000234033)
(0 0 -0.00021367)
(0 0 -0.000183474)
(0 0 -0.000150066)
(0 0 -0.000118111)
(0 0 -9.02838e-05)
(0 0 -6.76614e-05)
(0 0 -5.02376e-05)
(0 0 -3.7403e-05)
(0 0 -2.83036e-05)
(0 0 -2.20676e-05)
(0 0 -1.79266e-05)
(0 0 -1.52604e-05)
(0 0 -1.35993e-05)
(0 0 -1.26041e-05)
(0 0 -1.20386e-05)
(0 0 -1.17437e-05)
(0 0 -1.16147e-05)
(0 0 -1.15843e-05)
(0 0 -1.16099e-05)
(0 0 -1.16651e-05)
(0 0 -1.17335e-05)
(0 0 -1.1805e-05)
(0 0 -1.18735e-05)
(0 0 -1.19351e-05)
(0 0 -1.19874e-05)
(0 0 -1.20287e-05)
(0 0 -1.20577e-05)
(0 0 -1.20735e-05)
(0 0 -1.2075e-05)
(0 0 -1.20608e-05)
(0 0 -1.20281e-05)
(0 0 -1.19679e-05)
(0 0 -1.18517e-05)
(0 0 -1.15829e-05)
(0 0 -1.08384e-05)
(0 0 -8.55281e-06)
(0 0 -1.24899e-06)
(0 4.30618e-22 2.22791e-05)
(0 0 7.61601e-05)
(0 0 7.53067e-05)
(0 0 7.37403e-05)
(0 0 7.70448e-05)
(0 0 9.51666e-05)
(0 0 0.00013349)
(0 0 0.000184085)
(0 0 0.000226175)
(0 0 0.00023639)
(0 0 0.000201207)
(0 0 0.000123417)
(0 0 1.98476e-05)
(0 0 -8.6656e-05)
(0 0 -0.000175847)
(0 0 -0.000235496)
(0 0 -0.000262565)
(0 0 -0.000261212)
(0 0 -0.000239478)
(0 0 -0.0002062)
(0 0 -0.000168944)
(0 0 -0.00013308)
(0 0 -0.000101723)
(0 0 -7.61559e-05)
(0 0 -5.64202e-05)
(0 0 -4.18562e-05)
(0 0 -3.15145e-05)
(0 0 -2.44171e-05)
(0 0 -1.96973e-05)
(0 0 -1.6654e-05)
(0 0 -1.47545e-05)
(0 0 -1.36136e-05)
(0 0 -1.2963e-05)
(0 0 -1.26213e-05)
(0 0 -1.24694e-05)
(0 0 -1.24305e-05)
(0 0 -1.24561e-05)
(0 0 -1.25158e-05)
(0 0 -1.25911e-05)
(0 0 -1.26704e-05)
(0 0 -1.27466e-05)
(0 0 -1.28155e-05)
(0 0 -1.28741e-05)
(0 0 -1.29206e-05)
(0 0 -1.29535e-05)
(0 0 -1.29718e-05)
(0 0 -1.29742e-05)
(0 0 -1.29594e-05)
(0 0 -1.29244e-05)
(0 0 -1.28612e-05)
(0 0 -1.27444e-05)
(0 0 -1.24914e-05)
(0 0 -1.18351e-05)
(0 0 -9.92112e-06)
(0 0 -3.98398e-06)
(0 -8.42486e-23 1.56113e-05)
(-1.64759e-23 7.96405e-21 2.4164e-06)
(-1.47098e-22 7.8307e-21 1.85115e-06)
(3.33244e-23 -1.97009e-22 1.08153e-06)
(3.64913e-23 -2.33828e-20 6.48398e-08)
(-9.23813e-23 7.98963e-21 -1.23789e-06)
(3.63578e-22 7.84807e-21 -2.86215e-06)
(-7.92922e-22 2.28804e-20 -4.84055e-06)
(3.10546e-22 -2.3251e-20 -7.20628e-06)
(6.26012e-22 -7.48112e-21 -9.9958e-06)
(-8.95739e-22 -3.70841e-24 -1.32507e-05)
(-8.95916e-22 -7.49791e-21 -1.70183e-05)
(7.84856e-22 7.12168e-21 -2.13522e-05)
(5.61961e-22 -5.86899e-20 -2.63119e-05)
(-1.03592e-21 1.26012e-19 -3.19615e-05)
(3.54746e-22 -6.78001e-20 -3.83633e-05)
(-1.23007e-21 -5.11245e-20 -4.55661e-05)
(2.35049e-21 -6.50981e-20 -5.36048e-05)
(-1.84787e-21 7.67444e-21 -6.25124e-05)
(-1.89497e-22 -7.15967e-21 -7.23334e-05)
(7.33823e-23 7.16557e-21 -8.30823e-05)
(-3.13272e-24 -1.28133e-22 -9.47461e-05)
(-6.84902e-23 -6.91319e-21 -0.000107303)
(-2.00075e-21 6.97468e-21 -0.000120731)
(4.18772e-21 1.28635e-23 -0.000135015)
(1.22335e-21 6.77374e-21 -0.000150162)
(-3.2626e-21 -5.29801e-24 -0.000166219)
(4.69649e-21 7.87271e-21 -0.000183293)
(-5.48894e-21 1.02151e-19 -0.000201574)
(6.64818e-22 -1.09695e-19 -0.000221364)
(-2.10447e-21 1.00257e-19 -0.000243114)
(2.04959e-21 -1.01396e-19 -0.000267478)
(4.83058e-23 1.33576e-21 -0.00029541)
(-6.28936e-23 -1.64038e-21 -0.000328333)
(2.74104e-21 -9.60846e-20 -0.000368452)
(-8.5995e-21 9.32525e-20 -0.000419321)
(-3.15664e-22 -1.54192e-21 -0.000486873)
(6.18197e-21 1.35206e-23 -0.000581194)
(6.72348e-21 1.47049e-23 -0.000719518)
(-6.70197e-21 -1.46579e-23 -0.000931015)
(-2.22281e-22 -4.8615e-25 -0.00126408)
(-2.31836e-22 -5.07049e-25 -0.00179669)
(-7.98328e-21 -1.74602e-23 -0.00264989)
(7.7059e-21 1.68536e-23 -0.00400335)
(-2.54589e-22 1.51528e-22 -0.00610983)
(-3.08449e-23 7.84497e-21 -0.00930271)
(-2.46922e-20 5.0806e-20 -0.0139876)
(2.37824e-20 -6.69457e-20 -0.0206049)
(-5.57668e-21 -9.53875e-21 -0.0295489)
(6.13037e-21 2.60256e-20 -0.0410372)
(-2.04021e-20 -5.69579e-21 -0.0548473)
(-2.57528e-22 7.97646e-21 6.90456e-06)
(-1.02691e-22 1.5691e-20 5.14162e-06)
(3.04764e-22 7.63248e-21 2.715e-06)
(-8.71103e-22 -7.84388e-21 -5.03622e-07)
(1.61727e-21 7.48184e-21 -4.62585e-06)
(-5.04935e-22 -5.35962e-20 -9.74988e-06)
(-2.07881e-22 8.51117e-20 -1.59692e-05)
(-5.7442e-23 -8.86947e-21 -2.33815e-05)
(2.1576e-21 -9.80291e-20 -3.20961e-05)
(-2.23774e-21 1.38418e-19 -4.22389e-05)
(-8.09116e-22 1.26485e-19 -5.39557e-05)
(5.94793e-22 -1.13801e-19 -6.74122e-05)
(-3.91537e-22 7.3423e-22 -8.27928e-05)
(2.79213e-21 -7.24848e-21 -0.000100297)
(-2.17152e-21 2.41118e-20 -0.00012012)
(-5.91306e-21 2.39478e-19 -0.00014242)
(1.58422e-21 -2.25233e-19 -0.000167301)
(-5.52837e-21 2.41381e-19 -0.000194891)
(-2.90821e-22 1.95346e-20 -0.000225338)
(-3.8245e-21 -7.32419e-21 -0.000258718)
(4.0418e-21 1.44587e-22 -0.00029501)
(-4.0528e-21 9.10272e-21 -0.000334168)
(1.07377e-21 2.09787e-19 -0.000376157)
(5.7759e-21 -4.44275e-19 -0.000420969)
(4.41934e-21 -2.12295e-19 -0.000468666)
(-6.84444e-21 4.29752e-19 -0.000519433)
(3.47237e-21 -4.28701e-19 -0.000573638)
(-1.80118e-21 4.39883e-19 -0.000631907)
(3.27504e-21 1.45241e-21 -0.000695204)
(-3.70645e-21 -9.71263e-23 -0.000764949)
(-1.24535e-21 -2.72369e-24 -0.000843183)
(0 0 -0.000932855)
(1.84112e-22 9.55523e-23 -0.00103834)
(1.10111e-20 1.23328e-20 -0.00116639)
(-1.54889e-20 3.60057e-19 -0.00132786)
(-1.57195e-20 -2.40572e-20 -0.00154081)
(1.83208e-20 -3.553e-19 -0.00183595)
(2.62873e-20 -3.07254e-19 -0.00226566)
(-9.13197e-21 3.28236e-19 -0.00291857)
(-3.11116e-20 2.18153e-21 -0.00394159)
(3.04074e-20 1.73362e-20 -0.00557117)
(-4.19164e-20 2.34588e-19 -0.00817394)
(2.25843e-20 -2.44017e-19 -0.0122934)
(-1.8016e-20 1.46765e-20 -0.0186934)
(1.99761e-20 7.73507e-21 -0.0283804)
(-5.98911e-20 1.13667e-19 -0.0425781)
(5.98197e-20 -1.11256e-19 -0.0626112)
(-9.2183e-20 8.31898e-20 -0.0896462)
(8.89565e-20 -9.28786e-20 -0.124266)
(-1.88326e-20 -6.38377e-22 -0.164417)
(-3.34087e-23 4.72521e-20 1.1042e-05)
(-8.35981e-23 1.49393e-20 7.86627e-06)
(3.67423e-22 -6.18957e-20 3.40664e-06)
(-7.77427e-22 1.23149e-19 -2.53915e-06)
(1.71807e-21 -2.63655e-19 -1.01326e-05)
(4.14175e-22 1.25384e-19 -1.95145e-05)
(-2.44804e-21 -8.70115e-22 -3.08264e-05)
(1.56024e-21 -1.70486e-20 -4.42259e-05)
(1.41673e-21 -2.57362e-19 -5.98976e-05)
(8.0624e-22 2.4525e-19 -7.80601e-05)
(-8.5808e-22 -1.62808e-21 -9.89694e-05)
(-4.21448e-21 -1.57295e-23 -0.000122919)
(6.68714e-21 -1.85192e-21 -0.000150238)
(-4.03325e-21 -2.51149e-19 -0.000181286)
(5.23592e-21 2.28271e-19 -0.000216419)
(-1.13107e-20 4.53623e-19 -0.000255935)
(-4.86076e-21 -1.21334e-20 -0.000300054)
(-4.59117e-21 4.66793e-19 -0.000349032)
(4.06282e-22 -1.41715e-20 -0.000403183)
(-1.22544e-20 4.53453e-19 -0.000462709)
(1.21674e-20 -4.70954e-19 -0.000527648)
(-9.02117e-21 4.49873e-19 -0.000598019)
(2.21293e-21 -4.67943e-19 -0.000673873)
(5.23325e-21 -9.32457e-21 -0.000755316)
(-2.59362e-21 1.37191e-20 -0.000842585)
(5.54973e-21 -8.83044e-21 -0.000936141)
(-1.86716e-20 4.22137e-19 -0.00103677)
(1.67549e-20 -4.49964e-19 -0.0011457)
(1.82238e-20 -4.18256e-19 -0.00126476)
(-1.49142e-20 4.20222e-19 -0.00139653)
(-1.08677e-21 -5.18869e-21 -0.0015447)
(1.12505e-20 -1.21757e-22 -0.0017145)
(-1.28867e-20 -2.48511e-20 -0.00191357)
(5.27544e-20 -7.65085e-19 -0.00215363)
(1.66782e-20 5.62302e-20 -0.00245338)
(-6.97815e-20 7.20763e-19 -0.00284382)
(3.97388e-21 -1.23912e-20 -0.00337745)
(-1.1482e-20 -4.90159e-21 -0.00414376)
(1.09926e-19 -6.06121e-19 -0.00529391)
(-2.0448e-19 1.19079e-18 -0.00707822)
(2.087e-19 -1.18392e-18 -0.00989894)
(7.17671e-20 8.52768e-20 -0.0143788)
(-1.57442e-19 5.18894e-19 -0.0214394)
(-1.65649e-19 3.58474e-19 -0.0323748)
(1.56497e-19 -4.24978e-19 -0.0488902)
(-2.23698e-20 1.95979e-20 -0.073061)
(5.52679e-20 -1.74557e-20 -0.107134)
(1.66148e-19 -1.03284e-19 -0.153044)
(-1.79827e-19 1.61129e-19 -0.211569)
(-2.55456e-20 -4.1271e-20 -0.274694)
(4.00319e-22 -3.11608e-20 1.44931e-05)
(-3.6425e-22 1.57591e-20 9.40014e-06)
(6.93202e-22 -1.72133e-22 2.10585e-06)
(-6.21924e-22 -1.55058e-20 -7.60365e-06)
(-9.67925e-22 -1.45127e-21 -1.98838e-05)
(3.2914e-21 -2.43401e-19 -3.48854e-05)
(-4.608e-21 4.60964e-19 -5.27848e-05)
(2.24322e-21 -2.48219e-19 -7.38011e-05)
(-1.8289e-21 1.49748e-20 -9.82066e-05)
(4.79954e-21 -2.71848e-19 -0.000126332)
(-5.80615e-21 2.48082e-19 -0.000158571)
(-3.99816e-21 4.7363e-19 -0.000195375)
(1.05663e-20 -9.58342e-19 -0.000237256)
(-1.27684e-20 9.57407e-19 -0.000284772)
(1.70249e-20 -9.5303e-19 -0.000338498)
(-1.1085e-20 9.44644e-19 -0.000398929)
(-9.80908e-21 4.80495e-19 -0.000466462)
(-7.09368e-22 -3.79057e-21 -0.000541572)
(4.53576e-21 3.93699e-21 -0.000624839)
(-7.48953e-21 4.43467e-19 -0.000716691)
(-2.16032e-21 -4.65762e-19 -0.000817369)
(1.48851e-20 1.28268e-20 -0.00092711)
(-3.33519e-20 8.94585e-19 -0.00104622)
(2.51547e-20 -8.97609e-19 -0.00117512)
(2.27776e-21 -5.33627e-21 -0.00131445)
(-9.81695e-21 -9.14917e-23 -0.0014652)
(1.4907e-20 -1.35756e-20 -0.00162885)
(-4.84917e-21 1.24347e-22 -0.00180756)
(-5.32974e-21 -6.51665e-23 -0.00200437)
(5.07129e-21 1.97124e-22 -0.00222345)
(-3.73604e-21 1.41864e-21 -0.00247057)
(6.27381e-20 -7.94542e-19 -0.00275375)
(-5.67887e-20 8.17196e-19 -0.00308453)
(-1.61789e-20 1.90172e-22 -0.00348028)
(1.88338e-20 -1.03503e-20 -0.00396842)
(-9.86968e-20 7.30425e-19 -0.004594)
(1.15403e-19 -7.337e-19 -0.00543303)
(-2.29092e-20 2.22999e-21 -0.00661466)
(1.6184e-20 -9.1826e-23 -0.00835688)
(3.84811e-20 6.50067e-21 -0.0110203)
(-2.4904e-19 5.49233e-19 -0.0151841)
(3.68996e-19 -1.11378e-18 -0.0217441)
(-1.80185e-19 5.64512e-19 -0.0320257)
(2.62805e-19 -4.32549e-19 -0.0478928)
(-2.54313e-19 5.09629e-19 -0.0718136)
(-5.94326e-19 5.26608e-19 -0.106822)
(1.12277e-18 -1.11618e-18 -0.156252)
(-5.5004e-19 5.63773e-19 -0.22297)
(1.89889e-20 -2.19413e-21 -0.307763)
(4.58274e-21 -3.53418e-20 -0.38897)
(-7.36148e-22 1.58402e-20 1.67516e-05)
(-2.70904e-22 6.06542e-20 8.64133e-06)
(1.96346e-21 -1.84186e-19 -3.01798e-06)
(-1.29378e-21 2.47189e-19 -1.82676e-05)
(-2.7993e-22 -1.0947e-19 -3.71702e-05)
(1.10692e-22 -1.46303e-20 -5.98621e-05)
(-4.73021e-22 1.54275e-20 -8.6563e-05)
(3.0453e-21 -1.87676e-22 -0.000117579)
(-2.90029e-21 -1.50812e-20 -0.000153304)
(-5.26602e-21 3.38391e-20 -0.000194223)
(-6.87349e-21 4.81705e-19 -0.00024091)
(1.83836e-20 -5.00677e-19 -0.000294028)
(-2.27285e-20 4.67146e-19 -0.000354328)
(1.8903e-20 -4.8595e-19 -0.000422639)
(-3.02344e-21 3.41676e-21 -0.000499825)
(1.10487e-20 4.78472e-23 -0.000586675)
(4.20228e-21 3.73604e-21 -0.000683873)
(-5.09861e-21 4.54156e-19 -0.000792237)
(2.01296e-20 -4.91492e-19 -0.000912764)
(6.38038e-21 2.70313e-20 -0.00104629)
(-4.54809e-20 9.36733e-19 -0.00119346)
(2.87397e-20 -9.39453e-19 -0.00135497)
(1.02401e-20 2.27125e-20 -0.00153167)
(-1.81446e-20 -2.34527e-22 -0.00172459)
(1.18728e-20 9.68979e-21 -0.00193515)
(-3.8275e-20 9.00906e-19 -0.00216527)
(3.14701e-20 -8.92492e-19 -0.00241761)
(2.85266e-21 9.67465e-21 -0.00269577)
(9.62447e-21 2.73577e-20 -0.0030046)
(-1.15722e-20 -5.52706e-22 -0.00335056)
(1.17188e-21 -1.30883e-20 -0.00374226)
(-3.75198e-20 1.32936e-20 -0.00419137)
(3.53305e-20 1.26671e-20 -0.00471429)
(-3.15823e-21 -2.54035e-20 -0.00533509)
(8.20241e-20 -7.43834e-19 -0.00609107)
(-7.29819e-20 7.66682e-19 -0.00704267)
(2.69318e-19 -1.47631e-18 -0.00829093)
(-2.46723e-19 1.49062e-18 -0.0100069)
(3.06662e-19 -1.39597e-18 -0.0124791)
(7.23336e-20 1.32395e-19 -0.0161849)
(-3.53077e-19 1.33055e-18 -0.0218917)
(-1.21801e-19 -2.23631e-20 -0.0307888)
(1.65769e-20 3.88146e-22 -0.0446417)
(-1.85048e-20 5.64688e-22 -0.0659491)
(5.46439e-20 1.67754e-21 -0.09807)
(2.63171e-20 1.37108e-20 -0.14526)
(-1.1408e-19 5.18652e-21 -0.212456)
(6.49462e-20 5.03063e-21 -0.304283)
(-1.66627e-22 -3.12818e-22 -0.422046)
(3.63594e-20 6.45398e-22 -0.51763)
(-6.97072e-22 7.63453e-20 1.70551e-05)
(1.64696e-21 -4.65558e-20 3.49058e-06)
(-1.68123e-21 -1.64201e-20 -1.52591e-05)
(4.64543e-21 -2.28124e-19 -3.87945e-05)
(-2.25059e-21 2.30007e-19 -6.70802e-05)
(1.99131e-21 -2.27602e-19 -0.000100294)
(-1.09133e-20 5.01917e-19 -0.000138768)
(1.14686e-20 -7.02975e-19 -0.000182961)
(-7.39492e-21 4.9714e-19 -0.000233457)
(-5.82984e-21 4.84635e-19 -0.000290956)
(-2.2043e-21 3.94687e-21 -0.000356285)
(2.42792e-20 -9.52097e-19 -0.000430393)
(-2.11673e-20 9.9093e-19 -0.000514353)
(5.0076e-21 -4.66249e-19 -0.000609358)
(1.20159e-20 -4.68543e-19 -0.000716679)
(2.23746e-20 -4.6107e-19 -0.000837528)
(-3.23117e-21 6.72137e-21 -0.000973032)
(3.82073e-20 -9.56205e-19 -0.00112454)
(2.94525e-20 -9.18127e-19 -0.00129368)
(6.58233e-21 2.12228e-20 -0.00148196)
(-2.64403e-20 9.53698e-19 -0.00169073)
(-2.02295e-20 -8.12135e-21 -0.0019215)
(1.23511e-20 8.99193e-21 -0.00217604)
(-5.05147e-20 9.23755e-19 -0.00245652)
(4.09514e-20 -9.38417e-19 -0.00276565)
(7.25992e-20 -9.01517e-19 -0.00310691)
(-7.38321e-20 9.31275e-19 -0.00348485)
(1.51451e-20 -2.01155e-20 -0.00390536)
(6.73595e-20 -8.99152e-19 -0.00437605)
(-9.52476e-20 9.22139e-19 -0.00490672)
(4.3967e-21 1.24174e-20 -0.00551007)
(-2.06599e-19 1.6897e-18 -0.00620279)
(1.86621e-19 -1.75311e-18 -0.00700759)
(4.87822e-20 6.23857e-20 -0.00795677)
(-2.66918e-19 1.60047e-18 -0.0090989)
(2.44477e-19 -1.66887e-18 -0.0105109)
(-3.17915e-20 -3.34425e-21 -0.0123195)
(4.7272e-19 -1.50602e-18 -0.0147375)
(-4.42345e-19 1.55542e-18 -0.0181236)
(-6.67752e-20 -7.29969e-20 -0.0230724)
(6.81429e-19 -1.3158e-18 -0.0305446)
(-1.1989e-18 2.71433e-18 -0.0420381)
(-6.70288e-20 -1.55908e-19 -0.0597932)
(-8.97524e-20 -1.22228e-19 -0.0870196)
(7.75785e-19 -1.1832e-18 -0.128132)
(3.98357e-20 6.35246e-20 -0.189012)
(-8.78106e-19 7.85659e-19 -0.277302)
(8.61031e-19 -8.63899e-19 -0.40217)
(9.4546e-21 2.9204e-20 -0.570171)
(9.45824e-21 -2.76523e-21 -0.685966)
(6.059e-22 -1.59042e-20 1.43964e-05)
(1.64665e-21 -1.35633e-19 -1.03947e-05)
(-1.7744e-21 1.22329e-19 -4.03077e-05)
(-1.28459e-21 -1.72317e-20 -7.54232e-05)
(5.28399e-21 -2.26719e-19 -0.00011601)
(-4.8704e-21 2.33211e-19 -0.000162466)
(-5.67195e-21 4.71088e-19 -0.000215327)
(-5.13524e-21 -1.946e-20 -0.000275256)
(2.22963e-21 -4.56203e-21 -0.000343048)
(1.43307e-20 -5.02399e-19 -0.000419631)
(-1.16441e-20 4.70138e-19 -0.000506077)
(1.73994e-20 -9.94699e-19 -0.000603605)
(-3.87541e-21 4.97257e-19 -0.000713582)
(-3.6785e-21 -1.87236e-20 -0.000837528)
(-4.90583e-21 -2.24136e-20 -0.000977067)
(2.82147e-20 -9.76287e-19 -0.00113377)
(-1.60517e-21 -2.01289e-20 -0.00130915)
(2.70646e-20 -9.94506e-19 -0.00150497)
(-5.44591e-21 -7.70003e-21 -0.00172336)
(-1.70362e-22 1.20044e-22 -0.00196632)
(1.15173e-20 8.48716e-21 -0.00223567)
(-5.26834e-20 9.57235e-19 -0.00253342)
(4.69088e-20 -9.77829e-19 -0.00286188)
(1.28538e-20 8.39119e-21 -0.00322375)
(-8.77329e-21 -1.49899e-20 -0.00362225)
(-6.21e-21 9.96621e-21 -0.00406138)
(-7.38042e-20 9.24565e-19 -0.0045461)
(1.58695e-19 -1.88639e-18 -0.00508261)
(-7.51747e-20 9.83853e-19 -0.00567856)
(-1.91219e-19 1.82388e-18 -0.00634342)
(-3.05511e-20 -4.53695e-20 -0.00708892)
(2.69395e-21 -2.62214e-20 -0.00792986)
(-6.64891e-20 -5.37224e-20 -0.00888569)
(2.58468e-19 -1.8239e-18 -0.00998365)
(3.99204e-19 -1.68923e-18 -0.0112651)
(-3.56149e-19 1.77299e-18 -0.0127974)
(-3.42044e-20 -5.53318e-20 -0.0146967)
(4.73752e-19 -1.61675e-18 -0.0171676)
(-4.17563e-19 1.71251e-18 -0.020571)
(-6.70307e-19 1.52212e-18 -0.0255309)
(5.69478e-19 -1.60759e-18 -0.0330957)
(7.88737e-20 -1.1317e-20 -0.0449574)
(8.73836e-19 -1.4226e-18 -0.0637305)
(1.22913e-19 1.22318e-19 -0.0932772)
(-1.01073e-18 1.39432e-18 -0.139084)
(-1.639e-20 -3.99663e-20 -0.208764)
(3.38369e-20 5.30937e-22 -0.313407)
(-3.43341e-20 1.56669e-20 -0.472524)
(-5.1841e-19 5.4256e-19 -0.723719)
(5.09808e-19 -5.517e-19 -0.995559)
(-1.06624e-20 -3.12677e-21 0.0102901)
(-1.06176e-20 -6.05294e-22 0.00464034)
(9.95537e-21 1.00302e-20 -0.000125401)
(-7.07652e-21 2.08795e-21 -0.00408385)
(7.59321e-21 -1.13929e-20 -0.00731775)
(2.04021e-23 3.40443e-21 -0.00991199)
(-1.65158e-22 -9.4178e-23 -0.0119469)
(-5.21337e-21 1.14022e-23 -0.0134966)
(5.06619e-21 -1.10803e-23 -0.0146257)
(-1.47364e-22 3.22299e-25 -0.0153908)
(-1.38307e-22 3.02491e-25 -0.0158423)
(3.90811e-21 -8.54743e-24 -0.0160246)
(-3.92067e-21 8.57489e-24 -0.0159785)
(-3.26549e-21 7.14195e-24 -0.0157409)
(3.59681e-22 -6.94719e-22 -0.0153453)
(5.69673e-21 1.91387e-20 -0.014822)
(-2.60843e-21 -1.65093e-20 -0.0141979)
(-4.4264e-23 -6.54637e-22 -0.0134974)
(-1.41282e-23 3.90675e-22 -0.012742)
(-2.63868e-21 -3.54817e-20 -0.0119506)
(2.66359e-21 3.50216e-20 -0.0111394)
(-2.02373e-21 -4.06527e-20 -0.0103223)
(8.27181e-22 2.64606e-21 -0.0095109)
(-8.78946e-22 7.77061e-24 -0.00871507)
(6.46922e-22 3.41773e-21 -0.00794372)
(-2.06977e-22 1.03281e-23 -0.00720326)
(-3.25396e-22 7.11673e-25 -0.00649855)
(1.33327e-22 -2.07751e-24 -0.00583321)
(2.27986e-22 4.38404e-21 -0.00520981)
(-1.78666e-24 1.25591e-24 -0.00462989)
(-2.11154e-22 -4.81595e-21 -0.00409413)
(2.03916e-22 5.01869e-21 -0.00360248)
(-2.57822e-22 -5.18941e-21 -0.00315423)
(1.00322e-21 4.91042e-20 -0.00274817)
(-9.19698e-22 -4.94444e-20 -0.00238262)
(-4.14107e-22 -4.05801e-20 -0.0020556)
(9.70521e-22 8.82174e-20 -0.00176484)
(-5.41272e-22 -4.77789e-20 -0.00150787)
(-7.3403e-23 -6.15026e-21 -0.00128214)
(7.06746e-23 6.31776e-21 -0.00108501)
(-4.74755e-23 -2.61689e-26 -0.000913832)
(1.70907e-22 6.53802e-21 -0.000766025)
(-2.74441e-22 -3.34699e-20 -0.00063907)
(2.48979e-22 3.36578e-20 -0.000530566)
(-5.78533e-23 -6.87449e-21 -0.000438253)
(1.56616e-22 2.09411e-20 -0.000360022)
(1.87992e-23 -6.98041e-21 -0.000293928)
(-9.63089e-23 -1.42793e-20 -0.000238174)
(2.40362e-23 7.17494e-21 -0.000191093)
(-6.67878e-23 -7.28302e-21 -0.000151149)
(-1.54162e-20 2.52023e-20 0.0297521)
(3.08074e-20 -9.11645e-21 0.0129362)
(-2.48661e-20 -2.26226e-20 -0.00133249)
(6.60935e-21 2.17156e-20 -0.0130923)
(-7.06001e-21 -2.1129e-20 -0.0226326)
(-1.22042e-20 6.07555e-21 -0.0302379)
(1.07158e-20 6.12391e-21 -0.0361651)
(3.50521e-21 4.4047e-21 -0.0406485)
(8.26049e-21 -1.54706e-20 -0.0438886)
(-2.07718e-20 5.60454e-21 -0.0460559)
(1.84884e-20 -4.91974e-21 -0.0473005)
(9.78556e-21 2.88758e-20 -0.0477564)
(-2.02597e-20 -1.70123e-20 -0.0475443)
(-2.23157e-20 -5.51837e-20 -0.0467741)
(5.75618e-21 -2.11076e-20 -0.0455445)
(2.29397e-20 6.55495e-20 -0.0439448)
(-5.54995e-21 1.9471e-21 -0.0420547)
(-9.54845e-22 -3.47244e-21 -0.0399456)
(8.36131e-24 -7.45027e-23 -0.0376804)
(3.64231e-22 -7.9661e-25 -0.0353145)
(9.92266e-22 1.41536e-23 -0.0328955)
(-1.28792e-21 -3.49984e-21 -0.0304634)
(2.42118e-20 1.88765e-19 -0.0280518)
(-2.6818e-20 -2.03365e-19 -0.0256902)
(2.51193e-20 2.25455e-19 -0.0234035)
(-1.32008e-20 -1.06374e-19 -0.0212112)
(-2.4046e-20 -2.53623e-19 -0.0191269)
(1.1671e-20 1.30181e-19 -0.0171606)
(-3.90405e-23 -4.25778e-21 -0.0153197)
(-9.12097e-22 -9.35751e-21 -0.0136084)
(2.49688e-22 4.82593e-21 -0.0120285)
(-9.96834e-22 -1.51288e-20 -0.0105794)
(8.10311e-21 1.64998e-19 -0.00925903)
(-1.69402e-20 -3.52305e-19 -0.00806352)
(7.59005e-21 1.70946e-19 -0.00698784)
(-8.97939e-22 -1.73879e-20 -0.00602595)
(2.85398e-22 5.91134e-21 -0.00517106)
(-2.48339e-23 -6.35121e-23 -0.00441588)
(-3.34303e-21 -1.06248e-19 -0.00375273)
(2.84252e-21 9.40412e-20 -0.00317383)
(2.01987e-21 9.0918e-20 -0.00267135)
(-2.9749e-21 -1.23892e-19 -0.00223762)
(7.09263e-23 6.74419e-21 -0.00186522)
(6.00629e-22 3.4131e-20 -0.00154707)
(-1.32196e-21 -6.14907e-20 -0.00127649)
(1.61994e-23 -6.94178e-21 -0.00104729)
(-8.11672e-22 -4.9416e-20 -0.000853722)
(-1.52666e-22 -7.36795e-21 -0.000690487)
(1.92277e-22 1.4216e-20 -0.000552606)
(2.27615e-22 2.17317e-20 -0.000435351)
(-1.44109e-20 -1.01016e-21 0.0457834)
(-1.38461e-20 -1.57623e-20 0.0180529)
(3.60512e-20 2.97371e-20 -0.00560413)
(-4.38644e-20 -1.25602e-20 -0.024769)
(1.80608e-20 1.16308e-20 -0.0400833)
(1.05651e-20 7.20464e-21 -0.052134)
(-1.75939e-21 -4.40248e-20 -0.0614049)
(4.05997e-20 1.12773e-20 -0.0683174)
(-2.43642e-20 4.70905e-20 -0.0732242)
(-6.80869e-20 -6.35985e-20 -0.0764099)
(1.06492e-19 7.04109e-20 -0.0781225)
(-6.32201e-20 -2.97886e-20 -0.0785834)
(4.92815e-21 -1.0949e-20 -0.0779903)
(-2.83506e-21 -6.80178e-21 -0.0765209)
(8.92068e-20 1.58481e-19 -0.0743345)
(-3.19513e-21 3.97443e-20 -0.0715742)
(-8.30305e-20 -1.83394e-19 -0.068368)
(8.69211e-21 1.53115e-21 -0.0648294)
(-4.7637e-21 1.78554e-22 -0.0610586)
(1.90832e-22 -1.42526e-21 -0.0571433)
(4.50831e-20 1.75533e-19 -0.0531585)
(-4.40825e-20 -1.66101e-19 -0.0491674)
(-4.34282e-20 -2.03219e-19 -0.0452228)
(4.63549e-20 2.12826e-19 -0.0413699)
(9.13111e-22 8.40057e-21 -0.0376478)
(-1.18754e-21 -7.84882e-21 -0.0340866)
(1.00728e-21 8.50594e-21 -0.0307071)
(-3.55228e-20 -2.74503e-19 -0.0275243)
(3.76833e-20 2.83252e-19 -0.0245489)
(-3.21715e-20 -2.90852e-19 -0.0217867)
(3.43927e-20 3.10406e-19 -0.0192396)
(7.75236e-22 1.03786e-20 -0.0169064)
(2.87782e-20 3.45741e-19 -0.0147826)
(-5.54053e-20 -6.92484e-19 -0.0128617)
(2.7816e-20 3.69108e-19 -0.0111349)
(1.29686e-20 1.99832e-19 -0.00959234)
(-1.15033e-20 -1.76835e-19 -0.0082226)
(3.61164e-22 8.89847e-23 -0.00701367)
(-4.93075e-22 -7.70203e-23 -0.00595301)
(-5.22084e-23 1.05758e-22 -0.00502788)
(8.38412e-21 2.08623e-19 -0.00422559)
(-8.11264e-21 -1.96013e-19 -0.00353368)
(6.5609e-22 1.34982e-20 -0.00294014)
(-3.52399e-22 -5.20892e-24 -0.00243352)
(3.04899e-21 1.1038e-19 -0.00200308)
(-5.61419e-21 -2.08536e-19 -0.00163881)
(2.75769e-21 1.11988e-19 -0.00133148)
(-1.38628e-21 -5.71555e-20 -0.0010725)
(1.04589e-21 4.27446e-20 -0.000853678)
(2.47976e-22 1.43415e-20 -0.000666741)
(1.8522e-21 2.70684e-20 0.0550526)
(8.80177e-21 -5.48021e-20 0.0169575)
(-6.39627e-20 2.20056e-20 -0.0156581)
(9.11659e-20 6.18176e-20 -0.0413479)
(-1.12341e-20 -9.6356e-20 -0.0613841)
(5.56224e-21 4.14315e-20 -0.0768237)
(-2.16444e-20 -2.3446e-22 -0.0884694)
(2.4333e-20 3.72443e-20 -0.0969507)
(-9.28869e-20 -7.11232e-20 -0.102772)
(1.03397e-19 2.07641e-20 -0.106338)
(-2.31882e-20 1.28094e-20 -0.10799)
(-1.19625e-20 7.12116e-22 -0.108029)
(1.69069e-20 9.33493e-21 -0.106719)
(-1.23628e-19 -1.736e-19 -0.104294)
(1.0813e-19 1.5317e-19 -0.100965)
(-5.55533e-21 1.4231e-20 -0.0969208)
(5.35038e-21 -8.13219e-21 -0.092328)
(1.23458e-19 2.90183e-19 -0.0873348)
(-1.25922e-19 -2.80106e-19 -0.0820708)
(-9.03415e-22 -1.03201e-20 -0.0766493)
(-1.36512e-21 -5.93292e-23 -0.0711671)
(1.75262e-21 4.41402e-22 -0.0657055)
(9.15898e-22 -3.29823e-23 -0.0603314)
(-8.37689e-22 7.40771e-21 -0.0551022)
(2.40827e-21 3.69898e-22 -0.0500664)
(1.4129e-21 8.75163e-21 -0.0452615)
(-1.10262e-19 -5.70584e-19 -0.0407144)
(1.09725e-19 5.61162e-19 -0.036442)
(-8.54895e-22 8.69836e-22 -0.0324564)
(-4.66187e-20 -3.19639e-19 -0.0287637)
(4.91839e-20 3.30165e-19 -0.0253649)
(-2.26305e-23 9.17643e-23 -0.0222567)
(-1.99004e-22 -3.11065e-22 -0.0194322)
(-3.92411e-20 -3.74805e-19 -0.0168815)
(7.49397e-20 7.49047e-19 -0.0145921)
(-6.87755e-20 -7.56187e-19 -0.0125497)
(6.47623e-20 7.7388e-19 -0.0107388)
(-6.02919e-20 -7.90454e-19 -0.00914277)
(2.8924e-20 3.99598e-19 -0.00774439)
(1.24274e-20 2.06498e-19 -0.00652638)
(-1.09456e-20 -1.80899e-19 -0.00547156)
(-9.00138e-22 -1.32804e-20 -0.00456316)
(-9.89816e-21 -2.15717e-19 -0.00378503)
(2.06281e-20 4.61943e-19 -0.00312186)
(-9.44681e-21 -2.1902e-19 -0.00255929)
(9.71896e-23 1.46078e-22 -0.00208397)
(3.84528e-22 1.40241e-20 -0.0016836)
(-8.66792e-23 -5.14864e-23 -0.00134668)
(-3.61689e-22 -1.42747e-20 -0.00106194)
(7.7786e-22 2.884e-20 -0.000817102)
(2.75972e-20 9.75739e-23 0.053192)
(3.21416e-22 3.75294e-22 0.00532809)
(-6.20596e-20 3.65702e-22 -0.0351253)
(9.11051e-20 -4.55096e-22 -0.0656068)
(-2.74614e-20 -4.24784e-22 -0.0885502)
(-4.29048e-20 -9.18625e-22 -0.105707)
(1.46156e-20 4.66234e-22 -0.118258)
(-1.09888e-20 -7.93675e-22 -0.127047)
(8.7312e-20 -2.41691e-20 -0.132726)
(1.31929e-19 2.18616e-19 -0.135804)
(8.50294e-21 8.6782e-20 -0.136697)
(-1.72791e-19 -2.87676e-19 -0.13576)
(2.2895e-19 3.6397e-19 -0.133306)
(-2.45781e-19 -3.57022e-19 -0.12961)
(1.23438e-19 2.31596e-19 -0.124919)
(-1.34382e-19 -2.42235e-19 -0.11945)
(5.36563e-21 -2.63762e-21 -0.113398)