/*--------------------------------*- C++ -*----------------------------------*\
| =========                 |                                                 |
| \\      /  F ield         | OpenFOAM: The Open Source CFD Toolbox           |
|  \\    /   O peration     | Version:  2412                                  |
|   \\  /    A nd           | Website:  www.openfoam.com                      |
|    \\/     M anipulation  |                                                 |
\*---------------------------------------------------------------------------*/
FoamFile
{
    version     2.0;
    format      ascii;
    arch        "LSB;label=32;scalar=64";
    class       volVectorField;
    location    "7.5";
    object      U;
}
// * * * * * * * * * * * * * * * * * * * * * * * * * * * * * * * * * * * * * //

dimensions      [0 1 -1 0 0 0 0];

internalField   nonuniform List<vector> 
5285
(
(0.068818 -0.00134853 6.68052e-26)
(0.0712036 -0.00122049 0)
(0.0733656 -0.00110245 3.64323e-26)
(0.0753222 -0.000994721 0)
(0.0770915 -0.000897261 0)
(0.0786914 -0.000809679 0)
(0.0801393 -0.000731392 7.05574e-26)
(0.0814512 -0.000661688 0)
(0.0826419 -0.000599791 -1.02714e-25)
(0.083725 -0.000544904 1.19065e-25)
(0.0847123 -0.000496252 -1.34947e-25)
(0.0856147 -0.000453102 1.38014e-24)
(0.0864415 -0.000414782 -1.39622e-24)
(0.0872011 -0.000380686 -1.26825e-24)
(0.0879006 -0.000350279 2.79819e-24)
(0.0885464 -0.000323091 -1.54212e-24)
(0.089144 -0.000298717 -2.1016e-25)
(0.0896984 -0.000276807 2.18957e-25)
(0.0902138 -0.000257061 0)
(0.0906939 -0.000239221 2.33626e-25)
(0.0911421 -0.00022307 -1.20329e-24)
(0.0915613 -0.00020842 1.20996e-24)
(0.0919541 -0.000195111 -2.49194e-25)
(0.092323 -0.000183005 7.59845e-25)
(0.0926701 -0.000171986 -2.51765e-25)
(0.0929973 -0.000161949 -5.17036e-25)
(0.0933064 -0.000152805 2.59001e-25)
(0.0935989 -0.000144469 -2.61822e-25)
(0.0692193 -0.00401665 4.24299e-24)
(0.0715445 -0.00363694 -4.71882e-24)
(0.0736549 -0.00328666 3.04658e-24)
(0.0755676 -0.00296678 -1.46043e-24)
(0.0772998 -0.00267716 -3.51828e-24)
(0.0788686 -0.00241673 1.89179e-24)
(0.0802904 -0.00218379 -7.07394e-26)
(0.0815806 -0.00197626 -2.08741e-25)
(0.0827532 -0.00179186 1.02938e-25)
(0.0838211 -0.00162825 -3.85044e-25)
(0.0847958 -0.00148315 4.52477e-24)
(0.0856876 -0.0013544 -9.97761e-24)
(0.0865054 -0.00124 4.96149e-24)
(0.0872573 -0.00113818 -5.48803e-25)
(0.0879503 -0.00104734 1.89579e-25)
(0.0885905 -0.000966101 0)
(0.0891833 -0.000893251 -3.68156e-24)
(0.0897335 -0.000827754 3.24583e-24)
(0.0902451 -0.000768718 3.24057e-24)
(0.090722 -0.000715379 -4.41647e-24)
(0.0911673 -0.000667083 2.39556e-25)
(0.0915839 -0.000623273 1.24109e-24)
(0.0919744 -0.000583469 -2.23838e-24)
(0.0923412 -0.000547263 -2.52687e-25)
(0.0926863 -0.000514301 -1.80102e-24)
(0.0930118 -0.000484276 -2.6878e-25)
(0.0933191 -0.000456915 5.17255e-25)
(0.0936101 -0.000431963 7.84154e-25)
(0.0699877 -0.00660241 -8.14532e-24)
(0.0721995 -0.00598342 8.55894e-24)
(0.0742118 -0.00541174 2.63912e-25)
(0.0760413 -0.00488909 -2.40553e-25)
(0.0777031 -0.00441521 2.33656e-25)
(0.0792126 -0.00398855 -6.20204e-24)
(0.0805847 -0.00360647 6.44628e-24)
(0.0818332 -0.00326568 -7.39011e-24)
(0.082971 -0.00296253 7.87546e-24)
(0.0840098 -0.00269328 2.66793e-25)
(0.08496 -0.00245425 1.03101e-23)
(0.0858311 -0.00224195 -2.11408e-23)
(0.0866315 -0.00205319 1.14972e-23)
(0.0873686 -0.00188505 6.65908e-24)
(0.0880489 -0.00173495 -5.87564e-24)
(0.0886781 -0.00160065 0)
(0.0892614 -0.00148016 -1.81113e-26)
(0.0898033 -0.0013718 0)
(0.0903077 -0.00127409 7.56849e-24)
(0.0907781 -0.00118578 -7.11496e-24)
(0.0912176 -0.00110581 4.96987e-25)
(0.0916291 -0.00103325 -9.98891e-27)
(0.092015 -0.000967317 4.06512e-24)
(0.0923776 -0.000907327 -7.67857e-24)
(0.092719 -0.000852701 4.11483e-24)
(0.0930409 -0.000802929 -2.09579e-24)
(0.093345 -0.000757556 1.56942e-24)
(0.0936328 -0.000716149 5.21615e-25)
(0.0710629 -0.0090598 0)
(0.0731188 -0.00822049 5.01412e-25)
(0.0749978 -0.00744396 1.63036e-25)
(0.0767123 -0.00673276 2.42831e-25)
(0.0782769 -0.00608682 -1.85997e-23)
(0.0797042 -0.00550419 1.84772e-23)
(0.081007 -0.00498153 0)
(0.0821973 -0.00451457 -9.92488e-24)
(0.0832862 -0.00409854 1.037e-23)
(0.0842838 -0.00372849 0)
(0.0851993 -0.00339952 -5.35122e-26)
(0.0860411 -0.00310698 -1.27647e-23)
(0.0868165 -0.00284658 2.5831e-23)
(0.0875323 -0.0026144 -2.65619e-23)
(0.0881942 -0.00240697 2.76698e-23)
(0.0888076 -0.00222121 -2.86277e-23)
(0.0893772 -0.00205447 1.45277e-23)
(0.089907 -0.00190442 7.67543e-24)
(0.0904007 -0.00176906 -6.70474e-24)
(0.0908617 -0.00164669 -5.04807e-25)
(0.0912929 -0.00153582 -8.09134e-24)
(0.0916969 -0.0014352 1.73403e-23)
(0.0920761 -0.00134374 -8.22342e-24)
(0.0924326 -0.0012605 1.07757e-26)
(0.0927683 -0.00118467 5.19966e-25)
(0.0930851 -0.00111556 -8.48379e-27)
(0.0933844 -0.00105253 -5.25023e-25)
(0.0936677 -0.000994942 1.05881e-24)
(0.0742409 -0.0103211 -3.70702e-23)
(0.0759613 -0.00935981 3.61104e-23)
(0.0775404 -0.00847739 0)
(0.078989 -0.00767416 0)
(0.0803177 -0.00694806 -3.506e-25)
(0.0815371 -0.00629533 -2.56302e-23)
(0.0826568 -0.00571097 2.52649e-23)
(0.083686 -0.00518934 -3.64076e-25)
(0.0846331 -0.00472453 -1.28878e-23)
(0.0855057 -0.00431065 1.3735e-23)
(0.086311 -0.00394206 0)
(0.0870553 -0.00361352 5.55041e-26)
(0.0877442 -0.00332025 0)
(0.0883831 -0.00305797 -1.51745e-23)
(0.0889764 -0.0028229 1.57125e-23)
(0.0895285 -0.00261172 -1.53776e-23)
(0.0900429 -0.00242156 1.58474e-23)
(0.0905231 -0.00224993 -1.01889e-24)
(0.0909721 -0.00209469 5.04697e-25)
(0.0913926 -0.00195398 1.98942e-26)
(0.0917869 -0.00182623 -5.17053e-25)
(0.0921574 -0.00171006 5.21514e-25)
(0.092506 -0.0016043 -4.7807e-24)
(0.0928346 -0.00150792 8.52018e-24)
(0.0931447 -0.00142003 -6.41022e-24)
(0.0934378 -0.00133981 2.1342e-24)
(0.0937154 -0.00126645 8.25592e-27)
(0.0754986 -0.0123091 5.58011e-23)
(0.0770495 -0.0111801 -5.57203e-23)
(0.0784814 -0.0101407 -4.33289e-23)
(0.0798037 -0.00919198 4.25032e-23)
(0.0810245 -0.0083322 0)
(0.0821516 -0.00755744 0)
(0.0831928 -0.00686231 3.3868e-23)
(0.084155 -0.00624055 -6.39738e-25)
(0.085045 -0.00568551 -3.4169e-23)
(0.0858689 -0.00519049 -3.33059e-23)
(0.0866324 -0.00474901 6.4961e-23)
(0.0873407 -0.00435501 -1.67532e-23)
(0.0879987 -0.00400294 -1.70249e-23)
(0.0886106 -0.0036878 -1.78019e-23)
(0.0891805 -0.00340513 3.31207e-23)
(0.089712 -0.00315103 -3.44428e-23)
(0.0902084 -0.00292211 -6.92897e-25)
(0.0906726 -0.00271541 1.70843e-23)
(0.0911073 -0.00252838 1.73167e-23)
(0.091515 -0.00235881 -2.70643e-23)
(0.091898 -0.0022048 1.68242e-23)
(0.0922582 -0.00206471 -9.2456e-24)
(0.0925974 -0.00193712 9.2581e-24)
(0.0929173 -0.00182082 -9.24431e-24)
(0.0932195 -0.00171471 5.36264e-25)
(0.0935053 -0.00161781 -2.70397e-24)
(0.093776 -0.0015291 1.07783e-24)
(0.0768389 -0.0142143 -9.2307e-23)
(0.0782181 -0.0129299 0)
(0.0795008 -0.0117434 0)
(0.0806931 -0.0106571 7.78094e-25)
(0.0818017 -0.00967003 -5.0051e-23)
(0.0828322 -0.00877836 4.99232e-23)
(0.0837901 -0.00797659 0)
(0.0846809 -0.00725808 0)
(0.0855093 -0.0066156 5.80228e-25)
(0.0862802 -0.00604179 -3.85778e-23)
(0.086998 -0.00552945 7.79831e-23)
(0.0876667 -0.00507177 -3.82775e-23)
(0.0882903 -0.00466248 5.54671e-25)
(0.0888722 -0.0042959 5.53902e-25)
(0.0894158 -0.00396694 1.84882e-23)
(0.0899243 -0.00367115 -3.62974e-23)
(0.0904003 -0.0034046 1.89187e-23)
(0.0908464 -0.00316388 -1.77307e-23)
(0.0912651 -0.00294605 1.53387e-26)
(0.0916585 -0.00274853 5.76864e-25)
(0.0920285 -0.00256912 1.86599e-23)
(0.092377 -0.00240592 9.54556e-24)
(0.0927056 -0.00225726 -9.52001e-24)
(0.0930158 -0.00212172 5.489e-25)
(0.0933091 -0.00199803 4.41097e-24)
(0.0935866 -0.00188504 -3.85652e-24)
(0.0938496 -0.00178157 5.38541e-25)
(0.093877 -0.000136841 0)
(0.094144 -0.000129838 0)
(0.0944026 -0.000123353 0)
(0.0946534 -0.000117324 0)
(0.0948967 -0.00011166 0)
(0.095133 -0.000106244 0)
(0.0953621 -0.000100932 0)
(0.0955839 -9.55683e-05 0)
(0.0957976 -9.00016e-05 0)
(0.0960022 -8.41213e-05 0)
(0.0961964 -7.78887e-05 0)
(0.0963789 -7.13639e-05 0)
(0.0965485 -6.47115e-05 0)
(0.0967047 -5.8181e-05 0)
(0.0968474 -5.20605e-05 0)
(0.0969777 -4.66163e-05 0)
(0.0970969 -4.20361e-05 0)
(0.0972072 -3.83932e-05 0)
(0.0973109 -3.56413e-05 0)
(0.0974099 -3.36388e-05 0)
(0.097506 -3.21913e-05 0)
(0.0976003 -3.10964e-05 0)
(0.0976935 -3.01797e-05 0)
(0.0977859 -2.93136e-05 0)
(0.0978774 -2.84206e-05 0)
(0.0979677 -2.74657e-05 0)
(0.0980566 -2.64436e-05 0)
(0.0981436 -2.53662e-05 0)
(0.0982287 -2.42525e-05 0)
(0.0983115 -2.31226e-05 0)
(0.0983919 -2.19938e-05 0)
(0.0984699 -2.08799e-05 0)
(0.0985454 -1.97912e-05 0)
(0.0986182 -1.87345e-05 0)
(0.0986886 -1.77146e-05 0)
(0.0987564 -1.67342e-05 0)
(0.0988217 -1.57947e-05 0)
(0.0988846 -1.48967e-05 0)
(0.0989451 -1.40401e-05 0)
(0.0990032 -1.32242e-05 0)
(0.0990591 -1.2448e-05 0)
(0.0991127 -1.171e-05 0)
(0.0991641 -1.10091e-05 0)
(0.0992134 -1.03438e-05 0)
(0.0938864 -0.000409136 0)
(0.0941514 -0.000388197 0)
(0.094408 -0.0003688 0)
(0.0946569 -0.000350757 0)
(0.0948984 -0.000333803 0)
(0.0951328 -0.000317591 0)
(0.0953603 -0.000301698 0)
(0.0955804 -0.00028566 0)
(0.0957925 -0.000269038 0)
(0.0959958 -0.000251504 0)
(0.0961888 -0.000232943 0)
(0.0963706 -0.000213531 0)
(0.0965398 -0.000193752 0)
(0.096696 -0.000174339 0)
(0.0968392 -0.00015614 0)
(0.0969703 -0.000139937 0)
(0.0970906 -0.000126285 0)
(0.0972022 -0.0001154 0)
(0.0973071 -0.000107148 0)
(0.0974074 -0.000101114 0)
(0.0975045 -9.67265e-05 0)
(0.0975997 -9.33895e-05 0)
(0.0976937 -9.05887e-05 0)
(0.0977866 -8.79469e-05 0)
(0.0978784 -8.52344e-05 0)
(0.0979689 -8.23463e-05 0)
(0.0980579 -7.92658e-05 0)
(0.098145 -7.60266e-05 0)
(0.0982301 -7.26841e-05 0)
(0.0983129 -6.92964e-05 0)
(0.0983933 -6.59147e-05 0)
(0.0984712 -6.25793e-05 0)
(0.0985466 -5.93201e-05 0)
(0.0986194 -5.61576e-05 0)
(0.0986897 -5.31052e-05 0)
(0.0987574 -5.01711e-05 0)
(0.0988227 -4.73595e-05 0)
(0.0988855 -4.46717e-05 0)
(0.0989459 -4.21073e-05 0)
(0.099004 -3.96641e-05 0)
(0.0990598 -3.73393e-05 0)
(0.0991133 -3.51292e-05 0)
(0.0991647 -3.30299e-05 0)
(0.0992139 -3.10373e-05 0)
(0.0939055 -0.000678292 0)
(0.0941665 -0.000643624 0)
(0.0944194 -0.000611485 0)
(0.0946645 -0.000581567 0)
(0.0949025 -0.000553439 0)
(0.0951335 -0.00052654 0)
(0.0953575 -0.000500192 0)
(0.0955744 -0.000473648 0)
(0.0957835 -0.000446201 0)
(0.0959841 -0.000417324 0)
(0.096175 -0.00038683 0)
(0.0963552 -0.000354996 0)
(0.0965236 -0.000322592 0)
(0.0966799 -0.000290791 0)
(0.096824 -0.000260948 0)
(0.0969565 -0.000234322 0)
(0.0970789 -0.000211806 0)
(0.0971929 -0.000193754 0)
(0.0973002 -0.000179958 0)
(0.0974027 -0.00016976 0)
(0.0975019 -0.000162246 0)
(0.0975988 -0.000156462 0)
(0.0976941 -0.00015158 0)
(0.0977879 -0.00014699 0)
(0.0978804 -0.000142317 0)
(0.0979714 -0.000137388 0)
(0.0980606 -0.000132171 0)
(0.0981478 -0.000126716 0)
(0.0982329 -0.000121108 0)
(0.0983156 -0.00011544 0)
(0.0983959 -0.000109792 0)
(0.0984737 -0.000104228 0)
(0.098549 -9.87949e-05 0)
(0.0986216 -9.35261e-05 0)
(0.0986918 -8.84427e-05 0)
(0.0987594 -8.35572e-05 0)
(0.0988245 -7.88762e-05 0)
(0.0988872 -7.44018e-05 0)
(0.0989475 -7.01326e-05 0)
(0.0990055 -6.60654e-05 0)
(0.0990611 -6.21952e-05 0)
(0.0991146 -5.85159e-05 0)
(0.0991659 -5.50211e-05 0)
(0.099215 -5.17038e-05 0)
(0.0939351 -0.000942347 0)
(0.0941903 -0.000894302 0)
(0.0944377 -0.000849711 0)
(0.0946776 -0.000808152 0)
(0.0949104 -0.000769046 0)
(0.0951365 -0.000731644 0)
(0.0953557 -0.000695046 0)
(0.0955679 -0.000658264 0)
(0.0957727 -0.000620358 0)
(0.0959695 -0.000580629 0)
(0.0961572 -0.000538822 0)
(0.0963351 -0.000495294 0)
(0.0965024 -0.000451054 0)
(0.0966586 -0.000407639 0)
(0.0968038 -0.000366839 0)
(0.0969384 -0.000330321 0)
(0.0970635 -0.000299272 0)
(0.0971806 -0.000274177 0)
(0.0972912 -0.000254777 0)
(0.0973969 -0.000240214 0)
(0.0974988 -0.00022929 0)
(0.097598 -0.000220742 0)
(0.097695 -0.000213473 0)
(0.0977902 -0.000206665 0)
(0.0978836 -0.000199813 0)
(0.0979752 -0.000192675 0)
(0.0980647 -0.000185199 0)
(0.0981521 -0.000177443 0)
(0.0982371 -0.000169514 0)
(0.0983198 -0.00016153 0)
(0.0983999 -0.000153594 0)
(0.0984775 -0.00014579 0)
(0.0985526 -0.000138179 0)
(0.098625 -0.000130804 0)
(0.098695 -0.000123691 0)
(0.0987624 -0.000116858 0)
(0.0988273 -0.000110313 0)
(0.0988898 -0.000104057 0)
(0.0989499 -9.80886e-05 0)
(0.0990077 -9.24027e-05 0)
(0.0990632 -8.69922e-05 0)
(0.0991165 -8.18487e-05 0)
(0.0991677 -7.69631e-05 0)
(0.0992167 -7.23254e-05 0)
(0.093976 -0.00119954 0)
(0.0942239 -0.00113862 0)
(0.0944644 -0.00108199 0)
(0.0946977 -0.00102913 0)
(0.0949241 -0.00097932 0)
(0.0951439 -0.000931668 0)
(0.0953571 -0.000885096 0)
(0.0955636 -0.000838426 0)
(0.095763 -0.000790536 0)
(0.095955 -0.000740585 0)
(0.0961388 -0.00068826 0)
(0.0963138 -0.000633969 0)
(0.0964794 -0.000578897 0)
(0.0966353 -0.000524862 0)
(0.0967815 -0.000473988 0)
(0.0969183 -0.000428263 0)
(0.0970466 -0.000389118 0)
(0.0971673 -0.000357153 0)
(0.0972817 -0.000332087 0)
(0.0973909 -0.000312919 0)
(0.0974961 -0.000298233 0)
(0.0975979 -0.000286529 0)
(0.0976971 -0.00027649 0)
(0.0977938 -0.000267128 0)
(0.0978882 -0.00025782 0)
(0.0979804 -0.000248261 0)
(0.0980703 -0.000238371 0)
(0.0981578 -0.000228205 0)
(0.0982428 -0.000217884 0)
(0.0983253 -0.000207538 0)
(0.0984052 -0.000197289 0)
(0.0984826 -0.000187231 0)
(0.0985574 -0.000177436 0)
(0.0986296 -0.000167954 0)
(0.0986992 -0.000158816 0)
(0.0987663 -0.000150041 0)
(0.098831 -0.000141638 0)
(0.0988933 -0.000133608 0)
(0.0989531 -0.000125948 0)
(0.0990107 -0.000118651 0)
(0.099066 -0.000111707 0)
(0.0991191 -0.000105106 0)
(0.0991701 -9.88363e-05 0)
(0.0992189 -9.28844e-05 0)
(0.0940288 -0.00144843 0)
(0.0942683 -0.00137529 0)
(0.0945008 -0.00130716 0)
(0.0947265 -0.00124341 0)
(0.0949456 -0.00118324 0)
(0.0951583 -0.00112565 0)
(0.0953646 -0.00106943 0)
(0.0955644 -0.00101329 0)
(0.0957577 -0.000955958 0)
(0.0959441 -0.000896507 0)
(0.0961232 -0.000834567 0)
(0.0962947 -0.000770572 0)
(0.0964582 -0.000705812 0)
(0.0966134 -0.000642288 0)
(0.0967604 -0.000582349 0)
(0.0968993 -0.000528212 0)
(0.0970305 -0.000481487 0)
(0.0971549 -0.000442875 0)
(0.0972732 -0.000412099 0)
(0.0973861 -0.000388077 0)
(0.0974946 -0.000369255 0)
(0.0975992 -0.000353968 0)
(0.0977005 -0.000340739 0)
(0.0977989 -0.000328448 0)
(0.0978944 -0.000316378 0)
(0.0979872 -0.000304159 0)
(0.0980774 -0.00029168 0)
(0.098165 -0.000278984 0)
(0.0982499 -0.000266189 0)
(0.0983322 -0.000253431 0)
(0.0984119 -0.000240838 0)
(0.0984889 -0.000228512 0)
(0.0985633 -0.000216528 0)
(0.0986352 -0.00020494 0)
(0.0987045 -0.000193782 0)
(0.0987713 -0.000183073 0)
(0.0988356 -0.000172821 0)
(0.0988976 -0.000163026 0)
(0.0989571 -0.000153684 0)
(0.0990144 -0.000144785 0)
(0.0990695 -0.000136318 0)
(0.0991223 -0.000128268 0)
(0.099173 -0.000120622 0)
(0.0992217 -0.000113363 0)
(0.0940937 -0.00168794 0)
(0.0943241 -0.00160341 0)
(0.094548 -0.00152443 0)
(0.0947656 -0.00145027 0)
(0.0949768 -0.00138012 0)
(0.0951818 -0.00131292 0)
(0.0953806 -0.00124742 0)
(0.0955733 -0.00118224 0)
(0.0957598 -0.00111606 0)
(0.0959401 -0.00104787 0)
(0.096114 -0.000977259 0)
(0.0962815 -0.000904666 0)
(0.0964423 -0.000831415 0)
(0.0965964 -0.00075959 0)
(0.0967436 -0.000691657 0)
(0.0968841 -0.000629959 0)
(0.097018 -0.000576224 0)
(0.0971456 -0.000531233 0)
(0.0972674 -0.00049474 0)
(0.0973838 -0.000465644 0)
(0.0974954 -0.000442327 0)
(0.0976027 -0.000423038 0)
(0.097706 -0.000406201 0)
(0.0978058 -0.000390607 0)
(0.0979023 -0.000375462 0)
(0.0979957 -0.000360341 0)
(0.0980861 -0.000345094 0)
(0.0981737 -0.000329742 0)
(0.0982585 -0.00031439 0)
(0.0983405 -0.000299169 0)
(0.0984198 -0.000284202 0)
(0.0984964 -0.000269593 0)
(0.0985705 -0.000255416 0)
(0.0986419 -0.000241726 0)
(0.0987108 -0.000228554 0)
(0.0987772 -0.00021592 0)
(0.0988411 -0.00020383 0)
(0.0989027 -0.000192283 0)
(0.0989619 -0.00018127 0)
(0.0990188 -0.000170781 0)
(0.0990736 -0.000160801 0)
(0.0991261 -0.000151313 0)
(0.0991766 -0.000142301 0)
(0.099225 -0.000133745 0)
(0.0941723 -0.00192319 0)
(0.0943935 -0.00182796 0)
(0.0946086 -0.00173847 0)
(0.0948176 -0.00165412 0)
(0.0950204 -0.00157411 0)
(0.0952173 -0.00149743 0)
(0.0954081 -0.0014228 0)
(0.0955932 -0.00134883 0)
(0.0957724 -0.00127418 0)
(0.0959461 -0.0011978 0)
(0.0961144 -0.00111927 0)
(0.0962772 -0.00103899 0)
(0.0964347 -0.000958241 0)
(0.0965869 -0.000879114 0)
(0.0967338 -0.000804082 0)
(0.0968751 -0.000735524 0)
(0.0970109 -0.000675221 0)
(0.0971411 -0.000624015 0)
(0.0972659 -0.000581714 0)
(0.0973852 -0.000547253 0)
(0.0974995 -0.000519024 0)
(0.097609 -0.000495256 0)
(0.0977141 -0.000474337 0)
(0.0978151 -0.000455006 0)
(0.0979124 -0.000436414 0)
(0.0980062 -0.000418088 0)
(0.0980967 -0.000399834 0)
(0.0981842 -0.000381641 0)
(0.0982687 -0.00036359 0)
(0.0983503 -0.000345796 0)
(0.0984292 -0.000328372 0)
(0.0985054 -0.000311412 0)
(0.0985789 -0.000294988 0)
(0.0986498 -0.00027915 0)
(0.0987182 -0.000263927 0)
(0.0987841 -0.000249334 0)
(0.0988476 -0.000235375 0)
(0.0989087 -0.000222047 0)
(0.0989675 -0.000209338 0)
(0.0990241 -0.000197235 0)
(0.0990784 -0.000185719 0)
(0.0991306 -0.000174771 0)
(0.0991808 -0.000164372 0)
(0.0992288 -0.000154498 0)
(0.0942663 -0.00215447 0)
(0.0944784 -0.00204846 0)
(0.0946846 -0.00194853 0)
(0.0948847 -0.00185409 0)
(0.095079 -0.00176436 0)
(0.0952673 -0.00167831 0)
(0.09545 -0.00159473 0)
(0.0956271 -0.00151225 0)
(0.0957988 -0.00142953 0)
(0.0959656 -0.00134556 0)
(0.0961277 -0.00125987 0)
(0.0962854 -0.00117281 0)
(0.096439 -0.00108558 0)
(0.0965885 -0.00100017 0)
(0.096734 -0.000918967 0)
(0.0968752 -0.000844296 0)
(0.0970119 -0.000777929 0)
(0.0971436 -0.000720743 0)
(0.0972703 -0.000672619 0)
(0.0973917 -0.000632576 0)
(0.0975079 -0.00059908 0)
(0.097619 -0.000570412 0)
(0.0977254 -0.000544978 0)
(0.0978273 -0.000521507 0)
(0.097925 -0.000499119 0)
(0.098019 -0.000477298 0)
(0.0981095 -0.000455807 0)
(0.0981967 -0.000434593 0)
(0.0982808 -0.000413705 0)
(0.0983619 -0.000393233 0)
(0.0984402 -0.000373269 0)
(0.0985158 -0.000353897 0)
(0.0985887 -0.000335176 0)
(0.098659 -0.000317148 0)
(0.0987268 -0.000299838 0)
(0.0987921 -0.000283256 0)
(0.0988551 -0.000267403 0)
(0.0989157 -0.00025227 0)
(0.098974 -0.000237843 0)
(0.0990301 -0.000224104 0)
(0.099084 -0.000211033 0)
(0.0991358 -0.000198607 0)
(0.0991856 -0.000186802 0)
(0.0992333 -0.000175594 0)
(0.0943753 -0.0023761 0)
(0.0945781 -0.00225963 0)
(0.0947752 -0.0021496 0)
(0.0949665 -0.0020454 0)
(0.0951521 -0.00194628 0)
(0.095332 -0.00185124 0)
(0.0955065 -0.0017591 0)
(0.0956756 -0.00166856 0)
(0.0958399 -0.00157836 0)
(0.0959996 -0.00148748 0)
(0.0961554 -0.00139547 0)
(0.0963076 -0.00130257 0)
(0.0964567 -0.00120989 0)
(0.0966029 -0.00111924 0)
(0.0967461 -0.00103284 0)
(0.096886 -0.000952888 0)
(0.0970223 -0.000881091 0)
(0.0971543 -0.000818339 0)
(0.0972817 -0.000764589 0)
(0.0974041 -0.000718977 0)
(0.0975212 -0.000680097 0)
(0.0976331 -0.000646331 0)
(0.0977401 -0.000616153 0)
(0.0978423 -0.000588316 0)
(0.0979402 -0.000561932 0)
(0.098034 -0.000536454 0)
(0.0981241 -0.000511602 0)
(0.0982109 -0.000487282 0)
(0.0982944 -0.000463501 0)
(0.0983749 -0.000440318 0)
(0.0984525 -0.000417802 0)
(0.0985274 -0.000396014 0)
(0.0985996 -0.000375003 0)
(0.0986692 -0.0003548 0)
(0.0987364 -0.00033542 0)
(0.0988011 -0.000316869 0)
(0.0988634 -0.000299141 0)
(0.0989234 -0.000282223 0)
(0.0989812 -0.000266098 0)
(0.0990368 -0.000250744 0)
(0.0990902 -0.000236136 0)
(0.0991416 -0.000222249 0)
(0.0991909 -0.000209055 0)
(0.0992383 -0.000196528 0)
(0.0944993 -0.00258765 0)
(0.0946926 -0.00246122 0)
(0.0948804 -0.00234153 0)
(0.0950627 -0.00222801 0)
(0.0952396 -0.00211989 0)
(0.0954111 -0.00201625 0)
(0.0955775 -0.00191598 0)
(0.0957389 -0.00181785 0)
(0.0958957 -0.00172068 0)
(0.0960485 -0.00162351 0)
(0.0961978 -0.00152588 0)
(0.0963444 -0.00142794 0)
(0.0964885 -0.00133066 0)
(0.0966305 -0.00123563 0)
(0.0967704 -0.00114485 0)
(0.096908 -0.00106035 0)
(0.0970426 -0.000983713 0)
(0.0971737 -0.000915825 0)
(0.0973005 -0.000856717 0)
(0.0974226 -0.000805659 0)
(0.0975396 -0.000761401 0)
(0.0976515 -0.000722466 0)
(0.0977583 -0.00068743 0)
(0.0978603 -0.000655101 0)
(0.0979578 -0.000624602 0)
(0.0980512 -0.000595365 0)
(0.0981407 -0.000567076 0)
(0.0982268 -0.000539594 0)
(0.0983095 -0.000512888 0)
(0.0983893 -0.000486978 0)
(0.0984661 -0.000461906 0)
(0.0985402 -0.000437711 0)
(0.0986116 -0.000414424 0)
(0.0986805 -0.000392063 0)
(0.0987469 -0.000370635 0)
(0.0988109 -0.000350137 0)
(0.0988725 -0.000330557 0)
(0.0989319 -0.000311878 0)
(0.0989891 -0.000294077 0)
(0.0990441 -0.000277129 0)
(0.099097 -0.000261005 0)
(0.0991479 -0.000245675 0)
(0.0991967 -0.000231111 0)
(0.0992437 -0.000217281 0)
(0.0946378 -0.00278865 0)
(0.094821 -0.00265289 0)
(0.0949993 -0.00252414 0)
(0.0951725 -0.00240181 0)
(0.0953407 -0.0022852 0)
(0.0955038 -0.00217342 0)
(0.0956621 -0.00206547 0)
(0.0958158 -0.00196022 0)
(0.0959654 -0.00185658 0)
(0.0961113 -0.00175366 0)
(0.0962542 -0.00165099 0)
(0.0963948 -0.00154865 0)
(0.0965336 -0.00144743 0)
(0.0966709 -0.0013487 0)
(0.0968067 -0.00125421 0)
(0.0969409 -0.00116578 0)
(0.0970727 -0.00108484 0)
(0.0972015 -0.00101225 0)
(0.0973267 -0.000948107 0)
(0.0974474 -0.000891819 0)
(0.0975633 -0.000842306 0)
(0.0976743 -0.000798253 0)
(0.0977803 -0.000758361 0)
(0.0978814 -0.000721513 0)
(0.0979781 -0.00068686 0)
(0.0980706 -0.000653828 0)
(0.0981593 -0.000622071 0)
(0.0982444 -0.000591409 0)
(0.0983263 -0.000561768 0)
(0.0984051 -0.000533134 0)
(0.098481 -0.000505516 0)
(0.0985542 -0.000478929 0)
(0.0986247 -0.000453387 0)
(0.0986927 -0.000428892 0)
(0.0987583 -0.000405442 0)
(0.0988216 -0.000383024 0)
(0.0988825 -0.000361619 0)
(0.0989412 -0.000341204 0)
(0.0989977 -0.000321753 0)
(0.0990521 -0.000303234 0)
(0.0991044 -0.000285616 0)
(0.0991547 -0.000268866 0)
(0.0992031 -0.00025295 0)
(0.0992495 -0.000237835 0)
(0.0947891 -0.00297866 0)
(0.094962 -0.00283434 0)
(0.0951305 -0.0026972 0)
(0.0952944 -0.00256669 0)
(0.0954538 -0.00244215 0)
(0.0956085 -0.00232278 0)
(0.0957589 -0.00220766 0)
(0.095905 -0.00209578 0)
(0.0960474 -0.00198616 0)
(0.0961865 -0.00187796 0)
(0.096323 -0.00177073 0)
(0.0964576 -0.00166448 0)
(0.0965907 -0.00155983 0)
(0.0967228 -0.00145792 0)
(0.0968539 -0.00136025 0)
(0.0969838 -0.00126839 0)
(0.0971119 -0.00118362 0)
(0.0972375 -0.00110676 0)
(0.0973598 -0.00103794 0)
(0.0974782 -0.000976717 0)
(0.0975921 -0.000922169 0)
(0.0977014 -0.000873154 0)
(0.0978058 -0.000828509 0)
(0.0979056 -0.000787207 0)
(0.098001 -0.000748439 0)
(0.0980923 -0.000711635 0)
(0.0981798 -0.000676427 0)
(0.0982639 -0.000642599 0)
(0.0983446 -0.000610042 0)
(0.0984223 -0.000578703 0)
(0.0984972 -0.000548563 0)
(0.0985694 -0.000519612 0)
(0.098639 -0.000491843 0)
(0.098706 -0.000465245 0)
(0.0987707 -0.000439802 0)
(0.0988331 -0.000415494 0)
(0.0988932 -0.000392294 0)
(0.0989512 -0.000370173 0)
(0.099007 -0.000349097 0)
(0.0990607 -0.000329034 0)
(0.0991124 -0.000309947 0)
(0.0991621 -0.000291799 0)
(0.0992099 -0.000274554 0)
(0.0992558 -0.000258174 0)
(0.0949515 -0.0031573 0)
(0.0951138 -0.00300525 0)
(0.0952722 -0.0028605 0)
(0.0954267 -0.00272252 0)
(0.0955771 -0.00259071 0)
(0.0957235 -0.00246436 0)
(0.0958659 -0.00234263 0)
(0.0960045 -0.00222464 0)
(0.0961398 -0.0021095 0)
(0.0962722 -0.00199647 0)
(0.0964023 -0.00188509 0)
(0.0965308 -0.00177532 0)
(0.0966581 -0.00166761 0)
(0.0967847 -0.00156291 0)
(0.0969106 -0.00146244 0)
(0.0970356 -0.00136755 0)
(0.0971592 -0.00127938 0)
(0.0972807 -0.00119864 0)
(0.0973994 -0.00112554 0)
(0.0975146 -0.00105971 0)
(0.0976257 -0.00100042 0)
(0.0977325 -0.000946688 0)
(0.0978349 -0.000897477 0)
(0.0979328 -0.000851861 0)
(0.0980266 -0.000809084 0)
(0.0981163 -0.000768586 0)
(0.0982024 -0.000729985 0)
(0.0982851 -0.000693041 0)
(0.0983646 -0.000657608 0)
(0.0984411 -0.000623604 0)
(0.0985148 -0.000590979 0)
(0.0985858 -0.0005597 0)
(0.0986543 -0.000529742 0)
(0.0987204 -0.000501076 0)
(0.0987841 -0.000473677 0)
(0.0988456 -0.000447513 0)
(0.0989048 -0.00042255 0)
(0.098962 -0.000398754 0)
(0.099017 -0.000376085 0)
(0.09907 -0.000354506 0)
(0.099121 -0.000333976 0)
(0.0991701 -0.000314454 0)
(0.0992173 -0.000295902 0)
(0.0992627 -0.00027828 0)
(0.0951229 -0.00332428 0)
(0.0952743 -0.00316539 0)
(0.0954225 -0.00301385 0)
(0.0955674 -0.00286917 0)
(0.0957088 -0.00273081 0)
(0.0958467 -0.00259813 0)
(0.0959812 -0.0024704 0)
(0.0961124 -0.00234684 0)
(0.0962406 -0.00222667 0)
(0.0963664 -0.00210921 0)
(0.0964901 -0.00199404 0)
(0.0966125 -0.00188106 0)
(0.0967339 -0.0017706 0)
(0.0968547 -0.00166338 0)
(0.0969751 -0.00156041 0)
(0.0970947 -0.00146283 0)
(0.0972133 -0.00137159 0)
(0.0973302 -0.00128736 0)
(0.0974446 -0.00121035 0)
(0.097556 -0.0011403 0)
(0.0976637 -0.00107661 0)
(0.0977676 -0.00101845 0)
(0.0978673 -0.000964921 0)
(0.097963 -0.000915192 0)
(0.0980547 -0.000868561 0)
(0.0981426 -0.000824491 0)
(0.098227 -0.000782594 0)
(0.0983081 -0.00074261 0)
(0.0983862 -0.000704368 0)
(0.0984613 -0.000667754 0)
(0.0985337 -0.000632696 0)
(0.0986035 -0.000599137 0)
(0.0986709 -0.000567032 0)
(0.0987358 -0.000536342 0)
(0.0987985 -0.000507026 0)
(0.098859 -0.000479045 0)
(0.0989173 -0.000452357 0)
(0.0989736 -0.00042692 0)
(0.0990278 -0.00040269 0)
(0.09908 -0.000379625 0)
(0.0991303 -0.00035768 0)
(0.0991787 -0.000336813 0)
(0.0992253 -0.000316978 0)
(0.09927 -0.000298135 0)
(0.0953014 -0.00347937 0)
(0.0954419 -0.00331457 0)
(0.0955798 -0.0031571 0)
(0.0957149 -0.00300653 0)
(0.0958473 -0.00286238 0)
(0.0959767 -0.00272408 0)
(0.0961032 -0.00259099 0)
(0.0962269 -0.00246242 0)
(0.0963482 -0.0023377 0)
(0.0964672 -0.00221623 0)
(0.0965846 -0.0020976 0)
(0.0967008 -0.00198168 0)
(0.0968163 -0.00186868 0)
(0.0969312 -0.00175916 0)
(0.0970458 -0.00165393 0)
(0.0971599 -0.0015539 0)
(0.0972731 -0.00145991 0)
(0.0973849 -0.00137254 0)
(0.0974947 -0.00129199 0)
(0.0976018 -0.0012181 0)
(0.0977057 -0.00115037 0)
(0.0978062 -0.00108811 0)
(0.097903 -0.00103056 0)
(0.097996 -0.000976955 0)
(0.0980853 -0.000926667 0)
(0.0981711 -0.000879182 0)
(0.0982536 -0.000834115 0)
(0.098333 -0.000791194 0)
(0.0984094 -0.000750225 0)
(0.098483 -0.000711074 0)
(0.098554 -0.000673645 0)
(0.0986225 -0.000637862 0)
(0.0986886 -0.000603665 0)
(0.0987524 -0.000570999 0)
(0.0988139 -0.000539812 0)
(0.0988734 -0.000510056 0)
(0.0989307 -0.000481682 0)
(0.098986 -0.000454642 0)
(0.0990393 -0.000428887 0)
(0.0990907 -0.000404369 0)
(0.0991403 -0.00038104 0)
(0.0991879 -0.000358853 0)
(0.0992338 -0.000337763 0)
(0.099278 -0.000317724 0)
(0.0954856 -0.00362243 0)
(0.0956149 -0.00345265 0)
(0.0957424 -0.00329015 0)
(0.0958678 -0.00313453 0)
(0.0959909 -0.00298536 0)
(0.0961118 -0.00284216 0)
(0.0962303 -0.00270435 0)
(0.0963466 -0.00257137 0)
(0.0964608 -0.0024426 0)
(0.0965732 -0.00231753 0)
(0.0966842 -0.00219577 0)
(0.0967943 -0.00207716 0)
(0.0969037 -0.00196183 0)
(0.0970128 -0.00185018 0)
(0.0971215 -0.00174286 0)
(0.0972299 -0.00164062 0)
(0.0973376 -0.00154414 0)
(0.0974441 -0.00145393 0)
(0.0975489 -0.0013702 0)
(0.0976515 -0.00129283 0)
(0.0977513 -0.00122144 0)
(0.097848 -0.00115544 0)
(0.0979415 -0.00109416 0)
(0.0980316 -0.00103695 0)
(0.0981183 -0.000983227 0)
(0.0982018 -0.000932509 0)
(0.0982822 -0.000884421 0)
(0.0983596 -0.000838683 0)
(0.0984342 -0.000795089 0)
(0.0985062 -0.000753487 0)
(0.0985757 -0.000713762 0)
(0.0986427 -0.000675822 0)
(0.0987075 -0.000639592 0)
(0.09877 -0.000605003 0)
(0.0988304 -0.000571996 0)
(0.0988887 -0.000540513 0)
(0.098945 -0.000510496 0)
(0.0989993 -0.000481893 0)
(0.0990517 -0.000454649 0)
(0.0991022 -0.000428713 0)
(0.0991509 -0.000404033 0)
(0.0991979 -0.000380558 0)
(0.099243 -0.000358239 0)
(0.0992865 -0.000337029 0)
(0.0956739 -0.00375342 0)
(0.0957921 -0.00357959 0)
(0.0959091 -0.00341293 0)
(0.0960247 -0.0032531 0)
(0.0961386 -0.0030997 0)
(0.0962509 -0.00295232 0)
(0.0963614 -0.00281047 0)
(0.0964701 -0.00267366 0)
(0.0965773 -0.00254135 0)
(0.096683 -0.0024131 0)
(0.0967877 -0.00228853 0)
(0.0968916 -0.00216748 0)
(0.096995 -0.00205001 0)
(0.0970981 -0.00193641 0)
(0.097201 -0.00182717 0)
(0.0973037 -0.0017229 0)
(0.0974057 -0.00162417 0)
(0.0975069 -0.00153142 0)
(0.0976066 -0.00144483 0)
(0.0977044 -0.00136435 0)
(0.0977999 -0.00128964 0)
(0.0978928 -0.00122024 0)
(0.0979827 -0.00115555 0)
(0.0980696 -0.00109502 0)
(0.0981536 -0.0010381 0)
(0.0982345 -0.000984345 0)
(0.0983126 -0.0009334 0)
(0.098388 -0.000884983 0)
(0.0984607 -0.000838878 0)
(0.0985309 -0.000794922 0)
(0.0985987 -0.000752985 0)
(0.0986642 -0.000712962 0)
(0.0987275 -0.000674764 0)
(0.0987887 -0.000638314 0)
(0.0988478 -0.000603542 0)
(0.098905 -0.000570381 0)
(0.0989601 -0.000538769 0)
(0.0990134 -0.000508646 0)
(0.0990648 -0.000479954 0)
(0.0991145 -0.000452636 0)
(0.0991623 -0.000426638 0)
(0.0992084 -0.000401907 0)
(0.0992528 -0.000378389 0)
(0.0992956 -0.000356035 0)
(0.0958652 -0.00387236 0)
(0.0959724 -0.0036954 0)
(0.096079 -0.00352545 0)
(0.0961847 -0.00336221 0)
(0.0962895 -0.00320536 0)
(0.0963931 -0.00305453 0)
(0.0964955 -0.0029093 0)
(0.0965967 -0.00276925 0)
(0.0966968 -0.00263391 0)
(0.0967958 -0.0025029 0)
(0.0968941 -0.00237587 0)
(0.0969918 -0.00225265 0)
(0.0970892 -0.00213324 0)
(0.0971864 -0.00201785 0)
(0.0972835 -0.00190685 0)
(0.0973804 -0.00180074 0)
(0.0974769 -0.00169998 0)
(0.0975726 -0.00160494 0)
(0.0976672 -0.00151581 0)
(0.0977602 -0.00143254 0)
(0.0978513 -0.00135487 0)
(0.0979401 -0.0012824 0)
(0.0980263 -0.00121462 0)
(0.09811 -0.00115104 0)
(0.0981909 -0.00109116 0)
(0.0982692 -0.00103458 0)
(0.0983449 -0.000980955 0)
(0.098418 -0.000930006 0)
(0.0984887 -0.000881516 0)
(0.098557 -0.000835312 0)
(0.0986231 -0.000791256 0)
(0.0986869 -0.000749231 0)
(0.0987487 -0.000709138 0)
(0.0988085 -0.000670892 0)
(0.0988663 -0.000634413 0)
(0.0989222 -0.000599629 0)
(0.0989762 -0.000566471 0)
(0.0990284 -0.000534874 0)
(0.0990788 -0.000504776 0)
(0.0991274 -0.000476116 0)
(0.0991744 -0.000448837 0)
(0.0992196 -0.000422882 0)
(0.0992633 -0.000398196 0)
(0.0993053 -0.000374727 0)
(0.0960587 -0.00397936 0)
(0.0961549 -0.00380014 0)
(0.0962511 -0.00362774 0)
(0.0963471 -0.00346191 0)
(0.0964426 -0.00330236 0)
(0.0965377 -0.00314878 0)