/*--------------------------------*- C++ -*----------------------------------*\
| =========                 |                                                 |
| \\      /  F ield         | OpenFOAM: The Open Source CFD Toolbox           |
|  \\    /   O peration     | Version:  2412                                  |
|   \\  /    A nd           | Website:  www.openfoam.com                      |
|    \\/     M anipulation  |                                                 |
\*---------------------------------------------------------------------------*/
FoamFile
{
    version     2.0;
    format      ascii;
    arch        "LSB;label=32;scalar=64";
    class       volScalarField;
    location    "5.5";
    object      p;
}
// * * * * * * * * * * * * * * * * * * * * * * * * * * * * * * * * * * * * * //

dimensions      [0 2 -2 0 0 0 0];

internalField   nonuniform List<scalar> 
5285
(
-1.49167e-05
-1.41533e-05
-1.34151e-05
-1.27017e-05
-1.20129e-05
-1.13482e-05
-1.07072e-05
-1.00897e-05
-9.49521e-06
-8.92336e-06
-8.37378e-06
-7.84608e-06
-7.33986e-06
-6.85471e-06
-6.39023e-06
-5.94599e-06
-5.52156e-06
-5.11651e-06
-4.7304e-06
-4.36275e-06
-4.01311e-06
-3.68101e-06
-3.36597e-06
-3.06749e-06
-2.78508e-06
-2.51825e-06
-2.26647e-06
-2.02926e-06
-1.80606e-06
-1.59639e-06
-1.39969e-06
-1.21545e-06
-1.04315e-06
-8.82231e-07
-7.32216e-07
-5.92523e-07
-4.62686e-07
-3.42139e-07
-2.30413e-07
-1.26955e-07
-3.13016e-08
5.7074e-08
1.38652e-07
2.13922e-07
2.83387e-07
3.4751e-07
4.06796e-07
4.61749e-07
5.12818e-07
5.6058e-07
6.05669e-07
6.47846e-07
6.9071e-07
7.25571e-07
7.80087e-07
7.81158e-07
9.23659e-07
7.24045e-07
1.33255e-06
1.81565e-07
2.66313e-06
-1.75409e-06
5.94634e-06
-5.55818e-06
1.00766e-05
-7.07123e-06
7.47416e-06
2.9392e-06
-7.02208e-06
1.88024e-05
-1.35225e-05
-1.56673e-05
-1.48679e-05
-1.40949e-05
-1.33479e-05
-1.26266e-05
-1.19304e-05
-1.12592e-05
-1.06124e-05
-9.98969e-06
-9.3907e-06
-8.815e-06
-8.26219e-06
-7.73185e-06
-7.22356e-06
-6.7369e-06
-6.27142e-06
-5.82669e-06
-5.40224e-06
-4.99762e-06
-4.61233e-06
-4.2459e-06
-3.89784e-06
-3.56764e-06
-3.2548e-06
-2.95879e-06
-2.67911e-06
-2.41519e-06
-2.16653e-06
-1.93256e-06
-1.71277e-06
-1.50657e-06
-1.31343e-06
-1.1328e-06
-9.64106e-07
-8.06838e-07
-6.60394e-07
-5.24276e-07
-3.97906e-07
-2.80771e-07
-1.72319e-07
-7.20366e-08
2.06048e-08
1.06122e-07
1.85028e-07
2.57831e-07
3.25054e-07
3.87168e-07
4.44767e-07
4.98253e-07
5.48282e-07
5.95479e-07
6.39608e-07
6.84406e-07
7.20845e-07
7.77611e-07
7.78934e-07
9.26486e-07
7.20713e-07
1.34733e-06
1.65632e-07
2.70691e-06
-1.80266e-06
6.03354e-06
-5.63254e-06
1.01609e-05
-7.08548e-06
7.45637e-06
3.0305e-06
-7.1068e-06
1.88989e-05
-1.36483e-05
-1.641e-05
-1.55751e-05
-1.47677e-05
-1.39875e-05
-1.3234e-05
-1.25068e-05
-1.18055e-05
-1.11298e-05
-1.04793e-05
-9.85341e-06
-9.25187e-06
-8.67422e-06
-8.12002e-06
-7.58883e-06
-7.08022e-06
-6.59373e-06
-6.12889e-06
-5.68524e-06
-5.26228e-06
-4.85953e-06
-4.47647e-06
-4.11261e-06
-3.7674e-06
-3.44034e-06
-3.13085e-06
-2.83844e-06
-2.56249e-06
-2.30251e-06
-2.05787e-06
-1.82805e-06
-1.61244e-06
-1.41048e-06
-1.22161e-06
-1.04521e-06
-8.80759e-07
-7.27629e-07
-5.85289e-07
-4.5315e-07
-3.3066e-07
-2.17259e-07
-1.12393e-07
-1.55234e-08
7.38935e-08
1.56403e-07
2.32514e-07
3.028e-07
3.67726e-07
4.27934e-07
4.83825e-07
5.36091e-07
5.85377e-07
6.31441e-07
6.78148e-07
7.16146e-07
7.75139e-07
7.76708e-07
9.29238e-07
7.17392e-07
1.36187e-06
1.49786e-07
2.75027e-06
-1.85139e-06
6.12111e-06
-5.70945e-06
1.02494e-05
-7.10712e-06
7.44452e-06
3.11942e-06
-7.20136e-06
1.90124e-05
-1.38054e-05
-1.71445e-05
-1.62745e-05
-1.54331e-05
-1.46201e-05
-1.38348e-05
-1.3077e-05
-1.23461e-05
-1.16418e-05
-1.09637e-05
-1.03113e-05
-9.68422e-06
-9.082e-06
-8.5042e-06
-7.95036e-06
-7.42004e-06
-6.91275e-06
-6.42803e-06
-5.96537e-06
-5.52428e-06
-5.10424e-06
-4.70473e-06
-4.32522e-06
-3.96516e-06
-3.62402e-06
-3.3012e-06
-2.99618e-06
-2.70833e-06
-2.43713e-06
-2.18193e-06
-1.94218e-06
-1.71726e-06
-1.50658e-06
-1.30953e-06
-1.12551e-06
-9.53947e-07
-7.94197e-07
-6.45698e-07
-5.07848e-07
-3.80054e-07
-2.61754e-07
-1.52351e-07
-5.1295e-08
4.19829e-08
1.28058e-07
2.07446e-07
2.80763e-07
3.48475e-07
4.11263e-07
4.69535e-07
5.24016e-07
5.75368e-07
6.23345e-07
6.71939e-07
7.11482e-07
7.72659e-07
7.74504e-07
9.31861e-07
7.14203e-07
1.3759e-06
1.34587e-07
2.79214e-06
-1.89839e-06
6.206e-06
-5.78452e-06
1.03367e-05
-7.13066e-06
7.43491e-06
3.20586e-06
-7.30054e-06
1.91341e-05
-1.39827e-05
-1.78702e-05
-1.69657e-05
-1.60909e-05
-1.52454e-05
-1.44289e-05
-1.36407e-05
-1.28806e-05
-1.21481e-05
-1.14428e-05
-1.07642e-05
-1.01118e-05
-9.48535e-06
-8.88422e-06
-8.308e-06
-7.75621e-06
-7.22837e-06
-6.72398e-06
-6.24252e-06
-5.7835e-06
-5.34636e-06
-4.93058e-06
-4.53559e-06
-4.16084e-06
-3.80576e-06
-3.46976e-06
-3.15226e-06
-2.85264e-06
-2.57034e-06
-2.30469e-06
-2.05512e-06
-1.82098e-06
-1.60166e-06
-1.39654e-06
-1.20498e-06
-1.02637e-06
-8.6007e-07
-7.05476e-07
-5.61975e-07
-4.28934e-07
-3.05786e-07
-1.91893e-07
-8.66946e-08
1.04041e-08
1.00008e-07
1.82638e-07
2.58954e-07
3.29422e-07
3.94762e-07
4.5539e-07
5.1206e-07
5.65455e-07
6.15325e-07
6.65781e-07
7.06855e-07
7.70174e-07
7.72326e-07
9.34353e-07
7.11161e-07
1.38941e-06
1.2009e-07
2.83241e-06
-1.94345e-06
6.28784e-06
-5.85716e-06
1.04218e-05
-7.15506e-06
7.42674e-06
3.29e-06
-7.40323e-06
1.92623e-05
-1.41762e-05
-1.85871e-05
-1.76485e-05
-1.67407e-05
-1.58633e-05
-1.50158e-05
-1.41978e-05
-1.34089e-05
-1.26485e-05
-1.19163e-05
-1.12118e-05
-1.05346e-05
-9.8841e-06
-9.25993e-06
-8.6616e-06
-8.0886e-06
-7.54044e-06
-7.01661e-06
-6.51658e-06
-6.03982e-06
-5.58579e-06
-5.15391e-06
-4.74363e-06
-4.35436e-06
-3.9855e-06
-3.63646e-06
-3.30663e-06
-2.99536e-06
-2.70208e-06
-2.4261e-06
-2.16682e-06
-1.92356e-06
-1.69571e-06
-1.48259e-06
-1.28357e-06
-1.098e-06
-9.25221e-07
-7.646e-07
-6.15508e-07
-4.77279e-07
-3.49335e-07
-2.31003e-07
-1.21707e-07
-2.08296e-08
7.22634e-08
1.58101e-07
2.37381e-07
3.10576e-07
3.78438e-07
4.41396e-07
5.00229e-07
5.55644e-07
6.07383e-07
6.59677e-07
7.02267e-07
7.67685e-07
7.70174e-07
9.3672e-07
7.08252e-07
1.40241e-06
1.06235e-07
2.8712e-06
-1.98674e-06
6.36691e-06
-5.92769e-06
1.05051e-05
-7.1805e-06
7.42002e-06
3.37198e-06
-7.5093e-06
1.93965e-05
-1.43837e-05
-1.92946e-05
-1.83225e-05
-1.73822e-05
-1.64734e-05
-1.55955e-05
-1.4748e-05
-1.39306e-05
-1.31428e-05
-1.23841e-05
-1.16541e-05
-1.09522e-05
-1.02781e-05
-9.63117e-06
-9.01099e-06
-8.41705e-06
-7.84883e-06
-7.3058e-06
-6.78742e-06
-6.29315e-06
-5.82242e-06
-5.37465e-06
-4.94925e-06
-4.54562e-06
-4.16316e-06
-3.80122e-06
-3.45921e-06
-3.13644e-06
-2.8323e-06
-2.54611e-06
-2.27723e-06
-2.02496e-06
-1.78867e-06
-1.56765e-06
-1.36125e-06
-1.16881e-06
-9.89622e-07
-8.23043e-07
-6.68426e-07
-5.25068e-07
-3.92384e-07
-2.69662e-07
-1.56317e-07
-5.17049e-08
4.48365e-08
1.33845e-07
2.16054e-07
2.91944e-07
3.62298e-07
4.2756e-07
4.88529e-07
5.45939e-07
5.99525e-07
6.53631e-07
6.97721e-07
7.65195e-07
7.68048e-07
9.38966e-07
7.05471e-07
1.41493e-06
9.29936e-08
2.90857e-06
-2.02835e-06
6.44333e-06
-5.9962e-06
1.05866e-05
-7.20687e-06
7.41463e-06
3.45189e-06
-7.61834e-06
1.95363e-05
-1.46028e-05
-1.99926e-05
-1.89874e-05
-1.80152e-05
-1.70754e-05
-1.61675e-05
-1.52911e-05
-1.44457e-05
-1.36308e-05
-1.2846e-05
-1.20907e-05
-1.13646e-05
-1.06671e-05
-9.99777e-06
-9.35605e-06
-8.74144e-06
-8.15341e-06
-7.59143e-06
-7.05494e-06
-6.54338e-06
-6.05616e-06
-5.59269e-06
-5.15237e-06
-4.73456e-06
-4.33866e-06
-3.96399e-06
-3.60994e-06
-3.2758e-06
-2.96095e-06
-2.66466e-06
-2.3863e-06
-2.12513e-06
-1.8805e-06
-1.65169e-06
-1.438e-06
-1.23876e-06
-1.05325e-06
-8.80781e-07
-7.20706e-07
-5.72281e-07
-4.34914e-07
-3.07857e-07
-1.90511e-07
-8.22086e-08
1.7739e-08
1.0988e-07
1.94981e-07
2.73536e-07
3.46348e-07
4.13886e-07
4.76963e-07
5.36345e-07
5.91752e-07
6.47645e-07
6.9322e-07
7.62708e-07
7.65949e-07
9.41096e-07
7.02814e-07
1.42698e-06
8.03472e-08
2.94454e-06
-2.06833e-06
6.51712e-06
-6.06268e-06
1.06663e-05
-7.23395e-06
7.41035e-06
3.52979e-06
-7.72978e-06
1.96806e-05
-1.48307e-05
-2.06806e-05
-1.96431e-05
-1.86394e-05
-1.76692e-05
-1.67318e-05
-1.58268e-05
-1.49538e-05
-1.41122e-05
-1.33016e-05
-1.25216e-05
-1.17716e-05
-1.10511e-05
-1.03596e-05
-9.69661e-06
-9.06162e-06
-8.45406e-06
-7.87338e-06
-7.31902e-06
-6.7904e-06
-6.28691e-06
-5.80795e-06
-5.35289e-06
-4.92109e-06
-4.51192e-06
-4.12468e-06
-3.75875e-06
-3.41339e-06
-3.08796e-06
-2.78171e-06
-2.49399e-06
-2.22404e-06
-1.97117e-06
-1.73466e-06
-1.51378e-06
-1.30782e-06
-1.11607e-06
-9.3779e-07
-7.72325e-07
-6.18897e-07
-4.76907e-07
-3.45569e-07
-2.24274e-07
-1.12328e-07
-9.01768e-09
8.62166e-08
1.74173e-07
2.55357e-07
3.30597e-07
4.00382e-07
4.65538e-07
5.26866e-07
5.8407e-07
6.41723e-07
6.88766e-07
7.60224e-07
7.63878e-07
9.43112e-07
7.00277e-07
1.43857e-06
6.82788e-08
2.97916e-06
-2.10669e-06
6.58833e-06
-6.1271e-06
1.0744e-05
-7.2615e-06
7.40697e-06
3.60576e-06
-7.84309e-06
1.98286e-05
-1.50652e-05
-2.13584e-05
-2.0289e-05
-1.92545e-05
-1.82543e-05
-1.72879e-05
-1.63549e-05
-1.54547e-05
-1.45869e-05
-1.3751e-05
-1.29465e-05
-1.21729e-05
-1.14297e-05
-1.07165e-05
-1.00325e-05
-9.37745e-06
-8.75064e-06
-8.15153e-06
-7.57955e-06
-7.0341e-06
-6.51457e-06
-6.02033e-06
-5.55074e-06
-5.10514e-06
-4.68288e-06
-4.28324e-06
-3.90558e-06
-3.54915e-06
-3.21329e-06
-2.89721e-06
-2.60026e-06
-2.32163e-06
-2.06065e-06
-1.81653e-06
-1.58855e-06
-1.37598e-06
-1.17805e-06
-9.94046e-07
-8.23261e-07
-6.64898e-07
-5.18345e-07
-3.82783e-07
-2.5759e-07
-1.42049e-07
-3.54219e-08
6.28653e-08
1.53637e-07
2.37418e-07
3.1505e-07
3.87054e-07
4.54259e-07
5.17507e-07
5.76481e-07
6.35869e-07
6.84361e-07
7.57747e-07
7.61835e-07
9.45019e-07
6.97856e-07
1.44971e-06
5.67688e-08
3.01244e-06
-2.14349e-06
6.65699e-06
-6.18945e-06
1.08197e-05
-7.28931e-06
7.40432e-06
3.67986e-06
-7.95779e-06
1.99794e-05
-1.53042e-05
-2.20256e-05
-2.0925e-05
-1.98602e-05
-1.88306e-05
-1.78357e-05
-1.68751e-05
-1.59482e-05
-1.50546e-05
-1.41938e-05
-1.33652e-05
-1.25685e-05
-1.1803e-05
-1.10682e-05
-1.03637e-05
-9.68881e-06
-9.04303e-06
-8.42576e-06
-7.83641e-06
-7.27438e-06
-6.73904e-06
-6.22974e-06
-5.74583e-06
-5.28662e-06
-4.85145e-06
-4.4396e-06
-4.05038e-06
-3.68303e-06
-3.33687e-06
-3.01111e-06
-2.70505e-06
-2.41787e-06
-2.14888e-06
-1.89727e-06
-1.66229e-06
-1.44318e-06
-1.23919e-06
-1.04952e-06
-8.73493e-07
-7.10263e-07
-5.5921e-07
-4.19483e-07
-2.90447e-07
-1.7136e-07
-6.14622e-08
3.9836e-08
1.33384e-07
2.19725e-07
2.99714e-07
3.73906e-07
4.4313e-07
5.08272e-07
5.6899e-07
6.30084e-07
6.80007e-07
7.55279e-07
7.5982e-07
9.4682e-07
6.95546e-07
1.46042e-06
4.57974e-08
3.04444e-06
-2.17876e-06
6.72315e-06
-6.24973e-06
1.08933e-05
-7.31721e-06
7.40224e-06
3.75213e-06
-8.07338e-06
2.01324e-05
-1.55459e-05
-2.2682e-05
-2.15508e-05
-2.04563e-05
-1.93978e-05
-1.8375e-05
-1.73873e-05
-1.64341e-05
-1.55152e-05
-1.46298e-05
-1.37776e-05
-1.29581e-05
-1.21706e-05
-1.14148e-05
-1.06899e-05
-9.99556e-06
-9.3311e-06
-8.69595e-06
-8.0895e-06
-7.51114e-06
-6.96022e-06
-6.43608e-06
-5.93806e-06
-5.46545e-06
-5.01757e-06
-4.59368e-06
-4.19307e-06
-3.81497e-06
-3.45867e-06
-3.12336e-06
-2.80832e-06
-2.51272e-06
-2.23583e-06
-1.97684e-06
-1.73496e-06
-1.50942e-06
-1.29943e-06
-1.1042e-06
-9.22999e-07
-7.54972e-07
-5.99485e-07
-4.55653e-07
-3.2283e-07
-2.00248e-07
-8.71275e-08
1.71387e-08
1.13421e-07
2.02287e-07
2.84597e-07
3.60946e-07
4.32157e-07
4.99164e-07
5.616e-07
6.24372e-07
6.75707e-07
7.52823e-07
7.57835e-07
9.4852e-07
6.93341e-07
1.4707e-06
3.53443e-08
3.07518e-06
-2.21255e-06
6.78686e-06
-6.30795e-06
1.09648e-05
-7.34505e-06
7.4006e-06
3.82262e-06
-8.18944e-06
2.02869e-05
-1.57888e-05
-2.33273e-05
-2.21661e-05
-2.10425e-05
-1.99557e-05
-1.89055e-05
-1.78911e-05
-1.69123e-05
-1.59684e-05
-1.5059e-05
-1.41835e-05
-1.33416e-05
-1.25325e-05
-1.17559e-05
-1.10111e-05
-1.02976e-05
-9.61473e-06
-8.96198e-06
-8.33871e-06
-7.74428e-06
-7.17803e-06
-6.63929e-06
-6.12737e-06
-5.64157e-06
-5.18117e-06
-4.74542e-06
-4.3336e-06
-3.94491e-06
-3.57862e-06
-3.23391e-06
-2.91003e-06
-2.60613e-06
-2.32148e-06
-2.0552e-06
-1.80654e-06
-1.57466e-06
-1.35877e-06
-1.15805e-06
-9.71757e-07
-7.99006e-07
-6.39152e-07
-4.91277e-07
-3.54724e-07
-2.28701e-07
-1.12407e-07
-5.21663e-09
9.37569e-08
1.8511e-07
2.69704e-07
3.48179e-07
4.21345e-07
4.9019e-07
5.54314e-07
6.18737e-07
6.71463e-07
7.5038e-07
7.55878e-07
9.50122e-07
6.91238e-07
1.48058e-06
2.53892e-08
3.1047e-06
-2.24491e-06
6.84816e-06
-6.36411e-06
1.10341e-05
-7.37267e-06
7.39928e-06
3.89134e-06
-8.30553e-06
2.0442e-05
-1.60315e-05
-2.39612e-05
-2.27707e-05
-2.16185e-05
-2.05041e-05
-1.94269e-05
-1.83865e-05
-1.73824e-05
-1.64141e-05
-1.5481e-05
-1.45828e-05
-1.37188e-05
-1.28885e-05
-1.20915e-05
-1.13271e-05
-1.05947e-05
-9.89379e-06
-9.22375e-06
-8.58393e-06
-7.97369e-06
-7.39236e-06
-6.83925e-06
-6.31368e-06
-5.81488e-06
-5.34217e-06
-4.89475e-06
-4.4719e-06
-4.07279e-06
-3.69667e-06
-3.34271e-06
-3.01013e-06
-2.69807e-06
-2.40576e-06
-2.13233e-06
-1.87698e-06
-1.63887e-06
-1.41717e-06
-1.21105e-06
-1.01975e-06
-8.42346e-07
-6.78194e-07
-5.2634e-07
-3.86117e-07
-2.56705e-07
-1.37288e-07
-2.72203e-08
7.44011e-08
1.68203e-07
2.55043e-07
3.35609e-07
4.10697e-07
4.81352e-07
5.47137e-07
6.1318e-07
6.67278e-07
7.47954e-07
7.53952e-07
9.51631e-07
6.89232e-07
1.49006e-06
1.59115e-08
3.13304e-06
-2.27587e-06
6.90711e-06
-6.41823e-06
1.11011e-05
-7.39994e-06
7.39816e-06
3.95833e-06
-8.42127e-06
2.05973e-05
-1.62728e-05
-2.45835e-05
-2.33642e-05
-2.21842e-05
-2.10426e-05
-1.99391e-05
-1.88731e-05
-1.78443e-05
-1.6852e-05
-1.58958e-05
-1.49751e-05
-1.40895e-05
-1.32385e-05
-1.24214e-05
-1.16377e-05
-1.08868e-05
-1.01682e-05
-9.48113e-06
-8.82505e-06
-8.19927e-06
-7.60312e-06
-7.0359e-06
-6.49689e-06
-5.98533e-06
-5.50051e-06
-5.04162e-06
-4.60791e-06
-4.19856e-06
-3.81278e-06
-3.44972e-06
-3.10858e-06
-2.7885e-06
-2.48866e-06
-2.20819e-06
-1.94626e-06
-1.70202e-06
-1.47461e-06
-1.26318e-06
-1.06695e-06
-8.84973e-07
-7.16594e-07
-5.60826e-07
-4.16994e-07
-2.8425e-07
-1.61762e-07
-4.88628e-08
5.53619e-08
1.51573e-07
2.40619e-07
3.23244e-07
4.0022e-07
4.72654e-07
5.40071e-07
6.07706e-07
6.63152e-07
7.45546e-07
7.52055e-07
9.53051e-07
6.87316e-07
1.49916e-06
6.89039e-09
3.16024e-06
-2.30548e-06
6.96376e-06
-6.47033e-06
1.11659e-05
-7.42675e-06
7.39716e-06
4.0236e-06
-8.53628e-06
2.0752e-05
-1.65118e-05
-2.51938e-05
-2.39465e-05
-2.27392e-05
-2.15711e-05
-2.04418e-05
-1.93509e-05
-1.82978e-05
-1.7282e-05
-1.63031e-05
-1.53605e-05
-1.44537e-05
-1.35822e-05
-1.27455e-05
-1.19429e-05
-1.11738e-05
-1.04378e-05
-9.73402e-06
-9.06197e-06
-8.42094e-06
-7.81023e-06
-7.22913e-06
-6.67693e-06
-6.15283e-06
-5.65612e-06
-5.18596e-06
-4.74159e-06
-4.32216e-06
-3.92689e-06
-3.55488e-06
-3.20534e-06
-2.87736e-06
-2.57014e-06
-2.28275e-06
-2.01436e-06
-1.76408e-06
-1.53106e-06
-1.31441e-06
-1.11334e-06
-9.2687e-07
-7.54335e-07
-5.94722e-07
-4.47341e-07
-3.11322e-07
-1.85817e-07
-7.01346e-08
3.66475e-08
1.35226e-07
2.26439e-07
3.11087e-07
3.89918e-07
4.64101e-07
5.33121e-07
6.02317e-07
6.5909e-07
7.4316e-07
7.50188e-07
9.54385e-07
6.85487e-07
1.50789e-06
-1.69488e-09
3.18634e-06
-2.33379e-06
7.01816e-06
-6.52042e-06
1.12284e-05
-7.45299e-06
7.3962e-06
4.08717e-06
-8.65023e-06
2.09058e-05
-1.67475e-05
-2.57919e-05
-2.45173e-05
-2.32834e-05
-2.20894e-05
-2.09349e-05
-1.98195e-05
-1.87427e-05
-1.77039e-05
-1.67027e-05
-1.57386e-05
-1.48111e-05
-1.39196e-05
-1.30636e-05
-1.22424e-05
-1.14556e-05
-1.07024e-05
-9.98231e-06
-9.29459e-06
-8.63859e-06
-8.0136e-06
-7.41889e-06
-6.85372e-06
-6.31732e-06
-5.80892e-06
-5.3277e-06
-4.87286e-06
-4.44355e-06
-4.03895e-06
-3.65816e-06
-3.30037e-06
-2.96464e-06
-2.65016e-06
-2.35597e-06
-2.08124e-06
-1.82504e-06
-1.58651e-06
-1.36473e-06
-1.1589e-06
-9.68016e-07
-7.91403e-07
-6.28011e-07
-4.77147e-07
-3.37911e-07
-2.09443e-07
-9.10267e-08
1.82663e-08
1.19171e-07
2.1251e-07
2.99145e-07
3.79795e-07
4.55697e-07
5.26289e-07
5.97015e-07
6.55092e-07
7.40797e-07
7.48351e-07
9.55638e-07
6.83739e-07
1.51627e-06
-9.86487e-09
3.21136e-06
-2.36084e-06
7.07037e-06
-6.56854e-06
1.12887e-05
-7.47856e-06
7.3952e-06
4.14905e-06
-8.76279e-06
2.1058e-05
-1.69792e-05
-2.63776e-05
-2.50764e-05
-2.38165e-05
-2.25972e-05
-2.14181e-05
-2.02788e-05
-1.91788e-05
-1.81176e-05
-1.70946e-05
-1.61095e-05
-1.51616e-05
-1.42505e-05
-1.33756e-05
-1.25363e-05
-1.1732e-05
-1.09621e-05
-1.02259e-05
-9.52282e-06
-8.85214e-06
-8.21313e-06
-7.60507e-06
-7.0272e-06
-6.47872e-06
-5.95886e-06
-5.46679e-06
-5.00167e-06
-4.56266e-06
-4.14891e-06
-3.75952e-06
-3.39362e-06
-3.05029e-06
-2.72868e-06
-2.42783e-06
-2.14687e-06
-1.88486e-06
-1.64092e-06
-1.41411e-06
-1.20361e-06
-1.0084e-06
-8.27779e-07
-6.60681e-07
-5.06398e-07
-3.64004e-07
-2.32629e-07
-1.1153e-07
2.26343e-10
1.03414e-07
1.98837e-07
2.87422e-07
3.69856e-07
4.47446e-07
5.19579e-07
5.91805e-07
6.5116e-07
7.3846e-07
7.46544e-07
9.56814e-07
6.82066e-07
1.5243e-06
-1.76405e-08
3.23535e-06
-2.38668e-06
7.12045e-06
-6.6147e-06
1.13467e-05
-7.50338e-06
7.3941e-06
4.20926e-06
-8.87368e-06
2.12082e-05
-1.72063e-05
-2.69507e-05
-2.56235e-05
-2.43383e-05
-2.30944e-05
-2.18913e-05
-2.07286e-05
-1.9606e-05
-1.85228e-05
-1.74785e-05
-1.64728e-05
-1.55051e-05
-1.45748e-05
-1.36814e-05
-1.28243e-05
-1.20029e-05
-1.12166e-05
-1.04647e-05
-9.74655e-06
-9.06148e-06
-8.40875e-06
-7.7876e-06
-7.19728e-06
-6.63696e-06
-6.10587e-06
-5.60316e-06
-5.12797e-06
-4.67945e-06
-4.25674e-06
-3.85889e-06
-3.48506e-06
-3.13427e-06
-2.80567e-06
-2.49829e-06
-2.21122e-06
-1.94351e-06
-1.69427e-06
-1.46253e-06
-1.24745e-06
-1.04799e-06
-8.63449e-07
-6.92715e-07
-5.35081e-07
-3.89591e-07
-2.55366e-07
-1.31635e-07
-1.74645e-08
8.7963e-08
1.85427e-07
2.75923e-07
3.60105e-07
4.39351e-07
5.12997e-07
5.8669e-07
6.47299e-07
7.36152e-07
7.44767e-07
9.57917e-07
6.80463e-07
1.53201e-06
-2.50427e-08
3.25835e-06
-2.41136e-06
7.16845e-06
-6.65895e-06
1.14024e-05
-7.52737e-06
7.39285e-06
4.2678e-06
-8.98262e-06
2.13559e-05
-1.7428e-05
-2.7511e-05
-2.61585e-05
-2.48486e-05
-2.35807e-05
-2.23542e-05
-2.11688e-05
-2.0024e-05
-1.89194e-05
-1.78544e-05
-1.68285e-05
-1.58414e-05
-1.48923e-05
-1.39808e-05
-1.31063e-05
-1.22682e-05
-1.14658e-05
-1.06986e-05
-9.96569e-06
-9.26654e-06
-8.60036e-06
-7.9664e-06
-7.36389e-06
-6.79198e-06
-6.24989e-06
-5.73676e-06
-5.25171e-06
-4.79387e-06
-4.36237e-06
-3.95626e-06
-3.57464e-06
-3.21655e-06
-2.88111e-06
-2.56732e-06
-2.27427e-06
-2.00098e-06
-1.74654e-06
-1.50997e-06
-1.2904e-06
-1.08678e-06
-8.98396e-07
-7.24101e-07
-5.63185e-07
-4.14659e-07
-2.77643e-07
-1.51335e-07
-3.47983e-08
7.28244e-08
1.72288e-07
2.64653e-07
3.50547e-07
4.31418e-07
5.06546e-07
5.81673e-07
6.4351e-07
7.33875e-07
7.4302e-07
9.58951e-07
6.78924e-07
1.5394e-06
-3.20923e-08
3.2804e-06
-2.43491e-06
7.21443e-06
-6.7013e-06
1.14558e-05
-7.55048e-06
7.3914e-06
4.32468e-06
-9.08937e-06
2.15008e-05
-1.76441e-05
7.25845e-06
-6.74181e-06
1.1507e-05
-7.57264e-06
7.38971e-06
4.3799e-06
-9.19371e-06
2.16425e-05
-1.78539e-05
3.77631e-05
3.60286e-05
3.4342e-05
3.27034e-05
3.11134e-05
2.95721e-05
2.80797e-05
2.66362e-05
2.52418e-05
2.38962e-05
2.25994e-05
2.13509e-05
2.01506e-05
1.8998e-05
1.78926e-05
1.68338e-05
1.5821e-05
1.48534e-05
1.39304e-05
1.3051e-05
1.22144e-05
1.14196e-05
1.06655e-05
9.95128e-06
9.27567e-06
8.63758e-06
8.03586e-06
7.46929e-06
6.93666e-06
6.43671e-06
5.96819e-06
5.5298e-06
5.12028e-06
4.73833e-06
4.38263e-06
4.0519e-06
3.74484e-06
3.46016e-06
3.19658e-06
2.95283e-06
2.72763e-06
2.51975e-06
2.32792e-06
2.15093e-06
1.98752e-06
1.83647e-06
1.69654e-06
1.56646e-06
1.44497e-06
1.33069e-06
1.22226e-06
1.11819e-06
1.01686e-06
9.16486e-07
8.14977e-07
7.10039e-07
5.9866e-07
4.78301e-07
3.40677e-07
1.97188e-07
-2.55315e-08
-1.00775e-07
-8.00816e-07
-1.43105e-08
-2.75731e-06
-1.97732e-07
-1.40362e-06
-1.14088e-05
1.87102e-07
6.22405e-06
3.76437e-05
3.59146e-05
3.4233e-05
3.25996e-05
3.10145e-05
2.9478e-05
2.79903e-05
2.65515e-05
2.51614e-05
2.38202e-05
2.25275e-05
2.12831e-05
2.00867e-05
1.89378e-05
1.7836e-05
1.67807e-05
1.57712e-05
1.48068e-05
1.38868e-05
1.30103e-05
1.21764e-05
1.13843e-05
1.06327e-05
9.92084e-06
9.24747e-06
8.61151e-06
8.01178e-06
7.4471e-06
6.91624e-06
6.41796e-06
5.95099e-06
5.51407e-06
5.10592e-06
4.72524e-06
4.37073e-06
4.0411e-06
3.73506e-06
3.45133e-06
3.18863e-06
2.94569e-06
2.72125e-06
2.51406e-06
2.32288e-06
2.14648e-06
1.98361e-06
1.83307e-06
1.69361e-06
1.56397e-06
1.44289e-06
1.329e-06
1.22096e-06
1.11725e-06
1.01629e-06
9.16285e-07
8.15165e-07
7.10655e-07
5.99741e-07
4.79988e-07
3.42823e-07
2.00887e-07
-2.33472e-08
-8.89501e-08
-8.10007e-07
3.58063e-08
-2.81161e-06
-8.25281e-08
-1.41533e-06
-1.148e-05
5.65021e-07
6.28867e-06
3.74122e-05
3.56933e-05
3.40218e-05
3.23982e-05
3.08227e-05
2.92956e-05
2.7817e-05
2.6387e-05
2.50056e-05
2.36727e-05
2.23881e-05
2.11515e-05
1.99627e-05
1.8821e-05
1.77262e-05
1.66776e-05
1.56745e-05
1.47163e-05
1.38022e-05
1.29314e-05
1.21029e-05
1.13158e-05
1.05691e-05
9.86179e-06
9.19277e-06
8.56091e-06
7.96506e-06
7.40404e-06
6.87661e-06
6.38156e-06
5.91762e-06
5.48354e-06
5.07803e-06
4.69982e-06
4.34761e-06
4.02012e-06
3.71607e-06
3.43418e-06
3.17319e-06
2.93183e-06
2.70885e-06
2.50301e-06
2.31307e-06
2.13782e-06
1.97602e-06
1.82646e-06
1.68792e-06
1.55913e-06
1.43885e-06
1.32572e-06
1.21841e-06
1.11542e-06
1.01517e-06
9.15882e-07
8.15519e-07
7.11835e-07
6.01831e-07
4.83207e-07
3.47083e-07
2.07574e-07
-1.73666e-08
-7.18664e-08
-8.10859e-07
8.68919e-08
-2.82919e-06
-1.31552e-08
-1.38444e-06
-1.12298e-05
7.72303e-07
6.10977e-06
3.70757e-05
3.53718e-05
3.37149e-05
3.21056e-05
3.0544e-05
2.90305e-05
2.75652e-05
2.61482e-05
2.47793e-05
2.34585e-05
2.21857e-05
2.09604e-05
1.97825e-05
1.86515e-05
1.75668e-05
1.65279e-05
1.55342e-05
1.4585e-05
1.36794e-05
1.28167e-05
1.1996e-05
1.12163e-05
1.04767e-05
9.77601e-06
9.11331e-06
8.48742e-06
7.89721e-06
7.34149e-06
6.81906e-06
6.32869e-06
5.86915e-06
5.43918e-06
5.03752e-06
4.66289e-06
4.31402e-06
3.98964e-06
3.68847e-06
3.40926e-06
3.15075e-06
2.91169e-06
2.69082e-06
2.48694e-06
2.2988e-06
2.12523e-06
1.96497e-06
1.81684e-06
1.67963e-06
1.55208e-06
1.43297e-06
1.32095e-06
1.2147e-06
1.11274e-06
1.01352e-06
9.15284e-07
8.16024e-07
7.13538e-07
6.04857e-07
4.87853e-07
3.53307e-07
2.17141e-07
-8.2037e-09
-4.87207e-08
-8.08058e-07
1.51968e-07
-2.84297e-06
8.96817e-08
-1.32773e-06
-1.09452e-05
1.02219e-06
5.87342e-06
3.66414e-05
3.49567e-05
3.33188e-05
3.17279e-05
3.01844e-05
2.86885e-05
2.72404e-05
2.58399e-05
2.44872e-05
2.31821e-05
2.19245e-05
2.07139e-05
1.95501e-05
1.84327e-05
1.73611e-05
1.63348e-05
1.53532e-05
1.44155e-05
1.3521e-05
1.26688e-05
1.18581e-05
1.1088e-05
1.03574e-05
9.66539e-06
9.01083e-06
8.39264e-06
7.80969e-06
7.26082e-06
6.74482e-06
6.2605e-06
5.80663e-06
5.38197e-06
4.98526e-06
4.61526e-06
4.2707e-06
3.95032e-06
3.65288e-06
3.37712e-06
3.12181e-06
2.8857e-06
2.66757e-06
2.46621e-06
2.28041e-06
2.10898e-06
1.95072e-06
1.80443e-06
1.66894e-06
1.54298e-06
1.42538e-06
1.31479e-06
1.20991e-06
1.10929e-06
1.01139e-06
9.1451e-07
8.16671e-07
7.15729e-07
6.08751e-07
4.93826e-07
3.61339e-07
2.29383e-07
3.76304e-09
-1.97009e-08
-8.02957e-07
2.32506e-07
-2.85868e-06
2.29078e-07
-1.26498e-06
-1.06429e-05
1.33873e-06
5.60056e-06
3.61161e-05
3.44548e-05
3.28397e-05
3.12712e-05
2.97496e-05
2.8275e-05
2.68476e-05
2.54673e-05
2.41342e-05
2.28481e-05
2.16088e-05
2.0416e-05
1.92693e-05
1.81683e-05
1.71126e-05
1.61015e-05
1.51345e-05
1.42108e-05
1.33296e-05
1.24901e-05
1.16916e-05
1.0933e-05
1.02134e-05
9.53175e-06
8.88703e-06
8.27814e-06
7.70397e-06
7.16336e-06
6.65515e-06
6.17814e-06
5.73111e-06
5.31286e-06
4.92214e-06
4.55772e-06
4.21837e-06
3.90284e-06
3.60989e-06
3.3383e-06
3.08685e-06
2.85431e-06
2.63948e-06
2.44117e-06
2.25819e-06
2.08936e-06
1.93351e-06
1.78945e-06
1.65603e-06
1.532e-06
1.41621e-06
1.30735e-06
1.20412e-06
1.10511e-06
1.00882e-06
9.13573e-07
8.17446e-07
7.18363e-07
6.13434e-07
5.01012e-07
3.70995e-07
2.44057e-07
1.82033e-08
1.4682e-08
-7.95877e-07
3.2657e-07
-2.87491e-06
3.95486e-07
-1.19921e-06
-1.03164e-05
1.70469e-06
5.27921e-06
3.55066e-05
3.38724e-05
3.22839e-05
3.07414e-05
2.92452e-05
2.77954e-05
2.63921e-05
2.50353e-05
2.37249e-05
2.24608e-05
2.12427e-05
2.00705e-05
1.89437e-05
1.78619e-05
1.68245e-05
1.58311e-05
1.4881e-05
1.39734e-05
1.31077e-05
1.22831e-05
1.14986e-05
1.07534e-05
1.00465e-05
9.37687e-06
8.74356e-06
8.14545e-06
7.58146e-06
7.05043e-06
6.55124e-06
6.08269e-06
5.6436e-06
5.23277e-06
4.849e-06
4.49106e-06
4.15774e-06
3.84781e-06
3.56008e-06
3.29332e-06
3.04635e-06
2.81795e-06
2.60694e-06
2.41217e-06
2.23244e-06
2.06664e-06
1.91357e-06
1.77209e-06
1.64106e-06
1.51928e-06
1.40559e-06
1.29872e-06
1.19741e-06
1.10027e-06
1.00583e-06
9.12477e-07
8.1833e-07
7.21393e-07
6.18824e-07
5.09286e-07
3.82087e-07
2.60935e-07
3.47517e-08
5.40112e-08
-7.87419e-07
4.32829e-07
-2.892e-06
5.83579e-07
-1.13045e-06
-9.96971e-06
2.10756e-06
4.90839e-06
3.48193e-05
3.32158e-05
3.16574e-05
3.01443e-05
2.86768e-05
2.72549e-05
2.58788e-05
2.45484e-05
2.32637e-05
2.20244e-05
2.08304e-05
1.96814e-05
1.8577e-05
1.75167e-05
1.65001e-05
1.55265e-05
1.45955e-05
1.37062e-05
1.28579e-05
1.20499e-05
1.12813e-05
1.05511e-05
9.85853e-06
9.2025e-06
8.58204e-06
7.99607e-06
7.44353e-06
6.9233e-06
6.43425e-06
5.97524e-06
5.54508e-06
5.14262e-06
4.76666e-06
4.41601e-06
4.08948e-06
3.78587e-06
3.50401e-06
3.24269e-06
3.00075e-06
2.77701e-06
2.57031e-06
2.37951e-06
2.20347e-06
2.04105e-06
1.89113e-06
1.75254e-06
1.62422e-06
1.50496e-06
1.39364e-06
1.28901e-06
1.18986e-06
1.09482e-06
1.00246e-06
9.11228e-07
8.193e-07
7.24769e-07
6.24836e-07
5.18529e-07
3.94436e-07
2.79806e-07
5.3024e-08
9.79485e-08
-7.78366e-07
5.50409e-07
-2.91115e-06
7.90609e-07
-1.06077e-06
-9.60977e-06
2.54163e-06
4.49114e-06
3.40606e-05
3.24911e-05
3.0966e-05
2.94854e-05
2.80496e-05
2.66587e-05
2.53126e-05
2.40115e-05
2.2755e-05
2.15432e-05
2.03758e-05
1.92524e-05
1.81726e-05
1.71361e-05
1.61424e-05
1.51908e-05
1.42808e-05
1.34116e-05
1.25826e-05
1.17929e-05
1.10417e-05
1.03282e-05
9.6514e-06
9.01034e-06
8.40403e-06
7.83145e-06
7.29154e-06
6.7832e-06
6.30534e-06
5.85683e-06
5.43653e-06
5.04328e-06
4.67593e-06
4.33332e-06
4.01427e-06
3.71762e-06
3.44222e-06
3.1869e-06
2.95051e-06
2.73191e-06
2.52995e-06
2.34354e-06
2.17154e-06
2.01286e-06
1.86639e-06
1.73101e-06
1.60566e-06
1.48917e-06
1.38046e-06
1.27831e-06
1.18152e-06
1.08879e-06
9.98732e-07
9.09831e-07
8.20338e-07
7.28444e-07
6.31391e-07
5.28627e-07
4.07863e-07
3.00474e-07
7.26238e-08
1.46211e-07
-7.69576e-07
6.78636e-07
-2.93368e-06
1.01429e-06
-9.9273e-07
-9.24242e-06
3.00303e-06
4.02961e-06
3.32366e-05
3.17042e-05
3.02153e-05
2.87702e-05
2.73689e-05
2.60116e-05
2.46982e-05
2.34288e-05
2.22032e-05
2.10212e-05
1.98826e-05
1.8787e-05
1.77341e-05
1.67234e-05
1.57545e-05
1.48267e-05
1.39395e-05
1.30922e-05
1.2284e-05
1.15142e-05
1.0782e-05
1.00865e-05
9.42684e-06
8.802e-06
8.21105e-06
7.65299e-06
7.12677e-06
6.63133e-06
6.1656e-06
5.72848e-06
5.31885e-06
4.9356e-06
4.57758e-06
4.24368e-06
3.93275e-06
3.64364e-06
3.37525e-06
3.12642e-06
2.89604e-06
2.68301e-06
2.4862e-06
2.30454e-06
2.13693e-06
1.9823e-06
1.83958e-06
1.70767e-06
1.58554e-06
1.47206e-06
1.36618e-06
1.2667e-06
1.17248e-06
1.08225e-06
9.94669e-07
9.08289e-07
8.21423e-07
7.32372e-07
6.3841e-07
5.39469e-07
4.2219e-07
3.22757e-07
9.3146e-08
1.98574e-07
-7.6195e-07
8.1701e-07
-2.96098e-06
1.25258e-06
-9.28427e-07
-8.87251e-06
3.48855e-06
3.52541e-06
3.23533e-05
3.08607e-05
2.94108e-05
2.80037e-05
2.66395e-05
2.53183e-05
2.40401e-05
2.28047e-05
2.16122e-05
2.04621e-05
1.93544e-05
1.82887e-05
1.72646e-05
1.62816e-05
1.53393e-05
1.4437e-05
1.35743e-05
1.27503e-05
1.19645e-05
1.1216e-05
1.05041e-05
9.82792e-06
9.18654e-06
8.57908e-06
8.00457e-06
7.46203e-06
6.95047e-06
6.46883e-06
6.01608e-06
5.59115e-06
5.19294e-06
4.82038e-06
4.47236e-06
4.14778e-06
3.84552e-06
3.56449e-06
3.30359e-06
3.06172e-06
2.83778e-06
2.6307e-06
2.43939e-06
2.26282e-06
2.0999e-06
1.94961e-06
1.8109e-06
1.68269e-06
1.56402e-06
1.45375e-06
1.35089e-06
1.25427e-06
1.1628e-06
1.07523e-06
9.903e-07
9.06606e-07
8.22537e-07
7.3651e-07
6.45816e-07
5.50954e-07
4.37243e-07
3.46493e-07
1.14179e-07
2.54875e-07
-7.56422e-07
9.65187e-07
-2.99444e-06
1.50379e-06
-8.6948e-07
-8.50458e-06
3.99574e-06
2.98007e-06
3.14163e-05
2.99661e-05
2.85577e-05
2.7191e-05
2.58662e-05
2.45834e-05
2.33425e-05
2.21434e-05
2.09859e-05
1.98698e-05
1.87949e-05
1.77609e-05
1.67672e-05
1.58136e-05
1.48995e-05
1.40243e-05
1.31874e-05
1.23883e-05
1.16262e-05
1.09003e-05
1.02099e-05
9.55411e-06
8.93214e-06
8.34306e-06
7.78596e-06
7.25988e-06
6.76383e-06
6.29681e-06
5.8578e-06
5.44578e-06
5.05967e-06
4.69842e-06
4.36098e-06
4.04626e-06
3.7532e-06
3.48071e-06
3.22775e-06
2.99324e-06
2.7761e-06
2.57534e-06
2.38984e-06
2.21865e-06
2.06071e-06
1.915e-06
1.78054e-06
1.65626e-06
1.54123e-06
1.43437e-06
1.3347e-06
1.24111e-06
1.15254e-06
1.06779e-06
9.85647e-07
9.04787e-07
8.23662e-07
7.40815e-07
6.53535e-07
5.62983e-07
4.52851e-07
3.71542e-07
1.3531e-07
3.15015e-07
-7.53942e-07
1.12296e-06
-3.03543e-06
1.76646e-06
-8.17096e-07
-8.14282e-06
4.5227e-06
2.39525e-06
3.04311e-05
2.90256e-05
2.76609e-05
2.63369e-05
2.50537e-05
2.38113e-05
2.26097e-05
2.14487e-05
2.03281e-05
1.92478e-05
1.82074e-05
1.72066e-05
1.62451e-05
1.53223e-05
1.44378e-05
1.35911e-05
1.27814e-05
1.20083e-05
1.12711e-05
1.05689e-05
9.90106e-06
9.26676e-06
8.66517e-06
8.0954e-06
7.55658e-06
7.04775e-06
6.56799e-06
6.11631e-06
5.69173e-06
5.29324e-06
4.91983e-06
4.57046e-06
4.24412e-06
3.93975e-06
3.65633e-06
3.39281e-06
3.14817e-06
2.92138e-06
2.7114e-06
2.51725e-06
2.33787e-06
2.17232e-06
2.01959e-06
1.87869e-06
1.74868e-06
1.62852e-06
1.51732e-06
1.41402e-06
1.31771e-06
1.22728e-06
1.14175e-06
1.05995e-06
9.80733e-07
9.02836e-07
8.24779e-07
7.45249e-07
6.61498e-07
5.75469e-07
4.68848e-07
3.97789e-07
1.56118e-07
3.7896e-07
-7.5546e-07
1.29023e-06
-3.08521e-06
2.03929e-06
-7.72058e-07
-7.79118e-06
5.06786e-06
1.77282e-06
2.94028e-05
2.80442e-05
2.67252e-05
2.54459e-05
2.42062e-05
2.30061e-05
2.18455e-05
2.07244e-05
1.96424e-05
1.85994e-05
1.7595e-05
1.6629e-05
1.5701e-05
1.48104e-05
1.39568e-05
1.31397e-05
1.23585e-05
1.16125e-05
1.09012e-05
1.02237e-05