/*--------------------------------*- C++ -*----------------------------------*\
| =========                 |                                                 |
| \\      /  F ield         | OpenFOAM: The Open Source CFD Toolbox           |
|  \\    /   O peration     | Version:  2412                                  |
|   \\  /    A nd           | Website:  www.openfoam.com                      |
|    \\/     M anipulation  |                                                 |
\*---------------------------------------------------------------------------*/
FoamFile
{
    version     2.0;
    format      ascii;
    arch        "LSB;label=32;scalar=64";
    class       surfaceScalarField;
    location    "5";
    object      phi;
}
// * * * * * * * * * * * * * * * * * * * * * * * * * * * * * * * * * * * * * //

dimensions      [0 3 -1 0 0 0 0];

oriented        oriented;

internalField   nonuniform List<scalar> 
10424
(
0.00505075
7.50533e-09
-1.06963e-10
0.00504702
3.7342e-06
-2.5652e-09
0.00504028
6.7455e-06
-6.07509e-09
0.00503283
7.45129e-06
-6.67665e-09
0.00502727
5.56917e-06
-4.18513e-09
0.00502399
3.28007e-06
-4.80209e-10
0.00502229
1.69388e-06
2.75233e-09
0.0050213
9.9036e-07
4.87598e-09
0.00502039
8.99109e-07
6.00344e-09
0.0050193
1.08574e-06
6.46445e-09
0.00501795
1.34277e-06
6.53672e-09
0.00501636
1.57981e-06
6.43637e-09
0.00501459
1.77224e-06
6.29589e-09
0.00501266
1.9235e-06
6.17459e-09
0.00501061
2.04462e-06
6.08882e-09
0.00500845
2.14608e-06
6.02966e-09
0.00500621
2.2358e-06
5.97988e-09
0.00500389
2.31924e-06
5.91889e-09
0.00500148
2.4e-06
5.83723e-09
0.00499899
2.4804e-06
5.74406e-09
0.00499643
2.56195e-06
5.64332e-09
0.00499378
2.64565e-06
5.527e-09
0.00499104
2.73213e-06
5.39113e-09
0.00498821
2.82181e-06
5.23529e-09
0.00498529
2.91496e-06
5.06879e-09
0.00498227
3.01177e-06
4.89766e-09
0.00497916
3.11236e-06
4.72223e-09
0.00497594
3.21685e-06
4.53803e-09
0.00497261
3.32532e-06
4.34025e-09
0.00496916
3.43784e-06
4.12764e-09
0.00496561
3.55448e-06
3.90018e-09
0.00496193
3.67533e-06
3.66127e-09
0.00495812
3.80046e-06
3.41505e-09
0.00495419
3.92995e-06
3.16533e-09
0.00495012
4.06391e-06
2.9148e-09
0.00494592
4.20246e-06
2.66283e-09
0.00494157
4.34575e-06
2.40851e-09
0.00493707
4.49393e-06
2.14774e-09
0.00493243
4.6472e-06
1.87911e-09
0.00492762
4.80577e-06
1.60111e-09
0.00492265
4.9699e-06
1.31523e-09
0.00491751
5.13988e-06
1.02346e-09
0.00491219
5.31607e-06
7.28795e-10
0.00490669
5.49887e-06
4.3347e-10
0.004901
5.68879e-06
1.38723e-10
0.00489511
5.88642e-06
-1.5594e-10
0.00488902
6.09248e-06
-4.50968e-10
0.00488272
6.30785e-06
-7.46222e-10
0.00487618
6.53355e-06
-1.04007e-09
0.00486941
6.77078e-06
-1.32849e-09
0.00486239
7.02076e-06
-1.60578e-09
0.00485511
7.28452e-06
-1.86565e-09
0.00484755
7.56252e-06
-2.10224e-09
0.0048397
7.85465e-06
-2.31068e-09
8.16161e-06
0.00483154
-2.48778e-09
0.00505075
1.20035e-08
0.0050471
7.38815e-06
0.0050405
1.33475e-05
0.00503316
1.47925e-05
0.00502762
1.11003e-05
0.00502431
6.58962e-06
0.00502256
3.45189e-06
0.0050215
2.05017e-06
0.00502054
1.85787e-06
0.00501941
2.21703e-06
0.00501803
2.7183e-06
0.00501643
3.18268e-06
0.00501464
3.56081e-06
0.0050127
3.85888e-06
0.00501065
4.09821e-06
0.0050085
4.29923e-06
0.00500626
4.47741e-06
0.00500393
4.64339e-06
0.00500153
4.80421e-06
0.00499904
4.96446e-06
0.00499648
5.1271e-06
0.00499383
5.29406e-06
0.0049911
5.46661e-06
0.00498827
5.64555e-06
0.00498536
5.83144e-06
0.00498234
6.02462e-06
0.00497923
6.22537e-06
0.00497601
6.43388e-06
0.00497269
6.65033e-06
0.00496925
6.87485e-06
0.0049657
7.10759e-06
0.00496202
7.34869e-06
0.00495823
7.59831e-06
0.0049543
7.85663e-06
0.00495024
8.12385e-06
0.00494604
8.40022e-06
0.0049417
8.686e-06
0.00493721
8.98152e-06
0.00493257
9.28714e-06
0.00492778
9.6033e-06
0.00492282
9.93049e-06
0.00491769
1.02693e-05
0.00491238
1.06204e-05
0.0049069
1.09846e-05
0.00490122
1.13629e-05
0.00489535
1.17564e-05
0.00488928
1.21666e-05
0.00488299
1.2595e-05
0.00487648
1.30439e-05
0.00486974
1.35153e-05
0.00486275
1.40117e-05
0.0048555
1.45351e-05
0.00484797
1.50862e-05
0.00484016
1.56649e-05
1.62725e-05
0.00483205
0.00505076
9.50134e-09
0.00504726
1.08852e-05
0.00504093
1.96762e-05
0.0050338
2.19305e-05
0.00502833
1.65669e-05
0.00502496
9.9603e-06
0.00502308
5.33199e-06
0.00502189
3.23751e-06
0.00502083
2.92215e-06
0.00501962
3.42495e-06
0.00501819
4.14511e-06
0.00501656
4.81799e-06
0.00501475
5.36893e-06
0.0050128
5.80532e-06
0.00501074
6.15736e-06
0.00500859
6.45434e-06
0.00500635
6.71856e-06
0.00500402
6.96541e-06
0.00500162
7.20511e-06
0.00499914
7.4443e-06
0.00499658
7.6873e-06
0.00499394
7.93691e-06
0.00499121
8.19497e-06
0.0049884
8.46266e-06
0.00498549
8.74076e-06
0.00498248
9.02982e-06
0.00497938
9.3302e-06
0.00497617
9.64219e-06
0.00497285
9.96604e-06
0.00496943
1.03019e-05
0.00496588
1.06501e-05
0.00496222
1.10108e-05
0.00495843
1.13841e-05
0.00495452
1.17704e-05
0.00495047
1.217e-05
0.00494629
1.25832e-05
0.00494197
1.30104e-05
0.0049375
1.34521e-05
0.00493287
1.39088e-05
0.0049281
1.43812e-05
0.00492316
1.48698e-05
0.00491805
1.53757e-05
0.00491277
1.58998e-05
0.00490731
1.64432e-05
0.00490167
1.70074e-05
0.00489583
1.75939e-05
0.00488979
1.82049e-05
0.00488355
1.88427e-05
0.00487708
1.95101e-05
0.00487038
2.02104e-05
0.00486345
2.09469e-05
0.00485626
2.17223e-05
0.00484881
2.25377e-05
0.00484108
2.33926e-05
2.42882e-05
0.00483307
0.00505077
-5.40972e-09
0.00504751
1.41454e-05
0.00504159
2.56021e-05
0.00503474
2.87736e-05
0.00502937
2.19443e-05
0.0050259
1.34242e-05
0.00502384
7.39233e-06
0.00502247
4.61129e-06
0.00502125
4.13981e-06
0.00501993
4.74383e-06
0.00501843
5.64594e-06
0.00501675
6.49998e-06
0.00501491
7.20505e-06
0.00501295
7.76749e-06
0.00501088
8.22427e-06
0.00500873
8.612e-06
0.00500649
8.95877e-06
0.00500417
9.28408e-06
0.00500177
9.60091e-06
0.0049993
9.91771e-06
0.00499674
1.024e-05
0.00499411
1.05714e-05
0.00499139
1.09141e-05
0.00498858
1.12698e-05
0.00498569
1.16393e-05
0.00498269
1.20235e-05
0.0049796
1.24227e-05
0.0049764
1.28374e-05
0.0049731
1.32678e-05
0.00496969
1.37141e-05
0.00496616
1.41767e-05
0.00496252
1.46559e-05
0.00495875
1.51518e-05
0.00495486
1.56649e-05
0.00495083
1.61955e-05
0.00494667
1.67441e-05
0.00494237
1.73111e-05
0.00493792
1.78972e-05
0.00493333
1.85031e-05
0.00492858
1.91295e-05
0.00492367
1.97774e-05
0.0049186
2.04478e-05
0.00491336
2.11419e-05
0.00490794
2.18613e-05
0.00490234
2.26077e-05
0.00489655
2.33832e-05
0.00489057
2.41901e-05
0.00488438
2.50316e-05
0.00487798
2.59111e-05
0.00487135
2.68325e-05
0.0048645
2.77999e-05
0.00485741
2.88164e-05
0.00485006
2.98834e-05
0.00484245
3.09996e-05
3.21663e-05
0.00483458
0.00505079
-3.84207e-08
0.00504784
1.70914e-05
0.00504243
3.10112e-05
0.00503597
3.52427e-05
0.0050307
2.72142e-05
0.00502711
1.70119e-05
0.00502482
9.68459e-06
0.0050232
6.22272e-06
0.00502179
5.55182e-06
0.00502033
6.20275e-06
0.00501874
7.23988e-06
0.005017
8.2405e-06
0.00501513
9.07612e-06
0.00501315
9.74913e-06
0.00501107
1.03006e-05
0.00500891
1.07724e-05
0.00500667
1.11973e-05
0.00500436
1.1598e-05
0.00500197
1.19897e-05
0.0049995
1.23824e-05
0.00499696
1.27826e-05
0.00499434
1.31945e-05
0.00499163
1.36208e-05
0.00498884
1.40634e-05
0.00498595
1.45235e-05
0.00498298
1.50017e-05
0.0049799
1.54988e-05
0.00497672
1.6015e-05
0.00497344
1.65508e-05
0.00497005
1.71064e-05
0.00496654
1.76821e-05
0.00496292
1.82784e-05
0.00495917
1.88954e-05
0.00495531
1.95336e-05
0.00495131
2.01934e-05
0.00494718
2.08754e-05
0.00494291
2.15802e-05
0.0049385
2.23084e-05
0.00493394
2.3061e-05
0.00492923
2.38387e-05
0.00492436
2.46427e-05
0.00491934
2.54742e-05
0.00491415
2.63347e-05
0.00490878
2.72258e-05
0.00490324
2.81497e-05
0.00489751
2.91086e-05
0.0048916
3.01054e-05
0.00488549
3.11435e-05
0.00487917
3.22267e-05
0.00487264
3.33594e-05
0.0048659
3.45461e-05
0.00485892
3.57902e-05
0.00485171
3.70927e-05
0.00484426
3.84515e-05
3.98661e-05
0.00483656
0.00505081
-9.54823e-08
0.00504824
1.96625e-05
0.00504344
3.58107e-05
0.00503741
4.12798e-05
0.00503226
3.23636e-05
0.00502852
2.07479e-05
0.00502596
1.22486e-05
0.00502407
8.11057e-06
0.00502243
7.18905e-06
0.00502081
7.82349e-06
0.00501911
8.94119e-06
0.0050173
1.00483e-05
0.00501539
1.09872e-05
0.00501339
1.17528e-05
0.0050113
1.23872e-05
0.00500914
1.29354e-05
0.0050069
1.34332e-05
0.00500459
1.39056e-05
0.00500221
1.43694e-05
0.00499976
1.4836e-05
0.00499723
1.53124e-05
0.00499462
1.58033e-05
0.00499193
1.6312e-05
0.00498915
1.68403e-05
0.00498629
1.73896e-05
0.00498333
1.79607e-05
0.00498027
1.85542e-05
0.00497712
1.91707e-05
0.00497386
1.98104e-05
0.00497049
2.04737e-05
0.00496701
2.1161e-05
0.00496342
2.18725e-05
0.0049597
2.26087e-05
0.00495587
2.337e-05
0.00495191
2.41569e-05
0.00494781
2.49699e-05
0.00494358
2.58098e-05
0.00493921
2.66774e-05
0.0049347
2.75734e-05
0.00493004
2.8499e-05
0.00492523
2.94554e-05
0.00492026
3.04439e-05
0.00491513
3.14661e-05
0.00490983
3.25239e-05
0.00490436
3.36195e-05
0.00489871
3.47553e-05
0.00489288
3.59346e-05
0.00488686
3.71607e-05
0.00488065
3.84378e-05
0.00487424
3.97705e-05
0.00486763
4.11631e-05
0.0048608
4.26191e-05
0.00485375
4.41387e-05
0.00484648
4.57184e-05
4.73545e-05
0.004839
0.00505082
-1.60747e-07
0.00504871
2.17757e-05
0.00504454
3.99844e-05
0.00503898
4.68321e-05
0.00503396
3.7387e-05
0.00503006
2.46465e-05
0.0050272
1.51053e-05
0.00502502
1.02971e-05
0.00502314
9.06925e-06
0.00502134
9.61868e-06
0.00501953
1.07582e-05
0.00501765
1.19286e-05
0.00501569
1.29412e-05
0.00501366
1.37798e-05
0.00501157
1.44842e-05
0.0050094
1.51003e-05
0.00500717
1.56651e-05
0.00500487
1.62051e-05
0.0050025
1.67381e-05
0.00500006
1.72761e-05
0.00499755
1.78267e-05
0.00499496
1.83951e-05
0.00499228
1.89845e-05
0.00498953
1.9597e-05
0.00498668
2.0234e-05
0.00498375
2.08964e-05
0.00498072
2.1585e-05
0.00497759
2.23e-05
0.00497436
2.3042e-05
0.00497102
2.38113e-05
0.00496757
2.46081e-05
0.00496401
2.54329e-05
0.00496033
2.6286e-05
0.00495654
2.71679e-05
0.00495261
2.80792e-05
0.00494856
2.90204e-05
0.00494438
2.99923e-05
0.00494006
3.09958e-05
0.0049356
3.20317e-05
0.004931
3.31012e-05
0.00492625
3.42055e-05
0.00492135
3.53461e-05
0.00491629
3.65247e-05
0.00491107
3.77432e-05
0.00490569
3.90038e-05
0.00490013
4.03092e-05
0.0048944
4.16624e-05
0.0048885
4.3067e-05
0.00488241
4.45271e-05
0.00487613
4.6047e-05
0.00486966
4.7631e-05
0.004863
4.92819e-05
0.00485614
5.09991e-05
0.00484908
5.27764e-05
0.00484184
5.46022e-05
0.00483347
-1.92816e-06
-2.64688e-09
0.00483489
-1.41453e-06
-2.81656e-09
0.0048358
-9.07041e-07
-2.96461e-09
0.00483623
-4.29143e-07
-3.1122e-09
0.00483621
1.98316e-08
-3.25041e-09
0.00483584
3.75042e-07
-3.24804e-09
0.00483516
6.85682e-07
-3.30373e-09
0.00483421
9.53257e-07
-3.36598e-09
0.004833
1.21277e-06
-3.40821e-09
0.00483149
1.51147e-06
-3.43623e-09
0.00482959
1.90102e-06
-3.44965e-09
0.00482717
2.42904e-06
-3.4463e-09
0.00482404
3.13213e-06
-3.42581e-09
0.00482001
4.03233e-06
-3.38751e-09
0.00481488
5.13735e-06
-3.34168e-09
6.44387e-06
-3.26586e-09
0.00483263
-2.50581e-06
0.00483269
-1.48152e-06
0.00483225
-4.64493e-07
0.00483132
5.01895e-07
0.00482997
1.37208e-06
0.00482822
2.12311e-06
0.00482615
2.76116e-06
0.00482378
3.31965e-06
0.00482113
3.86619e-06
0.00481814
4.49269e-06
0.00481475
5.29973e-06
0.00481079
6.37977e-06
0.00480612
7.80394e-06
0.00480054
9.61511e-06
0.00479385
1.18286e-05
1.44387e-05
0.00483095
-3.9328e-07
0.00482834
1.13712e-06
0.00482521
2.65709e-06
0.00482161
4.10773e-06
0.00481755
5.43074e-06
0.00481308
6.59151e-06
0.00480825
7.59364e-06
0.00480308
8.48822e-06
0.00479757
9.37347e-06
0.00479168
1.03818e-05
0.00478533
1.16575e-05
0.00477837
1.33332e-05
0.00477067
1.55107e-05
0.00476203
1.82519e-05
0.00475228
2.15794e-05
2.54865e-05
0.00482847
5.71004e-06
0.00482187
7.73553e-06
0.00481478
9.7552e-06
0.00480719
1.16958e-05
0.00479913
1.34875e-05
0.00479064
1.50867e-05
0.00478173
1.64983e-05
0.00477243
1.77879e-05
0.00476273
1.90797e-05
0.00475257
2.05404e-05
0.00474187
2.23513e-05
0.00473053
2.46786e-05
0.00471839
2.76501e-05
0.0047053
3.13441e-05
0.00469109
3.57909e-05
4.09847e-05
0.00482521
1.70601e-05
0.00481338
1.9565e-05
0.00480106
2.20751e-05
0.00478825
2.45069e-05
0.00477496
2.67814e-05
0.0047612
2.88499e-05
0.00474697
3.07197e-05
0.00473229
3.24681e-05
0.00471713
3.42403e-05
0.00470144
3.62304e-05
0.00468515
3.86485e-05
0.00466814
4.16873e-05
0.00465029
4.54955e-05
0.00463147
5.01649e-05
0.00461153
5.57337e-05
6.21999e-05
0.00482121
3.48467e-05
0.00480296
3.78086e-05
0.00478425
4.07935e-05
0.00476504
4.37114e-05
0.00474535
4.64779e-05
0.00472515
4.90421e-05
0.00470446
5.14142e-05
0.00468325
5.36809e-05
0.00466148
5.60037e-05
0.00463912
5.85963e-05
0.00461608
6.16901e-05
0.00459227
6.54968e-05
0.00456758
7.01806e-05
0.0045419
7.58449e-05
0.0045151
8.25356e-05
9.02572e-05
0.00481651
6.01722e-05
0.00479076
6.35617e-05
0.00476455
6.69995e-05
0.00473787
7.03911e-05
0.0047107
7.36498e-05
0.00468302
7.67248e-05
0.0046548
7.96296e-05
0.00462602
8.24591e-05
0.00459664
8.53863e-05
0.0045666
8.86386e-05
0.00453583
9.24616e-05
0.00450424
9.70798e-05
0.00447176
0.000102668
0.00443826
0.000109337
0.00440366
0.000117143
0.000126096
0.00506936
6.81735e-05
-0.00507736
0.00506097
7.19512e-05
0.00505216
7.58113e-05
0.00504289
7.96667e-05
0.0050331
8.34357e-05
0.00502276
8.70698e-05
0.0050118
9.05809e-05
0.00500021
9.40582e-05
0.00498793
9.76658e-05
0.00497494
0.000101622
0.00496124
0.000106167
0.00494679
0.000111523
0.00493159
0.00011787
0.0049156
0.00012533
0.00489877
0.000133971
0.000143824
0.00507352
7.58656e-05
-0.00508121
0.00506547
8.00046e-05
0.00505702
8.42608e-05
0.00504813
8.85576e-05
0.00503874
9.28223e-05
0.0050288
9.70118e-05
0.00501824
0.000101138
0.00500701
0.000105283
0.00499508
0.000109598
0.00498242
0.000114289
0.004969
0.000119579
0.00495484
0.000125685
0.00493993
0.000132785
0.00492425
0.000141008
0.00490778
0.000150434
0.000161111
0.00507802
8.32229e-05
-0.00508537
0.00507033
8.76922e-05
0.00506228
9.23131e-05
0.00505381
9.70211e-05
0.00504488
0.000101755
0.00503541
0.000106481
0.00502534
0.00011121
0.0050146
0.000116019
0.00500316
0.000121045
0.00499097
0.000126473
0.00497804
0.000132511
0.00496437
0.00013936
0.00494996
0.000147193
0.00493482
0.000156143
0.00491896
0.000166301
0.000177726
0.00508279
9.02354e-05
-0.00508981
0.00507548
9.50028e-05
0.00506784
9.9954e-05
0.00505982
0.000105038
0.00505137
0.000110207
0.00504242
0.000115435
0.00503289
0.000120737
0.00502273
0.000126183
0.00501188
0.000131896
0.00500031
0.00013804
0.00498802
0.000144803
0.00497501
0.00015237
0.0049613
0.000160904
0.0049469
0.000170537
0.00493183
0.000181368
0.000193468
0.0050878
9.69021e-05
-0.00509446
0.00508086
0.000101936
0.00507363
0.000107184
0.00506606
0.000112606
0.0050581
0.000118169
0.00504968
0.000123856
0.00504073
0.000129687
0.00503119
0.000135726
0.005021
0.000142081
0.00501014
0.000148898
0.0049986
0.000156344
0.00498639
0.000164585
0.00497352
0.000173774
0.00496002
0.000184037
0.00494591
0.000195478
0.000208178
0.00509299
0.000103227
-0.00509932
0.00508643
0.000108499
0.0050796
0.00011401
0.00507248
0.000119734
0.005065
0.000125648
0.00505711
0.000131747
0.00504874
0.000138054
0.00503984
0.000144628
0.00503035
0.000151566
0.00502025
0.000158997
0.00500953
0.000167066
0.00499819
0.000175923
0.00498626
0.000185707
0.00497376
0.000196539
0.00496072
0.000208521
0.000221744
0.00509837
0.000109215
-0.00510435
0.00509217
0.0001147
0.00508573
0.000120445
0.00507903
0.000126435
0.00507202
0.000132659
0.00506465
0.00013912
0.00505686
0.000145845
0.00504859
0.000152891
0.00503981
0.000160345
0.00503049
0.000168319
0.00502062
0.000176942
0.00501019
0.000186345
0.00499925
0.000196654
0.0049878
0.000207983
0.00497589
0.000220434
0.000234097
0.0051039
0.000114872
-0.00510956
0.00509806
0.000120545
0.005092
0.000126498
0.00508572
0.000132722
0.00507916
0.000139216
0.00507229
0.000145992
0.00506506
0.000153078
0.00505742
0.000160531
0.00504933
0.000168428
0.00504078
0.00017687
0.00503175
0.000185969
0.00502226
0.000195841
0.00501231
0.000206599
0.00500195
0.00021835
0.00499119
0.00023119
0.00024521
0.0051096
0.000120201
-0.00511493
0.0051041
0.000126042
0.00509842
0.000132177
0.00509254
0.000138606
0.00508642
0.000145333
0.00508003
0.000152377
0.00507334
0.00015977
0.00506631
0.000167565
0.0050589
0.000175835
0.0050511
0.000184668
0.00504291
0.000194164
0.00503432
0.000204425
0.00502537
0.000215553
0.00501607
0.000227645
0.00500647
0.000240792
0.000255082
0.00511544
0.000125203
-0.00512044
0.00511029
0.000131193
0.00510498
0.000137488
0.00509949
0.000144092
0.00509381
0.000151019
0.00508789
0.000158288
0.00508173
0.000165936
0.00507528
0.000174013
0.00506853
0.000182587
0.00506146
0.000191737
0.00505407
0.000201552
0.00504638
0.000212122
0.00503839
0.000223538
0.00503015
0.00023589
0.00502168
0.000249261
0.000263736
0.00512142
0.00012988
-0.0051261
0.00511661
0.000135999
0.00511167
0.000142431
0.00510658
0.000149185
0.00510132
0.000156278
0.00509587
0.000163733
0.00509022
0.000171587
0.00508435
0.000179889
0.00507823
0.000188703
0.00507187
0.0001981
0.00506526
0.000208158
0.00505842
0.000218961
0.00505138
0.000230587
0.00504415
0.000243119
0.00503678
0.000256633
0.000271207
0.00512752
0.000134231
-0.00513187
0.00512306
0.000140459
0.00511849
0.000147006
0.00511379
0.000153884
0.00510895
0.000161112
0.00510397
0.000168715
0.00509883
0.00017673
0.00509351
0.000185206
0.00508802
0.000194199
0.00508234
0.000203778
0.00507649
0.000214011
0.00507047
0.000224972
0.00506433
0.000236735
0.00505808
0.000249369
0.00505176
0.000262948
0.000277542
0.00513374
0.000138255
-0.00513776
0.00512962
0.000144573
0.00512542
0.000151214
0.00512111
0.00015819
0.0051167
0.000165523
0.00511218
0.000173238
0.00510753
0.000181373
0.00510277
0.000189972
0.00509787
0.000199092
0.00509286
0.000208792
0.00508774
0.000219136
0.00508252
0.000230189
0.00507724
0.000242017
0.00507192
0.000254684
0.00506662
0.000268254
0.000282792
0.00514004
0.000141953
-0.00514374
0.00513627
0.000148341
0.00513243
0.000155053
0.00512852
0.000162103
0.00512453
0.000169511
0.00512047
0.000177305
0.00511632
0.00018552
0.00511209
0.0001942
0.00510779
0.000203396
0.00510342
0.000213162
0.00509899
0.000223558
0.00509454
0.000234642
0.00509009
0.000246471
0.00508567
0.000259104
0.00508132
0.000272598
0.000287011
0.00514642
0.000145325
-0.00514979
0.00514299
0.000151764
0.00513952
0.000158525
0.005136
0.000165624
0.00513243
0.00017308
0.00512882
0.000180921
0.00512516
0.00018918
0.00512146
0.000197899
0.00511773
0.000207125
0.00511398
0.000216909
0.00511023
0.000227304
0.00510651
0.000238363
0.00510285
0.000250136
0.00509928
0.000262675
0.00509584
0.000276032
0.000290256
0.00515285
0.000148373
-0.00515589
0.00514977
0.000154844
0.00514666
0.000161633
0.00514352
0.000168757
0.00514037
0.000176235
0.0051372
0.000184092
0.00513402
0.000192362
0.00513083
0.000201082
0.00512766
0.000210298
0.00512452
0.000220055
0.00512142
0.000230402
0.0051184
0.000241385
0.00511548
0.00025305
0.00511272
0.000265442
0.00511014
0.000278606
0.000292586
0.00515931
0.000151102
-0.00516203
0.00515656
0.000157585
0.00515382
0.000164382
0.00515107
0.000171508
0.00514832
0.000178982
0.00514558
0.000186827
0.00514287
0.000195076
0.00514019
0.000203764
0.00513755
0.000212932
0.00513499
0.000222622
0.00513251
0.000232878
0.00513015
0.000243741
0.00512795
0.000255252
0.00512594
0.00026745
0.00512418
0.000280374
0.000294061
0.00516578
0.000153515
-0.00516819
0.00516337
0.000159993
0.00516098
0.000166777
0.0051586
0.000173884
0.00515625
0.000181329
0.00515394
0.000189138
0.00515168
0.000197337
0.00514948
0.000205961
0.00514737
0.000215047
0.00514536
0.000224635
0.00514347
0.000234762
0.00514175
0.000245467
0.00514021
0.000256784
0.00513892
0.000268746
0.0051379
0.000281388
0.00029474
0.00517225
0.00015562
-0.00517435
0.00517017
0.000162074
0.00516812
0.000168828
0.00516611
0.000175894
0.00516415
0.000183289
0.00516225
0.000191036
0.00516042
0.000199159
0.00515869
0.000207692
0.00515707
0.000216667
0.00515559
0.00022612
0.00515427
0.000236086
0.00515313
0.000246598
0.00515223
0.000257685
0.0051516
0.000269377
0.00515129
0.000281701
0.000294683
0.00517869
0.000157424
-0.00518049
0.00517693
0.000163838
0.00517521
0.000170542
0.00517356
0.000177549
0.00517197
0.000184874
0.00517047
0.000192536
0.00516907
0.000200561
0.00516779
0.000208976
0.00516664
0.000217814
0.00516566
0.000227105
0.00516486
0.000236881
0.00516429
0.00024717
0.00516398
0.000257998
0.00516396
0.000269389
0.0051643
0.000281365
0.000293948
0.0051851
0.000158934
-0.00518661
0.00518364
0.000165293
0.00518225
0.000171932
0.00518094
0.000178862
0.00517972
0.000186097
0.0051786
0.000193656
0.0051776
0.00020156
0.00517674
0.000209836
0.00517604
0.000218513
0.00517553
0.000227618
0.00517523
0.000237178
0.00517518
0.000247219
0.00517541
0.000257763
0.00517597
0.000268828
0.00517691
0.000280433
0.000292593
0.00519145
0.000160162
-0.00519267
0.00519029
0.00016645
0.00518921
0.000173008
0.00518823
0.000179846
0.00518735
0.000186974
0.0051866
0.000194411
0.00518598
0.000202176
0.00518552
0.000210294
0.00518525
0.000218789
0.00518518
0.000227687
0.00518534
0.000237011
0.00518578
0.000246783
0.00518652
0.000257021
0.00518761
0.000267741
0.00518909
0.000278954
0.000290675
0.00519773
0.000161116
-0.00519868
0.00519685
0.000167321
0.00519608
0.000173785
0.00519541
0.000180514
0.00519486
0.000187521
0.00519445
0.000194821
0.0051942
0.00020243
0.00519412
0.000210372
0.00519424
0.000218668
0.00519459
0.000227341
0.00519519
0.000236412
0.00519607
0.000245898
0.00519728
0.000255814
0.00519885
0.000266171
0.00520082
0.000276979
0.000288246
0.00520392
0.000161808
-0.00520461
0.00520332
0.000167918
0.00520283
0.000174274
0.00520247
0.000180883
0.00520223
0.000187755
0.00520215
0.000194903
0.00520224
0.000202342
0.00520252
0.000210094
0.00520301
0.000218176
0.00520374
0.00022661
0.00520474
0.000235413
0.00520604
0.000244599
0.00520767
0.000254179
0.00520968
0.000264163
0.0052121
0.000274555
0.00028536
0.00521002
0.000162248
-0.00521046
0.00520969
0.000168253
0.00520947
0.000174491
0.00520939
0.000180968
0.00520945
0.000187693
0.00520967
0.000194677
0.00521008
0.000201934
0.00521069
0.000209483
0.00521153
0.00021734
0.00521262
0.000225522
0.00521399
0.000234045
0.00521566
0.000242921
0.00521769
0.000252156
0.00522009
0.000261757
0.00522292
0.000271727
0.000282065
0.00521602
0.00016245
-0.00521622
0.00521593
0.00016834
0.00521597
0.000174449
0.00521616
0.000180784
0.0052165
0.000187352
0.00521701
0.000194161
0.00521772
0.000201227
0.00521864
0.000208562
0.0052198
0.000216184
0.00522121
0.000224106
0.00522292
0.000232341
0.00522494
0.000240897
0.00522732
0.000249781
0.00523008
0.000258995
0.00523327
0.000268538
0.000278409
0.0052219
0.000162425
-0.00522187
0.00522205
0.000168191
0.00522233
0.000174163
0.00522277
0.000180347
0.00522337
0.000186749
0.00522416
0.000193376
0.00522514
0.000200241
0.00522635
0.000207355
0.0052278
0.000214734
0.00522952
0.000222388
0.00523153
0.000230329
0.00523387
0.000238562
0.00523656
0.00024709
0.00523964
0.000255914
0.00524314
0.000265031
0.000274437
0.00522765
0.000162185
-0.00522741
0.00522802
0.000167819
0.00522854
0.000173648
0.00522921
0.000179674
0.00523006
0.000185902
0.0052311
0.00019234
0.00523234
0.000198997
0.00523381
0.000205885
0.00523553
0.000213014
0.00523752
0.000220396
0.00523981
0.000228038
0.00524243
0.000235945
0.0052454
0.000244116
0.00524877
0.000252551
0.00525255
0.000261244
0.000270189
0.00523328
0.000161742
-0.00523283
0.00523386
0.000167239
0.00523459
0.000172917
0.00523548
0.000178779
0.00523656
0.000184829
0.00523783
0.000191071
0.00523931
0.000197516
0.00524102
0.000204172
0.00524298
0.000211049
0.00524523
0.000218155
0.00524777
0.000225497
0.00525064
0.000233076
0.00525386
0.000240892
0.00525747
0.00024894
0.0052615
0.000257214
0.000265704
0.00523877
-0.00523813
0.00523954
0.00524047
0.00524157
0.00524286
0.00524434
0.00524604
0.00524797
0.00525016
0.00525263
0.00525539
0.00525848
0.00526193
0.00526575
0.00526999
0.00529284
-1.0235e-07
0.00529145
2.31639e-05
0.00528745
4.3984e-05
0.00528231
5.1967e-05
0.00527715
4.25485e-05
0.00527289
2.89088e-05
0.00526959
1.84042e-05
0.00526697
1.29138e-05
0.00526474
1.13032e-05
0.00526267
1.16892e-05
0.00526064
1.27888e-05
0.00525859
1.39782e-05
0.00525649
1.50354e-05
0.00525435
1.59288e-05
0.00525214
1.66923e-05
0.00524987
1.73698e-05
0.00524753
1.79982e-05
0.00524514
1.86042e-05
0.00524267
1.92061e-05
0.00524013
1.98161e-05
0.00523751
2.04422e-05
0.00523482
2.10896e-05
0.00523204
2.17617e-05
0.00522918
2.24606e-05
0.00522622
2.31878e-05
0.00522318
2.39441e-05
0.00522003
2.47303e-05
0.00521678
2.55467e-05
0.00521343
2.63937e-05
0.00520997
2.72716e-05
0.0052064
2.81809e-05
0.00520271
2.91217e-05
0.0051989
3.00945e-05
0.00519497
3.10999e-05
0.00519091
3.21382e-05
0.00518672
3.32103e-05
0.0051824
3.43168e-05
0.00517793
3.54585e-05
0.00517333
3.66365e-05
0.00516858
3.78518e-05
0.00516368
3.91058e-05
0.00515862
4.04e-05
0.00515341
4.17359e-05
0.00514804
4.31156e-05
0.0051425
4.45412e-05
0.0051368
4.60154e-05
0.00513092
4.7541e-05
0.00512486
4.91215e-05
0.00511863
5.07605e-05
0.00511221
5.24623e-05
0.00510562
5.42304e-05
0.00509883
5.6067e-05
0.00509186
5.79707e-05
0.0050847
5.99335e-05
6.19387e-05
0.00529284
-4.79762e-08
0.00529193
2.40753e-05
0.00528858
4.73295e-05
0.00528397
5.65842e-05
0.00527896
4.75558e-05
0.00527454
3.33247e-05
0.00527095
2.19973e-05
0.00526803
1.58377e-05
0.00526554
1.37912e-05
0.00526328
1.39444e-05
0.00526113
1.49429e-05
0.005259
1.61055e-05
0.00525686
1.71752e-05
0.00525469
1.81017e-05
0.00525247
1.89096e-05
0.0052502
1.96385e-05
0.00524788
2.03234e-05
0.00524549
2.09903e-05
0.00524304
2.16571e-05
0.00524052
2.23361e-05
0.00523793
2.3035e-05
0.00523526
2.3759e-05
0.00523251
2.45116e-05
0.00522967
2.52948e-05
0.00522675
2.611e-05
0.00522374
2.69581e-05
0.00522063
2.78397e-05
0.00521742
2.87551e-05
0.00521411
2.97046e-05
0.00521069
3.06887e-05
0.00520716
3.17075e-05
0.00520353
3.27613e-05
0.00519977
3.38507e-05
0.00519589
3.49759e-05
0.00519189
3.61376e-05
0.00518777
3.73364e-05
0.00518351
3.8573e-05
0.00517912
3.98482e-05
0.00517459
4.11631e-05
0.00516993
4.25186e-05
0.00516512
4.39162e-05
0.00516016
4.53572e-05
0.00515505
4.68431e-05
0.00514979
4.83759e-05
0.00514438
4.99577e-05
0.0051388
5.15908e-05
0.00513306
5.32779e-05
0.00512716
5.50221e-05
0.0051211
5.68266e-05
0.00511486
5.86949e-05
0.00510847
6.06301e-05
0.0051019
6.26335e-05
0.00509517
6.47031e-05
0.00508827
6.68302e-05
6.89975e-05
0.00529286
-1.31841e-08
0.0052923
2.46362e-05
0.00528956
5.00693e-05
0.00528539
6.07539e-05
0.00528054
5.24018e-05
0.00527602
3.78502e-05
0.00527218
2.5834e-05
0.00526899
1.90239e-05
0.00526628
1.65009e-05
0.00526387
1.63634e-05
0.0052616
1.72082e-05
0.0052594
1.8303e-05
0.00525722
1.93559e-05
0.00525503
2.02952e-05
0.0052528
2.11335e-05
0.00525054
2.1904e-05
0.00524822
2.26384e-05
0.00524585
2.3361e-05
0.00524342
2.40887e-05
0.00524092
2.48333e-05
0.00523836
2.56022e-05
0.00523572
2.64004e-05
0.005233
2.72311e-05
0.0052302
2.80962e-05
0.00522731
2.89972e-05
0.00522433
2.99346e-05
0.00522126
3.0909e-05
0.0052181
3.19208e-05
0.00521483
3.29702e-05
0.00521146
3.40573e-05
0.00520799
3.51825e-05
0.0052044
3.6346e-05
0.00520071
3.75482e-05
0.00519689
3.87895e-05
0.00519296
4.00703e-05
0.0051889
4.13913e-05
0.00518472
4.27531e-05
0.00518042
4.41566e-05
0.00517598
4.56026e-05
0.0051714
4.70923e-05
0.00516669
4.86267e-05
0.00516184
5.02071e-05
0.00515685
5.18352e-05
0.00515171
5.35125e-05
0.00514643
5.5241e-05
0.005141
5.70226e-05
0.00513542
5.88598e-05
0.00512968
6.07551e-05
0.0051238
6.27112e-05
0.00511776
6.47309e-05
0.00511158
6.68163e-05
0.00510524
6.8968e-05
0.00509876
7.11832e-05
0.00509214
7.34533e-05
7.57615e-05
0.00529287
1.18146e-08
0.00529256
2.49454e-05
0.0052903
5.23333e-05
0.0052865
6.45479e-05
0.00528182
5.70853e-05
0.00527724
4.2431e-05
0.00527323
2.98452e-05
0.00526984
2.24113e-05
0.00526695
1.93877e-05
0.0052644
1.89171e-05
0.00526204
1.95665e-05
0.00525978
2.05599e-05
0.00525757
2.15709e-05
0.00525536
2.2505e-05
0.00525313
2.33608e-05
0.00525087
2.41636e-05
0.00524857
2.49408e-05
0.00524622
2.57138e-05
0.00524381
2.64984e-05
0.00524133
2.73052e-05
0.0052388
2.81411e-05
0.00523619
2.90107e-05
0.0052335
2.99169e-05
0.00523073
3.08615e-05
0.00522789
3.18456e-05
0.00522495
3.28697e-05
0.00522193
3.39343e-05
0.00521881
3.50396e-05
0.00521559
3.61857e-05
0.00521228
3.73727e-05
0.00520886
3.86009e-05
0.00520533
3.98704e-05
0.0052017
4.11814e-05
0.00519796
4.25344e-05
0.0051941
4.39298e-05
0.00519012
4.53681e-05
0.00518602
4.68499e-05
0.0051818
4.83759e-05
0.00517746
4.99469e-05
0.00517299
5.15639e-05
0.00516839
5.3228e-05
0.00516365
5.49402e-05
0.00515879
5.6702e-05
0.00515378
5.85147e-05
0.00514864
6.03799e-05
0.00514337
6.22994e-05
0.00513795
6.4275e-05
0.0051324
6.63087e-05
0.00512671
6.84026e-05
0.00512088
7.05585e-05
0.00511492
7.27777e-05
0.00510883
7.50599e-05
0.00510261
7.74018e-05
0.00509627
7.97947e-05
8.2223e-05
0.00529287
3.65024e-08
0.0052927
2.5112e-05
0.00529077
5.42631e-05
0.00528727
6.8053e-05
0.00528274
6.16088e-05
0.00527816
4.70104e-05
0.00527406
3.3955e-05
0.00527053
2.59315e-05
0.00526752
2.24003e-05
0.00526487
2.1571e-05
0.00526244
2.19961e-05
0.00526014
2.28627e-05
0.0052579
2.38118e-05
0.00525567
2.47255e-05
0.00525345
2.55875e-05
0.0052512
2.64144e-05
0.00524891
2.72278e-05
0.00524658
2.80464e-05
0.00524419
2.88837e-05
0.00524175
2.97491e-05
0.00523924
3.06489e-05
0.00523666
3.15871e-05
0.00523401
3.25661e-05
0.00523129
3.35874e-05
0.00522848
3.46519e-05
0.00522559
3.57599e-05
0.00522262
3.69117e-05
0.00521955
3.81074e-05
0.00521639
3.93469e-05
0.00521313
4.06303e-05
0.00520977
4.19577e-05
0.00520631
4.33291e-05
0.00520275
4.47448e-05
0.00519908
4.62049e-05
0.0051953
4.77099e-05
0.00519141
4.92602e-05
0.0051874
5.08562e-05
0.00518328
5.24986e-05
0.00517904
5.41881e-05
0.00517468
5.59255e-05
0.00517019
5.77117e-05
0.00516558
5.95476e-05
0.00516085
6.14343e-05
0.00515599
6.33729e-05
0.00515101
6.53648e-05
0.0051459
6.74111e-05
0.00514066
6.95133e-05
0.00513529
7.16728e-05
0.00512981
7.38908e-05
0.0051242
7.61684e-05
0.00511847
7.85059e-05
0.00511263
8.09021e-05
0.00510667