/*--------------------------------*- C++ -*----------------------------------*\
| =========                 |                                                 |
| \\      /  F ield         | OpenFOAM: The Open Source CFD Toolbox           |
|  \\    /   O peration     | Version:  2412                                  |
|   \\  /    A nd           | Website:  www.openfoam.com                      |
|    \\/     M anipulation  |                                                 |
\*---------------------------------------------------------------------------*/
FoamFile
{
    version     2.0;
    format      ascii;
    arch        "LSB;label=32;scalar=64";
    class       volScalarField;
    location    "29";
    object      p;
}
// * * * * * * * * * * * * * * * * * * * * * * * * * * * * * * * * * * * * * //

dimensions      [0 2 -2 0 0 0 0];

internalField   nonuniform List<scalar> 
5285
(
0.000908659
0.000908922
0.000909758
0.000911049
0.000912779
0.000914934
0.000917496
0.000920452
0.000923791
0.000927502
0.000931577
0.000936008
0.000940789
0.000945916
0.000951384
0.000957188
0.000963327
0.000969797
0.000976596
0.000983722
0.000991174
0.000998951
0.00100705
0.00101548
0.00102423
0.0010333
0.00104271
0.00105244
0.00106251
0.00107291
0.00108365
0.00109473
0.00110616
0.00111795
0.00113008
0.00114257
0.00115543
0.00116865
0.00118224
0.0011962
0.00121055
0.00122527
0.00124038
0.00125587
0.00127177
0.00128806
0.00130475
0.00132184
0.00133935
0.00135727
0.00137561
0.00139438
0.00141357
0.00143319
0.00145325
0.000908598
0.000908861
0.000909697
0.000910987
0.000912716
0.000914869
0.000917429
0.000920383
0.000923719
0.000927428
0.000931499
0.000935927
0.000940705
0.000945828
0.000951291
0.00095709
0.000963224
0.000969688
0.000976481
0.000983601
0.000991046
0.000998816
0.00100691
0.00101533
0.00102407
0.00103313
0.00104253
0.00105225
0.0010623
0.00107269
0.00108342
0.00109449
0.00110591
0.00111768
0.0011298
0.00114227
0.00115511
0.00116831
0.00118188
0.00119582
0.00121014
0.00122484
0.00123992
0.00125539
0.00127126
0.00128751
0.00130417
0.00132124
0.00133871
0.00135659
0.00137489
0.00139361
0.00141275
0.00143233
0.00145234
0.000908477
0.00090874
0.000909574
0.000910863
0.000912589
0.000914739
0.000917296
0.000920245
0.000923577
0.000927279
0.000931345
0.000935766
0.000940536
0.000945651
0.000951105
0.000956895
0.000963018
0.000969472
0.000976253
0.00098336
0.000990791
0.000998546
0.00100662
0.00101502
0.00102375
0.00103279
0.00104217
0.00105187
0.0010619
0.00107227
0.00108297
0.00109402
0.0011054
0.00111714
0.00112923
0.00114167
0.00115447
0.00116763
0.00118116
0.00119506
0.00120933
0.00122398
0.00123901
0.00125443
0.00127023
0.00128643
0.00130303
0.00132002
0.00133742
0.00135522
0.00137344
0.00139207
0.00141113
0.0014306
0.0014505
0.000908295
0.000908558
0.00090939
0.000910676
0.000912399
0.000914544
0.000917095
0.000920039
0.000923363
0.000927057
0.000931113
0.000935524
0.000940283
0.000945386
0.000950827
0.000956603
0.00096271
0.000969147
0.00097591
0.000982998
0.000990409
0.000998142
0.0010062
0.00101457
0.00102327
0.00103229
0.00104163
0.0010513
0.0010613
0.00107163
0.00108229
0.0010933
0.00110464
0.00111633
0.00112837
0.00114076
0.00115351
0.00116661
0.00118008
0.00119392
0.00120812
0.0012227
0.00123765
0.00125299
0.00126871
0.00128481
0.00130131
0.0013182
0.00133549
0.00135318
0.00137128
0.00138978
0.00140869
0.00142802
0.00144777
0.000908054
0.000908315
0.000909145
0.000910428
0.000912145
0.000914285
0.000916828
0.000919763
0.000923077
0.000926761
0.000930805
0.000935202
0.000939947
0.000945033
0.000950456
0.000956213
0.0009623
0.000968715
0.000975454
0.000982517
0.0009899
0.000997604
0.00100563
0.00101397
0.00102263
0.00103161
0.00104092
0.00105054
0.0010605
0.00107078
0.00108139
0.00109234
0.00110363
0.00111526
0.00112724
0.00113956
0.00115223
0.00116526
0.00117865
0.0011924
0.00120651
0.00122099
0.00123584
0.00125107
0.00126667
0.00128266
0.00129903
0.00131578
0.00133293
0.00135047
0.0013684
0.00138673
0.00140547
0.0014246
0.00144414
0.000907752
0.000908012
0.00090884
0.000910118
0.000911829
0.000913961
0.000916495
0.000919419
0.000922721
0.000926391
0.00093042
0.0009348
0.000939526
0.000944592
0.000949994
0.000955727
0.000961788
0.000968175
0.000974885
0.000981916
0.000989266
0.000996933
0.00100492
0.00101322
0.00102184
0.00103077
0.00104002
0.0010496
0.0010595
0.00106972
0.00108027
0.00109115
0.00110237
0.00111393
0.00112582
0.00113806
0.00115064
0.00116358
0.00117686
0.0011905
0.0012045
0.00121887
0.00123359
0.00124869
0.00126415
0.00127998
0.00129619
0.00131278
0.00132975
0.0013471
0.00136483
0.00138295
0.00140146
0.00142036
0.00143964
0.00090739
0.00090765
0.000908473
0.000909746
0.00091145
0.000913572
0.000916096
0.000919008
0.000922295
0.000925948
0.000929959
0.000934319
0.000939023
0.000944064
0.00094944
0.000955144
0.000961175
0.000967529
0.000974204
0.000981196
0.000988506
0.00099613
0.00100407
0.00101232
0.00102088
0.00102976
0.00103896
0.00104847
0.0010583
0.00106845
0.00107893
0.00108973
0.00110086
0.00111233
0.00112413
0.00113627
0.00114874
0.00116156
0.00117473
0.00118824
0.00120211
0.00121633
0.00123091
0.00124584
0.00126113
0.00127679
0.00129281
0.0013092
0.00132596
0.00134308
0.00136058
0.00137845
0.00139669
0.00141531
0.00143429
0.00147381
0.00149508
0.00151726
0.00154039
0.00156453
0.00158974
0.00161608
0.00164363
0.00167245
0.00170264
0.00173427
0.00176744
0.00180225
0.00183882
0.00187726
0.00191771
0.00147287
0.00149414
0.00151631
0.00153944
0.00156358
0.00158879
0.00161513
0.00164267
0.00167149
0.00170167
0.0017333
0.00176646
0.00180126
0.00183782
0.00187625
0.00191668
0.00147098
0.00149226
0.00151443
0.00153755
0.00156168
0.00158688
0.00161322
0.00164075
0.00166957
0.00169974
0.00173135
0.0017645
0.00179928
0.00183581
0.00187421
0.0019146
0.00146817
0.00148943
0.00151159
0.00153471
0.00155883
0.00158402
0.00161035
0.00163787
0.00166667
0.00169682
0.00172841
0.00176153
0.00179628
0.00183278
0.00187112
0.00191145
0.00146443
0.00148569
0.00150784
0.00153095
0.00155506
0.00158025
0.00160656
0.00163408
0.00166286
0.001693
0.00172457
0.00175766
0.00179238
0.00182883
0.00186712
0.00190738
0.00145978
0.00148105
0.00150321
0.00152633
0.00155047
0.00157567
0.00160201
0.00162955
0.00165837
0.00168854
0.00172015
0.00175328
0.00178803
0.00182451
0.00186284
0.00190312
0.00145422
0.00147542
0.00149753
0.0015206
0.00154469
0.00156985
0.00159614
0.00162364
0.00165242
0.00168254
0.0017141
0.00174719
0.0017819
0.00181833
0.00185659
0.00189682
0.0014476
0.00146843
0.00149015
0.00151279
0.00153642
0.00156107
0.00158681
0.00161369
0.00164179
0.00167116
0.00170189
0.00173405
0.00176772
0.001803
0.00183997
0.00187874
0.00143985
0.00146024
0.00148148
0.0015036
0.00152665
0.00155069
0.00157576
0.00160192
0.00162922
0.00165773
0.00168752
0.00171864
0.00175118
0.00178521
0.00182081
0.00185806
0.0014312
0.00145106
0.00147173
0.00149323
0.00151562
0.00153894
0.00156322
0.00158853
0.00161491
0.00164241
0.0016711
0.00170102
0.00173224
0.00176482
0.00179883
0.00183433
0.00142169
0.00144098
0.00146103
0.00148187
0.00150354
0.00152608
0.00154952
0.0015739
0.00159928
0.0016257
0.00165319
0.00168182
0.00171162
0.00174265
0.00177496
0.00180859
0.00141137
0.00143006
0.00144945
0.00146958
0.00149048
0.00151218
0.00153473
0.00155814
0.00158246
0.00160772
0.00163397
0.00166123
0.00168954
0.00171895
0.00174947
0.00178115
0.0014003
0.00141833
0.00143702
0.0014564
0.00147649
0.00149732
0.00151891
0.0015413
0.00156451
0.00158857
0.0016135
0.00163934
0.0016661
0.00169382
0.00172249
0.00175215
0.0013885
0.00140585
0.00142381
0.0014424
0.00146164
0.00148155
0.00150216
0.00152348
0.00154553
0.00156834
0.00159192
0.00161628
0.00164145
0.00166742
0.0016942
0.00172179
0.00137603
0.00139268
0.00140988
0.00142765
0.001446
0.00146497
0.00148455
0.00150477
0.00152563
0.00154715
0.00156934
0.00159219
0.00161572
0.00163992
0.00166477
0.00169027
0.00136295
0.00137886
0.00139527
0.0014122
0.00142965
0.00144764
0.00146617
0.00148526
0.0015049
0.00152511
0.00154588
0.00156721
0.00158908
0.00161148
0.0016344
0.00165779
0.0013493
0.00136445
0.00138006
0.00139612
0.00141264
0.00142964
0.0014471
0.00146504
0.00148345
0.00150233
0.00152167
0.00154145
0.00156166
0.00158227
0.00160325
0.00162455
0.00133513
0.00134952
0.0013643
0.00137948
0.00139506
0.00141105
0.00142743
0.00144421
0.00146138
0.00147892
0.00149682
0.00151506
0.00153361
0.00155244
0.00157149
0.00159072
0.0013205
0.0013341
0.00134805
0.00136234
0.00137697
0.00139194
0.00140724
0.00142285
0.00143877
0.00145498
0.00147145
0.00148816
0.00150507
0.00152213
0.00153929
0.00155648
0.00130545
0.00131827
0.00133137
0.00134477
0.00135845
0.0013724
0.00138661
0.00140106
0.00141574
0.00143062
0.00144568
0.00146087
0.00147615
0.00149148
0.00150678
0.00152199
0.00129004
0.00130206
0.00131433
0.00132683
0.00133955
0.00135248
0.00136561
0.00137891
0.00139236
0.00140594
0.00141959
0.00143329
0.00144699
0.00146062
0.00147412
0.00148741
0.00127431
0.00128554
0.00129697
0.00130858
0.00132035
0.00133228
0.00134433
0.00135649
0.00136873
0.00138102
0.0013933
0.00140555
0.00141769
0.00142968
0.00144143
0.00145286
0.00125832
0.00126876
0.00127935
0.00129007
0.00130091
0.00131184
0.00132284
0.00133388
0.00134493
0.00135595
0.0013669
0.00137773
0.00138837
0.00139876
0.00140883
0.00141848
0.00124211
0.00125177
0.00126153
0.00127138
0.00128129
0.00129123
0.0013012
0.00131114
0.00132103
0.00133083
0.00134048
0.00134993
0.00135912
0.00136798
0.00137643
0.00138438
0.00122572
0.00123461
0.00124355
0.00125254
0.00126154
0.00127053
0.00127948
0.00128835
0.00129711
0.00130571
0.00131411
0.00132223
0.00133003
0.00133742
0.00134433
0.00135066
0.00120919
0.00121732
0.00122547
0.00123361
0.00124172
0.00124977
0.00125773
0.00126557
0.00127323
0.00128068
0.00128787
0.00129472
0.00130118
0.00130718
0.00131262
0.00131741
0.00119258
0.00119996
0.00120732
0.00121464
0.00122188
0.00122902
0.00123602
0.00124285
0.00124946
0.0012558
0.00126182
0.00126746
0.00127265
0.00127731
0.00128136
0.00128471
0.00117591
0.00118257
0.00118916
0.00119567
0.00120207
0.00120833
0.0012144
0.00122026
0.00122585
0.00123113
0.00123604
0.00124052
0.00124449
0.0012479
0.00125064
0.00125263
0.00115923
0.00116517
0.00117102
0.00117675
0.00118234
0.00118774
0.00119292
0.00119784
0.00120246
0.00120672
0.00121057
0.00121394
0.00121677
0.00121899
0.0012205
0.00122122
0.00114257
0.00114782
0.00115294
0.00115792
0.00116271
0.00116729
0.00117161
0.00117564
0.00117932
0.00118262
0.00118546
0.00118779
0.00118954
0.00119064
0.001191
0.00119053
0.00112595
0.00113053
0.00113496
0.00113921
0.00114324
0.00114703
0.00115052
0.0011537
0.00115649
0.00115886
0.00116075
0.0011621
0.00116283
0.00116288
0.00116217
0.00116061
0.00110942
0.00111335
0.00111711
0.00112065
0.00112395
0.00112698
0.00112969
0.00113205
0.001134
0.0011355
0.00113649
0.00113691
0.00113669
0.00113577
0.00113406
0.00113148
0.001093
0.0010963
0.00109941
0.00110228
0.00110488
0.00110718
0.00110914
0.00111072
0.00111188
0.00111255
0.0011127
0.00111225
0.00111114
0.00110931
0.00110667
0.00110316
0.00107671
0.00107941
0.00108189
0.00108411
0.00108605
0.00108766
0.00108891
0.00108976
0.00109016
0.00109006
0.0010894
0.00108814
0.00108621
0.00108353
0.00108005
0.00107567
0.00106058
0.0010627
0.00106458
0.00106619
0.00106749
0.00106844
0.00106902
0.00106917
0.00106886
0.00106803
0.00106663
0.00106461
0.00106191
0.00105846
0.00105419
0.00104903
0.00104462
0.00104619
0.0010475
0.00104852
0.00104921
0.00104955
0.00104948
0.00104898
0.001048
0.00104649
0.0010444
0.00104168
0.00103827
0.0010341
0.00102911
0.00102323
0.00102886
0.00102991
0.00103067
0.00103113
0.00103125
0.00103099
0.00103033
0.00102921
0.0010276
0.00102546
0.00102272
0.00101935
0.00101528
0.00101046
0.00100481
0.000998286
0.000906957
0.000907217
0.000908036
0.000909302
0.000910998
0.000913109
0.00091562
0.000918516
0.000921786
0.00092542
0.000929409
0.000933745
0.000938422
0.000943435
0.000948779
0.00095445
0.000960444
0.000966759
0.000973392
0.000980339
0.0009876
0.000995173
0.00100306
0.00101125
0.00101975
0.00102856
0.00103769
0.00104713
0.00105688
0.00106695
0.00107733
0.00108804
0.00109907
0.00111043
0.00112212
0.00113413
0.00114648
0.00115917
0.00117219
0.00118556
0.00119927
0.00121332
0.00122771
0.00124246
0.00125755
0.001273
0.0012888
0.00130495
0.00132146
0.00133832
0.00135554
0.00137312
0.00139106
0.00140935
0.00142799
0.00090645
0.000906709
0.000907522
0.000908781
0.000910467
0.000912565
0.000915061
0.000917939
0.000921189
0.0009248
0.000928763
0.000933071
0.000937717
0.000942697
0.000948004
0.000953636
0.000959587
0.000965856
0.000972439
0.000979334
0.000986538
0.00099405
0.00100187
0.00100999
0.00101842
0.00102716
0.0010362
0.00104555
0.00105521
0.00106518
0.00107546
0.00108606
0.00109697
0.00110821
0.00111976
0.00113164
0.00114384
0.00115637
0.00116923
0.00118242
0.00119594
0.0012098
0.00122399
0.00123851
0.00125338
0.00126858
0.00128412
0.0013
0.00131622
0.00133278
0.00134968
0.00136692
0.0013845
0.00140241
0.00142066
0.000905879
0.000906135
0.000906943
0.000908194
0.000909868
0.000911952
0.00091443
0.000917289
0.000920516
0.000924101
0.000928035
0.000932311
0.000936923
0.000941865
0.000947131
0.000952718
0.000958622
0.000964839
0.000971366
0.000978202
0.000985343
0.000992787
0.00100053
0.00100858
0.00101693
0.00102558
0.00103453
0.00104378
0.00105333
0.00106319
0.00107336
0.00108383
0.00109462
0.00110571
0.00111712
0.00112884
0.00114088
0.00115323
0.00116591
0.0011789
0.00119222
0.00120585
0.00121981
0.00123409
0.0012487
0.00126363
0.00127888
0.00129446
0.00131036
0.00132658
0.00134313
0.00135999
0.00137717
0.00139467
0.00141249
0.000905242
0.000905497
0.000906299
0.00090754
0.000909201
0.00091127
0.000913729
0.000916565
0.000919767
0.000923323
0.000927226
0.000931467
0.00093604
0.00094094
0.00094616
0.000951698
0.000957548
0.000963708
0.000970175
0.000976944
0.000984015
0.000991385
0.000999051
0.00100701
0.00101527
0.00102382
0.00103267
0.00104181
0.00105125
0.00106099
0.00107103
0.00108136
0.001092
0.00110294
0.00111419
0.00112574
0.00113759
0.00114976
0.00116223
0.00117501
0.0011881
0.00120149
0.0012152
0.00122921
0.00124354
0.00125817
0.00127311
0.00128835
0.0013039
0.00131975
0.00133591
0.00135236
0.00136912
0.00138616
0.0014035
0.000904542
0.000904795
0.00090559
0.000906821
0.000908468
0.000910519
0.000912958
0.000915769
0.000918943
0.000922468
0.000926336
0.000930538
0.000935069
0.000939923
0.000945094
0.000950577
0.000956369
0.000962467
0.000968866
0.000975563
0.000982557
0.000989844
0.000997424
0.00100529
0.00101345
0.0010219
0.00103063
0.00103966
0.00104897
0.00105858
0.00106847
0.00107866
0.00108914
0.00109991
0.00111098
0.00112235
0.001134
0.00114596
0.00115821
0.00117075
0.00118359
0.00119673
0.00121016
0.00122388
0.0012379
0.00125221
0.00126681
0.00128169
0.00129687
0.00131232
0.00132806
0.00134407
0.00136036
0.00137692
0.00139374
0.000903779
0.00090403
0.000904817
0.000906037
0.000907669
0.000909701
0.000912116
0.000914902
0.000918045
0.000921536
0.000925366
0.000929527
0.000934012
0.000938815
0.000943932
0.000949357
0.000955086
0.000961115
0.000967441
0.000974061
0.000980971
0.000988169
0.000995653
0.00100342
0.00101147
0.00101981
0.00102842
0.00103732
0.0010465
0.00105596
0.0010657
0.00107573
0.00108604
0.00109663
0.00110751
0.00111867
0.00113011
0.00114184
0.00115385
0.00116615
0.00117872
0.00119158
0.00120471
0.00121813
0.00123181
0.00124578
0.00126001
0.00127451
0.00128928
0.00130431
0.0013196
0.00133514
0.00135093
0.00136697
0.00138325
0.000902953
0.000903201
0.000903981
0.000905188
0.000906804
0.000908816
0.000911206
0.000913963
0.000917073
0.000920528
0.000924317
0.000928432
0.000932868
0.000937618
0.000942676
0.000948038
0.000953699
0.000959655
0.000965902
0.000972438
0.000979259
0.000986361
0.000993743
0.0010014
0.00100934
0.00101755
0.00102604
0.00103479
0.00104383
0.00105313
0.00106271
0.00107257
0.00108269
0.00109309
0.00110377
0.00111471
0.00112593
0.00113742
0.00114917
0.0011612
0.00117349
0.00118605
0.00119887
0.00121195
0.00122529
0.00123889
0.00125273
0.00126683
0.00128117
0.00129575
0.00131056
0.00132561
0.00134088
0.00135637
0.00137208
0.000902064
0.00090231
0.000903081
0.000904276
0.000905874
0.000907864
0.000910228
0.000912954
0.00091603
0.000919445
0.00092319
0.000927257
0.00093164
0.000936332
0.000941328
0.000946622
0.00095221
0.000958088
0.000964252
0.000970698
0.000977422
0.000984423
0.000991696
0.00099924
0.00100705
0.00101513
0.00102348
0.00103209
0.00104097
0.00105011
0.00105952
0.00106919
0.00107912
0.00108931
0.00109977
0.00111049
0.00112146
0.00113269
0.00114418
0.00115593
0.00116792
0.00118016
0.00119265
0.00120538
0.00121835
0.00123156
0.001245
0.00125867
0.00127256
0.00128667
0.00130099
0.00131551
0.00133024
0.00134516
0.00136026
0.000901115
0.000901357
0.000902119
0.0009033
0.00090488
0.000906846
0.000909183
0.000911876
0.000914914
0.000918287
0.000921986
0.000926002
0.000930328
0.000934959
0.000939888
0.000945111
0.000950621
0.000956416
0.000962491
0.000968842
0.000975464
0.000982356
0.000989514
0.000996936
0.00100462
0.00101256
0.00102076
0.00102922
0.00103793
0.0010469
0.00105612
0.0010656
0.00107532
0.0010853
0.00109553
0.001106
0.00111672
0.00112769
0.00113889
0.00115034
0.00116202
0.00117393
0.00118607
0.00119844
0.00121102
0.00122383
0.00123684
0.00125006
0.00126348
0.0012771
0.0012909
0.00130488
0.00131904
0.00133337
0.00134785
0.000900104
0.000900344
0.000901096
0.000902262
0.000903822
0.000905764
0.000908071
0.000910729
0.000913728
0.000917057
0.000920706
0.000924668
0.000928935
0.000933501
0.000938359
0.000943506
0.000948935
0.000954642
0.000960622
0.000966872
0.000973388
0.000980165
0.000987201
0.000994493
0.00100204
0.00100984
0.00101788
0.00102617
0.00103472
0.0010435
0.00105253
0.0010618
0.00107131
0.00108106
0.00109105
0.00110127
0.00111172
0.00112241
0.00113332
0.00114445
0.0011558
0.00116737
0.00117915
0.00119113
0.00120332
0.0012157
0.00122827
0.00124103
0.00125396
0.00126707
0.00128034
0.00129376
0.00130733
0.00132105
0.00133489
0.000899033
0.00089927
0.000900013
0.000901163
0.000902702
0.000904618
0.000906893
0.000909515
0.000912472
0.000915754
0.000919351
0.000923256
0.00092746
0.000931958
0.000936742
0.000941809
0.000947152
0.000952766
0.000958648
0.000964792
0.000971195
0.000977852
0.00098476
0.000991916
0.000999317
0.00100696
0.00101485
0.00102297
0.00103133
0.00103992
0.00104875
0.0010578
0.00106709
0.0010766
0.00108634
0.0010963
0.00110647
0.00111687
0.00112747
0.00113828
0.00114929
0.0011605
0.0011719
0.00118349
0.00119526
0.0012072
0.00121932
0.0012316
0.00124403
0.00125661
0.00126933
0.00128218
0.00129516
0.00130824
0.00132143
0.000897903
0.000898136
0.000898869
0.000900003
0.00090152
0.000903408
0.000905651
0.000908235
0.000911148
0.000914381
0.000917923
0.000921768
0.000925906
0.000930332
0.000935039
0.000940022
0.000945275
0.000950793
0.000956571
0.000962604
0.000968889
0.00097542
0.000982194
0.000989208
0.000996459
0.00100394
0.00101166
0.0010196
0.00102777
0.00103617
0.00104478
0.00105362
0.00106267
0.00107194
0.00108141
0.0010911
0.00110099
0.00111107
0.00112136
0.00113183
0.00114249
0.00115333
0.00116434
0.00117552
0.00118687
0.00119837
0.00121001
0.0012218
0.00123372
0.00124576
0.00125792
0.00127019
0.00128255
0.00129499
0.00130751
0.000896715
0.000896945
0.000897666
0.000898783
0.000900277
0.000902137
0.000904345
0.000906889
0.000909756
0.000912938
0.000916423
0.000920205
0.000924274
0.000928626
0.000933252
0.000938147
0.000943306
0.000948722
0.000954392
0.00096031
0.000966472
0.000972872
0.000979507
0.000986373
0.000993467
0.00100079
0.00100832
0.00101608
0.00102406
0.00103224
0.00104064
0.00104925
0.00105806
0.00106707
0.00107628
0.00108568
0.00109527
0.00110504
0.001115
0.00112513
0.00113542
0.00114588
0.0011565
0.00116726
0.00117817
0.00118921
0.00120038
0.00121166
0.00122306
0.00123456
0.00124614
0.00125781
0.00126955
0.00128134
0.00129319
0.000895469
0.000895695
0.000896405
0.000897504
0.000898975
0.000900804
0.000902976
0.000905478
0.000908298
0.000911426
0.000914852
0.000918568
0.000922566
0.00092684
0.000931381
0.000936185
0.000941246
0.000946558
0.000952116
0.000957914
0.000963947
0.000970212
0.000976702
0.000983415
0.000990346
0.000997493
0.00100485
0.00101242
0.00102019
0.00102816
0.00103633
0.0010447
0.00105326
0.00106201
0.00107094
0.00108005
0.00108934
0.00109879
0.00110841
0.00111818
0.00112811
0.00113818
0.00114839
0.00115873
0.00116919
0.00117976
0.00119044
0.00120122
0.00121208
0.00122302
0.00123403
0.00124509
0.0012562
0.00126734
0.00127851
0.000894167
0.000894389
0.000895087
0.000896168
0.000897613
0.000899411
0.000901546
0.000904005
0.000906775
0.000909848
0.000913212
0.00091686
0.000920784
0.000924976
0.00092943
0.00093414
0.000939099
0.000944302
0.000949744
0.000955417
0.000961319
0.000967442
0.000973783
0.000980338
0.000987101
0.00099407
0.00100124
0.00100861
0.00101617
0.00102392
0.00103186
0.00103999
0.00104829
0.00105677
0.00106542
0.00107423
0.0010832
0.00109233
0.0011016
0.00111101
0.00112056
0.00113023
0.00114003
0.00114993
0.00115994
0.00117004
0.00118022
0.00119048
0.00120081
0.00121119
0.00122161
0.00123206
0.00124254
0.00125303
0.00126351
0.000892808
0.000893027
0.000893712
0.000894774
0.000896194
0.00089796
0.000900056
0.000902469
0.000905189
0.000908203
0.000911504
0.000915081
0.000918928
0.000923036
0.0009274
0.000932012
0.000936867
0.000941957
0.000947278
0.000952824
0.000958589
0.000964567
0.000970754
0.000977145
0.000983736
0.000990522
0.000997499
0.00100466
0.00101201
0.00101954
0.00102724
0.00103511
0.00104315
0.00105136
0.00105971
0.00106822
0.00107687
0.00108566
0.00109458
0.00110363
0.00111279
0.00112206
0.00113144
0.0011409
0.00115045
0.00116007
0.00116975
0.00117949
0.00118928
0.00119909
0.00120893
0.00121877
0.00122862
0.00123844
0.00124825
0.000891395
0.00089161
0.000892283
0.000893325
0.000894718
0.00089645
0.000898506
0.000900873
0.000903539
0.000906494
0.000909729
0.000913233
0.000917001
0.000921023
0.000925293
0.000929805
0.000934551
0.000939526
0.000944723
0.000950137
0.000955761
0.00096159
0.000967619
0.000973842
0.000980255
0.000986854
0.000993633
0.00100059
0.00100772
0.00101501
0.00102247
0.00103009
0.00103786
0.00104578
0.00105384
0.00106204
0.00107037
0.00107881
0.00108738
0.00109605
0.00110483
0.00111369
0.00112264
0.00113166
0.00114074
0.00114988
0.00115906
0.00116828
0.00117751
0.00118676
0.00119601
0.00120525
0.00121446
0.00122363
0.00123276
0.000889929
0.000890139
0.000890799
0.00089182
0.000893186
0.000894884
0.000896898
0.000899217
0.000901829
0.000904723
0.000907889
0.000911319
0.000915004
0.000918937
0.000923112
0.00092752
0.000932155
0.000937011
0.000942081
0.000947359
0.000952839
0.000958515
0.000964381
0.000970432
0.000976664
0.00098307
0.000989647
0.00099639
0.00100329
0.00101035
0.00101756
0.00102492
0.00103242
0.00104005
0.00104781
0.00105569
0.00106369
0.0010718
0.00108
0.00108829
0.00109667
0.00110513
0.00111364
0.00112222
0.00113084
0.00113949
0.00114817
0.00115686
0.00116555
0.00117423
0.0011829
0.00119153
0.00120011
0.00120863
0.00121708
0.00088841
0.000888616
0.000889262
0.000890262
0.000891599
0.000893262
0.000895234
0.000897504
0.000900059
0.000902889
0.000905986
0.000909338
0.00091294
0.000916782
0.000920857
0.000925159
0.00092968
0.000934414
0.000939354
0.000944493
0.000949825
0.000955344
0.000961045
0.000966921
0.000972966
0.000979177
0.000985547
0.000992072
0.000998747
0.00100557
0.00101253
0.00101962
0.00102684
0.00103418
0.00104163
0.0010492
0.00105686
0.00106462
0.00107246
0.00108037
0.00108835
0.00109639
0.00110448
0.0011126
0.00112075
0.00112892
0.0011371
0.00114526
0.00115341
0.00116154
0.00116962
0.00117764
0.0011856
0.00119348
0.00120127
0.000886839
0.00088704
0.000887673
0.000888651
0.000889959
0.000891585
0.000893514
0.000895733
0.000898231
0.000900996
0.000904021
0.000907294
0.00091081
0.000914558
0.000918532
0.000922725
0.00092713
0.000931739
0.000936545
0.000941543
0.000946724
0.000952083
0.000957614
0.000963311
0.000969168
0.000975179
0.000981339
0.000987643
0.000994086
0.00100066
0.00100736
0.00101419
0.00102113
0.00102817
0.00103532
0.00104256
0.00104989
0.00105729
0.00106477
0.0010723
0.00107988
0.00108751
0.00109516
0.00110284
0.00111052
0.0011182
0.00112587
0.00113352
0.00114113
0.00114869
0.0011562
0.00116363
0.00117097
0.00117822
0.00118535
0.000885218
0.000885415
0.000886033
0.000886989
0.000888267
0.000889856
0.00089174
0.000893907
0.000896345
0.000899045
0.000901996
0.000905189
0.000908616
0.000912268
0.000916139
0.000920221
0.000924506
0.000928988
0.000933658
0.000938511
0.000943539
0.000948735
0.000954094
0.000959608
0.000965273
0.000971081
0.000977028
0.000983108
0.000989315
0.000995643
0.00100209
0.00100864
0.00101529
0.00102204
0.00102888
0.0010358
0.00104279
0.00104984
0.00105694
0.00106409
0.00107127
0.00107848
0.00108571
0.00109293
0.00110015
0.00110735
0.00111453
0.00112165
0.00112873
0.00113574
0.00114267
0.00114951
0.00115625
0.00116287
0.00116936
0.000883548
0.00088374
0.000884343
0.000885277
0.000886524
0.000888075
0.000889913
0.000892027
0.000894405
0.000897036
0.000899912
0.000903023
0.000906359
0.000909915
0.00091368
0.000917649
0.000921812
0.000926164
0.000930696
0.000935402
0.000940273
0.000945304
0.000950487
0.000955817
0.000961286
0.000966889
0.00097262
0.000978473
0.000984442
0.00099052
0.000996702
0.00100298
0.00100935
0.0010158
0.00102232
0.00102891
0.00103556
0.00104226
0.001049
0.00105576
0.00106255
0.00106934
0.00107613
0.00108292
0.00108967
0.0010964
0.00110307
0.00110969
0.00111624
0.0011227
0.00112907
0.00113533
0.00114147
0.00114748
0.00115335
0.000881829
0.000882016
0.000882605
0.000883515
0.000884732
0.000886243
0.000888035
0.000890094
0.000892411
0.000894973
0.000897772
0.000900798
0.000904043
0.000907499
0.000911157
0.00091501
0.000919051
0.00092327
0.000927662
0.000932217
0.00093693
0.000941793
0.000946799
0.000951941
0.000957213
0.000962608
0.000968121
0.000973744
0.000979473
0.000985299
0.000991218
0.000997221
0.0010033
0.00100945
0.00101566
0.00102193
0.00102823
0.00103458
0.00104095
0.00104733
0.00105372
0.0010601
0.00106646
0.0010728
0.0010791
0.00108535
0.00109153
0.00109765
0.00110367
0.0011096
0.00111542
0.00112111
0.00112667
0.00113208
0.00113733
0.000880064
0.000880246
0.000880819
0.000881706
0.000882891
0.000884362
0.000886106
0.000888111
0.000890364
0.000892856
0.000895577
0.000898518
0.000901669
0.000905024
0.000908573
0.000912309
0.000916223
0.000920309
0.000924558
0.000928962
0.000933514
0.000938207
0.000943033
0.000947986
0.000953058
0.000958243
0.000963535
0.000968928
0.000974414
0.000979988
0.000985641
0.000991367
0.000997159
0.00100301
0.00100891
0.00101484
0.00102081
0.0010268
0.0010328
0.0010388
0.00104479
0.00105077
0.00105671
0.00106261
0.00106845
0.00107423
0.00107994
0.00108555
0.00109106
0.00109646
0.00110174
0.00110688
0.00111187
0.00111669
0.00112135
0.000878252
0.00087843
0.000878988
0.00087985
0.000881003
0.000882434
0.000884129
0.000886077
0.000888267
0.000890687
0.000893329
0.000896182
0.000899239
0.000902491
0.000905929
0.000909546
0.000913334
0.000917284
0.000921388
0.000925639
0.000930028
0.000934549
0.000939194
0.000943955
0.000948826
0.0009538
0.00095887
0.00096403
0.000969273
0.000974592
0.00097998
0.000985429
0.000990931
0.000996478
0.00100206
0.00100767
0.0010133
0.00101894
0.00102457
0.0010302
0.0010358
0.00104136
0.00104688
0.00105235
0.00105775
0.00106307
0.00106829
0.00107342
0.00107843
0.00108332
0.00108806
0.00109266
0.00109709
0.00110135
0.00110542
0.000876397
0.000876569
0.000877111
0.000877949
0.000879069
0.000880458
0.000882105
0.000883996
0.00088612
0.000888468
0.000891029
0.000893794
0.000896755
0.000899903
0.000903229
0.000906726
0.000910384
0.000914197
0.000918155
0.000922251
0.000926476
0.000930824
0.000935285
0.000939854
0.000944522
0.000949284
0.000954131
0.000959057
0.000964056
0.00096912
0.000974242
0.000979413
0.000984626
0.000989873
0.000995143
0.00100043
0.00100572
0.00101101
0.00101628
0.00102153
0.00102674
0.0010319
0.00103701
0.00104205
0.00104701
0.00105187
0.00105663
0.00106128
0.0010658
0.00107018
0.00107441
0.00107847
0.00108237
0.00108608
0.00108959
0.000874498
0.000874665
0.000875191
0.000876004
0.00087709
0.000878438
0.000880035
0.000881868
0.000883926
0.0008862
0.00088868
0.000891356
0.000894219
0.000897261
0.000900474
0.000903849
0.000907377
0.000911051
0.000914862
0.000918802
0.000922862
0.000927034
0.000931312
0.000935686
0.000940151
0.000944699
0.000949323
0.000954015
0.000958769
0.000963578
0.000968434
0.000973328
0.000978253
0.000983199
0.000988159
0.000993122
0.000998078
0.00100302
0.00100793
0.00101281
0.00101763
0.0010224
0.0010271
0.00103172
0.00103624
0.00104066
0.00104497
0.00104914
0.00105318
0.00105707
0.0010608
0.00106435
0.00106772
0.0010709
0.00107387
0.000872557
0.000872719
0.000873229
0.000874017
0.000875069
0.000876375
0.000877921
0.000879695
0.000881687
0.000883886
0.000886283
0.000888869
0.000891633
0.000894569
0.000897667
0.000900919
0.000904316
0.00090785
0.000911513
0.000915295
0.000919188
0.000923185
0.000927277
0.000931457
0.000935718
0.000940052
0.000944451
0.00094891
0.000953419
0.000957973
0.000962563
0.000967181
0.000971819
0.000976467
0.000981117
0.000985759
0.000990384
0.00099498
0.000999538
0.00100405
0.0010085
0.00101287
0.00101717
0.00102137
0.00102547
0.00102946
0.00103331
0.00103703
0.0010406
0.00104401
0.00104725
0.00105031
0.00105317
0.00105583
0.00105828
0.000870575
0.000870732
0.000871226
0.000871988
0.000873006
0.000874269
0.000875764
0.000877479
0.000879403
0.000881527
0.000883841
0.000886335
0.000889
0.000891828
0.000894811
0.000897939
0.000901204
0.000904597
0.00090811
0.000911733
0.000915459
0.00091928
0.000923186
0.000927171
0.000931227
0.000935347
0.000939522
0.000943746
0.000948012
0.000952312
0.000956637
0.00096098
0.000965332
0.000969685
0.000974028
0.000978352
0.000982648
0.000986904
0.000991111
0.000995258
0.000999335
0.00100333
0.00100723
0.00101103
0.00101471
0.00101827
0.00102169
0.00102497
0.00102808
0.00103103
0.00103379
0.00103637
0.00103874
0.00104091
0.00104285
0.000879124
0.000881354
0.000883756
0.000886321
0.000889041
0.000891907
0.00089491
0.000898042
0.000901294
0.000904656
0.000908121