/*--------------------------------*- C++ -*----------------------------------*\
| =========                 |                                                 |
| \\      /  F ield         | OpenFOAM: The Open Source CFD Toolbox           |
|  \\    /   O peration     | Version:  2412                                  |
|   \\  /    A nd           | Website:  www.openfoam.com                      |
|    \\/     M anipulation  |                                                 |
\*---------------------------------------------------------------------------*/
FoamFile
{
    version     2.0;
    format      ascii;
    arch        "LSB;label=32;scalar=64";
    class       volScalarField;
    location    "28.5";
    object      p;
}
// * * * * * * * * * * * * * * * * * * * * * * * * * * * * * * * * * * * * * //

dimensions      [0 2 -2 0 0 0 0];

internalField   nonuniform List<scalar> 
5285
(
-6.16326e-06
-5.26065e-06
-4.44805e-06
-3.71919e-06
-3.06802e-06
-2.4887e-06
-1.97563e-06
-1.52349e-06
-1.12717e-06
-7.81864e-07
-4.82999e-07
-2.26271e-07
-7.6373e-09
1.7669e-07
3.30244e-07
4.56313e-07
5.57945e-07
6.37959e-07
6.98946e-07
7.43291e-07
7.73171e-07
7.90569e-07
7.97292e-07
7.94968e-07
7.85068e-07
7.68904e-07
7.47652e-07
7.22357e-07
6.93937e-07
6.63203e-07
6.30863e-07
5.97518e-07
5.63722e-07
5.29868e-07
4.96429e-07
4.63551e-07
4.31779e-07
4.00809e-07
3.71673e-07
3.43013e-07
3.17368e-07
2.90787e-07
2.69715e-07
2.44071e-07
2.294e-07
2.02119e-07
1.97167e-07
1.6355e-07
1.73943e-07
1.26538e-07
1.60641e-07
8.93391e-08
1.57492e-07
5.12903e-08
1.62941e-07
1.41127e-08
1.72692e-07
-1.75484e-08
1.80165e-07
-3.81012e-08
1.80306e-07
-4.64859e-08
1.76485e-07
-5.2733e-08
1.84286e-07
-7.67011e-08
2.25018e-07
-1.40029e-07
3.26039e-07
-2.78191e-07
5.32448e-07
-5.66554e-06
-4.79021e-06
-4.00451e-06
-3.30194e-06
-2.67631e-06
-2.12171e-06
-1.63247e-06
-1.20319e-06
-8.28736e-07
-5.04265e-07
-2.25193e-07
1.27879e-08
2.13714e-07
3.81357e-07
5.19229e-07
6.30591e-07
7.18458e-07
7.85616e-07
8.34618e-07
8.67807e-07
8.87321e-07
8.95103e-07
8.92917e-07
8.82352e-07
8.64836e-07
8.41646e-07
8.13917e-07
7.82659e-07
7.48756e-07
7.12983e-07
6.76021e-07
6.38436e-07
6.00757e-07
5.63349e-07
5.26662e-07
4.90815e-07
4.5634e-07
4.22896e-07
3.91525e-07
3.60805e-07
3.33331e-07
3.05025e-07
2.82492e-07
2.55373e-07
2.39592e-07
2.10995e-07
2.05292e-07
1.70417e-07
1.80444e-07
1.31743e-07
1.65883e-07
9.31876e-08
1.61753e-07
5.40723e-08
1.66414e-07
1.60948e-08
1.75543e-07
-1.61985e-08
1.82664e-07
-3.74497e-08
1.82964e-07
-4.6916e-08
1.80071e-07
-5.48181e-08
1.89616e-07
-8.09442e-08
2.32847e-07
-1.46942e-07
3.37576e-07
-2.89087e-07
5.5071e-07
-5.14915e-06
-4.30316e-06
-3.54628e-06
-2.87171e-06
-2.27318e-06
-1.7447e-06
-1.28054e-06
-8.75256e-07
-5.23677e-07
-2.20939e-07
3.75454e-08
2.56075e-07
4.38672e-07
5.89086e-07
7.10799e-07
8.07038e-07
8.8078e-07
9.34768e-07
9.71513e-07
9.93316e-07
1.00227e-06
1.00026e-06
9.89026e-07
9.70099e-07
9.44869e-07
9.14568e-07
8.80295e-07
8.43019e-07
8.03588e-07
7.62742e-07
7.21129e-07
6.79285e-07
6.37707e-07
5.96736e-07
5.56796e-07
5.17975e-07
4.80797e-07
4.44879e-07
4.11277e-07
3.785e-07
3.49203e-07
3.19176e-07
2.95188e-07
2.66599e-07
2.49717e-07
2.19805e-07
2.13365e-07
1.77225e-07
1.86908e-07
1.36892e-07
1.71105e-07
9.69777e-08
1.66012e-07
5.6789e-08
1.69907e-07
1.80026e-08
1.78434e-07
-1.4929e-08
1.85204e-07
-3.68642e-08
1.85639e-07
-4.73601e-08
1.83604e-07
-5.68247e-08
1.94791e-07
-8.50177e-08
2.40465e-07
-1.53698e-07
3.48951e-07
-2.99892e-07
5.68805e-07
-4.61434e-06
-3.79981e-06
-3.07362e-06
-2.42877e-06
-1.85889e-06
-1.35793e-06
-9.20107e-07
-5.39929e-07
-2.12217e-07
6.79055e-08
3.05019e-07
5.03407e-07
6.67069e-07
7.99722e-07
9.04812e-07
9.85524e-07
1.04479e-06
1.08531e-06
1.10953e-06
1.11973e-06
1.11792e-06
1.10598e-06
1.08555e-06
1.05815e-06
1.02511e-06
9.87625e-07
9.46744e-07
9.03399e-07
8.58401e-07
8.12451e-07
7.66164e-07
7.20042e-07
6.74555e-07
6.30012e-07
5.86813e-07
5.45018e-07
5.05138e-07
4.66749e-07
4.30919e-07
3.9609e-07
3.64976e-07
3.33235e-07
3.07798e-07
2.77746e-07
2.59767e-07
2.28549e-07
2.21372e-07
1.83982e-07
1.93315e-07
1.42003e-07
1.76276e-07
1.00742e-07
1.70225e-07
5.94896e-08
1.7336e-07
1.9901e-08
1.81288e-07
-1.36615e-08
1.87705e-07
-3.6262e-08
1.88251e-07
-4.77406e-08
1.87008e-07
-5.8681e-08
1.99738e-07
-8.88461e-08
2.4778e-07
-1.60186e-07
3.60014e-07
-3.10435e-07
5.86518e-07
-4.06151e-06
-3.28051e-06
-2.58691e-06
-1.9735e-06
-1.4338e-06
-9.61741e-07
-5.51487e-07
-1.9752e-07
1.05347e-07
3.61988e-07
5.76965e-07
7.54541e-07
8.98679e-07
1.01306e-06
1.10108e-06
1.16587e-06
1.21033e-06
1.23708e-06
1.24855e-06
1.24692e-06
1.23419e-06
1.21214e-06
1.18241e-06
1.14643e-06
1.1055e-06
1.06075e-06
1.01321e-06
9.63749e-07
9.13148e-07
8.62068e-07
8.11087e-07
7.60675e-07
7.1127e-07
6.6315e-07
6.16692e-07
5.71923e-07
5.29343e-07
4.88489e-07
4.50436e-07
4.13563e-07
3.80638e-07
3.47191e-07
3.20311e-07
2.88806e-07
2.69733e-07
2.37223e-07
2.29307e-07
1.90684e-07
1.99659e-07
1.47075e-07
1.8139e-07
1.04483e-07
1.74386e-07
6.2179e-08
1.76764e-07
2.17977e-08
1.84096e-07
-1.23858e-08
1.90156e-07
-3.56317e-08
1.90787e-07
-4.80465e-08
1.90273e-07
-6.0378e-08
2.04448e-07
-9.24199e-08
2.54782e-07
-1.66391e-07
3.70747e-07
-3.20682e-07
6.03805e-07
-3.49105e-06
-2.74566e-06
-2.08653e-06
-1.50625e-06
-9.98264e-07
-5.56472e-07
-1.75003e-07
1.51672e-07
4.28735e-07
6.61048e-07
8.53146e-07
1.00926e-06
1.1333e-06
1.22891e-06
1.29942e-06
1.34793e-06
1.37725e-06
1.38997e-06
1.38844e-06
1.3748e-06
1.35097e-06
1.31869e-06
1.27952e-06
1.23487e-06
1.18596e-06
1.1339e-06
1.07964e-06
1.02403e-06
9.67795e-07
9.11562e-07
8.55872e-07
8.0116e-07
7.4783e-07
6.96132e-07
6.46415e-07
5.98677e-07
5.53402e-07
5.10088e-07
4.69819e-07
4.3091e-07
3.96181e-07
3.61038e-07
3.32722e-07
2.99774e-07
2.79612e-07
2.45823e-07
2.37168e-07
1.97328e-07
2.05939e-07
1.52104e-07
1.86448e-07
1.08195e-07
1.78497e-07
6.48516e-08
1.80122e-07
2.36867e-08
1.86862e-07
-1.11084e-08
1.92562e-07
-3.49804e-08
1.93252e-07
-4.82852e-08
1.93407e-07
-6.19251e-08
2.08931e-07
-9.57513e-08
2.6148e-07
-1.72323e-07
3.81152e-07
-3.30639e-07
6.20657e-07
-2.9034e-06
-2.1957e-06
-1.57292e-06
-1.02746e-06
-5.52693e-07
-1.4251e-07
2.0898e-07
5.07302e-07
7.57627e-07
9.64788e-07
1.13329e-06
1.2673e-06
1.3707e-06
1.44705e-06
1.49966e-06
1.53152e-06
1.54541e-06
1.54383e-06
1.52909e-06
1.50324e-06
1.46815e-06
1.42551e-06
1.37681e-06
1.32339e-06
1.26644e-06
1.207e-06
1.14598e-06
1.08419e-06
1.0223e-06
9.60894e-07
9.00485e-07
8.41466e-07
7.8421e-07
7.28935e-07
6.75963e-07
6.2526e-07
5.77297e-07
5.31532e-07
4.89056e-07
4.4812e-07
4.11597e-07
3.74767e-07
3.45023e-07
3.10644e-07
2.89398e-07
2.54342e-07
2.44951e-07
2.03909e-07
2.12151e-07
1.57087e-07
1.91447e-07
1.11875e-07
1.82556e-07
6.75043e-08
1.83436e-07
2.55648e-08
1.89587e-07
-9.83234e-09
1.94923e-07
-3.43107e-08
1.9565e-07
-4.84599e-08
1.96413e-07
-6.33276e-08
2.13194e-07
-9.88481e-08
2.67883e-07
-1.77987e-07
3.9123e-07
-3.40303e-07
6.37061e-07
-2.29906e-06
-1.63112e-06
-1.04654e-06
-5.37563e-07
-9.74982e-08
2.79757e-07
6.00095e-07
8.6903e-07
1.09171e-06
1.27292e-06
1.41712e-06
1.52842e-06
1.61065e-06
1.6673e-06
1.70159e-06
1.71648e-06
1.71464e-06
1.69853e-06
1.67036e-06
1.63213e-06
1.58564e-06
1.53251e-06
1.47418e-06
1.41192e-06
1.34687e-06
1.28e-06
1.21219e-06
1.14418e-06
1.07662e-06
1.01003e-06
9.44895e-07
8.81567e-07
8.20386e-07
7.61537e-07
7.05316e-07
6.51656e-07
6.01015e-07
5.52809e-07
5.08135e-07
4.65184e-07
4.26876e-07
3.88372e-07
3.57208e-07
3.2141e-07
2.99087e-07
2.62777e-07
2.52651e-07
2.10424e-07
2.18295e-07
1.62021e-07
1.96387e-07
1.15521e-07
1.86563e-07
7.01355e-08
1.86702e-07
2.74309e-08
1.9227e-07
-8.55817e-09
1.97239e-07
-3.36232e-08
1.97979e-07
-4.85723e-08
1.99293e-07
-6.45901e-08
2.17241e-07
-1.01718e-07
2.73995e-07
-1.83386e-07
4.00977e-07
-3.49669e-07
6.52995e-07
-1.67858e-06
-1.05243e-06
-5.07896e-07
-3.70329e-08
3.6687e-07
7.09904e-07
9.97948e-07
1.23649e-06
1.43064e-06
1.58513e-06
1.70435e-06
1.79237e-06
1.85291e-06
1.88942e-06
1.90503e-06
1.90262e-06
1.88479e-06
1.85391e-06
1.81212e-06
1.76135e-06
1.70334e-06
1.63962e-06
1.57157e-06
1.5004e-06
1.42718e-06
1.35285e-06
1.27822e-06
1.20397e-06
1.13071e-06
1.05894e-06
9.89072e-07
9.21436e-07
8.56334e-07
7.93918e-07
7.34456e-07
6.7785e-07
6.2454e-07
5.73905e-07
5.27045e-07
4.82092e-07
4.4201e-07
4.01844e-07
3.69271e-07
3.32067e-07
3.08673e-07
2.71123e-07
2.60265e-07
2.1687e-07
2.24365e-07
1.66904e-07
2.01264e-07
1.19131e-07
1.90515e-07
7.27437e-08
1.89921e-07
2.9284e-08
1.94909e-07
-7.28656e-09
1.9951e-07
-3.29185e-08
2.0024e-07
-4.86241e-08
2.02049e-07
-6.57176e-08
2.2108e-07
-1.04368e-07
2.79822e-07
-1.88525e-07
4.10391e-07
-3.58729e-07
6.68437e-07
-1.04255e-06
-4.60228e-07
4.24693e-08
4.73608e-07
8.39925e-07
1.14748e-06
1.40212e-06
1.6093e-06
1.77406e-06
1.90108e-06
1.99468e-06
2.05885e-06
2.09724e-06
2.11319e-06
2.10977e-06
2.08976e-06
2.05568e-06
2.00982e-06
1.95425e-06
1.8908e-06
1.82114e-06
1.74673e-06
1.66888e-06
1.58874e-06
1.50732e-06
1.42549e-06
1.344e-06
1.26351e-06
1.18455e-06
1.10758e-06
1.03298e-06
9.61044e-07
8.92029e-07
8.26056e-07
7.63365e-07
7.03824e-07
6.4786e-07
5.94809e-07
5.45776e-07
4.98835e-07
4.56991e-07
4.15177e-07
3.81205e-07
3.42607e-07
3.18151e-07
2.79376e-07
2.6779e-07
2.23243e-07
2.3036e-07
1.71732e-07
2.06077e-07
1.22703e-07
1.94412e-07
7.53272e-08
1.93091e-07
3.11229e-08
1.97505e-07
-6.01837e-09
2.01733e-07
-3.21975e-08
2.02432e-07
-4.86177e-08
2.04685e-07
-6.67157e-08
2.24717e-07
-1.06809e-07
2.85373e-07
-1.93409e-07
4.19468e-07
-3.67481e-07
6.83369e-07
-3.91646e-07
1.44875e-07
6.03962e-07
9.93806e-07
1.32115e-06
1.592e-06
1.81216e-06
1.98703e-06
2.12159e-06
2.22044e-06
2.28781e-06
2.3276e-06
2.34337e-06
2.33839e-06
2.31561e-06
2.27772e-06
2.22716e-06
2.16613e-06
2.0966e-06
2.02034e-06
1.93892e-06
1.85374e-06
1.76603e-06
1.67687e-06
1.58721e-06
1.49785e-06
1.4095e-06
1.32274e-06
1.23808e-06
1.15592e-06
1.0766e-06
1.00037e-06
9.27447e-07
8.57929e-07
7.92024e-07
7.29563e-07
6.70958e-07
6.15507e-07
5.64317e-07
5.15402e-07
4.7181e-07
4.28362e-07
3.93003e-07
3.53027e-07
3.27517e-07
2.87531e-07
2.75221e-07
2.2954e-07
2.36278e-07
1.76503e-07
2.10823e-07
1.26236e-07
1.98251e-07
7.78845e-08
1.96212e-07
3.29463e-08
2.00056e-07
-4.75458e-09
2.0391e-07
-3.14614e-08
2.04557e-07
-4.85555e-08
2.07202e-07
-6.75903e-08
2.28158e-07
-1.09049e-07
2.90654e-07
-1.98043e-07
4.28209e-07
-3.7592e-07
6.97771e-07
2.73428e-07
7.62199e-07
1.17595e-06
1.52297e-06
1.80999e-06
2.04295e-06
2.22761e-06
2.36927e-06
2.47284e-06
2.54284e-06
2.5834e-06
2.59831e-06
2.59105e-06
2.56476e-06
2.52231e-06
2.4663e-06
2.39905e-06
2.32267e-06
2.23905e-06
2.14986e-06
2.05659e-06
1.96057e-06
1.86294e-06
1.76472e-06
1.66678e-06
1.56988e-06
1.47465e-06
1.38163e-06
1.29127e-06
1.20392e-06
1.11989e-06
1.03937e-06
9.62563e-07
8.89517e-07
8.20413e-07
7.55049e-07
6.93821e-07
6.35986e-07
5.82655e-07
5.31783e-07
4.86458e-07
4.41393e-07
4.04659e-07
3.63319e-07
3.36765e-07
2.95585e-07
2.82555e-07
2.35757e-07
2.42114e-07
1.81215e-07
2.15502e-07
1.29726e-07
2.02032e-07
8.04138e-08
1.99282e-07
3.4753e-08
2.02562e-07
-3.49615e-09
2.0604e-07
-3.07114e-08
2.06614e-07
-4.844e-08
2.09605e-07
-6.83475e-08
2.31412e-07
-1.11098e-07
2.95674e-07
-2.02433e-07
4.36613e-07
-3.84042e-07
7.11627e-07
9.51899e-07
1.39102e-06
1.75775e-06
2.06047e-06
2.30587e-06
2.49981e-06
2.64796e-06
2.75556e-06
2.82741e-06
2.86791e-06
2.88111e-06
2.87068e-06
2.83999e-06
2.79206e-06
2.72967e-06
2.65529e-06
2.57116e-06
2.47928e-06
2.38144e-06
2.27922e-06
2.17403e-06
2.0671e-06
1.95951e-06
1.8522e-06
1.74597e-06
1.64151e-06
1.5394e-06
1.44012e-06
1.34407e-06
1.25155e-06
1.16281e-06
1.07803e-06
9.97353e-07
9.20798e-07
8.48514e-07
7.80266e-07
7.16435e-07
6.56236e-07
6.0078e-07
5.4797e-07
5.00928e-07
4.54261e-07
4.16166e-07
3.73479e-07
3.45891e-07
3.03532e-07
2.89788e-07
2.41892e-07
2.47867e-07
1.85864e-07
2.20109e-07
1.33171e-07
2.05753e-07
8.29136e-08
2.023e-07
3.65418e-08
2.05021e-07
-2.24407e-09
2.08121e-07
-2.99487e-08
2.08605e-07
-4.82742e-08
2.11896e-07
-6.89938e-08
2.34487e-07
-1.12967e-07
3.00443e-07
-2.06586e-07
4.44681e-07
-3.91846e-07
7.24923e-07
1.64294e-06
2.03056e-06
2.34865e-06
2.60564e-06
2.80817e-06
2.962e-06
3.07271e-06
3.14543e-06
3.18485e-06
3.19527e-06
3.18059e-06
3.14439e-06
3.0899e-06
3.02004e-06
2.93745e-06
2.8445e-06
2.74332e-06
2.6358e-06
2.52363e-06
2.4083e-06
2.29112e-06
2.17324e-06
2.05566e-06
1.93924e-06
1.82471e-06
1.7127e-06
1.60371e-06
1.49818e-06
1.39645e-06
1.29876e-06
1.20535e-06
1.11632e-06
1.03179e-06
9.5175e-07
8.76309e-07
8.05198e-07
7.38785e-07
6.76241e-07
6.18682e-07
5.63952e-07
5.1521e-07
4.6696e-07
4.27519e-07
3.83501e-07
3.5489e-07
3.11369e-07
2.96917e-07
2.4794e-07
2.53534e-07
1.90448e-07
2.24645e-07
1.36571e-07
2.09412e-07
8.53823e-08
2.05265e-07
3.83115e-08
2.07434e-07
-9.99361e-10
2.10154e-07
-2.91747e-08
2.1053e-07
-4.80609e-08
2.1408e-07
-6.95356e-08
2.3739e-07
-1.14665e-07
3.04969e-07
-2.1051e-07
4.52414e-07
-3.99332e-07
7.37647e-07
2.34565e-06
2.68e-06
2.94787e-06
3.15777e-06
3.31624e-06
3.42894e-06
3.50132e-06
3.5384e-06
3.54474e-06
3.52451e-06
3.48149e-06
3.41912e-06
3.3405e-06
3.24843e-06
3.14542e-06
3.03372e-06
2.91534e-06
2.79206e-06
2.66548e-06
2.53697e-06
2.40775e-06
2.27889e-06
2.1513e-06
2.02575e-06
1.90292e-06
1.78336e-06
1.66751e-06
1.55574e-06
1.44835e-06
1.34553e-06
1.24746e-06
1.15421e-06
1.06586e-06
9.82352e-07
9.03778e-07
8.29828e-07
7.60856e-07
6.95991e-07
6.36348e-07
5.7972e-07
5.29296e-07
4.79483e-07
4.3871e-07
3.93379e-07
3.63756e-07
3.19092e-07
3.03938e-07
2.53899e-07
2.59111e-07
1.94965e-07
2.29106e-07
1.39922e-07
2.13009e-07
8.78183e-08
2.08177e-07
4.00609e-08
2.09798e-07
2.36956e-10
2.1214e-07
-2.83908e-08
2.12391e-07
-4.78031e-08
2.16161e-07
-6.99797e-08
2.4013e-07
-1.16202e-07
3.09262e-07
-2.14211e-07
4.59815e-07
-4.06497e-07
7.4979e-07
3.05914e-06
3.33851e-06
3.55467e-06
3.71616e-06
3.82945e-06
3.90003e-06
3.93325e-06
3.93397e-06
3.90662e-06
3.85524e-06
3.78345e-06
3.69455e-06
3.59151e-06
3.47699e-06
3.35335e-06
3.22275e-06
3.08705e-06
2.94792e-06
2.80685e-06
2.66511e-06
2.52382e-06
2.38395e-06
2.24635e-06
2.11168e-06
1.98055e-06
1.85346e-06
1.73076e-06
1.61278e-06
1.49975e-06
1.39182e-06
1.28912e-06
1.19168e-06
1.09953e-06
1.01259e-06
9.30907e-07
8.54143e-07
7.82638e-07
7.15475e-07
6.5377e-07
5.95267e-07
5.43179e-07
4.91823e-07
4.49735e-07
4.03109e-07
3.72488e-07
3.26696e-07
3.10848e-07
2.59766e-07
2.64598e-07
1.99413e-07
2.33491e-07
1.43223e-07
2.16542e-07
9.02204e-08
2.11034e-07
4.17888e-08
2.12115e-07
1.46371e-09
2.14076e-07
-2.75987e-08
2.14188e-07
-4.75044e-08
2.18142e-07
-7.03327e-08
2.42714e-07
-1.1759e-07
3.13331e-07
-2.17699e-07
4.66888e-07
-4.13344e-07
7.61346e-07
3.78261e-06
4.00533e-06
4.16835e-06
4.2802e-06
4.34723e-06
4.37478e-06
4.36804e-06
4.33174e-06
4.27014e-06
4.18713e-06
4.08618e-06
3.97043e-06
3.8427e-06
3.7055e-06
3.56108e-06
3.41143e-06
3.2583e-06
3.10325e-06
2.94763e-06
2.79263e-06
2.63924e-06
2.48836e-06
2.34074e-06
2.19696e-06
2.05755e-06
1.92294e-06
1.79342e-06
1.66926e-06
1.55063e-06
1.43761e-06
1.33031e-06
1.22871e-06
1.13279e-06
1.04244e-06
9.57686e-07
8.78136e-07
8.04124e-07
7.34688e-07
6.70944e-07
6.10589e-07
5.56858e-07
5.03977e-07
4.60592e-07
4.12689e-07
3.81081e-07
3.34182e-07
3.17646e-07
2.6554e-07
2.69993e-07
2.0379e-07
2.378e-07
1.46474e-07
2.20011e-07
9.25876e-08
2.13836e-07
4.34943e-08
2.14382e-07
2.67961e-09
2.15964e-07
-2.68006e-08
2.15922e-07
-4.71687e-08
2.20027e-07
-7.06018e-08
2.4515e-07
-1.18839e-07
3.17185e-07
-2.2098e-07
4.73633e-07
-4.19877e-07
7.72309e-07
4.51481e-06
4.67933e-06
4.78786e-06
4.8489e-06
4.86868e-06
4.85235e-06
4.80495e-06
4.73102e-06
4.63468e-06
4.51962e-06
4.38916e-06
4.24628e-06
4.09364e-06
3.9336e-06
3.76825e-06
3.59945e-06
3.42883e-06
3.25779e-06
3.0876e-06
2.91932e-06
2.75384e-06
2.59196e-06
2.43433e-06
2.28146e-06
2.13381e-06
1.99172e-06
1.85541e-06
1.7251e-06
1.6009e-06
1.48284e-06
1.37098e-06
1.26525e-06
1.16559e-06
1.07188e-06
9.8408e-07
9.01774e-07
8.25285e-07
7.53604e-07
6.87847e-07
6.25666e-07
5.70312e-07
5.15931e-07
4.71267e-07
4.22107e-07
3.89527e-07
3.41538e-07
3.24325e-07
2.71214e-07
2.7529e-07
2.08092e-07
2.42027e-07
1.49669e-07
2.23413e-07
9.49174e-08
2.16582e-07
4.5176e-08
2.166e-07
3.88433e-09
2.17803e-07
-2.59965e-08
2.17595e-07
-4.67965e-08
2.21818e-07
-7.07951e-08
2.47444e-07
-1.19961e-07
3.20829e-07
-2.24067e-07
4.80054e-07
-4.261e-07
7.82677e-07
5.25445e-06
5.3593e-06
5.4121e-06
5.42129e-06
5.39293e-06
5.33196e-06
5.24325e-06
5.13118e-06
4.99965e-06
4.85219e-06
4.69195e-06
4.52171e-06
4.34398e-06
4.16096e-06
3.97458e-06
3.78657e-06
3.59841e-06
3.41137e-06
3.22659e-06
3.04504e-06
2.86748e-06
2.69462e-06
2.52703e-06
2.36511e-06
2.20924e-06
2.05971e-06
1.91666e-06
1.78024e-06
1.65052e-06
1.52747e-06
1.41108e-06
1.30127e-06
1.19792e-06
1.10087e-06
1.01007e-06
9.25041e-07
8.46106e-07
7.72212e-07
7.04468e-07
6.40487e-07
5.83536e-07
5.27677e-07
4.81754e-07
4.31357e-07
3.97821e-07
3.48762e-07
3.3088e-07
2.76784e-07
2.80488e-07
2.12316e-07
2.46172e-07
1.52809e-07
2.26746e-07
9.72091e-08
2.1927e-07
4.68323e-08
2.18767e-07
5.07618e-09
2.19593e-07
-2.51885e-08
2.19208e-07
-4.63928e-08
2.23524e-07
-7.09153e-08
2.49608e-07
-1.20961e-07
3.24282e-07
-2.26962e-07
4.86163e-07
-4.3201e-07
7.92461e-07
6.00021e-06
6.0441e-06
6.04002e-06
5.99639e-06
5.91909e-06
5.81282e-06
5.68225e-06
5.53158e-06
5.36449e-06
5.18434e-06
4.99408e-06
4.7963e-06
4.59337e-06
4.38727e-06
4.1798e-06
3.97253e-06
3.76682e-06
3.56377e-06
3.36443e-06
3.16963e-06
2.98003e-06
2.79623e-06
2.61872e-06
2.4478e-06
2.28378e-06
2.12686e-06
1.97712e-06
1.83464e-06
1.69946e-06
1.57145e-06
1.45058e-06
1.33674e-06
1.22974e-06
1.1294e-06
1.03563e-06
9.47918e-07
8.66572e-07
7.90497e-07
7.20795e-07
6.55044e-07
5.96521e-07
5.39206e-07
4.92047e-07
4.40434e-07
4.05959e-07
3.5585e-07
3.37308e-07
2.82247e-07
2.85583e-07
2.16459e-07
2.50232e-07
1.55891e-07
2.30009e-07
9.94613e-08
2.21901e-07
4.84616e-08
2.20884e-07
6.25395e-09
2.21334e-07
-2.43789e-08
2.20763e-07
-4.596e-08
2.25147e-07
-7.09701e-08
2.51649e-07
-1.21851e-07
3.2755e-07
-2.29674e-07
4.91965e-07
-4.37611e-07
8.01664e-07
2.26691e-07
-7.09655e-08
2.53576e-07
-1.2264e-07
3.30642e-07
-2.32211e-07
4.97466e-07
-4.42908e-07
8.10295e-07
-5.34156e-06
-5.37032e-06
-5.37522e-06
-5.35768e-06
-5.31925e-06
-5.26158e-06
-5.18628e-06
-5.09489e-06
-4.98898e-06
-4.87012e-06
-4.73981e-06
-4.59955e-06
-4.45077e-06
-4.29487e-06
-4.1332e-06
-3.96702e-06
-3.79756e-06
-3.62596e-06
-3.45328e-06
-3.28054e-06
-3.10864e-06
-2.93844e-06
-2.7707e-06
-2.60611e-06
-2.44528e-06
-2.28875e-06
-2.13698e-06
-1.99036e-06
-1.84923e-06
-1.71383e-06
-1.58437e-06
-1.46098e-06
-1.34376e-06
-1.23274e-06
-1.12791e-06
-1.02923e-06
-9.36618e-07
-8.49947e-07
-7.69077e-07
-6.93839e-07
-6.24044e-07
-5.59486e-07
-4.99946e-07
-4.45192e-07
-3.95003e-07
-3.49105e-07
-3.07337e-07
-2.69273e-07
-2.35105e-07
-2.03659e-07
-1.76734e-07
-1.49934e-07
-1.31382e-07
-1.05033e-07
-9.94109e-08
-6.53392e-08
-8.08052e-08
-3.12194e-08
-6.66981e-08
-1.91491e-08
-2.82231e-08
-6.17353e-08
5.75602e-08
-1.47285e-07
1.27476e-07
-1.74959e-07
9.86771e-08
-1.59043e-07
1.06249e-07
-2.8019e-07
-5.38756e-06
-5.41166e-06
-5.41218e-06
-5.39051e-06
-5.3482e-06
-5.28694e-06
-5.2083e-06
-5.11382e-06
-5.00508e-06
-4.88362e-06
-4.75094e-06
-4.60854e-06
-4.45784e-06
-4.30022e-06
-4.13702e-06
-3.9695e-06
-3.79886e-06
-3.62624e-06
-3.4527e-06
-3.27922e-06
-3.10672e-06
-2.93602e-06
-2.76789e-06
-2.60299e-06
-2.44194e-06
-2.28526e-06
-2.13341e-06
-1.98676e-06
-1.84564e-06
-1.71029e-06
-1.58091e-06
-1.45764e-06
-1.34055e-06
-1.22967e-06
-1.12501e-06
-1.02649e-06
-9.34047e-07
-8.47548e-07
-7.66849e-07
-6.91779e-07
-6.22148e-07
-5.57747e-07
-4.98358e-07
-4.43747e-07
-3.93693e-07
-3.47919e-07
-3.06273e-07
-2.68308e-07
-2.34262e-07
-2.02863e-07
-1.76106e-07
-1.49222e-07
-1.31026e-07
-1.0424e-07
-9.94881e-08
-6.41961e-08
-8.15366e-08
-2.9535e-08
-6.79475e-08
-1.75173e-08
-2.86838e-08
-6.20789e-08
6.00718e-08
-1.51658e-07
1.34551e-07
-1.82914e-07
1.08101e-07
-1.67822e-07
1.15041e-07
-2.90651e-07
-5.47642e-06
-5.4915e-06
-5.48351e-06
-5.45384e-06
-5.40405e-06
-5.33582e-06
-5.25071e-06
-5.15026e-06
-5.03603e-06
-4.90955e-06
-4.7723e-06
-4.62577e-06
-4.47135e-06
-4.31041e-06
-4.14426e-06
-3.97414e-06
-3.80124e-06
-3.62666e-06
-3.45145e-06
-3.27656e-06
-3.10288e-06
-2.93124e-06
-2.76235e-06
-2.59688e-06
-2.43541e-06
-2.27844e-06
-2.12643e-06
-1.97972e-06
-1.83863e-06
-1.70339e-06
-1.57418e-06
-1.45112e-06
-1.33429e-06
-1.2237e-06
-1.11935e-06
-1.02116e-06
-9.29045e-07
-8.42882e-07
-7.62517e-07
-6.87774e-07
-6.18461e-07
-5.54366e-07
-4.95271e-07
-4.40937e-07
-3.91147e-07
-3.45615e-07
-3.04205e-07
-2.66438e-07
-2.32612e-07
-2.01341e-07
-1.74841e-07
-1.47934e-07
-1.30155e-07
-1.03029e-07
-9.90725e-08
-6.29002e-08
-8.15749e-08
-2.81834e-08
-6.8154e-08
-1.64676e-08
-2.8572e-08
-6.16409e-08
6.07649e-08
-1.5197e-07
1.3645e-07
-1.85833e-07
1.13658e-07
-1.74531e-07
1.222e-07
-2.98641e-07
-5.60465e-06
-5.60663e-06
-5.5863e-06
-5.54504e-06
-5.48442e-06
-5.40611e-06
-5.31164e-06
-5.20255e-06
-5.08038e-06
-4.94664e-06
-4.8028e-06
-4.65029e-06
-4.4905e-06
-4.32477e-06
-4.15438e-06
-3.98052e-06
-3.80436e-06
-3.62697e-06
-3.44936e-06
-3.27245e-06
-3.0971e-06
-2.92409e-06
-2.75413e-06
-2.58784e-06
-2.42578e-06
-2.26842e-06
-2.11618e-06
-1.9694e-06
-1.82837e-06
-1.69329e-06
-1.56434e-06
-1.44161e-06
-1.32516e-06
-1.215e-06
-1.1111e-06
-1.01338e-06
-9.21759e-07
-8.36086e-07
-7.56208e-07
-6.81943e-07
-6.13095e-07
-5.49448e-07
-4.9078e-07
-4.36851e-07
-3.87445e-07
-3.42265e-07
-3.01197e-07
-2.63719e-07
-2.30213e-07
-1.99131e-07
-1.72993e-07
-1.46081e-07
-1.28853e-07
-1.01335e-07
-9.83547e-08
-6.11963e-08
-8.13727e-08
-2.65521e-08
-6.80647e-08
-1.53047e-08
-2.81546e-08
-6.09399e-08
6.12342e-08
-1.51393e-07
1.37657e-07
-1.87829e-07
1.19183e-07
-1.81176e-07
1.29702e-07
-3.05904e-07
-5.76859e-06
-5.75372e-06
-5.71751e-06
-5.66136e-06
-5.58682e-06
-5.49554e-06
-5.38907e-06
-5.2689e-06
-5.13656e-06
-4.99352e-06
-4.84122e-06
-4.68108e-06
-4.51444e-06
-4.34259e-06
-4.16677e-06
-3.98815e-06
-3.80784e-06
-3.62688e-06
-3.44621e-06
-3.26674e-06
-3.08928e-06
-2.91456e-06
-2.74325e-06
-2.57593e-06
-2.41313e-06
-2.25529e-06
-2.1028e-06
-1.95595e-06
-1.81501e-06
-1.68017e-06
-1.55155e-06
-1.42925e-06
-1.31331e-06
-1.20371e-06
-1.1004e-06
-1.00331e-06
-9.12325e-07
-8.27291e-07
-7.48046e-07
-6.74402e-07
-6.06157e-07
-5.43089e-07
-4.84976e-07
-4.3157e-07
-3.82661e-07
-3.37938e-07
-2.97313e-07
-2.60207e-07
-2.27116e-07
-1.96278e-07
-1.70607e-07
-1.43691e-07
-1.2717e-07
-9.91576e-08
-9.74147e-08
-5.90168e-08
-8.10934e-08
-2.445e-08
-6.79707e-08
-1.37436e-08
-2.76777e-08
-6.00202e-08
6.19386e-08
-1.50911e-07
1.39554e-07
-1.9045e-07
1.25893e-07
-1.88618e-07
1.38206e-07
-3.13246e-07
-5.96448e-06
-5.9293e-06
-5.87398e-06
-5.7999e-06
-5.70862e-06
-5.60177e-06
-5.48088e-06
-5.34742e-06
-5.20288e-06
-5.0487e-06
-4.8863e-06
-4.71702e-06
-4.54219e-06
-4.36304e-06
-4.18076e-06
-3.99647e-06
-3.81123e-06
-3.62602e-06
-3.44175e-06
-3.25925e-06
-3.07929e-06
-2.90256e-06
-2.72967e-06
-2.56117e-06
-2.39753e-06
-2.23915e-06
-2.08637e-06
-1.93948e-06
-1.79868e-06
-1.66414e-06
-1.53596e-06
-1.41421e-06
-1.29889e-06
-1.18998e-06
-1.08741e-06
-9.91086e-07
-9.00875e-07
-8.16621e-07
-7.38148e-07
-6.65261e-07
-5.9775e-07
-5.35387e-07
-4.77947e-07
-4.25176e-07
-3.76871e-07
-3.32701e-07
-2.92614e-07
-2.55957e-07
-2.23372e-07
-1.92824e-07
-1.67726e-07
-1.40797e-07
-1.25136e-07
-9.65285e-08
-9.62681e-08
-5.64015e-08
-8.07306e-08
-2.19306e-08
-6.78548e-08
-1.1826e-08
-2.71632e-08
-5.88558e-08
6.28065e-08
-1.50439e-07
1.41974e-07
-1.93524e-07
1.33482e-07
-1.96584e-07
1.47371e-07
-3.20449e-07
-6.18846e-06
-6.12983e-06
-6.05245e-06
-5.9577e-06
-5.84713e-06
-5.72236e-06
-5.58488e-06
-5.43615e-06
-5.2776e-06
-5.11066e-06
-4.93667e-06
-4.75695e-06
-4.57275e-06
-4.38527e-06
-4.19562e-06
-4.00488e-06
-3.81404e-06
-3.62402e-06
-3.43566e-06
-3.24975e-06
-3.06699e-06
-2.88801e-06
-2.71336e-06
-2.54355e-06
-2.37899e-06
-2.22004e-06
-2.067e-06
-1.92009e-06
-1.7795e-06
-1.64534e-06
-1.51771e-06
-1.39661e-06
-1.28204e-06
-1.17396e-06
-1.07226e-06
-9.76833e-07
-8.87536e-07
-8.04197e-07
-7.2663e-07
-6.54628e-07
-5.87974e-07
-5.26433e-07
-4.69779e-07
-4.17748e-07
-3.70147e-07
-3.26618e-07
-2.8716e-07
-2.51022e-07
-2.19031e-07
-1.88813e-07
-1.64389e-07
-1.37433e-07
-1.22781e-07
-9.34789e-08
-9.49312e-08
-5.33885e-08
-8.02777e-08
-1.90499e-08
-6.76863e-08
-9.61687e-09
-2.65817e-08
-5.74781e-08
6.38024e-08
-1.49898e-07
1.44722e-07
-1.9677e-07
1.41562e-07
-2.04683e-07
1.56831e-07
-3.27234e-07
-6.43669e-06
-6.35175e-06
-6.24966e-06
-6.13177e-06
-5.99964e-06
-5.85485e-06
-5.69887e-06
-5.53311e-06
-5.35898e-06
-5.17783e-06
-4.99097e-06
-4.79967e-06
-4.6051e-06
-4.40839e-06
-4.21062e-06
-4.01276e-06
-3.81576e-06
-3.62045e-06
-3.42763e-06
-3.238e-06
-3.05219e-06
-2.87078e-06
-2.69426e-06
-2.52306e-06
-2.35755e-06
-2.19803e-06
-2.04475e-06
-1.89788e-06
-1.75757e-06
-1.6239e-06
-1.49691e-06
-1.37659e-06
-1.2629e-06
-1.15577e-06
-1.05507e-06
-9.6068e-07
-8.7243e-07
-7.90137e-07
-7.13601e-07
-6.42605e-07
-5.76925e-07
-5.16317e-07
-4.60555e-07
-4.09363e-07
-3.62559e-07
-3.19754e-07
-2.81009e-07
-2.45453e-07
-2.14139e-07
-1.84284e-07
-1.60635e-07
-1.33632e-07
-1.20138e-07
-9.00357e-08
-9.34241e-08
-5.00075e-08
-7.974e-08
-1.58437e-08
-6.74583e-08
-7.15349e-09
-2.59228e-08
-5.59196e-08
6.49258e-08
-1.49284e-07
1.47718e-07
-2.00036e-07
1.49878e-07
-2.12624e-07
1.66315e-07
-3.33417e-07
-6.7053e-06
-6.59151e-06
-6.46235e-06
-6.31914e-06
-6.16344e-06
-5.99679e-06
-5.82063e-06
-5.63632e-06
-5.44523e-06
-5.24865e-06
-5.04784e-06
-4.84398e-06
-4.63819e-06
-4.43153e-06
-4.22499e-06
-4.01949e-06
-3.81588e-06
-3.61492e-06
-3.41734e-06
-3.22375e-06
-3.03473e-06
-2.85077e-06
-2.6723e-06
-2.49968e-06
-2.33322e-06
-2.17316e-06
-2.01969e-06
-1.87294e-06
-1.73301e-06
-1.59992e-06
-1.47369e-06
-1.35428e-06
-1.24159e-06
-1.13554e-06
-1.03598e-06
-9.42749e-07
-8.55674e-07
-7.74551e-07
-6.99167e-07
-6.29294e-07
-5.64698e-07
-5.05128e-07
-4.50356e-07
-4.00093e-07
-3.54174e-07
-3.1217e-07
-2.74218e-07
-2.39301e-07
-2.08746e-07
-1.79276e-07
-1.56505e-07
-1.29425e-07
-1.17238e-07
-8.62253e-08
-9.17669e-08
-4.62873e-08
-7.91237e-08
-1.23448e-08
-6.71685e-08
-4.46509e-09
-2.5188e-08
-5.41977e-08
6.61623e-08
-1.48581e-07
1.50885e-07
-2.03199e-07
1.58224e-07
-2.20173e-07
1.75593e-07
-3.38853e-07
-6.99051e-06
-6.84563e-06
-6.68731e-06
-6.51688e-06
-6.33585e-06
-6.14576e-06
-5.94798e-06
-5.74383e-06
-5.53462e-06
-5.32159e-06
-5.10591e-06
-4.8887e-06
-4.67101e-06
-4.45381e-06
-4.23801e-06
-4.02445e-06
-3.81388e-06
-3.60701e-06
-3.40445e-06
-3.20676e-06
-3.01442e-06
-2.82785e-06
-2.6474e-06
-2.47337e-06
-2.306e-06
-2.14546e-06
-1.99188e-06
-1.84535e-06
-1.7059e-06
-1.57352e-06
-1.44818e-06
-1.32978e-06
-1.21823e-06
-1.11339e-06
-1.01509e-06
-9.23157e-07
-8.37381e-07
-7.57548e-07
-6.83432e-07
-6.1479e-07
-5.51383e-07
-4.92949e-07
-4.3926e-07
-3.9001e-07
-3.45059e-07
-3.03925e-07
-2.66843e-07
-2.32612e-07
-2.02895e-07
-1.73828e-07
-1.52036e-07
-1.2484e-07
-1.14109e-07
-8.20739e-08
-8.99778e-08
-4.22565e-08
-7.84332e-08
-8.58663e-09
-6.6813e-08
-1.58042e-09
-2.43808e-08
-5.23209e-08
6.74818e-08
-1.47754e-07
1.54124e-07
-2.06122e-07
1.66396e-07
-2.27126e-07
1.84454e-07
-3.43412e-07
-7.28863e-06
-7.11068e-06
-6.92141e-06
-6.72212e-06
-6.51428e-06
-6.2994e-06
-6.0788e-06
-5.85374e-06
-5.62546e-06
-5.39513e-06
-5.16387e-06
-4.93269e-06
-4.70256e-06
-4.47437e-06
-4.24895e-06
-4.02703e-06
-3.80928e-06
-3.59632e-06
-3.38867e-06
-3.18679e-06
-2.9911e-06
-2.80191e-06
-2.61951e-06
-2.44412e-06
-2.2759e-06
-2.11497e-06
-1.96139e-06
-1.81519e-06
-1.67634e-06
-1.54479e-06
-1.42046e-06
-1.30323e-06
-1.19295e-06
-1.08945e-06
-9.9254e-07
-9.02019e-07
-8.17661e-07
-7.39234e-07
-6.66494e-07
-5.99188e-07
-5.37068e-07
-4.7986e-07
-4.27341e-07
-3.79183e-07
-3.35277e-07
-2.95077e-07
-2.58935e-07
-2.25434e-07
-1.96632e-07
-1.67976e-07
-1.47263e-07
-1.19907e-07
-1.10779e-07
-7.76073e-08
-8.80737e-08
-3.7944e-08
-7.76717e-08
-4.60191e-09
-6.63885e-08
1.47384e-09
-2.35076e-08
-5.02917e-08
6.88453e-08
-1.46751e-07
1.57323e-07
-2.08665e-07
1.74202e-07
-2.33294e-07
1.92707e-07
-3.46966e-07
-7.59604e-06
-7.38336e-06
-7.16162e-06
-6.93208e-06
-6.69621e-06
-6.45544e-06
-6.21103e-06
-5.9642e-06
-5.71611e-06
-5.46786e-06
-5.22045e-06
-4.97484e-06
-4.7319e-06
-4.49242e-06
-4.25712e-06
-4.02666e-06
-3.80161e-06
-3.58247e-06
-3.36968e-06
-3.16362e-06
-2.96459e-06
-2.77284e-06
-2.58856e-06
-2.4119e-06
-2.24295e-06
-2.08174e-06
-1.92828e-06
-1.78253e-06
-1.64442e-06
-1.51385e-06
-1.39067e-06
-1.27473e-06
-1.16585e-06
-1.06382e-06
-9.68428e-07
-8.79442e-07
-7.96619e-07
-7.19707e-07
-6.48448e-07
-5.82576e-07
-5.21835e-07
-4.6594e-07
-4.14671e-07
-3.67678e-07
-3.24889e-07
-2.85679e-07
-2.50547e-07
-2.1781e-07
-1.89998e-07
-1.61754e-07
-1.42222e-07
-1.14652e-07
-1.07276e-07
-7.2851e-08
-8.60694e-08
-3.33781e-08
-7.68415e-08
-4.22166e-10
-6.58925e-08
4.67452e-09
-2.25782e-08
-4.81073e-08
7.02081e-08
-1.45517e-07
1.60371e-07
-2.10696e-07
1.81466e-07
-2.38511e-07
2.00174e-07
-3.49391e-07
-7.90928e-06
-7.66047e-06
-7.405e-06
-7.14411e-06
-6.8792e-06
-6.61168e-06
-6.34272e-06
-6.07348e-06
-5.80502e-06
-5.53837e-06
-5.27445e-06
-5.01411e-06
-4.75811e-06
-4.50717e-06
-4.26188e-06
-4.02281e-06
-3.79041e-06
-3.56511e-06
-3.34722e-06
-3.13703e-06
-2.93475e-06
-2.74054e-06
-2.5545e-06
-2.3767e-06
-2.20715e-06
-2.0458e-06
-1.89261e-06
-1.74747e-06
-1.61024e-06
-1.48078e-06
-1.3589e-06
-1.24439e-06
-1.13704e-06
-1.03662e-06
-9.42865e-07
-8.55534e-07
-7.74357e-07
-6.99065e-07
-6.29387e-07
-5.65041e-07
-5.05766e-07
-4.51264e-07
-4.01321e-07
-3.55559e-07
-3.13953e-07
-2.75785e-07
-2.41726e-07
-2.09783e-07
-1.83034e-07
-1.55196e-07
-1.36946e-07
-1.09104e-07
-1.03623e-07
-6.78304e-08
-8.39783e-08
-2.85868e-08
-7.59447e-08
3.92281e-09
-6.53242e-08
8.00212e-09
-2.16058e-08
-4.57599e-08
7.15218e-08
-1.43996e-07
1.63162e-07
-2.12094e-07
1.88033e-07
-2.42631e-07
2.06697e-07
-3.50565e-07
-8.22504e-06
-7.93897e-06
-7.64878e-06
-7.35566e-06
-7.06097e-06
-6.76605e-06
-6.472e-06
-6.17989e-06
-5.89072e-06
-5.60539e-06
-5.32474e-06
-5.04951e-06
-4.78037e-06
-4.51791e-06
-4.26263e-06
-4.01497e-06
-3.7753e-06