/*--------------------------------*- C++ -*----------------------------------*\
| =========                 |                                                 |
| \\      /  F ield         | OpenFOAM: The Open Source CFD Toolbox           |
|  \\    /   O peration     | Version:  2412                                  |
|   \\  /    A nd           | Website:  www.openfoam.com                      |
|    \\/     M anipulation  |                                                 |
\*---------------------------------------------------------------------------*/
FoamFile
{
    version     2.0;
    format      ascii;
    arch        "LSB;label=32;scalar=64";
    class       volVectorField;
    location    "1.5";
    object      U;
}
// * * * * * * * * * * * * * * * * * * * * * * * * * * * * * * * * * * * * * //

dimensions      [0 1 -1 0 0 0 0];

internalField   nonuniform List<vector> 
5285
(
(0.0992826 0.0024721 0)
(0.0992997 0.00255037 0)
(0.0993178 0.0026321 0)
(0.0993393 0.00271795 0)
(0.0993643 0.00280781 0)
(0.0993919 0.00290117 0)
(0.0994229 0.00299757 0)
(0.0994578 0.00309679 0)
(0.099497 0.00319873 0)
(0.0995405 0.0033034 0)
(0.0995889 0.0034108 0)
(0.0996425 0.00352091 0)
(0.0997017 0.00363365 0)
(0.0997668 0.00374892 0)
(0.0998385 0.00386656 0)
(0.0999171 0.00398638 0)
(0.0993622 0.00245518 0)
(0.0993819 0.00253116 0)
(0.0994025 0.00261041 0)
(0.0994267 0.00269353 0)
(0.0994544 0.00278035 0)
(0.0994847 0.00287036 0)
(0.0995184 0.0029631 0)
(0.0995561 0.00305834 0)
(0.0995979 0.00315599 0)
(0.0996441 0.00325604 0)
(0.099695 0.00335847 0)
(0.0997511 0.00346322 0)
(0.0998127 0.00357022 0)
(0.0998801 0.00367932 0)
(0.0999538 0.00379036 0)
(0.100034 0.00390312 0)
(0.0994394 0.00243581 0)
(0.0994615 0.00250946 0)
(0.0994845 0.00258621 0)
(0.0995112 0.00266657 0)
(0.0995413 0.00275033 0)
(0.099574 0.00283698 0)
(0.0996101 0.00292606 0)
(0.0996502 0.00301735 0)
(0.0996944 0.00311076 0)
(0.0997429 0.00320624 0)
(0.0997961 0.00330378 0)
(0.0998543 0.00340329 0)
(0.0999178 0.00350467 0)
(0.0999871 0.00360778 0)
(0.100062 0.00371243 0)
(0.100144 0.00381839 0)
(0.0995142 0.00241418 0)
(0.0995385 0.00248548 0)
(0.0995637 0.0025597 0)
(0.0995925 0.0026373 0)
(0.0996249 0.002718 0)
(0.0996598 0.0028013 0)
(0.099698 0.00288675 0)
(0.0997403 0.00297413 0)
(0.0997865 0.00306334 0)
(0.099837 0.00315435 0)
(0.0998921 0.00324709 0)
(0.0999521 0.00334149 0)
(0.100017 0.00343741 0)
(0.100088 0.00353471 0)
(0.100165 0.00363318 0)
(0.100247 0.0037326 0)
(0.0995866 0.00239048 0)
(0.0996129 0.00245941 0)
(0.0996401 0.00253111 0)
(0.0996709 0.00260593 0)
(0.0997052 0.0026836 0)
(0.0997421 0.00276357 0)
(0.0997822 0.00284543 0)
(0.0998263 0.00292896 0)
(0.0998743 0.00301405 0)
(0.0999265 0.00310067 0)
(0.0999832 0.00318873 0)
(0.100045 0.00327815 0)
(0.100111 0.00336879 0)
(0.100183 0.00346047 0)
(0.10026 0.003553 0)
(0.100344 0.00364615 0)
(0.0996566 0.00236489 0)
(0.0996847 0.00243145 0)
(0.0997137 0.00250062 0)
(0.0997463 0.0025727 0)
(0.0997823 0.00264735 0)
(0.0998209 0.00272404 0)
(0.0998627 0.00280236 0)
(0.0999084 0.0028821 0)
(0.099958 0.00296316 0)
(0.100012 0.00304549 0)
(0.10007 0.003129 0)
(0.100132 0.00321359 0)
(0.1002 0.00329912 0)
(0.100272 0.0033854 0)
(0.10035 0.00347223 0)
(0.100434 0.00355937 0)
(0.0997241 0.00233757 0)
(0.0997538 0.00240178 0)
(0.0997845 0.00246844 0)
(0.0998187 0.0025378 0)
(0.0998563 0.00260947 0)
(0.0998964 0.00268293 0)
(0.0999396 0.00275777 0)
(0.0999866 0.00283381 0)
(0.100037 0.00291093 0)
(0.100092 0.00298909 0)
(0.100151 0.00306818 0)
(0.100215 0.0031481 0)
(0.100283 0.0032287 0)
(0.100356 0.00330979 0)
(0.100434 0.00339115 0)
(0.100518 0.00347256 0)
(0.0997893 0.0023087 0)
(0.0998204 0.00237057 0)
(0.0998525 0.00243476 0)
(0.0998881 0.00250142 0)
(0.0999271 0.00257017 0)
(0.0999685 0.00264045 0)
(0.100013 0.00271189 0)
(0.100061 0.00278431 0)
(0.100113 0.0028576 0)
(0.100169 0.0029317 0)
(0.100229 0.00300653 0)
(0.100293 0.00308194 0)
(0.100361 0.0031578 0)
(0.100435 0.0032339 0)
(0.100513 0.00331004 0)
(0.100597 0.00338598 0)
(0.099852 0.00227842 0)
(0.0998845 0.00233799 0)
(0.0999178 0.00239973 0)
(0.0999546 0.00246376 0)
(0.0999948 0.00252963 0)
(0.100037 0.0025968 0)
(0.100083 0.00266492 0)
(0.100132 0.00273381 0)
(0.100185 0.00280339 0)
(0.100241 0.00287357 0)
(0.100301 0.00294426 0)
(0.100366 0.00301534 0)
(0.100435 0.00308665 0)
(0.100508 0.00315799 0)
(0.100587 0.00322914 0)
(0.10067 0.00329988 0)
(0.0999123 0.0022469 0)
(0.099946 0.00230419 0)
(0.0999804 0.00236353 0)
(0.100018 0.00242497 0)
(0.10006 0.00248803 0)
(0.100103 0.00255217 0)
(0.100149 0.00261706 0)
(0.100199 0.00268253 0)
(0.100253 0.0027485 0)
(0.10031 0.00281489 0)
(0.10037 0.00288161 0)
(0.100435 0.00294852 0)
(0.100504 0.00301547 0)
(0.100577 0.00308225 0)
(0.100655 0.00314867 0)
(0.100738 0.00321447 0)
(0.0999704 0.00221427 0)
(0.100005 0.00226933 0)
(0.10004 0.00232631 0)
(0.100079 0.00238522 0)
(0.100121 0.00244554 0)
(0.100166 0.00250673 0)
(0.100213 0.00256848 0)
(0.100263 0.00263063 0)
(0.100317 0.00269312 0)
(0.100374 0.00275586 0)
(0.100435 0.00281876 0)
(0.1005 0.00288168 0)
(0.100569 0.00294445 0)
(0.100642 0.0030069 0)
(0.100719 0.0030688 0)
(0.100801 0.00312993 0)
(0.100026 0.00218066 0)
(0.100062 0.00223353 0)
(0.100098 0.00228822 0)
(0.100138 0.00234466 0)
(0.10018 0.00240231 0)
(0.100225 0.00246065 0)
(0.100273 0.00251935 0)
(0.100324 0.0025783 0)
(0.100378 0.00263742 0)
(0.100435 0.00269665 0)
(0.100496 0.00275588 0)
(0.100561 0.00281498 0)
(0.100629 0.00287378 0)
(0.100702 0.00293209 0)
(0.100778 0.00298971 0)
(0.100859 0.00304642 0)
(0.10008 0.00214621 0)
(0.100116 0.00219694 0)
(0.100153 0.0022494 0)
(0.100193 0.00230344 0)
(0.100237 0.0023585 0)
(0.100282 0.00241406 0)
(0.10033 0.00246983 0)
(0.100381 0.00252569 0)
(0.100435 0.00258157 0)
(0.100493 0.00263743 0)
(0.100554 0.00269314 0)
(0.100618 0.00274859 0)
(0.100686 0.00280359 0)
(0.100758 0.00285798 0)
(0.100834 0.00291154 0)
(0.100913 0.00296407 0)
(0.100132 0.00211102 0)
(0.100169 0.00215968 0)
(0.100206 0.00220995 0)
(0.100247 0.00226167 0)
(0.100291 0.00231424 0)
(0.100336 0.00236713 0)
(0.100385 0.00242006 0)
(0.100436 0.00247293 0)
(0.10049 0.00252571 0)
(0.100548 0.00257833 0)
(0.100608 0.00263068 0)
(0.100672 0.00268263 0)
(0.100739 0.00273403 0)
(0.10081 0.00278469 0)
(0.100885 0.00283442 0)
(0.100964 0.00288299 0)
(0.100182 0.00207521 0)
(0.100219 0.00212185 0)
(0.100257 0.00217002 0)
(0.100299 0.0022195 0)
(0.100343 0.00226965 0)
(0.100388 0.00231996 0)
(0.100437 0.00237016 0)
(0.100488 0.00242018 0)
(0.100542 0.00246997 0)
(0.100599 0.00251948 0)
(0.10066 0.00256862 0)
(0.100723 0.00261725 0)
(0.10079 0.00266522 0)
(0.10086 0.00271235 0)
(0.100933 0.00275844 0)
(0.10101 0.0028033 0)
(0.10023 0.0020389 0)
(0.100268 0.00208358 0)
(0.100307 0.00212972 0)
(0.100348 0.00217703 0)
(0.100392 0.00222487 0)
(0.100438 0.0022727 0)
(0.100487 0.00232028 0)
(0.100538 0.00236754 0)
(0.100592 0.00241446 0)
(0.100648 0.002461 0)
(0.100708 0.00250707 0)
(0.100771 0.00255253 0)
(0.100837 0.00259725 0)
(0.100906 0.00264103 0)
(0.100978 0.0026837 0)
(0.101054 0.00272506 0)
(0.100277 0.00200217 0)
(0.100315 0.00204498 0)
(0.100353 0.00208917 0)
(0.100395 0.00213442 0)
(0.100439 0.00218003 0)
(0.100485 0.00222547 0)
(0.100533 0.00227051 0)
(0.100584 0.00231512 0)
(0.100638 0.00235929 0)
(0.100694 0.00240298 0)
(0.100753 0.00244612 0)
(0.100815 0.00248858 0)
(0.10088 0.0025302 0)
(0.100948 0.00257083 0)
(0.10102 0.00261027 0)
(0.101094 0.00264834 0)
(0.100319 0.00196512 0)
(0.100357 0.00200618 0)
(0.100396 0.00204854 0)
(0.100437 0.00209181 0)
(0.100481 0.00213526 0)
(0.100527 0.00217838 0)
(0.100575 0.00222096 0)
(0.100626 0.00226301 0)
(0.100679 0.00230453 0)
(0.100735 0.00234551 0)
(0.100793 0.00238586 0)
(0.100855 0.00242546 0)
(0.100919 0.00246416 0)
(0.100986 0.0025018 0)
(0.101055 0.0025382 0)
(0.101128 0.00257318 0)
(0.100355 0.00192785 0)
(0.100393 0.00196733 0)
(0.100432 0.00200798 0)
(0.100473 0.00204936 0)
(0.100517 0.0020907 0)
(0.100562 0.00213154 0)
(0.10061 0.00217172 0)
(0.10066 0.00221129 0)
(0.100713 0.00225027 0)
(0.100768 0.00228865 0)
(0.100826 0.00232635 0)
(0.100886 0.00236324 0)
(0.100949 0.00239917 0)
(0.101015 0.002434 0)
(0.101084 0.00246754 0)
(0.101155 0.00249963 0)
(0.100385 0.00189043 0)
(0.100424 0.00192858 0)
(0.100462 0.0019677 0)
(0.100503 0.00200725 0)
(0.100546 0.0020465 0)
(0.100591 0.00208506 0)
(0.100638 0.00212288 0)
(0.100688 0.00216004 0)
(0.10074 0.00219658 0)
(0.100795 0.00223248 0)
(0.100852 0.00226766 0)
(0.100912 0.00230198 0)
(0.100974 0.00233531 0)
(0.101038 0.00236748 0)
(0.101105 0.00239834 0)
(0.101175 0.00242771 0)
(0.122843 0.00098197 0)
(0.0839974 0.0017411 0)
(0.107283 0.00120652 0)
(0.0977388 0.000702307 0)
(0.0994215 0.000482604 0)
(0.099806 0.000408265 0)
(0.0995643 0.000383771 0)
(0.0995575 0.000375087 0)
(0.0995609 0.000372972 0)
(0.122842 0.00101314 0)
(0.083993 0.00179508 0)
(0.107276 0.00124149 0)
(0.0977306 0.000719523 0)
(0.0994149 0.000491863 0)
(0.0998007 0.000414496 0)
(0.0995606 0.000388748 0)
(0.0995556 0.000379458 0)
(0.0995607 0.000377044 0)
(0.0995505 0.00037916 0)
(0.0995415 0.00038504 0)
(0.0995332 0.000394218 0)
(0.0995245 0.000406328 0)
(0.0995155 0.000421047 0)
(0.0995061 0.000438115 0)
(0.0994962 0.000457314 0)
(0.0994859 0.000478475 0)
(0.0994753 0.000501465 0)
(0.0994643 0.000526176 0)
(0.0994529 0.000552533 0)
(0.0994413 0.000580471 0)
(0.0994294 0.000609952 0)
(0.0994174 0.000640942 0)
(0.0994052 0.000673421 0)
(0.0993929 0.00070738 0)
(0.0993806 0.000742812 0)
(0.0993683 0.000779715 0)
(0.0993561 0.000818092 0)
(0.099344 0.000857946 0)
(0.0993321 0.000899282 0)
(0.0993204 0.000942104 0)
(0.0993091 0.000986419 0)
(0.0992981 0.00103223 0)
(0.0992875 0.00107955 0)
(0.0992773 0.00112837 0)
(0.0992678 0.00117869 0)
(0.0992588 0.00123052 0)
(0.0992504 0.00128384 0)
(0.0992428 0.00133866 0)
(0.099236 0.00139497 0)
(0.09923 0.00145275 0)
(0.0992249 0.00151198 0)
(0.0992207 0.00157266 0)
(0.0992176 0.00163475 0)
(0.0992156 0.00169825 0)
(0.0992147 0.00176312 0)
(0.099215 0.00182933 0)
(0.0992166 0.00189685 0)
(0.0992195 0.00196564 0)
(0.0992238 0.00203566 0)
(0.0992295 0.00210685 0)
(0.0992366 0.00217905 0)
(0.099246 0.00225194 0)
(0.0992562 0.00232497 0)
(0.0992675 0.00239758 0)
(0.122841 0.00104517 0)
(0.0839885 0.00185043 0)
(0.107269 0.00127707 0)
(0.0977219 0.000736623 0)
(0.0994078 0.00050065 0)
(0.099795 0.000420083 0)
(0.0995567 0.000393011 0)
(0.0995536 0.000383099 0)
(0.0995605 0.000380398 0)
(0.0995519 0.000382434 0)
(0.0995445 0.000388378 0)
(0.0995377 0.000397716 0)
(0.0995304 0.000410052 0)
(0.0995226 0.000425036 0)
(0.0995144 0.000442391 0)
(0.0995057 0.000461887 0)
(0.0994966 0.000483345 0)
(0.0994871 0.000506626 0)
(0.0994771 0.000531617 0)
(0.0994669 0.000558241 0)
(0.0994564 0.000586427 0)
(0.0994456 0.000616136 0)
(0.0994347 0.000647331 0)
(0.0994237 0.000679992 0)
(0.0994127 0.000714105 0)
(0.0994016 0.000749663 0)
(0.0993906 0.000786662 0)
(0.0993798 0.000825101 0)
(0.099369 0.000864983 0)
(0.0993586 0.000906309 0)
(0.0993484 0.000949079 0)
(0.0993386 0.000993298 0)
(0.0993292 0.00103897 0)
(0.0993202 0.0010861 0)
(0.0993118 0.00113467 0)
(0.0993039 0.0011847 0)
(0.0992967 0.00123617 0)
(0.0992902 0.00128908 0)
(0.0992845 0.00134342 0)
(0.0992796 0.00139917 0)
(0.0992756 0.00145633 0)
(0.0992725 0.00151486 0)
(0.0992704 0.00157476 0)
(0.0992694 0.001636 0)
(0.0992695 0.00169855 0)
(0.0992708 0.00176238 0)
(0.0992734 0.00182745 0)
(0.0992772 0.00189374 0)
(0.0992824 0.0019612 0)
(0.0992891 0.00202978 0)
(0.0992971 0.00209941 0)
(0.0993065 0.00216994 0)
(0.0993183 0.00224105 0)
(0.0993309 0.00231217 0)
(0.0993446 0.00238278 0)
(0.12284 0.0010781 0)
(0.0839835 0.00190725 0)
(0.107261 0.00131333 0)
(0.0977124 0.000753598 0)
(0.0994003 0.000508927 0)
(0.0997889 0.000424981 0)
(0.0995525 0.000396512 0)
(0.0995514 0.000385969 0)
(0.0995602 0.000383 0)
(0.0995534 0.000384991 0)
(0.0995476 0.000391039 0)
(0.0995423 0.000400576 0)
(0.0995364 0.000413169 0)
(0.0995299 0.000428443 0)
(0.0995229 0.000446102 0)
(0.0995154 0.000465905 0)
(0.0995074 0.000487664 0)
(0.099499 0.000511233 0)
(0.0994901 0.000536496 0)
(0.099481 0.000563371 0)
(0.0994716 0.000591787 0)
(0.099462 0.0006217 0)
(0.0994522 0.000653075 0)
(0.0994424 0.000685886 0)
(0.0994325 0.000720121 0)
(0.0994227 0.000755769 0)
(0.099413 0.000792824 0)
(0.0994034 0.000831284 0)
(0.0993941 0.000871148 0)
(0.099385 0.000912415 0)
(0.0993763 0.000955084 0)
(0.099368 0.000999157 0)
(0.0993601 0.00104464 0)
(0.0993528 0.00109152 0)
(0.099346 0.0011398 0)
(0.0993398 0.00118947 0)
(0.0993343 0.00124052 0)
(0.0993296 0.00129296 0)
(0.0993257 0.00134675 0)
(0.0993227 0.00140189 0)
(0.0993206 0.00145835 0)
(0.0993195 0.00151612 0)
(0.0993194 0.00157518 0)
(0.0993204 0.00163549 0)
(0.0993226 0.00169702 0)
(0.099326 0.00175975 0)
(0.0993307 0.00182363 0)
(0.0993367 0.00188862 0)
(0.0993441 0.00195468 0)
(0.0993529 0.00202176 0)
(0.0993632 0.00208978 0)
(0.0993748 0.00215858 0)
(0.0993888 0.00222784 0)
(0.0994036 0.00229701 0)
(0.0994195 0.00236558 0)
(0.122839 0.00111199 0)
(0.0839783 0.00196567 0)
(0.107252 0.00135031 0)
(0.0977022 0.000770437 0)
(0.0993921 0.00051665 0)
(0.0997823 0.000429132 0)
(0.099548 0.000399198 0)
(0.099549 0.000388019 0)
(0.0995598 0.000384815 0)
(0.0995548 0.000386805 0)
(0.0995507 0.000393004 0)
(0.099547 0.000402784 0)
(0.0995425 0.000415671 0)
(0.0995373 0.000431264 0)
(0.0995316 0.000449247 0)
(0.0995252 0.000469369 0)
(0.0995184 0.000491432 0)
(0.099511 0.000515288 0)
(0.0995033 0.000540815 0)
(0.0994952 0.000567928 0)
(0.0994869 0.000596557 0)
(0.0994784 0.000626653 0)
(0.0994698 0.00065818 0)
(0.0994611 0.000691114 0)
(0.0994524 0.000725437 0)
(0.0994438 0.00076114 0)
(0.0994354 0.000798213 0)
(0.0994271 0.000836653 0)
(0.0994191 0.000876457 0)
(0.0994114 0.00091762 0)
(0.0994041 0.000960141 0)
(0.0993973 0.00100402 0)
(0.0993909 0.00104925 0)
(0.0993851 0.00109583 0)
(0.0993799 0.00114376 0)
(0.0993754 0.00119302 0)
(0.0993716 0.00124361 0)
(0.0993686 0.0012955 0)
(0.0993665 0.00134869 0)
(0.0993653 0.00140315 0)
(0.099365 0.00145887 0)
(0.0993658 0.00151582 0)
(0.0993676 0.00157397 0)
(0.0993706 0.00163329 0)
(0.0993748 0.00169375 0)
(0.0993802 0.00175532 0)
(0.0993869 0.00181794 0)
(0.0993949 0.00188158 0)
(0.0994043 0.00194619 0)
(0.0994153 0.00201172 0)
(0.0994276 0.00207807 0)
(0.0994413 0.00214511 0)
(0.0994574 0.00221248 0)
(0.0994743 0.00227965 0)
(0.0994923 0.00234614 0)
(0.122838 0.00114691 0)
(0.0839726 0.00202584 0)
(0.107243 0.00138809 0)
(0.097691 0.000787115 0)
(0.0993832 0.000523763 0)
(0.0997752 0.000432472 0)
(0.0995431 0.000401005 0)
(0.0995464 0.000389199 0)
(0.0995593 0.000385802 0)
(0.0995563 0.000387848 0)
(0.099554 0.000394254 0)
(0.0995518 0.000404329 0)
(0.0995487 0.000417551 0)
(0.0995449 0.000433495 0)
(0.0995404 0.000451825 0)
(0.0995352 0.00047228 0)
(0.0995294 0.000494655 0)
(0.0995232 0.000518796 0)
(0.0995165 0.00054458 0)
(0.0995095 0.000571919 0)
(0.0995023 0.000600743 0)
(0.0994949 0.000631 0)
(0.0994874 0.000662657 0)
(0.0994798 0.000695684 0)
(0.0994723 0.000730066 0)
(0.099465 0.000765788 0)
(0.0994577 0.000802844 0)
(0.0994507 0.000841224 0)
(0.0994441 0.000880926 0)
(0.0994377 0.000921942 0)
(0.0994318 0.00096427 0)
(0.0994264 0.00100791 0)
(0.0994215 0.00105285 0)
(0.0994172 0.00109908 0)
(0.0994136 0.0011466 0)
(0.0994107 0.0011954 0)
(0.0994085 0.00124546 0)
(0.0994072 0.00129676 0)
(0.0994068 0.00134929 0)
(0.0994073 0.00140303 0)
(0.0994088 0.00145794 0)
(0.0994114 0.00151401 0)
(0.0994151 0.0015712 0)
(0.0994199 0.00162949 0)
(0.099426 0.00168883 0)
(0.0994333 0.00174917 0)
(0.0994419 0.00181049 0)
(0.0994519 0.00187273 0)
(0.0994632 0.00193585 0)
(0.0994761 0.00199978 0)
(0.0994904 0.00206443 0)
(0.099506 0.00212966 0)
(0.099524 0.00219511 0)
(0.0995428 0.00226026 0)
(0.0995627 0.00232466 0)
(0.122837 0.00118292 0)
(0.0839665 0.00208794 0)
(0.107233 0.00142674 0)
(0.0976789 0.000803601 0)
(0.0993736 0.0005302 0)
(0.0997676 0.00043492 0)
(0.099538 0.000401861 0)
(0.0995437 0.00038945 0)
(0.0995589 0.000385919 0)
(0.0995579 0.00038809 0)
(0.0995573 0.000394771 0)
(0.0995567 0.000405199 0)
(0.0995551 0.000418804 0)
(0.0995526 0.000435135 0)
(0.0995493 0.000453839 0)
(0.0995453 0.000474642 0)
(0.0995406 0.000497335 0)
(0.0995355 0.000521763 0)
(0.0995299 0.000547797 0)
(0.0995239 0.00057535 0)
(0.0995178 0.000604354 0)
(0.0995114 0.000634753 0)
(0.099505 0.000666514 0)
(0.0994986 0.000699608 0)
(0.0994923 0.000734018 0)
(0.099486 0.000769728 0)
(0.09948 0.00080673 0)
(0.0994743 0.000845014 0)
(0.0994689 0.000884574 0)
(0.0994639 0.000925403 0)
(0.0994593 0.000967494 0)
(0.0994553 0.00101084 0)
(0.0994518 0.00105544 0)
(0.099449 0.00110128 0)
(0.0994469 0.00114835 0)
(0.0994455 0.00119664 0)
(0.099445 0.00124612 0)
(0.0994453 0.00129678 0)
(0.0994465 0.00134861 0)
(0.0994487 0.00140156 0)
(0.0994519 0.00145562 0)
(0.0994562 0.00151077 0)
(0.0994617 0.00156695 0)
(0.0994683 0.00162415 0)
(0.0994761 0.00168232 0)
(0.0994852 0.00174141 0)
(0.0994957 0.00180138 0)
(0.0995075 0.00186218 0)
(0.0995207 0.00192376 0)
(0.0995354 0.00198606 0)
(0.0995515 0.00204898 0)
(0.0995689 0.00211237 0)
(0.0995887 0.00217588 0)
(0.0996093 0.00223899 0)
(0.0996309 0.00230128 0)
(0.122835 0.00122011 0)
(0.0839598 0.00215217 0)
(0.107221 0.00146633 0)
(0.0976657 0.000819853 0)
(0.0993632 0.000535875 0)
(0.0997594 0.000436381 0)
(0.0995325 0.000401681 0)
(0.0995409 0.000388709 0)
(0.0995584 0.000385121 0)
(0.0995595 0.000387504 0)
(0.0995608 0.000394537 0)
(0.0995618 0.000405387 0)
(0.0995617 0.000419427 0)
(0.0995605 0.000436185 0)
(0.0995584 0.00045529 0)
(0.0995555 0.00047646 0)
(0.099552 0.000499481 0)
(0.0995479 0.000524194 0)
(0.0995433 0.000550475 0)
(0.0995385 0.000578231 0)
(0.0995333 0.000607398 0)
(0.0995281 0.00063792 0)
(0.0995227 0.000669763 0)
(0.0995174 0.000702898 0)
(0.0995122 0.000737307 0)
(0.0995071 0.000772974 0)
(0.0995023 0.000809888 0)
(0.0994978 0.00084804 0)
(0.0994936 0.00088742 0)
(0.0994899 0.000928022 0)
(0.0994866 0.000969837 0)
(0.099484 0.00101286 0)
(0.0994819 0.00105708 0)
(0.0994805 0.00110248 0)
(0.0994799 0.00114905 0)
(0.09948 0.00119677 0)
(0.099481 0.00124564 0)
(0.0994828 0.00129561 0)
(0.0994856 0.00134668 0)
(0.0994895 0.00139881 0)
(0.0994943 0.00145198 0)
(0.0995003 0.00150615 0)
(0.0995074 0.00156128 0)
(0.0995157 0.00161735 0)
(0.0995252 0.00167431 0)
(0.0995361 0.0017321 0)
(0.0995482 0.00179069 0)
(0.0995617 0.00185002 0)
(0.0995766 0.00191004 0)
(0.099593 0.00197068 0)
(0.0996108 0.00203185 0)
(0.0996299 0.00209338 0)
(0.0996514 0.00215494 0)
(0.0996736 0.002216 0)
(0.0996968 0.00227618 0)
(0.122834 0.00125858 0)
(0.0839524 0.00221879 0)
(0.107209 0.00150694 0)
(0.0976511 0.000835813 0)
(0.099352 0.000540687 0)
(0.0997506 0.000436741 0)
(0.0995267 0.000400371 0)
(0.099538 0.000386906 0)
(0.099558 0.000383362 0)
(0.0995613 0.000386061 0)
(0.0995644 0.000393538 0)
(0.0995671 0.000404884 0)
(0.0995684 0.000419419 0)
(0.0995686 0.000436649 0)
(0.0995677 0.000456185 0)
(0.0995659 0.00047774 0)
(0.0995635 0.000501098 0)
(0.0995604 0.0005261 0)
(0.0995569 0.000552623 0)
(0.099553 0.000580572 0)
(0.0995489 0.000609888 0)
(0.0995447 0.000640513 0)
(0.0995404 0.000672416 0)
(0.0995362 0.000705567 0)
(0.099532 0.000739947 0)
(0.0995281 0.00077554 0)
(0.0995244 0.000812334 0)
(0.0995211 0.00085032 0)
(0.0995182 0.000889485 0)
(0.0995157 0.000929823 0)
(0.0995138 0.000971323 0)
(0.0995124 0.00101398 0)
(0.0995117 0.00105777 0)
(0.0995117 0.00110269 0)
(0.0995124 0.00114872 0)
(0.099514 0.00119585 0)
(0.0995165 0.00124404 0)
(0.0995198 0.00129329 0)
(0.0995242 0.00134356 0)
(0.0995295 0.00139483 0)
(0.099536 0.00144705 0)
(0.0995435 0.00150021 0)
(0.0995522 0.00155426 0)
(0.0995621 0.00160917 0)
(0.0995733 0.00166487 0)
(0.0995857 0.00172134 0)
(0.0995995 0.00177852 0)
(0.0996146 0.00183635 0)
(0.0996311 0.00189478 0)
(0.0996491 0.00195374 0)
(0.0996685 0.00201315 0)
(0.0996891 0.00207282 0)
(0.0997121 0.00213242 0)
(0.0997358 0.00219144 0)
(0.0997605 0.00224951 0)
(0.122832 0.00129841 0)
(0.0839443 0.0022881 0)
(0.107195 0.00154866 0)
(0.097635 0.000851403 0)
(0.0993397 0.00054451 0)
(0.0997412 0.000435867 0)
(0.0995206 0.000397819 0)
(0.099535 0.000383966 0)
(0.0995577 0.000380594 0)
(0.0995632 0.000383733 0)
(0.0995683 0.00039176 0)
(0.0995727 0.000403688 0)
(0.0995754 0.000418784 0)
(0.0995768 0.000436532 0)
(0.0995772 0.000456531 0)
(0.0995765 0.000478493 0)
(0.0995751 0.000502199 0)
(0.0995731 0.000527492 0)
(0.0995706 0.000554251 0)
(0.0995677 0.000582385 0)
(0.0995646 0.000611834 0)
(0.0995614 0.000642545 0)
(0.0995581 0.000674486 0)
(0.0995549 0.000707628 0)
(0.0995519 0.000741953 0)
(0.099549 0.000777443 0)
(0.0995465 0.000814087 0)
(0.0995443 0.000851873 0)
(0.0995426 0.00089079 0)
(0.0995413 0.000930828 0)
(0.0995406 0.000971976 0)
(0.0995405 0.00101422 0)
(0.0995411 0.00105755 0)
(0.0995425 0.00110195 0)
(0.0995446 0.00114741 0)
(0.0995476 0.00119389 0)
(0.0995514 0.00124139 0)
(0.0995562 0.00128987 0)
(0.099562 0.0013393 0)
(0.0995689 0.00138966 0)
(0.0995768 0.00144092 0)
(0.0995859 0.00149303 0)
(0.0995961 0.00154596 0)
(0.0996075 0.00159966 0)
(0.0996202 0.0016541 0)
(0.0996342 0.00170921 0)
(0.0996494 0.00176495 0)
(0.0996661 0.00182127 0)
(0.0996841 0.0018781 0)
(0.0997036 0.00193537 0)
(0.0997244 0.001993 0)
(0.0997465 0.00205081 0)
(0.0997709 0.00210845 0)
(0.0997959 0.00216543 0)
(0.0998219 0.00222142 0)
(0.122831 0.00133971 0)
(0.0839353 0.0023605 0)
(0.107179 0.00159157 0)
(0.0976173 0.000866518 0)
(0.0993264 0.000547185 0)
(0.0997311 0.000433598 0)
(0.0995142 0.000393902 0)
(0.099532 0.000379806 0)
(0.0995575 0.000376768 0)
(0.0995654 0.000380496 0)
(0.0995724 0.000389196 0)
(0.0995784 0.000401799 0)
(0.0995826 0.000417527 0)
(0.0995854 0.000435843 0)
(0.0995868 0.00045634 0)
(0.0995873 0.000478729 0)
(0.0995869 0.000502795 0)
(0.0995859 0.00052838 0)
(0.0995843 0.000555372 0)
(0.0995824 0.000583681 0)
(0.0995803 0.00061325 0)
(0.0995781 0.00064403 0)
(0.0995758 0.000675988 0)
(0.0995737 0.000709098 0)
(0.0995717 0.000743341 0)
(0.0995699 0.000778701 0)
(0.0995684 0.000815165 0)
(0.0995674 0.000852721 0)
(0.0995668 0.000891356 0)
(0.0995667 0.000931061 0)
(0.0995672 0.000971822 0)
(0.0995684 0.00101363 0)
(0.0995703 0.00105646 0)
(0.0995729 0.00110031 0)
(0.0995763 0.00114514 0)
(0.0995806 0.00119095 0)
(0.0995858 0.00123771 0)
(0.099592 0.00128538 0)
(0.0995992 0.00133395 0)
(0.0996075 0.00138337 0)
(0.0996168 0.00143362 0)
(0.0996273 0.00148465 0)
(0.099639 0.00153643 0)
(0.0996519 0.00158892 0)
(0.099666 0.00164205 0)
(0.0996814 0.00169579 0)
(0.0996981 0.00175008 0)
(0.0997162 0.00180486 0)
(0.0997356 0.00186008 0)
(0.0997564 0.00191567 0)
(0.0997786 0.00197152 0)
(0.099802 0.00202747 0)
(0.0998276 0.00208316 0)
(0.0998539 0.00213813 0)
(0.0998811 0.00219205 0)
(0.12283 0.00138258 0)
(0.0839253 0.00243644 0)
(0.107161 0.00163573 0)
(0.0975976 0.000881018 0)
(0.0993119 0.000548521 0)
(0.0997203 0.000429742 0)
(0.0995077 0.000388478 0)
(0.0995291 0.000374339 0)
(0.0995576 0.000371838 0)
(0.0995679 0.000376328 0)
(0.0995769 0.000385839 0)
(0.0995846 0.000399222 0)
(0.0995902 0.000415657 0)
(0.0995941 0.000434594 0)
(0.0995967 0.000455624 0)
(0.0995982 0.000478463 0)
(0.0995989 0.000502898 0)
(0.0995988 0.00052878 0)
(0.0995982 0.000556 0)
(0.0995973 0.000584475 0)
(0.0995961 0.00061415 0)
(0.0995948 0.000644981 0)
(0.0995936 0.000676937 0)
(0.0995924 0.000709992 0)
(0.0995914 0.000744129 0)
(0.0995907 0.000779331 0)
(0.0995903 0.000815586 0)
(0.0995903 0.000852882 0)
(0.0995908 0.000891206 0)
(0.0995919 0.000930545 0)
(0.0995936 0.000970888 0)
(0.0995959 0.00101222 0)
(0.099599 0.00105452 0)
(0.0996029 0.00109778 0)
(0.0996076 0.00114196 0)
(0.0996132 0.00118706 0)
(0.0996197 0.00123305 0)
(0.0996272 0.00127989 0)
(0.0996358 0.00132755 0)
(0.0996454 0.00137601 0)
(0.0996561 0.00142522 0)
(0.0996679 0.00147515 0)
(0.0996809 0.00152576 0)
(0.0996952 0.00157699 0)
(0.0997107 0.00162881 0)
(0.0997274 0.00168116 0)
(0.0997455 0.00173398 0)
(0.0997648 0.00178723 0)
(0.0997855 0.00184083 0)
(0.0998076 0.00189473 0)
(0.099831 0.00194881 0)
(0.0998556 0.00200291 0)
(0.0998825 0.00205668 0)
(0.0999099 0.00210965 0)
(0.0999381 0.00216154 0)
(0.122828 0.00142715 0)
(0.083914 0.00251655 0)
(0.10714 0.0016812 0)
(0.0975757 0.000894713 0)
(0.0992961 0.000548273 0)
(0.0997089 0.000424065 0)
(0.099501 0.00038139 0)
(0.0995265 0.000367476 0)
(0.099558 0.000365759 0)
(0.0995707 0.000371212 0)
(0.0995818 0.00038169 0)
(0.0995911 0.000395966 0)
(0.0995981 0.000413188 0)
(0.0996032 0.000432802 0)
(0.0996069 0.000454401 0)
(0.0996094 0.000477709 0)
(0.099611 0.000502526 0)
(0.0996119 0.000528706 0)
(0.0996122 0.00055615 0)
(0.0996122 0.000584782 0)
(0.099612 0.000614549 0)
(0.0996116 0.000645415 0)
(0.0996113 0.000677348 0)
(0.0996111 0.000710327 0)
(0.0996111 0.000744333 0)
(0.0996113 0.000779353 0)
(0.099612 0.000815373 0)
(0.0996131 0.00085238 0)
(0.0996147 0.000890363 0)
(0.0996169 0.000929307 0)
(0.0996197 0.000969199 0)
(0.0996232 0.00101002 0)
(0.0996274 0.00105176 0)
(0.0996325 0.0010944 0)
(0.0996384 0.00113791 0)
(0.0996452 0.00118227 0)
(0.099653 0.00122745 0)
(0.0996618 0.00127342 0)
(0.0996716 0.00132016 0)
(0.0996825 0.00136762 0)
(0.0996945 0.00141577 0)
(0.0997076 0.00146458 0)
(0.0997219 0.00151399 0)
(0.0997375 0.00156396 0)
(0.0997542 0.00161445 0)
(0.0997722 0.00166539 0)
(0.0997915 0.00171675 0)
(0.0998121 0.00176845 0)
(0.099834 0.00182044 0)
(0.0998573 0.00187265 0)
(0.0998819 0.00192498 0)
(0.0999075 0.00197725 0)
(0.0999354 0.00202912 0)
(0.0999638 0.00208013 0)
(0.099993 0.00213001 0)
(0.122827 0.00147357 0)
(0.0839008 0.00260159 0)
(0.107116 0.00172798 0)
(0.0975511 0.000907337 0)
(0.099279 0.000546128 0)
(0.0996969 0.000416289 0)
(0.0994944 0.000372462 0)
(0.0995242 0.000359126 0)
(0.0995589 0.000358493 0)
(0.0995742 0.000365142 0)
(0.0995872 0.000376758 0)
(0.099598 0.000392047 0)
(0.0996064 0.00041014 0)
(0.0996127 0.000430486 0)
(0.0996175 0.000452689 0)
(0.0996209 0.000476488 0)
(0.0996235 0.000501695 0)
(0.0996252 0.000528175 0)
(0.0996265 0.000555838 0)
(0.0996273 0.000584617 0)
(0.099628 0.000614464 0)
(0.0996285 0.000645347 0)
(0.0996291 0.000677239 0)
(0.0996298 0.000710119 0)
(0.0996308 0.000743972 0)
(0.099632 0.000778785 0)
(0.0996337 0.000814543 0)
(0.0996358 0.000851236 0)
(0.0996384 0.00088885 0)
(0.0996417 0.000927371 0)
(0.0996456 0.000966784 0)
(0.0996502 0.00100707 0)
(0.0996556 0.00104822 0)
(0.0996618 0.00109021 0)
(0.0996689 0.00113301 0)
(0.0996769 0.0011766 0)
(0.0996858 0.00122095 0)
(0.0996958 0.00126603 0)
(0.0997068 0.00131181 0)
(0.0997189 0.00135826 0)
(0.0997322 0.00140533 0)
(0.0997465 0.00145299 0)
(0.0997621 0.00150119 0)
(0.0997788 0.00154989 0)
(0.0997968 0.00159903 0)
(0.099816 0.00164857 0)
(0.0998364 0.00169845 0)
(0.0998582 0.00174861 0)
(0.0998812 0.001799 0)
(0.0999055 0.00184954 0)
(0.0999311 0.00190013 0)
(0.0999578 0.00195059 0)
(0.0999866 0.00200059 0)
(0.100016 0.00204967 0)
(0.100046 0.00209758 0)
(0.122826 0.0015221 0)
(0.0838844 0.00269256 0)
(0.107087 0.00177593 0)
(0.0975235 0.000918495 0)
(0.0992605 0.000541673 0)
(0.0996845 0.000406068 0)
(0.099488 0.000361497 0)
(0.0995224 0.000349198 0)
(0.0995605 0.000350008 0)
(0.0995783 0.000358116 0)
(0.0995932 0.000371056 0)
(0.0996056 0.000387486 0)
(0.0996152 0.000406534 0)
(0.0996227 0.000427668 0)
(0.0996284 0.00045051 0)
(0.0996328 0.000474819 0)
(0.0996362 0.000500424 0)
(0.0996389 0.000527205 0)
(0.0996409 0.000555081 0)
(0.0996427 0.000583998 0)
(0.0996442 0.000613911 0)
(0.0996456 0.000644795 0)
(0.0996471 0.000676626 0)
(0.0996487 0.000709388 0)
(0.0996505 0.000743065 0)
(0.0996527 0.000777646 0)
(0.0996554 0.000813118 0)
(0.0996585 0.000849471 0)
(0.0996621 0.000886689 0)
(0.0996664 0.00092476 0)
(0.0996713 0.000963669 0)
(0.099677 0.0010034 0)
(0.0996835 0.00104393 0)
(0.0996908 0.00108524 0)
(0.099699 0.0011273 0)
(0.0997082 0.0011701 0)
(0.0997183 0.0012136 0)
(0.0997294 0.00125777 0)
(0.0997416 0.00130257 0)
(0.0997548 0.00134798 0)
(0.0997692 0.00139395 0)
(0.0997847 0.00144045 0)
(0.0998014 0.00148742 0)
(0.0998193 0.00153483 0)
(0.0998384 0.00158262 0)
(0.0998587 0.00163075 0)
(0.0998803 0.00167915 0)
(0.0999031 0.00172778 0)
(0.0999271 0.00177658 0)
(0.0999525 0.00182546 0)
(0.099979 0.00187434 0)
(0.100007 0.00192303 0)
(0.100036 0.00197119 0)
(0.100066 0.00201838 0)
(0.100097 0.00206438 0)
(0.122824 0.00157336 0)
(0.083862 0.00279084 0)
(0.107051 0.00182459 0)
(0.0974918 0.000927583 0)
(0.0992402 0.000534334 0)
(0.0996715 0.000392972 0)
(0.0994821 0.000348284 0)
(0.0995215 0.00033761 0)
(0.0995629 0.000340287 0)
(0.0995832 0.000350148 0)
(0.0995999 0.000364611 0)
(0.0996138 0.000382312 0)
(0.0996247 0.0004024 0)
(0.0996331 0.000424374 0)
(0.0996398 0.000447887 0)
(0.0996451 0.000472722 0)
(0.0996494 0.000498732 0)
(0.0996528 0.000525813 0)
(0.0996557 0.000553897 0)
(0.0996583 0.00058294 0)
(0.0996606 0.000612906 0)
(0.0996629 0.000643774 0)
(0.0996652 0.000675526 0)
(0.0996677 0.000708148 0)
(0.0996705 0.000741627 0)
(0.0996736 0.000775955 0)
(0.0996771 0.000811117 0)
(0.0996812 0.000847105 0)
(0.0996858 0.000883904 0)
(0.0996911 0.0009215 0)
(0.099697 0.000959878 0)
(0.0997038 0.00099902 0)
(0.0997113 0.00103891 0)
(0.0997197 0.00107952 0)
(0.0997289 0.00112082 0)
(0.0997392 0.0011628 0)
(0.0997504 0.00120543 0)
(0.0997626 0.00124866 0)
(0.0997759 0.00129247 0)
(0.0997902 0.00133683 0)
(0.0998057 0.00138168 0)
(0.0998223 0.001427 0)
(0.0998401 0.00147274 0)
(0.0998591 0.00151885 0)
(0.0998792 0.00156529 0)
(0.0999006 0.001612 0)
(0.0999232 0.00165894 0)
(0.0999469 0.00170604 0)
(0.099972 0.00175325 0)
(0.0999982 0.0018005 0)
(0.100026 0.00184769 0)
(0.100054 0.00189464 0)
(0.100084 0.00194102 0)
(0.100115 0.00198637 0)
(0.100147 0.00203051 0)
(0.122819 0.00162878 0)
(0.0838276 0.00289835 0)
(0.107005 0.00187274 0)
(0.0974547 0.00093363 0)
(0.0992178 0.000523323 0)
(0.099658 0.000376462 0)
(0.0994765 0.000332595 0)
(0.0995212 0.000324301 0)
(0.099566 0.000329332 0)
(0.0995887 0.000341268 0)
(0.0996072 0.000357462 0)
(0.0996225 0.000376565 0)
(0.0996344 0.000397774 0)
(0.0996439 0.000420637 0)