/*--------------------------------*- C++ -*----------------------------------*\
| =========                 |                                                 |
| \\      /  F ield         | OpenFOAM: The Open Source CFD Toolbox           |
|  \\    /   O peration     | Version:  2412                                  |
|   \\  /    A nd           | Website:  www.openfoam.com                      |
|    \\/     M anipulation  |                                                 |
\*---------------------------------------------------------------------------*/
FoamFile
{
    version     2.0;
    format      ascii;
    arch        "LSB;label=32;scalar=64";
    class       volScalarField;
    location    "6.5";
    object      p;
}
// * * * * * * * * * * * * * * * * * * * * * * * * * * * * * * * * * * * * * //

dimensions      [0 2 -2 0 0 0 0];

internalField   nonuniform List<scalar> 
5285
(
-0.000554041
-0.000504135
-0.000522358
-0.000531319
-0.000539041
-0.000544807
-0.000547818
-0.000548267
-0.00054647
-0.000542644
-0.000536991
-0.000529716
-0.000521024
-0.000511111
-0.000500164
-0.000488358
-0.00047586
-0.000462821
-0.000449385
-0.000435679
-0.000421819
-0.000407906
-0.000394031
-0.000380271
-0.000457989
-0.000475881
-0.000485559
-0.000494031
-0.000500665
-0.000504755
-0.000506471
-0.000506084
-0.000503785
-0.000499747
-0.000494155
-0.000487188
-0.000479022
-0.000469825
-0.000459757
-0.000448968
-0.000437601
-0.000425785
-0.000413642
-0.00040128
-0.000388797
-0.000376279
-0.000363803
-0.000415233
-0.000432771
-0.000443024
-0.000452104
-0.000459453
-0.000464456
-0.000467255
-0.000468087
-0.000467116
-0.000464496
-0.000460389
-0.000454954
-0.000448348
-0.000440723
-0.000432222
-0.000422984
-0.00041314
-0.000402809
-0.000392104
-0.000381128
-0.000369974
-0.000358723
-0.000347449
-0.000375542
-0.000392709
-0.000403417
-0.000412986
-0.000420925
-0.000426695
-0.00043042
-0.000432304
-0.000432491
-0.000431115
-0.000428318
-0.000424244
-0.000419031
-0.000412816
-0.00040573
-0.000397899
-0.000389441
-0.00038047
-0.000371088
-0.000361393
-0.000351471
-0.000341401
-0.000331255
-0.000338628
-0.000355415
-0.000366479
-0.000376436
-0.000384856
-0.00039127
-0.000395785
-0.000398577
-0.000399772
-0.000399487
-0.000397848
-0.000394981
-0.000391013
-0.000386064
-0.000380254
-0.000373698
-0.000366504
-0.000358776
-0.00035061
-0.000342097
-0.000333318
-0.000324349
-0.000315256
-0.000304238
-0.000320639
-0.000331976
-0.000342235
-0.000351045
-0.000357998
-0.000363186
-0.000366761
-0.000368832
-0.000369504
-0.000368887
-0.000367093
-0.000364236
-0.000360424
-0.000355765
-0.000350364
-0.00034432
-0.000337729
-0.000330681
-0.000323258
-0.000315538
-0.000307592
-0.000299484
-0.000272147
-0.000288162
-0.0002997
-0.00031019
-0.000319312
-0.000326713
-0.000332472
-0.000336721
-0.000339555
-0.000341065
-0.00034135
-0.000340509
-0.000338643
-0.000335851
-0.000332231
-0.000327877
-0.00032288
-0.000317329
-0.000311306
-0.000304889
-0.00029815
-0.000291155
-0.000283966
-0.000242154
-0.000257784
-0.000269464
-0.000280126
-0.000289492
-0.000297263
-0.000303506
-0.000308334
-0.00031183
-0.000314075
-0.000315156
-0.000315161
-0.000314181
-0.000312304
-0.00030962
-0.000306214
-0.000302171
-0.00029757
-0.000292489
-0.000286998
-0.000281166
-0.000275054
-0.000268721
-0.000214081
-0.000229329
-0.000241103
-0.000251884
-0.000261438
-0.000269511
-0.000276162
-0.000281486
-0.000285557
-0.000288445
-0.000290227
-0.000290984
-0.000290794
-0.00028974
-0.0002879
-0.000285354
-0.000282177
-0.000278445
-0.000274227
-0.00026959
-0.000264596
-0.000259304
-0.000253769
-0.000187769
-0.00020264
-0.000214465
-0.000225322
-0.000235016
-0.000243334
-0.000250326
-0.000256074
-0.000260642
-0.000264093
-0.000266494
-0.000267916
-0.000268433
-0.000268115
-0.000267037
-0.00026527
-0.000262883
-0.000259943
-0.000256517
-0.000252666
-0.000248447
-0.000243915
-0.000239123
-0.000163073
-0.000177576
-0.000189416
-0.000200312
-0.000210104
-0.000218617
-0.000225893
-0.000232002
-0.000236999
-0.000240941
-0.000243887
-0.0002459
-0.000247047
-0.000247391
-0.000247
-0.000245938
-0.000244268
-0.000242054
-0.000239353
-0.000236225
-0.000232722
-0.000228895
-0.000224793
-0.000139867
-0.000154008
-0.000165834
-0.000176738
-0.000186593
-0.000195257
-0.000202766
-0.00020918
-0.000214548
-0.000218918
-0.000222343
-0.000224881
-0.000226589
-0.000227528
-0.000227756
-0.000227332
-0.000226316
-0.000224763
-0.000222728
-0.000220264
-0.000217422
-0.000214248
-0.000210787
-0.000118036
-0.000131823
-0.000143609
-0.000154494
-0.000164381
-0.000173158
-0.000180858
-0.000187529
-0.000193214
-0.000197957
-0.000201804
-0.000204806
-0.000207016
-0.000208487
-0.000209274
-0.000209429
-0.000209006
-0.000208056
-0.000206631
-0.000204779
-0.000202546
-0.000199976
-0.000197111
-9.74742e-05
-0.000110918
-0.00012264
-0.000133484
-0.000143377
-0.000152236
-0.000160088
-0.000166973
-0.00017293
-0.000177996
-0.000182213
-0.000185626
-0.000188284
-0.000190233
-0.000191522
-0.000192201
-0.000192318
-0.00019192
-0.000191053
-0.000189763
-0.000188091
-0.00018608
-0.000183768
-7.80883e-05
-9.11974e-05
-0.000102837
-0.00011362
-0.000123497
-0.00013241
-0.000140381
-0.000147444
-0.000153632
-0.000158977
-0.000163519
-0.000167296
-0.000170352
-0.000172729
-0.000174472
-0.000175625
-0.000176232
-0.000176337
-0.000175981
-0.000175207
-0.000174053
-0.000172559
-0.00017076
-5.97913e-05
-7.25764e-05
-8.41174e-05
-9.4823e-05
-0.000104665
-0.000113608
-0.000121669
-0.000128878
-0.000135261
-0.000140848
-0.000145673
-0.000149772
-0.000153182
-0.000155943
-0.000158094
-0.000159675
-0.000160728
-0.000161291
-0.000161403
-0.000161103
-0.000160426
-0.000159409
-0.000158086
-4.2508e-05
-5.49778e-05
-6.64044e-05
-7.70189e-05
-8.68109e-05
-9.57632e-05
-0.00010389
-0.000111215
-0.000117762
-0.000123557
-0.00012863
-0.000133012
-0.000136737
-0.000139841
-0.000142359
-0.000144329
-0.000145786
-0.000146766
-0.000147306
-0.000147441
-0.000147204
-0.000146627
-0.000145744
-2.61729e-05
-3.83349e-05
-4.9629e-05
-6.01397e-05
-6.98691e-05
-7.88136e-05
-8.69854e-05
-9.44025e-05
-0.000101086
-0.000107058
-0.000112345
-0.000116977
-0.000120982
-0.000124392
-0.000127241
-0.00012956
-0.000131384
-0.000132745
-0.000133676
-0.00013421
-0.000134377
-0.000134208
-0.000133732
-0.000369118
-0.00040475
-0.000328366
-0.000362173
-0.000394811
-0.000426225
-0.000456437
-0.000484879
-0.000510869
-0.000290679
-0.000322812
-0.000353832
-0.000383691
-0.000412401
-0.000439455
-0.000464272
-0.000255758
-0.000286348
-0.000315877
-0.0003443
-0.000371623
-0.000397394
-0.000421115
-0.000223338
-0.000252502
-0.000280654
-0.000307747
-0.000333786
-0.000358369
-0.000381066
-0.000193185
-0.00022103
-0.000247904
-0.000273765
-0.000298614
-0.000322092
-0.000343832
-0.000165092
-0.000191713
-0.000217401
-0.000242117
-0.000265859
-0.00028831
-0.000309153
-0.000138876
-0.000164358
-0.000188943
-0.000212594
-0.000235305
-0.0002568
-0.000276801
-0.000114373
-0.000138795
-0.000162351
-0.000185008
-0.000206758
-0.000227361
-0.000246574
-9.14361e-05
-0.000114868
-0.000137464
-0.000159194
-0.000180047
-0.000199816
-0.00021829
-6.99406e-05
-9.24422e-05
-0.000114141
-0.000135003
-0.000155018
-0.000174006
-0.000191788
-4.97549e-05
-7.13922e-05
-9.22509e-05
-0.000112301
-0.000131531
-0.00014979
-0.000166922
-3.07839e-05
-5.16095e-05
-7.16803e-05
-9.0969e-05
-0.000109464
-0.000127039
-0.00014356
-1.29317e-05
-3.29942e-05
-5.2325e-05
-7.08989e-05
-8.8704e-05
-0.000105637
-0.000121584
3.88843e-06
-1.54562e-05
-3.4091e-05
-5.19927e-05
-6.91492e-05
-8.54774e-05
-0.000100885
1.97548e-05
1.08632e-06
-1.68931e-05
-3.41618e-05
-5.07075e-05
-6.64658e-05
-8.13627e-05
3.47384e-05
1.67075e-05
-6.53931e-07
-1.73256e-05
-3.32952e-05
-4.85147e-05
-6.29272e-05
4.89041e-05
3.14759e-05
1.46986e-05
-1.40911e-06
-1.68346e-05
-3.1544e-05
-4.54965e-05
6.23104e-05
4.54541e-05
2.92303e-05
1.3656e-05
-1.2569e-06
-1.54865e-05
-2.90047e-05
7.50086e-05
5.86863e-05
4.29808e-05
2.79083e-05
1.34801e-05
-2.9177e-07
-1.33893e-05
-0.000294486
-0.000332352
-6.43218e-05
-0.000108281
-0.0001452
-0.000182765
-0.000220593
-0.000257553
-0.000293476
-3.98454e-05
-8.12773e-05
-0.000116522
-0.0001523
-0.000188248
-0.000223371
-0.000257514
-1.70229e-05
-5.61665e-05
-8.98767e-05
-0.000124015
-0.000158239
-0.000191674
-0.000224181
4.28229e-06
-3.27819e-05
-6.508e-05
-9.77082e-05
-0.000130347
-0.000162228
-0.000193228
2.41944e-05
-1.09747e-05
-4.19688e-05
-7.32026e-05
-0.000104379
-0.000134826
-0.000164432
4.28256e-05
9.38862e-06
-2.03973e-05
-5.03395e-05
-8.01631e-05
-0.000109284
-0.000137598
6.02776e-05
2.84282e-05
-2.34734e-07
-2.89773e-05
-5.75472e-05
-8.54365e-05
-0.000112551
7.66429e-05
4.62525e-05
1.86363e-05
-8.98919e-06
-3.6394e-05
-6.3138e-05
-8.91345e-05
9.20057e-05
6.29591e-05
3.63214e-05
9.73826e-06
-1.65817e-05
-4.2258e-05
-6.72055e-05
0.000106442
7.86365e-05
5.29156e-05
2.73074e-05
1.99895e-06
-2.26872e-05
-4.66898e-05
0.000120022
9.33646e-05
6.85051e-05
4.38113e-05
1.94504e-05
-4.30175e-06
-2.73823e-05
0.000132809
0.000107216
8.31675e-05
5.93329e-05
3.58602e-05
1.29826e-05
-9.24157e-06
0.00014486
0.000120256
9.69729e-05
7.39471e-05
5.1308e-05
2.92505e-05
7.82798e-06
0.000156228
0.000132546
0.000109985
8.77218e-05
6.58667e-05
4.45803e-05
2.39115e-05
0.000166962
0.000144138
0.000122262
0.000100719
7.96028e-05
5.90429e-05
3.90838e-05
0.000177105
0.000155083
0.000133857
0.000112996
9.25779e-05
7.27034e-05
5.34128e-05
0.000186697
0.000165424
0.000144815
0.000124602
0.000104847
8.5612e-05
6.69586e-05
0.000195783
0.000175209
0.000155183
0.00013558
0.000116437
9.78296e-05
7.97776e-05
0.000204386
0.000184486
0.000165031
0.00014601
0.000127458
0.00010942
9.1928e-05
0.00112731
0.00111807
0.00110777
0.00109635
0.00108374
0.00106986
0.00105463
0.00103798
0.00101984
0.00100012
0.000978757
0.000955671
0.000930797
0.000904069
0.000875431
0.000844831
0.000812231
0.000777599
0.000740921
0.000702196
0.00066144
0.00061869
0.000574002
0.000527459
0.000479166
0.000429255
0.000377886
0.000325247
0.000271552
0.000217047
0.000161995
0.000106635
5.16379e-05
-1.92241e-06
0.00110427
0.0010946
0.00108391
0.00107214
0.00105921
0.00104506
0.00102962
0.00101283
0.000994617
0.00097491
0.000953648
0.000930769
0.000906214
0.000879929
0.000851869
0.000821993
0.000790271
0.000756686
0.000721229
0.000683909
0.00064475
0.000603794
0.000561101
0.000516753
0.000470854
0.000423533
0.00037494
0.00032525
0.000274664
0.000223406
0.000171716
0.000119809
6.82884e-05
1.81082e-05
0.00108213
0.00107209
0.00106107
0.001049
0.00103581
0.00102146
0.00100587
0.000988996
0.000970767
0.000951128
0.000930022
0.000907397
0.000883202
0.000857396
0.000829939
0.000800802
0.000769965
0.000737416
0.000703156
0.000667201
0.00062958
0.000590337
0.000549537
0.00050726
0.000463609
0.000418705
0.00037269
0.00032573
0.000278009
0.000229732
0.000181117
0.000132361
8.40031e-05
3.68907e-05
0.00106086
0.00105051
0.00103921
0.00102689
0.00101351
0.000999003
0.000983322
0.000966413
0.000948221
0.000928697
0.000907791
0.000885459
0.000861659
0.000836357
0.000809523
0.000781134
0.000751178
0.000719651
0.000686561
0.000651926
0.000615781
0.000578173
0.000539167
0.000498843
0.0004573
0.000414652
0.000371036
0.000326602
0.000281523
0.000235986
0.00019019
0.000144314
9.88401e-05
5.45192e-05
0.00104044
0.00102983
0.00101829
0.00100578
0.000992249
0.000977642
0.000961915
0.000945019
0.000926909
0.000907541
0.000886872
0.000864866
0.000841488
0.00081671
0.00079051
0.000762872
0.00073379
0.000703266
0.000671312
0.000637951
0.000603221
0.000567171
0.000529865
0.000491381
0.000451814
0.000411274
0.000369887
0.000327795
0.000285155
0.000242141
0.000198933
0.000155694
0.000112855
7.10794e-05
0.00102085
0.00101002
0.000998296
0.000985635
0.000971994
0.000957329
0.000941597
0.000924755
0.000906765
0.000887587
0.000867186
0.000845532
0.000822596
0.000798356
0.000772796
0.000745907
0.000717687
0.000688143
0.000657291
0.000625158
0.000591782
0.000557213
0.000521515
0.000484765
0.000447052
0.00040848
0.000369168
0.000329248
0.000288864
0.000248175
0.000207346
0.000166526
0.000126099
8.66502e-05
0.00100206
0.00099105
0.000979178
0.000966408
0.000952699
0.000938014
0.000922314
0.000905562
0.000887723
0.000868765
0.000848658
0.000827376
0.000804897
0.000781204
0.000756287
0.00073014
0.000702766
0.000674177
0.00064439
0.000613436
0.000581354
0.000548194
0.000514018
0.0004789
0.000442925
0.000406193
0.000368814
0.000330909
0.000292613
0.000254071
0.000215433
0.000176835
0.00013862
0.000101304
0.000984047
0.000972889
0.000960906
0.000948062
0.000934322
0.000919651
0.000904015
0.000887383
0.000869723
0.000851009
0.000831216
0.000810322
0.00078831
0.00076517
0.000740892
0.000715478
0.000688932
0.00066127
0.000632512
0.000602689
0.000571842
0.000540019
0.000507283
0.000473702
0.000439359
0.000404347
0.000368768
0.000332736
0.000296375
0.000259817
0.000223199
0.000186648
0.000150466
0.000115106
0.000966777
0.000955507
0.000943446
0.000930561
0.000916821
0.000902193
0.00088665
0.000870163
0.000852706
0.000834256
0.000814792
0.000794298
0.000772761
0.000750173
0.00072653
0.000701835
0.000676098
0.000649334
0.000621567
0.000592828
0.000563158
0.000532606
0.000501229
0.000469097
0.000436285
0.000402882
0.000368982
0.000334692
0.000300126
0.000265404
0.000230653
0.000195988
0.000161678
0.000128119
0.000950226
0.000938875
0.000926766
0.000913868
0.000900154
0.000885597
0.00087017
0.00085385
0.000836615
0.000818445
0.000799324
0.000779238
0.000758179
0.000736141
0.000713124
0.000689135
0.000664183
0.000638288
0.000611474
0.000583773
0.000555225
0.000525878
0.000495788
0.000465019
0.000433645
0.000401747
0.000369415
0.000336747
0.000303847
0.000270828
0.000237804
0.000204881
0.000172298
0.000140398
0.000934367
0.000922962
0.00091083
0.000897945
0.000884283
0.000869818
0.000854529
0.000838395
0.000821398
0.00080352
0.000784751
0.000765078
0.000744497
0.000723004
0.000700604
0.000677303
0.000653115
0.000628059
0.000602161
0.000575452
0.000547973
0.000519768
0.000490894
0.00046141
0.000431386
0.000400899
0.000370031
0.000338874
0.000307524
0.000276085
0.000244661
0.00021335
0.000182361
0.000151995
0.000919174
0.000907739
0.000895609
0.000882759
0.000869169
0.000854816
0.000839682
0.00082375
0.000807003
0.000789428
0.000771016
0.000751759
0.000731654
0.000710701
0.000688905
0.000666275
0.000642827
0.000618579
0.00059356
0.000567799
0.000541336
0.000514217
0.000486491
0.000458218
0.000429463
0.000400298
0.000370799
0.000341052
0.000311145
0.000281174
0.000251234
0.000221416
0.000191904
0.000162956
0.00090462
0.000893177
0.000881069
0.000868274
0.000854775
0.000840551
0.000825588
0.000809869
0.000793383
0.000776118
0.000758068
0.000739226
0.000719593
0.000699171
0.000677966
0.000655989
0.000633256
0.000609787
0.00058561
0.000560755
0.00053526
0.000509168
0.000482529
0.000455398
0.000427836
0.00039991
0.000371693
0.000343263
0.000314701
0.000286095
0.000257534
0.000229102
0.000200958
0.000173326
0.00089068
0.000879248
0.00086718
0.000854458
0.000841066
0.000826986
0.000812205
0.000796711
0.000780493
0.000763543
0.000745855
0.000727428
0.000708262
0.00068836
0.000667731
0.000646388
0.000624346
0.000601627
0.000578257
0.000554266
0.000529692
0.000504576
0.000478964
0.00045291
0.00042647
0.000399708
0.00037269
0.00034549
0.000318183
0.00029085
0.000263572
0.000236427
0.000209554
0.000183144
0.000877328
0.000865924
0.000853914
0.000841279
0.000828007
0.000814083
0.000799495
0.000784234
0.00076829
0.000751657
0.000734333
0.000716316
0.000697609
0.000678218
0.000658151
0.000637421
0.000616046
0.000594047
0.00057145
0.000548284
0.000524586
0.000500394
0.000475755
0.000450716
0.000425333
0.000399663
0.000373771
0.000347722
0.000321587
0.000295441
0.000269358
0.000243411
0.00021772
0.000192446
0.000864539
0.00085318
0.00084124
0.000828707
0.000815567
0.000801809
0.000787422
0.000772399
0.000756733
0.000740419
0.000723457
0.000705846
0.000687591
0.000668697
0.000649176
0.000629041
0.000608309
0.000587001
0.000565143
0.000542765
0.0005199
0.000496586
0.000472866
0.000448786
0.000424397
0.000399755
0.000374918
0.000349947
0.000324909
0.000299871
0.000274903
0.000250072
0.000225481
0.000201266
0.00085229
0.000840988
0.000829132
0.000816711
0.000803713
0.000790129
0.00077595
0.00076117
0.000745785
0.00072979
0.000713186
0.000695975
0.000678163
0.000659755
0.000640764
0.000621203
0.00060109
0.000580446
0.000559296
0.000537669
0.000515596
0.000493114
0.000470265
0.00044709
0.00042364
0.000399964
0.000376117
0.000352158
0.000328145
0.000304144
0.000280217
0.000256427
0.000232863
0.000209635
0.000840558
0.000829325
0.000817563
0.000805264
0.000792417
0.000779014
0.000765048
0.000750514
0.000735409
0.000719732
0.000703483
0.000686666
0.000669286
0.000651351
0.000632874
0.000613868
0.000594351
0.000574344
0.000553871
0.000532959
0.00051164
0.000489949
0.000467923
0.000445604
0.000423038
0.000400272
0.000377356
0.000354345
0.000331295
0.000308263
0.000285309
0.000262492
0.000239886
0.000217583
0.000829319
0.000818165
0.000806508
0.000794339
0.000781649
0.000768432
0.000754682
0.000740397
0.000725573
0.000710211
0.000694312
0.00067788
0.000660923
0.000643449
0.000625469
0.000606999
0.000588055
0.000568658
0.000548832
0.000528603
0.000508002
0.00048706
0.000465815
0.000444305
0.000422573
0.000400664
0.000378624
0.000356505
0.000334357
0.000312234
0.000290191
0.000268283
0.000246571
0.000225133
0.000818774
0.000807706
0.000796159
0.000784123
0.000771593
0.000758562
0.000745027
0.000730985
0.000716435
0.000701378
0.000685816
0.000669755
0.000653201
0.000636164
0.000618656
0.000600691
0.000582287
0.000563464
0.000544244
0.000524653
0.00050472
0.000484476
0.000463955
0.000443195
0.000422235
0.000401117
0.000379885
0.000358586
0.000337268
0.00031598
0.000294774
0.000273699
0.000252808
0.000232157
0.000808766
0.000797792
0.000786359
0.000774461
0.000762092
0.000749249
0.000735927
0.000722126
0.000707845
0.000693085
0.000677851
0.000662148
0.000645984
0.000629367
0.00061231
0.000594828
0.000576938
0.000558659
0.000540013
0.000521025
0.000501722
0.000482135
0.000462295
0.000442238
0.000422
0.000401622
0.000381145
0.000360612
0.000340067
0.000319557
0.000299129
0.00027883
0.000258707
0.000238809
0.000798976
0.000788103
0.000776793
0.00076504
0.00075284
0.000740189
0.000727085
0.000713529
0.000699519
0.000685059
0.000670153
0.000654807
0.000639028
0.000622827
0.000606216
0.000589209
0.000571822
0.000554076
0.00053599
0.000517589
0.000498899
0.000479949
0.000460768
0.000441391
0.000421852
0.000402187
0.000382436
0.00036264
0.000342839
0.000323077
0.000303396
0.000283841
0.000264457
0.000245286
0.000789406
0.000778642
0.000767461
0.00075586
0.000743834
0.000731381
0.0007185
0.00070519
0.000691454
0.000677295
0.000662716
0.000647724
0.000632328
0.000616538
0.000600365
0.000583825
0.000566932
0.000549706
0.000532167
0.000514338
0.000496243
0.00047791
0.000459368
0.000440648
0.000421782
0.000402805
0.000383754
0.000364666
0.00034558
0.000326535
0.000307572
0.000288732
0.000270055
0.000251583
0.000780057
0.000769409
0.000758365
0.000746921
0.000735074
0.000722824
0.000710168
0.000697109
0.000683648
0.000669788
0.000655536
0.000640897
0.000625879
0.000610494
0.000594753
0.00057867
0.00056226
0.000545543
0.000528536
0.000511263
0.000493746
0.000476012
0.000458087
0.000440001
0.000421785
0.000403472
0.000385094
0.000366688
0.000348288
0.000329932
0.000311658
0.000293502
0.000275504
0.000257701
0.000770931
0.000760405
0.000749503
0.000738222
0.00072656
0.000714515
0.000702088
0.000689281
0.000676095
0.000662536
0.000648608
0.000634318
0.000619675
0.000604689
0.000589371
0.000573737
0.0005578
0.000541578
0.00052509
0.000508357
0.000491401
0.000474246
0.000456918
0.000439446
0.000421857
0.000404181
0.000386452
0.0003687
0.00035096
0.000333265
0.000315651
0.000298153
0.000280805
0.000263643
0.000772069
0.000762027
0.000751631
0.000740877
0.000729763
0.000718289
0.000706453
0.000694257
0.000681703
0.000668793
0.000655532
0.000641926
0.000627982
0.000613708
0.000599115
0.000584214
0.000569018
0.000553543
0.000537805
0.000521821
0.000505612
0.0004892
0.000472606
0.000455856
0.000438975
0.00042199
0.000404929
0.000387822
0.0003707
0.000353593
0.000336533
0.000319553
0.000302684
0.000285959
0.000269411
0.000763273
0.000753347
0.000743085
0.000732484
0.000721542
0.000710259
0.000698635
0.000686671
0.000674371
0.000661736
0.000648773
0.000635486
0.000621883
0.000607974
0.000593766
0.000579273
0.000564507
0.000549483
0.000534215
0.000518722
0.000503022
0.000487136
0.000471085
0.000454892
0.000438582
0.000422179
0.00040571
0.000389203
0.000372685
0.000356186
0.000339735
0.000323361
0.000307096
0.000290968
0.000275008
0.000754695
0.000744891
0.000734768
0.000724324
0.000713557
0.000702468
0.000691058
0.000679328
0.000667281
0.000654921
0.000642252
0.000629282
0.000616016
0.000602465
0.000588636
0.000574543
0.000560197
0.000545611
0.000530802
0.000515786
0.00050058
0.000485203
0.000469677
0.000454022
0.000438262
0.00042242
0.00040652
0.000390588
0.000374651
0.000358735
0.000342868
0.000327077
0.000311389
0.000295833
0.000280437
0.000746335
0.000736658
0.000726679
0.000716395
0.000705806
0.000694914
0.000683719
0.000672223
0.000660429
0.000648342
0.000635966
0.000623308
0.000610375
0.000597175
0.000583718
0.000570016
0.000556079
0.000541922
0.000527558
0.000513004
0.000498277
0.000483394
0.000468374
0.000453239
0.000438009
0.000422706
0.000407354
0.000391976
0.000376596
0.00036124
0.000345932
0.000330699
0.000315565
0.000300557
0.0002857
0.000738193
0.000728648
0.000718816
0.000708696
0.000698288
0.000687594
0.000676614
0.000665352
0.000653811
0.000641994
0.000629908
0.000617558
0.000604952
0.000592098
0.000579006
0.000565685
0.000552148
0.000538407
0.000524477
0.000510371
0.000496107
0.000481701
0.000467172
0.000452537
0.000437818
0.000423035
0.000408209
0.000393362
0.000378518
0.000363698
0.000348927
0.000334228
0.000319625
0.000305141
0.0002908
0.00073027
0.000720859
0.000711178
0.000701224
0.000690999
0.000680504
0.000669741
0.000658712
0.000647422
0.000635874
0.000624074
0.000612028
0.000599743
0.000587228
0.000574491
0.000561544
0.000548396
0.000535061
0.000521551
0.00050788
0.000494065
0.00048012
0.000466063
0.000451911
0.000437684
0.0004234
0.00040908
0.000394744
0.000380413
0.000366108
0.000351851
0.000337664
0.000323569
0.000309587
0.000295741
0.000722563
0.000713291
0.000703763
0.000693978
0.000683937
0.000673642
0.000663095
0.000652298
0.000641257
0.000629975
0.000618457
0.00060671
0.000594741
0.000582558
0.000570169
0.000557585
0.000544817
0.000531875
0.000518773
0.000505524
0.000492142
0.000478643
0.000465042
0.000451355
0.000437602
0.000423798
0.000409964
0.000396118
0.000382279
0.000368468
0.000354704
0.000341008
0.000327399
0.000313898
0.000300525
0.000715073
0.000705942
0.000696569
0.000686954
0.000677098
0.000667003
0.000656672
0.000646107
0.000635312
0.000624292
0.000613052
0.000601599
0.00058994
0.000578081
0.000566033
0.000553803
0.000541404
0.000528844
0.000516138
0.000503297
0.000490334
0.000477264
0.000464103
0.000450865
0.000437567
0.000424225
0.000410858
0.000397482
0.000384116
0.000370777
0.000357486
0.000344259
0.000331116
0.000318076
0.000305156
0.000707797
0.000698811
0.000689595
0.000680151
0.000670481
0.000660585
0.000650468
0.000640132
0.000629581
0.00061882
0.000607855
0.00059669
0.000585333
0.000573792
0.000562075
0.000550191
0.00053815
0.000525962
0.000513638
0.000501191
0.000488634
0.000475979
0.000463241
0.000450435
0.000437575
0.000424677
0.000411758
0.000398833
0.00038592
0.000373035
0.000360196
0.000347419
0.000334722
0.000322123
0.000309637
0.000700735
0.000691894
0.000682837
0.000673565
0.00066408
0.000654384
0.00064448
0.000634371
0.000624061
0.000613555
0.000602858
0.000591976
0.000580916
0.000569685
0.000558291
0.000546742
0.000535049
0.00052322
0.000511268
0.000499203
0.000487036
0.000474782
0.000462452
0.000450061
0.000437622
0.000425151
0.000412661
0.000400169
0.00038769
0.00037524
0.000362834
0.000350488
0.000338218
0.000326041
0.000313971
0.000693884
0.00068519
0.000676292
0.000667193
0.000657893
0.000648395
0.000638702
0.000628817
0.000618745
0.00060849
0.000598057
0.000587452
0.000576681
0.000565752
0.000554673
0.00054345
0.000532095
0.000520615
0.000509021
0.000497325
0.000485536
0.000473667
0.00046173
0.000449738
0.000437705
0.000425642
0.000413566
0.000401489
0.000389426
0.000377391
0.0003654
0.000353467
0.000341606
0.000329833
0.000318161
0.000687242
0.000678697
0.000669959
0.000661031
0.000651916
0.000642614
0.00063313
0.000623467
0.000613628
0.00060362
0.000593445
0.000583111
0.000572623
0.000561989
0.000551215
0.00054031
0.000529281
0.000518139
0.000506892
0.000495552
0.000484127
0.000472629
0.000461071
0.000449463
0.000437818
0.000426149
0.000414468
0.000402789
0.000391125
0.000379489
0.000367895
0.000356357
0.000344888
0.000333501
0.000322209
0.000680808
0.000672411
0.000663834
0.000655077
0.000646144
0.000637038
0.00062776
0.000618315
0.000608707
0.000598939
0.000589018
0.000578949
0.000568737
0.000558389
0.000547912
0.000537314
0.000526603
0.000515787
0.000504876
0.000493878
0.000482804
0.000471665
0.00046047
0.000449231
0.00043796
0.000426668
0.000415367
0.000404069
0.000392787
0.000381533
0.000370319
0.000359159
0.000348064
0.000337047
0.00032612
0.000674579
0.000666331
0.000657913
0.000649327
0.000640576
0.000631662
0.000622588
0.000613357
0.000603975
0.000594444
0.00058477
0.000574959
0.000565015
0.000554946
0.000544758
0.000534458
0.000524054
0.000513554
0.000502966
0.0004923
0.000481564
0.000470769
0.000459924
0.00044904
0.000438127
0.000427196
0.000416259
0.000405327
0.000394411
0.000383522
0.000372672
0.000361874
0.000351137
0.000340474
0.000329896
0.000668552
0.000660452
0.000652193
0.000643777
0.000635205
0.000626481
0.000617608
0.000608588
0.000599427
0.000590128
0.000580696
0.000571136
0.000561454
0.000551655
0.000541747
0.000531736
0.000521628
0.000511433
0.000501158
0.000490811
0.0004804
0.000469936
0.000459428
0.000448884
0.000438315
0.000427732
0.000417143
0.000406561
0.000395995
0.000385456
0.000374955
0.000364502
0.000354108
0.000343785
0.000333541
0.000662725
0.000654773
0.000646672
0.000638423
0.000630029
0.000621492
0.000612816
0.000604004
0.000595059
0.000585986
0.000576789
0.000567475
0.000558046
0.000548511
0.000538874
0.000529142
0.000519322
0.000509421
0.000499446
0.000489407
0.00047931
0.000469164
0.000458978
0.000448761
0.000438523
0.000428271
0.000418017
0.00040777
0.000397539
0.000387335
0.000377167
0.000367046
0.00035698
0.00034698
0.000337056
0.000657094
0.00064929
0.000641346
0.000633263
0.000625043
0.000616691
0.000608208
0.000599598
0.000590865
0.000582013
0.000573046
0.00056397
0.000554788
0.000545507
0.000536133
0.000526671
0.000517128
0.000507511
0.000497827
0.000488083
0.000478287
0.000468448
0.000458572
0.000448669
0.000438746
0.000428814
0.00041888
0.000408953
0.000399043
0.000389159
0.00037931
0.000369505
0.000359753
0.000350063
0.000340444
0.000651658
0.000644
0.00063621
0.000628291
0.000620244
0.000612072
0.000603779
0.000595368
0.000586841
0.000578204
0.000569461
0.000560616
0.000551673
0.000542639
0.000533519
0.000524318
0.000515043
0.000505699
0.000496295
0.000486836
0.00047733
0.000467784
0.000458205
0.000448603
0.000438984
0.000429356
0.000419729
0.000410109
0.000400506
0.000390928
0.000381384
0.000371882
0.00036243
0.000353036
0.00034371
0.000646413
0.0006389
0.000631263
0.000623504
0.000615627
0.000607632
0.000599525
0.000591307
0.000582982
0.000574555
0.000566029
0.000557408
0.000548697
0.000539902
0.000531027
0.000522078
0.000513061
0.000503981
0.000494846
0.00048566
0.000476432
0.000467168
0.000457876
0.000448561
0.000439232
0.000429897
0.000420563
0.000411237
0.000401928
0.000392643
0.00038339
0.000374177
0.000365011
0.000355901
0.000346854
0.000641356
0.000633986
0.000626499
0.000618899
0.000611188
0.000603367
0.000595441
0.000587412
0.000579284
0.00057106
0.000562744
0.000554341
0.000545855
0.000537291
0.000528653
0.000519947
0.000511178
0.000502353
0.000493476
0.000484553
0.000475592
0.000466599
0.000457579
0.000448541
0.00043949
0.000430434
0.000421381
0.000412336
0.000403307
0.000394302
0.000385327
0.000376391
0.000367499
0.000358659
0.000349879
0.000636485
0.000629255
0.000621917
0.000614472
0.000606923
0.000599272
0.000591523
0.000583678
0.000575741
0.000567715
0.000559604
0.000551411
0.000543142
0.000534801
0.000526392
0.00051792
0.000509391
0.000500809
0.00049218
0.000483511
0.000474806
0.000466071
0.000457314
0.00044854
0.000439755
0.000430967
0.000422181
0.000413405
0.000404644
0.000395906
0.000387197
0.000378525
0.000369895
0.000361314
0.000352789
0.000631796
0.000624704
0.000617511
0.000610219
0.000602829
0.000595344
0.000587767
0.000580101
0.000572349
0.000564515
0.000556602
0.000548613
0.000540554
0.000532428
0.000524239
0.000515993
0.000507693
0.000499346
0.000490956
0.000482529
0.000474069
0.000465583
0.000457077
0.000448556
0.000440026
0.000431493
0.000422963
0.000414443
0.000405939
0.000397456
0.000389001
0.00038058
0.0003722
0.000363866
0.000355585
0.000627286
0.00062033
0.00061328
0.000606136
0.000598901
0.000591578
0.000584169
0.000576677
0.000569105
0.000561456
0.000553734
0.000545943
0.000538086
0.000530167
0.000522191
0.000514161
0.000506083
0.000497961
0.0004898
0.000481604
0.00047338
0.000465132
0.000456866
0.000448586
0.000440299
0.000432011
0.000423726
0.00041545
0.00040719
0.000398951
0.000390739
0.000382559
0.000374417
0.000366318
0.000358269
0.000622952
0.00061613
0.000609219
0.00060222
0.000595137
0.00058797
0.000580724
0.000573401
0.000566003
0.000558534
0.000550997
0.000543396
0.000535734
0.000528014
0.000520242
0.000512421
0.000504555
0.000496649
0.000488707
0.000480735
0.000472735
0.000464715
0.000456678
0.000448629
0.000440575
0.000432519
0.000424468
0.000416426
0.000408399
0.000400392
0.000392411
0.00038446
0.000376545
0.000368672
0.000360844
0.000618792
0.000612101
0.000605325
0.000598468
0.000591532
0.000584518
0.00057743
0.00057027
0.00056304
0.000555745
0.000548386
0.000540968
0.000533494
0.000525967
0.00051839
0.000510769
0.000503107
0.000495408
0.000487676
0.000479916
0.000472132
0.000464329
0.000456511
0.000448684
0.000440851
0.000433017