/*--------------------------------*- C++ -*----------------------------------*\
| =========                 |                                                 |
| \\      /  F ield         | OpenFOAM: The Open Source CFD Toolbox           |
|  \\    /   O peration     | Version:  2412                                  |
|   \\  /    A nd           | Website:  www.openfoam.com                      |
|    \\/     M anipulation  |                                                 |
\*---------------------------------------------------------------------------*/
FoamFile
{
    version     2.0;
    format      ascii;
    arch        "LSB;label=32;scalar=64";
    class       surfaceScalarField;
    location    "22";
    object      phi;
}
// * * * * * * * * * * * * * * * * * * * * * * * * * * * * * * * * * * * * * //

dimensions      [0 3 -1 0 0 0 0];

oriented        oriented;

internalField   nonuniform List<scalar> 
10424
(
0.00505063
1.29115e-07
1.25409e-11
0.00505025
3.76629e-07
1.65259e-11
0.00504964
6.11204e-07
1.72141e-11
0.00504881
8.34124e-07
2.40902e-11
0.00504776
1.04595e-06
4.07327e-11
0.00504651
1.24833e-06
6.60728e-11
0.00504506
1.44832e-06
8.99138e-11
0.0050434
1.66136e-06
8.82319e-11
0.00504149
1.9092e-06
2.59559e-11
0.00503928
2.2123e-06
-1.29588e-10
0.0050367
2.58016e-06
-3.9095e-10
0.0050337
3.00472e-06
-7.37839e-10
0.00503024
3.46038e-06
-1.11599e-09
0.00502633
3.9103e-06
-1.44915e-09
0.00502201
4.31621e-06
-1.65955e-09
0.00501737
4.64776e-06
-1.68826e-09
0.00501248
4.88829e-06
-1.50788e-09
0.00500745
5.03629e-06
-1.12529e-09
0.00500234
5.10292e-06
-5.76379e-10
0.00499724
5.10748e-06
8.44866e-11
0.00499216
5.0724e-06
7.96959e-10
0.00498714
5.0191e-06
1.50537e-09
0.00498217
4.9653e-06
2.1654e-09
0.00497725
4.92381e-06
2.74692e-09
0.00497234
4.90251e-06
3.23397e-09
0.00496743
4.90509e-06
3.62244e-09
0.0049625
4.93213e-06
3.917e-09
0.00495751
4.98218e-06
4.12773e-09
0.00495245
5.05268e-06
4.26742e-09
0.00494731
5.14069e-06
4.34939e-09
0.00494206
5.24331e-06
4.38605e-09
0.0049367
5.35801e-06
4.3881e-09
0.00493121
5.48267e-06
4.3643e-09
0.00492559
5.61564e-06
4.3216e-09
0.00491983
5.75567e-06
4.26533e-09
0.00491393
5.90189e-06
4.19945e-09
0.00490787
6.05367e-06
4.12663e-09
0.00490165
6.21062e-06
4.04858e-09
0.00489528
6.37248e-06
3.96641e-09
0.00488873
6.5391e-06
3.88089e-09
0.00488202
6.71041e-06
3.79259e-09
0.00487513
6.88637e-06
3.70203e-09
0.00486806
7.06698e-06
3.60951e-09
0.0048608
7.25226e-06
3.5151e-09
0.00485336
7.44223e-06
3.41882e-09
0.00484572
7.63692e-06
3.32073e-09
0.00483788
7.83638e-06
3.22091e-09
0.00482983
8.04065e-06
3.11947e-09
0.00482158
8.2498e-06
3.01652e-09
0.00481311
8.46391e-06
2.91221e-09
0.00480443
8.68311e-06
2.80678e-09
0.00479552
8.90773e-06
2.70031e-09
0.00478638
9.13857e-06
2.59289e-09
0.004777
9.378e-06
2.48473e-09
9.63278e-06
0.00476736
2.37602e-09
0.00505063
2.58154e-07
0.00505025
7.53003e-07
0.00504964
1.22199e-06
0.00504881
1.66768e-06
0.00504776
2.09119e-06
0.00504651
2.49585e-06
0.00504507
2.89566e-06
0.00504341
3.32136e-06
0.0050415
3.81627e-06
0.00503929
4.42121e-06
0.00503672
5.15518e-06
0.00503372
6.00233e-06
0.00503027
6.91173e-06
0.00502637
7.81008e-06
0.00502206
8.62116e-06
0.00501743
9.28438e-06
0.00501255
9.76642e-06
0.00500752
1.00641e-05
0.00500242
1.01994e-05
0.00499732
1.02107e-05
0.00499225
1.01427e-05
0.00498723
1.00379e-05
0.00498226
9.93171e-06
0.00497734
9.84971e-06
0.00497243
9.80766e-06
0.00496753
9.81301e-06
0.00496259
9.86696e-06
0.00495761
9.96669e-06
0.00495255
1.01072e-05
0.00494741
1.02825e-05
0.00494217
1.0487e-05
0.00493681
1.07157e-05
0.00493133
1.09642e-05
0.00492571
1.12293e-05
0.00491996
1.15086e-05
0.00491406
1.18003e-05
0.00490801
1.2103e-05
0.00490181
1.24161e-05
0.00489544
1.27391e-05
0.00488891
1.30715e-05
0.00488221
1.34133e-05
0.00487533
1.37643e-05
0.00486827
1.41246e-05
0.00486103
1.44942e-05
0.0048536
1.48732e-05
0.00484597
1.52615e-05
0.00483815
1.56594e-05
0.00483012
1.60668e-05
0.00482189
1.64838e-05
0.00481344
1.69107e-05
0.00480478
1.73477e-05
0.00479589
1.77954e-05
0.00478677
1.82554e-05
0.00477742
1.87321e-05
1.92386e-05
0.00476781
0.00505063
3.87025e-07
0.00505025
1.12884e-06
0.00504964
1.83192e-06
0.00504881
2.50005e-06
0.00504777
3.13497e-06
0.00504652
3.74162e-06
0.00504508
4.34087e-06
0.00504342
4.97847e-06
0.00504152
5.71906e-06
0.00503931
6.62365e-06
0.00503675
7.72085e-06
0.00503376
8.98734e-06
0.00503033
1.03474e-05
0.00502644
1.1692e-05
0.00502216
1.29072e-05
0.00501754
1.39023e-05
0.00501268
1.46274e-05
0.00500767
1.50772e-05
0.00500258
1.52842e-05
0.00499749
1.53053e-05
0.00499242
1.5207e-05
0.00498741
1.5053e-05
0.00498244
1.48959e-05
0.00497752
1.47742e-05
0.00497262
1.47115e-05
0.00496771
1.47192e-05
0.00496278
1.47992e-05
0.0049578
1.49475e-05
0.00495275
1.51566e-05
0.00494761
1.54178e-05
0.00494238
1.57228e-05
0.00493703
1.60638e-05
0.00493156
1.64347e-05
0.00492596
1.68306e-05
0.00492022
1.72476e-05
0.00491433
1.76833e-05
0.0049083
1.81356e-05
0.00490211
1.86034e-05
0.00489577
1.9086e-05
0.00488926
1.95827e-05
0.00488258
2.00935e-05
0.00487572
2.06181e-05
0.00486869
2.11565e-05
0.00486148
2.17087e-05
0.00485407
2.22749e-05
0.00484648
2.2855e-05
0.00483869
2.34492e-05
0.0048307
2.40577e-05
0.0048225
2.46804e-05
0.0048141
2.53177e-05
0.00480547
2.59699e-05
0.00479663
2.66378e-05
0.00478756
2.73237e-05
0.00477826
2.80336e-05
2.87858e-05
0.00476871
0.00505063
5.15641e-07
0.00505025
1.50386e-06
0.00504964
2.44054e-06
0.00504881
3.33064e-06
0.00504777
4.17654e-06
0.00504653
4.98477e-06
0.00504509
5.78287e-06
0.00504343
6.63127e-06
0.00504154
7.61552e-06
0.00503935
8.81655e-06
0.00503679
1.02728e-05
0.00503383
1.19539e-05
0.00503041
1.37603e-05
0.00502656
1.55476e-05
0.0050223
1.71654e-05
0.00501771
1.84929e-05
0.00501287
1.94632e-05
0.00500788
2.00687e-05
0.00500281
2.03517e-05
0.00499773
2.0387e-05
0.00499268
2.02625e-05
0.00498767
2.00623e-05
0.00498271
1.98565e-05
0.00497779
1.96962e-05
0.00497288
1.96131e-05
0.00496798
1.96225e-05
0.00496305
1.97274e-05
0.00495808
1.99225e-05
0.00495304
2.01982e-05
0.00494791
2.05432e-05
0.00494269
2.09463e-05
0.00493735
2.13975e-05
0.0049319
2.18886e-05
0.00492632
2.24129e-05
0.0049206
2.29657e-05
0.00491474
2.35432e-05
0.00490873
2.4143e-05
0.00490257
2.47634e-05
0.00489625
2.54034e-05
0.00488978
2.60623e-05
0.00488313
2.67398e-05
0.00487631
2.74356e-05
0.00486932
2.81497e-05
0.00486214
2.88821e-05
0.00485479
2.96329e-05
0.00484724
3.0402e-05
0.0048395
3.11897e-05
0.00483156
3.1996e-05
0.00482342
3.28211e-05
0.00481507
3.36652e-05
0.00480651
3.45288e-05
0.00479774
3.54128e-05
0.00478874
3.63196e-05
0.00477952
3.72567e-05
3.82452e-05
0.00477006
0.00505063
6.43921e-07
0.00505025
1.87779e-06
0.00504965
3.04745e-06
0.00504882
4.15886e-06
0.00504778
5.21517e-06
0.00504654
6.22444e-06
0.0050451
7.22061e-06
0.00504346
8.27838e-06
0.00504157
9.50366e-06
0.00503939
1.09971e-05
0.00503685
1.28069e-05
0.00503391
1.48965e-05
0.00503053
1.71435e-05
0.00502671
1.93694e-05
0.00502248
2.13876e-05
0.00501793
2.30479e-05
0.00501313
2.42663e-05
0.00500816
2.5032e-05
0.00500312
2.53965e-05
0.00499805
2.54516e-05
0.00499301
2.53058e-05
0.00498801
2.50635e-05
0.00498305
2.48118e-05
0.00497814
2.46143e-05
0.00497324
2.4511e-05
0.00496834
2.45213e-05
0.00496342
2.46494e-05
0.00495845
2.48892e-05
0.00495342
2.5229e-05
0.00494831
2.5655e-05
0.0049431
2.61534e-05
0.00493779
2.67119e-05
0.00493235
2.73202e-05
0.0049268
2.79702e-05
0.00492111
2.86557e-05
0.00491528
2.93723e-05
0.0049093
3.01168e-05
0.00490318
3.08871e-05
0.0048969
3.16817e-05
0.00489046
3.24999e-05
0.00488386
3.33412e-05
0.00487709
3.42052e-05
0.00487015
3.50918e-05
0.00486303
3.6001e-05
0.00485573
3.69329e-05
0.00484825
3.78874e-05
0.00484057
3.88647e-05
0.0048327
3.98648e-05
0.00482464
4.08879e-05
0.00481637
4.19342e-05
0.00480789
4.30042e-05
0.00479921
4.40986e-05
0.00479031
4.52202e-05
0.00478119
4.63764e-05
4.75891e-05
0.00477184
0.00505063
7.7179e-07
0.00505026
2.25037e-06
0.00504965
3.65221e-06
0.00504883
4.98414e-06
0.00504779
6.25013e-06
0.00504656
7.45973e-06
0.00504512
8.65305e-06
0.00504348
9.91845e-06
0.00504161
1.13816e-05
0.00503944
1.31625e-05
0.00503693
1.53195e-05
0.00503401
1.78104e-05
0.00503067
2.04912e-05
0.00502689
2.31506e-05
0.00502271
2.55667e-05
0.00501819
2.75602e-05
0.00501343
2.90299e-05
0.0050085
2.99611e-05
0.00500348
3.04134e-05
0.00499844
3.04949e-05
0.00499341
3.03339e-05
0.00498842
3.00542e-05
0.00498347
2.97597e-05
0.00497856
2.95267e-05
0.00497367
2.94034e-05
0.00496878
2.94137e-05
0.00496386
2.95631e-05
0.00495891
2.98449e-05
0.00495389
3.02457e-05
0.0049488
3.07492e-05
0.00494361
3.13394e-05
0.00493832
3.20016e-05
0.00493292
3.27237e-05
0.00492739
3.34958e-05
0.00492174
3.43107e-05
0.00491595
3.5163e-05
0.00491001
3.60488e-05
0.00490394
3.69655e-05
0.00489771
3.79113e-05
0.00489132
3.88853e-05
0.00488478
3.98867e-05
0.00487807
4.09151e-05
0.00487119
4.19704e-05
0.00486414
4.30524e-05
0.00485691
4.4161e-05
0.0048495
4.52964e-05
0.0048419
4.64585e-05
0.00483412
4.76475e-05
0.00482615
4.88633e-05
0.00481797
5.01061e-05
0.0048096
5.13763e-05
0.00480103
5.26746e-05
0.00479224
5.40032e-05
0.00478325
5.53686e-05
5.67908e-05
0.00477405
0.00505063
8.99125e-07
0.00505026
2.62136e-06
0.00504966
4.25439e-06
0.00504883
5.80588e-06
0.0050478
7.28068e-06
0.00504657
8.6898e-06
0.00504515
1.00791e-05
0.00504352
1.15502e-05
0.00504165
1.32478e-05
0.0050395
1.53106e-05
0.00503701
1.78074e-05
0.00503413
2.06915e-05
0.00503083
2.37983e-05
0.00502709
2.68853e-05
0.00502296
2.96963e-05
0.0050185
3.20235e-05
0.00501378
3.37479e-05
0.00500889
3.48504e-05
0.00500391
3.53977e-05
0.00499889
3.55129e-05
0.00499388
3.53432e-05
0.0049889
3.50314e-05
0.00498396
3.46978e-05
0.00497906
3.44311e-05
0.00497417
3.42881e-05
0.00496929
3.42971e-05
0.00496439
3.44655e-05
0.00495945
3.47863e-05
0.00495445
3.52445e-05
0.00494938
3.58218e-05
0.00494422
3.64997e-05
0.00493896
3.72615e-05
0.00493359
3.80932e-05
0.0049281
3.89834e-05
0.00492249
3.99237e-05
0.00491674
4.09076e-05
0.00491086
4.19307e-05
0.00490484
4.29898e-05
0.00489866
4.40828e-05
0.00489234
4.52084e-05
0.00488586
4.63656e-05
0.00487922
4.75541e-05
0.00487242
4.87733e-05
0.00486545
5.00233e-05
0.00485831
5.13037e-05
0.00485099
5.26147e-05
0.00484349
5.39561e-05
0.00483581
5.53279e-05
0.00482794
5.67302e-05
0.00481989
5.8163e-05
0.00481164
5.96263e-05
0.00480319
6.11207e-05
0.00479455
6.26477e-05
0.0047857
6.42111e-05
0.00477667
6.58222e-05
0.00476771
-3.46338e-07
2.27786e-09
0.00476752
1.81668e-07
2.20133e-09
0.00476678
7.42095e-07
2.13483e-09
0.00476543
1.34091e-06
2.05845e-09
0.00476345
1.98022e-06
1.97566e-09
0.00476079
2.66355e-06
1.88743e-09
0.00475739
3.39483e-06
1.79358e-09
0.00475321
4.17845e-06
1.69362e-09
0.00474819
5.0193e-06
1.58728e-09
0.00474227
5.92286e-06
1.47437e-09
0.00473537
6.89525e-06
1.35477e-09
0.00472742
7.94331e-06
1.22842e-09
0.00471835
9.07472e-06
1.09528e-09
0.00470805
1.02981e-05
9.57475e-10
0.00469643
1.16232e-05
8.07068e-10
1.3061e-05
6.64721e-10
0.00476679
6.7725e-07
0.00476524
1.72912e-06
0.00476313
2.84961e-06
0.00476043
4.04489e-06
0.00475709
5.32113e-06
0.00475307
6.68534e-06
0.00474832
8.1454e-06
0.00474279
9.71013e-06
0.00473642
1.13893e-05
0.00472914
1.3194e-05
0.0047209
1.51364e-05
0.00471162
1.72302e-05
0.0047012
1.94909e-05
0.00468956
2.19356e-05
0.0046766
2.4584e-05
2.74578e-05
0.00476498
4.4165e-06
0.00476072
5.98927e-06
0.0047559
7.66487e-06
0.00475049
9.45208e-06
0.00474445
1.13604e-05
0.00473774
1.34005e-05
0.0047303
1.55843e-05
0.00472208
1.79251e-05
0.00471304
2.04376e-05
0.00470309
2.31384e-05
0.00469218
2.6046e-05
0.00468023
2.91809e-05
0.00466716
3.25663e-05
0.00465286
3.62282e-05
0.00463725
4.01958e-05
4.45023e-05
0.00476229
1.21863e-05
0.00475401
1.42731e-05
0.00474518
1.64963e-05
0.00473576
1.88676e-05
0.00472572
2.13999e-05
0.00471501
2.41077e-05
0.00470359
2.70069e-05
0.0046914
3.01155e-05
0.00467838
3.34531e-05
0.00466448
3.7042e-05
0.00464962
4.09067e-05
0.00463373
4.50749e-05
0.00461671
4.95775e-05
0.00459849
5.44492e-05
0.00457896
5.97292e-05
6.54617e-05
0.00475878
2.52487e-05
0.00474521
2.78385e-05
0.00473111
3.05975e-05
0.00471644
3.3541e-05
0.00470115
3.66853e-05
0.00468521
4.00488e-05
0.00466857
4.36515e-05
0.00465117
4.75158e-05
0.00463295
5.16667e-05
0.00461386
5.61318e-05
0.00459383
6.09419e-05
0.00457277
6.61317e-05
0.00455061
7.17399e-05
0.00452725
7.78101e-05
0.00450259
8.43913e-05
9.1539e-05
0.0047545
4.47957e-05
0.00473447
4.78706e-05
0.00471392
5.11486e-05
0.00469281
5.46475e-05
0.00467111
5.83875e-05
0.00464877
6.23905e-05
0.00462574
6.66806e-05
0.00460197
7.12849e-05
0.0045774
7.62329e-05
0.00455198
8.15581e-05
0.00452562
8.72976e-05
0.00449826
9.34928e-05
0.00446981
0.00010019
0.00444018
0.000107443
0.00440926
0.00011531
0.000123857
0.00474954
7.19255e-05
0.00472195
7.54593e-05
0.00469387
7.92329e-05
0.00466525
8.32652e-05
0.00463606
8.75792e-05
0.00460625
9.22002e-05
0.00457577
9.7156e-05
0.00454458
0.000102478
0.00451261
0.0001082
0.00447981
0.000114362
0.0044461
0.000121007
0.00441141
0.000128183
0.00437566
0.000135945
0.00433874
0.000144354
0.00430057
0.000153479
0.000163399
0.0049988
8.20032e-05
-0.00500888
0.00498828
8.59756e-05
0.0049773
9.02179e-05
0.00496581
9.47518e-05
0.00495379
9.96015e-05
0.0049412
0.000104794
0.00492799
0.000110361
0.00491413
0.000116334
0.00489958
0.000122753
0.00488429
0.000129659
0.00486819
0.0001371
0.00485125
0.000145128
0.00483339
0.000153803
0.00481455
0.00016319
0.00479467
0.000173364
0.00018441
0.00500273
9.18661e-05
-0.00501259
0.00499244
9.62666e-05
0.00498169
0.000100963
0.00497046
0.00010598
0.00495872
0.000111343
0.00494643
0.000117082
0.00493356
0.000123231
0.00492007
0.000129824
0.00490592
0.000136904
0.00489107
0.000144514
0.00487546
0.000152706
0.00485905
0.000161535
0.00484179
0.000171065
0.00482362
0.000181365
0.00480447
0.000192516
0.000204604
0.00500712
0.000101474
-0.00501673
0.0049971
0.000106288
0.00498664
0.00011142
0.00497572
0.000116899
0.00496431
0.000122751
0.00495239
0.00012901
0.00493991
0.000135708
0.00492685
0.000142886
0.00491316
0.000150586
0.00489882
0.000158856
0.00488378
0.000167749
0.00486799
0.000177323
0.00485141
0.000187645
0.00483399
0.000198788
0.00481567
0.000210834
0.000223875
0.00501195
0.000110796
-0.00502127
0.00500223
0.000116004
0.0049921
0.000121552
0.00498153
0.000127468
0.0049705
0.000133782
0.00495898
0.000140529
0.00494694
0.000147744
0.00493436
0.000155467
0.0049212
0.000163745
0.00490743
0.000172626
0.00489302
0.000182165
0.00487792
0.000192424
0.00486209
0.00020347
0.0048455
0.000215379
0.0048281
0.000228235
0.000242132
0.00501718
0.000119809
-0.00502619
0.00500779
0.000125388
0.00499802
0.000131326
0.00498783
0.000137653
0.00497721
0.0001444
0.00496614
0.000151601
0.00495459
0.000159295
0.00494254
0.000167523
0.00492995
0.000176332
0.0049168
0.000185773
0.00490307
0.000195902
0.00488871
0.000206781
0.0048737
0.00021848
0.004858
0.000231076
0.00484158
0.000244652
0.000259304
0.00502278
0.000128492
-0.00503146
0.00501375
0.000134417
0.00500436
0.000140719
0.00499459
0.000147427
0.00498441
0.000154574
0.00497382
0.000162194
0.00496279
0.000170328
0.00495129
0.000179017
0.00493931
0.00018831
0.00492683
0.000198257
0.00491382
0.000208916
0.00490025
0.00022035
0.0048861
0.000232628
0.00487135
0.000245828
0.00485597
0.000260034
0.000275339
0.00502874
0.000136826
-0.00503707
0.00502008
0.000143072
0.00501109
0.000149709
0.00500175
0.000156768
0.00499204
0.00016428
0.00498196
0.000172283
0.00497147
0.000180815
0.00496056
0.000189921
0.00494923
0.000199647
0.00493744
0.000210045
0.00492518
0.000221174
0.00491244
0.000233095
0.00489918
0.000245879
0.00488541
0.0002596
0.0048711
0.000274343
0.0002902
0.00503501
0.000144798
-0.00504298
0.00502674
0.000151337
0.00501817
0.00015828
0.00500929
0.000165656
0.00500007
0.0001735
0.0049905
0.000181846
0.00498058
0.000190736
0.00497029
0.000200211
0.00495962
0.000210321
0.00494855
0.000221115
0.00493707
0.000232652
0.00492517
0.000244993
0.00491284
0.000258207
0.00490008
0.000272367
0.00488686
0.000287557
0.000303865
0.00504157
0.000152394
-0.00504917
0.00503371
0.000159199
0.00502558
0.000166417
0.00501715
0.000174079
0.00500843
0.000182218
0.00499941
0.000190869
0.00499007
0.000200074
0.00498041
0.000209873
0.00497042
0.000220315
0.00496008
0.00023145
0.0049494
0.000243334
0.00493837
0.000256027
0.00492698
0.000269598
0.00491523
0.000284117
0.00490312
0.000299664
0.000316325
0.0050484
0.000159604
-0.00505561
0.00504095
0.000166647
0.00503326
0.000174111
0.00502531
0.000182025
0.00501711
0.000190424
0.00500864
0.000199341
0.00499989
0.000208818
0.00499087
0.000218895
0.00498157
0.000229619
0.00497198
0.000241039
0.0049621
0.00025321
0.00495194
0.000266191
0.00494149
0.000280046
0.00493076
0.000294845
0.00491976
0.000310664
0.000327584
0.00505547
0.000166422
-0.00506228
0.00504844
0.000173675
0.0050412
0.000181353
0.00503373
0.000189487
0.00502605
0.00019811
0.00501813
0.000207255
0.00500999
0.000216962
0.00500161
0.000227271
0.004993
0.000238227
0.00498416
0.000249879
0.00497509
0.000262279
0.0049658
0.000275484
0.00495629
0.000289554
0.00494658
0.000304558
0.00493668
0.000320566
0.000337655
0.00506274
0.000172841
-0.00506916
0.00505614
0.000180276
0.00504935
0.000188139
0.00504238
0.000196461
0.00503521
0.000205272
0.00502786
0.000214608
0.00502032
0.000224504
0.00501259
0.000235001
0.00500468
0.000246142
0.00499658
0.000257973
0.00498832
0.000270545
0.00497989
0.000283911
0.00497131
0.000298131
0.0049626
0.000313267
0.00495378
0.000329386
0.000346561
0.00507019
0.000178858
-0.0050762
0.00506401
0.000186448
0.00505769
0.000194467
0.0050512
0.000202944
0.00504457
0.000211911
0.00503777
0.000221399
0.00503083
0.000231444
0.00502375
0.000242086
0.00501652
0.000253365
0.00500917
0.000265326
0.0050017
0.000278016
0.00499413
0.000291486
0.00498646
0.000305793
0.00497874
0.000320993
0.00497097
0.000337151
0.000354332
0.00507779
0.000184471
-0.0050834
0.00507205
0.000192189
0.00506618
0.000200336
0.00506018
0.000208938
0.00505407
0.000218026
0.00504783
0.000227632
0.00504149
0.000237789
0.00503504
0.000248534
0.0050285
0.000259907
0.00502188
0.000271949
0.00501519
0.000284706
0.00500845
0.000298226
0.00500168
0.00031256
0.00499491
0.000327762
0.00498817
0.00034389
0.000361006
0.00508552
0.000189681
-0.00509073
0.0050802
0.000197502
0.00507479
0.000205748
0.00506928
0.000214446
0.00506368
0.000223624
0.005058
0.000233312
0.00505225
0.000243544
0.00504643
0.000254354
0.00504056
0.000265778
0.00503465
0.000277858
0.00502872
0.000290634
0.0050228
0.000304151
0.0050169
0.000318457
0.00501106
0.000333603
0.00500531
0.00034964
0.000366625
0.00509334
0.000194491
-0.00509815
0.00508846
0.000202389
0.0050835
0.000210708
0.00507847
0.000219473
0.00507338
0.00022871
0.00506825
0.000238449
0.00506307
0.000248721
0.00505786
0.000259558
0.00505265
0.000270995
0.00504744
0.000283069
0.00504225
0.000295819
0.00503712
0.000309287
0.00503206
0.000323515
0.00502711
0.000338551
0.00502231
0.000354441
0.000371235
0.00510125
0.000198904
-0.00510566
0.00509678
0.000206856
0.00509227
0.000215222
0.00508771
0.000224026
0.00508313
0.000233294
0.00507852
0.000243053
0.00507391
0.000253332
0.00506931
0.000264162
0.00506473
0.000275574
0.0050602
0.000287604
0.00505573
0.000300287
0.00505135
0.000313661
0.0050471
0.000327766
0.00504301
0.000342642
0.00503912
0.000358334
0.000374885
0.0051092
0.000202925
-0.00511322
0.00510515
0.000210908
0.00510107
0.000219297
0.00509699
0.000228115
0.00509289
0.000237387
0.00508881
0.000247137
0.00508475
0.000257393
0.00508073
0.000268183
0.00507677
0.000279536
0.00507288
0.000291486
0.00506911
0.000304063
0.00506546
0.000317304
0.00506199
0.000331243
0.00505871
0.000345918
0.00505568
0.000361367
0.000377627
0.00511719
0.000206561
-0.00512082
0.00511354
0.000214553
0.0051099
0.000222943
0.00510626
0.000231751
0.00510265
0.000241001
0.00509907
0.000250715
0.00509554
0.000260919
0.00509209
0.000271639
0.00508872
0.000282903
0.00508547
0.000294739
0.00508235
0.000307177
0.00507941
0.000320248
0.00507667
0.000333985
0.00507417
0.000348419
0.00507195
0.000363585
0.000379515
0.00512518
0.00020982
-0.00512844
0.00512193
0.000217802
0.0051187
0.00022617
0.00511551
0.000234946
0.00511236
0.000244149
0.00510927
0.000253802
0.00510626
0.000263929
0.00510335
0.000274552
0.00510056
0.000285697
0.00509791
0.00029739
0.00509543
0.000309657
0.00509315
0.000322527
0.0050911
0.000336028
0.00508933
0.000350188
0.00508788
0.000365037
0.000380601
0.00513316
0.000212711
-0.00513605
0.0051303
0.000220663
0.00512748
0.00022899
0.00512471
0.000237712
0.00512201
0.000246848
0.0051194
0.000256417
0.00511689
0.000266441
0.0051145
0.000276942
0.00511225
0.000287943
0.00511017
0.000299466
0.00510829
0.000311535
0.00510665
0.000324176
0.00510526
0.000337412
0.00510418
0.000351269
0.00510345
0.00036577
0.00038094
0.00514111
0.000215244
-0.00514364
0.00513862
0.000223148
0.0051362
0.000231416
0.00513385
0.000240065
0.00513158
0.000249112
0.00512942
0.000258577
0.00512738
0.000268478
0.00512549
0.000278834
0.00512377
0.000289667
0.00512224
0.000300996
0.00512093
0.000312843
0.00511988
0.000325229
0.00511912
0.000338176
0.00511868
0.000351704
0.00511862
0.000365834
0.000380585
0.00514901
0.00021743
-0.0051512
0.00514689
0.00022527
0.00514484
0.000233461
0.00514289
0.000242019
0.00514104
0.00025096
0.00513932
0.000260301
0.00513774
0.000270058
0.00513632
0.00028025
0.00513509
0.000290894
0.00513408
0.000302008
0.00513331
0.000313612
0.00513282
0.000325722
0.00513264
0.000338358
0.0051328
0.000351537
0.00513336
0.000365275
0.000379587
0.00515685
0.00021928
-0.0051587
0.00515508
0.000227041
0.0051534
0.000235139
0.00515183
0.000243591
0.00515038
0.000252408
0.00514907
0.000261608
0.00514792
0.000271204
0.00514696
0.000281214
0.0051462
0.000291651
0.00514568
0.000302533
0.00514542
0.000313874
0.00514545
0.000325691
0.00514581
0.000337998
0.00514653
0.00035081
0.00514767
0.00036414
0.000377999
0.0051646
0.000220805
-0.00516613
0.00516317
0.000228473
0.00516184
0.000236466
0.00516064
0.000244795
0.00515957
0.000253475
0.00515866
0.000262518
0.00515793
0.000271939
0.00515739
0.000281749
0.00515708
0.000291965
0.00515701
0.000302598
0.00515723
0.000313662
0.00515775
0.00032517
0.00515861
0.000337134
0.00515986
0.000349566
0.00516152
0.000362475
0.000375869
0.00517227
0.000222019
-0.00517348
0.00517116
0.000229582
0.00517017
0.000237455
0.00516931
0.00024565
0.00516861
0.000254179
0.00516807
0.000263052
0.00516773
0.000272282
0.0051676
0.000281882
0.0051677
0.000291861
0.00516807
0.000302232
0.00516872
0.000313006
0.0051697
0.000324193
0.00517103
0.000335803
0.00517275
0.000347844
0.0051749
0.000360323
0.000373245
0.00517982
0.000222935
-0.00518074
0.00517902
0.000230381
0.00517835
0.000238123
0.00517783
0.000246172
0.00517747
0.000254537
0.0051773
0.000263229
0.00517732
0.000272258
0.00517757
0.000281634
0.00517806
0.000291366
0.00517883
0.000301465
0.0051799
0.000311938
0.0051813
0.000322795
0.00518306
0.000334041
0.00518522
0.000345684
0.00518782
0.000357727
0.000370173
0.00518726
0.000223564
-0.00518789
0.00518676
0.000230884
0.0051864
0.000238485
0.00518619
0.000246377
0.00518616
0.000254569
0.00518632
0.00026307
0.00518669
0.000271887
0.00518729
0.00028103
0.00518815
0.000290506
0.00518929
0.000300323
0.00519074
0.000310488
0.00519253
0.000321007
0.00519469
0.000331884
0.00519725
0.000343124
0.00520025
0.000354728
0.000366696
0.00519457
0.000223921
-0.00519493
0.00519435
0.000231105
0.00519428
0.000238557
0.00519437
0.000246284
0.00519465
0.000254294
0.00519513
0.000262594
0.00519582
0.000271191
0.00519676
0.000280093
0.00519796
0.000289306
0.00519945
0.000298835
0.00520125
0.000308685
0.0052034
0.000318861
0.00520592
0.000329365
0.00520884
0.0003402
0.0052122
0.000351364
0.000362855
0.00520175
-0.00520185
0.0052018
0.005202
0.00520238
0.00520294
0.00520371
0.00520471
0.00520596
0.00520748
0.00520929
0.00521141
0.00521389
0.00521674
0.00521999
0.00522368
0.00529276
1.03161e-06
0.00529237
3.00853e-06
0.00529175
4.88215e-06
0.00529089
6.6626e-06
0.00528982
8.35516e-06
0.00528853
9.97229e-06
0.00528705
1.15657e-05
0.00528535
1.32499e-05
0.00528341
1.51889e-05
0.00528118
1.75409e-05
0.0052786
2.03854e-05
0.00527562
2.36719e-05
0.0052722
2.72161e-05
0.00526834
3.07443e-05
0.00526407
3.39656e-05
0.00525945
3.66426e-05
0.00525456
3.86377e-05
0.00524949
3.99263e-05
0.0052443
4.05812e-05
0.00523908
4.07401e-05
0.00523385
4.05689e-05
0.00522865
4.02294e-05
0.00522349
3.98588e-05
0.00521836
3.9559e-05
0.00521326
3.93954e-05
0.00520815
3.94016e-05
0.00520303
3.95873e-05
0.00519787
3.99452e-05
0.00519266
4.04593e-05
0.00518737
4.11092e-05
0.00518199
4.18742e-05
0.00517652
4.27355e-05
0.00517094
4.36771e-05
0.00516523
4.46863e-05
0.0051594
4.5753e-05
0.00515344
4.68701e-05
0.00514734
4.80321e-05
0.00514109
4.92356e-05
0.0051347
5.04778e-05
0.00512815
5.17571e-05
0.00512144
5.30725e-05
0.00511457
5.44232e-05
0.00510754
5.58087e-05
0.00510033
5.72287e-05
0.00509295
5.86831e-05
0.0050854
6.01716e-05
0.00507766
6.16941e-05
0.00506974
6.32504e-05
0.00506163
6.48405e-05
0.00505332
6.64643e-05
0.00504483
6.81217e-05
0.00503614
6.98128e-05
0.00502725
7.15383e-05
0.00501816
7.33001e-05
7.51022e-05
0.00529276
1.16331e-06
0.00529238
3.39338e-06
0.00529175
5.50615e-06
0.0052909
7.51414e-06
0.00528983
9.42319e-06
0.00528856
1.12471e-05
0.00528708
1.3043e-05
0.00528539
1.49377e-05
0.00528347
1.71137e-05
0.00528126
1.97478e-05
0.00527872
2.29308e-05
0.00527578
2.66095e-05
0.00527241
3.05814e-05
0.00526862
3.45431e-05
0.00526441
3.81706e-05
0.00525986
4.11975e-05
0.00525503
4.34672e-05
0.00525
4.49486e-05
0.00524487
4.57195e-05
0.00523967
4.59309e-05
0.00523448
4.5766e-05
0.0052293
4.54052e-05
0.00522416
4.5002e-05
0.00521905
4.4671e-05
0.00521396
4.44869e-05
0.00520887
4.44887e-05
0.00520377
4.46885e-05
0.00519863
4.50796e-05
0.00519345
4.56448e-05
0.00518819
4.63621e-05
0.00518286
4.72088e-05
0.00517743
4.81641e-05
0.0051719
4.92101e-05
0.00516625
5.03325e-05
0.00516048
5.15203e-05
0.00515459
5.27649e-05
0.00514856
5.40605e-05
0.00514239
5.54026e-05
0.00513608
5.67883e-05
0.00512963
5.82156e-05
0.00512301
5.96831e-05
0.00511625
6.11898e-05
0.00510932
6.27351e-05
0.00510223
6.43185e-05
0.00509498
6.59396e-05
0.00508755
6.75982e-05
0.00507995
6.9294e-05
0.00507217
7.10267e-05
0.00506422
7.2796e-05
0.00505608
7.46018e-05
0.00504776
7.64438e-05
0.00503925
7.83218e-05
0.00503055
8.0236e-05
0.00502166
8.2187e-05
8.41766e-05
0.00529276
1.29417e-06
0.00529238
3.77558e-06
0.00529176
6.12591e-06
0.00529092
8.35988e-06
0.00528985
1.0484e-05
0.00528859
1.25132e-05
0.00528712
1.45099e-05
0.00528545
1.66124e-05
0.00528354
1.90206e-05
0.00528136
2.19297e-05
0.00527885
2.5442e-05
0.00527595
2.95023e-05
0.00527264
3.38917e-05
0.00526891
3.8279e-05
0.00526477
4.23083e-05
0.00526028
4.56847e-05
0.00525552
4.82326e-05
0.00525055
4.99134e-05
0.00524546
5.08086e-05
0.00524031
5.1081e-05
0.00523515
5.09304e-05
0.00523
5.05545e-05
0.00522488
5.01227e-05
0.00521979
4.97625e-05
0.00521472
4.95578e-05
0.00520965
4.95534e-05
0.00520458
4.9764e-05
0.00519947
5.0184e-05
0.00519432
5.07953e-05
0.00518911
5.15745e-05
0.00518382
5.24971e-05
0.00517844
5.35404e-05
0.00517297
5.46848e-05
0.00516739
5.59146e-05
0.00516169
5.72174e-05
0.00515587
5.85836e-05
0.00514993
6.00066e-05
0.00514385
6.14813e-05
0.00513763
6.30043e-05
0.00513127
6.45731e-05
0.00512477
6.61861e-05
0.00511812
6.7842e-05
0.00511131
6.95399e-05
0.00510435
7.12792e-05
0.00509723
7.30594e-05
0.00508995
7.48799e-05
0.0050825
7.67405e-05
0.00507489
7.86405e-05
0.00506711
8.05798e-05
0.00505915
8.25577e-05
0.00505102
8.45739e-05
0.00504271
8.66281e-05
0.00503423
8.872e-05
0.00502557
9.08496e-05
9.30173e-05
0.00529276
1.42407e-06
0.00529238
4.15486e-06
0.00529177
6.74098e-06
0.00529093
9.19917e-06
0.00528988
1.15366e-05
0.00528862
1.37697e-05
0.00528717
1.59653e-05
0.00528551
1.82726e-05
0.00528362
2.09083e-05
0.00528146
2.40854e-05
0.00527899
2.79176e-05
0.00527614
3.23491e-05
0.00527289
3.71458e-05
0.00526921
4.19507e-05
0.00526515
4.63771e-05
0.00526073
5.01024e-05
0.00525603
5.29316e-05
0.00525112
5.48178e-05
0.00524609
5.5845e-05
0.00524098
5.61866e-05
0.00523585
5.60576e-05
0.00523074
5.56725e-05
0.00522564
5.5216e-05
0.00522058
5.48285e-05
0.00521553
5.46029e-05
0.0052105
5.45901e-05
0.00520545
5.48082e-05
0.00520038
5.52525e-05
0.00519527
5.59046e-05
0.00519011
5.67399e-05
0.00518487
5.77324e-05
0.00517956
5.88575e-05
0.00517415
6.00941e-05
0.00516864
6.14249e-05
0.00516302
6.28363e-05
0.00515728
6.43178e-05
0.00515143
6.58617e-05
0.00514545
6.74624e-05
0.00513934
6.91159e-05
0.00513309
7.08193e-05
0.0051267
7.25706e-05
0.00512018
7.43683e-05
0.00511351
7.62112e-05
0.00510669
7.80984e-05
0.00509972
8.00292e-05
0.0050926
8.20029e-05
0.00508532
8.4019e-05
0.00507788
8.60768e-05
0.00507028
8.81757e-05
0.00506253
9.03152e-05
0.00505461
9.24947e-05
0.00504652
9.47134e-05
0.00503827
9.69711e-05
0.00502985
9.92671e-05
0.000101601
0.00529277
1.55291e-06
0.00529239
4.53095e-06
0.00529178
7.35088e-06
0.00529095
1.00314e-05
0.0052899
1.25805e-05
0.00528866
1.50156e-05
0.00528721
1.74081e-05
0.00528557
1.99173e-05
0.0052837
2.27759e-05
0.00528157
2.62139e-05
0.00527913
3.0357e-05
0.00527633
3.51494e-05
0.00527314
4.03436e-05
0.00526953
4.5558e-05
0.00526553
5.03766e-05
0.00526118
5.44496e-05
0.00525655
5.75626e-05
0.00525171
5.96595e-05
0.00524673
6.08257e-05
0.00524167
6.12439e-05
0.00523659
6.11434e-05
0.0052315
6.07544e-05
0.00522644
6.02767e-05
0.00522141
5.98632e-05
0.0052164
5.96161e-05
0.00521139
5.95928e-05
0.00520639
5.98148e-05
0.00520136
6.02787e-05
0.0051963
6.09662e-05
0.00519119
6.18518e-05
0.00518601
6.29078e-05
0.00518076
6.41083e-05
0.00517542
6.54306e-05
0.00516999
6.68558e-05
0.00516446
6.83691e-05
0.00515882
6.9959e-05
0.00515306
7.1617e-05
0.00514719
7.33368e-05
0.00514119
7.51137e-05
0.00513507
7.69444e-05
0.00512881
7.88264e-05
0.00512242
8.07579e-05
0.00511589
8.27375e-05
0.00510923
8.4764e-05
0.00510242
8.68365e-05
0.00509547
8.8954e-05
0.00508837
9.11158e-05
0.00508113
9.33211e-05
0.00507374
9.5569e-05
0.00506619
9.78588e-05
0.0050585
0.00010019
0.00505065
0.000102561
0.00504265
0.000104971