/*--------------------------------*- C++ -*----------------------------------*\
| =========                 |                                                 |
| \\      /  F ield         | OpenFOAM: The Open Source CFD Toolbox           |
|  \\    /   O peration     | Version:  2412                                  |
|   \\  /    A nd           | Website:  www.openfoam.com                      |
|    \\/     M anipulation  |                                                 |
\*---------------------------------------------------------------------------*/
FoamFile
{
    version     2.0;
    format      ascii;
    arch        "LSB;label=32;scalar=64";
    class       volVectorField;
    location    "18";
    object      U;
}
// * * * * * * * * * * * * * * * * * * * * * * * * * * * * * * * * * * * * * //

dimensions      [0 1 -1 0 0 0 0];

internalField   nonuniform List<vector> 
5285
(
(0.0999997 4.34801e-07 0)
(0.099995 1.29665e-06 0)
(0.0999852 2.14254e-06 0)
(0.0999709 2.96515e-06 0)
(0.0999525 3.79662e-06 0)
(0.0999299 4.75206e-06 0)
(0.0999022 6.01472e-06 0)
(0.0998675 7.74802e-06 0)
(0.0998234 9.98883e-06 0)
(0.099768 1.25953e-05 0)
(0.0997005 1.52821e-05 0)
(0.0996217 1.77201e-05 0)
(0.0995341 1.96438e-05 0)
(0.0994408 2.09209e-05 0)
(0.0993451 2.15652e-05 0)
(0.0992497 2.17031e-05 0)
(0.0991565 2.15189e-05 0)
(0.0990662 2.12019e-05 0)
(0.0989791 2.09097e-05 0)
(0.0988947 2.07514e-05 0)
(0.0988121 2.07867e-05 0)
(0.0987306 2.10356e-05 0)
(0.0986493 2.14909e-05 0)
(0.0985676 2.21306e-05 0)
(0.0984847 2.29275e-05 0)
(0.0984004 2.38555e-05 0)
(0.0983142 2.48925e-05 0)
(0.0982259 2.6022e-05 0)
(0.0981355 2.72326e-05 0)
(0.0980426 2.85178e-05 0)
(0.0979472 2.98744e-05 0)
(0.0978493 3.13015e-05 0)
(0.0977486 3.28005e-05 0)
(0.0976453 3.43737e-05 0)
(0.0975391 3.6024e-05 0)
(0.09743 3.77549e-05 0)
(0.0973179 3.95702e-05 0)
(0.0972028 4.14737e-05 0)
(0.0970845 4.34695e-05 0)
(0.0969629 4.55617e-05 0)
(0.096838 4.77543e-05 0)
(0.0967096 5.00517e-05 0)
(0.0965777 5.24582e-05 0)
(0.0964422 5.49783e-05 0)
(0.096303 5.76167e-05 0)
(0.09616 6.03783e-05 0)
(0.0960131 6.3268e-05 0)
(0.0958621 6.62912e-05 0)
(0.0957071 6.94535e-05 0)
(0.0955479 7.27607e-05 0)
(0.0953844 7.62198e-05 0)
(0.0952165 7.98392e-05 0)
(0.0950441 8.36326e-05 0)
(0.094867 8.76298e-05 0)
(0.0946851 9.19077e-05 0)
(0.0999997 1.30411e-06 0)
(0.099995 3.88917e-06 0)
(0.0999852 6.42674e-06 0)
(0.0999709 8.8949e-06 0)
(0.0999525 1.13893e-05 0)
(0.09993 1.42534e-05 0)
(0.0999023 1.80341e-05 0)
(0.0998677 2.32198e-05 0)
(0.0998237 2.99222e-05 0)
(0.0997685 3.77193e-05 0)
(0.0997012 4.57612e-05 0)
(0.0996227 5.30652e-05 0)
(0.0995354 5.88382e-05 0)
(0.0994423 6.26836e-05 0)
(0.0993468 6.46403e-05 0)
(0.0992516 6.50838e-05 0)
(0.0991584 6.45628e-05 0)
(0.0990681 6.36414e-05 0)
(0.098981 6.27901e-05 0)
(0.0988965 6.23347e-05 0)
(0.0988139 6.24545e-05 0)
(0.0987323 6.32099e-05 0)
(0.098651 6.45802e-05 0)
(0.0985691 6.65005e-05 0)
(0.0984863 6.88902e-05 0)
(0.098402 7.16715e-05 0)
(0.0983158 7.47789e-05 0)
(0.0982276 7.81634e-05 0)
(0.0981372 8.17912e-05 0)
(0.0980444 8.56425e-05 0)
(0.0979491 8.97077e-05 0)
(0.0978512 9.39848e-05 0)
(0.0977508 9.84773e-05 0)
(0.0976475 0.000103192 0)
(0.0975415 0.000108138 0)
(0.0974326 0.000113325 0)
(0.0973206 0.000118766 0)
(0.0972057 0.00012447 0)
(0.0970875 0.000130451 0)
(0.0969662 0.00013672 0)
(0.0968415 0.00014329 0)
(0.0967133 0.000150174 0)
(0.0965817 0.000157384 0)
(0.0964465 0.000164934 0)
(0.0963075 0.000172839 0)
(0.0961648 0.000181111 0)
(0.0960182 0.000189768 0)
(0.0958676 0.000198823 0)
(0.095713 0.000208294 0)
(0.0955541 0.000218199 0)
(0.095391 0.000228558 0)
(0.0952236 0.000239396 0)
(0.0950516 0.000250754 0)
(0.0948751 0.000262715 0)
(0.0946937 0.000275491 0)
(0.0999997 2.17254e-06 0)
(0.099995 6.47881e-06 0)
(0.0999852 1.07065e-05 0)
(0.099971 1.48191e-05 0)
(0.0999526 1.89744e-05 0)
(0.0999301 2.37402e-05 0)
(0.0999025 3.00222e-05 0)
(0.099868 3.86319e-05 0)
(0.0998243 4.97584e-05 0)
(0.0997694 6.27078e-05 0)
(0.0997026 7.60754e-05 0)
(0.0996247 8.82329e-05 0)
(0.0995379 9.78629e-05 0)
(0.0994454 0.000104303 0)
(0.0993502 0.000107611 0)
(0.0992552 0.000108403 0)
(0.0991621 0.000107586 0)
(0.0990719 0.000106094 0)
(0.0989847 0.000104706 0)
(0.0989 0.000103966 0)
(0.0988173 0.000104173 0)
(0.0987356 0.00010543 0)
(0.0986542 0.000107704 0)
(0.0985723 0.00011089 0)
(0.0984894 0.000114856 0)
(0.0984051 0.000119473 0)
(0.098319 0.000124634 0)
(0.0982309 0.000130257 0)
(0.0981406 0.000136286 0)
(0.0980479 0.000142688 0)
(0.0979528 0.000149447 0)
(0.0978552 0.00015656 0)
(0.097755 0.000164032 0)
(0.097652 0.000171874 0)
(0.0975463 0.000180101 0)
(0.0974376 0.00018873 0)
(0.0973261 0.000197779 0)
(0.0972114 0.000207268 0)
(0.0970937 0.000217216 0)
(0.0969727 0.000227643 0)
(0.0968485 0.000238571 0)
(0.0967208 0.000250019 0)
(0.0965897 0.000262009 0)
(0.0964549 0.000274564 0)
(0.0963166 0.000287707 0)
(0.0961744 0.000301461 0)
(0.0960285 0.000315851 0)
(0.0958786 0.000330904 0)
(0.0957246 0.000346646 0)
(0.0955665 0.000363106 0)
(0.0954043 0.000380319 0)
(0.0952376 0.000398325 0)
(0.0950666 0.000417189 0)
(0.094891 0.000437047 0)
(0.0947107 0.000458236 0)
(0.0999997 3.03951e-06 0)
(0.0999951 9.06362e-06 0)
(0.0999852 1.49789e-05 0)
(0.099971 2.07339e-05 0)
(0.0999527 2.65467e-05 0)
(0.0999302 3.32029e-05 0)
(0.0999027 4.19593e-05 0)
(0.0998684 5.39467e-05 0)
(0.0998251 6.94366e-05 0)
(0.0997708 8.7476e-05 0)
(0.0997047 0.000106121 0)
(0.0996276 0.000123112 0)
(0.0995416 0.000136611 0)
(0.0994498 0.000145687 0)
(0.0993552 0.000150408 0)
(0.0992605 0.00015162 0)
(0.0991676 0.000150574 0)
(0.0990774 0.000148565 0)
(0.0989901 0.000146679 0)
(0.0989053 0.000145674 0)
(0.0988223 0.000145972 0)
(0.0987405 0.00014772 0)
(0.0986589 0.00015088 0)
(0.0985769 0.000155309 0)
(0.098494 0.000160824 0)
(0.0984097 0.000167249 0)
(0.0983237 0.000174435 0)
(0.0982358 0.000182269 0)
(0.0981456 0.000190674 0)
(0.0980532 0.000199602 0)
(0.0979584 0.000209031 0)
(0.0978611 0.000218955 0)
(0.0977613 0.000229383 0)
(0.0976587 0.000240329 0)
(0.0975534 0.000251812 0)
(0.0974452 0.000263858 0)
(0.0973341 0.00027649 0)
(0.0972201 0.000289736 0)
(0.0971029 0.000303622 0)
(0.0969825 0.000318176 0)
(0.0968589 0.000333426 0)
(0.096732 0.000349403 0)
(0.0966016 0.000366134 0)
(0.0964676 0.000383652 0)
(0.0963301 0.000401987 0)
(0.0961888 0.000421173 0)
(0.0960438 0.000441244 0)
(0.0958949 0.000462235 0)
(0.095742 0.000484185 0)
(0.0955851 0.000507132 0)
(0.095424 0.000531123 0)
(0.0952587 0.000556212 0)
(0.095089 0.000582487 0)
(0.0949149 0.000610123 0)
(0.0947362 0.000639568 0)
(0.0999997 3.90449e-06 0)
(0.0999951 1.16416e-05 0)
(0.0999853 1.92409e-05 0)
(0.0999711 2.66357e-05 0)
(0.0999528 3.41012e-05 0)
(0.0999304 4.26324e-05 0)
(0.099903 5.38269e-05 0)
(0.099869 6.91299e-05 0)
(0.0998262 8.89015e-05 0)
(0.0997726 0.000111947 0)
(0.0997074 0.000135804 0)
(0.0996313 0.0001576 0)
(0.0995463 0.000174984 0)
(0.0994554 0.000186753 0)
(0.0993615 0.00019297 0)
(0.0992673 0.000194695 0)
(0.0991746 0.000193508 0)
(0.0990845 0.000191056 0)
(0.098997 0.000188722 0)
(0.0989121 0.000187478 0)
(0.0988289 0.000187872 0)
(0.0987468 0.000190101 0)
(0.0986651 0.000194123 0)
(0.098583 0.000199761 0)
(0.0985001 0.000206789 0)
(0.0984159 0.000214984 0)
(0.09833 0.000224157 0)
(0.0982422 0.000234165 0)
(0.0981524 0.000244909 0)
(0.0980603 0.000256329 0)
(0.0979659 0.000268394 0)
(0.097869 0.000281098 0)
(0.0977696 0.000294449 0)
(0.0976676 0.000308466 0)
(0.0975628 0.000323173 0)
(0.0974553 0.0003386 0)
(0.0973449 0.000354779 0)
(0.0972315 0.000371743 0)
(0.0971151 0.000389526 0)
(0.0969955 0.000408163 0)
(0.0968728 0.00042769 0)
(0.0967468 0.000448144 0)
(0.0966173 0.000469563 0)
(0.0964844 0.000491985 0)
(0.096348 0.00051545 0)
(0.0962079 0.000539999 0)
(0.0960641 0.000565676 0)
(0.0959166 0.000592525 0)
(0.0957651 0.000620594 0)
(0.0956097 0.000649932 0)
(0.0954502 0.000680595 0)
(0.0952865 0.00071265 0)
(0.0951187 0.000746199 0)
(0.0949465 0.000781443 0)
(0.0947699 0.000818879 0)
(0.0999997 4.76712e-06 0)
(0.0999951 1.42111e-05 0)
(0.0999853 2.34897e-05 0)
(0.0999712 3.25207e-05 0)
(0.099953 4.16329e-05 0)
(0.0999306 5.20203e-05 0)
(0.0999034 6.56086e-05 0)
(0.0998697 8.41513e-05 0)
(0.0998275 0.000108105 0)
(0.0997747 0.000136053 0)
(0.0997106 0.000165043 0)
(0.0996357 0.000191608 0)
(0.099552 0.000212896 0)
(0.0994621 0.000227424 0)
(0.0993691 0.000235238 0)
(0.0992755 0.00023759 0)
(0.0991831 0.000236371 0)
(0.099093 0.000233563 0)
(0.0990054 0.000230842 0)
(0.0989202 0.000229393 0)
(0.0988368 0.00022989 0)
(0.0987545 0.000232585 0)
(0.0986726 0.000237438 0)
(0.0985905 0.000244246 0)
(0.0985075 0.000252741 0)
(0.0984234 0.000262658 0)
(0.0983377 0.000273771 0)
(0.0982502 0.000285907 0)
(0.0981607 0.000298946 0)
(0.098069 0.000312814 0)
(0.0979751 0.000327474 0)
(0.0978787 0.000342916 0)
(0.0977799 0.00035915 0)
(0.0976785 0.000376195 0)
(0.0975745 0.000394084 0)
(0.0974678 0.000412848 0)
(0.0973582 0.000432527 0)
(0.0972457 0.000453161 0)
(0.0971302 0.000474789 0)
(0.0970117 0.000497453 0)
(0.09689 0.000521198 0)
(0.0967651 0.000546066 0)
(0.0966369 0.000572103 0)
(0.0965053 0.000599354 0)
(0.0963703 0.000627868 0)
(0.0962316 0.000657694 0)
(0.0960894 0.000688883 0)
(0.0959435 0.000721488 0)
(0.0957937 0.000755565 0)
(0.0956401 0.000791172 0)
(0.0954826 0.000828374 0)
(0.0953211 0.000867246 0)
(0.0951555 0.000907898 0)
(0.0949857 0.000950533 0)
(0.0948117 0.000995652 0)
(0.0999997 5.62666e-06 0)
(0.0999951 1.67704e-05 0)
(0.0999854 2.77225e-05 0)
(0.0999713 3.83851e-05 0)
(0.0999532 4.91367e-05 0)
(0.0999309 6.13586e-05 0)
(0.0999039 7.72901e-05 0)
(0.0998706 9.8986e-05 0)
(0.0998289 0.000127007 0)
(0.0997771 0.00015974 0)
(0.0997142 0.000193771 0)
(0.0996407 0.000225063 0)
(0.0995583 0.000250274 0)
(0.0994697 0.000267636 0)
(0.0993777 0.000277161 0)
(0.0992847 0.000280268 0)
(0.0991927 0.000279139 0)
(0.0991027 0.000276077 0)
(0.099015 0.000273039 0)
(0.0989296 0.000271422 0)
(0.098846 0.000272029 0)
(0.0987635 0.000275172 0)
(0.0986814 0.000280822 0)
(0.0985992 0.000288753 0)
(0.0985163 0.000298663 0)
(0.0984322 0.000310247 0)
(0.0983468 0.000323245 0)
(0.0982596 0.000337454 0)
(0.0981705 0.000352735 0)
(0.0980793 0.000369001 0)
(0.097986 0.000386206 0)
(0.0978903 0.000404337 0)
(0.0977922 0.000423404 0)
(0.0976916 0.000443429 0)
(0.0975885 0.000464447 0)
(0.0974826 0.000486496 0)
(0.097374 0.00050962 0)
(0.0972626 0.000533864 0)
(0.0971483 0.000559274 0)
(0.0970309 0.000585899 0)
(0.0969105 0.000613789 0)
(0.096787 0.000642994 0)
(0.0966602 0.000673566 0)
(0.0965302 0.000705557 0)
(0.0963967 0.000739024 0)
(0.0962599 0.000774021 0)
(0.0961195 0.000810609 0)
(0.0959755 0.000848847 0)
(0.0958278 0.000888799 0)
(0.0956764 0.000930531 0)
(0.0955212 0.000974113 0)
(0.0953621 0.00101963 0)
(0.0951991 0.00106718 0)
(0.0950322 0.00111695 0)
(0.0948613 0.00116934 0)
(0.0944973 9.66892e-05 -4.52714e-24)
(0.0943017 0.000101715 -4.61496e-24)
(0.0940965 0.000107096 -3.17589e-26)
(0.0938808 0.000112856 1.41789e-23)
(0.0936542 0.000119016 -4.69677e-24)
(0.0934157 0.000125609 -4.83367e-24)
(0.0931647 0.000132676 -1.48834e-23)
(0.0929001 0.00014026 1.47783e-23)
(0.092621 0.00014841 5.05675e-24)
(0.0923264 0.00015718 0)
(0.0920151 0.00016663 5.22432e-24)
(0.0916858 0.000176828 -5.3145e-24)
(0.0913371 0.000187848 4.37195e-23)
(0.0909674 0.000199774 -9.37007e-23)
(0.090575 0.000212697 5.00851e-23)
(0.0901581 0.000226724 4.05904e-23)
(0.0945063 0.00028972 -4.57978e-24)
(0.0943109 0.000304849 -9.3407e-24)
(0.0941058 0.000320991 -4.89579e-24)
(0.0938905 0.000338233 4.56117e-24)
(0.0936641 0.000356669 -4.76193e-24)
(0.093426 0.000376404 3.41249e-23)
(0.0931753 0.000397558 -5.3593e-23)
(0.0929112 0.000420262 4.97769e-24)
(0.0926326 0.000444663 6.64393e-23)
(0.0923386 0.000470922 -9.17606e-23)
(0.0920279 0.000499221 -8.96116e-23)
(0.0916993 0.00052976 7.89627e-23)
(0.0913514 0.000562762 0)
(0.0909826 0.000598479 5.51456e-24)
(0.0905912 0.000637188 -1.68536e-23)
(0.0901754 0.000679204 -1.91145e-22)
(0.0945242 0.000481835 -2.70931e-23)
(0.0943292 0.000506958 -9.50579e-24)
(0.0941246 0.000533756 3.66699e-23)
(0.0939098 0.000562371 -7.54317e-23)
(0.093684 0.00059297 1.61409e-22)
(0.0934466 0.000625731 -7.64625e-23)
(0.0931967 0.000660851 1.41885e-26)
(0.0929335 0.000698549 9.9279e-24)
(0.092656 0.000739068 1.73111e-22)
(0.0923631 0.00078268 -1.62839e-22)
(0.0920537 0.000829683 0)
(0.0917265 0.000880414 1.46012e-26)
(0.0913802 0.000935245 0)
(0.0910132 0.000994591 1.89425e-22)
(0.0906239 0.00105892 -1.66971e-22)
(0.0902104 0.00112874 -3.59983e-22)
(0.0945509 0.000672367 1.78512e-23)
(0.0943565 0.000707281 -9.05876e-24)
(0.0941526 0.00074454 1.94903e-26)
(0.0939386 0.000784345 9.32117e-24)
(0.0937138 0.000826915 -1.96023e-26)
(0.0934775 0.000872496 1.54855e-22)
(0.0932289 0.000921364 -2.92623e-22)
(0.0929671 0.000973827 1.57268e-22)
(0.0926912 0.00103022 -1.00686e-23)
(0.0924001 0.00109093 1.86102e-22)
(0.0920928 0.00115638 -1.65537e-22)
(0.0917679 0.00122702 -3.43554e-22)
(0.0914241 0.00130338 6.93698e-22)
(0.09106 0.00138604 -7.0739e-22)
(0.0906739 0.00147566 7.2175e-22)
(0.090264 0.00157295 -7.25389e-22)
(0.0945862 0.000860494 -8.85386e-24)
(0.0943927 0.000905038 -3.61691e-23)
(0.0941898 0.00095255 1.09649e-22)
(0.093977 0.0010033 -1.4806e-22)
(0.0937536 0.00105757 6.52111e-23)
(0.0935189 0.00111569 9.56337e-24)
(0.0932721 0.00117801 -9.72362e-24)
(0.0930123 0.00124493 -2.46368e-26)
(0.0927387 0.00131687 1.00667e-23)
(0.0924502 0.00139434 -2.04762e-23)
(0.0921457 0.00147785 -3.36967e-22)
(0.0918241 0.00156801 3.47763e-22)
(0.0914839 0.00166549 -3.39705e-22)
(0.0911238 0.00177102 3.50671e-22)
(0.0907422 0.00188545 0)
(0.0903373 0.0020097 -2.48895e-26)
(0.09463 0.00104569 -4.39365e-23)
(0.0944376 0.00109964 2.64294e-23)
(0.0942361 0.0011572 9.04329e-24)
(0.094025 0.00121869 1.38826e-22)
(0.0938035 0.00128447 -1.38878e-22)
(0.093571 0.00135493 1.43687e-22)
(0.0933266 0.00143052 -3.18956e-22)
(0.0930697 0.00151171 4.54115e-22)
(0.0927991 0.00159903 -3.18092e-22)
(0.0925141 0.00169308 -3.30006e-22)
(0.0922135 0.0017945 -1.65817e-23)
(0.0918961 0.00190402 6.702e-22)
(0.0915608 0.00202247 -7.05988e-22)
(0.0912061 0.00215073 3.29294e-22)
(0.0908305 0.00228984 3.55419e-22)
(0.0904324 0.00244092 3.71604e-22)
(0.0946821 0.00122716 8.65309e-24)
(0.0944914 0.00128999 7.972e-23)
(0.0942919 0.0013571 -7.10935e-23)
(0.0940831 0.00142885 9.12676e-24)
(0.0938643 0.00150568 1.40301e-22)
(0.0936347 0.00158805 -1.40523e-22)
(0.0933937 0.00167646 -3.01078e-22)
(0.0931404 0.00177148 4.49287e-24)
(0.092874 0.00187374 -5.60933e-24)
(0.0925935 0.00198393 3.34408e-22)
(0.092298 0.00210284 -3.26669e-22)
(0.0919864 0.00223132 6.93202e-22)
(0.0916573 0.00237035 -3.45416e-22)
(0.0913097 0.00252098 1.1166e-23)
(0.090942 0.00268444 1.14272e-23)
(0.0905527 0.00286209 7.55951e-22)
(0.0947432 0.00140792 0)
(0.0945554 0.00147805 0)
(0.0943591 0.00155301 0)
(0.0941537 0.0016332 0)
(0.0939387 0.00171906 0)
(0.0937133 0.00181108 0)
(0.0934769 0.00190983 0)
(0.0932287 0.00201593 0)
(0.092968 0.00213006 0)
(0.0926938 0.002253 0)
(0.0924052 0.00238559 0)
(0.0921012 0.00252878 0)
(0.0917807 0.00268363 0)
(0.0914425 0.00285133 0)
(0.0910854 0.0030332 0)
(0.0907079 0.00323073 0)
(0.0948146 0.00158998 0)
(0.0946309 0.00166811 0)
(0.094439 0.00175159 0)
(0.0942383 0.00184084 0)
(0.0940284 0.00193637 0)
(0.0938086 0.00203869 0)
(0.0935782 0.00214842 0)
(0.0933367 0.00226623 0)
(0.0930833 0.00239284 0)
(0.0928171 0.00252909 0)
(0.0925373 0.00267589 0)
(0.0922431 0.00283425 0)
(0.0919334 0.00300531 0)
(0.0916071 0.00319033 0)
(0.0912633 0.00339072 0)
(0.0909005 0.00360806 0)
(0.0948942 0.00176762 0)
(0.0947154 0.00185363 0)
(0.0945288 0.00194544 0)
(0.0943337 0.00204354 0)
(0.0941299 0.00214846 0)
(0.0939166 0.00226077 0)
(0.0936934 0.00238111 0)
(0.0934597 0.00251021 0)
(0.0932147 0.00264884 0)
(0.0929578 0.00279788 0)
(0.0926883 0.0029583 0)
(0.0924052 0.00313117 0)
(0.0921079 0.0033177 0)
(0.0917953 0.0035192 0)
(0.0914665 0.00373716 0)
(0.0911205 0.00397323 0)
(0.0949816 0.00194012 0)
(0.0948083 0.00203365 0)
(0.0946276 0.0021334 0)
(0.0944389 0.00223988 0)
(0.0942419 0.00235367 0)
(0.0940361 0.00247537 0)
(0.0938209 0.00260566 0)
(0.0935959 0.0027453 0)
(0.0933604 0.00289511 0)
(0.0931139 0.00305602 0)
(0.0928558 0.00322903 0)
(0.0925852 0.00341526 0)
(0.0923015 0.00361596 0)
(0.092004 0.00383251 0)
(0.0916918 0.00406642 0)
(0.0913641 0.00431941 0)
(0.0950762 0.00210699 0)
(0.0949089 0.00220764 0)
(0.0947347 0.00231487 0)
(0.094553 0.00242923 0)
(0.0943634 0.00255132 0)
(0.0941657 0.00268178 0)
(0.0939594 0.00282132 0)
(0.0937439 0.00297072 0)
(0.0935188 0.00313084 0)
(0.0932836 0.00330264 0)
(0.0930377 0.00348714 0)
(0.0927806 0.00368551 0)
(0.0925118 0.00389902 0)
(0.0922304 0.00412907 0)
(0.0919361 0.00437723 0)
(0.091628 0.00464521 0)
(0.0951774 0.00226785 0)
(0.0950167 0.00237514 0)
(0.0948493 0.00248937 0)
(0.0946751 0.00261107 0)
(0.0944936 0.00274087 0)
(0.0943045 0.00287944 0)
(0.0941076 0.00302749 0)
(0.0939023 0.00318584 0)
(0.0936882 0.00335537 0)
(0.0934651 0.00353704 0)
(0.0932323 0.00373192 0)
(0.0929895 0.00394118 0)
(0.0927363 0.00416611 0)
(0.0924721 0.00440812 0)
(0.0921965 0.00466878 0)
(0.091909 0.00494983 0)
(0.095285 0.00242232 0)
(0.095131 0.00253579 0)
(0.0949709 0.00265647 0)
(0.0948045 0.00278494 0)
(0.0946315 0.00292182 0)
(0.0944516 0.00306779 0)
(0.0942645 0.0032236 0)
(0.0940699 0.00339005 0)
(0.0938675 0.00356805 0)
(0.0936569 0.00375856 0)
(0.0934378 0.00396267 0)
(0.09321 0.00418154 0)
(0.092973 0.00441647 0)
(0.0927265 0.00466887 0)
(0.0924704 0.00494029 0)
(0.0922042 0.00523244 0)
(0.0953983 0.00257011 0)
(0.0952513 0.00268924 0)
(0.0950988 0.00281583 0)
(0.0949406 0.00295047 0)
(0.0947764 0.00309377 0)
(0.094606 0.00324643 0)
(0.0944292 0.00340919 0)
(0.0942456 0.00358288 0)
(0.0940552 0.00376838 0)
(0.0938577 0.00396668 0)
(0.0936528 0.00417885 0)
(0.0934403 0.00440604 0)
(0.09322 0.00464955 0)
(0.0929917 0.00491075 0)
(0.0927554 0.00519118 0)
(0.0925109 0.00549251 0)
(0.0955167 0.00271098 0)
(0.0953771 0.00283525 0)
(0.0952324 0.00296718 0)
(0.0950826 0.00310736 0)
(0.0949275 0.00325641 0)
(0.0947669 0.00341502 0)
(0.0946006 0.00358393 0)
(0.0944285 0.00376397 0)
(0.0942503 0.00395602 0)
(0.0940661 0.00416104 0)
(0.0938756 0.0043801 0)
(0.0936787 0.00461433 0)
(0.0934754 0.004865 0)
(0.0932656 0.00513345 0)
(0.0930494 0.00542117 0)
(0.0928267 0.00572977 0)
(0.09564 0.00284471 0)
(0.0955077 0.00297359 0)
(0.0953711 0.00311029 0)
(0.0952299 0.00325539 0)
(0.095084 0.00340951 0)
(0.0949334 0.00357333 0)
(0.0947778 0.00374759 0)
(0.0946173 0.0039331 0)
(0.0944517 0.00413073 0)
(0.0942809 0.00434143 0)
(0.094105 0.00456622 0)
(0.0939239 0.00480623 0)
(0.0937377 0.00506266 0)
(0.0935464 0.00533684 0)
(0.0933502 0.00563018 0)
(0.0931492 0.00594423 0)
(0.0957674 0.00297115 0)
(0.0956428 0.00310412 0)
(0.0955143 0.00324501 0)
(0.0953818 0.0033944 0)
(0.0952454 0.00355292 0)
(0.0951048 0.00372122 0)
(0.0949601 0.00390003 0)
(0.0948112 0.00409014 0)
(0.0946582 0.0042924 0)
(0.094501 0.00450773 0)
(0.0943397 0.00473713 0)
(0.0941743 0.00498168 0)
(0.0940051 0.00524255 0)
(0.0938322 0.00552098 0)
(0.0936559 0.00581835 0)
(0.0934765 0.0061361 0)
(0.0958985 0.00309019 0)
(0.0957816 0.00322671 0)
(0.0956613 0.00337123 0)
(0.0955377 0.0035243 0)
(0.0954107 0.00368654 0)
(0.0952803 0.00385859 0)
(0.0951465 0.00404116 0)
(0.0950093 0.00423502 0)
(0.0948688 0.00444099 0)
(0.0947251 0.00465995 0)
(0.0945784 0.00489287 0)
(0.0944287 0.00514078 0)
(0.0942763 0.00540479 0)
(0.0941216 0.00568609 0)
(0.0939648 0.00598596 0)
(0.0938065 0.00630576 0)
(0.0960328 0.00320174 0)
(0.0959237 0.0033413 0)
(0.0958117 0.00348888 0)
(0.0956969 0.00364504 0)
(0.0955794 0.00381034 0)
(0.0954591 0.00398544 0)
(0.0953362 0.00417102 0)
(0.0952106 0.0043678 0)
(0.0950826 0.00457658 0)
(0.0949523 0.00479821 0)
(0.0948199 0.0050336 0)
(0.0946857 0.00528374 0)
(0.0945499 0.00554966 0)
(0.094413 0.0058325 0)
(0.0942753 0.00613345 0)
(0.0941376 0.00645376 0)
(0.0961699 0.00330577 0)
(0.0960685 0.00344787 0)
(0.0959648 0.00359797 0)
(0.0958589 0.00375661 0)
(0.0957508 0.00392436 0)
(0.0956406 0.00410182 0)
(0.0955284 0.00428965 0)
(0.0954144 0.00448856 0)
(0.0952987 0.0046993 0)
(0.0951816 0.00492267 0)
(0.0950633 0.00515955 0)
(0.0949442 0.00541084 0)
(0.0948246 0.00567754 0)
(0.094705 0.00596069 0)
(0.0945859 0.00626138 0)
(0.094468 0.00658079 0)
(0.0963092 0.00340229 0)
(0.0962156 0.00354643 0)
(0.0961201 0.00369852 0)
(0.0960229 0.00385907 0)
(0.0959242 0.00402865 0)
(0.095824 0.00420781 0)
(0.0957224 0.0043972 0)
(0.0956198 0.00459748 0)
(0.0955162 0.00480937 0)
(0.095412 0.00503362 0)
(0.0953075 0.00527104 0)
(0.0952031 0.0055225 0)
(0.0950992 0.0057889 0)
(0.0949964 0.00607121 0)
(0.0948952 0.00637044 0)
(0.0947965 0.00668764 0)
(0.0964504 0.00349133 0)
(0.0963643 0.00363703 0)
(0.096277 0.00379059 0)
(0.0961886 0.00395252 0)
(0.096099 0.00412333 0)
(0.0960086 0.00430358 0)
(0.0959175 0.00449386 0)
(0.095826 0.0046948 0)
(0.0957343 0.00490706 0)
(0.0956427 0.00513137 0)
(0.0955516 0.00536847 0)
(0.0954614 0.00561916 0)
(0.0953727 0.00588428 0)
(0.0952861 0.00616471 0)
(0.0952021 0.00646136 0)
(0.0951216 0.00677519 0)
(0.0965928 0.00357295 0)
(0.0965144 0.00371975 0)
(0.0964351 0.00387431 0)
(0.0963552 0.00403709 0)
(0.0962747 0.00420859 0)
(0.0961939 0.00438932 0)
(0.096113 0.00457986 0)
(0.0960323 0.00478078 0)
(0.0959521 0.00499271 0)
(0.0958727 0.00521631 0)
(0.0957946 0.00545228 0)
(0.0957183 0.00570136 0)
(0.0956442 0.00596429 0)
(0.095573 0.00624188 0)
(0.0955054 0.00653496 0)
(0.0954422 0.00684437 0)
(0.0967362 0.00364725 0)
(0.0966652 0.00379472 0)
(0.0965939 0.0039498 0)
(0.0965223 0.00411294 0)
(0.0964507 0.0042846 0)
(0.0963793 0.00446526 0)
(0.0963084 0.00465546 0)
(0.0962382 0.00485574 0)
(0.0961691 0.00506667 0)
(0.0961015 0.00528888 0)
(0.0960359 0.00552298 0)
(0.0959727 0.00576966 0)
(0.0959126 0.00602959 0)
(0.0958562 0.0063035 0)
(0.0958042 0.00659211 0)
(0.0957575 0.00689616 0)
(0.0968801 0.00371435 0)
(0.0968164 0.00386208 0)
(0.0967528 0.00401725 0)
(0.0966894 0.00418028 0)
(0.0966264 0.0043516 0)
(0.0965642 0.00453168 0)
(0.0965029 0.00472099 0)
(0.0964429 0.00492004 0)
(0.0963845 0.00512937 0)
(0.0963283 0.00534953 0)
(0.0962747 0.0055811 0)
(0.0962241 0.00582467 0)
(0.0961773 0.00608088 0)
(0.0961349 0.00635034 0)
(0.0960976 0.00663369 0)
(0.0960663 0.0069316 0)
(0.0970241 0.0037744 0)
(0.0969676 0.00392199 0)
(0.0969115 0.00407683 0)
(0.0968561 0.00423932 0)
(0.0968015 0.00440985 0)
(0.096748 0.00458886 0)
(0.096696 0.00477678 0)
(0.0966459 0.00497408 0)
(0.0965979 0.00518124 0)
(0.0965525 0.00539878 0)
(0.0965103 0.0056272 0)
(0.0964717 0.00586705 0)
(0.0964375 0.00611887 0)
(0.0964083 0.00638322 0)
(0.0963849 0.00666064 0)
(0.0963682 0.0069517 0)
(0.0971679 0.00382757 0)
(0.0971183 0.00397466 0)
(0.0970696 0.00412879 0)
(0.0970218 0.00429032 0)
(0.0969754 0.00445964 0)
(0.0969304 0.00463713 0)
(0.0968874 0.00482319 0)
(0.0968466 0.00501825 0)
(0.0968085 0.00522275 0)
(0.0967735 0.00543714 0)
(0.0967422 0.00566188 0)
(0.096715 0.00589744 0)
(0.0966927 0.00614432 0)
(0.0966759 0.00640297 0)
(0.0966655 0.00667388 0)
(0.0966623 0.0069575 0)
(0.0973111 0.00387404 0)
(0.0972683 0.00402028 0)
(0.0972266 0.00417334 0)
(0.0971863 0.00433356 0)
(0.0971477 0.00450127 0)
(0.0971109 0.00467683 0)
(0.0970765 0.00486061 0)
(0.0970447 0.00505299 0)
(0.097016 0.00525437 0)
(0.0969909 0.00546515 0)
(0.0969698 0.00568573 0)
(0.0969534 0.00591653 0)
(0.0969423 0.00615796 0)
(0.0969372 0.00641043 0)
(0.0969388 0.00667433 0)
(0.0969482 0.00695003 0)
(0.0974533 0.00391401 0)
(0.0974171 0.00405909 0)
(0.0973823 0.00421075 0)
(0.0973492 0.0043693 0)
(0.097318 0.00453505 0)
(0.0972891 0.00470831 0)
(0.0972629 0.00488943 0)
(0.0972397 0.00507875 0)
(0.0972199 0.00527661 0)
(0.0972041 0.00548336 0)
(0.0971927 0.00569937 0)
(0.0971864 0.00592498 0)
(0.0971858 0.00616055 0)
(0.0971916 0.00640642 0)
(0.0972045 0.00666291 0)
(0.0972254 0.00693031 0)
(0.0975944 0.00394769 0)
(0.0975645 0.00409133 0)
(0.0975363 0.00424129 0)
(0.09751 0.00439786 0)
(0.097486 0.00456132 0)
(0.0974647 0.00473196 0)
(0.0974462 0.00491008 0)
(0.0974312 0.00509597 0)
(0.0974199 0.00528996 0)
(0.0974128 0.00549233 0)
(0.0974106 0.00570341 0)
(0.0974138 0.00592348 0)
(0.0974229 0.00615284 0)
(0.0974388 0.00639177 0)
(0.0974621 0.00664052 0)
(0.0974937 0.0068993 0)
(0.097734 0.00397533 0)
(0.0977102 0.00411724 0)
(0.0976883 0.00426523 0)
(0.0976686 0.00441954 0)
(0.0976515 0.00458042 0)
(0.0976372 0.00474814 0)
(0.0976262 0.00492295 0)
(0.0976188 0.00510513 0)
(0.0976155 0.00529493 0)
(0.0976168 0.00549262 0)
(0.0976231 0.00569846 0)
(0.0976351 0.00591269 0)
(0.0976533 0.00613556 0)
(0.0976785 0.00636728 0)
(0.0977114 0.00660804 0)
(0.0977527 0.00685798 0)
(0.0978719 0.00399714 0)
(0.0978539 0.00413709 0)
(0.097838 0.00428285 0)
(0.0978246 0.00443465 0)
(0.097814 0.0045927 0)
(0.0978065 0.00475723 0)
(0.0978025 0.00492848 0)
(0.0978024 0.00510667 0)
(0.0978066 0.00529203 0)
(0.0978156 0.00548477 0)
(0.0978299 0.00568512 0)
(0.0978501 0.00589328 0)
(0.0978767 0.00610942 0)
(0.0979105 0.00633373 0)
(0.0979522 0.00656631 0)
(0.0980024 0.00680727 0)
(0.0980078 0.00401337 0)
(0.0979953 0.00415115 0)
(0.0979853 0.00429446 0)
(0.0979778 0.00444352 0)
(0.0979734 0.00459851 0)
(0.0979724 0.00475963 0)
(0.097975 0.00492708 0)
(0.0979817 0.00510106 0)
(0.0979929 0.00528175 0)
(0.0980091 0.00546934 0)
(0.0980308 0.005664 0)
(0.0980586 0.00586589 0)
(0.098093 0.00607514 0)
(0.0981347 0.00629187 0)
(0.0981843 0.00651616 0)
(0.0982426 0.00674804 0)
(0.0981416 0.00402426 0)
(0.0981344 0.00415968 0)
(0.0981298 0.00430035 0)
(0.0981281 0.00444647 0)
(0.0981295 0.0045982 0)
(0.0981345 0.00475571 0)
(0.0981433 0.00491917 0)
(0.0981564 0.00508875 0)
(0.0981742 0.0052646 0)
(0.0981971 0.00544686 0)
(0.0982257 0.00563567 0)
(0.0982604 0.00583114 0)
(0.0983019 0.00603338 0)
(0.0983508 0.00624244 0)
(0.0984077 0.00645837 0)
(0.0984733 0.00668113 0)
(0.098273 0.00403008 0)
(0.0982709 0.00416295 0)
(0.0982715 0.00430081 0)
(0.0982751 0.00444382 0)
(0.0982821 0.00459212 0)
(0.0982927 0.00474585 0)
(0.0983073 0.00490517 0)
(0.0983264 0.00507019 0)
(0.0983503 0.00524104 0)
(0.0983794 0.00541784 0)
(0.0984144 0.00560068 0)
(0.0984555 0.00578965 0)
(0.0985035 0.00598479 0)
(0.0985589 0.00618614 0)
(0.0986223 0.00639368 0)
(0.0986945 0.00660736 0)
(0.098402 0.00403106 0)
(0.0984046 0.00416124 0)
(0.0984101 0.00429613 0)
(0.0984188 0.00443588 0)
(0.0984309 0.00458061 0)
(0.0984469 0.00473043 0)
(0.098467 0.00488546 0)
(0.0984916 0.00504581 0)
(0.0985211 0.00521156 0)
(0.098556 0.0053828 0)
(0.0985967 0.00555959 0)
(0.0986438 0.00574199 0)
(0.0986977 0.00593 0)
(0.098759 0.00612363 0)
(0.0988283 0.00632282 0)
(0.0989062 0.00652747 0)
(0.0999997 6.50148e-06 0)
(0.0999951 1.93796e-05 0)
(0.0999855 3.20365e-05 0)
(0.0999715 4.43642e-05 0)
(0.0999534 5.6786e-05 0)
(0.0999313 7.08617e-05 0)
(0.0999044 8.91359e-05 0)
(0.0998715 0.000113964 0)
(0.0998306 0.000146024 0)
(0.0997798 0.000183524 0)
(0.0997183 0.000222612 0)
(0.0996463 0.000258696 0)
(0.0995654 0.000287942 0)
(0.0994781 0.000308287 0)
(0.0993872 0.000319687 0)
(0.099295 0.000323709 0)
(0.0992034 0.00032281 0)
(0.0991136 0.000319598 0)
(0.0990259 0.000316314 0)
(0.0989403 0.000314566 0)
(0.0988565 0.000315293 0)
(0.0987737 0.000318876 0)
(0.0986915 0.000325302 0)
(0.0986093 0.000334331 0)
(0.0985264 0.00034563 0)
(0.0984426 0.000358858 0)
(0.0983574 0.000373721 0)
(0.0982706 0.000389991 0)
(0.0981821 0.000407507 0)
(0.0980915 0.000426168 0)
(0.0979988 0.00044592 0)
(0.097904 0.000466747 0)
(0.0978067 0.000488657 0)
(0.0977071 0.000511675 0)
(0.0976049 0.000535837 0)
(0.0975002 0.000561186 0)
(0.0973928 0.00058777 0)
(0.0972826 0.00061564 0)
(0.0971696 0.000644849 0)
(0.0970537 0.00067545 0)
(0.0969348 0.000707499 0)
(0.0968129 0.000741052 0)
(0.0966878 0.000776168 0)
(0.0965596 0.000812907 0)
(0.0964281 0.000851329 0)
(0.0962932 0.000891498 0)
(0.096155 0.00093348 0)
(0.0960133 0.000977341 0)
(0.0958681 0.00102315 0)
(0.0957192 0.00107098 0)
(0.0955668 0.00112092 0)
(0.0954106 0.00117303 0)
(0.0952507 0.00122742 0)
(0.095087 0.00128423 0)
(0.0949196 0.00134366 0)
(0.0999997 7.3905e-06 0)
(0.0999952 2.20354e-05 0)
(0.0999856 3.64264e-05 0)
(0.0999716 5.04512e-05 0)
(0.0999537 6.45716e-05 0)
(0.0999317 8.05164e-05 0)
(0.0999051 0.000101124 0)
(0.0998726 0.00012905 0)
(0.0998325 0.000165098 0)
(0.0997828 0.000207327 0)
(0.0997227 0.000251472 0)
(0.0996523 0.000292402 0)
(0.099573 0.000325795 0)
(0.0994873 0.000349281 0)
(0.0993975 0.000362736 0)
(0.0993062 0.000367854 0)
(0.0992151 0.000367339 0)
(0.0991255 0.0003641 0)
(0.0990378 0.00036065 0)
(0.0989521 0.000358814 0)
(0.0988681 0.000359672 0)
(0.0987852 0.000363683 0)
(0.098703 0.000370858 0)
(0.0986207 0.00038095 0)
(0.098538 0.0003936 0)
(0.0984544 0.000408437 0)
(0.0983697 0.000425135 0)
(0.0982834 0.00044344 0)
(0.0981954 0.000463171 0)
(0.0981056 0.000484212 0)
(0.0980138 0.000506502 0)
(0.0979198 0.000530019 0)
(0.0978236 0.000554769 0)
(0.0977251 0.000580777 0)
(0.0976241 0.000608082 0)
(0.0975207 0.000636732 0)
(0.0974146 0.000666777 0)
(0.0973059 0.000698273 0)
(0.0971945 0.000731277 0)
(0.0970802 0.00076585 0)
(0.0969631 0.00080205 0)
(0.096843 0.000839942 0)
(0.09672 0.000879588 0)
(0.0965938 0.000921055 0)
(0.0964646 0.000964409 0)
(0.0963321 0.00100972 0)
(0.0961963 0.00105706 0)
(0.0960573 0.0011065 0)
(0.0959149 0.00115812 0)
(0.095769 0.00121199 0)
(0.0956197 0.0012682 0)
(0.0954669 0.00132683 0)
(0.0953105 0.00138798 0)
(0.0951506 0.00145176 0)
(0.094987 0.00151831 0)
(0.0999997 8.27418e-06 0)
(0.0999952 2.46742e-05 0)
(0.0999857 4.07889e-05 0)
(0.0999718 5.65019e-05 0)
(0.099954 7.23092e-05 0)
(0.0999321 9.00937e-05 0)
(0.0999058 0.00011297 0)
(0.0998738 0.000143883 0)
(0.0998344 0.000183775 0)
(0.0997859 0.00023058 0)
(0.0997272 0.000279657 0)
(0.0996584 0.000325371 0)
(0.0995809 0.000362926 0)
(0.0994966 0.000389636 0)
(0.0994082 0.000405281 0)
(0.0993178 0.000411649 0)
(0.0992273 0.00041167 0)
(0.0991379 0.000408528 0)
(0.0990503 0.000405 0)
(0.0989646 0.000403121 0)