/*--------------------------------*- C++ -*----------------------------------*\
| =========                 |                                                 |
| \\      /  F ield         | OpenFOAM: The Open Source CFD Toolbox           |
|  \\    /   O peration     | Version:  2412                                  |
|   \\  /    A nd           | Website:  www.openfoam.com                      |
|    \\/     M anipulation  |                                                 |
\*---------------------------------------------------------------------------*/
FoamFile
{
    version     2.0;
    format      ascii;
    arch        "LSB;label=32;scalar=64";
    class       surfaceScalarField;
    location    "19";
    object      phi;
}
// * * * * * * * * * * * * * * * * * * * * * * * * * * * * * * * * * * * * * //

dimensions      [0 3 -1 0 0 0 0];

oriented        oriented;

internalField   nonuniform List<scalar> 
10421
(
0.00161275
-0.000162265
1.45478e-08
0.00177388
-0.000161139
1.52539e-08
0.00193296
-0.000159104
1.5806e-08
0.00208921
-0.000156261
1.60246e-08
0.0022419
-0.000152707
1.58621e-08
0.00239042
-0.000148539
1.53756e-08
0.00253426
-0.000143847
1.46286e-08
0.00267296
-0.000138721
1.36803e-08
0.0028062
-0.000133245
1.25737e-08
0.00293368
-0.000127498
1.13386e-08
0.00305523
-0.000121555
9.99757e-09
0.0031707
-0.000115484
8.57308e-09
0.00328004
-0.000109348
7.0901e-09
0.00338324
-0.000103203
5.5805e-09
0.00348034
-9.71011e-05
4.07852e-09
0.00357142
-9.10863e-05
2.62052e-09
0.00365662
-8.51974e-05
1.24079e-09
0.00373609
-7.94674e-05
-2.96362e-11
0.00381001
-7.39239e-05
-1.16293e-09
0.0038786
-6.85891e-05
-2.14233e-09
0.00394209
-6.34804e-05
-2.95433e-09
0.0040007
-5.86104e-05
-3.59248e-09
0.00405469
-5.39878e-05
-4.05593e-09
0.00410431
-4.96174e-05
-4.34874e-09
0.00414982
-4.55003e-05
-4.47836e-09
0.00419146
-4.16348e-05
-4.45383e-09
0.00422948
-3.80159e-05
-4.28491e-09
-3.4636e-05
0.00426412
-3.9818e-09
0.00162558
-0.000322058
0.00178442
-0.000319979
0.00194141
-0.000316089
0.00209574
-0.00031059
0.0022467
-0.000303674
0.00239369
-0.000295528
0.00253618
-0.000286335
0.00267373
-0.000276268
0.00280597
-0.000265495
0.00293265
-0.000254173
0.00305355
-0.000242451
0.00316853
-0.000230466
0.00327752
-0.000218341
0.00338051
-0.000206192
0.00347753
-0.000194118
0.00356865
-0.00018221
0.003654
-0.000170546
0.00373372
-0.000159192
0.003808
-0.000148202
0.00387704
-0.000137623
0.00394105
-0.000127489
0.00400026
-0.000117825
0.00405492
-0.00010865
0.00410528
-9.99727e-05
0.00415157
-9.17971e-05
0.00419406
-8.41192e-05
0.00423297
-7.69293e-05
-7.02113e-05
0.00426855
0.00164788
-0.000477185
0.0018024
-0.000474494
0.00195542
-0.000469112
0.00210616
-0.000461325
0.0022539
-0.00045142
0.00239804
-0.000439669
0.00253805
-0.000426339
0.00267347
-0.000411687
0.00280393
-0.000395961
0.00292916
-0.000379395
0.00304891
-0.000362208
0.00316305
-0.000344604
0.00327148
-0.000326772
0.00337417
-0.00030888
0.00347113
-0.000291081
0.00356243
-0.00027351
0.00364817
-0.000256284
0.00372848
-0.000239504
0.00380353
-0.000223252
0.00387351
-0.000207597
0.00393861
-0.000192593
0.00399907
-0.00017828
0.0040551
-0.000164684
0.00410695
-0.000151822
0.00415485
-0.000139699
0.00419904
-0.000128311
0.00423976
-0.000117642
-0.000107668
0.00427721
0.00167362
0.00182222
-0.000623095
0.00196986
-0.000616751
0.00211575
-0.000607217
0.0022592
-0.000594863
0.00239957
-0.000580041
0.00253633
-0.000563097
0.00266901
-0.000544367
0.00279722
-0.000524173
0.00292065
-0.000502825
0.00303905
-0.000480613
0.00315226
-0.000457807
0.00326014
-0.000434657
0.00336265
-0.000411388
0.00345978
-0.000388206
0.00355155
-0.000365289
0.00363807
-0.000342797
0.00371943
-0.000320863
0.00379578
-0.000299603
0.00386729
-0.000279107
0.00393414
-0.000259449
0.00399655
-0.000240685
0.00405472
-0.000222853
0.00410887
-0.000205974
0.00415923
-0.000190058
0.00420602
-0.000175101
0.00424946
-0.000161083
-0.000147967
0.00428976
0.0018369
-0.00076475
0.00197828
-0.000758135
0.00211861
-0.000747548
0.00225718
-0.000733433
0.00239336
-0.000716215
0.00252657
-0.000696311
0.00265633
-0.000674131
0.00278223
-0.00065007
0.00290392
-0.00062451
0.00302111
-0.000597809
0.00313361
-0.000570304
0.00324126
-0.000542307
0.00334397
-0.000514101
0.00344171
-0.000485943
0.00353448
-0.000458061
0.00362234
-0.000430654
0.00370537
-0.000403894
0.00378369
-0.000377926
0.00385745
-0.000352867
0.00392682
-0.000328814
0.00399197
-0.000305836
0.0040531
-0.000283985
0.00411041
-0.000263291
0.00416413
-0.000243768
0.00421444
-0.000225413
0.00426156
-0.000208203
-0.000192089
0.00430568
0.00183902
-0.000899027
0.00197386
-0.000892978
0.00210848
-0.000882174
0.00224216
-0.000867112
0.00237424
-0.000848288
0.00250411
-0.000826182
0.00263125
-0.000801273
0.00275521
-0.000774028
0.00287559
-0.000744896
0.00299209
-0.000714307
0.00310445
-0.000682663
0.00321248
-0.00065034
0.00331606
-0.00061768
0.00341511
-0.000584994
0.00350961
-0.000552559
0.00359958
-0.00052062
0.00368507
-0.000489386
0.00376618
-0.000459036
0.00384303
-0.000429715
0.00391576
-0.000401543
0.00398453
-0.000374609
0.00404952
-0.000348976
0.00411092
-0.000324687
0.00416891
-0.000301761
0.00422369
-0.000280196
0.00427546
-0.00025997
-0.000241024
0.0043244
0.00182242
0.00195108
-0.00102164
0.00208044
-0.00101154
0.00220975
-0.000996423
0.00233831
-0.000976849
0.00246549
-0.000953357
0.00259071
-0.000926491
0.00271346
-0.000896785
0.00283333
-0.000864758
0.00294993
-0.00083091
0.00306297
-0.00079571
0.00317223
-0.000759599
0.00327754
-0.000722982
0.00337877
-0.000686227
0.00347587
-0.000649662
0.00356883
-0.00061358
0.00365768
-0.000578231
0.00374247
-0.00054383
0.00382331
-0.000510555
0.00390031
-0.000478547
0.00397362
-0.000447919
0.0040434
-0.000418749
0.0041098
-0.000391091
0.00417301
-0.000364972
0.00423321
-0.000340394
0.00429058
-0.000317338
0.0043453
-0.000295749
0.00430508
-4.09602e-05
-3.57617e-09
0.00434393
-3.88439e-05
-3.10406e-09
0.00438074
-3.68053e-05
-2.53052e-09
0.00441559
-3.48524e-05
-1.88131e-09
0.00444858
-3.2989e-05
-1.17704e-09
0.0044798
-3.12169e-05
-4.34874e-10
0.00450933
-2.95368e-05
3.29637e-10
0.00453728
-2.79485e-05
1.10169e-09
0.00456373
-2.64507e-05
1.86809e-09
0.00458877
-2.50416e-05
2.61777e-09
0.00461248
-2.37184e-05
3.34192e-09
0.00463496
-2.2478e-05
4.03485e-09
0.00465627
-2.13168e-05
4.69369e-09
0.0046765
-2.02308e-05
5.31832e-09
0.00469571
-1.92154e-05
5.9109e-09
0.00471397
-1.8266e-05
6.47522e-09
0.00473134
-1.73773e-05
7.01551e-09
0.00474787
-1.65436e-05
7.53561e-09
0.00476362
-1.57589e-05
8.03844e-09
0.00477863
-1.50165e-05
8.52506e-09
0.00479293
-1.43095e-05
8.9937e-09
0.00480655
-1.36308e-05
9.43909e-09
0.00481952
-1.29736e-05
9.85228e-09
0.00483184
-1.23318e-05
1.02213e-08
0.00484353
-1.17011e-05
1.05307e-08
0.0048546
-1.10793e-05
1.07643e-08
0.00486505
-1.04667e-05
1.09057e-08
0.00487491
-9.86653e-06
1.09405e-08
0.00488418
-9.2846e-06
1.08591e-08
0.0048929
-8.72829e-06
1.06563e-08
0.00490109
-8.20544e-06
1.03347e-08
0.00490881
-7.72295e-06
9.90258e-09
0.00491608
-7.28552e-06
9.37407e-09
0.00492297
-6.89478e-06
8.76776e-09
0.00492951
-6.54907e-06
8.10424e-09
0.00493575
-6.24388e-06
7.40396e-09
0.00494171
-5.97269e-06
6.68638e-09
0.00494744
-5.72809e-06
5.96853e-09
0.00495293
-5.50292e-06
5.26368e-09
0.00495822
-5.29101e-06
4.58133e-09
0.0049633
-5.08768e-06
3.92778e-09
0.00496819
-4.8898e-06
3.30748e-09
0.00497288
-4.69561e-06
2.72297e-09
-4.50444e-06
2.1773e-09
0.00430901
-8.14272e-05
0.00434741
-7.72444e-05
0.00438382
-7.32144e-05
0.00441832
-6.93521e-05
0.004451
-6.56647e-05
0.00448194
-6.21559e-05
0.00451123
-5.88273e-05
0.00453896
-5.56786e-05
0.00456522
-5.27076e-05
0.00459008
-4.99108e-05
0.00461365
-4.72833e-05
0.00463599
-4.48189e-05
0.00465718
-4.25107e-05
0.0046773
-4.03508e-05
0.00469642
-3.83306e-05
0.00471459
-3.64407e-05
0.00473189
-3.4671e-05
0.00474835
-3.30103e-05
0.00476404
-3.14467e-05
0.00477899
-2.9967e-05
0.00479324
-2.85576e-05
0.00480681
-2.72045e-05
0.00481973
-2.58942e-05
0.00483202
-2.4615e-05
0.00484368
-2.33582e-05
0.00485472
-2.21193e-05
0.00486515
-2.0899e-05
0.00487498
-1.97038e-05
0.00488425
-1.8545e-05
0.00489295
-1.74372e-05
0.00490114
-1.63958e-05
0.00490886
-1.54344e-05
0.00491613
-1.45623e-05
0.00492302
-1.37828e-05
0.00492956
-1.30927e-05
0.0049358
-1.24829e-05
0.00494177
-1.19406e-05
0.00494749
-1.14513e-05
0.00495299
-1.10007e-05
0.00495828
-1.05766e-05
0.00496336
-1.01698e-05
0.00496824
-9.77406e-06
0.00497293
-9.38583e-06
-9.00377e-06
0.00431672
-0.000120929
0.00435425
-0.000114777
0.00438988
-0.000108849
0.00442369
-0.000103162
0.00445576
-9.77285e-05
0.00448615
-9.25527e-05
0.00451496
-8.76379e-05
0.00454227
-8.29842e-05
0.00456815
-7.8589e-05
0.00459269
-7.44477e-05
0.00461596
-7.05535e-05
0.00463804
-6.68981e-05
0.004659
-6.34717e-05
0.00467891
-6.02629e-05
0.00469784
-5.72596e-05
0.00471585
-5.4448e-05
0.00473299
-5.18135e-05
0.00474932
-4.93399e-05
0.00476488
-4.70096e-05
0.00477972
-4.48036e-05
0.00479386
-4.27018e-05
0.00480734
-4.06836e-05
0.00482018
-3.87295e-05
0.00483238
-3.68222e-05
0.00484397
-3.49487e-05
0.00485496
-3.31025e-05
0.00486534
-3.12847e-05
0.00487514
-2.95045e-05
0.00488438
-2.77786e-05
0.00489307
-2.61282e-05
0.00490125
-2.4576e-05
0.00490896
-2.3142e-05
0.00491623
-2.18399e-05
0.00492313
-2.06744e-05
0.00492967
-1.96409e-05
0.00493592
-1.87264e-05
0.00494189
-1.7912e-05
0.00494761
-1.71763e-05
0.00495311
-1.64984e-05
0.0049584
-1.58604e-05
0.00496347
-1.52486e-05
0.00496835
-1.46538e-05
0.00497304
-1.40706e-05
-1.34972e-05
0.00432788
-0.00015905
0.00436417
-0.00015107
0.0043987
-0.000143375
0.00443152
-0.000135986
0.00446271
-0.000128915
0.00449233
-0.000122171
0.00452045
-0.000115758
0.00454714
-0.000109677
0.00457248
-0.000103927
0.00459653
-9.8502e-05
0.00461937
-9.3395e-05
0.00464107
-8.85959e-05
0.00466169
-8.40924e-05
0.0046813
-7.98708e-05
0.00469995
-7.59155e-05
0.00471772
-7.22094e-05
0.00473464
-6.87337e-05
0.00475076
-6.54675e-05
0.00476614
-6.23885e-05
0.00478081
-5.94722e-05
0.0047948
-5.66925e-05
0.00480814
-5.40232e-05
0.00482085
-5.14386e-05
0.00483294
-4.89166e-05
0.00484444
-4.64403e-05
0.00485534
-4.40012e-05
0.00486565
-4.16005e-05
0.0048754
-3.92502e-05
0.00488459
-3.69713e-05
0.00489325
-3.47915e-05
0.00490142
-3.27399e-05
0.00490912
-3.08426e-05
0.00491639
-2.9117e-05
0.00492329
-2.75697e-05
0.00492984
-2.61948e-05
0.00493609
-2.49754e-05
0.00494207
-2.38874e-05
0.00494779
-2.2903e-05
0.00495329
-2.19953e-05
0.00495857
-2.11409e-05
0.00496365
-2.03219e-05
0.00496852
-1.95263e-05
0.00497319
-1.87472e-05
-1.79816e-05
0.00434208
-0.000195452
0.00437683
-0.000185819
0.00440998
-0.000176521
0.00444157
-0.000167577
0.00447165
-0.000159003
0.00450029
-0.00015081
0.00452754
-0.000143006
0.00455346
-0.000135594
0.00457811
-0.000128574
0.00460154
-0.000121941
0.00462384
-0.000115688
0.00464505
-0.000109804
0.00466523
-0.000104275
0.00468444
-9.90862e-05
0.00470275
-9.42185e-05
0.00472019
-8.96522e-05
0.00473682
-8.53651e-05
0.00475269
-8.13326e-05
0.00476782
-7.7528e-05
0.00478227
-7.39218e-05
0.00479607
-7.04832e-05
0.00480922
-6.71803e-05
0.00482177
-6.39827e-05
0.00483371
-6.08634e-05
0.00484508
-5.78022e-05
0.00485586
-5.47886e-05
0.00486609
-5.18239e-05
0.00487576
-4.89222e-05
0.0048849
-4.61087e-05
0.00489352
-4.34163e-05
0.00490166
-4.08801e-05
0.00490935
-3.85312e-05
0.00491662
-3.6391e-05
0.00492352
-3.44674e-05
0.00493008
-3.27536e-05
0.00493633
-3.12295e-05
0.00494231
-2.98663e-05
0.00494804
-2.86306e-05
0.00495353
-2.74899e-05
0.00495881
-2.64161e-05
0.00496388
-2.53874e-05
0.00496874
-2.4389e-05
0.0049734
-2.34123e-05
-2.24538e-05
0.00435883
-0.000229885
0.00439181
-0.000218803
0.00442338
-0.000208085
0.00445355
-0.000197751
0.00448237
-0.00018782
0.00450987
-0.000178311
0.0045361
-0.000169235
0.00456111
-0.0001606
0.00458494
-0.000152406
0.00460765
-0.000144651
0.00462929
-0.000137329
0.00464991
-0.000130428
0.00466957
-0.000123934
0.00468832
-0.00011783
0.00470619
-0.000112096
0.00472325
-0.00010671
0.00473953
-0.000101647
0.00475508
-9.68797e-05
0.00476993
-9.23768e-05
0.00478411
-8.81054e-05
0.00479766
-8.40304e-05
0.0048106
-8.01154e-05
0.00482294
-7.63255e-05
0.0048347
-7.26297e-05
0.00484591
-6.90049e-05
0.00485656
-6.54388e-05
0.00486667
-6.19326e-05
0.00487625
-5.85019e-05
0.00488531
-5.51755e-05
0.00489389
-5.19906e-05
0.00490199
-4.89873e-05
0.00490966
-4.62013e-05
0.00491693
-4.36571e-05
0.00492383
-4.13641e-05
0.00493039
-3.93148e-05
0.00493665
-3.74866e-05
0.00494263
-3.58466e-05
0.00494835
-3.43568e-05
0.00495384
-3.29798e-05
0.00495911
-3.16832e-05
0.00496416
-3.04419e-05
0.00496901
-2.92385e-05
0.00497366
-2.80628e-05
-2.69104e-05
0.00437762
-0.000262202
0.00440871
-0.000249891
0.00443857
-0.000237941
0.0044672
-0.000226382
0.00449462
-0.000215246
0.00452087
-0.000204557
0.00454597
-0.000194334
0.00456995
-0.000184587
0.00459287
-0.000175323
0.00461476
-0.000166539
0.00463566
-0.00015823
0.00465562
-0.000150387
0.00467468
-0.000142994
0.00469288
-0.000136033
0.00471027
-0.000129485
0.00472689
-0.000123325
0.00474277
-0.000117526
0.00475794
-0.000112059
0.00477246
-0.000106889
0.00478633
-0.00010198
0.0047996
-9.72948e-05
0.00481227
-9.2792e-05
0.00482438
-8.84335e-05
0.00483594
-8.41851e-05
0.00484695
-8.0021e-05
0.00485744
-7.59272e-05
0.00486741
-7.19048e-05
0.00487688
-6.79707e-05
0.00488586
-6.41558e-05
0.00489437
-6.05012e-05
0.00490244
-5.70509e-05
0.00491008
-5.38442e-05
0.00491733
-5.09084e-05
0.00492422
-4.82542e-05
0.00493078
-4.58738e-05
0.00493704
-4.37427e-05
0.00494301
-4.18247e-05
0.00494873
-4.0078e-05
0.00495422
-3.84615e-05
0.00495947
-3.69388e-05
0.00496451
-3.5482e-05
0.00496934
-3.40713e-05
0.00497398
-3.26951e-05
-3.1348e-05
0.00460933
-0.000293839
-0.0045777
0.00463985
-0.000280412
0.00466925
-0.000267334
0.00469751
-0.000254651
0.00472467
-0.000242404
0.00475074
-0.000230623
0.00477574
-0.000219331
0.00479969
-0.000208545
0.00482264
-0.000198271
0.00484461
-0.000188512
0.00486565
-0.000179263
0.00488578
-0.000170516
0.00490504
-0.000162256
0.00492347
-0.000154466
0.00494111
-0.000147124
0.00495799
-0.000140206
0.00497415
-0.000133682
0.00498961
-0.000127523
0.00500441
-0.000121691
0.00501858
-0.000116148
0.00503214
-0.000110854
0.00504511
-0.000105764
0.00505752
-0.000100838
0.00506937
-9.60383e-05
0.00508069
-9.13375e-05
0.00509148
-8.672e-05
0.00510176
-8.21864e-05
0.00511154
-7.77542e-05
0.00512084
-7.34563e-05
0.00512968
-6.93362e-05
0.00513807
-6.54409e-05
0.00514604
-6.18128e-05
0.00515361
-5.84816e-05
0.00516082
-5.54592e-05
0.00516768
-5.27376e-05
0.00517423
-5.02911e-05
0.00518048
-4.80812e-05
0.00518647
-4.6063e-05
0.0051922
-4.41921e-05
0.00519769
-4.24293e-05
0.00520295
-4.07436e-05
0.00520799
-3.91136e-05
0.00521283
-3.75258e-05
-3.5974e-05
0.00463322
-0.000323198
-0.00460386
0.0046616
-0.000308794
0.00468901
-0.000294738
0.00471544
-0.000281085
0.00474091
-0.000267876
0.00476544
-0.000255146
0.00478903
-0.000242921
0.0048117
-0.00023122
0.00483349
-0.000220055
0.0048544
-0.000209428
0.00487448
-0.000199338
0.00489374
-0.000189777
0.00491221
-0.000180731
0.00492993
-0.000172183
0.00494692
-0.000164112
0.0049632
-0.000156492
0.00497882
-0.000149296
0.00499378
-0.000142489
0.00500813
-0.000136036
0.00502188
-0.000129897
0.00503505
-0.000124027
0.00504767
-0.000118382
0.00505975
-0.00011292
0.00507131
-0.0001076
0.00508237
-0.000102394
0.00509294
-9.72849e-05
0.00510302
-9.22724e-05
0.00511264
-8.73743e-05
0.00512181
-8.26243e-05
0.00513054
-7.80676e-05
0.00513885
-7.37532e-05
0.00514677
-6.97254e-05
0.0051543
-6.60155e-05
0.00516148
-6.26367e-05
0.00516832
-5.95811e-05
0.00517485
-5.68226e-05
0.00518109
-5.43211e-05
0.00518706
-5.20299e-05
0.00519277
-4.99021e-05
0.00519824
-4.78962e-05
0.00520347
-4.59793e-05
0.00520849
-4.4128e-05
0.00521329
-4.23275e-05
-4.05706e-05
0.00465848
-0.000350206
-0.00463147
0.00468467
-0.00033498
0.00471003
-0.000320103
0.00473458
-0.000305631
0.00475831
-0.000291608
0.00478124
-0.000278071
0.00480336
-0.000265047
0.0048247
-0.000252559
0.00484526
-0.000240619
0.00486507
-0.000229234
0.00488413
-0.000218402
0.00490247
-0.000208117
0.00492011
-0.000198367
0.00493706
-0.000189136
0.00495335
-0.000180403
0.004969
-0.000172142
0.00498403
-0.000164326
0.00499847
-0.000156921
0.00501232
-0.00014989
0.00502561
-0.000143192
0.00503837
-0.000136783
0.00505061
-0.000130618
0.00506234
-0.000124652
0.00507358
-0.000118846
0.00508436
-0.000113167
0.00509467
-0.000107599
0.00510454
-0.000102141
0.00511398
-9.681e-05
0.00512299
-9.16402e-05
0.0051316
-8.6677e-05
0.00513982
-8.19702e-05
0.00514766
-7.75653e-05
0.00515514
-7.34949e-05
0.00516227
-6.97728e-05
0.00516908
-6.6392e-05
0.00517559
-6.3326e-05
0.0051818
-6.05346e-05
0.00518774
-5.79699e-05
0.00519342
-5.55836e-05
0.00519886
-5.33328e-05
0.00520406
-5.11828e-05
0.00520904
-4.9109e-05
0.00521381
-4.70952e-05
-4.51332e-05
0.00468495
-0.000374792
-0.00466036
0.00470888
-0.000358914
0.00473216
-0.000343379
0.00475477
-0.000328245
0.00477672
-0.000313558
0.00479801
-0.000299354
0.00481863
-0.000285667
0.00483858
-0.000272517
0.00485788
-0.00025992
0.00487654
-0.000247885
0.00489455
-0.000236411
0.00491192
-0.000225495
0.00492868
-0.000215125
0.00494483
-0.000205286
0.00496039
-0.000195958
0.00497536
-0.000187119
0.00498978
-0.000178738
0.00500364
-0.000170784
0.00501697
-0.00016322
0.00502978
-0.000156006
0.0050421
-0.000149097
0.00505393
-0.000142447
0.00506528
-0.000136012
0.00507619
-0.000129752
0.00508666
-0.000123634
0.0050967
-0.000117641
0.00510633
-0.000111772
0.00511556
-0.000106041
0.00512441
-0.000100484
0.00513287
-9.51449e-05
0.00514098
-9.00732e-05
0.00514873
-8.53148e-05
0.00515613
-8.09028e-05
0.00516321
-7.68518e-05
0.00516998
-7.31556e-05
0.00517644
-6.97884e-05
0.00518261
-6.67101e-05
0.00518852
-6.38727e-05
0.00519416
-6.12277e-05
0.00519956
-5.87311e-05
0.00520472
-5.63474e-05
0.00520967
-5.40505e-05
0.00521439
-5.18235e-05
-4.9657e-05
0.00471244
-0.000396911
-0.00469033
0.00473409
-0.000380556
0.00475524
-0.00036453
0.00477588
-0.000348893
0.00479602
-0.000333692
0.00481563
-0.000318966
0.00483471
-0.000304748
0.00485326
-0.000291062
0.00487126
-0.000277925
0.00488872
-0.000265348
0.00490565
-0.000253333
0.00492203
-0.000241877
0.00493787
-0.00023097
0.00495319
-0.0002206
0.00496798
-0.000210748
0.00498225
-0.000201392
0.00499602
-0.000192504
0.00500929
-0.000184053
0.00502207
-0.000176003
0.00503438
-0.000168314
0.00504622
-0.000160944
0.00505762
-0.000153847
0.00506859
-0.000146978
0.00507914
-0.000140299
0.00508928
-0.000133777
0.00509903
-0.000127393
0.00510841
-0.000121145
0.00511741
-0.00011505
0.00512607
-0.000109137
0.00513437
-0.000103452
0.00514234
-9.80428e-05
0.00514998
-9.29548e-05
0.0051573
-8.82209e-05
0.00516431
-8.38566e-05
0.00517101
-7.98562e-05
0.00517741
-7.61953e-05
0.00518354
-7.28348e-05
0.00518939
-6.97274e-05
0.00519499
-6.68248e-05
0.00520034
-6.40829e-05
0.00520546
-6.14656e-05
0.00521036
-5.89463e-05
0.00521504
-5.65068e-05
-5.4137e-05
0.00474076
-0.000416548
-0.00472112
0.00476009
-0.000399891
0.00477911
-0.000383541
0.00479777
-0.000367559
0.00481607
-0.000351994
0.00483399
-0.000336886
0.00485151
-0.000322269
0.00486862
-0.000308171
0.00488531
-0.000294611
0.00490156
-0.000281599
0.00491737
-0.000269142
0.00493273
-0.000257237
0.00494764
-0.000245878
0.00496209
-0.000235054
0.00497609
-0.000224747
0.00498964
-0.000214938
0.00500273
-0.0002056
0.00501538
-0.000196704
0.0050276
-0.000188216
0.00503938
-0.000180097
0.00505074
-0.000172306
0.00506169
-0.0001648
0.00507225
-0.000157534
0.00508242
-0.000150471
0.00509222
-0.000143578
0.00510167
-0.000136837
0.00511077
-0.000130246
0.00511953
-0.000123817
0.00512798
-0.000117581
0.0051361
-0.000111579
0.00514392
-0.00010586
0.00515143
-0.000100466
0.00515864
-9.54306e-05
0.00516556
-9.07691e-05
0.00517218
-8.64772e-05
0.00517851
-8.25318e-05
0.00518457
-7.88953e-05
0.00519037
-7.5522e-05
0.00519591
-7.23645e-05
0.0052012
-6.93792e-05
0.00520627
-6.65301e-05
0.00521111
-6.37897e-05
0.00521574
-6.11394e-05
-5.85683e-05
0.00476968
-0.000433723
-0.0047525
0.00478672
-0.000416933
0.0048036
-0.00040042
0.00482029
-0.000384246
0.00483675
-0.000368462
0.00485298
-0.000353109
0.00486893
-0.000338224
0.0048846
-0.000323835
0.00489995
-0.000309963
0.00491497
-0.000296622
0.00492965
-0.00028382
0.00494397
-0.000271557
0.00495792
-0.000259829
0.00497149
-0.000248626
0.00498468
-0.000237935
0.00499748
-0.000227736
0.00500989
-0.000218007
0.0050219
-0.000208719
0.00503353
-0.000199842
0.00504477
-0.000191338
0.00505563
-0.000183168
0.00506612
-0.000175291
0.00507625
-0.000167665
0.00508604
-0.000160253
0.00509548
-0.000153024
0.0051046
-0.00014596
0.00511341
-0.000139056
0.00512192
-0.000132326
0.00513014
-0.000125797
0.00513807
-0.000119508
0.00514572
-0.000113505
0.00515308
-0.00010783
0.00516016
-0.000102513
0.00516696
-9.75715e-05
0.00517349
-9.30016e-05
0.00517974
-8.87822e-05
0.00518572
-8.48777e-05
0.00519144
-8.12443e-05
0.00519691
-7.78364e-05
0.00520215
-7.46111e-05
0.00520715
-7.15329e-05
0.00521193
-6.85741e-05
0.00521651
-6.57156e-05
-6.29456e-05
0.00479898
-0.000448488
-0.00478421
0.00481377
-0.000431722
0.00482854
-0.000415198
0.00484328
-0.000398978
0.00485793
-0.000383113
0.00487246
-0.000367646
0.00488686
-0.000352616
0.00490107
-0.000338052
0.00491509
-0.000323979
0.00492888
-0.000310411
0.00494242
-0.000297358
0.00495569
-0.000284825
0.00496867
-0.000272809
0.00498134
-0.000261304
0.00499371
-0.000250297
0.00500574
-0.000239773
0.00501745
-0.00022971
0.00502881
-0.000220085
0.00503984
-0.000210867
0.00505052
-0.000202024
0.00506087
-0.000193517
0.00507089
-0.000185309
0.00508059
-0.00017736
0.00508997
-0.000169634
0.00509904
-0.000162103
0.00510783
-0.000154748
0.00511634
-0.000147564
0.00512458
-0.000140563
0.00513255
-0.00013377
0.00514026
-0.000127222
0.00514772
-0.000120961
0.00515492
-0.000115027
0.00516185
-0.00010945
0.00516853
-0.000104246
0.00517494
-9.94128e-05
0.00518109
-9.49312e-05
0.00518698
-9.07682e-05
0.00519262
-8.68823e-05
0.00519801
-8.32297e-05
0.00520317
-7.97694e-05
0.0052081
-7.64662e-05
0.00521282
-7.32928e-05
0.00521734
-7.02295e-05
-6.72641e-05
0.00482844
-0.000460919
-0.004816
0.00484104
-0.000444323
0.00485377
-0.000427928
0.00486659
-0.000411797
0.00487945
-0.00039598
0.00489233
-0.000380523
0.00490518
-0.000365464
0.00491796
-0.000350836
0.00493065
-0.000336664
0.0049432
-0.000322967
0.0049556
-0.000309756
0.00496781
-0.000297038
0.00497982
-0.000284813
0.00499159
-0.000273078
0.00500312
-0.000261824
0.00501439
-0.000251037
0.00502537
-0.0002407
0.00503608
-0.000230791
0.0050465
-0.000221282
0.00505662
-0.000212145
0.00506644
-0.000203344
0.00507598
-0.000194844
0.00508523
-0.000186608
0.0050942
-0.000178604
0.0051029
-0.000170804
0.00511134
-0.00016319
0.00511953
-0.000155757
0.00512748
-0.000148515
0.0051352
-0.000141486
0.00514268
-0.000134706
0.00514993
-0.000128211
0.00515695
-0.000122041
0.00516372
-0.000116224
0.00517025
-0.000110775
0.00517653
-0.000105695
0.00518256
-0.000100964
0.00518835
-9.65533e-05
0.00519389
-9.24238e-05
0.0051992
-8.85342e-05
0.00520427
-8.4845e-05
0.00520913
-8.13223e-05
0.00521377
-7.79391e-05
0.00521822
-7.46754e-05
-7.15186e-05
0.00485784
-0.000471119
-0.00484764
0.00486834
-0.000454824
0.0048791
-0.000438684
0.00489006
-0.000422764
0.0049012
-0.000407113
0.00491245
-0.000391779
0.00492379
-0.000376799
0.00493516
-0.00036221
0.00494653
-0.000348037
0.00495787
-0.000334302
0.00496913
-0.000321019
0.00498029
-0.000308197
0.00499132
-0.00029584
0.00500219
-0.000283947
0.00501288
-0.000272512
0.00502336
-0.000261524
0.00503363
-0.00025097
0.00504367
-0.000240829
0.00505347
-0.000231079
0.00506301
-0.000221693
0.00507231
-0.00021264
0.00508136
-0.000203888
0.00509015
-0.000195404
0.0050987
-0.000187156
0.00510702
-0.000179119
0.00511511
-0.000171277
0.00512297
-0.000163624
0.00513063
-0.000156169
0.00513807
-0.000148932
0.00514531
-0.000141944
0.00515234
-0.00013524
0.00515916
-0.000128856
0.00516575
-0.000122819
0.00517212
-0.000117145
0.00517826
-0.000111832
0.00518416
-0.000106866
0.00518983
-0.00010222
0.00519526
-9.78576e-05
0.00520047
-9.37397e-05
0.00520545
-8.98293e-05
0.00521022
-8.60937e-05
0.00521479
-8.25064e-05
0.00521916
-7.90477e-05
-7.57043e-05
0.00488699
-0.000479207
-0.0048789
0.0048955
-0.000463327
0.00490437
-0.000447555
0.00491356
-0.000431955
0.00492302
-0.000416576
0.00493271
-0.000401465
0.00494257
-0.000386664
0.00495257
-0.000372207
0.00496265
-0.000358123
0.00497279
-0.000344436
0.00498293
-0.000331162
0.00499305
-0.000318314
0.0050031
-0.000305897
0.00501307
-0.000293913
0.00502292
-0.000282361
0.00503263
-0.000271232
0.00504217
-0.000260516
0.00505154
-0.000250196
0.00506072
-0.000240254
0.00506969
-0.000230665
0.00507845
-0.000221403
0.005087
-0.000212438
0.00509534
-0.00020374
0.00510346
-0.000195283
0.00511139
-0.000187042
0.00511911
-0.000179002
0.00512665
-0.000171159
0.00513399
-0.000163517
0.00514116
-0.000156097
0.00514814
-0.000148925
0.00515493
-0.000142035
0.00516154
-0.000135459
0.00516794
-0.000129222
0.00517413
-0.000123339
0.00518011
-0.000117812
0.00518587
-0.000112626
0.00519141
-0.000107757
0.00519673
-0.000103173
0.00520182
-9.88369e-05
0.00520671
-9.47141e-05
0.00521139
-9.07732e-05
0.00521587
-8.69887e-05
0.00522016
-8.33409e-05
-7.98165e-05
0.00491572
-0.000485318
-0.00490961
0.00492235
-0.000469951
0.00492943
-0.000454643
0.00493694
-0.000439456
0.0049448
-0.000424442
0.00495298
-0.000409646
0.00496143
-0.00039511
0.00497009
-0.00038087
0.00497893
-0.000366957
0.00498789
-0.000353396
0.00499693
-0.000340207
0.00500602
-0.000327403
0.00501512
-0.000314994
0.00502419
-0.000302985
0.0050332
-0.000291377
0.00504214
-0.000280164
0.00505096
-0.00026934
0.00505966
-0.000258893
0.00506821
-0.000248805
0.0050766
-0.000239058
0.00508483
-0.000229627
0.00509288
-0.000220489
0.00510075
-0.000211615
0.00510845
-0.000202982
0.00511598
-0.000194568
0.00512333
-0.00018636
0.00513053
-0.000178352
0.00513756
-0.000170551
0.00514444
-0.000162971
0.00515115
-0.000155639
0.0051577
-0.000148585
0.00516408
-0.000141837
0.00517027
-0.000135419
0.00517628
-0.000129347
0.00518209
-0.000123621
0.0051877
-0.000118231
0.00519309
-0.000113154
0.00519828
-0.00010836
0.00520326
-0.000103817
0.00520804
-9.94915e-05
0.00521262
-9.5354e-05
0.00521701
-9.13799e-05
0.00522122
-8.75498e-05
-8.38505e-05
0.00494388
-0.000489595
-0.0049396
0.00494875
-0.00047482
0.00495416
-0.000460058
0.00496007
-0.000445366
0.00496642
-0.000430795
0.00497317
-0.000416392
0.00498026
-0.000402198
0.00498764
-0.00038825
0.00499526
-0.000374581
0.00500308
-0.000361217
0.00501106
-0.00034818
0.00501914
-0.000335487
0.0050273
-0.000323149
0.00503549
-0.000311175
0.00504368
-0.000299568
0.00505184
-0.000288327
0.00505995
-0.000277448
0.00506798
-0.000266921
0.00507591
-0.000256735
0.00508372
-0.000246872
0.00509141
-0.000237315
0.00509896
-0.00022804
0.00510637
-0.000219026
0.00511364
-0.00021025
0.00512076
-0.000201694
0.00512775
-0.000193346
0.0051346
-0.000185201
0.00514131
-0.000177263
0.00514789
-0.000169548
0.00515433
-0.000162078
0.00516062
-0.000154879
0.00516676
-0.00014798
0.00517275
-0.000141401
0.00517856
-0.000135157
0.00518418
-0.00012925
0.00518962
-0.000123671
0.00519487
-0.0001184
0.00519992
-0.00011341
0.00520478
-0.000108672
0.00520944
-0.000104155
0.00521391
-9.98298e-05
0.00521821
-9.56745e-05
0.00522233
-9.16696e-05
-8.7802e-05
0.00497133
-0.000492183
-0.00496874
0.00497458
-0.000478068
0.00497843
-0.000463916
0.00498285
-0.000449785
0.00498778
-0.000435725
0.00499317
-0.00042178
0.00499897
-0.000407994
0.00500512
-0.000394404
0.00501158
-0.000381043
0.00501831
-0.000367939
0.00502524
-0.000355116
0.00503235
-0.000342593
0.00503958
-0.000330385
0.00504691
-0.000318502
0.00505429
-0.00030695
0.0050617
-0.000295732
0.0050691
-0.000284846
0.00507646
-0.000274288
0.00508377
-0.000264047
0.00509101
-0.000254112
0.00509817
-0.000244466
0.00510522
-0.000235093
0.00511216
-0.000225972
0.005119
-0.000217086
0.00512572
-0.000208418
0.00513234
-0.000199957
0.00513883
-0.0001917
0.00514522
-0.00018365
0.0051515
-0.000175822
0.00515765
-0.000168234
0.00516368
-0.000160912
0.00516958
-0.00015388
0.00517534
-0.000147158
0.00518094
-0.00014076
0.00518638
-0.000134689
0.00519165
-0.000128937
0.00519674
-0.000123488
0.00520164
-0.000118316
0.00520637
-0.000113395
0.00521091
-0.000108697
0.00521527
-0.000104195
0.00521947
-9.98673e-05
0.00522349
-9.56957e-05
-9.1667e-05
0.00499798
-0.000493232
-0.00499693
0.00499973
-0.000479826
0.00500215
-0.000466336
0.00500519
-0.000452819
0.00500879
-0.000439323
0.0050129
-0.000425893
0.00501748
-0.00041257
0.00502247
-0.000399393
0.00502782
-0.000386395
0.00503349
-0.000373607
0.00503942
-0.000361053
0.00504558
-0.000348754
0.00505193
-0.000336728
0.00505841
-0.000324987
0.005065
-0.00031354
0.00507166
-0.000302393
0.00507836
-0.000291547
0.00508508
-0.000281001
0.00509178
-0.000270748
0.00509845
-0.000260781
0.00510507
-0.000251086
0.00511162
-0.000241649
0.00511811
-0.000232456
0.00512451
-0.00022349
0.00513083
-0.000214738
0.00513707
-0.000206192
0.00514321
-0.000197847
0.00514927
-0.000189709
0.00515524
-0.000181788
0.00516111
-0.000174103
0.00516687
-0.000166677
0.00517252
-0.00015953
0.00517805
-0.000152684
0.00518344
-0.00014615
0.00518868
-0.000139931
0.00519377
-0.000134023
0.00519869
-0.00012841
0.00520344
-0.00012307
0.00520803
-0.00011798
0.00521244
-0.000113113
0.00521669
-0.000108444
0.00522078
-0.000103954
0.00522471
-9.96238e-05
-9.54416e-05
0.00502374
-0.000492887
-0.00502408
0.00502414
-0.000480226
0.00502524
-0.000467438
0.005027
-0.000454575
0.00502936
-0.000441687
0.00503228
-0.000428814
0.00503571
-0.000416
0.0050396
-0.000403282
0.0050439
-0.000390695
0.00504856
-0.00037827
0.00505354
-0.000366032
0.00505879
-0.000354005
0.00506427
-0.000342208
0.00506994
-0.000330655
0.00507576
-0.000319359
0.00508169
-0.000308327
0.00508771
-0.000297565
0.00509378
-0.000287073
0.00509988
-0.000276848
0.00510599
-0.000266886
0.00511208
-0.000257178
0.00511815
-0.000247714
0.00512417
-0.00023848
0.00513014
-0.000229464
0.00513606
-0.000220657
0.00514192
-0.000212051
0.00514772
-0.000203642
0.00515344