/*--------------------------------*- C++ -*----------------------------------*\
| =========                 |                                                 |
| \\      /  F ield         | OpenFOAM: The Open Source CFD Toolbox           |
|  \\    /   O peration     | Version:  2412                                  |
|   \\  /    A nd           | Website:  www.openfoam.com                      |
|    \\/     M anipulation  |                                                 |
\*---------------------------------------------------------------------------*/
FoamFile
{
    version     2.0;
    format      ascii;
    arch        "LSB;label=32;scalar=64";
    class       volVectorField;
    location    "19";
    object      vorticity;
}
// * * * * * * * * * * * * * * * * * * * * * * * * * * * * * * * * * * * * * //

dimensions      [0 0 -1 0 0 0 0];

internalField   nonuniform List<vector> 
5285
(
(1.11893e-21 1.93038e-21 -0.0104807)
(-1.34706e-21 9.85688e-24 -0.00978747)
(9.18835e-22 2.79654e-21 -0.00909676)
(-3.24167e-22 1.7507e-23 -0.00841575)
(-6.59998e-22 1.44348e-24 -0.00775019)
(2.91732e-22 -6.67318e-24 -0.00710504)
(2.27587e-22 3.75957e-21 -0.00648447)
(-9.0134e-24 8.58693e-24 -0.0058918)
(-2.18894e-22 -4.21165e-21 -0.00532953)
(2.10344e-22 4.4236e-21 -0.00479948)
(-2.21574e-22 -4.61979e-21 -0.00430282)
(1.01779e-21 4.41064e-20 -0.0038402)
(-9.93761e-22 -4.44311e-20 -0.00341173)
(-4.8966e-22 -3.69916e-20 -0.00301712)
(1.13928e-21 8.06213e-20 -0.0026557)
(-6.37081e-22 -4.38058e-20 -0.00232649)
(-9.24679e-23 -5.69136e-21 -0.00202825)
(9.04856e-23 5.88e-21 -0.00175952)
(-5.71816e-23 3.43162e-25 -0.00151868)
(2.08047e-22 6.13884e-21 -0.001304)
(-3.39598e-22 -3.16354e-20 -0.00111365)
(3.07335e-22 3.18489e-20 -0.000945775)
(-7.06296e-23 -6.54372e-21 -0.000798481)
(1.98682e-22 2.00183e-20 -0.000669898)
(2.77502e-23 -6.66972e-21 -0.000558175)
(-1.21978e-22 -1.37305e-20 -0.000461483)
(2.92069e-23 6.90606e-21 -0.000377991)
(-8.78348e-23 -7.03985e-21 -0.000305874)
(2.24115e-20 1.52468e-19 -0.0309821)
(-2.49143e-20 -1.63466e-19 -0.028918)
(2.46125e-20 1.85943e-19 -0.0268642)
(-1.28069e-20 -8.5751e-20 -0.0248417)
(-2.40362e-20 -2.13821e-19 -0.0228671)
(1.15333e-20 1.09708e-19 -0.0209547)
(2.22805e-22 -3.45816e-21 -0.0191167)
(-1.15243e-21 -8.14672e-21 -0.0173625)
(4.79339e-22 4.21669e-21 -0.0156994)
(-1.07083e-21 -1.34142e-20 -0.0141325)
(9.07326e-21 1.47477e-19 -0.0126652)
(-1.90747e-20 -3.15917e-19 -0.011299)
(8.62307e-21 1.53736e-19 -0.0100343)
(-9.88444e-22 -1.5792e-20 -0.00887007)
(2.86047e-22 5.40541e-21 -0.00780421)
(-2.31753e-23 -6.83306e-23 -0.00683373)
(-3.98603e-21 -9.86607e-20 -0.00595489)
(3.3912e-21 8.7343e-20 -0.00516331)
(2.46603e-21 8.52784e-20 -0.00445416)
(-3.63062e-21 -1.1628e-19 -0.00382227)
(8.65971e-23 6.3902e-21 -0.00326221)
(7.53547e-22 3.24471e-20 -0.00276845)
(-1.65937e-21 -5.84531e-20 -0.0023354)
(3.27795e-23 -6.62838e-21 -0.00195751)
(-1.03731e-21 -4.74096e-20 -0.00162931)
(-1.93035e-22 -7.15929e-21 -0.00134534)
(2.42226e-22 1.36541e-20 -0.00110012)
(2.89538e-22 2.09839e-20 -0.000888003)
(-4.14559e-20 -1.67101e-19 -0.0501698)
(4.45593e-20 1.7274e-19 -0.0467811)
(4.0191e-22 7.70185e-21 -0.0434167)
(-9.38396e-22 -6.62607e-21 -0.0401122)
(6.21196e-22 7.55955e-21 -0.036892)
(-3.58717e-20 -2.36579e-19 -0.0337785)
(3.86285e-20 2.43687e-19 -0.0307905)
(-3.42218e-20 -2.54799e-19 -0.0279426)
(3.65768e-20 2.71755e-19 -0.0252459)
(8.34235e-22 9.30489e-21 -0.022708)
(3.16873e-20 3.10253e-19 -0.0203338)
(-6.15793e-20 -6.23308e-19 -0.0181257)
(3.13162e-20 3.33247e-19 -0.0160834)
(1.47459e-20 1.82904e-19 -0.0142051)
(-1.31116e-20 -1.61754e-19 -0.0124869)
(3.37811e-22 7.11698e-23 -0.0109239)
(-5.4039e-22 -1.03309e-22 -0.0095096)
(-6.22026e-23 1.26735e-22 -0.00823678)
(1.02064e-20 1.95992e-19 -0.00709744)
(-9.87904e-21 -1.84203e-19 -0.00608304)
(8.1606e-22 1.28051e-20 -0.0051847)
(-4.51233e-22 -7.82727e-24 -0.00439337)
(3.8406e-21 1.05325e-19 -0.00369994)
(-7.07903e-21 -1.99412e-19 -0.00309538)
(3.48259e-21 1.07281e-19 -0.00257076)
(-1.76739e-21 -5.50981e-20 -0.0021172)
(1.33386e-21 4.11527e-20 -0.00172555)
(3.16145e-22 1.38226e-20 -0.00138581)
(1.37405e-21 -5.02757e-23 -0.0673563)
(-2.3742e-21 6.23948e-21 -0.062717)
(3.30202e-21 4.06442e-22 -0.0581263)
(1.26192e-21 8.21157e-21 -0.0536294)
(-1.11059e-19 -4.92195e-19 -0.0492614)
(1.1105e-19 4.82649e-19 -0.0450479)
(-1.86436e-21 1.78659e-21 -0.0410128)
(-4.84698e-20 -2.82356e-19 -0.0371741)
(5.17582e-20 2.91315e-19 -0.0335456)
(-2.23919e-22 3.25474e-22 -0.0301365)
(-1.90343e-22 -2.59117e-22 -0.0269522)
(-4.36479e-20 -3.40351e-19 -0.0239949)
(8.43058e-20 6.82193e-19 -0.0212636)
(-7.85699e-20 -6.92725e-19 -0.018755)
(7.48969e-20 7.13066e-19 -0.0164633)
(-7.05653e-20 -7.32284e-19 -0.0143812)
(3.40739e-20 3.71162e-19 -0.0124997)
(1.50005e-20 1.93651e-19 -0.0108085)
(-1.31834e-20 -1.69628e-19 -0.00929654)
(-1.09708e-21 -1.25726e-20 -0.00795213)
(-1.2266e-20 -2.04746e-19 -0.00676308)
(2.56512e-20 4.39472e-19 -0.00571705)
(-1.17862e-20 -2.08837e-19 -0.00480169)
(1.17616e-22 2.00119e-22 -0.00400476)
(4.79735e-22 1.34642e-20 -0.0033142)
(-1.02186e-22 -7.3858e-23 -0.00271792)
(-4.62741e-22 -1.37756e-20 -0.00220316)
(9.95135e-22 2.79282e-20 -0.00175494)
(-1.45032e-19 -4.44223e-19 -0.0762988)
(1.42385e-19 4.25088e-19 -0.0705866)
(-3.1892e-21 2.83438e-21 -0.0650137)
(3.83339e-21 6.34379e-25 -0.0596178)
(-3.65515e-21 -7.05544e-21 -0.0544292)
(-1.31847e-19 -5.68669e-19 -0.0494729)
(1.31708e-19 5.5736e-19 -0.0447693)
(-2.5872e-21 -8.10938e-21 -0.040333)
(-5.76347e-20 -3.09451e-19 -0.0361736)
(6.02531e-20 3.28881e-19 -0.0322962)
(4.43171e-22 1.73136e-22 -0.0287021)
(2.78069e-22 2.35676e-22 -0.0253889)
(-2.06158e-22 -1.20661e-22 -0.0223512)
(-4.52343e-20 -3.68578e-19 -0.0195812)
(4.68428e-20 3.8038e-19 -0.0170689)
(-3.91384e-20 -3.73495e-19 -0.0148025)
(4.08551e-20 3.85299e-19 -0.012769)
(-2.55745e-21 -2.49571e-20 -0.0109542)
(7.71565e-22 1.25586e-20 -0.00934334)
(3.90879e-22 9.93045e-23 -0.00792121)
(-7.90557e-22 -1.29379e-20 -0.00667247)
(7.84428e-22 1.30712e-20 -0.00558181)
(-7.24251e-21 -1.20511e-19 -0.00463417)
(1.24512e-20 2.15737e-19 -0.0038147)
(-8.86631e-21 -1.63394e-19 -0.00310847)
(2.78966e-21 5.4849e-20 -0.00249927)
(1.28224e-22 3.2465e-23 -0.00196647)
(1.75321e-19 4.84085e-19 -0.0873473)
(-1.82334e-19 -4.74552e-19 -0.0806351)
(-1.70946e-19 -5.3687e-19 -0.0741125)
(1.70275e-19 5.19442e-19 -0.0678235)
(-2.61615e-21 2.21757e-21 -0.0617959)
(3.26847e-21 -9.50427e-22 -0.0560554)
(1.53032e-19 6.2535e-19 -0.0506223)
(-5.90891e-21 2.43408e-20 -0.0455111)
(-1.52408e-19 -6.65664e-19 -0.0407308)
(-1.38727e-19 -6.98606e-19 -0.0362851)
(2.63946e-19 1.37947e-18 -0.0321737)
(-7.00124e-20 -3.52927e-19 -0.0283921)
(-6.33999e-20 -3.72603e-19 -0.0249329)
(-5.88058e-20 -4.0107e-19 -0.0217854)
(1.05521e-19 7.50448e-19 -0.018937)
(-1.02411e-19 -7.89332e-19 -0.0163731)
(1.31791e-21 -1.93654e-20 -0.0140778)
(4.56895e-20 3.98144e-19 -0.012034)
(4.03055e-20 4.10251e-19 -0.0102241)
(-6.13605e-20 -6.43716e-19 -0.00863003)
(3.48613e-20 4.05121e-19 -0.00723371)
(-1.872e-20 -2.23406e-19 -0.00601727)
(1.63102e-20 2.2825e-19 -0.00496315)
(-1.60635e-20 -2.28051e-19 -0.00405414)
(6.51988e-22 1.36326e-20 -0.00327293)
(-3.84837e-21 -6.87891e-20 -0.00260024)
(1.57915e-21 2.73744e-20 -0.00200918)
(-2.09053e-19 -5.17414e-19 -0.0930334)
(5.12646e-21 -4.00707e-21 -0.0858225)
(2.47144e-21 -4.24591e-23 -0.0788208)
(-1.2556e-22 1.07325e-20 -0.0720739)
(-1.91984e-19 -6.24671e-19 -0.0656136)
(1.92484e-19 6.18858e-19 -0.0594635)
(-1.59956e-21 1.75482e-21 -0.0536454)
(2.5799e-22 -1.143e-23 -0.0481746)
(3.11859e-21 1.10605e-20 -0.0430605)
(-1.55536e-19 -7.06812e-19 -0.0383073)
(3.10496e-19 1.4584e-18 -0.0339142)
(-1.50312e-19 -7.29637e-19 -0.0298766)
(2.12395e-21 1.13604e-20 -0.026186)
(1.82275e-21 1.19529e-20 -0.022831)
(6.04276e-20 3.94158e-19 -0.0197978)
(-1.15122e-19 -7.80709e-19 -0.0170704)
(5.79261e-20 4.11213e-19 -0.0146315)
(-4.79574e-20 -3.9803e-19 -0.0124625)
(3.25859e-21 -5.94802e-21 -0.0105442)
(3.92138e-21 7.42609e-21 -0.00885721)
(4.45205e-20 4.31105e-19 -0.00738182)
(1.98102e-20 2.26353e-19 -0.00609869)
(-1.96357e-20 -2.26062e-19 -0.00498889)
(8.62978e-22 1.35533e-20 -0.00403391)
(7.54026e-21 1.08846e-19 -0.00321517)
(-6.69063e-21 -9.49593e-20 -0.00251171)
(7.95264e-22 1.36984e-20 -0.00188807)
(0 3.6431e-24 -0.000226484)
(0 -0 -0.000179693)
(0 -0 -0.000140933)
(0 -0 -0.000109127)
(0 -0 -8.32754e-05)
(0 -0 -6.24582e-05)
(0 -0 -4.58429e-05)
(0 -0 -3.26893e-05)
(0 -0 -2.23491e-05)
(0 -0 -1.42618e-05)
(0 -0 -7.94732e-06)
(0 -0 -2.99789e-06)
(0 -0 9.31097e-07)
(0 -0 4.13046e-06)
(0 -0 6.8458e-06)
(0 -0 9.28439e-06)
(0 -0 1.16196e-05)
(0 -0 1.39917e-05)
(0 -0 1.65052e-05)
(0 -0 1.92218e-05)
(0 -0 2.21514e-05)
(0 -0 2.52423e-05)
(0 -0 2.83757e-05)
(0 -0 3.13671e-05)
(0 -0 3.39799e-05)
(0 -0 3.59521e-05)
(0 -0 3.70341e-05)
(0 -0 3.70338e-05)
(0 -0 3.58572e-05)
(0 -0 3.35358e-05)
(0 -0 3.02317e-05)
(0 -0 2.6217e-05)
(0 -0 2.18308e-05)
(0 -0 1.74243e-05)
(0 -0 1.33072e-05)
(0 -0 9.70732e-06)
(0 -0 6.75168e-06)
(0 -0 4.46945e-06)
(0 -0 2.81213e-06)
(0 -0 1.68228e-06)
(0 -0 9.62327e-07)
(0 -0 5.37555e-07)
(0 -0 3.09325e-07)
(0 -0 2.07292e-07)
(0 -1.09986e-23 -0.000657058)
(0 -0 -0.000520692)
(0 -0 -0.000407841)
(0 -0 -0.000315329)
(0 -0 -0.000240207)
(0 -0 -0.000179767)
(0 -0 -0.00013157)
(0 -0 -9.34512e-05)
(0 -0 -6.35192e-05)
(0 -0 -4.01384e-05)
(0 -0 -2.19083e-05)
(0 -0 -7.63894e-06)
(0 -0 3.67615e-06)
(0 -0 1.28869e-05)
(0 -0 2.07113e-05)
(0 -0 2.77558e-05)
(0 -0 3.45274e-05)
(0 -0 4.14366e-05)
(0 -0 4.8788e-05)
(0 -0 5.67608e-05)
(0 -0 6.53807e-05)
(0 -0 7.4492e-05)
(0 -0 8.37401e-05)
(0 -0 9.25767e-05)
(0 -0 0.000100299)
(0 -0 0.00010613)
(0 -0 0.000109329)
(0 -0 0.000109326)
(0 -0 0.000105841)
(0 -0 9.89677e-05)
(0 -0 8.91853e-05)
(0 -0 7.72995e-05)
(0 -0 6.43148e-05)
(0 -0 5.12719e-05)
(0 -0 3.90882e-05)
(0 -0 2.84385e-05)
(0 -0 1.9699e-05)
(0 -0 1.2956e-05)
(0 -0 8.06531e-06)
(0 -0 4.73788e-06)
(0 -0 2.62492e-06)
(0 -0 1.38613e-06)
(0 -0 7.28967e-07)
(0 -0 4.46258e-07)
(0 -7.40377e-24 -0.00102429)
(0 -0 -0.000810127)
(0 -0 -0.000633249)
(0 -0 -0.000488505)
(0 -0 -0.000371134)
(0 -0 -0.000276814)
(0 -0 -0.00020168)
(0 -0 -0.000142324)
(0 -0 -9.57751e-05)
(0 -0 -5.94662e-05)
(0 -0 -3.11987e-05)
(0 -0 -9.10242e-06)
(0 -0 8.40663e-06)
(0 -0 2.26682e-05)
(0 -0 3.48161e-05)
(0 -0 4.58097e-05)
(0 -0 5.64522e-05)
(0 -0 6.73947e-05)
(0 -0 7.91199e-05)
(0 -0 9.19093e-05)
(0 -0 0.000105797)
(0 -0 0.000120525)
(0 -0 0.000135512)
(0 -0 0.000149861)
(0 -0 0.000162428)
(0 -0 0.000171943)
(0 -0 0.000177197)
(0 -0 0.000177257)
(0 -0 0.000171663)
(0 -0 0.000160559)
(0 -0 0.000144721)
(0 -0 0.000125453)
(0 -0 0.000104388)
(0 -0 8.32173e-05)
(0 -0 6.34336e-05)
(0 -0 4.61364e-05)
(0 -0 3.19398e-05)
(0 -0 2.0986e-05)
(0 -0 1.30425e-05)
(0 -0 7.64024e-06)
(0 -0 4.21266e-06)
(0 -0 2.20651e-06)
(0 -0 1.14602e-06)
(0 -0 6.95104e-07)
(0 -1.3394e-23 -0.0012951)
(0 -0 -0.0010215)
(0 -0 -0.000796228)
(0 -0 -0.000612283)
(0 -0 -0.000463345)
(0 -0 -0.000343796)
(0 -0 -0.000248678)
(0 -0 -0.000173642)
(0 -0 -0.0001149)
(0 -0 -6.91779e-05)
(0 -0 -3.36649e-05)
(0 -0 -5.96386e-06)
(0 -0 1.5961e-05)
(0 -0 3.38363e-05)
(0 -0 4.91276e-05)
(0 -0 6.30781e-05)
(0 -0 7.67319e-05)
(0 -0 9.09361e-05)
(0 -0 0.000106318)
(0 -0 0.00012324)
(0 -0 0.000141734)
(0 -0 0.000161441)
(0 -0 0.00018157)
(0 -0 0.000200905)
(0 -0 0.000217893)
(0 -0 0.00023081)
(0 -0 0.000238018)
(0 -0 0.000238243)
(0 -0 0.000230853)
(0 -0 0.000216028)
(0 -0 0.000194803)
(0 -0 0.000168932)
(0 -0 0.000140612)
(0 -0 0.000112124)
(0 -0 8.54848e-05)
(0 -0 6.21823e-05)
(0 -0 4.305e-05)
(0 -0 2.82849e-05)
(0 -0 1.75771e-05)
(0 -0 1.02963e-05)
(0 -0 5.67936e-06)
(0 -0 2.98051e-06)
(0 -0 1.55765e-06)
(0 -0 9.58274e-07)
(0 3.42798e-25 -0.0014489)
(0 -0 -0.00113935)
(0 -0 -0.000885282)
(0 -0 -0.000678067)
(0 -0 -0.00051036)
(0 -0 -0.000375811)
(0 -0 -0.000268862)
(0 -0 -0.000184637)
(0 -0 -0.000118866)
(0 -0 -6.78368e-05)
(0 -0 -2.83464e-05)
(0 -0 2.34989e-06)
(0 -0 2.65934e-05)
(0 -0 4.63781e-05)
(0 -0 6.34029e-05)
(0 -0 7.91144e-05)
(0 -0 9.47315e-05)
(0 -0 0.000111245)
(0 -0 0.000129388)
(0 -0 0.000149575)
(0 -0 0.00017183)
(0 -0 0.000195696)
(0 -0 0.000220193)
(0 -0 0.000243823)
(0 -0 0.000264672)
(0 -0 0.000280619)
(0 -0 0.000289639)
(0 -0 0.000290156)
(0 -0 0.00028137)
(0 -0 0.000263483)
(0 -0 0.000237745)
(0 -0 0.000206286)
(0 -0 0.000171789)
(0 -0 0.000137044)
(0 -0 0.000104524)
(0 -0 7.60584e-05)
(0 -0 5.26747e-05)
(0 -0 3.46225e-05)
(0 -0 2.15291e-05)
(0 -0 1.26273e-05)
(0 -0 6.98572e-06)
(0 -0 3.69224e-06)
(0 -0 1.96069e-06)
(0 -0 1.23873e-06)
(0 -1.20814e-23 -0.00148135)
(0 -0 -0.00116293)
(0 -0 -0.000901128)
(0 -0 -0.000686927)
(0 -0 -0.000513179)
(0 -0 -0.000373683)
(0 -0 -0.000262895)
(0 -0 -0.000175849)
(0 -0 -0.000108131)
(0 -0 -5.58545e-05)
(0 -0 -1.56357e-05)
(0 -0 1.54456e-05)
(0 -0 3.98946e-05)
(0 -0 5.98555e-05)
(0 -0 7.71636e-05)
(0 -0 9.33883e-05)
(0 -0 0.000109857)
(0 -0 0.00012765)
(0 -0 0.000147566)
(0 -0 0.000170051)
(0 -0 0.000195103)
(0 -0 0.000222183)
(0 -0 0.000250148)
(0 -0 0.000277264)
(0 -0 0.000301315)
(0 -0 0.000319844)
(0 -0 0.000330499)
(0 -0 0.00033144)
(0 -0 0.000321718)
(0 -0 0.000301534)
(0 -0 0.000272296)
(0 -0 0.000236436)
(0 -0 0.000197024)
(0 -0 0.000157267)
(0 -0 0.000120013)
(0 -0 8.73733e-05)
(0 -0 6.05437e-05)
(0 -0 3.98222e-05)
(0 -0 2.47899e-05)
(0 -0 1.45712e-05)
(0 -0 8.09909e-06)
(0 -0 4.32665e-06)
(0 -0 2.34974e-06)
(0 -0 1.53546e-06)
(0 -5.57511e-24 -0.00140988)
(0 -0 -0.00111007)
(0 -0 -0.000857875)
(0 -0 -0.000649716)
(0 -0 -0.000479962)
(0 -0 -0.000343564)
(0 -0 -0.000235438)
(0 -0 -0.000150833)
(0 -0 -8.54194e-05)
(0 -0 -3.53309e-05)
(0 -0 2.83758e-06)
(0 -0 3.2047e-05)
(0 -0 5.48524e-05)
(0 -0 7.34512e-05)
(0 -0 8.97325e-05)
(0 -0 0.000105318)
(0 -0 0.000121584)
(0 -0 0.000139656)
(0 -0 0.000160359)
(0 -0 0.000184148)
(0 -0 0.000210994)
(0 -0 0.000240285)
(0 -0 0.000270753)
(0 -0 0.000300475)
(0 -0 0.000327001)
(0 -0 0.000347611)
(0 -0 0.000359692)
(0 -0 0.000361185)
(0 -0 0.000351008)
(0 -0 0.000329343)
(0 -0 0.000297699)
(0 -0 0.000258721)
(0 -0 0.000215764)
(0 -0 0.00017235)
(0 -0 0.00013161)
(0 -0 9.58777e-05)
(0 -0 6.64828e-05)
(0 -0 4.37681e-05)
(0 -0 2.7286e-05)
(0 -0 1.60837e-05)
(0 -0 8.99408e-06)
(0 -0 4.8695e-06)
(0 -0 2.71674e-06)
(0 -0 1.84299e-06)
(0 -0 -0.00130183)
(0 -0 -0.00101495)
(0 -0 -0.000776504)
(0 -0 -0.000580094)
(0 -0 -0.000420401)
(0 -0 -0.000292371)
(0 -0 -0.000191466)
(0 -0 -0.000113162)
(0 -0 -5.3286e-05)
(0 -0 -8.07405e-06)
(0 -0 2.58127e-05)
(0 -0 5.12932e-05)
(0 -0 7.0896e-05)
(0 -0 8.68029e-05)
(0 -0 0.000100895)
(0 -0 0.000114792)
(0 -0 0.000129872)
(0 -0 0.000147264)
(0 -0 0.000167795)
(0 -0 0.000191909)
(0 -0 0.00021955)
(0 -0 0.000250049)
(0 -0 0.000282046)
(0 -0 0.000313486)
(0 -0 0.000341753)
(0 -0 0.000363933)
(0 -0 0.000377218)
(0 -0 0.00037938)
(0 -0 0.000369221)
(0 -0 0.000346882)
(0 -0 0.000313918)
(0 -0 0.000273099)
(0 -0 0.000227967)
(0 -0 0.000182247)
(0 -0 0.000139271)
(0 -0 0.000101531)
(0 -0 7.04558e-05)
(0 -0 4.64291e-05)
(0 -0 2.89919e-05)
(0 -0 1.71443e-05)
(0 -0 9.65491e-06)
(0 -0 5.30906e-06)
(0 -0 3.05322e-06)
(0 -0 2.15588e-06)
(0 -0 -0.00116824)
(0 -0 -0.000902919)
(0 -0 -0.00068095)
(0 -0 -0.00049864)
(0 -0 -0.000350858)
(0 -0 -0.000233244)
(0 -0 -0.000141501)
(0 -0 -7.1257e-05)
(0 -0 -1.84638e-05)
(0 -0 2.0542e-05)
(0 -0 4.90132e-05)
(0 -0 6.97959e-05)
(0 -0 8.53565e-05)
(0 -0 9.78232e-05)
(0 -0 0.000109032)
(0 -0 0.000120566)
(0 -0 0.000133774)
(0 -0 0.000149761)
(0 -0 0.000169335)
(0 -0 0.000192921)
(0 -0 0.000220441)
(0 -0 0.000251194)
(0 -0 0.000283767)
(0 -0 0.000316036)
(0 -0 0.000345291)
(0 -0 0.000368505)
(0 -0 0.00038275)
(0 -0 0.000385682)
(0 -0 0.000376009)
(0 -0 0.000353814)
(0 -0 0.000320642)
(0 -0 0.0002793)
(0 -0 0.000233403)
(0 -0 0.000186779)
(0 -0 0.000142864)
(0 -0 0.000104239)
(0 -0 7.24004e-05)
(0 -0 4.77657e-05)
(0 -0 2.98826e-05)
(0 -0 1.77365e-05)
(0 -0 1.00686e-05)
(0 -0 5.6331e-06)
(0 -0 3.34589e-06)
(0 -0 2.46018e-06)
(0 -0 -0.00105986)
(0 -0 -0.000803116)
(0 -0 -0.000592139)
(0 -0 -0.000421005)
(0 -0 -0.000283908)
(0 -0 -0.000176208)
(0 -0 -9.35063e-05)
(0 -0 -3.13978e-05)
(0 -0 1.41468e-05)
(0 -0 4.67442e-05)
(0 -0 6.9586e-05)
(0 -0 8.54514e-05)
(0 -0 9.67392e-05)
(0 -0 0.000105512)
(0 -0 0.000113543)
(0 -0 0.000122362)
(0 -0 0.000133268)
(0 -0 0.000147328)
(0 -0 0.00016532)
(0 -0 0.000187649)
(0 -0 0.000214223)
(0 -0 0.000244333)
(0 -0 0.000276562)
(0 -0 0.000308777)
(0 -0 0.00033825)
(0 -0 0.000361926)
(0 -0 0.000376832)
(0 -0 0.000380567)
(0 -0 0.000371771)
(0 -0 0.000350459)
(0 -0 0.000318113)
(0 -0 0.000277492)
(0 -0 0.000232185)
(0 -0 0.000186011)
(0 -0 0.000142416)
(0 -0 0.000104007)
(0 -0 7.2306e-05)
(0 -0 4.77591e-05)
(0 -0 2.99359e-05)
(0 -0 1.78371e-05)
(0 -0 1.02122e-05)
(0 -0 5.81914e-06)
(0 -0 3.57272e-06)
(0 -0 2.73413e-06)
(0 -0 -0.000973558)
(0 -0 -0.00072216)
(0 -0 -0.00051868)
(0 -0 -0.000355996)
(0 -0 -0.000227507)
(0 -0 -0.000128141)
(0 -0 -5.32579e-05)
(0 -0 1.67782e-06)
(0 -0 4.07443e-05)
(0 -0 6.7555e-05)
(0 -0 8.52671e-05)
(0 -0 9.66076e-05)
(0 -0 0.000103913)
(0 -0 0.00010918)
(0 -0 0.000114118)
(0 -0 0.000120193)
(0 -0 0.00012865)
(0 -0 0.000140508)
(0 -0 0.000156514)
(0 -0 0.000177052)
(0 -0 0.000202032)
(0 -0 0.000230764)
(0 -0 0.000261866)
(0 -0 0.000293255)
(0 -0 0.000322256)
(0 -0 0.000345859)
(0 -0 0.000361122)
(0 -0 0.000365639)
(0 -0 0.000358014)
(0 -0 0.000338185)
(0 -0 0.00030753)
(0 -0 0.000268689)
(0 -0 0.000225132)
(0 -0 0.000180577)
(0 -0 0.0001384)
(0 -0 0.000101166)
(0 -0 7.03926e-05)
(0 -0 4.6545e-05)
(0 -0 2.92272e-05)
(0 -0 1.74806e-05)
(0 -0 1.00945e-05)
(0 -0 5.86075e-06)
(0 -0 3.71885e-06)
(0 -0 2.95838e-06)
(0 -0 -0.000903947)
(0 -0 -0.000658464)
(0 -0 -0.000461697)
(0 -0 -0.000306101)
(0 -0 -0.000184681)
(0 -0 -9.21169e-05)
(0 -0 -2.36103e-05)
(0 -0 2.54717e-05)
(0 -0 5.92433e-05)
(0 -0 8.1312e-05)
(0 -0 9.48015e-05)
(0 -0 0.000102388)
(0 -0 0.000106347)
(0 -0 0.000108609)
(0 -0 0.000110819)
(0 -0 0.000114377)
(0 -0 0.000120471)
(0 -0 0.000130071)
(0 -0 0.000143892)
(0 -0 0.000162305)
(0 -0 0.000185232)
(0 -0 0.000212025)
(0 -0 0.000241377)
(0 -0 0.000271303)
(0 -0 0.000299241)
(0 -0 0.000322297)
(0 -0 0.000337616)
(0 -0 0.000342845)
(0 -0 0.000336575)
(0 -0 0.000318669)
(0 -0 0.000290371)
(0 -0 0.000254145)
(0 -0 0.000213267)
(0 -0 0.000171278)
(0 -0 0.000131409)
(0 -0 9.61377e-05)
(0 -0 6.69431e-05)
(0 -0 4.43004e-05)
(0 -0 2.78575e-05)
(0 -0 1.67168e-05)
(0 -0 9.73251e-06)
(0 -0 5.75532e-06)
(0 -0 3.77106e-06)
(0 -0 3.11419e-06)
(0 -0 -0.000844981)
(0 -0 -0.000607675)
(0 -0 -0.0004185)
(0 -0 -0.000269929)
(0 -0 -0.00015493)
(0 -0 -6.81822e-05)
(0 -0 -4.89825e-06)
(0 -0 3.95388e-05)
(0 -0 6.92068e-05)
(0 -0 8.76607e-05)
(0 -0 9.7961e-05)
(0 -0 0.000102714)
(0 -0 0.000104124)
(0 -0 0.000104049)
(0 -0 0.000104063)
(0 -0 0.000105499)
(0 -0 0.000109485)
(0 -0 0.000116945)
(0 -0 0.000128557)
(0 -0 0.000144687)
(0 -0 0.000165281)
(0 -0 0.000189753)
(0 -0 0.000216898)
(0 -0 0.000244869)
(0 -0 0.00027127)
(0 -0 0.000293372)
(0 -0 0.000308467)
(0 -0 0.000314291)
(0 -0 0.000309454)
(0 -0 0.000293748)
(0 -0 0.000268263)
(0 -0 0.000235245)
(0 -0 0.000197724)
(0 -0 0.000159001)
(0 -0 0.000122112)
(0 -0 8.93985e-05)
(0 -0 6.22785e-05)
(0 -0 4.12285e-05)
(0 -0 2.59451e-05)
(0 -0 1.56063e-05)
(0 -0 9.15006e-06)
(0 -0 5.50477e-06)
(0 -0 3.71918e-06)
(0 -0 3.18536e-06)
(0 -0 -0.000791203)
(0 -0 -0.000564931)
(0 -0 -0.000385048)
(0 -0 -0.000244279)
(0 -0 -0.000135797)
(0 -0 -5.44838e-05)
(0 -0 4.27231e-06)
(0 -0 4.49435e-05)
(0 -0 7.14753e-05)
(0 -0 8.7301e-05)
(0 -0 9.53687e-05)
(0 -0 9.81815e-05)
(0 -0 9.78483e-05)
(0 -0 9.61408e-05)
(0 -0 9.4551e-05)
(0 -0 9.43411e-05)
(0 -0 9.65752e-05)
(0 -0 0.000102125)
(0 -0 0.000111638)
(0 -0 0.000125477)
(0 -0 0.000143617)
(0 -0 0.000165549)
(0 -0 0.00019019)
(0 -0 0.000215864)
(0 -0 0.000240371)
(0 -0 0.000261194)
(0 -0 0.000275807)
(0 -0 0.000282077)
(0 -0 0.000278654)
(0 -0 0.000265269)
(0 -0 0.000242848)
(0 -0 0.000213396)
(0 -0 0.00017966)
(0 -0 0.00014466)
(0 -0 0.000111194)
(0 -0 8.14402e-05)
(0 -0 5.67334e-05)
(0 -0 3.75432e-05)
(0 -0 2.36168e-05)
(0 -0 1.42167e-05)
(0 -0 8.37666e-06)
(0 -0 5.11592e-06)
(0 -0 3.55744e-06)
(0 -0 3.15989e-06)
(0 -0 -0.000738428)
(0 -0 -0.000526009)
(0 -0 -0.000357338)
(0 -0 -0.000225529)
(0 -0 -0.000124111)
(0 -0 -4.83064e-05)
(0 -0 6.19696e-06)
(0 -0 4.3616e-05)
(0 -0 6.76746e-05)
(0 -0 8.16137e-05)
(0 -0 8.82156e-05)
(0 -0 8.98403e-05)
(0 -0 8.84732e-05)
(0 -0 8.57786e-05)
(0 -0 8.31547e-05)
(0 -0 8.17819e-05)
(0 -0 8.26549e-05)
(0 -0 8.65907e-05)
(0 -0 9.42048e-05)
(0 -0 0.000105854)
(0 -0 0.00012155)
(0 -0 0.000140865)
(0 -0 0.000162854)
(0 -0 0.000186024)
(0 -0 0.0002084)
(0 -0 0.000227699)
(0 -0 0.000241611)
(0 -0 0.000248156)
(0 -0 0.000246048)
(0 -0 0.000234967)
(0 -0 0.000215678)
(0 -0 0.000189933)
(0 -0 0.000160177)
(0 -0 0.000129126)
(0 -0 9.93157e-05)
(0 -0 7.27393e-05)
(0 -0 5.06342e-05)
(0 -0 3.34556e-05)
(0 -0 2.10001e-05)
(0 -0 1.26183e-05)
(0 -0 7.44605e-06)
(0 -0 4.60052e-06)
(0 -0 3.28541e-06)
(0 -0 3.03131e-06)
(0 -0 -0.000683997)
(0 -0 -0.00048782)
(0 -0 -0.00033211)
(0 -0 -0.000210449)
(0 -0 -0.000116808)
(0 -0 -4.68356e-05)
(0 -0 3.39956e-06)
(0 -0 3.77816e-05)
(0 -0 5.97444e-05)
(0 -0 7.22796e-05)
(0 -0 7.79568e-05)
(0 -0 7.89565e-05)
(0 -0 7.71126e-05)
(0 -0 7.39615e-05)
(0 -0 7.0793e-05)
(0 -0 6.86952e-05)
(0 -0 6.85861e-05)
(0 -0 7.12234e-05)
(0 -0 7.71861e-05)
(0 -0 8.68245e-05)
(0 -0 0.000100185)
(0 -0 0.000116925)
(0 -0 0.000136237)
(0 -0 0.000156821)
(0 -0 0.000176937)
(0 -0 0.000194551)
(0 -0 0.000207583)
(0 -0 0.000214226)
(0 -0 0.000213274)
(0 -0 0.00020437)
(0 -0 0.000188126)
(0 -0 0.000166043)
(0 -0 0.000140261)
(0 -0 0.000113183)
(0 -0 8.70741e-05)
(0 -0 6.37296e-05)
(0 -0 4.42808e-05)
(0 -0 2.91621e-05)
(0 -0 1.82162e-05)
(0 -0 1.08806e-05)
(0 -0 6.39454e-06)
(0 -0 3.97488e-06)
(0 -0 2.90831e-06)
(0 -0 2.79927e-06)
(0 -0 -0.000626713)
(0 -0 -0.000448526)
(0 -0 -0.000307115)
(0 -0 -0.000196578)
(0 -0 -0.000111378)
(0 -0 -4.76279e-05)
(0 -0 -1.82235e-06)
(0 -0 2.95442e-05)
(0 -0 4.95727e-05)
(0 -0 6.09667e-05)
(0 -0 6.60505e-05)
(0 -0 6.67976e-05)
(0 -0 6.48684e-05)
(0 -0 6.16544e-05)
(0 -0 5.83239e-05)
(0 -0 5.5863e-05)
(0 -0 5.51064e-05)
(0 -0 5.67471e-05)
(0 -0 6.1323e-05)
(0 -0 6.91744e-05)
(0 -0 8.03784e-05)
(0 -0 9.46718e-05)
(0 -0 0.000111383)
(0 -0 0.000129405)
(0 -0 0.000147228)
(0 -0 0.000163071)
(0 -0 0.00017509)
(0 -0 0.000181661)
(0 -0 0.000181668)
(0 -0 0.000174734)
(0 -0 0.000161329)
(0 -0 0.000142717)
(0 -0 0.00012074)
(0 -0 9.74956e-05)
(0 -0 7.49778e-05)
(0 -0 5.47836e-05)
(0 -0 3.79335e-05)
(0 -0 2.4836e-05)
(0 -0 1.53744e-05)
(0 -0 9.06916e-06)
(0 -0 5.25927e-06)
(0 -0 3.25902e-06)
(0 -0 2.43671e-06)
(0 -0 2.46952e-06)
(0 -0 -0.000566597)
(0 -0 -0.000407409)
(0 -0 -0.00028111)
(0 -0 -0.000182331)
(0 -0 -0.000106042)
(0 -0 -4.8835e-05)
(0 -0 -7.64469e-06)
(0 -0 2.06369e-05)
(0 -0 3.87585e-05)
(0 -0 4.91165e-05)
(0 -0 5.3772e-05)
(0 -0 5.44758e-05)
(0 -0 5.27015e-05)
(0 -0 4.96843e-05)
(0 -0 4.64624e-05)
(0 -0 4.39134e-05)
(0 -0 4.27827e-05)
(0 -0 4.36944e-05)
(0 -0 4.71409e-05)
(0 -0 5.34473e-05)
(0 -0 6.27151e-05)
(0 -0 7.47537e-05)
(0 -0 8.90188e-05)
(0 -0 0.000104583)
(0 -0 0.000120161)
(0 -0 0.000134216)
(0 -0 0.000145137)
(0 -0 0.000151484)
(0 -0 0.000152239)
(0 -0 0.000147015)
(0 -0 0.00013616)
(0 -0 0.00012072)
(0 -0 0.000102261)
(0 -0 8.2586e-05)
(0 -0 6.34316e-05)
(0 -0 4.62013e-05)
(0 -0 3.1805e-05)
(0 -0 2.06213e-05)
(0 -0 1.25685e-05)
(0 -0 7.24299e-06)
(0 -0 4.07664e-06)
(0 -0 2.4757e-06)
(0 -0 1.88566e-06)
(0 -0 2.05328e-06)
(0 -0 -0.000504541)
(0 -0 -0.000364631)
(0 -0 -0.000253704)
(0 -0 -0.000166917)
(0 -0 -9.97462e-05)
(0 -0 -4.9251e-05)
(0 -0 -1.28008e-05)
(0 -0 1.23171e-05)
(0 -0 2.84986e-05)
(0 -0 3.78312e-05)
(0 -0 4.21092e-05)
(0 -0 4.28562e-05)
(0 -0 4.13547e-05)
(0 -0 3.86798e-05)
(0 -0 3.57357e-05)
(0 -0 3.32885e-05)
(0 -0 3.19917e-05)
(0 -0 3.23975e-05)
(0 -0 3.49492e-05)
(0 -0 3.99519e-05)
(0 -0 4.7524e-05)
(0 -0 5.75375e-05)
(0 -0 6.95621e-05)
(0 -0 8.28357e-05)
(0 -0 9.62811e-05)
(0 -0 0.00010859)
(0 -0 0.000118374)
(0 -0 0.00012437)
(0 -0 0.000125662)
(0 -0 0.000121865)
(0 -0 0.000113226)
(0 -0 0.000100595)
(0 -0 8.52854e-05)
(0 -0 6.88331e-05)
(0 -0 5.27328e-05)
(0 -0 3.82063e-05)
(0 -0 2.60567e-05)
(0 -0 1.66308e-05)
(0 -0 9.87504e-06)
(0 -0 5.45302e-06)
(0 -0 2.88098e-06)
(0 -0 1.64911e-06)
(0 -0 1.27369e-06)
(0 -0 1.56622e-06)
(0 -0 -0.000441949)
(0 -0 -0.000320942)
(0 -0 -0.000225128)
(0 -0 -0.000150178)
(0 -0 -9.20489e-05)
(0 -0 -4.82477e-05)
(0 -0 -1.65544e-05)
(0 -0 5.36529e-06)
(0 -0 1.95686e-05)
(0 -0 2.78448e-05)
(0 -0 3.17293e-05)
(0 -0 3.25247e-05)
(0 -0 3.13258e-05)
(0 -0 2.90505e-05)
(0 -0 2.64705e-05)
(0 -0 2.42413e-05)
(0 -0 2.29248e-05)
(0 -0 2.30009e-05)
(0 -0 2.48616e-05)
(0 -0 2.87876e-05)
(0 -0 3.49069e-05)
(0 -0 4.31428e-05)
(0 -0 5.31643e-05)
(0 -0 6.43556e-05)
(0 -0 7.58268e-05)
(0 -0 8.64781e-05)
(0 -0 9.5126e-05)
(0 -0 0.000100676)
(0 -0 0.000102312)
(0 -0 9.96615e-05)
(0 -0 9.2886e-05)
(0 -0 8.26694e-05)
(0 -0 7.01011e-05)
(0 -0 5.64777e-05)
(0 -0 4.30753e-05)
(0 -0 3.09484e-05)
(0 -0 2.08006e-05)
(0 -0 1.29456e-05)
(0 -0 7.35184e-06)
(0 -0 3.74095e-06)
(0 -0 1.70327e-06)
(0 -0 8.0358e-07)
(0 -0 6.21395e-07)
(0 -0 1.02699e-06)
(0 -0 -0.00038042)
(0 -0 -0.000277397)
(0 -0 -0.000196003)
(0 -0 -0.000132387)
(0 -0 -8.29658e-05)
(0 -0 -4.56531e-05)
(0 -0 -1.86089e-05)
(0 -0 1.50326e-07)
(0 -0 1.23668e-05)
(0 -0 1.95517e-05)
(0 -0 2.29985e-05)
(0 -0 2.38015e-05)
(0 -0 2.28791e-05)
(0 -0 2.09992e-05)
(0 -0 1.88078e-05)
(0 -0 1.68542e-05)
(0 -0 1.56122e-05)
(0 -0 1.54907e-05)
(0 -0 1.68302e-05)
(0 -0 1.98841e-05)
(0 -0 2.47831e-05)
(0 -0 3.14909e-05)
(0 -0 3.97596e-05)
(0 -0 4.91001e-05)
(0 -0 5.8786e-05)
(0 -0 6.79033e-05)
(0 -0 7.54524e-05)
(0 -0 8.0493e-05)
(0 -0 8.23062e-05)
(0 -0 8.05378e-05)
(0 -0 7.52832e-05)
(0 -0 6.70854e-05)
(0 -0 5.68416e-05)
(0 -0 4.56388e-05)
(0 -0 3.45601e-05)
(0 -0 2.45106e-05)
(0 -0 1.61025e-05)
(0 -0 9.61711e-06)
(0 -0 5.03923e-06)
(0 -0 2.13885e-06)
(0 -0 5.70064e-07)
(0 -0 -3.77958e-08)
(0 -0 -5.01102e-08)
(0 -0 4.55669e-07)
(0 -0 -0.000321494)
(0 -0 -0.000235128)
(0 -0 -0.000167122)
(0 -0 -0.000114069)
(0 -0 -7.28047e-05)
(0 -0 -4.16116e-05)
(0 -0 -1.89904e-05)
(0 -0 -3.27507e-06)
(0 -0 6.99203e-06)
(0 -0 1.307e-05)
(0 -0 1.60326e-05)
(0 -0 1.67844e-05)
(0 -0 1.6082e-05)
(0 -0 1.4556e-05)
(0 -0 1.2736e-05)
(0 -0 1.10728e-05)
(0 -0 9.95787e-06)
(0 -0 9.73274e-06)
(0 -0 1.06881e-05)
(0 -0 1.30479e-05)
(0 -0 1.69404e-05)
(0 -0 2.23593e-05)
(0 -0 2.91244e-05)
(0 -0 3.68529e-05)
(0 -0 4.49585e-05)
(0 -0 5.26881e-05)
(0 -0 5.9204e-05)
(0 -0 6.37039e-05)
(0 -0 6.55589e-05)
(0 -0 6.44385e-05)
(0 -0 6.0388e-05)
(0 -0 5.38347e-05)
(0 -0 4.55142e-05)
(0 -0 3.63342e-05)
(0 -0 2.72111e-05)
(0 -0 1.89192e-05)
(0 -0 1.1989e-05)
(0 -0 6.67102e-06)
(0 -0 2.96125e-06)
(0 -0 6.6938e-07)
(0 -0 -4.97172e-07)
(0 -0 -8.54316e-07)
(0 -0 -7.20627e-07)
(0 -0 -1.27787e-07)
(0 -0 -0.000266476)
(0 -0 -0.000195167)
(0 -0 -0.000139289)
(0 -0 -9.58364e-05)
(0 -0 -6.20213e-05)
(0 -0 -3.64531e-05)
(0 -0 -1.79319e-05)
(0 -0 -5.07208e-06)
(0 -0 3.33225e-06)
(0 -0 8.31749e-06)
(0 -0 1.07626e-05)
(0 -0 1.14043e-05)
(0 -0 1.08548e-05)
(0 -0 9.62232e-06)
(0 -0 8.13172e-06)
(0 -0 6.7453e-06)
(0 -0 5.77933e-06)
(0 -0 5.5137e-06)
(0 -0 6.19179e-06)
(0 -0 8.0082e-06)
(0 -0 1.10843e-05)
(0 -0 1.5435e-05)
(0 -0 2.09334e-05)
(0 -0 2.72842e-05)
(0 -0 3.40181e-05)
(0 -0 4.05186e-05)
(0 -0 4.60871e-05)
(0 -0 5.00424e-05)
(0 -0 5.18373e-05)
(0 -0 5.11674e-05)
(0 -0 4.8042e-05)
(0 -0 4.27955e-05)
(0 -0 3.603e-05)
(0 -0 2.85036e-05)
(0 -0 2.09914e-05)
(0 -0 1.41554e-05)
(0 -0 8.45473e-06)
(0 -0 4.11118e-06)
(0 -0 1.12791e-06)
(0 -0 -6.53636e-07)
(0 -0 -1.48234e-06)
(0 -0 -1.62856e-06)
(0 -0 -1.37203e-06)
(0 -0 -7.04888e-07)
(0 -0 -0.000216341)
(0 -0 -0.000158346)
(0 -0 -0.000113206)
(0 -0 -7.8277e-05)
(0 -0 -5.11065e-05)
(0 -0 -3.05855e-05)
(0 -0 -1.57721e-05)
(0 -0 -5.52386e-06)
(0 -0 1.14721e-06)
(0 -0 5.08487e-06)
(0 -0 6.99974e-06)
(0 -0 7.48282e-06)
(0 -0 7.02131e-06)
(0 -0 6.01638e-06)
(0 -0 4.80178e-06)
(0 -0 3.66172e-06)
(0 -0 2.84599e-06)
(0 -0 2.5791e-06)
(0 -0 3.06117e-06)
(0 -0 4.45832e-06)
(0 -0 6.88228e-06)
(0 -0 1.03617e-05)
(0 -0 1.4811e-05)
(0 -0 2.00047e-05)
(0 -0 2.55693e-05)
(0 -0 3.10021e-05)
(0 -0 3.57218e-05)
(0 -0 3.91513e-05)
(0 -0 4.08156e-05)
(0 -0 4.04374e-05)
(0 -0 3.80014e-05)
(0 -0 3.37688e-05)
(0 -0 2.82342e-05)
(0 -0 2.20324e-05)
(0 -0 1.58211e-05)
(0 -0 1.01677e-05)
(0 -0 5.47034e-06)
(0 -0 1.92459e-06)
(0 -0 -4.62332e-07)
(0 -0 -1.8242e-06)
(0 -0 -2.37466e-06)
(0 -0 -2.34695e-06)
(0 -0 -1.98914e-06)
(0 -0 -1.25967e-06)
(0 -0 -0.000171701)
(0 -0 -0.000125236)
(0 -0 -8.94051e-05)
(0 -0 -6.18826e-05)
(0 -0 -4.05096e-05)
(0 -0 -2.44161e-05)
(0 -0 -1.28787e-05)
(0 -0 -4.96203e-06)
(0 -0 1.37151e-07)
(0 -0 3.09929e-06)
(0 -0 4.49224e-06)
(0 -0 4.78354e-06)
(0 -0 4.35421e-06)
(0 -0 3.51445e-06)
(0 -0 2.52004e-06)
(0 -0 1.58817e-06)
(0 -0 9.11073e-07)
(0 -0 6.6483e-07)
(0 -0 1.01096e-06)
(0 -0 2.08892e-06)
(0 -0 3.99921e-06)
(0 -0 6.77854e-06)
(0 -0 1.0372e-05)
(0 -0 1.46092e-05)
(0 -0 1.91937e-05)
(0 -0 2.37154e-05)
(0 -0 2.76907e-05)
(0 -0 3.06299e-05)
(0 -0 3.2121e-05)
(0 -0 3.19131e-05)
(0 -0 2.99749e-05)
(0 -0 2.65117e-05)
(0 -0 2.19323e-05)
(0 -0 1.67722e-05)
(0 -0 1.15926e-05)
(0 -0 6.8831e-06)
(0 -0 2.99009e-06)
(0 -0 8.60743e-08)
(0 -0 -1.81997e-06)
(0 -0 -2.84289e-06)
(0 -0 -3.16838e-06)
(0 -0 -2.99996e-06)
(0 -0 -2.56027e-06)
(0 -0 -1.77936e-06)
(0 -0 -0.000132819)
(0 -0 -9.61471e-05)
(0 -0 -6.82281e-05)
(0 -0 -4.70111e-05)
(0 -0 -3.05923e-05)
(0 -0 -1.83015e-05)
(0 -0 -9.59609e-06)
(0 -0 -3.71402e-06)
(0 -0 -6.28104e-09)
(0 -0 2.07181e-06)
(0 -0 2.96955e-06)
(0 -0 3.05186e-06)
(0 -0 2.61149e-06)
(0 -0 1.88286e-06)
(0 -0 1.05645e-06)
(0 -0 2.93157e-07)
(0 -0 -2.63569e-07)
(0 -0 -4.7913e-07)
(0 -0 -2.25714e-07)
(0 -0 6.12049e-07)
(0 -0 2.12278e-06)
(0 -0 4.34698e-06)
(0 -0 7.25209e-06)
(0 -0 1.071e-05)
(0 -0 1.44853e-05)
(0 -0 1.82425e-05)
(0 -0 2.15774e-05)
(0 -0 2.40729e-05)
(0 -0 2.5371e-05)
(0 -0 2.52454e-05)
(0 -0 2.36554e-05)
(0 -0 2.07639e-05)
(0 -0 1.69129e-05)
(0 -0 1.25585e-05)
(0 -0 8.18461e-06)