/*--------------------------------*- C++ -*----------------------------------*\
| =========                 |                                                 |
| \\      /  F ield         | OpenFOAM: The Open Source CFD Toolbox           |
|  \\    /   O peration     | Version:  2412                                  |
|   \\  /    A nd           | Website:  www.openfoam.com                      |
|    \\/     M anipulation  |                                                 |
\*---------------------------------------------------------------------------*/
FoamFile
{
    version     2.0;
    format      ascii;
    arch        "LSB;label=32;scalar=64";
    class       surfaceScalarField;
    location    "13";
    object      phi;
}
// * * * * * * * * * * * * * * * * * * * * * * * * * * * * * * * * * * * * * //

dimensions      [0 3 -1 0 0 0 0];

oriented        oriented;

internalField   nonuniform List<scalar> 
10424
(
0.00536897
0.000203895
-0.00537382
-0.000199051
0.00536423
0.000205029
-0.000200288
0.0053596
0.000206005
-0.000201372
0.00535508
0.000206819
-0.000202301
0.00535068
0.000207467
-0.000203069
0.00534641
0.000207946
-0.000203673
0.00534227
0.000208255
-0.000204111
0.00533826
0.000208391
-0.000204382
0.00533439
0.000208353
-0.000204482
0.00533066
0.000208142
-0.000204413
0.00532707
0.000207757
-0.000204172
0.00532364
0.000207199
-0.000203762
0.00532035
0.000206469
-0.000203182
0.00531721
0.00020557
-0.000202434
0.00531423
0.000204503
-0.00020152
0.0053114
0.000203272
-0.000200443
0.00530873
0.000201879
-0.000199204
0.00530621
0.000200328
-0.000197807
0.00530384
0.000198622
-0.000196256
0.00530163
0.000196767
-0.000194553
0.00529957
0.000194766
-0.000192704
0.00529765
0.000192624
-0.000190712
0.00529589
0.000190349
-0.000188585
0.00529427
0.000187947
-0.000186328
0.0052928
0.000185424
-0.000183948
0.00529146
0.000182789
-0.000181451
0.00529026
0.000180046
-0.000178843
0.00528918
0.000177203
-0.000176129
0.00528823
0.000174262
-0.000173312
0.0052874
0.000171227
-0.000170396
0.00528668
0.000168102
-0.000167384
0.00528607
0.00016489
-0.000164278
0.00528556
0.000161593
-0.000161081
0.00528514
0.000158217
-0.000157799
0.00528481
0.000154766
-0.000154435
0.00528456
0.000151246
-0.000150996
0.00528439
0.000147664
-0.000147489
0.00528428
0.000144027
-0.000143921
0.00528424
0.000140342
-0.0001403
0.00528425
0.000136617
-0.000136632
0.00528432
0.000132858
-0.000132927
0.00528444
0.000129075
-0.000129191
0.0052846
0.000125273
-0.000125432
0.00012146
-0.000121657
0.00536582
0.000208815
-0.00537074
0.00536101
0.000209838
0.00535632
0.000210695
0.00535175
0.000211385
0.00534732
0.000211904
0.00534301
0.000212249
0.00533885
0.000212419
0.00533483
0.000212412
0.00533095
0.000212228
0.00532723
0.000211867
0.00532366
0.000211329
0.00532024
0.000210616
0.00531698
0.000209729
0.00531388
0.000208671
0.00531094
0.000207446
0.00530815
0.000206055
0.00530553
0.000204502
0.00530307
0.000202792
0.00530076
0.000200928
0.00529861
0.000198915
0.00529662
0.000196759
0.00529478
0.000194464
0.00529309
0.000192038
0.00529155
0.000189488
0.00529015
0.000186821
0.0052889
0.000184045
0.00528778
0.000181167
0.00528679
0.000178192
0.00528592
0.000175126
0.00528518
0.000171973
0.00528454
0.000168735
0.00528402
0.000165416
0.00528359
0.00016202
0.00528325
0.000158551
0.00528301
0.000155014
0.00528284
0.000151414
0.00528274
0.000147759
0.00528272
0.000144054
0.00528275
0.000140307
0.00528284
0.000136526
0.00528298
0.000132717
0.00528317
0.000128888
0.0052834
0.000125045
0.000121196
0.00536245
0.000213809
-0.00536744
0.00535758
0.000214708
0.00535283
0.000215438
0.00534822
0.000215994
0.00534375
0.000216374
0.00533943
0.000216576
0.00533525
0.000216597
0.00533122
0.000216439
0.00532735
0.000216099
0.00532364
0.00021558
0.00532009
0.000214881
0.0053167
0.000214005
0.00531347
0.000212955
0.00531041
0.000211733
0.00530751
0.000210341
0.00530478
0.000208785
0.00530222
0.000207068
0.00529982
0.000205193
0.00529758
0.000203167
0.0052955
0.000200993
0.00529358
0.000198677
0.00529182
0.000196226
0.00529021
0.000193646
0.00528875
0.000190945
0.00528744
0.000188132
0.00528627
0.000185214
0.00528524
0.000182199
0.00528434
0.000179093
0.00528356
0.000175902
0.00528291
0.00017263
0.00528236
0.000169279
0.00528192
0.000165855
0.00528158
0.00016236
0.00528134
0.000158799
0.00528117
0.000155177
0.00528109
0.000151499
0.00528108
0.000147771
0.00528113
0.000144001
0.00528124
0.000140194
0.00528141
0.000136358
0.00528163
0.000132501
0.00528188
0.000128628
0.00528218
0.000124747
0.000120865
0.00535884
0.000218869
-0.0053639
0.00535391
0.000219636
0.00534913
0.000220227
0.00534448
0.000220639
0.00533998
0.00022087
0.00533564
0.000220918
0.00533146
0.000220783
0.00532743
0.000220463
0.00532357
0.000219959
0.00531988
0.000219273
0.00531635
0.000218406
0.005313
0.000217361
0.00530981
0.000216139
0.0053068
0.000214745
0.00530396
0.000213182
0.00530129
0.000211455
0.00529879
0.000209568
0.00529646
0.000207525
0.00529429
0.000205331
0.0052923
0.000202992
0.00529046
0.000200514
0.00528878
0.000197903
0.00528726
0.000195167
0.00528589
0.000192314
0.00528467
0.000189353
0.00528359
0.000186292
0.00528265
0.00018314
0.00528184
0.000179902
0.00528116
0.000176585
0.0052806
0.000173194
0.00528014
0.000169732
0.0052798
0.000166203
0.00527955
0.00016261
0.00527939
0.000158959
0.00527931
0.000155253
0.00527931
0.000151498
0.00527938
0.000147699
0.00527952
0.000143865
0.00527971
0.00014
0.00527996
0.000136113
0.00528025
0.000132209
0.00528058
0.000128295
0.00528095
0.000124378
0.000120464
0.00535499
0.000223991
-0.00536011
0.00535001
0.000224613
0.00534519
0.000225055
0.00534051
0.000225313
0.005336
0.000225385
0.00533165
0.000225269
0.00532746
0.000224967
0.00532345
0.000224477
0.00531961
0.0002238
0.00531594
0.000222939
0.00531245
0.000221896
0.00530914
0.000220673
0.00530601
0.000219273
0.00530305
0.000217701
0.00530027
0.000215961
0.00529767
0.000214057
0.00529524
0.000211994
0.00529299
0.000209778
0.00529091
0.000207413
0.00528899
0.000204906
0.00528724
0.000202262
0.00528566
0.000199489
0.00528423
0.000196595
0.00528296
0.000193588
0.00528183
0.000190478
0.00528085
0.000187273
0.00528001
0.000183983
0.0052793
0.000180613
0.00527871
0.000177171
0.00527824
0.000173662
0.00527789
0.000170089
0.00527763
0.000166456
0.00527748
0.000162767
0.00527741
0.000159026
0.00527742
0.000155238
0.00527751
0.000151408
0.00527767
0.000147542
0.00527789
0.000143645
0.00527817
0.000139725
0.00527849
0.000135788
0.00527886
0.00013184
0.00527927
0.000127887
0.00527971
0.000123937
0.000119994
0.00535088
0.000229166
-0.00535605
0.00534586
0.000229633
0.005341
0.000229914
0.00533631
0.000230007
0.00533178
0.000229909
0.00532743
0.00022962
0.00532326
0.000229141
0.00531926
0.000228471
0.00531545
0.000227613
0.00531182
0.000226568
0.00530838
0.000225341
0.00530512
0.000223932
0.00530204
0.000222348
0.00529915
0.000220592
0.00529644
0.000218668
0.00529392
0.000216582
0.00529157
0.00021434
0.00528941
0.000211946
0.00528741
0.000209406
0.00528559
0.000206727
0.00528394
0.000203915
0.00528245
0.000200978
0.00528112
0.000197923
0.00527995
0.000194761
0.00527893
0.000191501
0.00527805
0.000188152
0.00527731
0.000184723
0.0052767
0.000181222
0.00527621
0.000177655
0.00527585
0.000174029
0.00527559
0.000170346
0.00527544
0.000166611
0.00527537
0.000162827
0.0052754
0.000158999
0.00527551
0.000155131
0.00527569
0.000151228
0.00527594
0.000147295
0.00527624
0.000143339
0.0052766
0.000139366
0.00527701
0.000135381
0.00527745
0.000131392
0.00527794
0.000127403
0.00527845
0.000123422
0.000119453
0.00534649
0.000234387
-0.00535171
0.00534144
0.000234687
0.00533655
0.000234796
0.00533185
0.000234712
0.00532732
0.000234434
0.00532298
0.000233961
0.00531883
0.000233295
0.00531486
0.000232436
0.00531109
0.000231387
0.00530751
0.000230151
0.00530412
0.000228731
0.00530092
0.00022713
0.00529791
0.000225354
0.0052951
0.000223407
0.00529247
0.000221294
0.00529003
0.000219022
0.00528778
0.000216595
0.0052857
0.000214019
0.00528381
0.000211301
0.00528209
0.000208447
0.00528054
0.000205465
0.00527916
0.000202361
0.00527793
0.000199145
0.00527687
0.000195827
0.00527595
0.000192416
0.00527518
0.000188922
0.00527455
0.000185355
0.00527405
0.000181724
0.00527367
0.000178033
0.00527341
0.000174291
0.00527326
0.0001705
0.0052732
0.000166664
0.00527324
0.000162788
0.00527337
0.000158874
0.00527357
0.000154928
0.00527384
0.000150955
0.00527418
0.000146958
0.00527457
0.000142945
0.00527502
0.000138921
0.00527551
0.000134892
0.00527603
0.000130864
0.0052766
0.000126842
0.00527718
0.000122833
0.000118841
0.00534181
0.000239643
-0.00534706
0.00533673
0.000239765
0.00533184
0.00023969
0.00532713
0.000239418
0.00532262
0.000238948
0.00531829
0.000238281
0.00531417
0.000237418
0.00531025
0.000236361
0.00530652
0.000235113
0.005303
0.000233676
0.00529967
0.000232056
0.00529654
0.000230256
0.00529362
0.000228281
0.00529089
0.000226137
0.00528835
0.00022383
0.00528601
0.000221366
0.00528385
0.00021875
0.00528188
0.000215989
0.00528009
0.00021309
0.00527848
0.000210059
0.00527704
0.000206903
0.00527577
0.000203631
0.00527466
0.000200253
0.00527371
0.000196778
0.00527291
0.000193216
0.00527226
0.000189578
0.00527174
0.000185874
0.00527135
0.000182113
0.00527108
0.0001783
0.00527093
0.000174443
0.00527088
0.000170546
0.00527094
0.000166612
0.00527108
0.000162645
0.0052713
0.000158649
0.0052716
0.000154628
0.00527197
0.000150586
0.0052724
0.000146529
0.00527289
0.000142462
0.00527342
0.00013839
0.00527399
0.000134319
0.0052746
0.000130255
0.00527524
0.000126203
0.0052759
0.000122168
0.000118156
0.00533682
0.000244926
-0.0053421
0.00533173
0.000244856
0.00532683
0.000244585
0.00532214
0.000244114
0.00531764
0.000243442
0.00531336
0.00024257
0.00530927
0.0002415
0.0053054
0.000240235
0.00530174
0.000238777
0.00529828
0.000237133
0.00529503
0.000235304
0.00529199
0.000233298
0.00528915
0.000231118
0.00528652
0.000228772
0.00528408
0.000226266
0.00528184
0.000223605
0.0052798
0.000220796
0.00527794
0.000217847
0.00527626
0.000214763
0.00527477
0.000211552
0.00527345
0.000208222
0.0052723
0.000204781
0.00527131
0.00020124
0.00527049
0.000197607
0.00526981
0.000193895
0.00526927
0.000190114
0.00526887
0.000186274
0.0052686
0.000182384
0.00526845
0.000178451
0.00526841
0.000174482
0.00526848
0.000170481
0.00526864
0.000166451
0.00526889
0.000162396
0.00526922
0.00015832
0.00526962
0.000154226
0.00527008
0.000150119
0.00527061
0.000146004
0.00527118
0.000141886
0.0052718
0.000137769
0.00527246
0.00013366
0.00527316
0.000129563
0.00527387
0.000125484
0.00527462
0.000121427
0.000117398
0.00533151
0.000250223
-0.00533681
0.00532642
0.000249948
0.00532153
0.00024947
0.00531686
0.000248787
0.0053124
0.000247901
0.00530816
0.000246814
0.00530413
0.000245527
0.00530032
0.000244044
0.00529673
0.00024237
0.00529335
0.000240508
0.00529019
0.000238464
0.00528724
0.000236244
0.00528451
0.000233854
0.00528198
0.0002313
0.00527966
0.000228589
0.00527753
0.000225728
0.00527561
0.000222723
0.00527387
0.000219582
0.00527232
0.000216312
0.00527095
0.00021292
0.00526976
0.000209414
0.00526874
0.000205803
0.00526788
0.000202098
0.00526718
0.000198308
0.00526663
0.000194446
0.00526622
0.000190522
0.00526595
0.000186548
0.0052658
0.000182532
0.00526577
0.000178481
0.00526585
0.000174402
0.00526603
0.000170299
0.00526631
0.000166176
0.00526667
0.000162037
0.0052671
0.000157883
0.00526761
0.00015372
0.00526818
0.000149552
0.0052688
0.000145382
0.00526947
0.000141216
0.00527018
0.000137058
0.00527093
0.000132914
0.0052717
0.000128787
0.0052725
0.000124684
0.00527332
0.000120608
0.000116565
0.00532586
0.00025552
-0.00533116
0.00532078
0.000255029
0.00531592
0.00025433
0.00531128
0.000253424
0.00530687
0.000252313
0.00530269
0.000250999
0.00529873
0.000249485
0.005295
0.000247776
0.00529149
0.000245875
0.00528821
0.000243789
0.00528515
0.000241523
0.00528231
0.000239083
0.00527969
0.000236477
0.00527728
0.00023371
0.00527508
0.00023079
0.00527308
0.000227725
0.00527128
0.000224521
0.00526968
0.000221186
0.00526827
0.000217727
0.00526703
0.000214152
0.00526598
0.000210469
0.00526509
0.000206688
0.00526437
0.000202819
0.00526381
0.000198873
0.00526339
0.000194863
0.00526312
0.000190798
0.00526297
0.000186691
0.00526295
0.000182551
0.00526305
0.000178385
0.00526325
0.000174199
0.00526355
0.000169997
0.00526395
0.000165785
0.00526442
0.000161563
0.00526497
0.000157337
0.00526558
0.000153108
0.00526625
0.000148881
0.00526697
0.00014466
0.00526774
0.00014045
0.00526854
0.000136254
0.00526938
0.000132078
0.00527024
0.000127926
0.00527112
0.000123802
0.00527202
0.000119711
0.000115657
0.00531986
0.000260805
-0.00532515
0.00531481
0.000260083
0.00530999
0.000259151
0.0053054
0.00025801
0.00530105
0.000256663
0.00529694
0.000255112
0.00529306
0.000253361
0.00528942
0.000251416
0.00528602
0.000249281
0.00528284
0.000246963
0.0052799
0.000244467
0.00527718
0.000241801
0.00527469
0.000238972
0.00527241
0.000235988
0.00527034
0.000232856
0.00526848
0.000229583
0.00526683
0.000226177
0.00526537
0.000222646
0.0052641
0.000218997
0.00526301
0.000215239
0.0052621
0.000211379
0.00526136
0.000207428
0.00526078
0.000203396
0.00526036
0.000199296
0.00526009
0.000195138
0.00525995
0.000190934
0.00525994
0.000186697
0.00526006
0.000182435
0.00526029
0.000178157
0.00526062
0.000173867
0.00526105
0.000169571
0.00526156
0.000165272
0.00526215
0.000160973
0.00526281
0.000156676
0.00526353
0.000152386
0.00526431
0.000148104
0.00526513
0.000143836
0.005266
0.000139585
0.0052669
0.000135356
0.00526782
0.000131152
0.00526877
0.000126978
0.00526973
0.000122837
0.00527071
0.000118735
0.000114673
0.0053135
0.00026606
-0.00531876
0.00530849
0.000265095
0.00530372
0.000263917
0.0052992
0.000262529
0.00529493
0.000260935
0.00529091
0.000259136
0.00528713
0.000257139
0.0052836
0.000254948
0.00528031
0.000252571
0.00527726
0.000250013
0.00527444
0.000247282
0.00527186
0.000244384
0.0052695
0.000241328
0.00526737
0.000238122
0.00526545
0.000234774
0.00526374
0.000231291
0.00526224
0.000227681
0.00526093
0.000223953
0.00525982
0.000220113
0.00525889
0.000216171
0.00525813
0.000212134
0.00525754
0.000208014
0.00525712
0.000203821
0.00525685
0.000199567
0.00525672
0.000195264
0.00525673
0.000190925
0.00525687
0.00018656
0.00525712
0.00018218
0.00525749
0.000177792
0.00525795
0.000173402
0.00525851
0.000169015
0.00525915
0.000164634
0.00525986
0.000160261
0.00526064
0.000155899
0.00526147
0.00015155
0.00526236
0.000147219
0.00526328
0.000142908
0.00526425
0.000138621
0.00526524
0.000134362
0.00526626
0.000130134
0.0052673
0.000125942
0.00526835
0.000121788
0.0052694
0.000117677
0.000113612
0.00530676
0.000271269
-0.00531197
0.00530181
0.000270047
0.00529711
0.00026861
0.00529268
0.000266964
0.0052885
0.00026511
0.00528459
0.000263054
0.00528092
0.000260801
0.00527751
0.000258357
0.00527436
0.000255729
0.00527144
0.000252925
0.00526877
0.000249952
0.00526634
0.000246817
0.00526414
0.00024353
0.00526216
0.000240099
0.00526041
0.000236532
0.00525886
0.000232836
0.00525752
0.000229021
0.00525638
0.000225094
0.00525543
0.000221064
0.00525466
0.000216938
0.00525407
0.000212726
0.00525364
0.000208438
0.00525338
0.000204085
0.00525327
0.00019968
0.0052533
0.000195235
0.00525346
0.000190762
0.00525375
0.000186273
0.00525415
0.000181778
0.00525465
0.000177285
0.00525526
0.0001728
0.00525594
0.000168326
0.00525671
0.000163867
0.00525755
0.000159424
0.00525845
0.000155001
0.0052594
0.0001506
0.00526039
0.000146223
0.00526143
0.000141873
0.00526249
0.000137554
0.00526359
0.000133269
0.0052647
0.000129022
0.00526582
0.000124816
0.00526696
0.000120654
0.0052681
0.000116539
0.000112474
0.00529963
0.000276412
-0.00530477
0.00529475
0.00027492
0.00529015
0.000273212
0.00528582
0.000271295
0.00528176
0.000269172
0.00527796
0.000266848
0.00527444
0.000264329
0.00527117
0.000261624
0.00526816
0.000258739
0.0052654
0.000255682
0.00526289
0.000252461
0.00526062
0.000249085
0.00525859
0.000245563
0.00525679
0.000241904
0.0052552
0.000238115
0.00525383
0.000234206
0.00525267
0.000230185
0.0052517
0.00022606
0.00525093
0.000221839
0.00525034
0.000217531
0.00524992
0.000213144
0.00524966
0.000208691
0.00524957
0.00020418
0.00524962
0.000199627
0.00524982
0.000195042
0.00525014
0.00019044
0.00525058
0.000185831
0.00525113
0.000181226
0.00525179
0.000176632
0.00525253
0.000172055
0.00525336
0.000167499
0.00525426
0.000162967
0.00525522
0.00015846
0.00525624
0.000153981
0.00525731
0.000149531
0.00525842
0.000145113
0.00525957
0.000140729
0.00526074
0.000136383
0.00526193
0.000132078
0.00526313
0.000127816
0.00526435
0.0001236
0.00526557
0.000119433
0.00526679
0.000115318
0.000111258
0.00529209
0.00028147
-0.00529715
0.00528731
0.000279693
0.00528282
0.000277702
0.00527862
0.000275502
0.00527469
0.000273099
0.00527104
0.000270498
0.00526766
0.000267706
0.00526456
0.000264731
0.00526171
0.000261581
0.00525913
0.000258266
0.0052568
0.000254793
0.00525471
0.000251172
0.00525286
0.000247412
0.00525124
0.000243522
0.00524985
0.000239511
0.00524867
0.000235388
0.00524769
0.000231161
0.00524691
0.000226838
0.00524633
0.000222427
0.00524592
0.000217938
0.00524568
0.00021338
0.00524561
0.000208763
0.00524569
0.000204098
0.00524592
0.0001994
0.00524628
0.00019468
0.00524677
0.000189952
0.00524737
0.000185227
0.00524808
0.000180516
0.00524889
0.000175826
0.00524978
0.000171163
0.00525075
0.00016653
0.00525179
0.00016193
0.00525288
0.000157364
0.00525403
0.000152833
0.00525522
0.000148341
0.00525645
0.000143887
0.0052577
0.000139475
0.00525898
0.000135107
0.00526027
0.000130786
0.00526157
0.000126513
0.00526288
0.000122292
0.00526419
0.000118126
0.00526549
0.000114015
0.000109964
0.00528413
0.000286419
-0.00528908
0.00527948
0.000284345
0.00527513
0.000282058
0.00527106
0.000279565
0.00526729
0.000276871
0.00526381
0.000273983
0.0052606
0.000270909
0.00525768
0.000267658
0.00525502
0.000264238
0.00525263
0.000260659
0.00525049
0.00025693
0.0052486
0.000253061
0.00524695
0.000249061
0.00524554
0.000244939
0.00524434
0.000240705
0.00524336
0.000236368
0.00524259
0.000231935
0.00524201
0.000227416
0.00524162
0.000222818
0.00524141
0.00021815
0.00524137
0.000213423
0.00524148
0.000208645
0.00524175
0.00020383
0.00524216
0.000198991
0.0052427
0.00019414
0.00524336
0.000189291
0.00524413
0.000184455
0.005245
0.000179643
0.00524597
0.000174863
0.00524701
0.000170119
0.00524813
0.000165415
0.0052493
0.000160752
0.00525053
0.000156133
0.00525181
0.000151557
0.00525312
0.000147027
0.00525447
0.000142543
0.00525584
0.000138108
0.00525722
0.000133723
0.00525861
0.000129391
0.00526001
0.000125113
0.00526141
0.000120892
0.00526281
0.00011673
0.0052642
0.000112629
0.00010859
0.00527575
0.000291235
-0.00528057
0.00527125
0.000288851
0.00526705
0.000286256
0.00526316
0.000283458
0.00525956
0.000280464
0.00525626
0.000277281
0.00525325
0.000273918
0.00525053
0.000270384
0.00524808
0.000266689
0.00524589
0.000262843
0.00524397
0.000258855
0.0052423
0.000254735
0.00524086
0.000250493
0.00523966
0.000246139
0.00523869
0.000241682
0.00523792
0.000237131
0.00523736
0.000232495
0.005237
0.000227781
0.00523682
0.000222999
0.00523681
0.000218156
0.00523697
0.000213263
0.00523729
0.00020833
0.00523775
0.000203369
0.00523835
0.000198393
0.00523907
0.000193416
0.00523991
0.000188451
0.00524086
0.00018351
0.0052419
0.000178603
0.00524302
0.000173737
0.00524422
0.000168919
0.00524549
0.000164149
0.00524681
0.00015943
0.00524818
0.000154763
0.00524959
0.000150149
0.00525103
0.000145587
0.00525249
0.000141079
0.00525397
0.000136627
0.00525546
0.000132231
0.00525696
0.000127893
0.00525846
0.000123615
0.00525995
0.000119399
0.00526144
0.000115246
0.00526291
0.000111158
0.000107137
0.00526693
0.000295892
-0.00527159
0.0052626
0.000293184
0.00525858
0.00029027
0.00525488
0.000287158
0.00525149
0.000283854
0.0052484
0.000280369
0.00524561
0.00027671
0.00524311
0.000272888
0.00524088
0.000268913
0.00523893
0.000264796
0.00523724
0.000260547
0.0052358
0.000256175
0.0052346
0.000251692
0.00523363
0.000247106
0.00523289
0.000242427
0.00523235
0.000237665
0.00523202
0.000232828
0.00523188
0.000227923
0.00523192
0.00022296
0.00523213
0.000217946
0.0052325
0.000212891
0.00523302
0.000207807
0.00523369
0.000202704
0.00523448
0.000197598
0.0052354
0.0001925
0.00523643
0.000187425
0.00523755
0.000182385
0.00523876
0.000177389
0.00524006
0.000172445
0.00524142
0.000167558
0.00524284
0.000162729
0.00524431
0.000157961
0.00524582
0.000153253
0.00524736
0.000148606
0.00524893
0.000144019
0.00525051
0.000139493
0.00525211
0.000135029
0.00525372
0.000130628
0.00525532
0.00012629
0.00525691
0.000122018
0.0052585
0.000117812
0.00526007
0.000113674
0.00526163
0.000109604
0.000105604
0.00525766
-0.00526213
0.00525353
0.00524972
0.00524624
0.00524308
0.00524023
0.00523768
0.00523542
0.00523344
0.00523174
0.0052303
0.00522911
0.00522816
0.00522745
0.00522695
0.00522666
0.00522657
0.00522666
0.00522693
0.00522737
0.00522796
0.0052287
0.00522958
0.00523058
0.00523169
0.00523291
0.00523422
0.00523561
0.00523708
0.0052386
0.00524018
0.0052418
0.00524345
0.00524513
0.00524683
0.00524854
0.00525026
0.00525197
0.00525368
0.00525538
0.00525706
0.00525872
0.00526036
0.00556871
0.000231315
-0.000221941
0.00555929
0.000234732
-0.000225317
0.00554987
0.000237643
-0.000228217
0.00554046
0.000240078
-0.000230669
0.00553109
0.000242066
-0.000232703
0.0055218
0.000243638
-0.000234347
0.00551261
0.000244823
-0.000235628
0.00550353
0.000245646
-0.00023657
0.0054946
0.000246131
-0.000237194
0.00548582
0.0002463
-0.00023752
0.00547721
0.000246169
-0.000237562
0.00546879
0.000245757
-0.000237335
0.00546056
0.000245077
-0.000236852
0.00545254
0.000244143
-0.000236123
0.00544474
0.000242967
-0.000235161
0.00543715
0.000241561
-0.000233975
0.00542979
0.000239939
-0.000232576
0.00542265
0.000238111
-0.000230975
0.00541574
0.000236091
-0.000229184
0.00540907
0.00023389
-0.000227214
0.00540262
0.000231523
-0.000225078
0.00539641
0.000229003
-0.000222788
0.00539042
0.000226342
-0.000220356
0.00538466
0.000223554
-0.000217795
0.00537913
0.000220652
-0.000215118
0.000217648
-0.000212336
0.00557308
0.000241155
0.0055632
0.000244611
0.00555331
0.000247532
0.00554345
0.000249945
0.00553363
0.00025188
0.0055239
0.000253371
0.00551428
0.000254448
0.00550478
0.000255139
0.00549545
0.000255469
0.00548628
0.000255464
0.00547731
0.000255143
0.00546854
0.000254525
0.00545999
0.000253628
0.00545166
0.000252468
0.00544357
0.000251058
0.00543572
0.000249413
0.00542811
0.000247547
0.00542075
0.000245472
0.00541364
0.000243203
0.00540677
0.000240754
0.00540016
0.000238139
0.00539379
0.000235371
0.00538767
0.000232465
0.00538179
0.000229434
0.00537615
0.000226293
0.000223054
0.00557746
0.000251492
0.00556708
0.000254985
0.0055567
0.00025791
0.00554636
0.000260293
0.00553607
0.000262168
0.00552587
0.000263567
0.0055158
0.000264522
0.00550587
0.000265064
0.00549612
0.000265223
0.00548656
0.000265025
0.00547721
0.000264493
0.00546808
0.00026365
0.0054592
0.000262515
0.00545056
0.000261106
0.00544218
0.000259441
0.00543405
0.000257534
0.0054262
0.000255403
0.00541861
0.000253061
0.00541129
0.000250523
0.00540424
0.000247806
0.00539745
0.000244923
0.00539093
0.00024189
0.00538468
0.000238722
0.00537868
0.000235433
0.00537293
0.000232037
0.000228548
0.00558181
0.000262362
0.00557091
0.000265887
0.00556001
0.000268807
0.00554915
0.000271152
0.00553836
0.000272953
0.00552769
0.000274245
0.00551714
0.000275063
0.00550677
0.00027544
0.00549659
0.000275407
0.00548661
0.000274995
0.00547688
0.000274231
0.00546739
0.000273139
0.00545816
0.000271743
0.0054492
0.000270063
0.00544052
0.000268119
0.00543213
0.000265928
0.00542402
0.000263508
0.00541621
0.000260877
0.00540868
0.00025805
0.00540144
0.000255044
0.00539449
0.000251874
0.00538783
0.000248558
0.00538144
0.00024511
0.00537532
0.000241545
0.00536948
0.00023788
0.000234127
0.00558611
0.000273806
0.00557464
0.000277352
0.00556319
0.000280256
0.0055518
0.000282548
0.00554049
0.00028426
0.00552931
0.000285429
0.00551828
0.00028609
0.00550744
0.000286281
0.00549681
0.000286035
0.00548642
0.000285387
0.00547628
0.000284366
0.00546642
0.000283002
0.00545684
0.000281319
0.00544756
0.000279343
0.00543859
0.000277095
0.00542992
0.000274596
0.00542156
0.000271865
0.00541352
0.00026892
0.00540579
0.000265781
0.00539837
0.000262465
0.00539125
0.000258989
0.00538444
0.00025537
0.00537793
0.000251624
0.0053717
0.000247767
0.00536577
0.000243816
0.000239784
0.00559033
0.000285865
0.00557827
0.000289418
0.00556623
0.000292291
0.00555427
0.000294513
0.00554241
0.000296117
0.0055307
0.000297141
0.00551917
0.000297623
0.00550784
0.000297604
0.00549676
0.000297121
0.00548593
0.00029621
0.00547539
0.000294907
0.00546515
0.000293243
0.00545522
0.000291248
0.00544562
0.000288949
0.00543634
0.000286371
0.0054274
0.000283538
0.00541879
0.00028047
0.00541052
0.00027719
0.00540259
0.000273716
0.00539499
0.000270067
0.00538771
0.000266263
0.00538076
0.000262321
0.00537413
0.000258258
0.0053678
0.000254092
0.00536178
0.000249837
0.000245511
0.00559446
0.000298585
0.00558175
0.000302127
0.0055691
0.000304948
0.00555653
0.000307078
0.0055441
0.00030855
0.00553183
0.000309404
0.00551977
0.000309682
0.00550795
0.000309426
0.0054964
0.000308677
0.00548513
0.000307477
0.00547417
0.000305862
0.00546355
0.000303871
0.00545326
0.000301534
0.00544333
0.000298884
0.00543375
0.000295949
0.00542453
0.000292754
0.00541568
0.000289324
0.00540719
0.000285681
0.00539905
0.000281848
0.00539128
0.000277844
0.00538385
0.00027369
0.00537677
0.000269405
0.00537002
0.000265006
0.0053636
0.000260511
0.0053575
0.000255937
0.0002513
0.00559847
0.000312014
0.00558507
0.000315522
0.00557175
0.000318266
0.00555855
0.000320277
0.00554552
0.000321589
0.00553268
0.000322245
0.00552007
0.000322288
0.00550773
0.000321764
0.00549569
0.000320719
0.00548397
0.000319197
0.00547259
0.00031724
0.00546157
0.000314889
0.00545093
0.000312181
0.00544066
0.00030915
0.00543078
0.000305827
0.00542129
0.000302243
0.0054122
0.000298422
0.00540349
0.000294391
0.00539516
0.000290173
0.00538722
0.00028579
0.00537964
0.000281264
0.00537243
0.000276613
0.00536558
0.000271858
0.00535908
0.000267016
0.00535291
0.000262106
0.000257142
0.00560233
0.000326203
0.0055882
0.000329648
0.00557418
0.000332286
0.00556031
0.000334146
0.00554664
0.000335265
0.00553319
0.000335688
0.00552002
0.000335462
0.00550715
0.000334636
0.00549461
0.00033326
0.00548242
0.000331381
0.00547061
0.000329048
0.0054592
0.000326304
0.00544819
0.00032319
0.00543759
0.000319746
0.00542742
0.000316005
0.00541766
0.000312
0.00540832
0.000307761
0.0053994
0.000303314
0.00539088
0.000298685
0.00538278
0.000293898
0.00537507
0.000288975
0.00536774
0.000283938
0.00536079
0.000278806
0.00535421
0.000273598
0.00534799
0.000268332
0.000263025
0.00560602
0.000341205
0.00559111
0.000344555
0.00557635
0.00034705
0.00556177
0.000348722
0.00554743
0.000349611
0.00553335
0.000349762
0.00551959
0.000349228
0.00550616
0.00034806
0.00549311
0.000346313
0.00548045
0.00034404
0.0054682
0.000341293
0.00545639
0.000338119
0.00544501
0.000334565
0.00543409
0.000330673
0.00542361
0.00032648
0.00541359
0.000322024
0.00540402
0.000317334
0.00539489
0.000312442
0.0053862
0.000307375
0.00537794
0.000302158
0.0053701
0.000296814
0.00536267
0.000291367
0.00535564
0.000285837
0.00534899
0.000280244
0.00534272
0.000274605
0.000268939
0.00560951
0.000357078
0.00559378
0.000360293
0.00557822
0.000362604
0.0055629
0.000364045
0.00554785
0.000364658
0.00553312
0.000364495
0.00551874
0.000363608
0.00550475
0.000362055
0.00549116
0.000359895
0.00547802
0.000357185
0.00546533
0.000353982
0.00545311
0.000350339
0.00544137
0.000346306
0.00543011
0.000341929
0.00541934
0.000337249
0.00540906
0.000332307
0.00539926
0.000327135
0.00538993
0.000321768
0.00538107
0.000316233
0.00537267
0.000310559
0.00536472
0.00030477
0.00535719
0.00029889
0.00535009
0.00029294
0.00534339
0.000286941
0.00533709
0.000280911
0.000274868
0.00561279
0.000373879
0.00559617
0.000376914
0.00557978
0.000378993
0.00556367
0.000380155
0.00554788
0.000380444
0.00553246
0.000379915
0.00551744
0.000378627
0.00550286
0.00037664
0.00548873
0.000374019
0.00547509
0.000370827
0.00546195
0.000367123
0.00544932
0.000362968
0.00543721
0.000358414
0.00542563
0.000353512
0.00541457
0.000348307
0.00540404
0.000342843
0.00539402
0.000337156
0.0053845
0.000331281
0.00537549
0.000325249
0.00536696
0.00031909
0.0053589
0.000312829
0.0053513
0.000306492
0.00534414
0.0003001
0.0053374
0.000293675
0.00533108
0.000287235
0.000280798
0.0056158
0.00039167
0.00559824
0.000394473
0.00558097
0.000396268
0.00556403
0.000397095
0.00554747
0.000397004
0.00553133
0.000396054
0.00551565
0.000394309
0.00550045
0.000391835
0.00548577
0.000388701
0.00547162
0.000384974
0.00545803
0.000380722
0.00544499
0.000376006
0.00543251
0.000370887
0.00542061
0.000365418
0.00540927
0.000359648
0.00539849
0.000353624
0.00538826
0.000347385
0.00537857
0.000340969
0.00536941
0.000334409
0.00536076
0.000327736
0.00535262
0.000320977
0.00534495
0.000314157
0.00533775
0.000307301
0.005331
0.000300428
0.00532467
0.00029356
0.000286713
0.00561853
0.000410514
0.00559997
0.000413028
0.00558176
0.000414478
0.00556395
0.000414909
0.00554658
0.000414376
0.00552969
0.000412943
0.00551332
0.00041068
0.00549749
0.000407659
0.00548224
0.000403953
0.00546758
0.000399638
0.00545352
0.000394783
0.00544006
0.000389457
0.00542723
0.000383723
0.005415
0.000377641
0.00540339
0.000371264
0.00539237
0.000364639
0.00538195
0.000357811
0.0053721
0.000350819
0.00536281
0.000343698
0.00535406
0.00033648
0.00534585
0.000329195
0.00533813
0.000321868
0.00533091
0.000314524
0.00532416
0.000307184
0.00531785
0.000299868
0.000292593
0.00562091
0.000430478
0.0056013
0.000432637
0.0055821
0.000433674
0.00556337
0.000433641
0.00554515
0.000432597
0.00552748
0.000430613
0.00551039
0.000427764
0.00549392
0.00042413
0.00547809
0.000419791
0.0054629
0.000414825
0.00544837
0.00040931
0.00543451
0.000403318
0.00542131
0.000396919
0.00540878
0.000390175
0.0053969
0.000383143
0.00538566
0.000375876
0.00537506
0.000368419
0.00536506
0.000360814
0.00535566
0.000353098
0.00534684
0.000345305
0.00533857
0.000337465