/*--------------------------------*- C++ -*----------------------------------*\
| =========                 |                                                 |
| \\      /  F ield         | OpenFOAM: The Open Source CFD Toolbox           |
|  \\    /   O peration     | Version:  2412                                  |
|   \\  /    A nd           | Website:  www.openfoam.com                      |
|    \\/     M anipulation  |                                                 |
\*---------------------------------------------------------------------------*/
FoamFile
{
    version     2.0;
    format      ascii;
    arch        "LSB;label=32;scalar=64";
    class       volScalarField;
    location    "10.5";
    object      p;
}
// * * * * * * * * * * * * * * * * * * * * * * * * * * * * * * * * * * * * * //

dimensions      [0 2 -2 0 0 0 0];

internalField   nonuniform List<scalar> 
5285
(
-1.15794e-05
-1.09081e-05
-1.02687e-05
-9.6594e-06
-9.07904e-06
-8.52653e-06
-8.00076e-06
-7.50065e-06
-7.02514e-06
-6.57325e-06
-6.14401e-06
-5.73648e-06
-5.34979e-06
-4.98307e-06
-4.6355e-06
-4.30628e-06
-3.99466e-06
-3.69989e-06
-3.42127e-06
-3.15812e-06
-2.90978e-06
-2.67562e-06
-2.45503e-06
-2.24742e-06
-2.05222e-06
-1.86888e-06
-1.69686e-06
-1.53565e-06
-1.38474e-06
-1.24364e-06
-1.11187e-06
-9.88989e-07
-8.74542e-07
-7.68092e-07
-6.69231e-07
-5.7754e-07
-4.92633e-07
-4.14117e-07
-3.41625e-07
-2.74794e-07
-2.13268e-07
-1.56726e-07
-1.04805e-07
-5.726e-08
-1.36121e-08
2.60315e-08
6.29432e-08
9.50745e-08
1.28111e-07
1.50117e-07
1.88093e-07
1.85583e-07
2.59272e-07
1.78737e-07
3.84765e-07
6.86675e-08
6.56042e-07
-2.55166e-07
1.19665e-06
-8.80937e-07
2.00741e-06
-1.62121e-06
2.64385e-06
-1.71682e-06
2.13509e-06
-2.02981e-07
-1.17678e-08
2.51652e-06
-2.11471e-06
3.76179e-06
-9.59547e-07
-1.20165e-05
-1.13254e-05
-1.06669e-05
-1.00391e-05
-9.44075e-06
-8.87083e-06
-8.32819e-06
-7.81174e-06
-7.32042e-06
-6.85323e-06
-6.40919e-06
-5.98738e-06
-5.58689e-06
-5.20686e-06
-4.84647e-06
-4.50492e-06
-4.18143e-06
-3.87528e-06
-3.58574e-06
-3.31213e-06
-3.0538e-06
-2.81009e-06
-2.5804e-06
-2.36412e-06
-2.16069e-06
-1.96953e-06
-1.79011e-06
-1.62189e-06
-1.46436e-06
-1.31703e-06
-1.1794e-06
-1.051e-06
-9.3139e-07
-8.20106e-07
-7.16729e-07
-6.20827e-07
-5.32003e-07
-4.49847e-07
-3.73983e-07
-3.04028e-07
-2.39622e-07
-1.80417e-07
-1.26054e-07
-7.6254e-08
-3.05498e-08
1.09871e-08
4.96348e-08
8.33117e-08
1.17885e-07
1.40995e-07
1.80621e-07
1.78329e-07
2.54709e-07
1.72034e-07
3.84237e-07
6.01892e-08
6.6187e-07
-2.68427e-07
1.21087e-06
-8.99394e-07
2.02659e-06
-1.63703e-06
2.65574e-06
-1.71659e-06
2.12993e-06
-1.87295e-07
-2.12752e-08
2.52571e-06
-2.11089e-06
3.75844e-06
-9.56702e-07
-1.24452e-05
-1.1735e-05
-1.10579e-05
-1.04121e-05
-9.7963e-06
-9.20944e-06
-8.65037e-06
-8.11799e-06
-7.61123e-06
-7.12908e-06
-6.67057e-06
-6.23476e-06
-5.82074e-06
-5.42767e-06
-5.05469e-06
-4.70102e-06
-4.36587e-06
-4.04852e-06
-3.74823e-06
-3.46433e-06
-3.19614e-06
-2.94302e-06
-2.70435e-06
-2.47952e-06
-2.26796e-06
-2.06908e-06
-1.88235e-06
-1.70721e-06
-1.54315e-06
-1.38965e-06
-1.24622e-06
-1.11238e-06
-9.87659e-07
-8.71594e-07
-7.6375e-07
-6.63684e-07
-5.70982e-07
-4.85226e-07
-4.06023e-07
-3.32978e-07
-2.65718e-07
-2.03881e-07
-1.47095e-07
-9.50699e-08
-4.73197e-08
-3.92095e-09
3.64601e-08
7.16545e-08
1.0776e-07
1.31958e-07
1.73222e-07
1.71135e-07
2.50197e-07
1.65373e-07
3.8374e-07
5.1704e-08
6.67781e-07
-2.81816e-07
1.2253e-06
-9.18294e-07
2.04648e-06
-1.65403e-06
2.66905e-06
-1.71813e-06
2.12611e-06
-1.72326e-07
-3.20899e-08
2.53786e-06
-2.11304e-06
3.76134e-06
-9.65991e-07
-1.28653e-05
-1.21365e-05
-1.14415e-05
-1.07783e-05
-1.01456e-05
-9.54224e-06
-8.96719e-06
-8.41928e-06
-7.89746e-06
-7.40071e-06
-6.92805e-06
-6.47854e-06
-6.05128e-06
-5.64541e-06
-5.26008e-06
-4.89451e-06
-4.54791e-06
-4.21954e-06
-3.90868e-06
-3.61464e-06
-3.33674e-06
-3.07435e-06
-2.82684e-06
-2.59358e-06
-2.374e-06
-2.16751e-06
-1.97355e-06
-1.79158e-06
-1.62107e-06
-1.46148e-06
-1.31232e-06
-1.1731e-06
-1.04333e-06
-9.22537e-07
-8.10276e-07
-7.06091e-07
-6.09555e-07
-5.20237e-07
-4.37732e-07
-3.6163e-07
-2.91547e-07
-2.27105e-07
-1.67922e-07
-1.13696e-07
-6.39199e-08
-1.86791e-08
2.34178e-08
6.01143e-08
9.77339e-08
1.23011e-07
1.65891e-07
1.6402e-07
2.4571e-07
1.58807e-07
3.83188e-07
4.33873e-08
6.73489e-07
-2.94893e-07
1.23934e-06
-9.36771e-07
2.06593e-06
-1.67081e-06
2.68229e-06
-1.72001e-06
2.12255e-06
-1.57567e-07
-4.39204e-08
2.55187e-06
-2.11948e-06
3.76889e-06
-9.85769e-07
-1.32765e-05
-1.25299e-05
-1.18176e-05
-1.11376e-05
-1.04884e-05
-9.86911e-06
-9.27852e-06
-8.71551e-06
-8.17901e-06
-7.66801e-06
-7.18153e-06
-6.71864e-06
-6.27842e-06
-5.86001e-06
-5.46258e-06
-5.08532e-06
-4.72747e-06
-4.38828e-06
-4.06702e-06
-3.76301e-06
-3.47557e-06
-3.20405e-06
-2.94781e-06
-2.70625e-06
-2.47876e-06
-2.26476e-06
-2.06368e-06
-1.87497e-06
-1.69808e-06
-1.53249e-06
-1.37768e-06
-1.23313e-06
-1.09837e-06
-9.72912e-07
-8.56287e-07
-7.48031e-07
-6.47706e-07
-5.54867e-07
-4.69097e-07
-3.89973e-07
-3.17098e-07
-2.50081e-07
-1.88527e-07
-1.32123e-07
-8.03435e-08
-3.32808e-08
1.0513e-08
4.86959e-08
8.78116e-08
1.14161e-07
1.5863e-07
1.56988e-07
2.41246e-07
1.52345e-07
3.82569e-07
3.52606e-08
6.78961e-07
-3.07605e-07
1.25291e-06
-9.54709e-07
2.0848e-06
-1.68716e-06
2.69524e-06
-1.72199e-06
2.11904e-06
-1.42912e-07
-5.67115e-08
2.56753e-06
-2.12981e-06
3.78067e-06
-1.01514e-06
-1.36789e-05
-1.29151e-05
-1.21861e-05
-1.14898e-05
-1.08247e-05
-1.01899e-05
-9.58428e-06
-9.00658e-06
-8.4558e-06
-7.93091e-06
-7.43095e-06
-6.95497e-06
-6.50207e-06
-6.07139e-06
-5.6621e-06
-5.27339e-06
-4.9045e-06
-4.55468e-06
-4.22321e-06
-3.9094e-06
-3.61256e-06
-3.33205e-06
-3.06724e-06
-2.81749e-06
-2.58221e-06
-2.36081e-06
-2.15271e-06
-1.95735e-06
-1.77417e-06
-1.60265e-06
-1.44225e-06
-1.29246e-06
-1.15277e-06
-1.0227e-06
-9.01764e-07
-7.89488e-07
-6.85419e-07
-5.89102e-07
-5.00105e-07
-4.17994e-07
-3.4236e-07
-2.72798e-07
-2.089e-07
-1.50344e-07
-9.65839e-08
-4.77197e-08
-2.24909e-09
3.74041e-08
7.79971e-08
1.05409e-07
1.51443e-07
1.50041e-07
2.3681e-07
1.45984e-07
3.81897e-07
2.73101e-08
6.84224e-07
-3.19988e-07
1.26606e-06
-9.72183e-07
2.10316e-06
-1.7032e-06
2.70798e-06
-1.72414e-06
2.11562e-06
-1.28373e-07
-7.04487e-08
2.58482e-06
-2.14392e-06
3.79655e-06
-1.05338e-06
-1.40721e-05
-1.32919e-05
-1.25468e-05
-1.18348e-05
-1.11544e-05
-1.05046e-05
-9.88435e-06
-9.2924e-06
-8.72773e-06
-8.18932e-06
-7.67621e-06
-7.18746e-06
-6.72217e-06
-6.27949e-06
-5.85858e-06
-5.45865e-06
-5.07894e-06
-4.71869e-06
-4.37719e-06
-4.05374e-06
-3.74767e-06
-3.45832e-06
-3.18506e-06
-2.92726e-06
-2.6843e-06
-2.45561e-06
-2.24059e-06
-2.03867e-06
-1.8493e-06
-1.67193e-06
-1.50602e-06
-1.35105e-06
-1.20651e-06
-1.07188e-06
-9.4669e-07
-8.30444e-07
-7.22679e-07
-6.22926e-07
-5.30744e-07
-4.45683e-07
-3.67323e-07
-2.95247e-07
-2.29033e-07
-1.6835e-07
-1.12634e-07
-6.19899e-08
-1.48629e-08
2.62436e-08
6.82948e-08
9.67598e-08
1.44333e-07
1.43181e-07
2.32406e-07
1.39723e-07
3.81175e-07
1.95306e-08
6.89288e-07
-3.32058e-07
1.27881e-06
-9.8922e-07
2.12106e-06
-1.71895e-06
2.72054e-06
-1.72648e-06
2.11231e-06
-1.13948e-07
-8.50902e-08
2.60364e-06
-2.1616e-06
3.81632e-06
-1.09964e-06
-1.44561e-05
-1.36601e-05
-1.28996e-05
-1.21725e-05
-1.14773e-05
-1.08131e-05
-1.01787e-05
-9.57288e-06
-8.99472e-06
-8.44316e-06
-7.91724e-06
-7.41603e-06
-6.93865e-06
-6.48423e-06
-6.05196e-06
-5.64105e-06
-5.25072e-06
-4.88024e-06
-4.5289e-06
-4.19599e-06
-3.88085e-06
-3.58281e-06
-3.30124e-06
-3.03551e-06
-2.78501e-06
-2.54913e-06
-2.3273e-06
-2.11892e-06
-1.92345e-06
-1.74031e-06
-1.56897e-06
-1.40889e-06
-1.25955e-06
-1.12044e-06
-9.91047e-07
-8.70883e-07
-7.5947e-07
-6.56327e-07
-5.61e-07
-4.73027e-07
-3.91977e-07
-3.17418e-07
-2.48918e-07
-1.86135e-07
-1.28487e-07
-7.60853e-08
-2.73233e-08
1.52191e-08
5.87088e-08
8.82166e-08
1.37304e-07
1.36411e-07
2.28037e-07
1.33565e-07
3.80408e-07
1.19218e-08
6.9416e-07
-3.43818e-07
1.29118e-06
-1.00582e-06
2.1385e-06
-1.7344e-06
2.7329e-06
-1.72896e-06
2.10906e-06
-9.96219e-08
-1.0058e-07
2.6239e-06
-2.18258e-06
3.83968e-06
-1.15302e-06
-1.48309e-05
-1.40198e-05
-1.32445e-05
-1.25029e-05
-1.17934e-05
-1.11152e-05
-1.04671e-05
-9.84794e-06
-9.25669e-06
-8.69234e-06
-8.15396e-06
-7.64061e-06
-7.15143e-06
-6.68555e-06
-6.24217e-06
-5.82051e-06
-5.41979e-06
-5.03929e-06
-4.67829e-06
-4.3361e-06
-4.01205e-06
-3.70548e-06
-3.41574e-06
-3.14221e-06
-2.88428e-06
-2.64134e-06
-2.41279e-06
-2.19806e-06
-1.99657e-06
-1.80776e-06
-1.63106e-06
-1.46595e-06
-1.31189e-06
-1.16835e-06
-1.03482e-06
-9.10789e-07
-7.95778e-07
-6.89292e-07
-5.90862e-07
-5.00016e-07
-4.16311e-07
-3.39303e-07
-2.68546e-07
-2.03691e-07
-1.44137e-07
-9.00002e-08
-3.96247e-08
4.33518e-09
4.92433e-08
7.97831e-08
1.30359e-07
1.29733e-07
2.23706e-07
1.2751e-07
3.79598e-07
4.48323e-09
6.98843e-07
-3.5527e-07
1.30317e-06
-1.02199e-06
2.15546e-06
-1.74953e-06
2.74504e-06
-1.73155e-06
2.10585e-06
-8.53842e-08
-1.16859e-07
2.64545e-06
-2.20661e-06
3.86635e-06
-1.21261e-06
-1.51962e-05
-1.43707e-05
-1.35813e-05
-1.28258e-05
-1.21026e-05
-1.1411e-05
-1.07496e-05
-1.01175e-05
-9.51356e-06
-8.93681e-06
-8.38631e-06
-7.86114e-06
-7.36045e-06
-6.88339e-06
-6.42916e-06
-5.99698e-06
-5.58609e-06
-5.19577e-06
-4.82531e-06
-4.47402e-06
-4.14122e-06
-3.82627e-06
-3.52851e-06
-3.24733e-06
-2.98209e-06
-2.7322e-06
-2.49705e-06
-2.27606e-06
-2.06865e-06
-1.87424e-06
-1.69228e-06
-1.52221e-06
-1.36349e-06
-1.21559e-06
-1.07798e-06
-9.50146e-07
-8.31588e-07
-7.21805e-07
-6.20317e-07
-5.26638e-07
-4.40315e-07
-3.60891e-07
-2.8791e-07
-2.21011e-07
-1.59577e-07
-1.03729e-07
-5.17622e-08
-6.40345e-09
3.99024e-08
7.14628e-08
1.235e-07
1.23151e-07
2.19415e-07
1.2156e-07
3.78749e-07
-2.786e-09
7.03342e-07
-3.66417e-07
1.31477e-06
-1.03773e-06
2.17197e-06
-1.76434e-06
2.75693e-06
-1.73423e-06
2.10266e-06
-7.12282e-08
-1.33866e-07
2.66819e-06
-2.23341e-06
3.89604e-06
-1.27755e-06
-1.55521e-05
-1.47129e-05
-1.391e-05
-1.31411e-05
-1.24049e-05
-1.17003e-05
-1.10262e-05
-1.03815e-05
-9.76528e-06
-9.17649e-06
-8.61422e-06
-8.07756e-06
-7.56566e-06
-7.07769e-06
-6.61286e-06
-6.17041e-06
-5.74958e-06
-5.34964e-06
-4.96991e-06
-4.6097e-06
-4.26833e-06
-3.94515e-06
-3.63952e-06
-3.35081e-06
-3.0784e-06
-2.82168e-06
-2.58004e-06
-2.3529e-06
-2.13966e-06
-1.93975e-06
-1.7526e-06
-1.57765e-06
-1.41435e-06
-1.26215e-06
-1.12052e-06
-9.88937e-07
-8.66886e-07
-7.53855e-07
-6.49353e-07
-5.52883e-07
-4.6398e-07
-3.82175e-07
-3.07e-07
-2.38086e-07
-1.748e-07
-1.17265e-07
-6.37304e-08
-1.69922e-08
3.06904e-08
6.32593e-08
1.16732e-07
1.16666e-07
2.15167e-07
1.15715e-07
3.77863e-07
-9.887e-09
7.07663e-07
-3.77264e-07
1.32601e-06
-1.05305e-06
2.18801e-06
-1.77882e-06
2.76858e-06
-1.73696e-06
2.09947e-06
-5.71514e-08
-1.51536e-07
2.69199e-06
-2.2627e-06
3.92846e-06
-1.34698e-06
-1.58984e-05
-1.50462e-05
-1.42305e-05
-1.34489e-05
-1.27e-05
-1.1983e-05
-1.12966e-05
-1.06399e-05
-1.00118e-05
-9.41132e-06
-8.83762e-06
-8.28979e-06
-7.76698e-06
-7.26839e-06
-6.79322e-06
-6.34073e-06
-5.91018e-06
-5.50085e-06
-5.11205e-06
-4.74309e-06
-4.39332e-06
-4.06207e-06
-3.74872e-06
-3.45262e-06
-3.17317e-06
-2.90974e-06
-2.66172e-06
-2.42853e-06
-2.20957e-06
-2.00425e-06
-1.812e-06
-1.63224e-06
-1.46443e-06
-1.308e-06
-1.16242e-06
-1.02715e-06
-9.01657e-07
-7.85427e-07
-6.77959e-07
-5.78739e-07
-4.87296e-07
-4.03146e-07
-3.2581e-07
-2.54912e-07
-1.898e-07
-1.30604e-07
-7.55243e-08
-2.74266e-08
2.16112e-08
5.51761e-08
1.10058e-07
1.1028e-07
2.10966e-07
1.09977e-07
3.76945e-07
-1.68209e-08
7.1181e-07
-3.87815e-07
1.33688e-06
-1.06794e-06
2.20359e-06
-1.79296e-06
2.77995e-06
-1.73973e-06
2.09626e-06
-4.3154e-08
-1.69803e-07
2.71673e-06
-2.29424e-06
3.96331e-06
-1.42014e-06
-1.62351e-05
-1.53706e-05
-1.45427e-05
-1.3749e-05
-1.29881e-05
-1.22591e-05
-1.1561e-05
-1.08926e-05
-1.0253e-05
-9.64124e-06
-9.05646e-06
-8.49778e-06
-7.96437e-06
-7.45543e-06
-6.97019e-06
-6.50791e-06
-6.06786e-06
-5.64935e-06
-5.25167e-06
-4.87416e-06
-4.51615e-06
-4.177e-06
-3.85607e-06
-3.55274e-06
-3.26636e-06
-2.99635e-06
-2.74207e-06
-2.50294e-06
-2.27835e-06
-2.06771e-06
-1.87044e-06
-1.68597e-06
-1.51373e-06
-1.35314e-06
-1.20367e-06
-1.06476e-06
-9.35887e-07
-8.1651e-07
-7.06122e-07
-6.04197e-07
-5.10253e-07
-4.23794e-07
-3.44331e-07
-2.71479e-07
-2.04571e-07
-1.43739e-07
-8.71387e-08
-3.7702e-08
1.26689e-08
4.72166e-08
1.03481e-07
1.03996e-07
2.06813e-07
1.04347e-07
3.75997e-07
-2.35889e-08
7.15788e-07
-3.98074e-07
1.3474e-06
-1.08241e-06
2.21871e-06
-1.80676e-06
2.79106e-06
-1.7425e-06
2.09303e-06
-2.92388e-08
-1.886e-07
2.74229e-06
-2.32775e-06
4.00031e-06
-1.49631e-06
-1.65621e-05
-1.56861e-05
-1.48467e-05
-1.40414e-05
-1.3269e-05
-1.25286e-05
-1.18191e-05
-1.11395e-05
-1.04888e-05
-9.86619e-06
-9.27069e-06
-8.70148e-06
-8.15776e-06
-7.63875e-06
-7.14371e-06
-6.67188e-06
-6.22257e-06
-5.79508e-06
-5.38872e-06
-5.00284e-06
-4.63678e-06
-4.28989e-06
-3.96154e-06
-3.65111e-06
-3.35795e-06
-3.08147e-06
-2.82105e-06
-2.57609e-06
-2.34597e-06
-2.13011e-06
-1.92792e-06
-1.73881e-06
-1.56221e-06
-1.39754e-06
-1.24424e-06
-1.10176e-06
-9.69562e-07
-8.4709e-07
-7.33832e-07
-6.29244e-07
-5.32841e-07
-4.44111e-07
-3.62556e-07
-2.87782e-07
-2.19106e-07
-1.56666e-07
-9.85687e-08
-4.78139e-08
3.86757e-09
3.93841e-08
9.70038e-08
9.78164e-08
2.02713e-07
9.88256e-08
3.75022e-07
-3.01922e-08
7.19604e-07
-4.08044e-07
1.35756e-06
-1.09647e-06
2.23338e-06
-1.82021e-06
2.80187e-06
-1.74527e-06
2.08976e-06
-1.54107e-08
-2.07859e-07
2.76856e-06
-2.36298e-06
4.03918e-06
-1.5748e-06
-1.68795e-05
-1.59925e-05
-1.51422e-05
-1.4326e-05
-1.35427e-05
-1.27914e-05
-1.2071e-05
-1.13807e-05
-1.07193e-05
-1.00861e-05
-9.48024e-06
-8.90083e-06
-8.34711e-06
-7.81832e-06
-7.31372e-06
-6.8326e-06
-6.37426e-06
-5.938e-06
-5.52317e-06
-5.12912e-06
-4.75517e-06
-4.40071e-06
-4.06509e-06
-3.7477e-06
-3.4479e-06
-3.16509e-06
-2.89864e-06
-2.64796e-06
-2.41242e-06
-2.19144e-06
-1.98441e-06
-1.79074e-06
-1.60986e-06
-1.44118e-06
-1.28412e-06
-1.13814e-06
-1.00267e-06
-8.77155e-07
-7.61075e-07
-6.53872e-07
-5.55051e-07
-4.64089e-07
-3.80478e-07
-3.03814e-07
-2.334e-07
-1.69378e-07
-1.09809e-07
-5.77581e-08
-4.78892e-09
3.1682e-08
9.06296e-08
9.1743e-08
1.98667e-07
9.34136e-08
3.74025e-07
-3.6632e-08
7.23261e-07
-4.1773e-07
1.36739e-06
-1.11012e-06
2.24759e-06
-1.83332e-06
2.81238e-06
-1.74801e-06
2.08644e-06
-1.67649e-09
-2.27512e-07
2.79541e-06
-2.39969e-06
4.07965e-06
-1.65503e-06
-1.71872e-05
-1.629e-05
-1.54295e-05
-1.46029e-05
-1.38092e-05
-1.30474e-05
-1.23167e-05
-1.1616e-05
-1.09444e-05
-1.0301e-05
-9.68508e-06
-9.0958e-06
-8.53238e-06
-7.99408e-06
-7.4802e-06
-6.99002e-06
-6.52287e-06
-6.07808e-06
-5.65498e-06
-5.25293e-06
-4.87128e-06
-4.50941e-06
-4.16669e-06
-3.84249e-06
-3.53618e-06
-3.24716e-06
-2.97481e-06
-2.71852e-06
-2.47766e-06
-2.25165e-06
-2.03988e-06
-1.84175e-06
-1.65667e-06
-1.48404e-06
-1.3233e-06
-1.17387e-06
-1.03519e-06
-9.06692e-07
-7.87843e-07
-6.78069e-07
-5.76873e-07
-4.83719e-07
-3.98088e-07
-3.19567e-07
-2.47447e-07
-1.81871e-07
-1.20856e-07
-6.75301e-08
-1.32967e-08
2.41136e-08
8.43615e-08
8.57779e-08
1.94678e-07
8.81119e-08
3.73008e-07
-4.29098e-08
7.26766e-07
-4.27135e-07
1.37687e-06
-1.12336e-06
2.26136e-06
-1.84606e-06
2.82259e-06
-1.7507e-06
2.08308e-06
1.19554e-08
-2.47492e-07
2.82275e-06
-2.43763e-06
4.12147e-06
-1.73644e-06
-1.74852e-05
-1.65785e-05
-1.57083e-05
-1.4872e-05
-1.40684e-05
-1.32967e-05
-1.2556e-05
-1.18454e-05
-1.11639e-05
-1.05108e-05
-9.88516e-06
-9.28632e-06
-8.7135e-06
-8.16599e-06
-7.64308e-06
-7.1441e-06
-6.66838e-06
-6.21526e-06
-5.78409e-06
-5.37424e-06
-4.98508e-06
-4.61596e-06
-4.26629e-06
-3.93543e-06
-3.62275e-06
-3.32766e-06
-3.04953e-06
-2.78774e-06
-2.54168e-06
-2.31074e-06
-2.09431e-06
-1.8918e-06
-1.70261e-06
-1.52611e-06
-1.36176e-06
-1.20895e-06
-1.06712e-06
-9.3569e-07
-8.14122e-07
-7.01827e-07
-5.983e-07
-5.02993e-07
-4.15379e-07
-3.35036e-07
-2.6124e-07
-1.94138e-07
-1.31703e-07
-7.71258e-08
-2.1652e-08
1.66819e-08
7.82025e-08
7.99232e-08
1.90749e-07
8.29213e-08
3.71975e-07
-4.90269e-08
7.30124e-07
-4.36265e-07
1.38603e-06
-1.1362e-06
2.27468e-06
-1.85844e-06
2.83249e-06
-1.75334e-06
2.07966e-06
2.54753e-08
-2.67731e-07
2.85045e-06
-2.47658e-06
4.16437e-06
-1.81854e-06
-1.77735e-05
-1.6858e-05
-1.59787e-05
-1.51332e-05
-1.43203e-05
-1.35392e-05
-1.2789e-05
-1.20689e-05
-1.1378e-05
-1.07154e-05
-1.00804e-05
-9.47236e-06
-8.89045e-06
-8.334e-06
-7.80233e-06
-7.29479e-06
-6.81073e-06
-6.3495e-06
-5.91047e-06
-5.49302e-06
-5.09651e-06
-4.72033e-06
-4.36386e-06
-4.02649e-06
-3.70759e-06
-3.40655e-06
-3.12276e-06
-2.8556e-06
-2.60444e-06
-2.36868e-06
-2.14769e-06
-1.94089e-06
-1.74766e-06
-1.56738e-06
-1.39948e-06
-1.24335e-06
-1.09844e-06
-9.64136e-07
-8.39903e-07
-7.25134e-07
-6.19321e-07
-5.21904e-07
-4.32345e-07
-3.50213e-07
-2.74774e-07
-2.06176e-07
-1.42347e-07
-8.65408e-08
-2.98511e-08
9.39007e-09
7.21555e-08
7.41808e-08
1.86882e-07
7.78427e-08
3.70929e-07
-5.49845e-08
7.33339e-07
-4.45122e-07
1.39486e-06
-1.14864e-06
2.28756e-06
-1.87046e-06
2.84207e-06
-1.75591e-06
2.07618e-06
3.88723e-08
-2.88164e-07
2.87842e-06
-2.51633e-06
4.20811e-06
-1.90087e-06
-1.80522e-05
-1.71284e-05
-1.62408e-05
-1.53867e-05
-1.45649e-05
-1.37749e-05
-1.30157e-05
-1.22865e-05
-1.15865e-05
-1.09148e-05
-1.02709e-05
-9.65388e-06
-9.06317e-06
-8.49806e-06
-7.9579e-06
-7.44205e-06
-6.94989e-06
-6.48077e-06
-6.03408e-06
-5.60922e-06
-5.20555e-06
-4.82247e-06
-4.45937e-06
-4.11564e-06
-3.79066e-06
-3.48381e-06
-3.19449e-06
-2.92206e-06
-2.66592e-06
-2.42544e-06
-2.19999e-06
-1.98899e-06
-1.79181e-06
-1.60782e-06
-1.43644e-06
-1.27707e-06
-1.12914e-06
-9.92019e-07
-8.65175e-07
-7.47981e-07
-6.39928e-07
-5.40443e-07
-4.48978e-07
-3.65093e-07
-2.88042e-07
-2.17979e-07
-1.52783e-07
-9.57713e-08
-3.789e-08
2.24171e-09
6.6224e-08
6.85521e-08
1.83081e-07
7.28764e-08
3.69876e-07
-6.07856e-08
7.36417e-07
-4.53711e-07
1.40338e-06
-1.16068e-06
2.3e-06
-1.88211e-06
2.85132e-06
-1.75839e-06
2.07265e-06
5.21336e-08
-3.08725e-07
2.90655e-06
-2.55665e-06
4.25247e-06
-1.98303e-06
-1.83213e-05
-1.73899e-05
-1.64945e-05
-1.56323e-05
-1.48022e-05
-1.40037e-05
-1.3236e-05
-1.24981e-05
-1.17894e-05
-1.11091e-05
-1.04564e-05
-9.83085e-06
-9.23164e-06
-8.65815e-06
-8.10976e-06
-7.58585e-06
-7.08581e-06
-6.60902e-06
-6.15488e-06
-5.7228e-06
-5.31216e-06
-4.92236e-06
-4.55278e-06
-4.20285e-06
-3.87193e-06
-3.55941e-06
-3.26468e-06
-2.98712e-06
-2.7261e-06
-2.481e-06
-2.25119e-06
-2.03608e-06
-1.83504e-06
-1.64742e-06
-1.47264e-06
-1.31009e-06
-1.1592e-06
-1.01933e-06
-8.89927e-07
-7.70359e-07
-6.60112e-07
-5.58603e-07
-4.6527e-07
-3.79668e-07
-3.0104e-07
-2.29541e-07
-1.63005e-07
-1.04813e-07
-4.5765e-08
-4.75958e-09
6.04112e-08
6.30389e-08
1.79349e-07
6.80227e-08
3.68817e-07
-6.64319e-08
7.39361e-07
-4.62036e-07
1.41158e-06
-1.17234e-06
2.31201e-06
-1.89339e-06
2.86024e-06
-1.76077e-06
2.06906e-06
6.5249e-08
-3.29349e-07
2.93475e-06
-2.59735e-06
4.29722e-06
-2.06467e-06
2.86882e-06
-1.76305e-06
2.06541e-06
7.82049e-08
-3.49975e-07
2.96291e-06
-2.63823e-06
4.34215e-06
-2.14543e-06
2.5434e-05
2.42052e-05
2.30145e-05
2.18619e-05
2.07475e-05
1.96709e-05
1.8632e-05
1.76306e-05
1.66665e-05
1.57392e-05
1.48483e-05
1.39934e-05
1.31739e-05
1.23895e-05
1.16393e-05
1.09228e-05
1.02394e-05
9.58832e-06
8.9688e-06
8.38009e-06
7.8214e-06
7.2919e-06
6.79076e-06
6.31711e-06
5.87008e-06
5.44878e-06
5.0523e-06
4.67975e-06
4.3302e-06
4.00275e-06
3.69647e-06
3.41046e-06
3.1438e-06
2.89559e-06
2.66493e-06
2.45095e-06
2.25276e-06
2.06951e-06
1.90036e-06
1.74448e-06
1.60105e-06
1.46929e-06
1.34843e-06
1.23769e-06
1.13636e-06
1.0437e-06
9.59011e-07
8.81604e-07
8.1081e-07
7.45949e-07
6.86359e-07
6.31383e-07
5.80303e-07
5.32562e-07
4.86918e-07
4.44284e-07
3.98171e-07
3.65094e-07
2.92472e-07
3.19286e-07
9.11849e-08
4.05357e-07
-3.36959e-07
5.39344e-07
-4.15096e-07
-7.84274e-07
1.42554e-06
-2.77448e-06
-1.19564e-06
5.13182e-07
2.53414e-05
2.41173e-05
2.29311e-05
2.17828e-05
2.06726e-05
1.96001e-05
1.85651e-05
1.75676e-05
1.6607e-05
1.56832e-05
1.47957e-05
1.3944e-05
1.31277e-05
1.23462e-05
1.15988e-05
1.0885e-05
1.02041e-05
9.55546e-06
8.93823e-06
8.35169e-06
7.79505e-06
7.26749e-06
6.76817e-06
6.29624e-06
5.85082e-06
5.43103e-06
5.03597e-06
4.66475e-06
4.31644e-06
3.99015e-06
3.68495e-06
3.39994e-06
3.13421e-06
2.88686e-06
2.65701e-06
2.44377e-06
2.24626e-06
2.06365e-06
1.89508e-06
1.73973e-06
1.59679e-06
1.46548e-06
1.34503e-06
1.23467e-06
1.13368e-06
1.04133e-06
9.56936e-07
8.79793e-07
8.0924e-07
7.446e-07
6.85214e-07
6.30429e-07
5.79525e-07
5.31961e-07
4.86455e-07
4.4407e-07
3.97868e-07
3.65693e-07
2.91369e-07
3.23021e-07
8.50006e-08
4.19974e-07
-3.56973e-07
5.71411e-07
-4.3646e-07
-7.75669e-07
1.45677e-06
-2.83124e-06
-1.06968e-06
5.20311e-07
2.5162e-05
2.39468e-05
2.27692e-05
2.16295e-05
2.05274e-05
1.94628e-05
1.84355e-05
1.74452e-05
1.64918e-05
1.55748e-05
1.46938e-05
1.38484e-05
1.3038e-05
1.22622e-05
1.15203e-05
1.08117e-05
1.01358e-05
9.49175e-06
8.87896e-06
8.29662e-06
7.74395e-06
7.22014e-06
6.72436e-06
6.25575e-06
5.81346e-06
5.39661e-06
5.0043e-06
4.63565e-06
4.28975e-06
3.9657e-06
3.6626e-06
3.37953e-06
3.11561e-06
2.86994e-06
2.64164e-06
2.42984e-06
2.23366e-06
2.05227e-06
1.88482e-06
1.73051e-06
1.58853e-06
1.45809e-06
1.33843e-06
1.22881e-06
1.12849e-06
1.03675e-06
9.52909e-07
8.76276e-07
8.0619e-07
7.4198e-07
6.82991e-07
6.28575e-07
5.78014e-07
5.30791e-07
4.85569e-07
4.43609e-07
3.97424e-07
3.66425e-07
2.90416e-07
3.27215e-07
8.01673e-08
4.32736e-07
-3.68253e-07
5.89675e-07
-4.40721e-07
-7.57683e-07
1.44917e-06
-2.77399e-06
-9.48156e-07
4.65119e-07
2.49014e-05
2.36992e-05
2.25343e-05
2.14068e-05
2.03166e-05
1.92634e-05
1.82472e-05
1.72677e-05
1.63245e-05
1.54174e-05
1.45459e-05
1.37095e-05
1.29079e-05
1.21403e-05
1.14063e-05
1.07053e-05
1.00365e-05
9.39928e-06
8.79294e-06
8.2167e-06
7.6698e-06
7.15143e-06
6.66077e-06
6.197e-06
5.75924e-06
5.34665e-06
4.95833e-06
4.59342e-06
4.25101e-06
3.93022e-06
3.63015e-06
3.34991e-06
3.08861e-06
2.84538e-06
2.61933e-06
2.40961e-06
2.21536e-06
2.03575e-06
1.86994e-06
1.71713e-06
1.57653e-06
1.44736e-06
1.32886e-06
1.22029e-06
1.12094e-06
1.03009e-06
9.4706e-07
8.71167e-07
8.0176e-07
7.38174e-07
6.7976e-07
6.25882e-07
5.75818e-07
5.29089e-07
4.84283e-07
4.42929e-07
3.96811e-07
3.67388e-07
2.89304e-07
3.32617e-07
7.46253e-08
4.48514e-07
-3.80664e-07
6.12615e-07
-4.43839e-07
-7.32465e-07
1.44103e-06
-2.70919e-06
-8.04588e-07
3.95325e-07
2.45653e-05
2.33799e-05
2.22313e-05
2.11197e-05
2.00448e-05
1.90065e-05
1.80045e-05
1.70388e-05
1.61089e-05
1.52145e-05
1.43552e-05
1.35306e-05
1.27401e-05
1.19833e-05
1.12595e-05
1.05681e-05
9.90856e-06
9.28011e-06
8.68206e-06
8.11369e-06
7.57421e-06
7.06286e-06
6.57881e-06
6.12126e-06
5.68935e-06
5.28225e-06
4.89908e-06
4.53898e-06
4.20107e-06
3.88447e-06
3.58831e-06
3.31171e-06
3.0538e-06
2.8137e-06
2.59057e-06
2.38353e-06
2.19177e-06
2.01444e-06
1.85074e-06
1.69987e-06
1.56105e-06
1.43351e-06
1.31651e-06
1.20931e-06
1.11121e-06
1.0215e-06
9.39516e-07
8.64579e-07
7.96047e-07
7.33265e-07
6.75594e-07
6.22408e-07
5.72986e-07
5.26893e-07
4.82623e-07
4.4205e-07
3.96017e-07
3.68609e-07
2.87921e-07
3.39402e-07
6.78037e-08
4.68347e-07
-3.96536e-07
6.43473e-07
-4.50993e-07
-6.98675e-07
1.4393e-06
-2.65357e-06
-6.3114e-07
3.20098e-07
2.41594e-05
2.29943e-05
2.18654e-05
2.07729e-05
1.97166e-05
1.86962e-05
1.77115e-05
1.67624e-05
1.58486e-05
1.49696e-05
1.41251e-05
1.33146e-05
1.25376e-05
1.17937e-05
1.10822e-05
1.04025e-05
9.75412e-06
9.13624e-06
8.54822e-06
7.98933e-06
7.45883e-06
6.95593e-06
6.47987e-06
6.02982e-06
5.60498e-06
5.2045e-06
4.82753e-06
4.47324e-06
4.14076e-06
3.82924e-06
3.5378e-06
3.2656e-06
3.01177e-06
2.77546e-06
2.55583e-06
2.35205e-06
2.16328e-06
1.98872e-06
1.82756e-06
1.67903e-06
1.54236e-06
1.41679e-06
1.30159e-06
1.19605e-06
1.09946e-06
1.01113e-06
9.30406e-07
8.56622e-07
7.89147e-07
7.27337e-07
6.70562e-07
6.18211e-07
5.69563e-07
5.24241e-07
4.8061e-07
4.40992e-07
3.95038e-07
3.7009e-07
2.8623e-07
3.47521e-07
5.97265e-08
4.9184e-07
-4.15352e-07
6.80751e-07
-4.61262e-07
-6.57757e-07
1.44183e-06
-2.60457e-06
-4.32037e-07
2.33913e-07
2.3689e-05
2.25475e-05
2.14416e-05
2.03713e-05
1.93364e-05
1.83368e-05
1.73722e-05
1.64424e-05
1.55471e-05
1.4686e-05
1.38585e-05
1.30644e-05
1.23031e-05
1.15741e-05
1.08769e-05
1.02108e-05
9.57531e-06
8.96968e-06
8.39326e-06
7.84535e-06
7.32523e-06
6.83213e-06
6.3653e-06
5.92395e-06
5.50727e-06
5.11446e-06
4.74469e-06
4.39712e-06
4.07093e-06
3.76527e-06
3.4793e-06
3.21219e-06
2.96309e-06
2.73117e-06
2.5156e-06
2.31557e-06
2.13028e-06
1.95892e-06
1.80071e-06
1.65489e-06
1.52071e-06
1.39742e-06
1.28432e-06
1.18068e-06
1.08584e-06
9.9911e-07
9.1985e-07
8.47403e-07
7.81152e-07
7.20467e-07
6.6473e-07
6.13347e-07
5.65593e-07
5.21167e-07
4.78267e-07
4.39773e-07
3.93863e-07
3.71847e-07
2.84168e-07
3.56967e-07
5.03275e-08
5.18761e-07
-4.36869e-07
7.23421e-07
-4.73731e-07
-6.11876e-07
1.44852e-06
-2.56178e-06
-2.13352e-07
1.34102e-07
2.31596e-05
2.20447e-05
2.09646e-05
1.99194e-05
1.89087e-05
1.79325e-05
1.69905e-05
1.60824e-05
1.52081e-05
1.4367e-05
1.35588e-05
1.27831e-05
1.20394e-05
1.13273e-05
1.06461e-05
9.99525e-06
9.37422e-06
8.78236e-06
8.21898e-06
7.68343e-06
7.17497e-06
6.6929e-06
6.23645e-06
5.80487e-06
5.39738e-06
5.01319e-06
4.6515e-06
4.31149e-06
3.99237e-06
3.69331e-06
3.41349e-06
3.1521e-06
2.90831e-06
2.68133e-06
2.47033e-06
2.27453e-06
2.09314e-06
1.92539e-06
1.7705e-06
1.62773e-06
1.49634e-06
1.37563e-06
1.26487e-06
1.16339e-06
1.07052e-06
9.85585e-07
9.0797e-07
8.37026e-07
7.72153e-07
7.12734e-07
6.58163e-07
6.07871e-07
5.6112e-07
5.17706e-07
4.75612e-07
4.38416e-07
3.92473e-07
3.73903e-07
2.81649e-07
3.67779e-07
3.94618e-08
5.49041e-07
-4.61126e-07
7.70972e-07
-4.88157e-07
-5.62487e-07
1.45991e-06
-2.52687e-06
2.06852e-08
2.11086e-08
2.25763e-05
2.14909e-05
2.04393e-05
1.94217e-05
1.84377e-05
1.74873e-05
1.65702e-05
1.56861e-05
1.48348e-05
1.40158e-05
1.32289e-05
1.24735e-05
1.17492e-05
1.10555e-05
1.0392e-05
9.75795e-06
9.15289e-06
8.57617e-06
8.02716e-06
7.50519e-06
7.00958e-06
6.53962e-06
6.0946e-06
5.67378e-06
5.27639e-06
4.90169e-06
4.54889e-06
4.21721e-06
3.90587e-06
3.61407e-06
3.34102e-06
3.08593e-06
2.848e-06
2.62644e-06
2.42048e-06
2.22933e-06
2.05224e-06
1.88845e-06
1.73721e-06
1.5978e-06
1.4695e-06
1.35161e-06
1.24345e-06
1.14434e-06
1.05364e-06
9.70685e-07
8.9488e-07
8.25593e-07
7.62237e-07
7.04212e-07
6.50925e-07
6.01834e-07
5.56184e-07
5.13893e-07
4.72662e-07
4.36943e-07
3.90847e-07
3.7629e-07
2.7858e-07
3.80015e-07
2.69586e-08
5.82647e-07
-4.88199e-07
8.22958e-07
-5.04389e-07
-5.10713e-07
1.47613e-06
-2.50112e-06
2.6695e-07
-1.04054e-07
2.19443e-05
2.08908e-05
1.98702e-05
1.88825e-05
1.79276e-05
1.70052e-05
1.61151e-05
1.5257e-05
1.44306e-05
1.36356e-05
1.28716e-05
1.21382e-05
1.1435e-05
1.07613e-05
1.01169e-05
9.50105e-06
8.91327e-06
8.35295e-06
7.81947e-06
7.31221e-06
6.8305e-06
6.37367e-06
5.94101e-06
5.53182e-06
5.14538e-06
4.78095e-06
4.43777e-06
4.11511e-06
3.81219e-06
3.52825e-06
3.26253e-06
3.01425e-06
2.78266e-06
2.56698e-06
2.36647e-06
2.18036e-06
2.00793e-06
1.84843e-06
1.70115e-06
1.56538e-06
1.44042e-06
1.3256e-06
1.22024e-06
1.1237e-06
1.03534e-06
9.54536e-07
8.80694e-07
8.13201e-07
7.51488e-07
6.94974e-07
6.43077e-07
5.95287e-07
5.50824e-07
5.0976e-07
4.69432e-07
4.35379e-07
3.88958e-07
3.79049e-07
2.74853e-07
3.93751e-07
1.26327e-08
6.19563e-07
-5.18156e-07
8.7893e-07
-5.2222e-07
-4.57617e-07
1.49711e-06
-2.48507e-06
5.22626e-07
-2.40421e-07
2.12684e-05
2.02491e-05
1.92617e-05
1.83062e-05
1.73823e-05
1.64899e-05
1.56287e-05
1.47984e-05
1.39987e-05
1.32294e-05
1.24899e-05
1.178e-05
1.10992e-05
1.0447e-05
9.82299e-06
9.22657e-06
8.65725e-06
8.11444e-06
7.59756e-06
7.10601e-06
6.63915e-06
6.19632e-06
5.77688e-06
5.38012e-06
5.00536e-06
4.6519e-06
4.31901e-06
4.00597e-06
3.71204e-06
3.4365e-06
3.17861e-06
2.93762e-06
2.7128e-06
2.50341e-06
2.30871e-06
2.128e-06
1.96054e-06
1.80564e-06
1.66258e-06
1.5307e-06
1.40932e-06
1.29777e-06
1.19541e-06
1.10162e-06
1.01577e-06
9.37263e-07
8.65519e-07
7.99944e-07
7.39989e-07
6.85089e-07
6.34677e-07
5.88281e-07
5.45079e-07
5.0534e-07
4.65935e-07
4.33753e-07
3.86776e-07
3.82231e-07
2.70351e-07
4.09078e-07
-3.70827e-09
6.59787e-07
-5.51056e-07
9.38445e-07
-5.4141e-07
-4.04186e-07
1.5228e-06
-2.47891e-06
7.85064e-07
-3.86938e-07
2.05532e-05
1.95703e-05
1.86181e-05
1.76966e-05
1.68057e-05
1.59451e-05
1.51144e-05
1.43136e-05
1.35422e-05
1.27999e-05
1.20865e-05
1.14014e-05
1.07443e-05
1.01148e-05
9.51234e-06
8.93646e-06
8.38664e-06
7.86234e-06
7.363e-06
6.88804e-06
6.43687e-06
6.00885e-06
5.60335e-06
5.21973e-06
4.85732e-06
4.51545e-06
4.19342e-06
3.89055e-06
3.60614e-06
3.33948e-06
3.08986e-06
2.85657e-06
2.6389e-06
2.43616e-06
2.24762e-06
2.0726e-06
1.91041e-06
1.76036e-06
1.62178e-06
1.49401e-06
1.3764e-06
1.26832e-06
1.16914e-06
1.07825e-06
9.95064e-07
9.18982e-07
8.49458e-07
7.85912e-07
7.27815e-07
6.74625e-07
6.25782e-07
5.80862e-07
5.38984e-07
5.00668e-07
4.62182e-07
4.32093e-07
3.84263e-07
3.85891e-07
2.64951e-07
4.26097e-07
-2.22552e-08
7.03314e-07
-5.86929e-07
1.00107e-06
-5.61693e-07
-3.51308e-07
1.55312e-06
-2.48254e-06
1.0518e-06
-5.42384e-07
1.98033e-05
1.88586e-05
1.79434e-05
1.70578e-05
1.62014e-05
1.53741e-05
1.45756e-05
1.38056e-05
1.30639e-05
1.23501e-05
1.16638e-05
1.10048e-05
1.03726e-05
9.76681e-06
9.18694e-06
8.63256e-06
8.10317e-06
7.59825e-06
7.11728e-06
6.6597e-06
6.22494e-06
5.81242e-06
5.42154e-06
5.05167e-06
4.70219e-06
4.37246e-06
4.06181e-06
3.76959e-06
3.49514e-06
3.23777e-06
2.99682e-06
2.7716e-06
2.56144e-06
2.36565e-06
2.18357e-06
2.01452e-06
1.85784e-06
1.71288e-06
1.57899e-06
1.45554e-06
1.34189e-06
1.23744e-06
1.14159e-06
1.05374e-06
9.73343e-07
8.99807e-07
8.32609e-07
7.71192e-07
7.15043e-07
6.63644e-07
6.16444e-07
5.73076e-07
5.32574e-07
4.95773e-07
4.5818e-07
4.30434e-07
3.8138e-07
3.90096e-07
2.58522e-07
4.44917e-07
-4.31885e-08
7.50128e-07
-6.25765e-07
1.06634e-06
-5.82765e-07
-2.99772e-07
1.58793e-06
-2.4956e-06
1.32052e-06
-7.05371e-07
1.9023e-05
1.81182e-05
1.72416e-05
1.63933e-05
1.5573e-05
1.47804e-05
1.40153e-05
1.32775e-05
1.25666e-05