/*--------------------------------*- C++ -*----------------------------------*\
| =========                 |                                                 |
| \\      /  F ield         | OpenFOAM: The Open Source CFD Toolbox           |
|  \\    /   O peration     | Version:  2412                                  |
|   \\  /    A nd           | Website:  www.openfoam.com                      |
|    \\/     M anipulation  |                                                 |
\*---------------------------------------------------------------------------*/
FoamFile
{
    version     2.0;
    format      ascii;
    arch        "LSB;label=32;scalar=64";
    class       volVectorField;
    location    "30";
    object      UA;
}
// * * * * * * * * * * * * * * * * * * * * * * * * * * * * * * * * * * * * * //

dimensions      [0 1 -1 0 0 0 0];

internalField   nonuniform List<vector> 
5285
(
(0.0947316 0.000126792 0)
(0.0944807 0.000136245 0)
(0.0942114 0.000146646 0)
(0.0939219 0.000158116 0)
(0.0936101 0.000170795 0)
(0.0932737 0.000184845 0)
(0.0929101 0.000200456 0)
(0.0925161 0.00021785 0)
(0.0920884 0.000237286 0)
(0.091623 0.000259072 0)
(0.0911152 0.000283572 0)
(0.0905599 0.00031122 0)
(0.0899508 0.000342535 0)
(0.0892808 0.000378144 0)
(0.0885416 0.000418802 0)
(0.0877232 0.000465435 0)
(0.086814 0.000519176 0)
(0.0857999 0.000581426 0)
(0.0846642 0.000653928 0)
(0.0833868 0.000738877 0)
(0.0819428 0.000839047 0)
(0.0803023 0.000957994 0)
(0.0784278 0.00110031 0)
(0.0762726 0.00127201 0)
(0.0737778 0.00148105 0)
(0.0708683 0.00173812 0)
(0.0674468 0.0020578 0)
(0.063386 0.00246028 0)
(0.0585162 0.00297412 0)
(0.0526079 0.00364052 0)
(0.0453438 0.00452036 0)
(0.0362762 0.00570609 0)
(0.0247563 0.00734258 0)
(0.00981626 0.00966528 0)
(0.0947399 0.000380019 0)
(0.0944894 0.000408367 0)
(0.0942207 0.00043956 0)
(0.0939318 0.000473961 0)
(0.0936208 0.00051199 0)
(0.0932853 0.000554136 0)
(0.0929227 0.000600967 0)
(0.0925299 0.000653148 0)
(0.0921036 0.000711462 0)
(0.0916398 0.000776829 0)
(0.0911341 0.000850344 0)
(0.0905812 0.000933309 0)
(0.089975 0.00102728 0)
(0.0893086 0.00113414 0)
(0.0885738 0.00125616 0)
(0.0877607 0.0013961 0)
(0.0868581 0.00155737 0)
(0.0858523 0.00174416 0)
(0.084727 0.00196171 0)
(0.0834626 0.00221656 0)
(0.0820354 0.00251702 0)
(0.0804164 0.00287371 0)
(0.0785698 0.00330035 0)
(0.0764512 0.00381483 0)
(0.0740051 0.00444084 0)
(0.0711608 0.00521011 0)
(0.0678283 0.0061658 0)
(0.0638903 0.00736752 0)
(0.0591934 0.00889923 0)
(0.0535327 0.0108814 0)
(0.0466313 0.0134911 0)
(0.0381081 0.0169947 0)
(0.0274292 0.0218059 0)
(0.0138323 0.0285869 0)
(0.0947563 0.000632176 0)
(0.0945068 0.000679386 0)
(0.0942392 0.00073134 0)
(0.0939516 0.000788645 0)
(0.0936421 0.000852003 0)
(0.0933083 0.00092223 0)
(0.0929477 0.00100027 0)
(0.0925573 0.00108725 0)
(0.0921338 0.00118445 0)
(0.0916734 0.00129343 0)
(0.0911717 0.00141601 0)
(0.0906236 0.00155435 0)
(0.0900232 0.00171106 0)
(0.0893639 0.00188927 0)
(0.0886377 0.00209277 0)
(0.0878354 0.00232617 0)
(0.086946 0.00259512 0)
(0.0859567 0.0029066 0)
(0.0848521 0.00326929 0)
(0.083614 0.00369407 0)
(0.0822203 0.0041947 0)
(0.0806444 0.00478871 0)
(0.0788538 0.00549871 0)
(0.0768088 0.00635415 0)
(0.0744602 0.00739381 0)
(0.0717469 0.00866944 0)
(0.0685926 0.010251 0)
(0.0649007 0.0122347 0)
(0.060549 0.0147547 0)
(0.0553816 0.0180014 0)
(0.0491994 0.0222511 0)
(0.0417492 0.0279128 0)
(0.0327129 0.0356065 0)
(0.0217065 0.0462962 0)
(0.0947807 0.000882554 0)
(0.0945327 0.000948569 0)
(0.0942667 0.00102123 0)
(0.093981 0.0011014 0)
(0.0936736 0.00119005 0)
(0.0933424 0.00128834 0)
(0.0929848 0.00139758 0)
(0.092598 0.00151936 0)
(0.0921786 0.00165548 0)
(0.0917232 0.00180812 0)
(0.0912274 0.00197984 0)
(0.0906865 0.00217367 0)
(0.0900949 0.00239327 0)
(0.0894462 0.00264302 0)
(0.088733 0.00292821 0)
(0.0879466 0.00325531 0)
(0.0870771 0.00363221 0)
(0.0861125 0.00406865 0)
(0.0850391 0.00457671 0)
(0.0838405 0.00517152 0)
(0.0824973 0.00587212 0)
(0.0809864 0.00670278 0)
(0.0792803 0.00769461 0)
(0.0773461 0.00888798 0)
(0.0751447 0.0103357 0)
(0.0726289 0.0121079 0)
(0.0697428 0.0142985 0)
(0.0664206 0.017035 0)
(0.0625858 0.0204931 0)
(0.0581532 0.0249183 0)
(0.0530344 0.0306582 0)
(0.0471535 0.0382131 0)
(0.0404836 0.0483125 0)
(0.0331275 0.0620324 0)
(0.0948129 0.00113045 0)
(0.0945667 0.00121519 0)
(0.0943029 0.00130849 0)
(0.0940197 0.00141146 0)
(0.0937152 0.00152536 0)
(0.0933873 0.00165167 0)
(0.0930336 0.00179211 0)
(0.0926514 0.00194869 0)
(0.0922376 0.00212378 0)
(0.0917887 0.00232016 0)
(0.0913008 0.00254114 0)
(0.0907694 0.00279063 0)
(0.0901892 0.00307334 0)
(0.0895545 0.0033949 0)
(0.0888585 0.00376213 0)
(0.0880934 0.00418333 0)
(0.0872503 0.00466861 0)
(0.0863188 0.00523044 0)
(0.0852871 0.00588424 0)
(0.0841413 0.00664926 0)
(0.0828657 0.00754969 0)
(0.081442 0.00861616 0)
(0.0798495 0.00988776 0)
(0.0780644 0.0114149 0)
(0.0760607 0.0132629 0)
(0.0738101 0.0155178 0)
(0.0712838 0.0182931 0)
(0.0684556 0.0217409 0)
(0.0653081 0.0260661 0)
(0.0618453 0.0315477 0)
(0.0581147 0.0385672 0)
(0.0542511 0.0476484 0)
(0.0505551 0.0595072 0)
(0.0476399 0.075105 0)
(0.0948526 0.00137517 0)
(0.0946087 0.00147853 0)
(0.0943474 0.00159238 0)
(0.0940672 0.00171807 0)
(0.0937663 0.00185715 0)
(0.0934425 0.00201145 0)
(0.0930936 0.00218307 0)
(0.092717 0.00237449 0)
(0.0923099 0.0025886 0)
(0.0918691 0.00282884 0)
(0.0913908 0.00309924 0)
(0.090871 0.00340463 0)
(0.0903051 0.00375076 0)
(0.0896878 0.00414454 0)
(0.0890131 0.0045943 0)
(0.0882745 0.00511015 0)
(0.0874643 0.00570445 0)
(0.0865742 0.00639232 0)
(0.0855947 0.00719247 0)
(0.0845154 0.00812813 0)
(0.083325 0.00922834 0)
(0.0820113 0.0105297 0)
(0.0805621 0.0120786 0)
(0.0789654 0.0139341 0)
(0.0772116 0.0161724 0)
(0.0752958 0.0188918 0)
(0.0732225 0.0222201 0)
(0.0710137 0.0263244 0)
(0.0687223 0.0314231 0)
(0.0664551 0.0378014 0)
(0.0644112 0.0458284 0)
(0.0629463 0.0559713 0)
(0.0626787 0.0687955 0)
(0.0646578 0.0849199 0)
(0.0948994 0.00161603 0)
(0.0946581 0.00173789 0)
(0.0943999 0.00187217 0)
(0.0941232 0.00202048 0)
(0.0938262 0.00218468 0)
(0.0935072 0.00236691 0)
(0.0931639 0.0025697 0)
(0.0927939 0.00279599 0)
(0.0923947 0.00304922 0)
(0.0919633 0.00333347 0)
(0.0914964 0.00365353 0)
(0.0909904 0.00401514 0)
(0.0904412 0.00442512 0)
(0.0898445 0.00489166 0)
(0.0891953 0.00542461 0)
(0.0884882 0.00603593 0)
(0.0877175 0.00674014 0)
(0.086877 0.00755503 0)
(0.0859604 0.00850246 0)
(0.0849614 0.00960948 0)
(0.0838741 0.0109097 0)
(0.082694 0.0124451 0)
(0.081419 0.0142684 0)
(0.0800517 0.0164461 0)
(0.078602 0.0190623 0)
(0.077093 0.0222235 0)
(0.0755684 0.0260649 0)
(0.0741059 0.0307565 0)
(0.072837 0.0365108 0)
(0.0719792 0.0435866 0)
(0.0718852 0.0522866 0)
(0.0731157 0.0629348 0)
(0.0765437 0.0758117 0)
(0.0834833 0.0910031 0)
(0.00981626 -0.00966528 0)
(0.0247563 -0.00734258 0)
(0.0362762 -0.00570609 0)
(0.0453438 -0.00452036 0)
(0.0526079 -0.00364052 0)
(0.0585162 -0.00297412 0)
(0.063386 -0.00246028 0)
(0.0674468 -0.0020578 0)
(0.0708683 -0.00173812 0)
(0.0737778 -0.00148105 0)
(0.0762726 -0.00127201 0)
(0.0784278 -0.00110031 0)
(0.0803023 -0.000957994 0)
(0.0819428 -0.000839047 0)
(0.0833868 -0.000738877 0)
(0.0846642 -0.000653928 0)
(0.0857999 -0.000581426 0)
(0.086814 -0.000519176 0)
(0.0877232 -0.000465435 0)
(0.0885416 -0.000418802 0)
(0.0892808 -0.000378144 0)
(0.0899508 -0.000342535 0)
(0.0138323 -0.0285869 0)
(0.0274292 -0.0218059 0)
(0.0381081 -0.0169947 0)
(0.0466313 -0.0134911 0)
(0.0535327 -0.0108814 0)
(0.0591934 -0.00889923 0)
(0.0638903 -0.00736752 0)
(0.0678283 -0.0061658 0)
(0.0711608 -0.00521011 0)
(0.0740051 -0.00444084 0)
(0.0764512 -0.00381483 0)
(0.0785698 -0.00330035 0)
(0.0804164 -0.00287371 0)
(0.0820354 -0.00251702 0)
(0.0834626 -0.00221656 0)
(0.084727 -0.00196171 0)
(0.0858523 -0.00174416 0)
(0.0868581 -0.00155737 0)
(0.0877607 -0.0013961 0)
(0.0885738 -0.00125616 0)
(0.0893086 -0.00113414 0)
(0.089975 -0.00102728 0)
(0.0217065 -0.0462962 0)
(0.0327129 -0.0356065 0)
(0.0417492 -0.0279128 0)
(0.0491994 -0.0222511 0)
(0.0553816 -0.0180014 0)
(0.060549 -0.0147547 0)
(0.0649007 -0.0122347 0)
(0.0685926 -0.010251 0)
(0.0717469 -0.00866944 0)
(0.0744602 -0.00739381 0)
(0.0768088 -0.00635415 0)
(0.0788538 -0.00549871 0)
(0.0806444 -0.00478871 0)
(0.0822203 -0.0041947 0)
(0.083614 -0.00369407 0)
(0.0848521 -0.00326929 0)
(0.0859567 -0.0029066 0)
(0.086946 -0.00259512 0)
(0.0878354 -0.00232617 0)
(0.0886377 -0.00209277 0)
(0.0893639 -0.00188927 0)
(0.0900232 -0.00171106 0)
(0.0331275 -0.0620324 0)
(0.0404836 -0.0483125 0)
(0.0471535 -0.0382131 0)
(0.0530344 -0.0306582 0)
(0.0581532 -0.0249183 0)
(0.0625858 -0.0204931 0)
(0.0664206 -0.017035 0)
(0.0697428 -0.0142985 0)
(0.0726289 -0.0121079 0)
(0.0751447 -0.0103357 0)
(0.0773461 -0.00888798 0)
(0.0792803 -0.00769461 0)
(0.0809864 -0.00670278 0)
(0.0824973 -0.00587212 0)
(0.0838405 -0.00517152 0)
(0.0850391 -0.00457671 0)
(0.0861125 -0.00406865 0)
(0.0870771 -0.00363221 0)
(0.0879466 -0.00325531 0)
(0.088733 -0.00292821 0)
(0.0894462 -0.00264302 0)
(0.0900949 -0.00239327 0)
(0.0476399 -0.075105 0)
(0.0505551 -0.0595072 0)
(0.0542511 -0.0476484 0)
(0.0581147 -0.0385672 0)
(0.0618453 -0.0315477 0)
(0.0653081 -0.0260661 0)
(0.0684556 -0.0217409 0)
(0.0712838 -0.0182931 0)
(0.0738101 -0.0155178 0)
(0.0760607 -0.0132629 0)
(0.0780644 -0.0114149 0)
(0.0798495 -0.00988776 0)
(0.081442 -0.00861616 0)
(0.0828657 -0.00754969 0)
(0.0841413 -0.00664926 0)
(0.0852871 -0.00588424 0)
(0.0863188 -0.00523044 0)
(0.0872503 -0.00466861 0)
(0.0880934 -0.00418333 0)
(0.0888585 -0.00376213 0)
(0.0895545 -0.0033949 0)
(0.0901892 -0.00307334 0)
(0.0907694 -0.00279063 0)
(0.0646578 -0.0849199 0)
(0.0626787 -0.0687955 0)
(0.0629463 -0.0559713 0)
(0.0644112 -0.0458284 0)
(0.0664551 -0.0378014 0)
(0.0687223 -0.0314231 0)
(0.0710137 -0.0263244 0)
(0.0732225 -0.0222201 0)
(0.0752958 -0.0188918 0)
(0.0772116 -0.0161724 0)
(0.0789654 -0.0139341 0)
(0.0805621 -0.0120786 0)
(0.0820113 -0.0105297 0)
(0.083325 -0.00922834 0)
(0.0845154 -0.00812813 0)
(0.0855947 -0.00719247 0)
(0.0865742 -0.00639232 0)
(0.0874643 -0.00570445 0)
(0.0882745 -0.00511015 0)
(0.0890131 -0.0045943 0)
(0.0896878 -0.00414454 0)
(0.0903051 -0.00375076 0)
(0.090871 -0.00340463 0)
(0.0834833 -0.0910031 0)
(0.0765437 -0.0758117 0)
(0.0731157 -0.0629348 0)
(0.0718852 -0.0522866 0)
(0.0719792 -0.0435866 0)
(0.072837 -0.0365108 0)
(0.0741059 -0.0307565 0)
(0.0755684 -0.0260649 0)
(0.077093 -0.0222235 0)
(0.078602 -0.0190623 0)
(0.0800517 -0.0164461 0)
(0.081419 -0.0142684 0)
(0.082694 -0.0124451 0)
(0.0838741 -0.0109097 0)
(0.0849614 -0.00960948 0)
(0.0859604 -0.00850246 0)
(0.086877 -0.00755503 0)
(0.0877175 -0.00674014 0)
(0.0884882 -0.00603593 0)
(0.0891953 -0.00542461 0)
(0.0898445 -0.00489166 0)
(0.0904412 -0.00442512 0)
(0.0909904 -0.00401514 0)
(0.1 -0.086285 0)
(0.0902627 -0.0744631 0)
(0.0842211 -0.0635695 0)
(0.0807606 -0.0540022 0)
(0.0790377 -0.0458238 0)
(0.0784502 -0.0389366 0)
(0.0785832 -0.0331806 0)
(0.0791571 -0.0283843 0)
(0.0799867 -0.0243878 0)
(0.0809508 -0.0210515 0)
(0.0819713 -0.018258 0)
(0.0829991 -0.0159099 0)
(0.0840036 -0.0139279 0)
(0.0849671 -0.0122475 0)
(0.0858797 -0.0108163 0)
(0.086737 -0.00959176 0)
(0.0875379 -0.00853936 0)
(0.0882834 -0.00763093 0)
(0.0889755 -0.00684345 0)
(0.0896174 -0.00615801 0)
(0.0902121 -0.00555905 0)
(0.090763 -0.00503366 0)
(0.0912734 -0.00457115 0)
(0.0917466 -0.00416256 0)
(0.109737 -0.0744631 0)
(0.1 -0.0664774 0)
(0.093243 -0.0584546 0)
(0.0887683 -0.0509403 0)
(0.0859696 -0.0441834 0)
(0.0843647 -0.038255 0)
(0.0835902 -0.0331299 0)
(0.0833807 -0.0287369 0)
(0.0835465 -0.0249881 0)
(0.0839541 -0.0217945 0)
(0.0845109 -0.0190735 0)
(0.0851529 -0.0167518 0)
(0.0858367 -0.0147665 0)
(0.0865331 -0.013064 0)
(0.0872228 -0.0115994 0)
(0.0878935 -0.0103353 0)
(0.0885377 -0.00924038 0)
(0.0891511 -0.00828872 0)
(0.0897315 -0.00745865 0)
(0.0902784 -0.00673215 0)
(0.0907922 -0.00609413 0)
(0.0912739 -0.00553197 0)
(0.0917249 -0.00503507 0)
(0.115779 -0.0635695 0)
(0.106757 -0.0584546 0)
(0.1 -0.0527828 0)
(0.0951219 -0.0470925 0)
(0.0917276 -0.0416992 0)
(0.0894653 -0.0367631 0)
(0.0880448 -0.0323446 0)
(0.0872382 -0.0284453 0)
(0.086871 -0.0250344 0)
(0.0868132 -0.0220666 0)
(0.0869686 -0.0194913 0)
(0.0872674 -0.0172591 0)
(0.0876589 -0.0153236 0)
(0.0881069 -0.0136437 0)
(0.0885856 -0.0121831 0)
(0.0890771 -0.0109105 0)
(0.0895687 -0.00979889 0)
(0.090052 -0.0088255 0)
(0.0905212 -0.00797079 0)
(0.0909727 -0.0072182 0)
(0.0914045 -0.00655368 0)
(0.0918156 -0.0059653 0)
(0.0922054 -0.00544291 0)
(0.119239 -0.0540022 0)
(0.111232 -0.0509403 0)
(0.104878 -0.0470925 0)
(0.1 -0.042922 0)
(0.0963645 -0.0387416 0)
(0.0937344 -0.034744 0)
(0.0918948 -0.0310353 0)
(0.0906634 -0.0276628 0)
(0.089892 -0.024637 0)
(0.0894632 -0.0219462 0)
(0.0892862 -0.0195669 0)
(0.0892914 -0.0174703 0)
(0.0894262 -0.0156261 0)
(0.0896511 -0.014005 0)
(0.0899367 -0.0125796 0)
(0.0902612 -0.0113252 0)
(0.0906086 -0.0102198 0)
(0.0909673 -0.0092441 0)
(0.0913287 -0.00838121 0)
(0.0916869 -0.00761653 0)
(0.0920378 -0.0069374 0)
(0.0923784 -0.0063329 0)
(0.092707 -0.00579362 0)
(0.120962 -0.0458238 0)
(0.11403 -0.0441834 0)
(0.108272 -0.0416992 0)
(0.103636 -0.0387416 0)
(0.1 -0.0355869 0)
(0.0972186 -0.0324265 0)
(0.0951423 -0.0293836 0)
(0.0936339 -0.0265303 0)
(0.0925746 -0.0239028 0)
(0.0918651 -0.0215135 0)
(0.0914244 -0.0193596 0)
(0.091188 -0.0174292 0)
(0.0911051 -0.0157058 0)
(0.091136 -0.0141709 0)
(0.0912498 -0.0128055 0)
(0.0914231 -0.0115914 0)
(0.0916378 -0.0105115 0)
(0.0918801 -0.00955024 0)
(0.0921397 -0.00869377 0)
(0.0924087 -0.00792959 0)
(0.0926814 -0.00724672 0)
(0.0929535 -0.0066355 0)
(0.0932219 -0.00608743 0)
(0.12155 -0.0389366 0)
(0.115635 -0.038255 0)
(0.110535 -0.0367631 0)
(0.106266 -0.034744 0)
(0.102781 -0.0324265 0)
(0.1 -0.0299832 0)
(0.0978249 -0.0275365 0)
(0.0961587 -0.0251679 0)
(0.0949107 -0.0229279 0)
(0.0940007 -0.020844 0)
(0.0933605 -0.0189279 0)
(0.092933 -0.0171808 0)
(0.0926717 -0.0155971 0)
(0.0925389 -0.0141675 0)
(0.0925045 -0.0128804 0)
(0.0925444 -0.0117236 0)
(0.0926399 -0.0106847 0)
(0.0927762 -0.00975191 0)
(0.0929416 -0.00891426 0)
(0.0931271 -0.00816156 0)
(0.0933259 -0.0074846 0)
(0.0935325 -0.00687511 0)
(0.0937428 -0.00632566 0)
(0.121417 -0.0331806 0)
(0.11641 -0.0331299 0)
(0.111955 -0.0323446 0)
(0.108105 -0.0310353 0)
(0.104858 -0.0293836 0)
(0.102175 -0.0275365 0)
(0.1 -0.0256059 0)
(0.0982672 -0.0236733 0)
(0.0969106 -0.0217943 0)
(0.0958686 -0.0200049 0)
(0.0950856 -0.0183262 0)
(0.0945134 -0.0167683 0)
(0.0941111 -0.0153341 0)
(0.0938446 -0.0140215 0)
(0.0936855 -0.0128251 0)
(0.0936108 -0.0117379 0)
(0.0936018 -0.0107519 0)
(0.0936435 -0.00985863 0)
(0.0937236 -0.00904995 0)
(0.0938326 -0.00831794 0)
(0.0939627 -0.00765517 0)
(0.0941078 -0.0070548 0)
(0.0942632 -0.00651055 0)
(0.120843 -0.0283843 0)
(0.116619 -0.0287369 0)
(0.112762 -0.0284453 0)
(0.109337 -0.0276628 0)
(0.106366 -0.0265303 0)
(0.103841 -0.0251679 0)
(0.101733 -0.0236733 0)
(0.1 -0.0221217 0)
(0.0985972 -0.0205687 0)
(0.0974787 -0.0190535 0)
(0.096601 -0.0176024 0)
(0.095925 -0.0162313 0)
(0.0954158 -0.014949 0)
(0.0950436 -0.0137588 0)
(0.0947828 -0.0126605 0)
(0.0946121 -0.0116511 0)
(0.0945136 -0.0107263 0)
(0.0944727 -0.00988084 0)
(0.0944771 -0.00910907 0)
(0.0945171 -0.00840517 0)
(0.0945846 -0.00776345 0)
(0.0946731 -0.00717848 0)
(0.0947773 -0.00664511 0)
(0.120013 -0.0243878 0)
(0.116454 -0.0249881 0)
(0.113129 -0.0250344 0)
(0.110108 -0.024637 0)
(0.107425 -0.0239028 0)
(0.105089 -0.0229279 0)
(0.103089 -0.0217943 0)
(0.101403 -0.0205687 0)
(0.1 -0.019303 0)
(0.0988485 -0.0180365 0)
(0.0979157 -0.0167972 0)
(0.0971705 -0.0156046 0)
(0.0965844 -0.0144711 0)
(0.0961319 -0.013404 0)
(0.0957907 -0.0124066 0)
(0.0955417 -0.0114795 0)
(0.0953683 -0.0106213 0)
(0.0952568 -0.00982937 0)
(0.0951954 -0.00910033 0)
(0.0951744 -0.00843025 0)
(0.0951858 -0.00781504 0)
(0.0952228 -0.0072506 0)
(0.09528 -0.00673289 0)
(0.119049 -0.0210515 0)
(0.116046 -0.0217945 0)
(0.113187 -0.0220666 0)
(0.110537 -0.0219462 0)
(0.108135 -0.0215135 0)
(0.105999 -0.020844 0)
(0.104131 -0.0200049 0)
(0.102521 -0.0190535 0)
(0.101151 -0.0180365 0)
(0.1 -0.0169907 0)
(0.0990432 -0.0159443 0)
(0.0982574 -0.014918 0)
(0.0976198 -0.0139263 0)
(0.0971093 -0.012979 0)
(0.096707 -0.0120821 0)
(0.096396 -0.0112387 0)
(0.0961616 -0.0104498 0)
(0.0959911 -0.00971498 0)
(0.0958735 -0.00903259 0)
(0.0957996 -0.00840045 0)
(0.0957615 -0.00781589 0)
(0.0957526 -0.00727601 0)
(0.0957673 -0.00677781 0)
(0.118029 -0.018258 0)
(0.115489 -0.0190735 0)
(0.113031 -0.0194913 0)
(0.110714 -0.0195669 0)
(0.108576 -0.0193596 0)
(0.106639 -0.0189279 0)
(0.104914 -0.0183262 0)
(0.103399 -0.0176024 0)
(0.102084 -0.0167972 0)
(0.100957 -0.0159443 0)
(0.1 -0.0150703 0)
(0.0991964 -0.0141958 0)
(0.0985284 -0.0133364 0)
(0.0979789 -0.0125032 0)
(0.0975323 -0.0117038 0)
(0.0971741 -0.0109432 0)
(0.0968914 -0.0102242 0)
(0.0966727 -0.00954799 0)
(0.0965083 -0.00891455 0)
(0.0963893 -0.00832304 0)
(0.0963083 -0.00777204 0)
(0.0962589 -0.00725973 0)
(0.0962357 -0.00678405 0)
(0.117001 -0.0159099 0)
(0.114847 -0.0167518 0)
(0.112733 -0.0172591 0)
(0.110709 -0.0174703 0)
(0.108812 -0.0174292 0)
(0.107067 -0.0171808 0)
(0.105487 -0.0167683 0)
(0.104075 -0.0162313 0)
(0.10283 -0.0156046 0)
(0.101743 -0.014918 0)
(0.100804 -0.0141958 0)
(0.1 -0.013458 0)
(0.0993186 -0.0127198 0)
(0.098746 -0.011993 0)
(0.0982694 -0.0112864 0)
(0.0978769 -0.0106059 0)
(0.0975572 -0.00995563 0)
(0.0973005 -0.00933808 0)
(0.0970977 -0.00875446 0)
(0.096941 -0.00820506 0)
(0.0968235 -0.00768947 0)
(0.0967392 -0.00720681 0)
(0.0966827 -0.00675583 0)
(0.115996 -0.0139279 0)
(0.114163 -0.0147665 0)
(0.112341 -0.0153236 0)
(0.110574 -0.0156261 0)
(0.108895 -0.0157058 0)
(0.107328 -0.0155971 0)
(0.105889 -0.0153341 0)
(0.104584 -0.014949 0)
(0.103416 -0.0144711 0)
(0.10238 -0.0139263 0)
(0.101472 -0.0133364 0)
(0.100681 -0.0127198 0)
(0.1 -0.0120912 0)
(0.0994172 -0.0114624 0)
(0.0989228 -0.0108424 0)
(0.0985069 -0.010238 0)
(0.0981603 -0.00965412 0)
(0.0978744 -0.00909409 0)
(0.0976412 -0.00856004 0)
(0.0974538 -0.00805318 0)
(0.0973058 -0.00757393 0)
(0.0971916 -0.00712217 0)
(0.0971064 -0.00669737 0)
(0.115033 -0.0122475 0)
(0.113467 -0.013064 0)
(0.111893 -0.0136437 0)
(0.110349 -0.014005 0)
(0.108864 -0.0141709 0)
(0.107461 -0.0141675 0)
(0.106155 -0.0140215 0)
(0.104956 -0.0137588 0)
(0.103868 -0.013404 0)
(0.102891 -0.012979 0)
(0.102021 -0.0125032 0)
(0.101254 -0.011993 0)
(0.100583 -0.0114624 0)
(0.1 -0.0109225 0)
(0.0994976 -0.0103825 0)
(0.0990678 -0.00984941 0)
(0.0987029 -0.00932856 0)
(0.0983956 -0.00882394 0)
(0.0981391 -0.00833833 0)
(0.0979272 -0.00787359 0)
(0.0977543 -0.00743082 0)
(0.0976153 -0.00701052 0)
(0.0975056 -0.00661275 0)
(0.11412 -0.0108163 0)
(0.112777 -0.0115994 0)
(0.111414 -0.0121831 0)
(0.110063 -0.0125796 0)
(0.10875 -0.0128055 0)
(0.107496 -0.0128804 0)
(0.106315 -0.0128251 0)
(0.105217 -0.0126605 0)
(0.104209 -0.0124066 0)
(0.103293 -0.0120821 0)
(0.102468 -0.0117038 0)
(0.101731 -0.0112864 0)
(0.101077 -0.0108424 0)
(0.100502 -0.0103825 0)
(0.1 -0.00991548 0)
(0.099564 -0.0094483 0)
(0.099188 -0.00898658 0)
(0.0988661 -0.00853461 0)
(0.0985925 -0.00809562 0)
(0.0983618 -0.00767194 0)
(0.098169 -0.00726517 0)
(0.0980096 -0.0068763 0)
(0.0978795 -0.00650586 0)
(0.113263 -0.00959176 0)
(0.112106 -0.0103353 0)
(0.110923 -0.0109105 0)
(0.109739 -0.0113252 0)
(0.108577 -0.0115914 0)
(0.107456 -0.0117236 0)
(0.106389 -0.0117379 0)
(0.105388 -0.0116511 0)
(0.104458 -0.0114795 0)
(0.103604 -0.0112387 0)
(0.102826 -0.0109432 0)
(0.102123 -0.0106059 0)
(0.101493 -0.010238 0)
(0.100932 -0.00984941 0)
(0.100436 -0.0094483 0)
(0.1 -0.00904153 0)
(0.0996191 -0.00863467 0)
(0.0992884 -0.00823216 0)
(0.0990031 -0.00783748 0)
(0.0987585 -0.00745329 0)
(0.0985504 -0.00708153 0)
(0.0983748 -0.00672358 0)
(0.0982279 -0.00638034 0)
(0.112462 -0.00853936 0)
(0.111462 -0.00924038 0)
(0.110431 -0.00979889 0)
(0.109391 -0.0102198 0)
(0.108362 -0.0105115 0)
(0.10736 -0.0106847 0)
(0.106398 -0.0107519 0)
(0.105486 -0.0107263 0)
(0.104632 -0.0106213 0)
(0.103838 -0.0104498 0)
(0.103109 -0.0102242 0)
(0.102443 -0.00995563 0)
(0.10184 -0.00965412 0)
(0.101297 -0.00932856 0)
(0.100812 -0.00898658 0)
(0.100381 -0.00863467 0)
(0.1 -0.00827824 0)
(0.0996653 -0.00792173 0)
(0.0993729 -0.00756875 0)
(0.0991188 -0.00722211 0)
(0.0988995 -0.00688401 0)
(0.0987113 -0.00655609 0)
(0.098551 -0.00623953 0)
(0.111717 -0.00763093 0)
(0.110849 -0.00828872 0)
(0.109948 -0.0088255 0)
(0.109033 -0.0092441 0)
(0.10812 -0.00955024 0)
(0.107224 -0.00975191 0)
(0.106357 -0.00985863 0)
(0.105527 -0.00988084 0)
(0.104743 -0.00982937 0)
(0.104009 -0.00971498 0)
(0.103327 -0.00954799 0)
(0.1027 -0.00933808 0)
(0.102126 -0.00909409 0)
(0.101604 -0.00882394 0)
(0.101134 -0.00853461 0)
(0.100712 -0.00823216 0)
(0.100335 -0.00792173 0)
(0.1 -0.00760767 0)
(0.0997044 -0.00729355 0)
(0.0994445 -0.00698229 0)
(0.0992174 -0.00667623 0)
(0.0990199 -0.00637717 0)
(0.0988492 -0.00608651 0)
(0.111024 -0.00684345 0)
(0.110268 -0.00745865 0)
(0.109479 -0.00797079 0)
(0.108671 -0.00838121 0)
(0.10786 -0.00869377 0)
(0.107058 -0.00891426 0)
(0.106276 -0.00904995 0)
(0.105523 -0.00910907 0)
(0.104805 -0.00910033 0)
(0.104126 -0.00903259 0)
(0.103492 -0.00891455 0)
(0.102902 -0.00875446 0)
(0.102359 -0.00856004 0)
(0.101861 -0.00833833 0)
(0.101407 -0.00809562 0)
(0.100997 -0.00783748 0)
(0.100627 -0.00756875 0)
(0.100296 -0.00729355 0)
(0.1 -0.0070154 0)
(0.0997375 -0.00673721 0)
(0.0995057 -0.00646136 0)
(0.0993018 -0.00618979 0)
(0.0991234 -0.00592402 0)
(0.110383 -0.00615801 0)
(0.109722 -0.00673215 0)
(0.109027 -0.0072182 0)
(0.108313 -0.00761653 0)
(0.107591 -0.00792959 0)
(0.106873 -0.00816156 0)
(0.106167 -0.00831794 0)
(0.105483 -0.00840517 0)
(0.104826 -0.00843025 0)
(0.1042 -0.00840045 0)
(0.103611 -0.00832304 0)
(0.103059 -0.00820506 0)
(0.102546 -0.00805318 0)
(0.102073 -0.00787359 0)
(0.101638 -0.00767194 0)
(0.101241 -0.00745329 0)
(0.100881 -0.00722211 0)
(0.100555 -0.00698229 0)
(0.100262 -0.00673721 0)
(0.1 -0.0064897 0)
(0.099766 -0.00624215 0)
(0.0995582 -0.00599655 0)
(0.0993745 -0.00575449 0)
(0.109788 -0.00555905 0)
(0.109208 -0.00609413 0)
(0.108595 -0.00655368 0)
(0.107962 -0.0069374 0)
(0.107319 -0.00724672 0)
(0.106674 -0.0074846 0)
(0.106037 -0.00765517 0)
(0.105415 -0.00776345 0)
(0.104814 -0.00781504 0)
(0.104238 -0.00781589 0)
(0.103692 -0.00777204 0)
(0.103176 -0.00768947 0)
(0.102694 -0.00757393 0)
(0.102246 -0.00743082 0)
(0.101831 -0.00726517 0)
(0.10145 -0.00708153 0)
(0.101101 -0.00688401 0)
(0.100783 -0.00667623 0)
(0.100494 -0.00646136 0)
(0.100234 -0.00624215 0)
(0.1 -0.00602094 0)
(0.0997904 -0.00579971 0)
(0.0996035 -0.00558009 0)
(0.109237 -0.00503366 0)
(0.108726 -0.00553197 0)
(0.108184 -0.0059653 0)
(0.107622 -0.0063329 0)
(0.107046 -0.0066355 0)
(0.106468 -0.00687511 0)
(0.105892 -0.0070548 0)
(0.105327 -0.00717848 0)
(0.104777 -0.0072506 0)
(0.104247 -0.00727601 0)
(0.103741 -0.00725973 0)
(0.103261 -0.00720681 0)
(0.102808 -0.00712217 0)
(0.102385 -0.00701052 0)
(0.10199 -0.0068763 0)
(0.101625 -0.00672358 0)
(0.101289 -0.00655609 0)
(0.10098 -0.00637717 0)
(0.100698 -0.00618979 0)
(0.100442 -0.00599655 0)
(0.10021 -0.00579971 0)
(0.1 -0.0056012 0)
(0.0998116 -0.00540267 0)
(0.108727 -0.00457115 0)
(0.108275 -0.00503507 0)
(0.107795 -0.00544291 0)
(0.107293 -0.00579362 0)
(0.106778 -0.00608743 0)
(0.106257 -0.00632566 0)
(0.105737 -0.00651055 0)
(0.105223 -0.00664511 0)
(0.10472 -0.00673289 0)
(0.104233 -0.00677781 0)
(0.103764 -0.00678405 0)
(0.103317 -0.00675583 0)
(0.102894 -0.00669737 0)
(0.102494 -0.00661275 0)
(0.102121 -0.00650586 0)
(0.101772 -0.00638034 0)
(0.101449 -0.00623953 0)
(0.101151 -0.00608651 0)
(0.100877 -0.00592402 0)
(0.100626 -0.00575449 0)
(0.100397 -0.00558009 0)
(0.100188 -0.00540267 0)
(0.1 -0.00522387 0)
(0.108253 -0.00416256 0)
(0.107853 -0.00459449 0)
(0.107426 -0.00497785 0)
(0.106978 -0.00531143 0)
(0.106516 -0.0055951 0)
(0.106046 -0.00582966 0)
(0.105575 -0.00601673 0)
(0.105107 -0.0061586 0)
(0.104647 -0.00625807 0)
(0.104199 -0.00631833 0)
(0.103766 -0.00634281 0)
(0.10335 -0.00633507 0)
(0.102954 -0.00629869 0)
(0.102579 -0.0062372 0)
(0.102225 -0.00615401 0)
(0.101894 -0.00605232 0)
(0.101584 -0.00593515 0)
(0.101297 -0.00580528 0)
(0.101032 -0.00566522 0)
(0.100787 -0.00551726 0)
(0.100563 -0.00536343 0)
(0.100357 -0.0052055 0)
(0.10017 -0.00504505 0)
(0.107815 -0.00380041 0)
(0.107459 -0.00420268 0)
(0.107077 -0.00456274 0)
(0.106676 -0.00487932 0)
(0.106261 -0.00515202 0)
(0.105837 -0.00538127 0)
(0.10541 -0.0055682 0)
(0.104983 -0.00571454 0)
(0.104562 -0.0058225 0)
(0.10415 -0.00589464 0)
(0.10375 -0.00593379 0)
(0.103364 -0.00594293 0)
(0.102994 -0.0059251 0)
(0.102641 -0.00588334 0)
(0.102307 -0.00582061 0)
(0.101993 -0.00573974 0)
(0.101698 -0.00564343 0)
(0.101422 -0.00553418 0)
(0.101166 -0.0054143 0)
(0.100929 -0.00528588 0)
(0.100709 -0.00515082 0)
(0.100508 -0.00501082 0)
(0.100323 -0.00486737 0)
(0.107407 -0.00347841 0)
(0.10709 -0.00385323 0)
(0.106748 -0.00419127 0)
(0.106388 -0.00449121 0)
(0.106014 -0.00475251 0)
(0.105631 -0.0049753 0)
(0.105243 -0.00516035 0)
(0.104854 -0.00530893 0)
(0.104469 -0.00542278 0)
(0.10409 -0.00550396 0)
(0.10372 -0.00555479 0)
(0.103361 -0.00557776 0)
(0.103016 -0.00557543 0)
(0.102685 -0.00555043 0)
(0.102371 -0.00550531 0)
(0.102073 -0.00544258 0)
(0.101792 -0.00536463 0)
(0.101528 -0.00527369 0)
(0.101281 -0.00517187 0)
(0.101052 -0.0050611 0)
(0.100839 -0.00494313 0)
(0.100642 -0.00481955 0)
(0.10046 -0.00469179 0)
(0.107029 -0.00319123 0)
(0.106745 -0.0035407 0)
(0.106439 -0.00385801 0)
(0.106115 -0.00414186 0)
(0.105777 -0.0043916 0)
(0.10543 -0.00460717 0)
(0.105077 -0.00478902 0)
(0.104722 -0.00493812 0)
(0.104369 -0.00505578 0)
(0.10402 -0.00514366 0)
(0.103678 -0.00520367 0)
(0.103345 -0.00523787 0)
(0.103023 -0.00524845 0)
(0.102713 -0.00523762 0)
(0.102417 -0.00520761 0)
(0.102135 -0.00516063 0)
(0.101868 -0.00509877 0)
(0.101616 -0.00502405 0)
(0.10138 -0.00493837 0)
(0.101158 -0.00484348 0)
(0.100952 -0.00474101 0)
(0.10076 -0.00463244 0)
(0.100582 -0.00451911 0)
(0.106676 -0.00293437 0)
(0.106422 -0.00326044 0)
(0.106147 -0.00355831 0)
(0.105854 -0.00382673 0)
(0.105549 -0.00406497 0)
(0.105234 -0.00427282 0)
(0.104913 -0.00445053 0)
(0.104589 -0.00459878 0)
(0.104265 -0.00471859 0)
(0.103943 -0.00481127 0)
(0.103627 -0.00487838 0)
(0.103318 -0.00492163 0)
(0.103017 -0.00494286 0)
(0.102727 -0.00494397 0)
(0.102449 -0.00492689 0)
(0.102183 -0.00489353 0)
(0.10193 -0.00484575 0)
(0.10169 -0.00478536 0)
(0.101463 -0.00471404 0)
(0.10125 -0.00463342 0)
(0.101051 -0.00454497 0)
(0.100864 -0.00445007 0)
(0.100691 -0.00434997 0)
(0.106349 -0.00270397 0)
(0.10612 -0.00300847 0)
(0.105872 -0.00328817 0)
(0.105608 -0.00354186 0)
(0.105331 -0.0037688 0)
(0.105045 -0.00396867 0)
(0.104752 -0.00414156 0)
(0.104455 -0.00428794 0)
(0.104157 -0.00440857 0)
(0.103861 -0.00450449 0)
(0.103569 -0.00457697 0)
(0.103282 -0.00462742 0)
(0.103002 -0.00465739 0)
(0.10273 -0.00466851 0)
(0.102469 -0.00466243 0)
(0.102218 -0.00464083 0)
(0.101978 -0.00460534 0)
(0.101749 -0.00455756 0)
(0.101533 -0.00449902 0)
(0.101328 -0.00443116 0)
(0.101136 -0.00435536 0)
(0.100956 -0.00427288 0)
(0.100787 -0.00418488 0)
(0.106043 -0.00249677 0)
(0.105837 -0.00278137 0)
(0.105613 -0.0030441 0)
(0.105374 -0.00328382 0)
(0.105122 -0.00349976 0)
(0.104861 -0.00369156 0)
(0.104594 -0.00385917 0)
(0.104322 -0.00400289 0)
(0.104049 -0.00412329 0)
(0.103776 -0.00422118 0)
(0.103505 -0.00429759 0)
(0.103238 -0.0043537 0)
(0.102977 -0.00439079 0)
(0.102724 -0.00441025 0)
(0.102478 -0.0044135 0)
(0.102241 -0.00440201 0)
(0.102014 -0.00437721 0)
(0.101797 -0.00434051 0)
(0.10159 -0.00429328 0)
(0.101395 -0.00423684 0)
(0.10121 -0.00417242 0)
(0.101036 -0.00410119 0)
(0.100872 -0.00402422 0)
(0.105758 -0.00230996 0)
(0.105571 -0.00257621 0)
(0.105369 -0.00282312 0)
(0.105152 -0.00304961 0)
(0.104923 -0.00325494 0)
(0.104685 -0.00343868 0)
(0.104441 -0.00360071 0)
(0.104191 -0.00374119 0)
(0.10394 -0.00386054 0)
(0.103688 -0.00395939 0)
(0.103437 -0.00403855 0)
(0.103189 -0.004099 0)
(0.102946 -0.00414182 0)
(0.102709 -0.00416819 0)
(0.102478 -0.00417933 0)
(0.102255 -0.0041765 0)
(0.10204 -0.00416096 0)
(0.101834 -0.00413397 0)
(0.101637 -0.00409676 0)
(0.10145 -0.00405048 0)
(0.101273 -0.00399628 0)
(0.101105 -0.00393522 0)
(0.100946 -0.00386828 0)
(0.105323 -0.00239043 0)
(0.105139 -0.00262261 0)
(0.104941 -0.00283663 0)
(0.104733 -0.00303176 0)
(0.104516 -0.00320756 0)
(0.104292 -0.00336384 0)
(0.104063 -0.00350067 0)
(0.103831 -0.00361833 0)
(0.103598 -0.0037173 0)
(0.103366 -0.00379824 0)
(0.103136 -0.00386195 0)
(0.102909 -0.00390932 0)
(0.102687 -0.00394136 0)
(0.10247 -0.00395912 0)
(0.10226 -0.00396368 0)
(0.102057 -0.00395616 0)
(0.101862 -0.00393766 0)
(0.101675 -0.00390927 0)
(0.101496 -0.00387204 0)
(0.101326 -0.003827 0)
(0.101164 -0.00377511 0)
(0.101011 -0.00371728 0)
(0.190184 -0.00966528 0)
(0.186168 -0.0285869 0)
(0.178294 -0.0462962 0)
(0.166873 -0.0620324 0)
(0.15236 -0.075105 0)
(0.135342 -0.0849199 0)
(0.116517 -0.0910031 0)
(0.175244 -0.00734258 0)
(0.172571 -0.0218059 0)
(0.167287 -0.0356065 0)
(0.159516 -0.0483125 0)
(0.149445 -0.0595072 0)
(0.137321 -0.0687955 0)
(0.123456 -0.0758117 0)
(0.163724 -0.00570609 0)
(0.161892 -0.0169947 0)
(0.158251 -0.0279128 0)
(0.152846 -0.0382131 0)
(0.145749 -0.0476484 0)
(0.137054 -0.0559713 0)
(0.126884 -0.0629348 0)
(0.154656 -0.00452036 0)
(0.153369 -0.0134911 0)
(0.150801 -0.0222511 0)
(0.146966 -0.0306582 0)
(0.141885 -0.0385672 0)
(0.135589 -0.0458284 0)
(0.128115 -0.0522866 0)
(0.147392 -0.00364052 0)
(0.146467 -0.0108814 0)
(0.144618 -0.0180014 0)
(0.141847 -0.0249183 0)
(0.138155 -0.0315477 0)
(0.133545 -0.0378014 0)
(0.128021 -0.0435866 0)
(0.141484 -0.00297412 0)
(0.140807 -0.00889923 0)
(0.139451 -0.0147547 0)
(0.137414 -0.0204931 0)
(0.134692 -0.0260661 0)
(0.131278 -0.0314231 0)
(0.127163 -0.0365108 0)
(0.136614 -0.00246028 0)
(0.13611 -0.00736752 0)