/*--------------------------------*- C++ -*----------------------------------*\
| =========                 |                                                 |
| \\      /  F ield         | OpenFOAM: The Open Source CFD Toolbox           |
|  \\    /   O peration     | Version:  2412                                  |
|   \\  /    A nd           | Website:  www.openfoam.com                      |
|    \\/     M anipulation  |                                                 |
\*---------------------------------------------------------------------------*/
FoamFile
{
    version     2.0;
    format      ascii;
    arch        "LSB;label=32;scalar=64";
    class       volVectorField;
    location    "30";
    object      vorticity;
}
// * * * * * * * * * * * * * * * * * * * * * * * * * * * * * * * * * * * * * //

dimensions      [0 0 -1 0 0 0 0];

internalField   nonuniform List<vector> 
5285
(
(2.30997e-21 -6.4434e-20 -5.17787e-05)
(-1.80756e-21 7.58573e-21 -5.97928e-05)
(-1.81888e-22 -7.07997e-21 -6.86208e-05)
(6.83522e-23 7.08245e-21 -7.83646e-05)
(-3.06149e-24 -1.25219e-22 -8.91081e-05)
(-6.32943e-23 -6.82889e-21 -0.000100964)
(-1.95979e-21 6.88532e-21 -0.000114061)
(4.09413e-21 1.25875e-23 -0.00012855)
(1.19195e-21 6.68104e-21 -0.000144605)
(-3.18996e-21 -5.17936e-24 -0.000162433)
(4.58702e-21 7.74677e-21 -0.000182279)
(-5.40767e-21 1.00555e-19 -0.000204443)
(6.96336e-22 -1.07971e-19 -0.000229301)
(-2.10243e-21 9.85404e-20 -0.000257337)
(2.04873e-21 -9.9652e-20 -0.000289206)
(4.72077e-23 1.3054e-21 -0.00032584)
(-6.13653e-23 -1.60052e-21 -0.000368642)
(2.73628e-21 -9.41065e-20 -0.000419822)
(-8.44151e-21 9.13185e-20 -0.000483004)
(-3.03304e-22 -1.50442e-21 -0.000564274)
(6.02308e-21 1.31731e-23 -0.000673962)
(6.53862e-21 1.43006e-23 -0.000829549)
(-6.5177e-21 -1.42548e-23 -0.00106024)
(-2.15797e-22 -4.7197e-25 -0.00141378)
(-2.24787e-22 -4.91631e-25 -0.00196595)
(-7.72441e-21 -1.6894e-23 -0.00283267)
(7.4562e-21 1.63074e-23 -0.0041838)
(-2.45808e-22 1.46084e-22 -0.00625544)
(-3.53534e-23 7.55224e-21 -0.00935591)
(-2.38052e-20 4.87825e-20 -0.0138572)
(2.29297e-20 -6.43076e-20 -0.0201608)
(-5.3838e-21 -9.06879e-21 -0.028625)
(5.91601e-21 2.49207e-20 -0.0394503)
(-1.9609e-20 -5.47417e-21 -0.0524466)
(1.69256e-21 -2.22841e-19 -0.000162242)
(-5.55497e-21 2.38791e-19 -0.00018722)
(-3.00201e-22 1.93419e-20 -0.000214804)
(-3.73378e-21 -7.23765e-21 -0.000245232)
(3.94948e-21 1.41298e-22 -0.000278823)
(-3.96516e-21 8.96964e-21 -0.000315939)
(8.63696e-22 2.07109e-19 -0.00035699)
(6.03519e-21 -4.38371e-19 -0.000402454)
(4.54721e-21 -2.093e-19 -0.000452891)
(-7.11224e-21 4.23781e-19 -0.000508957)
(3.86985e-21 -4.22242e-19 -0.000571436)
(-2.25052e-21 4.3321e-19 -0.000641283)
(3.19541e-21 1.46043e-21 -0.00071968)
(-3.62297e-21 -9.49447e-23 -0.000808152)
(-1.21704e-21 -2.66178e-24 -0.000908748)
(0 -0 -0.00102436)
(1.79748e-22 9.32554e-23 -0.00115931)
(1.07348e-20 1.20531e-20 -0.00132038)
(-1.57999e-20 3.5224e-19 -0.00151864)
(-1.53373e-20 -2.38807e-20 -0.00177262)
(1.85663e-20 -3.47151e-19 -0.00211374)
(2.63212e-20 -2.99485e-19 -0.00259511)
(-9.65161e-21 3.199e-19 -0.0033054)
(-3.02349e-20 2.12174e-21 -0.00438943)
(2.94458e-20 1.68036e-20 -0.0060768)
(-4.12952e-20 2.27173e-19 -0.00871854)
(2.25411e-20 -2.36298e-19 -0.0128283)
(-1.74053e-20 1.41889e-20 -0.0191195)
(1.92742e-20 7.44182e-21 -0.0285233)
(-5.78945e-20 1.09164e-19 -0.0421621)
(5.78114e-20 -1.06861e-19 -0.0612437)
(-8.83544e-20 7.95449e-20 -0.0868263)
(8.52622e-20 -8.88641e-20 -0.119442)
(-1.81209e-20 -6.06672e-22 -0.157197)
(-4.70984e-21 -1.18521e-20 -0.000293646)
(-4.98189e-21 4.61832e-19 -0.000338542)
(4.10162e-22 -1.40142e-20 -0.000388151)
(-1.25257e-20 4.48188e-19 -0.000442993)
(1.24612e-20 -4.65438e-19 -0.000503653)
(-9.42187e-21 4.44239e-19 -0.000570813)
(2.78869e-21 -4.62033e-19 -0.00064525)
(5.13985e-21 -9.24369e-21 -0.000727866)
(-2.56167e-21 1.35313e-20 -0.000819712)
(5.45327e-21 -8.7434e-21 -0.000922024)
(-1.90433e-20 4.15807e-19 -0.00103627)
(1.71889e-20 -4.43099e-19 -0.00116423)
(1.87239e-20 -4.11472e-19 -0.00130809)
(-1.54556e-20 4.13305e-19 -0.00147063)
(-1.06216e-21 -5.07155e-21 -0.00165556)
(1.09858e-20 -1.18864e-22 -0.00186804)
(-1.25424e-20 -2.4309e-20 -0.00211565)
(5.37395e-20 -7.49338e-19 -0.0024102)
(1.62783e-20 5.57215e-20 -0.00277076)
(-7.0301e-20 7.05181e-19 -0.00322913)
(3.86734e-21 -1.20814e-20 -0.00383898)
(-1.12096e-20 -4.71691e-21 -0.00469091)
(1.09398e-19 -5.90092e-19 -0.00593596)
(-2.03584e-19 1.15834e-18 -0.00782049)
(2.07453e-19 -1.14971e-18 -0.0107346)
(6.9228e-20 8.35503e-20 -0.015274)
(-1.54704e-19 5.02511e-19 -0.0223091)
(-1.61614e-19 3.4581e-19 -0.0330486)
(1.52825e-19 -4.1002e-19 -0.0490709)
(-2.15593e-20 1.89076e-20 -0.072282)
(5.32591e-20 -1.68067e-20 -0.104731)
(1.59215e-19 -9.87165e-20 -0.148171)
(-1.72438e-19 1.54401e-19 -0.203295)
(-2.46871e-20 -3.97143e-20 -0.262552)
(-1.0266e-20 4.75639e-19 -0.00046185)
(-6.99481e-22 -3.70038e-21 -0.000531719)
(4.43022e-21 3.84696e-21 -0.000609122)
(-8.06779e-21 4.38308e-19 -0.000694909)
(-1.32888e-21 -4.60255e-19 -0.000790057)
(1.4548e-20 1.25373e-20 -0.000895698)
(-3.43868e-20 8.83046e-19 -0.00101313)
(2.63559e-20 -8.85869e-19 -0.00114385)
(2.25277e-21 -5.33805e-21 -0.00128961)
(-9.58846e-21 -8.95236e-23 -0.00145245)
(1.46124e-20 -1.33755e-20 -0.00163482)
(-4.74091e-21 1.21576e-22 -0.00183962)
(-5.19893e-21 -6.41446e-23 -0.0020704)
(4.95678e-21 1.92586e-22 -0.00233165)
(-3.69633e-21 1.46429e-21 -0.00262918)
(6.41543e-20 -7.79772e-19 -0.00297099)
(-5.83309e-20 8.0189e-19 -0.00336856)
(-1.58285e-20 2.28621e-22 -0.00383944)
(1.84636e-20 -1.02001e-20 -0.00441162)
(-9.95833e-20 7.13977e-19 -0.00513131)
(1.15722e-19 -7.17089e-19 -0.00607608)
(-2.22396e-20 2.15688e-21 -0.0073765)
(1.57253e-20 -9.17734e-23 -0.0092499)
(3.73719e-20 6.25451e-21 -0.0120505)
(-2.44855e-19 5.33163e-19 -0.0163391)
(3.64068e-19 -1.08014e-18 -0.0229709)
(-1.77694e-19 5.46986e-19 -0.0331969)
(2.55986e-19 -4.17488e-19 -0.0487578)
(-2.4794e-19 4.91765e-19 -0.0719405)
(-5.73994e-19 5.05754e-19 -0.105537)
(1.08235e-18 -1.07154e-18 -0.152598)
(-5.29107e-19 5.40901e-19 -0.215723)
(1.82903e-20 -2.06866e-21 -0.29558)
(4.39201e-21 -3.40998e-20 -0.371634)
(4.1004e-21 3.64886e-21 -0.000685271)
(-5.88509e-21 4.49205e-19 -0.000787699)
(2.06237e-20 -4.86038e-19 -0.000901512)
(6.20866e-21 2.65785e-20 -0.00102806)
(-4.65802e-20 9.25449e-19 -0.00116889)
(3.01943e-20 -9.27957e-19 -0.0013258)
(9.97828e-21 2.23396e-20 -0.00150084)
(-1.77378e-20 -2.29258e-22 -0.0016964)
(1.16068e-20 9.4731e-21 -0.00191527)
(-4.01978e-20 8.87912e-19 -0.0021607)
(3.34704e-20 -8.7947e-19 -0.00243652)
(2.78884e-21 9.45821e-21 -0.00274731)
(9.30641e-21 2.69196e-20 -0.00309861)
(-1.13085e-20 -5.40129e-22 -0.00349727)
(1.19382e-21 -1.28614e-20 -0.00395207)
(-3.66941e-20 1.30519e-20 -0.00447467)
(3.4439e-20 1.24268e-20 -0.00508149)
(-3.00723e-21 -2.48301e-20 -0.00579691)
(8.41075e-20 -7.27997e-19 -0.006659)
(-7.54196e-20 7.50425e-19 -0.00772969)
(2.71256e-19 -1.44163e-18 -0.00911201)
(-2.49328e-19 1.4556e-18 -0.0109786)
(3.07155e-19 -1.35948e-18 -0.0136163)
(6.96491e-20 1.3061e-19 -0.0174931)
(-3.52051e-19 1.29388e-18 -0.0233502)
(-1.17988e-19 -2.16836e-20 -0.0323209)
(1.60633e-20 3.78902e-22 -0.0460682)
(-1.78399e-20 5.48182e-22 -0.066925)
(5.27395e-20 1.61901e-21 -0.0980061)
(2.53066e-20 1.31905e-20 -0.14324)
(-1.10058e-19 4.97301e-21 -0.207173)
(6.27494e-20 4.81658e-21 -0.294041)
(-1.60396e-22 -3.01145e-22 -0.404983)
(3.50829e-20 6.1666e-22 -0.494295)
(-3.27132e-21 6.37401e-21 -0.000985644)
(3.94755e-20 -9.45916e-19 -0.00113108)
(3.10792e-20 -9.07762e-19 -0.00129324)
(6.538e-21 2.11621e-20 -0.0014742)
(-2.83234e-20 9.4248e-19 -0.00167636)
(-1.97706e-20 -7.93522e-21 -0.00190249)
(1.20726e-20 8.7904e-21 -0.00215579)
(-5.24239e-20 9.11376e-19 -0.00243996)
(4.30278e-20 -9.25599e-19 -0.00275932)
(7.4375e-20 -8.88586e-19 -0.00311893)
(-7.55867e-20 9.17693e-19 -0.00352476)
(1.48047e-20 -1.96609e-20 -0.00398385)
(6.99009e-20 -8.84574e-19 -0.00450468)
(-9.71715e-20 9.0704e-19 -0.0050976)
(4.29585e-21 1.21111e-20 -0.00577556)
(-2.10986e-19 1.65859e-18 -0.00655534)
(1.91595e-19 -1.7206e-18 -0.00745978)
(4.75135e-20 6.09072e-20 -0.00852161)
(-2.70698e-19 1.56672e-18 -0.00979041)
(2.4893e-19 -1.63345e-18 -0.0113449)
(-3.08974e-20 -3.18007e-21 -0.0133142)
(4.71145e-19 -1.46928e-18 -0.0159128)
(-4.41505e-19 1.51725e-18 -0.0194968)
(-6.46067e-20 -7.08454e-20 -0.0246478)
(6.71344e-19 -1.27822e-18 -0.0322913)
(-1.18213e-18 2.63391e-18 -0.0438505)
(-6.25666e-20 -1.53427e-19 -0.0614305)
(-8.38066e-20 -1.20617e-19 -0.0880211)
(7.55946e-19 -1.14231e-18 -0.127714)
(3.85125e-20 6.14027e-20 -0.185951)
(-8.44104e-19 7.52641e-19 -0.269818)
(8.27404e-19 -8.28191e-19 -0.387847)
(8.4837e-21 2.82715e-20 -0.546175)
(8.95756e-21 -2.62432e-21 -0.654321)
(-1.62119e-21 -2.02481e-20 -0.00133935)
(2.91007e-20 -9.83894e-19 -0.00152969)
(-5.28077e-21 -7.70749e-21 -0.00174165)
(-1.68203e-22 1.17247e-22 -0.0019778)
(1.12542e-20 8.2954e-21 -0.00224112)
(-5.47811e-20 9.45274e-19 -0.00253499)
(4.91492e-20 -9.65438e-19 -0.00286325)
(1.25652e-20 8.20158e-21 -0.00323031)
(-8.52197e-21 -1.47838e-20 -0.0036412)
(-6.07113e-21 9.74247e-21 -0.00410168)
(-7.64946e-20 9.10812e-19 -0.00461834)
(1.64088e-19 -1.85748e-18 -0.00519875)
(-7.80991e-20 9.68186e-19 -0.00585167)
(-1.97011e-19 1.7931e-18 -0.00658734)
(-3.02813e-20 -4.57739e-20 -0.00741798)
(2.21841e-21 -2.71287e-20 -0.00835883)
(-6.52488e-20 -5.40147e-20 -0.0094299)
(2.64151e-19 -1.78876e-18 -0.0106595)
(4.0191e-19 -1.65407e-18 -0.012091)
(-3.59994e-19 1.73574e-18 -0.0137952)
(-3.32758e-20 -5.38308e-20 -0.0158926)
(4.74353e-19 -1.5778e-18 -0.0185924)
(-4.19866e-19 1.6708e-18 -0.0222565)
(-6.63912e-19 1.48143e-18 -0.0274989)
(5.6612e-19 -1.5643e-18 -0.0353323)
(7.6489e-20 -1.08923e-20 -0.0473659)
(8.54545e-19 -1.37666e-18 -0.0660537)
(1.15243e-19 1.21465e-19 -0.0949862)
(-9.83531e-19 1.34607e-18 -0.139236)
(-1.58273e-20 -3.85712e-20 -0.205835)
(3.27649e-20 5.14875e-22 -0.305087)
(-3.27062e-20 1.56398e-20 -0.455295)
(-4.946e-19 5.16907e-19 -0.691967)
(4.85721e-19 -5.26313e-19 -0.947579)
(-1.05668e-20 -3.12271e-21 0.00876562)
(-1.0431e-20 -5.45631e-23 0.00493576)
(9.76911e-21 9.51168e-21 0.00170423)
(-6.86277e-21 1.7084e-21 -0.000986291)
(7.38106e-21 -1.1089e-20 -0.00320293)
(6.96049e-23 3.48463e-21 -0.0050167)
(-1.72874e-22 -9.72874e-23 -0.00649535)
(-5.68689e-21 1.24378e-23 -0.00769827)
(5.52959e-21 -1.20938e-23 -0.0086731)
(-1.67893e-22 3.67199e-25 -0.00945677)
(-1.63778e-22 3.58199e-25 -0.0100822)
(4.99183e-21 -1.09176e-23 -0.0105752)
(-5.00787e-21 1.09527e-23 -0.0109551)
(-4.66737e-21 1.0208e-23 -0.0112375)
(2.35989e-22 -1.15173e-21 -0.011435)
(6.34615e-21 2.89253e-22 -0.0115581)
(-1.95536e-21 1.97505e-21 -0.0116157)
(-8.52986e-23 -1.08365e-21 -0.011615)
(-3.39309e-23 9.38262e-22 -0.0115625)
(-1.95715e-21 -7.32263e-21 -0.0114637)
(2.0022e-21 6.23201e-21 -0.0113228)
(-1.21463e-21 -9.22378e-21 -0.0111438)
(-1.51624e-20 2.50004e-20 0.0254274)
(2.93124e-20 -1.09354e-20 0.0140094)
(-2.34666e-20 -2.04957e-20 0.00429542)
(8.47121e-21 2.15514e-20 -0.00372164)
(-8.82678e-21 -2.11146e-20 -0.0102751)
(-1.26286e-20 6.10328e-21 -0.0156032)
(1.12771e-20 6.88049e-21 -0.0199244)
(1.35616e-20 1.77402e-20 -0.0234244)
(-1.63048e-22 -2.94656e-20 -0.0262502)
(-2.29855e-20 6.89707e-21 -0.0285155)
(2.24471e-20 -5.16039e-21 -0.0303166)
(-6.09518e-21 -1.16803e-20 -0.0317294)
(-6.65823e-21 2.74667e-20 -0.0328113)
(-6.92088e-21 3.31058e-21 -0.0336082)
(9.56006e-21 -1.50375e-20 -0.0341575)
(7.15834e-21 -3.59334e-21 -0.0344895)
(-8.51328e-21 4.99207e-21 -0.0346299)
(-1.99337e-22 -5.89753e-22 -0.0346004)
(1.52905e-23 -1.36245e-22 -0.0344197)
(8.74754e-22 -1.91317e-24 -0.0341039)
(2.57632e-21 4.16706e-23 -0.033666)
(-2.49298e-21 -3.60763e-21 -0.0331171)
(-1.34733e-20 -1.08425e-21 0.039456)
(-1.2282e-20 -1.42259e-20 0.0205289)
(3.40287e-20 2.80961e-20 0.00429242)
(-4.30294e-20 -1.23675e-20 -0.00884985)
(1.77036e-20 1.20938e-20 -0.0194146)
(2.8207e-20 2.06217e-20 -0.027891)
(-1.95187e-20 -5.96453e-20 -0.034694)
(1.2406e-20 -2.19832e-20 -0.0401559)
(-3.3305e-20 3.80645e-20 -0.044533)
(6.48811e-21 3.63426e-20 -0.0480197)
(2.43927e-20 -6.41301e-20 -0.0507697)
(-2.30023e-20 4.634e-20 -0.0529047)
(7.36143e-21 -1.12405e-20 -0.0545174)
(-3.505e-21 -1.01426e-20 -0.0556816)
(3.96265e-20 1.27185e-20 -0.056456)
(-5.31753e-21 3.06713e-20 -0.0568885)
(-3.21441e-20 -2.39109e-20 -0.0570194)
(1.16967e-20 -7.9211e-21 -0.0568829)
(-8.64744e-21 3.21902e-22 -0.0565087)
(5.17698e-22 -3.62663e-21 -0.0559222)
(2.28214e-20 5.29266e-20 -0.0551444)
(-2.3648e-20 -4.08552e-20 -0.0541927)
(1.98999e-21 2.59973e-20 0.0483289)
(8.36185e-21 -5.31812e-20 0.022091)
(-7.00493e-20 1.64269e-20 -0.000558114)
(1.16379e-19 8.00651e-20 -0.0183208)
(-3.07323e-20 -1.09871e-19 -0.0322266)
(-1.80401e-20 2.09578e-20 -0.0431555)
(3.306e-21 2.06938e-20 -0.0517862)
(-1.74239e-20 -2.88633e-21 -0.0586255)
(-4.77444e-21 2.54913e-20 -0.0640426)
(6.18086e-20 -3.56488e-20 -0.0683095)
(-2.7231e-20 1.26627e-20 -0.0716283)
(-1.36982e-20 5.80027e-22 -0.0741592)
(1.98802e-20 1.05452e-20 -0.076023)
(-5.63021e-20 -4.07087e-20 -0.0773141)
(3.98338e-20 1.87119e-20 -0.0781079)
(-1.20221e-20 1.20885e-20 -0.0784657)
(1.082e-20 -9.23562e-21 -0.0784388)
(5.20355e-20 9.03786e-20 -0.0780706)
(-5.71021e-20 -7.23363e-20 -0.077399)
(1.3504e-21 -1.07065e-20 -0.0764565)
(-3.48328e-21 -1.11473e-22 -0.0752713)
(3.44838e-21 4.85642e-22 -0.0738647)
(2.6498e-20 9.23575e-23 0.0485506)
(3.02745e-22 3.85639e-22 0.0152341)
(-5.99117e-20 4.52153e-22 -0.0132552)
(8.88491e-20 -2.41175e-22 -0.0345378)
(-2.66592e-20 1.14613e-22 -0.0505706)
(-4.28815e-20 -7.76547e-22 -0.0628048)
(1.37759e-20 -8.48722e-24 -0.0722505)
(-1.16201e-20 4.9927e-23 -0.0796051)
(9.39219e-20 -2.56854e-20 -0.085331)
(-5.70529e-21 5.78359e-20 -0.089753)
(-5.87785e-21 6.51568e-20 -0.0931136)
(-1.58976e-20 -9.88608e-20 -0.0955933)
(5.48033e-20 1.12148e-19 -0.0973274)
(-7.38163e-20 -1.02509e-19 -0.0984215)
(2.43518e-20 6.93949e-20 -0.0989599)
(-3.58896e-20 -7.33807e-20 -0.0990107)
(4.95711e-21 -8.61052e-21 -0.0986304)
(-2.98889e-20 -1.04034e-21 -0.0978672)
(2.77967e-20 -2.79626e-21 -0.0967632)
(1.11328e-21 1.82633e-21 -0.0953555)
(8.34106e-21 3.16979e-22 -0.093675)
(-1.08249e-20 -5.55183e-21 -0.0917489)
(-1.80734e-21 6.14588e-21 -0.0895993)
(-7.78047e-20 -3.31942e-22 0.0367768)
(2.29769e-20 3.04625e-20 -0.00505328)
(8.17828e-20 -3.26469e-20 -0.0377778)
(-4.22598e-20 -2.86508e-20 -0.0603301)
(-3.7027e-20 5.842e-20 -0.0764426)
(6.0815e-20 -6.13031e-20 -0.088266)
(-8.61813e-22 -4.99938e-20 -0.0971081)
(-2.16905e-20 -7.17777e-20 -0.103815)
(2.44124e-20 2.52833e-19 -0.10891)
(-1.16087e-19 -6.96547e-20 -0.112709)
(6.0148e-20 -4.75822e-20 -0.115457)
(1.2443e-19 2.12498e-19 -0.117333)
(-1.46757e-19 -1.62816e-19 -0.118472)
(2.49952e-20 -2.42102e-21 -0.118977)
(-1.04522e-19 -2.82628e-19 -0.11893)
(1.26342e-19 2.41078e-19 -0.118397)
(-4.30762e-20 3.8279e-20 -0.117432)
(-1.59569e-19 -3.62371e-19 -0.116082)
(1.79303e-19 3.26643e-19 -0.114389)
(-5.16728e-21 7.41089e-21 -0.112389)
(1.17169e-19 2.25384e-19 -0.110116)
(-9.12933e-20 -2.02496e-19 -0.107595)
(-1.15922e-20 -1.40974e-20 -0.104848)
(-8.19666e-21 2.3476e-20 0.0108247)
(3.50134e-20 -5.9685e-20 -0.0411517)
(4.84999e-21 3.60733e-20 -0.0702786)
(-3.56418e-20 -3.77626e-22 -0.0885251)
(2.30503e-20 -2.90779e-20 -0.101119)
(2.38054e-20 1.49663e-19 -0.110045)
(-2.85868e-20 8.83085e-20 -0.116531)
(-9.16509e-21 -1.79936e-19 -0.121373)
(-5.84524e-20 -9.69539e-22 -0.124976)
(-1.80153e-20 -2.83444e-19 -0.127545)
(9.91295e-20 2.03192e-19 -0.129283)
(4.28619e-20 3.58034e-19 -0.130337)
(-9.23136e-20 -2.80973e-19 -0.130805)
(2.90378e-20 -4.69708e-20 -0.130759)
(1.66956e-19 4.04798e-19 -0.130251)
(-2.04076e-19 -3.38619e-19 -0.129327)
(-1.73246e-19 -4.59114e-19 -0.128023)
(1.78294e-20 -5.0792e-20 -0.126373)
(-3.46465e-20 -3.04821e-20 -0.124406)
(-2.96056e-21 -4.41887e-20 -0.122151)
(2.18898e-19 5.13307e-19 -0.119633)
(1.14817e-19 3.19659e-19 -0.116875)
(-2.57255e-19 -5.82626e-19 -0.11389)
(7.14458e-20 9.24118e-20 -0.0388878)
(-4.02391e-20 -0 -0.0638772)
(2.84399e-22 -0 -0.0790229)
(0 -0 -0.0898231)
(-2.64411e-22 -0 -0.0981542)
(-3.24832e-20 -0 -0.104772)
(8.72996e-22 -0 -0.110093)
(3.18407e-20 -0 -0.114316)
(-2.34361e-22 -0 -0.117525)
(2.89093e-20 -0 -0.119875)
(-2.8569e-20 -0 -0.121501)
(-2.69987e-20 -0 -0.122496)
(2.68859e-20 -0 -0.122936)
(0 -0 -0.122884)
(-2.39868e-20 -0 -0.122393)
(2.38861e-20 -0 -0.121506)
(2.18869e-20 -0 -0.120264)
(-9.77021e-22 -0 -0.1187)
(-9.88995e-22 -0 -0.116844)
(-1.14461e-21 -0 -0.114727)
(-1.8582e-20 -0 -0.112373)
(-8.12327e-21 -0 -0.109803)
(1.5942e-20 -0 -0.107032)
(7.68984e-21 -0 -0.104079)
(0 -5.22875e-20 -0.116239)
(0 -0 -0.114367)
(0 -0 -0.116882)
(0 -0 -0.120251)
(0 -0 -0.123516)
(0 -0 -0.126459)
(0 -0 -0.129004)
(0 -0 -0.131096)
(0 -0 -0.132698)
(0 -0 -0.133822)
(0 -0 -0.134494)
(0 -0 -0.13474)
(0 -0 -0.134585)
(0 -0 -0.134051)
(0 -0 -0.133162)
(0 -0 -0.13194)
(0 -0 -0.130406)
(0 -0 -0.128579)
(0 -0 -0.126482)
(0 -0 -0.124132)
(0 -0 -0.121552)
(0 -0 -0.118755)
(0 -0 -0.115755)
(0 4.11155e-22 -0.173007)
(0 -0 -0.160682)
(0 -0 -0.154767)
(0 -0 -0.151898)
(0 -0 -0.15046)
(0 -0 -0.149781)
(0 -0 -0.149478)
(0 -0 -0.149303)
(0 -0 -0.149096)
(0 -0 -0.148763)
(0 -0 -0.148244)
(0 -0 -0.147505)
(0 -0 -0.146524)
(0 -0 -0.14529)
(0 -0 -0.143798)
(0 -0 -0.142048)
(0 -0 -0.140045)
(0 -0 -0.137795)
(0 -0 -0.135308)
(0 -0 -0.132597)
(0 -0 -0.129675)
(0 -0 -0.126554)
(0 -0 -0.12324)
(0 -0 -0.214052)
(0 -0 -0.19753)
(0 -0 -0.186838)
(0 -0 -0.179626)
(0 -0 -0.174473)
(0 -0 -0.170693)
(0 -0 -0.167816)
(0 -0 -0.165505)
(0 -0 -0.163525)
(0 -0 -0.161715)
(0 -0 -0.159959)
(0 -0 -0.158176)
(0 -0 -0.156308)
(0 -0 -0.154314)
(0 -0 -0.152166)
(0 -0 -0.149844)
(0 -0 -0.147336)
(0 -0 -0.144639)
(0 -0 -0.141751)
(0 -0 -0.138675)
(0 -0 -0.13542)
(0 -0 -0.131993)
(0 -0 -0.128395)
(0 -3.88069e-22 -0.240862)
(0 -0 -0.223502)
(0 -0 -0.210791)
(0 -0 -0.201167)
(0 -0 -0.193593)
(0 -0 -0.187561)
(0 -0 -0.18267)
(0 -0 -0.178592)
(0 -0 -0.175077)
(0 -0 -0.17194)
(0 -0 -0.169039)
(0 -0 -0.166268)
(0 -0 -0.163546)
(0 -0 -0.160812)
(0 -0 -0.15802)
(0 -0 -0.155136)
(0 -0 -0.152137)
(0 -0 -0.149006)
(0 -0 -0.145735)
(0 -0 -0.142321)
(0 -0 -0.138764)
(0 -0 -0.135067)
(0 -0 -0.131229)
(0 -4.73313e-20 -0.254304)
(0 -0 -0.238167)
(0 -0 -0.225422)
(0 -0 -0.215044)
(0 -0 -0.206351)
(0 -0 -0.199052)
(0 -0 -0.192878)
(0 -0 -0.187572)
(0 -0 -0.182921)
(0 -0 -0.178751)
(0 -0 -0.174925)
(0 -0 -0.171331)
(0 -0 -0.167881)
(0 -0 -0.164506)
(0 -0 -0.161151)
(0 -0 -0.157774)
(0 -0 -0.154343)
(0 -0 -0.150836)
(0 -0 -0.147237)
(0 -0 -0.143537)
(0 -0 -0.139734)
(0 -0 -0.135824)
(0 -0 -0.131805)
(0 4.74886e-20 -0.255592)
(0 -0 -0.241903)
(0 -0 -0.230471)
(0 -0 -0.22062)
(0 -0 -0.211941)
(0 -0 -0.204324)
(0 -0 -0.197639)
(0 -0 -0.191725)
(0 -0 -0.18643)
(0 -0 -0.18162)
(0 -0 -0.177181)
(0 -0 -0.173016)
(0 -0 -0.169043)
(0 -0 -0.165195)
(0 -0 -0.161418)
(0 -0 -0.157669)
(0 -0 -0.153913)
(0 -0 -0.150124)
(0 -0 -0.146285)
(0 -0 -0.142383)
(0 -0 -0.138411)
(0 -0 -0.134365)
(0 -0 -0.13024)
(0 3.35919e-22 -0.246505)
(0 -0 -0.235853)
(0 -0 -0.226537)
(0 -0 -0.218082)
(0 -0 -0.210279)
(0 -0 -0.203139)
(0 -0 -0.196645)
(0 -0 -0.190724)
(0 -0 -0.185295)
(0 -0 -0.180274)
(0 -0 -0.175582)
(0 -0 -0.171147)
(0 -0 -0.166904)
(0 -0 -0.1628)
(0 -0 -0.158787)
(0 -0 -0.154826)
(0 -0 -0.150887)
(0 -0 -0.146943)
(0 -0 -0.142977)
(0 -0 -0.138976)
(0 -0 -0.134933)
(0 -0 -0.130842)
(0 -0 -0.126697)
(0 -3.15497e-22 -0.229276)
(0 -0 -0.221767)
(0 -0 -0.214915)
(0 -0 -0.208339)
(0 -0 -0.201963)
(0 -0 -0.19587)
(0 -0 -0.190113)
(0 -0 -0.184693)
(0 -0 -0.179585)
(0 -0 -0.174756)
(0 -0 -0.170164)
(0 -0 -0.165768)
(0 -0 -0.161526)
(0 -0 -0.157401)
(0 -0 -0.153357)
(0 -0 -0.149366)
(0 -0 -0.145403)
(0 -0 -0.141448)
(0 -0 -0.137485)
(0 -0 -0.133504)
(0 -0 -0.129498)
(0 -0 -0.125462)
(0 -0 -0.121391)
(0 3.77884e-20 -0.206361)
(0 -0 -0.201766)
(0 -0 -0.19737)
(0 -0 -0.192825)
(0 -0 -0.188135)
(0 -0 -0.183412)
(0 -0 -0.178747)
(0 -0 -0.174185)
(0 -0 -0.169748)
(0 -0 -0.165438)
(0 -0 -0.161249)
(0 -0 -0.157167)
(0 -0 -0.153174)
(0 -0 -0.14925)
(0 -0 -0.145377)
(0 -0 -0.141536)
(0 -0 -0.137712)
(0 -0 -0.133891)
(0 -0 -0.130063)
(0 -0 -0.126221)
(0 -0 -0.122362)
(0 -0 -0.118482)
(0 -0 -0.114577)
(0 -3.73499e-20 -0.18019)
(0 -0 -0.178068)
(0 -0 -0.175878)
(0 -0 -0.173261)
(0 -0 -0.170269)
(0 -0 -0.167015)
(0 -0 -0.163601)
(0 -0 -0.160095)
(0 -0 -0.156543)
(0 -0 -0.152975)
(0 -0 -0.149408)
(0 -0 -0.145851)
(0 -0 -0.142306)
(0 -0 -0.13877)
(0 -0 -0.135238)
(0 -0 -0.131705)
(0 -0 -0.128164)
(0 -0 -0.12461)
(0 -0 -0.121038)
(0 -0 -0.117446)
(0 -0 -0.113834)
(0 -0 -0.110203)
(0 -0 -0.106549)
(0 -3.22922e-20 -0.152947)
(0 -0 -0.152757)
(0 -0 -0.152372)
(0 -0 -0.151417)
(0 -0 -0.149957)
(0 -0 -0.148095)
(0 -0 -0.145924)
(0 -0 -0.143519)
(0 -0 -0.140935)
(0 -0 -0.138216)
(0 -0 -0.135395)
(0 -0 -0.132493)
(0 -0 -0.129529)
(0 -0 -0.126511)
(0 -0 -0.123447)
(0 -0 -0.120342)
(0 -0 -0.117197)
(0 -0 -0.114014)
(0 -0 -0.110797)
(0 -0 -0.107546)
(0 -0 -0.104265)
(0 -0 -0.100959)
(0 -0 -0.0976275)
(0 3.21537e-20 -0.126418)
(0 -0 -0.1276)
(0 -0 -0.128562)
(0 -0 -0.12891)
(0 -0 -0.128709)
(0 -0 -0.128041)
(0 -0 -0.126984)
(0 -0 -0.125605)
(0 -0 -0.123961)
(0 -0 -0.122097)
(0 -0 -0.120051)
(0 -0 -0.117855)
(0 -0 -0.115532)
(0 -0 -0.113102)
(0 -0 -0.110579)
(0 -0 -0.107975)
(0 -0 -0.105299)
(0 -0 -0.102559)
(0 -0 -0.0997628)
(0 -0 -0.0969164)
(0 -0 -0.094027)
(0 -0 -0.0911016)
(0 -0 -0.0881434)
(0 -0 -0.10191)
(0 -0 -0.10395)
(0 -0 -0.105802)
(0 -0 -0.107073)
(0 -0 -0.107812)
(0 -0 -0.108078)
(0 -0 -0.107932)
(0 -0 -0.107427)
(0 -0 -0.106611)
(0 -0 -0.105528)
(0 -0 -0.104214)
(0 -0 -0.102701)
(0 -0 -0.101017)
(0 -0 -0.0991842)
(0 -0 -0.0972216)
(0 -0 -0.0951454)
(0 -0 -0.0929696)
(0 -0 -0.090706)
(0 -0 -0.0883652)
(0 -0 -0.0859571)
(0 -0 -0.0834915)
(0 -0 -0.0809779)
(0 -0 -0.0784219)
(0 -2.48941e-20 -0.0802432)
(0 -0 -0.0827077)
(0 -0 -0.0850507)
(0 -0 -0.086887)
(0 -0 -0.0882491)
(0 -0 -0.0891756)
(0 -0 -0.0897064)
(0 -0 -0.0898809)
(0 -0 -0.0897366)
(0 -0 -0.0893086)
(0 -0 -0.0886289)
(0 -0 -0.0877266)
(0 -0 -0.0866275)
(0 -0 -0.0853544)
(0 -0 -0.0839275)
(0 -0 -0.0823646)
(0 -0 -0.0806813)
(0 -0 -0.0788917)
(0 -0 -0.0770084)
(0 -0 -0.0750432)
(0 -0 -0.0730075)
(0 -0 -0.0709125)
(0 -0 -0.0687654)
(0 2.47896e-20 -0.0618035)
(0 -0 -0.0643605)
(0 -0 -0.0668717)
(0 -0 -0.0689724)
(0 -0 -0.0706781)
(0 -0 -0.0720091)
(0 -0 -0.0729885)
(0 -0 -0.0736415)
(0 -0 -0.0739943)
(0 -0 -0.0740726)
(0 -0 -0.0739012)
(0 -0 -0.073504)
(0 -0 -0.0729029)
(0 -0 -0.0721184)
(0 -0 -0.0711693)
(0 -0 -0.0700726)
(0 -0 -0.0688439)
(0 -0 -0.0674976)
(0 -0 -0.0660468)
(0 -0 -0.0645038)
(0 -0 -0.0628808)
(0 -0 -0.0611895)
(0 -0 -0.0594381)
(0 2.08792e-20 -0.0466278)
(0 -0 -0.0490481)
(0 -0 -0.0514932)
(0 -0 -0.0536269)
(0 -0 -0.0554511)
(0 -0 -0.0569717)
(0 -0 -0.0581988)
(0 -0 -0.0591456)
(0 -0 -0.0598276)
(0 -0 -0.0602616)
(0 -0 -0.0604648)
(0 -0 -0.0604549)
(0 -0 -0.0602488)
(0 -0 -0.0598633)
(0 -0 -0.059314)
(0 -0 -0.0586159)
(0 -0 -0.0577832)
(0 -0 -0.056829)
(0 -0 -0.0557657)
(0 -0 -0.0546053)
(0 -0 -0.0533595)
(0 -0 -0.05204)
(0 -0 -0.0506551)
(0 -2.0792e-20 -0.0345072)
(0 -0 -0.0366532)
(0 -0 -0.038881)
(0 -0 -0.040888)
(0 -0 -0.0426662)
(0 -0 -0.0442121)
(0 -0 -0.0455261)
(0 -0 -0.0466123)
(0 -0 -0.0474776)
(0 -0 -0.0481311)
(0 -0 -0.0485832)
(0 -0 -0.0488453)
(0 -0 -0.0489295)
(0 -0 -0.0488479)
(0 -0 -0.0486128)
(0 -0 -0.0482361)
(0 -0 -0.0477296)
(0 -0 -0.0471046)
(0 -0 -0.0463719)
(0 -0 -0.0455423)
(0 -0 -0.0446263)
(0 -0 -0.0436348)
(0 -0 -0.0425759)
(0 -0 -0.0250845)
(0 -0 -0.0268923)
(0 -0 -0.028822)
(0 -0 -0.0306063)
(0 -0 -0.0322319)
(0 -0 -0.0336894)
(0 -0 -0.0349732)
(0 -0 -0.036081)
(0 -0 -0.0370136)
(0 -0 -0.037774)
(0 -0 -0.038367)
(0 -0 -0.0387989)
(0 -0 -0.039077)
(0 -0 -0.0392094)
(0 -0 -0.0392048)
(0 -0 -0.0390718)
(0 -0 -0.0388196)
(0 -0 -0.0384571)
(0 -0 -0.0379932)
(0 -0 -0.0374368)
(0 -0 -0.0367972)
(0 -0 -0.0360839)
(0 -0 -0.0353041)
(0 -0 -0.017936)
(0 -0 -0.019395)
(0 -0 -0.0209996)
(0 -0 -0.022517)
(0 -0 -0.023932)
(0 -0 -0.0252325)
(0 -0 -0.0264096)
(0 -0 -0.0274576)
(0 -0 -0.0283731)
(0 -0 -0.0291548)
(0 -0 -0.0298035)
(0 -0 -0.0303215)
(0 -0 -0.0307123)
(0 -0 -0.0309804)
(0 -0 -0.0311311)
(0 -0 -0.0311705)
(0 -0 -0.0311047)
(0 -0 -0.0309405)
(0 -0 -0.0306846)
(0 -0 -0.0303441)
(0 -0 -0.0299266)
(0 -0 -0.0294401)
(0 -0 -0.0288906)
(0 -1.18234e-22 -0.0126316)
(0 -0 -0.0137656)
(0 -0 -0.0150548)
(0 -0 -0.0162987)
(0 -0 -0.0174824)
(0 -0 -0.0185936)
(0 -0 -0.0196223)
(0 -0 -0.0205611)
(0 -0 -0.0214042)
(0 -0 -0.0221481)
(0 -0 -0.0227907)
(0 -0 -0.0233315)
(0 -0 -0.0237711)
(0 -0 -0.0241114)
(0 -0 -0.0243551)
(0 -0 -0.0245056)
(0 -0 -0.024567)
(0 -0 -0.0245436)
(0 -0 -0.0244404)
(0 -0 -0.0242625)
(0 -0 -0.0240159)
(0 -0 -0.023707)
(0 -0 -0.0233408)
(0 -6.91427e-21 -0.0087738)
(0 -0 -0.00962536)
(0 -0 -0.0106309)
(0 -0 -0.0116192)
(0 -0 -0.012577)
(0 -0 -0.0134931)
(0 -0 -0.0143579)
(0 -0 -0.0151635)
(0 -0 -0.0159037)
(0 -0 -0.0165736)
(0 -0 -0.0171694)
(0 -0 -0.0176891)
(0 -0 -0.0181314)
(0 -0 -0.0184962)
(0 -0 -0.0187842)
(0 -0 -0.018997)
(0 -0 -0.0191366)
(0 -0 -0.0192059)
(0 -0 -0.0192078)
(0 -0 -0.019146)
(0 -0 -0.0190248)
(0 -0 -0.0188495)
(0 -0 -0.0186236)
(0 1.32891e-20 -0.00601881)
(0 -0 -0.00663757)
(0 -0 -0.00740174)
(0 -0 -0.00816572)
(0 -0 -0.00891878)
(0 -0 -0.00965131)
(0 -0 -0.010355)
(0 -0 -0.0110226)
(0 -0 -0.0116479)
(0 -0 -0.0122257)
(0 -0 -0.0127519)
(0 -0 -0.0132233)
(0 -0 -0.0136377)
(0 -0 -0.0139938)
(0 -0 -0.0142909)
(0 -0 -0.0145293)
(0 -0 -0.0147095)
(0 -0 -0.0148331)
(0 -0 -0.0149016)
(0 -0 -0.0149174)
(0 -0 -0.0148836)
(0 -0 -0.014804)
(0 -0 -0.0146812)
(0 -6.37696e-21 -0.00408357)
(0 -0 -0.00451848)
(0 -0 -0.00508591)
(0 -0 -0.00566241)
(0 -0 -0.00623968)
(0 -0 -0.00681008)
(0 -0 -0.00736679)
(0 -0 -0.00790369)
(0 -0 -0.00841523)
(0 -0 -0.00889656)
(0 -0 -0.00934356)
(0 -0 -0.00975283)
(0 -0 -0.0101217)
(0 -0 -0.0104482)
(0 -0 -0.0107309)
(0 -0 -0.0109692)
(0 -0 -0.0111628)
(0 -0 -0.011312)
(0 -0 -0.0114176)
(0 -0 -0.0114807)
(0 -0 -0.0115036)
(0 -0 -0.0114889)
(0 -0 -0.0114385)
(0 -0 -0.00274424)
(0 -0 -0.00303923)
(0 -0 -0.00345184)
(0 -0 -0.00387753)
(0 -0 -0.00431017)
(0 -0 -0.00474396)
(0 -0 -0.00517364)
(0 -0 -0.00559431)
(0 -0 -0.00600136)
(0 -0 -0.00639061)
(0 -0 -0.00675833)
(0 -0 -0.00710129)
(0 -0 -0.00741679)
(0 -0 -0.00770261)
(0 -0 -0.00795707)
(0 -0 -0.00817893)
(0 -0 -0.00836742)
(0 -0 -0.0085222)
(0 -0 -0.00864332)
(0 -0 -0.0087313)
(0 -0 -0.00878737)
(0 -0 -0.00881365)
(0 -0 -0.00881112)
(0 -8.11024e-23 -0.00182956)
(0 -0 -0.00202154)
(0 -0 -0.0023159)
(0 -0 -0.00262409)
(0 -0 -0.00294178)
(0 -0 -0.00326475)
(0 -0 -0.00358913)
(0 -0 -0.00391119)
(0 -0 -0.00422732)
(0 -0 -0.00453409)
(0 -0 -0.00482837)
(0 -0 -0.00510734)
(0 -0 -0.0053685)
(0 -0 -0.00560972)
(0 -0 -0.00582923)
(0 -0 -0.00602562)
(0 -0 -0.00619785)
(0 -0 -0.00634519)
(0 -0 -0.00646727)
(0 -0 -0.00656412)
(0 -0 -0.00663643)
(0 -0 -0.00668576)
(0 -0 -0.00671254)
(0 -0 -0.00121217)
(0 -0 -0.00133063)
(0 -0 -0.00153694)
(0 -0 -0.00175603)
(0 -0 -0.00198499)
(0 -0 -0.00222086)
(0 -0 -0.00246088)
(0 -0 -0.00270237)
(0 -0 -0.00294259)
(0 -0 -0.0031789)
(0 -0 -0.0034088)
(0 -0 -0.00362994)
(0 -0 -0.00384019)
(0 -0 -0.00403765)
(0 -0 -0.00422068)
(0 -0 -0.00438787)
(0 -0 -0.0045381)
(0 -0 -0.00467048)
(0 -0 -0.00478443)
(0 -0 -0.00487967)
(0 -0 -0.00495657)
(0 -0 -0.00501628)
(0 -0 -0.00505887)
(0 4.45894e-21 -0.000799628)
(0 -0 -0.000867174)
(0 -0 -0.00100933)
(0 -0 -0.00116244)
(0 -0 -0.00132462)
(0 -0 -0.00149384)
(0 -0 -0.00166822)
(0 -0 -0.00184588)
(0 -0 -0.00202486)
(0 -0 -0.00220319)
(0 -0 -0.00237895)
(0 -0 -0.00255029)
(0 -0 -0.0027155)
(0 -0 -0.00287297)
(0 -0 -0.00302127)
(0 -0 -0.00315914)
(0 -0 -0.00328549)
(0 -0 -0.00339944)
(0 -0 -0.00350029)
(0 -0 -0.00358766)
(0 -0 -0.00366172)
(0 -0 -0.00372338)
(0 -0 -0.00377255)
(0 -8.60113e-21 -0.000526244)
(0 -0 -0.000559513)
(0 -0 -0.00065581)
(0 -0 -0.000761086)
(0 -0 -0.00087413)
(0 -0 -0.00099357)
(0 -0 -0.00111814)
(0 -0 -0.00124658)
(0 -0 -0.00137754)
(0 -0 -0.0015096)
(0 -0 -0.00164135)
(0 -0 -0.00177141)
(0 -0 -0.00189843)
(0 -0 -0.00202114)
(0 -0 -0.00213836)
(0 -0 -0.002249)
(0 -0 -0.00235212)
(0 -0 -0.00244689)
(0 -0 -0.00253265)
(0 -0 -0.00260897)
(0 -0 -0.00267593)
(0 -0 -0.00273441)
(0 -0 -0.00278419)
(0 4.14343e-21 -0.000346265)
(0 -0 -0.000357255)
(0 -0 -0.000420938)
(0 -0 -0.000492365)
(0 -0 -0.00057008)
(0 -0 -0.000653164)
(0 -0 -0.000740795)
(0 -0 -0.000832176)
(0 -0 -0.000926404)
(0 -0 -0.00102252)
(0 -0 -0.00111952)
(0 -0 -0.0012164)
(0 -0 -0.00131216)
(0 -0 -0.00140582)
(0 -0 -0.00149645)
(0 -0 -0.00158319)
(0 -0 -0.00166523)
(0 -0 -0.00174186)
(0 -0 -0.00181249)
(0 -0 -0.00187672)
(0 -0 -0.00193462)
(0 -0 -0.001987)
(0 -0 -0.00203398)
(0 -0 -0.000227496)
(0 -0 -0.000225696)
(0 -0 -0.000267317)
(0 -0 -0.000314123)
(0 -0 -0.000367138)
(0 -0 -0.000424263)
(0 -0 -0.000485094)
(0 -0 -0.000549189)
(0 -0 -0.000615991)
(0 -0 -0.000684876)
(0 -0 -0.00075517)
(0 -0 -0.000826167)
(0 -0 -0.000897147)
(0 -0 -0.000967389)
(0 -0 -0.00103619)
(0 -0 -0.00110287)
(0 -0 -0.00116679)
(0 -0 -0.00122738)
(0 -0 -0.00128413)
(0 -0 -0.00133669)
(0 -0 -0.00138515)
(0 -0 -0.0014302)
(0 -0 -0.00147199)
(0 -0 -0.000140399)
(0 -0 -0.000167686)
(0 -0 -0.000198815)
(0 -0 -0.00023359)
(0 -0 -0.000272454)
(0 -0 -0.000314198)
(0 -0 -0.000358629)
(0 -0 -0.00040543)
(0 -0 -0.000454211)
(0 -0 -0.000504532)
(0 -0 -0.000555918)
(0 -0 -0.000607864)
(0 -0 -0.000659856)
(0 -0 -0.000711377)
(0 -0 -0.000761918)
(0 -0 -0.00081099)
(0 -0 -0.000858136)
(0 -0 -0.000902954)
(0 -0 -0.000945164)
(0 -0 -0.000984818)
(0 -0 -0.00102252)
(0 -0 -0.00105793)
(-5.19677e-21 -1.99236e-20 -0.516448)
(4.46955e-20 -2.83324e-20 -0.440379)
(1.98152e-22 -2.37259e-20 -0.366136)
(4.67366e-20 5.36872e-21 -0.293483)
(-3.37628e-22 4.71165e-20 -0.221268)
(-8.22944e-22 -1.00809e-19 -0.148341)
(8.12899e-20 3.72578e-20 -0.0804974)
(1.39211e-20 -1.29752e-19 -0.499536)
(-4.23031e-20 4.32212e-19 -0.441901)
(-3.02905e-20 -3.35312e-19 -0.383504)
(-8.98358e-20 1.43693e-20 -0.324485)
(3.68438e-22 -1.95385e-22 -0.265298)
(4.59209e-20 2.55193e-20 -0.208097)