/*--------------------------------*- C++ -*----------------------------------*\
| =========                 |                                                 |
| \\      /  F ield         | OpenFOAM: The Open Source CFD Toolbox           |
|  \\    /   O peration     | Version:  2412                                  |
|   \\  /    A nd           | Website:  www.openfoam.com                      |
|    \\/     M anipulation  |                                                 |
\*---------------------------------------------------------------------------*/
FoamFile
{
    version     2.0;
    format      ascii;
    arch        "LSB;label=32;scalar=64";
    class       surfaceScalarField;
    location    "29";
    object      phi;
}
// * * * * * * * * * * * * * * * * * * * * * * * * * * * * * * * * * * * * * //

dimensions      [0 3 -1 0 0 0 0];

oriented        oriented;

internalField   nonuniform List<scalar> 
10423
(
0.00519976
0.000240668
-0.00519986
0.0051998
0.000247801
0.00520001
0.000255193
0.00520039
0.000262849
0.00520096
0.000270773
0.00520174
0.000278972
0.00520275
0.000287448
0.005204
0.000296208
0.00520553
0.000305253
0.00520734
0.000314588
0.00520947
0.000324215
0.00521194
0.000334135
0.00521478
0.000344349
0.00521802
0.000354855
0.00522169
0.00036565
0.00037673
0.0052069
0.00024052
-0.00520675
0.0052072
0.000247501
0.00520766
0.000254727
0.00520831
0.000262202
0.00520915
0.00026993
0.00521021
0.000277915
0.0052115
0.00028616
0.00521304
0.000294668
0.00521485
0.000303442
0.00521696
0.000312483
0.00521938
0.000321792
0.00522214
0.00033137
0.00522528
0.000341215
0.0052288
0.000351325
0.00523276
0.000361695
0.000372319
0.00521388
0.000240136
-0.0052135
0.00521442
0.000246959
0.00521514
0.000254014
0.00521603
0.000261304
0.00521713
0.000268831
0.00521845
0.000276599
0.00522
0.000284609
0.0052218
0.000292864
0.00522388
0.000301364
0.00522625
0.00031011
0.00522894
0.000319103
0.00523197
0.000328339
0.00523537
0.000337819
0.00523916
0.000347536
0.00524337
0.000357486
0.00036766
0.00522071
0.000239527
-0.0052201
0.00522148
0.000246189
0.00522242
0.000253069
0.00522356
0.000260171
0.00522489
0.000267494
0.00522645
0.000275042
0.00522824
0.000282816
0.00523029
0.000290815
0.00523262
0.000299041
0.00523523
0.000307493
0.00523817
0.000316169
0.00524144
0.000325067
0.00524507
0.000334184
0.00524909
0.000343514
0.00525353
0.00035305
0.000362784
0.00522738
0.000238706
-0.00522656
0.00522836
0.000245204
0.00522952
0.000251907
0.00523088
0.000258817
0.00523244
0.000265935
0.00523422
0.000273262
0.00523624
0.000280797
0.00523851
0.000288541
0.00524106
0.000296494
0.0052439
0.000304652
0.00524705
0.000313015
0.00525054
0.000321578
0.00525439
0.000330337
0.00525862
0.000339286
0.00526325
0.000348417
0.00035772
0.00523388
0.000237686
-0.00523286
0.00523507
0.000244017
0.00523644
0.000250541
0.005238
0.000257258
0.00523976
0.00026417
0.00524175
0.000271274
0.00524397
0.000278572
0.00524645
0.000286061
0.00524921
0.000293741
0.00525225
0.000301609
0.0052556
0.000309661
0.00525929
0.000317893
0.00526333
0.000326301
0.00526773
0.000334876
0.00527254
0.00034361
0.000352493
0.00524023
0.000236479
-0.00523902
0.0052416
0.000242642
0.00524316
0.000248985
0.00524491
0.000255509
0.00524686
0.000262212
0.00524904
0.000269095
0.00525146
0.000276156
0.00525413
0.000283392
0.00525707
0.000290802
0.0052603
0.000298382
0.00526383
0.000306128
0.00526769
0.000314035
0.00527189
0.000322098
0.00527646
0.000330307
0.00528141
0.000338654
0.000347129
0.0052464
0.000235096
-0.00524502
0.00524796
0.00024109
0.00524969
0.000247252
0.00525162
0.000253582
0.00525375
0.000260079
0.0052561
0.00026674
0.00525869
0.000273565
0.00526154
0.000280551
0.00526464
0.000287694
0.00526804
0.00029499
0.00527173
0.000302435
0.00527574
0.000310023
0.00528009
0.000317748
0.0052848
0.0003256
0.00528988
0.000333571
0.000341648
0.00525242
0.000233549
-0.00525087
0.00525413
0.000239373
0.00525603
0.000245355
0.00525812
0.000251491
0.00526042
0.000257782
0.00526293
0.000264225
0.00526568
0.000270816
0.00526868
0.000277554
0.00527194
0.000284433
0.00527548
0.000291451
0.00527931
0.0002986
0.00528346
0.000305876
0.00528794
0.000313271
0.00529276
0.000320776
0.00529795
0.00032838
0.000336072
0.00525826
0.00023185
-0.00525657
0.00526013
0.000237505
0.00526218
0.000243305
0.00526442
0.00024925
0.00526687
0.000255337
0.00526953
0.000261562
0.00527243
0.000267923
0.00527556
0.000274416
0.00527896
0.000281037
0.00528263
0.00028778
0.00528659
0.000294641
0.00529085
0.000301612
0.00529544
0.000308685
0.00530036
0.000315851
0.00530564
0.000323101
0.000330421
0.00526395
0.000230008
-0.00526211
0.00526596
0.000235495
0.00526815
0.000241116
0.00527053
0.000246871
0.00527311
0.000252755
0.00527591
0.000258766
0.00527893
0.000264899
0.00528219
0.000271152
0.00528571
0.000277519
0.0052895
0.000283994
0.00529357
0.000290572
0.00529793
0.000297246
0.00530261
0.000304006
0.00530762
0.000310845
0.00531297
0.00031775
0.00032471
0.00526947
0.000228036
-0.0052675
0.00527161
0.000233355
0.00527393
0.000238799
0.00527644
0.000244365
0.00527914
0.000250049
0.00528206
0.000255849
0.0052852
0.000261759
0.00528857
0.000267776
0.0052922
0.000273894
0.00529609
0.000280108
0.00530025
0.00028641
0.0053047
0.000292794
0.00530946
0.000299251
0.00531453
0.000305771
0.00531994
0.000312344
0.000318957
0.00527484
0.000225942
-0.00527274
0.00527709
0.000231095
0.00527953
0.000236364
0.00528215
0.000241744
0.00528497
0.000247232
0.00528799
0.000252823
0.00529124
0.000258515
0.00529471
0.000264301
0.00529843
0.000270175
0.00530241
0.000276133
0.00530665
0.000282168
0.00531117
0.00028827
0.00531599
0.000294433
0.00532112
0.000300646
0.00532656
0.000306898
0.000313177
0.00528004
0.000223737
-0.00527784
0.00528241
0.000228727
0.00528495
0.000233822
0.00528768
0.000239019
0.0052906
0.000244313
0.00529372
0.000249701
0.00529705
0.000255178
0.00530062
0.000260738
0.00530442
0.000266376
0.00530847
0.000272085
0.00531278
0.000277858
0.00531736
0.000283688
0.00532222
0.000289566
0.00532739
0.000295482
0.00533286
0.000301424
0.000307381
0.00528509
0.00022143
-0.00528279
0.00528756
0.000226258
0.0052902
0.000231183
0.00529302
0.0002362
0.00529603
0.000241305
0.00529924
0.000246493
0.00530265
0.00025176
0.00530629
0.0002571
0.00531016
0.000262506
0.00531427
0.000267973
0.00531864
0.000273494
0.00532327
0.000279059
0.00532817
0.000284662
0.00533336
0.000290291
0.00533885
0.000295936
0.000301584
0.00528999
0.000219031
-0.00528759
0.00529255
0.0002237
0.00529528
0.000228457
0.00529818
0.000233297
0.00530127
0.000238217
0.00530455
0.00024321
0.00530804
0.000248271
0.00531174
0.000253396
0.00531567
0.000258578
0.00531984
0.00026381
0.00532424
0.000269085
0.00532891
0.000274395
0.00533384
0.000279732
0.00533904
0.000285085
0.00534454
0.000290443
0.000295794
0.00529475
0.000216547
-0.00529226
0.00529739
0.000221061
0.00530019
0.000225653
0.00530317
0.000230321
0.00530633
0.000235058
0.00530968
0.000239861
0.00531323
0.000244723
0.00531698
0.000249638
0.00532096
0.000254602
0.00532516
0.000259606
0.00532961
0.000264644
0.00533429
0.000269707
0.00533924
0.000274787
0.00534445
0.000279874
0.00534994
0.000284957
0.000290024
0.00529936
0.000213988
-0.0052968
0.00530207
0.000218348
0.00530494
0.00022278
0.00530798
0.000227278
0.0053112
0.000231838
0.00531461
0.000236455
0.00531821
0.000241122
0.00532201
0.000245835
0.00532603
0.000250587
0.00533026
0.00025537
0.00533473
0.000260178
0.00533943
0.000265003
0.00534438
0.000269836
0.00534959
0.000274667
0.00535506
0.000279486
0.000284281
0.00530383
0.000211362
-0.0053012
0.0053066
0.000215572
0.00530954
0.000219846
0.00531264
0.000224179
0.00531591
0.000228566
0.00531936
0.000233001
0.005323
0.00023748
0.00532684
0.000241995
0.00533089
0.000246542
0.00533515
0.000251112
0.00533963
0.000255698
0.00534434
0.000260293
0.00534929
0.000264888
0.00535448
0.000269474
0.00535993
0.000274039
0.000278573
0.00530816
-0.00530547
0.000208676
0.00531099
0.000212739
0.00531398
0.000216859
0.00531713
0.00022103
0.00532044
0.000225249
0.00532394
0.000229508
0.00532761
0.000233803
0.00533148
0.000238127
0.00533555
0.000242475
0.00533982
0.000246839
0.00534431
0.000251211
0.00534902
0.000255585
0.00535395
0.000259951
0.00535913
0.000264301
0.00536454
0.000268624
0.000272908
0.00529282
4.2368e-06
0.00529259
1.23574e-05
0.00529222
2.0026e-05
0.00529172
2.72976e-05
0.00529109
3.42211e-05
0.00529034
4.08389e-05
0.00528948
4.71853e-05
0.00528851
5.32882e-05
5.91794e-05
0.00529282
4.3123e-06
0.0052926
1.25776e-05
0.00529224
2.03823e-05
0.00529176
2.77823e-05
0.00529115
3.4827e-05
0.00529043
4.15594e-05
0.0052896
4.80143e-05
0.00528867
5.42197e-05
0.00528764
6.02078e-05
0.00528652
6.60364e-05
0.00528531
7.18133e-05
0.005284
7.77097e-05
0.00528258
8.395e-05
0.00528104
9.07736e-05
0.00527935
9.8377e-05
0.00527749
0.000106856
0.00527543
0.000116164
0.00527316
0.000126106
0.00527066
0.000136359
0.00526796
0.000146525
0.00526507
0.000156191
0.00526202
0.00016499
0.00525886
0.000172642
0.00525561
0.000178986
0.00525235
0.000183975
0.00524909
0.00018767
0.00524588
0.000190213
0.00524276
0.000191796
0.00523973
0.00019264
0.00523682
0.000192962
0.00523404
0.000192963
0.00523138
0.000192818
0.00522886
0.000192664
0.00522646
0.000192605
0.00522419
0.000192712
0.00522203
0.000193029
0.00521998
0.000193576
0.00521804
0.000194356
0.00521619
0.000195359
0.00521445
0.000196567
0.0052128
0.000197958
0.00521124
0.000199506
0.00520977
0.000201185
0.0052084
0.000202971
0.00520712
0.000204839
0.00520593
0.000206767
0.00520483
0.000208737
0.00520384
0.000210729
0.00520294
0.00021273
0.00520215
0.000214723
0.00520147
0.000216699
0.00520089
0.000218644
0.00520043
0.00022055
0.00520009
0.000222409
0.000224212
0.00529282
4.38502e-06
0.00529261
1.27897e-05
0.00529227
2.07255e-05
0.0052918
2.82491e-05
0.00529122
3.54103e-05
0.00529052
4.22529e-05
0.00528973
4.88118e-05
0.00528883
5.51153e-05
0.00528784
6.11962e-05
0.00528676
6.71136e-05
0.0052856
7.29784e-05
0.00528434
7.89672e-05
0.00528298
8.53114e-05
0.0052815
9.22574e-05
0.00527987
0.000100008
0.00527806
0.000108659
0.00527606
0.000118165
0.00527385
0.000128319
0.00527142
0.00013879
0.00526878
0.000149165
0.00526595
0.000159018
0.00526297
0.00016797
0.00525988
0.000175734
0.00525672
0.000182144
0.00525354
0.000187154
0.00525038
0.000190827
0.00524729
0.00019331
0.00524428
0.000194804
0.00524138
0.000195536
0.00523861
0.000195732
0.00523598
0.000195599
0.00523348
0.000195315
0.00523112
0.000195024
0.00522889
0.000194831
0.0052268
0.00019481
0.00522482
0.000195005
0.00522296
0.000195436
0.00522121
0.000196106
0.00521956
0.000197004
0.00521802
0.000198112
0.00521657
0.000199405
0.00521522
0.000200858
0.00521396
0.000202442
0.0052128
0.000204133
0.00521173
0.000205906
0.00521076
0.000207739
0.00520989
0.00020961
0.00520911
0.000211503
0.00520844
0.0002134
0.00520788
0.000215288
0.00520742
0.000217155
0.00520708
0.000218988
0.00520685
0.000220779
0.00520674
0.00022252
0.000224201
0.00529282
4.45495e-06
0.00529262
1.29936e-05
0.00529229
2.10554e-05
0.00529184
2.86977e-05
0.00529128
3.59708e-05
0.00529061
4.2919e-05
0.00528985
4.95775e-05
0.00528899
5.59749e-05
0.00528804
6.21443e-05
0.00528701
6.81463e-05
0.00528589
7.4095e-05
0.00528469
8.01727e-05
0.00528338
8.66178e-05
0.00528195
9.36842e-05
0.00528038
0.00010158
0.00527864
0.000110404
0.0052767
0.000120106
0.00527454
0.000130474
0.00527217
0.000141162
0.00526959
0.000151744
0.00526683
0.000161781
0.00526391
0.000170882
0.0052609
0.000178753
0.00525782
0.000185222
0.00525473
0.000190243
0.00525167
0.000193884
0.00524868
0.000196298
0.00524579
0.000197693
0.00524303
0.000198304
0.0052404
0.000198363
0.00523791
0.000198086
0.00523557
0.000197656
0.00523337
0.00019722
0.00523131
0.000196887
0.00522939
0.000196732
0.0052276
0.0001968
0.00522592
0.000197111
0.00522436
0.000197667
0.00522291
0.000198456
0.00522156
0.00019946
0.00522032
0.000200653
0.00521917
0.000202007
0.00521811
0.000203495
0.00521716
0.000205089
0.0052163
0.000206765
0.00521554
0.000208499
0.00521488
0.000210271
0.00521432
0.000212061
0.00521387
0.000213854
0.00521352
0.000215635
0.00521328
0.000217391
0.00521316
0.000219112
0.00521315
0.000220787
0.00521326
0.000222409
0.000223969
0.00529283
4.52206e-06
0.00529263
1.31893e-05
0.00529231
2.1372e-05
0.00529188
2.91281e-05
0.00529135
3.65085e-05
0.00529071
4.35577e-05
0.00528997
5.03114e-05
0.00528915
5.67983e-05
0.00528824
6.30519e-05
0.00528725
6.91343e-05
0.00528619
7.51631e-05
0.00528503
8.13261e-05
0.00528378
8.78691e-05
0.00528241
9.50538e-05
0.0052809
0.000103094
0.00527921
0.00011209
0.00527733
0.000121989
0.00527523
0.00013257
0.00527292
0.000143475
0.0052704
0.000154264
0.0052677
0.000164483
0.00526485
0.000173729
0.00526191
0.000181699
0.00525891
0.000188219
0.00525591
0.000193244
0.00525295
0.000196844
0.00525007
0.000199178
0.0052473
0.000200463
0.00524466
0.000200942
0.00524217
0.000200856
0.00523983
0.000200426
0.00523764
0.000199842
0.00523561
0.000199254
0.00523372
0.000198774
0.00523197
0.00019848
0.00523036
0.000198415
0.00522887
0.000198602
0.00522749
0.00019904
0.00522623
0.000199718
0.00522508
0.000200615
0.00522403
0.000201705
0.00522307
0.000202958
0.00522222
0.000204347
0.00522147
0.000205843
0.00522081
0.00020742
0.00522026
0.000209055
0.0052198
0.000210725
0.00521945
0.000212412
0.00521921
0.000214099
0.00521907
0.000215772
0.00521904
0.000217418
0.00521913
0.000219025
0.00521933
0.000220584
0.00521966
0.000222086
0.000223525
0.00529283
4.58634e-06
0.00529264
1.33767e-05
0.00529234
2.16752e-05
0.00529193
2.95401e-05
0.00529141
3.7023e-05
0.0052908
4.41688e-05
0.0052901
5.10133e-05
0.00528931
5.75853e-05
0.00528845
6.39189e-05
0.0052875
7.00776e-05
0.00528648
7.61825e-05
0.00528538
8.24272e-05
0.00528419
8.90654e-05
0.00528287
9.63664e-05
0.00528142
0.00010455
0.00527979
0.000113718
0.00527796
0.000123814
0.00527592
0.000134609
0.00527367
0.000145731
0.00527121
0.000156725
0.00526857
0.000167123
0.00526579
0.00017651
0.00526291
0.000184574
0.00525999
0.000191138
0.00525708
0.000196157
0.00525422
0.000199705
0.00525145
0.00020195
0.00524879
0.000203115
0.00524628
0.000203453
0.00524393
0.000203211
0.00524173
0.00020262
0.0052397
0.000201873
0.00523783
0.000201126
0.00523611
0.000200494
0.00523454
0.000200054
0.0052331
0.000199853
0.00523179
0.000199911
0.0052306
0.000200229
0.00522953
0.000200793
0.00522856
0.000201581
0.0052277
0.000202565
0.00522694
0.000203717
0.00522628
0.000205005
0.00522573
0.000206401
0.00522527
0.000207878
0.00522491
0.000209412
0.00522466
0.00021098
0.0052245
0.000212563
0.00522446
0.000214144
0.00522452
0.000215708
0.0052247
0.000217243
0.00522499
0.000218737
0.00522539
0.00022018
0.00522591
0.000221564
0.000222881
0.00529283
4.64777e-06
0.00529265
1.35558e-05
0.00529236
2.19649e-05
0.00529197
2.99338e-05
0.00529148
3.75145e-05
0.0052909
4.47522e-05
0.00529023
5.16831e-05
0.00528947
5.83359e-05
0.00528865
6.47451e-05
0.00528775
7.09759e-05
0.00528678
7.7153e-05
0.00528573
8.34761e-05
0.00528459
9.02067e-05
0.00528333
9.76222e-05
0.00528194
0.000105948
0.00528037
0.000115289
0.0052786
0.000125583
0.00527661
0.000136591
0.00527441
0.00014793
0.00527201
0.000159129
0.00526943
0.000169703
0.00526671
0.000179226
0.00526391
0.000187379
0.00526107
0.000193979
0.00525824
0.000198983
0.00525548
0.00020247
0.00525281
0.000204615
0.00525028
0.00020565
0.0052479
0.000205835
0.00524568
0.000205429
0.00524363
0.000204667
0.00524175
0.00020375
0.00524004
0.000202838
0.00523849
0.000202047
0.00523708
0.000201458
0.00523582
0.000201116
0.00523469
0.000201043
0.00523368
0.000201237
0.00523279
0.000201684
0.00523201
0.000202361
0.00523134
0.000203239
0.00523077
0.000204287
0.0052303
0.000205473
0.00522993
0.000206769
0.00522966
0.000208145
0.0052295
0.000209578
0.00522943
0.000211043
0.00522947
0.000212522
0.00522962
0.000213997
0.00522988
0.000215453
0.00523024
0.000216877
0.00523072
0.000218257
0.00523132
0.000219585
0.00523203
0.000220851
0.000222049
0.00529284
4.70635e-06
0.00529266
1.37266e-05
0.00529239
2.22412e-05
0.00529201
3.03091e-05
0.00529154
3.79828e-05
0.00529099
4.53079e-05
0.00529035
5.23207e-05
0.00528964
5.90499e-05
0.00528885
6.55305e-05
0.005288
7.18292e-05
0.00528708
7.80746e-05
0.00528608
8.44727e-05
0.00528499
9.12931e-05
0.0052838
9.88214e-05
0.00528245
0.000107289
0.00528094
0.000116802
0.00527923
0.000127294
0.0052773
0.000138518
0.00527516
0.000150074
0.00527281
0.000161476
0.00527029
0.000172224
0.00526764
0.00018188
0.0052649
0.000190115
0.00526214
0.000196743
0.0052594
0.000201723
0.00525673
0.000205138
0.00525417
0.000207172
0.00525175
0.000208066
0.0052495
0.00020809
0.00524742
0.00020751
0.00524552
0.00020657
0.00524379
0.000205475
0.00524224
0.000204391
0.00524085
0.000203436
0.00523961
0.000202693
0.00523852
0.000202207
0.00523757
0.000201999
0.00523674
0.000202067
0.00523603
0.000202395
0.00523543
0.00020296
0.00523494
0.00020373
0.00523455
0.000204674
0.00523426
0.000205758
0.00523408
0.000206953
0.005234
0.000208228
0.00523401
0.000209559
0.00523414
0.000210922
0.00523436
0.000212297
0.00523469
0.000213666
0.00523513
0.000215014
0.00523568
0.000216328
0.00523634
0.000217596
0.00523712
0.000218809
0.00523801
0.000219959
0.000221038
0.00529284
4.76208e-06
0.00529268
1.38891e-05
0.00529241
2.25039e-05
0.00529206
3.06658e-05
0.00529161
3.84279e-05
0.00529108
4.58358e-05
0.00529048
5.2926e-05
0.0052898
5.97273e-05
0.00528906
6.6275e-05
0.00528825
7.26376e-05
0.00528738
7.89474e-05
0.00528643
8.54171e-05
0.0052854
9.23246e-05
0.00528426
9.99641e-05
0.00528297
0.000108573
0.00528152
0.000118259
0.00527986
0.00012895
0.00527799
0.00014039
0.0052759
0.000152163
0.00527361
0.000163767
0.00527114
0.000174687
0.00526855
0.00018447
0.00526589
0.000192781
0.0052632
0.000199429
0.00526055
0.000204376
0.00525798
0.000207711
0.00525552
0.000209623
0.00525322
0.000210366
0.0052511
0.000210219
0.00524915
0.000209455
0.00524739
0.000208328
0.00524582
0.000207049
0.00524442
0.000205786
0.0052432
0.000204663
0.00524213
0.000203761
0.00524121
0.000203128
0.00524042
0.000202783
0.00523977
0.000202723
0.00523923
0.000202932
0.00523881
0.000203383
0.00523849
0.000204045
0.00523828
0.000204884
0.00523818
0.000205866
0.00523817
0.000206959
0.00523827
0.000208134
0.00523846
0.000209363
0.00523876
0.000210624
0.00523916
0.000211895
0.00523967
0.000213159
0.00524028
0.0002144
0.005241
0.000215605
0.00524184
0.000216762
0.00524278
0.000217863
0.00524384
0.000218898
0.000219861
0.00529284
4.81494e-06
0.00529269
1.40432e-05
0.00529244
2.2753e-05
0.0052921
3.10041e-05
0.00529168
3.88497e-05
0.00529118
4.63358e-05
0.0052906
5.3499e-05
0.00528996
6.03681e-05
0.00528926
6.69787e-05
0.0052885
7.3401e-05
0.00528767
7.97714e-05
0.00528678
8.63094e-05
0.0052858
9.33016e-05
0.00528472
0.000101051
0.00528349
0.0001098
0.00528209
0.000119659
0.00528049
0.000130551
0.00527867
0.000142207
0.00527664
0.000154198
0.0052744
0.000166003
0.005272
0.000177092
0.00526947
0.000186998
0.00526687
0.000195378
0.00526426
0.000202039
0.0052617
0.000206943
0.00525922
0.000210187
0.00525688
0.000211968
0.00525469
0.00021255
0.00525269
0.000212221
0.00525088
0.000211266
0.00524926
0.000209944
0.00524784
0.000208473
0.0052466
0.000207027
0.00524553
0.00020573
0.00524463
0.000204666
0.00524387
0.000203882
0.00524326
0.000203398
0.00524277
0.000203209
0.00524241
0.000203297
0.00524216
0.000203634
0.00524201
0.000204187
0.00524198
0.000204921
0.00524204
0.000205801
0.00524221
0.000206794
0.00524247
0.000207868
0.00524284
0.000208997
0.0052433
0.000210157
0.00524387
0.000211326
0.00524455
0.000212486
0.00524533
0.000213621
0.00524621
0.000214718
0.00524721
0.000215766
0.00524832
0.000216756
0.00524954
0.000217678
0.000218528
0.00529284
4.86493e-06
0.0052927
1.4189e-05
0.00529246
2.29886e-05
0.00529214
3.13239e-05
0.00529174
3.92482e-05
0.00529127
4.68081e-05
0.00529073
5.40399e-05
0.00529013
6.09724e-05
0.00528946
6.76415e-05
0.00528875
7.41195e-05
0.00528797
8.05468e-05
0.00528713
8.71498e-05
0.00528621
9.42241e-05
0.00528518
0.000102081
0.00528401
0.000110971
0.00528266
0.000121003
0.00528112
0.000132096
0.00527935
0.000143969
0.00527737
0.000156178
0.00527519
0.000168183
0.00527285
0.000179438
0.00527038
0.000189463
0.00526786
0.000197905
0.00526532
0.000204571
0.00526284
0.000209424
0.00526046
0.000212566
0.00525823
0.000214207
0.00525616
0.000214617
0.00525428
0.000214097
0.00525261
0.000212942
0.00525113
0.000211418
0.00524986
0.00020975
0.00524877
0.000208114
0.00524786
0.000206639
0.00524711
0.00020541
0.00524652
0.000204474
0.00524607
0.000203848
0.00524575
0.000203529
0.00524555
0.000203495
0.00524547
0.000203719
0.00524549
0.000204163
0.00524562
0.000204793
0.00524585
0.000205571
0.00524618
0.000206464
0.00524661
0.000207439
0.00524714
0.000208469
0.00524777
0.000209528
0.0052485
0.000210596
0.00524933
0.000211653
0.00525027
0.000212684
0.00525131
0.000213676
0.00525246
0.000214617
0.00525372
0.000215497
0.00525509
0.00021631
0.000217048
0.00529285
4.91207e-06
0.00529271
1.43264e-05
0.00529249
2.32106e-05
0.00529219
3.16251e-05
0.00529181
3.96236e-05
0.00529137
4.72526e-05
0.00529086
5.45485e-05
0.00529029
6.15401e-05
0.00528967
6.82637e-05
0.00528899
7.47932e-05
0.00528827
8.12736e-05
0.00528748
8.79384e-05
0.00528661
9.50924e-05
0.00528564
0.000103056
0.00528452
0.000112085
0.00528323
0.000122291
0.00528174
0.000133586
0.00528004
0.000145676
0.00527811
0.000158102
0.00527599
0.000170307
0.0052737
0.000181725
0.0052713
0.000191863
0.00526884
0.000200362
0.00526639
0.000207025
0.005264
0.000211817
0.00526171
0.000214849
0.00525958
0.000216338
0.00525763
0.000216568
0.00525588
0.000215849
0.00525433
0.000214486
0.005253
0.000212752
0.00525187
0.00021088
0.00525093
0.000209051
0.00525018
0.000207394
0.00524959
0.000205997
0.00524916
0.000204906
0.00524887
0.000204138
0.00524871
0.000203688
0.00524867
0.000203533
0.00524875
0.000203642
0.00524893
0.000203979
0.00524922
0.000204505
0.00524961
0.000205182
0.0052501
0.000205976
0.00525068
0.000206853
0.00525137
0.000207785
0.00525215
0.000208746
0.00525303
0.000209714
0.00525402
0.00021067
0.0052551
0.000211599
0.00525629
0.000212487
0.00525758
0.000213323
0.00525898
0.000214097
0.00526049
0.000214802
0.000215431
0.00529285
4.95634e-06
0.00529272
1.44555e-05
0.00529251
2.34192e-05
0.00529223
3.1908e-05
0.00529188
3.99758e-05
0.00529146
4.76693e-05
0.00529098
5.5025e-05
0.00529045
6.20715e-05
0.00528987
6.88453e-05
0.00528924
7.54224e-05
0.00528856
8.19522e-05
0.00528783
8.86755e-05
0.00528701
9.59067e-05
0.00528609
0.000103975
0.00528503
0.000113144
0.0052838
0.000123523
0.00528237
0.000135019
0.00528072
0.000147328
0.00527885
0.000159971
0.00527678
0.000172373
0.00527456
0.000183951
0.00527222
0.000194198
0.00526984
0.000202748
0.00526746
0.000209399
0.00526516
0.000214122
0.00526297
0.000217035
0.00526095
0.000218364
0.00525911
0.000218404
0.00525748
0.000217477
0.00525607
0.000215897
0.00525487
0.000213948
0.00525389
0.000211867
0.0052531
0.000209839
0.00525249
0.000207998
0.00525206
0.000206431
0.00525178
0.000205183
0.00525165
0.000204273
0.00525165
0.000203691
0.00525176
0.000203414
0.005252
0.00020341
0.00525234
0.000203639
0.00525278
0.000204063
0.00525332
0.000204641
0.00525396
0.000205337
0.00525469
0.000206118
0.00525553
0.000206953
0.00525645
0.000207817
0.00525748
0.000208687
0.00525861
0.000209545
0.00525983
0.000210374
0.00526116
0.000211161
0.00526259
0.000211894
0.00526412
0.000212565
0.00526576
0.000213165
0.000213688
0.00529285
4.99776e-06
0.00529273
1.45763e-05
0.00529254
2.36142e-05
0.00529227
3.21724e-05
0.00529194
4.03048e-05
0.00529155
4.80584e-05
0.00529111
5.54695e-05
0.00529061
6.25666e-05
0.00529007
6.93865e-05
0.00528949
7.60072e-05
0.00528886
8.25826e-05
0.00528817
8.93613e-05
0.00528741
9.66671e-05
0.00528655
0.000104839
0.00528555
0.000114145
0.00528437
0.000124698
0.00528299
0.000136396
0.0052814
0.000148923
0.00527959
0.000161783
0.00527758
0.00017438
0.00527542
0.000186114
0.00527315
0.000196466
0.00527084
0.00020506
0.00526855
0.000211692
0.00526633
0.000216338
0.00526424
0.000219122
0.00526232
0.000220282
0.0052606
0.000220124
0.0052591
0.000218981
0.00525782
0.000217179
0.00525676
0.000215009
0.00525591
0.000212714
0.00525527
0.000210484
0.00525481
0.000208455
0.00525453
0.000206715
0.0052544
0.000205311
0.00525442
0.000204256
0.00525456
0.000203543
0.00525483
0.000203145
0.00525521
0.000203028
0.0052557
0.000203152
0.00525629
0.000203474
0.00525698
0.000203954
0.00525776
0.000204554
0.00525864
0.00020524
0.00525961
0.000205981
0.00526068
0.00020675
0.00526184
0.000207525
0.0052631
0.000208286
0.00526446
0.000209017
0.00526591
0.000209705
0.00526747
0.000210339
0.00526912
0.000210908
0.00527088
0.000211407
0.000211828
0.00529286
5.03634e-06
0.00529274
1.46887e-05
0.00529256
2.37958e-05
0.00529232
3.24184e-05
0.00529201
4.06108e-05
0.00529165
4.842e-05
0.00529124
5.58822e-05
0.00529078
6.30256e-05
0.00529028
6.98875e-05
0.00528973
7.65478e-05
0.00528915
8.31653e-05
0.00528852
8.99961e-05
0.00528781
9.73739e-05
0.005287
0.000105647
0.00528606
0.00011509
0.00528494
0.000125815
0.00528362
0.000137716
0.00528208
0.00015046
0.00528033
0.000163535
0.00527839
0.000176325
0.00527629
0.000188212
0.00527409
0.000198664
0.00527185
0.000207295
0.00526965
0.000213902
0.00526752
0.000218462
0.00526553
0.000221109
0.00526372
0.000222092
0.00526212
0.000221728
0.00526074
0.000220363
0.00525958
0.000218332
0.00525866
0.000215935
0.00525795
0.000213422
0.00525745
0.000210987
0.00525713
0.000208769
0.00525699
0.000206855
0.00525701
0.000205292
0.00525717
0.000204094
0.00525746
0.00020325
0.00525788
0.000202732
0.0052584
0.000202504
0.00525903
0.000202522
0.00525976
0.000202744
0.00526059
0.000203128
0.00526151
0.000203634
0.00526252
0.000204227
0.00526363
0.000204875
0.00526482
0.000205552
0.00526611
0.000206234
0.0052675
0.000206901
0.00526898
0.000207537
0.00527055
0.000208129
0.00527223
0.000208666
0.005274
0.000209138
0.00527587
0.000209538
0.00020986
0.00529286
5.07209e-06
0.00529275
1.47929e-05
0.00529259
2.39639e-05
0.00529236
3.26462e-05
0.00529208
4.08939e-05
0.00529174
4.87542e-05
0.00529136
5.62631e-05
0.00529094
6.34486e-05
0.00529048
7.03486e-05
0.00528998
7.70446e-05
0.00528944
8.37004e-05
0.00528886
9.05801e-05
0.00528821
9.80271e-05
0.00528745
0.0001064
0.00528657
0.000115978
0.00528551
0.000126875
0.00528425
0.000138976
0.00528277
0.000151937
0.00528108
0.000165225
0.0052792
0.000178205
0.00527717
0.000190242
0.00527505
0.000200788
0.00527289
0.000209451
0.00527077
0.000216025
0.00526874
0.000220493
0.00526685
0.000222996
0.00526515
0.000223794
0.00526366
0.000223217
0.0052624
0.000221624
0.00526137
0.000219358
0.00526058
0.00021673
0.00526
0.000213996
0.00525964
0.000211354
0.00525946
0.000208944
0.00525946
0.000206855
0.00525962
0.000205134
0.00525992
0.000203793
0.00526035
0.000202818
0.0052609
0.000202181
0.00526157
0.000201842
0.00526233
0.000201757
0.00526319
0.000201882
0.00526415
0.000202171
0.0052652
0.000202585
0.00526634
0.000203087
0.00526757
0.000203645
0.00526889
0.000204231
0.0052703
0.000204822
0.0052718
0.000205398
0.0052734
0.000205942
0.00527509
0.000206441
0.00527687
0.000206883
0.00527875
0.000207261
0.00528072
0.000207565
0.000207792
0.00529286
5.10501e-06
0.00529277
1.48889e-05
0.00529261
2.41188e-05
0.0052924
3.28557e-05
0.00529214
4.11542e-05
0.00529183
4.90611e-05
0.00529148
5.66125e-05
0.0052911
6.3836e-05
0.00529068
7.07699e-05
0.00529022
7.74978e-05
0.00528973
8.41883e-05
0.0052892
9.11136e-05
0.0052886
9.8627e-05
0.0052879
0.000107096
0.00528707
0.000116808
0.00528607
0.000127875
0.00528487
0.000140176
0.00528346
0.000153351
0.00528184
0.000166849
0.00528002
0.000180017
0.00527807
0.000192199
0.00527602
0.000202835
0.00527395
0.000211524
0.00527191
0.000218059
0.00526998
0.000222427
0.0052682
0.000224779
0.0052666
0.000225386
0.00526523
0.000224591
0.00526409
0.000222763
0.00526319
0.00022026
0.00526252
0.000217397
0.00526208
0.000214439
0.00526184
0.000211587
0.0052618
0.000208985
0.00526194
0.000206721
0.00526223
0.000204842
0.00526266
0.000203357
0.00526323
0.000202254
0.00526391
0.000201499
0.0052647
0.000201051
0.0052656
0.000200865
0.00526658
0.000200893
0.00526767
0.00020109
0.00526884
0.000201414
0.0052701
0.000201827
0.00527144
0.000202297
0.00527288
0.000202796
0.0052744
0.000203298
0.00527602
0.000203785
0.00527772
0.00020424
0.00527951
0.000204648
0.0052814
0.000205
0.00528337
0.000205286
0.00528544
0.000205499
0.000205634
0.00529286
5.13513e-06
0.00529278
1.49767e-05
0.00529263
2.42604e-05
0.00529244
3.30472e-05
0.00529221
4.13918e-05
0.00529193
4.93409e-05
0.00529161
5.69305e-05
0.00529126
6.4188e-05
0.00529087
7.11518e-05
0.00529046
7.79078e-05
0.00529002
8.46294e-05
0.00528954
9.15968e-05
0.00528899
9.91737e-05
0.00528835
0.000107737
0.00528758
0.00011758
0.00528664
0.000128815
0.0052855
0.000141312
0.00528416
0.000154699
0.0052826
0.000168405
0.00528086
0.000181757
0.00527898
0.00019408
0.00527702
0.000204799
0.00527503
0.000213509
0.00527309
0.000219999
0.00527126
0.000224262
0.00526958
0.000226457
0.0052681
0.000226868
0.00526684
0.00022585
0.00526582
0.000223784
0.00526504
0.000221038
0.0052645
0.000217939
0.00526418
0.000214755
0.00526407
0.000211693
0.00526416
0.000208897
0.00526442
0.000206459
0.00526484
0.000204422
0.00526541
0.000202795
0.0052661
0.000201563
0.0052669
0.000200692
0.00526782
0.000200137
0.00526883
0.000199851
0.00526994
0.000199785
0.00527114
0.000199891
0.00527242
0.000200128
0.0052738
0.000200455
0.00527525
0.000200839
0.0052768
0.000201253
0.00527843
0.00020167
0.00528014
0.000202071
0.00528194
0.000202439
0.00528383
0.00020276
0.00528581
0.000203024
0.00528787
0.000203222
0.00529002
0.000203346
0.000203392
0.00529287
5.16247e-06
0.00529279
1.50564e-05
0.00529266
2.43888e-05
0.00529249
3.32208e-05
0.00529227
4.16068e-05
0.00529202
4.95939e-05
0.00529173
5.72175e-05
0.00529141
6.45048e-05
0.00529107
7.14947e-05
0.0052907
7.82749e-05
0.00529031
8.5024e-05
0.00528988
9.20302e-05
0.00528938
9.96672e-05
0.0052888
0.000108322
0.00528808
0.000118293
0.00528721
0.000129692
0.00528614
0.000142383
0.00528486
0.000155978
0.00528337
0.000169889
0.00528171
0.000183419
0.00527991