/*--------------------------------*- C++ -*----------------------------------*\
| =========                 |                                                 |
| \\      /  F ield         | OpenFOAM: The Open Source CFD Toolbox           |
|  \\    /   O peration     | Version:  2412                                  |
|   \\  /    A nd           | Website:  www.openfoam.com                      |
|    \\/     M anipulation  |                                                 |
\*---------------------------------------------------------------------------*/
FoamFile
{
    version     2.0;
    format      ascii;
    arch        "LSB;label=32;scalar=64";
    class       volScalarField;
    location    "17";
    object      p;
}
// * * * * * * * * * * * * * * * * * * * * * * * * * * * * * * * * * * * * * //

dimensions      [0 2 -2 0 0 0 0];

internalField   nonuniform List<scalar> 
5285
(
-0.000184997
-0.000197412
-0.000208805
-0.000219292
-0.000228866
-0.000237512
-0.000245234
-0.000252048
-0.000257969
-0.000263016
-0.000267212
-0.000270583
-0.00027316
-0.000274973
-0.000276057
-0.000276447
-0.000276181
-0.000275297
-0.000273833
-0.000271829
-0.000269325
-0.000266359
-0.000262972
-0.0002592
-0.00020449
-0.000217325
-0.000228925
-0.000239594
-0.000249306
-0.000258024
-0.000265756
-0.000272521
-0.000278336
-0.000283223
-0.000287209
-0.000290322
-0.000292596
-0.000294066
-0.000294768
-0.000294744
-0.000294033
-0.000292677
-0.00029072
-0.000288203
-0.00028517
-0.000281663
-0.000277725
-0.000273396
-0.000225101
-0.00023838
-0.00025018
-0.00026103
-0.000270876
-0.000279658
-0.000287386
-0.000294083
-0.00029977
-0.000304471
-0.000308216
-0.000311037
-0.000312972
-0.000314058
-0.000314339
-0.000313857
-0.000312657
-0.000310786
-0.000308289
-0.000305213
-0.000301606
-0.000297513
-0.000292979
-0.00028805
-0.000246906
-0.000260655
-0.000272655
-0.000283682
-0.000293659
-0.000302496
-0.000310203
-0.000316811
-0.000322344
-0.000326829
-0.000330298
-0.00033279
-0.000334345
-0.000335006
-0.000334819
-0.000333832
-0.000332095
-0.000329658
-0.000326572
-0.000322888
-0.000318656
-0.000313927
-0.000308751
-0.000303174
-0.000269994
-0.000284242
-0.00029644
-0.000307643
-0.000317746
-0.000326624
-0.000334293
-0.000340787
-0.000346136
-0.000350371
-0.000353527
-0.000355647
-0.000356777
-0.000356964
-0.000356259
-0.000354716
-0.000352388
-0.000349332
-0.000345602
-0.000341255
-0.000336345
-0.000330927
-0.000325055
-0.000318779
-0.000294465
-0.000309242
-0.000321637
-0.000333013
-0.000343234
-0.000352139
-0.000359747
-0.000366101
-0.000371233
-0.000375179
-0.000377979
-0.000379681
-0.000380334
-0.000379994
-0.000378716
-0.000376558
-0.000373582
-0.000369847
-0.000365414
-0.000360344
-0.000354697
-0.000348532
-0.000341907
-0.000334878
-0.000320433
-0.00033577
-0.000348358
-0.000359902
-0.000370231
-0.000379146
-0.000386669
-0.00039285
-0.000397728
-0.000401341
-0.000403737
-0.000404967
-0.000405089
-0.000404162
-0.000402249
-0.000399414
-0.000395724
-0.000391245
-0.000386043
-0.000380186
-0.000373737
-0.000366763
-0.000359324
-0.000351482
-0.000348018
-0.000363949
-0.000376725
-0.00038843
-0.000398856
-0.000407761
-0.000415169
-0.000421142
-0.000425722
-0.000428954
-0.000430891
-0.000431591
-0.000431118
-0.000429539
-0.000426922
-0.00042334
-0.000418865
-0.00041357
-0.000407528
-0.000400812
-0.000393493
-0.00038564
-0.000377321
-0.000368601
-0.000377357
-0.000393917
-0.000406873
-0.00041873
-0.000429239
-0.00043811
-0.00044537
-0.000451092
-0.000455326
-0.000458121
-0.000459538
-0.000459643
-0.000458505
-0.0004562
-0.000452805
-0.000448397
-0.000443059
-0.000436869
-0.000429909
-0.000422256
-0.00041399
-0.000405184
-0.000395913
-0.000386247
-0.000408598
-0.000425826
-0.000438952
-0.000450949
-0.000461524
-0.000470331
-0.000477404
-0.000482828
-0.00048666
-0.000488957
-0.000489785
-0.000489219
-0.000487339
-0.000484227
-0.000479968
-0.00047465
-0.000468362
-0.000461191
-0.000453226
-0.000444553
-0.000435256
-0.000425417
-0.000415116
-0.000404427
-0.000441908
-0.000459843
-0.000473126
-0.000485249
-0.000495867
-0.000504577
-0.000511418
-0.000516489
-0.000519856
-0.000521583
-0.000521745
-0.000520427
-0.000517716
-0.000513706
-0.000508491
-0.000502168
-0.000494834
-0.000486588
-0.000477523
-0.000467736
-0.000457319
-0.000446359
-0.000434943
-0.000423152
-0.000477471
-0.000496156
-0.000509578
-0.000521807
-0.000532442
-0.000541016
-0.000547572
-0.000552228
-0.000555058
-0.000556134
-0.000555543
-0.000553379
-0.000549741
-0.000544732
-0.000538457
-0.000531024
-0.00052254
-0.000513112
-0.000502845
-0.000491844
-0.000480206
-0.00046803
-0.000455408
-0.000442427
-0.00051549
-0.000534971
-0.000548512
-0.000560821
-0.000571443
-0.000579832
-0.000586044
-0.000590212
-0.000592422
-0.000592757
-0.000591314
-0.0005882
-0.000583525
-0.000577404
-0.000569955
-0.000561295
-0.000551545
-0.000540821
-0.000529239
-0.000516911
-0.000503947
-0.000490451
-0.000476524
-0.000462259
-0.000556194
-0.00057652
-0.000590151
-0.000602512
-0.00061308
-0.000621231
-0.000627027
-0.000630624
-0.00063212
-0.000631611
-0.000629205
-0.000625023
-0.000619189
-0.000611831
-0.000603079
-0.000593066
-0.000581921
-0.000569774
-0.000556752
-0.000542978
-0.00052857
-0.000513642
-0.000498302
-0.000482651
-0.000599839
-0.000621061
-0.000634748
-0.000647123
-0.000657591
-0.000665437
-0.000670736
-0.000673666
-0.000674342
-0.000672871
-0.000669376
-0.000663994
-0.000656864
-0.000648129
-0.000637933
-0.000626422
-0.000613742
-0.000600033
-0.000585435
-0.000570082
-0.000554103
-0.000537621
-0.000520752
-0.000503607
-0.000646713
-0.000668884
-0.000682586
-0.000694929
-0.000705239
-0.000712705
-0.000717411
-0.000719564
-0.000719296
-0.000716729
-0.000712005
-0.000705274
-0.000696694
-0.000686425
-0.000674626
-0.000661461
-0.000647088
-0.000631664
-0.00061534
-0.000598264
-0.000580575
-0.000562406
-0.000543883
-0.000525124
-0.000697138
-0.000720313
-0.000733976
-0.000746228
-0.000756313
-0.000763306
-0.000767308
-0.000768558
-0.000767205
-0.000763392
-0.000757276
-0.00074903
-0.000738829
-0.000726852
-0.000713278
-0.000698282
-0.000682044
-0.000664736
-0.000646522
-0.000627564
-0.000608013
-0.000588014
-0.000567701
-0.000547202
-0.000751466
-0.000775699
-0.000789259
-0.000801349
-0.000811124
-0.000817537
-0.000820706
-0.000820904
-0.000818307
-0.000813075
-0.000805387
-0.000795438
-0.000783425
-0.000769547
-0.000754002
-0.000736988
-0.000718695
-0.000699317
-0.000679035
-0.000658022
-0.000636445
-0.00061446
-0.00059221
-0.000569833
-0.00081466
-0.000796928
-0.00077768
-0.000757126
-0.000735476
-0.000712929
-0.000689675
-0.000665893
-0.000641753
-0.00061741
-0.000593008
-7.98074e-05
-9.68672e-05
-0.00011326
-0.000128964
-0.000143963
-0.000158239
-0.000171768
-9.47472e-05
-0.000112449
-0.000129473
-0.000145794
-0.000161397
-0.000176247
-0.000190304
-0.000110481
-0.000128875
-0.000146576
-0.000163558
-0.000179804
-0.000195264
-0.000209875
-0.000127063
-0.000146191
-0.000164612
-0.000182299
-0.000199233
-0.000215348
-0.000230554
-0.00014455
-0.000164462
-0.000183652
-0.000202089
-0.000219759
-0.000236575
-0.000252418
-0.000163014
-0.000183761
-0.000203771
-0.000223012
-0.00024147
-0.000259035
-0.00027556
-0.000182526
-0.000204165
-0.000225053
-0.000245155
-0.000264456
-0.000282826
-0.00030008
-0.000203166
-0.000225761
-0.000247589
-0.000268613
-0.00028882
-0.000308054
-0.00032609
-0.00022502
-0.000248641
-0.000271477
-0.000293492
-0.000314674
-0.000334839
-0.000353714
-0.000248187
-0.000272909
-0.000296829
-0.00031991
-0.00034214
-0.000363308
-0.000383086
-0.000272774
-0.000298678
-0.000323766
-0.000347994
-0.000371355
-0.000393607
-0.000414357
-0.000298899
-0.000326076
-0.00035242
-0.000377887
-0.000402471
-0.000425895
-0.000447692
-0.000326684
-0.000355236
-0.00038294
-0.000409746
-0.000435653
-0.00046035
-0.000483277
-0.000356277
-0.000386317
-0.000415492
-0.000443748
-0.00047109
-0.000497168
-0.000521319
-0.000387837
-0.00041949
-0.000450258
-0.000480088
-0.000508989
-0.000536571
-0.000562047
-0.000421543
-0.000454944
-0.000487445
-0.000518986
-0.000549584
-0.000578809
-0.000605724
-0.000457591
-0.000492896
-0.000527281
-0.000560688
-0.000593139
-0.000624161
-0.000652641
-0.000496203
-0.00053358
-0.000570022
-0.000605464
-0.00063994
-0.000672931
-0.000703118
-0.000537614
-0.000577255
-0.000615944
-0.00065361
-0.000690305
-0.000725461
-0.000757519
-0.000582088
-0.000624212
5.5517e-05
3.47303e-05
1.43971e-05
-5.49903e-06
-2.49149e-05
-4.37983e-05
-6.21075e-05
4.53087e-05
2.37677e-05
2.78648e-06
-1.77754e-05
-3.78668e-05
-5.74217e-05
-7.63938e-05
3.4595e-05
1.22607e-05
-9.39611e-06
-3.0673e-05
-5.14669e-05
-7.17388e-05
-9.14244e-05
2.33608e-05
1.84792e-07
-2.22029e-05
-4.43127e-05
-6.57998e-05
-8.68207e-05
-0.00010726
1.15562e-05
-1.25214e-05
-3.5624e-05
-5.83477e-05
-8.08517e-05
-0.000102714
-0.000123954
-8.55294e-07
-2.59069e-05
-4.9825e-05
-7.34663e-05
-9.67647e-05
-0.000119477
-0.000141571
-1.39093e-05
-4.00071e-05
-6.47813e-05
-8.93287e-05
-0.000113526
-0.000137168
-0.000160179
-2.7645e-05
-5.48671e-05
-8.05484e-05
-0.00010605
-0.000131237
-0.000155864
-0.00017985
-4.21065e-05
-7.05401e-05
-9.71903e-05
-0.000123711
-0.000149957
-0.000175638
-0.000200668
-5.73415e-05
-8.70829e-05
-0.00011477
-0.000142382
-0.000169762
-0.000196576
-0.000222723
-7.3401e-05
-0.000104557
-0.000133355
-0.000162137
-0.000190739
-0.000218782
-0.000246118
-9.03402e-05
-0.000123028
-0.000153019
-0.000183056
-0.000212974
-0.000242362
-0.000270963
-0.000108219
-0.000142569
-0.000173845
-0.000205227
-0.000236535
-0.000267233
-0.000297341
-0.000127101
-0.000163261
-0.000195924
-0.000228762
-0.000261598
-0.000293854
-0.000325438
-0.000147056
-0.000185189
-0.000219355
-0.000253768
-0.000288256
-0.000322169
-0.000355375
-0.000168162
-0.000208449
-0.000244246
-0.000280365
-0.000316641
-0.000352343
-0.000387319
-0.000190495
-0.000233146
-0.000270717
-0.000308689
-0.000346908
-0.000384554
-0.000421453
-0.000214137
-0.000259379
-0.000298894
-0.000338883
-0.000379219
-0.000418982
-0.00045798
-0.000239177
-0.00028727
-0.000328907
-0.0003711
-0.000413747
-0.000455823
-0.000497109
-0.000495301
-0.000539089
0.00069712
0.0006858
0.000673968
0.000661614
0.000648729
0.000635307
0.000621339
0.000606822
0.000591752
0.000576128
0.000559951
0.000543223
0.00052595
0.000508139
0.000489801
0.000470949
0.000451598
0.000431769
0.000411483
0.000390765
0.000369644
0.000348153
0.000326327
0.000304203
0.000281824
0.000259235
0.000236482
0.000213617
0.000190692
0.000167762
0.000144884
0.000122115
9.95195e-05
7.71831e-05
0.000707943
0.000696536
0.000684593
0.000672101
0.000659051
0.000645433
0.00063124
0.000616465
0.000601104
0.000585155
0.000568616
0.000551489
0.000533779
0.000515493
0.000496641
0.000477234
0.00045729
0.000436827
0.000415869
0.00039444
0.000372572
0.000350297
0.000327652
0.000304678
0.000281419
0.000257922
0.000234239
0.000210423
0.000186531
0.000162621
0.000138756
0.000114997
9.14203e-05
6.81269e-05
0.000719257
0.000707774
0.000695728
0.000683107
0.000669899
0.000656092
0.000641677
0.000626647
0.000610995
0.000594718
0.000577813
0.000560281
0.000542125
0.000523351
0.000503968
0.000483989
0.000463429
0.000442308
0.000420648
0.000398476
0.000375823
0.000352723
0.000329217
0.000305345
0.000281155
0.000256698
0.000232027
0.000207201
0.000182279
0.000157326
0.000132408
0.00010759
8.29629e-05
5.86457e-05
0.000731083
0.000719536
0.0007074
0.000694659
0.000681301
0.000667312
0.000652681
0.000637399
0.000621458
0.000604852
0.000587578
0.000569634
0.000551023
0.00053175
0.000511822
0.000491251
0.000470053
0.000448247
0.000425855
0.000402906
0.00037943
0.000355465
0.00033105
0.00030623
0.000281056
0.00025558
0.000229861
0.00020396
0.000177942
0.000151876
0.000125834
9.9884e-05
7.41323e-05
4.87225e-05
0.000743445
0.000731847
0.000719633
0.000706784
0.000693287
0.000679125
0.000664285
0.000648756
0.000632529
0.000615595
0.000597949
0.000579589
0.000560515
0.00054073
0.000520242
0.000499061
0.000477202
0.000454684
0.00043153
0.000407767
0.00038343
0.000358554
0.000333182
0.000307362
0.000281145
0.000254589
0.000227756
0.000200711
0.000173524
0.000146271
0.000119026
9.18652e-05
6.49093e-05
3.83285e-05
0.000756366
0.000744733
0.000732454
0.000719512
0.000705886
0.000691562
0.000676522
0.000660754
0.000644244
0.000626984
0.000608966
0.000590186
0.000570642
0.000550335
0.000529273
0.000507463
0.000484921
0.000461663
0.000437715
0.000413103
0.000387861
0.000362028
0.000335647
0.00030877
0.00028145
0.000253748
0.00022573
0.000197467
0.000169034
0.00014051
0.00011198
8.35211e-05
5.52733e-05
2.74348e-05
0.000769869
0.000758219
0.000745893
0.000732871
0.000719133
0.000704658
0.000689429
0.000673429
0.000656644
0.000639062
0.000620673
0.00060147
0.00058145
0.000560612
0.000538961
0.000516505
0.000493256
0.000469232
0.000444456
0.000418957
0.000392767
0.000365928
0.000338485
0.00031049
0.000282001
0.000253082
0.000223804
0.000194243
0.000164478
0.000134597
0.000104689
7.48384e-05
4.52035e-05
1.60131e-05
0.00078398
0.000772331
0.000759977
0.000746894
0.000733058
0.000718448
0.000703043
0.000686823
0.000669771
0.000651873
0.000633115
0.000613489
0.000592989
0.000571611
0.000549359
0.000526239
0.000502261
0.000477442
0.000451806
0.000425379
0.000398197
0.0003703
0.000341736
0.00031256
0.000282832
0.000252622
0.000222002
0.000191055
0.000159868
0.000128534
9.71487e-05
6.58039e-05
3.46781e-05
4.03337e-06
0.000798724
0.000787098
0.000774736
0.000761612
0.000747698
0.00073297
0.000717404
0.000700977
0.000683669
0.000665462
0.000646341
0.000626294
0.00060531
0.000583386
0.000560521
0.00053672
0.000511991
0.00048635
0.000459819
0.000432425
0.000404203
0.000375195
0.00034545
0.000315025
0.000283984
0.0002524
0.000220352
0.000187926
0.000155217
0.000122325
8.93552e-05
5.64045e-05
2.36741e-05
-8.53735e-06
0.000814125
0.000802547
0.000790201
0.000777058
0.000763087
0.000748261
0.000732552
0.000715935
0.000698385
0.00067988
0.000660403
0.000639937
0.000618471
0.000595995
0.000572508
0.000548009
0.000522508
0.000496017
0.000468557
0.000440154
0.000410843
0.000380668
0.000349677
0.000317932
0.000285499
0.000252455
0.000218884
0.000184879
0.000150541
0.000115979
8.13056e-05
4.66268e-05
1.21675e-05
-2.17343e-05
0.00083021
0.000818707
0.000806403
0.000793267
0.000779264
0.000764363
0.000748532
0.000731743
0.000713967
0.000695179
0.000675356
0.000654479
0.000632531
0.000609501
0.000585382
0.000560173
0.000533879
0.000506511
0.000478087
0.000448633
0.000418183
0.000386781
0.000354479
0.000321338
0.000287428
0.000252831
0.000217636
0.000181942
0.000145859
0.000109504
7.29983e-05
3.64578e-05
1.33027e-07
-3.55953e-05
0.000847004
0.000835605
0.000823374
0.000810272
0.000796265
0.000781315
0.000765388
0.00074845
0.000730468
0.000711413
0.000691258
0.000669978
0.000647554
0.00062397
0.000599214
0.000573283
0.000546177
0.000517904
0.000488482
0.000457934
0.000426294
0.000393605
0.00035992
0.000325303
0.000289826
0.000253576
0.000216648
0.000179149
0.000141194
0.000102911
6.44335e-05
2.58846e-05
-1.24556e-05
-5.01604e-05
0.000864533
0.000853272
0.000841145
0.000828111
0.00081413
0.000799162
0.000783166
0.000766105
0.000747941
0.00072864
0.00070817
0.000686502
0.00066361
0.000639474
0.000614078
0.000587415
0.000559479
0.000530278
0.000499824
0.000468139
0.000435255
0.000401216
0.000366074
0.000329896
0.000292757
0.000254748
0.00021597
0.000176537
0.000136573
9.62173e-05
5.56132e-05
1.48953e-05
-2.56255e-05
-6.54729e-05
0.000882824
0.000871736
0.000859749
0.000846818
0.000832899
0.000817946
0.000801915
0.000784761
0.000766444
0.000746922
0.000726158
0.000704118
0.000680771
0.00065609
0.000630055
0.000602652
0.000573873
0.000543719
0.0005122
0.000479335
0.000445154
0.000409699
0.000373024
0.000335195
0.000296293
0.000256411
0.000215657
0.000174151
0.00013203
8.94414e-05
4.65423e-05
3.47874e-06
-3.94049e-05
-8.15785e-05
0.0009019
0.000891025
0.000879218
0.000866431
0.000852612
0.000837713
0.000821682
0.000804472
0.000786034
0.000766321
0.000745291
0.000722901
0.000699115
0.0006739
0.00064723
0.000619084
0.000589449
0.000558321
0.000525706
0.000491618
0.000456085
0.000419148
0.000380859
0.000341286
0.000300512
0.000258636
0.00021577
0.000172043
0.000127602
8.26067e-05
3.72276e-05
-8.37606e-06
-5.38235e-05
-9.85269e-05
0.000921786
0.000911167
0.000899585
0.000886984
0.00087331
0.000858507
0.00084252
0.000825293
0.000806772
0.000786904
0.000765638
0.000742925
0.000718723
0.000692991
0.000665694
0.000636806
0.000606308
0.000574188
0.000540447
0.000505095
0.000468156
0.000429667
0.000389681
0.000348266
0.000305506
0.000261505
0.000216381
0.000170272
0.000123334
7.57416e-05
2.76794e-05
-2.06788e-05
-6.89124e-05
-0.000116372
0.000942506
0.000932192
0.000920881
0.000908516
0.000895035
0.000880377
0.00086448
0.000847283
0.000828723
0.000808741
0.000787277
0.000764276
0.000739685
0.000713457
0.000685549
0.000655926
0.00062456
0.000591434
0.00055654
0.000519884
0.000481485
0.000441375
0.000399606
0.000356246
0.00031138
0.000265115
0.000217576
0.00016891
0.000119284
6.88858e-05
1.79171e-05
-3.34321e-05
-8.46986e-05
-0.000135166
0.000964084
0.000954125
0.00094314
0.000931064
0.00091783
0.000903371
0.000887618
0.000870503
0.000851955
0.000831907
0.00081029
0.000787041
0.000762097
0.000735402
0.000706904
0.000676557
0.000644326
0.000610184
0.000574116
0.000536119
0.000496206
0.000454407
0.000410767
0.000365354
0.000318255
0.000269578
0.000219456
0.000168044
0.000115521
6.20895e-05
7.96908e-06
-4.66324e-05
-0.000101205
-0.000154962
0.000452402
0.000447758
0.000443094
0.00043841
0.000433707
0.000428986
0.00042425
0.000419498
0.000414733
0.000409955
0.000405167
0.000400369
0.000395562
0.000390748
0.000385929
0.000381105
0.000376279
0.000371451
0.000366623
0.000361797
0.000356973
0.000352153
0.00034734
0.000342533
0.000337734
0.000332946
0.000328168
0.000323404
0.000318653
0.000313918
0.0003092
0.0003045
0.000299819
0.00029516
0.000452566
0.000447914
0.000443241
0.000438547
0.000433835
0.000429105
0.000424359
0.000419598
0.000414822
0.000410035
0.000405236
0.000400428
0.000395611
0.000390787
0.000385957
0.000381123
0.000376286
0.000371447
0.000366609
0.000361771
0.000356937
0.000352107
0.000347282
0.000342464
0.000337655
0.000332856
0.000328068
0.000323293
0.000318532
0.000313786
0.000309058
0.000304348
0.000299657
0.000294988
0.000452887
0.000448217
0.000443527
0.000438815
0.000434085
0.000429337
0.000424572
0.000419792
0.000414997
0.00041019
0.000405372
0.000400543
0.000395706
0.000390862
0.000386012
0.000381157
0.000376299
0.00037144
0.000366581
0.000361722
0.000356867
0.000352016
0.00034717
0.000342332
0.000337502
0.000332682
0.000327873
0.000323077
0.000318296
0.00031353
0.000308781
0.000304051
0.000299341
0.000294652
0.000453357
0.000448662
0.000443946
0.000439209
0.000434452
0.000429677
0.000424884
0.000420076
0.000415254
0.000410418
0.000405571
0.000400713
0.000395847
0.000390973
0.000386093
0.000381208
0.00037632
0.00037143
0.00036654
0.000361651
0.000356765
0.000351883
0.000347007
0.000342138
0.000337277
0.000332427
0.000327588
0.000322762
0.00031795
0.000313155
0.000308377
0.000303618
0.000298878
0.000294161
0.00045397
0.000449243
0.000444494
0.000439722
0.000434931
0.000430121
0.000425293
0.000420449
0.000415589
0.000410717
0.000405832
0.000400936
0.000396031
0.000391118
0.000386199
0.000381275
0.000376348
0.000371418
0.000366488
0.000361559
0.000356633
0.000351711
0.000346795
0.000341886
0.000336985
0.000332095
0.000327216
0.000322351
0.0003175
0.000312666
0.000307849
0.000303052
0.000298275
0.000293521
0.000454723
0.000449956
0.000445166
0.000440353
0.00043552
0.000430666
0.000425795
0.000420906
0.000416002
0.000411084
0.000406153
0.000401211
0.000396259
0.000391299
0.000386332
0.000381359
0.000376383
0.000371405
0.000366426
0.000361448
0.000356473
0.000351502
0.000346536
0.000341578
0.000336628
0.000331689
0.000326762
0.000321848
0.00031695
0.000312068
0.000307204
0.00030236
0.000297537
0.000292737
0.000455611
0.000450797
0.000445959
0.000441098
0.000436215
0.000431311
0.000426388
0.000421448
0.000416491
0.000411519
0.000406534
0.000401537
0.000396529
0.000391513
0.00038649
0.000381461
0.000376427
0.000371392
0.000366355
0.00036132
0.000356286
0.000351257
0.000346233
0.000341217
0.000336209
0.000331213
0.000326228
0.000321257
0.000316302
0.000311364
0.000306444
0.000301545
0.000296668
0.000291813
0.000456632
0.000451765
0.000446872
0.000441955
0.000437015
0.000432054
0.000427072
0.000422072
0.000417054
0.000412021
0.000406974
0.000401914
0.000396843
0.000391762
0.000386674
0.00038158
0.000376481
0.000371379
0.000366277
0.000361174
0.000356074
0.000350978
0.000345888
0.000340805
0.000335731
0.000330668
0.000325617
0.000320581
0.00031556
0.000310557
0.000305574
0.000300611
0.000295671
0.000290755
0.000457784
0.000452857
0.000447903
0.000442923
0.00043792
0.000432893
0.000427846
0.000422778
0.000417693
0.00041259
0.000407473
0.000402342
0.0003972
0.000392047
0.000386886
0.000381718
0.000376545
0.000371369
0.000366192
0.000361014
0.000355839
0.000350668
0.000345502
0.000340344
0.000335195
0.000330057
0.000324932
0.000319821
0.000314727
0.000309651
0.000304595
0.000299561
0.000294549
0.000289564
0.000459065
0.000454072
0.00044905
0.000444002
0.000438928
0.00043383
0.000428709
0.000423567
0.000418406
0.000413227
0.000408032
0.000402823
0.000397601
0.000392368
0.000387126
0.000381877
0.000376621
0.000371363
0.000366102
0.000360841
0.000355582
0.000350327
0.000345078
0.000339836
0.000334603
0.000329382
0.000324174
0.000318981
0.000313804
0.000308647
0.00030351
0.000298396
0.000293306
0.000288242
0.000460476
0.00045541
0.000450315
0.000445191
0.000440039
0.000434863
0.000429662
0.000424439
0.000419195
0.000413932
0.000408652
0.000403357
0.000398048
0.000392726
0.000387395
0.000382056
0.000376711
0.000371361
0.000366009
0.000360657
0.000355306
0.000349958
0.000344617
0.000339282
0.000333958
0.000328644
0.000323345
0.000318061
0.000312794
0.000307547
0.000302322
0.00029712
0.000291943
0.000286793
0.000462015
0.000456871
0.000451695
0.00044649
0.000441255
0.000435993
0.000430705
0.000425394
0.00042006
0.000414707
0.000409334
0.000403945
0.000398541
0.000393124
0.000387696
0.000382259
0.000376815
0.000371366
0.000365914
0.000360462
0.00035501
0.000349562
0.00034412
0.000338685
0.00033326
0.000327846
0.000322447
0.000317064
0.000311698
0.000306354
0.000301031
0.000295733
0.000290461
0.000285218
0.000463683
0.000458455
0.000453194
0.0004479
0.000442575
0.000437222
0.000431841
0.000426434
0.000421004
0.000415552
0.000410079
0.000404589
0.000399082
0.000393561
0.000388029
0.000382486
0.000376935
0.000371379
0.00036582
0.000360259
0.000354698
0.000349141
0.00034359
0.000338046
0.000332511
0.000326989
0.000321481
0.00031599
0.000310518
0.000305067
0.000299639
0.000294237
0.000288862
0.000283517
0.000465481
0.000460164
0.000454811
0.000449423
0.000444002
0.000438551
0.00043307
0.000427561
0.000422027
0.000416469
0.000410889
0.00040529
0.000399674
0.000394041
0.000388396
0.00038274
0.000377074
0.000371403
0.000365727
0.000360049
0.000354371
0.000348697
0.000343027
0.000337366
0.000331714
0.000326074
0.00032045
0.000314842
0.000309254
0.000303688
0.000298147
0.000292632
0.000287146
0.000281691
0.00046741
0.000461998
0.000456547
0.00045106
0.000445537
0.000439981
0.000434394
0.000428776
0.000423131
0.000417461
0.000411767
0.000406052
0.000400317
0.000394566
0.0003888
0.000383022
0.000377234
0.000371438
0.000365638
0.000359834
0.000354031
0.00034823
0.000342435
0.000336646
0.000330868
0.000325103
0.000319353
0.00031362
0.000307908
0.000302219
0.000296555
0.000290919
0.000285314
0.000279741
0.000469471
0.000463959
0.000458406
0.000452813
0.000447182
0.000441516
0.000435815
0.000430082
0.00042432
0.00041853
0.000412714
0.000406875
0.000401016
0.000395137
0.000389243
0.000383335
0.000377416
0.000371488
0.000365554
0.000359617
0.00035368
0.000347744
0.000341813
0.00033589
0.000329976
0.000324076
0.000318191
0.000312325
0.00030648
0.000300659
0.000294865
0.000289099
0.000283366
0.000277667
0.000471668
0.00046605
0.000460388
0.000454684
0.00044894
0.000443156
0.000437336
0.000431482
0.000425595
0.000419678
0.000413734
0.000407764
0.000401771
0.000395758
0.000389727
0.000383681
0.000377622
0.000371554
0.000365479
0.000359399
0.000353319
0.000347239
0.000341164
0.000335097
0.000329039
0.000322995
0.000316967
0.000310958
0.000304972
0.00029901
0.000293076
0.000287172
0.000281302
0.000275469
0.000474001
0.000468273
0.000462497
0.000456677
0.000450812
0.000444906
0.00043896
0.000432977
0.000426959
0.000420909
0.000414828
0.00040872
0.000402587
0.000396431
0.000390255
0.000384063
0.000377857
0.000371639
0.000365414
0.000359183
0.00035295
0.000346718
0.00034049
0.000334269
0.000328059
0.000321862
0.000315681
0.00030952
0.000303383
0.000297271
0.000291188
0.000285138
0.000279123
0.000273146
0.000476473
0.00047063
0.000464736
0.000458793
0.000452802
0.000446768
0.00044069
0.000434572
0.000428416
0.000422225
0.000416001
0.000409747
0.000403465
0.000397159
0.000390831
0.000384484
0.000378121
0.000371746
0.000365362
0.000358971
0.000352577
0.000346183
0.000339792
0.000333409
0.000327036
0.000320676
0.000314334
0.000308012
0.000301714
0.000295443
0.000289202
0.000282996
0.000276827
0.000270698
0.000479088
0.000473124
0.000467106
0.000461035
0.000454914
0.000448745
0.000442529
0.000436269
0.000429969
0.00042363
0.000417255
0.000410848
0.00040441
0.000397945
0.000391456
0.000384946
0.000378419
0.000371877
0.000365325
0.000358764
0.0003522
0.000345635
0.000339073
0.000332517
0.000325972
0.000319441
0.000312927
0.000306434
0.000299966
0.000293526
0.000287118
0.000280746
0.000274413
0.000268123
0.000481847
0.000475759
0.000469612
0.000463409
0.000457151
0.00045084
0.00044448
0.000438073
0.000431621
0.000425128
0.000418595
0.000412026
0.000405425
0.000398793
0.000392135
0.000385454
0.000378753
0.000372036
0.000365306
0.000358567
0.000351823
0.000345077
0.000338333
0.000331596
0.000324869
0.000318156
0.00031146
0.000304786
0.000298139
0.00029152
0.000284936
0.000278388
0.000271882
0.000265421
0.000484755
0.000478537
0.000472257
0.000465915
0.000459515
0.000453059
0.000446548
0.000439987
0.000433377
0.000426722
0.000420024
0.000413286
0.000406513
0.000399707
0.000392871
0.00038601
0.000379126
0.000372224
0.000365308
0.000358381
0.000351447
0.000344511
0.000337576
0.000330647
0.000323728
0.000316822
0.000309935
0.000303071
0.000296233
0.000289426
0.000282654
0.000275922
0.000269233
0.000262591
0.000487814
0.000481463
0.000475044
0.00046856
0.000462012
0.000455404
0.000448737
0.000442015
0.00043524
0.000428416
0.000421545
0.000414632
0.000407679
0.000400689
0.000393668
0.000386617
0.000379542
0.000372447
0.000365334
0.000358209
0.000351076
0.00034394
0.000336803
0.000329672
0.00032255
0.000315442
0.000308353
0.000301287
0.000294249
0.000287243
0.000280274
0.000273346
0.000266464
0.000259632
0.000491028
0.00048454
0.000477978
0.000471346
0.000464645
0.000457879
0.00045105
0.000444161
0.000437215
0.000430215
0.000423164
0.000416067
0.000408926
0.000401745
0.000394529
0.000387281
0.000380005
0.000372706
0.000365388
0.000358055
0.000350713
0.000343365
0.000336017
0.000328673
0.000321338
0.000314017
0.000306715
0.000299437
0.000292187
0.000284971
0.000277794
0.00027066
0.000263574
0.000256542
0.000494401
0.000487771
0.000481062
0.000474278
0.000467419
0.00046049
0.000453493
0.00044643
0.000439306
0.000432123
0.000424885
0.000417596
0.000410259
0.000402879
0.000395459
0.000388004
0.000380518
0.000373006
0.000365472
0.000357922
0.00035036
0.000342791
0.00033522
0.000327652
0.000320093
0.000312548
0.000305021
0.00029752
0.000290048
0.00028261
0.000275214
0.000267863
0.000260563
0.000253319
0.000497937
0.000491161
0.000484301
0.000477359
0.000470338
0.00046324
0.000456069
0.000448827
0.000441518
0.000434145
0.000426713
0.000419224
0.000411683
0.000404094
0.000396462
0.000388791
0.000381086
0.000373351
0.000365591
0.000357813
0.00035002
0.000342218
0.000334414
0.000326611
0.000318817
0.000311036
0.000303274
0.000295537
0.000287831
0.000280161
0.000272534
0.000264954
0.000257429
0.000249962
0.000501639
0.000494714
0.000487698
0.000480595
0.000473406
0.000466135
0.000458783
0.000451356
0.000443856
0.000436286
0.000428652
0.000420956
0.000413203
0.000405397
0.000397543
0.000389647
0.000381712
0.000373744
0.000365748
0.000357731
0.000349697
0.000341652
0.000333602
0.000325553
0.000317511
0.000309483
0.000301473
0.000293489
0.000285537
0.000277623
0.000269753
0.000261933
0.00025417
0.000246469
0.000505512
0.000498434
0.000491259
0.00048399
0.000476628
0.000469178
0.000461641
0.000454023
0.000446325
0.000438551
0.000430707
0.000422796
0.000414822
0.000406791
0.000398707
0.000390575
0.000382401
0.00037419
0.000365948
0.00035768
0.000349394
0.000341094
0.000332787
0.00032448
0.000316179
0.00030789
0.000299621
0.000291378
0.000283167
0.000274996
0.000266871
0.000258799
0.000250786
0.000242839
0.000509558
0.000502325
0.000494987
0.000487548
0.00048001
0.000472375
0.000464648
0.000456831
0.000448929
0.000440945
0.000432884
0.00042475
0.000416547
0.000408282
0.000399958
0.000391581
0.000383158
0.000374693
0.000366194
0.000357665
0.000349115
0.000340548
0.000331972
0.000323395
0.000314822
0.000306261
0.000297719
0.000289203
0.000280721
0.00027228
0.000263887
0.00025555
0.000247275
0.00023907
0.000513784
0.000506391
0.000498887
0.000491274
0.000483555
0.000475731
0.000467808
0.000459788
0.000451675
0.000443474
0.000435188
0.000426823
0.000418383
0.000409874
0.000401302
0.000392671
0.000383988
0.000375259
0.000366491
0.00035769
0.000348863
0.000340018
0.000331161
0.0003223
0.000313442
0.000304596
0.000295768
0.000286967
0.0002782
0.000269476
0.000260802
0.000252186
0.000243636
0.000235159
0.000518191
0.000510638
0.000502964
0.000495174
0.000487268
0.000479252
0.000471127
0.000462898
0.000454568
0.000446142
0.000437625
0.000429021
0.000420336
0.000411575
0.000402743
0.000393848
0.000384895
0.000375891
0.000366843
0.000357758
0.000348643
0.000339506
0.000330355
0.000321198
0.000312042
0.000302897
0.00029377
0.000284669
0.000275604
0.000266583
0.000257614
0.000248705
0.000239866
0.000231105
0.000522785
0.000515068
0.000507222
0.000499251
0.000491156
0.000482941
0.00047461