/*--------------------------------*- C++ -*----------------------------------*\
| =========                 |                                                 |
| \\      /  F ield         | OpenFOAM: The Open Source CFD Toolbox           |
|  \\    /   O peration     | Version:  2412                                  |
|   \\  /    A nd           | Website:  www.openfoam.com                      |
|    \\/     M anipulation  |                                                 |
\*---------------------------------------------------------------------------*/
FoamFile
{
    version     2.0;
    format      ascii;
    arch        "LSB;label=32;scalar=64";
    class       surfaceScalarField;
    location    "17";
    object      phi;
}
// * * * * * * * * * * * * * * * * * * * * * * * * * * * * * * * * * * * * * //

dimensions      [0 3 -1 0 0 0 0];

oriented        oriented;

internalField   nonuniform List<scalar> 
10422
(
0.00575656
-4.03116e-05
-0.00575468
3.84335e-05
0.00575776
-2.6526e-05
2.53224e-05
0.00575829
-1.26811e-05
1.2148e-05
0.00575815
1.19854e-06
-1.06066e-06
0.00575735
1.50791e-05
-1.42712e-05
0.00575587
2.89208e-05
-2.74476e-05
0.00575374
4.26852e-05
-4.0555e-05
0.00575097
5.63357e-05
-5.35599e-05
0.00574756
6.9837e-05
-6.64301e-05
0.00574354
8.31546e-05
-7.91338e-05
0.00573893
9.62544e-05
-9.16402e-05
0.00573374
0.000109103
-0.000103918
0.00572801
0.000121667
-0.000115937
0.00572176
0.000133914
-0.000127666
0.00571503
0.000145809
-0.000139073
0.00570784
0.000157318
-0.000150126
0.00570022
0.000168408
-0.000160792
0.00569221
0.000179046
-0.00017104
0.00568385
0.000189199
-0.000180838
0.00567517
0.000198836
-0.000190155
0.0056662
0.00020793
-0.000198963
0.00565699
0.000216456
-0.000207238
0.00564755
0.000224393
-0.000214957
0.000231724
-0.000222104
0.00577027
-4.22933e-05
-0.00576829
0.00577153
-2.77924e-05
0.00577208
-1.32314e-05
0.00577192
1.36441e-06
0.00577104
1.59595e-05
0.00576945
3.05104e-05
0.00576716
4.49748e-05
0.00576418
5.93126e-05
0.00576053
7.3485e-05
0.00575623
8.74541e-05
0.00575131
0.000101183
0.00574577
0.000114635
0.00573967
0.000127775
0.00573301
0.000140565
0.00572585
0.000152972
0.00571821
0.000164958
0.00571013
0.000176489
0.00570165
0.00018753
0.0056928
0.000198049
0.00568362
0.000208014
0.00567415
0.000217398
0.00566443
0.000226178
0.00565449
0.000234332
0.000241846
0.0057847
-4.43903e-05
-0.0057826
0.00578603
-2.91273e-05
0.0057866
-1.38017e-05
0.00578641
1.55913e-06
0.00578545
1.69171e-05
0.00578373
3.22247e-05
0.00578127
4.74353e-05
0.00577808
6.25051e-05
0.00577417
7.73915e-05
0.00576958
9.2053e-05
0.00576431
0.000106449
0.0057584
0.00012054
0.00575189
0.000134287
0.00574481
0.000147651
0.00573718
0.000160595
0.00572906
0.00017308
0.00572048
0.000185069
0.00571148
0.000196529
0.00570211
0.000207425
0.00569239
0.000217726
0.00568239
0.000227406
0.00567212
0.000236441
0.00566164
0.000244812
0.000252507
0.00579989
-4.66141e-05
-0.00579766
0.0058013
-3.05371e-05
0.00580189
-1.43946e-05
0.00580167
1.78377e-06
0.00580063
1.79567e-05
0.00579878
3.40722e-05
0.00579613
5.0079e-05
0.00579271
6.59292e-05
0.00578853
8.15758e-05
0.00578361
9.69734e-05
0.00577798
0.000112078
0.00577167
0.000126846
0.00576472
0.000141235
0.00575717
0.000155204
0.00574905
0.000168712
0.00574041
0.000181719
0.0057313
0.000194188
0.00572174
0.000206082
0.0057118
0.000217368
0.00570151
0.000228015
0.00569092
0.000237995
0.00568007
0.000247289
0.00566901
0.000255877
0.000263749
0.00581589
-4.89762e-05
-0.00581353
0.00581739
-3.20289e-05
0.005818
-1.50128e-05
0.00581775
2.03975e-06
0.00581662
1.90839e-05
0.00581463
3.60624e-05
0.00581179
5.29194e-05
0.00580812
6.96018e-05
0.00580364
8.60584e-05
0.00579837
0.000102239
0.00579235
0.000118096
0.00578561
0.000133582
0.0057782
0.000148651
0.00577014
0.000163258
0.0057615
0.000177361
0.0057523
0.000190917
0.0057426
0.000203887
0.00573245
0.000216233
0.0057219
0.000227922
0.00571099
0.000238923
0.00569977
0.000249212
0.00568829
0.000258766
0.0056766
0.000267571
0.000275617
0.00583278
-5.14887e-05
-0.00583026
0.00583436
-3.361e-05
0.005835
-1.56591e-05
0.00583471
2.32886e-06
0.00583349
2.03048e-05
0.00583135
3.82061e-05
0.0058283
5.59712e-05
0.00582436
7.3542e-05
0.00581955
9.08623e-05
0.00581392
0.000107877
0.00580748
0.000124534
0.00580028
0.000140782
0.00579236
0.000156571
0.00578376
0.000171853
0.00577454
0.000186582
0.00576474
0.000200715
0.00575442
0.000214209
0.00574362
0.000227027
0.00573241
0.000239135
0.00572083
0.000250502
0.00570894
0.000261105
0.00569678
0.000270923
0.00568441
0.000279944
0.000288161
0.00585059
-5.41649e-05
-0.00584791
0.00585227
-3.52884e-05
0.00585294
-1.63363e-05
0.00585262
2.65336e-06
0.0058513
2.16268e-05
0.00584899
4.05152e-05
0.00584571
5.92511e-05
0.00584148
7.77708e-05
0.00583633
9.60125e-05
0.00583029
0.000113917
0.0058234
0.000131425
0.0058157
0.000148482
0.00580724
0.000165035
0.00579806
0.000181031
0.00578822
0.000196422
0.00577777
0.000211161
0.00576678
0.000225205
0.00575529
0.000238516
0.00574336
0.000251058
0.00573106
0.000262803
0.00571844
0.000273728
0.00570555
0.000283814
0.00569244
0.00029305
0.000301434
0.0058694
-5.70191e-05
-0.00586654
0.00587118
-3.70726e-05
0.00587189
-1.70471e-05
0.00587153
3.01606e-06
0.0058701
2.30581e-05
0.00586761
4.30034e-05
0.00586409
6.2778e-05
0.00585954
8.23118e-05
0.00585402
0.000101537
0.00584755
0.000120389
0.00584017
0.000138804
0.00583193
0.000156722
0.00582288
0.000174085
0.00581307
0.000190838
0.00580256
0.000206927
0.00579142
0.000222306
0.0057797
0.000236928
0.00576746
0.000250754
0.00575477
0.000263749
0.00574169
0.000275885
0.00572828
0.000287139
0.00571459
0.000297496
0.0057007
0.000306947
0.000315492
0.00588928
-6.00667e-05
-0.00588623
0.00589118
-3.89716e-05
0.00589192
-1.77942e-05
0.00589152
3.42059e-06
0.00588997
2.46084e-05
0.00588729
4.56862e-05
0.00588349
6.65728e-05
0.00587861
8.71915e-05
0.00587268
0.000107468
0.00586574
0.000127332
0.00585783
0.000146713
0.00584901
0.000165547
0.00583932
0.00018377
0.00582883
0.000201324
0.00581761
0.000218153
0.00580571
0.000234206
0.0057932
0.000249436
0.00578015
0.000263801
0.00576663
0.000277268
0.00575271
0.000289808
0.00573845
0.0003014
0.00572391
0.000312032
0.00570916
0.000321697
0.000330396
0.0059103
-6.33243e-05
-0.00590704
0.00591233
-4.09948e-05
0.00591311
-1.85798e-05
0.00591266
3.87158e-06
0.00591098
2.62891e-05
0.00590808
4.85816e-05
0.005904
7.06598e-05
0.00589875
9.24398e-05
0.00589238
0.000113841
0.00588492
0.000134784
0.00587644
0.000155196
0.00586698
0.000175005
0.00585661
0.000194143
0.00584539
0.000212548
0.00583338
0.000230159
0.00582066
0.000246923
0.00580731
0.000262792
0.00579338
0.000277723
0.00577897
0.000291682
0.00576414
0.00030464
0.00574896
0.000316579
0.0057335
0.000327488
0.00571784
0.000337364
0.000346212
0.00593256
-6.68094e-05
-0.00592907
0.00593471
-4.31519e-05
0.00593554
-1.94059e-05
0.00593504
4.37491e-06
0.00593321
2.81136e-05
0.00593008
5.171e-05
0.00592568
7.50664e-05
0.00592003
9.80906e-05
0.00591317
0.000120694
0.00590516
0.000142792
0.00589606
0.000164304
0.00588591
0.000185152
0.00587479
0.000205263
0.00586277
0.00022457
0.00584992
0.00024301
0.00583631
0.000260526
0.00582204
0.000277067
0.00580717
0.000292591
0.00579179
0.000307062
0.00577598
0.000320454
0.00575981
0.000332748
0.00574336
0.000343937
0.0057267
0.000354021
0.000363007
0.00595613
-7.0541e-05
-0.0059524
0.00595843
-4.54527e-05
0.0059593
-2.02735e-05
0.00595873
4.93803e-06
0.00595675
3.00976e-05
0.00595337
5.50953e-05
0.00594861
7.98237e-05
0.00594252
0.000104182
0.00593514
0.000128074
0.00592652
0.000151407
0.00591673
0.000174093
0.00590584
0.000196048
0.00589391
0.000217195
0.00588102
0.00023746
0.00586725
0.000256778
0.00585269
0.000275087
0.00583742
0.000292337
0.00582153
0.000308482
0.0058051
0.000323487
0.00578823
0.000337327
0.00577099
0.000349985
0.00575347
0.000361455
0.00573575
0.000371742
0.000380856
0.00598112
-7.45392e-05
-0.00597713
0.00598358
-4.79073e-05
0.00598449
-2.11829e-05
0.00598386
5.57032e-06
0.00598169
3.22598e-05
0.00597802
5.87648e-05
0.00597288
8.49676e-05
0.0059663
0.000110758
0.00595835
0.000136031
0.00594907
0.000160685
0.00593854
0.000184625
0.00592682
0.000207762
0.00591401
0.000230011
0.00590017
0.000251294
0.00588541
0.000271542
0.00586981
0.00029069
0.00585346
0.000308685
0.00583646
0.000325481
0.0058189
0.000341042
0.00580089
0.000355344
0.0057825
0.000368373
0.00576383
0.000380125
0.00574496
0.000390607
0.000399836
0.00600765
-7.88251e-05
-0.00600336
0.00601027
-5.05257e-05
0.00601122
-2.21329e-05
0.0060105
6.28346e-06
0.00600814
3.4622e-05
0.00600416
6.27502e-05
0.00599859
9.05388e-05
0.00599148
0.000117867
0.00598289
0.000144621
0.00597288
0.000170691
0.00596153
0.000195972
0.00594893
0.00022037
0.00593514
0.000243792
0.00592028
0.000266157
0.00590443
0.00028739
0.0058877
0.000307424
0.00587018
0.000326203
0.00585198
0.00034368
0.00583321
0.000359819
0.00581395
0.000374598
0.00579432
0.000388003
0.00577441
0.000400035
0.00575432
0.000410703
0.000420029
0.00603582
-8.34209e-05
-0.00603123
0.00603862
-5.33172e-05
0.0060396
-2.31207e-05
0.00603879
7.09208e-06
0.00603621
3.72103e-05
0.00603187
6.70882e-05
0.00602582
9.6584e-05
0.00601812
0.000125566
0.00600884
0.00015391
0.00599803
0.000181496
0.00598579
0.000208212
0.0059722
0.000233955
0.00595737
0.000258628
0.00594138
0.000282143
0.00592435
0.000304419
0.00590639
0.000325388
0.0058876
0.00034499
0.0058681
0.000363179
0.005848
0.000379919
0.00582741
0.000395187
0.00580644
0.000408973
0.0057852
0.000421279
0.00576378
0.000432121
0.000441524
0.00606578
-8.83497e-05
-0.00606085
0.00606875
-5.62906e-05
0.00606977
-2.41414e-05
0.00606885
8.01435e-06
0.00606601
4.00554e-05
0.00606127
7.18214e-05
0.0060547
0.000103157
0.00604635
0.000133919
0.00603629
0.00016397
0.0060246
0.000193182
0.00601138
0.000221434
0.00599672
0.000248614
0.00598073
0.000274618
0.00596352
0.000299354
0.0059452
0.000322735
0.0059259
0.00034469
0.00590573
0.000365157
0.00588482
0.000384089
0.00586329
0.00040145
0.00584126
0.000417218
0.00581885
0.000431386
0.00579617
0.000443961
0.00577333
0.000454959
0.000464414
0.00609765
-9.36343e-05
-0.00609237
0.00610082
-5.94528e-05
0.00610186
-2.51869e-05
0.0061008
9.07305e-06
0.00609766
4.31941e-05
0.00609249
7.69998e-05
0.00608532
0.00011032
0.00607624
0.000142998
0.00606533
0.000174884
0.00605267
0.000205841
0.00603837
0.000235736
0.00602253
0.00026445
0.00600528
0.000291873
0.00598673
0.000317905
0.00596701
0.000342457
0.00594625
0.00036545
0.00592458
0.000386824
0.00590214
0.000406529
0.00587906
0.000424531
0.00585547
0.000440808
0.0058315
0.000455357
0.00580727
0.000468187
0.00578291
0.000479322
0.000488798
0.0061316
-0.00612594
0.00613496
0.00613602
0.00613479
0.00613132
0.00612563
0.00611781
0.00610792
0.00609606
0.00608232
0.00606683
0.0060497
0.00603106
0.00601104
0.000337923
0.00598978
0.000363712
0.00596743
0.000387799
0.00594414
0.000410121
0.00592004
0.00043063
0.00589528
0.00044929
0.00587
0.000466082
0.00584435
0.000481006
0.00581847
0.000494075
0.00579247
0.000505319
0.00051478
0.00603646
0.00601353
0.00598945
0.00596438
0.00593848
0.00591191
0.00588481
0.00585736
0.00582968
0.00580194
0.00542132
-0.000128342
-0.00540888
0.000115902
0.00544678
-0.000130755
0.000105296
0.00548499
-0.000132633
9.44182e-05
0.00553554
-0.000133845
8.32979e-05
0.00559784
-0.000134266
7.19638e-05
0.00567118
-0.00013378
6.04461e-05
-0.000132272
4.87724e-05
0.00543219
-0.000141153
-0.00541938
0.00545804
-0.000156611
0.00549668
-0.00017127
0.00554768
-0.00018484
0.00561045
-0.000197041
0.00568428
-0.000207607
-0.000216279
0.00544356
-0.000154361
-0.00543035
0.00546984
-0.000182891
0.00550893
-0.000210359
0.0055604
-0.000236314
0.00562368
-0.00026032
0.00569804
-0.000281964
-0.00030084
0.00545546
-0.000167997
-0.00544183
0.0054822
-0.000209628
0.00552177
-0.000249932
0.00557376
-0.0002883
0.00563758
-0.000324141
0.00571251
-0.000356892
-0.000385995
0.00546793
-0.000182092
-0.00545383
0.00549515
-0.000236855
0.00553525
-0.000290027
0.00558779
-0.00034084
0.00565219
-0.000388547
0.00572773
-0.000432434
-0.000471794
0.00548098
-0.000196683
-0.00546639
0.00550874
-0.00026461
0.00554939
-0.000330683
0.00560253
-0.000393974
0.00566756
-0.000453582
0.00574377
-0.00050864
-0.000558289
0.00549466
-0.000211809
-0.00547954
0.00552299
-0.000292935
0.00556425
-0.000371945
0.00561803
-0.000447752
0.00568374
-0.000519297
0.00576067
-0.000585564
-0.000645535
0.00550901
-0.000227514
-0.0054933
0.00553795
-0.000321877
0.00557986
-0.000413861
0.00563433
-0.000502222
0.00570078
-0.000585746
0.00577848
-0.000663264
-0.000733596
0.00552405
-0.000243844
-0.00550772
0.00555366
-0.000351484
0.00559628
-0.000456484
0.0056515
-0.000557443
0.00571875
-0.00065299
0.00579729
-0.000741803
-0.000822539
0.00553985
-0.000260853
-0.00552284
0.00557018
-0.00038181
0.00561356
-0.000499872
0.00566959
-0.000613474
0.0057377
-0.000721093
0.00581715
-0.000821252
-0.000912438
0.00555644
-0.000278595
-0.0055387
0.00558754
-0.000412917
0.00563176
-0.000544087
0.00568867
-0.000670383
0.0057577
-0.000790126
0.00583814
-0.000901685
-0.00100337
0.00557387
-0.000297134
-0.00555534
0.00560583
-0.000444869
0.00565094
-0.000589198
0.0057088
-0.000728243
0.00577884
-0.000860167
0.00586034
-0.000983186
-0.00109543
0.00559221
-0.000316535
-0.00557281
0.00562508
-0.000477736
0.00567116
-0.00063528
0.00573005
-0.000787133
0.00580119
-0.000931302
0.00588385
-0.00106585
-0.00118871
0.00561151
-0.000336876
-0.00559117
0.00564537
-0.000511599
0.00569251
-0.000682417
0.00575252
-0.000847141
0.00582484
-0.00100362
0.00590876
-0.00114976
-0.00128332
0.00563184
-0.000358238
-0.00561047
0.00566678
-0.000546543
0.00571506
-0.0007307
0.00577629
-0.000908365
0.0058499
-0.00107723
0.00593518
-0.00123505
-0.00137937
0.00565326
-0.000380714
-0.00563078
0.00568938
-0.000582664
0.00573891
-0.000780228
0.00580145
-0.000970908
0.00587646
-0.00115225
0.00596323
-0.00132182
-0.00147698
0.00567586
-0.000404404
-0.00565217
0.00571326
-0.000620068
0.00576415
-0.000831113
0.00582813
-0.00103489
0.00590466
-0.00122878
0.00599305
-0.00141021
-0.0015763
0.00569971
-0.00042942
-0.0056747
0.00573851
-0.00065887
0.00579088
-0.000883476
0.00585642
-0.00110043
0.00593462
-0.00130698
0.00602477
-0.00150035
-0.00167748
0.00572492
-0.000455883
-0.00569845
0.00576524
-0.000699199
0.00581922
0.00588647
0.00596648
0.00605854
0.00575157
-0.00572352
0.00560192
-0.000108116
-0.00567441
0.000180607
0.0055398
-0.000110391
0.000172513
0.00548888
-0.000113099
0.000164013
0.00544987
-0.000116104
0.000155117
0.0054233
-0.00011927
0.00014584
0.00540956
-0.000122459
0.000136198
-0.000125529
0.000126211
0.00561076
-3.57942e-05
-0.00568308
0.00554884
-4.84725e-05
0.00549816
-6.24187e-05
0.00545941
-7.73535e-05
0.00543313
-9.29925e-05
0.00541971
-0.000109039
-0.000125193
0.00561995
3.63401e-05
-0.00569208
0.00555825
1.32241e-05
0.00550782
-1.19933e-05
0.00546936
-3.88841e-05
0.00544339
-6.70301e-05
0.00543032
-9.59627e-05
-0.000125228
0.00562949
0.000108266
-0.00570141
0.00556804
7.46766e-05
0.00551789
3.81479e-05
0.00547972
-7.07804e-07
0.0054541
-4.1413e-05
0.00544139
-8.32559e-05
-0.000125661
0.00563939
0.000179963
-0.00571109
0.0055782
0.000135867
0.00552835
8.80035e-05
0.00549055
3.70937e-05
0.00546528
-1.61474e-05
0.00545297
-7.09449e-05
-0.000126522
0.00564968
0.000251407
-0.00572112
0.00558878
0.000196766
0.00553926
0.000137524
0.00550181
7.45458e-05
0.00547694
8.71396e-06
0.00546507
-5.90651e-05
-0.000127847
0.00566035
0.000322573
-0.00573152
0.00559977
0.000257347
0.00555061
0.000186687
0.00551355
0.000111607
0.00548912
3.3141e-05
0.00547771
-4.76516e-05
-0.000129672
0.00567144
0.00039343
-0.00574229
0.0056112
0.000317578
0.00556243
0.000235459
0.0055258
0.000148239
0.00550184
5.71002e-05
0.00549093
-3.67435e-05
-0.00013204
0.00568294
0.000463949
-0.00575346
0.00562309
0.000377427
0.00557474
0.000283804
0.00553858
0.000184402
0.00551513
8.05508e-05
0.00550477
-2.6383e-05
-0.000134994
0.00569487
0.000534094
-0.00576502
0.00563544
0.000436855
0.00558757
0.000331683
0.00555191
0.000220053
0.00552902
0.000103448
0.00551925
-1.6616e-05
-0.000138584
0.00570726
0.000603824
-0.00577699
0.00564829
0.000495821
0.00560093
0.000379049
0.00556583
0.000255147
0.00554354
0.000125741
0.00553441
-7.49098e-06
-0.000142866
0.00572011
0.000673094
-0.00578938
0.00566165
0.000554277
0.00561485
0.000425855
0.00558036
0.00028963
0.00555873
0.000147377
0.0055503
9.31058e-07
-0.000147897
0.00573344
0.000741856
-0.0058022
0.00567554
0.000612171
0.00562935
0.000472046
0.00559554
0.000323447
0.00557461
0.000168301
0.00556697
8.57412e-06
-0.000153737
0.00574726
0.00081005
-0.00581546
0.00568999
0.000669443
0.00564448
0.000517558
0.00561139
0.000356532
0.00559125
0.000188439
0.00558444
1.53874e-05
-0.000160465
0.0057616
0.000877614
-0.00582916
0.00570501
0.000726028
0.00566025
0.000562324
0.00562796
0.000388813
0.00560868
0.000207719
0.00560278
2.1292e-05
-0.000168159
0.00577645
0.000944475
-0.00584331
0.00572063
0.000781851
0.00567669
0.000606266
0.00564529
0.000420212
0.00562695
0.000226061
0.00562204
2.6202e-05
-0.000176905
0.00579184
0.00101055
-0.00585791
0.00573686
0.000836828
0.00569383
0.000649298
0.0056634
0.00045064
0.00564609
0.000243372
0.00564227
3.00237e-05
-0.000186802
0.00580777
0.00107575
-0.00587296
0.00575373
0.000890863
0.00571171
0.000691324
0.00568235
0.000479997
0.00566617
0.000259551
0.00566354
3.26514e-05
-0.000197956
0.00582424
0.00577126
0.00573035
0.00570217
0.00568724
0.00568592
3.39696e-05
-0.000210488
0.00570947
0.00537991
-0.000237164
0.000231454
0.00538586
-0.000240646
0.000234696
0.00539205
-0.000244041
0.000237848
0.00539849
-0.000247334
0.000240894
0.00540518
-0.000250507
0.000243818
0.00541212
-0.000253543
0.000246605
0.00541931
-0.000256428
0.000249239
0.00542674
-0.000259143
0.000251704
0.00543443
-0.00026167
0.000253983
0.00544237
-0.000263991
0.000256057
0.00545054
-0.000266085
0.000257909
0.00545896
-0.000267933
0.000259519
0.0054676
-0.000269514
0.000260869
0.00547647
-0.000270808
0.000261939
0.00548555
-0.000271793
0.00026271
0.00549484
-0.000272448
0.000263161
0.00550432
-0.000272752
0.000263273
0.00551398
-0.000272684
0.000263027
0.00552379
-0.000272221
0.000262403
0.00553376
-0.000271345
0.000261382
0.00554385
-0.000270035
0.000259947
0.00555404
-0.000268272
0.000258079
0.00556431
-0.000266038
0.000255763
0.00557465
-0.000263315
0.000252984
0.00558501
-0.000260087
0.000249727
0.00559537
-0.000256342
0.00024598
0.0056057
-0.000252066
0.000241732
0.00561598
-0.000247249
0.000236975
0.00562616
-0.000241883
0.000231702
0.00563621
-0.000235963
0.000225908
0.0056461
-0.000229484
0.000219591
0.0056558
-0.000222444
0.00021275
0.00566525
-0.00021484
0.000205385
-0.000206651
0.000197493
0.00537641
-0.000242956
0.00538245
-0.000246691
0.00538876
-0.000250344
0.00539532
-0.000253898
0.00540215
-0.000257335
0.00540924
-0.000260638
0.0054166
-0.00026379
0.00542423
-0.000266773
0.00543213
-0.000269567
0.00544029
-0.000272153
0.00544872
-0.000274509
0.0054574
-0.000276615
0.00546633
-0.000278448
0.00547551
-0.000279986
0.00548493
-0.000281207
0.00549456
-0.000282087
0.00550442
-0.000282604
0.00551447
-0.000282734
0.0055247
-0.000282454
0.0055351
-0.000281743
0.00554564
-0.000280577
0.0055563
-0.000278936
0.00556706
-0.000276799
0.0055779
-0.000274148
0.00558877
-0.000270965
0.00559967
-0.000267233
0.00561054
-0.000262939
0.00562136
-0.00025807
0.00563209
-0.000252617
0.0056427
-0.000246573
0.00565315
-0.000239933
0.0056634
-0.00023269
0.0056734
-0.000224838
-0.000216336
0.00537266
-0.000248825
0.0053788
-0.000252827
0.00538521
-0.000256752
0.00539189
-0.000260583
0.00539886
-0.0002643
0.00540611
-0.000267887
0.00541364
-0.000271324
0.00542146
-0.000274594
0.00542957
-0.000277675
0.00543796
-0.000280546
0.00544664
-0.000283186
0.00545559
-0.000285571
0.00546482
-0.000287678
0.00547432
-0.000289483
0.00548407
-0.000290962
0.00549408
-0.00029209
0.00550432
-0.000292843
0.00551478
-0.000293194
0.00552544
-0.000293119
0.00553629
-0.000292593
0.00554731
-0.000291593
0.00555847
-0.000290094
0.00556974
-0.000288075
0.00558111
-0.000285513
0.00559253
-0.000282389
0.00560398
-0.000278685
0.00561543
-0.000274384
0.00562683
-0.000269473
0.00563816
-0.000263941
0.00564936
-0.000257777
0.0056604
-0.000250976
0.00567124
-0.000243529
0.00568182
-0.000235421
-0.000226592
0.00536866
-0.000254763
0.00537488
-0.000259047
0.00538139
-0.00026326
0.00538819
-0.000267383
0.00539529
-0.000271398
0.00540269
-0.000275286
0.00541039
-0.000279029
0.0054184
-0.000282605
0.00542672
-0.000285994
0.00543535
-0.000289172
0.00544428
-0.000292117
0.00545351
-0.000294805
0.00546305
-0.00029721
0.00547287
-0.000299307
0.00548298
-0.000301069
0.00549336
-0.00030247
0.005504
-0.000303482
0.00551488
-0.00030408
0.005526
-0.000304234
0.00553732
-0.000303919
0.00554884
-0.000303107
0.00556052
-0.000301773
0.00557233
-0.000299892
0.00558426
-0.000297439
0.00559626
-0.000294393
0.00560831
-0.000290732
0.00562036
-0.000286439
0.00563239
-0.000281497
0.00564434
-0.000275893
0.00565618
-0.000269615
0.00566786
-0.000262655
0.00567933
-0.000255002
0.00569054
-0.000246634
-0.000237464
0.00536439
-0.000260765
0.00537068
-0.000265345
0.00537728
-0.000269861
0.0053842
-0.000274294
0.00539142
-0.000278625
0.00539897
-0.000282834
0.00540684
-0.000286901
0.00541504
-0.000290805
0.00542357
-0.000294524
0.00543243
-0.000298033
0.00544162
-0.000301307
0.00545114
-0.000304322
0.00546098
-0.000307051
0.00547114
-0.000309465
0.00548161
-0.000311537
0.00549237
-0.000313238
0.00550343
-0.000314538
0.00551476
-0.000315409
0.00552634
-0.000315819
0.00553817
-0.000315741
0.0055502
-0.000315144
0.00556243
-0.000313999
0.00557482
-0.000312279
0.00558733
-0.000309958
0.00559995
-0.000307009
0.00561263
-0.000303411
0.00562533
-0.000299141
0.00563802
-0.000294181
0.00565064
-0.000288515
0.00566315
-0.000282131
0.00567551
-0.000275016
0.00568767
-0.000267156
0.00569956
-0.000258521
-0.000248998
0.00535982
-0.000266822
0.00536619
-0.000271713
0.00537287
-0.000276549
0.00537989
-0.000281309
0.00538724
-0.000285974
0.00539493
-0.000290524
0.00540297
-0.000294937
0.00541135
-0.000299192
0.00542009
-0.000303263
0.00542919
-0.000307127
0.00543864
-0.000310757
0.00544844
-0.000314126
0.00545859
-0.000317205
0.0054691
-0.000319965
0.00547993
-0.000322376
0.0054911
-0.000324406
0.00550259
-0.000326024
0.00551438
-0.000327197
0.00552645
-0.000327894
0.00553879
-0.000328081
0.00555138
-0.000327727
0.00556418
-0.0003268
0.00557717
-0.000325268
0.00559031
-0.000323103
0.00560358
-0.000320276
0.00561693
-0.00031676
0.00563032
-0.000312531
0.00564371
-0.000307569
0.00565704
-0.000301854
0.00567029
-0.000295372
0.00568338
-0.000288106
0.00569626
-0.000280041
0.00570888
-0.000271135
-0.000261245
0.00535494
-0.000272924
0.00536137
-0.000278142
0.00536814
-0.000283315
0.00537525
-0.000288421
0.00538272
-0.00029344
0.00539054
-0.000298351
0.00539874
-0.000303133
0.00540731
-0.000307761
0.00541626
-0.00031221
0.00542558
-0.000316455
0.0054353
-0.000320468
0.00544539
-0.000324219
0.00545586
-0.000327679
0.00546671
-0.000330815
0.00547793
-0.000333596
0.00548951
-0.000335987
0.00550144
-0.000337954
0.00551371
-0.000339463
0.00552629
-0.000340478
0.00553918
-0.000340964
0.00555233
-0.000340885
0.00556574
-0.000340205
0.00557936
-0.000338891
0.00559317
-0.00033691
0.00560712
-0.000334229
0.00562118
-0.00033082
0.00563531
-0.000326654
0.00564944
-0.000321708
0.00566355
-0.000315959
0.00567757
-0.000309389
0.00569144
-0.00030198
0.00570511
-0.000293711
0.0057185
-0.000284531
-0.000274261
0.00534975
-0.000279061
0.00535623
-0.000284623
0.00536306
-0.00029015
0.00537026
-0.000295621
0.00537784
-0.000301014
0.00538579
-0.000306308
0.00539414
-0.000311481
0.00540289
-0.000316508
0.00541204
-0.000321362
0.0054216
-0.000326016
0.00543157
-0.00033044
0.00544196
-0.000334604
0.00545275
-0.000338475
0.00546396
-0.00034202
0.00547557
-0.000345204
0.00548757
-0.000347991
0.00549996
-0.000350343
0.00551272
-0.000352223
0.00552583
-0.000353593
0.00553928
-0.000354412
0.00555304
-0.000354642
0.00556708
-0.000354245
0.00558137
-0.000353182
0.00559588
-0.000351416
0.00561056
-0.000348912
0.00562537
-0.000345636
0.00564028
-0.000341557
0.00565522
-0.000336647
0.00567014
-0.000330881
0.00568499
-0.000324237
0.0056997
-0.000316694
0.00571421
-0.000308224
0.00572845
-0.000298767
-0.000288105
0.00534421
-0.000285222
0.00535073
-0.000291144
0.00535762
-0.000297043
0.0053649
-0.000302898
0.00537257
-0.000308687
0.00538065
-0.000314387
0.00538914
-0.000319976
0.00539806
-0.000325427
0.00540741
-0.000330712
0.0054172
-0.000335804
0.00542743
-0.000340671
0.00543811
-0.00034528
0.00544923
-0.000349597
0.0054608
-0.000353587
0.0054728
-0.00035721
0.00548524
-0.00036043
0.00549811
-0.000363205
0.00551138
-0.000365495
0.00552504
-0.000367257
0.00553908
-0.000368449
0.00555346
-0.000369028
0.00556817
-0.00036895
0.00558316
-0.000368175
0.00559841
-0.00036666
0.00561386
-0.000364365
0.00562948
-0.000361254
0.00564521
-0.00035729
0.005661
-0.000352441
0.0056768
-0.000346678
0.00569254
-0.000339976
0.00570816
-0.000332309
0.00572358
-0.000323645
0.00573872
-0.000313909
-0.000302843
0.00533831
-0.000291394
0.00534486
-0.000297693
0.0053518
-0.000303982
0.00535914
-0.000310241
0.0053669
-0.000316447
0.00537509
-0.000322577
0.00538372
-0.000328607
0.0053928
-0.000334509
0.00540235
-0.000340256
0.00541236
-0.000345817
0.00542285
-0.000351159
0.00543382
-0.000356248
0.00544527
-0.000361047
0.0054572
-0.000365518
0.00546961
-0.000369621
0.00548249
-0.000373314
0.00549584
-0.000376553
0.00550964
-0.000379295
0.00552387
-0.000381493
0.00553852
-0.0003831
0.00555357
-0.00038407
0.00556897
-0.000384355
0.0055847
-0.000383908
0.00560073
-0.000382683
0.005617
-0.000380636
0.00563347
-0.000377723
0.00565008
-0.000373906
0.00566679
-0.000369146
0.00568352
-0.000363411
0.00570021
-0.00035667
0.0057168
-0.000348893
0.0057332
-0.000340042
0.00574932
-0.000330028
-0.000318544
0.00533203
-0.000297563
0.0053386
-0.000304255
0.00534557
-0.000310954
0.00535296
-0.000317638
0.0053608
-0.000324283
0.00536909
-0.000330867
0.00537785
-0.000337364
0.00538708
-0.000343747
0.00539681
-0.000349985
0.00540704
-0.000356047
0.00541778
-0.000361899
0.00542904
-0.000367504
0.00544081
-0.000372823
0.00545311
-0.000377817
0.00546593
-0.000382441
0.00547927
-0.000386651
0.00549312
-0.0003904
0.00550746
-0.000393639
0.00552229
-0.00039632
0.00553758
-0.00039839
0.00555331
-0.000399798
0.00556944
-0.000400491
0.00558595
-0.000400419
0.0056028
-0.000399529
0.00561993
-0.000397771
0.00563731
-0.000395097
0.00565487
-0.000391463
0.00567254
-0.000386825
0.00569028
-0.000381145
0.005708
-0.000374388
0.00572562
-0.000366519
0.00574307
-0.000357492
0.00576024
-0.000347201
-0.000335288
0.00532536
-0.000303712
0.00533192
-0.000310815
0.00533891
-0.000317942
0.00534635
-0.000325071
0.00535424
-0.00033218
0.00536262
-0.000339243
0.00537149
-0.000346234
0.00538087
-0.000353127
0.00539077
-0.000359888
0.00540121
-0.000366486
0.0054122
-0.000372884
0.00542374
-0.000379044
0.00543584
-0.000384926
0.00544851
-0.000390484
0.00546174
-0.000395675
0.00547554
-0.000400449
0.0054899
-0.000404756
0.0055048
-0.000408544
0.00552024
-0.000411758
0.00553619
-0.000414343
0.00555264
-0.000416241
0.00556954
-0.000417395
0.00558687
-0.000417748
0.00560458
-0.000417242
0.00562263
-0.000415821
0.00564097
-0.000413432
0.00565953
-0.000410022
0.00567824
-0.000405543
0.00569705
-0.000399951
0.00571587
-0.000393205
0.00573461
-0.000385265
0.0057532
-0.000376075
0.00577151
-0.000365511
-0.000353158
0.00531828
-0.000309823
0.00532482
-0.000317355
0.00533181
-0.000324929
0.00533927
-0.000332526
0.00534721
-0.00034012
0.00535565
-0.000347688
0.00536462
-0.000355203
0.00537413
-0.000362635
0.0053842
-0.000369954
0.00539483
-0.000377123
0.00540606
-0.000384107
0.00541787
-0.000390863
0.0054303
-0.000397349
0.00544333
-0.00040352
0.00545698
-0.000409326
0.00547125
-0.000414715
0.00548613
-0.000419633
0.00550161
-0.000424023
0.00551767
-0.000427827
0.00553432
-0.000430983
0.0055515
-0.00043343
0.00556921
-0.000435102
0.0055874
-0.000435937
0.00560603
-0.000435871
0.00562505
-0.000434841
0.0056444
-0.000432786
0.00566403
-0.000429648
0.00568386
-0.000425372
0.00570381
-0.000419906
0.00572381
-0.000413204
0.00574376
-0.000405217
0.00576357
-0.000395881
0.00578311
-0.000385052
-0.000372248
0.00531078
-0.000315878
0.00531728
-0.000323855
0.00532424
-0.000331897
0.0053317
-0.000339982
0.00533966
-0.000348086
0.00534816
-0.000356185
0.00535721
-0.000364252
0.00536683
-0.000372257
0.00537705
-0.000380167
0.00538787
-0.000387945
0.00539932
-0.000395554
0.0054114
-0.00040295
0.00542414
-0.000410089
0.00543754
-0.00041692
0.00545161
-0.000423393
0.00546635
-0.000429452
0.00548175
-0.000435038
0.00549782
-0.000440091
0.00551454
-0.000444546
0.00553189
-0.000448336
0.00554985
-0.000451393
0.0055684
-0.000453647
0.00558749
-0.000455028
0.00560708
-0.000455464
0.00562713
-0.000454885
0.00564756
-0.000453223
0.00566833
-0.000450411
0.00568934
-0.000446387
0.00571053
-0.000441092
0.00573179
-0.000434471
0.00575305
-0.000426468
0.00577417
-0.000417008
0.00579504
-0.000405924
-0.000392661
0.00530282
-0.000321855
0.00530926
-0.000330294
0.00531618
-0.000338822
0.00532362
-0.000347417
0.00533159
-0.000356056
0.00534012
-0.000364713
0.00534923
-0.000373362
0.00535894
-0.000381972
0.00536928
-0.000390509
0.00538028
-0.000398936
0.00539193
-0.000407213
0.00540428
-0.000415294
0.00541732
-0.000423134
0.00543108
-0.000430679
0.00544556
-0.000437875
0.00546077
-0.000444663
0.00547672
-0.000450979
0.00549338
-0.000456758
0.00551077
-0.00046193
0.00552885
-0.000466423
0.00554762
-0.000470161
0.00556704
-0.000473068
0.00558708
-0.000475064
0.00560769
-0.000476072
0.00562882
-0.000476013
0.0056504
-0.000474808
0.00567238
-0.000472385
0.00569466
-0.00046867
0.00571716
-0.000463597
0.00573979
-0.000457102
0.00576245
-0.00044912
0.005785
-0.000439562
0.00580731
-0.000428238
-0.000414508
0.0052944
-0.00032773
0.00530075
-0.000336648
0.00530761
-0.000345681
0.005315
-0.000354808
0.00532295
-0.000364005
0.00533149
-0.000373248
0.00534064
-0.00038251
0.00535042
-0.000391758
0.00536087