/*--------------------------------*- C++ -*----------------------------------*\
| =========                 |                                                 |
| \\      /  F ield         | OpenFOAM: The Open Source CFD Toolbox           |
|  \\    /   O peration     | Version:  2412                                  |
|   \\  /    A nd           | Website:  www.openfoam.com                      |
|    \\/     M anipulation  |                                                 |
\*---------------------------------------------------------------------------*/
FoamFile
{
    version     2.0;
    format      ascii;
    arch        "LSB;label=32;scalar=64";
    class       volScalarField;
    location    "13";
    object      p;
}
// * * * * * * * * * * * * * * * * * * * * * * * * * * * * * * * * * * * * * //

dimensions      [0 2 -2 0 0 0 0];

internalField   nonuniform List<scalar> 
63420
(
0.000982085
0.000982342
0.00098316
0.000984426
0.000986121
0.000988233
0.000990745
0.000993641
0.000996905
0.00100052
0.00100448
0.00100878
0.00101342
0.00101838
0.00102368
0.0010293
0.00103526
0.00104154
0.00104815
0.00105508
0.00106234
0.00106992
0.00107783
0.00108608
0.00109465
0.00110355
0.00111279
0.00112236
0.00113227
0.00114252
0.00115312
0.00116407
0.00117537
0.00118702
0.00119903
0.0012114
0.00122414
0.00123725
0.00125074
0.0012646
0.00127885
0.00129348
0.0013085
0.00132392
0.00133975
0.00135597
0.00137261
0.00138966
0.00140714
0.00142503
0.00144336
0.00146212
0.00148133
0.00150098
0.00152108
0.000982026
0.000982283
0.0009831
0.000984365
0.000986059
0.000988169
0.000990679
0.000993573
0.000996834
0.00100045
0.00100441
0.0010087
0.00101333
0.0010183
0.00102359
0.00102921
0.00103516
0.00104143
0.00104803
0.00105496
0.00106221
0.00106979
0.0010777
0.00108593
0.00109449
0.00110338
0.00111261
0.00112217
0.00113207
0.00114232
0.0011529
0.00116384
0.00117512
0.00118676
0.00119875
0.00121111
0.00122383
0.00123692
0.00125038
0.00126422
0.00127845
0.00129305
0.00130805
0.00132345
0.00133924
0.00135544
0.00137204
0.00138906
0.00140649
0.00142435
0.00144264
0.00146136
0.00148051
0.00150011
0.00152016
0.000981907
0.000982163
0.00098298
0.000984243
0.000985934
0.000988041
0.000990548
0.000993437
0.000996694
0.0010003
0.00100426
0.00100855
0.00101317
0.00101812
0.00102341
0.00102902
0.00103496
0.00104122
0.00104781
0.00105472
0.00106196
0.00106953
0.00107742
0.00108563
0.00109418
0.00110305
0.00111226
0.0011218
0.00113168
0.0011419
0.00115246
0.00116337
0.00117462
0.00118623
0.00119819
0.00121051
0.0012232
0.00123625
0.00124967
0.00126347
0.00127765
0.00129221
0.00130716
0.00132249
0.00133823
0.00135436
0.0013709
0.00138785
0.00140521
0.001423
0.0014412
0.00145983
0.00147889
0.00149839
0.00151833
0.000981728
0.000981984
0.000982799
0.00098406
0.000985747
0.00098785
0.000990351
0.000993233
0.000996483
0.00100008
0.00100403
0.00100831
0.00101292
0.00101786
0.00102313
0.00102873
0.00103466
0.0010409
0.00104748
0.00105437
0.00106159
0.00106913
0.001077
0.00108519
0.00109371
0.00110256
0.00111174
0.00112125
0.00113109
0.00114127
0.0011518
0.00116266
0.00117388
0.00118544
0.00119735
0.00120962
0.00122226
0.00123525
0.00124861
0.00126235
0.00127645
0.00129094
0.00130581
0.00132107
0.00133672
0.00135276
0.0013692
0.00138605
0.0014033
0.00142097
0.00143905
0.00145755
0.00147647
0.00149582
0.0015156
0.000981491
0.000981746
0.000982558
0.000983815
0.000985498
0.000987594
0.000990088
0.000992962
0.000996201
0.000999792
0.00100372
0.00100799
0.00101259
0.00101752
0.00102277
0.00102835
0.00103426
0.00104048
0.00104703
0.0010539
0.00106109
0.00106861
0.00107644
0.0010846
0.00109309
0.0011019
0.00111104
0.00112051
0.00113031
0.00114044
0.00115092
0.00116173
0.00117289
0.00118439
0.00119624
0.00120844
0.001221
0.00123392
0.0012472
0.00126085
0.00127487
0.00128926
0.00130402
0.00131917
0.00133471
0.00135063
0.00136694
0.00138365
0.00140076
0.00141827
0.00143619
0.00145452
0.00147326
0.00149242
0.00151199
0.000981194
0.000981449
0.000982258
0.000983511
0.000985187
0.000987276
0.00098976
0.000992623
0.000995851
0.000999428
0.00100335
0.0010076
0.00101218
0.00101709
0.00102232
0.00102788
0.00103376
0.00103996
0.00104648
0.00105332
0.00106047
0.00106795
0.00107575
0.00108387
0.00109231
0.00110108
0.00111017
0.00111959
0.00112933
0.00113941
0.00114982
0.00116056
0.00117165
0.00118308
0.00119485
0.00120697
0.00121944
0.00123226
0.00124544
0.00125898
0.00127289
0.00128716
0.0013018
0.00131682
0.00133221
0.00134798
0.00136413
0.00138067
0.0013976
0.00141493
0.00143264
0.00145076
0.00146927
0.00148819
0.0015075
0.000980838
0.000981093
0.000981898
0.000983145
0.000984814
0.000986894
0.000989367
0.000992217
0.00099543
0.000998992
0.00100289
0.00100712
0.00101168
0.00101657
0.00102178
0.00102731
0.00103316
0.00103933
0.00104581
0.00105261
0.00105973
0.00106717
0.00107492
0.00108299
0.00109139
0.0011001
0.00110913
0.00111848
0.00112816
0.00113817
0.0011485
0.00115917
0.00117017
0.00118151
0.00119319
0.00120521
0.00121757
0.00123028
0.00124334
0.00125676
0.00127053
0.00128466
0.00129915
0.001314
0.00132923
0.00134482
0.00136078
0.00137712
0.00139384
0.00141094
0.00142842
0.00144628
0.00146452
0.00148315
0.00150216
0.00154169
0.00156304
0.0015853
0.00160855
0.00163283
0.0016582
0.00168474
0.00171252
0.00174161
0.00177211
0.00180409
0.00183767
0.00187294
0.00191003
0.00194907
0.00199019
0.00203354
0.0020793
0.00212764
0.00217876
0.00223289
0.00229027
0.00235117
0.00241589
0.00248475
0.00255812
0.00263641
0.00272006
0.00280957
0.00290548
0.00300841
0.00311901
0.00323802
0.00336624
0.00350453
0.00365379
0.00381498
0.003989
0.00417668
0.00437858
0.00459479
0.00482466
0.00506634
0.00531653
0.00557076
0.00582415
0.00607192
0.00631982
0.00663629
0.00711666
0.00154074
0.00156207
0.00158437
0.00160761
0.00163188
0.00165725
0.00168379
0.00171156
0.00174065
0.00177114
0.00180311
0.00183668
0.00187194
0.00190902
0.00194804
0.00198914
0.00203247
0.0020782
0.0021265
0.00217758
0.00223165
0.00228896
0.00234978
0.00241439
0.00248312
0.00255634
0.00263443
0.00271783
0.00280703
0.00290255
0.00300498
0.00311496
0.00323318
0.00336038
0.00349737
0.00364495
0.00380397
0.00397516
0.00415915
0.00435621
0.00456608
0.00478761
0.00501834
0.00525422
0.00548982
0.00571928
0.00593723
0.00614857
0.00641739
0.00683205
0.00153887
0.00156024
0.00158248
0.00160571
0.00162998
0.00165534
0.00168187
0.00170964
0.00173872
0.00176919
0.00180115
0.0018347
0.00186995
0.001907
0.00194599
0.00198705
0.00203033
0.00207599
0.00212422
0.00217521
0.00222917
0.00228635
0.002347
0.00241141
0.00247989
0.00255279
0.00263049
0.0027134
0.00280199
0.00289674
0.00299821
0.00310696
0.00322362
0.00334882
0.00348324
0.00362752
0.00378224
0.00394784
0.0041245
0.00431194
0.00450914
0.00471395
0.00492268
0.00512971
0.00532768
0.00550875
0.00566659
0.00580459
0.00597387
0.00627007
0.00153605
0.00155739
0.00157964
0.00160286
0.00162712
0.00165248
0.00167899
0.00170674
0.0017358
0.00176626
0.0017982
0.00183172
0.00186692
0.00190393
0.00194287
0.00198386
0.00202706
0.00207263
0.00212074
0.00217159
0.00222538
0.00228234
0.00234273
0.00240682
0.00247491
0.00254732
0.00262442
0.00270658
0.00279423
0.00288781
0.0029878
0.00309468
0.00320896
0.00333114
0.00346169
0.00360098
0.00374926
0.00390647
0.00407219
0.00424526
0.00442356
0.00460346
0.00477937
0.00494334
0.00508517
0.00519387
0.00526161
0.00529315
0.00532387
0.00541107
0.00153232
0.00155365
0.00157589
0.0015991
0.00162335
0.00164869
0.0016752
0.00170294
0.00173198
0.00176242
0.00179433
0.00182782
0.00186299
0.00189995
0.00193882
0.00197974
0.00202285
0.0020683
0.00211627
0.00216694
0.00222052
0.00227722
0.00233728
0.00240096
0.00246854
0.00254032
0.00261663
0.00269781
0.00278422
0.00287624
0.00297425
0.00307862
0.00318972
0.00330783
0.00343315
0.0035657
0.00370524
0.00385109
0.00400194
0.00415554
0.00430825
0.00445452
0.00458629
0.0046926
0.00475969
0.00477241
0.00471999
0.00461033
0.00446783
0.0042325
0.00152768
0.00154901
0.00157126
0.00159448
0.00161875
0.00164411
0.00167063
0.0016984
0.00172747
0.00175793
0.00178988
0.0018234
0.00185859
0.00189558
0.00193447
0.00197541
0.00201852
0.00206397
0.00211192
0.00216256
0.00221607
0.00227268
0.00233261
0.0023961
0.00246341
0.00253483
0.00261065
0.00269115
0.00277666
0.00286747
0.00296387
0.00306611
0.00317434
0.00328863
0.00340883
0.00353447
0.00366464
0.00379773
0.00393109
0.00406066
0.00418032
0.00428133
0.00435159
0.00437531
0.0043333
0.00420487
0.00397443
0.00365079
0.00325047
0.00257945
0.00152213
0.00154339
0.00156558
0.00158875
0.00161296
0.00163827
0.00166475
0.00169246
0.00172148
0.00175189
0.00178378
0.00181725
0.00185238
0.0018893
0.00192812
0.00196897
0.002012
0.00205734
0.00210517
0.00215567
0.00220902
0.00226543
0.00232512
0.00238832
0.00245528
0.00252624
0.00260147
0.00268124
0.00276578
0.00285534
0.0029501
0.00305018
0.00315558
0.00326609
0.00338122
0.0035
0.00362075
0.00374073
0.00385569
0.00395916
0.00404168
0.00408992
0.00408596
0.00400716
0.00382707
0.00351705
0.00305759
0.00246248
0.00169716
0.000459706
-0.00338724
-0.00344418
-0.00343635
-0.00337757
-0.00327966
-0.00315284
-0.0029956
-0.00281364
-0.00261264
-0.00239824
-0.00217593
-0.00195102
-0.00172839
-0.00151229
-0.00130625
-0.00111305
-0.000934702
-0.000772485
-0.000627035
-0.000498418
-0.000386235
-0.000289724
-0.000207853
-0.000139406
-8.30672e-05
-3.74821e-05
-1.31185e-06
2.67337e-05
4.78646e-05
6.31889e-05
7.3704e-05
8.02925e-05
8.3724e-05
8.46594e-05
8.36589e-05
8.11912e-05
7.76433e-05
7.33307e-05
6.85076e-05
6.33755e-05
5.80921e-05
5.27787e-05
4.75269e-05
4.24041e-05
3.74587e-05
3.27236e-05
2.82201e-05
2.396e-05
1.99484e-05
1.61855e-05
-0.0034866
-0.00351745
-0.00349398
-0.00342656
-0.00332459
-0.00319322
-0.0030337
-0.00285044
-0.00264874
-0.00243372
-0.00221072
-0.00198496
-0.00176127
-0.00154388
-0.00133636
-0.00114152
-0.000961402
-0.000797346
-0.000650028
-0.000519553
-0.000405557
-0.0003073
-0.000223771
-0.000153771
-9.59858e-05
-4.90679e-05
-1.16783e-05
1.74769e-05
3.96126e-05
5.58427e-05
6.71712e-05
7.44879e-05
7.85695e-05
8.00841e-05
7.95986e-05
7.7588e-05
7.44453e-05
7.04917e-05
6.59861e-05
6.11348e-05
5.60996e-05
5.10054e-05
4.59474e-05
4.09959e-05
3.62019e-05
3.16008e-05
2.72161e-05
2.30615e-05
1.91434e-05
1.54646e-05
-0.00368614
-0.00365994
-0.00360691
-0.00352236
-0.00341062
-0.00327118
-0.00310653
-0.00292095
-0.00271802
-0.00250191
-0.00227773
-0.00205049
-0.0018249
-0.00160517
-0.00139491
-0.00119697
-0.00101352
-0.000845955
-0.000695055
-0.000561002
-0.000443495
-0.000341852
-0.000255098
-0.000182061
-0.000121449
-7.19196e-05
-3.21354e-05
-7.98081e-07
2.33157e-05
4.13307e-05
5.42636e-05
6.30175e-05
6.83831e-05
7.10419e-05
7.15741e-05
7.04673e-05
6.81259e-05
6.48819e-05
6.10042e-05
5.6708e-05
5.21632e-05
4.75024e-05
4.28271e-05
3.82137e-05
3.37186e-05
2.93819e-05
2.52313e-05
2.12844e-05
1.75508e-05
1.40379e-05
-0.00399121
-0.00386238
-0.00377252
-0.00366117
-0.00352816
-0.00337873
-0.00320969
-0.0030211
-0.00281607
-0.00259849
-0.00237279
-0.00214362
-0.0019155
-0.00169261
-0.00147858
-0.00127638
-0.00108826
-0.000915782
-0.000759829
-0.000620703
-0.000498206
-0.000391727
-0.00030036
-0.000222973
-0.000158298
-0.000105012
-6.17786e-05
-2.72939e-05
-3.23837e-07
2.02708e-05
3.55239e-05
4.63578e-05
5.35824e-05
5.78988e-05
5.99057e-05
6.01087e-05
5.8929e-05
5.6714e-05
5.37467e-05
5.02555e-05
4.64221e-05
4.23896e-05
3.82693e-05
3.41463e-05
3.00846e-05
2.61313e-05
2.23201e-05
1.86742e-05
1.52081e-05
1.1936e-05
-0.00436807
-0.00412667
-0.00398177
-0.00382851
-0.00367891
-0.00351431
-0.00333563
-0.00314189
-0.00293406
-0.0027147
-0.00248739
-0.00225626
-0.00202558
-0.00179938
-0.00158131
-0.0013744
-0.00118103
-0.00100291
-0.00084106
-0.000695938
-0.000567465
-0.000455143
-0.000358141
-0.000275393
-0.000205678
-0.000147693
-0.000100115
-6.16441e-05
-3.10365e-05
-7.14018e-06
1.1096e-05
2.46148e-05
3.42479e-05
4.07184e-05
4.46475e-05
4.65614e-05
4.69017e-05
4.60347e-05
4.42614e-05
4.18261e-05
3.8926e-05
3.57177e-05
3.2325e-05
2.88444e-05
2.53499e-05
2.18977e-05
1.85297e-05
1.5276e-05
1.2158e-05
9.19865e-06
-0.00476512
-0.00444715
-0.00422932
-0.00403493
-0.00384493
-0.00365806
-0.00346635
-0.00326534
-0.00305416
-0.0028338
-0.00260657
-0.0023757
-0.00214482
-0.00191762
-0.00169756
-0.00148764
-0.00129031
-0.0011074
-0.000940122
-0.000789094
-0.000654422
-0.000535765
-0.000432435
-0.000343476
-0.000267754
-0.000204041
-0.00015106
-0.000107535
-7.22413e-05
-4.40291e-05
-2.18429e-05
-4.72888e-06
8.16036e-06
1.75668e-05
2.4132e-05
2.84041e-05
3.08467e-05
3.18479e-05
3.17299e-05
3.07579e-05
2.91481e-05
2.70759e-05
2.4682e-05
2.20785e-05
1.9354e-05
1.65778e-05
1.38031e-05
1.10704e-05
8.41113e-06
5.85596e-06
-0.00514066
-0.00482162
-0.00455479
-0.00429984
-0.00406525
-0.00384887
-0.00363719
-0.00342375
-0.00320559
-0.00298168
-0.00275274
-0.00252081
-0.00228868
-0.00205952
-0.00183649
-0.00162252
-0.0014201
-0.00123119
-0.00105719
-0.000898926
-0.000756698
-0.000630359
-0.000519373
-0.000422924
-0.000339988
-0.000269416
-0.000209982
-0.000160446
-0.000119595
-8.62846e-05
-5.94502e-05
-3.8123e-05
-2.14348e-05
-8.61903e-06
9.92629e-07
7.97634e-06
1.28239e-05
1.59512e-05
1.77076e-05
1.83836e-05
1.822e-05
1.74144e-05
1.61286e-05
1.44936e-05
1.26153e-05
1.05781e-05
8.44917e-06
6.28084e-06
4.1147e-06
1.98538e-06
1.26597e-05
9.3149e-06
6.14128e-06
3.14795e-06
3.34562e-07
-2.30056e-06
-4.75933e-06
-7.04468e-06
-9.16061e-06
-1.11117e-05
-1.29032e-05
-1.45406e-05
-1.60297e-05
-1.73763e-05
-1.85866e-05
-1.96662e-05
-2.06209e-05
-2.14559e-05
-2.21765e-05
-2.27873e-05
-2.3293e-05
-2.3698e-05
-2.40069e-05
-2.42242e-05
-2.43548e-05
-2.44037e-05
-2.43763e-05
-2.42779e-05
-2.41141e-05
-2.38902e-05
-2.36116e-05
-2.32835e-05
-2.29107e-05
-2.24979e-05
-2.20495e-05
-2.15694e-05
-2.10615e-05
-2.05296e-05
-1.99768e-05
-1.94065e-05
-1.88216e-05
-1.82249e-05
-1.76194e-05
-1.7007e-05
-1.63909e-05
-1.57729e-05
-1.51547e-05
-1.45387e-05
-1.39268e-05
-1.33204e-05
-1.27211e-05
-1.21303e-05
-1.15494e-05
-1.09794e-05
-1.04215e-05
-9.8765e-06
-9.34531e-06
-8.82864e-06
-8.32712e-06
-7.84126e-06
-7.37151e-06
-6.91821e-06
-6.48162e-06
-6.06193e-06
-5.65922e-06
-5.27356e-06
-4.9049e-06
-4.55315e-06
-4.21816e-06
-3.89971e-06
-3.59757e-06
-3.31142e-06
-3.04092e-06
-2.78572e-06
-2.5454e-06
-2.31953e-06
-2.10764e-06
-1.90926e-06
-1.72387e-06
-1.55096e-06
-1.39001e-06
-1.24049e-06
-1.10184e-06
-9.7356e-07
-8.55041e-07
-7.45906e-07
-6.45206e-07
-5.53364e-07
-4.6776e-07
-3.92371e-07
-3.17314e-07
-2.6122e-07
-1.85748e-07
-1.63298e-07
-5.73232e-08
-1.13774e-07
9.94788e-08
-1.47914e-07
3.37409e-07
-3.18333e-07
7.12162e-07
-6.52601e-07
1.21001e-06
-1.05294e-06
1.63503e-06
-1.2051e-06
1.5902e-06
-6.8824e-07
7.51996e-07
5.94984e-07
-6.29186e-07
1.99773e-06
-1.58209e-06
2.39833e-06
-1.10896e-06
1.20254e-05
8.73696e-06
5.61307e-06
2.66812e-06
-1.00531e-07
-2.69498e-06
-5.11668e-06
-7.36824e-06
-9.45338e-06
-1.13765e-05
-1.31425e-05
-1.47566e-05
-1.62244e-05
-1.75517e-05
-1.87442e-05
-1.98077e-05
-2.07475e-05
-2.15691e-05
-2.22773e-05
-2.28768e-05
-2.33722e-05
-2.3768e-05
-2.40684e-05
-2.42782e-05
-2.44021e-05
-2.4445e-05
-2.44123e-05
-2.43093e-05
-2.41413e-05
-2.39137e-05
-2.36319e-05
-2.33009e-05
-2.29256e-05
-2.25105e-05
-2.206e-05
-2.15781e-05
-2.10686e-05
-2.05352e-05
-1.99812e-05
-1.94098e-05
-1.88239e-05
-1.82264e-05
-1.76201e-05
-1.70071e-05
-1.63905e-05
-1.5772e-05
-1.51535e-05
-1.45372e-05
-1.3925e-05
-1.33183e-05
-1.27189e-05
-1.2128e-05
-1.1547e-05
-1.0977e-05
-1.0419e-05
-9.87402e-06
-9.34285e-06
-8.82622e-06
-8.32474e-06
-7.83895e-06
-7.36926e-06
-6.91604e-06
-6.47954e-06
-6.05993e-06
-5.65731e-06
-5.27174e-06
-4.90317e-06
-4.55152e-06
-4.21662e-06
-3.89827e-06
-3.59621e-06
-3.31015e-06
-3.03974e-06
-2.78462e-06
-2.54438e-06
-2.31859e-06
-2.10678e-06
-1.90846e-06
-1.72313e-06
-1.55029e-06
-1.3894e-06
-1.23992e-06
-1.10133e-06
-9.73096e-07
-8.54621e-07
-7.45527e-07
-6.44866e-07
-5.53057e-07
-4.67487e-07
-3.92125e-07
-3.17101e-07
-2.61023e-07
-1.85588e-07
-1.63135e-07
-5.72168e-08
-1.13627e-07
9.9524e-08
-1.47759e-07
3.37384e-07
-3.18157e-07
7.12079e-07
-6.52428e-07
1.20992e-06
-1.05283e-06
1.63502e-06
-1.20514e-06
1.59033e-06
-6.8843e-07
7.52228e-07
5.94768e-07
-6.28982e-07
1.9976e-06
-1.58196e-06
2.39819e-06
-1.10961e-06
1.07644e-05
7.5881e-06
4.56379e-06
1.71495e-06
-9.65001e-07
-3.47878e-06
-5.82695e-06
-8.01146e-06
-1.00355e-05
-1.1903e-05
-1.36183e-05
-1.51862e-05
-1.66119e-05
-1.79007e-05
-1.9058e-05
-2.00893e-05
-2.09997e-05
-2.17943e-05
-2.24779e-05
-2.3055e-05
-2.35301e-05
-2.39073e-05
-2.41911e-05
-2.43859e-05
-2.44964e-05
-2.45275e-05
-2.44842e-05
-2.43718e-05
-2.41955e-05
-2.39607e-05
-2.36724e-05
-2.33356e-05
-2.29552e-05
-2.25355e-05
-2.20809e-05
-2.15955e-05
-2.10828e-05
-2.05466e-05
-1.999e-05
-1.94164e-05
-1.88286e-05
-1.82294e-05
-1.76217e-05
-1.70074e-05
-1.63897e-05
-1.57703e-05
-1.5151e-05
-1.45341e-05
-1.39213e-05
-1.33143e-05
-1.27145e-05
-1.21234e-05
-1.15422e-05
-1.09721e-05
-1.04141e-05
-9.86907e-06
-9.33794e-06
-8.82137e-06
-8.31999e-06
-7.83431e-06
-7.36477e-06
-6.9117e-06
-6.47536e-06
-6.05593e-06
-5.6535e-06
-5.26811e-06
-4.89973e-06
-4.54827e-06
-4.21355e-06
-3.89539e-06
-3.59351e-06
-3.30762e-06
-3.03739e-06
-2.78243e-06
-2.54236e-06
-2.31671e-06
-2.10504e-06
-1.90686e-06
-1.72167e-06
-1.54895e-06
-1.38817e-06
-1.2388e-06
-1.10031e-06
-9.72173e-07
-8.53786e-07
-7.44772e-07
-6.44187e-07
-5.52447e-07
-4.66944e-07
-3.91637e-07
-3.16677e-07
-2.60632e-07
-1.85271e-07
-1.62813e-07
-5.70063e-08
-1.13335e-07
9.96128e-08
-1.47452e-07
3.37335e-07
-3.17806e-07
7.1191e-07
-6.52077e-07
1.20974e-06
-1.05262e-06
1.635e-06
-1.20522e-06
1.5906e-06
-6.88804e-07
7.52689e-07
5.94331e-07
-6.28571e-07
1.99733e-06
-1.5817e-06
2.39788e-06
-1.11086e-06
8.8931e-06
5.88252e-06
3.00745e-06
3.01125e-07
-2.2477e-06
-4.64214e-06
-6.88149e-06
-8.96675e-06
-1.09004e-05
-1.26854e-05
-1.43255e-05
-1.58249e-05
-1.7188e-05
-1.84197e-05
-1.95248e-05
-2.05083e-05
-2.1375e-05
-2.21296e-05
-2.27766e-05
-2.33204e-05
-2.37652e-05
-2.4115e-05
-2.4374e-05
-2.45466e-05
-2.46372e-05
-2.46506e-05
-2.45916e-05
-2.44652e-05
-2.42766e-05
-2.40308e-05
-2.37328e-05
-2.33875e-05
-2.29993e-05
-2.25729e-05
-2.21123e-05
-2.16214e-05
-2.11039e-05
-2.05634e-05
-2.00032e-05
-1.94262e-05
-1.88355e-05
-1.82339e-05
-1.76239e-05
-1.70078e-05
-1.63885e-05
-1.57677e-05
-1.51472e-05
-1.45294e-05
-1.39159e-05
-1.33082e-05
-1.2708e-05
-1.21165e-05
-1.1535e-05
-1.09647e-05
-1.04066e-05
-9.86165e-06
-9.33056e-06
-8.8141e-06
-8.31287e-06
-7.82737e-06
-7.35803e-06
-6.9052e-06
-6.46911e-06
-6.04993e-06
-5.64778e-06
-5.26267e-06
-4.89457e-06
-4.54339e-06
-4.20896e-06
-3.89107e-06
-3.58946e-06
-3.30384e-06
-3.03386e-06
-2.77916e-06
-2.53931e-06
-2.3139e-06
-2.10245e-06
-1.90447e-06
-1.71947e-06
-1.54693e-06
-1.38633e-06
-1.23713e-06
-1.09879e-06
-9.70791e-07
-8.52534e-07
-7.43642e-07
-6.43172e-07
-5.51533e-07
-4.6613e-07
-3.90906e-07
-3.1604e-07
-2.60047e-07
-1.84794e-07
-1.6233e-07
-5.66896e-08
-1.12897e-07
9.97471e-08
-1.46993e-07
3.37266e-07
-3.1729e-07
7.11667e-07
-6.51569e-07
1.20948e-06
-1.05232e-06
1.635e-06
-1.20536e-06
1.59102e-06
-6.89383e-07
7.5339e-07
5.93674e-07
-6.27963e-07
1.99695e-06
-1.58132e-06
2.39743e-06
-1.11265e-06
6.43565e-06
3.64161e-06
9.64652e-07
-1.55484e-06
-3.93234e-06
-6.17073e-06
-8.26771e-06
-1.02231e-05
-1.20382e-05
-1.37152e-05
-1.52568e-05
-1.66662e-05
-1.79471e-05
-1.91037e-05
-2.01401e-05
-2.10608e-05
-2.187e-05
-2.2572e-05
-2.31709e-05
-2.36709e-05
-2.40758e-05
-2.43894e-05
-2.46159e-05
-2.47592e-05
-2.48236e-05
-2.48136e-05
-2.47338e-05
-2.4589e-05
-2.43841e-05
-2.41238e-05
-2.3813e-05
-2.34562e-05
-2.30579e-05
-2.26224e-05
-2.21537e-05
-2.16557e-05
-2.11319e-05
-2.05858e-05
-2.00205e-05
-1.94392e-05
-1.88447e-05
-1.82397e-05
-1.76268e-05
-1.70082e-05
-1.63868e-05
-1.57642e-05
-1.51422e-05
-1.45231e-05
-1.39086e-05
-1.33001e-05
-1.26992e-05
-1.21072e-05
-1.15255e-05
-1.0955e-05
-1.03967e-05
-9.85174e-06
-9.32073e-06
-8.8044e-06
-8.30336e-06
-7.81811e-06
-7.34905e-06
-6.89652e-06
-6.46076e-06
-6.04194e-06
-5.64015e-06
-5.25542e-06
-4.8877e-06
-4.53689e-06
-4.20283e-06
-3.88531e-06
-3.58407e-06
-3.2988e-06
-3.02916e-06
-2.77479e-06
-2.53526e-06
-2.31015e-06
-2.09899e-06
-1.90129e-06
-1.71655e-06
-1.54425e-06
-1.38388e-06
-1.23489e-06
-1.09676e-06
-9.68949e-07
-8.50867e-07
-7.42137e-07
-6.41819e-07
-5.50317e-07
-4.65046e-07
-3.89932e-07
-3.15192e-07
-2.59267e-07
-1.84157e-07
-1.61689e-07
-5.6264e-08
-1.12318e-07
9.99361e-08
-1.46398e-07
3.37198e-07
-3.16639e-07
7.11393e-07
-6.50959e-07
1.20922e-06
-1.05203e-06
1.6351e-06
-1.20567e-06
1.59168e-06
-6.90228e-07
7.54358e-07
5.92812e-07
-6.27207e-07
1.99652e-06
-1.5809e-06
2.39691e-06
-1.11491e-06
3.42131e-06
8.94584e-07
-1.53724e-06
-3.82882e-06
-5.99782e-06
-8.04603e-06
-9.96935e-06
-1.17661e-05
-1.34365e-05
-1.49814e-05
-1.64023e-05
-1.77014e-05
-1.88817e-05
-1.99461e-05
-2.08982e-05
-2.17417e-05
-2.24802e-05
-2.31176e-05
-2.36575e-05
-2.41036e-05
-2.44594e-05
-2.47287e-05
-2.4915e-05
-2.50222e-05
-2.50543e-05
-2.50155e-05
-2.49101e-05
-2.47425e-05
-2.45174e-05
-2.42391e-05
-2.39123e-05
-2.35414e-05
-2.31305e-05
-2.26837e-05
-2.2205e-05
-2.16981e-05
-2.11664e-05
-2.06133e-05
-2.00419e-05
-1.94552e-05
-1.88559e-05
-1.82467e-05
-1.76303e-05
-1.70086e-05
-1.63845e-05
-1.57597e-05
-1.51358e-05
-1.45152e-05
-1.38993e-05
-1.32899e-05
-1.26882e-05
-1.20957e-05
-1.15135e-05
-1.09427e-05
-1.03844e-05
-9.83935e-06
-9.30842e-06
-8.79227e-06
-8.29147e-06
-7.80652e-06
-7.33782e-06
-6.88568e-06
-6.45034e-06
-6.03196e-06
-5.63062e-06
-5.24635e-06
-4.87911e-06
-4.52877e-06
-4.19518e-06
-3.87812e-06
-3.57732e-06
-3.2925e-06
-3.02329e-06
-2.76933e-06
-2.5302e-06
-2.30547e-06
-2.09467e-06
-1.89731e-06
-1.71289e-06
-1.54091e-06
-1.38082e-06
-1.23211e-06
-1.09422e-06
-9.66648e-07
-8.48786e-07
-7.40257e-07
-6.4013e-07
-5.48798e-07
-4.63693e-07
-3.88717e-07
-3.14132e-07
-2.58294e-07
-1.83362e-07
-1.60886e-07
-5.57333e-08
-1.11595e-07
1.0017e-07
-1.45651e-07
3.37107e-07
-3.1582e-07
7.11042e-07
-6.50186e-07
1.20889e-06
-1.05165e-06
1.63522e-06
-1.20604e-06
1.59249e-06
-6.91267e-07
7.55557e-07
5.91736e-07
-6.26248e-07
1.99595e-06
-1.58031e-06
2.39618e-06
-1.11735e-06
-1.07085e-07
-2.32195e-06
-4.46379e-06
-6.49183e-06
-8.41944e-06
-1.02466e-05
-1.19677e-05
-1.35796e-05
-1.5081e-05
-1.64714e-05
-1.7751e-05
-1.89211e-05
-1.99831e-05
-2.09394e-05
-2.17925e-05
-2.25452e-05
-2.32007e-05
-2.37621e-05
-2.42326e-05
-2.46153e-05
-2.49135e-05
-2.51305e-05
-2.52695e-05
-2.53343e-05
-2.53282e-05
-2.52553e-05
-2.51196e-05
-2.4925e-05
-2.46758e-05
-2.43762e-05
-2.40305e-05
-2.36426e-05
-2.32167e-05
-2.27565e-05
-2.22659e-05
-2.17484e-05
-2.12073e-05
-2.06459e-05
-2.00672e-05
-1.9474e-05
-1.8869e-05
-1.82549e-05
-1.76342e-05
-1.70088e-05
-1.63816e-05
-1.57541e-05
-1.5128e-05
-1.45055e-05
-1.38882e-05
-1.32775e-05
-1.26749e-05
-1.20817e-05
-1.1499e-05
-1.09279e-05
-1.03695e-05
-9.82445e-06
-9.29364e-06
-8.7777e-06
-8.2772e-06
-7.79262e-06
-7.32434e-06
-6.87266e-06
-6.43783e-06
-6.01997e-06
-5.61919e-06
-5.23548e-06
-4.8688e-06
-4.51903e-06
-4.186e-06
-3.86949e-06
-3.56924e-06
-3.28494e-06
-3.01625e-06
-2.76278e-06
-2.52413e-06
-2.29985e-06
-2.08948e-06
-1.89254e-06
-1.70851e-06
-1.53689e-06
-1.37715e-06
-1.22876e-06
-1.09118e-06
-9.6389e-07
-8.46291e-07
-7.38005e-07
-6.38105e-07
-5.46977e-07
-4.62073e-07
-3.87257e-07
-3.12865e-07
-2.5712e-07
-1.82421e-07
-1.59901e-07
-5.51369e-08
-1.10659e-07
1.00341e-07
-1.44583e-07
3.36736e-07
-3.14458e-07
7.10095e-07
-6.48569e-07
1.20762e-06
-1.05018e-06
1.63425e-06
-1.20538e-06
1.59249e-06
-6.91807e-07
7.56677e-07
5.90297e-07
-6.24478e-07
1.99427e-06
-1.57835e-06
2.3941e-06
-1.11885e-06
-4.22304e-06
-6.06593e-06
-7.86116e-06
-9.58574e-06
-1.12368e-05
-1.28095e-05
-1.42974e-05
-1.56958e-05
-1.70016e-05
-1.82129e-05
-1.93286e-05
-2.03484e-05
-2.12729e-05
-2.21032e-05
-2.28408e-05
-2.34878e-05
-2.40463e-05
-2.4519e-05
-2.49083e-05
-2.52171e-05
-2.54479e-05
-2.56037e-05
-2.56875e-05
-2.57024e-05
-2.56517e-05
-2.55387e-05
-2.53672e-05
-2.51408e-05
-2.48632e-05
-2.45384e-05
-2.41702e-05
-2.37623e-05
-2.33185e-05
-2.28425e-05
-2.23378e-05
-2.18078e-05
-2.12555e-05
-2.06843e-05
-2.00968e-05
-1.94959e-05
-1.88843e-05
-1.82644e-05
-1.76386e-05
-1.70089e-05
-1.63779e-05
-1.57473e-05
-1.51186e-05
-1.44939e-05
-1.38748e-05
-1.32627e-05
-1.2659e-05
-1.20649e-05
-1.14817e-05
-1.09103e-05
-1.03517e-05
-9.80663e-06
-9.27597e-06
-8.76029e-06
-8.26015e-06
-7.776e-06
-7.30822e-06
-6.85711e-06
-6.42288e-06
-6.00566e-06
-5.60553e-06
-5.2225e-06
-4.85649e-06
-4.50739e-06
-4.17504e-06
-3.85919e-06
-3.55959e-06
-3.27592e-06
-3.00784e-06
-2.75497e-06
-2.51688e-06
-2.29315e-06
-2.0833e-06
-1.88684e-06
-1.70328e-06
-1.5321e-06
-1.37277e-06
-1.22477e-06
-1.08755e-06
-9.60598e-07
-8.43313e-07
-7.35316e-07
-6.35689e-07
-5.44804e-07
-4.6014e-07
-3.85513e-07
-3.11358e-07
-2.55707e-07
-1.81319e-07
-1.58685e-07
-5.44937e-08
-1.09425e-07
1.00352e-07
-1.43004e-07
3.35831e-07
-3.12162e-07
7.08031e-07
-6.45405e-07
1.20457e-06
-1.04661e-06
1.63112e-06
-1.20261e-06
1.59076e-06
-6.91201e-07
7.57473e-07
5.88274e-07
-6.21206e-07
1.99041e-06
-1.57376e-06
2.38945e-06
-1.11829e-06
-8.86566e-06
-1.02993e-05
-1.17189e-05
-1.31041e-05
-1.44441e-05
-1.57306e-05
-1.69556e-05
-1.81127e-05
-1.91971e-05
-2.02052e-05
-2.11346e-05
-2.19836e-05
-2.27514e-05
-2.3438e-05
-2.40439e-05
-2.457e-05
-2.50179e-05
-2.53892e-05
-2.56858e-05
-2.59099e-05
-2.60636e-05
-2.61495e-05
-2.61699e-05
-2.61277e-05
-2.60255e-05
-2.58666e-05
-2.56538e-05
-2.53906e-05
-2.50803e-05
-2.47262e-05
-2.43319e-05
-2.39008e-05
-2.34364e-05
-2.2942e-05
-2.24208e-05
-2.18762e-05
-2.1311e-05
-2.07283e-05
-2.01307e-05
-1.9521e-05
-1.89016e-05
-1.82749e-05
-1.76433e-05
-1.70085e-05
-1.63732e-05
-1.57389e-05
-1.51072e-05
-1.44799e-05
-1.38588e-05
-1.32451e-05
-1.26401e-05
-1.20451e-05
-1.14612e-05
-1.08894e-05
-1.03306e-05
-9.78561e-06
-9.25512e-06
-8.73975e-06
-8.24004e-06
-7.75642e-06
-7.28925e-06
-6.8388e-06
-6.40528e-06
-5.98882e-06
-5.58946e-06
-5.20722e-06
-4.84201e-06
-4.49371e-06
-4.16214e-06
-3.84708e-06
-3.54824e-06
-3.26532e-06
-2.99796e-06
-2.74578e-06
-2.50836e-06
-2.28527e-06
-2.07603e-06
-1.88015e-06
-1.69714e-06
-1.52647e-06
-1.36763e-06
-1.22008e-06
-1.08329e-06
-9.56729e-07
-8.39814e-07
-7.32158e-07
-6.32849e-07
-5.42251e-07
-4.57867e-07
-3.83468e-07
-3.09576e-07
-2.54067e-07
-1.79984e-07
-1.57324e-07
-5.36203e-08
-1.08168e-07
1.00674e-07
-1.4162e-07
3.35463e-07
-3.10447e-07
7.06933e-07
-6.43395e-07
1.20306e-06
-1.0448e-06
1.62999e-06
-1.20185e-06
1.59087e-06
-6.92031e-07
7.59105e-07
5.86163e-07
-6.18548e-07
1.98776e-06
-1.57055e-06
2.38602e-06
-1.11882e-06
-1.38731e-05
-1.48837e-05
-1.59105e-05
-1.69341e-05
-1.79406e-05
-1.89195e-05
-1.98611e-05
-2.07575e-05
-2.16021e-05
-2.23898e-05
-2.31166e-05
-2.37795e-05
-2.43764e-05
-2.49061e-05
-2.5368e-05
-2.5762e-05
-2.60887e-05
-2.63489e-05
-2.65439e-05
-2.66752e-05
-2.67444e-05
-2.67534e-05
-2.67042e-05
-2.65991e-05
-2.64404e-05
-2.62305e-05
-2.59722e-05
-2.56683e-05
-2.53215e-05
-2.4935e-05
-2.45117e-05
-2.40547e-05
-2.35672e-05
-2.30522e-05
-2.25128e-05
-2.19519e-05
-2.13723e-05
-2.07768e-05
-2.0168e-05
-1.95483e-05
-1.89203e-05
-1.8286e-05
-1.76479e-05
-1.70075e-05
-1.63674e-05
-1.57291e-05
-1.50939e-05
-1.44639e-05
-1.38404e-05
-1.32249e-05
-1.26186e-05
-1.20225e-05
-1.14379e-05
-1.08657e-05
-1.03067e-05
-9.76177e-06
-9.2315e-06
-8.7165e-06
-8.21729e-06
-7.73427e-06
-7.26779e-06
-6.8181e-06
-6.38539e-06
-5.96977e-06
-5.5713e-06
-5.18995e-06
-4.82565e-06
-4.47825e-06
-4.14758e-06
-3.83339e-06
-3.53542e-06
-3.25334e-06
-2.9868e-06
-2.7354e-06
-2.49874e-06
-2.27637e-06
-2.06781e-06
-1.87259e-06
-1.69019e-06
-1.52011e-06
-1.36182e-06
-1.21478e-06
-1.07847e-06
-9.52361e-07
-8.35863e-07
-7.28592e-07
-6.29643e-07
-5.39371e-07
-4.55298e-07
-3.81163e-07
-3.07558e-07
-2.52228e-07
-1.78457e-07
-1.55825e-07
-5.25719e-08
-1.06849e-07
1.01195e-07
-1.40293e-07
3.35387e-07
-3.08981e-07
7.06312e-07
-6.41903e-07
1.20228e-06
-1.0438e-06
1.62978e-06
-1.20203e-06
1.59189e-06
-6.93609e-07
7.61265e-07
5.83812e-07
-6.1589e-07
1.98532e-06
-1.56752e-06
2.38269e-06
-1.11923e-06
-1.91969e-05
-1.97707e-05
-2.03893e-05
-2.10338e-05
-2.16893e-05
-2.23435e-05
-2.29851e-05
-2.36046e-05
-2.41939e-05
-2.47464e-05
-2.52567e-05
-2.57203e-05
-2.6134e-05
-2.64952e-05
-2.68023e-05
-2.70541e-05
-2.72503e-05
-2.73909e-05
-2.74764e-05
-2.75076e-05
-2.74856e-05
-2.74115e-05
-2.72871e-05
-2.71138e-05
-2.68936e-05
-2.66285e-05
-2.63206e-05
-2.59722e-05
-2.55856e-05
-2.51635e-05
-2.47084e-05
-2.4223e-05
-2.37102e-05
-2.31726e-05
-2.26131e-05
-2.20343e-05
-2.14388e-05
-2.08293e-05
-2.02081e-05
-1.95776e-05
-1.894e-05
-1.82975e-05
-1.76522e-05
-1.70057e-05
-1.63603e-05
-1.57176e-05
-1.50787e-05
-1.44456e-05
-1.38197e-05
-1.32022e-05
-1.25943e-05
-1.19972e-05
-1.14119e-05
-1.08392e-05
-1.028e-05
-9.73511e-06
-9.20509e-06
-8.69052e-06
-8.19187e-06
-7.70953e-06
-7.24383e-06
-6.79499e-06
-6.36319e-06
-5.94853e-06
-5.55104e-06
-5.1707e-06
-4.8074e-06
-4.46101e-06
-4.13134e-06
-3.81814e-06
-3.52113e-06
-3.23999e-06
-2.97436e-06
-2.72384e-06
-2.48802e-06
-2.26645e-06
-2.05866e-06
-1.86417e-06
-1.68246e-06
-1.51303e-06
-1.35534e-06
-1.20888e-06
-1.07311e-06
-9.47496e-07
-8.31462e-07
-7.2462e-07
-6.26071e-07
-5.36163e-07
-4.52437e-07
-3.78598e-07
-3.05307e-07
-2.50183e-07
-1.76749e-07
-1.54165e-07
-5.13889e-08
-1.05402e-07
1.01803e-07
-1.38851e-07
3.35339e-07
-3.07381e-07
7.05638e-07
-6.4023e-07
1.20135e-06
-1.04257e-06
1.62939e-06
-1.20203e-06
1.59282e-06
-6.95222e-07
7.63634e-07
5.81067e-07
-6.12606e-07
1.9821e-06
-1.56345e-06
2.37826e-06
-1.11827e-06
-2.47891e-05
-2.49123e-05
-2.51095e-05
-2.53618e-05
-2.56531e-05
-2.59692e-05
-2.62977e-05
-2.66274e-05
-2.69489e-05
-2.72541e-05
-2.75362e-05
-2.77895e-05
-2.80095e-05
-2.81923e-05
-2.83353e-05
-2.84363e-05
-2.8494e-05
-2.85075e-05
-2.84766e-05
-2.84012e-05
-2.82819e-05
-2.81194e-05
-2.79145e-05
-2.76684e-05
-2.73824e-05
-2.7058e-05
-2.66967e-05
-2.63003e-05
-2.58708e-05
-2.54102e-05
-2.49207e-05
-2.44046e-05
-2.38643e-05
-2.33023e-05
-2.27209e-05
-2.21227e-05
-2.15101e-05
-2.08854e-05
-2.02508e-05
-1.96085e-05
-1.89606e-05
-1.83092e-05
-1.76561e-05
-1.70029e-05
-1.63518e-05
-1.57043e-05