/*--------------------------------*- C++ -*----------------------------------*\
| =========                 |                                                 |
| \\      /  F ield         | OpenFOAM: The Open Source CFD Toolbox           |
|  \\    /   O peration     | Version:  2412                                  |
|   \\  /    A nd           | Website:  www.openfoam.com                      |
|    \\/     M anipulation  |                                                 |
\*---------------------------------------------------------------------------*/
FoamFile
{
    version     2.0;
    format      ascii;
    arch        "LSB;label=32;scalar=64";
    class       surfaceScalarField;
    location    "13";
    object      phi;
}
// * * * * * * * * * * * * * * * * * * * * * * * * * * * * * * * * * * * * * //

dimensions      [0 3 -1 0 0 0 0];

oriented        oriented;

internalField   nonuniform List<scalar> 
126304
(
0.00505063
1.30143e-07
2.32194e-11
0.00505026
3.64652e-07
8.81782e-11
0.00504968
5.85017e-07
1.66116e-10
0.00504877
9.01986e-07
9.26316e-11
0.00504732
1.45464e-06
-3.33616e-10
0.00504505
2.27413e-06
-1.14664e-09
0.00504182
3.22538e-06
-2.11964e-09
0.00503775
4.07889e-06
-2.87166e-09
0.00503311
4.63884e-06
-3.07467e-09
0.00502829
4.82918e-06
-2.60383e-09
0.00502359
4.69868e-06
-1.55658e-09
0.00501922
4.36941e-06
-1.68997e-10
0.00501524
3.97392e-06
1.29578e-09
0.00501163
3.61294e-06
2.63007e-09
0.00500828
3.3411e-06
3.71524e-09
0.00500511
3.17316e-06
4.51561e-09
0.005002
3.09861e-06
5.05295e-09
0.0049989
3.0959e-06
5.37785e-09
0.00499575
3.14234e-06
5.54759e-09
0.00499253
3.21917e-06
5.61361e-09
0.00498921
3.31303e-06
5.61557e-09
0.00498579
3.41557e-06
5.58097e-09
0.00498226
3.52218e-06
5.52688e-09
0.00497863
3.63078e-06
5.46275e-09
0.00497488
3.74072e-06
5.39307e-09
0.00497102
3.85213e-06
5.31907e-09
0.00496705
3.96548e-06
5.24082e-09
0.00496296
4.08128e-06
5.15761e-09
0.00495876
4.20003e-06
5.06909e-09
0.00495443
4.32216e-06
4.9749e-09
0.00494998
4.44797e-06
4.87496e-09
0.0049454
4.57774e-06
4.76908e-09
0.00494068
4.71163e-06
4.65717e-09
0.00493583
4.84978e-06
4.53927e-09
0.00493083
4.9923e-06
4.4156e-09
0.00492569
5.13926e-06
4.28636e-09
0.00492039
5.29073e-06
4.15155e-09
0.00491494
5.44674e-06
4.01124e-09
0.00490933
5.60734e-06
3.8657e-09
0.00490355
5.77258e-06
3.71542e-09
0.00489761
5.9425e-06
3.56091e-09
0.00489149
6.11713e-06
3.40264e-09
0.00488519
6.29653e-06
3.2411e-09
0.0048787
6.48074e-06
3.07674e-09
0.00487203
6.66982e-06
2.91008e-09
0.00486516
6.86384e-06
2.74167e-09
0.0048581
7.06287e-06
2.5719e-09
0.00485083
7.26699e-06
2.40109e-09
0.00484335
7.47632e-06
2.22967e-09
0.00483566
7.69096e-06
2.05811e-09
0.00482774
7.91112e-06
1.88681e-09
0.0048196
8.13714e-06
1.71622e-09
0.00481123
8.36981e-06
1.5466e-09
0.00480262
8.61137e-06
1.37799e-09
8.86816e-06
0.00479375
1.20991e-09
0.00505063
2.60197e-07
0.00505026
7.29364e-07
0.00504968
1.17007e-06
0.00504878
1.80178e-06
0.00504733
2.90103e-06
0.00504507
4.53097e-06
0.00504187
6.42479e-06
0.00503783
8.12719e-06
0.00503322
9.24852e-06
0.00502841
9.63607e-06
0.00502372
9.38512e-06
0.00501936
8.73701e-06
0.00501538
7.95477e-06
0.00501175
7.23874e-06
0.00500839
6.69815e-06
0.0050052
6.36302e-06
0.00500209
6.21305e-06
0.00499898
6.20587e-06
0.00499582
6.29665e-06
0.00499259
6.4482e-06
0.00498927
6.63401e-06
0.00498585
6.83744e-06
0.00498232
7.0493e-06
0.00497869
7.26535e-06
0.00497495
7.48429e-06
0.00497109
7.70632e-06
0.00496713
7.93231e-06
0.00496304
8.16329e-06
0.00495884
8.40022e-06
0.00495452
8.64391e-06
0.00495007
8.895e-06
0.0049455
9.15397e-06
0.00494079
9.42118e-06
0.00493594
9.69691e-06
0.00493095
9.98134e-06
0.00492582
1.02746e-05
0.00492053
1.05769e-05
0.00491509
1.08882e-05
0.00490949
1.12087e-05
0.00490372
1.15384e-05
0.00489779
1.18774e-05
0.00489168
1.22258e-05
0.00488539
1.25836e-05
0.00487892
1.29511e-05
0.00487226
1.33282e-05
0.00486541
1.37151e-05
0.00485836
1.4112e-05
0.00485111
1.4519e-05
0.00484365
1.49364e-05
0.00483598
1.53642e-05
0.00482809
1.5803e-05
0.00481997
1.62534e-05
0.00481162
1.67169e-05
0.00480304
1.71977e-05
1.77079e-05
0.0047942
0.00505063
3.90026e-07
0.00505026
1.09401e-06
0.00504968
1.75486e-06
0.00504878
2.69711e-06
0.00504735
4.33195e-06
0.00504513
6.7563e-06
0.00504197
9.57761e-06
0.00503798
1.21213e-05
0.00503342
1.38071e-05
0.00502865
1.44044e-05
0.00502399
1.40505e-05
0.00501962
1.31012e-05
0.00501563
1.19464e-05
0.00501199
1.08844e-05
0.0050086
1.0079e-05
0.00500539
9.57654e-06
0.00500226
9.34843e-06
0.00499913
9.33272e-06
0.00499596
9.46339e-06
0.00499273
9.68542e-06
0.0049894
9.95943e-06
0.00498598
1.02606e-05
0.00498245
1.05751e-05
0.00497882
1.08965e-05
0.00497508
1.12227e-05
0.00497123
1.1554e-05
0.00496727
1.18914e-05
0.0049632
1.22364e-05
0.00495901
1.25906e-05
0.0049547
1.29549e-05
0.00495026
1.33304e-05
0.0049457
1.37177e-05
0.004941
1.41173e-05
0.00493617
1.45297e-05
0.0049312
1.4955e-05
0.00492608
1.53937e-05
0.00492081
1.58456e-05
0.00491539
1.63111e-05
0.00490981
1.67903e-05
0.00490406
1.72832e-05
0.00489815
1.77899e-05
0.00489206
1.83107e-05
0.0048858
1.88455e-05
0.00487936
1.93945e-05
0.00487273
1.9958e-05
0.00486591
2.0536e-05
0.00485889
2.11288e-05
0.00485167
2.17365e-05
0.00484425
2.23595e-05
0.00483662
2.29982e-05
0.00482877
2.3653e-05
0.0048207
2.43248e-05
0.0048124
2.50157e-05
0.00480386
2.57319e-05
2.64899e-05
0.00479508
0.00505063
5.19524e-07
0.00505026
1.45851e-06
0.00504968
2.33922e-06
0.00504879
3.58597e-06
0.00504738
5.7406e-06
0.0050452
8.93624e-06
0.00504212
1.26633e-05
0.0050382
1.60373e-05
0.00503371
1.82919e-05
0.005029
1.91166e-05
0.00502437
1.8685e-05
0.00502001
1.746e-05
0.005016
1.59531e-05
0.00501233
1.45581e-05
0.00500891
1.34936e-05
0.00500567
1.28239e-05
0.0050025
1.25137e-05
0.00499935
1.24837e-05
0.00499617
1.26478e-05
0.00499292
1.29342e-05
0.00498959
1.3291e-05
0.00498616
1.36853e-05
0.00498264
1.40987e-05
0.00497901
1.45224e-05
0.00497528
1.49534e-05
0.00497144
1.53917e-05
0.0049675
1.58387e-05
0.00496344
1.62963e-05
0.00495926
1.67662e-05
0.00495497
1.72498e-05
0.00495055
1.77483e-05
0.004946
1.82626e-05
0.00494133
1.87933e-05
0.00493652
1.93409e-05
0.00493156
1.99058e-05
0.00492647
2.04882e-05
0.00492123
2.10884e-05
0.00491583
2.17064e-05
0.00491028
2.23424e-05
0.00490457
2.29966e-05
0.00489869
2.36691e-05
0.00489264
2.43601e-05
0.00488641
2.50696e-05
0.00488001
2.57978e-05
0.00487342
2.6545e-05
0.00486665
2.73113e-05
0.00485968
2.80971e-05
0.00485251
2.89024e-05
0.00484515
2.97278e-05
0.00483757
3.05735e-05
0.00482978
3.14402e-05
0.00482178
3.23291e-05
0.00481355
3.32425e-05
0.0048051
3.41876e-05
3.51841e-05
0.0047964
0.00505063
6.48589e-07
0.00505026
1.82277e-06
0.00504968
2.92295e-06
0.0050488
4.46662e-06
0.00504742
7.12118e-06
0.0050453
1.1059e-05
0.0050423
1.56643e-05
0.00503848
1.98545e-05
0.00503409
2.2683e-05
0.00502945
2.37576e-05
0.00502485
2.32798e-05
0.0050205
2.18111e-05
0.00501648
1.99779e-05
0.00501277
1.82666e-05
0.00500931
1.69504e-05
0.00500602
1.61132e-05
0.00500282
1.57162e-05
0.00499964
1.56645e-05
0.00499643
1.58541e-05
0.00499317
1.6197e-05
0.00498983
1.66297e-05
0.0049864
1.71114e-05
0.00498288
1.76188e-05
0.00497926
1.81409e-05
0.00497554
1.86734e-05
0.00497172
1.9216e-05
0.00496779
1.97704e-05
0.00496375
2.03384e-05
0.00495959
2.09222e-05
0.00495532
2.15232e-05
0.00495092
2.2143e-05
0.0049464
2.27826e-05
0.00494175
2.34426e-05
0.00493697
2.41236e-05
0.00493205
2.48261e-05
0.00492699
2.55504e-05
0.00492178
2.62966e-05
0.00491642
2.70649e-05
0.00491091
2.78555e-05
0.00490524
2.86685e-05
0.0048994
2.95041e-05
0.0048934
3.03625e-05
0.00488722
3.12437e-05
0.00488087
3.21479e-05
0.00487434
3.30755e-05
0.00486763
3.40265e-05
0.00486072
3.50013e-05
0.00485363
3.60001e-05
0.00484633
3.70233e-05
0.00483883
3.80713e-05
0.00483113
3.91448e-05
0.00482321
4.0245e-05
0.00481508
4.13743e-05
0.00480673
4.254e-05
4.37627e-05
0.00479815
0.00505063
7.77129e-07
0.00505026
2.18663e-06
0.00504968
3.5058e-06
0.00504881
5.33762e-06
0.00504746
8.46916e-06
0.00504541
1.31155e-05
0.0050425
1.85669e-05
0.0050388
2.35566e-05
0.00503452
2.69648e-05
0.00502996
2.83147e-05
0.00502542
2.78271e-05
0.00502107
2.61518e-05
0.00501703
2.40224e-05
0.00501328
2.20141e-05
0.00500978
2.04548e-05
0.00500644
1.94504e-05
0.0050032
1.89612e-05
0.00499998
1.88793e-05
0.00499675
1.90849e-05
0.00499347
1.94754e-05
0.00499013
1.9976e-05
0.0049867
2.05381e-05
0.00498318
2.1134e-05
0.00497958
2.17496e-05
0.00497587
2.23797e-05
0.00497206
2.30235e-05
0.00496815
2.36824e-05
0.00496413
2.43584e-05
0.00496
2.50536e-05
0.00495575
2.57699e-05
0.00495139
2.65089e-05
0.0049469
2.72715e-05
0.00494228
2.80586e-05
0.00493753
2.88709e-05
0.00493265
2.97086e-05
0.00492763
3.05722e-05
0.00492246
3.14619e-05
0.00491715
3.23777e-05
0.00491169
3.332e-05
0.00490607
3.42888e-05
0.00490029
3.52842e-05
0.00489434
3.63065e-05
0.00488823
3.73557e-05
0.00488195
3.84321e-05
0.00487549
3.95358e-05
0.00486884
4.06671e-05
0.00486202
4.18261e-05
0.00485501
4.30133e-05
0.0048478
4.4229e-05
0.0048404
4.54735e-05
0.0048328
4.67474e-05
0.00482499
4.80518e-05
0.00481697
4.9389e-05
0.00480875
5.07652e-05
5.21992e-05
0.00480031
0.00505063
9.05011e-07
0.00505027
2.54993e-06
0.00504968
4.08747e-06
0.00504882
6.1979e-06
0.00504751
9.78142e-06
0.00504553
1.50993e-05
0.00504273
2.13616e-05
0.00503916
2.71323e-05
0.005035
3.11257e-05
0.00503053
3.27782e-05
0.00502604
3.23204e-05
0.00502171
3.0479e-05
0.00501765
2.80864e-05
0.00501386
2.58026e-05
0.0050103
2.40101e-05
0.00500692
2.28388e-05
0.00500363
2.22514e-05
0.00500038
2.21303e-05
0.00499712
2.23416e-05
0.00499382
2.27697e-05
0.00499047
2.33292e-05
0.00498705
2.39641e-05
0.00498354
2.4642e-05
0.00497994
2.5346e-05
0.00497625
2.60694e-05
0.00497246
2.68105e-05
0.00496858
2.75706e-05
0.00496458
2.83516e-05
0.00496048
2.91557e-05
0.00495627
2.99847e-05
0.00495193
3.08402e-05
0.00494748
3.17234e-05
0.00494291
3.2635e-05
0.0049382
3.35757e-05
0.00493336
3.4546e-05
0.00492839
3.5546e-05
0.00492328
3.6576e-05
0.00491802
3.76362e-05
0.00491261
3.87267e-05
0.00490705
3.98476e-05
0.00490134
4.09991e-05
0.00489546
4.21812e-05
0.00488942
4.3394e-05
0.00488322
4.46379e-05
0.00487684
4.59128e-05
0.00487029
4.72191e-05
0.00486356
4.85569e-05
0.00485665
4.99265e-05
0.00484955
5.13282e-05
0.00484226
5.27623e-05
0.00483478
5.42294e-05
0.0048271
5.57301e-05
0.00481922
5.72661e-05
0.00481114
5.88412e-05
0.00480288
6.04663e-05
0.00479492
-1.17319e-06
1.04542e-09
0.00479558
-6.60435e-07
8.90611e-10
0.0047957
-1.13383e-07
7.46867e-10
0.00479523
4.68724e-07
5.78348e-10
0.00479413
1.09338e-06
4.08103e-10
0.00479237
1.76287e-06
2.31628e-10
0.00478989
2.48035e-06
4.97156e-11
0.00478664
3.2497e-06
-1.35679e-10
0.00478256
4.07505e-06
-3.22344e-10
0.0047776
4.96076e-06
-5.08034e-10
0.00477169
5.91153e-06
-6.90617e-10
0.00476476
6.93249e-06
-8.67513e-10
0.00475673
8.0293e-06
-1.03667e-09
0.00474753
9.20846e-06
-1.19627e-09
0.00473705
1.04775e-05
-1.34285e-09
0.00472521
1.18456e-05
-1.48162e-09
0.00471188
1.33236e-05
-1.60411e-09
0.00469696
1.49252e-05
-1.6996e-09
0.0046803
1.66667e-05
-1.76638e-09
0.00466173
1.85674e-05
-1.81081e-09
0.00464108
2.06507e-05
-1.84348e-09
0.00461814
2.29443e-05
-1.86496e-09
0.00459266
2.54808e-05
-1.87091e-09
0.00456436
2.8298e-05
-1.86199e-09
0.00453293
3.144e-05
-1.84046e-09
0.00449797
3.49578e-05
-1.80816e-09
0.00445906
3.89104e-05
-1.76817e-09
0.0044157
4.33671e-05
-1.72304e-09
0.00436729
4.84091e-05
-1.67435e-09
0.00431316
5.41332e-05
-1.62377e-09
0.0042525
6.06553e-05
-1.57245e-09
0.00418439
6.81158e-05
-1.52026e-09
0.0041077
7.66866e-05
-1.46709e-09
0.00402113
8.65783e-05
-1.41301e-09
0.00392308
9.80504e-05
-1.35773e-09
0.00381166
0.000111421
-1.30104e-09
0.00368459
0.000127073
-1.2436e-09
0.00353913
0.00014546
-1.18731e-09
0.00337204
0.000167091
-1.13485e-09
0.00317955
0.000192486
-1.08955e-09
0.00295747
0.000222086
-1.05533e-09
0.0027014
0.000256066
-1.03649e-09
0.00240738
0.00029402
-1.0366e-09
0.00207293
0.000334454
-1.05796e-09
0.00169892
0.000374016
-1.09994e-09
0.00129251
0.000406411
-1.15575e-09
0.000871494
0.000421013
-1.20576e-09
0.000470372
0.000401123
-1.20002e-09
0.000149044
0.000321329
-1.03668e-09
0.000149044
-5.5816e-10
0.004794
-9.78586e-07
0.00479329
5.34649e-08
0.00479204
1.13376e-06
0.00479021
2.30044e-06
0.00478775
3.54807e-06
0.00478463
4.8844e-06
0.0047808
6.31669e-06
0.00477619
7.85267e-06
0.00477077
9.5006e-06
0.00476446
1.12693e-05
0.0047572
1.31682e-05
0.00474893
1.52076e-05
0.00473956
1.73989e-05
0.00472901
1.97552e-05
0.0047172
2.22917e-05
0.00470402
2.50266e-05
0.00468936
2.79823e-05
0.0046731
3.11858e-05
0.00465509
3.467e-05
0.00463519
3.84736e-05
0.00461319
4.26436e-05
0.0045889
4.72353e-05
0.00456207
5.2314e-05
0.00453241
5.79556e-05
0.0044996
6.42479e-05
0.00446327
7.12927e-05
0.00442297
7.92085e-05
0.00437821
8.81331e-05
0.00432839
9.82291e-05
0.00427283
0.000109689
0.00421074
0.000122744
0.00414118
0.000137675
0.00406305
0.000154821
0.00397502
0.000174602
0.00387554
0.00019753
0.00376273
0.000224235
0.00363433
0.00025547
0.00348767
0.000292126
0.00331957
0.000335191
0.00312638
0.000385674
0.00290406
0.000444406
0.00264845
0.000511678
0.00235586
0.000586609
0.00202416
0.00066615
0.0016546
0.000743577
0.00125465
0.000806364
0.000842259
0.000833403
0.000451582
0.0007918
0.00014037
0.000632541
0.000289415
0.00479216
1.94119e-06
0.00478874
3.46953e-06
0.00478478
5.09748e-06
0.00478024
6.84014e-06
0.00477508
8.70559e-06
0.00476926
1.07037e-05
0.00476274
1.28456e-05
0.00475545
1.51428e-05
0.00474734
1.7608e-05
0.00473835
2.02544e-05
0.00472842
2.30962e-05
0.00471748
2.61491e-05
0.00470545
2.94302e-05
0.00469225
3.29596e-05
0.00467778
3.67601e-05
0.00466195
4.08595e-05
0.00464464
4.52914e-05
0.00462573
5.0097e-05
0.00460507
5.53256e-05
0.00458251
6.10358e-05
0.00455785
6.72981e-05
0.00453089
7.41959e-05
0.00450138
8.18271e-05
0.00446903
9.03054e-05
0.00443351
9.97628e-05
0.00439446
0.000110352
0.00435141
0.00012225
0.00430388
0.000135663
0.00425128
0.000150834
0.00419292
0.000168052
0.004128
0.00018766
0.0040556
0.000210076
0.00397462
0.000235805
0.00388375
0.000265467
0.00378146
0.000299817
0.00366592
0.000339778
0.00353494
0.000386452
0.00338594
0.000441125
0.00321591
0.000505216
0.00302144
0.000580145
0.00279881
0.000667036
0.00254432
0.000766171
0.00225486
0.000876065
0.00192901
0.000992003
0.00156871
0.00110388
0.00118193
0.00119314
0.000786704
0.00122863
0.000416713
0.00116179
0.000127065
0.000922189
0.00041648
0.00478945
8.8942e-06
0.004782
1.09195e-05
0.00477401
1.30822e-05
0.00476546
1.53947e-05
0.0047563
1.787e-05
0.00474648
2.05219e-05
0.00473596
2.33651e-05
0.00472469
2.64152e-05
0.0047126
2.96892e-05
0.00469965
3.32047e-05
0.00468577
3.69811e-05
0.00467088
4.10392e-05
0.00465491
4.54025e-05
0.00463777
5.00977e-05
0.00461937
5.51561e-05
0.00459962
6.06149e-05
0.00457839
6.65195e-05
0.00455556
7.29254e-05
0.00453099
7.98989e-05
0.0045045
8.75187e-05
0.00447592
9.58789e-05
0.00444503
0.000105091
0.00441157
0.000115287
0.00437526
0.000126617
0.00433576
0.000139257
0.0042927
0.000153411
0.00424564
0.000169315
0.00419406
0.000187242
0.00413738
0.000207516
0.00407491
0.000230517
0.00400587
0.000256702
0.00392933
0.00028662
0.0038442
0.000320934
0.00374921
0.000360456
0.00364286
0.000406167
0.00352338
0.000459256
0.0033887
0.000521134
0.0032364
0.000593426
0.00306372
0.000677896
0.00286761
0.000776256
0.00264487
0.000889768
0.00239252
0.00101852
0.00210836
0.00116023
0.00179199
0.00130837
0.00144637
0.0014495
0.00108005
0.00155946
0.000710617
0.00159807
0.000369888
0.00150252
0.000108126
0.00118395
0.000524605
0.0047859
2.1147e-05
0.00477316
2.36608e-05
0.00475989
2.63455e-05
0.00474607
2.92166e-05
0.00473165
3.22904e-05
0.00471659
3.55844e-05
0.00470084
3.9117e-05
0.00468434
4.2908e-05
0.00466705
4.69786e-05
0.00464891
5.13512e-05
0.00462984
5.60499e-05
0.00460978
6.11014e-05
0.00458864
6.65351e-05
0.00456636
7.23852e-05
0.00454282
7.86912e-05
0.00451794
8.55004e-05
0.00449159
9.28704e-05
0.00446364
0.000100871
0.00443395
0.000109587
0.00440235
0.000119116
0.00436865
0.000129578
0.00433263
0.000141112
0.00429404
0.000153881
0.00425258
0.000168077
0.00420792
0.000183917
0.00415967
0.000201657
0.0041074
0.000221589
0.00405059
0.000244056
0.00398864
0.000269458
0.00392089
0.000298268
0.00384654
0.000331051
0.00376468
0.00036848
0.00367425
0.000411372
0.00357399
0.000460709
0.00346248
0.000517679
0.00333804
0.000583699
0.00319874
0.000660431
0.00304241
0.000749754
0.00286665
0.000853656
0.00266893
0.000973973
0.00244682
0.00111188
0.00219832
0.00126702
0.00192252
0.00143603
0.00162046
0.00161042
0.00129643
0.00177353
0.000959543
0.00189634
0.000626081
0.00193153
0.000322882
0.00180572
8.9478e-05
0.00141736
0.000614083
0.00478157
3.98946e-05
0.00476235
4.28804e-05
0.00474262
4.60713e-05
0.00472235
4.94852e-05
0.0047015
5.31419e-05
0.00468002
5.70623e-05
0.00465787
6.12687e-05
0.00463499
6.57848e-05
0.00461134
7.0636e-05
0.00458684
7.58494e-05
0.00456143
8.14542e-05
0.00453505
8.74825e-05
0.00450762
9.39706e-05
0.00447904
0.00010096
0.00444924
0.000108498
0.00441809
0.000116644
0.00438549
0.000125468
0.00435131
0.000135054
0.00431539
0.000145504
0.00427757
0.000156939
0.00423765
0.000169501
0.0041954
0.000183359
0.00415057
0.00019871
0.00410287
0.000215783
0.00405194
0.00023484
0.00399741
0.000256186
0.00393883
0.000280172
0.00387568
0.000307206
0.00380737
0.000337766
0.00373323
0.000372415
0.00365246
0.000411821
0.00356416
0.000456778
0.00346729
0.000508238
0.00336066
0.000567341
0.0032429
0.000635444
0.00311246
0.00071414
0.00296763
0.000805257
0.00280658
0.000910802
0.00262744
0.00103279
0.00242848
0.00117294
0.00220839
0.00133198
0.00196672
0.00150869
0.00170451
0.00169824
0.00142505
0.00188989
0.00113459
0.00206399
0.000843141
0.00218779
0.000564672
0.00221
0.000315772
0.00205462
0.000109123
0.001624
0.000723206
0.00477653
6.6238e-05
0.00474974
6.96719e-05
0.00472247
7.33473e-05
0.00469467
7.72832e-05
0.00466631
8.15022e-05
0.00463734
8.60283e-05
0.00460772
9.08874e-05
0.0045774
9.61069e-05
0.00454632
0.000101716
0.00451442
0.000107747
0.00448164
0.000114234
0.00444791
0.000121215
0.00441315
0.000128733
0.00437727
0.000136836
0.00434019
0.000145582
0.00430179
0.000155039
0.00426197
0.000165291
0.00422058
0.000176439
0.00417749
0.000188602
0.0041325
0.000201921
0.00408544
0.000216566
0.00403607
0.000232733
0.00398412
0.000250654
0.00392931
0.000270594
0.00387129
0.000292861
0.00380967
0.000317809
0.00374399
0.000345847
0.00367375
0.000377448
0.00359835
0.000413166
0.00351712
0.000453651
0.00342927
0.000499671
0.00333391
0.000552135
0.00323002
0.000612122
0.00311646
0.000680907
0.00299192
0.000759984
0.00285499
0.00085107
0.00270418
0.00095607
0.00253801
0.00107697
0.00235519
0.00121561
0.00215491
0.00137321
0.00193724
0.00154965
0.00170372
0.00174221
0.00145806
0.0019439
0.00120689
0.00214106
0.000960265
0.00231061
0.000731278
0.00241678
0.00053341
0.00240787
0.000371355
0.00221667
0.000224911
0.00177045
0.000948117
-3.04027e-05
3.04019e-05
8.39665e-10
-8.07583e-05
5.03532e-05
2.39892e-09
-0.000126549
4.57872e-05
3.78743e-09
-0.000153792
2.72382e-05
4.83237e-09
-0.000154267
4.69029e-07
5.54242e-09
-0.000126759
-2.75137e-05
5.94622e-09
-7.00422e-05
-5.67231e-05
6.18905e-09
1.45898e-05
-8.46382e-05
6.24744e-09
0.000124771
-0.000110187
6.18358e-09
0.000257579
-0.000132814
6.02489e-09
0.000409771
-0.000152198
5.77843e-09
0.000577985
-0.000168219
5.43957e-09
0.000758883
-0.000180903
4.99637e-09
0.000949251
-0.000190373
4.44006e-09
0.00114607
-0.000196824
3.76391e-09
0.00134657
-0.000200498
2.97264e-09
0.00154823
-0.000201666
2.08406e-09
0.00174885
-0.000200615
1.13274e-09
0.00194648
-0.000197636
1.65011e-10
0.0021395
-0.000193018
-7.5774e-10
0.00232654
-0.000187037
-1.43414e-09
0.0025065
-0.000179959
-1.83844e-09
0.00267853
-0.000172027
-1.5677e-09
0.002842
-0.000163469
-5.19754e-10
0.00299648
-0.000154484
8.3678e-10
0.00314173
-0.000145248
2.34138e-09
0.00327764
-0.000135916
3.67668e-09
0.00340426
-0.000126624
4.67967e-09
0.00352174
-0.000117485
5.32799e-09
0.00363033
-0.000108593
5.59015e-09
0.00373034
-0.000100023
5.48349e-09
0.00382217
-9.18314e-05
5.07284e-09
0.00390623
-8.40615e-05
4.45255e-09
0.00398296
-7.67411e-05
3.72414e-09
0.00405285
-6.98865e-05
2.98014e-09
0.00411635
-6.35032e-05
2.29416e-09
0.00417393
-5.7588e-05
1.71742e-09
0.00422606
-5.21303e-05
1.2794e-09
0.00427318
-4.71138e-05
9.91412e-10
0.00431569
-4.25178e-05
8.50743e-10
0.00435401
-3.83184e-05
8.44353e-10
0.0043885
-3.44898e-05
9.53507e-10
0.0044195
-3.1005e-05
1.15684e-09
0.00444734
-2.78368e-05
1.43168e-09
0.0044723
-2.49585e-05
1.75632e-09
0.00449464
-2.23442e-05
2.11118e-09
0.0045146
-1.99693e-05
2.47923e-09
0.00453241
-1.78107e-05
2.84683e-09
0.00454826
-1.58468e-05
3.20321e-09
-1.40574e-05
0.00456231
3.54059e-09
-2.66496e-05
5.70514e-05
-6.96627e-05
9.33664e-05
-0.000107431
8.35553e-05
-0.000127449
4.72562e-05
-0.00012294
-4.03997e-06
-9.15586e-05
-5.8895e-05
-3.267e-05
-0.000115612
5.2514e-05
-0.000169822
0.000161963
-0.000219636
0.000293017
-0.000263868
0.000442669
-0.00030185
0.000607772
-0.000333323
0.00078518
-0.000358311
0.000971842
-0.000377035
0.00116487
-0.000389854
0.0013616
-0.000397228
0.00155961
-0.000399675
0.00175674
-0.000397748
0.00195112
-0.000392014
0.00214114
-0.000383034
0.00232545
-0.000371351
0.00250297
-0.000357481
0.00267285
-0.000341909
0.00283447
-0.000325079
0.00298737
-0.000307389
0.00313131
-0.000289185
0.00326617
-0.000270778
0.00339198
-0.000252434
0.00350887
-0.000234381
0.00361708
-0.000216804
0.00371691
-0.000199853
0.00380873
-0.000183644
0.00389293
-0.000168262
0.00396995
-0.000153764
0.00404025
-0.000140182
0.00410427
-0.000127529
0.00416248
-0.000115799
0.00421533
-0.000104972
0.00426323
-9.50174e-05
0.0043066
-8.58938e-05
0.00434584
-7.75549e-05
0.0043813
-6.99498e-05
0.00441332
-6.30256e-05
0.00444221
-5.67288e-05
0.00446826
-5.10066e-05
0.00449173
-4.5808e-05
0.00451284
-4.10845e-05
0.00453182
-3.67903e-05
0.00454886
-3.28824e-05
-2.93205e-05
0.00456412
-1.97275e-05
7.67789e-05
-4.82771e-05
0.000121916
-7.10194e-05
0.000106298
-7.77575e-05
5.39944e-05
-6.3216e-05
-1.85815e-05
-2.48338e-05
-9.72772e-05
3.73961e-05
-0.000177842
0.000123089
-0.000255515
0.000230685
-0.000327232
0.00035797
-0.000391153
0.000502403
-0.000446283
0.000661263
-0.000492183
0.000831771
-0.000528819
0.00101118
-0.000556447
0.00119687
-0.00057554
0.00138636
-0.00058672
0.0015774
-0.000590708
0.00176793
-0.000588285
0.00195618
-0.000580258
0.00214058
-0.000567434
0.00231983
-0.000550599
0.00249285
-0.000530505
0.0026588
-0.000507857
0.00281703
-0.00048331
0.00296709
-0.000457451
0.0031087
-0.000430796
0.00324172
-0.000403799
0.00336615
-0.000376859
0.00348208
-0.000350313
0.00358972
-0.000324441
0.00368933
-0.000299468
0.00378125
-0.000275567
0.00386586
-0.000252866
0.00394355
-0.000231454
0.00401475
-0.000211382
0.00407989
-0.00019267
0.0041394
-0.000175313
0.00419371
-0.000159284
0.00424323
-0.000144536
0.00428835
-0.000131013
0.00432945
-0.000118647
0.00436686
-0.000107365
0.00440092
-9.70874e-05
0.00443193
-8.77376e-05
0.00446016
-7.92379e-05
0.00448587
-7.15132e-05
0.00450927
-6.44921e-05
0.00453059
-5.81071e-05
0.00455
-5.22946e-05
-4.69933e-05
0.00456768
-6.83226e-06
8.36112e-05
-1.6664e-05
0.000131748
-1.86899e-05
0.000108323
-6.85521e-06
4.21597e-05
1.99089e-05
-4.53456e-05
6.57809e-05
-0.000143149
0.000131593
-0.000243653
0.000216943
-0.000340866
0.000320872
-0.000431161
0.000441922
-0.000512203
0.000578241
-0.000582601
0.000727713
-0.000641655
0.000888075
-0.000689181
0.00105701
-0.000725386
0.00123224
-0.000750768
0.00141156
-0.000766037
0.0015929
-0.00077205
0.00177438
-0.000769761
0.00195429
-0.000760169
0.00213114
-0.000744289
0.00230366
-0.000723121
0.00247078
-0.000697624
0.00263164
-0.000668711
0.00278556
-0.000637232
0.00293206
-0.000603956
0.00307083
-0.000569561
0.00320167
-0.000534644
0.00332455
-0.00049973
0.0034395
-0.000465268
0.00354669
-0.000431629
0.00364634
-0.000399115
0.00373873
-0.000367959
0.0038242
-0.000338335
0.00390311
-0.000310365
0.00397585
-0.000284121
0.00404281
-0.000259635
0.0041044
-0.000236903
0.00416101
-0.000215894
0.00421303
-0.000196552
0.00426082
-0.000178804
0.00430473
-0.000162564
0.00434511
-0.000147738
0.00438225
-0.000134227
0.00441644
-0.000121928
0.00444794
-0.000110743
0.004477
-0.000100573
0.00450384
-9.13256e-05
0.00452864
-8.2913e-05
0.0045516
-7.52514e-05
-6.82584e-05
0.00457286
8.38008e-06
7.52311e-05
2.2023e-05
0.000118105
4.39605e-05
8.63859e-05
7.59861e-05
1.01341e-05
0.000117407
-8.67668e-05
0.000171862
-0.000197604
0.000240167
-0.000311958
0.000323073
-0.000423772
0.000420674
-0.000528761
0.000532478
-0.000624007
0.000657511
-0.000707634
0.000794417
-0.000778562
0.00094157
-0.000836334
0.00109717
-0.000880984
0.00125933
-0.000912926
0.00142615
-0.000932857
0.00159578
-0.000941688
0.00176649
-0.000940469
0.00193666
-0.000930338
0.00210484
-0.000912472
0.00226977
-0.000888047
0.00243036
-0.00085821
0.0025857
-0.000824056
0.00273509
-0.000786618
0.00287798
-0.000746844
0.00301398
-0.000705571
0.00314287
-0.000663531
0.00326452
-0.000621377
0.00337892
-0.00057967
0.00348617
-0.000538878
0.00358643
-0.000499379
0.00367995
-0.000461472
0.00376699
-0.000425379
0.00384788
-0.000391258
0.00392297
-0.000359206
0.0039926
-0.00032927
0.00405715
-0.000301453
0.00411698
-0.000275721
0.00417244
-0.000252013
0.00422388
-0.000230242
0.00427162
-0.000210307
0.00431598
-0.000192096
0.00435724
-0.00017549
0.00439568
-0.000160367
0.00443154
-0.000146605
0.00446506
-0.000134087
0.00449643
-0.0001227
0.00452586
-0.000112336
0.0045535
-0.000102895
-9.42703e-05
0.00457951
2.64614e-05
4.87697e-05
6.97064e-05
7.48598e-05
0.000119472
3.66208e-05
0.000170388
-4.07819e-05
0.000225705
-0.000142084
0.000286161
-0.000258059
0.000353967
-0.000379765
0.000431028
-0.000500833
0.000518667
-0.0006164
0.000617563
-0.000722904
0.000727779
-0.000817851
0.000848841
-0.000899624
0.00097984
-0.000967332
0.00111954
-0.00102068
0.00126648
-0.00105986
0.00141906
-0.00108544
0.00157566
-0.00109828
0.00173463
-0.00109944
0.00189443
-0.00109014
0.00205361
-0.00107165
0.00221088
-0.00104531
0.00236509
-0.00101242
0.00251526
-0.000974233
0.00266061
-0.000931965
0.0028005
-0.00088673
0.00293445
-0.000839529
0.00306216
-0.000791239
0.00318342
-0.000742637
0.00329815
-0.000694401
0.00340637
-0.0006471
0.00350819
-0.000601196
0.00360378
-0.000557057
0.00369336
-0.000514961
0.00377721
-0.000475106
0.00385562
-0.00043762
0.00392892
-0.000402567
0.00399742
-0.000369961
0.00406147
-0.000339771
0.00412139
-0.000311931
0.0041775
-0.000286347
0.0042301
-0.000262904
0.00427947
-0.000241475
0.00432591
-0.000221923
0.00436965
-0.000204107
0.00441093
-0.000187888
0.00444997
-0.000173128
0.00448697
-0.000159697
0.0045221
-0.00014747
0.00455554
-0.000136326
-0.000126144
0.00458741
5.04422e-05
-1.67251e-06
0.000128596
-3.29403e-06
0.000202584
-3.7367e-05
0.000270637
-0.000108835
0.000334415
-0.000205862
0.000395813
-0.000319458
0.000458233
-0.000442185
0.00052495
-0.00056755
0.000598642
-0.000690091
0.000681203
-0.000805464
0.000773738
-0.000910386
0.000876637
-0.00100252
0.00098968
-0.00108038
0.00111216
-0.00114316
0.001243
-0.0011907
0.00138086
-0.00122331
0.00152426
-0.00124168
0.00167165
-0.00124683
0.00182148
-0.00123996
0.00197227
-0.00122244
0.00212264
-0.00119569
0.00227137
-0.00116115
0.00241738
-0.00112024
0.00255976
-0.00107434
0.00269776
-0.00102473
0.00283081
-0.000972579
0.00295848
-0.000918918
0.00308051
-0.000864658
0.0031967
-0.000810599
0.00330702
-0.000757419
0.0034115
-0.000705672
0.00351024
-0.000655803
0.00360343
-0.000608151
0.00369129
-0.000562961
0.00377406
-0.000520396
0.00385204
-0.000480546
0.00392552
-0.000443438
0.0039948
-0.000409047
0.00406017
-0.000377307
0.00412194
-0.000348117
0.00418039
-0.000321354
0.00423579
-0.000296875
0.0042884
-0.000274529
0.00433845
-0.000254159
0.00438617
-0.000235606
0.00443176
-0.000218718
0.00447541
-0.000203345
0.00451728
-0.000189346
0.00455754
-0.000176587
0.00459633
-0.000164934
0.00458475
-2.24408e-05
3.87691e-09
0.00460614
-2.13987e-05
4.2526e-09
0.00462655
-2.0418e-05
4.61177e-09
0.00464605
-1.94971e-05
4.9481e-09
0.00466467
-1.86329e-05
5.25993e-09
0.00468249
-1.78224e-05
5.54925e-09
0.00469955
-1.70623e-05
5.82107e-09
0.00471589
-1.63495e-05
6.08301e-09
0.00473157
-1.56803e-05
6.34368e-09
0.00474661
-1.50507e-05
6.61139e-09
0.00476106
-1.4456e-05
6.8924e-09
0.00477494
-1.38904e-05
7.19012e-09
0.00478828
-1.33473e-05
7.50418e-09
0.00480109
-1.28188e-05
7.82979e-09
0.00481338
-1.22968e-05
8.15826e-09
0.00482515
-1.17729e-05
8.47736e-09
0.00483638
-1.12402e-05
8.77165e-09
0.00484706
-1.0694e-05
9.02365e-09
0.00485719
-1.01334e-05
9.21536e-09
0.00486674
-9.56216e-06
9.32979e-09
0.00487572
-8.98857e-06
9.35282e-09
0.00488413
-8.42503e-06
9.27513e-09
0.00489201
-7.88611e-06
9.09344e-09
0.00489939
-7.38625e-06
8.81128e-09
0.00490632
-6.93716e-06
8.43821e-09
0.00491285
-6.54588e-06
7.98846e-09
0.00491906
-6.2137e-06
7.47973e-09
0.00492499
-5.9364e-06
6.93059e-09
0.00493069
-5.70545e-06
6.35871e-09
0.00493619
-5.50995e-06
5.77954e-09
0.00494153
-5.33862e-06
5.20503e-09
0.0049467
-5.18146e-06
4.6441e-09
0.00495173
-5.03071e-06
4.10242e-09
0.00495661
-4.8812e-06
3.58306e-09
0.00496134
-4.73012e-06
3.08682e-09
0.00496591
-4.57648e-06
2.61402e-09
0.00497033
-4.42051e-06
2.16436e-09
0.00497459
-4.26309e-06
1.73729e-09
0.00497869
-4.10533e-06
1.33271e-09
0.00498264
-3.94835e-06
9.52088e-10
0.00498643
-3.79309e-06
5.98291e-10
0.00499007
-3.64033e-06
2.74671e-10
0.00499356
-3.49064e-06
-1.72478e-11
0.00499691
-3.34442e-06
-2.78056e-10
0.00500011
-3.20187e-06
-5.08525e-10
0.00500317
-3.0633e-06
-7.2551e-10
0.0050061
-2.92869e-06
-9.30087e-10
0.0050089
-2.79807e-06
-1.12794e-09
0.00501158
-2.67144e-06
-1.32649e-09
0.00501413
-2.54878e-06
-1.53319e-09
0.00501656
-2.43002e-06
-1.75477e-09
0.00501888
-2.31509e-06
-1.99747e-09
0.00502108
-2.20392e-06
-2.26579e-09
0.00502318
-2.09642e-06
-2.55931e-09
0.00502518
-1.99252e-06
-2.87125e-09
0.00502707
-1.89216e-06
-3.18794e-09
0.00502887
-1.79527e-06
-3.49234e-09
0.00503058
-1.7018e-06
-3.76543e-09
0.00503219
-1.61167e-06
-3.9942e-09
0.00503372
-1.52482e-06