/*--------------------------------*- C++ -*----------------------------------*\
| =========                 |                                                 |
| \\      /  F ield         | OpenFOAM: The Open Source CFD Toolbox           |
|  \\    /   O peration     | Version:  2412                                  |
|   \\  /    A nd           | Website:  www.openfoam.com                      |
|    \\/     M anipulation  |                                                 |
\*---------------------------------------------------------------------------*/
FoamFile
{
    version     2.0;
    format      ascii;
    arch        "LSB;label=32;scalar=64";
    class       volVectorField;
    location    "13";
    object      U;
}
// * * * * * * * * * * * * * * * * * * * * * * * * * * * * * * * * * * * * * //

dimensions      [0 1 -1 0 0 0 0];

internalField   nonuniform List<vector> 
63420
(
(0.0999997 4.40454e-07 0)
(0.099995 1.2585e-06 0)
(0.0999856 2.0594e-06 0)
(0.0999718 3.24119e-06 0)
(0.09995 5.3373e-06 0)
(0.0999143 8.51686e-06 0)
(0.0998601 1.23237e-05 0)
(0.0997869 1.58947e-05 0)
(0.0996989 1.8432e-05 0)
(0.0996034 1.95618e-05 0)
(0.0995077 1.94008e-05 0)
(0.0994173 1.83877e-05 0)
(0.0993347 1.70438e-05 0)
(0.0992598 1.57933e-05 0)
(0.0991914 1.48881e-05 0)
(0.0991273 1.44173e-05 0)
(0.0990656 1.43584e-05 0)
(0.0990044 1.46335e-05 0)
(0.0989428 1.51525e-05 0)
(0.0988798 1.58365e-05 0)
(0.0988151 1.66275e-05 0)
(0.0987484 1.74881e-05 0)
(0.0986796 1.83975e-05 0)
(0.0986087 1.93465e-05 0)
(0.0985357 2.03332e-05 0)
(0.0984604 2.13596e-05 0)
(0.0983829 2.24297e-05 0)
(0.0983032 2.35482e-05 0)
(0.0982212 2.47198e-05 0)
(0.0981367 2.59491e-05 0)
(0.0980498 2.72403e-05 0)
(0.0979604 2.85974e-05 0)
(0.0978684 3.00243e-05 0)
(0.0977737 3.15246e-05 0)
(0.0976762 3.31019e-05 0)
(0.0975759 3.47598e-05 0)
(0.0974726 3.65019e-05 0)
(0.0973662 3.83319e-05 0)
(0.0972567 4.02536e-05 0)
(0.0971441 4.22708e-05 0)
(0.097028 4.43876e-05 0)
(0.0969086 4.66083e-05 0)
(0.0967857 4.89371e-05 0)
(0.0966592 5.13787e-05 0)
(0.096529 5.39378e-05 0)
(0.096395 5.66197e-05 0)
(0.0962571 5.94294e-05 0)
(0.0961153 6.23728e-05 0)
(0.0959693 6.54558e-05 0)
(0.0958192 6.86848e-05 0)
(0.0956647 7.20673e-05 0)
(0.0955059 7.56122e-05 0)
(0.0953425 7.93336e-05 0)
(0.0951744 8.32605e-05 0)
(0.0950015 8.74654e-05 0)
(0.0999997 1.3213e-06 0)
(0.099995 3.77664e-06 0)
(0.0999856 6.18011e-06 0)
(0.0999718 9.71662e-06 0)
(0.09995 1.59777e-05 0)
(0.0999146 2.54725e-05 0)
(0.0998609 3.68468e-05 0)
(0.0997881 4.75306e-05 0)
(0.0997007 5.51426e-05 0)
(0.0996057 5.85628e-05 0)
(0.0995104 5.81323e-05 0)
(0.09942 5.51535e-05 0)
(0.0993373 5.11782e-05 0)
(0.0992623 4.74714e-05 0)
(0.0991937 4.47861e-05 0)
(0.0991294 4.33905e-05 0)
(0.0990674 4.32198e-05 0)
(0.099006 4.40443e-05 0)
(0.0989442 4.55963e-05 0)
(0.0988811 4.76416e-05 0)
(0.0988164 5.00075e-05 0)
(0.0987496 5.25826e-05 0)
(0.0986809 5.5305e-05 0)
(0.09861 5.81472e-05 0)
(0.098537 6.11032e-05 0)
(0.0984618 6.41789e-05 0)
(0.0983844 6.7386e-05 0)
(0.0983047 7.07383e-05 0)
(0.0982228 7.425e-05 0)
(0.0981384 7.79345e-05 0)
(0.0980517 8.18046e-05 0)
(0.0979624 8.58723e-05 0)
(0.0978705 9.01488e-05 0)
(0.0977759 9.46451e-05 0)
(0.0976786 9.9372e-05 0)
(0.0975784 0.00010434 0)
(0.0974752 0.00010956 0)
(0.0973691 0.000115043 0)
(0.0972598 0.000120801 0)
(0.0971473 0.000126844 0)
(0.0970315 0.000133186 0)
(0.0969123 0.000139838 0)
(0.0967897 0.000146813 0)
(0.0966634 0.000154127 0)
(0.0965335 0.000161792 0)
(0.0963998 0.000169823 0)
(0.0962622 0.000178238 0)
(0.0961207 0.000187052 0)
(0.0959751 0.000196283 0)
(0.0958253 0.000205952 0)
(0.0956713 0.000216078 0)
(0.0955129 0.00022669 0)
(0.0953499 0.000237829 0)
(0.0951824 0.000249579 0)
(0.09501 0.000262149 0)
(0.0999997 2.20099e-06 0)
(0.099995 6.29447e-06 0)
(0.0999856 1.02995e-05 0)
(0.0999718 1.61675e-05 0)
(0.0999502 2.65314e-05 0)
(0.0999153 4.22478e-05 0)
(0.0998623 6.10983e-05 0)
(0.0997906 7.88445e-05 0)
(0.0997043 9.15439e-05 0)
(0.0996102 9.73258e-05 0)
(0.0995155 9.67319e-05 0)
(0.0994254 9.18985e-05 0)
(0.0993426 8.53845e-05 0)
(0.0992672 7.92833e-05 0)
(0.0991981 7.48473e-05 0)
(0.0991333 7.25293e-05 0)
(0.0990709 7.22307e-05 0)
(0.0990092 7.35781e-05 0)
(0.0989471 7.61326e-05 0)
(0.0988838 7.95091e-05 0)
(0.0988189 8.34224e-05 0)
(0.0987521 8.76881e-05 0)
(0.0986834 9.22031e-05 0)
(0.0986125 9.69212e-05 0)
(0.0985396 0.000101832 0)
(0.0984645 0.000106944 0)
(0.0983872 0.000112276 0)
(0.0983078 0.000117852 0)
(0.098226 0.000123693 0)
(0.0981418 0.000129823 0)
(0.0980553 0.000136262 0)
(0.0979662 0.000143029 0)
(0.0978746 0.000150145 0)
(0.0977803 0.000157625 0)
(0.0976833 0.000165489 0)
(0.0975834 0.000173754 0)
(0.0974806 0.000182438 0)
(0.0973748 0.000191559 0)
(0.0972659 0.000201135 0)
(0.0971538 0.000211187 0)
(0.0970384 0.000221733 0)
(0.0969197 0.000232795 0)
(0.0967975 0.000244395 0)
(0.0966718 0.000256554 0)
(0.0965424 0.000269297 0)
(0.0964093 0.000282649 0)
(0.0962723 0.000296636 0)
(0.0961315 0.000311285 0)
(0.0959866 0.000326625 0)
(0.0958376 0.00034269 0)
(0.0956843 0.000359514 0)
(0.0955268 0.00037714 0)
(0.0953648 0.000395637 0)
(0.0951982 0.000415137 0)
(0.0950269 0.000435972 0)
(0.0999997 3.07878e-06 0)
(0.099995 8.81163e-06 0)
(0.0999856 1.44164e-05 0)
(0.0999718 2.25788e-05 0)
(0.0999505 3.69452e-05 0)
(0.0999162 5.87324e-05 0)
(0.0998643 8.49112e-05 0)
(0.0997942 0.000109638 0)
(0.0997094 0.000127444 0)
(0.0996167 0.000135702 0)
(0.0995228 0.000135116 0)
(0.0994331 0.000128607 0)
(0.0993502 0.000119704 0)
(0.0992744 0.000111308 0)
(0.0992046 0.00010517 0)
(0.0991391 0.000101933 0)
(0.099076 0.000101481 0)
(0.0990138 0.000103309 0)
(0.0989512 0.000106817 0)
(0.0988877 0.000111476 0)
(0.0988226 0.000116892 0)
(0.0987558 0.000122809 0)
(0.098687 0.000129083 0)
(0.0986163 0.000135649 0)
(0.0985435 0.00014249 0)
(0.0984686 0.000149617 0)
(0.0983915 0.000157056 0)
(0.0983123 0.000164837 0)
(0.0982308 0.000172992 0)
(0.0981469 0.00018155 0)
(0.0980607 0.000190541 0)
(0.097972 0.000199991 0)
(0.0978808 0.000209926 0)
(0.0977869 0.000220372 0)
(0.0976903 0.000231352 0)
(0.0975909 0.000242892 0)
(0.0974886 0.000255016 0)
(0.0973833 0.000267749 0)
(0.097275 0.000281116 0)
(0.0971635 0.000295146 0)
(0.0970488 0.000309864 0)
(0.0969307 0.000325301 0)
(0.0968092 0.000341486 0)
(0.0966843 0.00035845 0)
(0.0965557 0.000376225 0)
(0.0964235 0.000394847 0)
(0.0962875 0.000414352 0)
(0.0961476 0.000434777 0)
(0.0960038 0.000456162 0)
(0.0958559 0.000478552 0)
(0.0957038 0.000501994 0)
(0.0955475 0.000526548 0)
(0.0953869 0.000552302 0)
(0.0952218 0.00057943 0)
(0.0950521 0.00060836 0)
(0.0999997 3.95401e-06 0)
(0.099995 1.13275e-05 0)
(0.0999856 1.85297e-05 0)
(0.0999719 2.89367e-05 0)
(0.0999508 4.71724e-05 0)
(0.0999173 7.48293e-05 0)
(0.0998669 0.000108139 0)
(0.0997987 0.000139736 0)
(0.0997159 0.000162674 0)
(0.0996249 0.000173559 0)
(0.0995322 0.000173206 0)
(0.0994429 0.000165261 0)
(0.0993598 0.000154169 0)
(0.0992834 0.000143613 0)
(0.0992129 0.000135836 0)
(0.0991465 0.000131688 0)
(0.0990826 0.000131048 0)
(0.0990197 0.000133299 0)
(0.0989567 0.000137695 0)
(0.0988927 0.000143571 0)
(0.0988275 0.00015043 0)
(0.0987605 0.000157946 0)
(0.0986918 0.000165935 0)
(0.0986212 0.00017431 0)
(0.0985486 0.000183048 0)
(0.0984739 0.000192162 0)
(0.0983971 0.000201681 0)
(0.0983182 0.000211643 0)
(0.0982371 0.000222087 0)
(0.0981537 0.000233051 0)
(0.0980679 0.00024457 0)
(0.0979797 0.000256678 0)
(0.0978889 0.000269409 0)
(0.0977956 0.000282793 0)
(0.0976996 0.000296861 0)
(0.0976008 0.000311645 0)
(0.0974992 0.000327175 0)
(0.0973946 0.000343484 0)
(0.097287 0.000360604 0)
(0.0971763 0.00037857 0)
(0.0970624 0.000397415 0)
(0.0969453 0.000417177 0)
(0.0968248 0.000437894 0)
(0.0967008 0.000459604 0)
(0.0965734 0.000482349 0)
(0.0964423 0.000506173 0)
(0.0963075 0.00053112 0)
(0.0961689 0.000557239 0)
(0.0960265 0.00058458 0)
(0.0958801 0.000613197 0)
(0.0957296 0.000643149 0)
(0.095575 0.000674509 0)
(0.0954162 0.00070738 0)
(0.0952531 0.000741962 0)
(0.0950855 0.000778737 0)
(0.0999997 4.82618e-06 0)
(0.099995 1.38413e-05 0)
(0.0999856 2.26379e-05 0)
(0.0999719 3.52301e-05 0)
(0.0999512 5.7175e-05 0)
(0.0999187 9.04596e-05 0)
(0.0998699 0.000130661 0)
(0.0998039 0.000168994 0)
(0.0997235 0.000197091 0)
(0.0996344 0.000210783 0)
(0.099543 0.000210935 0)
(0.0994543 0.00020184 0)
(0.0993711 0.0001888 0)
(0.0992941 0.000176246 0)
(0.0992227 0.000166909 0)
(0.0991553 0.000161858 0)
(0.0990905 0.00016099 0)
(0.0990268 0.000163597 0)
(0.0989632 0.000168801 0)
(0.0988989 0.000175815 0)
(0.0988334 0.000184044 0)
(0.0987664 0.000193096 0)
(0.0986977 0.000202744 0)
(0.0986272 0.000212881 0)
(0.0985548 0.000223475 0)
(0.0984805 0.000234539 0)
(0.0984041 0.000246106 0)
(0.0983256 0.000258219 0)
(0.0982449 0.000270923 0)
(0.098162 0.000284263 0)
(0.0980768 0.00029828 0)
(0.0979891 0.000313016 0)
(0.097899 0.000328509 0)
(0.0978064 0.000344797 0)
(0.0977111 0.000361916 0)
(0.0976131 0.000379905 0)
(0.0975123 0.0003988 0)
(0.0974086 0.000418639 0)
(0.0973019 0.000439463 0)
(0.0971922 0.000461311 0)
(0.0970794 0.000484226 0)
(0.0969634 0.00050825 0)
(0.096844 0.00053343 0)
(0.0967214 0.000559813 0)
(0.0965952 0.000587447 0)
(0.0964656 0.000616385 0)
(0.0963323 0.000646681 0)
(0.0961954 0.00067839 0)
(0.0960546 0.000711573 0)
(0.0959101 0.000746293 0)
(0.0957616 0.000782618 0)
(0.0956091 0.000820631 0)
(0.0954525 0.000860443 0)
(0.0952917 0.000902259 0)
(0.0951267 0.000946564 0)
(0.0999997 5.69446e-06 0)
(0.099995 1.63522e-05 0)
(0.0999857 2.67391e-05 0)
(0.099972 4.14499e-05 0)
(0.0999517 6.6925e-05 0)
(0.0999201 0.000105565 0)
(0.0998732 0.000152389 0)
(0.0998096 0.000197304 0)
(0.0997318 0.000230586 0)
(0.099645 0.000247282 0)
(0.0995551 0.000248242 0)
(0.099467 0.00023832 0)
(0.0993837 0.000223603 0)
(0.099306 0.000209235 0)
(0.0992336 0.000198429 0)
(0.0991652 0.000192486 0)
(0.0990994 0.000191346 0)
(0.0990349 0.000194232 0)
(0.0989707 0.000200156 0)
(0.098906 0.000208218 0)
(0.0988402 0.000217734 0)
(0.0987732 0.000228247 0)
(0.0987046 0.00023949 0)
(0.0986343 0.000251335 0)
(0.0985622 0.000263738 0)
(0.0984882 0.00027671 0)
(0.0984123 0.000290286 0)
(0.0983343 0.000304513 0)
(0.0982542 0.000319442 0)
(0.0981719 0.000335123 0)
(0.0980873 0.000351603 0)
(0.0980004 0.000368929 0)
(0.097911 0.000387145 0)
(0.0978192 0.000406295 0)
(0.0977247 0.000426422 0)
(0.0976276 0.000447568 0)
(0.0975278 0.000469776 0)
(0.0974252 0.000493091 0)
(0.0973196 0.000517558 0)
(0.0972111 0.000543225 0)
(0.0970995 0.000570138 0)
(0.0969848 0.00059835 0)
(0.0968669 0.000627911 0)
(0.0967458 0.000658877 0)
(0.0966212 0.000691305 0)
(0.0964933 0.000725252 0)
(0.0963618 0.000760781 0)
(0.0962268 0.000797957 0)
(0.0960881 0.000836847 0)
(0.0959457 0.000877522 0)
(0.0957995 0.000920058 0)
(0.0956495 0.000964543 0)
(0.0954955 0.00101109 0)
(0.0953376 0.00105987 0)
(0.0951757 0.0011113 0)
(0.0948227 9.21595e-05 -4.62653e-24)
(0.0946362 9.71369e-05 -4.71449e-24)
(0.09444 0.000102421 -3.19045e-26)
(0.0942337 0.000108111 1.44783e-23)
(0.0940164 0.000114216 -4.79631e-24)
(0.0937874 0.000120757 -4.93381e-24)
(0.0935459 0.00012777 -1.51857e-23)
(0.093291 0.000135294 1.50796e-23)
(0.0930218 0.000143369 5.15788e-24)
(0.0927371 0.000152041 0)
(0.0924359 0.000161354 5.32636e-24)
(0.092117 0.000171361 -5.41709e-24)
(0.0917792 0.000182117 4.45486e-23)
(0.0914209 0.000193687 -9.54674e-23)
(0.0910407 0.000206146 5.10234e-23)
(0.0906369 0.000219583 4.13338e-23)
(0.0902078 0.00023411 5.30397e-23)
(0.0897512 0.000249859 -6.07275e-24)
(0.0892648 0.000266994 6.20434e-24)
(0.088746 0.000285708 -6.34361e-24)
(0.0881918 0.000306234 0)
(0.0875988 0.000328848 6.6477e-24)
(0.0869629 0.000353874 -6.81392e-24)
(0.0862795 0.00038169 0)
(0.0855433 0.000412736 -7.17875e-24)
(0.0847481 0.000447518 0)
(0.0838866 0.000486627 -7.59325e-24)
(0.0829508 0.000530751 -1.27262e-22)
(0.0819309 0.0005807 1.35134e-22)
(0.0808158 0.000637438 -1.3569e-22)
(0.0795925 0.00070212 1.35483e-22)
(0.0782457 0.000776146 0)
(0.0767576 0.000861228 0)
(0.0751069 0.000959466 1.66275e-22)
(0.0732682 0.00107345 -1.5645e-22)
(0.0712112 0.00120634 0)
(0.0688993 0.00136198 0)
(0.0662888 0.00154488 0)
(0.0633274 0.00176011 0)
(0.0599537 0.00201285 0)
(0.0560971 0.00230746 0)
(0.0516812 0.00264564 0)
(0.0466298 0.00302325 0)
(0.0408806 0.00342526 0)
(0.0344111 0.00381814 -1.55044e-23)
(0.0272793 0.00413898 -5.32834e-22)
(0.0196702 0.00428223 5.32035e-22)
(0.0119731 0.00408586 5.78574e-22)
(0.00513605 0.0033007 -5.77706e-22)
(0.00104941 0.00153865 0)
(0.0948316 0.000276154 -4.67917e-24)
(0.0946453 0.000290984 -9.53989e-24)
(0.0944494 0.000306909 -4.99659e-24)
(0.0942433 0.000323971 4.66013e-24)
(0.0940264 0.000342237 -4.86174e-24)
(0.0937978 0.000361807 3.48272e-23)
(0.0935568 0.000382792 -5.46954e-23)
(0.0933024 0.000405308 5.07842e-24)
(0.0930337 0.000429481 6.77585e-23)
(0.0927497 0.000455439 -9.35841e-23)
(0.0924492 0.000483323 -9.13525e-23)
(0.0921311 0.000513286 8.04967e-23)
(0.0917941 0.000545497 0)
(0.0914368 0.000580149 5.61856e-24)
(0.0910576 0.00061747 -1.7168e-23)
(0.090655 0.000657729 -1.9465e-22)
(0.0902271 0.000701257 1.86785e-22)
(0.0897719 0.000748459 -1.98557e-22)
(0.089287 0.000799821 -1.86401e-23)
(0.0887698 0.000855925 6.35753e-24)
(0.0882175 0.000917468 0)
(0.0876264 0.000985277 -6.66492e-24)
(0.0869928 0.00106032 -2.1476e-22)
(0.0863119 0.00114374 4.48787e-22)
(0.0855787 0.00123685 2.47557e-22)
(0.0847869 0.00134115 -4.66917e-22)
(0.0839296 0.00145842 5.02856e-22)
(0.0829985 0.00159072 -5.10258e-22)
(0.0819844 0.00174047 -8.09859e-24)
(0.0808764 0.00191055 0)
(0.0796617 0.00210441 0)
(0.0783256 0.00232623 0)
(0.0768506 0.00258111 0)
(0.0752162 0.0028753 -9.63472e-24)
(0.073398 0.0032165 -6.53857e-22)
(0.071367 0.00361411 -2.80308e-23)
(0.0690883 0.00407949 6.80115e-22)
(0.0665202 0.00462595 7.41709e-22)
(0.0636132 0.00526842 -7.40727e-22)
(0.0603091 0.00602207 -2.46331e-23)
(0.0565412 0.00689945 -2.57555e-23)
(0.0522364 0.00790501 -8.89413e-22)
(0.0473211 0.00902567 8.60102e-22)
(0.0417323 0.0102158 -2.93513e-23)
(0.0354394 0.0113747 1.56127e-23)
(0.0284803 0.0123147 -1.08335e-21)
(0.0210017 0.0127212 1.08298e-21)
(0.0133275 0.0121131 -2.26152e-21)
(0.0062763 0.00975987 2.22371e-21)
(0.00151356 0.00451708 -2.27874e-21)
(0.0948493 0.000459184 -2.76861e-23)
(0.0946634 0.000483855 -9.70567e-24)
(0.0944682 0.000510315 3.74619e-23)
(0.0942627 0.000538617 -7.70243e-23)
(0.0940465 0.000568913 1.64796e-22)
(0.0938187 0.000601381 -7.80582e-23)
(0.0935785 0.000636205 1.42357e-26)
(0.0933252 0.000673578 1.01292e-23)
(0.0930576 0.000713705 1.76558e-22)
(0.0927749 0.000756803 -1.6608e-22)
(0.0924759 0.000803107 0)
(0.0921594 0.000852871 1.46754e-26)
(0.0918241 0.00090638 0)
(0.0914688 0.000963959 1.92982e-22)
(0.0910918 0.00102599 -1.70106e-22)
(0.0906915 0.00109292 -3.66586e-22)
(0.0902662 0.0011653 2.02953e-23)
(0.0898137 0.00124382 -3.85916e-22)
(0.0893319 0.00132928 1.24727e-23)
(0.0888181 0.00142265 -4.13166e-22)
(0.0882695 0.0015251 4.25823e-22)
(0.0876826 0.001638 -4.33825e-22)
(0.0870536 0.00176297 4.47125e-22)
(0.0863781 0.00190188 1.40713e-23)
(0.085651 0.00205692 -1.44565e-23)
(0.0848663 0.00223061 1.48664e-23)
(0.0840174 0.00242587 -4.97996e-22)
(0.0830964 0.00264612 5.13327e-22)
(0.0820943 0.00289537 5.46327e-22)
(0.0810008 0.00317839 -5.29559e-22)
(0.0798037 0.00350087 0)
(0.0784893 0.00386971 0)
(0.077041 0.0042933 1.86264e-23)
(0.0754399 0.00478192 1.28428e-21)
(0.0736635 0.00534815 3.14801e-23)
(0.0716851 0.00600732 -1.29319e-21)
(0.0694734 0.00677786 0)
(0.0669909 0.00768127 -2.26348e-23)
(0.0641935 0.00874139 1.57823e-21)
(0.0610297 0.00998216 -3.1522e-21)
(0.0574401 0.0114227 3.34491e-21)
(0.0533588 0.0130684 1.02738e-22)
(0.0487169 0.014895 -1.7406e-21)
(0.0434495 0.0168248 -1.88824e-21)
(0.0375102 0.0186899 1.94599e-21)
(0.0308952 0.0201814 1.51154e-24)
(0.0236736 0.0207833 -3.31512e-23)
(0.0160397 0.0197055 2.18374e-21)
(0.0085393 0.015785 -2.11459e-21)
(0.00240574 0.00723832 -2.11489e-21)
(0.0948758 0.000640584 1.8244e-23)
(0.0946906 0.000675007 -9.25577e-24)
(0.0944961 0.000711758 1.95615e-26)
(0.0942916 0.000751085 9.51923e-24)
(0.0940765 0.000793209 -1.96603e-26)
(0.0938499 0.000838363 1.58053e-22)
(0.0936112 0.000886799 -2.9863e-22)
(0.0933594 0.000938788 1.60478e-22)
(0.0930937 0.000994615 -1.02707e-23)
(0.092813 0.00105459 1.89769e-22)
(0.0925162 0.00111903 -1.68797e-22)
(0.0922022 0.00118831 -3.50162e-22)
(0.0918697 0.00126282 7.0696e-22)
(0.0915174 0.00134302 -7.20756e-22)
(0.0911438 0.00142945 7.35231e-22)
(0.0907472 0.00152274 -7.38785e-22)
(0.0903259 0.00162368 -3.91082e-22)
(0.0898778 0.00173321 2.27414e-26)
(0.0894008 0.00185247 0)
(0.0888924 0.00198282 -4.02355e-22)
(0.0883496 0.00212587 4.14987e-22)
(0.0877693 0.00228356 0)
(0.0871477 0.00245812 -8.95991e-22)
(0.0864807 0.00265219 8.81453e-22)
(0.0857633 0.00286879 1.45941e-23)
(0.0849901 0.00311142 -3.68127e-26)
(0.0841545 0.00338415 1.54262e-23)
(0.0832493 0.00369172 0)
(0.0822661 0.00403969 -5.24493e-26)
(0.0811953 0.00443464 0)
(0.0800259 0.00488447 -1.75233e-23)
(0.0787452 0.00539866 1.18536e-21)
(0.0773384 0.00598874 -1.18504e-21)
(0.0757888 0.00666876 -1.96124e-23)
(0.0740765 0.00745587 4.0618e-23)
(0.072179 0.00837082 -1.4014e-21)
(0.0700696 0.00943838 1.35783e-21)
(0.0677175 0.0106872 2.30262e-23)
(0.0650867 0.0121485 -3.61022e-25)
(0.0621355 0.0138532 2.46072e-23)
(0.0588154 0.0158243 -1.69201e-21)
(0.0550714 0.0180649 3.42223e-21)
(0.0508414 0.020537 -1.78487e-21)
(0.0460578 0.0231283 1.84957e-21)
(0.0406506 0.025605 -1.9363e-21)
(0.0345526 0.0275451 -3.8522e-21)
(0.0277108 0.0282492 7.85929e-21)
(0.0201256 0.0266364 -3.97893e-21)
(0.0119727 0.0211508 0)
(0.00373165 0.00958548 -3.7375e-21)
(0.0949108 0.000819629 -9.0489e-24)
(0.0947266 0.000863503 -3.69532e-23)
(0.0945332 0.000910361 1.12007e-22)
(0.0943301 0.000960491 -1.51215e-22)
(0.0941164 0.00101418 6.65939e-23)
(0.0938916 0.00107174 9.76225e-24)
(0.0936549 0.00113348 -9.92346e-24)
(0.0934054 0.00119976 -2.47197e-26)
(0.0931421 0.00127094 1.02687e-23)
(0.0928642 0.00134743 -2.08827e-23)
(0.0925706 0.00142963 -3.43535e-22)
(0.0922601 0.00151802 3.54541e-22)
(0.0919315 0.00161312 -3.46169e-22)
(0.0915835 0.00171552 3.57346e-22)
(0.0912145 0.0018259 0)
(0.0908231 0.0019451 -2.51375e-26)
(0.0904074 0.00207412 0)
(0.0899656 0.00221418 -3.85823e-22)
(0.0894954 0.00236675 4.10893e-22)
(0.0889945 0.00253357 -1.2911e-23)
(0.0884602 0.0027167 -8.70264e-22)
(0.0878893 0.00291861 8.57418e-22)
(0.0872785 0.00314217 -1.39462e-23)
(0.0866236 0.00339071 0)
(0.0859203 0.00366809 0)
(0.0851633 0.00397875 -1.00006e-21)
(0.0843469 0.00432787 9.69675e-22)
(0.0834643 0.00472144 0)
(0.082508 0.00516652 -3.32848e-23)
(0.0814695 0.00567141 0)
(0.080339 0.00624606 1.78308e-23)
(0.0791056 0.00690236 -1.83853e-23)
(0.0777569 0.00765473 -1.91536e-23)
(0.0762787 0.00852062 1.97542e-23)
(0.0746554 0.00952119 1.30093e-21)
(0.0728691 0.0106819 -1.34269e-21)
(0.0709 0.0120326 2.92293e-21)
(0.0687257 0.0136078 -2.92483e-21)
(0.0663211 0.0154441 3.10994e-21)
(0.0636574 0.0175766 9.25191e-23)
(0.060701 0.0200292 -3.28034e-21)
(0.0574109 0.0227996 -2.62438e-23)
(0.0537347 0.0258328 1.29355e-24)
(0.0496021 0.0289817 1.71957e-24)
(0.044914 0.0319513 2.27859e-24)
(0.0395235 0.0342221 -5.69634e-23)
(0.0332144 0.034944 -2.61226e-23)
(0.0257146 0.0327877 -2.48037e-23)
(0.016718 0.0258205 0)
(0.00551608 0.0115505 7.82377e-24)
(0.0949542 0.00099573 -4.49041e-23)
(0.0947712 0.00104884 2.70114e-23)
(0.0945794 0.00110559 9.2385e-24)
(0.094378 0.00116632 1.41773e-22)
(0.0941664 0.00123137 -1.41829e-22)
(0.093944 0.00130113 1.46666e-22)
(0.0937099 0.00137598 -3.25533e-22)
(0.0934634 0.00145635 4.63347e-22)
(0.0932035 0.0015427 -3.24533e-22)
(0.0929294 0.00163551 -3.3653e-22)
(0.0926399 0.0017353 -1.68281e-23)
(0.092334 0.00184263 6.83207e-22)
(0.0920105 0.00195815 -7.19525e-22)
(0.0916681 0.0020826 3.35573e-22)
(0.0913054 0.00221682 3.62032e-22)
(0.0909208 0.00236185 3.78361e-22)
(0.0905127 0.00251891 -2.9041e-23)
(0.0900792 0.00268954 7.71142e-22)
(0.0896183 0.00287551 7.96178e-22)
(0.0891276 0.00307896 2.00466e-23)
(0.0886048 0.00330242 -8.44014e-22)
(0.0880468 0.0035489 0)
(0.0874505 0.00382189 0)
(0.0868123 0.00412543 -9.40841e-22)
(0.0861282 0.00446421 9.27328e-22)
(0.0853934 0.00484361 9.99152e-22)
(0.084603 0.00526989 -1.00063e-21)
(0.083751 0.00575028 0)
(0.082831 0.00629327 1.11781e-21)
(0.0818358 0.00690887 -1.11997e-21)
(0.0807574 0.00760892 0)
(0.079587 0.0084076 -2.42646e-21)
(0.0783149 0.0093219 2.44893e-21)
(0.0769307 0.0103722 -2.02527e-23)
(0.0754235 0.011583 -2.71189e-21)
(0.0737816 0.0129831 2.73705e-21)
(0.0719935 0.0146059 0)
(0.0700473 0.0164885 3.07955e-21)
(0.0679313 0.0186693 -3.06058e-21)
(0.0656331 0.0211817 2.48387e-23)
(0.0631375 0.0240435 3.38738e-21)
(0.0604219 0.0272382 -6.79946e-21)
(0.057448 0.0306854 1.65979e-23)
(0.0541459 0.0341971 3.55482e-23)
(0.0503888 0.0374191 3.53434e-21)
(0.0459473 0.0397546 3.95362e-24)
(0.0404239 0.0402548 -3.02947e-21)
(0.0331976 0.0374436 3.10565e-21)
(0.0232379 0.0291772 0)
(0.00801905 0.0128335 2.73107e-23)
(0.0950057 0.00116809 8.8448e-24)
(0.0948245 0.00122993 8.14598e-23)
(0.0946348 0.00129609 -7.26444e-23)
(0.0944359 0.00136693 9.32208e-24)
(0.0942271 0.00144288 1.43255e-22)
(0.0940078 0.00152437 -1.43484e-22)
(0.0937773 0.00161187 -3.07267e-22)
(0.0935347 0.00170588 4.66227e-24)
(0.0932792 0.00180694 -5.64362e-24)
(0.0930099 0.00191561 3.41116e-22)
(0.0927258 0.00203252 -3.33063e-22)
(0.0924259 0.00215837 7.06689e-22)
(0.092109 0.00229391 -3.52096e-22)
(0.0917739 0.00244003 1.13777e-23)
(0.0914193 0.00259777 1.16414e-23)
(0.0910437 0.00276836 7.69877e-22)
(0.0906455 0.00295331 -4.92339e-24)
(0.090223 0.00315442 8.03531e-22)
(0.0897744 0.00337386 1.28408e-23)
(0.0892974 0.00361416 0)
(0.0887899 0.00387838 0)
(0.0882493 0.00417007 -9.01455e-22)
(0.0876727 0.0044934 9.03733e-22)
(0.0870569 0.00485318 0)
(0.0863986 0.00525495 1.52058e-23)
(0.0856938 0.0057051 0)
(0.0849383 0.00621102 -1.05046e-21)
(0.0841273 0.00678128 2.13889e-21)
(0.0832558 0.0074259 -1.08851e-21)
(0.0823181 0.00815664 -2.30807e-21)
(0.0813084 0.00898738 -7.82571e-23)
(0.0802206 0.00993462 -8.273e-23)
(0.0790483 0.011018 -8.71413e-23)
(0.0777854 0.0122606 2.59799e-21)
(0.0764264 0.0136898 2.79058e-21)
(0.0749668 0.0153371 -2.79722e-21)
(0.073404 0.0172374 0)
(0.0717377 0.0194276 3.1025e-21)
(0.0699705 0.0219419 -3.1097e-21)
(0.0681073 0.0248035 -3.30848e-21)
(0.0661531 0.0280107 3.29026e-21)
(0.0641063 0.0315141 2.69348e-23)
(0.0619462 0.0351834 3.31595e-21)
(0.059611 0.038763 -1.0721e-22)
(0.0569604 0.041817 -3.27704e-21)
(0.053709 0.0436726 2.50038e-23)
(0.0493307 0.0433527 0)
(0.0429411 0.0394415 -1.98012e-23)
(0.0326224 0.0300085 -9.03167e-22)
(0.0129323 0.0127733 4.47452e-22)
(-0.00025171 0.000317103 0)
(-0.000993348 0.000525378 3.06799e-22)
(-0.00192916 0.00047418 -3.07259e-22)
(-0.00263523 0.000282414 -2.97732e-22)
(-0.00289858 1.89292e-05 2.9818e-22)
(-0.00265079 -0.00027888 -8.89629e-24)
(-0.00187696 -0.000580223 0)
(-0.000578184 -0.000867077 0)
(0.00121353 -0.00112922 0)
(0.00345062 -0.00136115 0)
(0.00607839 -0.00155979 0)
(0.0090383 -0.00172404 0)
(0.0122706 -0.00185425 0)
(0.0157167 -0.00195179 0)
(0.0193206 -0.00201872 0)
(0.0230298 -0.00205757 4.66277e-23)
(0.0267965 -0.00207115 -4.39959e-23)
(0.0305773 -0.00206241 0)
(0.0343343 -0.00203433 0)
(0.0380342 -0.00198984 -2.02665e-23)
(0.0416491 -0.00193175 2.02975e-23)
(0.0451556 -0.00186271 -1.05762e-23)
(0.0485352 -0.00178519 6.20947e-25)
(0.0517733 -0.00170144 0)
(0.0548593 -0.00161345 2.58407e-25)
(0.0577861 -0.00152297 0)
(0.0605495 -0.00143154 0)
(0.0631483 -0.00134048 0)
(0.0655832 -0.00125092 -1.26966e-25)
(0.0678573 -0.00116378 0)
(0.0699748 -0.0010798 2.05126e-25)
(0.0719418 -0.000999542 -2.25727e-25)
(0.0737648 -0.000923425 2.37053e-25)
(0.0754514 -0.000851727 -2.21099e-24)
(0.0770095 -0.000784607 2.21224e-24)
(0.0784474 -0.000722121 1.63173e-24)
(0.0797733 -0.000664236 -3.41928e-24)
(0.0809955 -0.000610849 1.77795e-24)
(0.0821219 -0.0005618 1.98288e-25)
(0.0831604 -0.000516884 -1.83855e-25)
(0.0841182 -0.000475866 0)
(0.0850023 -0.000438491 -1.53729e-25)
(0.0858192 -0.000404493 6.72336e-25)
(0.0865749 -0.000373605 -6.58416e-25)
(0.0872748 -0.000345562 1.09621e-25)
(0.0879241 -0.00032011 -2.77547e-25)
(0.0885274 -0.000297007 9.91971e-26)
(0.0890888 -0.000276024 1.35955e-25)
(0.0896121 -0.000256949 -6.57521e-26)
(0.0901007 -0.000239586 4.74766e-26)
(-0.00031075 0.000911666 -1.18158e-21)
(-0.00106318 0.00149167 -1.28027e-21)
(-0.00184233 0.00133499 1.26178e-21)
(-0.0023323 0.000770249 -5.88703e-22)
(-0.00237792 -6.70584e-06 5.90084e-22)
(-0.00192998 -0.000878563 8.95795e-24)
(-0.000979666 -0.00176188 -1.73594e-23)
(0.00046237 -0.00260368 -5.14433e-22)
(0.00236232 -0.00337485 4.98755e-22)
(0.00467452 -0.00405838 -1.40095e-23)
(0.00734792 -0.00464459 -1.27572e-23)
(0.0103277 -0.00512999 3.41123e-22)
(0.0135579 -0.00551536 -3.41577e-22)
(0.0169836 -0.00580453 -2.62966e-22)
(0.0205522 -0.0060034 3.67853e-23)
(0.0242146 -0.00611929 2.26833e-22)
(0.0279256 -0.00616038 -2.71596e-24)
(0.0316446 -0.00613531 -4.71481e-24)
(0.0353356 -0.00605285 0)
(0.0389673 -0.0059216 0)
(0.0425133 -0.00574987 0)
(0.0459515 -0.00554549 -8.6094e-25)
(0.0492642 -0.00531576 3.28784e-23)
(0.0524378 -0.00506737 -3.59035e-23)
(0.0554624 -0.00480623 1.31792e-23)
(0.0583311 -0.00453755 -1.0639e-23)
(0.0610403 -0.00426593 -2.55145e-24)
(0.0635887 -0.00399532 -2.70119e-25)
(0.0659772 -0.00372908 1.27293e-25)
(0.0682087 -0.00346996 2.83049e-25)
(0.0702877 -0.00322016 -2.05573e-25)
(0.0722197 -0.00298138 6.27925e-25)
(0.0740114 -0.00275486 -7.23679e-24)
(0.07567 -0.00254144 1.51682e-23)
(0.0772031 -0.0023416 -7.29357e-24)
(0.0786189 -0.00215551 6.68276e-25)
(0.0799253 -0.00198308 -2.23752e-25)
(0.0811302 -0.001824 0)
(0.0822415 -0.00167782 3.17669e-24)
(0.0832668 -0.00154391 -2.82058e-24)
(0.084213 -0.0014216 -2.21458e-24)
(0.085087 -0.00131012 2.9838e-24)
(0.085895 -0.00120869 -1.3864e-25)
(0.0866429 -0.00111652 -5.5808e-25)
(0.087336 -0.00103282 1.01689e-24)
(0.0879794 -0.000956834 9.57943e-26)
(0.0885774 -0.000887848 5.38994e-25)
(0.0891341 -0.000825183 1.40075e-26)
(0.0896533 -0.000768205 -1.48935e-25)
(0.0901382 -0.000716324 -1.51037e-25)
(-0.000416299 0.00138733 -1.2446e-21)
(-0.00116532 0.00220966 1.3467e-21)
(-0.00161902 0.00194377 -1.30644e-21)
(-0.00169117 0.0010369 -1.9857e-23)
(-0.001315 -0.000208674 -5.85188e-25)
(-0.000481464 -0.00159304 -1.14937e-21)
(0.000800143 -0.00299624 1.18712e-21)
(0.00250854 -0.00434058 1.05159e-21)
(0.004607 -0.00557792 -6.10971e-23)
(0.00705533 -0.00667792 -1.82474e-21)
(0.00980919 -0.00762404 1.68944e-21)
(0.0128208 -0.00840982 -7.85399e-22)
(0.0160414 -0.0090357 -1.07823e-23)
(0.0194234 -0.00950707 0)
(0.0229209 -0.00983281 4.8722e-22)
(0.0264907 -0.0100243 -7.7691e-23)
(0.030093 -0.0100943 -4.03146e-22)
(0.033692 -0.0100565 9.86274e-24)
(0.0372557 -0.00992504 0)
(0.0407562 -0.00971367 0)
(0.0441699 -0.00943581 7.2973e-23)
(0.0474772 -0.00910414 -7.09089e-23)
(0.0506622 -0.00873057 -3.93034e-23)
(0.0537127 -0.00832595 4.17144e-23)
(0.0566199 -0.00790008 8.16413e-25)
(0.0593779 -0.00746142 -5.17072e-25)
(0.0619834 -0.00701752 2.74995e-25)
(0.0644356 -0.0065749 2.18955e-24)
(0.0667354 -0.0061391 -2.10881e-24)
(0.0688858 -0.00571466 8.49493e-24)
(0.070891 -0.00530523 -8.96779e-24)
(0.0727563 -0.00491364 -4.03337e-25)
(0.0744879 -0.00454195 -1.31776e-23)
(0.0760927 -0.00419156 2.61542e-23)
(0.077578 -0.00386331 -1.38741e-23)
(0.0789513 -0.00355749 -6.96742e-24)
(0.0802202 -0.00327398 6.16312e-24)
(0.081392 -0.00301231 0)
(0.0824743 -0.00277174 -3.61937e-26)
(0.083474 -0.00255128 0)
(0.0843978 -0.00234982 -4.74777e-24)
(0.0852522 -0.00216613 4.43179e-24)
(0.086043 -0.00199894 -2.40423e-25)
(0.0867759 -0.00184695 -2.03377e-26)
(0.0874558 -0.00170888 -1.51772e-24)
(0.0880875 -0.0015835 2.63498e-24)
(0.0886753 -0.00146962 -1.31487e-24)
(0.089223 -0.00136615 4.49686e-25)
(0.0897341 -0.00127204 -3.72499e-25)
(0.0902119 -0.00118629 -1.11025e-25)
(-0.000532549 0.00163661 -2.73932e-21)
(-0.00120057 0.0025446 0)
(-0.00114176 0.00216384 2.75696e-21)
(-0.000623396 0.00096524 -5.46784e-21)
(0.000345047 -0.000649275 2.73062e-21)
(0.00171578 -0.00245314 1.1931e-21)
(0.00344126 -0.00429153 -1.25232e-21)
(0.0054965 -0.00606257 1.09296e-21)
(0.00785091 -0.00769986 -2.12378e-21)
(0.0104705 -0.00916196 1.01459e-21)
(0.0133193 -0.0104257 1.42419e-23)
(0.0163599 -0.0114805 6.05436e-25)
(0.0195542 -0.0123251 1.09673e-23)
(0.0228644 -0.0129651 -6.05353e-22)
(0.0262537 -0.013411 5.86899e-22)
(0.0296874 -0.0136768 1.50443e-23)
(0.033133 -0.0137789 -6.1725e-24)
(0.0365608 -0.0137351 3.15378e-22)
(0.0399443 -0.0135638 -3.15033e-22)
(0.0432602 -0.0132834 -3.87266e-24)
(0.0464887 -0.0129117 0)
(0.0496131 -0.0124659 3.34271e-25)
(0.0526201 -0.0119619 0)
(0.0554993 -0.0114146 1.46873e-24)
(0.0582433 -0.0108372 2.48711e-25)
(0.0608474 -0.0102417 5.21962e-25)
(0.0633089 -0.00963799 -1.70726e-23)
(0.0656273 -0.00903527 1.6981e-23)
(0.0678038 -0.00844112 0)
(0.0698412 -0.00786185 5.40942e-24)
(0.0717435 -0.00730253 -5.40488e-24)
(0.0735157 -0.00676709 0)
(0.0751635 -0.00625845 -1.0098e-25)
(0.0766933 -0.00577859 1.15149e-23)
(0.0781116 -0.0053287 -2.27938e-23)
(0.0794253 -0.00490926 2.26096e-23)
(0.0806414 -0.00452016 -2.2141e-23)
(0.0817667 -0.0041608 2.13997e-23)
(0.0828079 -0.00383019 -1.05078e-23)
(0.0837715 -0.00352705 -4.5782e-24)
(0.0846637 -0.00324986 4.03532e-24)
(0.0854903 -0.00299699 2.31274e-25)
(0.0862567 -0.00276669 3.46394e-24)
(0.0869681 -0.00255723 -6.88094e-24)
(0.0876292 -0.00236686 3.02208e-24)
(0.0882443 -0.0021939 2.22016e-26)
(0.0888174 -0.00203674 -1.41076e-25)
(0.0893522 -0.00189388 -1.78314e-26)
(0.0898518 -0.00176387 9.72612e-26)
(0.0903192 -0.00164532 -1.39899e-25)
(-0.000541018 0.00158494 -2.12907e-24)
(-0.00093684 0.00242249 -2.58627e-23)
(-0.000209807 0.00192073 -2.47528e-23)
(0.0010533 0.000529691 -2.36918e-23)
(0.00272123 -0.00135337 -4.43541e-23)
(0.00468944 -0.00346747 -8.43633e-25)
(0.00691013 -0.00562951 1.96879e-23)
(0.00934655 -0.00772495 -1.92664e-23)
(0.0119717 -0.00967629 -1.79988e-23)
(0.0147618 -0.0114324 1.98278e-21)