/*--------------------------------*- C++ -*----------------------------------*\
| =========                 |                                                 |
| \\      /  F ield         | OpenFOAM: The Open Source CFD Toolbox           |
|  \\    /   O peration     | Version:  2412                                  |
|   \\  /    A nd           | Website:  www.openfoam.com                      |
|    \\/     M anipulation  |                                                 |
\*---------------------------------------------------------------------------*/
FoamFile
{
    version     2.0;
    format      ascii;
    arch        "LSB;label=32;scalar=64";
    class       volVectorField;
    location    "13";
    object      vorticity;
}
// * * * * * * * * * * * * * * * * * * * * * * * * * * * * * * * * * * * * * //

dimensions      [0 0 -1 0 0 0 0];

internalField   nonuniform List<vector> 
63420
(
(0 0 5.77211e-06)
(0 0 5.54722e-06)
(0 0 6.98094e-06)
(0 0 1.17137e-05)
(0 0 1.84645e-05)
(0 0 2.29463e-05)
(0 0 2.08979e-05)
(0 0 1.11869e-05)
(0 0 -3.58604e-06)
(0 0 -1.88879e-05)
(0 0 -3.06767e-05)
(0 0 -3.68893e-05)
(0 0 -3.75801e-05)
(0 0 -3.41802e-05)
(0 0 -2.85607e-05)
(0 0 -2.23509e-05)
(0 0 -1.66362e-05)
(0 0 -1.19505e-05)
(0 0 -8.41839e-06)
(0 0 -5.92651e-06)
(0 0 -4.2628e-06)
(0 0 -3.20414e-06)
(0 0 -2.55966e-06)
(0 0 -2.18422e-06)
(0 0 -1.97599e-06)
(0 0 -1.86777e-06)
(0 0 -1.81725e-06)
(0 0 -1.79884e-06)
(0 0 -1.79753e-06)
(0 0 -1.80478e-06)
(0 0 -1.81585e-06)
(0 0 -1.82811e-06)
(0 0 -1.84017e-06)
(0 0 -1.85121e-06)
(0 0 -1.86078e-06)
(0 0 -1.86862e-06)
(0 0 -1.87456e-06)
(0 0 -1.87848e-06)
(0 0 -1.88026e-06)
(0 0 -1.87982e-06)
(0 0 -1.87705e-06)
(0 0 -1.87184e-06)
(0 0 -1.86408e-06)
(0 0 -1.85361e-06)
(0 0 -1.84026e-06)
(0 0 -1.82382e-06)
(0 0 -1.80402e-06)
(0 0 -1.78033e-06)
(0 0 -1.75138e-06)
(0 0 -1.7126e-06)
(0 0 -1.64837e-06)
(0 0 -1.50596e-06)
(0 0 -1.1129e-06)
(0 0 7.59274e-08)
(0 4.59075e-23 3.72323e-06)
(0 0 1.73203e-05)
(0 0 1.66488e-05)
(0 0 2.09093e-05)
(0 0 3.50067e-05)
(0 0 5.51666e-05)
(0 0 6.86482e-05)
(0 0 6.27455e-05)
(0 0 3.40325e-05)
(0 0 -9.80633e-06)
(0 0 -5.53106e-05)
(0 0 -9.04491e-05)
(0 0 -0.000109056)
(0 0 -0.000111261)
(0 0 -0.000101293)
(0 0 -8.47029e-05)
(0 0 -6.63294e-05)
(0 0 -4.94013e-05)
(0 0 -3.55114e-05)
(0 0 -2.50354e-05)
(0 0 -1.76413e-05)
(0 0 -1.27026e-05)
(0 0 -9.5588e-06)
(0 0 -7.64445e-06)
(0 0 -6.52935e-06)
(0 0 -5.91157e-06)
(0 0 -5.59168e-06)
(0 0 -5.44401e-06)
(0 0 -5.39243e-06)
(0 0 -5.39227e-06)
(0 0 -5.41806e-06)
(0 0 -5.45559e-06)
(0 0 -5.49706e-06)
(0 0 -5.53821e-06)
(0 0 -5.57666e-06)
(0 0 -5.61109e-06)
(0 0 -5.64068e-06)
(0 0 -5.66495e-06)
(0 0 -5.68353e-06)
(0 0 -5.69607e-06)
(0 0 -5.70225e-06)
(0 0 -5.70177e-06)
(0 0 -5.69427e-06)
(0 0 -5.6794e-06)
(0 0 -5.65673e-06)
(0 0 -5.62573e-06)
(0 0 -5.58581e-06)
(0 0 -5.53616e-06)
(0 0 -5.47528e-06)
(0 0 -5.39911e-06)
(0 0 -5.29442e-06)
(0 0 -5.11596e-06)
(0 0 -4.71086e-06)
(0 0 -3.57845e-06)
(0 0 -1.33045e-07)
(0 4.63733e-23 1.04718e-05)
(0 0 2.88645e-05)
(0 0 2.77507e-05)
(0 0 3.47374e-05)
(0 0 5.79771e-05)
(0 0 9.13905e-05)
(0 0 0.000114073)
(0 0 0.00010503)
(0 0 5.84317e-05)
(0 0 -1.32681e-05)
(0 0 -8.80184e-05)
(0 0 -0.000146008)
(0 0 -0.000177002)
(0 0 -0.000181099)
(0 0 -0.000165163)
(0 0 -0.000138268)
(0 0 -0.000108351)
(0 0 -8.07259e-05)
(0 0 -5.80267e-05)
(0 0 -4.0889e-05)
(0 0 -2.87836e-05)
(0 0 -2.06927e-05)
(0 0 -1.55394e-05)
(0 0 -1.23997e-05)
(0 0 -1.05699e-05)
(0 0 -9.5557e-06)
(0 0 -9.03032e-06)
(0 0 -8.78778e-06)
(0 0 -8.7032e-06)
(0 0 -8.70329e-06)
(0 0 -8.7462e-06)
(0 0 -8.8086e-06)
(0 0 -8.87768e-06)
(0 0 -8.94641e-06)
(0 0 -9.0109e-06)
(0 0 -9.06895e-06)
(0 0 -9.11928e-06)
(0 0 -9.16106e-06)
(0 0 -9.19368e-06)
(0 0 -9.21658e-06)
(0 0 -9.22921e-06)
(0 0 -9.23106e-06)
(0 0 -9.22159e-06)
(0 0 -9.20019e-06)
(0 0 -9.16614e-06)
(0 0 -9.11862e-06)
(0 0 -9.05665e-06)
(0 0 -8.97895e-06)
(0 0 -8.88313e-06)
(0 0 -8.76284e-06)
(0 0 -8.59758e-06)
(0 0 -8.31729e-06)
(0 0 -7.68482e-06)
(0 0 -5.92044e-06)
(0 0 -5.44069e-07)
(0 2.73722e-22 1.60566e-05)
(0 0 4.04018e-05)
(0 0 3.88528e-05)
(0 0 4.84042e-05)
(0 0 8.04281e-05)
(0 0 0.000126842)
(0 0 0.000159042)
(0 0 0.000147998)
(0 0 8.52996e-05)
(0 0 -1.23296e-05)
(0 0 -0.000114789)
(0 0 -0.000194827)
(0 0 -0.000238189)
(0 0 -0.000244781)
(0 0 -0.000223837)
(0 0 -0.000187702)
(0 0 -0.000147237)
(0 0 -0.000109743)
(0 0 -7.88677e-05)
(0 0 -5.55213e-05)
(0 0 -3.90107e-05)
(0 0 -2.79648e-05)
(0 0 -2.09234e-05)
(0 0 -1.66298e-05)
(0 0 -1.41252e-05)
(0 0 -1.27356e-05)
(0 0 -1.20146e-05)
(0 0 -1.16808e-05)
(0 0 -1.15634e-05)
(0 0 -1.15622e-05)
(0 0 -1.162e-05)
(0 0 -1.17047e-05)
(0 0 -1.17988e-05)
(0 0 -1.18926e-05)
(0 0 -1.19808e-05)
(0 0 -1.20605e-05)
(0 0 -1.21299e-05)
(0 0 -1.21879e-05)
(0 0 -1.22335e-05)
(0 0 -1.22661e-05)
(0 0 -1.22848e-05)
(0 0 -1.22891e-05)
(0 0 -1.22781e-05)
(0 0 -1.2251e-05)
(0 0 -1.22069e-05)
(0 0 -1.21445e-05)
(0 0 -1.20628e-05)
(0 0 -1.19598e-05)
(0 0 -1.18326e-05)
(0 0 -1.1673e-05)
(0 0 -1.14555e-05)
(0 0 -1.1093e-05)
(0 0 -1.02896e-05)
(0 0 -8.06718e-06)
(0 0 -1.2924e-06)
(0 -1.79727e-22 1.97226e-05)
(0 0 5.19287e-05)
(0 0 4.99536e-05)
(0 0 6.18564e-05)
(0 0 0.000102189)
(0 0 0.000161259)
(0 0 0.000203383)
(0 0 0.00019183)
(0 0 0.000115382)
(0 0 -5.62745e-06)
(0 0 -0.000133764)
(0 0 -0.000234779)
(0 0 -0.00029048)
(0 0 -0.000300352)
(0 0 -0.000275661)
(0 0 -0.000231693)
(0 0 -0.000181991)
(0 0 -0.00013572)
(0 0 -9.75044e-05)
(0 0 -6.85475e-05)
(0 0 -4.80364e-05)
(0 0 -3.42962e-05)
(0 0 -2.5527e-05)
(0 0 -2.01739e-05)
(0 0 -1.70475e-05)
(0 0 -1.53102e-05)
(0 0 -1.44066e-05)
(0 0 -1.39863e-05)
(0 0 -1.38364e-05)
(0 0 -1.38319e-05)
(0 0 -1.39015e-05)
(0 0 -1.4005e-05)
(0 0 -1.41206e-05)
(0 0 -1.42363e-05)
(0 0 -1.43453e-05)
(0 0 -1.44441e-05)
(0 0 -1.45303e-05)
(0 0 -1.46026e-05)
(0 0 -1.46599e-05)
(0 0 -1.47012e-05)
(0 0 -1.47257e-05)
(0 0 -1.47325e-05)
(0 0 -1.47206e-05)
(0 0 -1.46891e-05)
(0 0 -1.46366e-05)
(0 0 -1.45619e-05)
(0 0 -1.44634e-05)
(0 0 -1.4339e-05)
(0 0 -1.4185e-05)
(0 0 -1.39927e-05)
(0 0 -1.37339e-05)
(0 0 -1.33144e-05)
(0 0 -1.24138e-05)
(0 0 -9.96603e-06)
(0 0 -2.51624e-06)
(0 8.87265e-23 2.07805e-05)
(0 0 6.3442e-05)
(0 0 6.10505e-05)
(0 0 7.50514e-05)
(0 0 0.000123122)
(0 0 0.000194428)
(0 0 0.000246934)
(0 0 0.000236621)
(0 0 0.000149199)
(0 0 7.83367e-06)
(0 0 -0.000143557)
(0 0 -0.000264267)
(0 0 -0.000332251)
(0 0 -0.000346327)
(0 0 -0.000319377)
(0 0 -0.000269235)
(0 0 -0.000211851)
(0 0 -0.000158098)
(0 0 -0.000113535)
(0 0 -7.96785e-05)
(0 0 -5.5648e-05)
(0 0 -3.95232e-05)
(0 0 -2.92169e-05)
(0 0 -2.29166e-05)
(0 0 -1.92314e-05)
(0 0 -1.71792e-05)
(0 0 -1.61085e-05)
(0 0 -1.56073e-05)
(0 0 -1.54252e-05)
(0 0 -1.5415e-05)
(0 0 -1.54926e-05)
(0 0 -1.56109e-05)
(0 0 -1.57439e-05)
(0 0 -1.58774e-05)
(0 0 -1.60036e-05)
(0 0 -1.61182e-05)
(0 0 -1.62186e-05)
(0 0 -1.63031e-05)
(0 0 -1.63703e-05)
(0 0 -1.64193e-05)
(0 0 -1.6449e-05)
(0 0 -1.64584e-05)
(0 0 -1.64463e-05)
(0 0 -1.64116e-05)
(0 0 -1.63528e-05)
(0 0 -1.62685e-05)
(0 0 -1.61567e-05)
(0 0 -1.60152e-05)
(0 0 -1.584e-05)
(0 0 -1.56222e-05)
(0 0 -1.53344e-05)
(0 0 -1.48858e-05)
(0 0 -1.39711e-05)
(0 0 -1.15739e-05)
(0 0 -4.35016e-06)
(0 4.37786e-22 1.85435e-05)
(0 0 7.49349e-05)
(0 0 7.21389e-05)
(0 0 8.79585e-05)
(0 0 0.00014313)
(0 0 0.000226185)
(0 0 0.000289546)
(0 0 0.00028237)
(0 0 0.000187015)
(0 0 2.86248e-05)
(0 0 -0.000143336)
(0 0 -0.000282303)
(0 0 -0.000362488)
(0 0 -0.000381763)
(0 0 -0.000354178)
(0 0 -0.000299688)
(0 0 -0.00023633)
(0 0 -0.000176524)
(0 0 -0.000126709)
(0 0 -8.87367e-05)
(0 0 -6.1718e-05)
(0 0 -4.35512e-05)
(0 0 -3.1919e-05)
(0 0 -2.47957e-05)
(0 0 -2.0621e-05)
(0 0 -1.82904e-05)
(0 0 -1.70696e-05)
(0 0 -1.64936e-05)
(0 0 -1.62795e-05)
(0 0 -1.62608e-05)
(0 0 -1.63423e-05)
(0 0 -1.64705e-05)
(0 0 -1.6616e-05)
(0 0 -1.67628e-05)
(0 0 -1.69021e-05)
(0 0 -1.70288e-05)
(0 0 -1.71401e-05)
(0 0 -1.7234e-05)
(0 0 -1.73092e-05)
(0 0 -1.73643e-05)
(0 0 -1.73983e-05)
(0 0 -1.74099e-05)
(0 0 -1.7398e-05)
(0 0 -1.73613e-05)
(0 0 -1.7298e-05)
(0 0 -1.72066e-05)
(0 0 -1.7085e-05)
(0 0 -1.69306e-05)
(0 0 -1.67396e-05)
(0 0 -1.65035e-05)
(0 0 -1.6198e-05)
(0 0 -1.57461e-05)
(0 0 -1.48966e-05)
(0 0 -1.28373e-05)
(0 0 -6.91417e-06)
(0 -8.56593e-23 1.21979e-05)
(-1.59325e-23 7.98461e-21 1.97053e-06)
(-1.49065e-22 7.85052e-21 1.42207e-06)
(3.43291e-23 -1.99773e-22 6.47663e-07)
(3.53608e-23 -2.34466e-20 -4.15365e-07)
(-9.38593e-23 8.01393e-21 -1.82888e-06)
(3.70144e-22 7.87197e-21 -3.66038e-06)
(-8.04307e-22 2.2947e-20 -5.9806e-06)
(3.14421e-22 -2.3323e-20 -8.86456e-06)
(6.3448e-22 -7.5027e-21 -1.23902e-05)
(-9.09238e-22 -3.74637e-24 -1.66337e-05)
(-9.10146e-22 -7.52213e-21 -2.16608e-05)
(7.97492e-22 7.14169e-21 -2.75175e-05)
(5.65424e-22 -5.88887e-20 -3.42193e-05)
(-1.03999e-21 1.26465e-19 -4.17419e-05)
(3.53591e-22 -6.80629e-20 -5.00109e-05)
(-1.25162e-21 -5.13252e-20 -5.88859e-05)
(2.37564e-21 -6.53488e-20 -6.81752e-05)
(-1.87166e-21 7.71074e-21 -7.7667e-05)
(-1.93894e-22 -7.19061e-21 -8.71718e-05)
(7.63735e-23 7.19852e-21 -9.6476e-05)
(-3.17438e-24 -1.29837e-22 -0.000105388)
(-7.17841e-23 -6.94717e-21 -0.000113795)
(-2.02426e-21 7.0119e-21 -0.000121688)
(4.24217e-21 1.302e-23 -0.000129172)
(1.24199e-21 6.81373e-21 -0.000136474)
(-3.30473e-21 -5.37168e-24 -0.000143945)
(4.76016e-21 7.9328e-21 -0.000152049)
(-5.53211e-21 1.02884e-19 -0.000161353)
(6.42511e-22 -1.10492e-19 -0.000172512)
(-2.10299e-21 1.01073e-19 -0.000186271)
(2.04745e-21 -1.02228e-19 -0.000203485)
(4.89337e-23 1.35312e-21 -0.000225189)
(-6.3757e-23 -1.6629e-21 -0.000252751)
(2.7436e-21 -9.70486e-20 -0.000288174)
(-8.6884e-21 9.42011e-20 -0.000334663)
(-3.22232e-22 -1.5631e-21 -0.000397666)
(6.27106e-21 1.37154e-23 -0.000486688)
(6.82613e-21 1.49294e-23 -0.000618372)
(-6.80429e-21 -1.48817e-23 -0.000821476)
(-2.25855e-22 -4.93968e-25 -0.00114449)
(-2.35704e-22 -5.15509e-25 -0.00166651)
(-8.12436e-21 -1.77688e-23 -0.00251154)
(7.84199e-21 1.71512e-23 -0.00386491)
(-2.59359e-22 1.54473e-22 -0.00598877)
(-2.76772e-23 7.99879e-21 -0.00923012)
(-2.51571e-20 5.18106e-20 -0.0140122)
(2.42288e-20 -6.82815e-20 -0.0207951)
(-5.69442e-21 -9.75918e-21 -0.0299903)
(6.25961e-21 2.65876e-20 -0.0418225)
(-2.08271e-20 -5.81487e-21 -0.0560507)
(-2.60139e-22 7.99825e-21 5.52828e-06)
(-1.01751e-22 1.57332e-20 3.81911e-06)
(3.12402e-22 7.65322e-21 1.38423e-06)
(-8.85824e-22 -7.86411e-21 -1.95807e-06)
(1.64386e-21 7.49916e-21 -6.3961e-06)
(-5.21135e-22 -5.37471e-20 -1.21196e-05)
(-1.95749e-22 8.53654e-20 -1.93335e-05)
(-5.92676e-23 -8.91123e-21 -2.82601e-05)
(2.1716e-21 -9.83298e-20 -3.91328e-05)
(-2.24427e-21 1.38877e-19 -5.21806e-05)
(-7.94958e-22 1.26889e-19 -6.76052e-05)
(5.81732e-22 -1.14193e-19 -8.55512e-05)
(-3.97163e-22 7.45078e-22 -0.000106074)
(2.8308e-21 -7.27274e-21 -0.000129113)
(-2.19605e-21 2.42217e-20 -0.00015446)
(-5.92134e-21 2.40397e-19 -0.000181717)
(1.53047e-21 -2.2615e-19 -0.000210309)
(-5.52324e-21 2.42383e-19 -0.000239659)
(-2.85651e-22 1.96001e-20 -0.000269212)
(-3.87767e-21 -7.35909e-21 -0.000298381)
(4.09585e-21 1.46512e-22 -0.000326607)
(-4.10373e-21 9.16505e-21 -0.000353569)
(1.21456e-21 2.1089e-19 -0.00037927)
(5.58469e-21 -4.46783e-19 -0.000404053)
(4.31922e-21 -2.13593e-19 -0.000428629)
(-6.64183e-21 4.32341e-19 -0.000454077)
(3.19512e-21 -4.31617e-19 -0.000481818)
(-1.49286e-21 4.42912e-19 -0.000513585)
(3.32128e-21 1.43612e-21 -0.000551383)
(-3.75457e-21 -9.83801e-23 -0.000597493)
(-1.26153e-21 -2.7591e-24 -0.000654544)
(0 0 -0.000725722)
(1.866e-22 9.6853e-23 -0.000815231)
(1.11676e-20 1.24814e-20 -0.000929215)
(-1.53178e-20 3.63867e-19 -0.00107749)
(-1.59362e-20 -2.41602e-20 -0.00127667)
(1.81875e-20 -3.59293e-19 -0.00155573)
(2.62649e-20 -3.11034e-19 -0.00196533)
(-8.84067e-21 3.32332e-19 -0.00259288)
(-3.15946e-20 2.19742e-21 -0.00358566)
(3.09364e-20 1.76122e-20 -0.00518365)
(-4.22114e-20 2.38229e-19 -0.00776244)
(2.25652e-20 -2.47837e-19 -0.0118828)
(-1.83452e-20 1.49303e-20 -0.0183367)
(2.03566e-20 7.89768e-21 -0.0281717)
(-6.08797e-20 1.15887e-19 -0.0426641)
(6.08141e-20 -1.13422e-19 -0.0631978)
(-9.40766e-20 8.49869e-20 -0.0909907)
(9.0781e-20 -9.48796e-20 -0.126646)
(-1.92166e-20 -6.52744e-22 -0.168026)
(-2.10046e-23 4.73727e-20 8.84986e-06)
(-8.13668e-23 1.49725e-20 5.77924e-06)
(3.58442e-22 -6.20486e-20 1.32987e-06)
(-7.53493e-22 1.23474e-19 -4.7875e-06)
(1.67013e-21 -2.64395e-19 -1.28518e-05)
(4.57671e-22 1.25762e-19 -2.31589e-05)
(-2.48428e-21 -8.83827e-22 -3.60344e-05)
(1.57879e-21 -1.71213e-20 -5.18399e-05)
(1.35641e-21 -2.5816e-19 -7.09624e-05)
(8.97895e-22 2.46051e-19 -9.37902e-05)
(-8.71086e-22 -1.65265e-21 -0.000120673)
(-4.27397e-21 -1.58673e-23 -0.000151874)
(6.78422e-21 -1.87831e-21 -0.000187518)
(-4.19816e-21 -2.52055e-19 -0.000227545)
(5.40423e-21 2.29167e-19 -0.000271663)
(-1.12409e-20 4.55389e-19 -0.000319269)
(-4.96058e-21 -1.22501e-20 -0.000369491)
(-4.39603e-21 4.68698e-19 -0.000421433)
(4.04269e-22 -1.42319e-20 -0.000474287)
(-1.20813e-20 4.55518e-19 -0.00052717)
(1.19802e-20 -4.73136e-19 -0.000579243)
(-8.74085e-21 4.52173e-19 -0.000630074)
(1.82853e-21 -4.70373e-19 -0.000679766)
(5.28561e-21 -9.34136e-21 -0.000728989)
(-2.60941e-21 1.3799e-20 -0.000779019)
(5.60285e-21 -8.85277e-21 -0.000831753)
(-1.83821e-20 4.24955e-19 -0.000889669)
(1.64276e-20 -4.53066e-19 -0.000955772)
(1.7876e-20 -4.21356e-19 -0.00103355)
(-1.45449e-20 4.23424e-19 -0.001127)
(-1.10093e-21 -5.25607e-21 -0.0012407)
(1.14019e-20 -1.23405e-22 -0.00138027)
(-1.30836e-20 -2.51363e-20 -0.00155306)
(5.2202e-20 -7.72644e-19 -0.00176977)
(1.69159e-20 5.65038e-20 -0.00204739)
(-6.95038e-20 7.28268e-19 -0.00241453)
(4.03404e-21 -1.2566e-20 -0.00292086)
(-1.1633e-20 -5.02274e-21 -0.00365305)
(1.10177e-19 -6.13824e-19 -0.00476043)
(-2.04858e-19 1.20648e-18 -0.00649415)
(2.09193e-19 -1.20059e-18 -0.00926276)
(7.31098e-20 8.61972e-20 -0.0137045)
(-1.58785e-19 5.26909e-19 -0.0207703)
(-1.67602e-19 3.646e-19 -0.0318017)
(1.58245e-19 -4.32329e-19 -0.0485724)
(-2.28154e-20 1.9971e-20 -0.0732459)
(5.63798e-20 -1.78149e-20 -0.108167)
(1.6957e-19 -1.05494e-19 -0.155357)
(-1.83518e-19 1.6452e-19 -0.215629)
(-2.60266e-20 -4.21142e-20 -0.280724)
(3.95803e-22 -3.12374e-20 1.16553e-05)
(-3.65377e-22 1.58021e-20 6.75398e-06)
(7.06118e-22 -1.75022e-22 -4.60851e-07)
(-6.37181e-22 -1.55482e-20 -1.03236e-05)
(-9.84923e-22 -1.47388e-21 -2.31516e-05)
(3.24384e-21 -2.44078e-19 -3.93038e-05)
(-4.48818e-21 4.62334e-19 -5.92066e-05)
(2.17274e-21 -2.49003e-19 -8.33559e-05)
(-1.84878e-21 1.50193e-20 -0.0001123)
(4.74465e-21 -2.7272e-19 -0.000146602)
(-5.77956e-21 2.48956e-19 -0.000186787)
(-3.80653e-21 4.75182e-19 -0.000233275)
(1.02108e-20 -9.61685e-19 -0.000286307)
(-1.24113e-20 9.60888e-19 -0.000345893)
(1.66841e-20 -9.56608e-19 -0.00041174)
(-1.06215e-20 9.48422e-19 -0.000483144)
(-9.60797e-21 4.8232e-19 -0.000559038)
(-7.15503e-22 -3.84335e-21 -0.000638357)
(4.59761e-21 3.98971e-21 -0.000720176)
(-7.13354e-21 4.45488e-19 -0.000803459)
(-2.66488e-21 -4.67955e-19 -0.000887257)
(1.50822e-20 1.29959e-20 -0.000971188)
(-3.25925e-20 8.99317e-19 -0.00105562)
(2.43001e-20 -9.0249e-19 -0.0011417)
(2.2897e-21 -5.30508e-21 -0.00123145)
(-9.95065e-21 -9.1524e-23 -0.00132775)
(1.50749e-20 -1.36623e-20 -0.00143433)
(-4.91174e-21 1.25951e-22 -0.00155571)
(-5.40546e-21 -6.41096e-23 -0.00169712)
(5.13716e-21 1.99745e-22 -0.00186458)
(-3.75723e-21 1.36648e-21 -0.00206508)
(6.18912e-20 -8.01414e-19 -0.00230709)
(-5.58696e-20 8.24378e-19 -0.00260174)
(-1.63777e-20 1.44506e-22 -0.00296499)
(1.9045e-20 -1.03895e-20 -0.00342188)
(-9.82273e-20 7.38199e-19 -0.00401422)
(1.1525e-19 -7.41611e-19 -0.00481412)
(-2.32848e-20 2.29316e-21 -0.00594693)
(1.64399e-20 -8.92028e-23 -0.00762835)
(3.90892e-20 6.65709e-21 -0.0102207)
(-2.51172e-19 5.56835e-19 -0.0143126)
(3.71297e-19 -1.12987e-18 -0.0208228)
(-1.8131e-19 5.72933e-19 -0.0311194)
(2.66161e-19 -4.39794e-19 -0.0471341)
(-2.57406e-19 5.1836e-19 -0.0714324)
(-6.04428e-19 5.36479e-19 -0.107173)
(1.14273e-18 -1.13781e-18 -0.157827)
(-5.60368e-19 5.75049e-19 -0.226388)
(1.93686e-20 -2.26177e-21 -0.313687)
(4.6844e-21 -3.60281e-20 -0.397499)
(-7.42087e-22 1.58847e-20 1.35068e-05)
(-2.45818e-22 6.07966e-20 5.72831e-06)
(1.90727e-21 -1.84661e-19 -5.71018e-06)
(-1.19261e-21 2.4787e-19 -2.10054e-05)
(-3.39308e-22 -1.09793e-19 -4.04237e-05)
(1.05439e-22 -1.4663e-20 -6.4357e-05)
(-4.73318e-22 1.54746e-20 -9.33311e-05)
(3.09026e-21 -1.90542e-22 -0.000127992)
(-2.95254e-21 -1.51265e-20 -0.000169074)
(-5.32712e-21 3.39878e-20 -0.000217352)
(-6.67058e-21 4.83296e-19 -0.00027357)
(1.83417e-20 -5.02374e-19 -0.000338362)
(-2.27308e-20 4.68827e-19 -0.000412166)
(1.88344e-20 -4.87734e-19 -0.000495154)
(-3.06638e-21 3.46613e-21 -0.000587154)
(1.12001e-20 4.83679e-23 -0.000687508)
(4.26189e-21 3.78713e-21 -0.000795122)
(-4.67309e-21 4.56059e-19 -0.000908956)
(1.98775e-20 -4.93625e-19 -0.00102817)
(6.48112e-21 2.72637e-20 -0.00115182)
(-4.47444e-20 9.41198e-19 -0.00127907)
(2.77959e-20 -9.44075e-19 -0.00140984)
(1.03954e-20 2.28982e-20 -0.00154501)
(-1.83824e-20 -2.37607e-22 -0.0016865)
(1.20284e-20 9.81602e-21 -0.00183733)
(-3.69175e-20 9.06439e-19 -0.00200169)
(3.00742e-20 -8.98101e-19 -0.00218491)
(2.88983e-21 9.80071e-21 -0.00239343)
(9.81515e-21 2.75518e-20 -0.00263473)
(-1.17259e-20 -5.59993e-22 -0.00291746)
(1.15778e-21 -1.31915e-20 -0.00325169)
(-3.79949e-20 1.3403e-20 -0.00364963)
(3.5844e-20 1.27781e-20 -0.0041271)
(-3.24333e-21 -2.57007e-20 -0.00470642)
(8.08904e-20 -7.5114e-19 -0.00542191)
(-7.16487e-20 7.74176e-19 -0.00632992)
(2.68267e-19 -1.49239e-18 -0.00752664)
(-2.45298e-19 1.50691e-18 -0.00917849)
(3.06218e-19 -1.41306e-18 -0.0115712)
(7.36748e-20 1.33363e-19 -0.015185)
(-3.53331e-19 1.34767e-18 -0.0208009)
(-1.23905e-19 -2.27653e-20 -0.0296396)
(1.68575e-20 3.89317e-22 -0.0435239)
(-1.88706e-20 5.69667e-22 -0.0650439)
(5.57044e-20 1.70553e-21 -0.0976878)
(2.68924e-20 1.39596e-20 -0.145876)
(-1.16317e-19 5.28523e-21 -0.214736)
(6.62114e-20 5.13308e-21 -0.309071)
(-1.70043e-22 -3.19223e-22 -0.43025)
(3.70651e-20 6.59555e-22 -0.528969)
(-6.64544e-22 7.65342e-20 1.37048e-05)
(1.64895e-21 -4.66801e-20 7.13251e-07)
(-1.71694e-21 -1.64782e-20 -1.75655e-05)
(4.5804e-21 -2.28736e-19 -4.09276e-05)
(-2.14712e-21 2.30643e-19 -6.95693e-05)
(1.87523e-21 -2.28249e-19 -0.00010396)
(-1.07529e-20 5.03376e-19 -0.00014478)
(1.11711e-20 -7.05144e-19 -0.00019288)
(-7.17419e-21 4.9878e-19 -0.000249234)
(-5.5576e-21 4.86199e-19 -0.000314886)
(-2.20797e-21 3.89769e-21 -0.000390867)
(2.38836e-20 -9.5531e-19 -0.000478108)
(-2.06547e-20 9.94495e-19 -0.000577346)
(4.68989e-21 -4.68044e-19 -0.000689048)
(1.17211e-20 -4.70351e-19 -0.000813322)
(2.21367e-20 -4.62936e-19 -0.000949754)
(-3.1585e-21 6.84954e-21 -0.00109746)
(3.76135e-20 -9.60224e-19 -0.00125566)
(2.85264e-20 -9.22148e-19 -0.00142392)
(6.54329e-21 2.12838e-20 -0.00160167)
(-2.5301e-20 9.58118e-19 -0.00178853)
(-2.04985e-20 -8.23037e-21 -0.00198509)
(1.25145e-20 9.10993e-21 -0.00219314)
(-4.91634e-20 9.28811e-19 -0.00241573)
(3.95056e-20 -9.43759e-19 -0.00265736)
(7.13117e-20 -9.06901e-19 -0.00292404)
(-7.25574e-20 9.37037e-19 -0.00322329)
(1.53461e-20 -2.0381e-20 -0.00356416)
(6.57238e-20 -9.05479e-19 -0.00395723)
(-9.39756e-20 9.28763e-19 -0.00441477)
(4.45534e-21 1.2593e-20 -0.0049511)
(-2.04077e-19 1.70353e-18 -0.00558351)
(1.83763e-19 -1.76772e-18 -0.00633402)
(4.95121e-20 6.32022e-20 -0.00723288)
(-2.64919e-19 1.61566e-18 -0.00832515)
(2.42097e-19 -1.68497e-18 -0.00968292)
(-3.22902e-20 -3.43011e-21 -0.0114271)
(4.73535e-19 -1.52263e-18 -0.0137651)
(-4.42743e-19 1.57285e-18 -0.0170522)
(-6.79867e-20 -7.41628e-20 -0.0218872)
(6.86369e-19 -1.33278e-18 -0.0292485)
(-1.20663e-18 2.75127e-18 -0.0406749)
(-6.92164e-20 -1.57146e-19 -0.0584821)
(-9.27487e-20 -1.22978e-19 -0.0859995)
(7.85216e-19 -1.20219e-18 -0.127811)
(4.05988e-20 6.47356e-20 -0.19002)
(-8.94717e-19 8.01164e-19 -0.280532)
(8.77332e-19 -8.80897e-19 -0.408804)
(9.86027e-21 2.97544e-20 -0.581564)
(9.69868e-21 -2.83097e-21 -0.701113)
(6.0676e-22 -1.59544e-20 1.13076e-05)
(1.581e-21 -1.35975e-19 -1.24504e-05)
(-1.72008e-21 1.22657e-19 -4.1513e-05)
(-1.31522e-21 -1.73058e-20 -7.6118e-05)
(5.19838e-21 -2.27347e-19 -0.000116772)
(-4.77743e-21 2.3393e-19 -0.000164177)
(-5.38976e-21 4.72496e-19 -0.000219243)
(-5.21337e-21 -1.9511e-20 -0.000283058)
(2.27818e-21 -4.56735e-21 -0.000356846)
(1.41273e-20 -5.03978e-19 -0.000441913)
(-1.13868e-20 4.71706e-19 -0.000539568)
(1.67315e-20 -9.98145e-19 -0.000651033)
(-3.46434e-21 4.99081e-19 -0.000777336)
(-3.7467e-21 -1.88301e-20 -0.00091924)
(-4.99079e-21 -2.25713e-20 -0.00107714)
(2.73633e-20 -9.80194e-19 -0.0012509)
(-1.53291e-21 -2.00751e-20 -0.00143987)
(2.60535e-20 -9.98628e-19 -0.00164354)
(-5.54156e-21 -7.66241e-21 -0.00186179)
(-1.71634e-22 1.21682e-22 -0.00209438)
(1.16714e-20 8.59966e-21 -0.00234124)
(-5.1293e-20 9.61976e-19 -0.00260334)
(4.5434e-20 -9.82813e-19 -0.00288293)
(1.30229e-20 8.50243e-21 -0.00318362)
(-8.9244e-21 -1.50747e-20 -0.00351051)
(-6.29094e-21 1.00979e-20 -0.00387021)
(-7.20078e-20 9.30254e-19 -0.00427085)
(1.55137e-19 -1.89857e-18 -0.00472197)
(-7.3283e-20 9.9064e-19 -0.00523438)
(-1.87723e-19 1.8371e-18 -0.00582013)
(-3.08431e-20 -4.51725e-20 -0.00649264)
(2.84654e-21 -2.57426e-20 -0.00726722)
(-6.73005e-20 -5.36121e-20 -0.00816242)
(2.55386e-19 -1.83938e-18 -0.00920299)
(3.97892e-19 -1.70457e-18 -0.010426)
(-3.54185e-19 1.7895e-18 -0.0118928)
(-3.47305e-20 -5.61823e-20 -0.0137121)
(4.73311e-19 -1.6339e-18 -0.0160806)
(-4.16167e-19 1.73119e-18 -0.0193533)
(-6.73297e-19 1.54002e-18 -0.0241558)
(5.70772e-19 -1.62695e-18 -0.0315529)
(8.01848e-20 -1.15257e-20 -0.0432817)
(8.82993e-19 -1.44338e-18 -0.0620447)
(1.26824e-19 1.22764e-19 -0.0918514)
(-1.02387e-18 1.41634e-18 -0.138405)
(-1.6736e-20 -4.07286e-20 -0.209611)
(3.44717e-20 5.40682e-22 -0.31693)
(-3.51468e-20 1.5785e-20 -0.480429)
(-5.29779e-19 5.54643e-19 -0.738645)
(5.21202e-19 -5.63765e-19 -1.01818)
(-1.04654e-20 -3.04099e-21 0.00965925)
(-1.01924e-20 -4.5014e-22 0.00313517)
(9.54913e-21 9.56818e-21 -0.00231374)
(-7.30328e-21 6.99398e-22 -0.00676942)
(7.80332e-21 -9.65245e-21 -0.0103199)
(-3.44882e-23 3.15672e-21 -0.0130604)
(-1.53531e-22 -8.8625e-23 -0.0150902)
(-4.69034e-21 1.02582e-23 -0.0165023)
(4.55589e-21 -9.96418e-24 -0.0173824)
(-1.28209e-22 2.80407e-25 -0.0178093)
(-1.16968e-22 2.5582e-25 -0.0178564)
(3.13354e-21 -6.85337e-24 -0.0175919)
(-3.14361e-21 6.87539e-24 -0.0170774)
(-2.4247e-21 5.30306e-24 -0.0163684)
(3.58683e-22 -4.66435e-22 -0.015514)
(5.08491e-21 3.15162e-20 -0.0145571)
(-2.75595e-21 -2.85399e-20 -0.0135346)
(-2.69336e-23 -4.39902e-22 -0.0124779)
(-7.31983e-24 2.02409e-22 -0.011413)
(-2.64631e-21 -5.03119e-20 -0.0103611)
(2.66266e-21 5.01141e-20 -0.00933934)
(-2.03285e-21 -5.53657e-20 -0.00836102)
(4.80387e-22 3.76101e-21 -0.00743606)
(-3.37527e-22 4.36721e-24 -0.0065707)
(3.5086e-22 4.38025e-21 -0.00576936)
(-7.42618e-23 2.80381e-24 -0.00503428)
(-2.41166e-23 5.27455e-26 -0.0043664)
(-2.59129e-24 1.27361e-24 -0.00376501)
(2.02036e-22 5.26704e-21 -0.00322806)
(2.77165e-24 -3.32426e-24 -0.00275257)
(-1.7702e-22 -5.63651e-21 -0.0023349)
(1.68691e-22 5.80725e-21 -0.0019709)
(-2.20508e-22 -5.94564e-21 -0.00165611)
(7.96189e-22 5.54343e-20 -0.00138589)
(-7.1025e-22 -5.57341e-20 -0.00115556)
(-3.08004e-22 -4.49832e-20 -0.000960552)
(7.19629e-22 9.73837e-20 -0.000796456)
(-3.9846e-22 -5.25047e-20 -0.000659129)
(-6.30732e-23 -6.69982e-21 -0.000544741)
(5.88771e-23 6.82019e-21 -0.00044981)
(-2.15087e-23 -2.56417e-25 -0.00037122)
(1.02574e-22 6.99104e-21 -0.000306232)
(-1.92406e-22 -3.55058e-20 -0.00025247)
(1.80674e-22 3.56545e-20 -0.000207904)
(-4.81666e-23 -7.23383e-21 -0.000170822)
(1.06085e-22 2.1943e-20 -0.000139797)
(4.07988e-24 -7.31463e-21 -0.000113649)
(-6.80141e-23 -1.48728e-20 -9.13944e-05)
(2.01372e-23 7.46416e-21 -7.2198e-05)
(-4.19643e-23 -7.54444e-21 -5.53541e-05)
(-1.51931e-20 2.46556e-20 0.027818)
(2.80037e-20 -1.00034e-20 0.00836443)
(-2.22001e-20 -2.11297e-20 -0.00793678)
(3.24233e-21 1.79801e-20 -0.0211567)
(-3.75479e-21 -1.72788e-20 -0.0316038)
(-1.14461e-20 5.92838e-21 -0.0396061)
(9.86332e-21 5.18448e-21 -0.0454818)
(-4.77044e-21 -1.2418e-20 -0.04952)
(1.49214e-20 2.02246e-21 -0.0519841)
(-1.85425e-20 4.26033e-21 -0.0531144)
(1.52739e-20 -4.94113e-21 -0.0531331)
(1.87461e-20 6.28958e-20 -0.0522436)
(-2.74454e-20 -5.36679e-20 -0.0506293)
(-2.90422e-20 -9.77439e-20 -0.0484543)
(4.38097e-21 -2.30368e-20 -0.0458635)
(2.92188e-20 1.12864e-19 -0.0429828)
(-3.98366e-21 1.73008e-22 -0.0399203)
(-1.18151e-21 -5.1762e-21 -0.0367673)
(5.27978e-24 -4.7045e-23 -0.0335992)
(1.88709e-22 -4.12725e-25 -0.0304775)
(5.00441e-22 6.17796e-24 -0.0274512)
(-8.35218e-22 -3.93968e-21 -0.0245583)
(2.45935e-20 2.47208e-19 -0.021827)
(-2.71446e-20 -2.67408e-19 -0.0192756)
(2.36228e-20 2.85827e-19 -0.0169151)
(-1.26558e-20 -1.38212e-19 -0.0147524)
(-2.18468e-20 -3.12652e-19 -0.0127892)
(1.06242e-20 1.59902e-19 -0.0110229)
(-2.18904e-22 -5.2907e-21 -0.00944695)
(-6.58898e-22 -1.10323e-20 -0.00805235)
(8.56615e-23 5.65218e-21 -0.00682805)
(-8.05725e-22 -1.74649e-20 -0.00576163)
(6.29592e-21 1.87639e-19 -0.00483979)
(-1.30696e-20 -3.98618e-19 -0.00404876)
(5.80528e-21 1.92513e-19 -0.00337476)
(-6.61787e-22 -1.92832e-20 -0.00280427)
(2.00351e-22 6.51597e-21 -0.00232434)
(-1.56556e-23 -3.38473e-23 -0.0019228)
(-2.38499e-21 -1.15065e-19 -0.0015884)
(2.02804e-21 1.01772e-19 -0.00131092)
(1.44057e-21 9.73256e-20 -0.00108124)
(-2.11068e-21 -1.32469e-19 -0.000891334)
(5.6594e-23 7.11249e-21 -0.00073425)
(4.10137e-22 3.59851e-20 -0.000604045)
(-8.96995e-22 -6.48218e-20 -0.000495716)
(-2.43916e-23 -7.28563e-21 -0.000405089)
(-5.43439e-22 -5.15886e-20 -0.000328708)
(-1.13565e-22 -7.59737e-21 -0.000263686)
(1.38847e-22 1.48208e-20 -0.000207532)
(1.62318e-22 2.25392e-20 -0.000158022)
(-1.45761e-20 -8.91616e-22 0.0423301)
(-9.82257e-21 -1.35509e-20 0.0102003)
(3.17436e-20 2.72187e-20 -0.0167598)
(-4.29926e-20 -1.24021e-20 -0.038238)
(1.76207e-20 1.08802e-20 -0.054921)
(-8.15895e-21 -1.33626e-20 -0.0674941)
(1.69199e-20 -2.0195e-20 -0.0765562)
(6.24211e-20 4.84553e-20 -0.0826181)
(-1.89514e-20 5.2636e-20 -0.0861384)
(-1.1909e-19 -1.60745e-19 -0.0875295)
(1.56859e-19 1.90969e-19 -0.0871626)
(-8.65295e-20 -9.54883e-20 -0.0853717)
(3.32867e-21 -1.06422e-20 -0.0824557)
(-2.31641e-21 -4.92158e-21 -0.0786799)
(1.07913e-19 2.5604e-19 -0.0742766)
(-4.31658e-21 4.09075e-20 -0.0694467)
(-1.00484e-19 -2.84421e-19 -0.0643609)
(7.05691e-21 6.80191e-21 -0.0591625)
(-3.05803e-21 1.14333e-22 -0.0539691)
(9.0993e-23 -7.23957e-22 -0.0488756)
(4.73829e-20 2.3559e-19 -0.0439565)
(-4.60094e-20 -2.2628e-19 -0.0392701)
(-4.28166e-20 -2.61274e-19 -0.0348574)
(4.53701e-20 2.76654e-19 -0.0307469)
(1.3229e-21 9.66715e-21 -0.0269524)
(-1.32334e-21 -9.68603e-21 -0.0234817)
(1.20798e-21 1.00859e-20 -0.0203368)
(-3.14469e-20 -3.28635e-19 -0.0175116)
(3.29226e-20 3.39536e-19 -0.0149944)
(-2.66792e-20 -3.39926e-19 -0.0127698)
(2.85423e-20 3.62889e-19 -0.0108191)
(6.31894e-22 1.18161e-20 -0.00912174)
(2.25377e-20 3.91482e-19 -0.0076559)
(-4.29652e-20 -7.80286e-19 -0.00639918)
(2.13373e-20 4.13853e-19 -0.00532926)
(9.62229e-21 2.20556e-19 -0.00442435)
(-8.50584e-21 -1.9508e-19 -0.00366361)
(2.05082e-22 6.04121e-23 -0.00302755)
(-3.10448e-22 -4.57826e-23 -0.00249815)
(-2.04173e-23 4.68599e-23 -0.00205911)
(5.84984e-21 2.22927e-19 -0.00169589)
(-5.68236e-21 -2.09328e-19 -0.0013957)
(4.26006e-22 1.42364e-20 -0.00114748)
(-1.81698e-22 -1.38306e-23 -0.000941803)
(2.08567e-21 1.15925e-19 -0.00077072)
(-3.8859e-21 -2.18481e-19 -0.000627621)
(1.91996e-21 1.17087e-19 -0.000507018)
(-9.63599e-22 -5.9374e-20 -0.000404301)
(7.22238e-22 4.44615e-20 -0.000315374)
(1.73474e-22 1.49053e-20 -0.000236202)
(1.73518e-21 2.69817e-20 0.0495012)
(8.80745e-21 -5.41755e-20 0.00536819)
(-4.20671e-20 3.58682e-20 -0.0316213)
(3.74651e-20 2.1389e-20 -0.0602629)
(2.04608e-20 -6.84298e-20 -0.0819258)
(2.99708e-20 6.5325e-20 -0.0978139)
(-4.68096e-20 -2.65099e-20 -0.108891)
(5.78227e-20 7.78208e-20 -0.115951)
(-1.59043e-19 -1.64435e-19 -0.119664)
(1.31438e-19 7.3729e-20 -0.12061)
(-1.96004e-20 1.26256e-20 -0.1193)
(-1.03107e-20 7.44117e-22 -0.116186)
(1.44867e-20 8.78395e-21 -0.111669)
(-1.52036e-19 -2.64895e-19 -0.106098)
(1.37869e-19 2.45229e-19 -0.0997794)
(-2.34657e-21 1.55969e-20 -0.0929731)
(2.81072e-21 -8.12644e-21 -0.0858991)
(1.41635e-19 4.01844e-19 -0.0787398)
(-1.42991e-19 -3.95312e-19 -0.0716435)
(-1.58798e-21 -1.04029e-20 -0.0647282)
(-6.91549e-22 -3.77095e-23 -0.058086)
(1.1556e-21 3.83175e-22 -0.051786)
(3.81219e-22 -1.32225e-23 -0.0458793)
(7.68063e-22 9.23831e-21 -0.040396)
(1.35631e-21 2.98574e-22 -0.0353514)
(1.41777e-21 9.98708e-21 -0.0307504)
(-9.89432e-20 -6.84402e-19 -0.0265904)
(9.80534e-20 6.74364e-19 -0.022862)
(-7.34687e-23 1.14416e-22 -0.0195473)
(-3.93681e-20 -3.70346e-19 -0.0166234)
(4.11393e-20 3.82625e-19 -0.0140641)
(6.73973e-23 -5.26275e-23 -0.0118408)
(-1.87885e-22 -2.37713e-22 -0.00992374)
(-3.02287e-20 -4.18218e-19 -0.00828251)
(5.71366e-20 8.32139e-19 -0.0068871)
(-5.15503e-20 -8.33583e-19 -0.00570837)
(4.77812e-20 8.46841e-19 -0.00471865)
(-4.38755e-20 -8.59099e-19 -0.00389205)
(2.08858e-20 4.32732e-19 -0.0032048)
(8.8419e-21 2.21302e-19 -0.00263543)
(-7.79302e-21 -1.93749e-19 -0.00216482)
(-6.05235e-22 -1.40813e-20 -0.00177621)
(-6.88679e-21 -2.27949e-19 -0.00145513)
(1.434e-20 4.86782e-19 -0.00118927)
(-6.57854e-21 -2.30179e-19 -0.000968256)
(8.25111e-23 6.05829e-23 -0.000783491)
(2.84571e-22 1.46324e-20 -0.000627825)
(-7.9044e-23 -2.66254e-23 -0.000495192)
(-2.50031e-22 -1.4817e-20 -0.00037998)
(5.43266e-22 2.98275e-20 -0.000275926)
(2.75148e-20 9.25288e-23 0.0447212)
(2.31705e-22 2.99974e-22 -0.0107221)
(-6.15145e-20 2.03772e-22 -0.0562984)
(8.93045e-20 -7.05697e-22 -0.0900471)
(-2.7386e-20 -1.06577e-21 -0.114537)
(-4.11732e-20 -9.78527e-22 -0.131736)
(1.47842e-20 9.75971e-22 -0.143108)
(-1.02511e-20 -1.55076e-21 -0.149735)
(7.90051e-20 -2.24004e-20 -0.152478)
(2.23845e-19 3.47736e-19 -0.152062)
(9.99841e-21 9.55015e-20 -0.149108)
(-2.67753e-19 -4.31777e-19 -0.144161)
(3.15986e-19 5.38377e-19 -0.137693)
(-3.30652e-19 -5.33198e-19 -0.130116)
(1.64374e-19 3.3373e-19 -0.121782)