/*--------------------------------*- C++ -*----------------------------------*\
| =========                 |                                                 |
| \\      /  F ield         | OpenFOAM: The Open Source CFD Toolbox           |
|  \\    /   O peration     | Version:  2412                                  |
|   \\  /    A nd           | Website:  www.openfoam.com                      |
|    \\/     M anipulation  |                                                 |
\*---------------------------------------------------------------------------*/
FoamFile
{
    version     2.0;
    format      ascii;
    arch        "LSB;label=32;scalar=64";
    class       volVectorField;
    location    "19.5";
    object      vorticity;
}
// * * * * * * * * * * * * * * * * * * * * * * * * * * * * * * * * * * * * * //

dimensions      [0 0 -1 0 0 0 0];

internalField   nonuniform List<vector> 
5285
(
(0 -0 2.38289e-05)
(0 -0 2.45526e-05)
(0 -0 2.39044e-05)
(0 -0 2.28644e-05)
(0 -0 2.75409e-05)
(0 -0 2.77185e-05)
(0 -0 2.68347e-05)
(0 -0 2.53659e-05)
(0 -0 2.34346e-05)
(0 -0 1.9926e-05)
(0 -0 1.59559e-05)
(0 -0 1.2839e-05)
(0 -0 1.01012e-05)
(0 -0 7.71537e-06)
(0 -0 5.67863e-06)
(0 -0 3.99292e-06)
(0 -0 2.64936e-06)
(0 -0 1.62441e-06)
(0 -0 8.81446e-07)
(0 -0 3.76564e-07)
(0 -0 6.39588e-08)
(0 -0 -9.66751e-08)
(0 -0 -1.36444e-07)
(0 -0 -7.25525e-08)
(0 -0 9.09266e-08)
(0 -0 3.59666e-07)
(0 -0 7.4257e-07)
(0 -0 1.23999e-06)
(0 -0 1.83299e-06)
(0 -0 2.47436e-06)
(0 -0 3.08445e-06)
(0 -0 3.55708e-06)
(0 -0 3.77568e-06)
(0 -0 3.63732e-06)
(0 -0 3.07958e-06)
(0 -0 2.10228e-06)
(0 -0 7.76349e-07)
(0 -0 -7.64351e-07)
(0 -0 -2.34737e-06)
(0 -0 -3.79531e-06)
(0 -0 -4.95966e-06)
(0 -0 -5.74522e-06)
(0 -0 -6.11986e-06)
(0 -0 -6.1093e-06)
(0 -0 -5.78114e-06)
(0 -0 -5.22055e-06)
(0 -0 -4.56094e-06)
(0 -0 -3.63507e-06)
(0 -0 3.15771e-05)
(0 -0 3.10928e-05)
(0 -0 2.96051e-05)
(0 -0 2.75702e-05)
(0 -0 2.51776e-05)
(0 -0 2.19833e-05)
(0 -0 1.82662e-05)
(0 -0 1.48256e-05)
(0 -0 1.17742e-05)
(0 -0 9.12993e-06)
(0 -0 6.89338e-06)
(0 -0 5.05573e-06)
(0 -0 3.59566e-06)
(0 -0 2.47957e-06)
(0 -0 1.66363e-06)
(0 -0 1.09847e-06)
(0 -0 7.34649e-07)
(0 -0 5.27612e-07)
(0 -0 4.43837e-07)
(0 -0 4.62443e-07)
(0 -0 5.76637e-07)
(0 -0 7.90028e-07)
(0 -0 1.10927e-06)
(0 -0 1.53512e-06)
(0 -0 2.05076e-06)
(0 -0 2.61272e-06)
(0 -0 3.14753e-06)
(0 -0 3.55635e-06)
(0 -0 3.72952e-06)
(0 -0 3.56961e-06)
(0 -0 3.01711e-06)
(0 -0 2.07116e-06)
(0 -0 7.98607e-07)
(0 -0 -6.73483e-07)
(0 -0 -2.18073e-06)
(0 -0 -3.55362e-06)
(0 -0 -4.64996e-06)
(0 -0 -5.37865e-06)
(0 -0 -5.70918e-06)
(0 -0 -5.66687e-06)
(0 -0 -5.3175e-06)
(0 -0 -4.7438e-06)
(0 -0 -4.0757e-06)
(0 -0 -3.13771e-06)
(0 -0 3.60683e-05)
(0 -0 3.48257e-05)
(0 -0 3.24771e-05)
(0 -0 2.97339e-05)
(0 -0 2.68265e-05)
(0 -0 2.34807e-05)
(0 -0 1.99272e-05)
(0 -0 1.64815e-05)
(0 -0 1.33217e-05)
(0 -0 1.05375e-05)
(0 -0 8.16548e-06)
(0 -0 6.20891e-06)
(0 -0 4.64854e-06)
(0 -0 3.44814e-06)
(0 -0 2.5608e-06)
(0 -0 1.93384e-06)
(0 -0 1.51478e-06)
(0 -0 1.25679e-06)
(0 -0 1.12349e-06)
(0 -0 1.09168e-06)
(0 -0 1.15197e-06)
(0 -0 1.30574e-06)
(0 -0 1.55852e-06)
(0 -0 1.91096e-06)
(0 -0 2.34815e-06)
(0 -0 2.83065e-06)
(0 -0 3.29068e-06)
(0 -0 3.6362e-06)
(0 -0 3.7644e-06)
(0 -0 3.5833e-06)
(0 -0 3.03614e-06)
(0 -0 2.12159e-06)
(0 -0 9.02638e-07)
(0 -0 -5.00136e-07)
(0 -0 -1.93017e-06)
(0 -0 -3.2257e-06)
(0 -0 -4.2509e-06)
(0 -0 -4.91883e-06)
(0 -0 -5.20086e-06)
(0 -0 -5.12207e-06)
(0 -0 -4.74672e-06)
(0 -0 -4.15526e-06)
(0 -0 -3.47732e-06)
(0 -0 -2.53952e-06)
(0 -0 4.1031e-05)
(0 -0 3.90196e-05)
(0 -0 3.5919e-05)
(0 -0 3.23538e-05)
(0 -0 2.88172e-05)
(0 -0 2.52105e-05)
(0 -0 2.15423e-05)
(0 -0 1.80019e-05)
(0 -0 1.47369e-05)
(0 -0 1.18416e-05)
(0 -0 9.36248e-06)
(0 -0 7.30917e-06)
(0 -0 5.66409e-06)
(0 -0 4.39049e-06)
(0 -0 3.43949e-06)
(0 -0 2.75608e-06)
(0 -0 2.28571e-06)
(0 -0 1.97945e-06)
(0 -0 1.79873e-06)
(0 -0 1.7183e-06)
(0 -0 1.72658e-06)
(0 -0 1.82305e-06)
(0 -0 2.01214e-06)
(0 -0 2.29455e-06)
(0 -0 2.65721e-06)
(0 -0 3.06447e-06)
(0 -0 3.45405e-06)
(0 -0 3.74055e-06)
(0 -0 3.82786e-06)
(0 -0 3.62937e-06)
(0 -0 3.09124e-06)
(0 -0 2.21185e-06)
(0 -0 1.05059e-06)
(0 -0 -2.78151e-07)
(0 -0 -1.62545e-06)
(0 -0 -2.83718e-06)
(0 -0 -3.78391e-06)
(0 -0 -4.38306e-06)
(0 -0 -4.60809e-06)
(0 -0 -4.48422e-06)
(0 -0 -4.07447e-06)
(0 -0 -3.45725e-06)
(0 -0 -2.76195e-06)
(0 -0 -1.7839e-06)
(0 -0 4.64821e-05)
(0 -0 4.36575e-05)
(0 -0 3.98097e-05)
(0 -0 3.55295e-05)
(0 -0 3.13668e-05)
(0 -0 2.73061e-05)
(0 -0 2.33271e-05)
(0 -0 1.95641e-05)
(0 -0 1.61275e-05)
(0 -0 1.30927e-05)
(0 -0 1.04974e-05)
(0 -0 8.34708e-06)
(0 -0 6.62062e-06)
(0 -0 5.27834e-06)
(0 -0 4.26822e-06)
(0 -0 3.53272e-06)
(0 -0 3.01493e-06)
(0 -0 2.66377e-06)
(0 -0 2.43875e-06)
(0 -0 2.31265e-06)
(0 -0 2.27196e-06)
(0 -0 2.31443e-06)
(0 -0 2.44353e-06)
(0 -0 2.66011e-06)
(0 -0 2.95281e-06)
(0 -0 3.28964e-06)
(0 -0 3.61369e-06)
(0 -0 3.84602e-06)
(0 -0 3.89709e-06)
(0 -0 3.68572e-06)
(0 -0 3.16116e-06)
(0 -0 2.32177e-06)
(0 -0 1.2237e-06)
(0 -0 -2.45657e-08)
(0 -0 -1.28151e-06)
(0 -0 -2.40058e-06)
(0 -0 -3.25886e-06)
(0 -0 -3.77837e-06)
(0 -0 -3.93507e-06)
(0 -0 -3.75471e-06)
(0 -0 -3.29943e-06)
(0 -0 -2.64593e-06)
(0 -0 -1.9232e-06)
(0 -0 -9.08545e-07)
(0 -0 5.23998e-05)
(0 -0 4.86986e-05)
(0 -0 4.40649e-05)
(0 -0 3.90702e-05)
(0 -0 3.42689e-05)
(0 -0 2.96801e-05)
(0 -0 2.52903e-05)
(0 -0 2.12143e-05)
(0 -0 1.75396e-05)
(0 -0 1.43222e-05)
(0 -0 1.15856e-05)
(0 -0 9.32491e-06)
(0 -0 7.51138e-06)
(0 -0 6.0991e-06)
(0 -0 5.03116e-06)
(0 -0 4.24628e-06)
(0 -0 3.68438e-06)
(0 -0 3.29194e-06)
(0 -0 3.02635e-06)
(0 -0 2.85838e-06)
(0 -0 2.77261e-06)
(0 -0 2.76528e-06)
(0 -0 2.83891e-06)
(0 -0 2.9945e-06)
(0 -0 3.22241e-06)
(0 -0 3.49417e-06)
(0 -0 3.75807e-06)
(0 -0 3.94149e-06)
(0 -0 3.96145e-06)
(0 -0 3.74227e-06)
(0 -0 3.23649e-06)
(0 -0 2.44279e-06)
(0 -0 1.41445e-06)
(0 -0 2.54411e-07)
(0 -0 -9.02981e-07)
(0 -0 -1.9187e-06)
(0 -0 -2.67648e-06)
(0 -0 -3.10332e-06)
(0 -0 -3.17806e-06)
(0 -0 -2.92748e-06)
(0 -0 -2.41334e-06)
(0 -0 -1.71097e-06)
(0 -0 -9.48858e-07)
(0 -0 1.06476e-07)
(0 -0 5.87238e-05)
(0 -0 5.40765e-05)
(0 -0 4.86023e-05)
(0 -0 4.28584e-05)
(0 -0 3.73898e-05)
(0 -0 3.2231e-05)
(0 -0 2.73757e-05)
(0 -0 2.29304e-05)
(0 -0 1.89684e-05)
(0 -0 1.55302e-05)
(0 -0 1.26256e-05)
(0 -0 1.02372e-05)
(0 -0 8.32629e-06)
(0 -0 6.83875e-06)
(0 -0 5.71129e-06)
(0 -0 4.87752e-06)
(0 -0 4.27343e-06)
(0 -0 3.84256e-06)
(0 -0 3.5398e-06)
(0 -0 3.33372e-06)
(0 -0 3.20706e-06)
(0 -0 3.15447e-06)
(0 -0 3.17756e-06)
(0 -0 3.27748e-06)
(0 -0 3.44625e-06)
(0 -0 3.65879e-06)
(0 -0 3.86842e-06)
(0 -0 4.00878e-06)
(0 -0 4.00337e-06)
(0 -0 3.7821e-06)
(0 -0 3.3011e-06)
(0 -0 2.55971e-06)
(0 -0 1.60881e-06)
(0 -0 5.46184e-07)
(0 -0 -5.00763e-07)
(0 -0 -1.40048e-06)
(0 -0 -2.04355e-06)
(0 -0 -2.36229e-06)
(0 -0 -2.33897e-06)
(0 -0 -2.00199e-06)
(0 -0 -1.41319e-06)
(0 -0 -6.4704e-07)
(0 -0 1.6846e-07)
(0 -0 1.27359e-06)
(0 -0 6.53476e-05)
(0 -0 5.96902e-05)
(0 -0 5.33208e-05)
(0 -0 4.6786e-05)
(0 -0 4.06178e-05)
(0 -0 3.4858e-05)
(0 -0 2.95043e-05)
(0 -0 2.46558e-05)
(0 -0 2.03748e-05)
(0 -0 1.66892e-05)
(0 -0 1.35954e-05)
(0 -0 1.10639e-05)
(0 -0 9.04527e-06)
(0 -0 7.47611e-06)
(0 -0 6.28583e-06)
(0 -0 5.40209e-06)
(0 -0 4.75645e-06)
(0 -0 4.28897e-06)
(0 -0 3.95169e-06)
(0 -0 3.71088e-06)
(0 -0 3.5473e-06)
(0 -0 3.45401e-06)
(0 -0 3.43166e-06)
(0 -0 3.48152e-06)
(0 -0 3.59718e-06)
(0 -0 3.75679e-06)
(0 -0 3.91858e-06)
(0 -0 4.02229e-06)
(0 -0 3.9979e-06)
(0 -0 3.78105e-06)
(0 -0 3.3317e-06)
(0 -0 2.65031e-06)
(0 -0 1.78581e-06)
(0 -0 8.31258e-07)
(0 -0 -9.25926e-08)
(0 -0 -8.6163e-07)
(0 -0 -1.37348e-06)
(0 -0 -1.56624e-06)
(0 -0 -1.4262e-06)
(0 -0 -9.83994e-07)
(0 -0 -3.02207e-07)
(0 -0 5.45095e-07)
(0 -0 1.43022e-06)
(0 -0 2.59793e-06)
(0 -0 7.21189e-05)
(0 -0 6.54008e-05)
(0 -0 5.80932e-05)
(0 -0 5.07332e-05)
(0 -0 4.38396e-05)
(0 -0 3.74578e-05)
(0 -0 3.15865e-05)
(0 -0 2.63166e-05)
(0 -0 2.16997e-05)
(0 -0 1.77513e-05)
(0 -0 1.44556e-05)
(0 -0 1.1771e-05)
(0 -0 9.63703e-06)
(0 -0 7.98115e-06)
(0 -0 6.72491e-06)
(0 -0 5.78979e-06)
(0 -0 5.10262e-06)
(0 -0 4.59964e-06)
(0 -0 4.22991e-06)
(0 -0 3.9573e-06)
(0 -0 3.7605e-06)
(0 -0 3.63093e-06)
(0 -0 3.56827e-06)
(0 -0 3.57388e-06)
(0 -0 3.64277e-06)
(0 -0 3.75618e-06)
(0 -0 3.87707e-06)
(0 -0 3.95117e-06)
(0 -0 3.91489e-06)
(0 -0 3.70974e-06)
(0 -0 3.29981e-06)
(0 -0 2.68717e-06)
(0 -0 1.91929e-06)
(0 -0 1.08497e-06)
(0 -0 2.98614e-07)
(0 -0 -3.23057e-07)
(0 -0 -6.84948e-07)
(0 -0 -7.31419e-07)
(0 -0 -4.53453e-07)
(0 -0 1.15362e-07)
(0 -0 9.11022e-07)
(0 -0 1.85926e-06)
(0 -0 2.83244e-06)
(0 -0 4.07842e-06)
(0 -0 7.88455e-05)
(0 -0 7.10377e-05)
(0 -0 6.27675e-05)
(0 -0 5.4564e-05)
(0 -0 4.69326e-05)
(0 -0 3.99209e-05)
(0 -0 3.35264e-05)
(0 -0 2.78303e-05)
(0 -0 2.28729e-05)
(0 -0 1.86575e-05)
(0 -0 1.51557e-05)
(0 -0 1.23143e-05)
(0 -0 1.0062e-05)
(0 -0 8.31704e-06)
(0 -0 6.9933e-06)
(0 -0 6.00617e-06)
(0 -0 5.27763e-06)
(0 -0 4.74014e-06)
(0 -0 4.33981e-06)
(0 -0 4.03807e-06)
(0 -0 3.81154e-06)
(0 -0 3.65001e-06)
(0 -0 3.55222e-06)
(0 -0 3.51952e-06)
(0 -0 3.54824e-06)
(0 -0 3.62255e-06)
(0 -0 3.70997e-06)
(0 -0 3.76208e-06)
(0 -0 3.72169e-06)
(0 -0 3.5363e-06)
(0 -0 3.17449e-06)
(0 -0 2.64036e-06)
(0 -0 1.9805e-06)
(0 -0 1.27996e-06)
(0 -0 6.47108e-07)
(0 -0 1.91331e-07)
(0 -0 1.78282e-10)
(0 -0 1.225e-07)
(0 -0 5.61903e-07)
(0 -0 1.28105e-06)
(0 -0 2.21377e-06)
(0 -0 3.28495e-06)
(0 -0 4.36665e-06)
(0 -0 5.70883e-06)
(0 -0 8.53073e-05)
(0 -0 7.64074e-05)
(0 -0 6.71749e-05)
(0 -0 5.81311e-05)
(0 -0 4.97683e-05)
(0 -0 4.21349e-05)
(0 -0 3.52259e-05)
(0 -0 2.9112e-05)
(0 -0 2.38214e-05)
(0 -0 1.93449e-05)
(0 -0 1.56415e-05)
(0 -0 1.26461e-05)
(0 -0 1.02775e-05)
(0 -0 8.44472e-06)
(0 -0 7.05436e-06)
(0 -0 6.01603e-06)
(0 -0 5.24708e-06)
(0 -0 4.67644e-06)
(0 -0 4.24745e-06)
(0 -0 3.9192e-06)
(0 -0 3.66634e-06)
(0 -0 3.47712e-06)
(0 -0 3.34937e-06)
(0 -0 3.2844e-06)
(0 -0 3.27975e-06)
(0 -0 3.32238e-06)
(0 -0 3.3842e-06)
(0 -0 3.42245e-06)
(0 -0 3.38634e-06)
(0 -0 3.22948e-06)
(0 -0 2.92525e-06)
(0 -0 2.4803e-06)
(0 -0 1.9409e-06)
(0 -0 1.38887e-06)
(0 -0 9.26866e-07)
(0 -0 6.57021e-07)
(0 -0 6.59058e-07)
(0 -0 9.74479e-07)
(0 -0 1.60071e-06)
(0 -0 2.49583e-06)
(0 -0 3.59065e-06)
(0 -0 4.80859e-06)
(0 -0 6.02095e-06)
(0 -0 7.47902e-06)
(0 -0 9.12698e-05)
(0 -0 8.13061e-05)
(0 -0 7.11395e-05)
(0 -0 6.12836e-05)
(0 -0 5.22175e-05)
(0 -0 4.39894e-05)
(0 -0 3.65908e-05)
(0 -0 3.00812e-05)
(0 -0 2.44765e-05)
(0 -0 1.97544e-05)
(0 -0 1.58617e-05)
(0 -0 1.2722e-05)
(0 -0 1.0244e-05)
(0 -0 8.32838e-06)
(0 -0 6.87496e-06)
(0 -0 5.78802e-06)
(0 -0 4.98075e-06)
(0 -0 4.379e-06)
(0 -0 3.92359e-06)
(0 -0 3.57152e-06)
(0 -0 3.2957e-06)
(0 -0 3.08303e-06)
(0 -0 2.93045e-06)
(0 -0 2.83924e-06)
(0 -0 2.80811e-06)
(0 -0 2.82666e-06)
(0 -0 2.87101e-06)
(0 -0 2.90392e-06)
(0 -0 2.88095e-06)
(0 -0 2.76193e-06)
(0 -0 2.52538e-06)
(0 -0 2.18096e-06)
(0 -0 1.77522e-06)
(0 -0 1.38727e-06)
(0 -0 1.11443e-06)
(0 -0 1.05159e-06)
(0 -0 1.27041e-06)
(0 -0 1.80445e-06)
(0 -0 2.64416e-06)
(0 -0 3.74214e-06)
(0 -0 5.0254e-06)
(0 -0 6.4151e-06)
(0 -0 7.78134e-06)
(0 -0 9.37614e-06)
(0 -0 9.64983e-05)
(0 -0 8.55321e-05)
(0 -0 7.44897e-05)
(0 -0 6.38766e-05)
(0 -0 5.41587e-05)
(0 -0 4.53829e-05)
(0 -0 3.75365e-05)
(0 -0 3.06675e-05)
(0 -0 2.47792e-05)
(0 -0 1.98368e-05)
(0 -0 1.57749e-05)
(0 -0 1.25065e-05)
(0 -0 9.93074e-06)
(0 -0 7.94086e-06)
(0 -0 6.43058e-06)
(0 -0 5.29944e-06)
(0 -0 4.4572e-06)
(0 -0 3.8271e-06)
(0 -0 3.34787e-06)
(0 -0 2.97481e-06)
(0 -0 2.6794e-06)
(0 -0 2.44737e-06)
(0 -0 2.27494e-06)
(0 -0 2.16339e-06)
(0 -0 2.1126e-06)
(0 -0 2.11468e-06)
(0 -0 2.14977e-06)
(0 -0 2.18605e-06)
(0 -0 2.18531e-06)
(0 -0 2.11379e-06)
(0 -0 1.95539e-06)
(0 -0 1.72328e-06)
(0 -0 1.46482e-06)
(0 -0 1.25694e-06)
(0 -0 1.19198e-06)
(0 -0 1.35766e-06)
(0 -0 1.81728e-06)
(0 -0 2.59587e-06)
(0 -0 3.67615e-06)
(0 -0 5.00435e-06)
(0 -0 6.50278e-06)
(0 -0 8.08968e-06)
(0 -0 9.63343e-06)
(0 -0 1.13862e-05)
(0 -0 0.000100773)
(0 -0 8.88987e-05)
(0 -0 7.70689e-05)
(0 -0 6.57807e-05)
(0 -0 5.54861e-05)
(0 -0 4.623e-05)
(0 -0 3.79944e-05)
(0 -0 3.08163e-05)
(0 -0 2.46863e-05)
(0 -0 1.95577e-05)
(0 -0 1.53539e-05)
(0 -0 1.19779e-05)
(0 -0 9.32055e-06)
(0 -0 7.2683e-06)
(0 -0 5.7097e-06)
(0 -0 4.54052e-06)
(0 -0 3.66782e-06)
(0 -0 3.01281e-06)
(0 -0 2.51272e-06)
(0 -0 2.12161e-06)
(0 -0 1.80989e-06)
(0 -0 1.5624e-06)
(0 -0 1.3748e-06)
(0 -0 1.24855e-06)
(0 -0 1.18465e-06)
(0 -0 1.17764e-06)
(0 -0 1.21155e-06)
(0 -0 1.25981e-06)
(0 -0 1.29046e-06)
(0 -0 1.27614e-06)
(0 -0 1.20645e-06)
(0 -0 1.09846e-06)
(0 -0 1.00089e-06)
(0 -0 9.88985e-07)
(0 -0 1.1504e-06)
(0 -0 1.56577e-06)
(0 -0 2.28977e-06)
(0 -0 3.33838e-06)
(0 -0 4.68579e-06)
(0 -0 6.27098e-06)
(0 -0 8.0108e-06)
(0 -0 9.81979e-06)
(0 -0 1.15642e-05)
(0 -0 1.34958e-05)
(0 -0 0.000103905)
(0 -0 9.12468e-05)
(0 -0 7.87467e-05)
(0 -0 6.68912e-05)
(0 -0 5.61176e-05)
(0 -0 4.64675e-05)
(0 -0 3.79178e-05)
(0 -0 3.04936e-05)
(0 -0 2.41744e-05)
(0 -0 1.89021e-05)
(0 -0 1.45901e-05)
(0 -0 1.11326e-05)
(0 -0 8.41334e-06)
(0 -0 6.31339e-06)
(0 -0 4.71716e-06)
(0 -0 3.51762e-06)
(0 -0 2.61995e-06)
(0 -0 1.94409e-06)
(0 -0 1.42641e-06)
(0 -0 1.02024e-06)
(0 -0 6.95335e-07)
(0 -0 4.35945e-07)
(0 -0 2.37481e-07)
(0 -0 1.01687e-07)
(0 -0 3.07555e-08)
(0 -0 2.15996e-08)
(0 -0 6.20184e-08)
(0 -0 1.306e-07)
(0 -0 2.01522e-07)
(0 -0 2.53895e-07)
(0 -0 2.83202e-07)
(0 -0 3.1082e-07)
(0 -0 3.87261e-07)
(0 -0 5.8652e-07)
(0 -0 9.91886e-07)
(0 -0 1.67696e-06)
(0 -0 2.68757e-06)
(0 -0 4.03012e-06)
(0 -0 5.66956e-06)
(0 -0 7.53689e-06)
(0 -0 9.54265e-06)
(0 -0 1.15971e-05)
(0 -0 1.35638e-05)
(0 -0 1.56937e-05)
(0 -0 0.000105743)
(0 -0 9.24546e-05)
(0 -0 7.94272e-05)
(0 -0 6.71359e-05)
(0 -0 5.60015e-05)
(0 -0 4.60611e-05)
(0 -0 3.72857e-05)
(0 -0 2.969e-05)
(0 -0 2.32428e-05)
(0 -0 1.78761e-05)
(0 -0 1.34948e-05)
(0 -0 9.986e-06)
(0 -0 7.22789e-06)
(0 -0 5.09728e-06)
(0 -0 3.47585e-06)
(0 -0 2.25487e-06)
(0 -0 1.33857e-06)
(0 -0 6.46452e-07)
(0 -0 1.1468e-07)
(0 -0 -3.03574e-07)
(0 -0 -6.38787e-07)
(0 -0 -9.0689e-07)
(0 -0 -1.11244e-06)
(0 -0 -1.2532e-06)
(0 -0 -1.32574e-06)
(0 -0 -1.33075e-06)
(0 -0 -1.27673e-06)
(0 -0 -1.18005e-06)
(0 -0 -1.06049e-06)
(0 -0 -9.32449e-07)
(0 -0 -7.94418e-07)
(0 -0 -6.20443e-07)
(0 -0 -3.57847e-07)
(0 -0 6.64804e-08)
(0 -0 7.31715e-07)
(0 -0 1.70448e-06)
(0 -0 3.02156e-06)
(0 -0 4.67936e-06)
(0 -0 6.63301e-06)
(0 -0 8.80477e-06)
(0 -0 1.10982e-05)
(0 -0 1.34188e-05)
(0 -0 1.56269e-05)
(0 -0 1.79727e-05)
(0 -0 0.000106189)
(0 -0 9.24446e-05)
(0 -0 7.9057e-05)
(0 -0 6.64822e-05)
(0 -0 5.5122e-05)
(0 -0 4.50082e-05)
(0 -0 3.61065e-05)
(0 -0 2.8422e-05)
(0 -0 2.19145e-05)
(0 -0 1.65079e-05)
(0 -0 1.21003e-05)
(0 -0 8.57352e-06)
(0 -0 5.80182e-06)
(0 -0 3.65942e-06)
(0 -0 2.02662e-06)
(0 -0 7.94123e-07)
(0 -0 -1.33771e-07)
(0 -0 -8.37131e-07)
(0 -0 -1.37931e-06)
(0 -0 -1.80674e-06)
(0 -0 -2.14964e-06)
(0 -0 -2.4237e-06)
(0 -0 -2.63314e-06)
(0 -0 -2.77503e-06)
(0 -0 -2.84451e-06)
(0 -0 -2.83988e-06)
(0 -0 -2.76593e-06)
(0 -0 -2.63414e-06)
(0 -0 -2.4583e-06)
(0 -0 -2.24639e-06)
(0 -0 -1.99079e-06)
(0 -0 -1.66081e-06)
(0 -0 -1.20135e-06)
(0 -0 -5.39927e-07)
(0 -0 3.98728e-07)
(0 -0 1.67431e-06)
(0 -0 3.31443e-06)
(0 -0 5.30515e-06)
(0 -0 7.59128e-06)
(0 -0 1.00858e-05)
(0 -0 1.26849e-05)
(0 -0 1.52885e-05)
(0 -0 1.77537e-05)
(0 -0 2.03298e-05)
(0 -0 0.000105199)
(0 -0 9.11855e-05)
(0 -0 7.76323e-05)
(0 -0 6.49444e-05)
(0 -0 5.35039e-05)
(0 -0 4.33408e-05)
(0 -0 3.44176e-05)
(0 -0 2.67316e-05)
(0 -0 2.02351e-05)
(0 -0 1.48461e-05)
(0 -0 1.04577e-05)
(0 -0 6.94829e-06)
(0 -0 4.18989e-06)
(0 -0 2.05586e-06)
(0 -0 4.26479e-07)
(0 -0 -8.0686e-07)
(0 -0 -1.73874e-06)
(0 -0 -2.44797e-06)
(0 -0 -2.99674e-06)
(0 -0 -3.43052e-06)
(0 -0 -3.77874e-06)
(0 -0 -4.05644e-06)
(0 -0 -4.2672e-06)
(0 -0 -4.40711e-06)
(0 -0 -4.46975e-06)
(0 -0 -4.45085e-06)
(0 -0 -4.35159e-06)
(0 -0 -4.17857e-06)
(0 -0 -3.93974e-06)
(0 -0 -3.63674e-06)
(0 -0 -3.25586e-06)
(0 -0 -2.76164e-06)
(0 -0 -2.09645e-06)
(0 -0 -1.18828e-06)
(0 -0 3.43613e-08)
(0 -0 1.62429e-06)
(0 -0 3.59985e-06)
(0 -0 5.93657e-06)
(0 -0 8.56862e-06)
(0 -0 1.13994e-05)
(0 -0 1.43171e-05)
(0 -0 1.72161e-05)
(0 -0 1.99496e-05)
(0 -0 2.27669e-05)
(0 -0 0.000102813)
(0 -0 8.8721e-05)
(0 -0 7.51667e-05)
(0 -0 6.2591e-05)
(0 -0 5.12135e-05)
(0 -0 4.11234e-05)
(0 -0 3.22833e-05)
(0 -0 2.46837e-05)
(0 -0 1.82709e-05)
(0 -0 1.2958e-05)
(0 -0 8.63524e-06)
(0 -0 5.17922e-06)
(0 -0 2.46176e-06)
(0 -0 3.56862e-07)
(0 -0 -1.25377e-06)
(0 -0 -2.47683e-06)
(0 -0 -3.40476e-06)
(0 -0 -4.11429e-06)
(0 -0 -4.66579e-06)
(0 -0 -5.10317e-06)
(0 -0 -5.45461e-06)
(0 -0 -5.73412e-06)
(0 -0 -5.94428e-06)
(0 -0 -6.07993e-06)
(0 -0 -6.13282e-06)
(0 -0 -6.09604e-06)
(0 -0 -5.96708e-06)
(0 -0 -5.74777e-06)
(0 -0 -5.44032e-06)
(0 -0 -5.04015e-06)
(0 -0 -4.52765e-06)
(0 -0 -3.86266e-06)
(0 -0 -2.98507e-06)
(0 -0 -1.82329e-06)
(0 -0 -3.09588e-07)
(0 -0 1.60201e-06)
(0 -0 3.92058e-06)
(0 -0 6.61102e-06)
(0 -0 9.59675e-06)
(0 -0 1.27713e-05)
(0 -0 1.6015e-05)
(0 -0 1.92161e-05)
(0 -0 2.22241e-05)
(0 -0 2.52896e-05)
(0 -0 -0.000335396)
(0 -0 -0.000307994)
(0 -0 -0.000279687)
(0 -0 -0.000252958)
(0 -0 -0.000228311)
(0 -0 -0.000205825)
(0 -0 -0.000185942)
(0 -0 -0.000168819)
(0 -0 -0.000154327)
(0 -0 -0.000142082)
(0 -0 -0.000131519)
(0 -0 -0.000121984)
(0 -0 -0.000112823)
(0 -0 -0.000103477)
(0 -0 -9.35407e-05)
(0 -0 -8.28065e-05)
(0 -0 -7.12685e-05)
(0 -0 -5.91039e-05)
(0 -0 -4.66314e-05)
(0 -0 -3.42565e-05)
(0 -0 -2.24134e-05)
(0 -0 -1.15103e-05)
(0 -0 -1.88414e-06)
(0 -0 6.23408e-06)
(0 -0 1.27399e-05)
(0 -0 1.7727e-05)
(0 -0 2.1189e-05)
(0 -0 -0.00021594)
(0 -0 -0.000195036)
(0 -0 -0.000173963)
(0 -0 -0.000154869)
(0 -0 -0.000137736)
(0 -0 -0.000122656)
(0 -0 -0.000109999)
(0 -0 -9.98468e-05)
(0 -0 -9.20002e-05)
(0 -0 -8.60245e-05)
(0 -0 -8.13206e-05)
(0 -0 -7.72151e-05)
(0 -0 -7.30537e-05)
(0 -0 -6.8285e-05)
(0 -0 -6.25222e-05)
(0 -0 -5.5578e-05)
(0 -0 -4.74699e-05)
(0 -0 -3.83984e-05)
(0 -0 -2.87042e-05)
(0 -0 -1.88138e-05)
(0 -0 -9.18089e-06)
(0 -0 -2.32428e-07)
(0 -0 7.67604e-06)
(0 -0 1.42945e-05)
(0 -0 1.95033e-05)
(0 -0 2.33003e-05)
(0 -0 2.5845e-05)
(0 -0 -0.000136128)
(0 -0 -0.00011951)
(0 -0 -0.000103165)
(0 -0 -8.89024e-05)
(0 -0 -7.65574e-05)
(0 -0 -6.61867e-05)
(0 -0 -5.80958e-05)
(0 -0 -5.23087e-05)
(0 -0 -4.85839e-05)
(0 -0 -4.64601e-05)
(0 -0 -4.53287e-05)
(0 -0 -4.45217e-05)
(0 -0 -4.3401e-05)
(0 -0 -4.14375e-05)
(0 -0 -3.8269e-05)
(0 -0 -3.37319e-05)
(0 -0 -2.78632e-05)
(0 -0 -2.08781e-05)
(0 -0 -1.31272e-05)
(0 -0 -5.04222e-06)
(0 -0 2.92093e-06)
(0 -0 1.03349e-05)
(0 -0 1.68442e-05)
(0 -0 2.21973e-05)
(0 -0 2.62692e-05)
(0 -0 2.90621e-05)
(0 -0 3.06388e-05)
(0 -0 -8.52644e-05)
(0 -0 -7.13899e-05)
(0 -0 -5.7866e-05)
(0 -0 -4.62867e-05)
(0 -0 -3.66928e-05)
(0 -0 -2.90191e-05)
(0 -0 -2.35004e-05)
(0 -0 -2.01154e-05)
(0 -0 -1.85991e-05)
(0 -0 -1.84868e-05)
(0 -0 -1.91836e-05)
(0 -0 -2.00476e-05)
(0 -0 -2.04749e-05)
(0 -0 -1.99716e-05)
(0 -0 -1.82089e-05)
(0 -0 -1.50488e-05)
(0 -0 -1.05464e-05)
(0 -0 -4.92475e-06)
(0 -0 1.46615e-06)
(0 -0 8.20241e-06)
(0 -0 1.48412e-05)
(0 -0 2.09709e-05)
(0 -0 2.62522e-05)
(0 -0 3.04479e-05)
(0 -0 3.34433e-05)
(0 -0 3.5248e-05)
(0 -0 3.59375e-05)
(0 -0 -5.48724e-05)
(0 -0 -4.26767e-05)
(0 -0 -3.06464e-05)
(0 -0 -2.05279e-05)
(0 -0 -1.23143e-05)
(0 -0 -5.90345e-06)
(0 -0 -1.48859e-06)
(0 -0 9.71304e-07)
(0 -0 1.73901e-06)
(0 -0 1.25713e-06)
(0 -0 8.25658e-08)
(0 -0 -1.19084e-06)
(0 -0 -2.01014e-06)
(0 -0 -1.93093e-06)
(0 -0 -6.6492e-07)
(0 -0 1.89579e-06)
(0 -0 5.68027e-06)
(0 -0 1.04624e-05)
(0 -0 1.5902e-05)
(0 -0 2.15947e-05)
(0 -0 2.7124e-05)
(0 -0 3.21084e-05)
(0 -0 3.6239e-05)
(0 -0 3.93067e-05)
(0 -0 4.12202e-05)
(0 -0 4.20068e-05)
(0 -0 4.17574e-05)
(0 -0 -3.88278e-05)
(0 -0 -2.76456e-05)
(0 -0 -1.64767e-05)
(0 -0 -7.01113e-06)
(0 -0 7.59984e-07)
(0 -0 6.93848e-06)
(0 -0 1.13417e-05)
(0 -0 1.4001e-05)
(0 -0 1.51484e-05)
(0 -0 1.51777e-05)
(0 -0 1.45836e-05)
(0 -0 1.38907e-05)
(0 -0 1.35836e-05)
(0 -0 1.40451e-05)
(0 -0 1.55142e-05)
(0 -0 1.80658e-05)
(0 -0 2.16137e-05)
(0 -0 2.59339e-05)
(0 -0 3.07039e-05)
(0 -0 3.55493e-05)
(0 -0 4.0092e-05)
(0 -0 4.39931e-05)
(0 -0 4.69869e-05)
(0 -0 4.89043e-05)
(0 -0 4.96887e-05)
(0 -0 4.93943e-05)
(0 -0 4.81331e-05)
(0 -0 -3.32331e-05)
(0 -0 -2.26619e-05)
(0 -0 -1.1872e-05)
(0 -0 -2.47073e-06)
(0 -0 5.5475e-06)
(0 -0 1.22683e-05)
(0 -0 1.74966e-05)
(0 -0 2.12289e-05)
(0 -0 2.3641e-05)
(0 -0 2.50531e-05)
(0 -0 2.58753e-05)
(0 -0 2.65439e-05)
(0 -0 2.74589e-05)
(0 -0 2.89301e-05)
(0 -0 3.114e-05)
(0 -0 3.41275e-05)
(0 -0 3.77917e-05)
(0 -0 4.19158e-05)
(0 -0 4.62019e-05)
(0 -0 5.03153e-05)
(0 -0 5.39269e-05)
(0 -0 5.6752e-05)
(0 -0 5.8579e-05)
(0 -0 5.92897e-05)
(0 -0 5.88712e-05)
(0 -0 5.74129e-05)
(0 -0 5.50543e-05)
(0 -0 -3.54066e-05)
(0 -0 -2.51473e-05)
(0 -0 -1.43593e-05)
(0 -0 -4.56543e-06)
(0 -0 4.23569e-06)
(0 -0 1.21041e-05)
(0 -0 1.8815e-05)
(0 -0 2.43099e-05)
(0 -0 2.86873e-05)
(0 -0 3.2173e-05)
(0 -0 3.50727e-05)
(0 -0 3.77177e-05)
(0 -0 4.04098e-05)
(0 -0 4.33758e-05)
(0 -0 4.67353e-05)
(0 -0 5.04889e-05)
(0 -0 5.45229e-05)
(0 -0 5.86312e-05)
(0 -0 6.25479e-05)
(0 -0 6.59864e-05)
(0 -0 6.86762e-05)
(0 -0 7.03967e-05)
(0 -0 7.10004e-05)
(0 -0 7.04288e-05)
(0 -0 6.87209e-05)
(0 -0 6.60083e-05)
(0 -0 6.24629e-05)
(0 -0 -4.33616e-05)
(0 -0 -3.31956e-05)
(0 -0 -2.21181e-05)
(0 -0 -1.1573e-05)
(0 -0 -1.56681e-06)
(0 -0 7.92674e-06)
(0 -0 1.66393e-05)
(0 -0 2.4441e-05)
(0 -0 3.13355e-05)
(0 -0 3.74369e-05)
(0 -0 4.29308e-05)
(0 -0 4.80291e-05)
(0 -0 5.29245e-05)
(0 -0 5.7752e-05)
(0 -0 6.25646e-05)
(0 -0 6.73227e-05)
(0 -0 7.19014e-05)
(0 -0 7.61097e-05)
(0 -0 7.97201e-05)
(0 -0 8.25012e-05)
(0 -0 8.42501e-05)
(0 -0 8.48186e-05)
(0 -0 8.41315e-05)
(0 -0 8.21976e-05)
(0 -0 7.91143e-05)
(0 -0 7.50606e-05)
(0 -0 7.02458e-05)
(0 -0 -5.55828e-05)
(0 -0 -4.53516e-05)
(0 -0 -3.3763e-05)
(0 -0 -2.21901e-05)
(0 -0 -1.06519e-05)
(0 -0 8.3663e-07)
(0 -0 1.19516e-05)
(0 -0 2.24787e-05)
(0 -0 3.23127e-05)
(0 -0 4.14416e-05)
(0 -0 4.99188e-05)
(0 -0 5.78255e-05)
(0 -0 6.52369e-05)
(0 -0 7.21907e-05)
(0 -0 7.86697e-05)
(0 -0 8.45942e-05)
(0 -0 8.98298e-05)
(0 -0 9.42052e-05)
(0 -0 9.75362e-05)
(0 -0 9.9654e-05)
(0 -0 0.00010043)
(0 -0 9.97942e-05)
(0 -0 9.77518e-05)
(0 -0 9.4384e-05)
(0 -0 8.98517e-05)
(0 -0 8.43854e-05)
(0 -0 7.82347e-05)
(0 -0 -7.08755e-05)
(0 -0 -6.04642e-05)
(0 -0 -4.82008e-05)
(0 -0 -3.5395e-05)
(0 -0 -2.20829e-05)
(0 -0 -8.32743e-06)
(0 -0 5.48257e-06)
(0 -0 1.90373e-05)
(0 -0 3.21119e-05)
(0 -0 4.45589e-05)
(0 -0 5.62888e-05)
(0 -0 6.72458e-05)
(0 -0 7.73812e-05)
(0 -0 8.66326e-05)
(0 -0 9.49108e-05)
(0 -0 0.000102097)
(0 -0 0.000108051)
(0 -0 0.000112623)
(0 -0 0.000115678)
(0 -0 0.000117115)
(0 -0 0.000116884)
(0 -0 0.000115001)
(0 -0 0.000111554)
(0 -0 0.0001067)
(0 -0 0.000100668)
(0 -0 9.37424e-05)
(0 -0 8.62138e-05)
(0 -0 -8.82521e-05)
(0 -0 -7.75788e-05)
(0 -0 -6.45259e-05)
(0 -0 -5.0347e-05)
(0 -0 -3.50991e-05)
(0 -0 -1.88982e-05)
(0 -0 -2.2056e-06)
(0 -0 1.4566e-05)
(0 -0 3.10646e-05)
(0 -0 4.70005e-05)
(0 -0 6.21365e-05)
(0 -0 7.62753e-05)
(0 -0 8.92421e-05)
(0 -0 0.000100874)
(0 -0 0.00011101)
(0 -0 0.000119495)
(0 -0 0.000126184)
(0 -0 0.000130954)
(0 -0 0.000133723)
(0 -0 0.00013446)
(0 -0 0.000133198)
(0 -0 0.000130042)
(0 -0 0.000125164)
(0 -0 0.000118802)
(0 -0 0.000111251)
(0 -0 0.00010285)
(0 -0 9.39336e-05)
(0 -0 -0.000106849)
(0 -0 -9.58587e-05)
(0 -0 -8.19465e-05)
(0 -0 -6.63159e-05)
(0 -0 -4.90481e-05)
(0 -0 -3.03158e-05)
(0 -0 -1.06577e-05)
(0 -0 9.40646e-06)
(0 -0 2.93942e-05)
(0 -0 4.88705e-05)
(0 -0 6.74499e-05)
(0 -0 8.47927e-05)
(0 -0 0.0001006)
(0 -0 0.000114609)
(0 -0 0.000126592)
(0 -0 0.000136358)
(0 -0 0.000143761)
(0 -0 0.000148709)
(0 -0 0.000151173)
(0 -0 0.000151197)
(0 -0 0.000148898)
(0 -0 0.000144467)
(0 -0 0.000138165)
(0 -0 0.000130306)
(0 -0 0.000121255)
(0 -0 0.000111403)
(0 -0 0.000101125)
(0 -0 -0.000125872)
(0 -0 -0.000114534)
(0 -0 -9.97362e-05)
(0 -0 -8.26364e-05)
(0 -0 -6.33427e-05)
(0 -0 -4.20864e-05)
(0 -0 -1.94852e-05)
(0 -0 3.83297e-06)
(0 -0 2.72558e-05)
(0 -0 5.02047e-05)
(0 -0 7.21489e-05)
(0 -0 9.26104e-05)
(0 -0 0.000111171)
(0 -0 0.000127472)
(0 -0 0.000141222)
(0 -0 0.000152202)
(0 -0 0.000160266)
(0 -0 0.000165355)
(0 -0 0.000167496)
(0 -0 0.000166804)
(0 -0 0.000163482)
(0 -0 0.000157807)
(0 -0 0.000150123)
(0 -0 0.000140821)
(0 -0 0.000130329)
(0 -0 0.00011909)
(0 -0 0.000107518)
(0 -0 -0.00014457)
(0 -0 -0.000132879)
(0 -0 -0.000117211)
(0 -0 -9.86853e-05)
(0 -0 -7.74378e-05)
(0 -0 -5.3758e-05)
(0 -0 -2.83416e-05)
(0 -0 -1.92154e-06)
(0 -0 2.47642e-05)
(0 -0 5.10005e-05)
(0 -0 7.61176e-05)
(0 -0 9.95078e-05)
(0 -0 0.00012064)
(0 -0 0.00013907)
(0 -0 0.000154447)
(0 -0 0.000166528)
(0 -0 0.000175172)
(0 -0 0.000180352)
(0 -0 0.000182153)
(0 -0 0.000180759)
(0 -0 0.000176454)
(0 -0 0.000169598)
(0 -0 0.000160613)
(0 -0 0.000149963)
(0 -0 0.000138133)
(0 -0 0.000125615)
(0 -0 0.000112855)
(0 -0 -0.000162229)
(0 -0 -0.000150203)
(0 -0 -0.000133724)
(0 -0 -0.000113876)
(0 -0 -9.08238e-05)
(0 -0 -6.4912e-05)
(0 -0 -3.69106e-05)
(0 -0 -7.65066e-06)
(0 -0 2.2013e-05)
(0 -0 5.12389e-05)
(0 -0 7.92298e-05)
(0 -0 0.00010526)
(0 -0 0.000128697)
(0 -0 0.000149019)
(0 -0 0.000165828)
(0 -0 0.000178856)
(0 -0 0.000187975)
(0 -0 0.00019319)
(0 -0 0.000194638)
(0 -0 0.000192574)
(0 -0 0.000187353)
(0 -0 0.000179413)
(0 -0 0.000169248)
(0 -0 0.000157385)
(0 -0 0.000144363)
(0 -0 0.000130713)
(0 -0 0.000116912)
(0 -0 -0.000178184)
(0 -0 -0.000165865)
(0 -0 -0.000148675)
(0 -0 -0.000127667)
(0 -0 -0.000103031)
(0 -0 -7.51646e-05)
(0 -0 -4.49034e-05)
(0 -0 -1.31673e-05)
(0 -0 1.90853e-05)
(0 -0 5.09007e-05)
(0 -0 8.13697e-05)
(0 -0 0.000109664)
(0 -0 0.000135062)
(0 -0 0.000156977)
(0 -0 0.00017497)
(0 -0 0.000188761)
(0 -0 0.000198231)
(0 -0 0.00020342)
(0 -0 0.000204512)
(0 -0 0.000201826)
(0 -0 0.000195783)
(0 -0 0.000186888)
(0 -0 0.000175699)
(0 -0 0.000162797)
(0 -0 0.000148766)
(0 -0 0.000134169)
(0 -0 0.000119509)
(0 -0 -0.00019184)
(0 -0 -0.000179294)
(0 -0 -0.000161532)
(0 -0 -0.000139577)
(0 -0 -0.000113644)
(0 -0 -8.41749e-05)
(0 -0 -5.2063e-05)
(0 -0 -1.83024e-05)
(0 -0 1.60606e-05)
(0 -0 4.9978e-05)
(0 -0 8.24474e-05)
(0 -0 0.000112554)
(0 -0 0.000139506)
(0 -0 0.000162664)
(0 -0 0.000181559)
(0 -0 0.000195901)
(0 -0 0.000205587)
(0 -0 0.000210685)
(0 -0 0.000211428)
(0 -0 0.000208185)
(0 -0 0.000201437)
(0 -0 0.000191746)
(0 -0 0.000179721)
(0 -0 0.000165987)
(0 -0 0.000151162)
(0 -0 0.000135834)
(0 -0 0.000120523)
(0 -0 -0.000202697)
(0 -0 -0.000190008)
(0 -0 -0.000171844)
(0 -0 -0.000149201)
(0 -0 -0.000122312)
(0 -0 -9.1656e-05)
(0 -0 -5.81699e-05)
(0 -0 -2.2907e-05)
(0 -0 1.30175e-05)
(0 -0 4.84817e-05)
(0 -0 8.24106e-05)
(0 -0 0.000113824)
(0 -0 0.000141876)
(0 -0 0.00016589)
(0 -0 0.000185375)
(0 -0 0.000200042)
(0 -0 0.0002098)
(0 -0 0.000214747)
(0 -0 0.000215155)
(0 -0 0.000211437)
(0 -0 0.000204122)
(0 -0 0.000193815)
(0 -0 0.000181165)
(0 -0 0.00016683)
(0 -0 0.000151451)
(0 -0 0.000135629)
(0 -0 0.0001199)
(0 -0 -0.000210373)
(0 -0 -0.000197635)
(0 -0 -0.00017927)
(0 -0 -0.000156234)
(0 -0 -0.00012877)
(0 -0 -9.73865e-05)
(0 -0 -6.305e-05)
(0 -0 -2.68552e-05)
(0 -0 1.00345e-05)
(0 -0 4.64457e-05)
(0 -0 8.12532e-05)
(0 -0 0.000113432)
(0 -0 0.000142103)
(0 -0 0.000166563)
(0 -0 0.000186316)
(0 -0 0.000201072)
(0 -0 0.000210759)
(0 -0 0.0002155)
(0 -0 0.000215596)
(0 -0 0.000211498)
(0 -0 0.000203767)
(0 -0 0.00019304)
(0 -0 0.000179993)
(0 -0 0.000165304)
(0 -0 0.000149623)
(0 -0 0.000133567)
(0 -0 0.000117628)
(0 -0 -0.000214619)
(0 -0 -0.000201925)
(0 -0 -0.000183548)
(0 -0 -0.000160426)
(0 -0 -0.000132777)
(0 -0 -0.000101135)
(0 -0 -6.64847e-05)
(0 -0 -2.99413e-05)
(0 -0 7.30526e-06)
(0 -0 4.40538e-05)
(0 -0 7.91526e-05)
(0 -0 0.000111554)
(0 -0 0.000140363)
(0 -0 0.000164869)
(0 -0 0.000184574)
(0 -0 0.0001992)
(0 -0 0.000208688)
(0 -0 0.000213182)
(0 -0 0.000213007)
(0 -0 0.000208636)
(0 -0 0.000200654)
(0 -0 0.000189715)
(0 -0 0.000176507)
(0 -0 0.000161714)
(0 -0 0.000145991)
(0 -0 0.000129927)
(0 -0 0.000114072)
(0 -0 -0.000215375)
(0 -0 -0.000202905)
(0 -0 -0.000184768)
(0 -0 -0.000161866)
(0 -0 -0.000134439)
(0 -0 -0.000103021)
(0 -0 -6.85978e-05)
(0 -0 -3.22874e-05)
(0 -0 4.71518e-06)
(0 -0 4.12035e-05)
(0 -0 7.60212e-05)
(0 -0 0.000108119)
(0 -0 0.000136601)
(0 -0 0.000160764)
(0 -0 0.000180119)
(0 -0 0.0001944)
(0 -0 0.000203562)
(0 -0 0.000207767)
(0 -0 0.000207356)
(0 -0 0.000202812)
(0 -0 0.000194731)
(0 -0 0.000183773)
(0 -0 0.000170624)
(0 -0 0.000155965)
(0 -0 0.000140437)
(0 -0 0.000124631)
(0 -0 0.000109011)
(0 -0 -0.000212755)
(0 -0 -0.000200653)
(0 -0 -0.000182975)
(0 -0 -0.000160595)
(0 -0 -0.000133774)
(0 -0 -0.000103038)
(0 -0 -6.93556e-05)
(0 -0 -3.38309e-05)
(0 -0 2.35718e-06)
(0 -0 3.80183e-05)
(0 -0 7.20124e-05)
(0 -0 0.000103307)
(0 -0 0.000131024)
(0 -0 0.000154478)
(0 -0 0.000173197)
(0 -0 0.000186931)
(0 -0 0.000195653)
(0 -0 0.000199533)
(0 -0 0.000198919)
(0 -0 0.000194301)
(0 -0 0.000186269)
(0 -0 0.000175477)
(0 -0 0.000162601)
(0 -0 0.000148304)
(0 -0 0.000133208)
(0 -0 0.000117872)
(0 -0 0.000102765)
(0 -0 -0.000206755)
(0 -0 -0.000195152)
(0 -0 -0.000178151)
(0 -0 -0.000156598)
(0 -0 -0.000130765)
(0 -0 -0.000101159)
(0 -0 -6.87205e-05)
(0 -0 -3.45193e-05)
(0 -0 3.01221e-07)
(0 -0 3.45875e-05)
(0 -0 6.72362e-05)
(0 -0 9.72498e-05)
(0 -0 0.000123784)
(0 -0 0.000146182)
(0 -0 0.000163997)
(0 -0 0.000177)
(0 -0 0.000185175)
(0 -0 0.000188701)
(0 -0 0.000187926)
(0 -0 0.000183332)
(0 -0 0.000175496)
(0 -0 0.000165052)
(0 -0 0.000152652)
(0 -0 0.000138935)
(0 -0 0.000124494)
(0 -0 0.000109857)
(0 -0 9.54592e-05)
(0 -0 -0.000197522)
(0 -0 -0.000186541)
(0 -0 -0.000170424)
(0 -0 -0.000149984)
(0 -0 -0.000125496)
(0 -0 -9.74412e-05)
(0 -0 -6.6714e-05)
(0 -0 -3.43347e-05)
(0 -0 -1.39203e-06)
(0 -0 3.10163e-05)
(0 -0 6.1842e-05)
(0 -0 9.01399e-05)
(0 -0 0.000115112)
(0 -0 0.000136142)
(0 -0 0.000152815)
(0 -0 0.000164923)
(0 -0 0.000172464)
(0 -0 0.000175617)
(0 -0 0.000174723)
(0 -0 0.000170248)
(0 -0 0.000162744)
(0 -0 0.000152816)
(0 -0 0.000141082)
(0 -0 0.000128144)
(0 -0 0.000114559)
(0 -0 0.000100819)
(0 -0 8.73268e-05)
(0 -0 -0.000185358)
(0 -0 -0.000175109)
(0 -0 -0.000160061)
(0 -0 -0.000140988)