/*--------------------------------*- C++ -*----------------------------------*\
| =========                 |                                                 |
| \\      /  F ield         | OpenFOAM: The Open Source CFD Toolbox           |
|  \\    /   O peration     | Version:  2412                                  |
|   \\  /    A nd           | Website:  www.openfoam.com                      |
|    \\/     M anipulation  |                                                 |
\*---------------------------------------------------------------------------*/
FoamFile
{
    version     2.0;
    format      ascii;
    arch        "LSB;label=32;scalar=64";
    class       volScalarField;
    location    "17";
    object      p;
}
// * * * * * * * * * * * * * * * * * * * * * * * * * * * * * * * * * * * * * //

dimensions      [0 2 -2 0 0 0 0];

internalField   nonuniform List<scalar> 
5285
(
0.00105745
0.00105795
0.00105817
0.00105806
0.00105761
0.00105677
0.00105551
0.00105379
0.00105157
0.00104881
0.00104545
0.00104146
0.00103677
0.00103133
0.00102508
0.00101795
0.00104238
0.00104241
0.00104214
0.00104154
0.00104058
0.00103923
0.00103744
0.0010352
0.00103244
0.00102914
0.00102524
0.00102071
0.00101548
0.00100951
0.00100273
0.000995095
0.00102756
0.00102715
0.00102642
0.00102535
0.00102391
0.00102208
0.00101981
0.00101706
0.00101381
0.00101001
0.00100562
0.00100059
0.000994868
0.000988413
0.000981167
0.000973076
0.001013
0.00101216
0.001011
0.00100949
0.00100761
0.00100532
0.00100259
0.000999394
0.000995684
0.000991424
0.000986575
0.000981091
0.000974929
0.00096804
0.000960375
0.000951881
0.000998709
0.000997465
0.000995897
0.000993976
0.000991676
0.000988967
0.000985817
0.000982192
0.000978058
0.000973377
0.000968111
0.000962217
0.000955655
0.000948378
0.000940339
0.000931492
0.000984689
0.000983067
0.000981116
0.000978809
0.000976119
0.000973017
0.000969475
0.000965458
0.000960934
0.000955868
0.000950223
0.000943959
0.000937036
0.000929413
0.000921046
0.00091189
0.000970951
0.000968973
0.000966663
0.000963994
0.000960941
0.000957476
0.00095357
0.000949192
0.000944312
0.000938894
0.000932905
0.000926307
0.000919063
0.000911134
0.000902479
0.000893056
0.000957499
0.000955188
0.000952541
0.000949535
0.000946144
0.000942342
0.000938101
0.000933393
0.000928186
0.000922449
0.00091615
0.000909253
0.000901724
0.000893525
0.000884619
0.000874968
0.000944338
0.000941714
0.000938753
0.000935433
0.000931729
0.000927616
0.000923067
0.000918056
0.000912552
0.000906527
0.000899948
0.000892785
0.000885004
0.00087657
0.000867449
0.000857605
0.00093147
0.000928554
0.000925301
0.000921689
0.000917695
0.000913296
0.000908465
0.000903177
0.000897404
0.000891119
0.000884291
0.000876892
0.000868889
0.000860252
0.000850949
0.000840945
0.000918897
0.000915708
0.000912184
0.000908302
0.000904041
0.000899378
0.00089429
0.00088875
0.000882734
0.000876216
0.000869167
0.00086156
0.000853365
0.000844555
0.000835097
0.000824964
0.00090662
0.000903178
0.000899402
0.00089527
0.000890764
0.00088586
0.000880536
0.000874769
0.000868535
0.000861808
0.000854564
0.000846775
0.000838416
0.000829458
0.000819875
0.000809639
0.00089464
0.000890962
0.000886952
0.000882591
0.000877859
0.000872735
0.000867199
0.000861227
0.000854797
0.000847886
0.00084047
0.000832524
0.000824024
0.000814945
0.000805261
0.000794948
0.000882954
0.000879058
0.000874833
0.000870261
0.000865323
0.000859999
0.00085427
0.000848114
0.00084151
0.000834437
0.000826871
0.000818791
0.000810174
0.000800996
0.000791235
0.000780866
0.000871562
0.000867464
0.000863042
0.000858276
0.00085315
0.000847645
0.000841743
0.000835422
0.000828665
0.00082145
0.000813756
0.000805563
0.000796849
0.000787593
0.000777775
0.000767372
0.000860462
0.000856178
0.000851574
0.000846631
0.000841335
0.000835667
0.000829609
0.000823143
0.00081625
0.000808912
0.00080111
0.000792822
0.000784032
0.000774718
0.000764861
0.000754443
0.00084965
0.000845195
0.000840425
0.000835322
0.000829871
0.000824056
0.00081786
0.000811266
0.000804256
0.000796813
0.000788919
0.000780556
0.000771705
0.000762351
0.000752473
0.000742056
0.000839124
0.000834513
0.00082959
0.000824342
0.000818752
0.000812806
0.000806488
0.000799781
0.00079267
0.000785139
0.000777169
0.000768747
0.000759853
0.000750474
0.000740591
0.00073019
0.00082888
0.000824125
0.000819065
0.000813685
0.000807971
0.000801908
0.000795483
0.000788679
0.000781482
0.000773877
0.000765848
0.000757381
0.000748459
0.000739069
0.000729195
0.000718824
0.000818913
0.000814028
0.000808843
0.000803345
0.00079752
0.000791355
0.000784836
0.000777949
0.00077068
0.000763016
0.000754941
0.000746442
0.000737506
0.000728118
0.000718266
0.000707937
0.000915214
0.000915362
0.000915828
0.000916549
0.000917511
0.000918704
0.000920114
0.000921732
0.000923545
0.000913194
0.000913337
0.000913787
0.000914482
0.000915409
0.000916559
0.000917918
0.000919476
0.000921222
0.000923144
0.000925233
0.000927478
0.00092987
0.0009324
0.00093506
0.000937843
0.000940744
0.000943756
0.000946874
0.00095009
0.000953398
0.00095679
0.000960259
0.000963797
0.000967395
0.000971044
0.000974736
0.000978462
0.000982213
0.00098598
0.000989753
0.000993524
0.000997283
0.00100102
0.00100473
0.00100839
0.001012
0.00101556
0.00101904
0.00102244
0.00102574
0.00102895
0.00103204
0.00103501
0.00103785
0.00104054
0.00104308
0.00104545
0.00104766
0.00104968
0.0010515
0.00105313
0.00105454
0.00105573
0.0010567
0.000911138
0.000911276
0.000911709
0.000912379
0.000913271
0.000914377
0.000915685
0.000917182
0.00091886
0.000920706
0.000922711
0.000924864
0.000927156
0.000929577
0.000932122
0.000934781
0.00093755
0.000940423
0.000943393
0.000946453
0.000949597
0.000952818
0.000956106
0.000959454
0.000962854
0.000966296
0.000969772
0.000973272
0.000976788
0.000980311
0.00098383
0.000987338
0.000990824
0.000994278
0.000997692
0.00100106
0.00100436
0.00100759
0.00101074
0.0010138
0.00101676
0.00101961
0.00102234
0.00102493
0.00102739
0.00102969
0.00103183
0.00103381
0.0010356
0.00103721
0.00103861
0.00103981
0.00104079
0.00104155
0.00104208
0.000909048
0.00090918
0.000909597
0.00091024
0.000911098
0.00091216
0.000913415
0.000914853
0.000916461
0.000918231
0.000920151
0.000922211
0.000924403
0.000926716
0.000929144
0.00093168
0.000934317
0.00093705
0.000939872
0.000942777
0.000945757
0.000948806
0.000951914
0.000955073
0.000958275
0.000961511
0.000964772
0.000968048
0.000971331
0.000974612
0.00097788
0.000981127
0.000984344
0.00098752
0.000990646
0.000993712
0.000996708
0.000999626
0.00100245
0.00100518
0.0010078
0.0010103
0.00101267
0.00101491
0.00101699
0.00101892
0.00102068
0.00102226
0.00102366
0.00102487
0.00102587
0.00102666
0.00102723
0.00102758
0.0010277
0.000906924
0.000907052
0.000907451
0.000908068
0.000908891
0.000909909
0.000911112
0.000912488
0.000914027
0.00091572
0.000917555
0.000919523
0.000921613
0.000923818
0.000926129
0.000928541
0.000931046
0.000933639
0.000936314
0.000939063
0.000941881
0.000944758
0.000947686
0.000950658
0.000953664
0.000956695
0.000959742
0.000962796
0.000965848
0.000968889
0.000971909
0.000974899
0.000977849
0.000980751
0.000983593
0.000986368
0.000989064
0.000991673
0.000994185
0.00099659
0.000998878
0.00100104
0.00100307
0.00100495
0.00100667
0.00100823
0.00100962
0.00101083
0.00101185
0.00101267
0.00101329
0.00101369
0.00101387
0.00101382
0.00101354
0.000904769
0.000904891
0.000905273
0.000905864
0.000906651
0.000907626
0.000908776
0.000910091
0.000911561
0.000913176
0.000914926
0.0009168
0.000918789
0.000920885
0.00092308
0.000925368
0.000927741
0.000930194
0.000932722
0.000935316
0.000937971
0.000940677
0.000943427
0.000946212
0.000949022
0.00095185
0.000954685
0.00095752
0.000960343
0.000963147
0.000965922
0.000968658
0.000971347
0.000973978
0.000976542
0.000979031
0.000981433
0.00098374
0.000985943
0.000988031
0.000989996
0.000991828
0.000993518
0.000995057
0.000996435
0.000997645
0.000998678
0.000999526
0.00100018
0.00100063
0.00100088
0.00100091
0.00100071
0.00100029
0.000999634
0.000902583
0.000902699
0.000903065
0.000903629
0.000904381
0.000905311
0.000906408
0.000907662
0.000909063
0.0009106
0.000912264
0.000914045
0.000915934
0.000917921
0.000919999
0.000922162
0.000924403
0.000926718
0.000929098
0.000931538
0.000934031
0.000936567
0.000939139
0.000941739
0.000944356
0.000946982
0.000949608
0.000952224
0.000954822
0.000957392
0.000959925
0.000962411
0.000964842
0.000967208
0.000969499
0.000971707
0.000973822
0.000975834
0.000977735
0.000979515
0.000981166
0.000982677
0.000984041
0.000985249
0.000986292
0.000987161
0.00098785
0.00098835
0.000988654
0.000988754
0.000988644
0.000988317
0.000987768
0.00098699
0.000985979
0.000900368
0.000900479
0.000900827
0.000901365
0.000902081
0.000902967
0.000904011
0.000905204
0.000906535
0.000907995
0.000909573
0.000911261
0.000913048
0.000914926
0.000916888
0.000918926
0.000921036
0.000923212
0.000925446
0.000927732
0.000930063
0.000932431
0.000934827
0.000937243
0.000939668
0.000942095
0.000944513
0.000946914
0.000949289
0.000951629
0.000953923
0.000956164
0.000958341
0.000960447
0.000962471
0.000964404
0.000966237
0.000967962
0.000969569
0.000971049
0.000972394
0.000973595
0.000974643
0.000975531
0.000976249
0.000976791
0.000977149
0.000977316
0.000977284
0.000977047
0.000976599
0.000975934
0.000975046
0.000973931
0.000972585
0.000898125
0.000898231
0.000898562
0.000899073
0.000899754
0.000900595
0.000901586
0.000902717
0.000903979
0.000905361
0.000906854
0.000908448
0.000910134
0.000911903
0.000913748
0.000915663
0.000917642
0.000919679
0.000921768
0.000923902
0.000926073
0.000928273
0.000930494
0.000932727
0.000934963
0.000937192
0.000939406
0.000941595
0.00094375
0.000945862
0.000947923
0.000949922
0.000951851
0.000953701
0.000955463
0.000957127
0.000958686
0.000960131
0.000961451
0.00096264
0.000963689
0.000964589
0.000965332
0.00096591
0.000966316
0.000966543
0.000966583
0.00096643
0.000966077
0.000965519
0.000964749
0.000963762
0.000962554
0.00096112
0.000959457
0.000895856
0.000895956
0.00089627
0.000896755
0.0008974
0.000898196
0.000899134
0.000900204
0.000901396
0.000902701
0.000904108
0.000905609
0.000907194
0.000908854
0.000910584
0.000912375
0.000914224
0.000916123
0.000918067
0.000920049
0.000922062
0.000924096
0.000926144
0.000928197
0.000930245
0.000932279
0.000934291
0.00093627
0.000938209
0.000940098
0.000941928
0.00094369
0.000945376
0.000946976
0.000948481
0.000949884
0.000951175
0.000952347
0.000953389
0.000954295
0.000955057
0.000955665
0.000956114
0.000956394
0.0009565
0.000956424
0.000956159
0.0009557
0.000955041
0.000954176
0.0009531
0.000951808
0.000950297
0.000948561
0.0009466
0.000893562
0.000893656
0.000893953
0.000894411
0.000895021
0.000895773
0.000896658
0.000897666
0.000898789
0.000900016
0.000901338
0.000902746
0.00090423
0.000905782
0.000907396
0.000909064
0.000910783
0.000912545
0.000914346
0.000916178
0.000918033
0.000919903
0.00092178
0.000923654
0.000925517
0.000927359
0.000929171
0.000930945
0.000932671
0.00093434
0.000935944
0.000937474
0.000938921
0.000940277
0.000941532
0.00094268
0.00094371
0.000944616
0.000945389
0.000946021
0.000946504
0.000946831
0.000946995
0.000946989
0.000946806
0.000946439
0.000945883
0.000945132
0.000944181
0.000943024
0.000941657
0.000940076
0.000938278
0.000936259
0.000934017
0.000891244
0.000891333
0.000891613
0.000892044
0.000892618
0.000893326
0.000894158
0.000895105
0.000896158
0.000897308
0.000898545
0.00089986
0.000901244
0.000902688
0.000904186
0.000905733
0.000907322
0.000908949
0.000910607
0.00091229
0.000913989
0.000915697
0.000917405
0.000919103
0.000920783
0.000922436
0.000924052
0.000925622
0.000927139
0.000928593
0.000929975
0.000931278
0.000932492
0.000933609
0.000934621
0.000935519
0.000936296
0.000936944
0.000937455
0.000937822
0.000938037
0.000938092
0.000937983
0.000937701
0.00093724
0.000936595
0.000935761
0.000934731
0.000933501
0.000932067
0.000930425
0.000928571
0.000926503
0.000924217
0.000921711
0.000888904
0.000888987
0.00088925
0.000889655
0.000890193
0.000890856
0.000891636
0.000892522
0.000893506
0.000894579
0.000895732
0.000896954
0.000898238
0.000899574
0.000900958
0.000902383
0.000903844
0.000905337
0.000906854
0.000908389
0.000909934
0.000911482
0.000913022
0.000914547
0.000916047
0.000917512
0.000918936
0.000920307
0.000921619
0.000922861
0.000924027
0.000925107
0.000926093
0.000926977
0.000927751
0.000928408
0.000928939
0.000929337
0.000929594
0.000929704
0.00092966
0.000929454
0.000929081
0.000928534
0.000927808
0.000926897
0.000925796
0.000924501
0.000923007
0.00092131
0.000919407
0.000917296
0.000914972
0.000912436
0.000909684
0.000886542
0.00088662
0.000886866
0.000887245
0.000887748
0.000888367
0.000889093
0.000889919
0.000890834
0.000891831
0.000892899
0.00089403
0.000895213
0.000896443
0.000897713
0.000899017
0.000900351
0.00090171
0.000903088
0.000904477
0.00090587
0.000907259
0.000908635
0.000909989
0.000911311
0.000912593
0.000913827
0.000915003
0.000916113
0.000917149
0.000918102
0.000918964
0.000919728
0.000920385
0.000920929
0.00092135
0.000921642
0.000921798
0.00092181
0.000921672
0.000921378
0.000920921
0.000920294
0.000919494
0.000918513
0.000917348
0.000915994
0.000914446
0.000912701
0.000910755
0.000908606
0.000906252
0.000903689
0.000900917
0.000897935
0.000884162
0.000884234
0.000884463
0.000884815
0.000885283
0.000885858
0.000886532
0.000887297
0.000888144
0.000889065
0.000890049
0.000891088
0.000892173
0.000893296
0.000894453
0.000895637
0.000896846
0.000898072
0.000899312
0.000900557
0.0009018
0.000903033
0.000904246
0.000905431
0.000906579
0.000907681
0.000908729
0.000909713
0.000910626
0.000911459
0.000912205
0.000912855
0.000913402
0.000913839
0.000914157
0.00091435
0.000914411
0.000914332
0.000914108
0.000913731
0.000913196
0.000912497
0.000911628
0.000910584
0.00090936
0.000907953
0.000906357
0.000904569
0.000902586
0.000900406
0.000898025
0.000895441
0.000892654
0.000889663
0.000886466
0.000881762
0.00088183
0.000882041
0.000882368
0.0008828
0.000883331
0.000883954
0.000884659
0.000885438
0.000886283
0.000887184
0.000888132
0.000889118
0.000890136
0.00089118
0.000892246
0.000893329
0.000894425
0.000895528
0.000896631
0.000897727
0.000898805
0.000899859
0.000900878
0.000901855
0.00090278
0.000903644
0.000904441
0.000905161
0.000905796
0.000906339
0.000906783
0.000907119
0.000907341
0.000907441
0.000907413
0.00090725
0.000906944
0.000906491
0.000905884
0.000905118
0.000904186
0.000903084
0.000901808
0.000900353
0.000898714
0.000896889
0.000894873
0.000892666
0.000890263
0.000887663
0.000884865
0.000881868
0.000878671
0.000875274
0.000879346
0.000879408
0.000879603
0.000879903
0.000880301
0.000880789
0.000881359
0.000882004
0.000882717
0.000883487
0.000884305
0.000885162
0.000886051
0.000886964
0.000887896
0.000888844
0.000889804
0.000890771
0.00089174
0.000892703
0.000893652
0.000894579
0.000895476
0.000896332
0.000897141
0.000897892
0.000898578
0.00089919
0.000899721
0.000900163
0.000900509
0.000900751
0.000900882
0.000900896
0.000900784
0.000900542
0.000900161
0.000899637
0.000898964
0.000898135
0.000897146
0.000895992
0.000894668
0.000893169
0.000891493
0.000889634
0.000887591
0.000885361
0.00088294
0.000880328
0.000877523
0.000874524
0.00087133
0.000867942
0.000864359
0.000876915
0.000876971
0.00087715
0.000877424
0.000877786
0.000878231
0.00087875
0.000879336
0.000879982
0.000880677
0.000881414
0.000882181
0.000882973
0.000883781
0.000884603
0.000885435
0.000886273
0.000887113
0.000887948
0.000888773
0.000889579
0.000890358
0.0008911
0.000891796
0.000892439
0.00089302
0.000893531
0.000893964
0.00089431
0.000894564
0.000894718
0.000894763
0.000894695
0.000894506
0.00089419
0.00089374
0.00089315
0.000892415
0.000891529
0.000890488
0.000889286
0.000887918
0.000886381
0.00088467
0.000882783
0.000880716
0.000878466
0.000876032
0.000873411
0.000870602
0.000867604
0.000864417
0.00086104
0.000857473
0.000853718
0.000874469
0.00087452
0.000874682
0.00087493
0.000875258
0.00087566
0.000876128
0.000876656
0.000877235
0.000877857
0.000878512
0.000879191
0.000879886
0.000880591
0.000881303
0.00088202
0.000882737
0.000883451
0.000884157
0.000884846
0.00088551
0.000886142
0.000886733
0.000887273
0.000887754
0.000888168
0.000888508
0.000888764
0.000888931
0.000889001
0.000888967
0.000888823
0.000888561
0.000888176
0.000887661
0.00088701
0.000886218
0.00088528
0.000884191
0.000882945
0.000881538
0.000879966
0.000878226
0.000876313
0.000874226
0.000871961
0.000869516
0.000866889
0.000864079
0.000861085
0.000857906
0.000854543
0.000850995
0.000847264
0.00084335
0.00087201
0.000872056
0.000872201
0.000872424
0.000872718
0.000873078
0.000873495
0.000873964
0.000874478
0.000875027
0.000875601
0.000876192
0.000876791
0.000877395
0.000877999
0.000878601
0.0008792
0.00087979
0.000880366
0.000880922
0.000881448
0.000881936
0.000882378
0.000882764
0.000883087
0.000883338
0.00088351
0.000883595
0.000883587
0.000883478
0.000883262
0.000882932
0.000882483
0.000881907
0.0008812
0.000880356
0.00087937
0.000878236
0.00087695
0.000875508
0.000873905
0.000872139
0.000870204
0.0008681
0.000865822
0.000863369
0.00086074
0.000857931
0.000854944
0.000851776
0.000848429
0.000844901
0.000841195
0.000837311
0.00083325
0.00086954
0.000869581
0.00086971
0.000869907
0.000870167
0.000870484
0.000870852
0.000871263
0.000871712
0.000872188
0.000872683
0.000873186
0.000873692
0.000874194
0.000874691
0.000875181
0.000875662
0.00087613
0.00087658
0.000877004
0.000877394
0.000877742
0.000878037
0.000878273
0.000878441
0.000878533
0.000878541
0.000878459
0.00087828
0.000877997
0.000877604
0.000877095
0.000876463
0.000875704
0.000874811
0.00087378
0.000872606
0.000871284
0.00086981
0.00086818
0.00086639
0.000864438
0.000862319
0.000860031
0.000857574
0.000854943
0.000852139
0.00084916
0.000846005
0.000842676
0.00083917
0.00083549
0.000831637
0.000827612
0.000823416
0.000867111
0.000867146
0.000867259
0.000867432
0.000867659
0.000867935
0.000868254
0.00086861
0.000868995
0.000869401
0.000869819
0.000870238
0.000870651
0.000871056
0.000871449
0.000871831
0.000872199
0.00087255
0.000872878
0.000873176
0.000873435
0.000873647
0.000873803
0.000873894
0.000873914
0.000873853
0.000873705
0.000873464
0.000873121
0.000872673
0.000872111
0.000871431
0.000870627
0.000869693
0.000868626
0.000867418
0.000866068
0.000864569
0.000862918
0.000861112
0.000859147
0.00085702
0.000854729
0.000852272
0.000849647
0.000846852
0.000843887
0.000840751
0.000837443
0.000833964
0.000830315
0.000826497
0.00082251
0.000818357
0.000814041
0.0008647
0.000864731
0.000864828
0.000864977
0.000865171
0.000865407
0.000865679
0.00086598
0.000866303
0.000866641
0.000866983
0.000867319
0.000867644
0.000867952
0.000868245
0.000868521
0.000868779
0.000869015
0.000869225
0.0008694
0.000869532
0.000869613
0.000869633
0.000869585
0.000869461
0.000869253
0.000868954
0.000868559
0.00086806
0.000867452
0.000866728
0.000865885
0.000864915
0.000863815
0.00086258
0.000861205
0.000859685
0.000858018
0.0008562
0.000854227
0.000852096
0.000849806
0.000847353
0.000844736
0.000841954
0.000839006
0.00083589
0.000832607
0.000829158
0.000825541
0.00082176
0.000817814
0.000813705
0.000809436
0.00080501
0.000862234
0.000862259
0.000862341
0.000862465
0.000862627
0.000862823
0.000863046
0.000863292
0.000863554
0.000863822
0.000864088
0.000864341
0.000864575
0.000864788
0.000864978
0.000865148
0.000865296
0.000865418
0.000865509
0.000865561
0.000865566
0.000865516
0.000865401
0.000865213
0.000864946
0.000864591
0.000864143
0.000863594
0.00086294
0.000862174
0.00086129
0.000860285
0.000859153
0.000857889
0.000856489
0.000854948
0.000853264
0.000851432
0.00084945
0.000847314
0.000845022
0.000842573
0.000839963
0.000837192
0.000834258
0.000831162
0.000827902
0.00082448
0.000820894
0.000817147
0.00081324
0.000809173
0.00080495
0.000800573
0.000796043
0.000859712
0.000859732
0.000859798
0.000859897
0.000860027
0.000860181
0.000860357
0.000860547
0.000860746
0.000860944
0.000861133
0.000861303
0.000861446
0.000861562
0.000861651
0.000861714
0.000861751
0.000861758
0.00086173
0.00086166
0.000861538
0.000861356
0.000861106
0.00086078
0.00086037
0.00085987
0.000859273
0.000858573
0.000857764
0.000856842
0.000855801
0.000854636
0.000853343
0.000851917
0.000850356
0.000848653
0.000846808
0.000844815
0.000842673
0.000840379
0.000837931
0.000835326
0.000832565
0.000829645
0.000826566
0.000823327
0.00081993
0.000816373
0.000812659
0.000808788
0.000804761
0.000800582
0.000796251
0.000791772
0.000787148
0.000857134
0.000857149
0.000857199
0.000857273
0.00085737
0.000857483
0.00085761
0.000857744
0.00085788
0.000858008
0.00085812
0.000858205
0.000858257
0.000858276
0.000858263
0.000858219
0.000858145
0.000858037
0.000857891
0.000857698
0.000857449
0.000857137
0.000856753
0.000856288
0.000855737
0.000855092
0.000854347
0.000853497
0.000852536
0.000851459
0.000850262
0.00084894
0.000847489
0.000845905
0.000844185
0.000842324
0.000840321
0.000838172
0.000835874
0.000833426
0.000830826
0.000828072
0.000825164
0.000822101
0.000818882
0.000815508
0.000811978
0.000808295
0.000804458
0.00080047
0.000796332
0.000792046
0.000787616
0.000783043
0.000778331
0.0008545
0.00085451
0.000854543
0.000854593
0.000854656
0.000854728
0.000854806
0.000854883
0.000854956
0.000855014
0.000855047
0.000855048
0.000855009
0.000854931
0.000854815
0.000854665
0.00085448
0.000854257
0.000853992
0.000853677
0.000853302
0.00085286
0.000852341
0.00085174
0.000851048
0.000850259
0.000849368
0.000848369
0.000847258
0.000846029
0.000844678
0.000843202
0.000841596
0.000839857
0.000837981
0.000835966
0.000833809
0.000831507
0.000829058
0.000826461
0.000823714
0.000820817
0.000817767
0.000814567
0.000811214
0.00080771
0.000804055
0.000800251
0.000796298
0.0007922
0.000787957
0.000783573
0.000779049
0.00077439
0.000769599
0.00085181
0.000851816
0.000851833
0.000851857
0.000851886
0.000851917
0.000851945
0.000851966
0.000851974
0.000851961
0.000851917
0.000851833
0.000851703
0.000851528
0.00085131
0.000851053
0.000850757
0.00085042
0.000850036
0.000849599
0.000849098
0.000848526
0.000847875
0.000847137
0.000846305
0.000845374
0.000844338
0.000843193
0.000841933
0.000840554
0.000839053
0.000837425
0.000835667
0.000833776
0.000831749
0.000829582
0.000827275
0.000824825
0.00082223
0.000819489
0.000816601
0.000813564
0.00081038
0.000807047
0.000803567
0.000799939
0.000796166
0.000792247
0.000788186
0.000783984
0.000779644
0.000775168
0.000770559
0.000765821
0.000760957
0.000849065
0.000849065
0.000849066
0.000849065
0.000849061
0.000849049
0.000849028
0.000848992
0.000848936
0.000848852
0.000848729
0.00084856
0.000848339
0.000848067
0.000847747
0.000847384
0.000846978
0.000846526
0.000846025
0.000845465
0.000844839
0.000844139
0.000843355
0.000842482
0.000841512
0.00084044
0.000839262
0.000837972
0.000836566
0.000835039
0.00083339
0.000831613
0.000829706
0.000827667
0.000825492
0.000823179
0.000820726
0.000818132
0.000815396
0.000812516
0.000809491
0.000806322
0.000803007
0.000799549
0.000795947
0.000792202
0.000788316
0.000784291
0.000780128
0.00077583
0.000771399
0.000766838
0.000762151
0.000757341
0.000752412
0.000846266
0.00084626
0.000846245
0.000846219
0.00084618
0.000846126
0.000846055
0.000845962
0.000845841
0.000845686
0.000845485
0.000845231
0.000844919
0.000844551
0.00084413
0.00084366
0.000843144
0.000842579
0.00084196
0.000841279
0.000840529
0.0008397
0.000838785
0.000837778
0.000836671
0.000835461
0.000834141
0.000832709
0.000831159
0.000829488
0.000827693
0.000825771
0.000823719
0.000821534
0.000819216
0.00081676
0.000814167
0.000811434
0.000808561
0.000805546
0.000802391
0.000799094
0.000795656
0.000792078
0.000788361
0.000784505
0.000780514
0.000776388
0.00077213
0.000767742
0.000763228
0.00075859
0.000753832
0.000748957
0.00074397
0.000843412
0.000843401
0.000843369
0.000843317
0.000843244
0.000843149
0.000843027
0.000842876
0.000842691
0.000842464
0.000842185
0.000841847
0.000841445
0.00084098
0.000840459
0.000839884
0.000839258
0.00083858
0.000837844
0.000837043
0.000836168
0.000835212
0.000834168
0.000833028
0.000831786
0.000830439
0.00082898
0.000827408
0.000825716
0.000823904
0.000821967
0.000819902
0.000817709
0.000815384
0.000812925
0.000810331
0.000807601
0.000804735
0.00080173
0.000798587
0.000795306
0.000791888
0.000788332
0.000784641
0.000780814
0.000776855
0.000772764
0.000768544
0.000764198
0.000759728
0.000755137
0.000750429
0.000745607
0.000740675
0.000735637
0.000840504
0.000840488
0.00084044
0.000840362
0.000840255
0.000840117
0.000839945
0.000839737
0.000839487
0.000839188
0.000838832
0.000838409
0.000837917
0.000837358
0.000836736
0.000836057
0.000835322
0.000834532
0.000833679
0.000832758
0.000831761
0.000830679
0.000829506
0.000828234
0.00082686
0.000825377
0.000823783
0.000822072
0.000820243
0.000818291
0.000816215
0.000814012
0.000811681
0.000809219
0.000806625
0.000803898
0.000801036
0.00079804
0.00079491
0.000791644
0.000788243
0.000784709
0.000781042
0.000777243
0.000773314
0.000769257
0.000765073
0.000760766
0.000756339
0.000751793
0.000747133
0.000742361
0.000737482
0.0007325
0.000727418
0.000837544
0.000837522
0.000837457
0.000837354
0.000837213
0.000837033
0.000836811
0.000836545
0.00083623
0.00083586
0.000835425
0.000834919
0.000834338
0.000833684
0.000832963
0.000832181
0.000831339
0.000830436
0.000829469
0.000828429
0.00082731
0.000826103
0.000824803
0.000823402
0.000821896
0.000820281
0.000818552
0.000816706
0.000814742
0.000812655
0.000810443
0.000808106
0.00080564
0.000803046
0.000800321
0.000797465
0.000794477
0.000791357
0.000788105
0.000784722
0.000781208
0.000777563
0.000773791
0.000769891
0.000765865
0.000761717
0.000757448
0.00075306
0.000748558
0.000743944
0.000739221
0.000734393
0.000729464
0.000724438
0.000719319
0.000834532
0.000834504
0.000834424
0.000834295
0.000834119
0.000833896
0.000833624
0.000833301
0.000832922
0.00083248
0.000831968
0.000831378
0.000830709
0.000829962
0.000829144
0.000828259
0.00082731
0.000826297
0.000825215
0.000824057
0.000822817
0.000821488
0.000820062
0.000818533
0.000816898
0.000815153
0.000813292
0.000811315
0.000809218
0.000806999
0.000804656
0.000802187
0.000799592
0.000796869
0.000794018
0.000791038
0.000787928
0.00078469
0.000781323
0.000777827
0.000774205
0.000770457
0.000766585
0.00076259
0.000758475
0.000754242
0.000749893
0.000745432
0.000740862
0.000736186
0.000731407
0.000726529
0.000721557
0.000716494
0.000711344
0.000831469
0.000831436
0.000831339
0.000831185
0.000830975
0.00083071
0.000830388
0.000830007
0.000829563
0.000829051
0.000828462
0.00082779
0.000827033
0.000826195
0.000825279
0.000824293
0.000823239
0.000822116
0.000820921
0.000819647
0.000818288
0.000816836
0.000815286
0.000813633
0.000811871
0.000809997
0.000808008
0.000805902
0.000803676
0.000801328
0.000798857
0.000796262
0.000793541
0.000790695
0.000787722
0.000784623
0.000781397
0.000778045
0.000774568
0.000770967
0.000767242
0.000763396
0.00075943
0.000755347
0.000751149
0.000746837
0.000742416
0.000737888
0.000733256
0.000728525
0.000723697
0.000718776
0.000713767
0.000708673
0.0007035
0.000828358
0.000828319
0.000828206
0.000828026
0.000827782
0.000827475
0.000827103
0.000826665
0.000826157
0.000825574
0.000824909
0.000824155
0.000823313
0.000822383
0.000821373
0.000820286
0.000819128
0.000817897
0.000816589
0.000815201
0.000813724
0.000812152
0.000810481
0.000808704
0.000806818
0.000804819
0.000802704
0.000800472
0.00079812
0.000795648
0.000793053
0.000790335
0.000787493
0.000784528
0.000781438
0.000778225
0.000774888
0.000771428
0.000767847
0.000764145
0.000760324
0.000756387
0.000752334
0.000748168
0.000743892
0.000739509
0.000735022
0.000730433
0.000725747
0.000720966
0.000716095
0.000711138
0.000706098
0.000700981
0.000695789
0.000825199
0.000825155
0.000825026
0.00082482
0.000824542
0.000824193
0.000823772
0.000823277
0.000822705
0.000822052
0.000821311
0.000820478
0.00081955
0.000818531
0.000817426
0.000816241
0.00081498
0.000813642
0.000812224
0.000810722
0.000809129
0.00080744
0.000805649
0.000803751
0.000801743
0.000799622
0.000797385
0.00079503
0.000792557
0.000789963
0.000787248
0.000784412
0.000781454
0.000778374
0.000775173
0.00077185
0.000768407
0.000764845
0.000761165
0.000757369
0.000753458
0.000749434
0.000745301
0.000741059
0.000736712
0.000732264
0.000727716
0.000723073
0.000718339
0.000713516
0.000708608
0.000703621
0.000698557
0.000693421
0.000688218
0.000821995
0.000821945
0.0008218
0.000821569
0.000821258
0.000820867
0.000820396
0.000819845
0.00081921
0.000818488
0.000817672
0.000816759
0.000815747
0.00081464
0.000813443
0.000812161
0.000810799
0.000809355
0.000807829
0.000806215
0.000804509
0.000802703
0.000800795
0.000798779
0.000796652
0.000794411
0.000792055
0.000789582
0.00078699
0.000784279
0.000781449
0.000778498
0.000775428
0.000772239
0.000768931
0.000765505
0.000761962
0.000758303
0.00075453
0.000750645
0.000746649
0.000742546
0.000738337
0.000734026
0.000729614
0.000725106
0.000720505
0.000715814
0.000711037
0.000706178
0.000701241
0.000696229
0.000691147
0.000685999
0.000680789
0.000818747
0.000818692
0.000818531
0.000818275
0.00081793
0.000817498
0.000816978
0.000816371
0.000815674
0.000814883
0.000813994
0.000813002
0.000811908
0.000810715
0.000809426
0.000808049
0.000806587
0.00080504
0.000803407
0.000801684
0.000799865
0.000797946
0.000795923
0.000793791
0.000791548
0.000789192
0.00078672
0.000784131
0.000781425
0.000778601
0.000775659
0.0007726
0.000769423
0.000766129
0.000762719
0.000759194
0.000755556
0.000751806
0.000747946
0.000743977
0.000739904
0.000735726
0.000731449
0.000727073
0.000722604
0.000718043
0.000713394
0.000708661
0.000703848
0.000698959
0.000693997
0.000688966
0.000683872
0.000678718
0.000673508
0.000815458
0.000815398
0.000815221
0.00081494
0.000814562
0.000814089
0.000813521
0.000812859
0.0008121
0.000811241
0.00081028
0.000809211
0.000808036
0.000806757
0.00080538
0.000803909
0.000802349
0.000800701
0.000798963
0.000797132
0.000795204
0.000793174
0.000791038
0.000788794
0.000786438
0.000783968
0.000781384
0.000778684
0.000775868
0.000772935
0.000769886
0.000766722
0.000763443
0.000760049
0.000756543
0.000752925
0.000749197
0.000745361
0.000741419
0.000737374