/*--------------------------------*- C++ -*----------------------------------*\
| =========                 |                                                 |
| \\      /  F ield         | OpenFOAM: The Open Source CFD Toolbox           |
|  \\    /   O peration     | Version:  2412                                  |
|   \\  /    A nd           | Website:  www.openfoam.com                      |
|    \\/     M anipulation  |                                                 |
\*---------------------------------------------------------------------------*/
FoamFile
{
    version     2.0;
    format      ascii;
    arch        "LSB;label=32;scalar=64";
    class       volScalarField;
    location    "7";
    object      p;
}
// * * * * * * * * * * * * * * * * * * * * * * * * * * * * * * * * * * * * * //

dimensions      [0 2 -2 0 0 0 0];

internalField   nonuniform List<scalar> 
5285
(
0.00117875
0.00117948
0.00117992
0.00118005
0.00117982
0.00117922
0.00117821
0.00117674
0.00117477
0.00117226
0.00116917
0.00116544
0.00116102
0.00115586
0.00114989
0.00114304
0.0011634
0.00116364
0.00116359
0.00116321
0.00116247
0.00116134
0.00115979
0.00115778
0.00115527
0.00115221
0.00114857
0.00114428
0.00113932
0.00113361
0.0011271
0.00111973
0.00114829
0.00114808
0.00114755
0.0011467
0.00114548
0.00114386
0.00114181
0.00113929
0.00113627
0.00113271
0.00112855
0.00112377
0.0011183
0.0011121
0.00110511
0.00109728
0.00113345
0.0011328
0.00113184
0.00113053
0.00112885
0.00112677
0.00112426
0.00112128
0.00111779
0.00111376
0.00110914
0.00110389
0.00109796
0.00109132
0.0010839
0.00107567
0.00111887
0.00111782
0.00111644
0.00111471
0.00111261
0.0011101
0.00110715
0.00110374
0.00109982
0.00109535
0.00109031
0.00108464
0.00107831
0.00107127
0.00106347
0.00105487
0.00110458
0.00110314
0.00110137
0.00109924
0.00109674
0.00109383
0.00109049
0.00108667
0.00108235
0.0010775
0.00107207
0.00106602
0.00105932
0.00105193
0.0010438
0.00103488
0.00109057
0.00108876
0.00108663
0.00108414
0.00108126
0.00107798
0.00107427
0.00107008
0.0010654
0.00106018
0.0010544
0.00104802
0.00104099
0.00103328
0.00102486
0.00101567
0.00107685
0.0010747
0.00107222
0.00106939
0.00106617
0.00106255
0.00105849
0.00105397
0.00104895
0.00104341
0.00103731
0.00103062
0.0010233
0.00101532
0.00100663
0.000997213
0.00106342
0.00106096
0.00105816
0.001055
0.00105147
0.00104752
0.00104315
0.00103832
0.001033
0.00102716
0.00102078
0.00101381
0.00100624
0.000998014
0.000989111
0.000979492
0.00105029
0.00104753
0.00104443
0.00104098
0.00103715
0.00103291
0.00102825
0.00102314
0.00101754
0.00101144
0.0010048
0.000997591
0.000989788
0.000981356
0.000972265
0.000962481
0.00103746
0.00103442
0.00103104
0.00102731
0.00102321
0.00101871
0.00101378
0.00100841
0.00100256
0.000996223
0.000989356
0.000981936
0.000973935
0.000965325
0.000956075
0.000946157
0.00102493
0.00102163
0.00101799
0.00101401
0.00100965
0.0010049
0.000999737
0.000994131
0.000988064
0.000981508
0.00097444
0.000966834
0.000958663
0.000949901
0.00094052
0.000930495
0.0010127
0.00100915
0.00100528
0.00100106
0.000996473
0.000991497
0.000986113
0.000980297
0.000974028
0.000967283
0.000960038
0.00095227
0.000943953
0.000935065
0.000925579
0.000915471
0.00100076
0.000996992
0.0009929
0.000988463
0.000983664
0.000978484
0.000972901
0.000966896
0.000960448
0.000953536
0.000946137
0.000938229
0.00092979
0.000920798
0.000911229
0.000901062
0.000989119
0.000985145
0.000980849
0.000976214
0.000971222
0.000965855
0.000960094
0.00095392
0.000947313
0.000940254
0.000932721
0.000924695
0.000916155
0.00090708
0.00089745
0.000887244
0.000977772
0.000973607
0.000969125
0.000964308
0.000959141
0.000953605
0.000947684
0.000941359
0.000934612
0.000927425
0.000919778
0.000911653
0.000903031
0.000893893
0.00088422
0.000873993
0.000966716
0.000962375
0.000957722
0.00095274
0.000947413
0.000941726
0.000935662
0.000929203
0.000922334
0.000915037
0.000907294
0.000899088
0.000890401
0.000881217
0.000871518
0.000861288
0.000955947
0.000951445
0.000946635
0.000941503
0.000936032
0.000930209
0.000924018
0.000917442
0.000910467
0.000903076
0.000895254
0.000886983
0.000878248
0.000869034
0.000859325
0.000849106
0.000945463
0.000940813
0.00093586
0.000930591
0.000924992
0.000919047
0.000912744
0.000906066
0.000899
0.000891531
0.000883643
0.000875323
0.000866555
0.000857325
0.00084762
0.000837425
0.000935257
0.000930472
0.00092539
0.000919998
0.000914283
0.000908231
0.00090183
0.000895064
0.000887921
0.000880388
0.000872449
0.000864093
0.000855305
0.000846072
0.000836383
0.000826224
0.00102704
0.00102987
0.00102792
0.00102982
0.00103074
0.00103189
0.00103347
0.00103515
0.00103702
0.00102496
0.00102779
0.00102582
0.0010277
0.00102859
0.00102969
0.00103123
0.00103284
0.00103465
0.00103665
0.00103881
0.00104114
0.00104363
0.00104627
0.00104905
0.00105196
0.001055
0.00105816
0.00106142
0.00106479
0.00106825
0.0010718
0.00107542
0.00107911
0.00108287
0.00108667
0.00109053
0.00109441
0.00109833
0.00110226
0.0011062
0.00111015
0.00111408
0.00111799
0.00112188
0.00112572
0.00112952
0.00113326
0.00113692
0.00114051
0.00114401
0.00114741
0.0011507
0.00115386
0.0011569
0.00115979
0.00116253
0.00116511
0.00116752
0.00116974
0.00117177
0.0011736
0.00117522
0.00117662
0.00117779
0.00102284
0.00102567
0.00102369
0.00102555
0.0010264
0.00102746
0.00102895
0.0010305
0.00103224
0.00103416
0.00103624
0.00103848
0.00104086
0.00104339
0.00104606
0.00104885
0.00105175
0.00105477
0.00105788
0.00106109
0.00106439
0.00106776
0.0010712
0.0010747
0.00107825
0.00108185
0.00108548
0.00108913
0.00109281
0.00109649
0.00110018
0.00110385
0.0011075
0.00111113
0.00111471
0.00111825
0.00112173
0.00112514
0.00112847
0.00113172
0.00113486
0.0011379
0.00114081
0.0011436
0.00114624
0.00114874
0.00115108
0.00115324
0.00115523
0.00115703
0.00115864
0.00116003
0.00116121
0.00116217
0.0011629
0.00102068
0.00102351
0.00102152
0.00102335
0.00102418
0.00102519
0.00102663
0.00102812
0.00102979
0.00103163
0.00103363
0.00103577
0.00103806
0.00104048
0.00104303
0.00104569
0.00104847
0.00105134
0.00105431
0.00105736
0.00106048
0.00106368
0.00106694
0.00107024
0.00107359
0.00107698
0.00108039
0.00108382
0.00108726
0.00109069
0.00109412
0.00109753
0.0011009
0.00110424
0.00110754
0.00111077
0.00111394
0.00111703
0.00112003
0.00112294
0.00112573
0.00112841
0.00113097
0.00113338
0.00113565
0.00113776
0.00113971
0.00114148
0.00114307
0.00114446
0.00114565
0.00114663
0.00114739
0.00114793
0.00114823
0.0010185
0.00102132
0.00101932
0.00102113
0.00102192
0.00102289
0.00102428
0.00102571
0.00102731
0.00102907
0.00103098
0.00103303
0.00103522
0.00103753
0.00103996
0.0010425
0.00104514
0.00104787
0.00105069
0.00105358
0.00105654
0.00105957
0.00106264
0.00106575
0.0010689
0.00107208
0.00107527
0.00107847
0.00108167
0.00108486
0.00108804
0.00109118
0.00109429
0.00109735
0.00110035
0.00110329
0.00110615
0.00110893
0.0011116
0.00111418
0.00111664
0.00111897
0.00112117
0.00112323
0.00112513
0.00112687
0.00112844
0.00112983
0.00113103
0.00113203
0.00113282
0.00113341
0.00113377
0.0011339
0.0011338
0.00101627
0.0010191
0.00101708
0.00101887
0.00101962
0.00102056
0.00102189
0.00102326
0.00102479
0.00102648
0.0010283
0.00103025
0.00103234
0.00103454
0.00103686
0.00103927
0.00104178
0.00104437
0.00104704
0.00104977
0.00105257
0.00105542
0.00105831
0.00106123
0.00106418
0.00106715
0.00107012
0.0010731
0.00107607
0.00107902
0.00108194
0.00108482
0.00108766
0.00109045
0.00109317
0.00109581
0.00109837
0.00110084
0.0011032
0.00110546
0.00110759
0.00110958
0.00111144
0.00111315
0.0011147
0.00111608
0.00111728
0.0011183
0.00111913
0.00111975
0.00112017
0.00112037
0.00112035
0.0011201
0.00111962
0.00101402
0.00101685
0.00101481
0.00101657
0.0010173
0.00101819
0.00101947
0.00102078
0.00102224
0.00102385
0.00102558
0.00102745
0.00102943
0.00103152
0.00103372
0.00103601
0.00103838
0.00104083
0.00104335
0.00104593
0.00104856
0.00105124
0.00105394
0.00105668
0.00105943
0.00106219
0.00106496
0.00106771
0.00107045
0.00107316
0.00107583
0.00107846
0.00108104
0.00108355
0.00108599
0.00108835
0.00109062
0.00109278
0.00109484
0.00109678
0.00109858
0.00110026
0.00110178
0.00110315
0.00110436
0.00110539
0.00110624
0.00110691
0.00110738
0.00110764
0.0011077
0.00110754
0.00110715
0.00110654
0.0011057
0.00101173
0.00101456
0.00101252
0.00101425
0.00101494
0.00101579
0.00101702
0.00101827
0.00101966
0.00102119
0.00102284
0.00102461
0.00102649
0.00102847
0.00103055
0.00103272
0.00103496
0.00103727
0.00103964
0.00104206
0.00104453
0.00104703
0.00104956
0.0010521
0.00105466
0.00105722
0.00105977
0.0010623
0.00106481
0.00106728
0.00106972
0.00107209
0.00107441
0.00107666
0.00107883
0.0010809
0.00108288
0.00108476
0.00108651
0.00108814
0.00108964
0.001091
0.0010922
0.00109324
0.00109412
0.00109482
0.00109533
0.00109566
0.00109578
0.0010957
0.00109542
0.00109491
0.00109418
0.00109323
0.00109204
0.00100941
0.00101224
0.00101019
0.0010119
0.00101256
0.00101337
0.00101454
0.00101573
0.00101705
0.0010185
0.00102006
0.00102174
0.00102352
0.00102539
0.00102736
0.0010294
0.00103151
0.00103368
0.0010359
0.00103817
0.00104047
0.0010428
0.00104515
0.00104751
0.00104987
0.00105223
0.00105457
0.00105688
0.00105917
0.00106141
0.0010636
0.00106573
0.0010678
0.00106978
0.00107168
0.00107349
0.00107519
0.00107677
0.00107824
0.00107957
0.00108077
0.00108181
0.0010827
0.00108343
0.00108399
0.00108436
0.00108456
0.00108455
0.00108435
0.00108395
0.00108333
0.0010825
0.00108144
0.00108016
0.00107865
0.00100707
0.0010099
0.00100784
0.00100952
0.00101015
0.00101092
0.00101204
0.00101316
0.00101441
0.00101578
0.00101726
0.00101884
0.00102052
0.00102229
0.00102413
0.00102605
0.00102803
0.00103006
0.00103214
0.00103425
0.00103639
0.00103855
0.00104072
0.0010429
0.00104507
0.00104722
0.00104936
0.00105146
0.00105352
0.00105554
0.00105749
0.00105938
0.0010612
0.00106293
0.00106456
0.0010661
0.00106753
0.00106883
0.00107001
0.00107106
0.00107196
0.00107271
0.0010733
0.00107372
0.00107397
0.00107404
0.00107392
0.00107361
0.0010731
0.00107238
0.00107145
0.0010703
0.00106894
0.00106735
0.00106553
0.0010047
0.00100753
0.00100546
0.00100712
0.00100772
0.00100844
0.00100951
0.00101057
0.00101174
0.00101304
0.00101443
0.00101592
0.0010175
0.00101916
0.00102089
0.00102268
0.00102453
0.00102642
0.00102835
0.00103031
0.00103229
0.00103429
0.00103628
0.00103827
0.00104025
0.00104221
0.00104414
0.00104603
0.00104788
0.00104967
0.00105139
0.00105304
0.00105461
0.00105609
0.00105748
0.00105875
0.00105991
0.00106095
0.00106185
0.00106262
0.00106324
0.0010637
0.001064
0.00106413
0.00106408
0.00106386
0.00106344
0.00106283
0.00106202
0.001061
0.00105977
0.00105833
0.00105668
0.0010548
0.0010527
0.0010023
0.00100514
0.00100306
0.00100469
0.00100526
0.00100593
0.00100695
0.00100795
0.00100905
0.00101027
0.00101157
0.00101297
0.00101445
0.001016
0.00101762
0.00101929
0.00102101
0.00102276
0.00102455
0.00102636
0.00102818
0.00103001
0.00103183
0.00103364
0.00103543
0.0010372
0.00103892
0.00104061
0.00104224
0.00104381
0.0010453
0.00104672
0.00104806
0.00104929
0.00105043
0.00105145
0.00105235
0.00105312
0.00105376
0.00105425
0.0010546
0.00105478
0.0010548
0.00105465
0.00105432
0.00105381
0.00105311
0.00105221
0.00105112
0.00104982
0.00104831
0.00104659
0.00104466
0.00104251
0.00104014
0.000999883
0.00100272
0.00100064
0.00100224
0.00100277
0.00100341
0.00100437
0.00100531
0.00100634
0.00100748
0.0010087
0.00101
0.00101138
0.00101283
0.00101433
0.00101588
0.00101747
0.00101909
0.00102073
0.00102239
0.00102405
0.00102571
0.00102737
0.001029
0.00103061
0.00103218
0.00103371
0.00103519
0.00103661
0.00103796
0.00103924
0.00104043
0.00104153
0.00104253
0.00104342
0.00104419
0.00104484
0.00104536
0.00104574
0.00104597
0.00104605
0.00104597
0.00104572
0.0010453
0.0010447
0.00104391
0.00104294
0.00104177
0.00104041
0.00103884
0.00103706
0.00103508
0.00103289
0.00103048
0.00102786
0.000997443
0.00100029
0.000998197
0.000999769
0.00100027
0.00100086
0.00100177
0.00100264
0.0010036
0.00100466
0.0010058
0.00100701
0.0010083
0.00100964
0.00101103
0.00101246
0.00101392
0.0010154
0.0010169
0.00101841
0.00101992
0.00102142
0.0010229
0.00102436
0.00102578
0.00102717
0.0010285
0.00102978
0.00103099
0.00103213
0.00103319
0.00103416
0.00103503
0.0010358
0.00103646
0.00103699
0.00103739
0.00103766
0.00103779
0.00103777
0.00103759
0.00103726
0.00103675
0.00103607
0.00103521
0.00103416
0.00103293
0.00103151
0.00102988
0.00102806
0.00102604
0.00102381
0.00102137
0.00101872
0.00101586
0.000994983
0.00099783
0.000995739
0.000997279
0.000997752
0.000998297
0.000999148
0.000999957
0.00100085
0.00100183
0.00100289
0.00100401
0.00100519
0.00100643
0.00100771
0.00100902
0.00101035
0.0010117
0.00101306
0.00101442
0.00101578
0.00101711
0.00101843
0.00101971
0.00102096
0.00102216
0.0010233
0.00102439
0.0010254
0.00102633
0.00102718
0.00102793
0.00102858
0.00102912
0.00102954
0.00102984
0.00103001
0.00103004
0.00102993
0.00102966
0.00102924
0.00102866
0.0010279
0.00102697
0.00102586
0.00102457
0.00102309
0.00102142
0.00101956
0.00101749
0.00101523
0.00101277
0.0010101
0.00100722
0.00100415
0.000992507
0.000995358
0.000993265
0.000994772
0.000995215
0.000995713
0.000996506
0.000997251
0.000998073
0.00099898
0.000999952
0.00100099
0.00100207
0.00100321
0.00100437
0.00100556
0.00100677
0.00100799
0.00100921
0.00101043
0.00101163
0.00101281
0.00101396
0.00101508
0.00101615
0.00101716
0.00101812
0.00101901
0.00101982
0.00102055
0.00102119
0.00102173
0.00102217
0.00102249
0.00102269
0.00102276
0.0010227
0.0010225
0.00102215
0.00102165
0.00102099
0.00102017
0.00101917
0.00101801
0.00101666
0.00101513
0.00101342
0.00101152
0.00100942
0.00100713
0.00100465
0.00100196
0.000999077
0.000995994
0.000992712
0.000990017
0.00099287
0.000990779
0.00099225
0.000992662
0.000993112
0.000993846
0.000994527
0.000995279
0.000996112
0.000997002
0.000997949
0.000998942
0.000999971
0.00100103
0.0010021
0.00100319
0.00100428
0.00100536
0.00100643
0.00100748
0.00100851
0.0010095
0.00101044
0.00101134
0.00101218
0.00101295
0.00101365
0.00101427
0.0010148
0.00101524
0.00101557
0.0010158
0.00101591
0.00101589
0.00101574
0.00101546
0.00101504
0.00101446
0.00101374
0.00101285
0.0010118
0.00101058
0.00100918
0.00100761
0.00100586
0.00100392
0.0010018
0.000999484
0.00099698
0.000994283
0.000991392
0.000988307
0.000985028
0.000981555
0.000987515
0.00099037
0.000988282
0.000989714
0.000990096
0.000990495
0.000991168
0.000991785
0.000992469
0.000993228
0.000994039
0.000994899
0.000995798
0.000996725
0.000997673
0.000998632
0.000999595
0.00100055
0.0010015
0.00100243
0.00100334
0.00100421
0.00100504
0.00100582
0.00100655
0.00100721
0.0010078
0.00100832
0.00100875
0.00100909
0.00100933
0.00100946
0.00100948
0.00100938
0.00100915
0.0010088
0.0010083
0.00100766
0.00100687
0.00100592
0.00100482
0.00100355
0.00100211
0.0010005
0.00099871
0.000996744
0.000994595
0.000992263
0.000989744
0.000987038
0.000984143
0.000981059
0.000977786
0.000974325
0.000970675
0.000985004
0.000987859
0.000985777
0.000987166
0.000987518
0.000987863
0.000988473
0.000989027
0.000989643
0.00099033
0.000991063
0.000991837
0.000992644
0.000993472
0.000994312
0.000995157
0.000995999
0.000996831
0.000997645
0.000998436
0.000999194
0.000999914
0.00100059
0.00100121
0.00100177
0.00100226
0.00100268
0.00100301
0.00100326
0.00100341
0.00100345
0.00100339
0.00100321
0.00100291
0.00100248
0.00100192
0.00100122
0.00100037
0.000999368
0.000998214
0.000996899
0.00099542
0.000993773
0.000991955
0.000989963
0.000987793
0.000985444
0.000982915
0.000980202
0.000977306
0.000974226
0.000970962
0.000967513
0.000963882
0.000960069
0.000982487
0.000985339
0.000983264
0.000984607
0.00098493
0.000985218
0.000985764
0.000986254
0.000986803
0.000987419
0.000988076
0.000988767
0.000989482
0.000990211
0.000990945
0.000991678
0.0009924
0.000993107
0.00099379
0.000994442
0.000995058
0.000995629
0.000996149
0.00099661
0.000997007
0.00099733
0.000997575
0.000997734
0.000997799
0.000997766
0.000997626
0.000997374
0.000997003
0.000996508
0.000995882
0.00099512
0.000994217
0.000993168
0.000991967
0.000990612
0.000989096
0.000987418
0.000985572
0.000983557
0.00098137
0.000979008
0.000976469
0.000973753
0.000970858
0.000967784
0.000964531
0.000961098
0.000957486
0.000953698
0.000949733
0.000979962
0.00098282
0.000980741
0.000982039
0.000982332
0.000982561
0.00098304
0.000983468
0.000983951
0.000984499
0.000985081
0.000985689
0.000986315
0.000986946
0.000987576
0.000988197
0.000988802
0.000989385
0.000989938
0.000990455
0.00099093
0.000991355
0.000991724
0.00099203
0.000992267
0.000992426
0.000992502
0.000992489
0.000992379
0.000992167
0.000991845
0.000991409
0.000990851
0.000990167
0.000989351
0.000988398
0.000987303
0.000986061
0.000984667
0.000983119
0.000981412
0.000979542
0.000977507
0.000975305
0.000972932
0.000970388
0.000967671
0.000964779
0.000961713
0.000958472
0.000955056
0.000951466
0.000947703
0.000943769
0.000939665
0.000977482
0.000980361
0.000978258
0.000979515
0.000979779
0.000979946
0.000980362
0.000980728
0.000981149
0.000981631
0.000982141
0.00098267
0.000983209
0.000983746
0.000984275
0.000984788
0.00098528
0.000985743
0.000986171
0.000986558
0.000986898
0.000987183
0.000987407
0.000987564
0.000987647
0.000987649
0.000987564
0.000987386
0.000987109
0.000986726
0.000986232
0.00098562
0.000984886
0.000984023
0.000983027
0.000981893
0.000980617
0.000979193
0.000977619
0.000975889
0.000974002
0.000971954
0.000969743
0.000967366
0.000964822
0.000962109
0.000959226
0.000956172
0.000952948
0.000949554
0.00094599
0.000942257
0.000938356
0.00093429
0.000930061
0.000975034
0.000977916
0.000975817
0.000977004
0.000977252
0.000977354
0.000977703
0.000978011
0.00097837
0.000978788
0.000979229
0.000979681
0.000980135
0.000980581
0.000981011
0.000981419
0.0009818
0.000982147
0.000982454
0.000982714
0.000982922
0.000983071
0.000983155
0.000983167
0.000983102
0.000982952
0.000982712
0.000982376
0.000981937
0.00098139
0.00098073
0.00097995
0.000979046
0.000978013
0.000976845
0.000975539
0.000974089
0.000972493
0.000970746
0.000968846
0.000966788
0.000964572
0.000962194
0.000959653
0.000956948
0.000954076
0.000951039
0.000947835
0.000944464
0.000940928
0.000937227
0.000933362
0.000929336
0.000925149
0.000920806
0.000972539
0.000975421
0.000973333
0.00097443
0.000974672
0.000974704
0.000974984
0.000975234
0.000975531
0.000975884
0.000976255
0.00097663
0.000976999
0.000977353
0.000977684
0.000977987
0.000978257
0.000978487
0.000978672
0.000978805
0.000978882
0.000978895
0.000978838
0.000978706
0.000978493
0.000978192
0.000977797
0.000977303
0.000976705
0.000975995
0.000975171
0.000974225
0.000973153
0.000971951
0.000970614
0.000969138
0.000967519
0.000965754
0.000963839
0.000961771
0.000959548
0.000957168
0.000954629
0.000951929
0.000949068
0.000946044
0.000942858
0.000939509
0.000935999
0.000932327
0.000928496
0.000924507
0.000920361
0.000916062
0.000911612
0.000969993
0.000972882
0.000970798
0.000971794
0.000972037
0.000971996
0.000972205
0.000972398
0.000972633
0.000972921
0.000973222
0.000973519
0.000973802
0.000974063
0.000974294
0.000974492
0.00097465
0.000974763
0.000974826
0.000974832
0.000974777
0.000974654
0.000974458
0.000974182
0.000973821
0.000973369
0.000972821
0.000972171
0.000971414
0.000970544
0.000969557
0.000968447
0.00096721
0.000965842
0.000964339
0.000962697
0.000960912
0.000958981
0.000956902
0.000954671
0.000952287
0.000949748
0.000947053
0.0009442
0.000941188
0.000938018
0.000934689
0.000931203
0.000927559
0.000923759
0.000919804
0.000915697
0.00091144
0.000907035
0.000902486
0.000967397
0.000970297
0.000968213
0.000969096
0.000969345
0.000969231
0.000969368
0.000969505
0.000969677
0.0009699
0.00097013
0.000970348
0.000970545
0.000970712
0.000970843
0.000970935
0.000970981
0.000970977
0.000970917
0.000970797
0.00097061
0.000970351
0.000970015
0.000969596
0.000969089
0.000968488
0.000967787
0.000966982
0.000966068
0.000965039
0.000963892
0.00096262
0.000961221
0.00095969
0.000958024
0.000956219
0.000954272
0.000952179
0.00094994
0.000947551
0.000945011
0.000942318
0.000939472
0.00093647
0.000933315
0.000930004
0.000926539
0.000922921
0.00091915
0.000915228
0.000911158
0.00090694
0.000902579
0.000898076
0.000893435
0.000964749
0.000967665
0.000965577
0.000966338
0.000966597
0.000966412
0.000966476
0.000966558
0.000966667
0.000966822
0.00096698
0.000967118
0.000967227
0.0009673
0.000967332
0.000967316
0.00096725
0.000967129
0.000966947
0.0009667
0.000966382
0.000965988
0.000965513
0.000964952
0.000964299
0.000963549
0.000962698
0.000961739
0.00096067
0.000959484
0.000958179
0.000956748
0.00095519
0.000953499
0.000951673
0.000949708
0.000947603
0.000945353
0.000942958
0.000940416
0.000937724
0.000934883
0.000931891
0.000928747
0.000925453
0.000922008
0.000918413
0.00091467
0.000910779
0.000906743
0.000902563
0.000898242
0.000893783
0.00088919
0.000884464
0.000962051
0.000964983
0.000962892
0.00096352
0.000963793
0.00096354
0.000963531
0.000963557
0.000963602
0.000963688
0.000963773
0.00096383
0.000963852
0.00096383
0.00096376
0.000963638
0.00096346
0.000963221
0.000962917
0.000962543
0.000962094
0.000961566
0.000960953
0.00096025
0.000959453
0.000958556
0.000957555
0.000956446
0.000955223
0.000953883
0.000952422
0.000950835
0.00094912
0.000947272
0.00094529
0.00094317
0.00094091
0.000938508
0.000935962
0.000933271
0.000930433
0.000927448
0.000924316
0.000921037
0.00091761
0.000914037
0.000910319
0.000906457
0.000902452
0.000898308
0.000894026
0.000889609
0.000885061
0.000880383
0.000875581
0.0009593
0.000962251
0.000960158
0.000960641
0.000960932
0.000960617
0.000960534
0.000960506
0.000960487
0.000960502
0.000960511
0.000960487
0.000960419
0.000960302
0.000960131
0.000959901
0.000959611
0.000959255
0.000958829
0.000958329
0.00095775
0.000957088
0.000956338
0.000955495
0.000954554
0.000953512
0.000952363
0.000951104
0.000949731
0.000948239
0.000946624
0.000944884
0.000943016
0.000941015
0.000938881
0.000936609
0.000934199
0.000931649
0.000928956
0.000926121
0.000923143
0.00092002
0.000916754
0.000913344
0.000909791
0.000906096
0.000902261
0.000898287
0.000894176
0.000889931
0.000885554
0.000881048
0.000876417
0.000871663
0.000866791
0.000956497
0.000959467
0.000957376
0.000957704
0.000958016
0.000957646
0.000957487
0.000957406
0.000957321
0.000957263
0.000957195
0.000957088
0.00095693
0.000956717
0.000956444
0.000956108
0.000955705
0.000955232
0.000954685
0.000954059
0.000953351
0.000952556
0.000951669
0.000950687
0.000949605
0.000948419
0.000947125
0.000945719
0.000944197
0.000942555
0.000940791
0.000938901
0.000936882
0.000934732
0.000932449
0.000930031
0.000927475
0.000924781
0.000921947
0.000918974
0.000915859
0.000912605
0.00090921
0.000905675
0.000902003
0.000898193
0.000894247
0.000890168
0.000885957
0.000881618
0.000877153
0.000872565
0.000867858
0.000863035
0.0008581
0.00095364
0.000956631
0.000954546
0.000954711
0.000955045
0.000954627
0.000954393
0.000954258
0.000954108
0.000953974
0.000953828
0.000953635
0.000953387
0.000953077
0.000952702
0.000952259
0.000951744
0.000951154
0.000950486
0.000949735
0.000948899
0.000947972
0.000946951
0.000945831
0.000944609
0.000943282
0.000941844
0.000940293
0.000938625
0.000936836
0.000934925
0.000932889
0.000930724
0.000928428
0.000926001
0.000923439
0.000920742
0.00091791
0.00091494
0.000911833
0.000908589
0.000905208
0.00090169
0.000898038
0.000894251
0.000890332
0.000886282
0.000882105
0.000877801
0.000873375
0.000868829
0.000864166
0.00085939
0.000854505
0.000849515
0.000950729
0.000953742
0.000951669
0.000951663
0.000952019
0.000951563
0.000951252
0.000951062
0.000950847
0.000950636
0.000950409
0.000950131
0.000949791
0.000949384
0.000948907
0.000948357
0.00094773
0.000947024
0.000946236
0.000945361
0.000944397
0.00094334
0.000942185
0.00094093
0.00093957
0.000938102
0.000936523
0.00093483
0.000933019
0.000931087
0.000929032
0.000926852
0.000924545
0.000922108
0.00091954
0.00091684
0.000914007
0.000911041
0.00090794
0.000904705
0.000901337
0.000897835
0.000894201
0.000890436
0.000886542
0.000882521
0.000878374
0.000874104
0.000869715
0.000865208
0.000860587
0.000855856
0.000851019
0.000846079
0.00084104
0.000947762
0.000950801
0.000948746
0.000948562
0.00094894
0.000948454
0.000948066
0.00094782
0.00094754
0.00094725
0.000946941
0.000946576
0.000946144
0.00094564
0.000945061
0.000944403
0.000943665
0.000942844
0.000941936
0.000940938
0.000939848
0.000938662
0.000937375
0.000935986
0.00093449
0.000932885
0.000931167
0.000929334
0.000927383
0.000925311
0.000923117
0.000920797
0.000918351
0.000915777
0.000913073
0.00091024
0.000907275
0.00090418
0.000900953
0.000897596
0.000894109
0.000890493
0.000886748
0.000882878
0.000878882
0.000874765
0.000870527
0.000866173
0.000861703
0.000857123
0.000852435
0.000847643
0.00084275
0.000837762
0.000832681
0.00094474
0.000947806
0.000945778
0.00094541
0.000945808
0.000945301
0.000944835
0.000944533
0.000944188
0.000943818
0.000943425
0.000942973
0.000942448
0.000941846
0.000941165
0.000940401
0.000939552
0.000938616
0.00093759
0.00093647
0.000935255
0.000933941
0.000932525
0.000931004
0.000929374
0.000927634
0.00092578
0.000923811
0.000921722
0.000919514
0.000917183
0.000914727
0.000912147
0.00090944
0.000906605
0.000903643
0.000900552
0.000897333
0.000893986
0.000890512
0.000886912
0.000883187
0.000879338
0.000875368
0.000871278
0.000867071
0.000862749
0.000858316
0.000853774
0.000849126
0.000844378
0.000839531
0.00083459
0.000829559
0.000824443
0.000941663
0.000944759
0.000942767
0.000942211
0.000942624
0.000942105
0.00094156
0.0009412
0.000940791
0.000940342
0.000939863
0.000939323
0.000938705
0.000938006
0.000937222
0.000936352
0.000935393
0.000934343
0.0009332
0.00093196
0.000930621
0.000929181
0.000927637
0.000925986
0.000924226
0.000922353
0.000920366
0.000918263
0.000916041
0.000913699
0.000911235
0.000908649
0.000905938
0.000903102
0.000900141
0.000897055
0.000893843
0.000890506
0.000887044
0.000883459
0.000879752
0.000875924
0.000871977
0.000867913
0.000863735
0.000859444
0.000855045
0.000850539
0.000845931
0.000841224
0.00083642
0.000831525
0.000826543
0.000821477
0.000816331
0.000938531
0.000941662
0.000939712
0.000938966
0.000939389
0.000938867
0.000938243
0.000937822
0.000937351
0.000936821
0.000936257
0.000935628
0.000934917
0.00093412
0.000933235
0.00093226
0.000931192
0.000930029
0.000928769
0.00092741
0.00092595
0.000924386
0.000922716
0.000920938
0.000919049
0.000917047
0.00091493
0.000912696
0.000910344
0.000907873
0.00090528
0.000902566
0.000899729
0.00089677
0.000893687
0.000890482
0.000887154
0.000883704
0.000880133
0.000876443
0.000872634
0.00086871
0.00086467
0.000860519
0.000856259
0.000851892
0.000847421
0.00084285
0.000838182
0.00083342
0.000828569
0.000823632
0.000818614
0.000813519
0.00080835
0.000935346
0.000938514
0.000936617
0.000935676
0.000936104
0.000935588
0.000934885
0.0009344
0.000933868
0.000933258
0.000932608
0.000931891
0.000931087
0.000930193
0.000929207
0.000928127
0.00092695
0.000925676
0.000924301
0.000922825
0.000921246
0.00091956
0.000917766
0.000915863
0.000913848
0.000911719
0.000909475
0.000907115
0.000904637
0.000902039
0.000899322
0.000896485
0.000893527
0.000890448
0.000887249
0.00088393
0.000880491
0.000876934
0.00087326
0.00086947
0.000865566
0.00086155
0.000857425
0.000853193
0.000848856
0.000844419
0.000839883
0.000835252
0.00083053
0.000825721
0.000820829
0.000815856
0.000810809
0.00080569
0.000800504
0.00093211
0.000935318
0.000933481
0.000932346
0.000932771
0.000932268
0.000931487
0.000930936
0.000930344
0.000929656
0.000928919
0.000928113
0.000927217
0.000926226
0.00092514
0.000923956
0.000922672
0.000921287
0.0009198
0.000918208
0.000916511
0.000914706
0.000912791
0.000910766
0.000908628
0.000906375
0.000904008
0.000901524
0.000898923
0.000896204
0.000893367
0.000890411
0.000887336
0.000884143
0.000880833
0.000877404
0.00087386
0.000870201
0.000866429
0.000862545
0.000858552
0.000854451
0.000850246
0.000845939
0.000841533
0.000837031
0.000832436
0.000827752
0.000822983
0.000818133
0.000813204
0.000808202
0.000803131
0.000797995
0.000792798
0.000928824
0.000932075
0.000930308
0.000928976
0.00092939
0.00092891
0.000928051
0.000927431
0.000926781
0.000926015
0.000925192
0.000924298
0.00092331
0.000922223
0.000921037
0.00091975
0.000918361
0.000916867
0.000915269
0.000913564
0.000911751
0.000909829
0.000907796
0.000905651
0.000903393
0.00090102
0.000898533
0.000895929
0.00089321
0.000890373
0.00088742
0.00088435
0.000881163
0.000877861
0.000874443
0.000870912
0.000867268
0.000863512
0.000859648
0.000855676
0.000851599
0.00084742
0.00084314
0.000838764
0.000834294
0.000829734
0.000825086
0.000820356
0.000815545
0.000810659
0.000805701
0.000800675
0.000795586
0.000790438
0.000785235
0.000925491
0.000928788
0.000927097
0.000925569
0.000925964
0.000925513
0.000924579
0.000923887
0.000923179
0.000922338
0.000921429
0.000920447
0.000919368
0.000918186
0.000916902
0.000915514
0.00091402
0.00091242
0.000910712
0.000908896
0.00090697
0.000904933
0.000902784
0.000900523
0.000898148
0.000895659
0.000893055
0.000890336
0.000887501
0.000884552
0.000881487
0.000878307
0.000875013
0.000871606
0.000868088
0.000864458
0.000860719
0.000856873
0.000852922
0.000848868
0.000844713
0.00084046
0.000836113
0.000831674
0.000827146
0.000822534
0.000817839
0.000813067
0.000808221
0.000803305
0.000798323
0.00079328
0.000788178
0.000783023
0.00077782
0.000922113
0.00092546
0.000923853
0.000922128
0.000922495
0.00092208
0.000921073
0.000920306
0.000919542
0.000918628
0.000917633
0.000916565
0.000915396
0.000914121
0.000912739
0.000911251
0.000909655
0.000907949
0.000906134
0.000904208
0.000902172
0.000900023
0.000897761
0.000895387
0.000892898
0.000890296
0.00088758
0.000884749
0.000881804
0.000878745
0.000875573
0.000872289
0.000868893
0.000865386
0.000861771
0.000858049
0.000854221
0.00085029
0.000846257
0.000842126
0.0008379
0.00083358
0.00082917
0.000824674
0.000820095
0.000815435
0.0008107
0.000805892
0.000801017
0.000796076
0.000791076
0.000786019
0.000780911
0.000775754
0.000770555
0.000918695
0.000922092
0.000920576
0.000918656
0.000918984
0.000918613
0.000917537
0.000916691
0.000915872
0.000914888