/*--------------------------------*- C++ -*----------------------------------*\
| =========                 |                                                 |
| \\      /  F ield         | OpenFOAM: The Open Source CFD Toolbox           |
|  \\    /   O peration     | Version:  2412                                  |
|   \\  /    A nd           | Website:  www.openfoam.com                      |
|    \\/     M anipulation  |                                                 |
\*---------------------------------------------------------------------------*/
FoamFile
{
    version     2.0;
    format      ascii;
    arch        "LSB;label=32;scalar=64";
    class       surfaceScalarField;
    location    "7";
    object      phi;
}
// * * * * * * * * * * * * * * * * * * * * * * * * * * * * * * * * * * * * * //

dimensions      [0 3 -1 0 0 0 0];

oriented        oriented;

internalField   nonuniform List<scalar> 
10423
(
0.00523864
0.000171602
-0.00523789
0.00523955
0.000177167
0.00524061
0.000182912
0.00524186
0.000188838
0.0052433
0.000194945
0.00524495
0.000201234
0.00524682
0.000207707
0.00524895
0.000214364
0.00525133
0.000221206
0.005254
0.000228236
0.00525698
0.000235456
0.0052603
0.000242866
0.00526397
0.000250466
0.00526803
0.000258254
0.0052725
0.000266225
0.000274372
0.00524418
0.000170671
-0.00524325
0.00524527
0.000176081
0.00524652
0.000181659
0.00524796
0.000187403
0.00524959
0.000193313
0.00525143
0.000199391
0.00525351
0.000205635
0.00525582
0.000212046
0.0052584
0.000218624
0.00526127
0.000225369
0.00526445
0.000232283
0.00526795
0.000239363
0.0052718
0.00024661
0.00527604
0.000254019
0.00528068
0.000261584
0.000269297
0.00524957
0.000169572
-0.00524847
0.00525083
0.000174826
0.00525225
0.000180232
0.00525386
0.000185793
0.00525567
0.000191506
0.00525769
0.000197371
0.00525994
0.000203386
0.00526243
0.000209552
0.00526519
0.000215866
0.00526823
0.000222329
0.00527157
0.00022894
0.00527524
0.000235696
0.00527926
0.000242596
0.00528364
0.000249634
0.00528842
0.000256804
0.000264094
0.0052548
0.000168319
-0.00525355
0.00525621
0.000173412
0.0052578
0.000178647
0.00525957
0.000184023
0.00526154
0.000189538
0.00526372
0.00019519
0.00526613
0.000200977
0.00526878
0.000206899
0.00527169
0.000212952
0.00527489
0.000219136
0.00527838
0.000225449
0.00528219
0.000231887
0.00528633
0.000238448
0.00529084
0.000245125
0.00529574
0.000251909
0.000258791
0.00525987
0.000166922
-0.00525847
0.00526143
0.000171854
0.00526316
0.000176916
0.00526508
0.000182107
0.00526719
0.000187423
0.00526952
0.000192864
0.00527207
0.000198425
0.00527486
0.000204105
0.00527791
0.0002099
0.00528124
0.00021581
0.00528486
0.00022183
0.00528879
0.000227958
0.00529305
0.000234187
0.00529766
0.000240513
0.00530264
0.000246925
0.000253412
0.00526478
0.000165392
-0.00526325
0.00526647
0.000170163
0.00526834
0.000175052
0.00527038
0.000180058
0.00527263
0.000185177
0.00527509
0.000190407
0.00527777
0.000195744
0.00528069
0.000201186
0.00528386
0.000206728
0.0052873
0.000212369
0.00529103
0.000218103
0.00529506
0.000223927
0.00529941
0.000229836
0.0053041
0.000235821
0.00530915
0.000241873
0.00024798
0.00526953
0.00016374
-0.00526788
0.00527134
0.000168349
0.00527333
0.000173066
0.0052755
0.000177888
0.00527786
0.000182812
0.00528043
0.000187834
0.00528323
0.000192951
0.00528626
0.000198158
0.00528953
0.000203452
0.00529307
0.000208829
0.00529689
0.000214285
0.005301
0.000219814
0.00530543
0.000225411
0.00531018
0.000231067
0.00531528
0.000236772
0.000242514
0.00527411
0.000161976
-0.00527235
0.00527604
0.000166424
0.00527814
0.00017097
0.00528041
0.00017561
0.00528288
0.000180341
0.00528556
0.000185158
0.00528845
0.000190058
0.00529158
0.000195035
0.00529494
0.000200086
0.00529856
0.000205207
0.00530246
0.000210392
0.00530664
0.000215636
0.00531112
0.000220931
0.00531591
0.00022627
0.00532104
0.000231641
0.000237033
0.00527854
0.00016011
-0.00527667
0.00528057
0.000164399
0.00528276
0.000168775
0.00528514
0.000173235
0.0052877
0.000177776
0.00529047
0.000182392
0.00529345
0.000187079
0.00529665
0.000191832
0.00530009
0.000196646
0.00530378
0.000201517
0.00530773
0.000206439
0.00531196
0.000211407
0.00531648
0.000216412
0.00532131
0.000221445
0.00532645
0.000226497
0.000231554
0.00528281
0.000158152
-0.00528085
0.00528492
0.000162282
0.00528721
0.000166491
0.00528967
0.000170774
0.00529231
0.000175128
0.00529516
0.000179546
0.00529821
0.000184025
0.00530149
0.000188559
0.00530499
0.000193144
0.00530873
0.000197773
0.00531273
0.000202441
0.005317
0.000207142
0.00532154
0.000211867
0.00532638
0.000216608
0.00533152
0.000221354
0.000226091
0.00528691
0.00015611
-0.00528487
0.00528911
0.000160084
0.00529147
0.000164128
0.00529401
0.000168237
0.00529673
0.000172407
0.00529964
0.000176633
0.00530276
0.000180909
0.00530609
0.000185231
0.00530964
0.000189592
0.00531342
0.000193987
0.00531746
0.00019841
0.00532174
0.000202854
0.0053263
0.000207311
0.00533114
0.000211772
0.00533627
0.000216225
0.000220657
0.00529085
0.000153992
-0.00528873
0.00529312
0.000157813
0.00529556
0.000161694
0.00529816
0.000165633
0.00530094
0.000169624
0.00530391
0.000173662
0.00530708
0.000177741
0.00531046
0.000181856
0.00531405
0.000186001
0.00531786
0.00019017
0.00532192
0.000194357
0.00532622
0.000198555
0.00533077
0.000202755
0.0053356
0.000206948
0.0053407
0.000211122
0.000215264
0.00529464
0.000151808
-0.00529245
0.00529697
0.000155477
0.00529947
0.0001592
0.00530213
0.000162972
0.00530496
0.000166788
0.00530798
0.000170643
0.00531119
0.000174531
0.0053146
0.000178446
0.00531822
0.000182382
0.00532206
0.000186334
0.00532612
0.000190294
0.00533042
0.000194255
0.00533497
0.000198209
0.00533977
0.000202146
0.00534483
0.000206055
0.000209922
0.00529826
0.000149564
-0.00529602
0.00530065
0.000153085
0.0053032
0.000156652
0.00530591
0.000160261
0.00530879
0.000163907
0.00531185
0.000167584
0.00531509
0.000171287
0.00531853
0.000175009
0.00532217
0.000178744
0.00532602
0.000182487
0.00533008
0.00018623
0.00533437
0.000189965
0.00533889
0.000193685
0.00534366
0.000197378
0.00534868
0.000201034
0.000204641
0.00530173
0.000147268
-0.00529943
0.00530417
0.000150643
0.00530676
0.000154059
0.00530952
0.000157509
0.00531243
0.00016099
0.00531552
0.000164495
0.00531879
0.000168019
0.00532224
0.000171554
0.00532589
0.000175097
0.00532974
0.000178639
0.0053338
0.000182173
0.00533807
0.000185693
0.00534256
0.000189189
0.00534729
0.000192651
0.00535226
0.000196068
0.000199427
0.00530504
0.000144927
-0.0053027
0.00530753
0.00014816
0.00531016
0.000151428
0.00531294
0.000154724
0.00531589
0.000158044
0.005319
0.000161383
0.00532229
0.000164733
0.00532575
0.00016809
0.0053294
0.000171447
0.00533324
0.000174797
0.00533728
0.000178133
0.00534153
0.000181447
0.00534599
0.00018473
0.00535067
0.000187972
0.00535557
0.000191163
0.000194289
0.00530821
0.000142548
-0.00530583
0.00531073
0.000145642
0.00531339
0.000148766
0.00531621
0.000151912
0.00531917
0.000155077
0.0053223
0.000158254
0.0053256
0.000161439
0.00532906
0.000164623
0.00533271
0.000167802
0.00533653
0.000170969
0.00534055
0.000174115
0.00534477
0.000177234
0.00534918
0.000180315
0.0053538
0.000183349
0.00535864
0.000186325
0.00018923
0.00531124
0.000140137
-0.00530883
0.00531379
0.000143097
0.00531648
0.000146079
0.00531931
0.000149081
0.00532229
0.000152095
0.00532543
0.000155117
0.00532872
0.000158141
0.00533219
0.000161161
0.00533582
0.00016417
0.00533963
0.000167161
0.00534361
0.000170128
0.00534779
0.00017306
0.00535215
0.00017595
0.00535671
0.000178787
0.00536148
0.00018156
0.000184257
0.00531415
0.000137701
-0.00531171
0.00531672
0.000140529
0.00531942
0.000143376
0.00532226
0.000146236
0.00532525
0.000149105
0.00532839
0.000151978
0.00533169
0.000154848
0.00533514
0.00015771
0.00533875
0.000160556
0.00534253
0.000163381
0.00534648
0.000166175
0.00535061
0.000168931
0.00535492
0.00017164
0.00535942
0.00017429
0.00536411
0.000176872
0.000179374
0.00531694
-0.00531448
0.000135246
0.00531952
0.000137946
0.00532223
0.000140661
0.00532509
0.000143385
0.00532808
0.000146114
0.00533121
0.000148843
0.00533449
0.000151565
0.00533793
0.000154276
0.00534152
0.000156967
0.00534527
0.000159632
0.00534918
0.000162264
0.00535326
0.000164853
0.00535751
0.000167389
0.00536193
0.000169864
0.00536654
0.000172265
0.000174582
0.00529286
2.78602e-06
0.00529249
1.6974e-05
0.00529103
5.47576e-05
0.00528813
0.000104789
0.00528418
0.000143192
0.00527994
0.000157142
0.00527608
0.000150008
0.0052729
0.000132563
0.000114142
0.00529287
2.81426e-06
0.0052925
1.73446e-05
0.00529102
5.62312e-05
0.00528807
0.000107741
0.00528404
0.000147217
0.00527975
0.000161434
0.00527587
0.000153891
0.00527271
0.000135727
0.00527026
0.000116588
0.00526838
0.000101348
0.00526689
9.10244e-05
0.00526563
8.47749e-05
0.00526452
8.13409e-05
0.00526348
7.96845e-05
0.00526247
7.91197e-05
0.00526148
7.92426e-05
0.0052605
7.98267e-05
0.00525951
8.07447e-05
0.00525852
8.19206e-05
0.00525752
8.3305e-05
0.00525651
8.48622e-05
0.00525549
8.6565e-05
0.00525446
8.83914e-05
0.00525343
9.03233e-05
0.0052524
9.23456e-05
0.00525137
9.44452e-05
0.00525035
9.66111e-05
0.00524933
9.88336e-05
0.00524831
0.000101104
0.00524732
0.000103415
0.00524634
0.00010576
0.00524538
0.000108132
0.00524444
0.000110526
0.00524353
0.000112936
0.00524265
0.000115357
0.00524181
0.000117785
0.00524101
0.000120214
0.00524025
0.00012264
0.00523954
0.000125059
0.00523888
0.000127466
0.00523827
0.000129857
0.00523773
0.000132227
0.00523725
0.000134574
0.00523683
0.000136892
0.00523649
0.000139177
0.00523622
0.000141427
0.00523604
0.000143636
0.00523593
0.000145801
0.00523592
0.000147918
0.005236
0.000149984
0.00523617
0.000151995
0.00523644
0.000153947
0.00523682
0.000155836
0.0052373
0.00015766
0.000159414
0.00529287
2.83796e-06
0.0052925
1.77121e-05
0.00529101
5.77269e-05
0.005288
0.00011075
0.0052839
0.000151317
0.00527954
0.000165788
0.00527564
0.0001578
0.00527249
0.000138875
0.00527009
0.00011898
0.00526829
0.000103148
0.0052669
9.24228e-05
0.00526574
8.59266e-05
0.00526473
8.23524e-05
0.0052638
8.06221e-05
0.00526289
8.00224e-05
0.005262
8.01325e-05
0.00526111
8.07161e-05
0.00526022
8.16401e-05
0.00525931
8.28249e-05
0.0052584
8.4219e-05
0.00525748
8.57855e-05
0.00525655
8.74961e-05
0.00525561
8.93283e-05
0.00525467
9.12636e-05
0.00525373
9.32863e-05
0.00525279
9.53834e-05
0.00525186
9.75436e-05
0.00525093
9.9757e-05
0.00525002
0.000102015
0.00524913
0.00010431
0.00524825
0.000106635
0.0052474
0.000108984
0.00524658
0.00011135
0.00524578
0.00011373
0.00524502
0.000116116
0.0052443
0.000118505
0.00524363
0.000120891
0.005243
0.000123271
0.00524242
0.000125639
0.00524189
0.000127991
0.00524143
0.000130323
0.00524102
0.000132631
0.00524068
0.00013491
0.00524042
0.000137158
0.00524023
0.000139369
0.00524012
0.000141539
0.00524009
0.000143666
0.00524014
0.000145744
0.00524029
0.000147772
0.00524053
0.000149744
0.00524087
0.000151657
0.0052413
0.000153509
0.00524185
0.000155295
0.00524249
0.000157012
0.000158656
0.00529288
2.85682e-06
0.00529251
1.80767e-05
0.00529099
5.92481e-05
0.00528792
0.000113823
0.00528373
0.000155499
0.00527931
0.000170209
0.00527537
0.000161739
0.00527224
0.000142007
0.00526991
0.000121317
0.00526819
0.000104864
0.00526689
9.37205e-05
0.00526585
8.69704e-05
0.00526495
8.32548e-05
0.00526412
8.14528e-05
0.00526332
8.0822e-05
0.00526252
8.09233e-05
0.00526173
8.15102e-05
0.00526093
8.24431e-05
0.00526011
8.36393e-05
0.00525929
8.50447e-05
0.00525845
8.66213e-05
0.00525761
8.834e-05
0.00525676
9.01776e-05
0.00525591
9.21153e-05
0.00525506
9.41373e-05
0.00525421
9.62301e-05
0.00525337
9.83825e-05
0.00525254
0.000100585
0.00525173
0.000102828
0.00525094
0.000105104
0.00525017
0.000107406
0.00524942
0.000109729
0.00524871
0.000112065
0.00524802
0.00011441
0.00524738
0.000116759
0.00524678
0.000119106
0.00524623
0.000121446
0.00524572
0.000123776
0.00524527
0.00012609
0.00524487
0.000128384
0.00524454
0.000130655
0.00524428
0.000132897
0.00524408
0.000135107
0.00524396
0.000137281
0.00524391
0.000139415
0.00524394
0.000141504
0.00524406
0.000143546
0.00524427
0.000145537
0.00524457
0.000147472
0.00524497
0.000149349
0.00524546
0.000151165
0.00524605
0.000152915
0.00524675
0.000154596
0.00524756
0.000156206
0.000157741
0.00529288
2.87046e-06
0.00529252
1.84388e-05
0.00529097
6.07983e-05
0.00528782
0.000116967
0.00528355
0.000159773
0.00527905
0.000174706
0.00527508
0.000165711
0.00527197
0.000145121
0.00526969
0.000123593
0.00526806
0.00010649
0.00526687
9.49112e-05
0.00526594
8.79006e-05
0.00526516
8.40434e-05
0.00526443
8.2173e-05
0.00526374
8.15156e-05
0.00526305
8.16131e-05
0.00526235
8.22075e-05
0.00526164
8.31531e-05
0.00526092
8.43633e-05
0.00526018
8.5782e-05
0.00525943
8.73699e-05
0.00525868
8.9097e-05
0.00525792
9.09399e-05
0.00525715
9.28793e-05
0.00525639
9.48993e-05
0.00525563
9.69864e-05
0.00525489
9.91293e-05
0.00525415
0.000101318
0.00525344
0.000103544
0.00525274
0.000105799
0.00525207
0.000108076
0.00525143
0.000110369
0.00525082
0.000112673
0.00525025
0.000114981
0.00524972
0.000117289
0.00524924
0.000119591
0.0052488
0.000121883
0.00524842
0.00012416
0.00524809
0.000126417
0.00524782
0.000128651
0.00524762
0.000130857
0.00524749
0.000133031
0.00524743
0.00013517
0.00524744
0.000137268
0.00524753
0.000139322
0.00524771
0.000141329
0.00524797
0.000143284
0.00524832
0.000145185
0.00524876
0.000147028
0.0052493
0.000148809
0.00524994
0.000150525
0.00525069
0.000152173
0.00525153
0.00015375
0.00525248
0.000155253
0.000156678
0.00529289
2.8784e-06
0.00529253
1.87991e-05
0.00529094
6.23825e-05
0.00528772
0.000120193
0.00528334
0.000164149
0.00527876
0.000179288
0.00527475
0.000169719
0.00527165
0.000148217
0.00526944
0.000125802
0.00526792
0.000108018
0.00526684
9.59875e-05
0.00526603
8.87107e-05
0.00526536
8.4713e-05
0.00526476
8.27787e-05
0.00526417
8.21006e-05
0.00526358
8.22e-05
0.00526298
8.28071e-05
0.00526237
8.37695e-05
0.00526173
8.49969e-05
0.00526108
8.64311e-05
0.00526042
8.80316e-05
0.00525975
8.97678e-05
0.00525908
9.16159e-05
0.0052584
9.35565e-05
0.00525772
9.55735e-05
0.00525706
9.76536e-05
0.0052564
9.97852e-05
0.00525576
0.000101958
0.00525514
0.000104165
0.00525454
0.000106396
0.00525397
0.000108646
0.00525343
0.000110908
0.00525293
0.000113176
0.00525247
0.000115445
0.00525205
0.000117709
0.00525167
0.000119963
0.00525135
0.000122204
0.00525109
0.000124426
0.00525088
0.000126624
0.00525074
0.000128795
0.00525066
0.000130935
0.00525065
0.000133038
0.00525072
0.000135103
0.00525086
0.000137123
0.00525109
0.000139097
0.0052514
0.000141019
0.0052518
0.000142887
0.00525228
0.000144697
0.00525287
0.000146446
0.00525354
0.000148131
0.00525432
0.000149748
0.0052552
0.000151294
0.00525618
0.000152767
0.00525727
0.000154163
0.00015548
0.00529289
2.88e-06
0.00529253
1.91585e-05
0.00529091
6.40069e-05
0.00528759
0.000123512
0.0052831
0.000168642
0.00527842
0.000183962
0.00527437
0.000173766
0.0052713
0.000151289
0.00526917
0.000127939
0.00526774
0.000109439
0.00526679
9.69409e-05
0.00526611
8.93933e-05
0.00526556
8.52579e-05
0.00526508
8.32658e-05
0.0052646
8.2574e-05
0.00526412
8.26822e-05
0.00526362
8.33079e-05
0.0052631
8.42919e-05
0.00526255
8.55401e-05
0.00526199
8.69924e-05
0.00526142
8.86071e-05
0.00526083
9.03532e-05
0.00526024
9.22067e-05
0.00525965
9.4148e-05
0.00525906
9.61613e-05
0.00525848
9.8233e-05
0.00525792
0.000100352
0.00525737
0.000102508
0.00525684
0.000104693
0.00525634
0.000106899
0.00525586
0.000109119
0.00525542
0.000111347
0.00525502
0.000113577
0.00525466
0.000115804
0.00525435
0.000118022
0.00525409
0.000120227
0.00525388
0.000122413
0.00525373
0.000124578
0.00525364
0.000126715
0.00525361
0.000128821
0.00525365
0.000130892
0.00525377
0.000132924
0.00525396
0.000134912
0.00525423
0.000136854
0.00525458
0.000138745
0.00525502
0.000140582
0.00525554
0.000142362
0.00525616
0.00014408
0.00525687
0.000145735
0.00525768
0.000147323
0.00525859
0.00014884
0.0052596
0.000150285
0.00526071
0.000151655
0.00526192
0.000152945
0.000154155
0.0052929
2.87445e-06
0.00529254
1.95183e-05
0.00529087
6.56796e-05
0.00528744
0.000126939
0.00528281
0.000173268
0.00527804
0.000188741
0.00527395
0.000177854
0.0052709
0.000154335
0.00526885
0.000129992
0.00526755
0.000110743
0.00526672
9.77612e-05
0.00526618
8.99402e-05
0.00526576
8.56717e-05
0.0052654
8.36299e-05
0.00526504
8.29332e-05
0.00526466
8.30582e-05
0.00526426
8.37093e-05
0.00526384
8.47202e-05
0.00526338
8.59933e-05
0.00526291
8.74665e-05
0.00526242
8.90972e-05
0.00526192
9.08543e-05
0.00526141
9.27135e-05
0.0052609
9.46553e-05
0.0052604
9.6664e-05
0.00525991
9.87263e-05
0.00525943
0.000100831
0.00525897
0.000102968
0.00525853
0.00010513
0.00525812
0.000107308
0.00525774
0.000109496
0.0052574
0.000111688
0.0052571
0.000113878
0.00525684
0.000116061
0.00525663
0.000118231
0.00525648
0.000120384
0.00525637
0.000122515
0.00525633
0.00012462
0.00525635
0.000126694
0.00525644
0.000128733
0.0052566
0.000130734
0.00525683
0.000132692
0.00525714
0.000134603
0.00525753
0.000136465
0.005258
0.000138273
0.00525856
0.000140024
0.00525921
0.000141714
0.00525995
0.000143341
0.00526078
0.000144902
0.00526171
0.000146393
0.00526274
0.000147812
0.00526387
0.000149156
0.0052651
0.000150423
0.00526643
0.000151609
0.000152714
0.00529291
2.86072e-06
0.00529255
1.98806e-05
0.00529081
6.74112e-05
0.00528726
0.000130493
0.00528248
0.000178043
0.00527759
0.000193635
0.00527346
0.000181985
0.00527045
0.000157345
0.00526849
0.000131951
0.00526732
0.000111917
0.00526664
9.84368e-05
0.00526624
9.03421e-05
0.00526596
8.59479e-05
0.00526573
8.38666e-05
0.00526548
8.31755e-05
0.00526522
8.33266e-05
0.00526491
8.40108e-05
0.00526458
8.50547e-05
0.00526422
8.63571e-05
0.00526383
8.78543e-05
0.00526342
8.95032e-05
0.005263
9.12723e-05
0.00526258
9.31375e-05
0.00526216
9.50797e-05
0.00526174
9.70833e-05
0.00526133
9.91352e-05
0.00526093
0.000101224
0.00526056
0.000103341
0.00526021
0.000105478
0.00525989
0.000107627
0.00525961
0.000109782
0.00525936
0.000111936
0.00525916
0.000114083
0.005259
0.00011622
0.00525889
0.00011834
0.00525883
0.000120439
0.00525884
0.000122512
0.0052589
0.000124556
0.00525903
0.000126565
0.00525923
0.000128536
0.00525949
0.000130465
0.00525984
0.000132348
0.00526026
0.000134182
0.00526076
0.000135962
0.00526135
0.000137686
0.00526202
0.00013935
0.00526278
0.000140952
0.00526364
0.000142487
0.00526459
0.000143954
0.00526563
0.000145349
0.00526677
0.00014667
0.00526801
0.000147914
0.00526936
0.00014908
0.0052708
0.000150164
0.000151165
0.00529292
2.8376e-06
0.00529255
2.02487e-05
0.00529074
6.92156e-05
0.00528704
0.000134195
0.00528209
0.000182991
0.00527707
0.000198655
0.0052729
0.000186158
0.00526994
0.00016031
0.00526809
0.000133799
0.00526706
0.000112945
0.00526654
9.89543e-05
0.0052663
9.0589e-05
0.00526616
8.60796e-05
0.00526606
8.39716e-05
0.00526594
8.32985e-05
0.00526578
8.34864e-05
0.00526557
8.42123e-05
0.00526533
8.52959e-05
0.00526506
8.66324e-05
0.00526476
8.8157e-05
0.00526443
8.98262e-05
0.0052641
9.16087e-05
0.00526375
9.34806e-05
0.00526341
9.54231e-05
0.00526307
9.74209e-05
0.00526275
9.94615e-05
0.00526244
0.000101534
0.00526215
0.00010363
0.00526189
0.00010574
0.00526166
0.000107858
0.00526146
0.000109977
0.0052613
0.000112091
0.00526119
0.000114195
0.00526113
0.000116284
0.00526112
0.000118352
0.00526116
0.000120395
0.00526126
0.000122409
0.00526143
0.00012439
0.00526166
0.000126333
0.00526196
0.000128235
0.00526234
0.000130091
0.00526279
0.000131898
0.00526332
0.000133653
0.00526393
0.000135352
0.00526462
0.000136991
0.0052654
0.000138569
0.00526627
0.000140081
0.00526724
0.000141525
0.00526829
0.000142898
0.00526944
0.000144198
0.00527069
0.000145422
0.00527204
0.000146569
0.00527348
0.000147635
0.00527503
0.000148619
0.000149518
0.00529293
2.80364e-06
0.00529255
2.06273e-05
0.00529065
7.11107e-05
0.00528678
0.000138074
0.00528163
0.000188134
0.00527647
0.000203814
0.00527226
0.000190369
0.00526936
0.000163215
0.00526764
0.00013552
0.00526677
0.000113809
0.00526643
9.92989e-05
0.00526635
9.06698e-05
0.00526637
8.60595e-05
0.0052664
8.39407e-05
0.0052664
8.33003e-05
0.00526635
8.35371e-05
0.00526624
8.43143e-05
0.00526609
8.54446e-05
0.00526591
8.68205e-05
0.00526569
8.83762e-05
0.00526545
9.00681e-05
0.00526519
9.18652e-05
0.00526493
9.37443e-05
0.00526466
9.56871e-05
0.0052644
9.76789e-05
0.00526416
9.97074e-05
0.00526393
0.000101762
0.00526372
0.000103835
0.00526355
0.000105917
0.0052634
0.000108003
0.00526329
0.000110085
0.00526323
0.000112157
0.00526321
0.000114216
0.00526323
0.000116255
0.00526332
0.00011827
0.00526346
0.000120256
0.00526365
0.00012221
0.00526392
0.000124127
0.00526425
0.000126002
0.00526465
0.000127833
0.00526513
0.000129616
0.00526568
0.000131347
0.00526631
0.000133022
0.00526702
0.000134639
0.00526782
0.000136194
0.0052687
0.000137685
0.00526967
0.000139108
0.00527074
0.000140461
0.00527189
0.000141742
0.00527314
0.000142948
0.00527449
0.000144077
0.00527593
0.000145126
0.00527747
0.000146095
0.00527911
0.00014698
0.000147781
0.00529294
2.75719e-06
0.00529254
2.10229e-05
0.00529054
7.31187e-05
0.00528645
0.000142161
0.00528108
0.000193501
0.00527578
0.000209123
0.00527153
0.000194612
0.0052687
0.000166043
0.00526713
0.000137089
0.00526646
0.000114488
0.0052663
9.94542e-05
0.0052664
9.05735e-05
0.00526658
8.58807e-05
0.00526675
8.37703e-05
0.00526687
8.31793e-05
0.00526693
8.34787e-05
0.00526692
8.43176e-05
0.00526686
8.55023e-05
0.00526676
8.69231e-05
0.00526662
8.85136e-05
0.00526646
9.02306e-05
0.00526628
9.20439e-05
0.0052661
9.39309e-05
0.00526591
9.5874e-05
0.00526573
9.78592e-05
0.00526556
9.98749e-05
0.00526541
0.000101911
0.00526529
0.00010396
0.00526519
0.000106013
0.00526513
0.000108064
0.00526511
0.000110108
0.00526513
0.000112138
0.00526519
0.00011415
0.00526531
0.000116138
0.00526548
0.000118098
0.00526571
0.000120026
0.005266
0.000121918
0.00526636
0.00012377
0.00526679
0.000125577
0.00526728
0.000127337
0.00526785
0.000129045
0.0052685
0.000130699
0.00526923
0.000132294
0.00527004
0.000133829
0.00527093
0.0001353
0.00527191
0.000136705
0.00527298
0.00013804
0.00527414
0.000139303
0.00527539
0.000140492
0.00527673
0.000141606
0.00527817
0.000142641
0.0052797
0.000143595
0.00528133
0.000144469
0.00528305
0.000145258
0.000145963
0.00529295
2.69652e-06
0.00529253
2.14441e-05
0.00529039
7.52661e-05
0.00528606
0.000146492
0.00528044
0.000199119
0.00527497
0.000214588
0.00527071
0.000198876
0.00526798
0.000168771
0.00526659
0.000138482
0.00526611
0.00011496
0.00526617
9.94033e-05
0.00526645
9.02887e-05
0.00526679
8.55369e-05
0.00526711
8.34575e-05
0.00526735
8.29349e-05
0.00526752
8.33119e-05
0.00526761
8.42237e-05
0.00526764
8.5471e-05
0.00526762
8.69423e-05
0.00526757
8.85714e-05
0.00526748
9.03161e-05
0.00526738
9.21469e-05
0.00526727
9.40424e-05
0.00526715
9.5986e-05
0.00526705
9.79643e-05
0.00526696
9.99665e-05
0.00526689
0.000101983
0.00526684
0.000104007
0.00526682
0.000106029
0.00526684
0.000108046
0.0052669
0.000110049
0.005267
0.000112035
0.00526715
0.000113999
0.00526735
0.000115935
0.00526761
0.00011784
0.00526793
0.000119708
0.00526831
0.000121537
0.00526876
0.000123323
0.00526927
0.000125061
0.00526986
0.000126749
0.00527052
0.000128383
0.00527126
0.000129959
0.00527208
0.000131476
0.00527298
0.000132929
0.00527397
0.000134316
0.00527504
0.000135634
0.00527619
0.000136882
0.00527744
0.000138057
0.00527878
0.000139156
0.00528021
0.000140178
0.00528173
0.000141121
0.00528334
0.000141983
0.00528504
0.000142763
0.00528684
0.000143459
0.00014407
0.00529297
2.61988e-06
0.00529251
2.19015e-05
0.0052902
7.75827e-05
0.00528558
0.000151105
0.00527969
0.000205015
0.00527406
0.000220216
0.00526979
0.000203146
0.00526719
0.000171373
0.005266
0.000139671
0.00526576
0.000115202
0.00526603
9.91299e-05
0.00526651
8.98055e-05
0.00526703
8.5023e-05
0.00526748
8.30005e-05
0.00526785
8.25677e-05
0.00526813
8.30385e-05
0.00526831
8.4035e-05
0.00526843
8.53533e-05
0.00526849
8.68808e-05
0.00526851
8.85524e-05
0.0052685
9.0327e-05
0.00526847
9.21767e-05
0.00526843
9.40814e-05
0.00526839
9.60255e-05
0.00526836
9.79966e-05
0.00526834
9.99847e-05
0.00526834
0.000101981
0.00526837
0.000103978
0.00526843
0.00010597
0.00526853
0.000107949
0.00526867
0.000109912
0.00526885
0.000111853
0.00526908
0.000113767
0.00526937
0.00011565
0.00526971
0.000117498
0.00527011
0.000119307
0.00527057
0.000121072
0.00527111
0.000122791
0.00527171
0.00012446
0.00527238
0.000126076
0.00527313
0.000127634
0.00527395
0.000129134
0.00527486
0.000130571
0.00527585
0.000131942
0.00527692
0.000133246
0.00527807
0.00013448
0.00527931
0.000135641
0.00528064
0.000136728
0.00528206
0.000137739
0.00528356
0.000138671
0.00528516
0.000139524
0.00528685
0.000140296
0.00528862
0.000140985
0.00529049
0.000141591
0.000142111
0.00529299
2.52568e-06
0.00529248
2.2407e-05
0.00528997
8.00992e-05
0.00528503
0.000156038
0.00527884
0.000211212
0.00527305
0.000226006
0.00526879
0.000207401
0.00526634
0.00017382
0.00526539
0.000140628
0.0052654
0.000115191
0.00526591
9.86192e-05
0.0052666
8.9116e-05
0.00526729
8.43359e-05
0.00526789
8.23996e-05
0.00526837
8.20796e-05
0.00526875
8.26612e-05
0.00526903
8.37547e-05
0.00526923
8.51523e-05
0.00526937
8.67418e-05
0.00526946
8.84596e-05
0.00526953
9.02664e-05
0.00526957
9.21363e-05
0.0052696
9.40506e-05
0.00526963
9.59952e-05
0.00526966
9.79588e-05
0.00526972
9.9932e-05
0.00526979
0.000101907
0.00526989
0.000103877
0.00527003
0.000105836
0.0052702
0.000107779
0.00527041
0.0001097
0.00527067
0.000111594
0.00527098
0.000113458
0.00527134
0.000115287
0.00527176
0.000117077
0.00527224
0.000118825
0.00527279
0.000120526
0.0052734
0.000122178
0.00527408
0.000123777
0.00527484
0.00012532
0.00527567
0.000126805
0.00527658
0.000128227
0.00527756
0.000129585
0.00527863
0.000130876
0.00527978
0.000132097
0.00528101
0.000133247
0.00528233
0.000134323
0.00528373
0.000135324
0.00528522
0.000136247
0.0052868
0.000137092
0.00528847
0.000137857
0.00529023
0.000138541
0.00529207
0.000139142
0.005294
0.00013966
0.000140093
0.00529301
2.41269e-06
0.00529244
2.29732e-05
0.0052897
8.28439e-05
0.00528441
0.00016132
0.0052779
0.000217724
0.00527196
0.000231951
0.00526774
0.00021162
0.00526548
0.000176083
0.00526478
0.000141327
0.00526506
0.000114909
0.00526582
9.78607e-05
0.00526672
8.82158e-05
0.00526758
8.34758e-05
0.00526832
8.16573e-05
0.00526893
8.14742e-05
0.0052694
8.21842e-05
0.00526977
8.33868e-05
0.00527005
8.48721e-05
0.00527026
8.65291e-05
0.00527043
8.82964e-05
0.00527055
9.01376e-05
0.00527066
9.20287e-05
0.00527076
9.39531e-05
0.00527086
9.58981e-05
0.00527096
9.78537e-05
0.00527108
9.98115e-05
0.00527123
0.000101765
0.0052714
0.000103707
0.0052716
0.000105632
0.00527184
0.000107536
0.00527213
0.000109414
0.00527246
0.000111262
0.00527284
0.000113074
0.00527328
0.000114849
0.00527378
0.000116581
0.00527434
0.000118267
0.00527496
0.000119904
0.00527565
0.000121489
0.00527641
0.000123018
0.00527724
0.000124489
0.00527815
0.000125898
0.00527913
0.000127244
0.00528019
0.000128523
0.00528133
0.000129734
0.00528255
0.000130874
0.00528386
0.000131941
0.00528525
0.000132934
0.00528672
0.00013385
0.00528828
0.000134688
0.00528993
0.000135448
0.00529166
0.000136127
0.00529347
0.000136725
0.00529538
0.000137241
0.00529736
0.000137674
0.000138023
0.00529303
2.28023e-06
0.00529239
2.36108e-05
0.0052894
8.58377e-05
0.00528375
0.000166969
0.00527692
0.000224554
0.00527083
0.000238035
0.00526668
0.000215775
0.00526462
0.000178136
0.0052642
0.000141748
0.00526477
0.000114345
0.00526578
9.685e-05
0.00526689
8.71059e-05
0.00526792
8.24464e-05
0.0052688
8.07788e-05
0.00526951
8.07574e-05
0.00527008
8.16132e-05
0.00527053
8.29368e-05
0.00527089
8.45175e-05
0.00527117
8.62469e-05
0.0052714
8.80669e-05
0.00527159
8.99441e-05
0.00527177
9.18573e-05
0.00527193
9.3792e-05
0.00527209
9.57372e-05
0.00527226
9.76843e-05
0.00527244
9.9626e-05
0.00527265
0.000101556
0.00527289
0.00010347
0.00527316
0.000105361
0.00527347
0.000107226
0.00527382
0.00010906
0.00527423
0.000110859
0.00527468
0.00011262
0.00527519
0.000114339
0.00527576
0.000116013
0.00527639
0.000117637
0.00527708
0.000119209
0.00527785
0.000120727
0.00527868
0.000122186
0.00527958
0.000123585
0.00528056
0.00012492
0.00528161
0.00012619
0.00528275
0.000127391
0.00528396
0.000128523
0.00528525
0.000129582
0.00528662
0.000130568
0.00528808
0.000131478
0.00528961
0.000132312
0.00529124
0.000133067
0.00529294
0.000133743
0.00529473
0.000134339
0.0052966
0.000134854
0.00529855
0.000135287
0.00530059
0.000135638
0.000135907
0.00529305
2.12833e-06
0.00529233
2.43276e-05
0.00528908
8.90881e-05
0.00528306
0.000172984
0.00527593
0.000231684
0.00526974
0.000244231
0.00526567
0.00021984
0.00526385
0.000179959
0.00526372
0.000141881
0.00526456
0.000113496
0.00526582
9.55917e-05
0.00526713
8.57937e-05
0.00526832
8.12567e-05
0.00526933
7.97729e-05
0.00527015
7.99372e-05
0.00527081
8.09554e-05
0.00527133
8.24108e-05
0.00527176
8.40939e-05
0.0052721
8.59001e-05
0.0052724
8.77753e-05
0.00527265
8.96899e-05
0.00527288
9.16258e-05
0.0052731
9.35707e-05
0.00527332
9.55158e-05
0.00527355
9.74538e-05
0.0052738
9.93788e-05
0.00527407
0.000101285
0.00527437
0.000103169
0.00527471
0.000105025
0.00527508
0.00010685
0.0052755
0.00010864
0.00527597
0.000110391
0.00527649
0.000112099
0.00527707
0.000113762
0.00527771
0.000115377
0.00527841
0.000116939
0.00527917
0.000118446
0.00528
0.000119896
0.0052809
0.000121286
0.00528187
0.000122613
0.00528292
0.000123875
0.00528404
0.000125069
0.00528523
0.000126194
0.00528651
0.000127248
0.00528786
0.000128228
0.0052893
0.000129134
0.00529081
0.000129964
0.00529241
0.000130716
0.00529409
0.00013139
0.00529584
0.000131985
0.00529768
0.0001325
0.0052996
0.000132935
0.0053016
0.000133288
0.00530368
0.000133561
0.000133751
0.00529306
1.95786e-06
0.00529227
2.51254e-05
0.00528877
9.25843e-05
0.00528242
0.000179338
0.00527502
0.000239079
0.00526875
0.000250504
0.0052648
0.000223791
0.00526321
0.000181543
0.00526337
0.000141729
0.00526449
0.000112375
0.00526598
9.41004e-05
0.00526748
8.42949e-05
0.00526881
7.99207e-05
0.00526993
7.8652e-05
0.00527085
7.90241e-05
0.00527158
8.02193e-05
0.00527218
8.18161e-05
0.00527266
8.36076e-05
0.00527307
8.54939e-05
0.00527342