/*--------------------------------*- C++ -*----------------------------------*\
| =========                 |                                                 |
| \\      /  F ield         | OpenFOAM: The Open Source CFD Toolbox           |
|  \\    /   O peration     | Version:  2412                                  |
|   \\  /    A nd           | Website:  www.openfoam.com                      |
|    \\/     M anipulation  |                                                 |
\*---------------------------------------------------------------------------*/
FoamFile
{
    version     2.0;
    format      ascii;
    arch        "LSB;label=32;scalar=64";
    class       volVectorField;
    location    "7";
    object      vorticity;
}
// * * * * * * * * * * * * * * * * * * * * * * * * * * * * * * * * * * * * * //

dimensions      [0 0 -1 0 0 0 0];

internalField   nonuniform List<vector> 
5285
(
(0 -0 9.80289e-06)
(0 -0 8.75371e-06)
(0 -0 7.02197e-06)
(0 -0 4.55439e-06)
(0 -0 1.36178e-06)
(0 -0 -2.4134e-06)
(0 -0 -6.50533e-06)
(0 -0 -1.05527e-05)
(0 -0 -1.41541e-05)
(0 -0 -1.694e-05)
(0 -0 -1.86429e-05)
(0 -0 -1.91469e-05)
(0 -0 -1.85053e-05)
(0 -0 -1.69195e-05)
(0 -0 -1.46723e-05)
(0 -0 -1.20676e-05)
(0 -0 9.58075e-06)
(0 -0 8.5334e-06)
(0 -0 6.83394e-06)
(0 -0 4.41008e-06)
(0 -0 1.29217e-06)
(0 -0 -2.37326e-06)
(0 -0 -6.3308e-06)
(0 -0 -1.02293e-05)
(0 -0 -1.36818e-05)
(0 -0 -1.63349e-05)
(0 -0 -1.79363e-05)
(0 -0 -1.83809e-05)
(0 -0 -1.77255e-05)
(0 -0 -1.61659e-05)
(0 -0 -1.39735e-05)
(0 -0 -1.14189e-05)
(0 -0 9.32876e-06)
(0 -0 8.29029e-06)
(0 -0 6.60895e-06)
(0 -0 4.22636e-06)
(0 -0 1.18921e-06)
(0 -0 -2.36602e-06)
(0 -0 -6.18915e-06)
(0 -0 -9.93897e-06)
(0 -0 -1.32426e-05)
(0 -0 -1.57631e-05)
(0 -0 -1.72628e-05)
(0 -0 -1.76475e-05)
(0 -0 -1.69765e-05)
(0 -0 -1.54375e-05)
(0 -0 -1.32832e-05)
(0 -0 -1.07884e-05)
(0 -0 9.05498e-06)
(0 -0 8.01851e-06)
(0 -0 6.35397e-06)
(0 -0 4.02043e-06)
(0 -0 1.06286e-06)
(0 -0 -2.38327e-06)
(0 -0 -6.07281e-06)
(0 -0 -9.67461e-06)
(0 -0 -1.28301e-05)
(0 -0 -1.52181e-05)
(0 -0 -1.66164e-05)
(0 -0 -1.69411e-05)
(0 -0 -1.62548e-05)
(0 -0 -1.47381e-05)
(0 -0 -1.26302e-05)
(0 -0 -1.02048e-05)
(0 -0 8.77401e-06)
(0 -0 7.73843e-06)
(0 -0 6.09562e-06)
(0 -0 3.81039e-06)
(0 -0 9.30935e-07)
(0 -0 -2.40754e-06)
(0 -0 -5.9648e-06)
(0 -0 -9.41976e-06)
(0 -0 -1.2428e-05)
(0 -0 -1.46844e-05)
(0 -0 -1.59817e-05)
(0 -0 -1.62467e-05)
(0 -0 -1.55463e-05)
(0 -0 -1.40566e-05)
(0 -0 -1.2006e-05)
(0 -0 -9.66346e-06)
(0 -0 8.51796e-06)
(0 -0 7.48446e-06)
(0 -0 5.86357e-06)
(0 -0 3.6259e-06)
(0 -0 8.23322e-07)
(0 -0 -2.40891e-06)
(0 -0 -5.8354e-06)
(0 -0 -9.14496e-06)
(0 -0 -1.20072e-05)
(0 -0 -1.41331e-05)
(0 -0 -1.53301e-05)
(0 -0 -1.55362e-05)
(0 -0 -1.48226e-05)
(0 -0 -1.33631e-05)
(0 -0 -1.13774e-05)
(0 -0 -9.12673e-06)
(0 -0 8.3347e-06)
(0 -0 7.30324e-06)
(0 -0 5.70393e-06)
(0 -0 3.51307e-06)
(0 -0 7.86255e-07)
(0 -0 -2.34113e-06)
(0 -0 -5.6384e-06)
(0 -0 -8.80413e-06)
(0 -0 -1.15218e-05)
(0 -0 -1.35183e-05)
(0 -0 -1.4616e-05)
(0 -0 -1.47638e-05)
(0 -0 -1.4038e-05)
(0 -0 -1.26105e-05)
(0 -0 -1.06936e-05)
(0 -0 -8.53822e-06)
(0 -0 8.29721e-06)
(0 -0 7.26778e-06)
(0 -0 5.68991e-06)
(0 -0 3.54543e-06)
(0 -0 8.93633e-07)
(0 -0 -2.12996e-06)
(0 -0 -5.29927e-06)
(0 -0 -8.32249e-06)
(0 -0 -1.08969e-05)
(0 -0 -1.27651e-05)
(0 -0 -1.37644e-05)
(0 -0 -1.38547e-05)
(0 -0 -1.31174e-05)
(0 -0 -1.17231e-05)
(0 -0 -9.87694e-06)
(0 -0 -7.81905e-06)
(0 -0 8.51191e-06)
(0 -0 7.48586e-06)
(0 -0 5.93061e-06)
(0 -0 3.83347e-06)
(0 -0 1.25732e-06)
(0 -0 -1.66219e-06)
(0 -0 -4.70356e-06)
(0 -0 -7.58459e-06)
(0 -0 -1.00162e-05)
(0 -0 -1.17567e-05)
(0 -0 -1.26581e-05)
(0 -0 -1.26913e-05)
(0 -0 -1.19433e-05)
(0 -0 -1.0583e-05)
(0 -0 -8.80913e-06)
(0 -0 -6.85035e-06)
(0 -0 9.11315e-06)
(0 -0 8.09499e-06)
(0 -0 6.56682e-06)
(0 -0 4.52127e-06)
(0 -0 2.0247e-06)
(0 -0 -7.87292e-07)
(0 -0 -3.69785e-06)
(0 -0 -6.43441e-06)
(0 -0 -8.72158e-06)
(0 -0 -1.03333e-05)
(0 -0 -1.11363e-05)
(0 -0 -1.11126e-05)
(0 -0 -1.03542e-05)
(0 -0 -9.02908e-06)
(0 -0 -7.32884e-06)
(0 -0 -5.47108e-06)
(0 -0 1.02377e-05)
(0 -0 9.23775e-06)
(0 -0 7.74711e-06)
(0 -0 5.76349e-06)
(0 -0 3.35647e-06)
(0 -0 6.61347e-07)
(0 -0 -2.11002e-06)
(0 -0 -4.69498e-06)
(0 -0 -6.83205e-06)
(0 -0 -8.31094e-06)
(0 -0 -9.01313e-06)
(0 -0 -8.93152e-06)
(0 -0 -8.16313e-06)
(0 -0 -6.87455e-06)
(0 -0 -5.25024e-06)
(0 -0 -3.49622e-06)
(0 -0 1.19764e-05)
(0 -0 1.10139e-05)
(0 -0 9.58048e-06)
(0 -0 7.67877e-06)
(0 -0 5.38094e-06)
(0 -0 2.82145e-06)
(0 -0 2.06462e-07)
(0 -0 -2.21197e-06)
(0 -0 -4.18686e-06)
(0 -0 -5.52406e-06)
(0 -0 -6.11992e-06)
(0 -0 -5.97805e-06)
(0 -0 -5.2001e-06)
(0 -0 -3.95055e-06)
(0 -0 -2.40607e-06)
(0 -0 -7.60385e-07)
(0 -0 1.43068e-05)
(0 -0 1.34132e-05)
(0 -0 1.20697e-05)
(0 -0 1.02832e-05)
(0 -0 8.12773e-06)
(0 -0 5.73585e-06)
(0 -0 3.30686e-06)
(0 -0 1.08092e-06)
(0 -0 -7.10674e-07)
(0 -0 -1.89066e-06)
(0 -0 -2.3706e-06)
(0 -0 -2.16453e-06)
(0 -0 -1.37793e-06)
(0 -0 -1.72015e-07)
(0 -0 1.28575e-06)
(0 -0 2.81518e-06)
(0 -0 1.70234e-05)
(0 -0 1.62451e-05)
(0 -0 1.504e-05)
(0 -0 1.34183e-05)
(0 -0 1.14552e-05)
(0 -0 9.27961e-06)
(0 -0 7.08188e-06)
(0 -0 5.08817e-06)
(0 -0 3.51224e-06)
(0 -0 2.51304e-06)
(0 -0 2.16326e-06)
(0 -0 2.43883e-06)
(0 -0 3.23172e-06)
(0 -0 4.38587e-06)
(0 -0 5.74524e-06)
(0 -0 7.14546e-06)
(0 -0 1.96914e-05)
(0 -0 1.90906e-05)
(0 -0 1.80892e-05)
(0 -0 1.67003e-05)
(0 -0 1.49981e-05)
(0 -0 1.31057e-05)
(0 -0 1.12018e-05)
(0 -0 9.49538e-06)
(0 -0 8.17973e-06)
(0 -0 7.39338e-06)
(0 -0 7.19247e-06)
(0 -0 7.54331e-06)
(0 -0 8.33721e-06)
(0 -0 9.4261e-06)
(0 -0 1.06686e-05)
(0 -0 1.19195e-05)
(0 -0 2.16558e-05)
(0 -0 2.13089e-05)
(0 -0 2.05922e-05)
(0 -0 1.95207e-05)
(0 -0 1.81655e-05)
(0 -0 1.6641e-05)
(0 -0 1.51101e-05)
(0 -0 1.37605e-05)
(0 -0 1.27611e-05)
(0 -0 1.22272e-05)
(0 -0 1.2197e-05)
(0 -0 1.26279e-05)
(0 -0 1.34129e-05)
(0 -0 1.44158e-05)
(0 -0 1.55143e-05)
(0 -0 1.65866e-05)
(0 -0 2.21287e-05)
(0 -0 2.21217e-05)
(0 -0 2.1782e-05)
(0 -0 2.11246e-05)
(0 -0 2.02157e-05)
(0 -0 1.91569e-05)
(0 -0 1.80909e-05)
(0 -0 1.71786e-05)
(0 -0 1.65597e-05)
(0 -0 1.63226e-05)
(0 -0 1.6486e-05)
(0 -0 1.69989e-05)
(0 -0 1.77591e-05)
(0 -0 1.86468e-05)
(0 -0 1.95643e-05)
(0 -0 2.04185e-05)
(0 -0 2.03547e-05)
(0 -0 2.07756e-05)
(0 -0 2.09083e-05)
(0 -0 2.07665e-05)
(0 -0 2.04084e-05)
(0 -0 1.99188e-05)
(0 -0 1.94149e-05)
(0 -0 1.9025e-05)
(0 -0 1.88539e-05)
(0 -0 1.89587e-05)
(0 -0 1.93365e-05)
(0 -0 1.9929e-05)
(0 -0 2.06418e-05)
(0 -0 2.13766e-05)
(0 -0 2.20667e-05)
(0 -0 2.26541e-05)
(0 -0 1.58194e-05)
(0 -0 1.67486e-05)
(0 -0 1.74433e-05)
(0 -0 1.79128e-05)
(0 -0 1.82044e-05)
(0 -0 1.8383e-05)
(0 -0 1.85343e-05)
(0 -0 1.8748e-05)
(0 -0 1.90881e-05)
(0 -0 1.95759e-05)
(0 -0 2.01848e-05)
(0 -0 2.08493e-05)
(0 -0 2.14864e-05)
(0 -0 2.20246e-05)
(0 -0 2.24345e-05)
(0 -0 2.26995e-05)
(0 -0 8.4413e-06)
(0 -0 9.94209e-06)
(0 -0 1.12689e-05)
(0 -0 1.24312e-05)
(0 -0 1.34548e-05)
(0 -0 1.4384e-05)
(0 -0 1.5269e-05)
(0 -0 1.61547e-05)
(0 -0 1.70588e-05)
(0 -0 1.79625e-05)
(0 -0 1.88129e-05)
(0 -0 1.95379e-05)
(0 -0 2.00683e-05)
(0 -0 2.03646e-05)
(0 -0 2.04405e-05)
(0 -0 2.03271e-05)
(0 -0 0.000458982)
(0 -0 0.00125122)
(0 -0 0.00220619)
(0 -0 0.00235662)
(0 -0 0.00155147)
(0 -0 0.000402614)
(0 -0 -0.000465882)
(0 -0 -0.000835275)
(0 -0 -0.000817525)
(0 -0 0.000468468)
(0 -0 0.00128611)
(0 -0 0.00227138)
(0 -0 0.00242599)
(0 -0 0.00159465)
(0 -0 0.000409331)
(0 -0 -0.000485928)
(0 -0 -0.000865771)
(0 -0 -0.000846155)
(0 -0 -0.000642523)
(0 -0 -0.000415573)
(0 -0 -0.000238349)
(0 -0 -0.000123551)
(0 -0 -5.79859e-05)
(0 -0 -2.39154e-05)
(0 -0 -7.49725e-06)
(0 -0 -6.91446e-08)
(0 -0 3.10801e-06)
(0 -0 4.39186e-06)
(0 -0 4.87332e-06)
(0 -0 5.02889e-06)
(0 -0 5.05732e-06)
(0 -0 5.03845e-06)
(0 -0 5.00365e-06)
(0 -0 4.96542e-06)
(0 -0 4.92924e-06)
(0 -0 4.89833e-06)
(0 -0 4.87502e-06)
(0 -0 4.8613e-06)
(0 -0 4.85891e-06)
(0 -0 4.86919e-06)
(0 -0 4.8934e-06)
(0 -0 4.93252e-06)
(0 -0 4.98756e-06)
(0 -0 5.05972e-06)
(0 -0 5.15031e-06)
(0 -0 5.2608e-06)
(0 -0 5.39274e-06)
(0 -0 5.54767e-06)
(0 -0 5.7271e-06)
(0 -0 5.9324e-06)
(0 -0 6.16487e-06)
(0 -0 6.4259e-06)
(0 -0 6.71666e-06)
(0 -0 7.03834e-06)
(0 -0 7.39185e-06)
(0 -0 7.77732e-06)
(0 -0 8.19343e-06)
(0 -0 8.63551e-06)
(0 -0 9.09293e-06)
(0 -0 9.54505e-06)
(0 -0 9.95651e-06)
(0 -0 1.02723e-05)
(0 -0 1.0416e-05)
(0 -0 1.02827e-05)
(0 -0 0.000477773)
(0 -0 0.00132158)
(0 -0 0.00233805)
(0 -0 0.00249701)
(0 -0 0.00163877)
(0 -0 0.000415976)
(0 -0 -0.000506758)
(0 -0 -0.000897289)
(0 -0 -0.000875694)
(0 -0 -0.000664531)
(0 -0 -0.000429655)
(0 -0 -0.000246369)
(0 -0 -0.000127692)
(0 -0 -5.99264e-05)
(0 -0 -2.47191e-05)
(0 -0 -7.75686e-06)
(0 -0 -8.54824e-08)
(0 -0 3.19313e-06)
(0 -0 4.51563e-06)
(0 -0 5.00944e-06)
(0 -0 5.16693e-06)
(0 -0 5.19335e-06)
(0 -0 5.171e-06)
(0 -0 5.13217e-06)
(0 -0 5.08962e-06)
(0 -0 5.04892e-06)
(0 -0 5.01341e-06)
(0 -0 4.98552e-06)
(0 -0 4.96731e-06)
(0 -0 4.96045e-06)
(0 -0 4.96622e-06)
(0 -0 4.98575e-06)
(0 -0 5.01996e-06)
(0 -0 5.0698e-06)
(0 -0 5.13643e-06)
(0 -0 5.22113e-06)
(0 -0 5.32529e-06)
(0 -0 5.45033e-06)
(0 -0 5.59768e-06)
(0 -0 5.76868e-06)
(0 -0 5.96455e-06)
(0 -0 6.18649e-06)
(0 -0 6.43576e-06)
(0 -0 6.71347e-06)
(0 -0 7.02076e-06)
(0 -0 7.35846e-06)
(0 -0 7.72666e-06)
(0 -0 8.12396e-06)
(0 -0 8.54566e-06)
(0 -0 8.98117e-06)
(0 -0 9.41006e-06)
(0 -0 9.79764e-06)
(0 -0 1.00905e-05)
(0 -0 1.02132e-05)
(0 -0 1.00701e-05)
(0 -0 0.000486895)
(0 -0 0.00135769)
(0 -0 0.00240639)
(0 -0 0.00256991)
(0 -0 0.00168402)
(0 -0 0.000422675)
(0 -0 -0.000528317)
(0 -0 -0.000929818)
(0 -0 -0.000906158)
(0 -0 -0.000687215)
(0 -0 -0.000444166)
(0 -0 -0.000254635)
(0 -0 -0.000131958)
(0 -0 -6.19256e-05)
(0 -0 -2.55482e-05)
(0 -0 -8.02663e-06)
(0 -0 -1.05841e-07)
(0 -0 3.27623e-06)
(0 -0 4.63762e-06)
(0 -0 5.14331e-06)
(0 -0 5.302e-06)
(0 -0 5.32559e-06)
(0 -0 5.29897e-06)
(0 -0 5.25531e-06)
(0 -0 5.20766e-06)
(0 -0 5.16183e-06)
(0 -0 5.12117e-06)
(0 -0 5.08814e-06)
(0 -0 5.0648e-06)
(0 -0 5.05276e-06)
(0 -0 5.05329e-06)
(0 -0 5.06739e-06)
(0 -0 5.09589e-06)
(0 -0 5.13974e-06)
(0 -0 5.20003e-06)
(0 -0 5.27801e-06)
(0 -0 5.375e-06)
(0 -0 5.49235e-06)
(0 -0 5.63132e-06)
(0 -0 5.79308e-06)
(0 -0 5.97873e-06)
(0 -0 6.18938e-06)
(0 -0 6.4261e-06)
(0 -0 6.69001e-06)
(0 -0 6.98216e-06)
(0 -0 7.30333e-06)
(0 -0 7.65359e-06)
(0 -0 8.03142e-06)
(0 -0 8.4321e-06)
(0 -0 8.84503e-06)
(0 -0 9.25004e-06)
(0 -0 9.61307e-06)
(0 -0 9.88221e-06)
(0 -0 9.98476e-06)
(0 -0 9.83069e-06)
(0 -0 0.000495834)
(0 -0 0.00139451)
(0 -0 0.00247658)
(0 -0 0.00264497)
(0 -0 0.00173066)
(0 -0 0.000429611)
(0 -0 -0.000550514)
(0 -0 -0.000963334)
(0 -0 -0.000937552)
(0 -0 -0.000710595)
(0 -0 -0.000459119)
(0 -0 -0.00026315)
(0 -0 -0.00013635)
(0 -0 -6.39813e-05)
(0 -0 -2.63986e-05)
(0 -0 -8.30158e-06)
(0 -0 -1.24735e-07)
(0 -0 3.36304e-06)
(0 -0 4.76366e-06)
(0 -0 5.28083e-06)
(0 -0 5.44e-06)
(0 -0 5.45993e-06)
(0 -0 5.42816e-06)
(0 -0 5.37884e-06)
(0 -0 5.3254e-06)
(0 -0 5.27377e-06)
(0 -0 5.22733e-06)
(0 -0 5.18856e-06)
(0 -0 5.15946e-06)
(0 -0 5.14159e-06)
(0 -0 5.13616e-06)
(0 -0 5.14406e-06)
(0 -0 5.16608e-06)
(0 -0 5.20313e-06)
(0 -0 5.25629e-06)
(0 -0 5.32675e-06)
(0 -0 5.41579e-06)
(0 -0 5.52463e-06)
(0 -0 5.65442e-06)
(0 -0 5.80616e-06)
(0 -0 5.98084e-06)
(0 -0 6.17942e-06)
(0 -0 6.40291e-06)
(0 -0 6.65236e-06)
(0 -0 6.92875e-06)
(0 -0 7.2328e-06)
(0 -0 7.56452e-06)
(0 -0 7.92231e-06)
(0 -0 8.30138e-06)
(0 -0 8.69114e-06)
(0 -0 9.07166e-06)
(0 -0 9.40949e-06)
(0 -0 9.65405e-06)
(0 -0 9.73575e-06)
(0 -0 9.56831e-06)
(0 -0 0.000504588)
(0 -0 0.00143214)
(0 -0 0.00254891)
(0 -0 0.00272256)
(0 -0 0.00177905)
(0 -0 0.000437023)
(0 -0 -0.000573228)
(0 -0 -0.000997796)
(0 -0 -0.000969874)
(0 -0 -0.000734676)
(0 -0 -0.000474521)
(0 -0 -0.000271914)
(0 -0 -0.000140863)
(0 -0 -6.60858e-05)
(0 -0 -2.72602e-05)
(0 -0 -8.57001e-06)
(0 -0 -1.29566e-07)
(0 -0 3.4667e-06)
(0 -0 4.90727e-06)
(0 -0 5.43572e-06)
(0 -0 5.5948e-06)
(0 -0 5.61033e-06)
(0 -0 5.57263e-06)
(0 -0 5.51691e-06)
(0 -0 5.45699e-06)
(0 -0 5.39896e-06)
(0 -0 5.34618e-06)
(0 -0 5.30112e-06)
(0 -0 5.26569e-06)
(0 -0 5.24138e-06)
(0 -0 5.2293e-06)
(0 -0 5.23028e-06)
(0 -0 5.24509e-06)
(0 -0 5.2746e-06)
(0 -0 5.31985e-06)
(0 -0 5.38204e-06)
(0 -0 5.46235e-06)
(0 -0 5.56191e-06)
(0 -0 5.68172e-06)
(0 -0 5.82269e-06)
(0 -0 5.98566e-06)
(0 -0 6.1715e-06)
(0 -0 6.38114e-06)
(0 -0 6.61555e-06)
(0 -0 6.87565e-06)
(0 -0 7.16209e-06)
(0 -0 7.47479e-06)
(0 -0 7.81208e-06)
(0 -0 8.16908e-06)
(0 -0 8.53523e-06)
(0 -0 8.8908e-06)
(0 -0 9.20297e-06)
(0 -0 9.42247e-06)
(0 -0 9.48227e-06)
(0 -0 9.30051e-06)
(0 -0 0.000513155)
(0 -0 0.00147071)
(0 -0 0.00262371)
(0 -0 0.00280316)
(0 -0 0.00182963)
(0 -0 0.000445213)
(0 -0 -0.000596311)
(0 -0 -0.00103316)
(0 -0 -0.00100313)
(0 -0 -0.000759474)
(0 -0 -0.00049038)
(0 -0 -0.000280928)
(0 -0 -0.000145489)
(0 -0 -6.82233e-05)
(0 -0 -2.81137e-05)
(0 -0 -8.8107e-06)
(0 -0 -9.78992e-08)
(0 -0 3.61044e-06)
(0 -0 5.09221e-06)
(0 -0 5.63216e-06)
(0 -0 5.79087e-06)
(0 -0 5.80151e-06)
(0 -0 5.75732e-06)
(0 -0 5.69465e-06)
(0 -0 5.62777e-06)
(0 -0 5.56289e-06)
(0 -0 5.50339e-06)
(0 -0 5.45163e-06)
(0 -0 5.40944e-06)
(0 -0 5.37821e-06)
(0 -0 5.35897e-06)
(0 -0 5.35247e-06)
(0 -0 5.35948e-06)
(0 -0 5.38083e-06)
(0 -0 5.41758e-06)
(0 -0 5.47087e-06)
(0 -0 5.54181e-06)
(0 -0 5.63144e-06)
(0 -0 5.74065e-06)
(0 -0 5.87024e-06)
(0 -0 6.02094e-06)
(0 -0 6.19355e-06)
(0 -0 6.3889e-06)
(0 -0 6.6079e-06)
(0 -0 6.85139e-06)
(0 -0 7.11995e-06)
(0 -0 7.4134e-06)
(0 -0 7.72995e-06)
(0 -0 8.06465e-06)
(0 -0 8.40696e-06)
(0 -0 8.73739e-06)
(0 -0 9.0237e-06)
(0 -0 9.21789e-06)
(0 -0 9.25532e-06)
(0 -0 9.05832e-06)
(0 -0 0.000521535)
(0 -0 0.00151041)
(0 -0 0.00270146)
(0 -0 0.00288739)
(0 -0 0.00188294)
(0 -0 0.000454508)
(0 -0 -0.00061963)
(0 -0 -0.00106942)
(0 -0 -0.00103735)
(0 -0 -0.000785027)
(0 -0 -0.000506717)
(0 -0 -0.000290191)
(0 -0 -0.000150213)
(0 -0 -7.0371e-05)
(0 -0 -2.89305e-05)
(0 -0 -8.99143e-06)
(0 -0 4.64154e-09)
(0 -0 3.83009e-06)
(0 -0 5.35538e-06)
(0 -0 5.90789e-06)
(0 -0 6.0667e-06)
(0 -0 6.07262e-06)
(0 -0 6.02197e-06)
(0 -0 5.95234e-06)
(0 -0 5.8785e-06)
(0 -0 5.80679e-06)
(0 -0 5.74056e-06)
(0 -0 5.68209e-06)
(0 -0 5.63307e-06)
(0 -0 5.59479e-06)
(0 -0 5.56817e-06)
(0 -0 5.55395e-06)
(0 -0 5.55286e-06)
(0 -0 5.56575e-06)
(0 -0 5.59365e-06)
(0 -0 5.63764e-06)
(0 -0 5.6988e-06)
(0 -0 5.77808e-06)
(0 -0 5.87627e-06)
(0 -0 5.99407e-06)
(0 -0 6.13214e-06)
(0 -0 6.2912e-06)
(0 -0 6.47201e-06)
(0 -0 6.6754e-06)
(0 -0 6.90213e-06)
(0 -0 7.15267e-06)
(0 -0 7.42673e-06)
(0 -0 7.72241e-06)
(0 -0 8.03468e-06)
(0 -0 8.35302e-06)
(0 -0 8.65816e-06)
(0 -0 8.91847e-06)
(0 -0 9.08718e-06)
(0 -0 9.10191e-06)
(0 -0 8.88896e-06)
(0 -0 0.000529731)
(0 -0 0.00155147)
(0 -0 0.00278271)
(0 -0 0.00297594)
(0 -0 0.00193952)
(0 -0 0.000465177)
(0 -0 -0.00064316)
(0 -0 -0.00110667)
(0 -0 -0.00107267)
(0 -0 -0.000811435)
(0 -0 -0.000523588)
(0 -0 -0.000299724)
(0 -0 -0.000155028)
(0 -0 -7.2504e-05)
(0 -0 -2.96757e-05)
(0 -0 -9.07171e-06)
(0 -0 2.22149e-07)
(0 -0 4.17221e-06)
(0 -0 5.74522e-06)
(0 -0 6.31296e-06)
(0 -0 6.47373e-06)
(0 -0 6.47637e-06)
(0 -0 6.42048e-06)
(0 -0 6.34497e-06)
(0 -0 6.26516e-06)
(0 -0 6.18754e-06)
(0 -0 6.11546e-06)
(0 -0 6.05107e-06)
(0 -0 5.99593e-06)
(0 -0 5.95119e-06)
(0 -0 5.91773e-06)
(0 -0 5.89623e-06)
(0 -0 5.88744e-06)
(0 -0 5.8922e-06)
(0 -0 5.91151e-06)
(0 -0 5.94644e-06)
(0 -0 5.99799e-06)
(0 -0 6.06705e-06)
(0 -0 6.15435e-06)
(0 -0 6.2605e-06)
(0 -0 6.38612e-06)
(0 -0 6.53182e-06)
(0 -0 6.69832e-06)
(0 -0 6.88636e-06)
(0 -0 7.0966e-06)
(0 -0 7.32941e-06)
(0 -0 7.58435e-06)
(0 -0 7.85941e-06)
(0 -0 8.14949e-06)
(0 -0 8.44409e-06)
(0 -0 8.72416e-06)
(0 -0 8.95867e-06)
(0 -0 9.10208e-06)
(0 -0 9.09418e-06)
(0 -0 8.86504e-06)
(0 -0 0.000537764)
(0 -0 0.00159423)
(0 -0 0.00286817)
(0 -0 0.00306954)
(0 -0 0.00199982)
(0 -0 0.00047726)
(0 -0 -0.000667147)
(0 -0 -0.00114526)
(0 -0 -0.00110941)
(0 -0 -0.000838924)
(0 -0 -0.000541127)
(0 -0 -0.000309587)
(0 -0 -0.000159948)
(0 -0 -7.46089e-05)
(0 -0 -3.03202e-05)
(0 -0 -9.01294e-06)
(0 -0 5.98979e-07)
(0 -0 4.68514e-06)
(0 -0 6.31319e-06)
(0 -0 6.90144e-06)
(0 -0 7.06845e-06)
(0 -0 7.0715e-06)
(0 -0 7.01367e-06)
(0 -0 6.93534e-06)
(0 -0 6.85242e-06)
(0 -0 6.77161e-06)
(0 -0 6.69623e-06)
(0 -0 6.62831e-06)
(0 -0 6.56929e-06)
(0 -0 6.52023e-06)
(0 -0 6.48192e-06)
(0 -0 6.45505e-06)
(0 -0 6.44037e-06)
(0 -0 6.43871e-06)
(0 -0 6.45109e-06)
(0 -0 6.47852e-06)
(0 -0 6.52198e-06)
(0 -0 6.58229e-06)
(0 -0 6.66014e-06)
(0 -0 6.75609e-06)
(0 -0 6.87069e-06)
(0 -0 7.00451e-06)
(0 -0 7.15819e-06)
(0 -0 7.33237e-06)
(0 -0 7.52763e-06)
(0 -0 7.74418e-06)
(0 -0 7.98148e-06)
(0 -0 8.23738e-06)
(0 -0 8.5067e-06)
(0 -0 8.77899e-06)
(0 -0 9.03542e-06)
(0 -0 9.24558e-06)
(0 -0 9.36511e-06)
(0 -0 9.33591e-06)
(0 -0 9.09169e-06)
(0 -0 0.000545678)
(0 -0 0.00163914)
(0 -0 0.00295861)
(0 -0 0.00316884)
(0 -0 0.00206393)
(0 -0 0.000490309)
(0 -0 -0.000692347)
(0 -0 -0.00118598)
(0 -0 -0.0011482)
(0 -0 -0.000867937)
(0 -0 -0.000559604)
(0 -0 -0.000319928)
(0 -0 -0.000165043)
(0 -0 -7.67108e-05)
(0 -0 -3.08637e-05)
(0 -0 -8.80079e-06)
(0 -0 1.15807e-06)
(0 -0 5.39771e-06)
(0 -0 7.09272e-06)
(0 -0 7.71076e-06)
(0 -0 7.89192e-06)
(0 -0 7.90249e-06)
(0 -0 7.84932e-06)
(0 -0 7.77436e-06)
(0 -0 7.69418e-06)
(0 -0 7.61572e-06)
(0 -0 7.54233e-06)
(0 -0 7.47596e-06)
(0 -0 7.41794e-06)
(0 -0 7.36925e-06)
(0 -0 7.33066e-06)
(0 -0 7.30285e-06)
(0 -0 7.28658e-06)
(0 -0 7.28272e-06)
(0 -0 7.29228e-06)
(0 -0 7.31625e-06)
(0 -0 7.3556e-06)
(0 -0 7.4111e-06)
(0 -0 7.48342e-06)
(0 -0 7.57308e-06)
(0 -0 7.68059e-06)
(0 -0 7.80647e-06)
(0 -0 7.95128e-06)
(0 -0 8.11559e-06)
(0 -0 8.29984e-06)
(0 -0 8.50413e-06)
(0 -0 8.72777e-06)
(0 -0 8.96851e-06)
(0 -0 9.2211e-06)
(0 -0 9.47513e-06)
(0 -0 9.71204e-06)
(0 -0 9.902e-06)
(0 -0 1.00018e-05)
(0 -0 9.95551e-06)
(0 -0 9.70023e-06)
(0 -0 0.000553554)
(0 -0 0.00168677)
(0 -0 0.00305483)
(0 -0 0.00327417)
(0 -0 0.00213133)
(0 -0 0.000503042)
(0 -0 -0.000720347)
(0 -0 -0.0012303)
(0 -0 -0.00119018)
(0 -0 -0.000899254)
(0 -0 -0.000579507)
(0 -0 -0.000331036)
(0 -0 -0.000170482)
(0 -0 -7.89118e-05)
(0 -0 -3.13722e-05)
(0 -0 -8.48131e-06)
(0 -0 1.86512e-06)
(0 -0 6.28348e-06)
(0 -0 8.06343e-06)
(0 -0 8.72577e-06)
(0 -0 8.93382e-06)
(0 -0 8.96364e-06)
(0 -0 8.92612e-06)
(0 -0 8.86498e-06)
(0 -0 8.79752e-06)
(0 -0 8.73099e-06)
(0 -0 8.66881e-06)
(0 -0 8.61291e-06)
(0 -0 8.56458e-06)
(0 -0 8.52474e-06)
(0 -0 8.49417e-06)
(0 -0 8.4736e-06)
(0 -0 8.46381e-06)
(0 -0 8.46573e-06)
(0 -0 8.48037e-06)
(0 -0 8.50874e-06)
(0 -0 8.55179e-06)
(0 -0 8.61031e-06)
(0 -0 8.68492e-06)
(0 -0 8.77615e-06)
(0 -0 8.88447e-06)
(0 -0 9.01036e-06)
(0 -0 9.15432e-06)
(0 -0 9.31682e-06)
(0 -0 9.4982e-06)
(0 -0 9.69843e-06)
(0 -0 9.9167e-06)
(0 -0 1.01507e-05)
(0 -0 1.0395e-05)
(0 -0 1.06394e-05)
(0 -0 1.08655e-05)
(0 -0 1.10442e-05)
(0 -0 1.11334e-05)
(0 -0 1.10792e-05)
(0 -0 1.0822e-05)
(0 -0 0.000561531)
(0 -0 0.00173782)
(0 -0 0.00315757)
(0 -0 0.00338533)
(0 -0 0.00220046)
(0 -0 0.000512948)
(0 -0 -0.000753894)
(0 -0 -0.00128063)
(0 -0 -0.00123717)
(0 -0 -0.000934104)
(0 -0 -0.00060162)
(0 -0 -0.000343405)
(0 -0 -0.000176588)
(0 -0 -8.14398e-05)
(0 -0 -3.20242e-05)
(0 -0 -8.20711e-06)
(0 -0 2.58199e-06)
(0 -0 7.21358e-06)
(0 -0 9.10339e-06)
(0 -0 9.83047e-06)
(0 -0 1.00836e-05)
(0 -0 1.01496e-05)
(0 -0 1.01439e-05)
(0 -0 1.0112e-05)
(0 -0 1.00722e-05)
(0 -0 1.0032e-05)
(0 -0 9.99508e-06)
(0 -0 9.96335e-06)
(0 -0 9.93813e-06)
(0 -0 9.92039e-06)
(0 -0 9.91096e-06)
(0 -0 9.91064e-06)
(0 -0 9.9203e-06)
(0 -0 9.94092e-06)
(0 -0 9.97356e-06)
(0 -0 1.00193e-05)
(0 -0 1.0079e-05)
(0 -0 1.01536e-05)
(0 -0 1.02437e-05)
(0 -0 1.03498e-05)
(0 -0 1.04723e-05)
(0 -0 1.06118e-05)
(0 -0 1.07687e-05)
(0 -0 1.09433e-05)
(0 -0 1.11359e-05)
(0 -0 1.13464e-05)
(0 -0 1.15738e-05)
(0 -0 1.18158e-05)
(0 -0 1.2067e-05)
(0 -0 1.23172e-05)
(0 -0 1.25483e-05)
(0 -0 1.27318e-05)
(0 -0 1.28269e-05)
(0 -0 1.27816e-05)
(0 -0 1.25395e-05)
(0 -0 0.000569809)
(0 -0 0.00179313)
(0 -0 0.00326732)
(0 -0 0.00350127)
(0 -0 0.00226841)
(0 -0 0.000515951)
(0 -0 -0.000797173)
(0 -0 -0.0013405)
(0 -0 -0.00129179)
(0 -0 -0.000974254)
(0 -0 -0.000627086)
(0 -0 -0.000357778)
(0 -0 -0.000183875)
(0 -0 -8.46897e-05)
(0 -0 -3.31537e-05)
(0 -0 -8.28181e-06)
(0 -0 3.0209e-06)
(0 -0 7.90947e-06)
(0 -0 9.94055e-06)
(0 -0 1.07582e-05)
(0 -0 1.10796e-05)
(0 -0 1.12036e-05)
(0 -0 1.12506e-05)
(0 -0 1.12683e-05)
(0 -0 1.12758e-05)
(0 -0 1.12812e-05)
(0 -0 1.12884e-05)
(0 -0 1.12994e-05)
(0 -0 1.13157e-05)
(0 -0 1.13384e-05)
(0 -0 1.13684e-05)
(0 -0 1.14067e-05)
(0 -0 1.14542e-05)
(0 -0 1.1512e-05)
(0 -0 1.15812e-05)
(0 -0 1.16631e-05)
(0 -0 1.17585e-05)
(0 -0 1.18684e-05)
(0 -0 1.19934e-05)
(0 -0 1.21342e-05)
(0 -0 1.22911e-05)
(0 -0 1.24646e-05)
(0 -0 1.26551e-05)
(0 -0 1.28631e-05)
(0 -0 1.30886e-05)
(0 -0 1.33314e-05)
(0 -0 1.35906e-05)
(0 -0 1.38637e-05)
(0 -0 1.41454e-05)
(0 -0 1.44256e-05)
(0 -0 1.46866e-05)
(0 -0 1.49005e-05)
(0 -0 1.50278e-05)
(0 -0 1.50183e-05)
(0 -0 1.4819e-05)
(0 -0 0.000578657)
(0 -0 0.00185356)
(0 -0 0.00338423)
(0 -0 0.00361989)
(0 -0 0.00233068)
(0 -0 0.000506267)
(0 -0 -0.000855874)
(0 -0 -0.0014146)
(0 -0 -0.00135743)
(0 -0 -0.001022)
(0 -0 -0.0006574)
(0 -0 -0.000375156)
(0 -0 -0.000193068)
(0 -0 -8.92408e-05)
(0 -0 -3.52704e-05)
(0 -0 -9.18309e-06)
(0 -0 2.71881e-06)
(0 -0 7.91521e-06)
(0 -0 1.0123e-05)
(0 -0 1.10599e-05)
(0 -0 1.14755e-05)
(0 -0 1.16821e-05)
(0 -0 1.18056e-05)
(0 -0 1.18961e-05)
(0 -0 1.19739e-05)
(0 -0 1.20476e-05)
(0 -0 1.21214e-05)
(0 -0 1.21976e-05)
(0 -0 1.22778e-05)
(0 -0 1.23635e-05)
(0 -0 1.24556e-05)
(0 -0 1.25553e-05)
(0 -0 1.26638e-05)
(0 -0 1.27823e-05)
(0 -0 1.29121e-05)
(0 -0 1.30544e-05)
(0 -0 1.32104e-05)
(0 -0 1.33809e-05)
(0 -0 1.35667e-05)
(0 -0 1.37685e-05)
(0 -0 1.39867e-05)
(0 -0 1.42218e-05)
(0 -0 1.44744e-05)
(0 -0 1.47447e-05)
(0 -0 1.50328e-05)
(0 -0 1.53386e-05)
(0 -0 1.56611e-05)
(0 -0 1.59978e-05)
(0 -0 1.63434e-05)
(0 -0 1.66879e-05)
(0 -0 1.70142e-05)
(0 -0 1.72951e-05)
(0 -0 1.74923e-05)
(0 -0 1.75577e-05)
(0 -0 1.74413e-05)
(0 -0 0.000588399)
(0 -0 0.00191999)
(0 -0 0.00350796)
(0 -0 0.00373799)
(0 -0 0.0023813)
(0 -0 0.000476622)
(0 -0 -0.000936924)
(0 -0 -0.0015085)
(0 -0 -0.00143809)
(0 -0 -0.00108)
(0 -0 -0.000694312)
(0 -0 -0.000396728)
(0 -0 -0.000205047)
(0 -0 -9.58216e-05)
(0 -0 -3.9033e-05)
(0 -0 -1.15407e-05)
(0 -0 1.05601e-06)
(0 -0 6.61318e-06)
(0 -0 9.03225e-06)
(0 -0 1.01157e-05)
(0 -0 1.06497e-05)
(0 -0 1.09621e-05)
(0 -0 1.1185e-05)
(0 -0 1.13712e-05)
(0 -0 1.15421e-05)
(0 -0 1.1707e-05)
(0 -0 1.18704e-05)
(0 -0 1.20352e-05)
(0 -0 1.22031e-05)
(0 -0 1.23758e-05)
(0 -0 1.25547e-05)
(0 -0 1.27412e-05)
(0 -0 1.29366e-05)
(0 -0 1.31424e-05)
(0 -0 1.336e-05)
(0 -0 1.35908e-05)
(0 -0 1.38361e-05)
(0 -0 1.4097e-05)
(0 -0 1.43742e-05)
(0 -0 1.46686e-05)
(0 -0 1.49808e-05)
(0 -0 1.53112e-05)
(0 -0 1.56605e-05)
(0 -0 1.6029e-05)
(0 -0 1.6417e-05)
(0 -0 1.68242e-05)
(0 -0 1.72498e-05)
(0 -0 1.76912e-05)
(0 -0 1.81433e-05)
(0 -0 1.85965e-05)
(0 -0 1.9034e-05)
(0 -0 1.94295e-05)
(0 -0 1.9746e-05)
(0 -0 1.99376e-05)
(0 -0 1.99574e-05)
(0 -0 0.000599385)
(0 -0 0.0019931)
(0 -0 0.00363761)
(0 -0 0.00385151)
(0 -0 0.00241335)
(0 -0 0.000418947)
(0 -0 -0.00104777)
(0 -0 -0.00162807)
(0 -0 -0.00153792)
(0 -0 -0.001151)
(0 -0 -0.000739603)
(0 -0 -0.000423711)
(0 -0 -0.000220732)
(0 -0 -0.000105209)
(0 -0 -4.5158e-05)
(0 -0 -1.60515e-05)
(0 -0 -2.66272e-06)
(0 -0 3.30279e-06)
(0 -0 5.96004e-06)
(0 -0 7.20896e-06)
(0 -0 7.87793e-06)
(0 -0 8.31219e-06)
(0 -0 8.65104e-06)
(0 -0 8.95001e-06)
(0 -0 9.23174e-06)
(0 -0 9.5062e-06)
(0 -0 9.77847e-06)
(0 -0 1.00517e-05)
(0 -0 1.03281e-05)
(0 -0 1.06096e-05)
(0 -0 1.0898e-05)
(0 -0 1.11949e-05)
(0 -0 1.15019e-05)
(0 -0 1.18209e-05)
(0 -0 1.21535e-05)
(0 -0 1.25012e-05)
(0 -0 1.28655e-05)
(0 -0 1.32476e-05)
(0 -0 1.36485e-05)
(0 -0 1.40691e-05)
(0 -0 1.45103e-05)
(0 -0 1.49727e-05)
(0 -0 1.5457e-05)
(0 -0 1.59638e-05)
(0 -0 1.64934e-05)
(0 -0 1.70457e-05)
(0 -0 1.76198e-05)
(0 -0 1.82135e-05)
(0 -0 1.88219e-05)
(0 -0 1.94356e-05)
(0 -0 2.00382e-05)
(0 -0 2.06047e-05)
(0 -0 2.10995e-05)
(0 -0 2.14791e-05)
(0 -0 2.16996e-05)
(0 -0 0.000611939)
(0 -0 0.00207332)
(0 -0 0.00377178)
(0 -0 0.00395599)
(0 -0 0.0024199)
(0 -0 0.000325583)
(0 -0 -0.00119523)
(0 -0 -0.00177851)
(0 -0 -0.00166048)
(0 -0 -0.0012373)
(0 -0 -0.000794751)
(0 -0 -0.000457112)
(0 -0 -0.000240888)
(0 -0 -0.000118061)
(0 -0 -5.42665e-05)
(0 -0 -2.33319e-05)
(0 -0 -9.06276e-06)
(0 -0 -2.65571e-06)
(0 -0 2.50935e-07)
(0 -0 1.66895e-06)
(0 -0 2.47481e-06)
(0 -0 3.03346e-06)
(0 -0 3.492e-06)
(0 -0 3.90899e-06)
(0 -0 4.3083e-06)
(0 -0 4.70056e-06)
(0 -0 5.09131e-06)
(0 -0 5.48409e-06)
(0 -0 5.88156e-06)
(0 -0 6.28598e-06)
(0 -0 6.69945e-06)
(0 -0 7.12398e-06)
(0 -0 7.56158e-06)
(0 -0 8.01423e-06)
(0 -0 8.48385e-06)
(0 -0 8.97224e-06)
(0 -0 9.48103e-06)
(0 -0 1.00117e-05)
(0 -0 1.05655e-05)
(0 -0 1.11435e-05)
(0 -0 1.17468e-05)
(0 -0 1.23764e-05)
(0 -0 1.30331e-05)
(0 -0 1.37177e-05)
(0 -0 1.44308e-05)
(0 -0 1.51725e-05)
(0 -0 1.59421e-05)
(0 -0 1.67376e-05)
(0 -0 1.75543e-05)
(0 -0 1.83832e-05)
(0 -0 1.92089e-05)
(0 -0 2.00071e-05)
(0 -0 2.07444e-05)
(0 -0 2.13796e-05)
(0 -0 2.18721e-05)
(0 -0 0.000626311)
(0 -0 0.00216062)
(0 -0 0.00390871)
(0 -0 0.00404735)
(0 -0 0.00239537)
(0 -0 0.000190836)
(0 -0 -0.00138403)
(0 -0 -0.00196319)
(0 -0 -0.00180792)
(0 -0 -0.0013402)
(0 -0 -0.000860539)
(0 -0 -0.000497437)
(0 -0 -0.000265896)
(0 -0 -0.000134716)
(0 -0 -6.66938e-05)
(0 -0 -3.37314e-05)
(0 -0 -1.85149e-05)
(0 -0 -1.16559e-05)
(0 -0 -8.51122e-06)
(0 -0 -6.94209e-06)
(0 -0 -6.01787e-06)
(0 -0 -5.35165e-06)
(0 -0 -4.78784e-06)
(0 -0 -4.26478e-06)
(0 -0 -3.75741e-06)
(0 -0 -3.25457e-06)
(0 -0 -2.75032e-06)
(0 -0 -2.24077e-06)
(0 -0 -1.72291e-06)
(0 -0 -1.19413e-06)
(0 -0 -6.51986e-07)
(0 -0 -9.41304e-08)
(0 -0 4.81769e-07)
(0 -0 1.07799e-06)
(0 -0 1.69671e-06)
(0 -0 2.33999e-06)
(0 -0 3.00972e-06)
(0 -0 3.70761e-06)
(0 -0 4.43522e-06)
(0 -0 5.19397e-06)
(0 -0 5.9852e-06)
(0 -0 6.81022e-06)
(0 -0 7.67023e-06)
(0 -0 8.56636e-06)
(0 -0 9.49945e-06)
(0 -0 1.04699e-05)
(0 -0 1.14774e-05)
(0 -0 1.252e-05)
(0 -0 1.35936e-05)
(0 -0 1.46896e-05)
(0 -0 1.57935e-05)
(0 -0 1.68824e-05)
(0 -0 1.79248e-05)
(0 -0 1.88826e-05)
(0 -0 1.97187e-05)
(0 -0 0.000642595)
(0 -0 0.00225436)
(0 -0 0.00404651)
(0 -0 0.0041228)
(0 -0 0.00233692)
(0 -0 1.25935e-05)
(0 -0 -0.00161533)
(0 -0 -0.00218253)
(0 -0 -0.00198023)
(0 -0 -0.00145947)
(0 -0 -0.000936693)
(0 -0 -0.000544436)
(0 -0 -0.000295551)
(0 -0 -0.000155011)
(0 -0 -8.23161e-05)
(0 -0 -4.71612e-05)
(0 -0 -3.09613e-05)
(0 -0 -2.36684e-05)
(0 -0 -2.03234e-05)
(0 -0 -1.86458e-05)
(0 -0 -1.7645e-05)
(0 -0 -1.69102e-05)
(0 -0 -1.62767e-05)
(0 -0 -1.56796e-05)
(0 -0 -1.50931e-05)
(0 -0 -1.45054e-05)
(0 -0 -1.39105e-05)
(0 -0 -1.33041e-05)
(0 -0 -1.26832e-05)
(0 -0 -1.20447e-05)
(0 -0 -1.13859e-05)
(0 -0 -1.07042e-05)
(0 -0 -9.99704e-06)
(0 -0 -9.26176e-06)
(0 -0 -8.49595e-06)
(0 -0 -7.6973e-06)
(0 -0 -6.86364e-06)
(0 -0 -5.99295e-06)
(0 -0 -5.08336e-06)
(0 -0 -4.13306e-06)
(0 -0 -3.14031e-06)
(0 -0 -2.10341e-06)
(0 -0 -1.02072e-06)
(0 -0 1.09266e-07)
(0 -0 1.28779e-06)
(0 -0 2.51563e-06)
(0 -0 3.79277e-06)
(0 -0 5.11778e-06)
(0 -0 6.48682e-06)
(0 -0 7.89211e-06)
(0 -0 9.32003e-06)
(0 -0 1.07494e-05)
(0 -0 1.2151e-05)
(0 -0 1.34898e-05)
(0 -0 1.47332e-05)
(0 -0 0.000660564)
(0 -0 0.00235327)
(0 -0 0.00418343)
(0 -0 0.00418155)
(0 -0 0.00224563)
(0 -0 -0.000206431)
(0 -0 -0.00188566)
(0 -0 -0.00243314)
(0 -0 -0.00217459)
(0 -0 -0.00159301)
(0 -0 -0.00102167)
(0 -0 -0.00059696)
(0 -0 -0.000328946)
(0 -0 -0.000178185)
(0 -0 -0.000100458)
(0 -0 -6.29982e-05)
(0 -0 -4.58156e-05)
(0 -0 -3.81357e-05)
(0 -0 -3.46529e-05)
(0 -0 -3.29324e-05)
(0 -0 -3.19186e-05)
(0 -0 -3.11748e-05)
(0 -0 -3.0527e-05)
(0 -0 -2.99075e-05)
(0 -0 -2.92892e-05)
(0 -0 -2.86606e-05)
(0 -0 -2.80155e-05)
(0 -0 -2.73498e-05)
(0 -0 -2.66599e-05)
(0 -0 -2.5943e-05)
(0 -0 -2.51961e-05)
(0 -0 -2.44163e-05)
(0 -0 -2.36008e-05)
(0 -0 -2.27468e-05)
(0 -0 -2.18516e-05)
(0 -0 -2.09127e-05)
(0 -0 -1.99276e-05)
(0 -0 -1.8894e-05)
(0 -0 -1.78096e-05)
(0 -0 -1.66722e-05)
(0 -0 -1.54796e-05)
(0 -0 -1.42296e-05)
(0 -0 -1.292e-05)
(0 -0 -1.1549e-05)
(0 -0 -1.01148e-05)
(0 -0 -8.61618e-06)
(0 -0 -7.05277e-06)
(0 -0 -5.42554e-06)
(0 -0 -3.73779e-06)
(0 -0 -1.99653e-06)
(0 -0 -2.14213e-07)
(0 -0 1.58977e-06)
(0 -0 3.38874e-06)
(0 -0 5.15194e-06)
(0 -0 6.84806e-06)
(0 -0 0.00067915)
(0 -0 0.00245334)
(0 -0 0.00431534)
(0 -0 0.0042246)
(0 -0 0.00212982)
(0 -0 -0.00045257)
(0 -0 -0.0021799)
(0 -0 -0.00270164)
(0 -0 -0.00238077)
(0 -0 -0.00173366)
(0 -0 -0.00111069)
(0 -0 -0.000651769)
(0 -0 -0.000363744)
(0 -0 -0.000202383)
(0 -0 -0.000119505)
(0 -0 -7.97471e-05)
(0 -0 -6.16405e-05)
(0 -0 -5.3651e-05)
(0 -0 -5.0112e-05)
(0 -0 -4.84283e-05)
(0 -0 -4.74772e-05)
(0 -0 -4.67958e-05)
(0 -0 -4.6201e-05)
(0 -0 -4.5622e-05)
(0 -0 -4.50316e-05)
(0 -0 -4.44182e-05)
(0 -0 -4.37758e-05)
(0 -0 -4.31004e-05)
(0 -0 -4.23888e-05)
(0 -0 -4.16379e-05)
(0 -0 -4.08447e-05)
(0 -0 -4.00064e-05)
(0 -0 -3.91198e-05)
(0 -0 -3.81821e-05)
(0 -0 -3.71903e-05)
(0 -0 -3.61418e-05)
(0 -0 -3.50337e-05)
(0 -0 -3.38634e-05)
(0 -0 -3.26283e-05)
(0 -0 -3.13256e-05)
(0 -0 -2.99527e-05)
(0 -0 -2.85069e-05)
(0 -0 -2.69854e-05)
(0 -0 -2.5386e-05)
(0 -0 -2.37063e-05)
(0 -0 -2.19446e-05)
(0 -0 -2.01003e-05)
(0 -0 -1.81736e-05)
(0 -0 -1.61674e-05)
(0 -0 -1.40878e-05)
(0 -0 -1.19459e-05)
(0 -0 -9.75928e-06)
(0 -0 -7.55151e-06)
(0 -0 -5.35129e-06)
(0 -0 -3.18084e-06)
(0 -0 0.000697919)
(0 -0 0.00255322)
(0 -0 0.00444263)
(0 -0 0.00425641)
(0 -0 0.00199805)
(0 -0 -0.000715338)
(0 -0 -0.00248807)
(0 -0 -0.00297998)
(0 -0 -0.00259296)
(0 -0 -0.00187746)
(0 -0 -0.00120106)
(0 -0 -0.000706926)
(0 -0 -0.000398407)
(0 -0 -0.000226259)
(0 -0 -0.000138196)
(0 -0 -9.61794e-05)
(0 -0 -7.72191e-05)
(0 -0 -6.9001e-05)
(0 -0 -6.54887e-05)
(0 -0 -6.39226e-05)
(0 -0 -6.31119e-05)
(0 -0 -6.2567e-05)
(0 -0 -6.20956e-05)
(0 -0 -6.16242e-05)
(0 -0 -6.11254e-05)
(0 -0 -6.05879e-05)
(0 -0 -6.00062e-05)
(0 -0 -5.93768e-05)
(0 -0 -5.86964e-05)
(0 -0 -5.79624e-05)
(0 -0 -5.71717e-05)
(0 -0 -5.63216e-05)
(0 -0 -5.54089e-05)
(0 -0 -5.44307e-05)
(0 -0 -5.33839e-05)
(0 -0 -5.22657e-05)