/*--------------------------------*- C++ -*----------------------------------*\
| =========                 |                                                 |
| \\      /  F ield         | OpenFOAM: The Open Source CFD Toolbox           |
|  \\    /   O peration     | Version:  2412                                  |
|   \\  /    A nd           | Website:  www.openfoam.com                      |
|    \\/     M anipulation  |                                                 |
\*---------------------------------------------------------------------------*/
FoamFile
{
    version     2.0;
    format      ascii;
    arch        "LSB;label=32;scalar=64";
    class       volVectorField;
    location    "26";
    object      vorticity;
}
// * * * * * * * * * * * * * * * * * * * * * * * * * * * * * * * * * * * * * //

dimensions      [0 0 -1 0 0 0 0];

internalField   nonuniform List<vector> 
5285
(
(0 -0 3.7413e-06)
(0 -0 3.93052e-06)
(0 -0 4.14346e-06)
(0 -0 4.3136e-06)
(0 -0 4.43748e-06)
(0 -0 4.52921e-06)
(0 -0 4.61323e-06)
(0 -0 4.69395e-06)
(0 -0 4.77458e-06)
(0 -0 4.85659e-06)
(0 -0 4.93775e-06)
(0 -0 5.00568e-06)
(0 -0 5.01803e-06)
(0 -0 4.86151e-06)
(0 -0 4.38615e-06)
(0 -0 3.79646e-06)
(0 -0 4.05661e-06)
(0 -0 4.27659e-06)
(0 -0 4.49205e-06)
(0 -0 4.70153e-06)
(0 -0 4.85089e-06)
(0 -0 4.9646e-06)
(0 -0 5.06997e-06)
(0 -0 5.1716e-06)
(0 -0 5.27284e-06)
(0 -0 5.3753e-06)
(0 -0 5.47671e-06)
(0 -0 5.56426e-06)
(0 -0 5.59319e-06)
(0 -0 5.43779e-06)
(0 -0 4.94658e-06)
(0 -0 4.24133e-06)
(0 -0 3.95013e-06)
(0 -0 4.17516e-06)
(0 -0 4.42395e-06)
(0 -0 4.6519e-06)
(0 -0 4.81428e-06)
(0 -0 4.94027e-06)
(0 -0 5.05759e-06)
(0 -0 5.17087e-06)
(0 -0 5.28355e-06)
(0 -0 5.39728e-06)
(0 -0 5.50975e-06)
(0 -0 5.60797e-06)
(0 -0 5.64623e-06)
(0 -0 5.49822e-06)
(0 -0 4.98447e-06)
(0 -0 4.31773e-06)
(0 -0 3.54402e-06)
(0 -0 3.78725e-06)
(0 -0 4.05009e-06)
(0 -0 4.28786e-06)
(0 -0 4.45807e-06)
(0 -0 4.59087e-06)
(0 -0 4.71453e-06)
(0 -0 4.8338e-06)
(0 -0 4.9522e-06)
(0 -0 5.07142e-06)
(0 -0 5.1892e-06)
(0 -0 5.29253e-06)
(0 -0 5.33558e-06)
(0 -0 5.19308e-06)
(0 -0 4.70087e-06)
(0 -0 4.05415e-06)
(0 -0 2.99191e-06)
(0 -0 3.24883e-06)
(0 -0 3.52377e-06)
(0 -0 3.77183e-06)
(0 -0 3.9505e-06)
(0 -0 4.09066e-06)
(0 -0 4.2211e-06)
(0 -0 4.34678e-06)
(0 -0 4.47133e-06)
(0 -0 4.59652e-06)
(0 -0 4.72019e-06)
(0 -0 4.82938e-06)
(0 -0 4.87837e-06)
(0 -0 4.74267e-06)
(0 -0 4.26307e-06)
(0 -0 3.64808e-06)
(0 -0 2.30573e-06)
(0 -0 2.57803e-06)
(0 -0 2.8671e-06)
(0 -0 3.12782e-06)
(0 -0 3.31746e-06)
(0 -0 3.46752e-06)
(0 -0 3.60732e-06)
(0 -0 3.742e-06)
(0 -0 3.87535e-06)
(0 -0 4.00928e-06)
(0 -0 4.1417e-06)
(0 -0 4.25977e-06)
(0 -0 4.31788e-06)
(0 -0 4.19168e-06)
(0 -0 3.72283e-06)
(0 -0 3.12315e-06)
(0 -0 1.45031e-06)
(0 -0 1.74087e-06)
(0 -0 2.04674e-06)
(0 -0 2.32279e-06)
(0 -0 2.52616e-06)
(0 -0 2.68894e-06)
(0 -0 2.84096e-06)
(0 -0 2.98758e-06)
(0 -0 3.13277e-06)
(0 -0 3.27857e-06)
(0 -0 3.42298e-06)
(0 -0 3.55328e-06)
(0 -0 3.62395e-06)
(0 -0 3.51043e-06)
(0 -0 3.05372e-06)
(0 -0 2.46633e-06)
(0 -0 3.87635e-07)
(0 -0 6.99584e-07)
(0 -0 1.02516e-06)
(0 -0 1.31935e-06)
(0 -0 1.53932e-06)
(0 -0 1.71774e-06)
(0 -0 1.88498e-06)
(0 -0 2.04662e-06)
(0 -0 2.20685e-06)
(0 -0 2.3678e-06)
(0 -0 2.52765e-06)
(0 -0 2.67375e-06)
(0 -0 2.76066e-06)
(0 -0 2.6635e-06)
(0 -0 2.2221e-06)
(0 -0 1.64889e-06)
(0 -0 -9.2138e-07)
(0 -0 -5.85041e-07)
(0 -0 -2.3694e-07)
(0 -0 7.81277e-08)
(0 -0 3.17464e-07)
(0 -0 5.14377e-07)
(0 -0 6.99768e-07)
(0 -0 8.79485e-07)
(0 -0 1.0579e-06)
(0 -0 1.23731e-06)
(0 -0 1.41602e-06)
(0 -0 1.58152e-06)
(0 -0 1.68844e-06)
(0 -0 1.61159e-06)
(0 -0 1.18958e-06)
(0 -0 6.34399e-07)
(0 -0 -2.51468e-06)
(0 -0 -2.15125e-06)
(0 -0 -1.77812e-06)
(0 -0 -1.43969e-06)
(0 -0 -1.17845e-06)
(0 -0 -9.60408e-07)
(0 -0 -7.54146e-07)
(0 -0 -5.53526e-07)
(0 -0 -3.53967e-07)
(0 -0 -1.52976e-07)
(0 -0 4.78929e-08)
(0 -0 2.3629e-07)
(0 -0 3.66929e-07)
(0 -0 3.14363e-07)
(0 -0 -8.39144e-08)
(0 -0 -6.16411e-07)
(0 -0 -4.42661e-06)
(0 -0 -4.03385e-06)
(0 -0 -3.63358e-06)
(0 -0 -3.26971e-06)
(0 -0 -2.98438e-06)
(0 -0 -2.74296e-06)
(0 -0 -2.51346e-06)
(0 -0 -2.28946e-06)
(0 -0 -2.06612e-06)
(0 -0 -1.84073e-06)
(0 -0 -1.61469e-06)
(0 -0 -1.40016e-06)
(0 -0 -1.24231e-06)
(0 -0 -1.26675e-06)
(0 -0 -1.63701e-06)
(0 -0 -2.1421e-06)
(0 -0 -6.68557e-06)
(0 -0 -6.26175e-06)
(0 -0 -5.83274e-06)
(0 -0 -5.44184e-06)
(0 -0 -5.13076e-06)
(0 -0 -4.86418e-06)
(0 -0 -4.60959e-06)
(0 -0 -4.36017e-06)
(0 -0 -4.11085e-06)
(0 -0 -3.8587e-06)
(0 -0 -3.60487e-06)
(0 -0 -3.36134e-06)
(0 -0 -3.17312e-06)
(0 -0 -3.16594e-06)
(0 -0 -3.50418e-06)
(0 -0 -3.97746e-06)
(0 -0 -9.31183e-06)
(0 -0 -8.85582e-06)
(0 -0 -8.39704e-06)
(0 -0 -7.97811e-06)
(0 -0 -7.64019e-06)
(0 -0 -7.34727e-06)
(0 -0 -7.06625e-06)
(0 -0 -6.78999e-06)
(0 -0 -6.51305e-06)
(0 -0 -6.23227e-06)
(0 -0 -5.94857e-06)
(0 -0 -5.67372e-06)
(0 -0 -5.45249e-06)
(0 -0 -5.41062e-06)
(0 -0 -5.71324e-06)
(0 -0 -6.15081e-06)
(0 -0 -1.23155e-05)
(0 -0 -1.18268e-05)
(0 -0 -1.13379e-05)
(0 -0 -1.08905e-05)
(0 -0 -1.05253e-05)
(0 -0 -1.02056e-05)
(0 -0 -9.89751e-06)
(0 -0 -9.59361e-06)
(0 -0 -9.28809e-06)
(0 -0 -8.97749e-06)
(0 -0 -8.66249e-06)
(0 -0 -8.35461e-06)
(0 -0 -8.09837e-06)
(0 -0 -8.01935e-06)
(0 -0 -8.28326e-06)
(0 -0 -8.68167e-06)
(0 -0 -1.5695e-05)
(0 -0 -1.51737e-05)
(0 -0 -1.46549e-05)
(0 -0 -1.41794e-05)
(0 -0 -1.37873e-05)
(0 -0 -1.34409e-05)
(0 -0 -1.3106e-05)
(0 -0 -1.27744e-05)
(0 -0 -1.24401e-05)
(0 -0 -1.20992e-05)
(0 -0 -1.17522e-05)
(0 -0 -1.14104e-05)
(0 -0 -1.11178e-05)
(0 -0 -1.09999e-05)
(0 -0 -1.12228e-05)
(0 -0 -1.15792e-05)
(0 -0 -1.94354e-05)
(0 -0 -1.88821e-05)
(0 -0 -1.83343e-05)
(0 -0 -1.7832e-05)
(0 -0 -1.74142e-05)
(0 -0 -1.70424e-05)
(0 -0 -1.66816e-05)
(0 -0 -1.63232e-05)
(0 -0 -1.59607e-05)
(0 -0 -1.55899e-05)
(0 -0 -1.5211e-05)
(0 -0 -1.4835e-05)
(0 -0 -1.45056e-05)
(0 -0 -1.4348e-05)
(0 -0 -1.45285e-05)
(0 -0 -1.48407e-05)
(0 -0 -2.35077e-05)
(0 -0 -2.29236e-05)
(0 -0 -2.23487e-05)
(0 -0 -2.18218e-05)
(0 -0 -2.13806e-05)
(0 -0 -2.09855e-05)
(0 -0 -2.06008e-05)
(0 -0 -2.02173e-05)
(0 -0 -1.98281e-05)
(0 -0 -1.94285e-05)
(0 -0 -1.90186e-05)
(0 -0 -1.86089e-05)
(0 -0 -1.82431e-05)
(0 -0 -1.80458e-05)
(0 -0 -1.81836e-05)
(0 -0 -1.8451e-05)
(0 -0 -2.78688e-05)
(0 -0 -2.72547e-05)
(0 -0 -2.66563e-05)
(0 -0 -2.61088e-05)
(0 -0 -2.56479e-05)
(0 -0 -2.52328e-05)
(0 -0 -2.48269e-05)
(0 -0 -2.44206e-05)
(0 -0 -2.40066e-05)
(0 -0 -2.35802e-05)
(0 -0 -2.31408e-05)
(0 -0 -2.26989e-05)
(0 -0 -2.22979e-05)
(0 -0 -2.2062e-05)
(0 -0 -2.21581e-05)
(0 -0 -2.23816e-05)
(0 -0 -3.24592e-05)
(0 -0 -3.18182e-05)
(0 -0 -3.12023e-05)
(0 -0 -3.06413e-05)
(0 -0 -3.01654e-05)
(0 -0 -2.97338e-05)
(0 -0 -2.93098e-05)
(0 -0 -2.88835e-05)
(0 -0 -2.84474e-05)
(0 -0 -2.79964e-05)
(0 -0 -2.753e-05)
(0 -0 -2.70581e-05)
(0 -0 -2.66239e-05)
(0 -0 -2.63517e-05)
(0 -0 -2.64091e-05)
(0 -0 -2.65922e-05)
(0 -0 -3.72175e-05)
(0 -0 -3.65456e-05)
(0 -0 -3.59155e-05)
(0 -0 -3.53601e-05)
(0 -0 -3.48726e-05)
(0 -0 -3.44269e-05)
(0 -0 -3.39873e-05)
(0 -0 -3.35438e-05)
(0 -0 -3.30884e-05)
(0 -0 -3.26159e-05)
(0 -0 -3.21253e-05)
(0 -0 -3.16265e-05)
(0 -0 -3.11623e-05)
(0 -0 -3.08576e-05)
(0 -0 -3.08828e-05)
(0 -0 -3.10326e-05)
(0 -0 0.000382007)
(0 -0 0.000380399)
(0 -0 0.000378917)
(0 -0 0.000377563)
(0 -0 0.000376123)
(0 -0 0.000374317)
(0 -0 0.000372698)
(0 -0 0.000374055)
(0 -0 0.000384257)
(0 -0 0.000388998)
(0 -0 0.000387365)
(0 -0 0.000385861)
(0 -0 0.000384487)
(0 -0 0.000383024)
(0 -0 0.00038118)
(0 -0 0.000379528)
(0 -0 0.00038095)
(0 -0 0.000391512)
(0 -0 0.000419568)
(0 -0 0.000472839)
(0 -0 0.000554539)
(0 -0 0.000660379)
(0 -0 0.000777982)
(0 -0 0.000889162)
(0 -0 0.000974218)
(0 -0 0.00101669)
(0 -0 0.00100701)
(0 -0 0.000944114)
(0 -0 0.000834915)
(0 -0 0.000692084)
(0 -0 0.000531108)
(0 -0 0.000367397)
(0 -0 0.000214049)
(0 -0 8.05469e-05)
(0 -0 -2.76212e-05)
(0 -0 -0.000108643)
(0 -0 -0.000163619)
(0 -0 -0.000195626)
(0 -0 -0.000208819)
(0 -0 -0.000207676)
(0 -0 -0.000196461)
(0 -0 -0.000178887)
(0 -0 -0.00015796)
(0 -0 -0.000135952)
(0 -0 -0.000114457)
(0 -0 -9.44987e-05)
(0 -0 -7.6647e-05)
(0 -0 -6.11396e-05)
(0 -0 -4.79831e-05)
(0 -0 -3.70375e-05)
(0 -0 -2.80805e-05)
(0 -0 -2.08538e-05)
(0 -0 -1.5094e-05)
(0 -0 -1.05521e-05)
(0 -0 -7.00381e-06)
(0 -0 -4.25461e-06)
(0 -0 -2.14003e-06)
(0 -0 -5.24243e-07)
(0 -0 7.03052e-07)
(0 -0 1.62988e-06)
(0 -0 2.32495e-06)
(0 -0 2.84177e-06)
(0 -0 3.21614e-06)
(0 -0 3.48611e-06)
(0 -0 0.000395736)
(0 -0 0.00039408)
(0 -0 0.000392555)
(0 -0 0.000391164)
(0 -0 0.000389678)
(0 -0 0.000387796)
(0 -0 0.000386111)
(0 -0 0.000387602)
(0 -0 0.00039854)
(0 -0 0.000427555)
(0 -0 0.000482615)
(0 -0 0.000567025)
(0 -0 0.00067633)
(0 -0 0.000797727)
(0 -0 0.000912418)
(0 -0 0.00100006)
(0 -0 0.00104367)
(0 -0 0.00103341)
(0 -0 0.000968226)
(0 -0 0.000855285)
(0 -0 0.000707713)
(0 -0 0.000541524)
(0 -0 0.000372633)
(0 -0 0.000214559)
(0 -0 7.70789e-05)
(0 -0 -3.4167e-05)
(0 -0 -0.000117333)
(0 -0 -0.000173579)
(0 -0 -0.000206107)
(0 -0 -0.000219222)
(0 -0 -0.000217564)
(0 -0 -0.000205543)
(0 -0 -0.000186999)
(0 -0 -0.000165038)
(0 -0 -0.000142004)
(0 -0 -0.000119541)
(0 -0 -9.87031e-05)
(0 -0 -8.0075e-05)
(0 -0 -6.38974e-05)
(0 -0 -5.01732e-05)
(0 -0 -3.87538e-05)
(0 -0 -2.94062e-05)
(0 -0 -2.18603e-05)
(0 -0 -1.58413e-05)
(0 -0 -1.10896e-05)
(0 -0 -7.37174e-06)
(0 -0 -4.485e-06)
(0 -0 -2.25817e-06)
(0 -0 -5.49769e-07)
(0 -0 7.5506e-07)
(0 -0 1.74802e-06)
(0 -0 2.50067e-06)
(0 -0 3.06725e-06)
(0 -0 3.48999e-06)
(0 -0 3.78614e-06)
(0 -0 0.000402221)
(0 -0 0.000400542)
(0 -0 0.000398998)
(0 -0 0.00039759)
(0 -0 0.000396082)
(0 -0 0.000394162)
(0 -0 0.000392444)
(0 -0 0.00039401)
(0 -0 0.000405341)
(0 -0 0.000435356)
(0 -0 0.000492274)
(0 -0 0.000579489)
(0 -0 0.000692369)
(0 -0 0.00081766)
(0 -0 0.000935933)
(0 -0 0.00102618)
(0 -0 0.00107088)
(0 -0 0.00105992)
(0 -0 0.000992258)
(0 -0 0.000875361)
(0 -0 0.000722818)
(0 -0 0.000551193)
(0 -0 0.000376932)
(0 -0 0.000213985)
(0 -0 7.24276e-05)
(0 -0 -4.19443e-05)
(0 -0 -0.000127256)
(0 -0 -0.000184738)
(0 -0 -0.000217721)
(0 -0 -0.000230675)
(0 -0 -0.000228408)
(0 -0 -0.000215483)
(0 -0 -0.000195874)
(0 -0 -0.000172789)
(0 -0 -0.000148649)
(0 -0 -0.000125149)
(0 -0 -0.000103372)
(0 -0 -8.39189e-05)
(0 -0 -6.70323e-05)
(0 -0 -5.27104e-05)
(0 -0 -4.0795e-05)
(0 -0 -3.10412e-05)
(0 -0 -2.31663e-05)
(0 -0 -1.68833e-05)
(0 -0 -1.19213e-05)
(0 -0 -8.03673e-06)
(0 -0 -5.01838e-06)
(0 -0 -2.68783e-06)
(0 -0 -8.97666e-07)
(0 -0 4.71778e-07)
(0 -0 1.51602e-06)
(0 -0 2.30967e-06)
(0 -0 2.90909e-06)
(0 -0 3.35511e-06)
(0 -0 3.6702e-06)
(0 -0 0.000408451)
(0 -0 0.00040675)
(0 -0 0.000405187)
(0 -0 0.000403765)
(0 -0 0.000402236)
(0 -0 0.000400278)
(0 -0 0.000398527)
(0 -0 0.000400173)
(0 -0 0.000411918)
(0 -0 0.000442975)
(0 -0 0.000501827)
(0 -0 0.000591949)
(0 -0 0.000708519)
(0 -0 0.000837809)
(0 -0 0.000959723)
(0 -0 0.00105256)
(0 -0 0.00109827)
(0 -0 0.00108645)
(0 -0 0.00101609)
(0 -0 0.000894973)
(0 -0 0.000737183)
(0 -0 0.000559866)
(0 -0 0.000380017)
(0 -0 0.000212034)
(0 -0 6.62978e-05)
(0 -0 -5.12398e-05)
(0 -0 -0.000138683)
(0 -0 -0.000197341)
(0 -0 -0.000230688)
(0 -0 -0.000243369)
(0 -0 -0.000240369)
(0 -0 -0.000226417)
(0 -0 -0.000205622)
(0 -0 -0.000181303)
(0 -0 -0.000155957)
(0 -0 -0.000131334)
(0 -0 -0.000108546)
(0 -0 -8.82076e-05)
(0 -0 -7.05634e-05)
(0 -0 -5.56051e-05)
(0 -0 -4.31639e-05)
(0 -0 -3.29815e-05)
(0 -0 -2.47614e-05)
(0 -0 -1.82032e-05)
(0 -0 -1.30237e-05)
(0 -0 -8.96857e-06)
(0 -0 -5.81736e-06)
(0 -0 -3.38393e-06)
(0 -0 -1.5145e-06)
(0 -0 -8.42751e-08)
(0 -0 1.00636e-06)
(0 -0 1.83528e-06)
(0 -0 2.4613e-06)
(0 -0 2.92684e-06)
(0 -0 3.25857e-06)
(0 -0 0.000414423)
(0 -0 0.000412702)
(0 -0 0.000411123)
(0 -0 0.000409686)
(0 -0 0.000408137)
(0 -0 0.00040614)
(0 -0 0.000404356)
(0 -0 0.000406089)
(0 -0 0.000418272)
(0 -0 0.000450423)
(0 -0 0.00051129)
(0 -0 0.00060443)
(0 -0 0.000724809)
(0 -0 0.000858193)
(0 -0 0.000983792)
(0 -0 0.00107919)
(0 -0 0.00112578)
(0 -0 0.00111287)
(0 -0 0.00103953)
(0 -0 0.00091387)
(0 -0 0.000750509)
(0 -0 0.000567204)
(0 -0 0.000381526)
(0 -0 0.000208337)
(0 -0 5.83282e-05)
(0 -0 -6.23975e-05)
(0 -0 -0.000151932)
(0 -0 -0.000211674)
(0 -0 -0.00024526)
(0 -0 -0.00025752)
(0 -0 -0.00025363)
(0 -0 -0.000238493)
(0 -0 -0.000216363)
(0 -0 -0.000190671)
(0 -0 -0.000163999)
(0 -0 -0.000138146)
(0 -0 -0.000114256)
(0 -0 -9.29557e-05)
(0 -0 -7.44911e-05)
(0 -0 -5.88456e-05)
(0 -0 -4.58376e-05)
(0 -0 -3.5194e-05)
(0 -0 -2.66028e-05)
(0 -0 -1.9749e-05)
(0 -0 -1.43361e-05)
(0 -0 -1.00979e-05)
(0 -0 -6.80406e-06)
(0 -0 -4.25998e-06)
(0 -0 -2.30507e-06)
(0 -0 -8.09002e-07)
(0 -0 3.32248e-07)
(0 -0 1.20004e-06)
(0 -0 1.85597e-06)
(0 -0 2.34478e-06)
(0 -0 2.69629e-06)
(0 -0 0.000420137)
(0 -0 0.000418397)
(0 -0 0.000416802)
(0 -0 0.000415353)
(0 -0 0.000413784)
(0 -0 0.000411748)
(0 -0 0.000409932)
(0 -0 0.000411758)
(0 -0 0.000424403)
(0 -0 0.000457701)
(0 -0 0.00052067)
(0 -0 0.000616938)
(0 -0 0.000741238)
(0 -0 0.000878799)
(0 -0 0.0010081)
(0 -0 0.00110599)
(0 -0 0.00115328)
(0 -0 0.00113903)
(0 -0 0.00106237)
(0 -0 0.000931794)
(0 -0 0.0007625)
(0 -0 0.000572884)
(0 -0 0.00038112)
(0 -0 0.000202551)
(0 -0 4.81813e-05)
(0 -0 -7.57394e-05)
(0 -0 -0.000167301)
(0 -0 -0.000228012)
(0 -0 -0.000261679)
(0 -0 -0.00027334)
(0 -0 -0.000268373)
(0 -0 -0.000251866)
(0 -0 -0.000228226)
(0 -0 -0.000201003)
(0 -0 -0.00017286)
(0 -0 -0.000145654)
(0 -0 -0.000120557)
(0 -0 -9.82072e-05)
(0 -0 -7.88497e-05)
(0 -0 -6.24578e-05)
(0 -0 -4.88352e-05)
(0 -0 -3.76921e-05)
(0 -0 -2.86995e-05)
(0 -0 -2.1526e-05)
(0 -0 -1.58605e-05)
(0 -0 -1.14241e-05)
(0 -0 -7.97551e-06)
(0 -0 -5.31106e-06)
(0 -0 -3.26277e-06)
(0 -0 -1.69432e-06)
(0 -0 -4.96921e-07)
(0 -0 4.14561e-07)
(0 -0 1.10475e-06)
(0 -0 1.62104e-06)
(0 -0 1.99661e-06)
(0 -0 0.000425591)
(0 -0 0.000423833)
(0 -0 0.000422225)
(0 -0 0.000420765)
(0 -0 0.000419176)
(0 -0 0.000417101)
(0 -0 0.000415252)
(0 -0 0.00041718)
(0 -0 0.000430312)
(0 -0 0.000464812)
(0 -0 0.000529971)
(0 -0 0.000629477)
(0 -0 0.000757807)
(0 -0 0.000899617)
(0 -0 0.00103262)
(0 -0 0.0011329)
(0 -0 0.00118068)
(0 -0 0.00116477)
(0 -0 0.00108442)
(0 -0 0.000948521)
(0 -0 0.000772896)
(0 -0 0.00057662)
(0 -0 0.0003785)
(0 -0 0.00019437)
(0 -0 3.55552e-05)
(0 -0 -9.15552e-05)
(0 -0 -0.000185063)
(0 -0 -0.000246602)
(0 -0 -0.000280172)
(0 -0 -0.00029103)
(0 -0 -0.000284775)
(0 -0 -0.00026669)
(0 -0 -0.000241345)
(0 -0 -0.000212411)
(0 -0 -0.000182641)
(0 -0 -0.000153944)
(0 -0 -0.000127524)
(0 -0 -0.000104028)
(0 -0 -8.36978e-05)
(0 -0 -6.64945e-05)
(0 -0 -5.2205e-05)
(0 -0 -4.05206e-05)
(0 -0 -3.10934e-05)
(0 -0 -2.35741e-05)
(0 -0 -1.76354e-05)
(0 -0 -1.29845e-05)
(0 -0 -9.36818e-06)
(0 -0 -6.57303e-06)
(0 -0 -4.423e-06)
(0 -0 -2.77531e-06)
(0 -0 -1.516e-06)
(0 -0 -5.55883e-07)
(0 -0 1.72945e-07)
(0 -0 7.20732e-07)
(0 -0 1.12404e-06)
(0 -0 0.000430786)
(0 -0 0.000429011)
(0 -0 0.00042739)
(0 -0 0.00042592)
(0 -0 0.000424313)
(0 -0 0.000422197)
(0 -0 0.000420316)
(0 -0 0.000422354)
(0 -0 0.000436001)
(0 -0 0.000471759)
(0 -0 0.000539196)
(0 -0 0.00064205)
(0 -0 0.00077451)
(0 -0 0.000920626)
(0 -0 0.00105731)
(0 -0 0.00115983)
(0 -0 0.00120786)
(0 -0 0.00118995)
(0 -0 0.00110548)
(0 -0 0.000963809)
(0 -0 0.000781421)
(0 -0 0.000578113)
(0 -0 0.00037335)
(0 -0 0.000183476)
(0 -0 2.01379e-05)
(0 -0 -0.000110143)
(0 -0 -0.000205497)
(0 -0 -0.0002677)
(0 -0 -0.000300966)
(0 -0 -0.000310793)
(0 -0 -0.000303014)
(0 -0 -0.00028312)
(0 -0 -0.000255853)
(0 -0 -0.000225013)
(0 -0 -0.000193441)
(0 -0 -0.000163104)
(0 -0 -0.000135233)
(0 -0 -0.000110485)
(0 -0 -8.90948e-05)
(0 -0 -7.10095e-05)
(0 -0 -5.59965e-05)
(0 -0 -4.37258e-05)
(0 -0 -3.38282e-05)
(0 -0 -2.59349e-05)
(0 -0 -1.97009e-05)
(0 -0 -1.48182e-05)
(0 -0 -1.10205e-05)
(0 -0 -8.08385e-06)
(0 -0 -5.82342e-06)
(0 -0 -4.08945e-06)
(0 -0 -2.76241e-06)
(0 -0 -1.74872e-06)
(0 -0 -9.76962e-07)
(0 -0 -3.93852e-07)
(0 -0 4.06027e-08)
(0 -0 0.00043572)
(0 -0 0.00043393)
(0 -0 0.000432297)
(0 -0 0.000430819)
(0 -0 0.000429193)
(0 -0 0.000427037)
(0 -0 0.000425124)
(0 -0 0.000427279)
(0 -0 0.000441469)
(0 -0 0.000478543)
(0 -0 0.000548347)
(0 -0 0.000654654)
(0 -0 0.000791339)
(0 -0 0.000941801)
(0 -0 0.00108211)
(0 -0 0.00118672)
(0 -0 0.0012347)
(0 -0 0.00121439)
(0 -0 0.00112533)
(0 -0 0.000977403)
(0 -0 0.000787791)
(0 -0 0.000577057)
(0 -0 0.000365353)
(0 -0 0.000169551)
(0 -0 1.61898e-06)
(0 -0 -0.000131798)
(0 -0 -0.000228875)
(0 -0 -0.000291555)
(0 -0 -0.000324286)
(0 -0 -0.000332827)
(0 -0 -0.000323262)
(0 -0 -0.000301307)
(0 -0 -0.00027188)
(0 -0 -0.000238918)
(0 -0 -0.000205356)
(0 -0 -0.000173216)
(0 -0 -0.000143757)
(0 -0 -0.000117642)
(0 -0 -9.50985e-05)
(0 -0 -7.60553e-05)
(0 -0 -6.02579e-05)
(0 -0 -4.73525e-05)
(0 -0 -3.69466e-05)
(0 -0 -2.86495e-05)
(0 -0 -2.20969e-05)
(0 -0 -1.69642e-05)
(0 -0 -1.2971e-05)
(0 -0 -9.88166e-06)
(0 -0 -7.50201e-06)
(0 -0 -5.67468e-06)
(0 -0 -4.27415e-06)
(0 -0 -3.20209e-06)
(0 -0 -2.38331e-06)
(0 -0 -1.7613e-06)
(0 -0 -1.29261e-06)
(0 -0 0.000440393)
(0 -0 0.000438589)
(0 -0 0.000436946)
(0 -0 0.00043546)
(0 -0 0.000433817)
(0 -0 0.000431619)
(0 -0 0.000429675)
(0 -0 0.000431957)
(0 -0 0.000446717)
(0 -0 0.000485166)
(0 -0 0.000557424)
(0 -0 0.000667285)
(0 -0 0.000808277)
(0 -0 0.000963108)
(0 -0 0.00110696)
(0 -0 0.00121346)
(0 -0 0.00126106)
(0 -0 0.00123791)
(0 -0 0.00114376)
(0 -0 0.000989053)
(0 -0 0.000791726)
(0 -0 0.000573152)
(0 -0 0.000354203)
(0 -0 0.00015229)
(0 -0 -2.02953e-05)
(0 -0 -0.000156797)
(0 -0 -0.000255455)
(0 -0 -0.000318399)
(0 -0 -0.000350339)
(0 -0 -0.000357313)
(0 -0 -0.000345679)
(0 -0 -0.000321386)
(0 -0 -0.000289544)
(0 -0 -0.00025423)
(0 -0 -0.000218474)
(0 -0 -0.000184356)
(0 -0 -0.000153162)
(0 -0 -0.000125558)
(0 -0 -0.000101761)
(0 -0 -8.16795e-05)
(0 -0 -6.50334e-05)
(0 -0 -5.14424e-05)
(0 -0 -4.04881e-05)
(0 -0 -3.17559e-05)
(0 -0 -2.48606e-05)
(0 -0 -1.9459e-05)
(0 -0 -1.52557e-05)
(0 -0 -1.20025e-05)
(0 -0 -9.49479e-06)
(0 -0 -7.56714e-06)
(0 -0 -6.08755e-06)
(0 -0 -4.95257e-06)
(0 -0 -4.08298e-06)
(0 -0 -3.41883e-06)
(0 -0 -2.91317e-06)
(0 -0 0.000444805)
(0 -0 0.000442989)
(0 -0 0.000441337)
(0 -0 0.000439845)
(0 -0 0.000438185)
(0 -0 0.000435944)
(0 -0 0.000433968)
(0 -0 0.000436386)
(0 -0 0.000451747)
(0 -0 0.000491626)
(0 -0 0.000566423)
(0 -0 0.000679932)
(0 -0 0.0008253)
(0 -0 0.000984502)
(0 -0 0.0011318)
(0 -0 0.00123995)
(0 -0 0.00128681)
(0 -0 0.00126034)
(0 -0 0.00116056)
(0 -0 0.000998517)
(0 -0 0.000792964)
(0 -0 0.000566126)
(0 -0 0.000339622)
(0 -0 0.000131421)
(0 -0 -4.58659e-05)
(0 -0 -0.000185384)
(0 -0 -0.000285458)
(0 -0 -0.000348433)
(0 -0 -0.000379301)
(0 -0 -0.000384407)
(0 -0 -0.000370398)
(0 -0 -0.000343473)
(0 -0 -0.000308943)
(0 -0 -0.000271031)
(0 -0 -0.000232867)
(0 -0 -0.000196587)
(0 -0 -0.000163503)
(0 -0 -0.000134282)
(0 -0 -0.000109127)
(0 -0 -8.79222e-05)
(0 -0 -7.03601e-05)
(0 -0 -5.60304e-05)
(0 -0 -4.44862e-05)
(0 -0 -3.52869e-05)
(0 -0 -2.80238e-05)
(0 -0 -2.23343e-05)
(0 -0 -1.79063e-05)
(0 -0 -1.44779e-05)
(0 -0 -1.18335e-05)
(0 -0 -9.79878e-06)
(0 -0 -8.23487e-06)
(0 -0 -7.03281e-06)
(0 -0 -6.10898e-06)
(0 -0 -5.39987e-06)
(0 -0 -4.85495e-06)
(0 -0 0.000448958)
(0 -0 0.00044713)
(0 -0 0.00044547)
(0 -0 0.000443973)
(0 -0 0.000442296)
(0 -0 0.000440012)
(0 -0 0.000438006)
(0 -0 0.000440569)
(0 -0 0.000456557)
(0 -0 0.000497923)
(0 -0 0.000575339)
(0 -0 0.00069258)
(0 -0 0.000842379)
(0 -0 0.00100593)
(0 -0 0.00115655)
(0 -0 0.00126608)
(0 -0 0.00131179)
(0 -0 0.0012815)
(0 -0 0.00117553)
(0 -0 0.00100558)
(0 -0 0.000791277)
(0 -0 0.000555743)
(0 -0 0.00032138)
(0 -0 0.00010672)
(0 -0 -7.53023e-05)
(0 -0 -0.000217751)
(0 -0 -0.000319059)
(0 -0 -0.00038181)
(0 -0 -0.000411307)
(0 -0 -0.000414225)
(0 -0 -0.000397519)
(0 -0 -0.000367654)
(0 -0 -0.00033015)
(0 -0 -0.000289384)
(0 -0 -0.000248588)
(0 -0 -0.000209955)
(0 -0 -0.000174819)
(0 -0 -0.000143848)
(0 -0 -0.000117227)
(0 -0 -9.48121e-05)
(0 -0 -7.6265e-05)
(0 -0 -6.11424e-05)
(0 -0 -4.89661e-05)
(0 -0 -3.92668e-05)
(0 -0 -3.1611e-05)
(0 -0 -2.56144e-05)
(0 -0 -2.09471e-05)
(0 -0 -1.73325e-05)
(0 -0 -1.45431e-05)
(0 -0 -1.23951e-05)
(0 -0 -1.07421e-05)
(0 -0 -9.46919e-06)
(0 -0 -8.48822e-06)
(0 -0 -7.73182e-06)
(0 -0 -7.14585e-06)
(0 -0 0.00045285)
(0 -0 0.000451012)
(0 -0 0.000449346)
(0 -0 0.000447845)
(0 -0 0.000446151)
(0 -0 0.000443823)
(0 -0 0.000441787)
(0 -0 0.000444505)
(0 -0 0.000461149)
(0 -0 0.000504054)
(0 -0 0.000584161)
(0 -0 0.000705209)
(0 -0 0.000859478)
(0 -0 0.00102735)
(0 -0 0.00118112)
(0 -0 0.00129174)
(0 -0 0.00133589)
(0 -0 0.00130126)
(0 -0 0.00118851)
(0 -0 0.00101006)
(0 -0 0.000786485)
(0 -0 0.00054183)
(0 -0 0.000299308)
(0 -0 7.80337e-05)
(0 -0 -0.000108744)
(0 -0 -0.000254022)
(0 -0 -0.000356364)
(0 -0 -0.000418622)
(0 -0 -0.000446435)
(0 -0 -0.000446831)
(0 -0 -0.000427095)
(0 -0 -0.000393971)
(0 -0 -0.0003532)
(0 -0 -0.00030932)
(0 -0 -0.000265662)
(0 -0 -0.00022448)
(0 -0 -0.000187129)
(0 -0 -0.000154274)
(0 -0 -0.000126076)
(0 -0 -0.000102364)
(0 -0 -8.27625e-05)
(0 -0 -6.67924e-05)
(0 -0 -5.39415e-05)
(0 -0 -4.37098e-05)
(0 -0 -3.56364e-05)
(0 -0 -2.93141e-05)
(0 -0 -2.43934e-05)
(0 -0 -2.05821e-05)
(0 -0 -1.76399e-05)
(0 -0 -1.53729e-05)
(0 -0 -1.36265e-05)
(0 -0 -1.22797e-05)
(0 -0 -1.12392e-05)
(0 -0 -1.04338e-05)
(0 -0 -9.80553e-06)
(0 -0 0.000456482)
(0 -0 0.000454635)
(0 -0 0.000452965)
(0 -0 0.000451461)
(0 -0 0.000449751)
(0 -0 0.000447378)
(0 -0 0.000445314)
(0 -0 0.000448194)
(0 -0 0.000465519)
(0 -0 0.000510012)
(0 -0 0.000592876)
(0 -0 0.000717792)
(0 -0 0.000876552)
(0 -0 0.00104868)
(0 -0 0.00120543)
(0 -0 0.00131684)
(0 -0 0.00135899)
(0 -0 0.00131947)
(0 -0 0.00119936)
(0 -0 0.00101185)
(0 -0 0.000778475)
(0 -0 0.000524285)
(0 -0 0.000273323)
(0 -0 4.52933e-05)
(0 -0 -0.000146244)
(0 -0 -0.000294235)
(0 -0 -0.0003974)
(0 -0 -0.000458885)
(0 -0 -0.000484693)
(0 -0 -0.000482229)
(0 -0 -0.000459125)
(0 -0 -0.000422422)
(0 -0 -0.00037809)
(0 -0 -0.000330831)
(0 -0 -0.000284084)
(0 -0 -0.000240158)
(0 -0 -0.00020043)
(0 -0 -0.000165555)
(0 -0 -0.000135673)
(0 -0 -0.000110576)
(0 -0 -8.98511e-05)
(0 -0 -7.29799e-05)
(0 -0 -5.94131e-05)
(0 -0 -4.86173e-05)
(0 -0 -4.01024e-05)
(0 -0 -3.34363e-05)
(0 -0 -2.82491e-05)
(0 -0 -2.42314e-05)
(0 -0 -2.11294e-05)
(0 -0 -1.87383e-05)
(0 -0 -1.6895e-05)
(0 -0 -1.54718e-05)
(0 -0 -1.43702e-05)
(0 -0 -1.35147e-05)
(0 -0 -1.28435e-05)
(0 -0 0.000459857)
(0 -0 0.000458002)
(0 -0 0.000456328)
(0 -0 0.000454822)
(0 -0 0.000453096)
(0 -0 0.000450678)
(0 -0 0.000448586)
(0 -0 0.000451638)
(0 -0 0.000469668)
(0 -0 0.00051579)
(0 -0 0.000601467)
(0 -0 0.000730296)
(0 -0 0.000893552)
(0 -0 0.00106985)
(0 -0 0.0012294)
(0 -0 0.00134127)
(0 -0 0.00138098)
(0 -0 0.00133605)
(0 -0 0.001208)
(0 -0 0.00101087)
(0 -0 0.000767212)
(0 -0 0.000503099)
(0 -0 0.000243439)
(0 -0 8.53445e-06)
(0 -0 -0.00018775)
(0 -0 -0.000338326)
(0 -0 -0.000442096)
(0 -0 -0.000502524)
(0 -0 -0.000526006)
(0 -0 -0.000520346)
(0 -0 -0.000493543)
(0 -0 -0.000452946)
(0 -0 -0.000404764)
(0 -0 -0.00035387)
(0 -0 -0.00030381)
(0 -0 -0.000256951)
(0 -0 -0.000214687)
(0 -0 -0.000177663)
(0 -0 -0.000145991)
(0 -0 -0.000119426)
(0 -0 -9.7512e-05)
(0 -0 -7.96884e-05)
(0 -0 -6.53663e-05)
(0 -0 -5.39764e-05)
(0 -0 -4.49975e-05)
(0 -0 -3.79711e-05)
(0 -0 -3.25052e-05)
(0 -0 -2.82724e-05)
(0 -0 -2.50045e-05)
(0 -0 -2.24853e-05)
(0 -0 -2.05425e-05)
(0 -0 -1.90412e-05)
(0 -0 -1.78776e-05)
(0 -0 -1.69715e-05)
(0 -0 -1.62575e-05)
(0 -0 0.000462974)
(0 -0 0.000461112)
(0 -0 0.000459436)
(0 -0 0.00045793)
(0 -0 0.000456188)
(0 -0 0.000453724)
(0 -0 0.000451606)
(0 -0 0.000454836)
(0 -0 0.000473592)
(0 -0 0.00052138)
(0 -0 0.000609912)
(0 -0 0.000742685)
(0 -0 0.000910421)
(0 -0 0.0010908)
(0 -0 0.00125294)
(0 -0 0.00136495)
(0 -0 0.00140179)
(0 -0 0.00135095)
(0 -0 0.00121443)
(0 -0 0.00100716)
(0 -0 0.000752756)
(0 -0 0.000478369)
(0 -0 0.000209784)
(0 -0 -3.20908e-05)
(0 -0 -0.000233093)
(0 -0 -0.000386119)
(0 -0 -0.000490274)
(0 -0 -0.000549369)
(0 -0 -0.000570213)
(0 -0 -0.000561033)
(0 -0 -0.000530212)
(0 -0 -0.00048542)
(0 -0 -0.000433115)
(0 -0 -0.000378342)
(0 -0 -0.000324759)
(0 -0 -0.000274788)
(0 -0 -0.000229839)
(0 -0 -0.000190544)
(0 -0 -0.000156984)
(0 -0 -0.000128873)
(0 -0 -0.000105708)
(0 -0 -8.68839e-05)
(0 -0 -7.17701e-05)
(0 -0 -5.97587e-05)
(0 -0 -5.02955e-05)
(0 -0 -4.28939e-05)
(0 -0 -3.71387e-05)
(0 -0 -3.26835e-05)
(0 -0 -2.92449e-05)
(0 -0 -2.65944e-05)
(0 -0 -2.45503e-05)
(0 -0 -2.29702e-05)
(0 -0 -2.17444e-05)
(0 -0 -2.07881e-05)
(0 -0 -2.0032e-05)
(0 -0 0.000465836)
(0 -0 0.000463968)
(0 -0 0.00046229)
(0 -0 0.000460785)
(0 -0 0.000459028)
(0 -0 0.000456519)
(0 -0 0.000454374)
(0 -0 0.00045779)
(0 -0 0.000477287)
(0 -0 0.000526768)
(0 -0 0.000618185)
(0 -0 0.000754914)
(0 -0 0.000927097)
(0 -0 0.00111145)
(0 -0 0.00127598)
(0 -0 0.00138782)
(0 -0 0.00142139)
(0 -0 0.00136416)
(0 -0 0.00121868)
(0 -0 0.0010008)
(0 -0 0.000735265)
(0 -0 0.000450302)
(0 -0 0.000172606)
(0 -0 -7.63054e-05)
(0 -0 -0.000281981)
(0 -0 -0.000437316)
(0 -0 -0.000541642)
(0 -0 -0.00059914)
(0 -0 -0.000617055)
(0 -0 -0.000604055)
(0 -0 -0.000568921)
(0 -0 -0.000519659)
(0 -0 -0.000462978)
(0 -0 -0.000404105)
(0 -0 -0.000346806)
(0 -0 -0.000293561)
(0 -0 -0.000245792)
(0 -0 -0.000204117)
(0 -0 -0.00016858)
(0 -0 -0.000138851)
(0 -0 -0.00011438)
(0 -0 -9.45144e-05)
(0 -0 -7.85768e-05)
(0 -0 -6.59199e-05)
(0 -0 -5.59548e-05)
(0 -0 -4.81654e-05)
(0 -0 -4.21122e-05)
(0 -0 -3.74288e-05)
(0 -0 -3.38159e-05)
(0 -0 -3.10322e-05)
(0 -0 -2.88861e-05)
(0 -0 -2.72274e-05)
(0 -0 -2.594e-05)
(0 -0 -2.49346e-05)
(0 -0 -2.41376e-05)
(0 -0 0.000468442)
(0 -0 0.000466571)
(0 -0 0.000464892)
(0 -0 0.000463389)
(0 -0 0.000461617)
(0 -0 0.000459062)
(0 -0 0.000456893)
(0 -0 0.0004605)
(0 -0 0.000480751)
(0 -0 0.000531942)
(0 -0 0.000626257)
(0 -0 0.000766936)
(0 -0 0.000943515)
(0 -0 0.00113172)
(0 -0 0.00129843)
(0 -0 0.00140982)
(0 -0 0.00143975)
(0 -0 0.00137574)
(0 -0 0.00122088)
(0 -0 0.000992004)
(0 -0 0.000715001)
(0 -0 0.000419224)
(0 -0 0.000132279)
(0 -0 -0.000123704)
(0 -0 -0.000333992)
(0 -0 -0.000491497)
(0 -0 -0.000595794)
(0 -0 -0.000651454)
(0 -0 -0.000666178)
(0 -0 -0.000649089)
(0 -0 -0.000609385)
(0 -0 -0.000555409)
(0 -0 -0.000494135)
(0 -0 -0.000430968)
(0 -0 -0.000369788)
(0 -0 -0.000313128)
(0 -0 -0.000262423)
(0 -0 -0.000218272)
(0 -0 -0.000180683)
(0 -0 -0.000149277)
(0 -0 -0.000123454)
(0 -0 -0.00010251)
(0 -0 -8.57219e-05)
(0 -0 -7.23998e-05)
(0 -0 -6.19187e-05)
(0 -0 -5.37318e-05)
(0 -0 -4.7374e-05)
(0 -0 -4.24585e-05)
(0 -0 -3.86693e-05)
(0 -0 -3.57518e-05)
(0 -0 -3.3504e-05)
(0 -0 -3.17676e-05)
(0 -0 -3.04202e-05)
(0 -0 -2.93671e-05)
(0 -0 -2.85311e-05)
(0 -0 0.000470796)
(0 -0 0.000468922)
(0 -0 0.000467244)
(0 -0 0.000465743)
(0 -0 0.000463957)
(0 -0 0.000461358)
(0 -0 0.000459166)
(0 -0 0.000462967)
(0 -0 0.000483977)
(0 -0 0.000536884)
(0 -0 0.000634095)
(0 -0 0.000778696)
(0 -0 0.000959604)
(0 -0 0.00115154)
(0 -0 0.00132024)
(0 -0 0.00143092)
(0 -0 0.00145691)
(0 -0 0.00138577)
(0 -0 0.00122121)
(0 -0 0.000981037)
(0 -0 0.00069233)
(0 -0 0.000385573)
(0 -0 8.92974e-05)
(0 -0 -0.000173757)
(0 -0 -0.000388583)
(0 -0 -0.000548122)
(0 -0 -0.00065221)
(0 -0 -0.000705823)
(0 -0 -0.000717133)
(0 -0 -0.000695734)
(0 -0 -0.000651245)
(0 -0 -0.000592358)
(0 -0 -0.000526311)
(0 -0 -0.000458695)
(0 -0 -0.0003935)
(0 -0 -0.000333313)
(0 -0 -0.000279579)
(0 -0 -0.000232877)
(0 -0 -0.000193175)
(0 -0 -0.000160046)
(0 -0 -0.000132835)
(0 -0 -0.000110785)
(0 -0 -9.3126e-05)
(0 -0 -7.91241e-05)
(0 -0 -6.81167e-05)
(0 -0 -5.95255e-05)
(0 -0 -5.28592e-05)
(0 -0 -4.77096e-05)
(0 -0 -4.37435e-05)
(0 -0 -4.06929e-05)
(0 -0 -3.8345e-05)
(0 -0 -3.65329e-05)
(0 -0 -3.51274e-05)
(0 -0 -3.40282e-05)
(0 -0 -3.31568e-05)
(0 -0 0.0004729)
(0 -0 0.000471023)
(0 -0 0.000469347)
(0 -0 0.000467849)
(0 -0 0.00046605)
(0 -0 0.000463406)
(0 -0 0.000461193)
(0 -0 0.00046519)
(0 -0 0.000486961)
(0 -0 0.000541578)
(0 -0 0.000641663)
(0 -0 0.000790141)
(0 -0 0.000975291)
(0 -0 0.00117083)
(0 -0 0.00134135)
(0 -0 0.0014511)
(0 -0 0.00147291)
(0 -0 0.00139441)
(0 -0 0.00121992)
(0 -0 0.000968262)
(0 -0 0.00066771)
(0 -0 0.000349894)
(0 -0 4.42691e-05)
(0 -0 -0.000225817)
(0 -0 -0.000445094)
(0 -0 -0.000606541)
(0 -0 -0.000710267)
(0 -0 -0.000761665)
(0 -0 -0.000769389)
(0 -0 -0.000743511)
(0 -0 -0.000694077)
(0 -0 -0.000630134)
(0 -0 -0.000559186)
(0 -0 -0.000487008)
(0 -0 -0.000417703)
(0 -0 -0.00035391)
(0 -0 -0.000297082)
(0 -0 -0.000247777)
(0 -0 -0.000205922)
(0 -0 -0.000171036)
(0 -0 -0.000142412)
(0 -0 -0.000119239)
(0 -0 -0.000100696)
(0 -0 -8.60054e-05)
(0 -0 -7.44662e-05)
(0 -0 -6.54674e-05)
(0 -0 -5.84912e-05)
(0 -0 -5.31076e-05)
(0 -0 -4.89658e-05)
(0 -0 -4.5784e-05)
(0 -0 -4.33384e-05)
(0 -0 -4.14533e-05)
(0 -0 -3.9992e-05)
(0 -0 -3.88525e-05)
(0 -0 -3.79368e-05)
(0 -0 0.000474719)
(0 -0 0.000472839)
(0 -0 0.000471166)
(0 -0 0.000469672)
(0 -0 0.00046786)
(0 -0 0.000465174)
(0 -0 0.00046294)
(0 -0 0.000467129)
(0 -0 0.000489639)
(0 -0 0.000545913)
(0 -0 0.000648775)
(0 -0 0.000800982)
(0 -0 0.000990192)
(0 -0 0.00118913)
(0 -0 0.00136128)
(0 -0 0.00146997)
(0 -0 0.00148754)
(0 -0 0.0014017)
(0 -0 0.00121738)
(0 -0 0.00095441)
(0 -0 0.000642234)
(0 -0 0.0003136)
(0 -0 -1.13279e-06)
(0 -0 -0.00027803)
(0 -0 -0.000501567)
(0 -0 -0.000664773)
(0 -0 -0.000768028)
(0 -0 -0.000817142)
(0 -0 -0.000821243)
(0 -0 -0.000790876)
(0 -0 -0.000736507)
(0 -0 -0.00066753)
(0 -0 -0.000591712)
(0 -0 -0.000515006)
(0 -0 -0.000441626)
(0 -0 -0.00037426)
(0 -0 -0.000314371)
(0 -0 -0.000262491)
(0 -0 -0.000218506)
(0 -0 -0.000181886)
(0 -0 -0.000151867)
(0 -0 -0.000127586)
(0 -0 -0.000108171)
(0 -0 -9.28027e-05)
(0 -0 -8.07404e-05)
(0 -0 -7.13416e-05)
(0 -0 -6.40619e-05)
(0 -0 -5.84496e-05)
(0 -0 -5.41368e-05)
(0 -0 -5.08277e-05)
(0 -0 -4.82878e-05)
(0 -0 -4.63326e-05)
(0 -0 -4.48194e-05)
(0 -0 -4.36324e-05)
(0 -0 -4.26929e-05)
(0 -0 0.000476288)
(0 -0 0.000474407)
(0 -0 0.000472736)
(0 -0 0.000471247)
(0 -0 0.000469425)
(0 -0 0.000466698)
(0 -0 0.000464445)
(0 -0 0.000468822)
(0 -0 0.000492052)
(0 -0 0.000549936)
(0 -0 0.00065549)
(0 -0 0.000811302)
(0 -0 0.00100442)
(0 -0 0.0012066)
(0 -0 0.00138026)
(0 -0 0.0014878)
(0 -0 0.00150111)
(0 -0 0.00140798)
(0 -0 0.00121396)
(0 -0 0.00093986)
(0 -0 0.000616273)