/*--------------------------------*- C++ -*----------------------------------*\
| =========                 |                                                 |
| \\      /  F ield         | OpenFOAM: The Open Source CFD Toolbox           |
|  \\    /   O peration     | Version:  2412                                  |
|   \\  /    A nd           | Website:  www.openfoam.com                      |
|    \\/     M anipulation  |                                                 |
\*---------------------------------------------------------------------------*/
FoamFile
{
    version     2.0;
    format      ascii;
    arch        "LSB;label=32;scalar=64";
    class       volVectorField;
    location    "3.5";
    object      U;
}
// * * * * * * * * * * * * * * * * * * * * * * * * * * * * * * * * * * * * * //

dimensions      [0 1 -1 0 0 0 0];

internalField   nonuniform List<vector> 
5285
(
(0.0805301 -0.000791296 6.2459e-25)
(0.0819228 -0.000706501 0)
(0.0831721 -0.000633587 6.55407e-25)
(0.0842975 -0.000570596 0)
(0.0853153 -0.000515901 0)
(0.0862394 -0.000468165 0)
(0.0870812 -0.000426298 6.9623e-25)
(0.0878505 -0.00038941 0)
(0.0885558 -0.000356768 -7.05465e-25)
(0.0892042 -0.000327769 7.07641e-25)
(0.0898019 -0.000301916 -7.08374e-25)
(0.0903542 -0.00027879 6.34344e-24)
(0.0908659 -0.000258047 -6.35042e-24)
(0.091341 -0.000239394 -4.89179e-24)
(0.0917832 -0.000222586 1.04677e-23)
(0.0921956 -0.000207417 -5.57217e-24)
(0.0925811 -0.000193711 -6.89776e-25)
(0.0929423 -0.00018132 6.83892e-25)
(0.0932814 -0.00017012 0)
(0.0936007 -0.00016001 6.7055e-25)
(0.0939019 -0.000150907 -3.29645e-24)
(0.0941871 -0.000142753 3.29289e-24)
(0.0944578 -0.000135508 -6.47606e-25)
(0.0947157 -0.000129151 1.90808e-24)
(0.0949626 -0.00012367 -6.3967e-25)
(0.0952 -0.000119041 -1.23979e-24)
(0.0954296 -0.000115177 6.18326e-25)
(0.0956527 -0.000111869 -6.05044e-25)
(0.0806535 -0.00236592 3.92512e-23)
(0.0820237 -0.00211316 -4.2583e-23)
(0.0832553 -0.00189559 4.22447e-23)
(0.0843666 -0.00170746 -2.11533e-23)
(0.085373 -0.00154399 -4.39405e-23)
(0.0862878 -0.00140124 2.21344e-23)
(0.087122 -0.00127598 -6.98026e-25)
(0.0878851 -0.00116558 -1.42772e-24)
(0.0885851 -0.00106786 7.07006e-25)
(0.089229 -0.000981042 -2.14313e-24)
(0.0898229 -0.000903629 2.20283e-23)
(0.090372 -0.000834384 -4.61934e-23)
(0.0908808 -0.000772269 2.20146e-23)
(0.0913535 -0.000716413 -2.12182e-24)
(0.0917934 -0.000666082 7.00249e-25)
(0.0922039 -0.000620656 0)
(0.0925876 -0.00057961 -1.17e-23)
(0.0929472 -0.000542497 1.03341e-23)
(0.0932849 -0.000508946 9.42984e-24)
(0.0936027 -0.000478648 -1.28204e-23)
(0.0939027 -0.00045136 6.63073e-25)
(0.0941865 -0.000426899 3.24129e-24)
(0.0944558 -0.000405145 -5.86734e-24)
(0.0947124 -0.000386028 -6.38852e-25)
(0.0949578 -0.000369509 -4.39639e-24)
(0.0951935 -0.000355507 -5.84717e-25)
(0.0954211 -0.000343769 1.25526e-24)
(0.0956419 -0.000333671 1.8221e-24)
(0.0808991 -0.00391729 -4.2532e-23)
(0.0822255 -0.00350124 4.52429e-23)
(0.0834222 -0.00314247 1.43912e-24)
(0.0845055 -0.00283177 -1.44849e-24)
(0.0854894 -0.00256147 1.4566e-24)
(0.0863857 -0.0023252 -4.4581e-23)
(0.0872047 -0.00211771 4.60875e-23)
(0.0879551 -0.00193471 -4.346e-23)
(0.0886445 -0.00177266 4.64073e-23)
(0.0892794 -0.00162861 1.43975e-24)
(0.0898656 -0.00150013 4.6203e-23)
(0.090408 -0.00138518 -9.08536e-23)
(0.0909111 -0.00128203 4.7511e-23)
(0.0913787 -0.00118927 2.4166e-23)
(0.0918141 -0.00110567 -2.13412e-23)
(0.0922206 -0.00103021 0)
(0.0926007 -0.000962013 -1.05294e-26)
(0.092957 -0.000900339 0)
(0.0932917 -0.000844564 2.16769e-23)
(0.0936067 -0.000794173 -2.03602e-23)
(0.0939039 -0.000748753 1.33532e-24)
(0.0941851 -0.000707991 -5.24488e-27)
(0.0944518 -0.000671674 1.02974e-23)
(0.0947057 -0.000639672 -1.91878e-23)
(0.0949481 -0.000611902 1.01643e-23)
(0.0951805 -0.000588218 -4.93458e-24)
(0.0954043 -0.000568199 3.73338e-24)
(0.0956207 -0.00055084 1.22439e-24)
(0.0812654 -0.00542902 0)
(0.0825286 -0.00485719 1.56074e-24)
(0.0836746 -0.00436289 9.91683e-26)
(0.0847169 -0.00393393 1.46222e-24)
(0.0856673 -0.0035601 -9.75429e-23)
(0.0865361 -0.00323288 9.61705e-23)
(0.0873322 -0.0029452 0)
(0.0880635 -0.00269124 -4.78731e-23)
(0.0887367 -0.00246618 4.9457e-23)
(0.0893579 -0.002266 0)
(0.0899324 -0.00208736 -3.16934e-26)
(0.0904646 -0.00192746 -4.8436e-23)
(0.0909588 -0.00178394 9.50777e-23)
(0.0914185 -0.00165482 -9.28297e-23)
(0.0918471 -0.00153844 9.19961e-23)
(0.0922473 -0.00143337 -9.10524e-23)
(0.0926219 -0.00133839 4.52798e-23)
(0.0929732 -0.00125247 2.21169e-23)
(0.0933032 -0.00117472 -1.9375e-23)
(0.0936139 -0.00110443 -1.36168e-24)
(0.093907 -0.00104101 -2.12448e-23)
(0.0941842 -0.000984 4.48499e-23)
(0.0944469 -0.000933079 -2.09635e-23)
(0.0946966 -0.000888041 5.16819e-27)
(0.0949347 -0.000848734 1.25916e-24)
(0.0951623 -0.000814933 -3.55871e-27)
(0.0953807 -0.000786057 -1.22022e-24)
(0.0955909 -0.000760765 2.4032e-24)
(0.082933 -0.00616863 -1.06522e-22)
(0.0840146 -0.0055461 1.0332e-22)
(0.0850041 -0.00500455 0)
(0.0859111 -0.00453164 0)
(0.0867438 -0.004117 -1.55512e-24)
(0.0875097 -0.00375198 -1.00756e-22)
(0.0882155 -0.0034294 9.91692e-23)
(0.0888671 -0.00314325 -1.53255e-24)
(0.0894698 -0.00288855 -4.75936e-23)
(0.0900283 -0.0026611 5.0655e-23)
(0.0905466 -0.0024574 0)
(0.0910287 -0.00227449 3.30026e-26)
(0.0914777 -0.00210989 0)
(0.0918968 -0.00196147 -4.65458e-23)
(0.0922886 -0.00182744 4.80087e-23)
(0.0926556 -0.00170624 -4.39391e-23)
(0.0929999 -0.00159655 4.53375e-23)
(0.0933235 -0.00149723 -2.77663e-24)
(0.0936283 -0.00140736 1.36138e-24)
(0.0939158 -0.00132617 1.08283e-26)
(0.0941876 -0.00125303 -1.32085e-24)
(0.094445 -0.00118752 1.30015e-24)
(0.0946893 -0.00112932 -1.14528e-23)
(0.0949217 -0.00107818 2.01706e-23)
(0.0951433 -0.00103379 -1.49164e-23)
(0.0953549 -0.000995422 4.91268e-24)
(0.0955575 -0.000961451 2.725e-27)
(0.0834368 -0.0074538 1.18622e-22)
(0.0844428 -0.00670645 -1.18449e-22)
(0.0853698 -0.0060548 -1.13145e-22)
(0.0862247 -0.00548469 1.11156e-22)
(0.0870137 -0.00498415 0)
(0.0877428 -0.00454304 0)
(0.0884172 -0.00415288 1.05807e-22)
(0.089042 -0.00380658 -1.38873e-24)
(0.0896215 -0.00349816 -1.07352e-22)
(0.0901599 -0.00322263 -1.02897e-22)
(0.0906608 -0.00297579 1.99325e-22)
(0.0911275 -0.00275409 -5.20229e-23)
(0.0915631 -0.00255453 -5.06258e-23)
(0.0919701 -0.00237457 -5.06568e-23)
(0.0923512 -0.00221202 9.302e-23)
(0.0927085 -0.00206499 -9.44297e-23)
(0.093044 -0.00193186 -7.37821e-25)
(0.0933596 -0.00181127 4.52855e-23)
(0.0936569 -0.00170204 4.38242e-23)
(0.0939374 -0.00160321 -6.80015e-23)
(0.0942024 -0.00151402 4.12962e-23)
(0.0944532 -0.00143387 -2.24224e-23)
(0.094691 -0.00136232 2.16581e-23)
(0.0949166 -0.00129903 -2.1605e-23)
(0.095131 -0.00124354 1.23412e-24)
(0.0953349 -0.00119502 -6.02421e-24)
(0.095529 -0.00115164 2.42136e-24)
(0.0840418 -0.0087333 -1.42286e-22)
(0.0849628 -0.00786029 0)
(0.0858186 -0.00709749 0)
(0.0866134 -0.0064292 1.8604e-24)
(0.0873516 -0.00584185 -1.18833e-22)
(0.0880374 -0.00532393 1.18531e-22)
(0.0886748 -0.00486567 0)
(0.0892677 -0.00445884 0)
(0.0898197 -0.00409649 1.67423e-24)
(0.0903341 -0.00377279 -1.04528e-22)
(0.0908141 -0.00348281 2.11579e-22)
(0.0912624 -0.0032224 -1.03798e-22)
(0.0916817 -0.00298804 1.55734e-24)
(0.0920743 -0.00277673 1.52931e-24)
(0.0924424 -0.00258588 4.80942e-23)
(0.0927881 -0.00241327 -9.3648e-23)
(0.0931131 -0.00225696 4.84762e-23)
(0.093419 -0.00211531 -4.38857e-23)
(0.0937074 -0.00198693 7.89514e-25)
(0.0939796 -0.00187065 2.14623e-24)
(0.0942367 -0.0017655 4.47226e-23)
(0.0944799 -0.00167073 2.21786e-23)
(0.09471 -0.00158576 -2.20971e-23)
(0.094928 -0.00151008 1.25879e-24)
(0.0951345 -0.00144314 9.79347e-24)
(0.0953301 -0.00138398 -8.55998e-24)
(0.0955152 -0.00133066 1.18152e-24)
(0.0958706 -0.000108713 0)
(0.0960848 -0.000105175 0)
(0.0962951 -0.000100471 0)
(0.0964983 -9.38456e-05 0)
(0.096689 -8.48704e-05 0)
(0.0968617 -7.37476e-05 0)
(0.0970115 -6.14034e-05 0)
(0.0971361 -4.92668e-05 0)
(0.0972368 -3.88041e-05 0)
(0.0973178 -3.10396e-05 0)
(0.0973857 -2.629e-05 0)
(0.0974469 -2.42019e-05 0)
(0.097507 -2.40118e-05 0)
(0.0975695 -2.48622e-05 0)
(0.0976361 -2.60388e-05 0)
(0.0977071 -2.7073e-05 0)
(0.0977817 -2.77342e-05 0)
(0.0978589 -2.79638e-05 0)
(0.0979376 -2.78012e-05 0)
(0.0980169 -2.73255e-05 0)
(0.098096 -2.66207e-05 0)
(0.0981742 -2.57597e-05 0)
(0.0982512 -2.47994e-05 0)
(0.0983266 -2.37821e-05 0)
(0.0984003 -2.27379e-05 0)
(0.098472 -2.16884e-05 0)
(0.0985418 -2.06485e-05 0)
(0.0986094 -1.96285e-05 0)
(0.098675 -1.86352e-05 0)
(0.0987384 -1.7673e-05 0)
(0.0987998 -1.67446e-05 0)
(0.0988591 -1.58518e-05 0)
(0.0989163 -1.49953e-05 0)
(0.0989715 -1.41757e-05 0)
(0.0990248 -1.33927e-05 0)
(0.0990761 -1.26457e-05 0)
(0.0991255 -1.19336e-05 0)
(0.099173 -1.12552e-05 0)
(0.0992187 -1.06092e-05 0)
(0.0992626 -9.99438e-06 0)
(0.0993049 -9.40979e-06 0)
(0.0993454 -8.85443e-06 0)
(0.0993843 -8.32715e-06 0)
(0.0994217 -7.82655e-06 0)
(0.0958568 -0.000324038 0)
(0.0960674 -0.000313312 0)
(0.096274 -0.000299198 0)
(0.0964735 -0.000279501 0)
(0.0966611 -0.00025298 0)
(0.0968317 -0.000220223 0)
(0.0969809 -0.000183927 0)
(0.0971066 -0.000148249 0)
(0.0972098 -0.000117459 0)
(0.0972945 -9.4541e-05 0)
(0.0973667 -8.04227e-05 0)
(0.0974323 -7.40812e-05 0)
(0.0974964 -7.32966e-05 0)
(0.0975622 -7.55734e-05 0)
(0.0976315 -7.88284e-05 0)
(0.0977044 -8.16929e-05 0)
(0.0977804 -8.34893e-05 0)
(0.0978585 -8.40423e-05 0)
(0.0979379 -8.34618e-05 0)
(0.0980176 -8.19747e-05 0)
(0.0980969 -7.98233e-05 0)
(0.0981752 -7.72188e-05 0)
(0.0982523 -7.43269e-05 0)
(0.0983277 -7.12707e-05 0)
(0.0984013 -6.81388e-05 0)
(0.098473 -6.49939e-05 0)
(0.0985427 -6.18795e-05 0)
(0.0986103 -5.88256e-05 0)
(0.0986758 -5.58523e-05 0)
(0.0987392 -5.29726e-05 0)
(0.0988005 -5.01947e-05 0)
(0.0988597 -4.75234e-05 0)
(0.0989169 -4.49612e-05 0)
(0.098972 -4.25084e-05 0)
(0.0990252 -4.01644e-05 0)
(0.0990764 -3.79273e-05 0)
(0.0991258 -3.57942e-05 0)
(0.0991732 -3.3762e-05 0)
(0.0992189 -3.18271e-05 0)
(0.0992628 -2.99862e-05 0)
(0.099305 -2.8236e-05 0)
(0.0993455 -2.65731e-05 0)
(0.0993844 -2.49939e-05 0)
(0.0994217 -2.34944e-05 0)
(0.09583 -0.00053428 0)
(0.0960338 -0.000516081 0)
(0.0962333 -0.000492592 0)
(0.096426 -0.00046038 0)
(0.0966078 -0.000417503 0)
(0.0967747 -0.000364883 0)
(0.0969229 -0.00030674 0)
(0.0970507 -0.000249589 0)
(0.0971589 -0.000200132 0)
(0.0972508 -0.000163065 0)
(0.0973312 -0.00013987 0)
(0.097405 -0.000128969 0)
(0.0974766 -0.000126896 0)
(0.0975488 -0.000129741 0)
(0.097623 -0.000134224 0)
(0.0976996 -0.00013818 0)
(0.0977783 -0.000140526 0)
(0.0978582 -0.000140966 0)
(0.0979388 -0.000139657 0)
(0.0980192 -0.000136946 0)
(0.0980989 -0.000133206 0)
(0.0981775 -0.000128764 0)
(0.0982547 -0.00012388 0)
(0.0983301 -0.000118747 0)
(0.0984037 -0.000113504 0)
(0.0984752 -0.00010825 0)
(0.0985448 -0.000103053 0)
(0.0986122 -9.79623e-05 0)
(0.0986776 -9.30084e-05 0)
(0.0987408 -8.82125e-05 0)
(0.098802 -8.35875e-05 0)
(0.0988611 -7.91408e-05 0)
(0.0989181 -7.4876e-05 0)
(0.0989732 -7.07936e-05 0)
(0.0990262 -6.68921e-05 0)
(0.0990773 -6.31683e-05 0)
(0.0991266 -5.96175e-05 0)
(0.0991739 -5.62345e-05 0)
(0.0992195 -5.30138e-05 0)
(0.0992633 -4.99496e-05 0)
(0.0993055 -4.70364e-05 0)
(0.0993459 -4.42683e-05 0)
(0.0993847 -4.16392e-05 0)
(0.0994219 -3.91429e-05 0)
(0.0957923 -0.000736658 0)
(0.095987 -0.000710629 0)
(0.096177 -0.000677901 0)
(0.0963605 -0.000634105 0)
(0.0965349 -0.000576759 0)
(0.096697 -0.000507025 0)
(0.0968442 -0.000430269 0)
(0.0969751 -0.000354796 0)
(0.0970904 -0.000289175 0)
(0.0971921 -0.000239451 0)
(0.0972838 -0.00020758 0)
(0.0973689 -0.000191611 0)
(0.0974507 -0.00018716 0)
(0.0975315 -0.000189237 0)
(0.0976124 -0.000193634 0)
(0.0976941 -0.000197543 0)
(0.0977763 -0.000199533 0)
(0.0978587 -0.000199187 0)
(0.0979408 -0.000196672 0)
(0.0980222 -0.000192407 0)
(0.0981025 -0.000186857 0)
(0.0981814 -0.000180434 0)
(0.0982586 -0.000173464 0)
(0.0983341 -0.000166194 0)
(0.0984075 -0.000158803 0)
(0.0984789 -0.000151419 0)
(0.0985483 -0.000144129 0)
(0.0986155 -0.000136996 0)
(0.0986807 -0.000130062 0)
(0.0987437 -0.000123352 0)
(0.0988047 -0.000116884 0)
(0.0988635 -0.000110667 0)
(0.0989204 -0.000104705 0)
(0.0989752 -9.89992e-05 0)
(0.0990281 -9.35461e-05 0)
(0.099079 -8.83412e-05 0)
(0.0991281 -8.33782e-05 0)
(0.0991754 -7.86498e-05 0)
(0.0992208 -7.41482e-05 0)
(0.0992645 -6.98654e-05 0)
(0.0993065 -6.57935e-05 0)
(0.0993468 -6.19241e-05 0)
(0.0993855 -5.82487e-05 0)
(0.0994226 -5.47588e-05 0)
(0.0957496 -0.000929148 0)
(0.0959335 -0.000894993 0)
(0.0961126 -0.000853339 0)
(0.0962858 -0.000799227 0)
(0.0964517 -0.000729824 0)
(0.0966086 -0.000646405 0)
(0.0967549 -0.000555012 0)
(0.0968898 -0.000465053 0)
(0.0970133 -0.000386288 0)
(0.0971264 -0.000325676 0)
(0.0972309 -0.000285566 0)
(0.0973289 -0.000263864 0)
(0.0974224 -0.000255666 0)
(0.097513 -0.000255319 0)
(0.0976017 -0.000258004 0)
(0.0976891 -0.000260458 0)
(0.0977754 -0.000260975 0)
(0.0978606 -0.000259008 0)
(0.0979446 -0.000254692 0)
(0.0980271 -0.000248465 0)
(0.0981081 -0.000240829 0)
(0.0981873 -0.000232241 0)
(0.0982646 -0.000223067 0)
(0.0983399 -0.000213586 0)
(0.0984132 -0.000204002 0)
(0.0984844 -0.00019446 0)
(0.0985535 -0.000185064 0)
(0.0986205 -0.000175884 0)
(0.0986853 -0.000166969 0)
(0.098748 -0.000158349 0)
(0.0988087 -0.000150044 0)
(0.0988673 -0.000142065 0)
(0.0989239 -0.000134414 0)
(0.0989785 -0.000127093 0)
(0.0990311 -0.000120096 0)
(0.0990818 -0.000113418 0)
(0.0991307 -0.000107051 0)
(0.0991777 -0.000100985 0)
(0.099223 -9.52091e-05 0)
(0.0992665 -8.97142e-05 0)
(0.0993083 -8.44895e-05 0)
(0.0993485 -7.95244e-05 0)
(0.0993871 -7.48078e-05 0)
(0.0994241 -7.03288e-05 0)
(0.0957109 -0.00111058 0)
(0.0958834 -0.00106817 0)
(0.096051 -0.0010181 0)
(0.0962136 -0.000955174 0)
(0.0963708 -0.000876389 0)
(0.0965224 -0.000782991 0)
(0.0966678 -0.000681207 0)
(0.0968065 -0.000580823 0)
(0.0969382 -0.000492094 0)
(0.0970626 -0.000422442 0)
(0.0971799 -0.000374537 0)
(0.0972908 -0.000346385 0)
(0.0973961 -0.000332984 0)
(0.0974965 -0.000328452 0)
(0.097593 -0.000327693 0)
(0.0976862 -0.000327189 0)
(0.0977767 -0.000325035 0)
(0.0978647 -0.000320549 0)
(0.0979505 -0.000313787 0)
(0.0980342 -0.000305148 0)
(0.0981158 -0.000295124 0)
(0.0981952 -0.00028417 0)
(0.0982726 -0.000272661 0)
(0.0983478 -0.000260886 0)
(0.0984208 -0.000249057 0)
(0.0984917 -0.000237329 0)
(0.0985605 -0.000225812 0)
(0.0986271 -0.00021458 0)
(0.0986916 -0.000203686 0)
(0.098754 -0.000193163 0)
(0.0988143 -0.000183029 0)
(0.0988725 -0.000173297 0)
(0.0989288 -0.000163968 0)
(0.098983 -0.000155042 0)
(0.0990354 -0.000146513 0)
(0.0990858 -0.000138373 0)
(0.0991344 -0.000130611 0)
(0.0991812 -0.000123216 0)
(0.0992262 -0.000116175 0)
(0.0992696 -0.000109477 0)
(0.0993112 -0.000103107 0)
(0.0993512 -9.70532e-05 0)
(0.0993896 -9.13018e-05 0)
(0.0994264 -8.58399e-05 0)
(0.0956868 -0.00128058 0)
(0.0958481 -0.00123002 0)
(0.0960047 -0.00117221 0)
(0.096157 -0.00110203 0)
(0.0963059 -0.00101647 0)
(0.096452 -0.00091664 0)
(0.0965959 -0.000808486 0)
(0.0967373 -0.00070152 0)
(0.0968756 -0.000605847 0)
(0.0970095 -0.000528946 0)
(0.0971379 -0.000473726 0)
(0.09726 -0.000438514 0)
(0.0973755 -0.000418596 0)
(0.0974847 -0.00040826 0)
(0.0975881 -0.000402447 0)
(0.0976866 -0.000397572 0)
(0.0977808 -0.000391607 0)
(0.0978715 -0.000383738 0)
(0.0979589 -0.000373903 0)
(0.0980436 -0.000362413 0)
(0.0981257 -0.000349698 0)
(0.0982053 -0.000336176 0)
(0.0982826 -0.0003222 0)
(0.0983576 -0.000308046 0)
(0.0984303 -0.000293921 0)
(0.0985009 -0.000279979 0)
(0.0985692 -0.000266327 0)
(0.0986354 -0.000253041 0)
(0.0986994 -0.000240172 0)
(0.0987613 -0.000227752 0)
(0.0988212 -0.000215801 0)
(0.0988791 -0.000204328 0)
(0.0989349 -0.000193334 0)
(0.0989888 -0.000182816 0)
(0.0990408 -0.000172768 0)
(0.0990909 -0.000163178 0)
(0.0991392 -0.000154033 0)
(0.0991857 -0.000145321 0)
(0.0992305 -0.000137027 0)
(0.0992735 -0.000129134 0)
(0.0993149 -0.000121629 0)
(0.0993547 -0.000114495 0)
(0.0993929 -0.000107717 0)
(0.0994295 -0.000101279 0)
(0.0956864 -0.0014434 0)
(0.0958374 -0.00138485 0)
(0.0959836 -0.0013198 0)
(0.0961263 -0.00124359 0)
(0.096267 -0.00115338 0)
(0.0964073 -0.00105001 0)
(0.0965485 -0.000938804 0)
(0.0966907 -0.000828451 0)
(0.0968329 -0.000728365 0)
(0.0969732 -0.000645728 0)
(0.0971096 -0.000583606 0)
(0.09724 -0.000540817 0)
(0.0973634 -0.000513244 0)
(0.0974794 -0.000495678 0)
(0.0975884 -0.000483367 0)
(0.0976911 -0.000472825 0)
(0.0977884 -0.000461977 0)
(0.0978812 -0.000449883 0)
(0.09797 -0.000436339 0)
(0.0980554 -0.000421526 0)
(0.0981378 -0.000405776 0)
(0.0982175 -0.000389435 0)
(0.0982946 -0.000372806 0)
(0.0983693 -0.000356136 0)
(0.0984416 -0.000339614 0)
(0.0985117 -0.000323378 0)
(0.0985795 -0.000307529 0)
(0.0986452 -0.000292139 0)
(0.0987087 -0.000277253 0)
(0.0987701 -0.000262902 0)
(0.0988295 -0.000249103 0)
(0.0988869 -0.000235862 0)
(0.0989422 -0.000223179 0)
(0.0989957 -0.000211048 0)
(0.0990473 -0.000199459 0)
(0.099097 -0.000188399 0)
(0.0991449 -0.000177854 0)
(0.0991911 -0.000167807 0)
(0.0992355 -0.00015824 0)
(0.0992783 -0.000149137 0)
(0.0993194 -0.00014048 0)
(0.0993589 -0.00013225 0)
(0.0993969 -0.00012443 0)
(0.0994333 -0.000117002 0)
(0.0957177 -0.00160011 0)
(0.0958597 -0.00153322 0)
(0.0959968 -0.00146117 0)
(0.0961308 -0.00137982 0)
(0.0962637 -0.00128655 0)
(0.0963977 -0.0011819 0)
(0.0965345 -0.00107027 0)
(0.0966747 -0.000959143 0)
(0.0968172 -0.000856825 0)
(0.0969599 -0.000769907 0)
(0.0970998 -0.000701508 0)
(0.0972346 -0.000651019 0)
(0.0973625 -0.000615127 0)
(0.0974826 -0.000589369 0)
(0.0975951 -0.000569508 0)
(0.0977006 -0.000552305 0)
(0.0978 -0.000535713 0)
(0.0978941 -0.000518693 0)
(0.0979837 -0.00050089 0)
(0.0980696 -0.000482337 0)
(0.0981521 -0.000463236 0)
(0.0982316 -0.00044384 0)
(0.0983084 -0.000424384 0)
(0.0983826 -0.000405068 0)
(0.0984544 -0.000386048 0)
(0.0985239 -0.000367443 0)
(0.0985911 -0.00034934 0)
(0.0986562 -0.000331799 0)
(0.0987191 -0.00031486 0)
(0.0987799 -0.000298548 0)
(0.0988387 -0.000282874 0)
(0.0988955 -0.000267843 0)
(0.0989504 -0.00025345 0)
(0.0990034 -0.000239686 0)
(0.0990545 -0.00022654 0)
(0.0991037 -0.000213994 0)
(0.0991512 -0.000202033 0)
(0.099197 -0.000190635 0)
(0.0992411 -0.000179783 0)
(0.0992835 -0.000169455 0)
(0.0993243 -0.000159632 0)
(0.0993635 -0.000150293 0)
(0.0994012 -0.000141418 0)
(0.0994373 -0.000132986 0)
(0.0957808 -0.0017481 0)
(0.0959149 -0.00167294 0)
(0.0960443 -0.00159417 0)
(0.0961707 -0.00150827 0)
(0.0962963 -0.00141289 0)
(0.0964237 -0.00130825 0)
(0.0965549 -0.00119776 0)
(0.0966906 -0.00108752 0)
(0.0968298 -0.000984556 0)
(0.0969706 -0.000894674 0)
(0.0971098 -0.000820924 0)
(0.0972449 -0.00076324 0)
(0.0973736 -0.000719158 0)
(0.0974949 -0.000685062 0)
(0.0976086 -0.000657338 0)
(0.0977151 -0.000633089 0)
(0.0978153 -0.000610367 0)
(0.0979099 -0.000588074 0)
(0.0979998 -0.000565725 0)
(0.0980856 -0.000543204 0)
(0.0981679 -0.000520585 0)
(0.0982471 -0.000498013 0)
(0.0983234 -0.000475648 0)
(0.098397 -0.000453634 0)
(0.0984682 -0.000432088 0)
(0.098537 -0.000411102 0)
(0.0986035 -0.000390744 0)
(0.0986678 -0.000371061 0)
(0.0987301 -0.000352083 0)
(0.0987902 -0.000333827 0)
(0.0988484 -0.0003163 0)
(0.0989046 -0.000299499 0)
(0.0989589 -0.000283418 0)
(0.0990113 -0.000268044 0)
(0.0990619 -0.00025336 0)
(0.0991107 -0.000239349 0)
(0.0991577 -0.00022599 0)
(0.099203 -0.000213261 0)
(0.0992467 -0.000201139 0)
(0.0992887 -0.000189603 0)
(0.0993291 -0.000178628 0)
(0.099368 -0.000168193 0)
(0.0994054 -0.000158275 0)
(0.0994413 -0.000148852 0)
(0.0958699 -0.00188833 0)
(0.0959971 -0.00180518 0)
(0.0961198 -0.00171996 0)
(0.0962395 -0.00162979 0)
(0.0963586 -0.00153264 0)
(0.0964795 -0.00142842 0)
(0.0966041 -0.00131964 0)
(0.0967334 -0.00121107 0)
(0.0968668 -0.00110839 0)
(0.0970024 -0.00101655 0)
(0.0971375 -0.000938415 0)
(0.0972694 -0.000874364 0)
(0.0973959 -0.000822713 0)
(0.0975158 -0.000780671 0)
(0.0976287 -0.000745276 0)
(0.0977347 -0.000714023 0)
(0.0978344 -0.000685118 0)
(0.0979287 -0.000657452 0)
(0.0980182 -0.000630441 0)
(0.0981036 -0.000603846 0)
(0.0981853 -0.000577618 0)
(0.0982638 -0.000551803 0)
(0.0983394 -0.000526484 0)
(0.0984123 -0.000501744 0)
(0.0984827 -0.00047766 0)
(0.0985507 -0.000454293 0)
(0.0986165 -0.000431689 0)
(0.0986801 -0.000409878 0)
(0.0987415 -0.00038888 0)
(0.098801 -0.000368702 0)
(0.0988584 -0.000349344 0)
(0.098914 -0.000330799 0)
(0.0989676 -0.000313053 0)
(0.0990194 -0.000296092 0)
(0.0990694 -0.000279895 0)
(0.0991177 -0.000264441 0)
(0.0991642 -0.000249704 0)
(0.099209 -0.000235663 0)
(0.0992523 -0.00022229 0)
(0.0992939 -0.000209562 0)
(0.0993339 -0.000197452 0)
(0.0993724 -0.000185936 0)
(0.0994095 -0.000174989 0)
(0.099445 -0.000164587 0)
(0.0959766 -0.00202155 0)
(0.0960976 -0.00193087 0)
(0.0962144 -0.00183953 0)
(0.0963284 -0.00174521 0)
(0.0964417 -0.00164621 0)
(0.0965563 -0.00154226 0)
(0.0966742 -0.00143509 0)
(0.0967963 -0.00132826 0)
(0.0969224 -0.00122624 0)
(0.0970509 -0.00113311 0)
(0.0971796 -0.0010515 0)
(0.097306 -0.000982048 0)
(0.0974282 -0.000923734 0)
(0.0975447 -0.000874496 0)
(0.097655 -0.000831983 0)
(0.0977592 -0.00079409 0)
(0.0978576 -0.000759211 0)
(0.0979507 -0.000726274 0)
(0.0980392 -0.000694638 0)
(0.0981237 -0.00066397 0)
(0.0982045 -0.000634121 0)
(0.0982821 -0.00060505 0)
(0.0983568 -0.000576767 0)
(0.0984288 -0.0005493 0)
(0.0984982 -0.000522684 0)
(0.0985654 -0.000496949 0)
(0.0986302 -0.000472117 0)
(0.098693 -0.000448201 0)
(0.0987536 -0.000425207 0)
(0.0988123 -0.000403134 0)
(0.098869 -0.000381972 0)
(0.0989237 -0.000361709 0)
(0.0989767 -0.000342327 0)
(0.0990278 -0.000323805 0)
(0.0990772 -0.000306119 0)
(0.0991249 -0.000289245 0)
(0.0991709 -0.000273154 0)
(0.0992152 -0.000257821 0)
(0.0992579 -0.000243217 0)
(0.0992991 -0.000229315 0)
(0.0993387 -0.000216088 0)
(0.0993768 -0.000203506 0)
(0.0994135 -0.000191545 0)
(0.0994487 -0.000180178 0)
(0.0960935 -0.00214825 0)
(0.0962087 -0.00205065 0)
(0.0963202 -0.00195358 0)
(0.0964291 -0.00185523 0)
(0.0965371 -0.00175418 0)
(0.0966459 -0.00165006 0)
(0.0967573 -0.00154398 0)
(0.0968723 -0.00143853 0)
(0.0969906 -0.00133714 0)
(0.0971113 -0.00124311 0)
(0.0972325 -0.00115874 0)
(0.0973523 -0.00108483 0)
(0.0974687 -0.00102085 0)
(0.0975806 -0.000965328 0)
(0.0976873 -0.000916444 0)
(0.0977886 -0.000872469 0)
(0.0978848 -0.000832005 0)
(0.0979761 -0.000794048 0)
(0.0980631 -0.000757941 0)
(0.0981462 -0.000723291 0)
(0.0982258 -0.000689877 0)
(0.0983022 -0.000657586 0)
(0.0983758 -0.000626366 0)
(0.0984467 -0.000596197 0)
(0.0985151 -0.000567075 0)
(0.0985812 -0.000538998 0)
(0.0986451 -0.000511967 0)
(0.0987069 -0.000485976 0)
(0.0987666 -0.000461019 0)
(0.0988244 -0.000437081 0)
(0.0988802 -0.000414147 0)
(0.0989342 -0.000392197 0)
(0.0989864 -0.000371208 0)
(0.0990369 -0.000351153 0)
(0.0990856 -0.000332006 0)
(0.0991326 -0.000313738 0)
(0.099178 -0.000296317 0)
(0.0992218 -0.000279716 0)
(0.099264 -0.000263902 0)
(0.0993046 -0.000248846 0)
(0.0993438 -0.000234518 0)
(0.0993815 -0.000220889 0)
(0.0994177 -0.000207929 0)
(0.0994526 -0.000195611 0)
(0.0962156 -0.00226867 0)
(0.0963252 -0.00216487 0)
(0.0964316 -0.00206256 0)
(0.0965357 -0.00196033 0)
(0.0966388 -0.00185704 0)
(0.0967423 -0.00175225 0)
(0.0968477 -0.00164663 0)
(0.0969558 -0.00154202 0)
(0.0970667 -0.00144099 0)
(0.0971796 -0.0013462 0)
(0.0972931 -0.00125958 0)
(0.0974058 -0.00118203 0)
(0.097516 -0.00111331 0)
(0.0976226 -0.00105242 0)
(0.0977249 -0.000997973 0)
(0.0978227 -0.000948561 0)
(0.097916 -0.000902994 0)
(0.098005 -0.00086036 0)
(0.09809 -0.000820019 0)
(0.0981714 -0.000781547 0)
(0.0982494 -0.000744677 0)
(0.0983244 -0.000709244 0)
(0.0983967 -0.000675148 0)
(0.0984663 -0.000642328 0)
(0.0985335 -0.000610743 0)
(0.0985985 -0.000580367 0)
(0.0986613 -0.000551176 0)
(0.098722 -0.000523149 0)
(0.0987808 -0.000496265 0)
(0.0988376 -0.0004705 0)
(0.0988925 -0.00044583 0)
(0.0989457 -0.000422227 0)
(0.0989971 -0.000399664 0)
(0.0990467 -0.000378108 0)
(0.0990947 -0.00035753 0)
(0.0991411 -0.000337895 0)
(0.0991858 -0.000319171 0)
(0.099229 -0.000301325 0)
(0.0992706 -0.000284324 0)
(0.0993108 -0.000268136 0)
(0.0993494 -0.000252728 0)
(0.0993866 -0.000238069 0)
(0.0994224 -0.000224128 0)
(0.0994569 -0.000210874 0)
(0.0963403 -0.00238285 0)
(0.0964443 -0.0022736 0)
(0.0965456 -0.00216661 0)
(0.096645 -0.00206077 0)
(0.0967434 -0.00195514 0)
(0.096842 -0.00184927 0)
(0.0969418 -0.00174351 0)
(0.0970435 -0.00163916 0)
(0.0971474 -0.00153815 0)
(0.0972529 -0.00144257 0)
(0.0973591 -0.00135406 0)
(0.0974647 -0.00127349 0)
(0.0975686 -0.00120084 0)
(0.0976697 -0.00113541 0)
(0.0977673 -0.00107616 0)
(0.0978612 -0.00102196 0)
(0.0979512 -0.000971804 0)
(0.0980374 -0.000924881 0)
(0.0981201 -0.000880589 0)
(0.0981994 -0.000838503 0)
(0.0982756 -0.000798328 0)
(0.098349 -0.000759867 0)
(0.0984197 -0.000722984 0)
(0.0984879 -0.000687583 0)
(0.0985538 -0.000653598 0)
(0.0986174 -0.000620977 0)
(0.098679 -0.000589677 0)
(0.0987386 -0.000559662 0)
(0.0987963 -0.000530896 0)
(0.0988521 -0.000503347 0)
(0.098906 -0.000476981 0)
(0.0989583 -0.000451764 0)
(0.0990088 -0.000427663 0)
(0.0990576 -0.000404641 0)
(0.0991048 -0.000382662 0)
(0.0991504 -0.000361691 0)
(0.0991945 -0.000341692 0)
(0.099237 -0.000322628 0)
(0.0992781 -0.000304465 0)
(0.0993176 -0.000287167 0)
(0.0993558 -0.0002707 0)
(0.0993925 -0.000255031 0)
(0.0994278 -0.000240125 0)
(0.0994618 -0.000225952 0)
(0.096467 -0.00249064 0)
(0.0965651 -0.00237673 0)
(0.0966612 -0.00226565 0)
(0.0967557 -0.00215653 0)
(0.0968494 -0.00204859 0)
(0.096943 -0.00194137 0)
(0.0970375 -0.00183503 0)
(0.0971334 -0.00173046 0)
(0.0972308 -0.00162912 0)
(0.0973296 -0.00153266 0)
(0.0974288 -0.00144249 0)
(0.0975278 -0.00135937 0)
(0.0976254 -0.00128342 0)
(0.097721 -0.00121416 0)
(0.0978138 -0.0011508 0)
(0.0979035 -0.00109241 0)
(0.0979899 -0.00103817 0)
(0.0980731 -0.000987356 0)
(0.0981531 -0.000939422 0)
(0.0982301 -0.000893957 0)
(0.0983043 -0.000850658 0)
(0.0983758 -0.000809308 0)
(0.0984448 -0.000769748 0)
(0.0985114 -0.00073186 0)
(0.0985758 -0.000695552 0)
(0.0986381 -0.000660755 0)
(0.0986983 -0.000627407 0)
(0.0987567 -0.000595459 0)
(0.0988132 -0.000564863 0)
(0.0988678 -0.000535577 0)
(0.0989208 -0.00050756 0)
(0.098972 -0.000480772 0)
(0.0990216 -0.000455172 0)
(0.0990696 -0.00043072 0)
(0.099116 -0.000407377 0)
(0.0991608 -0.000385102 0)
(0.0992041 -0.000363858 0)
(0.099246 -0.000343604 0)
(0.0992863 -0.000324305 0)
(0.0993253 -0.000305921 0)
(0.0993629 -0.000288418 0)
(0.0993991 -0.000271759 0)
(0.0994339 -0.000255909 0)
(0.0994674 -0.000240835 0)
(0.0965955 -0.00259184 0)
(0.0966876 -0.00247403 0)
(0.0967781 -0.00235946 0)
(0.0968675 -0.00224745 0)
(0.0969563 -0.00213733 0)
(0.097045 -0.00202866 0)
(0.0971343 -0.00192144 0)
(0.0972246 -0.00181631 0)
(0.097316 -0.00171437 0)
(0.0974084 -0.00161696 0)
(0.0975013 -0.00152524 0)
(0.097594 -0.00143994 0)
(0.0976857 -0.0013612 0)
(0.0977758 -0.00128869 0)
(0.0978638 -0.0012218 0)
(0.0979492 -0.00115977 0)
(0.0980319 -0.00110191 0)
(0.0981119 -0.0010476 0)
(0.098189 -0.000996336 0)
(0.0982635 -0.000947741 0)
(0.0983354 -0.000901517 0)
(0.0984048 -0.000857437 0)
(0.0984719 -0.00081533 0)
(0.0985368 -0.000775061 0)
(0.0985995 -0.000736522 0)
(0.0986603 -0.000699627 0)
(0.0987192 -0.000664302 0)
(0.0987762 -0.000630484 0)
(0.0988314 -0.000598116 0)
(0.0988849 -0.000567148 0)
(0.0989367 -0.00053753 0)
(0.0989869 -0.000509215 0)
(0.0990355 -0.00048216 0)
(0.0990826 -0.000456319 0)
(0.0991281 -0.000431648 0)
(0.0991721 -0.000408104 0)
(0.0992146 -0.000385646 0)
(0.0992557 -0.000364233 0)
(0.0992954 -0.000343825 0)
(0.0993338 -0.000324381 0)
(0.0993707 -0.000305865 0)
(0.0994063 -0.000288238 0)
(0.0994407 -0.000271464 0)
(0.0994737 -0.000255508 0)
(0.096726 -0.00268623 0)
(0.0968118 -0.00256522 0)
(0.0968966 -0.00244775 0)
(0.0969806 -0.00233327 0)
(0.0970643 -0.00222119 0)
(0.0971479 -0.00211108 0)
(0.097232 -0.00200286 0)
(0.0973168 -0.00189696 0)
(0.0974025 -0.00179425 0)
(0.097489 -0.00169584 0)
(0.0975758 -0.00160271 0)
(0.0976626 -0.00151549 0)
(0.0977487 -0.00143436 0)
(0.0978335 -0.00135908 0)
(0.0979167 -0.00128916 0)
(0.0979978 -0.00122397 0)
(0.0980767 -0.00116291 0)
(0.0981533 -0.00110547 0)
(0.0982274 -0.00105119 0)
(0.0982991 -0.000999719 0)
(0.0983686 -0.000950777 0)
(0.0984358 -0.00090414 0)
(0.0985009 -0.000859628 0)
(0.0985639 -0.000817097 0)
(0.0986249 -0.000776429 0)
(0.0986841 -0.000737526 0)
(0.0987414 -0.000700303 0)
(0.098797 -0.000664686 0)
(0.0988509 -0.00063061 0)
(0.0989032 -0.000598017 0)
(0.0989538 -0.000566852 0)
(0.0990029 -0.000537062 0)
(0.0990504 -0.000508597 0)
(0.0990965 -0.000481408 0)
(0.0991411 -0.000455449 0)
(0.0991842 -0.000430674 0)
(0.099226 -0.000407037 0)
(0.0992663 -0.000384495 0)
(0.0993053 -0.000363007 0)
(0.0993429 -0.000342531 0)
(0.0993792 -0.000323027 0)
(0.0994143 -0.000304456 0)
(0.099448 -0.000286779 0)
(0.0994806 -0.000269959 0)
(0.0968586 -0.00277361 0)
(0.0969379 -0.00265007 0)
(0.0970167 -0.00253027 0)
(0.0970951 -0.00241375 0)
(0.0971733 -0.00229998 0)
(0.0972517 -0.00218855 0)
(0.0973305 -0.00207931 0)
(0.0974099 -0.00197257 0)
(0.0974901 -0.00186903 0)
(0.0975709 -0.00176961 0)
(0.097652 -0.00167517 0)
(0.0977332 -0.00158628 0)
(0.0978138 -0.00150309 0)
(0.0978936 -0.00142544 0)
(0.0979721 -0.0013529 0)
(0.098049 -0.00128496 0)
(0.098124 -0.00122111 0)
(0.098197 -0.00116087 0)
(0.098268 -0.00110387 0)
(0.0983369 -0.00104978 0)
(0.0984038 -0.000998335 0)
(0.0984686 -0.000949318 0)
(0.0985315 -0.000902553 0)
(0.0985926 -0.00085789 0)
(0.0986518 -0.000815205 0)
(0.0987092 -0.00077439 0)
(0.098765 -0.000735354 0)
(0.0988191 -0.000698015 0)
(0.0988715 -0.000662301 0)
(0.0989225 -0.000628147 0)
(0.0989719 -0.000595492 0)
(0.0990198 -0.000564279 0)
(0.0990662 -0.000534454 0)
(0.0991113 -0.000505964 0)
(0.0991549 -0.000478758 0)
(0.0991971 -0.000452789 0)
(0.099238 -0.000428009 0)
(0.0992776 -0.000404372 0)
(0.0993158 -0.000381836 0)
(0.0993527 -0.000360355 0)
(0.0993884 -0.00033989 0)
(0.0994228 -0.000320398 0)
(0.099456 -0.00030184 0)
(0.0994879 -0.000284178 0)
(0.0969929 -0.00285384 0)
(0.0970656 -0.00272838 0)