/*--------------------------------*- C++ -*----------------------------------*\
| =========                 |                                                 |
| \\      /  F ield         | OpenFOAM: The Open Source CFD Toolbox           |
|  \\    /   O peration     | Version:  2412                                  |
|   \\  /    A nd           | Website:  www.openfoam.com                      |
|    \\/     M anipulation  |                                                 |
\*---------------------------------------------------------------------------*/
FoamFile
{
    version     2.0;
    format      ascii;
    arch        "LSB;label=32;scalar=64";
    class       volScalarField;
    location    "0.5";
    object      p;
}
// * * * * * * * * * * * * * * * * * * * * * * * * * * * * * * * * * * * * * //

dimensions      [0 2 -2 0 0 0 0];

internalField   nonuniform List<scalar> 
5285
(
0.00523081
0.00537194
0.00552317
0.00568453
0.005856
0.00603751
0.00622867
0.00642901
0.00663807
0.00685574
0.00708258
0.00731984
0.00756912
0.00783199
0.00810957
0.0084025
0.0087117
0.00903936
0.00938916
0.00976584
0.0101745
0.0106206
0.0111102
0.0116502
0.012248
0.0129096
0.0136418
0.0144668
0.015431
0.0163787
0.0173501
0.0190494
0.0199294
0.022457
0.00522886
0.00537096
0.00552326
0.00568577
0.00585863
0.00604175
0.00623468
0.00643676
0.00664719
0.00686553
0.00709235
0.00732926
0.00757828
0.0078412
0.00811914
0.00841254
0.00872182
0.00904874
0.00939708
0.00977179
0.0101781
0.0106214
0.0111074
0.0116428
0.0122344
0.012886
0.0136025
0.0144066
0.0153406
0.0162496
0.0171773
0.0187667
0.0195178
0.0217432
0.00521355
0.00535625
0.00550987
0.00567461
0.00585052
0.00603711
0.00623319
0.00643775
0.00665007
0.00686953
0.00709642
0.00733297
0.00758232
0.00784656
0.00812631
0.00842029
0.00872711
0.00904983
0.00939474
0.00976682
0.0101707
0.0106109
0.0110924
0.0116209
0.0122002
0.0128278
0.0135035
0.0142518
0.0151141
0.0159403
0.016771
0.0181736
0.0186829
0.020347
0.00519555
0.00534244
0.0055012
0.00567183
0.00585425
0.00604784
0.00625054
0.0064606
0.00667681
0.00689765
0.00712432
0.00736194
0.00761573
0.00788755
0.00817588
0.00847412
0.00877553
0.00908627
0.00942137
0.00978886
0.0101901
0.0106267
0.0111018
0.0116188
0.0121767
0.0127683
0.0133929
0.0140621
0.014809
0.0154946
0.0161391
0.0172811
0.0174228
0.0183302
0.00524636
0.00539982
0.00556594
0.00574512
0.00593815
0.00614511
0.00636152
0.00658214
0.00680605
0.0070263
0.00724464
0.00747576
0.00772994
0.00800509
0.0082949
0.00859299
0.00889139
0.00919169
0.0095127
0.00986847
0.0102584
0.0106792
0.0111317
0.0116185
0.0121382
0.0126808
0.0132367
0.0138124
0.0144197
0.0149476
0.0153593
0.0161189
0.015777
0.0157307
0.00520096
0.00535646
0.0055252
0.0057078
0.00590554
0.00611764
0.00633589
0.00655184
0.00676651
0.00698053
0.00719244
0.00741432
0.00766043
0.00792996
0.00821355
0.00850216
0.00878927
0.00908176
0.00939617
0.00974
0.0101111
0.0105066
0.0109257
0.0113692
0.0118347
0.0123138
0.0127954
0.0132744
0.0137422
0.0140933
0.0142386
0.0146078
0.0137257
0.0121435
0.00528828
0.00544564
0.00561591
0.00579969
0.00599777
0.0062076
0.00641838
0.0066213
0.00681987
0.00702159
0.0072289
0.00745014
0.00769273
0.00795189
0.00822096
0.00849766
0.00878152
0.00907785
0.00939514
0.00973631
0.0100989
0.0104798
0.010879
0.0112965
0.0117268
0.0121591
0.0125802
0.0129704
0.0132908
0.013424
0.0131667
0.012732
0.0108836
0.00829458
-0.00401451
-0.00484546
-0.00553201
-0.00491326
-0.00445997
-0.00412861
-0.00384941
-0.00361984
-0.00345144
-0.00332649
-0.00322305
-0.00312738
-0.00303302
-0.00293939
-0.00284856
-0.00276139
-0.00267667
-0.00259262
-0.00250737
-0.00241945
-0.00232812
-0.00223395
-0.00495958
-0.00546583
-0.00605002
-0.00528101
-0.00478092
-0.00438456
-0.00403864
-0.00376083
-0.00355836
-0.00341
-0.00329246
-0.00318703
-0.00308303
-0.00298073
-0.00288378
-0.00279252
-0.00270477
-0.0026184
-0.00253127
-0.00244125
-0.00234747
-0.00225099
-0.00683761
-0.0066297
-0.00704055
-0.00599295
-0.0053924
-0.00486572
-0.00440396
-0.00404369
-0.00378104
-0.00359072
-0.00344667
-0.00332254
-0.0031999
-0.00307856
-0.00296579
-0.00286257
-0.00276582
-0.00267376
-0.00258387
-0.00249004
-0.0023895
-0.00228553
-0.00952418
-0.0081946
-0.00828667
-0.00712706
-0.00625023
-0.00551137
-0.00490726
-0.00445219
-0.00412496
-0.00388879
-0.00371049
-0.00356184
-0.00341909
-0.00327623
-0.0031419
-0.00301959
-0.0029078
-0.00280727
-0.00271502
-0.00261751
-0.00250596
-0.0023864
-0.0123921
-0.0102963
-0.00963134
-0.00831865
-0.00712139
-0.00613639
-0.0053752
-0.00481694
-0.00442096
-0.00413698
-0.00392513
-0.00375217
-0.00359399
-0.00344416
-0.00330525
-0.00317798
-0.00306246
-0.00295959
-0.00286592
-0.0027697
-0.00265959
-0.00253609
-0.00241206
-0.0149141
-0.0122918
-0.011014
-0.00953648
-0.00816606
-0.00701651
-0.00610569
-0.00541193
-0.00488957
-0.00449136
-0.00418095
-0.00393061
-0.00371962
-0.00353524
-0.00337084
-0.00322262
-0.00308946
-0.00297221
-0.00286748
-0.00276158
-0.00264416
-0.00251887
-0.00239466
-0.0162665
-0.0144042
-0.012585
-0.0108821
-0.00937309
-0.00810326
-0.00706134
-0.00622272
-0.00555679
-0.00503018
-0.00461208
-0.00427607
-0.00400001
-0.00376697
-0.00356493
-0.00338687
-0.00322854
-0.00308705
-0.00295876
-0.00283678
-0.0027157
-0.00259399
-0.00247313
-0.0163383
-0.0146203
-0.0132608
-0.0114634
-0.00958061
-0.0079612
-0.00668692
-0.00572532
-0.00501547
-0.00449172
-0.00409913
-0.00379726
-0.00355747
-0.00336018
-0.00319202
-0.00304433
-0.00291226
-0.00279158
-0.00268017
-0.00257487
-0.00247219
-0.00236962
-0.00226692
-0.00216697
-0.0144159
-0.0132843
-0.0120075
-0.0104834
-0.0089942
-0.00765964
-0.00654853
-0.00566779
-0.00498474
-0.00445753
-0.00404827
-0.00372629
-0.00346814
-0.00325643
-0.00307808
-0.00292347
-0.00278539
-0.00266017
-0.00254519
-0.00243781
-0.0023353
-0.00223557
-0.00213801
-0.0134394
-0.0124257
-0.0112916
-0.0100646
-0.00889164
-0.00779157
-0.00682569
-0.00602402
-0.00537348
-0.00484885
-0.0044252
-0.00408037
-0.00379595
-0.00355731
-0.00335307
-0.00317471
-0.00301608
-0.00287278
-0.00274159
-0.00261976
-0.00250479
-0.0023948
-0.0022889
-0.0125322
-0.0116356
-0.0105637
-0.00949611
-0.0085203
-0.0075945
-0.00675638
-0.00603849
-0.00543659
-0.00493472
-0.00451632
-0.00416579
-0.00386934
-0.00361546
-0.003395
-0.00320095
-0.00302796
-0.00287186
-0.0027293
-0.00259745
-0.00247404
-0.00235734
-0.00224625
-0.0116124
-0.01082
-0.00976823
-0.0088143
-0.00799958
-0.00722547
-0.00650552
-0.00587183
-0.00532633
-0.00485956
-0.00446107
-0.00412036
-0.0038275
-0.00357373
-0.00335173
-0.00315559
-0.00298053
-0.00282264
-0.00267868
-0.002546
-0.00242248
-0.00230645
-0.00219669
-0.0106495
-0.0100006
-0.00901195
-0.00817556
-0.00750151
-0.00685741
-0.00624285
-0.00568902
-0.00520159
-0.00477541
-0.00440419
-0.0040812
-0.0037995
-0.00355259
-0.00333471
-0.00314093
-0.00296712
-0.00280981
-0.00266611
-0.00253366
-0.00241052
-0.0022951
-0.00218617
-0.0096501
-0.00916248
-0.00828243
-0.00756782
-0.00701542
-0.00648232
-0.00596141
-0.00548186
-0.00505122
-0.00466723
-0.0043265
-0.004025
-0.00375816
-0.00352134
-0.00331019
-0.00312082
-0.00294983
-0.00279431
-0.00265177
-0.00252015
-0.00239769
-0.00228296
-0.0021748
-0.00866063
-0.00832603
-0.00757821
-0.00698223
-0.00653469
-0.00609698
-0.00565912
-0.00524759
-0.00487087
-0.0045287
-0.00421974
-0.00394193
-0.00369251
-0.00346836
-0.00326638
-0.00308363
-0.00291744
-0.00276545
-0.00262558
-0.00249605
-0.00237535
-0.0022622
-0.00215553
-0.00772572
-0.00752478
-0.00691076
-0.00642395
-0.00606681
-0.00571132
-0.00534667
-0.00499671
-0.00467021
-0.00436834
-0.00409119
-0.00383814
-0.00360777
-0.00339821
-0.00320735
-0.0030331
-0.00287345
-0.00272654
-0.00259071
-0.00246448
-0.00234656
-0.00223585
-0.00213139
-0.00687695
-0.00678209
-0.00628853
-0.00589792
-0.00561828
-0.00533333
-0.00503263
-0.00473768
-0.00445721
-0.00419333
-0.00394709
-0.00371889
-0.00350832
-0.00331445
-0.00313601
-0.0029716
-0.00281978
-0.00267916
-0.00254846
-0.00242648
-0.00231219
-0.00220463
-0.00210301
-0.00612836
-0.00611055
-0.00571684
-0.00540764
-0.0051935
-0.00496841
-0.00472292
-0.00447655
-0.00423764
-0.00400888
-0.00379198
-0.003588
-0.00339728
-0.00321958
-0.00305428
-0.00290057
-0.00275748
-0.00262406
-0.00249933
-0.00238239
-0.00227241
-0.00216862
-0.00207036
-0.0054801
-0.00551349
-0.00519752
-0.004955
-0.00479527
-0.00462032
-0.00442195
-0.00421793
-0.00401607
-0.0038193
-0.00362972
-0.00344883
-0.00327748
-0.00311592
-0.00296407
-0.00282153
-0.00268777
-0.00256215
-0.00244403
-0.00233272
-0.0022276
-0.00212808
-0.00203362
-0.00492156
-0.00498621
-0.00472911
-0.00454014
-0.0044248
-0.00429131
-0.00413275
-0.0039653
-0.00379608
-0.00362808
-0.00346357
-0.00330432
-0.00315147
-0.00300568
-0.00286719
-0.00273599
-0.00261185
-0.00249444
-0.00238333
-0.00227809
-0.00217826
-0.00208339
-0.00199308
-0.00443798
-0.00452087
-0.00430832
-0.00416177
-0.00408204
-0.00398246
-0.00385724
-0.00372109
-0.00358036
-0.00343794
-0.00329617
-0.0031569
-0.00302147
-0.00289078
-0.00276533
-0.00264537
-0.00253092
-0.00242189
-0.00231805
-0.00221915
-0.00212489
-0.00203497
-0.00194908
-0.00401662
-0.00410961
-0.00393092
-0.00381763
-0.00376605
-0.00369394
-0.00359645
-0.00348688
-0.00337081
-0.00325095
-0.00312958
-0.00300856
-0.00288933
-0.0027729
-0.00265996
-0.00255095
-0.00244608
-0.00234543
-0.00224896
-0.00215655
-0.00206804
-0.00198325
-0.00190197
-0.00364721
-0.00374501
-0.00359223
-0.00350491
-0.00347537
-0.00342531
-0.00335073
-0.0032636
-0.00316873
-0.00306862
-0.00296542
-0.00286092
-0.00275656
-0.00265345
-0.00255237
-0.00245388
-0.00235833
-0.00226594
-0.0021768
-0.00209091
-0.00200823
-0.00192868
-0.00185212
-0.00332118
-0.0034204
-0.00328766
-0.00322064
-0.00320818
-0.0031757
-0.00311993
-0.00305165
-0.00297492
-0.00289199
-0.00280486
-0.0027152
-0.00262441
-0.00253361
-0.00244365
-0.00235515
-0.00226857
-0.00218421
-0.00210227
-0.00202285
-0.00194599
-0.00187169
-0.00179992
-0.00303146
-0.00312996
-0.00301293
-0.00296183
-0.00296252
-0.00294395
-0.00290358
-0.00285107
-0.00278979
-0.00272175
-0.00264875
-0.00257234
-0.00249384
-0.00241435
-0.00233472
-0.00225563
-0.00217757
-0.00210094
-0.00202599
-0.0019529
-0.0018818
-0.00181273
-0.00174572
-0.00277222
-0.00286866
-0.00276418
-0.00272564
-0.0027364
-0.00272879
-0.00270098
-0.00266162
-0.00261347
-0.00255828
-0.00249766
-0.00243303
-0.00236561
-0.00229643
-0.00222634
-0.00215603
-0.00208603
-0.00201676
-0.00194853
-0.00188159
-0.0018161
-0.00175218
-0.00168989
-0.00253864
-0.00263222
-0.00253798
-0.00250948
-0.0025279
-0.00252888
-0.0025113
-0.0024829
-0.00244588
-0.00240174
-0.00235195
-0.00229775
-0.00224025
-0.00218044
-0.00211911
-0.00205695
-0.0019945
-0.0019322
-0.0018704
-0.00180938
-0.00174933
-0.00169042
-0.00163276
-0.00232678
-0.00241705
-0.00233137
-0.00231099
-0.00233521
-0.00234289
-0.00233363
-0.00231436
-0.00228676
-0.00225214
-0.00221178
-0.00216679
-0.00211818
-0.00206683
-0.00201352
-0.00195889
-0.00190348
-0.00184774
-0.00179203
-0.00173666
-0.00168186
-0.00162781
-0.00157465
-0.00213335
-0.0022201
-0.00214178
-0.00212807
-0.00215667
-0.00216955
-0.00216707
-0.0021554
-0.00213578
-0.00210934
-0.00207721
-0.00204035
-0.00199966
-0.00195595
-0.00190994
-0.00186223
-0.00181335
-0.00176376
-0.00171381
-0.00166381
-0.00161402
-0.00156464
-0.00151585
-0.00195567
-0.00203881
-0.00196698
-0.00195888
-0.00199076
-0.00200768
-0.00201072
-0.0020054
-0.00199255
-0.00197314
-0.00194818
-0.00191848
-0.00188485
-0.00184802
-0.00180864
-0.00176728
-0.00172446
-0.00168058
-0.00163604
-0.00159112
-0.00154611
-0.00150121
-0.00145661
-0.00179151
-0.00187104
-0.00180508
-0.00180178
-0.00183612
-0.00185618
-0.00186373
-0.00186373
-0.00185664
-0.00184328
-0.00182456
-0.00180118
-0.00177384
-0.00174319
-0.00170983
-0.00167429
-0.00163704
-0.00159849
-0.00155899
-0.00151887
-0.00147838
-0.00143775
-0.00139717
-0.00163899
-0.00171497
-0.00165446
-0.00165537
-0.00169155
-0.00171403
-0.00172529
-0.00172976
-0.00172758
-0.00171946
-0.00170619
-0.00168838
-0.00166663
-0.00164154
-0.00161364
-0.00158341
-0.00155129
-0.00151768
-0.00148291
-0.00144729
-0.00141107
-0.0013745
-0.00133775
-0.00149657
-0.00156907
-0.00151372
-0.00151842
-0.00155598
-0.00158034
-0.00159468
-0.00160293
-0.00160494
-0.00160135
-0.00159285
-0.00157997
-0.00156322
-0.00154312
-0.00152016
-0.00149478
-0.00146738
-0.00143834
-0.00140796
-0.00137655
-0.00134437
-0.00131163
-0.00127853
-0.00136294
-0.00143205
-0.00138167
-0.00138985
-0.00142846
-0.00145429
-0.0014712
-0.00148267
-0.0014883
-0.00148865
-0.00148434
-0.00147581
-0.00146352
-0.00144791
-0.00142943
-0.00140848
-0.00138542
-0.00136059
-0.0013343
-0.00130683
-0.00127843
-0.00124931
-0.00121968
-0.00123699
-0.00130282
-0.0012573
-0.00126874
-0.00130816
-0.00133516
-0.00135424
-0.00136848
-0.00137725
-0.00138104
-0.00138042
-0.00137576
-0.00136745
-0.00135589
-0.00134147
-0.00132455
-0.00130547
-0.00128453
-0.00126204
-0.00123825
-0.0012134
-0.0011877
-0.00116134
-0.00111781
-0.00118048
-0.00113974
-0.00115429
-0.00119438
-0.00122232
-0.00124326
-0.00125989
-0.0012714
-0.00127822
-0.00128086
-0.00127965
-0.00127491
-0.001267
-0.00125626
-0.00124302
-0.00122759
-0.00121025
-0.00119128
-0.00117091
-0.00114938
-0.00112689
-0.00110363
-0.00100467
-0.00106428
-0.00102829
-0.00104585
-0.00108648
-0.00111521
-0.00113777
-0.0011565
-0.00117041
-0.0011799
-0.00118545
-0.00118732
-0.00118579
-0.00118117
-0.00117378
-0.0011639
-0.00115182
-0.00113779
-0.00112208
-0.0011049
-0.00108648
-0.001067
-0.00104666
-0.000896951
-0.000953581
-0.000922319
-0.00094282
-0.000983943
-0.00101334
-0.00103733
-0.00105791
-0.00107396
-0.00108583
-0.00109397
-0.00109859
-0.00109995
-0.00109832
-0.00109397
-0.00108716
-0.00107816
-0.00106719
-0.00105449
-0.00104028
-0.00102476
-0.00100811
-0.000990515
-0.000847891
-0.000821335
-0.000844714
-0.000886293
-0.00091629
-0.000941556
-0.000963803
-0.000981753
-0.000995746
-0.00100621
-0.00101332
-0.00101729
-0.00101836
-0.00101678
-0.00101279
-0.0010066
-0.000998453
-0.000988551
-0.0009771
-0.000964287
-0.00095029
-0.00093527
-0.0137245
-0.0155426
-0.0168512
-0.017615
-0.0179201
-0.0185865
-0.0204794
-0.0116846
-0.0131795
-0.0145135
-0.015597
-0.0161697
-0.0164423
-0.0174012
-0.00969384
-0.0109785
-0.0122821
-0.0135117
-0.0143526
-0.0147742
-0.0156002
-0.00801279
-0.00907649
-0.0102077
-0.0113845
-0.0124002
-0.0130335
-0.0138631
-0.00660776
-0.00746635
-0.00840824
-0.0094837
-0.010578
-0.0113427
-0.0122191
-0.00546772
-0.00616762
-0.00696751
-0.00794181
-0.00901757
-0.00982478
-0.0106983
-0.00454976
-0.00512185
-0.00579991
-0.00666456
-0.0076593
-0.00845851
-0.00932477
-0.00379594
-0.00426434
-0.00483557
-0.00559787
-0.00650275
-0.00727725
-0.00812673
-0.00317666
-0.00356552
-0.0040537
-0.00472883
-0.00554403
-0.0062737
-0.00709018
-0.00267029
-0.00300158
-0.00342814
-0.00403203
-0.00476153
-0.00543233
-0.00620369
-0.00225291
-0.00254136
-0.00292048
-0.00346775
-0.00412413
-0.00473396
-0.00545454
-0.00190321
-0.00215661
-0.00249739
-0.00299895
-0.00359524
-0.00415049
-0.0048244
-0.00160633
-0.00182951
-0.00213754
-0.0026002
-0.00314647
-0.0036568
-0.00429235
-0.00135201
-0.00154895
-0.0018283
-0.00225644
-0.00275983
-0.00323359
-0.0038378
-0.00113233
-0.00130654
-0.00156063
-0.00195756
-0.0024234
-0.00286714
-0.00344522
-0.000940919
-0.00109552
-0.0013273
-0.00169589
-0.00212866
-0.00254766
-0.00310335
-0.000772795
-0.000910541
-0.0011226
-0.00146538
-0.00186891
-0.0022672
-0.00280323
-0.000624054
-0.000747363
-0.000941996
-0.00126124
-0.00163864
-0.00201921
-0.00253762
-0.000491628
-0.000602616
-0.000781828
-0.00107956
-0.00143341
-0.00179843
-0.00230078
-0.000373078
-0.000473581
-0.000639139
-0.000917163
-0.00124959
-0.00160068
-0.00208807
-0.000266428
-0.000358048
-0.000511505
-0.000771428
-0.00108422
-0.00142254
-0.00189573
-0.000170051
-0.00025419
-0.000396924
-0.000640183
-0.000934841
-0.00126125
-0.00172072
-8.25924e-05
-0.000160489
-0.000293726
-0.000521619
-0.000799448
-0.00111457
-0.00156055
-2.91323e-06
-7.56682e-05
-0.000200511
-0.00041422
-0.000676363
-0.00098062
-0.00141316
6.99492e-05
1.35129e-06
-0.000116093
-0.0003167
-0.00056417
-0.000857846
-0.00127686
0.000136813
7.14907e-05
-3.94587e-05
-0.000227966
-0.000461666
-0.000744935
-0.00115023
0.000198377
0.000135539
3.02587e-05
-0.00014708
-0.000367825
-0.000640773
-0.00103205
0.000255241
0.000194177
9.38093e-05
-7.32315e-05
-0.000281764
-0.000544406
-0.000921302
0.000307918
0.000247992
0.000151843
-5.71997e-06
-0.000202723
-0.000455026
-0.000817152
0.000356857
0.000297496
0.000204927
5.6068e-05
-0.000130043
-0.000371941
-0.000718937
0.00025356
0.00011267
-6.31431e-05
-0.000294545
-0.000626083
0.0133319
0.00672947
0.00177897
-0.00158101
-0.0048956
-0.00825555
-0.0113229
0.0076003
0.00267179
-0.000756389
-0.00296135
-0.00534916
-0.00783314
-0.00992635
0.00570274
0.00234083
-0.000514414
-0.00244357
-0.00453354
-0.00663026
-0.0083096
0.00466593
0.00214057
-7.61603e-05
-0.001743
-0.00361552
-0.00546486
-0.00689131
0.00390111
0.00193233
0.000164717
-0.00127437
-0.00290453
-0.00449253
-0.00569041
0.00344869
0.00184705
0.000341065
-0.000954929
-0.00237831
-0.00372803
-0.00472298
0.00317127
0.00179883
0.000457226
-0.000726232
-0.00196583
-0.00311227
-0.00394996
0.00296134
0.00174364
0.000518824
-0.000561401
-0.00163579
-0.00260512
-0.00330565
0.00277433
0.00167594
0.000549549
-0.000433357
-0.00136326
-0.00218389
-0.00277029
0.00260228
0.00160434
0.000569553
-0.000319309
-0.00112794
-0.00182902
-0.00232678
0.00245506
0.00154461
0.000593694
-0.000210197
-0.000920175
-0.00152735
-0.00195702
0.00233818
0.00150299
0.000624254
-0.000107327
-0.000737737
-0.00127052
-0.00164586
0.00224802
0.00147409
0.0006545
-1.58609e-05
-0.000579807
-0.00105137
-0.00138167
0.00217627
0.00145132
0.000680392
6.26493e-05
-0.000443628
-0.000863151
-0.00115534
0.00211659
0.00143313
0.000703747
0.000131622
-0.000324798
-0.000699815
-0.000959572
0.00206569
0.00141916
0.000726809
0.000194193
-0.000219648
-0.000556561
-0.000788578
0.00202208
0.00140902
0.000750248
0.00025183
-0.000125689
-0.000429795
-0.000637883
0.00198539
0.00140316
0.000774775
0.000305685
-4.09729e-05
-0.000316703
-0.000504013
0.0019554
0.00140203
0.000800996
0.000356744
3.60867e-05
-0.000215053
-0.000384257
0.00193138
0.00140506
0.000828673
0.000405413
0.000106664
-0.000123082
-0.00027647
0.00191209
0.00141101
0.000857044
0.000451809
0.000171705
-3.93501e-05
-0.000178926
0.00189614
0.00141856
0.000885338
0.000496019
0.000232032
3.73538e-05
-9.01975e-05
0.00188223
0.0014266
0.000912977
0.000538164
0.000288342
0.00010804
-9.09123e-06
0.00186931
0.00143435
0.000939599
0.000578393
0.000341213
0.000173547
6.53923e-05
0.00185666
0.00144129
0.00096502
0.000616875
0.00039113
0.000234575
0.000134094
0.00184375
0.00144714
0.000989175
0.000653787
0.000438498
0.000291706
0.000197727
0.00183021
0.00145171
0.00101207
0.000689301
0.000483663
0.00034543
0.000256893
0.00181579
0.00145494
0.00103376
0.000723594
0.000526918
0.000396162
0.000312105
0.00180033
0.00145679
0.0010543
0.000756817
0.000568512
0.000444253
0.000363804
0.00178374
0.00145728
0.00107377
0.000789095
0.000608654
0.000489995
0.000412359
0.00176601
0.00145643
0.00109222
0.000820522
0.000647503
0.00522968
0.00537748
0.00553677
0.0057076
0.00588985
0.00608045
0.00626926
0.00644897
0.00662739
0.00681395
0.00701016
0.00721833
0.00744044
0.00767308
0.00791294
0.00815936
0.00841345
0.00867835
0.00895742
0.00925123
0.00955752
0.00987222
0.0101928
0.0105156
0.0108312
0.011126
0.0113834
0.0115786
0.0116749
0.011613
0.0113207
0.0108584
0.00995718
0.00919358
0.00515587
0.00529242
0.00543874
0.0055944
0.00575847
0.00592867
0.00609968
0.00626724
0.00643722
0.00661373
0.00679789
0.00699035
0.00719139
0.00739988
0.00761437
0.00783416
0.00805971
0.00829256
0.00853423
0.0087845
0.00904085
0.00929886
0.00955331
0.00979707
0.0100207
0.0102117
0.0103536
0.0104226
0.0103856
0.0102068
0.00984875
0.00925745
0.00820688
0.00692437
0.00521828
0.00535071
0.00549141
0.00563993
0.00579538
0.00595602
0.00611917
0.00628344
0.00645019
0.00662176
0.0067993
0.00698321
0.00717378
0.00737044
0.00757213
0.00777815
0.00798834
0.00820284
0.00842155
0.00864331
0.00886526
0.00908305
0.00929084
0.00948093
0.00964307
0.00976429
0.00982814
0.0098128
0.00968967
0.00943109
0.00901053
0.00836921
0.00727273
0.00596359
0.00516891
0.00529079
0.00541994
0.00555589
0.00569796
0.00584508
0.00599596
0.00615
0.00630743
0.00646931
0.00663638
0.00680895
0.00698711
0.00717049
0.00735835
0.00754995
0.00774466
0.00794179
0.00814028
0.0083383
0.00853283
0.00871964
0.00889311
0.00904572
0.00916775
0.00924683
0.00926766
0.00921111
0.00905291
0.00876998
0.00834045
0.0077013
0.00667102
0.00544906
0.00511909
0.00523228
0.00535171
0.00547697
0.00560746
0.00574243
0.00588109
0.006023
0.00616809
0.00631677
0.0064694
0.00662608
0.00678667
0.00695081
0.00711781
0.00728686
0.00745706
0.00762729
0.00779599
0.00796096
0.00811905
0.00826608
0.00839663
0.0085037
0.00857838
0.0086095
0.00858355
0.00848417
0.00829145
0.0079873
0.00755497
0.00692978
0.00597918
0.00487483
0.00508402
0.00519027
0.00530191
0.00541854
0.00553969
0.00566473
0.00579309
0.00592436
0.00605836
0.00619513
0.00633472
0.00647699
0.00662162
0.00676811
0.0069157
0.00706344
0.00721021
0.00735458
0.0074947
0.0076281
0.00775155
0.00786084
0.00795071
0.00801458
0.00804436
0.00803031
0.00796089
0.00782256
0.00759938
0.00727794
0.00684729
0.00624884
0.00538779
0.00442148
0.00504441
0.00514384
0.00524791
0.00535627
0.0054685
0.0055841
0.00570261
0.00582365
0.00594692
0.00607226
0.00619947
0.00632824
0.00645811
0.00658843
0.00671834
0.0068468
0.0069725
0.00709384
0.00720877
0.00731473
0.00740847
0.00748592
0.00754211
0.007571
0.00756542
0.00751694
0.00741592
0.00725131
0.0070105
0.00668389
0.00626495
0.00570209
0.00492723
0.00408769
0.00499802
0.00509072
0.00518738
0.00528769
0.00539126
0.00549768
0.00560653
0.00571743
0.00583002
0.00594397
0.00605895
0.00617451
0.00629006
0.00640486
0.00651797
0.00662825
0.0067343
0.0068344
0.00692646
0.0070079
0.00707556
0.00712563
0.00715351
0.00715381
0.00712025
0.00704566
0.00692203
0.00674044
0.00649098
0.00616702
0.00576498
0.00523894
0.00453983
0.00380683
0.00494711
0.00503331
0.00512284
0.00521543
0.00531072
0.00540832
0.00550783
0.00560886
0.005711
0.00581384
0.00591692
0.0060197
0.00612151
0.00622152
0.00631874
0.00641196
0.00649974
0.00658032
0.00665163
0.00671114
0.00675588
0.0067823
0.00678626
0.00676298
0.00670705
0.00661241
0.00647246
0.00628004
0.0060274
0.00571013
0.00532673
0.00483569
0.00420136
0.00355403
0.0048926
0.00497251
0.00505521
0.0051404
0.00522775
0.0053169
0.00540744
0.00549897
0.00559103
0.00568317
0.00577484
0.00586544
0.00595423
0.00604034
0.00612273
0.00620017
0.0062712
0.0063341
0.00638683
0.00642702
0.00645186
0.00645814
0.00644217
0.00639975
0.00632624
0.00621658
0.00606536
0.00586687
0.005615
0.00530705
0.00494289
0.00448434
0.00390487
0.0033245
0.00483498
0.00490883
0.00498495
0.00506305
0.00514281
0.00522387
0.00530582
0.00538824
0.00547067
0.00555259
0.00563342
0.0057125
0.00578906
0.00586221
0.00593088
0.00599386
0.00604969
0.00609672
0.00613301
0.00615633
0.00616411
0.00615344
0.00612107
0.00606337
0.00597638
0.00585588
0.00569748
0.00549661
0.00524849
0.00495167
0.00460689
0.00417857
0.00364674
0.00312122
0.00477476
0.00484277
0.00491256
0.00498388
0.00505638
0.00512972
0.00520348
0.00527723
0.0053505
0.00542273
0.00549332
0.0055616
0.00562676
0.00568791
0.005744
0.00579381
0.00583596
0.00586887
0.00589072
0.00589943
0.00589271
0.00586793
0.00582226
0.00575256
0.00565549
0.00552757
0.00536522
0.00516483
0.00492265
0.00463818
0.00431273
0.00391288
0.00342408
0.00294759
0.00471242
0.0047748
0.00483854
0.00490337
0.00496895
0.00503494
0.00510093
0.00516647
0.00523107
0.00529417
0.00535518
0.00541338
0.00546799
0.00551811
0.00556271
0.00560064
0.00563057
0.005651
0.00566026
0.00565645
0.0056375
0.00560112
0.0055448
0.00546588
0.00536157
0.00522897
0.00506524
0.0048675
0.00463285
0.00436154
0.00405524
0.00368246
0.00323354
0.00280282
0.00464839
0.00470537
0.00476332
0.00482196
0.00488097
0.00493999
0.00499862
0.00505641
0.00511287
0.00516743
0.0052195
0.00526837
0.00531326
0.00535331
0.00538751
0.00541477
0.00543384
0.00544334
0.00544171
0.00542726
0.00539812
0.00535229
0.00528762
0.00520183
0.00509259
0.00495755
0.00479442
0.00460098
0.00437496
0.00411722
0.00382968
0.00348256
0.00307045
0.00268192
0.00458307
0.00463488
0.00468731
0.00474007
0.00479284
0.00484528
0.00489698
0.00494749
0.00499632
0.00504293
0.00508671
0.00512698
0.00516298
0.00519387
0.00521872
0.00523647
0.00524596
0.00524593
0.00523496
0.00521153
0.00517401
0.00512062
0.00504953
0.00495883
0.00484657
0.00471085
0.00454987
0.00436189
0.00414522
0.00390113
0.0036317
0.00330866
0.00293015
0.00257944
0.00451682
0.00456369
0.00461086
0.00465804
0.00470493
0.00475116
0.00479635
0.00484005
0.00488179
0.00492102
0.00495716
0.00498954
0.00501745
0.00504007
0.00505653
0.00506585
0.00506695
0.00505868
0.00503976
0.00500884
0.00496448
0.00490516
0.0048293
0.0047353
0.00462156
0.00448656
0.00432888
0.0041472
0.00394026
0.00370964
0.00345747
0.00315683
0.0028087
0.00249127
0.00444995
0.00449212
0.0045343
0.00457621
0.00461755
0.00465796
0.00469705
0.00473441
0.00476956
0.00480198
0.0048311
0.0048563
0.00487687
0.00489206
0.00490105
0.00490293
0.00489672
0.00488137
0.00485575
0.00481865
0.00476881
0.00470493
0.00462568
0.00452971
0.00441573
0.00428252
0.00412899
0.00395416
0.00375707
0.00353957
0.00330372
0.00302385
0.00270316
0.00241495
0.00438277
0.00442047
0.00445793
0.00449487
0.00453098
0.00456594
0.00459936
0.00463083
0.00465989
0.00468605
0.00470875
0.00472741
0.00474136
0.0047499
0.00475227
0.00474763
0.0047351
0.00471372
0.00468248
0.00464034
0.0045862
0.00451893
0.00443743
0.00434058
0.00422733
0.00409673
0.00394795
0.00378028
0.00359303
0.00338817
0.0031677
0.00290707
0.00261131
0.002349
0.00431553
0.004349
0.00438199
0.00441425
0.00444548
0.00447535
0.00450349
0.00452951
0.00455296
0.00457338
0.00459024
0.00460298
0.00461099
0.00461361
0.00461014
0.00459982
0.00458184
0.00455535
0.00451947
0.00447328
0.00441583
0.00434616
0.00426335
0.00416649
0.00405474
0.00392735
0.00378373
0.00362337
0.00344578
0.00325303
0.00304702
0.00280427
0.00253131
0.00229235
0.00424847
0.00427792
0.00430672
0.00433459
0.00436125
0.00438638
0.00440963
0.00443062
0.00444892
0.0044641
0.00447565
0.00448306
0.00448575
0.00448312
0.00447453
0.00445927
0.00443664
0.00440588
0.0043662
0.00431681
0.00425689
0.00418565
0.0041023
0.00400612
0.00389645
0.00377271
0.00363448
0.00348144
0.00331325
0.00313204
0.0029396
0.00271348
0.00246149
0.00224382
0.00418177
0.00420746
0.0042323
0.00425607
0.00427847
0.0042992
0.00431793
0.00433429
0.00434788
0.00435828
0.00436504
0.00436765
0.00436561
0.00435834
0.00434527
0.00432576
0.00429919
0.00426487
0.00422212
0.00417026
0.0041086
0.00403645
0.00395319
0.00385824
0.00375106
0.00363126
0.00349855
0.00335273
0.0031936
0.00302334
0.00284359
0.00263294
0.00240027
0.00220206
0.00411563
0.00413776
0.00415891
0.00417884
0.00419728
0.00421394
0.0042285
0.00424061
0.0042499
0.00425597
0.0042584
0.00425672
0.00425047
0.00423913
0.00422216
0.00419901
0.00416911
0.00413187
0.00408669
0.00403299
0.00397017
0.00389768
0.003815
0.00372168
0.00361731
0.00350161
0.00337442
0.00323565
0.0030852
0.00292524
0.00275733
0.00256104
0.00234614
0.00216564
0.0040502
0.00406899
0.00408668
0.00410304
0.00411781
0.0041307
0.00414142
0.00414964
0.00415502
0.00415717
0.00415571
0.00415021
0.00414023
0.00412532
0.00410498
0.00407873
0.00404606
0.00400644
0.00395938
0.00390435
0.00384087
0.00376848
0.00368677
0.00359538
0.00349402
0.00338251
0.00326077
0.0031288
0.00298658
0.0028363
0.00267937
0.00249634
0.00229771
0.00213321
0.00398561
0.00400127
0.00401573
0.00402877
0.00404013
0.00404956
0.00405676
0.00406143
0.00406325
0.00406187
0.00405692
0.00404801
0.00403476
0.00401673
0.0039935
0.00396462
0.00392965
0.00388814
0.00383964
0.00378373
0.00372
0.00364807
0.00356762
0.00347838
0.00338014
0.0032728
0.00315638
0.00303092
0.00289647
0.0027552
0.00260842
0.00243758
0.00225378
0.00210362
0.00392197
0.00393471
0.00394616
0.00395612
0.00396433
0.00397057
0.00397455
0.00397599
0.00397458
0.00397001
0.00396195
0.00395003
0.00393389
0.00391316
0.00388745
0.00385636
0.00381952
0.00377652
0.00372698
0.00367056
0.0036069
0.00353571
0.00345674
0.00336978
0.00327471
0.00317148
0.00306018
0.0029409
0.00281374
0.00268083
0.00254337
0.0023837
0.00221333
0.00207592
0.00385938
0.00386939
0.00387805
0.00388514
0.00389046
0.00389376
0.0038948
0.0038933
0.00388899
0.00388156
0.00387071
0.00385613
0.00383747
0.0038144
0.00378658
0.00375366
0.0037153
0.00367116
0.00362092
0.00356428
0.00350095
0.00343071
0.00335336
0.00326877
0.00317685
0.00307764
0.00297123
0.00285778
0.00273741
0.0026122
0.00248326
0.00233377
0.00217554
0.00204941
0.00379792
0.00380539
0.00381145
0.0038159
0.00381855
0.00381917
0.00381752
0.00381335
0.00380641
0.00379643
0.00378311
0.00376618
0.00374532
0.00372024
0.00369064
0.0036562
0.00361664
0.00357166
0.00352098
0.00346437
0.00340158
0.00333245
0.00325682
0.00317462
0.00308581
0.00299045
0.00288869
0.00278069
0.00266662
0.00254849
0.0024273
0.00228706
0.00213973
0.00202353
0.00373766
0.00374275
0.0037464
0.00374842
0.00374862
0.00374678
0.00374269
0.00373611
0.00372681
0.00371454
0.00369903
0.00368003
0.00365727
0.00363047
0.00359937
0.0035637
0.0035232
0.00347763
0.00342675
0.00337035
0.00330827
0.00324035
0.0031665
0.00308667
0.00300088
0.0029092
0.00281182
0.00270891
0.00260065
0.00248898
0.00237482
0.00224294
0.00210538
0.00199786
0.00367863
0.00368153
0.00368296
0.00368273
0.00368068
0.0036766
0.00367029
0.00366153
0.00365011
0.0036358
0.00361836
0.00359755
0.00357314
0.00354488
0.00351253
0.00347587
0.00343467
0.00338871
0.0033378
0.00328179
0.00322052
0.00315389
0.00308183
0.00300434
0.00292145
0.00283327
0.00273999
0.00264179
0.00253886
0.00243308
0.00232526
0.00220093
0.00207208
0.0019721
0.00362088
0.00362175
0.00362112
0.00361883
0.00361472
0.00360859
0.00360027
0.00358955
0.00357623
0.0035601
0.00354096
0.00351858
0.00349275
0.00346325
0.00342988