/*--------------------------------*- C++ -*----------------------------------*\
| =========                 |                                                 |
| \\      /  F ield         | OpenFOAM: The Open Source CFD Toolbox           |
|  \\    /   O peration     | Version:  2412                                  |
|   \\  /    A nd           | Website:  www.openfoam.com                      |
|    \\/     M anipulation  |                                                 |
\*---------------------------------------------------------------------------*/
FoamFile
{
    version     2.0;
    format      ascii;
    arch        "LSB;label=32;scalar=64";
    class       volScalarField;
    location    "27.5";
    object      p;
}
// * * * * * * * * * * * * * * * * * * * * * * * * * * * * * * * * * * * * * //

dimensions      [0 2 -2 0 0 0 0];

internalField   nonuniform List<scalar> 
63420
(
0.000912744
0.000913006
0.00091384
0.000915128
0.000916854
0.000919003
0.000921559
0.000924507
0.000927838
0.000931539
0.000935604
0.000940024
0.000944794
0.000949908
0.000955361
0.000961151
0.000967273
0.000973724
0.000980503
0.000987607
0.000995034
0.00100278
0.00101086
0.00101925
0.00102797
0.00103701
0.00104638
0.00105609
0.00106612
0.0010765
0.00108721
0.00109827
0.00110967
0.00112143
0.00113354
0.00114601
0.00115885
0.00117204
0.00118561
0.00119956
0.00121388
0.00122858
0.00124367
0.00125916
0.00127503
0.0012913
0.00130798
0.00132506
0.00134255
0.00136046
0.00137878
0.00139753
0.00141671
0.00143632
0.00145637
0.000912683
0.000912946
0.000913779
0.000915066
0.00091679
0.000918938
0.000921492
0.000924439
0.000927766
0.000931465
0.000935527
0.000939944
0.00094471
0.000949819
0.000955269
0.000961053
0.00096717
0.000973616
0.000980389
0.000987486
0.000994906
0.00100265
0.00101071
0.0010191
0.00102781
0.00103684
0.00104621
0.0010559
0.00106592
0.00107628
0.00108699
0.00109803
0.00110942
0.00112116
0.00113326
0.00114571
0.00115853
0.00117171
0.00118525
0.00119918
0.00121348
0.00122816
0.00124322
0.00125867
0.00127452
0.00129076
0.0013074
0.00132445
0.00134191
0.00135977
0.00137806
0.00139676
0.0014159
0.00143546
0.00145546
0.000912562
0.000912824
0.000913657
0.000914942
0.000916664
0.000918808
0.000921359
0.000924301
0.000927624
0.000931317
0.000935373
0.000939783
0.000944541
0.000949643
0.000955083
0.000960859
0.000966965
0.0009734
0.000980161
0.000987245
0.000994652
0.00100238
0.00101043
0.0010188
0.00102749
0.00103651
0.00104585
0.00105552
0.00106552
0.00107586
0.00108653
0.00109755
0.00110891
0.00112062
0.00113269
0.00114511
0.00115789
0.00117103
0.00118454
0.00119842
0.00121267
0.0012273
0.00124231
0.00125771
0.0012735
0.00128968
0.00130626
0.00132324
0.00134062
0.00135841
0.00137661
0.00139523
0.00141427
0.00143374
0.00145363
0.000912381
0.000912643
0.000913473
0.000914756
0.000916474
0.000918614
0.000921159
0.000924095
0.00092741
0.000931096
0.000935142
0.000939542
0.000944289
0.000949379
0.000954806
0.000960567
0.000966658
0.000973076
0.000979819
0.000986884
0.00099427
0.00100198
0.00101
0.00101835
0.00102701
0.001036
0.00104531
0.00105495
0.00106492
0.00107522
0.00108586
0.00109684
0.00110816
0.00111982
0.00113184
0.0011442
0.00115693
0.00117001
0.00118346
0.00119727
0.00121146
0.00122602
0.00124095
0.00125627
0.00127197
0.00128806
0.00130454
0.00132142
0.00133869
0.00135637
0.00137445
0.00139294
0.00141184
0.00143116
0.00145089
0.00091214
0.000912401
0.000913229
0.000914508
0.000916221
0.000918355
0.000920893
0.00092382
0.000927126
0.0009308
0.000934834
0.00093922
0.000943953
0.000949026
0.000954436
0.000960178
0.000966248
0.000972644
0.000979364
0.000986403
0.000993762
0.00100144
0.00100943
0.00101775
0.00102638
0.00103533
0.0010446
0.0010542
0.00106412
0.00107437
0.00108496
0.00109588
0.00110715
0.00111875
0.0011307
0.001143
0.00115566
0.00116866
0.00118203
0.00119576
0.00120985
0.00122432
0.00123915
0.00125436
0.00126995
0.00128591
0.00130227
0.00131901
0.00133614
0.00135366
0.00137158
0.0013899
0.00140862
0.00142774
0.00144727
0.000911839
0.000912099
0.000912924
0.000914199
0.000915906
0.000918032
0.00092056
0.000923477
0.000926771
0.000930431
0.00093445
0.000938819
0.000943533
0.000948587
0.000953974
0.000959692
0.000965737
0.000972106
0.000978795
0.000985804
0.000993129
0.00100077
0.00100873
0.001017
0.00102558
0.00103449
0.00104371
0.00105325
0.00106312
0.00107332
0.00108384
0.0010947
0.00110589
0.00111742
0.00112929
0.00114151
0.00115407
0.00116698
0.00118025
0.00119387
0.00120785
0.00122219
0.0012369
0.00125198
0.00126742
0.00128324
0.00129944
0.00131601
0.00133296
0.00135029
0.00136801
0.00138612
0.00140462
0.0014235
0.00144277
0.000911478
0.000911737
0.000912558
0.000913828
0.000915528
0.000917645
0.000920162
0.000923066
0.000926345
0.000929989
0.00093399
0.000938339
0.000943031
0.00094806
0.000953421
0.000959111
0.000965125
0.000971461
0.000978115
0.000985086
0.00099237
0.000999968
0.00100788
0.0010161
0.00102463
0.00103348
0.00104265
0.00105213
0.00106193
0.00107205
0.0010825
0.00109328
0.00110439
0.00111583
0.0011276
0.00113972
0.00115217
0.00116497
0.00117812
0.00119162
0.00120546
0.00121966
0.00123422
0.00124914
0.00126441
0.00128005
0.00129606
0.00131243
0.00132917
0.00134628
0.00136377
0.00138162
0.00139985
0.00141846
0.00143742
0.00147692
0.00149818
0.00152035
0.00154347
0.00156761
0.00159281
0.00161915
0.0016467
0.00167552
0.00170571
0.00173735
0.00177053
0.00180535
0.00184194
0.0018804
0.00192087
0.0019635
0.00200844
0.00205587
0.00210596
0.00215893
0.002215
0.00227442
0.00233745
0.00240441
0.00247562
0.00255143
0.00263226
0.00271854
0.00281075
0.00290943
0.00301517
0.00312859
0.00325039
0.0033813
0.0035221
0.00367357
0.00383646
0.00401138
0.00419874
0.00439847
0.00460984
0.00483112
0.00505937
0.00529085
0.0055218
0.00574888
0.00597863
0.00627552
0.00672769
0.00147598
0.00149724
0.00151941
0.00154253
0.00156666
0.00159186
0.0016182
0.00164574
0.00167456
0.00170475
0.00173638
0.00176955
0.00180437
0.00184094
0.00187938
0.00191984
0.00196244
0.00200736
0.00205474
0.00210479
0.0021577
0.0022137
0.00227303
0.00233596
0.00240279
0.00247383
0.00254944
0.00263001
0.00271597
0.00280779
0.00290598
0.00301109
0.00312372
0.00324452
0.00337416
0.00351333
0.00366269
0.00382285
0.00399423
0.00417696
0.00437066
0.00457415
0.00478513
0.005
0.00521416
0.00542299
0.00562263
0.00581878
0.0060717
0.00646263
0.0014741
0.00149536
0.00151752
0.00154063
0.00156476
0.00158996
0.00161629
0.00164383
0.00167264
0.00170281
0.00173443
0.00176759
0.00180239
0.00183893
0.00187735
0.00191777
0.00196032
0.00200518
0.00205249
0.00210245
0.00215525
0.00221111
0.00227027
0.00233299
0.00239955
0.00247027
0.00254548
0.00262555
0.00271089
0.00280194
0.00289915
0.00300303
0.00311412
0.00323295
0.00336008
0.00349602
0.00364121
0.00379597
0.00396031
0.00413384
0.00431549
0.00450317
0.00469346
0.00488136
0.00506056
0.00522467
0.005369
0.00549776
0.00565882
0.00593961
0.00147128
0.00149254
0.00151469
0.0015378
0.00156191
0.0015871
0.00161342
0.00164094
0.00166974
0.0016999
0.00173149
0.00176462
0.00179939
0.00183589
0.00187426
0.00191462
0.0019571
0.00200186
0.00204906
0.00209887
0.00215149
0.00220714
0.00226603
0.00232842
0.00239458
0.0024648
0.00253939
0.00261869
0.00270308
0.00279294
0.00288866
0.00299068
0.00309942
0.00321527
0.00333861
0.00346969
0.00360863
0.0037553
0.00390913
0.00406895
0.00423263
0.00439676
0.00455621
0.0047039
0.00483099
0.00492829
0.00498983
0.00502093
0.00505421
0.00514109
0.00146754
0.0014888
0.00151094
0.00153404
0.00155815
0.00158333
0.00160964
0.00163715
0.00166594
0.00169607
0.00172765
0.00176075
0.00179548
0.00183195
0.00187026
0.00191054
0.00195294
0.00199759
0.00204464
0.00209428
0.00214668
0.00220205
0.0022606
0.00232257
0.0023882
0.00245776
0.00253154
0.00260983
0.00269295
0.00278122
0.00287497
0.00297449
0.00308006
0.0031919
0.0033101
0.00343461
0.00356508
0.00370078
0.00384035
0.00398156
0.00412095
0.00425332
0.00437134
0.00446525
0.00452305
0.00453188
0.00448312
0.00438493
0.00425881
0.00404613
0.0014629
0.00148416
0.00150631
0.00152943
0.00155355
0.00157875
0.00160509
0.00163263
0.00166145
0.00169162
0.00172323
0.00175637
0.00179113
0.00182763
0.00186597
0.00190628
0.00194869
0.00199334
0.00204039
0.00208999
0.00214233
0.0021976
0.002256
0.00231774
0.00238307
0.00245222
0.00252545
0.00260301
0.00268516
0.00277216
0.00286423
0.00296155
0.00306422
0.00317221
0.00328531
0.00340299
0.00352426
0.0036475
0.00377011
0.00388818
0.00399598
0.00408541
0.00414548
0.00416212
0.00411848
0.00399674
0.00378395
0.00348908
0.00312537
0.00250885
0.00145735
0.00147853
0.00150063
0.0015237
0.00154778
0.00157293
0.00159922
0.00162672
0.00165549
0.00168562
0.00171719
0.00175028
0.001785
0.00182144
0.00185973
0.00189997
0.00194231
0.00198688
0.00203382
0.0020833
0.00213549
0.00219057
0.00224874
0.0023102
0.00237516
0.00244384
0.00251647
0.00259327
0.00267444
0.00276018
0.00285061
0.00294578
0.00304565
0.00314993
0.00325805
0.00336901
0.00348109
0.0035916
0.0036964
0.00378936
0.00386165
0.00390102
0.00389124
0.00381215
0.00364043
0.00335115
0.00292802
0.00238402
0.00168248
0.000538684
-0.00347617
-0.00354171
-0.00356425
-0.00355671
-0.00353027
-0.00348783
-0.00343116
-0.00336184
-0.00328152
-0.00319237
-0.00309441
-0.00298881
-0.00287667
-0.0027589
-0.00263644
-0.00251017
-0.00238094
-0.0022496
-0.00211699
-0.00198394
-0.00185122
-0.00171953
-0.00158961
-0.00146215
-0.00133778
-0.00121702
-0.00110034
-0.000988154
-0.000880852
-0.000778735
-0.000682042
-0.00059095
-0.000505576
-0.000425981
-0.000352169
-0.000284096
-0.000221669
-0.000164757
-0.000113189
-6.67648e-05
-2.52582e-05
1.15794e-05
4.40123e-05
7.23163e-05
9.67741e-05
0.000117671
0.000135292
0.000149915
0.00016181
0.000171241
-0.00354334
-0.00358914
-0.00359973
-0.00358496
-0.0035536
-0.00350784
-0.00344902
-0.00337835
-0.00329752
-0.0032077
-0.00310945
-0.00300384
-0.00289176
-0.00277407
-0.00265169
-0.00252539
-0.00239622
-0.00226487
-0.00213218
-0.001999
-0.00186609
-0.00173416
-0.00160393
-0.00147612
-0.00135135
-0.00123016
-0.001113
-0.00100032
-0.000892504
-0.000789852
-0.000692613
-0.000600972
-0.00051505
-0.00043491
-0.000360563
-0.000291965
-0.000229029
-0.000171625
-0.000119583
-7.27067e-05
-3.07685e-05
6.47857e-06
3.92988e-05
6.7968e-05
9.27695e-05
0.000113989
0.000131913
0.00014682
0.000158981
0.000168667
-0.00367704
-0.00368284
-0.00366963
-0.00364052
-0.00359919
-0.0035467
-0.00348349
-0.0034099
-0.00332791
-0.00323693
-0.00313831
-0.00303253
-0.00292068
-0.00280316
-0.00268078
-0.00255476
-0.00242566
-0.00229431
-0.00216153
-0.00202814
-0.0018949
-0.00176253
-0.00163175
-0.00150326
-0.00137774
-0.00125573
-0.00113768
-0.00102405
-0.000915237
-0.000811557
-0.000713269
-0.000620567
-0.000533583
-0.000452389
-0.000377002
-0.000307386
-0.00024346
-0.000185097
-0.000132134
-8.43749e-05
-4.15951e-05
-3.54865e-06
3.0028e-05
5.94108e-05
8.48838e-05
0.000106735
0.000125251
0.000140714
0.000153395
0.000163581
-0.00388317
-0.00381646
-0.00377177
-0.00372103
-0.00366459
-0.00360211
-0.00353218
-0.00345359
-0.00337014
-0.00327804
-0.00317938
-0.00307218
-0.00296101
-0.00284392
-0.00272199
-0.00259622
-0.0024673
-0.00233602
-0.00220317
-0.00206954
-0.0019359
-0.00180297
-0.00167144
-0.00154205
-0.0014155
-0.00129234
-0.00117306
-0.00105811
-0.000947895
-0.00084277
-0.000743002
-0.000648801
-0.000560313
-0.000477621
-0.000400756
-0.000329691
-0.000264352
-0.000204621
-0.000150339
-0.000101315
-5.73288e-05
-1.81353e-05
1.65276e-05
4.6936e-05
7.33746e-05
9.61328e-05
0.000115501
0.000131764
0.000145197
0.000156108
-0.00414482
-0.00399117
-0.00390411
-0.00382208
-0.00374536
-0.00366992
-0.00359151
-0.00350879
-0.00342137
-0.00332715
-0.00322725
-0.00312123
-0.00300976
-0.00289297
-0.00277159
-0.00264629
-0.00251776
-0.00238673
-0.00225394
-0.00212018
-0.0019862
-0.00185273
-0.00172046
-0.00159011
-0.0014624
-0.00133795
-0.00121725
-0.00110076
-0.000988907
-0.000882065
-0.000780527
-0.000684519
-0.000594204
-0.000509685
-0.000431004
-0.00035815
-0.000291059
-0.000229623
-0.000173692
-0.00012308
-7.7572e-05
-3.69275e-05
-8.86083e-07
3.08273e-05
5.84976e-05
8.24156e-05
0.000102874
0.000120162
0.000134564
0.00014641
-0.00442093
-0.00420815
-0.004069
-0.00394879
-0.00384433
-0.00374891
-0.00365724
-0.00357004
-0.00347541
-0.0033781
-0.00327689
-0.00317076
-0.00305965
-0.00294377
-0.00282351
-0.00269933
-0.00257184
-0.00244169
-0.00230958
-0.00217624
-0.00204243
-0.00190887
-0.00177623
-0.00164524
-0.00151661
-0.00139101
-0.00126897
-0.00115096
-0.00103744
-0.000928795
-0.000825353
-0.000727364
-0.000635015
-0.000548428
-0.000467668
-0.00039274
-0.000323598
-0.000260148
-0.000202251
-0.000149733
-0.000102385
-5.9974e-05
-2.22441e-05
1.10764e-05
4.02707e-05
6.56293e-05
8.74456e-05
0.000106012
0.000121628
0.00013464
-0.00468657
-0.00448161
-0.00429269
-0.00412455
-0.00398176
-0.0038558
-0.00374609
-0.0036443
-0.00354266
-0.00344099
-0.00333714
-0.00322988
-0.00311872
-0.00300345
-0.00288411
-0.00276099
-0.00263452
-0.00250523
-0.00237376
-0.00224078
-0.00210703
-0.00197323
-0.00184005
-0.00170819
-0.00157839
-0.00145134
-0.00132763
-0.00120776
-0.00109222
-0.000981416
-0.000875713
-0.000775389
-0.000680658
-0.000591669
-0.00050851
-0.000431207
-0.000359731
-0.000294005
-0.000233903
-0.00017926
-0.000129878
-8.55273e-05
-4.59576e-05
-1.08993e-05
1.99298e-05
4.68205e-05
7.00675e-05
8.99661e-05
0.000106828
0.000120997
0.000178473
0.000183682
0.000187161
0.000189102
0.00018965
0.000188946
0.000187133
0.000184349
0.000180725
0.000176386
0.000171454
0.000166038
0.000160245
0.00015417
0.000147899
0.000141511
0.000135073
0.000128644
0.000122275
0.000116009
0.000109879
0.000103915
9.81365e-05
9.25604e-05
8.7198e-05
8.20564e-05
7.71395e-05
7.24482e-05
6.79812e-05
6.37355e-05
5.97067e-05
5.58893e-05
5.22771e-05
4.88635e-05
4.56414e-05
4.26038e-05
3.97433e-05
3.70527e-05
3.45246e-05
3.21517e-05
2.99268e-05
2.78419e-05
2.58915e-05
2.40637e-05
2.23571e-05
2.07666e-05
1.92758e-05
1.78848e-05
1.65876e-05
1.53775e-05
1.4249e-05
1.31972e-05
1.22171e-05
1.13043e-05
1.04545e-05
9.66354e-06
8.92778e-06
8.2436e-06
7.60767e-06
7.01682e-06
6.46809e-06
5.95869e-06
5.48601e-06
5.04758e-06
4.64114e-06
4.26449e-06
3.91565e-06
3.59272e-06
3.29391e-06
3.01759e-06
2.76223e-06
2.52636e-06
2.30862e-06
2.10779e-06
1.92267e-06
1.75214e-06
1.59525e-06
1.45093e-06
1.31849e-06
1.19675e-06
1.08552e-06
9.83092e-07
8.90433e-07
8.04133e-07
7.28183e-07
6.54612e-07
5.94599e-07
5.29556e-07
4.86531e-07
4.24105e-07
4.01755e-07
3.3348e-07
3.388e-07
2.53194e-07
2.9644e-07
1.79873e-07
2.72536e-07
1.1239e-07
2.62781e-07
5.2652e-08
2.60529e-07
5.10624e-09
2.58553e-07
-2.67227e-08
2.53829e-07
-4.59674e-08
2.53718e-07
-6.81969e-08
2.80382e-07
-1.23507e-07
3.69507e-07
-2.52611e-07
5.633e-07
-4.9925e-07
8.96116e-07
0.000176171
0.000181494
0.000185091
0.000187171
0.000187859
0.00018729
0.000185607
0.000182947
0.000179439
0.000175209
0.000170378
0.000165057
0.000159352
0.000153357
0.000147161
0.000140841
0.000134465
0.000128094
0.000121778
0.000115559
0.000109473
0.000103548
9.78056e-05
9.22621e-05
8.6929e-05
8.1814e-05
7.6921e-05
7.22514e-05
6.7804e-05
6.35761e-05
5.95633e-05
5.57603e-05
5.21612e-05
4.87593e-05
4.55479e-05
4.25198e-05
3.9668e-05
3.69852e-05
3.44641e-05
3.20975e-05
2.98782e-05
2.77984e-05
2.58525e-05
2.40288e-05
2.23258e-05
2.07386e-05
1.92506e-05
1.78623e-05
1.65674e-05
1.53594e-05
1.42328e-05
1.31827e-05
1.22042e-05
1.12927e-05
1.04441e-05
9.65427e-06
8.9195e-06
8.23621e-06
7.60107e-06
7.01094e-06
6.46284e-06
5.95401e-06
5.48184e-06
5.04387e-06
4.63783e-06
4.26155e-06
3.91302e-06
3.59038e-06
3.29183e-06
3.01574e-06
2.76058e-06
2.52489e-06
2.30732e-06
2.10663e-06
1.92164e-06
1.75122e-06
1.59444e-06
1.45021e-06
1.31785e-06
1.19619e-06
1.08501e-06
9.82648e-07
8.90039e-07
8.03785e-07
7.27875e-07
6.54341e-07
5.94357e-07
5.29345e-07
4.8634e-07
4.23942e-07
4.01605e-07
3.33357e-07
3.38681e-07
2.53102e-07
2.96345e-07
1.79805e-07
2.72459e-07
1.12341e-07
2.6272e-07
5.26149e-08
2.60479e-07
5.07755e-09
2.58512e-07
-2.67448e-08
2.53794e-07
-4.59785e-08
2.53676e-07
-6.81903e-08
2.80327e-07
-1.23482e-07
3.69441e-07
-2.5258e-07
5.63258e-07
-4.99223e-07
8.9615e-07
0.000171593
0.00017715
0.000180988
0.000183344
0.000184309
0.000184009
0.000182582
0.000180165
0.000176887
0.000172873
0.000168242
0.000163108
0.000157576
0.000151741
0.000145692
0.000139508
0.000133257
0.000127
0.000120787
0.000114664
0.000108664
0.000102818
9.71463e-05
9.16673e-05
8.63927e-05
8.13305e-05
7.64854e-05
7.1859e-05
6.74507e-05
6.3258e-05
5.92771e-05
5.55029e-05
5.19298e-05
4.85515e-05
4.53612e-05
4.23523e-05
3.95178e-05
3.68505e-05
3.43434e-05
3.19893e-05
2.97813e-05
2.77115e-05
2.57747e-05
2.39591e-05
2.22633e-05
2.06826e-05
1.92004e-05
1.78173e-05
1.65271e-05
1.53233e-05
1.42005e-05
1.31538e-05
1.21783e-05
1.12696e-05
1.04234e-05
9.63576e-06
8.90296e-06
8.22144e-06
7.58789e-06
6.99917e-06
6.45234e-06
5.94465e-06
5.4735e-06
5.03644e-06
4.6312e-06
4.25565e-06
3.90777e-06
3.5857e-06
3.28767e-06
3.01204e-06
2.75729e-06
2.52196e-06
2.30472e-06
2.10431e-06
1.91958e-06
1.74939e-06
1.59281e-06
1.44877e-06
1.31657e-06
1.19505e-06
1.08401e-06
9.81755e-07
8.89251e-07
8.03088e-07
7.27255e-07
6.53795e-07
5.93873e-07
5.28921e-07
4.8596e-07
4.23618e-07
4.01301e-07
3.33109e-07
3.38439e-07
2.52918e-07
2.96151e-07
1.79673e-07
2.72299e-07
1.12243e-07
2.62591e-07
5.25452e-08
2.60377e-07
5.02418e-09
2.58432e-07
-2.67862e-08
2.53722e-07
-4.60007e-08
2.53596e-07
-6.81763e-08
2.80209e-07
-1.23411e-07
3.69281e-07
-2.52477e-07
5.63131e-07
-4.99136e-07
8.96205e-07
0.000164797
0.000170712
0.000174924
0.000177692
0.000179066
0.000179159
0.00017811
0.00017605
0.000173109
0.000169411
0.000165076
0.000160216
0.000154939
0.000149341
0.00014351
0.000137526
0.000131459
0.000125371
0.000119313
0.00011333
0.000107459
0.000101729
9.61633e-05
9.07803e-05
8.55926e-05
8.06091e-05
7.58352e-05
7.12731e-05
6.6923e-05
6.27829e-05
5.88496e-05
5.51184e-05
5.15841e-05
4.82408e-05
4.50822e-05
4.21019e-05
3.92931e-05
3.6649e-05
3.41628e-05
3.18274e-05
2.96362e-05
2.75816e-05
2.56582e-05
2.38547e-05
2.21697e-05
2.05987e-05
1.91253e-05
1.77499e-05
1.64668e-05
1.52692e-05
1.41521e-05
1.31104e-05
1.21395e-05
1.12348e-05
1.03923e-05
9.60803e-06
8.87818e-06
8.19931e-06
7.56813e-06
6.98154e-06
6.43662e-06
5.93063e-06
5.461e-06
5.0253e-06
4.62128e-06
4.24681e-06
3.8999e-06
3.5787e-06
3.28144e-06
3.00649e-06
2.75235e-06
2.51756e-06
2.30081e-06
2.10084e-06
1.91649e-06
1.74665e-06
1.59038e-06
1.44661e-06
1.31465e-06
1.19335e-06
1.0825e-06
9.80416e-07
8.88066e-07
8.02039e-07
7.26324e-07
6.52976e-07
5.93145e-07
5.28284e-07
4.85387e-07
4.23129e-07
4.00845e-07
3.32737e-07
3.38078e-07
2.52641e-07
2.95861e-07
1.79472e-07
2.72063e-07
1.12096e-07
2.62402e-07
5.24381e-08
2.60227e-07
4.94158e-09
2.58313e-07
-2.68497e-08
2.53617e-07
-4.60356e-08
2.53478e-07
-6.81576e-08
2.80036e-07
-1.23308e-07
3.69047e-07
-2.52328e-07
5.62947e-07
-4.99014e-07
8.96289e-07
0.000155873
0.00016228
0.000167007
0.000170317
0.000172224
0.000172828
0.000172266
0.000170669
0.000168163
0.000164874
0.000160922
0.00015642
0.000151475
0.000146184
0.000140638
0.000134916
0.00012909
0.000123223
0.000117367
0.000111569
0.000105867
0.00010029
9.48638e-05
8.96071e-05
8.45341e-05
7.96544e-05
7.49743e-05
7.04973e-05
6.6224e-05
6.21534e-05
5.82829e-05
5.46085e-05
5.11256e-05
4.78287e-05
4.4712e-05
4.17695e-05
3.89948e-05
3.63815e-05
3.39229e-05
3.16124e-05
2.94435e-05
2.74088e-05
2.55034e-05
2.3716e-05
2.20454e-05
2.04872e-05
1.90253e-05
1.76603e-05
1.63865e-05
1.51973e-05
1.40877e-05
1.30527e-05
1.20879e-05
1.11887e-05
1.03511e-05
9.57112e-06
8.84521e-06
8.16987e-06
7.54184e-06
6.95808e-06
6.41569e-06
5.91197e-06
5.44436e-06
5.01047e-06
4.60807e-06
4.23504e-06
3.88942e-06
3.56936e-06
3.27313e-06
2.9991e-06
2.74577e-06
2.51171e-06
2.29561e-06
2.09621e-06
1.91237e-06
1.743e-06
1.58713e-06
1.44373e-06
1.31209e-06
1.19108e-06
1.08049e-06
9.78632e-07
8.86485e-07
8.00641e-07
7.25082e-07
6.51884e-07
5.92173e-07
5.27434e-07
4.84622e-07
4.22474e-07
4.00241e-07
3.32239e-07
3.37599e-07
2.52267e-07
2.9548e-07
1.79198e-07
2.71756e-07
1.11892e-07
2.6216e-07
5.22852e-08
2.60038e-07
4.82068e-09
2.58166e-07
-2.69446e-08
2.53489e-07
-4.60921e-08
2.53332e-07
-6.81434e-08
2.79817e-07
-1.23186e-07
3.68753e-07
-2.52152e-07
5.62726e-07
-4.98881e-07
8.96418e-07
0.000144938
0.000151991
0.000157381
0.000161356
0.000163903
0.000165122
0.000165146
0.000164104
0.000162123
0.000159327
0.000155837
0.000151767
0.000147223
0.000142307
0.000137106
0.000131704
0.000126173
0.000120576
0.000114968
0.000109396
0.0001039
9.85119e-05
9.3257e-05
8.81559e-05
8.32239e-05
7.84722e-05
7.3908e-05
6.95358e-05
6.53575e-05
6.13728e-05
5.75799e-05
5.39758e-05
5.05564e-05
4.7317e-05
4.42522e-05
4.13566e-05
3.86241e-05
3.60489e-05
3.36246e-05
3.13449e-05
2.92037e-05
2.71938e-05
2.53106e-05
2.35432e-05
2.18905e-05
2.03483e-05
1.89008e-05
1.75487e-05
1.62865e-05
1.51077e-05
1.40074e-05
1.29809e-05
1.20235e-05
1.11311e-05
1.02996e-05
9.52511e-06
8.8041e-06
8.13315e-06
7.50906e-06
6.92882e-06
6.38959e-06
5.88869e-06
5.4236e-06
4.99197e-06
4.59159e-06
4.22036e-06
3.87635e-06
3.55772e-06
3.26277e-06
2.98988e-06
2.73756e-06
2.50441e-06
2.28911e-06
2.09043e-06
1.90724e-06
1.73844e-06
1.58308e-06
1.44013e-06
1.3089e-06
1.18825e-06
1.07798e-06
9.76404e-07
8.84509e-07
7.98894e-07
7.2353e-07
6.50519e-07
5.90956e-07
5.26373e-07
4.83666e-07
4.21657e-07
3.99485e-07
3.31616e-07
3.37001e-07
2.51802e-07
2.95003e-07
1.78855e-07
2.71372e-07
1.11639e-07
2.61857e-07
5.20955e-08
2.59802e-07
4.67188e-09
2.57981e-07
-2.706e-08
2.53326e-07
-4.61598e-08
2.53147e-07
-6.81237e-08
2.79544e-07
-1.23033e-07
3.68385e-07
-2.51928e-07
5.62444e-07
-4.98705e-07
8.96539e-07
0.000132104
0.000139998
0.000146215
0.000150962
0.000154245
0.000156166
0.000156858
0.000156451
0.00015507
0.00015284
0.000149882
0.00014631
0.000142233
0.000137749
0.000132951
0.000127921
0.000122732
0.000117451
0.000112133
0.000106827
0.000101574
9.64068e-05
9.13534e-05
8.64355e-05
8.16699e-05
7.70691e-05
7.26418e-05
6.83936e-05
6.43276e-05
6.04445e-05
5.67437e-05
5.32229e-05
4.98788e-05
4.67076e-05
4.37044e-05
4.08644e-05
3.81822e-05
3.56522e-05
3.32687e-05
3.10257e-05
2.89174e-05
2.69371e-05
2.50804e-05
2.33368e-05
2.17055e-05
2.01822e-05
1.8752e-05
1.74153e-05
1.61669e-05
1.50005e-05
1.39114e-05
1.28949e-05
1.19466e-05
1.10623e-05
1.0238e-05
9.47006e-06
8.7549e-06
8.0892e-06
7.46982e-06
6.8938e-06
6.35834e-06
5.86082e-06
5.39875e-06
4.96982e-06
4.57185e-06
4.20277e-06
3.86068e-06
3.54377e-06
3.25035e-06
2.97883e-06
2.72773e-06
2.49566e-06
2.28133e-06
2.08351e-06
1.90109e-06
1.73297e-06
1.57822e-06
1.43582e-06
1.30507e-06
1.18485e-06
1.07497e-06
9.73732e-07
8.82138e-07
7.968e-07
7.21667e-07
6.48884e-07
5.89492e-07
5.25105e-07
4.8251e-07
4.20687e-07
3.98563e-07
3.30891e-07
3.36255e-07
2.51279e-07
2.94385e-07
1.78499e-07
2.70847e-07
1.11413e-07
2.61405e-07
5.19655e-08
2.59413e-07
4.6045e-09
2.57644e-07
-2.70834e-08
2.53018e-07
-4.61298e-08
2.52816e-07
-6.7989e-08
2.79097e-07
-1.22717e-07
3.67782e-07
-2.51456e-07
5.61843e-07
-4.98161e-07
8.96266e-07
0.0001171
0.000126149
0.000133398
0.000139028
0.000143138
0.000145849
0.000147295
0.000147603
0.000146901
0.000145314
0.000142962
0.000139959
0.000136415
0.000132429
0.000128094
0.000123493
0.000118702
0.000113787
0.000108806
0.000103809
9.88379e-05
9.3929e-05
8.91111e-05
8.44076e-05
7.98369e-05
7.54132e-05
7.11465e-05
6.7044e-05
6.311e-05
5.93467e-05
5.57542e-05
5.23316e-05
4.90764e-05
4.59855e-05
4.30551e-05
4.02808e-05
3.7658e-05
3.51815e-05
3.28462e-05
3.06466e-05
2.85773e-05
2.66321e-05
2.48067e-05
2.30914e-05
2.14854e-05
1.99847e-05
1.8575e-05
1.72566e-05
1.60245e-05
1.48729e-05
1.37971e-05
1.27925e-05
1.18549e-05
1.09803e-05
1.01646e-05
9.40447e-06
8.69628e-06
8.03684e-06
7.42306e-06
6.85206e-06
6.32109e-06
5.82759e-06
5.36912e-06
4.94341e-06
4.5483e-06
4.1818e-06
3.842e-06
3.52714e-06
3.23554e-06
2.96564e-06
2.71599e-06
2.48522e-06
2.27204e-06
2.07525e-06
1.89374e-06
1.72644e-06
1.57242e-06
1.43067e-06
1.3005e-06
1.18079e-06
1.07136e-06
9.70541e-07
8.79304e-07
7.94299e-07
7.19437e-07
6.46934e-07
5.87735e-07
5.23599e-07
4.81114e-07
4.19548e-07
3.97434e-07
3.30062e-07
3.35314e-07
2.50719e-07
2.93567e-07
1.78172e-07
2.70101e-07
1.1128e-07
2.6071e-07
5.19828e-08
2.58762e-07
4.71964e-09
2.57042e-07
-2.69108e-08
2.52453e-07
-4.59013e-08
2.5223e-07
-6.76361e-08
2.7836e-07
-1.22107e-07
3.6678e-07
-2.50535e-07
5.60663e-07
-4.96933e-07
8.95253e-07
0.000100836
0.000110906
0.000119142
0.000125698
0.000130694
0.000134259
0.000136524
0.000137616
0.000137662
0.000136784
0.000135104
0.000132735
0.000129786
0.000126358
0.000122543
0.000118426
0.000114083
0.000109582
0.000104983
0.000100336
9.56875e-05
9.1073e-05
8.65241e-05
8.20658e-05
7.77185e-05
7.34978e-05
6.94157e-05
6.54808e-05
6.16988e-05
5.80733e-05
5.46059e-05
5.12966e-05
4.8144e-05
4.51461e-05
4.22998e-05
3.96017e-05
3.70475e-05
3.46331e-05
3.23537e-05
3.02045e-05
2.81805e-05
2.6276e-05
2.44872e-05
2.28048e-05
2.12282e-05
1.97539e-05
1.8368e-05
1.70709e-05
1.58581e-05
1.47238e-05
1.36634e-05
1.26728e-05
1.17477e-05
1.08843e-05
1.00788e-05
9.3277e-06
8.62766e-06
7.97553e-06
7.3683e-06
6.80317e-06
6.27746e-06
5.78866e-06
5.33441e-06
4.91246e-06
4.52072e-06
4.15722e-06
3.8201e-06
3.50763e-06
3.21817e-06
2.95018e-06
2.70223e-06
2.47297e-06
2.26115e-06
2.06556e-06
1.88513e-06
1.71878e-06
1.56562e-06
1.42462e-06
1.29513e-06
1.17603e-06
1.06714e-06
9.66795e-07
8.75979e-07
7.9136e-07
7.16824e-07
6.44637e-07
5.85681e-07
5.21816e-07
4.79496e-07
4.1818e-07
3.96149e-07
3.29033e-07
3.34282e-07
2.49969e-07
2.9272e-07
1.77648e-07
2.69392e-07
1.10932e-07
2.60111e-07
5.17634e-08
2.58256e-07
4.58345e-09
2.56615e-07
-2.69898e-08
2.52072e-07
-4.59136e-08
2.51827e-07
-6.75178e-08
2.77816e-07
-1.2176e-07
3.66042e-07
-2.49989e-07
5.59937e-07
-4.96306e-07
8.95049e-07
8.37541e-05
9.47735e-05
0.000103963
0.000111448
0.00011735
0.000121796
0.000124912
0.000126823
0.000127653
0.000127525
0.000126557
0.000124862
0.000122549
0.000119718
0.000116462
0.000112866
0.000109007
0.000104955
0.00010077
9.65058e-05
9.22078e-05
8.79151e-05
8.36606e-05
7.94713e-05
7.53692e-05
7.13719e-05
6.74931e-05
6.3743e-05
6.01289e-05
5.66559e-05
5.33268e-05
5.01429e-05
4.71042e-05
4.42094e-05
4.14565e-05
3.88428e-05
3.63651e-05
3.40197e-05
3.18026e-05
2.97095e-05
2.7736e-05
2.58769e-05
2.4129e-05
2.24833e-05
2.09397e-05
1.94949e-05
1.81357e-05
1.68625e-05
1.56712e-05
1.45562e-05
1.35132e-05
1.25382e-05
1.16272e-05
1.07764e-05
9.98228e-06
9.24138e-06
8.5505e-06
7.90657e-06
7.30671e-06
6.74817e-06
6.22837e-06
5.74486e-06
5.29533e-06
4.87762e-06
4.48966e-06
4.12954e-06
3.79544e-06
3.48567e-06
3.19861e-06
2.93277e-06
2.68673e-06
2.45918e-06
2.24887e-06
2.05464e-06
1.87542e-06
1.71015e-06
1.55795e-06
1.41781e-06
1.28908e-06
1.17066e-06
1.06237e-06
9.62569e-07
8.72229e-07
7.88042e-07
7.13878e-07
6.42041e-07
5.83369e-07
5.19796e-07
4.7768e-07
4.16622e-07
3.9472e-07
3.27846e-07
3.3315e-07
2.4908e-07
2.91817e-07
1.76993e-07
2.68668e-07
1.10452e-07
2.59535e-07
5.14056e-08
2.57805e-07
4.30446e-09
2.56263e-07
-2.72113e-08
2.51777e-07
-4.60636e-08
2.51512e-07
-6.75344e-08
2.7737e-07
-1.2156e-07
3.65431e-07
-2.49637e-07
5.5943e-07
-4.95979e-07
8.95309e-07
6.60089e-05
7.79494e-05
8.80701e-05
9.64792e-05
0.00010329
0.000108626
0.000112608
0.000115357
0.000116996
0.000117643
0.000117415
0.000116425
0.000114778
0.000112575
0.000109908
0.000106864
0.000103519
9.99447e-05
9.62022e-05
9.23463e-05
8.84245e-05
8.44775e-05
8.05399e-05
7.66406e-05
7.28035e-05
6.90481e-05
6.53896e-05
6.184e-05
5.84085e-05
5.51013e-05
5.19229e-05
4.88759e-05
4.59614e-05
4.31792e-05
4.05285e-05
3.80073e-05
3.56132e-05
3.33434e-05
3.11946e-05
2.91631e-05
2.72451e-05
2.5436e-05
2.3733e-05
2.21278e-05
2.06205e-05
1.92083e-05
1.78785e-05
1.66318e-05
1.54642e-05
1.43705e-05
1.33468e-05
1.23891e-05
1.14936e-05
1.06568e-05
9.87526e-06
9.14565e-06
8.4649e-06
7.83007e-06
7.23836e-06
6.68713e-06
6.17387e-06
5.69623e-06
5.25195e-06
4.83893e-06
4.45517e-06
4.0988e-06
3.76805e-06
3.46126e-06
3.17687e-06
2.91341e-06
2.6695e-06
2.44384e-06
2.23522e-06
2.0425e-06
1.86462e-06
1.70056e-06
1.54942e-06
1.41023e-06
1.28235e-06
1.16469e-06
1.05706e-06
9.57866e-07
8.68055e-07
7.84349e-07
7.10599e-07
6.39151e-07
5.80795e-07
5.17546e-07
4.7566e-07
4.14885e-07
3.9313e-07
3.26522e-07
3.31893e-07
2.48088e-07
2.90814e-07
1.76262e-07
2.67863e-07
1.09917e-07
2.58893e-07
5.10082e-08
2.57301e-07
3.99463e-09
2.55871e-07
-2.746e-08
2.51453e-07
-4.62401e-08
2.51176e-07
-6.75742e-08
2.76899e-07
-1.2137e-07
3.64783e-07
-2.49271e-07
5.58875e-07
-4.95618e-07
8.95626e-07
4.78184e-05
6.06486e-05
7.16721e-05
8.09848e-05
8.86928e-05
9.49127e-05
9.97615e-05
0.000103356
0.000105813
0.000107249
0.000107778
0.00010751
0.00010655
0.000104997
0.000102943
0.000100473
9.76663e-05
9.45925e-05
9.13149e-05
8.78895e-05
8.43651e-05
8.07842e-05
7.71829e-05
7.35921e-05
7.00374e-05
6.654e-05
6.31171e-05
5.97824e-05
5.65465e-05
5.34175e-05
5.04011e-05
4.75014e-05
4.47207e-05
4.206e-05
3.95195e-05
3.70982e-05
3.47946e-05
3.26067e-05
3.05319e-05
2.85671e-05
2.67094e-05
2.49546e-05
2.33004e-05
2.17393e-05
2.02715e-05
1.88949e-05
1.75971e-05
1.63792e-05
1.52376e-05
1.41673e-05
1.31646e-05
1.22258e-05
1.13473e-05
1.05258e-05
9.75796e-06
9.0407e-06
8.37104e-06
7.74616e-06
7.16338e-06
6.62015e-06
6.11407e-06
5.64285e-06
5.20432e-06
4.79645e-06
4.41729e-06
4.06503e-06
3.73795e-06
3.43445e-06
3.15299e-06
2.89214e-06
2.65056e-06
2.42698e-06
2.22022e-06
2.02915e-06
1.85275e-06
1.69e-06
1.54003e-06
1.40189e-06
1.27494e-06
1.15811e-06
1.05123e-06
9.52689e-07
8.63461e-07
7.80282e-07
7.06989e-07
6.35968e-07
5.77962e-07
5.15068e-07
4.73435e-07
4.12972e-07
3.91379e-07
3.25065e-07
3.30507e-07
2.46997e-07
2.89707e-07
1.75461e-07
2.66971e-07
1.09335e-07
2.58178e-07
5.05801e-08
2.56736e-07
3.66414e-09
2.5543e-07
-2.77254e-08
2.51091e-07
-4.64328e-08
2.5081e-07
-6.76276e-08
2.76397e-07
-1.21181e-07
3.64085e-07
-2.48875e-07
5.58244e-07
-4.95188e-07
8.95935e-07
2.94016e-05
4.30771e-05
5.49627e-05
6.51461e-05
7.37258e-05
8.08118e-05
8.65151e-05
9.09471e-05
9.42208e-05
9.64486e-05
9.7741e-05
9.8205e-05
9.79434e-05
9.70536e-05
9.5627e-05
9.37484e-05
9.14958e-05
8.89401e-05