/*--------------------------------*- C++ -*----------------------------------*\
| =========                 |                                                 |
| \\      /  F ield         | OpenFOAM: The Open Source CFD Toolbox           |
|  \\    /   O peration     | Version:  2412                                  |
|   \\  /    A nd           | Website:  www.openfoam.com                      |
|    \\/     M anipulation  |                                                 |
\*---------------------------------------------------------------------------*/
FoamFile
{
    version     2.0;
    format      ascii;
    arch        "LSB;label=32;scalar=64";
    class       surfaceScalarField;
    location    "27.5";
    object      phi;
}
// * * * * * * * * * * * * * * * * * * * * * * * * * * * * * * * * * * * * * //

dimensions      [0 3 -1 0 0 0 0];

oriented        oriented;

internalField   nonuniform List<scalar> 
126304
(
0.00505063
1.30254e-07
2.15342e-11
0.00505025
3.79789e-07
6.28951e-11
0.00504963
6.15906e-07
9.81254e-11
0.00504879
8.40271e-07
1.24145e-10
0.00504774
1.0546e-06
1.40597e-10
0.00504648
1.26024e-06
1.50198e-10
0.00504502
1.45819e-06
1.5693e-10
0.00504337
1.64953e-06
1.63825e-10
0.00504153
1.8363e-06
1.71129e-10
0.00503951
2.02259e-06
1.74231e-10
0.00503729
2.21519e-06
1.62747e-10
0.00503487
2.42296e-06
1.22264e-10
0.00503221
2.65499e-06
3.81529e-11
0.0050293
2.91792e-06
-9.92543e-11
0.00502608
3.2135e-06
-2.89388e-10
0.00502255
3.53728e-06
-5.18521e-10
0.00501867
3.87887e-06
-7.60529e-10
0.00501445
4.22368e-06
-9.81204e-10
0.00500989
4.55564e-06
-1.14459e-09
0.00500503
4.85995e-06
-1.21933e-09
0.00499991
5.12536e-06
-1.18392e-09
0.00499456
5.34552e-06
-1.02986e-09
0.00498905
5.51917e-06
-7.62109e-10
0.0049834
5.64957e-06
-3.96877e-10
0.00497765
5.74333e-06
4.19719e-11
0.00497184
5.80902e-06
5.26545e-10
0.00496599
5.85586e-06
1.02863e-09
0.00496009
5.89264e-06
1.52283e-09
0.00495416
5.92702e-06
1.98853e-09
0.0049482
5.96513e-06
2.41081e-09
0.00494218
6.01144e-06
2.78024e-09
0.00493611
6.06893e-06
3.09241e-09
0.00492997
6.13923e-06
3.34707e-09
0.00492374
6.22298e-06
3.54705e-09
0.00491742
6.32006e-06
3.69717e-09
0.00491098
6.42987e-06
3.80324e-09
0.00490443
6.5515e-06
3.87151e-09
0.00489774
6.68398e-06
3.90815e-09
0.00489091
6.82628e-06
3.91901e-09
0.00488393
6.97746e-06
3.90927e-09
0.00487679
7.13669e-06
3.88332e-09
0.00486948
7.30324e-06
3.84482e-09
0.004862
7.47653e-06
3.79674e-09
0.00485434
7.65607e-06
3.74133e-09
0.0048465
7.84151e-06
3.68032e-09
0.00483846
8.03254e-06
3.61511e-09
0.00483023
8.22899e-06
3.5467e-09
0.00482179
8.43069e-06
3.47583e-09
0.00481315
8.63758e-06
3.4031e-09
0.0048043
8.84963e-06
3.32889e-09
0.00479523
9.0669e-06
3.25351e-09
0.00478594
9.28967e-06
3.17718e-09
0.00477641
9.51873e-06
3.10002e-09
0.00476665
9.75649e-06
3.02185e-09
1.00098e-05
0.00475664
2.93837e-09
0.00505063
2.60443e-07
0.00505025
7.59369e-07
0.00504963
1.23148e-06
0.00504879
1.68007e-06
0.00504774
2.10858e-06
0.00504648
2.51972e-06
0.00504502
2.91549e-06
0.00504337
3.29803e-06
0.00504154
3.6714e-06
0.00503952
4.04379e-06
0.0050373
4.42872e-06
0.00503488
4.84387e-06
0.00503223
5.30734e-06
0.00502932
5.83241e-06
0.00502611
6.42261e-06
0.00502257
7.06912e-06
0.0050187
7.75126e-06
0.00501449
8.43998e-06
0.00500994
9.10322e-06
0.00500509
9.71148e-06
0.00499997
1.02423e-05
0.00499463
1.0683e-05
0.00498912
1.10309e-05
0.00498348
1.12925e-05
0.00497774
1.14809e-05
0.00497194
1.16132e-05
0.00496608
1.17078e-05
0.00496019
1.17821e-05
0.00495427
1.18515e-05
0.00494831
1.19281e-05
0.0049423
1.2021e-05
0.00493623
1.2136e-05
0.00493009
1.22765e-05
0.00492387
1.24437e-05
0.00491755
1.26374e-05
0.00491113
1.28565e-05
0.00490458
1.30992e-05
0.0048979
1.33634e-05
0.00489108
1.36473e-05
0.00488411
1.39488e-05
0.00487698
1.42664e-05
0.00486968
1.45986e-05
0.00486222
1.49443e-05
0.00485457
1.53024e-05
0.00484674
1.56722e-05
0.00483872
1.60533e-05
0.0048305
1.6445e-05
0.00482209
1.68473e-05
0.00481346
1.72598e-05
0.00480463
1.76826e-05
0.00479558
1.81157e-05
0.00478631
1.85598e-05
0.00477681
1.90162e-05
0.00476708
1.94896e-05
1.99936e-05
0.0047571
0.00505063
3.9046e-07
0.00505025
1.13841e-06
0.00504963
1.84619e-06
0.00504879
2.51869e-06
0.00504774
3.16107e-06
0.00504648
3.77739e-06
0.00504503
4.37067e-06
0.00504338
4.94412e-06
0.00504155
5.50378e-06
0.00503953
6.0619e-06
0.00503732
6.63864e-06
0.00503491
7.26043e-06
0.00503226
7.95434e-06
0.00502935
8.74026e-06
0.00502615
9.62357e-06
0.00502263
1.05912e-05
0.00501877
1.16123e-05
0.00501456
1.26436e-05
0.00501003
1.36371e-05
0.00500519
1.45488e-05
0.00500009
1.53449e-05
0.00499477
1.60064e-05
0.00498927
1.65292e-05
0.00498364
1.69229e-05
0.00497791
1.7207e-05
0.00497212
1.74068e-05
0.00496628
1.75498e-05
0.0049604
1.76622e-05
0.00495448
1.77668e-05
0.00494853
1.7882e-05
0.00494253
1.80211e-05
0.00493647
1.8193e-05
0.00493034
1.84029e-05
0.00492413
1.86526e-05
0.00491783
1.89419e-05
0.00491142
1.9269e-05
0.00490489
1.96314e-05
0.00489822
2.0026e-05
0.00489142
2.04499e-05
0.00488447
2.09002e-05
0.00487736
2.13745e-05
0.00487009
2.18707e-05
0.00486265
2.2387e-05
0.00485503
2.29218e-05
0.00484722
2.34742e-05
0.00483923
2.40432e-05
0.00483105
2.46282e-05
0.00482267
2.52288e-05
0.00481408
2.58447e-05
0.00480529
2.64757e-05
0.00479629
2.71221e-05
0.00478706
2.77845e-05
0.00477761
2.84649e-05
0.00476793
2.91699e-05
2.9918e-05
0.00475801
0.00505063
5.20222e-07
0.00505025
1.51663e-06
0.00504964
2.45961e-06
0.0050488
3.35553e-06
0.00504775
4.2113e-06
0.00504649
5.03235e-06
0.00504504
5.8227e-06
0.0050434
6.5866e-06
0.00504157
7.33209e-06
0.00503956
8.07536e-06
0.00503735
8.84315e-06
0.00503494
9.6705e-06
0.0050323
1.05934e-05
0.00502941
1.16383e-05
0.00502622
1.28124e-05
0.00502271
1.40988e-05
0.00501887
1.54565e-05
0.00501468
1.68283e-05
0.00501017
1.81507e-05
0.00500535
1.93649e-05
0.00500027
2.04263e-05
0.00499497
2.1309e-05
0.00498949
2.20077e-05
0.00498388
2.25347e-05
0.00497817
2.29158e-05
0.00497239
2.31844e-05
0.00496656
2.3377e-05
0.0049607
2.35282e-05
0.0049548
2.36684e-05
0.00494885
2.3822e-05
0.00494287
2.40069e-05
0.00493683
2.4235e-05
0.00493072
2.45132e-05
0.00492453
2.4844e-05
0.00491824
2.52271e-05
0.00491185
2.56604e-05
0.00490534
2.61404e-05
0.0048987
2.66632e-05
0.00489193
2.72248e-05
0.00488501
2.78216e-05
0.00487793
2.84503e-05
0.00487069
2.91079e-05
0.00486329
2.97921e-05
0.00485571
3.0501e-05
0.00484795
3.1233e-05
0.00484001
3.19871e-05
0.00483187
3.27623e-05
0.00482354
3.35579e-05
0.00481501
3.43737e-05
0.00480628
3.52094e-05
0.00479734
3.60651e-05
0.00478818
3.69415e-05
0.0047788
3.78412e-05
0.0047692
3.87714e-05
3.97542e-05
0.00475937
0.00505063
6.49647e-07
0.00505025
1.89377e-06
0.00504964
3.07131e-06
0.0050488
4.19e-06
0.00504776
5.25855e-06
0.00504651
6.28371e-06
0.00504506
7.27052e-06
0.00504342
8.22428e-06
0.0050416
9.15496e-06
0.00503959
1.00826e-05
0.00503739
1.10405e-05
0.00503499
1.2072e-05
0.00503236
1.32219e-05
0.00502948
1.45233e-05
0.0050263
1.59855e-05
0.00502282
1.75874e-05
0.00501899
1.92788e-05
0.00501483
2.09886e-05
0.00501035
2.26378e-05
0.00500556
2.41535e-05
0.0050005
2.54798e-05
0.00499523
2.65844e-05
0.00498978
2.74602e-05
0.00498419
2.81221e-05
0.0049785
2.86018e-05
0.00497275
2.89409e-05
0.00496694
2.91843e-05
0.00496109
2.93753e-05
0.00495521
2.95515e-05
0.00494929
2.97435e-05
0.00494332
2.99735e-05
0.0049373
3.02567e-05
0.00493121
3.06016e-05
0.00492504
3.10116e-05
0.00491878
3.14864e-05
0.00491242
3.20234e-05
0.00490594
3.26184e-05
0.00489934
3.32665e-05
0.0048926
3.3963e-05
0.00488572
3.47032e-05
0.00487869
3.54829e-05
0.0048715
3.62986e-05
0.00486414
3.71474e-05
0.00485662
3.80267e-05
0.00484891
3.89348e-05
0.00484103
3.987e-05
0.00483296
4.08313e-05
0.0048247
4.18178e-05
0.00481625
4.2829e-05
0.00480759
4.38645e-05
0.00479873
4.49244e-05
0.00478966
4.60093e-05
0.00478038
4.71217e-05
0.00477089
4.82691e-05
4.94743e-05
0.00476117
0.00505063
7.78658e-07
0.00505025
2.26954e-06
0.00504964
3.68087e-06
0.00504881
5.02152e-06
0.00504777
6.30206e-06
0.00504652
7.53057e-06
0.00504508
8.7131e-06
0.00504345
9.85598e-06
0.00504163
1.09711e-05
0.00503963
1.20822e-05
0.00503744
1.32289e-05
0.00503505
1.44629e-05
0.00503244
1.58375e-05
0.00502957
1.73924e-05
0.00502641
1.91391e-05
0.00502295
2.10529e-05
0.00501915
2.30743e-05
0.00501502
2.51189e-05
0.00501057
2.70926e-05
0.00500581
2.89084e-05
0.00500079
3.04993e-05
0.00499555
3.18264e-05
0.00499013
3.28806e-05
0.00498457
3.36792e-05
0.00497892
3.42596e-05
0.00497319
3.4671e-05
0.0049674
3.49669e-05
0.00496158
3.51986e-05
0.00495572
3.54113e-05
0.00494982
3.56414e-05
0.00494388
3.59159e-05
0.00493788
3.62528e-05
0.00493182
3.66625e-05
0.00492568
3.71493e-05
0.00491946
3.77131e-05
0.00491313
3.83508e-05
0.00490669
3.90575e-05
0.00490013
3.98276e-05
0.00489344
4.06553e-05
0.00488661
4.1535e-05
0.00487963
4.24619e-05
0.00487249
4.34316e-05
0.0048652
4.44407e-05
0.00485774
4.54861e-05
0.00485011
4.65655e-05
0.0048423
4.76772e-05
0.00483432
4.88196e-05
0.00482614
4.99917e-05
0.00481778
5.11928e-05
0.00480922
5.24224e-05
0.00480046
5.36802e-05
0.00479151
5.49668e-05
0.00478234
5.62841e-05
0.00477297
5.76388e-05
5.90513e-05
0.0047634
0.00505063
9.07134e-07
0.00505025
2.64372e-06
0.00504965
4.28786e-06
0.00504882
5.84951e-06
0.00504778
7.3411e-06
0.00504654
8.77205e-06
0.0050451
1.01494e-05
0.00504348
1.14805e-05
0.00504167
1.27791e-05
0.00503968
1.40726e-05
0.0050375
1.54067e-05
0.00503512
1.68411e-05
0.00503252
1.84378e-05
0.00502967
2.02429e-05
0.00502654
2.22701e-05
0.0050231
2.44915e-05
0.00501934
2.68387e-05
0.00501524
2.92144e-05
0.00501083
3.15099e-05
0.00500611
3.36241e-05
0.00500113
3.54792e-05
0.00499593
3.70293e-05
0.00499055
3.82633e-05
0.00498502
3.92006e-05
0.0049794
3.98839e-05
0.0049737
4.03696e-05
0.00496795
4.07196e-05
0.00496215
4.09932e-05
0.00495632
4.12429e-05
0.00495045
4.15109e-05
0.00494454
4.18287e-05
0.00493857
4.22176e-05
0.00493255
4.26899e-05
0.00492645
4.32508e-05
0.00492026
4.39005e-05
0.00491397
4.46353e-05
0.00490758
4.545e-05
0.00490107
4.63379e-05
0.00489443
4.72924e-05
0.00488766
4.83073e-05
0.00488075
4.93767e-05
0.00487368
5.04957e-05
0.00486646
5.166e-05
0.00485908
5.28664e-05
0.00485154
5.41119e-05
0.00484382
5.53943e-05
0.00483593
5.6712e-05
0.00482786
5.80637e-05
0.0048196
5.94483e-05
0.00481116
6.08651e-05
0.00480252
6.23137e-05
0.0047937
6.37942e-05
0.00478467
6.53077e-05
0.00477545
6.6858e-05
0.00476605
6.84569e-05
0.00475658
5.78969e-08
2.84962e-09
0.00475599
5.91642e-07
2.84485e-09
0.00475482
1.16139e-06
2.81684e-09
0.00475305
1.76851e-06
2.78124e-09
0.00475063
2.41622e-06
2.74239e-09
0.00474752
3.108e-06
2.69999e-09
0.00474367
3.84777e-06
2.6538e-09
0.00473903
4.63987e-06
2.60367e-09
0.00473354
5.48917e-06
2.54931e-09
0.00472713
6.40111e-06
2.49061e-09
0.00471975
7.38177e-06
2.42747e-09
0.00471131
8.43797e-06
2.35957e-09
0.00470173
9.57735e-06
2.28668e-09
0.00469092
1.08085e-05
2.21044e-09
0.00467877
1.21412e-05
2.12459e-09
0.00466519
1.35863e-05
2.04466e-09
0.00465003
1.51564e-05
1.93514e-09
0.00463316
1.68655e-05
1.8125e-09
0.00461443
1.87298e-05
1.69556e-09
0.00459366
2.07679e-05
1.56053e-09
0.00457066
2.30009e-05
1.43301e-09
0.0045452
2.54534e-05
1.29949e-09
0.00451705
2.81538e-05
1.15662e-09
0.00448591
3.11351e-05
1.00369e-09
0.00445148
3.4436e-05
8.4025e-10
0.00441337
3.81017e-05
6.66083e-10
0.00437119
4.2186e-05
4.8102e-10
0.00432443
4.67523e-05
2.84904e-10
0.00427256
5.18766e-05
7.74374e-11
0.00421491
5.76504e-05
-1.41213e-10
0.00415072
6.4184e-05
-3.71214e-10
0.00407911
7.16117e-05
-6.12584e-10
0.00399902
8.00972e-05
-8.65504e-10
0.00390918
8.98411e-05
-1.12997e-09
0.00380809
0.000101088
-1.40601e-09
0.00369396
0.000114135
-1.69397e-09
0.00356462
0.000129335
-1.99433e-09
0.00341752
0.0001471
-2.30764e-09
0.00324965
0.00016788
-2.63417e-09
0.00305753
0.00019212
-2.97384e-09
0.00283736
0.00022017
-3.32597e-09
0.00258526
0.000252111
-3.68733e-09
0.0022978
0.000287457
-4.05006e-09
0.0019731
0.000324703
-4.39699e-09
0.00161249
0.000360619
-4.6937e-09
0.00122322
0.000389277
-4.87745e-09
0.000822426
0.000400796
-4.84292e-09
0.000442663
0.000379767
-4.42805e-09
0.000139876
0.000302791
-3.40989e-09
0.000139878
-1.52426e-09
0.00475567
1.48341e-06
0.00475371
2.551e-06
0.00475119
3.68798e-06
0.00474805
4.89984e-06
0.00474428
6.19277e-06
0.00473981
7.57378e-06
0.00473461
9.0507e-06
0.00472862
1.06323e-05
0.00472178
1.23283e-05
0.00471403
1.41496e-05
0.0047053
1.61084e-05
0.00469552
1.82184e-05
0.0046846
2.04949e-05
0.00467246
2.29551e-05
0.00465898
2.56185e-05
0.00464406
2.85071e-05
0.00462757
3.16457e-05
0.00460937
3.50628e-05
0.00458931
3.87906e-05
0.00456721
4.28663e-05
0.00454288
4.73325e-05
0.0045161
5.22382e-05
0.00448661
5.76404e-05
0.00445414
6.36052e-05
0.00441837
7.02099e-05
0.00437892
7.75452e-05
0.00433539
8.57183e-05
0.00428729
9.48563e-05
0.00423405
0.000105111
0.00417504
0.000116665
0.00410948
0.000129737
0.0040365
0.000144596
0.00395503
0.000161566
0.00386383
0.000181045
0.0037614
0.000203517
0.00364597
0.000229567
0.00351541
0.000259892
0.00336722
0.000295294
0.00319845
0.000336648
0.00300575
0.000384814
0.00278548
0.000440443
0.00253395
0.00050364
0.00224803
0.000573377
0.00192615
0.000646586
0.00156997
0.000716801
0.00118702
0.000772227
0.000794564
0.000793251
0.00042481
0.00074952
0.000131664
0.000595937
0.000271542
0.00475387
5.62467e-06
0.0047492
7.22112e-06
0.00474396
8.92083e-06
0.00473813
1.07325e-05
0.00473166
1.26654e-05
0.0047245
1.47303e-05
0.00471661
1.6939e-05
0.00470794
1.93046e-05
0.00469843
2.18419e-05
0.00468801
2.45674e-05
0.00467662
2.74992e-05
0.00466418
3.06581e-05
0.00465061
3.40669e-05
0.00463581
3.77517e-05
0.00461969
4.17416e-05
0.00460212
4.60698e-05
0.004583
5.07737e-05
0.00456216
5.5896e-05
0.00453947
6.14853e-05
0.00451474
6.75975e-05
0.00448777
7.42965e-05
0.00445836
8.16563e-05
0.00442623
8.97623e-05
0.00439112
9.87139e-05
0.00435271
0.000108627
0.00431061
0.000119639
0.00426442
0.000131909
0.00421365
0.000145628
0.00415774
0.000161024
0.00409604
0.000178368
0.00402778
0.000197988
0.0039521
0.000220283
0.00386793
0.000245734
0.00377405
0.000274928
0.00366899
0.000308578
0.00355101
0.000347541
0.00341807
0.00039283
0.00326776
0.000445603
0.0030973
0.000507108
0.00290357
0.000578545
0.00268324
0.000660775
0.00243307
0.000753814
0.00215047
0.000855972
0.00183453
0.00096253
0.00148754
0.00106378
0.00111748
0.00114229
0.000741628
0.00116911
0.000391693
0.00109946
0.000119042
0.000868587
0.000390584
0.0047512
1.3795e-05
0.0047425
1.59128e-05
0.00473326
1.81673e-05
0.00472342
2.05703e-05
0.00471295
2.31347e-05
0.00470181
2.58747e-05
0.00468994
2.88063e-05
0.0046773
3.19473e-05
0.00466382
3.53172e-05
0.00464945
3.89381e-05
0.00463412
4.28345e-05
0.00461774
4.70339e-05
0.00460024
5.15671e-05
0.00458152
5.64686e-05
0.00456149
6.17777e-05
0.00454002
6.75386e-05
0.00451699
7.38014e-05
0.00449226
8.06232e-05
0.00446568
8.80692e-05
0.00443706
9.6214e-05
0.00440622
0.000105143
0.00437292
0.000114956
0.00433691
0.000125766
0.00429792
0.000137706
0.00425562
0.000150932
0.00420963
0.000165626
0.00415954
0.000182001
0.00410485
0.000200311
0.00404502
0.000220858
0.00397938
0.000244003
0.00390719
0.000270179
0.00382757
0.00029991
0.00373947
0.000333828
0.0036417
0.0003727
0.00353283
0.000417448
0.0034112
0.000469175
0.00327485
0.000529172
0.00312156
0.000598894
0.00294879
0.000679881
0.00275377
0.000773559
0.0025337
0.000880854
0.00228599
0.00100152
0.00200894
0.00113303
0.00170257
0.00126889
0.00137012
0.00139623
0.00102004
0.00149237
0.00066912
0.00152003
0.000347254
0.00142132
0.000101179
0.00111466
0.000491763
0.00474771
2.72558e-05
0.00473374
2.98829e-05
0.00471922
3.26799e-05
0.00470413
3.56616e-05
0.00468842
3.88447e-05
0.00467205
4.22471e-05
0.00465497
4.5889e-05
0.00463712
4.97925e-05
0.00461846
5.39825e-05
0.00459891
5.84864e-05
0.00457841
6.3335e-05
0.00455688
6.85625e-05
0.00453424
7.42078e-05
0.00451039
8.03142e-05
0.00448524
8.69308e-05
0.00445866
9.4113e-05
0.00443054
0.000101924
0.00440073
0.000110435
0.00436907
0.000119728
0.00433539
0.000129897
0.00429948
0.00014105
0.00426113
0.000153309
0.00422007
0.000166819
0.00417604
0.000181746
0.00412868
0.000198284
0.00407765
0.000216662
0.0040225
0.000237145
0.00396276
0.000260052
0.00389786
0.000285757
0.00382716
0.000314707
0.0037499
0.000347439
0.00366521
0.000384595
0.00357209
0.000426949
0.00346936
0.000475431
0.00335566
0.000531151
0.00322942
0.000595417
0.00308885
0.000669743
0.00293194
0.000755799
0.00275652
0.000855297
0.00256035
0.00096973
0.00234133
0.00109988
0.00209785
0.001245
0.00182939
0.00140148
0.00153736
0.00156093
0.00122615
0.00170744
0.000904699
0.00181382
0.00058848
0.00183625
0.000302581
0.00170722
8.35765e-05
0.00133367
0.000575339
0.00474345
4.71981e-05
0.00472302
5.03158e-05
0.00470206
5.36371e-05
0.00468055
5.718e-05
0.00465843
6.09644e-05
0.00463566
6.50121e-05
0.0046122
6.93474e-05
0.004588
7.39968e-05
0.00456299
7.89899e-05
0.00453712
8.43599e-05
0.00451031
9.01436e-05
0.00448249
9.63824e-05
0.00445357
0.000103123
0.00442347
0.000110417
0.00439208
0.000118325
0.00435928
0.000126912
0.00432495
0.000136255
0.00428894
0.00014644
0.00425111
0.000157566
0.00421126
0.000169745
0.0041692
0.000183108
0.00412471
0.000197804
0.00407752
0.000214005
0.00402735
0.000231912
0.00397388
0.000251758
0.00391672
0.000273818
0.00385546
0.000298412
0.00378959
0.000325918
0.00371856
0.000356786
0.00364172
0.000391546
0.00355833
0.000430832
0.00346752
0.000475402
0.00336832
0.000526156
0.00325958
0.000584166
0.00314004
0.000650696
0.00300824
0.00072721
0.00286263
0.000815356
0.00270153
0.000916898
0.00252329
0.00103354
0.00232642
0.00116659
0.00210992
0.00131638
0.00187364
0.00148128
0.00161889
0.00165623
0.00134914
0.00183069
0.00107061
0.00198597
0.000792961
0.00209147
0.000529398
0.00209981
0.000295239
0.00194138
0.000101757
0.00152715
0.000677097
0.00473853
7.47191e-05
0.00471054
7.82995e-05
0.00468206
8.21207e-05
0.00465304
8.62014e-05
0.00462344
9.05644e-05
0.00459322
9.52349e-05
0.00456232
0.000100241
0.00453071
0.000105613
0.00449831
0.000111385
0.00446507
0.000117597
0.00443093
0.000124291
0.00439579
0.000131515
0.00435959
0.000139325
0.00432223
0.00014778
0.0042836
0.000156951
0.0042436
0.000166915
0.00420209
0.000177761
0.00415894
0.000189591
0.00411399
0.000202521
0.00406705
0.000216682
0.00401793
0.000232226
0.00396641
0.000249329
0.00391222
0.000268192
0.00385508
0.00028905
0.00379466
0.000312178
0.00373059
0.000337893
0.00366243
0.000366571
0.0035897
0.000398652
0.00351183
0.000434655
0.00342818
0.000475195
0.00333801
0.000521001
0.00324047
0.000572936
0.00313461
0.000632017
0.00301934
0.000699439
0.00289345
0.000776585
0.00275564
0.000865019
0.00260456
0.00096644
0.0024389
0.00108256
0.00225757
0.00121486
0.00206
0.00136417
0.00184646
0.00152992
0.0016187
0.00170905
0.0013805
0.00189443
0.00113838
0.0020728
0.000902065
0.00222229
0.000683974
0.00230956
0.000496794
0.00228699
0.000344744
0.00209343
0.000208716
0.00166318
0.000885813
-2.60994e-05
2.60998e-05
-3.24536e-10
-7.63254e-05
5.02273e-05
-1.32741e-09
-0.000133535
5.72125e-05
-2.60218e-09
-0.000187745
5.42136e-05
-4.04624e-09
-0.000233464
4.5725e-05
-5.57329e-09
-0.000267908
3.44504e-05
-7.12327e-09
-0.000289877
2.19782e-05
-8.65668e-09
-0.000299046
9.17854e-06
-1.00865e-08
-0.000295618
-3.41646e-06
-1.11142e-08
-0.000280448
-1.51574e-05
-1.23577e-08
-0.000253985
-2.64497e-05
-1.3289e-08
-0.000216883
-3.70888e-05
-1.3862e-08
-0.000169862
-4.70062e-05
-1.40154e-08
-0.000113618
-5.62304e-05
-1.36461e-08
-4.88283e-05
-6.47773e-05
-1.26332e-08
2.38727e-05
-7.26902e-05
-1.08413e-08
0.000103812
-7.99315e-05
-8.10826e-09
0.000190372
-8.6555e-05
-4.31463e-09
0.000282945
-9.2574e-05
6.06032e-10
0.00038094
-9.80018e-05
6.71408e-09
0.000483779
-0.000102852
1.34199e-08
0.000590894
-0.000107136
2.06783e-08
0.000701726
-0.00011086
2.73962e-08
0.000815724
-0.00011403
3.29886e-08
0.000932347
-0.000116661
3.75457e-08
0.00105108
-0.000118771
4.02559e-08
0.00117142
-0.00012038
4.15045e-08
0.00129288
-0.000121507
4.14502e-08
0.00141501
-0.00012217
4.04128e-08
0.00153736
-0.00012239
3.8703e-08
0.00165952
-0.000122189
3.65833e-08
0.00178107
-0.000121586
3.42475e-08
0.00190164
-0.000120606
3.18308e-08
0.00202088
-0.000119271
2.94135e-08
0.00213846
-0.000117606
2.70369e-08
0.00225407
-0.000115634
2.47171e-08
0.00236743
-0.000113381
2.24507e-08
0.00247828
-0.000110873
2.02253e-08
0.0025864
-0.000108134
1.80265e-08
0.00269157
-0.00010519
1.58399e-08
0.00279363
-0.000102067
1.3657e-08
0.0028924
-9.87891e-05
1.14747e-08
0.00298778
-9.53809e-05
9.29438e-09
0.00307964
-9.18666e-05
7.12547e-09
0.0031679
-8.82695e-05
4.98234e-09
0.00325251
-8.46119e-05
2.88359e-09
0.00333342
-8.0915e-05
8.52928e-10
0.00341062
-7.7198e-05
-1.08363e-09
0.0034841
-7.34774e-05
-2.90244e-09
-6.97655e-05
0.00355387
-4.58872e-09
-2.29392e-05
4.9039e-05
-6.71667e-05
9.44549e-05
-0.000117323
0.000107369
-0.000164691
0.000101581
-0.000204322
8.53563e-05
-0.000233671
6.37993e-05
-0.000251591
3.98985e-05
-0.000257669
1.52561e-05
-0.000252189
-8.89628e-06
-0.000235664
-3.16825e-05
-0.000208509
-5.3605e-05
-0.000171267
-7.43308e-05
-0.000124576
-9.36965e-05
-6.90429e-05
-0.000111764
-5.24642e-06
-0.000128574
6.61406e-05
-0.000144077
0.000144593
-0.000158384
0.000229523
-0.000171485
0.000320358
-0.000183409
0.000416541
-0.000194184
0.000517521
-0.000203833
0.000622761
-0.000212375
0.000731722
-0.000219821
0.000843875
-0.000226183
0.000958698
-0.000231484
0.00107569
-0.000235758
0.00119435
-0.000239043
0.00131422
-0.000241375
0.00143484
-0.000242791
0.00155578
-0.000243328
0.00167661
-0.000243027
0.00179696
-0.000241929
0.00191643
-0.000240077
0.00203468
-0.000237518
0.00215137
-0.000234298
0.0022662
-0.000230467
0.00237889
-0.000226072
0.00248918
-0.000221163
0.00259684
-0.000215792
0.00270166
-0.000210009
0.00280345
-0.000203863
0.00290207
-0.000197404
0.00299737
-0.000190681
0.00308925
-0.000183743
0.00317761
-0.000176635
0.0032624
-0.000169401
0.00334357
-0.000162085
0.0034211
-0.000154724
0.00349497
-0.000147352
-0.00013999
0.00356519
-1.73922e-05
6.64311e-05
-4.95572e-05
0.00012662
-8.61424e-05
0.000143954
-0.000120401
0.00013584
-0.000148407
0.000113362
-0.000168089
8.34815e-05
-0.000178384
5.01932e-05
-0.000178653
1.55252e-05
-0.00016933
-1.82187e-05
-0.000150344
-5.06683e-05
-0.000122047
-8.19023e-05
-8.45888e-05
-0.000111789
-3.86175e-05
-0.000139668
1.54576e-05
-0.000165839
7.71566e-05
-0.000190273
0.000146056
-0.000212976
0.000221637
-0.000233965
0.000303415
-0.000253263
0.000390897
-0.000270891
0.000483591
-0.000286879
0.000581007
-0.000301249
0.000682654
-0.000314022
0.000788042
-0.000325209
0.000896678
-0.000334819
0.00100807
-0.000342878
0.00112175
-0.000349432
0.00123723
-0.000354531
0.00135408
-0.000358227
0.00147186
-0.000360568
0.00159014
-0.000361608
0.00170852
-0.000361403
0.0018266
-0.000360011
0.00194402
-0.000357496
0.00206042
-0.000353923
0.00217549
-0.000349361
0.0022889
-0.000343879
0.00240038
-0.00033755
0.00250966
-0.000330447
0.00261651
-0.000322644
0.00272072
-0.000314217
0.00282209
-0.000305238
0.00292047
-0.000295781
0.00301571
-0.000285921
0.00310769
-0.000275726
0.00319633
-0.000265268
0.00328154
-0.000254612
0.00336328
-0.000243822
0.00344151
-0.000232954
0.00351621
-0.000222057
-0.000211162
0.00358738
-7.68637e-06
7.41175e-05
-2.38248e-05
0.000142758
-4.16664e-05
0.000161796
-5.7703e-05
0.000151877
-6.9701e-05
0.00012536
-7.62159e-05
8.99964e-05
-7.62869e-05
5.02642e-05
-6.87651e-05
8.00333e-06
-5.44108e-05
-3.2573e-05
-3.22583e-05
-7.28207e-05
-2.3157e-06
-0.000111845
3.47738e-05
-0.000148879
7.93815e-05
-0.000184275
0.000131194
-0.000217652
0.000189893
-0.000248971
0.000255144
-0.000278228
0.000326601
-0.000305422
0.000403894
-0.000330555
0.000486635
-0.000353633
0.000574424
-0.000374667
0.000666848
-0.000393673
0.000763486
-0.00041066
0.000863908
-0.000425631
0.000967676
-0.000438587
0.00107434
-0.000449544
0.00118346
-0.000458551
0.0012946
-0.000465671
0.00140734
-0.000470963
0.00152125
-0.000474484
0.00163594
-0.000476297
0.00175101
-0.00047647
0.00186607
-0.000475076
0.00198077
-0.000472195
0.00209476
-0.000467908
0.0022077
-0.000462303
0.00231929
-0.000455471
0.00242924
-0.000447503
0.00253729
-0.000438496
0.00264319
-0.000428545
0.00274672
-0.000417748
0.00284769
-0.000406203
0.00294592
-0.000394007
0.00304125
-0.000381255
0.00313357
-0.000368042
0.00322276
-0.000354459
0.00330874
-0.000340595
0.00339145
-0.000326534
0.00347085
-0.000312351
0.0035469
-0.000298111
-0.000283847
0.00361959
5.26851e-06
6.8849e-05
9.81773e-06
0.000138209
1.51088e-05
0.000156505
2.06143e-05
0.000146371
2.71429e-05
0.000118831
3.56822e-05
8.14572e-05
4.73109e-05
3.86354e-05
6.27066e-05
-7.3923e-06
8.25563e-05
-5.24227e-05
0.000107752
-9.80166e-05
0.000138532
-0.000142624
0.000175355
-0.000185702
0.00021813
-0.00022705
0.00026692
-0.000266442
0.000321683
-0.000303734
0.000382298
-0.000338843
0.000448584
-0.000371708
0.000520316
-0.000402287
0.000597231
-0.000430548
0.000679033
-0.00045647
0.000765403
-0.000480043
0.000856001
-0.000501258
0.000950471
-0.000520101
0.00104843
-0.000536549
0.00114949
-0.000550601
0.00125324
-0.000562301
0.00135929
-0.000571716
0.00146723
-0.000578907
0.00157668
-0.000583935
0.00168725
-0.000586866
0.00179855
-0.000587775
0.00191023
-0.000586747
0.0020219
-0.000583871
0.00213324
-0.000579245
0.00224391
-0.000572971
0.00235359
-0.000565157
0.002462
-0.000555915
0.00256887
-0.00054536
0.00267393
-0.000533609
0.00277697
-0.000520782
0.00287776
-0.000506997
0.00297613
-0.000492374
0.00307191
-0.000477033
0.00316495
-0.000461088
0.00325515
-0.000444655
0.0033424
-0.000427844
0.00342662
-0.000410758
0.00350776
-0.000393494
0.00358578
-0.00037613
-0.000358705
0.00366064
1.88817e-05
4.99672e-05
4.77378e-05
0.000109353
7.85461e-05
0.000125696
0.000107874
0.000117043
0.000134503
9.2202e-05
0.000159028
5.69326e-05
0.000182876
1.47875e-05
0.000205751
-3.02678e-05
0.000230827
-7.74984e-05
0.000258568
-0.000125758
0.000289817
-0.000173874
0.000325231
-0.000221117
0.000365232
-0.000267051
0.00041012
-0.00031133
0.000460084
-0.000353699
0.00051521
-0.000393968
0.000575496
-0.000431994
0.000640871
-0.000467662
0.000711202
-0.000500879
0.000786309
-0.000531577
0.00086597
-0.000559704
0.00094993
-0.000585218
0.00103791
-0.000608077
0.00112959
-0.000628228
0.00122462
-0.000645639
0.00132266
-0.000660339
0.00142334
-0.00067239
0.00152628
-0.000681851
0.00163112
-0.000688777
0.00173749
-0.000693235
0.00184502
-0.000695301
0.00195334
-0.000695065
0.00206209
-0.000692626
0.00217094
-0.000688091
0.00227954
-0.000681575
0.00238759
-0.000673202
0.00249477
-0.000663099
0.00260081
-0.0006514
0.00270544
-0.000638241
0.00280842
-0.000623761
0.00290952
-0.000608101
0.00300855
-0.000591403
0.00310533
-0.000573806
0.00319969
-0.00055545
0.00329151
-0.000536472
0.00338066
-0.000517002
0.00346707
-0.000497166
0.00355066
-0.00047708
0.00363137
-0.00045684
-0.000436494
0.00370916
3.45222e-05
1.5445e-05
9.21388e-05
5.17366e-05
0.000149809
6.80263e-05
0.000201813
6.50385e-05
0.00024652
4.74952e-05
0.000285346
1.81062e-05
0.000318661
-1.85267e-05
0.000348368
-5.99747e-05
0.000377043
-0.000106174
0.000406052
-0.000154766
0.000436621
-0.000204442
0.000469745
-0.000254241
0.000506176
-0.000303481
0.00054648
-0.000351635
0.000591074
-0.000398292
0.000640237
-0.000443132
0.000694138
-0.000485896
0.000752852
-0.000526376
0.000816374
-0.000564401
0.000884631
-0.000599834
0.000957493
-0.000632566
0.00103479
-0.000662513
0.0011163
-0.000689592
0.00120179
-0.000713713
0.00129096
-0.000734806
0.00138348
-0.000752867
0.00147904
-0.000767947
0.00157728
-0.000780095
0.00167786
-0.000789356
0.00178042
-0.000795791
0.00188459
-0.000799474
0.00199002
-0.000800495
0.00209635
-0.000798958
0.00220324
-0.000794977
0.00231034
-0.000788677
0.00241734
-0.000780194
0.00252391
-0.00076967
0.00262976
-0.000757254
0.00273462
-0.0007431
0.00283822
-0.000727366
0.00294034
-0.000710215
0.00304074
-0.000691808
0.00313924
-0.000672307
0.00323567
-0.000651875
0.00332986
-0.000630668
0.0034217
-0.000608842
0.00351108
-0.000586543
0.00359791
-0.000563908
0.00368212
-0.000541053
0.00376368
-0.000518055
0.00362808
-7.41977e-05
-6.1886e-09
0.00370016
-7.20711e-05
-7.82787e-09
0.00377001
-6.98407e-05
-9.45801e-09
0.00383754
-6.7527e-05
-1.10425e-08
0.0039027
-6.51429e-05
-1.25259e-08
0.00396541
-6.26996e-05
-1.38572e-08
0.00402564
-6.02089e-05
-1.49903e-08
0.00408334
-5.76833e-05
-1.58887e-08
0.00413849
-5.5136e-05
-1.65266e-08
0.00419109
-5.25808e-05
-1.68871e-08
0.00424113
-5.00319e-05
-1.69622e-08
0.00428866
-4.7504e-05
-1.67546e-08
0.00433368
-4.50114e-05
-1.62761e-08
0.00437627
-4.25678e-05
-1.55444e-08
0.00441647
-4.01862e-05
-1.45846e-08
0.00445436
-3.78785e-05
-1.34283e-08
0.00449003
-3.5655e-05
-1.21101e-08
0.00452356
-3.35244e-05
-1.06654e-08
0.00455506
-3.14938e-05
-9.13126e-09
0.00458464
-2.95681e-05
-7.54332e-09
0.0046124
-2.77504e-05
-5.93271e-09
0.00463844
-2.60421e-05
-4.32755e-09
0.00466289
-2.44425e-05
-2.75252e-09
0.00468584
-2.29495e-05
-1.22613e-09
0.0047074
-2.15593e-05
2.38797e-10
0.00472766
-2.02667e-05
1.63246e-09
0.00474673
-1.90656e-05
2.94813e-09
0.00476467
-1.79485e-05
4.18257e-09
0.00478157
-1.69077e-05
5.33257e-09
0.0047975
-1.59346e-05
6.3941e-09
0.00481251
-1.50208e-05
7.36237e-09
0.00482666
-1.41583e-05
8.22938e-09
0.00483999
-1.33398e-05
8.98379e-09
0.00485254
-1.25594e-05
9.61183e-09
0.00486435
-1.18132e-05
1.01007e-08
0.00487544
-1.10992e-05
1.04355e-08
0.00488584
-1.04176e-05
1.0605e-08
0.0048956
-9.77047e-06
1.0604e-08
0.00490475
-9.16086e-06
1.04328e-08
0.00491334
-8.59226e-06
1.00981e-08
0.00492139
-8.06748e-06
9.61644e-09
0.00492897
-7.58787e-06
9.01014e-09
0.00493612
-7.15282e-06
8.30492e-09
0.00494287
-6.7598e-06
7.53851e-09
0.00494927
-6.40395e-06
6.73705e-09
0.00495534
-6.08036e-06
5.89207e-09
0.00496112
-5.78317e-06
5.06241e-09
0.00496662
-5.50674e-06
4.2532e-09
0.00497186
-5.24633e-06
3.48176e-09
0.00497686
-4.99833e-06
2.75387e-09
0.00498162
-4.76021e-06
2.07619e-09
0.00498615
-4.53041e-06
1.45366e-09
0.00499045
-4.30811e-06
8.86499e-10
0.00499455
-4.09294e-06
3.72416e-10
0.00499843
-3.88484e-06
-9.19597e-11
0.00500212
-3.68383e-06
-5.14533e-10