/*--------------------------------*- C++ -*----------------------------------*\
| =========                 |                                                 |
| \\      /  F ield         | OpenFOAM: The Open Source CFD Toolbox           |
|  \\    /   O peration     | Version:  2412                                  |
|   \\  /    A nd           | Website:  www.openfoam.com                      |
|    \\/     M anipulation  |                                                 |
\*---------------------------------------------------------------------------*/
FoamFile
{
    version     2.0;
    format      ascii;
    arch        "LSB;label=32;scalar=64";
    class       volVectorField;
    location    "27.5";
    object      U;
}
// * * * * * * * * * * * * * * * * * * * * * * * * * * * * * * * * * * * * * //

dimensions      [0 1 -1 0 0 0 0];

internalField   nonuniform List<vector> 
63420
(
(0.0999997 4.40815e-07 0)
(0.099995 1.31106e-06 0)
(0.099985 2.16868e-06 0)
(0.0999705 3.01789e-06 0)
(0.0999518 3.86345e-06 0)
(0.0999288 4.70917e-06 0)
(0.0999019 5.55789e-06 0)
(0.0998711 6.41295e-06 0)
(0.0998366 7.28182e-06 0)
(0.0997984 8.18101e-06 0)
(0.0997565 9.1394e-06 0)
(0.0997107 1.01969e-05 0)
(0.0996606 1.13975e-05 0)
(0.0996057 1.27777e-05 0)
(0.0995451 1.43547e-05 0)
(0.0994785 1.61183e-05 0)
(0.0994052 1.80294e-05 0)
(0.099325 2.00256e-05 0)
(0.099238 2.20317e-05 0)
(0.0991447 2.3973e-05 0)
(0.0990457 2.57867e-05 0)
(0.0989418 2.74304e-05 0)
(0.0988341 2.88853e-05 0)
(0.0987233 3.0156e-05 0)
(0.0986104 3.12661e-05 0)
(0.0984959 3.22525e-05 0)
(0.0983804 3.31592e-05 0)
(0.098264 3.40313e-05 0)
(0.098147 3.49112e-05 0)
(0.0980292 3.58356e-05 0)
(0.0979107 3.68338e-05 0)
(0.0977911 3.7928e-05 0)
(0.0976703 3.91335e-05 0)
(0.0975479 4.04601e-05 0)
(0.0974237 4.19129e-05 0)
(0.0972975 4.34941e-05 0)
(0.097169 4.52039e-05 0)
(0.0970379 4.70412e-05 0)
(0.0969042 4.90047e-05 0)
(0.0967675 5.10932e-05 0)
(0.0966278 5.33059e-05 0)
(0.0964848 5.56425e-05 0)
(0.0963384 5.81038e-05 0)
(0.0961886 6.0691e-05 0)
(0.0960352 6.34062e-05 0)
(0.095878 6.6252e-05 0)
(0.095717 6.92318e-05 0)
(0.095552 7.23496e-05 0)
(0.095383 7.56099e-05 0)
(0.0952099 7.90179e-05 0)
(0.0950325 8.25798e-05 0)
(0.0948508 8.63037e-05 0)
(0.0946646 9.02036e-05 0)
(0.0944738 9.431e-05 0)
(0.0942782 9.86997e-05 0)
(0.0999997 1.32244e-06 0)
(0.099995 3.9331e-06 0)
(0.099985 6.50589e-06 0)
(0.0999706 9.05332e-06 0)
(0.0999518 1.15896e-05 0)
(0.0999289 1.41264e-05 0)
(0.099902 1.6672e-05 0)
(0.0998712 1.92367e-05 0)
(0.0998367 2.18428e-05 0)
(0.0997986 2.45396e-05 0)
(0.0997567 2.74134e-05 0)
(0.099711 3.05837e-05 0)
(0.0996609 3.41817e-05 0)
(0.099606 3.83168e-05 0)
(0.0995455 4.30406e-05 0)
(0.099479 4.8323e-05 0)
(0.0994058 5.40475e-05 0)
(0.0993257 6.00277e-05 0)
(0.0992389 6.60395e-05 0)
(0.0991457 7.18594e-05 0)
(0.0990468 7.72999e-05 0)
(0.0989431 8.22337e-05 0)
(0.0988355 8.66048e-05 0)
(0.0987249 9.04261e-05 0)
(0.0986121 9.37678e-05 0)
(0.0984977 9.67397e-05 0)
(0.0983822 9.94728e-05 0)
(0.098266 0.000102102 0)
(0.098149 0.000104754 0)
(0.0980314 0.000107537 0)
(0.0979129 0.000110541 0)
(0.0977934 0.00011383 0)
(0.0976727 0.000117452 0)
(0.0975504 0.000121435 0)
(0.0974264 0.000125794 0)
(0.0973003 0.000130538 0)
(0.0971719 0.000135665 0)
(0.097041 0.000141174 0)
(0.0969074 0.000147061 0)
(0.096771 0.000153321 0)
(0.0966314 0.000159953 0)
(0.0964887 0.000166956 0)
(0.0963426 0.000174332 0)
(0.096193 0.000182085 0)
(0.0960398 0.000190221 0)
(0.095883 0.000198748 0)
(0.0957223 0.000207676 0)
(0.0955577 0.000217017 0)
(0.095389 0.000226784 0)
(0.0952163 0.000236994 0)
(0.0950393 0.000247663 0)
(0.094858 0.000258817 0)
(0.0946723 0.000270497 0)
(0.094482 0.000282792 0)
(0.0942869 0.000295932 0)
(0.0999997 2.20319e-06 0)
(0.099995 6.55234e-06 0)
(0.099985 1.08386e-05 0)
(0.0999706 1.50824e-05 0)
(0.0999519 1.93076e-05 0)
(0.099929 2.35334e-05 0)
(0.0999021 2.77741e-05 0)
(0.0998714 3.20464e-05 0)
(0.099837 3.63875e-05 0)
(0.0997989 4.08793e-05 0)
(0.0997571 4.5665e-05 0)
(0.0997114 5.09429e-05 0)
(0.0996614 5.69314e-05 0)
(0.0996066 6.38121e-05 0)
(0.0995463 7.16715e-05 0)
(0.0994799 8.04604e-05 0)
(0.0994069 8.99858e-05 0)
(0.0993271 9.99388e-05 0)
(0.0992405 0.000109947 0)
(0.0991476 0.00011964 0)
(0.0990491 0.000128704 0)
(0.0989456 0.000136929 0)
(0.0988383 0.000144219 0)
(0.0987279 0.000150596 0)
(0.0986154 0.000156175 0)
(0.0985012 0.000161138 0)
(0.098386 0.000165702 0)
(0.0982699 0.000170092 0)
(0.0981531 0.000174516 0)
(0.0980357 0.000179157 0)
(0.0979174 0.000184161 0)
(0.0977981 0.000189639 0)
(0.0976775 0.000195668 0)
(0.0975555 0.000202295 0)
(0.0974317 0.000209548 0)
(0.0973059 0.000217438 0)
(0.0971778 0.000225967 0)
(0.0970472 0.000235129 0)
(0.096914 0.000244918 0)
(0.0967779 0.000255329 0)
(0.0966388 0.000266357 0)
(0.0964964 0.000278002 0)
(0.0963508 0.000290267 0)
(0.0962018 0.000303158 0)
(0.0960491 0.000316685 0)
(0.0958929 0.000330862 0)
(0.0957328 0.000345704 0)
(0.0955689 0.000361232 0)
(0.0954009 0.000377467 0)
(0.095229 0.000394435 0)
(0.0950528 0.000412165 0)
(0.0948724 0.000430697 0)
(0.0946876 0.000450097 0)
(0.0944983 0.000470507 0)
(0.0943043 0.000492293 0)
(0.0999997 3.08248e-06 0)
(0.099995 9.16688e-06 0)
(0.0999851 1.51636e-05 0)
(0.0999707 2.11007e-05 0)
(0.099952 2.70118e-05 0)
(0.0999291 3.29236e-05 0)
(0.0999023 3.88561e-05 0)
(0.0998717 4.48327e-05 0)
(0.0998373 5.09052e-05 0)
(0.0997993 5.71876e-05 0)
(0.0997576 6.38793e-05 0)
(0.099712 7.12565e-05 0)
(0.0996622 7.96237e-05 0)
(0.0996076 8.92349e-05 0)
(0.0995475 0.000100212 0)
(0.0994814 0.000112487 0)
(0.0994087 0.000125793 0)
(0.0993292 0.0001397 0)
(0.099243 0.00015369 0)
(0.0991505 0.000167245 0)
(0.0990524 0.000179929 0)
(0.0989494 0.000191444 0)
(0.0988425 0.000201659 0)
(0.0987325 0.0002106 0)
(0.0986203 0.000218425 0)
(0.0985064 0.000225389 0)
(0.0983915 0.000231792 0)
(0.0982757 0.000237946 0)
(0.0981592 0.000244144 0)
(0.098042 0.000250639 0)
(0.097924 0.000257637 0)
(0.097805 0.000265292 0)
(0.0976848 0.000273712 0)
(0.0975631 0.000282965 0)
(0.0974396 0.000293089 0)
(0.0973142 0.000304101 0)
(0.0971865 0.000316002 0)
(0.0970565 0.000328786 0)
(0.0969238 0.000342445 0)
(0.0967882 0.000356971 0)
(0.0966497 0.000372357 0)
(0.0965081 0.000388604 0)
(0.0963632 0.000405715 0)
(0.0962149 0.000423698 0)
(0.0960631 0.000442567 0)
(0.0959077 0.000462341 0)
(0.0957486 0.000483042 0)
(0.0955856 0.000504696 0)
(0.0954188 0.000527333 0)
(0.0952479 0.000550988 0)
(0.095073 0.000575701 0)
(0.0948938 0.000601525 0)
(0.0947104 0.000628546 0)
(0.0945226 0.000656947 0)
(0.0943302 0.000687194 0)
(0.0999997 3.95979e-06 0)
(0.099995 1.17748e-05 0)
(0.0999851 1.94781e-05 0)
(0.0999707 2.71042e-05 0)
(0.0999521 3.46968e-05 0)
(0.0999293 4.22901e-05 0)
(0.0999026 4.991e-05 0)
(0.099872 5.75864e-05 0)
(0.0998378 6.53853e-05 0)
(0.0997999 7.34521e-05 0)
(0.0997583 8.20416e-05 0)
(0.0997129 9.15066e-05 0)
(0.0996633 0.000102237 0)
(0.0996089 0.000114558 0)
(0.0995491 0.000128627 0)
(0.0994833 0.000144361 0)
(0.099411 0.000161419 0)
(0.099332 0.000179255 0)
(0.0992463 0.000197205 0)
(0.0991544 0.000214609 0)
(0.0990568 0.000230906 0)
(0.0989543 0.000245713 0)
(0.0988479 0.000258858 0)
(0.0987384 0.000270373 0)
(0.0986267 0.000280458 0)
(0.0985133 0.000289434 0)
(0.0983987 0.000297684 0)
(0.0982833 0.000305609 0)
(0.0981672 0.000313581 0)
(0.0980504 0.000321927 0)
(0.0979328 0.000330908 0)
(0.0978141 0.000340724 0)
(0.0976943 0.000351513 0)
(0.0975731 0.000363365 0)
(0.0974501 0.00037633 0)
(0.0973252 0.000390428 0)
(0.0971982 0.000405662 0)
(0.0970687 0.000422027 0)
(0.0969367 0.000439509 0)
(0.0968019 0.000458101 0)
(0.0966642 0.000477793 0)
(0.0965235 0.000498586 0)
(0.0963795 0.000520483 0)
(0.0962323 0.000543495 0)
(0.0960816 0.000567638 0)
(0.0959273 0.000592937 0)
(0.0957695 0.000619418 0)
(0.0956078 0.000647114 0)
(0.0954424 0.000676063 0)
(0.0952731 0.000706306 0)
(0.0950997 0.000737895 0)
(0.0949223 0.000770892 0)
(0.0947407 0.000805398 0)
(0.0945549 0.000841619 0)
(0.0943646 0.000880079 0)
(0.0999997 4.83474e-06 0)
(0.099995 1.43743e-05 0)
(0.0999852 2.37791e-05 0)
(0.0999709 3.30888e-05 0)
(0.0999523 4.23572e-05 0)
(0.0999296 5.16265e-05 0)
(0.0999029 6.0928e-05 0)
(0.0998725 7.02982e-05 0)
(0.0998384 7.98171e-05 0)
(0.0998006 8.96607e-05 0)
(0.0997592 0.000100138 0)
(0.099714 0.000111676 0)
(0.0996646 0.000124749 0)
(0.0996105 0.000139754 0)
(0.099551 0.000156884 0)
(0.0994856 0.000176042 0)
(0.0994139 0.000196818 0)
(0.0993354 0.000218551 0)
(0.0992504 0.000240436 0)
(0.0991591 0.00026167 0)
(0.0990621 0.000281571 0)
(0.0989604 0.00029967 0)
(0.0988546 0.000315753 0)
(0.0987457 0.000329853 0)
(0.0986346 0.000342212 0)
(0.0985217 0.000353214 0)
(0.0984077 0.000363325 0)
(0.0982928 0.000373026 0)
(0.0981771 0.000382774 0)
(0.0980607 0.000392962 0)
(0.0979436 0.000403913 0)
(0.0978254 0.000415869 0)
(0.0977061 0.000429001 0)
(0.0975854 0.000443419 0)
(0.0974631 0.000459183 0)
(0.0973389 0.000476323 0)
(0.0972126 0.000494841 0)
(0.0970839 0.000514732 0)
(0.0969528 0.00053598 0)
(0.096819 0.000558575 0)
(0.0966823 0.000582507 0)
(0.0965426 0.000607774 0)
(0.0963999 0.000634381 0)
(0.0962539 0.000662341 0)
(0.0961045 0.000691673 0)
(0.0959517 0.000722404 0)
(0.0957954 0.000754566 0)
(0.0956355 0.000788199 0)
(0.0954718 0.000823344 0)
(0.0953043 0.000860053 0)
(0.0951329 0.000898382 0)
(0.0949576 0.000938402 0)
(0.0947783 0.000980219 0)
(0.0945949 0.00102404 0)
(0.0944072 0.0010704 0)
(0.0999997 5.70662e-06 0)
(0.099995 1.6964e-05 0)
(0.0999852 2.80637e-05 0)
(0.099971 3.90503e-05 0)
(0.0999525 4.99879e-05 0)
(0.0999299 6.09263e-05 0)
(0.0999033 7.19024e-05 0)
(0.099873 8.29592e-05 0)
(0.0998391 9.41902e-05 0)
(0.0998015 0.000105801 0)
(0.0997603 0.000118153 0)
(0.0997153 0.000131748 0)
(0.0996661 0.00014714 0)
(0.0996124 0.000164799 0)
(0.0995533 0.000184954 0)
(0.0994884 0.000207495 0)
(0.0994172 0.000231948 0)
(0.0993394 0.000257539 0)
(0.0992551 0.000283328 0)
(0.0991646 0.000308371 0)
(0.0990684 0.000331864 0)
(0.0989674 0.000353254 0)
(0.0988624 0.000372282 0)
(0.0987543 0.000388982 0)
(0.0986438 0.00040363 0)
(0.0985316 0.000416674 0)
(0.0984182 0.000428656 0)
(0.0983038 0.000440142 0)
(0.0981887 0.000451663 0)
(0.0980729 0.000463687 0)
(0.0979563 0.00047659 0)
(0.0978388 0.000490661 0)
(0.0977201 0.000506102 0)
(0.0976001 0.000523043 0)
(0.0974785 0.000541561 0)
(0.0973551 0.000561688 0)
(0.0972297 0.000583431 0)
(0.097102 0.000606782 0)
(0.0969719 0.000631727 0)
(0.0968392 0.000658249 0)
(0.0967038 0.000686341 0)
(0.0965655 0.000715997 0)
(0.0964241 0.000747224 0)
(0.0962796 0.000780035 0)
(0.0961319 0.000814452 0)
(0.0959808 0.000850504 0)
(0.0958263 0.000888229 0)
(0.0956683 0.000927671 0)
(0.0955067 0.000968877 0)
(0.0953415 0.0010119 0)
(0.0951725 0.00105681 0)
(0.0949996 0.00110368 0)
(0.094823 0.0011526 0)
(0.0946424 0.00120376 0)
(0.0944579 0.0012576 0)
(0.0940767 0.000103599 -4.43209e-24)
(0.0938672 0.000108786 -4.52012e-24)
(0.0936478 0.000114315 -3.17458e-26)
(0.0934178 0.000120211 1.3895e-23)
(0.0931766 0.000126506 -4.60233e-24)
(0.0929233 0.000133235 -4.73919e-24)
(0.0926571 0.000140437 -1.45996e-23)
(0.0923773 0.000148154 1.44951e-23)
(0.0920826 0.000156436 4.96211e-24)
(0.0917723 0.000165336 0)
(0.0914449 0.000174914 5.12927e-24)
(0.0910994 0.000185238 -5.21914e-24)
(0.0907342 0.000196383 4.29508e-23)
(0.0903479 0.000208436 -9.20639e-23)
(0.0899386 0.000221493 4.92164e-23)
(0.0895046 0.000235662 3.99034e-23)
(0.0890437 0.000251068 5.12039e-23)
(0.0885536 0.000267851 -5.86579e-24)
(0.0880317 0.00028617 5.99502e-24)
(0.087475 0.000306211 -6.13161e-24)
(0.0868804 0.000328184 0)
(0.0862442 0.000352333 6.42917e-24)
(0.0855622 0.00037894 -6.59142e-24)
(0.0848298 0.000408334 0)
(0.0840417 0.000440899 -6.94657e-24)
(0.0831919 0.000477085 0)
(0.0822735 0.000517426 -7.34839e-24)
(0.0812787 0.000562555 -1.23146e-22)
(0.0801982 0.000613227 1.30763e-22)
(0.0790215 0.000670351 -1.31246e-22)
(0.0777362 0.000735027 1.31046e-22)
(0.0763279 0.000808592 0)
(0.0747796 0.000892677 0)
(0.0730709 0.00098928 1.60493e-22)
(0.0711779 0.00110084 -1.51006e-22)
(0.0690716 0.00123032 0)
(0.0667176 0.00138124 0)
(0.0640746 0.0015577 0)
(0.061094 0.00176419 0)
(0.0577187 0.00200515 0)
(0.0538846 0.00228403 0)
(0.049523 0.00260159 0)
(0.0445671 0.00295294 0)
(0.0389653 0.00332295 0)
(0.0327049 0.00367937 -1.47256e-23)
(0.0258503 0.00396297 -5.04822e-22)
(0.0185846 0.00407569 5.04065e-22)
(0.0112799 0.00386797 5.47226e-22)
(0.00482521 0.00311033 -5.46405e-22)
(0.000982696 0.00144421 0)
(0.0940858 0.000310601 -4.48493e-24)
(0.0938765 0.000326127 -9.15116e-24)
(0.0936573 0.000342674 -4.80107e-24)
(0.0934276 0.000360324 4.46673e-24)
(0.0931866 0.000379171 -4.66749e-24)
(0.0929336 0.000399318 3.34634e-23)
(0.0926678 0.000420881 -5.25548e-23)
(0.0923883 0.000443989 4.88317e-24)
(0.0920942 0.000468789 6.52064e-23)
(0.0917843 0.00049544 -9.00562e-23)
(0.0914576 0.000524125 -8.79915e-23)
(0.0911127 0.000555046 7.75351e-23)
(0.0907483 0.00058843 0)
(0.0903628 0.000624534 5.41821e-24)
(0.0899545 0.000663646 -1.65628e-23)
(0.0895215 0.000706095 -1.87905e-22)
(0.0890618 0.000752249 1.80385e-22)
(0.0885731 0.000802531 -1.91754e-22)
(0.0880527 0.000857421 -1.8011e-23)
(0.0874977 0.000917471 6.14506e-24)
(0.0869051 0.000983315 0)
(0.0862711 0.00105568 -6.44582e-24)
(0.0855917 0.00113542 -2.07766e-22)
(0.0848622 0.00122351 4.34204e-22)
(0.0840775 0.00132111 2.39581e-22)
(0.0832317 0.00142956 -4.51829e-22)
(0.0823179 0.00155047 4.86621e-22)
(0.0813284 0.00168572 -4.93783e-22)
(0.0802543 0.00183757 -7.83605e-24)
(0.0790852 0.00200875 0)
(0.0778091 0.00220254 0)
(0.0764119 0.00242292 0)
(0.074877 0.00267476 0)
(0.073185 0.002964 -9.30284e-24)
(0.0713125 0.00329789 -6.30528e-22)
(0.0692321 0.0036852 -2.63786e-23)
(0.0669108 0.00413639 6.55199e-22)
(0.0643093 0.00466351 7.12783e-22)
(0.0613815 0.00527976 -7.11839e-22)
(0.0580735 0.00599806 -2.36176e-23)
(0.0543244 0.00682834 -2.46513e-23)
(0.0500685 0.00777225 -8.48899e-22)
(0.0452412 0.00881455 8.20951e-22)
(0.0397898 0.00990938 -2.79307e-23)
(0.0336937 0.01096 1.48285e-23)
(0.0269979 0.0117898 -1.0266e-21)
(0.0198498 0.0121065 1.02621e-21)
(0.0125607 0.0114661 -2.13994e-21)
(0.00589941 0.00919599 2.10415e-21)
(0.00141888 0.00423897 -2.15552e-21)
(0.094104 0.000516606 -2.65251e-23)
(0.093895 0.000542381 -9.31712e-24)
(0.0936763 0.000569848 3.59148e-23)
(0.093447 0.000599148 -7.39222e-23)
(0.0932066 0.000630435 1.58203e-22)
(0.0929542 0.000663881 -7.49546e-23)
(0.0926892 0.000699682 1.41876e-26)
(0.0924106 0.000738053 9.73898e-24)
(0.0921174 0.000779236 1.69889e-22)
(0.0918086 0.0008235 -1.59809e-22)
(0.0914831 0.000871147 0)
(0.0911396 0.000922514 1.4568e-26)
(0.0907767 0.000977982 0)
(0.090393 0.00103797 1.86132e-22)
(0.0899866 0.00110298 -1.64068e-22)
(0.0895558 0.00117353 -3.53879e-22)
(0.0890986 0.00125025 1.97397e-23)
(0.0886126 0.00133384 -3.72683e-22)
(0.0880953 0.00142511 1.20517e-23)
(0.087544 0.00152496 -3.99406e-22)
(0.0869553 0.00163446 4.11643e-22)
(0.0863259 0.00175481 -4.19597e-22)
(0.0856517 0.00188744 4.32461e-22)
(0.0849283 0.00203397 1.36134e-23)
(0.0841506 0.00219633 -1.39877e-23)
(0.0833129 0.00237674 1.43853e-23)
(0.0824085 0.00257787 -4.81888e-22)
(0.0814302 0.00280286 4.96724e-22)
(0.0803691 0.00305545 5.28506e-22)
(0.0792156 0.00334013 -5.12285e-22)
(0.0779581 0.00366235 0)
(0.0765834 0.00402865 0)
(0.0750759 0.00444706 1.79921e-23)
(0.0734176 0.0049273 1.23935e-21)
(0.071587 0.00548124 2.93e-23)
(0.0695589 0.00612314 -1.24689e-21)
(0.0673036 0.00686993 0)
(0.0647859 0.00774102 -2.17614e-23)
(0.0619646 0.00875741 1.51421e-21)
(0.0587919 0.00993939 -3.02178e-21)
(0.0552135 0.0113018 3.20103e-21)
(0.0511702 0.0128454 9.50027e-23)
(0.0466011 0.0145429 -1.66115e-21)
(0.0414509 0.0163164 -1.79513e-21)
(0.0356835 0.0180047 1.85004e-21)
(0.0293043 0.0193176 1.42316e-24)
(0.0223878 0.0197757 -3.1402e-23)
(0.0151248 0.0186501 2.06844e-21)
(0.00803057 0.0148704 -2.00295e-21)
(0.00225685 0.00679011 -2.00342e-21)
(0.0941311 0.000720905 1.74745e-23)
(0.0939227 0.000756778 -8.87061e-24)
(0.0937046 0.000794994 1.95189e-26)
(0.0934761 0.000835755 9.13313e-24)
(0.0932366 0.000879279 -1.96165e-26)
(0.0929853 0.000925811 1.51841e-22)
(0.0927214 0.000975624 -2.86968e-22)
(0.0924441 0.00102902 1.5425e-22)
(0.0921525 0.00108634 -9.87939e-24)
(0.0918454 0.00114796 1.8268e-22)
(0.0915219 0.0012143 -1.62495e-22)
(0.0911806 0.00128583 -3.37415e-22)
(0.0908201 0.00136308 6.81386e-22)
(0.0904391 0.00144665 -6.95001e-22)
(0.0900358 0.00153721 7.09269e-22)
(0.0896085 0.00163552 -7.12999e-22)
(0.0891551 0.00174245 -3.77512e-22)
(0.0886734 0.00185896 2.24639e-26)
(0.0881611 0.00198619 0)
(0.0876153 0.00212541 -3.88943e-22)
(0.087033 0.0022781 4.01151e-22)
(0.0864107 0.00244595 0)
(0.0857448 0.00263093 -8.66734e-22)
(0.0850309 0.00283533 8.52669e-22)
(0.0842641 0.00306181 1.41209e-23)
(0.083439 0.0033135 -3.69394e-26)
(0.0825494 0.00359408 1.49255e-23)
(0.0815883 0.00390792 0)
(0.0805477 0.00426023 -5.29526e-26)
(0.0794183 0.00465722 0)
(0.0781898 0.00510638 -1.69401e-23)
(0.07685 0.00561677 1.14521e-21)
(0.0753849 0.00619936 -1.1449e-21)
(0.0737786 0.00686745 -1.8932e-23)
(0.0720122 0.00763715 3.91729e-23)
(0.0700643 0.00852775 -1.34957e-21)
(0.0679098 0.00956191 1.30762e-21)
(0.0655195 0.0107654 2.21378e-23)
(0.0628597 0.0121656 -3.53369e-25)
(0.0598918 0.0137882 2.35811e-23)
(0.0565714 0.0156507 -1.61748e-21)
(0.0528485 0.0177503 3.26839e-21)
(0.0486679 0.0200447 -1.70306e-21)
(0.0439709 0.0224223 1.7585e-21)
(0.0386979 0.0246593 -1.84092e-21)
(0.0327943 0.0263596 -3.65413e-21)
(0.0262203 0.0268736 7.45464e-21)
(0.0189859 0.0252043 -3.77376e-21)
(0.0112622 0.0199209 0)
(0.00350108 0.00898826 -3.55106e-21)
(0.0941671 0.00092286 -8.66686e-24)
(0.0939594 0.000968602 -3.54206e-23)
(0.0937422 0.00101732 1.07403e-22)
(0.0935148 0.00106927 -1.45063e-22)
(0.0932766 0.00112475 6.3899e-23)
(0.0930268 0.00118407 9.37561e-24)
(0.0927647 0.00124759 -9.53549e-24)
(0.0924894 0.00131569 -2.46203e-26)
(0.0921999 0.0013888 9.8775e-24)
(0.0918953 0.00146742 -2.00965e-23)
(0.0915745 0.00155208 -3.3085e-22)
(0.0912363 0.00164337 3.41452e-22)
(0.0908793 0.00174199 -3.33706e-22)
(0.0905022 0.0018487 3.44477e-22)
(0.0901032 0.00196434 0)
(0.0896807 0.0020899 -2.47809e-26)
(0.0892328 0.00222648 0)
(0.0887574 0.00237533 -3.72701e-22)
(0.0882519 0.00253788 3.96918e-22)
(0.087714 0.00271579 -1.24784e-23)
(0.0871406 0.00291092 -8.41434e-22)
(0.0865286 0.00312545 8.29015e-22)
(0.0858743 0.00336189 -1.34892e-23)
(0.0851737 0.00362316 0)
(0.0844224 0.00391265 0)
(0.0836151 0.00423436 -9.67548e-22)
(0.0827464 0.00459297 9.38153e-22)
(0.0818096 0.00499403 0)
(0.0807976 0.00544413 -3.21937e-23)
(0.0797022 0.00595112 0)
(0.0785142 0.00652444 1.72374e-23)
(0.077223 0.00717545 -1.77609e-23)
(0.0758169 0.00791781 -1.84975e-23)
(0.0742826 0.00876804 1.90584e-23)
(0.0726049 0.00974595 1.25367e-21)
(0.0707672 0.0108751 -1.29394e-21)
(0.0687504 0.0121828 2.8106e-21)
(0.0665337 0.0136997 -2.81239e-21)
(0.0640931 0.0154578 2.98199e-21)
(0.0614019 0.0174858 8.36865e-23)
(0.0584289 0.0198007 -3.14027e-21)
(0.0551365 0.0223933 -2.50504e-23)
(0.0514776 0.0252038 1.24205e-24)
(0.0473893 0.028087 1.64017e-24)
(0.0427839 0.030761 2.15935e-24)
(0.0375311 0.032739 -5.40914e-23)
(0.0314385 0.0332325 -2.48387e-23)
(0.0242625 0.0310158 -2.36423e-23)
(0.0157253 0.0243124 0)
(0.00517432 0.0108266 7.27289e-24)
(0.0942117 0.00112184 -4.30091e-23)
(0.0940051 0.00117721 2.58716e-23)
(0.0937892 0.00123619 8.85721e-24)
(0.0935634 0.00129912 1.36029e-22)
(0.0933269 0.00136634 -1.36078e-22)
(0.0930793 0.00143824 1.40877e-22)
(0.0928195 0.00151526 -3.12761e-22)
(0.0925468 0.00159787 4.45447e-22)
(0.0922604 0.0016866 -3.12049e-22)
(0.0919592 0.00178204 -3.23917e-22)
(0.0916421 0.00188484 -1.63647e-23)
(0.0913081 0.00199574 6.58094e-22)
(0.0909558 0.00211557 -6.93411e-22)
(0.0905838 0.00224525 3.23465e-22)
(0.0901907 0.00238584 3.49292e-22)
(0.0897748 0.00253853 3.65353e-22)
(0.0893342 0.00270466 -2.83355e-23)
(0.088867 0.00288576 7.44611e-22)
(0.0883709 0.00308359 7.69342e-22)
(0.0878435 0.00330014 1.96214e-23)
(0.0872821 0.00353771 -8.15814e-22)
(0.0866837 0.00379895 0)
(0.0860451 0.00408692 0)
(0.0853624 0.00440518 -9.10119e-22)
(0.0846317 0.00475785 8.97047e-22)
(0.0838483 0.00514979 9.66569e-22)
(0.0830073 0.00558668 -9.68001e-22)
(0.0821031 0.00607522 0)
(0.0811293 0.00662336 1.08082e-21)
(0.080079 0.00724054 -1.08291e-21)
(0.0789446 0.00793803 0)
(0.0777177 0.00872929 -2.34298e-21)
(0.0763892 0.00963042 2.36469e-21)
(0.0749491 0.0106606 -1.95393e-23)
(0.0733871 0.0118427 -2.6123e-21)
(0.071692 0.0132032 2.63654e-21)
(0.0698529 0.0147725 0)
(0.0678583 0.0165832 2.95558e-21)
(0.0656971 0.0186681 -2.93734e-21)
(0.063357 0.0210536 2.37784e-23)
(0.0608234 0.0237497 3.23516e-21)
(0.0580749 0.0267327 -6.48821e-21)
(0.0550758 0.029918 2.09219e-23)
(0.0517623 0.033121 3.76547e-23)
(0.0480192 0.0360046 3.3605e-21)
(0.0436383 0.0380108 3.71812e-24)
(0.038258 0.0382612 -2.88947e-21)
(0.031311 0.0353978 2.96215e-21)
(0.0218445 0.0274553 0)
(0.00751661 0.0120205 2.66392e-23)
(0.0942648 0.00131701 8.46906e-24)
(0.0940597 0.00138146 7.8057e-23)
(0.0938458 0.0014502 -6.96114e-23)
(0.0936222 0.00152361 8.94104e-24)
(0.0933883 0.0016021 1.37505e-22)
(0.0931435 0.00168612 -1.3772e-22)
(0.092887 0.00177618 -2.95254e-22)
(0.092618 0.00187285 4.31697e-24)
(0.0923355 0.00197675 -5.59293e-24)
(0.0920388 0.00208857 3.28129e-22)
(0.0917267 0.00220909 -3.20711e-22)
(0.0913982 0.00233919 6.80646e-22)
(0.0910521 0.00247985 -3.39204e-22)
(0.090687 0.00263217 1.09695e-23)
(0.0903016 0.0027974 1.12287e-23)
(0.0898943 0.00297696 7.43054e-22)
(0.0894634 0.00317245 -5.06242e-24)
(0.0890072 0.00338569 7.75857e-22)
(0.0885234 0.00361878 1.24056e-23)
(0.08801 0.00387409 0)
(0.0874644 0.00415437 0)
(0.0868841 0.00446277 -8.7175e-22)
(0.086266 0.00480295 8.73953e-22)
(0.0856071 0.00517913 0)
(0.0849036 0.00559625 1.47096e-23)
(0.0841518 0.00606008 0)
(0.0833475 0.00657735 -1.01606e-21)
(0.082486 0.00715603 2.06865e-21)
(0.0815624 0.00780551 -1.05267e-21)
(0.0805713 0.00853689 -2.23065e-21)
(0.0795071 0.00936336 -7.45462e-23)
(0.0783638 0.0103005 -7.85262e-23)
(0.0771356 0.0113669 -8.23892e-23)
(0.0758166 0.0125843 2.50649e-21)
(0.0744014 0.0139779 2.68748e-21)
(0.0728859 0.0155764 -2.69388e-21)
(0.0712671 0.0174111 0)
(0.0695446 0.0195139 2.97652e-21)
(0.06772 0.0219124 -2.98344e-21)
(0.0657971 0.0246228 -3.16385e-21)
(0.0637787 0.0276354 3.14642e-21)
(0.0616617 0.0308946 2.56969e-23)
(0.0594248 0.0342687 3.15633e-21)
(0.0570095 0.0375102 -1.03866e-22)
(0.054286 0.0402073 -3.11754e-21)
(0.0509927 0.0417343 2.37953e-23)
(0.0466497 0.04119 0)
(0.0404486 0.0372752 -1.90294e-23)
(0.0306148 0.0282265 -9.30189e-22)
(0.0121005 0.0119526 4.12914e-22)
(-0.000199848 0.000272613 0)
(-0.000877089 0.000524194 3.16851e-22)
(-0.00189696 0.000592081 -3.17327e-22)
(-0.00294292 0.00055922 -3.16954e-22)
(-0.0038633 0.000471271 3.1743e-22)
(-0.00459667 0.00035527 -9.8068e-24)
(-0.00511283 0.000227509 0)
(-0.00539872 9.74674e-05 0)
(-0.00545351 -2.94571e-05 0)
(-0.00528695 -0.000151962 0)
(-0.00491011 -0.000268101 0)
(-0.00433175 -0.000377181 0)
(-0.00356322 -0.000478817 0)
(-0.00261663 -0.000573356 0)
(-0.00150354 -0.000661053 0)
(-0.000234843 -0.000742218 1.11374e-22)
(0.00117834 -0.000816661 -1.04734e-22)
(0.00272486 -0.000884839 0)
(0.00439425 -0.000946937 0)
(0.0061762 -0.00100311 -8.7862e-23)
(0.00806055 -0.00105349 8.79962e-23)
(0.0100373 -0.00109819 -7.10824e-23)
(0.0120965 -0.00113727 4.5938e-24)
(0.0142282 -0.00117081 0)
(0.0164227 -0.00119894 3.8801e-24)
(0.0186705 -0.00122185 0)
(0.0209622 -0.00123976 0)
(0.023289 -0.00125284 0)
(0.0256421 -0.0012613 2.5745e-24)
(0.0280131 -0.00126534 0)
(0.030394 -0.00126517 -2.00184e-24)
(0.0327771 -0.00126101 1.73841e-24)
(0.0351549 -0.00125309 -1.49088e-24)
(0.0375204 -0.00124164 1.03665e-23)
(0.039867 -0.0012269 -1.01655e-23)
(0.0421885 -0.0012091 -5.09208e-24)
(0.044479 -0.0011885 9.8277e-24)
(0.0467333 -0.00116535 -4.55052e-24)
(0.0489464 -0.00113989 -3.43199e-25)
(0.0511138 -0.00111237 2.05959e-25)
(0.0532316 -0.00108304 0)
(0.0552961 -0.00105215 -2.67424e-26)
(0.0573043 -0.00101993 8.13969e-25)
(0.0592535 -0.000986619 -8.99895e-25)
(0.0611415 -0.000952449 2.82074e-25)
(0.0629665 -0.000917637 -1.0994e-24)
(0.0647272 -0.000882391 3.56393e-25)
(0.0664224 -0.000846899 9.09763e-25)
(0.0680517 -0.000811324 -4.66821e-25)
(0.0696146 -0.000775793 5.09882e-25)
(-0.000261007 0.000784049 -1.20063e-21)
(-0.000981923 0.00150296 -1.31243e-21)
(-0.00191802 0.00169761 1.29372e-21)
(-0.00282961 0.00160195 -6.22837e-22)
(-0.00360289 0.0013463 6.23867e-22)
(-0.00419315 0.00100897 9.87486e-24)
(-0.00457881 0.000636847 -1.95981e-23)
(-0.00475036 0.000257268 -6.23904e-22)
(-0.00470921 -0.000113899 6.05491e-22)
(-0.0044639 -0.00047253 -1.82913e-23)
(-0.0040227 -0.000813151 -1.77561e-23)
(-0.00339322 -0.00113429 5.36855e-22)
(-0.00258547 -0.00143359 -5.37569e-22)
(-0.00161045 -0.00171253 -4.95386e-22)
(-0.000478292 -0.00197178 2.27359e-23)
(0.000801791 -0.00221131 4.7394e-22)
(0.00221961 -0.0024319 -6.84253e-24)
(0.00376446 -0.00263414 -1.30785e-23)
(0.00542698 -0.00281844 0)
(0.00719753 -0.00298526 0)
(0.00906658 -0.003135 0)
(0.0110247 -0.00326798 -4.97999e-24)
(0.0130623 -0.00338439 2.70655e-22)
(0.0151699 -0.00348442 -2.93606e-22)
(0.0173383 -0.0035685 2.35289e-22)
(0.0195584 -0.00363715 -1.30808e-22)
(0.021821 -0.00369097 -2.07004e-22)
(0.0241175 -0.00373051 9.82958e-23)
(0.0264396 -0.00375633 -2.58114e-24)
(0.0287791 -0.00376901 -4.66821e-24)
(0.0311282 -0.00376917 2.0062e-24)
(0.0334792 -0.00375744 -5.31231e-24)
(0.0358251 -0.00373448 4.29064e-23)
(0.0381588 -0.00370098 -8.31016e-23)
(0.040474 -0.00365762 3.62296e-23)
(0.0427646 -0.00360514 -2.60773e-24)
(0.0450248 -0.00354426 6.63095e-25)
(0.0472494 -0.00347573 0)
(0.0494336 -0.00340027 -4.93768e-24)
(0.0515729 -0.00331864 4.33841e-24)
(0.0536635 -0.00323157 3.60463e-25)
(0.0557019 -0.00313979 -5.40002e-25)
(0.0576848 -0.00304402 -1.23562e-25)
(0.0596099 -0.00294497 -1.32323e-24)
(0.0614747 -0.00284331 2.15901e-24)
(0.0632776 -0.00273969 3.44996e-25)
(0.0650171 -0.00263474 2.82814e-24)
(0.0666923 -0.00252903 5.77307e-25)
(0.0683025 -0.00242303 -8.49214e-25)
(0.0698474 -0.00231709 -1.49027e-24)
(-0.000367721 0.00119947 -1.24109e-21)
(-0.00115426 0.00227493 1.3626e-21)
(-0.00191198 0.00257398 -1.32192e-21)
(-0.00255739 0.00242452 -2.06461e-23)
(-0.00304503 0.00202579 -3.19156e-25)
(-0.00336018 0.00149922 -1.26753e-21)
(-0.003497 0.0009162 1.30909e-21)
(-0.00345138 0.000318811 1.25626e-21)
(-0.00322806 -0.000268136 -1.25487e-23)
(-0.00283389 -0.000837219 -2.3613e-21)
(-0.00227262 -0.00138 2.32753e-21)
(-0.00154783 -0.00189537 -1.11947e-21)
(-0.000666794 -0.00237596 -1.69517e-23)
(0.000360417 -0.0028257 0)
(0.00152775 -0.00324482 9.83067e-22)
(0.0028278 -0.00363322 -6.20763e-23)
(0.00425203 -0.00399223 -9.07919e-22)
(0.00579215 -0.00432213 2.6611e-23)
(0.00744004 -0.00462342 0)
(0.00918737 -0.00489674 0)
(0.0110257 -0.00514263 3.39856e-22)
(0.0129468 -0.00536151 -3.29814e-22)
(0.0149418 -0.0055536 -2.8245e-22)
(0.0170023 -0.00571922 3.00818e-22)
(0.0191196 -0.00585881 8.14294e-24)
(0.0212854 -0.0059733 -7.43527e-24)
(0.0234913 -0.00606355 6.74916e-24)
(0.025729 -0.00613044 -1.75314e-22)
(0.0279909 -0.00617484 1.81573e-22)
(0.0302691 -0.00619767 -1.33366e-22)
(0.0325563 -0.00619989 1.43038e-22)
(0.0348453 -0.00618251 3.58455e-24)
(0.0371292 -0.0061466 9.25316e-23)
(0.0394014 -0.00609325 -1.6804e-22)
(0.0416557 -0.0060236 8.02668e-23)
(0.0438864 -0.00593881 2.7724e-23)
(0.0460878 -0.00584009 -2.44857e-23)
(0.048255 -0.00572862 0)
(0.0503832 -0.00560564 -9.09476e-26)
(0.0524682 -0.00547236 0)
(0.0545062 -0.00532999 2.05847e-24)
(0.0564937 -0.00517973 -2.1478e-24)
(0.0584277 -0.00502278 -1.37959e-25)
(0.0603058 -0.00486028 -6.24476e-26)
(0.0621257 -0.00469336 -4.61147e-24)
(0.0638856 -0.00452311 9.4733e-24)
(0.0655842 -0.00435055 -5.57242e-24)
(0.0672204 -0.00417662 3.45981e-24)
(0.0687936 -0.0040021 -2.508e-24)
(0.0703034 -0.00382751 -9.37918e-25)
(-0.000492015 0.00144077 -2.66463e-21)
(-0.00131337 0.00272272 0)
(-0.00177159 0.00309646 2.77892e-21)
(-0.0020283 0.00290579 -5.5635e-21)
(-0.00210989 0.00240392 2.8057e-21)
(-0.002041 0.00173967 1.29275e-21)
(-0.00183521 0.00100013 -1.35627e-21)
(-0.00149313 0.000238432 1.27779e-21)
(-0.00102208 -0.000522177 -2.54328e-21)
(-0.000426543 -0.00126458 1.24587e-21)
(0.000294279 -0.00197728 1.87693e-23)
(0.00114542 -0.0026534 2.61076e-25)
(0.00212389 -0.00329108 1.72433e-23)
(0.00321871 -0.00389158 -1.06144e-21)
(0.00442967 -0.00445329 1.02915e-21)
(0.00575254 -0.0049765 3.05056e-23)
(0.00718165 -0.00546172 -1.4366e-23)
(0.00871112 -0.00590923 8.5344e-22)
(0.0103348 -0.00631946 -8.53478e-22)
(0.0120461 -0.00669287 -1.23156e-23)
(0.0138383 -0.00702997 0)
(0.0157045 -0.00733112 2.661e-25)
(0.0176373 -0.00759651 0)
(0.0196292 -0.00782623 9.22029e-24)
(0.0216728 -0.0080209 2.49936e-25)
(0.0237603 -0.00818142 7.50567e-24)
(0.0258846 -0.00830902 -4.27523e-22)
(0.0280381 -0.00840478 4.21089e-22)
(0.0302137 -0.00846981 0)
(0.0324045 -0.00850525 -1.49458e-22)
(0.0346034 -0.00851237 1.54215e-22)
(0.0368039 -0.00849249 0)
(0.0389995 -0.00844702 -1.79312e-25)
(0.0411841 -0.00837741 -8.57649e-23)
(0.0433518 -0.0082852 1.54565e-22)
(0.0454972 -0.00817197 -1.25268e-22)
(0.0476149 -0.00803932 1.00714e-22)
(0.0497003 -0.0078889 -7.79798e-23)
(0.0517488 -0.00772237 3.34831e-23)
(0.0537564 -0.0075414 7.51243e-24)
(0.0557194 -0.00734765 -6.82239e-24)
(0.0576346 -0.00714279 -1.63252e-25)
(0.0594989 -0.00692845 3.10019e-24)
(0.06131 -0.00670621 -9.26036e-24)
(0.0630657 -0.00647765 5.62898e-24)
(0.0647643 -0.00624426 7.21403e-26)
(0.0664044 -0.00600745 -7.14263e-25)
(0.067985 -0.00576853 -6.09926e-26)
(0.0695054 -0.00552858 8.86501e-25)
(0.070965 -0.0052882 -1.84756e-24)
(-0.000549156 0.00143766 -1.47948e-24)
(-0.00127845 0.00277345 -2.47244e-23)
(-0.00132029 0.00318167 -2.40288e-23)
(-0.00108375 0.00297375 -2.34068e-23)
(-0.000669412 0.00242336 -4.5155e-23)
(-0.000143891 0.00168575 -4.4396e-25)
(0.000463567 0.000856798 2.14249e-23)
(0.00114264 -6.83482e-06 -2.12824e-23)