/*--------------------------------*- C++ -*----------------------------------*\
| =========                 |                                                 |
| \\      /  F ield         | OpenFOAM: The Open Source CFD Toolbox           |
|  \\    /   O peration     | Version:  2412                                  |
|   \\  /    A nd           | Website:  www.openfoam.com                      |
|    \\/     M anipulation  |                                                 |
\*---------------------------------------------------------------------------*/
FoamFile
{
    version     2.0;
    format      ascii;
    arch        "LSB;label=32;scalar=64";
    class       volVectorField;
    location    "27.5";
    object      vorticity;
}
// * * * * * * * * * * * * * * * * * * * * * * * * * * * * * * * * * * * * * //

dimensions      [0 0 -1 0 0 0 0];

internalField   nonuniform List<vector> 
63420
(
(0 0 5.9566e-06)
(0 0 5.93021e-06)
(0 0 5.90531e-06)
(0 0 5.88224e-06)
(0 0 5.85943e-06)
(0 0 5.83285e-06)
(0 0 5.80296e-06)
(0 0 5.79003e-06)
(0 0 5.84897e-06)
(0 0 6.06903e-06)
(0 0 6.54881e-06)
(0 0 7.35143e-06)
(0 0 8.45853e-06)
(0 0 9.74544e-06)
(0 0 1.09919e-05)
(0 0 1.1927e-05)
(0 0 1.22929e-05)
(0 0 1.19071e-05)
(0 0 1.07029e-05)
(0 0 8.74036e-06)
(0 0 6.18854e-06)
(0 0 3.28684e-06)
(0 0 2.99127e-07)
(0 0 -2.5288e-06)
(0 0 -5.00036e-06)
(0 0 -6.98494e-06)
(0 0 -8.42078e-06)
(0 0 -9.30729e-06)
(0 0 -9.69105e-06)
(0 0 -9.64937e-06)
(0 0 -9.27471e-06)
(0 0 -8.6618e-06)
(0 0 -7.89829e-06)
(0 0 -7.0591e-06)
(0 0 -6.20384e-06)
(0 0 -5.37653e-06)
(0 0 -4.60697e-06)
(0 0 -3.9129e-06)
(0 0 -3.30254e-06)
(0 0 -2.77707e-06)
(0 0 -2.33285e-06)
(0 0 -1.96322e-06)
(0 0 -1.65991e-06)
(0 0 -1.4141e-06)
(0 0 -1.21713e-06)
(0 0 -1.06086e-06)
(0 0 -9.37944e-07)
(0 0 -8.41656e-07)
(0 0 -7.6513e-07)
(0 0 -6.98576e-07)
(0 0 -6.19991e-07)
(0 0 -4.65288e-07)
(0 0 -3.52217e-08)
(0 0 1.28583e-06)
(0 4.39782e-23 5.34669e-06)
(0 0 1.78697e-05)
(0 0 1.77904e-05)
(0 0 1.77151e-05)
(0 0 1.76451e-05)
(0 0 1.75761e-05)
(0 0 1.74961e-05)
(0 0 1.74067e-05)
(0 0 1.73682e-05)
(0 0 1.75446e-05)
(0 0 1.82025e-05)
(0 0 1.96366e-05)
(0 0 2.20361e-05)
(0 0 2.53471e-05)
(0 0 2.91983e-05)
(0 0 3.29327e-05)
(0 0 3.57413e-05)
(0 0 3.6854e-05)
(0 0 3.5724e-05)
(0 0 3.21503e-05)
(0 0 2.63104e-05)
(0 0 1.87068e-05)
(0 0 1.00528e-05)
(0 0 1.1351e-06)
(0 0 -7.31253e-06)
(0 0 -1.47029e-05)
(0 0 -2.06449e-05)
(0 0 -2.4953e-05)
(0 0 -2.7624e-05)
(0 0 -2.87955e-05)
(0 0 -2.8697e-05)
(0 0 -2.76034e-05)
(0 0 -2.57967e-05)
(0 0 -2.35381e-05)
(0 0 -2.10509e-05)
(0 0 -1.85131e-05)
(0 0 -1.6056e-05)
(0 0 -1.37688e-05)
(0 0 -1.17048e-05)
(0 0 -9.88865e-06)
(0 0 -8.32434e-06)
(0 0 -7.00122e-06)
(0 0 -5.89965e-06)
(0 0 -4.99518e-06)
(0 0 -4.26165e-06)
(0 0 -3.67328e-06)
(0 0 -3.20595e-06)
(0 0 -2.83779e-06)
(0 0 -2.54881e-06)
(0 0 -2.31871e-06)
(0 0 -2.11875e-06)
(0 0 -1.88488e-06)
(0 0 -1.43098e-06)
(0 0 -1.78136e-07)
(0 0 3.66457e-06)
(0 4.44482e-23 1.54852e-05)
(0 0 2.97705e-05)
(0 0 2.96383e-05)
(0 0 2.95127e-05)
(0 0 2.93957e-05)
(0 0 2.92805e-05)
(0 0 2.91473e-05)
(0 0 2.89986e-05)
(0 0 2.89342e-05)
(0 0 2.92262e-05)
(0 0 3.03172e-05)
(0 0 3.26978e-05)
(0 0 3.66845e-05)
(0 0 4.21915e-05)
(0 0 4.86066e-05)
(0 0 5.48423e-05)
(0 0 5.95569e-05)
(0 0 6.14706e-05)
(0 0 5.96717e-05)
(0 0 5.38202e-05)
(0 0 4.42037e-05)
(0 0 3.16495e-05)
(0 0 1.73357e-05)
(0 0 2.56507e-06)
(0 0 -1.14461e-05)
(0 0 -2.37222e-05)
(0 0 -3.36119e-05)
(0 0 -4.08035e-05)
(0 0 -4.52878e-05)
(0 0 -4.72891e-05)
(0 0 -4.71849e-05)
(0 0 -4.54284e-05)
(0 0 -4.24853e-05)
(0 0 -3.87876e-05)
(0 0 -3.47052e-05)
(0 0 -3.05328e-05)
(0 0 -2.64887e-05)
(0 0 -2.27211e-05)
(0 0 -1.93188e-05)
(0 0 -1.63238e-05)
(0 0 -1.37428e-05)
(0 0 -1.1559e-05)
(0 0 -9.74031e-06)
(0 0 -8.24659e-06)
(0 0 -7.03489e-06)
(0 0 -6.06279e-06)
(0 0 -5.29058e-06)
(0 0 -4.68221e-06)
(0 0 -4.20486e-06)
(0 0 -3.82542e-06)
(0 0 -3.49802e-06)
(0 0 -3.12232e-06)
(0 0 -2.40853e-06)
(0 0 -4.54191e-07)
(0 0 5.54192e-06)
(0 2.62243e-22 2.40408e-05)
(0 0 4.16511e-05)
(0 0 4.1466e-05)
(0 0 4.12898e-05)
(0 0 4.11258e-05)
(0 0 4.09644e-05)
(0 0 4.07783e-05)
(0 0 4.05706e-05)
(0 0 4.04799e-05)
(0 0 4.08844e-05)
(0 0 4.24009e-05)
(0 0 4.57151e-05)
(0 0 5.12732e-05)
(0 0 5.89635e-05)
(0 0 6.79418e-05)
(0 0 7.67006e-05)
(0 0 8.3374e-05)
(0 0 8.61771e-05)
(0 0 8.38316e-05)
(0 0 7.58514e-05)
(0 0 6.26223e-05)
(0 0 4.52818e-05)
(0 0 2.54591e-05)
(0 0 4.96071e-06)
(0 0 -1.45225e-05)
(0 0 -3.16305e-05)
(0 0 -4.54517e-05)
(0 0 -5.55449e-05)
(0 0 -6.18891e-05)
(0 0 -6.47886e-05)
(0 0 -6.47616e-05)
(0 0 -6.24332e-05)
(0 0 -5.84471e-05)
(0 0 -5.34016e-05)
(0 0 -4.78098e-05)
(0 0 -4.20813e-05)
(0 0 -3.65199e-05)
(0 0 -3.13327e-05)
(0 0 -2.66443e-05)
(0 0 -2.2514e-05)
(0 0 -1.89529e-05)
(0 0 -1.59383e-05)
(0 0 -1.34267e-05)
(0 0 -1.13635e-05)
(0 0 -9.68952e-06)
(0 0 -8.34652e-06)
(0 0 -7.27982e-06)
(0 0 -6.43979e-06)
(0 0 -5.78134e-06)
(0 0 -5.25968e-06)
(0 0 -4.81467e-06)
(0 0 -4.31885e-06)
(0 0 -3.40846e-06)
(0 0 -9.49452e-07)
(0 0 6.59998e-06)
(0 -1.72146e-22 3.00184e-05)
(0 0 5.35037e-05)
(0 0 5.32652e-05)
(0 0 5.30381e-05)
(0 0 5.2827e-05)
(0 0 5.26196e-05)
(0 0 5.23811e-05)
(0 0 5.21149e-05)
(0 0 5.19974e-05)
(0 0 5.25102e-05)
(0 0 5.4442e-05)
(0 0 5.86724e-05)
(0 0 6.57802e-05)
(0 0 7.56358e-05)
(0 0 8.71753e-05)
(0 0 9.84848e-05)
(0 0 0.000107186)
(0 0 0.000110996)
(0 0 0.000108267)
(0 0 9.83576e-05)
(0 0 8.17356e-05)
(0 0 5.98297e-05)
(0 0 3.47013e-05)
(0 0 8.64421e-06)
(0 0 -1.6187e-05)
(0 0 -3.80535e-05)
(0 0 -5.57831e-05)
(0 0 -6.88009e-05)
(0 0 -7.70666e-05)
(0 0 -8.09553e-05)
(0 0 -8.11162e-05)
(0 0 -7.83374e-05)
(0 0 -7.34331e-05)
(0 0 -6.71618e-05)
(0 0 -6.01755e-05)
(0 0 -5.29955e-05)
(0 0 -4.60101e-05)
(0 0 -3.94844e-05)
(0 0 -3.3579e-05)
(0 0 -2.83717e-05)
(0 0 -2.38784e-05)
(0 0 -2.00723e-05)
(0 0 -1.68997e-05)
(0 0 -1.42924e-05)
(0 0 -1.21764e-05)
(0 0 -1.04784e-05)
(0 0 -9.12979e-06)
(0 0 -8.06798e-06)
(0 0 -7.23652e-06)
(0 0 -6.58023e-06)
(0 0 -6.0283e-06)
(0 0 -5.43797e-06)
(0 0 -4.41092e-06)
(0 0 -1.70717e-06)
(0 0 6.58259e-06)
(0 8.49804e-23 3.25304e-05)
(0 0 6.5322e-05)
(0 0 6.50277e-05)
(0 0 6.47493e-05)
(0 0 6.44911e-05)
(0 0 6.4238e-05)
(0 0 6.39477e-05)
(0 0 6.36237e-05)
(0 0 6.34785e-05)
(0 0 6.40947e-05)
(0 0 6.6429e-05)
(0 0 7.15542e-05)
(0 0 8.0185e-05)
(0 0 9.21832e-05)
(0 0 0.00010628)
(0 0 0.000120174)
(0 0 0.000130987)
(0 0 0.000135944)
(0 0 0.00013303)
(0 0 0.000121433)
(0 0 0.000101686)
(0 0 7.54839e-05)
(0 0 4.52974e-05)
(0 0 1.38882e-05)
(0 0 -1.61391e-05)
(0 0 -4.26736e-05)
(0 0 -6.42828e-05)
(0 0 -8.02525e-05)
(0 0 -9.05138e-05)
(0 0 -9.55015e-05)
(0 0 -9.59844e-05)
(0 0 -9.29026e-05)
(0 0 -8.72316e-05)
(0 0 -7.98826e-05)
(0 0 -7.16409e-05)
(0 0 -6.31366e-05)
(0 0 -5.484e-05)
(0 0 -4.70738e-05)
(0 0 -4.0035e-05)
(0 0 -3.38207e-05)
(0 0 -2.8453e-05)
(0 0 -2.39025e-05)
(0 0 -2.01068e-05)
(0 0 -1.69854e-05)
(0 0 -1.4451e-05)
(0 0 -1.24165e-05)
(0 0 -1.08e-05)
(0 0 -9.52734e-06)
(0 0 -8.5314e-06)
(0 0 -7.74815e-06)
(0 0 -7.10001e-06)
(0 0 -6.44193e-06)
(0 0 -5.38697e-06)
(0 0 -2.74525e-06)
(0 0 5.27247e-06)
(0 4.19311e-22 3.07364e-05)
(0 0 7.70971e-05)
(0 0 7.67444e-05)
(0 0 7.6415e-05)
(0 0 7.611e-05)
(0 0 7.58115e-05)
(0 0 7.54701e-05)
(0 0 7.50892e-05)
(0 0 7.49155e-05)
(0 0 7.56292e-05)
(0 0 7.83516e-05)
(0 0 8.43465e-05)
(0 0 9.44688e-05)
(0 0 0.000108583)
(0 0 0.000125232)
(0 0 0.000141744)
(0 0 0.000154761)
(0 0 0.000161027)
(0 0 0.000158151)
(0 0 0.000145143)
(0 0 0.000122575)
(0 0 9.23851e-05)
(0 0 5.74248e-05)
(0 0 2.09017e-05)
(0 0 -1.4146e-05)
(0 0 -4.52429e-05)
(0 0 -7.06963e-05)
(0 0 -8.96467e-05)
(0 0 -0.000101987)
(0 0 -0.000108197)
(0 0 -0.000109154)
(0 0 -0.000105937)
(0 0 -9.96716e-05)
(0 0 -9.14135e-05)
(0 0 -8.20755e-05)
(0 0 -7.23919e-05)
(0 0 -6.2913e-05)
(0 0 -5.40185e-05)
(0 0 -4.5942e-05)
(0 0 -3.88008e-05)
(0 0 -3.26249e-05)
(0 0 -2.73839e-05)
(0 0 -2.30083e-05)
(0 0 -1.94073e-05)
(0 0 -1.64815e-05)
(0 0 -1.41315e-05)
(0 0 -1.22635e-05)
(0 0 -1.07924e-05)
(0 0 -9.64169e-06)
(0 0 -8.73993e-06)
(0 0 -8.0062e-06)
(0 0 -7.30512e-06)
(0 0 -6.30621e-06)
(0 0 -4.04519e-06)
(0 0 2.5006e-06)
(0 -8.20204e-23 2.36914e-05)
(-1.78546e-23 7.92024e-21 3.32718e-06)
(-1.44292e-22 7.78727e-21 2.67472e-06)
(3.14559e-23 -1.92958e-22 1.79628e-06)
(3.94013e-23 -2.3243e-20 6.4846e-07)
(-9.00709e-23 7.93846e-21 -8.04732e-07)
(3.52784e-22 7.79645e-21 -2.59202e-06)
(-7.75924e-22 2.27304e-20 -4.7369e-06)
(3.05182e-22 -2.30933e-20 -7.25996e-06)
(6.13639e-22 -7.4313e-21 -1.01811e-05)
(-8.74963e-22 -3.65546e-24 -1.35213e-05)
(-8.73448e-22 -7.44281e-21 -1.73038e-05)
(7.64852e-22 7.0724e-21 -2.15553e-05)
(5.59017e-22 -5.82296e-20 -2.63067e-05)
(-1.03471e-21 1.24982e-19 -3.15938e-05)
(3.59089e-22 -6.72182e-20 -3.74561e-05)
(-1.1963e-21 -5.06719e-20 -4.39486e-05)
(2.31385e-21 -6.45278e-20 -5.11162e-05)
(-1.81182e-21 7.5979e-21 -5.90498e-05)
(-1.82802e-22 -7.09125e-21 -6.7796e-05)
(6.8983e-23 7.09418e-21 -7.74601e-05)
(-3.0692e-24 -1.25534e-22 -8.81263e-05)
(-6.39285e-23 -6.84089e-21 -9.99094e-05)
(-1.96419e-21 6.89792e-21 -0.00011294)
(4.10433e-21 1.26186e-23 -0.00012737)
(1.19544e-21 6.69409e-21 -0.000143374)
(-3.19792e-21 -5.19088e-24 -0.000161158)
(4.59911e-21 7.76353e-21 -0.000180967)
(-5.41689e-21 1.00776e-19 -0.000203096)
(6.93131e-22 -1.08208e-19 -0.000227913)
(-2.10321e-21 9.87732e-20 -0.000255891)
(2.04937e-21 -9.98879e-20 -0.00028767)
(4.73309e-23 1.3088e-21 -0.00032416)
(-6.15398e-23 -1.60507e-21 -0.000366732)
(2.7379e-21 -9.43651e-20 -0.000417558)
(-8.46055e-21 9.157e-20 -0.000480212)
(-3.04767e-22 -1.5087e-21 -0.00056072)
(6.04132e-21 1.3213e-23 -0.000669343)
(6.55991e-21 1.43472e-23 -0.000823499)
(-6.53892e-21 -1.43013e-23 -0.00105237)
(-2.16544e-22 -4.73604e-25 -0.00140375)
(-2.25599e-22 -4.93408e-25 -0.00195367)
(-7.75429e-21 -1.69594e-23 -0.00281869)
(7.48502e-21 1.63705e-23 -0.00416983)
(-2.4682e-22 1.46713e-22 -0.0062452)
(-3.49571e-23 7.5867e-21 -0.00935613)
(-2.39098e-20 4.90298e-20 -0.0138787)
(2.30304e-20 -6.4626e-20 -0.020219)
(-5.40382e-21 -9.12828e-21 -0.0287399)
(5.93853e-21 2.50537e-20 -0.0396442)
(-1.97009e-20 -5.49982e-21 -0.0527383)
(-2.54472e-22 7.93023e-21 9.79304e-06)
(-1.05851e-22 1.55992e-20 7.76995e-06)
(2.91033e-22 7.58525e-21 5.01248e-06)
(-8.47614e-22 -7.80015e-21 1.39323e-06)
(1.57526e-21 7.44095e-21 -3.1896e-06)
(-4.74158e-22 -5.32577e-20 -8.81554e-06)
(-2.37208e-22 8.45543e-20 -1.55499e-05)
(-5.39742e-23 -8.78911e-21 -2.34521e-05)
(2.14856e-21 -9.73454e-20 -3.25821e-05)
(-2.24608e-21 1.37408e-19 -4.30048e-05)
(-8.4706e-22 1.25554e-19 -5.47945e-05)
(6.28465e-22 -1.12927e-19 -6.80374e-05)
(-3.82951e-22 7.17601e-22 -8.28328e-05)
(2.73372e-21 -7.1916e-21 -9.92955e-05)
(-2.13653e-21 2.38833e-20 -0.000117562)
(-5.91806e-21 2.37387e-19 -0.000137786)
(1.67627e-21 -2.23178e-19 -0.000160184)
(-5.54714e-21 2.39155e-19 -0.000184914)
(-2.98727e-22 1.93708e-20 -0.000212251)
(-3.74368e-21 -7.24976e-21 -0.000242432)
(3.95947e-21 1.41654e-22 -0.000275784)
(-3.9746e-21 8.98696e-21 -0.000312674)
(8.89037e-22 2.07491e-19 -0.000353518)
(6.00248e-21 -4.39202e-19 -0.000398797)
(4.53274e-21 -2.09726e-19 -0.000449073)
(-7.08065e-21 4.24622e-19 -0.000505)
(3.8271e-21 -4.2314e-19 -0.000567359)
(-2.20209e-21 4.34134e-19 -0.000637089)
(3.20427e-21 1.46233e-21 -0.000715353)
(-3.63226e-21 -9.51875e-23 -0.000803642)
(-1.22021e-21 -2.66873e-24 -0.000903958)
(0 0 -0.00101913)
(1.80242e-22 9.35171e-23 -0.00115338)
(1.07662e-20 1.2087e-20 -0.00131338)
(-1.57761e-20 3.53251e-19 -0.00151004)
(-1.53811e-20 -2.3908e-20 -0.00176173)
(1.85502e-20 -3.48193e-19 -0.00209965)
(2.6329e-20 -3.00468e-19 -0.00257674)
(-9.60354e-21 3.20949e-19 -0.00328158)
(-3.03362e-20 2.13116e-21 -0.00435918)
(2.9556e-20 1.68673e-20 -0.00603996)
(-4.13776e-20 2.28089e-19 -0.0086768)
(2.25565e-20 -2.37247e-19 -0.0127869)
(-1.74759e-20 1.42468e-20 -0.0190899)
(1.9355e-20 7.47498e-21 -0.0285258)
(-5.81393e-20 1.09716e-19 -0.0422295)
(5.80575e-20 -1.074e-19 -0.0614228)
(-8.88235e-20 7.99918e-20 -0.0871773)
(8.57152e-20 -8.93529e-20 -0.120032)
(-1.82029e-20 -6.10721e-22 -0.158075)
(-6.12772e-23 4.69933e-20 1.57112e-05)
(-8.94257e-23 1.48601e-20 1.20728e-05)
(3.91211e-22 -6.1558e-20 7.01736e-06)
(-8.38951e-22 1.22427e-19 3.48288e-07)
(1.8431e-21 -2.62033e-19 -8.0758e-06)
(3.21601e-22 1.24571e-19 -1.83628e-05)
(-2.3931e-21 -8.48708e-22 -3.06068e-05)
(1.53532e-21 -1.69047e-20 -4.49016e-05)
(1.56446e-21 -2.55562e-19 -6.13507e-05)
(6.11743e-22 2.43478e-19 -8.00734e-05)
(-8.38046e-22 -1.59025e-21 -0.000101209)
(-4.12467e-21 -1.53446e-23 -0.000124922)
(6.5387e-21 -1.81166e-21 -0.000151402)
(-3.73637e-21 -2.49085e-19 -0.000180868)
(4.9394e-21 2.26303e-19 -0.000213577)
(-1.14702e-20 4.49631e-19 -0.000249842)
(-4.72645e-21 -1.18935e-20 -0.000290011)
(-4.92396e-21 4.62532e-19 -0.000334482)
(4.09374e-22 -1.40366e-20 -0.000383663)
(-1.2483e-20 4.48937e-19 -0.000438077)
(1.24156e-20 -4.66219e-19 -0.000498322)
(-9.36791e-21 4.45037e-19 -0.000565089)
(2.71533e-21 -4.62867e-19 -0.000639162)
(5.14973e-21 -9.25844e-21 -0.00072145)
(-2.56501e-21 1.35577e-20 -0.000813006)
(5.46376e-21 -8.75877e-21 -0.000915066)
(-1.90041e-20 4.1669e-19 -0.00102909)
(1.71428e-20 -4.44047e-19 -0.00115683)
(1.86761e-20 -4.12408e-19 -0.00130044)
(-1.5403e-20 4.14251e-19 -0.00146266)
(-1.06491e-21 -5.08461e-21 -0.0016471)
(1.10157e-20 -1.19192e-22 -0.00185882)
(-1.25808e-20 -2.43753e-20 -0.00210526)
(5.36651e-20 -7.51403e-19 -0.00239801)
(1.63247e-20 5.57966e-20 -0.00275592)
(-7.02795e-20 7.07205e-19 -0.00321047)
(3.87938e-21 -1.21168e-20 -0.00381501)
(-1.12417e-20 -4.73488e-21 -0.00465985)
(1.09497e-19 -5.92119e-19 -0.00589591)
(-2.0376e-19 1.16242e-18 -0.00776993)
(2.0767e-19 -1.15397e-18 -0.0106735)
(6.95208e-20 8.37591e-20 -0.0152054)
(-1.55055e-19 5.04534e-19 -0.0222424)
(-1.6212e-19 3.47379e-19 -0.0330034)
(1.5329e-19 -4.11856e-19 -0.0490821)
(-2.16512e-20 1.89872e-20 -0.0724051)
(5.34859e-20 -1.68801e-20 -0.105046)
(1.60065e-19 -9.92818e-20 -0.148779)
(-1.73336e-19 1.55213e-19 -0.20431)
(-2.4783e-20 -3.98932e-20 -0.264034)
(4.14611e-22 -3.09953e-20 2.0609e-05)
(-3.65627e-22 1.56678e-20 1.47889e-05)
(6.71888e-22 -1.67537e-22 6.55033e-06)
(-5.94651e-22 -1.54135e-20 -4.30066e-06)
(-9.40357e-22 -1.4163e-21 -1.7884e-05)
(3.43202e-21 -2.41881e-19 -3.43004e-05)
(-4.92297e-21 4.57939e-19 -5.36589e-05)
(2.42336e-21 -2.46515e-19 -7.60915e-05)
(-1.80343e-21 1.48732e-20 -0.00010176)
(4.96539e-21 -2.6988e-19 -0.000130862)
(-5.91958e-21 2.46182e-19 -0.000163632)
(-4.43067e-21 4.70051e-19 -0.000200347)
(1.1377e-20 -9.50781e-19 -0.00024133)
(-1.3558e-20 9.49564e-19 -0.000286949)
(1.77596e-20 -9.44974e-19 -0.000337635)
(-1.19635e-20 9.36266e-19 -0.0003939)
(-1.01939e-20 4.76327e-19 -0.000456342)
(-7.00377e-22 -3.71014e-21 -0.000525587)
(4.44163e-21 3.8567e-21 -0.00060236)
(-7.98728e-21 4.39041e-19 -0.000687518)
(-1.43766e-21 -4.61031e-19 -0.000782051)
(1.45846e-20 1.25687e-20 -0.000887106)
(-3.42504e-20 8.84682e-19 -0.00100399)
(2.62016e-20 -8.87521e-19 -0.00113421)
(2.25529e-21 -5.34393e-21 -0.00127952)
(-9.61362e-21 -8.9766e-23 -0.00144197)
(1.46449e-20 -1.34035e-20 -0.00162398)
(-4.75287e-21 1.21882e-22 -0.00182842)
(-5.21344e-21 -6.43304e-23 -0.00205882)
(4.96955e-21 1.93094e-22 -0.00231957)
(-3.7014e-21 1.46441e-21 -0.00261639)
(6.40366e-20 -7.81759e-19 -0.0029571)
(-5.81988e-20 8.03937e-19 -0.00335301)
(-1.5869e-20 2.28975e-22 -0.00382138)
(1.85071e-20 -1.02258e-20 -0.00438986)
(-9.95365e-20 7.16113e-19 -0.00510425)
(1.15738e-19 -7.19236e-19 -0.00604166)
(-2.23149e-20 2.16166e-21 -0.00733228)
(1.57772e-20 -9.20788e-23 -0.00919335)
(3.75002e-20 6.27933e-21 -0.0119798)
(-2.45385e-19 5.35188e-19 -0.0162543)
(3.64735e-19 -1.08434e-18 -0.0228773)
(-1.78033e-19 5.49169e-19 -0.0331085)
(2.56828e-19 -4.19356e-19 -0.0487037)
(-2.48735e-19 4.9396e-19 -0.0719716)
(-5.76475e-19 5.08363e-19 -0.105734)
(1.0873e-18 -1.07705e-18 -0.153076)
(-5.31671e-19 5.43696e-19 -0.216631)
(1.83704e-20 -2.08322e-21 -0.297082)
(4.41424e-21 -3.42402e-20 -0.373758)
(-7.30828e-22 1.57481e-20 2.38874e-05)
(-3.29369e-22 6.03349e-20 1.46672e-05)
(2.10881e-21 -1.83143e-19 1.57498e-06)
(-1.53178e-21 2.45712e-19 -1.53784e-05)
(-1.51213e-22 -1.08781e-19 -3.61993e-05)
(1.23573e-22 -1.45511e-20 -6.09564e-05)
(-4.77396e-22 1.53246e-20 -8.97853e-05)
(2.97701e-21 -1.83416e-22 -0.000122885)
(-2.8145e-21 -1.49787e-20 -0.000160516)
(-5.18361e-21 3.35424e-20 -0.000202999)
(-7.36611e-21 4.78109e-19 -0.000250716)
(1.86346e-20 -4.9688e-19 -0.000304115)
(-2.28827e-20 4.63374e-19 -0.000363714)
(1.9173e-20 -4.81983e-19 -0.000430107)
(-2.95804e-21 3.3413e-21 -0.000503973)
(1.08189e-20 4.67905e-23 -0.000586116)
(4.11142e-21 3.65829e-21 -0.000677472)
(-5.77399e-21 4.49906e-19 -0.000779051)
(2.05426e-20 -4.86804e-19 -0.000892004)
(6.22797e-21 2.66332e-20 -0.00101769)
(-4.64174e-20 9.27051e-19 -0.00115767)
(2.99936e-20 -9.29576e-19 -0.00131376)
(1.00073e-20 2.23861e-20 -0.00148804)
(-1.77822e-20 -2.29832e-22 -0.00168289)
(1.16359e-20 9.49693e-21 -0.00190112)
(-3.99821e-20 8.89738e-19 -0.00214596)
(3.32462e-20 -8.81287e-19 -0.00242124)
(2.79586e-21 9.48203e-21 -0.00273151)
(9.3411e-21 2.69802e-20 -0.00308225)
(-1.13378e-20 -5.4153e-22 -0.00348021)
(1.19194e-21 -1.28924e-20 -0.00393403)
(-3.67877e-20 1.30846e-20 -0.00445521)
(3.45384e-20 1.24591e-20 -0.00505989)
(-3.0233e-21 -2.49002e-20 -0.00577211)
(8.39355e-20 -7.30087e-19 -0.00662952)
(-7.52094e-20 7.52573e-19 -0.00769353)
(2.71171e-19 -1.44613e-18 -0.00906661)
(-2.49168e-19 1.46014e-18 -0.0109209)
(3.0723e-19 -1.36414e-18 -0.0135433)
(6.99536e-20 1.30839e-19 -0.0174027)
(-3.52301e-19 1.29854e-18 -0.0232433)
(-1.18421e-19 -2.17572e-20 -0.0322052)
(1.61223e-20 3.80453e-22 -0.0459639)
(-1.79154e-20 5.50598e-22 -0.0668723)
(5.29534e-20 1.62623e-21 -0.098075)
(2.54183e-20 1.32552e-20 -0.143541)
(-1.10511e-19 5.00005e-21 -0.207865)
(6.29897e-20 4.84319e-21 -0.295331)
(-1.61104e-22 -3.02471e-22 -0.4071)
(3.52272e-20 6.20173e-22 -0.497174)
(-7.76477e-22 7.59366e-20 2.4677e-05)
(1.66001e-21 -4.62932e-20 9.39471e-06)
(-1.61989e-21 -1.6305e-20 -1.15053e-05)
(4.83789e-21 -2.26774e-19 -3.74965e-05)
(-2.50308e-21 2.28621e-19 -6.84856e-05)
(2.26844e-21 -2.26163e-19 -0.000104576)
(-1.13794e-20 4.9868e-19 -0.000146004)
(1.2239e-20 -6.98188e-19 -0.000193112)
(-7.95398e-21 4.93594e-19 -0.00024633)
(-6.47037e-21 4.81127e-19 -0.000306175)
(-2.2018e-21 3.94929e-21 -0.000373256)
(2.53065e-20 -9.44865e-19 -0.000448272)
(-2.23648e-20 9.83005e-19 -0.000532031)
(5.67894e-21 -4.62345e-19 -0.000625453)
(1.2612e-20 -4.64509e-19 -0.000729581)
(2.28196e-20 -4.56886e-19 -0.00084563)
(-3.2673e-21 6.42879e-21 -0.000975018)
(3.92722e-20 -9.47356e-19 -0.00111935)
(3.08433e-20 -9.09229e-19 -0.00128038)
(6.54708e-21 2.11574e-20 -0.00146021)
(-2.80618e-20 9.44064e-19 -0.00166125)
(-1.98205e-20 -7.9554e-21 -0.0018863)
(1.2103e-20 8.81245e-21 -0.00213856)
(-5.21882e-20 9.13126e-19 -0.00242176)
(4.27741e-20 -9.27392e-19 -0.00274022)
(7.41748e-20 -8.90411e-19 -0.00309901)
(-7.53889e-20 9.1959e-19 -0.00350407)
(1.48423e-20 -1.97112e-20 -0.00396242)
(6.96504e-20 -8.86596e-19 -0.00448246)
(-9.69899e-20 9.09121e-19 -0.00507445)
(4.30715e-21 1.21457e-20 -0.00575117)
(-2.10617e-19 1.66283e-18 -0.0065292)
(1.91161e-19 -1.72499e-18 -0.00743106)
(4.76546e-20 6.1079e-20 -0.00848909)
(-2.70426e-19 1.57121e-18 -0.00975238)
(2.48584e-19 -1.63814e-18 -0.011299)
(-3.09991e-20 -3.19876e-21 -0.0132575)
(4.71481e-19 -1.47407e-18 -0.0158417)
(-4.41758e-19 1.52219e-18 -0.0194079)
(-6.48487e-20 -7.10932e-20 -0.0245389)
(6.72653e-19 -1.28305e-18 -0.0321645)
(-1.18438e-18 2.64414e-18 -0.0437167)
(-6.30942e-20 -1.53734e-19 -0.061317)
(-8.45091e-20 -1.20821e-19 -0.087982)
(7.58438e-19 -1.14746e-18 -0.127843)
(3.86569e-20 6.1636e-20 -0.186397)
(-8.48283e-19 7.56788e-19 -0.270798)
(8.31557e-19 -8.3264e-19 -0.38966)
(8.61346e-21 2.83713e-20 -0.549174)
(9.01972e-21 -2.64212e-21 -0.658259)
(6.1042e-22 -1.58036e-20 2.18407e-05)
(1.80893e-21 -1.34888e-19 -5.80778e-06)
(-1.91298e-21 1.21628e-19 -3.88497e-05)
(-1.23027e-21 -1.70906e-20 -7.73791e-05)
(5.5272e-21 -2.25334e-19 -0.000121613)
(-5.12547e-21 2.31685e-19 -0.0001719)
(-6.34886e-21 4.6798e-19 -0.000228685)
(-5.01057e-21 -1.93861e-20 -0.000292509)
(2.15314e-21 -4.59064e-21 -0.00036401)
(1.49082e-20 -4.9888e-19 -0.00044392)
(-1.22837e-20 4.66626e-19 -0.000533076)
(1.8927e-20 -9.87047e-19 -0.000632431)
(-4.74922e-21 4.93273e-19 -0.000743066)
(-3.56778e-21 -1.85212e-20 -0.000866204)
(-4.77055e-21 -2.21322e-20 -0.00100322)
(2.97925e-20 -9.67616e-19 -0.00115565)
(-1.62249e-21 -2.02281e-20 -0.00132528)
(2.88003e-20 -9.85384e-19 -0.0015142)
(-5.29975e-21 -7.71225e-21 -0.00172471)
(-1.6846e-22 1.1755e-22 -0.00195941)
(1.12828e-20 8.31628e-21 -0.00222127)
(-5.45006e-20 9.46967e-19 -0.00251369)
(4.8853e-20 -9.6718e-19 -0.00284055)
(1.25967e-20 8.22222e-21 -0.00320626)
(-8.54984e-21 -1.48128e-20 -0.00361587)
(-6.08639e-21 9.76717e-21 -0.00407512)
(-7.62064e-20 9.12748e-19 -0.0045906)
(1.63523e-19 -1.86152e-18 -0.00516983)
(-7.77982e-20 9.70342e-19 -0.00582148)
(-1.96464e-19 1.79735e-18 -0.00655567)
(-3.03322e-20 -4.57294e-20 -0.00738445)
(2.25421e-21 -2.7031e-20 -0.00832278)
(-6.54014e-20 -5.39883e-20 -0.00939029)
(2.63671e-19 -1.79351e-18 -0.0106148)
(4.0178e-19 -1.6588e-18 -0.0120391)
(-3.59737e-19 1.74071e-18 -0.0137329)
(-3.33797e-20 -5.39987e-20 -0.0158161)
(4.74465e-19 -1.58293e-18 -0.0184968)
(-4.19788e-19 1.67624e-18 -0.0221365)
(-6.64822e-19 1.48674e-18 -0.0273502)
(5.6669e-19 -1.5699e-18 -0.0351547)
(7.67601e-20 -1.09438e-20 -0.0471692)
(8.56976e-19 -1.38253e-18 -0.065867)
(1.16144e-19 1.21564e-19 -0.0948719)
(-9.86902e-19 1.35221e-18 -0.139307)
(-1.5885e-20 -3.87295e-20 -0.206277)
(3.28794e-20 5.16553e-22 -0.306184)
(-3.29034e-20 1.5627e-20 -0.457486)
(-4.97566e-19 5.2013e-19 -0.69596)
(4.88739e-19 -5.29486e-19 -0.953603)
(-1.06313e-20 -3.14101e-21 0.00912533)
(-1.05399e-20 -1.68791e-22 0.00508349)
(9.87414e-21 9.67954e-21 0.00166967)
(-6.88038e-21 1.95715e-21 -0.0011776)
(7.40158e-21 -1.13893e-20 -0.00352849)
(6.8901e-23 3.51014e-21 -0.00545629)
(-1.73449e-22 -9.76864e-23 -0.00703011)
(-5.68845e-21 1.24412e-23 -0.00830994)
(5.53087e-21 -1.20966e-23 -0.0093449)
(-1.67395e-22 3.6611e-25 -0.010174)
(-1.62802e-22 3.56063e-25 -0.0108293)
(4.93153e-21 -1.07858e-23 -0.0113367)
(-4.94738e-21 1.08204e-23 -0.0117171)
(-4.56775e-21 9.99011e-24 -0.0119874)
(2.55084e-22 -1.1128e-21 -0.012161)
(6.33859e-21 1.62601e-21 -0.0122494)
(-2.04227e-21 6.56148e-22 -0.0122628)
(-8.13477e-23 -1.04716e-21 -0.0122099)
(-3.17338e-23 8.77509e-22 -0.0120982)
(-2.0748e-21 -9.83252e-21 -0.0119344)
(2.11795e-21 8.80313e-21 -0.0117241)
(-1.35783e-21 -1.23109e-20 -0.0114721)
(1.98698e-21 2.78592e-22 -0.0111832)
(-2.75949e-21 1.32253e-23 -0.0108626)
(1.81557e-21 1.33581e-21 -0.0105162)
(-6.80244e-22 4.15034e-23 -0.0101486)
(-1.95663e-21 4.27935e-24 -0.00976324)
(9.31575e-22 -2.77478e-23 -0.00936359)
(1.52242e-22 2.08524e-21 -0.00895312)
(-4.55027e-23 4.58369e-23 -0.00853503)
(-1.64065e-22 -2.49076e-21 -0.00811226)
(1.35243e-22 2.66419e-21 -0.00768753)
(2.24745e-22 -2.95251e-21 -0.00726335)
(2.75889e-22 2.8195e-20 -0.00684203)
(-7.30977e-22 -2.82008e-20 -0.00642568)
(-6.70032e-22 -2.49149e-20 -0.00601622)
(1.46821e-21 5.4282e-20 -0.00561537)
(-8.1357e-22 -2.96666e-20 -0.00522468)
(-2.29489e-22 -4.06937e-21 -0.0048455)
(2.21739e-22 4.20334e-21 -0.00447901)
(3.47381e-24 2.31919e-24 -0.00412622)
(1.67615e-22 4.55858e-21 -0.00378796)
(-4.94292e-22 -2.3955e-20 -0.0034649)
(4.76419e-22 2.41803e-20 -0.00315755)
(-1.38814e-22 -5.07515e-21 -0.00286625)
(3.07933e-22 1.58352e-20 -0.00259117)
(2.83692e-23 -5.24498e-21 -0.00233226)
(-2.03904e-22 -1.11433e-20 -0.00208919)
(5.62497e-23 5.62022e-21 -0.0018612)
(-1.49201e-22 -5.84173e-21 -0.00164685)
(-1.52676e-20 2.51585e-20 0.0264595)
(2.99883e-20 -1.05465e-20 0.0144194)
(-2.40961e-20 -2.10826e-20 0.00416594)
(8.61982e-21 2.20939e-20 -0.00431298)
(-8.98403e-21 -2.16449e-20 -0.0112605)
(-1.26842e-20 6.12985e-21 -0.0169224)
(1.13202e-20 6.89097e-21 -0.0215218)
(1.30514e-20 1.7785e-20 -0.0252464)
(3.17695e-22 -2.95136e-20 -0.0282472)
(-2.29602e-20 6.87432e-21 -0.0306429)
(2.22787e-20 -5.13346e-21 -0.0325285)
(-4.79949e-21 -9.68688e-21 -0.0339801)
(-7.8483e-21 2.52317e-20 -0.0350605)
(-8.44306e-21 -3.65913e-22 -0.0358191)
(9.16321e-21 -1.57537e-20 -0.0362948)
(8.80465e-21 1.11629e-21 -0.0365219)
(-8.27578e-21 4.75836e-21 -0.0365297)
(-2.8902e-22 -8.23545e-22 -0.0363435)
(1.46457e-23 -1.30499e-22 -0.0359859)
(8.18113e-22 -1.78929e-24 -0.0354767)
(2.39068e-21 3.83096e-23 -0.0348323)
(-2.36824e-21 -3.52177e-21 -0.0340668)
(1.3555e-20 7.14739e-20 -0.0331936)
(-1.53915e-20 -7.41608e-20 -0.0322299)
(1.83781e-20 9.12155e-20 -0.0311896)
(-9.50132e-21 -3.70364e-20 -0.0300885)
(-1.86204e-20 -1.14136e-19 -0.0289365)
(8.00609e-21 5.69185e-20 -0.0277439)
(1.43318e-21 -1.0722e-21 -0.0265206)
(-2.07931e-21 -4.79404e-21 -0.0252757)
(1.5966e-21 2.4813e-21 -0.024018)
(-9.62164e-22 -8.60397e-21 -0.0227552)
(9.88623e-21 9.35416e-20 -0.0214949)
(-2.11148e-20 -2.00979e-19 -0.0202437)
(9.89322e-21 9.7979e-20 -0.0190078)
(-6.74991e-22 -1.01544e-20 -0.0177929)
(-1.37759e-22 3.62354e-21 -0.016604)
(4.14151e-23 5.57183e-23 -0.0154457)
(-4.94522e-21 -7.03038e-20 -0.0143219)
(4.22446e-21 6.1978e-20 -0.0132361)
(3.50087e-21 6.30187e-20 -0.0121912)
(-5.07187e-21 -8.5779e-20 -0.0111896)
(1.58092e-22 4.74707e-21 -0.0102332)
(1.11361e-21 2.51642e-20 -0.00932358)
(-2.42992e-21 -4.52425e-20 -0.00846167)
(-4.75968e-23 -5.23921e-21 -0.00764794)
(-1.6422e-21 -3.81105e-20 -0.00688221)
(-3.57399e-22 -6.11406e-21 -0.00616345)
(4.10146e-22 1.10103e-20 -0.00548923)
(5.10669e-22 1.73521e-20 -0.00485485)
(-1.36437e-20 -1.08813e-21 0.0410206)
(-1.3073e-20 -1.47679e-20 0.0210962)
(3.49814e-20 2.8725e-20 0.00398507)
(-4.33725e-20 -1.24477e-20 -0.00989862)
(1.78551e-20 1.21398e-20 -0.0210909)
(2.77897e-20 2.10035e-20 -0.0300958)
(-1.9058e-20 -6.01643e-20 -0.0373378)
(1.40913e-20 -2.12839e-20 -0.0431538)
(-3.26874e-20 3.88602e-20 -0.0478031)
(1.38367e-21 3.25847e-20 -0.0514879)
(3.07293e-20 -5.80212e-20 -0.0543624)
(-2.62884e-20 4.26394e-20 -0.0565486)
(7.20202e-21 -1.12609e-20 -0.0581486)
(-3.47583e-21 -9.88953e-21 -0.0592415)
(4.49571e-20 2.32054e-20 -0.0598879)
(-4.81959e-21 3.19833e-20 -0.0601423)
(-3.78583e-20 -3.60808e-20 -0.060051)
(1.1471e-20 -7.13898e-21 -0.0596541)
(-8.28452e-21 3.08667e-22 -0.0589877)
(4.79021e-22 -3.37197e-21 -0.058083)
(2.63013e-20 6.47152e-20 -0.0569664)
(-2.68756e-20 -5.30418e-20 -0.0556607)
(-2.97401e-20 -8.60797e-20 -0.054188)
(3.30296e-20 8.18726e-20 -0.0525712)
(-1.58577e-21 6.35582e-21 -0.0508376)
(1.72645e-22 -3.62396e-21 -0.0490081)
(-1.25009e-21 5.66621e-21 -0.0471016)
(-2.72343e-20 -1.36311e-19 -0.0451337)
(3.19229e-20 1.38663e-19 -0.0431198)
(-3.15891e-20 -1.52608e-19 -0.0410745)
(3.38097e-20 1.61701e-19 -0.0390115)
(7.96129e-22 6.05152e-21 -0.0369432)
(3.08695e-20 2.00594e-19 -0.0348816)
(-6.23228e-20 -4.03914e-19 -0.0328371)
(3.37426e-20 2.16213e-19 -0.0308198)
(1.48679e-20 1.25636e-19 -0.0288385)
(-1.33097e-20 -1.09737e-19 -0.0269013)
(-7.45889e-22 -2.38058e-22 -0.0250153)
(2.22645e-23 -1.91904e-22 -0.0231867)
(3.29705e-23 -2.15446e-23 -0.021421)
(1.3405e-20 1.45765e-19 -0.0197228)
(-1.31458e-20 -1.36849e-19 -0.018096)
(1.01749e-21 9.69292e-21 -0.0165435)
(-3.90278e-22 -9.54898e-23 -0.0150676)
(5.82622e-21 8.30257e-20 -0.0136698)
(-1.10793e-20 -1.5836e-19 -0.0123507)
(5.56202e-21 8.57042e-20 -0.01111)
(-2.98638e-21 -4.52433e-20 -0.00994587)
(2.22361e-21 3.35947e-20 -0.00885376)
(5.40558e-22 1.13568e-20 -0.00782471)
(1.98529e-21 2.62494e-20 0.0501713)
(8.45514e-21 -5.36541e-20 0.0226188)
(-7.18751e-20 1.58452e-20 -0.00119951)
(1.19101e-19 8.18477e-20 -0.0199373)
(-3.15205e-20 -1.11121e-19 -0.0346578)
(-1.73503e-20 2.15513e-20 -0.0462663)
(2.46308e-21 2.03976e-20 -0.0554596)
(-1.51399e-20 -1.25855e-21 -0.0627507)
(-1.01895e-20 2.12026e-20 -0.0685073)
(6.48509e-20 -3.30574e-20 -0.0730093)
(-2.70998e-20 1.274e-20 -0.0764689)
(-1.36637e-20 6.02642e-22 -0.079048)
(1.97687e-20 1.0461e-20 -0.0808742)
(-6.31303e-20 -5.042e-20 -0.0820482)
(4.66139e-20 2.84965e-20 -0.0826517)
(-1.14638e-20 1.22946e-20 -0.0827541)
(1.03241e-20 -9.09522e-21 -0.0824143)
(6.10646e-20 1.07969e-19 -0.0816841)
(-6.5882e-20 -9.06591e-20 -0.0806094)
(1.08533e-21 -1.06771e-20 -0.0792304)
(-3.23799e-21 -1.0648e-22 -0.0775831)
(3.26228e-21 4.92419e-22 -0.0756953)
(2.74156e-21 -1.02931e-22 -0.073597)
(-7.35984e-21 3.52174e-21 -0.0713164)
(5.96839e-21 4.54538e-22 -0.0688876)
(3.78106e-22 7.8955e-21 -0.0663402)
(-8.77416e-20 -2.89989e-19 -0.0636998)
(9.0138e-20 2.7821e-19 -0.0609852)
(-6.33212e-21 5.6547e-21 -0.0582165)
(-3.91097e-20 -1.76535e-19 -0.0554125)
(4.49231e-20 1.79872e-19 -0.052591)
(-1.44622e-21 1.52897e-21 -0.0497685)
(-1.41968e-22 4.96806e-22 -0.0469601)
(-4.30275e-20 -2.29805e-19 -0.0441797)
(8.75789e-20 4.6253e-19 -0.0414404)
(-8.60728e-20 -4.7704e-19 -0.0387535)
(8.45428e-20 4.99842e-19 -0.0361295)
(-8.24172e-20 -5.21496e-19 -0.0335776)
(4.05043e-20 2.65537e-19 -0.0311061)
(1.98176e-20 1.44326e-19 -0.0287218)
(-1.72109e-20 -1.25572e-19 -0.0264306)
(-1.29863e-21 -9.69707e-21 -0.0242375)
(-1.76478e-20 -1.58761e-19 -0.0221463)
(3.75296e-20 3.43133e-19 -0.0201598)
(-1.7614e-20 -1.64166e-19 -0.0182797)
(2.29884e-22 2.26893e-22 -0.0165069)
(8.12886e-22 1.08823e-20 -0.0148405)
(-2.08794e-22 -1.59207e-22 -0.0132777)
(-7.91604e-22 -1.13939e-20 -0.0118118)
(1.75023e-21 2.34565e-20 -0.0104281)
(2.67551e-20 9.37355e-23 0.0502953)
(3.16071e-22 3.92285e-22 0.0154079)
(-6.0476e-20 4.55698e-22 -0.0144809)
(8.96484e-20 -2.50182e-22 -0.036901)
(-2.68609e-20 9.77928e-23 -0.0538673)
(-4.31844e-20 -7.96335e-22 -0.0668703)
(1.39114e-20 1.03864e-23 -0.0769465)
(-1.1635e-20 -6.37332e-25 -0.0847959)
(9.41027e-20 -2.57337e-20 -0.0908844)
(4.12051e-21 6.84453e-20 -0.095547)
(-4.01428e-21 6.75281e-20 -0.0990373)
(-2.81797e-20 -1.12072e-19 -0.101538)
(7.06058e-20 1.31309e-19 -0.103188)
(-8.9593e-20 -1.2184e-19 -0.104105)
(3.44121e-20 8.27105e-20 -0.104383)
(-4.59932e-20 -8.73162e-20 -0.104097)
(5.05414e-21 -8.13529e-21 -0.103313)
(-2.89707e-20 -1.33381e-21 -0.10209)
(2.65239e-20 -3.10423e-21 -0.100479)
(1.27772e-21 2.17958e-21 -0.098527)
(7.8597e-21 2.97361e-22 -0.0962734)