/*--------------------------------*- C++ -*----------------------------------*\
| =========                 |                                                 |
| \\      /  F ield         | OpenFOAM: The Open Source CFD Toolbox           |
|  \\    /   O peration     | Version:  2412                                  |
|   \\  /    A nd           | Website:  www.openfoam.com                      |
|    \\/     M anipulation  |                                                 |
\*---------------------------------------------------------------------------*/
FoamFile
{
    version     2.0;
    format      ascii;
    arch        "LSB;label=32;scalar=64";
    class       volScalarField;
    location    "20.5";
    object      p;
}
// * * * * * * * * * * * * * * * * * * * * * * * * * * * * * * * * * * * * * //

dimensions      [0 2 -2 0 0 0 0];

internalField   nonuniform List<scalar> 
5285
(
-0.000161154
-0.000151609
-0.000142439
-0.000133648
-0.000162765
-0.000153392
-0.000144368
-0.000135698
-0.000127383
-0.000119427
-0.000111822
-0.000104572
-9.76685e-05
-9.11091e-05
-8.48874e-05
-7.89968e-05
-7.34295e-05
-6.81768e-05
-6.32297e-05
-5.85781e-05
-5.42119e-05
-5.01203e-05
-4.6292e-05
-4.27161e-05
-3.93808e-05
-3.62747e-05
-3.33865e-05
-3.07046e-05
-2.82179e-05
-2.59153e-05
-2.3786e-05
-2.18195e-05
-2.00056e-05
-1.83344e-05
-1.67964e-05
-1.53826e-05
-1.40843e-05
-1.2893e-05
-1.1801e-05
-1.08005e-05
-9.8847e-06
-9.04676e-06
-8.28045e-06
-7.57986e-06
-6.93957e-06
-6.35453e-06
-5.82001e-06
-5.33166e-06
-0.000163958
-0.000154772
-0.00014591
-0.000137378
-0.000129177
-0.000121311
-0.00011378
-0.000106583
-9.9716e-05
-9.31769e-05
-8.69612e-05
-8.10632e-05
-7.54765e-05
-7.01939e-05
-6.52074e-05
-6.05084e-05
-5.60878e-05
-5.1936e-05
-4.80428e-05
-4.4398e-05
-4.09911e-05
-3.78114e-05
-3.48482e-05
-3.20908e-05
-2.95285e-05
-2.71509e-05
-2.49476e-05
-2.29086e-05
-2.10239e-05
-1.9284e-05
-1.76797e-05
-1.6202e-05
-1.48424e-05
-1.35927e-05
-1.24451e-05
-1.13919e-05
-1.04263e-05
-9.54147e-06
-8.73114e-06
-7.98938e-06
-7.31069e-06
-6.68992e-06
-6.12227e-06
-5.60324e-06
-0.000164744
-0.00015576
-0.000147075
-0.000138695
-0.000130626
-0.000122869
-0.000115428
-0.0001083
-0.000101486
-9.49839e-05
-8.87899e-05
-8.29e-05
-7.73091e-05
-7.20113e-05
-6.69997e-05
-6.2267e-05
-5.78051e-05
-5.36055e-05
-4.96593e-05
-4.5957e-05
-4.2489e-05
-3.92456e-05
-3.62167e-05
-3.33924e-05
-3.07626e-05
-2.83175e-05
-2.60471e-05
-2.39417e-05
-2.19921e-05
-2.01888e-05
-1.85229e-05
-1.69857e-05
-1.55688e-05
-1.42642e-05
-1.30641e-05
-1.19612e-05
-1.09484e-05
-1.00189e-05
-9.16666e-06
-8.38557e-06
-7.67009e-06
-7.01504e-06
-6.41555e-06
-5.86695e-06
-0.000165143
-0.000156371
-0.000147876
-0.000139663
-0.000131739
-0.000124107
-0.000116769
-0.000109728
-0.000102982
-9.65319e-05
-9.03747e-05
-8.45079e-05
-7.89274e-05
-7.36285e-05
-6.86057e-05
-6.38525e-05
-5.93622e-05
-5.51272e-05
-5.11396e-05
-4.73908e-05
-4.38723e-05
-4.0575e-05
-3.74897e-05
-3.46071e-05
-3.19178e-05
-2.94125e-05
-2.70819e-05
-2.49167e-05
-2.29079e-05
-2.10465e-05
-1.93239e-05
-1.77317e-05
-1.62616e-05
-1.49058e-05
-1.36566e-05
-1.25069e-05
-1.14495e-05
-1.04779e-05
-9.58585e-06
-8.76734e-06
-8.01681e-06
-7.329e-06
-6.69901e-06
-6.12209e-06
-0.00016518
-0.000156629
-0.000148333
-0.000140299
-0.000132532
-0.000125036
-0.000117816
-0.000110874
-0.000104211
-9.78262e-05
-9.17199e-05
-8.589e-05
-8.03336e-05
-7.50471e-05
-7.00261e-05
-6.52653e-05
-6.07589e-05
-5.65003e-05
-5.24825e-05
-4.86982e-05
-4.51393e-05
-4.17978e-05
-3.86651e-05
-3.57328e-05
-3.2992e-05
-3.04341e-05
-2.80501e-05
-2.58314e-05
-2.37693e-05
-2.18552e-05
-2.00809e-05
-1.84382e-05
-1.6919e-05
-1.55158e-05
-1.4221e-05
-1.30275e-05
-1.19284e-05
-1.09171e-05
-9.98754e-06
-9.13364e-06
-8.34985e-06
-7.6309e-06
-6.97185e-06
-6.36789e-06
-0.000164876
-0.000156555
-0.000148468
-0.000140621
-0.000133021
-0.000125673
-0.000118582
-0.000111751
-0.000105182
-9.88763e-05
-9.28336e-05
-8.70533e-05
-8.15337e-05
-7.62721e-05
-7.12652e-05
-6.65086e-05
-6.19976e-05
-5.77266e-05
-5.36895e-05
-4.98798e-05
-4.62904e-05
-4.29139e-05
-3.97427e-05
-3.6769e-05
-3.39844e-05
-3.1381e-05
-2.89505e-05
-2.66846e-05
-2.4575e-05
-2.26137e-05
-2.07926e-05
-1.91039e-05
-1.75398e-05
-1.60929e-05
-1.47559e-05
-1.35218e-05
-1.23838e-05
-1.13355e-05
-1.03707e-05
-9.48351e-06
-8.66834e-06
-7.91991e-06
-7.23329e-06
-6.60364e-06
-0.000164252
-0.000156168
-0.000148296
-0.000140645
-0.000133222
-0.000126032
-0.00011908
-0.000112371
-0.000105908
-9.9692e-05
-9.37245e-05
-8.80055e-05
-8.25343e-05
-7.73092e-05
-7.23276e-05
-6.75865e-05
-6.30818e-05
-5.8809e-05
-5.47627e-05
-5.09374e-05
-4.73269e-05
-4.39244e-05
-4.07232e-05
-3.77159e-05
-3.48952e-05
-3.22535e-05
-2.9783e-05
-2.7476e-05
-2.53247e-05
-2.33214e-05
-2.14585e-05
-1.97283e-05
-1.81234e-05
-1.66366e-05
-1.52609e-05
-1.39893e-05
-1.28153e-05
-1.17326e-05
-1.07349e-05
-9.81646e-06
-8.97179e-06
-8.1956e-06
-7.48293e-06
-6.82898e-06
-0.00016333
-0.000155487
-0.000147837
-0.000140389
-0.00013315
-0.000126126
-0.000119323
-0.000112746
-0.000106398
-0.000100282
-9.44006e-05
-8.87536e-05
-8.33415e-05
-7.81635e-05
-7.3218e-05
-6.85028e-05
-6.40146e-05
-5.97499e-05
-5.57042e-05
-5.18726e-05
-4.82499e-05
-4.483e-05
-4.16069e-05
-3.85739e-05
-3.57243e-05
-3.30511e-05
-3.05472e-05
-2.82052e-05
-2.60178e-05
-2.39778e-05
-2.20778e-05
-2.03106e-05
-1.8669e-05
-1.71462e-05
-1.57352e-05
-1.44293e-05
-1.32222e-05
-1.21075e-05
-1.10793e-05
-1.01319e-05
-9.25966e-06
-8.45745e-06
-7.7203e-06
-7.04344e-06
-0.000162129
-0.000154531
-0.000147108
-0.000139868
-0.00013282
-0.000125969
-0.000119323
-0.000112886
-0.000106663
-0.000100657
-9.487e-05
-8.93046e-05
-8.39615e-05
-7.88405e-05
-7.3941e-05
-6.92613e-05
-6.47993e-05
-6.05521e-05
-5.65161e-05
-5.26872e-05
-4.90607e-05
-4.56317e-05
-4.23945e-05
-3.93433e-05
-3.64719e-05
-3.3774e-05
-3.12428e-05
-2.88717e-05
-2.66538e-05
-2.45821e-05
-2.26499e-05
-2.08501e-05
-1.9176e-05
-1.76209e-05
-1.61781e-05
-1.48411e-05
-1.36037e-05
-1.24598e-05
-1.14035e-05
-1.04292e-05
-9.53139e-06
-8.70494e-06
-7.94492e-06
-7.24657e-06
-0.000160668
-0.000153318
-0.000146126
-0.000139099
-0.000132247
-0.000125576
-0.000119093
-0.000112803
-0.000106712
-0.000100824
-9.5141e-05
-8.96662e-05
-8.44009e-05
-7.9346e-05
-7.45015e-05
-6.98665e-05
-6.54396e-05
-6.12187e-05
-5.72009e-05
-5.3383e-05
-4.97611e-05
-4.63307e-05
-4.30869e-05
-4.00247e-05
-3.71384e-05
-3.44221e-05
-3.18699e-05
-2.94754e-05
-2.72323e-05
-2.51342e-05
-2.31744e-05
-2.13465e-05
-1.96439e-05
-1.80601e-05
-1.6589e-05
-1.52241e-05
-1.39594e-05
-1.27889e-05
-1.17069e-05
-1.07079e-05
-9.78649e-06
-8.9376e-06
-8.15633e-06
-7.43796e-06
-0.000158967
-0.000151867
-0.000144907
-0.000138097
-0.000131445
-0.000124959
-0.000118645
-0.000112509
-0.000106557
-0.000100794
-9.52222e-05
-8.98458e-05
-8.46666e-05
-7.9686e-05
-7.49048e-05
-7.03228e-05
-6.59393e-05
-6.1753e-05
-5.77616e-05
-5.39627e-05
-5.03529e-05
-4.69285e-05
-4.36854e-05
-4.0619e-05
-3.77243e-05
-3.4996e-05
-3.24287e-05
-3.00164e-05
-2.77535e-05
-2.56337e-05
-2.3651e-05
-2.17992e-05
-2.00721e-05
-1.84636e-05
-1.69674e-05
-1.55778e-05
-1.42886e-05
-1.30942e-05
-1.1989e-05
-1.09675e-05
-1.00245e-05
-9.15501e-06
-8.35414e-06
-7.61724e-06
-0.000157044
-0.000150193
-0.000143468
-0.000136877
-0.000130429
-0.000124131
-0.000117991
-0.000112014
-0.000106208
-0.000100575
-9.51222e-05
-8.98513e-05
-8.47654e-05
-7.98667e-05
-7.51564e-05
-7.06352e-05
-6.63028e-05
-6.21586e-05
-5.82012e-05
-5.44286e-05
-5.08382e-05
-4.7427e-05
-4.41914e-05
-4.11274e-05
-3.82306e-05
-3.54963e-05
-3.29195e-05
-3.0495e-05
-2.82173e-05
-2.60807e-05
-2.40797e-05
-2.22082e-05
-2.04605e-05
-1.88308e-05
-1.73131e-05
-1.59018e-05
-1.45911e-05
-1.33754e-05
-1.22494e-05
-1.12076e-05
-1.02451e-05
-9.35679e-06
-8.53799e-06
-7.78405e-06
-0.000154915
-0.000148314
-0.000141824
-0.000135454
-0.000129212
-0.000123106
-0.000117143
-0.00011133
-0.000105674
-0.000100179
-9.48495e-05
-8.96903e-05
-8.47044e-05
-7.98943e-05
-7.5262e-05
-7.08085e-05
-6.65343e-05
-6.24395e-05
-5.85231e-05
-5.47837e-05
-5.12196e-05
-4.78282e-05
-4.46065e-05
-4.15511e-05
-3.86583e-05
-3.59238e-05
-3.33431e-05
-3.09115e-05
-2.8624e-05
-2.64753e-05
-2.44603e-05
-2.25733e-05
-2.08089e-05
-1.91616e-05
-1.76258e-05
-1.61959e-05
-1.48665e-05
-1.36322e-05
-1.24877e-05
-1.14279e-05
-1.04479e-05
-9.54263e-06
-8.70756e-06
-7.93811e-06
-0.000152598
-0.000146245
-0.000139991
-0.000133842
-0.000127807
-0.000121895
-0.000116113
-0.000110468
-0.000104966
-9.96125e-05
-9.44126e-05
-8.93707e-05
-8.44906e-05
-7.97753e-05
-7.52271e-05
-7.08478e-05
-6.66384e-05
-6.25994e-05
-5.87305e-05
-5.5031e-05
-5.14995e-05
-4.81342e-05
-4.49325e-05
-4.18918e-05
-3.90086e-05
-3.62794e-05
-3.37001e-05
-3.12665e-05
-2.8974e-05
-2.68178e-05
-2.4793e-05
-2.28946e-05
-2.11173e-05
-1.94559e-05
-1.79052e-05
-1.64598e-05
-1.51145e-05
-1.38642e-05
-1.27037e-05
-1.16281e-05
-1.06325e-05
-9.71222e-06
-8.86257e-06
-8.07915e-06
-0.000150108
-0.000144003
-0.000137982
-0.000132055
-0.000126229
-0.000120513
-0.000114914
-0.000109439
-0.000104094
-9.88862e-05
-9.382e-05
-8.89003e-05
-8.41312e-05
-7.9516e-05
-7.50577e-05
-7.07585e-05
-6.66198e-05
-6.26426e-05
-5.88273e-05
-5.51736e-05
-5.16808e-05
-4.83473e-05
-4.51715e-05
-4.2151e-05
-3.9283e-05
-3.65643e-05
-3.39915e-05
-3.15607e-05
-2.92678e-05
-2.71085e-05
-2.50782e-05
-2.31722e-05
-2.13857e-05
-1.97137e-05
-1.81513e-05
-1.66934e-05
-1.53351e-05
-1.40713e-05
-1.28972e-05
-1.1808e-05
-1.07989e-05
-9.86534e-06
-9.0028e-06
-8.20693e-06
-0.00014746
-0.0001416
-0.000135812
-0.000130106
-0.000124489
-0.000118969
-0.000113554
-0.000108252
-0.000103068
-9.8009e-05
-9.30802e-05
-8.82868e-05
-8.36331e-05
-7.9123e-05
-7.47596e-05
-7.05456e-05
-6.64831e-05
-6.25733e-05
-5.88171e-05
-5.52149e-05
-5.17662e-05
-4.84702e-05
-4.53256e-05
-4.23306e-05
-3.94829e-05
-3.67798e-05
-3.42183e-05
-3.1795e-05
-2.95062e-05
-2.7348e-05
-2.53162e-05
-2.34064e-05
-2.16143e-05
-1.99351e-05
-1.83641e-05
-1.68967e-05
-1.5528e-05
-1.42534e-05
-1.30681e-05
-1.19674e-05
-1.09468e-05
-1.00018e-05
-9.12804e-06
-8.32126e-06
-0.00014467
-0.000139052
-0.000133495
-0.000128008
-0.000122599
-0.000117276
-0.000112047
-0.000106918
-0.000101897
-9.69896e-05
-9.22015e-05
-8.75379e-05
-8.30035e-05
-7.86026e-05
-7.43387e-05
-7.02147e-05
-6.62331e-05
-6.23957e-05
-5.87038e-05
-5.51581e-05
-5.17588e-05
-4.85054e-05
-4.53972e-05
-4.24327e-05
-3.96101e-05
-3.69274e-05
-3.43818e-05
-3.19704e-05
-2.96899e-05
-2.75368e-05
-2.55074e-05
-2.35976e-05
-2.18033e-05
-2.01201e-05
-1.85438e-05
-1.70697e-05
-1.56934e-05
-1.44104e-05
-1.32161e-05
-1.21061e-05
-1.1076e-05
-1.01214e-05
-9.23813e-06
-8.42197e-06
-0.000141751
-0.000136371
-0.000131042
-0.000125773
-0.000120571
-0.000115445
-0.000110402
-0.000105448
-0.000100591
-9.58369e-05
-9.11918e-05
-8.6661e-05
-8.22493e-05
-7.79613e-05
-7.38007e-05
-6.97709e-05
-6.58747e-05
-6.21143e-05
-5.84913e-05
-5.50069e-05
-5.16616e-05
-4.84556e-05
-4.53884e-05
-4.24591e-05
-3.96664e-05
-3.70084e-05
-3.44831e-05
-3.20878e-05
-2.98198e-05
-2.76758e-05
-2.56525e-05
-2.37462e-05
-2.19531e-05
-2.02691e-05
-1.86903e-05
-1.72124e-05
-1.58311e-05
-1.45422e-05
-1.33413e-05
-1.22241e-05
-1.11864e-05
-1.02241e-05
-9.33293e-06
-8.50892e-06
-0.000138715
-0.00013357
-0.000128467
-0.000123413
-0.000118417
-0.000113487
-0.000108629
-0.00010385
-9.91583e-05
-9.45594e-05
-9.00593e-05
-8.56636e-05
-8.13775e-05
-7.72054e-05
-7.31517e-05
-6.92198e-05
-6.54129e-05
-6.17335e-05
-5.81836e-05
-5.47648e-05
-5.1478e-05
-4.83238e-05
-4.5302e-05
-4.24123e-05
-3.96537e-05
-3.70248e-05
-3.45238e-05
-3.21487e-05
-2.98969e-05
-2.77657e-05
-2.57521e-05
-2.38527e-05
-2.20641e-05
-2.03825e-05
-1.88041e-05
-1.73251e-05
-1.59414e-05
-1.4649e-05
-1.34436e-05
-1.23214e-05
-1.12781e-05
-1.03098e-05
-9.41238e-06
-8.58204e-06
-0.000712602
-0.000684522
-0.000656443
-0.000628498
-0.000600812
-0.000573493
-0.00054664
-0.000520339
-0.000494666
-0.000469685
-0.00044545
-0.000422002
-0.000399378
-0.000377601
-0.000356689
-0.000336652
-0.000317493
-0.000299208
-0.00028179
-0.000265225
-0.000249498
-0.000234588
-0.000220473
-0.000207127
-0.000194525
-0.000182637
-0.000171435
-0.000684238
-0.000658385
-0.000632463
-0.000606597
-0.000580903
-0.000555487
-0.000530442
-0.000505853
-0.000481792
-0.000458324
-0.0004355
-0.000413367
-0.000391959
-0.000371304
-0.000351422
-0.000332326
-0.000314024
-0.000296515
-0.000279798
-0.000263862
-0.000248697
-0.000234286
-0.000220611
-0.000207652
-0.000195387
-0.000183791
-0.000172839
-0.000656745
-0.000632959
-0.000609043
-0.000585117
-0.000561289
-0.000537659
-0.000514317
-0.000491344
-0.000468811
-0.000446779
-0.000425303
-0.000404427
-0.000384188
-0.000364615
-0.000345732
-0.000327552
-0.000310088
-0.000293343
-0.000277318
-0.000262007
-0.000247404
-0.000233496
-0.000220268
-0.000207706
-0.000195789
-0.000184497
-0.00017381
-0.000630106
-0.000608239
-0.000586192
-0.000564075
-0.000541993
-0.000520039
-0.000498299
-0.000476851
-0.000455763
-0.000435096
-0.000414903
-0.000395229
-0.000376112
-0.000357581
-0.000339662
-0.000322373
-0.000305726
-0.000289729
-0.000274386
-0.000259694
-0.00024565
-0.000232246
-0.00021947
-0.000207309
-0.000195749
-0.000184773
-0.000174362
-0.000604305
-0.000584221
-0.000563912
-0.000543485
-0.000523036
-0.000502653
-0.000482419
-0.000462409
-0.000442688
-0.000423316
-0.000404344
-0.000385817
-0.000367774
-0.000350245
-0.000333257
-0.00031683
-0.000300979
-0.000285713
-0.000271039
-0.000256959
-0.00024347
-0.000230568
-0.000218245
-0.000206491
-0.000195295
-0.000184641
-0.000174516
-0.000579327
-0.000560897
-0.000542207
-0.000523355
-0.000504432
-0.000485523
-0.000466705
-0.00044805
-0.000429621
-0.000411476
-0.000393665
-0.000376233
-0.000359218
-0.000342652
-0.000326561
-0.000310969
-0.00029589
-0.000281337
-0.000267319
-0.00025384
-0.0002409
-0.000228497
-0.000216627
-0.000205283
-0.000194454
-0.00018413
-0.000174298
-0.000555154
-0.00053826
-0.000521075
-0.000503692
-0.000486196
-0.000468668
-0.00045118
-0.000433802
-0.000416593
-0.000399611
-0.000382904
-0.000366515
-0.000350483
-0.000334841
-0.000319615
-0.000304828
-0.000290498
-0.00027664
-0.000263263
-0.000250374
-0.000237975
-0.000226068
-0.000214649
-0.000203714
-0.000193255
-0.000183265
-0.000173733
-0.000531766
-0.000516297
-0.000500512
-0.000484499
-0.000468337
-0.000452102
-0.000435865
-0.000419689
-0.000403634
-0.000387753
-0.000372093
-0.000356699
-0.000341606
-0.000326848
-0.000312453
-0.000298444
-0.00028484
-0.000271657
-0.000258905
-0.000246594
-0.000234728
-0.00022331
-0.000212339
-0.000201812
-0.000191725
-0.000182072
-0.000172843
-0.000509143
-0.000494996
-0.000480514
-0.000465778
-0.000450863
-0.00043584
-0.000420777
-0.000405733
-0.000390767
-0.000375928
-0.000361263
-0.000346815
-0.000332619
-0.000318708
-0.000305111
-0.000291851
-0.000278949
-0.00026642
-0.000254278
-0.000242532
-0.000231189
-0.000220252
-0.000209724
-0.000199603
-0.000189887
-0.000180572
-0.000171651
-0.000487265
-0.000474345
-0.000461074
-0.000447529
-0.000433779
-0.000419892
-0.00040593
-0.000391953
-0.000378013
-0.000364161
-0.00035044
-0.000336891
-0.000323551
-0.000310451
-0.00029762
-0.000285081
-0.000272856
-0.000260962
-0.000249412
-0.000238217
-0.000227385
-0.000216922
-0.000206832
-0.000197113
-0.000187767
-0.000178789
-0.000170176
-0.00046611
-0.000454329
-0.000442185
-0.00042975
-0.000417089
-0.000404265
-0.000391339
-0.000378364
-0.000365394
-0.000352474
-0.000339647
-0.000326954
-0.00031443
-0.000302105
-0.000290008
-0.000278163
-0.000266591
-0.00025531
-0.000244335
-0.000233677
-0.000223345
-0.000213347
-0.000203686
-0.000194366
-0.000185386
-0.000176745
-0.000168441
-0.000445658
-0.000434934
-0.000423838
-0.000412438
-0.000400794
-0.000388967
-0.000377011
-0.000364981
-0.000352924
-0.000340886
-0.000328908
-0.000317027
-0.000305279
-0.000293695
-0.000282301
-0.000271122
-0.00026018
-0.000249492
-0.000239074
-0.000228937
-0.000219094
-0.00020955
-0.000200313
-0.000191384
-0.000182767
-0.000174461
-0.000166464
-0.000425888
-0.000416145
-0.000406025
-0.000395589
-0.000384896
-0.000374001
-0.000362957
-0.000351814
-0.000340619
-0.000329414
-0.000318239
-0.000307131
-0.000296123
-0.000285245
-0.000274524
-0.000263985
-0.000253648
-0.000243532
-0.000233653
-0.000224024
-0.000214655
-0.000205556
-0.000196733
-0.00018819
-0.000179931
-0.000171956
-0.000164266
-0.000406778
-0.000397947
-0.000388733
-0.000379197
-0.000369392
-0.00035937
-0.000349182
-0.000338875
-0.000328491
-0.000318074
-0.00030766
-0.000297284
-0.00028698
-0.000276776
-0.000266699
-0.000256773
-0.000247018
-0.000237454
-0.000228096
-0.000218958
-0.000210052
-0.000201386
-0.000192968
-0.000184804
-0.000176897
-0.00016925
-0.000161863
-0.00038831
-0.000380323
-0.000371954
-0.000363257
-0.000354281
-0.000345077
-0.000335692
-0.000326169
-0.000316551
-0.000306877
-0.000297183
-0.000287504
-0.000277869
-0.000268308
-0.000258846
-0.000249507
-0.000240312
-0.000231279
-0.000222425
-0.000213762
-0.000205304
-0.00019706
-0.000189038
-0.000181245
-0.000173684
-0.00016636
-0.000159274
-0.000370461
-0.00036326
-0.000355676
-0.00034776
-0.00033956
-0.000331121
-0.000322489
-0.000313705
-0.000304808
-0.000295836
-0.000286824
-0.000277804
-0.000268806
-0.000259857
-0.000250983
-0.000242206
-0.000233548
-0.000225027
-0.000216658
-0.000208455
-0.000200432
-0.000192599
-0.000184963
-0.000177532
-0.000170311
-0.000163305
-0.000156515
-0.000353212
-0.00034674
-0.000339887
-0.0003327
-0.000325224
-0.000317502
-0.000309577
-0.000301487
-0.000293269
-0.000284961
-0.000276593
-0.000268198
-0.000259805
-0.00025144
-0.000243127
-0.000234888
-0.000226745
-0.000218715
-0.000210814
-0.000203056
-0.000195454
-0.000188019
-0.000180759
-0.000173682
-0.000166794
-0.0001601
-0.000153602
-0.000336542
-0.000330748
-0.000324575
-0.000318068
-0.000311269
-0.000304219
-0.000296956
-0.000289518
-0.000281941
-0.000274258
-0.000266501
-0.000258699
-0.00025088
-0.00024307
-0.000235292
-0.000227568
-0.000219918
-0.00021236
-0.00020491
-0.000197581
-0.000190387
-0.000183338
-0.000176444
-0.000169712
-0.000163149
-0.00015676
-0.000150549
-0.000320434
-0.000315268
-0.000309728
-0.000303856
-0.000297689
-0.000291267
-0.000284626
-0.000277802
-0.000270828
-0.000263735
-0.000256555
-0.000249315
-0.000242042
-0.00023476
-0.000227493
-0.000220261
-0.000213083
-0.000205978
-0.000198961
-0.000192046
-0.000185246
-0.000178572
-0.000172032
-0.000165637
-0.000159391
-0.000153301
-0.000147372
-0.000304867
-0.000300286
-0.000295335
-0.000290054
-0.000284479
-0.000278645
-0.000272588
-0.00026634
-0.000259934
-0.000253399
-0.000246764
-0.000240056
-0.000233301
-0.000226521
-0.00021974
-0.000212978
-0.000206253
-0.000199583
-0.000192982
-0.000186466
-0.000180046
-0.000173734
-0.000167539
-0.00016147
-0.000155534
-0.000149736
-0.000144083
-0.000290131
-0.000286081
-0.000281668
-0.000276927
-0.000271893
-0.0002666
-0.000261079
-0.000255362
-0.000249479
-0.000243459
-0.000237329
-0.000231116
-0.000224842
-0.000218531
-0.000212204
-0.000205881
-0.00019958
-0.000193318
-0.000187109
-0.000180969
-0.000174908
-0.000168939
-0.000163071
-0.000157313
-0.000151672
-0.000146154
-0.000140764
-0.000276032
-0.000272473
-0.000268555
-0.000264315
-0.000259782
-0.000254989
-0.000249967
-0.000244745
-0.000239351
-0.000233813
-0.000228156
-0.000222406
-0.000216585
-0.000210715
-0.000204816
-0.000198908
-0.000193009
-0.000187133
-0.000181298
-0.000175515
-0.000169798
-0.000164157
-0.000158602
-0.000153142
-0.000147785
-0.000142536
-0.000137402
-0.000262123
-0.000259029
-0.000255584
-0.00025182
-0.000247766
-0.000243453
-0.000238909
-0.000234161
-0.000229238
-0.000224164
-0.000218964
-0.000213661
-0.000208278
-0.000202836
-0.000197354
-0.00019185
-0.000186342
-0.000180846
-0.000175375
-0.000169944
-0.000164564
-0.000159246
-0.000154
-0.000148835
-0.000143759
-0.000138778
-0.000133899
-0.00024841
-0.000245757
-0.000242761
-0.000239451
-0.000235854
-0.000231998
-0.000227912
-0.00022362
-0.000219148
-0.00021452
-0.000209761
-0.000204891
-0.000199932
-0.000194904
-0.000189827
-0.000184716
-0.00017959
-0.000174463
-0.000169349
-0.000164262
-0.000159213
-0.000154213
-0.000149272
-0.000144399
-0.000139601
-0.000134886
-0.000130259
-0.000234899
-0.000232664
-0.000230094
-0.000227215
-0.000224053
-0.000220635
-0.000216985
-0.00021313
-0.000209091
-0.000204893
-0.000200557
-0.000196104
-0.000191555
-0.000186929
-0.000182243
-0.000177515
-0.00017276
-0.000167993
-0.000163228
-0.000158477
-0.000153753
-0.000149065
-0.000144424
-0.000139839
-0.000135316
-0.000130864
-0.000126487
-0.000221595
-0.000219756
-0.000217589
-0.000215119
-0.000212372
-0.00020937
-0.000206138
-0.0002027
-0.000199076
-0.00019529
-0.000191362
-0.000187311
-0.000183157
-0.000178919
-0.000174613
-0.000170255
-0.000165861
-0.000161444
-0.000157019
-0.000152598
-0.000148191
-0.00014381
-0.000139464
-0.000135161
-0.00013091
-0.000126718
-0.000122589
-0.000208503
-0.000207038
-0.000205252
-0.000203171
-0.000200817
-0.000198212
-0.000195379
-0.000192339
-0.000189113
-0.000185721
-0.000182184
-0.00017852
-0.000174748
-0.000170884
-0.000166944
-0.000162946
-0.000158902
-0.000154826
-0.000150732
-0.000146632
-0.000142536
-0.000138455
-0.000134398
-0.000130374
-0.00012639
-0.000122454
-0.000118571
-0.000195628
-0.000194515
-0.000193091
-0.000191378
-0.000189397
-0.000187169
-0.000184715
-0.000182055
-0.000179209
-0.000176196
-0.000173034
-0.000169742
-0.000166336
-0.000162833
-0.000159248
-0.000155596
-0.000151892
-0.000148147
-0.000144376
-0.000140588
-0.000136795
-0.000133008
-0.000129234
-0.000125483
-0.000121762
-0.000118079
-0.000114439
-0.000182975
-0.000182194
-0.00018111
-0.000179745
-0.000178118
-0.000176248
-0.000174155
-0.000171857
-0.000169373
-0.000166722
-0.00016392
-0.000160984
-0.00015793
-0.000154775
-0.000151532
-0.000148216
-0.000144839
-0.000141416
-0.000137957
-0.000134474
-0.000130977
-0.000127476
-0.00012398
-0.000120496
-0.000117034
-0.000113599
-0.000110198
-0.000170547
-0.000170078
-0.000169316
-0.000168279
-0.000166987
-0.000165456
-0.000163706
-0.000161753
-0.000159615
-0.000157309
-0.00015485
-0.000152256
-0.000149541
-0.000146719
-0.000143806
-0.000140813
-0.000137754
-0.000134642
-0.000131486
-0.000128299
-0.00012509
-0.000121868
-0.000118642
-0.000115421
-0.000112212
-0.000109021
-0.000105855
-0.000158348
-0.000158172
-0.000157712
-0.000156986
-0.00015601
-0.000154801
-0.000153375
-0.00015175
-0.000149941
-0.000147964
-0.000145835
-0.000143567
-0.000141176
-0.000138676
-0.000136078
-0.000133398
-0.000130645
-0.000127833
-0.000124971
-0.000122071
-0.000119141
-0.000116192
-0.00011323
-0.000110265
-0.000107304
-0.000104353
-0.000101418
-0.000146383
-0.000146481
-0.000146305
-0.000145871
-0.000145193
-0.000144288
-0.00014317
-0.000141856
-0.00014036
-0.000138697
-0.00013688
-0.000134925
-0.000132845
-0.000130652
-0.000128359
-0.000125978
-0.000123521
-0.000120999
-0.000118422
-0.000115799
-0.000113141
-0.000110456
-0.000107751
-0.000105036
-0.000102317
-9.96007e-05
-9.68932e-05
-0.000134653
-0.000135009
-0.000135099
-0.000134939
-0.000134543
-0.000133924
-0.000133098
-0.000132078
-0.000130879
-0.000129514
-0.000127997
-0.00012634
-0.000124556
-0.000122658
-0.000120657
-0.000118564
-0.000116391
-0.000114149
-0.000111846
-0.000109492
-0.000107097
-0.000104668
-0.000102214
-9.97426e-05
-9.726e-05
-9.4773e-05
-9.22876e-05
-0.000123161
-0.000123758
-0.000124098
-0.000124195
-0.000124064
-0.000123716
-0.000123165
-0.000122424
-0.000121506
-0.000120424
-0.000119191
-0.000117818
-0.000116317
-0.000114701
-0.000112979
-0.000111164
-0.000109264
-0.00010729
-0.000105252
-0.000103158
-0.000101018
-9.88381e-05
-9.66272e-05
-9.43923e-05
-9.21401e-05
-8.9877e-05
-8.7609e-05
-0.000111911
-0.000112732
-0.000113305
-0.000113644
-0.000113761
-0.000113668
-0.000113376
-0.000112899
-0.000112248
-0.000111434
-0.000110471
-0.000109368
-0.000108138
-0.00010679
-0.000105336
-0.000103786
-0.000102148
-0.000100434
-9.86503e-05
-9.68071e-05
-9.49123e-05
-9.29736e-05
-9.09984e-05
-8.89935e-05
-8.69656e-05
-8.49208e-05
-8.28649e-05
-0.000100905
-0.000101934
-0.000102725
-0.00010329
-0.00010364
-0.000103786
-0.000103739
-0.00010351
-0.000103111
-0.000102552
-0.000101844
-0.000100999
-0.000100026
-9.89346e-05
-9.7736e-05
-9.6439e-05
-9.50529e-05
-9.35866e-05
-9.20485e-05
-9.04468e-05
-8.87894e-05
-8.70835e-05
-8.53364e-05
-8.35547e-05
-8.17446e-05
-7.99123e-05
-7.80633e-05
-9.01435e-05
-9.13668e-05
-9.23612e-05
-9.31373e-05
-9.37053e-05
-9.40753e-05
-9.42578e-05
-9.42632e-05
-9.41017e-05
-9.37834e-05
-9.33186e-05
-9.27169e-05
-9.1988e-05
-9.11415e-05
-9.01865e-05
-8.91319e-05
-8.79863e-05
-8.67582e-05
-8.54556e-05
-8.40862e-05
-8.26574e-05
-8.11764e-05
-7.96498e-05
-7.80842e-05
-7.64855e-05
-7.48596e-05
-7.32119e-05
-7.96295e-05
-8.10327e-05
-8.22159e-05
-8.31888e-05
-8.39607e-05
-8.45409e-05
-8.4939e-05
-8.51646e-05
-8.52271e-05
-8.5136e-05
-8.49006e-05
-8.453e-05
-8.40332e-05
-8.3419e-05
-8.26961e-05
-8.18727e-05
-8.09571e-05
-7.99571e-05
-7.88802e-05
-7.77339e-05
-7.65252e-05
-7.52608e-05
-7.39472e-05
-7.25905e-05
-7.11965e-05
-6.97709e-05
-6.83188e-05
-6.93641e-05
-7.09337e-05
-7.22922e-05
-7.34482e-05
-7.44103e-05
-7.5187e-05
-7.57872e-05
-7.62196e-05
-7.6493e-05
-7.66161e-05
-7.65973e-05
-7.64454e-05
-7.61685e-05
-7.5775e-05
-7.52728e-05
-7.46698e-05
-7.39736e-05
-7.31916e-05
-7.2331e-05
-7.13987e-05
-7.04014e-05
-6.93455e-05
-6.82371e-05
-6.70821e-05
-6.58861e-05
-6.46545e-05
-6.33923e-05
-5.93485e-05
-6.10718e-05
-6.25925e-05
-6.39186e-05
-6.50579e-05
-6.60181e-05
-6.68073e-05
-6.74337e-05
-6.79051e-05
-6.82297e-05
-6.84153e-05
-6.847e-05
-6.84013e-05
-6.82169e-05
-6.79244e-05
-6.7531e-05
-6.7044e-05
-6.64702e-05
-6.58163e-05
-6.5089e-05
-6.42945e-05
-6.34389e-05
-6.25281e-05
-6.15676e-05
-6.05628e-05
-5.95188e-05
-5.84405e-05
-4.95837e-05
-5.14487e-05
-5.31193e-05
-5.46031e-05
-5.5907e-05
-5.70381e-05
-5.80039e-05
-5.88117e-05
-5.9469e-05
-5.99829e-05
-6.0361e-05
-6.06105e-05
-6.07386e-05
-6.07523e-05
-6.06586e-05
-6.04645e-05
-6.01764e-05
-5.9801e-05
-5.93446e-05
-5.88133e-05
-5.82131e-05
-5.75497e-05
-5.68287e-05
-5.60554e-05
-5.52349e-05
-5.43721e-05
-5.34717e-05
-4.00706e-05
-4.20656e-05
-4.38746e-05
-4.55042e-05
-4.69608e-05
-4.8251e-05
-4.93814e-05
-5.03587e-05
-5.11899e-05
-5.18816e-05
-5.24406e-05
-5.28737e-05
-5.31874e-05
-5.33883e-05
-5.3483e-05
-5.34778e-05
-5.33788e-05
-5.31923e-05
-5.29241e-05
-5.258e-05
-5.21656e-05
-5.16864e-05
-5.11476e-05
-5.05542e-05
-4.99111e-05
-4.9223e-05
-4.84943e-05
-3.08097e-05
-3.2924e-05
-3.48602e-05
-3.66244e-05
-3.82225e-05
-3.96602e-05
-4.09437e-05
-4.20793e-05
-4.3073e-05
-4.39312e-05
-4.46601e-05
-4.52657e-05
-4.57544e-05
-4.6132e-05
-4.64048e-05
-4.65785e-05
-4.6659e-05
-4.6652e-05
-4.65629e-05
-4.63973e-05
-4.61605e-05
-4.58574e-05
-4.54931e-05
-4.50724e-05
-4.45998e-05
-4.40798e-05
-4.35167e-05
-2.18016e-05
-2.40249e-05
-2.6078e-05
-2.79661e-05
-2.96948e-05
-3.12692e-05
-3.2695e-05
-3.39778e-05
-3.51233e-05
-3.61372e-05
-3.70251e-05
-3.77929e-05
-3.8446e-05
-3.89903e-05
-3.94311e-05
-3.97741e-05
-4.00246e-05
-4.01879e-05
-4.02691e-05
-4.02735e-05
-4.02058e-05
-4.0071e-05
-3.98737e-05
-3.96183e-05
-3.93094e-05
-3.8951e-05
-3.85473e-05
-1.30467e-05
-1.53694e-05
-1.75293e-05
-1.95314e-05
-2.13804e-05
-2.30812e-05
-2.46389e-05
-2.60586e-05
-2.73454e-05
-2.85046e-05
-2.95414e-05
-3.0461e-05
-3.12687e-05
-3.19697e-05
-3.2569e-05
-3.30718e-05
-3.3483e-05
-3.38077e-05
-3.40506e-05
-3.42164e-05
-3.43099e-05
-3.43355e-05
-3.42976e-05
-3.42005e-05
-3.40483e-05
-3.3845e-05
-3.35945e-05
-4.54511e-06
-6.95813e-06
-9.21563e-06
-1.13221e-05
-1.32819e-05
-1.50993e-05
-1.67789e-05
-1.83255e-05
-1.97437e-05
-2.10384e-05
-2.22142e-05
-2.3276e-05
-2.42286e-05
-2.50767e-05
-2.58252e-05
-2.64786e-05
-2.70417e-05
-2.7519e-05
-2.7915e-05
-2.82342e-05
-2.84808e-05
-2.86591e-05
-2.87733e-05
-2.88273e-05
-2.8825e-05
-2.87702e-05
-2.86667e-05
3.7029e-06
1.20809e-06
-1.13825e-06
-3.34012e-06
-5.40149e-06
-7.32621e-06
-9.11849e-06
-1.07826e-05
-1.23227e-05
-1.37433e-05
-1.50487e-05
-1.62433e-05
-1.73315e-05
-1.83177e-05
-1.92063e-05
-2.00015e-05
-2.07077e-05
-2.13291e-05
-2.187e-05
-2.23344e-05
-2.27264e-05
-2.30499e-05
-2.33088e-05
-2.35069e-05
-2.36478e-05
-2.37351e-05
-2.37722e-05
1.16972e-05
9.1286e-06
6.70167e-06
4.41283e-06
2.2585e-06
2.35237e-07
-1.66078e-06
-3.43338e-06
-5.08649e-06
-6.62404e-06
-8.05002e-06
-9.36844e-06
-1.05833e-05
-1.16988e-05
-1.27187e-05
-1.36471e-05
-1.44881e-05
-1.52454e-05
-1.59231e-05
-1.65249e-05
-1.70546e-05
-1.75159e-05
-1.79123e-05
-1.82475e-05
-1.85249e-05
-1.87478e-05
-1.89195e-05
1.94378e-05
1.68028e-05
1.4303e-05
1.19351e-05
9.69596e-06
7.58243e-06
5.59108e-06
3.71843e-06
1.96094e-06
3.15038e-07
-1.22291e-06
-2.65659e-06
-3.98967e-06
-5.22584e-06
-6.36879e-06
-7.4222e-06
-8.38974e-06
-9.27504e-06
-1.00817e-05
-1.08132e-05
-1.14732e-05
-1.20649e-05
-1.25919e-05
-1.30574e-05
-1.34647e-05
-1.38168e-05
-1.4117e-05
2.69246e-05
2.42302e-05
2.16647e-05
1.92252e-05
1.69088e-05
1.47128e-05
1.26341e-05
1.06694e-05
8.81567e-06
7.06958e-06
5.42784e-06
3.88711e-06
2.44402e-06
1.09521e-06
-1.62713e-07
-1.33314e-06
-2.41942e-06
-3.42492e-06
-4.35296e-06
-5.20681e-06
-5.98973e-06
-6.70491e-06
-7.35551e-06
-7.94461e-06
-8.47524e-06
-8.95035e-06
-9.37283e-06
3.41575e-05
3.14102e-05
2.87857e-05
2.62816e-05
2.38952e-05
2.1624e-05
1.94653e-05
1.74162e-05
1.54739e-05
1.36354e-05
1.18976e-05
1.02576e-05
8.71235e-06
7.25866e-06
5.89348e-06
4.61371e-06
3.41624e-06
2.298e-06
1.25593e-06
2.86979e-07
-6.11852e-07
-1.44354e-06
-2.21101e-06
-2.91714e-06
-3.56476e-06
-4.15664e-06
-4.69548e-06
4.11365e-05
3.83422e-05
3.56651e-05
3.31028e-05
3.0653e-05
2.83136e-05
2.6082e-05
2.39556e-05
2.1932e-05
2.00083e-05
1.8182e-05
1.64501e-05
1.48101e-05
1.32589e-05
1.17939e-05
1.04121e-05
9.11072e-06
7.88694e-06
6.73792e-06
5.66087e-06
4.65298e-06
3.71151e-06
2.83375e-06
2.01701e-06
1.25866e-06
5.56107e-07
-9.31828e-08
4.78614e-05
4.50257e-05
4.23017e-05
3.96873e-05
3.71804e-05
3.47791e-05
3.24812e-05
3.02843e-05
2.81862e-05
2.61844e-05
2.42764e-05
2.24598e-05
2.0732e-05
1.90905e-05
1.75326e-05
1.60558e-05
1.46576e-05
1.33352e-05
1.20861e-05
1.09077e-05
9.79736e-06
8.75265e-06