/*--------------------------------*- C++ -*----------------------------------*\
| =========                 |                                                 |
| \\      /  F ield         | OpenFOAM: The Open Source CFD Toolbox           |
|  \\    /   O peration     | Version:  2412                                  |
|   \\  /    A nd           | Website:  www.openfoam.com                      |
|    \\/     M anipulation  |                                                 |
\*---------------------------------------------------------------------------*/
FoamFile
{
    version     2.0;
    format      ascii;
    arch        "LSB;label=32;scalar=64";
    class       volScalarField;
    location    "23.5";
    object      p;
}
// * * * * * * * * * * * * * * * * * * * * * * * * * * * * * * * * * * * * * //

dimensions      [0 2 -2 0 0 0 0];

internalField   nonuniform List<scalar> 
63420
(
0.000925468
0.000925728
0.000926557
0.000927837
0.000929551
0.000931686
0.000934225
0.000937154
0.000940463
0.00094414
0.000948179
0.00095257
0.000957308
0.000962386
0.0009678
0.000973544
0.000979615
0.000986009
0.000992724
0.000999758
0.00100711
0.00101478
0.00102278
0.00103109
0.00103974
0.00104871
0.00105801
0.00106764
0.00107761
0.00108792
0.00109858
0.00110958
0.00112093
0.00113263
0.00114469
0.00115711
0.00116989
0.00118304
0.00119657
0.00121046
0.00122474
0.0012394
0.00125444
0.00126988
0.00128571
0.00130194
0.00131858
0.00133562
0.00135307
0.00137095
0.00138924
0.00140796
0.00142711
0.00144669
0.00146672
0.000925408
0.000925668
0.000926496
0.000927775
0.000929488
0.000931621
0.000934158
0.000937086
0.000940392
0.000944067
0.000948102
0.00095249
0.000957224
0.000962298
0.000967708
0.000973447
0.000979513
0.000985902
0.00099261
0.000999638
0.00100698
0.00101465
0.00102264
0.00103094
0.00103958
0.00104854
0.00105783
0.00106745
0.00107741
0.00108771
0.00109835
0.00110934
0.00112068
0.00113236
0.00114441
0.00115681
0.00116957
0.00118271
0.00119621
0.00121008
0.00122433
0.00123897
0.00125399
0.0012694
0.0012852
0.0013014
0.001318
0.00133501
0.00135243
0.00137026
0.00138852
0.00140719
0.0014263
0.00144583
0.00146581
0.000925288
0.000925548
0.000926375
0.000927652
0.000929362
0.000931492
0.000934026
0.000936949
0.00094025
0.00094392
0.000947949
0.00095233
0.000957056
0.000962123
0.000967523
0.000973254
0.000979309
0.000985687
0.000992383
0.000999399
0.00100673
0.00101438
0.00102235
0.00103065
0.00103926
0.0010482
0.00105748
0.00106708
0.00107702
0.00108729
0.00109791
0.00110887
0.00112017
0.00113183
0.00114384
0.00115621
0.00116894
0.00118203
0.00119549
0.00120932
0.00122353
0.00123812
0.00125309
0.00126844
0.00128418
0.00130032
0.00131686
0.0013338
0.00135115
0.0013689
0.00138707
0.00140566
0.00142467
0.00144411
0.00146398
0.000925108
0.000925368
0.000926193
0.000927467
0.000929173
0.000931299
0.000933827
0.000936744
0.000940038
0.000943699
0.000947719
0.00095209
0.000956805
0.00096186
0.000967247
0.000972963
0.000979003
0.000985364
0.000992043
0.00099904
0.00100635
0.00101398
0.00102193
0.0010302
0.00103879
0.0010477
0.00105694
0.00106651
0.00107642
0.00108666
0.00109724
0.00110816
0.00111942
0.00113103
0.001143
0.00115531
0.00116799
0.00118102
0.00119442
0.00120819
0.00122233
0.00123684
0.00125173
0.00126701
0.00128267
0.00129871
0.00131515
0.00133199
0.00134923
0.00136687
0.00138492
0.00140338
0.00142225
0.00144154
0.00146125
0.000924868
0.000925127
0.00092595
0.00092722
0.000928922
0.000931042
0.000933563
0.000936471
0.000939755
0.000943406
0.000947413
0.00095177
0.000956471
0.000961509
0.000966879
0.000972576
0.000978596
0.000984935
0.000991591
0.000998562
0.00100585
0.00101345
0.00102137
0.0010296
0.00103816
0.00104703
0.00105624
0.00106577
0.00107562
0.00108582
0.00109635
0.00110721
0.00111842
0.00112997
0.00114187
0.00115412
0.00116672
0.00117968
0.001193
0.00120668
0.00122073
0.00123515
0.00124994
0.0012651
0.00128065
0.00129657
0.00131289
0.00132959
0.00134668
0.00136417
0.00138206
0.00140034
0.00141903
0.00143813
0.00145764
0.000924569
0.000924827
0.000925647
0.000926913
0.000928609
0.000930721
0.000933233
0.00093613
0.000939402
0.000943039
0.000947031
0.000951372
0.000956054
0.000961072
0.00096642
0.000972093
0.000978087
0.000984399
0.000991026
0.000997965
0.00100522
0.00101278
0.00102066
0.00102886
0.00103737
0.0010462
0.00105535
0.00106483
0.00107463
0.00108477
0.00109523
0.00110603
0.00111717
0.00112865
0.00114047
0.00115263
0.00116515
0.00117801
0.00119123
0.0012048
0.00121874
0.00123304
0.0012477
0.00126273
0.00127813
0.00129391
0.00131006
0.0013266
0.00134351
0.00136081
0.0013785
0.00139658
0.00141504
0.0014339
0.00145315
0.00092421
0.000924468
0.000925284
0.000926545
0.000928233
0.000930336
0.000932837
0.000935722
0.000938979
0.0009426
0.000946574
0.000950894
0.000955554
0.000960548
0.00096587
0.000971515
0.000977479
0.000983758
0.000990349
0.000997251
0.00100446
0.00101199
0.00101982
0.00102797
0.00103643
0.0010452
0.0010543
0.00106371
0.00107345
0.00108351
0.0010939
0.00110462
0.00111568
0.00112706
0.00113879
0.00115085
0.00116326
0.00117601
0.00118911
0.00120256
0.00121636
0.00123052
0.00124503
0.0012599
0.00127514
0.00129074
0.0013067
0.00132303
0.00133974
0.00135681
0.00137426
0.00139209
0.00141029
0.00142887
0.00144781
0.00148725
0.00150849
0.00153065
0.00155376
0.00157788
0.00160309
0.00162943
0.00165699
0.00168583
0.00171604
0.00174771
0.00178093
0.0018158
0.00185245
0.00189098
0.00193155
0.00197428
0.00201935
0.00206692
0.00211717
0.00217034
0.00222663
0.0022863
0.00234963
0.00241691
0.0024885
0.00256474
0.00264606
0.00273289
0.00282574
0.00292514
0.00303169
0.00314605
0.00326893
0.00340107
0.00354327
0.00369635
0.00386108
0.00403812
0.00422788
0.00443035
0.00464479
0.00486944
0.00510133
0.00533657
0.00557125
0.00580176
0.00603454
0.00633476
0.0067918
0.00148631
0.00150755
0.00152971
0.00155281
0.00157694
0.00160214
0.00162848
0.00165603
0.00168487
0.00171507
0.00174673
0.00177995
0.00181481
0.00185145
0.00188997
0.00193051
0.00197322
0.00201826
0.00206579
0.002116
0.00216911
0.00222533
0.00228491
0.00234813
0.00241528
0.0024867
0.00256274
0.0026438
0.00273032
0.00282277
0.00292167
0.0030276
0.00314117
0.00326304
0.0033939
0.00353446
0.00368542
0.00384741
0.00402088
0.00420598
0.00440236
0.00460883
0.00482309
0.00504143
0.00525913
0.00547136
0.00567403
0.0058727
0.00612833
0.00652338
0.00148443
0.00150567
0.00152782
0.00155092
0.00157504
0.00160024
0.00162657
0.00165412
0.00168295
0.00171314
0.00174479
0.00177799
0.00181283
0.00184944
0.00188793
0.00192844
0.0019711
0.00201608
0.00206354
0.00211366
0.00216665
0.00222273
0.00228214
0.00234515
0.00241204
0.00248314
0.00255877
0.00263933
0.00272523
0.0028169
0.00291483
0.00301953
0.00313154
0.00325143
0.00337977
0.00351709
0.00366386
0.00382041
0.00398679
0.00416262
0.00434684
0.00453735
0.00473068
0.00492172
0.005104
0.00527087
0.0054174
0.00554765
0.0057101
0.00599362
0.00148162
0.00150286
0.00152499
0.00154809
0.0015722
0.00159738
0.0016237
0.00165123
0.00168005
0.00171022
0.00174185
0.00177502
0.00180983
0.0018464
0.00188484
0.00192528
0.00196787
0.00201275
0.0020601
0.00211007
0.00216289
0.00221875
0.0022779
0.00234058
0.00240706
0.00247765
0.00255266
0.00263245
0.00271739
0.00280787
0.00290431
0.00300714
0.00311679
0.00323369
0.00335822
0.00349066
0.00363114
0.00377955
0.00393534
0.00409735
0.00426344
0.00443016
0.00459231
0.00474264
0.00487211
0.00497121
0.00503366
0.00506473
0.00509752
0.00518457
0.00147789
0.00149912
0.00152125
0.00154434
0.00156844
0.00159361
0.00161992
0.00164744
0.00167624
0.0017064
0.00173801
0.00177115
0.00180593
0.00184245
0.00188084
0.00192121
0.00196371
0.00200848
0.00205568
0.00210548
0.00215807
0.00221366
0.00227246
0.00233471
0.00240067
0.0024706
0.0025448
0.00262357
0.00270724
0.00279613
0.00289058
0.0029909
0.00309738
0.00321025
0.00332962
0.00345545
0.00358742
0.00372479
0.00386621
0.00400946
0.00415103
0.00428566
0.0044059
0.00450178
0.00456099
0.0045703
0.00452073
0.00442043
0.0042914
0.00407492
0.00147326
0.00149449
0.00151663
0.00153973
0.00156384
0.00158904
0.00161538
0.00164292
0.00167175
0.00170194
0.00173358
0.00176676
0.00180158
0.00183813
0.00187655
0.00191694
0.00195946
0.00200423
0.00205142
0.00210118
0.00215371
0.0022092
0.00226785
0.00232988
0.00239553
0.00246505
0.0025387
0.00261673
0.00269943
0.00278705
0.00287982
0.00297794
0.00308151
0.00319054
0.0033048
0.00342378
0.00354651
0.00367137
0.00379574
0.00391569
0.00402541
0.00411669
0.00417834
0.004196
0.00415242
0.00402929
0.00381322
0.00351318
0.00314297
0.00251699
0.00146771
0.00148887
0.00151096
0.001534
0.00155807
0.00158322
0.00160951
0.00163701
0.0016658
0.00169594
0.00172754
0.00176067
0.00179543
0.00183193
0.00187029
0.00191062
0.00195306
0.00199774
0.00204483
0.00209447
0.00214684
0.00220214
0.00226055
0.00232228
0.00238756
0.00245661
0.00252965
0.00260691
0.00268862
0.00277496
0.00286608
0.00296204
0.00306279
0.00316808
0.00327734
0.00338957
0.00350307
0.00361512
0.00372158
0.00381623
0.00389015
0.00393088
0.00392191
0.00384264
0.00366922
0.00337606
0.00294633
0.00239318
0.00168021
0.00051966
-0.00349565
-0.00356467
-0.00358657
-0.00357505
-0.00354194
-0.00349016
-0.00342111
-0.0033359
-0.00324003
-0.00313136
-0.00301189
-0.0028834
-0.00274729
-0.002605
-0.0024572
-0.00230661
-0.00215385
-0.0020003
-0.00184723
-0.00169585
-0.00154725
-0.00140236
-0.00126211
-0.00112734
-0.00099873
-0.000876778
-0.000761852
-0.00065426
-0.000554203
-0.00046177
-0.00037695
-0.000299648
-0.000229694
-0.00016685
-0.000110821
-6.12697e-05
-1.78225e-05
1.99192e-05
5.23701e-05
7.9953e-05
0.000103091
0.000122202
0.000137691
0.000149948
0.000159345
0.000166229
0.000170926
0.000173732
0.000174921
0.000174739
-0.00356924
-0.0036169
-0.00362596
-0.0036068
-0.00356857
-0.00351338
-0.00344232
-0.00335665
-0.00325942
-0.00315026
-0.00303072
-0.00290229
-0.00276622
-0.00262387
-0.00247651
-0.00232576
-0.00217287
-0.00201912
-0.00186578
-0.00171404
-0.00156499
-0.00141958
-0.00127874
-0.00114331
-0.00101401
-0.000891339
-0.000775668
-0.000667315
-0.000566492
-0.000473297
-0.000387727
-0.000309693
-0.00023903
-0.000175503
-0.000118822
-6.86508e-05
-2.4618e-05
1.36746e-05
4.66415e-05
7.47059e-05
9.82916e-05
0.000117817
0.00013369
0.000146302
0.000156025
0.000163209
0.000168181
0.000171241
0.000172662
0.000172697
-0.00371559
-0.00371981
-0.0037034
-0.00366904
-0.00362043
-0.00355838
-0.00348313
-0.00339607
-0.00329649
-0.00318654
-0.00306669
-0.00293852
-0.00280244
-0.00266037
-0.00251329
-0.00236256
-0.00220954
-0.00205549
-0.00190168
-0.00174928
-0.00159942
-0.00145305
-0.00131109
-0.00117442
-0.0010438
-0.000919747
-0.000802648
-0.00069283
-0.000590529
-0.00049586
-0.000408836
-0.00032938
-0.000257337
-0.000192481
-0.000134529
-8.31493e-05
-3.79726e-05
1.39697e-06
3.53734e-05
6.43804e-05
8.88431e-05
0.000109182
0.000125808
0.000139114
0.000149477
0.00015725
0.000162763
0.000166321
0.000168197
0.000168658
-0.00394054
-0.00386616
-0.00381623
-0.00375894
-0.00369456
-0.00362232
-0.00354039
-0.00345021
-0.00334853
-0.00323788
-0.0031165
-0.00298894
-0.0028536
-0.00271192
-0.00256515
-0.00241457
-0.00226147
-0.0021071
-0.00195269
-0.00179946
-0.00164851
-0.00150085
-0.00135737
-0.001219
-0.00108652
-0.000960524
-0.000841421
-0.00072954
-0.000625148
-0.00052839
-0.0004393
-0.00035782
-0.000283809
-0.000217055
-0.000157283
-0.00010417
-5.73516e-05
-1.64345e-05
1.89941e-05
4.93583e-05
7.5085e-05
9.65974e-05
0.000114309
0.000128618
0.000139905
0.000148529
0.000154824
0.0001591
0.000161637
0.000162715
-0.00422469
-0.00405697
-0.0039619
-0.00387146
-0.00378591
-0.00370018
-0.00360897
-0.00351483
-0.00341035
-0.00329811
-0.00317768
-0.00304985
-0.00291493
-0.00277385
-0.00262765
-0.00247747
-0.00232449
-0.00216995
-0.00201506
-0.00186102
-0.00170897
-0.00155991
-0.00141479
-0.00127448
-0.00113987
-0.00101161
-0.000890131
-0.000775792
-0.00066889
-0.000569604
-0.000477997
-0.000394034
-0.000317597
-0.000248489
-0.000186451
-0.000131168
-8.2286e-05
-3.94153e-05
-2.14623e-06
2.99443e-05
5.72843e-05
8.02989e-05
9.94049e-05
0.000115005
0.000127484
0.000137207
0.000144513
0.000149717
0.00015311
0.00015499
-0.00452406
-0.00429299
-0.00414212
-0.00401099
-0.0038958
-0.00378909
-0.00368836
-0.00358378
-0.00347436
-0.0033599
-0.00323905
-0.00311158
-0.00297774
-0.00283806
-0.0026933
-0.00254443
-0.00239251
-0.00223869
-0.00208412
-0.00192999
-0.00177744
-0.0016275
-0.00148112
-0.00133919
-0.00120261
-0.00107211
-0.000948214
-0.000831296
-0.000721691
-0.000619624
-0.000525196
-0.000438406
-0.000359163
-0.000287299
-0.000222574
-0.000164693
-0.000113314
-6.80582e-05
-2.85236e-05
5.70841e-06
3.50634e-05
5.99664e-05
8.08351e-05
9.80751e-05
0.000112075
0.000123202
0.000131803
0.000138199
0.00014269
0.000145589
-0.00481151
-0.00458885
-0.00438508
-0.00420263
-0.00404478
-0.00390313
-0.0037886
-0.00367123
-0.00355451
-0.00343587
-0.00331307
-0.00318524
-0.00305202
-0.00291349
-0.00277008
-0.00262249
-0.0024716
-0.00231844
-0.00216411
-0.00200974
-0.00185646
-0.00170536
-0.00155739
-0.00141345
-0.00127448
-0.00114129
-0.00101446
-0.000894451
-0.000781631
-0.000676272
-0.000578521
-0.000488416
-0.000405902
-0.000330839
-0.000263014
-0.000202149
-0.000147919
-9.99558e-05
-5.78655e-05
-2.12331e-05
1.03659e-05
3.73576e-05
6.0163e-05
7.9192e-05
9.48386e-05
0.000107478
0.000117461
0.000125118
0.000130761
0.000134699
0.000173407
0.000171025
0.000167779
0.00016383
0.000159296
0.000154288
0.000148908
0.000143248
0.00013739
0.000131408
0.000125365
0.000119318
0.000113314
0.000107394
0.000101591
9.59336e-05
9.04424e-05
8.51344e-05
8.0022e-05
7.51137e-05
7.04148e-05
6.59277e-05
6.16525e-05
5.75877e-05
5.373e-05
5.00751e-05
4.66179e-05
4.33525e-05
4.02728e-05
3.73724e-05
3.46447e-05
3.20832e-05
2.96812e-05
2.74322e-05
2.53296e-05
2.33668e-05
2.1537e-05
1.98336e-05
1.825e-05
1.67793e-05
1.54153e-05
1.41509e-05
1.29813e-05
1.18967e-05
1.08961e-05
9.97565e-06
9.12175e-06
8.33524e-06
7.6116e-06
6.94562e-06
6.33337e-06
5.77106e-06
5.25511e-06
4.78215e-06
4.34902e-06
3.95274e-06
3.59052e-06
3.25974e-06
2.95794e-06
2.68284e-06
2.43229e-06
2.20429e-06
1.99701e-06
1.80869e-06
1.63773e-06
1.48267e-06
1.34212e-06
1.21482e-06
1.09961e-06
9.95385e-07
9.01165e-07
8.16035e-07
7.39158e-07
6.69765e-07
6.07169e-07
5.50706e-07
4.99833e-07
4.53982e-07
4.12756e-07
3.75587e-07
3.4235e-07
3.12147e-07
2.85658e-07
2.60761e-07
2.40408e-07
2.18836e-07
2.05137e-07
1.83747e-07
1.79362e-07
1.52455e-07
1.63825e-07
1.21052e-07
1.60632e-07
8.49697e-08
1.72702e-07
4.01884e-08
2.01627e-07
-1.41693e-08
2.44237e-07
-7.21636e-08
2.89378e-07
-1.19072e-07
3.1896e-07
-1.3604e-07
3.16395e-07
-1.13079e-07
2.83088e-07
-6.63296e-08
2.53249e-07
-4.71506e-08
2.93438e-07
-1.3089e-07
4.79367e-07
-3.89249e-07
8.59087e-07
0.000171595
0.000169332
0.000166201
0.000162375
0.000157962
0.000153067
0.000147793
0.000142232
0.000136465
0.000130567
0.000124602
0.000118625
0.000112686
0.000106825
0.000101076
9.54674e-05
9.00206e-05
8.4753e-05
7.96773e-05
7.48022e-05
7.01334e-05
6.56736e-05
6.14232e-05
5.73807e-05
5.35433e-05
4.99068e-05
4.64663e-05
4.3216e-05
4.01501e-05
3.72621e-05
3.45456e-05
3.19943e-05
2.96015e-05
2.73608e-05
2.52657e-05
2.33095e-05
2.14858e-05
1.97878e-05
1.8209e-05
1.67427e-05
1.53826e-05
1.41216e-05
1.29552e-05
1.18734e-05
1.08753e-05
9.95708e-06
9.10519e-06
8.32049e-06
7.59848e-06
6.93396e-06
6.32301e-06
5.76187e-06
5.24697e-06
4.77494e-06
4.34265e-06
3.94711e-06
3.58555e-06
3.25536e-06
2.95409e-06
2.67945e-06
2.42932e-06
2.20168e-06
1.99472e-06
1.80669e-06
1.63598e-06
1.48115e-06
1.34079e-06
1.21366e-06
1.0986e-06
9.94503e-07
9.00397e-07
8.15368e-07
7.38578e-07
6.69261e-07
6.06734e-07
5.50328e-07
4.99506e-07
4.53701e-07
4.12512e-07
3.75378e-07
3.42167e-07
3.11989e-07
2.85522e-07
2.60643e-07
2.40306e-07
2.18751e-07
2.05061e-07
1.83684e-07
1.79303e-07
1.52408e-07
1.63776e-07
1.21023e-07
1.6059e-07
8.49536e-08
1.72662e-07
4.01817e-08
2.01587e-07
-1.41672e-08
2.44201e-07
-7.21599e-08
2.89349e-07
-1.19073e-07
3.18942e-07
-1.36049e-07
3.16384e-07
-1.13091e-07
2.83076e-07
-6.63371e-08
2.53222e-07
-4.71309e-08
2.93385e-07
-1.30858e-07
4.79364e-07
-3.89277e-07
8.59306e-07
0.00016799
0.000165968
0.000163069
0.00015949
0.000155315
0.000150644
0.00014558
0.000140214
0.000134629
0.000128897
0.000123085
0.000117248
0.000111437
0.000105693
0.000100051
9.45393e-05
8.91808e-05
8.39935e-05
7.89906e-05
7.41817e-05
6.95728e-05
6.51673e-05
6.09661e-05
5.69682e-05
5.31712e-05
4.95714e-05
4.6164e-05
4.29439e-05
3.99052e-05
3.70419e-05
3.43479e-05
3.18168e-05
2.94424e-05
2.72182e-05
2.5138e-05
2.31952e-05
2.13836e-05
1.96964e-05
1.81273e-05
1.66696e-05
1.53172e-05
1.40632e-05
1.29031e-05
1.18268e-05
1.08337e-05
9.91996e-06
9.07212e-06
8.29103e-06
7.57226e-06
6.91065e-06
6.30231e-06
5.74351e-06
5.23069e-06
4.76054e-06
4.32991e-06
3.93586e-06
3.57563e-06
3.24662e-06
2.94639e-06
2.67268e-06
2.42337e-06
2.19647e-06
1.99015e-06
1.80268e-06
1.63249e-06
1.47809e-06
1.33812e-06
1.21134e-06
1.09657e-06
9.9274e-07
8.98864e-07
8.14034e-07
7.37419e-07
6.68257e-07
6.05861e-07
5.49575e-07
4.98856e-07
4.53139e-07
4.1203e-07
3.74958e-07
3.41807e-07
3.11676e-07
2.85249e-07
2.6041e-07
2.40102e-07
2.18578e-07
2.04907e-07
1.8356e-07
1.79181e-07
1.52319e-07
1.63676e-07
1.20962e-07
1.60504e-07
8.4923e-08
1.72581e-07
4.01718e-08
2.0151e-07
-1.41676e-08
2.44127e-07
-7.21545e-08
2.89295e-07
-1.19076e-07
3.18904e-07
-1.36064e-07
3.16361e-07
-1.13114e-07
2.8305e-07
-6.63461e-08
2.53163e-07
-4.70912e-08
2.93286e-07
-1.30806e-07
4.79372e-07
-3.89349e-07
8.59741e-07
0.000162635
0.000160977
0.000158432
0.00015522
0.000151398
0.000147058
0.000142303
0.000137224
0.000131905
0.000126419
0.000120832
0.000115202
0.000109581
0.00010401
9.85258e-05
9.3158e-05
8.79305e-05
8.28623e-05
7.79676e-05
7.32568e-05
6.8737e-05
6.44122e-05
6.02842e-05
5.63528e-05
5.2616e-05
4.90707e-05
4.57128e-05
4.25375e-05
3.95395e-05
3.67132e-05
3.40525e-05
3.15517e-05
2.92046e-05
2.70051e-05
2.49471e-05
2.30244e-05
2.12307e-05
1.95597e-05
1.8005e-05
1.65603e-05
1.52195e-05
1.39759e-05
1.2825e-05
1.17571e-05
1.07715e-05
9.86441e-06
9.02261e-06
8.24693e-06
7.53302e-06
6.87576e-06
6.27132e-06
5.71601e-06
5.20633e-06
4.73897e-06
4.31084e-06
3.91901e-06
3.56076e-06
3.23351e-06
2.93485e-06
2.66254e-06
2.41446e-06
2.18866e-06
1.9833e-06
1.79669e-06
1.62725e-06
1.47351e-06
1.33413e-06
1.20785e-06
1.09354e-06
9.90099e-07
8.96567e-07
8.12038e-07
7.35686e-07
6.66754e-07
6.04557e-07
5.48447e-07
4.97881e-07
4.52297e-07
4.11304e-07
3.7433e-07
3.41264e-07
3.11206e-07
2.84842e-07
2.6006e-07
2.39797e-07
2.18318e-07
2.04675e-07
1.83371e-07
1.79e-07
1.52183e-07
1.63528e-07
1.20872e-07
1.60377e-07
8.48753e-08
1.72463e-07
4.01543e-08
2.01397e-07
-1.4168e-08
2.44022e-07
-7.21486e-08
2.89215e-07
-1.19082e-07
3.1885e-07
-1.3609e-07
3.16328e-07
-1.13152e-07
2.83013e-07
-6.63619e-08
2.53078e-07
-4.70371e-08
2.93146e-07
-1.30732e-07
4.79389e-07
-3.8946e-07
8.60387e-07
0.0001556
0.00015443
0.000152366
0.000149636
0.000146273
0.000142363
0.000138009
0.000133304
0.000128331
0.000123164
0.000117871
0.000112511
0.000107137
0.000101793
9.65154e-05
9.13363e-05
8.62807e-05
8.13688e-05
7.66163e-05
7.20347e-05
6.76321e-05
6.34138e-05
5.93823e-05
5.55384e-05
5.1881e-05
4.84078e-05
4.51153e-05
4.19993e-05
3.9055e-05
3.62774e-05
3.36609e-05
3.12001e-05
2.88892e-05
2.67223e-05
2.46938e-05
2.27976e-05
2.10277e-05
1.9378e-05
1.78425e-05
1.6415e-05
1.50896e-05
1.38597e-05
1.27212e-05
1.16644e-05
1.06887e-05
9.79056e-06
8.95679e-06
8.1883e-06
7.48083e-06
6.82936e-06
6.23011e-06
5.67945e-06
5.17392e-06
4.71028e-06
4.28547e-06
3.8966e-06
3.54099e-06
3.21609e-06
2.91951e-06
2.64905e-06
2.40261e-06
2.17826e-06
1.97419e-06
1.78872e-06
1.62027e-06
1.46742e-06
1.32881e-06
1.20322e-06
1.0895e-06
9.86585e-07
8.93511e-07
8.09383e-07
7.33381e-07
6.64753e-07
6.02823e-07
5.46947e-07
4.96583e-07
4.51176e-07
4.10337e-07
3.73492e-07
3.4054e-07
3.10581e-07
2.84299e-07
2.59594e-07
2.3939e-07
2.17973e-07
2.04367e-07
1.83119e-07
1.78761e-07
1.52001e-07
1.63334e-07
1.20751e-07
1.60211e-07
8.48065e-08
1.72312e-07
4.01236e-08
2.01256e-07
-1.4178e-08
2.43897e-07
-7.21551e-08
2.89125e-07
-1.19107e-07
3.18795e-07
-1.36142e-07
3.16301e-07
-1.13218e-07
2.82977e-07
-6.63939e-08
2.52976e-07
-4.69769e-08
2.92974e-07
-1.30652e-07
4.79431e-07
-3.89632e-07
8.61253e-07
0.000146973
0.000146425
0.00014497
0.000142829
0.000140021
0.00013663
0.000132762
0.000128508
0.000123953
0.000119173
0.000114237
0.000109205
0.000104132
9.90639e-05
9.40391e-05
8.90907e-05
8.42456e-05
7.95255e-05
7.49475e-05
7.05246e-05
6.62662e-05
6.21788e-05
5.82663e-05
5.45303e-05
5.09709e-05
4.75865e-05
4.43747e-05
4.13319e-05
3.84542e-05
3.57368e-05
3.3175e-05
3.07636e-05
2.84975e-05
2.63711e-05
2.4379e-05
2.25156e-05
2.07753e-05
1.91522e-05
1.76404e-05
1.62342e-05
1.49279e-05
1.37152e-05
1.2592e-05
1.1549e-05
1.05857e-05
9.69859e-06
8.87481e-06
8.11527e-06
7.41583e-06
6.77157e-06
6.17878e-06
5.6339e-06
5.13355e-06
4.67454e-06
4.25385e-06
3.86868e-06
3.51635e-06
3.19436e-06
2.90039e-06
2.63223e-06
2.38784e-06
2.1653e-06
1.96283e-06
1.77877e-06
1.61158e-06
1.45982e-06
1.32218e-06
1.19744e-06
1.08446e-06
9.82203e-07
8.89701e-07
8.06072e-07
7.30506e-07
6.6226e-07
6.0066e-07
5.45075e-07
4.94964e-07
4.49777e-07
4.09128e-07
3.72448e-07
3.39637e-07
3.098e-07
2.83622e-07
2.59012e-07
2.38883e-07
2.17541e-07
2.03983e-07
1.82803e-07
1.78462e-07
1.51775e-07
1.63092e-07
1.20599e-07
1.60004e-07
8.4721e-08
1.72123e-07
4.00872e-08
2.01079e-07
-1.41865e-08
2.43739e-07
-7.21587e-08
2.89007e-07
-1.19133e-07
3.18723e-07
-1.36203e-07
3.16263e-07
-1.13295e-07
2.82928e-07
-6.64311e-08
2.52847e-07
-4.69032e-08
2.92762e-07
-1.30553e-07
4.7948e-07
-3.89837e-07
8.62285e-07
0.000136858
0.00013708
0.000136364
0.000134906
0.000132735
0.000129943
0.000126632
0.000122898
0.000118825
0.000114492
0.000109968
0.000105318
0.000100595
9.58486e-05
9.11186e-05
8.644e-05
8.18413e-05
7.73461e-05
7.2973e-05
6.87367e-05
6.46481e-05
6.0715e-05
5.69427e-05
5.33342e-05
4.98905e-05
4.66113e-05
4.34949e-05
4.05388e-05
3.77397e-05
3.50938e-05
3.25967e-05
3.02441e-05
2.8031e-05
2.59526e-05
2.40039e-05
2.21795e-05
2.04743e-05
1.88827e-05
1.73993e-05
1.60185e-05
1.47349e-05
1.35426e-05
1.24377e-05
1.14112e-05
1.04627e-05
9.58869e-06
8.77687e-06
8.028e-06
7.33815e-06
6.70249e-06
6.11741e-06
5.57945e-06
5.08528e-06
4.63179e-06
4.21605e-06
3.83528e-06
3.48687e-06
3.16838e-06
2.87751e-06
2.61211e-06
2.37016e-06
2.14979e-06
1.94924e-06
1.76687e-06
1.60117e-06
1.45073e-06
1.31425e-06
1.19052e-06
1.07844e-06
9.76957e-07
8.85139e-07
8.02108e-07
7.27064e-07
6.59273e-07
5.98072e-07
5.42834e-07
4.93024e-07
4.481e-07
4.07679e-07
3.71195e-07
3.38554e-07
3.08865e-07
2.82811e-07
2.58315e-07
2.38273e-07
2.17026e-07
2.03519e-07
1.82429e-07
1.78096e-07
1.51515e-07
1.62784e-07
1.20443e-07
1.59722e-07
8.46642e-08
1.71835e-07
4.01222e-08
2.00769e-07
-1.40765e-08
2.43409e-07
-7.20026e-08
2.88688e-07
-1.18978e-07
3.18445e-07
-1.36089e-07
3.16042e-07
-1.13231e-07
2.82735e-07
-6.63634e-08
2.52598e-07
-4.67265e-08
2.92407e-07
-1.303e-07
4.7934e-07
-3.89803e-07
8.63128e-07
0.00012505
0.00012626
0.000126447
0.000125769
0.000124321
0.000122206
0.000119529
0.000116386
0.000112863
0.000109041
0.000104991
0.000100778
9.64598e-05
9.20848e-05
8.76963e-05
8.33306e-05
7.90184e-05
7.4785e-05
7.06509e-05
6.66325e-05
6.27423e-05
5.89899e-05
5.5382e-05
5.19229e-05
4.86151e-05
4.54593e-05
4.24552e-05
3.96011e-05
3.68947e-05
3.43329e-05
3.19122e-05
2.96287e-05
2.74783e-05
2.54566e-05
2.3559e-05
2.17807e-05
2.0117e-05
1.85627e-05
1.71128e-05
1.57621e-05
1.45055e-05
1.33375e-05
1.22543e-05
1.12474e-05
1.03163e-05
9.45796e-06
8.66036e-06
7.92419e-06
7.24572e-06
6.62029e-06
6.04438e-06
5.51463e-06
5.02782e-06
4.58091e-06
4.17104e-06
3.79551e-06
3.45177e-06
3.13743e-06
2.85026e-06
2.58814e-06
2.3491e-06
2.13131e-06
1.93304e-06
1.75268e-06
1.58876e-06
1.43989e-06
1.30479e-06
1.18227e-06
1.07125e-06
9.70701e-07
8.79698e-07
7.97379e-07
7.22958e-07
6.55711e-07
5.94983e-07
5.40158e-07
4.90709e-07
4.46098e-07
4.05948e-07
3.69699e-07
3.37259e-07
3.07748e-07
2.81841e-07
2.57484e-07
2.37542e-07
2.16413e-07
2.02958e-07
1.8199e-07
1.77645e-07
1.51225e-07
1.62387e-07
1.20298e-07
1.59325e-07
8.46771e-08
1.71383e-07
4.03026e-08
2.00224e-07
-1.37337e-08
2.42768e-07
-7.15329e-08
2.87996e-07
-1.18462e-07
3.17776e-07
-1.35625e-07
3.15472e-07
-1.12882e-07
2.82273e-07
-6.60917e-08
2.52139e-07
-4.63668e-08
2.91814e-07
-1.29767e-07
4.78827e-07
-3.89274e-07
8.63499e-07
0.000112074
0.000114243
0.000115338
0.000115499
0.000114838
0.000113465
0.000111487
0.000108998
0.000106087
0.000102835
9.93153e-05
9.55941e-05
9.17299e-05
8.77742e-05
8.37717e-05
7.97607e-05
7.57738e-05
7.18382e-05
6.79764e-05
6.42067e-05
6.05435e-05
5.69979e-05
5.35784e-05
5.02909e-05
4.71392e-05
4.41256e-05
4.12507e-05
3.85142e-05
3.59146e-05
3.34498e-05
3.11172e-05
2.89137e-05
2.68357e-05
2.48795e-05
2.30411e-05
2.13163e-05
1.97007e-05
1.81898e-05
1.67788e-05
1.54631e-05
1.42379e-05
1.3098e-05
1.20401e-05
1.1056e-05
1.01454e-05
9.30527e-06
8.52423e-06
7.80288e-06
7.13771e-06
6.52423e-06
5.95902e-06
5.43887e-06
4.96065e-06
4.52142e-06
4.11841e-06
3.74899e-06
3.41071e-06
3.10124e-06
2.81838e-06
2.5601e-06
2.32447e-06
2.10968e-06
1.91408e-06
1.73608e-06
1.57424e-06
1.4272e-06
1.29371e-06
1.17261e-06
1.06283e-06
9.63377e-07
8.73327e-07
7.91843e-07
7.18151e-07
6.51539e-07
5.91366e-07
5.37025e-07
4.87997e-07
4.43752e-07
4.0392e-07
3.67946e-07
3.35743e-07
3.06438e-07
2.80705e-07
2.56508e-07
2.36689e-07
2.15689e-07
2.0231e-07
1.81461e-07
1.77138e-07
1.50854e-07
1.61968e-07
1.20065e-07
1.58947e-07
8.45736e-08
1.71009e-07
4.03176e-08
1.9983e-07
-1.36238e-08
2.42358e-07
-7.13689e-08
2.87608e-07
-1.18305e-07
3.17449e-07
-1.35529e-07
3.15227e-07
-1.1286e-07
2.82075e-07
-6.60766e-08
2.51881e-07
-4.62303e-08
2.91444e-07
-1.29554e-07
4.78764e-07
-3.8937e-07
8.64813e-07
9.83265e-05
0.000101427
0.000103427
0.000104449
0.000104606
0.000104011
0.000102768
0.000100972
9.87104e-05
9.60661e-05
9.31134e-05
8.99197e-05
8.65447e-05
8.30416e-05
7.94569e-05
7.58306e-05
7.21974e-05
6.85864e-05
6.5022e-05
6.15243e-05
5.81097e-05
5.47912e-05
5.15788e-05
4.84801e-05
4.55006e-05
4.26437e-05
3.99115e-05
3.73049e-05
3.48234e-05
3.24661e-05
3.02311e-05
2.81162e-05
2.61186e-05
2.42352e-05
2.24626e-05
2.07972e-05
1.92351e-05
1.77724e-05
1.64048e-05
1.51281e-05
1.3938e-05
1.28296e-05
1.18e-05
1.08414e-05
9.95359e-06
9.13402e-06
8.37151e-06
7.66675e-06
7.01649e-06
6.4164e-06
5.8632e-06
5.35381e-06
4.88521e-06
4.4546e-06
4.05928e-06
3.69674e-06
3.36458e-06
3.06056e-06
2.78256e-06
2.52858e-06
2.29677e-06
2.08537e-06
1.89276e-06
1.71741e-06
1.55791e-06
1.41293e-06
1.28126e-06
1.16175e-06
1.05337e-06
9.55136e-07
8.66159e-07
7.85613e-07
7.12741e-07
6.46845e-07
5.87296e-07
5.33499e-07
4.84944e-07
4.41111e-07
4.01636e-07
3.65972e-07
3.34035e-07
3.04963e-07
2.79427e-07
2.55406e-07
2.3573e-07
2.1487e-07
2.01585e-07
1.80858e-07
1.76578e-07
1.50419e-07
1.61518e-07
1.19771e-07
1.58564e-07
8.44004e-08
1.7066e-07
4.02425e-08
1.99499e-07
-1.36343e-08
2.42054e-07
-7.13598e-08
2.87362e-07
-1.18331e-07
3.17287e-07
-1.35627e-07
3.15148e-07
-1.13019e-07
2.82021e-07
-6.62192e-08
2.51746e-07
-4.62432e-08
2.91216e-07
-1.29543e-07
4.78967e-07
-3.89829e-07
8.66727e-07
8.39333e-05
8.79599e-05
9.08647e-05
9.27599e-05
9.37547e-05
9.39592e-05
9.34754e-05
9.23972e-05
9.08131e-05
8.8805e-05
8.64481e-05
8.38102e-05
8.09525e-05
7.79294e-05
7.47889e-05
7.15729e-05
6.83177e-05
6.50544e-05
6.18092e-05
5.86042e-05
5.54575e-05
5.23841e-05
4.93956e-05
4.65015e-05
4.37085e-05
4.10217e-05
3.84447e-05
3.59794e-05
3.36266e-05
3.13864e-05
2.92579e-05
2.72397e-05
2.53299e-05
2.3526e-05
2.18254e-05
2.02251e-05
1.87217e-05
1.73119e-05
1.59921e-05
1.47582e-05
1.36067e-05
1.25331e-05
1.15346e-05
1.06041e-05
9.74155e-06
8.94463e-06
8.20255e-06
7.51614e-06
6.88236e-06
6.29705e-06
5.75712e-06
5.25962e-06
4.80168e-06
4.3806e-06
3.9938e-06
3.63886e-06
3.31348e-06
3.01549e-06
2.74285e-06
2.49365e-06
2.26606e-06
2.05842e-06
1.86912e-06
1.69671e-06
1.53979e-06
1.3971e-06
1.26743e-06
1.14969e-06
1.04286e-06
9.45989e-07
8.58202e-07
7.78697e-07
7.06735e-07
6.41633e-07
5.82776e-07
5.29582e-07
4.81553e-07
4.38176e-07
3.99098e-07
3.63777e-07
3.32136e-07
3.03323e-07
2.78006e-07
2.54182e-07
2.34663e-07
2.13959e-07
2.00778e-07
1.80185e-07
1.75956e-07
1.49934e-07
1.6102e-07
1.19441e-07
1.58142e-07
8.42039e-08
1.70274e-07
4.01563e-08
1.99131e-07
-1.36452e-08
2.41713e-07
-7.13449e-08
2.87082e-07
-1.18352e-07
3.17101e-07
-1.35732e-07
3.1506e-07
-1.13203e-07
2.81977e-07
-6.64068e-08
2.51639e-07
-4.63147e-08
2.91026e-07
-1.29596e-07
4.79234e-07
-3.90369e-07
8.68867e-07
6.90507e-05
7.39967e-05
7.78021e-05
8.05711e-05
8.24088e-05
8.3422e-05
8.37104e-05
8.33664e-05
8.24774e-05
8.11249e-05
7.9384e-05
7.7323e-05
7.50039e-05
7.24822e-05
6.98071e-05
6.7022e-05
6.41649e-05
6.12686e-05
5.83612e-05
5.54665e-05
5.26046e-05
4.97921e-05
4.70425e-05
4.43667e-05
4.17733e-05
3.92689e-05
3.68582e-05
3.45445e-05
3.23301e-05
3.02159e-05
2.82021e-05
2.62881e-05
2.44729e-05
2.27549e-05
2.11321e-05
1.96022e-05
1.81625e-05
1.68101e-05
1.55419e-05
1.43547e-05
1.32451e-05
1.22093e-05
1.12448e-05
1.03449e-05
9.50982e-06
8.73761e-06
8.01782e-06
7.35144e-06
6.73564e-06
6.16649e-06
5.64105e-06
5.15655e-06
4.71025e-06
4.29958e-06
3.92209e-06
3.57546e-06
3.25749e-06
2.96611e-06
2.69935e-06
2.45536e-06
2.23241e-06
2.02886e-06
1.84321e-06
1.674e-06
1.51993e-06
1.37973e-06
1.25227e-06
1.13647e-06
1.03133e-06
9.35951e-07
8.49469e-07
7.71106e-07
7.00141e-07
6.35911e-07
5.77813e-07
5.25281e-07
4.77827e-07
4.34952e-07
3.96308e-07
3.61365e-07
3.3005e-07
3.0152e-07
2.76444e-07
2.52835e-07
2.33491e-07
2.12955e-07
1.99892e-07
1.79444e-07
1.75273e-07
1.49399e-07
1.60473e-07
1.19077e-07
1.57677e-07
8.39884e-08
1.69848e-07
4.00658e-08
1.9872e-07
-1.36464e-08
2.41324e-07
-7.13104e-08
2.86752e-07
-1.18353e-07
3.16871e-07
-1.35826e-07
3.14946e-07
-1.13397e-07
2.81931e-07
-6.66288e-08
2.5155e-07
-4.64387e-08
2.90867e-07
-1.29702e-07
4.79545e-07
-3.90959e-07
8.71161e-07
5.38442e-05
5.96906e-05
6.43808e-05
6.80131e-05
7.06883e-05
7.25091e-05
7.35725e-05
7.39686e-05
7.37834e-05
7.30974e-05
7.19853e-05
7.05153e-05
6.87497e-05
6.67449e-05
6.4551e-05