/*--------------------------------*- C++ -*----------------------------------*\
| =========                 |                                                 |
| \\      /  F ield         | OpenFOAM: The Open Source CFD Toolbox           |
|  \\    /   O peration     | Version:  2412                                  |
|   \\  /    A nd           | Website:  www.openfoam.com                      |
|    \\/     M anipulation  |                                                 |
\*---------------------------------------------------------------------------*/
FoamFile
{
    version     2.0;
    format      ascii;
    arch        "LSB;label=32;scalar=64";
    class       surfaceScalarField;
    location    "23.5";
    object      phi;
}
// * * * * * * * * * * * * * * * * * * * * * * * * * * * * * * * * * * * * * //

dimensions      [0 3 -1 0 0 0 0];

oriented        oriented;

internalField   nonuniform List<scalar> 
126304
(
0.00505063
1.29402e-07
2.00678e-11
0.00505025
3.77386e-07
4.45469e-11
0.00504964
6.12244e-07
5.31635e-11
0.0050488
8.35613e-07
5.70203e-11
0.00504775
1.04865e-06
6.42182e-11
0.0050465
1.25215e-06
7.83686e-11
0.00504505
1.44871e-06
9.75445e-11
0.00504341
1.64565e-06
1.11249e-10
0.00504155
1.8564e-06
9.83946e-11
0.00503945
2.09816e-06
3.07822e-11
0.00503707
2.38631e-06
-1.16249e-10
0.00503434
2.72769e-06
-3.50735e-10
0.00503122
3.11617e-06
-6.5559e-10
0.00502769
3.53258e-06
-9.88186e-10
0.00502374
3.9489e-06
-1.28851e-09
0.00501941
4.335e-06
-1.4934e-09
0.00501475
4.66531e-06
-1.55175e-09
0.00500982
4.92364e-06
-1.43513e-09
0.00500472
5.10494e-06
-1.14153e-09
0.00499951
5.21439e-06
-6.93066e-10
0.00499424
5.26465e-06
-1.29291e-10
0.00498897
5.27238e-06
5.01641e-10
0.00498371
5.25499e-06
1.15172e-09
0.00497848
5.22819e-06
1.77966e-09
0.00497328
5.20455e-06
2.3542e-09
0.00496808
5.19298e-06
2.85508e-09
0.00496288
5.19891e-06
3.27238e-09
0.00495765
5.22488e-06
3.6049e-09
0.00495237
5.27125e-06
3.85764e-09
0.00494703
5.33696e-06
4.03931e-09
0.00494161
5.42016e-06
4.16037e-09
0.00493609
5.51868e-06
4.23153e-09
0.00493045
5.63037e-06
4.26297e-09
0.00492469
5.75324e-06
4.26362e-09
0.0049188
5.88565e-06
4.24089e-09
0.00491277
6.02623e-06
4.20072e-09
0.0049066
6.17395e-06
4.14769e-09
0.00490026
6.328e-06
4.08524e-09
0.00489377
6.48784e-06
4.01584e-09
0.00488712
6.65305e-06
3.94128e-09
0.00488029
6.82337e-06
3.86285e-09
0.00487329
6.99864e-06
3.78145e-09
0.0048661
7.17875e-06
3.69769e-09
0.00485874
7.36363e-06
3.61193e-09
0.00485118
7.55328e-06
3.52442e-09
0.00484343
7.74768e-06
3.43528e-09
0.00483548
7.94687e-06
3.34456e-09
0.00482732
8.15086e-06
3.25244e-09
0.00481896
8.35972e-06
3.15898e-09
0.00481038
8.57353e-06
3.06428e-09
0.00480159
8.79242e-06
2.96837e-09
0.00479257
9.0167e-06
2.87126e-09
0.00478332
9.2472e-06
2.77308e-09
0.00477383
9.48631e-06
2.674e-09
9.74084e-06
0.00476409
2.5743e-09
0.00505063
2.58738e-07
0.00505025
7.54545e-07
0.00504964
1.22411e-06
0.0050488
1.67069e-06
0.00504776
2.09661e-06
0.0050465
2.50349e-06
0.00504506
2.89647e-06
0.00504341
3.29016e-06
0.00504156
3.71126e-06
0.00503946
4.19409e-06
0.00503708
4.76932e-06
0.00503436
5.45064e-06
0.00503125
6.22596e-06
0.00502772
7.05718e-06
0.00502378
7.88853e-06
0.00501946
8.65994e-06
0.0050148
9.32044e-06
0.00500989
9.83765e-06
0.00500479
1.02014e-05
0.00499958
1.04218e-05
0.00499432
1.0524e-05
0.00498906
1.05413e-05
0.0049838
1.05081e-05
0.00497857
1.04558e-05
0.00497337
1.04095e-05
0.00496818
1.0387e-05
0.00496298
1.03992e-05
0.00495775
1.04512e-05
0.00495248
1.05438e-05
0.00494714
1.06748e-05
0.00494172
1.08407e-05
0.0049362
1.10371e-05
0.00493057
1.12598e-05
0.00492482
1.15048e-05
0.00491894
1.17689e-05
0.00491291
1.20492e-05
0.00490674
1.23439e-05
0.00490042
1.26512e-05
0.00489394
1.297e-05
0.00488729
1.32996e-05
0.00488047
1.36394e-05
0.00487348
1.3989e-05
0.00486631
1.43483e-05
0.00485896
1.47171e-05
0.00485142
1.50954e-05
0.00484368
1.54832e-05
0.00483575
1.58805e-05
0.00482761
1.62873e-05
0.00481927
1.67038e-05
0.00481071
1.71301e-05
0.00480194
1.75665e-05
0.00479294
1.80135e-05
0.00478372
1.84728e-05
0.00477425
1.89489e-05
1.94549e-05
0.00476454
0.00505063
3.87903e-07
0.00505025
1.13116e-06
0.00504964
1.83511e-06
0.00504881
2.50458e-06
0.00504776
3.14308e-06
0.00504651
3.75304e-06
0.00504506
4.34216e-06
0.00504342
4.93216e-06
0.00504157
5.56287e-06
0.00503948
6.28553e-06
0.0050371
7.146e-06
0.00503439
8.1649e-06
0.00503129
9.32445e-06
0.00502778
1.0568e-05
0.00502386
1.18124e-05
0.00501955
1.2968e-05
0.00501491
1.39585e-05
0.00501001
1.47354e-05
0.00500493
1.52832e-05
0.00499974
1.56167e-05
0.00499449
1.57732e-05
0.00498923
1.58021e-05
0.00498398
1.5755e-05
0.00497876
1.56786e-05
0.00497355
1.56105e-05
0.00496836
1.55775e-05
0.00496317
1.55958e-05
0.00495795
1.56732e-05
0.00495268
1.58111e-05
0.00494735
1.60063e-05
0.00494193
1.62536e-05
0.00493642
1.65466e-05
0.00493081
1.68788e-05
0.00492507
1.72445e-05
0.0049192
1.76387e-05
0.00491319
1.80574e-05
0.00490703
1.84974e-05
0.00490073
1.89565e-05
0.00489427
1.94328e-05
0.00488764
1.99252e-05
0.00488085
2.04329e-05
0.00487388
2.09553e-05
0.00486674
2.14922e-05
0.00485941
2.20432e-05
0.0048519
2.26083e-05
0.00484419
2.31876e-05
0.00483629
2.37809e-05
0.00482819
2.43885e-05
0.00481989
2.50104e-05
0.00481137
2.56468e-05
0.00480264
2.6298e-05
0.00479369
2.6965e-05
0.00478451
2.76498e-05
0.0047751
2.83587e-05
2.91101e-05
0.00476544
0.00505063
5.16813e-07
0.00505025
1.50697e-06
0.00504964
2.44483e-06
0.00504881
3.33669e-06
0.00504777
4.18731e-06
0.00504652
4.99994e-06
0.00504508
5.78473e-06
0.00504344
6.57041e-06
0.00504159
7.40963e-06
0.00503951
8.3703e-06
0.00503714
9.51332e-06
0.00503444
1.08664e-05
0.00503136
1.24063e-05
0.00502787
1.40585e-05
0.00502397
1.5713e-05
0.00501968
1.72511e-05
0.00501507
1.85715e-05
0.0050102
1.96093e-05
0.00500514
2.03434e-05
0.00499996
2.0793e-05
0.00499472
2.10071e-05
0.00498948
2.10508e-05
0.00498424
2.09925e-05
0.00497902
2.0894e-05
0.00497383
2.08054e-05
0.00496864
2.07622e-05
0.00496345
2.07864e-05
0.00495824
2.08885e-05
0.00495298
2.10703e-05
0.00494766
2.13281e-05
0.00494226
2.16549e-05
0.00493676
2.20423e-05
0.00493116
2.2482e-05
0.00492543
2.29662e-05
0.00491959
2.34884e-05
0.0049136
2.40432e-05
0.00490747
2.46264e-05
0.00490119
2.5235e-05
0.00489476
2.58666e-05
0.00488816
2.65196e-05
0.0048814
2.71929e-05
0.00487447
2.78857e-05
0.00486737
2.85976e-05
0.00486008
2.93283e-05
0.00485261
3.00776e-05
0.00484496
3.08455e-05
0.0048371
3.16319e-05
0.00482906
3.24371e-05
0.00482081
3.3261e-05
0.00481235
3.41039e-05
0.00480368
3.49662e-05
0.0047948
3.58488e-05
0.00478569
3.67543e-05
0.00477636
3.769e-05
3.86774e-05
0.00476679
0.00505063
6.45386e-07
0.00505025
1.88169e-06
0.00504965
3.05282e-06
0.00504882
4.16643e-06
0.00504777
5.22856e-06
0.00504653
6.24328e-06
0.00504509
7.22315e-06
0.00504346
8.20366e-06
0.00504162
9.24999e-06
0.00503954
1.04463e-05
0.00503719
1.18684e-05
0.0050345
1.35512e-05
0.00503144
1.54666e-05
0.00502798
1.75227e-05
0.00502411
1.95836e-05
0.00501986
2.1502e-05
0.00501528
2.31518e-05
0.00501043
2.4452e-05
0.0050054
2.53753e-05
0.00500025
2.5945e-05
0.00499504
2.62209e-05
0.0049898
2.62835e-05
0.00498458
2.62173e-05
0.00497937
2.60993e-05
0.00497419
2.59917e-05
0.00496901
2.59389e-05
0.00496383
2.59686e-05
0.00495862
2.60942e-05
0.00495338
2.63183e-05
0.00494807
2.66366e-05
0.00494268
2.70404e-05
0.0049372
2.75197e-05
0.00493162
2.8064e-05
0.00492592
2.86638e-05
0.0049201
2.93111e-05
0.00491415
2.99992e-05
0.00490805
3.07228e-05
0.00490181
3.1478e-05
0.00489541
3.22619e-05
0.00488886
3.30725e-05
0.00488214
3.39083e-05
0.00487526
3.47684e-05
0.00486821
3.56521e-05
0.00486097
3.6559e-05
0.00485356
3.74889e-05
0.00484597
3.84417e-05
0.00483818
3.94175e-05
0.0048302
4.04161e-05
0.00482203
4.14376e-05
0.00481365
4.24824e-05
0.00480506
4.35507e-05
0.00479627
4.46435e-05
0.00478726
4.57633e-05
0.00477803
4.69177e-05
4.8129e-05
0.00476858
0.00505063
7.73548e-07
0.00505026
2.25505e-06
0.00504965
3.65868e-06
0.00504882
4.99321e-06
0.00504779
6.2661e-06
0.00504655
7.4822e-06
0.00504511
8.65639e-06
0.00504349
9.83071e-06
0.00504165
1.10824e-05
0.00503959
1.25116e-05
0.00503725
1.42087e-05
0.00503458
1.62159e-05
0.00503155
1.85008e-05
0.00502812
2.09551e-05
0.00502428
2.34179e-05
0.00502007
2.57139e-05
0.00501553
2.76928e-05
0.00501072
2.92569e-05
0.00500573
3.0373e-05
0.0050006
3.10671e-05
0.00499542
3.14099e-05
0.0049902
3.1496e-05
0.00498499
3.1426e-05
0.0049798
3.12915e-05
0.00497463
3.11666e-05
0.00496946
3.11049e-05
0.00496429
3.11397e-05
0.0049591
3.12874e-05
0.00495386
3.15517e-05
0.00494857
3.19278e-05
0.00494321
3.24057e-05
0.00493775
3.29736e-05
0.0049322
3.36192e-05
0.00492653
3.43312e-05
0.00492074
3.51001e-05
0.00491482
3.59179e-05
0.00490877
3.67783e-05
0.00490257
3.76766e-05
0.00489622
3.86092e-05
0.00488972
3.95737e-05
0.00488306
4.05683e-05
0.00487624
4.15917e-05
0.00486925
4.26432e-05
0.00486208
4.37222e-05
0.00485474
4.48284e-05
0.00484722
4.59617e-05
0.00483952
4.71218e-05
0.00483163
4.83088e-05
0.00482354
4.95227e-05
0.00481526
5.07636e-05
0.00480678
5.20318e-05
0.00479809
5.3328e-05
0.0047892
5.46545e-05
0.0047801
5.60178e-05
5.7438e-05
0.00477079
0.00505063
9.01176e-07
0.00505026
2.62684e-06
0.00504965
4.26196e-06
0.00504883
5.81646e-06
0.0050478
7.29918e-06
0.00504656
8.7158e-06
0.00504514
1.00834e-05
0.00504352
1.14503e-05
0.00504169
1.29055e-05
0.00503964
1.45643e-05
0.00503732
1.65316e-05
0.00503468
1.88572e-05
0.00503167
2.1505e-05
0.00502828
2.43512e-05
0.00502448
2.72106e-05
0.00502032
2.98811e-05
0.00501582
3.21883e-05
0.00501106
3.40182e-05
0.0050061
3.53307e-05
0.00500102
3.61544e-05
0.00499586
3.65694e-05
0.00499067
3.66844e-05
0.00498548
3.6615e-05
0.0049803
3.64672e-05
0.00497514
3.63271e-05
0.00496999
3.62571e-05
0.00496483
3.62964e-05
0.00495966
3.64647e-05
0.00495444
3.67668e-05
0.00494917
3.71976e-05
0.00494383
3.77462e-05
0.00493841
3.83989e-05
0.00493288
3.91418e-05
0.00492725
3.9962e-05
0.0049215
4.08484e-05
0.00491563
4.17918e-05
0.00490962
4.27848e-05
0.00490348
4.3822e-05
0.00489719
4.48991e-05
0.00489075
4.60132e-05
0.00488415
4.71621e-05
0.0048774
4.83444e-05
0.00487049
4.9559e-05
0.0048634
5.08052e-05
0.00485615
5.20826e-05
0.00484872
5.33908e-05
0.00484111
5.47298e-05
0.00483332
5.60992e-05
0.00482535
5.74992e-05
0.00481718
5.89296e-05
0.00480882
6.03906e-05
0.00480027
6.18826e-05
0.00479151
6.3407e-05
0.00478256
6.49678e-05
0.00477342
6.65765e-05
0.00476431
-2.30117e-07
2.48738e-09
0.00476401
2.99598e-07
2.42584e-09
0.00476315
8.63005e-07
2.36755e-09
0.00476168
1.46426e-06
2.30318e-09
0.00475957
2.10604e-06
2.23379e-09
0.00475678
2.79186e-06
2.15984e-09
0.00475325
3.52564e-06
2.08107e-09
0.00474894
4.31173e-06
1.99726e-09
0.00474378
5.15504e-06
1.908e-09
0.00473772
6.06103e-06
1.81308e-09
0.00473068
7.0358e-06
1.71204e-09
0.00472259
8.08619e-06
1.60465e-09
0.00471337
9.21988e-06
1.4908e-09
0.00470292
1.04455e-05
1.37252e-09
0.00469115
1.17728e-05
1.2425e-09
0.00467794
1.32128e-05
1.1197e-09
0.00466316
1.47779e-05
9.60975e-10
0.00464667
1.64823e-05
7.88341e-10
0.00462833
1.83421e-05
6.22852e-10
0.00460795
2.03757e-05
4.36509e-10
0.00458535
2.26044e-05
2.61196e-10
0.0045603
2.50527e-05
8.091e-11
0.00453255
2.77489e-05
-1.07114e-10
0.00450182
3.07259e-05
-3.02907e-10
0.0044678
3.40222e-05
-5.05805e-10
0.00443012
3.76833e-05
-7.15112e-10
0.00438836
4.17627e-05
-9.29394e-10
0.00434203
4.63243e-05
-1.14763e-09
0.00429059
5.14442e-05
-1.36875e-09
0.00423338
5.72145e-05
-1.59144e-09
0.00416963
6.37464e-05
-1.81459e-09
0.00409846
7.11756e-05
-2.03754e-09
0.00401879
7.96678e-05
-2.2594e-09
0.00392937
8.94259e-05
-2.4801e-09
0.00382868
0.000100698
-2.69963e-09
0.00371489
0.000113786
-2.91815e-09
0.00358584
0.00012905
-3.1364e-09
0.00343894
0.000146909
-3.35569e-09
0.00327112
0.000167823
-3.57728e-09
0.00307887
0.000192253
-3.80286e-09
0.00285831
0.000220562
-4.03392e-09
0.00260547
0.000252846
-4.27091e-09
0.00231684
0.000288636
-4.51127e-09
0.00199042
0.000326424
-4.74481e-09
0.00162746
0.000362962
-4.94558e-09
0.00123521
0.000392258
-5.05898e-09
0.000830912
0.000404303
-4.98316e-09
0.000447451
0.000383465
-4.54971e-09
0.000141458
0.000305997
-3.51472e-09
0.00014146
-1.58278e-09
0.0047634
9.09143e-07
0.00476173
1.96577e-06
0.00475951
3.09123e-06
0.00475668
4.29146e-06
0.00475321
5.57265e-06
0.00474906
6.94182e-06
0.00474418
8.40684e-06
0.00473852
9.97651e-06
0.00473201
1.16606e-05
0.0047246
1.34701e-05
0.00471622
1.54172e-05
0.00470679
1.75157e-05
0.00469623
1.97809e-05
0.00468445
2.22301e-05
0.00467133
2.48829e-05
0.00465679
2.77612e-05
0.00464067
3.089e-05
0.00462286
3.42976e-05
0.00460318
3.80164e-05
0.00458148
4.20833e-05
0.00455754
4.65409e-05
0.00453116
5.14382e-05
0.00450207
5.68319e-05
0.00447001
6.27881e-05
0.00443465
6.93838e-05
0.00439562
7.67098e-05
0.00435251
8.48734e-05
0.00430483
9.4002e-05
0.00425203
0.000104248
0.00419345
0.000115795
0.00412833
0.000128865
0.00405578
0.000143727
0.00397474
0.000160712
0.00388394
0.00018022
0.0037819
0.000202744
0.0036668
0.000228879
0.00353652
0.000259332
0.00338851
0.000294924
0.00321978
0.00033655
0.00302694
0.000385096
0.00280625
0.000441245
0.00255397
0.000505131
0.00226685
0.000575752
0.00194323
0.000650042
0.00158471
0.000721489
0.00119879
0.000778176
0.000802863
0.00080023
0.000429468
0.00075686
0.000133178
0.000602286
0.000274638
0.00476159
4.76399e-06
0.00475721
6.34388e-06
0.00475227
8.02671e-06
0.00474675
9.82121e-06
0.00474058
1.17369e-05
0.00473374
1.37843e-05
0.00472617
1.59754e-05
0.00471782
1.83235e-05
0.00470864
2.08433e-05
0.00469856
2.35512e-05
0.00468751
2.64658e-05
0.00467542
2.96076e-05
0.0046622
3.29998e-05
0.00464776
3.66683e-05
0.004632
4.06426e-05
0.00461481
4.49556e-05
0.00459605
4.9645e-05
0.0045756
5.47533e-05
0.00455328
6.03293e-05
0.00452894
6.64284e-05
0.00450236
7.31148e-05
0.00447334
8.0462e-05
0.00444162
8.85555e-05
0.00440691
9.74943e-05
0.0043689
0.000107395
0.00432722
0.000118392
0.00428144
0.000130648
0.00423109
0.000144354
0.0041756
0.000159737
0.00411432
0.000177072
0.0040465
0.00019669
0.00397123
0.000218992
0.00388748
0.000244466
0.00379399
0.000273708
0.0036893
0.000307439
0.00357164
0.000346533
0.00343896
0.000392019
0.0032888
0.000445082
0.00311835
0.000507001
0.00292443
0.000579013
0.00270365
0.000662026
0.00245268
0.000756099
0.00216886
0.000859578
0.00185115
0.000967743
0.00150182
0.00107082
0.00112883
0.00115117
0.000749566
0.00117949
0.000396104
0.00111032
0.000120458
0.000877932
0.000395096
0.00475891
1.26487e-05
0.00475051
1.47449e-05
0.00474156
1.69775e-05
0.00473202
1.93583e-05
0.00472186
2.19002e-05
0.00471102
2.46175e-05
0.00469947
2.75263e-05
0.00468715
3.06444e-05
0.004674
3.39915e-05
0.00465996
3.75897e-05
0.00464497
4.14637e-05
0.00462893
4.56409e-05
0.00461178
5.01523e-05
0.00459342
5.50328e-05
0.00457374
6.03214e-05
0.00455263
6.60626e-05
0.00452997
7.23064e-05
0.00450561
7.91101e-05
0.0044794
8.65386e-05
0.00445117
9.46664e-05
0.0044207
0.000103579
0.00438779
0.000113375
0.00435217
0.000124169
0.00431358
0.000136093
0.00427167
0.000149302
0.00422608
0.000163977
0.0041764
0.000180334
0.00412212
0.000198627
0.0040627
0.000219159
0.00399748
0.000242294
0.0039257
0.000268469
0.00384648
0.000298212
0.00375878
0.000332166
0.00366139
0.000371105
0.00355286
0.000415968
0.00343151
0.000467876
0.00329539
0.000528145
0.00314221
0.000598263
0.0029694
0.000679811
0.00277414
0.000774265
0.00255356
0.000882609
0.00230501
0.00100465
0.00202667
0.00113791
0.00171853
0.00127589
0.00138374
0.00140561
0.00103077
0.00150414
0.00067656
0.0015337
0.000351327
0.00143556
0.000102436
0.00112682
0.000497532
0.0047554
2.58252e-05
0.00474172
2.84263e-05
0.0047275
3.11968e-05
0.00471271
3.41517e-05
0.0046973
3.73076e-05
0.00468124
4.06827e-05
0.00466447
4.4297e-05
0.00464694
4.8173e-05
0.00462859
5.23354e-05
0.00460937
5.68118e-05
0.0045892
6.16332e-05
0.00456801
6.6834e-05
0.00454571
7.2453e-05
0.00452221
7.85338e-05
0.0044974
8.51256e-05
0.00447118
9.22841e-05
0.00444342
0.000100072
0.00441396
0.000108561
0.00438267
0.000117833
0.00434935
0.000127982
0.00431382
0.000139114
0.00427584
0.000151354
0.00423517
0.000164844
0.00419151
0.000179751
0.00414454
0.000196268
0.00409389
0.000214624
0.00403914
0.000235087
0.0039798
0.000257973
0.00391529
0.000283661
0.00384499
0.000312601
0.00376812
0.000345335
0.00368382
0.000382512
0.00359107
0.000424916
0.00348869
0.000473491
0.00337529
0.000529363
0.0032493
0.000593868
0.0031089
0.000668547
0.00295205
0.000755113
0.00277653
0.000855327
0.00258005
0.000970741
0.00236045
0.00110221
0.00211606
0.00124905
0.00184629
0.00140769
0.00155245
0.00156972
0.00123895
0.00171911
0.000914721
0.00182836
0.000595386
0.00185304
0.000306339
0.0017246
8.46869e-05
0.00134847
0.000582219
0.00475113
4.54851e-05
0.00473099
4.8573e-05
0.00471032
5.18641e-05
0.0046891
5.53763e-05
0.00466727
5.91296e-05
0.00464481
6.3146e-05
0.00462166
6.74497e-05
0.00459776
7.20673e-05
0.00457307
7.70287e-05
0.00454751
8.23671e-05
0.00452103
8.81195e-05
0.00449354
9.43275e-05
0.00446495
0.000101038
0.00443518
0.000108303
0.00440413
0.000116182
0.00437167
0.000124741
0.00433768
0.000134058
0.00430203
0.000144218
0.00426454
0.00015532
0.00422505
0.000167476
0.00418334
0.000180816
0.00413921
0.000195488
0.00409239
0.000211667
0.00404259
0.00022955
0.00398948
0.000249373
0.0039327
0.000271409
0.00387181
0.000295979
0.00380632
0.000323463
0.00373566
0.000354313
0.0036592
0.000389065
0.00357617
0.00042836
0.00348572
0.000472962
0.00338685
0.000523785
0.00327843
0.000581919
0.00315914
0.000648647
0.00302755
0.000725464
0.00288204
0.000814055
0.00272092
0.000916229
0.0025425
0.00103375
0.00234525
0.001168
0.00212809
0.00131937
0.00189083
0.0014863
0.00163474
0.00166378
0.00136323
0.00184123
0.00108254
0.00199981
0.000802372
0.00210853
0.000536063
0.00211935
0.000299154
0.00196151
0.000103181
0.00154445
0.000685399
0.00474618
7.27262e-05
0.00471848
7.62743e-05
0.00469028
8.00624e-05
0.00466155
8.41095e-05
0.00463224
8.84383e-05
0.00460231
9.30742e-05
0.00457172
9.8045e-05
0.0045404
0.000103382
0.00450831
0.000109119
0.00447538
0.000115296
0.00444155
0.000121955
0.00440673
0.000129146
0.00437085
0.000136922
0.00433381
0.000145345
0.0042955
0.000154484
0.00425583
0.000164417
0.00421465
0.000175235
0.00417183
0.000187037
0.00412721
0.00019994
0.00408061
0.000214075
0.00403183
0.000229594
0.00398065
0.000246671
0.00392681
0.000265509
0.00387002
0.000286342
0.00380995
0.000309443
0.00374622
0.000335132
0.00367842
0.000363784
0.00360604
0.000395842
0.00352852
0.000431829
0.00344522
0.000472366
0.0033554
0.000518188
0.00325819
0.00057017
0.00315263
0.000629344
0.00303762
0.000696926
0.00291195
0.000774323
0.00277427
0.000863135
0.00262323
0.0009651
0.00245747
0.00108199
0.00227588
0.00121534
0.00207782
0.00136606
0.00186355
0.00153364
0.00163474
0.0017151
0.00139519
0.00190333
0.00115143
0.002085
0.000913209
0.00223803
0.000693081
0.00232866
0.000503861
0.00230857
0.000349856
0.00211552
0.000211776
0.00168253
0.000897175
-2.80129e-05
2.80133e-05
-3.98313e-10
-8.13423e-05
5.33309e-05
-1.42061e-09
-0.000141222
5.98827e-05
-2.59568e-09
-0.000196668
5.54492e-05
-3.8062e-09
-0.000241577
4.49144e-05
-4.96213e-09
-0.000272805
3.12333e-05
-6.00399e-09
-0.000288971
1.61731e-05
-6.85405e-09
-0.000289111
1.47342e-07
-7.56033e-09
-0.00027473
-1.43726e-05
-7.97847e-09
-0.000245825
-2.8897e-05
-8.3071e-09
-0.000203165
-4.26516e-05
-8.32319e-09
-0.000147643
-5.55141e-05
-8.02246e-09
-8.01883e-05
-6.74469e-05
-7.37343e-09
-1.76097e-06
-7.8421e-05
-6.33592e-09
8.66526e-05
-8.84087e-05
-4.85051e-09
0.000184113
-9.74577e-05
-2.85998e-09
0.00028967
-0.000105557
-2.8371e-10
0.000402389
-0.000112722
2.91899e-09
0.000521358
-0.000118976
6.80034e-09
0.000645689
-0.000124342
1.1464e-08
0.000774519
-0.000128847
1.62259e-08
0.000907014
-0.000132516
2.1396e-08
0.00104236
-0.000135376
2.57234e-08
0.00117979
-0.000137452
2.88494e-08
0.00131854
-0.00013878
3.12352e-08
0.00145791
-0.000139402
3.18792e-08
0.00159724
-0.000139362
3.14795e-08
0.00173591
-0.000138705
3.0195e-08
0.00187336
-0.000137476
2.83684e-08
0.00200905
-0.000135719
2.62766e-08
0.00214251
-0.00013348
2.41001e-08
0.00227329
-0.000130805
2.19353e-08
0.00240101
-0.000127739
1.98169e-08
0.00252532
-0.000124329
1.77495e-08
0.00264592
-0.000120618
1.57193e-08
0.00276256
-0.000116652
1.3712e-08
0.00287502
-0.000112472
1.17171e-08
0.00298313
-0.00010812
9.72942e-09
0.00308676
-0.000103637
7.75194e-09
0.00318581
-9.90584e-05
5.79336e-09
0.00328023
-9.44207e-05
3.86686e-09
0.00336999
-8.97569e-05
1.99303e-09
0.00345508
-8.50973e-05
1.92958e-10
0.00353556
-8.04699e-05
-1.50933e-09
0.00361146
-7.59e-05
-3.08847e-09
0.00368287
-7.14102e-05
-4.52021e-09
0.0037499
-6.70202e-05
-5.7818e-09
0.00381265
-6.27466e-05
-6.8514e-09
0.00387126
-5.86025e-05
-7.71296e-09
-5.4597e-05
0.00392587
-8.3608e-09
-2.45842e-05
5.25975e-05
-7.14403e-05
0.000100187
-0.000123786
0.000112229
-0.000172007
0.00010367
-0.000210579
8.3486e-05
-0.000236599
5.72536e-05
-0.000248688
2.82615e-05
-0.000246334
-2.20651e-06
-0.000230081
-3.06255e-05
-0.000200217
-5.87607e-05
-0.000157351
-8.55179e-05
-0.000102262
-0.000110603
-3.57348e-05
-0.000133974
4.13299e-05
-0.000155486
0.00012808
-0.000175159
0.000223623
-0.000193001
0.000327079
-0.000209012
0.000437572
-0.000223216
0.00055424
-0.000235644
0.000676235
-0.000246337
0.000802732
-0.000255343
0.000932926
-0.00026271
0.00106603
-0.000268483
0.00120129
-0.000272714
0.00133798
-0.000275467
0.0014754
-0.000276821
0.0016129
-0.000276864
0.00174988
-0.000275682
0.00188576
-0.000273362
0.00202003
-0.00026999
0.00215221
-0.000265655
0.00228185
-0.000260448
0.00240857
-0.000254459
0.00253202
-0.000247778
0.0026519
-0.000240493
0.00276794
-0.000232692
0.00287993
-0.000224461
0.00298769
-0.00021588
0.00309108
-0.00020703
0.00319001
-0.000197985
0.0032844
-0.000188816
0.00337423
-0.000179588
0.0034595
-0.000170364
0.00354023
-0.000161198
0.00361647
-0.000152142
0.0036883
-0.00014324
0.00375581
-0.000134533
0.00381912
-0.000126053
0.00387834
-0.000117827
-0.000109872
0.00393362
-1.85642e-05
7.11617e-05
-5.24413e-05
0.000134064
-9.03301e-05
0.000150117
-0.000124744
0.000138084
-0.000151252
0.000109994
-0.00016745
7.34516e-05
-0.000171974
3.27853e-05
-0.00016465
-9.5305e-06
-0.000145073
-5.02029e-05
-0.000113585
-9.02478e-05
-7.04355e-05
-0.000128668
-1.62508e-05
-0.000164787
4.83011e-05
-0.000198526
0.000122654
-0.000229839
0.000206098
-0.000258603
0.000297882
-0.000284785
0.000397248
-0.000308378
0.000503428
-0.000329396
0.000615652
-0.000347868
0.000733152
-0.000363838
0.00085517
-0.000377361
0.000980957
-0.000388497
0.00110978
-0.000397308
0.00124092
-0.000403857
0.00137369
-0.000408231
0.00150741
-0.00041054
0.00164145
-0.000410908
0.00177523
-0.000409457
0.00190818
-0.000406312
0.00203979
-0.000401598
0.00216957
-0.000395444
0.00229711
-0.00038798
0.00242198
-0.000379339
0.00254386
-0.000369653
0.00266242
-0.000359053
0.0027774
-0.000347669
0.00288856
-0.000335627
0.00299573
-0.00032305
0.00309876
-0.000310055
0.00319753
-0.000296754
0.00329196
-0.000283252
0.00338202
-0.00026965
0.0034677
-0.000256038
0.003549
-0.0002425
0.00362597
-0.000229114
0.00369868
-0.000215948
0.00376721
-0.00020306
0.00383166
-0.000190502
0.00389214
-0.000178312
-0.000166513
0.00394878
-8.0359e-06
7.91976e-05
-2.47556e-05
0.000150784
-4.27391e-05
0.000168101
-5.80274e-05
0.000153372
-6.8007e-05
0.000119974
-7.09309e-05
7.63755e-05
-6.53614e-05
2.72158e-05
-5.12803e-05
-2.36116e-05
-2.74943e-05
-7.39888e-05
5.97391e-06
-0.000123716
4.88334e-05
-0.000171527
0.000101216
-0.00021717
0.000162811
-0.000260122
0.000233158
-0.000300186
0.000311778
-0.000337222
0.000398133
-0.00037114
0.000491641
-0.000401886
0.000591684
-0.000429439
0.000697621
-0.000453805
0.000808793
-0.000475009
0.000924534
-0.000493102
0.00104418
-0.000508138
0.00116705
-0.000520182
0.0012925
-0.000529304
0.00141986
-0.000535595
0.0015485
-0.000539185
0.00167783
-0.000540232
0.00180726
-0.000538887
0.00193625
-0.000535304
0.00206429
-0.00052964
0.00219091
-0.000522061
0.00231566
-0.000512732
0.00243815
-0.000501825
0.00255801
-0.000489513
0.00267492
-0.000475965
0.0027886
-0.000461353
0.00289882
-0.000445842
0.00300536
-0.000429593
0.00310807
-0.000412763
0.00320682
-0.000395501
0.00330151
-0.000377946
0.00339209
-0.000360232
0.00347853
-0.00034248
0.00356084
-0.000324804
0.00363903
-0.000307307
0.00371316
-0.00029008
0.00378331
-0.000273203
0.00384955
-0.000256745
0.00391199
-0.000240757
-0.000225264
0.00397074
5.81149e-06
7.33861e-05
1.11446e-05
0.000145451
1.76264e-05
0.000161619
2.48622e-05
0.000146137
3.39236e-05
0.000110912
4.59959e-05
6.43032e-05
6.27525e-05
1.04593e-05
8.39889e-05
-4.48481e-05
0.000111827
-0.000101827
0.000146625
-0.000158514
0.000188889
-0.000213791
0.000238715
-0.000266996
0.000296187
-0.000317594
0.000361226
-0.000365224
0.00043363
-0.000409627
0.000513105
-0.000450615
0.000599276
-0.000488057
0.000691703
-0.000521867
0.000789898
-0.000551999
0.000893331
-0.000578443
0.00100144
-0.000601215
0.00111366
-0.000620358
0.0012294
-0.00063592
0.00134806
-0.000647958
0.00146902
-0.00065656
0.0015917
-0.000661865
0.00171552
-0.000664049
0.00183992
-0.000663289
0.00196438
-0.000659759
0.00208838
-0.000653642
0.00221145
-0.000645132
0.00233315
-0.000634428
0.00245306
-0.000621736
0.00257081
-0.000607264
0.00268606
-0.000591221
0.00279853
-0.000573816
0.00290794
-0.000555252
0.00301408
-0.00053573
0.00311676
-0.000515444
0.00321583
-0.000494577
0.00331119
-0.000473308
0.00340276
-0.0004518
0.00349049
-0.000430208
0.00357436
-0.000408675
0.00365439
-0.00038733
0.00373059
-0.000366289
0.00380305
-0.000345654
0.00387181
-0.000325512
0.00393698
-0.000305928
-0.000286928
0.00399865
2.03752e-05
5.30109e-05
5.16062e-05
0.00011422
8.50245e-05
0.000128201
0.000117115
0.000114046
0.000146839
8.11884e-05
0.000175228
3.5914e-05
0.000202248
-1.6561e-05
0.000230631
-7.32306e-05
0.000261939
-0.000133136
0.000297297
-0.000193872
0.000337642
-0.000254137
0.000383633
-0.000312986
0.000435725
-0.000369686
0.000494187
-0.000423686
0.000559121
-0.000474562
0.000630495
-0.000521989
0.000708158
-0.00056572
0.000791865
-0.000605573
0.000881287
-0.000641422
0.000976036
-0.000673191
0.00107567
-0.000700848
0.00117971
-0.000724395
0.00128764
-0.000743856
0.00139894
-0.000759258
0.00151304
-0.000770664
0.00162939
-0.000778212
0.00174743
-0.000782091
0.00186663
-0.000782486
0.00198646
-0.000779588
0.00210642
-0.000773598
0.00222602
-0.000764732
0.00234481
-0.000753217
0.00246236
-0.00073929
0.00257829
-0.000723192
0.00269223
-0.000705167
0.00280387
-0.000685459
0.00291293
-0.000664311
0.00301916
-0.000641961
0.00312236
-0.000618638
0.00322235
-0.000594566
0.003319
-0.000569955
0.0034122
-0.000545006
0.0035019
-0.000519904
0.00358804
-0.000494823
0.00367063
-0.00046992
0.00374968
-0.000445337
0.00382523
-0.000421198
0.00389733
-0.000397611
0.00396605
-0.000374656
-0.000352368
0.00403149
3.72268e-05
1.57841e-05
9.8913e-05
5.25334e-05
0.00016048
6.66338e-05
0.000215927
5.85994e-05
0.000263812
3.33036e-05
0.000306584
-6.85813e-06
0.000341972
-5.19491e-05
0.000375391
-0.000106649
0.000408383
-0.000166128
0.000442707
-0.000228196
0.000479789
-0.000291219
0.000520738
-0.000353935
0.000566397
-0.000415346
0.000617371
-0.000474659
0.000674055
-0.000531246
0.000736668
-0.000584602
0.000805278
-0.00063433
0.000879824
-0.000680119
0.000960137
-0.000721735
0.00104596
-0.000759013
0.00113696
-0.000791845
0.00123274
-0.000820182
0.00133289
-0.000843999
0.00143691
-0.000863285
0.00154432
-0.000878068
0.00165457
-0.000888463
0.00176713
-0.000894653
0.00188148
-0.000896835
0.00199709
-0.000895202
0.00211347
-0.000889969
0.0022301
-0.000881367
0.00234653
-0.000869649
0.00246232
-0.000855075
0.00257704
-0.000837918
0.00269033
-0.000818454
0.00280184
-0.000796964
0.00291125
-0.000773726
0.0030183
-0.000749013
0.00312276
-0.000723095
0.00322443
-0.000696231
0.00332314
-0.000668669
0.00341878
-0.000640643
0.00351125
-0.000612374
0.00360049
-0.000584065
0.00368647
-0.000555905
0.0037692
-0.000528061
0.00384868
-0.000500684
0.00392497
-0.000473901
0.00399813
-0.000447813
0.00406824
-0.000422479
0.00398546
-5.9584e-05
-8.86069e-09
0.00404255
-5.70797e-05
-9.33877e-09
0.00409713
-5.45679e-05
-9.70013e-09
0.00414921
-5.2068e-05
-9.93147e-09
0.00419881
-4.95933e-05
-1.00048e-08
0.00424597
-4.71552e-05
-9.90203e-09
0.00429075
-4.47645e-05
-9.61467e-09
0.00433319
-4.24311e-05
-9.14499e-09
0.00437336
-4.01643e-05
-8.50575e-09
0.00441134
-3.79723e-05
-7.71821e-09
0.00444721
-3.58623e-05
-6.80649e-09
0.00448106
-3.38404e-05
-5.7953e-09
0.00451297
-3.19112e-05
-4.71236e-09
0.00454305
-3.00783e-05
-3.583e-09
0.0045714
-2.83437e-05
-2.42943e-09
0.00459811
-2.67082e-05
-1.27233e-09
0.00462328
-2.51711e-05
-1.33957e-10
0.00464701
-2.37308e-05
9.8039e-10
0.00466939
-2.23842e-05
2.05271e-09
0.00469052
-2.11275e-05
3.07908e-09
0.00471047
-1.99559e-05
4.05525e-09
0.00472933
-1.88639e-05
4.98114e-09
0.00474717
-1.78451e-05
5.85713e-09
0.00476405
-1.68927e-05
6.68315e-09
0.00478005
-1.59992e-05
7.45963e-09
0.00479519
-1.51571e-05
8.18541e-09
0.00480954
-1.43586e-05
8.8544e-09
0.00482313
-1.35965e-05
9.45803e-09
0.00483599
-1.28646e-05
9.98606e-09
0.00484813
-1.2158e-05
1.0424e-08
0.0048596
-1.14737e-05
1.07554e-08
0.0048704
-1.08112e-05
1.09659e-08
0.00488056
-1.0172e-05
1.1043e-08
0.00489011
-9.5599e-06
1.09781e-08
0.00489908
-8.97973e-06
1.07685e-08
0.0049075
-8.43671e-06
1.04201e-08
0.00491543
-7.93521e-06
9.94417e-09
0.0049229
-7.47788e-06
9.35813e-09
0.00492995
-7.06498e-06
8.68487e-09
0.00493664
-6.69432e-06
7.94886e-09
0.00494299
-6.36155e-06
7.17352e-09
0.00494905
-6.06093e-06
6.38196e-09
0.00495483
-5.78614e-06
5.59394e-09
0.00496035
-5.53121e-06
4.83319e-09
0.00496564
-5.29063e-06
4.10437e-09
0.0049707
-5.06084e-06
3.39334e-09
0.00497553
-4.83915e-06
2.73531e-09
0.00498016
-4.62387e-06
2.1214e-09
0.00498457
-4.41421e-06
1.55626e-09
0.00498878
-4.20997e-06
1.0384e-09
0.00499279
-4.01123e-06
5.66638e-10
0.00499661
-3.81822e-06
1.38413e-10
0.00500024
-3.63114e-06
-2.504e-10
0.00500369
-3.45016e-06
-6.07567e-10
0.00500696
-3.27537e-06
-9.42466e-10
0.00501007
-3.10678e-06
-1.26427e-09
0.00501302
-2.94435e-06
-1.58434e-09