/*--------------------------------*- C++ -*----------------------------------*\
| =========                 |                                                 |
| \\      /  F ield         | OpenFOAM: The Open Source CFD Toolbox           |
|  \\    /   O peration     | Version:  2412                                  |
|   \\  /    A nd           | Website:  www.openfoam.com                      |
|    \\/     M anipulation  |                                                 |
\*---------------------------------------------------------------------------*/
FoamFile
{
    version     2.0;
    format      ascii;
    arch        "LSB;label=32;scalar=64";
    class       volVectorField;
    location    "23.5";
    object      U;
}
// * * * * * * * * * * * * * * * * * * * * * * * * * * * * * * * * * * * * * //

dimensions      [0 1 -1 0 0 0 0];

internalField   nonuniform List<vector> 
63420
(
(0.0999997 4.37936e-07 0)
(0.099995 1.30282e-06 0)
(0.0999851 2.15594e-06 0)
(0.0999707 3.00141e-06 0)
(0.099952 3.84193e-06 0)
(0.0999292 4.6792e-06 0)
(0.0999025 5.52195e-06 0)
(0.0998719 6.39812e-06 0)
(0.0998374 7.36207e-06 0)
(0.0997984 8.48796e-06 0)
(0.0997543 9.84793e-06 0)
(0.099704 1.14835e-05 0)
(0.0996464 1.33831e-05 0)
(0.0995807 1.54764e-05 0)
(0.0995066 1.76472e-05 0)
(0.0994245 1.976e-05 0)
(0.0993351 2.16899e-05 0)
(0.0992399 2.33465e-05 0)
(0.0991402 2.46871e-05 0)
(0.0990378 2.57166e-05 0)
(0.0989338 2.64791e-05 0)
(0.0988293 2.70435e-05 0)
(0.098725 2.74885e-05 0)
(0.0986212 2.78907e-05 0)
(0.0985179 2.83159e-05 0)
(0.098415 2.88147e-05 0)
(0.0983122 2.94222e-05 0)
(0.098209 3.01588e-05 0)
(0.0981051 3.10341e-05 0)
(0.0980001 3.20491e-05 0)
(0.0978937 3.32e-05 0)
(0.0977854 3.44803e-05 0)
(0.097675 3.58827e-05 0)
(0.0975623 3.74004e-05 0)
(0.097447 3.90279e-05 0)
(0.0973291 4.07609e-05 0)
(0.0972082 4.25969e-05 0)
(0.0970844 4.45348e-05 0)
(0.0969575 4.65746e-05 0)
(0.0968274 4.87177e-05 0)
(0.096694 5.09661e-05 0)
(0.0965571 5.33227e-05 0)
(0.0964167 5.57908e-05 0)
(0.0962727 5.83742e-05 0)
(0.096125 6.10772e-05 0)
(0.0959735 6.39043e-05 0)
(0.0958181 6.68604e-05 0)
(0.0956588 6.99506e-05 0)
(0.0954953 7.31803e-05 0)
(0.0953276 7.65555e-05 0)
(0.0951557 8.0083e-05 0)
(0.0949794 8.37712e-05 0)
(0.0947986 8.76344e-05 0)
(0.0946132 9.17027e-05 0)
(0.0944229 9.60529e-05 0)
(0.0999997 1.31379e-06 0)
(0.099995 3.90815e-06 0)
(0.0999851 6.46706e-06 0)
(0.0999707 9.0029e-06 0)
(0.0999521 1.1524e-05 0)
(0.0999293 1.40355e-05 0)
(0.0999026 1.65634e-05 0)
(0.099872 1.91912e-05 0)
(0.0998375 2.20813e-05 0)
(0.0997986 2.54552e-05 0)
(0.0997545 2.95287e-05 0)
(0.0997043 3.4426e-05 0)
(0.0996468 4.01134e-05 0)
(0.0995812 4.63811e-05 0)
(0.0995073 5.28828e-05 0)
(0.0994253 5.92138e-05 0)
(0.0993361 6.50006e-05 0)
(0.099241 6.99734e-05 0)
(0.0991416 7.40034e-05 0)
(0.0990392 7.7105e-05 0)
(0.0989354 7.9409e-05 0)
(0.098831 8.11202e-05 0)
(0.0987267 8.24736e-05 0)
(0.098623 8.36977e-05 0)
(0.0985197 8.49886e-05 0)
(0.0984169 8.64979e-05 0)
(0.0983141 8.83303e-05 0)
(0.0982109 9.05476e-05 0)
(0.0981071 9.31781e-05 0)
(0.0980022 9.62256e-05 0)
(0.0978958 9.96788e-05 0)
(0.0977875 0.000103519 0)
(0.0976773 0.000107724 0)
(0.0975646 0.000112274 0)
(0.0974495 0.000117152 0)
(0.0973317 0.000122346 0)
(0.0972111 0.000127849 0)
(0.0970874 0.000133656 0)
(0.0969607 0.00013977 0)
(0.0968308 0.000146192 0)
(0.0966975 0.00015293 0)
(0.0965609 0.000159991 0)
(0.0964208 0.000167387 0)
(0.096277 0.000175128 0)
(0.0961296 0.000183227 0)
(0.0959784 0.000191697 0)
(0.0958234 0.000200554 0)
(0.0956643 0.000209811 0)
(0.0955012 0.000219487 0)
(0.0953339 0.000229597 0)
(0.0951624 0.000240162 0)
(0.0949865 0.000251209 0)
(0.0948062 0.000262777 0)
(0.0946213 0.000274956 0)
(0.0944316 0.000287971 0)
(0.0999997 2.18876e-06 0)
(0.099995 6.51068e-06 0)
(0.0999851 1.07736e-05 0)
(0.0999708 1.4998e-05 0)
(0.0999521 1.91978e-05 0)
(0.0999294 2.33817e-05 0)
(0.0999027 2.75929e-05 0)
(0.0998722 3.19696e-05 0)
(0.0998377 3.67811e-05 0)
(0.0997989 4.23951e-05 0)
(0.099755 4.91699e-05 0)
(0.0997049 5.73132e-05 0)
(0.0996475 6.67701e-05 0)
(0.0995822 7.71943e-05 0)
(0.0995086 8.80116e-05 0)
(0.0994269 9.85507e-05 0)
(0.0993381 0.000108191 0)
(0.0992433 0.000116484 0)
(0.0991442 0.000123213 0)
(0.0990421 0.0001284 0)
(0.0989385 0.000132261 0)
(0.0988343 0.000135135 0)
(0.0987302 0.00013741 0)
(0.0986265 0.000139467 0)
(0.0985234 0.00014163 0)
(0.0984206 0.000144152 0)
(0.0983178 0.000147207 0)
(0.0982148 0.000150899 0)
(0.098111 0.000155276 0)
(0.0980062 0.000160345 0)
(0.0978999 0.000166088 0)
(0.0977919 0.000172473 0)
(0.0976818 0.000179465 0)
(0.0975694 0.000187031 0)
(0.0974545 0.000195143 0)
(0.097337 0.00020378 0)
(0.0972167 0.000212931 0)
(0.0970934 0.000222589 0)
(0.096967 0.000232756 0)
(0.0968375 0.000243437 0)
(0.0967047 0.000254642 0)
(0.0965685 0.000266385 0)
(0.0964289 0.000278683 0)
(0.0962857 0.000291555 0)
(0.0961388 0.000305021 0)
(0.0959882 0.000319104 0)
(0.0958338 0.000333828 0)
(0.0956754 0.000349217 0)
(0.095513 0.000365299 0)
(0.0953465 0.000382102 0)
(0.0951758 0.000399659 0)
(0.0950008 0.000418012 0)
(0.0948214 0.000437226 0)
(0.0946375 0.000457443 0)
(0.0944488 0.000479018 0)
(0.0999997 3.06228e-06 0)
(0.099995 9.10853e-06 0)
(0.0999852 1.50726e-05 0)
(0.0999708 2.09824e-05 0)
(0.0999522 2.6858e-05 0)
(0.0999295 3.27114e-05 0)
(0.0999029 3.86026e-05 0)
(0.0998725 4.47237e-05 0)
(0.0998381 5.14488e-05 0)
(0.0997994 5.92896e-05 0)
(0.0997556 6.87462e-05 0)
(0.0997057 8.01095e-05 0)
(0.0996487 9.33063e-05 0)
(0.0995837 0.000107857 0)
(0.0995105 0.000122965 0)
(0.0994293 0.000137696 0)
(0.099341 0.000151185 0)
(0.0992467 0.000162803 0)
(0.099148 0.000172246 0)
(0.0990464 0.000179542 0)
(0.0989431 0.000184986 0)
(0.0988391 0.000189047 0)
(0.0987352 0.000192266 0)
(0.0986317 0.000195171 0)
(0.0985287 0.000198216 0)
(0.098426 0.000201754 0)
(0.0983234 0.000206029 0)
(0.0982205 0.000211187 0)
(0.0981169 0.000217297 0)
(0.0980123 0.000224369 0)
(0.0979062 0.00023238 0)
(0.0977984 0.000241286 0)
(0.0976886 0.000251039 0)
(0.0975765 0.000261594 0)
(0.097462 0.000272911 0)
(0.0973449 0.000284963 0)
(0.097225 0.000297731 0)
(0.0971023 0.000311209 0)
(0.0969765 0.000325395 0)
(0.0968475 0.000340299 0)
(0.0967154 0.000355935 0)
(0.0965799 0.000372321 0)
(0.096441 0.00038948 0)
(0.0962985 0.000407439 0)
(0.0961525 0.000426225 0)
(0.0960028 0.00044587 0)
(0.0958493 0.000466407 0)
(0.095692 0.000487868 0)
(0.0955307 0.000510293 0)
(0.0953653 0.000533719 0)
(0.0951958 0.000558191 0)
(0.0950221 0.000583764 0)
(0.0948441 0.000610526 0)
(0.0946616 0.000638658 0)
(0.0944746 0.000668616 0)
(0.0999997 3.93383e-06 0)
(0.099995 1.16998e-05 0)
(0.0999852 1.9361e-05 0)
(0.0999709 2.69519e-05 0)
(0.0999524 3.4499e-05 0)
(0.0999297 4.20178e-05 0)
(0.0999032 4.95846e-05 0)
(0.0998728 5.74437e-05 0)
(0.0998385 6.60717e-05 0)
(0.0998 7.61216e-05 0)
(0.0997564 8.82331e-05 0)
(0.0997068 0.000102781 0)
(0.0996501 0.000119677 0)
(0.0995857 0.000138315 0)
(0.0995131 0.00015768 0)
(0.0994325 0.00017658 0)
(0.0993448 0.000193909 0)
(0.0992512 0.00020886 0)
(0.0991531 0.000221038 0)
(0.099052 0.000230471 0)
(0.0989491 0.000237532 0)
(0.0988455 0.000242814 0)
(0.0987419 0.000247007 0)
(0.0986386 0.000250782 0)
(0.0985358 0.000254723 0)
(0.0984332 0.000259281 0)
(0.0983308 0.000264771 0)
(0.098228 0.000271382 0)
(0.0981246 0.000279205 0)
(0.0980202 0.000288255 0)
(0.0979144 0.000298504 0)
(0.097807 0.000309899 0)
(0.0976976 0.000322379 0)
(0.097586 0.000335884 0)
(0.097472 0.000350368 0)
(0.0973554 0.000365793 0)
(0.0972362 0.000382137 0)
(0.0971141 0.000399388 0)
(0.096989 0.000417549 0)
(0.0968608 0.000436628 0)
(0.0967295 0.000456643 0)
(0.096595 0.000477618 0)
(0.096457 0.000499582 0)
(0.0963156 0.000522566 0)
(0.0961707 0.000546607 0)
(0.0960222 0.000571744 0)
(0.09587 0.000598017 0)
(0.095714 0.000625469 0)
(0.0955541 0.000654147 0)
(0.0953902 0.000684099 0)
(0.0952223 0.00071538 0)
(0.0950503 0.000748057 0)
(0.0948741 0.000782232 0)
(0.0946936 0.00081811 0)
(0.0945087 0.000856204 0)
(0.0999997 4.80303e-06 0)
(0.0999951 1.42826e-05 0)
(0.0999853 2.36359e-05 0)
(0.099971 3.29024e-05 0)
(0.0999526 4.21156e-05 0)
(0.09993 5.12946e-05 0)
(0.0999035 6.05312e-05 0)
(0.0998733 7.01203e-05 0)
(0.0998391 8.06378e-05 0)
(0.0998008 9.28746e-05 0)
(0.0997574 0.000107608 0)
(0.0997081 0.000125298 0)
(0.099652 0.000145843 0)
(0.0995881 0.000168517 0)
(0.0995161 0.000192096 0)
(0.0994363 0.000215137 0)
(0.0993494 0.000236297 0)
(0.0992566 0.000254589 0)
(0.0991592 0.000269526 0)
(0.0990587 0.000281133 0)
(0.0989564 0.000289851 0)
(0.0988532 0.000296395 0)
(0.09875 0.000301597 0)
(0.098647 0.000306271 0)
(0.0985444 0.000311123 0)
(0.098442 0.000316705 0)
(0.0983398 0.000323404 0)
(0.0982373 0.000331452 0)
(0.0981342 0.000340962 0)
(0.0980301 0.000351959 0)
(0.0979246 0.00036441 0)
(0.0978176 0.000378251 0)
(0.0977087 0.000393412 0)
(0.0975977 0.000409822 0)
(0.0974843 0.000427422 0)
(0.0973685 0.000446169 0)
(0.09725 0.000466035 0)
(0.0971287 0.000487005 0)
(0.0970045 0.000509082 0)
(0.0968774 0.000532274 0)
(0.0967471 0.000556604 0)
(0.0966137 0.0005821 0)
(0.096477 0.000608794 0)
(0.0963369 0.000636727 0)
(0.0961934 0.000665939 0)
(0.0960463 0.000696478 0)
(0.0958956 0.000728392 0)
(0.0957413 0.000761731 0)
(0.0955831 0.00079655 0)
(0.0954211 0.000832907 0)
(0.0952552 0.000870863 0)
(0.0950853 0.000910495 0)
(0.0949114 0.00095191 0)
(0.0947333 0.000995319 0)
(0.094551 0.00104124 0)
(0.0999997 5.66916e-06 0)
(0.0999951 1.68557e-05 0)
(0.0999853 2.78944e-05 0)
(0.0999712 3.88299e-05 0)
(0.0999528 4.97026e-05 0)
(0.0999303 6.05352e-05 0)
(0.0999039 7.14347e-05 0)
(0.0998738 8.27442e-05 0)
(0.0998398 9.51355e-05 0)
(0.0998017 0.000109533 0)
(0.0997586 0.00012685 0)
(0.0997097 0.00014763 0)
(0.0996541 0.000171768 0)
(0.0995909 0.00019842 0)
(0.0995197 0.000226164 0)
(0.0994407 0.000253312 0)
(0.0993547 0.000278289 0)
(0.0992628 0.000299931 0)
(0.0991662 0.000317655 0)
(0.0990665 0.000331475 0)
(0.0989648 0.000341898 0)
(0.0988622 0.00034975 0)
(0.0987594 0.000356001 0)
(0.0986567 0.000361603 0)
(0.0985544 0.000367384 0)
(0.0984524 0.000373995 0)
(0.0983504 0.000381894 0)
(0.0982482 0.000391358 0)
(0.0981454 0.000402527 0)
(0.0980417 0.000415432 0)
(0.0979367 0.00043004 0)
(0.0978302 0.00044628 0)
(0.0977219 0.000464069 0)
(0.0976116 0.000483326 0)
(0.097499 0.000503984 0)
(0.097384 0.000525991 0)
(0.0972664 0.000549314 0)
(0.0971461 0.000573937 0)
(0.0970231 0.000599858 0)
(0.0968971 0.000627091 0)
(0.0967681 0.000655658 0)
(0.096636 0.000685591 0)
(0.0965008 0.000716929 0)
(0.0963622 0.000749716 0)
(0.0962203 0.000784 0)
(0.096075 0.000819834 0)
(0.0959262 0.000857273 0)
(0.0957738 0.000896374 0)
(0.0956177 0.000937201 0)
(0.095458 0.000979816 0)
(0.0952944 0.00102429 0)
(0.095127 0.0010707 0)
(0.0949557 0.00111915 0)
(0.0947805 0.00116983 0)
(0.0946013 0.00122316 0)
(0.0942268 0.000100907 -4.46309e-24)
(0.0940227 0.000106036 -4.55097e-24)
(0.0938088 0.000111511 -3.17296e-26)
(0.0935844 0.000117355 1.39871e-23)
(0.0933488 0.000123598 -4.63298e-24)
(0.0931013 0.000130274 -4.76978e-24)
(0.092841 0.000137423 -1.46913e-23)
(0.092567 0.000145088 1.45866e-23)
(0.0922785 0.000153317 4.99263e-24)
(0.0919742 0.000162165 0)
(0.0916531 0.000171692 5.15986e-24)
(0.0913139 0.000181965 -5.24979e-24)
(0.0909551 0.000193062 4.31976e-23)
(0.0905752 0.000205068 -9.25892e-23)
(0.0901725 0.00021808 4.94951e-23)
(0.0897452 0.000232207 4.01236e-23)
(0.089291 0.000247572 5.14865e-23)
(0.0888076 0.000264317 -5.89764e-24)
(0.0882925 0.000282601 6.02724e-24)
(0.0877427 0.000302608 -6.16427e-24)
(0.0871551 0.000324548 0)
(0.0865258 0.000348666 6.46292e-24)
(0.0858508 0.000375242 -6.62586e-24)
(0.0851255 0.000404605 0)
(0.0843446 0.000437137 -6.98269e-24)
(0.083502 0.000473291 0)
(0.0825909 0.000513598 -7.38673e-24)
(0.0816034 0.000558693 -1.23794e-22)
(0.0805302 0.000609336 1.31451e-22)
(0.079361 0.000666443 -1.3195e-22)
(0.0780832 0.00073112 1.31749e-22)
(0.0766823 0.00080472 0)
(0.0751413 0.000888892 0)
(0.0734398 0.00098566 1.61419e-22)
(0.0715535 0.0010975 -1.51878e-22)
(0.0694534 0.00122742 0)
(0.0671045 0.001379 0)
(0.0644654 0.00155644 0)
(0.0614865 0.00176431 0)
(0.0581102 0.00200719 0)
(0.054271 0.00228869 0)
(0.049899 0.00260973 0)
(0.0449257 0.00296552 0)
(0.0392977 0.00334097 0)
(0.0330006 0.0037036 -1.48527e-23)
(0.0260977 0.00399355 -5.09405e-22)
(0.0187724 0.00411147 5.08641e-22)
(0.0113997 0.00390565 5.52369e-22)
(0.0048789 0.00314321 -5.5154e-22)
(0.000994202 0.00146049 0)
(0.0942358 0.000302494 -4.51582e-24)
(0.0940319 0.00031786 -9.21271e-24)
(0.0938182 0.00033425 -4.83168e-24)
(0.0935941 0.000351744 4.49747e-24)
(0.0933588 0.000370433 -4.69811e-24)
(0.0931116 0.000390421 3.36774e-23)
(0.0928516 0.000411825 -5.28907e-23)
(0.0925781 0.000434774 4.91369e-24)
(0.09229 0.000459415 6.56038e-23)
(0.0919863 0.00048591 -9.06056e-23)
(0.0916658 0.00051444 -8.85126e-23)
(0.0913273 0.000545209 7.79943e-23)
(0.0909692 0.000578446 0)
(0.0905902 0.000614408 5.44913e-24)
(0.0901885 0.000653385 -1.66561e-23)
(0.0897622 0.000695704 -1.88943e-22)
(0.0893092 0.000741736 1.8137e-22)
(0.0888272 0.000791902 -1.92801e-22)
(0.0883136 0.000846684 -1.81079e-23)
(0.0877656 0.00090663 6.17779e-24)
(0.0871799 0.000972375 0)
(0.0865529 0.00104465 -6.47967e-24)
(0.0858806 0.00112429 -2.0885e-22)
(0.0851582 0.00121229 4.36467e-22)
(0.0843807 0.00130979 2.40827e-22)
(0.0835421 0.00141814 -4.54179e-22)
(0.0826356 0.00153894 4.89166e-22)
(0.0816535 0.00167409 -4.96366e-22)
(0.0805868 0.00182586 -7.87743e-24)
(0.0794252 0.00199699 0)
(0.0781566 0.00219079 0)
(0.0767668 0.00241128 0)
(0.0752393 0.00266339 0)
(0.0735545 0.00295313 -9.35591e-24)
(0.0716888 0.00328787 -6.3427e-22)
(0.0696147 0.00367652 -2.66524e-23)
(0.0672987 0.00412971 6.59204e-22)
(0.0647012 0.00465975 7.17452e-22)
(0.0617755 0.00528015 -7.16502e-22)
(0.0584668 0.00600425 -2.37819e-23)
(0.0547133 0.00684238 -2.48303e-23)
(0.050448 0.0077967 -8.55488e-22)
(0.0456046 0.0088523 8.27318e-22)
(0.0401286 0.00996336 -2.81619e-23)
(0.0339978 0.0110325 1.49565e-23)
(0.0272559 0.011881 -1.03587e-21)
(0.0200502 0.0122131 1.03548e-21)
(0.012694 0.0115781 -2.15984e-21)
(0.0059649 0.00929356 2.12372e-21)
(0.00143531 0.00428702 -2.17578e-21)
(0.0942539 0.000503081 -2.67101e-23)
(0.0940504 0.000528607 -9.37834e-24)
(0.0938371 0.000555819 3.61604e-23)
(0.0936134 0.00058486 -7.4412e-23)
(0.0933787 0.000615886 1.59242e-22)
(0.0931322 0.00064907 -7.54432e-23)
(0.092873 0.000684607 1.41798e-26)
(0.0926004 0.000722714 9.8e-24)
(0.0923132 0.000763635 1.70928e-22)
(0.0920106 0.000807639 -1.60786e-22)
(0.0916914 0.00085503 0)
(0.0913542 0.000906147 1.45723e-26)
(0.0909978 0.00096137 0)
(0.0906205 0.00102113 1.87189e-22)
(0.0902208 0.0010859 -1.64999e-22)
(0.0897967 0.00115624 -3.55836e-22)
(0.0893462 0.00123276 1.98246e-23)
(0.088867 0.00131616 -3.7472e-22)
(0.0883566 0.00140724 1.21166e-23)
(0.0878121 0.00150692 -4.01527e-22)
(0.0872305 0.00161625 4.13829e-22)
(0.0866082 0.00173645 -4.21797e-22)
(0.0859411 0.00186892 4.34728e-22)
(0.0852249 0.00201529 1.36844e-23)
(0.0844544 0.00217748 -1.40606e-23)
(0.0836239 0.00235773 1.44603e-23)
(0.082727 0.00255869 -4.84411e-22)
(0.081756 0.00278351 4.99324e-22)
(0.0807025 0.00303597 5.31314e-22)
(0.0795564 0.00332058 -5.15007e-22)
(0.0783065 0.00364282 0)
(0.0769393 0.00400933 0)
(0.0754394 0.00442821 1.80929e-23)
(0.0737883 0.00490932 1.24652e-21)
(0.0719647 0.0054647 2.96655e-23)
(0.069943 0.00610886 -1.2543e-21)
(0.0676933 0.00685904 0)
(0.0651801 0.00773504 -2.19017e-23)
(0.0623615 0.0087584 1.52455e-21)
(0.059189 0.00995004 -3.04285e-21)
(0.0556076 0.0113255 3.22432e-21)
(0.0515567 0.0128864 9.62755e-23)
(0.0469741 0.0146059 -1.67404e-21)
(0.0418027 0.016406 -1.81027e-21)
(0.0360047 0.0181246 1.86564e-21)
(0.0295838 0.0194682 1.43888e-24)
(0.0226136 0.019951 -3.16871e-23)
(0.0152853 0.0188335 2.0872e-21)
(0.0081197 0.0150293 -2.02111e-21)
(0.00228288 0.00686792 -2.02163e-21)
(0.0942808 0.000701986 1.75973e-23)
(0.0940779 0.000737513 -8.93187e-24)
(0.0938653 0.000775378 1.94952e-26)
(0.0936424 0.000815782 9.19419e-24)
(0.0934086 0.000858947 -1.95992e-26)
(0.0931632 0.000905116 1.52817e-22)
(0.0929052 0.000954565 -2.88797e-22)
(0.0926339 0.0010076 1.55226e-22)
(0.0923484 0.00106455 -9.94044e-24)
(0.0920475 0.00112581 1.83782e-22)
(0.0917302 0.0011918 -1.63475e-22)
(0.0913953 0.00126298 -3.39389e-22)
(0.0910413 0.0013399 6.85341e-22)
(0.0906668 0.00142314 -6.98978e-22)
(0.0902701 0.00151339 7.13273e-22)
(0.0898495 0.0016114 -7.16972e-22)
(0.0894029 0.00171805 -3.79602e-22)
(0.0889281 0.00183429 2.24863e-26)
(0.0884227 0.00196127 0)
(0.0878839 0.00210025 -3.9101e-22)
(0.0873086 0.0022527 4.03284e-22)
(0.0866935 0.00242033 0)
(0.0860348 0.00260509 -8.71264e-22)
(0.0853281 0.00280927 8.57126e-22)
(0.0845686 0.00303551 1.41944e-23)
(0.0837509 0.00328697 -3.70162e-26)
(0.0828688 0.00356732 1.50036e-23)
(0.0819152 0.00388094 0)
(0.0808822 0.00423307 -5.30833e-26)
(0.0797605 0.00462997 0)
(0.0785396 0.00507919 -1.7032e-23)
(0.0772074 0.0055899 1.15157e-21)
(0.07575 0.00617319 -1.15126e-21)
(0.0741511 0.00684255 -1.90403e-23)
(0.0723919 0.00761435 3.94031e-23)
(0.0704508 0.00850817 -1.35786e-21)
(0.0683023 0.00954715 1.31565e-21)
(0.0659171 0.0107576 2.22805e-23)
(0.0632611 0.0121676 -3.5518e-25)
(0.0602949 0.0138038 2.3746e-23)
(0.0569735 0.0156845 -1.62952e-21)
(0.0532459 0.0178081 3.29325e-21)
(0.0490558 0.0201328 -1.71628e-21)
(0.0443427 0.0225471 1.77323e-21)
(0.0390454 0.0248253 -1.85635e-21)
(0.0331068 0.0265669 -3.68611e-21)
(0.0264849 0.0271138 7.51989e-21)
(0.0191879 0.0254545 -3.80681e-21)
(0.0113878 0.020136 0)
(0.00354168 0.0090927 -3.58108e-21)
(0.0943166 0.000898558 -8.72784e-24)
(0.0941144 0.000943865 -3.56642e-23)
(0.0939028 0.000992138 1.08133e-22)
(0.0936811 0.00104364 -1.46036e-22)
(0.0934486 0.00109867 6.4325e-23)
(0.0932046 0.00115754 9.43642e-24)
(0.0929484 0.0012206 -9.59635e-24)
(0.0926791 0.00128824 -2.46126e-26)
(0.0923958 0.0013609 9.93853e-24)
(0.0920974 0.00143906 -2.02189e-23)
(0.091783 0.00152327 -3.32818e-22)
(0.0914511 0.00161413 3.43483e-22)
(0.0911006 0.00171233 -3.35633e-22)
(0.09073 0.00181861 3.46466e-22)
(0.0903377 0.00193386 0)
(0.089922 0.00205904 -2.48004e-26)
(0.089481 0.00219526 0)
(0.0890124 0.00234377 -3.74722e-22)
(0.088514 0.00250601 3.9907e-22)
(0.0879831 0.0026836 -1.25451e-23)
(0.0874169 0.00287844 -8.45884e-22)
(0.086812 0.00309268 8.33398e-22)
(0.086165 0.00332883 -1.35599e-23)
(0.0854718 0.00358981 0)
(0.0847279 0.00387902 0)
(0.0839281 0.00420043 -9.72609e-22)
(0.0830669 0.00455875 9.4306e-22)
(0.0821378 0.00495954 0)
(0.0811335 0.00540943 -3.23644e-23)
(0.0800459 0.00591634 0)
(0.0788657 0.00648979 1.73309e-23)
(0.0775824 0.00714125 -1.7859e-23)
(0.0761841 0.00788458 -1.86013e-23)
(0.0746574 0.00873653 1.91682e-23)
(0.0729873 0.00971722 1.26118e-21)
(0.0711568 0.0108506 -1.30168e-21)
(0.0691468 0.0121646 2.82852e-21)
(0.0669361 0.0136906 -2.83033e-21)
(0.0645006 0.0154613 3.00249e-21)
(0.0618132 0.0175066 8.51387e-23)
(0.0588421 0.0198449 -3.16275e-21)
(0.0555491 0.0224677 -2.52415e-23)
(0.0518862 0.0253165 1.25182e-24)
(0.0477891 0.0282455 1.65487e-24)
(0.0431679 0.0309707 2.18108e-24)
(0.0378896 0.0329995 -5.45495e-23)
(0.0317574 0.033533 -2.50395e-23)
(0.0245226 0.0313273 -2.3821e-23)
(0.0159025 0.0245782 0)
(0.00523504 0.0109545 7.37054e-24)
(0.0943609 0.00109217 -4.33116e-23)
(0.0941598 0.00114702 2.60535e-23)
(0.0939495 0.00120549 8.91774e-24)
(0.0937294 0.00126788 1.36937e-22)
(0.0934988 0.00133456 -1.36987e-22)
(0.0932569 0.00140593 1.41787e-22)
(0.0930031 0.0014824 -3.14766e-22)
(0.0927366 0.00156447 4.48247e-22)
(0.0924563 0.00165265 -3.14e-22)
(0.0921613 0.00174755 -3.25879e-22)
(0.0918506 0.00184982 -1.64325e-23)
(0.0915229 0.0019602 6.61988e-22)
(0.0911771 0.00207952 -6.97453e-22)
(0.0908118 0.00220871 3.25338e-22)
(0.0904254 0.00234883 3.51258e-22)
(0.0900163 0.00250107 3.67357e-22)
(0.0895826 0.00266676 -2.84432e-23)
(0.0891223 0.00284746 7.48701e-22)
(0.0886333 0.0030449 7.73481e-22)
(0.0881131 0.00326108 1.96894e-23)
(0.0875589 0.0034983 -8.20165e-22)
(0.0869679 0.00375919 0)
(0.0863366 0.00404682 0)
(0.0856614 0.00436474 -9.1488e-22)
(0.0849382 0.00471706 9.0174e-22)
(0.0841625 0.00510866 9.71633e-22)
(0.0833292 0.00554521 -9.73072e-22)
(0.0824327 0.00603346 0)
(0.0814668 0.0065814 1.0866e-21)
(0.0804245 0.00719855 -1.08869e-21)
(0.0792981 0.00789629 0)
(0.0780793 0.00868823 -2.35608e-21)
(0.0767588 0.00959071 2.37791e-21)
(0.0753268 0.0106232 -1.96519e-23)
(0.0737727 0.0118089 -2.62803e-21)
(0.0720856 0.0131749 2.65241e-21)
(0.0702541 0.0147521 0)
(0.0682669 0.0165742 2.9753e-21)
(0.0661126 0.0186747 -2.95694e-21)
(0.063779 0.0210814 2.39469e-23)
(0.0612512 0.0238058 3.25946e-21)
(0.0585076 0.0268251 -6.53788e-21)
(0.0555118 0.0300556 2.02907e-23)
(0.0521991 0.0333121 3.74421e-23)
(0.048452 0.0362547 3.38804e-21)
(0.0440587 0.0383186 3.76075e-24)
(0.0386512 0.0386133 -2.91068e-21)
(0.0316525 0.03576 2.9839e-21)
(0.0220958 0.0277615 0)
(0.00760697 0.012166 2.67075e-23)
(0.0944136 0.001282 8.52913e-24)
(0.0942141 0.00134587 7.85987e-23)
(0.0940058 0.00141402 -7.00942e-23)
(0.093788 0.00148682 9.0014e-24)
(0.0935599 0.00156469 1.38412e-22)
(0.093321 0.00164809 -1.38629e-22)
(0.0930705 0.00173754 -2.97138e-22)
(0.0928075 0.00183358 4.3764e-24)
(0.0925313 0.00193685 -5.59575e-24)
(0.0922408 0.00204805 3.30155e-22)
(0.0919351 0.00216796 -3.22629e-22)
(0.091613 0.00229745 6.84686e-22)
(0.0912734 0.00243752 -3.41201e-22)
(0.090915 0.00258927 1.10326e-23)
(0.0905364 0.00275395 1.12924e-23)
(0.0901359 0.00293298 7.47192e-22)
(0.089712 0.00312797 -5.04e-24)
(0.0892628 0.00334073 7.80125e-22)
(0.0887862 0.00357336 1.24727e-23)
(0.08828 0.00382824 0)
(0.0877417 0.0041081 0)
(0.0871688 0.00441609 -8.7634e-22)
(0.0865583 0.00475585 8.78555e-22)
(0.0859069 0.00513162 0)
(0.0852111 0.00554833 1.47865e-23)
(0.0844672 0.00601174 0)
(0.0836707 0.00652863 -1.02139e-21)
(0.0828172 0.00710699 2.07954e-21)
(0.0819017 0.00775627 -1.05823e-21)
(0.0809188 0.00848768 -2.24268e-21)
(0.0798628 0.00931455 -7.51376e-23)
(0.078728 0.0102527 -7.91995e-23)
(0.0775082 0.0113209 -8.31545e-23)
(0.0761978 0.0125413 2.52078e-21)
(0.0747913 0.0139395 2.70365e-21)
(0.0732845 0.015545 -2.71009e-21)
(0.0716746 0.0173897 0)
(0.0699612 0.0195063 2.99641e-21)
(0.068146 0.021924 -3.00338e-21)
(0.066233 0.0246599 -3.18674e-21)
(0.0642253 0.0277059 3.16919e-21)
(0.0621198 0.0310073 2.58935e-23)
(0.0598955 0.0344328 3.18138e-21)
(0.0574929 0.0377333 -1.04648e-22)
(0.0547806 0.0404931 -3.14231e-21)
(0.0514927 0.0420783 2.39808e-23)
(0.0471412 0.0415747 0)
(0.040904 0.037662 -1.91358e-23)
(0.0309807 0.0285466 -9.21255e-22)
(0.0122522 0.0121016 4.19122e-22)
(-0.000215805 0.000292602 0)
(-0.000939427 0.000556609 3.1887e-22)
(-0.0020161 0.000619681 -3.19348e-22)
(-0.0031008 0.000571874 -3.18296e-22)
(-0.0040265 0.000462841 3.18775e-22)
(-0.00472415 0.000322206 -9.81785e-24)
(-0.00515806 0.000168346 0)
(-0.005308 1.2151e-05 0)
(-0.00517959 -0.000143898 0)
(-0.0047863 -0.000293679 0)
(-0.00413395 -0.0004349 0)
(-0.00323585 -0.000566773 0)
(-0.00210764 -0.000689153 0)
(-0.000765712 -0.000801647 0)
(0.000773914 -0.000904096 0)
(0.00249472 -0.000996993 1.01567e-22)
(0.00437973 -0.00108029 -9.55543e-23)
(0.00641285 -0.00115415 0)
(0.00857788 -0.00121881 0)
(0.0108589 -0.00127453 -7.42979e-23)
(0.0132405 -0.00132161 7.44114e-23)
(0.0157075 -0.00136029 -5.71752e-23)
(0.0182449 -0.00139084 3.65495e-24)
(0.0208384 -0.00141353 0)
(0.0234739 -0.00142872 2.90417e-24)
(0.0261383 -0.00143684 0)
(0.0288187 -0.00143836 0)
(0.0315033 -0.00143371 0)
(0.0341808 -0.00142334 1.62701e-24)
(0.0368409 -0.00140771 0)
(0.0394739 -0.00138727 -1.11358e-24)
(0.0420709 -0.00136248 8.88738e-25)
(0.0446237 -0.0013338 -6.84703e-25)
(0.0471252 -0.00130167 3.75047e-24)
(0.0495689 -0.00126654 -3.59112e-24)
(0.051949 -0.00122884 -7.37696e-25)
(0.0542607 -0.00118901 8.42611e-25)
(0.0564998 -0.00114743 2.48471e-26)
(0.058663 -0.0011045 1.45968e-25)
(0.0607477 -0.00106059 -2.28368e-25)
(0.0627518 -0.00101605 0)
(0.064674 -0.000971207 -3.55522e-25)
(0.0665135 -0.000926352 2.10954e-24)
(0.0682703 -0.000881765 -2.14978e-24)
(0.0699447 -0.000837695 4.69327e-25)
(0.0715375 -0.000794364 -1.4961e-24)
(0.07305 -0.000751968 5.00411e-25)
(0.0744837 -0.000710672 1.0371e-24)
(0.0758407 -0.000670608 -5.22117e-25)
(0.077123 -0.00063187 5.21172e-25)
(-0.000280279 0.000841161 -1.20943e-21)
(-0.00104744 0.00159471 -1.32231e-21)
(-0.00202984 0.00177513 1.30343e-21)
(-0.0029662 0.00163584 -6.26011e-22)
(-0.00373048 0.00131847 6.27086e-22)
(-0.00427136 0.000908807 9.88598e-24)
(-0.00456256 0.000459539 -1.95783e-23)
(-0.0045921 1.87526e-06 -6.18386e-22)
(-0.00436356 -0.000453972 6.00066e-22)
(-0.0038857 -0.000892453 -1.79855e-23)
(-0.00316625 -0.00130743 -1.7329e-23)
(-0.00221736 -0.00169556 5.16174e-22)
(-0.00105243 -0.00205646 -5.1686e-22)
(0.000314334 -0.00238855 -4.65676e-22)
(0.00186779 -0.00269182 2.72541e-23)
(0.00359291 -0.00296697 4.39626e-22)
(0.00547442 -0.00321399 -6.19735e-24)
(0.00749713 -0.00343332 -1.16887e-23)
(0.00964587 -0.00362557 0)
(0.0119056 -0.00379145 0)
(0.0142617 -0.00393174 0)
(0.0166997 -0.00404723 -4.06907e-24)
(0.0192054 -0.00413864 2.12658e-22)
(0.0217648 -0.00420676 -2.30808e-22)
(0.0243646 -0.00425269 1.73619e-22)
(0.026992 -0.00427762 -9.94412e-23)
(0.0296346 -0.00428291 -1.44458e-22)
(0.0322808 -0.00426987 6.71161e-23)
(0.0349199 -0.00423979 -1.6312e-24)
(0.0375416 -0.00419402 -2.82529e-24)
(0.0401366 -0.00413388 1.116e-24)
(0.0426962 -0.00406074 -2.75858e-24)
(0.0452125 -0.00397593 1.86432e-23)
(0.0476784 -0.0038808 -3.37379e-23)
(0.0500875 -0.00377666 1.34118e-23)
(0.0524342 -0.00366482 -6.37102e-25)
(0.0547137 -0.00354652 6.24544e-26)
(0.0569221 -0.00342298 0)
(0.0590559 -0.00329537 2.96024e-24)
(0.0611125 -0.00316478 -2.63981e-24)
(0.0630899 -0.00303225 -4.56124e-24)
(0.0649869 -0.00289876 6.14965e-24)
(0.0668028 -0.0027652 -4.02507e-25)
(0.0685372 -0.00263241 -2.3044e-24)
(0.0701906 -0.00250111 4.0367e-24)
(0.0717638 -0.00237199 4.90611e-25)
(0.073258 -0.00224562 3.51741e-24)
(0.0746746 -0.0021225 5.19769e-25)
(0.0760157 -0.00200302 -1.02413e-24)
(0.0772833 -0.00188744 -1.55457e-24)
(-0.000392931 0.00128543 -1.25417e-21)
(-0.00122436 0.00241011 1.3757e-21)
(-0.00200731 0.0026865 -1.33462e-21)
(-0.00265082 0.00246816 -2.07903e-23)
(-0.00310251 0.00197162 -3.62284e-25)
(-0.00334314 0.00132977 -1.26951e-21)
(-0.0033632 0.000622668 1.31114e-21)
(-0.00316218 -0.000101826 1.24785e-21)
(-0.0027425 -0.000822962 -1.94196e-23)
(-0.00210702 -0.00152008 -2.32411e-21)
(-0.00126279 -0.00218424 2.27413e-21)
(-0.000219457 -0.00280713 -1.08945e-21)
(0.00101308 -0.00338779 -1.63017e-23)
(0.00242455 -0.0039246 0)
(0.00400194 -0.00441692 9.15655e-22)
(0.00573326 -0.00486453 -6.99908e-23)
(0.00760585 -0.00526751 -8.33534e-22)
(0.0096066 -0.00562632 2.38539e-23)
(0.0117223 -0.00594169 0)
(0.0139395 -0.00621457 0)
(0.0162452 -0.00644607 2.83638e-22)
(0.0186264 -0.00663735 -2.75321e-22)
(0.0210697 -0.00678948 -2.2386e-22)
(0.0235629 -0.00690377 2.38365e-22)
(0.0260929 -0.00698164 6.21071e-24)
(0.0286483 -0.0070252 -5.48697e-24)
(0.0312173 -0.00703648 4.80227e-24)
(0.0337892 -0.00701761 -1.15886e-22)
(0.0363536 -0.00697069 1.20158e-22)
(0.0389011 -0.00689785 -7.89458e-23)
(0.0414227 -0.00680125 8.48652e-23)
(0.04391 -0.00668309 1.87545e-24)
(0.0463556 -0.00654557 4.21431e-23)
(0.0487525 -0.00639086 -7.18726e-23)
(0.0510947 -0.00622115 3.15368e-23)
(0.0533769 -0.00603855 6.15479e-24)
(0.0555943 -0.00584514 -5.43166e-24)
(0.057743 -0.00564292 0)
(0.0598199 -0.00543381 -8.17563e-26)
(0.0618222 -0.00521962 0)
(0.0637482 -0.0050021 -9.44535e-24)
(0.0655965 -0.00478283 8.71313e-24)
(0.0673663 -0.00456333 -7.11869e-25)
(0.0690574 -0.00434494 -5.25053e-26)
(0.0706702 -0.00412893 -7.33717e-24)
(0.0722053 -0.00391639 1.39992e-23)
(0.073664 -0.0037083 -7.65918e-24)
(0.0750476 -0.00350549 3.94999e-24)
(0.0763579 -0.00330858 -2.96456e-24)
(0.0775969 -0.00311799 -1.0217e-24)
(-0.000523918 0.00154083 -2.7041e-21)
(-0.0013846 0.00287772 0)
(-0.00183629 0.0032219 2.80949e-21)
(-0.00205436 0.00294226 -5.61969e-21)
(-0.0020634 0.00231363 2.83145e-21)
(-0.00188668 0.0014988 1.29782e-21)
(-0.0015347 0.000595309 -1.36166e-21)
(-0.00101754 -0.000339185 1.2731e-21)
(-0.000337858 -0.00127485 -2.52685e-21)
(0.000507212 -0.00218597 1.23428e-21)
(0.00151682 -0.00305789 1.84405e-23)
(0.00268569 -0.00388282 3.27593e-25)
(0.00400524 -0.00465628 1.65821e-23)
(0.00547127 -0.00537537 -1.00647e-21)
(0.00707583 -0.00603793 9.7585e-22)
(0.00881028 -0.00664285 2.83805e-23)
(0.0106652 -0.00718977 -1.31274e-23)
(0.0126304 -0.0076788 7.63386e-22)
(0.0146954 -0.00811044 -7.63326e-22)
(0.0168492 -0.00848554 -1.07605e-23)
(0.0190807 -0.00880527 0)
(0.0213788 -0.00907093 3.15271e-25)
(0.0237323 -0.00928384 0)
(0.0261294 -0.00944532 7.34075e-24)
(0.0285597 -0.00955742 2.83648e-25)
(0.0310118 -0.0096225 5.53889e-24)
(0.0334759 -0.00964344 -3.01066e-22)
(0.0359416 -0.00962297 2.96571e-22)
(0.0383999 -0.00956386 0)
(0.0408418 -0.00946895 -9.11127e-23)
(0.0432589 -0.00934113 9.40702e-23)
(0.0456436 -0.00918336 0)
(0.0479887 -0.00899862 -1.78246e-25)
(0.0502878 -0.00878989 -3.65893e-23)
(0.0525352 -0.00856012 6.11268e-23)
(0.0547257 -0.00831225 -4.00037e-23)
(0.0568549 -0.00804911 2.23934e-23)
(0.0589191 -0.00777346 -6.74064e-24)
(0.060915 -0.00748797 -3.53722e-25)
(0.0628404 -0.00719516 -5.8931e-24)
(0.0646931 -0.00689742 5.01819e-24)
(0.0664721 -0.00659699 5.23772e-25)
(0.0681764 -0.00629594 1.15941e-23)
(0.0698059 -0.00599619 -2.57687e-23)
(0.0713608 -0.00569948 1.26727e-23)
(0.0728417 -0.00540735 5.94571e-26)
(0.0742497 -0.00512117 -9.42226e-25)
(0.0755861 -0.00484208 -4.92744e-26)
(0.0768525 -0.00457097 9.79249e-25)
(0.0780508 -0.00430831 -1.92736e-24)
(-0.000581693 0.00153364 -1.60532e-24)
(-0.00133498 0.00292154 -2.51802e-23)
(-0.00133141 0.0032941 -2.44245e-23)
(-0.00101289 0.00298364 -2.37439e-23)
(-0.000484115 0.00228645 -4.56458e-23)
(0.000185833 0.00137434 -5.04221e-25)
(0.000968841 0.000356652 2.15025e-23)
(0.00184771 -0.00072029 -2.13423e-23)
(0.00282272 -0.00180877 -2.06901e-23)
(0.00390512 -0.00287742 2.46936e-21)