/*--------------------------------*- C++ -*----------------------------------*\
| =========                 |                                                 |
| \\      /  F ield         | OpenFOAM: The Open Source CFD Toolbox           |
|  \\    /   O peration     | Version:  2412                                  |
|   \\  /    A nd           | Website:  www.openfoam.com                      |
|    \\/     M anipulation  |                                                 |
\*---------------------------------------------------------------------------*/
FoamFile
{
    version     2.0;
    format      ascii;
    arch        "LSB;label=32;scalar=64";
    class       volVectorField;
    location    "23.5";
    object      vorticity;
}
// * * * * * * * * * * * * * * * * * * * * * * * * * * * * * * * * * * * * * //

dimensions      [0 0 -1 0 0 0 0];

internalField   nonuniform List<vector> 
63420
(
(0 0 5.91882e-06)
(0 0 5.89633e-06)
(0 0 5.87655e-06)
(0 0 5.85071e-06)
(0 0 5.80972e-06)
(0 0 5.78028e-06)
(0 0 5.86727e-06)
(0 0 6.25177e-06)
(0 0 7.11554e-06)
(0 0 8.51951e-06)
(0 0 1.03066e-05)
(0 0 1.20935e-05)
(0 0 1.33664e-05)
(0 0 1.36401e-05)
(0 0 1.26111e-05)
(0 0 1.02464e-05)
(0 0 6.78271e-06)
(0 0 2.65109e-06)
(0 0 -1.63717e-06)
(0 0 -5.60314e-06)
(0 0 -8.88219e-06)
(0 0 -1.12631e-05)
(0 0 -1.26873e-05)
(0 0 -1.32205e-05)
(0 0 -1.30108e-05)
(0 0 -1.2246e-05)
(0 0 -1.1118e-05)
(0 0 -9.79876e-06)
(0 0 -8.42674e-06)
(0 0 -7.10268e-06)
(0 0 -5.89173e-06)
(0 0 -4.82919e-06)
(0 0 -3.92757e-06)
(0 0 -3.18359e-06)
(0 0 -2.5842e-06)
(0 0 -2.11127e-06)
(0 0 -1.745e-06)
(0 0 -1.46607e-06)
(0 0 -1.25695e-06)
(0 0 -1.10249e-06)
(0 0 -9.90049e-07)
(0 0 -9.09407e-07)
(0 0 -8.52483e-07)
(0 0 -8.13009e-07)
(0 0 -7.86202e-07)
(0 0 -7.68452e-07)
(0 0 -7.56982e-07)
(0 0 -7.49449e-07)
(0 0 -7.42993e-07)
(0 0 -7.31466e-07)
(0 0 -6.96409e-07)
(0 0 -5.7802e-07)
(0 0 -1.84502e-07)
(0 0 1.08238e-06)
(0 4.42858e-23 5.02725e-06)
(0 0 1.77554e-05)
(0 0 1.76866e-05)
(0 0 1.76264e-05)
(0 0 1.7549e-05)
(0 0 1.74271e-05)
(0 0 1.73398e-05)
(0 0 1.75999e-05)
(0 0 1.87482e-05)
(0 0 2.13282e-05)
(0 0 2.55238e-05)
(0 0 3.08685e-05)
(0 0 3.62199e-05)
(0 0 4.0045e-05)
(0 0 4.08939e-05)
(0 0 3.7858e-05)
(0 0 3.08342e-05)
(0 0 2.05245e-05)
(0 0 8.21206e-06)
(0 0 -4.57961e-06)
(0 0 -1.64218e-05)
(0 0 -2.62251e-05)
(0 0 -3.3357e-05)
(0 0 -3.76402e-05)
(0 0 -3.92677e-05)
(0 0 -3.86787e-05)
(0 0 -3.64314e-05)
(0 0 -3.30971e-05)
(0 0 -2.91881e-05)
(0 0 -2.51171e-05)
(0 0 -2.11846e-05)
(0 0 -1.75856e-05)
(0 0 -1.44257e-05)
(0 0 -1.17429e-05)
(0 0 -9.52811e-06)
(0 0 -7.74278e-06)
(0 0 -6.33337e-06)
(0 0 -5.24115e-06)
(0 0 -4.40879e-06)
(0 0 -3.7842e-06)
(0 0 -3.32231e-06)
(0 0 -2.98554e-06)
(0 0 -2.74348e-06)
(0 0 -2.57204e-06)
(0 0 -2.45256e-06)
(0 0 -2.37074e-06)
(0 0 -2.31578e-06)
(0 0 -2.27937e-06)
(0 0 -2.25453e-06)
(0 0 -2.23281e-06)
(0 0 -2.19628e-06)
(0 0 -2.09137e-06)
(0 0 -1.7446e-06)
(0 0 -5.9887e-07)
(0 0 3.08643e-06)
(0 4.47544e-23 1.4571e-05)
(0 0 2.95798e-05)
(0 0 2.94647e-05)
(0 0 2.93639e-05)
(0 0 2.92352e-05)
(0 0 2.90329e-05)
(0 0 2.88877e-05)
(0 0 2.93172e-05)
(0 0 3.12186e-05)
(0 0 3.54971e-05)
(0 0 4.24645e-05)
(0 0 5.13566e-05)
(0 0 6.02874e-05)
(0 0 6.67179e-05)
(0 0 6.82411e-05)
(0 0 6.33397e-05)
(0 0 5.18276e-05)
(0 0 3.48531e-05)
(0 0 1.45298e-05)
(0 0 -6.62488e-06)
(0 0 -2.62452e-05)
(0 0 -4.25228e-05)
(0 0 -5.44027e-05)
(0 0 -6.15824e-05)
(0 0 -6.43729e-05)
(0 0 -6.3494e-05)
(0 0 -5.98642e-05)
(0 0 -5.44261e-05)
(0 0 -4.80254e-05)
(0 0 -4.1345e-05)
(0 0 -3.48831e-05)
(0 0 -2.89631e-05)
(0 0 -2.37617e-05)
(0 0 -1.93429e-05)
(0 0 -1.5693e-05)
(0 0 -1.27496e-05)
(0 0 -1.04252e-05)
(0 0 -8.62322e-06)
(0 0 -7.24958e-06)
(0 0 -6.21854e-06)
(0 0 -5.4559e-06)
(0 0 -4.89975e-06)
(0 0 -4.49994e-06)
(0 0 -4.21677e-06)
(0 0 -4.01942e-06)
(0 0 -3.88433e-06)
(0 0 -3.79364e-06)
(0 0 -3.7337e-06)
(0 0 -3.69305e-06)
(0 0 -3.65816e-06)
(0 0 -3.60096e-06)
(0 0 -3.43823e-06)
(0 0 -2.90054e-06)
(0 0 -1.12e-06)
(0 0 4.62581e-06)
(0 2.64073e-22 2.2596e-05)
(0 0 4.13839e-05)
(0 0 4.12224e-05)
(0 0 4.10808e-05)
(0 0 4.09012e-05)
(0 0 4.06195e-05)
(0 0 4.04161e-05)
(0 0 4.10089e-05)
(0 0 4.36464e-05)
(0 0 4.95944e-05)
(0 0 5.93014e-05)
(0 0 7.17244e-05)
(0 0 8.42583e-05)
(0 0 9.33809e-05)
(0 0 9.57384e-05)
(0 0 8.92002e-05)
(0 0 7.34767e-05)
(0 0 5.01309e-05)
(0 0 2.20725e-05)
(0 0 -7.21747e-06)
(0 0 -3.44568e-05)
(0 0 -5.71274e-05)
(0 0 -7.37501e-05)
(0 0 -8.38868e-05)
(0 0 -8.79514e-05)
(0 0 -8.69273e-05)
(0 0 -8.20771e-05)
(0 0 -7.47008e-05)
(0 0 -6.59676e-05)
(0 0 -5.68235e-05)
(0 0 -4.79602e-05)
(0 0 -3.98285e-05)
(0 0 -3.26759e-05)
(0 0 -2.65945e-05)
(0 0 -2.15678e-05)
(0 0 -1.75119e-05)
(0 0 -1.43073e-05)
(0 0 -1.18221e-05)
(0 0 -9.92715e-06)
(0 0 -8.50453e-06)
(0 0 -7.45218e-06)
(0 0 -6.68488e-06)
(0 0 -6.13351e-06)
(0 0 -5.74336e-06)
(0 0 -5.47192e-06)
(0 0 -5.28666e-06)
(0 0 -5.16297e-06)
(0 0 -5.08205e-06)
(0 0 -5.0283e-06)
(0 0 -4.9839e-06)
(0 0 -4.91317e-06)
(0 0 -4.71196e-06)
(0 0 -4.04357e-06)
(0 0 -1.8186e-06)
(0 0 5.4041e-06)
(0 -1.73356e-22 2.81445e-05)
(0 0 5.31603e-05)
(0 0 5.29517e-05)
(0 0 5.27689e-05)
(0 0 5.25387e-05)
(0 0 5.21792e-05)
(0 0 5.19173e-05)
(0 0 5.26655e-05)
(0 0 5.60159e-05)
(0 0 6.3594e-05)
(0 0 7.59964e-05)
(0 0 9.19263e-05)
(0 0 0.000108093)
(0 0 0.000120021)
(0 0 0.000123424)
(0 0 0.000115553)
(0 0 9.59875e-05)
(0 0 6.66627e-05)
(0 0 3.12388e-05)
(0 0 -5.8801e-06)
(0 0 -4.05236e-05)
(0 0 -6.94762e-05)
(0 0 -9.08323e-05)
(0 0 -0.000104005)
(0 0 -0.000109491)
(0 0 -0.000108514)
(0 0 -0.000102659)
(0 0 -9.35653e-05)
(0 0 -8.2712e-05)
(0 0 -7.12984e-05)
(0 0 -6.02046e-05)
(0 0 -5.00068e-05)
(0 0 -4.1024e-05)
(0 0 -3.33777e-05)
(0 0 -2.70516e-05)
(0 0 -2.19434e-05)
(0 0 -1.79049e-05)
(0 0 -1.47713e-05)
(0 0 -1.23808e-05)
(0 0 -1.05856e-05)
(0 0 -9.25743e-06)
(0 0 -8.28895e-06)
(0 0 -7.59317e-06)
(0 0 -7.10113e-06)
(0 0 -6.75921e-06)
(0 0 -6.52639e-06)
(0 0 -6.37162e-06)
(0 0 -6.27127e-06)
(0 0 -6.20598e-06)
(0 0 -6.15456e-06)
(0 0 -6.07692e-06)
(0 0 -5.85921e-06)
(0 0 -5.13548e-06)
(0 0 -2.71694e-06)
(0 0 5.19276e-06)
(0 8.55784e-23 3.03747e-05)
(0 0 6.49023e-05)
(0 0 6.46442e-05)
(0 0 6.44197e-05)
(0 0 6.41397e-05)
(0 0 6.37041e-05)
(0 0 6.33837e-05)
(0 0 6.42772e-05)
(0 0 6.83125e-05)
(0 0 7.74726e-05)
(0 0 9.25157e-05)
(0 0 0.000111922)
(0 0 0.000131755)
(0 0 0.000146622)
(0 0 0.000151326)
(0 0 0.000142489)
(0 0 0.000119527)
(0 0 8.4699e-05)
(0 0 4.2358e-05)
(0 0 -2.21756e-06)
(0 0 -4.40031e-05)
(0 0 -7.91014e-05)
(0 0 -0.000105178)
(0 0 -0.000121481)
(0 0 -0.000128564)
(0 0 -0.000127866)
(0 0 -0.000121267)
(0 0 -0.000110723)
(0 0 -9.80064e-05)
(0 0 -8.45582e-05)
(0 0 -7.14407e-05)
(0 0 -5.93529e-05)
(0 0 -4.86856e-05)
(0 0 -3.95923e-05)
(0 0 -3.20603e-05)
(0 0 -2.59723e-05)
(0 0 -2.1155e-05)
(0 0 -1.74145e-05)
(0 0 -1.45591e-05)
(0 0 -1.24135e-05)
(0 0 -1.08253e-05)
(0 0 -9.66669e-06)
(0 0 -8.83408e-06)
(0 0 -8.24516e-06)
(0 0 -7.83594e-06)
(0 0 -7.55744e-06)
(0 0 -7.37261e-06)
(0 0 -7.25329e-06)
(0 0 -7.17679e-06)
(0 0 -7.1196e-06)
(0 0 -7.04061e-06)
(0 0 -6.82859e-06)
(0 0 -6.13273e-06)
(0 0 -3.81652e-06)
(0 0 3.79664e-06)
(0 4.2226e-22 2.84866e-05)
(0 0 7.66013e-05)
(0 0 7.6291e-05)
(0 0 7.60247e-05)
(0 0 7.5696e-05)
(0 0 7.51865e-05)
(0 0 7.48074e-05)
(0 0 7.58352e-05)
(0 0 8.05231e-05)
(0 0 9.12096e-05)
(0 0 0.000108829)
(0 0 0.000131674)
(0 0 0.000155207)
(0 0 0.000173161)
(0 0 0.00017945)
(0 0 0.00017006)
(0 0 0.000144206)
(0 0 0.000104413)
(0 0 5.56657e-05)
(0 0 4.05881e-06)
(0 0 -4.45678e-05)
(0 0 -8.5653e-05)
(0 0 -0.000116431)
(0 0 -0.000135967)
(0 0 -0.000144846)
(0 0 -0.000144686)
(0 0 -0.000137637)
(0 0 -0.000125945)
(0 0 -0.000111655)
(0 0 -9.64388e-05)
(0 0 -8.15321e-05)
(0 0 -6.77541e-05)
(0 0 -5.55679e-05)
(0 0 -4.51616e-05)
(0 0 -3.65297e-05)
(0 0 -2.95442e-05)
(0 0 -2.4011e-05)
(0 0 -1.97105e-05)
(0 0 -1.64249e-05)
(0 0 -1.39541e-05)
(0 0 -1.21238e-05)
(0 0 -1.07876e-05)
(0 0 -9.82675e-06)
(0 0 -9.14663e-06)
(0 0 -8.67372e-06)
(0 0 -8.35172e-06)
(0 0 -8.13802e-06)
(0 0 -8.00032e-06)
(0 0 -7.91303e-06)
(0 0 -7.8512e-06)
(0 0 -7.77571e-06)
(0 0 -7.58917e-06)
(0 0 -6.9995e-06)
(0 0 -5.09308e-06)
(0 0 1.05682e-06)
(0 -8.26021e-23 2.156e-05)
(-1.74017e-23 7.93311e-21 3.05849e-06)
(-1.44972e-22 7.80017e-21 2.42426e-06)
(3.19927e-23 -1.93961e-22 1.5733e-06)
(3.84485e-23 -2.32847e-20 4.63142e-07)
(-9.067e-23 7.95351e-21 -9.4209e-07)
(3.55675e-22 7.8118e-21 -2.67125e-06)
(-7.80201e-22 2.27757e-20 -4.74806e-06)
(3.06457e-22 -2.31405e-20 -7.19356e-06)
(6.16705e-22 -7.44649e-21 -1.00283e-05)
(-8.803e-22 -3.66819e-24 -1.32742e-05)
(-8.79322e-22 -7.45958e-21 -1.69558e-05)
(7.70096e-22 7.08778e-21 -2.11013e-05)
(5.59286e-22 -5.83709e-20 -2.57438e-05)
(-1.03393e-21 1.25296e-19 -3.09213e-05)
(3.57376e-22 -6.73945e-20 -3.66762e-05)
(-1.20526e-21 -5.08107e-20 -4.3069e-05)
(2.32262e-21 -6.47032e-20 -5.01476e-05)
(-1.82091e-21 7.6209e-21 -5.80122e-05)
(-1.8461e-22 -7.11226e-21 -6.67071e-05)
(7.01941e-23 7.11604e-21 -7.63456e-05)
(-3.08543e-24 -1.26198e-22 -8.70131e-05)
(-6.51499e-23 -6.86311e-21 -9.88279e-05)
(-1.97352e-21 6.92131e-21 -0.000111921)
(4.12572e-21 1.26827e-23 -0.000126441)
(1.20262e-21 6.71823e-21 -0.000142554)
(-3.21456e-21 -5.21669e-24 -0.000160452)
(4.62421e-21 7.79522e-21 -0.000180355)
(-5.43643e-21 1.01184e-19 -0.000202528)
(6.86852e-22 -1.08649e-19 -0.0002273)
(-2.10483e-21 9.92056e-20 -0.000255096)
(2.05071e-21 -1.00327e-19 -0.000286498)
(4.75848e-23 1.31582e-21 -0.000322351)
(-6.1895e-23 -1.61433e-21 -0.000363957)
(2.74037e-21 -9.48505e-20 -0.000413408)
(-8.49847e-21 9.20435e-20 -0.000474191)
(-3.07649e-22 -1.51741e-21 -0.000552243)
(6.07825e-21 1.32937e-23 -0.000657733)
(6.60289e-21 1.44412e-23 -0.000808015)
(-6.58176e-21 -1.4395e-23 -0.00103228)
(-2.1805e-22 -4.76897e-25 -0.00137852)
(-2.27237e-22 -4.96989e-25 -0.00192336)
(-7.81447e-21 -1.7091e-23 -0.00278462)
(7.54307e-21 1.64975e-23 -0.00413569)
(-2.4886e-22 1.47979e-22 -0.00621868)
(-3.4006e-23 7.65546e-21 -0.00935086)
(-2.41183e-20 4.95138e-20 -0.0139163)
(2.32309e-20 -6.52532e-20 -0.0203302)
(-5.44672e-21 -9.24259e-21 -0.0289642)
(5.98644e-21 2.5316e-20 -0.0400248)
(-1.98861e-20 -5.5515e-21 -0.0533109)
(-2.55079e-22 7.94382e-21 9.02172e-06)
(-1.04733e-22 1.56265e-20 7.05777e-06)
(2.94902e-22 7.59957e-21 4.38862e-06)
(-8.53794e-22 -7.81308e-21 8.88332e-07)
(1.58624e-21 7.45344e-21 -3.54414e-06)
(-4.83063e-22 -5.33597e-20 -8.98869e-06)
(-2.27848e-22 8.47212e-20 -1.55117e-05)
(-5.4977e-23 -8.81206e-21 -2.31741e-05)
(2.14873e-21 -9.7553e-20 -3.20379e-05)
(-2.24077e-21 1.37712e-19 -4.2171e-05)
(-8.34392e-22 1.25839e-19 -5.36511e-05)
(6.17367e-22 -1.13192e-19 -6.65691e-05)
(-3.85145e-22 7.21863e-22 -8.10303e-05)
(2.74852e-21 -7.20915e-21 -9.71565e-05)
(-2.14487e-21 2.3951e-20 -0.000115094)
(-5.91081e-21 2.3803e-19 -0.000135008)
(1.64752e-21 -2.23809e-19 -0.000157138)
(-5.53665e-21 2.39836e-19 -0.000181645)
(-2.9621e-22 1.94233e-20 -0.000208821)
(-3.76441e-21 -7.2724e-21 -0.000238906)
(3.98049e-21 1.42403e-22 -0.000272243)
(-3.99456e-21 9.02032e-21 -0.000309209)
(9.37348e-22 2.08195e-19 -0.00035022)
(5.94351e-21 -4.40742e-19 -0.000395747)
(4.50634e-21 -2.10507e-19 -0.000446326)
(-7.0229e-21 4.26175e-19 -0.000502569)
(3.74394e-21 -4.24801e-19 -0.000565185)
(-2.10726e-21 4.35847e-19 -0.000635023)
(3.22253e-21 1.46305e-21 -0.000713127)
(-3.6515e-21 -9.56906e-23 -0.000800844)
(-1.22676e-21 -2.68304e-24 -0.000900007)
(0 0 -0.00101325)
(1.81252e-22 9.40506e-23 -0.00114459)
(1.08301e-20 1.21537e-20 -0.00130045)
(-1.57169e-20 3.5516e-19 -0.0014915)
(-1.54686e-20 -2.39565e-20 -0.00173582)
(1.85049e-20 -3.50171e-19 -0.00206435)
(2.63299e-20 -3.02346e-19 -0.00252984)
(-9.4917e-21 3.22958e-19 -0.00322093)
(-3.054e-20 2.14718e-21 -0.00428325)
(2.9779e-20 1.69932e-20 -0.00594901)
(-4.15286e-20 2.29867e-19 -0.00857497)
(2.25731e-20 -2.39094e-19 -0.0126856)
(-1.76181e-20 1.43618e-20 -0.0190125)
(1.95182e-20 7.54262e-21 -0.0285138)
(-5.86169e-20 1.10796e-19 -0.0423481)
(5.8538e-20 -1.08455e-19 -0.0617653)
(-8.97406e-20 8.08662e-20 -0.0878623)
(8.66006e-20 -9.03127e-20 -0.121191)
(-1.83687e-20 -6.18551e-22 -0.159799)
(-5.25197e-23 4.70695e-20 1.44742e-05)
(-8.75105e-23 1.48844e-20 1.09448e-05)
(3.83302e-22 -6.16586e-20 6.05156e-06)
(-8.18811e-22 1.22644e-19 -4.00673e-07)
(1.80204e-21 -2.62517e-19 -8.55359e-06)
(3.49829e-22 1.24812e-19 -1.85167e-05)
(-2.40707e-21 -8.54245e-22 -3.03865e-05)
(1.5411e-21 -1.69462e-20 -4.42599e-05)
(1.51704e-21 -2.56107e-19 -6.0244e-05)
(6.70929e-22 2.44012e-19 -7.84626e-05)
(-8.43195e-22 -1.59997e-21 -9.90612e-05)
(-4.14743e-21 -1.54519e-23 -0.000122211)
(6.57668e-21 -1.82195e-21 -0.000148111)
(-3.82261e-21 -2.49717e-19 -0.000176993)
(5.02429e-21 2.26898e-19 -0.000209127)
(-1.14114e-20 4.50856e-19 -0.000244851)
(-4.76062e-21 -1.19685e-20 -0.00028454)
(-4.82101e-21 4.63838e-19 -0.000328614)
(4.08186e-22 -1.40781e-20 -0.000377487)
(-1.24117e-20 4.50326e-19 -0.000431703)
(1.23389e-20 -4.67671e-19 -0.00049188)
(-9.27206e-21 4.46516e-19 -0.000558726)
(2.5794e-21 -4.64414e-19 -0.000633028)
(5.17105e-21 -9.283e-21 -0.000715676)
(-2.57249e-21 1.36067e-20 -0.000807684)
(5.48615e-21 -8.78449e-21 -0.000910211)
(-1.8932e-20 4.18323e-19 -0.00102461)
(1.70568e-20 -4.45808e-19 -0.00115247)
(1.85811e-20 -4.14139e-19 -0.00129577)
(-1.52978e-20 4.16006e-19 -0.00145699)
(-1.07059e-21 -5.11163e-21 -0.00163947)
(1.10769e-20 -1.19862e-22 -0.00184796)
(-1.26595e-20 -2.4505e-20 -0.00208953)
(5.34831e-20 -7.55281e-19 -0.00237539)
(1.64133e-20 5.59336e-20 -0.00272396)
(-7.02003e-20 7.11023e-19 -0.00316627)
(3.90389e-21 -1.21887e-20 -0.00375523)
(-1.13055e-20 -4.77491e-21 -0.00458086)
(1.09644e-19 -5.95999e-19 -0.00579421)
(-2.04015e-19 1.17025e-18 -0.00764318)
(2.08003e-19 -1.1622e-18 -0.0105225)
(7.01118e-20 8.41647e-20 -0.0150377)
(-1.55713e-19 5.08469e-19 -0.0220779)
(-1.63089e-19 3.50432e-19 -0.0328825)
(1.54176e-19 -4.15446e-19 -0.0490754)
(-2.18386e-20 1.91479e-20 -0.0726236)
(5.39495e-20 -1.70298e-20 -0.105647)
(1.61727e-19 -1.00385e-19 -0.149965)
(-1.75102e-19 1.56817e-19 -0.206302)
(-2.49806e-20 -4.02553e-20 -0.266941)
(4.09593e-22 -3.10441e-20 1.897e-05)
(-3.64707e-22 1.56946e-20 1.33271e-05)
(6.77615e-22 -1.68736e-22 5.35036e-06)
(-6.02322e-22 -1.5441e-20 -5.15597e-06)
(-9.47684e-22 -1.42533e-21 -1.83156e-05)
(3.38425e-21 -2.42339e-19 -3.42336e-05)
(-4.81957e-21 4.58847e-19 -5.30237e-05)
(2.36477e-21 -2.47024e-19 -7.48225e-05)
(-1.80909e-21 1.49041e-20 -9.97972e-05)
(4.90844e-21 -2.70477e-19 -0.000128151)
(-5.87765e-21 2.46751e-19 -0.000160125)
(-4.29316e-21 4.71148e-19 -0.000196008)
(1.11162e-20 -9.53086e-19 -0.000236134)
(-1.33027e-20 9.51955e-19 -0.000280889)
(1.75185e-20 -9.47434e-19 -0.000330719)
(-1.16877e-20 9.38816e-19 -0.00038617)
(-1.00691e-20 4.7761e-19 -0.000447881)
(-7.0248e-22 -3.73069e-21 -0.000516502)
(4.46566e-21 3.87721e-21 -0.000592772)
(-7.84289e-21 4.40402e-19 -0.000677573)
(-1.64037e-21 -4.62476e-19 -0.000771925)
(1.46615e-20 1.26348e-20 -0.000876999)
(-3.40104e-20 8.87709e-19 -0.000994101)
(2.59236e-20 -8.90587e-19 -0.00112472)
(2.26114e-21 -5.34966e-21 -0.00127055)
(-9.66592e-21 -9.02686e-23 -0.00143354)
(1.4713e-20 -1.34553e-20 -0.00161596)
(-4.77775e-21 1.22518e-22 -0.00182048)
(-5.24342e-21 -6.46988e-23 -0.00205034)
(4.99596e-21 1.9414e-22 -0.00230961)
(-3.71167e-21 1.45878e-21 -0.00260364)
(6.37743e-20 -7.8546e-19 -0.0029398)
(-5.79071e-20 8.07762e-19 -0.0033289)
(-1.59511e-20 2.2407e-22 -0.00378767)
(1.85945e-20 -1.02682e-20 -0.00434315)
(-9.9382e-20 7.20149e-19 -0.00504051)
(1.15714e-19 -7.23302e-19 -0.0059563)
(-2.24689e-20 2.17555e-21 -0.00722031)
(1.58828e-20 -9.25022e-23 -0.00905008)
(3.77581e-20 6.3332e-21 -0.0118023)
(-2.46385e-19 5.39089e-19 -0.0160446)
(3.65941e-19 -1.09248e-18 -0.0226471)
(-1.78644e-19 5.53403e-19 -0.032888)
(2.58459e-19 -4.22997e-19 -0.0485523)
(-2.50265e-19 4.98257e-19 -0.0719924)
(-5.81335e-19 5.13438e-19 -0.106088)
(1.09698e-18 -1.08784e-18 -0.153992)
(-5.36692e-19 5.49194e-19 -0.2184)
(1.85328e-20 -2.11208e-21 -0.300026)
(4.45877e-21 -3.45273e-20 -0.377926)
(-7.31486e-22 1.57749e-20 2.19482e-05)
(-3.10772e-22 6.04305e-20 1.30102e-05)
(2.06093e-21 -1.83453e-19 3.2483e-07)
(-1.45604e-21 2.46151e-19 -1.61092e-05)
(-1.90868e-22 -1.08985e-19 -3.63086e-05)
(1.19432e-22 -1.45755e-20 -6.03497e-05)
(-4.7544e-22 1.53554e-20 -8.83748e-05)
(2.99439e-21 -1.84507e-22 -0.000120589)
(-2.83747e-21 -1.50098e-20 -0.000157258)
(-5.20274e-21 3.36286e-20 -0.00019871)
(-7.2065e-21 4.79203e-19 -0.000245336)
(1.8536e-20 -4.98032e-19 -0.000297595)
(-2.28103e-20 4.64522e-19 -0.00035602)
(1.90695e-20 -4.83187e-19 -0.000421223)
(-2.97473e-21 3.3606e-21 -0.000493906)
(1.08773e-20 4.70881e-23 -0.000574911)
(4.1346e-21 3.67814e-21 -0.000665225)
(-5.57296e-21 4.51211e-19 -0.000765889)
(2.04067e-20 -4.88235e-19 -0.000878074)
(6.26763e-21 2.67423e-20 -0.00100317)
(-4.6141e-20 9.3002e-19 -0.00114277)
(2.96366e-20 -9.32588e-19 -0.00129874)
(1.00672e-20 2.24774e-20 -0.00147313)
(-1.78752e-20 -2.31035e-22 -0.00166832)
(1.16968e-20 9.54661e-21 -0.00188702)
(-3.95746e-20 8.93112e-19 -0.00213237)
(3.28201e-20 -8.84656e-19 -0.002408)
(2.81049e-21 9.53165e-21 -0.00271819)
(9.41226e-21 2.70924e-20 -0.00306809)
(-1.13984e-20 -5.44425e-22 -0.00346406)
(1.18798e-21 -1.29499e-20 -0.00391422)
(-3.69792e-20 1.31457e-20 -0.00442954)
(3.47426e-20 1.25193e-20 -0.00502552)
(-3.05688e-21 -2.50374e-20 -0.00572552)
(8.3521e-20 -7.34014e-19 -0.00656644)
(-7.47151e-20 7.56605e-19 -0.00760887)
(2.70829e-19 -1.45466e-18 -0.00895456)
(-2.48674e-19 1.46875e-18 -0.0107753)
(3.07197e-19 -1.37304e-18 -0.0133584)
(7.05686e-20 1.31267e-19 -0.0171754)
(-3.52615e-19 1.30748e-18 -0.0229773)
(-1.19302e-19 -2.19102e-20 -0.031918)
(1.62415e-20 3.83243e-22 -0.0456977)
(-1.80691e-20 5.55113e-22 -0.0667094)
(5.33916e-20 1.6405e-21 -0.0981565)
(2.56491e-20 1.33815e-20 -0.144087)
(-1.11437e-19 5.05255e-21 -0.209189)
(6.34893e-20 4.89527e-21 -0.297841)
(-1.62547e-22 -3.05174e-22 -0.411244)
(3.55223e-20 6.27111e-22 -0.502815)
(-7.50703e-22 7.60573e-20 2.25799e-05)
(1.65369e-21 -4.63701e-20 7.76417e-06)
(-1.63678e-21 -1.63381e-20 -1.25141e-05)
(4.77207e-21 -2.27178e-19 -3.77478e-05)
(-2.42168e-21 2.29034e-19 -6.78619e-05)
(2.18009e-21 -2.26596e-19 -0.000102969)
(-1.12215e-20 4.99654e-19 -0.000143312)
(1.19867e-20 -6.99628e-19 -0.000189238)
(-7.77223e-21 4.94654e-19 -0.000241185)
(-6.26621e-21 4.82191e-19 -0.000299675)
(-2.20058e-21 3.96094e-21 -0.000365325)
(2.49634e-20 -9.47066e-19 -0.000438849)
(-2.19749e-20 9.8541e-19 -0.000521069)
(5.46841e-21 -4.63521e-19 -0.000612926)
(1.24203e-20 -4.65739e-19 -0.000715489)
(2.26685e-20 -4.58169e-19 -0.000830013)
(-3.26048e-21 6.52435e-21 -0.000957975)
(3.89252e-20 -9.50053e-19 -0.00110102)
(3.04263e-20 -9.11958e-19 -0.00126093)
(6.56518e-21 2.1162e-20 -0.00143984)
(-2.75925e-20 9.47009e-19 -0.00164021)
(-1.99252e-20 -7.99783e-21 -0.00186486)
(1.21666e-20 8.85855e-21 -0.00211701)
(-5.17608e-20 9.16364e-19 -0.00240035)
(4.23081e-20 -9.30725e-19 -0.00271913)
(7.38073e-20 -8.93779e-19 -0.00307827)
(-7.50264e-20 9.23108e-19 -0.00348348)
(1.49203e-20 -1.98156e-20 -0.0039415)
(6.91454e-20 -8.9034e-19 -0.00446033)
(-9.66267e-20 9.12986e-19 -0.00504974)
(4.33042e-21 1.22162e-20 -0.00572194)
(-2.09789e-19 1.6707e-18 -0.00649286)
(1.902e-19 -1.7332e-18 -0.00738426)
(4.79444e-20 6.14242e-20 -0.00842767)
(-2.69709e-19 1.57964e-18 -0.00967125)
(2.47713e-19 -1.64695e-18 -0.0111922)
(-3.12055e-20 -3.23663e-21 -0.013118)
(4.71946e-19 -1.48315e-18 -0.0156622)
(-4.42053e-19 1.5316e-18 -0.0191818)
(-6.53461e-20 -7.15935e-20 -0.0242632)
(6.75077e-19 -1.2923e-18 -0.0318451)
(-1.18847e-18 2.66385e-18 -0.043378)
(-6.4158e-20 -1.5432e-19 -0.0610161)
(-8.59263e-20 -1.21204e-19 -0.0878292)
(7.63224e-19 -1.15747e-18 -0.128026)
(3.89575e-20 6.21202e-20 -0.187211)
(-8.56474e-19 7.64874e-19 -0.272674)
(8.39678e-19 -8.41348e-19 -0.393184)
(8.85804e-21 2.85814e-20 -0.555035)
(9.14128e-21 -2.67672e-21 -0.665961)
(6.08176e-22 -1.58325e-20 1.97794e-05)
(1.75611e-21 -1.35109e-19 -7.05484e-06)
(-1.86738e-21 1.21835e-19 -3.91623e-05)
(-1.2455e-21 -1.71306e-20 -7.66337e-05)
(5.44504e-21 -2.25749e-19 -0.000119688)
(-5.04016e-21 2.32137e-19 -0.00016868)
(-6.13257e-21 4.68915e-19 -0.000224059)
(-5.04328e-21 -1.94031e-20 -0.000286369)
(2.17352e-21 -4.57654e-21 -0.000356252)
(1.47131e-20 -4.99945e-19 -0.000434444)
(-1.2074e-20 4.67693e-19 -0.000521792)
(1.84391e-20 -9.89367e-19 -0.000619259)
(-4.47748e-21 4.94475e-19 -0.000727943)
(-3.59752e-21 -1.85791e-20 -0.000849089)
(-4.80651e-21 -2.22104e-20 -0.000984097)
(2.92965e-20 -9.70261e-19 -0.00113454)
(-1.624e-21 -2.01955e-20 -0.00130226)
(2.82667e-20 -9.88169e-19 -0.00148941)
(-5.33825e-21 -7.71649e-21 -0.00169833)
(-1.68975e-22 1.18187e-22 -0.00193162)
(1.13428e-20 8.36007e-21 -0.00219233)
(-5.4001e-20 9.50107e-19 -0.00248389)
(4.83207e-20 -9.70419e-19 -0.00281018)
(1.26627e-20 8.26552e-21 -0.00317557)
(-8.60704e-21 -1.48665e-20 -0.00358503)
(-6.11823e-21 9.81845e-21 -0.00404413)
(-7.56517e-20 9.16324e-19 -0.00455922)
(1.62425e-19 -1.869e-18 -0.00513747)
(-7.72043e-20 9.74359e-19 -0.00578711)
(-1.95326e-19 1.80524e-18 -0.00651769)
(-3.04016e-20 -4.56473e-20 -0.00734059)
(2.36402e-21 -2.68356e-20 -0.00826996)
(-6.56781e-20 -5.39349e-20 -0.00932452)
(2.62561e-19 -1.80238e-18 -0.010531)
(4.0132e-19 -1.66766e-18 -0.011931)
(-3.59018e-19 1.75004e-18 -0.0135929)
(-3.35923e-20 -5.43424e-20 -0.0156349)
(4.74434e-19 -1.59264e-18 -0.0182643)
(-4.19368e-19 1.68658e-18 -0.0218423)
(-6.66397e-19 1.49685e-18 -0.0269869)
(5.67567e-19 -1.58061e-18 -0.034724)
(7.73107e-20 -1.10462e-20 -0.0466934)
(8.61619e-19 -1.39386e-18 -0.0654074)
(1.17969e-19 1.2175e-19 -0.0945553)
(-9.93434e-19 1.3641e-18 -0.13936)
(-1.60096e-20 -3.90533e-20 -0.207069)
(3.31206e-20 5.20131e-22 -0.308276)
(-3.32931e-20 1.56177e-20 -0.461737)
(-5.03367e-19 5.26422e-19 -0.703748)
(4.94623e-19 -5.35697e-19 -0.965366)
(-1.07094e-20 -3.161e-21 0.00972342)
(-1.0685e-20 -3.68606e-22 0.00524577)
(1.0015e-20 9.93358e-21 0.00145835)
(-6.9142e-21 2.31467e-21 -0.00170665)
(7.43835e-21 -1.17946e-20 -0.00432416)
(6.33108e-23 3.53143e-21 -0.00647155)
(-1.73263e-22 -9.77972e-23 -0.00822186)
(-5.63814e-21 1.23312e-23 -0.00963595)
(5.48132e-21 -1.19882e-23 -0.0107624)
(-1.64596e-22 3.59988e-25 -0.0116452)
(-1.58885e-22 3.47498e-25 -0.0123199)
(4.74155e-21 -1.03703e-23 -0.0128141)
(-4.75679e-21 1.04036e-23 -0.0131509)
(-4.2938e-21 9.39097e-24 -0.0133504)
(2.92857e-22 -1.01495e-21 -0.0134299)
(6.25808e-21 5.23462e-21 -0.0134042)
(-2.21933e-21 -2.8968e-21 -0.0132867)
(-7.19554e-23 -9.55389e-22 -0.0130895)
(-2.68348e-23 7.4204e-22 -0.0128238)
(-2.29344e-21 -1.58989e-20 -0.0124995)
(2.33202e-21 1.50146e-20 -0.0121248)
(-1.62143e-21 -1.9452e-20 -0.0117075)
(1.62567e-21 9.04911e-22 -0.0112544)
(-2.16933e-21 1.22921e-23 -0.0107732)
(1.42745e-21 1.89604e-21 -0.0102717)
(-5.31598e-22 3.1096e-23 -0.00975678)
(-1.36544e-21 2.98635e-24 -0.00923294)
(6.36042e-22 -1.76393e-23 -0.0087049)
(1.9611e-22 2.76656e-21 -0.00817711)
(-2.7533e-23 2.74517e-23 -0.0076535)
(-2.00781e-22 -3.20942e-21 -0.00713755)
(1.84011e-22 3.41067e-21 -0.00663233)
(-2.91657e-23 -3.65562e-21 -0.00614051)
(7.43357e-22 3.51582e-20 -0.00566438)
(-9.3747e-22 -3.53542e-20 -0.00520585)
(-6.02872e-22 -3.0321e-20 -0.00476653)
(1.36543e-21 6.62178e-20 -0.00434766)
(-7.62385e-22 -3.6141e-20 -0.00395019)
(-1.52778e-22 -4.81004e-21 -0.00357481)
(1.49792e-22 4.99387e-21 -0.0032219)
(-4.43229e-23 1.36353e-24 -0.00289164)
(2.22805e-22 5.31333e-21 -0.00258397)
(-4.41832e-22 -2.77072e-20 -0.00229864)
(4.0902e-22 2.79451e-20 -0.0020352)
(-1.03266e-22 -5.80913e-21 -0.00179307)
(2.69356e-22 1.79454e-20 -0.0015715)
(3.5718e-23 -5.96648e-21 -0.00136959)
(-1.70485e-22 -1.24704e-20 -0.00118625)
(4.24083e-23 6.28335e-21 -0.00102015)
(-1.25945e-22 -6.46777e-21 -0.000869605)
(-1.54068e-20 2.53489e-20 0.0281734)
(3.09701e-20 -9.8518e-21 0.0148494)
(-2.50168e-20 -2.20202e-20 0.00348855)
(8.62948e-21 2.2791e-20 -0.00592792)
(-9.01331e-21 -2.23134e-20 -0.0136591)
(-1.27022e-20 6.15393e-21 -0.0199637)
(1.13108e-20 6.82431e-21 -0.0250765)
(1.1437e-20 1.65565e-20 -0.0291894)
(1.72479e-21 -2.82108e-20 -0.0324541)
(-2.26917e-20 6.71302e-21 -0.0350011)
(2.16513e-20 -5.06759e-21 -0.0369356)
(-1.53591e-21 -3.13251e-21 -0.0383408)
(-1.07387e-20 1.79596e-20 -0.0392851)
(-1.19626e-20 -1.08958e-20 -0.0398277)
(8.25176e-21 -1.72852e-20 -0.0400191)
(1.25275e-20 1.40607e-20 -0.0399032)
(-7.65998e-21 4.14557e-21 -0.0395192)
(-4.81921e-22 -1.41163e-21 -0.0389031)
(1.30893e-23 -1.16631e-22 -0.0380871)
(6.91813e-22 -1.51306e-24 -0.0371006)
(1.98625e-21 3.11239e-23 -0.0359688)
(-2.08031e-21 -3.39569e-21 -0.0347133)
(1.77416e-20 1.01791e-19 -0.0333542)
(-1.9907e-20 -1.07628e-19 -0.0319159)
(2.16891e-20 1.27879e-19 -0.0304171)
(-1.11892e-20 -5.57572e-20 -0.0288803)
(-2.17239e-20 -1.53508e-19 -0.0273194)
(9.9783e-21 7.80328e-20 -0.025748)
(8.53492e-22 -2.08297e-21 -0.0241788)
(-1.64922e-21 -6.17788e-21 -0.0226233)
(1.04917e-21 3.20583e-21 -0.0210915)
(-1.0671e-21 -1.05955e-20 -0.0195925)
(9.92927e-21 1.16816e-19 -0.0181341)
(-2.10678e-20 -2.5112e-19 -0.0167228)
(9.7018e-21 1.22556e-19 -0.0153644)
(-9.29991e-22 -1.27248e-20 -0.0140634)
(1.32688e-22 4.4359e-21 -0.0128234)
(1.01824e-24 -2.88723e-23 -0.0116473)
(-4.76661e-21 -8.35455e-20 -0.0105369)
(4.06266e-21 7.38861e-20 -0.00949338)
(3.14743e-21 7.36431e-20 -0.00851713)
(-4.6055e-21 -1.00423e-19 -0.00760795)
(1.22301e-22 5.57897e-21 -0.00676503)
(9.95734e-22 2.87698e-20 -0.00598705)
(-2.18549e-21 -5.17958e-20 -0.00527222)
(2.09272e-23 -5.93447e-21 -0.00461829)
(-1.42483e-21 -4.2846e-20 -0.00402256)
(-2.81683e-22 -6.66558e-21 -0.00348177)
(3.39208e-22 1.23642e-20 -0.00299183)
(4.14832e-22 1.92395e-20 -0.00254737)
(-1.39317e-20 -1.08545e-21 0.0436082)
(-1.4242e-20 -1.5611e-20 0.0216113)
(3.6373e-20 2.96721e-20 0.00269952)
(-4.38382e-20 -1.25527e-20 -0.0126929)
(1.80613e-20 1.21431e-20 -0.0251352)
(2.55468e-20 2.02371e-20 -0.0351571)
(-1.67567e-20 -5.93283e-20 -0.0432024)
(1.89489e-20 -1.72519e-20 -0.0496183)
(-3.09421e-20 4.0709e-20 -0.0546717)
(-1.25355e-20 1.82393e-20 -0.0585757)
(4.7034e-20 -3.71735e-20 -0.0615019)
(-3.45074e-20 3.04778e-20 -0.0635881)
(6.74732e-21 -1.12445e-20 -0.0649454)
(-3.36784e-21 -9.21571e-21 -0.0656665)
(5.68472e-20 5.10629e-20 -0.0658324)
(-3.93744e-21 3.45801e-20 -0.0655136)
(-5.0401e-20 -6.75106e-20 -0.0647732)
(1.08606e-20 -5.176e-21 -0.0636677)
(-7.40953e-21 2.76597e-22 -0.0622488)
(3.95128e-22 -2.81417e-21 -0.0605631)
(3.30142e-20 9.2108e-20 -0.058651)
(-3.30771e-20 -8.12397e-20 -0.0565477)
(-3.54486e-20 -1.16537e-19 -0.0542868)
(3.871e-20 1.16176e-19 -0.0519005)
(-6.86718e-22 6.82951e-21 -0.0494266)
(-3.46041e-22 -4.80031e-21 -0.0468932)
(-3.52226e-22 6.32775e-21 -0.0443275)
(-3.24142e-20 -1.7689e-19 -0.0417502)
(3.62689e-20 1.81232e-19 -0.039181)
(-3.41849e-20 -1.95212e-19 -0.036638)
(3.65498e-20 2.0768e-19 -0.0341371)
(8.48937e-22 7.45857e-21 -0.0316926)
(3.29943e-20 2.47997e-19 -0.0293167)
(-6.53685e-20 -4.99791e-19 -0.0270199)
(3.42588e-20 2.6796e-19 -0.024811)
(1.5895e-20 1.51334e-19 -0.0226972)
(-1.41906e-20 -1.33259e-19 -0.0206841)
(-6.19437e-23 -5.27553e-23 -0.0187761)
(-3.75931e-22 -1.52387e-22 -0.016976)
(-3.78901e-23 9.30752e-23 -0.0152854)
(1.26436e-20 1.69808e-19 -0.0137048)
(-1.22972e-20 -1.5959e-19 -0.0122338)
(1.0087e-21 1.12512e-20 -0.0108708)
(-5.11434e-22 -3.77162e-23 -0.00961365)
(5.14102e-21 9.41571e-20 -0.00845923)
(-9.59901e-21 -1.79015e-19 -0.00740383)
(4.76585e-21 9.66399e-20 -0.00644294)
(-2.48972e-21 -5.0332e-20 -0.0055711)
(1.86893e-21 3.74822e-20 -0.00478124)
(4.47585e-22 1.26271e-20 -0.00406348)
(1.96408e-21 2.66388e-20 0.0531777)
(8.60494e-21 -5.43446e-20 0.0228663)
(-7.36424e-20 1.54734e-20 -0.00336759)
(1.20218e-19 8.26227e-20 -0.0240944)
(-3.07172e-20 -1.11496e-19 -0.0404395)
(-1.41835e-20 2.41599e-20 -0.0533538)
(-1.00644e-21 1.80724e-20 -0.0635627)
(-8.08929e-21 4.53612e-21 -0.0715942)
(-2.58348e-20 6.77369e-21 -0.0778352)
(7.28274e-20 -2.4496e-20 -0.0825777)
(-2.65134e-20 1.28423e-20 -0.0860534)
(-1.34355e-20 6.42015e-22 -0.0884439)
(1.93099e-20 1.02136e-20 -0.0898949)
(-7.8706e-20 -7.5745e-20 -0.0905279)
(6.22364e-20 5.41108e-20 -0.0904484)
(-1.00748e-20 1.27485e-20 -0.0897485)
(9.11605e-21 -8.78029e-21 -0.0885097)
(7.9971e-20 1.50213e-19 -0.0868053)
(-8.41949e-20 -1.34686e-19 -0.0847023)
(5.11513e-22 -1.05735e-20 -0.0822609)
(-2.70096e-21 -9.45401e-23 -0.0795357)
(2.8446e-21 4.9244e-22 -0.0765706)
(2.1727e-21 -8.08761e-23 -0.0734118)
(-5.22825e-21 4.56363e-21 -0.0700994)
(4.85917e-21 4.44921e-22 -0.0666799)
(8.14513e-22 7.84251e-21 -0.0631932)
(-1.01513e-19 -3.71031e-19 -0.0596751)
(1.02766e-19 3.60466e-19 -0.0561512)
(-4.21009e-21 3.84184e-21 -0.052647)
(-4.55756e-20 -2.20707e-19 -0.0491858)
(5.02651e-20 2.26596e-19 -0.0457884)
(-8.15411e-22 9.32954e-22 -0.042473)
(-1.60012e-22 5.75445e-23 -0.0392555)
(-4.59541e-20 -2.78343e-19 -0.0361495)
(9.10492e-20 5.59926e-19 -0.0331661)
(-8.73301e-20 -5.73985e-19 -0.0303147)
(8.48366e-20 5.96892e-19 -0.0276023)
(-8.15637e-20 -6.18721e-19 -0.0250341)
(3.98097e-20 3.14739e-19 -0.0226136)
(1.85065e-20 1.67618e-19 -0.0203427)
(-1.61713e-20 -1.46519e-19 -0.0182217)
(-1.31383e-21 -1.10892e-20 -0.0162495)
(-1.5913e-20 -1.81251e-19 -0.014424)
(3.3572e-20 3.90675e-19 -0.0127417)
(-1.55878e-20 -1.86408e-19 -0.0111984)
(1.71213e-22 2.53098e-22 -0.00978883)
(6.68077e-22 1.2195e-20 -0.00850668)
(-1.49986e-22 -1.19957e-22 -0.00734429)
(-6.56523e-22 -1.26233e-20 -0.00629139)
(1.42846e-21 2.57924e-20 -0.00533244)
(2.71531e-20 9.60199e-23 0.0530317)
(3.35626e-22 4.00316e-22 0.0148069)
(-6.13266e-20 4.53193e-22 -0.0179842)
(9.07788e-20 -2.79287e-22 -0.0427265)
(-2.71617e-20 3.00727e-23 -0.0615465)
(-4.35376e-20 -8.33492e-22 -0.0760128)
(1.41519e-20 7.76263e-23 -0.0872094)
(-1.15806e-20 -1.41962e-22 -0.0958494)
(9.36129e-20 -2.56189e-20 -0.102417)
(3.0259e-20 9.70056e-20 -0.107273)
(-4.92697e-23 7.26807e-20 -0.110686)
(-5.95166e-20 -1.46698e-19 -0.112866)
(1.0843e-19 1.79795e-19 -0.113982)
(-1.27151e-19 -1.70823e-19 -0.114175)
(5.74181e-20 1.15393e-19 -0.113562)
(-6.89852e-20 -1.21447e-19 -0.11225)
(5.21715e-21 -6.92526e-21 -0.110332)
(-2.6659e-20 -2.03641e-21 -0.10789)
(2.34688e-20 -3.80691e-21 -0.105003)
(1.6084e-21 2.99779e-21 -0.101739)