/*--------------------------------*- C++ -*----------------------------------*\
| =========                 |                                                 |
| \\      /  F ield         | OpenFOAM: The Open Source CFD Toolbox           |
|  \\    /   O peration     | Version:  2412                                  |
|   \\  /    A nd           | Website:  www.openfoam.com                      |
|    \\/     M anipulation  |                                                 |
\*---------------------------------------------------------------------------*/
FoamFile
{
    version     2.0;
    format      ascii;
    arch        "LSB;label=32;scalar=64";
    class       volScalarField;
    location    "14";
    object      p;
}
// * * * * * * * * * * * * * * * * * * * * * * * * * * * * * * * * * * * * * //

dimensions      [0 2 -2 0 0 0 0];

internalField   nonuniform List<scalar> 
5285
(
-0.000287872
-0.000207104
-0.00013895
-8.22604e-05
-3.5841e-05
1.50416e-06
3.09372e-05
5.35587e-05
7.03897e-05
8.23613e-05
9.03079e-05
9.49668e-05
9.69799e-05
9.68992e-05
9.51934e-05
9.22557e-05
8.84118e-05
8.39284e-05
7.90213e-05
7.38624e-05
6.85872e-05
6.33006e-05
5.80821e-05
5.29909e-05
4.80697e-05
4.33479e-05
3.88444e-05
3.45706e-05
-0.000304457
-0.000222167
-0.000152581
-9.45572e-05
-4.69047e-05
-8.42707e-06
2.20402e-05
4.56012e-05
6.32821e-05
7.60197e-05
8.46547e-05
8.99304e-05
9.24951e-05
9.29068e-05
9.16399e-05
8.90928e-05
8.55961e-05
8.14211e-05
7.67876e-05
7.18715e-05
6.68116e-05
6.17157e-05
5.66664e-05
5.17253e-05
4.69372e-05
4.23338e-05
3.79353e-05
3.37561e-05
-0.000337053
-0.000251797
-0.000179416
-0.000118784
-6.87149e-05
-2.80145e-05
4.4851e-06
2.98945e-05
4.92492e-05
6.34966e-05
7.34891e-05
7.99822e-05
8.3636e-05
8.50203e-05
8.46202e-05
8.28447e-05
8.0034e-05
7.64684e-05
7.23756e-05
6.7939e-05
6.33041e-05
5.8585e-05
5.38695e-05
4.92243e-05
4.46987e-05
4.03283e-05
3.61368e-05
3.21438e-05
-0.000384113
-0.000294617
-0.000218229
-0.000153848
-0.000100304
-5.64016e-05
-2.09711e-05
7.10683e-06
2.88799e-05
4.53105e-05
5.72674e-05
6.5523e-05
7.07544e-05
7.35478e-05
7.44042e-05
7.37474e-05
7.19315e-05
6.92494e-05
6.59408e-05
6.21997e-05
5.81812e-05
5.40083e-05
4.97769e-05
4.55607e-05
4.14156e-05
3.73828e-05
3.34915e-05
2.97688e-05
-0.000349279
-0.000267952
-0.000198915
-0.000141022
-9.30898e-05
-5.39491e-05
-2.24753e-05
2.39022e-06
2.16248e-05
3.61146e-05
4.6651e-05
5.39303e-05
5.85579e-05
6.10538e-05
6.18592e-05
6.13453e-05
5.98207e-05
5.75399e-05
5.47104e-05
5.14998e-05
4.80425e-05
4.44446e-05
4.07894e-05
3.7141e-05
3.35482e-05
3.00477e-05
2.66759e-05
-0.000419221
-0.000332155
-0.000257576
-0.000194395
-0.000141467
-9.7648e-05
-6.18263e-05
-3.29468e-05
-1.0028e-05
7.82576e-06
2.14191e-05
3.14648e-05
3.85858e-05
4.33207e-05
4.61303e-05
4.74046e-05
4.74711e-05
4.66022e-05
4.50228e-05
4.2917e-05
4.04342e-05
3.76949e-05
3.47954e-05
3.18119e-05
2.88036e-05
2.58178e-05
2.28997e-05
-0.000500792
-0.000406827
-0.0003256
-0.000256093
-0.000197212
-0.000147838
-0.000106872
-7.32626e-05
-4.60209e-05
-2.4238e-05
-7.09117e-06
6.15358e-06
1.61428e-05
2.34397e-05
2.85297e-05
3.18274e-05
3.36843e-05
3.43955e-05
3.42075e-05
3.33247e-05
3.19153e-05
3.0117e-05
2.80418e-05
2.57798e-05
2.34029e-05
2.09694e-05
1.85284e-05
3.05228e-05
2.66436e-05
2.29266e-05
1.93863e-05
1.60261e-05
1.28472e-05
9.8504e-06
7.03467e-06
4.39774e-06
1.93631e-06
-3.53735e-07
-2.47714e-06
-4.43916e-06
-6.24538e-06
-7.90161e-06
-9.41376e-06
-1.07877e-05
-1.20292e-05
-1.31438e-05
-1.41368e-05
-1.50132e-05
-1.57779e-05
-1.64355e-05
-1.69908e-05
-1.74485e-05
-1.78136e-05
-1.80913e-05
-1.82867e-05
-1.84056e-05
-1.84532e-05
-1.84352e-05
-1.8357e-05
-1.82239e-05
-1.80408e-05
-1.78126e-05
-1.75437e-05
-1.72383e-05
-1.69004e-05
-1.65337e-05
-1.61417e-05
-1.57278e-05
-1.5295e-05
-1.48463e-05
-1.4384e-05
2.98059e-05
2.59897e-05
2.23284e-05
1.88426e-05
1.55328e-05
1.23998e-05
9.4448e-06
6.66719e-06
4.06497e-06
1.63512e-06
-6.26189e-07
-2.72344e-06
-4.66164e-06
-6.44616e-06
-8.08259e-06
-9.57667e-06
-1.09341e-05
-1.21605e-05
-1.32613e-05
-1.42418e-05
-1.51067e-05
-1.58609e-05
-1.65091e-05
-1.70558e-05
-1.75059e-05
-1.78641e-05
-1.81356e-05
-1.83257e-05
-1.84396e-05
-1.8483e-05
-1.84612e-05
-1.83796e-05
-1.82435e-05
-1.80577e-05
-1.78271e-05
-1.75561e-05
-1.72488e-05
-1.69092e-05
-1.6541e-05
-1.61477e-05
-1.57326e-05
-1.52987e-05
-1.48491e-05
-1.4386e-05
2.83806e-05
2.46898e-05
2.11401e-05
1.77625e-05
1.45527e-05
1.15107e-05
8.6386e-06
5.93661e-06
3.40326e-06
1.03609e-06
-1.16816e-06
-3.21347e-06
-5.10435e-06
-6.84573e-06
-8.44282e-06
-9.90098e-06
-1.12256e-05
-1.2422e-05
-1.34955e-05
-1.44508e-05
-1.5293e-05
-1.60265e-05
-1.66558e-05
-1.71855e-05
-1.76203e-05
-1.79648e-05
-1.82241e-05
-1.84033e-05
-1.85076e-05
-1.85424e-05
-1.8513e-05
-1.84247e-05
-1.82825e-05
-1.80914e-05
-1.78561e-05
-1.75808e-05
-1.72697e-05
-1.69267e-05
-1.65555e-05
-1.61596e-05
-1.57421e-05
-1.53062e-05
-1.48548e-05
-1.43901e-05
2.62651e-05
2.27599e-05
1.93777e-05
1.61604e-05
1.30984e-05
1.0191e-05
7.44157e-06
4.85148e-06
2.42009e-06
1.45773e-07
-1.97392e-06
-3.94221e-06
-5.76289e-06
-7.44026e-06
-8.97893e-06
-1.03837e-05
-1.16596e-05
-1.28115e-05
-1.38441e-05
-1.47623e-05
-1.55705e-05
-1.62732e-05
-1.68746e-05
-1.7379e-05
-1.7791e-05
-1.81152e-05
-1.83563e-05
-1.85192e-05
-1.86091e-05
-1.86311e-05
-1.85904e-05
-1.8492e-05
-1.83409e-05
-1.81418e-05
-1.78993e-05
-1.76176e-05
-1.73009e-05
-1.69529e-05
-1.65772e-05
-1.61773e-05
-1.57564e-05
-1.53173e-05
-1.48632e-05
-1.43962e-05
2.34865e-05
2.0224e-05
1.70644e-05
1.40575e-05
1.11885e-05
8.45687e-06
5.86795e-06
3.42427e-06
1.12636e-06
-1.02631e-06
-3.03513e-06
-4.90234e-06
-6.63084e-06
-8.22408e-06
-9.68592e-06
-1.10205e-05
-1.22322e-05
-1.33254e-05
-1.43045e-05
-1.51737e-05
-1.59373e-05
-1.65993e-05
-1.71638e-05
-1.7635e-05
-1.8017e-05
-1.83143e-05
-1.85313e-05
-1.86729e-05
-1.87437e-05
-1.87488e-05
-1.8693e-05
-1.85813e-05
-1.84182e-05
-1.82086e-05
-1.79566e-05
-1.76665e-05
-1.73423e-05
-1.69876e-05
-1.6606e-05
-1.62008e-05
-1.57752e-05
-1.5332e-05
-1.48743e-05
-1.44042e-05
2.0078e-05
1.71155e-05
1.42315e-05
1.14811e-05
8.84686e-06
6.32947e-06
3.93615e-06
1.67107e-06
-4.63866e-07
-2.46784e-06
-4.34099e-06
-6.08439e-06
-7.69986e-06
-9.18986e-06
-1.05574e-05
-1.18057e-05
-1.29386e-05
-1.39596e-05
-1.48728e-05
-1.56817e-05
-1.63904e-05
-1.70024e-05
-1.75216e-05
-1.79517e-05
-1.82968e-05
-1.8561e-05
-1.87483e-05
-1.88634e-05
-1.89107e-05
-1.88948e-05
-1.88204e-05
-1.8692e-05
-1.85142e-05
-1.82914e-05
-1.80277e-05
-1.77271e-05
-1.73936e-05
-1.70306e-05
-1.66416e-05
-1.62298e-05
-1.57984e-05
-1.53502e-05
-1.4888e-05
-1.4414e-05
1.6088e-05
1.34761e-05
1.09184e-05
8.46446e-06
6.10178e-06
3.83318e-06
1.66744e-06
-3.89623e-07
-2.33446e-06
-4.16474e-06
-5.87919e-06
-7.47756e-06
-8.96048e-06
-1.03293e-05
-1.1586e-05
-1.2733e-05
-1.37731e-05
-1.47093e-05
-1.55448e-05
-1.62828e-05
-1.69267e-05
-1.74799e-05
-1.79456e-05
-1.83274e-05
-1.8629e-05
-1.88539e-05
-1.90062e-05
-1.909e-05
-1.91093e-05
-1.90685e-05
-1.8972e-05
-1.88238e-05
-1.86284e-05
-1.83899e-05
-1.81122e-05
-1.77992e-05
-1.74545e-05
-1.70816e-05
-1.66838e-05
-1.62643e-05
-1.5826e-05
-1.53717e-05
-1.49042e-05
-1.44256e-05
1.14346e-05
9.24126e-06
7.07344e-06
4.96049e-06
2.90863e-06
9.25961e-07
-9.77644e-07
-2.79466e-06
-4.5197e-06
-6.14876e-06
-7.67903e-06
-9.10885e-06
-1.04375e-05
-1.16652e-05
-1.27926e-05
-1.38213e-05
-1.4753e-05
-1.559e-05
-1.63348e-05
-1.69899e-05
-1.75581e-05
-1.80424e-05
-1.84455e-05
-1.87707e-05
-1.90211e-05
-1.92001e-05
-1.93111e-05
-1.9358e-05
-1.93443e-05
-1.92742e-05
-1.91514e-05
-1.89799e-05
-1.87636e-05
-1.85065e-05
-1.82122e-05
-1.78844e-05
-1.75265e-05
-1.71419e-05
-1.67337e-05
-1.63049e-05
-1.58585e-05
-1.5397e-05
-1.49233e-05
-1.44391e-05
6.19162e-06
4.45664e-06
2.70979e-06
9.77367e-07
-7.25686e-07
-2.38714e-06
-3.99561e-06
-5.54175e-06
-7.01823e-06
-8.41929e-06
-9.74052e-06
-1.09787e-05
-1.21317e-05
-1.31984e-05
-1.41784e-05
-1.50719e-05
-1.58797e-05
-1.66033e-05
-1.72442e-05
-1.78044e-05
-1.8286e-05
-1.86913e-05
-1.90227e-05
-1.92829e-05
-1.94746e-05
-1.96007e-05
-1.96642e-05
-1.96685e-05
-1.96168e-05
-1.95126e-05
-1.93594e-05
-1.91608e-05
-1.89204e-05
-1.86417e-05
-1.83281e-05
-1.79831e-05
-1.76099e-05
-1.72116e-05
-1.67913e-05
-1.63518e-05
-1.58959e-05
-1.54261e-05
-1.4945e-05
-1.44545e-05
5.42167e-07
-7.208e-07
-2.02878e-06
-3.35681e-06
-4.68663e-06
-6.00357e-06
-7.29454e-06
-8.54839e-06
-9.75597e-06
-1.09098e-05
-1.20039e-05
-1.30335e-05
-1.3995e-05
-1.4886e-05
-1.57047e-05
-1.64502e-05
-1.71225e-05
-1.77217e-05
-1.82487e-05
-1.87048e-05
-1.90912e-05
-1.94098e-05
-1.96623e-05
-1.9851e-05
-1.99779e-05
-2.00457e-05
-2.00568e-05
-2.00139e-05
-1.992e-05
-1.97781e-05
-1.95911e-05
-1.93623e-05
-1.90949e-05
-1.87921e-05
-1.8457e-05
-1.80928e-05
-1.77025e-05
-1.7289e-05
-1.68552e-05
-1.64037e-05
-1.59372e-05
-1.54581e-05
-1.49688e-05
-1.44712e-05
-5.45914e-06
-6.23611e-06
-7.08921e-06
-7.99436e-06
-8.93216e-06
-9.8861e-06
-1.08415e-05
-1.17854e-05
-1.27071e-05
-1.35975e-05
-1.44491e-05
-1.52554e-05
-1.60117e-05
-1.67139e-05
-1.73592e-05
-1.79456e-05
-1.84717e-05
-1.89369e-05
-1.93411e-05
-1.96846e-05
-1.99682e-05
-2.0193e-05
-2.03603e-05
-2.04714e-05
-2.05282e-05
-2.05326e-05
-2.04865e-05
-2.03923e-05
-2.02523e-05
-2.00691e-05
-1.98451e-05
-1.95832e-05
-1.92862e-05
-1.89569e-05
-1.85982e-05
-1.82129e-05
-1.78037e-05
-1.73735e-05
-1.69248e-05
-1.64602e-05
-1.59821e-05
-1.54927e-05
-1.49945e-05
-1.44891e-05
-1.17578e-05
-1.20349e-05
-1.24198e-05
-1.28884e-05
-1.34202e-05
-1.3997e-05
-1.46026e-05
-1.52227e-05
-1.58449e-05
-1.64587e-05
-1.70548e-05
-1.76257e-05
-1.81651e-05
-1.86676e-05
-1.91292e-05
-1.95465e-05
-1.99174e-05
-2.024e-05
-2.05134e-05
-2.07372e-05
-2.09112e-05
-2.1036e-05
-2.1112e-05
-2.11403e-05
-2.1122e-05
-2.10584e-05
-2.0951e-05
-2.08016e-05
-2.06119e-05
-2.0384e-05
-2.012e-05
-1.98223e-05
-1.94932e-05
-1.91352e-05
-1.87508e-05
-1.83426e-05
-1.7913e-05
-1.74646e-05
-1.69998e-05
-1.65209e-05
-1.60302e-05
-1.55297e-05
-1.50218e-05
-1.45079e-05
-1.82909e-05
-1.80603e-05
-1.7969e-05
-1.79924e-05
-1.81088e-05
-1.82986e-05
-1.85443e-05
-1.88301e-05
-1.91424e-05
-1.94692e-05
-1.97998e-05
-2.01255e-05
-2.04384e-05
-2.0732e-05
-2.10011e-05
-2.12413e-05
-2.14491e-05
-2.16219e-05
-2.17578e-05
-2.18555e-05
-2.1914e-05
-2.19332e-05
-2.1913e-05
-2.18537e-05
-2.17558e-05
-2.16201e-05
-2.14475e-05
-2.12392e-05
-2.09966e-05
-2.0721e-05
-2.04143e-05
-2.00782e-05
-1.97147e-05
-1.93259e-05
-1.89139e-05
-1.84811e-05
-1.80296e-05
-1.75617e-05
-1.70796e-05
-1.65854e-05
-1.60811e-05
-1.55687e-05
-1.50503e-05
-1.45274e-05
-2.49959e-05
-2.42563e-05
-2.36862e-05
-2.32605e-05
-2.29565e-05
-2.27535e-05
-2.26328e-05
-2.25775e-05
-2.25726e-05
-2.26049e-05
-2.26625e-05
-2.27354e-05
-2.28144e-05
-2.2892e-05
-2.29617e-05
-2.3018e-05
-2.30565e-05
-2.30734e-05
-2.3066e-05
-2.30322e-05
-2.29702e-05
-2.28792e-05
-2.27582e-05
-2.26071e-05
-2.24257e-05
-2.22143e-05
-2.19731e-05
-2.17028e-05
-2.14042e-05
-2.10783e-05
-2.07262e-05
-2.03494e-05
-1.99493e-05
-1.95278e-05
-1.90866e-05
-1.86276e-05
-1.81528e-05
-1.76641e-05
-1.71636e-05
-1.6653e-05
-1.61343e-05
-1.56093e-05
-1.50798e-05
-1.45472e-05
-3.18135e-05
-3.05688e-05
-2.9522e-05
-2.86479e-05
-2.79227e-05
-2.7325e-05
-2.6835e-05
-2.64349e-05
-2.61086e-05
-2.58417e-05
-2.56214e-05
-2.54361e-05
-2.5276e-05
-2.51323e-05
-2.49973e-05
-2.48645e-05
-2.47286e-05
-2.45848e-05
-2.44296e-05
-2.42599e-05
-2.40733e-05
-2.3868e-05
-2.36426e-05
-2.33962e-05
-2.3128e-05
-2.28376e-05
-2.25248e-05
-2.21897e-05
-2.18325e-05
-2.14536e-05
-2.10539e-05
-2.06343e-05
-2.01958e-05
-1.97397e-05
-1.92677e-05
-1.87811e-05
-1.82817e-05
-1.77711e-05
-1.72511e-05
-1.67233e-05
-1.61894e-05
-1.5651e-05
-1.51099e-05
-1.4567e-05
-3.86865e-05
-3.69453e-05
-3.54287e-05
-3.41108e-05
-3.29676e-05
-3.19769e-05
-3.11183e-05
-3.03729e-05
-2.97238e-05
-2.91557e-05
-2.86548e-05
-2.82085e-05
-2.7806e-05
-2.74373e-05
-2.7094e-05
-2.67685e-05
-2.64546e-05
-2.61465e-05
-2.58399e-05
-2.55309e-05
-2.52163e-05
-2.48937e-05
-2.45608e-05
-2.42161e-05
-2.38583e-05
-2.34863e-05
-2.30993e-05
-2.26969e-05
-2.22788e-05
-2.1845e-05
-2.13956e-05
-2.09312e-05
-2.04526e-05
-1.99605e-05
-1.94561e-05
-1.89406e-05
-1.84155e-05
-1.7882e-05
-1.73416e-05
-1.67958e-05
-1.62459e-05
-1.56936e-05
-1.51401e-05
-1.45866e-05
-4.55602e-05
-4.33358e-05
-4.136e-05
-3.96071e-05
-3.80528e-05
-3.66744e-05
-3.54507e-05
-3.43625e-05
-3.33921e-05
-3.25234e-05
-3.17416e-05
-3.10335e-05
-3.03871e-05
-2.97919e-05
-2.92382e-05
-2.87179e-05
-2.82235e-05
-2.77488e-05
-2.72883e-05
-2.68376e-05
-2.63926e-05
-2.59501e-05
-2.55074e-05
-2.50622e-05
-2.46124e-05
-2.41566e-05
-2.36933e-05
-2.32216e-05
-2.27406e-05
-2.22499e-05
-2.17492e-05
-2.12385e-05
-2.07181e-05
-2.01886e-05
-1.96506e-05
-1.91052e-05
-1.85532e-05
-1.79959e-05
-1.74343e-05
-1.68697e-05
-1.63033e-05
-1.57364e-05
-1.51702e-05
-1.46056e-05
-5.23831e-05
-4.96927e-05
-4.72723e-05
-4.50967e-05
-4.31414e-05
-4.13835e-05
-3.98015e-05
-3.83758e-05
-3.70881e-05
-3.59216e-05
-3.48609e-05
-3.38921e-05
-3.30025e-05
-3.21807e-05
-3.14163e-05
-3.07002e-05
-3.00244e-05
-2.93817e-05
-2.87661e-05
-2.8172e-05
-2.7595e-05
-2.70311e-05
-2.64768e-05
-2.59293e-05
-2.5386e-05
-2.48446e-05
-2.43034e-05
-2.37607e-05
-2.32153e-05
-2.26661e-05
-2.21126e-05
-2.15542e-05
-2.09909e-05
-2.04227e-05
-1.98501e-05
-1.92737e-05
-1.8694e-05
-1.8112e-05
-1.75285e-05
-1.69445e-05
-1.6361e-05
-1.5779e-05
-1.51997e-05
-1.46236e-05
-5.91073e-05
-5.59713e-05
-5.31242e-05
-5.05413e-05
-4.81983e-05
-4.60721e-05
-4.41413e-05
-4.23858e-05
-4.07871e-05
-3.9328e-05
-3.79925e-05
-3.67662e-05
-3.56356e-05
-3.45888e-05
-3.36147e-05
-3.27035e-05
-3.18464e-05
-3.10357e-05
-3.02643e-05
-2.95264e-05
-2.88166e-05
-2.81303e-05
-2.74635e-05
-2.68126e-05
-2.61744e-05
-2.55463e-05
-2.49259e-05
-2.4311e-05
-2.36999e-05
-2.30912e-05
-2.24836e-05
-2.18764e-05
-2.12691e-05
-2.06614e-05
-2.00533e-05
-1.9445e-05
-1.88369e-05
-1.82296e-05
-1.76236e-05
-1.70196e-05
-1.64185e-05
-1.58211e-05
-1.52281e-05
-1.46402e-05
-6.56884e-05
-6.21303e-05
-5.88772e-05
-5.59053e-05
-5.31903e-05
-5.07096e-05
-4.84418e-05
-4.63667e-05
-4.44656e-05
-4.2721e-05
-4.11167e-05
-3.96377e-05
-3.82702e-05
-3.70015e-05
-3.58202e-05
-3.47157e-05
-3.36788e-05
-3.27009e-05
-3.17745e-05
-3.08929e-05
-3.00504e-05
-2.92415e-05
-2.84617e-05
-2.77069e-05
-2.69733e-05
-2.62577e-05
-2.55573e-05
-2.48694e-05
-2.41917e-05
-2.35225e-05
-2.28601e-05
-2.22033e-05
-2.15512e-05
-2.09031e-05
-2.02588e-05
-1.9618e-05
-1.89809e-05
-1.83476e-05
-1.77186e-05
-1.70943e-05
-1.64752e-05
-1.58619e-05
-1.52552e-05
-1.46552e-05
-7.2086e-05
-6.81317e-05
-6.44959e-05
-6.11554e-05
-5.80867e-05
-5.52675e-05
-5.26766e-05
-5.02941e-05
-4.81011e-05
-4.60801e-05
-4.42147e-05
-4.24896e-05
-4.08906e-05
-3.94047e-05
-3.80199e-05
-3.67253e-05
-3.55109e-05
-3.43678e-05
-3.32878e-05
-3.22638e-05
-3.12892e-05
-3.03583e-05
-2.94658e-05
-2.86071e-05
-2.7778e-05
-2.69748e-05
-2.6194e-05
-2.54326e-05
-2.46879e-05
-2.39577e-05
-2.32399e-05
-2.25329e-05
-2.18354e-05
-2.11464e-05
-2.04653e-05
-1.97915e-05
-1.91249e-05
-1.84653e-05
-1.78129e-05
-1.71679e-05
-1.65305e-05
-1.59012e-05
-1.52803e-05
-1.46681e-05
-7.82639e-05
-7.39414e-05
-6.99479e-05
-6.62614e-05
-6.28591e-05
-5.97193e-05
-5.68212e-05
-5.41451e-05
-5.16725e-05
-4.93858e-05
-4.72686e-05
-4.53054e-05
-4.34819e-05
-4.17846e-05
-4.02013e-05
-3.87208e-05
-3.73325e-05
-3.6027e-05
-3.47959e-05
-3.36313e-05
-3.25263e-05
-3.14744e-05
-3.04702e-05
-2.95083e-05
-2.85841e-05
-2.76934e-05
-2.68323e-05
-2.59974e-05
-2.51856e-05
-2.43941e-05
-2.36206e-05
-2.28631e-05
-2.21199e-05
-2.13897e-05
-2.06714e-05
-1.99644e-05
-1.92679e-05
-1.85818e-05
-1.79057e-05
-1.72397e-05
-1.65838e-05
-1.59382e-05
-1.53031e-05
-1.46786e-05
-8.41901e-05
-7.95285e-05
-7.52041e-05
-7.11956e-05
-6.74815e-05
-6.40405e-05
-6.08526e-05
-5.78986e-05
-5.51602e-05
-5.262e-05
-5.02616e-05
-4.80697e-05
-4.60297e-05
-4.41282e-05
-4.23526e-05
-4.06913e-05
-3.91336e-05
-3.76697e-05
-3.62906e-05
-3.49881e-05
-3.37548e-05
-3.25839e-05
-3.14693e-05
-3.04054e-05
-2.9387e-05
-2.84095e-05
-2.74687e-05
-2.65606e-05
-2.56818e-05
-2.48292e-05
-2.40001e-05
-2.3192e-05
-2.2403e-05
-2.16314e-05
-2.08759e-05
-2.01354e-05
-1.94089e-05
-1.8696e-05
-1.79962e-05
-1.73091e-05
-1.66345e-05
-1.59725e-05
-1.53231e-05
-1.46861e-05
-8.98365e-05
-8.48663e-05
-8.02386e-05
-7.59336e-05
-7.19305e-05
-6.82092e-05
-6.47503e-05
-6.15351e-05
-5.85458e-05
-5.57655e-05
-5.3178e-05
-5.07679e-05
-4.85208e-05
-4.64231e-05
-4.44623e-05
-4.26265e-05
-4.09047e-05
-3.9287e-05
-3.77639e-05
-3.63269e-05
-3.49682e-05
-3.36807e-05
-3.24579e-05
-3.12936e-05
-3.01825e-05
-2.91193e-05
-2.80996e-05
-2.71191e-05
-2.61739e-05
-2.52606e-05
-2.4376e-05
-2.35176e-05
-2.26829e-05
-2.18701e-05
-2.10773e-05
-2.03033e-05
-1.95469e-05
-1.88072e-05
-1.80835e-05
-1.73752e-05
-1.6682e-05
-1.60036e-05
-1.53399e-05
-1.46904e-05
-9.51795e-05
-8.99317e-05
-8.50292e-05
-8.04537e-05
-7.61856e-05
-7.22057e-05
-6.84954e-05
-6.50369e-05
-6.1813e-05
-5.8807e-05
-5.60031e-05
-5.33864e-05
-5.09424e-05
-4.86577e-05
-4.65197e-05
-4.45164e-05
-4.26368e-05
-4.08706e-05
-3.92082e-05
-3.76408e-05
-3.61603e-05
-3.47592e-05
-3.34306e-05
-3.21682e-05
-3.09661e-05
-2.98189e-05
-2.87216e-05
-2.76697e-05
-2.66589e-05
-2.56856e-05
-2.47463e-05
-2.38379e-05
-2.2958e-05
-2.21041e-05
-2.12743e-05
-2.0467e-05
-1.96807e-05
-1.89143e-05
-1.81668e-05
-1.74375e-05
-1.67257e-05
-1.60309e-05
-1.53529e-05
-1.4691e-05
-0.000100199
-9.47051e-05
-8.95567e-05
-8.47374e-05
-8.02287e-05
-7.60126e-05
-7.20715e-05
-6.83883e-05
-6.49465e-05
-6.17302e-05
-5.87238e-05
-5.59128e-05
-5.3283e-05
-5.08212e-05
-4.85148e-05
-4.63519e-05
-4.43213e-05
-4.24127e-05
-4.06163e-05
-3.89232e-05
-3.73249e-05
-3.58137e-05
-3.43825e-05
-3.30246e-05
-3.17338e-05
-3.05045e-05
-2.93313e-05
-2.82094e-05
-2.71343e-05
-2.61019e-05
-2.51086e-05
-2.41511e-05
-2.32264e-05
-2.23319e-05
-2.14655e-05
-2.06252e-05
-1.98093e-05
-1.90164e-05
-1.82454e-05
-1.74952e-05
-1.67649e-05
-1.60539e-05
-1.53617e-05
-1.46876e-05
-0.00010488
-9.91704e-05
-9.38051e-05
-8.87687e-05
-8.40443e-05
-7.96148e-05
-7.54639e-05
-7.15753e-05
-6.79333e-05
-6.45224e-05
-6.1328e-05
-5.83358e-05
-5.5532e-05
-5.29037e-05
-5.04383e-05
-4.81242e-05
-4.59502e-05
-4.39059e-05
-4.19814e-05
-4.01678e-05
-3.84563e-05
-3.68391e-05
-3.53088e-05
-3.38584e-05
-3.24816e-05
-3.11725e-05
-2.99254e-05
-2.87352e-05
-2.75972e-05
-2.65071e-05
-2.54609e-05
-2.44551e-05
-2.34865e-05
-2.25522e-05
-2.16497e-05
-2.07768e-05
-1.99317e-05
-1.91127e-05
-1.83184e-05
-1.75475e-05
-1.67991e-05
-1.60721e-05
-1.53659e-05
-1.46796e-05
-0.00010921
-0.000103315
-9.77615e-05
-9.25349e-05
-8.76195e-05
-8.29998e-05
-7.86602e-05
-7.45857e-05
-7.07614e-05
-6.71725e-05
-6.3805e-05
-6.06452e-05
-5.76797e-05
-5.4896e-05
-5.22817e-05
-4.98254e-05
-4.7516e-05
-4.53432e-05
-4.32972e-05
-4.13687e-05
-3.95491e-05
-3.78303e-05
-3.62048e-05
-3.46655e-05
-3.32058e-05
-3.18194e-05
-3.05008e-05
-2.92444e-05
-2.80453e-05
-2.68989e-05
-2.58012e-05
-2.47482e-05
-2.37366e-05
-2.27632e-05
-2.18254e-05
-2.09207e-05
-2.00469e-05
-1.92023e-05
-1.83851e-05
-1.75939e-05
-1.68276e-05
-1.60848e-05
-1.53649e-05
-1.46668e-05
-0.000113179
-0.00010713
-0.000101416
-9.60254e-05
-9.09439e-05
-8.61568e-05
-8.165e-05
-7.74093e-05
-7.34208e-05
-6.96706e-05
-6.61453e-05
-6.28319e-05
-5.97175e-05
-5.67899e-05
-5.40372e-05
-5.14482e-05
-4.9012e-05
-4.67184e-05
-4.45576e-05
-4.25204e-05
-4.05981e-05
-3.87826e-05
-3.70663e-05
-3.54418e-05
-3.39025e-05
-3.24421e-05
-3.10544e-05
-2.97341e-05
-2.84759e-05
-2.72751e-05
-2.61274e-05
-2.50286e-05
-2.39751e-05
-2.29638e-05
-2.19915e-05
-2.10556e-05
-2.01539e-05
-1.92842e-05
-1.84446e-05
-1.76337e-05
-1.68498e-05
-1.60917e-05
-1.53584e-05
-1.46487e-05
-0.000116783
-0.000110607
-0.000104761
-9.92326e-05
-9.40091e-05
-8.90774e-05
-8.44246e-05
-8.00374e-05
-7.5903e-05
-7.20083e-05
-6.83408e-05
-6.4888e-05
-6.16378e-05
-5.85782e-05
-5.5698e-05
-5.29861e-05
-5.04319e-05
-4.80255e-05
-4.57572e-05
-4.36178e-05
-4.15987e-05
-3.96917e-05
-3.78892e-05
-3.61837e-05
-3.45686e-05
-3.30372e-05
-3.15835e-05
-3.02018e-05
-2.88868e-05
-2.76336e-05
-2.64375e-05
-2.52945e-05
-2.42006e-05
-2.31523e-05
-2.21466e-05
-2.11806e-05
-2.02516e-05
-1.93576e-05
-1.84963e-05
-1.7666e-05
-1.68651e-05
-1.60921e-05
-1.53458e-05
-1.46248e-05
-0.000120018
-0.000113745
-0.000107792
-0.000102151
-9.68093e-05
-9.17553e-05
-8.69772e-05
-8.24631e-05
-7.82009e-05
-7.41787e-05
-7.03846e-05
-6.68068e-05
-6.34339e-05
-6.02545e-05
-5.72578e-05
-5.44331e-05
-5.17702e-05
-4.92594e-05
-4.6891e-05
-4.46563e-05
-4.25465e-05
-4.05535e-05
-3.86697e-05
-3.68877e-05
-3.52006e-05
-3.36019e-05
-3.20853e-05
-3.0645e-05
-2.92757e-05
-2.79722e-05
-2.67298e-05
-2.55442e-05
-2.44114e-05
-2.33276e-05
-2.22897e-05
-2.12945e-05
-2.03393e-05
-1.94216e-05
-1.85393e-05
-1.76904e-05
-1.68731e-05
-1.60856e-05
-1.53268e-05
-1.4595e-05
-0.000122884
-0.00011654
-0.000110507
-0.000104777
-9.93403e-05
-9.41858e-05
-8.9303e-05
-8.46811e-05
-8.03091e-05
-7.61761e-05
-7.22708e-05
-6.85825e-05
-6.51001e-05
-6.18132e-05
-5.87112e-05
-5.57841e-05
-5.30219e-05
-5.04151e-05
-4.79546e-05
-4.56315e-05
-4.34374e-05
-4.13643e-05
-3.94045e-05
-3.75506e-05
-3.57958e-05
-3.41334e-05
-3.25573e-05
-3.10615e-05
-2.96405e-05
-2.82891e-05
-2.70025e-05
-2.57763e-05
-2.46061e-05
-2.34884e-05
-2.24195e-05
-2.13962e-05
-2.04158e-05
-1.94755e-05
-1.8573e-05
-1.77062e-05
-1.6873e-05
-1.60717e-05
-1.53008e-05
-1.45587e-05
-0.000125384
-0.000118994
-0.000112905
-0.00010711
-0.0001016
-9.6366e-05
-9.13984e-05
-8.66875e-05
-8.22234e-05
-7.79959e-05
-7.3995e-05
-7.02103e-05
-6.66318e-05
-6.32496e-05
-6.00537e-05
-5.70345e-05
-5.41826e-05
-5.14887e-05
-4.89439e-05
-4.65398e-05
-4.4268e-05
-4.21206e-05
-4.00902e-05
-3.81693e-05
-3.63512e-05
-3.46292e-05
-3.29971e-05
-3.14489e-05
-2.99792e-05
-2.85825e-05
-2.7254e-05
-2.59891e-05
-2.47835e-05
-2.36333e-05
-2.25349e-05
-2.14849e-05
-2.04803e-05
-1.95184e-05
-1.85966e-05
-1.77126e-05
-1.68644e-05
-1.60499e-05
-1.52675e-05
-1.45155e-05
-0.000127523
-0.000121111
-0.000114989
-0.00010915
-0.000103588
-9.82949e-05
-9.32616e-05
-8.84799e-05
-8.39408e-05
-7.96351e-05
-7.55534e-05
-7.16866e-05
-6.80252e-05
-6.45599e-05
-6.12815e-05
-5.81807e-05
-5.52485e-05
-5.24763e-05
-4.98555e-05
-4.73777e-05
-4.50349e-05
-4.28195e-05
-4.0724e-05
-3.87412e-05
-3.68644e-05
-3.50869e-05
-3.34026e-05
-3.18055e-05
-3.02899e-05
-2.88506e-05
-2.74826e-05
-2.61813e-05
-2.49422e-05
-2.37613e-05
-2.26349e-05
-2.15596e-05
-2.05322e-05
-1.95497e-05
-1.86096e-05
-1.77093e-05
-1.68467e-05
-1.60197e-05
-1.52265e-05
-1.44653e-05
-0.00012931
-0.000122899
-0.000116764
-0.000110904
-0.00010531
-9.99749e-05
-9.48935e-05
-9.00583e-05
-8.54607e-05
-8.10923e-05
-7.69448e-05
-7.30097e-05
-6.92783e-05
-6.5742e-05
-6.23921e-05
-5.92201e-05
-5.62174e-05
-5.33757e-05
-5.06869e-05
-4.81429e-05
-4.57361e-05
-4.34588e-05
-4.1304e-05
-3.92645e-05
-3.73336e-05
-3.55049e-05
-3.37722e-05
-3.21296e-05
-3.05714e-05
-2.90923e-05
-2.76874e-05
-2.63519e-05
-2.50813e-05
-2.38716e-05
-2.27189e-05
-2.16196e-05
-2.05706e-05
-1.95688e-05
-1.86113e-05
-1.76957e-05
-1.68197e-05
-1.59809e-05
-1.51776e-05
-1.44077e-05
-0.00013075
-0.000124359
-0.000118234
-0.000112371
-0.000106764
-0.00010141
-9.62968e-05
-9.14241e-05
-8.67837e-05
-8.23677e-05
-7.81684e-05
-7.41783e-05
-7.03895e-05
-6.67939e-05
-6.33836e-05
-6.01506e-05
-5.70868e-05
-5.41845e-05
-5.14358e-05
-4.88331e-05
-4.63689e-05
-4.40362e-05
-4.18277e-05
-3.97367e-05
-3.77566e-05
-3.58811e-05
-3.41039e-05
-3.24194e-05
-3.08218e-05
-2.9306e-05
-2.78668e-05
-2.64994e-05
-2.51995e-05
-2.39629e-05
-2.27856e-05
-2.1664e-05
-2.05947e-05
-1.95748e-05
-1.86012e-05
-1.76713e-05
-1.67826e-05
-1.59329e-05
-1.51201e-05
-1.43422e-05
-0.000131841
-0.000125492
-0.000119395
-0.000113549
-0.000107949
-0.000102591
-9.74682e-05
-9.25748e-05
-8.79072e-05
-8.34582e-05
-7.92212e-05
-7.51893e-05
-7.13554e-05
-6.77122e-05
-6.42523e-05
-6.09684e-05
-5.78531e-05
-5.48989e-05
-5.20984e-05
-4.94446e-05
-4.69302e-05
-4.45483e-05
-4.22921e-05
-4.01551e-05
-3.81307e-05
-3.62128e-05
-3.43954e-05
-3.26727e-05
-3.10392e-05
-2.94896e-05
-2.80189e-05
-2.66223e-05
-2.52954e-05
-2.40338e-05
-2.28338e-05
-2.16915e-05
-2.06036e-05
-1.95669e-05
-1.85783e-05
-1.76351e-05
-1.67348e-05
-1.58751e-05
-1.50536e-05
-1.42685e-05
-0.000108868
-0.000103522
-9.8404e-05
-9.35073e-05
-8.88279e-05
-8.43606e-05
-8.00996e-05
-7.60389e-05
-7.21722e-05
-6.8493e-05
-6.49945e-05
-6.167e-05
-5.85126e-05
-5.55155e-05
-5.26717e-05
-4.99744e-05
-4.74168e-05
-4.49924e-05
-4.26946e-05
-4.05171e-05
-3.84536e-05
-3.6498e-05
-3.46446e-05
-3.28877e-05
-3.12218e-05
-2.96417e-05
-2.81424e-05
-2.67192e-05
-2.53676e-05
-2.40834e-05
-2.28625e-05
-2.17013e-05
-2.05963e-05
-1.95442e-05
-1.8542e-05
-1.75867e-05
-1.66759e-05
-1.5807e-05
-1.49778e-05
-1.41861e-05
-0.000437341
-0.000350117
-0.000275652
-0.000212739
-0.000160153
-0.000116684
-8.11734e-05
-5.2534e-05
-2.97654e-05
-1.19624e-05
1.68188e-06
1.18771e-05
1.92401e-05
2.43006e-05
2.75096e-05
2.92466e-05
2.98285e-05
2.95173e-05
2.85281e-05
2.70358e-05
2.51814e-05
2.30777e-05
2.08142e-05
1.84606e-05
1.60687e-05
1.36815e-05
-0.000590234
-0.000487001
-0.000397431
-0.000320453
-0.000254917
-0.000199645
-0.000153477
-0.000115296
-8.40491e-05
-5.87646e-05
-3.85592e-05
-2.26421e-05
-1.03141e-05
-9.64283e-07
5.93553e-06
1.08376e-05
1.41255e-05
1.61223e-05
1.70973e-05
1.72739e-05
1.68357e-05
1.59327e-05
1.46865e-05
1.31953e-05
1.15373e-05
9.77417e-06
7.9567e-06
-0.000635094
-0.000531095
-0.000440392
-0.000361965
-0.000294724
-0.000237551
-0.000189341
-0.000149028
-0.000115606
-8.81439e-05
-6.5792e-05
-4.77872e-05
-3.3452e-05
-2.21915e-05
-1.34888e-05
-6.89851e-06
-2.03999e-06
1.40939e-06
3.72132e-06
5.12307e-06
5.80366e-06
5.91935e-06
5.59856e-06
4.94636e-06
4.04827e-06
2.97326e-06
1.77704e-06
-0.000675968
-0.000571418
-0.00047982
-0.000400206
-0.000331537
-0.000272749
-0.000222787
-0.000180629
-0.000145313
-0.000115942
-9.16976e-05
-7.18422e-05
-5.57179e-05
-4.27449e-05
-3.24168e-05
-2.42952e-05
-1.80031e-05
-1.32191e-05
-9.67042e-06
-7.1272e-06
-5.39663e-06
-4.31783e-06
-3.7572e-06
-3.60424e-06
-3.76795e-06
-4.17384e-06
-4.76102e-06
-0.000713087
-0.000608577
-0.000516609
-0.000436269
-0.000366578
-0.000306528
-0.000255118
-0.000211379
-0.000174393
-0.000143305
-0.000117331
-9.57614e-05
-7.79611e-05
-6.33684e-05
-5.14899e-05
-4.18966e-05
-3.42173e-05
-2.81335e-05
-2.33731e-05
-1.97054e-05
-1.69349e-05
-1.48974e-05
-1.34552e-05
-1.24932e-05
-1.19159e-05
-1.16437e-05
-1.16109e-05
-0.000745628
-0.000641854
-0.000550133
-0.000469609
-0.00039937
-0.00033847
-0.00028597
-0.000240957
-0.000202566
-0.000169986
-0.000142471
-0.000119346
-0.000100002
-8.38985e-05
-7.05585e-05
-5.95648e-05
-5.05546e-05
-4.32147e-05
-3.72756e-05
-3.25071e-05
-2.8713e-05
-2.57269e-05
-2.34083e-05
-2.16384e-05
-2.03176e-05
-1.93625e-05
-1.87032e-05
-0.000773155
-0.000670792
-0.000579919
-0.00049975
-0.000429439
-0.000368111
-0.000314892
-0.000268931
-0.000229418
-0.000195592
-0.000166752
-0.000142255
-0.000121525
-0.000104045
-8.93564e-05
-7.70571e-05
-6.67949e-05
-5.82636e-05
-5.11983e-05
-4.53713e-05
-4.05869e-05
-3.66779e-05
-3.35019e-05
-3.09378e-05
-2.8883e-05
-2.72507e-05
-2.59673e-05
-0.000795503
-0.00069519
-0.000605743
-0.000526447
-0.000456529
-0.000395187
-0.000341618
-0.000295037
-0.000254693
-0.000219877
-0.000189934
-0.000164262
-0.000142316
-0.000123606
-0.000107695
-9.41985e-05
-8.27758e-05
-7.31302e-05
-6.50034e-05
-5.81714e-05
-5.24405e-05
-4.76443e-05
-4.36396e-05
-4.03039e-05
-3.75324e-05
-3.52358e-05
-3.3338e-05
-0.00081269
-0.000715007
-0.000627516
-0.000549574
-0.000480486
-0.000419527
-0.000365966
-0.000319086
-0.000278198
-0.000242649
-0.000211832
-0.000185185
-0.0001622
-0.000142415
-0.000125417
-0.00011084
-9.83576e-05
-8.76843e-05
-7.85695e-05
-7.07948e-05
-6.41699e-05
-5.85301e-05
-5.37329e-05
-4.96552e-05
-4.61912e-05
-4.32497e-05
-4.07525e-05
-0.000824889
-0.000730335
-0.000645263
-0.000569105
-0.000501245
-0.000441034
-0.000387816
-0.000340943
-0.000299788
-0.000263757
-0.00023229
-0.000204872
-0.000181027
-0.000160327
-0.000142383
-0.000126849
-0.000113415
-0.000101807
-9.17855e-05
-8.31377e-05
-7.56784e-05
-6.92458e-05
-6.36989e-05
-5.89153e-05
-5.47888e-05
-5.12275e-05
-4.81515e-05
-0.000832395
-0.000741377
-0.000659111
-0.000585105
-0.000518819
-0.000459682
-0.00040711
-0.000360526
-0.000319366
-0.000283092
-0.000251195
-0.000223203
-0.000198678
-0.000177223
-0.000158476
-0.000142112
-0.000127838
-0.000115395
-0.000104553
-9.51075e-05
-8.6879e-05
-7.97099e-05
-7.34618e-05
-6.80137e-05
-6.32601e-05
-5.91087e-05
-5.54792e-05
-0.000835588
-0.000748417
-0.000669263
-0.000597708
-0.000533287
-0.000475504
-0.000423848
-0.000377808
-0.000336883
-0.000300589
-0.000268468
-0.000240092
-0.000215061
-0.000193009
-0.000173602
-0.000156535
-0.000141536
-0.00012836
-0.000116787
-0.000106623
-9.76946e-05
-8.98497e-05
-8.29532e-05
-7.68864e-05
-7.15452e-05
-6.68378e-05
-6.26839e-05
-0.000834894
-0.000751786
-0.000675969
-0.000607098
-0.000544778
-0.000488584
-0.000438074
-0.000392801
-0.000352324
-0.000316215
-0.000284064
-0.000255483
-0.000230112
-0.000207616
-0.000187687
-0.000170045
-0.000154435
-0.000140627
-0.000128415
-0.000117614
-0.000108058
-9.96011e-05
-9.21122e-05
-8.54759e-05
-7.95899e-05
-7.43639e-05
-6.97182e-05
-0.000830758
-0.00075184
-0.000679512
-0.000613493
-0.000553454
-0.000499037
-0.000449865
-0.000405552
-0.000365713
-0.000329972
-0.000297965
-0.000269346
-0.000243791
-0.000220995
-0.000200679
-0.000182584
-0.000166475
-0.000152138
-0.000139379
-0.000128022
-0.000117913
-0.000108909
-0.000100886
-9.37316e-05
-8.73463e-05
-8.16417e-05
-7.65392e-05
-0.000823614
-0.000748941
-0.000680185
-0.000617128
-0.0005595
-0.000507006
-0.000459327
-0.000416135
-0.000377097
-0.000341885
-0.000310179
-0.000281674
-0.000256078
-0.00023312
-0.000212544
-0.000194114
-0.000177614
-0.000162847
-0.00014963
-0.000137801
-0.000127211
-0.000117727
-0.000109229
-0.00010161
-9.47724e-05
-8.86309e-05
-8.31086e-05
-0.000813879
-0.000743438
-0.000678282
-0.000618245
-0.000563115
-0.000512649
-0.000466585
-0.000424644
-0.000386544
-0.000352