/*--------------------------------*- C++ -*----------------------------------*\
| =========                 |                                                 |
| \\      /  F ield         | OpenFOAM: The Open Source CFD Toolbox           |
|  \\    /   O peration     | Version:  2412                                  |
|   \\  /    A nd           | Website:  www.openfoam.com                      |
|    \\/     M anipulation  |                                                 |
\*---------------------------------------------------------------------------*/
FoamFile
{
    version     2.0;
    format      ascii;
    arch        "LSB;label=32;scalar=64";
    class       volScalarField;
    location    "12";
    object      p;
}
// * * * * * * * * * * * * * * * * * * * * * * * * * * * * * * * * * * * * * //

dimensions      [0 2 -2 0 0 0 0];

internalField   nonuniform List<scalar> 
5285
(
-0.000129623
-0.000124031
-0.00011864
-0.000113448
-0.000129527
-0.000124002
-0.000118668
-0.000113522
-0.000108564
-0.000103791
-9.92001e-05
-9.47879e-05
-9.05509e-05
-8.64852e-05
-8.25865e-05
-7.88506e-05
-7.52726e-05
-7.18479e-05
-6.85715e-05
-6.54383e-05
-6.24432e-05
-5.95812e-05
-5.6847e-05
-5.42356e-05
-5.17418e-05
-4.93607e-05
-4.70872e-05
-4.49164e-05
-4.28436e-05
-4.0864e-05
-3.89733e-05
-3.71668e-05
-3.54406e-05
-3.37904e-05
-3.22125e-05
-3.07032e-05
-2.9259e-05
-2.78767e-05
-2.6553e-05
-2.52852e-05
-2.40704e-05
-2.29062e-05
-2.179e-05
-2.07196e-05
-1.9693e-05
-1.87081e-05
-1.77632e-05
-1.68564e-05
-0.000129163
-0.000123719
-0.000118454
-0.000113368
-0.000108461
-0.000103729
-9.9172e-05
-9.47864e-05
-9.05695e-05
-8.65181e-05
-8.26285e-05
-7.88971e-05
-7.53196e-05
-7.1892e-05
-6.86097e-05
-6.54681e-05
-6.24627e-05
-5.95887e-05
-5.68413e-05
-5.42157e-05
-5.17072e-05
-4.9311e-05
-4.70223e-05
-4.48366e-05
-4.27491e-05
-4.07554e-05
-3.8851e-05
-3.70318e-05
-3.52937e-05
-3.36325e-05
-3.20446e-05
-3.05263e-05
-2.90742e-05
-2.7685e-05
-2.63556e-05
-2.5083e-05
-2.38645e-05
-2.26975e-05
-2.15795e-05
-2.05083e-05
-1.94816e-05
-1.84976e-05
-1.75542e-05
-1.66497e-05
-0.000128543
-0.000123191
-0.000118008
-0.000112994
-0.000108148
-0.00010347
-9.8958e-05
-9.461e-05
-9.04239e-05
-8.63971e-05
-8.25266e-05
-7.88092e-05
-7.52414e-05
-7.18195e-05
-6.85395e-05
-6.53975e-05
-6.2389e-05
-5.951e-05
-5.67559e-05
-5.41223e-05
-5.16048e-05
-4.91989e-05
-4.69e-05
-4.47039e-05
-4.2606e-05
-4.06021e-05
-3.86879e-05
-3.68593e-05
-3.51123e-05
-3.3443e-05
-3.18477e-05
-3.03228e-05
-2.8865e-05
-2.74709e-05
-2.61376e-05
-2.48619e-05
-2.36412e-05
-2.24729e-05
-2.13544e-05
-2.02835e-05
-1.92578e-05
-1.82755e-05
-1.73345e-05
-1.64331e-05
-0.000127676
-0.000122428
-0.000117338
-0.000112406
-0.000107634
-0.00010302
-9.85633e-05
-9.42633e-05
-9.0118e-05
-8.61255e-05
-8.22834e-05
-7.85891e-05
-7.50397e-05
-7.16318e-05
-6.83621e-05
-6.5227e-05
-6.22228e-05
-5.93454e-05
-5.6591e-05
-5.39554e-05
-5.14345e-05
-4.90241e-05
-4.672e-05
-4.4518e-05
-4.2414e-05
-4.04038e-05
-3.84834e-05
-3.66487e-05
-3.4896e-05
-3.32214e-05
-3.16214e-05
-3.00924e-05
-2.86311e-05
-2.72342e-05
-2.58987e-05
-2.46217e-05
-2.34003e-05
-2.22321e-05
-2.11144e-05
-2.00449e-05
-1.90214e-05
-1.80418e-05
-1.71042e-05
-1.62065e-05
-0.000126575
-0.000121441
-0.000116454
-0.000111615
-0.000106925
-0.000102385
-9.79936e-05
-9.3751e-05
-8.9656e-05
-8.57069e-05
-8.19021e-05
-7.82395e-05
-7.47165e-05
-7.13306e-05
-6.80788e-05
-6.4958e-05
-6.19647e-05
-5.90956e-05
-5.6347e-05
-5.37151e-05
-5.11963e-05
-4.87866e-05
-4.6482e-05
-4.42787e-05
-4.21728e-05
-4.01602e-05
-3.82372e-05
-3.63998e-05
-3.46445e-05
-3.29675e-05
-3.13654e-05
-2.98346e-05
-2.8372e-05
-2.69744e-05
-2.56387e-05
-2.4362e-05
-2.31416e-05
-2.19748e-05
-2.08592e-05
-1.97924e-05
-1.87722e-05
-1.77963e-05
-1.68629e-05
-1.597e-05
-0.000125252
-0.00012024
-0.000115364
-0.000110627
-0.000106029
-0.000101572
-9.72549e-05
-9.30786e-05
-8.90424e-05
-8.51453e-05
-8.13861e-05
-7.77631e-05
-7.42745e-05
-7.09181e-05
-6.76913e-05
-6.45916e-05
-6.16159e-05
-5.87613e-05
-5.60244e-05
-5.3402e-05
-5.08906e-05
-4.84865e-05
-4.61862e-05
-4.3986e-05
-4.18822e-05
-3.98711e-05
-3.79491e-05
-3.61124e-05
-3.43575e-05
-3.2681e-05
-3.10794e-05
-2.95493e-05
-2.80877e-05
-2.66913e-05
-2.53573e-05
-2.40827e-05
-2.28648e-05
-2.1701e-05
-2.05889e-05
-1.95259e-05
-1.851e-05
-1.75389e-05
-1.66107e-05
-1.57233e-05
-0.000123719
-0.000118836
-0.00011408
-0.000109452
-0.000104954
-0.000100588
-9.63536e-05
-9.22517e-05
-8.82823e-05
-8.4445e-05
-8.0739e-05
-7.71633e-05
-7.37163e-05
-7.03964e-05
-6.72015e-05
-6.41295e-05
-6.11777e-05
-5.83436e-05
-5.56243e-05
-5.30167e-05
-5.05178e-05
-4.81243e-05
-4.58328e-05
-4.364e-05
-4.15424e-05
-3.95366e-05
-3.7619e-05
-3.57863e-05
-3.40349e-05
-3.23617e-05
-3.07632e-05
-2.92363e-05
-2.77778e-05
-2.63848e-05
-2.50543e-05
-2.37836e-05
-2.25698e-05
-2.14105e-05
-2.03031e-05
-1.92453e-05
-1.82348e-05
-1.72695e-05
-1.63474e-05
-1.54664e-05
-0.000121987
-0.000117241
-0.000112611
-0.0001081
-0.000103709
-9.94408e-05
-9.52962e-05
-9.12761e-05
-8.73809e-05
-8.36107e-05
-7.99651e-05
-7.64436e-05
-7.30451e-05
-6.97683e-05
-6.66118e-05
-6.35736e-05
-6.06518e-05
-5.78439e-05
-5.51475e-05
-5.256e-05
-5.00786e-05
-4.77003e-05
-4.54222e-05
-4.3241e-05
-4.11535e-05
-3.91566e-05
-3.7247e-05
-3.54214e-05
-3.36767e-05
-3.20095e-05
-3.04168e-05
-2.88954e-05
-2.74424e-05
-2.60548e-05
-2.47298e-05
-2.34646e-05
-2.22565e-05
-2.11031e-05
-2.00019e-05
-1.89504e-05
-1.79465e-05
-1.69881e-05
-1.6073e-05
-1.51993e-05
-0.000120068
-0.000115465
-0.000110967
-0.000106578
-0.000102301
-9.8138e-05
-9.40898e-05
-9.01581e-05
-8.63437e-05
-8.26472e-05
-7.90686e-05
-7.56077e-05
-7.22641e-05
-6.90368e-05
-6.59246e-05
-6.29262e-05
-6.00399e-05
-5.72637e-05
-5.45956e-05
-5.20332e-05
-4.9574e-05
-4.72155e-05
-4.49549e-05
-4.27894e-05
-4.07159e-05
-3.87316e-05
-3.68333e-05
-3.50181e-05
-3.32828e-05
-3.16245e-05
-3.00401e-05
-2.85266e-05
-2.70812e-05
-2.57011e-05
-2.43834e-05
-2.31255e-05
-2.19248e-05
-2.07788e-05
-1.96851e-05
-1.86412e-05
-1.76451e-05
-1.66945e-05
-1.57875e-05
-1.4922e-05
-0.000117975
-0.000113519
-0.000109158
-0.000104898
-0.00010074
-9.66871e-05
-9.27412e-05
-8.89039e-05
-8.51764e-05
-8.15596e-05
-7.8054e-05
-7.46599e-05
-7.13769e-05
-6.82048e-05
-6.51427e-05
-6.21896e-05
-5.93441e-05
-5.66048e-05
-5.39699e-05
-5.14373e-05
-4.9005e-05
-4.66707e-05
-4.44318e-05
-4.22858e-05
-4.02301e-05
-3.82618e-05
-3.63782e-05
-3.45764e-05
-3.28535e-05
-3.12067e-05
-2.96332e-05
-2.813e-05
-2.66944e-05
-2.53238e-05
-2.40153e-05
-2.27665e-05
-2.15748e-05
-2.04376e-05
-1.93527e-05
-1.83177e-05
-1.73305e-05
-1.63889e-05
-1.54908e-05
-1.46344e-05
-0.00011572
-0.000111414
-0.000107195
-0.000103067
-9.90333e-05
-9.50961e-05
-9.12577e-05
-8.75201e-05
-8.38849e-05
-8.03533e-05
-7.69262e-05
-7.36041e-05
-7.03874e-05
-6.72758e-05
-6.4269e-05
-6.13663e-05
-5.85668e-05
-5.58692e-05
-5.32721e-05
-5.0774e-05
-4.83729e-05
-4.60668e-05
-4.38536e-05
-4.1731e-05
-3.96966e-05
-3.77478e-05
-3.5882e-05
-3.40967e-05
-3.23891e-05
-3.07565e-05
-2.91962e-05
-2.77056e-05
-2.62821e-05
-2.49229e-05
-2.36256e-05
-2.23875e-05
-2.12063e-05
-2.00795e-05
-1.90048e-05
-1.79799e-05
-1.70027e-05
-1.60711e-05
-1.5183e-05
-1.43365e-05
-0.000113313
-0.000109161
-0.000105087
-0.000101096
-9.71899e-05
-9.33726e-05
-8.96463e-05
-8.60131e-05
-8.2475e-05
-7.90335e-05
-7.56899e-05
-7.2445e-05
-6.92993e-05
-6.62532e-05
-6.33066e-05
-6.04591e-05
-5.77102e-05
-5.50589e-05
-5.25042e-05
-5.00447e-05
-4.76789e-05
-4.54051e-05
-4.32215e-05
-4.11259e-05
-3.91162e-05
-3.71901e-05
-3.53453e-05
-3.35794e-05
-3.18897e-05
-3.0274e-05
-2.87295e-05
-2.72538e-05
-2.58443e-05
-2.44986e-05
-2.32141e-05
-2.19886e-05
-2.08194e-05
-1.97044e-05
-1.86413e-05
-1.76278e-05
-1.66618e-05
-1.57412e-05
-1.48641e-05
-1.40284e-05
-0.000110765
-0.00010677
-0.000102844
-9.89925e-05
-9.52183e-05
-9.15246e-05
-8.79142e-05
-8.43895e-05
-8.09528e-05
-7.76058e-05
-7.43501e-05
-7.11868e-05
-6.81169e-05
-6.51408e-05
-6.22588e-05
-5.9471e-05
-5.6777e-05
-5.41762e-05
-5.1668e-05
-4.92513e-05
-4.69247e-05
-4.4687e-05
-4.25365e-05
-4.04713e-05
-3.84897e-05
-3.65895e-05
-3.47687e-05
-3.3025e-05
-3.1356e-05
-2.97595e-05
-2.82332e-05
-2.67746e-05
-2.53813e-05
-2.4051e-05
-2.27813e-05
-2.15698e-05
-2.04144e-05
-1.93126e-05
-1.82623e-05
-1.72614e-05
-1.63077e-05
-1.53993e-05
-1.4534e-05
-1.37101e-05
-0.000108089
-0.000104252
-0.000100476
-9.67665e-05
-9.31266e-05
-8.95597e-05
-8.60686e-05
-8.2656e-05
-7.93244e-05
-7.60758e-05
-7.29119e-05
-6.98343e-05
-6.68441e-05
-6.39421e-05
-6.11289e-05
-5.84048e-05
-5.57698e-05
-5.32236e-05
-5.07658e-05
-4.83955e-05
-4.61119e-05
-4.39138e-05
-4.17998e-05
-3.97685e-05
-3.78181e-05
-3.59469e-05
-3.41528e-05
-3.2434e-05
-3.07884e-05
-2.92137e-05
-2.77077e-05
-2.62684e-05
-2.48933e-05
-2.35803e-05
-2.23271e-05
-2.11314e-05
-1.99912e-05
-1.89041e-05
-1.7868e-05
-1.68809e-05
-1.59407e-05
-1.50454e-05
-1.4193e-05
-1.33817e-05
-0.000105295
-0.000101616
-9.79922e-05
-9.44266e-05
-9.09233e-05
-8.74856e-05
-8.41166e-05
-8.08191e-05
-7.75957e-05
-7.44488e-05
-7.13804e-05
-6.8392e-05
-6.54852e-05
-6.26611e-05
-5.99204e-05
-5.72638e-05
-5.46915e-05
-5.22035e-05
-4.97996e-05
-4.74794e-05
-4.52422e-05
-4.30871e-05
-4.10129e-05
-3.90185e-05
-3.71024e-05
-3.52629e-05
-3.34985e-05
-3.18073e-05
-3.01874e-05
-2.86368e-05
-2.71535e-05
-2.57355e-05
-2.43806e-05
-2.30868e-05
-2.18518e-05
-2.06736e-05
-1.955e-05
-1.8479e-05
-1.74585e-05
-1.64864e-05
-1.55607e-05
-1.46795e-05
-1.3841e-05
-1.30432e-05
-0.000102392
-9.88732e-05
-9.54017e-05
-9.19815e-05
-8.86164e-05
-8.53099e-05
-8.20651e-05
-7.88853e-05
-7.57729e-05
-7.27306e-05
-6.97606e-05
-6.68647e-05
-6.40446e-05
-6.13016e-05
-5.86368e-05
-5.6051e-05
-5.35448e-05
-5.11185e-05
-4.87719e-05
-4.65051e-05
-4.43175e-05
-4.22085e-05
-4.01772e-05
-3.82227e-05
-3.63437e-05
-3.45388e-05
-3.28066e-05
-3.11455e-05
-2.95537e-05
-2.80296e-05
-2.65711e-05
-2.51765e-05
-2.38437e-05
-2.25708e-05
-2.13557e-05
-2.01965e-05
-1.90911e-05
-1.80376e-05
-1.70338e-05
-1.60779e-05
-1.51679e-05
-1.4302e-05
-1.34782e-05
-1.26947e-05
-9.9391e-05
-9.6032e-05
-9.27135e-05
-8.94394e-05
-8.62137e-05
-8.30399e-05
-7.99213e-05
-7.6861e-05
-7.38619e-05
-7.09267e-05
-6.80577e-05
-6.5257e-05
-6.25264e-05
-5.98676e-05
-5.72817e-05
-5.47699e-05
-5.23329e-05
-4.99712e-05
-4.76851e-05
-4.54747e-05
-4.33397e-05
-4.12797e-05
-3.92942e-05
-3.73824e-05
-3.55432e-05
-3.37755e-05
-3.2078e-05
-3.04494e-05
-2.88881e-05
-2.73925e-05
-2.5961e-05
-2.45917e-05
-2.32829e-05
-2.20327e-05
-2.08392e-05
-1.97005e-05
-1.86147e-05
-1.758e-05
-1.65942e-05
-1.56557e-05
-1.47625e-05
-1.39127e-05
-1.31046e-05
-1.23364e-05
-9.63013e-05
-9.31017e-05
-8.99362e-05
-8.68086e-05
-8.3723e-05
-8.06829e-05
-7.76917e-05
-7.47526e-05
-7.18686e-05
-6.90425e-05
-6.62767e-05
-6.35736e-05
-6.09351e-05
-5.8363e-05
-5.58587e-05
-5.34236e-05
-5.10586e-05
-4.87644e-05
-4.65416e-05
-4.43903e-05
-4.23108e-05
-4.03026e-05
-3.83656e-05
-3.6499e-05
-3.47021e-05
-3.29741e-05
-3.13138e-05
-2.97199e-05
-2.81913e-05
-2.67264e-05
-2.53237e-05
-2.39817e-05
-2.26986e-05
-2.14728e-05
-2.03025e-05
-1.91859e-05
-1.81211e-05
-1.71064e-05
-1.614e-05
-1.522e-05
-1.43445e-05
-1.3512e-05
-1.27205e-05
-1.19683e-05
-9.31323e-05
-9.00912e-05
-8.70781e-05
-8.4097e-05
-8.11518e-05
-7.8246e-05
-7.53831e-05
-7.25663e-05
-6.97988e-05
-6.70835e-05
-6.44228e-05
-6.18192e-05
-5.92749e-05
-5.67918e-05
-5.43716e-05
-5.20156e-05
-4.97251e-05
-4.7501e-05
-4.53439e-05
-4.32545e-05
-4.12328e-05
-3.9279e-05
-3.73929e-05
-3.55741e-05
-3.3822e-05
-3.21359e-05
-3.05149e-05
-2.89581e-05
-2.74641e-05
-2.60319e-05
-2.46601e-05
-2.33471e-05
-2.20915e-05
-2.08917e-05
-1.97461e-05
-1.86529e-05
-1.76106e-05
-1.66173e-05
-1.56713e-05
-1.47709e-05
-1.39143e-05
-1.30999e-05
-1.23259e-05
-1.15907e-05
-0.000491218
-0.000469315
-0.000447938
-0.000427153
-0.000407011
-0.000387553
-0.000368807
-0.000350795
-0.000333527
-0.000317009
-0.000301237
-0.000286205
-0.000271899
-0.000258305
-0.000245402
-0.000233168
-0.000221582
-0.000210617
-0.000200248
-0.000190448
-0.000181193
-0.000172454
-0.000164206
-0.000156425
-0.000149083
-0.000142159
-0.000135628
-0.000473274
-0.000453068
-0.000433277
-0.000413968
-0.000395194
-0.000376998
-0.000359413
-0.000342464
-0.000326167
-0.000310531
-0.00029556
-0.00028125
-0.000267596
-0.000254585
-0.000242204
-0.000230437
-0.000219264
-0.000208665
-0.000198619
-0.000189103
-0.000180095
-0.000171572
-0.000163512
-0.000155892
-0.000148689
-0.000141882
-0.000135451
-0.00045544
-0.000436828
-0.000418534
-0.000400624
-0.000383151
-0.000366163
-0.000349693
-0.000333771
-0.000318417
-0.000303643
-0.000289457
-0.000275862
-0.000262854
-0.000250427
-0.000238572
-0.000227277
-0.000216525
-0.000206303
-0.000196591
-0.000187372
-0.000178626
-0.000170334
-0.000162476
-0.000155032
-0.000147983
-0.000141309
-0.000134992
-0.000437768
-0.00042065
-0.000403765
-0.000387178
-0.000370944
-0.000355107
-0.000339708
-0.000324776
-0.000310335
-0.0002964
-0.000282983
-0.000270089
-0.000257721
-0.000245875
-0.000234546
-0.000223725
-0.000213401
-0.000203563
-0.000194195
-0.000185283
-0.00017681
-0.000168761
-0.000161118
-0.000153863
-0.000146981
-0.000140453
-0.000134263
-0.000420297
-0.00040458
-0.000389021
-0.000373685
-0.000358624
-0.000343887
-0.000329512
-0.000315532
-0.000301972
-0.000288851
-0.000276183
-0.000263978
-0.000252239
-0.000240968
-0.000230163
-0.000219817
-0.000209924
-0.000200474
-0.000191457
-0.00018286
-0.000174671
-0.000166874
-0.000159456
-0.000152402
-0.000145698
-0.000139328
-0.000133277
-0.000403062
-0.000388658
-0.000374346
-0.000360189
-0.000346241
-0.000332549
-0.000319153
-0.000306086
-0.000293376
-0.000281043
-0.000269105
-0.000257571
-0.000246451
-0.000235747
-0.00022546
-0.000215587
-0.000206126
-0.000197068
-0.000188406
-0.00018013
-0.00017223
-0.000164694
-0.000157511
-0.000150667
-0.000144151
-0.000137949
-0.000132047
-0.000386094
-0.000372917
-0.000359776
-0.000346732
-0.000333837
-0.000321139
-0.000308676
-0.000296484
-0.000284591
-0.00027302
-0.000261788
-0.000250909
-0.000240393
-0.000230246
-0.000220471
-0.000211068
-0.000202037
-0.000193371
-0.000185067
-0.000177116
-0.000169511
-0.000162243
-0.000155301
-0.000148675
-0.000142355
-0.000136329
-0.000130586
-0.000369416
-0.000357387
-0.000345345
-0.000333349
-0.00032145
-0.000309694
-0.000298121
-0.000286766
-0.000275657
-0.000264819
-0.000254271
-0.000244028
-0.000234101
-0.0002245
-0.000215229
-0.000206291
-0.000197686
-0.000189412
-0.000181465
-0.000173842
-0.000166536
-0.000159539
-0.000152844
-0.000146443
-0.000140326
-0.000134484
-0.000128907
-0.000353049
-0.000342093
-0.000331082
-0.000320072
-0.000309114
-0.000298251
-0.000287524
-0.000276968
-0.00026661
-0.000256478
-0.000246589
-0.000236963
-0.00022761
-0.000218542
-0.000209765
-0.000201284
-0.000193101
-0.000185215
-0.000177626
-0.000170331
-0.000163325
-0.000156604
-0.00015016
-0.000143988
-0.00013808
-0.000132427
-0.000127022
-0.000337008
-0.000327055
-0.000317009
-0.000306928
-0.000296857
-0.00028684
-0.000276917
-0.000267122
-0.000257484
-0.000248028
-0.000238776
-0.000229745
-0.00022095
-0.000212401
-0.000204108
-0.000196075
-0.000188307
-0.000180807
-0.000173573
-0.000166605
-0.000159901
-0.000153456
-0.000147266
-0.000141327
-0.000135631
-0.000130173
-0.000124946
-0.000321306
-0.000312289
-0.000303149
-0.000293939
-0.000284704
-0.000275488
-0.000266328
-0.000257258
-0.000248307
-0.000239501
-0.000230861
-0.000222405
-0.000214149
-0.000206105
-0.000198283
-0.00019069
-0.000183331
-0.000176209
-0.000169327
-0.000162685
-0.000156281
-0.000150114
-0.00014418
-0.000138475
-0.000132996
-0.000127736
-0.000122691
-0.000305953
-0.000297809
-0.000289516
-0.000281125
-0.000272679
-0.00026422
-0.000255783
-0.000247403
-0.000239107
-0.000230923
-0.00022287
-0.000214969
-0.000207234
-0.00019968
-0.000192316
-0.000185152
-0.000178194
-0.000171445
-0.00016491
-0.00015859
-0.000152485
-0.000146595
-0.000140917
-0.000135449
-0.000130188
-0.000125129
-0.000120269
-0.000290955
-0.000283626
-0.000276126
-0.000268504
-0.0002608
-0.000253055
-0.000245304
-0.000237579
-0.000229909
-0.000222318
-0.000214829
-0.000207461
-0.000200229
-0.000193149
-0.000186231
-0.000179485
-0.000172918
-0.000166535
-0.000160342
-0.00015434
-0.000148532
-0.000142917
-0.000137494
-0.000132263
-0.000127222
-0.000122366
-0.000117693
-0.000276317
-0.000269748
-0.00026299
-0.000256089
-0.000249084
-0.000242013
-0.00023491
-0.000227808
-0.000220732
-0.000213709
-0.000206759
-0.000199903
-0.000193157
-0.000186535
-0.000180049
-0.000173709
-0.000167524
-0.000161499
-0.000155641
-0.000149953
-0.000144437
-0.000139095
-0.000133927
-0.000128933
-0.00012411
-0.000119459
-0.000114975
-0.000262041
-0.00025618
-0.000250116
-0.000243892
-0.000237544
-0.000231109
-0.00022462
-0.000218107
-0.000211597
-0.000205115
-0.000198682
-0.000192317
-0.000186037
-0.000179857
-0.000173789
-0.000167844
-0.00016203
-0.000156355
-0.000150826
-0.000145446
-0.000140218
-0.000135146
-0.00013023
-0.000125471
-0.000120868
-0.00011642
-0.000112127
-0.000248127
-0.000242928
-0.000237512
-0.000231922
-0.000226191
-0.000220356
-0.000214447
-0.000208493
-0.000202521
-0.000196554
-0.000190614
-0.00018472
-0.000178888
-0.000173134
-0.00016747
-0.000161907
-0.000156454
-0.000151121
-0.000145912
-0.000140834
-0.00013589
-0.000131083
-0.000126417
-0.000121891
-0.000117506
-0.000113263
-0.00010916
-0.000234576
-0.000229992
-0.000225183
-0.000220186
-0.000215036
-0.000209765
-0.000204404
-0.00019898
-0.000193518
-0.000188042
-0.000182573
-0.000177129
-0.000171728
-0.000166383
-0.000161108
-0.000155915
-0.000150813
-0.000145811
-0.000140915
-0.000136132
-0.000131466
-0.000126922
-0.000122501
-0.000118206
-0.000114038
-0.000109997
-0.000106084
-0.000221385
-0.000217374
-0.000213132
-0.000208691
-0.000204086
-0.000199347
-0.000194502
-0.000189579
-0.000184602
-0.000179593
-0.000174573
-0.00016956
-0.00016457
-0.000159619
-0.00015472
-0.000149884
-0.000145121
-0.000140441
-0.00013585
-0.000131355
-0.000126962
-0.000122674
-0.000118495
-0.000114428
-0.000110474
-0.000106635
-0.00010291
-0.00020855
-0.000205074
-0.00020136
-0.000197441
-0.000193348
-0.000189108
-0.000184751
-0.000180302
-0.000175784
-0.000171219
-0.000166626
-0.000162024
-0.000157429
-0.000152856
-0.000148318
-0.000143827
-0.000139393
-0.000135024
-0.00013073
-0.000126516
-0.000122389
-0.000118353
-0.000114412
-0.000110569
-0.000106826
-0.000103186
-9.96487e-05
-0.000196068
-0.00019309
-0.00018987
-0.000186438
-0.000182825
-0.000179056
-0.000175159
-0.000171157
-0.000167074
-0.00016293
-0.000158745
-0.000154535
-0.000150318
-0.000146107
-0.000141917
-0.000137757
-0.00013364
-0.000129574
-0.000125567
-0.000121627
-0.000117759
-0.000113969
-0.000110261
-0.000106639
-0.000103104
-9.96608e-05
-9.63092e-05
-0.000184181
-0.000181657
-0.000178889
-0.000175904
-0.000172731
-0.000169396
-0.000165923
-0.000162336
-0.000158657
-0.000154904
-0.000151098
-0.000147256
-0.000143392
-0.000139522
-0.000135657
-0.000131811
-0.000127994
-0.000124214
-0.00012048
-0.000116801
-0.00011318
-0.000109626
-0.000106141
-0.00010273
-9.93969e-05
-9.61431e-05
-9.2971e-05
-0.000172748
-0.000170643
-0.000168292
-0.000165722
-0.000162959
-0.000160027
-0.00015695
-0.000153751
-0.00015045
-0.000147066
-0.000143617
-0.00014012
-0.000136591
-0.000133043
-0.000129489
-0.000125941
-0.00012241
-0.000118904
-0.000115432
-0.000112002
-0.00010862
-0.000105293
-0.000102024
-9.88187e-05
-9.568e-05
-9.26109e-05
-8.96139e-05
-0.000161411
-0.000159704
-0.000157751
-0.000155577
-0.000153206
-0.000150661
-0.000147966
-0.00014514
-0.000142204
-0.000139176
-0.000136074
-0.000132914
-0.000129711
-0.000126478
-0.000123228
-0.000119972
-0.000116722
-0.000113485
-0.000110272
-0.00010709
-0.000103944
-0.000100842
-9.77888e-05
-9.47881e-05
-9.18442e-05
-8.89603e-05
-8.6139e-05
-0.000150179
-0.00014885
-0.000147275
-0.000145478
-0.000143482
-0.000141309
-0.000138979
-0.000136513
-0.000133929
-0.000131246
-0.00012848
-0.000125646
-0.00012276
-0.000119834
-0.000116881
-0.000113912
-0.000110937
-0.000107966
-0.000105008
-0.000102069
-9.91581e-05
-9.62798e-05
-9.34399e-05
-9.06432e-05
-8.78936e-05
-8.51949e-05
-8.25498e-05
-0.000139059
-0.000138089
-0.000136873
-0.000135436
-0.000133798
-0.000131979
-0.000129999
-0.000127879
-0.000125635
-0.000123284
-0.000120843
-0.000118326
-0.000115747
-0.00011312
-0.000110457
-0.000107767
-0.000105063
-0.000102353
-9.9645e-05
-9.69476e-05
-9.42673e-05
-9.16105e-05
-8.89827e-05
-8.63887e-05
-8.38328e-05
-8.13189e-05
-7.88501e-05
-0.000128061
-0.000127429
-0.000126554
-0.000125459
-0.000124161
-0.000122681
-0.000121037
-0.000119248
-0.00011733
-0.000115299
-0.000113172
-0.000110961
-0.000108682
-0.000106345
-0.000103963
-0.000101548
-9.91076e-05
-9.66526e-05
-9.41911e-05
-9.17307e-05
-8.92784e-05
-8.68405e-05
-8.44226e-05
-8.20298e-05
-7.96665e-05
-7.73367e-05
-7.50438e-05
-0.000117191
-0.000116879
-0.000116327
-0.000115555
-0.000114581
-0.000113424
-0.000112101
-0.000110629
-0.000109024
-0.000107302
-0.000105477
-0.000103562
-0.000101572
-9.95172e-05
-9.74099e-05
-9.52604e-05
-9.30786e-05
-9.08734e-05
-8.86533e-05
-8.64258e-05
-8.41979e-05
-8.19759e-05
-7.97656e-05
-7.7572e-05
-7.53998e-05
-7.32531e-05
-7.11354e-05
-0.000106457
-0.000106446
-0.000106198
-0.000105733
-0.000105068
-0.000104218
-0.000103201
-0.000102032
-0.000100727
-9.93008e-05
-9.77667e-05
-9.6138e-05
-9.4427e-05
-9.26455e-05
-9.08044e-05
-8.8914e-05
-8.69838e-05
-8.50227e-05
-8.30389e-05
-8.10399e-05
-7.90325e-05
-7.70232e-05
-7.50176e-05
-7.3021e-05
-7.10381e-05
-6.9073e-05
-6.71296e-05
-9.58641e-05
-9.61367e-05
-9.6177e-05
-9.60021e-05
-9.5628e-05
-9.50702e-05
-9.43443e-05
-9.34654e-05
-9.24478e-05
-9.13052e-05
-9.00508e-05
-8.86971e-05
-8.7256e-05
-8.57386e-05
-8.41556e-05
-8.25169e-05
-8.08316e-05
-7.91085e-05
-7.73556e-05
-7.55802e-05
-7.37892e-05
-7.19889e-05
-7.01851e-05
-6.83828e-05
-6.6587e-05
-6.48019e-05
-6.30314e-05
-8.54201e-05
-8.5959e-05
-8.62699e-05
-8.6369e-05
-8.62709e-05
-8.59901e-05
-8.55412e-05
-8.49384e-05
-8.4195e-05
-8.33241e-05
-8.23381e-05
-8.12489e-05
-8.00678e-05
-7.88056e-05
-7.74723e-05
-7.60775e-05
-7.46303e-05
-7.31389e-05
-7.16111e-05
-7.00544e-05
-6.84753e-05
-6.688e-05
-6.52744e-05
-6.36637e-05
-6.20525e-05
-6.04454e-05
-5.88461e-05
-7.51305e-05
-7.5919e-05
-7.64844e-05
-7.68416e-05
-7.70043e-05
-7.69858e-05
-7.67999e-05
-7.64597e-05
-7.59779e-05
-7.53666e-05
-7.46377e-05
-7.38024e-05
-7.28715e-05
-7.18551e-05
-7.07631e-05
-6.96045e-05
-6.83881e-05
-6.71218e-05
-6.58134e-05
-6.44699e-05
-6.3098e-05
-6.17036e-05
-6.02926e-05
-5.88701e-05
-5.74408e-05
-5.60093e-05
-5.45794e-05
-6.50012e-05
-6.60231e-05
-6.68272e-05
-6.74272e-05
-6.78358e-05
-6.80653e-05
-6.81286e-05
-6.80379e-05
-6.78051e-05
-6.74416e-05
-6.69586e-05
-6.63666e-05
-6.56759e-05
-6.48962e-05
-6.40368e-05
-6.31065e-05
-6.21135e-05
-6.10657e-05
-5.99705e-05
-5.88347e-05
-5.76649e-05
-5.6467e-05
-5.52465e-05
-5.40087e-05
-5.27583e-05
-5.14997e-05
-5.0237e-05
-5.50372e-05
-5.62772e-05
-5.73048e-05
-5.81328e-05
-5.87729e-05
-5.92365e-05
-5.95356e-05
-5.96815e-05
-5.96853e-05
-5.95579e-05
-5.93095e-05
-5.89503e-05
-5.849e-05
-5.79377e-05
-5.73022e-05
-5.6592e-05
-5.58151e-05
-5.49788e-05
-5.40905e-05
-5.31567e-05
-5.21838e-05
-5.11775e-05
-5.01434e-05
-4.90865e-05
-4.80117e-05
-4.69231e-05
-4.58249e-05
-4.52436e-05
-4.66868e-05
-4.79234e-05
-4.8965e-05
-4.98226e-05
-5.05068e-05
-5.10285e-05
-5.13984e-05
-5.16268e-05
-5.17238e-05
-5.16992e-05
-5.15623e-05
-5.13224e-05
-5.09882e-05
-5.0568e-05
-5.00698e-05
-4.95013e-05
-4.88696e-05
-4.81816e-05
-4.74439e-05
-4.66624e-05
-4.58428e-05
-4.49906e-05
-4.41107e-05
-4.32077e-05
-4.2286e-05
-4.13497e-05
-3.5625e-05
-3.72571e-05
-3.86887e-05
-3.99302e-05
-4.09919e-05
-4.18835e-05
-4.26151e-05
-4.31966e-05
-4.36378e-05
-4.39478e-05
-4.4136e-05
-4.42112e-05
-4.41819e-05
-4.40565e-05
-4.38427e-05
-4.35484e-05
-4.31806e-05
-4.27463e-05
-4.22522e-05
-4.17043e-05
-4.11086e-05
-4.04706e-05
-3.97956e-05
-3.90883e-05
-3.83535e-05
-3.75952e-05
-3.68176e-05
-2.61857e-05
-2.79933e-05
-2.96062e-05
-3.10345e-05
-3.22872e-05
-3.33734e-05
-3.43026e-05
-3.50838e-05
-3.5726e-05
-3.6238e-05
-3.66284e-05
-3.69053e-05
-3.70769e-05
-3.7151e-05
-3.71351e-05
-3.70363e-05
-3.68616e-05
-3.66175e-05
-3.63104e-05
-3.59461e-05
-3.55305e-05
-3.50687e-05
-3.4566e-05
-3.4027e-05
-3.34561e-05
-3.28577e-05
-3.22356e-05
-1.69298e-05
-1.88997e-05
-2.06812e-05
-2.22834e-05
-2.37147e-05
-2.49833e-05
-2.6098e-05
-2.70672e-05
-2.78993e-05
-2.86023e-05
-2.91843e-05
-2.96529e-05
-3.00159e-05
-3.02804e-05
-3.04535e-05
-3.05421e-05
-3.05526e-05
-3.04914e-05
-3.03645e-05
-3.01775e-05
-2.9936e-05
-2.9645e-05
-2.93095e-05
-2.89341e-05
-2.85231e-05
-2.80806e-05
-2.76105e-05
-7.86084e-06
-9.9808e-06
-1.19186e-05
-1.36825e-05
-1.52802e-05
-1.67194e-05
-1.80081e-05
-1.9154e-05
-2.01649e-05
-2.10483e-05
-2.18116e-05
-2.24621e-05
-2.30068e-05
-2.34527e-05
-2.38062e-05
-2.4074e-05
-2.42621e-05
-2.43765e-05
-2.44229e-05
-2.44067e-05
-2.43333e-05
-2.42074e-05
-2.4034e-05
-2.38173e-05
-2.35617e-05
-2.32711e-05
-2.29492e-05
1.01766e-06
-1.24055e-06
-3.32283e-06
-5.23672e-06
-6.98939e-06
-8.58777e-06
-1.00392e-05
-1.13509e-05
-1.25299e-05
-1.35833e-05
-1.4518e-05
-1.53406e-05
-1.60579e-05
-1.66761e-05
-1.72016e-05
-1.76403e-05
-1.79982e-05
-1.82808e-05
-1.84936e-05
-1.86418e-05
-1.87303e-05
-1.8764e-05
-1.87472e-05
-1.86844e-05
-1.85795e-05
-1.84366e-05
-1.82592e-05
9.7026e-06
7.31735e-06
5.10179e-06
3.04902e-06
1.1525e-06
-5.94102e-07
-2.19751e-06
-3.66438e-06
-5.00125e-06
-6.2146e-06
-7.31081e-06
-8.29613e-06
-9.17671e-06
-9.95856e-06
-1.06475e-05
-1.12492e-05
-1.17692e-05
-1.22128e-05
-1.2585e-05
-1.2891e-05
-1.31353e-05
-1.33226e-05
-1.34571e-05
-1.3543e-05
-1.35843e-05
-1.35846e-05
-1.35476e-05
1.81911e-05
1.56895e-05
1.33513e-05
1.11703e-05
9.14049e-06
7.25616e-06
5.51112e-06
3.89926e-06
2.41455e-06
1.05103e-06
-1.97213e-07
-1.33598e-06
-2.37098e-06
-3.3078e-06
-4.15191e-06
-4.90861e-06
-5.58308e-06
-6.18031e-06
-6.70517e-06
-7.16231e-06
-7.55624e-06
-7.89127e-06
-8.17156e-06
-8.40108e-06
-8.5836e-06
-8.72274e-06
-8.82193e-06
2.64807e-05
2.38726e-05
2.14219e-05
1.91228e-05
1.69699e-05
1.49579e-05
1.30811e-05
1.13341e-05
9.71118e-06
8.20692e-06
6.81588e-06
5.53265e-06
4.35196e-06
3.26859e-06
2.27747e-06
1.37362e-06
5.52205e-07
-1.91489e-07
-8.62022e-07
-1.46381e-06
-2.00111e-06
-2.47804e-06
-2.89854e-06
-3.2664e-06
-3.58526e-06
-3.85858e-06
-4.08968e-06
3.45688e-05
3.18639e-05
2.93102e-05
2.69027e-05
2.46362e-05
2.25061e-05
2.05072e-05
1.86344e-05
1.68826e-05
1.52467e-05
1.37218e-05
1.23028e-05
1.09849e-05
9.76326e-06
8.63311e-06
7.58982e-06
6.62887e-06
5.74584e-06
4.93646e-06
4.19654e-06
3.52208e-06
2.90917e-06
2.35406e-06
1.85315e-06
1.40295e-06
1.00015e-06
6.41562e-07
4.24533e-05
3.96605e-05
3.7013e-05
3.45061e-05
3.21353e-05
2.98962e-05
2.77843e-05
2.57947e-05
2.39229e-05
2.21642e-05
2.0514e-05
1.89678e-05
1.75209e-05
1.6169e-05
1.49076e-05
1.37324e-05
1.26393e-05
1.16239e-05
1.06824e-05
9.81087e-06
9.00544e-06
8.26245e-06
7.57835e-06
6.94972e-06
6.37323e-06
5.84572e-06
5.36413e-06
5.01322e-05
4.726e-05
4.45272e-05
4.19297e-05
3.94632e-05
3.71239e-05
3.49075e-05
3.28098e-05
3.08266e-05
2.89535e-05
2.71864e-05
2.55211e-05
2.39532e-05
2.24789e-05
2.10938e-05
1.97941e-05
1.85758e-05
1.74351e-05
1.63682e-05
1.53714e-05
1.44411e-05
1.35739e-05
1.27665e-05
1.20154e-05
1.13178e-05
1.06704e-05
1.00703e-05
5.76038e-05
5.46601e-05
5.18501e-05
4.917e-05
4.66161e-05
4.41848e-05
4.18723e-05
3.96748e-05
3.75883e-05
3.5609e-05
3.37329e-05
3.19563e-05
3.02752e-05
2.8686e-05
2.71847e-05
2.57677e-05
2.44313e-05
2.31719e-05
2.19861e-05
2.08704e-05
1.98213e-05
1.88358e-05
1.79105e-05
1.70425e-05
1.62287e-05
1.54663e-05
1.47524e-05
6.48663e-05
6.18586e-05
5.8979e-05
5.62241e-05
5.35905e-05
5.10751e-05
4.86744e-05
4.63848e-05
4.42028e-05
4.2125e-05
4.01477e-05
3.82674e-05
3.64806e-05
3.47837e-05
3.31733e-05
3.1646e-05
3.01983e-05
2.8827e-05
2.75287e-05
2.63002e-05
2.51384e-05
2.40403e-05
2.30028e-05
2.20231e-05
2.10983e-05
2.02257e-05
1.94026e-05
7.19183e-05
6.88535e-05
6.59115e-05
6.3089e-05
6.03831e-05
5.77909e-05
5.53094e-05
5.29352e-05
5.06653e-05
4.84963e-05
4.64251e-05
4.44484e-05
4.2563e-05
4.07656e-05
3.90531e-05
3.74222e-05
3.58699e-05
3.4393e-05
3.29885e-05
3.16534e-05
3.03848e-05
2.91798e-05
2.80356e-05
2.69494e-05
2.59187e-05
2.49408e-05
2.40132e-05
7.87583e-05
7.5643e-05
7.26451e-05
6.97619e-05
6.69906e-05
6.43287e-05
6.17733e-05
5.93217e-05
5.69708e-05
5.47178e-05
5.25597e-05
5.04936e-05
4.85165e-05
4.66254e-05
4.48174e-05
4.30896e-05
4.1439e-05
3.98629e-05
3.83583e-05
3.69226e-05
3.55529e-05
3.42466e-05
3.30011e-05
3.18138e-05
3.06822e-05
2.96038e-05
2.85764e-05
8.53851e-05
8.22253e-05
7.91778e-05
7.62402e-05
7.34099e-05
7.06848e-05
6.80624e-05
6.55399e-05
6.31149e-05
6.07845e-05
5.85463e-05
5.63974e-05
5.43351e-05
5.23569e-05
5.04599e-05
4.86414e-05
4.68989e-05
4.52296e-05
4.3631e-05
4.21004e-05
4.06353e-05
3.92333e-05
3.78918e-05
3.66085e-05
3.5381e-05
3.4207e-05
3.30843e-05
9.17973e-05
8.85986e-05
8.55073e-05
8.25212e-05
7.96381e-05
7.68561e-05
7.41727e-05
7.15858e-05
6.90929e-05
6.66916e-05
6.43795e-05
6.21542e-05
6.00132e-05
5.7954e-05
5.59742e-05
5.40713e-05
5.22428e-05
5.04862e-05
4.87993e-05
4.71796e-05
4.56247e-05
4.41322e-05
4.27e-05
4.13258e-05
4.00074e-05
3.87426e-05
3.75293e-05
9.79938e-05
9.47614e-05
9.16316e-05
8.86026e-05
8.56723e-05
8.28391e-05
8.01007e-05
7.74553e-05
7.49005e-05
7.24343e-05
7.00545e-05
6.77588e-05
6.55451e-05
6.3411e-05
6.13543e-05
5.93727e-05
5.7464e-05
5.5626e-05
5.38564e-05
5.2153e-05
5.05136e-05
4.89361e-05
4.74184e-05
4.59582e-05
4.45537e-05
4.32028e-05
4.19034e-05
0.000103973
0.000100712
9.75487e-05
9.44819e-05
9.15097e-05
8.86306e-05
8.58428e-05
8.31444e-05
8.05335e-05
7.80081e-05
7.55662e-05
7.32059e-05
7.09251e-05
6.87218e-05
6.6594e-05
6.45394e-05
6.25562e-05
6.06421e-05
5.87953e-05
5.70136e-05
5.5295e-05
5.36375e-05
5.20392e-05
5.04981e-05
4.90123e-05
4.75798e-05
4.61989e-05
0.000109734
0.000106449
0.000103256
0.000100157
9.71474e-05
9.42276e-05
9.13955e-05
8.86493e-05
8.59875e-05
8.34083e-05
8.09098e-05
7.84904e-05
7.6148e-05
7.38809e-05
7.16873e-05
6.95652e-05