/*--------------------------------*- C++ -*----------------------------------*\
| =========                 |                                                 |
| \\      /  F ield         | OpenFOAM: The Open Source CFD Toolbox           |
|  \\    /   O peration     | Version:  2412                                  |
|   \\  /    A nd           | Website:  www.openfoam.com                      |
|    \\/     M anipulation  |                                                 |
\*---------------------------------------------------------------------------*/
FoamFile
{
    version     2.0;
    format      ascii;
    arch        "LSB;label=32;scalar=64";
    class       surfaceScalarField;
    location    "0.5";
    object      phi;
}
// * * * * * * * * * * * * * * * * * * * * * * * * * * * * * * * * * * * * * //

dimensions      [0 3 -1 0 0 0 0];

oriented        oriented;

internalField   nonuniform List<scalar> 
10424
(
0.00531471
9.04762e-05
-0.00531632
-8.88702e-05
0.00531306
9.11017e-05
-8.94527e-05
0.00531147
9.12308e-05
-8.96446e-05
0.00530994
9.10376e-05
-8.95067e-05
0.00530846
9.08182e-05
-8.93353e-05
0.00530706
9.0698e-05
-8.92973e-05
0.00530574
9.06143e-05
-8.92945e-05
0.00530449
9.05015e-05
-8.92537e-05
0.00530331
9.03382e-05
-8.91593e-05
0.0053022
9.01163e-05
-8.90039e-05
0.00530115
8.98305e-05
-8.87824e-05
0.00530017
8.94784e-05
-8.84926e-05
0.00529924
8.90591e-05
-8.81338e-05
0.00529838
8.85723e-05
-8.77058e-05
0.00529757
8.8018e-05
-8.72089e-05
0.00529681
8.73971e-05
-8.66437e-05
0.00529611
8.67104e-05
-8.60112e-05
0.00529547
8.59588e-05
-8.53124e-05
0.00529487
8.51437e-05
-8.45485e-05
0.00529433
8.42665e-05
-8.37211e-05
0.00529383
8.33292e-05
-8.28318e-05
0.00529338
8.23336e-05
-8.18824e-05
0.00529297
8.12818e-05
-8.08748e-05
0.00529261
8.01768e-05
-7.98135e-05
0.00529229
7.90217e-05
-7.87071e-05
0.00529201
7.78106e-05
-7.75268e-05
0.00529177
7.65508e-05
-7.63071e-05
0.00529156
7.52496e-05
-7.5043e-05
0.00529139
7.39116e-05
-7.37372e-05
0.00529124
7.25297e-05
-7.23886e-05
0.00529113
7.11116e-05
-7.1001e-05
0.00529105
6.96591e-05
-6.95774e-05
0.005291
6.81752e-05
-6.81204e-05
0.00529097
6.66626e-05
-6.66328e-05
0.00529096
6.5124e-05
-6.51174e-05
0.00529098
6.35623e-05
-6.3577e-05
0.00529101
6.19801e-05
-6.20145e-05
0.00529106
6.03801e-05
-6.04323e-05
0.00529113
5.87648e-05
-5.88333e-05
0.00529121
5.71371e-05
-5.72202e-05
0.00529131
5.54998e-05
-5.55958e-05
0.00529142
5.38553e-05
-5.39629e-05
0.00529153
5.22062e-05
-5.23238e-05
5.05553e-05
-5.06818e-05
0.00531431
9.2163e-05
-0.005316
0.00531266
9.2755e-05
0.00531111
9.27803e-05
0.00530963
9.25147e-05
0.00530819
9.22553e-05
0.00530682
9.20762e-05
0.00530551
9.19236e-05
0.00530426
9.17436e-05
0.00530309
9.15135e-05
0.00530198
9.12251e-05
0.00530094
9.08739e-05
0.00529996
9.04578e-05
0.00529904
8.99759e-05
0.00529818
8.9428e-05
0.00529739
8.88143e-05
0.00529665
8.81355e-05
0.00529597
8.73923e-05
0.00529534
8.65859e-05
0.00529477
8.57176e-05
0.00529424
8.47892e-05
0.00529377
8.38022e-05
0.00529335
8.27587e-05
0.00529297
8.16607e-05
0.00529263
8.05105e-05
0.00529234
7.93123e-05
0.00529209
7.80615e-05
0.00529188
7.67651e-05
0.0052917
7.54281e-05
0.00529156
7.40531e-05
0.00529145
7.26393e-05
0.00529137
7.11903e-05
0.00529132
6.97092e-05
0.0052913
6.81986e-05
0.0052913
6.66612e-05
0.00529132
6.50996e-05
0.00529137
6.35168e-05
0.00529143
6.19153e-05
0.00529151
6.02978e-05
0.00529161
5.86669e-05
0.00529172
5.70251e-05
0.00529185
5.53752e-05
0.00529198
5.37197e-05
0.00529213
5.20611e-05
5.04024e-05
0.00531229
9.38633e-05
-0.00531399
0.00531066
9.4382e-05
0.00530914
9.43026e-05
0.0053077
9.39619e-05
0.0053063
9.36537e-05
0.00530495
9.34204e-05
0.00530367
9.32054e-05
0.00530245
9.29607e-05
0.0053013
9.26649e-05
0.00530022
9.23102e-05
0.0052992
9.18931e-05
0.00529824
9.1412e-05
0.00529735
9.08663e-05
0.00529653
9.02559e-05
0.00529576
8.95812e-05
0.00529505
8.8843e-05
0.0052944
8.8042e-05
0.00529381
8.71795e-05
0.00529327
8.6257e-05
0.00529278
8.52761e-05
0.00529235
8.42385e-05
0.00529196
8.31461e-05
0.00529162
8.20014e-05
0.00529132
8.08063e-05
0.00529107
7.95645e-05
0.00529086
7.82738e-05
0.00529068
7.694e-05
0.00529054
7.55666e-05
0.00529044
7.4156e-05
0.00529037
7.27097e-05
0.00529033
7.12304e-05
0.00529032
6.97209e-05
0.00529033
6.81841e-05
0.00529037
6.66223e-05
0.00529043
6.50384e-05
0.00529051
6.34352e-05
0.00529061
6.18152e-05
0.00529073
6.01809e-05
0.00529086
5.8535e-05
0.00529101
5.68799e-05
0.00529117
5.52183e-05
0.00529133
5.35528e-05
0.00529151
5.18856e-05
5.02198e-05
0.00530996
9.5552e-05
-0.00531165
0.00530835
9.59903e-05
0.00530684
9.58117e-05
0.00530541
9.53937e-05
0.00530403
9.50275e-05
0.00530272
9.47361e-05
0.00530147
9.44587e-05
0.00530028
9.41494e-05
0.00529915
9.37877e-05
0.0052981
9.33663e-05
0.00529711
9.28826e-05
0.00529618
9.23356e-05
0.00529533
9.17249e-05
0.00529453
9.10509e-05
0.0052938
9.03141e-05
0.00529313
8.95152e-05
0.00529251
8.86554e-05
0.00529196
8.77359e-05
0.00529146
8.67582e-05
0.00529101
8.57238e-05
0.00529061
8.46348e-05
0.00529026
8.34932e-05
0.00528996
8.23012e-05
0.00528971
8.1061e-05
0.0052895
7.97756e-05
0.00528933
7.8445e-05
0.00528919
7.70732e-05
0.0052891
7.56633e-05
0.00528904
7.42182e-05
0.00528901
7.27397e-05
0.005289
7.12305e-05
0.00528903
6.96933e-05
0.00528909
6.81307e-05
0.00528916
6.65453e-05
0.00528926
6.49399e-05
0.00528938
6.33171e-05
0.00528952
6.16793e-05
0.00528967
6.00291e-05
0.00528983
5.8369e-05
0.00529001
5.67015e-05
0.0052902
5.50292e-05
0.0052904
5.33546e-05
0.0052906
5.16799e-05
5.00078e-05
0.00530773
9.72237e-05
-0.00530941
0.00530614
9.75818e-05
0.00530464
9.73102e-05
0.00530323
9.68125e-05
0.00530187
9.63799e-05
0.00530058
9.6025e-05
0.00529936
9.56829e-05
0.0052982
9.53076e-05
0.00529711
9.4879e-05
0.00529609
9.439e-05
0.00529513
9.38388e-05
0.00529424
9.32249e-05
0.00529342
9.25483e-05
0.00529266
9.18096e-05
0.00529196
9.10095e-05
0.00529133
9.0149e-05
0.00529076
8.92294e-05
0.00529024
8.82519e-05
0.00528978
8.72181e-05
0.00528937
8.61298e-05
0.00528902
8.49891e-05
0.00528872
8.37977e-05
0.00528846
8.25582e-05
0.00528825
8.12727e-05
0.00528808
7.99441e-05
0.00528795
7.85732e-05
0.00528786
7.71633e-05
0.00528781
7.57174e-05
0.00528779
7.42384e-05
0.0052878
7.27283e-05
0.00528784
7.11897e-05
0.00528791
6.96254e-05
0.005288
6.80378e-05
0.00528811
6.64296e-05
0.00528825
6.48035e-05
0.00528841
6.31619e-05
0.00528858
6.15072e-05
0.00528877
5.9842e-05
0.00528897
5.81687e-05
0.00528918
5.64899e-05
0.0052894
5.4808e-05
0.00528963
5.31253e-05
0.00528986
5.14439e-05
4.97665e-05
0.00530555
9.88776e-05
-0.0053072
0.00530397
9.91556e-05
0.00530249
9.87932e-05
0.00530109
9.82132e-05
0.00529976
9.77084e-05
0.0052985
9.72855e-05
0.00529731
9.68759e-05
0.00529618
9.64326e-05
0.00529513
9.59353e-05
0.00529414
9.53775e-05
0.00529322
9.47578e-05
0.00529237
9.40759e-05
0.00529159
9.33324e-05
0.00529087
9.2528e-05
0.00529021
9.16638e-05
0.00528962
9.0741e-05
0.00528909
8.97607e-05
0.00528862
8.87244e-05
0.0052882
8.76341e-05
0.00528784
8.64914e-05
0.00528753
8.52984e-05
0.00528727
8.40571e-05
0.00528706
8.27699e-05
0.00528689
8.14393e-05
0.00528677
8.00677e-05
0.00528669
7.86566e-05
0.00528664
7.7209e-05
0.00528663
7.57275e-05
0.00528665
7.42151e-05
0.00528671
7.2674e-05
0.00528679
7.11068e-05
0.0052869
6.9516e-05
0.00528703
6.79044e-05
0.00528719
6.62744e-05
0.00528736
6.46285e-05
0.00528756
6.29689e-05
0.00528777
6.12984e-05
0.00528799
5.96192e-05
0.00528822
5.79338e-05
0.00528847
5.62446e-05
0.00528872
5.45542e-05
0.00528898
5.28644e-05
0.00528925
5.11774e-05
4.9496e-05
0.00530331
0.000100512
-0.00530494
0.00530175
0.000100709
0.00530029
0.000100255
0.00529891
9.95899e-05
0.00529761
9.90088e-05
0.00529638
9.85142e-05
0.00529523
9.80342e-05
0.00529414
9.75206e-05
0.00529312
9.6953e-05
0.00529217
9.63251e-05
0.0052913
9.56356e-05
0.00529049
9.48847e-05
0.00528975
9.40733e-05
0.00528907
9.32025e-05
0.00528846
9.22733e-05
0.00528792
9.12872e-05
0.00528743
9.02456e-05
0.005287
8.91503e-05
0.00528664
8.80029e-05
0.00528632
8.68054e-05
0.00528606
8.556e-05
0.00528585
8.42688e-05
0.00528568
8.29341e-05
0.00528557
8.15586e-05
0.00528549
8.01443e-05
0.00528545
7.86934e-05
0.00528545
7.72083e-05
0.00528549
7.56919e-05
0.00528556
7.41468e-05
0.00528566
7.25754e-05
0.00528578
7.09805e-05
0.00528593
6.93643e-05
0.00528611
6.77295e-05
0.0052863
6.60786e-05
0.00528652
6.44137e-05
0.00528675
6.27374e-05
0.005287
6.1052e-05
0.00528726
5.936e-05
0.00528753
5.76636e-05
0.00528781
5.59653e-05
0.00528809
5.42674e-05
0.00528838
5.25716e-05
0.00528868
5.08803e-05
4.9196e-05
0.00530097
0.000102124
-0.00530258
0.00529944
0.000102237
0.005298
0.00010169
0.00529666
0.000100937
0.00529539
0.000100276
0.0052942
9.97066e-05
0.00529308
9.91536e-05
0.00529203
9.85676e-05
0.00529106
9.7928e-05
0.00529015
9.72284e-05
0.00528932
9.64679e-05
0.00528856
9.5647e-05
0.00528786
9.47669e-05
0.00528724
9.38288e-05
0.00528668
9.28339e-05
0.00528618
9.1784e-05
0.00528575
9.06808e-05
0.00528537
8.95259e-05
0.00528505
8.83213e-05
0.00528479
8.7069e-05
0.00528458
8.57711e-05
0.00528442
8.44301e-05
0.0052843
8.30483e-05
0.00528423
8.16281e-05
0.0052842
8.01717e-05
0.00528422
7.86814e-05
0.00528426
7.71595e-05
0.00528435
7.56088e-05
0.00528446
7.40318e-05
0.00528461
7.24313e-05
0.00528478
7.08095e-05
0.00528497
6.91689e-05
0.00528519
6.7512e-05
0.00528543
6.58411e-05
0.00528568
6.41586e-05
0.00528595
6.24666e-05
0.00528624
6.07676e-05
0.00528653
5.90638e-05
0.00528684
5.73576e-05
0.00528715
5.56514e-05
0.00528748
5.39471e-05
0.0052878
5.22467e-05
0.00528813
5.05521e-05
4.88661e-05
0.00529852
0.000103708
-0.0053001
0.00529702
0.000103734
0.00529562
0.000103091
0.00529431
0.000102248
0.00529308
0.000101505
0.00529193
0.000100858
0.00529085
0.00010023
0.00528985
9.95693e-05
0.00528892
9.88559e-05
0.00528807
9.80832e-05
0.00528728
9.72504e-05
0.00528657
9.63586e-05
0.00528593
9.54089e-05
0.00528536
9.44027e-05
0.00528485
9.33417e-05
0.0052844
9.22277e-05
0.00528402
9.10624e-05
0.0052837
8.98478e-05
0.00528344
8.85859e-05
0.00528323
8.72789e-05
0.00528307
8.59288e-05
0.00528296
8.45384e-05
0.0052829
8.31099e-05
0.00528288
8.16455e-05
0.00528291
8.01476e-05
0.00528297
7.86186e-05
0.00528307
7.70607e-05
0.0052832
7.54766e-05
0.00528336
7.38689e-05
0.00528355
7.22402e-05
0.00528377
7.05926e-05
0.00528401
6.89287e-05
0.00528427
6.72507e-05
0.00528455
6.55611e-05
0.00528485
6.38621e-05
0.00528516
6.21557e-05
0.00528548
6.04443e-05
0.00528582
5.87301e-05
0.00528616
5.70154e-05
0.00528651
5.53025e-05
0.00528686
5.35931e-05
0.00528722
5.18892e-05
0.00528758
5.01928e-05
4.85063e-05
0.00529596
0.000105259
-0.00529751
0.00529449
0.000105196
0.00529313
0.000104455
0.00529186
0.000103518
0.00529068
0.00010269
0.00528957
0.000101963
0.00528854
0.000101257
0.00528759
0.000100521
0.00528672
9.97319e-05
0.00528591
9.88847e-05
0.00528519
9.79787e-05
0.00528453
9.7015e-05
0.00528394
9.5995e-05
0.00528343
9.49203e-05
0.00528297
9.37927e-05
0.00528259
9.26143e-05
0.00528226
9.13869e-05
0.005282
9.01125e-05
0.00528179
8.87935e-05
0.00528164
8.7432e-05
0.00528154
8.60303e-05
0.00528148
8.4591e-05
0.00528148
8.31163e-05
0.00528151
8.16086e-05
0.00528159
8.007e-05
0.00528171
7.85031e-05
0.00528186
7.69101e-05
0.00528204
7.52937e-05
0.00528225
7.36565e-05
0.00528249
7.20007e-05
0.00528276
7.03285e-05
0.00528304
6.86424e-05
0.00528335
6.69448e-05
0.00528367
6.52378e-05
0.00528401
6.35235e-05
0.00528436
6.18041e-05
0.00528473
6.00816e-05
0.0052851
5.83583e-05
0.00528548
5.66365e-05
0.00528586
5.49181e-05
0.00528625
5.32049e-05
0.00528664
5.14989e-05
0.00528703
4.98018e-05
4.81162e-05
0.00529328
0.000106771
-0.00529479
0.00529186
0.000106617
0.00529054
0.000105774
0.00528931
0.000104742
0.00528818
0.000103826
0.00528713
0.000103017
0.00528615
0.000102231
0.00528526
0.000101417
0.00528444
0.000100551
0.00528369
9.96283e-05
0.00528302
9.86481e-05
0.00528243
9.76117e-05
0.0052819
9.65207e-05
0.00528144
9.5377e-05
0.00528105
9.41828e-05
0.00528073
9.29398e-05
0.00528047
9.16502e-05
0.00528026
9.03165e-05
0.00528011
8.89407e-05
0.00528002
8.75253e-05
0.00527998
8.60726e-05
0.00527998
8.45851e-05
0.00528004
8.30651e-05
0.00528013
8.15148e-05
0.00528026
7.99367e-05
0.00528043
7.83329e-05
0.00528064
7.6706e-05
0.00528087
7.50586e-05
0.00528114
7.3393e-05
0.00528143
7.17113e-05
0.00528174
7.00159e-05
0.00528207
6.83091e-05
0.00528242
6.65932e-05
0.00528279
6.48701e-05
0.00528317
6.31421e-05
0.00528357
6.14109e-05
0.00528397
5.96788e-05
0.00528438
5.79479e-05
0.00528479
5.62203e-05
0.00528521
5.44979e-05
0.00528564
5.27823e-05
0.00528606
5.10756e-05
0.00528648
4.93792e-05
4.76957e-05
0.00529048
0.000108239
-0.00529195
0.00528911
0.00010799
0.00528784
0.000107043
0.00528667
0.000105912
0.00528559
0.000104906
0.00528459
0.000104013
0.00528368
0.000103146
0.00528284
0.000102252
0.00528208
0.000101308
0.0052814
0.000100309
0.0052808
9.92535e-05
0.00528027
9.81437e-05
0.00527981
9.69814e-05
0.00527941
9.57687e-05
0.00527909
9.45075e-05
0.00527883
9.32001e-05
0.00527863
9.18488e-05
0.00527849
9.04561e-05
0.00527841
8.90242e-05
0.00527838
8.75556e-05
0.0052784
8.60528e-05
0.00527846
8.4518e-05
0.00527858
8.29536e-05
0.00527873
8.1362e-05
0.00527892
7.97453e-05
0.00527915
7.8106e-05
0.00527941
7.64466e-05
0.0052797
7.47695e-05
0.00528001
7.30768e-05
0.00528035
7.13708e-05
0.00528071
6.96536e-05
0.0052811
6.79276e-05
0.00528149
6.61948e-05
0.00528191
6.44573e-05
0.00528233
6.27169e-05
0.00528277
6.09756e-05
0.00528321
5.92354e-05
0.00528366
5.74985e-05
0.00528411
5.57665e-05
0.00528457
5.40415e-05
0.00528503
5.2325e-05
0.00528548
5.06189e-05
0.00528594
4.89246e-05
4.72445e-05
0.00528756
0.000109654
-0.00528898
0.00528624
0.000109308
0.00528503
0.000108255
0.00528392
0.000107023
0.0052829
0.000105925
0.00528197
0.000104945
0.00528112
0.000103996
0.00528035
0.000103021
0.00527966
0.000101998
0.00527905
0.000100921
0.00527851
9.97899e-05
0.00527805
9.86064e-05
0.00527766
9.73725e-05
0.00527734
9.60905e-05
0.00527708
9.47626e-05
0.00527689
9.33912e-05
0.00527676
9.19789e-05
0.00527669
9.05279e-05
0.00527667
8.90406e-05
0.00527671
8.75198e-05
0.00527679
8.59678e-05
0.00527692
8.43869e-05
0.0052771
8.27794e-05
0.00527731
8.11476e-05
0.00527756
7.94938e-05
0.00527785
7.78205e-05
0.00527817
7.613e-05
0.00527851
7.44247e-05
0.00527888
7.27066e-05
0.00527927
7.09778e-05
0.00527969
6.92406e-05
0.00528012
6.74969e-05
0.00528056
6.57489e-05
0.00528102
6.39985e-05
0.00528149
6.22474e-05
0.00528197
6.04976e-05
0.00528245
5.87508e-05
0.00528294
5.70095e-05
0.00528344
5.52747e-05
0.00528393
5.35486e-05
0.00528442
5.18328e-05
0.00528491
5.01288e-05
0.0052854
4.84378e-05
4.67625e-05
0.00528452
0.000111012
-0.00528587
0.00528326
0.000110565
0.00528211
0.000109402
0.00528107
0.000108067
0.00528012
0.000106876
0.00527925
0.000105808
0.00527848
0.000104775
0.00527778
0.000103717
0.00527716
0.000102614
0.00527662
0.000101459
0.00527616
0.000100252
0.00527577
9.89945e-05
0.00527546
9.7689e-05
0.00527521
9.63381e-05
0.00527503
9.4944e-05
0.00527491
9.35093e-05
0.00527485
9.20365e-05
0.00527485
9.05281e-05
0.00527491
8.89867e-05
0.00527501
8.74148e-05
0.00527517
8.58147e-05
0.00527536
8.41889e-05
0.0052756
8.25397e-05
0.00527588
8.08694e-05
0.00527619
7.91801e-05
0.00527654
7.74744e-05
0.00527692
7.57546e-05
0.00527732
7.40227e-05
0.00527774
7.22809e-05
0.00527819
7.05312e-05
0.00527866
6.87755e-05
0.00527914
6.70159e-05
0.00527963
6.52545e-05
0.00528014
6.34929e-05
0.00528065
6.17328e-05
0.00528117
5.99761e-05
0.0052817
5.82248e-05
0.00528223
5.64804e-05
0.00528276
5.47444e-05
0.00528329
5.30189e-05
0.00528382
5.13052e-05
0.00528434
4.96048e-05
0.00528486
4.79188e-05
4.62495e-05
0.00528135
0.000112302
-0.00528264
0.00528016
0.000111753
0.00527908
0.000110479
0.00527811
0.000109039
0.00527724
0.000107752
0.00527645
0.000106595
0.00527575
0.000105476
0.00527513
0.000104336
0.00527459
0.000103152
0.00527413
0.000101918
0.00527375
0.000100634
0.00527344
9.93029e-05
0.00527321
9.79262e-05
0.00527304
9.65068e-05
0.00527293
9.50471e-05
0.00527289
9.35499e-05
0.00527291
9.20177e-05
0.00527299
9.04531e-05
0.00527312
8.88588e-05
0.00527329
8.72371e-05
0.00527352
8.55905e-05
0.00527379
8.39214e-05
0.00527409
8.22323e-05
0.00527444
8.0525e-05
0.00527481
7.88021e-05
0.00527522
7.7066e-05
0.00527566
7.53186e-05
0.00527612
7.35619e-05
0.0052766
7.17983e-05
0.0052771
7.00296e-05
0.00527762
6.82574e-05
0.00527815
6.64838e-05
0.0052787
6.47107e-05
0.00527925
6.29396e-05
0.00527981
6.11724e-05
0.00528038
5.94109e-05
0.00528095
5.76566e-05
0.00528151
5.59108e-05
0.00528208
5.41756e-05
0.00528265
5.24522e-05
0.00528321
5.07422e-05
0.00528377
4.90469e-05
0.00528432
4.73674e-05
4.57055e-05
0.00527806
0.000113519
-0.00527927
0.00527694
0.000112865
0.00527595
0.000111477
0.00527505
0.000109931
0.00527426
0.000108546
0.00527356
0.000107299
0.00527294
0.000106093
0.0052724
0.00010487
0.00527195
0.000103604
0.00527158
0.000102291
0.00527128
0.000100931
0.00527106
9.95264e-05
0.00527091
9.8079e-05
0.00527082
9.65918e-05
0.0052708
9.50676e-05
0.00527084
9.3509e-05
0.00527094
9.19186e-05
0.00527109
9.02992e-05
0.0052713
8.86534e-05
0.00527155
8.69836e-05
0.00527185
8.52922e-05
0.00527219
8.35818e-05
0.00527257
8.18544e-05
0.00527298
8.01124e-05
0.00527343
7.83579e-05
0.0052739
7.65933e-05
0.0052744
7.48202e-05
0.00527492
7.30409e-05
0.00527546
7.12577e-05
0.00527602
6.94718e-05
0.00527659
6.76852e-05
0.00527717
6.58997e-05
0.00527777
6.41168e-05
0.00527837
6.23383e-05
0.00527897
6.05659e-05
0.00527958
5.88013e-05
0.00528019
5.70458e-05
0.0052808
5.53008e-05
0.00528141
5.35675e-05
0.00528202
5.18482e-05
0.00528262
5.01436e-05
0.00528321
4.84549e-05
0.00528379
4.67835e-05
4.51303e-05
0.00527463
0.000114653
-0.00527577
0.00527361
0.000113893
0.00527269
0.00011239
0.00527189
0.000110734
0.00527118
0.000109251
0.00527057
0.000107913
0.00527004
0.00010662
0.0052696
0.000105312
0.00526924
0.000103965
0.00526896
0.000102574
0.00526875
0.000101138
0.00526862
9.96597e-05
0.00526856
9.81424e-05
0.00526856
9.65885e-05
0.00526863
9.50009e-05
0.00526875
9.33821e-05
0.00526894
9.17351e-05
0.00526917
9.00627e-05
0.00526946
8.83672e-05
0.00526979
8.66512e-05
0.00527017
8.4917e-05
0.00527058
8.31671e-05
0.00527103
8.14038e-05
0.00527151
7.96293e-05
0.00527203
7.78455e-05
0.00527257
7.60544e-05
0.00527313
7.42581e-05
0.00527371
7.24584e-05
0.00527431
7.06576e-05
0.00527493
6.88568e-05
0.00527555
6.70579e-05
0.00527619
6.52625e-05
0.00527683
6.34721e-05
0.00527748
6.16883e-05
0.00527814
5.99127e-05
0.00527879
5.81469e-05
0.00527945
5.6392e-05
0.0052801
5.46499e-05
0.00528074
5.29197e-05
0.00528139
5.12069e-05
0.00528202
4.95091e-05
0.00528265
4.78288e-05
0.00528326
4.61673e-05
4.45239e-05
0.00527108
0.000115696
-0.00527212
0.00527015
0.000114827
0.00526933
0.000113207
0.00526862
0.000111442
0.00526801
0.00010986
0.0052675
0.00010843
0.00526707
0.000107049
0.00526672
0.000105657
0.00526646
0.000104229
0.00526627
0.000102758
0.00526616
0.000101247
0.00526613
9.96971e-05
0.00526616
9.81111e-05
0.00526625
9.64919e-05
0.00526641
9.48423e-05
0.00526663
9.31652e-05
0.0052669
9.14634e-05
0.00526722
8.97398e-05
0.0052676
8.79967e-05
0.00526801
8.62367e-05
0.00526846
8.44621e-05
0.00526896
8.2675e-05
0.00526948
8.08781e-05
0.00527004
7.90734e-05
0.00527062
7.72626e-05
0.00527123
7.54477e-05
0.00527186
7.36307e-05
0.0052725
7.1813e-05
0.00527316
6.99968e-05
0.00527383
6.81835e-05
0.00527452
6.63747e-05
0.00527521
6.45718e-05
0.0052759
6.2776e-05
0.0052766
6.0989e-05
0.0052773
5.92122e-05
0.005278
5.74474e-05
0.0052787
5.56951e-05
0.00527939
5.39569e-05
0.00528008
5.22336e-05
0.00528076
5.05273e-05
0.00528143
4.88387e-05
0.00528209
4.71684e-05
0.00528274
4.55187e-05
4.38867e-05
0.0052674
0.000116639
-0.00526834
0.00526657
0.00011566
0.00526585
0.000113922
0.00526525
0.000112046
0.00526474
0.000110364
0.00526433
0.000108841
0.00526401
0.000107373
0.00526377
0.000105897
0.00526361
0.000104388
0.00526353
0.00010284
0.00526352
0.000101254
0.00526358
9.96333e-05
0.00526372
9.79799e-05
0.00526391
9.6297e-05
0.00526417
9.45873e-05
0.00526448
9.28538e-05
0.00526484
9.10994e-05
0.00526525
8.93269e-05
0.00526571
8.75386e-05
0.00526621
8.57371e-05
0.00526675
8.39244e-05
0.00526732
8.21028e-05
0.00526792
8.0275e-05
0.00526856
7.84428e-05
0.00526921
7.66078e-05
0.00526989
7.47717e-05
0.00527058
7.29365e-05
0.00527129
7.11034e-05
0.00527201
6.92744e-05
0.00527275
6.7451e-05
0.00527349
6.56348e-05
0.00527423
6.38267e-05
0.00527498
6.20278e-05
0.00527573
6.02398e-05
0.00527648
5.84641e-05
0.00527722
5.67023e-05
0.00527796
5.49546e-05
0.0052787
5.32226e-05
0.00527942
5.15077e-05
0.00528014
4.98104e-05
0.00528084
4.81323e-05
0.00528154
4.64738e-05
0.00528222
4.48374e-05
4.32193e-05
0.00526359
-0.00526443
0.00526287
0.00526227
0.00526178
0.00526139
0.00526109
0.00526087
0.00526075
0.0052607
0.00526073
0.00526083
0.005261
0.00526123
0.00526153
0.00526189
0.0052623
0.00526276
0.00526326
0.00526381
0.0052644
0.00526502
0.00526568
0.00526636
0.00526707
0.0052678
0.00526854
0.00526931
0.00527008
0.00527087
0.00527166
0.00527246
0.00527326
0.00527406
0.00527486
0.00527565
0.00527644
0.00527723
0.005278
0.00527877
0.00527952
0.00528026
0.00528099
0.00528171
0.00539531
0.000123007
-0.000118408
0.0053908
0.000123397
-0.000118883
0.00538637
0.000123591
-0.000119168
0.00538205
0.000123598
-0.000119273
0.00537783
0.000123429
-0.000119207
0.00537371
0.000123096
-0.000118983
0.00536971
0.00012261
-0.000118611
0.00536583
0.000121983
-0.0001181
0.00536207
0.000121226
-0.000117461
0.00535842
0.000120347
-0.000116703
0.0053549
0.000119358
-0.000115836
0.0053515
0.000118268
-0.000114869
0.00534822
0.000117086
-0.000113809
0.00534507
0.000115822
-0.000112667
0.00534204
0.000114483
-0.00011145
0.00533912
0.000113077
-0.000110165
0.00533633
0.000111613
-0.00010882
0.00533365
0.000110097
-0.000107421
0.00533109
0.000108536
-0.000105976
0.00532865
0.000106938
-0.000104491
0.00532631
0.000105306
-0.000102971
0.00532409
0.000103648
-0.000101421
0.00532198
0.000101971
-9.98617e-05
0.00531995
0.00010022
-9.81891e-05
0.00531803
9.83306e-05
-9.64202e-05
9.65546e-05
-9.48355e-05
0.00539716
0.000127811
0.00539245
0.000128107
0.00538784
0.000128198
0.00538334
0.000128095
0.00537896
0.000127811
0.0053747
0.000127359
0.00537056
0.00012675
0.00536654
0.000125997
0.00536266
0.00012511
0.00535891
0.000124101
0.00535528
0.000122981
0.00535179
0.000121759
0.00534843
0.000120446
0.0053452
0.000119051
0.0053421
0.000117582
0.00533913
0.000116049
0.00533629
0.000114458
0.00533356
0.000112818
0.00533097
0.000111136
0.00532849
0.000109417
0.00532612
0.000107669
0.00532388
0.000105896
0.00532175
0.0001041
0.00531972
0.000102244
0.00531781
0.000100244
9.83658e-05
0.00539732
0.00013283
0.00539241
0.000133018
0.00538761
0.000132994
0.00538294
0.00013277
0.00537839
0.00013236
0.00537397
0.000131776
0.00536969
0.000131033
0.00536554
0.000130142
0.00536154
0.000129115
0.00535767
0.000127966
0.00535395
0.000126704
0.00535037
0.000125342
0.00534693
0.000123888
0.00534362
0.000122354
0.00534046
0.000120748
0.00533743
0.000119078
0.00533453
0.000117354
0.00533177
0.000115583
0.00532913
0.000113772
0.00532662
0.000111928
0.00532423
0.000110058
0.00532196
0.000108165
0.00531981
0.000106249
0.00531778
0.000104278
0.00531585
0.000102175
0.000100222
0.00539711
0.000138074
0.00539199
0.000138141
0.00538699
0.000137989
0.00538213
0.000137631
0.00537741
0.000137081
0.00537284
0.000136353
0.00536841
0.000135462
0.00536413
0.000134421
0.00536
0.000133244
0.00535602
0.000131942
0.0053522
0.000130529
0.00534852
0.000129015
0.005345
0.000127412
0.00534163
0.000125729
0.0053384
0.000123976
0.00533531
0.000122163
0.00533237
0.000120297
0.00532956
0.000118388
0.00532689
0.000116442
0.00532436
0.000114467
0.00532195
0.000112468
0.00531966
0.000110451
0.0053175
0.000108414
0.00531545
0.000106326
0.00531351
0.000104118
0.000102081
0.00539698
0.000143553
0.00539164
0.000143486
0.00538644
0.000143191
0.00538139
0.000142683
0.00537649
0.000141979
0.00537175
0.000141093
0.00536717
0.000140041
0.00536275
0.000138838
0.0053585
0.000137497
0.00535441
0.000136031
0.00535049
0.000134455
0.00534672
0.000132778
0.00534312
0.000131014
0.00533968
0.000129173
0.00533639
0.000127265
0.00533325
0.000125299
0.00533026
0.000123285
0.00532742
0.00012123
0.00532472
0.000119143
0.00532216
0.00011703
0.00531973
0.000114897
0.00531743
0.00011275
0.00531526
0.000110588
0.0053132
0.00010838
0.00531126
0.000106061
0.000103932
0.00539686
0.000149277
0.00539129
0.000149058
0.00538587
0.000148604
0.00538062
0.000147932
0.00537555
0.000147058
0.00537064
0.000145999
0.00536591
0.000144772
0.00536135
0.000143392
0.00535698
0.000141874
0.00535278
0.000140232
0.00534875
0.00013848
0.0053449
0.00013663
0.00534122
0.000134695
0.00533771
0.000132685
0.00533436
0.000130612
0.00533117
0.000128485
0.00532815
0.000126313
0.00532527
0.000124105
0.00532254
0.000121869
0.00531996
0.000119612
0.00531752
0.00011734
0.00531521
0.000115058
0.00531303
0.000112766
0.00531098
0.000110434
0.00530904
0.000108
0.000105771
0.00539663
0.000155255
0.00539083
0.000154866
0.00538519
0.000154236
0.00537974
0.000153382
0.00537448
0.000152322
0.0053694
0.000151074
0.00536452
0.000149656
0.00535983
0.000148085
0.00535533
0.000146376
0.00535101
0.000144544
0.00534689
0.000142603
0.00534295
0.000140568
0.0053392
0.00013845
0.00533562
0.000136261
0.00533222
0.000134013
0.00532899
0.000131715
0.00532593
0.000129378
0.00532302
0.000127009
0.00532027
0.000124617
0.00531768
0.000122209
0.00531523
0.000119791
0.00531291
0.000117369
0.00531074
0.000114943
0.00530869
0.000112483
0.00530676
0.000109927
0.000107593
0.00539625
0.000161494
0.0053902
0.000160917
0.00538435
0.000160092
0.00537869
0.000159038
0.00537324
0.000157774
0.00536799
0.00015632
0.00536295
0.000154695
0.00535812
0.000152916
0.0053535
0.000151001
0.00534908
0.000148964
0.00534486
0.000146822
0.00534084
0.000144588
0.00533701
0.000142276
0.00533338
0.000139897
0.00532992
0.000137464
0.00532665
0.000134986
0.00532356
0.000132474
0.00532063
0.000129936
0.00531787
0.00012738
0.00531526
0.000124815
0.00531281
0.000122246
0.0053105
0.000119679
0.00530833
0.000117113
0.00530629
0.00011452
0.00530438
0.000111838
0.000109395
0.00539569
0.000168004
0.00538939
0.000167218
0.0053833
0.000166177
0.00537744
0.000164903
0.00537179
0.000163416
0.00536638
0.000161737
0.00536118
0.000159887
0.00535622
0.000157884
0.00535147
0.000155747
0.00534694
0.000153491
0.00534263
0.000151133
0.00533853
0.000148688
0.00533464
0.000146169
0.00533095
0.000143589
0.00532745
0.00014096
0.00532415
0.000138292
0.00532102
0.000135596
0.00531808
0.000132881
0.0053153
0.000130154
0.0053127
0.000127425
0.00531024
0.000124698
0.00530794
0.00012198
0.00530578
0.00011927
0.00530377
0.000116538
0.00530188
0.000113727
0.00011117
0.00539491
0.000174793
0.00538836
0.000173775
0.00538204
0.000172496
0.00537596
0.00017098
0.00537013
0.000169249
0.00536454
0.000167326
0.00535919
0.000165233
0.00535409
0.000162988
0.00534922
0.000160611
0.00534459
0.000158121
0.00534019
0.000155533
0.00533602
0.000152862
0.00533207
0.000150123
0.00532832
0.00014733
0.00532479
0.000144494
0.00532145
0.000141627
0.00531831
0.000138738
0.00531536
0.000135837
0.00531258
0.000132932
0.00530997
0.000130031
0.00530753
0.000127141
0.00530524
0.000124266
0.00530311
0.000121407
0.00530111
0.000118533
0.00529925
0.000115588
0.000112913
0.00539391
0.000181868
0.00538709
0.000180593
0.00538053
0.000179053
0.00537424
0.000177272
0.00536821
0.000175275
0.00536245
0.000173087
0.00535696
0.000170729
0.00535172
0.000168224
0.00534674
0.000165591
0.00534201
0.000162849
0.00533753
0.000160015
0.00533329
0.000157105
0.00532928
0.000154133
0.00532549
0.000151115
0.00532193
0.000148061
0.00531857
0.000144983
0.00531542
0.000141892
0.00531246
0.000138797
0.00530968
0.000135706
0.00530709
0.000132628
0.00530466
0.000129568
0.0053024
0.000126531
0.00530028
0.000123517
0.00529832
0.000120497
0.0052965
0.000117413
0.000114618
0.00539265
0.000189238
0.00538556
0.000187679
0.00537876
0.00018585
0.00537226
0.00018378
0.00536604
0.000181493
0.00536011
0.000179017
0.00535446
0.000176375
0.0053491
0.000173589
0.00534401
0.000170681
0.00533919
0.00016767
0.00533463
0.000164573
0.00533033
0.000161409
0.00532627
0.000158191
0.00532245
0.000154934
0.00531886
0.000151651
0.00531549
0.000148353
0.00531233
0.000145051
0.00530937
0.000141753
0.00530661
0.000138469
0.00530403
0.000135206
0.00530163
0.00013197
0.00529939
0.000128766
0.00529732
0.000125593
0.00529539
0.000122422
0.00529361
0.000119197
0.000116279
0.00539111
0.000196908
0.00538375
0.000195036
0.00537671
0.000192891
0.00536998
0.000190503
0.00536358
0.000187902
0.00535748
0.000185114
0.00535169
0.000182164
0.0053462
0.000179077
0.00534101
0.000175874
0.0053361
0.000172576
0.00533147
0.000169201
0.00532712
0.000165767
0.00532302
0.000162289
0.00531917
0.000158781
0.00531557
0.000155257
0.00531219
0.000151728
0.00530904
0.000148205
0.00530609
0.000144697
0.00530335
0.000141212
0.0053008
0.000137757
0.00529843
0.00013434
0.00529623
0.000130963
0.0052942
0.000127627
0.00529232
0.000124301
0.00529058
0.000120931
0.000117887
0.00538925
0.000204885
0.00538162
0.000202667
0.00537434
0.000200175
0.0053674
0.000197442
0.0053608
0.000194498
0.00535454
0.000191373
0.00534861
0.000188093
0.00534301
0.000184682
0.00533772
0.000181164
0.00533274
0.00017756
0.00532805
0.000173889
0.00532365
0.000170169
0.00531952
0.000166417
0.00531565
0.000162645
0.00531204
0.000158869
0.00530867
0.000155098
0.00530553
0.000151345
0.00530261
0.000147617
0.0052999
0.000143924
0.00529739
0.000140272
0.00529506
0.000136667
0.00529291
0.000133114
0.00529092
0.00012961
0.0052891
0.000126126
0.00528742
0.000122608
0.000119435
0.00538706
0.000213173
0.00537915
0.000210574
0.00537162
0.000207701
0.00536447
0.000204591
0.00535769
0.000201277
0.00535128
0.000197789
0.00534522
0.000194153
0.0053395
0.000190395
0.00533413
0.000186541
0.00532908
0.000182611
0.00532434
0.000178626
0.0053199
0.000174605
0.00531575
0.000170563
0.00531188
0.000166516
0.00530828
0.000162475
0.00530492
0.000158452
0.00530181
0.000154459
0.00529892
0.000150504
0.00529625
0.000146596
0.00529378
0.00014274