/*--------------------------------*- C++ -*----------------------------------*\
| =========                 |                                                 |
| \\      /  F ield         | OpenFOAM: The Open Source CFD Toolbox           |
|  \\    /   O peration     | Version:  2412                                  |
|   \\  /    A nd           | Website:  www.openfoam.com                      |
|    \\/     M anipulation  |                                                 |
\*---------------------------------------------------------------------------*/
FoamFile
{
    version     2.0;
    format      ascii;
    arch        "LSB;label=32;scalar=64";
    class       volVectorField;
    location    "17";
    object      U;
}
// * * * * * * * * * * * * * * * * * * * * * * * * * * * * * * * * * * * * * //

dimensions      [0 1 -1 0 0 0 0];

internalField   nonuniform List<vector> 
5285
(
(0.10204 0.00463828 0)
(0.101926 0.0045837 0)
(0.101813 0.00452609 0)
(0.101703 0.0044655 0)
(0.101595 0.004402 0)
(0.10149 0.00433567 0)
(0.101387 0.00426661 0)
(0.101287 0.00419494 0)
(0.10119 0.00412079 0)
(0.101096 0.0040443 0)
(0.101005 0.00396561 0)
(0.100917 0.0038849 0)
(0.100832 0.00380234 0)
(0.100751 0.0037181 0)
(0.100674 0.00363237 0)
(0.100599 0.00354535 0)
(0.100529 0.00345722 0)
(0.100462 0.00336819 0)
(0.100398 0.00327844 0)
(0.100338 0.00318816 0)
(0.100282 0.00309755 0)
(0.100229 0.00300679 0)
(0.10018 0.00291605 0)
(0.100134 0.00282551 0)
(0.100092 0.00273533 0)
(0.100053 0.00264567 0)
(0.100017 0.00255669 0)
(0.0999849 0.00246855 0)
(0.0999557 0.00238137 0)
(0.0999295 0.00229528 0)
(0.0999063 0.00221041 0)
(0.0998859 0.00212684 0)
(0.0998682 0.00204466 0)
(0.099853 0.00196392 0)
(0.0998403 0.00188467 0)
(0.0998298 0.00180696 0)
(0.0998215 0.00173081 0)
(0.0998151 0.00165627 0)
(0.0998105 0.00158337 0)
(0.0998076 0.00151215 0)
(0.0998062 0.00144266 0)
(0.0998062 0.00137495 0)
(0.0998074 0.00130904 0)
(0.0998097 0.001245 0)
(0.101984 0.00476115 0)
(0.101867 0.00470206 0)
(0.101753 0.00463988 0)
(0.10164 0.0045747 0)
(0.101531 0.0045066 0)
(0.101424 0.00443568 0)
(0.101319 0.00436203 0)
(0.101218 0.00428579 0)
(0.10112 0.00420711 0)
(0.101025 0.00412613 0)
(0.100934 0.00404301 0)
(0.100846 0.00395794 0)
(0.100761 0.00387109 0)
(0.10068 0.00378265 0)
(0.100603 0.00369283 0)
(0.100529 0.0036018 0)
(0.100459 0.00350979 0)
(0.100393 0.00341698 0)
(0.10033 0.00332359 0)
(0.100272 0.0032298 0)
(0.100216 0.0031358 0)
(0.100165 0.00304179 0)
(0.100117 0.00294795 0)
(0.100073 0.00285444 0)
(0.100032 0.00276143 0)
(0.0999946 0.0026691 0)
(0.0999606 0.00257758 0)
(0.0999299 0.00248704 0)
(0.0999025 0.00239761 0)
(0.0998781 0.00230942 0)
(0.0998567 0.00222258 0)
(0.0998381 0.0021372 0)
(0.0998222 0.00205334 0)
(0.0998089 0.00197107 0)
(0.099798 0.00189043 0)
(0.0997894 0.00181145 0)
(0.0997828 0.00173416 0)
(0.0997782 0.00165861 0)
(0.0997754 0.00158481 0)
(0.0997742 0.0015128 0)
(0.0997744 0.00144261 0)
(0.0997761 0.00137429 0)
(0.0997789 0.00130787 0)
(0.0997828 0.00124338 0)
(0.101924 0.00488677 0)
(0.101804 0.00482285 0)
(0.101687 0.00475583 0)
(0.101573 0.00468579 0)
(0.101462 0.00461282 0)
(0.101353 0.00453704 0)
(0.101248 0.00445856 0)
(0.101145 0.00437753 0)
(0.101047 0.0042941 0)
(0.100951 0.00420842 0)
(0.100859 0.00412069 0)
(0.100771 0.00403107 0)
(0.100687 0.00393977 0)
(0.100606 0.00384699 0)
(0.100529 0.00375292 0)
(0.100456 0.00365777 0)
(0.100387 0.00356176 0)
(0.100321 0.00346509 0)
(0.10026 0.00336796 0)
(0.100202 0.00327058 0)
(0.100148 0.00317314 0)
(0.100098 0.00307583 0)
(0.100052 0.00297883 0)
(0.100009 0.00288232 0)
(0.0999702 0.00278647 0)
(0.0999346 0.00269143 0)
(0.0999024 0.00259736 0)
(0.0998736 0.00250442 0)
(0.099848 0.00241274 0)
(0.0998255 0.00232245 0)
(0.099806 0.00223367 0)
(0.0997894 0.00214648 0)
(0.0997754 0.00206097 0)
(0.099764 0.00197719 0)
(0.099755 0.00189518 0)
(0.0997482 0.00181497 0)
(0.0997435 0.00173658 0)
(0.0997408 0.00166004 0)
(0.0997397 0.00158538 0)
(0.0997403 0.00151261 0)
(0.0997423 0.00144177 0)
(0.0997456 0.00137288 0)
(0.09975 0.00130597 0)
(0.0997555 0.00124107 0)
(0.101858 0.00501504 0)
(0.101736 0.00494601 0)
(0.101617 0.00487384 0)
(0.101501 0.00479866 0)
(0.101388 0.00472056 0)
(0.101278 0.00463966 0)
(0.101171 0.0045561 0)
(0.101068 0.00447003 0)
(0.100969 0.00438163 0)
(0.100873 0.00429105 0)
(0.100781 0.0041985 0)
(0.100693 0.00410417 0)
(0.100609 0.00400826 0)
(0.100528 0.00391097 0)
(0.100452 0.00381253 0)
(0.10038 0.00371314 0)
(0.100311 0.00361302 0)
(0.100247 0.00351238 0)
(0.100187 0.00341144 0)
(0.100131 0.0033104 0)
(0.100078 0.00320945 0)
(0.10003 0.00310879 0)
(0.099985 0.00300861 0)
(0.099944 0.00290906 0)
(0.0999067 0.00281034 0)
(0.099873 0.00271258 0)
(0.0998428 0.00261596 0)
(0.0998159 0.00252062 0)
(0.0997923 0.0024267 0)
(0.0997718 0.00233433 0)
(0.0997543 0.00224361 0)
(0.0997397 0.00215465 0)
(0.0997277 0.00206751 0)
(0.0997183 0.00198225 0)
(0.0997113 0.0018989 0)
(0.0997065 0.00181749 0)
(0.0997037 0.00173804 0)
(0.0997028 0.00166055 0)
(0.0997036 0.00158506 0)
(0.099706 0.00151157 0)
(0.0997097 0.0014401 0)
(0.0997147 0.00137068 0)
(0.0997208 0.00130332 0)
(0.0997279 0.00123806 0)
(0.101787 0.00514592 0)
(0.101662 0.00507145 0)
(0.101541 0.00499384 0)
(0.101424 0.00491321 0)
(0.101309 0.00482969 0)
(0.101198 0.0047434 0)
(0.10109 0.00465451 0)
(0.100986 0.00456317 0)
(0.100887 0.00446956 0)
(0.10079 0.00437388 0)
(0.100698 0.00427632 0)
(0.10061 0.00417709 0)
(0.100527 0.0040764 0)
(0.100447 0.00397446 0)
(0.100371 0.00387151 0)
(0.1003 0.00376776 0)
(0.100233 0.00366343 0)
(0.10017 0.00355874 0)
(0.100111 0.0034539 0)
(0.100056 0.00334913 0)
(0.100006 0.00324463 0)
(0.0999588 0.00314058 0)
(0.0999159 0.00303717 0)
(0.0998769 0.00293457 0)
(0.0998416 0.00283296 0)
(0.0998099 0.00273248 0)
(0.0997817 0.00263331 0)
(0.0997569 0.00253558 0)
(0.0997354 0.00243943 0)
(0.099717 0.00234498 0)
(0.0997016 0.00225236 0)
(0.0996891 0.00216165 0)
(0.0996792 0.00207291 0)
(0.0996719 0.0019862 0)
(0.0996669 0.00190155 0)
(0.0996641 0.00181898 0)
(0.0996633 0.00173849 0)
(0.0996643 0.00166011 0)
(0.099667 0.00158382 0)
(0.0996712 0.00150965 0)
(0.0996768 0.0014376 0)
(0.0996835 0.00136769 0)
(0.0996913 0.00129993 0)
(0.0997 0.00123433 0)
(0.101709 0.00527928 0)
(0.101583 0.00519906 0)
(0.10146 0.00511568 0)
(0.101341 0.00502931 0)
(0.101225 0.00494008 0)
(0.101113 0.00484814 0)
(0.101004 0.00475364 0)
(0.1009 0.00465679 0)
(0.1008 0.00455775 0)
(0.100703 0.00445675 0)
(0.100612 0.00435398 0)
(0.100524 0.00424967 0)
(0.100441 0.00414404 0)
(0.100362 0.00403731 0)
(0.100287 0.00392972 0)
(0.100217 0.00382149 0)
(0.100151 0.00371285 0)
(0.10009 0.00360402 0)
(0.100033 0.00349522 0)
(0.0999795 0.00338666 0)
(0.0999306 0.00327854 0)
(0.0998857 0.00317107 0)
(0.0998448 0.00306441 0)
(0.0998078 0.00295874 0)
(0.0997746 0.00285423 0)
(0.0997451 0.00275104 0)
(0.0997191 0.00264931 0)
(0.0996965 0.0025492 0)
(0.0996772 0.00245084 0)
(0.099661 0.00235436 0)
(0.0996479 0.00225985 0)
(0.0996375 0.00216742 0)
(0.0996299 0.00207712 0)
(0.0996247 0.00198901 0)
(0.0996218 0.0019031 0)
(0.0996211 0.0018194 0)
(0.0996223 0.00173793 0)
(0.0996254 0.00165868 0)
(0.09963 0.00158165 0)
(0.0996361 0.00150684 0)
(0.0996435 0.00143426 0)
(0.099652 0.0013639 0)
(0.0996615 0.00129577 0)
(0.0996718 0.00122988 0)
(0.101626 0.00541502 0)
(0.101498 0.00532869 0)
(0.101373 0.00523924 0)
(0.101252 0.00514681 0)
(0.101135 0.00505158 0)
(0.101022 0.00495369 0)
(0.100913 0.00485334 0)
(0.100808 0.00475071 0)
(0.100708 0.00464603 0)
(0.100612 0.00453949 0)
(0.10052 0.00443132 0)
(0.100433 0.00432176 0)
(0.100351 0.00421102 0)
(0.100273 0.00409936 0)
(0.1002 0.003987 0)
(0.100131 0.00387418 0)
(0.100067 0.00376113 0)
(0.100007 0.00364808 0)
(0.0999512 0.00353525 0)
(0.0999 0.00342285 0)
(0.0998531 0.00331108 0)
(0.0998103 0.00320014 0)
(0.0997716 0.00309021 0)
(0.0997368 0.00298147 0)
(0.0997059 0.00287406 0)
(0.0996786 0.00276815 0)
(0.099655 0.00266389 0)
(0.0996347 0.00256142 0)
(0.0996178 0.00246088 0)
(0.099604 0.00236238 0)
(0.0995931 0.00226603 0)
(0.0995851 0.00217192 0)
(0.0995797 0.0020801 0)
(0.0995768 0.00199062 0)
(0.0995761 0.00190349 0)
(0.0995775 0.00181872 0)
(0.0995809 0.00173631 0)
(0.0995859 0.00165624 0)
(0.0995926 0.00157851 0)
(0.0996006 0.00150311 0)
(0.0996098 0.00143004 0)
(0.0996201 0.00135928 0)
(0.0996314 0.00129083 0)
(0.0996434 0.00122469 0)
(0.101536 0.00555297 0)
(0.101406 0.00546021 0)
(0.10128 0.00536433 0)
(0.101157 0.00526554 0)
(0.101039 0.00516399 0)
(0.100925 0.00505988 0)
(0.100816 0.0049534 0)
(0.100711 0.00484476 0)
(0.100611 0.00473419 0)
(0.100515 0.0046219 0)
(0.100424 0.00450815 0)
(0.100338 0.00439315 0)
(0.100257 0.00427716 0)
(0.10018 0.00416042 0)
(0.100108 0.00404317 0)
(0.100041 0.00392565 0)
(0.0999784 0.00380811 0)
(0.0999204 0.00369076 0)
(0.0998669 0.00357384 0)
(0.0998179 0.00345755 0)
(0.0997732 0.00334211 0)
(0.0997327 0.00322769 0)
(0.0996963 0.00311448 0)
(0.0996639 0.00300264 0)
(0.0996354 0.00289234 0)
(0.0996106 0.00278373 0)
(0.0995894 0.00267696 0)
(0.0995716 0.00257216 0)
(0.0995571 0.00246946 0)
(0.0995458 0.00236899 0)
(0.0995374 0.00227083 0)
(0.0995318 0.00217508 0)
(0.0995287 0.00208179 0)
(0.0995281 0.00199099 0)
(0.0995297 0.0019027 0)
(0.0995334 0.0018169 0)
(0.0995389 0.0017336 0)
(0.0995461 0.00165277 0)
(0.0995547 0.0015744 0)
(0.0995647 0.00149845 0)
(0.0995759 0.00142494 0)
(0.099588 0.00135382 0)
(0.0996011 0.0012851 0)
(0.0996148 0.00121876 0)
(0.101439 0.00569298 0)
(0.101307 0.00559341 0)
(0.101179 0.00549078 0)
(0.101056 0.00538529 0)
(0.100937 0.00527713 0)
(0.100823 0.0051665 0)
(0.100713 0.00505362 0)
(0.100609 0.00493872 0)
(0.100509 0.00482203 0)
(0.100414 0.00470379 0)
(0.100324 0.00458425 0)
(0.100238 0.00446365 0)
(0.100158 0.00434226 0)
(0.100083 0.00422031 0)
(0.100013 0.00409805 0)
(0.0999475 0.00397574 0)
(0.0998869 0.00385362 0)
(0.099831 0.00373191 0)
(0.0997797 0.00361085 0)
(0.099733 0.00349064 0)
(0.0996907 0.00337148 0)
(0.0996526 0.00325356 0)
(0.0996188 0.00313707 0)
(0.099589 0.00302215 0)
(0.099563 0.00290898 0)
(0.0995409 0.00279769 0)
(0.0995223 0.00268842 0)
(0.0995071 0.00258132 0)
(0.0994953 0.00247651 0)
(0.0994865 0.0023741 0)
(0.0994806 0.00227419 0)
(0.0994775 0.00217686 0)
(0.099477 0.00208214 0)
(0.0994788 0.00199008 0)
(0.0994827 0.00190068 0)
(0.0994887 0.00181392 0)
(0.0994964 0.00172978 0)
(0.0995058 0.00164824 0)
(0.0995165 0.00156927 0)
(0.0995285 0.00149284 0)
(0.0995416 0.00141893 0)
(0.0995557 0.00134751 0)
(0.0995705 0.00127856 0)
(0.099586 0.00121206 0)
(0.101334 0.00583484 0)
(0.101201 0.0057281 0)
(0.101072 0.00561836 0)
(0.100948 0.00550584 0)
(0.100828 0.00539076 0)
(0.100714 0.00527332 0)
(0.100605 0.00515378 0)
(0.1005 0.00503236 0)
(0.100401 0.00490933 0)
(0.100307 0.00478492 0)
(0.100218 0.00465941 0)
(0.100134 0.00453305 0)
(0.100055 0.0044061 0)
(0.099982 0.00427881 0)
(0.0999137 0.00415145 0)
(0.0998504 0.00402426 0)
(0.099792 0.00389748 0)
(0.0997384 0.00377136 0)
(0.0996896 0.00364611 0)
(0.0996454 0.00352194 0)
(0.0996056 0.00339906 0)
(0.0995703 0.00327764 0)
(0.0995391 0.00315786 0)
(0.0995121 0.00303988 0)
(0.0994889 0.00292385 0)
(0.0994695 0.00280991 0)
(0.0994537 0.0026982 0)
(0.0994413 0.00258884 0)
(0.0994322 0.00248196 0)
(0.0994261 0.00237767 0)
(0.0994229 0.00227605 0)
(0.0994225 0.00217719 0)
(0.0994245 0.00208111 0)
(0.0994288 0.00198784 0)
(0.0994352 0.00189739 0)
(0.0994435 0.00180972 0)
(0.0994535 0.0017248 0)
(0.0994651 0.00164261 0)
(0.099478 0.00156311 0)
(0.0994921 0.00148625 0)
(0.0995072 0.001412 0)
(0.0995231 0.00134033 0)
(0.0995398 0.0012712 0)
(0.0995571 0.0012046 0)
(0.101222 0.00597832 0)
(0.101087 0.00586404 0)
(0.100957 0.00574683 0)
(0.100833 0.00562694 0)
(0.100713 0.00550462 0)
(0.100599 0.00538009 0)
(0.100489 0.0052536 0)
(0.100386 0.00512543 0)
(0.100287 0.00499582 0)
(0.100194 0.00486506 0)
(0.100107 0.0047334 0)
(0.100025 0.00460111 0)
(0.099948 0.00446846 0)
(0.0998766 0.00433572 0)
(0.0998104 0.00420315 0)
(0.0997494 0.004071 0)
(0.0996935 0.00393951 0)
(0.0996425 0.00380892 0)
(0.0995964 0.00367945 0)
(0.0995549 0.00355131 0)
(0.0995181 0.00342469 0)
(0.0994856 0.00329978 0)
(0.0994573 0.00317673 0)
(0.0994332 0.00305571 0)
(0.099413 0.00293685 0)
(0.0993965 0.0028203 0)
(0.0993837 0.00270618 0)
(0.0993742 0.00259461 0)
(0.0993679 0.00248572 0)
(0.0993647 0.0023796 0)
(0.0993643 0.00227634 0)
(0.0993665 0.00217601 0)
(0.0993712 0.00207863 0)
(0.0993781 0.00198423 0)
(0.099387 0.00189278 0)
(0.0993978 0.00180427 0)
(0.0994102 0.00171865 0)
(0.099424 0.00163587 0)
(0.0994391 0.00155589 0)
(0.0994553 0.00147865 0)
(0.0994725 0.00140413 0)
(0.0994904 0.00133226 0)
(0.0995089 0.00126301 0)
(0.099528 0.00119635 0)
(0.101101 0.00612317 0)
(0.100965 0.00600096 0)
(0.100835 0.00587591 0)
(0.10071 0.00574833 0)
(0.10059 0.00561844 0)
(0.100476 0.00548652 0)
(0.100368 0.00535283 0)
(0.100265 0.00521765 0)
(0.100168 0.00508125 0)
(0.100076 0.00494392 0)
(0.0999905 0.00480594 0)
(0.0999104 0.00466757 0)
(0.0998358 0.00452911 0)
(0.0997667 0.00439081 0)
(0.099703 0.00425293 0)
(0.0996446 0.00411575 0)
(0.0995915 0.00397949 0)
(0.0995433 0.0038444 0)
(0.0995001 0.00371069 0)
(0.0994617 0.00357857 0)
(0.0994279 0.00344823 0)
(0.0993985 0.00331983 0)
(0.0993734 0.00319354 0)
(0.0993524 0.00306951 0)
(0.0993353 0.00294787 0)
(0.099322 0.00282875 0)
(0.0993122 0.00271228 0)
(0.0993058 0.00259856 0)
(0.0993025 0.00248772 0)
(0.0993023 0.00237984 0)
(0.0993048 0.002275 0)
(0.0993098 0.00217327 0)
(0.0993173 0.00207466 0)
(0.0993269 0.00197919 0)
(0.0993384 0.00188683 0)
(0.0993517 0.00179754 0)
(0.0993665 0.00171128 0)
(0.0993827 0.00162798 0)
(0.0994 0.00154759 0)
(0.0994184 0.00147004 0)
(0.0994376 0.00139529 0)
(0.0994575 0.00132329 0)
(0.0994779 0.00125398 0)
(0.0994988 0.00118731 0)
(0.100971 0.0062691 0)
(0.100835 0.00613856 0)
(0.100704 0.00600532 0)
(0.100579 0.00586968 0)
(0.10046 0.00573192 0)
(0.100347 0.00559231 0)
(0.100239 0.00545115 0)
(0.100138 0.00530872 0)
(0.100042 0.00516532 0)
(0.0999525 0.00502124 0)
(0.0998688 0.00487676 0)
(0.0997909 0.00473218 0)
(0.0997188 0.00458777 0)
(0.0996523 0.00444381 0)
(0.0995914 0.00430056 0)
(0.099536 0.00415829 0)
(0.0994858 0.00401723 0)
(0.0994408 0.00387761 0)
(0.0994008 0.00373965 0)
(0.0993657 0.00360355 0)
(0.0993351 0.0034695 0)
(0.0993091 0.00333765 0)
(0.0992873 0.00320815 0)
(0.0992697 0.00308116 0)
(0.0992559 0.00295679 0)
(0.0992458 0.00283516 0)
(0.0992393 0.00271639 0)
(0.0992361 0.00260059 0)
(0.099236 0.00248786 0)
(0.0992388 0.00237829 0)
(0.0992444 0.00227196 0)
(0.0992524 0.0021689 0)
(0.0992627 0.00206914 0)
(0.099275 0.00197268 0)
(0.0992892 0.00187948 0)
(0.0993051 0.00178949 0)
(0.0993224 0.00170266 0)
(0.099341 0.00161891 0)
(0.0993607 0.00153818 0)
(0.0993812 0.00146039 0)
(0.0994026 0.00138549 0)
(0.0994245 0.0013134 0)
(0.0994468 0.00124408 0)
(0.0994696 0.00117748 0)
(0.100833 0.0064158 0)
(0.100696 0.00627652 0)
(0.100565 0.0061347 0)
(0.100441 0.00599066 0)
(0.100322 0.00584471 0)
(0.10021 0.00569712 0)
(0.100104 0.00554822 0)
(0.100004 0.00539832 0)
(0.0999103 0.0052477 0)
(0.0998228 0.00509669 0)
(0.0997415 0.00494557 0)
(0.0996662 0.00479464 0)
(0.0995969 0.00464418 0)
(0.0995334 0.00449448 0)
(0.0994756 0.00434579 0)
(0.0994234 0.00419838 0)
(0.0993766 0.00405249 0)
(0.099335 0.00390833 0)
(0.0992985 0.00376613 0)
(0.0992668 0.00362607 0)
(0.0992399 0.00348834 0)
(0.0992174 0.00335307 0)
(0.0991991 0.00322042 0)
(0.099185 0.00309052 0)
(0.0991748 0.00296348 0)
(0.0991682 0.00283941 0)
(0.0991651 0.00271842 0)
(0.0991652 0.00260061 0)
(0.0991684 0.00248608 0)
(0.0991745 0.0023749 0)
(0.0991832 0.00226715 0)
(0.0991942 0.00216285 0)
(0.0992075 0.00206202 0)
(0.0992227 0.00196465 0)
(0.0992397 0.00187069 0)
(0.0992582 0.00178009 0)
(0.0992781 0.00169276 0)
(0.0992991 0.00160864 0)
(0.0993211 0.00152764 0)
(0.099344 0.00144968 0)
(0.0993674 0.00137469 0)
(0.0993914 0.00130259 0)
(0.0994157 0.00123332 0)
(0.0994403 0.00116682 0)
(0.100684 0.00656289 0)
(0.100548 0.00641447 0)
(0.100417 0.00626369 0)
(0.100293 0.00611091 0)
(0.100176 0.00595644 0)
(0.100065 0.0058006 0)
(0.0999609 0.00564371 0)
(0.0998631 0.00548609 0)
(0.0997718 0.00532807 0)
(0.099687 0.00516995 0)
(0.0996084 0.00501204 0)
(0.0995362 0.00485465 0)
(0.09947 0.00469805 0)
(0.0994099 0.00454253 0)
(0.0993555 0.00438836 0)
(0.0993069 0.00423578 0)
(0.0992637 0.00408504 0)
(0.0992258 0.00393636 0)
(0.0991931 0.00378993 0)
(0.0991652 0.00364595 0)
(0.099142 0.00350457 0)
(0.0991233 0.00336595 0)
(0.0991089 0.00323021 0)
(0.0990985 0.00309746 0)
(0.099092 0.00296782 0)
(0.0990891 0.00284139 0)
(0.0990895 0.00271827 0)
(0.0990932 0.00259854 0)
(0.0990998 0.00248229 0)
(0.0991092 0.00236959 0)
(0.0991212 0.0022605 0)
(0.0991354 0.00215506 0)
(0.0991517 0.00205325 0)
(0.0991699 0.00195506 0)
(0.0991897 0.00186043 0)
(0.099211 0.00176929 0)
(0.0992335 0.00168156 0)
(0.099257 0.00159714 0)
(0.0992815 0.00151594 0)
(0.0993066 0.00143788 0)
(0.0993322 0.00136287 0)
(0.0993583 0.00129083 0)
(0.0993846 0.00122168 0)
(0.0994111 0.00115535 0)
(0.100526 0.00670998 0)
(0.10039 0.006552 0)
(0.10026 0.00639188 0)
(0.100137 0.00623001 0)
(0.100022 0.00606671 0)
(0.0999127 0.00590233 0)
(0.0998106 0.0057372 0)
(0.0997153 0.00557166 0)
(0.0996268 0.00540604 0)
(0.0995449 0.00524067 0)
(0.0994696 0.00507585 0)
(0.0994007 0.00491188 0)
(0.0993381 0.00474907 0)
(0.0992817 0.00458768 0)
(0.0992311 0.00442799 0)
(0.0991864 0.00427024 0)
(0.0991472 0.00411466 0)
(0.0991134 0.00396146 0)
(0.0990847 0.00381085 0)
(0.0990609 0.00366299 0)
(0.0990418 0.00351803 0)
(0.0990271 0.00337611 0)
(0.0990167 0.00323735 0)
(0.0990102 0.00310185 0)
(0.0990076 0.0029697 0)
(0.0990085 0.002841 0)
(0.0990127 0.00271583 0)
(0.0990201 0.00259427 0)
(0.0990303 0.0024764 0)
(0.0990432 0.00236228 0)
(0.0990585 0.00225196 0)
(0.099076 0.00214546 0)
(0.0990955 0.00204277 0)
(0.0991167 0.00194385 0)
(0.0991394 0.00184864 0)
(0.0991635 0.00175706 0)
(0.0991887 0.001669 0)
(0.0992148 0.00158438 0)
(0.0992417 0.00150307 0)
(0.0992691 0.00142499 0)
(0.099297 0.00135003 0)
(0.0993252 0.00127811 0)
(0.0993535 0.00120914 0)
(0.0993819 0.00114305 0)
(0.100357 0.00685663 0)
(0.100222 0.00668867 0)
(0.100093 0.00651884 0)
(0.0999724 0.00634752 0)
(0.0998586 0.0061751 0)
(0.099752 0.0060019 0)
(0.0996526 0.00582829 0)
(0.0995602 0.00565462 0)
(0.0994749 0.00548124 0)
(0.0993965 0.00530846 0)
(0.0993248 0.00513662 0)
(0.0992597 0.004966 0)
(0.0992011 0.00479691 0)
(0.0991488 0.00462962 0)
(0.0991025 0.0044644 0)
(0.099062 0.00430147 0)
(0.0990271 0.00414108 0)
(0.0989976 0.00398342 0)
(0.0989733 0.00382867 0)
(0.0989538 0.003677 0)
(0.098939 0.00352853 0)
(0.0989287 0.00338341 0)
(0.0989225 0.00324171 0)
(0.0989202 0.00310355 0)
(0.0989217 0.00296899 0)
(0.0989266 0.00283812 0)
(0.0989347 0.002711 0)
(0.0989459 0.00258772 0)
(0.0989599 0.00246833 0)
(0.0989763 0.0023529 0)
(0.0989951 0.00224145 0)
(0.099016 0.002134 0)
(0.0990388 0.00203053 0)
(0.0990631 0.00193099 0)
(0.0990889 0.0018353 0)
(0.0991158 0.00174337 0)
(0.0991438 0.00165508 0)
(0.0991725 0.00157033 0)
(0.0992019 0.001489 0)
(0.0992317 0.00141098 0)
(0.0992618 0.00133615 0)
(0.0992921 0.00126443 0)
(0.0993225 0.00119571 0)
(0.0993528 0.00112991 0)
(0.100177 0.00700235 0)
(0.100043 0.006824 0)
(0.0999167 0.00664406 0)
(0.0997979 0.00646298 0)
(0.0996866 0.00628111 0)
(0.0995829 0.00609884 0)
(0.0994866 0.00591653 0)
(0.0993977 0.00573455 0)
(0.0993161 0.00555324 0)
(0.0992416 0.00537294 0)
(0.099174 0.00519397 0)
(0.0991133 0.00501664 0)
(0.099059 0.00484124 0)
(0.0990112 0.00466803 0)
(0.0989695 0.00449728 0)
(0.0989336 0.00432922 0)
(0.0989034 0.00416405 0)
(0.0988786 0.00400198 0)
(0.0988589 0.00384317 0)
(0.0988441 0.00368777 0)
(0.0988339 0.00353589 0)
(0.0988281 0.00338765 0)
(0.0988264 0.00324314 0)
(0.0988285 0.00310242 0)
(0.0988343 0.00296556 0)
(0.0988434 0.00283263 0)
(0.0988556 0.00270369 0)
(0.0988708 0.0025788 0)
(0.0988886 0.00245801 0)
(0.0989088 0.00234137 0)
(0.0989312 0.00222891 0)
(0.0989556 0.00212062 0)
(0.0989817 0.00201648 0)
(0.0990092 0.00191642 0)
(0.0990381 0.00182035 0)
(0.099068 0.00172817 0)
(0.0990987 0.00163976 0)
(0.0991301 0.00155498 0)
(0.099162 0.00147371 0)
(0.0991943 0.00139583 0)
(0.0992267 0.00132122 0)
(0.0992592 0.00124976 0)
(0.0992916 0.00118136 0)
(0.0993238 0.00111592 0)
(0.0999858 0.0071466 0)
(0.0998537 0.00695743 0)
(0.0997297 0.00676702 0)
(0.0996136 0.00657583 0)
(0.0995054 0.00638424 0)
(0.0994051 0.00619265 0)
(0.0993126 0.00600143 0)
(0.0992277 0.00581096 0)
(0.0991503 0.00562159 0)
(0.0990802 0.00543367 0)
(0.0990172 0.00524751 0)
(0.0989612 0.00506342 0)
(0.0989118 0.00488169 0)
(0.0988689 0.00470257 0)
(0.0988322 0.00452633 0)
(0.0988014 0.00435317 0)
(0.0987762 0.0041833 0)
(0.0987564 0.0040169 0)
(0.0987417 0.00385412 0)
(0.0987319 0.00369509 0)
(0.0987266 0.00353992 0)
(0.0987255 0.00338869 0)
(0.0987285 0.00324147 0)
(0.0987352 0.00309832 0)
(0.0987455 0.00295929 0)
(0.098759 0.00282443 0)
(0.0987755 0.00269379 0)
(0.0987948 0.00256741 0)
(0.0988166 0.00244535 0)
(0.0988407 0.00232763 0)
(0.0988668 0.00221428 0)
(0.0988948 0.00210527 0)
(0.0989243 0.00200057 0)
(0.0989551 0.00190011 0)
(0.0989871 0.00180377 0)
(0.09902 0.00171145 0)
(0.0990536 0.00162301 0)
(0.0990878 0.0015383 0)
(0.0991223 0.00145718 0)
(0.099157 0.00137953 0)
(0.0991917 0.00130521 0)
(0.0992264 0.00123411 0)
(0.0992608 0.0011661 0)
(0.099295 0.00110109 0)
(0.0997827 0.00728875 0)
(0.0996532 0.00708836 0)
(0.0995321 0.00688711 0)
(0.0994193 0.00668549 0)
(0.0993148 0.00648391 0)
(0.0992185 0.00628277 0)
(0.0991303 0.00608245 0)
(0.09905 0.00588335 0)
(0.0989773 0.00568581 0)
(0.0989122 0.00549019 0)
(0.0988544 0.00529679 0)
(0.0988035 0.00510593 0)
(0.0987595 0.00491788 0)
(0.098722 0.00473289 0)
(0.0986907 0.00455121 0)
(0.0986653 0.00437303 0)
(0.0986455 0.00419855 0)
(0.0986311 0.00402793 0)
(0.0986218 0.0038613 0)
(0.0986171 0.00369877 0)
(0.098617 0.00354042 0)
(0.098621 0.00338633 0)
(0.0986289 0.00323655 0)
(0.0986405 0.00309111 0)
(0.0986554 0.00295005 0)
(0.0986734 0.0028134 0)
(0.0986944 0.00268119 0)
(0.0987179 0.00255347 0)
(0.0987439 0.00243027 0)
(0.098772 0.00231161 0)
(0.0988019 0.00219748 0)
(0.0988336 0.00208788 0)
(0.0988666 0.00198275 0)
(0.0989009 0.001882 0)
(0.0989361 0.00178552 0)
(0.0989721 0.00169317 0)
(0.0990086 0.0016048 0)
(0.0990455 0.00152026 0)
(0.0990826 0.0014394 0)
(0.0991198 0.00136207 0)
(0.0991568 0.00128813 0)
(0.0991937 0.00121745 0)
(0.0992303 0.00114991 0)
(0.0992664 0.0010854 0)
(0.106427 0.00441033 0)
(0.106241 0.00452434 0)
(0.106053 0.00462687 0)
(0.105864 0.00471805 0)
(0.105673 0.00479807 0)
(0.105483 0.00486722 0)
(0.105292 0.00492587 0)
(0.105102 0.00497444 0)
(0.104912 0.00501342 0)
(0.104724 0.00504333 0)
(0.104538 0.00506472 0)
(0.104354 0.00507813 0)
(0.104173 0.00508413 0)
(0.103995 0.00508324 0)
(0.103819 0.00507599 0)
(0.103648 0.00506286 0)
(0.103479 0.00504431 0)
(0.103315 0.00502075 0)
(0.103155 0.00499256 0)
(0.103 0.0049601 0)
(0.102849 0.00492367 0)
(0.102702 0.00488358 0)
(0.10256 0.00484008 0)
(0.102422 0.00479343 0)
(0.102289 0.00474387 0)
(0.102161 0.00469162 0)
(0.106544 0.00459951 0)
(0.106349 0.00471578 0)
(0.106152 0.00482001 0)
(0.105953 0.00491234 0)
(0.105754 0.00499299 0)
(0.105554 0.00506227 0)
(0.105354 0.00512056 0)
(0.105156 0.00516832 0)
(0.104958 0.00520603 0)
(0.104762 0.00523425 0)
(0.104568 0.00525353 0)
(0.104376 0.00526445 0)
(0.104188 0.0052676 0)
(0.104002 0.00526353 0)
(0.10382 0.00525279 0)
(0.103642 0.00523591 0)
(0.103467 0.00521336 0)
(0.103297 0.00518559 0)
(0.103132 0.00515303 0)
(0.102971 0.00511605 0)
(0.102815 0.00507501 0)
(0.102664 0.00503021 0)
(0.102517 0.00498196 0)
(0.102376 0.00493053 0)
(0.102239 0.00487617 0)
(0.102108 0.00481914 0)
(0.106664 0.00479843 0)
(0.106459 0.00491686 0)
(0.106251 0.00502266 0)
(0.106043 0.005116 0)
(0.105834 0.00519713 0)
(0.105625 0.00526636 0)
(0.105416 0.00532411 0)
(0.105208 0.00537085 0)
(0.105002 0.00540708 0)
(0.104797 0.00543337 0)
(0.104595 0.00545031 0)
(0.104396 0.00545848 0)
(0.104199 0.0054585 0)
(0.104006 0.00545095 0)
(0.103817 0.00543642 0)
(0.103632 0.00541545 0)
(0.103451 0.00538857 0)
(0.103275 0.00535626 0)
(0.103104 0.00531898 0)
(0.102937 0.00527713 0)
(0.102776 0.0052311 0)
(0.10262 0.00518125 0)
(0.10247 0.00512789 0)
(0.102325 0.00507132 0)
(0.102185 0.00501184 0)
(0.10205 0.0049497 0)
(0.106787 0.00500782 0)
(0.106571 0.00512829 0)
(0.106353 0.00523553 0)
(0.106134 0.0053297 0)
(0.105915 0.00541111 0)
(0.105695 0.00548009 0)
(0.105477 0.00553708 0)
(0.105259 0.00558255 0)
(0.105044 0.00561705 0)
(0.10483 0.00564114 0)
(0.104619 0.00565544 0)
(0.104411 0.00566056 0)
(0.104206 0.00565714 0)
(0.104006 0.00564578 0)
(0.103809 0.00562711 0)
(0.103617 0.0056017 0)
(0.10343 0.00557012 0)
(0.103247 0.00553289 0)
(0.10307 0.00549049 0)
(0.102899 0.00544339 0)
(0.102733 0.005392 0)
(0.102572 0.00533671 0)
(0.102417 0.00527787 0)
(0.102268 0.00521581 0)
(0.102125 0.00515084 0)
(0.101987 0.00508324 0)
(0.106912 0.00522851 0)
(0.106685 0.00535088 0)
(0.106455 0.00545936 0)
(0.106225 0.00555418 0)
(0.105995 0.00563563 0)
(0.105765 0.00570411 0)
(0.105536 0.00576006 0)
(0.105308 0.00580398 0)
(0.105082 0.00583644 0)
(0.104859 0.00585802 0)
(0.104639 0.00586934 0)
(0.104422 0.00587106 0)
(0.104209 0.00586383 0)
(0.104001 0.00584829 0)
(0.103796 0.00582508 0)
(0.103597 0.00579484 0)
(0.103403 0.00575815 0)
(0.103214 0.00571559 0)
(0.103031 0.00566767 0)
(0.102854 0.00561491 0)
(0.102683 0.00555775 0)
(0.102518 0.00549661 0)
(0.102359 0.00543189 0)
(0.102206 0.00536395 0)
(0.102059 0.00529312 0)
(0.101918 0.00521972 0)
(0.107041 0.00546135 0)
(0.1068 0.00558546 0)
(0.106559 0.00569499 0)
(0.106316 0.0057902 0)
(0.106074 0.00587144 0)
(0.105833 0.00593912 0)
(0.105593 0.00599371 0)
(0.105354 0.00603574 0)
(0.105118 0.00606579 0)
(0.104885 0.00608448 0)
(0.104655 0.00609245 0)
(0.104429 0.00609036 0)
(0.104207 0.00607889 0)
(0.10399 0.00605874 0)
(0.103778 0.00603057 0)
(0.103571 0.00599505 0)
(0.10337 0.00595281 0)
(0.103175 0.00590446 0)
(0.102986 0.00585059 0)
(0.102804 0.00579171 0)
(0.102627 0.00572834 0)
(0.102458 0.00566094 0)
(0.102294 0.00558993 0)
(0.102138 0.0055157 0)
(0.101987 0.00543862 0)
(0.101844 0.00535903 0)
(0.107172 0.00570731 0)
(0.106918 0.00583297 0)
(0.106663 0.00594331 0)
(0.106408 0.00603864 0)
(0.106153 0.00611935 0)
(0.105899 0.00618587 0)
(0.105647 0.00623873 0)
(0.105397 0.00627847 0)
(0.10515 0.0063057 0)
(0.104906 0.00632105 0)
(0.104666 0.0063252 0)
(0.10443 0.00631884 0)
(0.104199 0.00630267 0)
(0.103974 0.00627742 0)
(0.103754 0.0062438 0)
(0.103539 0.00620251 0)
(0.103331 0.00615423 0)
(0.10313 0.00609961 0)
(0.102935 0.00603929 0)
(0.102746 0.00597383 0)
(0.102565 0.00590379 0)
(0.102391 0.00582966 0)
(0.102223 0.00575191 0)
(0.102063 0.00567097 0)
(0.101909 0.00558724 0)
(0.101763 0.00550107 0)
(0.107306 0.0059674 0)
(0.107037 0.00609439 0)
(0.106768 0.00620527 0)
(0.106499 0.00630039 0)
(0.10623 0.00638019 0)
(0.105963 0.00644516 0)
(0.105698 0.00649584 0)
(0.105436 0.00653283 0)
(0.105177 0.00655674 0)
(0.104922 0.00656826 0)
(0.104671 0.00656807 0)
(0.104426 0.0065569 0)
(0.104185 0.0065355 0)
(0.103951 0.00650461 0)
(0.103722 0.00646499 0)
(0.1035 0.00641739 0)
(0.103285 0.00636253 0)
(0.103076 0.00630111 0)
(0.102875 0.00623382 0)
(0.102682 0.00616127 0)
(0.102495 0.00608405 0)
(0.102316 0.00600272 0)
(0.102145 0.00591777 0)
(0.101981 0.00582968 0)
(0.101824 0.00573886 0)
(0.101675 0.00564571 0)
(0.107442 0.00624271 0)
(0.107158 0.00637078 0)
(0.106873 0.00648188 0)
(0.106589 0.00657642 0)
(0.106306 0.00665489 0)
(0.106024 0.00671783 0)
(0.105746 0.00676584 0)
(0.105471 0.00679953 0)
(0.105199 0.00681957 0)
(0.104933 0.00682667 0)
(0.104671 0.00682155 0)
(0.104415 0.00680497 0)
(0.104164 0.00677772 0)
(0.10392 0.00674058 0)
(0.103683 0.00669436 0)
(0.103453 0.00663985 0)
(0.103231 0.00657782 0)
(0.103016 0.00650903 0)
(0.102808 0.00643419 0)
(0.102609 0.006354 0)
(0.102418 0.00626908 0)
(0.102234 0.00618003 0)
(0.102059 0.0060874 0)
(0.101891 0.00599168 0)
(0.101732 0.00589333 0)
(0.10158 0.00579279 0)
(0.10758 0.00653438 0)
(0.107279 0.00666325 0)
(0.106978 0.0067742 0)
(0.106677 0.00686773 0)
(0.106379 0.00694439 0)
(0.106082 0.00700477 0)
(0.10579 0.00704951 0)
(0.105501 0.0070793 0)
(0.105216 0.00709483 0)
(0.104937 0.00709685 0)
(0.104663 0.00708613 0)
(0.104396 0.00706346 0)
(0.104136 0.00702968 0)
(0.103882 0.00698562 0)
(0.103636 0.00693213 0)
(0.103398 0.00687004 0)
(0.103168 0.00680019 0)
(0.102946 0.0067234 0)
(0.102733 0.00664042 0)
(0.102528 0.00655199 0)
(0.102331 0.00645881 0)
(0.102144 0.0063615 0)
(0.101965 0.00626066 0)
(0.101794 0.00615683 0)
(0.101631 0.0060505 0)
(0.101477 0.00594211 0)
(0.10772 0.00684366 0)
(0.107401 0.00697297 0)
(0.107082 0.00708337 0)
(0.106764 0.0071754 0)
(0.106449 0.00724968 0)
(0.106137 0.00730689 0)
(0.105828 0.00734772 0)
(0.105525 0.0073729 0)
(0.105227 0.00738319 0)
(0.104934 0.00737939 0)
(0.104649 0.00736231 0)
(0.10437 0.0073328 0)
(0.104099 0.00729173 0)
(0.103835 0.00723999 0)
(0.10358 0.00717849 0)
(0.103334 0.00710811 0)
(0.103096 0.00702974 0)
(0.102867 0.00694425 0)
(0.102648 0.00685248 0)
(0.102438 0.00675519 0)
(0.102236 0.00665313 0)
(0.102044 0.006547 0)
(0.101862 0.00643741 0)
(0.101688 0.00632495 0)
(0.101523 0.00621015 0)
(0.101366 0.00609347 0)
(0.107861 0.00717183 0)
(0.107522 0.00730121 0)
(0.107185 0.00741056 0)
(0.106849 0.00750052 0)
(0.106516 0.00757181 0)
(0.106186 0.00762515 0)
(0.105862 0.00766132 0)
(0.105543 0.00768111 0)
(0.10523 0.00768536 0)
(0.104924 0.0076749 0)
(0.104626 0.00765062 0)
(0.104335 0.00761342 0)
(0.104053 0.00756422 0)
(0.103779 0.00750397 0)
(0.103515 0.00743364 0)
(0.10326 0.00735417 0)
(0.103015 0.00726652 0)
(0.102779 0.00717161 0)
(0.102553 0.00707032 0)
(0.102338 0.0069635 0)
(0.102132 0.00685194 0)
(0.101936 0.00673636 0)
(0.101749 0.00661745 0)
(0.101572 0.00649583 0)
(0.101405 0.00637205 0)
(0.101247 0.00624663 0)
(0.108003 0.00752026 0)
(0.107644 0.00764925 0)
(0.107286 0.00775701 0)
(0.10693 0.00784428 0)
(0.106578 0.00791185 0)
(0.106231 0.00796054 0)