/*--------------------------------*- C++ -*----------------------------------*\
| =========                 |                                                 |
| \\      /  F ield         | OpenFOAM: The Open Source CFD Toolbox           |
|  \\    /   O peration     | Version:  2412                                  |
|   \\  /    A nd           | Website:  www.openfoam.com                      |
|    \\/     M anipulation  |                                                 |
\*---------------------------------------------------------------------------*/
FoamFile
{
    version     2.0;
    format      ascii;
    arch        "LSB;label=32;scalar=64";
    class       volVectorField;
    location    "17";
    object      vorticity;
}
// * * * * * * * * * * * * * * * * * * * * * * * * * * * * * * * * * * * * * //

dimensions      [0 0 -1 0 0 0 0];

internalField   nonuniform List<vector> 
5285
(
(0 -0 -3.93486e-05)
(0 -0 -3.10739e-05)
(0 -0 -2.38129e-05)
(0 -0 -1.77413e-05)
(0 -0 -1.27014e-05)
(0 -0 -8.66743e-06)
(0 -0 -5.43193e-06)
(0 -0 -2.8739e-06)
(0 -0 -8.78047e-07)
(0 -0 6.61686e-07)
(0 -0 1.84045e-06)
(0 -0 2.74141e-06)
(0 -0 3.43569e-06)
(0 -0 3.98198e-06)
(0 -0 4.42665e-06)
(0 -0 4.80376e-06)
(0 -0 5.13528e-06)
(0 -0 5.43139e-06)
(0 -0 5.69134e-06)
(0 -0 5.9054e-06)
(0 -0 6.05821e-06)
(0 -0 6.13377e-06)
(0 -0 6.12084e-06)
(0 -0 6.01733e-06)
(0 -0 5.83127e-06)
(0 -0 5.57668e-06)
(0 -0 5.26425e-06)
(0 -0 4.88946e-06)
(0 -0 4.4223e-06)
(0 -0 3.80378e-06)
(0 -0 2.95247e-06)
(0 -0 1.78067e-06)
(0 -0 2.15983e-07)
(0 -0 -1.77836e-06)
(0 -0 -4.19109e-06)
(0 -0 -6.962e-06)
(0 -0 -9.99219e-06)
(0 -0 -1.31616e-05)
(0 -0 -1.63481e-05)
(0 -0 -1.94436e-05)
(0 -0 -2.23637e-05)
(0 -0 -2.50544e-05)
(0 -0 -2.74362e-05)
(0 -0 -2.98044e-05)
(0 -0 -4.20506e-05)
(0 -0 -3.37002e-05)
(0 -0 -2.63962e-05)
(0 -0 -2.00818e-05)
(0 -0 -1.4969e-05)
(0 -0 -1.08737e-05)
(0 -0 -7.58756e-06)
(0 -0 -4.99091e-06)
(0 -0 -2.96827e-06)
(0 -0 -1.41248e-06)
(0 -0 -2.2668e-07)
(0 -0 6.74581e-07)
(0 -0 1.36462e-06)
(0 -0 1.90438e-06)
(0 -0 2.34195e-06)
(0 -0 2.71279e-06)
(0 -0 3.03971e-06)
(0 -0 3.33343e-06)
(0 -0 3.59357e-06)
(0 -0 3.8107e-06)
(0 -0 3.97012e-06)
(0 -0 4.05678e-06)
(0 -0 4.06131e-06)
(0 -0 3.98456e-06)
(0 -0 3.83883e-06)
(0 -0 3.64373e-06)
(0 -0 3.41663e-06)
(0 -0 3.16003e-06)
(0 -0 2.85028e-06)
(0 -0 2.43296e-06)
(0 -0 1.82831e-06)
(0 -0 9.46634e-07)
(0 -0 -2.90132e-07)
(0 -0 -1.92766e-06)
(0 -0 -3.96571e-06)
(0 -0 -6.35583e-06)
(0 -0 -9.01033e-06)
(0 -0 -1.18187e-05)
(0 -0 -1.46662e-05)
(0 -0 -1.74495e-05)
(0 -0 -2.0087e-05)
(0 -0 -2.25256e-05)
(0 -0 -2.46858e-05)
(0 -0 -2.68567e-05)
(0 -0 -4.41561e-05)
(0 -0 -3.58437e-05)
(0 -0 -2.84378e-05)
(0 -0 -2.20921e-05)
(0 -0 -1.69562e-05)
(0 -0 -1.28425e-05)
(0 -0 -9.5405e-06)
(0 -0 -6.9324e-06)
(0 -0 -4.9038e-06)
(0 -0 -3.34758e-06)
(0 -0 -2.16625e-06)
(0 -0 -1.27295e-06)
(0 -0 -5.92903e-07)
(0 -0 -6.35896e-08)
(0 -0 3.64422e-07)
(0 -0 7.27488e-07)
(0 -0 1.04894e-06)
(0 -0 1.33967e-06)
(0 -0 1.59934e-06)
(0 -0 1.81851e-06)
(0 -0 1.98272e-06)
(0 -0 2.07783e-06)
(0 -0 2.09614e-06)
(0 -0 2.0415e-06)
(0 -0 1.93058e-06)
(0 -0 1.78878e-06)
(0 -0 1.64032e-06)
(0 -0 1.49486e-06)
(0 -0 1.33521e-06)
(0 -0 1.11147e-06)
(0 -0 7.45371e-07)
(0 -0 1.45126e-07)
(0 -0 -7.73163e-07)
(0 -0 -2.06409e-06)
(0 -0 -3.7383e-06)
(0 -0 -5.75892e-06)
(0 -0 -8.04913e-06)
(0 -0 -1.05077e-05)
(0 -0 -1.30267e-05)
(0 -0 -1.55078e-05)
(0 -0 -1.78716e-05)
(0 -0 -2.00658e-05)
(0 -0 -2.20108e-05)
(0 -0 -2.39912e-05)
(0 -0 -4.55159e-05)
(0 -0 -3.73197e-05)
(0 -0 -2.99783e-05)
(0 -0 -2.36719e-05)
(0 -0 -1.85677e-05)
(0 -0 -1.44787e-05)
(0 -0 -1.11946e-05)
(0 -0 -8.6012e-06)
(0 -0 -6.58645e-06)
(0 -0 -5.04465e-06)
(0 -0 -3.87856e-06)
(0 -0 -3.00111e-06)
(0 -0 -2.33648e-06)
(0 -0 -1.82133e-06)
(0 -0 -1.40538e-06)
(0 -0 -1.05183e-06)
(0 -0 -7.37155e-07)
(0 -0 -4.50673e-07)
(0 -0 -1.9311e-07)
(0 -0 2.59423e-08)
(0 -0 1.91894e-07)
(0 -0 2.91361e-07)
(0 -0 3.1837e-07)
(0 -0 2.79767e-07)
(0 -0 1.96765e-07)
(0 -0 1.00765e-07)
(0 -0 2.29691e-08)
(0 -0 -1.97692e-08)
(0 -0 -3.83123e-08)
(0 -0 -7.83195e-08)
(0 -0 -2.16868e-07)
(0 -0 -5.48178e-07)
(0 -0 -1.16214e-06)
(0 -0 -2.12225e-06)
(0 -0 -3.44978e-06)
(0 -0 -5.11898e-06)
(0 -0 -7.06334e-06)
(0 -0 -9.19024e-06)
(0 -0 -1.13984e-05)
(0 -0 -1.35935e-05)
(0 -0 -1.56985e-05)
(0 -0 -1.76617e-05)
(0 -0 -1.94032e-05)
(0 -0 -2.12054e-05)
(0 -0 -4.61017e-05)
(0 -0 -3.81331e-05)
(0 -0 -3.09471e-05)
(0 -0 -2.47509e-05)
(0 -0 -1.97328e-05)
(0 -0 -1.57106e-05)
(0 -0 -1.24768e-05)
(0 -0 -9.9228e-06)
(0 -0 -7.94043e-06)
(0 -0 -6.42672e-06)
(0 -0 -5.28581e-06)
(0 -0 -4.43132e-06)
(0 -0 -3.7871e-06)
(0 -0 -3.28962e-06)
(0 -0 -2.88823e-06)
(0 -0 -2.54607e-06)
(0 -0 -2.24e-06)
(0 -0 -1.95975e-06)
(0 -0 -1.70679e-06)
(0 -0 -1.49132e-06)
(0 -0 -1.32795e-06)
(0 -0 -1.22959e-06)
(0 -0 -1.20043e-06)
(0 -0 -1.23046e-06)
(0 -0 -1.29371e-06)
(0 -0 -1.3526e-06)
(0 -0 -1.36886e-06)
(0 -0 -1.3185e-06)
(0 -0 -1.2064e-06)
(0 -0 -1.07439e-06)
(0 -0 -9.98875e-07)
(0 -0 -1.07694e-06)
(0 -0 -1.40469e-06)
(0 -0 -2.05442e-06)
(0 -0 -3.0577e-06)
(0 -0 -4.39921e-06)
(0 -0 -6.02204e-06)
(0 -0 -7.84141e-06)
(0 -0 -9.76185e-06)
(0 -0 -1.16927e-05)
(0 -0 -1.35588e-05)
(0 -0 -1.53089e-05)
(0 -0 -1.68625e-05)
(0 -0 -1.85007e-05)
(0 -0 -4.59296e-05)
(0 -0 -3.82781e-05)
(0 -0 -3.13239e-05)
(0 -0 -2.52993e-05)
(0 -0 -2.04163e-05)
(0 -0 -1.64994e-05)
(0 -0 -1.33457e-05)
(0 -0 -1.08536e-05)
(0 -0 -8.92046e-06)
(0 -0 -7.44719e-06)
(0 -0 -6.34049e-06)
(0 -0 -5.51515e-06)
(0 -0 -4.89596e-06)
(0 -0 -4.41939e-06)
(0 -0 -4.03509e-06)
(0 -0 -3.70656e-06)
(0 -0 -3.41129e-06)
(0 -0 -3.14e-06)
(0 -0 -2.89494e-06)
(0 -0 -2.68733e-06)
(0 -0 -2.53199e-06)
(0 -0 -2.44127e-06)
(0 -0 -2.41757e-06)
(0 -0 -2.4475e-06)
(0 -0 -2.50008e-06)
(0 -0 -2.53138e-06)
(0 -0 -2.49596e-06)
(0 -0 -2.36293e-06)
(0 -0 -2.13157e-06)
(0 -0 -1.84052e-06)
(0 -0 -1.56614e-06)
(0 -0 -1.40892e-06)
(0 -0 -1.47141e-06)
(0 -0 -1.83459e-06)
(0 -0 -2.53983e-06)
(0 -0 -3.58153e-06)
(0 -0 -4.91142e-06)
(0 -0 -6.45165e-06)
(0 -0 -8.11169e-06)
(0 -0 -9.80397e-06)
(0 -0 -1.14547e-05)
(0 -0 -1.30128e-05)
(0 -0 -1.43974e-05)
(0 -0 -1.5888e-05)
(0 -0 -4.50534e-05)
(0 -0 -3.77905e-05)
(0 -0 -3.11282e-05)
(0 -0 -2.5325e-05)
(0 -0 -2.06181e-05)
(0 -0 -1.68391e-05)
(0 -0 -1.37909e-05)
(0 -0 -1.13801e-05)
(0 -0 -9.51082e-06)
(0 -0 -8.08872e-06)
(0 -0 -7.02407e-06)
(0 -0 -6.23353e-06)
(0 -0 -5.64341e-06)
(0 -0 -5.19085e-06)
(0 -0 -4.8262e-06)
(0 -0 -4.51382e-06)
(0 -0 -4.23204e-06)
(0 -0 -3.97288e-06)
(0 -0 -3.73992e-06)
(0 -0 -3.54521e-06)
(0 -0 -3.40417e-06)
(0 -0 -3.3285e-06)
(0 -0 -3.31866e-06)
(0 -0 -3.35764e-06)
(0 -0 -3.40919e-06)
(0 -0 -3.42282e-06)
(0 -0 -3.34597e-06)
(0 -0 -3.14108e-06)
(0 -0 -2.80233e-06)
(0 -0 -2.36589e-06)
(0 -0 -1.90885e-06)
(0 -0 -1.53566e-06)
(0 -0 -1.35557e-06)
(0 -0 -1.45814e-06)
(0 -0 -1.89398e-06)
(0 -0 -2.66634e-06)
(0 -0 -3.73457e-06)
(0 -0 -5.0267e-06)
(0 -0 -6.45629e-06)
(0 -0 -7.93809e-06)
(0 -0 -9.39931e-06)
(0 -0 -1.07887e-05)
(0 -0 -1.2025e-05)
(0 -0 -1.33859e-05)
(0 -0 -4.35613e-05)
(0 -0 -3.67397e-05)
(0 -0 -3.04141e-05)
(0 -0 -2.48698e-05)
(0 -0 -2.03701e-05)
(0 -0 -1.67546e-05)
(0 -0 -1.38319e-05)
(0 -0 -1.15179e-05)
(0 -0 -9.72427e-06)
(0 -0 -8.36219e-06)
(0 -0 -7.34596e-06)
(0 -0 -6.59515e-06)
(0 -0 -6.03766e-06)
(0 -0 -5.61198e-06)
(0 -0 -5.26956e-06)
(0 -0 -4.97584e-06)
(0 -0 -4.71062e-06)
(0 -0 -4.46725e-06)
(0 -0 -4.25096e-06)
(0 -0 -4.07487e-06)
(0 -0 -3.95492e-06)
(0 -0 -3.90222e-06)
(0 -0 -3.91507e-06)
(0 -0 -3.97257e-06)
(0 -0 -4.03293e-06)
(0 -0 -4.03892e-06)
(0 -0 -3.93089e-06)
(0 -0 -3.6649e-06)
(0 -0 -3.23064e-06)
(0 -0 -2.66257e-06)
(0 -0 -2.03927e-06)
(0 -0 -1.46978e-06)
(0 -0 -1.07039e-06)
(0 -0 -9.39055e-07)
(0 -0 -1.13505e-06)
(0 -0 -1.66956e-06)
(0 -0 -2.50846e-06)
(0 -0 -3.58465e-06)
(0 -0 -4.81476e-06)
(0 -0 -6.1152e-06)
(0 -0 -7.41361e-06)
(0 -0 -8.65853e-06)
(0 -0 -9.76791e-06)
(0 -0 -1.10179e-05)
(0 -0 -4.15676e-05)
(0 -0 -3.52215e-05)
(0 -0 -2.92617e-05)
(0 -0 -2.40013e-05)
(0 -0 -1.973e-05)
(0 -0 -1.62956e-05)
(0 -0 -1.35126e-05)
(0 -0 -1.13068e-05)
(0 -0 -9.59739e-06)
(0 -0 -8.30199e-06)
(0 -0 -7.33911e-06)
(0 -0 -6.63175e-06)
(0 -0 -6.10984e-06)
(0 -0 -5.71362e-06)
(0 -0 -5.39595e-06)
(0 -0 -5.12359e-06)
(0 -0 -4.87807e-06)
(0 -0 -4.65448e-06)
(0 -0 -4.45962e-06)
(0 -0 -4.30809e-06)
(0 -0 -4.21628e-06)
(0 -0 -4.19461e-06)
(0 -0 -4.23904e-06)
(0 -0 -4.32448e-06)
(0 -0 -4.40334e-06)
(0 -0 -4.41144e-06)
(0 -0 -4.28209e-06)
(0 -0 -3.96533e-06)
(0 -0 -3.44696e-06)
(0 -0 -2.76053e-06)
(0 -0 -1.98693e-06)
(0 -0 -1.24041e-06)
(0 -0 -6.44568e-07)
(0 -0 -3.05603e-07)
(0 -0 -2.90872e-07)
(0 -0 -6.18602e-07)
(0 -0 -1.26014e-06)
(0 -0 -2.15214e-06)
(0 -0 -3.21338e-06)
(0 -0 -4.36122e-06)
(0 -0 -5.52329e-06)
(0 -0 -6.64755e-06)
(0 -0 -7.65129e-06)
(0 -0 -8.80872e-06)
(0 -0 -3.92035e-05)
(0 -0 -3.33489e-05)
(0 -0 -2.77689e-05)
(0 -0 -2.28048e-05)
(0 -0 -1.87734e-05)
(0 -0 -1.55301e-05)
(0 -0 -1.28951e-05)
(0 -0 -1.08041e-05)
(0 -0 -9.1844e-06)
(0 -0 -7.95978e-06)
(0 -0 -7.05363e-06)
(0 -0 -6.39231e-06)
(0 -0 -5.90823e-06)
(0 -0 -5.54359e-06)
(0 -0 -5.2528e-06)
(0 -0 -5.00445e-06)
(0 -0 -4.78172e-06)
(0 -0 -4.58183e-06)
(0 -0 -4.41329e-06)
(0 -0 -4.29221e-06)
(0 -0 -4.23551e-06)
(0 -0 -4.25278e-06)
(0 -0 -4.33737e-06)
(0 -0 -4.45977e-06)
(0 -0 -4.56625e-06)
(0 -0 -4.5856e-06)
(0 -0 -4.44409e-06)
(0 -0 -4.08609e-06)
(0 -0 -3.49414e-06)
(0 -0 -2.70168e-06)
(0 -0 -1.7927e-06)
(0 -0 -8.87276e-07)
(0 -0 -1.16587e-07)
(0 -0 4.05104e-07)
(0 -0 6.02904e-07)
(0 -0 4.52432e-07)
(0 -0 -2.21082e-08)
(0 -0 -7.60058e-07)
(0 -0 -1.68154e-06)
(0 -0 -2.70407e-06)
(0 -0 -3.75492e-06)
(0 -0 -4.78114e-06)
(0 -0 -5.69938e-06)
(0 -0 -6.78181e-06)
(0 -0 -3.66073e-05)
(0 -0 -3.1243e-05)
(0 -0 -2.60428e-05)
(0 -0 -2.13759e-05)
(0 -0 -1.75865e-05)
(0 -0 -1.45366e-05)
(0 -0 -1.20521e-05)
(0 -0 -1.00782e-05)
(0 -0 -8.55004e-06)
(0 -0 -7.39787e-06)
(0 -0 -6.5499e-06)
(0 -0 -5.93593e-06)
(0 -0 -5.49105e-06)
(0 -0 -5.15941e-06)
(0 -0 -4.89725e-06)
(0 -0 -4.6751e-06)
(0 -0 -4.47814e-06)
(0 -0 -4.30556e-06)
(0 -0 -4.16803e-06)
(0 -0 -4.08302e-06)
(0 -0 -4.06802e-06)
(0 -0 -4.13163e-06)
(0 -0 -4.26441e-06)
(0 -0 -4.43209e-06)
(0 -0 -4.57457e-06)
(0 -0 -4.6134e-06)
(0 -0 -4.46795e-06)
(0 -0 -4.07721e-06)
(0 -0 -3.42109e-06)
(0 -0 -2.53363e-06)
(0 -0 -1.5027e-06)
(0 -0 -4.54828e-07)
(0 -0 4.71035e-07)
(0 -0 1.15267e-06)
(0 -0 1.50822e-06)
(0 -0 1.50793e-06)
(0 -0 1.17256e-06)
(0 -0 5.60977e-07)
(0 -0 -2.47395e-07)
(0 -0 -1.16967e-06)
(0 -0 -2.13226e-06)
(0 -0 -3.08118e-06)
(0 -0 -3.93233e-06)
(0 -0 -4.95574e-06)
(0 -0 -3.3915e-05)
(0 -0 -2.90247e-05)
(0 -0 -2.41913e-05)
(0 -0 -1.9812e-05)
(0 -0 -1.62578e-05)
(0 -0 -1.33969e-05)
(0 -0 -1.10597e-05)
(0 -0 -9.20053e-06)
(0 -0 -7.76253e-06)
(0 -0 -6.68184e-06)
(0 -0 -5.89151e-06)
(0 -0 -5.32473e-06)
(0 -0 -4.91927e-06)
(0 -0 -4.6213e-06)
(0 -0 -4.38902e-06)
(0 -0 -4.19479e-06)
(0 -0 -4.02604e-06)
(0 -0 -3.88407e-06)
(0 -0 -3.78169e-06)
(0 -0 -3.73785e-06)
(0 -0 -3.77053e-06)
(0 -0 -3.88719e-06)
(0 -0 -4.07537e-06)
(0 -0 -4.29574e-06)
(0 -0 -4.48158e-06)
(0 -0 -4.54707e-06)
(0 -0 -4.40475e-06)
(0 -0 -3.98861e-06)
(0 -0 -3.27642e-06)
(0 -0 -2.30354e-06)
(0 -0 -1.16245e-06)
(0 -0 1.34309e-08)
(0 -0 1.07709e-06)
(0 -0 1.89852e-06)
(0 -0 2.38935e-06)
(0 -0 2.51523e-06)
(0 -0 2.29431e-06)
(0 -0 1.78451e-06)
(0 -0 1.06559e-06)
(0 -0 2.21348e-07)
(0 -0 -6.73349e-07)
(0 -0 -1.56333e-06)
(0 -0 -2.36371e-06)
(0 -0 -3.34215e-06)
(0 -0 -3.12519e-05)
(0 -0 -2.68064e-05)
(0 -0 -2.23157e-05)
(0 -0 -1.8205e-05)
(0 -0 -1.48717e-05)
(0 -0 -1.21888e-05)
(0 -0 -9.99048e-06)
(0 -0 -8.23973e-06)
(0 -0 -6.88694e-06)
(0 -0 -5.87418e-06)
(0 -0 -5.13885e-06)
(0 -0 -4.61761e-06)
(0 -0 -4.25058e-06)
(0 -0 -3.98599e-06)
(0 -0 -3.78397e-06)
(0 -0 -3.61881e-06)
(0 -0 -3.48005e-06)
(0 -0 -3.37142e-06)
(0 -0 -3.30772e-06)
(0 -0 -3.30948e-06)
(0 -0 -3.39503e-06)
(0 -0 -3.5706e-06)
(0 -0 -3.82044e-06)
(0 -0 -4.09991e-06)
(0 -0 -4.33541e-06)
(0 -0 -4.43366e-06)
(0 -0 -4.30041e-06)
(0 -0 -3.86494e-06)
(0 -0 -3.10344e-06)
(0 -0 -2.05322e-06)
(0 -0 -8.11928e-07)
(0 -0 4.79605e-07)
(0 -0 1.66614e-06)
(0 -0 2.60999e-06)
(0 -0 3.21672e-06)
(0 -0 3.44803e-06)
(0 -0 3.32021e-06)
(0 -0 2.89101e-06)
(0 -0 2.24112e-06)
(0 -0 1.4558e-06)
(0 -0 6.11443e-07)
(0 -0 -2.35337e-07)
(0 -0 -9.98967e-07)
(0 -0 -1.94441e-06)
(0 -0 -2.87263e-05)
(0 -0 -2.46858e-05)
(0 -0 -2.05048e-05)
(0 -0 -1.66356e-05)
(0 -0 -1.3502e-05)
(0 -0 -1.09804e-05)
(0 -0 -8.90766e-06)
(0 -0 -7.25501e-06)
(0 -0 -5.97945e-06)
(0 -0 -5.02852e-06)
(0 -0 -4.34372e-06)
(0 -0 -3.86469e-06)
(0 -0 -3.53391e-06)
(0 -0 -3.30146e-06)
(0 -0 -3.12919e-06)
(0 -0 -2.99348e-06)
(0 -0 -2.88595e-06)
(0 -0 -2.81268e-06)
(0 -0 -2.79054e-06)
(0 -0 -2.84159e-06)
(0 -0 -2.98443e-06)
(0 -0 -3.2239e-06)
(0 -0 -3.54072e-06)
(0 -0 -3.8847e-06)
(0 -0 -4.17517e-06)
(0 -0 -4.31123e-06)
(0 -0 -4.19193e-06)
(0 -0 -3.74211e-06)
(0 -0 -2.9368e-06)
(0 -0 -1.81586e-06)
(0 -0 -4.8261e-07)
(0 -0 9.14298e-07)
(0 -0 2.21121e-06)
(0 -0 3.26289e-06)
(0 -0 3.9692e-06)
(0 -0 4.28847e-06)
(0 -0 4.23575e-06)
(0 -0 3.86932e-06)
(0 -0 3.2713e-06)
(0 -0 2.52886e-06)
(0 -0 1.72016e-06)
(0 -0 9.03385e-07)
(0 -0 1.64833e-07)
(0 -0 -7.57539e-07)
(0 -0 -2.64233e-05)
(0 -0 -2.274e-05)
(0 -0 -1.8828e-05)
(0 -0 -1.51667e-05)
(0 -0 -1.22057e-05)
(0 -0 -9.82387e-06)
(0 -0 -7.85963e-06)
(0 -0 -6.29145e-06)
(0 -0 -5.08252e-06)
(0 -0 -4.1852e-06)
(0 -0 -3.54474e-06)
(0 -0 -3.1034e-06)
(0 -0 -2.80563e-06)
(0 -0 -2.60324e-06)
(0 -0 -2.45965e-06)
(0 -0 -2.35311e-06)
(0 -0 -2.27748e-06)
(0 -0 -2.24099e-06)
(0 -0 -2.26272e-06)
(0 -0 -2.36613e-06)
(0 -0 -2.57004e-06)
(0 -0 -2.87767e-06)
(0 -0 -3.266e-06)
(0 -0 -3.67909e-06)
(0 -0 -4.02894e-06)
(0 -0 -4.207e-06)
(0 -0 -4.10566e-06)
(0 -0 -3.64553e-06)
(0 -0 -2.80088e-06)
(0 -0 -1.61456e-06)
(0 -0 -1.9608e-07)
(0 -0 1.29776e-06)
(0 -0 2.69476e-06)
(0 -0 3.84224e-06)
(0 -0 4.63467e-06)
(0 -0 5.02749e-06)
(0 -0 5.03508e-06)
(0 -0 4.71675e-06)
(0 -0 4.15652e-06)
(0 -0 3.44378e-06)
(0 -0 2.65874e-06)
(0 -0 1.8612e-06)
(0 -0 1.13818e-06)
(0 -0 2.3099e-07)
(0 -0 -2.44001e-05)
(0 -0 -2.10197e-05)
(0 -0 -1.73296e-05)
(0 -0 -1.38374e-05)
(0 -0 -1.10177e-05)
(0 -0 -8.75078e-06)
(0 -0 -6.87508e-06)
(0 -0 -5.37568e-06)
(0 -0 -4.22114e-06)
(0 -0 -3.36813e-06)
(0 -0 -2.76495e-06)
(0 -0 -2.35612e-06)
(0 -0 -2.08769e-06)
(0 -0 -1.91281e-06)
(0 -0 -1.79648e-06)
(0 -0 -1.7186e-06)
(0 -0 -1.67518e-06)
(0 -0 -1.67666e-06)
(0 -0 -1.74422e-06)
(0 -0 -1.90269e-06)
(0 -0 -2.17099e-06)
(0 -0 -2.55055e-06)
(0 -0 -3.01445e-06)
(0 -0 -3.5007e-06)
(0 -0 -3.91383e-06)
(0 -0 -4.13751e-06)
(0 -0 -4.0575e-06)
(0 -0 -3.5904e-06)
(0 -0 -2.71007e-06)
(0 -0 -1.46274e-06)
(0 -0 3.54885e-08)
(0 -0 1.61938e-06)
(0 -0 3.10811e-06)
(0 -0 4.34159e-06)
(0 -0 5.20921e-06)
(0 -0 5.66388e-06)
(0 -0 5.71982e-06)
(0 -0 5.43771e-06)
(0 -0 4.90396e-06)
(0 -0 4.21035e-06)
(0 -0 3.43936e-06)
(0 -0 2.65249e-06)
(0 -0 1.93736e-06)
(0 -0 1.03933e-06)
(0 -0 -2.26815e-05)
(0 -0 -1.9543e-05)
(0 -0 -1.60226e-05)
(0 -0 -1.26576e-05)
(0 -0 -9.94613e-06)
(0 -0 -7.76773e-06)
(0 -0 -5.95991e-06)
(0 -0 -4.51332e-06)
(0 -0 -3.4011e-06)
(0 -0 -2.58331e-06)
(0 -0 -2.01075e-06)
(0 -0 -1.62959e-06)
(0 -0 -1.38715e-06)
(0 -0 -1.23759e-06)
(0 -0 -1.14725e-06)
(0 -0 -1.09774e-06)
(0 -0 -1.08699e-06)
(0 -0 -1.12775e-06)
(0 -0 -1.24315e-06)
(0 -0 -1.45939e-06)
(0 -0 -1.79535e-06)
(0 -0 -2.25056e-06)
(0 -0 -2.79394e-06)
(0 -0 -3.35726e-06)
(0 -0 -3.83739e-06)
(0 -0 -4.1101e-06)
(0 -0 -4.05454e-06)
(0 -0 -3.58348e-06)
(0 -0 -2.67064e-06)
(0 -0 -1.36597e-06)
(0 -0 2.07498e-07)
(0 -0 1.87585e-06)
(0 -0 3.44952e-06)
(0 -0 4.76109e-06)
(0 -0 5.69511e-06)
(0 -0 6.20228e-06)
(0 -0 6.297e-06)
(0 -0 6.04174e-06)
(0 -0 5.52546e-06)
(0 -0 4.84271e-06)
(0 -0 4.0782e-06)
(0 -0 3.29532e-06)
(0 -0 2.58209e-06)
(0 -0 1.68902e-06)
(0 -0 -2.12715e-05)
(0 -0 -1.83045e-05)
(0 -0 -1.48943e-05)
(0 -0 -1.16158e-05)
(0 -0 -8.98e-06)
(0 -0 -6.86446e-06)
(0 -0 -5.10486e-06)
(0 -0 -3.69635e-06)
(0 -0 -2.61562e-06)
(0 -0 -1.82522e-06)
(0 -0 -1.27763e-06)
(0 -0 -9.2016e-07)
(0 -0 -7.00873e-07)
(0 -0 -5.74886e-07)
(0 -0 -5.0956e-07)
(0 -0 -4.88175e-07)
(0 -0 -5.10656e-07)
(0 -0 -5.91951e-07)
(0 -0 -7.57231e-07)
(0 -0 -1.03398e-06)
(0 -0 -1.44092e-06)
(0 -0 -1.97554e-06)
(0 -0 -2.60235e-06)
(0 -0 -3.24663e-06)
(0 -0 -3.79746e-06)
(0 -0 -4.12255e-06)
(0 -0 -4.09446e-06)
(0 -0 -3.62225e-06)
(0 -0 -2.67972e-06)
(0 -0 -1.32084e-06)
(0 -0 3.24118e-07)
(0 -0 2.07238e-06)
(0 -0 3.7255e-06)
(0 -0 5.10886e-06)
(0 -0 6.10228e-06)
(0 -0 6.65456e-06)
(0 -0 6.78052e-06)
(0 -0 6.54473e-06)
(0 -0 6.03892e-06)
(0 -0 5.36053e-06)
(0 -0 4.59667e-06)
(0 -0 3.81257e-06)
(0 -0 3.09656e-06)
(0 -0 2.20559e-06)
(0 -0 -2.02148e-05)
(0 -0 -1.73504e-05)
(0 -0 -1.39201e-05)
(0 -0 -1.06936e-05)
(0 -0 -8.10429e-06)
(0 -0 -6.0283e-06)
(0 -0 -4.30025e-06)
(0 -0 -2.91832e-06)
(0 -0 -1.8612e-06)
(0 -0 -1.09276e-06)
(0 -0 -5.66371e-07)
(0 -0 -2.29912e-07)
(0 -0 -3.19305e-08)
(0 -0 7.17041e-08)
(0 -0 1.12584e-07)
(0 -0 1.05907e-07)
(0 -0 4.95214e-08)
(0 -0 -7.36627e-08)
(0 -0 -2.90879e-07)
(0 -0 -6.30914e-07)
(0 -0 -1.11225e-06)
(0 -0 -1.73021e-06)
(0 -0 -2.44457e-06)
(0 -0 -3.17389e-06)
(0 -0 -3.79929e-06)
(0 -0 -4.18024e-06)
(0 -0 -4.18272e-06)
(0 -0 -3.71215e-06)
(0 -0 -2.74251e-06)
(0 -0 -1.3321e-06)
(0 -0 3.81422e-07)
(0 -0 2.20616e-06)
(0 -0 3.93475e-06)
(0 -0 5.38537e-06)
(0 -0 6.43319e-06)
(0 -0 7.02528e-06)
(0 -0 7.17712e-06)
(0 -0 6.95551e-06)
(0 -0 6.45521e-06)
(0 -0 5.77659e-06)
(0 -0 5.00927e-06)
(0 -0 4.22035e-06)
(0 -0 3.49848e-06)
(0 -0 2.60682e-06)
(0 -0 -1.9461e-05)
(0 -0 -1.6633e-05)
(0 -0 -1.33122e-05)
(0 -0 -9.99099e-06)
(0 -0 -7.43446e-06)
(0 -0 -5.37611e-06)
(0 -0 -3.66561e-06)
(0 -0 -2.30032e-06)
(0 -0 -1.25871e-06)
(0 -0 -5.04881e-07)
(0 -0 7.37854e-09)
(0 -0 3.29886e-07)
(0 -0 5.13506e-07)
(0 -0 6.01658e-07)
(0 -0 6.24533e-07)
(0 -0 5.9553e-07)
(0 -0 5.10502e-07)
(0 -0 3.49664e-07)
(0 -0 8.37377e-08)
(0 -0 -3.17188e-07)
(0 -0 -8.71482e-07)
(0 -0 -1.57185e-06)
(0 -0 -2.37367e-06)
(0 -0 -3.18847e-06)
(0 -0 -3.88878e-06)
(0 -0 -4.32593e-06)
(0 -0 -4.359e-06)
(0 -0 -3.88966e-06)
(0 -0 -2.89241e-06)
(0 -0 -1.42988e-06)
(0 -0 3.52651e-07)
(0 -0 2.25399e-06)
(0 -0 4.05773e-06)
(0 -0 5.57472e-06)
(0 -0 6.67564e-06)
(0 -0 7.30584e-06)
(0 -0 7.48163e-06)
(0 -0 7.27222e-06)
(0 -0 6.7755e-06)
(0 -0 6.09488e-06)
(0 -0 5.32252e-06)
(0 -0 4.52743e-06)
(0 -0 3.79852e-06)
(0 -0 2.90415e-06)
(0 -0 8.06781e-05)
(0 -0 3.51828e-05)
(0 -0 -1.12175e-05)
(0 -0 -5.67613e-05)
(0 -0 -0.00010005)
(0 -0 -0.000139791)
(0 -0 -0.000174831)
(0 -0 -0.000204272)
(0 -0 -0.000227502)
(0 -0 -0.000244199)
(0 -0 -0.000254334)
(0 -0 -0.000258142)
(0 -0 -0.000256099)
(0 -0 -0.000248871)
(0 -0 -0.000237268)
(0 -0 -0.000222186)
(0 -0 -0.000204554)
(0 -0 -0.00018528)
(0 -0 -0.000165208)
(0 -0 -0.000145083)
(0 -0 -0.00012553)
(0 -0 -0.000107039)
(0 -0 -8.99692e-05)
(0 -0 -7.45488e-05)
(0 -0 -6.09259e-05)
(0 -0 -4.90224e-05)
(0 -0 7.38502e-05)
(0 -0 2.99027e-05)
(0 -0 -1.48624e-05)
(0 -0 -5.88049e-05)
(0 -0 -0.000100596)
(0 -0 -0.000139042)
(0 -0 -0.000173053)
(0 -0 -0.000201774)
(0 -0 -0.000224605)
(0 -0 -0.000241215)
(0 -0 -0.00025154)
(0 -0 -0.000255768)
(0 -0 -0.00025431)
(0 -0 -0.00024777)
(0 -0 -0.000236895)
(0 -0 -0.000222528)
(0 -0 -0.000205553)
(0 -0 -0.000186848)
(0 -0 -0.000167239)
(0 -0 -0.000147467)
(0 -0 -0.000128159)
(0 -0 -0.000109818)
(0 -0 -9.28162e-05)
(0 -0 -7.74102e-05)
(0 -0 -6.37267e-05)
(0 -0 -5.18566e-05)
(0 -0 6.52426e-05)
(0 -0 2.36744e-05)
(0 -0 -1.85977e-05)
(0 -0 -6.00444e-05)
(0 -0 -9.9493e-05)
(0 -0 -0.000135861)
(0 -0 -0.000168154)
(0 -0 -0.000195579)
(0 -0 -0.00021757)
(0 -0 -0.000233792)
(0 -0 -0.000244146)
(0 -0 -0.000248761)
(0 -0 -0.000247976)
(0 -0 -0.00024231)
(0 -0 -0.000232428)
(0 -0 -0.000219096)
(0 -0 -0.000203134)
(0 -0 -0.000185371)
(0 -0 -0.000166599)
(0 -0 -0.00014754)
(0 -0 -0.000128814)
(0 -0 -0.000110928)
(0 -0 -9.42686e-05)
(0 -0 -7.91073e-05)
(0 -0 -6.56113e-05)
(0 -0 -5.38317e-05)
(0 -0 5.50986e-05)
(0 -0 1.66517e-05)
(0 -0 -2.2319e-05)
(0 -0 -6.04861e-05)
(0 -0 -9.68229e-05)
(0 -0 -0.000130393)
(0 -0 -0.000160327)
(0 -0 -0.00018592)
(0 -0 -0.000206651)
(0 -0 -0.000222191)
(0 -0 -0.000232408)
(0 -0 -0.000237367)
(0 -0 -0.000237319)
(0 -0 -0.000232685)
(0 -0 -0.000224029)
(0 -0 -0.00021202)
(0 -0 -0.000197395)
(0 -0 -0.000180917)
(0 -0 -0.000163327)
(0 -0 -0.000145315)
(0 -0 -0.000127486)
(0 -0 -0.000110346)
(0 -0 -9.4287e-05)
(0 -0 -7.95971e-05)
(0 -0 -6.64655e-05)
(0 -0 -5.49773e-05)
(0 -0 4.37342e-05)
(0 -0 9.0423e-06)
(0 -0 -2.59738e-05)
(0 -0 -6.0182e-05)
(0 -0 -9.27413e-05)
(0 -0 -0.000122889)
(0 -0 -0.000149902)
(0 -0 -0.000173184)
(0 -0 -0.000192276)
(0 -0 -0.000206863)
(0 -0 -0.00021678)
(0 -0 -0.000222026)
(0 -0 -0.000222755)
(0 -0 -0.000219277)
(0 -0 -0.000212037)
(0 -0 -0.000201595)
(0 -0 -0.000188586)
(0 -0 -0.000173689)
(0 -0 -0.000157583)
(0 -0 -0.000140914)
(0 -0 -0.000124263)
(0 -0 -0.000108125)
(0 -0 -9.28992e-05)
(0 -0 -7.88852e-05)
(0 -0 -6.62929e-05)
(0 -0 -5.52325e-05)
(0 -0 3.15282e-05)
(0 -0 1.05783e-06)
(0 -0 -2.94882e-05)
(0 -0 -5.92039e-05)
(0 -0 -8.74567e-05)
(0 -0 -0.000113677)
(0 -0 -0.000137309)
(0 -0 -0.000157884)
(0 -0 -0.000175016)
(0 -0 -0.00018841)
(0 -0 -0.000197878)
(0 -0 -0.000203345)
(0 -0 -0.000204866)
(0 -0 -0.000202628)
(0 -0 -0.000196949)
(0 -0 -0.000188262)
(0 -0 -0.00017709)
(0 -0 -0.000164013)
(0 -0 -0.000149638)
(0 -0 -0.000134556)
(0 -0 -0.000119316)
(0 -0 -0.000104398)
(0 -0 -9.02019e-05)
(0 -0 -7.70379e-05)
(0 -0 -6.51352e-05)
(0 -0 -5.46268e-05)
(0 -0 1.88847e-05)
(0 -0 -7.05706e-06)
(0 -0 -3.27884e-05)
(0 -0 -5.76464e-05)
(0 -0 -8.1221e-05)
(0 -0 -0.000103151)
(0 -0 -0.000123065)
(0 -0 -0.000140631)
(0 -0 -0.000155551)
(0 -0 -0.00016756)
(0 -0 -0.000176445)
(0 -0 -0.000182064)
(0 -0 -0.000184366)
(0 -0 -0.000183413)
(0 -0 -0.000179387)
(0 -0 -0.000172584)
(0 -0 -0.000163403)
(0 -0 -0.000152322)
(0 -0 -0.00013986)
(0 -0 -0.000126548)
(0 -0 -0.000112898)
(0 -0 -9.93684e-05)
(0 -0 -8.63552e-05)
(0 -0 -7.4179e-05)
(0 -0 -6.30865e-05)
(0 -0 -5.32324e-05)
(0 -0 6.21756e-06)
(0 -0 -1.50574e-05)
(0 -0 -3.58068e-05)
(0 -0 -5.56172e-05)
(0 -0 -7.43089e-05)
(0 -0 -9.17373e-05)
(0 -0 -0.000107725)
(0 -0 -0.000122088)
(0 -0 -0.000134624)
(0 -0 -0.000145104)
(0 -0 -0.000153299)
(0 -0 -0.000159)
(0 -0 -0.000162052)
(0 -0 -0.00016239)
(0 -0 -0.000160053)
(0 -0 -0.0001552)
(0 -0 -0.0001481)
(0 -0 -0.000139118)
(0 -0 -0.000128683)
(0 -0 -0.000117262)
(0 -0 -0.000105319)
(0 -0 -9.32921e-05)
(0 -0 -8.15692e-05)
(0 -0 -7.04784e-05)
(0 -0 -6.02829e-05)
(0 -0 -5.11587e-05)
(0 -0 -6.06755e-06)
(0 -0 -2.27022e-05)
(0 -0 -3.84749e-05)
(0 -0 -5.32217e-05)
(0 -0 -6.69922e-05)
(0 -0 -7.98608e-05)
(0 -0 -9.18477e-05)
(0 -0 -0.000102924)
(0 -0 -0.000112986)
(0 -0 -0.000121852)
(0 -0 -0.000129278)
(0 -0 -0.000134995)
(0 -0 -0.000138748)
(0 -0 -0.000140344)
(0 -0 -0.000139684)
(0 -0 -0.000136786)
(0 -0 -0.000131789)
(0 -0 -0.000124941)
(0 -0 -0.00011658)
(0 -0 -0.000107102)
(0 -0 -9.69246e-05)
(0 -0 -8.64596e-05)
(0 -0 -7.60859e-05)
(0 -0 -6.61367e-05)
(0 -0 -5.68902e-05)
(0 -0 -4.8543e-05)
(0 -0 -1.75779e-05)
(0 -0 -2.97507e-05)
(0 -0 -4.07137e-05)
(0 -0 -5.05435e-05)
(0 -0 -5.95127e-05)
(0 -0 -6.791e-05)
(0 -0 -7.59518e-05)
(0 -0 -8.37646e-05)
(0 -0 -9.13492e-05)
(0 -0 -9.85719e-05)
(0 -0 -0.000105183)
(0 -0 -0.000110859)
(0 -0 -0.00011525)
(0 -0 -0.000118043)
(0 -0 -0.000119003)
(0 -0 -0.000118011)
(0 -0 -0.000115075)
(0 -0 -0.000110332)
(0 -0 -0.000104026)
(0 -0 -9.64819e-05)
(0 -0 -8.80702e-05)
(0 -0 -7.9174e-05)
(0 -0 -7.01618e-05)
(0 -0 -6.137e-05)
(0 -0 -5.30904e-05)
(0 -0 -4.55391e-05)
(0 -0 -2.79257e-05)
(0 -0 -3.59507e-05)
(0 -0 -4.24151e-05)
(0 -0 -4.76222e-05)
(0 -0 -5.20541e-05)
(0 -0 -5.62039e-05)
(0 -0 -6.04772e-05)
(0 -0 -6.5153e-05)
(0 -0 -7.03368e-05)
(0 -0 -7.59472e-05)
(0 -0 -8.17344e-05)
(0 -0 -8.73257e-05)
(0 -0 -9.22875e-05)
(0 -0 -9.61921e-05)
(0 -0 -9.86777e-05)
(0 -0 -9.94936e-05)
(0 -0 -9.85256e-05)
(0 -0 -9.58006e-05)
(0 -0 -9.14728e-05)
(0 -0 -8.57982e-05)
(0 -0 -7.90994e-05)
(0 -0 -7.17313e-05)
(0 -0 -6.40505e-05)
(0 -0 -5.63952e-05)
(0 -0 -4.90694e-05)
(0 -0 -4.23065e-05)
(0 -0 -3.67033e-05)
(0 -0 -4.10118e-05)
(0 -0 -4.34145e-05)
(0 -0 -4.44229e-05)
(0 -0 -4.47103e-05)
(0 -0 -4.49585e-05)
(0 -0 -4.57512e-05)
(0 -0 -4.75126e-05)
(0 -0 -5.04509e-05)
(0 -0 -5.45386e-05)
(0 -0 -5.95307e-05)
(0 -0 -6.50148e-05)
(0 -0 -7.04808e-05)
(0 -0 -7.53982e-05)
(0 -0 -7.92878e-05)
(0 -0 -8.17781e-05)
(0 -0 -8.26401e-05)
(0 -0 -8.1799e-05)
(0 -0 -7.93247e-05)
(0 -0 -7.54076e-05)
(0 -0 -7.0325e-05)
(0 -0 -6.44038e-05)
(0 -0 -5.79881e-05)
(0 -0 -5.1417e-05)
(0 -0 -4.50044e-05)
(0 -0 -3.89999e-05)
(0 -0 -4.34351e-05)
(0 -0 -4.45594e-05)
(0 -0 -4.34475e-05)
(0 -0 -4.0796e-05)
(0 -0 -3.74467e-05)
(0 -0 -3.42501e-05)
(0 -0 -3.19522e-05)
(0 -0 -3.11124e-05)
(0 -0 -3.20362e-05)
(0 -0 -3.47502e-05)
(0 -0 -3.90191e-05)
(0 -0 -4.43992e-05)
(0 -0 -5.03139e-05)
(0 -0 -5.61414e-05)
(0 -0 -6.12973e-05)
(0 -0 -6.53023e-05)
(0 -0 -6.78251e-05)
(0 -0 -6.86988e-05)
(0 -0 -6.79172e-05)
(0 -0 -6.56106e-05)
(0 -0 -6.20137e-05)
(0 -0 -5.74268e-05)
(0 -0 -5.21819e-05)
(0 -0 -4.6617e-05)
(0 -0 -4.10554e-05)
(0 -0 -3.57603e-05)
(0 -0 -4.74981e-05)
(0 -0 -4.60631e-05)
(0 -0 -4.20855e-05)
(0 -0 -3.64204e-05)
(0 -0 -3.00507e-05)
(0 -0 -2.3971e-05)
(0 -0 -1.90709e-05)
(0 -0 -1.60311e-05)
(0 -0 -1.52476e-05)
(0 -0 -1.67999e-05)
(0 -0 -2.04669e-05)
(0 -0 -2.57809e-05)
(0 -0 -3.21099e-05)
(0 -0 -3.87516e-05)
(0 -0 -4.50311e-05)
(0 -0 -5.03781e-05)
(0 -0 -5.43742e-05)
(0 -0 -5.67738e-05)
(0 -0 -5.75027e-05)
(0 -0 -5.66378e-05)
(0 -0 -5.43747e-05)
(0 -0 -5.09888e-05)
(0 -0 -4.68003e-05)
(0 -0 -4.21461e-05)
(0 -0 -3.73568e-05)
(0 -0 -3.27081e-05)
(0 -0 -4.8001e-05)
(0 -0 -4.47292e-05)
(0 -0 -3.86444e-05)
(0 -0 -3.07263e-05)
(0 -0 -2.20659e-05)
(0 -0 -1.37738e-05)
(0 -0 -6.86104e-06)
(0 -0 -2.11498e-06)
(0 -0 -1.34573e-08)
(0 -0 -6.87207e-07)
(0 -0 -3.93232e-06)
(0 -0 -9.26566e-06)
(0 -0 -1.60085e-05)
(0 -0 -2.33858e-05)
(0 -0 -3.06509e-05)
(0 -0 -3.71676e-05)
(0 -0 -4.24495e-05)
(0 -0 -4.61846e-05)
(0 -0 -4.82392e-05)
(0 -0 -4.8642e-05)
(0 -0 -4.75531e-05)
(0 -0 -4.52257e-05)
(0 -0 -4.19687e-05)
(0 -0 -3.81185e-05)
(0 -0 -3.40123e-05)
(0 -0 -2.99373e-05)
(0 -0 -4.36096e-05)
(0 -0 -3.9355e-05)
(0 -0 -3.20681e-05)
(0 -0 -2.27996e-05)
(0 -0 -1.27113e-05)
(0 -0 -3.00121e-06)
(0 -0 5.21998e-06)
(0 -0 1.10735e-05)
(0 -0 1.40081e-05)
(0 -0 1.38445e-05)
(0 -0 1.07656e-05)
(0 -0 5.26239e-06)
(0 -0 -1.94486e-06)
(0 -0 -1.00016e-05)
(0 -0 -1.81254e-05)
(0 -0 -2.56569e-05)
(0 -0 -3.20637e-05)
(0 -0 -3.69702e-05)
(0 -0 -4.01863e-05)
(0 -0 -4.16961e-05)
(0 -0 -4.16282e-05)
(0 -0 -4.02174e-05)
(0 -0 -3.77647e-05)
(0 -0 -3.46069e-05)
(0 -0 -3.10893e-05)
(0 -0 -2.75104e-05)
(0 -0 -3.25375e-05)
(0 -0 -2.82016e-05)
(0 -0 -2.08443e-05)
(0 -0 -1.13189e-05)
(0 -0 -8.29339e-07)
(0 -0 9.35635e-06)
(0 -0 1.80447e-05)
(0 -0 2.42789e-05)
(0 -0 2.74432e-05)
(0 -0 2.73124e-05)
(0 -0 2.40446e-05)
(0 -0 1.81292e-05)
(0 -0 1.03305e-05)
(0 -0 1.63527e-06)
(0 -0 -7.16957e-06)
(0 -0 -1.56349e-05)
(0 -0 -2.30761e-05)
(0 -0 -2.90555e-05)
(0 -0 -3.33158e-05)
(0 -0 -3.58012e-05)
(0 -0 -3.66179e-05)
(0 -0 -3.599e-05)
(0 -0 -3.42168e-05)
(0 -0 -3.16399e-05)
(0 -0 -2.8615e-05)
(0 -0 -2.54563e-05)
(0 -0 -1.22298e-05)
(0 -0 -9.21975e-06)
(0 -0 -2.90911e-06)
(0 -0 5.56036e-06)
(0 -0 1.52311e-05)
(0 -0 2.47658e-05)
(0 -0 3.29019e-05)
(0 -0 3.86199e-05)
(0 -0 4.12505e-05)
(0 -0 4.05266e-05)
(0 -0 3.65758e-05)
(0 -0 2.98681e-05)
(0 -0 2.11914e-05)
(0 -0 1.14187e-05)
(0 -0 2.15275e-06)
(0 -0 -6.62282e-06)
(0 -0 -1.52581e-05)
(0 -0 -2.23213e-05)
(0 -0 -2.75683e-05)
(0 -0 -3.09283e-05)
(0 -0 -3.25075e-05)
(0 -0 -3.25355e-05)
(0 -0 -3.13203e-05)
(0 -0 -2.92141e-05)
(0 -0 -2.6589e-05)
(0 -0 -2.37786e-05)
(0 -0 2.12588e-05)
(0 -0 2.11306e-05)
(0 -0 2.47661e-05)
(0 -0 3.07523e-05)
(0 -0 3.81549e-05)
(0 -0 4.56487e-05)
(0 -0 5.19458e-05)
(0 -0 5.59925e-05)
(0 -0 5.70833e-05)
(0 -0 5.49156e-05)
(0 -0 4.95773e-05)
(0 -0 4.146e-05)
(0 -0 3.12184e-05)
(0 -0 2.03274e-05)
(0 -0 9.244e-06)
(0 -0 -6.47527e-08)
(0 -0 -8.36788e-06)
(0 -0 -1.67232e-05)
(0 -0 -2.29313e-05)
(0 -0 -2.7067e-05)
(0 -0 -2.92859e-05)
(0 -0 -2.98453e-05)
(0 -0 -2.90711e-05)
(0 -0 -2.73312e-05)
(0 -0 -2.5038e-05)
(0 -0 -2.24766e-05)
(0 -0 1.6387e-05)
(0 -0 5.28877e-06)
(0 -0 -4.28873e-06)
(0 -0 -1.22915e-05)
(0 -0 -1.93161e-05)
(0 -0 -2.40927e-05)
(0 -0 -2.68355e-05)
(0 -0 -2.78268e-05)
(0 -0 -2.74079e-05)
(0 -0 -2.59703e-05)
(0 -0 -2.38922e-05)
(0 -0 -2.1664e-05)
(0 -0 2.37994e-07)
(0 -0 2.12685e-07)
(0 -0 1.90818e-07)
(0 -0 1.73239e-07)
(0 -0 1.60785e-07)
(0 -0 1.5324e-07)
(0 -0 1.50476e-07)
(0 -0 1.52108e-07)
(0 -0 1.57541e-07)
(0 -0 1.66025e-07)
(0 -0 1.7672e-07)
(0 -0 1.88757e-07)
(0 -0 2.01303e-07)
(0 -0 2.1361e-07)
(0 -0 2.25053e-07)
(0 -0 2.35154e-07)
(0 -0 2.43595e-07)
(0 -0 2.50208e-07)
(0 -0 2.54963e-07)
(0 -0 2.57945e-07)
(0 -0 2.59322e-07)
(0 -0 2.5932e-07)
(0 -0 2.58195e-07)
(0 -0 2.56208e-07)
(0 -0 2.5362e-07)
(0 -0 2.50669e-07)
(0 -0 5.75475e-07)
(0 -0 5.04954e-07)
(0 -0 4.43868e-07)
(0 -0 3.94815e-07)
(0 -0 3.60158e-07)
(0 -0 3.39251e-07)
(0 -0 3.31753e-07)
(0 -0 3.36604e-07)
(0 -0 3.52143e-07)
(0 -0 3.76272e-07)
(0 -0 4.06632e-07)
(0 -0 4.40786e-07)
(0 -0 4.76389e-07)
(0 -0 5.11329e-07)
(0 -0 5.43844e-07)
(0 -0 5.72581e-07)
(0 -0 5.96631e-07)
(0 -0 6.15514e-07)
(0 -0 6.29141e-07)
(0 -0 6.37741e-07)
(0 -0 6.41791e-07)
(0 -0 6.41926e-07)
(0 -0 6.38865e-07)
(0 -0 6.33356e-07)
(0 -0 6.26138e-07)
(0 -0 6.17904e-07)
(0 -0 6.13286e-07)
(0 -0 5.09854e-07)
(0 -0 4.20054e-07)
(0 -0 3.48009e-07)
(0 -0 2.97411e-07)
(0 -0 2.67172e-07)
(0 -0 2.56831e-07)
(0 -0 2.64848e-07)
(0 -0 2.88789e-07)
(0 -0 3.25552e-07)
(0 -0 3.71639e-07)
(0 -0 4.23423e-07)
(0 -0 4.77404e-07)
(0 -0 5.30425e-07)
(0 -0 5.79833e-07)
(0 -0 6.23589e-07)
(0 -0 6.60314e-07)
(0 -0 6.89268e-07)
(0 -0 7.103e-07)
(0 -0 7.23744e-07)
(0 -0 7.30304e-07)
(0 -0 7.30931e-07)
(0 -0 7.26711e-07)
(0 -0 7.18771e-07)
(0 -0 7.08243e-07)
(0 -0 6.96186e-07)
(0 -0 4.03704e-07)
(0 -0 2.80053e-07)
(0 -0 1.72445e-07)
(0 -0 8.61888e-08)
(0 -0 2.61047e-08)
(0 -0 -9.37282e-09)
(0 -0 -2.07323e-08)
(0 -0 -9.78054e-09)
(0 -0 2.057e-08)
(0 -0 6.65839e-08)
(0 -0 1.24023e-07)
(0 -0 1.88474e-07)
(0 -0 2.55663e-07)
(0 -0 3.21714e-07)
(0 -0 3.8336e-07)
(0 -0 4.38076e-07)
(0 -0 4.84137e-07)