/*--------------------------------*- C++ -*----------------------------------*\
| =========                 |                                                 |
| \\      /  F ield         | OpenFOAM: The Open Source CFD Toolbox           |
|  \\    /   O peration     | Version:  2412                                  |
|   \\  /    A nd           | Website:  www.openfoam.com                      |
|    \\/     M anipulation  |                                                 |
\*---------------------------------------------------------------------------*/
FoamFile
{
    version     2.0;
    format      ascii;
    arch        "LSB;label=32;scalar=64";
    class       surfaceScalarField;
    location    "10";
    object      phi;
}
// * * * * * * * * * * * * * * * * * * * * * * * * * * * * * * * * * * * * * //

dimensions      [0 3 -1 0 0 0 0];

oriented        oriented;

internalField   nonuniform List<scalar> 
10422
(
0.00567579
1.71144e-05
-0.00567668
-1.62183e-05
0.00567427
2.97864e-05
-2.82692e-05
0.00567216
4.24449e-05
-4.03295e-05
0.00566946
5.50383e-05
-5.23446e-05
0.00566621
6.74971e-05
-6.4248e-05
0.00566243
7.97414e-05
-7.5963e-05
0.00565816
9.16907e-05
-8.74114e-05
0.0056534
0.000103268
-9.85166e-05
0.00564821
0.000114404
-0.000109208
0.0056426
0.000125037
-0.000119424
0.00563659
0.000135121
-0.000129114
0.00563021
0.000144618
-0.000138239
0.00562348
0.000153505
-0.000146775
0.00561642
0.000161769
-0.000154708
0.00560904
0.000169407
-0.000162035
0.00560138
0.000176425
-0.000168765
0.00559346
0.000182834
-0.000174914
0.00558531
0.000188655
-0.000180502
0.00557696
0.000193912
-0.000185559
0.00556844
0.000198633
-0.000190116
0.0055598
0.000202849
-0.000194204
0.00555106
0.000206592
-0.000197857
0.00554227
0.000209896
-0.000201107
0.000212788
-0.000203982
0.00568732
1.81085e-05
-0.00568831
0.00568567
3.14357e-05
0.00568338
4.47269e-05
0.00568049
5.79282e-05
0.00567702
7.09679e-05
0.005673
8.37628e-05
0.00566846
9.62309e-05
0.00566343
0.000108295
0.00565795
0.000119888
0.00565203
0.000130952
0.00564571
0.000141442
0.00563901
0.000151324
0.00563194
0.000160577
0.00562452
0.000169188
0.00561677
0.000177154
0.00560872
0.000184476
0.00560039
0.000191166
0.0055918
0.000197237
0.00558301
0.000202711
0.00557403
0.000207611
0.00556491
0.000211966
0.0055557
0.000215807
0.00554643
0.000219167
0.000222077
0.00569956
1.92004e-05
-0.00570065
0.00569777
3.3223e-05
0.00569531
4.71849e-05
0.00569221
6.10287e-05
0.0056885
7.46797e-05
0.00568421
8.80518e-05
0.00567938
0.000101062
0.00567404
0.000113633
0.00566823
0.000125701
0.00566197
0.000137211
0.00565529
0.000148122
0.00564821
0.000158404
0.00564075
0.000168038
0.00563293
0.000177012
0.00562476
0.000185321
0.00561627
0.000192966
0.00560748
0.000199952
0.00559843
0.00020629
0.00558915
0.000211993
0.00557967
0.000217084
0.00557005
0.000221586
0.00556033
0.00022553
0.00555055
0.000228947
0.00023187
0.00571258
2.0388e-05
-0.00571376
0.00571065
3.51525e-05
0.005708
4.98284e-05
0.00570468
6.43549e-05
0.0057007
7.86539e-05
0.00569612
9.26359e-05
0.00569096
0.000106217
0.00568528
0.000119321
0.00567909
0.000131887
0.00567244
0.000143864
0.00566535
0.000155215
0.00565784
0.000165914
0.00564993
0.000175944
0.00564164
0.000185297
0.005633
0.000193965
0.00562402
0.000201946
0.00561473
0.000209243
0.00560516
0.000215858
0.00559535
0.000221802
0.00558535
0.00022709
0.00557519
0.000231744
0.00556493
0.000235791
0.00555461
0.000239263
0.000242195
0.00572643
2.16697e-05
-0.00572772
0.00572436
3.72283e-05
0.00572152
5.26679e-05
0.00571795
6.79238e-05
0.00571369
8.2914e-05
0.00570878
9.75457e-05
0.00570326
0.000111734
0.00569718
0.000125404
0.00569057
0.000138496
0.00568347
0.000150965
0.00567591
0.000162779
0.00566791
0.000173915
0.00565949
0.00018436
0.00565068
0.000194107
0.0056415
0.000203147
0.00563197
0.000211477
0.00562212
0.000219093
0.00561198
0.000225993
0.0056016
0.000232183
0.00559102
0.000237672
0.00558028
0.000242477
0.00556945
0.000246625
0.00555857
0.000250145
0.000253074
0.00574119
2.3044e-05
-0.00574257
0.00573896
3.94555e-05
0.00573592
5.57152e-05
0.00573209
7.17543e-05
0.00572751
8.74864e-05
0.00572224
0.000102815
0.00571632
0.000117654
0.0057098
0.000131929
0.00570271
0.000145584
0.0056951
0.000158577
0.005687
0.00017088
0.00567844
0.000182476
0.00566944
0.000193356
0.00566004
0.000203512
0.00565025
0.000212937
0.0056401
0.000221623
0.00562963
0.000229564
0.00561887
0.000236753
0.00560786
0.000243188
0.00559666
0.000248875
0.00558531
0.000253827
0.00557387
0.000258066
0.00556239
0.000261623
0.000264536
0.00575691
2.45108e-05
-0.00575837
0.00575452
4.18408e-05
0.00575125
5.89843e-05
0.00574714
7.58679e-05
0.00574222
9.24006e-05
0.00573656
0.000108482
0.00573019
0.000124023
0.00572317
0.000138951
0.00571554
0.00015321
0.00570735
0.000166764
0.00569864
0.000179589
0.00568945
0.000191671
0.0056798
0.000203006
0.00566973
0.000213586
0.00565926
0.000223406
0.00564842
0.000232456
0.00563726
0.000240723
0.00562582
0.000248198
0.00561413
0.000254873
0.00560226
0.000260749
0.00559025
0.000265836
0.00557816
0.000270153
0.00556606
0.000273731
0.000276609
0.00577364
2.60715e-05
-0.0057752
0.00577109
4.43936e-05
0.00576758
6.24923e-05
0.00576316
8.02898e-05
0.00575787
9.769e-05
0.00575176
0.000114587
0.00574489
0.00013089
0.00573732
0.000146525
0.00572909
0.000161438
0.00572026
0.000175596
0.00571087
0.000188978
0.00570097
0.000201577
0.00569058
0.000213388
0.00567976
0.000224409
0.00566853
0.000234632
0.00565694
0.000244048
0.00564502
0.00025264
0.00563283
0.000260394
0.0056204
0.000267298
0.00560781
0.000273349
0.00559509
0.000278553
0.00558231
0.000282928
0.00556954
0.000286506
0.000289326
0.00579145
2.77303e-05
-0.00579311
0.00578872
4.7126e-05
0.00578495
6.62599e-05
0.00578019
8.50492e-05
0.00577449
0.000103392
0.0057679
0.000121177
0.00576048
0.000138309
0.0057523
0.000154713
0.0057434
0.000170336
0.00573385
0.000185146
0.0057237
0.000199127
0.005713
0.000212273
0.00570181
0.000224585
0.00569015
0.000236062
0.00567809
0.000246696
0.00566566
0.000256477
0.00565291
0.000265388
0.0056399
0.000273409
0.00562667
0.000280526
0.00561329
0.000286731
0.00559981
0.00029203
0.0055863
0.000296438
0.00557282
0.000299987
0.00030272
0.00581042
2.94942e-05
-0.00581218
0.00580749
5.00541e-05
0.00580344
7.03122e-05
0.00579831
9.01801e-05
0.00579215
0.00010955
0.00578502
0.000128303
0.00577699
0.000146338
0.00576813
0.00016358
0.00575849
0.000179975
0.00574814
0.000195491
0.00573716
0.000210115
0.00572558
0.000223844
0.00571349
0.000236682
0.00570092
0.000248629
0.00568794
0.000259681
0.00567459
0.000269825
0.00566093
0.000279044
0.00564702
0.000287316
0.00563293
0.000294624
0.0056187
0.000300959
0.00560441
0.000306322
0.00559011
0.000310732
0.00557588
0.000314219
0.00031683
0.00583061
3.13733e-05
-0.00583249
0.00582746
5.31981e-05
0.0058231
7.4679e-05
0.00581756
9.57216e-05
0.00581089
0.000116211
0.00580318
0.00013602
0.00579447
0.000155043
0.00578485
0.000173198
0.0057744
0.000190432
0.00576318
0.000206712
0.00575126
0.000222027
0.00573873
0.000236377
0.00572565
0.000249767
0.00571207
0.0002622
0.00569808
0.000273674
0.00568373
0.000284177
0.00566909
0.00029369
0.00565421
0.000302192
0.00563917
0.000309664
0.00562403
0.000316096
0.00560886
0.000321489
0.00559373
0.000325863
0.0055787
0.000329249
0.000331697
0.00585211
3.33811e-05
-0.00585412
0.00584872
5.65826e-05
0.00584401
7.93955e-05
0.00583801
0.000101719
0.00583079
0.00012343
0.00582242
0.000144392
0.00581297
0.000164492
0.00580252
0.000183644
0.00579116
0.00020179
0.00577898
0.000218898
0.00576605
0.000234955
0.00575246
0.000249964
0.0057383
0.000263933
0.00572363
0.000276867
0.00570854
0.000288766
0.0056931
0.000299619
0.00567738
0.00030941
0.00566145
0.000318116
0.00564539
0.000325721
0.00562928
0.000332213
0.00561317
0.000337595
0.00559715
0.000341888
0.00558127
0.000345128
0.000347368
0.00587501
3.55348e-05
-0.00587717
0.00587136
6.0237e-05
0.00586625
8.45028e-05
0.00585975
0.000108224
0.00585191
0.000131269
0.00584281
0.000153491
0.00583254
0.000174766
0.00582118
0.000195003
0.00580883
0.00021414
0.00579558
0.000232141
0.00578154
0.000248995
0.0057668
0.000264704
0.00575146
0.000279279
0.0057356
0.000292728
0.00571931
0.000305053
0.00570268
0.000316246
0.0056858
0.000326293
0.00566874
0.000335175
0.00565159
0.000342874
0.00563442
0.000349383
0.0056173
0.000354707
0.00560032
0.00035887
0.00558354
0.000361911
0.000363888
0.00589943
3.7855e-05
-0.00590175
0.00589547
6.41959e-05
0.00588993
9.00482e-05
0.00588286
0.000115297
0.00587433
0.000139798
0.00586442
0.000163394
0.00585324
0.000185951
0.00584087
0.000207369
0.00582743
0.00022758
0.00581303
0.000246546
0.00579777
0.000264253
0.00578177
0.000280704
0.00576514
0.000295912
0.00574798
0.000309888
0.00573039
0.000322638
0.00571248
0.000334157
0.00569434
0.000344435
0.00567606
0.000353456
0.00565772
0.000361208
0.00563942
0.000367684
0.00562123
0.000372897
0.00560323
0.000376872
0.00558549
0.000379655
0.000381309
0.00592549
4.03664e-05
-0.005928
0.00592119
6.84994e-05
0.00591515
9.60865e-05
0.00590744
0.000123004
0.00589814
0.000149096
0.00588735
0.000174192
0.00587515
0.000198146
0.00586167
0.000220847
0.00584703
0.000242222
0.00583135
0.000262226
0.00581476
0.000280844
0.00579739
0.000298079
0.00577935
0.000313946
0.00576078
0.00032846
0.00574179
0.000341631
0.00572249
0.000353459
0.00570298
0.000363937
0.00568338
0.000373057
0.00566378
0.000380811
0.00564426
0.0003872
0.00562492
0.000392239
0.00560583
0.000395961
0.00558707
0.000398419
0.000399683
0.00595333
4.30983e-05
-0.00595606
0.00594863
7.31943e-05
0.00594204
0.00010268
0.00593362
0.000131422
0.00592346
0.000159254
0.00591167
0.000185986
0.00589835
0.00021146
0.00588365
0.000235555
0.00586768
0.000258187
0.0058506
0.000279307
0.00583255
0.000298897
0.00581367
0.000316959
0.0057941
0.000333509
0.005774
0.000348568
0.00575348
0.000362151
0.00573267
0.000374265
0.0057117
0.000384908
0.00569068
0.00039408
0.00566971
0.00040178
0.00564889
0.000408017
0.00562831
0.000412814
0.00560807
0.000416211
0.00558822
0.000418269
0.000419066
0.0059831
4.60837e-05
-0.00598608
0.00597796
7.8334e-05
0.00597074
0.000109901
0.00596152
0.000140641
0.0059504
0.000170373
0.00593749
0.00019889
0.00592294
0.000226019
0.00590687
0.000251624
0.00588944
0.000275614
0.00587082
0.000297932
0.00585116
0.000318555
0.00583063
0.000337485
0.0058094
0.000354742
0.00578762
0.000370348
0.00576544
0.00038433
0.00574301
0.0003967
0.00572045
0.000407466
0.00569789
0.000416635
0.00567546
0.000424217
0.00565324
0.000430229
0.00563135
0.000434705
0.00560987
0.000437694
0.00558887
0.000439267
0.000439512
0.00601499
-0.00601827
0.00600935
0.00600142
0.00599131
0.00597911
0.00596497
0.00594902
0.00593144
0.0059124
0.00589207
0.00587065
0.00584831
0.00582526
0.00580165
0.000393956
0.00577766
0.000408314
0.00575346
0.000420902
0.00572919
0.00043174
0.00570498
0.000440842
0.00568097
0.00044823
0.00565726
0.000453935
0.00563397
0.000458001
0.00561117
0.000460489
0.00558896
0.000461482
0.000461078
0.0058161
0.00579014
0.00576402
0.00573789
0.0057119
0.00568619
0.00566088
0.00563609
0.0056119
0.0055884
0.00536281
-6.80213e-05
-0.00535307
5.82818e-05
0.00538539
-7.08563e-05
4.82681e-05
0.00542057
-7.32411e-05
3.80615e-05
0.00546793
-7.50348e-05
2.76789e-05
0.00552689
-7.61036e-05
1.71381e-05
0.00559676
-7.63266e-05
6.46041e-06
-7.55933e-05
-4.33047e-06
0.00537293
-7.79677e-05
-0.00536299
0.00539574
-9.36642e-05
0.00543115
-0.000108652
0.00547875
-0.000122635
0.00553798
-0.000135325
0.00560811
-0.00014646
-0.000155794
0.00538361
-8.81414e-05
-0.00537343
0.00540666
-0.000116714
0.00544233
-0.00014432
0.00549019
-0.000170504
0.0055497
-0.00019483
0.00562013
-0.000216892
-0.000236311
0.00539486
-9.85661e-05
-0.00538444
0.00541818
-0.000140031
0.00545413
-0.000180271
0.0055023
-0.000218674
0.00556212
-0.000254654
0.00563289
-0.000287661
-0.000317183
0.00540673
-0.000109269
-0.00539603
0.00543035
-0.000163645
0.00546662
-0.000216537
0.00551512
-0.000267179
0.0055753
-0.000314832
0.00564645
-0.000358807
-0.000398455
0.00541926
-0.000120282
-0.00540825
0.00544321
-0.000187589
0.00547983
-0.000253155
0.0055287
-0.000316058
0.00558928
-0.000375408
0.00566085
-0.000430374
-0.000480173
0.00543249
-0.000131637
-0.00542114
0.0054568
-0.000211898
0.00549381
-0.000290163
0.0055431
-0.000365351
0.00560412
-0.000436425
0.00567616
-0.000502411
-0.000562388
0.00544647
-0.00014337
-0.00543473
0.00547118
-0.000236612
0.00550862
-0.000327601
0.00555837
-0.000415103
0.00561988
-0.000497931
0.00569243
-0.000574968
-0.000645153
0.00546124
-0.000155522
-0.00544909
0.0054864
-0.000261772
0.00552431
-0.000365515
0.00557457
-0.000465361
0.00563661
-0.000559975
0.00570974
-0.000648096
-0.000728523
0.00547686
-0.000168134
-0.00546425
0.00550251
-0.000287423
0.00554094
-0.000403951
0.00559176
-0.000516175
0.00565439
-0.000622609
0.00572815
-0.000721852
-0.000812557
0.00549339
-0.000181253
-0.00548027
0.00551957
-0.000313612
0.00555858
-0.000442959
0.00561001
-0.000567597
0.00567329
-0.00068589
0.00574773
-0.000796294
-0.000897315
0.00551088
-0.00019493
-0.00549721
0.00553766
-0.000340394
0.0055773
-0.000482596
0.00562939
-0.000619686
0.00569338
-0.000749877
0.00576857
-0.000871484
-0.000982863
0.00552942
-0.000209218
-0.00551513
0.00555685
-0.000367824
0.00559718
-0.00052292
0.00564999
-0.000672502
0.00571475
-0.000814636
0.00579076
-0.000947491
-0.00106927
0.00554908
-0.000224181
-0.00553411
0.00557722
-0.000395967
0.0056183
-0.000563997
0.00567191
-0.000726115
0.00573751
-0.000880237
0.00581441
-0.00102439
-0.00115662
0.00556993
-0.000239886
-0.00555423
0.00559886
-0.000424893
0.00564076
-0.000605899
0.00569524
-0.000780599
0.00576176
-0.000946757
0.00583963
-0.00110226
-0.00124499
0.00559208
-0.000256407
-0.00557556
0.00562187
-0.000454677
0.00566468
-0.000648706
0.00572011
-0.000836036
0.00578764
-0.00101428
0.00586657
-0.00118119
-0.00133448
0.00561563
-0.000273831
-0.00559821
0.00564636
-0.000485409
0.00569017
-0.000692507
0.00574665
-0.000892518
0.00581528
-0.00108291
0.00589537
-0.00126128
-0.00142519
0.00564069
-0.000292252
-0.00562227
0.00567247
-0.000517184
0.00571736
-0.000737403
0.005775
-0.000950152
0.00584484
-0.00115275
0.00592621
-0.00134266
-0.00151724
0.00566739
-0.000311779
-0.00564787
0.00570033
-0.000550116
0.00574643
0.00580534
0.00587652
0.0059593
0.00569589
-0.00567513
0.00555853
-4.75665e-05
-0.00563245
0.000121493
0.00549479
-4.95893e-05
0.000113326
0.00544208
-5.21327e-05
0.000104843
0.00540109
-5.50685e-05
9.60606e-05
0.00537235
-5.82618e-05
8.69937e-05
0.00535627
-6.15792e-05
7.76625e-05
-6.48803e-05
6.80857e-05
0.00556754
2.62792e-05
-0.00564139
0.00550391
1.40416e-05
0.00545132
4.54427e-07
0.00541048
-1.4222e-05
0.00538191
-2.96906e-05
0.005366
-4.56745e-05
-6.1868e-05
0.00557698
0.000100033
-0.00565074
0.00551347
7.75574e-05
0.00546102
5.28963e-05
0.00542034
2.6464e-05
0.00539194
-1.29336e-06
0.00537623
-2.99678e-05
-5.90679e-05
0.00558687
0.00017368
-0.00566052
0.00552349
0.00014094
0.0054712
0.000105185
0.00543069
6.69758e-05
0.0054025
2.68932e-05
0.005387
-1.44731e-05
-5.65019e-05
0.00559722
0.000247203
-0.00567074
0.00553398
0.000204174
0.00548187
0.000157299
0.00544156
0.000107287
0.00541359
5.48635e-05
0.00539834
7.79975e-07
-5.41962e-05
0.00560805
0.000320585
-0.00568144
0.00554499
0.000267239
0.00549307
0.000209218
0.00545298
0.000147376
0.00542525
8.25911e-05
0.00541027
1.5763e-05
-5.21782e-05
0.0056194
0.000393807
-0.00569262
0.00555652
0.000330115
0.00550482
0.000260917
0.00546498
0.000187219
0.00543752
0.000110046
0.00542284
3.04506e-05
-5.04799e-05
0.00563128
0.000466846
-0.00570432
0.00556861
0.000392777
0.00551716
0.000312371
0.00547759
0.000226788
0.00545044
0.000137199
0.00543608
4.48103e-05
-4.91354e-05
0.00564372
0.000539679
-0.00571655
0.0055813
0.000455199
0.00553012
0.00036355
0.00549086
0.00026605
0.00546404
0.000164017
0.00545004
5.88066e-05
-4.81815e-05
0.00565675
0.000612277
-0.00572935
0.0055946
0.00051735
0.00554373
0.000414423
0.00550481
0.000304971
0.00547836
0.000190463
0.00546477
7.2401e-05
-4.76586e-05
0.00567042
0.000684608
-0.00574275
0.00560857
0.000579196
0.00555804
0.000464953
0.0055195
0.000343514
0.00549346
0.000216496
0.00548031
8.55515e-05
-4.76112e-05
0.00568474
0.000756637
-0.00575677
0.00562323
0.000640701
0.00557309
0.000515099
0.00553497
0.000381635
0.00550939
0.000242073
0.00549673
9.82113e-05
-4.80877e-05
0.00569975
0.000828321
-0.00577144
0.00563863
0.000701819
0.00558892
0.000564816
0.00555127
0.000419286
0.0055262
0.000267143
0.00551408
0.000110329
-4.91415e-05
0.0057155
0.000899615
-0.00578679
0.00565481
0.000762502
0.00560558
0.000614052
0.00556845
0.000456414
0.00554394
0.00029165
0.00553242
0.000121846
-5.0832e-05
0.005732
0.000970464
-0.00580285
0.00567181
0.000822694
0.00562312
0.000662748
0.00558657
0.000492958
0.00556269
0.000315532
0.00555184
0.0001327
-5.32251e-05
0.00574932
0.0010408
-0.00581966
0.00568968
0.000882331
0.00564159
0.000710839
0.0056057
0.000528849
0.00558251
0.000338719
0.00557239
0.000142817
-5.63946e-05
0.00576747
0.00111057
-0.00583723
0.00570846
0.000941339
0.00566105
0.000758249
0.00562589
0.00056401
0.00560348
0.000361131
0.00559418
0.000152117
-6.04234e-05
0.00578651
0.00117967
-0.00585561
0.00572821
0.000999634
0.00568157
0.00080489
0.00564723
0.000598353
0.00562568
0.000382678
0.00561729
0.000160507
-6.54053e-05
0.00580647
0.00574898
0.00570321
0.00566978
0.0056492
0.00564183
0.000167886
-7.14456e-05
0.00566791
0.00537896
-0.000200973
0.000195669
0.00538447
-0.000203686
0.000198176
0.00539019
-0.000206288
0.00020057
0.00539612
-0.000208766
0.000202838
0.00540226
-0.000211105
0.000204964
0.00540861
-0.000213288
0.000206935
0.00541517
-0.000215299
0.000208735
0.00542195
-0.000217123
0.000210348
0.00542893
-0.00021874
0.000211758
0.00543611
-0.000220134
0.000212948
0.0054435
-0.000221287
0.000213901
0.00545108
-0.00022218
0.000214602
0.00545884
-0.000222794
0.000215031
0.00546678
-0.00022311
0.000215172
0.00547488
-0.00022311
0.000215008
0.00548313
-0.000222774
0.000214522
0.00549152
-0.000222085
0.000213696
0.00550003
-0.000221022
0.000212514
0.00550864
-0.000219569
0.000210959
0.00551733
-0.000217709
0.000209017
0.00552608
-0.000215424
0.000206673
0.00553487
-0.000212699
0.000203912
0.00554367
-0.000209522
0.000200724
0.00555245
-0.000205878
0.000197096
0.00556119
-0.000201757
0.000193021
0.00556985
-0.000197151
0.00018849
0.0055784
-0.000192053
0.000183498
0.00558682
-0.000186459
0.000178043
0.00559506
-0.000180367
0.000172124
0.0056031
-0.000173779
0.000165742
0.00561089
-0.000166697
0.000158902
0.00561841
-0.000159129
0.000151611
0.00562561
-0.000151081
0.000143879
-0.00014255
0.000135712
0.00537629
-0.000206375
0.00538191
-0.000209307
0.00538775
-0.000212132
0.00539382
-0.000214835
0.00540012
-0.0002174
0.00540664
-0.000219811
0.00541339
-0.000222051
0.00542037
-0.000224102
0.00542758
-0.000225945
0.00543501
-0.000227562
0.00544265
-0.000228932
0.00545051
-0.000230036
0.00545857
-0.000230853
0.00546682
-0.000231364
0.00547526
-0.000231547
0.00548386
-0.000231381
0.00549262
-0.000230846
0.00550152
-0.000229921
0.00551054
-0.000228587
0.00551966
-0.000226824
0.00552885
-0.000224614
0.00553809
-0.000221939
0.00554735
-0.000218784
0.0055566
-0.000215134
0.00556582
-0.000210978
0.00557498
-0.000206303
0.00558403
-0.000201102
0.00559294
-0.00019537
0.00560167
-0.000189105
0.0056102
-0.000182305
0.00561848
-0.000174974
0.00562646
-0.000167116
0.00563412
-0.000158736
-0.000149817
0.0053734
-0.000211872
0.00537913
-0.000215037
0.0053851
-0.000218099
0.00539131
-0.000221043
0.00539776
-0.000223851
0.00540445
-0.000226507
0.00541139
-0.000228993
0.00541858
-0.000231289
0.00542601
-0.000233377
0.00543368
-0.000235235
0.0054416
-0.000236843
0.00544974
-0.000238178
0.0054581
-0.00023922
0.00546669
-0.000239945
0.00547547
-0.000240332
0.00548445
-0.000240356
0.0054936
-0.000239996
0.0055029
-0.000239229
0.00551235
-0.000238032
0.00552191
-0.000236385
0.00553156
-0.000234267
0.00554128
-0.000231658
0.00555104
-0.00022854
0.0055608
-0.000224897
0.00557054
-0.000220714
0.00558021
-0.000215978
0.00558979
-0.000210681
0.00559923
-0.000204814
0.0056085
-0.000198373
0.00561756
-0.000191358
0.00562635
-0.00018377
0.00563485
-0.000175613
0.005643
-0.000166885
-0.000157555
0.00537028
-0.000217458
0.00537611
-0.000220872
0.0053822
-0.000224186
0.00538854
-0.000227386
0.00539515
-0.000230455
0.00540201
-0.000233374
0.00540915
-0.000236124
0.00541654
-0.000238686
0.0054242
-0.000241038
0.00543213
-0.000243159
0.00544031
-0.000245025
0.00544875
-0.000246615
0.00545743
-0.000247903
0.00546635
-0.000248866
0.0054755
-0.000249478
0.00548486
-0.000249716
0.00549441
-0.000249553
0.00550415
-0.000248965
0.00551405
-0.000247928
0.00552408
-0.000246417
0.00553422
-0.00024441
0.00554445
-0.000241885
0.00555473
-0.000238821
0.00556503
-0.000235198
0.00557532
-0.000231001
0.00558555
-0.000226214
0.0055957
-0.000220826
0.00560571
-0.000214828
0.00561555
-0.000208213
0.00562517
-0.00020098
0.00563453
-0.000193129
0.00564358
-0.00018466
0.00565226
-0.000175569
-0.000165807
0.0053669
-0.00022313
0.00537284
-0.000226806
0.00537904
-0.000230389
0.00538552
-0.000233863
0.00539227
-0.00023721
0.00539931
-0.000240411
0.00540663
-0.000243446
0.00541424
-0.000246293
0.00542213
-0.000248932
0.00543031
-0.000251337
0.00543877
-0.000253486
0.00544751
-0.000255353
0.00545652
-0.000256912
0.00546579
-0.000258136
0.00547531
-0.000259
0.00548507
-0.000259475
0.00549505
-0.000259534
0.00550524
-0.000259151
0.0055156
-0.000258296
0.00552613
-0.000256945
0.00553679
-0.000255071
0.00554756
-0.00025265
0.0055584
-0.000249657
0.00556927
-0.000246073
0.00558014
-0.000241876
0.00559098
-0.000237049
0.00560173
-0.00023158
0.00561236
-0.000225456
0.00562282
-0.000218669
0.00563305
-0.000211216
0.00564302
-0.000203095
0.00565266
-0.000194305
0.00566193
-0.000184836
-0.000174618
0.00536326
-0.00022888
0.00536929
-0.000232835
0.0053756
-0.000236703
0.00538221
-0.000240469
0.00538911
-0.000244113
0.00539632
-0.000247615
0.00540383
-0.000250956
0.00541164
-0.000254112
0.00541977
-0.000257059
0.00542821
-0.000259774
0.00543695
-0.000262229
0.005446
-0.000264399
0.00545534
-0.000266255
0.00546497
-0.000267768
0.00547488
-0.00026891
0.00548506
-0.00026965
0.00549548
-0.000269959
0.00550614
-0.000269806
0.005517
-0.000269161
0.00552805
-0.000267995
0.00553926
-0.000266279
0.0055506
-0.000263985
0.00556202
-0.000261086
0.00557351
-0.000257558
0.00558501
-0.000253378
0.00559649
-0.000248526
0.00560789
-0.000242986
0.00561918
-0.000236743
0.0056303
-0.000229788
0.0056412
-0.000222115
0.00565182
-0.000213719
0.00566212
-0.000204598
0.00567202
-0.000194734
-0.000184037
0.00535933
-0.000234701
0.00536545
-0.000238951
0.00537187
-0.000243122
0.00537859
-0.000247198
0.00538564
-0.000251159
0.00539301
-0.000254984
0.00540071
-0.000258653
0.00540874
-0.00026214
0.0054171
-0.000265421
0.00542579
-0.00026847
0.00543482
-0.00027126
0.00544419
-0.00027376
0.00545387
-0.000275941
0.00546388
-0.000277772
0.00547419
-0.000279222
0.00548479
-0.000280257
0.00549568
-0.000280845
0.00550683
-0.000280953
0.00551821
-0.000280547
0.00552981
-0.000279595
0.0055416
-0.000278064
0.00555354
-0.000275923
0.00556559
-0.000273142
0.00557773
-0.000269693
0.0055899
-0.00026555
0.00560206
-0.00026069
0.00561417
-0.000255092
0.00562617
-0.000248741
0.005638
-0.000241623
0.00564962
-0.00023373
0.00566095
-0.000225056
0.00567195
-0.000215594
0.00568254
-0.000205321
-0.00019412
0.0053551
-0.000240584
0.00536129
-0.000245146
0.00536781
-0.000249639
0.00537466
-0.000254044
0.00538184
-0.000258343
0.00538937
-0.000262514
0.00539725
-0.000266533
0.00540549
-0.000270377
0.00541408
-0.000274018
0.00542304
-0.000277429
0.00543236
-0.00028058
0.00544204
-0.00028344
0.00545208
-0.000285978
0.00546247
-0.000288158
0.00547319
-0.000289948
0.00548425
-0.000291311
0.00549561
-0.000292212
0.00550727
-0.000292613
0.0055192
-0.000292479
0.00553138
-0.000291773
0.00554378
-0.000290458
0.00555635
-0.0002885
0.00556908
-0.000285865
0.00558191
-0.000282521
0.00559479
-0.000278438
0.00560769
-0.000273589
0.00562055
-0.00026795
0.00563331
-0.000261502
0.00564592
-0.000254229
0.00565831
-0.000246119
0.00567041
-0.000237164
0.00568217
-0.000227353
0.00569351
-0.000216655
-0.000204926
0.00535055
-0.00024652
0.00535681
-0.000251412
0.00536342
-0.000256244
0.00537037
-0.000261
0.00537769
-0.000265658
0.00538537
-0.000270197
0.00539343
-0.000274592
0.00540187
-0.000278818
0.0054107
-0.000282847
0.00541992
-0.000286649
0.00542953
-0.000290193
0.00543954
-0.000293446
0.00544993
-0.000296372
0.00546071
-0.000298936
0.00547186
-0.000301101
0.00548338
-0.000302828
0.00549525
-0.000304077
0.00550744
-0.000304809
0.00551995
-0.000304983
0.00553273
-0.000304558
0.00554577
-0.000303495
0.00555902
-0.000301754
0.00557245
-0.000299296
0.00558602
-0.000296086
0.00559967
-0.00029209
0.00561336
-0.000287276
0.00562702
-0.000281616
0.00564061
-0.000275086
0.00565405
-0.000267668
0.00566727
-0.000259346
0.00568022
-0.000250109
0.00569281
-0.000239942
0.00570496
-0.000228805
-0.000216522
0.00534566
-0.000252499
0.00535198
-0.000257737
0.00535867
-0.000262929
0.00536572
-0.000268055
0.00537316
-0.000273095
0.00538099
-0.000278026
0.00538922
-0.000282824
0.00539786
-0.00028746
0.00540692
-0.000291906
0.0054164
-0.00029613
0.00542631
-0.0003001
0.00543664
-0.000303778
0.0054474
-0.00030713
0.00545858
-0.000310115
0.00547017
-0.000312693
0.00548216
-0.000314823
0.00549455
-0.00031646
0.0055073
-0.000317563
0.0055204
-0.000318085
0.00553383
-0.000317982
0.00554754
-0.000317209
0.00556151
-0.000315722
0.00557569
-0.000313479
0.00559004
-0.000310437
0.00560451
-0.000306558
0.00561904
-0.000301806
0.00563357
-0.000296147
0.00564804
-0.000289555
0.00566238
-0.000282006
0.00567651
-0.00027348
0.00569037
-0.000263962
0.00570386
-0.000253434
0.0057169
-0.000241842
-0.000228978
0.00534041
-0.000258507
0.00534679
-0.00026411
0.00535354
-0.000269681
0.00536068
-0.000275199
0.00536823
-0.000280645
0.0053762
-0.000285994
0.0053846
-0.00029122
0.00539343
-0.000296296
0.00540272
-0.00030119
0.00541245
-0.000305869
0.00542265
-0.000310299
0.00543332
-0.000314441
0.00544444
-0.000318255
0.00545603
-0.000321701
0.00546807
-0.000324734
0.00548056
-0.00032731
0.00549348
-0.00032938
0.00550681
-0.000330897
0.00552054
-0.000331812
0.00553463
-0.000332075
0.00554906
-0.000331636
0.00556378
-0.000330447
0.00557876
-0.000328458
0.00559395
-0.000325623
0.00560929
-0.000321897
0.00562472
-0.000317239
0.00564018
-0.000311611
0.00565561
-0.000304979
0.00567092
-0.000297315
0.00568603
-0.000288596
0.00570087
-0.000278801
0.00571534
-0.000267907
0.00572935
-0.000255848
-0.000242376
0.0053348
-0.00026453
0.00534121
-0.000270517
0.00534802
-0.000276486
0.00535524
-0.00028242
0.00536289
-0.000288295
0.00537098
-0.000294087
0.00537953
-0.000299771
0.00538855
-0.000305316
0.00539805
-0.000310691
0.00540804
-0.000315861
0.00541853
-0.000320788
0.00542952
-0.000325432
0.00544102
-0.000329752
0.00545302
-0.000333702
0.00546552
-0.000337235
0.00547852
-0.000340303
0.00549199
-0.000342853
0.00550592
-0.000344834
0.0055203
-0.000346191
0.0055351
-0.000346869
0.00555028
-0.000346814
0.0055658
-0.00034597
0.00558162
-0.000344283
0.0055977
-0.000341698
0.00561397
-0.000338167
0.00563037
-0.00033364
0.00564683
-0.000328075
0.00566329
-0.00032143
0.00567964
-0.000313673
0.00569582
-0.000304776
0.00571173
-0.000294712
0.00572728
-0.000283449
0.00574234
-0.000270911
-0.000256802
0.0053288
-0.000270553
0.00533523
-0.000276942
0.00534207
-0.000283331
0.00534935
-0.000289701
0.00535709
-0.000296031
0.0053653
-0.000302294
0.00537399
-0.000308465
0.00538319
-0.000314512
0.0053929
-0.000320402
0.00540313
-0.000326098
0.00541391
-0.000331562
0.00542523
-0.000336751
0.0054371
-0.00034162
0.00544951
-0.000346121
0.00546248
-0.000350203
0.00547599
-0.000353813
0.00549004
-0.000356896
0.0055046
-0.000359395
0.00551966
-0.000361248
0.00553518
-0.000362398
0.00555115
-0.000362781
0.00556752
-0.000362336
0.00558424
-0.000361002
0.00560126
-0.00035872
0.00561852
-0.00035543
0.00563596
-0.000351078
0.0056535
-0.000345614
0.00567106
-0.00033899
0.00568855
-0.000331167
0.00570588
-0.00032211
0.00572296
-0.000311786
0.00573967
-0.000300156
0.00575588
-0.000287128
-0.000272355
0.0053224
-0.000276559
0.00532882
-0.000283368
0.00533569
-0.000290197
0.00534301
-0.000297027
0.00535082
-0.000303836
0.00535913
-0.000310599
0.00536795
-0.000317287
0.0053773
-0.000323869
0.00538721
-0.00033031
0.00539769
-0.000336572
0.00540874
-0.000342615
0.00542038
-0.000348393
0.00543262
-0.000353859
0.00544546
-0.000358961
0.0054589
-0.000363644
0.00547294
-0.000367853
0.00548757
-0.000371526
0.00550277
-0.0003746
0.00551854
-0.000377011
0.00553483
-0.000378692
0.00555163
-0.000379575
0.00556888
-0.00037959
0.00558655
-0.00037867
0.00560457
-0.000376746
0.0056229
-0.000373752
0.00564144
-0.000369627
0.00566014
-0.000364309
0.00567889
-0.000357746
0.00569762
-0.000349889
0.0057162
-0.000340695
0.00573454
-0.000330127
0.00575252
-0.000318135
0.00577
-0.000304608
-0.000289142
0.00531557
-0.000282526
0.00532198
-0.000289774
0.00532884
-0.000297065
0.00533619
-0.000304378
0.00534405
-0.000311693
0.00535243
-0.000318983
0.00536137
-0.00032622
0.00537087
-0.000333371
0.00538096
-0.000340401
0.00539166
-0.00034727
0.00540298
-0.000353936
0.00541494
-0.000360351
0.00542754
-0.000366464
0.0054408
-0.000372221
0.00545472
-0.000377563
0.0054693
-0.00038243
0.00548453
-0.000386755
0.0055004
-0.00039047
0.00551689
-0.000393505
0.00553398
-0.000395785
0.00555164
-0.000397235
0.00556983
-0.000397779
0.0055885
-0.000397339
0.0056076
-0.00039584
0.00562705
-0.000393205
0.00564679
-0.000389364
0.00566672
-0.000384246
0.00568677
-0.00037779
0.00570682
-0.000369938
0.00572676
-0.00036064
0.00574648
-0.000349848
0.00576585
-0.000337502
0.00578471
-0.00032347
-0.000307283
0.0053083
-0.000288435
0.00531467
-0.00029614
0.00532151
-0.000303912
0.00532887
-0.000311733
0.00533675
-0.000319579
0.0053452
-0.000327425
0.00535422
-0.000335243
0.00536385
-0.000342999
0.0053741
-0.000350658
0.00538501
-0.000358177
0.00539659
-0.000365512
0.00540885
-0.000372613
0.00542181