/*--------------------------------*- C++ -*----------------------------------*\
| =========                 |                                                 |
| \\      /  F ield         | OpenFOAM: The Open Source CFD Toolbox           |
|  \\    /   O peration     | Version:  2412                                  |
|   \\  /    A nd           | Website:  www.openfoam.com                      |
|    \\/     M anipulation  |                                                 |
\*---------------------------------------------------------------------------*/
FoamFile
{
    version     2.0;
    format      ascii;
    arch        "LSB;label=32;scalar=64";
    class       volVectorField;
    location    "29.5";
    object      vorticity;
}
// * * * * * * * * * * * * * * * * * * * * * * * * * * * * * * * * * * * * * //

dimensions      [0 0 -1 0 0 0 0];

internalField   nonuniform List<vector> 
5285
(
(0 -0 -0.000546561)
(0 -0 -0.000496483)
(0 -0 -0.000447883)
(0 -0 -0.000400393)
(0 -0 -0.000422992)
(0 -0 -0.000383724)
(0 -0 -0.000345251)
(0 -0 -0.000307924)
(0 -0 -0.000272222)
(0 -0 -0.000237987)
(0 -0 -0.000206281)
(0 -0 -0.000175386)
(0 -0 -0.000146831)
(0 -0 -0.00012062)
(0 -0 -9.68101e-05)
(0 -0 -7.54603e-05)
(0 -0 -5.66191e-05)
(0 -0 -4.03136e-05)
(0 -0 -2.65357e-05)
(0 -0 -1.52325e-05)
(0 -0 -6.29757e-06)
(0 -0 4.3077e-07)
(0 -0 5.16796e-06)
(0 -0 8.17424e-06)
(0 -0 9.74197e-06)
(0 -0 1.0177e-05)
(0 -0 9.78299e-06)
(0 -0 8.84075e-06)
(0 -0 7.59731e-06)
(0 -0 6.25403e-06)
(0 -0 4.96467e-06)
(0 -0 3.83518e-06)
(0 -0 2.93135e-06)
(0 -0 2.2836e-06)
(0 -0 1.89841e-06)
(0 -0 1.76191e-06)
(0 -0 1.84573e-06)
(0 -0 2.10642e-06)
(0 -0 2.48569e-06)
(0 -0 2.90951e-06)
(0 -0 3.292e-06)
(0 -0 3.54112e-06)
(0 -0 3.57241e-06)
(0 -0 3.32485e-06)
(0 -0 2.77725e-06)
(0 -0 1.96294e-06)
(0 -0 8.99561e-07)
(0 -0 4.34138e-08)
(0 -0 -0.000320776)
(0 -0 -0.000289603)
(0 -0 -0.000259385)
(0 -0 -0.000230197)
(0 -0 -0.000202278)
(0 -0 -0.000176123)
(0 -0 -0.000150821)
(0 -0 -0.000126792)
(0 -0 -0.000104299)
(0 -0 -8.35487e-05)
(0 -0 -6.46903e-05)
(0 -0 -4.78319e-05)
(0 -0 -3.30521e-05)
(0 -0 -2.03972e-05)
(0 -0 -9.87518e-06)
(0 -0 -1.44795e-06)
(0 -0 4.97424e-06)
(0 -0 9.53484e-06)
(0 -0 1.24283e-05)
(0 -0 1.38906e-05)
(0 -0 1.41873e-05)
(0 -0 1.35963e-05)
(0 -0 1.23901e-05)
(0 -0 1.08206e-05)
(0 -0 9.10356e-06)
(0 -0 7.41235e-06)
(0 -0 5.87355e-06)
(0 -0 4.56931e-06)
(0 -0 3.54305e-06)
(0 -0 2.80807e-06)
(0 -0 2.3546e-06)
(0 -0 2.158e-06)
(0 -0 2.18161e-06)
(0 -0 2.37874e-06)
(0 -0 2.69068e-06)
(0 -0 3.04702e-06)
(0 -0 3.36664e-06)
(0 -0 3.56497e-06)
(0 -0 3.56552e-06)
(0 -0 3.3131e-06)
(0 -0 2.7894e-06)
(0 -0 2.02706e-06)
(0 -0 1.0419e-06)
(0 -0 2.9513e-07)
(0 -0 -0.0002382)
(0 -0 -0.000213324)
(0 -0 -0.000189258)
(0 -0 -0.000166075)
(0 -0 -0.000143881)
(0 -0 -0.000122979)
(0 -0 -0.000102966)
(0 -0 -8.39828e-05)
(0 -0 -6.62323e-05)
(0 -0 -4.9897e-05)
(0 -0 -3.51266e-05)
(0 -0 -2.20398e-05)
(0 -0 -1.07246e-05)
(0 -0 -1.23451e-06)
(0 -0 6.41741e-06)
(0 -0 1.22647e-05)
(0 -0 1.63916e-05)
(0 -0 1.89345e-05)
(0 -0 2.00773e-05)
(0 -0 2.00431e-05)
(0 -0 1.90803e-05)
(0 -0 1.74473e-05)
(0 -0 1.53944e-05)
(0 -0 1.31494e-05)
(0 -0 1.09038e-05)
(0 -0 8.80652e-06)
(0 -0 6.96047e-06)
(0 -0 5.4262e-06)
(0 -0 4.22747e-06)
(0 -0 3.36041e-06)
(0 -0 2.80139e-06)
(0 -0 2.51458e-06)
(0 -0 2.45557e-06)
(0 -0 2.57307e-06)
(0 -0 2.80751e-06)
(0 -0 3.0905e-06)
(0 -0 3.34568e-06)
(0 -0 3.49443e-06)
(0 -0 3.46609e-06)
(0 -0 3.21083e-06)
(0 -0 2.71291e-06)
(0 -0 2.00454e-06)
(0 -0 1.09524e-06)
(0 -0 4.36027e-07)
(0 -0 -0.000173973)
(0 -0 -0.000153609)
(0 -0 -0.000133907)
(0 -0 -0.00011487)
(0 -0 -9.66354e-05)
(0 -0 -7.92593e-05)
(0 -0 -6.28304e-05)
(0 -0 -4.74306e-05)
(0 -0 -3.31808e-05)
(0 -0 -2.02123e-05)
(0 -0 -8.64844e-06)
(0 -0 1.40527e-06)
(0 -0 9.86917e-06)
(0 -0 1.6697e-05)
(0 -0 2.18828e-05)
(0 -0 2.54669e-05)
(0 -0 2.75396e-05)
(0 -0 2.82407e-05)
(0 -0 2.77547e-05)
(0 -0 2.63012e-05)
(0 -0 2.41214e-05)
(0 -0 2.14619e-05)
(0 -0 1.8558e-05)
(0 -0 1.56195e-05)
(0 -0 1.28183e-05)
(0 -0 1.02827e-05)
(0 -0 8.09534e-06)
(0 -0 6.29727e-06)
(0 -0 4.8944e-06)
(0 -0 3.86706e-06)
(0 -0 3.17848e-06)
(0 -0 2.78216e-06)
(0 -0 2.62619e-06)
(0 -0 2.65461e-06)
(0 -0 2.8064e-06)
(0 -0 3.01448e-06)
(0 -0 3.20628e-06)
(0 -0 3.30827e-06)
(0 -0 3.25501e-06)
(0 -0 3.00118e-06)
(0 -0 2.53338e-06)
(0 -0 1.88343e-06)
(0 -0 1.05521e-06)
(0 -0 5.32582e-07)
(0 -0 -0.000124978)
(0 -0 -0.000107733)
(0 -0 -9.10261e-05)
(0 -0 -7.48398e-05)
(0 -0 -5.91966e-05)
(0 -0 -4.43044e-05)
(0 -0 -3.03402e-05)
(0 -0 -1.74057e-05)
(0 -0 -5.61106e-06)
(0 -0 4.93124e-06)
(0 -0 1.41154e-05)
(0 -0 2.18514e-05)
(0 -0 2.80749e-05)
(0 -0 3.27547e-05)
(0 -0 3.59009e-05)
(0 -0 3.75698e-05)
(0 -0 3.7867e-05)
(0 -0 3.69451e-05)
(0 -0 3.49983e-05)
(0 -0 3.22515e-05)
(0 -0 2.8946e-05)
(0 -0 2.5324e-05)
(0 -0 2.16118e-05)
(0 -0 1.80063e-05)
(0 -0 1.46642e-05)
(0 -0 1.16963e-05)
(0 -0 9.16804e-06)
(0 -0 7.10292e-06)
(0 -0 5.49085e-06)
(0 -0 4.29776e-06)
(0 -0 3.47459e-06)
(0 -0 2.96503e-06)
(0 -0 2.71008e-06)
(0 -0 2.64933e-06)
(0 -0 2.72021e-06)
(0 -0 2.85674e-06)
(0 -0 2.98957e-06)
(0 -0 3.0498e-06)
(0 -0 2.97687e-06)
(0 -0 2.72965e-06)
(0 -0 2.29697e-06)
(0 -0 1.71048e-06)
(0 -0 9.69302e-07)
(0 -0 5.71139e-07)
(0 -0 -8.81295e-05)
(0 -0 -7.29151e-05)
(0 -0 -5.81384e-05)
(0 -0 -4.37881e-05)
(0 -0 -2.98735e-05)
(0 -0 -1.66374e-05)
(0 -0 -4.30277e-06)
(0 -0 6.99433e-06)
(0 -0 1.7127e-05)
(0 -0 2.59788e-05)
(0 -0 3.34484e-05)
(0 -0 3.94562e-05)
(0 -0 4.39522e-05)
(0 -0 4.69236e-05)
(0 -0 4.84013e-05)
(0 -0 4.8464e-05)
(0 -0 4.72389e-05)
(0 -0 4.4899e-05)
(0 -0 4.16548e-05)
(0 -0 3.7743e-05)
(0 -0 3.34118e-05)
(0 -0 2.8904e-05)
(0 -0 2.44419e-05)
(0 -0 2.02136e-05)
(0 -0 1.63634e-05)
(0 -0 1.29882e-05)
(0 -0 1.01375e-05)
(0 -0 7.81932e-06)
(0 -0 6.00903e-06)
(0 -0 4.65914e-06)
(0 -0 3.70926e-06)
(0 -0 3.09399e-06)
(0 -0 2.74761e-06)
(0 -0 2.60561e-06)
(0 -0 2.60398e-06)
(0 -0 2.67769e-06)
(0 -0 2.7604e-06)
(0 -0 2.78753e-06)
(0 -0 2.70328e-06)
(0 -0 2.47053e-06)
(0 -0 2.08042e-06)
(0 -0 1.5646e-06)
(0 -0 9.18313e-07)
(0 -0 6.43376e-07)
(0 -0 -6.08699e-05)
(0 -0 -4.68466e-05)
(0 -0 -3.31789e-05)
(0 -0 -1.98771e-05)
(0 -0 -6.96773e-06)
(0 -0 5.28787e-06)
(0 -0 1.66398e-05)
(0 -0 2.69221e-05)
(0 -0 3.59854e-05)
(0 -0 4.37006e-05)
(0 -0 4.99627e-05)
(0 -0 5.46974e-05)
(0 -0 5.78673e-05)
(0 -0 5.94784e-05)
(0 -0 5.95847e-05)
(0 -0 5.82907e-05)
(0 -0 5.57504e-05)
(0 -0 5.21616e-05)
(0 -0 4.77565e-05)
(0 -0 4.27889e-05)
(0 -0 3.75181e-05)
(0 -0 3.21921e-05)
(0 -0 2.70326e-05)
(0 -0 2.22222e-05)
(0 -0 1.78955e-05)
(0 -0 1.41371e-05)
(0 -0 1.09827e-05)
(0 -0 8.42637e-06)
(0 -0 6.42966e-06)
(0 -0 4.93281e-06)
(0 -0 3.86486e-06)
(0 -0 3.15192e-06)
(0 -0 2.72196e-06)
(0 -0 2.50674e-06)
(0 -0 2.44088e-06)
(0 -0 2.46029e-06)
(0 -0 2.50153e-06)
(0 -0 2.50422e-06)
(0 -0 2.41717e-06)
(0 -0 2.20722e-06)
(0 -0 1.86794e-06)
(0 -0 1.43117e-06)
(0 -0 8.88995e-07)
(0 -0 7.42432e-07)
(0 -0 -4.1099e-05)
(0 -0 -2.76311e-05)
(0 -0 -1.44516e-05)
(0 -0 -1.59919e-06)
(0 -0 1.08702e-05)
(0 -0 2.26756e-05)
(0 -0 3.35442e-05)
(0 -0 4.32835e-05)
(0 -0 5.17219e-05)
(0 -0 5.8715e-05)
(0 -0 6.41511e-05)
(0 -0 6.79586e-05)
(0 -0 7.01111e-05)
(0 -0 7.0633e-05)
(0 -0 6.96028e-05)
(0 -0 6.71529e-05)
(0 -0 6.34664e-05)
(0 -0 5.87695e-05)
(0 -0 5.33196e-05)
(0 -0 4.73908e-05)
(0 -0 4.12569e-05)
(0 -0 3.51743e-05)
(0 -0 2.93667e-05)
(0 -0 2.40132e-05)
(0 -0 1.92412e-05)
(0 -0 1.51242e-05)
(0 -0 1.16857e-05)
(0 -0 8.90675e-06)
(0 -0 6.7363e-06)
(0 -0 5.10309e-06)
(0 -0 3.92633e-06)
(0 -0 3.12411e-06)
(0 -0 2.61864e-06)
(0 -0 2.33819e-06)
(0 -0 2.21625e-06)
(0 -0 2.18969e-06)
(0 -0 2.19795e-06)
(0 -0 2.18477e-06)
(0 -0 2.10349e-06)
(0 -0 1.92502e-06)
(0 -0 1.64547e-06)
(0 -0 1.29706e-06)
(0 -0 8.69263e-07)
(0 -0 8.59859e-07)
(0 -0 -2.71129e-05)
(0 -0 -1.37328e-05)
(0 -0 -5.84625e-07)
(0 -0 1.22603e-05)
(0 -0 2.47115e-05)
(0 -0 3.64652e-05)
(0 -0 4.72252e-05)
(0 -0 5.67734e-05)
(0 -0 6.49165e-05)
(0 -0 7.14945e-05)
(0 -0 7.63886e-05)
(0 -0 7.95287e-05)
(0 -0 8.08987e-05)
(0 -0 8.05416e-05)
(0 -0 7.85604e-05)
(0 -0 7.51166e-05)
(0 -0 7.04239e-05)
(0 -0 6.47384e-05)
(0 -0 5.8345e-05)
(0 -0 5.154e-05)
(0 -0 4.46139e-05)
(0 -0 3.78332e-05)
(0 -0 3.14256e-05)
(0 -0 2.55684e-05)
(0 -0 2.03828e-05)
(0 -0 1.5933e-05)
(0 -0 1.22312e-05)
(0 -0 9.24638e-06)
(0 -0 6.91582e-06)
(0 -0 5.1576e-06)
(0 -0 3.8817e-06)
(0 -0 2.99883e-06)
(0 -0 2.42595e-06)
(0 -0 2.08821e-06)
(0 -0 1.91814e-06)
(0 -0 1.8537e-06)
(0 -0 1.83722e-06)
(0 -0 1.81657e-06)
(0 -0 1.74971e-06)
(0 -0 1.61162e-06)
(0 -0 1.4011e-06)
(0 -0 1.151e-06)
(0 -0 8.48622e-07)
(0 -0 9.8722e-07)
(0 -0 -1.75447e-05)
(0 -0 -3.92226e-06)
(0 -0 9.51638e-06)
(0 -0 2.26652e-05)
(0 -0 3.53972e-05)
(0 -0 4.73833e-05)
(0 -0 5.83032e-05)
(0 -0 6.7913e-05)
(0 -0 7.59982e-05)
(0 -0 8.23836e-05)
(0 -0 8.69436e-05)
(0 -0 8.96094e-05)
(0 -0 9.03752e-05)
(0 -0 8.93023e-05)
(0 -0 8.65183e-05)
(0 -0 8.22139e-05)
(0 -0 7.66339e-05)
(0 -0 7.00651e-05)
(0 -0 6.28202e-05)
(0 -0 5.52189e-05)
(0 -0 4.75692e-05)
(0 -0 4.01489e-05)
(0 -0 3.31904e-05)
(0 -0 2.68705e-05)
(0 -0 2.13052e-05)
(0 -0 1.65502e-05)
(0 -0 1.26074e-05)
(0 -0 9.4348e-06)
(0 -0 6.95877e-06)
(0 -0 5.08753e-06)
(0 -0 3.72254e-06)
(0 -0 2.76785e-06)
(0 -0 2.13568e-06)
(0 -0 1.7484e-06)
(0 -0 1.53784e-06)
(0 -0 1.4433e-06)
(0 -0 1.41007e-06)
(0 -0 1.39022e-06)
(0 -0 1.34631e-06)
(0 -0 1.25753e-06)
(0 -0 1.12557e-06)
(0 -0 9.8411e-07)
(0 -0 8.18666e-07)
(0 -0 1.11725e-06)
(0 -0 -1.13094e-05)
(0 -0 2.77315e-06)
(0 -0 1.6713e-05)
(0 -0 3.03692e-05)
(0 -0 4.35777e-05)
(0 -0 5.59838e-05)
(0 -0 6.72422e-05)
(0 -0 7.70838e-05)
(0 -0 8.52733e-05)
(0 -0 9.16214e-05)
(0 -0 9.59956e-05)
(0 -0 9.83288e-05)
(0 -0 9.86257e-05)
(0 -0 9.69653e-05)
(0 -0 9.34998e-05)
(0 -0 8.84483e-05)
(0 -0 8.20862e-05)
(0 -0 7.47308e-05)
(0 -0 6.6722e-05)
(0 -0 5.84031e-05)
(0 -0 5.00993e-05)
(0 -0 4.20999e-05)
(0 -0 3.46426e-05)
(0 -0 2.7904e-05)
(0 -0 2.19956e-05)
(0 -0 1.69656e-05)
(0 -0 1.28063e-05)
(0 -0 9.46548e-06)
(0 -0 6.85974e-06)
(0 -0 4.88816e-06)
(0 -0 3.44456e-06)
(0 -0 2.42701e-06)
(0 -0 1.74353e-06)
(0 -0 1.3142e-06)
(0 -0 1.07053e-06)
(0 -0 9.53347e-07)
(0 -0 9.11037e-07)
(0 -0 8.99914e-07)
(0 -0 8.87271e-07)
(0 -0 8.56669e-07)
(0 -0 8.1283e-07)
(0 -0 7.90495e-07)
(0 -0 7.7367e-07)
(0 -0 1.24475e-06)
(0 -0 -7.5532e-06)
(0 -0 7.11487e-06)
(0 -0 2.16754e-05)
(0 -0 3.59533e-05)
(0 -0 4.97487e-05)
(0 -0 6.26815e-05)
(0 -0 7.43823e-05)
(0 -0 8.45577e-05)
(0 -0 9.29526e-05)
(0 -0 9.93644e-05)
(0 -0 0.000103654)
(0 -0 0.000105757)
(0 -0 0.000105688)
(0 -0 0.000103544)
(0 -0 9.94992e-05)
(0 -0 9.38012e-05)
(0 -0 8.67546e-05)
(0 -0 7.87055e-05)
(0 -0 7.00202e-05)
(0 -0 6.1064e-05)
(0 -0 5.21789e-05)
(0 -0 4.3665e-05)
(0 -0 3.57651e-05)
(0 -0 2.86559e-05)
(0 -0 2.24447e-05)
(0 -0 1.71728e-05)
(0 -0 1.28237e-05)
(0 -0 9.33619e-06)
(0 -0 6.6177e-06)
(0 -0 4.55923e-06)
(0 -0 3.04788e-06)
(0 -0 1.9765e-06)
(0 -0 1.24958e-06)
(0 -0 7.85474e-07)
(0 -0 5.1574e-07)
(0 -0 3.82964e-07)
(0 -0 3.38805e-07)
(0 -0 3.4399e-07)
(0 -0 3.70679e-07)
(0 -0 4.06892e-07)
(0 -0 4.60577e-07)
(0 -0 5.67709e-07)
(0 -0 7.11056e-07)
(0 -0 1.3671e-06)
(0 -0 -5.61021e-06)
(0 -0 9.69353e-06)
(0 -0 2.49195e-05)
(0 -0 3.98602e-05)
(0 -0 5.42825e-05)
(0 -0 6.77825e-05)
(0 -0 7.99683e-05)
(0 -0 9.05237e-05)
(0 -0 9.91755e-05)
(0 -0 0.000105709)
(0 -0 0.000109979)
(0 -0 0.000111924)
(0 -0 0.000111569)
(0 -0 0.000109025)
(0 -0 0.000104492)
(0 -0 9.82405e-05)
(0 -0 9.06037e-05)
(0 -0 8.19537e-05)
(0 -0 7.26815e-05)
(0 -0 6.31723e-05)
(0 -0 5.37836e-05)
(0 -0 4.48249e-05)
(0 -0 3.65438e-05)
(0 -0 2.91167e-05)
(0 -0 2.2647e-05)
(0 -0 1.71696e-05)
(0 -0 1.26602e-05)
(0 -0 9.04926e-06)
(0 -0 6.23625e-06)
(0 -0 4.10514e-06)
(0 -0 2.53732e-06)
(0 -0 1.42127e-06)
(0 -0 6.58696e-07)
(0 -0 1.66796e-07)
(0 -0 -1.22369e-07)
(0 -0 -2.64143e-07)
(0 -0 -3.03328e-07)
(0 -0 -2.74637e-07)
(0 -0 -2.00949e-07)
(0 -0 -8.96507e-08)
(0 -0 7.05906e-08)
(0 -0 3.1715e-07)
(0 -0 6.31756e-07)
(0 -0 1.48483e-06)
(0 -0 -4.96461e-06)
(0 -0 1.09635e-05)
(0 -0 2.68383e-05)
(0 -0 4.24236e-05)
(0 -0 5.74559e-05)
(0 -0 7.15101e-05)
(0 -0 8.41741e-05)
(0 -0 9.5111e-05)
(0 -0 0.000104031)
(0 -0 0.000110709)
(0 -0 0.000114997)
(0 -0 0.000116833)
(0 -0 0.000116253)
(0 -0 0.000113384)
(0 -0 0.000108444)
(0 -0 0.000101729)
(0 -0 9.35957e-05)
(0 -0 8.44399e-05)
(0 -0 7.46742e-05)
(0 -0 6.47016e-05)
(0 -0 5.48925e-05)
(0 -0 4.55647e-05)
(0 -0 3.69692e-05)
(0 -0 2.92817e-05)
(0 -0 2.26019e-05)
(0 -0 1.69587e-05)
(0 -0 1.2321e-05)
(0 -0 8.61175e-06)
(0 -0 5.72374e-06)
(0 -0 3.53512e-06)
(0 -0 1.92254e-06)
(0 -0 7.71079e-07)
(0 -0 -1.95224e-08)
(0 -0 -5.32526e-07)
(0 -0 -8.3488e-07)
(0 -0 -9.79464e-07)
(0 -0 -1.0073e-06)
(0 -0 -9.48398e-07)
(0 -0 -8.20558e-07)
(0 -0 -6.26435e-07)
(0 -0 -3.51155e-07)
(0 -0 4.41634e-08)
(0 -0 5.40388e-07)
(0 -0 1.6018e-06)
(0 -0 -5.21929e-06)
(0 -0 1.12717e-05)
(0 -0 2.77294e-05)
(0 -0 4.38935e-05)
(0 -0 5.94741e-05)
(0 -0 7.40275e-05)
(0 -0 8.71242e-05)
(0 -0 9.84093e-05)
(0 -0 0.000107579)
(0 -0 0.000114399)
(0 -0 0.000118718)
(0 -0 0.000120478)
(0 -0 0.000119722)
(0 -0 0.000116592)
(0 -0 0.000111324)
(0 -0 0.000104233)
(0 -0 9.56973e-05)
(0 -0 8.6134e-05)
(0 -0 7.59729e-05)
(0 -0 6.56317e-05)
(0 -0 5.54912e-05)
(0 -0 4.58754e-05)
(0 -0 3.70374e-05)
(0 -0 2.91516e-05)
(0 -0 2.2314e-05)
(0 -0 1.65479e-05)
(0 -0 1.18162e-05)
(0 -0 8.0356e-06)
(0 -0 5.0934e-06)
(0 -0 2.86313e-06)
(0 -0 1.21782e-06)
(0 -0 4.02612e-08)
(0 -0 -7.70846e-07)
(0 -0 -1.29853e-06)
(0 -0 -1.6082e-06)
(0 -0 -1.74988e-06)
(0 -0 -1.76052e-06)
(0 -0 -1.66528e-06)
(0 -0 -1.47672e-06)
(0 -0 -1.19266e-06)
(0 -0 -7.94587e-07)
(0 -0 -2.42029e-07)
(0 -0 4.45165e-07)
(0 -0 1.72514e-06)
(0 -0 -6.07022e-06)
(0 -0 1.08797e-05)
(0 -0 2.7815e-05)
(0 -0 4.44566e-05)
(0 -0 6.04908e-05)
(0 -0 7.54579e-05)
(0 -0 8.89129e-05)
(0 -0 0.000100486)
(0 -0 0.000109863)
(0 -0 0.000116802)
(0 -0 0.00012115)
(0 -0 0.000122852)
(0 -0 0.00012196)
(0 -0 0.000118628)
(0 -0 0.000113105)
(0 -0 0.000105727)
(0 -0 9.68858e-05)
(0 -0 8.70164e-05)
(0 -0 7.65623e-05)
(0 -0 6.59521e-05)
(0 -0 5.55741e-05)
(0 -0 4.57563e-05)
(0 -0 3.67521e-05)
(0 -0 2.87339e-05)
(0 -0 2.17939e-05)
(0 -0 1.59504e-05)
(0 -0 1.1161e-05)
(0 -0 7.33745e-06)
(0 -0 4.36286e-06)
(0 -0 2.10733e-06)
(0 -0 4.41641e-07)
(0 -0 -7.52605e-07)
(0 -0 -1.57682e-06)
(0 -0 -2.11306e-06)
(0 -0 -2.4246e-06)
(0 -0 -2.55812e-06)
(0 -0 -2.54629e-06)
(0 -0 -2.40917e-06)
(0 -0 -2.15398e-06)
(0 -0 -1.77362e-06)
(0 -0 -1.2459e-06)
(0 -0 -5.28661e-07)
(0 -0 3.57566e-07)
(0 -0 1.86498e-06)
(0 -0 -7.28478e-06)
(0 -0 9.97643e-06)
(0 -0 2.72561e-05)
(0 -0 4.42536e-05)
(0 -0 6.06271e-05)
(0 -0 7.59014e-05)
(0 -0 8.96195e-05)
(0 -0 0.000101401)
(0 -0 0.000110924)
(0 -0 0.000117944)
(0 -0 0.000122306)
(0 -0 0.00012396)
(0 -0 0.000122965)
(0 -0 0.000119484)
(0 -0 0.000113781)
(0 -0 0.000106201)
(0 -0 9.71529e-05)
(0 -0 8.70811e-05)
(0 -0 7.64395e-05)
(0 -0 6.56636e-05)
(0 -0 5.51458e-05)
(0 -0 4.52152e-05)
(0 -0 3.61242e-05)
(0 -0 2.80425e-05)
(0 -0 2.10578e-05)
(0 -0 1.51843e-05)
(0 -0 1.03749e-05)
(0 -0 6.53795e-06)
(0 -0 3.55343e-06)
(0 -0 1.28951e-06)
(0 -0 -3.83988e-07)
(0 -0 -1.5855e-06)
(0 -0 -2.41561e-06)
(0 -0 -2.95459e-06)
(0 -0 -3.26292e-06)
(0 -0 -3.38354e-06)
(0 -0 -3.34449e-06)
(0 -0 -3.16058e-06)
(0 -0 -2.83359e-06)
(0 -0 -2.35143e-06)
(0 -0 -1.68823e-06)
(0 -0 -8.00093e-07)
(0 -0 2.91749e-07)
(0 -0 2.03404e-06)
(0 -0 -8.73772e-06)
(0 -0 8.74774e-06)
(0 -0 2.61613e-05)
(0 -0 4.33948e-05)
(0 -0 5.99858e-05)
(0 -0 7.5447e-05)
(0 -0 8.93176e-05)
(0 -0 0.000101213)
(0 -0 0.000110808)
(0 -0 0.000117858)
(0 -0 0.00012221)
(0 -0 0.000123819)
(0 -0 0.000122748)
(0 -0 0.00011917)
(0 -0 0.000113357)
(0 -0 0.000105664)
(0 -0 9.65065e-05)
(0 -0 8.63375e-05)
(0 -0 7.56156e-05)
(0 -0 6.47791e-05)
(0 -0 5.42209e-05)
(0 -0 4.42689e-05)
(0 -0 3.51725e-05)
(0 -0 2.70974e-05)
(0 -0 2.01272e-05)
(0 -0 1.42719e-05)
(0 -0 9.4813e-06)
(0 -0 5.66091e-06)
(0 -0 2.68933e-06)
(0 -0 4.34142e-07)
(0 -0 -1.23451e-06)
(0 -0 -2.43397e-06)
(0 -0 -3.26296e-06)
(0 -0 -3.79912e-06)
(0 -0 -4.09952e-06)
(0 -0 -4.20293e-06)
(0 -0 -4.13249e-06)
(0 -0 -3.89756e-06)
(0 -0 -3.49437e-06)
(0 -0 -2.90586e-06)
(0 -0 -2.10244e-06)
(0 -0 -1.03858e-06)
(0 -0 2.63765e-07)
(0 -0 2.24702e-06)
(0 -0 -1.0202e-05)
(0 -0 7.19534e-06)
(0 -0 2.47249e-05)
(0 -0 4.19934e-05)
(0 -0 5.867e-05)
(0 -0 7.41823e-05)
(0 -0 8.80805e-05)
(0 -0 9.99833e-05)
(0 -0 0.000109568)
(0 -0 0.000116591)
(0 -0 0.000120904)
(0 -0 0.000122465)
(0 -0 0.000121344)
(0 -0 0.000117717)
(0 -0 0.000111864)
(0 -0 0.000104143)
(0 -0 9.49744e-05)
(0 -0 8.48131e-05)
(0 -0 7.41179e-05)
(0 -0 6.33258e-05)
(0 -0 5.2827e-05)
(0 -0 4.29449e-05)
(0 -0 3.39244e-05)
(0 -0 2.59262e-05)
(0 -0 1.90295e-05)
(0 -0 1.32409e-05)
(0 -0 8.50754e-06)
(0 -0 4.73373e-06)
(0 -0 1.79788e-06)
(0 -0 -4.31609e-07)
(0 -0 -2.08298e-06)
(0 -0 -3.27128e-06)
(0 -0 -4.0924e-06)
(0 -0 -4.62052e-06)
(0 -0 -4.90874e-06)
(0 -0 -4.99122e-06)
(0 -0 -4.88588e-06)
(0 -0 -4.59643e-06)
(0 -0 -4.11352e-06)
(0 -0 -3.41513e-06)
(0 -0 -2.46803e-06)
(0 -0 -1.22511e-06)
(0 -0 2.90708e-07)
(0 -0 2.51971e-06)
(0 -0 -0.00145327)
(0 -0 -0.00147604)
(0 -0 -0.00149223)
(0 -0 -0.00150415)
(0 -0 -0.00151149)
(0 -0 -0.00151294)
(0 -0 -0.00150863)
(0 -0 -0.00149867)
(0 -0 -0.00148319)
(0 -0 -0.00146234)
(0 -0 -0.00143631)
(0 -0 -0.00140529)
(0 -0 -0.00136952)
(0 -0 -0.00132929)
(0 -0 -0.0012849)
(0 -0 -0.00123674)
(0 -0 -0.00118523)
(0 -0 -0.00113082)
(0 -0 -0.00107403)
(0 -0 -0.00101541)
(0 -0 -0.000955517)
(0 -0 -0.000894932)
(0 -0 -0.000834217)
(0 -0 -0.000773905)
(0 -0 -0.000714488)
(0 -0 -0.000656381)
(0 -0 -0.00060008)
(0 -0 -0.00104843)
(0 -0 -0.00106926)
(0 -0 -0.00108593)
(0 -0 -0.00110056)
(0 -0 -0.00111163)
(0 -0 -0.00111806)
(0 -0 -0.00111998)
(0 -0 -0.00111746)
(0 -0 -0.00111057)
(0 -0 -0.00109937)
(0 -0 -0.00108396)
(0 -0 -0.00106443)
(0 -0 -0.00104094)
(0 -0 -0.00101363)
(0 -0 -0.000982739)
(0 -0 -0.000948515)
(0 -0 -0.00091127)
(0 -0 -0.000871362)
(0 -0 -0.000829194)
(0 -0 -0.000785203)
(0 -0 -0.000739856)
(0 -0 -0.000693629)
(0 -0 -0.000646996)
(0 -0 -0.000600413)
(0 -0 -0.000554298)
(0 -0 -0.000509036)
(0 -0 -0.000465043)
(0 -0 -0.000752363)
(0 -0 -0.000769631)
(0 -0 -0.000783691)
(0 -0 -0.000797718)
(0 -0 -0.000809594)
(0 -0 -0.00081813)
(0 -0 -0.000823331)
(0 -0 -0.000825185)
(0 -0 -0.000823682)
(0 -0 -0.000818817)
(0 -0 -0.000810599)
(0 -0 -0.000799054)
(0 -0 -0.000784235)
(0 -0 -0.000766226)
(0 -0 -0.000745153)
(0 -0 -0.000721184)
(0 -0 -0.000694536)
(0 -0 -0.000665474)
(0 -0 -0.000634308)
(0 -0 -0.000601385)
(0 -0 -0.000567083)
(0 -0 -0.000531797)
(0 -0 -0.000495926)
(0 -0 -0.000459855)
(0 -0 -0.000423948)
(0 -0 -0.000388536)
(0 -0 -0.000353965)
(0 -0 -0.000536821)
(0 -0 -0.000550143)
(0 -0 -0.000561402)
(0 -0 -0.000573363)
(0 -0 -0.000584518)
(0 -0 -0.000593471)
(0 -0 -0.000600108)
(0 -0 -0.000604335)
(0 -0 -0.000606074)
(0 -0 -0.000605255)
(0 -0 -0.000601825)
(0 -0 -0.000595746)
(0 -0 -0.000587004)
(0 -0 -0.000575614)
(0 -0 -0.000561628)
(0 -0 -0.000545139)
(0 -0 -0.000526285)
(0 -0 -0.000505254)
(0 -0 -0.000482276)
(0 -0 -0.000457621)
(0 -0 -0.000431594)
(0 -0 -0.000404519)
(0 -0 -0.000376732)
(0 -0 -0.000348563)
(0 -0 -0.000320326)
(0 -0 -0.000292314)
(0 -0 -0.000264838)
(0 -0 -0.000379543)
(0 -0 -0.000390116)
(0 -0 -0.00039912)
(0 -0 -0.000409311)
(0 -0 -0.000419408)
(0 -0 -0.000428085)
(0 -0 -0.00043521)
(0 -0 -0.000440657)
(0 -0 -0.000444308)
(0 -0 -0.000446056)
(0 -0 -0.000445802)
(0 -0 -0.00044346)
(0 -0 -0.000438964)
(0 -0 -0.000432274)
(0 -0 -0.000423381)
(0 -0 -0.000412317)
(0 -0 -0.000399156)
(0 -0 -0.000384017)
(0 -0 -0.000367065)
(0 -0 -0.000348505)
(0 -0 -0.000328578)
(0 -0 -0.000307552)
(0 -0 -0.00028571)
(0 -0 -0.000263338)
(0 -0 -0.000240712)
(0 -0 -0.000218097)
(0 -0 -0.000195777)
(0 -0 -0.00026554)
(0 -0 -0.000274326)
(0 -0 -0.000281713)
(0 -0 -0.00029052)
(0 -0 -0.000299629)
(0 -0 -0.000307833)
(0 -0 -0.000315022)
(0 -0 -0.000321071)
(0 -0 -0.000325854)
(0 -0 -0.000329241)
(0 -0 -0.000331107)
(0 -0 -0.000331332)
(0 -0 -0.000329812)
(0 -0 -0.000326463)
(0 -0 -0.000321229)
(0 -0 -0.000314088)
(0 -0 -0.000305062)
(0 -0 -0.000294213)
(0 -0 -0.00028165)
(0 -0 -0.000267524)
(0 -0 -0.000252023)
(0 -0 -0.000235368)
(0 -0 -0.0002178)
(0 -0 -0.00019957)
(0 -0 -0.000180927)
(0 -0 -0.000162116)
(0 -0 -0.000143408)
(0 -0 -0.000184365)
(0 -0 -0.000191544)
(0 -0 -0.000197635)
(0 -0 -0.000205328)
(0 -0 -0.000213594)
(0 -0 -0.000221317)
(0 -0 -0.000228408)
(0 -0 -0.000234755)
(0 -0 -0.000240229)
(0 -0 -0.000244694)
(0 -0 -0.000248006)
(0 -0 -0.000250026)
(0 -0 -0.000250618)
(0 -0 -0.000249663)
(0 -0 -0.000247069)
(0 -0 -0.00024277)
(0 -0 -0.000236741)
(0 -0 -0.000228998)
(0 -0 -0.000219604)
(0 -0 -0.000208661)
(0 -0 -0.000196317)
(0 -0 -0.000182751)
(0 -0 -0.000168172)
(0 -0 -0.000152806)
(0 -0 -0.000136884)
(0 -0 -0.000120637)
(0 -0 -0.000104333)
(0 -0 -0.000127335)
(0 -0 -0.000133159)
(0 -0 -0.000138195)
(0 -0 -0.000144986)
(0 -0 -0.000152557)
(0 -0 -0.000159861)
(0 -0 -0.000166821)
(0 -0 -0.00017333)
(0 -0 -0.000179263)
(0 -0 -0.000184477)
(0 -0 -0.00018882)
(0 -0 -0.000192132)
(0 -0 -0.000194258)
(0 -0 -0.00019505)
(0 -0 -0.000194382)
(0 -0 -0.000192155)
(0 -0 -0.000188303)
(0 -0 -0.000182803)
(0 -0 -0.000175675)
(0 -0 -0.000166987)
(0 -0 -0.000156846)
(0 -0 -0.000145403)
(0 -0 -0.00013284)
(0 -0 -0.000119364)
(0 -0 -0.000105195)
(0 -0 -9.05617e-05)
(0 -0 -7.57306e-05)
(0 -0 -8.78383e-05)
(0 -0 -9.25947e-05)
(0 -0 -9.68122e-05)
(0 -0 -0.000102896)
(0 -0 -0.000109922)
(0 -0 -0.000116898)
(0 -0 -0.000123752)
(0 -0 -0.00013038)
(0 -0 -0.000136657)
(0 -0 -0.000142437)
(0 -0 -0.000147556)
(0 -0 -0.000151842)
(0 -0 -0.000155119)
(0 -0 -0.000157218)
(0 -0 -0.000157983)
(0 -0 -0.000157284)
(0 -0 -0.000155022)
(0 -0 -0.00015114)
(0 -0 -0.000145622)
(0 -0 -0.000138502)
(0 -0 -0.00012986)
(0 -0 -0.00011982)
(0 -0 -0.000108544)
(0 -0 -9.62279e-05)
(0 -0 -8.30851e-05)
(0 -0 -6.93468e-05)
(0 -0 -5.52856e-05)
(0 -0 -6.09356e-05)
(0 -0 -6.49072e-05)
(0 -0 -6.85339e-05)
(0 -0 -7.41e-05)
(0 -0 -8.07278e-05)
(0 -0 -8.74774e-05)
(0 -0 -9.42786e-05)
(0 -0 -0.000101029)
(0 -0 -0.000107602)
(0 -0 -0.000113846)
(0 -0 -0.000119588)
(0 -0 -0.000124645)
(0 -0 -0.000128821)
(0 -0 -0.000131927)
(0 -0 -0.000133783)
(0 -0 -0.000134231)
(0 -0 -0.000133142)
(0 -0 -0.000130427)
(0 -0 -0.000126043)
(0 -0 -0.000119994)
(0 -0 -0.000112335)
(0 -0 -0.000103169)
(0 -0 -9.26466e-05)
(0 -0 -8.09521e-05)
(0 -0 -6.83001e-05)
(0 -0 -5.49278e-05)
(0 -0 -4.11184e-05)
(0 -0 -4.29928e-05)
(0 -0 -4.64289e-05)
(0 -0 -4.96702e-05)
(0 -0 -5.48902e-05)
(0 -0 -6.12572e-05)
(0 -0 -6.78806e-05)
(0 -0 -7.46922e-05)
(0 -0 -8.15902e-05)
(0 -0 -8.84442e-05)
(0 -0 -9.50977e-05)
(0 -0 -0.00010137)
(0 -0 -0.000107064)
(0 -0 -0.000111971)
(0 -0 -0.000115879)
(0 -0 -0.000118588)
(0 -0 -0.000119912)
(0 -0 -0.000119698)
(0 -0 -0.00011783)
(0 -0 -0.000114238)
(0 -0 -0.000108901)
(0 -0 -0.000101854)
(0 -0 -9.31835e-05)
(0 -0 -8.30285e-05)
(0 -0 -7.15706e-05)
(0 -0 -5.90268e-05)
(0 -0 -4.56439e-05)
(0 -0 -3.17186e-05)
(0 -0 -3.1368e-05)
(0 -0 -3.44726e-05)
(0 -0 -3.75002e-05)
(0 -0 -4.25205e-05)
(0 -0 -4.8746e-05)
(0 -0 -5.53329e-05)
(0 -0 -6.22147e-05)
(0 -0 -6.92893e-05)
(0 -0 -7.6424e-05)
(0 -0 -8.34567e-05)
(0 -0 -9.01988e-05)
(0 -0 -9.64406e-05)
(0 -0 -0.000101958)
(0 -0 -0.000106524)
(0 -0 -0.000109913)
(0 -0 -0.000111922)
(0 -0 -0.00011237)
(0 -0 -0.000111119)
(0 -0 -0.000108074)
(0 -0 -0.000103194)
(0 -0 -9.64969e-05)
(0 -0 -8.80559e-05)
(0 -0 -7.80018e-05)
(0 -0 -6.65154e-05)
(0 -0 -5.3819e-05)
(0 -0 -4.01711e-05)
(0 -0 -2.58838e-05)
(0 -0 -2.41579e-05)
(0 -0 -2.7088e-05)
(0 -0 -3.00356e-05)
(0 -0 -3.49722e-05)
(0 -0 -4.11517e-05)
(0 -0 -4.7774e-05)
(0 -0 -5.47742e-05)
(0 -0 -6.20501e-05)
(0 -0 -6.94665e-05)
(0 -0 -7.68558e-05)
(0 -0 -8.40216e-05)
(0 -0 -9.07432e-05)
(0 -0 -9.67831e-05)
(0 -0 -0.000101896)
(0 -0 -0.000105841)
(0 -0 -0.000108392)
(0 -0 -0.000109348)
(0 -0 -0.000108547)
(0 -0 -0.000105876)
(0 -0 -0.000101277)
(0 -0 -9.47493e-05)
(0 -0 -8.63585e-05)
(0 -0 -7.62296e-05)
(0 -0 -6.4544e-05)
(0 -0 -5.1531e-05)
(0 -0 -3.74619e-05)
(0 -0 -2.26652e-05)
(0 -0 -2.00003e-05)
(0 -0 -2.28698e-05)
(0 -0 -2.58341e-05)
(0 -0 -3.07714e-05)
(0 -0 -3.69741e-05)
(0 -0 -4.36826e-05)
(0 -0 -5.08335e-05)
(0 -0 -5.83242e-05)
(0 -0 -6.60167e-05)
(0 -0 -7.3739e-05)
(0 -0 -8.1287e-05)
(0 -0 -8.84301e-05)
(0 -0 -9.49184e-05)
(0 -0 -0.000100492)
(0 -0 -0.000104893)
(0 -0 -0.000107877)
(0 -0 -0.000109224)
(0 -0 -0.000108754)
(0 -0 -0.000106336)
(0 -0 -0.000101895)
(0 -0 -9.54201e-05)
(0 -0 -8.69675e-05)
(0 -0 -7.66589e-05)
(0 -0 -6.46777e-05)
(0 -0 -5.12612e-05)
(0 -0 -3.66935e-05)
(0 -0 -2.13193e-05)
(0 -0 -1.79259e-05)
(0 -0 -2.08112e-05)
(0 -0 -2.38552e-05)
(0 -0 -2.8848e-05)
(0 -0 -3.51172e-05)
(0 -0 -4.19409e-05)
(0 -0 -4.92565e-05)
(0 -0 -5.69608e-05)
(0 -0 -6.49136e-05)
(0 -0 -7.29383e-05)
(0 -0 -8.08244e-05)
(0 -0 -8.83324e-05)
(0 -0 -9.52016e-05)
(0 -0 -0.000101159)
(0 -0 -0.000105933)
(0 -0 -0.000109262)
(0 -0 -0.000110911)
(0 -0 -0.000110683)
(0 -0 -0.000108433)
(0 -0 -0.000104071)
(0 -0 -9.75782e-05)
(0 -0 -8.90027e-05)
(0 -0 -7.84645e-05)
(0 -0 -6.61499e-05)
(0 -0 -5.23038e-05)
(0 -0 -3.7223e-05)
(0 -0 -2.12672e-05)
(0 -0 -1.72462e-05)
(0 -0 -2.01922e-05)
(0 -0 -2.33505e-05)
(0 -0 -2.84273e-05)
(0 -0 -3.47827e-05)
(0 -0 -4.17299e-05)
(0 -0 -4.92061e-05)
(0 -0 -5.71078e-05)
(0 -0 -6.52924e-05)
(0 -0 -7.35796e-05)
(0 -0 -8.17532e-05)
(0 -0 -8.95667e-05)
(0 -0 -9.67502e-05)
(0 -0 -0.00010302)
(0 -0 -0.000108092)
(0 -0 -0.000111691)
(0 -0 -0.00011357)
(0 -0 -0.000113518)
(0 -0 -0.000111376)
(0 -0 -0.000107046)
(0 -0 -0.000100499)
(0 -0 -9.17789e-05)
(0 -0 -8.1004e-05)
(0 -0 -6.83636e-05)
(0 -0 -5.41101e-05)
(0 -0 -3.85516e-05)
(0 -0 -2.20616e-05)
(0 -0 -1.74716e-05)
(0 -0 -2.04977e-05)
(0 -0 -2.37816e-05)
(0 -0 -2.89493e-05)
(0 -0 -3.5391e-05)
(0 -0 -4.24514e-05)
(0 -0 -5.00678e-05)
(0 -0 -5.81358e-05)
(0 -0 -6.65112e-05)
(0 -0 -7.50106e-05)
(0 -0 -8.34137e-05)
(0 -0 -9.14681e-05)
(0 -0 -9.88968e-05)
(0 -0 -0.000105408)
(0 -0 -0.000110707)
(0 -0 -0.000114511)
(0 -0 -0.000116559)
(0 -0 -0.000116631)
(0 -0 -0.000114559)
(0 -0 -0.000110235)
(0 -0 -0.000103625)
(0 -0 -9.47674e-05)
(0 -0 -8.37813e-05)
(0 -0 -7.0858e-05)
(0 -0 -5.62564e-05)
(0 -0 -4.02949e-05)
(0 -0 -2.33587e-05)
(0 -0 -1.82498e-05)
(0 -0 -2.13578e-05)
(0 -0 -2.47617e-05)
(0 -0 -3.00111e-05)
(0 -0 -3.65228e-05)
(0 -0 -4.36709e-05)
(0 -0 -5.13927e-05)
(0 -0 -5.95831e-05)
(0 -0 -6.80967e-05)
(0 -0 -7.67485e-05)
(0 -0 -8.53152e-05)
(0 -0 -9.35404e-05)
(0 -0 -0.000101142)
(0 -0 -0.000107823)
(0 -0 -0.000113282)
(0 -0 -0.000117227)
(0 -0 -0.000119392)
(0 -0 -0.000119549)
(0 -0 -0.00011752)
(0 -0 -0.000113194)
(0 -0 -0.000106531)
(0 -0 -9.75666e-05)
(0 -0 -8.64192e-05)
(0 -0 -7.32826e-05)
(0 -0 -5.84209e-05)
(0 -0 -4.21611e-05)
(0 -0 -2.48989e-05)
(0 -0 -1.93287e-05)
(0 -0 -2.25048e-05)
(0 -0 -2.60189e-05)
(0 -0 -3.13288e-05)
(0 -0 -3.78818e-05)
(0 -0 -4.50799e-05)
(0 -0 -5.28603e-05)
(0 -0 -6.11182e-05)
(0 -0 -6.97083e-05)
(0 -0 -7.84445e-05)
(0 -0 -8.71023e-05)
(0 -0 -9.54235e-05)
(0 -0 -0.000103124)
(0 -0 -0.000109902)
(0 -0 -0.000115453)
(0 -0 -0.000119482)
(0 -0 -0.000121717)
(0 -0 -0.000121925)
(0 -0 -0.000119925)
(0 -0 -0.000115601)
(0 -0 -0.000108909)
(0 -0 -9.98845e-05)
(0 -0 -8.86438e-05)
(0 -0 -7.53825e-05)
(0 -0 -6.03688e-05)
(0 -0 -4.39386e-05)
(0 -0 -2.64758e-05)
(0 -0 -2.05913e-05)
(0 -0 -2.37654e-05)
(0 -0 -2.73756e-05)
(0 -0 -3.27156e-05)
(0 -0 -3.92707e-05)
(0 -0 -4.64702e-05)
(0 -0 -5.42531e-05)
(0 -0 -6.25157e-05)
(0 -0 -7.11133e-05)
(0 -0 -7.98601e-05)
(0 -0 -8.85322e-05)
(0 -0 -9.68715e-05)
(0 -0 -0.000104593)
(0 -0 -0.000111396)
(0 -0 -0.000116975)
(0 -0 -0.000121032)
(0 -0 -0.000123295)
(0 -0 -0.000123528)
(0 -0 -0.000121549)
(0 -0 -0.00011724)
(0 -0 -0.000110554)
(0 -0 -0.000101527)
(0 -0 -9.02724e-05)
(0 -0 -7.69877e-05)
(0 -0 -6.19434e-05)
(0 -0 -4.54702e-05)
(0 -0 -2.80063e-05)
(0 -0 -2.20531e-05)
(0 -0 -2.52e-05)
(0 -0 -2.87858e-05)
(0 -0 -3.41127e-05)
(0 -0 -4.0609e-05)
(0 -0 -4.77436e-05)
(0 -0 -5.54573e-05)
(0 -0 -6.36474e-05)
(0 -0 -7.21707e-05)
(0 -0 -8.08433e-05)
(0 -0 -8.94429e-05)
(0 -0 -9.77136e-05)
(0 -0 -0.000105373)
(0 -0 -0.000112122)
(0 -0 -0.000117657)
(0 -0 -0.000121682)
(0 -0 -0.000123927)
(0 -0 -0.000124157)
(0 -0 -0.00012219)
(0 -0 -0.000117907)
(0 -0 -0.000111261)
(0 -0 -0.000102287)
(0 -0 -9.10989e-05)
(0 -0 -7.78912e-05)
(0 -0 -6.2933e-05)
(0 -0 -4.65669e-05)
(0 -0 -2.9195e-05)
(0 -0 -2.32129e-05)
(0 -0 -2.64032e-05)
(0 -0 -2.99362e-05)
(0 -0 -3.51841e-05)
(0 -0 -4.15787e-05)
(0 -0 -4.86059e-05)
(0 -0 -5.62043e-05)
(0 -0 -6.42721e-05)
(0 -0 -7.26676e-05)
(0 -0 -8.12094e-05)
(0 -0 -8.96786e-05)
(0 -0 -9.78231e-05)
(0 -0 -0.000105365)
(0 -0 -0.00011201)
(0 -0 -0.000117458)
(0 -0 -0.00012142)
(0 -0 -0.000123628)
(0 -0 -0.00012385)
(0 -0 -0.000121907)
(0 -0 -0.000117682)
(0 -0 -0.00011113)
(0 -0 -0.000102282)
(0 -0 -9.12514e-05)
(0 -0 -7.82311e-05)
(0 -0 -6.34873e-05)
(0 -0 -4.73557e-05)
(0 -0 -3.02426e-05)
(0 -0 -2.41197e-05)
(0 -0 -2.73215e-05)
(0 -0 -3.08118e-05)
(0 -0 -3.59326e-05)
(0 -0 -4.21742e-05)
(0 -0 -4.90358e-05)
(0 -0 -5.64554e-05)
(0 -0 -6.43323e-05)
(0 -0 -7.25277e-05)
(0 -0 -8.08639e-05)
(0 -0 -8.91271e-05)
(0 -0 -9.70711e-05)
(0 -0 -0.000104425)
(0 -0 -0.000110901)
(0 -0 -0.000116207)
(0 -0 -0.000120061)
(0 -0 -0.000122201)
(0 -0 -0.000122402)
(0 -0 -0.00012049)
(0 -0 -0.000116349)
(0 -0 -0.000109936)
(0 -0 -0.000101283)
(0 -0 -9.04998e-05)
(0 -0 -7.77756e-05)
(0 -0 -6.33709e-05)
(0 -0 -4.7613e-05)
(0 -0 -3.09126e-05)
(0 -0 -2.46776e-05)
(0 -0 -2.78673e-05)
(0 -0 -3.12966e-05)
(0 -0 -3.62557e-05)
(0 -0 -4.22986e-05)
(0 -0 -4.89397e-05)
(0 -0 -5.61187e-05)
(0 -0 -6.37378e-05)
(0 -0 -7.16618e-05)
(0 -0 -7.97187e-05)
(0 -0 -8.77015e-05)
(0 -0 -9.53721e-05)
(0 -0 -0.000102468)
(0 -0 -0.000108713)
(0 -0 -0.000113824)
(0 -0 -0.000117528)
(0 -0 -0.000119573)
(0 -0 -0.000119743)
(0 -0 -0.000117868)
(0 -0 -0.00011384)
(0 -0 -0.000107615)
(0 -0 -9.92263e-05)
(0 -0 -8.87811e-05)
(0 -0 -7.64622e-05)
(0 -0 -6.25227e-05)
(0 -0 -4.728e-05)
(0 -0 -3.11182e-05)
(0 -0 -2.48855e-05)
(0 -0 -2.80196e-05)
(0 -0 -3.13503e-05)
(0 -0 -3.61092e-05)
(0 -0 -4.19076e-05)
(0 -0 -4.82757e-05)
(0 -0 -5.51553e-05)
(0 -0 -6.24525e-05)
(0 -0 -7.00373e-05)