/*--------------------------------*- C++ -*----------------------------------*\
| =========                 |                                                 |
| \\      /  F ield         | OpenFOAM: The Open Source CFD Toolbox           |
|  \\    /   O peration     | Version:  2412                                  |
|   \\  /    A nd           | Website:  www.openfoam.com                      |
|    \\/     M anipulation  |                                                 |
\*---------------------------------------------------------------------------*/
FoamFile
{
    version     2.0;
    format      ascii;
    arch        "LSB;label=32;scalar=64";
    class       volScalarField;
    location    "3.5";
    object      p;
}
// * * * * * * * * * * * * * * * * * * * * * * * * * * * * * * * * * * * * * //

dimensions      [0 2 -2 0 0 0 0];

internalField   nonuniform List<scalar> 
5285
(
0.00137799
0.00137915
0.00138002
0.00138058
0.00138078
0.0013806
0.00137999
0.00137892
0.00137735
0.00137522
0.00137248
0.0013691
0.001365
0.00136013
0.00135443
0.00134783
0.00136126
0.0013619
0.00136223
0.00136223
0.00136187
0.00136111
0.00135992
0.00135826
0.00135608
0.00135334
0.00134999
0.00134599
0.00134128
0.00133581
0.00132951
0.00132233
0.00134479
0.00134493
0.00134475
0.00134423
0.00134334
0.00134204
0.0013403
0.00133808
0.00133534
0.00133204
0.00132813
0.00132356
0.0013183
0.00131227
0.00130543
0.00129772
0.0013286
0.00132826
0.00132759
0.00132658
0.00132519
0.00132338
0.00132113
0.00131839
0.00131513
0.00131131
0.00130688
0.00130181
0.00129603
0.0012895
0.00128218
0.001274
0.00131268
0.00131189
0.00131077
0.0013093
0.00130743
0.00130515
0.00130242
0.0012992
0.00129546
0.00129116
0.00128626
0.00128071
0.00127448
0.0012675
0.00125974
0.00125115
0.00129706
0.00129584
0.00129429
0.00129238
0.00129008
0.00128735
0.00128418
0.00128052
0.00127633
0.00127159
0.00126626
0.00126028
0.00125363
0.00124625
0.0012381
0.00122914
0.00128173
0.00128011
0.00127816
0.00127584
0.00127313
0.00126999
0.0012664
0.00126233
0.00125774
0.00125259
0.00124686
0.0012405
0.00123347
0.00122573
0.00121724
0.00120796
0.0012667
0.00126471
0.00126238
0.00125968
0.00125658
0.00125306
0.00124909
0.00124464
0.00123967
0.00123416
0.00122807
0.00122136
0.00121399
0.00120594
0.00119715
0.00118759
0.00125199
0.00124964
0.00124695
0.00124389
0.00124044
0.00123657
0.00123224
0.00122744
0.00122214
0.00121629
0.00120987
0.00120285
0.00119518
0.00118684
0.00117779
0.00116799
0.00123758
0.0012349
0.00123188
0.00122849
0.00122471
0.00122051
0.00121586
0.00121074
0.00120512
0.00119897
0.00119225
0.00118495
0.00117702
0.00116843
0.00115915
0.00114915
0.00122349
0.0012205
0.00121717
0.00121347
0.00120938
0.00120487
0.00119993
0.00119452
0.00118861
0.00118218
0.00117521
0.00116765
0.00115949
0.00115069
0.00114121
0.00113104
0.00120971
0.00120643
0.00120281
0.00119883
0.00119445
0.00118967
0.00118445
0.00117877
0.00117261
0.00116593
0.00115872
0.00115094
0.00114258
0.00113359
0.00112395
0.00111363
0.00119624
0.0011927
0.00118881
0.00118456
0.00117992
0.00117488
0.00116941
0.00116349
0.0011571
0.0011502
0.00114278
0.00113481
0.00112626
0.00111711
0.00110734
0.00109691
0.00118309
0.0011793
0.00117516
0.00117066
0.00116579
0.00116051
0.00115481
0.00114867
0.00114207
0.00113497
0.00112737
0.00111923
0.00111053
0.00110125
0.00109136
0.00108084
0.00117026
0.00116623
0.00116186
0.00115714
0.00115204
0.00114655
0.00114065
0.00113431
0.00112751
0.00112025
0.00111248
0.00110419
0.00109536
0.00108597
0.00107599
0.0010654
0.00115773
0.00115348
0.00114891
0.00114398
0.00113868
0.00113299
0.0011269
0.00112038
0.00111342
0.001106
0.00109809
0.00108968
0.00108074
0.00107126
0.00106121
0.00105057
0.00114551
0.00114107
0.00113629
0.00113117
0.00112569
0.00111982
0.00111356
0.00110689
0.00109978
0.00109222
0.00108419
0.00107567
0.00106665
0.00105709
0.00104699
0.00103633
0.0011336
0.00112897
0.00112401
0.00111872
0.00111307
0.00110705
0.00110063
0.00109382
0.00108658
0.0010789
0.00107077
0.00106216
0.00105306
0.00104345
0.00103332
0.00102265
0.00112199
0.00111719
0.00111207
0.00110661
0.00110081
0.00109464
0.0010881
0.00108116
0.0010738
0.00106603
0.0010578
0.00104912
0.00103997
0.00103033
0.00102018
0.00100951
0.00111067
0.00110572
0.00110045
0.00109485
0.00108891
0.00108261
0.00107595
0.0010689
0.00106145
0.00105358
0.00104529
0.00103655
0.00102736
0.00101769
0.00100754
0.000996884
0.00114237
0.0013175
0.00114294
0.00123408
0.00121302
0.00120882
0.00121632
0.00121666
0.00121809
0.00114008
0.00131517
0.00114062
0.00123172
0.00121062
0.00120637
0.00121381
0.00121408
0.00121544
0.00121777
0.00122003
0.00122246
0.00122511
0.00122793
0.00123092
0.00123406
0.00123736
0.00124078
0.00124434
0.00124802
0.00125181
0.0012557
0.00125968
0.00126374
0.00126788
0.00127209
0.00127635
0.00128066
0.001285
0.00128937
0.00129376
0.00129816
0.00130255
0.00130693
0.00131128
0.00131561
0.00131988
0.0013241
0.00132826
0.00133233
0.00133632
0.0013402
0.00134398
0.00134763
0.00135114
0.00135452
0.00135773
0.00136078
0.00136366
0.00136634
0.00136883
0.00137111
0.00137317
0.001375
0.0013766
0.00113775
0.0013128
0.00113825
0.00122932
0.00120817
0.00120387
0.00121125
0.00121146
0.00121274
0.00121499
0.00121716
0.00121948
0.00122203
0.00122474
0.0012276
0.00123061
0.00123376
0.00123704
0.00124043
0.00124394
0.00124755
0.00125125
0.00125503
0.00125889
0.00126281
0.00126678
0.00127081
0.00127486
0.00127895
0.00128305
0.00128716
0.00129126
0.00129535
0.00129942
0.00130345
0.00130744
0.00131138
0.00131524
0.00131903
0.00132273
0.00132633
0.00132982
0.00133319
0.00133643
0.00133953
0.00134247
0.00134525
0.00134785
0.00135027
0.0013525
0.00135452
0.00135633
0.00135791
0.00135926
0.00136037
0.00113537
0.00131039
0.00113584
0.00122687
0.00120567
0.00120134
0.00120865
0.00120879
0.00121
0.00121216
0.00121424
0.00121647
0.0012189
0.00122149
0.00122423
0.00122711
0.00123011
0.00123324
0.00123648
0.00123981
0.00124324
0.00124675
0.00125034
0.00125398
0.00125769
0.00126144
0.00126522
0.00126903
0.00127286
0.00127669
0.00128052
0.00128434
0.00128813
0.00129189
0.0012956
0.00129926
0.00130286
0.00130638
0.00130981
0.00131314
0.00131637
0.00131947
0.00132245
0.00132529
0.00132797
0.0013305
0.00133285
0.00133503
0.00133701
0.00133879
0.00134036
0.00134172
0.00134284
0.00134374
0.00134438
0.00113296
0.00130793
0.00113339
0.00122439
0.00120314
0.00119876
0.00120601
0.00120608
0.00120721
0.00120929
0.00121128
0.00121341
0.00121573
0.00121821
0.00122082
0.00122356
0.00122643
0.0012294
0.00123247
0.00123564
0.00123889
0.00124221
0.0012456
0.00124904
0.00125252
0.00125605
0.00125959
0.00126316
0.00126673
0.0012703
0.00127385
0.00127739
0.00128089
0.00128434
0.00128774
0.00129108
0.00129434
0.00129752
0.0013006
0.00130358
0.00130643
0.00130917
0.00131176
0.00131421
0.00131649
0.00131861
0.00132056
0.00132231
0.00132387
0.00132523
0.00132637
0.00132729
0.00132798
0.00132843
0.00132864
0.00113052
0.00130542
0.00113091
0.00122186
0.00120056
0.00119614
0.00120333
0.00120333
0.00120438
0.00120638
0.00120828
0.00121031
0.00121252
0.00121488
0.00121737
0.00121998
0.0012227
0.00122552
0.00122843
0.00123143
0.0012345
0.00123763
0.00124082
0.00124406
0.00124733
0.00125062
0.00125394
0.00125726
0.00126058
0.00126388
0.00126717
0.00127042
0.00127363
0.00127678
0.00127988
0.0012829
0.00128583
0.00128868
0.00129142
0.00129404
0.00129654
0.00129891
0.00130113
0.00130319
0.0013051
0.00130683
0.00130837
0.00130973
0.00131088
0.00131183
0.00131256
0.00131306
0.00131333
0.00131337
0.00131316
0.00112803
0.00130288
0.00112839
0.0012193
0.00119795
0.00119348
0.00120061
0.00120054
0.00120152
0.00120344
0.00120524
0.00120717
0.00120928
0.00121152
0.00121388
0.00121635
0.00121893
0.0012216
0.00122435
0.00122718
0.00123007
0.00123302
0.00123601
0.00123904
0.0012421
0.00124517
0.00124825
0.00125133
0.0012544
0.00125745
0.00126046
0.00126344
0.00126636
0.00126922
0.00127201
0.00127472
0.00127734
0.00127986
0.00128226
0.00128454
0.0012867
0.00128871
0.00129057
0.00129226
0.00129379
0.00129515
0.00129631
0.00129728
0.00129804
0.0012986
0.00129893
0.00129904
0.00129891
0.00129855
0.00129794
0.00112552
0.00130029
0.00112584
0.0012167
0.0011953
0.00119079
0.00119785
0.00119771
0.00119862
0.00120045
0.00120216
0.00120399
0.00120599
0.00120812
0.00121035
0.00121269
0.00121513
0.00121765
0.00122024
0.0012229
0.00122561
0.00122837
0.00123117
0.001234
0.00123684
0.00123969
0.00124255
0.00124539
0.00124821
0.001251
0.00125375
0.00125645
0.0012591
0.00126167
0.00126416
0.00126657
0.00126887
0.00127107
0.00127315
0.0012751
0.00127691
0.00127858
0.00128008
0.00128143
0.0012826
0.00128358
0.00128438
0.00128497
0.00128537
0.00128554
0.0012855
0.00128523
0.00128473
0.00128398
0.001283
0.00112298
0.00129766
0.00112326
0.00121406
0.00119261
0.00118806
0.00119506
0.00119485
0.00119568
0.00119743
0.00119905
0.00120078
0.00120267
0.00120468
0.00120679
0.001209
0.00121129
0.00121366
0.00121609
0.00121859
0.00122112
0.0012237
0.00122631
0.00122893
0.00123156
0.0012342
0.00123682
0.00123943
0.001242
0.00124454
0.00124704
0.00124947
0.00125184
0.00125413
0.00125633
0.00125844
0.00126044
0.00126232
0.00126408
0.00126571
0.00126719
0.00126852
0.00126969
0.00127069
0.00127151
0.00127214
0.00127259
0.00127283
0.00127286
0.00127268
0.00127227
0.00127164
0.00127078
0.00126968
0.00126834
0.00112041
0.00129498
0.00112066
0.00121138
0.00118989
0.00118529
0.00119223
0.00119195
0.00119271
0.00119437
0.0011959
0.00119753
0.00119932
0.00120121
0.0012032
0.00120527
0.00120743
0.00120965
0.00121192
0.00121425
0.00121661
0.001219
0.00122142
0.00122384
0.00122627
0.00122868
0.00123108
0.00123346
0.00123579
0.00123809
0.00124032
0.00124249
0.00124459
0.0012466
0.00124852
0.00125033
0.00125204
0.00125362
0.00125507
0.00125638
0.00125754
0.00125855
0.00125939
0.00126006
0.00126054
0.00126084
0.00126094
0.00126084
0.00126053
0.00126
0.00125926
0.00125828
0.00125708
0.00125564
0.00125397
0.00111782
0.00129226
0.00111803
0.00120867
0.00118713
0.0011825
0.00118936
0.00118902
0.0011897
0.00119129
0.00119273
0.00119426
0.00119594
0.00119772
0.00119958
0.00120152
0.00120353
0.00120561
0.00120772
0.00120988
0.00121207
0.00121429
0.00121651
0.00121874
0.00122096
0.00122316
0.00122534
0.00122748
0.00122958
0.00123163
0.00123361
0.00123553
0.00123736
0.0012391
0.00124074
0.00124227
0.00124368
0.00124497
0.00124612
0.00124713
0.00124798
0.00124867
0.00124919
0.00124954
0.0012497
0.00124968
0.00124945
0.00124902
0.00124838
0.00124753
0.00124646
0.00124516
0.00124363
0.00124187
0.00123988
0.00111521
0.0012895
0.00111539
0.00120592
0.00118434
0.00117967
0.00118646
0.00118605
0.00118667
0.00118817
0.00118952
0.00119096
0.00119253
0.00119419
0.00119593
0.00119775
0.00119962
0.00120154
0.00120351
0.0012055
0.00120752
0.00120955
0.00121159
0.00121362
0.00121563
0.00121763
0.00121959
0.00122151
0.00122337
0.00122518
0.00122692
0.00122858
0.00123015
0.00123163
0.00123299
0.00123425
0.00123538
0.00123638
0.00123724
0.00123795
0.0012385
0.00123889
0.00123911
0.00123915
0.001239
0.00123866
0.00123812
0.00123738
0.00123643
0.00123526
0.00123388
0.00123227
0.00123044
0.00122838
0.00122609
0.0011126
0.00128668
0.00111273
0.00120312
0.00118153
0.00117681
0.00118353
0.00118306
0.0011836
0.00118502
0.00118629
0.00118763
0.0011891
0.00119065
0.00119227
0.00119395
0.00119568
0.00119746
0.00119927
0.0012011
0.00120295
0.0012048
0.00120665
0.00120849
0.00121031
0.00121209
0.00121384
0.00121553
0.00121717
0.00121875
0.00122024
0.00122165
0.00122297
0.00122419
0.00122529
0.00122628
0.00122713
0.00122785
0.00122843
0.00122885
0.00122911
0.00122921
0.00122913
0.00122888
0.00122843
0.00122779
0.00122696
0.00122592
0.00122467
0.00122321
0.00122153
0.00121963
0.00121751
0.00121517
0.0012126
0.00110998
0.00128381
0.00111006
0.00120028
0.00117868
0.00117392
0.00118057
0.00118003
0.00118051
0.00118185
0.00118303
0.00118427
0.00118564
0.00118708
0.00118857
0.00119013
0.00119172
0.00119336
0.00119501
0.00119668
0.00119836
0.00120004
0.00120171
0.00120336
0.00120498
0.00120656
0.00120809
0.00120957
0.00121099
0.00121233
0.00121359
0.00121476
0.00121583
0.00121679
0.00121764
0.00121836
0.00121895
0.0012194
0.0012197
0.00121984
0.00121983
0.00121964
0.00121928
0.00121874
0.00121801
0.00121708
0.00121596
0.00121464
0.00121311
0.00121137
0.00120941
0.00120724
0.00120484
0.00120223
0.0011994
0.00110737
0.00128089
0.0011074
0.0011974
0.0011758
0.00117101
0.00117757
0.00117698
0.00117739
0.00117866
0.00117974
0.0011809
0.00118216
0.00118349
0.00118486
0.00118629
0.00118775
0.00118924
0.00119074
0.00119226
0.00119377
0.00119528
0.00119676
0.00119822
0.00119965
0.00120103
0.00120235
0.00120362
0.00120481
0.00120593
0.00120696
0.00120789
0.00120872
0.00120944
0.00121003
0.0012105
0.00121083
0.00121102
0.00121105
0.00121093
0.00121064
0.00121019
0.00120955
0.00120874
0.00120773
0.00120654
0.00120514
0.00120355
0.00120175
0.00119974
0.00119752
0.00119509
0.00119244
0.00118958
0.0011865
0.00110476
0.00127791
0.00110474
0.00119446
0.0011729
0.00116806
0.00117455
0.0011739
0.00117425
0.00117543
0.00117644
0.0011775
0.00117866
0.00117988
0.00118114
0.00118244
0.00118376
0.00118511
0.00118647
0.00118782
0.00118917
0.00119051
0.00119181
0.00119309
0.00119432
0.00119551
0.00119663
0.00119768
0.00119866
0.00119956
0.00120036
0.00120106
0.00120166
0.00120213
0.00120248
0.0012027
0.00120278
0.00120271
0.00120249
0.00120212
0.00120157
0.00120085
0.00119996
0.00119888
0.00119761
0.00119616
0.0011945
0.00119265
0.00119059
0.00118833
0.00118586
0.00118319
0.0011803
0.0011772
0.00117389
0.00110216
0.00127486
0.00110209
0.00119145
0.00116998
0.00116509
0.00117149
0.0011708
0.00117108
0.00117219
0.00117312
0.00117408
0.00117514
0.00117625
0.0011774
0.00117857
0.00117977
0.00118097
0.00118218
0.00118338
0.00118457
0.00118573
0.00118687
0.00118796
0.00118901
0.00119
0.00119092
0.00119177
0.00119254
0.00119322
0.0011938
0.00119427
0.00119464
0.00119488
0.00119499
0.00119497
0.00119481
0.0011945
0.00119403
0.0011934
0.00119261
0.00119164
0.00119049
0.00118916
0.00118765
0.00118594
0.00118404
0.00118194
0.00117965
0.00117715
0.00117444
0.00117154
0.00116842
0.0011651
0.00116158
0.00109954
0.00127175
0.00109948
0.00118835
0.00116704
0.00116208
0.00116839
0.00116767
0.00116789
0.00116893
0.00116977
0.00117065
0.00117162
0.00117262
0.00117364
0.00117469
0.00117576
0.00117683
0.00117789
0.00117894
0.00117997
0.00118097
0.00118193
0.00118284
0.0011837
0.0011845
0.00118523
0.00118588
0.00118644
0.00118691
0.00118727
0.00118753
0.00118767
0.00118769
0.00118757
0.00118732
0.00118692
0.00118637
0.00118566
0.00118479
0.00118376
0.00118255
0.00118116
0.00117959
0.00117784
0.0011759
0.00117376
0.00117143
0.00116891
0.00116618
0.00116326
0.00116013
0.00115681
0.00115328
0.00114956
0.0010969
0.00126852
0.00109692
0.00118515
0.00116409
0.00115905
0.00116526
0.00116453
0.00116469
0.00116565
0.00116642
0.00116721
0.00116807
0.00116897
0.00116988
0.00117081
0.00117174
0.00117268
0.00117359
0.00117449
0.00117537
0.0011762
0.00117699
0.00117773
0.00117841
0.00117902
0.00117956
0.00118001
0.00118037
0.00118063
0.00118079
0.00118083
0.00118076
0.00118055
0.00118021
0.00117973
0.00117911
0.00117833
0.0011774
0.0011763
0.00117503
0.00117359
0.00117197
0.00117018
0.00116819
0.00116603
0.00116367
0.00116112
0.00115838
0.00115544
0.00115231
0.00114898
0.00114546
0.00114174
0.00113783
0.00109417
0.00126522
0.00109439
0.00118186
0.00116113
0.00115599
0.0011621
0.00116136
0.00116147
0.00116236
0.00116305
0.00116375
0.00116452
0.00116531
0.00116611
0.00116692
0.00116773
0.00116852
0.0011693
0.00117005
0.00117077
0.00117144
0.00117207
0.00117264
0.00117314
0.00117357
0.00117392
0.00117418
0.00117434
0.0011744
0.00117435
0.00117419
0.0011739
0.00117348
0.00117293
0.00117223
0.00117139
0.00117039
0.00116923
0.00116791
0.00116642
0.00116476
0.00116292
0.00116091
0.00115871
0.00115633
0.00115376
0.001151
0.00114806
0.00114492
0.00114159
0.00113808
0.00113437
0.00113047
0.00112639
0.00109112
0.00126226
0.00109154
0.00117861
0.00115813
0.00115288
0.00115891
0.00115818
0.00115823
0.00115905
0.00115966
0.00116028
0.00116096
0.00116165
0.00116234
0.00116303
0.00116371
0.00116437
0.00116501
0.00116562
0.00116618
0.0011667
0.00116716
0.00116756
0.00116789
0.00116814
0.0011683
0.00116837
0.00116835
0.00116821
0.00116797
0.0011676
0.00116711
0.00116648
0.00116572
0.00116481
0.00116375
0.00116254
0.00116117
0.00115964
0.00115794
0.00115607
0.00115402
0.0011518
0.00114939
0.00114681
0.00114404
0.00114109
0.00113795
0.00113462
0.00113111
0.00112742
0.00112354
0.00111948
0.00111524
0.00108759
0.00126
0.00108824
0.00117551
0.00115521
0.00114977
0.00115578
0.00115505
0.00115504
0.0011558
0.00115634
0.00115688
0.00115746
0.00115805
0.00115864
0.00115921
0.00115977
0.00116031
0.00116081
0.00116128
0.0011617
0.00116206
0.00116237
0.0011626
0.00116276
0.00116284
0.00116283
0.00116273
0.00116252
0.0011622
0.00116176
0.0011612
0.00116051
0.00115969
0.00115873
0.00115763
0.00115637
0.00115496
0.00115339
0.00115165
0.00114975
0.00114768
0.00114544
0.00114302
0.00114043
0.00113765
0.0011347
0.00113157
0.00112825
0.00112475
0.00112107
0.00111722
0.00111318
0.00110897
0.00110458
0.00108432
0.00125685
0.00108612
0.00117158
0.00115263
0.00114665
0.0011526
0.00115197
0.00115189
0.00115257
0.00115305
0.00115351
0.001154
0.0011545
0.00115498
0.00115544
0.00115588
0.00115629
0.00115667
0.001157
0.00115727
0.00115749
0.00115764
0.00115772
0.00115772
0.00115764
0.00115746
0.00115718
0.00115679
0.00115629
0.00115567
0.00115493
0.00115406
0.00115305
0.0011519
0.0011506
0.00114915
0.00114755
0.00114579
0.00114387
0.00114178
0.00113952
0.0011371
0.00113449
0.00113172
0.00112877
0.00112564
0.00112234
0.00111885
0.0011152
0.00111136
0.00110736
0.00110318
0.00109883
0.00109431
0.00108082
0.00125342
0.00108449
0.00116701
0.00115023
0.00114341
0.0011493
0.00114883
0.00114865
0.00114927
0.00114969
0.00115007
0.00115047
0.00115087
0.00115124
0.0011516
0.00115192
0.00115221
0.00115245
0.00115264
0.00115278
0.00115285
0.00115285
0.00115277
0.00115261
0.00115236
0.00115201
0.00115156
0.001151
0.00115032
0.00114952
0.0011486
0.00114754
0.00114634
0.00114501
0.00114352
0.00114189
0.0011401
0.00113815
0.00113604
0.00113377
0.00113133
0.00112872
0.00112595
0.001123
0.00111987
0.00111658
0.00111311
0.00110947
0.00110566
0.00110168
0.00109753
0.00109321
0.00108873
0.00108409
0.00107687
0.00125016
0.00108284
0.00116211
0.00114793
0.00114007
0.0011459
0.00114564
0.00114536
0.00114589
0.00114626
0.00114656
0.00114687
0.00114717
0.00114744
0.00114768
0.00114788
0.00114805
0.00114816
0.00114821
0.00114821
0.00114813
0.00114798
0.00114775
0.00114742
0.00114701
0.00114649
0.00114587
0.00114513
0.00114428
0.0011433
0.0011422
0.00114096
0.00113958
0.00113806
0.0011364
0.00113458
0.00113261
0.00113048
0.00112819
0.00112573
0.00112312
0.00112034
0.00111738
0.00111427
0.00111098
0.00110752
0.0011039
0.00110011
0.00109615
0.00109203
0.00108774
0.0010833
0.00107869
0.00107394
0.00107253
0.00124698
0.00108117
0.00115694
0.00114567
0.00113666
0.0011424
0.0011424
0.00114199
0.00114244
0.00114276
0.00114298
0.0011432
0.0011434
0.00114356
0.00114369
0.00114378
0.00114381
0.00114379
0.00114371
0.00114356
0.00114334
0.00114304
0.00114265
0.00114217
0.00114159
0.00114091
0.00114011
0.00113921
0.00113818
0.00113703
0.00113574
0.00113433
0.00113277
0.00113107
0.00112922
0.00112722
0.00112507
0.00112277
0.0011203
0.00111767
0.00111489
0.00111193
0.00110882
0.00110554
0.00110209
0.00109848
0.00109471
0.00109077
0.00108667
0.00108242
0.00107801
0.00107344
0.00106872
0.00106385
0.00106787
0.00124377
0.00107954
0.00115153
0.00114343
0.00113322
0.0011388
0.00113908
0.00113857
0.00113893
0.00113919
0.00113933
0.00113946
0.00113956
0.00113962
0.00113963
0.0011396
0.00113951
0.00113936
0.00113914
0.00113885
0.00113848
0.00113803
0.00113749
0.00113685
0.00113611
0.00113526
0.0011343
0.00113322
0.00113202
0.00113069
0.00112924
0.00112764
0.00112591
0.00112403
0.00112201
0.00111983
0.00111751
0.00111503
0.00111239
0.0011096
0.00110664
0.00110353
0.00110025
0.00109681
0.00109321
0.00108946
0.00108554
0.00108147
0.00107724
0.00107286
0.00106832
0.00106364
0.00105882
0.00105385
0.00106298
0.00124045
0.00107799
0.00114591
0.00114118
0.00112977
0.0011351
0.00113571
0.00113509
0.00113534
0.00113555
0.00113561
0.00113565
0.00113565
0.00113561
0.00113551
0.00113535
0.00113514
0.00113486
0.0011345
0.00113407
0.00113356
0.00113295
0.00113226
0.00113146
0.00113056
0.00112955
0.00112842
0.00112718
0.00112581
0.00112431
0.00112268
0.00112091
0.001119
0.00111695
0.00111476
0.00111241
0.00110992
0.00110727
0.00110447
0.00110151
0.00109839
0.00109512
0.00109169
0.0010881
0.00108436
0.00108046
0.00107641
0.0010722
0.00106785
0.00106335
0.0010587
0.00105392
0.00104899
0.00104393
0.00105793
0.001237
0.00107652
0.00114011
0.00113888
0.00112633
0.0011313
0.00113226
0.00113155
0.00113169
0.00113184
0.00113183
0.00113177
0.00113168
0.00113152
0.00113131
0.00113104
0.0011307
0.00113029
0.0011298
0.00112923
0.00112857
0.00112782
0.00112697
0.00112601
0.00112495
0.00112378
0.00112249
0.00112108
0.00111954
0.00111787
0.00111607
0.00111414
0.00111206
0.00110984
0.00110748
0.00110497
0.00110231
0.00109949
0.00109653
0.00109341
0.00109014
0.00108672
0.00108314
0.00107941
0.00107553
0.00107149
0.00106731
0.00106299
0.00105852
0.0010539
0.00104915
0.00104427
0.00103925
0.00103411
0.00105279
0.0012334
0.00107513
0.00113417
0.00113652
0.00112292
0.00112743
0.00112874
0.00112796
0.00112798
0.00112807
0.00112798
0.00112783
0.00112764
0.00112738
0.00112706
0.00112666
0.0011262
0.00112566
0.00112503
0.00112432
0.00112352
0.00112262
0.00112161
0.00112051
0.00111929
0.00111796
0.0011165
0.00111493
0.00111323
0.0011114
0.00110943
0.00110733
0.00110509
0.0011027
0.00110017
0.0010975
0.00109468
0.00109171
0.00108859
0.00108532
0.0010819
0.00107833
0.00107461
0.00107074
0.00106673
0.00106257
0.00105827
0.00105383
0.00104924
0.00104453
0.00103968
0.00103471
0.0010296
0.00102438
0.00104761
0.00122964
0.00107382
0.00112813
0.00113405
0.00111954
0.00112347
0.00112515
0.00112432
0.00112421
0.00112423
0.00112407
0.00112382
0.00112353
0.00112317
0.00112273
0.00112222
0.00112163
0.00112096
0.0011202
0.00111935
0.0011184
0.00111736
0.00111621
0.00111495
0.00111357
0.00111208
0.00111047
0.00110874
0.00110687
0.00110488
0.00110275
0.00110049
0.00109808
0.00109554
0.00109285
0.00109002
0.00108704
0.00108392
0.00108065
0.00107723
0.00107367
0.00106996
0.00106611
0.00106211
0.00105797
0.00105369
0.00104928
0.00104472
0.00104004
0.00103523
0.00103029
0.00102523
0.00102006
0.00101477
0.00104243
0.00122572
0.00107257
0.00112202
0.00113148
0.00111621
0.00111945
0.00112148
0.00112063
0.00112038
0.00112033
0.00112009
0.00111976
0.00111937
0.0011189
0.00111835
0.00111772
0.00111701
0.00111621
0.00111531
0.00111432
0.00111324
0.00111204
0.00111074
0.00110933
0.00110781
0.00110616
0.00110439
0.0011025
0.00110048
0.00109833
0.00109604
0.00109362
0.00109106
0.00108836
0.00108551
0.00108253
0.0010794
0.00107613
0.00107272
0.00106916
0.00106546
0.00106162
0.00105764
0.00105352
0.00104926
0.00104487
0.00104034
0.00103569
0.00103091
0.00102601
0.00102099
0.00101586
0.00101061
0.00100526
0.00103725
0.00122164
0.00107137
0.00111586
0.00112877
0.00111291
0.00111538
0.00111774
0.00111689
0.0011165
0.00111637
0.00111606
0.00111563
0.00111514
0.00111457
0.00111391
0.00111316
0.00111232
0.00111139
0.00111037
0.00110924
0.00110801
0.00110668
0.00110523
0.00110367
0.001102
0.0011002
0.00109828
0.00109623
0.00109405
0.00109175
0.00108931
0.00108673
0.00108401
0.00108116
0.00107817
0.00107504
0.00107177
0.00106835
0.0010648
0.00106111
0.00105728
0.00105331
0.00104921
0.00104497
0.0010406
0.0010361
0.00103148
0.00102673
0.00102187
0.00101688
0.00101179
0.00100658
0.00100128
0.00099587
0.0010321
0.0012174
0.0010702
0.00110968
0.00112591
0.00110966
0.00111125
0.00111392
0.0011131
0.00111256
0.00111236
0.00111197
0.00111145
0.00111086
0.00111018
0.00110941
0.00110854
0.00110758
0.00110653
0.00110537
0.00110411
0.00110274
0.00110127
0.00109968
0.00109797
0.00109615
0.0010942
0.00109213
0.00108993
0.0010876
0.00108514
0.00108255
0.00107982
0.00107696
0.00107396
0.00107082
0.00106755
0.00106414
0.00106059
0.00105691
0.00105309
0.00104913
0.00104504
0.00104082
0.00103648
0.001032
0.00102741
0.00102269
0.00101786
0.00101291
0.00100785
0.00100269
0.000997423
0.000992061
0.000986605
0.00102695
0.00121301
0.00106905
0.0011035
0.00112291
0.00110645
0.00110709
0.00111002
0.00110926
0.00110859
0.00110829
0.00110783
0.00110722
0.00110652
0.00110574
0.00110485
0.00110387
0.00110279
0.00110161
0.00110033
0.00109893
0.00109743
0.00109581
0.00109408
0.00109223
0.00109026
0.00108817
0.00108595
0.0010836
0.00108112
0.00107852
0.00107578
0.00107291
0.0010699
0.00106676
0.00106348
0.00106007
0.00105653
0.00105285
0.00104904
0.0010451
0.00104102
0.00103682
0.00103249
0.00102804
0.00102347
0.00101879
0.00101398
0.00100907
0.00100405
0.000998921
0.000993697
0.000988378
0.000982967
0.000977471
0.00102182
0.00120847
0.00106789
0.00109732
0.00111976
0.00110327
0.0011029
0.00110605
0.00110538
0.00110456
0.00110417
0.00110363
0.00110293
0.00110214
0.00110124
0.00110025
0.00109916
0.00109796
0.00109665
0.00109523
0.00109371
0.00109207
0.00109032
0.00108845
0.00108645
0.00108434
0.0010821
0.00107974
0.00107725
0.00107463
0.00107188
0.001069
0.00106599
0.00106284
0.00105956
0.00105615
0.00105261
0.00104894
0.00104514
0.00104121
0.00103715
0.00103296
0.00102865
0.00102423
0.00101968
0.00101502
0.00101024
0.00100536
0.00100037
0.000995285
0.000990099
0.000984821
0.000979454
0.000974003
0.000968472
0.00101669
0.00120378
0.00106672
0.00109115
0.00111645
0.00110013
0.0010987
0.001102
0.00110145
0.0011005
0.0011
0.00109939
0.0010986
0.0010977
0.00109671
0.0010956
0.00109439
0.00109307
0.00109164
0.0010901
0.00108845
0.00108668
0.00108479
0.00108278
0.00108065
0.0010784
0.00107602
0.00107352
0.00107089
0.00106813
0.00106524
0.00106222
0.00105907
0.00105579
0.00105238
0.00104884
0.00104518
0.00104138
0.00103746
0.00103341
0.00102924
0.00102495
0.00102055
0.00101602
0.00101139
0.00100664
0.00100179
0.000996834
0.00099178
0.000986631
0.000981392
0.000976066
0.000970658
0.000965172
0.000959613
0.00101156
0.00119897
0.00106551
0.00108502
0.001113
0.00109701
0.00109448
0.00109789
0.00109748
0.00109639
0.00109579
0.0010951
0.00109422
0.00109322
0.00109212
0.00109091
0.00108959
0.00108815
0.0010866
0.00108493
0.00108315
0.00108125
0.00107923
0.00107708
0.00107482
0.00107243
0.00106992
0.00106728
0.00106451
0.00106162
0.00105859
0.00105544
0.00105216
0.00104875
0.00104522
0.00104156
0.00103777
0.00103386
0.00102982
0.00102567
0.0010214
0.00101701
0.00101251
0.00100789
0.00100317
0.000998351
0.000993427
0.000988406
0.000983293
0.000978091
0.000972804
0.000967437
0.000961994
0.00095648
0.0009509
0.00100642
0.00119402
0.00106426
0.00107892
0.00110939
0.00109392
0.00109026
0.00109372
0.00109346
0.00109226
0.00109154
0.00109077
0.0010898
0.0010887
0.0010875
0.00108618
0.00108474
0.00108319
0.00108152
0.00107973
0.00107782
0.00107579
0.00107364
0.00107137
0.00106897
0.00106645
0.0010638
0.00106103
0.00105813
0.0010551
0.00105195
0.00104867
0.00104527
0.00104173
0.00103808
0.0010343
0.0010304
0.00102638
0.00102224
0.00101798
0.00101361
0.00100913
0.00100454
0.000999846
0.00099505
0.000990155
0.000985166
0.000980086
0.000974919
0.00096967
0.000964342
0.00095894
0.000953469
0.000947933
0.000942337
0.00100127
0.00118894
0.00106296
0.00107285
0.00110565
0.00109084
0.00108605
0.00108949
0.0010894
0.00108809
0.00108725
0.0010864
0.00108534
0.00108415
0.00108284
0.00108141
0.00107987
0.0010782
0.00107641
0.0010745
0.00107247
0.00107031
0.00106804
0.00106564
0.00106311
0.00106046
0.00105768
0.00105478
0.00105175
0.0010486
0.00104532
0.00104192
0.00103839
0.00103474
0.00103097
0.00102708
0.00102307
0.00101895
0.0010147
0.00101035
0.00100589
0.00100132
0.000996654
0.000991884
0.000987018
0.000982058
0.00097701
0.000971878
0.000966664
0.000961374
0.000956011
0.000950581
0.000945088
0.000939535
0.000933929
0.000996101
0.00118375
0.00106159
0.00106683
0.00110177
0.00108778
0.00108185
0.0010852
0.00108529
0.00108389
0.00108293
0.00108199
0.00108085
0.00107956
0.00107815
0.00107662
0.00107496
0.00107318
0.00107128
0.00106925
0.0010671
0.00106482
0.00106242
0.00105989
0.00105724
0.00105446
0.00105156
0.00104854
0.00104539
0.00104211
0.00103871
0.00103519
0.00103155
0.00102779
0.0010239
0.00101991
0.00101579
0.00101157
0.00100724
0.00100279
0.000998248
0.0009936
0.000988855
0.000984016
0.000979085
0.000974068
0.000968967
0.000963788
0.000958533
0.000953208
0.000947817
0.000942364
0.000936854
0.000931291
0.00092568
0.000990916
0.00117844
0.00106016
0.00106085
0.00109776
0.00108473
0.00107767
0.00108087
0.00108115
0.00107967
0.00107858
0.00107756
0.00107633
0.00107494
0.00107343
0.0010718
0.00107003
0.00106814
0.00106612
0.00106398
0.00106171
0.00105931
0.00105679
0.00105414
0.00105137
0.00104847
0.00104545
0.0010423
0.00103903
0.00103564
0.00103212
0.00102849
0.00102474
0.00102087
0.00101688
0.00101278
0.00100857
0.00100426
0.000999835
0.000995309
0.000990684
0.000985963
0.00098115
0.000976247
0.000971259
0.000966189
0.000961042
0.000955822
0.000950533
0.000945179
0.000939765
0.000934294
0.000928773
0.000923204
0.000917594
0.000985715
0.00117303
0.00105865
0.00105492
0.00109363
0.00108168
0.00107352
0.0010765
0.00107697
0.00107543
0.00107421
0.0010731
0.00107178
0.0010703
0.00106869
0.00106695
0.00106508
0.00106308
0.00106095
0.0010587
0.00105631
0.0010538
0.00105116
0.00104839
0.0010455
0.00104249
0.00103935
0.00103608
0.0010327
0.00102919
0.00102557
0.00102183
0.00101797
0.001014
0.00100991
0.00100572
0.00100142
0.000997015
0.00099251
0.000987907
0.000983209
0.00097842
0.000973544
0.000968584
0.000963544
0.000958428
0.000953241
0.000947986
0.000942668
0.00093729
0.000931859
0.000926377
0.000920849
0.00091528
0.000909675
0.000980497
0.00116751
0.00105707
0.00104904
0.00108939
0.00107863
0.00106939
0.00107209
0.00107275
0.00107117
0.00106982
0.00106862
0.00106722
0.00106565
0.00106394
0.0010621
0.00106012
0.00105802
0.00105578
0.00105341
0.00105091
0.00104828
0.00104553
0.00104265