/*--------------------------------*- C++ -*----------------------------------*\
| =========                 |                                                 |
| \\      /  F ield         | OpenFOAM: The Open Source CFD Toolbox           |
|  \\    /   O peration     | Version:  2412                                  |
|   \\  /    A nd           | Website:  www.openfoam.com                      |
|    \\/     M anipulation  |                                                 |
\*---------------------------------------------------------------------------*/
FoamFile
{
    version     2.0;
    format      ascii;
    arch        "LSB;label=32;scalar=64";
    class       volVectorField;
    location    "3.5";
    object      vorticity;
}
// * * * * * * * * * * * * * * * * * * * * * * * * * * * * * * * * * * * * * //

dimensions      [0 0 -1 0 0 0 0];

internalField   nonuniform List<vector> 
5285
(
(0 -0 -6.76581e-06)
(0 -0 -1.61109e-05)
(0 -0 -2.49254e-05)
(0 -0 -3.1179e-05)
(0 -0 -3.34693e-05)
(0 -0 -3.15336e-05)
(0 -0 -2.62894e-05)
(0 -0 -1.93607e-05)
(0 -0 -1.24134e-05)
(0 -0 -6.64278e-06)
(0 -0 -2.58176e-06)
(0 -0 -1.96738e-07)
(0 -0 8.71125e-07)
(0 -0 1.07057e-06)
(0 -0 8.13717e-07)
(0 -0 4.06292e-07)
(0 -0 -6.91469e-06)
(0 -0 -1.59554e-05)
(0 -0 -2.43758e-05)
(0 -0 -3.02609e-05)
(0 -0 -3.22775e-05)
(0 -0 -3.02258e-05)
(0 -0 -2.50492e-05)
(0 -0 -1.83352e-05)
(0 -0 -1.16798e-05)
(0 -0 -6.2054e-06)
(0 -0 -2.39174e-06)
(0 -0 -1.80601e-07)
(0 -0 7.88738e-07)
(0 -0 9.55767e-07)
(0 -0 7.18814e-07)
(0 -0 4.02173e-07)
(0 -0 -7.00045e-06)
(0 -0 -1.57252e-05)
(0 -0 -2.37741e-05)
(0 -0 -2.92962e-05)
(0 -0 -3.1032e-05)
(0 -0 -2.88651e-05)
(0 -0 -2.37569e-05)
(0 -0 -1.72578e-05)
(0 -0 -1.08945e-05)
(0 -0 -5.71659e-06)
(0 -0 -2.15083e-06)
(0 -0 -1.14097e-07)
(0 -0 7.57304e-07)
(0 -0 8.98467e-07)
(0 -0 7.05874e-07)
(0 -0 4.6132e-07)
(0 -0 -7.02687e-06)
(0 -0 -1.5445e-05)
(0 -0 -2.31234e-05)
(0 -0 -2.82719e-05)
(0 -0 -2.97299e-05)
(0 -0 -2.74504e-05)
(0 -0 -2.24119e-05)
(0 -0 -1.61285e-05)
(0 -0 -1.00578e-05)
(0 -0 -5.17694e-06)
(0 -0 -1.85998e-06)
(0 -0 8.96508e-10)
(0 -0 7.71581e-07)
(0 -0 8.81331e-07)
(0 -0 7.17342e-07)
(0 -0 5.29894e-07)
(0 -0 -7.03088e-06)
(0 -0 -1.5142e-05)
(0 -0 -2.24422e-05)
(0 -0 -2.72181e-05)
(0 -0 -2.84009e-05)
(0 -0 -2.6011e-05)
(0 -0 -2.10439e-05)
(0 -0 -1.49774e-05)
(0 -0 -9.20011e-06)
(0 -0 -4.61723e-06)
(0 -0 -1.55045e-06)
(0 -0 1.32479e-07)
(0 -0 7.98718e-07)
(0 -0 8.66872e-07)
(0 -0 7.10853e-07)
(0 -0 5.54805e-07)
(0 -0 -7.0512e-06)
(0 -0 -1.48523e-05)
(0 -0 -2.17734e-05)
(0 -0 -2.6178e-05)
(0 -0 -2.70874e-05)
(0 -0 -2.45891e-05)
(0 -0 -1.9695e-05)
(0 -0 -1.38464e-05)
(0 -0 -8.36341e-06)
(0 -0 -4.07957e-06)
(0 -0 -1.26436e-06)
(0 -0 2.38703e-07)
(0 -0 7.97092e-07)
(0 -0 8.16337e-07)
(0 -0 6.52622e-07)
(0 -0 5.08145e-07)
(0 -0 -7.14498e-06)
(0 -0 -1.46358e-05)
(0 -0 -2.11788e-05)
(0 -0 -2.52138e-05)
(0 -0 -2.58522e-05)
(0 -0 -2.32474e-05)
(0 -0 -1.84275e-05)
(0 -0 -1.27975e-05)
(0 -0 -7.60915e-06)
(0 -0 -3.62479e-06)
(0 -0 -1.06196e-06)
(0 -0 2.59915e-07)
(0 -0 7.08286e-07)
(0 -0 6.74321e-07)
(0 -0 4.94748e-07)
(0 -0 3.52244e-07)
(0 -0 -7.38931e-06)
(0 -0 -1.4572e-05)
(0 -0 -2.07398e-05)
(0 -0 -2.44087e-05)
(0 -0 -2.47792e-05)
(0 -0 -2.20703e-05)
(0 -0 -1.73255e-05)
(0 -0 -1.19139e-05)
(0 -0 -7.01961e-06)
(0 -0 -3.33403e-06)
(0 -0 -1.0232e-06)
(0 -0 1.17303e-07)
(0 -0 4.54822e-07)
(0 -0 3.65665e-07)
(0 -0 1.66432e-07)
(0 -0 2.13077e-08)
(0 -0 -7.86262e-06)
(0 -0 -1.47425e-05)
(0 -0 -2.0541e-05)
(0 -0 -2.38496e-05)
(0 -0 -2.39567e-05)
(0 -0 -2.11459e-05)
(0 -0 -1.64765e-05)
(0 -0 -1.12817e-05)
(0 -0 -6.67892e-06)
(0 -0 -3.28979e-06)
(0 -0 -1.22915e-06)
(0 -0 -2.68942e-07)
(0 -0 -4.20614e-08)
(0 -0 -1.87064e-07)
(0 -0 -4.07481e-07)
(0 -0 -5.57114e-07)
(0 -0 -8.59246e-06)
(0 -0 -1.51795e-05)
(0 -0 -2.06187e-05)
(0 -0 -2.35756e-05)
(0 -0 -2.3425e-05)
(0 -0 -2.05144e-05)
(0 -0 -1.59185e-05)
(0 -0 -1.09363e-05)
(0 -0 -6.62003e-06)
(0 -0 -3.52271e-06)
(0 -0 -1.70895e-06)
(0 -0 -9.27165e-07)
(0 -0 -8.1039e-07)
(0 -0 -1.01156e-06)
(0 -0 -1.25416e-06)
(0 -0 -1.40935e-06)
(0 -0 -9.44508e-06)
(0 -0 -1.5755e-05)
(0 -0 -2.08501e-05)
(0 -0 -2.34673e-05)
(0 -0 -2.30656e-05)
(0 -0 -2.00555e-05)
(0 -0 -1.55282e-05)
(0 -0 -1.07508e-05)
(0 -0 -6.71245e-06)
(0 -0 -3.89974e-06)
(0 -0 -2.32817e-06)
(0 -0 -1.72264e-06)
(0 -0 -1.7158e-06)
(0 -0 -1.97435e-06)
(0 -0 -2.241e-06)
(0 -0 -2.40347e-06)
(0 -0 -9.95834e-06)
(0 -0 -1.60123e-05)
(0 -0 -2.07827e-05)
(0 -0 -2.30745e-05)
(0 -0 -2.24282e-05)
(0 -0 -1.93165e-05)
(0 -0 -1.4849e-05)
(0 -0 -1.02637e-05)
(0 -0 -6.49087e-06)
(0 -0 -3.9532e-06)
(0 -0 -2.61801e-06)
(0 -0 -2.18683e-06)
(0 -0 -2.29086e-06)
(0 -0 -2.60962e-06)
(0 -0 -2.90392e-06)
(0 -0 -3.07706e-06)
(0 -0 -9.18665e-06)
(0 -0 -1.50056e-05)
(0 -0 -1.94707e-05)
(0 -0 -2.14505e-05)
(0 -0 -2.05641e-05)
(0 -0 -1.73455e-05)
(0 -0 -1.29251e-05)
(0 -0 -8.5163e-06)
(0 -0 -4.9943e-06)
(0 -0 -2.72079e-06)
(0 -0 -1.61601e-06)
(0 -0 -1.35779e-06)
(0 -0 -1.57474e-06)
(0 -0 -1.95771e-06)
(0 -0 -2.28433e-06)
(0 -0 -2.47286e-06)
(0 -0 -5.72931e-06)
(0 -0 -1.13202e-05)
(0 -0 -1.5488e-05)
(0 -0 -1.7161e-05)
(0 -0 -1.60339e-05)
(0 -0 -1.27016e-05)
(0 -0 -8.31691e-06)
(0 -0 -4.07143e-06)
(0 -0 -7.88439e-07)
(0 -0 1.22944e-06)
(0 -0 2.10823e-06)
(0 -0 2.19458e-06)
(0 -0 1.86339e-06)
(0 -0 1.41346e-06)
(0 -0 1.05125e-06)
(0 -0 8.44158e-07)
(0 -0 1.83127e-06)
(0 -0 -3.5007e-06)
(0 -0 -7.34816e-06)
(0 -0 -8.69966e-06)
(0 -0 -7.32406e-06)
(0 -0 -3.87552e-06)
(0 -0 4.727e-07)
(0 -0 4.55253e-06)
(0 -0 7.59399e-06)
(0 -0 9.35462e-06)
(0 -0 1.00072e-05)
(0 -0 9.92295e-06)
(0 -0 9.47986e-06)
(0 -0 8.96604e-06)
(0 -0 8.5716e-06)
(0 -0 8.3494e-06)
(0 -0 1.3984e-05)
(0 -0 9.01013e-06)
(0 -0 5.56108e-06)
(0 -0 4.57961e-06)
(0 -0 6.21916e-06)
(0 -0 9.77018e-06)
(0 -0 1.40488e-05)
(0 -0 1.7923e-05)
(0 -0 2.06871e-05)
(0 -0 2.21658e-05)
(0 -0 2.25809e-05)
(0 -0 2.23266e-05)
(0 -0 2.17808e-05)
(0 -0 2.12174e-05)
(0 -0 2.08069e-05)
(0 -0 2.05857e-05)
(0 -0 2.91459e-05)
(0 -0 2.47236e-05)
(0 -0 2.18267e-05)
(0 -0 2.13065e-05)
(0 -0 2.32277e-05)
(0 -0 2.68325e-05)
(0 -0 3.09494e-05)
(0 -0 3.45117e-05)
(0 -0 3.69044e-05)
(0 -0 3.80353e-05)
(0 -0 3.818e-05)
(0 -0 3.77516e-05)
(0 -0 3.71195e-05)
(0 -0 3.65344e-05)
(0 -0 3.61403e-05)
(0 -0 3.59522e-05)
(0 -0 4.31407e-05)
(0 -0 3.9561e-05)
(0 -0 3.74485e-05)
(0 -0 3.75201e-05)
(0 -0 3.97309e-05)
(0 -0 4.32861e-05)
(0 -0 4.70649e-05)
(0 -0 5.01171e-05)
(0 -0 5.19633e-05)
(0 -0 5.26214e-05)
(0 -0 5.24282e-05)
(0 -0 5.18079e-05)
(0 -0 5.11067e-05)
(0 -0 5.05368e-05)
(0 -0 5.02038e-05)
(0 -0 5.00937e-05)
(0 -0 5.02088e-05)
(0 -0 4.78282e-05)
(0 -0 4.67854e-05)
(0 -0 4.75985e-05)
(0 -0 5.00823e-05)
(0 -0 5.3419e-05)
(0 -0 5.65922e-05)
(0 -0 5.8838e-05)
(0 -0 5.98747e-05)
(0 -0 5.98678e-05)
(0 -0 5.92243e-05)
(0 -0 5.83688e-05)
(0 -0 5.76035e-05)
(0 -0 5.70815e-05)
(0 -0 5.68535e-05)
(0 -0 5.68669e-05)
(0 -0 4.56561e-05)
(0 -0 4.48331e-05)
(0 -0 4.51387e-05)
(0 -0 4.68339e-05)
(0 -0 4.95414e-05)
(0 -0 5.24393e-05)
(0 -0 5.46749e-05)
(0 -0 5.57504e-05)
(0 -0 5.56516e-05)
(0 -0 5.47337e-05)
(0 -0 5.34849e-05)
(0 -0 5.23175e-05)
(0 -0 5.14669e-05)
(0 -0 5.10035e-05)
(0 -0 5.09058e-05)
(0 -0 5.10718e-05)
(0 -0 0.00290895)
(0 -0 0.00412147)
(0 -0 0.00165135)
(0 -0 -0.000890751)
(0 -0 -0.00168527)
(0 -0 -0.00132805)
(0 -0 -0.000745601)
(0 -0 -0.000337718)
(0 -0 -0.000129486)
(0 -0 0.00299648)
(0 -0 0.00424673)
(0 -0 0.00169635)
(0 -0 -0.00092632)
(0 -0 -0.00174393)
(0 -0 -0.0013731)
(0 -0 -0.000770615)
(0 -0 -0.000348975)
(0 -0 -0.000133784)
(0 -0 -4.3274e-05)
(0 -0 -1.01256e-05)
(0 -0 7.80077e-07)
(0 -0 4.07258e-06)
(0 -0 4.98689e-06)
(0 -0 5.20451e-06)
(0 -0 5.22432e-06)
(0 -0 5.18939e-06)
(0 -0 5.14022e-06)
(0 -0 5.08948e-06)
(0 -0 5.04127e-06)
(0 -0 4.99494e-06)
(0 -0 4.95061e-06)
(0 -0 4.91016e-06)
(0 -0 4.87628e-06)
(0 -0 4.85274e-06)
(0 -0 4.84296e-06)
(0 -0 4.84919e-06)
(0 -0 4.87338e-06)
(0 -0 4.9162e-06)
(0 -0 4.9771e-06)
(0 -0 5.05628e-06)
(0 -0 5.15517e-06)
(0 -0 5.27692e-06)
(0 -0 5.42457e-06)
(0 -0 5.60075e-06)
(0 -0 5.80775e-06)
(0 -0 6.04743e-06)
(0 -0 6.32117e-06)
(0 -0 6.63006e-06)
(0 -0 6.97551e-06)
(0 -0 7.35961e-06)
(0 -0 7.78435e-06)
(0 -0 8.25195e-06)
(0 -0 8.76439e-06)
(0 -0 9.32335e-06)
(0 -0 9.92976e-06)
(0 -0 1.05811e-05)
(0 -0 1.12648e-05)
(0 -0 1.19414e-05)
(0 -0 1.25092e-05)
(0 -0 1.27488e-05)
(0 -0 1.22709e-05)
(0 -0 1.0524e-05)
(0 -0 6.93588e-06)
(0 -0 1.17984e-06)
(0 -0 0.00308618)
(0 -0 0.00437509)
(0 -0 0.00174201)
(0 -0 -0.000963303)
(0 -0 -0.00180452)
(0 -0 -0.00141956)
(0 -0 -0.000796376)
(0 -0 -0.000360556)
(0 -0 -0.000138196)
(0 -0 -4.4692e-05)
(0 -0 -1.04553e-05)
(0 -0 8.05215e-07)
(0 -0 4.19912e-06)
(0 -0 5.13666e-06)
(0 -0 5.35439e-06)
(0 -0 5.36809e-06)
(0 -0 5.32717e-06)
(0 -0 5.27365e-06)
(0 -0 5.21908e-06)
(0 -0 5.1669e-06)
(0 -0 5.11572e-06)
(0 -0 5.06564e-06)
(0 -0 5.01851e-06)
(0 -0 4.97765e-06)
(0 -0 4.94751e-06)
(0 -0 4.93203e-06)
(0 -0 4.93313e-06)
(0 -0 4.95215e-06)
(0 -0 4.98918e-06)
(0 -0 5.04309e-06)
(0 -0 5.11408e-06)
(0 -0 5.20415e-06)
(0 -0 5.31738e-06)
(0 -0 5.45693e-06)
(0 -0 5.62467e-06)
(0 -0 5.82198e-06)
(0 -0 6.05002e-06)
(0 -0 6.30984e-06)
(0 -0 6.60235e-06)
(0 -0 6.92892e-06)
(0 -0 7.29199e-06)
(0 -0 7.69402e-06)
(0 -0 8.13774e-06)
(0 -0 8.62508e-06)
(0 -0 9.15737e-06)
(0 -0 9.73465e-06)
(0 -0 1.03534e-05)
(0 -0 1.10004e-05)
(0 -0 1.16357e-05)
(0 -0 1.21582e-05)
(0 -0 1.23505e-05)
(0 -0 1.18302e-05)
(0 -0 1.00608e-05)
(0 -0 6.49215e-06)
(0 -0 8.35454e-07)
(0 -0 0.00317816)
(0 -0 0.00450676)
(0 -0 0.00178846)
(0 -0 -0.00100173)
(0 -0 -0.00186713)
(0 -0 -0.00146747)
(0 -0 -0.000822924)
(0 -0 -0.000372481)
(0 -0 -0.000142732)
(0 -0 -4.61435e-05)
(0 -0 -1.0785e-05)
(0 -0 8.38036e-07)
(0 -0 4.33573e-06)
(0 -0 5.29594e-06)
(0 -0 5.51345e-06)
(0 -0 5.52115e-06)
(0 -0 5.47464e-06)
(0 -0 5.41719e-06)
(0 -0 5.35905e-06)
(0 -0 5.30311e-06)
(0 -0 5.24751e-06)
(0 -0 5.19221e-06)
(0 -0 5.13926e-06)
(0 -0 5.09249e-06)
(0 -0 5.05697e-06)
(0 -0 5.03647e-06)
(0 -0 5.03285e-06)
(0 -0 5.04682e-06)
(0 -0 5.07811e-06)
(0 -0 5.12542e-06)
(0 -0 5.18881e-06)
(0 -0 5.27122e-06)
(0 -0 5.37701e-06)
(0 -0 5.50932e-06)
(0 -0 5.66932e-06)
(0 -0 5.85754e-06)
(0 -0 6.07462e-06)
(0 -0 6.32126e-06)
(0 -0 6.59834e-06)
(0 -0 6.90745e-06)
(0 -0 7.25121e-06)
(0 -0 7.63257e-06)
(0 -0 8.05442e-06)
(0 -0 8.5186e-06)
(0 -0 9.02595e-06)
(0 -0 9.57569e-06)
(0 -0 1.01636e-05)
(0 -0 1.07758e-05)
(0 -0 1.13724e-05)
(0 -0 1.18526e-05)
(0 -0 1.20014e-05)
(0 -0 1.14425e-05)
(0 -0 9.65433e-06)
(0 -0 6.11113e-06)
(0 -0 5.55861e-07)
(0 -0 0.00327261)
(0 -0 0.00464186)
(0 -0 0.00183596)
(0 -0 -0.00104165)
(0 -0 -0.00193182)
(0 -0 -0.00151692)
(0 -0 -0.00085031)
(0 -0 -0.000384776)
(0 -0 -0.000147407)
(0 -0 -4.76381e-05)
(0 -0 -1.11227e-05)
(0 -0 8.76087e-07)
(0 -0 4.47964e-06)
(0 -0 5.46255e-06)
(0 -0 5.6799e-06)
(0 -0 5.68208e-06)
(0 -0 5.63019e-06)
(0 -0 5.56891e-06)
(0 -0 5.50707e-06)
(0 -0 5.44711e-06)
(0 -0 5.38731e-06)
(0 -0 5.32731e-06)
(0 -0 5.26941e-06)
(0 -0 5.21792e-06)
(0 -0 5.17804e-06)
(0 -0 5.15325e-06)
(0 -0 5.14527e-06)
(0 -0 5.15439e-06)
(0 -0 5.18004e-06)
(0 -0 5.22106e-06)
(0 -0 5.27776e-06)
(0 -0 5.35362e-06)
(0 -0 5.45308e-06)
(0 -0 5.57885e-06)
(0 -0 5.73151e-06)
(0 -0 5.911e-06)
(0 -0 6.11759e-06)
(0 -0 6.35184e-06)
(0 -0 6.61473e-06)
(0 -0 6.90798e-06)
(0 -0 7.23435e-06)
(0 -0 7.5971e-06)
(0 -0 7.99905e-06)
(0 -0 8.44192e-06)
(0 -0 8.92584e-06)
(0 -0 9.44939e-06)
(0 -0 1.00079e-05)
(0 -0 1.05874e-05)
(0 -0 1.11478e-05)
(0 -0 1.15888e-05)
(0 -0 1.16973e-05)
(0 -0 1.1103e-05)
(0 -0 9.29904e-06)
(0 -0 5.78465e-06)
(0 -0 3.30991e-07)
(0 -0 0.00336947)
(0 -0 0.00478094)
(0 -0 0.00188463)
(0 -0 -0.00108307)
(0 -0 -0.00199868)
(0 -0 -0.001568)
(0 -0 -0.000878585)
(0 -0 -0.000397471)
(0 -0 -0.000152237)
(0 -0 -4.91872e-05)
(0 -0 -1.14783e-05)
(0 -0 9.07974e-07)
(0 -0 4.6202e-06)
(0 -0 5.62627e-06)
(0 -0 5.84369e-06)
(0 -0 5.84076e-06)
(0 -0 5.78327e-06)
(0 -0 5.71764e-06)
(0 -0 5.65147e-06)
(0 -0 5.5867e-06)
(0 -0 5.52239e-06)
(0 -0 5.45785e-06)
(0 -0 5.39554e-06)
(0 -0 5.34007e-06)
(0 -0 5.29632e-06)
(0 -0 5.26744e-06)
(0 -0 5.25501e-06)
(0 -0 5.25912e-06)
(0 -0 5.27895e-06)
(0 -0 5.31372e-06)
(0 -0 5.36428e-06)
(0 -0 5.43423e-06)
(0 -0 5.52774e-06)
(0 -0 5.64698e-06)
(0 -0 5.79203e-06)
(0 -0 5.9625e-06)
(0 -0 6.15855e-06)
(0 -0 6.38078e-06)
(0 -0 6.63023e-06)
(0 -0 6.90876e-06)
(0 -0 7.21913e-06)
(0 -0 7.56468e-06)
(0 -0 7.94796e-06)
(0 -0 8.37044e-06)
(0 -0 8.83177e-06)
(0 -0 9.33006e-06)
(0 -0 9.86025e-06)
(0 -0 1.04083e-05)
(0 -0 1.09344e-05)
(0 -0 1.1338e-05)
(0 -0 1.14082e-05)
(0 -0 1.0781e-05)
(0 -0 8.96364e-06)
(0 -0 5.47949e-06)
(0 -0 1.2903e-07)
(0 -0 0.00346899)
(0 -0 0.00492441)
(0 -0 0.00193475)
(0 -0 -0.00112592)
(0 -0 -0.00206777)
(0 -0 -0.00162078)
(0 -0 -0.000907802)
(0 -0 -0.000410598)
(0 -0 -0.000157247)
(0 -0 -5.08103e-05)
(0 -0 -1.18712e-05)
(0 -0 9.14103e-07)
(0 -0 4.73802e-06)
(0 -0 5.76757e-06)
(0 -0 5.98492e-06)
(0 -0 5.97674e-06)
(0 -0 5.91279e-06)
(0 -0 5.84148e-06)
(0 -0 5.76964e-06)
(0 -0 5.6986e-06)
(0 -0 5.62872e-06)
(0 -0 5.55928e-06)
(0 -0 5.49258e-06)
(0 -0 5.4332e-06)
(0 -0 5.38551e-06)
(0 -0 5.35222e-06)
(0 -0 5.3348e-06)
(0 -0 5.33333e-06)
(0 -0 5.34691e-06)
(0 -0 5.37521e-06)
(0 -0 5.41965e-06)
(0 -0 5.48373e-06)
(0 -0 5.57106e-06)
(0 -0 5.68322e-06)
(0 -0 5.81999e-06)
(0 -0 5.98091e-06)
(0 -0 6.16617e-06)
(0 -0 6.37648e-06)
(0 -0 6.61289e-06)
(0 -0 6.8774e-06)
(0 -0 7.17271e-06)
(0 -0 7.50195e-06)
(0 -0 7.8674e-06)
(0 -0 8.27012e-06)
(0 -0 8.7094e-06)
(0 -0 9.18299e-06)
(0 -0 9.68578e-06)
(0 -0 1.02034e-05)
(0 -0 1.0696e-05)
(0 -0 1.10636e-05)
(0 -0 1.10968e-05)
(0 -0 1.04381e-05)
(0 -0 8.60899e-06)
(0 -0 5.1565e-06)
(0 -0 -8.99497e-08)
(0 -0 0.00357144)
(0 -0 0.00507284)
(0 -0 0.00198677)
(0 -0 -0.00117006)
(0 -0 -0.00213912)
(0 -0 -0.0016753)
(0 -0 -0.000938006)
(0 -0 -0.000424192)
(0 -0 -0.000162462)
(0 -0 -5.25313e-05)
(0 -0 -1.23255e-05)
(0 -0 8.69613e-07)
(0 -0 4.80774e-06)
(0 -0 5.86047e-06)
(0 -0 6.07679e-06)
(0 -0 6.06248e-06)
(0 -0 5.99059e-06)
(0 -0 5.91145e-06)
(0 -0 5.83189e-06)
(0 -0 5.75243e-06)
(0 -0 5.67509e-06)
(0 -0 5.59962e-06)
(0 -0 5.5278e-06)
(0 -0 5.46382e-06)
(0 -0 5.41138e-06)
(0 -0 5.37281e-06)
(0 -0 5.34938e-06)
(0 -0 5.34129e-06)
(0 -0 5.34779e-06)
(0 -0 5.36895e-06)
(0 -0 5.40657e-06)
(0 -0 5.4639e-06)
(0 -0 5.54395e-06)
(0 -0 5.6478e-06)
(0 -0 5.77513e-06)
(0 -0 5.92554e-06)
(0 -0 6.09936e-06)
(0 -0 6.29739e-06)
(0 -0 6.52062e-06)
(0 -0 6.77101e-06)
(0 -0 7.05125e-06)
(0 -0 7.36426e-06)
(0 -0 7.71195e-06)
(0 -0 8.09485e-06)
(0 -0 8.51201e-06)
(0 -0 8.96078e-06)
(0 -0 9.43603e-06)
(0 -0 9.92332e-06)
(0 -0 1.03824e-05)
(0 -0 1.07139e-05)
(0 -0 1.07101e-05)
(0 -0 1.002e-05)
(0 -0 8.17959e-06)
(0 -0 4.75935e-06)
(0 -0 -3.82945e-07)
(0 -0 0.00367711)
(0 -0 0.00522707)
(0 -0 0.00204142)
(0 -0 -0.00121509)
(0 -0 -0.00221258)
(0 -0 -0.00173156)
(0 -0 -0.000969213)
(0 -0 -0.000438273)
(0 -0 -0.000167903)
(0 -0 -5.43704e-05)
(0 -0 -1.28623e-05)
(0 -0 7.5151e-07)
(0 -0 4.80489e-06)
(0 -0 5.87912e-06)
(0 -0 6.09188e-06)
(0 -0 6.06924e-06)
(0 -0 5.98701e-06)
(0 -0 5.89682e-06)
(0 -0 5.80635e-06)
(0 -0 5.71548e-06)
(0 -0 5.62771e-06)
(0 -0 5.54386e-06)
(0 -0 5.46501e-06)
(0 -0 5.39455e-06)
(0 -0 5.33546e-06)
(0 -0 5.28969e-06)
(0 -0 5.25837e-06)
(0 -0 5.24182e-06)
(0 -0 5.23952e-06)
(0 -0 5.25186e-06)
(0 -0 5.28082e-06)
(0 -0 5.32932e-06)
(0 -0 5.39981e-06)
(0 -0 5.49304e-06)
(0 -0 5.60879e-06)
(0 -0 5.74689e-06)
(0 -0 5.90768e-06)
(0 -0 6.09197e-06)
(0 -0 6.30077e-06)
(0 -0 6.53584e-06)
(0 -0 6.7998e-06)
(0 -0 7.09532e-06)
(0 -0 7.424e-06)
(0 -0 7.78573e-06)
(0 -0 8.17933e-06)
(0 -0 8.60198e-06)
(0 -0 9.0481e-06)
(0 -0 9.50351e-06)
(0 -0 9.92758e-06)
(0 -0 1.0221e-05)
(0 -0 1.01786e-05)
(0 -0 9.45576e-06)
(0 -0 7.60281e-06)
(0 -0 4.21389e-06)
(0 -0 -8.25387e-07)
(0 -0 0.00378637)
(0 -0 0.00538837)
(0 -0 0.0021)
(0 -0 -0.00126022)
(0 -0 -0.00228779)
(0 -0 -0.00178942)
(0 -0 -0.00100138)
(0 -0 -0.000452826)
(0 -0 -0.000173562)
(0 -0 -5.63221e-05)
(0 -0 -1.34778e-05)
(0 -0 5.61351e-07)
(0 -0 4.72896e-06)
(0 -0 5.8212e-06)
(0 -0 6.02599e-06)
(0 -0 5.99094e-06)
(0 -0 5.89453e-06)
(0 -0 5.78869e-06)
(0 -0 5.68271e-06)
(0 -0 5.57617e-06)
(0 -0 5.47367e-06)
(0 -0 5.37752e-06)
(0 -0 5.28809e-06)
(0 -0 5.20761e-06)
(0 -0 5.13843e-06)
(0 -0 5.08208e-06)
(0 -0 5.03955e-06)
(0 -0 5.01124e-06)
(0 -0 4.99691e-06)
(0 -0 4.99715e-06)
(0 -0 5.01394e-06)
(0 -0 5.04983e-06)
(0 -0 5.10686e-06)
(0 -0 5.18569e-06)
(0 -0 5.28628e-06)
(0 -0 5.40869e-06)
(0 -0 5.55329e-06)
(0 -0 5.72066e-06)
(0 -0 5.91191e-06)
(0 -0 6.12868e-06)
(0 -0 6.3734e-06)
(0 -0 6.64827e-06)
(0 -0 6.95462e-06)
(0 -0 7.29184e-06)
(0 -0 7.6582e-06)
(0 -0 8.05105e-06)
(0 -0 8.46457e-06)
(0 -0 8.88423e-06)
(0 -0 9.26946e-06)
(0 -0 9.52111e-06)
(0 -0 9.4361e-06)
(0 -0 8.67683e-06)
(0 -0 6.80808e-06)
(0 -0 3.44717e-06)
(0 -0 -1.49281e-06)
(0 -0 0.00389973)
(0 -0 0.00555878)
(0 -0 0.00216461)
(0 -0 -0.00130403)
(0 -0 -0.00236407)
(0 -0 -0.00184859)
(0 -0 -0.00103437)
(0 -0 -0.000467757)
(0 -0 -0.000179359)
(0 -0 -5.83105e-05)
(0 -0 -1.40973e-05)
(0 -0 3.7261e-07)
(0 -0 4.65171e-06)
(0 -0 5.75703e-06)
(0 -0 5.94793e-06)
(0 -0 5.89463e-06)
(0 -0 5.77868e-06)
(0 -0 5.6513e-06)
(0 -0 5.52377e-06)
(0 -0 5.39602e-06)
(0 -0 5.2732e-06)
(0 -0 5.15911e-06)
(0 -0 5.05366e-06)
(0 -0 4.95776e-06)
(0 -0 4.87323e-06)
(0 -0 4.80115e-06)
(0 -0 4.74226e-06)
(0 -0 4.69704e-06)
(0 -0 4.66547e-06)
(0 -0 4.64825e-06)
(0 -0 4.64728e-06)
(0 -0 4.66481e-06)
(0 -0 4.70255e-06)
(0 -0 4.76125e-06)
(0 -0 4.84115e-06)
(0 -0 4.94239e-06)
(0 -0 5.06538e-06)
(0 -0 5.21047e-06)
(0 -0 5.37869e-06)
(0 -0 5.57164e-06)
(0 -0 5.79159e-06)
(0 -0 6.0402e-06)
(0 -0 6.31803e-06)
(0 -0 6.62444e-06)
(0 -0 6.95719e-06)
(0 -0 7.31345e-06)
(0 -0 7.68773e-06)
(0 -0 8.06501e-06)
(0 -0 8.40458e-06)
(0 -0 8.60765e-06)
(0 -0 8.47344e-06)
(0 -0 7.67114e-06)
(0 -0 5.77994e-06)
(0 -0 2.44015e-06)
(0 -0 -2.40823e-06)
(0 -0 0.00401802)
(0 -0 0.00574138)
(0 -0 0.00223844)
(0 -0 -0.00134445)
(0 -0 -0.00244039)
(0 -0 -0.00190859)
(0 -0 -0.00106791)
(0 -0 -0.000482851)
(0 -0 -0.000185085)
(0 -0 -6.0124e-05)
(0 -0 -1.45055e-05)
(0 -0 4.02899e-07)
(0 -0 4.79176e-06)
(0 -0 5.906e-06)
(0 -0 6.07759e-06)
(0 -0 6.00008e-06)
(0 -0 5.85907e-06)
(0 -0 5.70438e-06)
(0 -0 5.54918e-06)
(0 -0 5.3946e-06)
(0 -0 5.24562e-06)
(0 -0 5.10723e-06)
(0 -0 4.97932e-06)
(0 -0 4.86155e-06)
(0 -0 4.75522e-06)
(0 -0 4.66099e-06)
(0 -0 4.57927e-06)
(0 -0 4.51056e-06)
(0 -0 4.45506e-06)
(0 -0 4.41349e-06)
(0 -0 4.3876e-06)
(0 -0 4.37947e-06)
(0 -0 4.39059e-06)
(0 -0 4.42185e-06)
(0 -0 4.47378e-06)
(0 -0 4.54657e-06)
(0 -0 4.64046e-06)
(0 -0 4.75564e-06)
(0 -0 4.89316e-06)
(0 -0 5.0545e-06)
(0 -0 5.24142e-06)
(0 -0 5.45532e-06)
(0 -0 5.69586e-06)
(0 -0 5.96195e-06)
(0 -0 6.25155e-06)
(0 -0 6.56157e-06)
(0 -0 6.88661e-06)
(0 -0 7.21166e-06)
(0 -0 7.49574e-06)
(0 -0 7.64036e-06)
(0 -0 7.447e-06)
(0 -0 6.5916e-06)
(0 -0 4.66744e-06)
(0 -0 1.33739e-06)
(0 -0 -3.43218e-06)
(0 -0 0.00414261)
(0 -0 0.00594052)
(0 -0 0.00232555)
(0 -0 -0.0013791)
(0 -0 -0.00251573)
(0 -0 -0.00196899)
(0 -0 -0.00110169)
(0 -0 -0.000497775)
(0 -0 -0.000190368)
(0 -0 -6.1364e-05)
(0 -0 -1.42863e-05)
(0 -0 1.07988e-06)
(0 -0 5.58496e-06)
(0 -0 6.7105e-06)
(0 -0 6.86313e-06)
(0 -0 6.76016e-06)
(0 -0 6.59272e-06)
(0 -0 6.40923e-06)
(0 -0 6.22424e-06)
(0 -0 6.04073e-06)
(0 -0 5.86305e-06)
(0 -0 5.6967e-06)
(0 -0 5.54215e-06)
(0 -0 5.39803e-06)
(0 -0 5.26518e-06)
(0 -0 5.14394e-06)
(0 -0 5.03433e-06)
(0 -0 4.93681e-06)
(0 -0 4.85181e-06)
(0 -0 4.78013e-06)
(0 -0 4.72326e-06)
(0 -0 4.68307e-06)
(0 -0 4.66113e-06)
(0 -0 4.65845e-06)
(0 -0 4.67569e-06)
(0 -0 4.71303e-06)
(0 -0 4.77055e-06)
(0 -0 4.84828e-06)
(0 -0 4.94709e-06)
(0 -0 5.06859e-06)
(0 -0 5.21384e-06)
(0 -0 5.38351e-06)
(0 -0 5.57702e-06)
(0 -0 5.79254e-06)
(0 -0 6.02814e-06)
(0 -0 6.28106e-06)
(0 -0 6.5459e-06)
(0 -0 6.80757e-06)
(0 -0 7.02497e-06)
(0 -0 7.09988e-06)
(0 -0 6.8359e-06)
(0 -0 5.9154e-06)
(0 -0 3.94528e-06)
(0 -0 6.10227e-07)
(0 -0 -4.09743e-06)
(0 -0 0.00427575)
(0 -0 0.00616138)
(0 -0 0.00242976)
(0 -0 -0.0014066)
(0 -0 -0.00259004)
(0 -0 -0.00202994)
(0 -0 -0.00113565)
(0 -0 -0.000512227)
(0 -0 -0.000194752)
(0 -0 -6.14906e-05)
(0 -0 -1.28549e-05)
(0 -0 3.01704e-06)
(0 -0 7.66594e-06)
(0 -0 8.82269e-06)
(0 -0 8.97245e-06)
(0 -0 8.8569e-06)
(0 -0 8.67453e-06)
(0 -0 8.47326e-06)
(0 -0 8.26831e-06)
(0 -0 8.0648e-06)
(0 -0 7.86638e-06)
(0 -0 7.67834e-06)
(0 -0 7.50213e-06)
(0 -0 7.33595e-06)
(0 -0 7.18018e-06)
(0 -0 7.03497e-06)
(0 -0 6.90014e-06)
(0 -0 6.77611e-06)
(0 -0 6.66345e-06)
(0 -0 6.56305e-06)
(0 -0 6.47623e-06)
(0 -0 6.40466e-06)
(0 -0 6.34993e-06)
(0 -0 6.31339e-06)
(0 -0 6.2957e-06)
(0 -0 6.29684e-06)
(0 -0 6.3166e-06)
(0 -0 6.35516e-06)
(0 -0 6.41299e-06)
(0 -0 6.49154e-06)
(0 -0 6.59171e-06)
(0 -0 6.71302e-06)
(0 -0 6.85452e-06)
(0 -0 7.01432e-06)
(0 -0 7.19038e-06)
(0 -0 7.38029e-06)
(0 -0 7.57884e-06)
(0 -0 7.77092e-06)
(0 -0 7.9153e-06)
(0 -0 7.91397e-06)
(0 -0 7.57246e-06)
(0 -0 6.57906e-06)
(0 -0 4.55361e-06)
(0 -0 1.20167e-06)
(0 -0 -3.45928e-06)
(0 -0 0.00442105)
(0 -0 0.00640864)
(0 -0 0.00255187)
(0 -0 -0.00142931)
(0 -0 -0.00266621)
(0 -0 -0.00209338)
(0 -0 -0.00117063)
(0 -0 -0.000526341)
(0 -0 -0.000197999)
(0 -0 -6.00877e-05)
(0 -0 -9.70625e-06)
(0 -0 6.77258e-06)
(0 -0 1.16318e-05)
(0 -0 1.28723e-05)
(0 -0 1.30648e-05)
(0 -0 1.29769e-05)
(0 -0 1.28166e-05)
(0 -0 1.2633e-05)
(0 -0 1.24413e-05)
(0 -0 1.22488e-05)
(0 -0 1.20589e-05)
(0 -0 1.18761e-05)
(0 -0 1.1703e-05)
(0 -0 1.15382e-05)
(0 -0 1.13817e-05)
(0 -0 1.12338e-05)
(0 -0 1.10942e-05)
(0 -0 1.09635e-05)
(0 -0 1.08425e-05)
(0 -0 1.07319e-05)
(0 -0 1.06331e-05)
(0 -0 1.05477e-05)
(0 -0 1.04773e-05)
(0 -0 1.04235e-05)
(0 -0 1.03869e-05)
(0 -0 1.03675e-05)
(0 -0 1.03645e-05)
(0 -0 1.03781e-05)
(0 -0 1.04089e-05)
(0 -0 1.04576e-05)
(0 -0 1.05249e-05)
(0 -0 1.061e-05)
(0 -0 1.07111e-05)
(0 -0 1.08264e-05)
(0 -0 1.09541e-05)
(0 -0 1.1092e-05)
(0 -0 1.12351e-05)
(0 -0 1.13684e-05)
(0 -0 1.14505e-05)
(0 -0 1.13836e-05)
(0 -0 1.09748e-05)
(0 -0 9.91806e-06)
(0 -0 7.84499e-06)
(0 -0 4.48106e-06)
(0 -0 -1.32337e-07)
(0 -0 0.00458368)
(0 -0 0.00668372)
(0 -0 0.00268523)
(0 -0 -0.00145731)
(0 -0 -0.00275272)
(0 -0 -0.00216461)
(0 -0 -0.00120937)
(0 -0 -0.000541388)
(0 -0 -0.000200676)
(0 -0 -5.74132e-05)
(0 -0 -4.95714e-06)
(0 -0 1.23071e-05)
(0 -0 1.74976e-05)
(0 -0 1.89194e-05)
(0 -0 1.92416e-05)
(0 -0 1.92608e-05)
(0 -0 1.91965e-05)
(0 -0 1.91013e-05)
(0 -0 1.89902e-05)
(0 -0 1.88726e-05)
(0 -0 1.87521e-05)
(0 -0 1.86327e-05)
(0 -0 1.85182e-05)
(0 -0 1.84081e-05)
(0 -0 1.83025e-05)
(0 -0 1.8202e-05)
(0 -0 1.81068e-05)
(0 -0 1.80177e-05)
(0 -0 1.79357e-05)
(0 -0 1.78619e-05)
(0 -0 1.77973e-05)
(0 -0 1.77437e-05)
(0 -0 1.7703e-05)
(0 -0 1.76769e-05)
(0 -0 1.76659e-05)
(0 -0 1.76699e-05)
(0 -0 1.76881e-05)
(0 -0 1.772e-05)
(0 -0 1.77665e-05)
(0 -0 1.78283e-05)
(0 -0 1.79053e-05)
(0 -0 1.79966e-05)
(0 -0 1.81003e-05)
(0 -0 1.82145e-05)
(0 -0 1.83375e-05)
(0 -0 1.84675e-05)
(0 -0 1.85996e-05)
(0 -0 1.87187e-05)
(0 -0 1.87837e-05)
(0 -0 1.86968e-05)
(0 -0 1.8267e-05)
(0 -0 1.7193e-05)
(0 -0 1.5118e-05)
(0 -0 1.1786e-05)
(0 -0 7.26092e-06)
(0 -0 0.00477038)
(0 -0 0.00698122)
(0 -0 0.00281087)
(0 -0 -0.00151239)
(0 -0 -0.00286617)
(0 -0 -0.00225373)
(0 -0 -0.00125745)
(0 -0 -0.000560525)
(0 -0 -0.000204855)
(0 -0 -5.50952e-05)
(0 -0 -5.45039e-08)
(0 -0 1.82591e-05)
(0 -0 2.39556e-05)
(0 -0 2.56996e-05)
(0 -0 2.6278e-05)
(0 -0 2.6522e-05)
(0 -0 2.66646e-05)
(0 -0 2.67639e-05)
(0 -0 2.68357e-05)
(0 -0 2.6891e-05)
(0 -0 2.69345e-05)
(0 -0 2.697e-05)
(0 -0 2.70026e-05)
(0 -0 2.70335e-05)
(0 -0 2.70633e-05)
(0 -0 2.70934e-05)
(0 -0 2.71247e-05)
(0 -0 2.71583e-05)
(0 -0 2.71959e-05)
(0 -0 2.72389e-05)
(0 -0 2.72885e-05)
(0 -0 2.73468e-05)
(0 -0 2.74156e-05)
(0 -0 2.74972e-05)
(0 -0 2.75923e-05)
(0 -0 2.77001e-05)
(0 -0 2.78201e-05)
(0 -0 2.79518e-05)
(0 -0 2.80958e-05)
(0 -0 2.82529e-05)
(0 -0 2.84232e-05)
(0 -0 2.86057e-05)
(0 -0 2.87985e-05)
(0 -0 2.89997e-05)
(0 -0 2.92077e-05)
(0 -0 2.94209e-05)
(0 -0 2.96345e-05)
(0 -0 2.98337e-05)
(0 -0 2.99773e-05)
(0 -0 2.99682e-05)
(0 -0 2.96173e-05)
(0 -0 2.86289e-05)
(0 -0 2.6658e-05)
(0 -0 2.34665e-05)
(0 -0 1.91382e-05)
(0 -0 0.00498886)
(0 -0 0.00728634)
(0 -0 0.00289519)
(0 -0 -0.00162902)
(0 -0 -0.00303138)
(0 -0 -0.00237565)
(0 -0 -0.00132336)
(0 -0 -0.000589013)
(0 -0 -0.000214421)
(0 -0 -5.65033e-05)
(0 -0 1.80753e-06)
(0 -0 2.1492e-05)
(0 -0 2.78911e-05)
(0 -0 3.01109e-05)
(0 -0 3.10832e-05)
(0 -0 3.1682e-05)
(0 -0 3.21555e-05)
(0 -0 3.25695e-05)
(0 -0 3.2941e-05)
(0 -0 3.32825e-05)
(0 -0 3.36009e-05)
(0 -0 3.39e-05)
(0 -0 3.41863e-05)
(0 -0 3.44632e-05)
(0 -0 3.47325e-05)
(0 -0 3.49965e-05)
(0 -0 3.52571e-05)
(0 -0 3.55164e-05)
(0 -0 3.57767e-05)
(0 -0 3.604e-05)
(0 -0 3.63083e-05)
(0 -0 3.6584e-05)
(0 -0 3.68693e-05)
(0 -0 3.71663e-05)
(0 -0 3.74764e-05)
(0 -0 3.7799e-05)
(0 -0 3.81334e-05)
(0 -0 3.84794e-05)
(0 -0 3.88378e-05)
(0 -0 3.92094e-05)
(0 -0 3.95952e-05)
(0 -0 3.99942e-05)
(0 -0 4.04052e-05)
(0 -0 4.08261e-05)
(0 -0 4.12556e-05)
(0 -0 4.16917e-05)
(0 -0 4.21299e-05)
(0 -0 4.25557e-05)
(0 -0 4.29285e-05)
(0 -0 4.31522e-05)
(0 -0 4.30409e-05)
(0 -0 4.23064e-05)
(0 -0 4.06175e-05)
(0 -0 3.77553e-05)
(0 -0 3.3821e-05)
(0 -0 0.00524706)
(0 -0 0.00757579)
(0 -0 0.00289416)
(0 -0 -0.00184902)
(0 -0 -0.00327722)
(0 -0 -0.00254742)
(0 -0 -0.00141692)
(0 -0 -0.000633213)
(0 -0 -0.000234355)
(0 -0 -6.61616e-05)
(0 -0 -3.79377e-06)
(0 -0 1.75675e-05)
(0 -0 2.48197e-05)
(0 -0 2.76188e-05)
(0 -0 2.90762e-05)
(0 -0 3.0118e-05)
(0 -0 3.10092e-05)
(0 -0 3.18242e-05)
(0 -0 3.25821e-05)
(0 -0 3.32965e-05)
(0 -0 3.39761e-05)
(0 -0 3.46257e-05)
(0 -0 3.5253e-05)
(0 -0 3.58636e-05)
(0 -0 3.64609e-05)
(0 -0 3.70488e-05)
(0 -0 3.76303e-05)
(0 -0 3.82083e-05)
(0 -0 3.87863e-05)
(0 -0 3.93673e-05)
(0 -0 3.99543e-05)
(0 -0 4.05499e-05)
(0 -0 4.11573e-05)
(0 -0 4.17785e-05)
(0 -0 4.24151e-05)
(0 -0 4.30676e-05)
(0 -0 4.37353e-05)
(0 -0 4.44188e-05)
(0 -0 4.51192e-05)
(0 -0 4.58381e-05)
(0 -0 4.65772e-05)
(0 -0 4.73365e-05)
(0 -0 4.81152e-05)
(0 -0 4.89119e-05)
(0 -0 4.97247e-05)
(0 -0 5.05518e-05)
(0 -0 5.13887e-05)
(0 -0 5.22215e-05)
(0 -0 5.30105e-05)
(0 -0 5.3662e-05)
(0 -0 5.39954e-05)
(0 -0 5.37339e-05)
(0 -0 5.25653e-05)
(0 -0 5.02939e-05)
(0 -0 4.70361e-05)
(0 -0 0.00555071)
(0 -0 0.00782364)
(0 -0 0.00276581)
(0 -0 -0.00220894)
(0 -0 -0.00362756)
(0 -0 -0.00278253)
(0 -0 -0.00154575)
(0 -0 -0.000698128)
(0 -0 -0.000268722)
(0 -0 -8.79123e-05)
(0 -0 -2.07367e-05)
(0 -0 2.49271e-06)
(0 -0 1.06185e-05)
(0 -0 1.39755e-05)
(0 -0 1.58925e-05)
(0 -0 1.73581e-05)
(0 -0 1.86546e-05)
(0 -0 1.98641e-05)
(0 -0 2.10085e-05)
(0 -0 2.21009e-05)
(0 -0 2.31516e-05)
(0 -0 2.41663e-05)
(0 -0 2.51533e-05)
(0 -0 2.61206e-05)
(0 -0 2.7073e-05)
(0 -0 2.8016e-05)
(0 -0 2.89538e-05)
(0 -0 2.98904e-05)
(0 -0 3.08301e-05)
(0 -0 3.17774e-05)
(0 -0 3.27365e-05)
(0 -0 3.37107e-05)
(0 -0 3.47033e-05)
(0 -0 3.5717e-05)
(0 -0 3.67538e-05)
(0 -0 3.78151e-05)
(0 -0 3.89017e-05)
(0 -0 4.00147e-05)
(0 -0 4.11558e-05)
(0 -0 4.23282e-05)
(0 -0 4.35343e-05)
(0 -0 4.47757e-05)
(0 -0 4.60525e-05)
(0 -0 4.73636e-05)
(0 -0 4.87072e-05)
(0 -0 5.00813e-05)
(0 -0 5.14818e-05)
(0 -0 5.28953e-05)
(0 -0 5.42841e-05)
(0 -0 5.55581e-05)
(0 -0 5.65454e-05)
(0 -0 5.69869e-05)
(0 -0 5.65977e-05)
(0 -0 5.52123e-05)
(0 -0 5.29622e-05)
(0 -0 0.00589456)
(0 -0 0.00801097)
(0 -0 0.00248794)
(0 -0 -0.0027238)
(0 -0 -0.00409014)
(0 -0 -0.00308422)
(0 -0 -0.00171107)
(0 -0 -0.00078438)
(0 -0 -0.000318094)
(0 -0 -0.000122466)
(0 -0 -4.99237e-05)
(0 -0 -2.48297e-05)
(0 -0 -1.59937e-05)
(0 -0 -1.22718e-05)
(0 -0 -1.00807e-05)
(0 -0 -8.35999e-06)
(0 -0 -6.81038e-06)
(0 -0 -5.34422e-06)
(0 -0 -3.93819e-06)
(0 -0 -2.58089e-06)
(0 -0 -1.2619e-06)
(0 -0 2.44148e-08)
(0 -0 1.28639e-06)
(0 -0 2.53356e-06)
(0 -0 3.77249e-06)
(0 -0 5.00921e-06)
(0 -0 6.24896e-06)
(0 -0 7.49663e-06)
(0 -0 8.75786e-06)
(0 -0 1.00378e-05)
(0 -0 1.13419e-05)
(0 -0 1.26748e-05)
(0 -0 1.40393e-05)
(0 -0 1.54387e-05)
(0 -0 1.68761e-05)
(0 -0 1.83542e-05)
(0 -0 1.98753e-05)
(0 -0 2.14415e-05)
(0 -0 2.30561e-05)
(0 -0 2.47232e-05)
(0 -0 2.6447e-05)
(0 -0 2.82303e-05)
(0 -0 3.00748e-05)
(0 -0 3.19797e-05)
(0 -0 3.39437e-05)
(0 -0 3.59648e-05)
(0 -0 3.80393e-05)
(0 -0 4.0155e-05)
(0 -0 4.22762e-05)
(0 -0 4.43188e-05)
(0 -0 4.61237e-05)
(0 -0 4.74562e-05)
(0 -0 4.80694e-05)
(0 -0 4.78393e-05)
(0 -0 4.69088e-05)
(0 -0 0.0062492)
(0 -0 0.0081345)
(0 -0 0.00208296)
(0 -0 -0.00335899)
(0 -0 -0.00463649)
(0 -0 -0.00343264)
(0 -0 -0.00190051)
(0 -0 -0.000883968)
(0 -0 -0.000376517)
(0 -0 -0.000164803)
(0 -0 -8.67777e-05)
(0 -0 -6.00678e-05)
(0 -0 -5.08597e-05)
(0 -0 -4.71126e-05)
(0 -0 -4.49665e-05)
(0 -0 -4.32847e-05)
(0 -0 -4.17529e-05)
(0 -0 -4.02812e-05)
(0 -0 -3.8847e-05)
(0 -0 -3.74428e-05)
(0 -0 -3.60601e-05)
(0 -0 -3.46941e-05)
(0 -0 -3.33374e-05)
(0 -0 -3.19803e-05)
(0 -0 -3.06153e-05)
(0 -0 -2.92358e-05)
(0 -0 -2.78364e-05)
(0 -0 -2.6412e-05)
(0 -0 -2.49562e-05)
(0 -0 -2.34626e-05)
(0 -0 -2.19252e-05)
(0 -0 -2.03389e-05)
(0 -0 -1.87004e-05)
(0 -0 -1.70064e-05)
(0 -0 -1.52525e-05)
(0 -0 -1.34343e-05)
(0 -0 -1.1548e-05)
(0 -0 -9.58959e-06)
(0 -0 -7.55465e-06)
(0 -0 -5.43778e-06)
(0 -0 -3.23337e-06)
(0 -0 -9.36589e-07)
(0 -0 1.45522e-06)
(0 -0 3.94239e-06)
(0 -0 6.52401e-06)
(0 -0 9.19867e-06)
(0 -0 1.19632e-05)
(0 -0 1.48066e-05)
(0 -0 1.76963e-05)
(0 -0 2.05552e-05)
(0 -0 2.32401e-05)
(0 -0 2.55475e-05)
(0 -0 2.72782e-05)
(0 -0 2.83553e-05)
(0 -0 2.89456e-05)
(0 -0 0.00660617)
(0 -0 0.00821232)
(0 -0 0.00159481)
(0 -0 -0.00407131)
(0 -0 -0.00523251)
(0 -0 -0.00380686)
(0 -0 -0.002101)
(0 -0 -0.000987603)
(0 -0 -0.000436375)
(0 -0 -0.000207901)
(0 -0 -0.000124467)
(0 -0 -9.64651e-05)
(0 -0 -8.72672e-05)
(0 -0 -8.3874e-05)
(0 -0 -8.21324e-05)
(0 -0 -8.08258e-05)
(0 -0 -7.96251e-05)
(0 -0 -7.84423e-05)
(0 -0 -7.72566e-05)
(0 -0 -7.6066e-05)
(0 -0 -7.48662e-05)
(0 -0 -7.36546e-05)
(0 -0 -7.24254e-05)
(0 -0 -7.11698e-05)
(0 -0 -6.98802e-05)
(0 -0 -6.85507e-05)
(0 -0 -6.71759e-05)
(0 -0 -6.57509e-05)
(0 -0 -6.42696e-05)
(0 -0 -6.27248e-05)
(0 -0 -6.11099e-05)
(0 -0 -5.94199e-05)
(0 -0 -5.76512e-05)
(0 -0 -5.58001e-05)
(0 -0 -5.38612e-05)
(0 -0 -5.18284e-05)
(0 -0 -4.96958e-05)
(0 -0 -4.74581e-05)
(0 -0 -4.51095e-05)
(0 -0 -4.26432e-05)