/*--------------------------------*- C++ -*----------------------------------*\
| =========                 |                                                 |
| \\      /  F ield         | OpenFOAM: The Open Source CFD Toolbox           |
|  \\    /   O peration     | Version:  2412                                  |
|   \\  /    A nd           | Website:  www.openfoam.com                      |
|    \\/     M anipulation  |                                                 |
\*---------------------------------------------------------------------------*/
FoamFile
{
    version     2.0;
    format      ascii;
    arch        "LSB;label=32;scalar=64";
    class       volScalarField;
    location    "11.5";
    object      p;
}
// * * * * * * * * * * * * * * * * * * * * * * * * * * * * * * * * * * * * * //

dimensions      [0 2 -2 0 0 0 0];

internalField   nonuniform List<scalar> 
5285
(
-0.000110929
-6.15182e-05
-2.27991e-05
6.78651e-06
2.86846e-05
4.42131e-05
5.45471e-05
6.07115e-05
6.35867e-05
6.3917e-05
6.23229e-05
5.93137e-05
5.53019e-05
5.06167e-05
4.55173e-05
4.0204e-05
3.48296e-05
2.95077e-05
2.43211e-05
1.93278e-05
1.45668e-05
1.00627e-05
5.82854e-06
1.86936e-06
-1.81598e-06
-5.23296e-06
-8.39027e-06
-1.12981e-05
-0.00012568
-7.46986e-05
-3.45431e-05
-3.65358e-06
1.94211e-05
3.60065e-05
4.72858e-05
5.42924e-05
5.79156e-05
5.89089e-05
5.79008e-05
5.54088e-05
5.18529e-05
4.7569e-05
4.28224e-05
3.78195e-05
3.27177e-05
2.76354e-05
2.26593e-05
1.78511e-05
1.32532e-05
8.8926e-06
4.78517e-06
9.37986e-07
-2.64815e-06
-5.97704e-06
-9.05606e-06
-1.18933e-05
-0.000154764
-0.000100703
-5.77299e-05
-2.42783e-05
1.11335e-06
1.97822e-05
3.29265e-05
4.15965e-05
4.66984e-05
4.90024e-05
4.91538e-05
4.76854e-05
4.50317e-05
4.15422e-05
3.74943e-05
3.31054e-05
2.85432e-05
2.39348e-05
1.93752e-05
1.49331e-05
1.06573e-05
6.5804e-06
2.72316e-06
-9.02985e-07
-4.29343e-06
-7.44867e-06
-1.03733e-05
-1.30716e-05
-0.000196827
-0.000138344
-9.13105e-05
-5.41639e-05
-2.5429e-05
-3.7505e-06
1.20903e-05
2.31667e-05
3.0409e-05
3.46113e-05
3.64424e-05
3.64574e-05
3.51117e-05
3.27738e-05
2.9739e-05
2.62407e-05
2.24609e-05
1.854e-05
1.45843e-05
1.06733e-05
6.86466e-06
3.19929e-06
-2.9501e-07
-3.6005e-06
-6.70709e-06
-9.61052e-06
-1.23111e-05
-1.48074e-05
-0.000186851
-0.000134726
-9.29092e-05
-5.9922e-05
-3.43951e-05
-1.50893e-05
-9.06726e-07
9.10908e-06
1.57799e-05
1.98017e-05
2.1756e-05
2.21233e-05
2.12959e-05
1.95909e-05
1.72621e-05
1.451e-05
1.14918e-05
8.32902e-06
5.11452e-06
1.91821e-06
-1.20829e-06
-4.22774e-06
-7.11413e-06
-9.85017e-06
-1.24254e-05
-1.48342e-05
-1.70679e-05
-0.000251357
-0.000192921
-0.000145194
-0.000106721
-7.61435e-05
-5.22216e-05
-3.38474e-05
-2.00472e-05
-9.97706e-06
-2.91619e-06
1.74383e-06
4.51084e-06
5.80461e-06
5.96897e-06
5.28315e-06
3.97214e-06
2.21575e-06
1.56587e-07
-2.09324e-06
-4.4464e-06
-6.83566e-06
-9.20988e-06
-1.15309e-05
-1.37708e-05
-1.591e-05
-1.79344e-05
-1.98287e-05
-0.000326658
-0.00026068
-0.000205901
-0.000160902
-0.000124335
-9.49566e-05
-7.16438e-05
-5.34002e-05
-3.93538e-05
-2.87518e-05
-2.09518e-05
-1.54116e-05
-1.16771e-05
-9.37127e-06
-8.1831e-06
-7.85777e-06
-8.18771e-06
-9.00484e-06
-1.01739e-05
-1.15868e-05
-1.31577e-05
-1.48192e-05
-1.65187e-05
-1.8216e-05
-1.98809e-05
-2.14905e-05
-2.30261e-05
-1.39736e-05
-1.64677e-05
-1.87909e-05
-2.09399e-05
-2.29183e-05
-2.47305e-05
-2.6381e-05
-2.78745e-05
-2.92165e-05
-3.04127e-05
-3.14692e-05
-3.2392e-05
-3.31871e-05
-3.38603e-05
-3.44172e-05
-3.48631e-05
-3.52027e-05
-3.54407e-05
-3.55813e-05
-3.56286e-05
-3.55867e-05
-3.546e-05
-3.52531e-05
-3.49709e-05
-3.46186e-05
-3.42015e-05
-3.37249e-05
-3.31944e-05
-3.26152e-05
-3.19925e-05
-3.13309e-05
-3.06352e-05
-2.99095e-05
-2.9158e-05
-2.83843e-05
-2.7592e-05
-2.67844e-05
-2.59646e-05
-2.51356e-05
-2.43003e-05
-2.34611e-05
-2.26207e-05
-2.17813e-05
-2.0945e-05
-1.44972e-05
-1.6944e-05
-1.92255e-05
-2.13342e-05
-2.32754e-05
-2.50539e-05
-2.66735e-05
-2.81389e-05
-2.94552e-05
-3.06281e-05
-3.16633e-05
-3.25665e-05
-3.33437e-05
-3.40006e-05
-3.45425e-05
-3.49746e-05
-3.53017e-05
-3.55283e-05
-3.56584e-05
-3.56962e-05
-3.56458e-05
-3.55114e-05
-3.52977e-05
-3.50095e-05
-3.46519e-05
-3.42301e-05
-3.37494e-05
-3.32153e-05
-3.26329e-05
-3.20073e-05
-3.13432e-05
-3.06453e-05
-2.99176e-05
-2.91644e-05
-2.83891e-05
-2.75954e-05
-2.67866e-05
-2.59658e-05
-2.51359e-05
-2.42998e-05
-2.34599e-05
-2.2619e-05
-2.1779e-05
-2.09424e-05
-1.55379e-05
-1.78905e-05
-2.00888e-05
-2.21174e-05
-2.39848e-05
-2.56963e-05
-2.72548e-05
-2.86644e-05
-2.99298e-05
-3.10563e-05
-3.2049e-05
-3.29135e-05
-3.36553e-05
-3.42796e-05
-3.47918e-05
-3.51966e-05
-3.54987e-05
-3.57024e-05
-3.58118e-05
-3.58308e-05
-3.57634e-05
-3.56139e-05
-3.53867e-05
-3.50865e-05
-3.47182e-05
-3.42871e-05
-3.37982e-05
-3.32568e-05
-3.26681e-05
-3.20368e-05
-3.13677e-05
-3.06653e-05
-2.99338e-05
-2.9177e-05
-2.83987e-05
-2.76023e-05
-2.67911e-05
-2.59682e-05
-2.51365e-05
-2.42987e-05
-2.34575e-05
-2.26155e-05
-2.17746e-05
-2.09371e-05
-1.70817e-05
-1.92955e-05
-2.13689e-05
-2.32789e-05
-2.50373e-05
-2.66495e-05
-2.81175e-05
-2.94445e-05
-3.06346e-05
-3.16922e-05
-3.26221e-05
-3.34291e-05
-3.41182e-05
-3.46943e-05
-3.51623e-05
-3.55267e-05
-3.57917e-05
-3.59616e-05
-3.60402e-05
-3.60312e-05
-3.59387e-05
-3.57667e-05
-3.55193e-05
-3.52013e-05
-3.48173e-05
-3.43722e-05
-3.38711e-05
-3.33189e-05
-3.27206e-05
-3.20809e-05
-3.14043e-05
-3.06953e-05
-2.99578e-05
-2.91958e-05
-2.84129e-05
-2.76124e-05
-2.67976e-05
-2.59716e-05
-2.51372e-05
-2.42971e-05
-2.34539e-05
-2.26101e-05
-2.17678e-05
-2.09292e-05
-1.91081e-05
-2.11407e-05
-2.30489e-05
-2.48033e-05
-2.64192e-05
-2.79016e-05
-2.92511e-05
-3.04699e-05
-3.15612e-05
-3.25286e-05
-3.3376e-05
-3.41076e-05
-3.47276e-05
-3.52404e-05
-3.56503e-05
-3.59614e-05
-3.61778e-05
-3.63033e-05
-3.63414e-05
-3.62958e-05
-3.61702e-05
-3.59685e-05
-3.56947e-05
-3.53532e-05
-3.49483e-05
-3.44849e-05
-3.39676e-05
-3.34011e-05
-3.27901e-05
-3.21392e-05
-3.14527e-05
-3.07349e-05
-2.99896e-05
-2.92207e-05
-2.84316e-05
-2.76257e-05
-2.68062e-05
-2.5976e-05
-2.5138e-05
-2.42949e-05
-2.3449e-05
-2.26029e-05
-2.17587e-05
-2.09185e-05
-2.15927e-05
-2.34023e-05
-2.51059e-05
-2.66707e-05
-2.8113e-05
-2.9437e-05
-3.06419e-05
-3.17286e-05
-3.26991e-05
-3.35561e-05
-3.43025e-05
-3.49416e-05
-3.54768e-05
-3.5912e-05
-3.62507e-05
-3.64967e-05
-3.66534e-05
-3.67243e-05
-3.67127e-05
-3.66222e-05
-3.6456e-05
-3.62179e-05
-3.59116e-05
-3.55411e-05
-3.51106e-05
-3.46244e-05
-3.4087e-05
-3.35028e-05
-3.28761e-05
-3.22113e-05
-3.15125e-05
-3.07837e-05
-3.00288e-05
-2.92512e-05
-2.84546e-05
-2.7642e-05
-2.68166e-05
-2.59813e-05
-2.51388e-05
-2.42918e-05
-2.34426e-05
-2.25938e-05
-2.17472e-05
-2.09051e-05
-2.45003e-05
-2.60496e-05
-2.7512e-05
-2.8857e-05
-3.00983e-05
-3.1238e-05
-3.22743e-05
-3.32067e-05
-3.40362e-05
-3.4764e-05
-3.53922e-05
-3.59229e-05
-3.63589e-05
-3.67029e-05
-3.69581e-05
-3.71275e-05
-3.72142e-05
-3.72211e-05
-3.71514e-05
-3.7008e-05
-3.67942e-05
-3.65132e-05
-3.61686e-05
-3.57639e-05
-3.53031e-05
-3.47901e-05
-3.42289e-05
-3.36236e-05
-3.29783e-05
-3.22969e-05
-3.15834e-05
-3.08416e-05
-3.0075e-05
-2.92873e-05
-2.84816e-05
-2.7661e-05
-2.68287e-05
-2.59872e-05
-2.51395e-05
-2.42879e-05
-2.34348e-05
-2.25826e-05
-2.17333e-05
-2.08888e-05
-2.78922e-05
-2.91316e-05
-3.03051e-05
-3.13969e-05
-3.24073e-05
-3.33347e-05
-3.41763e-05
-3.49304e-05
-3.55964e-05
-3.61744e-05
-3.66652e-05
-3.70699e-05
-3.73903e-05
-3.76284e-05
-3.77863e-05
-3.78666e-05
-3.78717e-05
-3.78041e-05
-3.76666e-05
-3.74616e-05
-3.71922e-05
-3.68612e-05
-3.64717e-05
-3.6027e-05
-3.55305e-05
-3.49858e-05
-3.43965e-05
-3.37663e-05
-3.30988e-05
-3.23978e-05
-3.16669e-05
-3.09097e-05
-3.01294e-05
-2.93295e-05
-2.85131e-05
-2.76831e-05
-2.68425e-05
-2.59938e-05
-2.51398e-05
-2.42828e-05
-2.34251e-05
-2.2569e-05
-2.17164e-05
-2.08692e-05
-3.17218e-05
-3.26188e-05
-3.34777e-05
-3.42855e-05
-3.50355e-05
-3.57234e-05
-3.63451e-05
-3.68973e-05
-3.7378e-05
-3.77859e-05
-3.81205e-05
-3.8382e-05
-3.85708e-05
-3.86881e-05
-3.87352e-05
-3.87139e-05
-3.8626e-05
-3.84734e-05
-3.82584e-05
-3.79833e-05
-3.76503e-05
-3.7262e-05
-3.68211e-05
-3.63305e-05
-3.5793e-05
-3.52118e-05
-3.45901e-05
-3.3931e-05
-3.32379e-05
-3.25142e-05
-3.17631e-05
-3.09879e-05
-3.01917e-05
-2.93777e-05
-2.85489e-05
-2.7708e-05
-2.68577e-05
-2.60007e-05
-2.51394e-05
-2.42761e-05
-2.34131e-05
-2.25525e-05
-2.1696e-05
-2.08457e-05
-3.58565e-05
-3.63971e-05
-3.69261e-05
-3.74301e-05
-3.79002e-05
-3.83301e-05
-3.87142e-05
-3.90479e-05
-3.93276e-05
-3.95507e-05
-3.97155e-05
-3.98208e-05
-3.98662e-05
-3.98517e-05
-3.97778e-05
-3.96455e-05
-3.9456e-05
-3.92106e-05
-3.8911e-05
-3.85589e-05
-3.81563e-05
-3.77052e-05
-3.72078e-05
-3.66665e-05
-3.60838e-05
-3.54623e-05
-3.48045e-05
-3.41135e-05
-3.33919e-05
-3.26428e-05
-3.18692e-05
-3.1074e-05
-3.02601e-05
-2.94305e-05
-2.85878e-05
-2.77347e-05
-2.68737e-05
-2.60074e-05
-2.5138e-05
-2.42678e-05
-2.33988e-05
-2.25332e-05
-2.16725e-05
-2.08188e-05
-4.02556e-05
-4.0427e-05
-4.06115e-05
-4.0796e-05
-4.09707e-05
-4.11276e-05
-4.12597e-05
-4.1361e-05
-4.14264e-05
-4.14522e-05
-4.14353e-05
-4.13733e-05
-4.12649e-05
-4.1109e-05
-4.09053e-05
-4.06538e-05
-4.03551e-05
-4.00099e-05
-3.96192e-05
-3.91843e-05
-3.87066e-05
-3.81876e-05
-3.76291e-05
-3.70329e-05
-3.6401e-05
-3.57355e-05
-3.50385e-05
-3.43124e-05
-3.35596e-05
-3.27828e-05
-3.19845e-05
-3.11673e-05
-3.0334e-05
-2.94871e-05
-2.86292e-05
-2.77628e-05
-2.68901e-05
-2.60136e-05
-2.51354e-05
-2.42576e-05
-2.33821e-05
-2.25109e-05
-2.16457e-05
-2.07882e-05
-4.48794e-05
-4.46685e-05
-4.44962e-05
-4.43492e-05
-4.42165e-05
-4.40885e-05
-4.3957e-05
-4.38145e-05
-4.36548e-05
-4.34728e-05
-4.32643e-05
-4.30259e-05
-4.27549e-05
-4.24494e-05
-4.21082e-05
-4.17305e-05
-4.13161e-05
-4.0865e-05
-4.03776e-05
-3.98547e-05
-3.9297e-05
-3.87057e-05
-3.80819e-05
-3.7427e-05
-3.67423e-05
-3.60294e-05
-3.52901e-05
-3.45262e-05
-3.37398e-05
-3.29329e-05
-3.21078e-05
-3.12669e-05
-3.04125e-05
-2.9547e-05
-2.86727e-05
-2.77918e-05
-2.69065e-05
-2.60189e-05
-2.51311e-05
-2.42451e-05
-2.33626e-05
-2.24855e-05
-2.16154e-05
-2.07538e-05
-4.9681e-05
-4.90795e-05
-4.85423e-05
-4.80555e-05
-4.76066e-05
-4.71851e-05
-4.67811e-05
-4.63863e-05
-4.5993e-05
-4.55951e-05
-4.51871e-05
-4.47646e-05
-4.43238e-05
-4.38621e-05
-4.3377e-05
-4.28672e-05
-4.23315e-05
-4.17693e-05
-4.11805e-05
-4.0565e-05
-3.99233e-05
-3.92557e-05
-3.85629e-05
-3.78458e-05
-3.71051e-05
-3.63419e-05
-3.55575e-05
-3.47533e-05
-3.39308e-05
-3.30918e-05
-3.22381e-05
-3.13718e-05
-3.04948e-05
-2.96093e-05
-2.87174e-05
-2.7821e-05
-2.69222e-05
-2.60229e-05
-2.51249e-05
-2.42301e-05
-2.33401e-05
-2.24567e-05
-2.15813e-05
-2.07154e-05
-5.46139e-05
-5.36183e-05
-5.27122e-05
-5.18808e-05
-5.11106e-05
-5.03897e-05
-4.97075e-05
-4.90541e-05
-4.84212e-05
-4.78012e-05
-4.71877e-05
-4.65753e-05
-4.59593e-05
-4.53358e-05
-4.47019e-05
-4.40551e-05
-4.33936e-05
-4.27162e-05
-4.20219e-05
-4.13102e-05
-4.05807e-05
-3.98335e-05
-3.90686e-05
-3.82861e-05
-3.74866e-05
-3.66705e-05
-3.58385e-05
-3.49917e-05
-3.41311e-05
-3.32581e-05
-3.23741e-05
-3.14808e-05
-3.05799e-05
-2.96733e-05
-2.87627e-05
-2.78499e-05
-2.69368e-05
-2.6025e-05
-2.51162e-05
-2.42121e-05
-2.33143e-05
-2.24242e-05
-2.15433e-05
-2.06729e-05
-5.96329e-05
-5.8244e-05
-5.69687e-05
-5.57915e-05
-5.46978e-05
-5.3675e-05
-5.27113e-05
-5.17959e-05
-5.09194e-05
-5.00734e-05
-4.92504e-05
-4.84439e-05
-4.76485e-05
-4.68595e-05
-4.60728e-05
-4.52854e-05
-4.44947e-05
-4.36986e-05
-4.28956e-05
-4.20846e-05
-4.12645e-05
-4.04348e-05
-3.9595e-05
-3.87448e-05
-3.7884e-05
-3.70126e-05
-3.6131e-05
-3.52395e-05
-3.4339e-05
-3.34302e-05
-3.25144e-05
-3.15928e-05
-3.06669e-05
-2.9738e-05
-2.88078e-05
-2.78778e-05
-2.69496e-05
-2.60247e-05
-2.51047e-05
-2.41909e-05
-2.32848e-05
-2.23878e-05
-2.15011e-05
-2.06259e-05
-6.46942e-05
-6.29167e-05
-6.12755e-05
-5.97544e-05
-5.83384e-05
-5.70139e-05
-5.57681e-05
-5.45895e-05
-5.34679e-05
-5.23938e-05
-5.1359e-05
-5.03562e-05
-4.93789e-05
-4.84216e-05
-4.74797e-05
-4.65491e-05
-4.56266e-05
-4.47094e-05
-4.37953e-05
-4.28825e-05
-4.19696e-05
-4.10552e-05
-4.01384e-05
-3.92182e-05
-3.82941e-05
-3.73656e-05
-3.64324e-05
-3.54947e-05
-3.45526e-05
-3.36067e-05
-3.26577e-05
-3.17067e-05
-3.07545e-05
-2.98025e-05
-2.88519e-05
-2.7904e-05
-2.69601e-05
-2.60216e-05
-2.50898e-05
-2.41659e-05
-2.32513e-05
-2.23471e-05
-2.14544e-05
-2.05744e-05
-6.97556e-05
-6.75976e-05
-6.55971e-05
-6.37374e-05
-6.20031e-05
-6.03796e-05
-5.88537e-05
-5.74132e-05
-5.6047e-05
-5.47448e-05
-5.34978e-05
-5.22978e-05
-5.11376e-05
-5.00109e-05
-4.89122e-05
-4.7837e-05
-4.67811e-05
-4.57412e-05
-4.47144e-05
-4.36983e-05
-4.26908e-05
-4.169e-05
-4.06945e-05
-3.97027e-05
-3.87137e-05
-3.77265e-05
-3.67403e-05
-3.57549e-05
-3.477e-05
-3.37858e-05
-3.28026e-05
-3.1821e-05
-3.08418e-05
-2.98659e-05
-2.88941e-05
-2.79277e-05
-2.69677e-05
-2.60151e-05
-2.50711e-05
-2.41369e-05
-2.32134e-05
-2.23018e-05
-2.14031e-05
-2.05181e-05
-7.47766e-05
-7.22497e-05
-6.98995e-05
-6.77094e-05
-6.56634e-05
-6.37465e-05
-6.19448e-05
-6.02457e-05
-5.86374e-05
-5.71091e-05
-5.56511e-05
-5.42546e-05
-5.29118e-05
-5.16158e-05
-5.03602e-05
-4.91399e-05
-4.795e-05
-4.67866e-05
-4.56463e-05
-4.45258e-05
-4.34227e-05
-4.23345e-05
-4.12591e-05
-4.01946e-05
-3.91396e-05
-3.80924e-05
-3.70522e-05
-3.6018e-05
-3.49892e-05
-3.39657e-05
-3.29474e-05
-3.19345e-05
-3.09276e-05
-2.9927e-05
-2.89336e-05
-2.79482e-05
-2.69716e-05
-2.60046e-05
-2.50482e-05
-2.41033e-05
-2.31708e-05
-2.22517e-05
-2.13467e-05
-2.04567e-05
-7.97192e-05
-7.68378e-05
-7.41505e-05
-7.16407e-05
-6.92921e-05
-6.70895e-05
-6.50186e-05
-6.30663e-05
-6.12204e-05
-5.94695e-05
-5.78034e-05
-5.62128e-05
-5.46892e-05
-5.3225e-05
-5.18134e-05
-5.04485e-05
-4.9125e-05
-4.78383e-05
-4.65842e-05
-4.53592e-05
-4.416e-05
-4.29838e-05
-4.18279e-05
-4.06901e-05
-3.95682e-05
-3.84604e-05
-3.73653e-05
-3.62815e-05
-3.52082e-05
-3.41447e-05
-3.30906e-05
-3.20459e-05
-3.10106e-05
-2.9985e-05
-2.89695e-05
-2.79647e-05
-2.69711e-05
-2.59894e-05
-2.50204e-05
-2.40647e-05
-2.31231e-05
-2.21963e-05
-2.12851e-05
-2.039e-05
-8.45479e-05
-8.1329e-05
-7.83196e-05
-7.55032e-05
-7.28634e-05
-7.0385e-05
-6.80534e-05
-6.58552e-05
-6.37778e-05
-6.18095e-05
-5.99398e-05
-5.81587e-05
-5.64572e-05
-5.48274e-05
-5.32618e-05
-5.17539e-05
-5.0298e-05
-4.88887e-05
-4.75215e-05
-4.61923e-05
-4.48973e-05
-4.36331e-05
-4.23966e-05
-4.11852e-05
-3.99962e-05
-3.88274e-05
-3.7677e-05
-3.65432e-05
-3.54249e-05
-3.43209e-05
-3.32307e-05
-3.21537e-05
-3.10897e-05
-3.00387e-05
-2.90008e-05
-2.79763e-05
-2.69656e-05
-2.59691e-05
-2.49873e-05
-2.40207e-05
-2.30699e-05
-2.21354e-05
-2.12179e-05
-2.03178e-05
-8.92301e-05
-8.56929e-05
-8.23785e-05
-7.92706e-05
-7.6353e-05
-7.36105e-05
-7.10285e-05
-6.85933e-05
-6.62923e-05
-6.41134e-05
-6.20458e-05
-6.00791e-05
-5.82041e-05
-5.64121e-05
-5.46954e-05
-5.30471e-05
-5.14607e-05
-4.99306e-05
-4.84517e-05
-4.70192e-05
-4.56292e-05
-4.42776e-05
-4.29609e-05
-4.16761e-05
-4.04201e-05
-3.91903e-05
-3.79845e-05
-3.68007e-05
-3.56371e-05
-3.44926e-05
-3.33659e-05
-3.22564e-05
-3.11635e-05
-3.0087e-05
-2.90266e-05
-2.79823e-05
-2.69544e-05
-2.59429e-05
-2.49483e-05
-2.39708e-05
-2.30107e-05
-2.20687e-05
-2.11448e-05
-2.02398e-05
-9.37361e-05
-8.99016e-05
-8.6301e-05
-8.29185e-05
-7.97383e-05
-7.67451e-05
-7.39245e-05
-7.12629e-05
-6.87474e-05
-6.63661e-05
-6.41076e-05
-6.19614e-05
-5.99181e-05
-5.79686e-05
-5.61048e-05
-5.43193e-05
-5.26053e-05
-5.09568e-05
-4.93681e-05
-4.78341e-05
-4.63504e-05
-4.49124e-05
-4.35165e-05
-4.21589e-05
-4.08365e-05
-3.95461e-05
-3.82852e-05
-3.70514e-05
-3.58428e-05
-3.46577e-05
-3.34947e-05
-3.23527e-05
-3.12309e-05
-3.01288e-05
-2.90458e-05
-2.79818e-05
-2.69367e-05
-2.59103e-05
-2.49028e-05
-2.39144e-05
-2.29453e-05
-2.19956e-05
-2.10657e-05
-2.01557e-05
-9.80394e-05
-9.393e-05
-9.00636e-05
-8.64248e-05
-8.29984e-05
-7.97693e-05
-7.67235e-05
-7.38472e-05
-7.11278e-05
-6.85532e-05
-6.6112e-05
-6.37937e-05
-6.15883e-05
-5.94868e-05
-5.74806e-05
-5.55621e-05
-5.37242e-05
-5.19603e-05
-5.02644e-05
-4.86312e-05
-4.70557e-05
-4.55331e-05
-4.40592e-05
-4.263e-05
-4.1242e-05
-3.98917e-05
-3.85763e-05
-3.72932e-05
-3.60399e-05
-3.48145e-05
-3.36154e-05
-3.24411e-05
-3.12906e-05
-3.0163e-05
-2.90577e-05
-2.7974e-05
-2.69117e-05
-2.58706e-05
-2.48504e-05
-2.38513e-05
-2.28731e-05
-2.1916e-05
-2.098e-05
-2.00653e-05
-0.000102117
-9.7756e-05
-9.36451e-05
-8.97696e-05
-8.61147e-05
-8.26657e-05
-7.94088e-05
-7.63309e-05
-7.34191e-05
-7.06615e-05
-6.80469e-05
-6.55645e-05
-6.32043e-05
-6.09571e-05
-5.88142e-05
-5.67676e-05
-5.481e-05
-5.29344e-05
-5.11347e-05
-4.9405e-05
-4.77401e-05
-4.61349e-05
-4.45848e-05
-4.30856e-05
-4.16333e-05
-4.02243e-05
-3.88553e-05
-3.75235e-05
-3.62262e-05
-3.49611e-05
-3.37263e-05
-3.25202e-05
-3.13413e-05
-3.01886e-05
-2.90611e-05
-2.7958e-05
-2.68788e-05
-2.58231e-05
-2.47905e-05
-2.37808e-05
-2.27937e-05
-2.18294e-05
-2.08876e-05
-1.99684e-05
-0.000105948
-0.00010136
-9.7027e-05
-9.29351e-05
-8.90702e-05
-8.54182e-05
-8.19657e-05
-7.86998e-05
-7.56081e-05
-7.26788e-05
-6.99007e-05
-6.72632e-05
-6.47563e-05
-6.23705e-05
-6.00972e-05
-5.79281e-05
-5.58556e-05
-5.38728e-05
-5.1973e-05
-5.01502e-05
-4.83988e-05
-4.67135e-05
-4.50895e-05
-4.35221e-05
-4.20072e-05
-4.05408e-05
-3.91196e-05
-3.77402e-05
-3.63997e-05
-3.50957e-05
-3.3826e-05
-3.25886e-05
-3.13818e-05
-3.02044e-05
-2.90551e-05
-2.7933e-05
-2.68373e-05
-2.57673e-05
-2.47225e-05
-2.37025e-05
-2.27069e-05
-2.17355e-05
-2.07882e-05
-1.98647e-05
-0.000109516
-0.000104725
-0.000100193
-9.59059e-05
-9.18502e-05
-8.80127e-05
-8.43806e-05
-8.09414e-05
-7.7683e-05
-7.45939e-05
-7.16632e-05
-6.88803e-05
-6.62352e-05
-6.37187e-05
-6.13218e-05
-5.90364e-05
-5.68546e-05
-5.47694e-05
-5.27738e-05
-5.08617e-05
-4.90272e-05
-4.72648e-05
-4.55693e-05
-4.39361e-05
-4.23606e-05
-4.08386e-05
-3.93666e-05
-3.79409e-05
-3.65585e-05
-3.52166e-05
-3.39128e-05
-3.26448e-05
-3.14109e-05
-3.02094e-05
-2.90389e-05
-2.78982e-05
-2.67863e-05
-2.57025e-05
-2.46458e-05
-2.36158e-05
-2.2612e-05
-2.1634e-05
-2.06814e-05
-1.97539e-05
-0.000112806
-0.000107839
-0.00010313
-9.86687e-05
-9.44418e-05
-9.0437e-05
-8.66418e-05
-8.30443e-05
-7.9633e-05
-7.63967e-05
-7.33246e-05
-7.04066e-05
-6.76327e-05
-6.49938e-05
-6.24809e-05
-6.00859e-05
-5.78008e-05
-5.56184e-05
-5.35319e-05
-5.15347e-05
-4.96208e-05
-4.77846e-05
-4.60208e-05
-4.43243e-05
-4.26904e-05
-4.1115e-05
-3.95939e-05
-3.81235e-05
-3.67005e-05
-3.5322e-05
-3.39851e-05
-3.26876e-05
-3.14273e-05
-3.02024e-05
-2.90114e-05
-2.78527e-05
-2.67253e-05
-2.5628e-05
-2.456e-05
-2.35205e-05
-2.25088e-05
-2.15245e-05
-2.05669e-05
-1.96357e-05
-0.000115809
-0.000110688
-0.000105827
-0.000101212
-9.68343e-05
-9.26803e-05
-8.87389e-05
-8.49987e-05
-8.14487e-05
-7.80781e-05
-7.48766e-05
-7.18342e-05
-6.89413e-05
-6.61887e-05
-6.35678e-05
-6.10703e-05
-5.86884e-05
-5.64147e-05
-5.42423e-05
-5.21647e-05
-5.01756e-05
-4.82693e-05
-4.64404e-05
-4.46835e-05
-4.2994e-05
-4.13673e-05
-3.97992e-05
-3.8286e-05
-3.6824e-05
-3.54102e-05
-3.40415e-05
-3.27156e-05
-3.14299e-05
-3.01826e-05
-2.89717e-05
-2.77958e-05
-2.66534e-05
-2.55433e-05
-2.44645e-05
-2.34159e-05
-2.23968e-05
-2.14066e-05
-2.04445e-05
-1.951e-05
-0.000118515
-0.000113266
-0.000108274
-0.000103528
-9.90187e-05
-9.4734e-05
-9.06634e-05
-8.67963e-05
-8.3122e-05
-7.96305e-05
-7.63117e-05
-7.3156e-05
-7.01541e-05
-6.72971e-05
-6.45765e-05
-6.19841e-05
-5.95121e-05
-5.71533e-05
-5.49006e-05
-5.27475e-05
-5.06877e-05
-4.87154e-05
-4.68249e-05
-4.50109e-05
-4.32685e-05
-4.15932e-05
-3.99804e-05
-3.84263e-05
-3.69272e-05
-3.54796e-05
-3.40806e-05
-3.27274e-05
-3.14176e-05
-3.01488e-05
-2.89191e-05
-2.77267e-05
-2.65701e-05
-2.54478e-05
-2.43587e-05
-2.33017e-05
-2.22757e-05
-2.12801e-05
-2.03138e-05
-1.93764e-05
-0.000120919
-0.000115565
-0.000110465
-0.000105609
-0.000100988
-9.65908e-05
-9.24082e-05
-8.84298e-05
-8.46459e-05
-8.10469e-05
-7.76232e-05
-7.43656e-05
-7.12651e-05
-6.83133e-05
-6.55016e-05
-6.28221e-05
-6.02673e-05
-5.78298e-05
-5.55027e-05
-5.32794e-05
-5.11536e-05
-4.91195e-05
-4.71712e-05
-4.53036e-05
-4.35115e-05
-4.17902e-05
-4.01353e-05
-3.85426e-05
-3.70082e-05
-3.55288e-05
-3.4101e-05
-3.27221e-05
-3.13892e-05
-3.01e-05
-2.88525e-05
-2.76446e-05
-2.64746e-05
-2.53409e-05
-2.42422e-05
-2.31773e-05
-2.21451e-05
-2.11445e-05
-2.01747e-05
-1.92348e-05
-0.000123017
-0.000117582
-0.000112396
-0.00010745
-0.000102736
-9.82452e-05
-9.39673e-05
-8.98935e-05
-8.60147e-05
-8.23217e-05
-7.88056e-05
-7.54576e-05
-7.22692e-05
-6.92321e-05
-6.63383e-05
-6.35799e-05
-6.09496e-05
-5.84401e-05
-5.60446e-05
-5.37567e-05
-5.157e-05
-4.94785e-05
-4.74767e-05
-4.55591e-05
-4.37206e-05
-4.19564e-05
-4.02619e-05
-3.8633e-05
-3.70656e-05
-3.55562e-05
-3.41014e-05
-3.26982e-05
-3.13437e-05
-3.00355e-05
-2.87712e-05
-2.75487e-05
-2.63663e-05
-2.5222e-05
-2.41146e-05
-2.30425e-05
-2.20045e-05
-2.09996e-05
-2.00267e-05
-1.90849e-05
-0.000124808
-0.000119314
-0.000114063
-0.000109048
-0.000104261
-9.96931e-05
-9.53367e-05
-9.1183e-05
-8.72237e-05
-8.34502e-05
-7.98543e-05
-7.64275e-05
-7.31619e-05
-7.00494e-05
-6.70824e-05
-6.42534e-05
-6.15551e-05
-5.89806e-05
-5.65231e-05
-5.41762e-05
-5.19338e-05
-4.97898e-05
-4.77387e-05
-4.5775e-05
-4.38936e-05
-4.20897e-05
-4.03585e-05
-3.86959e-05
-3.70978e-05
-3.55605e-05
-3.40806e-05
-3.26548e-05
-3.12802e-05
-2.99543e-05
-2.86744e-05
-2.74385e-05
-2.62446e-05
-2.50907e-05
-2.39752e-05
-2.28967e-05
-2.18537e-05
-2.08451e-05
-1.98697e-05
-1.89264e-05
-0.000126293
-0.000120762
-0.000115466
-0.000110401
-0.000105559
-0.000100932
-9.65132e-05
-9.2295e-05
-8.82695e-05
-8.4429e-05
-8.07656e-05
-7.72716e-05
-7.39394e-05
-7.07615e-05
-6.77305e-05
-6.48392e-05
-6.20807e-05
-5.94482e-05
-5.69352e-05
-5.45353e-05
-5.22425e-05
-5.00509e-05
-4.79549e-05
-4.59492e-05
-4.40285e-05
-4.21881e-05
-4.04233e-05
-3.87298e-05
-3.71034e-05
-3.55404e-05
-3.40373e-05
-3.25907e-05
-3.11977e-05
-2.98555e-05
-2.85614e-05
-2.73133e-05
-2.61089e-05
-2.49463e-05
-2.38237e-05
-2.27395e-05
-2.16923e-05
-2.06807e-05
-1.97034e-05
-1.87593e-05
-0.000127476
-0.000121927
-0.000116606
-0.000111509
-0.000106629
-0.00010196
-9.74951e-05
-9.32273e-05
-8.91497e-05
-8.52552e-05
-8.15367e-05
-7.7987e-05
-7.45989e-05
-7.13654e-05
-6.82795e-05
-6.53345e-05
-6.25235e-05
-5.98402e-05
-5.72781e-05
-5.48313e-05
-5.24936e-05
-5.02594e-05
-4.81232e-05
-4.60796e-05
-4.41236e-05
-4.22502e-05
-4.04549e-05
-3.87332e-05
-3.70811e-05
-3.54948e-05
-3.39706e-05
-3.25051e-05
-3.10953e-05
-2.97383e-05
-2.84315e-05
-2.71724e-05
-2.59587e-05
-2.47884e-05
-2.36597e-05
-2.25707e-05
-2.152e-05
-2.0506e-05
-1.95275e-05
-1.85831e-05
-0.00012836
-0.000122812
-0.000117485
-0.000112374
-0.000107473
-0.000102778
-9.82819e-05
-9.39789e-05
-8.98628e-05
-8.59272e-05
-8.21656e-05
-7.85714e-05
-7.51379e-05
-7.18587e-05
-6.87271e-05
-6.57367e-05
-6.28811e-05
-6.01542e-05
-5.75498e-05
-5.5062e-05
-5.26851e-05
-5.04135e-05
-4.82417e-05
-4.61646e-05
-4.4177e-05
-4.22742e-05
-4.04516e-05
-3.87048e-05
-3.70297e-05
-3.54225e-05
-3.38793e-05
-3.2397e-05
-3.09722e-05
-2.96021e-05
-2.8284e-05
-2.70152e-05
-2.57934e-05
-2.46166e-05
-2.34827e-05
-2.23899e-05
-2.13364e-05
-2.03209e-05
-1.93418e-05
-1.83979e-05
-0.00012895
-0.000123423
-0.000118106
-0.000112998
-0.000108093
-0.000103386
-9.88737e-05
-9.45495e-05
-9.04082e-05
-8.64441e-05
-8.26511e-05
-7.90235e-05
-7.5555e-05
-7.22397e-05
-6.90713e-05
-6.6044e-05
-6.31516e-05
-6.03883e-05
-5.77482e-05
-5.52257e-05
-5.28152e-05
-5.05114e-05
-4.83088e-05
-4.62025e-05
-4.41875e-05
-4.22589e-05
-4.04124e-05
-3.86435e-05
-3.69482e-05
-3.53224e-05
-3.37627e-05
-3.22656e-05
-3.08277e-05
-2.94462e-05
-2.81182e-05
-2.68412e-05
-2.56126e-05
-2.44304e-05
-2.32923e-05
-2.21966e-05
-2.11414e-05
-2.01251e-05
-1.91462e-05
-1.82033e-05
-0.000129255
-0.000123764
-0.000118475
-0.000113384
-0.00010849
-0.000103787
-9.92723e-05
-9.49402e-05
-9.07864e-05
-8.68056e-05
-8.29928e-05
-7.93425e-05
-7.58492e-05
-7.25072e-05
-6.93111e-05
-6.62551e-05
-6.33336e-05
-6.0541e-05
-5.7872e-05
-5.53209e-05
-5.28826e-05
-5.05517e-05
-4.83232e-05
-4.61921e-05
-4.41537e-05
-4.22031e-05
-4.03361e-05
-3.85482e-05
-3.68354e-05
-3.51939e-05
-3.36199e-05
-3.21101e-05
-3.06611e-05
-2.92699e-05
-2.79338e-05
-2.66499e-05
-2.54159e-05
-2.42294e-05
-2.30884e-05
-2.19907e-05
-2.09346e-05
-1.99184e-05
-1.89404e-05
-1.79993e-05
-0.000108669
-0.000103984
-9.948e-05
-9.51527e-05
-9.09985e-05
-8.70128e-05
-8.31911e-05
-7.95285e-05
-7.60201e-05
-7.26609e-05
-6.94456e-05
-6.6369e-05
-6.34261e-05
-6.06114e-05
-5.79199e-05
-5.53464e-05
-5.28859e-05
-5.05333e-05
-4.82837e-05
-4.61324e-05
-4.40746e-05
-4.21058e-05
-4.02217e-05
-3.8418e-05
-3.66907e-05
-3.5036e-05
-3.34502e-05
-3.19299e-05
-3.04717e-05
-2.90728e-05
-2.77301e-05
-2.64409e-05
-2.52028e-05
-2.40134e-05
-2.28704e-05
-2.17718e-05
-2.07158e-05
-1.97006e-05
-1.87243e-05
-1.77856e-05
-0.00027229
-0.000213746
-0.000165969
-0.000127444
-9.67716e-05
-7.26864e-05
-5.40699e-05
-3.99446e-05
-2.94696e-05
-2.19308e-05
-1.67287e-05
-1.33653e-05
-1.14311e-05
-1.05925e-05
-1.05802e-05
-1.11784e-05
-1.22158e-05
-1.35573e-05
-1.50976e-05
-1.67551e-05
-1.84671e-05
-2.01865e-05
-2.18778e-05
-2.35158e-05
-2.50841e-05
-2.65697e-05
-0.000394603
-0.000320577
-0.000258809
-0.000207767
-0.000165999
-0.000132158
-0.000105022
-8.35064e-05
-6.66549e-05
-5.3641e-05
-4.37571e-05
-3.64043e-05
-3.10803e-05
-2.73679e-05
-2.49234e-05
-2.34657e-05
-2.27664e-05
-2.26415e-05
-2.29434e-05
-2.35545e-05
-2.4382e-05
-2.53527e-05
-2.64096e-05
-2.75088e-05
-2.86164e-05
-2.97075e-05
-3.07617e-05
-0.000441138
-0.000365223
-0.000301276
-0.000247846
-0.000203555
-0.000167129
-0.000137403
-0.000113339
-9.40206e-05
-7.86499e-05
-6.65396e-05
-5.71035e-05
-4.98462e-05
-4.43523e-05
-4.02756e-05
-3.73299e-05
-3.52795e-05
-3.39317e-05
-3.31296e-05
-3.2746e-05
-3.26783e-05
-3.28443e-05
-3.3178e-05
-3.36273e-05
-3.41507e-05
-3.4716e-05
-3.52976e-05
-0.000482794
-0.000405369
-0.000339644
-0.000284237
-0.000237838
-0.000199231
-0.000167304
-0.000141059
-0.000119614
-0.000102198
-8.81419e-05
-7.68717e-05
-6.78996e-05
-6.08129e-05
-5.52653e-05
-5.09675e-05
-4.76791e-05
-4.52014e-05
-4.33705e-05
-4.20521e-05
-4.11363e-05
-4.05336e-05
-4.01712e-05
-3.99903e-05
-3.99433e-05
-3.99922e-05
-4.01066e-05
-0.000521374
-0.000442966
-0.000375922
-0.000318938
-0.000270778
-0.000230289
-0.000196416
-0.000168208
-0.000144821
-0.000125512
-0.000109636
-9.66348e-05
-8.60303e-05
-7.7416e-05
-7.04474e-05
-6.48348e-05
-6.0335e-05
-5.6745e-05
-5.38958e-05
-5.16473e-05
-4.98835e-05
-4.85085e-05
-4.74436e-05
-4.66241e-05
-4.59969e-05
-4.55186e-05
-4.5154e-05
-0.00055635
-0.000477559
-0.000409718
-0.000351611
-0.00030208
-0.000260044
-0.00022451
-0.00019458
-0.000169454
-0.000148424
-0.000130869
-0.000116252
-0.000104109
-9.4041e-05
-8.57099e-05
-7.88272e-05
-7.31494e-05
-6.84713e-05
-6.46202e-05
-6.14517e-05
-5.88448e-05
-5.66987e-05
-5.49294e-05
-5.34669e-05
-5.22532e-05
-5.12402e-05
-5.03881e-05
-0.000587254
-0.000508666
-0.000440548
-0.000381774
-0.000331274
-0.000288044
-0.000251157
-0.000219773
-0.000193139
-0.000170584
-0.000151519
-0.000135428
-0.000121866
-0.000110444
-0.000100832
-9.27467e-05
-8.5945e-05
-8.02216e-05
-7.54022e-05
-7.13394e-05
-6.79088e-05
-6.50054e-05
-6.2541e-05
-6.04412e-05
-5.8644e-05
-5.70969e-05
-5.57562e-05
-0.000613902
-0.000536076
-0.000468179
-0.000409185
-0.000358114
-0.000314041
-0.000276112
-0.000243548
-0.000215644
-0.000191773
-0.000171378
-0.000153969
-0.000139119
-0.000126457
-0.000115659
-0.000106449
-9.85895e-05
-9.1875e-05
-8.61315e-05
-8.12101e-05
-7.69841e-05
-7.33458e-05
-7.02034e-05
-6.74795e-05
-6.51081e-05
-6.30334e-05
-6.12083e-05
-0.000636246
-0.000559696
-0.000492486
-0.000433694
-0.000382432
-0.00033786
-0.000299196
-0.000265724
-0.000236793
-0.000211818
-0.00019028
-0.000171715
-0.000155719
-0.000141936
-0.000130056
-0.000119811
-0.000110967
-0.000103325
-9.67095e-05
-9.09731e-05
-8.59876e-05
-8.16436e-05
-7.78471e-05
-7.4518e-05
-7.15875e-05
-6.8997e-05
-6.66963e-05
-0.000654343
-0.000579521
-0.000513418
-0.000455217
-0.00040412
-0.000359374
-0.00032027
-0.000286157
-0.000256437
-0.000230573
-0.00020808
-0.000188526
-0.00017153
-0.000156754
-0.000143903
-0.000132717
-0.000122973
-0.000114472
-0.000107044
-0.000100543
-9.4841e-05
-8.98268e-05
-8.54059e-05
-8.14961e-05
-7.80267e-05
-7.49368e-05
-7.2174e-05
-0.00066834
-0.00059563
-0.000531001
-0.000473735
-0.000423128
-0.000378508
-0.000339243
-0.000304743
-0.000274467
-0.000247922
-0.000224662
-0.000204287
-0.000186439
-0.000170802
-0.000157094
-0.00014507
-0.000134511
-0.000125227
-0.000117053
-0.000109844
-0.000103472
-9.7829e-05
-9.28183e-05
-8.83572e-05
-8.43736e-05
-8.08051e-05
-7.75974e-05
-0.000678455
-0.00060817
-0.000545322
-0.00048929
-0.000439459
-0.000395239
-0.000356068
-0.00032142
-0.000290808
-0.000263783
-0.00023994
-0.000218908
-0.000200357
-0.00018399
-0.000169543
-0.000156782
-0.0001455
-0.000135514
-0.000126663
-0.000118805
-0.000111817
-0.00010559
-0.000100028
-9.5049e-05
-9.05798e-05
-8.6557e-05
-8.29252e-05
-0.000684951
-0.000617333
-0.000556515
-0.000501968
-0.000453162
-0.000409582
-0.000370737
-0.00033616
-0.000305417
-0.000278103
-0.000253851
-0.000232322
-0.000213213
-0.000196247
-0.000181178
-0.000167785
-0.000155873
-0.000145265
-0.000135809
-0.000127367
-0.000119817
-0.000113055
-0.000106984
-0.000101524
-9.6601e-05
-9.21515e-05
-8.81192e-05
-0.000688119
-0.000623344
-0.00056475
-0.000511893
-0.00046432
-0.00042159
-0.000383275
-0.000348967
-0.00031828
-0.000290855
-0.000266358
-0.000244485
-0.000224957
-0.000207519
-0.000191942
-0.000178022
-0.000165572
-0.000154426
-0.000144439
-0.000135477
-0.000127424
-0.000120177
-0.000113642
-0.00010774
-0.000102397
-9.7551e-05
-9.31445e-05
-0.000688261
-0.000626447
-0.000570219
-0.000519211
-0.000473044
-0.000431341
-0.000393735
-0.00035987
-0.00032941
-0.000302034
-0.000277447
-0.000255373
-0.000235557
-0.000217769
-0.000201797
-0.000187449
-0.000174553
-0.000162952
-0.000152507
-0.000143092
-0.000134594
-0.000126914
-0.000119963
-0.000113659
-0.000107933
-0.000102722