/*--------------------------------*- C++ -*----------------------------------*\
| =========                 |                                                 |
| \\      /  F ield         | OpenFOAM: The Open Source CFD Toolbox           |
|  \\    /   O peration     | Version:  2412                                  |
|   \\  /    A nd           | Website:  www.openfoam.com                      |
|    \\/     M anipulation  |                                                 |
\*---------------------------------------------------------------------------*/
FoamFile
{
    version     2.0;
    format      ascii;
    arch        "LSB;label=32;scalar=64";
    class       surfaceScalarField;
    location    "28.5";
    object      phi;
}
// * * * * * * * * * * * * * * * * * * * * * * * * * * * * * * * * * * * * * //

dimensions      [0 3 -1 0 0 0 0];

oriented        oriented;

internalField   nonuniform List<scalar> 
10424
(
0.00494476
-6.74829e-06
7.43864e-09
0.00495114
-6.38904e-06
6.59593e-09
0.0049572
-6.06187e-06
5.74815e-09
0.00496295
-5.76088e-06
4.90505e-09
0.00496843
-5.48063e-06
4.08845e-09
0.00497364
-5.21654e-06
3.30942e-09
0.0049786
-4.9651e-06
2.57714e-09
0.00498333
-4.72388e-06
1.8983e-09
0.00498782
-4.49136e-06
1.27679e-09
0.00499208
-4.26672e-06
7.12111e-10
0.00499613
-4.0496e-06
2.01245e-10
0.00499997
-3.83988e-06
-2.61013e-10
0.00500361
-3.63757e-06
-6.83275e-10
0.00500705
-3.44268e-06
-1.07496e-09
0.00501031
-3.25518e-06
-1.44667e-09
0.00501339
-3.07501e-06
-1.81075e-09
0.00501629
-2.90206e-06
-2.17598e-09
0.00501903
-2.73619e-06
-2.54878e-09
0.00502161
-2.57723e-06
-2.93249e-09
0.00502404
-2.425e-06
-3.32031e-09
0.00502632
-2.27933e-06
-3.7026e-09
0.00502847
-2.14003e-06
-4.06632e-09
0.00503048
-2.00692e-06
-4.39786e-09
0.00503236
-1.87982e-06
-4.69272e-09
0.00503412
-1.75854e-06
-4.95111e-09
0.00503577
-1.64289e-06
-5.17887e-09
0.00503731
-1.53271e-06
-5.37703e-09
0.00503874
-1.42783e-06
-5.53838e-09
0.00504008
-1.32812e-06
-5.64759e-09
0.00504132
-1.23343e-06
-5.68608e-09
0.00504247
-1.14362e-06
-5.66484e-09
0.00504353
-1.0585e-06
-5.61657e-09
0.00504451
-9.77892e-07
-5.59098e-09
0.00504542
-9.01618e-07
-5.63224e-09
0.00504626
-8.29544e-07
-5.73422e-09
0.00504702
-7.61599e-07
-5.85207e-09
0.00504773
-6.97715e-07
-5.90994e-09
0.00504837
-6.37856e-07
-5.84601e-09
0.00504896
-5.81893e-07
-5.64328e-09
0.00504949
-5.2973e-07
-5.33758e-09
0.00504998
-4.81109e-07
-4.98996e-09
0.00505042
-4.35983e-07
-4.68158e-09
0.00505082
-3.93974e-07
-4.46245e-09
0.00505118
-3.55339e-07
-4.32597e-09
0.0050515
-3.19482e-07
-4.23477e-09
0.00505179
-2.87194e-07
-4.12994e-09
0.00505206
-2.57192e-07
-4.00254e-09
0.00505229
-2.31182e-07
-3.8725e-09
0.0050525
-2.06495e-07
-3.80937e-09
0.00505269
-1.86713e-07
-3.79703e-09
0.00505286
-1.66835e-07
-3.84737e-09
0.00505302
-1.53671e-07
-3.89625e-09
0.00505316
-1.38341e-07
-3.91176e-09
0.0050533
-1.32667e-07
-3.77582e-09
0.00505342
-1.21902e-07
-3.56709e-09
0.00505355
-1.24562e-07
-3.2563e-09
0.00505367
-1.18693e-07
-2.96174e-09
0.00505381
-1.30488e-07
-2.51962e-09
0.00505394
-1.31416e-07
-2.14351e-09
0.00505409
-1.52632e-07
-1.69607e-09
0.00505426
-1.64493e-07
-1.19037e-09
0.00505446
-1.95548e-07
-6.34289e-10
0.00505468
-2.22965e-07
-3.13347e-10
0.00505495
-2.673e-07
-3.42445e-11
0.00505526
-3.16408e-07
5.02852e-10
0.00505563
-3.65859e-07
3.14015e-10
0.00505611
-4.87956e-07
7.12321e-10
0.00505659
-4.74601e-07
7.30087e-10
0.00505729
-7.00779e-07
1.34807e-09
0.00505805
-7.63471e-07
2.1576e-09
-9.0943e-07
3.06982e-09
0.00494482
-1.34863e-05
0.0049512
-1.27689e-05
0.00495725
-1.21156e-05
0.004963
-1.15144e-05
0.00496848
-1.09545e-05
0.00497369
-1.0427e-05
0.00497865
-9.92477e-06
0.00498337
-9.44295e-06
0.00498785
-8.97854e-06
0.00499212
-8.52988e-06
0.00499616
-8.09625e-06
0.005
-7.67741e-06
0.00500364
-7.27337e-06
0.00500708
-6.88413e-06
0.00501033
-6.50966e-06
0.00501341
-6.14984e-06
0.00501631
-5.80446e-06
0.00501905
-5.47324e-06
0.00502163
-5.15583e-06
0.00502405
-4.8519e-06
0.00502633
-4.56105e-06
0.00502848
-4.28293e-06
0.00503049
-4.01714e-06
0.00503237
-3.76332e-06
0.00503413
-3.5211e-06
0.00503578
-3.29011e-06
0.00503732
-3.07002e-06
0.00503875
-2.86049e-06
0.00504008
-2.66123e-06
0.00504132
-2.47196e-06
0.00504247
-2.29236e-06
0.00504353
-2.12212e-06
0.00504452
-1.96093e-06
0.00504542
-1.80846e-06
0.00504626
-1.66446e-06
0.00504703
-1.52871e-06
0.00504773
-1.40104e-06
0.00504837
-1.28129e-06
0.00504896
-1.16918e-06
0.0050495
-1.06458e-06
0.00504998
-9.67007e-07
0.00505042
-8.76466e-07
0.00505082
-7.92247e-07
0.00505118
-7.14863e-07
0.0050515
-6.43065e-07
0.00505179
-5.78407e-07
0.00505206
-5.18281e-07
0.00505229
-4.66144e-07
0.0050525
-4.16714e-07
0.00505269
-3.77153e-07
0.00505286
-3.3745e-07
0.00505302
-3.11186e-07
0.00505316
-2.80543e-07
0.0050533
-2.6906e-07
0.00505342
-2.47323e-07
0.00505355
-2.52343e-07
0.00505367
-2.40313e-07
0.00505381
-2.6346e-07
0.00505394
-2.64936e-07
0.00505409
-3.06924e-07
0.00505426
-3.30151e-07
0.00505446
-3.91635e-07
0.00505468
-4.46328e-07
0.00505495
-5.3431e-07
0.00505526
-6.32677e-07
0.00505563
-7.30971e-07
0.00505611
-9.7505e-07
0.00505659
-9.49349e-07
0.00505729
-1.39912e-06
0.00505805
-1.52478e-06
-1.81654e-06
0.00494494
-2.02183e-05
0.00495131
-1.91437e-05
0.00495736
-1.81643e-05
0.00496311
-1.72628e-05
0.00496858
-1.64232e-05
0.00497378
-1.56319e-05
0.00497874
-1.48787e-05
0.00498345
-1.41562e-05
0.00498793
-1.34599e-05
0.00499219
-1.27873e-05
0.00499623
-1.21374e-05
0.00500006
-1.15097e-05
0.00500369
-1.09042e-05
0.00500713
-1.0321e-05
0.00501038
-9.75985e-06
0.00501345
-9.2207e-06
0.00501635
-8.7032e-06
0.00501908
-8.2069e-06
0.00502166
-7.73133e-06
0.00502408
-7.27594e-06
0.00502636
-6.84016e-06
0.0050285
-6.42342e-06
0.00503051
-6.02516e-06
0.00503239
-5.64481e-06
0.00503415
-5.28182e-06
0.0050358
-4.93564e-06
0.00503733
-4.60578e-06
0.00503876
-4.29173e-06
0.0050401
-3.99305e-06
0.00504133
-3.7093e-06
0.00504248
-3.44002e-06
0.00504354
-3.18476e-06
0.00504453
-2.94306e-06
0.00504543
-2.71448e-06
0.00504627
-2.49862e-06
0.00504703
-2.29515e-06
0.00504773
-2.10375e-06
0.00504838
-1.92416e-06
0.00504896
-1.75597e-06
0.0050495
-1.59897e-06
0.00504998
-1.4525e-06
0.00505042
-1.31658e-06
0.00505082
-1.19019e-06
0.00505118
-1.07409e-06
0.0050515
-9.66391e-07
0.0050518
-8.69383e-07
0.00505206
-7.79164e-07
0.00505229
-7.00924e-07
0.0050525
-6.26771e-07
0.00505269
-5.67446e-07
0.00505286
-5.07936e-07
0.00505302
-4.68584e-07
0.00505316
-4.22637e-07
0.0050533
-4.05369e-07
0.00505342
-3.72654e-07
0.00505355
-3.80051e-07
0.00505367
-3.61839e-07
0.00505381
-3.96374e-07
0.00505394
-3.98369e-07
0.00505409
-4.61144e-07
0.00505426
-4.95751e-07
0.00505445
-5.87539e-07
0.00505468
-6.6986e-07
0.00505494
-8.00689e-07
0.00505526
-9.49648e-07
0.00505563
-1.09523e-06
0.00505611
-1.46185e-06
0.00505659
-1.42583e-06
0.00505729
-2.09528e-06
0.00505805
-2.28608e-06
-2.72509e-06
0.00494512
-2.69411e-05
0.00495148
-2.55102e-05
0.00495752
-2.42052e-05
0.00496327
-2.30033e-05
0.00496873
-2.18836e-05
0.00497392
-2.08283e-05
0.00497887
-1.98238e-05
0.00498357
-1.88605e-05
0.00498804
-1.79324e-05
0.00499229
-1.70362e-05
0.00499633
-1.61703e-05
0.00500015
-1.53341e-05
0.00500377
-1.45277e-05
0.0050072
-1.37509e-05
0.00501045
-1.30036e-05
0.00501351
-1.22856e-05
0.00501641
-1.15964e-05
0.00501913
-1.09355e-05
0.00502171
-1.03022e-05
0.00502412
-9.69569e-06
0.0050264
-9.11533e-06
0.00502854
-8.56031e-06
0.00503054
-8.02987e-06
0.00503242
-7.52327e-06
0.00503418
-7.03976e-06
0.00503582
-6.57863e-06
0.00503735
-6.13921e-06
0.00503878
-5.72085e-06
0.00504011
-5.32293e-06
0.00504135
-4.94486e-06
0.0050425
-4.58606e-06
0.00504356
-4.24592e-06
0.00504454
-3.92385e-06
0.00504544
-3.61927e-06
0.00504627
-3.33167e-06
0.00504704
-3.06058e-06
0.00504774
-2.80554e-06
0.00504838
-2.56621e-06
0.00504897
-2.34201e-06
0.0050495
-2.13269e-06
0.00504999
-1.93738e-06
0.00505043
-1.75615e-06
0.00505083
-1.58765e-06
0.00505118
-1.43287e-06
0.00505151
-1.28932e-06
0.0050518
-1.16001e-06
0.00505206
-1.03973e-06
0.00505229
-9.35425e-07
0.0050525
-8.3658e-07
0.00505269
-7.57521e-07
0.00505286
-6.78224e-07
0.00505302
-6.25811e-07
0.00505316
-5.6457e-07
0.0050533
-5.41541e-07
0.00505342
-4.97847e-07
0.00505355
-5.07646e-07
0.00505367
-4.83236e-07
0.00505381
-5.2919e-07
0.00505394
-5.31673e-07
0.00505409
-6.15254e-07
0.00505426
-6.61263e-07
0.00505445
-7.83168e-07
0.00505468
-8.93629e-07
0.00505494
-1.06613e-06
0.00505526
-1.26765e-06
0.00505562
-1.45823e-06
0.00505611
-1.9482e-06
0.00505659
-1.90482e-06
0.00505728
-2.78828e-06
0.00505804
-3.04738e-06
-3.6358e-06
0.00494536
-3.36508e-05
0.00495172
-3.18651e-05
0.00495775
-3.02351e-05
0.00496348
-2.87329e-05
0.00496893
-2.73328e-05
0.00497411
-2.60131e-05
0.00497904
-2.47571e-05
0.00498374
-2.3553e-05
0.0049882
-2.23932e-05
0.00499243
-2.12735e-05
0.00499646
-2.01921e-05
0.00500027
-1.91481e-05
0.00500388
-1.81412e-05
0.0050073
-1.71715e-05
0.00501054
-1.62388e-05
0.0050136
-1.53426e-05
0.00501648
-1.44823e-05
0.0050192
-1.36573e-05
0.00502177
-1.28668e-05
0.00502418
-1.21097e-05
0.00502645
-1.13853e-05
0.00502858
-1.06924e-05
0.00503059
-1.00302e-05
0.00503246
-9.39768e-06
0.00503421
-8.794e-06
0.00503585
-8.21824e-06
0.00503738
-7.66955e-06
0.00503881
-7.14713e-06
0.00504014
-6.65021e-06
0.00504137
-6.17806e-06
0.00504251
-5.72993e-06
0.00504357
-5.3051e-06
0.00504455
-4.90283e-06
0.00504546
-4.52243e-06
0.00504629
-4.16322e-06
0.00504705
-3.82465e-06
0.00504775
-3.50611e-06
0.00504839
-3.20714e-06
0.00504898
-2.92704e-06
0.00504951
-2.66549e-06
0.00504999
-2.42144e-06
0.00505043
-2.19499e-06
0.00505083
-1.98444e-06
0.00505119
-1.79107e-06
0.00505151
-1.61172e-06
0.0050518
-1.45016e-06
0.00505206
-1.29988e-06
0.0050523
-1.16955e-06
0.0050525
-1.04605e-06
0.00505269
-9.47301e-07
0.00505286
-8.48245e-07
0.00505302
-7.82804e-07
0.00505316
-7.06285e-07
0.0050533
-6.77526e-07
0.00505342
-6.22851e-07
0.00505355
-6.35086e-07
0.00505367
-6.04457e-07
0.00505381
-6.61874e-07
0.00505394
-6.64804e-07
0.00505409
-7.69214e-07
0.00505426
-8.26653e-07
0.00505445
-9.78433e-07
0.00505468
-1.11769e-06
0.00505494
-1.33036e-06
0.00505526
-1.58695e-06
0.00505562
-1.81958e-06
0.00505611
-2.43397e-06
0.00505659
-2.38704e-06
0.00505728
-3.47717e-06
0.00505804
-3.80868e-06
-4.54928e-06
0.00494567
-4.0343e-05
0.00495201
-3.82047e-05
0.00495803
-3.62506e-05
0.00496374
-3.44481e-05
0.00496918
-3.27674e-05
0.00497435
-3.1183e-05
0.00497926
-2.96753e-05
0.00498394
-2.82303e-05
0.00498839
-2.6839e-05
0.00499261
-2.54964e-05
0.00499662
-2.42001e-05
0.00500042
-2.29489e-05
0.00500402
-2.17425e-05
0.00500743
-2.05807e-05
0.00501065
-1.94632e-05
0.0050137
-1.83896e-05
0.00501658
-1.73591e-05
0.00501929
-1.63708e-05
0.00502185
-1.54237e-05
0.00502426
-1.45167e-05
0.00502652
-1.36486e-05
0.00502864
-1.28185e-05
0.00503064
-1.2025e-05
0.00503251
-1.1267e-05
0.00503426
-1.05436e-05
0.00503589
-9.8536e-06
0.00503742
-9.196e-06
0.00503884
-8.56986e-06
0.00504017
-7.97425e-06
0.0050414
-7.40828e-06
0.00504254
-6.87109e-06
0.00504359
-6.3618e-06
0.00504457
-5.87955e-06
0.00504547
-5.42352e-06
0.0050463
-4.9929e-06
0.00504706
-4.58702e-06
0.00504776
-4.20512e-06
0.0050484
-3.84667e-06
0.00504899
-3.51081e-06
0.00504952
-3.19716e-06
0.00505
-2.90447e-06
0.00505044
-2.63289e-06
0.00505084
-2.38039e-06
0.00505119
-2.14851e-06
0.00505151
-1.93345e-06
0.0050518
-1.73971e-06
0.00505206
-1.55949e-06
0.0050523
-1.40321e-06
0.00505251
-1.2551e-06
0.0050527
-1.13671e-06
0.00505287
-1.01793e-06
0.00505302
-9.39501e-07
0.00505316
-8.47723e-07
0.0050533
-8.13271e-07
0.00505342
-7.47615e-07
0.00505355
-7.62328e-07
0.00505367
-7.25453e-07
0.00505381
-7.94386e-07
0.00505394
-7.97709e-07
0.00505409
-9.22981e-07
0.00505426
-9.91877e-07
0.00505445
-1.17325e-06
0.00505468
-1.34208e-06
0.00505494
-1.59311e-06
0.00505526
-1.9078e-06
0.00505562
-2.17896e-06
0.0050561
-2.91902e-06
0.00505659
-2.87309e-06
0.00505727
-4.16113e-06
0.00505804
-4.56996e-06
-5.46611e-06
0.00494605
-4.70127e-05
0.00495237
-4.45243e-05
0.00495837
-4.22474e-05
0.00496406
-4.01451e-05
0.00496948
-3.81837e-05
0.00497463
-3.63345e-05
0.00497953
-3.4575e-05
0.00498419
-3.28892e-05
0.00498862
-3.12668e-05
0.00499282
-2.97019e-05
0.00499681
-2.81914e-05
0.0050006
-2.67339e-05
0.00500418
-2.53289e-05
0.00500758
-2.3976e-05
0.00501079
-2.26748e-05
0.00501383
-2.14247e-05
0.00501669
-2.02248e-05
0.0050194
-1.90741e-05
0.00502194
-1.79712e-05
0.00502434
-1.6915e-05
0.0050266
-1.59042e-05
0.00502872
-1.49373e-05
0.0050307
-1.40132e-05
0.00503257
-1.31304e-05
0.00503431
-1.22877e-05
0.00503594
-1.14839e-05
0.00503746
-1.07178e-05
0.00503888
-9.98832e-06
0.0050402
-9.29438e-06
0.00504143
-8.63494e-06
0.00504257
-8.00899e-06
0.00504362
-7.41552e-06
0.00504459
-6.85356e-06
0.00504549
-6.32213e-06
0.00504632
-5.82033e-06
0.00504708
-5.34733e-06
0.00504778
-4.90228e-06
0.00504842
-4.48452e-06
0.005049
-4.09305e-06
0.00504953
-3.72744e-06
0.00505001
-3.38626e-06
0.00505045
-3.06967e-06
0.00505084
-2.77534e-06
0.0050512
-2.50504e-06
0.00505152
-2.25438e-06
0.00505181
-2.02853e-06
0.00505207
-1.81848e-06
0.0050523
-1.63626e-06
0.00505251
-1.46368e-06
0.0050527
-1.32561e-06
0.00505287
-1.18726e-06
0.00505302
-1.09576e-06
0.00505316
-9.88916e-07
0.0050533
-9.4861e-07
0.00505342
-8.72213e-07
0.00505355
-8.89178e-07
0.00505367
-8.46334e-07
0.0050538
-9.26511e-07
0.00505394
-9.30518e-07
0.00505409
-1.07632e-06
0.00505426
-1.15708e-06
0.00505445
-1.36733e-06
0.00505467
-1.56703e-06
0.00505494
-1.85395e-06
0.00505526
-2.23061e-06
0.00505562
-2.53577e-06
0.0050561
-3.40357e-06
0.00505659
-3.363e-06
0.00505727
-4.84006e-06
0.00505803
-5.33047e-06
-6.38764e-06
0.00518365
-5.39717e-05
0.00519024
-5.11201e-05
0.0051965
-4.85068e-05
0.00520245
-4.60911e-05
0.0052081
-4.38359e-05
0.00521347
-4.17092e-05
0.00521858
-3.9686e-05
0.00522344
-3.77482e-05
0.00522806
-3.58842e-05
0.00523245
-3.4087e-05
0.00523661
-3.23531e-05
0.00524055
-3.06805e-05
0.00524429
-2.90686e-05
0.00524784
-2.75168e-05
0.00525118
-2.60244e-05
0.00525435
-2.45905e-05
0.00525734
-2.32143e-05
0.00526016
-2.18943e-05
0.00526282
-2.06293e-05
0.00526532
-1.94177e-05
0.00526768
-1.8258e-05
0.00526989
-1.71488e-05
0.00527196
-1.60884e-05
0.00527391
-1.50754e-05
0.00527573
-1.41084e-05
0.00527743
-1.31859e-05
0.00527902
-1.23067e-05
0.0052805
-1.14694e-05
0.00528188
-1.06729e-05
0.00528316
-9.91593e-06
0.00528435
-9.19735e-06
0.00528545
-8.51603e-06
0.00528647
-7.87085e-06
0.0052874
-7.26072e-06
0.00528827
-6.68459e-06
0.00528906
-6.14152e-06
0.00528979
-5.63052e-06
0.00529046
-5.15082e-06
0.00529107
-4.70129e-06
0.00529162
-4.2814e-06
0.00529212
-3.88959e-06
0.00529258
-3.52595e-06
0.00529299
-3.18799e-06
0.00529336
-2.87747e-06
0.0052937
-2.58974e-06
0.005294
-2.33017e-06
0.00529427
-2.08921e-06
0.00529451
-1.87956e-06
0.00529473
-1.68186e-06
0.00529493
-1.52265e-06
0.00529511
-1.36461e-06
0.00529527
-1.2585e-06
0.00529542
-1.13709e-06
0.00529556
-1.08929e-06
0.00529569
-1.00329e-06
0.00529582
-1.02079e-06
0.00529595
-9.7375e-07
0.00529609
-1.06351e-06
0.00529623
-1.07057e-06
0.00529639
-1.23542e-06
0.00529656
-1.33122e-06
0.00529676
-1.56872e-06
0.005297
-1.80451e-06
0.00529727
-2.12375e-06
0.00529761
-2.57252e-06
0.00529798
-2.90498e-06
0.00529849
-3.91271e-06
0.005299
-3.87833e-06
0.00529971
-5.5488e-06
0.0053005
-6.12248e-06
-7.36368e-06
0.00518422
-6.08922e-05
0.00519078
-5.76819e-05
0.00519701
-5.47347e-05
0.00520293
-5.20071e-05
0.00520855
-4.94587e-05
0.00521389
-4.70549e-05
0.00521898
-4.47684e-05
0.00522381
-4.25792e-05
0.0052284
-4.04745e-05
0.00523276
-3.84462e-05
0.00523689
-3.64901e-05
0.00524082
-3.4604e-05
0.00524454
-3.27866e-05
0.00524806
-3.10373e-05
0.00525139
-2.9355e-05
0.00525454
-2.77389e-05
0.00525751
-2.61876e-05
0.00526031
-2.46998e-05
0.00526296
-2.32737e-05
0.00526545
-2.19078e-05
0.00526779
-2.06004e-05
0.00526999
-1.93496e-05
0.00527206
-1.81539e-05
0.00527399
-1.70115e-05
0.00527581
-1.59209e-05
0.0052775
-1.48805e-05
0.00527908
-1.38887e-05
0.00528056
-1.29443e-05
0.00528193
-1.20457e-05
0.00528321
-1.11916e-05
0.00528439
-1.03809e-05
0.00528549
-9.61213e-06
0.0052865
-8.88411e-06
0.00528743
-8.19564e-06
0.0052883
-7.54551e-06
0.00528909
-6.93267e-06
0.00528981
-6.356e-06
0.00529048
-5.81461e-06
0.00529108
-5.30725e-06
0.00529163
-4.8333e-06
0.00529213
-4.39106e-06
0.00529259
-3.98055e-06
0.005293
-3.59913e-06
0.00529337
-3.24854e-06
0.00529371
-2.92389e-06
0.00529401
-2.6307e-06
0.00529428
-2.35899e-06
0.00529452
-2.12195e-06
0.00529474
-1.89929e-06
0.00529493
-1.71893e-06
0.00529511
-1.5414e-06
0.00529527
-1.4206e-06
0.00529542
-1.28485e-06
0.00529556
-1.22939e-06
0.00529569
-1.13405e-06
0.00529582
-1.15186e-06
0.00529595
-1.10091e-06
0.00529608
-1.19998e-06
0.00529622
-1.21039e-06
0.00529638
-1.39394e-06
0.00529656
-1.5052e-06
0.00529676
-1.76914e-06
0.005297
-2.04253e-06
0.00529726
-2.39106e-06
0.00529761
-2.91676e-06
0.00529797
-3.27084e-06
0.00529848
-4.42101e-06
0.005299
-4.3985e-06
0.0052997
-6.25091e-06
0.00530049
-6.9136e-06
-8.34572e-06
0.00518488
-6.77661e-05
0.0051914
-6.42023e-05
0.00519759
-6.09246e-05
0.00520347
-5.7887e-05
0.00520906
-5.50467e-05
0.00521437
-5.23667e-05
0.00521942
-4.98177e-05
0.00522422
-4.73782e-05
0.00522878
-4.50339e-05
0.00523311
-4.27759e-05
0.00523722
-4.05992e-05
0.00524112
-3.8501e-05
0.00524481
-3.648e-05
0.00524831
-3.45348e-05
0.00525162
-3.26644e-05
0.00525474
-3.08676e-05
0.0052577
-2.91428e-05
0.00526049
-2.74885e-05
0.00526312
-2.59028e-05
0.00526559
-2.43838e-05
0.00526792
-2.29297e-05
0.00527011
-2.15386e-05
0.00527217
-2.02085e-05
0.00527409
-1.89376e-05
0.0052759
-1.77242e-05
0.00527758
-1.65666e-05
0.00527916
-1.5463e-05
0.00528062
-1.4412e-05
0.00528199
-1.34119e-05
0.00528326
-1.24614e-05
0.00528444
-1.1559e-05
0.00528553
-1.07032e-05
0.00528654
-9.89283e-06
0.00528747
-9.1264e-06
0.00528833
-8.40264e-06
0.00528911
-7.72037e-06
0.00528984
-7.07834e-06
0.0052905
-6.47555e-06
0.0052911
-5.91064e-06
0.00529165
-5.38286e-06
0.00529215
-4.89042e-06
0.0052926
-4.43324e-06
0.00529301
-4.00855e-06
0.00529338
-3.61805e-06
0.00529371
-3.25665e-06
0.00529401
-2.92998e-06
0.00529428
-2.62764e-06
0.00529452
-2.36335e-06
0.00529474
-2.11583e-06
0.00529493
-1.91442e-06
0.00529511
-1.71746e-06
0.00529527
-1.58206e-06
0.00529542
-1.43199e-06
0.00529556
-1.36895e-06
0.00529569
-1.26428e-06
0.00529582
-1.28247e-06
0.00529595
-1.22756e-06
0.00529608
-1.33603e-06
0.00529622
-1.34968e-06
0.00529638
-1.55202e-06
0.00529655
-1.67872e-06
0.00529675
-1.96872e-06
0.00529699
-2.28077e-06
0.00529726
-2.65597e-06
0.0052976
-3.26297e-06
0.00529797
-3.6335e-06
0.00529847
-4.92792e-06
0.005299
-4.92407e-06
0.00529969
-6.94541e-06
0.00530048
-7.70463e-06
-9.33306e-06
0.00518563
-7.45843e-05
0.0051921
-7.06733e-05
0.00519825
-6.70693e-05
0.00520409
-6.37245e-05
0.00520963
-6.05942e-05
0.00521491
-5.76394e-05
0.00521992
-5.48293e-05
0.00522468
-5.21408e-05
0.0052292
-4.95584e-05
0.0052335
-4.70724e-05
0.00523758
-4.46769e-05
0.00524145
-4.23688e-05
0.00524511
-4.01459e-05
0.00524858
-3.80069e-05
0.00525187
-3.59502e-05
0.00525498
-3.39745e-05
0.00525791
-3.20779e-05
0.00526068
-3.02587e-05
0.00526329
-2.85147e-05
0.00526575
-2.68441e-05
0.00526807
-2.52446e-05
0.00527025
-2.37142e-05
0.00527229
-2.22508e-05
0.0052742
-2.08525e-05
0.005276
-1.95173e-05
0.00527767
-1.82432e-05
0.00527924
-1.70287e-05
0.0052807
-1.58718e-05
0.00528206
-1.47709e-05
0.00528332
-1.37245e-05
0.00528449
-1.2731e-05
0.00528558
-1.17888e-05
0.00528658
-1.08964e-05
0.00528751
-1.00525e-05
0.00528836
-9.25552e-06
0.00528914
-8.5042e-06
0.00528986
-7.79716e-06
0.00529052
-7.13329e-06
0.00529112
-6.51112e-06
0.00529167
-5.92979e-06
0.00529216
-5.3874e-06
0.00529262
-4.88378e-06
0.00529302
-4.41603e-06
0.00529339
-3.98582e-06
0.00529372
-3.58784e-06
0.00529402
-3.22785e-06
0.00529429
-2.89502e-06
0.00529453
-2.60361e-06
0.00529474
-2.33134e-06
0.00529494
-2.10899e-06
0.00529511
-1.89268e-06
0.00529527
-1.74277e-06
0.00529542
-1.57843e-06
0.00529556
-1.50789e-06
0.00529569
-1.39389e-06
0.00529582
-1.41255e-06
0.00529594
-1.35362e-06
0.00529608
-1.47162e-06
0.00529622
-1.48836e-06
0.00529638
-1.7096e-06
0.00529655
-1.85166e-06
0.00529675
-2.1674e-06
0.00529699
-2.51913e-06
0.00529725
-2.9184e-06
0.0052976
-3.61105e-06
0.00529796
-3.99284e-06
0.00529846
-5.4333e-06
0.00529899
-5.45492e-06
0.00529968
-7.63218e-06
0.00530047
-8.49552e-06
-1.03259e-05
0.00518647
-8.13374e-05
0.00519289
-7.70864e-05
0.00519898
-7.31612e-05
0.00520477
-6.95127e-05
0.00521027
-6.6095e-05
0.0052155
-6.28676e-05
0.00522047
-5.97983e-05
0.00522519
-5.68627e-05
0.00522967
-5.40442e-05
0.00523393
-5.13322e-05
0.00523798
-4.87202e-05
0.00524181
-4.62042e-05
0.00524545
-4.37817e-05
0.00524889
-4.14509e-05
0.00525215
-3.921e-05
0.00525523
-3.70573e-05
0.00525815
-3.49908e-05
0.0052609
-3.30084e-05
0.00526349
-3.11079e-05
0.00526593
-2.9287e-05
0.00526823
-2.75436e-05
0.00527039
-2.58752e-05
0.00527242
-2.42798e-05
0.00527432
-2.2755e-05
0.00527611
-2.1299e-05
0.00527777
-1.99095e-05
0.00527933
-1.85847e-05
0.00528078
-1.73228e-05
0.00528213
-1.61219e-05
0.00528339
-1.49802e-05
0.00528455
-1.38962e-05
0.00528563
-1.28682e-05
0.00528663
-1.18944e-05
0.00528755
-1.09735e-05
0.0052884
-1.01037e-05
0.00528918
-9.28375e-06
0.00528989
-8.51208e-06
0.00529055
-7.78749e-06
0.00529114
-7.10838e-06
0.00529169
-6.4738e-06
0.00529218
-5.88173e-06
0.00529263
-5.33193e-06
0.00529304
-4.82134e-06
0.0052934
-4.35164e-06
0.00529373
-3.91727e-06
0.00529403
-3.52415e-06
0.00529429
-3.16098e-06
0.00529453
-2.8426e-06
0.00529475
-2.5457e-06
0.00529494
-2.30254e-06
0.00529511
-2.06696e-06
0.00529527
-1.90264e-06
0.00529542
-1.72408e-06
0.00529556
-1.64614e-06
0.00529569
-1.52279e-06
0.00529582
-1.54203e-06
0.00529594
-1.47901e-06
0.00529608
-1.60667e-06
0.00529621
-1.62634e-06
0.00529637
-1.86661e-06
0.00529654
-2.02392e-06
0.00529674
-2.36511e-06
0.00529698
-2.75744e-06
0.00529724
-3.17829e-06
0.00529759
-3.96076e-06
0.00529795
-4.34879e-06
0.00529845
-5.93702e-06
0.00529899
-5.99077e-06
0.00529966
-8.31122e-06
0.00530046
-9.28623e-06
-1.13242e-05
0.00518741
-8.80153e-05
0.00519376
-8.34324e-05
0.00519979
-7.91921e-05
0.00520552
-7.52445e-05
0.00521097
-7.15428e-05
0.00521614
-6.80457e-05
0.00522107
-6.47196e-05
0.00522574
-6.15394e-05
0.00523019
-5.84873e-05
0.0052344
-5.55518e-05
0.00523841
-5.27256e-05
0.00524221
-5.00041e-05
0.00524581
-4.73845e-05
0.00524923
-4.48643e-05
0.00525246
-4.24415e-05
0.00525551
-4.0114e-05
0.0052584
-3.78796e-05
0.00526113
-3.57359e-05
0.0052637
-3.36806e-05
0.00526613
-3.17112e-05
0.00526841
-2.98252e-05
0.00527055
-2.80203e-05
0.00527257
-2.6294e-05
0.00527446
-2.46441e-05
0.00527623
-2.30683e-05
0.00527788
-2.15644e-05
0.00527943
-2.01304e-05
0.00528087
-1.87642e-05
0.00528221
-1.7464e-05
0.00528346
-1.62279e-05
0.00528462
-1.50541e-05
0.00528569
-1.39408e-05
0.00528668
-1.28862e-05
0.0052876
-1.18888e-05
0.00528844
-1.09467e-05
0.00528921
-1.00586e-05
0.00528992
-9.22272e-06
0.00529058
-8.43779e-06
0.00529117
-7.7021e-06
0.00529171
-7.0146e-06
0.0052922
-6.37315e-06
0.00529265
-5.77744e-06
0.00529305
-5.22428e-06
0.00529341
-4.7153e-06
0.00529374
-4.24476e-06
0.00529404
-3.81869e-06
0.0052943
-3.42537e-06
0.00529454
-3.08017e-06
0.00529475
-2.75878e-06
0.00529494
-2.49494e-06
0.00529512
-2.24019e-06
0.00529527
-2.06157e-06
0.00529542
-1.86884e-06
0.00529556
-1.7836e-06
0.00529569
-1.6509e-06
0.00529581
-1.67084e-06
0.00529594
-1.60363e-06
0.00529607
-1.74109e-06
0.00529621
-1.76351e-06
0.00529637
-2.02297e-06
0.00529654
-2.19538e-06
0.00529673
-2.56178e-06
0.00529697
-2.99553e-06
0.00529723
-3.43563e-06
0.00529758
-4.31184e-06
0.00529793
-4.70133e-06
0.00529844
-6.43895e-06
0.00529898
-6.53117e-06
0.00529965
-8.9827e-06
0.00530044
-1.00767e-05
-1.23279e-05
0.00518844
-9.46076e-05
0.00519471
-8.97021e-05
0.00520067
-8.51537e-05
0.00520634
-8.09125e-05
0.00521173
-7.69312e-05
0.00521685
-7.31679e-05
0.00522172
-6.95883e-05
0.00522634
-6.61663e-05
0.00523074
-6.28835e-05
0.00523492
-5.97273e-05
0.00523888
-5.66898e-05
0.00524264
-5.37658e-05
0.00524621
-5.09517e-05
0.00524959
-4.82447e-05
0.00525279
-4.56425e-05
0.00525582
-4.31425e-05
0.00525868
-4.07423e-05
0.00526138
-3.84394e-05
0.00526393
-3.62311e-05
0.00526634
-3.41149e-05
0.0052686
-3.20881e-05
0.00527073
-3.01481e-05
0.00527273
-2.82924e-05
0.0052746
-2.65186e-05
0.00527636
-2.48242e-05
0.005278
-2.3207e-05
0.00527954
-2.16647e-05
0.00528097
-2.01953e-05
0.0052823
-1.87967e-05
0.00528354
-1.74669e-05
0.00528469
-1.6204e-05
0.00528575
-1.50061e-05
0.00528674
-1.38713e-05
0.00528765
-1.2798e-05
0.00528848
-1.17842e-05
0.00528925
-1.08283e-05
0.00528996
-9.9287e-06
0.00529061
-9.08385e-06
0.0052912
-8.29196e-06
0.00529173
-7.55189e-06
0.00529222
-6.86139e-06
0.00529266
-6.22007e-06
0.00529306
-5.6246e-06
0.00529343
-5.07661e-06
0.00529375
-4.57011e-06
0.00529404
-4.11132e-06
0.00529431
-3.68802e-06
0.00529454
-3.31619e-06
0.00529475
-2.97044e-06
0.00529495
-2.68607e-06
0.00529512
-2.41224e-06
0.00529528
-2.21946e-06
0.00529542
-2.0126e-06
0.00529556
-1.92018e-06
0.00529568
-1.77812e-06
0.00529581
-1.79887e-06
0.00529593
-1.7274e-06
0.00529607
-1.87481e-06
0.0052962
-1.89979e-06
0.00529636
-2.17861e-06
0.00529653
-2.3659e-06
0.00529673
-2.75736e-06
0.00529696
-3.23317e-06
0.00529722
-3.69043e-06
0.00529757
-4.66392e-06
0.00529792
-5.05048e-06
0.00529842
-6.93895e-06
0.00529896
-7.07557e-06
0.00529963
-9.64692e-06
0.00530042
-1.08667e-05
-1.33369e-05
0.00518956
-0.000101104
0.00519575
-9.58859e-05
0.00520163
-9.10375e-05
0.00520723
-8.65091e-05
0.00521255
-8.22534e-05
0.00521761
-7.82283e-05
0.00522242
-7.43991e-05
0.00522699
-7.07391e-05
0.00523134
-6.72289e-05
0.00523547
-6.38554e-05
0.00523939
-6.06097e-05
0.00524311
-5.74862e-05
0.00524663
-5.44805e-05
0.00524998
-5.15896e-05
0.00525315
-4.88105e-05
0.00525615
-4.61406e-05
0.00525898
-4.3577e-05
0.00526166
-4.1117e-05
0.00526418
-3.87579e-05
0.00526657
-3.64967e-05
0.00526881
-3.43308e-05
0.00527092
-3.22574e-05
0.0052729
-3.02738e-05
0.00527476
-2.83774e-05
0.0052765
-2.65657e-05
0.00527813
-2.48363e-05
0.00527965
-2.31869e-05
0.00528107
-2.16152e-05
0.00528239
-2.01191e-05
0.00528362
-1.86964e-05
0.00528476
-1.73452e-05
0.00528582
-1.60635e-05
0.0052868
-1.48492e-05
0.0052877
-1.37005e-05
0.00528853
-1.26155e-05
0.0052893
-1.15925e-05
0.00529
-1.06296e-05
0.00529064
-9.7253e-06
0.00529123
-8.87763e-06
0.00529176
-8.08538e-06
0.00529224
-7.34617e-06
0.00529268
-6.65957e-06
0.00529308
-6.02208e-06
0.00529344
-5.43535e-06
0.00529376
-4.89314e-06
0.00529405
-4.40185e-06
0.00529431
-3.94877e-06
0.00529455
-3.5505e-06
0.00529476
-3.18056e-06
0.00529495
-2.87581e-06
0.00529512
-2.58302e-06
0.00529528
-2.3762e-06
0.00529542
-2.15528e-06
0.00529555
-2.05579e-06
0.00529568
-1.90437e-06
0.00529581
-1.92605e-06
0.00529593
-1.85023e-06
0.00529606
-2.00775e-06
0.0052962
-2.03506e-06
0.00529635
-2.33345e-06
0.00529652
-2.53536e-06
0.00529672
-2.95179e-06
0.00529695
-3.47015e-06
0.00529721
-3.94275e-06
0.00529756
-5.01661e-06
0.00529791
-5.39629e-06
0.0052984
-7.4369e-06
0.00529895
-7.62328e-06
0.00529961
-1.03043e-05
0.0053004
-1.16563e-05
-1.43511e-05
0.00519078
-0.000107494
0.00519687
-0.000101974
0.00520266
-9.68351e-05
0.00520818
-9.20268e-05
0.00521343
-8.75028e-05
0.00521842
-8.32211e-05
0.00522317
-7.9147e-05
0.00522769
-7.52531e-05
0.00523198
-7.15195e-05
0.00523605
-6.79323e-05
0.00523993
-6.44821e-05
0.0052436
-6.11624e-05
0.00524709
-5.79684e-05
0.0052504
-5.48966e-05
0.00525353
-5.19436e-05
0.0052565
-4.91063e-05
0.0052593
-4.63818e-05
0.00526195
-4.37672e-05
0.00526445
-4.12593e-05
0.00526681
-3.88552e-05
0.00526903
-3.6552e-05
0.00527112
-3.43469e-05
0.00527308
-3.22369e-05
0.00527493
-3.02194e-05
0.00527665
-2.82918e-05
0.00527827
-2.64515e-05
0.00527978
-2.4696e-05
0.00528118
-2.30231e-05
0.0052825
-2.14305e-05
0.00528372
-1.99159e-05
0.00528485
-1.84772e-05
0.0052859
-1.71124e-05
0.00528687
-1.58193e-05
0.00528776
-1.45959e-05
0.00528859
-1.34404e-05
0.00528935
-1.23508e-05
0.00529004
-1.13251e-05
0.00529068
-1.03618e-05
0.00529126
-9.45879e-06
0.00529179
-8.61476e-06
0.00529227
-7.82723e-06
0.0052927
-7.09568e-06
0.0052931
-6.4165e-06
0.00529346
-5.79132e-06
0.00529378
-5.21366e-06
0.00529406
-4.69012e-06
0.00529432
-4.20747e-06
0.00529456
-3.78296e-06
0.00529476
-3.38899e-06
0.00529495
-3.06402e-06
0.00529512
-2.75239e-06
0.00529528
-2.53167e-06
0.00529542
-2.29675e-06
0.00529555
-2.19032e-06
0.00529568
-2.02954e-06
0.0052958
-2.05228e-06
0.00529593
-1.97201e-06
0.00529606
-2.13981e-06
0.00529619
-2.16922e-06
0.00529635
-2.4874e-06
0.00529651
-2.7036e-06
0.00529671
-3.14503e-06
0.00529694
-3.7062e-06
0.00529719
-4.19265e-06
0.00529755
-5.36944e-06
0.00529789
-5.73885e-06
0.00529838
-7.93266e-06
0.00529893
-8.17353e-06
0.00529959
-1.09552e-05
0.00530037
-1.24453e-05
-1.537e-05
0.00519209
-0.000113767
0.00519807
-0.000107958
0.00520378
-0.000102538
0.00520921
-9.7458e-05
0.00521438
-9.26727e-05
0.0052193
-8.81406e-05
0.00522398
-8.38268e-05
0.00522843
-7.97039e-05
0.00523266
-7.57513e-05
0.00523668
-7.19546e-05
0.0052405
-6.83038e-05
0.00524413
-6.47915e-05
0.00524758
-6.14128e-05
0.00525084
-5.81633e-05
0.00525394
-5.50393e-05
0.00525687
-5.20377e-05
0.00525964
-4.9155e-05
0.00526226
-4.6388e-05
0.00526474
-4.37337e-05
0.00526707
-4.11888e-05
0.00526927
-3.87503e-05
0.00527134
-3.64152e-05
0.00527328
-3.41806e-05
0.00527511
-3.20436e-05
0.00527682
-3.00014e-05
0.00527842
-2.80515e-05
0.00527991
-2.61912e-05
0.00528131
-2.44182e-05
0.00528261
-2.27301e-05
0.00528381
-2.11245e-05
0.00528494
-1.95993e-05
0.00528598
-1.81522e-05
0.00528694
-1.6781e-05
0.00528783
-1.54837e-05
0.00528864
-1.42583e-05
0.0052894
-1.31026e-05
0.00529009
-1.20148e-05
0.00529072
-1.0993e-05
0.00529129
-1.00351e-05
0.00529182
-9.13973e-06
0.00529229
-8.30428e-06
0.00529273
-7.52816e-06
0.00529312
-6.80761e-06
0.00529347
-6.14429e-06
0.00529379
-5.53147e-06
0.00529408
-4.97593e-06
0.00529433
-4.46395e-06
0.00529456
-4.01342e-06
0.00529477
-3.59559e-06
0.00529496
-3.25059e-06
0.00529512
-2.92025e-06
0.00529528
-2.68577e-06
0.00529542
-2.43692e-06
0.00529555
-2.32368e-06
0.00529567
-2.15353e-06
0.0052958
-2.17748e-06
0.00529592