/*--------------------------------*- C++ -*----------------------------------*\
| =========                 |                                                 |
| \\      /  F ield         | OpenFOAM: The Open Source CFD Toolbox           |
|  \\    /   O peration     | Version:  2412                                  |
|   \\  /    A nd           | Website:  www.openfoam.com                      |
|    \\/     M anipulation  |                                                 |
\*---------------------------------------------------------------------------*/
FoamFile
{
    version     2.0;
    format      ascii;
    arch        "LSB;label=32;scalar=64";
    class       surfaceScalarField;
    location    "27.5";
    object      phi;
}
// * * * * * * * * * * * * * * * * * * * * * * * * * * * * * * * * * * * * * //

dimensions      [0 3 -1 0 0 0 0];

oriented        oriented;

internalField   nonuniform List<scalar> 
10424
(
0.00550301
0.000308054
-0.00551219
-0.000298874
0.00549384
0.000312955
-0.000303782
0.00548469
0.000317591
-0.000308439
0.00547557
0.000321943
-0.00031283
0.00546651
0.000325994
-0.000316936
0.00545753
0.000329729
-0.000320744
0.00544863
0.000333135
-0.000324239
0.00543984
0.0003362
-0.000327411
0.00543118
0.000338914
-0.00033025
0.00542266
0.000341269
-0.000332747
0.0054143
0.00034326
-0.000334897
0.00540611
0.000344881
-0.000336693
0.00539811
0.000346128
-0.000338131
0.00539032
0.000346999
-0.000339208
0.00538275
0.000347492
-0.000339922
0.00537541
0.000347607
-0.000340269
0.00536832
0.000347342
-0.00034025
0.00536148
0.000346699
-0.000339863
0.00535491
0.000345678
-0.000339108
0.00534862
0.000344281
-0.000337985
0.0053426
0.00034251
-0.000336495
0.00533687
0.000340369
-0.000334641
0.00533144
0.000337864
-0.000332426
0.00532629
0.000335001
-0.000329857
0.00532144
0.000331787
-0.000326938
0.00531689
0.000328234
-0.00032368
0.00531263
0.000324353
-0.000320093
0.00530866
0.000320157
-0.000316188
0.00530498
0.000315661
-0.000311981
0.00530159
0.000310882
-0.000307486
0.00529847
0.000305837
-0.00030272
0.00529562
0.000300546
-0.000297701
0.00529304
0.000295028
-0.000292447
0.00529072
0.000289302
-0.000286978
0.00528864
0.000283389
-0.000281313
0.00528681
0.000277309
-0.000275472
0.0052852
0.000271082
-0.000269474
0.00528381
0.000264727
-0.000263338
0.00528263
0.000258264
-0.000257083
0.00528165
0.00025171
-0.000250725
0.00528085
0.000245082
-0.000244282
0.00528022
0.000238395
-0.000237767
0.00527975
0.000231662
-0.000231193
0.000224897
-0.000224575
0.00550188
0.000317523
-0.00551135
0.00549242
0.00032241
0.005483
0.000327014
0.00547363
0.000331318
0.00546432
0.000335303
0.00545509
0.000338954
0.00544597
0.000342257
0.00543697
0.000345202
0.0054281
0.000347778
0.00541939
0.000349978
0.00541086
0.000351796
0.00540251
0.000353227
0.00539437
0.000354268
0.00538645
0.000354917
0.00537877
0.000355174
0.00537134
0.000355039
0.00536417
0.000354513
0.00535727
0.000353597
0.00535065
0.000352294
0.00534433
0.000350607
0.0053383
0.000348539
0.00533257
0.000346097
0.00532715
0.000343287
0.00532203
0.000340116
0.00531722
0.000336595
0.00531272
0.000332735
0.00530853
0.000328548
0.00530464
0.00032405
0.00530104
0.000319256
0.00529774
0.000314185
0.00529472
0.000308855
0.00529198
0.000303286
0.00528951
0.000297497
0.0052873
0.00029151
0.00528534
0.000285346
0.00528363
0.000279024
0.00528214
0.000272566
0.00528088
0.000265991
0.00527982
0.00025932
0.00527896
0.000252569
0.00527829
0.000245758
0.00527778
0.0002389
0.00527744
0.000232009
0.000225099
0.00550053
0.000327292
-0.0055103
0.00549078
0.000332155
0.00548108
0.000336717
0.00547144
0.00034096
0.00546187
0.000344867
0.00545241
0.000348422
0.00544305
0.000351611
0.00543383
0.000354422
0.00542477
0.000356846
0.00541587
0.000358875
0.00540716
0.000360504
0.00539866
0.000361729
0.00539038
0.000362548
0.00538234
0.000362959
0.00537455
0.000362963
0.00536703
0.000362562
0.00535978
0.000361756
0.00535283
0.000360551
0.00534617
0.000358949
0.00533983
0.000356955
0.00533379
0.000354575
0.00532807
0.000351816
0.00532267
0.000348685
0.0053176
0.000345194
0.00531284
0.000341351
0.0053084
0.000337172
0.00530428
0.000332669
0.00530047
0.000327858
0.00529697
0.000322758
0.00529377
0.000317387
0.00529086
0.000311765
0.00528823
0.000305911
0.00528588
0.000299848
0.0052838
0.000293596
0.00528197
0.000287176
0.00528038
0.000280611
0.00527903
0.00027392
0.00527789
0.000267125
0.00527697
0.000260245
0.00527624
0.000253299
0.00527569
0.000246305
0.00527531
0.000239278
0.00527509
0.000232231
0.000225179
0.00549894
0.000337372
-0.00550902
0.0054889
0.000342199
0.00547891
0.000346707
0.00546899
0.000350878
0.00545917
0.000354694
0.00544945
0.000358139
0.00543986
0.000361198
0.00543042
0.000363861
0.00542115
0.000366117
0.00541207
0.00036796
0.00540319
0.000369384
0.00539453
0.000370386
0.00538612
0.000370964
0.00537795
0.00037112
0.00537006
0.000370853
0.00536246
0.000370167
0.00535515
0.000369065
0.00534815
0.000367552
0.00534147
0.000365634
0.0053351
0.000363316
0.00532907
0.000360607
0.00532337
0.000357515
0.00531801
0.00035405
0.00531298
0.000350223
0.00530828
0.000346046
0.00530392
0.000341535
0.00529989
0.000336704
0.00529617
0.000331572
0.00529277
0.000326157
0.00528968
0.000320478
0.00528689
0.000314556
0.00528439
0.000308413
0.00528217
0.00030207
0.00528021
0.00029555
0.00527851
0.000288873
0.00527706
0.000282062
0.00527585
0.000275138
0.00527485
0.000268122
0.00527406
0.000261034
0.00527347
0.000253894
0.00527305
0.000246718
0.00527281
0.000239524
0.00527271
0.000232324
0.000225133
0.0054971
0.000347771
-0.0055075
0.00548675
0.000352551
0.00547647
0.000356993
0.00546627
0.000361079
0.00545617
0.000364789
0.0054462
0.000368108
0.00543638
0.000371023
0.00542672
0.00037352
0.00541724
0.000375592
0.00540797
0.000377231
0.00539892
0.000378432
0.00539012
0.000379193
0.00538157
0.000379513
0.00537329
0.000379394
0.00536531
0.000378837
0.00535763
0.000377848
0.00535026
0.00037643
0.00534322
0.000374592
0.00533652
0.000372339
0.00533015
0.00036968
0.00532414
0.000366625
0.00531847
0.000363184
0.00531315
0.000359369
0.00530818
0.000355192
0.00530356
0.000350668
0.00529928
0.000345813
0.00529534
0.000340645
0.00529173
0.000335181
0.00528844
0.000329441
0.00528548
0.000323448
0.00528281
0.000317221
0.00528044
0.000310783
0.00527836
0.000304156
0.00527654
0.000297364
0.00527499
0.000290427
0.00527368
0.00028337
0.0052726
0.000276212
0.00527175
0.000268975
0.0052711
0.000261681
0.00527065
0.000254347
0.00527038
0.000246993
0.00527027
0.000239634
0.00527031
0.000232284
0.000224957
0.00549498
0.000358502
-0.00550571
0.00548431
0.000363221
0.00547372
0.000367583
0.00546323
0.000371568
0.00545287
0.000375157
0.00544264
0.000378335
0.00543257
0.000381087
0.00542269
0.000383402
0.00541301
0.000385271
0.00540356
0.000386687
0.00539434
0.000387646
0.00538539
0.000388147
0.00537671
0.000388189
0.00536833
0.000387774
0.00536026
0.000386908
0.00535251
0.000385596
0.0053451
0.000383843
0.00533803
0.00038166
0.00533132
0.000379054
0.00532496
0.000376036
0.00531897
0.000372617
0.00531334
0.000368811
0.00530808
0.00036463
0.00530318
0.000360089
0.00529865
0.000355205
0.00529447
0.000349995
0.00529063
0.000344477
0.00528714
0.000338672
0.00528398
0.000332601
0.00528115
0.000326285
0.00527862
0.000319747
0.00527639
0.00031301
0.00527445
0.000306096
0.00527279
0.000299029
0.00527138
0.000291832
0.00527023
0.000284527
0.0052693
0.000277135
0.0052686
0.000269679
0.0052681
0.000262179
0.00526779
0.000254654
0.00526766
0.000247124
0.00526769
0.000239603
0.00526787
0.000232106
0.000224647
0.00549256
0.000369576
-0.00550363
0.00548156
0.00037422
0.00547066
0.000378485
0.00545987
0.000382353
0.00544923
0.000385805
0.00543874
0.000388823
0.00542843
0.000391394
0.00541833
0.000393507
0.00540845
0.000395153
0.00539881
0.000396326
0.00538943
0.000397023
0.00538033
0.000397242
0.00537154
0.000396984
0.00536306
0.000396254
0.00535491
0.000395057
0.0053471
0.000393401
0.00533966
0.000391293
0.00533257
0.000388744
0.00532586
0.000385766
0.00531952
0.000382371
0.00531357
0.000378571
0.005308
0.000374383
0.00530281
0.000369821
0.00529799
0.000364902
0.00529356
0.000359644
0.00528948
0.000354066
0.00528577
0.000348189
0.00528241
0.000342034
0.00527939
0.000335623
0.00527669
0.000328979
0.00527432
0.000322124
0.00527224
0.000315084
0.00527046
0.00030788
0.00526895
0.000300537
0.0052677
0.000293078
0.00526671
0.000285525
0.00526594
0.0002779
0.00526539
0.000270226
0.00526505
0.000262522
0.00526489
0.00025481
0.00526491
0.000247106
0.00526509
0.000239427
0.00526541
0.000231788
0.000224201
0.00548981
0.000381002
-0.00550123
0.00547847
0.000385555
0.00546725
0.000389708
0.00545616
0.000393441
0.00544523
0.000396735
0.00543448
0.000399574
0.00542393
0.000401945
0.0054136
0.000403835
0.00540352
0.000405237
0.0053937
0.000406145
0.00538416
0.000406557
0.00537493
0.000406472
0.00536602
0.000405893
0.00535745
0.000404825
0.00534924
0.000403275
0.00534139
0.000401252
0.00533391
0.000398768
0.00532682
0.000395833
0.00532013
0.000392463
0.00531382
0.000388671
0.00530792
0.000384473
0.00530242
0.000379885
0.00529731
0.000374927
0.0052926
0.000369615
0.00528827
0.000363971
0.00528433
0.000358015
0.00528075
0.000351768
0.00527753
0.000345254
0.00527465
0.000338496
0.00527212
0.000331517
0.0052699
0.000324342
0.00526799
0.000316994
0.00526637
0.000309499
0.00526503
0.000301878
0.00526395
0.000294156
0.00526312
0.000286356
0.00526252
0.0002785
0.00526214
0.000270609
0.00526195
0.000262705
0.00526196
0.000254807
0.00526213
0.000246934
0.00526245
0.000239101
0.00526292
0.000231323
0.000223613
0.00548669
0.000392794
-0.00549849
0.00547501
0.000397238
0.00546346
0.000401259
0.00545206
0.000404837
0.00544085
0.000407954
0.00542983
0.000410593
0.00541903
0.00041274
0.00540848
0.000414385
0.0053982
0.000415519
0.00538821
0.000416139
0.00537852
0.000416242
0.00536916
0.000415829
0.00536015
0.000414904
0.0053515
0.000413475
0.00534323
0.000411549
0.00533534
0.000409138
0.00532786
0.000406254
0.00532078
0.000402913
0.00531411
0.00039913
0.00530786
0.000394922
0.00530202
0.000390306
0.00529661
0.000385303
0.0052916
0.000379933
0.005287
0.000374215
0.0052828
0.000368171
0.00527899
0.000361825
0.00527556
0.0003552
0.00527249
0.000348319
0.00526978
0.000341207
0.00526741
0.000333888
0.00526537
0.000326388
0.00526363
0.000318731
0.00526219
0.000310941
0.00526102
0.000303042
0.00526012
0.000295058
0.00525947
0.000287012
0.00525904
0.000278926
0.00525883
0.000270822
0.00525881
0.00026272
0.00525898
0.000254641
0.00525931
0.000246602
0.00525979
0.000238621
0.0052604
0.000230709
0.000222881
0.00548319
0.00040496
-0.00549536
0.00547115
0.000409276
0.00545927
0.000413145
0.00544756
0.000416548
0.00543605
0.000419464
0.00542476
0.00042188
0.00541372
0.00042378
0.00540295
0.000425154
0.00539247
0.000425997
0.00538231
0.000426302
0.00537248
0.000426071
0.005363
0.000425305
0.0053539
0.00042401
0.00534518
0.000422193
0.00533686
0.000419867
0.00532896
0.000417043
0.00532147
0.000413738
0.00531442
0.000409968
0.0053078
0.000405751
0.00530161
0.000401107
0.00529586
0.000396056
0.00529055
0.000390621
0.00528566
0.000384822
0.00528119
0.000378684
0.00527713
0.000372229
0.00527347
0.000365483
0.0052702
0.000358469
0.00526731
0.000351213
0.00526477
0.000343741
0.00526258
0.000336078
0.00526072
0.00032825
0.00525917
0.000320281
0.00525792
0.000312196
0.00525694
0.000304019
0.00525622
0.000295775
0.00525575
0.000287485
0.00525551
0.000279171
0.00525547
0.000270857
0.00525563
0.000262562
0.00525596
0.000254305
0.00525646
0.000246106
0.0052571
0.000237981
0.00525787
0.000229941
0.000222001
0.00547927
0.000417512
-0.00549182
0.00546687
0.000421678
0.00545464
0.000425373
0.00544261
0.000428576
0.0054308
0.000431269
0.00541925
0.000433435
0.00540796
0.000435062
0.00539698
0.000436141
0.00538631
0.000436664
0.00537599
0.000436628
0.00536602
0.000436036
0.00535644
0.000434889
0.00534725
0.000433196
0.00533848
0.000430967
0.00533013
0.000428214
0.00532222
0.000424953
0.00531475
0.000421202
0.00530774
0.00041698
0.00530118
0.000412309
0.00529508
0.000407209
0.00528943
0.000401705
0.00528423
0.00039582
0.00527948
0.000389578
0.00527516
0.000383006
0.00527126
0.000376128
0.00526777
0.000368971
0.00526468
0.00036156
0.00526197
0.000353923
0.00525962
0.000346086
0.00525763
0.000338074
0.00525596
0.000329915
0.00525461
0.000321633
0.00525355
0.000313253
0.00525277
0.0003048
0.00525225
0.000296296
0.00525197
0.000287764
0.00525192
0.000279228
0.00525207
0.000270707
0.0052524
0.000262223
0.00525292
0.000253795
0.00525358
0.000245441
0.00525438
0.000237176
0.00525531
0.000229015
0.00022097
0.00547488
0.000430458
-0.00548783
0.00546211
0.000434453
0.00544953
0.000437949
0.00543718
0.000440927
0.00542508
0.00044337
0.00541326
0.00044526
0.00540173
0.000446586
0.00539054
0.000447339
0.00537969
0.000447514
0.00536921
0.000447108
0.00535912
0.000446125
0.00534944
0.00044457
0.00534018
0.000442451
0.00533137
0.000439781
0.00532301
0.000436575
0.00531511
0.000432851
0.00530768
0.00042863
0.00530073
0.000423933
0.00529425
0.000418784
0.00528825
0.000413209
0.00528272
0.000407232
0.00527766
0.000400881
0.00527306
0.000394182
0.0052689
0.000387162
0.00526518
0.00037985
0.00526188
0.000372272
0.00525898
0.000364457
0.00525647
0.000356432
0.00525433
0.000348225
0.00525255
0.000339862
0.00525109
0.00033137
0.00524995
0.000322775
0.0052491
0.000314101
0.00524853
0.000305372
0.00524821
0.000296612
0.00524813
0.000287843
0.00524827
0.000279087
0.00524861
0.000270365
0.00524914
0.000261697
0.00524983
0.000253103
0.00525067
0.0002446
0.00525165
0.000236204
0.00525273
0.000227927
0.000219782
0.00547
0.000443807
-0.00548335
0.00545684
0.000447605
0.00544392
0.000450876
0.00543124
0.000453603
0.00541885
0.000455766
0.00540676
0.00045735
0.005395
0.000458345
0.00538359
0.000458742
0.00537257
0.000458538
0.00536194
0.000457732
0.00535174
0.000456328
0.00534198
0.000454333
0.00533267
0.000451758
0.00532383
0.000448618
0.00531548
0.000444931
0.00530761
0.000440718
0.00530024
0.000436001
0.00529337
0.000430805
0.00528699
0.000425158
0.00528112
0.000419086
0.00527573
0.000412619
0.00527083
0.000405785
0.0052664
0.000398613
0.00526242
0.000391134
0.0052589
0.000383376
0.0052558
0.000375369
0.00525312
0.000367143
0.00525082
0.000358725
0.0052489
0.000350144
0.00524734
0.000341428
0.00524611
0.000332603
0.00524519
0.000323695
0.00524456
0.000314728
0.0052442
0.000305727
0.0052441
0.000296714
0.00524423
0.000287712
0.00524458
0.000278741
0.00524512
0.000269823
0.00524584
0.000260977
0.00524672
0.000252223
0.00524774
0.000243578
0.00524889
0.000235057
0.00525014
0.000226673
0.000218436
0.00546456
0.000457565
-0.00547832
0.00545103
0.000461139
0.00543775
0.000464158
0.00542475
0.000466602
0.00541206
0.000468455
0.00539971
0.000469702
0.00538772
0.000470334
0.00537612
0.000470343
0.00536493
0.000469726
0.00535417
0.000468487
0.00534387
0.000466629
0.00533404
0.000464162
0.0053247
0.0004611
0.00531586
0.000457461
0.00530753
0.000453264
0.00529971
0.000448533
0.00529242
0.000443294
0.00528565
0.000437576
0.0052794
0.000431407
0.00527367
0.000424819
0.00526844
0.000417842
0.00526372
0.000410509
0.00525948
0.000402851
0.00525572
0.0003949
0.00525241
0.000386687
0.00524953
0.000378243
0.00524708
0.000369599
0.00524502
0.000360784
0.00524333
0.000351827
0.00524201
0.000342756
0.00524101
0.000333598
0.00524033
0.000324379
0.00523993
0.000315123
0.00523981
0.000305853
0.00523993
0.000296592
0.00524028
0.000287361
0.00524084
0.000278182
0.00524159
0.000269074
0.00524251
0.000260058
0.00524358
0.000251151
0.00524478
0.000242371
0.00524611
0.000233733
0.00524753
0.000225248
0.000216927
0.00545853
0.000471738
-0.0054727
0.00544461
0.000475059
0.00543098
0.000477793
0.00541765
0.000479924
0.00540468
0.000481434
0.00539207
0.00048231
0.00537986
0.000482543
0.00536807
0.000482129
0.00535673
0.000481066
0.00534586
0.000479357
0.00533548
0.000477011
0.0053256
0.000474039
0.00531625
0.000470457
0.00530742
0.000466286
0.00529913
0.000461549
0.00529139
0.000456273
0.0052842
0.000450486
0.00527756
0.00044422
0.00527146
0.000437508
0.00526589
0.000430383
0.00526086
0.000422879
0.00525634
0.000415031
0.00525231
0.000406873
0.00524878
0.000398438
0.0052457
0.000389761
0.00524307
0.000380873
0.00524086
0.000371806
0.00523906
0.000362591
0.00523763
0.000353257
0.00523655
0.000343832
0.00523581
0.000334343
0.00523537
0.000324815
0.00523522
0.000315273
0.00523533
0.000305739
0.00523569
0.000296235
0.00523627
0.000286783
0.00523705
0.000277402
0.00523801
0.000268111
0.00523914
0.000258932
0.00524041
0.00024988
0.00524181
0.000240974
0.00524331
0.000232226
0.00524491
0.000223649
0.000215252
0.00545184
0.000486328
-0.00546643
0.00543754
0.000489363
0.00542355
0.000491781
0.00540991
0.000493563
0.00539665
0.000494694
0.0053838
0.000495163
0.00537138
0.000494962
0.00535942
0.000494087
0.00534795
0.000492539
0.00533698
0.000490325
0.00532654
0.000487455
0.00531663
0.000483942
0.00530728
0.000479807
0.0052985
0.000475072
0.00529028
0.000469764
0.00528264
0.000463913
0.00527558
0.000457551
0.00526909
0.000450713
0.00526316
0.000443434
0.00525779
0.000435752
0.00525297
0.000427704
0.00524867
0.000419326
0.00524489
0.000410655
0.0052416
0.000401727
0.00523878
0.000392577
0.00523642
0.00038324
0.00523448
0.000373746
0.00523294
0.000364129
0.00523178
0.000354417
0.00523097
0.000344639
0.00523049
0.000334821
0.00523032
0.000324989
0.00523043
0.000315166
0.00523079
0.000305374
0.00523139
0.000295634
0.00523221
0.000285967
0.00523322
0.000276392
0.0052344
0.000266927
0.00523574
0.000257592
0.00523722
0.000248405
0.00523881
0.00023938
0.00524051
0.000230532
0.00524228
0.000221871
0.000213408
0.00544444
0.000501332
-0.00545944
0.00542975
0.000504049
0.00541542
0.000506114
0.00540147
0.000507511
0.00538794
0.000508226
0.00537485
0.000508249
0.00536224
0.000507574
0.00535013
0.000506199
0.00533854
0.000504129
0.00532749
0.000501371
0.00531701
0.000497938
0.00530711
0.000493848
0.00529779
0.000489124
0.00528907
0.000483791
0.00528095
0.00047788
0.00527344
0.000471425
0.00526653
0.00046446
0.00526022
0.000457025
0.0052545
0.000449158
0.00524935
0.0004409
0.00524476
0.00043229
0.00524072
0.000423367
0.0052372
0.000414172
0.00523419
0.000404742
0.00523165
0.000395113
0.00522957
0.00038532
0.00522792
0.000375398
0.00522667
0.000365377
0.0052258
0.000355289
0.00522528
0.000345161
0.00522508
0.000335019
0.00522518
0.000324888
0.00522556
0.00031479
0.00522618
0.000304747
0.00522704
0.000294779
0.0052281
0.000284905
0.00522935
0.000275144
0.00523076
0.000265514
0.00523232
0.000256033
0.00523401
0.000246719
0.0052358
0.000237585
0.00523769
0.000228646
0.00523965
0.000219912
0.00021139
0.00543624
0.000516747
-0.00545165
0.00542118
0.000519108
0.00540651
0.000520782
0.00539226
0.000521755
0.00537848
0.000522014
0.00536517
0.00052155
0.00535239
0.00052036
0.00534014
0.000518444
0.00532846
0.00051581
0.00531737
0.000512467
0.00530687
0.000508433
0.00529699
0.000503728
0.00528774
0.000498378
0.00527911
0.000492413
0.00527113
0.000485868
0.00526377
0.000478778
0.00525705
0.000471184
0.00525095
0.000463127
0.00524546
0.00045465
0.00524056
0.000445796
0.00523624
0.000436608
0.00523248
0.000427128
0.00522925
0.000417398
0.00522654
0.000407457
0.00522431
0.000397343
0.00522254
0.000387092
0.00522119
0.00037674
0.00522025
0.000366318
0.00521969
0.000355856
0.00521947
0.000345381
0.00521957
0.000334921
0.00521996
0.000324497
0.00522061
0.000314133
0.00522151
0.000303847
0.00522263
0.00029366
0.00522395
0.000283588
0.00522544
0.000273651
0.00522709
0.000263866
0.00522888
0.000254249
0.00523078
0.000244817
0.00523278
0.000235584
0.00523486
0.000226565
0.00523701
0.000217766
0.000209197
0.00542716
0.000532562
-0.00544298
0.00541174
0.000534528
0.00539675
0.000535771
0.00538223
0.000536278
0.00536821
0.000536038
0.00535471
0.000535044
0.00534178
0.000533295
0.00532943
0.000530796
0.00531768
0.000527554
0.00530656
0.000523586
0.00529609
0.00051891
0.00528626
0.00051355
0.0052771
0.000507538
0.00526861
0.000500906
0.00526079
0.000493693
0.00525362
0.000485939
0.00524712
0.000477688
0.00524126
0.000468986
0.00523603
0.000459878
0.00523142
0.00045041
0.0052274
0.000440629
0.00522395
0.000430579
0.00522104
0.000420304
0.00521865
0.000409846
0.00521675
0.000399243
0.00521531
0.000388533
0.0052143
0.000377751
0.00521369
0.00036693
0.00521345
0.000356098
0.00521354
0.000345284
0.00521395
0.000334511
0.00521465
0.000323804
0.0052156
0.000313181
0.00521678
0.000302662
0.00521818
0.000292266
0.00521976
0.000282007
0.0052215
0.000271905
0.0052234
0.000261974
0.00522541
0.000252232
0.00522754
0.000242694
0.00522975
0.000233373
0.00523203
0.000224283
0.00523436
0.000215432
0.000206826
0.00541714
-0.00543333
0.00540137
0.00538609
0.00537131
0.00535707
0.00534341
0.00533036
0.00531793
0.00530616
0.00529505
0.00528462
0.0052749
0.00526587
0.00525754
0.00524991
0.00524298
0.00523673
0.00523115
0.00522622
0.00522193
0.00521824
0.00521513
0.00521257
0.00521053
0.00520899
0.0052079
0.00520724
0.00520698
0.00520708
0.00520751
0.00520825
0.00520926
0.00521052
0.005212
0.00521368
0.00521553
0.00521754
0.00521968
0.00522193
0.00522428
0.00522671
0.00522919
0.00523172
0.00577186
0.000202982
-0.000194529
0.00576305
0.000213599
-0.000204786
0.0057539
0.000223762
-0.000214618
0.00574445
0.000233467
-0.000224018
0.00573473
0.000242705
-0.00023298
0.00572475
0.000251471
-0.000241497
0.00571456
0.000259759
-0.000249563
0.00570417
0.000267563
-0.000257174
0.00569361
0.000274881
-0.000264325
0.00568292
0.000281709
-0.000271013
0.00567211
0.000288044
-0.000277235
0.00566121
0.000293885
-0.000282989
0.00565025
0.000299231
-0.000288273
0.00563926
0.000304082
-0.000293088
0.00562825
0.00030844
-0.000297432
0.00561725
0.000312305
-0.000301307
0.00560629
0.000315681
-0.000304716
0.00559538
0.000318572
-0.00030766
0.00558454
0.000320984
-0.000310146
0.00557379
0.000322924
-0.000312178
0.00556316
0.000324401
-0.000313766
0.00555265
0.000325425
-0.000314917
0.00554229
0.000326009
-0.000315645
0.00553208
0.000326167
-0.000315961
0.00552204
0.000325915
-0.00031588
0.000325271
-0.000315418
0.00578233
0.000211893
0.00577304
0.000222882
0.00576342
0.000233389
0.00575348
0.000243407
0.00574325
0.00025293
0.00573277
0.00026195
0.00572207
0.000270463
0.00571117
0.000278464
0.0057001
0.000285948
0.0056889
0.000292913
0.00567758
0.000299358
0.00566618
0.000305281
0.00565473
0.000310682
0.00564325
0.000315563
0.00563177
0.000319924
0.00562031
0.000323768
0.00560889
0.0003271
0.00559753
0.000329925
0.00558627
0.00033225
0.00557511
0.000334083
0.00556407
0.000335434
0.00555318
0.000336316
0.00554245
0.000336741
0.00553189
0.000336726
0.00552152
0.000336288
0.000335444
0.00579317
0.00022129
0.00578339
0.000232665
0.00577325
0.000243527
0.00576279
0.000253868
0.00575204
0.000263683
0.00574102
0.000272964
0.00572978
0.000281705
0.00571834
0.000289903
0.00570674
0.000297554
0.00569499
0.000304655
0.00568315
0.000311205
0.00567122
0.000317205
0.00565925
0.000322654
0.00564726
0.000327554
0.00563528
0.000331908
0.00562332
0.00033572
0.00561143
0.000338996
0.00559961
0.000341741
0.0055879
0.000343964
0.00557631
0.000345674
0.00556486
0.000346884
0.00555357
0.000347607
0.00554245
0.000347857
0.00553152
0.000347652
0.0055208
0.000347009
0.000345949
0.00580441
0.000231203
0.0057941
0.000242978
0.00578342
0.000254207
0.0057724
0.000264881
0.00576109
0.000274995
0.00574951
0.000284542
0.0057377
0.000293516
0.00572569
0.000301912
0.00571352
0.000309728
0.00570121
0.000316963
0.0056888
0.000323614
0.00567632
0.000329683
0.0056638
0.000335172
0.00565127
0.000340083
0.00563876
0.000344419
0.0056263
0.000348186
0.0056139
0.000351391
0.0056016
0.000354041
0.00558942
0.000356147
0.00557737
0.000357719
0.00556549
0.00035877
0.00555378
0.000359316
0.00554226
0.000359372
0.00553096
0.000358958
0.00551987
0.000358093
0.000356799
0.00581605
0.000241663
0.00580518
0.000253853
0.00579392
0.000265461
0.00578232
0.000276479
0.00577042
0.0002869
0.00575824
0.000296718
0.00574583
0.000305927
0.00573322
0.000314524
0.00572044
0.000322504
0.00570754
0.000329868
0.00569454
0.000336615
0.00568147
0.000342747
0.00566838
0.000348267
0.00565528
0.000353177
0.00564222
0.000357483
0.00562921
0.000361192
0.00561629
0.000364311
0.00560348
0.000366851
0.00559081
0.000368821
0.00557829
0.000370237
0.00556595
0.000371111
0.00555381
0.00037146
0.00554187
0.000371304
0.00553017
0.000370662
0.00551871
0.000369554
0.000368005
0.00582811
0.000252706
0.00581664
0.000265326
0.00580478
0.000277326
0.00579256
0.000288697
0.00578003
0.000299433
0.00576722
0.000309527
0.00575417
0.000318975
0.00574092
0.000327771
0.00572751
0.000335914
0.00571398
0.000343404
0.00570035
0.000350241
0.00568667
0.000356428
0.00567297
0.000361968
0.00565928
0.000366866
0.00564563
0.000371129
0.00563206
0.000374765
0.00561859
0.000377782
0.00560525
0.000380193
0.00559206
0.000382011
0.00557904
0.00038325
0.00556623
0.000383927
0.00555363
0.000384061
0.00554126
0.00038367
0.00552914
0.000382778
0.00551729
0.000381407
0.000379581
0.00584061
0.000264368
0.0058285
0.000277433
0.00581599
0.000289837
0.00580311
0.000301572
0.00578992
0.00031263
0.00577644
0.000323006
0.00576272
0.000332694
0.0057488
0.000341691
0.00573472
0.000349995
0.00572052
0.000357606
0.00570623
0.000364526
0.0056919
0.000370759
0.00567756
0.000376309
0.00566324
0.000381182
0.00564899
0.000385387
0.00563482
0.000388933
0.00562077
0.000391832
0.00560687
0.000394096
0.00559314
0.000395741
0.0055796
0.000396783
0.00556629
0.000397241
0.00555322
0.000397136
0.0055404
0.000396489
0.00552785
0.000395323
0.00551559
0.000393665
0.00039154
0.00585355
0.000276688
0.00584076
0.000290215
0.00582757
0.000303036
0.00581399
0.000315144
0.00580009
0.000326532
0.0057859
0.000337194
0.00577147
0.000347125
0.00575684
0.000356321
0.00574205
0.000364783
0.00572715
0.00037251
0.00571217
0.000379506
0.00569715
0.000385774
0.00568214
0.000391322
0.00566717
0.000396157
0.00565227
0.000400288
0.00563747
0.000403727
0.00562281
0.000406488
0.00560833
0.000408585
0.00559403
0.000410036
0.00557996
0.000410859
0.00556612
0.000411075
0.00555255
0.000410707
0.00553926
0.000409778
0.00552627
0.000408315
0.00551359
0.000406345
0.000403896
0.00586694
0.00028971
0.00585344
0.000303713
0.00583951
0.000316965
0.0058252
0.000329456
0.00581055
0.000341181
0.00579561
0.000352133
0.00578043
0.000362308
0.00576505
0.000371704
0.00574951
0.000380319
0.00573386
0.000388155
0.00571815
0.000395218
0.00570241
0.000401511
0.00568669
0.000407044
0.00567102
0.000411825
0.00565545
0.000415865
0.00564
0.000419179
0.0056247
0.000421781
0.0056096
0.000423689
0.00559471
0.000424922
0.00558007
0.000425502
0.00556569
0.000425451
0.0055516
0.000424794
0.00553782
0.000423559
0.00552437
0.000421771
0.00551125
0.000419462
0.000416661
0.00588079
0.000303478
0.00586653
0.000317974
0.00585183
0.000331669
0.00583673
0.000344553
0.00582129
0.000356622
0.00580555
0.000367869
0.00578957
0.000378289
0.0057734
0.000387881
0.00575707
0.000396645
0.00574064
0.000404584
0.00572416
0.000411703
0.00570766
0.000418009
0.00569119
0.000423512
0.00567479
0.000428222
0.00565851
0.000432153
0.00564236
0.000435321
0.0056264
0.000437742
0.00561065
0.000439438
0.00559515
0.000440429
0.00557991
0.000440739
0.00556497
0.000440393
0.00555034
0.00043942
0.00553605
0.000437849
0.00552212
0.000435709
0.00550855
0.000433031
0.00042985
0.00589511
0.000318041
0.00588004
0.000333047
0.00586451
0.000347197
0.00584858
0.000360484
0.0058323
0.000372903
0.00581572
0.000384447
0.00579889
0.000395112
0.00578188
0.000404898
0.00576472
0.000413805
0.00574746
0.000421838
0.00573016
0.000429003
0.00571286
0.000435308
0.00569561
0.000440765
0.00567845
0.000445386
0.00566141
0.000449187
0.00564455
0.000452186
0.00562788
0.000454403
0.00561146
0.00045586
0.00559531
0.000456582
0.00557945
0.000456594
0.00556392
0.000455926
0.00554873
0.000454606
0.00553392
0.000452668
0.00551948
0.000450144
0.00550544
0.000447068
0.000443474
0.00590989
0.000333453
0.00589395
0.000348984
0.00587755
0.000363603
0.00586073
0.000377302
0.00584356
0.000390076
0.00582609
0.00040192
0.00580837
0.000412829
0.00579046
0.000422805
0.00577242
0.000431848
0.00575429
0.000439965
0.00573613
0.000447162
0.00571799
0.000453451
0.00569991
0.000458844
0.00568194
0.000463355
0.00566413
0.000467005
0.0056465
0.000469811
0.00562911
0.000471797
0.00561198
0.000472988
0.00559515
0.000473411
0.00557865
0.000473095
0.00556251
0.000472072
0.00554674
0.000470374
0.00553137
0.000468036
0.00551642
0.000465095
0.0055019
0.000461586
0.000457547
0.00592513
0.00034977
0.00590827
0.000365842
0.00589093
0.000380941
0.00587317
0.000395061
0.00585505
0.000408196
0.00583663
0.00042034
0.00581797
0.000431492
0.00579912
0.000441652
0.00578015
0.000450822
0.0057611
0.000459011
0.00574204
0.000466227
0.00572301
0.000472481
0.00570406
0.00047779
0.00568524
0.000482171
0.00566661
0.000485643
0.00564819
0.00048823
0.00563003
0.000489957
0.00561216
0.000490851
0.00559463
0.000490944
0.00557746
0.000490267
0.00556068
0.000488855
0.00554431
0.000486744
0.00552837
0.000483971
0.00551289
0.000480576
0.00549788
0.000476599
0.000472078
0.0059408
0.000367053
0.00592296
0.000383682
0.00590462
0.000399274
0.00588586
0.000413821
0.00586674
0.00042732
0.00584731
0.000439765
0.00582765
0.000451156
0.00580781
0.000461492
0.00578785
0.00047078
0.00576784
0.000479027
0.00574782
0.000486244
0.00572785
0.000492446
0.005708
0.000497648
0.00568829
0.000501872
0.0056688
0.000505141
0.00564955
0.000507479
0.00563059
0.000508915
0.00561196
0.000509481
0.00559369
0.000509209
0.00557582
0.000508135
0.00555838
0.000506298
0.00554139
0.000503736
0.00552487
0.000500491
0.00550884
0.000496604
0.00549332
0.000492119
0.000487078
0.00595686
0.000385369
0.00593798
0.000402569
0.00591859
0.000418664
0.00589876
0.000433645
0.00587857
0.000447511
0.00585808
0.000460256
0.00583736
0.000471879
0.00581647
0.000482384
0.00579547
0.000491776
0.00577443
0.000500065
0.00575341
0.000507265
0.00573247
0.000513391
0.00571165
0.000518462
0.00569102
0.000522502
0.00567063
0.000525537
0.00565051
0.000527595
0.00563072
0.000528707
0.00561129
0.000528907
0.00559227
0.000528233
0.00557368