/*--------------------------------*- C++ -*----------------------------------*\
| =========                 |                                                 |
| \\      /  F ield         | OpenFOAM: The Open Source CFD Toolbox           |
|  \\    /   O peration     | Version:  2412                                  |
|   \\  /    A nd           | Website:  www.openfoam.com                      |
|    \\/     M anipulation  |                                                 |
\*---------------------------------------------------------------------------*/
FoamFile
{
    version     2.0;
    format      ascii;
    arch        "LSB;label=32;scalar=64";
    class       volVectorField;
    location    "22";
    object      vorticity;
}
// * * * * * * * * * * * * * * * * * * * * * * * * * * * * * * * * * * * * * //

dimensions      [0 0 -1 0 0 0 0];

internalField   nonuniform List<vector> 
5285
(
(0 -0 -1.10147e-05)
(0 -0 -2.48972e-06)
(0 -0 4.34537e-06)
(0 -0 1.03038e-05)
(0 -0 3.57019e-07)
(0 -0 7.04934e-06)
(0 -0 1.25998e-05)
(0 -0 1.70111e-05)
(0 -0 2.00858e-05)
(0 -0 2.12804e-05)
(0 -0 2.07094e-05)
(0 -0 2.0295e-05)
(0 -0 1.90837e-05)
(0 -0 1.72939e-05)
(0 -0 1.51371e-05)
(0 -0 1.28108e-05)
(0 -0 1.04831e-05)
(0 -0 8.28506e-06)
(0 -0 6.31043e-06)
(0 -0 4.61636e-06)
(0 -0 3.22769e-06)
(0 -0 2.14266e-06)
(0 -0 1.34033e-06)
(0 -0 7.8842e-07)
(0 -0 4.51322e-07)
(0 -0 2.96369e-07)
(0 -0 2.98477e-07)
(0 -0 4.41483e-07)
(0 -0 7.15107e-07)
(0 -0 1.10935e-06)
(0 -0 1.60543e-06)
(0 -0 2.16761e-06)
(0 -0 2.73563e-06)
(0 -0 3.22658e-06)
(0 -0 3.54118e-06)
(0 -0 3.58199e-06)
(0 -0 3.27418e-06)
(0 -0 2.58799e-06)
(0 -0 1.55273e-06)
(0 -0 2.58767e-07)
(0 -0 -1.15591e-06)
(0 -0 -2.53113e-06)
(0 -0 -3.71528e-06)
(0 -0 -4.59291e-06)
(0 -0 -5.10172e-06)
(0 -0 -5.23231e-06)
(0 -0 -5.07318e-06)
(0 -0 -4.4363e-06)
(0 -0 1.3324e-05)
(0 -0 1.84525e-05)
(0 -0 2.22842e-05)
(0 -0 2.50102e-05)
(0 -0 2.66207e-05)
(0 -0 2.6567e-05)
(0 -0 2.56116e-05)
(0 -0 2.40854e-05)
(0 -0 2.20708e-05)
(0 -0 1.96776e-05)
(0 -0 1.70593e-05)
(0 -0 1.43786e-05)
(0 -0 1.17798e-05)
(0 -0 9.37747e-06)
(0 -0 7.25153e-06)
(0 -0 5.44773e-06)
(0 -0 3.98095e-06)
(0 -0 2.84105e-06)
(0 -0 1.99976e-06)
(0 -0 1.41893e-06)
(0 -0 1.05743e-06)
(0 -0 8.78361e-07)
(0 -0 8.52737e-07)
(0 -0 9.60943e-07)
(0 -0 1.19082e-06)
(0 -0 1.53123e-06)
(0 -0 1.96463e-06)
(0 -0 2.45755e-06)
(0 -0 2.95547e-06)
(0 -0 3.3811e-06)
(0 -0 3.64289e-06)
(0 -0 3.64951e-06)
(0 -0 3.3311e-06)
(0 -0 2.65971e-06)
(0 -0 1.66338e-06)
(0 -0 4.27946e-07)
(0 -0 -9.15326e-07)
(0 -0 -2.21423e-06)
(0 -0 -3.32416e-06)
(0 -0 -4.13507e-06)
(0 -0 -4.58819e-06)
(0 -0 -4.67549e-06)
(0 -0 -4.4837e-06)
(0 -0 -3.81296e-06)
(0 -0 2.63707e-05)
(0 -0 2.9911e-05)
(0 -0 3.21107e-05)
(0 -0 3.33207e-05)
(0 -0 3.36308e-05)
(0 -0 3.27356e-05)
(0 -0 3.10523e-05)
(0 -0 2.87782e-05)
(0 -0 2.60547e-05)
(0 -0 2.30336e-05)
(0 -0 1.98787e-05)
(0 -0 1.67478e-05)
(0 -0 1.37769e-05)
(0 -0 1.10709e-05)
(0 -0 8.69988e-06)
(0 -0 6.69969e-06)
(0 -0 5.07613e-06)
(0 -0 3.81069e-06)
(0 -0 2.86782e-06)
(0 -0 2.20278e-06)
(0 -0 1.76905e-06)
(0 -0 1.52469e-06)
(0 -0 1.43657e-06)
(0 -0 1.48163e-06)
(0 -0 1.64496e-06)
(0 -0 1.91428e-06)
(0 -0 2.27218e-06)
(0 -0 2.68759e-06)
(0 -0 3.10989e-06)
(0 -0 3.46768e-06)
(0 -0 3.67565e-06)
(0 -0 3.64859e-06)
(0 -0 3.32092e-06)
(0 -0 2.66641e-06)
(0 -0 1.71166e-06)
(0 -0 5.3813e-07)
(0 -0 -7.29509e-07)
(0 -0 -1.94627e-06)
(0 -0 -2.97479e-06)
(0 -0 -3.71071e-06)
(0 -0 -4.09886e-06)
(0 -0 -4.13257e-06)
(0 -0 -3.90047e-06)
(0 -0 -3.20281e-06)
(0 -0 3.84069e-05)
(0 -0 4.06258e-05)
(0 -0 4.15123e-05)
(0 -0 4.14202e-05)
(0 -0 4.05913e-05)
(0 -0 3.89754e-05)
(0 -0 3.65907e-05)
(0 -0 3.36138e-05)
(0 -0 3.02201e-05)
(0 -0 2.65887e-05)
(0 -0 2.28954e-05)
(0 -0 1.93002e-05)
(0 -0 1.5936e-05)
(0 -0 1.29016e-05)
(0 -0 1.02593e-05)
(0 -0 8.03681e-06)
(0 -0 6.23166e-06)
(0 -0 4.81746e-06)
(0 -0 3.7516e-06)
(0 -0 2.98308e-06)
(0 -0 2.45995e-06)
(0 -0 2.13551e-06)
(0 -0 1.97252e-06)
(0 -0 1.94449e-06)
(0 -0 2.03395e-06)
(0 -0 2.22721e-06)
(0 -0 2.50699e-06)
(0 -0 2.8442e-06)
(0 -0 3.1919e-06)
(0 -0 3.48403e-06)
(0 -0 3.64125e-06)
(0 -0 3.584e-06)
(0 -0 3.25093e-06)
(0 -0 2.61755e-06)
(0 -0 1.70918e-06)
(0 -0 6.03158e-07)
(0 -0 -5.82119e-07)
(0 -0 -1.70891e-06)
(0 -0 -2.64691e-06)
(0 -0 -3.29747e-06)
(0 -0 -3.60932e-06)
(0 -0 -3.57753e-06)
(0 -0 -3.29279e-06)
(0 -0 -2.52432e-06)
(0 -0 4.98865e-05)
(0 -0 5.0932e-05)
(0 -0 5.06529e-05)
(0 -0 4.94134e-05)
(0 -0 4.75757e-05)
(0 -0 4.50717e-05)
(0 -0 4.18822e-05)
(0 -0 3.81686e-05)
(0 -0 3.41086e-05)
(0 -0 2.98863e-05)
(0 -0 2.5679e-05)
(0 -0 2.16447e-05)
(0 -0 1.79111e-05)
(0 -0 1.45701e-05)
(0 -0 1.16762e-05)
(0 -0 9.24897e-06)
(0 -0 7.27752e-06)
(0 -0 5.72781e-06)
(0 -0 4.55032e-06)
(0 -0 3.688e-06)
(0 -0 3.0837e-06)
(0 -0 2.68624e-06)
(0 -0 2.45459e-06)
(0 -0 2.35916e-06)
(0 -0 2.38015e-06)
(0 -0 2.50269e-06)
(0 -0 2.70976e-06)
(0 -0 2.97418e-06)
(0 -0 3.2527e-06)
(0 -0 3.48441e-06)
(0 -0 3.59579e-06)
(0 -0 3.51296e-06)
(0 -0 3.17885e-06)
(0 -0 2.57091e-06)
(0 -0 1.71353e-06)
(0 -0 6.80283e-07)
(0 -0 -4.16373e-07)
(0 -0 -1.44576e-06)
(0 -0 -2.28453e-06)
(0 -0 -2.83994e-06)
(0 -0 -3.06483e-06)
(0 -0 -2.95641e-06)
(0 -0 -2.60749e-06)
(0 -0 -1.77057e-06)
(0 -0 6.13077e-05)
(0 -0 6.12494e-05)
(0 -0 5.98624e-05)
(0 -0 5.75223e-05)
(0 -0 5.46302e-05)
(0 -0 5.11492e-05)
(0 -0 4.70726e-05)
(0 -0 4.25637e-05)
(0 -0 3.78023e-05)
(0 -0 3.2972e-05)
(0 -0 2.82466e-05)
(0 -0 2.37777e-05)
(0 -0 1.96852e-05)
(0 -0 1.60518e-05)
(0 -0 1.29227e-05)
(0 -0 1.03076e-05)
(0 -0 8.18701e-06)
(0 -0 6.51845e-06)
(0 -0 5.24516e-06)
(0 -0 4.30389e-06)
(0 -0 3.63221e-06)
(0 -0 3.17454e-06)
(0 -0 2.88616e-06)
(0 -0 2.73453e-06)
(0 -0 2.69771e-06)
(0 -0 2.75983e-06)
(0 -0 2.90412e-06)
(0 -0 3.10534e-06)
(0 -0 3.3239e-06)
(0 -0 3.50386e-06)
(0 -0 3.57754e-06)
(0 -0 3.47673e-06)
(0 -0 3.14876e-06)
(0 -0 2.57326e-06)
(0 -0 1.7741e-06)
(0 -0 8.2142e-07)
(0 -0 -1.77929e-07)
(0 -0 -1.10013e-06)
(0 -0 -1.82879e-06)
(0 -0 -2.27723e-06)
(0 -0 -2.40275e-06)
(0 -0 -2.20515e-06)
(0 -0 -1.77936e-06)
(0 -0 -8.68787e-07)
(0 -0 7.2876e-05)
(0 -0 7.17397e-05)
(0 -0 6.92578e-05)
(0 -0 6.58201e-05)
(0 -0 6.18481e-05)
(0 -0 5.73412e-05)
(0 -0 5.232e-05)
(0 -0 4.69616e-05)
(0 -0 4.14529e-05)
(0 -0 3.59788e-05)
(0 -0 3.07095e-05)
(0 -0 2.57892e-05)
(0 -0 2.13283e-05)
(0 -0 1.73989e-05)
(0 -0 1.4035e-05)
(0 -0 1.12358e-05)
(0 -0 8.97141e-06)
(0 -0 7.19062e-06)
(0 -0 5.82879e-06)
(0 -0 4.81606e-06)
(0 -0 4.08452e-06)
(0 -0 3.57411e-06)
(0 -0 3.23641e-06)
(0 -0 3.03598e-06)
(0 -0 2.94887e-06)
(0 -0 2.95818e-06)
(0 -0 3.04744e-06)
(0 -0 3.19336e-06)
(0 -0 3.35979e-06)
(0 -0 3.49575e-06)
(0 -0 3.53931e-06)
(0 -0 3.42791e-06)
(0 -0 3.11347e-06)
(0 -0 2.57811e-06)
(0 -0 1.84544e-06)
(0 -0 9.82617e-07)
(0 -0 9.11766e-08)
(0 -0 -7.1175e-07)
(0 -0 -1.3168e-06)
(0 -0 -1.64358e-06)
(0 -0 -1.65427e-06)
(0 -0 -1.35177e-06)
(0 -0 -8.33399e-07)
(0 -0 1.62313e-07)
(0 -0 8.45958e-05)
(0 -0 8.23861e-05)
(0 -0 7.88038e-05)
(0 -0 7.42563e-05)
(0 -0 6.91834e-05)
(0 -0 6.36202e-05)
(0 -0 5.76183e-05)
(0 -0 5.13726e-05)
(0 -0 4.50807e-05)
(0 -0 3.89311e-05)
(0 -0 3.30918e-05)
(0 -0 2.77001e-05)
(0 -0 2.28564e-05)
(0 -0 1.86217e-05)
(0 -0 1.50178e-05)
(0 -0 1.20323e-05)
(0 -0 9.62437e-06)
(0 -0 7.73315e-06)
(0 -0 6.28565e-06)
(0 -0 5.20506e-06)
(0 -0 4.41779e-06)
(0 -0 3.85914e-06)
(0 -0 3.47698e-06)
(0 -0 3.23304e-06)
(0 -0 3.10134e-06)
(0 -0 3.06397e-06)
(0 -0 3.1048e-06)
(0 -0 3.20233e-06)
(0 -0 3.32381e-06)
(0 -0 3.42307e-06)
(0 -0 3.44389e-06)
(0 -0 3.32941e-06)
(0 -0 3.03626e-06)
(0 -0 2.54934e-06)
(0 -0 1.8924e-06)
(0 -0 1.13001e-06)
(0 -0 3.58693e-07)
(0 -0 -3.10983e-07)
(0 -0 -7.76741e-07)
(0 -0 -9.6477e-07)
(0 -0 -8.42621e-07)
(0 -0 -4.16904e-07)
(0 -0 2.12311e-07)
(0 -0 1.30875e-06)
(0 -0 9.63431e-05)
(0 -0 9.30591e-05)
(0 -0 8.83683e-05)
(0 -0 8.26994e-05)
(0 -0 7.65115e-05)
(0 -0 6.98758e-05)
(0 -0 6.28748e-05)
(0 -0 5.57222e-05)
(0 -0 4.86277e-05)
(0 -0 4.17845e-05)
(0 -0 3.53593e-05)
(0 -0 2.94833e-05)
(0 -0 2.42473e-05)
(0 -0 1.97006e-05)
(0 -0 1.58526e-05)
(0 -0 1.26788e-05)
(0 -0 1.0127e-05)
(0 -0 8.12614e-06)
(0 -0 6.59462e-06)
(0 -0 5.44846e-06)
(0 -0 4.60825e-06)
(0 -0 4.00465e-06)
(0 -0 3.58184e-06)
(0 -0 3.2987e-06)
(0 -0 3.1273e-06)
(0 -0 3.04876e-06)
(0 -0 3.04724e-06)
(0 -0 3.10295e-06)
(0 -0 3.18646e-06)
(0 -0 3.25632e-06)
(0 -0 3.26191e-06)
(0 -0 3.15213e-06)
(0 -0 2.88851e-06)
(0 -0 2.459e-06)
(0 -0 1.88794e-06)
(0 -0 1.23766e-06)
(0 -0 6.00019e-07)
(0 -0 7.91531e-08)
(0 -0 -2.29829e-07)
(0 -0 -2.60055e-07)
(0 -0 1.50134e-08)
(0 -0 5.84413e-07)
(0 -0 1.34481e-06)
(0 -0 2.56039e-06)
(0 -0 0.000107911)
(0 -0 0.000103557)
(0 -0 9.7758e-05)
(0 -0 9.09668e-05)
(0 -0 8.36637e-05)
(0 -0 7.59554e-05)
(0 -0 6.79551e-05)
(0 -0 5.98952e-05)
(0 -0 5.19971e-05)
(0 -0 4.44592e-05)
(0 -0 3.74471e-05)
(0 -0 3.10861e-05)
(0 -0 2.54577e-05)
(0 -0 2.05995e-05)
(0 -0 1.65087e-05)
(0 -0 1.31482e-05)
(0 -0 1.04543e-05)
(0 -0 8.3459e-06)
(0 -0 6.73263e-06)
(0 -0 5.52335e-06)
(0 -0 4.63291e-06)
(0 -0 3.98737e-06)
(0 -0 3.52735e-06)
(0 -0 3.20901e-06)
(0 -0 3.0025e-06)
(0 -0 2.88805e-06)
(0 -0 2.85008e-06)
(0 -0 2.87049e-06)
(0 -0 2.92306e-06)
(0 -0 2.97094e-06)
(0 -0 2.96906e-06)
(0 -0 2.87215e-06)
(0 -0 2.64679e-06)
(0 -0 2.28432e-06)
(0 -0 1.81002e-06)
(0 -0 1.28448e-06)
(0 -0 7.95177e-07)
(0 -0 4.39964e-07)
(0 -0 3.06656e-07)
(0 -0 4.54823e-07)
(0 -0 9.04526e-07)
(0 -0 1.63975e-06)
(0 -0 2.5533e-06)
(0 -0 3.90843e-06)
(0 -0 0.00011904)
(0 -0 0.000113632)
(0 -0 0.000106742)
(0 -0 9.88454e-05)
(0 -0 9.04461e-05)
(0 -0 8.16855e-05)
(0 -0 7.27065e-05)
(0 -0 6.37595e-05)
(0 -0 5.50767e-05)
(0 -0 4.68615e-05)
(0 -0 3.9278e-05)
(0 -0 3.24456e-05)
(0 -0 2.64364e-05)
(0 -0 2.12766e-05)
(0 -0 1.69512e-05)
(0 -0 1.34108e-05)
(0 -0 1.05805e-05)
(0 -0 8.36918e-06)
(0 -0 6.67806e-06)
(0 -0 5.40909e-06)
(0 -0 4.47162e-06)
(0 -0 3.78738e-06)
(0 -0 3.29362e-06)
(0 -0 2.94395e-06)
(0 -0 2.7068e-06)
(0 -0 2.56158e-06)
(0 -0 2.49299e-06)
(0 -0 2.4846e-06)
(0 -0 2.5133e-06)
(0 -0 2.54676e-06)
(0 -0 2.54544e-06)
(0 -0 2.46989e-06)
(0 -0 2.29194e-06)
(0 -0 2.00662e-06)
(0 -0 1.64063e-06)
(0 -0 1.25315e-06)
(0 -0 9.2766e-07)
(0 -0 7.5584e-07)
(0 -0 8.18099e-07)
(0 -0 1.16632e-06)
(0 -0 1.81351e-06)
(0 -0 2.73785e-06)
(0 -0 3.82763e-06)
(0 -0 5.34405e-06)
(0 -0 0.000129439)
(0 -0 0.000123013)
(0 -0 0.000115068)
(0 -0 0.000106107)
(0 -0 9.66539e-05)
(0 -0 8.68852e-05)
(0 -0 7.69716e-05)
(0 -0 6.71798e-05)
(0 -0 5.77526e-05)
(0 -0 4.88965e-05)
(0 -0 4.07741e-05)
(0 -0 3.34986e-05)
(0 -0 2.71326e-05)
(0 -0 2.16912e-05)
(0 -0 1.71473e-05)
(0 -0 1.34399e-05)
(0 -0 1.04833e-05)
(0 -0 8.17682e-06)
(0 -0 6.41389e-06)
(0 -0 5.09006e-06)
(0 -0 4.10959e-06)
(0 -0 3.39028e-06)
(0 -0 2.86639e-06)
(0 -0 2.48928e-06)
(0 -0 2.22585e-06)
(0 -0 2.05485e-06)
(0 -0 1.96135e-06)
(0 -0 1.93058e-06)
(0 -0 1.94249e-06)
(0 -0 1.96916e-06)
(0 -0 1.97654e-06)
(0 -0 1.93105e-06)
(0 -0 1.80993e-06)
(0 -0 1.61224e-06)
(0 -0 1.36644e-06)
(0 -0 1.13077e-06)
(0 -0 9.8499e-07)
(0 -0 1.01476e-06)
(0 -0 1.29298e-06)
(0 -0 1.86344e-06)
(0 -0 2.73147e-06)
(0 -0 3.86876e-06)
(0 -0 5.15839e-06)
(0 -0 6.85845e-06)
(0 -0 0.000138809)
(0 -0 0.00013142)
(0 -0 0.000122481)
(0 -0 0.000112521)
(0 -0 0.000102084)
(0 -0 9.13775e-05)
(0 -0 8.05981e-05)
(0 -0 7.00278e-05)
(0 -0 5.99175e-05)
(0 -0 5.04766e-05)
(0 -0 4.18649e-05)
(0 -0 3.41891e-05)
(0 -0 2.75026e-05)
(0 -0 2.18094e-05)
(0 -0 1.70711e-05)
(0 -0 1.32157e-05)
(0 -0 1.01474e-05)
(0 -0 7.75692e-06)
(0 -0 5.93059e-06)
(0 -0 4.55823e-06)
(0 -0 3.53971e-06)
(0 -0 2.78951e-06)
(0 -0 2.23932e-06)
(0 -0 1.83864e-06)
(0 -0 1.55317e-06)
(0 -0 1.3612e-06)
(0 -0 1.24832e-06)
(0 -0 1.2014e-06)
(0 -0 1.20342e-06)
(0 -0 1.23085e-06)
(0 -0 1.25505e-06)
(0 -0 1.24835e-06)
(0 -0 1.19357e-06)
(0 -0 1.09407e-06)
(0 -0 9.80436e-07)
(0 -0 9.10342e-07)
(0 -0 9.60167e-07)
(0 -0 1.20969e-06)
(0 -0 1.72412e-06)
(0 -0 2.53884e-06)
(0 -0 3.65093e-06)
(0 -0 5.02481e-06)
(0 -0 6.53768e-06)
(0 -0 8.44362e-06)
(0 -0 0.00014686)
(0 -0 0.000138585)
(0 -0 0.00012874)
(0 -0 0.000117873)
(0 -0 0.000106548)
(0 -0 9.50002e-05)
(0 -0 8.34493e-05)
(0 -0 7.21897e-05)
(0 -0 6.14791e-05)
(0 -0 5.15279e-05)
(0 -0 4.24928e-05)
(0 -0 3.44735e-05)
(0 -0 2.75141e-05)
(0 -0 2.16084e-05)
(0 -0 1.67072e-05)
(0 -0 1.27285e-05)
(0 -0 9.56756e-06)
(0 -0 7.10745e-06)
(0 -0 5.22834e-06)
(0 -0 3.81534e-06)
(0 -0 2.76473e-06)
(0 -0 1.98832e-06)
(0 -0 1.41586e-06)
(0 -0 9.9547e-07)
(0 -0 6.92042e-07)
(0 -0 4.83678e-07)
(0 -0 3.56607e-07)
(0 -0 2.99444e-07)
(0 -0 2.98207e-07)
(0 -0 3.33681e-07)
(0 -0 3.8262e-07)
(0 -0 4.23289e-07)
(0 -0 4.4421e-07)
(0 -0 4.53259e-07)
(0 -0 4.83495e-07)
(0 -0 5.92401e-07)
(0 -0 8.53236e-07)
(0 -0 1.34e-06)
(0 -0 2.11014e-06)
(0 -0 3.19025e-06)
(0 -0 4.56861e-06)
(0 -0 6.20173e-06)
(0 -0 7.96023e-06)
(0 -0 1.00934e-05)
(0 -0 0.00015333)
(0 -0 0.000144271)
(0 -0 0.000133628)
(0 -0 0.000121973)
(0 -0 0.000109883)
(0 -0 9.76161e-05)
(0 -0 8.5412e-05)
(0 -0 7.35744e-05)
(0 -0 6.23655e-05)
(0 -0 5.19958e-05)
(0 -0 4.26178e-05)
(0 -0 3.4324e-05)
(0 -0 2.71498e-05)
(0 -0 2.10792e-05)
(0 -0 1.60533e-05)
(0 -0 1.19812e-05)
(0 -0 8.75054e-06)
(0 -0 6.23802e-06)
(0 -0 4.31887e-06)
(0 -0 2.87452e-06)
(0 -0 1.79863e-06)
(0 -0 1.00119e-06)
(0 -0 4.1068e-07)
(0 -0 -2.55778e-08)
(0 -0 -3.43098e-07)
(0 -0 -5.63652e-07)
(0 -0 -7.00143e-07)
(0 -0 -7.62077e-07)
(0 -0 -7.60375e-07)
(0 -0 -7.09977e-07)
(0 -0 -6.28773e-07)
(0 -0 -5.32541e-07)
(0 -0 -4.26973e-07)
(0 -0 -2.99482e-07)
(0 -0 -1.14262e-07)
(0 -0 1.86266e-07)
(0 -0 6.72485e-07)
(0 -0 1.41271e-06)
(0 -0 2.45656e-06)
(0 -0 3.82152e-06)
(0 -0 5.48656e-06)
(0 -0 7.39968e-06)
(0 -0 9.42434e-06)
(0 -0 1.18043e-05)
(0 -0 0.000158005)
(0 -0 0.000148276)
(0 -0 0.000136969)
(0 -0 0.000124669)
(0 -0 0.000111961)
(0 -0 9.91218e-05)
(0 -0 8.64043e-05)
(0 -0 7.41192e-05)
(0 -0 6.2531e-05)
(0 -0 5.1849e-05)
(0 -0 4.22209e-05)
(0 -0 3.37322e-05)
(0 -0 2.64097e-05)
(0 -0 2.02285e-05)
(0 -0 1.51216e-05)
(0 -0 1.09903e-05)
(0 -0 7.71603e-06)
(0 -0 5.17073e-06)
(0 -0 3.22598e-06)
(0 -0 1.76076e-06)
(0 -0 6.67192e-07)
(0 -0 -1.45676e-07)
(0 -0 -7.49859e-07)
(0 -0 -1.19826e-06)
(0 -0 -1.5263e-06)
(0 -0 -1.75524e-06)
(0 -0 -1.89686e-06)
(0 -0 -1.95863e-06)
(0 -0 -1.94839e-06)
(0 -0 -1.87677e-06)
(0 -0 -1.75633e-06)
(0 -0 -1.5969e-06)
(0 -0 -1.39837e-06)
(0 -0 -1.14331e-06)
(0 -0 -7.92952e-07)
(0 -0 -2.89405e-07)
(0 -0 4.35026e-07)
(0 -0 1.44307e-06)
(0 -0 2.77642e-06)
(0 -0 4.44321e-06)
(0 -0 6.4127e-06)
(0 -0 8.62385e-06)
(0 -0 1.09324e-05)
(0 -0 1.35763e-05)
(0 -0 0.000160728)
(0 -0 0.000150449)
(0 -0 0.000138629)
(0 -0 0.000125852)
(0 -0 0.000112699)
(0 -0 9.94546e-05)
(0 -0 8.63811e-05)
(0 -0 7.37936e-05)
(0 -0 6.19581e-05)
(0 -0 5.10811e-05)
(0 -0 4.13051e-05)
(0 -0 3.27087e-05)
(0 -0 2.53108e-05)
(0 -0 1.90788e-05)
(0 -0 1.39384e-05)
(0 -0 9.78526e-06)
(0 -0 6.4961e-06)
(0 -0 3.93947e-06)
(0 -0 1.98491e-06)
(0 -0 5.1027e-07)
(0 -0 -5.92765e-07)
(0 -0 -1.41513e-06)
(0 -0 -2.02855e-06)
(0 -0 -2.48549e-06)
(0 -0 -2.82075e-06)
(0 -0 -3.05472e-06)
(0 -0 -3.19772e-06)
(0 -0 -3.25504e-06)
(0 -0 -3.2313e-06)
(0 -0 -3.13283e-06)
(0 -0 -2.96686e-06)
(0 -0 -2.73736e-06)
(0 -0 -2.43839e-06)
(0 -0 -2.04762e-06)
(0 -0 -1.52325e-06)
(0 -0 -8.06891e-07)
(0 -0 1.66571e-07)
(0 -0 1.45435e-06)
(0 -0 3.09014e-06)
(0 -0 5.07254e-06)
(0 -0 7.36079e-06)
(0 -0 9.88443e-06)
(0 -0 1.24911e-05)
(0 -0 1.54129e-05)
(0 -0 0.000161363)
(0 -0 0.000150732)
(0 -0 0.000138522)
(0 -0 0.000125472)
(0 -0 0.000112066)
(0 -0 9.8596e-05)
(0 -0 8.53343e-05)
(0 -0 7.25992e-05)
(0 -0 6.06563e-05)
(0 -0 4.97089e-05)
(0 -0 3.98936e-05)
(0 -0 3.12819e-05)
(0 -0 2.38857e-05)
(0 -0 1.76658e-05)
(0 -0 1.25424e-05)
(0 -0 8.40691e-06)
(0 -0 5.1331e-06)
(0 -0 2.58794e-06)
(0 -0 6.4037e-07)
(0 -0 -8.31517e-07)
(0 -0 -1.93531e-06)
(0 -0 -2.76096e-06)
(0 -0 -3.37906e-06)
(0 -0 -3.841e-06)
(0 -0 -4.18047e-06)
(0 -0 -4.41649e-06)
(0 -0 -4.55767e-06)
(0 -0 -4.60687e-06)
(0 -0 -4.56537e-06)
(0 -0 -4.43514e-06)
(0 -0 -4.21817e-06)
(0 -0 -3.91258e-06)
(0 -0 -3.50669e-06)
(0 -0 -2.9733e-06)
(0 -0 -2.26753e-06)
(0 -0 -1.33052e-06)
(0 -0 -9.96375e-08)
(0 -0 1.47683e-06)
(0 -0 3.42456e-06)
(0 -0 5.7325e-06)
(0 -0 8.3497e-06)
(0 -0 1.1196e-05)
(0 -0 1.41107e-05)
(0 -0 1.73207e-05)
(0 -0 0.000159987)
(0 -0 0.000149024)
(0 -0 0.000136703)
(0 -0 0.000123555)
(0 -0 0.000110092)
(0 -0 9.65751e-05)
(0 -0 8.3294e-05)
(0 -0 7.05686e-05)
(0 -0 5.86621e-05)
(0 -0 4.77723e-05)
(0 -0 3.80292e-05)
(0 -0 2.94973e-05)
(0 -0 2.21822e-05)
(0 -0 1.60391e-05)
(0 -0 1.09845e-05)
(0 -0 6.90715e-06)
(0 -0 3.67988e-06)
(0 -0 1.1697e-06)
(0 -0 -7.53487e-07)
(0 -0 -2.20999e-06)
(0 -0 -3.30552e-06)
(0 -0 -4.12802e-06)
(0 -0 -4.74625e-06)
(0 -0 -5.20984e-06)
(0 -0 -5.5508e-06)
(0 -0 -5.7864e-06)
(0 -0 -5.92317e-06)
(0 -0 -5.9613e-06)
(0 -0 -5.89861e-06)
(0 -0 -5.73264e-06)
(0 -0 -5.46016e-06)
(0 -0 -5.07356e-06)
(0 -0 -4.55549e-06)
(0 -0 -3.87404e-06)
(0 -0 -2.98137e-06)
(0 -0 -1.81817e-06)
(0 -0 -3.24346e-07)
(0 -0 1.54632e-06)
(0 -0 3.81152e-06)
(0 -0 6.4505e-06)
(0 -0 9.4021e-06)
(0 -0 1.25764e-05)
(0 -0 1.5804e-05)
(0 -0 1.93087e-05)
(0 -0 -0.00062601)
(0 -0 -0.00060938)
(0 -0 -0.000587366)
(0 -0 -0.000561296)
(0 -0 -0.00053224)
(0 -0 -0.000500351)
(0 -0 -0.000466665)
(0 -0 -0.000432143)
(0 -0 -0.000397663)
(0 -0 -0.000363991)
(0 -0 -0.000331744)
(0 -0 -0.000301362)
(0 -0 -0.000273094)
(0 -0 -0.000247003)
(0 -0 -0.000222991)
(0 -0 -0.000200839)
(0 -0 -0.000180256)
(0 -0 -0.000160929)
(0 -0 -0.000142574)
(0 -0 -0.000124973)
(0 -0 -0.000107993)
(0 -0 -9.15997e-05)
(0 -0 -7.58447e-05)
(0 -0 -6.08448e-05)
(0 -0 -4.67491e-05)
(0 -0 -3.36516e-05)
(0 -0 -2.18328e-05)
(0 -0 -0.000438444)
(0 -0 -0.00042729)
(0 -0 -0.000412341)
(0 -0 -0.000394559)
(0 -0 -0.000374064)
(0 -0 -0.00035108)
(0 -0 -0.000326575)
(0 -0 -0.00030141)
(0 -0 -0.000276346)
(0 -0 -0.000252031)
(0 -0 -0.000228971)
(0 -0 -0.000207508)
(0 -0 -0.000187808)
(0 -0 -0.000169869)
(0 -0 -0.000153548)
(0 -0 -0.000138597)
(0 -0 -0.000124708)
(0 -0 -0.00011157)
(0 -0 -9.89057e-05)
(0 -0 -8.65116e-05)
(0 -0 -7.4276e-05)
(0 -0 -6.21858e-05)
(0 -0 -5.03172e-05)
(0 -0 -3.88122e-05)
(0 -0 -2.78419e-05)
(0 -0 -1.75898e-05)
(0 -0 -8.23313e-06)
(0 -0 -0.000309118)
(0 -0 -0.00030021)
(0 -0 -0.000287399)
(0 -0 -0.000273786)
(0 -0 -0.000258468)
(0 -0 -0.000241303)
(0 -0 -0.000222995)
(0 -0 -0.000204228)
(0 -0 -0.000185628)
(0 -0 -0.000167738)
(0 -0 -0.000150974)
(0 -0 -0.000135604)
(0 -0 -0.000121741)
(0 -0 -0.000109344)
(0 -0 -9.82443e-05)
(0 -0 -8.81853e-05)
(0 -0 -7.8863e-05)
(0 -0 -6.99747e-05)
(0 -0 -6.12602e-05)
(0 -0 -5.25333e-05)
(0 -0 -4.37009e-05)
(0 -0 -3.4767e-05)
(0 -0 -2.58225e-05)
(0 -0 -1.70223e-05)
(0 -0 -8.55005e-06)
(0 -0 -5.92973e-07)
(0 -0 6.63299e-06)
(0 -0 -0.000220186)
(0 -0 -0.000211817)
(0 -0 -0.000200642)
(0 -0 -0.00018939)
(0 -0 -0.000177321)
(0 -0 -0.000163948)
(0 -0 -0.000149742)
(0 -0 -0.00013522)
(0 -0 -0.000120895)
(0 -0 -0.000107218)
(0 -0 -9.45385e-05)
(0 -0 -8.30774e-05)
(0 -0 -7.29136e-05)
(0 -0 -6.39909e-05)
(0 -0 -5.61398e-05)
(0 -0 -4.91123e-05)
(0 -0 -4.26231e-05)
(0 -0 -3.63927e-05)
(0 -0 -3.01855e-05)
(0 -0 -2.38384e-05)
(0 -0 -1.72779e-05)
(0 -0 -1.05221e-05)
(0 -0 -3.67053e-06)
(0 -0 3.11853e-06)
(0 -0 9.66128e-06)
(0 -0 1.57757e-05)
(0 -0 2.1257e-05)
(0 -0 -0.000158699)
(0 -0 -0.000151829)
(0 -0 -0.000142784)
(0 -0 -0.000133645)
(0 -0 -0.000123921)
(0 -0 -0.000113108)
(0 -0 -0.000101583)
(0 -0 -8.97717e-05)
(0 -0 -7.81074e-05)
(0 -0 -6.69802e-05)
(0 -0 -5.66965e-05)
(0 -0 -4.74497e-05)
(0 -0 -3.93087e-05)
(0 -0 -3.22224e-05)
(0 -0 -2.60394e-05)
(0 -0 -2.05397e-05)
(0 -0 -1.54719e-05)
(0 -0 -1.05924e-05)
(0 -0 -5.69985e-06)
(0 -0 -6.60388e-07)
(0 -0 4.57797e-06)
(0 -0 9.98391e-06)
(0 -0 1.54534e-05)
(0 -0 2.08316e-05)
(0 -0 2.59439e-05)
(0 -0 3.06227e-05)
(0 -0 3.46836e-05)
(0 -0 -0.000118235)
(0 -0 -0.000113563)
(0 -0 -0.000106459)
(0 -0 -9.91046e-05)
(0 -0 -9.11155e-05)
(0 -0 -8.20375e-05)
(0 -0 -7.22121e-05)
(0 -0 -6.20174e-05)
(0 -0 -5.18391e-05)
(0 -0 -4.20304e-05)
(0 -0 -3.28741e-05)
(0 -0 -2.45568e-05)
(0 -0 -1.71563e-05)
(0 -0 -1.06455e-05)
(0 -0 -4.90918e-06)
(0 -0 2.28491e-07)
(0 -0 4.97051e-06)
(0 -0 9.51268e-06)
(0 -0 1.40135e-05)
(0 -0 1.8572e-05)
(0 -0 2.32161e-05)
(0 -0 2.79016e-05)
(0 -0 3.25236e-05)
(0 -0 3.69362e-05)
(0 -0 4.09818e-05)
(0 -0 4.45153e-05)
(0 -0 4.738e-05)
(0 -0 -9.44932e-05)
(0 -0 -9.13484e-05)
(0 -0 -8.57738e-05)
(0 -0 -7.97983e-05)
(0 -0 -7.30584e-05)
(0 -0 -6.51231e-05)
(0 -0 -5.63049e-05)
(0 -0 -4.69478e-05)
(0 -0 -3.74067e-05)
(0 -0 -2.80132e-05)
(0 -0 -1.90433e-05)
(0 -0 -1.0693e-05)
(0 -0 -3.06589e-06)
(0 -0 3.8246e-06)
(0 -0 1.00419e-05)
(0 -0 1.5703e-05)
(0 -0 2.09499e-05)
(0 -0 2.59203e-05)
(0 -0 3.0722e-05)
(0 -0 3.54144e-05)
(0 -0 3.99989e-05)
(0 -0 4.44194e-05)
(0 -0 4.85725e-05)
(0 -0 5.23264e-05)
(0 -0 5.5547e-05)
(0 -0 5.81194e-05)
(0 -0 5.99223e-05)
(0 -0 -8.26771e-05)
(0 -0 -8.07105e-05)
(0 -0 -7.63405e-05)
(0 -0 -7.14216e-05)
(0 -0 -6.55722e-05)
(0 -0 -5.836e-05)
(0 -0 -5.00613e-05)
(0 -0 -4.09881e-05)
(0 -0 -3.14715e-05)
(0 -0 -2.18326e-05)
(0 -0 -1.23529e-05)
(0 -0 -3.25113e-06)
(0 -0 5.32888e-06)
(0 -0 1.33193e-05)
(0 -0 2.07181e-05)
(0 -0 2.75711e-05)
(0 -0 3.39483e-05)
(0 -0 3.99209e-05)
(0 -0 4.55394e-05)
(0 -0 5.08193e-05)
(0 -0 5.57339e-05)
(0 -0 6.02156e-05)
(0 -0 6.41652e-05)
(0 -0 6.74693e-05)
(0 -0 7.0023e-05)
(0 -0 7.17478e-05)
(0 -0 7.2565e-05)
(0 -0 -7.92082e-05)
(0 -0 -7.82723e-05)
(0 -0 -7.49242e-05)
(0 -0 -7.08567e-05)
(0 -0 -6.56578e-05)
(0 -0 -5.88813e-05)
(0 -0 -5.07618e-05)
(0 -0 -4.15797e-05)
(0 -0 -3.16471e-05)
(0 -0 -2.12821e-05)
(0 -0 -1.07813e-05)
(0 -0 -3.97438e-07)
(0 -0 9.67432e-06)
(0 -0 1.92999e-05)
(0 -0 2.84009e-05)
(0 -0 3.69415e-05)
(0 -0 4.49116e-05)
(0 -0 5.23082e-05)
(0 -0 5.91198e-05)
(0 -0 6.53149e-05)
(0 -0 7.08377e-05)
(0 -0 7.56097e-05)
(0 -0 7.95385e-05)
(0 -0 8.25325e-05)
(0 -0 8.45205e-05)
(0 -0 8.54662e-05)
(0 -0 8.53389e-05)
(0 -0 -8.1531e-05)
(0 -0 -8.15793e-05)
(0 -0 -7.91648e-05)
(0 -0 -7.58297e-05)
(0 -0 -7.11282e-05)
(0 -0 -6.45937e-05)
(0 -0 -5.6418e-05)
(0 -0 -4.68507e-05)
(0 -0 -3.61891e-05)
(0 -0 -2.47541e-05)
(0 -0 -1.28651e-05)
(0 -0 -8.17033e-07)
(0 -0 1.11342e-05)
(0 -0 2.27794e-05)
(0 -0 3.39551e-05)
(0 -0 4.45366e-05)
(0 -0 5.44268e-05)
(0 -0 6.35439e-05)
(0 -0 7.18107e-05)
(0 -0 7.91469e-05)
(0 -0 8.54673e-05)
(0 -0 9.06835e-05)
(0 -0 9.47119e-05)
(0 -0 9.7486e-05)
(0 -0 9.89719e-05)
(0 -0 9.91795e-05)
(0 -0 9.81308e-05)
(0 -0 -8.7823e-05)
(0 -0 -8.88468e-05)
(0 -0 -8.73226e-05)
(0 -0 -8.46502e-05)
(0 -0 -8.03473e-05)
(0 -0 -7.39249e-05)
(0 -0 -6.5532e-05)
(0 -0 -5.539e-05)
(0 -0 -4.37841e-05)
(0 -0 -3.10435e-05)
(0 -0 -1.75156e-05)
(0 -0 -3.54451e-06)
(0 -0 1.05469e-05)
(0 -0 2.44679e-05)
(0 -0 3.79642e-05)
(0 -0 5.08169e-05)
(0 -0 6.28382e-05)
(0 -0 7.38646e-05)
(0 -0 8.37515e-05)
(0 -0 9.23694e-05)
(0 -0 9.96039e-05)
(0 -0 0.000105358)
(0 -0 0.000109559)
(0 -0 0.000112168)
(0 -0 0.000113191)
(0 -0 0.000112687)
(0 -0 0.000110733)
(0 -0 -9.6746e-05)
(0 -0 -9.87412e-05)
(0 -0 -9.80785e-05)
(0 -0 -9.60212e-05)
(0 -0 -9.20504e-05)
(0 -0 -8.56528e-05)
(0 -0 -7.69366e-05)
(0 -0 -6.60969e-05)
(0 -0 -5.34107e-05)
(0 -0 -3.92185e-05)
(0 -0 -2.39006e-05)
(0 -0 -7.85416e-06)
(0 -0 8.5268e-06)
(0 -0 2.48662e-05)
(0 -0 4.08159e-05)
(0 -0 5.60609e-05)
(0 -0 7.03209e-05)
(0 -0 8.33503e-05)
(0 -0 9.49372e-05)
(0 -0 0.000104904)
(0 -0 0.000113107)
(0 -0 0.000119444)
(0 -0 0.000123854)
(0 -0 0.000126327)
(0 -0 0.000126912)
(0 -0 0.000125718)
(0 -0 0.000122879)
(0 -0 -0.000107275)
(0 -0 -0.000110225)
(0 -0 -0.000110393)
(0 -0 -0.00010891)
(0 -0 -0.000105223)
(0 -0 -9.87921e-05)
(0 -0 -8.96885e-05)
(0 -0 -7.80831e-05)
(0 -0 -6.42475e-05)
(0 -0 -4.85363e-05)
(0 -0 -3.13653e-05)
(0 -0 -1.31869e-05)
(0 -0 5.532e-06)
(0 -0 2.43291e-05)
(0 -0 4.27622e-05)
(0 -0 6.04207e-05)
(0 -0 7.69331e-05)
(0 -0 9.19732e-05)
(0 -0 0.000105264)
(0 -0 0.000116581)
(0 -0 0.000125756)
(0 -0 0.000132679)
(0 -0 0.000137306)
(0 -0 0.000139655)
(0 -0 0.000139819)
(0 -0 0.000137958)
(0 -0 0.000134262)
(0 -0 -0.000118588)
(0 -0 -0.000122458)
(0 -0 -0.000123413)
(0 -0 -0.000122464)
(0 -0 -0.00011902)
(0 -0 -0.00011252)
(0 -0 -0.000103)
(0 -0 -9.06078e-05)
(0 -0 -7.56129e-05)
(0 -0 -5.8386e-05)
(0 -0 -3.93791e-05)
(0 -0 -1.91e-05)
(0 -0 1.91205e-06)
(0 -0 2.31106e-05)
(0 -0 4.39622e-05)
(0 -0 6.39635e-05)
(0 -0 8.26559e-05)
(0 -0 9.96363e-05)
(0 -0 0.000114566)
(0 -0 0.000127178)
(0 -0 0.00013728)
(0 -0 0.000144761)
(0 -0 0.00014959)
(0 -0 0.000151817)
(0 -0 0.000151576)
(0 -0 0.000149076)
(0 -0 0.000144564)
(0 -0 -0.000130002)
(0 -0 -0.000134731)
(0 -0 -0.000136416)
(0 -0 -0.000135954)
(0 -0 -0.00013272)
(0 -0 -0.000126133)
(0 -0 -0.000116195)
(0 -0 -0.000103037)
(0 -0 -8.69273e-05)
(0 -0 -6.82525e-05)
(0 -0 -4.75007e-05)
(0 -0 -2.52336e-05)
(0 -0 -2.05874e-06)
(0 -0 2.13973e-05)
(0 -0 4.45148e-05)
(0 -0 6.67043e-05)
(0 -0 8.74258e-05)
(0 -0 0.000106206)
(0 -0 0.000122649)
(0 -0 0.00013645)
(0 -0 0.000147397)
(0 -0 0.000155378)
(0 -0 0.000160376)
(0 -0 0.000162474)
(0 -0 0.000161845)
(0 -0 0.000158747)
(0 -0 0.000153477)
(0 -0 -0.000140931)
(0 -0 -0.000146437)
(0 -0 -0.000148779)
(0 -0 -0.00014875)
(0 -0 -0.000145695)
(0 -0 -0.000139017)
(0 -0 -0.000128687)
(0 -0 -0.000114823)
(0 -0 -9.76905e-05)
(0 -0 -7.76947e-05)
(0 -0 -5.53566e-05)
(0 -0 -3.12875e-05)
(0 -0 -6.15832e-06)
(0 -0 1.93314e-05)
(0 -0 4.44838e-05)
(0 -0 6.86314e-05)
(0 -0 9.11614e-05)
(0 -0 0.000111537)
(0 -0 0.000129315)
(0 -0 0.000144155)
(0 -0 0.000155831)
(0 -0 0.000164231)
(0 -0 0.000169356)
(0 -0 0.000171315)
(0 -0 0.000170321)
(0 -0 0.000166674)
(0 -0 0.000160719)
(0 -0 -0.000150868)
(0 -0 -0.000157046)
(0 -0 -0.000159959)
(0 -0 -0.000160303)
(0 -0 -0.000157401)
(0 -0 -0.00015064)
(0 -0 -0.000139968)
(0 -0 -0.00012549)
(0 -0 -0.000107472)
(0 -0 -8.63343e-05)
(0 -0 -6.26281e-05)
(0 -0 -3.70084e-05)
(0 -0 -1.02019e-05)
(0 -0 1.70281e-05)
(0 -0 4.39159e-05)
(0 -0 6.97264e-05)
(0 -0 9.37845e-05)
(0 -0 0.0001155)
(0 -0 0.000134388)
(0 -0 0.000150083)
(0 -0 0.000162345)
(0 -0 0.000171067)
(0 -0 0.000176264)
(0 -0 0.000178074)
(0 -0 0.000176743)
(0 -0 0.000172609)
(0 -0 0.000166057)
(0 -0 -0.000159377)
(0 -0 -0.000166105)
(0 -0 -0.000169492)
(0 -0 -0.000170147)
(0 -0 -0.000167374)
(0 -0 -0.000160551)
(0 -0 -0.000149608)
(0 -0 -0.000134638)
(0 -0 -0.000115909)
(0 -0 -9.38539e-05)
(0 -0 -6.90482e-05)
(0 -0 -4.21842e-05)
(0 -0 -1.40344e-05)
(0 -0 1.4585e-05)
(0 -0 4.28526e-05)
(0 -0 6.9978e-05)
(0 -0 9.52356e-05)
(0 -0 0.000117993)
(0 -0 0.000137732)
(0 -0 0.000154068)
(0 -0 0.000166754)
(0 -0 0.000175687)
(0 -0 0.000180898)
(0 -0 0.000182549)
(0 -0 0.000180915)
(0 -0 0.000176365)
(0 -0 0.000169318)
(0 -0 -0.000166098)
(0 -0 -0.000173242)
(0 -0 -0.000177009)
(0 -0 -0.000177911)
(0 -0 -0.000175247)
(0 -0 -0.000168395)
(0 -0 -0.000157268)
(0 -0 -0.000141953)
(0 -0 -0.000122718)
(0 -0 -0.000100004)
(0 -0 -7.44068e-05)
(0 -0 -4.6647e-05)
(0 -0 -1.75317e-05)
(0 -0 1.20827e-05)
(0 -0 4.13323e-05)
(0 -0 6.93857e-05)
(0 -0 9.54793e-05)
(0 -0 0.00011895)
(0 -0 0.000139257)
(0 -0 0.000156002)
(0 -0 0.000168937)
(0 -0 0.000177964)
(0 -0 0.000183129)
(0 -0 0.000184614)
(0 -0 0.000182715)
(0 -0 0.000177827)
(0 -0 0.000170412)
(0 -0 -0.000170835)
(0 -0 -0.0001782)
(0 -0 -0.000182254)
(0 -0 -0.000183333)
(0 -0 -0.000180762)
(0 -0 -0.000173919)
(0 -0 -0.00016271)
(0 -0 -0.000147213)
(0 -0 -0.000127697)
(0 -0 -0.000104609)
(0 -0 -7.85571e-05)
(0 -0 -5.02784e-05)
(0 -0 -2.06041e-05)
(0 -0 9.58301e-06)
(0 -0 3.93912e-05)
(0 -0 6.79618e-05)
(0 -0 9.45077e-05)
(0 -0 0.000118346)
(0 -0 0.000138925)
(0 -0 0.000155839)
(0 -0 0.000168842)
(0 -0 0.000177843)
(0 -0 0.000182902)
(0 -0 0.000184217)
(0 -0 0.0001821)
(0 -0 0.000176973)
(0 -0 0.00016925)
(0 -0 -0.000173519)
(0 -0 -0.000180966)
(0 -0 -0.000185088)
(0 -0 -0.00018626)
(0 -0 -0.000183746)
(0 -0 -0.000176941)
(0 -0 -0.000165743)
(0 -0 -0.000150226)
(0 -0 -0.000130654)
(0 -0 -0.000107478)
(0 -0 -8.13074e-05)
(0 -0 -5.28895e-05)
(0 -0 -2.30653e-05)
(0 -0 7.27024e-06)
(0 -0 3.72125e-05)
(0 -0 6.58905e-05)
(0 -0 9.25073e-05)
(0 -0 0.000116373)
(0 -0 0.000136933)
(0 -0 0.000153783)
(0 -0 0.000166682)
(0 -0 0.000175547)
(0 -0 0.00018045)
(0 -0 0.000181599)
(0 -0 0.000179321)
(0 -0 0.000174026)
(0 -0 0.000166201)
(0 -0 -0.000173893)
(0 -0 -0.000181375)
(0 -0 -0.000185461)
(0 -0 -0.000186659)
(0 -0 -0.000184207)
(0 -0 -0.000177506)
(0 -0 -0.000166446)
(0 -0 -0.000151097)
(0 -0 -0.000131717)
(0 -0 -0.000108753)
(0 -0 -8.28128e-05)
(0 -0 -5.46395e-05)
(0 -0 -2.50734e-05)
(0 -0 4.99164e-06)
(0 -0 3.4652e-05)
(0 -0 6.30386e-05)
(0 -0 8.9357e-05)
(0 -0 0.000112922)
(0 -0 0.000133183)
(0 -0 0.000149745)
(0 -0 0.000162374)
(0 -0 0.000170997)
(0 -0 0.000175695)
(0 -0 0.000176683)
(0 -0 0.000174291)
(0 -0 0.000168942)
(0 -0 0.000161078)
(0 -0 -0.000171964)
(0 -0 -0.000179335)
(0 -0 -0.000183353)
(0 -0 -0.000184527)
(0 -0 -0.000182136)
(0 -0 -0.000175594)
(0 -0 -0.000164786)
(0 -0 -0.000149776)
(0 -0 -0.00013082)
(0 -0 -0.000108352)
(0 -0 -8.29714e-05)
(0 -0 -5.54082e-05)
(0 -0 -2.64894e-05)
(0 -0 2.90492e-06)
(0 -0 3.1886e-05)
(0 -0 5.95996e-05)
(0 -0 8.5266e-05)
(0 -0 0.000108215)
(0 -0 0.00012791)
(0 -0 0.000143969)
(0 -0 0.000156169)
(0 -0 0.000164448)
(0 -0 0.000168892)
(0 -0 0.000169722)
(0 -0 0.000167268)
(0 -0 0.000161942)
(0 -0 0.000154184)
(0 -0 -0.000167658)
(0 -0 -0.00017481)
(0 -0 -0.000178701)
(0 -0 -0.000179819)
(0 -0 -0.0001775)
(0 -0 -0.000171176)
(0 -0 -0.000160736)
(0 -0 -0.000146241)
(0 -0 -0.000127937)
(0 -0 -0.000106247)
(0 -0 -8.1749e-05)
(0 -0 -5.51537e-05)
(0 -0 -2.72623e-05)
(0 -0 1.07209e-06)
(0 -0 2.89884e-05)
(0 -0 5.56601e-05)
(0 -0 8.03343e-05)
(0 -0 0.000102365)
(0 -0 0.000121238)
(0 -0 0.00013659)
(0 -0 0.000148213)
(0 -0 0.000156052)
(0 -0 0.000160201)
(0 -0 0.000160878)
(0 -0 0.000158409)
(0 -0 0.000153196)
(0 -0 0.00014567)
(0 -0 -0.000161088)
(0 -0 -0.000167902)
(0 -0 -0.000171592)
(0 -0 -0.000172622)
(0 -0 -0.000170387)
(0 -0 -0.000164342)
(0 -0 -0.000154382)
(0 -0 -0.000140569)
(0 -0 -0.000123136)
(0 -0 -0.000102488)
(0 -0 -7.91789e-05)
(0 -0 -5.38873e-05)
(0 -0 -2.73783e-05)
(0 -0 -4.66381e-07)
(0 -0 2.60275e-05)
(0 -0 5.13164e-05)
(0 -0 7.46848e-05)
(0 -0 9.55207e-05)
(0 -0 0.000113339)
(0 -0 0.000127799)
(0 -0 0.00013871)
(0 -0 0.000146026)
(0 -0 0.000149844)
(0 -0 0.000150378)
(0 -0 0.000147943)