/*--------------------------------*- C++ -*----------------------------------*\
| =========                 |                                                 |
| \\      /  F ield         | OpenFOAM: The Open Source CFD Toolbox           |
|  \\    /   O peration     | Version:  2412                                  |
|   \\  /    A nd           | Website:  www.openfoam.com                      |
|    \\/     M anipulation  |                                                 |
\*---------------------------------------------------------------------------*/
FoamFile
{
    version     2.0;
    format      ascii;
    arch        "LSB;label=32;scalar=64";
    class       volScalarField;
    location    "9";
    object      p;
}
// * * * * * * * * * * * * * * * * * * * * * * * * * * * * * * * * * * * * * //

dimensions      [0 2 -2 0 0 0 0];

internalField   nonuniform List<scalar> 
63420
(
0.00102787
0.00102839
0.00102902
0.00103041
0.00103212
0.00103425
0.00103678
0.00103968
0.00104294
0.00104656
0.00105054
0.00105487
0.00105954
0.00106455
0.00106991
0.00107559
0.00108161
0.00108796
0.00109464
0.00110165
0.00110899
0.00111666
0.00112466
0.00113299
0.00114165
0.00115065
0.00115999
0.00116966
0.00117968
0.00119005
0.00120076
0.00121183
0.00122325
0.00123503
0.00124717
0.00125968
0.00127256
0.00128582
0.00129945
0.00131347
0.00132788
0.00134268
0.00135788
0.00137348
0.00138948
0.0014059
0.00142274
0.00143999
0.00145768
0.00147579
0.00149435
0.00151334
0.00153279
0.00155269
0.00157305
0.00102782
0.00102833
0.00102896
0.00103035
0.00103205
0.00103418
0.00103672
0.00103961
0.00104287
0.00104649
0.00105046
0.00105479
0.00105946
0.00106447
0.00106982
0.0010755
0.00108151
0.00108786
0.00109453
0.00110153
0.00110887
0.00111653
0.00112452
0.00113284
0.0011415
0.00115048
0.00115981
0.00116948
0.00117949
0.00118984
0.00120054
0.00121159
0.001223
0.00123476
0.00124689
0.00125938
0.00127224
0.00128548
0.00129909
0.00131309
0.00132748
0.00134225
0.00135742
0.001373
0.00138897
0.00140536
0.00142216
0.00143939
0.00145703
0.00147511
0.00149362
0.00151257
0.00153197
0.00155182
0.00157212
0.0010277
0.00102821
0.00102884
0.00103023
0.00103193
0.00103405
0.00103658
0.00103947
0.00104273
0.00104634
0.00105031
0.00105463
0.00105929
0.00106429
0.00106963
0.00107531
0.00108131
0.00108764
0.00109431
0.0011013
0.00110862
0.00111626
0.00112424
0.00113254
0.00114118
0.00115015
0.00115946
0.0011691
0.00117909
0.00118942
0.00120009
0.00121112
0.0012225
0.00123423
0.00124633
0.00125878
0.00127161
0.00128481
0.00129838
0.00131233
0.00132667
0.0013414
0.00135652
0.00137204
0.00138795
0.00140428
0.00142102
0.00143817
0.00145574
0.00147374
0.00149217
0.00151103
0.00153034
0.00155008
0.00157028
0.00102752
0.00102804
0.00102865
0.00103004
0.00103174
0.00103386
0.00103638
0.00103927
0.00104252
0.00104612
0.00105008
0.00105439
0.00105904
0.00106403
0.00106936
0.00107502
0.00108101
0.00108733
0.00109397
0.00110094
0.00110824
0.00111587
0.00112382
0.0011321
0.00114071
0.00114965
0.00115893
0.00116854
0.0011785
0.00118879
0.00119943
0.00121041
0.00122175
0.00123344
0.00124548
0.00125789
0.00127066
0.0012838
0.00129731
0.0013112
0.00132547
0.00134012
0.00135516
0.0013706
0.00138643
0.00140266
0.0014193
0.00143635
0.00145381
0.0014717
0.00149
0.00150873
0.00152789
0.00154749
0.00156753
0.00102729
0.0010278
0.00102841
0.0010298
0.00103149
0.0010336
0.00103612
0.00103899
0.00104223
0.00104583
0.00104978
0.00105407
0.00105871
0.00106369
0.001069
0.00107464
0.00108061
0.0010869
0.00109352
0.00110047
0.00110774
0.00111534
0.00112326
0.00113151
0.00114009
0.00114899
0.00115823
0.0011678
0.00117771
0.00118795
0.00119854
0.00120947
0.00122075
0.00123238
0.00124436
0.0012567
0.0012694
0.00128246
0.00129589
0.00130969
0.00132387
0.00133843
0.00135337
0.00136869
0.00138441
0.00140052
0.00141703
0.00143394
0.00145125
0.00146898
0.00148712
0.00150568
0.00152466
0.00154406
0.00156388
0.001027
0.0010275
0.00102811
0.00102949
0.00103117
0.00103328
0.00103579
0.00103865
0.00104188
0.00104546
0.0010494
0.00105368
0.0010583
0.00106325
0.00106854
0.00107416
0.0010801
0.00108637
0.00109296
0.00109988
0.00110712
0.00111468
0.00112256
0.00113077
0.0011393
0.00114816
0.00115735
0.00116687
0.00117672
0.00118691
0.00119744
0.0012083
0.00121951
0.00123106
0.00124296
0.00125522
0.00126783
0.00128079
0.00129412
0.00130782
0.00132188
0.00133632
0.00135113
0.00136632
0.00138189
0.00139785
0.0014142
0.00143094
0.00144807
0.00146561
0.00148354
0.00150189
0.00152063
0.00153979
0.00155936
0.00102664
0.00102715
0.00102775
0.00102912
0.0010308
0.00103289
0.00103539
0.00103824
0.00104146
0.00104503
0.00104894
0.0010532
0.0010578
0.00106273
0.001068
0.00107359
0.0010795
0.00108574
0.00109229
0.00109917
0.00110637
0.00111389
0.00112173
0.00112989
0.00113837
0.00114718
0.00115631
0.00116576
0.00117555
0.00118566
0.00119611
0.0012069
0.00121802
0.00122948
0.00124129
0.00125344
0.00126595
0.0012788
0.00129201
0.00130558
0.0013195
0.0013338
0.00134845
0.00136348
0.00137889
0.00139466
0.00141082
0.00142736
0.00144428
0.00146159
0.00147928
0.00149737
0.00151585
0.00153472
0.00155397
0.00159393
0.00161555
0.00163811
0.00166165
0.00168628
0.001712
0.00173891
0.00176708
0.00179658
0.00182751
0.00185995
0.00189402
0.00192981
0.00196746
0.00200708
0.00204882
0.00209286
0.00213936
0.00218852
0.00224053
0.00229566
0.00235415
0.0024163
0.00248241
0.00255284
0.00262797
0.00270822
0.00279407
0.00288604
0.0029847
0.00309069
0.00320474
0.00332761
0.00346018
0.00360338
0.00375822
0.00392577
0.00410707
0.00430311
0.00451463
0.00474191
0.00498441
0.0052403
0.0055061
0.00577683
0.00604675
0.00630986
0.00657115
0.0069014
0.00740063
0.00159298
0.0016146
0.00163715
0.00166074
0.00168533
0.00171104
0.00173794
0.00176611
0.0017956
0.00182653
0.00185897
0.00189302
0.00192881
0.00196644
0.00200604
0.00204777
0.00209179
0.00213827
0.00218739
0.00223937
0.00229445
0.00235288
0.00241495
0.00248096
0.00255127
0.00262624
0.0027063
0.0027919
0.00288355
0.00298181
0.00308731
0.00320072
0.00332278
0.00345432
0.00359619
0.00374933
0.00391466
0.00409308
0.00428535
0.00449193
0.00471269
0.0049466
0.00519118
0.00544214
0.00569344
0.00593829
0.00617008
0.00639288
0.00667304
0.00710353
0.00159108
0.00161271
0.00163528
0.00165881
0.0016834
0.00170911
0.00173601
0.00176416
0.00179365
0.00182456
0.00185698
0.00189102
0.00192679
0.00196439
0.00200397
0.00204567
0.00208965
0.00213608
0.00218514
0.00223705
0.00229203
0.00235035
0.00241226
0.00247809
0.00254815
0.00262281
0.00270248
0.00278759
0.00287863
0.00297611
0.00308062
0.00319278
0.00331326
0.00344276
0.00358203
0.0037318
0.00389277
0.00406549
0.00425029
0.00444702
0.00465479
0.0048715
0.00509336
0.00531437
0.00552645
0.00572063
0.00588925
0.00603485
0.00621043
0.00651684
0.00158825
0.00160986
0.00163241
0.00165594
0.00168052
0.00170622
0.0017331
0.00176124
0.00179071
0.0018216
0.00185399
0.001888
0.00192373
0.0019613
0.00200083
0.00204247
0.00208639
0.00213274
0.00218171
0.00223349
0.00228833
0.00234645
0.00240813
0.00247365
0.00254334
0.00261753
0.00269659
0.00278095
0.00287104
0.00296733
0.00307034
0.0031806
0.00329866
0.0034251
0.00356043
0.00370514
0.00385955
0.00402374
0.00419738
0.00437944
0.00456784
0.00475892
0.00494687
0.00512319
0.00527672
0.00539507
0.00546895
0.0055024
0.00553242
0.0056199
0.00158448
0.00160609
0.00162862
0.00165214
0.00167672
0.0017024
0.00172927
0.00175739
0.00178684
0.00181771
0.00185008
0.00188406
0.00191975
0.00195728
0.00199676
0.00203834
0.00208218
0.00212844
0.00217729
0.00222894
0.00228359
0.00234148
0.00240286
0.002468
0.00253719
0.00261076
0.00268905
0.00277242
0.00286125
0.00295597
0.00305697
0.0031647
0.00327954
0.00340185
0.0035319
0.00366978
0.00381533
0.00396798
0.0041265
0.00428868
0.00445088
0.00460738
0.00474972
0.00486616
0.00494168
0.0049594
0.00490683
0.00479143
0.00463935
0.00438952
0.0015798
0.00160141
0.00162395
0.00164748
0.00167207
0.00169778
0.00172466
0.0017528
0.00178228
0.00181316
0.00184556
0.00187956
0.00191527
0.00195282
0.00199233
0.00203395
0.00207782
0.00212412
0.002173
0.00222466
0.0022793
0.00233716
0.00239845
0.00246345
0.00253241
0.00260564
0.00268344
0.00276613
0.00285406
0.00294755
0.00304693
0.00315249
0.00326446
0.00338294
0.00350785
0.00363882
0.00377499
0.00391483
0.00405573
0.00419359
0.00432217
0.00443234
0.0045113
0.00454213
0.00450392
0.00437386
0.00413439
0.00379396
0.00337132
0.00266601
0.0015742
0.00159574
0.00161822
0.0016417
0.00166624
0.00169189
0.00171873
0.00174681
0.00177623
0.00180706
0.00183939
0.00187332
0.00190897
0.00194645
0.00198589
0.00202744
0.00207124
0.00211746
0.00216626
0.00221782
0.00227234
0.00233004
0.00239114
0.00245587
0.00252448
0.00259726
0.00267446
0.00275639
0.00284332
0.00293552
0.00303322
0.00313659
0.00324567
0.00336032
0.00348013
0.00360419
0.00373091
0.00385759
0.00397997
0.00409147
0.0041823
0.00423846
0.00424088
0.00416523
0.00398278
0.0036623
0.00318194
0.00255597
0.00175173
0.0004572
-0.00322863
-0.00325161
-0.0031999
-0.00308805
-0.00293029
-0.00273353
-0.00250754
-0.00226155
-0.00200545
-0.00174846
-0.00149859
-0.00126237
-0.00104464
-0.000848582
-0.000675832
-0.000526748
-0.000400653
-0.000296112
-0.000211195
-0.000143702
-9.13247e-05
-5.17177e-05
-2.26687e-05
-2.29722e-06
1.09821e-05
1.86969e-05
2.22607e-05
2.27403e-05
2.09461e-05
1.75489e-05
1.3083e-05
7.95923e-06
2.48741e-06
-3.10257e-06
-8.64405e-06
-1.40198e-05
-1.91505e-05
-2.39857e-05
-2.84959e-05
-3.26676e-05
-3.64985e-05
-3.99938e-05
-4.31643e-05
-4.60242e-05
-4.85897e-05
-5.08781e-05
-5.2907e-05
-5.4694e-05
-5.62565e-05
-5.76105e-05
-0.00334251
-0.00333731
-0.00326864
-0.00314807
-0.00298371
-0.00278343
-0.00255505
-0.00230729
-0.00204958
-0.00179086
-0.00153906
-0.00130065
-0.00108051
-0.000881881
-0.000706473
-0.000554711
-0.000425983
-0.000318907
-0.00023159
-0.000161858
-0.000107418
-6.59391e-05
-3.51898e-05
-1.3284e-05
1.35378e-06
1.02694e-05
1.48881e-05
1.62952e-05
1.5314e-05
1.26266e-05
8.7791e-06
4.19307e-06
-8.11457e-07
-5.99561e-06
-1.11847e-05
-1.62543e-05
-2.1119e-05
-2.57225e-05
-3.00309e-05
-3.40264e-05
-3.77031e-05
-4.10632e-05
-4.41148e-05
-4.68699e-05
-4.93427e-05
-5.15489e-05
-5.35047e-05
-5.52266e-05
-5.67307e-05
-5.80321e-05
-0.00357387
-0.00350197
-0.00340119
-0.00326215
-0.0030858
-0.00287924
-0.00264641
-0.00239534
-0.00213468
-0.00187284
-0.00161747
-0.00137501
-0.00115037
-0.000946885
-0.000766415
-0.000609524
-0.000475723
-0.000363738
-0.000271755
-0.000197658
-0.000139191
-9.40326e-05
-5.99646e-05
-3.50467e-05
-1.76962e-05
-6.41247e-06
2.86345e-07
3.52677e-06
4.15539e-06
2.87472e-06
2.52815e-07
-3.26695e-06
-7.34482e-06
-1.17242e-05
-1.62144e-05
-2.0677e-05
-2.50141e-05
-2.91586e-05
-3.30671e-05
-3.67136e-05
-4.0085e-05
-4.31775e-05
-4.59939e-05
-4.85417e-05
-5.08313e-05
-5.28752e-05
-5.46866e-05
-5.62798e-05
-5.7669e-05
-5.88665e-05
-0.00392116
-0.00373616
-0.00359243
-0.00342698
-0.0032343
-0.00301647
-0.00277665
-0.00252068
-0.00225579
-0.00198958
-0.0017293
-0.00148123
-0.00125032
-0.00104005
-0.000852463
-0.000688323
-0.000547326
-0.000428351
-0.000329706
-0.000249359
-0.000185112
-0.000134687
-9.58225e-05
-6.65863e-05
-4.53468e-05
-3.05953e-05
-2.089e-05
-1.50003e-05
-1.20422e-05
-1.1286e-05
-1.21327e-05
-1.41076e-05
-1.68425e-05
-2.00551e-05
-2.35321e-05
-2.71144e-05
-3.06863e-05
-3.4165e-05
-3.74933e-05
-4.06333e-05
-4.35616e-05
-4.62655e-05
-4.87405e-05
-5.09872e-05
-5.30107e-05
-5.48185e-05
-5.64202e-05
-5.78264e-05
-5.90484e-05
-6.00946e-05
-0.0043413
-0.00403526
-0.00384801
-0.00363882
-0.00341861
-0.00318448
-0.00293467
-0.00267203
-0.00240193
-0.00213079
-0.00186518
-0.00161103
-0.00137325
-0.00115541
-0.000959726
-0.00078719
-0.000637718
-0.000510389
-0.000403673
-0.000315666
-0.000244252
-0.000187225
-0.000142365
-0.000107637
-8.1419e-05
-6.22393e-05
-4.86091e-05
-3.92742e-05
-3.32777e-05
-2.98581e-05
-2.83784e-05
-2.83255e-05
-2.92956e-05
-3.09741e-05
-3.31182e-05
-3.55427e-05
-3.81085e-05
-4.07122e-05
-4.32785e-05
-4.57538e-05
-4.8101e-05
-5.02958e-05
-5.23234e-05
-5.4176e-05
-5.58511e-05
-5.73503e-05
-5.86778e-05
-5.98397e-05
-6.08433e-05
-6.16923e-05
-0.00477868
-0.00440383
-0.00413359
-0.00387144
-0.00361611
-0.00335995
-0.00309733
-0.00282789
-0.00255442
-0.00228135
-0.00201387
-0.00175706
-0.0015154
-0.00129232
-0.00109016
-0.000910111
-0.000752384
-0.000616351
-0.000500757
-0.00040393
-0.000323956
-0.000258779
-0.000206287
-0.000164485
-0.000131687
-0.000106484
-8.74673e-05
-7.33223e-05
-6.30482e-05
-5.58488e-05
-5.10465e-05
-4.8085e-05
-4.65176e-05
-4.59889e-05
-4.62174e-05
-4.69821e-05
-4.81109e-05
-4.94708e-05
-5.096e-05
-5.25013e-05
-5.40375e-05
-5.55264e-05
-5.6938e-05
-5.82515e-05
-5.94537e-05
-6.05366e-05
-6.14967e-05
-6.23338e-05
-6.30493e-05
-6.36425e-05
-0.00519589
-0.00485331
-0.0045082
-0.00418214
-0.00388144
-0.00359448
-0.00331168
-0.00302952
-0.00274802
-0.00246932
-0.00219692
-0.00193484
-0.00168692
-0.0014564
-0.00124564
-0.00105604
-0.000888067
-0.000741402
-0.000615078
-0.000507675
-0.000417476
-0.000342601
-0.00028105
-0.000230843
-0.000190319
-0.000158047
-0.000132646
-0.000112828
-9.75212e-05
-8.58804e-05
-7.71793e-05
-7.08102e-05
-6.62758e-05
-6.31718e-05
-6.11707e-05
-6.00085e-05
-5.9474e-05
-5.93988e-05
-5.96494e-05
-6.0121e-05
-6.0732e-05
-6.14194e-05
-6.21351e-05
-6.28431e-05
-6.3517e-05
-6.41378e-05
-6.46928e-05
-6.5174e-05
-6.55768e-05
-6.58985e-05
-5.87736e-05
-5.97811e-05
-6.0639e-05
-6.13491e-05
-6.19178e-05
-6.23516e-05
-6.26566e-05
-6.28388e-05
-6.29047e-05
-6.28603e-05
-6.27113e-05
-6.24631e-05
-6.21205e-05
-6.16876e-05
-6.11683e-05
-6.0566e-05
-5.98842e-05
-5.91265e-05
-5.82971e-05
-5.74003e-05
-5.64412e-05
-5.54248e-05
-5.43568e-05
-5.32424e-05
-5.20873e-05
-5.08966e-05
-4.96753e-05
-4.84279e-05
-4.7159e-05
-4.58724e-05
-4.4572e-05
-4.32614e-05
-4.19438e-05
-4.06224e-05
-3.93001e-05
-3.79798e-05
-3.66642e-05
-3.53557e-05
-3.40567e-05
-3.27695e-05
-3.14959e-05
-3.02385e-05
-2.89978e-05
-2.77786e-05
-2.65786e-05
-2.5399e-05
-2.42463e-05
-2.3118e-05
-2.20152e-05
-2.09395e-05
-1.98916e-05
-1.88723e-05
-1.78822e-05
-1.69218e-05
-1.59917e-05
-1.50921e-05
-1.42233e-05
-1.33854e-05
-1.25785e-05
-1.18027e-05
-1.10577e-05
-1.03434e-05
-9.65951e-06
-9.00585e-06
-8.38188e-06
-7.78726e-06
-7.22139e-06
-6.68375e-06
-6.17376e-06
-5.6906e-06
-5.23375e-06
-4.80241e-06
-4.39586e-06
-4.0134e-06
-3.65421e-06
-3.31735e-06
-3.00214e-06
-2.70754e-06
-2.43264e-06
-2.17676e-06
-1.93861e-06
-1.7179e-06
-1.51318e-06
-1.32414e-06
-1.14953e-06
-9.8854e-07
-8.40215e-07
-7.04155e-07
-5.78967e-07
-4.64812e-07
-3.59766e-07
-2.65064e-07
-1.75051e-07
-9.99212e-08
-1.35371e-08
2.76821e-08
1.47209e-07
8.89777e-08
3.71108e-07
-5.40607e-09
8.07569e-07
-4.44637e-07
1.68787e-06
-1.42173e-06
3.07594e-06
-2.68619e-06
4.25571e-06
-2.94536e-06
3.48304e-06
-4.02735e-07
-3.75672e-07
4.60935e-06
-5.01762e-06
7.98985e-06
-5.59565e-06
-5.91437e-05
-6.01162e-05
-6.09433e-05
-6.1624e-05
-6.21657e-05
-6.25749e-05
-6.28573e-05
-6.3019e-05
-6.3066e-05
-6.30043e-05
-6.28394e-05
-6.25765e-05
-6.22203e-05
-6.17751e-05
-6.12444e-05
-6.06318e-05
-5.99407e-05
-5.91747e-05
-5.83379e-05
-5.74346e-05
-5.64697e-05
-5.54485e-05
-5.43761e-05
-5.32581e-05
-5.20997e-05
-5.09062e-05
-4.96824e-05
-4.84328e-05
-4.7162e-05
-4.58737e-05
-4.45719e-05
-4.32599e-05
-4.19412e-05
-4.06188e-05
-3.92958e-05
-3.79748e-05
-3.66586e-05
-3.53496e-05
-3.40502e-05
-3.27627e-05
-3.1489e-05
-3.02314e-05
-2.89906e-05
-2.77713e-05
-2.65714e-05
-2.53919e-05
-2.42393e-05
-2.31111e-05
-2.20085e-05
-2.09329e-05
-1.98852e-05
-1.8866e-05
-1.78762e-05
-1.69161e-05
-1.59862e-05
-1.50868e-05
-1.42182e-05
-1.33806e-05
-1.2574e-05
-1.17983e-05
-1.10536e-05
-1.03394e-05
-9.65581e-06
-9.00237e-06
-8.37861e-06
-7.7842e-06
-7.21852e-06
-6.68108e-06
-6.17127e-06
-5.68828e-06
-5.23161e-06
-4.80043e-06
-4.39403e-06
-4.01171e-06
-3.65266e-06
-3.31591e-06
-3.00083e-06
-2.70633e-06
-2.43153e-06
-2.17576e-06
-1.93769e-06
-1.71708e-06
-1.51242e-06
-1.32347e-06
-1.14891e-06
-9.87982e-07
-8.39702e-07
-7.03719e-07
-5.78559e-07
-4.6447e-07
-3.59442e-07
-2.64786e-07
-1.748e-07
-9.97011e-08
-1.33721e-08
2.7852e-08
1.47294e-07
8.91539e-08
3.71098e-07
-5.19407e-09
8.07414e-07
-4.44314e-07
1.68757e-06
-1.42138e-06
3.07568e-06
-2.68608e-06
4.25583e-06
-2.94576e-06
3.48368e-06
-4.03424e-07
-3.7514e-07
4.6091e-06
-5.01776e-06
7.99022e-06
-5.59881e-06
-5.98785e-05
-6.07816e-05
-6.15473e-05
-6.21696e-05
-6.26577e-05
-6.30181e-05
-6.32559e-05
-6.33768e-05
-6.33863e-05
-6.32901e-05
-6.30936e-05
-6.28016e-05
-6.24186e-05
-6.19488e-05
-6.13957e-05
-6.07626e-05
-6.0053e-05
-5.92705e-05
-5.8419e-05
-5.75028e-05
-5.65266e-05
-5.54955e-05
-5.44146e-05
-5.32892e-05
-5.21244e-05
-5.09252e-05
-4.96965e-05
-4.84426e-05
-4.71679e-05
-4.58763e-05
-4.45715e-05
-4.3257e-05
-4.19361e-05
-4.06118e-05
-3.92871e-05
-3.79647e-05
-3.66474e-05
-3.53375e-05
-3.40373e-05
-3.27492e-05
-3.14751e-05
-3.02172e-05
-2.89763e-05
-2.77569e-05
-2.6557e-05
-2.53776e-05
-2.42252e-05
-2.30973e-05
-2.19949e-05
-2.09197e-05
-1.98723e-05
-1.88536e-05
-1.78642e-05
-1.69045e-05
-1.59751e-05
-1.50762e-05
-1.42081e-05
-1.33709e-05
-1.25648e-05
-1.17896e-05
-1.10453e-05
-1.03316e-05
-9.64844e-06
-8.99542e-06
-8.3721e-06
-7.77808e-06
-7.2128e-06
-6.67573e-06
-6.16626e-06
-5.68365e-06
-5.2273e-06
-4.79645e-06
-4.39037e-06
-4.00834e-06
-3.64954e-06
-3.31307e-06
-2.99819e-06
-2.70391e-06
-2.42933e-06
-2.1737e-06
-1.93588e-06
-1.71539e-06
-1.51094e-06
-1.32208e-06
-1.14766e-06
-9.86845e-07
-8.38733e-07
-7.02809e-07
-5.77814e-07
-4.63777e-07
-3.58823e-07
-2.64205e-07
-1.74281e-07
-9.92258e-08
-1.30366e-08
2.8176e-08
1.47497e-07
8.94725e-08
3.71107e-07
-4.78222e-09
8.07135e-07
-4.4372e-07
1.68703e-06
-1.42069e-06
3.07517e-06
-2.68588e-06
4.25608e-06
-2.94659e-06
3.48489e-06
-4.04809e-07
-3.73973e-07
4.60856e-06
-5.01811e-06
7.99092e-06
-5.60497e-06
-6.09663e-05
-6.17675e-05
-6.24417e-05
-6.29776e-05
-6.33864e-05
-6.36746e-05
-6.38464e-05
-6.39067e-05
-6.38608e-05
-6.37136e-05
-6.34702e-05
-6.31351e-05
-6.27125e-05
-6.22063e-05
-6.16199e-05
-6.09566e-05
-6.02197e-05
-5.94127e-05
-5.85395e-05
-5.76042e-05
-5.66113e-05
-5.55656e-05
-5.4472e-05
-5.33355e-05
-5.21611e-05
-5.09535e-05
-4.97174e-05
-4.8457e-05
-4.71766e-05
-4.588e-05
-4.45708e-05
-4.32525e-05
-4.19282e-05
-4.06011e-05
-3.92739e-05
-3.79495e-05
-3.66304e-05
-3.53191e-05
-3.40179e-05
-3.27289e-05
-3.14541e-05
-3.01958e-05
-2.89547e-05
-2.77352e-05
-2.65354e-05
-2.53562e-05
-2.42041e-05
-2.30765e-05
-2.19746e-05
-2.08998e-05
-1.98531e-05
-1.8835e-05
-1.78462e-05
-1.68872e-05
-1.59585e-05
-1.50603e-05
-1.41929e-05
-1.33564e-05
-1.2551e-05
-1.17765e-05
-1.10328e-05
-1.03199e-05
-9.63739e-06
-8.98501e-06
-8.36233e-06
-7.76891e-06
-7.20422e-06
-6.66771e-06
-6.15878e-06
-5.6767e-06
-5.22085e-06
-4.79048e-06
-4.38487e-06
-4.00327e-06
-3.64486e-06
-3.30878e-06
-2.99424e-06
-2.70028e-06
-2.42602e-06
-2.17066e-06
-1.93315e-06
-1.71286e-06
-1.5087e-06
-1.32002e-06
-1.1458e-06
-9.85163e-07
-8.3726e-07
-7.01466e-07
-5.76666e-07
-4.62733e-07
-3.57892e-07
-2.63353e-07
-1.73528e-07
-9.85455e-08
-1.25263e-08
2.86737e-08
1.47797e-07
8.99553e-08
3.71111e-07
-4.15837e-09
8.06706e-07
-4.42818e-07
1.6862e-06
-1.41968e-06
3.07442e-06
-2.68561e-06
4.2565e-06
-2.94788e-06
3.48675e-06
-4.06916e-07
-3.72246e-07
4.60778e-06
-5.01865e-06
7.99197e-06
-5.61387e-06
-6.23912e-05
-6.30598e-05
-6.36132e-05
-6.40361e-05
-6.43413e-05
-6.4535e-05
-6.46203e-05
-6.46014e-05
-6.44828e-05
-6.42689e-05
-6.39641e-05
-6.35725e-05
-6.30981e-05
-6.25442e-05
-6.19143e-05
-6.12115e-05
-6.04389e-05
-5.95999e-05
-5.86983e-05
-5.77378e-05
-5.67229e-05
-5.5658e-05
-5.45477e-05
-5.33966e-05
-5.22095e-05
-5.09908e-05
-4.97448e-05
-4.84759e-05
-4.71879e-05
-4.58846e-05
-4.45696e-05
-4.32461e-05
-4.19175e-05
-4.05865e-05
-3.92562e-05
-3.79291e-05
-3.66077e-05
-3.52946e-05
-3.39919e-05
-3.27018e-05
-3.14262e-05
-3.01673e-05
-2.89259e-05
-2.77063e-05
-2.65065e-05
-2.53276e-05
-2.41758e-05
-2.30488e-05
-2.19474e-05
-2.08734e-05
-1.98274e-05
-1.88101e-05
-1.78222e-05
-1.68641e-05
-1.59363e-05
-1.5039e-05
-1.41726e-05
-1.33371e-05
-1.25326e-05
-1.1759e-05
-1.10163e-05
-1.03043e-05
-9.62266e-06
-8.97114e-06
-8.3493e-06
-7.7567e-06
-7.19279e-06
-6.65704e-06
-6.14881e-06
-5.66744e-06
-5.21226e-06
-4.78253e-06
-4.37753e-06
-3.99649e-06
-3.63862e-06
-3.30304e-06
-2.98896e-06
-2.69544e-06
-2.4216e-06
-2.16661e-06
-1.92949e-06
-1.70952e-06
-1.50569e-06
-1.31728e-06
-1.14333e-06
-9.82933e-07
-8.35287e-07
-6.99686e-07
-5.75117e-07
-4.6134e-07
-3.5665e-07
-2.62231e-07
-1.72541e-07
-9.76598e-08
-1.18417e-08
2.93427e-08
1.48198e-07
9.05955e-08
3.71122e-07
-3.3435e-09
8.06162e-07
-4.41666e-07
1.68517e-06
-1.41847e-06
3.07361e-06
-2.68549e-06
4.25732e-06
-2.94986e-06
3.48943e-06
-4.09822e-07
-3.70006e-07
4.60694e-06
-5.01964e-06
7.99366e-06
-5.62535e-06
-6.41345e-05
-6.46405e-05
-6.5045e-05
-6.53299e-05
-6.5509e-05
-6.55874e-05
-6.55671e-05
-6.54514e-05
-6.5244e-05
-6.49485e-05
-6.45687e-05
-6.41081e-05
-6.35703e-05
-6.29583e-05
-6.22753e-05
-6.15242e-05
-6.07081e-05
-5.98301e-05
-5.88937e-05
-5.79025e-05
-5.68606e-05
-5.57721e-05
-5.46411e-05
-5.3472e-05
-5.22691e-05
-5.10365e-05
-4.97784e-05
-4.84987e-05
-4.72013e-05
-4.58898e-05
-4.45675e-05
-4.32378e-05
-4.19037e-05
-4.05681e-05
-3.92337e-05
-3.79033e-05
-3.65791e-05
-3.52637e-05
-3.39592e-05
-3.26677e-05
-3.13911e-05
-3.01315e-05
-2.88897e-05
-2.76701e-05
-2.64704e-05
-2.52918e-05
-2.41405e-05
-2.30141e-05
-2.19135e-05
-2.08403e-05
-1.97953e-05
-1.8779e-05
-1.77922e-05
-1.68352e-05
-1.59086e-05
-1.50125e-05
-1.41473e-05
-1.33129e-05
-1.25096e-05
-1.17372e-05
-1.09956e-05
-1.02847e-05
-9.60426e-06
-8.95382e-06
-8.33304e-06
-7.74144e-06
-7.17851e-06
-6.6437e-06
-6.13638e-06
-5.65588e-06
-5.20152e-06
-4.77259e-06
-4.36835e-06
-3.98802e-06
-3.63081e-06
-3.29587e-06
-2.98237e-06
-2.68939e-06
-2.41608e-06
-2.16155e-06
-1.9249e-06
-1.70534e-06
-1.50192e-06
-1.31386e-06
-1.14024e-06
-9.80155e-07
-8.32818e-07
-6.9747e-07
-5.73169e-07
-4.59597e-07
-3.551e-07
-2.60839e-07
-1.71321e-07
-9.65677e-08
-1.09849e-08
3.01833e-08
1.48696e-07
9.13984e-08
3.71128e-07
-2.31733e-09
8.05466e-07
-4.40206e-07
1.68384e-06
-1.41693e-06
3.07255e-06
-2.68529e-06
4.25829e-06
-2.95229e-06
3.49275e-06
-4.13437e-07
-3.67211e-07
4.60586e-06
-5.02072e-06
7.99558e-06
-5.63843e-06
-6.61703e-05
-6.64871e-05
-6.67166e-05
-6.68412e-05
-6.68741e-05
-6.68183e-05
-6.66749e-05
-6.64462e-05
-6.61351e-05
-6.57443e-05
-6.52768e-05
-6.47357e-05
-6.41239e-05
-6.34441e-05
-6.26991e-05
-6.18918e-05
-6.10248e-05
-6.01012e-05
-5.91242e-05
-5.80971e-05
-5.70234e-05
-5.5907e-05
-5.47516e-05
-5.35611e-05
-5.23394e-05
-5.10903e-05
-4.98177e-05
-4.85253e-05
-4.72167e-05
-4.58953e-05
-4.45644e-05
-4.32272e-05
-4.18866e-05
-4.05455e-05
-3.92064e-05
-3.78719e-05
-3.65445e-05
-3.52264e-05
-3.39198e-05
-3.26267e-05
-3.13489e-05
-3.00885e-05
-2.88463e-05
-2.76265e-05
-2.6427e-05
-2.52489e-05
-2.40981e-05
-2.29724e-05
-2.18728e-05
-2.08006e-05
-1.97567e-05
-1.87417e-05
-1.77562e-05
-1.68006e-05
-1.58753e-05
-1.49807e-05
-1.41168e-05
-1.32839e-05
-1.2482e-05
-1.1711e-05
-1.09709e-05
-1.02613e-05
-9.58219e-06
-8.93306e-06
-8.31353e-06
-7.72315e-06
-7.1614e-06
-6.62771e-06
-6.12147e-06
-5.64201e-06
-5.18866e-06
-4.76067e-06
-4.35733e-06
-3.97785e-06
-3.62145e-06
-3.28726e-06
-2.97446e-06
-2.68214e-06
-2.40944e-06
-2.1555e-06
-1.9194e-06
-1.70034e-06
-1.4974e-06
-1.30976e-06
-1.13654e-06
-9.76831e-07
-8.29853e-07
-6.94817e-07
-5.70826e-07
-4.57506e-07
-3.53243e-07
-2.59176e-07
-1.69871e-07
-9.52651e-08
-9.9659e-09
3.12129e-08
1.49252e-07
9.24364e-08
3.70993e-07
-8.35062e-10
8.04201e-07
-4.37763e-07
1.68119e-06
-1.4136e-06
3.0693e-06
-2.68264e-06
4.2568e-06
-2.95268e-06
3.49481e-06
-4.16943e-07
-3.63211e-07
4.60234e-06
-5.01846e-06
7.99378e-06
-5.64871e-06
-6.85422e-05
-6.8634e-05
-6.86531e-05
-6.85934e-05
-6.84579e-05
-6.82473e-05
-6.79615e-05
-6.7602e-05
-6.71708e-05
-6.66695e-05
-6.61006e-05
-6.54662e-05
-6.47687e-05
-6.40105e-05
-6.31939e-05
-6.23215e-05
-6.13958e-05
-6.04194e-05
-5.93951e-05
-5.8326e-05
-5.72153e-05
-5.60661e-05
-5.48819e-05
-5.3666e-05
-5.2422e-05
-5.11533e-05
-4.98635e-05
-4.85559e-05
-4.7234e-05
-4.5901e-05
-4.45599e-05
-4.32138e-05
-4.18656e-05
-4.05179e-05
-3.91732e-05
-3.78341e-05
-3.65028e-05
-3.51815e-05
-3.38724e-05
-3.25774e-05
-3.12982e-05
-3.00369e-05
-2.87943e-05
-2.75743e-05
-2.6375e-05
-2.51975e-05
-2.40474e-05
-2.29226e-05
-2.18241e-05
-2.07532e-05
-1.97107e-05
-1.86971e-05
-1.77131e-05
-1.67592e-05
-1.58356e-05
-1.49426e-05
-1.40805e-05
-1.32493e-05
-1.24491e-05
-1.16798e-05
-1.09413e-05
-1.02334e-05
-9.55584e-06
-8.90826e-06
-8.29023e-06
-7.70131e-06
-7.14096e-06
-6.60863e-06
-6.10368e-06
-5.62546e-06
-5.17329e-06
-4.74644e-06
-4.34417e-06
-3.96571e-06
-3.61026e-06
-3.27697e-06
-2.96501e-06
-2.67348e-06
-2.40152e-06
-2.14827e-06
-1.91283e-06
-1.69437e-06
-1.492e-06
-1.30487e-06
-1.13214e-06
-9.72868e-07
-8.26313e-07
-6.91652e-07
-5.68022e-07
-4.55007e-07
-3.51028e-07
-2.57196e-07
-1.68152e-07
-9.37126e-08
-8.76464e-09
3.24752e-08
1.49851e-07
9.38022e-08
3.7059e-07
1.3666e-09
8.01944e-07
-4.33638e-07
1.67616e-06
-1.40695e-06
3.06186e-06
-2.67512e-06
4.25019e-06
-2.94854e-06
3.49375e-06
-4.19659e-07
-3.5719e-07
4.59404e-06
-5.00925e-06
7.98417e-06
-5.65218e-06
-7.12187e-05
-7.10604e-05
-7.08496e-05
-7.05816e-05
-7.02559e-05
-6.98702e-05
-6.94233e-05
-6.89158e-05
-6.83484e-05
-6.77219e-05
-6.70378e-05
-6.62976e-05
-6.55029e-05
-6.46558e-05
-6.37581e-05
-6.28119e-05
-6.18194e-05
-6.07829e-05
-5.97049e-05
-5.8588e-05
-5.74348e-05
-5.62481e-05
-5.50308e-05
-5.37857e-05
-5.2516e-05
-5.12247e-05
-4.99149e-05
-4.85898e-05
-4.72525e-05
-4.59059e-05
-4.45531e-05
-4.31968e-05
-4.18397e-05
-4.04843e-05
-3.91333e-05
-3.77887e-05
-3.6453e-05
-3.51281e-05
-3.38162e-05
-3.2519e-05
-3.12383e-05
-2.9976e-05
-2.87328e-05
-2.75127e-05
-2.63137e-05
-2.51368e-05
-2.39875e-05
-2.28639e-05
-2.17667e-05
-2.06973e-05
-1.96564e-05
-1.86447e-05
-1.76625e-05
-1.67105e-05
-1.57888e-05
-1.48979e-05
-1.40378e-05
-1.32086e-05
-1.24104e-05
-1.1643e-05
-1.09065e-05
-1.02006e-05
-9.52487e-06
-8.87911e-06
-8.26285e-06
-7.67564e-06
-7.11695e-06
-6.5862e-06
-6.08278e-06
-5.60601e-06
-5.15523e-06
-4.7297e-06
-4.3287e-06
-3.95143e-06
-3.59711e-06
-3.26487e-06
-2.9539e-06
-2.6633e-06
-2.39221e-06
-2.13977e-06
-1.9051e-06
-1.68735e-06
-1.48564e-06
-1.29912e-06
-1.12696e-06
-9.68213e-07
-8.22151e-07
-6.87934e-07
-5.64723e-07
-4.5207e-07
-3.48425e-07
-2.54879e-07
-1.66134e-07
-9.19105e-08
-7.32273e-09
3.38967e-08
1.50679e-07
9.51722e-08
3.70538e-07
3.22295e-09
8.00488e-07
-4.3065e-07
1.67296e-06
-1.40287e-06
3.05787e-06
-2.67185e-06
4.24831e-06
-2.94904e-06
3.49637e-06
-4.24309e-07
-3.51638e-07
4.58875e-06
-5.005e-06
7.98025e-06
-5.6619e-06
-7.41067e-05
-7.36861e-05
-7.32323e-05
-7.27412e-05
-7.22102e-05
-7.16353e-05
-7.10141e-05
-7.03462e-05
-6.96311e-05
-6.88688e-05
-6.80598e-05
-6.72046e-05
-6.63046e-05
-6.53609e-05
-6.4375e-05
-6.33487e-05
-6.22837e-05
-6.11818e-05
-6.00452e-05
-5.88759e-05
-5.76761e-05
-5.64481e-05
-5.51942e-05
-5.39169e-05
-5.26186e-05
-5.13022e-05
-4.99702e-05
-4.86256e-05
-4.72711e-05
-4.59095e-05
-4.45435e-05
-4.31758e-05
-4.18089e-05
-4.04452e-05
-3.9087e-05
-3.77365e-05
-3.63959e-05
-3.50671e-05
-3.3752e-05
-3.24524e-05
-3.11701e-05
-2.99067e-05
-2.86631e-05
-2.74428e-05
-2.62442e-05
-2.50681e-05
-2.39198e-05
-2.27975e-05
-2.17018e-05
-2.06341e-05
-1.95951e-05
-1.85853e-05
-1.76053e-05
-1.66554e-05
-1.5736e-05
-1.48473e-05
-1.39895e-05
-1.31626e-05
-1.23666e-05
-1.16016e-05
-1.08672e-05
-1.01634e-05
-9.48988e-06
-8.84618e-06
-8.23193e-06
-7.64665e-06
-7.08983e-06
-6.56087e-06
-6.05917e-06
-5.58405e-06
-5.13484e-06
-4.7108e-06
-4.31123e-06
-3.9353e-06
-3.58225e-06
-3.25121e-06
-2.94135e-06
-2.6518e-06
-2.3817e-06
-2.13019e-06
-1.89638e-06
-1.67943e-06
-1.47847e-06
-1.29264e-06
-1.12111e-06
-9.62961e-07
-8.17452e-07
-6.83737e-07
-5.60994e-07
-4.48753e-07
-3.45487e-07
-2.5227e-07
-1.63859e-07
-8.98915e-08
-5.67758e-09
3.5465e-08
1.51684e-07
9.65863e-08
3.70712e-07
4.92923e-09
7.99459e-07
-4.28201e-07
1.67065e-06
-1.39999e-06
3.05545e-06
-2.67048e-06
4.2485e-06
-2.95162e-06
3.5007e-06
-4.3002e-07
-3.45919e-07
4.58424e-06
-5.00211e-06
7.97796e-06
-5.67321e-06
-7.71764e-05
-7.64822e-05
-7.57738e-05
-7.50471e-05
-7.42986e-05
-7.35229e-05
-7.27165e-05
-7.18778e-05
-7.10054e-05
-7.00983e-05
-6.91558e-05
-6.81782e-05
-6.71656e-05
-6.61189e-05
-6.5039e-05
-6.39271e-05
-6.27844e-05
-6.16125e-05
-6.04129e-05
-5.91872e-05
-5.79371e-05
-5.66643e-05
-5.53706e-05
-5.4058e-05
-5.27285e-05
-5.13845e-05
-5.00283e-05
-4.86622e-05
-4.7289e-05
-4.59109e-05
-4.45306e-05
-4.31505e-05
-4.17729e-05
-4.04e-05
-3.90341e-05
-3.76772e-05
-3.63312e-05
-3.49981e-05
-3.36797e-05
-3.23776e-05
-3.10935e-05
-2.9829e-05
-2.85849e-05
-2.73646e-05
-2.61665e-05
-2.49912e-05
-2.38441e-05
-2.27233e-05
-2.16293e-05
-2.05636e-05
-1.95267e-05
-1.85192e-05
-1.75415e-05
-1.6594e-05
-1.56771e-05
-1.47909e-05
-1.39356e-05
-1.31113e-05
-1.23179e-05
-1.15553e-05
-1.08235e-05
-1.01221e-05
-9.45089e-06
-8.80949e-06
-8.19747e-06
-7.61436e-06
-7.05961e-06
-6.53265e-06
-6.03287e-06
-5.55958e-06
-5.11212e-06
-4.68975e-06
-4.29176e-06
-3.91733e-06
-3.56569e-06
-3.23599e-06
-2.92738e-06
-2.639e-06
-2.36999e-06
-2.11951e-06
-1.88666e-06
-1.67061e-06
-1.47049e-06
-1.28542e-06
-1.11461e-06
-9.57112e-07
-8.12217e-07
-6.79062e-07
-5.56837e-07
-4.45059e-07
-3.42215e-07
-2.49369e-07
-1.6133e-07
-8.7652e-08
-3.83907e-09
3.7198e-08
1.52829e-07
9.81187e-08
3.70969e-07
6.73559e-09
7.9843e-07
-4.25602e-07
1.66817e-06
-1.39679e-06
3.0526e-06
-2.66859e-06
4.24809e-06
-2.95371e-06
3.50478e-06
-4.35951e-07
-3.3937e-07
4.57826e-06
-4.99706e-06
7.9732e-06
-5.6815e-06
-8.03987e-05
-7.94198e-05
-7.84467e-05
-7.74747e-05
-7.6499e-05
-7.55132e-05
-7.45128e-05
-7.34949e-05
-7.24573e-05
-7.13978e-05
-7.03152e-05
-6.92086e-05
-6.80777e-05
-6.69225e-05
-6.57435e-05
-6.45413e-05
-6.33168e-05
-6.20707e-05
-6.08043e-05
-5.95186e-05
-5.82148e-05
-5.6894e-05
-5.55577e-05
-5.42071e-05
-5.28441e-05
-5.14704e-05
-5.00879e-05
-4.86987e-05
-4.73052e-05
-4.59094e-05
-4.45137e-05
-4.31202e-05
-4.1731e-05
-4.03483e-05
-3.89741e-05
-3.76103e-05
-3.62586e-05
-3.4921e-05
-3.3599e-05
-3.22943e-05
-3.10084e-05