/*--------------------------------*- C++ -*----------------------------------*\
| =========                 |                                                 |
| \\      /  F ield         | OpenFOAM: The Open Source CFD Toolbox           |
|  \\    /   O peration     | Version:  2412                                  |
|   \\  /    A nd           | Website:  www.openfoam.com                      |
|    \\/     M anipulation  |                                                 |
\*---------------------------------------------------------------------------*/
FoamFile
{
    version     2.0;
    format      ascii;
    arch        "LSB;label=32;scalar=64";
    class       surfaceScalarField;
    location    "9";
    object      phi;
}
// * * * * * * * * * * * * * * * * * * * * * * * * * * * * * * * * * * * * * //

dimensions      [0 3 -1 0 0 0 0];

oriented        oriented;

internalField   nonuniform List<scalar> 
126304
(
0.00505066
9.99187e-08
5.6343e-11
0.00505029
3.64842e-07
7.62715e-11
0.00504912
1.17488e-06
-5.4139e-10
0.00504648
2.6409e-06
-1.98283e-09
0.00504227
4.21259e-06
-3.58598e-09
0.00503706
5.21209e-06
-4.40215e-09
0.00503172
5.34898e-06
-3.93155e-09
0.00502692
4.79963e-06
-2.35017e-09
0.00502296
3.95664e-06
-2.26672e-10
0.0050198
3.16359e-06
1.86588e-09
0.0050172
2.59884e-06
3.56709e-09
0.0050149
2.29123e-06
4.7564e-09
0.00501271
2.18777e-06
5.47675e-09
0.00501049
2.21408e-06
5.84442e-09
0.00500817
2.30744e-06
5.98373e-09
0.00500574
2.42669e-06
5.99499e-09
0.00500318
2.54973e-06
5.94583e-09
0.00500051
2.66733e-06
5.87549e-09
0.00499773
2.77738e-06
5.80204e-09
0.00499484
2.88099e-06
5.73045e-09
0.00499186
2.98034e-06
5.6595e-09
0.00498877
3.07762e-06
5.58607e-09
0.00498559
3.17465e-06
5.50706e-09
0.00498231
3.27283e-06
5.42017e-09
0.00497894
3.37315e-06
5.32402e-09
0.00497545
3.47633e-06
5.21823e-09
0.00497187
3.58284e-06
5.103e-09
0.00496817
3.69303e-06
4.97887e-09
0.00496436
3.8071e-06
4.84644e-09
0.00496043
3.92524e-06
4.70612e-09
0.00495637
4.04754e-06
4.55795e-09
0.0049522
4.1741e-06
4.40167e-09
0.00494789
4.30497e-06
4.23704e-09
0.00494344
4.44023e-06
4.064e-09
0.00493886
4.57991e-06
3.88289e-09
0.00493413
4.72408e-06
3.69452e-09
0.00492925
4.87279e-06
3.50004e-09
0.00492422
5.02609e-06
3.30051e-09
0.00491904
5.18406e-06
3.09678e-09
0.00491369
5.34676e-06
2.88939e-09
0.00490817
5.51429e-06
2.6787e-09
0.00490248
5.68674e-06
2.46508e-09
0.00489662
5.86421e-06
2.24877e-09
0.00489057
6.04682e-06
2.03005e-09
0.00488433
6.23472e-06
1.80942e-09
0.0048779
6.42806e-06
1.58735e-09
0.00487127
6.62702e-06
1.36435e-09
0.00486444
6.83181e-06
1.14107e-09
0.0048574
7.04266e-06
9.18157e-10
0.00485013
7.25987e-06
6.96265e-10
0.00484265
7.48377e-06
4.76119e-10
0.00483494
7.71485e-06
2.5835e-10
0.00482698
7.95403e-06
4.3767e-11
0.00481878
8.20349e-06
-1.66615e-10
8.46923e-06
0.00481031
-3.71281e-10
0.00505066
2.0078e-07
0.00505029
7.28978e-07
0.00504913
2.33439e-06
0.00504653
5.24219e-06
0.00504238
8.36686e-06
0.00503722
1.03649e-05
0.00503192
1.06556e-05
0.00502713
9.58252e-06
0.00502317
7.92077e-06
0.00501998
6.35129e-06
0.00501735
5.22958e-06
0.00501503
4.61521e-06
0.00501281
4.40502e-06
0.00501057
4.45267e-06
0.00500825
4.63432e-06
0.0050058
4.86839e-06
0.00500324
5.11095e-06
0.00500057
5.34348e-06
0.00499778
5.5616e-06
0.0049949
5.76737e-06
0.00499191
5.96498e-06
0.00498883
6.1587e-06
0.00498565
6.3521e-06
0.00498238
6.54788e-06
0.004979
6.74801e-06
0.00497553
6.95389e-06
0.00497194
7.16644e-06
0.00496825
7.38634e-06
0.00496444
7.61401e-06
0.00496052
7.84979e-06
0.00495647
8.09388e-06
0.0049523
8.34645e-06
0.004948
8.60764e-06
0.00494356
8.87754e-06
0.00493898
9.15628e-06
0.00493426
9.44394e-06
0.00492939
9.74064e-06
0.00492437
1.00465e-05
0.0049192
1.03616e-05
0.00491386
1.06862e-05
0.00490835
1.10204e-05
0.00490267
1.13643e-05
0.00489682
1.17182e-05
0.00489078
1.20824e-05
0.00488456
1.2457e-05
0.00487815
1.28425e-05
0.00487153
1.32391e-05
0.00486472
1.36472e-05
0.00485769
1.40674e-05
0.00485045
1.45001e-05
0.00484299
1.49461e-05
0.0048353
1.54063e-05
0.00482737
1.58823e-05
0.0048192
1.63785e-05
1.69062e-05
0.00481076
0.00505065
3.03361e-07
0.00505029
1.09156e-06
0.00504916
3.46498e-06
0.00504663
7.77016e-06
0.00504259
1.24145e-05
0.00503754
1.54107e-05
0.00503231
1.5887e-05
0.00502755
1.43372e-05
0.00502357
1.18997e-05
0.00502034
9.58212e-06
0.00501766
7.91538e-06
0.00501528
6.99363e-06
0.00501302
6.66896e-06
0.00501074
6.7276e-06
0.00500839
6.98736e-06
0.00500593
7.32761e-06
0.00500336
7.6829e-06
0.00500067
8.02529e-06
0.00499789
8.34776e-06
0.004995
8.65298e-06
0.00499202
8.94687e-06
0.00498894
9.23553e-06
0.00498577
9.5241e-06
0.0049825
9.81653e-06
0.00497914
1.01156e-05
0.00497567
1.04235e-05
0.00497209
1.07414e-05
0.00496841
1.10703e-05
0.00496461
1.14109e-05
0.0049607
1.17636e-05
0.00495666
1.21287e-05
0.0049525
1.25065e-05
0.00494821
1.28972e-05
0.00494379
1.33009e-05
0.00493923
1.37178e-05
0.00493452
1.4148e-05
0.00492967
1.45917e-05
0.00492467
1.5049e-05
0.00491951
1.55201e-05
0.00491419
1.60052e-05
0.00490871
1.65047e-05
0.00490305
1.70186e-05
0.00489722
1.75474e-05
0.00489122
1.80914e-05
0.00488502
1.8651e-05
0.00487864
1.92265e-05
0.00487206
1.98186e-05
0.00486528
2.04277e-05
0.00485829
2.10546e-05
0.00485109
2.17e-05
0.00484367
2.23649e-05
0.00483603
2.30506e-05
0.00482815
2.37594e-05
0.00482003
2.44972e-05
2.52798e-05
0.00481166
0.00505065
4.08397e-07
0.00505029
1.45189e-06
0.0050492
4.55413e-06
0.00504678
1.0193e-05
0.00504289
1.6309e-05
0.00503799
2.03028e-05
0.00503287
2.10102e-05
0.00502816
1.90507e-05
0.00502416
1.58992e-05
0.00502086
1.28743e-05
0.0050181
1.06797e-05
0.00501564
9.44986e-06
0.00501331
8.99971e-06
0.00501099
9.05453e-06
0.0050086
9.37785e-06
0.00500611
9.81185e-06
0.00500352
1.02701e-05
0.00500083
1.0715e-05
0.00499805
1.11365e-05
0.00499516
1.15372e-05
0.00499218
1.19245e-05
0.00498911
1.23059e-05
0.00498595
1.26879e-05
0.00498269
1.30755e-05
0.00497933
1.34724e-05
0.00497588
1.38811e-05
0.00497231
1.43032e-05
0.00496864
1.47402e-05
0.00496486
1.51926e-05
0.00496097
1.56612e-05
0.00495695
1.61464e-05
0.00495281
1.66483e-05
0.00494854
1.71673e-05
0.00494413
1.77035e-05
0.00493959
1.82572e-05
0.00493491
1.88284e-05
0.00493009
1.94175e-05
0.00492511
2.00246e-05
0.00491998
2.06499e-05
0.00491469
2.12938e-05
0.00490924
2.19564e-05
0.00490362
2.26382e-05
0.00489783
2.33396e-05
0.00489186
2.40608e-05
0.00488571
2.48026e-05
0.00487937
2.55652e-05
0.00487284
2.63496e-05
0.00486611
2.71562e-05
0.00485918
2.7986e-05
0.00485204
2.88398e-05
0.00484469
2.97189e-05
0.00483711
3.06248e-05
0.00482931
3.15603e-05
0.00482128
3.25323e-05
3.35596e-05
0.004813
0.00505065
5.16477e-07
0.00505029
1.80933e-06
0.00504925
5.59155e-06
0.00504696
1.24845e-05
0.00504326
2.0012e-05
0.00503856
2.5002e-05
0.00503357
2.5997e-05
0.00502891
2.37115e-05
0.00502489
1.99233e-05
0.00502152
1.62421e-05
0.00501866
1.35417e-05
0.00501611
1.2003e-05
0.00501369
1.14137e-05
0.0050113
1.14463e-05
0.00500886
1.1815e-05
0.00500635
1.23272e-05
0.00500374
1.28761e-05
0.00500104
1.34143e-05
0.00499825
1.39279e-05
0.00499537
1.44192e-05
0.0049924
1.48961e-05
0.00498934
1.53674e-05
0.00498618
1.58407e-05
0.00498294
1.63217e-05
0.00497959
1.68147e-05
0.00497615
1.73227e-05
0.00497261
1.78478e-05
0.00496896
1.83914e-05
0.0049652
1.89544e-05
0.00496132
1.95375e-05
0.00495732
2.01411e-05
0.00495321
2.07657e-05
0.00494896
2.14114e-05
0.00494459
2.20784e-05
0.00494008
2.27671e-05
0.00493543
2.34775e-05
0.00493064
2.421e-05
0.0049257
2.49647e-05
0.0049206
2.57419e-05
0.00491536
2.65419e-05
0.00490995
2.73651e-05
0.00490437
2.82118e-05
0.00489863
2.90826e-05
0.00489271
2.99778e-05
0.00488662
3.08981e-05
0.00488034
3.1844e-05
0.00487387
3.28163e-05
0.00486721
3.38159e-05
0.00486036
3.48435e-05
0.0048533
3.59003e-05
0.00484603
3.69875e-05
0.00483854
3.81069e-05
0.00483084
3.92613e-05
0.00482292
4.04578e-05
4.17157e-05
0.00481476
0.00505065
6.27989e-07
0.00505029
2.16338e-06
0.00504931
6.56975e-06
0.00504717
1.46255e-05
0.00504369
2.3495e-05
0.00503921
2.94788e-05
0.00503438
3.08256e-05
0.00502979
2.83097e-05
0.00502574
2.39734e-05
0.00502228
1.96952e-05
0.00501931
1.65144e-05
0.00501665
1.46665e-05
0.00501414
1.3923e-05
0.00501167
1.39123e-05
0.00500918
1.43055e-05
0.00500663
1.48779e-05
0.005004
1.55033e-05
0.00500129
1.6124e-05
0.0049985
1.67218e-05
0.00499562
1.72977e-05
0.00499266
1.78599e-05
0.00498961
1.84178e-05
0.00498647
1.89796e-05
0.00498324
1.95517e-05
0.00497991
2.01389e-05
0.00497649
2.07445e-05
0.00497297
2.13708e-05
0.00496934
2.20194e-05
0.0049656
2.26912e-05
0.00496175
2.33871e-05
0.00495779
2.41075e-05
0.0049537
2.48527e-05
0.00494949
2.56232e-05
0.00494515
2.6419e-05
0.00494068
2.72404e-05
0.00493607
2.80876e-05
0.00493131
2.89609e-05
0.00492642
2.98605e-05
0.00492137
3.07867e-05
0.00491618
3.17398e-05
0.00491082
3.27202e-05
0.0049053
3.37283e-05
0.00489962
3.47647e-05
0.00489377
3.58297e-05
0.00488774
3.69241e-05
0.00488154
3.80485e-05
0.00487515
3.92037e-05
0.00486858
4.03905e-05
0.00486181
4.16099e-05
0.00485485
4.2863e-05
0.00484768
4.41511e-05
0.00484032
4.54757e-05
0.00483274
4.68395e-05
0.00482495
4.82488e-05
4.97208e-05
0.00481694
0.00505064
7.43206e-07
0.00505029
2.51345e-06
0.00504938
7.48478e-06
0.0050474
1.66047e-05
0.00504415
2.67406e-05
0.00503992
3.37145e-05
0.00503526
3.54809e-05
0.00503073
3.28373e-05
0.00502666
2.80487e-05
0.00502312
2.32377e-05
0.00502003
1.96048e-05
0.00501724
1.74481e-05
0.00501463
1.65342e-05
0.00501209
1.64579e-05
0.00500954
1.68531e-05
0.00500695
1.74664e-05
0.0050043
1.81527e-05
0.00500158
1.88441e-05
0.00499879
1.95172e-05
0.00499591
2.01713e-05
0.00499296
2.08138e-05
0.00498992
2.14544e-05
0.0049868
2.21016e-05
0.00498359
2.27623e-05
0.00498029
2.34414e-05
0.00497689
2.41425e-05
0.00497339
2.4868e-05
0.00496979
2.56195e-05
0.00496608
2.63982e-05
0.00496227
2.72049e-05
0.00495833
2.80399e-05
0.00495428
2.89036e-05
0.00495011
2.97964e-05
0.00494581
3.07185e-05
0.00494138
3.167e-05
0.00493682
3.26512e-05
0.00493212
3.36624e-05
0.00492727
3.47036e-05
0.00492228
3.57754e-05
0.00491715
3.68779e-05
0.00491185
3.80116e-05
0.00490641
3.9177e-05
0.0049008
4.03744e-05
0.00489502
4.16044e-05
0.00488908
4.28677e-05
0.00488296
4.4165e-05
0.00487667
4.5497e-05
0.00487019
4.68646e-05
0.00486354
4.82687e-05
0.00485669
4.97104e-05
0.00484965
5.11909e-05
0.00484241
5.27115e-05
0.00483498
5.42743e-05
0.00482734
5.58829e-05
0.00481952
5.75472e-05
0.00481191
-1.60238e-06
-5.73283e-10
0.004813
-1.09005e-06
-7.82467e-10
0.00481355
-5.42351e-07
-9.82306e-10
0.0048135
5.09499e-08
-1.14742e-09
0.00481283
6.6424e-07
-1.3916e-09
0.00481151
1.32528e-06
-1.59396e-09
0.00480949
2.02309e-06
-1.77468e-09
0.00480673
2.75748e-06
-1.94226e-09
0.00480321
3.52788e-06
-2.09426e-09
0.00479888
4.33426e-06
-2.22857e-09
0.0047937
5.17821e-06
-2.34376e-09
0.00478764
6.06376e-06
-2.43895e-09
0.00478064
6.99816e-06
-2.51333e-09
0.00477265
7.99247e-06
-2.5614e-09
0.00476359
9.06181e-06
-2.59938e-09
0.00475337
1.02252e-05
-2.56714e-09
0.00474187
1.15045e-05
-2.56468e-09
0.00472895
1.29242e-05
-2.55401e-09
0.00471444
1.45103e-05
-2.5109e-09
0.00469815
1.62901e-05
-2.50951e-09
0.00467986
1.82919e-05
-2.45655e-09
0.00465932
2.05446e-05
-2.39281e-09
0.00463624
2.30781e-05
-2.32837e-09
0.00461032
2.59252e-05
-2.26632e-09
0.0045812
2.91221e-05
-2.207e-09
0.00454849
3.27113e-05
-2.14915e-09
0.00451175
3.67432e-05
-2.09059e-09
0.00447047
4.12787e-05
-2.02764e-09
0.00442408
4.63926e-05
-1.95595e-09
0.00437191
5.2177e-05
-1.87123e-09
0.00431317
5.87457e-05
-1.76958e-09
0.00424693
6.62396e-05
-1.64861e-09
0.0041721
7.48334e-05
-1.50753e-09
0.00408735
8.47448e-05
-1.34753e-09
0.00399111
9.62442e-05
-1.17197e-09
0.00388144
0.000109667
-9.86092e-10
0.00375602
0.000125422
-7.96206e-10
0.00361202
0.000144002
-6.08714e-10
0.00344605
0.000165967
-4.29949e-10
0.00325414
0.000191912
-2.65671e-10
0.00303178
0.000222365
-1.21187e-10
0.00277419
0.000257593
-1.39027e-12
0.00247692
0.000297267
8.87067e-11
0.00213701
0.000339912
1.45503e-10
0.00175493
0.00038208
1.64012e-10
0.00133773
0.000417193
1.46145e-10
0.000903666
0.000434067
1.06823e-10
0.00048857
0.000415096
7.93551e-11
0.000155059
0.000333511
1.01639e-10
0.000155059
1.29734e-10
0.004811
-1.83753e-06
0.00481072
-8.1529e-07
0.00480989
2.84072e-07
0.0048085
1.44685e-06
0.00480648
2.68695e-06
0.0048038
4.00393e-06
0.00480042
5.39633e-06
0.00479632
6.86254e-06
0.00479145
8.40137e-06
0.00478577
1.00131e-05
0.00477924
1.17011e-05
0.00477183
1.34737e-05
0.00476349
1.53454e-05
0.00475414
1.73384e-05
0.00474372
1.9483e-05
0.00473213
2.18167e-05
0.00471925
2.43835e-05
0.00470494
2.72316e-05
0.00468904
3.04127e-05
0.00467135
3.39813e-05
0.00465165
3.79936e-05
0.00462968
4.25069e-05
0.00460518
4.75814e-05
0.00457782
5.32823e-05
0.00454726
5.96826e-05
0.00451311
6.68672e-05
0.00447491
7.49372e-05
0.00443218
8.40148e-05
0.00438432
9.42498e-05
0.00433067
0.000105826
0.00427045
0.000118971
0.00420272
0.000133965
0.0041264
0.000151156
0.00404016
0.000170977
0.00394245
0.000193962
0.00383134
0.000220775
0.00370454
0.000252222
0.00355927
0.000289269
0.00339222
0.000333014
0.00319953
0.000384605
0.00297685
0.000445047
0.00271963
0.000514813
0.00242373
0.000593168
0.00208655
0.000677091
0.00170897
0.00075966
0.00129838
0.000827778
0.000873217
0.000859233
0.000468973
0.00081934
0.000146012
0.000656473
0.00030107
0.00480917
6.46281e-07
0.00480619
2.17411e-06
0.00480266
3.8084e-06
0.00479856
5.54993e-06
0.00479384
7.40423e-06
0.00478847
9.37239e-06
0.00478241
1.14539e-05
0.00477563
1.3647e-05
0.00476808
1.59506e-05
0.00475973
1.83656e-05
0.00475053
2.08976e-05
0.00474045
2.35595e-05
0.00472942
2.63736e-05
0.00471738
2.93733e-05
0.00470426
3.26035e-05
0.00468996
3.61205e-05
0.00467435
3.99893e-05
0.0046573
4.42814e-05
0.00463864
4.90738e-05
0.00461818
5.44473e-05
0.00459568
6.04853e-05
0.00457092
6.72736e-05
0.0045436
7.49022e-05
0.00451341
8.3469e-05
0.00448001
9.3084e-05
0.004443
0.000103875
0.00440194
0.000115994
0.00435633
0.000129626
0.00430559
0.000144995
0.00424904
0.000162376
0.0041859
0.000182111
0.00411525
0.000204616
0.00403599
0.00023041
0.00394684
0.000260132
0.00384623
0.000294573
0.0037323
0.000334706
0.00360281
0.000381713
0.00345508
0.000436993
0.00328597
0.000502124
0.00309184
0.000578735
0.00286869
0.000668202
0.00261243
0.00077107
0.00231954
0.000886054
0.00198817
0.00100846
0.00161995
0.00112788
0.00122285
0.00122488
0.000815388
0.0012667
0.000432615
0.00120211
0.000132135
0.000956953
0.000433205
0.00480648
7.16151e-06
0.00479947
9.18698e-06
0.00479192
1.13514e-05
0.00478381
1.36606e-05
0.0047751
1.6119e-05
0.00476574
1.87291e-05
0.00475571
2.14909e-05
0.00474495
2.44032e-05
0.00473343
2.74652e-05
0.00472112
3.06792e-05
0.00470796
3.40539e-05
0.00469392
3.76071e-05
0.00467892
4.1369e-05
0.00466291
4.53842e-05
0.0046458
4.97128e-05
0.00462749
5.44286e-05
0.00460787
5.96174e-05
0.00458677
6.53733e-05
0.00456405
7.17971e-05
0.0045395
7.89955e-05
0.00451291
8.70782e-05
0.00448402
9.6159e-05
0.00445257
0.000106358
0.00441823
0.000117805
0.00438067
0.000130648
0.00433949
0.000145058
0.00429424
0.000161239
0.00424443
0.000179439
0.00418947
0.000199956
0.00412868
0.000223159
0.0040613
0.000249497
0.00398639
0.000279524
0.00390288
0.000313922
0.00380948
0.000353527
0.00370469
0.00039937
0.00358668
0.000452709
0.00345334
0.00051506
0.00330213
0.000588197
0.00313016
0.000674092
0.00293417
0.00077473
0.00271068
0.000891695
0.00245634
0.0010254
0.00216859
0.0011738
0.00184668
0.00133038
0.00149333
0.00148123
0.00111715
0.00160106
0.000736263
0.00164758
0.00038381
0.00155457
0.000112347
0.00122842
0.000545552
0.00480295
1.89736e-05
0.00479065
2.14846e-05
0.00477784
2.41675e-05
0.00476447
2.70304e-05
0.00475051
3.00795e-05
0.00473592
3.33184e-05
0.00472066
3.67479e-05
0.0047047
4.03678e-05
0.00468798
4.41786e-05
0.00467048
4.81845e-05
0.00465213
5.23977e-05
0.0046329
5.68417e-05
0.00461271
6.1555e-05
0.0045915
6.65938e-05
0.00456918
7.20325e-05
0.00454565
7.79625e-05
0.00452078
8.44892e-05
0.00449442
9.17284e-05
0.00446641
9.98041e-05
0.00443656
0.000108847
0.00440465
0.000118994
0.00437042
0.000130384
0.00433361
0.000143168
0.00429391
0.000157508
0.00425097
0.000173591
0.00420439
0.000191632
0.00415374
0.000211887
0.00409852
0.000234667
0.00403813
0.000260346
0.0039719
0.000289382
0.00389906
0.000322336
0.0038187
0.00035989
0.00372974
0.000402881
0.00363093
0.000452332
0.00352082
0.000509487
0.00339767
0.000575854
0.00325951
0.000653224
0.00310404
0.000743662
0.00292873
0.000849406
0.00273084
0.000972621
0.00250767
0.00111486
0.00225693
0.00127614
0.00197738
0.00145335
0.00166981
0.00163795
0.00133836
0.00181268
0.000992287
0.00194713
0.000648439
0.00199143
0.000334824
0.00186818
9.28516e-05
0.00147039
0.000638404
0.00479864
3.72778e-05
0.00477987
4.02564e-05
0.00476059
4.34403e-05
0.00474078
4.68393e-05
0.0047204
5.04616e-05
0.00469941
5.4312e-05
0.00467776
5.83929e-05
0.00465543
6.27051e-05
0.00463235
6.7251e-05
0.0046085
7.20376e-05
0.00458382
7.70811e-05
0.00455825
8.24114e-05
0.00453173
8.80759e-05
0.00450418
9.41424e-05
0.00447551
0.000100699
0.00444562
0.000107855
0.00441437
0.000115735
0.00438163
0.000124474
0.00434721
0.00013422
0.00431093
0.000145125
0.00427258
0.000157352
0.00423189
0.000171067
0.00418861
0.000186449
0.00414243
0.000203695
0.00409299
0.000223028
0.00403991
0.000244711
0.00398275
0.000269052
0.00392099
0.000296425
0.00385405
0.000327282
0.00378126
0.00036217
0.00370184
0.000401757
0.00361488
0.00044685
0.00351933
0.000498431
0.00341398
0.000557687
0.00329742
0.000626049
0.00316805
0.000705218
0.0030241
0.000797178
0.00286361
0.00090415
0.00268457
0.00102845
0.00248506
0.00117213
0.00226355
0.00133637
0.00201936
0.00152033
0.0017533
0.00171941
0.00146852
0.00192273
0.00117129
0.00210991
0.000871837
0.00224658
0.000584689
0.00227858
0.000327282
0.00212559
0.000113169
0.0016845
0.000751573
0.00479362
6.31764e-05
0.00476728
6.65977e-05
0.00474046
7.02597e-05
0.00471312
7.41726e-05
0.00468524
7.83459e-05
0.00465677
8.27859e-05
0.00462766
8.74964e-05
0.00459789
9.24798e-05
0.0045674
9.77406e-05
0.00453615
0.000103289
0.00450408
0.000109147
0.00447114
0.00011535
0.00443726
0.000121955
0.00440236
0.000129042
0.00436635
0.000136714
0.00432911
0.000145095
0.00429052
0.000154329
0.00425042
0.000164571
0.00420865
0.000175989
0.00416501
0.00018876
0.0041193
0.000203068
0.00407126
0.000219105
0.00402063
0.00023708
0.0039671
0.000257222
0.00391033
0.000279795
0.00384994
0.000305106
0.00378547
0.000333518
0.00371643
0.00036547
0.00364222
0.000401489
0.00356218
0.000442214
0.00347552
0.000488416
0.00338135
0.000541023
0.00327862
0.000601152
0.00316617
0.00067014
0.00304265
0.000749571
0.00290658
0.000841289
0.00275638
0.00094738
0.00259045
0.00107008
0.00240736
0.00121154
0.00220612
0.00137337
0.00198662
0.00155587
0.00175025
0.0017567
0.00150065
0.001969
0.0012445
0.00217888
0.000992127
0.00236229
0.000757079
0.00248163
0.000553391
0.00248227
0.000386064
0.00229292
0.000234161
0.0018364
0.000985734
-2.62699e-05
2.62663e-05
3.59783e-09
-5.92488e-05
3.29719e-05
7.0741e-09
-7.27542e-05
1.34974e-05
8.03947e-09
-5.37387e-05
-1.90231e-05
7.64554e-09
3.15523e-06
-5.69008e-05
6.80516e-09
9.84444e-05
-9.5295e-05
5.76603e-09
0.000229559
-0.000131119
4.67581e-09
0.000392092
-0.000162536
3.62388e-09
0.000580673
-0.000188584
2.65273e-09
0.000789584
-0.000208912
1.79273e-09
0.00101316
-0.000223573
1.0637e-09
0.00124605
-0.000232894
4.74437e-10
0.00148342
-0.000237368
4.00826e-11
0.00172101
-0.00023759
-2.73314e-10
0.0019552
-0.000234193
-4.50366e-10
0.00218302
-0.000227817
-5.08348e-10
0.00240209
-0.000219074
-4.45879e-10
0.00261063
-0.000208537
-2.50173e-10
0.00280735
-0.000196722
9.62905e-11
0.00299144
-0.000184086
7.68605e-10
0.00316246
-0.000171023
1.23236e-09
0.00332032
-0.000157864
2.49816e-09
0.0034652
-0.00014488
2.71208e-09
0.00359748
-0.000132288
2.63167e-09
0.00371773
-0.000120248
3.16599e-09
0.00382661
-0.00010888
2.81253e-09
0.00392486
-9.82622e-05
2.98369e-09
0.0040133
-8.84374e-05
3.04126e-09
0.00409271
-7.94189e-05
2.97732e-09
0.00416391
-7.11965e-05
2.86412e-09
0.00422765
-6.37423e-05
2.77356e-09
0.00428466
-5.70152e-05
2.74818e-09
0.00433562
-5.0966e-05
2.81481e-09
0.00438116
-4.55401e-05
2.97834e-09
0.00442184
-4.06814e-05
3.23425e-09
0.00445817
-3.63341e-05
3.56723e-09
0.00449061
-3.24444e-05
3.95671e-09
0.00451957
-2.89621e-05
4.37649e-09
0.0045454
-2.58409e-05
4.80221e-09
0.00456844
-2.3039e-05
5.21222e-09
0.00458895
-2.05189e-05
5.58608e-09
0.00460719
-1.82477e-05
5.91146e-09
0.00462338
-1.61965e-05
6.18255e-09
0.00463772
-1.43399e-05
6.3966e-09
0.00465037
-1.2656e-05
6.55878e-09
0.00466148
-1.11258e-05
6.6768e-09
0.00467121
-9.73302e-06
6.75855e-09
0.00467967
-8.46315e-06
6.8152e-09
0.00468696
-7.30365e-06
6.85642e-09
-6.24322e-06
0.0046932
6.8874e-09
-2.26353e-05
4.89015e-05
-4.77223e-05
5.80589e-05
-5.29523e-05
1.87274e-05
-2.71879e-05
-4.47875e-05
3.44649e-05
-0.000118554
0.000132405
-0.000193235
0.000264214
-0.000262929
0.000425736
-0.000324058
0.000611922
-0.000374771
0.000817388
-0.000414377
0.00103678
-0.000442968
0.00126505
-0.000461159
0.00149758
-0.000469901
0.00173033
-0.000470336
0.00195983
-0.000463692
0.00218322
-0.000451208
0.00239822
-0.000434078
0.0026031
-0.000413415
0.0027966
-0.000390227
0.00297793
-0.000365409
0.00314664
-0.000339733
0.00330262
-0.000313846
0.00344602
-0.000288281
0.0035772
-0.000263468
0.00369669
-0.000239733
0.00380511
-0.000217304
0.00390318
-0.000196337
0.00399167
-0.000176921
0.00407133
-0.000159086
0.00414295
-0.000142813
0.00420726
-0.000128051
0.00426496
-0.000114719
0.00431672
-0.000102723
0.00436314
-9.19561e-05
0.00440476
-8.23089e-05
0.0044421
-7.36723e-05
0.0044756
-6.59411e-05
0.00450565
-5.90163e-05
0.00453262
-5.28071e-05
0.00455681
-4.72311e-05
0.00457851
-4.22145e-05
0.00459795
-3.76922e-05
0.00461536
-3.3607e-05
0.00463093
-2.99087e-05
0.00464483
-2.65541e-05
0.00465721
-2.35054e-05
0.00466821
-2.073e-05
0.00467794
-1.81994e-05
0.00468653
-1.58883e-05
-1.3774e-05
0.00469406
-1.50078e-05
6.39093e-05
-2.54794e-05
6.85304e-05
-1.51152e-05
8.36317e-06
2.22327e-05
-8.21354e-05
9.18856e-05
-0.000188206
0.000194055
-0.000295404
0.000326412
-0.000395286
0.000485316
-0.000482961
0.000666368
-0.000555824
0.000864842
-0.000612851
0.001076
-0.000654122
0.0012953
-0.000680467
0.00151861
-0.000693206
0.00174222
-0.000693944
0.00196295
-0.000684421
0.00217814
-0.000666403
0.00238567
-0.000641602
0.00258387
-0.000611619
0.00277155
-0.000577912
0.00294792
-0.000541776
0.00311252
-0.000504332
0.0032652
-0.000466524
0.00340605
-0.000429136
0.00353538
-0.000392792
0.00365363
-0.000357985
0.00376139
-0.000325061
0.00385929
-0.00029424
0.00394803
-0.000265664
0.00402833
-0.000239384
0.0041009
-0.000215379
0.00416642
-0.000193577
0.00422557
-0.000173866
0.00427896
-0.000156112
0.00432716
-0.000140162
0.00437071
-0.000125857
0.00441008
-0.00011304
0.00444569
-0.000101557
0.00447794
-9.12658e-05
0.00450717
-8.2032e-05
0.00453367
-7.37353e-05
0.00455773
-6.62676e-05
0.00457957
-5.95332e-05
0.00459941
-5.34475e-05
0.00461744
-4.79369e-05
0.00463382
-4.29371e-05
0.00464871
-3.83925e-05
0.00466223
-3.42546e-05
0.00467451
-3.0481e-05
0.00468566
-2.70342e-05
-2.38789e-05
0.00469576
-1.72051e-06
6.56298e-05
6.94286e-06
5.98671e-05
3.42596e-05
-1.89536e-05
8.67135e-05
-0.000134589
0.000166301
-0.000267794
0.000272595
-0.000401699
0.000403917
-0.000526608
0.000557569
-0.000636613
0.000730164
-0.000728419
0.000917937
-0.000800624
0.001117
-0.000853189
0.00132356
-0.000887023
0.00153403
-0.000903675
0.00174517
-0.000905081
0.00195412
-0.000893379
0.00215848
-0.000870762
0.00235626
-0.000839377
0.00254588
-0.000801245
0.00272619
-0.00075822
0.00289637
-0.000711957
0.00305594
-0.000663897
0.00320467
-0.00061526
0.00334259
-0.00056705
0.00346989
-0.0005201
0.00358696
-0.000475048
0.00369425
-0.000432353
0.00379234
-0.000392328
0.00388183
-0.000355156
0.00396336
-0.000320916
0.00403757
-0.000289592
0.0041051
-0.000261102
0.00416654
-0.000235309
0.00422248
-0.000212045
0.00427343
-0.000191119
0.00431991
-0.00017233
0.00436234
-0.000155478
0.00440115
-0.000140366
0.0044367
-0.000126809
0.0044693
-0.000114637
0.00449926
-0.000103693
0.00452683
-9.38372e-05
0.00455224
-8.49447e-05
0.0045757
-7.69057e-05
0.00459739
-6.9624e-05
0.00461746
-6.30156e-05
0.00463608
-5.70074e-05
0.00465336
-5.15358e-05
0.00466942
-4.6545e-05
0.00468438
-4.19851e-05
-3.78083e-05
0.0046983
1.26704e-05
5.29595e-05
4.3657e-05
2.88804e-05
9.21506e-05
-6.74472e-05
0.000160787
-0.000203226
0.000248977
-0.000355984
0.000356741
-0.000509463
0.00048349
-0.000653357
0.000627879
-0.000781001
0.000787877
-0.000888417
0.000960947
-0.000973694
0.00114424
-0.00103648
0.00133477
-0.00107756
0.00152962
-0.00109852
0.00172599
-0.00110145
0.00192135
-0.00108874
0.00211349
-0.0010629
0.00230052
-0.00102641
0.00248091
-0.000981639
0.00265348
-0.000930791
0.00281737
-0.000875842
0.00297199
-0.000818524
0.00311705
-0.000760316
0.00325245
-0.000702447
0.00337827
-0.000645923
0.00349477
-0.000591547
0.00360232
-0.000539901
0.00370137
-0.000491377
0.00379243
-0.000446225
0.00387608
-0.000404557
0.00395285
-0.000366369
0.00402332
-0.000331575
0.00408804
-0.000300025
0.00414752
-0.000271525
0.00420226
-0.000245854
0.0042527
-0.000222775
0.00429927
-0.000202051
0.00434235
-0.000183447
0.00438229
-0.000166743
0.00441938
-0.000151732
0.00445392
-0.000138227
0.00448614
-0.000126057
0.00451626
-0.000115072
0.00454449
-0.000105136
0.004571
-9.61341e-05
0.00459595
-8.7962e-05
0.00461947
-8.05304e-05
0.0046417
-7.37612e-05
0.00466274
-6.75858e-05
0.0046827
-6.19422e-05
-5.67695e-05
0.00470166
3.31446e-05
1.98149e-05
9.00833e-05
-2.80583e-05
0.000160119
-0.000137483
0.000241533
-0.00028464
0.000333649
-0.0004481
0.000437389
-0.000613203
0.000553782
-0.000769749
0.00068327
-0.00091049
0.000825499
-0.00103065
0.000979358
-0.00112755
0.00114314
-0.00120027
0.00131475
-0.00124916
0.00149183
-0.00127561
0.00167203
-0.00128164
0.00185302
-0.00126973
0.00203269
-0.00124257
0.00220917
-0.00120288
0.00238086
-0.00115333
0.00254649
-0.00109641
0.00270505
-0.0010344
0.00285583
-0.000969308
0.00299838
-0.000902868
0.00313247
-0.000836535
0.00325805
-0.000771504
0.00337523
-0.000708725
0.00348425
-0.000648922
0.00358547
-0.000592597
0.00367931
-0.00054006
0.00376622
-0.00049147
0.0038467
-0.000446849
0.00392124
-0.000406118
0.00399034
-0.000369122
0.00405446
-0.00033565
0.00411407
-0.000305456
0.00416957
-0.000278276
0.00422136
-0.000253841
0.0042698
-0.000231884
0.00431521
-0.000212152
0.00435788
-0.000194407
0.00439808
-0.000178431
0.00443605
-0.000164027
0.004472
-0.000151019
0.00450611
-0.00013925
0.00453856
-0.000128584
0.0045695
-0.000118899
0.00459906
-0.00011009
0.00462736
-0.000102064
0.00465452
-9.47423e-05
0.00468063
-8.80499e-05
-8.19142e-05
0.00470577
6.08923e-05
-4.10775e-05
0.000145924
-0.00011309
0.000233361
-0.000224919
0.00031978
-0.000371059
0.000407115
-0.000535435
0.000498586
-0.000704674
0.000597445
-0.000868608
0.000706162
-0.00101921
0.000826096
-0.00115058
0.000957498
-0.00125896
0.00109968
-0.00134245
0.00125123
-0.00140071
0.00141026
-0.00143464
0.00157462
-0.00144601
0.0017421
-0.00143721
0.00191054
-0.00141101
0.00207795
-0.0013703
0.00224259
-0.00131798
0.002403
-0.00125683
0.00255801
-0.0011894
0.0027067
-0.001118
0.00284846
-0.00104462
0.00298288
-0.000970961
0.00310977
-0.000898397
0.00322912
-0.000828067
0.00334103
-0.000760832
0.00344574
-0.000697315
0.0035436
-0.000637921
0.00363499
-0.000582858
0.00372033
-0.000532186
0.00380005
-0.000485843
0.00387461
-0.000443678
0.00394443
-0.000405472
0.00400994
-0.000370961
0.00407152
-0.000339859
0.00412955
-0.000311868
0.00418436
-0.000286694
0.00423626
-0.000264053
0.00428553
-0.000243678
0.00433242
-0.000225326
0.00437717
-0.000208773
0.00441997
-0.000193818
0.00446101
-0.000180285
0.00450044
-0.000168017
0.00453841
-0.000156875
0.00457506
-0.00014674
0.00461051
-0.000137506
0.00464484
-0.00012908
0.00467817
-0.000121379
0.00471058
-0.000114323
0.00470873
-1.55331e-05
6.94838e-09
0.00472368
-1.49595e-05
7.09728e-09
0.00473809
-1.44221e-05
7.23456e-09
0.00475201
-1.39193e-05
7.3721e-09
0.00476545
-1.34483e-05
7.52633e-09
0.00477844
-1.30043e-05
7.70497e-09
0.00479102
-1.25806e-05
7.91056e-09
0.00480318
-1.2168e-05
8.14306e-09
0.00481492
-1.17549e-05
8.39585e-09
0.00482624
-1.1328e-05
8.65662e-09
0.00483711
-1.08739e-05
8.91181e-09
0.00484748
-1.03814e-05
9.14637e-09
0.00485731
-9.84463e-06
9.33881e-09
0.00486657
-9.26531e-06
9.46771e-09
0.00487521
-8.65451e-06
9.51563e-09
0.00488324
-8.03218e-06
9.46817e-09
0.00489065
-7.42444e-06
9.31465e-09
0.0048975
-6.85902e-06
9.05599e-09
0.00490385
-6.36003e-06
8.70271e-09
0.00490979
-5.94332e-06
8.26907e-09
0.0049154
-5.61394e-06
7.77488e-09
0.00492075
-5.36618e-06
7.24374e-09
0.00492593
-5.18603e-06
6.69474e-09
0.00493098
-5.05499e-06
6.14219e-09
0.00493593
-4.954e-06
5.60002e-09
0.00494079
-4.8666e-06
5.07756e-09
0.00494557
-4.78064e-06
4.57691e-09
0.00495025
-4.68858e-06
4.09924e-09
0.00495484
-4.58694e-06
3.64598e-09
0.00495931
-4.47513e-06
3.21423e-09
0.00496366
-4.35432e-06
2.80058e-09
0.00496788
-4.22649e-06
2.40545e-09
0.00497198
-4.09381e-06
2.02756e-09
0.00497593
-3.95828e-06
1.66377e-09
0.00497975
-3.82155e-06
1.31387e-09
0.00498344
-3.68491e-06
9.7883e-10
0.00498698
-3.54937e-06
6.59192e-10
0.0049904
-3.41563e-06
3.60908e-10
0.00499368
-3.28423e-06
9.13807e-11
0.00499684
-3.15552e-06
-1.46928e-10
0.00499987
-3.02975e-06
-3.56041e-10
0.00500278
-2.90709e-06
-5.40002e-10
0.00500557
-2.78761e-06
-7.09621e-10
0.00500824
-2.67137e-06
-8.68727e-10
0.0050108
-2.55838e-06
-1.03982e-09
0.00501325
-2.4486e-06
-1.21923e-09
0.00501559
-2.34202e-06
-1.39583e-09
0.00501783
-2.23862e-06
-1.58646e-09
0.00501997
-2.13831e-06
-1.79827e-09
0.00502201
-2.04103e-06
-2.03927e-09
0.00502396
-1.94673e-06
-2.31135e-09
0.00502582
-1.85536e-06
-2.60966e-09
0.00502759
-1.76687e-06
-2.92209e-09
0.00502928
-1.68121e-06
-3.22928e-09
0.00503088
-1.59836e-06
-3.51216e-09
0.0050324
-1.51828e-06
-3.75286e-09
0.00503384
-1.4409e-06
-3.94202e-09
0.00503521
-1.36617e-06
-4.081e-09
0.00503651
-1.29402e-06
-4.18846e-09
0.00503774
-1.22438e-06
-4.29558e-09