/*--------------------------------*- C++ -*----------------------------------*\
| =========                 |                                                 |
| \\      /  F ield         | OpenFOAM: The Open Source CFD Toolbox           |
|  \\    /   O peration     | Version:  2412                                  |
|   \\  /    A nd           | Website:  www.openfoam.com                      |
|    \\/     M anipulation  |                                                 |
\*---------------------------------------------------------------------------*/
FoamFile
{
    version     2.0;
    format      ascii;
    arch        "LSB;label=32;scalar=64";
    class       volVectorField;
    location    "9";
    object      U;
}
// * * * * * * * * * * * * * * * * * * * * * * * * * * * * * * * * * * * * * //

dimensions      [0 1 -1 0 0 0 0];

internalField   nonuniform List<vector> 
63420
(
(0.100002 3.37246e-07 0)
(0.099995 1.25988e-06 0)
(0.0999859 4.152e-06 0)
(0.09995 9.52609e-06 0)
(0.0998811 1.54958e-05 0)
(0.0997838 1.95434e-05 0)
(0.099675 2.04382e-05 0)
(0.0995721 1.86813e-05 0)
(0.0994849 1.56817e-05 0)
(0.0994152 1.27644e-05 0)
(0.0993594 1.06765e-05 0)
(0.0993121 9.59099e-06 0)
(0.0992685 9.33995e-06 0)
(0.0992252 9.64614e-06 0)
(0.0991806 1.02611e-05 0)
(0.0991336 1.10144e-05 0)
(0.0990843 1.18106e-05 0)
(0.0990325 1.26074e-05 0)
(0.0989784 1.33939e-05 0)
(0.0989223 1.41745e-05 0)
(0.0988641 1.49591e-05 0)
(0.0988041 1.57584e-05 0)
(0.0987421 1.65823e-05 0)
(0.0986781 1.74388e-05 0)
(0.0986123 1.83345e-05 0)
(0.0985444 1.9275e-05 0)
(0.0984744 2.02646e-05 0)
(0.0984023 2.13073e-05 0)
(0.098328 2.24066e-05 0)
(0.0982514 2.35657e-05 0)
(0.0981724 2.47879e-05 0)
(0.098091 2.60762e-05 0)
(0.098007 2.74337e-05 0)
(0.0979204 2.88636e-05 0)
(0.097831 3.03693e-05 0)
(0.0977389 3.1954e-05 0)
(0.0976438 3.36214e-05 0)
(0.0975458 3.53751e-05 0)
(0.0974447 3.72192e-05 0)
(0.0973404 3.91576e-05 0)
(0.0972329 4.11948e-05 0)
(0.097122 4.33354e-05 0)
(0.0970077 4.55843e-05 0)
(0.0968897 4.79467e-05 0)
(0.0967682 5.04282e-05 0)
(0.0966428 5.30349e-05 0)
(0.0965136 5.57731e-05 0)
(0.0963804 5.86498e-05 0)
(0.0962431 6.16726e-05 0)
(0.0961015 6.48498e-05 0)
(0.0959556 6.81906e-05 0)
(0.0958052 7.17064e-05 0)
(0.0956502 7.54126e-05 0)
(0.0954903 7.9339e-05 0)
(0.0953254 8.35552e-05 0)
(0.100002 1.01554e-06 0)
(0.0999949 3.77794e-06 0)
(0.0999859 1.23955e-05 0)
(0.0999506 2.84129e-05 0)
(0.0998826 4.62319e-05 0)
(0.0997865 5.8357e-05 0)
(0.0996787 6.11064e-05 0)
(0.0995763 5.59512e-05 0)
(0.0994892 4.70727e-05 0)
(0.0994191 3.84148e-05 0)
(0.0993628 3.2207e-05 0)
(0.0993149 2.89725e-05 0)
(0.0992707 2.82183e-05 0)
(0.0992271 2.91236e-05 0)
(0.0991821 3.09512e-05 0)
(0.099135 3.31942e-05 0)
(0.0990854 3.55683e-05 0)
(0.0990336 3.79477e-05 0)
(0.0989795 4.02992e-05 0)
(0.0989233 4.26351e-05 0)
(0.0988652 4.49844e-05 0)
(0.0988052 4.73791e-05 0)
(0.0987432 4.98479e-05 0)
(0.0986794 5.2415e-05 0)
(0.0986136 5.50998e-05 0)
(0.0985457 5.79186e-05 0)
(0.0984759 6.08846e-05 0)
(0.0984039 6.40097e-05 0)
(0.0983296 6.73042e-05 0)
(0.0982531 7.07778e-05 0)
(0.0981743 7.44401e-05 0)
(0.0980929 7.83001e-05 0)
(0.0980091 8.23673e-05 0)
(0.0979226 8.66512e-05 0)
(0.0978334 9.11615e-05 0)
(0.0977414 9.59084e-05 0)
(0.0976465 0.000100903 0)
(0.0975487 0.000106155 0)
(0.0974478 0.000111678 0)
(0.0973437 0.000117482 0)
(0.0972364 0.000123583 0)
(0.0971257 0.000129992 0)
(0.0970116 0.000136726 0)
(0.0968939 0.000143799 0)
(0.0967726 0.000151228 0)
(0.0966476 0.000159031 0)
(0.0965186 0.000167227 0)
(0.0963858 0.000175838 0)
(0.0962488 0.000184884 0)
(0.0961076 0.000194392 0)
(0.0959621 0.000204389 0)
(0.0958122 0.000214908 0)
(0.0956576 0.000225994 0)
(0.0954983 0.000237735 0)
(0.095334 0.000250335 0)
(0.100002 1.70279e-06 0)
(0.0999949 6.28784e-06 0)
(0.099986 2.04829e-05 0)
(0.0999516 4.6896e-05 0)
(0.0998856 7.6369e-05 0)
(0.0997918 9.6558e-05 0)
(0.0996859 0.000101337 0)
(0.0995845 9.30538e-05 0)
(0.0994975 7.85549e-05 0)
(0.0994268 6.43337e-05 0)
(0.0993694 5.40864e-05 0)
(0.0993204 4.87057e-05 0)
(0.0992752 4.74043e-05 0)
(0.0992307 4.88452e-05 0)
(0.0991851 5.18207e-05 0)
(0.0991376 5.54966e-05 0)
(0.0990878 5.94029e-05 0)
(0.0990358 6.33295e-05 0)
(0.0989816 6.72194e-05 0)
(0.0989254 7.10905e-05 0)
(0.0988674 7.49893e-05 0)
(0.0988074 7.89672e-05 0)
(0.0987455 8.30711e-05 0)
(0.0986818 8.734e-05 0)
(0.0986161 9.18061e-05 0)
(0.0985485 9.64957e-05 0)
(0.0984788 0.000101431 0)
(0.0984069 0.000106631 0)
(0.0983329 0.000112113 0)
(0.0982566 0.000117893 0)
(0.0981779 0.000123986 0)
(0.0980969 0.000130409 0)
(0.0980132 0.000137176 0)
(0.097927 0.000144303 0)
(0.0978381 0.000151806 0)
(0.0977464 0.000159702 0)
(0.0976519 0.000168009 0)
(0.0975544 0.000176745 0)
(0.0974538 0.00018593 0)
(0.0973501 0.000195583 0)
(0.0972432 0.000205726 0)
(0.097133 0.000216383 0)
(0.0970193 0.000227578 0)
(0.0969022 0.000239335 0)
(0.0967814 0.000251683 0)
(0.096657 0.000264651 0)
(0.0965287 0.00027827 0)
(0.0963965 0.000292575 0)
(0.0962602 0.000307602 0)
(0.0961198 0.000323392 0)
(0.0959752 0.00033999 0)
(0.0958261 0.00035745 0)
(0.0956725 0.000375844 0)
(0.0955142 0.000395312 0)
(0.0953511 0.000416172 0)
(0.100002 2.40438e-06 0)
(0.0999948 8.78447e-06 0)
(0.0999861 2.83193e-05 0)
(0.0999532 6.47296e-05 0)
(0.0998898 0.000105542 0)
(0.0997994 0.000133772 0)
(0.0996963 0.00014086 0)
(0.0995964 0.000129884 0)
(0.0995095 0.000110181 0)
(0.0994379 9.06819e-05 0)
(0.099379 7.65253e-05 0)
(0.0993283 6.90033e-05 0)
(0.0992817 6.70842e-05 0)
(0.099236 6.89589e-05 0)
(0.0991896 7.29781e-05 0)
(0.0991414 7.79956e-05 0)
(0.0990912 8.33601e-05 0)
(0.099039 8.8777e-05 0)
(0.0989847 9.41621e-05 0)
(0.0989286 9.95358e-05 0)
(0.0988705 0.000104959 0)
(0.0988107 0.0001105 0)
(0.098749 0.000116223 0)
(0.0986854 0.00012218 0)
(0.0986199 0.000128414 0)
(0.0985525 0.000134962 0)
(0.098483 0.000141854 0)
(0.0984115 0.000149117 0)
(0.0983377 0.000156773 0)
(0.0982617 0.000164846 0)
(0.0981834 0.000173357 0)
(0.0981027 0.000182326 0)
(0.0980194 0.000191776 0)
(0.0979336 0.000201728 0)
(0.0978451 0.000212205 0)
(0.0977539 0.000223229 0)
(0.0976598 0.000234826 0)
(0.0975628 0.00024702 0)
(0.0974628 0.000259839 0)
(0.0973597 0.00027331 0)
(0.0972534 0.000287464 0)
(0.0971439 0.000302332 0)
(0.0970309 0.000317948 0)
(0.0969146 0.000334346 0)
(0.0967946 0.000351565 0)
(0.096671 0.000369645 0)
(0.0965436 0.000388629 0)
(0.0964124 0.000408564 0)
(0.0962772 0.000429501 0)
(0.096138 0.000451493 0)
(0.0959946 0.000474602 0)
(0.0958468 0.0004989 0)
(0.0956947 0.000524485 0)
(0.095538 0.000551533 0)
(0.0953765 0.000580456 0)
(0.100002 3.12471e-06 0)
(0.0999946 1.12636e-05 0)
(0.0999862 3.58226e-05 0)
(0.099955 8.17028e-05 0)
(0.0998951 0.000133436 0)
(0.0998088 0.000169675 0)
(0.0997092 0.000179439 0)
(0.0996113 0.000166347 0)
(0.0995246 0.000141989 0)
(0.0994518 0.000117593 0)
(0.0993911 9.97014e-05 0)
(0.0993384 9.00464e-05 0)
(0.0992899 8.74172e-05 0)
(0.0992428 8.95911e-05 0)
(0.0991952 9.45163e-05 0)
(0.0991463 0.000100754 0)
(0.0990956 0.000107478 0)
(0.0990431 0.000114309 0)
(0.0989888 0.000121131 0)
(0.0989326 0.000127964 0)
(0.0988747 0.000134878 0)
(0.098815 0.000141956 0)
(0.0987535 0.000149274 0)
(0.0986901 0.000156899 0)
(0.0986249 0.000164884 0)
(0.0985578 0.000173273 0)
(0.0984887 0.000182106 0)
(0.0984175 0.000191413 0)
(0.0983441 0.000201227 0)
(0.0982685 0.000211573 0)
(0.0981906 0.000222481 0)
(0.0981104 0.000233976 0)
(0.0980276 0.000246086 0)
(0.0979423 0.000258838 0)
(0.0978544 0.00027226 0)
(0.0977638 0.000286383 0)
(0.0976703 0.000301237 0)
(0.097574 0.000316855 0)
(0.0974748 0.00033327 0)
(0.0973724 0.000350517 0)
(0.097267 0.000368636 0)
(0.0971583 0.000387665 0)
(0.0970463 0.000407647 0)
(0.0969309 0.000428626 0)
(0.096812 0.00045065 0)
(0.0966896 0.00047377 0)
(0.0965634 0.000498038 0)
(0.0964335 0.000523515 0)
(0.0962998 0.000550262 0)
(0.096162 0.000578346 0)
(0.0960202 0.000607844 0)
(0.0958742 0.00063884 0)
(0.095724 0.000671452 0)
(0.0955694 0.000705881 0)
(0.0954102 0.000742592 0)
(0.100002 3.86707e-06 0)
(0.0999945 1.37217e-05 0)
(0.0999864 4.29293e-05 0)
(0.0999572 9.76502e-05 0)
(0.0999012 0.000159803 0)
(0.0998197 0.000204007 0)
(0.0997241 0.000216883 0)
(0.0996285 0.000202358 0)
(0.099542 0.000174004 0)
(0.0994679 0.000145166 0)
(0.0994051 0.00012375 0)
(0.0993502 0.000111974 0)
(0.0992996 0.000108527 0)
(0.0992508 0.000110841 0)
(0.099202 0.000116507 0)
(0.0991522 0.000123819 0)
(0.099101 0.000131785 0)
(0.0990482 0.000139938 0)
(0.0989937 0.000148127 0)
(0.0989375 0.000156365 0)
(0.0988797 0.000164728 0)
(0.0988202 0.000173309 0)
(0.0987589 0.000182196 0)
(0.0986959 0.000191464 0)
(0.0986311 0.000201177 0)
(0.0985643 0.000211386 0)
(0.0984956 0.000222137 0)
(0.0984248 0.000233468 0)
(0.0983519 0.000245415 0)
(0.0982769 0.000258012 0)
(0.0981995 0.000271291 0)
(0.0981198 0.000285284 0)
(0.0980377 0.000300024 0)
(0.0979531 0.000315544 0)
(0.0978659 0.000331878 0)
(0.097776 0.000349061 0)
(0.0976833 0.000367132 0)
(0.0975879 0.000386127 0)
(0.0974895 0.000406089 0)
(0.0973881 0.00042706 0)
(0.0972837 0.000449085 0)
(0.0971761 0.000472212 0)
(0.0970653 0.000496491 0)
(0.0969511 0.000521974 0)
(0.0968336 0.000548719 0)
(0.0967126 0.000576786 0)
(0.0965879 0.000606238 0)
(0.0964597 0.000637144 0)
(0.0963276 0.000669577 0)
(0.0961918 0.000703616 0)
(0.096052 0.000739347 0)
(0.0959081 0.000776867 0)
(0.0957602 0.000816301 0)
(0.0956081 0.000857859 0)
(0.0954517 0.000902007 0)
(0.100002 4.63447e-06 0)
(0.0999943 1.61533e-05 0)
(0.0999865 4.96004e-05 0)
(0.0999596 0.00011246 0)
(0.0999078 0.000184473 0)
(0.0998314 0.000236586 0)
(0.0997402 0.00025305 0)
(0.099647 0.000237848 0)
(0.0995609 0.000206228 0)
(0.0994856 0.000173456 0)
(0.0994205 0.000148755 0)
(0.0993631 0.000134877 0)
(0.0993103 0.000130495 0)
(0.0992597 0.000132773 0)
(0.0992095 0.000138999 0)
(0.0991588 0.000147223 0)
(0.099107 0.000156297 0)
(0.0990539 0.000165668 0)
(0.0989993 0.000175144 0)
(0.0989432 0.000184726 0)
(0.0988856 0.00019449 0)
(0.0988263 0.000204535 0)
(0.0987653 0.000214957 0)
(0.0987027 0.00022584 0)
(0.0986382 0.000237253 0)
(0.0985719 0.000249257 0)
(0.0985037 0.0002619 0)
(0.0984335 0.000275228 0)
(0.0983611 0.000289282 0)
(0.0982867 0.0003041 0)
(0.09821 0.000319719 0)
(0.098131 0.000336177 0)
(0.0980496 0.000353512 0)
(0.0979658 0.00037176 0)
(0.0978794 0.000390964 0)
(0.0977904 0.000411162 0)
(0.0976987 0.000432399 0)
(0.0976042 0.000454719 0)
(0.0975069 0.000478169 0)
(0.0974067 0.000502798 0)
(0.0973035 0.000528659 0)
(0.0971972 0.000555806 0)
(0.0970878 0.000584298 0)
(0.0969751 0.000614194 0)
(0.0968592 0.00064556 0)
(0.0967398 0.000678463 0)
(0.096617 0.000712977 0)
(0.0964906 0.000749179 0)
(0.0963607 0.000787151 0)
(0.096227 0.000826981 0)
(0.0960896 0.000868763 0)
(0.0959483 0.000912601 0)
(0.0958031 0.000958621 0)
(0.0956539 0.00100701 0)
(0.0955007 0.00105814 0)
(0.0951544 8.82609e-05 -4.78333e-24)
(0.0949757 9.32536e-05 -4.87221e-24)
(0.0947873 9.8578e-05 -3.23055e-26)
(0.0945885 0.000104217 1.4955e-23)
(0.0943788 0.00011033 -4.95459e-24)
(0.0941575 0.000116814 -5.09392e-24)
(0.093924 0.000123649 -1.56709e-23)
(0.0936774 0.000130836 1.55629e-23)
(0.0934174 0.000138373 5.3207e-24)
(0.0931432 0.00014626 0)
(0.0928542 0.000154514 5.49132e-24)
(0.0925497 0.000163174 -5.58323e-24)
(0.0922291 0.000172313 4.58946e-23)
(0.0918914 0.000182043 -9.83372e-23)
(0.0915354 0.000192515 5.25488e-23)
(0.0911596 0.000203918 4.25445e-23)
(0.0907623 0.000216476 5.45937e-23)
(0.090341 0.00023043 -6.24823e-24)
(0.0898931 0.000246042 6.38193e-24)
(0.0894153 0.000263585 -6.52355e-24)
(0.0889038 0.000283342 0)
(0.0883545 0.000305599 6.83322e-24)
(0.0877625 0.000330656 -7.00277e-24)
(0.0871226 0.000358838 0)
(0.0864288 0.000390505 -7.37561e-24)
(0.0856746 0.000426078 0)
(0.0848526 0.000466059 -7.80023e-24)
(0.0839545 0.000511053 -1.30725e-22)
(0.0829708 0.000561806 1.38812e-22)
(0.0818905 0.000619234 -1.39396e-22)
(0.0807008 0.000684471 1.39183e-22)
(0.0793869 0.000758922 0)
(0.0779309 0.00084433 0)
(0.0763118 0.000942866 1.70939e-22)
(0.0745042 0.00105723 -1.6084e-22)
(0.0724776 0.00119076 0)
(0.0701947 0.00134756 0)
(0.0676107 0.00153253 0)
(0.0646711 0.00175126 0)
(0.0613115 0.00200967 0)
(0.057457 0.00231301 0)
(0.0530246 0.00266388 0)
(0.0479305 0.00305889 0)
(0.0421035 0.0034832 0)
(0.0355125 0.00390227 -1.60787e-23)
(0.0282099 0.00425028 -5.53462e-22)
(0.0203814 0.00441613 5.52632e-22)
(0.0124284 0.00422889 6.01636e-22)
(0.00534012 0.00342618 -6.00733e-22)
(0.00109304 0.00160079 0)
(0.0951635 0.000264392 -4.83656e-24)
(0.0949851 0.00027932 -9.85648e-24)
(0.094797 0.000295259 -5.15784e-24)
(0.0945987 0.000312301 4.81665e-24)
(0.0943895 0.000330534 -5.02093e-24)
(0.0941687 0.000349877 3.59516e-23)
(0.0939357 0.000370308 -5.64605e-23)
(0.0936899 0.000391814 5.24023e-24)
(0.0934305 0.000414379 6.98852e-23)
(0.0931569 0.000438008 -9.65233e-23)
(0.0928686 0.000462748 -9.41692e-23)
(0.0925649 0.000488721 8.29786e-23)
(0.0922449 0.000516148 0)
(0.0919077 0.000545359 5.7875e-24)
(0.0915522 0.000576809 -1.76792e-23)
(0.0911769 0.000611065 -2.0036e-22)
(0.09078 0.000648786 1.92209e-22)
(0.0903591 0.000690696 -2.04324e-22)
(0.0899115 0.000737574 -1.91741e-23)
(0.0894342 0.000790236 6.53786e-24)
(0.0889233 0.000849522 0)
(0.0883748 0.000916292 -6.85092e-24)
(0.087784 0.000991442 -2.20698e-22)
(0.0871456 0.00107594 4.61164e-22)
(0.0864538 0.00117088 2.54313e-22)
(0.0857023 0.00127751 -4.79707e-22)
(0.0848837 0.00139734 5.16567e-22)
(0.0839899 0.00153219 -5.24171e-22)
(0.0830115 0.00168429 -8.31918e-24)
(0.0819378 0.00185638 0)
(0.0807564 0.00205186 0)
(0.0794528 0.00227491 0)
(0.0780096 0.00253075 0)
(0.0764066 0.00282583 -9.90381e-24)
(0.0746194 0.00316819 -6.72459e-22)
(0.0726186 0.00356775 -2.91158e-23)
(0.0703688 0.00403664 6.99751e-22)
(0.0678272 0.00458936 7.63969e-22)
(0.0649425 0.00524241 -7.62957e-22)
(0.0616537 0.00601312 -2.54027e-23)
(0.0578897 0.00691663 -2.6585e-23)
(0.0535719 0.00796015 -9.1951e-22)
(0.0486191 0.00913273 8.89189e-22)
(0.0429597 0.0103891 -3.04045e-23)
(0.0365548 0.0116257 1.61911e-23)
(0.0294359 0.0126458 -1.12534e-21)
(0.0217489 0.0131187 1.12498e-21)
(0.0138265 0.0125365 -2.3515e-21)
(0.00652164 0.0101302 2.31219e-21)
(0.0015751 0.00469928 -2.36929e-21)
(0.0951815 0.000439433 -2.86229e-23)
(0.0950037 0.000464225 -1.00241e-23)
(0.0948164 0.000490737 3.87164e-23)
(0.094619 0.000519103 -7.95605e-23)
(0.0944107 0.000549279 1.70198e-22)
(0.094191 0.000581311 -8.06054e-23)
(0.0939592 0.00061519 1.43767e-26)
(0.0937147 0.000650885 1.04524e-23)
(0.0934566 0.00068837 1.82111e-22)
(0.0931845 0.000727655 -1.71303e-22)
(0.0928977 0.000768828 0)
(0.0925953 0.000812099 1.4842e-26)
(0.0922767 0.000857834 0)
(0.0919407 0.000906586 1.98762e-22)
(0.0915864 0.000959105 -1.75201e-22)
(0.0912121 0.00101633 -3.77347e-22)
(0.090816 0.00107934 2.07817e-23)
(0.090396 0.00114933 -3.97139e-22)
(0.0899495 0.00122758 1.28302e-23)
(0.0894733 0.00131543 -4.24864e-22)
(0.0889639 0.00141428 4.37877e-22)
(0.0884173 0.00152553 -4.45928e-22)
(0.0878291 0.00165069 4.59598e-22)
(0.087194 0.00179135 1.44612e-23)
(0.0865067 0.00194934 -1.48553e-23)
(0.0857608 0.00212675 1.52751e-23)
(0.0849493 0.00232609 -5.11619e-22)
(0.0840644 0.00255039 5.27368e-22)
(0.0830971 0.00280336 5.61283e-22)
(0.0820372 0.00308955 -5.44056e-22)
(0.0808728 0.00341457 0)
(0.0795902 0.00378536 0)
(0.0781733 0.00421048 1.91457e-23)
(0.0766031 0.00470056 1.3205e-21)
(0.0748571 0.00526875 3.28223e-23)
(0.0729087 0.00593127 -1.33012e-21)
(0.0707257 0.00670783 0)
(0.06827 0.00762183 -2.33118e-23)
(0.0654959 0.00869977 1.62702e-21)
(0.0623495 0.00996909 -3.25113e-21)
(0.0587679 0.0114531 3.45315e-21)
(0.0546803 0.0131616 1.08235e-22)
(0.0500112 0.0150737 -1.79988e-21)
(0.0446879 0.0171119 -1.9575e-21)
(0.0386557 0.0191032 2.01738e-21)
(0.0319028 0.0207242 1.56279e-24)
(0.0244941 0.0214316 -3.44528e-23)
(0.0166264 0.0203923 2.2703e-21)
(0.00886647 0.0163817 -2.19841e-21)
(0.00250172 0.00752956 -2.19813e-21)
(0.0952084 0.000612685 1.88639e-23)
(0.0950315 0.000647177 -9.56733e-24)
(0.0948453 0.000684065 1.97601e-26)
(0.0946492 0.000723429 9.83425e-24)
(0.0944424 0.000765343 -1.98352e-26)
(0.0942243 0.000809855 1.63169e-22)
(0.0939943 0.00085696 -3.08253e-22)
(0.0937518 0.000906625 1.65626e-22)
(0.0934959 0.00095883 -1.05958e-23)
(0.093226 0.00101361 1.95689e-22)
(0.0929414 0.00107109 -1.74059e-22)
(0.0926413 0.00113158 -3.60869e-22)
(0.0923248 0.00119561 7.2847e-22)
(0.0919909 0.00126393 -7.42471e-22)
(0.0916385 0.00133759 7.57165e-22)
(0.0912661 0.00141789 -7.60612e-22)
(0.0908718 0.0015063 -4.02579e-22)
(0.0904537 0.00160446 2.25928e-26)
(0.0900091 0.00171414 0)
(0.0895352 0.00183718 -4.13778e-22)
(0.0890287 0.0019755 4.26772e-22)
(0.0884857 0.00213106 0)
(0.087902 0.00230593 -9.20933e-22)
(0.0872728 0.00250235 9.05994e-22)
(0.0865928 0.00272286 1.49967e-23)
(0.0858561 0.00297041 -3.55787e-26)
(0.0850562 0.00324848 1.58518e-23)
(0.0841856 0.00356133 0)
(0.0832359 0.00391411 -5.12747e-26)
(0.0821977 0.00431315 0)
(0.08106 0.00476623 -1.8009e-23)
(0.0798104 0.00528291 1.21838e-21)
(0.0784343 0.00587499 -1.21805e-21)
(0.0769148 0.00655704 -2.0164e-23)
(0.0752325 0.00734697 4.17773e-23)
(0.0733644 0.00826678 -1.44227e-21)
(0.0712837 0.00934304 1.39744e-21)
(0.0689588 0.010607 2.37149e-23)
(0.0663528 0.0120936 -3.6464e-25)
(0.0634223 0.0138384 2.53903e-23)
(0.0601165 0.0158701 -1.7482e-21)
(0.0563765 0.0181976 3.538e-21)
(0.0521351 0.0207869 -1.84633e-21)
(0.0473179 0.0235259 1.91809e-21)
(0.041846 0.0261727 -2.00806e-21)
(0.0356423 0.0282855 -4.00278e-21)
(0.0286441 0.0291278 8.16805e-21)
(0.0208447 0.0275604 -4.13604e-21)
(0.0124238 0.0219454 0)
(0.00387878 0.00996902 -3.88175e-21)
(0.095244 0.000783447 -9.35663e-24)
(0.0950683 0.000827358 -3.81951e-23)
(0.0948836 0.000874291 1.15749e-22)
(0.0946891 0.000924381 -1.5623e-22)
(0.0944843 0.000977738 6.87946e-23)
(0.0942685 0.00103442 1.008e-23)
(0.094041 0.00109444 -1.02435e-23)
(0.0938012 0.00115777 -2.49782e-26)
(0.0935482 0.00122442 1.05937e-23)
(0.0932814 0.00129444 -2.15378e-23)
(0.093 0.00136804 -3.54156e-22)
(0.0927031 0.00144563 3.655e-22)
(0.0923898 0.00152787 -3.56663e-22)
(0.0920591 0.00161575 3.6818e-22)
(0.0917098 0.00171058 0)
(0.0913404 0.001814 -2.53549e-26)
(0.0909493 0.00192786 0)
(0.0905344 0.00205423 -3.96992e-22)
(0.0900933 0.0021953 4.22788e-22)
(0.0896235 0.0023534 -1.32797e-23)
(0.0891219 0.00253093 -8.949e-22)
(0.0885848 0.00273039 8.81689e-22)
(0.0880084 0.0029544 -1.43365e-23)
(0.0873882 0.00320582 0)
(0.0867195 0.00348791 0)
(0.0859967 0.00380443 -1.02776e-21)
(0.0852137 0.00415986 9.96538e-22)
(0.0843639 0.00455962 0)
(0.0834396 0.00501029 -3.42059e-23)
(0.0824324 0.00551989 0)
(0.0813325 0.00609826 1.8325e-23)
(0.0801292 0.00675745 -1.89013e-23)
(0.0788102 0.00751221 -1.9691e-23)
(0.0773615 0.00838068 2.03182e-23)
(0.0757674 0.00938504 1.33863e-21)
(0.07401 0.0105523 -1.38159e-21)
(0.0720695 0.0119146 3.01071e-21)
(0.0699232 0.0135098 -3.0127e-21)
(0.0675457 0.0153789 3.2082e-21)
(0.0649076 0.0175629 9.86605e-23)
(0.0619741 0.0200926 -3.38724e-21)
(0.0587022 0.0229724 -2.7157e-23)
(0.0550361 0.026152 1.31703e-24)
(0.0508996 0.0294836 1.75897e-24)
(0.0461845 0.0326616 2.34196e-24)
(0.0407311 0.0351411 -5.92028e-23)
(0.0343057 0.0360271 -2.71655e-23)
(0.0266165 0.0339189 -2.57779e-23)
(0.0173397 0.0267826 0)
(0.00573139 0.0120082 8.16154e-24)
(0.0952878 0.000951051 -4.64312e-23)
(0.0951137 0.00100412 2.79299e-23)
(0.0949309 0.00106085 9.54798e-24)
(0.0947387 0.00112142 1.46463e-22)
(0.0945365 0.00118597 -1.46523e-22)
(0.0943236 0.00125459 1.51429e-22)
(0.0940993 0.00132729 -3.3606e-22)
(0.093863 0.00140411 4.78164e-22)
(0.0936139 0.00148505 -3.34879e-22)
(0.0933511 0.00157024 -3.47051e-22)
(0.093074 0.00165996 -1.72468e-23)
(0.0927815 0.00175472 7.04248e-22)
(0.0924727 0.00185536 -7.41466e-22)
(0.0921465 0.00196309 3.45759e-22)
(0.0918017 0.00207949 3.72808e-22)
(0.091437 0.00220652 3.89423e-22)
(0.0910508 0.0023464 -2.97034e-23)
(0.0906411 0.00250159 7.93704e-22)
(0.0902059 0.00267469 8.19116e-22)
(0.0897427 0.00286851 2.04612e-23)
(0.0892487 0.0030859 -8.6817e-22)
(0.0887207 0.00332985 0)
(0.0881553 0.00360356 0)
(0.0875485 0.00391051 -9.67236e-22)
(0.0868959 0.00425466 9.53343e-22)
(0.0861926 0.00464063 1.02703e-21)
(0.0854333 0.00507391 -1.02855e-21)
(0.0846121 0.00556108 0)
(0.0837224 0.00611014 1.149e-21)
(0.082757 0.00673081 -1.15122e-21)
(0.081708 0.00743489 0)
(0.0805667 0.00823677 -2.49508e-21)
(0.0793233 0.00915395 2.51818e-21)
(0.0779678 0.0102077 -2.08309e-23)
(0.0764891 0.0114236 -2.79133e-21)
(0.0748758 0.0128327 2.81721e-21)
(0.0731164 0.0144709 0)
(0.0711995 0.0163794 3.17585e-21)
(0.0691137 0.0186016 -3.1563e-21)
(0.0668474 0.0211776 2.56605e-23)
(0.0643859 0.0241329 3.5046e-21)
(0.0617069 0.0274581 -7.0396e-21)
(0.0587704 0.0310771 1.2285e-23)
(0.0555023 0.0347999 3.22582e-23)
(0.0517666 0.0382587 3.6714e-21)
(0.0473174 0.0408269 4.08538e-24)
(0.0417313 0.0415044 -3.15e-21)
(0.034351 0.0387352 3.22919e-21)
(0.024097 0.030261 0)
(0.00833018 0.0133381 2.82157e-23)
(0.0953397 0.0011147 9.14694e-24)
(0.0951678 0.00117638 8.42118e-23)
(0.0949875 0.00124239 -7.50978e-23)
(0.0947982 0.00131291 9.63239e-24)
(0.0945993 0.00138814 1.47964e-22)
(0.0943901 0.00146818 -1.48204e-22)
(0.09417 0.00155309 -3.17181e-22)
(0.0939381 0.00164292 4.91137e-24)
(0.0936938 0.00173775 -5.72038e-24)
(0.0934363 0.00183774 3.51909e-22)
(0.0931647 0.00194327 -3.43392e-22)
(0.092878 0.00205501 7.28496e-22)
(0.0925752 0.00217396 -3.62906e-22)
(0.0922554 0.00230156 1.17217e-23)
(0.0919173 0.00243967 1.19899e-23)
(0.0915595 0.00259057 7.92644e-22)
(0.0911807 0.00275685 -4.88488e-24)
(0.0907791 0.00294134 8.27103e-22)
(0.0903528 0.00314709 1.32128e-23)
(0.0898997 0.00337729 0)
(0.0894174 0.00363532 0)
(0.0889031 0.00392466 -9.27111e-22)
(0.0883537 0.00424909 9.29454e-22)
(0.087766 0.00461275 0)
(0.0871361 0.0050204 1.56332e-23)
(0.08646 0.00547756 0)
(0.0857332 0.00599082 -1.07993e-21)
(0.0849509 0.00656806 2.19887e-21)
(0.0841078 0.00721881 -1.11903e-21)
(0.0831985 0.00795461 -2.37301e-21)
(0.082217 0.00878938 -8.07558e-23)
(0.0811572 0.00973995 -8.55341e-23)
(0.0800129 0.0108266 -9.03001e-23)
(0.078778 0.0120736 2.67257e-21)
(0.0774473 0.01351 2.87296e-21)
(0.0760164 0.0151694 -2.8798e-21)
(0.0744833 0.0170902 0)
(0.0728485 0.0193137 3.201e-21)
(0.0711159 0.02188 -3.20843e-21)
(0.0692926 0.0248195 -3.42131e-21)
(0.0673858 0.0281381 3.40249e-21)
(0.0653965 0.031793 2.78989e-23)
(0.0633053 0.0356561 3.44418e-21)
(0.0610482 0.0394663 -1.06884e-22)
(0.0584767 0.0427688 -3.40819e-21)
(0.0552874 0.0448554 2.60209e-23)
(0.0509207 0.0446942 0)
(0.0444407 0.0407916 -2.05664e-23)
(0.0338402 0.031113 -9.24925e-22)
(0.0134371 0.0132723 4.68242e-22)
(-0.00024256 0.000274495 0)
(-0.000819937 0.000346489 2.87668e-22)
(-0.00130183 0.000146534 -2.88099e-22)
(-0.00128387 -0.000187891 -2.69158e-22)
(-0.000594966 -0.000578592 2.69563e-22)
(0.000803981 -0.000973269 -7.73412e-24)
(0.00288784 -0.00134115 0)
(0.00559146 -0.00166363 0)
(0.00882684 -0.00193098 0)
(0.0124942 -0.00213975 0)
(0.016491 -0.00229065 0)
(0.0207183 -0.00238714 0)
(0.025084 -0.00243441 0)
(0.0295058 -0.00243862 0)
(0.033912 -0.0024063 0)
(0.0382422 -0.00234398 2.11168e-23)
(0.042447 -0.00225792 -1.99706e-23)
(0.0464878 -0.0021539 0)
(0.0503355 -0.00203714 0)
(0.0539699 -0.00191222 -5.38408e-24)
(0.0573784 -0.00178311 5.39231e-24)
(0.0605555 -0.00165309 -1.54013e-24)
(0.0635006 -0.00152486 8.32867e-26)
(0.0662178 -0.00140055 0)
(0.0687147 -0.00128175 -1.77567e-26)
(0.0710021 -0.00116965 0)
(0.0730921 -0.00106502 0)
(0.0749979 -0.000968284 0)
(0.0767338 -0.000879547 -5.26204e-26)
(0.078314 -0.000798704 0)
(0.0797524 -0.000725471 3.18223e-26)
(0.0810624 -0.000659439 -1.77123e-26)
(0.0822565 -0.000600112 2.43849e-27)
(0.0833464 -0.000546948 1.50823e-25)
(0.0843429 -0.000499386 -1.66778e-25)
(0.0852557 -0.00045687 -3.45015e-25)
(0.0860935 -0.000418867 8.38093e-25)
(0.0868642 -0.000384878 -5.0802e-25)
(0.0875747 -0.000354442 -8.62926e-26)
(0.0882311 -0.000327146 9.84864e-26)
(0.088839 -0.000302619 0)
(0.0894031 -0.000280534 1.20067e-25)
(0.0899277 -0.000260605 -6.58759e-25)
(0.0904166 -0.000242584 6.68129e-25)
(0.0908731 -0.000226253 -1.45743e-25)
(0.0913002 -0.000211427 4.6206e-25)
(0.0917005 -0.000197943 -1.51017e-25)
(0.0920764 -0.000185662 -3.30245e-25)
(0.09243 -0.000174459 1.66153e-25)
(0.0927633 -0.000164225 -1.73467e-25)
(-0.00027563 0.000784694 -1.13286e-21)
(-0.000800285 0.000950584 -1.20644e-21)
(-0.00105286 0.000351856 1.1888e-21)
(-0.000756358 -0.000635693 -5.34409e-22)
(0.000202084 -0.00178379 5.36076e-22)
(0.00183669 -0.00294318 7.78765e-24)
(0.00410788 -0.00402414 -1.4706e-23)
(0.00694756 -0.00497169 -4.07934e-22)
(0.0102692 -0.00575739 3.95144e-22)
(0.0139776 -0.006371 -1.04e-23)
(0.0179765 -0.00681449 -8.97236e-24)
(0.0221737 -0.00709793 2.16819e-22)
(0.026484 -0.00723646 -2.17108e-22)
(0.0308315 -0.00724807 -1.45014e-22)
(0.0351502 -0.00715195 2.99103e-23)
(0.0393847 -0.00696727 1.15451e-22)
(0.0434901 -0.00671242 -1.18414e-24)
(0.0474309 -0.00640444 -1.95915e-24)
(0.0511809 -0.00605868 0)
(0.0547218 -0.00568868 0)
(0.0580428 -0.0053061 0)
(0.0611388 -0.00492071 -1.69722e-25)
(0.0640102 -0.00454043 4.11983e-24)
(0.0666608 -0.00417163 -4.62483e-24)
(0.0690984 -0.00381912 -1.05936e-24)
(0.0713337 -0.00348632 -8.84752e-26)
(0.0733781 -0.00317553 2.61719e-24)
(0.0752444 -0.00288803 -1.45047e-24)
(0.0769462 -0.00262419 5.27561e-26)
(0.0784972 -0.0023837 4.50488e-26)
(0.0799107 -0.00216576 -3.18918e-26)
(0.0811995 -0.00196915 2.03612e-26)
(0.0823756 -0.00179242 2.92439e-25)
(0.0834503 -0.00163398 -1.13826e-24)
(0.0844338 -0.00149217 7.5539e-25)
(0.0853356 -0.00136536 -1.53051e-25)
(0.0861641 -0.00125196 5.92505e-26)
(0.0869267 -0.0011505 0)
(0.0876303 -0.00105962 -1.61185e-24)
(0.0882808 -0.000978092 1.41552e-24)
(0.0888835 -0.000904816 1.63406e-24)
(0.0894431 -0.000838824 -2.23635e-24)
(0.0899637 -0.000779265 1.29454e-25)
(0.0904491 -0.000725398 7.21794e-25)
(0.0909024 -0.000676581 -1.29705e-24)
(0.0913267 -0.000632255 -1.52539e-25)
(0.0917245 -0.00059194 -1.12996e-24)
(0.0920982 -0.000555216 -1.88148e-25)
(0.0924498 -0.000521712 3.26435e-25)
(0.0927812 -0.000491097 5.16866e-25)
(-0.000335408 0.00116807 -1.20693e-21)
(-0.000730016 0.00129956 1.27935e-21)
(-0.000512581 0.000317551 -1.24108e-21)
(0.000322332 -0.00127416 -1.83181e-23)
(0.0017935 -0.00311396 -7.20616e-25)
(0.00386805 -0.00497059 -9.95397e-22)
(0.00648517 -0.00670004 1.02815e-21)
(0.00957267 -0.008216 8.44947e-22)
(0.0130476 -0.00947375 -8.33865e-23)
(0.0168243 -0.0104567 -1.36827e-21)
(0.0208188 -0.0111675 1.20236e-21)
(0.0249521 -0.0116217 -5.43122e-22)
(0.0291521 -0.0118431 -6.92192e-24)
(0.0333548 -0.0118602 0)
(0.0375051 -0.0117035 2.58915e-22)
(0.041557 -0.0114036 -5.75178e-23)
(0.045473 -0.0109901 -1.97948e-22)
(0.0492242 -0.0104902 4.27332e-24)
(0.0527893 -0.00992868 0)
(0.0561537 -0.00932743 0)
(0.0593089 -0.00870525 2.16706e-23)
(0.062252 -0.00807792 -2.10253e-23)
(0.0649837 -0.00745837 -8.56764e-24)
(0.067509 -0.00685695 8.99454e-24)
(0.0698342 -0.00628165 1.84506e-25)
(0.0719706 -0.00573813 -1.08598e-25)
(0.0739284 -0.00523002 6.06922e-26)
(0.0757195 -0.00475953 7.52597e-25)
(0.0773565 -0.00432736 -7.19305e-25)
(0.0788518 -0.0039331 2.72732e-25)
(0.0802177 -0.00357545 -2.93339e-25)
(0.0814659 -0.00325253 -2.62416e-27)
(0.0826075 -0.00296202 1.74514e-24)
(0.0836529 -0.00270134 -4.32888e-24)
(0.0846115 -0.00246784 2.71159e-24)
(0.085492 -0.00225888 2.26214e-24)
(0.0863023 -0.00207189 -1.99107e-24)
(0.0870493 -0.00190449 0)
(0.0877395 -0.00175445 -2.20673e-26)
(0.0883784 -0.00161979 0)
(0.088971 -0.0014987 3.92516e-24)
(0.0895218 -0.00138961 -3.69669e-24)
(0.0900347 -0.00129111 2.809e-25)
(0.0905132 -0.00120201 -1.2225e-26)
(0.0909605 -0.00112124 2.45366e-24)
(0.0913793 -0.00104788 -4.70528e-24)
(0.0917722 -0.000981144 2.55235e-24)
(0.0921414 -0.00092034 -1.36558e-24)
(0.092489 -0.000864853 1.01217e-24)
(0.0928167 -0.000814122 3.40572e-25)
(-0.000376548 0.00131281 -2.69149e-21)
(-0.00049378 0.00127004 0)
(0.00043217 -6.92601e-05 2.60315e-21)
(0.00201228 -0.00219234 -5.11524e-21)
(0.00417862 -0.00462299 2.52952e-21)
(0.00683945 -0.00706739 1.04845e-21)
(0.00990934 -0.0093426 -1.10094e-21)
(0.013311 -0.0113395 8.94291e-22)
(0.0169705 -0.0129994 -1.70263e-21)
(0.0208173 -0.0142993 7.9545e-22)
(0.0247857 -0.0152411 1.05353e-23)
(0.0288152 -0.0158438 6.94471e-25)
(0.0328515 -0.0161377 7.0405e-24)
(0.0368468 -0.0161595 -3.61581e-22)
(0.0407602 -0.0159491 3.50521e-22)
(0.0445578 -0.0155467 8.14601e-24)
(0.0482123 -0.0149911 -3.00574e-24)
(0.0517029 -0.0143187 1.42901e-22)
(0.0550144 -0.0135625 -1.42523e-22)
(0.0581371 -0.0127517 -1.66344e-24)
(0.0610658 -0.0119114 0)
(0.0637995 -0.011063 2.75e-25)
(0.0663407 -0.010224 0)
(0.0686933 -0.00940833 5.14325e-25)
(0.0708656 -0.00862705 1.88178e-25)
(0.0728656 -0.00788797 1.09626e-25)
(0.0747043 -0.00719619 -6.82883e-24)
(0.0763916 -0.00655474 6.89649e-24)
(0.0779387 -0.00596474 0)
(0.0793567 -0.00542579 -2.11356e-24)
(0.0806563 -0.00493625 2.33108e-24)
(0.0818478 -0.00449369 0)
(0.082941 -0.00409504 -6.49373e-26)
(0.0839451 -0.00373692 -4.21369e-24)
(0.0848684 -0.00341578 9.07726e-24)
(0.0857188 -0.00312808 -1.02571e-23)
(0.0865032 -0.0028704 1.16434e-23)
(0.0872281 -0.00263949 -1.29202e-23)
(0.087899 -0.00243238 6.7543e-24)
(0.0885213 -0.00224635 3.98711e-24)
(0.0890994 -0.00207897 -3.46936e-24)
(0.0896374 -0.00192809 -2.86029e-25)
(0.0901391 -0.00179181 -4.70878e-24)
(0.0906077 -0.00166846 1.02675e-23)
(0.0910461 -0.00155661 -4.94824e-24)
(0.091457 -0.00145499 1.32754e-26)
(0.0918428 -0.00136251 3.29638e-25)
(0.0922056 -0.00127823 -1.05649e-26)
(0.0925473 -0.00120129 -3.46518e-25)
(0.0928696 -0.00113088 7.14859e-25)
(-0.000274478 0.00116622 -2.35868e-24)
(0.000154373 0.000834394 -2.54606e-23)
(0.00196794 -0.000872897 -2.40638e-23)
(0.00442942 -0.00342924 -2.26292e-23)
(0.00739174 -0.00630481 -4.12159e-23)
(0.0107012 -0.00918675 -1.03709e-24)
(0.0142519 -0.0118755 1.71805e-23)
(0.0179701 -0.0142452 -1.65404e-23)
(0.0217974 -0.0162244 -1.48999e-23)
(0.0256839 -0.0177823 1.52245e-21)
(0.0295859 -0.0189173 -2.22115e-22)