/*--------------------------------*- C++ -*----------------------------------*\
| =========                 |                                                 |
| \\      /  F ield         | OpenFOAM: The Open Source CFD Toolbox           |
|  \\    /   O peration     | Version:  2412                                  |
|   \\  /    A nd           | Website:  www.openfoam.com                      |
|    \\/     M anipulation  |                                                 |
\*---------------------------------------------------------------------------*/
FoamFile
{
    version     2.0;
    format      ascii;
    arch        "LSB;label=32;scalar=64";
    class       volVectorField;
    location    "9";
    object      vorticity;
}
// * * * * * * * * * * * * * * * * * * * * * * * * * * * * * * * * * * * * * //

dimensions      [0 0 -1 0 0 0 0];

internalField   nonuniform List<vector> 
63420
(
(0 0 5.39156e-06)
(0 0 1.36321e-05)
(0 0 2.88367e-05)
(0 0 3.53932e-05)
(0 0 2.15588e-05)
(0 0 -8.43175e-06)
(0 0 -3.99746e-05)
(0 0 -6.04295e-05)
(0 0 -6.57219e-05)
(0 0 -5.91076e-05)
(0 0 -4.66109e-05)
(0 0 -3.33821e-05)
(0 0 -2.2321e-05)
(0 0 -1.43289e-05)
(0 0 -9.13557e-06)
(0 0 -6.03372e-06)
(0 0 -4.30955e-06)
(0 0 -3.41314e-06)
(0 0 -2.97924e-06)
(0 0 -2.78857e-06)
(0 0 -2.71905e-06)
(0 0 -2.70674e-06)
(0 0 -2.71975e-06)
(0 0 -2.7428e-06)
(0 0 -2.7689e-06)
(0 0 -2.79494e-06)
(0 0 -2.81962e-06)
(0 0 -2.84233e-06)
(0 0 -2.86274e-06)
(0 0 -2.88055e-06)
(0 0 -2.89553e-06)
(0 0 -2.90744e-06)
(0 0 -2.91613e-06)
(0 0 -2.92147e-06)
(0 0 -2.92333e-06)
(0 0 -2.92159e-06)
(0 0 -2.91608e-06)
(0 0 -2.90656e-06)
(0 0 -2.89275e-06)
(0 0 -2.87432e-06)
(0 0 -2.8509e-06)
(0 0 -2.82209e-06)
(0 0 -2.78748e-06)
(0 0 -2.74657e-06)
(0 0 -2.69881e-06)
(0 0 -2.64355e-06)
(0 0 -2.58007e-06)
(0 0 -2.50755e-06)
(0 0 -2.42488e-06)
(0 0 -2.32932e-06)
(0 0 -2.21032e-06)
(0 0 -2.0269e-06)
(0 0 -1.63137e-06)
(0 0 -5.2919e-07)
(0 4.74634e-23 2.83908e-06)
(0 0 1.61845e-05)
(0 0 4.06514e-05)
(0 0 8.59496e-05)
(0 0 0.000105756)
(0 0 6.50533e-05)
(0 0 -2.37706e-05)
(0 0 -0.000117433)
(0 0 -0.000178356)
(0 0 -0.000194341)
(0 0 -0.000174967)
(0 0 -0.000138075)
(0 0 -9.89447e-05)
(0 0 -6.61962e-05)
(0 0 -4.25201e-05)
(0 0 -2.7128e-05)
(0 0 -1.79298e-05)
(0 0 -1.28133e-05)
(0 0 -1.01504e-05)
(0 0 -8.85956e-06)
(0 0 -8.2912e-06)
(0 0 -8.08354e-06)
(0 0 -8.04675e-06)
(0 0 -8.086e-06)
(0 0 -8.15579e-06)
(0 0 -8.23509e-06)
(0 0 -8.31444e-06)
(0 0 -8.38969e-06)
(0 0 -8.45888e-06)
(0 0 -8.52098e-06)
(0 0 -8.57528e-06)
(0 0 -8.62117e-06)
(0 0 -8.65812e-06)
(0 0 -8.68563e-06)
(0 0 -8.70323e-06)
(0 0 -8.71046e-06)
(0 0 -8.70682e-06)
(0 0 -8.69175e-06)
(0 0 -8.66458e-06)
(0 0 -8.62454e-06)
(0 0 -8.57074e-06)
(0 0 -8.50216e-06)
(0 0 -8.41766e-06)
(0 0 -8.31591e-06)
(0 0 -8.19537e-06)
(0 0 -8.05423e-06)
(0 0 -7.89038e-06)
(0 0 -7.70147e-06)
(0 0 -7.48494e-06)
(0 0 -7.23742e-06)
(0 0 -6.95083e-06)
(0 0 -6.59473e-06)
(0 0 -6.05048e-06)
(0 0 -4.88982e-06)
(0 0 -1.67535e-06)
(0 4.79331e-23 8.13457e-06)
(0 0 2.69868e-05)
(0 0 6.70255e-05)
(0 0 0.000141707)
(0 0 0.000175348)
(0 0 0.00011011)
(0 0 -3.44131e-05)
(0 0 -0.000187681)
(0 0 -0.000288033)
(0 0 -0.000315135)
(0 0 -0.000284341)
(0 0 -0.000224679)
(0 0 -0.000161124)
(0 0 -0.000107821)
(0 0 -6.92353e-05)
(0 0 -4.41269e-05)
(0 0 -2.91117e-05)
(0 0 -2.07542e-05)
(0 0 -1.64019e-05)
(0 0 -1.42908e-05)
(0 0 -1.33607e-05)
(0 0 -1.30206e-05)
(0 0 -1.29604e-05)
(0 0 -1.30249e-05)
(0 0 -1.31398e-05)
(0 0 -1.32704e-05)
(0 0 -1.34014e-05)
(0 0 -1.35258e-05)
(0 0 -1.36404e-05)
(0 0 -1.37435e-05)
(0 0 -1.3834e-05)
(0 0 -1.39109e-05)
(0 0 -1.39734e-05)
(0 0 -1.40208e-05)
(0 0 -1.40521e-05)
(0 0 -1.40668e-05)
(0 0 -1.40639e-05)
(0 0 -1.40425e-05)
(0 0 -1.40015e-05)
(0 0 -1.39397e-05)
(0 0 -1.38558e-05)
(0 0 -1.37481e-05)
(0 0 -1.36147e-05)
(0 0 -1.34535e-05)
(0 0 -1.32621e-05)
(0 0 -1.30373e-05)
(0 0 -1.27758e-05)
(0 0 -1.24738e-05)
(0 0 -1.21271e-05)
(0 0 -1.17304e-05)
(0 0 -1.12715e-05)
(0 0 -1.0704e-05)
(0 0 -9.84538e-06)
(0 0 -8.03148e-06)
(0 0 -3.01916e-06)
(0 2.82983e-22 1.2314e-05)
(0 0 3.78001e-05)
(0 0 9.23626e-05)
(0 0 0.000195293)
(0 0 0.000243729)
(0 0 0.000157722)
(0 0 -3.7457e-05)
(0 0 -0.000246295)
(0 0 -0.000384415)
(0 0 -0.000423325)
(0 0 -0.000383271)
(0 0 -0.000303457)
(0 0 -0.000217851)
(0 0 -0.000145818)
(0 0 -9.35661e-05)
(0 0 -5.95169e-05)
(0 0 -3.91329e-05)
(0 0 -2.77773e-05)
(0 0 -2.18591e-05)
(0 0 -1.89863e-05)
(0 0 -1.77195e-05)
(0 0 -1.72558e-05)
(0 0 -1.71734e-05)
(0 0 -1.72612e-05)
(0 0 -1.7418e-05)
(0 0 -1.75968e-05)
(0 0 -1.77764e-05)
(0 0 -1.79473e-05)
(0 0 -1.81052e-05)
(0 0 -1.82478e-05)
(0 0 -1.83736e-05)
(0 0 -1.84814e-05)
(0 0 -1.857e-05)
(0 0 -1.86385e-05)
(0 0 -1.86859e-05)
(0 0 -1.8711e-05)
(0 0 -1.87128e-05)
(0 0 -1.86899e-05)
(0 0 -1.86411e-05)
(0 0 -1.85647e-05)
(0 0 -1.84588e-05)
(0 0 -1.83213e-05)
(0 0 -1.81498e-05)
(0 0 -1.79414e-05)
(0 0 -1.76927e-05)
(0 0 -1.73998e-05)
(0 0 -1.7058e-05)
(0 0 -1.66622e-05)
(0 0 -1.6207e-05)
(0 0 -1.5686e-05)
(0 0 -1.50843e-05)
(0 0 -1.43459e-05)
(0 0 -1.32466e-05)
(0 0 -1.09597e-05)
(0 0 -4.66074e-06)
(0 -1.85834e-22 1.47014e-05)
(0 0 4.86245e-05)
(0 0 0.000116324)
(0 0 0.000246013)
(0 0 0.000310517)
(0 0 0.00020873)
(0 0 -3.04327e-05)
(0 0 -0.000289504)
(0 0 -0.000463196)
(0 0 -0.000514829)
(0 0 -0.000468372)
(0 0 -0.000371868)
(0 0 -0.000267353)
(0 0 -0.000178998)
(0 0 -0.000114723)
(0 0 -7.27569e-05)
(0 0 -4.75956e-05)
(0 0 -3.35614e-05)
(0 0 -2.62391e-05)
(0 0 -2.26807e-05)
(0 0 -2.1109e-05)
(0 0 -2.0532e-05)
(0 0 -2.04276e-05)
(0 0 -2.05348e-05)
(0 0 -2.0728e-05)
(0 0 -2.09491e-05)
(0 0 -2.11717e-05)
(0 0 -2.13842e-05)
(0 0 -2.15812e-05)
(0 0 -2.17597e-05)
(0 0 -2.19181e-05)
(0 0 -2.20548e-05)
(0 0 -2.21686e-05)
(0 0 -2.22582e-05)
(0 0 -2.23224e-05)
(0 0 -2.23599e-05)
(0 0 -2.23694e-05)
(0 0 -2.23492e-05)
(0 0 -2.22978e-05)
(0 0 -2.22132e-05)
(0 0 -2.20932e-05)
(0 0 -2.19352e-05)
(0 0 -2.17362e-05)
(0 0 -2.14928e-05)
(0 0 -2.12008e-05)
(0 0 -2.08554e-05)
(0 0 -2.04511e-05)
(0 0 -1.99818e-05)
(0 0 -1.94411e-05)
(0 0 -1.88219e-05)
(0 0 -1.81092e-05)
(0 0 -1.72452e-05)
(0 0 -1.59938e-05)
(0 0 -1.34657e-05)
(0 0 -6.56499e-06)
(0 9.17439e-23 1.48135e-05)
(0 0 5.94536e-05)
(0 0 0.000138649)
(0 0 0.000293334)
(0 0 0.000375425)
(0 0 0.00026378)
(0 0 -1.14443e-05)
(0 0 -0.000314417)
(0 0 -0.000521079)
(0 0 -0.000586524)
(0 0 -0.000537055)
(0 0 -0.00042797)
(0 0 -0.000308269)
(0 0 -0.000206448)
(0 0 -0.0001321)
(0 0 -8.34293e-05)
(0 0 -5.41904e-05)
(0 0 -3.78552e-05)
(0 0 -2.93193e-05)
(0 0 -2.51638e-05)
(0 0 -2.33236e-05)
(0 0 -2.26437e-05)
(0 0 -2.25161e-05)
(0 0 -2.26363e-05)
(0 0 -2.28577e-05)
(0 0 -2.31124e-05)
(0 0 -2.33698e-05)
(0 0 -2.36161e-05)
(0 0 -2.38451e-05)
(0 0 -2.40533e-05)
(0 0 -2.42389e-05)
(0 0 -2.44e-05)
(0 0 -2.45354e-05)
(0 0 -2.46436e-05)
(0 0 -2.47231e-05)
(0 0 -2.47726e-05)
(0 0 -2.47905e-05)
(0 0 -2.47749e-05)
(0 0 -2.47241e-05)
(0 0 -2.46359e-05)
(0 0 -2.45075e-05)
(0 0 -2.43363e-05)
(0 0 -2.41186e-05)
(0 0 -2.38506e-05)
(0 0 -2.35277e-05)
(0 0 -2.31443e-05)
(0 0 -2.26941e-05)
(0 0 -2.21704e-05)
(0 0 -2.15662e-05)
(0 0 -2.08745e-05)
(0 0 -2.00822e-05)
(0 0 -1.9139e-05)
(0 0 -1.78311e-05)
(0 0 -1.53317e-05)
(0 0 -8.67785e-06)
(0 4.52674e-22 1.22025e-05)
(0 0 7.02852e-05)
(0 0 0.000159173)
(0 0 0.000336901)
(0 0 0.000438213)
(0 0 0.000323185)
(0 0 2.05829e-05)
(0 0 -0.000319329)
(0 0 -0.000556084)
(0 0 -0.000636514)
(0 0 -0.000587737)
(0 0 -0.000470567)
(0 0 -0.000339762)
(0 0 -0.000227609)
(0 0 -0.000145323)
(0 0 -9.1278e-05)
(0 0 -5.87285e-05)
(0 0 -4.05052e-05)
(0 0 -3.09631e-05)
(0 0 -2.63061e-05)
(0 0 -2.42354e-05)
(0 0 -2.34627e-05)
(0 0 -2.33089e-05)
(0 0 -2.34334e-05)
(0 0 -2.36723e-05)
(0 0 -2.39497e-05)
(0 0 -2.4231e-05)
(0 0 -2.4501e-05)
(0 0 -2.47526e-05)
(0 0 -2.49821e-05)
(0 0 -2.51873e-05)
(0 0 -2.53665e-05)
(0 0 -2.5518e-05)
(0 0 -2.56403e-05)
(0 0 -2.57319e-05)
(0 0 -2.57913e-05)
(0 0 -2.58167e-05)
(0 0 -2.58062e-05)
(0 0 -2.57578e-05)
(0 0 -2.56689e-05)
(0 0 -2.5537e-05)
(0 0 -2.53586e-05)
(0 0 -2.51302e-05)
(0 0 -2.48473e-05)
(0 0 -2.4505e-05)
(0 0 -2.40973e-05)
(0 0 -2.36174e-05)
(0 0 -2.3058e-05)
(0 0 -2.24121e-05)
(0 0 -2.16733e-05)
(0 0 -2.08324e-05)
(0 0 -1.98541e-05)
(0 0 -1.85812e-05)
(0 0 -1.63906e-05)
(0 0 -1.09932e-05)
(0 -8.85855e-23 6.20005e-06)
(-1.52829e-23 8.01395e-21 8.72812e-07)
(-1.53425e-22 7.87764e-21 -2.01343e-07)
(3.61456e-23 -2.05783e-22 -1.89013e-06)
(3.40558e-23 -2.35342e-20 -4.39923e-06)
(-9.69499e-23 8.04971e-21 -7.93528e-06)
(3.83404e-22 7.90595e-21 -1.26856e-05)
(-8.2875e-22 2.30356e-20 -1.87756e-05)
(3.23121e-22 -2.34237e-20 -2.62054e-05)
(6.52819e-22 -7.53043e-21 -3.48112e-05)
(-9.37794e-22 -3.83257e-24 -4.42351e-05)
(-9.40154e-22 -7.55484e-21 -5.39199e-05)
(8.24279e-22 7.16535e-21 -6.31397e-05)
(5.718e-22 -5.91621e-20 -7.10706e-05)
(-1.0456e-21 1.27116e-19 -7.68885e-05)
(3.4889e-22 -6.84576e-20 -7.98868e-05)
(-1.29987e-21 -5.16327e-20 -7.96401e-05)
(2.42576e-21 -6.57282e-20 -7.60107e-05)
(-1.92173e-21 7.77188e-21 -6.92981e-05)
(-2.04036e-22 -7.24105e-21 -5.99173e-05)
(8.33776e-23 7.2539e-21 -4.87157e-05)
(-3.26366e-24 -1.33489e-22 -3.66487e-05)
(-7.89549e-23 -7.0055e-21 -2.47893e-05)
(-2.07497e-21 7.07719e-21 -1.41516e-05)
(4.35917e-21 1.33585e-23 -5.62133e-06)
(1.28113e-21 6.88392e-21 9.88222e-08)
(-3.3953e-21 -5.53109e-24 2.50634e-06)
(4.8953e-21 8.0438e-21 1.28389e-06)
(-5.63936e-21 1.04138e-19 -3.74104e-06)
(6.11067e-22 -1.11861e-19 -1.26542e-05)
(-2.11478e-21 1.02448e-19 -2.55227e-05)
(2.05782e-21 -1.03638e-19 -4.24764e-05)
(5.027e-23 1.39007e-21 -6.38128e-05)
(-6.55455e-23 -1.70954e-21 -9.01531e-05)
(2.75764e-21 -9.86239e-20 -0.000122717)
(-8.8785e-21 9.57699e-20 -0.000163837)
(-3.34031e-22 -1.60697e-21 -0.000217931)
(6.45212e-21 1.41114e-23 -0.000293303)
(7.03099e-21 1.53775e-23 -0.000405335)
(-7.00849e-21 -1.53283e-23 -0.000581842)
(-2.32911e-22 -5.094e-25 -0.000871503)
(-2.43295e-22 -5.32111e-25 -0.00135612)
(-8.39929e-21 -1.83701e-23 -0.00216675)
(8.10718e-21 1.77312e-23 -0.00350229)
(-2.68656e-22 1.60195e-22 -0.00564638)
(-1.95229e-23 8.28982e-21 -0.00897564)
(-2.60328e-20 5.36018e-20 -0.0139485)
(2.50687e-20 -7.07172e-20 -0.0210599)
(-5.95177e-21 -1.01269e-20 -0.0307463)
(6.53915e-21 2.762e-20 -0.0432327)
(-2.16548e-20 -6.04664e-21 -0.0582277)
(-2.66554e-22 8.02975e-21 2.58353e-06)
(-1.01406e-22 1.57918e-20 -6.41107e-07)
(3.26702e-22 7.68012e-21 -5.73154e-06)
(-9.16129e-22 -7.8924e-21 -1.32993e-05)
(1.69902e-21 7.51979e-21 -2.3962e-05)
(-5.50334e-22 -5.39485e-20 -3.82749e-05)
(-1.79264e-22 8.57166e-20 -5.65941e-05)
(-6.26253e-23 -8.98192e-21 -7.89312e-05)
(2.20802e-21 -9.87298e-20 -0.000104818)
(-2.26825e-21 1.39521e-19 -0.000133213)
(-7.67804e-22 1.27429e-19 -0.000162487)
(5.56589e-22 -1.14744e-19 -0.000190516)
(-4.0914e-22 7.68094e-22 -0.000214884)
(2.91285e-21 -7.30572e-21 -0.000233172)
(-2.24589e-21 2.44009e-20 -0.00024333)
(-5.90381e-21 2.41776e-19 -0.000244046)
(1.38009e-21 -2.27583e-19 -0.000235146)
(-5.47382e-21 2.43965e-19 -0.000217138)
(-2.71091e-22 1.96918e-20 -0.000191611)
(-3.9923e-21 -7.41864e-21 -0.000160742)
(4.2118e-21 1.50636e-22 -0.000127521)
(-4.21307e-21 9.28424e-21 -9.512e-05)
(1.49756e-21 2.12786e-19 -6.65302e-05)
(5.23038e-21 -4.51179e-19 -4.43746e-05)
(4.17463e-21 -2.15806e-19 -3.0749e-05)
(-6.3126e-21 4.36842e-19 -2.71719e-05)
(2.75974e-21 -4.3664e-19 -3.46293e-05)
(-9.95994e-22 4.48156e-19 -5.36944e-05)
(3.41797e-21 1.37997e-21 -8.46969e-05)
(-3.85743e-21 -1.01062e-22 -0.000127929)
(-1.29598e-21 -2.83444e-24 -0.000183887)
(0 0 -0.000253578)
(1.91803e-22 9.9558e-23 -0.000338998)
(1.14899e-20 1.27625e-20 -0.000443962)
(-1.50236e-20 3.70088e-19 -0.000575668)
(-1.63433e-20 -2.43947e-20 -0.000747657)
(1.79318e-20 -3.65865e-19 -0.000985289)
(2.61537e-20 -3.17204e-19 -0.00133544)
(-8.19571e-21 3.3914e-19 -0.00188278)
(-3.25439e-20 2.18768e-21 -0.00277527)
(3.19819e-20 1.81168e-20 -0.0042612)
(-4.26017e-20 2.44466e-19 -0.00673771)
(2.23486e-20 -2.54452e-19 -0.0108064)
(-1.89806e-20 1.54024e-20 -0.0173242)
(2.10982e-20 8.22337e-21 -0.0274269)
(-6.26142e-20 1.19822e-19 -0.0424959)
(6.25608e-20 -1.17253e-19 -0.0640195)
(-9.74492e-20 8.81824e-20 -0.09329)
(9.40249e-20 -9.84824e-20 -0.130911)
(-1.99727e-20 -6.77475e-22 -0.174537)
(-2.79473e-24 4.75429e-20 4.12513e-06)
(-7.90048e-23 1.50112e-20 -1.34834e-06)
(3.48785e-22 -6.22547e-20 -1.00169e-05)
(-7.25734e-22 1.2391e-19 -2.28703e-05)
(1.6157e-21 -2.65419e-19 -4.09109e-05)
(5.26439e-22 1.26303e-19 -6.5028e-05)
(-2.56155e-21 -9.1239e-22 -9.5802e-05)
(1.62072e-21 -1.72406e-20 -0.000133278)
(1.26022e-21 -2.59235e-19 -0.00017674)
(1.06151e-21 2.4717e-19 -0.000224557)
(-8.98578e-22 -1.70462e-21 -0.000274158)
(-4.40053e-21 -1.60992e-23 -0.000322174)
(6.9907e-21 -1.93456e-21 -0.000364766)
(-4.5824e-21 -2.53347e-19 -0.000398089)
(5.79234e-21 2.30514e-19 -0.000418866)
(-1.09896e-20 4.5804e-19 -0.000425087)
(-5.18733e-21 -1.24964e-20 -0.000416334)
(-3.86408e-21 4.71644e-19 -0.000393716)
(3.97227e-22 -1.43279e-20 -0.000359458)
(-1.16411e-20 4.58904e-19 -0.000317273)
(1.15084e-20 -4.76741e-19 -0.000271938)
(-8.15699e-21 4.56079e-19 -0.000228579)
(1.0222e-21 -4.74526e-19 -0.000192051)
(5.40264e-21 -9.3426e-21 -0.000166643)
(-2.64926e-21 1.39343e-20 -0.000155832)
(5.72478e-21 -8.86265e-21 -0.000162206)
(-1.80245e-20 4.29707e-19 -0.000187539)
(1.5996e-20 -4.58388e-19 -0.000232987)
(1.74419e-20 -4.26464e-19 -0.000299364)
(-1.40534e-20 4.28799e-19 -0.000387467)
(-1.13113e-21 -5.39995e-21 -0.000498479)
(1.17195e-20 -1.26847e-22 -0.000634481)
(-1.34875e-20 -2.56756e-20 -0.000799247)
(5.13551e-20 -7.84855e-19 -0.000999658)
(1.72903e-20 5.71104e-20 -0.00124836)
(-6.90998e-20 7.40385e-19 -0.00156882)
(4.15529e-21 -1.29245e-20 -0.0020047)
(-1.19304e-20 -5.30846e-21 -0.0026364)
(1.10311e-19 -6.26341e-19 -0.00360879)
(-2.04774e-19 1.23236e-18 -0.00517459)
(2.09112e-19 -1.22862e-18 -0.00775691)
(7.56619e-20 8.78294e-20 -0.0120309)
(-1.6079e-19 5.40635e-19 -0.0190167)
(-1.7074e-19 3.75121e-19 -0.0301644)
(1.60962e-19 -4.45199e-19 -0.0473949)
(-2.37081e-20 2.0697e-20 -0.073045)
(5.8619e-20 -1.85373e-20 -0.109632)
(1.75665e-19 -1.09363e-19 -0.159304)
(-1.90183e-19 1.70734e-19 -0.222869)
(-2.70176e-20 -4.37774e-20 -0.291555)
(3.92808e-22 -3.13441e-20 5.29719e-06)
(-3.70602e-22 1.58643e-20 -2.72674e-06)
(7.32139e-22 -1.80866e-22 -1.54453e-05)
(-6.6591e-22 -1.56071e-20 -3.41434e-05)
(-1.01959e-21 -1.52163e-21 -6.01285e-05)
(3.20124e-21 -2.44981e-19 -9.45765e-05)
(-4.34281e-21 4.64227e-19 -0.000138288)
(2.08073e-21 -2.50116e-19 -0.000191382)
(-1.89417e-21 1.50779e-20 -0.000252987)
(4.66256e-21 -2.7391e-19 -0.000321037)
(-5.75305e-21 2.50221e-19 -0.000392219)
(-3.39473e-21 4.77269e-19 -0.000462172)
(9.40741e-21 -9.66365e-19 -0.000525902)
(-1.15306e-20 9.65865e-19 -0.000578397)
(1.57683e-20 -9.61808e-19 -0.000615391)
(-9.3918e-21 9.5412e-19 -0.000634263)
(-9.0408e-21 4.84987e-19 -0.000634589)
(-7.28306e-22 -3.95781e-21 -0.000617764)
(4.73038e-21 4.10298e-21 -0.00058685)
(-6.29306e-21 4.4873e-19 -0.000546777)
(-3.82843e-21 -4.71527e-19 -0.000503938)
(1.55067e-20 1.336e-20 -0.000465217)
(-3.11858e-20 9.07165e-19 -0.000437187)
(2.26857e-20 -9.10691e-19 -0.000425731)
(2.32147e-21 -5.20073e-21 -0.00043573)
(-1.0236e-20 -8.83871e-23 -0.000470972)
(1.54486e-20 -1.38042e-20 -0.000534261)
(-5.04609e-21 1.29406e-22 -0.000627677)
(-5.56385e-21 -5.91231e-23 -0.000752947)
(5.27781e-21 2.05299e-22 -0.000911894)
(-3.81493e-21 1.20584e-21 -0.00110697)
(6.07678e-20 -8.12349e-19 -0.00134198)
(-5.45924e-20 8.35966e-19 -0.0016232)
(-1.67965e-20 -8.18611e-24 -0.00196136)
(1.94881e-20 -1.03647e-20 -0.0023755)
(-9.73117e-20 7.50489e-19 -0.00290019)
(1.1497e-19 -7.54291e-19 -0.0035991)
(-2.40442e-20 2.47423e-21 -0.00458883)
(1.69502e-20 -8.05939e-23 -0.00607902)
(4.02759e-20 7.01123e-21 -0.00843479)
(-2.54561e-19 5.69206e-19 -0.0122665)
(3.74107e-19 -1.15659e-18 -0.0185466)
(-1.82595e-19 5.8708e-19 -0.0287426)
(2.71763e-19 -4.522e-19 -0.0449402)
(-2.62434e-19 5.33621e-19 -0.0699119)
(-6.22338e-19 5.53308e-19 -0.107059)
(1.17804e-18 -1.17577e-18 -0.160095)
(-5.78716e-19 5.95285e-19 -0.232194)
(2.01231e-20 -2.38389e-21 -0.324186)
(4.87879e-21 -3.74181e-20 -0.412721)
(-7.58016e-22 1.59511e-20 5.88949e-06)
(-2.10795e-22 6.09837e-20 -5.48687e-06)
(1.84212e-21 -1.85316e-19 -2.33289e-05)
(-1.05372e-21 2.48827e-19 -4.90088e-05)
(-4.30855e-22 -1.10263e-19 -8.40146e-05)
(9.85521e-23 -1.47001e-20 -0.000129763)
(-4.77936e-22 1.55409e-20 -0.000187285)
(3.1859e-21 -1.96957e-22 -0.000256837)
(-3.05941e-21 -1.51871e-20 -0.00033753)
(-5.46233e-21 3.42311e-20 -0.00042706)
(-6.28226e-21 4.85481e-19 -0.000521651)
(1.82955e-20 -5.04746e-19 -0.000616267)
(-2.26919e-20 4.71214e-19 -0.000705116)
(1.86442e-20 -4.90301e-19 -0.000782366)
(-3.15786e-21 3.57123e-21 -0.000843048)
(1.15236e-20 5.0431e-23 -0.000884148)
(4.38882e-21 3.89679e-21 -0.000905282)
(-3.61136e-21 4.58937e-19 -0.000908229)
(1.91797e-20 -4.96916e-19 -0.000896703)
(6.70149e-21 2.77264e-20 -0.000876712)
(-4.31458e-20 9.48263e-19 -0.000856077)
(2.57519e-20 -9.51513e-19 -0.000843253)
(1.0727e-20 2.32598e-20 -0.000846408)
(-1.88963e-20 -2.44252e-22 -0.000873014)
(1.23649e-20 1.00879e-20 -0.000929478)
(-3.48504e-20 9.15364e-19 -0.00102106)
(2.79013e-20 -9.07276e-19 -0.00115202)
(2.96988e-21 1.00722e-20 -0.00132593)
(1.01888e-20 2.78636e-20 -0.00154613)
(-1.2053e-20 -5.75512e-22 -0.00181629)
(1.1419e-21 -1.33555e-20 -0.00214109)
(-3.9002e-20 1.35746e-20 -0.00252708)
(3.69064e-20 1.29526e-20 -0.00298417)
(-3.40867e-21 -2.62514e-20 -0.00352816)
(7.88094e-20 -7.62441e-19 -0.00418575)
(-6.91684e-20 7.85754e-19 -0.005004)
(2.65704e-19 -1.51748e-18 -0.00606813)
(-2.4198e-19 1.53238e-18 -0.00753319)
(3.03952e-19 -1.44032e-18 -0.0096772)
(7.59265e-20 1.35061e-19 -0.0129845)
(-3.52011e-19 1.37506e-18 -0.0182654)
(-1.28075e-19 -2.36147e-20 -0.0268128)
(1.74043e-20 3.85759e-22 -0.0405823)
(-1.96009e-20 5.73301e-22 -0.062368)
(5.78474e-20 1.75499e-21 -0.0959309)
(2.8083e-20 1.43902e-20 -0.146012)
(-1.2085e-19 5.45095e-21 -0.218067)
(6.88649e-20 5.31274e-21 -0.317158)
(-1.76883e-22 -3.32058e-22 -0.444666)
(3.84945e-20 6.85228e-22 -0.549038)
(-6.21795e-22 7.67985e-20 5.42846e-06)
(1.6674e-21 -4.68614e-20 -1.12671e-05)
(-1.78658e-21 -1.65718e-20 -3.64016e-05)
(4.52603e-21 -2.29581e-19 -7.10364e-05)
(-2.0124e-21 2.31535e-19 -0.000116813)
(1.71312e-21 -2.29136e-19 -0.0001754)
(-1.05931e-20 5.05384e-19 -0.000248112)
(1.07699e-20 -7.08177e-19 -0.000335451)
(-6.86138e-21 5.01155e-19 -0.000436675)
(-5.07845e-21 4.8836e-19 -0.000549491)
(-2.17666e-21 3.73332e-21 -0.000669977)
(2.31068e-20 -9.59768e-19 -0.000792809)
(-1.95317e-20 9.99583e-19 -0.00091181)
(3.97664e-21 -4.707e-19 -0.00102074)
(1.09652e-20 -4.72972e-19 -0.00111428)
(2.14483e-20 -4.65663e-19 -0.00118925)
(-2.97917e-21 7.07262e-21 -0.00124543)
(3.60153e-20 -9.66249e-19 -0.0012851)
(2.63154e-20 -9.28192e-19 -0.00131252)
(6.58074e-21 2.14357e-20 -0.00133465)
(-2.27427e-20 9.64909e-19 -0.00136062)
(-2.10809e-20 -8.4659e-21 -0.00140034)
(1.28695e-20 9.36552e-21 -0.00146357)
(-4.69343e-20 9.36714e-19 -0.00155948)
(3.70595e-20 -9.52326e-19 -0.00169634)
(6.95913e-20 -9.15251e-19 -0.00188135)
(-7.08653e-20 9.46194e-19 -0.00212092)
(1.57775e-20 -2.09496e-20 -0.002421)
(6.35026e-20 -9.15264e-19 -0.00278761)
(-9.25298e-20 9.39167e-19 -0.00322755)
(4.58006e-21 1.29533e-20 -0.00374912)
(-2.00655e-19 1.7246e-18 -0.00436324)
(1.7967e-19 -1.79034e-18 -0.00508514)
(5.10094e-20 6.48246e-20 -0.00593744)
(-2.61328e-19 1.63865e-18 -0.00695606)
(2.37734e-19 -1.70975e-18 -0.00820175)
(-3.32886e-20 -3.58964e-21 -0.00978179)
(4.73973e-19 -1.54797e-18 -0.0118891)
(-4.42336e-19 1.59989e-18 -0.0148689)
(-7.04368e-20 -7.64352e-20 -0.0193242)
(6.93476e-19 -1.35913e-18 -0.0262697)
(-1.21616e-18 2.81032e-18 -0.0373356)
(-7.3297e-20 -1.59094e-19 -0.0550078)
(-9.85511e-20 -1.23952e-19 -0.0828797)
(8.00254e-19 -1.2337e-18 -0.125891)
(4.22022e-20 6.72595e-20 -0.190571)
(-9.24114e-19 8.27758e-19 -0.285284)
(9.05895e-19 -9.10544e-19 -0.419926)
(1.0416e-20 3.09404e-20 -0.601387)
(1.01154e-20 -2.94257e-21 -0.72765)
(6.13682e-22 -1.60339e-20 3.20457e-06)
(1.49676e-21 -1.3645e-19 -2.39154e-05)
(-1.65418e-21 1.23128e-19 -5.96962e-05)
(-1.37349e-21 -1.74325e-20 -0.000105791)
(5.1145e-21 -2.28217e-19 -0.000164161)
(-4.67869e-21 2.34988e-19 -0.000236875)
(-4.98272e-21 4.74464e-19 -0.000325589)
(-5.35435e-21 -1.96133e-20 -0.000431121)
(2.40789e-21 -4.60676e-21 -0.000553004)
(1.38526e-20 -5.0617e-19 -0.000689148)
(-1.09091e-20 4.7389e-19 -0.000835754)
(1.54068e-20 -1.00303e-18 -0.000987539)
(-2.61132e-21 5.01736e-19 -0.0011383)
(-3.89376e-21 -1.90171e-20 -0.00128174)
(-5.17588e-21 -2.28683e-20 -0.00141246)
(2.52409e-20 -9.85862e-19 -0.0015272)
(-1.37172e-21 -1.99551e-20 -0.00162579)
(2.35702e-20 -1.00466e-18 -0.00171083)
(-5.75192e-21 -7.53795e-21 -0.00178704)
(-1.74878e-22 1.25213e-22 -0.00186174)
(1.2005e-20 8.84442e-21 -0.00194474)
(-4.86906e-20 9.69096e-19 -0.00204661)
(4.26495e-20 -9.90449e-19 -0.00217789)
(1.33895e-20 8.74446e-21 -0.00234861)
(-9.23733e-21 -1.52068e-20 -0.00256779)
(-6.46586e-21 1.03811e-20 -0.0028434)
(-6.95431e-20 9.38784e-19 -0.00318243)
(1.50364e-19 -1.91715e-18 -0.00359122)
(-7.06965e-20 1.00132e-18 -0.00407587)
(-1.83039e-19 1.85702e-18 -0.00464269)
(-3.12215e-20 -4.51228e-20 -0.0052987)
(3.51108e-21 -2.50915e-20 -0.00605235)
(-6.85441e-20 -5.37059e-20 -0.00691471)
(2.50609e-19 -1.86281e-18 -0.00790182)
(3.95648e-19 -1.72709e-18 -0.00903996)
(-3.50607e-19 1.8144e-18 -0.0103767)
(-3.57971e-20 -5.79066e-20 -0.012003)
(4.70873e-19 -1.65945e-18 -0.0140956)
(-4.11794e-19 1.7598e-18 -0.0169917)
(-6.76452e-19 1.56684e-18 -0.0213133)
(5.70523e-19 -1.65677e-18 -0.0281565)
(8.2766e-20 -1.19061e-20 -0.039354)
(8.97155e-19 -1.47662e-18 -0.0578035)
(1.34494e-19 1.23343e-19 -0.0878355)
(-1.04568e-18 1.45227e-18 -0.135608)
(-1.75083e-20 -4.22597e-20 -0.209592)
(3.58432e-20 5.62191e-22 -0.32191)
(-3.66197e-20 1.62421e-20 -0.493506)
(-5.49658e-19 5.7558e-19 -0.764374)
(5.40873e-19 -5.84927e-19 -1.05738)
(-1.00374e-20 -2.85087e-21 0.00710945)
(-9.07191e-21 3.28643e-22 -0.000863459)
(8.4704e-21 8.11939e-21 -0.00733345)
(-7.88237e-21 -3.27649e-21 -0.0123973)
(8.34638e-21 -4.9162e-21 -0.0161717)
(-1.46774e-22 2.59452e-21 -0.0187961)
(-1.29965e-22 -7.70551e-23 -0.0204208)
(-3.71934e-21 8.13457e-24 -0.0211983)
(3.60945e-21 -7.89423e-24 -0.0212789)
(-9.51764e-23 2.0816e-25 -0.0208048)
(-8.22654e-23 1.79923e-25 -0.0199066)
(1.99169e-21 -4.35603e-24 -0.0187008)
(-1.9981e-21 4.37004e-24 -0.0172888)
(-1.33712e-21 2.9244e-24 -0.0157562)
(2.84853e-22 -2.11507e-22 -0.0141735)
(4.12478e-21 5.05298e-20 -0.0125969)
(-2.74968e-21 -4.68659e-20 -0.01107)
(-1.05441e-23 -1.99683e-22 -0.00962492)
(-1.94461e-24 5.37728e-23 -0.00828411)
(-2.37164e-21 -7.00752e-20 -0.00706182)
(2.37981e-21 7.01254e-20 -0.005965)
(-1.75162e-21 -7.34752e-20 -0.00499514)
(2.62623e-22 5.02684e-21 -0.00414855)
(-4.34945e-23 1.10534e-24 -0.00341914)
(1.99459e-22 5.47209e-21 -0.00279885)
(-7.27629e-24 -1.75757e-25 -0.0022797)
(2.4738e-23 -5.41045e-26 -0.00184892)
(-1.37503e-23 5.5557e-25 -0.00149496)
(1.41447e-22 6.15258e-21 -0.00120692)
(4.49033e-25 -8.45e-25 -0.000974457)
(-1.16973e-22 -6.41851e-21 -0.000788095)
(1.06362e-22 6.53704e-21 -0.000639389)
(-9.3873e-23 -6.64776e-21 -0.000521012)
(4.17171e-22 6.10185e-20 -0.000426746)
(-4.14009e-22 -6.122e-20 -0.000351438)
(-2.15973e-22 -4.87666e-20 -0.000290899)
(4.88617e-22 1.05121e-19 -0.000241791)
(-2.67337e-22 -5.64372e-20 -0.0002015)
(-7.25186e-23 -7.16861e-21 -0.000168013)
(6.62829e-23 7.23041e-21 -0.000139799)
(1.58759e-23 -2.48849e-25 -0.000115707)
(2.30698e-23 7.36473e-21 -9.48782e-05)
(-1.28451e-22 -3.71646e-20 -7.66709e-05)
(1.34088e-22 3.72736e-20 -6.06047e-05)
(-4.86867e-23 -7.52456e-21 -4.63137e-05)
(6.59939e-23 2.27655e-20 -3.35109e-05)
(-1.39028e-23 -7.58439e-21 -2.19579e-05)
(-4.77411e-23 -1.53676e-20 -1.14365e-05)
(1.99072e-23 7.70415e-21 -1.72011e-06)
(-2.05991e-23 -7.76419e-21 7.43075e-06)
(-1.46763e-20 2.34231e-20 0.0199982)
(1.97584e-20 -1.40015e-20 -0.00382558)
(-1.43056e-20 -1.57669e-20 -0.023101)
(-4.52229e-21 7.84257e-21 -0.0380298)
(3.90707e-21 -6.92229e-21 -0.0490266)
(-9.8378e-21 5.63578e-21 -0.0565602)
(8.08619e-21 3.28431e-21 -0.0611143)
(-1.91098e-20 -4.80531e-20 -0.0631681)
(2.63688e-20 3.8765e-20 -0.0631826)
(-1.46165e-20 1.68944e-21 -0.061588)
(1.01144e-20 -5.33177e-21 -0.0587749)
(3.03854e-20 1.2348e-19 -0.055089)
(-3.63291e-20 -1.17988e-19 -0.050828)
(-3.57139e-20 -1.67643e-19 -0.0462415)
(3.4509e-21 -2.40567e-20 -0.0415331)
(3.46827e-20 1.87561e-19 -0.0368642)
(-2.16975e-21 -2.20066e-21 -0.0323585)
(-1.29171e-21 -7.62788e-21 -0.0281064)
(2.19391e-24 -1.95486e-23 -0.0241703)
(5.01331e-23 -1.09646e-25 -0.0205889)
(1.5463e-22 9.65114e-25 -0.0173807)
(-4.42074e-22 -4.86825e-21 -0.0145472)
(2.08759e-20 3.17094e-19 -0.0120768)
(-2.29975e-20 -3.43598e-19 -0.00995497)
(1.84506e-20 3.52937e-19 -0.00814803)
(-1.01616e-20 -1.74126e-19 -0.00663452)
(-1.63008e-20 -3.75727e-19 -0.00537982)
(7.78606e-21 1.90743e-19 -0.00434968)
(-1.46161e-22 -6.18876e-21 -0.00351186)
(-5.06499e-22 -1.26646e-20 -0.00283595)
(1.13565e-22 6.43772e-21 -0.00229417)
(-5.28206e-22 -1.96982e-20 -0.00186188)
(4.1646e-21 2.08049e-19 -0.00151769)
(-8.63164e-21 -4.39674e-19 -0.00124351)
(3.85014e-21 2.113e-19 -0.00102436)
(-3.44501e-22 -2.08352e-20 -0.000848064)
(4.08504e-23 7.02011e-21 -0.000704939)
(4.16935e-24 1.66409e-23 -0.000587408)
(-1.50511e-21 -1.22345e-19 -0.000489638)
(1.28302e-21 1.08094e-19 -0.000407193)
(9.85107e-22 1.02591e-19 -0.000336742)
(-1.41492e-21 -1.39444e-19 -0.000275793)
(5.28733e-23 7.38464e-21 -0.000222488)
(2.56953e-22 3.75075e-20 -0.000175433)
(-5.50028e-22 -6.75353e-20 -0.000133564)
(-8.57199e-23 -7.57042e-21 -9.60456e-05)
(-3.27327e-22 -5.33852e-20 -6.21816e-05)
(-9.03387e-23 -7.80218e-21 -3.1325e-05)
(1.03515e-22 1.5319e-20 -2.78054e-06)
(1.17018e-22 2.32197e-20 2.42616e-05)
(-1.46753e-20 -6.07346e-22 0.028513)
(2.40543e-21 -6.04935e-21 -0.0108125)
(1.87111e-20 1.90218e-20 -0.0423871)
(-4.0603e-20 -1.20492e-20 -0.0663163)
(1.64231e-20 9.27618e-21 -0.0835043)
(-4.49675e-20 -6.15165e-20 -0.0949053)
(5.36189e-20 3.47731e-20 -0.101434)
(9.96157e-20 1.26377e-19 -0.103948)
(-1.21336e-20 6.10708e-20 -0.103242)
(-1.97746e-19 -3.51734e-19 -0.100039)
(2.28106e-19 4.17139e-19 -0.0949825)
(-1.17953e-19 -2.15712e-19 -0.0886319)
(1.06882e-21 -1.03246e-20 -0.0814611)
(-1.5624e-21 -2.62537e-21 -0.0738612)
(1.22678e-19 4.09009e-19 -0.0661463)
(-7.69566e-21 3.82699e-20 -0.0585616)
(-1.11994e-19 -4.3702e-19 -0.0512914)
(5.11093e-21 1.3795e-20 -0.0444679)
(-1.38312e-21 4.98514e-23 -0.0381797)
(2.20643e-23 -2.14965e-22 -0.0324789)
(4.2974e-20 3.11762e-19 -0.0273867)
(-4.15736e-20 -3.01535e-19 -0.0229001)
(-3.58049e-20 -3.30366e-19 -0.0190011)
(3.7777e-20 3.51555e-19 -0.0156517)
(1.19973e-21 1.14169e-20 -0.0128178)
(-1.09803e-21 -1.16729e-20 -0.0104354)
(9.14038e-22 1.19871e-20 -0.00846378)
(-2.25004e-20 -3.83508e-19 -0.00684674)
(2.35244e-20 3.96314e-19 -0.00553247)
(-1.82131e-20 -3.86791e-19 -0.00447256)
(1.95114e-20 4.12878e-19 -0.00362302)
(4.26529e-22 1.31907e-20 -0.00294494)
(1.45416e-20 4.32638e-19 -0.00240471)
(-2.77284e-20 -8.57973e-19 -0.00197391)
(1.38961e-20 4.52693e-19 -0.00162906)
(5.8492e-21 2.38372e-19 -0.00135114)
(-5.14758e-21 -2.10522e-19 -0.001125)
(-1.25199e-22 -1.88646e-23 -0.000938851)
(-3.06059e-23 -2.24697e-23 -0.000783597)
(2.7803e-23 -3.93039e-23 -0.000652348)
(3.648e-21 2.34652e-19 -0.000539926)
(-3.6011e-21 -2.20177e-19 -0.000442463)
(2.08134e-22 1.48046e-20 -0.000357076)
(1.71651e-23 -3.51484e-23 -0.000281595)
(1.32277e-21 1.20501e-19 -0.000214365)
(-2.56862e-21 -2.26664e-19 -0.000154079)
(1.29543e-21 1.21274e-19 -9.96342e-05)
(-6.5055e-22 -6.12216e-20 -4.99814e-05)
(4.79076e-22 4.58855e-20 -3.90771e-06)
(1.19402e-22 1.53815e-20 4.02432e-05)
(1.53561e-21 2.64965e-20 0.0284193)
(8.65299e-21 -5.2189e-20 -0.025527)
(1.41721e-20 7.57056e-20 -0.068206)
(-9.23928e-20 -8.86227e-20 -0.0994064)
(9.38019e-20 4.68658e-21 -0.120902)
(7.84053e-20 1.202e-19 -0.13438)
(-9.65399e-20 -8.71474e-20 -0.141313)
(1.15614e-19 1.62904e-19 -0.142992)
(-2.68693e-19 -3.54377e-19 -0.140558)
(1.75285e-19 1.78941e-19 -0.135019)
(-1.35185e-20 1.23331e-20 -0.127247)
(-7.55922e-21 7.7827e-22 -0.117981)
(1.08143e-20 8.55287e-21 -0.107833)
(-1.78257e-19 -4.12936e-19 -0.0972987)
(1.66519e-19 3.93446e-19 -0.0867672)
(1.13461e-21 1.80442e-20 -0.0765348)
(1.892e-22 -8.95908e-21 -0.0668186)
(1.45267e-19 5.57379e-19 -0.0577692)
(-1.45583e-19 -5.54387e-19 -0.0494822)
(-1.9553e-21 -1.10687e-20 -0.042008)
(-2.03675e-22 -1.79944e-23 -0.0353608)
(6.49026e-22 2.77721e-22 -0.0295242)
(8.30666e-23 -2.80303e-24 -0.0244682)
(1.28083e-21 1.13254e-20 -0.0201429)
(7.23854e-22 1.88853e-22 -0.0164865)
(1.10107e-21 1.18944e-20 -0.013426)
(-7.28844e-20 -8.02052e-19 -0.0108924)
(7.22035e-20 7.90263e-19 -0.0088175)
(-1.28942e-22 8.94849e-23 -0.0071327)
(-2.67623e-20 -4.18737e-19 -0.00577468)
(2.8053e-20 4.32224e-19 -0.00468631)
(-5.59989e-23 2.39242e-23 -0.0038173)
(-1.48907e-22 -2.04939e-23 -0.00312433)
(-1.92287e-20 -4.56479e-19 -0.00257093)
(3.65323e-20 9.04374e-19 -0.00212704)
(-3.2937e-20 -8.99755e-19 -0.00176835)
(3.02896e-20 9.08465e-19 -0.0014756)
(-2.77259e-20 -9.16405e-19 -0.00123378)
(1.31551e-20 4.60076e-19 -0.00103138)
(5.76109e-21 2.33621e-19 -0.000859663)
(-5.05421e-21 -2.04285e-19 -0.000712103)
(-3.21685e-22 -1.4745e-20 -0.000583815)
(-4.47053e-21 -2.38046e-19 -0.000471158)
(9.35096e-21 5.07179e-19 -0.000371393)
(-4.34648e-21 -2.39292e-19 -0.000282421)
(8.40455e-23 -3.73123e-23 -0.000202573)
(2.2313e-22 1.51367e-20 -0.000130425)
(-8.70025e-23 -5.38099e-24 -6.45621e-05)
(-1.66242e-22 -1.52752e-20 -3.19492e-06)
(3.69458e-22 3.06642e-20 5.65883e-05)
(2.70311e-20 7.03118e-23 0.0150071)
(-5.66667e-23 6.48504e-23 -0.0529123)
(-5.94095e-20 -2.43003e-22 -0.104362)
(8.39918e-20 -1.344e-21 -0.139795)
(-2.70567e-20 -2.64783e-21 -0.162639)
(-3.71611e-20 -1.09718e-21 -0.175598)
(1.48371e-20 2.11592e-21 -0.180796)
(-8.95512e-21 -3.1328e-21 -0.179966)
(6.32939e-20 -1.95063e-20 -0.174572)
(3.61519e-19 5.91086e-19 -0.165853)
(1.81297e-21 1.01565e-19 -0.154852)
(-3.97728e-19 -6.93275e-19 -0.142426)
(4.13534e-19 8.29243e-19 -0.129271)