/*--------------------------------*- C++ -*----------------------------------*\
| =========                 |                                                 |
| \\      /  F ield         | OpenFOAM: The Open Source CFD Toolbox           |
|  \\    /   O peration     | Version:  2412                                  |
|   \\  /    A nd           | Website:  www.openfoam.com                      |
|    \\/     M anipulation  |                                                 |
\*---------------------------------------------------------------------------*/
FoamFile
{
    version     2.0;
    format      ascii;
    arch        "LSB;label=32;scalar=64";
    class       volVectorField;
    location    "15";
    object      vorticity;
}
// * * * * * * * * * * * * * * * * * * * * * * * * * * * * * * * * * * * * * //

dimensions      [0 0 -1 0 0 0 0];

internalField   nonuniform List<vector> 
5285
(
(2.35999e-21 -6.52001e-20 -5.8001e-05)
(-1.85682e-21 7.68891e-21 -6.74504e-05)
(-1.91106e-22 -7.1721e-21 -7.76393e-05)
(7.44564e-23 7.17871e-21 -8.84946e-05)
(-3.14833e-24 -1.28771e-22 -9.99155e-05)
(-6.96697e-23 -6.92662e-21 -0.000111802)
(-2.00961e-21 6.98927e-21 -0.000124074)
(4.20812e-21 1.29221e-23 -0.000136689)
(1.23029e-21 6.78928e-21 -0.000149662)
(-3.27838e-21 -5.32567e-24 -0.000163086)
(4.72034e-21 7.89574e-21 -0.000177149)
(-5.50496e-21 1.02434e-19 -0.000192154)
(6.56284e-22 -1.10002e-19 -0.000208532)
(-2.10351e-21 1.00572e-19 -0.000226868)
(2.04839e-21 -1.01717e-19 -0.00024794)
(4.85411e-23 1.34227e-21 -0.000272797)
(-6.32183e-23 -1.64885e-21 -0.000302916)
(2.74141e-21 -9.64595e-20 -0.000340501)
(-8.63247e-21 9.36209e-20 -0.000389047)
(-3.18197e-22 -1.54988e-21 -0.000454363)
(6.21559e-21 1.35941e-23 -0.000546361)
(6.76237e-21 1.479e-23 -0.000682077)
(-6.74073e-21 -1.47426e-23 -0.000890532)
(-2.23638e-22 -4.89119e-25 -0.00122014)
(-2.33308e-22 -5.10267e-25 -0.00174925)
(-8.03703e-21 -1.75778e-23 -0.00259996)
(7.75775e-21 1.6967e-23 -0.00395398)
(-2.56407e-22 1.52651e-22 -0.00606754)
(-2.97061e-23 7.90397e-21 -0.00927912)
(-2.48707e-20 5.11957e-20 -0.0140011)
(2.39538e-20 -6.74618e-20 -0.0206814)
(-5.62053e-21 -9.62527e-21 -0.0297214)
(6.17862e-21 2.62425e-20 -0.0413416)
(-2.05643e-20 -5.74123e-21 -0.055313)
(1.56519e-21 -2.25604e-19 -0.000180261)
(-5.52766e-21 2.41785e-19 -0.000209455)
(-2.89073e-22 1.95617e-20 -0.000240991)
(-3.84437e-21 -7.33806e-21 -0.000274693)
(4.06205e-21 1.45308e-22 -0.000310277)
(-4.07193e-21 9.12678e-21 -0.000347463)
(1.12418e-21 2.1022e-19 -0.000386048)
(5.70866e-21 -4.45254e-19 -0.000425938)
(4.38274e-21 -2.12799e-19 -0.000467218)
(-6.7714e-21 4.30758e-19 -0.000510207)
(3.36833e-21 -4.29828e-19 -0.000555516)
(-1.68544e-21 4.41053e-19 -0.0006041)
(3.29238e-21 1.44685e-21 -0.000657307)
(-3.72447e-21 -9.7596e-23 -0.00071695)
(-1.25141e-21 -2.73696e-24 -0.000785431)
(0 -0 -0.000865981)
(1.85046e-22 9.60411e-23 -0.000963133)
(1.10701e-20 1.23895e-20 -0.00108363)
(-1.5419e-20 3.61543e-19 -0.00123815)
(-1.58024e-20 -2.4093e-20 -0.00144439)
(1.82664e-20 -3.56857e-19 -0.00173252)
(2.62781e-20 -3.08734e-19 -0.00215436)
(-9.02077e-21 3.29836e-19 -0.00279811)
(-3.12951e-20 2.1891e-21 -0.00381074)
(3.06085e-20 1.74426e-20 -0.00542991)
(-4.20342e-20 2.36008e-19 -0.00802543)
(2.25823e-20 -2.45504e-19 -0.0121471)
(-1.81417e-20 1.47741e-20 -0.018569)
(2.01212e-20 7.79675e-21 -0.0283131)
(-6.02754e-20 1.14529e-19 -0.0426233)
(6.02062e-20 -1.12098e-19 -0.0628472)
(-9.29179e-20 8.38875e-20 -0.0901719)
(8.96648e-20 -9.36538e-20 -0.125189)
(-1.89789e-20 -6.44015e-22 -0.165814)
(-4.89647e-21 -1.21781e-20 -0.000320874)
(-4.52172e-21 4.67564e-19 -0.000372464)
(4.05678e-22 -1.41958e-20 -0.000428402)
(-1.21972e-20 4.54278e-19 -0.000488477)
(1.21051e-20 -4.71825e-19 -0.0005523)
(-8.92435e-21 4.50781e-19 -0.00061951)
(2.07743e-21 -4.68901e-19 -0.00068988)
(5.25309e-21 -9.33224e-21 -0.000763377)
(-2.59973e-21 1.37503e-20 -0.000840274)
(5.56974e-21 -8.84009e-21 -0.000921246)
(-1.85625e-20 4.23231e-19 -0.00100747)
(1.66315e-20 -4.51165e-19 -0.0011007)
(1.80872e-20 -4.19459e-19 -0.00120338)
(-1.47698e-20 4.21462e-19 -0.00131875)
(-1.09208e-21 -5.21392e-21 -0.00145105)
(1.13073e-20 -1.22376e-22 -0.00160596)
(-1.2961e-20 -2.49599e-20 -0.00179138)
(5.25257e-20 -7.68035e-19 -0.00201902)
(1.67708e-20 5.63276e-20 -0.00230726)
(-6.96598e-20 7.23697e-19 -0.00268649)
(3.99664e-21 -1.24571e-20 -0.00320835)
(-1.15391e-20 -4.94596e-21 -0.0039614)
(1.10026e-19 -6.09145e-19 -0.00509616)
(-2.04638e-19 1.19694e-18 -0.00686315)
(2.08913e-19 -1.19044e-18 -0.0096668)
(7.22827e-20 8.56316e-20 -0.0141353)
(-1.57972e-19 5.22021e-19 -0.021201)
(-1.66416e-19 3.60866e-19 -0.0321753)
(1.57187e-19 -4.27838e-19 -0.0487894)
(-2.2539e-20 1.97402e-20 -0.0731523)
(5.56896e-20 -1.75919e-20 -0.107549)
(1.67476e-19 -1.04145e-19 -0.153949)
(-1.81256e-19 1.62439e-19 -0.213145)
(-2.57273e-20 -4.1592e-20 -0.277031)
(-9.73649e-21 4.81239e-19 -0.000493997)
(-7.117e-22 -3.81034e-21 -0.000572642)
(4.55893e-21 3.95674e-21 -0.000658348)
(-7.3659e-21 4.44276e-19 -0.000750991)
(-2.33919e-21 -4.66637e-19 -0.000850231)
(1.49589e-20 1.28901e-20 -0.00095579)
(-3.30869e-20 8.96453e-19 -0.0010676)
(2.48538e-20 -8.99531e-19 -0.00118589)
(2.28242e-21 -5.32594e-21 -0.00131134)
(-9.86694e-21 -9.1657e-23 -0.00144522)
(1.49698e-20 -1.36095e-20 -0.00158953)
(-4.8726e-21 1.24947e-22 -0.00174714)
(-5.35818e-21 -6.49448e-23 -0.00192189)
(5.09596e-21 1.98105e-22 -0.00211883)
(-3.74352e-21 1.40067e-21 -0.00234447)
(6.23897e-20 -7.97228e-19 -0.00260743)
(-5.64134e-20 8.19998e-19 -0.00291958)
(-1.62532e-20 1.74829e-22 -0.00329824)
(1.89126e-20 -1.03685e-20 -0.0037704)
(-9.85019e-20 7.33482e-19 -0.00438026)
(1.15328e-19 -7.36805e-19 -0.00520266)
(-2.30514e-20 2.25195e-21 -0.0063655)
(1.62812e-20 -9.10194e-23 -0.00808595)
(3.87126e-20 6.55844e-21 -0.0107252)
(-2.49873e-19 5.52225e-19 -0.0148656)
(3.69922e-19 -1.12009e-18 -0.0214113)
(-1.80642e-19 5.67811e-19 -0.0317031)
(2.64118e-19 -4.3538e-19 -0.0476301)
(-2.55527e-19 5.13029e-19 -0.071697)
(-5.98248e-19 5.30471e-19 -0.106986)
(1.13052e-18 -1.1246e-18 -0.156884)
(-5.54051e-19 5.68146e-19 -0.224308)
(1.91333e-20 -2.22017e-21 -0.310066)
(4.62164e-21 -3.56019e-20 -0.39228)
(4.22463e-21 3.75518e-21 -0.000716577)
(-4.94721e-21 4.54926e-19 -0.000829282)
(2.00437e-20 -4.92351e-19 -0.000952836)
(6.41776e-21 2.71201e-20 -0.00108741)
(-4.52309e-20 9.38517e-19 -0.00123292)
(2.84117e-20 -9.41295e-19 -0.00138945)
(1.02979e-20 2.27836e-20 -0.00155736)
(-1.82335e-20 -2.35679e-22 -0.00173746)
(1.19309e-20 9.73698e-21 -0.00193119)
(-3.77692e-20 9.0308e-19 -0.00214081)
(3.09499e-20 -8.94691e-19 -0.00236959)
(2.86655e-21 9.72178e-21 -0.00262199)
(9.69644e-21 2.74337e-20 -0.00290384)
(-1.16296e-20 -5.55433e-22 -0.00322261)
(1.1661e-21 -1.31287e-20 -0.00358785)
(-3.76975e-20 1.33366e-20 -0.00401193)
(3.55238e-20 1.27106e-20 -0.00451161)
(-3.19094e-21 -2.55175e-20 -0.00511092)
(8.15682e-20 -7.46717e-19 -0.00584657)
(-7.24499e-20 7.69639e-19 -0.00677794)
(2.68898e-19 -1.48266e-18 -0.00800463)
(-2.46161e-19 1.49706e-18 -0.00969619)
(3.06516e-19 -1.40271e-18 -0.0121401)
(7.28641e-20 1.32766e-19 -0.0158147)
(-3.53218e-19 1.3373e-18 -0.0214924)
(-1.22601e-19 -2.25139e-20 -0.0303736)
(1.66839e-20 3.8886e-22 -0.0442446)
(-1.86437e-20 5.66857e-22 -0.0656383)
(5.50457e-20 1.68845e-21 -0.0979624)
(2.6534e-20 1.38079e-20 -0.145536)
(-1.14927e-19 5.22527e-21 -0.21337)
(6.5422e-20 5.07054e-21 -0.30616)
(-1.67924e-22 -3.15249e-22 -0.425241)
(3.66268e-20 6.50878e-22 -0.522039)
(-3.21004e-21 6.77181e-21 -0.00100902)
(3.79975e-20 -9.57829e-19 -0.00116552)
(2.91282e-20 -9.19749e-19 -0.0013382)
(6.57104e-21 2.12467e-20 -0.00152778)
(-2.60403e-20 9.55473e-19 -0.00173478)
(-2.03301e-20 -8.16215e-21 -0.00195999)
(1.24121e-20 9.036e-21 -0.00220464)
(-5.0026e-20 9.25763e-19 -0.00247059)
(4.04272e-20 -9.4053e-19 -0.00276057)
(7.21158e-20 -9.03649e-19 -0.00307843)
(-7.33534e-20 9.33548e-19 -0.0034294)
(1.522e-20 -2.02147e-20 -0.0038203)
(6.67138e-20 -9.01647e-19 -0.00425987)
(-9.47374e-20 9.24746e-19 -0.00475905)
(4.41859e-21 1.24835e-20 -0.00533158)
(-2.05557e-19 1.69516e-18 -0.00599496)
(1.85451e-19 -1.75887e-18 -0.0067723)
(4.90575e-20 6.26952e-20 -0.00769581)
(-2.66097e-19 1.60649e-18 -0.00881339)
(2.43512e-19 -1.67524e-18 -0.0102007)
(-3.19806e-20 -3.37745e-21 -0.0119827)
(4.73035e-19 -1.51262e-18 -0.0143705)
(-4.42502e-19 1.56233e-18 -0.0177216)
(-6.72344e-20 -7.34418e-20 -0.0226322)
(6.83388e-19 -1.32255e-18 -0.0300693)
(-1.20203e-18 2.72894e-18 -0.0415456)
(-6.7876e-20 -1.56397e-19 -0.0593292)
(-9.09025e-20 -1.22532e-19 -0.0866742)
(7.79506e-19 -1.19067e-18 -0.128059)
(4.01226e-20 6.39807e-20 -0.189451)
(-8.84564e-19 7.91724e-19 -0.278595)
(8.6738e-19 -8.70528e-19 -0.404775)
(9.61809e-21 2.94099e-20 -0.574616)
(9.55192e-21 -2.79097e-21 -0.691867)
(-1.58445e-21 -2.01093e-20 -0.00134607)
(2.67e-20 -9.96174e-19 -0.00154734)
(-5.48137e-21 -7.68785e-21 -0.00176964)
(-1.70817e-22 1.20657e-22 -0.00201416)
(1.15749e-20 8.52917e-21 -0.0022818)
(-5.219e-20 9.59137e-19 -0.00257378)
(4.63839e-20 -9.79822e-19 -0.00289179)
(1.2917e-20 8.43273e-21 -0.00323819)
(-8.82956e-21 -1.50235e-20 -0.00361621)
(-6.24024e-21 1.00153e-20 -0.00403021)
(-7.3112e-20 9.26829e-19 -0.00448586)
(1.57311e-19 -1.89122e-18 -0.00499035)
(-7.44345e-20 9.86532e-19 -0.00555254)
(-1.89808e-19 1.82912e-18 -0.00618309)
(-3.06498e-20 -4.52818e-20 -0.00689483)
(2.75433e-21 -2.60267e-20 -0.00770337)
(-6.67989e-20 -5.36652e-20 -0.00862855)
(2.572e-19 -1.83004e-18 -0.00969741)
(3.98636e-19 -1.69536e-18 -0.0109503)
(-3.55335e-19 1.77956e-18 -0.0124532)
(-3.44035e-20 -5.56537e-20 -0.0143197)
(4.73601e-19 -1.6236e-18 -0.0167518)
(-4.1705e-19 1.71994e-18 -0.0201085)
(-6.71522e-19 1.52928e-18 -0.0250144)
(5.70049e-19 -1.6153e-18 -0.0325238)
(7.9373e-20 -1.13978e-20 -0.0443453)
(8.77463e-19 -1.43083e-18 -0.0631256)
(1.24409e-19 1.225e-19 -0.0927819)
(-1.01589e-18 1.40301e-18 -0.138882)
(-1.65184e-20 -4.02557e-20 -0.209152)
(3.40743e-20 5.34563e-22 -0.314826)
(-3.46485e-20 1.57037e-20 -0.475634)
(-5.2284e-19 5.47277e-19 -0.729551)
(5.14258e-19 -5.56401e-19 -1.00439)
(-1.05991e-20 -3.09849e-21 0.0101434)
(-1.04852e-20 -5.76485e-22 0.00415171)
(9.82926e-21 9.89932e-21 -0.000888006)
(-7.15785e-21 1.65842e-21 -0.00505292)
(7.66902e-21 -1.08456e-20 -0.0084274)
(7.94875e-25 3.32148e-21 -0.0111003)
(-1.61096e-22 -9.22538e-23 -0.0131573)
(-5.02391e-21 1.09878e-23 -0.0146782)
(4.88126e-21 -1.06758e-23 -0.0157345)
(-1.40265e-22 3.06774e-25 -0.0163904)
(-1.30271e-22 2.84916e-25 -0.0167039)
(3.60862e-21 -7.89241e-24 -0.016728)
(-3.62021e-21 7.91777e-24 -0.0165109)
(-2.92975e-21 6.40765e-24 -0.0160965)
(3.64802e-22 -6.00354e-22 -0.0155245)
(5.46581e-21 2.39377e-20 -0.0148302)
(-2.68277e-21 -2.11831e-20 -0.014045)
(-3.68492e-23 -5.65908e-22 -0.0131964)
(-1.11039e-23 3.07045e-22 -0.0123082)
(-2.66478e-21 -4.14538e-20 -0.011401)
(2.68603e-21 4.11063e-20 -0.010492)
(-2.05263e-21 -4.66998e-20 -0.00959545)
(-1.53484e-20 2.50265e-20 0.0292951)
(2.99602e-20 -9.31766e-21 0.01145)
(-2.40612e-20 -2.2228e-20 -0.00363497)
(5.44825e-21 2.05283e-20 -0.0160044)
(-5.92245e-21 -1.99004e-20 -0.0259521)
(-1.19478e-20 6.02576e-21 -0.033777)
(1.04234e-20 5.7905e-21 -0.0397577)
(4.08721e-22 -1.51446e-21 -0.0441438)
(1.07634e-20 -9.30316e-21 -0.0471549)
(-1.99518e-20 5.11791e-21 -0.0489859)
(1.72728e-20 -4.90992e-21 -0.0498114)
(1.33783e-20 4.15274e-20 -0.0497896)
(-2.31758e-20 -3.06937e-20 -0.0490644)
(-2.51616e-20 -7.1382e-20 -0.0477661)
(5.14378e-21 -2.19898e-20 -0.0460115)
(2.56534e-20 8.37506e-20 -0.0439049)
(-4.90843e-21 1.2393e-21 -0.0415387)
(-1.05984e-21 -4.14427e-21 -0.0389933)
(7.05742e-24 -6.28845e-23 -0.0363386)
(2.86263e-22 -6.26085e-25 -0.0336342)
(7.69212e-22 1.04918e-23 -0.0309305)
(-1.08992e-21 -3.64608e-21 -0.0282686)
(-1.44917e-20 -9.69954e-22 0.0449366)
(-1.26324e-20 -1.51363e-20 0.0154917)
(3.47532e-20 2.90121e-20 -0.00949722)
(-4.35945e-20 -1.25121e-20 -0.0296394)
(1.79205e-20 1.13772e-20 -0.0455874)
(3.76679e-21 1.60447e-22 -0.0579522)
(5.03197e-21 -3.5852e-20 -0.0672654)
(4.8823e-20 2.4462e-20 -0.0739776)
(-2.22142e-20 4.92545e-20 -0.0784695)
(-8.77526e-20 -9.87436e-20 -0.081068)
(1.26317e-19 1.14609e-19 -0.0820653)
(-7.24979e-20 -5.40345e-20 -0.0817231)
(4.3022e-21 -1.08285e-20 -0.0802761)
(-2.6354e-21 -6.04123e-21 -0.0779351)
(9.73993e-20 1.96071e-19 -0.0748885)
(-3.48837e-21 4.05055e-20 -0.0713036)
(-9.08537e-20 -2.22711e-19 -0.0673277)
(8.02458e-21 3.64298e-21 -0.0630887)
(-4.03942e-21 1.51405e-22 -0.058697)
(1.45414e-22 -1.10892e-21 -0.0542463)
(4.66264e-20 2.00004e-19 -0.0498151)
(-4.54364e-20 -1.90711e-19 -0.045468)
(1.80926e-21 2.70694e-20 0.0535972)
(8.81517e-21 -5.46394e-20 0.0131474)
(-5.68398e-20 2.64511e-20 -0.0212434)
(7.32363e-20 4.86348e-20 -0.0482014)
(-4.58791e-22 -8.71393e-20 -0.0690291)
(1.4379e-20 4.97236e-20 -0.0848122)
(-3.07458e-20 -9.33243e-21 -0.0964154)
(3.68661e-20 5.17231e-20 -0.104527)
(-1.17922e-19 -1.04659e-19 -0.109701)
(1.14188e-19 3.99083e-20 -0.1124)
(-2.18508e-20 1.27471e-20 -0.113026)
(-1.13483e-20 7.26079e-22 -0.111934)
(1.5984e-20 9.09077e-21 -0.109436)
(-1.35758e-19 -2.08468e-19 -0.105814)
(1.20739e-19 1.88381e-19 -0.101315)
(-4.22574e-21 1.47457e-20 -0.0961595)
(4.28468e-21 -8.07317e-21 -0.0905388)
(1.32287e-19 3.34543e-19 -0.0846187)
(-1.34277e-19 -3.25968e-19 -0.0785412)
(-1.21899e-21 -1.03175e-20 -0.072426)
(-1.06118e-21 -5.00135e-23 -0.0663731)
(1.48958e-21 4.19616e-22 -0.0604639)
(2.76004e-20 9.62547e-23 0.0507716)
(2.94498e-22 3.51961e-22 -3.08754e-05)
(-6.19382e-20 3.12438e-22 -0.042574)
(9.05738e-20 -5.41246e-22 -0.0744893)
(-2.74499e-20 -6.43828e-22 -0.0982666)
(-4.23308e-20 -9.41628e-22 -0.115681)
(1.46943e-20 6.45181e-22 -0.128005)
(-1.07206e-20 -1.06543e-21 -0.136185)
(8.43301e-20 -2.3516e-20 -0.14094)
(1.6751e-19 2.66128e-19 -0.142847)
(9.7153e-21 9.05469e-20 -0.142395)
(-2.10302e-19 -3.41217e-19 -0.140006)
(2.64772e-19 4.30133e-19 -0.136054)
(-2.80798e-19 -4.23882e-19 -0.130867)
(1.41043e-19 2.71127e-19 -0.124736)
(-1.51681e-19 -2.83163e-19 -0.117914)
(5.32445e-21 -1.24574e-21 -0.110623)
(-1.70487e-20 -5.09712e-21 -0.103052)
(1.17895e-20 -6.66695e-21 -0.0953642)
(2.39936e-21 6.29571e-21 -0.0876943)
(3.22555e-21 1.13082e-22 -0.0801551)
(-8.2981e-21 -1.52248e-20 -0.0728375)
(-4.08888e-22 1.39137e-21 -0.0658142)
(-8.55418e-20 -3.21423e-22 0.0319774)
(2.61312e-20 3.18223e-20 -0.0304621)
(5.63099e-20 -6.95878e-20 -0.0783535)
(-1.44331e-20 6.08275e-21 -0.111757)
(-3.79053e-20 5.95211e-20 -0.135403)
(-4.07457e-20 -1.7272e-19 -0.151861)
(-2.94336e-20 -8.09978e-20 -0.16279)
(-4.86592e-20 -9.72928e-20 -0.169328)
(3.65845e-19 6.33692e-19 -0.1723)
(-2.88166e-19 -2.79644e-19 -0.172346)
(5.74997e-20 -3.64871e-20 -0.169996)
(3.54382e-19 5.22529e-19 -0.165705)
(-3.67753e-19 -4.79208e-19 -0.159867)
(1.98694e-20 -4.82422e-21 -0.15283)
(-3.68515e-19 -6.98282e-19 -0.144896)
(3.84613e-19 6.73543e-19 -0.136333)
(-2.82539e-20 1.84609e-20 -0.12737)
(-4.0578e-19 -8.76556e-19 -0.118206)
(4.19891e-19 8.61804e-19 -0.109007)
(-4.87406e-21 -1.05161e-21 -0.0999143)
(2.09835e-19 5.24427e-19 -0.0910438)
(-1.92994e-19 -5.00687e-19 -0.082489)
(-4.32506e-21 -4.65343e-21 -0.0743226)
(-1.46652e-20 1.231e-20 -0.00699573)
(4.40754e-20 -5.19288e-20 -0.0802702)
(3.39697e-21 3.92318e-20 -0.122564)
(-3.73003e-20 -3.96087e-22 -0.149875)
(2.39227e-20 -2.87868e-20 -0.16852)
(1.41952e-19 2.98464e-19 -0.180705)
(2.43982e-21 1.21029e-19 -0.18796)
(-1.61156e-19 -3.62292e-19 -0.191368)
(-5.0989e-20 -1.60333e-21 -0.191676)
(-2.57198e-19 -5.61847e-19 -0.189446)
(3.26676e-19 4.8759e-19 -0.185142)
(3.26894e-19 6.99712e-19 -0.179162)
(-3.67993e-19 -6.32304e-19 -0.171854)
(2.22958e-20 -3.60173e-20 -0.163522)
(4.62392e-19 8.45091e-19 -0.15444)
(-4.85852e-19 -7.98567e-19 -0.144845)
(-4.70832e-19 -9.60712e-19 -0.134948)
(1.13877e-20 -7.33033e-20 -0.124933)
(-1.35818e-20 -5.86171e-20 -0.114955)
(8.48197e-21 -5.63523e-20 -0.105149)
(4.78327e-19 1.10241e-18 -0.0956241)
(2.26307e-19 6.09922e-19 -0.0864704)
(-4.60718e-19 -1.22743e-18 -0.0777592)
(7.85286e-20 1.07269e-19 -0.0615802)
(-4.40677e-20 -0 -0.0981227)
(3.02103e-22 -0 -0.121336)
(0 -0 -0.137916)
(-2.73254e-22 -0 -0.149827)
(-3.29319e-20 -0 -0.15802)
(1.60146e-21 -0 -0.163038)
(3.15589e-20 -0 -0.16525)
(-2.20476e-22 -0 -0.164999)
(2.61116e-20 -0 -0.162626)
(-2.58113e-20 -0 -0.158454)
(-2.23673e-20 -0 -0.152796)
(2.22742e-20 -0 -0.145944)
(0 -0 -0.138171)
(-1.67453e-20 -0 -0.129726)
(1.6675e-20 -0 -0.120838)
(1.32426e-20 -0 -0.111707)
(-1.56456e-21 -0 -0.102512)
(-1.46562e-21 -0 -0.0934043)
(-1.4268e-21 -0 -0.0845133)
(-8.67039e-21 -0 -0.075944)
(-3.08525e-21 -0 -0.0677805)
(5.73977e-21 -0 -0.060086)
(2.60653e-21 -0 -0.0529079)
(0 -6.0714e-20 -0.159383)
(0 -0 -0.161126)
(0 -0 -0.168002)
(0 -0 -0.174861)
(0 -0 -0.180188)
(0 -0 -0.183659)
(0 -0 -0.185188)
(0 -0 -0.184784)
(0 -0 -0.182543)
(0 -0 -0.178619)
(0 -0 -0.173199)
(0 -0 -0.166495)
(0 -0 -0.158723)
(0 -0 -0.150104)
(0 -0 -0.140853)
(0 -0 -0.131175)
(0 -0 -0.121259)
(0 -0 -0.11128)
(0 -0 -0.101392)
(0 -0 -0.0917298)
(0 -0 -0.0824056)
(0 -0 -0.0735111)
(0 -0 -0.0651193)
(0 4.79463e-22 -0.227421)
(0 -0 -0.216063)
(0 -0 -0.212102)
(0 -0 -0.210839)
(0 -0 -0.210043)
(0 -0 -0.20882)
(0 -0 -0.206697)
(0 -0 -0.203416)
(0 -0 -0.198879)
(0 -0 -0.193093)
(0 -0 -0.186136)
(0 -0 -0.178134)
(0 -0 -0.169242)
(0 -0 -0.159634)
(0 -0 -0.149489)
(0 -0 -0.138991)
(0 -0 -0.128314)
(0 -0 -0.117623)
(0 -0 -0.107066)
(0 -0 -0.0967751)
(0 -0 -0.0868625)
(0 -0 -0.0774199)
(0 -0 -0.0685202)
(0 -0 -0.272358)
(0 -0 -0.255862)
(0 -0 -0.245764)
(0 -0 -0.238853)
(0 -0 -0.233235)
(0 -0 -0.228016)
(0 -0 -0.222621)
(0 -0 -0.216673)
(0 -0 -0.209964)
(0 -0 -0.202407)
(0 -0 -0.194)
(0 -0 -0.184804)
(0 -0 -0.174922)
(0 -0 -0.164485)
(0 -0 -0.153643)
(0 -0 -0.142552)
(0 -0 -0.131367)
(0 -0 -0.120237)
(0 -0 -0.1093)
(0 -0 -0.0986781)
(0 -0 -0.0884765)
(0 -0 -0.0787818)
(0 -0 -0.0696629)
(0 -4.53062e-22 -0.29693)
(0 -0 -0.279286)
(0 -0 -0.266457)
(0 -0 -0.256338)
(0 -0 -0.247566)
(0 -0 -0.239479)
(0 -0 -0.231592)
(0 -0 -0.223536)
(0 -0 -0.215077)
(0 -0 -0.206087)
(0 -0 -0.196523)
(0 -0 -0.186405)
(0 -0 -0.175799)
(0 -0 -0.164804)
(0 -0 -0.153539)
(0 -0 -0.142137)
(0 -0 -0.130731)
(0 -0 -0.119453)
(0 -0 -0.108426)
(0 -0 -0.0977601)
(0 -0 -0.08755)
(0 -0 -0.0778739)
(0 -0 -0.068794)
(0 -5.49284e-20 -0.303347)
(0 -0 -0.28683)
(0 -0 -0.273608)
(0 -0 -0.262296)
(0 -0 -0.251996)
(0 -0 -0.24231)
(0 -0 -0.232912)
(0 -0 -0.223517)
(0 -0 -0.213926)
(0 -0 -0.204017)
(0 -0 -0.19374)
(0 -0 -0.183096)
(0 -0 -0.17213)
(0 -0 -0.160917)
(0 -0 -0.149555)
(0 -0 -0.138155)
(0 -0 -0.126831)
(0 -0 -0.115697)
(0 -0 -0.104861)
(0 -0 -0.0944199)
(0 -0 -0.0844565)
(0 -0 -0.0750395)
(0 -0 -0.0662235)
(0 5.51094e-20 -0.294413)
(0 -0 -0.280278)
(0 -0 -0.268179)
(0 -0 -0.257163)
(0 -0 -0.246695)
(0 -0 -0.236586)
(0 -0 -0.226667)
(0 -0 -0.216761)
(0 -0 -0.206734)
(0 -0 -0.196501)
(0 -0 -0.186024)
(0 -0 -0.175308)
(0 -0 -0.164388)
(0 -0 -0.153329)
(0 -0 -0.142212)
(0 -0 -0.13113)
(0 -0 -0.120184)
(0 -0 -0.10947)
(0 -0 -0.0990827)
(0 -0 -0.0891057)
(0 -0 -0.0796113)
(0 -0 -0.0706586)
(0 -0 -0.062295)
(0 3.83713e-22 -0.273572)
(0 -0 -0.262371)
(0 -0 -0.252257)
(0 -0 -0.242515)
(0 -0 -0.232871)
(0 -0 -0.223278)
(0 -0 -0.213687)
(0 -0 -0.204022)
(0 -0 -0.194218)
(0 -0 -0.184237)
(0 -0 -0.174067)
(0 -0 -0.163725)
(0 -0 -0.153249)
(0 -0 -0.142699)
(0 -0 -0.132148)
(0 -0 -0.121677)
(0 -0 -0.111373)
(0 -0 -0.101322)
(0 -0 -0.091603)
(0 -0 -0.0822908)
(0 -0 -0.0734475)
(0 -0 -0.0651241)
(0 -0 -0.0573616)
(0 -3.55498e-22 -0.244575)
(0 -0 -0.236371)
(0 -0 -0.228603)
(0 -0 -0.220662)
(0 -0 -0.212454)
(0 -0 -0.204017)
(0 -0 -0.195379)
(0 -0 -0.186541)
(0 -0 -0.177495)
(0 -0 -0.168247)
(0 -0 -0.158814)
(0 -0 -0.149229)
(0 -0 -0.139538)
(0 -0 -0.129801)
(0 -0 -0.120085)
(0 -0 -0.110466)
(0 -0 -0.101019)
(0 -0 -0.0918216)
(0 -0 -0.0829435)
(0 -0 -0.0744493)
(0 -0 -0.0663937)
(0 -0 -0.0588209)
(0 -0 -0.0517667)
(0 4.1571e-20 -0.211086)
(0 -0 -0.20562)
(0 -0 -0.200188)
(0 -0 -0.194217)
(0 -0 -0.187722)
(0 -0 -0.180784)
(0 -0 -0.173475)
(0 -0 -0.165842)
(0 -0 -0.15792)
(0 -0 -0.149747)
(0 -0 -0.141363)
(0 -0 -0.132816)
(0 -0 -0.124161)
(0 -0 -0.115458)
(0 -0 -0.106774)
(0 -0 -0.0981788)
(0 -0 -0.0897416)
(0 -0 -0.0815305)
(0 -0 -0.073609)
(0 -0 -0.0660341)
(0 -0 -0.0588541)
(0 -0 -0.0521082)
(0 -0 -0.045828)
(0 -4.10926e-20 -0.176336)
(0 -0 -0.173161)
(0 -0 -0.16981)
(0 -0 -0.165715)
(0 -0 -0.160947)
(0 -0 -0.155602)
(0 -0 -0.149769)
(0 -0 -0.143517)
(0 -0 -0.136907)
(0 -0 -0.129995)
(0 -0 -0.122838)
(0 -0 -0.115493)
(0 -0 -0.10802)
(0 -0 -0.100481)
(0 -0 -0.0929423)
(0 -0 -0.085468)
(0 -0 -0.0781227)
(0 -0 -0.0709683)
(0 -0 -0.064062)
(0 -0 -0.0574551)
(0 -0 -0.051191)
(0 -0 -0.0453046)
(0 -0 -0.0398246)
(0 -3.42033e-20 -0.142887)
(0 -0 -0.141476)
(0 -0 -0.139814)
(0 -0 -0.137335)
(0 -0 -0.134127)
(0 -0 -0.130284)
(0 -0 -0.125893)
(0 -0 -0.121029)
(0 -0 -0.115763)
(0 -0 -0.110158)
(0 -0 -0.104278)
(0 -0 -0.0981849)
(0 -0 -0.0919395)
(0 -0 -0.0856044)
(0 -0 -0.0792414)
(0 -0 -0.0729119)
(0 -0 -0.0666752)
(0 -0 -0.0605877)
(0 -0 -0.0547014)
(0 -0 -0.0490627)
(0 -0 -0.0437109)
(0 -0 -0.0386776)
(0 -0 -0.0339891)
(0 3.4058e-20 -0.112527)
(0 -0 -0.112353)
(0 -0 -0.111942)
(0 -0 -0.110738)
(0 -0 -0.108821)
(0 -0 -0.106271)
(0 -0 -0.103166)
(0 -0 -0.0995752)
(0 -0 -0.0955663)
(0 -0 -0.0912034)
(0 -0 -0.0865485)
(0 -0 -0.0816622)
(0 -0 -0.0766043)
(0 -0 -0.0714335)
(0 -0 -0.0662079)
(0 -0 -0.0609838)
(0 -0 -0.0558155)
(0 -0 -0.0507541)
(0 -0 -0.0458468)
(0 -0 -0.0411356)
(0 -0 -0.0366559)
(0 -0 -0.0324367)
(0 -0 -0.0285021)
(0 -0 -0.086284)
(0 -0 -0.0868799)
(0 -0 -0.087301)
(0 -0 -0.0870145)
(0 -0 -0.0860819)
(0 -0 -0.0845646)
(0 -0 -0.0825227)
(0 -0 -0.0800161)
(0 -0 -0.0771034)
(0 -0 -0.0738419)
(0 -0 -0.0702879)
(0 -0 -0.0664968)
(0 -0 -0.062523)
(0 -0 -0.05842)
(0 -0 -0.0542401)
(0 -0 -0.0500341)
(0 -0 -0.0458507)
(0 -0 -0.0417358)
(0 -0 -0.0377317)
(0 -0 -0.0338759)
(0 -0 -0.0302006)
(0 -0 -0.0267317)
(0 -0 -0.0234916)
(0 -2.49407e-20 -0.0645335)
(0 -0 -0.0655241)
(0 -0 -0.0664227)
(0 -0 -0.0667301)
(0 -0 -0.0664859)
(0 -0 -0.065732)
(0 -0 -0.0645118)
(0 -0 -0.0628713)
(0 -0 -0.0608575)
(0 -0 -0.0585181)
(0 -0 -0.0559006)
(0 -0 -0.0530526)
(0 -0 -0.0500211)
(0 -0 -0.0468528)
(0 -0 -0.0435933)
(0 -0 -0.0402872)
(0 -0 -0.0369772)
(0 -0 -0.0337035)
(0 -0 -0.0305036)
(0 -0 -0.0274107)
(0 -0 -0.0244535)
(0 -0 -0.0216552)
(0 -0 -0.0190361)
(0 2.4837e-20 -0.0471609)
(0 -0 -0.0482745)
(0 -0 -0.0493784)
(0 -0 -0.0500151)
(0 -0 -0.0502048)
(0 -0 -0.0499717)
(0 -0 -0.0493442)
(0 -0 -0.0483548)
(0 -0 -0.0470385)
(0 -0 -0.0454321)
(0 -0 -0.0435734)
(0 -0 -0.041501)
(0 -0 -0.039254)
(0 -0 -0.0368711)
(0 -0 -0.034391)
(0 -0 -0.0318515)
(0 -0 -0.0292891)
(0 -0 -0.0267386)
(0 -0 -0.0242323)
(0 -0 -0.0217993)
(0 -0 -0.0194646)
(0 -0 -0.0172487)
(0 -0 -0.0151696)
(0 2.02504e-20 -0.0337348)
(0 -0 -0.034796)
(0 -0 -0.0359175)
(0 -0 -0.0366875)
(0 -0 -0.0371114)
(0 -0 -0.0372001)
(0 -0 -0.0369696)
(0 -0 -0.0364405)
(0 -0 -0.0356371)
(0 -0 -0.0345857)
(0 -0 -0.0333149)
(0 -0 -0.0318545)
(0 -0 -0.0302352)
(0 -0 -0.0284884)
(0 -0 -0.0266453)
(0 -0 -0.0247374)
(0 -0 -0.022795)
(0 -0 -0.0208474)
(0 -0 -0.0189222)
(0 -0 -0.0170441)
(0 -0 -0.0152346)
(0 -0 -0.0135113)
(0 -0 -0.0118902)
(0 -2.01665e-20 -0.0236606)
(0 -0 -0.0245735)
(0 -0 -0.0255984)
(0 -0 -0.0263709)
(0 -0 -0.0268867)
(0 -0 -0.0271472)
(0 -0 -0.0271592)
(0 -0 -0.0269345)
(0 -0 -0.026488)
(0 -0 -0.0258375)
(0 -0 -0.0250033)
(0 -0 -0.0240072)
(0 -0 -0.0228724)
(0 -0 -0.0216232)
(0 -0 -0.0202844)
(0 -0 -0.018881)
(0 -0 -0.0174379)
(0 -0 -0.0159792)
(0 -0 -0.0145276)
(0 -0 -0.0131041)
(0 -0 -0.0117266)
(0 -0 -0.0104101)
(0 -0 -0.00916806)
(0 -0 -0.0162992)
(0 -0 -0.0170264)
(0 -0 -0.0178985)
(0 -0 -0.0185971)
(0 -0 -0.0191128)
(0 -0 -0.0194411)
(0 -0 -0.0195831)
(0 -0 -0.0195437)
(0 -0 -0.0193313)
(0 -0 -0.0189567)
(0 -0 -0.0184334)
(0 -0 -0.0177767)
(0 -0 -0.0170032)
(0 -0 -0.0161312)
(0 -0 -0.0151796)
(0 -0 -0.014168)
(0 -0 -0.0131161)
(0 -0 -0.0120433)
(0 -0 -0.0109683)
(0 -0 -0.00990814)
(0 -0 -0.00887773)
(0 -0 -0.00788934)
(0 -0 -0.00695432)
(0 -0 -0.0110468)
(0 -0 -0.0115888)
(0 -0 -0.012292)
(0 -0 -0.0128812)
(0 -0 -0.0133448)
(0 -0 -0.0136759)
(0 -0 -0.0138717)
(0 -0 -0.0139331)
(0 -0 -0.0138637)
(0 -0 -0.0136694)
(0 -0 -0.0133584)
(0 -0 -0.0129407)
(0 -0 -0.012428)
(0 -0 -0.0118332)
(0 -0 -0.0111706)
(0 -0 -0.010455)
(0 -0 -0.00970186)
(0 -0 -0.00892648)
(0 -0 -0.00814379)
(0 -0 -0.00736761)
(0 -0 -0.00660992)
(0 -0 -0.00588062)
(0 -0 -0.00518896)
(0 -1.0958e-22 -0.00737849)
(0 -0 -0.00775699)
(0 -0 -0.00830025)
(0 -0 -0.00877179)
(0 -0 -0.00916039)
(0 -0 -0.00945825)
(0 -0 -0.00966104)
(0 -0 -0.0097672)
(0 -0 -0.00977727)
(0 -0 -0.00969384)
(0 -0 -0.00952135)
(0 -0 -0.00926597)
(0 -0 -0.00893537)
(0 -0 -0.00853862)
(0 -0 -0.00808592)
(0 -0 -0.00758842)
(0 -0 -0.00705791)
(0 -0 -0.00650639)
(0 -0 -0.00594562)
(0 -0 -0.00538657)
(0 -0 -0.00483874)
(0 -0 -0.00430988)
(0 -0 -0.00380735)
(0 -6.26442e-21 -0.00486503)
(0 -0 -0.00511076)
(0 -0 -0.00551564)
(0 -0 -0.00587764)
(0 -0 -0.00618692)
(0 -0 -0.0064361)
(0 -0 -0.0066204)
(0 -0 -0.00673714)
(0 -0 -0.00678517)
(0 -0 -0.00676494)
(0 -0 -0.00667841)
(0 -0 -0.00652901)
(0 -0 -0.00632154)
(0 -0 -0.00606209)
(0 -0 -0.00575789)
(0 -0 -0.00541717)
(0 -0 -0.00504883)
(0 -0 -0.00466215)
(0 -0 -0.00426633)
(0 -0 -0.00386997)
(0 -0 -0.00348046)
(0 -0 -0.00310373)
(0 -0 -0.00274546)
(0 1.19674e-20 -0.00317184)
(0 -0 -0.00331661)
(0 -0 -0.00360925)
(0 -0 -0.00387776)
(0 -0 -0.00411412)
(0 -0 -0.00431192)
(0 -0 -0.00446667)
(0 -0 -0.00457539)
(0 -0 -0.00463612)
(0 -0 -0.00464809)
(0 -0 -0.00461173)
(0 -0 -0.00452865)
(0 -0 -0.00440166)
(0 -0 -0.00423473)
(0 -0 -0.00403293)
(0 -0 -0.00380225)
(0 -0 -0.00354943)
(0 -0 -0.00328161)
(0 -0 -0.00300597)
(0 -0 -0.00272918)
(0 -0 -0.00245691)
(0 -0 -0.00219356)
(0 -0 -0.0019434)
(0 -5.70514e-21 -0.00204814)
(0 -0 -0.00212048)
(0 -0 -0.00232646)
(0 -0 -0.00251994)
(0 -0 -0.0026947)
(0 -0 -0.00284552)
(0 -0 -0.00296852)
(0 -0 -0.00306085)
(0 -0 -0.00312032)
(0 -0 -0.00314559)
(0 -0 -0.00313618)
(0 -0 -0.0030926)
(0 -0 -0.00301634)
(0 -0 -0.00290994)
(0 -0 -0.00277693)
(0 -0 -0.00262172)
(0 -0 -0.00244945)
(0 -0 -0.00226565)
(0 -0 -0.00207591)
(0 -0 -0.00188543)
(0 -0 -0.00169848)
(0 -0 -0.00151824)
(0 -0 -0.00134777)
(0 -0 -0.001312)
(0 -0 -0.0013353)
(0 -0 -0.00147698)
(0 -0 -0.001613)
(0 -0 -0.00173877)
(0 -0 -0.00185016)
(0 -0 -0.00194399)
(0 -0 -0.00201778)
(0 -0 -0.00206939)
(0 -0 -0.00209728)
(0 -0 -0.00210055)
(0 -0 -0.00207904)
(0 -0 -0.00203347)
(0 -0 -0.00196545)
(0 -0 -0.00187746)
(0 -0 -0.00177286)
(0 -0 -0.0016556)
(0 -0 -0.00153006)
(0 -0 -0.00140065)
(0 -0 -0.00127142)
(0 -0 -0.00114557)
(0 -0 -0.00102528)
(0 -0 -0.000912646)
(0 -7.04749e-23 -0.000835036)
(0 -0 -0.000827235)
(0 -0 -0.000922775)
(0 -0 -0.00101647)
(0 -0 -0.00110501)
(0 -0 -0.00118523)
(0 -0 -0.00125459)
(0 -0 -0.00131101)
(0 -0 -0.00135257)
(0 -0 -0.00137774)
(0 -0 -0.00138543)
(0 -0 -0.0013752)
(0 -0 -0.00134729)
(0 -0 -0.00130276)
(0 -0 -0.00124346)
(0 -0 -0.00117201)
(0 -0 -0.00109159)
(0 -0 -0.00100573)
(0 -0 -0.000917997)
(0 -0 -0.000831563)
(0 -0 -0.000748814)
(0 -0 -0.000671152)
(0 -0 -0.000599889)
(0 -0 -0.000528805)
(0 -0 -0.00050293)
(0 -0 -0.000566293)
(0 -0 -0.000629779)
(0 -0 -0.000691075)
(0 -0 -0.000747761)
(0 -0 -0.000797823)
(0 -0 -0.00083955)
(0 -0 -0.000871275)
(0 -0 -0.000891558)
(0 -0 -0.000899321)
(0 -0 -0.000893985)
(0 -0 -0.000875588)
(0 -0 -0.000844878)
(0 -0 -0.000803335)
(0 -0 -0.00075311)
(0 -0 -0.000696879)
(0 -0 -0.000637604)
(0 -0 -0.000578219)
(0 -0 -0.000521273)
(0 -0 -0.000468521)
(0 -0 -0.000420767)
(0 -0 -0.000378666)
(0 3.74288e-21 -0.000333658)
(0 -0 -0.000298632)
(0 -0 -0.000340079)
(0 -0 -0.000382597)
(0 -0 -0.000424591)
(0 -0 -0.000464178)
(0 -0 -0.000499735)
(0 -0 -0.000529842)
(0 -0 -0.000553058)
(0 -0 -0.000568085)
(0 -0 -0.000573912)
(0 -0 -0.000569954)
(0 -0 -0.000556179)
(0 -0 -0.000533199)
(0 -0 -0.000502293)
(0 -0 -0.00046535)
(0 -0 -0.000424719)
(0 -0 -0.000382974)
(0 -0 -0.000342618)
(0 -0 -0.000305733)
(0 -0 -0.000273606)
(0 -0 -0.000246562)
(0 -0 -0.000224694)
(0 -7.17385e-21 -0.000210044)
(0 -0 -0.000171504)
(0 -0 -0.000198329)
(0 -0 -0.000226706)
(0 -0 -0.000255472)
(0 -0 -0.000283084)
(0 -0 -0.000308176)
(0 -0 -0.000329546)
(0 -0 -0.00034594)
(0 -0 -0.000356203)
(0 -0 -0.000359425)
(0 -0 -0.000355077)
(0 -0 -0.000343142)
(0 -0 -0.000324196)
(0 -0 -0.000299435)
(0 -0 -0.000270608)
(0 -0 -0.000239865)
(0 -0 -0.000209525)
(0 -0 -0.000181787)
(0 -0 -0.000158397)
(0 -0 -0.000140288)
(0 -0 -0.000127402)
(0 -0 -0.000119476)
(0 3.4322e-21 -0.000132281)
(0 -0 -9.36426e-05)
(0 -0 -0.000110283)
(0 -0 -0.00012968)
(0 -0 -0.000149794)
(0 -0 -0.000169348)
(0 -0 -0.000187168)
(0 -0 -0.000202224)
(0 -0 -0.000213419)
(0 -0 -0.000219736)
(0 -0 -0.000220373)
(0 -0 -0.000214888)
(0 -0 -0.000203318)
(0 -0 -0.000186264)
(0 -0 -0.000164903)
(0 -0 -0.000140919)
(0 -0 -0.000116346)
(0 -0 -9.33366e-05)
(0 -0 -7.38736e-05)
(0 -0 -5.94576e-05)
(0 -0 -5.0768e-05)
(0 -0 -4.75263e-05)
(0 -0 -4.91343e-05)
(0 -0 -8.24746e-05)
(0 -0 -4.75074e-05)
(0 -0 -5.81938e-05)
(0 -0 -7.02285e-05)
(0 -0 -8.51777e-05)
(0 -0 -9.95151e-05)
(0 -0 -0.000112412)
(0 -0 -0.000123018)
(0 -0 -0.000130381)
(0 -0 -0.000133605)
(0 -0 -0.000131993)
(0 -0 -0.00012519)
(0 -0 -0.000113304)
(0 -0 -9.69812e-05)
(0 -0 -7.74153e-05)
(0 -0 -5.62651e-05)
(0 -0 -3.54954e-05)
(0 -0 -1.71435e-05)
(0 -0 -3.0389e-06)
(0 -0 5.4962e-06)
(0 -0 7.94794e-06)
(0 -0 4.69562e-06)
(0 -0 -3.49319e-06)
(0 -0 -2.06111e-05)
(0 -0 -2.8533e-05)
(0 -0 -3.76383e-05)
(0 -0 -4.74447e-05)
(0 -0 -5.8281e-05)
(0 -0 -6.78014e-05)
(0 -0 -7.52944e-05)
(0 -0 -7.99079e-05)
(0 -0 -8.08303e-05)
(0 -0 -7.74431e-05)
(0 -0 -6.94644e-05)
(0 -0 -5.70672e-05)
(0 -0 -4.09454e-05)
(0 -0 -2.23138e-05)
(0 -0 -2.82266e-06)
(0 -0 1.56103e-05)
(0 -0 3.1034e-05)
(0 -0 4.17361e-05)
(0 -0 4.65264e-05)
(0 -0 4.49941e-05)
(0 -0 3.75785e-05)
(0 -0 2.49646e-05)
(-6.02674e-21 -2.30153e-20 -0.591926)
(5.17662e-20 -3.28031e-20 -0.511893)
(1.17107e-22 -2.75668e-20 -0.432539)
(5.42136e-20 6.2325e-21 -0.353684)
(-3.83001e-22 5.46345e-20 -0.274292)
(-1.0321e-21 -1.1712e-19 -0.193292)