/*--------------------------------*- C++ -*----------------------------------*\
| =========                 |                                                 |
| \\      /  F ield         | OpenFOAM: The Open Source CFD Toolbox           |
|  \\    /   O peration     | Version:  2412                                  |
|   \\  /    A nd           | Website:  www.openfoam.com                      |
|    \\/     M anipulation  |                                                 |
\*---------------------------------------------------------------------------*/
FoamFile
{
    version     2.0;
    format      ascii;
    arch        "LSB;label=32;scalar=64";
    class       volVectorField;
    location    "29";
    object      U;
}
// * * * * * * * * * * * * * * * * * * * * * * * * * * * * * * * * * * * * * //

dimensions      [0 1 -1 0 0 0 0];

internalField   nonuniform List<vector> 
5285
(
(0.110181 -0.00262871 0)
(0.110284 -0.00236995 0)
(0.110376 -0.00210669 0)
(0.110456 -0.00183936 0)
(0.110525 -0.00156852 0)
(0.110581 -0.00129485 0)
(0.110625 -0.00101903 0)
(0.110657 -0.00074175 0)
(0.110676 -0.000463669 0)
(0.110684 -0.000185456 0)
(0.110679 9.22305e-05 0)
(0.110662 0.000368746 0)
(0.110633 0.000643459 0)
(0.110592 0.000915758 0)
(0.11054 0.00118505 0)
(0.110477 0.00145076 0)
(0.110403 0.00171235 0)
(0.110318 0.0019693 0)
(0.110222 0.00222112 0)
(0.110117 0.00246734 0)
(0.110002 0.00270754 0)
(0.109878 0.00294133 0)
(0.109745 0.00316836 0)
(0.109604 0.00338834 0)
(0.110443 -0.00274042 0)
(0.110552 -0.00246992 0)
(0.110648 -0.00219476 0)
(0.110732 -0.00191533 0)
(0.110803 -0.00163218 0)
(0.110862 -0.00134606 0)
(0.110908 -0.0010577 0)
(0.110941 -0.000767837 0)
(0.110961 -0.000477175 0)
(0.110968 -0.000186428 0)
(0.110962 0.000103702 0)
(0.110944 0.000392528 0)
(0.110913 0.000679381 0)
(0.110869 0.000963609 0)
(0.110814 0.00124458 0)
(0.110746 0.0015217 0)
(0.110667 0.00179439 0)
(0.110577 0.0020621 0)
(0.110476 0.0023243 0)
(0.110365 0.00258053 0)
(0.110243 0.00283032 0)
(0.110112 0.00307326 0)
(0.109972 0.00330901 0)
(0.109823 0.00353724 0)
(0.110717 -0.00285782 0)
(0.110831 -0.00257495 0)
(0.110932 -0.0022872 0)
(0.11102 -0.00199494 0)
(0.111095 -0.00169877 0)
(0.111156 -0.00139949 0)
(0.111204 -0.00109787 0)
(0.111238 -0.000794702 0)
(0.111258 -0.000490747 0)
(0.111265 -0.000186765 0)
(0.111258 0.000116496 0)
(0.111238 0.000418306 0)
(0.111205 0.000717951 0)
(0.111158 0.00101474 0)
(0.111099 0.00130801 0)
(0.111027 0.00159713 0)
(0.110943 0.00188147 0)
(0.110847 0.00216046 0)
(0.11074 0.00243357 0)
(0.110622 0.00270027 0)
(0.110494 0.00296009 0)
(0.110355 0.00321261 0)
(0.110207 0.00345744 0)
(0.11005 0.00369427 0)
(0.111003 -0.00298133 0)
(0.111123 -0.00268537 0)
(0.111229 -0.00238427 0)
(0.111321 -0.00207843 0)
(0.1114 -0.00176846 0)
(0.111464 -0.00145523 0)
(0.111514 -0.00113958 0)
(0.111549 -0.00082234 0)
(0.11157 -0.000504333 0)
(0.111576 -0.000186368 0)
(0.111568 0.000130758 0)
(0.111546 0.000446266 0)
(0.11151 0.000759399 0)
(0.11146 0.00106942 0)
(0.111396 0.00137564 0)
(0.11132 0.00167736 0)
(0.111231 0.00197395 0)
(0.111129 0.0022648 0)
(0.111016 0.00254933 0)
(0.110891 0.002827 0)
(0.110755 0.00309733 0)
(0.110608 0.00335984 0)
(0.110452 0.00361416 0)
(0.110286 0.00385994 0)
(0.111302 -0.00311134 0)
(0.111429 -0.00280151 0)
(0.111539 -0.00248625 0)
(0.111636 -0.00216599 0)
(0.111719 -0.0018414 0)
(0.111786 -0.00151339 0)
(0.111838 -0.00118287 0)
(0.111874 -0.000850742 0)
(0.111895 -0.00051787 0)
(0.111901 -0.000185124 0)
(0.111892 0.000146647 0)
(0.111868 0.000476614 0)
(0.111829 0.000803972 0)
(0.111775 0.00112794 0)
(0.111707 0.00144778 0)
(0.111626 0.00176277 0)
(0.111531 0.00207223 0)
(0.111423 0.00237552 0)
(0.111303 0.00267204 0)
(0.11117 0.00296121 0)
(0.111026 0.00324251 0)
(0.110871 0.00351548 0)
(0.110706 0.00377969 0)
(0.110531 0.0040348 0)
(0.111616 -0.00324825 0)
(0.111749 -0.00292369 0)
(0.111865 -0.0025934 0)
(0.111967 -0.00225785 0)
(0.112053 -0.00191774 0)
(0.112123 -0.00157406 0)
(0.112177 -0.00122779 0)
(0.112215 -0.000879884 0)
(0.112236 -0.000531279 0)
(0.112241 -0.000182899 0)
(0.112231 0.000164349 0)
(0.112204 0.000509584 0)
(0.112162 0.00085195 0)
(0.112104 0.00119062 0)
(0.112032 0.00152481 0)
(0.111945 0.00185376 0)
(0.111844 0.00217675 0)
(0.111729 0.0024931 0)
(0.111602 0.00280217 0)
(0.111461 0.00310338 0)
(0.111309 0.00339618 0)
(0.111145 0.00368006 0)
(0.11097 0.0039546 0)
(0.110785 0.00421942 0)
(0.111944 -0.00339246 0)
(0.112085 -0.00305225 0)
(0.112206 -0.00270601 0)
(0.112313 -0.00235421 0)
(0.112404 -0.00199763 0)
(0.112477 -0.00163732 0)
(0.112533 -0.00127435 0)
(0.112572 -0.000909724 0)
(0.112593 -0.000544458 0)
(0.112598 -0.000179537 0)
(0.112585 0.000184074 0)
(0.112556 0.000545436 0)
(0.11251 0.000903639 0)
(0.112449 0.00125781 0)
(0.112371 0.00160711 0)
(0.112278 0.00195074 0)
(0.112171 0.00228795 0)
(0.112049 0.00261802 0)
(0.111913 0.00294027 0)
(0.111764 0.00325409 0)
(0.111602 0.00355891 0)
(0.111429 0.00385419 0)
(0.111244 0.00413949 0)
(0.111048 0.00441444 0)
(0.112288 -0.00354443 0)
(0.112437 -0.00318758 0)
(0.112564 -0.00282436 0)
(0.112676 -0.0024553 0)
(0.112771 -0.00208122 0)
(0.112848 -0.00170325 0)
(0.112906 -0.00132255 0)
(0.112946 -0.000940206 0)
(0.112968 -0.000557288 0)
(0.112971 -0.000174855 0)
(0.112957 0.000206061 0)
(0.112925 0.000584463 0)
(0.112875 0.000959385 0)
(0.112809 0.0013299 0)
(0.112726 0.00169512 0)
(0.112626 0.00205421 0)
(0.112512 0.00240636 0)
(0.112382 0.00275082 0)
(0.112238 0.0030869 0)
(0.112079 0.00341393 0)
(0.111908 0.00373131 0)
(0.111724 0.00403851 0)
(0.111529 0.00433504 0)
(0.111322 0.00462051 0)
(0.112649 -0.00370462 0)
(0.112806 -0.00333005 0)
(0.11294 -0.00294877 0)
(0.113058 -0.00256134 0)
(0.113157 -0.00216865 0)
(0.113237 -0.00177193 0)
(0.113297 -0.0013724 0)
(0.113338 -0.000971249 0)
(0.11336 -0.00056962 0)
(0.113362 -0.000168643 0)
(0.113346 0.000230583 0)
(0.11331 0.000626995 0)
(0.113257 0.00101957 0)
(0.113185 0.00140732 0)
(0.113096 0.00178932 0)
(0.11299 0.00216467 0)
(0.112868 0.00253253 0)
(0.112729 0.00289211 0)
(0.112576 0.00324268 0)
(0.112408 0.00358354 0)
(0.112226 0.00391407 0)
(0.112031 0.0042337 0)
(0.111824 0.00454193 0)
(0.111605 0.00483836 0)
(0.113029 -0.00387355 0)
(0.113194 -0.00348008 0)
(0.113334 -0.00307956 0)
(0.113458 -0.00267257 0)
(0.113562 -0.00226007 0)
(0.113645 -0.0018434 0)
(0.113708 -0.00142387 0)
(0.11375 -0.00100275 0)
(0.113771 -0.000581277 0)
(0.113772 -0.000160652 0)
(0.113753 0.000257953 0)
(0.113714 0.000673406 0)
(0.113656 0.00108462 0)
(0.113579 0.00149056 0)
(0.113483 0.00189023 0)
(0.11337 0.0022827 0)
(0.113239 0.00266707 0)
(0.113092 0.00304253 0)
(0.112928 0.00340828 0)
(0.11275 0.00376363 0)
(0.112557 0.0041079 0)
(0.11235 0.00444051 0)
(0.112131 0.00476094 0)
(0.111899 0.00506877 0)
(0.113427 -0.00405175 0)
(0.113601 -0.00363811 0)
(0.113748 -0.00321705 0)
(0.113878 -0.00278921 0)
(0.113987 -0.00235561 0)
(0.114074 -0.0019177 0)
(0.114139 -0.0014769 0)
(0.114182 -0.00103458 0)
(0.114203 -0.000592043 0)
(0.114202 -0.000150592 0)
(0.11418 0.000288529 0)
(0.114137 0.00072412 0)
(0.114074 0.00115503 0)
(0.113991 0.00158015 0)
(0.113888 0.00199845 0)
(0.113766 0.00240893 0)
(0.113626 0.00281066 0)
(0.113469 0.00320277 0)
(0.113295 0.00358446 0)
(0.113106 0.00395496 0)
(0.112901 0.0043136 0)
(0.112681 0.00465975 0)
(0.112449 0.00499289 0)
(0.112204 0.00531257 0)
(0.113846 -0.00423977 0)
(0.114029 -0.00380457 0)
(0.114184 -0.00336158 0)
(0.11432 -0.00291148 0)
(0.114434 -0.00245538 0)
(0.114525 -0.00199484 0)
(0.114592 -0.00153141 0)
(0.114635 -0.00106655 0)
(0.114655 -0.000601657 0)
(0.114653 -0.000138122 0)
(0.114628 0.000322729 0)
(0.11458 0.00077962 0)
(0.114511 0.00123133 0)
(0.114421 0.0016767 0)
(0.114311 0.00211462 0)
(0.11418 0.00254406 0)
(0.114031 0.00296404 0)
(0.113863 0.00337364 0)
(0.113678 0.00377201 0)
(0.113475 0.00415838 0)
(0.113258 0.00453203 0)
(0.113025 0.00489231 0)
(0.112778 0.00523867 0)
(0.112519 0.00557066 0)
(0.114286 -0.00443822 0)
(0.11448 -0.00397993 0)
(0.114642 -0.00351348 0)
(0.114785 -0.00303959 0)
(0.114904 -0.00255947 0)
(0.114998 -0.00207481 0)
(0.115067 -0.00158728 0)
(0.115111 -0.00109844 0)
(0.115131 -0.000609797 0)
(0.115126 -0.000122835 0)
(0.115097 0.000361036 0)
(0.115044 0.000840463 0)
(0.114969 0.00131416 0)
(0.114872 0.00178089 0)
(0.114752 0.00223949 0)
(0.114612 0.00268888 0)
(0.114452 0.00312802 0)
(0.114273 0.00355597 0)
(0.114075 0.00397183 0)
(0.11386 0.0043748 0)
(0.113628 0.00476412 0)
(0.113381 0.00513913 0)
(0.113119 0.00549925 0)
(0.112844 0.00584402 0)
(0.11475 -0.00464769 0)
(0.114955 -0.00416465 0)
(0.115125 -0.00367307 0)
(0.115274 -0.00317373 0)
(0.115399 -0.00266794 0)
(0.115497 -0.00215753 0)
(0.115567 -0.00164431 0)
(0.115611 -0.00112995 0)
(0.115629 -0.000616069 0)
(0.115622 -0.000104245 0)
(0.115588 0.000404021 0)
(0.11553 0.000907296 0)
(0.115448 0.00140422 0)
(0.115342 0.00189349 0)
(0.115214 0.00237388 0)
(0.115063 0.00284426 0)
(0.114891 0.00330354 0)
(0.114699 0.00375073 0)
(0.114488 0.00418491 0)
(0.114259 0.00460523 0)
(0.114012 0.00501091 0)
(0.113749 0.00540126 0)
(0.113472 0.00577569 0)
(0.11318 0.00613372 0)
(0.115239 -0.00486882 0)
(0.115455 -0.00435919 0)
(0.115633 -0.00384064 0)
(0.115789 -0.00331403 0)
(0.115919 -0.00278078 0)
(0.11602 -0.00224287 0)
(0.116093 -0.00170224 0)
(0.116137 -0.0011607 0)
(0.116153 -0.000619988 0)
(0.116142 -8.1771e-05 0)
(0.116103 0.000452353 0)
(0.116039 0.000980868 0)
(0.115949 0.00150233 0)
(0.115834 0.00201539 0)
(0.115695 0.00251874 0)
(0.115532 0.00301119 0)
(0.115348 0.00349161 0)
(0.115143 0.00395898 0)
(0.114917 0.00441233 0)
(0.114672 0.00485078 0)
(0.114409 0.00527353 0)
(0.11413 0.00567985 0)
(0.113835 0.00606914 0)
(0.113525 0.0064409 0)
(0.115754 -0.00510222 0)
(0.115982 -0.00456397 0)
(0.116168 -0.00401645 0)
(0.116332 -0.00346059 0)
(0.116467 -0.00289792 0)
(0.116572 -0.0023306 0)
(0.116645 -0.00176071 0)
(0.116689 -0.00119021 0)
(0.116702 -0.000620949 0)
(0.116687 -5.47044e-05 0)
(0.116643 0.000506832 0)
(0.116571 0.00106206 0)
(0.116472 0.00160946 0)
(0.116346 0.00214759 0)
(0.116196 0.00267513 0)
(0.116021 0.00319079 0)
(0.115823 0.00369341 0)
(0.115602 0.00418192 0)
(0.115361 0.00465532 0)
(0.115099 0.0051127 0)
(0.114819 0.00555322 0)
(0.114521 0.00597615 0)
(0.114207 0.00638085 0)
(0.113878 0.00676681 0)
(0.116298 -0.00534852 0)
(0.116538 -0.0047794 0)
(0.116733 -0.00420068 0)
(0.116904 -0.00361339 0)
(0.117044 -0.00301917 0)
(0.117151 -0.00242035 0)
(0.117226 -0.00181921 0)
(0.117268 -0.00121782 0)
(0.117278 -0.000618175 0)
(0.117257 -2.21577e-05 0)
(0.117206 0.000568438 0)
(0.117126 0.00115192 0)
(0.117017 0.00172671 0)
(0.11688 0.00229132 0)
(0.116717 0.00284427 0)
(0.116528 0.00338432 0)
(0.116314 0.00391022 0)
(0.116077 0.00442087 0)
(0.115819 0.00491522 0)
(0.115539 0.00539234 0)
(0.11524 0.00585136 0)
(0.114923 0.00629152 0)
(0.114589 0.00671218 0)
(0.114239 0.0071128 0)
(0.116872 -0.00560826 0)
(0.117125 -0.00500577 0)
(0.117328 -0.00439343 0)
(0.117506 -0.00377229 0)
(0.117652 -0.00314417 0)
(0.117761 -0.0025116 0)
(0.117835 -0.00187703 0)
(0.117875 -0.00124269 0)
(0.117881 -0.000610697 0)
(0.117854 1.69488e-05 0)
(0.117795 0.00063835 0)
(0.117705 0.00125173 0)
(0.117584 0.00185544 0)
(0.117434 0.0024479 0)
(0.117256 0.00302769 0)
(0.117052 0.00359328 0)
(0.116821 0.00414357 0)
(0.116567 0.00467736 0)
(0.116289 0.00519358 0)
(0.11599 0.00569124 0)
(0.11567 0.00616948 0)
(0.115332 0.00662749 0)
(0.114976 0.00706462 0)
(0.114604 0.00748034 0)
(0.118008 0.00261904 0)
(0.117814 0.00322687 0)
(0.117591 0.00381939 0)
(0.117343 0.00439517 0)
(0.117068 0.00495311 0)
(0.11677 0.00549209 0)
(0.116449 0.0060111 0)
(0.116107 0.00650923 0)
(0.115746 0.00698568 0)
(0.115367 0.00743978 0)
(0.114972 0.00787099 0)
(0.109211 -0.00418572 -5.63908e-25)
(0.109374 -0.00398471 -6.70013e-25)
(0.10953 -0.00377623 -1.34562e-24)
(0.109677 -0.00356066 2.78264e-24)
(0.109816 -0.0033384 -2.98058e-24)
(0.109947 -0.00310986 -9.65115e-24)
(0.110068 -0.0028753 1.60338e-24)
(0.109409 -0.00435435 -6.04974e-25)
(0.109581 -0.00414587 -1.43152e-24)
(0.109746 -0.0039298 -4.33565e-24)
(0.109903 -0.00370658 -1.44223e-24)
(0.110051 -0.00347661 3.08389e-24)
(0.110191 -0.00324029 4.78849e-24)
(0.110322 -0.00299762 1.63976e-23)
(0.109615 -0.0045315 -5.58429e-26)
(0.109797 -0.0043152 -9.9295e-25)
(0.109971 -0.00409122 5.65973e-24)
(0.110138 -0.00386002 -1.14648e-25)
(0.110296 -0.003622 1.40866e-23)
(0.110445 -0.00337749 1.75673e-24)
(0.110587 -0.00312617 -1.47118e-23)
(0.109829 -0.00471766 7.11452e-25)
(0.110021 -0.0044932 6.04883e-25)
(0.110205 -0.00426097 -1.34752e-23)
(0.110382 -0.00402145 1.66552e-24)
(0.110551 -0.00377503 -2.94081e-23)
(0.110711 -0.00352196 3.00959e-23)
(0.110864 -0.00326152 1.98243e-24)
(0.110052 -0.00491338 7.6553e-25)
(0.110254 -0.00468038 -7.64889e-25)
(0.110449 -0.00443954 2.94394e-23)
(0.110637 -0.00419133 1.25083e-25)
(0.110817 -0.00393616 1.33077e-23)
(0.110989 -0.00367413 -3.00042e-23)
(0.111154 -0.00340409 3.389e-23)
(0.110283 -0.00511928 -8.2228e-25)
(0.110497 -0.00487733 -9.61268e-25)
(0.110704 -0.00462746 -1.44326e-23)
(0.110903 -0.00437018 3.26267e-23)
(0.111095 -0.00410585 2.03806e-24)
(0.111279 -0.00383446 3.44075e-23)
(0.111457 -0.00355431 -3.38351e-23)
(0.110523 -0.00533601 -2.62287e-24)
(0.110749 -0.00508467 -2.7902e-24)
(0.110969 -0.00482535 -1.41401e-25)
(0.111181 -0.00455856 -6.35194e-23)
(0.111386 -0.00428466 -2.17897e-24)
(0.111582 -0.00400346 -7.83535e-23)
(0.111774 -0.00371266 -7.98299e-23)
(0.110774 -0.00556429 2.55476e-24)
(0.111013 -0.00530308 9.44386e-25)
(0.111245 -0.00503384 2.18793e-24)
(0.111471 -0.00475709 3.51333e-23)
(0.111689 -0.00447316 1.38639e-25)
(0.111899 -0.00418169 1.17838e-22)
(0.112106 -0.00387965 8.50648e-23)
(0.111034 -0.0058049 1.01052e-24)
(0.111287 -0.00553331 1.42059e-23)
(0.111534 -0.00525364 3.9546e-23)
(0.111774 -0.00496645 -2.48548e-24)
(0.112007 -0.004672 2.48512e-24)
(0.112232 -0.00436975 -8.378e-23)
(0.112454 -0.00405584 0)
(0.111306 -0.00605866 0)
(0.111573 -0.00577615 -1.97004e-23)
(0.111836 -0.00548551 -3.7494e-23)
(0.112091 -0.00518734 4.76538e-23)
(0.112339 -0.00488186 -5.45651e-24)
(0.11258 -0.00456829 -9.53616e-23)
(0.11282 -0.00424182 1.03021e-22)
(0.111588 -0.0063265 1.15328e-24)
(0.111872 -0.00603246 -2.09713e-23)
(0.11215 -0.00573027 0)
(0.112423 -0.00542055 -4.24993e-23)
(0.112687 -0.00510348 -9.61511e-23)
(0.112945 -0.00477798 -9.32845e-24)
(0.113203 -0.00443821 -2.03922e-22)
(0.111883 -0.00660936 -1.23065e-24)
(0.112184 -0.00630316 1.83766e-23)
(0.11248 -0.0059888 -1.79039e-25)
(0.112769 -0.00566691 -1.74973e-25)
(0.113052 -0.00533763 9.92143e-23)
(0.113328 -0.00499957 2.06586e-22)
(0.113606 -0.00464569 2.24296e-22)
(0.112191 -0.00690831 1.04556e-23)
(0.11251 -0.00658926 0)
(0.112824 -0.00626205 0)
(0.113133 -0.00592732 1.02854e-22)
(0.113435 -0.00558516 -1.05783e-22)
(0.11373 -0.00523385 -2.27237e-22)
(0.114029 -0.00486496 -1.14183e-22)
(0.112512 -0.00722452 -2.2987e-23)
(0.112851 -0.00689187 1.4005e-24)
(0.113185 -0.00655105 5.45926e-23)
(0.113514 -0.00620275 -2.12171e-22)
(0.113836 -0.00584699 1.09421e-22)
(0.114152 -0.00548165 1.0814e-22)
(0.114475 -0.00509677 3.83645e-24)
(0.112847 -0.00755925 1.26221e-23)
(0.113207 -0.00721217 -4.6905e-24)
(0.113563 -0.00685693 -4.81322e-23)
(0.113914 -0.00649425 2.26171e-22)
(0.114258 -0.00612408 0)
(0.114597 -0.00574386 1.2712e-22)
(0.114944 -0.00534189 4.09367e-24)
(0.113197 -0.00791385 1.10746e-23)
(0.11358 -0.00755145 -1.8145e-24)
(0.113959 -0.00718091 -1.13116e-22)
(0.114333 -0.00680295 -2.37e-22)
(0.114702 -0.00641748 2.1297e-25)
(0.115064 -0.00602143 1.4427e-22)
(0.115438 -0.00560115 2.95152e-22)
(0.113564 -0.00828983 -1.09517e-23)
(0.113971 -0.00791114 5.62853e-23)
(0.114375 -0.00752429 2.44382e-22)
(0.114775 -0.00713008 1.20316e-22)
(0.115169 -0.00672831 1.40724e-22)
(0.115557 -0.00631534 -5.8325e-22)
(0.115959 -0.00587535 -6.06292e-22)
(0.113948 -0.00868882 -1.80127e-24)
(0.114382 -0.00829274 -1.21704e-22)
(0.114812 -0.00788852 -1.24221e-22)
(0.115239 -0.00747695 -2.43819e-25)
(0.11566 -0.00705773 -2.86386e-22)
(0.116076 -0.0066266 2.93945e-22)
(0.116509 -0.0061653 3.2083e-22)
(0.11435 -0.00911258 1.91845e-24)
(0.114812 -0.00869795 5.56325e-23)
(0.115272 -0.00827513 4.12667e-24)
(0.115728 -0.00784495 0)
(0.116179 -0.007407 1.55051e-22)
(0.116624 -0.00695627 3.29585e-22)
(0.117089 -0.00647177 5.31833e-24)
(0.114772 -0.00956308 -2.04348e-24)
(0.115265 -0.00912857 7.21102e-23)
(0.107903 -0.00535876 2.2954e-25)
(0.108104 -0.0052176 7.24602e-25)
(0.108301 -0.00506747 -1.30566e-25)
(0.108494 -0.00490839 1.12877e-24)
(0.108682 -0.00474047 8.39934e-25)
(0.108865 -0.00456389 1.31046e-24)
(0.109041 -0.00437887 -4.44081e-25)
(0.108044 -0.0055753 -1.74373e-24)
(0.108253 -0.00542781 -1.61505e-24)
(0.108457 -0.00527121 2.14973e-24)
(0.108658 -0.00510549 -7.05251e-25)
(0.108854 -0.00493072 2.50263e-24)
(0.109045 -0.00474709 1.03767e-24)
(0.109231 -0.00455488 5.41593e-25)
(0.108189 -0.00580273 2.04139e-24)
(0.108406 -0.00564862 5.00447e-25)
(0.108619 -0.00548522 -6.90415e-24)
(0.108828 -0.0053125 1.38437e-25)
(0.109033 -0.00513052 -3.12508e-24)
(0.109233 -0.0049395 -2.16423e-25)
(0.109427 -0.00473972 -1.07162e-24)
(0.108339 -0.00604177 4.26144e-25)
(0.108564 -0.00588067 -9.04384e-24)
(0.108785 -0.00571005 1.04108e-23)
(0.109003 -0.00552994 8.68221e-25)
(0.109218 -0.00534038 8.04386e-24)
(0.109427 -0.00514161 -3.66921e-24)
(0.109631 -0.00493393 -6.97211e-25)
(0.108492 -0.00629311 -7.799e-24)
(0.108727 -0.00612464 9.12678e-24)
(0.108957 -0.00594646 -6.32164e-24)
(0.109185 -0.00575853 -1.48852e-25)
(0.109409 -0.00556099 -1.55741e-23)
(0.109629 -0.00535407 -6.25552e-25)
(0.109843 -0.00513808 1.89871e-24)
(0.10865 -0.00655755 7.8942e-24)
(0.108894 -0.00638128 -1.16909e-23)
(0.109135 -0.00619511 8.90056e-25)
(0.109373 -0.00599897 -1.61166e-23)
(0.109607 -0.00579303 8.78174e-24)
(0.109838 -0.00557754 -5.85543e-24)
(0.110063 -0.00535283 -6.7713e-25)
(0.108813 -0.00683605 2.01088e-23)
(0.109067 -0.0066515 2.29416e-23)
(0.109318 -0.00645686 -9.80519e-25)
(0.109567 -0.00625213 3.61822e-23)
(0.109812 -0.0060373 1.58731e-25)
(0.110054 -0.00581275 3.28667e-24)
(0.110291 -0.00557886 3.92607e-24)
(0.108979 -0.00712953 3.29373e-24)
(0.109245 -0.00693622 -4.1863e-23)
(0.109507 -0.00673261 -1.6785e-25)
(0.109767 -0.00651873 -1.79523e-23)
(0.110025 -0.00629453 1.24442e-24)
(0.110279 -0.00606047 7.86601e-25)
(0.110529 -0.00581692 -3.97725e-24)
(0.10915 -0.00743902 2.68209e-24)
(0.109428 -0.00723642 2.7782e-23)
(0.109702 -0.0070233 1.17488e-24)
(0.109974 -0.00679966 -1.17519e-24)
(0.110245 -0.00656562 -2.23872e-23)
(0.110513 -0.00632155 -1.57214e-23)
(0.110776 -0.00606782 8.45845e-25)
(0.109326 -0.00776561 -2.39562e-23)
(0.109616 -0.00755317 3.40136e-23)
(0.109903 -0.00732999 -2.37743e-24)
(0.110189 -0.00709612 -2.00918e-23)
(0.110474 -0.00685161 2.40656e-23)
(0.110755 -0.00659693 1.16962e-23)
(0.111032 -0.00633245 0)
(0.109506 -0.00811052 3.17276e-23)
(0.10981 -0.00788762 2.22606e-24)
(0.11011 -0.00765379 4.32347e-23)
(0.110411 -0.0074091 2.28226e-23)
(0.11071 -0.00715367 0)
(0.111007 -0.00688765 1.44175e-23)
(0.1113 -0.00661175 9.73277e-25)
(0.10969 -0.00847505 -6.35792e-23)
(0.11001 -0.00824102 -7.88181e-23)
(0.110324 -0.00799587 -4.17462e-23)
(0.11064 -0.00773966 5.34728e-23)
(0.110955 -0.00747251 1.96223e-25)
(0.111268 -0.00719462 -1.62192e-23)
(0.111578 -0.00690672 -1.04212e-24)
(0.109879 -0.00886062 3.39885e-23)
(0.110215 -0.00861475 8.33772e-23)
(0.110545 -0.00835756 5.22033e-23)
(0.110878 -0.00808908 -1.10649e-22)
(0.11121 -0.00780939 0)
(0.11154 -0.00751902 0)
(0.111867 -0.00721846 -9.64444e-24)
(0.110073 -0.00926879 1.33649e-24)
(0.110426 -0.00901032 -4.71227e-23)
(0.110773 -0.00874031 -5.10184e-23)
(0.111123 -0.00845885 1.18894e-22)
(0.111474 -0.00816599 -3.23647e-23)
(0.111823 -0.00786227 1.19254e-24)
(0.112169 -0.00754823 1.87346e-23)
(0.11027 -0.00970126 1.45612e-24)
(0.110643 -0.00942935 -5.3508e-23)
(0.111008 -0.00914572 0)
(0.111378 -0.00885045 -1.28042e-22)
(0.111748 -0.00854359 3.66235e-23)
(0.112117 -0.00822568 -3.59922e-24)
(0.112483 -0.00789734 -9.00804e-24)
(0.110473 -0.0101599 -9.68142e-23)
(0.110866 -0.00987363 -6.23488e-23)
(0.111251 -0.00957547 -2.37538e-25)
(0.111641 -0.0092655 1.39506e-22)
(0.112032 -0.00894374 8.12009e-23)
(0.112423 -0.00861076 4.19901e-23)
(0.112811 -0.00826722 -1.30778e-23)
(0.110679 -0.0106467 2.03853e-22)
(0.111094 -0.0103451 2.32844e-22)
(0.111501 -0.0100315 0)
(0.111913 -0.00970583 -7.35774e-23)
(0.112328 -0.0093682 -1.60401e-22)
(0.112742 -0.00901917 -9.05438e-23)
(0.113154 -0.00865945 1.31507e-23)
(0.110889 -0.0111639 -1.03487e-22)
(0.111329 -0.0108459 -1.23698e-22)
(0.111759 -0.0105158 7.60008e-23)
(0.112195 -0.0101734 2.63445e-25)
(0.112635 -0.00981886 8.43659e-23)
(0.113074 -0.0094527 4.46826e-23)
(0.113512 -0.00907577 -1.54632e-24)
(0.111103 -0.0117139 2.00542e-24)
(0.11157 -0.0113785 -1.45582e-22)
(0.112025 -0.0110306 -7.14345e-23)
(0.112488 -0.0106704 0)
(0.112954 -0.0102978 3.04178e-24)
(0.11342 -0.0099134 -4.68239e-24)
(0.113886 -0.00951801 1.6491e-24)
(0.113782 -0.0104034 1.76204e-24)
(0.114277 -0.00998837 -1.7585e-24)
(0.101516 -0.00529178 0)
(0.10163 -0.00537311 0)
(0.101749 -0.00545321 0)
(0.101874 -0.00553179 0)
(0.102003 -0.00560854 0)
(0.102138 -0.00568319 0)
(0.102278 -0.00575544 0)
(0.102424 -0.00582498 0)
(0.102575 -0.00589148 0)
(0.102731 -0.00595461 0)
(0.102893 -0.00601402 0)
(0.10306 -0.00606934 0)
(0.103233 -0.0061202 0)
(0.103411 -0.00616623 0)
(0.103594 -0.00620703 0)
(0.103782 -0.00624221 0)
(0.103975 -0.00627137 0)
(0.104173 -0.00629411 0)
(0.104375 -0.00631003 0)
(0.104582 -0.00631874 0)
(0.104792 -0.00631984 0)
(0.105006 -0.00631295 0)
(0.105223 -0.00629771 0)
(0.105443 -0.00627376 0)
(0.105666 -0.00624077 0)
(0.10589 -0.00619841 0)
(0.106116 -0.00614641 0)
(0.106343 -0.00608449 0)
(0.106571 -0.00601244 0)
(0.106798 -0.00593006 0)
(0.107025 -0.00583717 0)
(0.10725 -0.00573362 0)
(0.107473 -0.00561924 0)
(0.107693 -0.00549359 0)
(0.10143 -0.00540419 0)
(0.101545 -0.0054906 0)
(0.101666 -0.00557588 0)
(0.101792 -0.00565973 0)
(0.101923 -0.00574186 0)
(0.102061 -0.00582196 0)
(0.102203 -0.00589972 0)
(0.102352 -0.00597483 0)
(0.102506 -0.00604692 0)
(0.102666 -0.00611566 0)
(0.102832 -0.00618066 0)
(0.103004 -0.00624155 0)
(0.103181 -0.00629792 0)
(0.103364 -0.00634937 0)
(0.103553 -0.00639548 0)
(0.103747 -0.00643583 0)
(0.103946 -0.00646998 0)
(0.104151 -0.00649751 0)
(0.10436 -0.00651798 0)
(0.104574 -0.00653097 0)
(0.104792 -0.00653603 0)
(0.105015 -0.00653277 0)
(0.105241 -0.00652077 0)
(0.10547 -0.00649964 0)
(0.105702 -0.00646901 0)
(0.105936 -0.00642854 0)
(0.106173 -0.0063779 0)
(0.10641 -0.00631679 0)
(0.106648 -0.00624498 0)
(0.106886 -0.00616221 0)
(0.107123 -0.00606831 0)
(0.107359 -0.00596305 0)
(0.107593 -0.00584614 0)
(0.107825 -0.00571669 0)
(0.101339 -0.00551759 0)
(0.101455 -0.00560931 0)
(0.101577 -0.00570003 0)
(0.101705 -0.00578945 0)
(0.101838 -0.00587724 0)
(0.101978 -0.00596311 0)
(0.102123 -0.00604671 0)
(0.102274 -0.00612773 0)
(0.102432 -0.00620578 0)
(0.102595 -0.00628049 0)
(0.102765 -0.00635148 0)
(0.102941 -0.00641832 0)
(0.103123 -0.00648061 0)
(0.103312 -0.0065379 0)
(0.103506 -0.00658975 0)
(0.103706 -0.00663569 0)
(0.103912 -0.00667527 0)
(0.104124 -0.00670803 0)
(0.10434 -0.00673348 0)
(0.104562 -0.00675116 0)
(0.104789 -0.00676061 0)
(0.10502 -0.00676137 0)
(0.105255 -0.00675299 0)
(0.105494 -0.00673505 0)
(0.105736 -0.00670714 0)
(0.105981 -0.00666886 0)
(0.106228 -0.00661987 0)
(0.106476 -0.00655984 0)
(0.106725 -0.00648846 0)
(0.106974 -0.0064055 0)
(0.107223 -0.0063107 0)
(0.107471 -0.0062038 0)
(0.107717 -0.00608435 0)
(0.107961 -0.00595096 0)
(0.101243 -0.00563182 0)
(0.10136 -0.00572911 0)
(0.101483 -0.00582555 0)
(0.101612 -0.00592082 0)
(0.101748 -0.00601459 0)
(0.101889 -0.00610655 0)
(0.102037 -0.00619635 0)
(0.102191 -0.00628363 0)
(0.102351 -0.00636801 0)
(0.102519 -0.0064491 0)
(0.102692 -0.00652648 0)
(0.102873 -0.00659971 0)
(0.10306 -0.00666835 0)
(0.103253 -0.00673192 0)
(0.103453 -0.00678996 0)
(0.10366 -0.00684197 0)
(0.103872 -0.00688744 0)
(0.104091 -0.00692588 0)
(0.104316 -0.00695678 0)
(0.104546 -0.00697963 0)
(0.104781 -0.00699391 0)
(0.105022 -0.00699913 0)
(0.105266 -0.00699481 0)
(0.105515 -0.00698047 0)
(0.105768 -0.00695565 0)
(0.106023 -0.00691993 0)
(0.106281 -0.00687291 0)
(0.106541 -0.00681423 0)
(0.106802 -0.00674355 0)
(0.107063 -0.00666057 0)
(0.107325 -0.00656503 0)
(0.107585 -0.00645659 0)
(0.107843 -0.00633462 0)
(0.108099 -0.00619719 0)
(0.101141 -0.00574673 0)
(0.101259 -0.00584986 0)
(0.101384 -0.0059523 0)
(0.101514 -0.00605373 0)
(0.101651 -0.0061538 0)
(0.101794 -0.00625219 0)
(0.101944 -0.00634854 0)
(0.102101 -0.00644247 0)
(0.102265 -0.00653358 0)
(0.102435 -0.00662146 0)
(0.102613 -0.00670567 0)
(0.102798 -0.00678574 0)
(0.10299 -0.00686119 0)
(0.103189 -0.00693153 0)
(0.103395 -0.00699625 0)
(0.103608 -0.00705481 0)
(0.103827 -0.00710669 0)
(0.104053 -0.00715133 0)
(0.104286 -0.00718818 0)
(0.104524 -0.00721669 0)
(0.104769 -0.00723631 0)
(0.105019 -0.00724648 0)
(0.105274 -0.00724668 0)
(0.105533 -0.00723638 0)
(0.105796 -0.00721508 0)
(0.106063 -0.00718232 0)
(0.106333 -0.00713763 0)
(0.106605 -0.00708062 0)
(0.106878 -0.0070109 0)
(0.107153 -0.00692816 0)
(0.107427 -0.00683205 0)
(0.1077 -0.00672218 0)
(0.107972 -0.00659774 0)
(0.108242 -0.00645617 0)
(0.101034 -0.00586216 0)
(0.101153 -0.0059714 0)
(0.101278 -0.00608013 0)
(0.101409 -0.00618803 0)
(0.101548 -0.00629474 0)
(0.101693 -0.00639991 0)
(0.101845 -0.00650319 0)
(0.102004 -0.00660417 0)
(0.102171 -0.00670243 0)
(0.102345 -0.00679754 0)
(0.102527 -0.00688903 0)
(0.102716 -0.00697642 0)
(0.102913 -0.00705918 0)
(0.103117 -0.0071368 0)
(0.103329 -0.00720872 0)
(0.103549 -0.00727438 0)
(0.103775 -0.0073332 0)
(0.104009 -0.00738459 0)
(0.10425 -0.00742795 0)
(0.104497 -0.00746268 0)
(0.104751 -0.00748817 0)
(0.105011 -0.00750383 0)
(0.105276 -0.00750906 0)
(0.105547 -0.00750331 0)
(0.105822 -0.007486 0)
(0.106101 -0.00745662 0)
(0.106383 -0.00741467 0)
(0.106668 -0.00735969 0)
(0.106954 -0.00729127 0)
(0.107242 -0.00720901 0)
(0.10753 -0.00711255 0)
(0.107817 -0.00700139 0)
(0.108103 -0.00687453 0)
(0.108388 -0.00672872 0)
(0.100921 -0.00597791 0)
(0.10104 -0.00609353 0)
(0.101166 -0.00620886 0)
(0.101298 -0.00632355 0)
(0.101438 -0.00643724 0)
(0.101585 -0.00654957 0)
(0.101739 -0.00666017 0)
(0.101901 -0.00676862 0)
(0.10207 -0.00687447 0)
(0.102248 -0.00697728 0)
(0.102433 -0.00707655 0)
(0.102627 -0.00717176 0)
(0.102829 -0.00726236 0)
(0.103039 -0.00734781 0)
(0.103257 -0.0074275 0)
(0.103483 -0.00750084 0)
(0.103716 -0.00756719 0)
(0.103958 -0.00762592 0)
(0.104207 -0.00767638 0)
(0.104464 -0.00771792 0)
(0.104727 -0.00774988 0)
(0.104998 -0.00777161 0)
(0.105274 -0.00778245 0)
(0.105556 -0.00778179 0)
(0.105843 -0.00776899 0)
(0.106135 -0.00774349 0)
(0.10643 -0.00770473 0)
(0.106728 -0.0076522 0)
(0.107029 -0.00758541 0)
(0.107331 -0.00750395 0)
(0.107634 -0.00740737 0)
(0.107936 -0.0072951 0)
(0.108237 -0.0071659 0)
(0.108537 -0.00701578 0)
(0.100802 -0.00609376 0)
(0.100921 -0.00621606 0)
(0.101047 -0.00633829 0)
(0.10118 -0.0064601 0)
(0.101321 -0.00658113 0)
(0.101469 -0.00670101 0)
(0.101625 -0.00681934 0)
(0.101789 -0.00693569 0)
(0.101962 -0.00704961 0)
(0.102143 -0.0071606 0)
(0.102332 -0.00726816 0)
(0.10253 -0.00737173 0)
(0.102737 -0.00747075 0)
(0.102952 -0.0075646 0)
(0.103176 -0.00765267 0)
(0.103409 -0.0077343 0)
(0.10365 -0.00780882 0)
(0.1039 -0.00787554 0)
(0.104158 -0.00793376 0)
(0.104424 -0.00798277 0)
(0.104697 -0.00802185 0)
(0.104978 -0.00805028 0)
(0.105266 -0.00806736 0)
(0.10556 -0.00807239 0)
(0.10586 -0.00806469 0)
(0.106165 -0.00804362 0)
(0.106474 -0.00800855 0)
(0.106787 -0.00795891 0)
(0.107103 -0.00789418 0)
(0.10742 -0.00781386 0)
(0.107738 -0.00771745 0)
(0.108056 -0.00760426 0)
(0.108373 -0.00747283 0)
(0.10869 -0.00731832 0)
(0.100676 -0.00620949 0)
(0.100795 -0.00633874 0)
(0.100921 -0.00646819 0)
(0.101055 -0.00659747 0)
(0.101196 -0.00672621 0)
(0.101346 -0.00685403 0)
(0.101504 -0.00698052 0)
(0.10167 -0.00710523 0)
(0.101845 -0.0072277 0)
(0.102029 -0.0073474 0)
(0.102222 -0.00746379 0)
(0.102424 -0.0075763 0)
(0.102636 -0.00768433 0)
(0.102857 -0.00778722 0)
(0.103087 -0.00788431 0)
(0.103326 -0.0079749 0)
(0.103575 -0.00805828 0)
(0.103833 -0.00813369 0)
(0.1041 -0.00820037 0)
(0.104376 -0.00825756 0)
(0.10466 -0.00830447 0)
(0.104952 -0.00834032 0)
(0.105252 -0.00836432 0)
(0.105559 -0.00837572 0)
(0.105872 -0.00837375 0)
(0.106191 -0.00835771 0)
(0.106515 -0.0083269 0)
(0.106843 -0.00828069 0)
(0.107174 -0.00821847 0)
(0.107508 -0.00813968 0)
(0.107843 -0.00804376 0)
(0.108178 -0.0079299 0)
(0.108512 -0.00779636 0)
(0.108846 -0.00763741 0)
(0.100543 -0.00632482 0)
(0.100662 -0.00646132 0)
(0.100788 -0.00659831 0)
(0.100922 -0.00673541 0)
(0.101064 -0.00687224 0)
(0.101215 -0.00700842 0)
(0.101374 -0.00714351 0)
(0.101542 -0.00727707 0)
(0.10172 -0.00740858 0)
(0.101906 -0.00753753 0)
(0.102103 -0.00766334 0)
(0.102309 -0.0077854 0)
(0.102526 -0.00790307 0)
(0.102752 -0.00801567 0)
(0.102988 -0.00812248 0)
(0.103235 -0.00822275 0)
(0.103491 -0.00831572 0)
(0.103758 -0.00840058 0)
(0.104034 -0.0084765 0)
(0.10432 -0.00854264 0)
(0.104615 -0.00859816 0)
(0.104919 -0.00864219 0)
(0.105231 -0.00867388 0)
(0.105551 -0.00869239 0)
(0.105878 -0.00869687 0)
(0.106212 -0.00868654 0)
(0.106551 -0.00866063 0)
(0.106896 -0.00861842 0)
(0.107244 -0.00855923 0)
(0.107595 -0.00848243 0)
(0.107947 -0.00838737 0)
(0.1083 -0.00827312 0)
(0.108652 -0.00813763 0)
(0.109006 -0.00797419 0)
(0.100403 -0.00643947 0)
(0.100521 -0.00658352 0)
(0.100647 -0.00672837 0)
(0.100781 -0.00687365 0)
(0.100923 -0.00701896 0)
(0.101075 -0.00716392 0)
(0.101235 -0.00730808 0)
(0.101405 -0.00745097 0)
(0.101585 -0.00759208 0)
(0.101774 -0.00773084 0)
(0.101974 -0.00786667 0)
(0.102185 -0.00799893 0)
(0.102406 -0.00812692 0)
(0.102637 -0.00824993 0)
(0.10288 -0.00836721 0)
(0.103133 -0.00847794 0)
(0.103398 -0.0085813 0)
(0.103673 -0.00867642 0)
(0.103958 -0.00876241 0)
(0.104255 -0.00883836 0)
(0.104561 -0.00890334 0)