/*--------------------------------*- C++ -*----------------------------------*\
| =========                 |                                                 |
| \\      /  F ield         | OpenFOAM: The Open Source CFD Toolbox           |
|  \\    /   O peration     | Version:  2412                                  |
|   \\  /    A nd           | Website:  www.openfoam.com                      |
|    \\/     M anipulation  |                                                 |
\*---------------------------------------------------------------------------*/
FoamFile
{
    version     2.0;
    format      ascii;
    arch        "LSB;label=32;scalar=64";
    class       volVectorField;
    location    "22";
    object      U;
}
// * * * * * * * * * * * * * * * * * * * * * * * * * * * * * * * * * * * * * //

dimensions      [0 1 -1 0 0 0 0];

internalField   nonuniform List<vector> 
5285
(
(0.0212708 -0.00148974 3.23554e-24)
(0.0240416 -0.00150447 0)
(0.0268395 -0.00151096 2.48942e-24)
(0.0296499 -0.0015098 0)
(0.032459 -0.00150161 0)
(0.0352541 -0.00148696 0)
(0.0380234 -0.00146646 1.26635e-24)
(0.0407564 -0.00144067 0)
(0.0434433 -0.00141019 -7.96019e-25)
(0.0460754 -0.00137557 5.95148e-25)
(0.0486451 -0.0013374 -4.16071e-25)
(0.0511457 -0.0012962 1.67053e-24)
(0.0535715 -0.0012525 -1.534e-24)
(0.0559178 -0.00120681 5.01402e-25)
(0.0581809 -0.0011596 -1.6591e-24)
(0.0603576 -0.00111132 1.26227e-24)
(0.062446 -0.00106239 2.66097e-25)
(0.0644447 -0.0010132 -3.26777e-25)
(0.0663531 -0.000964101 0)
(0.0681711 -0.000915411 -4.14784e-25)
(0.0698995 -0.00086742 2.28606e-24)
(0.0715394 -0.00082038 -2.31082e-24)
(0.0730924 -0.00077451 4.81519e-25)
(0.0745606 -0.000729998 -1.48305e-24)
(0.0759464 -0.000686998 4.99186e-25)
(0.0772525 -0.00064563 9.90309e-25)
(0.0784819 -0.000605981 -4.96425e-25)
(0.0796376 -0.000568101 4.84593e-25)
(0.0222198 -0.00443318 1.87056e-22)
(0.0249521 -0.0044778 -2.03076e-22)
(0.0277103 -0.00449798 1.47724e-22)
(0.0304801 -0.00449539 -8.59241e-23)
(0.033248 -0.00447183 -1.19219e-22)
(0.0360018 -0.00442906 5.47072e-23)
(0.0387301 -0.0043688 -1.26961e-24)
(0.0414225 -0.00429276 -2.14241e-24)
(0.0440695 -0.00420268 7.97754e-25)
(0.0466628 -0.00410023 -1.87384e-24)
(0.0491947 -0.00398709 1.07033e-23)
(0.0516589 -0.00386488 -1.78796e-23)
(0.0540496 -0.00373515 6.23075e-24)
(0.0563624 -0.00359942 -5.70448e-26)
(0.0585933 -0.0034591 -1.04861e-25)
(0.0607396 -0.00331553 0)
(0.0627991 -0.00316997 4.84092e-24)
(0.0647705 -0.00302357 -4.30084e-24)
(0.0666532 -0.0028774 -5.5086e-24)
(0.0684472 -0.0027324 7.43885e-24)
(0.0701531 -0.00258945 -4.44491e-25)
(0.0717719 -0.00244929 -2.38025e-24)
(0.0733054 -0.00231259 4.20941e-24)
(0.0747555 -0.0021799 4.9023e-25)
(0.0761246 -0.0020517 3.42194e-24)
(0.0774152 -0.00192833 4.64957e-25)
(0.0786304 -0.00181007 -9.89668e-25)
(0.079773 -0.00169703 -1.45274e-24)
(0.0240594 -0.00727307 -1.97868e-22)
(0.0267173 -0.00734918 2.10662e-22)
(0.029398 -0.00738514 5.38218e-24)
(0.0320888 -0.00738381 -4.67304e-24)
(0.0347769 -0.00734794 4.01053e-24)
(0.0374507 -0.00728038 -9.28057e-23)
(0.0400995 -0.00718393 9.62928e-23)
(0.0427134 -0.00706139 -5.90664e-23)
(0.0452835 -0.00691553 6.35918e-23)
(0.0478016 -0.00674914 1.28256e-24)
(0.0502607 -0.00656493 2.55494e-23)
(0.0526544 -0.00636557 -4.07971e-23)
(0.0549774 -0.00615362 1.61247e-23)
(0.0572253 -0.00593157 -8.51171e-26)
(0.0593943 -0.00570176 8.10128e-26)
(0.0614816 -0.00546641 0)
(0.0634853 -0.00522759 -7.63115e-26)
(0.065404 -0.00498723 0)
(0.0672371 -0.00474708 -1.17217e-23)
(0.0689845 -0.00450873 1.08753e-23)
(0.0706468 -0.00427362 -8.03666e-25)
(0.072225 -0.00404301 -4.78552e-26)
(0.0737206 -0.003818 -7.46209e-24)
(0.0751357 -0.00359952 1.40613e-23)
(0.0764723 -0.00338834 -7.59378e-24)
(0.077733 -0.00318508 3.76654e-24)
(0.0789205 -0.00299014 -2.84881e-24)
(0.0800377 -0.00280372 -9.64555e-25)
(0.0266815 -0.00994602 0)
(0.0292321 -0.0100561 6.508e-24)
(0.0318025 -0.0101116 2.92096e-25)
(0.0343803 -0.0101157 4.71725e-24)
(0.0369546 -0.0100725 -2.5017e-22)
(0.0395145 -0.00998566 2.46458e-22)
(0.0420504 -0.00985885 0)
(0.0445529 -0.00969585 -6.96321e-23)
(0.0470138 -0.00950044 7.19294e-23)
(0.0494256 -0.00927636 0)
(0.0517813 -0.00902736 -1.73044e-25)
(0.0540753 -0.00875706 -2.08818e-23)
(0.0563023 -0.00846902 3.18931e-23)
(0.0584582 -0.00816663 -1.44888e-23)
(0.0605394 -0.00785314 7.44723e-26)
(0.0625433 -0.00753163 1.24688e-23)
(0.0644678 -0.00720498 -9.19176e-24)
(0.0663117 -0.00687585 -8.90849e-24)
(0.0680743 -0.00654669 7.69802e-24)
(0.0697555 -0.00621974 6.57251e-25)
(0.0713559 -0.00589698 1.28459e-23)
(0.0728763 -0.00558019 -2.79275e-23)
(0.0743182 -0.0052709 1.34527e-23)
(0.0756832 -0.00497043 5.38154e-26)
(0.0769736 -0.00467987 -9.25741e-25)
(0.0781915 -0.00440007 -4.4299e-26)
(0.0793396 -0.0041316 9.26287e-25)
(0.0804206 -0.00387465 -1.79692e-24)
(0.0323574 -0.0125427 -4.14279e-22)
(0.0347893 -0.0126229 4.01693e-22)
(0.0372267 -0.012639 0)
(0.0396596 -0.0125956 0)
(0.0420785 -0.0124971 -3.71097e-24)
(0.0444745 -0.012348 -1.89898e-22)
(0.0468394 -0.0121529 1.87244e-22)
(0.0491655 -0.0119164 -2.07408e-24)
(0.0514459 -0.0116432 -4.71007e-23)
(0.0536743 -0.0113378 5.01738e-23)
(0.0558452 -0.011005 0)
(0.0579538 -0.010649 1.87384e-25)
(0.0599963 -0.0102742 0)
(0.0619692 -0.0098847 -7.43627e-25)
(0.06387 -0.00948443 9.08202e-25)
(0.0656968 -0.00907704 9.99567e-24)
(0.0674483 -0.00866594 -1.02984e-23)
(0.0691239 -0.00825427 1.0173e-24)
(0.0707233 -0.00784487 -6.57106e-25)
(0.0722469 -0.00744032 9.12342e-26)
(0.0736957 -0.00704289 7.86788e-25)
(0.0750708 -0.00665457 -8.2793e-25)
(0.0763738 -0.00627707 7.54413e-24)
(0.0776066 -0.00591179 -1.34943e-23)
(0.0787714 -0.00555983 1.01808e-23)
(0.0798705 -0.00522194 -3.42854e-24)
(0.0809064 -0.00489824 4.52112e-26)
(0.0359336 -0.0147688 4.40771e-22)
(0.0382064 -0.0148828 -4.40126e-22)
(0.0404824 -0.0149203 -3.39509e-22)
(0.0427537 -0.0148867 3.33873e-22)
(0.0450118 -0.014787 0)
(0.0472488 -0.0146261 0)
(0.0494573 -0.0144094 1.76615e-22)
(0.0516305 -0.0141422 -3.20886e-23)
(0.0537619 -0.0138299 -1.4811e-22)
(0.0558459 -0.0134782 -9.08421e-23)
(0.0578774 -0.0130923 1.53697e-22)
(0.059852 -0.0126776 -4.38373e-23)
(0.0617659 -0.0122393 -2.35026e-23)
(0.063616 -0.0117823 -6.96285e-24)
(0.0654 -0.0113113 6.08727e-24)
(0.0671158 -0.0108309 6.04444e-24)
(0.0687624 -0.0103451 4.85324e-24)
(0.0703388 -0.00985786 -1.05707e-23)
(0.0718451 -0.00937257 -1.74355e-23)
(0.0732813 -0.00889243 2.85457e-23)
(0.0746483 -0.00842022 -2.0279e-23)
(0.0759472 -0.00795841 1.15808e-23)
(0.0771792 -0.0075091 -1.28845e-23)
(0.0783461 -0.00707404 1.28979e-23)
(0.0794499 -0.0066546 -8.20518e-25)
(0.0804927 -0.0062517 3.96034e-24)
(0.0814769 -0.00586544 -1.5959e-24)
(0.0397953 -0.016727 -5.38321e-22)
(0.0418952 -0.0168833 0)
(0.0439977 -0.0169517 0)
(0.0460951 -0.0169375 5.24348e-24)
(0.0481809 -0.0168463 -2.80744e-22)
(0.0502478 -0.0166837 2.8003e-22)
(0.0522894 -0.0164555 0)
(0.0542993 -0.0161675 0)
(0.0562719 -0.0158262 2.19503e-24)
(0.0582019 -0.0154376 -1.05782e-22)
(0.0600848 -0.0150081 1.91298e-22)
(0.0619163 -0.0145438 -8.24892e-23)
(0.063693 -0.0140508 6.8123e-25)
(0.065412 -0.0135347 4.11677e-25)
(0.067071 -0.0130013 5.34187e-24)
(0.0686681 -0.0124556 -4.59362e-24)
(0.0702021 -0.0119026 -9.3665e-25)
(0.0716723 -0.0113469 9.83894e-24)
(0.0730784 -0.0107925 3.53563e-24)
(0.0744206 -0.0102433 2.33544e-24)
(0.0756994 -0.00970253 -1.70663e-23)
(0.0769158 -0.00917315 -1.08927e-23)
(0.078071 -0.00865767 1.09075e-23)
(0.0791665 -0.0081582 -7.32956e-25)
(0.0802041 -0.00767641 -5.7977e-24)
(0.0811856 -0.00721344 5.02077e-24)
(0.0821135 -0.00676952 -7.63384e-25)
(0.0807257 -0.000531898 0)
(0.0817569 -0.000497287 0)
(0.0827394 -0.000464103 0)
(0.083674 -0.000432456 0)
(0.0845618 -0.000402394 0)
(0.0854039 -0.000373937 0)
(0.0862017 -0.000347093 0)
(0.0869567 -0.000321854 0)
(0.0876706 -0.000298201 0)
(0.088345 -0.000276104 0)
(0.0889818 -0.000255523 0)
(0.0895829 -0.000236408 0)
(0.09015 -0.000218701 0)
(0.0906853 -0.000202338 0)
(0.0911904 -0.000187248 0)
(0.0916673 -0.000173358 0)
(0.0921177 -0.000160589 0)
(0.0925435 -0.000148862 0)
(0.0929462 -0.000138096 0)
(0.0933274 -0.000128212 0)
(0.0936885 -0.000119127 0)
(0.0940309 -0.000110763 0)
(0.0943556 -0.000103043 0)
(0.0946638 -9.58895e-05 0)
(0.0949564 -8.92324e-05 0)
(0.095234 -8.30055e-05 0)
(0.0954973 -7.71516e-05 0)
(0.0957468 -7.16243e-05 0)
(0.0959828 -6.63906e-05 0)
(0.0962058 -6.14321e-05 0)
(0.096416 -5.6745e-05 0)
(0.0966139 -5.23376e-05 0)
(0.0967999 -4.82263e-05 0)
(0.0969747 -4.44294e-05 0)
(0.097139 -4.09613e-05 0)
(0.0972936 -3.78271e-05 0)
(0.0974393 -3.50193e-05 0)
(0.0975772 -3.25174e-05 0)
(0.097708 -3.029e-05 0)
(0.0978325 -2.82985e-05 0)
(0.0979514 -2.65022e-05 0)
(0.098065 -2.4863e-05 0)
(0.0981739 -2.33479e-05 0)
(0.0982782 -2.19319e-05 0)
(0.0808478 -0.00158905 0)
(0.081866 -0.00148594 0)
(0.0828367 -0.00138707 0)
(0.0837607 -0.00129276 0)
(0.0846388 -0.00120313 0)
(0.0854723 -0.00111827 0)
(0.0862624 -0.00103818 0)
(0.0870105 -0.000962847 0)
(0.0877182 -0.000892226 0)
(0.0883872 -0.000826228 0)
(0.0890192 -0.000764737 0)
(0.0896159 -0.000707609 0)
(0.0901793 -0.000654675 0)
(0.0907111 -0.000605745 0)
(0.0912132 -0.000560613 0)
(0.0916875 -0.000519057 0)
(0.0921356 -0.000480848 0)
(0.0925593 -0.000445749 0)
(0.0929601 -0.000413522 0)
(0.0933397 -0.000383926 0)
(0.0936993 -0.000356721 0)
(0.0940403 -0.000331672 0)
(0.0943639 -0.000308546 0)
(0.094671 -0.000287117 0)
(0.0949625 -0.000267174 0)
(0.0952393 -0.00024852 0)
(0.0955018 -0.000230985 0)
(0.0957506 -0.000214429 0)
(0.095986 -0.000198756 0)
(0.0962084 -0.00018391 0)
(0.0964182 -0.000169879 0)
(0.0966157 -0.000156688 0)
(0.0968015 -0.000144385 0)
(0.0969761 -0.000133025 0)
(0.0971403 -0.00012265 0)
(0.0972948 -0.000113274 0)
(0.0974405 -0.000104874 0)
(0.0975784 -9.73898e-05 0)
(0.0977092 -9.07261e-05 0)
(0.0978337 -8.47679e-05 0)
(0.0979525 -7.93938e-05 0)
(0.0980662 -7.44893e-05 0)
(0.098175 -6.99564e-05 0)
(0.0982792 -6.57197e-05 0)
(0.0810867 -0.0026258 0)
(0.0820797 -0.00245633 0)
(0.0830275 -0.00229381 0)
(0.0839306 -0.00213871 0)
(0.0847901 -0.00199123 0)
(0.0856068 -0.00185149 0)
(0.0863819 -0.00171953 0)
(0.0871165 -0.00159533 0)
(0.0878123 -0.00147882 0)
(0.0884706 -0.00136988 0)
(0.089093 -0.00126832 0)
(0.0896813 -0.00117391 0)
(0.0902372 -0.00108639 0)
(0.0907624 -0.00100546 0)
(0.0912586 -0.000930766 0)
(0.0917277 -0.000861965 0)
(0.0921711 -0.000798677 0)
(0.0925907 -0.000740518 0)
(0.0929879 -0.000687095 0)
(0.0933641 -0.000638015 0)
(0.0937208 -0.000592885 0)
(0.0940592 -0.000551318 0)
(0.0943803 -0.000512931 0)
(0.0946853 -0.000477355 0)
(0.0949749 -0.00044424 0)
(0.0952499 -0.000413263 0)
(0.0955108 -0.000384143 0)
(0.0957582 -0.000356652 0)
(0.0959924 -0.000330628 0)
(0.0962138 -0.00030598 0)
(0.0964227 -0.000282688 0)
(0.0966195 -0.00026079 0)
(0.0968048 -0.000240364 0)
(0.096979 -0.000221499 0)
(0.0971429 -0.000204263 0)
(0.0972972 -0.00018868 0)
(0.0974429 -0.000174712 0)
(0.0975807 -0.000162258 0)
(0.0977115 -0.000151162 0)
(0.097836 -0.000141236 0)
(0.0979549 -0.000132278 0)
(0.0980685 -0.000124101 0)
(0.0981772 -0.000116544 0)
(0.0982814 -0.00010948 0)
(0.0814326 -0.00362982 0)
(0.0823896 -0.00339743 0)
(0.0833047 -0.00317453 0)
(0.0841781 -0.00296163 0)
(0.0850108 -0.00275902 0)
(0.0858033 -0.00256685 0)
(0.0865568 -0.00238519 0)
(0.087272 -0.00221407 0)
(0.0879504 -0.0020534 0)
(0.0885932 -0.00190303 0)
(0.0892019 -0.00176274 0)
(0.0897779 -0.00163224 0)
(0.0903228 -0.00151117 0)
(0.0908383 -0.00139913 0)
(0.0913259 -0.00129567 0)
(0.0917873 -0.0012003 0)
(0.0922239 -0.00111252 0)
(0.0926374 -0.00103181 0)
(0.0930292 -0.000957624 0)
(0.0934006 -0.000889432 0)
(0.0937529 -0.000826696 0)
(0.0940874 -0.000768884 0)
(0.094405 -0.000715474 0)
(0.0947068 -0.000665959 0)
(0.0949935 -0.000619859 0)
(0.0952659 -0.00057673 0)
(0.0955245 -0.000536186 0)
(0.0957697 -0.000497912 0)
(0.0960021 -0.000461685 0)
(0.096222 -0.000427376 0)
(0.0964296 -0.000394956 0)
(0.0966254 -0.000364475 0)
(0.0968098 -0.000336038 0)
(0.0969835 -0.000309764 0)
(0.097147 -0.000285745 0)
(0.0973011 -0.000264013 0)
(0.0974466 -0.000244516 0)
(0.0975844 -0.000227113 0)
(0.0977152 -0.000211593 0)
(0.0978396 -0.000197696 0)
(0.0979584 -0.000185147 0)
(0.0980719 -0.000173687 0)
(0.0981806 -0.000163093 0)
(0.0982847 -0.000153194 0)
(0.0818724 -0.00459056 0)
(0.0827845 -0.00429984 0)
(0.0836586 -0.00402084 0)
(0.084495 -0.00375407 0)
(0.0852941 -0.00349985 0)
(0.0860564 -0.00325842 0)
(0.0867825 -0.00302991 0)
(0.0874732 -0.00281439 0)
(0.0881296 -0.00261182 0)
(0.0887526 -0.00242203 0)
(0.0893436 -0.00224479 0)
(0.0899039 -0.00207976 0)
(0.0904348 -0.00192652 0)
(0.0909377 -0.00178459 0)
(0.0914142 -0.00165341 0)
(0.0918656 -0.0015324 0)
(0.0922935 -0.00142092 0)
(0.0926991 -0.00131834 0)
(0.0930838 -0.00122398 0)
(0.0934489 -0.00113718 0)
(0.0937956 -0.00105727 0)
(0.0941249 -0.000983589 0)
(0.0944379 -0.000915481 0)
(0.0947355 -0.000852314 0)
(0.0950184 -0.000793484 0)
(0.0952873 -0.000738438 0)
(0.0955429 -0.000686688 0)
(0.0957854 -0.00063784 0)
(0.0960154 -0.000591609 0)
(0.0962332 -0.000547832 0)
(0.0964391 -0.000506467 0)
(0.0966335 -0.000467574 0)
(0.0968168 -0.000431279 0)
(0.0969897 -0.000397727 0)
(0.0971526 -0.000367032 0)
(0.0973064 -0.000339231 0)
(0.0974517 -0.000314258 0)
(0.0975894 -0.000291938 0)
(0.0977201 -0.000272006 0)
(0.0978445 -0.000254137 0)
(0.0979632 -0.000237986 0)
(0.0980766 -0.000223229 0)
(0.0981852 -0.000209585 0)
(0.0982891 -0.000196838 0)
(0.0823903 -0.00549978 0)
(0.083251 -0.00515622 0)
(0.0840783 -0.00482618 0)
(0.084872 -0.0045101 0)
(0.0856323 -0.00420837 0)
(0.0863594 -0.00392135 0)
(0.0870537 -0.0036493 0)
(0.0877156 -0.00339236 0)
(0.088346 -0.00315054 0)
(0.0889457 -0.00292372 0)
(0.0895157 -0.00271165 0)
(0.0900572 -0.00251398 0)
(0.0905713 -0.00233024 0)
(0.0910593 -0.00215988 0)
(0.0915224 -0.00200227 0)
(0.0919619 -0.00185673 0)
(0.092379 -0.00172253 0)
(0.0927751 -0.00159892 0)
(0.0931513 -0.00148511 0)
(0.0935087 -0.00138033 0)
(0.0938485 -0.00128378 0)
(0.0941716 -0.0011947 0)
(0.0944789 -0.0011123 0)
(0.0947714 -0.00103583 0)
(0.0950497 -0.000964595 0)
(0.0953144 -0.000897923 0)
(0.0955662 -0.000835242 0)
(0.0958054 -0.000776079 0)
(0.0960324 -0.000720094 0)
(0.0962477 -0.000667089 0)
(0.0964514 -0.000617008 0)
(0.0966441 -0.000569915 0)
(0.0968261 -0.000525952 0)
(0.0969979 -0.000485287 0)
(0.0971601 -0.000448048 0)
(0.0973134 -0.000414279 0)
(0.0974584 -0.000383899 0)
(0.0975959 -0.000356703 0)
(0.0977264 -0.000332377 0)
(0.0978507 -0.000310536 0)
(0.0979693 -0.000290774 0)
(0.0980826 -0.000272706 0)
(0.0981909 -0.000255997 0)
(0.0982946 -0.000240388 0)
(0.0829703 -0.00635184 0)
(0.0837757 -0.00596164 0)
(0.0845524 -0.00558601 0)
(0.0852997 -0.00522545 0)
(0.0860176 -0.00488055 0)
(0.0867059 -0.00455188 0)
(0.0873648 -0.00423987 0)
(0.0879945 -0.00394476 0)
(0.0885958 -0.00366665 0)
(0.0891692 -0.00340545 0)
(0.0897155 -0.00316094 0)
(0.0902356 -0.00293276 0)
(0.0907306 -0.0027204 0)
(0.0912014 -0.00252329 0)
(0.0916492 -0.00234072 0)
(0.0920749 -0.00217194 0)
(0.0924798 -0.00201614 0)
(0.0928648 -0.00187246 0)
(0.0932311 -0.00174005 0)
(0.0935797 -0.00161802 0)
(0.0939114 -0.00150547 0)
(0.0942272 -0.00140153 0)
(0.094528 -0.00130531 0)
(0.0948145 -0.00121598 0)
(0.0950874 -0.00113271 0)
(0.0953473 -0.00105476 0)
(0.0955946 -0.000981464 0)
(0.0958299 -0.000912293 0)
(0.0960534 -0.000846849 0)
(0.0962657 -0.000784898 0)
(0.0964669 -0.000726368 0)
(0.0966575 -0.000671323 0)
(0.0968378 -0.000619916 0)
(0.0970083 -0.00057233 0)
(0.0971696 -0.000528707 0)
(0.0973222 -0.00048909 0)
(0.0974668 -0.000453388 0)
(0.0976039 -0.000421367 0)
(0.0977343 -0.000392671 0)
(0.0978584 -0.000366864 0)
(0.0979768 -0.000343483 0)
(0.0980898 -0.000322088 0)
(0.0981979 -0.000302298 0)
(0.0983012 -0.000283816 0)
(0.0836124 -0.00716371 0)
(0.0843603 -0.00673199 0)
(0.0850834 -0.0063149 0)
(0.085781 -0.0059135 0)
(0.0864528 -0.00552879 0)
(0.0870987 -0.00516157 0)
(0.0877186 -0.00481242 0)
(0.0883128 -0.00448171 0)
(0.0888817 -0.00416961 0)
(0.0894257 -0.0038761 0)
(0.0899455 -0.003601 0)
(0.0904416 -0.00334393 0)
(0.090915 -0.00310439 0)
(0.0913664 -0.00288175 0)
(0.0917967 -0.00267527 0)
(0.0922069 -0.00248415 0)
(0.0925977 -0.00230751 0)
(0.0929701 -0.00214441 0)
(0.093325 -0.00199392 0)
(0.0936633 -0.00185505 0)
(0.0939858 -0.00172684 0)
(0.0942933 -0.00160832 0)
(0.0945865 -0.00149851 0)
(0.0948661 -0.00139648 0)
(0.0951327 -0.00130133 0)
(0.0953869 -0.00121223 0)
(0.0956291 -0.00112845 0)
(0.0958597 -0.00104938 0)
(0.0960792 -0.000974589 0)
(0.0962879 -0.000903802 0)
(0.0964862 -0.000836929 0)
(0.0966742 -0.000774028 0)
(0.0968526 -0.000715258 0)
(0.0970215 -0.000660809 0)
(0.0971816 -0.000610832 0)
(0.0973334 -0.000565369 0)
(0.0974773 -0.000524319 0)
(0.097614 -0.000487422 0)
(0.097744 -0.000454284 0)
(0.0978678 -0.000424425 0)
(0.0979858 -0.000397334 0)
(0.0980986 -0.000372522 0)
(0.0982063 -0.000349564 0)
(0.0983092 -0.000328126 0)
(0.0843127 -0.00793193 0)
(0.0850008 -0.00746164 0)
(0.0856675 -0.00700652 0)
(0.0863123 -0.00656795 0)
(0.0869349 -0.00614703 0)
(0.0875352 -0.00574468 0)
(0.0881132 -0.0053616 0)
(0.0886689 -0.00499827 0)
(0.0892025 -0.00465492 0)
(0.0897144 -0.00433159 0)
(0.0902051 -0.00402812 0)
(0.0906749 -0.00374415 0)
(0.0911244 -0.00347918 0)
(0.0915543 -0.00323256 0)
(0.0919653 -0.00300352 0)
(0.092358 -0.00279121 0)
(0.0927331 -0.00259471 0)
(0.0930914 -0.00241303 0)
(0.0934335 -0.00224515 0)
(0.0937603 -0.00209005 0)
(0.0940724 -0.00194666 0)
(0.0943704 -0.00181396 0)
(0.094655 -0.00169089 0)
(0.0949267 -0.00157644 0)
(0.0951862 -0.00146966 0)
(0.0954339 -0.00136962 0)
(0.0956703 -0.00127555 0)
(0.0958957 -0.00118678 0)
(0.0961105 -0.00110282 0)
(0.0963152 -0.00102338 0)
(0.0965099 -0.000948326 0)
(0.096695 -0.000877722 0)
(0.0968709 -0.000811719 0)
(0.097038 -0.000750512 0)
(0.0971966 -0.000694251 0)
(0.0973472 -0.000642978 0)
(0.0974903 -0.000596578 0)
(0.0976264 -0.000554771 0)
(0.0977558 -0.000517135 0)
(0.0978791 -0.000483149 0)
(0.0979968 -0.000452263 0)
(0.098109 -0.000423946 0)
(0.0982162 -0.000397735 0)
(0.0983187 -0.000373264 0)
(0.0850506 -0.00863466 0)
(0.085677 -0.0081304 0)
(0.0862855 -0.00764199 0)
(0.0868758 -0.00717088 0)
(0.0874476 -0.00671828 0)
(0.0880008 -0.00628515 0)
(0.0885351 -0.00587228 0)
(0.0890507 -0.0054802 0)
(0.0895476 -0.0051092 0)
(0.090026 -0.00475936 0)
(0.090486 -0.00443055 0)
(0.090928 -0.00412244 0)
(0.0913524 -0.00383452 0)
(0.0917595 -0.00356615 0)
(0.0921498 -0.00331654 0)
(0.0925239 -0.00308482 0)
(0.0928822 -0.00287001 0)
(0.0932253 -0.00267111 0)
(0.0935538 -0.00248705 0)
(0.0938681 -0.00231676 0)
(0.0941689 -0.00215912 0)
(0.0944566 -0.00201303 0)
(0.0947319 -0.00187741 0)
(0.0949951 -0.00175119 0)
(0.0952469 -0.00163333 0)
(0.0954875 -0.00152288 0)
(0.0957175 -0.00141899 0)
(0.0959372 -0.00132097 0)
(0.0961469 -0.00122828 0)
(0.096347 -0.00114058 0)
(0.0965379 -0.00105774 0)
(0.0967197 -0.000979792 0)
(0.0968929 -0.000906884 0)
(0.0970577 -0.000839202 0)
(0.0972146 -0.000776896 0)
(0.0973638 -0.00072 0)
(0.0975058 -0.000668391 0)
(0.0976409 -0.000621771 0)
(0.0977697 -0.000579694 0)
(0.0978923 -0.000541613 0)
(0.0980093 -0.000506943 0)
(0.098121 -0.000475121 0)
(0.0982276 -0.000445654 0)
(0.0983294 -0.000418144 0)
(0.0858194 -0.00926932 0)
(0.0863823 -0.0087363 0)
(0.0869312 -0.00821963 0)
(0.0874657 -0.00772085 0)
(0.0879855 -0.0072412 0)
(0.0884904 -0.00678172 0)
(0.0889801 -0.00634322 0)
(0.0894545 -0.00592629 0)
(0.0899135 -0.00553127 0)
(0.0903572 -0.00515828 0)
(0.0907855 -0.00480722 0)
(0.0911987 -0.00447777 0)
(0.0915968 -0.00416945 0)
(0.0919801 -0.00388161 0)
(0.0923489 -0.00361348 0)
(0.0927034 -0.00336416 0)
(0.093044 -0.00313267 0)
(0.0933711 -0.00291798 0)
(0.093685 -0.00271899 0)
(0.0939861 -0.0025346 0)
(0.0942749 -0.00236367 0)
(0.0945517 -0.00220506 0)
(0.094817 -0.00205764 0)
(0.0950712 -0.0019203 0)
(0.0953146 -0.00179197 0)
(0.0955477 -0.00167165 0)
(0.0957708 -0.00155847 0)
(0.0959843 -0.00145167 0)
(0.0961885 -0.00135069 0)
(0.0963837 -0.00125517 0)
(0.0965703 -0.00116495 0)
(0.0967485 -0.00108004 0)
(0.0969186 -0.00100056 0)
(0.0970809 -0.000926709 0)
(0.0972356 -0.00085861 0)
(0.0973832 -0.000796296 0)
(0.0975238 -0.000739632 0)
(0.0976578 -0.000688309 0)
(0.0977856 -0.000641864 0)
(0.0979075 -0.00059973 0)
(0.0980237 -0.000561298 0)
(0.0981346 -0.000525982 0)
(0.0982404 -0.000493262 0)
(0.0983415 -0.000462718 0)
(0.0866117 -0.00983422 0)
(0.0871101 -0.00927796 0)
(0.0875985 -0.00873829 0)
(0.0880765 -0.00821683 0)
(0.0885436 -0.00771488 0)
(0.0889995 -0.00723351 0)
(0.0894438 -0.00677358 0)
(0.0898764 -0.00633573 0)
(0.0902969 -0.00592035 0)
(0.0907052 -0.00552758 0)
(0.0911011 -0.00515735 0)
(0.0914847 -0.00480939 0)
(0.0918558 -0.00448323 0)
(0.0922146 -0.00417825 0)
(0.092561 -0.00389366 0)
(0.0928952 -0.0036286 0)
(0.0932174 -0.00338208 0)
(0.0935277 -0.00315305 0)
(0.0938264 -0.00294043 0)
(0.0941137 -0.00274309 0)
(0.0943899 -0.00255988 0)
(0.0946552 -0.00238963 0)
(0.09491 -0.00223119 0)
(0.0951546 -0.00208343 0)
(0.0953893 -0.00194526 0)
(0.0956144 -0.00181566 0)
(0.0958302 -0.0016937 0)
(0.0960371 -0.00157863 0)
(0.0962354 -0.00146984 0)
(0.0964254 -0.00136694 0)
(0.0966074 -0.00126975 0)
(0.0967815 -0.00117826 0)
(0.0969482 -0.00109258 0)
(0.0971076 -0.00101286 0)
(0.09726 -0.000939231 0)
(0.0974055 -0.000871714 0)
(0.0975445 -0.000810163 0)
(0.0976772 -0.000754261 0)
(0.0978038 -0.000703534 0)
(0.0979245 -0.000657403 0)
(0.0980398 -0.000615245 0)
(0.0981498 -0.000576455 0)
(0.0982547 -0.000540497 0)
(0.0983549 -0.00050693 0)
(0.0874195 -0.0103288 0)
(0.0878534 -0.00975485 0)
(0.0882813 -0.0091975 0)
(0.0887026 -0.0086584 0)
(0.0891169 -0.0081389 0)
(0.0895237 -0.00764012 0)
(0.0899225 -0.00716296 0)
(0.0903129 -0.0067081 0)
(0.0906946 -0.00627597 0)
(0.0910671 -0.00586677 0)
(0.0914303 -0.00548046 0)
(0.0917838 -0.0051168 0)
(0.0921275 -0.00477536 0)
(0.0924612 -0.00445554 0)
(0.0927847 -0.00415659 0)
(0.0930981 -0.00387765 0)
(0.0934013 -0.00361776 0)
(0.0936944 -0.00337589 0)
(0.0939773 -0.00315095 0)
(0.0942503 -0.00294183 0)
(0.0945134 -0.00274735 0)
(0.0947667 -0.00256638 0)
(0.0950106 -0.00239774 0)
(0.0952452 -0.00224029 0)
(0.0954707 -0.00209294 0)
(0.0956874 -0.00195464 0)
(0.0958957 -0.00182446 0)
(0.0960957 -0.00170162 0)
(0.0962877 -0.0015855 0)
(0.0964721 -0.00147568 0)
(0.0966491 -0.00137195 0)
(0.096819 -0.00127428 0)
(0.0969819 -0.00118273 0)
(0.0971381 -0.00109747 0)
(0.0972877 -0.00101859 0)
(0.097431 -0.000946095 0)
(0.097568 -0.000879838 0)
(0.097699 -0.000819494 0)
(0.0978241 -0.000764585 0)
(0.0979436 -0.000714528 0)
(0.0980577 -0.000668692 0)
(0.0981666 -0.000626464 0)
(0.0982705 -0.000587292 0)
(0.0983696 -0.000550724 0)
(0.088235 -0.0107535 0)
(0.0886052 -0.0101674 0)
(0.0889733 -0.00959758 0)
(0.0893387 -0.0090458 0)
(0.0897007 -0.00851342 0)
(0.0900587 -0.00800162 0)
(0.0904123 -0.00751135 0)
(0.0907608 -0.00704332 0)
(0.0911036 -0.00659802 0)
(0.0914405 -0.00617567 0)
(0.0917707 -0.00577631 0)
(0.092094 -0.00539972 0)
(0.09241 -0.00504552 0)
(0.0927183 -0.00471315 0)
(0.0930187 -0.0044019 0)
(0.0933109 -0.00411095 0)
(0.0935948 -0.00383936 0)
(0.0938702 -0.00358614 0)
(0.094137 -0.00335021 0)
(0.0943952 -0.00313048 0)
(0.0946448 -0.0029258 0)
(0.0948858 -0.00273503 0)
(0.0951184 -0.00255702 0)
(0.0953426 -0.00239063 0)
(0.0955586 -0.00223476 0)
(0.0957667 -0.00208837 0)
(0.095967 -0.00195054 0)
(0.0961597 -0.00182046 0)
(0.0963453 -0.00169749 0)
(0.0965238 -0.00158121 0)
(0.0966955 -0.00147136 0)
(0.0968608 -0.0013679 0)
(0.0970196 -0.00127086 0)
(0.0971723 -0.00118037 0)
(0.0973189 -0.00109651 0)
(0.0974596 -0.00101928 0)
(0.0975943 -0.000948505 0)
(0.0977234 -0.00088387 0)
(0.0978468 -0.000824895 0)
(0.0979648 -0.000770997 0)
(0.0980774 -0.000721546 0)
(0.098185 -0.000675926 0)
(0.0982877 -0.000633578 0)
(0.0983857 -0.00059404 0)
(0.0890504 -0.0111098 0)
(0.0893588 -0.0105168 0)
(0.0896686 -0.00993961 0)
(0.0899793 -0.00937991 0)
(0.0902901 -0.00883918 0)
(0.0906004 -0.0083186 0)
(0.0909094 -0.00781919 0)
(0.0912166 -0.00734171 0)
(0.0915212 -0.00688668 0)
(0.0918226 -0.00645439 0)
(0.0921201 -0.0060449 0)
(0.0924133 -0.00565808 0)
(0.0927016 -0.00529359 0)
(0.0929845 -0.00495092 0)
(0.0932616 -0.00462941 0)
(0.0935324 -0.00432828 0)
(0.0937967 -0.00404665 0)
(0.0940541 -0.00378355 0)
(0.0943045 -0.00353795 0)
(0.0945476 -0.0033088 0)
(0.0947834 -0.00309497 0)
(0.0950118 -0.00289535 0)
(0.0952328 -0.00270881 0)
(0.0954464 -0.00253423 0)
(0.0956527 -0.00237053 0)
(0.0958518 -0.00221669 0)
(0.0960439 -0.00207177 0)
(0.0962292 -0.00193497 0)
(0.0964079 -0.00180565 0)
(0.0965803 -0.00168335 0)
(0.0967466 -0.00156782 0)
(0.0969069 -0.00145896 0)
(0.0970614 -0.00135678 0)
(0.0972103 -0.00126139 0)
(0.0973535 -0.00117284 0)
(0.0974913 -0.0010911 0)
(0.0976235 -0.00101601 0)
(0.0977503 -0.000947249 0)
(0.0978718 -0.000884336 0)
(0.097988 -0.000826697 0)
(0.098099 -0.00077371 0)
(0.0982051 -0.000724759 0)
(0.0983064 -0.000679285 0)
(0.0984031 -0.000636819 0)
(0.0898587 -0.0114003 0)
(0.0901077 -0.0108053 0)
(0.0903615 -0.0102254 0)
(0.0906194 -0.00966227 0)
(0.0908807 -0.00911743 0)
(0.0911447 -0.0085921 0)
(0.0914104 -0.00808733 0)
(0.0916772 -0.00760392 0)
(0.0919443 -0.00714245 0)
(0.0922109 -0.00670327 0)
(0.0924763 -0.00628649 0)
(0.0927397 -0.00589204 0)
(0.0930005 -0.00551964 0)
(0.0932581 -0.00516883 0)
(0.0935119 -0.00483904 0)
(0.0937613 -0.00452952 0)
(0.0940059 -0.00423946 0)
(0.0942452 -0.00396795 0)
(0.094479 -0.00371401 0)
(0.0947069 -0.0034766 0)
(0.0949287 -0.00325468 0)
(0.0951442 -0.00304716 0)
(0.0953534 -0.00285295 0)
(0.0955561 -0.00267095 0)
(0.0957524 -0.00250011 0)
(0.0959424 -0.00233944 0)
(0.0961261 -0.002188 0)
(0.0963038 -0.00204501 0)
(0.0964755 -0.00190983 0)
(0.0966416 -0.00178198 0)
(0.0968021 -0.00166118 0)
(0.0969572 -0.0015473 0)
(0.0971071 -0.00144035 0)
(0.0972519 -0.00134037 0)
(0.0973915 -0.0012474 0)
(0.097526 -0.00116141 0)
(0.0976555 -0.00108222 0)
(0.0977798 -0.00100949 0)
(0.097899 -0.000942783 0)
(0.0980132 -0.000881518 0)
(0.0981224 -0.000825086 0)
(0.0982268 -0.000772879 0)
(0.0983265 -0.000724341 0)
(0.0984218 -0.000679 0)
(0.0906532 -0.0116281 0)
(0.090846 -0.0110356 0)
(0.0910466 -0.0104573 0)
(0.0912543 -0.00989495 0)
(0.0914683 -0.00934995 0)
(0.0916878 -0.0088236 0)
(0.0919119 -0.00831698 0)
(0.0921397 -0.00783096 0)
(0.0923704 -0.00736614 0)
(0.0926032 -0.00692294 0)
(0.0928371 -0.00650154 0)
(0.0930713 -0.00610192 0)
(0.0933051 -0.00572388 0)
(0.0935376 -0.00536703 0)
(0.0937683 -0.00503085 0)
(0.0939964 -0.00471468 0)
(0.0942213 -0.00441777 0)
(0.0944426 -0.00413928 0)
(0.0946597 -0.00387827 0)
(0.0948722 -0.00363379 0)
(0.0950799 -0.00340482 0)
(0.0952825 -0.00319034 0)
(0.0954796 -0.0029893 0)
(0.0956714 -0.00280065 0)
(0.0958576 -0.00262337 0)
(0.0960382 -0.0024565 0)
(0.0962134 -0.00229912 0)
(0.0963832 -0.00215047 0)
(0.0965478 -0.00200991 0)
(0.0967072 -0.00187695 0)
(0.0968618 -0.00175129 0)
(0.0970116 -0.00163279 0)
(0.0971566 -0.0015214 0)
(0.097297 -0.00141715 0)
(0.0974328 -0.00132006 0)
(0.0975638 -0.00123006 0)
(0.0976901 -0.00114697 0)
(0.0978117 -0.00107047 0)
(0.0979284 -0.00100012 0)
(0.0980403 -0.000935352 0)
(0.0981475 -0.000875579 0)
(0.0982501 -0.000820204 0)
(0.0983481 -0.000768675 0)
(0.0984418 -0.000720523 0)
(0.0914285 -0.011797 0)
(0.0915688 -0.0112112 0)
(0.0917194 -0.0106384 0)
(0.0918798 -0.0100805 0)
(0.0920491 -0.00953891 0)
(0.0922263 -0.00901494 0)
(0.0924107 -0.00850971 0)
(0.0926012 -0.0080241 0)
(0.0927969 -0.0075588 0)
(0.092997 -0.00711425 0)
(0.0932004 -0.00669072 0)
(0.0934062 -0.00628825 0)
(0.0936135 -0.0059067 0)
(0.0938215 -0.00554577 0)
(0.0940294 -0.00520502 0)
(0.0942364 -0.00488387 0)
(0.0944419 -0.00458163 0)
(0.0946451 -0.00429753 0)
(0.0948456 -0.00403072 0)
(0.0950428 -0.0037803 0)
(0.0952363 -0.00354532 0)
(0.0954258 -0.00332482 0)
(0.0956109 -0.00311779 0)
(0.0957916 -0.00292325 0)
(0.0959675 -0.00274023 0)
(0.0961387 -0.00256778 0)
(0.0963052 -0.00240504 0)
(0.0964671 -0.00225125 0)
(0.0966243 -0.00210579 0)
(0.0967771 -0.00196816 0)
(0.0969255 -0.00183806 0)
(0.0970697 -0.0017153 0)
(0.0972097 -0.00159982 0)
(0.0973455 -0.00149161 0)
(0.0974771 -0.00139066 0)
(0.0976045 -0.0012969 0)
(0.0977274 -0.00121014 0)
(0.097846 -0.00113006 0)
(0.09796 -0.00105622 0)
(0.0980695 -0.000988094 0)
(0.0981744 -0.000925099 0)
(0.0982749 -0.000866655 0)
(0.0983711 -0.000812221 0)
(0.0984631 -0.000761331 0)
(0.0921799 -0.0119114 0)
(0.0922716 -0.0113357 0)
(0.0923759 -0.0107719 0)
(0.0924922 -0.0102218 0)
(0.0926195 -0.00968681 0)
(0.0927571 -0.00916827 0)
(0.0929039 -0.00866732 0)
(0.093059 -0.00818488 0)
(0.0932215 -0.00772168 0)
(0.0933902 -0.00727824 0)
(0.0935642 -0.00685486 0)
(0.0937426 -0.00645168 0)
(0.0939243 -0.00606862 0)
(0.0941084 -0.00570547 0)
(0.094294 -0.00536186 0)
(0.0944803 -0.00503729 0)
(0.0946665 -0.00473117 0)
(0.094852 -0.00444279 0)
(0.0950359 -0.00417139 0)
(0.0952178 -0.00391614 0)
(0.0953972 -0.00367616 0)
(0.0955736 -0.00345055 0)
(0.0957467 -0.00323837 0)
(0.0959161 -0.0030387 0)
(0.0960818 -0.00285061 0)
(0.0962435 -0.00267322 0)
(0.0964012 -0.00250568 0)
(0.096555 -0.00234728 0)
(0.0967048 -0.00219739 0)
(0.0968508 -0.00205553 0)
(0.096993 -0.00192137 0)
(0.0971314 -0.00179472 0)
(0.0972662 -0.00167548 0)
(0.0973972 -0.00156362 0)
(0.0975244 -0.0014591 0)
(0.0976478 -0.00136182 0)
(0.0977672 -0.00127161 0)
(0.0978825 -0.00118814 0)
(0.0979936 -0.00111099 0)
(0.0981004 -0.00103965 0)
(0.098203 -0.00097356 0)
(0.0983013 -0.000912157 0)
(0.0983955 -0.000854913 0)
(0.0984856 -0.000801367 0)
(0.0929037 -0.0119758 0)
(0.092951 -0.0114133 0)
(0.0930128 -0.0108615 0)
(0.0930884 -0.010322 0)
(0.0931769 -0.0097964 0)
(0.0932775 -0.00928596 0)
(0.0933891 -0.00879184 0)
(0.0935109 -0.00831502 0)
(0.0936418 -0.00785625 0)
(0.0937808 -0.00741611 0)
(0.0939268 -0.00699497 0)
(0.0940788 -0.00659302 0)
(0.0942358 -0.00621029 0)
(0.0943967 -0.00584662 0)
(0.0945607 -0.00550175 0)
(0.0947268 -0.00517525 0)
(0.0948942 -0.00486661 0)
(0.0950621 -0.00457522 0)
(0.0952297 -0.00430039 0)
(0.0953965 -0.00404137 0)
(0.0955618 -0.00379737 0)