/*--------------------------------*- C++ -*----------------------------------*\
| =========                 |                                                 |
| \\      /  F ield         | OpenFOAM: The Open Source CFD Toolbox           |
|  \\    /   O peration     | Version:  2412                                  |
|   \\  /    A nd           | Website:  www.openfoam.com                      |
|    \\/     M anipulation  |                                                 |
\*---------------------------------------------------------------------------*/
FoamFile
{
    version     2.0;
    format      ascii;
    arch        "LSB;label=32;scalar=64";
    class       volScalarField;
    location    "23.5";
    object      p;
}
// * * * * * * * * * * * * * * * * * * * * * * * * * * * * * * * * * * * * * //

dimensions      [0 2 -2 0 0 0 0];

internalField   nonuniform List<scalar> 
5285
(
1.08961e-05
9.97565e-06
9.12175e-06
8.33524e-06
7.6116e-06
6.94562e-06
6.33337e-06
5.77106e-06
5.25511e-06
4.78215e-06
4.34902e-06
3.95274e-06
3.59052e-06
3.25974e-06
2.95794e-06
2.68284e-06
2.43229e-06
2.20429e-06
1.99701e-06
1.80869e-06
1.63773e-06
1.48267e-06
1.34212e-06
1.21482e-06
1.09961e-06
9.95385e-07
9.01165e-07
8.16035e-07
7.39158e-07
6.69765e-07
6.07169e-07
5.50706e-07
4.99833e-07
4.53982e-07
4.12756e-07
3.75587e-07
3.4235e-07
3.12147e-07
2.85658e-07
2.60761e-07
2.40408e-07
2.18836e-07
2.05137e-07
1.83747e-07
1.79362e-07
1.52455e-07
1.63825e-07
1.21052e-07
1.60632e-07
8.49697e-08
1.72702e-07
4.01884e-08
2.01627e-07
-1.41693e-08
2.44237e-07
-7.21636e-08
2.89378e-07
-1.19072e-07
3.1896e-07
-1.3604e-07
3.16395e-07
-1.13079e-07
2.83088e-07
-6.63296e-08
2.53249e-07
-4.71506e-08
2.93438e-07
-1.3089e-07
4.79367e-07
-3.89249e-07
8.59087e-07
1.08753e-05
9.95708e-06
9.10519e-06
8.32049e-06
7.59848e-06
6.93396e-06
6.32301e-06
5.76187e-06
5.24697e-06
4.77494e-06
4.34265e-06
3.94711e-06
3.58555e-06
3.25536e-06
2.95409e-06
2.67945e-06
2.42932e-06
2.20168e-06
1.99472e-06
1.80669e-06
1.63598e-06
1.48115e-06
1.34079e-06
1.21366e-06
1.0986e-06
9.94503e-07
9.00397e-07
8.15368e-07
7.38578e-07
6.69261e-07
6.06734e-07
5.50328e-07
4.99506e-07
4.53701e-07
4.12512e-07
3.75378e-07
3.42167e-07
3.11989e-07
2.85522e-07
2.60643e-07
2.40306e-07
2.18751e-07
2.05061e-07
1.83684e-07
1.79303e-07
1.52408e-07
1.63776e-07
1.21023e-07
1.6059e-07
8.49536e-08
1.72662e-07
4.01817e-08
2.01587e-07
-1.41672e-08
2.44201e-07
-7.21599e-08
2.89349e-07
-1.19073e-07
3.18942e-07
-1.36049e-07
3.16384e-07
-1.13091e-07
2.83076e-07
-6.63371e-08
2.53222e-07
-4.71309e-08
2.93385e-07
-1.30858e-07
4.79364e-07
-3.89277e-07
8.59306e-07
1.08337e-05
9.91996e-06
9.07212e-06
8.29103e-06
7.57226e-06
6.91065e-06
6.30231e-06
5.74351e-06
5.23069e-06
4.76054e-06
4.32991e-06
3.93586e-06
3.57563e-06
3.24662e-06
2.94639e-06
2.67268e-06
2.42337e-06
2.19647e-06
1.99015e-06
1.80268e-06
1.63249e-06
1.47809e-06
1.33812e-06
1.21134e-06
1.09657e-06
9.9274e-07
8.98864e-07
8.14034e-07
7.37419e-07
6.68257e-07
6.05861e-07
5.49575e-07
4.98856e-07
4.53139e-07
4.1203e-07
3.74958e-07
3.41807e-07
3.11676e-07
2.85249e-07
2.6041e-07
2.40102e-07
2.18578e-07
2.04907e-07
1.8356e-07
1.79181e-07
1.52319e-07
1.63676e-07
1.20962e-07
1.60504e-07
8.4923e-08
1.72581e-07
4.01718e-08
2.0151e-07
-1.41676e-08
2.44127e-07
-7.21545e-08
2.89295e-07
-1.19076e-07
3.18904e-07
-1.36064e-07
3.16361e-07
-1.13114e-07
2.8305e-07
-6.63461e-08
2.53163e-07
-4.70912e-08
2.93286e-07
-1.30806e-07
4.79372e-07
-3.89349e-07
8.59741e-07
1.07715e-05
9.86441e-06
9.02261e-06
8.24693e-06
7.53302e-06
6.87576e-06
6.27132e-06
5.71601e-06
5.20633e-06
4.73897e-06
4.31084e-06
3.91901e-06
3.56076e-06
3.23351e-06
2.93485e-06
2.66254e-06
2.41446e-06
2.18866e-06
1.9833e-06
1.79669e-06
1.62725e-06
1.47351e-06
1.33413e-06
1.20785e-06
1.09354e-06
9.90099e-07
8.96567e-07
8.12038e-07
7.35686e-07
6.66754e-07
6.04557e-07
5.48447e-07
4.97881e-07
4.52297e-07
4.11304e-07
3.7433e-07
3.41264e-07
3.11206e-07
2.84842e-07
2.6006e-07
2.39797e-07
2.18318e-07
2.04675e-07
1.83371e-07
1.79e-07
1.52183e-07
1.63528e-07
1.20872e-07
1.60377e-07
8.48753e-08
1.72463e-07
4.01543e-08
2.01397e-07
-1.4168e-08
2.44022e-07
-7.21486e-08
2.89215e-07
-1.19082e-07
3.1885e-07
-1.3609e-07
3.16328e-07
-1.13152e-07
2.83013e-07
-6.63619e-08
2.53078e-07
-4.70371e-08
2.93146e-07
-1.30732e-07
4.79389e-07
-3.8946e-07
8.60387e-07
1.06887e-05
9.79056e-06
8.95679e-06
8.1883e-06
7.48083e-06
6.82936e-06
6.23011e-06
5.67945e-06
5.17392e-06
4.71028e-06
4.28547e-06
3.8966e-06
3.54099e-06
3.21609e-06
2.91951e-06
2.64905e-06
2.40261e-06
2.17826e-06
1.97419e-06
1.78872e-06
1.62027e-06
1.46742e-06
1.32881e-06
1.20322e-06
1.0895e-06
9.86585e-07
8.93511e-07
8.09383e-07
7.33381e-07
6.64753e-07
6.02823e-07
5.46947e-07
4.96583e-07
4.51176e-07
4.10337e-07
3.73492e-07
3.4054e-07
3.10581e-07
2.84299e-07
2.59594e-07
2.3939e-07
2.17973e-07
2.04367e-07
1.83119e-07
1.78761e-07
1.52001e-07
1.63334e-07
1.20751e-07
1.60211e-07
8.48065e-08
1.72312e-07
4.01236e-08
2.01256e-07
-1.4178e-08
2.43897e-07
-7.21551e-08
2.89125e-07
-1.19107e-07
3.18795e-07
-1.36142e-07
3.16301e-07
-1.13218e-07
2.82977e-07
-6.63939e-08
2.52976e-07
-4.69769e-08
2.92974e-07
-1.30652e-07
4.79431e-07
-3.89632e-07
8.61253e-07
1.05857e-05
9.69859e-06
8.87481e-06
8.11527e-06
7.41583e-06
6.77157e-06
6.17878e-06
5.6339e-06
5.13355e-06
4.67454e-06
4.25385e-06
3.86868e-06
3.51635e-06
3.19436e-06
2.90039e-06
2.63223e-06
2.38784e-06
2.1653e-06
1.96283e-06
1.77877e-06
1.61158e-06
1.45982e-06
1.32218e-06
1.19744e-06
1.08446e-06
9.82203e-07
8.89701e-07
8.06072e-07
7.30506e-07
6.6226e-07
6.0066e-07
5.45075e-07
4.94964e-07
4.49777e-07
4.09128e-07
3.72448e-07
3.39637e-07
3.098e-07
2.83622e-07
2.59012e-07
2.38883e-07
2.17541e-07
2.03983e-07
1.82803e-07
1.78462e-07
1.51775e-07
1.63092e-07
1.20599e-07
1.60004e-07
8.4721e-08
1.72123e-07
4.00872e-08
2.01079e-07
-1.41865e-08
2.43739e-07
-7.21587e-08
2.89007e-07
-1.19133e-07
3.18723e-07
-1.36203e-07
3.16263e-07
-1.13295e-07
2.82928e-07
-6.64311e-08
2.52847e-07
-4.69032e-08
2.92762e-07
-1.30553e-07
4.7948e-07
-3.89837e-07
8.62285e-07
1.04627e-05
9.58869e-06
8.77687e-06
8.028e-06
7.33815e-06
6.70249e-06
6.11741e-06
5.57945e-06
5.08528e-06
4.63179e-06
4.21605e-06
3.83528e-06
3.48687e-06
3.16838e-06
2.87751e-06
2.61211e-06
2.37016e-06
2.14979e-06
1.94924e-06
1.76687e-06
1.60117e-06
1.45073e-06
1.31425e-06
1.19052e-06
1.07844e-06
9.76957e-07
8.85139e-07
8.02108e-07
7.27064e-07
6.59273e-07
5.98072e-07
5.42834e-07
4.93024e-07
4.481e-07
4.07679e-07
3.71195e-07
3.38554e-07
3.08865e-07
2.82811e-07
2.58315e-07
2.38273e-07
2.17026e-07
2.03519e-07
1.82429e-07
1.78096e-07
1.51515e-07
1.62784e-07
1.20443e-07
1.59722e-07
8.46642e-08
1.71835e-07
4.01222e-08
2.00769e-07
-1.40765e-08
2.43409e-07
-7.20026e-08
2.88688e-07
-1.18978e-07
3.18445e-07
-1.36089e-07
3.16042e-07
-1.13231e-07
2.82735e-07
-6.63634e-08
2.52598e-07
-4.67265e-08
2.92407e-07
-1.303e-07
4.7934e-07
-3.89803e-07
8.63128e-07
1.03163e-05
9.45796e-06
8.66036e-06
7.92419e-06
7.24572e-06
6.62029e-06
6.04438e-06
5.51463e-06
5.02782e-06
4.58091e-06
4.17104e-06
3.79551e-06
3.45177e-06
3.13743e-06
2.85026e-06
2.58814e-06
2.3491e-06
2.13131e-06
1.93304e-06
1.75268e-06
1.58876e-06
1.43989e-06
1.30479e-06
1.18227e-06
1.07125e-06
9.70701e-07
8.79698e-07
7.97379e-07
7.22958e-07
6.55711e-07
5.94983e-07
5.40158e-07
4.90709e-07
4.46098e-07
4.05948e-07
3.69699e-07
3.37259e-07
3.07748e-07
2.81841e-07
2.57484e-07
2.37542e-07
2.16413e-07
2.02958e-07
1.8199e-07
1.77645e-07
1.51225e-07
1.62387e-07
1.20298e-07
1.59325e-07
8.46771e-08
1.71383e-07
4.03026e-08
2.00224e-07
-1.37337e-08
2.42768e-07
-7.15329e-08
2.87996e-07
-1.18462e-07
3.17776e-07
-1.35625e-07
3.15472e-07
-1.12882e-07
2.82273e-07
-6.60917e-08
2.52139e-07
-4.63668e-08
2.91814e-07
-1.29767e-07
4.78827e-07
-3.89274e-07
8.63499e-07
1.01454e-05
9.30527e-06
8.52423e-06
7.80288e-06
7.13771e-06
6.52423e-06
5.95902e-06
5.43887e-06
4.96065e-06
4.52142e-06
4.11841e-06
3.74899e-06
3.41071e-06
3.10124e-06
2.81838e-06
2.5601e-06
2.32447e-06
2.10968e-06
1.91408e-06
1.73608e-06
1.57424e-06
1.4272e-06
1.29371e-06
1.17261e-06
1.06283e-06
9.63377e-07
8.73327e-07
7.91843e-07
7.18151e-07
6.51539e-07
5.91366e-07
5.37025e-07
4.87997e-07
4.43752e-07
4.0392e-07
3.67946e-07
3.35743e-07
3.06438e-07
2.80705e-07
2.56508e-07
2.36689e-07
2.15689e-07
2.0231e-07
1.81461e-07
1.77138e-07
1.50854e-07
1.61968e-07
1.20065e-07
1.58947e-07
8.45736e-08
1.71009e-07
4.03176e-08
1.9983e-07
-1.36238e-08
2.42358e-07
-7.13689e-08
2.87608e-07
-1.18305e-07
3.17449e-07
-1.35529e-07
3.15227e-07
-1.1286e-07
2.82075e-07
-6.60766e-08
2.51881e-07
-4.62303e-08
2.91444e-07
-1.29554e-07
4.78764e-07
-3.8937e-07
8.64813e-07
9.95359e-06
9.13402e-06
8.37151e-06
7.66675e-06
7.01649e-06
6.4164e-06
5.8632e-06
5.35381e-06
4.88521e-06
4.4546e-06
4.05928e-06
3.69674e-06
3.36458e-06
3.06056e-06
2.78256e-06
2.52858e-06
2.29677e-06
2.08537e-06
1.89276e-06
1.71741e-06
1.55791e-06
1.41293e-06
1.28126e-06
1.16175e-06
1.05337e-06
9.55136e-07
8.66159e-07
7.85613e-07
7.12741e-07
6.46845e-07
5.87296e-07
5.33499e-07
4.84944e-07
4.41111e-07
4.01636e-07
3.65972e-07
3.34035e-07
3.04963e-07
2.79427e-07
2.55406e-07
2.3573e-07
2.1487e-07
2.01585e-07
1.80858e-07
1.76578e-07
1.50419e-07
1.61518e-07
1.19771e-07
1.58564e-07
8.44004e-08
1.7066e-07
4.02425e-08
1.99499e-07
-1.36343e-08
2.42054e-07
-7.13598e-08
2.87362e-07
-1.18331e-07
3.17287e-07
-1.35627e-07
3.15148e-07
-1.13019e-07
2.82021e-07
-6.62192e-08
2.51746e-07
-4.62432e-08
2.91216e-07
-1.29543e-07
4.78967e-07
-3.89829e-07
8.66727e-07
9.74155e-06
8.94463e-06
8.20255e-06
7.51614e-06
6.88236e-06
6.29705e-06
5.75712e-06
5.25962e-06
4.80168e-06
4.3806e-06
3.9938e-06
3.63886e-06
3.31348e-06
3.01549e-06
2.74285e-06
2.49365e-06
2.26606e-06
2.05842e-06
1.86912e-06
1.69671e-06
1.53979e-06
1.3971e-06
1.26743e-06
1.14969e-06
1.04286e-06
9.45989e-07
8.58202e-07
7.78697e-07
7.06735e-07
6.41633e-07
5.82776e-07
5.29582e-07
4.81553e-07
4.38176e-07
3.99098e-07
3.63777e-07
3.32136e-07
3.03323e-07
2.78006e-07
2.54182e-07
2.34663e-07
2.13959e-07
2.00778e-07
1.80185e-07
1.75956e-07
1.49934e-07
1.6102e-07
1.19441e-07
1.58142e-07
8.42039e-08
1.70274e-07
4.01563e-08
1.99131e-07
-1.36452e-08
2.41713e-07
-7.13449e-08
2.87082e-07
-1.18352e-07
3.17101e-07
-1.35732e-07
3.1506e-07
-1.13203e-07
2.81977e-07
-6.64068e-08
2.51639e-07
-4.63147e-08
2.91026e-07
-1.29596e-07
4.79234e-07
-3.90369e-07
8.68867e-07
9.50982e-06
8.73761e-06
8.01782e-06
7.35144e-06
6.73564e-06
6.16649e-06
5.64105e-06
5.15655e-06
4.71025e-06
4.29958e-06
3.92209e-06
3.57546e-06
3.25749e-06
2.96611e-06
2.69935e-06
2.45536e-06
2.23241e-06
2.02886e-06
1.84321e-06
1.674e-06
1.51993e-06
1.37973e-06
1.25227e-06
1.13647e-06
1.03133e-06
9.35951e-07
8.49469e-07
7.71106e-07
7.00141e-07
6.35911e-07
5.77813e-07
5.25281e-07
4.77827e-07
4.34952e-07
3.96308e-07
3.61365e-07
3.3005e-07
3.0152e-07
2.76444e-07
2.52835e-07
2.33491e-07
2.12955e-07
1.99892e-07
1.79444e-07
1.75273e-07
1.49399e-07
1.60473e-07
1.19077e-07
1.57677e-07
8.39884e-08
1.69848e-07
4.00658e-08
1.9872e-07
-1.36464e-08
2.41324e-07
-7.13104e-08
2.86752e-07
-1.18353e-07
3.16871e-07
-1.35826e-07
3.14946e-07
-1.13397e-07
2.81931e-07
-6.66288e-08
2.5155e-07
-4.64387e-08
2.90867e-07
-1.29702e-07
4.79545e-07
-3.90959e-07
8.71161e-07
9.25904e-06
8.51353e-06
7.8178e-06
7.17306e-06
6.57671e-06
6.02502e-06
5.51527e-06
5.04483e-06
4.61112e-06
4.21173e-06
3.84432e-06
3.50669e-06
3.19676e-06
2.91253e-06
2.65213e-06
2.4138e-06
2.19587e-06
1.99677e-06
1.81506e-06
1.64934e-06
1.49834e-06
1.36086e-06
1.23579e-06
1.12209e-06
1.0188e-06
9.25037e-07
8.39973e-07
7.6285e-07
6.9297e-07
6.29687e-07
5.72414e-07
5.20602e-07
4.73774e-07
4.31443e-07
3.93272e-07
3.58738e-07
3.27777e-07
2.99556e-07
2.74742e-07
2.51368e-07
2.32213e-07
2.11862e-07
1.98926e-07
1.78636e-07
1.7453e-07
1.48814e-07
1.59879e-07
1.18677e-07
1.57173e-07
8.37502e-08
1.69387e-07
3.99646e-08
1.98274e-07
-1.36477e-08
2.40898e-07
-7.12696e-08
2.86387e-07
-1.18348e-07
3.16616e-07
-1.35924e-07
3.14821e-07
-1.13613e-07
2.81893e-07
-6.68946e-08
2.51488e-07
-4.66247e-08
2.9075e-07
-1.29875e-07
4.7991e-07
-3.91612e-07
8.73598e-07
8.98989e-06
8.27296e-06
7.60302e-06
6.98147e-06
6.40596e-06
5.873e-06
5.38007e-06
4.92471e-06
4.50453e-06
4.11724e-06
3.76066e-06
3.4327e-06
3.13139e-06
2.85485e-06
2.60129e-06
2.36904e-06
2.15651e-06
1.96221e-06
1.78473e-06
1.62276e-06
1.47508e-06
1.34052e-06
1.21802e-06
1.10658e-06
1.00528e-06
9.13264e-07
8.29729e-07
7.53943e-07
6.85232e-07
6.2297e-07
5.66587e-07
5.1555e-07
4.69397e-07
4.27652e-07
3.89991e-07
3.559e-07
3.25321e-07
2.97433e-07
2.72903e-07
2.49781e-07
2.30832e-07
2.10678e-07
1.97882e-07
1.7776e-07
1.73727e-07
1.4818e-07
1.59239e-07
1.18242e-07
1.56631e-07
8.34886e-08
1.68891e-07
3.98511e-08
1.97794e-07
-1.36517e-08
2.4044e-07
-7.12261e-08
2.85992e-07
-1.18342e-07
3.16338e-07
-1.36031e-07
3.14688e-07
-1.13855e-07
2.81866e-07
-6.72065e-08
2.51455e-07
-4.68759e-08
2.90678e-07
-1.30118e-07
4.80326e-07
-3.92326e-07
8.76148e-07
8.7031e-06
8.01655e-06
7.37402e-06
6.77714e-06
6.22381e-06
5.7108e-06
5.23577e-06
4.79649e-06
4.39072e-06
4.01633e-06
3.67128e-06
3.35364e-06
3.06153e-06
2.79319e-06
2.54693e-06
2.32118e-06
2.11441e-06
1.92523e-06
1.75228e-06
1.59432e-06
1.45018e-06
1.31874e-06
1.19899e-06
1.08998e-06
9.90805e-07
9.00651e-07
8.18751e-07
7.44398e-07
6.76939e-07
6.15769e-07
5.60339e-07
5.10132e-07
4.64702e-07
4.23586e-07
3.86471e-07
3.52854e-07
3.22684e-07
2.95153e-07
2.70927e-07
2.48076e-07
2.29348e-07
2.09405e-07
1.96761e-07
1.76817e-07
1.72865e-07
1.47496e-07
1.58553e-07
1.17772e-07
1.56051e-07
8.32042e-08
1.6836e-07
3.97259e-08
1.9728e-07
-1.36577e-08
2.39948e-07
-7.11791e-08
2.85566e-07
-1.18333e-07
3.16037e-07
-1.36145e-07
3.14546e-07
-1.14122e-07
2.81848e-07
-6.75634e-08
2.51452e-07
-4.71928e-08
2.90649e-07
-1.30429e-07
4.80785e-07
-3.93089e-07
8.78775e-07
8.39946e-06
7.74499e-06
7.13141e-06
6.5606e-06
6.03072e-06
5.5388e-06
5.08272e-06
4.66045e-06
4.26993e-06
3.90921e-06
3.57639e-06
3.26967e-06
2.98732e-06
2.72767e-06
2.48917e-06
2.2703e-06
2.06966e-06
1.8859e-06
1.71777e-06
1.56406e-06
1.42368e-06
1.29556e-06
1.17874e-06
1.0723e-06
9.75385e-07
8.87216e-07
8.07057e-07
7.34228e-07
6.68101e-07
6.08094e-07
5.53679e-07
5.04356e-07
4.59695e-07
4.19249e-07
3.82715e-07
3.49603e-07
3.1987e-07
2.92719e-07
2.68818e-07
2.46255e-07
2.27764e-07
2.08046e-07
1.95563e-07
1.75809e-07
1.71944e-07
1.46764e-07
1.57821e-07
1.17268e-07
1.55433e-07
8.28974e-08
1.67795e-07
3.95898e-08
1.96733e-07
-1.36649e-08
2.39421e-07
-7.11275e-08
2.85107e-07
-1.18321e-07
3.15712e-07
-1.36266e-07
3.14394e-07
-1.1441e-07
2.81837e-07
-6.79639e-08
2.51476e-07
-4.75749e-08
2.90663e-07
-1.30805e-07
4.81277e-07
-3.93889e-07
8.81442e-07
8.07979e-06
7.45898e-06
6.87581e-06
6.33238e-06
5.82716e-06
5.35742e-06
4.92128e-06
4.5169e-06
4.14245e-06
3.79611e-06
3.47618e-06
3.18098e-06
2.90891e-06
2.65844e-06
2.4281e-06
2.21651e-06
2.02233e-06
1.8443e-06
1.68125e-06
1.53204e-06
1.39563e-06
1.27102e-06
1.15729e-06
1.05357e-06
9.5905e-07
8.72982e-07
7.94665e-07
7.23448e-07
6.58731e-07
5.99956e-07
5.46615e-07
4.98228e-07
4.54383e-07
4.14646e-07
3.78727e-07
3.46151e-07
3.16881e-07
2.90134e-07
2.66577e-07
2.4432e-07
2.2608e-07
2.06599e-07
1.94289e-07
1.74737e-07
1.70967e-07
1.45984e-07
1.57044e-07
1.1673e-07
1.54777e-07
8.25687e-08
1.67196e-07
3.94429e-08
1.96151e-07
-1.3673e-08
2.3886e-07
-7.1071e-08
2.84616e-07
-1.18306e-07
3.15362e-07
-1.36391e-07
3.14232e-07
-1.1472e-07
2.81833e-07
-6.84066e-08
2.51526e-07
-4.8021e-08
2.90717e-07
-1.31245e-07
4.81791e-07
-3.94714e-07
8.84119e-07
7.74495e-06
7.15927e-06
6.60786e-06
6.09307e-06
5.61363e-06
5.16709e-06
4.75181e-06
4.36619e-06
4.00855e-06
3.6773e-06
3.37087e-06
3.08774e-06
2.82646e-06
2.58562e-06
2.36386e-06
2.1599e-06
1.97251e-06
1.80051e-06
1.64279e-06
1.49831e-06
1.36608e-06
1.24516e-06
1.13468e-06
1.03382e-06
9.41825e-07
8.57969e-07
7.81591e-07
7.12073e-07
6.48843e-07
5.91365e-07
5.39157e-07
4.91757e-07
4.48772e-07
4.09783e-07
3.74514e-07
3.42503e-07
3.13721e-07
2.87399e-07
2.64207e-07
2.42272e-07
2.24298e-07
2.05069e-07
1.92942e-07
1.73601e-07
1.69932e-07
1.45158e-07
1.56222e-07
1.16158e-07
1.54084e-07
8.22184e-08
1.66562e-07
3.92858e-08
1.95535e-07
-1.36816e-08
2.38264e-07
-7.10093e-08
2.84092e-07
-1.18286e-07
3.14987e-07
-1.36521e-07
3.14057e-07
-1.15051e-07
2.81834e-07
-6.88898e-08
2.51601e-07
-4.85293e-08
2.90807e-07
-1.31744e-07
4.82316e-07
-3.95551e-07
8.86773e-07
7.39583e-06
6.84666e-06
6.32827e-06
5.84325e-06
5.39064e-06
4.96826e-06
4.57472e-06
4.20863e-06
3.86854e-06
3.55302e-06
3.26068e-06
2.99016e-06
2.74015e-06
2.50936e-06
2.29657e-06
2.10059e-06
1.92029e-06
1.75459e-06
1.60247e-06
1.46293e-06
1.33507e-06
1.21802e-06
1.11095e-06
1.0131e-06
9.23737e-07
8.422e-07
7.67857e-07
7.00121e-07
6.38449e-07
5.82333e-07
5.31314e-07
4.84952e-07
4.42869e-07
4.04666e-07
3.70079e-07
3.38662e-07
3.10393e-07
2.84519e-07
2.61709e-07
2.40114e-07
2.2242e-07
2.03454e-07
1.91522e-07
1.72402e-07
1.68842e-07
1.44285e-07
1.55357e-07
1.15553e-07
1.53353e-07
8.18469e-08
1.65895e-07
3.91188e-08
1.94885e-07
-1.36903e-08
2.37634e-07
-7.09419e-08
2.83535e-07
-1.1826e-07
3.14587e-07
-1.36655e-07
3.13869e-07
-1.154e-07
2.81837e-07
-6.94112e-08
2.51696e-07
-4.90969e-08
2.90929e-07
-1.32295e-07
4.8284e-07
-3.96386e-07
8.89375e-07
7.03336e-06
6.52195e-06
6.03772e-06
5.58355e-06
5.15873e-06
4.7614e-06
4.39042e-06
4.0446e-06
3.72272e-06
3.42354e-06
3.14584e-06
2.88843e-06
2.65014e-06
2.42982e-06
2.22636e-06
2.03869e-06
1.86578e-06
1.70665e-06
1.56034e-06
1.42597e-06
1.30267e-06
1.18965e-06
1.08614e-06
9.91416e-07
9.04814e-07
8.25699e-07
7.53481e-07
6.87607e-07
6.27565e-07
5.72873e-07
5.23098e-07
4.7782e-07
4.36682e-07
3.99301e-07
3.65428e-07
3.34632e-07
3.06901e-07
2.81496e-07
2.59088e-07
2.37847e-07
2.20448e-07
2.01759e-07
1.9003e-07
1.71142e-07
1.67696e-07
1.43366e-07
1.54447e-07
1.14916e-07
1.52586e-07
8.14548e-08
1.65193e-07
3.89422e-08
1.94202e-07
-1.36988e-08
2.36969e-07
-7.08684e-08
2.82945e-07
-1.1823e-07
3.14161e-07
-1.36791e-07
3.13668e-07
-1.15765e-07
2.81841e-07
-6.99683e-08
2.5181e-07
-4.972e-08
2.91076e-07
-1.32893e-07
4.83349e-07
-3.97204e-07
8.91896e-07
6.65851e-06
6.18597e-06
5.73696e-06
5.3146e-06
4.91847e-06
4.54701e-06
4.19932e-06
3.87446e-06
3.57141e-06
3.28913e-06
3.0266e-06
2.78277e-06
2.55662e-06
2.34714e-06
2.15336e-06
1.97431e-06
1.80908e-06
1.65676e-06
1.5165e-06
1.38748e-06
1.26893e-06
1.1601e-06
1.06028e-06
9.68819e-07
8.85086e-07
8.08492e-07
7.38486e-07
6.7455e-07
6.16205e-07
5.62997e-07
5.14518e-07
4.70371e-07
4.30218e-07
3.93694e-07
3.60567e-07
3.30419e-07
3.03249e-07
2.78334e-07
2.56344e-07
2.35475e-07
2.18383e-07
1.99983e-07
1.88468e-07
1.69821e-07
1.66497e-07
1.42403e-07
1.53494e-07
1.14247e-07
1.51782e-07
8.10425e-08
1.64457e-07
3.87567e-08
1.93484e-07
-1.37065e-08
2.36269e-07
-7.07883e-08
2.82322e-07
-1.18193e-07
3.13708e-07
-1.3693e-07
3.13451e-07
-1.16146e-07
2.81844e-07
-7.05579e-08
2.51937e-07
-5.0394e-08
2.91243e-07
-1.33529e-07
4.83828e-07
-3.9799e-07
8.94308e-07
6.27224e-06
5.83959e-06
5.42674e-06
5.03705e-06
4.67042e-06
4.32557e-06
4.00186e-06
3.69858e-06
3.41494e-06
3.1501e-06
2.9032e-06
2.67339e-06
2.45977e-06
2.2615e-06
2.07771e-06
1.90758e-06
1.75027e-06
1.60501e-06
1.47101e-06
1.34754e-06
1.2339e-06
1.12941e-06
1.03342e-06
9.45341e-07
8.64582e-07
7.90602e-07
7.22892e-07
6.60969e-07
6.04386e-07
5.52719e-07
5.05586e-07
4.62614e-07
4.23485e-07
3.87853e-07
3.555e-07
3.26027e-07
2.9944e-07
2.75035e-07
2.53482e-07
2.33e-07
2.16229e-07
1.98129e-07
1.86837e-07
1.68442e-07
1.65244e-07
1.41396e-07
1.52498e-07
1.13546e-07
1.50941e-07
8.06106e-08
1.63688e-07
3.85626e-08
1.92733e-07
-1.37132e-08
2.35534e-07
-7.07012e-08
2.81666e-07
-1.1815e-07
3.13229e-07
-1.37069e-07
3.13218e-07
-1.16541e-07
2.81843e-07
-7.11767e-08
2.52074e-07
-5.11135e-08
2.9142e-07
-1.34194e-07
4.84262e-07
-3.98728e-07
8.96583e-07
5.87556e-06
5.48367e-06
5.10781e-06
4.75158e-06
4.41517e-06
4.0976e-06
3.79848e-06
3.51737e-06
3.25366e-06
3.00673e-06
2.77591e-06
2.5605e-06
2.35979e-06
2.17305e-06
1.99957e-06
1.83861e-06
1.68949e-06
1.55149e-06
1.42395e-06
1.30621e-06
1.19764e-06
1.09763e-06
1.00561e-06
9.21018e-07
8.43333e-07
7.72058e-07
7.06723e-07
6.46882e-07
5.92123e-07
5.42051e-07
4.96314e-07
4.5456e-07
4.16492e-07
3.81784e-07
3.50235e-07
3.21461e-07
2.9548e-07
2.71604e-07
2.50504e-07
2.30423e-07
2.13986e-07
1.96198e-07
1.85138e-07
1.67005e-07
1.63938e-07
1.40346e-07
1.51461e-07
1.12815e-07
1.50065e-07
8.01596e-08
1.62886e-07
3.83605e-08
1.91947e-07
-1.37183e-08
2.34764e-07
-7.06066e-08
2.80976e-07
-1.181e-07
3.12722e-07
-1.37208e-07
3.12967e-07
-1.16946e-07
2.81835e-07
-7.1821e-08
2.52215e-07
-5.18721e-08
2.91598e-07
-1.34878e-07
4.84635e-07
-3.994e-07
8.98693e-07
5.46949e-06
5.11912e-06
4.78097e-06
4.45887e-06
4.15331e-06
3.86362e-06
3.58966e-06
3.33121e-06
3.0879e-06
2.85932e-06
2.64498e-06
2.44435e-06
2.25687e-06
2.08197e-06
1.91906e-06
1.76755e-06
1.62683e-06
1.49631e-06
1.37541e-06
1.26356e-06
1.16021e-06
1.06482e-06
9.76879e-07
8.95887e-07
8.21373e-07
7.52887e-07
6.90001e-07
6.32309e-07
5.79433e-07
5.3101e-07
4.86713e-07
4.46217e-07
4.09247e-07
3.75494e-07
3.44777e-07
3.16726e-07
2.91373e-07
2.68043e-07
2.47414e-07
2.27748e-07
2.11657e-07
1.94193e-07
1.83374e-07
1.65511e-07
1.62581e-07
1.39253e-07
1.50382e-07
1.12054e-07
1.49154e-07
7.96901e-08
1.6205e-07
3.81508e-08
1.91128e-07
-1.37213e-08
2.33959e-07
-7.0504e-08
2.80252e-07
-1.18042e-07
3.12187e-07
-1.37345e-07
3.12697e-07
-1.17361e-07
2.81817e-07
-7.24864e-08
2.52354e-07
-5.26628e-08
2.91768e-07
-1.35571e-07
4.84929e-07
-3.99989e-07
9.00608e-07
5.05506e-06
4.74684e-06
4.447e-06
4.15961e-06
3.88546e-06
3.62416e-06
3.37583e-06
3.1405e-06
2.91803e-06
2.70819e-06
2.51068e-06
2.32516e-06
2.15122e-06
1.98844e-06
1.83636e-06
1.69451e-06
1.5624e-06
1.43955e-06
1.32547e-06
1.21967e-06
1.12168e-06
1.03103e-06
9.47281e-07
8.69988e-07
7.98734e-07
7.33116e-07
6.72751e-07
6.17271e-07
5.66334e-07
5.19608e-07
4.76797e-07
4.37597e-07
4.01758e-07
3.68991e-07
3.39131e-07
3.11828e-07
2.87122e-07
2.64357e-07
2.44214e-07
2.24978e-07
2.09244e-07
1.92115e-07
1.81545e-07
1.63961e-07
1.61174e-07
1.38119e-07
1.49262e-07
1.11264e-07
1.48208e-07
7.92026e-08
1.61182e-07
3.79341e-08
1.90275e-07
-1.37217e-08
2.33119e-07
-7.03929e-08
2.79494e-07
-1.17975e-07
3.11623e-07
-1.37481e-07
3.12407e-07
-1.17782e-07
2.81786e-07
-7.31684e-08
2.52486e-07
-5.34778e-08
2.91919e-07
-1.36259e-07
4.85125e-07
-4.00475e-07
9.02297e-07
4.63331e-06
4.36774e-06
4.10671e-06
3.85452e-06
3.61223e-06
3.37976e-06
3.15749e-06
2.94567e-06
2.74439e-06
2.55363e-06
2.37328e-06
2.20316e-06
2.04304e-06
1.89262e-06
1.7516e-06
1.61963e-06
1.49633e-06
1.38132e-06
1.27421e-06
1.1746e-06
1.0821e-06
9.96315e-07
9.1686e-07
8.4336e-07
7.7545e-07
7.12776e-07
6.54999e-07
6.0179e-07
5.52845e-07
5.07862e-07
4.66577e-07
4.28711e-07
3.94036e-07
3.62283e-07
3.33306e-07
3.06771e-07
2.82732e-07
2.6055e-07
2.40907e-07
2.22114e-07
2.0675e-07
1.89965e-07
1.79653e-07
1.62358e-07
1.59717e-07
1.36945e-07
1.48103e-07
1.10445e-07
1.47227e-07
7.86978e-08
1.60281e-07
3.77108e-08
1.89389e-07
-1.37191e-08
2.32243e-07
-7.02727e-08
2.78701e-07
-1.17899e-07
3.1103e-07
-1.37613e-07
3.12095e-07
-1.18208e-07
2.81738e-07
-7.38623e-08
2.52604e-07
-5.43089e-08
2.9204e-07
-1.36931e-07
4.85205e-07
-4.0084e-07
9.03728e-07
4.20527e-06
3.98273e-06
3.7609e-06
3.54428e-06
3.33424e-06
3.13097e-06
2.9351e-06
2.74713e-06
2.56736e-06
2.39598e-06
2.23306e-06
2.07861e-06
1.93254e-06
1.79471e-06
1.66496e-06
1.54305e-06
1.42873e-06
1.32172e-06
1.22173e-06
1.12844e-06
1.04155e-06
9.60728e-07
8.85665e-07
8.16045e-07
7.51556e-07
6.91895e-07
6.36768e-07
5.85886e-07
5.38982e-07
4.95788e-07
4.56067e-07
4.19569e-07
3.86088e-07
3.55377e-07
3.27307e-07
3.01562e-07
2.78208e-07
2.56625e-07
2.37497e-07
2.19161e-07
2.04177e-07
1.87746e-07
1.77699e-07
1.60701e-07
1.58213e-07
1.35731e-07
1.46904e-07
1.09599e-07
1.46213e-07
7.81764e-08
1.59347e-07
3.74817e-08
1.88469e-07
-1.37129e-08
2.31332e-07
-7.01429e-08
2.77874e-07
-1.17814e-07
3.10407e-07
-1.3774e-07
3.11759e-07
-1.18635e-07
2.81671e-07
-7.45627e-08
2.527e-07
-5.51469e-08
2.92118e-07
-1.37573e-07
4.85149e-07
-4.01062e-07
9.04868e-07
3.772e-06
3.59274e-06
3.41038e-06
3.22963e-06
3.05212e-06
2.87832e-06
2.70914e-06
2.5453e-06
2.3873e-06
2.23555e-06
2.0903e-06
1.95173e-06
1.81993e-06
1.69489e-06
1.57659e-06
1.46491e-06
1.35972e-06
1.26086e-06
1.16811e-06
1.08126e-06
1.00008e-06
9.24326e-07
8.53744e-07
7.88083e-07
7.27088e-07
6.70505e-07
6.18085e-07
5.69581e-07
5.24765e-07
4.83399e-07
4.45281e-07
4.10183e-07
3.77926e-07
3.48281e-07
3.21141e-07
2.96206e-07
2.73555e-07
2.52587e-07
2.33988e-07
2.16119e-07
2.01526e-07
1.8546e-07
1.75686e-07
1.58994e-07
1.5666e-07
1.34479e-07
1.45666e-07
1.08725e-07
1.45165e-07
7.76389e-08
1.58382e-07
3.72471e-08
1.87515e-07
-1.37025e-08
2.30386e-07
-7.00029e-08
2.77012e-07
-1.17718e-07
3.09753e-07
-1.37862e-07
3.11398e-07
-1.19061e-07
2.8158e-07
-7.52641e-08
2.52767e-07
-5.59823e-08
2.9214e-07
-1.3817e-07
4.84935e-07
-4.01121e-07
9.0568e-07
3.33452e-06
3.19868e-06
3.05596e-06
2.91127e-06
2.76649e-06
2.62239e-06
2.48011e-06
2.3406e-06
2.20459e-06
2.07267e-06
1.94529e-06
1.82279e-06
1.70543e-06
1.59335e-06
1.48665e-06
1.38535e-06
1.28943e-06
1.19883e-06
1.11344e-06
1.03314e-06
9.57771e-07
8.87167e-07
8.21147e-07
7.59519e-07
7.02082e-07
6.48636e-07
5.98977e-07
5.52899e-07
5.10213e-07
4.70714e-07
4.34232e-07
4.00564e-07
3.69557e-07
3.41003e-07
3.14814e-07
2.90709e-07
2.68778e-07
2.4844e-07
2.30382e-07
2.12993e-07
1.98801e-07
1.83108e-07
1.73614e-07
1.57235e-07
1.55062e-07
1.33189e-07
1.44391e-07
1.07826e-07
1.44084e-07
7.70859e-08
1.57384e-07
3.70077e-08
1.86528e-07
-1.36874e-08
2.29404e-07
-6.98523e-08
2.76115e-07
-1.17611e-07
3.09069e-07
-1.37976e-07
3.1101e-07
-1.19484e-07
2.81461e-07
-7.59608e-08
2.52797e-07
-5.68051e-08
2.92094e-07
-1.38708e-07
4.84544e-07
-4.00995e-07
9.06127e-07
2.89388e-06
2.80148e-06
2.69846e-06
2.5899e-06
2.47797e-06
2.3637e-06
2.24847e-06
2.13345e-06
2.01958e-06
1.90765e-06
1.7983e-06
1.69203e-06
1.58925e-06
1.49027e-06
1.3953e-06
1.3045e-06
1.21797e-06
1.13574e-06
1.05782e-06
9.84153e-07
9.14683e-07
8.49311e-07
7.87924e-07
7.30394e-07
6.76576e-07
6.26319e-07
5.7947e-07
5.35862e-07
4.95345e-07
4.57749e-07
4.22934e-07
3.90725e-07
3.60994e-07
3.33553e-07
3.08335e-07
2.85077e-07
2.63882e-07
2.44187e-07
2.26683e-07
2.09785e-07
1.96003e-07
1.80693e-07
1.71486e-07
1.55429e-07
1.53419e-07
1.31864e-07
1.4308e-07
1.06901e-07
1.42971e-07
7.65181e-08
1.56355e-07
3.6764e-08
1.85508e-07
-1.36671e-08
2.28387e-07
-6.96904e-08
2.75183e-07
-1.17492e-07
3.08352e-07
-1.38082e-07
3.10594e-07
-1.199e-07
2.8131e-07
-7.66467e-08
2.52782e-07
-5.76046e-08
2.91965e-07
-1.3917e-07
4.83953e-07
-4.00662e-07
9.06168e-07
2.45111e-06
2.40204e-06
2.33867e-06
2.26626e-06
2.18721e-06
2.10283e-06
2.01473e-06
1.92429e-06
1.83267e-06
1.74084e-06
1.64963e-06
1.5597e-06
1.47162e-06
1.38584e-06
1.30272e-06
1.22252e-06
1.14547e-06
1.07171e-06
1.00133e-06
9.34388e-07
8.70891e-07
8.10818e-07
7.54128e-07
7.00753e-07
6.50606e-07
6.03588e-07
5.59592e-07
5.18493e-07
4.80182e-07
4.4452e-07
4.11402e-07
3.80676e-07
3.52245e-07
3.25938e-07
3.0171e-07
2.79316e-07
2.58871e-07
2.39833e-07
2.22895e-07
2.06498e-07
1.93135e-07
1.78217e-07
1.69303e-07
1.53575e-07
1.51732e-07
1.30503e-07
1.41732e-07
1.05952e-07
1.41826e-07
7.59362e-08
1.55295e-07
3.65167e-08
1.84455e-07
-1.3641e-08
2.27335e-07
-6.95166e-08
2.74215e-07
-1.17361e-07
3.07603e-07
-1.38179e-07
3.10147e-07
-1.20306e-07
2.81123e-07
-7.73154e-08
2.52713e-07
-5.83698e-08
2.91738e-07
-1.39542e-07
4.8314e-07
-4.00099e-07
9.05762e-07
2.00721e-06
2.00127e-06
1.9774e-06
1.94103e-06
1.89482e-06
1.84031e-06
1.77935e-06
1.71354e-06
1.64422e-06
1.57256e-06
1.49955e-06
1.42605e-06
1.35275e-06
1.28026e-06
1.20906e-06
1.13955e-06
1.07206e-06
1.00684e-06
9.44081e-07
8.83924e-07
8.26462e-07
7.71749e-07
7.1981e-07
6.70642e-07
6.24212e-07
5.80475e-07
5.39371e-07
5.00817e-07
4.64743e-07
4.31045e-07
3.99652e-07
3.70432e-07
3.43322e-07
3.18168e-07
2.94947e-07
2.73432e-07
2.53751e-07
2.35383e-07
2.19022e-07
2.03136e-07
1.90201e-07
1.75681e-07
1.67067e-07
1.51675e-07
1.50003e-07
1.29108e-07
1.40349e-07
1.04979e-07
1.4065e-07
7.53409e-08
1.54204e-07
3.62662e-08
1.83368e-07
-1.36084e-08
2.26246e-07
-6.93304e-08
2.73211e-07
-1.17217e-07
3.06822e-07
-1.38265e-07
3.09669e-07
-1.207e-07
2.80896e-07
-7.79606e-08
2.52581e-07
-5.90892e-08
2.91399e-07
-1.39806e-07
4.82083e-07
-3.99284e-07
9.04864e-07
1.56317e-06
1.60001e-06
1.6154e-06
1.61489e-06
1.60138e-06
1.57667e-06
1.54281e-06
1.5016e-06
1.45458e-06
1.40311e-06
1.34835e-06
1.2913e-06
1.23284e-06
1.17369e-06
1.11448e-06
1.05572e-06
9.97848e-07
9.41229e-07
8.86145e-07
8.3283e-07
7.81458e-07
7.32153e-07
6.85013e-07
6.40095e-07
5.97424e-07
5.57005e-07
5.18828e-07
4.8285e-07
4.49044e-07
4.17336e-07
3.87692e-07
3.60003e-07
3.34235e-07
3.10251e-07
2.88053e-07
2.67433e-07
2.48528e-07
2.30841e-07
2.15067e-07
1.997e-07
1.87201e-07
1.73088e-07
1.6478e-07
1.49731e-07
1.48233e-07
1.27681e-07
1.38932e-07
1.03984e-07
1.39443e-07
7.47327e-08
1.53082e-07
3.60133e-08
1.82248e-07
-1.35688e-08
2.25122e-07
-6.91312e-08
2.72172e-07
-1.1706e-07
3.06006e-07
-1.38338e-07
3.09157e-07
-1.21078e-07
2.80623e-07
-7.85752e-08
2.52377e-07
-5.97507e-08
2.90933e-07
-1.39945e-07
4.80758e-07
-3.98192e-07
9.0343e-07
1.11984e-06
1.199e-06
1.2533e-06
1.2884e-06
1.3074e-06
1.31233e-06
1.30547e-06
1.28879e-06
1.26404e-06
1.23274e-06
1.19622e-06
1.15566e-06
1.11205e-06
1.06628e-06
1.01909e-06
9.71114e-07
9.22914e-07
8.74944e-07
8.27583e-07
7.81157e-07
7.35918e-07
6.92065e-07
6.49763e-07
6.09136e-07
5.70258e-07
5.33191e-07
4.97974e-07
4.64602e-07
4.33089e-07
4.03397e-07
3.75526e-07
3.49395e-07
3.2499e-07
3.02194e-07
2.81033e-07
2.6132e-07
2.43205e-07
2.26208e-07
2.11031e-07
1.96194e-07
1.84138e-07
1.70439e-07
1.62443e-07
1.47744e-07
1.46423e-07
1.26222e-07
1.37481e-07
1.02966e-07
1.38205e-07
7.4112e-08
1.51929e-07
3.57582e-08
1.81096e-07
-1.35217e-08
2.23962e-07
-6.89184e-08
2.71096e-07
-1.16887e-07
3.05157e-07
-1.38398e-07
3.08611e-07
-1.21437e-07
2.80301e-07
-7.91515e-08
2.52092e-07
-6.03406e-08
2.90325e-07
-1.39941e-07
4.79145e-07
-3.968e-07
9.01415e-07
6.78367e-07
7.99285e-07
8.92043e-07
9.62394e-07
1.01363e-06