/*--------------------------------*- C++ -*----------------------------------*\
| =========                 |                                                 |
| \\      /  F ield         | OpenFOAM: The Open Source CFD Toolbox           |
|  \\    /   O peration     | Version:  2412                                  |
|   \\  /    A nd           | Website:  www.openfoam.com                      |
|    \\/     M anipulation  |                                                 |
\*---------------------------------------------------------------------------*/
FoamFile
{
    version     2.0;
    format      ascii;
    arch        "LSB;label=32;scalar=64";
    class       surfaceScalarField;
    location    "23.5";
    object      phi;
}
// * * * * * * * * * * * * * * * * * * * * * * * * * * * * * * * * * * * * * //

dimensions      [0 3 -1 0 0 0 0];

oriented        oriented;

internalField   nonuniform List<scalar> 
10424
(
0.00496564
-5.29063e-06
4.10437e-09
0.0049707
-5.06084e-06
3.39334e-09
0.00497553
-4.83915e-06
2.73531e-09
0.00498016
-4.62387e-06
2.1214e-09
0.00498457
-4.41421e-06
1.55626e-09
0.00498878
-4.20997e-06
1.0384e-09
0.00499279
-4.01123e-06
5.66638e-10
0.00499661
-3.81822e-06
1.38413e-10
0.00500024
-3.63114e-06
-2.504e-10
0.00500369
-3.45016e-06
-6.07567e-10
0.00500696
-3.27537e-06
-9.42466e-10
0.00501007
-3.10678e-06
-1.26427e-09
0.00501302
-2.94435e-06
-1.58434e-09
0.00501581
-2.788e-06
-1.91144e-09
0.00501845
-2.63761e-06
-2.25039e-09
0.00502094
-2.49306e-06
-2.6053e-09
0.0050233
-2.3542e-06
-2.97121e-09
0.00502553
-2.22089e-06
-3.33666e-09
0.00502762
-2.09299e-06
-3.69029e-09
0.0050296
-1.97038e-06
-4.01459e-09
0.00503145
-1.85289e-06
-4.3007e-09
0.0050332
-1.7404e-06
-4.54982e-09
0.00503484
-1.63276e-06
-4.76654e-09
0.00503637
-1.52981e-06
-4.96292e-09
0.00503781
-1.43144e-06
-5.14003e-09
0.00503915
-1.33753e-06
-5.28499e-09
0.0050404
-1.24797e-06
-5.37725e-09
0.00504157
-1.16269e-06
-5.3983e-09
0.00504266
-1.08155e-06
-5.35458e-09
0.00504367
-1.00441e-06
-5.28586e-09
0.0050446
-9.31115e-07
-5.25389e-09
0.00504547
-8.61505e-07
-5.3039e-09
0.00504627
-7.95485e-07
-5.43626e-09
0.00504701
-7.3301e-07
-5.5963e-09
0.00504769
-6.74069e-07
-5.69317e-09
0.00504832
-6.18648e-07
-5.65859e-09
0.00504889
-5.6667e-07
-5.4694e-09
0.00504941
-5.18031e-07
-5.16178e-09
0.00504989
-4.72558e-07
-4.80777e-09
0.00505032
-4.30114e-07
-4.48802e-09
0.00505072
-3.90511e-07
-4.25948e-09
0.00505108
-3.53748e-07
-4.13615e-09
0.0050514
-3.19637e-07
-4.07583e-09
0.00505169
-2.88438e-07
-4.01277e-09
0.00505195
-2.59704e-07
-3.90287e-09
0.00505219
-2.34072e-07
-3.76404e-09
0.00505241
-2.10336e-07
-3.6554e-09
0.0050526
-1.9018e-07
-3.61983e-09
0.00505278
-1.70907e-07
-3.67113e-09
0.00505294
-1.56585e-07
-3.73126e-09
0.00505308
-1.41421e-07
-3.79467e-09
0.00505322
-1.33897e-07
-3.76657e-09
0.00505334
-1.22482e-07
-3.62218e-09
0.00505347
-1.2323e-07
-3.33305e-09
0.00505359
-1.15003e-07
-3.05417e-09
0.00505372
-1.25565e-07
-2.70633e-09
0.00505384
-1.20615e-07
-2.36594e-09
0.00505399
-1.42868e-07
-1.88035e-09
0.00505413
-1.43054e-07
-1.55368e-09
0.00505431
-1.77751e-07
-1.02508e-09
0.0050545
-1.88419e-07
-5.19752e-10
0.00505473
-2.34677e-07
-1.57731e-10
0.005055
-2.63093e-07
2.78861e-11
0.00505532
-3.24549e-07
3.70843e-10
0.00505569
-3.70907e-07
7.10489e-10
0.00505615
-4.59476e-07
2.78581e-10
0.0050567
-5.52289e-07
1.12079e-09
0.00505726
-5.65205e-07
1.00323e-09
0.00505815
-8.89602e-07
2.32689e-09
0.00505895
-7.9887e-07
2.84028e-09
-9.8207e-07
3.58316e-09
0.00496569
-1.0575e-05
0.00497075
-1.01158e-05
0.00497558
-9.67278e-06
0.0049802
-9.24268e-06
0.00498461
-8.82387e-06
0.00498882
-8.41592e-06
0.00499282
-8.019e-06
0.00499664
-7.63352e-06
0.00500027
-7.2599e-06
0.00500372
-6.89846e-06
0.00500699
-6.54937e-06
0.0050101
-6.21267e-06
0.00501304
-5.88829e-06
0.00501583
-5.57607e-06
0.00501847
-5.27578e-06
0.00502096
-4.98716e-06
0.00502332
-4.70993e-06
0.00502554
-4.44379e-06
0.00502763
-4.18846e-06
0.00502961
-3.94365e-06
0.00503146
-3.70906e-06
0.00503321
-3.48441e-06
0.00503484
-3.26942e-06
0.00503638
-3.0638e-06
0.00503781
-2.86729e-06
0.00503916
-2.67967e-06
0.00504041
-2.50072e-06
0.00504158
-2.33022e-06
0.00504266
-2.16795e-06
0.00504367
-2.01365e-06
0.00504461
-1.86706e-06
0.00504548
-1.72793e-06
0.00504628
-1.59606e-06
0.00504701
-1.4713e-06
0.00504769
-1.35355e-06
0.00504832
-1.24269e-06
0.00504889
-1.13858e-06
0.00504941
-1.04102e-06
0.00504989
-9.49731e-07
0.00505032
-8.64547e-07
0.00505072
-7.85127e-07
0.00505108
-7.11493e-07
0.0050514
-6.43226e-07
0.00505169
-5.80787e-07
0.00505196
-5.23209e-07
0.00505219
-4.71829e-07
0.00505241
-4.24249e-07
0.0050526
-3.83912e-07
0.00505278
-3.45423e-07
0.00505294
-3.16854e-07
0.00505308
-2.86588e-07
0.00505322
-2.71527e-07
0.00505334
-2.48552e-07
0.00505347
-2.49754e-07
0.00505359
-2.33025e-07
0.00505372
-2.53808e-07
0.00505384
-2.43573e-07
0.00505399
-2.87594e-07
0.00505413
-2.87627e-07
0.00505431
-3.56508e-07
0.0050545
-3.77329e-07
0.00505473
-4.69449e-07
0.005055
-5.26234e-07
0.00505532
-6.48388e-07
0.00505569
-7.41717e-07
0.00505615
-9.17639e-07
0.0050567
-1.10434e-06
0.00505726
-1.12987e-06
0.00505815
-1.77468e-06
0.00505895
-1.59684e-06
-1.96205e-06
0.0049658
-1.58549e-05
0.00497085
-1.51655e-05
0.00497568
-1.45008e-05
0.00498029
-1.38556e-05
0.00498469
-1.32275e-05
0.00498889
-1.26159e-05
0.0049929
-1.2021e-05
0.00499671
-1.14433e-05
0.00500033
-1.08834e-05
0.00500377
-1.03418e-05
0.00500704
-9.81875e-06
0.00501014
-9.31428e-06
0.00501308
-8.82826e-06
0.00501587
-8.36047e-06
0.0050185
-7.91056e-06
0.00502099
-7.47814e-06
0.00502335
-7.06278e-06
0.00502557
-6.66405e-06
0.00502766
-6.2815e-06
0.00502963
-5.91469e-06
0.00503148
-5.56318e-06
0.00503323
-5.22655e-06
0.00503486
-4.90436e-06
0.00503639
-4.5962e-06
0.00503783
-4.3017e-06
0.00503917
-4.02049e-06
0.00504042
-3.75225e-06
0.00504159
-3.49664e-06
0.00504267
-3.25333e-06
0.00504368
-3.02196e-06
0.00504462
-2.80215e-06
0.00504548
-2.59358e-06
0.00504628
-2.39593e-06
0.00504702
-2.20895e-06
0.0050477
-2.03245e-06
0.00504832
-1.86622e-06
0.00504889
-1.71001e-06
0.00504942
-1.56357e-06
0.00504989
-1.42652e-06
0.00505033
-1.29863e-06
0.00505072
-1.17943e-06
0.00505108
-1.06896e-06
0.0050514
-9.6657e-07
0.00505169
-8.72911e-07
0.00505196
-7.86526e-07
0.0050522
-7.0941e-07
0.00505241
-6.38012e-07
0.0050526
-5.77512e-07
0.00505278
-5.19824e-07
0.00505294
-4.77019e-07
0.00505308
-4.31666e-07
0.00505322
-4.09077e-07
0.00505335
-3.74543e-07
0.00505347
-3.76227e-07
0.00505359
-3.50981e-07
0.00505372
-3.8201e-07
0.00505384
-3.66456e-07
0.00505399
-4.32289e-07
0.00505413
-4.32126e-07
0.00505431
-5.35228e-07
0.0050545
-5.66174e-07
0.00505473
-7.04103e-07
0.005055
-7.89526e-07
0.00505532
-9.71554e-07
0.00505569
-1.11373e-06
0.00505615
-1.37376e-06
0.0050567
-1.65812e-06
0.00505727
-1.69545e-06
0.00505815
-2.65545e-06
0.00505895
-2.39866e-06
-2.94493e-06
0.00496596
-2.11279e-05
0.004971
-2.02075e-05
0.00497582
-1.93203e-05
0.00498042
-1.84596e-05
0.00498482
-1.76221e-05
0.00498901
-1.68069e-05
0.004993
-1.60142e-05
0.00499681
-1.52447e-05
0.00500042
-1.4499e-05
0.00500386
-1.37778e-05
0.00500712
-1.30812e-05
0.00501021
-1.24095e-05
0.00501315
-1.17623e-05
0.00501593
-1.11394e-05
0.00501856
-1.05403e-05
0.00502104
-9.96444e-06
0.00502339
-9.41133e-06
0.00502561
-8.88035e-06
0.0050277
-8.3709e-06
0.00502967
-7.88238e-06
0.00503152
-7.41423e-06
0.00503326
-6.96586e-06
0.00503489
-6.5367e-06
0.00503642
-6.12623e-06
0.00503785
-5.73393e-06
0.00503919
-5.35932e-06
0.00504044
-5.00195e-06
0.0050416
-4.66139e-06
0.00504269
-4.33718e-06
0.00504369
-4.02887e-06
0.00504463
-3.73597e-06
0.00504549
-3.45807e-06
0.00504629
-3.19474e-06
0.00504703
-2.94564e-06
0.00504771
-2.71048e-06
0.00504833
-2.48896e-06
0.0050489
-2.28073e-06
0.00504942
-2.08548e-06
0.0050499
-1.90273e-06
0.00505033
-1.73219e-06
0.00505073
-1.57327e-06
0.00505108
-1.42602e-06
0.00505141
-1.28954e-06
0.0050517
-1.1647e-06
0.00505196
-1.04955e-06
0.0050522
-9.4673e-07
0.00505241
-8.51546e-07
0.0050526
-7.70912e-07
0.00505278
-6.94046e-07
0.00505294
-6.3703e-07
0.00505308
-5.76602e-07
0.00505322
-5.46507e-07
0.00505335
-5.00419e-07
0.00505347
-5.02606e-07
0.00505359
-4.68834e-07
0.00505372
-5.1014e-07
0.00505384
-4.89238e-07
0.00505399
-5.76928e-07
0.00505413
-5.76513e-07
0.00505431
-7.13888e-07
0.0050545
-7.54918e-07
0.00505473
-9.38575e-07
0.005055
-1.05303e-06
0.00505532
-1.29373e-06
0.00505569
-1.48748e-06
0.00505615
-1.82689e-06
0.0050567
-2.21443e-06
0.00505727
-2.26235e-06
0.00505814
-3.52993e-06
0.00505895
-3.20608e-06
-3.93208e-06
0.00496617
-2.63912e-05
0.0049712
-2.52385e-05
0.00497601
-2.41281e-05
0.0049806
-2.30514e-05
0.00498499
-2.20045e-05
0.00498917
-2.09859e-05
0.00499315
-1.99958e-05
0.00499694
-1.9035e-05
0.00500054
-1.81041e-05
0.00500397
-1.72038e-05
0.00500722
-1.63345e-05
0.00501031
-1.54961e-05
0.00501323
-1.46883e-05
0.00501601
-1.39109e-05
0.00501863
-1.31632e-05
0.00502111
-1.24445e-05
0.00502345
-1.17541e-05
0.00502566
-1.10914e-05
0.00502775
-1.04554e-05
0.00502971
-9.84561e-06
0.00503156
-9.26118e-06
0.00503329
-8.7014e-06
0.00503492
-8.1656e-06
0.00503645
-7.65309e-06
0.00503788
-7.16325e-06
0.00503921
-6.69548e-06
0.00504046
-6.24922e-06
0.00504162
-5.8239e-06
0.00504271
-5.41899e-06
0.00504371
-5.03391e-06
0.00504464
-4.66809e-06
0.00504551
-4.321e-06
0.0050463
-3.99213e-06
0.00504704
-3.68104e-06
0.00504772
-3.38734e-06
0.00504834
-3.11063e-06
0.00504891
-2.8505e-06
0.00504943
-2.60653e-06
0.0050499
-2.37816e-06
0.00505034
-2.16506e-06
0.00505073
-1.96648e-06
0.00505109
-1.7825e-06
0.00505141
-1.61201e-06
0.0050517
-1.45605e-06
0.00505196
-1.31217e-06
0.0050522
-1.1837e-06
0.00505241
-1.06477e-06
0.00505261
-9.64038e-07
0.00505278
-8.68025e-07
0.00505294
-7.96829e-07
0.00505308
-7.21347e-07
0.00505322
-6.83773e-07
0.00505335
-6.26136e-07
0.00505347
-6.28854e-07
0.00505359
-5.86546e-07
0.00505372
-6.38166e-07
0.00505384
-6.11883e-07
0.00505399
-7.21483e-07
0.00505413
-7.20746e-07
0.00505431
-8.9246e-07
0.0050545
-9.43523e-07
0.00505473
-1.1728e-06
0.005055
-1.31678e-06
0.00505532
-1.61463e-06
0.00505569
-1.86345e-06
0.00505614
-2.27617e-06
0.0050567
-2.77394e-06
0.00505727
-2.83092e-06
0.00505814
-4.39635e-06
0.00505895
-4.0207e-06
-4.92473e-06
0.00496644
-3.16416e-05
0.00497146
-3.02555e-05
0.00497625
-2.8921e-05
0.00498083
-2.7628e-05
0.0049852
-2.63715e-05
0.00498936
-2.51498e-05
0.00499333
-2.39629e-05
0.0049971
-2.28113e-05
0.0050007
-2.1696e-05
0.00500411
-2.06175e-05
0.00500735
-1.95762e-05
0.00501043
-1.8572e-05
0.00501334
-1.76045e-05
0.00501611
-1.66733e-05
0.00501872
-1.57777e-05
0.00502119
-1.49168e-05
0.00502353
-1.40898e-05
0.00502573
-1.32958e-05
0.00502781
-1.25339e-05
0.00502977
-1.18033e-05
0.00503161
-1.1103e-05
0.00503334
-1.04322e-05
0.00503497
-9.79016e-06
0.00503649
-9.17598e-06
0.00503791
-8.58894e-06
0.00503925
-8.02831e-06
0.00504049
-7.49343e-06
0.00504165
-6.98362e-06
0.00504273
-6.49824e-06
0.00504373
-6.03661e-06
0.00504466
-5.59807e-06
0.00504552
-5.18198e-06
0.00504632
-4.78775e-06
0.00504705
-4.41483e-06
0.00504773
-4.06273e-06
0.00504835
-3.73098e-06
0.00504892
-3.41906e-06
0.00504944
-3.12649e-06
0.00504991
-2.85261e-06
0.00505034
-2.59703e-06
0.00505074
-2.3589e-06
0.00505109
-2.13828e-06
0.00505141
-1.93384e-06
0.0050517
-1.74683e-06
0.00505197
-1.57429e-06
0.0050522
-1.42022e-06
0.00505242
-1.27759e-06
0.00505261
-1.15682e-06
0.00505278
-1.04169e-06
0.00505294
-9.56356e-07
0.00505309
-8.65844e-07
0.00505322
-8.20826e-07
0.00505335
-7.51648e-07
0.00505348
-7.54932e-07
0.00505359
-7.04075e-07
0.00505372
-7.66055e-07
0.00505384
-7.34347e-07
0.00505399
-8.65926e-07
0.00505413
-8.64777e-07
0.00505431
-1.07091e-06
0.0050545
-1.13194e-06
0.00505473
-1.40672e-06
0.005055
-1.5808e-06
0.00505532
-1.93399e-06
0.00505569
-2.24203e-06
0.00505614
-2.72086e-06
0.0050567
-3.33725e-06
0.00505727
-3.40145e-06
0.00505813
-5.25321e-06
0.00505895
-4.84391e-06
-5.92397e-06
0.00496677
-3.68755e-05
0.00497177
-3.52549e-05
0.00497654
-3.36955e-05
0.0049811
-3.21858e-05
0.00498545
-3.07199e-05
0.00498959
-2.92955e-05
0.00499354
-2.79123e-05
0.0049973
-2.65709e-05
0.00500088
-2.52721e-05
0.00500428
-2.40164e-05
0.00500751
-2.28041e-05
0.00501057
-2.16351e-05
0.00501347
-2.05088e-05
0.00501622
-1.94247e-05
0.00501883
-1.8382e-05
0.00502129
-1.73797e-05
0.00502362
-1.64168e-05
0.00502581
-1.54923e-05
0.00502789
-1.46051e-05
0.00502984
-1.37542e-05
0.00503167
-1.29387e-05
0.0050334
-1.21574e-05
0.00503502
-1.14095e-05
0.00503654
-1.06941e-05
0.00503796
-1.00103e-05
0.00503929
-9.35714e-06
0.00504053
-8.73397e-06
0.00504168
-8.13998e-06
0.00504276
-7.57441e-06
0.00504376
-7.0365e-06
0.00504469
-6.52548e-06
0.00504554
-6.04062e-06
0.00504634
-5.58123e-06
0.00504707
-5.14667e-06
0.00504774
-4.73635e-06
0.00504836
-4.34972e-06
0.00504893
-3.98616e-06
0.00504945
-3.64513e-06
0.00504992
-3.32587e-06
0.00505035
-3.02794e-06
0.00505074
-2.75035e-06
0.0050511
-2.49319e-06
0.00505142
-2.2549e-06
0.00505171
-2.03691e-06
0.00505197
-1.8358e-06
0.00505221
-1.65618e-06
0.00505242
-1.48996e-06
0.00505261
-1.34913e-06
0.00505278
-1.21502e-06
0.00505294
-1.11548e-06
0.00505309
-1.01013e-06
0.00505323
-9.57491e-07
0.00505335
-8.77059e-07
0.00505348
-8.80602e-07
0.00505359
-8.21605e-07
0.00505372
-8.935e-07
0.00505384
-8.56887e-07
0.00505399
-1.00989e-06
0.00505413
-1.00889e-06
0.00505431
-1.24887e-06
0.0050545
-1.32043e-06
0.00505473
-1.63997e-06
0.005055
-1.84536e-06
0.00505531
-2.25136e-06
0.0050557
-2.6237e-06
0.00505613
-3.16015e-06
0.0050567
-3.905e-06
0.00505727
-3.97386e-06
0.00505812
-6.09975e-06
0.00505895
-5.67622e-06
-6.93149e-06
0.00520529
-4.23383e-05
0.0052105
-4.04709e-05
0.00521548
-3.86753e-05
0.00522023
-3.69383e-05
0.00522477
-3.52532e-05
0.00522909
-3.3617e-05
0.00523321
-3.20291e-05
0.00523712
-3.04898e-05
0.00524085
-2.89999e-05
0.0052444
-2.75598e-05
0.00524776
-2.61696e-05
0.00525096
-2.4829e-05
0.00525398
-2.35375e-05
0.00525685
-2.22944e-05
0.00525957
-2.10986e-05
0.00526214
-1.99491e-05
0.00526457
-1.88447e-05
0.00526686
-1.77842e-05
0.00526902
-1.67665e-05
0.00527106
-1.57903e-05
0.00527297
-1.48546e-05
0.00527477
-1.39582e-05
0.00527646
-1.31001e-05
0.00527805
-1.22791e-05
0.00527953
-1.14942e-05
0.00528092
-1.07446e-05
0.00528222
-1.00294e-05
0.00528342
-9.34755e-06
0.00528455
-8.69831e-06
0.00528559
-8.08079e-06
0.00528656
-7.49411e-06
0.00528746
-6.93747e-06
0.00528829
-6.41005e-06
0.00528905
-5.91114e-06
0.00528975
-5.44004e-06
0.0052904
-4.9961e-06
0.00529099
-4.57862e-06
0.00529153
-4.18697e-06
0.00529203
-3.82032e-06
0.00529248
-3.47814e-06
0.00529289
-3.15935e-06
0.00529326
-2.86399e-06
0.00529359
-2.59039e-06
0.0052939
-2.33997e-06
0.00529417
-2.10914e-06
0.00529442
-1.90265e-06
0.00529464
-1.71205e-06
0.00529484
-1.54987e-06
0.00529502
-1.39651e-06
0.00529519
-1.28132e-06
0.00529534
-1.16156e-06
0.00529548
-1.09953e-06
0.00529561
-1.0092e-06
0.00529574
-1.0107e-06
0.00529587
-9.46043e-07
0.005296
-1.02499e-06
0.00529613
-9.87056e-07
0.00529628
-1.15833e-06
0.00529643
-1.1619e-06
0.00529662
-1.43283e-06
0.00529681
-1.51982e-06
0.00529706
-1.88192e-06
0.00529734
-2.12461e-06
0.00529766
-2.58032e-06
0.00529807
-3.0283e-06
0.00529852
-3.61308e-06
0.00529912
-4.50633e-06
0.00529972
-4.57417e-06
0.0053006
-6.97727e-06
0.00530148
-6.55565e-06
-8.00131e-06
0.00520577
-4.77734e-05
0.00521096
-4.56585e-05
0.00521591
-4.36263e-05
0.00522063
-4.16622e-05
0.00522514
-3.97583e-05
0.00522943
-3.79112e-05
0.00523352
-3.61198e-05
0.00523742
-3.43841e-05
0.00524112
-3.27046e-05
0.00524464
-3.10815e-05
0.00524799
-2.95148e-05
0.00525116
-2.80042e-05
0.00525417
-2.65489e-05
0.00525703
-2.51479e-05
0.00525973
-2.38003e-05
0.00526229
-2.25047e-05
0.0052647
-2.12599e-05
0.00526698
-2.00645e-05
0.00526913
-1.89172e-05
0.00527116
-1.78166e-05
0.00527306
-1.67616e-05
0.00527486
-1.57507e-05
0.00527654
-1.47829e-05
0.00527812
-1.3857e-05
0.0052796
-1.29718e-05
0.00528098
-1.21262e-05
0.00528227
-1.13193e-05
0.00528347
-1.05501e-05
0.00528459
-9.81765e-06
0.00528563
-9.1209e-06
0.00528659
-8.45893e-06
0.00528749
-7.83082e-06
0.00528831
-7.23569e-06
0.00528907
-6.6727e-06
0.00528978
-6.14108e-06
0.00529042
-5.64007e-06
0.00529101
-5.16889e-06
0.00529155
-4.72684e-06
0.00529204
-4.31298e-06
0.00529249
-3.92672e-06
0.0052929
-3.5669e-06
0.00529327
-3.23349e-06
0.0052936
-2.92472e-06
0.0052939
-2.64197e-06
0.00529418
-2.38154e-06
0.00529442
-2.14825e-06
0.00529464
-1.93341e-06
0.00529484
-1.74991e-06
0.00529502
-1.57745e-06
0.00529519
-1.44656e-06
0.00529534
-1.31261e-06
0.00529548
-1.241e-06
0.00529561
-1.14111e-06
0.00529574
-1.14023e-06
0.00529587
-1.07036e-06
0.005296
-1.15587e-06
0.00529613
-1.11719e-06
0.00529628
-1.30614e-06
0.00529643
-1.31486e-06
0.00529661
-1.61614e-06
0.00529681
-1.71914e-06
0.00529705
-2.12298e-06
0.00529733
-2.40433e-06
0.00529766
-2.90672e-06
0.00529807
-3.43656e-06
0.00529851
-4.05918e-06
0.00529912
-5.11302e-06
0.00529972
-5.17672e-06
0.00530059
-7.84189e-06
0.00530148
-7.44661e-06
-9.0817e-06
0.00520632
-5.31749e-05
0.00521147
-5.08125e-05
0.00521639
-4.85438e-05
0.00522108
-4.6353e-05
0.00522555
-4.42313e-05
0.00522982
-4.21745e-05
0.00523388
-4.0181e-05
0.00523775
-3.82505e-05
0.00524142
-3.6383e-05
0.00524492
-3.45787e-05
0.00524824
-3.28373e-05
0.0052514
-3.11582e-05
0.00525439
-2.95406e-05
0.00525722
-2.79834e-05
0.00525991
-2.64853e-05
0.00526245
-2.5045e-05
0.00526485
-2.3661e-05
0.00526712
-2.23317e-05
0.00526926
-2.10558e-05
0.00527127
-1.98318e-05
0.00527317
-1.86583e-05
0.00527495
-1.75338e-05
0.00527663
-1.64572e-05
0.0052782
-1.5427e-05
0.00527967
-1.4442e-05
0.00528104
-1.35011e-05
0.00528233
-1.26032e-05
0.00528352
-1.17471e-05
0.00528464
-1.09318e-05
0.00528567
-1.01563e-05
0.00528663
-9.41941e-06
0.00528752
-8.72021e-06
0.00528834
-8.0577e-06
0.0052891
-7.43096e-06
0.0052898
-6.8391e-06
0.00529044
-6.2813e-06
0.00529103
-5.75668e-06
0.00529157
-5.26445e-06
0.00529206
-4.8036e-06
0.0052925
-4.37345e-06
0.00529291
-3.97279e-06
0.00529328
-3.60147e-06
0.00529361
-3.25769e-06
0.00529391
-2.94275e-06
0.00529418
-2.65286e-06
0.00529443
-2.39289e-06
0.00529465
-2.1539e-06
0.00529485
-1.94917e-06
0.00529503
-1.75769e-06
0.00529519
-1.61118e-06
0.00529534
-1.46308e-06
0.00529548
-1.38197e-06
0.00529561
-1.27252e-06
0.00529574
-1.26934e-06
0.00529587
-1.19423e-06
0.005296
-1.2864e-06
0.00529613
-1.24686e-06
0.00529628
-1.45362e-06
0.00529643
-1.46731e-06
0.00529661
-1.79911e-06
0.00529681
-1.91792e-06
0.00529705
-2.36342e-06
0.00529733
-2.68413e-06
0.00529765
-3.23067e-06
0.00529807
-3.84819e-06
0.0052985
-4.49845e-06
0.00529912
-5.72478e-06
0.00529972
-5.78179e-06
0.00530057
-8.69292e-06
0.00530148
-8.35008e-06
-1.01722e-05
0.00520694
-5.85369e-05
0.00521205
-5.59273e-05
0.00521693
-5.34228e-05
0.00522158
-5.10063e-05
0.00522602
-4.86681e-05
0.00523025
-4.64031e-05
0.00523428
-4.42093e-05
0.00523811
-4.20857e-05
0.00524176
-4.00323e-05
0.00524523
-3.80487e-05
0.00524853
-3.61344e-05
0.00525166
-3.42887e-05
0.00525463
-3.25106e-05
0.00525744
-3.07988e-05
0.00526011
-2.91518e-05
0.00526263
-2.75681e-05
0.00526502
-2.60462e-05
0.00526727
-2.45844e-05
0.0052694
-2.3181e-05
0.0052714
-2.18346e-05
0.00527328
-2.05436e-05
0.00527506
-1.93065e-05
0.00527672
-1.81218e-05
0.00527828
-1.69881e-05
0.00527975
-1.59041e-05
0.00528111
-1.48685e-05
0.00528239
-1.38801e-05
0.00528358
-1.29377e-05
0.00528469
-1.20402e-05
0.00528572
-1.11863e-05
0.00528667
-1.0375e-05
0.00528756
-9.60515e-06
0.00528838
-8.87565e-06
0.00528913
-8.18551e-06
0.00528983
-7.53375e-06
0.00529046
-6.91946e-06
0.00529105
-6.34167e-06
0.00529158
-5.79951e-06
0.00529207
-5.29191e-06
0.00529252
-4.8181e-06
0.00529292
-4.37678e-06
0.00529329
-3.96776e-06
0.00529362
-3.58912e-06
0.00529392
-3.24215e-06
0.00529419
-2.92294e-06
0.00529443
-2.63642e-06
0.00529465
-2.37339e-06
0.00529485
-2.14755e-06
0.00529503
-1.93712e-06
0.00529519
-1.77508e-06
0.00529534
-1.61288e-06
0.00529548
-1.52235e-06
0.00529561
-1.40335e-06
0.00529574
-1.39795e-06
0.00529587
-1.31757e-06
0.005296
-1.4165e-06
0.00529613
-1.376e-06
0.00529627
-1.60071e-06
0.00529642
-1.61916e-06
0.00529661
-1.98167e-06
0.00529681
-2.11604e-06
0.00529705
-2.60315e-06
0.00529732
-2.96384e-06
0.00529765
-3.55211e-06
0.00529806
-4.26299e-06
0.00529849
-4.93086e-06
0.00529911
-6.34139e-06
0.00529972
-6.3892e-06
0.00530056
-9.53055e-06
0.00530147
-9.266e-06
-1.1273e-05
0.00520762
-6.38526e-05
0.00521269
-6.09971e-05
0.00521752
-5.82581e-05
0.00522214
-5.56174e-05
0.00522653
-5.30643e-05
0.00523072
-5.05932e-05
0.00523471
-4.82011e-05
0.00523851
-4.58867e-05
0.00524213
-4.36495e-05
0.00524557
-4.14887e-05
0.00524884
-3.94037e-05
0.00525195
-3.73935e-05
0.00525489
-3.54567e-05
0.00525769
-3.3592e-05
0.00526033
-3.17978e-05
0.00526284
-3.00724e-05
0.0052652
-2.8414e-05
0.00526744
-2.6821e-05
0.00526955
-2.52915e-05
0.00527154
-2.38239e-05
0.00527341
-2.24164e-05
0.00527517
-2.10676e-05
0.00527683
-1.97757e-05
0.00527838
-1.85394e-05
0.00527983
-1.73572e-05
0.00528119
-1.62277e-05
0.00528246
-1.51495e-05
0.00528364
-1.41214e-05
0.00528475
-1.31422e-05
0.00528577
-1.22105e-05
0.00528672
-1.13253e-05
0.0052876
-1.04852e-05
0.00528841
-9.6891e-06
0.00528916
-8.93594e-06
0.00528986
-8.22464e-06
0.00529049
-7.55419e-06
0.00529107
-6.92354e-06
0.0052916
-6.33175e-06
0.00529209
-5.77765e-06
0.00529253
-5.26042e-06
0.00529293
-4.77866e-06
0.0052933
-4.33214e-06
0.00529363
-3.91883e-06
0.00529393
-3.54001e-06
0.0052942
-3.19162e-06
0.00529444
-2.87869e-06
0.00529466
-2.59176e-06
0.00529485
-2.34491e-06
0.00529503
-2.11564e-06
0.00529519
-1.93815e-06
0.00529534
-1.76192e-06
0.00529548
-1.66205e-06
0.00529561
-1.53352e-06
0.00529574
-1.52598e-06
0.00529586
-1.44029e-06
0.00529599
-1.54609e-06
0.00529612
-1.50452e-06
0.00529627
-1.74734e-06
0.00529642
-1.77029e-06
0.0052966
-2.16374e-06
0.0052968
-2.31336e-06
0.00529704
-2.8421e-06
0.00529732
-3.24329e-06
0.00529764
-3.87101e-06
0.00529805
-4.68063e-06
0.00529848
-5.35654e-06
0.0052991
-6.96249e-06
0.00529971
-6.9987e-06
0.00530054
-1.03553e-05
0.00530146
-1.0194e-05
-1.2384e-05
0.00520837
-6.91151e-05
0.00521339
-6.60158e-05
0.00521818
-6.30443e-05
0.00522274
-6.01815e-05
0.00522709
-5.74159e-05
0.00523124
-5.47409e-05
0.00523519
-5.2153e-05
0.00523895
-4.96503e-05
0.00524254
-4.72317e-05
0.00524594
-4.48962e-05
0.00524918
-4.26428e-05
0.00525226
-4.04701e-05
0.00525518
-3.83768e-05
0.00525795
-3.63613e-05
0.00526057
-3.44217e-05
0.00526306
-3.25562e-05
0.00526541
-3.0763e-05
0.00526763
-2.90402e-05
0.00526972
-2.73859e-05
0.00527169
-2.57982e-05
0.00527355
-2.42756e-05
0.0052753
-2.28161e-05
0.00527694
-2.14181e-05
0.00527848
-2.00801e-05
0.00527993
-1.88005e-05
0.00528128
-1.75778e-05
0.00528254
-1.64105e-05
0.00528372
-1.52975e-05
0.00528481
-1.42372e-05
0.00528583
-1.32283e-05
0.00528677
-1.22696e-05
0.00528765
-1.13598e-05
0.00528846
-1.04976e-05
0.0052892
-9.68184e-06
0.00528989
-8.91139e-06
0.00529052
-8.18514e-06
0.0052911
-7.50198e-06
0.00529163
-6.86086e-06
0.00529211
-6.26055e-06
0.00529255
-5.70016e-06
0.00529295
-5.17821e-06
0.00529331
-4.6944e-06
0.00529364
-4.24663e-06
0.00529393
-3.83613e-06
0.0052942
-3.45874e-06
0.00529444
-3.11957e-06
0.00529466
-2.80886e-06
0.00529486
-2.54114e-06
0.00529503
-2.29311e-06
0.0052952
-2.1003e-06
0.00529534
-1.91009e-06
0.00529548
-1.80098e-06
0.00529561
-1.66294e-06
0.00529574
-1.65336e-06
0.00529586
-1.56231e-06
0.00529599
-1.67509e-06
0.00529612
-1.63231e-06
0.00529626
-1.89341e-06
0.00529641
-1.9206e-06
0.0052966
-2.34525e-06
0.00529679
-2.50976e-06
0.00529703
-3.0802e-06
0.00529731
-3.52225e-06
0.00529763
-4.18738e-06
0.00529805
-5.10065e-06
0.00529847
-5.77573e-06
0.00529909
-7.58754e-06
0.0052997
-7.60994e-06
0.00530051
-1.1168e-05
0.00530145
-1.11334e-05
-1.35053e-05
0.00520919
-7.43174e-05
0.00521415
-7.09773e-05
0.00521888
-6.77761e-05
0.0052234
-6.46939e-05
0.0052277
-6.17185e-05
0.0052318
-5.88425e-05
0.00523571
-5.60615e-05
0.00523943
-5.33732e-05
0.00524298
-5.0776e-05
0.00524635
-4.82684e-05
0.00524955
-4.58491e-05
0.0052526
-4.35165e-05
0.00525549
-4.12689e-05
0.00525824
-3.91045e-05
0.00526084
-3.70215e-05
0.0052633
-3.50178e-05
0.00526563
-3.30914e-05
0.00526783
-3.12404e-05
0.0052699
-2.94628e-05
0.00527186
-2.77566e-05
0.00527371
-2.61199e-05
0.00527544
-2.45509e-05
0.00527707
-2.30479e-05
0.0052786
-2.16092e-05
0.00528003
-2.02331e-05
0.00528137
-1.8918e-05
0.00528262
-1.76626e-05
0.00528379
-1.64652e-05
0.00528488
-1.53245e-05
0.00528589
-1.42391e-05
0.00528683
-1.32075e-05
0.0052877
-1.22285e-05
0.0052885
-1.13007e-05
0.00528924
-1.04228e-05
0.00528992
-9.59363e-06
0.00529055
-8.81198e-06
0.00529112
-8.07666e-06
0.00529165
-7.38654e-06
0.00529213
-6.74034e-06
0.00529257
-6.13707e-06
0.00529296
-5.57519e-06
0.00529332
-5.05434e-06
0.00529365
-4.57232e-06
0.00529394
-4.13036e-06
0.00529421
-3.72414e-06
0.00529445
-3.35889e-06
0.00529466
-3.02455e-06
0.00529486
-2.7361e-06
0.00529504
-2.46943e-06
0.0052952
-2.2614e-06
0.00529534
-2.05728e-06
0.00529548
-1.93903e-06
0.00529561
-1.7915e-06
0.00529574
-1.77997e-06
0.00529586
-1.68352e-06
0.00529599
-1.80342e-06
0.00529611
-1.75928e-06
0.00529626
-2.03884e-06
0.00529641
-2.06999e-06
0.00529659
-2.52609e-06
0.00529678
-2.70508e-06
0.00529702
-3.31737e-06
0.0052973
-3.80049e-06
0.00529761
-4.50127e-06
0.00529804
-5.52252e-06
0.00529845
-6.18879e-06
0.00529908
-8.21591e-06
0.00529969
-8.22251e-06
0.00530049
-1.19698e-05
0.00530144
-1.20834e-05
-1.46364e-05
0.00521008
-7.94522e-05
0.00521497
-7.58752e-05
0.00521965
-7.24479e-05
0.0052241
-6.91499e-05
0.00522835
-6.5968e-05
0.0052324
-6.28941e-05
0.00523626
-5.99233e-05
0.00523994
-5.70526e-05
0.00524345
-5.42797e-05
0.00524678
-5.16028e-05
0.00524995
-4.90203e-05
0.00525297
-4.65302e-05
0.00525583
-4.41308e-05
0.00525854
-4.18199e-05
0.00526112
-3.95955e-05
0.00526356
-3.74556e-05
0.00526586
-3.53979e-05
0.00526804
-3.34204e-05
0.0052701
-3.1521e-05
0.00527204
-2.96976e-05
0.00527387
-2.79483e-05
0.00527559
-2.62711e-05
0.00527721
-2.46642e-05
0.00527872
-2.31258e-05
0.00528014
-2.16542e-05
0.00528147
-2.02477e-05
0.00528272
-1.89048e-05
0.00528387
-1.7624e-05
0.00528495
-1.64036e-05
0.00528596
-1.52423e-05
0.00528689
-1.41385e-05
0.00528775
-1.30908e-05
0.00528855
-1.20979e-05
0.00528928
-1.11584e-05
0.00528996
-1.0271e-05
0.00529058
-9.43434e-06
0.00529115
-8.64725e-06
0.00529168
-7.90851e-06
0.00529215
-7.21674e-06
0.00529259
-6.5709e-06
0.00529298
-5.96937e-06
0.00529334
-5.41173e-06
0.00529366
-4.89571e-06
0.00529395
-4.4225e-06
0.00529422
-3.98765e-06
0.00529445
-3.59651e-06
0.00529467
-3.2387e-06
0.00529486
-2.92966e-06
0.00529504
-2.64447e-06
0.0052952
-2.42135e-06
0.00529534
-2.2034e-06
0.00529548
-2.0761e-06
0.00529561
-1.9191e-06
0.00529573
-1.90574e-06
0.00529585
-1.80385e-06
0.00529598
-1.93097e-06
0.00529611
-1.88533e-06
0.00529625
-2.18355e-06
0.0052964
-2.21832e-06
0.00529658
-2.70618e-06
0.00529677
-2.89917e-06
0.00529701
-3.55354e-06
0.00529729
-4.07774e-06
0.0052976
-4.81275e-06
0.00529802
-5.94564e-06
0.00529843
-6.59619e-06
0.00529906
-8.84686e-06
0.00529967
-8.83594e-06
0.00530047
-1.27619e-05
0.00530143
-1.30428e-05
-1.57769e-05
0.00521103
-8.45124e-05
0.00521586
-8.07033e-05
0.00522046
-7.70544e-05
0.00522486
-7.35445e-05
0.00522905
-7.016e-05
0.00523305
-6.6892e-05
0.00523686
-6.3735e-05
0.00524049
-6.06851e-05
0.00524395
-5.77399e-05
0.00524725
-5.48969e-05
0.00525038
-5.2154e-05
0.00525336
-4.95093e-05
0.00525619
-4.69605e-05
0.00525887
-4.45055e-05
0.00526142
-4.21421e-05
0.00526383
-3.9868e-05
0.00526612
-3.7681e-05
0.00526827
-3.55788e-05
0.00527031
-3.35592e-05
0.00527224
-3.16202e-05
0.00527405
-2.97596e-05
0.00527575
-2.79755e-05
0.00527735
-2.6266e-05
0.00527886
-2.4629e-05
0.00528027
-2.3063e-05
0.00528158
-2.15661e-05
0.00528282
-2.01367e-05
0.00528396
-1.87731e-05
0.00528503
-1.74739e-05
0.00528603
-1.62373e-05
0.00528695
-1.5062e-05
0.00528781
-1.39463e-05
0.0052886
-1.28889e-05
0.00528933
-1.18883e-05
0.00529
-1.0943e-05
0.00529062
-1.00519e-05
0.00529119
-9.21343e-06
0.0052917
-8.42645e-06
0.00529218
-7.68948e-06
0.00529261
-7.00139e-06
0.005293
-6.36052e-06
0.00529335
-5.76637e-06
0.00529367
-5.2166e-06
0.00529396
-4.71237e-06
0.00529422
-4.24911e-06
0.00529446
-3.83227e-06
0.00529467
-3.45116e-06
0.00529486
-3.1217e-06
0.00529504
-2.8181e-06
0.0052952
-2.58003e-06
0.00529534
-2.34832e-06
0.00529548
-2.2121e-06
0.0052956
-2.04565e-06
0.00529573
-2.03056e-06
0.00529585
-1.92317e-06
0.00529598
-2.05767e-06
0.0052961
-2.01036e-06
0.00529624
-2.32742e-06
0.00529639
-2.36548e-06
0.00529657
-2.88543e-06
0.00529676
-3.09186e-06
0.005297
-3.78863e-06
0.00529727
-4.35372e-06
0.00529758
-5.12192e-06
0.00529801
-6.36932e-06
0.00529841
-6.99842e-06
0.00529904
-9.4796e-06
0.00529966
-9.44972e-06
0.00530044
-1.35456e-05
0.00530141
-1.40105e-05
-1.69265e-05
0.00521205
-8.94909e-05
0.0052168
-8.54556e-05
0.00522133
-8.15902e-05
0.00522566
-7.78733e-05
0.00522979
-7.42906e-05
0.00523373
-7.08326e-05
0.00523749
-6.74932e-05
0.00524108
-6.4268e-05
0.00524449
-6.11539e-05
0.00524774
-5.8148e-05
0.00525083
-5.5248e-05
0.00525378
-5.24516e-05
0.00525657
-4.97562e-05
0.00525923
-4.71597e-05
0.00526174
-4.46595e-05
0.00526413
-4.22535e-05
0.00526639
-3.99391e-05
0.00526852
-3.77141e-05
0.00527054
-3.55762e-05
0.00527244
-3.35231e-05
0.00527424
-3.15529e-05
0.00527592
-2.96632e-05
0.00527751
-2.78523e-05
0.005279
-2.6118e-05
0.00528039
-2.44586e-05
0.0052817
-2.28723e-05
0.00528292
-2.13573e-05
0.00528406
-1.9912e-05
0.00528512
-1.85347e-05
0.00528611
-1.72237e-05
0.00528702
-1.59775e-05
0.00528787
-1.47945e-05
0.00528866
-1.36731e-05
0.00528938
-1.26119e-05
0.00529005
-1.16094e-05
0.00529066
-1.06642e-05
0.00529122
-9.77488e-06
0.00529173
-8.94007e-06
0.0052922
-8.15827e-06
0.00529263
-7.42829e-06
0.00529302
-6.74839e-06
0.00529337
-6.11804e-06
0.00529369
-5.53478e-06
0.00529397
-4.99979e-06
0.00529423
-4.50834e-06
0.00529447
-4.066e-06
0.00529468
-3.66178e-06
0.00529487
-3.31206e-06
0.00529504
-2.9902e-06
0.0052952
-2.73731e-06
0.00529534
-2.49193e-06
0.00529548
-2.34691e-06
0.0052956
-2.17105e-06
0.00529572
-2.15434e-06
0.00529584
-2.04141e-06
0.00529597
-2.1834e-06
0.00529609
-2.13425e-06
0.00529624