/*--------------------------------*- C++ -*----------------------------------*\
| =========                 |                                                 |
| \\      /  F ield         | OpenFOAM: The Open Source CFD Toolbox           |
|  \\    /   O peration     | Version:  2412                                  |
|   \\  /    A nd           | Website:  www.openfoam.com                      |
|    \\/     M anipulation  |                                                 |
\*---------------------------------------------------------------------------*/
FoamFile
{
    version     2.0;
    format      ascii;
    arch        "LSB;label=32;scalar=64";
    class       volScalarField;
    location    "21.5";
    object      p;
}
// * * * * * * * * * * * * * * * * * * * * * * * * * * * * * * * * * * * * * //

dimensions      [0 2 -2 0 0 0 0];

internalField   nonuniform List<scalar> 
5285
(
-0.000168351
-0.000158181
-0.000148406
-0.000139029
-0.000170015
-0.000160043
-0.000150438
-0.000141204
-0.000132343
-0.000123862
-0.000115756
-0.000108024
-0.000100663
-9.36704e-05
-8.70394e-05
-8.07637e-05
-7.48356e-05
-6.92465e-05
-6.39869e-05
-5.90466e-05
-5.44146e-05
-5.00797e-05
-4.603e-05
-4.22536e-05
-3.87381e-05
-3.54711e-05
-3.24403e-05
-2.96333e-05
-2.70378e-05
-2.46419e-05
-2.24338e-05
-2.04018e-05
-1.85351e-05
-1.68225e-05
-1.5254e-05
-1.38194e-05
-1.25092e-05
-1.13142e-05
-1.02257e-05
-9.23558e-06
-8.33601e-06
-7.51963e-06
-6.77949e-06
-6.10924e-06
-5.50279e-06
-4.95459e-06
-4.45914e-06
-4.01284e-06
-0.000171245
-0.000161487
-0.000152067
-0.000142992
-0.000134265
-0.000125891
-0.000117873
-0.000110208
-0.000102894
-9.59311e-05
-8.93134e-05
-8.30361e-05
-7.70927e-05
-7.14762e-05
-6.61785e-05
-6.11906e-05
-5.65029e-05
-5.21055e-05
-4.79877e-05
-4.41384e-05
-4.05466e-05
-3.72006e-05
-3.40891e-05
-3.12004e-05
-2.85229e-05
-2.60453e-05
-2.37564e-05
-2.1645e-05
-1.97005e-05
-1.79124e-05
-1.62706e-05
-1.47653e-05
-1.33873e-05
-1.21274e-05
-1.0977e-05
-9.92814e-06
-8.97291e-06
-8.10398e-06
-7.31443e-06
-6.59778e-06
-5.94796e-06
-5.3593e-06
-4.82629e-06
-4.34504e-06
-0.000172056
-0.000162523
-0.000153303
-0.000144402
-0.000135825
-0.000127578
-0.000119663
-0.000112082
-0.000104833
-9.79157e-05
-9.13276e-05
-8.50647e-05
-7.91219e-05
-7.34934e-05
-6.81724e-05
-6.31514e-05
-5.8422e-05
-5.39753e-05
-4.98019e-05
-4.58919e-05
-4.2235e-05
-3.88208e-05
-3.56384e-05
-3.26773e-05
-2.99264e-05
-2.73751e-05
-2.50127e-05
-2.28287e-05
-2.08127e-05
-1.89546e-05
-1.72448e-05
-1.56736e-05
-1.42319e-05
-1.29109e-05
-1.17022e-05
-1.05976e-05
-9.58951e-06
-8.67052e-06
-7.83375e-06
-7.07269e-06
-6.38123e-06
-5.75366e-06
-5.18442e-06
-4.66936e-06
-0.000172467
-0.000163171
-0.000154162
-0.000145448
-0.000137035
-0.000128929
-0.000121134
-0.000113651
-0.000106482
-9.96272e-05
-9.30842e-05
-8.68509e-05
-8.09238e-05
-7.52981e-05
-6.99683e-05
-6.49282e-05
-6.01705e-05
-5.56876e-05
-5.1471e-05
-4.7512e-05
-4.38012e-05
-4.03291e-05
-3.70858e-05
-3.40615e-05
-3.12458e-05
-2.86288e-05
-2.62004e-05
-2.39505e-05
-2.18693e-05
-1.9947e-05
-1.81744e-05
-1.6542e-05
-1.50412e-05
-1.36631e-05
-1.23995e-05
-1.12424e-05
-1.01843e-05
-9.21785e-06
-8.33618e-06
-7.53278e-06
-6.80152e-06
-6.13667e-06
-5.53263e-06
-4.98512e-06
-0.000172505
-0.000163453
-0.000154665
-0.000146149
-0.000137911
-0.000129958
-0.000122296
-0.000114926
-0.000107851
-0.000101071
-9.45878e-05
-8.83986e-05
-8.25012e-05
-7.68922e-05
-7.15674e-05
-6.65215e-05
-6.17484e-05
-5.72417e-05
-5.29939e-05
-4.89973e-05
-4.52435e-05
-4.17238e-05
-3.84294e-05
-3.53509e-05
-3.2479e-05
-2.98043e-05
-2.73172e-05
-2.50082e-05
-2.28681e-05
-2.08875e-05
-1.90574e-05
-1.73688e-05
-1.58131e-05
-1.4382e-05
-1.30672e-05
-1.1861e-05
-1.07559e-05
-9.74464e-06
-8.82048e-06
-7.9769e-06
-7.20777e-06
-6.50736e-06
-5.87003e-06
-5.29142e-06
-0.000172192
-0.000163391
-0.000154833
-0.000146524
-0.000138471
-0.000130682
-0.000123163
-0.000115918
-0.000108949
-0.000102259
-9.58474e-05
-8.97152e-05
-8.38606e-05
-7.82814e-05
-7.29741e-05
-6.79349e-05
-6.31586e-05
-5.86398e-05
-5.43721e-05
-5.03488e-05
-4.65623e-05
-4.3005e-05
-3.96687e-05
-3.6545e-05
-3.36252e-05
-3.09004e-05
-2.83619e-05
-2.60007e-05
-2.38079e-05
-2.17747e-05
-1.98924e-05
-1.81525e-05
-1.65465e-05
-1.50663e-05
-1.37041e-05
-1.24521e-05
-1.1303e-05
-1.02497e-05
-9.28554e-06
-8.40401e-06
-7.59901e-06
-6.86481e-06
-6.19577e-06
-5.5875e-06
-0.00017155
-0.000163008
-0.000154685
-0.00014659
-0.000138731
-0.000131116
-0.000123751
-0.000116641
-0.00010979
-0.000103199
-9.68724e-05
-9.08092e-05
-8.50094e-05
-7.94717e-05
-7.41939e-05
-6.91729e-05
-6.44048e-05
-5.9885e-05
-5.56082e-05
-5.15685e-05
-4.77593e-05
-4.41738e-05
-4.08047e-05
-3.76442e-05
-3.46844e-05
-3.19173e-05
-2.93344e-05
-2.69276e-05
-2.46882e-05
-2.26081e-05
-2.06789e-05
-1.88923e-05
-1.72405e-05
-1.57154e-05
-1.43094e-05
-1.3015e-05
-1.1825e-05
-1.07325e-05
-9.73077e-06
-8.81354e-06
-7.9747e-06
-7.20854e-06
-6.50943e-06
-5.87294e-06
-0.000170603
-0.000162322
-0.00015424
-0.000146366
-0.000138708
-0.000131275
-0.000124073
-0.000117107
-0.000110383
-0.000103904
-9.76715e-05
-9.16881e-05
-8.59541e-05
-8.0469e-05
-7.52316e-05
-7.02398e-05
-6.54905e-05
-6.09802e-05
-5.67044e-05
-5.26581e-05
-4.88357e-05
-4.52311e-05
-4.18378e-05
-3.86488e-05
-3.56569e-05
-3.28546e-05
-3.02344e-05
-2.77883e-05
-2.55084e-05
-2.3387e-05
-2.1416e-05
-1.95877e-05
-1.78944e-05
-1.63284e-05
-1.48823e-05
-1.35489e-05
-1.23211e-05
-1.11921e-05
-1.01555e-05
-9.20485e-06
-8.33424e-06
-7.53797e-06
-6.81045e-06
-6.14724e-06
-0.00016937
-0.000161353
-0.000153517
-0.000145869
-0.000138418
-0.000131173
-0.000124141
-0.000117329
-0.000110741
-0.000104381
-9.82535e-05
-9.23598e-05
-8.67015e-05
-8.12792e-05
-7.60924e-05
-7.11398e-05
-6.64194e-05
-6.19283e-05
-5.76631e-05
-5.36196e-05
-4.9793e-05
-4.61779e-05
-4.27687e-05
-3.95591e-05
-3.65427e-05
-3.37125e-05
-3.10615e-05
-2.85825e-05
-2.6268e-05
-2.41107e-05
-2.21032e-05
-2.02379e-05
-1.85075e-05
-1.69046e-05
-1.54222e-05
-1.40531e-05
-1.27906e-05
-1.16281e-05
-1.0559e-05
-9.5773e-06
-8.67701e-06
-7.85253e-06
-7.09831e-06
-6.4099e-06
-0.000167871
-0.000160121
-0.000152533
-0.000145115
-0.000137876
-0.000130825
-0.00012397
-0.000117318
-0.000110874
-0.000104642
-9.86273e-05
-9.28322e-05
-8.72589e-05
-8.19086e-05
-7.67817e-05
-7.18777e-05
-6.71954e-05
-6.27328e-05
-5.84872e-05
-5.44553e-05
-5.06329e-05
-4.70157e-05
-4.35986e-05
-4.03761e-05
-3.73423e-05
-3.4491e-05
-3.18158e-05
-2.931e-05
-2.69667e-05
-2.47791e-05
-2.27399e-05
-2.08423e-05
-1.90791e-05
-1.74434e-05
-1.59283e-05
-1.4527e-05
-1.3233e-05
-1.20396e-05
-1.09407e-05
-9.93029e-06
-9.00246e-06
-8.15169e-06
-7.37251e-06
-6.66045e-06
-0.000166127
-0.000158645
-0.000151306
-0.000144121
-0.000137097
-0.000130245
-0.000123573
-0.000117087
-0.000110793
-0.000104697
-9.88023e-05
-9.31137e-05
-8.76335e-05
-8.23637e-05
-7.73052e-05
-7.24585e-05
-6.78229e-05
-6.33974e-05
-5.91798e-05
-5.51677e-05
-5.13578e-05
-4.77463e-05
-4.43288e-05
-4.11006e-05
-3.80564e-05
-3.51907e-05
-3.24976e-05
-2.9971e-05
-2.76045e-05
-2.53917e-05
-2.33259e-05
-2.14005e-05
-1.96089e-05
-1.79443e-05
-1.64003e-05
-1.49701e-05
-1.36475e-05
-1.24262e-05
-1.13001e-05
-1.02633e-05
-9.31009e-06
-8.43498e-06
-7.63259e-06
-6.89847e-06
-0.000164157
-0.000156941
-0.000149853
-0.000142902
-0.000136097
-0.000129448
-0.000122962
-0.000116647
-0.000110509
-0.000104554
-9.87874e-05
-9.32124e-05
-8.78328e-05
-8.26511e-05
-7.76689e-05
-7.28873e-05
-6.83065e-05
-6.39259e-05
-5.97443e-05
-5.57598e-05
-5.19699e-05
-4.83714e-05
-4.49608e-05
-4.17338e-05
-3.8686e-05
-3.58123e-05
-3.31074e-05
-3.05657e-05
-2.81815e-05
-2.59486e-05
-2.3861e-05
-2.19124e-05
-2.00965e-05
-1.8407e-05
-1.68375e-05
-1.53819e-05
-1.40339e-05
-1.27875e-05
-1.16367e-05
-1.05759e-05
-9.59947e-06
-8.70198e-06
-7.87816e-06
-7.12359e-06
-0.000161977
-0.000155027
-0.00014819
-0.000141475
-0.00013489
-0.000128445
-0.00012215
-0.00011601
-0.000110034
-0.000104226
-9.85918e-05
-9.31368e-05
-8.78643e-05
-8.27776e-05
-7.78788e-05
-7.31696e-05
-6.86508e-05
-6.43225e-05
-6.01842e-05
-5.62346e-05
-5.24718e-05
-4.88934e-05
-4.54965e-05
-4.22774e-05
-3.92322e-05
-3.63565e-05
-3.36457e-05
-3.10946e-05
-2.86978e-05
-2.645e-05
-2.43453e-05
-2.23779e-05
-2.05418e-05
-1.88312e-05
-1.72399e-05
-1.57621e-05
-1.43917e-05
-1.3123e-05
-1.19502e-05
-1.08678e-05
-9.87022e-06
-8.95232e-06
-8.10886e-06
-7.33545e-06
-0.000159606
-0.00015292
-0.000146333
-0.000139853
-0.00013349
-0.000127252
-0.00012115
-0.000115189
-0.000109377
-0.00010372
-9.82247e-05
-9.28951e-05
-8.77356e-05
-8.275e-05
-7.7941e-05
-7.33108e-05
-6.88607e-05
-6.45915e-05
-6.05032e-05
-5.65952e-05
-5.28663e-05
-4.93146e-05
-4.59378e-05
-4.27328e-05
-3.96964e-05
-3.68246e-05
-3.41134e-05
-3.15582e-05
-2.91541e-05
-2.68961e-05
-2.47788e-05
-2.27969e-05
-2.09447e-05
-1.92167e-05
-1.76072e-05
-1.61104e-05
-1.47207e-05
-1.34325e-05
-1.22402e-05
-1.11385e-05
-1.0122e-05
-9.18567e-06
-8.32437e-06
-7.53376e-06
-0.000157059
-0.000150635
-0.000144296
-0.000138052
-0.00013191
-0.000125881
-0.000119973
-0.000114193
-0.00010855
-0.000103048
-9.76951e-05
-9.24956e-05
-8.74543e-05
-8.25752e-05
-7.78617e-05
-7.33164e-05
-6.89412e-05
-6.47373e-05
-6.07053e-05
-5.68453e-05
-5.31564e-05
-4.96376e-05
-4.62868e-05
-4.31019e-05
-4.008e-05
-3.72178e-05
-3.45116e-05
-3.19574e-05
-2.95508e-05
-2.72872e-05
-2.51619e-05
-2.31696e-05
-2.13053e-05
-1.95636e-05
-1.79392e-05
-1.64267e-05
-1.50206e-05
-1.37157e-05
-1.25065e-05
-1.13878e-05
-1.03546e-05
-9.40176e-06
-8.52442e-06
-7.71823e-06
-0.000154353
-0.000148188
-0.000142095
-0.000136085
-0.000130164
-0.000124344
-0.000118632
-0.000113035
-0.000107562
-0.000102219
-9.70118e-05
-9.19464e-05
-8.70278e-05
-8.22601e-05
-7.76473e-05
-7.31922e-05
-6.88973e-05
-6.47644e-05
-6.07945e-05
-5.69882e-05
-5.33452e-05
-4.98649e-05
-4.6546e-05
-4.33868e-05
-4.03848e-05
-3.75373e-05
-3.48412e-05
-3.2293e-05
-2.98886e-05
-2.76241e-05
-2.54949e-05
-2.34963e-05
-2.16236e-05
-1.98719e-05
-1.8236e-05
-1.67109e-05
-1.52914e-05
-1.39724e-05
-1.27488e-05
-1.16156e-05
-1.05677e-05
-9.60037e-06
-8.70877e-06
-7.88865e-06
-0.000151502
-0.000145592
-0.000139744
-0.000133965
-0.000128265
-0.000122653
-0.000117137
-0.000111725
-0.000106424
-0.000101242
-9.61836e-05
-9.12558e-05
-8.64636e-05
-8.18116e-05
-7.73038e-05
-7.29438e-05
-6.87343e-05
-6.46775e-05
-6.07749e-05
-5.70276e-05
-5.34359e-05
-4.99995e-05
-4.67178e-05
-4.35894e-05
-4.06125e-05
-3.77848e-05
-3.51037e-05
-3.25661e-05
-3.01685e-05
-2.79072e-05
-2.57783e-05
-2.37774e-05
-2.19001e-05
-2.01417e-05
-1.84977e-05
-1.69631e-05
-1.5533e-05
-1.42027e-05
-1.29671e-05
-1.18216e-05
-1.07612e-05
-9.7813e-06
-8.87723e-06
-8.04481e-06
-0.000148521
-0.000142862
-0.000137254
-0.000131706
-0.000126224
-0.00012082
-0.0001155
-0.000110273
-0.000105146
-0.000100126
-9.5219e-05
-9.04316e-05
-8.57691e-05
-8.12363e-05
-7.68376e-05
-7.25768e-05
-6.84571e-05
-6.44811e-05
-6.06507e-05
-5.69673e-05
-5.34317e-05
-5.00443e-05
-4.68046e-05
-4.3712e-05
-4.0765e-05
-3.79618e-05
-3.53003e-05
-3.27778e-05
-3.03913e-05
-2.81375e-05
-2.60128e-05
-2.40133e-05
-2.21349e-05
-2.03734e-05
-1.87243e-05
-1.71832e-05
-1.57454e-05
-1.44063e-05
-1.31613e-05
-1.20057e-05
-1.09349e-05
-9.9444e-06
-9.02964e-06
-8.18655e-06
-0.000145422
-0.00014001
-0.00013464
-0.000129318
-0.000124054
-0.000118855
-0.000113731
-0.000108689
-0.000103737
-9.88802e-05
-9.41265e-05
-8.94817e-05
-8.49515e-05
-8.0541e-05
-7.62549e-05
-7.20971e-05
-6.80712e-05
-6.418e-05
-6.04261e-05
-5.68111e-05
-5.33362e-05
-5.00023e-05
-4.68093e-05
-4.3757e-05
-4.08444e-05
-3.80702e-05
-3.54326e-05
-3.29294e-05
-3.05581e-05
-2.83157e-05
-2.61991e-05
-2.42046e-05
-2.23286e-05
-2.05672e-05
-1.89163e-05
-1.73716e-05
-1.59288e-05
-1.45836e-05
-1.33314e-05
-1.2168e-05
-1.10889e-05
-1.00896e-05
-9.16591e-06
-8.31377e-06
-0.000739716
-0.000711439
-0.000683066
-0.000654723
-0.000626558
-0.000598694
-0.000571229
-0.000544253
-0.000517849
-0.000492088
-0.000467032
-0.00044273
-0.000419224
-0.000396546
-0.00037472
-0.000353762
-0.00033368
-0.000314478
-0.000296151
-0.000278693
-0.000262089
-0.000246324
-0.000231377
-0.000217227
-0.000203848
-0.000191215
-0.000179298
-0.000710061
-0.000684025
-0.000657829
-0.000631591
-0.000605456
-0.000579539
-0.00055393
-0.00052872
-0.000503987
-0.0004798
-0.000456221
-0.000433299
-0.000411077
-0.000389589
-0.00036886
-0.000348909
-0.000329749
-0.000311385
-0.000293819
-0.000277046
-0.000261058
-0.000245842
-0.000231384
-0.000217664
-0.000204663
-0.000192358
-0.000180725
-0.000681364
-0.000657408
-0.000633235
-0.000608963
-0.000584728
-0.000560636
-0.000536775
-0.00051323
-0.000490077
-0.000467385
-0.000445211
-0.000423607
-0.000402616
-0.000382272
-0.000362602
-0.000343629
-0.000325366
-0.000307823
-0.000291005
-0.00027491
-0.000259535
-0.000244869
-0.000230903
-0.000217621
-0.000205006
-0.000193041
-0.000181705
-0.000653599
-0.000631572
-0.000609286
-0.000586851
-0.000564392
-0.000542011
-0.000519793
-0.000497818
-0.000476159
-0.000454882
-0.000434045
-0.000413699
-0.000393885
-0.000374639
-0.000355991
-0.000337963
-0.000320573
-0.000303832
-0.000287747
-0.00027232
-0.000257551
-0.000243434
-0.00022996
-0.00021712
-0.000204899
-0.000193283
-0.000182254
-0.000626748
-0.000606514
-0.000585985
-0.000565263
-0.000544464
-0.000523688
-0.000503012
-0.000482515
-0.000462267
-0.000442331
-0.000422764
-0.000403615
-0.000384927
-0.000366735
-0.00034907
-0.000331955
-0.000315411
-0.00029945
-0.000284082
-0.000269313
-0.000255142
-0.000241569
-0.000228588
-0.000216191
-0.000204368
-0.000193107
-0.000182394
-0.000600793
-0.000582224
-0.000563329
-0.000544202
-0.000524955
-0.000505681
-0.000486455
-0.000467349
-0.000448433
-0.000429766
-0.000411405
-0.000393396
-0.000375783
-0.000358601
-0.000341881
-0.000325648
-0.000309922
-0.00029472
-0.000280052
-0.000265926
-0.000252346
-0.000239312
-0.00022682
-0.000214867
-0.000203445
-0.000192544
-0.000182152
-0.000575711
-0.000558686
-0.000541309
-0.00052367
-0.000505873
-0.000488006
-0.00047014
-0.000452345
-0.000434685
-0.00041722
-0.000400002
-0.000383079
-0.000366491
-0.000350276
-0.000334463
-0.00031908
-0.000304146
-0.00028968
-0.000275695
-0.000262199
-0.000249198
-0.000236695
-0.000224689
-0.000213179
-0.000202158
-0.000191619
-0.000181554
-0.000551474
-0.000535882
-0.000519918
-0.000503665
-0.000487223
-0.000470674
-0.000454085
-0.000437523
-0.000421049
-0.00040472
-0.000388586
-0.000372695
-0.000357086
-0.000341795
-0.000326853
-0.000312287
-0.000298119
-0.000284366
-0.000271044
-0.000258163
-0.00024573
-0.000233751
-0.000222225
-0.000211154
-0.000200533
-0.000190359
-0.000180623
-0.000528058
-0.000513795
-0.000499145
-0.000484185
-0.000469008
-0.000453694
-0.000438303
-0.000422901
-0.000407545
-0.00039229
-0.000377185
-0.000362274
-0.000347597
-0.00033319
-0.000319083
-0.000305303
-0.000291873
-0.000278811
-0.000266133
-0.000253851
-0.000241974
-0.000230508
-0.000219456
-0.00020882
-0.000198598
-0.000188787
-0.000179383
-0.000505439
-0.000492409
-0.000478981
-0.000465226
-0.000451232
-0.000437072
-0.000422807
-0.000408495
-0.000394193
-0.000379953
-0.000365822
-0.000351843
-0.000338054
-0.000324491
-0.000311183
-0.000298158
-0.000285439
-0.000273045
-0.000260991
-0.000249293
-0.000237958
-0.000226996
-0.00021641
-0.000206203
-0.000196377
-0.000186928
-0.000177855
-0.00048359
-0.000471706
-0.000459414
-0.000446782
-0.000433892
-0.000420814
-0.000407604
-0.000394318
-0.00038101
-0.000367729
-0.00035452
-0.000341426
-0.000328482
-0.000315725
-0.000303182
-0.000290882
-0.000278846
-0.000267096
-0.000255648
-0.000244515
-0.00023371
-0.00022324
-0.000213111
-0.000203328
-0.000193892
-0.000184804
-0.000176062
-0.000462489
-0.000451667
-0.000440432
-0.000428847
-0.000416989
-0.000404923
-0.000392703
-0.000380382
-0.00036801
-0.000355635
-0.000343299
-0.000331044
-0.000318905
-0.000306915
-0.000295104
-0.000283498
-0.000272121
-0.000260992
-0.000250129
-0.000239546
-0.000229255
-0.000219266
-0.000209585
-0.000200218
-0.000191168
-0.000182437
-0.000174023
-0.00044211
-0.000432274
-0.000422023
-0.000411413
-0.000400519
-0.000389401
-0.000378109
-0.000366695
-0.000355205
-0.000343685
-0.000332176
-0.000320717
-0.000309342
-0.000298085
-0.000286973
-0.000276033
-0.000265288
-0.000254757
-0.000244459
-0.000234409
-0.000224618
-0.000215097
-0.000205854
-0.000196896
-0.000188226
-0.000179846
-0.000171759
-0.00042243
-0.00041351
-0.000404173
-0.000394472
-0.000384478
-0.000374247
-0.000363827
-0.000353264
-0.000342605
-0.000331893
-0.000321166
-0.000310462
-0.000299814
-0.000289254
-0.00027881
-0.000268507
-0.000258369
-0.000248414
-0.000238662
-0.000229126
-0.00021982
-0.000210756
-0.000201941
-0.000193382
-0.000185085
-0.000177053
-0.000169288
-0.000403425
-0.000395355
-0.000386869
-0.000378016
-0.000368862
-0.000359462
-0.000349859
-0.000340097
-0.00033022
-0.00032027
-0.000310282
-0.000300294
-0.000290337
-0.000280441
-0.000270635
-0.000260942
-0.000251385
-0.000241984
-0.000232757
-0.000223719
-0.000214884
-0.000206263
-0.000197865
-0.000189697
-0.000181766
-0.000174075
-0.000166628
-0.000385072
-0.000377791
-0.000370096
-0.000362034
-0.000353666
-0.000345043
-0.000336206
-0.000327197
-0.000318057
-0.000308825
-0.000299537
-0.000290227
-0.000280926
-0.000271663
-0.000262464
-0.000253354
-0.000244355
-0.000235486
-0.000226766
-0.000218209
-0.000209829
-0.000201638
-0.000193645
-0.000185859
-0.000178286
-0.00017093
-0.000163797
-0.000367349
-0.000360801
-0.000353843
-0.000346517
-0.000338883
-0.000330987
-0.000322868
-0.000314567
-0.000306121
-0.000297568
-0.000288941
-0.000280273
-0.000271595
-0.000262933
-0.000254314
-0.000245762
-0.000237297
-0.000228939
-0.000220705
-0.000212612
-0.000204672
-0.000196898
-0.0001893
-0.000181885
-0.000174662
-0.000167636
-0.00016081
-0.000350233
-0.000344366
-0.000338093
-0.000331455
-0.000324506
-0.000317291
-0.000309846
-0.000302209
-0.000294417
-0.000286503
-0.000278502
-0.000270443
-0.000262355
-0.000254266
-0.000246199
-0.000238179
-0.000230225
-0.000222357
-0.000214593
-0.000206946
-0.000199432
-0.000192062
-0.000184846
-0.000177793
-0.000170912
-0.000164206
-0.000157683
-0.000333704
-0.000328469
-0.000322834
-0.000316837
-0.000310528
-0.000303951
-0.000297138
-0.000290126
-0.000282948
-0.000275638
-0.000268228
-0.000260745
-0.000253218
-0.000245673
-0.000238133
-0.00023062
-0.000223156
-0.000215758
-0.000208443
-0.000201227
-0.000194123
-0.000187144
-0.000180299
-0.000173598
-0.000167049
-0.000160658
-0.00015443
-0.00031774
-0.000313093
-0.000308052
-0.000302652
-0.000296942
-0.000290961
-0.000284741
-0.000278316
-0.000271717
-0.000264977
-0.000258124
-0.000251187
-0.000244192
-0.000237164
-0.000230125
-0.000223098
-0.000216101
-0.000209153
-0.00020227
-0.000195469
-0.000188761
-0.000182159
-0.000175673
-0.000169314
-0.000163089
-0.000157004
-0.000151065
-0.000302637
-0.000298524
-0.000294025
-0.00028917
-0.000284008
-0.000278575
-0.0002729
-0.000267014
-0.00026095
-0.000254736
-0.0002484
-0.000241969
-0.000235468
-0.000228921
-0.00022235
-0.000215775
-0.000209216
-0.000202691
-0.000196214
-0.000189803
-0.000183468
-0.000177224
-0.000171079
-0.000165044
-0.000159127
-0.000153335
-0.000147673
-0.000288194
-0.000284574
-0.000280574
-0.000276225
-0.000271571
-0.000266645
-0.000261477
-0.000256094
-0.000250528
-0.000244805
-0.000238953
-0.000232997
-0.00022696
-0.000220866
-0.000214736
-0.000208589
-0.000202444
-0.000196319
-0.000190229
-0.000184188
-0.00017821
-0.000172306
-0.000166488
-0.000160764
-0.000155143
-0.000149632
-0.000144238
-0.000273953
-0.000270801
-0.000267277
-0.000263409
-0.000259239
-0.0002548
-0.000250116
-0.000245217
-0.00024013
-0.000234881
-0.000229495
-0.000223997
-0.00021841
-0.000212755
-0.000207053
-0.000201322
-0.000195582
-0.000189847
-0.000184135
-0.000178458
-0.00017283
-0.000167262
-0.000161765
-0.000156348
-0.000151021
-0.000145789
-0.00014066
-0.00025992
-0.00025721
-0.000254139
-0.00025073
-0.000247022
-0.000243046
-0.000238827
-0.000234391
-0.000229764
-0.00022497
-0.000220034
-0.000214979
-0.000209826
-0.000204597
-0.00019931
-0.000193984
-0.000188637
-0.000183284
-0.00017794
-0.00017262
-0.000167335
-0.000162097
-0.000156917
-0.000151803
-0.000146766
-0.000141811
-0.000136946
-0.000246099
-0.00024381
-0.000241167
-0.000238194
-0.000234926
-0.000231394
-0.000227619
-0.000223626
-0.000219439
-0.000215083
-0.00021058
-0.000205952
-0.000201219
-0.000196401
-0.000191517
-0.000186584
-0.000181619
-0.000176638
-0.000171654
-0.000166682
-0.000161733
-0.000156819
-0.00015195
-0.000147135
-0.000142384
-0.000137703
-0.000133099
-0.000232496
-0.000230604
-0.000228368
-0.000225809
-0.00022296
-0.00021985
-0.000216498
-0.000212929
-0.000209166
-0.00020523
-0.000201143
-0.000196925
-0.000192597
-0.000188176
-0.000183682
-0.00017913
-0.000174537
-0.000169917
-0.000165284
-0.000160652
-0.000156032
-0.000151435
-0.000146872
-0.000142351
-0.000137882
-0.000133471
-0.000129125
-0.000219116
-0.000217599
-0.000215747
-0.000213581
-0.000211131
-0.000208422
-0.000205474
-0.00020231
-0.000198951
-0.000195418
-0.00019173
-0.000187908
-0.000183969
-0.000179933
-0.000175815
-0.000171632
-0.000167399
-0.00016313
-0.000158839
-0.000154538
-0.000150239
-0.000145953
-0.000141689
-0.000137457
-0.000133265
-0.000129121
-0.000125031
-0.000205963
-0.0002048
-0.000203312
-0.000201517
-0.000199444
-0.000197118
-0.000194555
-0.000191778
-0.000188805
-0.000185657
-0.000182352
-0.000178909
-0.000175346
-0.000171679
-0.000167925
-0.000164098
-0.000160214
-0.000156286
-0.000152327
-0.000148349
-0.000144363
-0.00014038
-0.00013641
-0.000132461
-0.000128542
-0.00012466
-0.000120822
-0.000193041
-0.000192211
-0.000191067
-0.000189624
-0.000187909
-0.000185944
-0.000183748
-0.000181339
-0.000178735
-0.000175955
-0.000173017
-0.000169938
-0.000166736
-0.000163425
-0.000160021
-0.000156538
-0.000152992
-0.000149394
-0.000145757
-0.000142093
-0.000138412
-0.000134726
-0.000131042
-0.000127371
-0.000123719
-0.000120095
-0.000116505
-0.000180355
-0.000179838
-0.000179017
-0.000177906
-0.00017653
-0.000174909
-0.000173061
-0.000171001
-0.000168749
-0.000166321
-0.000163734
-0.000161004
-0.000158147
-0.000155178
-0.000152112
-0.000148962
-0.000145741
-0.000142463
-0.000139138
-0.000135779
-0.000132395
-0.000128997
-0.000125593
-0.000122193
-0.000118804
-0.000115433
-0.000112087
-0.000167907
-0.000167685
-0.000167168
-0.000166371
-0.000165314
-0.000164019
-0.0001625
-0.000160773
-0.000158856
-0.000156763
-0.000154511
-0.000152115
-0.000149589
-0.000146949
-0.000144207
-0.000141377
-0.000138471
-0.000135501
-0.000132479
-0.000129415
-0.00012632
-0.000123202
-0.000120071
-0.000116936
-0.000113803
-0.00011068
-0.000107573
-0.0001557
-0.000155754
-0.000155524
-0.000155021
-0.000154267
-0.000153279
-0.000152073
-0.000150662
-0.000149063
-0.000147289
-0.000145357
-0.00014328
-0.000141071
-0.000138746
-0.000136315
-0.000133793
-0.00013119
-0.000128518
-0.000125789
-0.000123011
-0.000120195
-0.00011735
-0.000114485
-0.000111607
-0.000108725
-0.000105844
-0.000102973
-0.000143739
-0.000144051
-0.000144089
-0.000143864
-0.000143394
-0.000142697
-0.000141786
-0.000140675
-0.000139377
-0.000137907
-0.000136279
-0.000134507
-0.000132602
-0.000130577
-0.000128446
-0.000126219
-0.000123908
-0.000121523
-0.000119075
-0.000116574
-0.000114029
-0.000111449
-0.000108842
-0.000106215
-0.000103577
-0.000100934
-9.82922e-05
-0.000132024
-0.000132578
-0.000132868
-0.000132903
-0.000132701
-0.000132278
-0.000131646
-0.000130817
-0.000129806
-0.000128625
-0.000127287
-0.000125804
-0.000124188
-0.000122452
-0.000120607
-0.000118663
-0.000116632
-0.000114524
-0.000112348
-0.000110114
-0.000107831
-0.000105507
-0.000103151
-0.000100769
-9.83683e-05
-9.59564e-05
-9.3539e-05
-0.00012056
-0.000121339
-0.000121864
-0.000122143
-0.000122192
-0.000122027
-0.000121658
-0.000121097
-0.000120357
-0.000119449
-0.000118386
-0.000117179
-0.000115839
-0.000114378
-0.000112807
-0.000111135
-0.000109373
-0.00010753
-0.000105616
-0.00010364
-0.00010161
-9.9534e-05
-9.742e-05
-9.52751e-05
-9.31061e-05
-9.09194e-05
-8.87211e-05
-0.000109347
-0.000110335
-0.00011108
-0.000111587
-0.000111872
-0.000111949
-0.000111828
-0.00011152
-0.000111036
-0.000110388
-0.000109585
-0.00010864
-0.000107563
-0.000106365
-0.000105054
-0.000103642
-0.000102138
-0.00010055
-9.88879e-05
-9.71598e-05
-9.53737e-05
-9.35375e-05
-9.16583e-05
-8.97432e-05
-8.77988e-05
-8.58312e-05
-8.38464e-05
-9.83867e-05
-9.95705e-05
-0.00010052
-0.000101241
-0.000101746
-0.000102051
-0.000102163
-0.000102092
-0.00010185
-0.000101446
-0.000100891
-0.000100195
-9.93678e-05
-9.84189e-05
-9.73578e-05
-9.61939e-05
-9.49359e-05
-9.35925e-05
-9.2172e-05
-9.06824e-05
-8.91314e-05
-8.75263e-05
-8.58741e-05
-8.41815e-05
-8.24548e-05
-8.07001e-05
-7.89229e-05
-8.76816e-05
-8.90463e-05
-9.01857e-05
-9.11055e-05
-9.18178e-05
-9.23351e-05
-9.26659e-05
-9.28193e-05
-9.28049e-05
-9.26323e-05
-9.23112e-05
-9.18508e-05
-9.12603e-05
-9.05488e-05
-8.97252e-05
-8.8798e-05
-8.77755e-05
-8.6666e-05
-8.54772e-05
-8.42166e-05
-8.28917e-05
-8.15093e-05
-8.00761e-05
-7.85985e-05
-7.70826e-05
-7.55341e-05
-7.39586e-05
-7.72326e-05
-7.87647e-05
-8.00807e-05
-8.11857e-05
-8.20906e-05
-8.28071e-05
-8.33429e-05
-8.37064e-05
-8.39064e-05
-8.39518e-05
-8.38515e-05
-8.36142e-05
-8.32483e-05
-8.27623e-05
-8.21644e-05
-8.14627e-05
-8.0665e-05
-7.97789e-05
-7.88119e-05
-7.7771e-05
-7.66631e-05
-7.5495e-05
-7.42728e-05
-7.30027e-05
-7.16906e-05
-7.03418e-05
-6.89618e-05
-6.70406e-05
-6.87273e-05
-7.0207e-05
-7.1484e-05
-7.25682e-05
-7.34707e-05
-7.41983e-05
-7.47588e-05
-7.51603e-05
-7.54109e-05
-7.55189e-05
-7.54922e-05
-7.53389e-05
-7.50666e-05
-7.46831e-05
-7.4196e-05
-7.36124e-05
-7.29397e-05
-7.21846e-05
-7.1354e-05
-7.04544e-05
-6.9492e-05
-6.84728e-05
-6.74027e-05
-6.62872e-05
-6.51316e-05
-6.39409e-05
-5.71064e-05
-5.89356e-05
-6.05666e-05
-6.20032e-05
-6.32541e-05
-6.43298e-05
-6.52367e-05
-6.59815e-05
-6.6572e-05
-6.70155e-05
-6.73196e-05
-6.74917e-05
-6.75392e-05
-6.74692e-05
-6.72891e-05
-6.70057e-05
-6.66259e-05
-6.61564e-05
-6.56037e-05
-6.49742e-05
-6.42739e-05
-6.35089e-05
-6.26847e-05
-6.1807e-05
-6.0881e-05
-5.99118e-05
-5.89042e-05
-4.74307e-05
-4.93909e-05
-5.11614e-05
-5.27456e-05
-5.41513e-05
-5.53882e-05
-5.64621e-05
-5.73793e-05
-5.81466e-05
-5.87711e-05
-5.92596e-05
-5.96189e-05
-5.98559e-05
-5.99772e-05
-5.99896e-05
-5.98995e-05
-5.97132e-05
-5.94372e-05
-5.90774e-05
-5.86398e-05
-5.81302e-05
-5.75542e-05
-5.69171e-05
-5.62242e-05
-5.54806e-05
-5.4691e-05
-5.38601e-05
-3.80139e-05
-4.00942e-05
-4.19932e-05
-4.37135e-05
-4.52625e-05
-4.66491e-05
-4.78785e-05
-4.89565e-05
-4.98892e-05
-5.06832e-05
-5.13448e-05
-5.18802e-05
-5.22957e-05
-5.25975e-05
-5.27919e-05
-5.28848e-05
-5.28822e-05
-5.279e-05
-5.26137e-05
-5.23591e-05
-5.20315e-05
-5.16363e-05
-5.11784e-05
-5.06628e-05
-5.00944e-05
-4.94776e-05
-4.8817e-05
-2.88563e-05
-3.10464e-05
-3.30633e-05
-3.49092e-05
-3.65906e-05
-3.81159e-05
-3.94897e-05
-4.07174e-05
-4.18045e-05
-4.2757e-05
-4.35807e-05
-4.42814e-05
-4.48649e-05
-4.53369e-05
-4.57031e-05
-4.59691e-05
-4.61404e-05
-4.62225e-05
-4.62208e-05
-4.61403e-05
-4.59862e-05
-4.57636e-05
-4.5477e-05
-4.51313e-05
-4.47309e-05
-4.42802e-05
-4.37833e-05
-1.99581e-05
-2.22484e-05
-2.43732e-05
-2.63345e-05
-2.8138e-05
-2.97915e-05
-3.12993e-05
-3.2666e-05
-3.3897e-05
-3.49975e-05
-3.5973e-05
-3.68286e-05
-3.75698e-05
-3.82019e-05
-3.873e-05
-3.91594e-05
-3.94952e-05
-3.97425e-05
-3.99063e-05
-3.99913e-05
-4.00025e-05
-3.99443e-05
-3.98214e-05
-3.9638e-05
-3.93986e-05
-3.91071e-05
-3.87677e-05
-1.13194e-05
-1.37007e-05
-1.59241e-05
-1.79911e-05
-1.99069e-05
-2.16788e-05
-2.33105e-05
-2.48063e-05
-2.61711e-05
-2.74096e-05
-2.85267e-05
-2.95274e-05
-3.04164e-05
-3.11988e-05
-3.18793e-05
-3.24628e-05
-3.29539e-05
-3.33575e-05
-3.3678e-05
-3.39201e-05
-3.40882e-05
-3.41867e-05
-3.42197e-05
-3.41914e-05
-3.41059e-05
-3.3967e-05
-3.37784e-05
-2.94003e-06
-5.40384e-06
-7.71702e-06
-9.8808e-06
-1.18997e-05
-1.37805e-05
-1.55267e-05
-1.7142e-05
-1.86309e-05
-1.99977e-05
-2.1247e-05
-2.23831e-05
-2.34106e-05
-2.43339e-05
-2.51576e-05
-2.5886e-05
-2.65236e-05
-2.70747e-05
-2.75436e-05
-2.79345e-05
-2.82515e-05
-2.84988e-05
-2.86802e-05
-2.87998e-05
-2.88611e-05
-2.8868e-05
-2.8824e-05
5.17993e-06
2.64163e-06
2.46942e-07
-2.00505e-06
-4.11831e-06
-6.09922e-06
-7.95087e-06
-9.67665e-06
-1.12805e-05
-1.27665e-05
-1.41387e-05
-1.54011e-05
-1.6558e-05
-1.76133e-05
-1.85713e-05
-1.94359e-05
-2.02113e-05
-2.09015e-05
-2.15104e-05
-2.2042e-05
-2.25001e-05
-2.28886e-05
-2.32111e-05
-2.34713e-05
-2.36727e-05
-2.38188e-05
-2.39129e-05
1.30406e-05
1.04353e-05
7.96686e-06
5.63467e-06
3.43524e-06
1.3626e-06
-5.85995e-07
-2.41359e-06
-4.12374e-06
-5.72016e-06
-7.20653e-06
-8.5866e-06
-9.86409e-06
-1.10428e-05
-1.21265e-05
-1.31189e-05
-1.40238e-05
-1.48449e-05
-1.55858e-05
-1.62503e-05
-1.68419e-05
-1.73641e-05
-1.78204e-05
-1.82142e-05
-1.85488e-05
-1.88275e-05
-1.90534e-05
2.06421e-05
1.79768e-05
1.54419e-05
1.3037e-05
1.07591e-05
8.60259e-06
6.56508e-06
4.64381e-06
2.83558e-06
1.13702e-06
-4.55218e-07
-1.94454e-06
-3.33437e-06
-4.62815e-06
-5.82933e-06
-6.94137e-06
-7.96773e-06
-8.91181e-06
-9.77703e-06
-1.05668e-05
-1.12843e-05
-1.1933e-05
-1.2516e-05
-1.30365e-05
-1.34977e-05
-1.39025e-05
-1.42539e-05
2.79846e-05
2.52657e-05
2.26711e-05
2.02005e-05
1.78514e-05
1.56184e-05
1.34996e-05
1.14923e-05
9.59382e-06
7.80099e-06
6.1108e-06
4.52016e-06
3.02594e-06
1.62501e-06
3.14193e-07
-9.09671e-07
-2.04975e-06
-3.1092e-06
-4.09117e-06
-4.99875e-06
-5.83504e-06
-6.60308e-06
-7.30587e-06
-7.94637e-06
-8.52749e-06
-9.05207e-06
-9.5229e-06
3.50681e-05
3.23017e-05
2.96536e-05
2.71239e-05
2.47103e-05
2.24079e-05
2.02148e-05
1.81288e-05
1.61474e-05
1.42677e-05
1.24871e-05
1.08027e-05
9.21166e-06
7.71114e-06
6.29824e-06
4.97005e-06
3.72368e-06
2.55622e-06
1.46478e-06
4.46496e-07
-5.01489e-07
-1.382e-06
-2.19782e-06
-2.95171e-06
-3.64636e-06
-4.28445e-06
-4.86858e-06
4.18926e-05
3.90842e-05
3.63886e-05
3.38058e-05
3.13341e-05
2.89687e-05
2.6708e-05
2.45501e-05
2.24927e-05
2.05333e-05
1.86694e-05
1.68983e-05
1.52177e-05
1.36248e-05
1.2117e-05
1.06917e-05
9.34617e-06
8.07778e-06
6.88387e-06