/*--------------------------------*- C++ -*----------------------------------*\
| =========                 |                                                 |
| \\      /  F ield         | OpenFOAM: The Open Source CFD Toolbox           |
|  \\    /   O peration     | Version:  2412                                  |
|   \\  /    A nd           | Website:  www.openfoam.com                      |
|    \\/     M anipulation  |                                                 |
\*---------------------------------------------------------------------------*/
FoamFile
{
    version     2.0;
    format      ascii;
    arch        "LSB;label=32;scalar=64";
    class       surfaceScalarField;
    location    "11";
    object      phi;
}
// * * * * * * * * * * * * * * * * * * * * * * * * * * * * * * * * * * * * * //

dimensions      [0 3 -1 0 0 0 0];

oriented        oriented;

internalField   nonuniform List<scalar> 
10424
(
0.00531606
-0.000155641
-0.0053135
0.000153082
0.00531876
-0.000158832
0.000156135
0.0053216
-0.00016205
0.000159209
0.00532459
-0.000165292
0.000162301
0.00532773
-0.000168553
0.000165407
0.00533104
-0.000171828
0.000168522
0.00533451
-0.000175112
0.00017164
0.00533816
-0.000178398
0.000174755
0.00534198
-0.00018168
0.00017786
0.00534598
-0.00018495
0.000180949
0.00535017
-0.000188201
0.000184014
0.00535454
-0.000191424
0.000187046
0.00535912
-0.000194609
0.000190037
0.00536389
-0.000197748
0.000192976
0.00536886
-0.000200829
0.000195855
-0.00020384
0.000198661
0.00531285
-0.000158172
-0.00531032
0.00531552
-0.000161505
0.00531834
-0.000164872
0.00532132
-0.000168268
0.00532446
-0.000171689
0.00532776
-0.000175131
0.00533123
-0.000178586
0.00533488
-0.00018205
0.00533872
-0.000185515
0.00534274
-0.000188975
0.00534696
-0.00019242
0.00535138
-0.000195842
0.005356
-0.000199232
0.00536083
-0.00020258
0.00536588
-0.000205874
-0.000209104
0.00530951
-0.00016067
-0.00530701
0.00531216
-0.000164149
0.00531495
-0.000167668
0.00531791
-0.000171223
0.00532103
-0.000174809
0.00532432
-0.000178422
0.00532779
-0.000182055
0.00533144
-0.000185703
0.00533528
-0.000189359
0.00533932
-0.000193015
0.00534357
-0.000196663
0.00534802
-0.000200295
0.00535269
-0.000203899
0.00535757
-0.000207467
0.00536269
-0.000210986
-0.000214446
0.00530604
-0.000163127
-0.00530359
0.00530865
-0.000166756
0.00531141
-0.000170431
0.00531434
-0.000174149
0.00531744
-0.000177905
0.00532071
-0.000181695
0.00532416
-0.000185512
0.00532781
-0.000189351
0.00533166
-0.000193205
0.00533571
-0.000197065
0.00533997
-0.000200925
0.00534445
-0.000204774
0.00534915
-0.000208603
0.00535409
-0.000212402
0.00535926
-0.000216159
-0.000219861
0.00530244
-0.000165538
-0.00530003
0.005305
-0.000169319
0.00530772
-0.000173154
0.00531061
-0.000177039
0.00531368
-0.00018097
0.00531692
-0.000184941
0.00532036
-0.000188948
0.00532399
-0.000192985
0.00532783
-0.000197043
0.00533188
-0.000201117
0.00533616
-0.000205197
0.00534065
-0.000209274
0.00534539
-0.000213338
0.00535037
-0.000217379
0.00535559
-0.000221385
-0.000225344
0.00529868
-0.000167894
-0.00529633
0.00530119
-0.000171831
0.00530387
-0.000175829
0.00530671
-0.000179885
0.00530974
-0.000183995
0.00531295
-0.000188154
0.00531636
-0.000192356
0.00531997
-0.000196596
0.0053238
-0.000200867
0.00532784
-0.000205162
0.00533211
-0.000209471
0.00533663
-0.000213785
0.00534138
-0.000218095
0.00534639
-0.00022239
0.00535167
-0.000226658
-0.000230886
0.00529478
-0.000170187
-0.00529249
0.00529723
-0.000174282
0.00529985
-0.000178447
0.00530264
-0.000182678
0.00530562
-0.000186971
0.00530879
-0.000191323
0.00531216
-0.000195726
0.00531574
-0.000200177
0.00531954
-0.000204667
0.00532357
-0.00020919
0.00532783
-0.000213737
0.00533235
-0.000218299
0.00533712
-0.000222865
0.00534215
-0.000227426
0.00534746
-0.000231968
-0.00023648
0.00529072
-0.000172409
-0.00528849
0.0052931
-0.000176666
0.00529565
-0.000181001
0.00529839
-0.00018541
0.00530131
-0.000189891
0.00530442
-0.000194439
0.00530774
-0.00019905
0.00531128
-0.000203717
0.00531505
-0.000208433
0.00531905
-0.000213193
0.0053233
-0.000217987
0.00532781
-0.000222805
0.00533258
-0.000227639
0.00533763
-0.000232477
0.00534297
-0.000237307
-0.000242117
0.00528649
-0.000174553
-0.00528435
0.0052888
-0.000178973
0.00529128
-0.00018348
0.00529394
-0.000188071
0.00529679
-0.000192743
0.00529985
-0.000197493
0.00530311
-0.000202316
0.0053066
-0.000207205
0.00531032
-0.000212155
0.00531429
-0.000217159
0.00531851
-0.000222208
0.005323
-0.000227293
0.00532777
-0.000232405
0.00533282
-0.000237533
0.00533818
-0.000242664
-0.000247787
0.00528211
-0.000176608
-0.00528005
0.00528433
-0.000181193
0.00528672
-0.000185875
0.0052893
-0.000190651
0.00529208
-0.000195519
0.00529506
-0.000200474
0.00529826
-0.000205514
0.00530168
-0.000210631
0.00530535
-0.000215821
0.00530927
-0.000221077
0.00531345
-0.00022639
0.00531791
-0.000231752
0.00532265
-0.000237153
0.0053277
-0.000242582
0.00533307
-0.000248028
-0.000253477
0.00527755
-0.000178566
-0.00527559
0.00527968
-0.000183318
0.00528198
-0.000188176
0.00528447
-0.00019314
0.00528715
-0.000198206
0.00529005
-0.000203371
0.00529317
-0.000208632
0.00529652
-0.000213983
0.00530012
-0.000219419
0.00530398
-0.000224934
0.00530811
-0.000230519
0.00531252
-0.000236167
0.00531724
-0.000241868
0.00532227
-0.00024761
0.00532762
-0.000253384
-0.000259175
0.00527283
-0.000180417
-0.00527098
0.00527485
-0.000185336
0.00527705
-0.000190374
0.00527943
-0.000195527
0.00528202
-0.000200794
0.00528482
-0.000206172
0.00528785
-0.000211658
0.00529111
-0.000217248
0.00529463
-0.000222937
0.00529841
-0.000228717
0.00530248
-0.000234583
0.00530683
-0.000240526
0.0053115
-0.000246536
0.0053165
-0.000252604
0.00532183
-0.000258719
-0.000264867
0.00526794
-0.00018215
-0.0052662
0.00526984
-0.000187238
0.00527192
-0.000192455
0.00527419
-0.000197799
0.00527667
-0.000203269
0.00527936
-0.000208864
0.00528228
-0.00021458
0.00528545
-0.000220413
0.00528887
-0.000226359
0.00529256
-0.000232412
0.00529655
-0.000238565
0.00530083
-0.000244812
0.00530544
-0.000251143
0.00531038
-0.000257547
0.00531568
-0.000264016
-0.000270536
0.00526288
-0.000183756
-0.00526127
0.00526465
-0.000189013
0.0052666
-0.000194409
0.00526875
-0.000199946
0.0052711
-0.000205621
0.00527367
-0.000211434
0.00527647
-0.000217382
0.00527952
-0.000223462
0.00528284
-0.000229671
0.00528643
-0.000236002
0.00529031
-0.000242451
0.00529451
-0.000249009
0.00529904
-0.00025567
0.00530391
-0.000262423
0.00530915
-0.000269258
-0.000276164
0.00525764
-0.000185223
-0.00525618
0.00525928
-0.000190648
0.00526109
-0.000196224
0.0052631
-0.000201953
0.00526532
-0.000207835
0.00526775
-0.000213868
0.00527042
-0.000220051
0.00527334
-0.000226382
0.00527652
-0.000232857
0.00527999
-0.000239472
0.00528376
-0.000246222
0.00528785
-0.0002531
0.00529228
-0.0002601
0.00529707
-0.000267212
0.00530224
-0.000274426
-0.000281732
0.00525224
-0.00018654
-0.00525093
0.00525373
-0.000192131
0.00525539
-0.000197887
0.00525725
-0.000203809
0.00525931
-0.000209897
0.00526159
-0.000216151
0.00526411
-0.00022257
0.00526688
-0.000229154
0.00526993
-0.0002359
0.00527326
-0.000242803
0.0052769
-0.00024986
0.00528086
-0.000257065
0.00528517
-0.000264412
0.00528985
-0.000271893
0.00529493
-0.000279498
-0.000287218
0.00524668
-0.000187695
-0.00524552
0.005248
-0.000193452
0.0052495
-0.000199385
0.00525118
-0.000205498
0.00525308
-0.000211792
0.0052552
-0.000218267
0.00525755
-0.000224924
0.00526016
-0.000231763
0.00526304
-0.000238781
0.00526621
-0.000245976
0.0052697
-0.000253345
0.00527352
-0.000260884
0.00527769
-0.000268585
0.00528224
-0.000276444
0.0052872
-0.000284451
-0.000292598
0.00524095
-0.000188677
-0.00523996
0.00524209
-0.000194595
0.00524341
-0.000200704
0.00524492
-0.000207007
0.00524663
-0.000213505
0.00524856
-0.000220201
0.00525074
-0.000227096
0.00525316
-0.000234189
0.00525586
-0.000241482
0.00525886
-0.000248972
0.00526217
-0.000256657
0.00526582
-0.000264533
0.00526983
-0.000272596
0.00527423
-0.000280841
0.00527904
-0.000289261
-0.000297846
0.00523505
-0.000189472
-0.00523426
0.00523601
-0.00019555
0.00523713
-0.000201831
0.00523844
-0.00020832
0.00523996
-0.00021502
0.00524169
-0.000221935
0.00524366
-0.000229066
0.00524589
-0.000236415
0.00524839
-0.000243982
0.00525119
-0.000251768
0.0052543
-0.000259771
0.00525776
-0.00026799
0.00526158
-0.00027642
0.0052658
-0.000285058
0.00527044
-0.000293899
-0.000302934
0.005229
-0.0052284
0.00522975
0.00523067
0.00523177
0.00523307
0.00523459
0.00523634
0.00523834
0.00524062
0.00524319
0.00524609
0.00524933
0.00525294
0.00525695
0.00526138
0.00529287
-5.18974e-06
5.20983e-06
0.00529288
-1.36264e-05
1.3625e-05
0.0052927
-2.48647e-05
2.50392e-05
0.00529176
-4.93966e-05
5.03406e-05
0.00528942
-9.20118e-05
9.43498e-05
0.00528554
-0.00014496
0.00014884
0.00528062
-0.000192742
0.000197665
0.00527554
-0.000222197
0.000227275
0.00527116
-0.00022887
0.000233244
0.00526803
-0.000216709
0.000219848
0.00526625
-0.000193833
0.000195608
0.00526566
-0.000168204
0.000168792
0.00526594
-0.000145251
0.000144973
0.00526675
-0.000127492
0.000126686
0.00526781
-0.000115279
0.000114218
0.00526893
-0.000107793
0.00010667
0.00527001
-0.00010384
0.000102764
0.00527098
-0.00010229
0.000101314
0.00527185
-0.000102265
0.000101403
0.0052726
-0.000103155
0.000102398
0.00527327
-0.000104565
0.000103899
0.00527387
-0.00010626
0.000105664
0.00527441
-0.000108102
0.000107556
0.00527493
-0.000110012
0.000109498
0.00527542
-0.000111947
0.00011145
0.00527592
-0.000113882
0.000113388
0.00527642
-0.000115803
0.0001153
0.00527694
-0.000117699
0.000117179
0.00527749
-0.000119564
0.000119018
0.00527807
-0.000121393
0.000120813
0.00527869
-0.000123181
0.000122561
0.00527935
-0.000124924
0.000124259
0.00528007
-0.000126618
0.000125904
0.00528083
-0.00012826
0.000127491
0.00528166
-0.000129846
0.000129019
0.00528255
-0.000131373
0.000130485
0.0052835
-0.000132838
0.000131885
0.00528452
-0.000134238
0.000133218
0.00528561
-0.000135571
0.000134481
0.00528677
-0.000136834
0.000135672
0.00528801
-0.000138024
0.000136788
0.00528932
-0.000139139
0.000137828
0.00529071
-0.000140178
0.00013879
0.00529217
-0.000141138
0.000139673
0.00529372
-0.000142018
0.000140474
0.00529534
-0.000142817
0.000141194
0.00529704
-0.000143533
0.00014183
0.00529882
-0.000144165
0.000142382
0.00530069
-0.000144712
0.00014285
0.00530263
-0.000145175
0.000143234
0.00530465
-0.000145553
0.000143532
0.00530675
-0.000145844
0.000143746
0.00530892
-0.000146051
0.000143875
0.00531118
-0.000146172
0.00014392
-0.000146208
0.000143882
0.00529287
-5.16652e-06
0.00529286
-1.36188e-05
0.00529268
-2.46826e-05
0.00529174
-4.84582e-05
0.00528943
-8.96961e-05
0.00528557
-0.000141108
0.00528066
-0.000187829
0.00527556
-0.000217096
0.00527112
-0.000224431
0.00526788
-0.000213467
0.00526597
-0.000191929
0.00526525
-0.000167478
0.00526539
-0.000145393
0.00526607
-0.000128173
0.00526702
-0.000116226
0.00526804
-0.000108818
0.00526903
-0.000104828
0.00526993
-0.000103188
0.00527072
-0.000103056
0.00527141
-0.000103843
0.00527201
-0.000105167
0.00527255
-0.000106794
0.00527303
-0.000108587
0.00527348
-0.000110465
0.00527392
-0.000112383
0.00527435
-0.000114315
0.00527479
-0.000116243
0.00527525
-0.000118156
0.00527573
-0.000120047
0.00527625
-0.000121908
0.0052768
-0.000123735
0.0052774
-0.000125523
0.00527805
-0.000127267
0.00527875
-0.000128963
0.00527951
-0.000130607
0.00528034
-0.000132196
0.00528122
-0.000133726
0.00528218
-0.000135194
0.00528321
-0.000136598
0.00528431
-0.000137933
0.00528548
-0.000139198
0.00528673
-0.00014039
0.00528806
-0.000141506
0.00528947
-0.000142546
0.00529095
-0.000143506
0.00529252
-0.000144386
0.00529417
-0.000145184
0.00529591
-0.000145898
0.00529772
-0.000146528
0.00529962
-0.000147072
0.0053016
-0.000147531
0.00530366
-0.000147904
0.0053058
-0.000148191
0.00530802
-0.000148392
-0.000148506
0.00529287
-5.14008e-06
0.00529285
-1.36011e-05
0.00529266
-2.44943e-05
0.00529174
-4.75364e-05
0.00528947
-8.74288e-05
0.00528569
-0.000137323
0.00528083
-0.000182975
0.00527575
-0.000212013
0.00527127
-0.000219954
0.00526794
-0.000210133
0.00526591
-0.000189894
0.00526503
-0.0001666
0.00526501
-0.000145379
0.00526554
-0.000128705
0.00526636
-0.000117038
0.00526726
-0.000109722
0.00526815
-0.000105712
0.00526895
-0.000103993
0.00526966
-0.000103764
0.00527027
-0.000104455
0.0052708
-0.000105697
0.00527126
-0.000107259
0.00527168
-0.000109004
0.00527207
-0.000110851
0.00527244
-0.000112753
0.0052728
-0.000114681
0.00527318
-0.000116616
0.00527357
-0.000118546
0.00527398
-0.000120462
0.00527443
-0.000122356
0.00527492
-0.000124222
0.00527545
-0.000126054
0.00527603
-0.000127847
0.00527666
-0.000129597
0.00527735
-0.000131299
0.00527811
-0.00013295
0.00527893
-0.000134545
0.00527981
-0.000136082
0.00528077
-0.000137556
0.0052818
-0.000138965
0.00528291
-0.000140305
0.0052841
-0.000141575
0.00528536
-0.000142771
0.00528671
-0.000143891
0.00528813
-0.000144933
0.00528964
-0.000145896
0.00529124
-0.000146777
0.00529291
-0.000147576
0.00529468
-0.00014829
0.00529652
-0.000148919
0.00529846
-0.000149463
0.00530047
-0.00014992
0.00530257
-0.00015029
0.00530475
-0.000150573
-0.000150769
0.00529286
-5.11035e-06
0.00529284
-1.35726e-05
0.00529264
-2.43005e-05
0.00529174
-4.6639e-05
0.00528955
-8.52303e-05
0.00528586
-0.000133638
0.0052811
-0.000178217
0.00527607
-0.000206984
0.00527159
-0.000215467
0.00526818
-0.000206722
0.00526601
-0.000187728
0.00526497
-0.00016556
0.00526478
-0.000145193
0.00526515
-0.000129071
0.00526581
-0.000117698
0.00526658
-0.000110491
0.00526734
-0.000106475
0.00526804
-0.000104693
0.00526865
-0.000104377
0.00526918
-0.000104982
0.00526963
-0.000106147
0.00527002
-0.000107648
0.00527036
-0.000109348
0.00527068
-0.000111165
0.00527098
-0.000113052
0.00527127
-0.000114976
0.00527157
-0.000116919
0.00527189
-0.000118866
0.00527224
-0.000120806
0.00527261
-0.000122732
0.00527303
-0.000124636
0.00527349
-0.000126512
0.005274
-0.000128355
0.00527456
-0.000130158
0.00527518
-0.000131918
0.00527586
-0.000133631
0.0052766
-0.000135291
0.00527742
-0.000136896
0.0052783
-0.000138442
0.00527926
-0.000139924
0.0052803
-0.000141341
0.00528141
-0.000142689
0.00528261
-0.000143966
0.00528389
-0.000145168
0.00528525
-0.000146294
0.00528669
-0.000147341
0.00528822
-0.000148308
0.00528984
-0.000149193
0.00529154
-0.000149994
0.00529333
-0.00015071
0.00529521
-0.000151341
0.00529718
-0.000151884
0.00529923
-0.000152341
0.00530136
-0.00015271
-0.000152991
0.00529286
-5.07732e-06
0.00529282
-1.35326e-05
0.00529262
-2.41015e-05
0.00529175
-4.57711e-05
0.00528964
-8.31138e-05
0.00528608
-0.000130076
0.00528144
-0.000173584
0.0052765
-0.000202037
0.00527202
-0.000210991
0.00526854
-0.000203245
0.00526625
-0.000185435
0.00526504
-0.000164354
0.00526468
-0.000144825
0.00526486
-0.000129257
0.00526536
-0.000118191
0.00526598
-0.000111111
0.00526661
-0.000107108
0.00526719
-0.000105277
0.0052677
-0.000104887
0.00526814
-0.000105414
0.0052685
-0.00010651
0.00526881
-0.000107955
0.00526907
-0.000109613
0.00526931
-0.000111404
0.00526953
-0.000113276
0.00526976
-0.000115198
0.00526998
-0.000117148
0.00527023
-0.000119111
0.0052705
-0.000121076
0.0052708
-0.000123033
0.00527114
-0.000124975
0.00527152
-0.000126894
0.00527195
-0.000128785
0.00527244
-0.000130642
0.00527298
-0.00013246
0.00527358
-0.000134234
0.00527425
-0.00013596
0.00527499
-0.000137633
0.0052758
-0.00013925
0.00527668
-0.000140807
0.00527764
-0.000142301
0.00527868
-0.000143729
0.0052798
-0.000145086
0.005281
-0.000146372
0.00528229
-0.000147582
0.00528366
-0.000148716
0.00528513
-0.00014977
0.00528668
-0.000150743
0.00528832
-0.000151633
0.00529004
-0.000152438
0.00529186
-0.000153158
0.00529377
-0.000153792
0.00529577
-0.000154337
0.00529785
-0.000154795
-0.000155164
0.00529286
-5.04102e-06
0.00529281
-1.34809e-05
0.0052926
-2.3897e-05
0.00529176
-4.49345e-05
0.00528974
-8.10866e-05
0.00528631
-0.00012665
0.00528182
-0.000169093
0.00527698
-0.000197193
0.00527253
-0.000206543
0.005269
-0.000199716
0.00526659
-0.000183022
0.00526522
-0.000162984
0.00526466
-0.000144273
0.00526466
-0.000129258
0.00526498
-0.00011851
0.00526545
-0.000111573
0.00526594
-0.0001076
0.0052664
-0.000105737
0.0052668
-0.000105287
0.00526713
-0.000105747
0.0052674
-0.000106782
0.00526762
-0.000108176
0.0052678
-0.000109796
0.00526796
-0.000111562
0.00526811
-0.000113421
0.00526825
-0.00011534
0.0052684
-0.000117298
0.00526857
-0.000119278
0.00526876
-0.000121267
0.00526898
-0.000123255
0.00526924
-0.000125234
0.00526954
-0.000127197
0.00526989
-0.000129136
0.0052703
-0.000131045
0.00527076
-0.00013292
0.00527128
-0.000134756
0.00527186
-0.000136546
0.00527252
-0.000138288
0.00527325
-0.000139977
0.00527405
-0.000141609
0.00527493
-0.00014318
0.00527589
-0.000144687
0.00527693
-0.000146127
0.00527805
-0.000147497
0.00527926
-0.000148793
0.00528056
-0.000150014
0.00528195
-0.000151157
0.00528342
-0.00015222
0.00528499
-0.000153201
0.00528665
-0.000154098
0.0052884
-0.00015491
0.00529025
-0.000155635
0.00529218
-0.000156273
0.00529421
-0.000156822
-0.000157283
0.00529285
-5.00151e-06
0.00529279
-1.34172e-05
0.00529258
-2.36862e-05
0.00529177
-4.41288e-05
0.00528984
-7.91501e-05
0.00528655
-0.000123366
0.00528222
-0.000164756
0.00527749
-0.000192463
0.00527308
-0.000202139
0.00526951
-0.000196147
0.00526699
-0.000180497
0.00526546
-0.000161453
0.00526472
-0.000143536
0.00526453
-0.00012907
0.00526467
-0.000118649
0.00526497
-0.000111871
0.00526532
-0.000107946
0.00526565
-0.000106067
0.00526593
-0.00010557
0.00526616
-0.000105975
0.00526633
-0.000106956
0.00526646
-0.000108305
0.00526656
-0.000109892
0.00526663
-0.000111635
0.00526669
-0.000113483
0.00526675
-0.000115401
0.00526682
-0.000117367
0.00526691
-0.000119363
0.00526702
-0.000121376
0.00526716
-0.000123395
0.00526733
-0.000125411
0.00526755
-0.000127415
0.00526782
-0.000129402
0.00526813
-0.000131364
0.00526851
-0.000133295
0.00526895
-0.000135191
0.00526945
-0.000137047
0.00527001
-0.000138857
0.00527065
-0.000140617
0.00527137
-0.000142324
0.00527216
-0.000143972
0.00527303
-0.00014556
0.00527399
-0.000147082
0.00527503
-0.000148537
0.00527616
-0.00014992
0.00527737
-0.00015123
0.00527868
-0.000152463
0.00528007
-0.000153617
0.00528157
-0.000154691
0.00528315
-0.000155682
0.00528483
-0.000156588
0.0052866
-0.000157408
0.00528847
-0.00015814
0.00529043
-0.000158785
-0.00015934
0.00529285
-4.95886e-06
0.00529278
-1.33416e-05
0.00529256
-2.34683e-05
0.00529178
-4.33514e-05
0.00528993
-7.73013e-05
0.00528679
-0.000120222
0.0052826
-0.000160573
0.005278
-0.000187855
0.00527364
-0.000197786
0.00527005
-0.000192549
0.00526742
-0.00017787
0.00526574
-0.000159769
0.00526482
-0.00014262
0.00526445
-0.000128697
0.00526441
-0.00011861
0.00526454
-0.000112004
0.00526474
-0.000108143
0.00526493
-0.000106263
0.0052651
-0.000105733
0.00526521
-0.000106092
0.00526529
-0.000107028
0.00526532
-0.000108339
0.00526532
-0.000109896
0.00526531
-0.00011162
0.00526528
-0.000113458
0.00526526
-0.000115377
0.00526524
-0.000117351
0.00526524
-0.000119363
0.00526527
-0.0001214
0.00526532
-0.000123449
0.00526541
-0.0001255
0.00526554
-0.000127546
0.00526572
-0.000129579
0.00526595
-0.000131593
0.00526623
-0.000133581
0.00526658
-0.000135537
0.00526699
-0.000137456
0.00526747
-0.000139334
0.00526802
-0.000141166
0.00526864
-0.000142947
0.00526934
-0.000144673
0.00527012
-0.000146341
0.00527098
-0.000147946
0.00527193
-0.000149486
0.00527297
-0.000150957
0.0052741
-0.000152357
0.00527532
-0.000153681
0.00527663
-0.000154929
0.00527803
-0.000156097
0.00527953
-0.000157183
0.00528113
-0.000158185
0.00528283
-0.000159102
0.00528462
-0.000159932
0.00528651
-0.000160674
-0.000161326
0.00529285
-4.91315e-06
0.00529276
-1.32543e-05
0.00529253
-2.32422e-05
0.00529178
-4.25987e-05
0.00529001
-7.55338e-05
0.005287
-0.000117211
0.00528297
-0.00015654
0.00527849
-0.00018337
0.00527419
-0.000193492
0.00527057
-0.000188931
0.00526786
-0.000175153
0.00526603
-0.000157943
0.00526494
-0.000141533
0.00526439
-0.000128142
0.00526417
-0.000118393
0.00526414
-0.000111972
0.00526419
-0.00010819
0.00526425
-0.000106323
0.00526429
-0.000105773
0.00526429
-0.000106097
0.00526426
-0.000106996
0.00526419
-0.000108273
0.0052641
-0.000109806
0.005264
-0.000111513
0.00526388
-0.000113344
0.00526377
-0.000115263
0.00526366
-0.000117247
0.00526357
-0.000119275
0.00526351
-0.000121335
0.00526347
-0.000123413
0.00526347
-0.0001255
0.00526351
-0.000127587
0.0052636
-0.000129666
0.00526374
-0.00013173
0.00526393
-0.000133772
0.00526418
-0.000135788
0.00526449
-0.000137771
0.00526488
-0.000139716
0.00526533
-0.000141618
0.00526585
-0.000143473
0.00526646
-0.000145277
0.00526714
-0.000147025
0.00526791
-0.000148714
0.00526876
-0.00015034
0.00526971
-0.000151899
0.00527074
-0.000153389
0.00527186
-0.000154806
0.00527308
-0.000156147
0.00527439
-0.000157411
0.00527581
-0.000158594
0.00527732
-0.000159695
0.00527892
-0.000160711
0.00528063
-0.000161641
0.00528244
-0.000162483
-0.000163236
0.00529285
-4.86445e-06
0.00529275
-1.31554e-05
0.00529251
-2.30068e-05
0.00529178
-4.18661e-05
0.00529008
-7.3839e-05
0.0052872
-0.000114323
0.00528331
-0.000152651
0.00527894
-0.000179004
0.00527471
-0.00018926
0.00527108
-0.000185301
0.00526828
-0.000172355
0.00526632
-0.000155986
0.00526507
-0.000140284
0.00526435
-0.000127414
0.00526396
-0.000118004
0.00526376
-0.000111777
0.00526366
-0.000108086
0.00526358
-0.000106246
0.0052635
-0.000105687
0.00526339
-0.000105986
0.00526325
-0.000106856
0.00526308
-0.000108107
0.00526289
-0.000109618
0.00526269
-0.000111312
0.00526248
-0.000113137
0.00526228
-0.000115058
0.00526208
-0.000117051
0.0052619
-0.000119095
0.00526174
-0.000121178
0.00526162
-0.000123285
0.00526152
-0.000125406
0.00526147
-0.000127532
0.00526146
-0.000129656
0.0052615
-0.00013177
0.00526159
-0.000133867
0.00526174
-0.00013594
0.00526196
-0.000137986
0.00526224
-0.000139997
0.00526259
-0.000141969
0.00526302
-0.000143898
0.00526352
-0.000145779
0.0052641
-0.000147607
0.00526477
-0.000149379
0.00526552
-0.000151091
0.00526636
-0.000152738
0.00526729
-0.000154319
0.00526831
-0.000155829
0.00526943
-0.000157266
0.00527065
-0.000158627
0.00527196
-0.000159908
0.00527337
-0.000161109
0.00527489
-0.000162226
0.00527651
-0.000163258
0.00527823
-0.000164203
-0.000165059
0.00529284
-4.81286e-06
0.00529273
-1.30452e-05
0.00529249
-2.27611e-05
0.00529177
-4.11487e-05
0.00529014
-7.22074e-05
0.00528736
-0.000111546
0.0052836
-0.000148893
0.00527935
-0.000174751
0.00527518
-0.000185089
0.00527154
-0.000181666
0.00526868
-0.000169488
0.0052666
-0.000153909
0.0052652
-0.000138884
0.00526431
-0.000126521
0.00526375
-0.00011745
0.0052634
-0.000111423
0.00526315
-0.000107834
0.00526293
-0.000106032
0.00526272
-0.000105475
0.00526249
-0.000105759
0.00526224
-0.000106606
0.00526197
-0.000107836
0.00526169
-0.00010933
0.00526139
-0.000111013
0.00526108
-0.000112834
0.00526078
-0.000114758
0.00526049
-0.00011676
0.00526022
-0.000118821
0.00525997
-0.000120926
0.00525974
-0.000123061
0.00525955
-0.000125215
0.0052594
-0.00012738
0.00525929
-0.000129548
0.00525923
-0.00013171
0.00525923
-0.000133859
0.00525928
-0.00013599
0.00525939
-0.000138097
0.00525956
-0.000140174
0.00525981
-0.000142215
0.00526013
-0.000144217
0.00526052
-0.000146174
0.005261
-0.000148081
0.00526155
-0.000149936
0.0052622
-0.000151733
0.00526293
-0.00015347
0.00526375
-0.000155142
0.00526467
-0.000156746
0.00526568
-0.000158278
0.00526679
-0.000159737
0.005268
-0.000161118
0.00526931
-0.000162421
0.00527072
-0.000163641
0.00527224
-0.000164777
0.00527387
-0.000165826
-0.000166788
0.00529284
-4.75842e-06
0.00529272
-1.29242e-05
0.00529246
-2.25042e-05
0.00529175
-4.04419e-05
0.00529018
-7.06291e-05
0.0052875
-0.000108866
0.00528386
-0.000145253
0.00527971
-0.000170603
0.0052756
-0.000180978
0.00527196
-0.000178031
0.00526903
-0.00016656
0.00526685
-0.000151724
0.00526531
-0.000137344
0.00526426
-0.000125474
0.00526355
-0.000116738
0.00526304
-0.000110916
0.00526265
-0.000107437
0.0052623
-0.000105684
0.00526196
-0.000105138
0.00526161
-0.000105413
0.00526125
-0.000106245
0.00526088
-0.000107459
0.00526049
-0.00010894
0.00526009
-0.000110615
0.00525969
-0.000112433
0.00525929
-0.000114361
0.0052589
-0.000116373
0.00525853
-0.00011845
0.00525818
-0.000120576
0.00525786
-0.000122738
0.00525757
-0.000124925
0.00525732
-0.000127127
0.00525711
-0.000129337
0.00525694
-0.000131546
0.00525683
-0.000133747
0.00525677
-0.000135934
0.00525678
-0.0001381
0.00525684
-0.000140241
0.00525698
-0.00014235
0.00525718
-0.000144423
0.00525747
-0.000146456
0.00525783
-0.000148442
0.00525827
-0.000150379
0.0052588
-0.000152262
0.00525942
-0.000154087
0.00526012
-0.00015585
0.00526093
-0.000157548
0.00526182
-0.000159177
0.00526282
-0.000160734
0.00526392
-0.000162216
0.00526512
-0.000163621
0.00526643
-0.000164945
0.00526784
-0.000166187
0.00526935
-0.000167344
-0.000168414
0.00529284
-4.70119e-06
0.00529271
-1.27926e-05
0.00529244
-2.22356e-05
0.00529174
-3.97414e-05
0.0052902
-6.90946e-05
0.00528761
-0.00010627
0.00528407
-0.000141719
0.00528002
-0.00016655
0.00527596
-0.000176924
0.00527233
-0.000174398
0.00526935
-0.000163579
0.00526707
-0.000149441
0.0052654
-0.000135676
0.00526421
-0.000124281
0.00526334
-0.000115875
0.00526269
-0.000110261
0.00526215
-0.000106898
0.00526167
-0.000105201
0.00526121
-0.000104675
0.00526074
-0.00010495
0.00526027
-0.000105773
0.00525979
-0.000106975
0.00525929
-0.000108446
0.00525879
-0.000110115
0.00525829
-0.000111933
0.0052578
-0.000113865
0.00525731
-0.000115887
0.00525684
-0.000117979
0.00525639
-0.000120126
0.00525596
-0.000122314
0.00525557
-0.000124532
0.00525521
-0.00012677
0.0052549
-0.000129021
0.00525463
-0.000131275
0.0052544
-0.000133525
0.00525424
-0.000135766
0.00525413
-0.000137991
0.00525408
-0.000140194
0.0052541
-0.00014237
0.00525419
-0.000144514
0.00525436
-0.00014662
0.0052546
-0.000148685
0.00525492
-0.000150703
0.00525533
-0.00015267
0.00525583
-0.000154583
0.00525641
-0.000156437
0.00525709
-0.000158228
0.00525787
-0.000159954
0.00525875
-0.00016161
0.00525973
-0.000163194
0.00526081
-0.000164702
0.00526199
-0.000166132
0.00526329
-0.000167482
0.00526469
-0.000168747
-0.000169927
0.00529283
-4.64121e-06
0.00529269
-1.26508e-05
0.00529241
-2.19546e-05
0.00529171
-3.90434e-05
0.00529021
-6.75954e-05
0.00528769
-0.000103746
0.00528425
-0.000138277
0.00528028
-0.000162582
0.00527628
-0.000172922
0.00527265
-0.000170769
0.00526962
-0.000160553
0.00526725
-0.000147069
0.00526546
-0.000133889
0.00526414
-0.000122952
0.00526313
-0.00011487
0.00526233
-0.000109464
0.00526166
-0.000106223
0.00526105
-0.000104589
0.00526046
-0.000104088
0.00525988
-0.000104369
0.00525929
-0.000105188
0.0052587
-0.000106383
0.0052581
-0.000107847
0.0052575
-0.000109512
0.0052569
-0.00011133
0.0052563
-0.000113267
0.00525571
-0.000115299
0.00525514
-0.000117406
0.00525459
-0.000119573
0.00525406
-0.000121785
0.00525356
-0.000124033
0.00525309
-0.000126306
0.00525267
-0.000128595
0.00525229
-0.000130893
0.00525195
-0.000133191
0.00525167
-0.000135485
0.00525145
-0.000137766
0.00525128
-0.00014003
0.00525118
-0.00014227
0.00525115
-0.000144483
0.00525119
-0.000146662
0.00525131
-0.000148803
0.00525151
-0.000150901
0.00525179
-0.000152952
0.00525216
-0.000154951
0.00525262
-0.000156896
0.00525317
-0.000158781
0.00525382
-0.000160603
0.00525457
-0.000162358
0.00525542
-0.000164044
0.00525637
-0.000165656
0.00525743
-0.000167193
0.0052586
-0.00016865
0.00525988
-0.000170026
-0.000171318
0.00529283
-4.57851e-06
0.00529268
-1.24991e-05
0.00529239
-2.1661e-05
0.00529169
-3.83447e-05
0.00529022
-6.61238e-05
0.00528775
-0.000101282
0.00528439
-0.000134915
0.0052805
-0.00015869
0.00527654
-0.000168968
0.00527292
-0.000167145
0.00526985
-0.000157486
0.0052674
-0.000144616
0.0052655
-0.000131993
0.00526405
-0.000121497
0.00526291
-0.00011373
0.00526198
-0.000108531
0.00526117
-0.000105414
0.00526043
-0.000103848
0.00525972
-0.00010338
0.00525902
-0.000103672
0.00525832
-0.000104491
0.00525762
-0.000105682
0.00525692
-0.000107142
0.00525621
-0.000108805
0.0052555
-0.000110624
0.0052548
-0.000112567
0.00525411
-0.000114608
0.00525344
-0.000116729
0.00525278
-0.000118915
0.00525214
-0.000121151
0.00525154
-0.000123426
0.00525096
-0.000125732
0.00525042
-0.000128058
0.00524993
-0.000130397
0.00524948
-0.000132741
0.00524908
-0.000135085
0.00524873
-0.00013742
0.00524845
-0.000139743
0.00524822
-0.000142046
0.00524806
-0.000144325
0.00524798
-0.000146575
0.00524797
-0.000148791
0.00524803
-0.000150967
0.00524818
-0.000153101
0.00524842
-0.000155186
0.00524874
-0.00015722
0.00524916
-0.000159197
0.00524967
-0.000161115
0.00525028
-0.00016297
0.005251
-0.000164757
0.00525181
-0.000166474
0.00525274
-0.000168118
0.00525377
-0.000169685
0.00525492
-0.000171172
-0.000172577
0.00529283
-4.5131e-06
0.00529267
-1.23378e-05
0.00529236
-2.13544e-05
0.00529166
-3.76427e-05
0.00529021
-6.46735e-05
0.0052878
-9.88685e-05
0.0052845
-0.000131621
0.00528068
-0.000154865
0.00527677
-0.000165057
0.00527315
-0.000163526
0.00527004
-0.000154382
0.00526752
-0.00014209
0.00526552
-0.000129995
0.00526394
-0.000119922
0.00526268
-0.000112462
0.00526161
-0.000107467
0.00526067
-0.000104477
0.00525981
-0.000102982
0.00525898
-0.000102551
0.00525817
-0.000102858
0.00525736
-0.000103682
0.00525655
-0.000104872
0.00525574
-0.000106331
0.00525492
-0.000107993
0.00525411
-0.000109814
0.00525331
-0.000111762
0.00525251
-0.000113812
0.00525173
-0.000115947
0.00525096
-0.000118149
0.00525022
-0.000120407
0.0052495
-0.000122709
0.00524882
-0.000125045
0.00524816
-0.000127406
0.00524755
-0.000129784
0.00524698
-0.000132172
0.00524646
-0.000134563
0.00524599
-0.000136951
0.00524558
-0.000139329
0.00524522
-0.000141693
0.00524494
-0.000144037
0.00524472
-0.000146355
0.00524457
-0.000148644
0.0052445
-0.000150897
0.00524451
-0.000153111
0.0052446
-0.000155281
0.00524479
-0.000157402
0.00524506
-0.000159471
0.00524543
-0.000161484
0.0052459
-0.000163437
0.00524646
-0.000165326
0.00524714
-0.000167147
0.00524792
-0.000168898
0.00524881
-0.000170575
0.00524981
-0.000172174
-0.000173694
0.00529283
-4.44501e-06
0.00529266
-1.21671e-05