/*--------------------------------*- C++ -*----------------------------------*\
| =========                 |                                                 |
| \\      /  F ield         | OpenFOAM: The Open Source CFD Toolbox           |
|  \\    /   O peration     | Version:  2412                                  |
|   \\  /    A nd           | Website:  www.openfoam.com                      |
|    \\/     M anipulation  |                                                 |
\*---------------------------------------------------------------------------*/
FoamFile
{
    version     2.0;
    format      ascii;
    arch        "LSB;label=32;scalar=64";
    class       surfaceScalarField;
    location    "23";
    object      phi;
}
// * * * * * * * * * * * * * * * * * * * * * * * * * * * * * * * * * * * * * //

dimensions      [0 3 -1 0 0 0 0];

oriented        oriented;

internalField   nonuniform List<scalar> 
10422
(
0.0058032
-9.2465e-05
-0.00579917
8.84308e-05
0.00580659
-7.82778e-05
7.48936e-05
0.00580932
-6.39243e-05
6.11927e-05
0.00581139
-4.94281e-05
4.7357e-05
0.00581279
-3.48238e-05
3.34196e-05
0.00581353
-2.01528e-05
1.9419e-05
0.00581359
-5.45661e-06
5.39329e-06
0.00581299
9.22478e-06
-8.62021e-06
0.00581172
2.38519e-05
-2.25848e-05
0.0058098
3.83862e-05
-3.64644e-05
0.00580723
5.27903e-05
-5.02242e-05
0.00580403
6.70279e-05
-6.38306e-05
0.00580022
8.10648e-05
-7.72514e-05
0.00579581
9.48682e-05
-9.0456e-05
0.00579082
0.000108407
-0.000103416
0.00578527
0.000121653
-0.000116103
0.00577918
0.000134579
-0.000128494
0.00577259
0.00014716
-0.000140564
0.00576551
0.000159373
-0.000152293
0.00575797
0.000171197
-0.000163659
0.00575
0.000182612
-0.000174646
0.00574164
0.000193602
-0.000185236
0.0057329
0.00020415
-0.000195414
0.000214242
-0.000205167
0.00581737
-9.67197e-05
-0.00581311
0.00582093
-8.18473e-05
0.00582381
-6.68002e-05
0.00582599
-5.16029e-05
0.00582745
-3.62907e-05
0.00582821
-2.09085e-05
0.00582825
-5.50097e-06
0.00582759
9.88876e-06
0.00582622
2.52184e-05
0.00582416
4.04464e-05
0.00582142
5.55326e-05
0.00581801
7.04384e-05
0.00581395
8.51267e-05
0.00580925
9.95626e-05
0.00580395
0.000113713
0.00579805
0.000127547
0.0057916
0.000141036
0.0057846
0.000154154
0.0057771
0.000166875
0.00576912
0.000179178
0.00576069
0.000191041
0.00575184
0.000202448
0.00574261
0.000213379
0.000223823
0.00583221
-0.000101214
-0.00582772
0.00583598
-8.5615e-05
0.00583901
-6.98312e-05
0.00584129
-5.38885e-05
0.00584283
-3.78242e-05
0.00584361
-2.16866e-05
0.00584363
-5.52375e-06
0.0058429
1.06178e-05
0.00584143
2.66925e-05
0.00583922
4.2656e-05
0.00583628
5.8465e-05
0.00583264
7.40781e-05
0.00582831
8.94556e-05
0.00582332
0.00010456
0.00581767
0.000119356
0.00581141
0.00013381
0.00580456
0.000147892
0.00579714
0.000161574
0.00578918
0.000174828
0.00578073
0.000187633
0.0057718
0.000199964
0.00576245
0.000211804
0.00575269
0.000223135
0.000233941
0.00584778
-0.000105967
-0.00584303
0.00585176
-8.95949e-05
0.00585495
-7.30276e-05
0.00585736
-5.6292e-05
0.00585896
-3.94279e-05
0.00585976
-2.24872e-05
0.00585976
-5.52189e-06
0.00585896
1.14181e-05
0.00585737
2.82838e-05
0.005855
4.50275e-05
0.00585186
6.16026e-05
0.00584797
7.79648e-05
0.00584336
9.40716e-05
0.00583803
0.000109883
0.00583203
0.00012536
0.00582537
0.000140468
0.00581809
0.000155175
0.00581021
0.00016945
0.00580178
0.000183264
0.00579282
0.000196593
0.00578337
0.000209414
0.00577347
0.000221706
0.00576315
0.00023345
0.000244632
0.00586412
-0.000110995
-0.00585909
0.00586832
-9.3801e-05
0.0058717
-7.63999e-05
0.00587422
-5.88205e-05
0.0058759
-4.11052e-05
0.00587672
-2.33103e-05
0.00587669
-5.49168e-06
0.00587582
1.22968e-05
0.0058741
3.00026e-05
0.00587155
4.75743e-05
0.00586819
6.4962e-05
0.00586404
8.21179e-05
0.00585911
9.89966e-05
0.00585344
0.000115555
0.00584705
0.000131752
0.00583997
0.000147551
0.00583223
0.000162915
0.00582386
0.000177813
0.00581491
0.000192215
0.00580541
0.000206095
0.0057954
0.000219426
0.00578491
0.000232189
0.005774
0.000244363
0.000255933
0.00588128
-0.000116317
-0.00587595
0.00588572
-9.82483e-05
0.00588928
-7.99591e-05
0.00589194
-6.14809e-05
0.0058937
-4.28594e-05
0.00589454
-2.41552e-05
0.00589448
-5.42867e-06
0.00589351
1.32621e-05
0.00589166
3.18606e-05
0.00588892
5.03115e-05
0.00588532
6.85612e-05
0.00588088
8.65586e-05
0.00587562
0.000104255
0.00586957
0.000121603
0.00586276
0.000138561
0.00585523
0.000155088
0.005847
0.000171145
0.00583811
0.000186699
0.00582861
0.000201718
0.00581853
0.000216173
0.00580792
0.000230039
0.00579681
0.000243292
0.00578526
0.000255913
0.000267884
0.00589931
-0.000121955
-0.00589367
0.00590401
-0.000102953
0.00590777
-8.37168e-05
0.00591057
-6.42806e-05
0.0059124
-4.46934e-05
0.00591327
-2.50206e-05
0.00591317
-5.3275e-06
0.00591211
1.43233e-05
0.0059101
3.38709e-05
0.00590715
5.32558e-05
0.00590329
7.24205e-05
0.00589854
9.13101e-05
0.00589292
0.000109872
0.00588647
0.000128057
0.00587921
0.000145819
0.00587119
0.000163113
0.00586243
0.000179901
0.00585299
0.000196145
0.00584289
0.000211811
0.0058322
0.00022687
0.00582094
0.000241294
0.00580918
0.000255058
0.00579695
0.000268142
0.000280528
0.00591827
-0.00012793
-0.0059123
0.00592325
-0.000107931
0.00592722
-8.76851e-05
0.00593017
-6.7227e-05
0.00593208
-4.66098e-05
0.00593297
-2.59046e-05
0.00593282
-5.18182e-06
0.00593165
1.5491e-05
0.00592948
3.60482e-05
0.00592631
5.64258e-05
0.00592216
7.65622e-05
0.00591708
9.63982e-05
0.00591107
0.000115878
0.00590418
0.000134948
0.00589644
0.000153559
0.00588789
0.000171664
0.00587857
0.000189221
0.00586852
0.000206191
0.0058578
0.000222537
0.00584644
0.000238228
0.0058345
0.000253235
0.00582202
0.000267531
0.00580907
0.000281096
0.000293912
0.00593823
-0.000134265
-0.00593189
0.0059435
-0.000113202
0.00594769
-9.18769e-05
0.00595079
-7.03275e-05
0.00595279
-4.86111e-05
0.00595369
-2.68045e-05
0.00595349
-4.98406e-06
0.00595221
1.67774e-05
0.00594985
3.84092e-05
0.00594643
5.98425e-05
0.00594198
8.10109e-05
0.00593653
0.000101851
0.0059301
0.000122303
0.00592274
0.00014231
0.00591448
0.000161819
0.00590536
0.00018078
0.00589544
0.000199148
0.00588475
0.000216881
0.00587334
0.000233941
0.00586128
0.000250295
0.0058486
0.00026591
0.00583537
0.000280761
0.00582164
0.000294825
0.000308084
0.00595924
-0.000140986
-0.00595252
0.00596482
-0.000118784
0.00596925
-9.63055e-05
0.00597251
-7.35898e-05
0.0059746
-5.06991e-05
0.00597551
-2.77167e-05
0.00597526
-4.72518e-06
0.00597384
1.81967e-05
0.00597127
4.09728e-05
0.00596759
6.35291e-05
0.0059628
8.57944e-05
0.00595695
0.000107701
0.00595007
0.000129184
0.0059422
0.000150183
0.00593338
0.000170641
0.00592365
0.000190505
0.00591307
0.000209728
0.00590169
0.000228264
0.00588956
0.000246073
0.00587673
0.00026312
0.00586327
0.000279372
0.00584923
0.000294801
0.00583467
0.000309383
0.0003231
0.00598138
-0.000148119
-0.00597425
0.0059873
-0.000124699
0.00599198
-0.000100985
0.00599541
-7.70211e-05
0.00599758
-5.28747e-05
0.0059985
-2.8636e-05
0.00599817
-4.39435e-06
0.0059966
1.97651e-05
0.00599382
4.37605e-05
0.00598983
6.75121e-05
0.00598469
9.09435e-05
0.0059784
0.000113982
0.00597103
0.000136558
0.00596261
0.000158607
0.00595318
0.000180069
0.00594279
0.000200888
0.00593151
0.000221011
0.00591938
0.000240392
0.00590647
0.000258988
0.00589283
0.000276761
0.00587852
0.000293677
0.00586362
0.000309707
0.00584817
0.000324826
0.000339015
0.00600474
-0.000155694
-0.00599716
0.006011
-0.000130966
0.00601595
-0.000105928
0.00601955
-8.06282e-05
0.00602182
-5.51379e-05
0.00602274
-2.95557e-05
0.00602232
-3.97851e-06
0.00602059
2.15018e-05
0.00601755
4.6797e-05
0.00601324
7.18213e-05
0.00600769
9.64927e-05
0.00600094
0.000120733
0.00599303
0.000144469
0.005984
0.000167631
0.00597392
0.000190155
0.00596283
0.00021198
0.00595078
0.000233052
0.00593785
0.000253322
0.0059241
0.000272743
0.00590958
0.000291276
0.00589437
0.000308886
0.00587854
0.000325541
0.00586215
0.000341217
0.000355894
0.00602938
-0.00016374
-0.00602134
0.00603602
-0.000137608
0.00604125
-0.00011115
0.00604503
-8.44169e-05
0.00604738
-5.74869e-05
0.00604829
-3.04669e-05
0.00604778
-3.4618e-06
0.00604585
2.3429e-05
0.00604254
5.01106e-05
0.00603787
7.64907e-05
0.00603188
0.000102481
0.00602461
0.000127999
0.00601612
0.000152965
0.00600644
0.000177306
0.00599564
0.000200952
0.00598378
0.000223841
0.00597092
0.000245913
0.00595713
0.000267117
0.00594247
0.000287404
0.00592701
0.000306733
0.00591083
0.000325066
0.005894
0.000342371
0.00587659
0.000358623
0.000373802
0.00605541
-0.000172288
-0.00604686
0.00606245
-0.000144647
0.00606796
-0.000116663
0.00607194
-8.83917e-05
0.00607437
-5.99179e-05
0.00607526
-3.13577e-05
0.00607462
-2.82483e-06
0.00607248
2.55732e-05
0.00606886
5.37342e-05
0.00606379
8.15591e-05
0.00605732
0.000108954
0.00604949
0.000135829
0.00604035
0.0001621
0.00602997
0.00018769
0.0060184
0.000212523
0.0060057
0.000236534
0.00599196
0.00025966
0.00597723
0.000281845
0.00596159
0.000303041
0.00594512
0.000323202
0.0059279
0.000342289
0.00591
0.00036027
0.00589151
0.000377118
0.000392813
0.00608293
-0.000181373
-0.00607384
0.00609038
-0.000152105
0.0060962
-0.000122479
0.00610036
-9.25548e-05
0.00610287
-6.24237e-05
0.00610372
-3.22122e-05
0.00610294
-2.04367e-06
0.00610055
2.79658e-05
0.00609658
5.77063e-05
0.00609107
8.70715e-05
0.00608406
0.00011596
0.00607561
0.000144278
0.00606578
0.000171934
0.00605462
0.000198846
0.00604221
0.000224935
0.00602861
0.00025013
0.0060139
0.000274366
0.00599817
0.000297583
0.00598148
0.000319731
0.00596392
0.000340761
0.00594557
0.000360634
0.00592653
0.000379316
0.00590687
0.000396779
0.000413003
0.00611203
-0.000191025
-0.00610238
0.00611993
-0.000160003
0.00612606
-0.000128608
0.00613041
-9.69052e-05
0.00613298
-6.49932e-05
0.00613377
-3.30097e-05
0.00613282
-1.08851e-06
0.00613014
3.06449e-05
0.00612577
6.20726e-05
0.00611977
9.30801e-05
0.00611217
0.00012356
0.00610303
0.00015341
0.00609243
0.000182536
0.00608043
0.000210848
0.0060671
0.000238265
0.00605252
0.000264708
0.00603678
0.000290112
0.00601995
0.000314413
0.00600212
0.000337557
0.00598339
0.000359496
0.00596383
0.000380186
0.00594356
0.000399594
0.00592264
0.000417691
0.000434457
0.00614284
-0.000201278
-0.00613259
0.0061512
-0.00016836
0.00615764
-0.000135057
0.00616218
-0.000101437
0.00616479
-6.76094e-05
0.00616551
-3.37226e-05
0.00616434
7.7825e-08
0.00616133
3.36568e-05
0.00615651
6.6887e-05
0.00614995
9.96462e-05
0.00614169
0.000131819
0.0061318
0.000163298
0.00612035
0.000193982
0.00610742
0.000223777
0.00609309
0.000252596
0.00607745
0.000280356
0.00606057
0.000306988
0.00604256
0.000332426
0.0060235
0.000356614
0.0060035
0.000379499
0.00598264
0.000401039
0.00596104
0.000421197
0.00593879
0.000439944
0.000457263
0.00617547
-0.00616459
0.00618431
0.00619108
0.00619578
0.00619842
0.00619901
0.00619758
0.00619418
0.00618886
0.00618166
0.00617266
0.00616194
0.00614956
0.00613561
0.000237726
0.00612018
0.000268024
0.00610336
0.000297172
0.00608526
0.000325094
0.00606596
0.000351724
0.00604557
0.000377001
0.0060242
0.000400871
0.00600195
0.000423291
0.00597892
0.000444222
0.00595523
0.000463637
0.000481516
0.00616496
0.00614833
0.00613023
0.00611079
0.00609009
0.00606827
0.00604542
0.00602166
0.0059971
0.00597187
0.00545248
-0.000178254
-0.00543821
0.000163986
0.00547989
-0.00018096
0.000153551
0.00552017
-0.000183061
0.000142778
0.0055729
-0.000184418
0.00013169
0.00563749
-0.000184902
0.000120314
0.0057132
-0.000184389
0.000108673
-0.000182754
9.67893e-05
0.00546314
-0.000192965
-0.00544843
0.00549102
-0.000208844
0.00553181
-0.000223849
0.00558507
-0.000237682
0.00565023
-0.000250056
0.00572654
-0.000260697
-0.000269329
0.00547425
-0.000208149
-0.00545907
0.00550264
-0.000237232
0.00554396
-0.000265173
0.00559779
-0.000291514
0.00566355
-0.00031581
0.00574048
-0.000337635
-0.00035656
0.00548584
-0.000223836
-0.00547015
0.00551476
-0.000266157
0.00555666
-0.000307068
0.00561109
-0.00034595
0.00567749
-0.000382202
0.00575509
-0.000415245
-0.000444491
0.00549792
-0.000240062
-0.0054817
0.00552742
-0.000295656
0.00556993
-0.000349572
0.00562501
-0.000401032
0.00569208
-0.000449276
0.00577041
-0.000493572
-0.000533171
0.00551053
-0.000256863
-0.00549373
0.00554065
-0.000325767
0.0055838
-0.000392727
0.00563957
-0.000456803
0.00570738
-0.000517079
0.00578647
-0.000572667
-0.000622654
0.00552369
-0.000274282
-0.00550628
0.00555446
-0.000356536
0.00559832
-0.00043658
0.00565483
-0.000513313
0.00572341
-0.000585663
0.00580333
-0.000652585
-0.000712998
0.00553744
-0.000292364
-0.00551936
0.00556891
-0.000388009
0.00561351
-0.000481179
0.00567081
-0.000570614
0.00574023
-0.000655083
0.00582103
-0.000733385
-0.000804266
0.00555179
-0.000311155
-0.005533
0.00558402
-0.000420235
0.00562942
-0.000526578
0.00568757
-0.000628763
0.00575789
-0.000725401
0.00583963
-0.000815132
-0.000896525
0.0055668
-0.000330709
-0.00554724
0.00559984
-0.000453272
0.00564609
-0.000572836
0.00570515
-0.000687822
0.00577643
-0.000796681
0.0058592
-0.000897895
-0.000989849
0.00558249
-0.000351084
-0.00556211
0.0056164
-0.000487179
0.00566358
-0.000620017
0.00572361
-0.000747858
0.00579593
-0.000868995
0.00587978
-0.00098175
-0.00108432
0.00559891
-0.000372342
-0.00557765
0.00563375
-0.000522022
0.00568192
-0.000668188
0.00574301
-0.000808943
0.00581643
-0.00094242
0.00590146
-0.00106678
-0.00118002
0.0056161
-0.00039455
-0.00559389
0.00565195
-0.000557871
0.00570119
-0.000717426
0.0057634
-0.000871157
0.00583802
-0.00101704
0.00592431
-0.00115307
-0.00127705
0.00563411
-0.000417784
-0.00561087
0.00567104
-0.000594806
0.00572143
-0.000767811
0.00578486
-0.000934585
0.00586076
-0.00109295
0.00594841
-0.00124072
-0.0013755
0.00565299
-0.000442125
-0.00562865
0.00569109
-0.000632909
0.00574271
-0.000819432
0.00580745
-0.000999322
0.00588474
-0.00117023
0.00597385
-0.00132983
-0.00147549
0.0056728
-0.000467661
-0.00564726
0.00571216
-0.000672275
0.00576512
-0.000872386
0.00583127
-0.00106547
0.00591005
-0.00124902
0.00600073
-0.00142052
-0.00157713
0.0056936
-0.00049449
-0.00566677
0.00573433
-0.000713003
0.00578872
-0.00092678
0.00585639
-0.00113313
0.00593678
-0.0013294
0.00602916
-0.00151291
-0.00168056
0.00571545
-0.000522718
-0.00568722
0.00575766
-0.000755206
0.0058136
-0.000982727
0.00588291
-0.00120244
0.00596503
-0.00141153
0.00605925
-0.00160712
-0.00178589
0.00573844
-0.000552464
-0.00570869
0.00578223
-0.000799005
0.00583986
0.00591094
0.00599494
0.00609112
0.00576262
-0.00573123
0.00562299
-0.000154424
-0.00569456
0.000225993
0.00556192
-0.000157343
0.000218416
0.00551219
-0.00016066
0.000210395
0.00547448
-0.000164236
0.000201938
0.00544936
-0.000167927
0.000193054
0.00543719
-0.00017159
0.000183757
-0.000175081
0.000174061
0.0056312
-8.30655e-05
-0.00570256
0.00557038
-9.65217e-05
0.00552093
-0.000111212
0.00548355
-0.000126853
0.00545877
-0.000143151
0.00544699
-0.000159807
-0.000176515
0.0056397
-1.19387e-05
-0.00571082
0.00557915
-3.59717e-05
0.00553001
-6.20716e-05
0.00549297
-8.98131e-05
0.00546857
-0.000118752
0.00545719
-0.000148433
-0.00017839
0.00564848
5.89277e-05
-0.00571934
0.00558822
2.42841e-05
0.00553941
-1.32623e-05
0.00550274
-5.31416e-05
0.00547874
-9.47553e-05
0.00546781
-0.000137495
-0.000180734
0.00565754
0.000129515
-0.00572813
0.00559761
8.42187e-05
0.00554916
3.51854e-05
0.00551288
-1.68649e-05
0.00548932
-7.11916e-05
0.00547885
-0.000127026
-0.000183582
0.00566691
0.000199796
-0.00573719
0.00560732
0.000143806
0.00555926
8.3245e-05
0.00552341
1.89831e-05
0.00550031
-4.80925e-05
0.00549034
-0.000117059
-0.00018697
0.00567657
0.000269744
-0.00574652
0.00561736
0.000203016
0.00556972
0.000130884
0.00553434
5.43674e-05
0.00551174
-2.54904e-05
0.00550231
-0.000107633
-0.000190936
0.00568655
0.000339327
-0.00575613
0.00562775
0.000261817
0.00558056
0.000178069
0.00554568
8.92489e-05
0.00552361
-3.41852e-06
0.00551477
-9.87923e-05
-0.000195523
0.00569684
0.000408512
-0.00576603
0.00563849
0.000320173
0.00559179
0.000224762
0.00555744
0.000123603
0.00553598
1.80438e-05
0.00552775
-9.05656e-05
-0.000200777
0.00570746
0.000477261
-0.00577621
0.00564959
0.000378043
0.00560343
0.00027092
0.00556967
0.000157371
0.00554882
3.88867e-05
0.00554127
-8.30157e-05
-0.000206748
0.00571842
0.000545532
-0.00578669
0.00566108
0.000435384
0.0056155
0.000316497
0.00558236
0.000190507
0.00556219
5.90547e-05
0.00555537
-7.61917e-05
-0.000213492
0.00572971
0.000613278
-0.00579746
0.00567295
0.000492146
0.005628
0.000361442
0.00559555
0.000222961
0.00557612
7.84899e-05
0.00557007
-7.01503e-05
-0.000221068
0.00574135
0.000680447
-0.00580852
0.00568522
0.000548276
0.00564096
0.000405698
0.00560925
0.000254671
0.00559061
9.71315e-05
0.00558542
-6.49541e-05
-0.000229541
0.00575334
0.00074698
-0.00581988
0.00569791
0.000603714
0.0056544
0.000449204
0.00562349
0.000285576
0.00560571
0.000114913
0.00560143
-6.06718e-05
-0.000238984
0.00576569
0.000812813
-0.00583152
0.00571101
0.000658392
0.00566833
0.00049189
0.0056383
0.000315603
0.00562145
0.00013176
0.00561816
-5.73792e-05
-0.000249473
0.0057784
0.000877871
-0.00584346
0.00572455
0.000712236
0.00568276
0.00053368
0.00565369
0.000344673
0.00563786
0.000147593
0.00563564
-5.51594e-05
-0.000261095
0.00579146
0.000942073
-0.00585567
0.00573854
0.000765161
0.00569773
0.000574488
0.0056697
0.000372698
0.00565498
0.000162321
0.00565392
-5.41038e-05
-0.000273944
0.00580489
0.00100532
-0.00586814
0.00575297
0.000817074
0.00571324
0.000614218
0.00568636
0.000399583
0.00567283
0.000175846
0.00567304
-5.43145e-05
-0.000288123
0.00581866
0.00576787
0.00572932
0.00570369
0.00569147
0.00569306
-5.59035e-05
-0.000303749
0.00571403
0.0053784
-0.000262081
0.00025623
0.00538451
-0.00026609
0.000259984
0.00539087
-0.000270024
0.000263658
0.0053975
-0.000273868
0.000267239
0.0054044
-0.000277606
0.00027071
0.00541156
-0.000281222
0.000274055
0.005419
-0.000284699
0.000277261
0.00542671
-0.000288022
0.000280311
0.0054347
-0.000291172
0.000283187
0.00544296
-0.00029413
0.000285873
0.00545148
-0.000296877
0.00028835
0.00546028
-0.000299394
0.0002906
0.00546934
-0.00030166
0.000292603
0.00547865
-0.000303654
0.000294341
0.00548821
-0.000305355
0.000295793
0.00549801
-0.00030674
0.000296939
0.00550804
-0.000307789
0.000297759
0.00551829
-0.000308479
0.000298232
0.00552874
-0.000308788
0.00029834
0.00553937
-0.000308695
0.00029806
0.00555017
-0.000308178
0.000297376
0.00556112
-0.000307216
0.000296266
0.0055722
-0.000305791
0.000294714
0.00558338
-0.000303882
0.000292701
0.00559464
-0.000301472
0.000290213
0.00560595
-0.000298544
0.000287234
0.00561729
-0.000295084
0.00028375
0.00562861
-0.000291078
0.00027975
0.0056399
-0.000286515
0.000275224
0.00565112
-0.000281385
0.000270165
0.00566224
-0.000275681
0.000264565
0.00567321
-0.000269395
0.00025842
0.00568401
-0.00026252
0.000251725
-0.000255024
0.000244471
0.00537434
-0.000268001
0.00538052
-0.000272277
0.00538698
-0.000276484
0.00539372
-0.000280607
0.00540074
-0.000284627
0.00540805
-0.000288529
0.00541565
-0.000292296
0.00542354
-0.00029591
0.00543172
-0.000299352
0.00544019
-0.000302601
0.00544895
-0.000305639
0.005458
-0.000308443
0.00546733
-0.000310993
0.00547694
-0.000313264
0.00548682
-0.000315235
0.00549696
-0.000316882
0.00550736
-0.000318181
0.00551798
-0.000319108
0.00552884
-0.000319641
0.0055399
-0.000319755
0.00555115
-0.000319426
0.00556256
-0.000318633
0.00557412
-0.000317353
0.00558581
-0.000315565
0.00559758
-0.000313249
0.00560943
-0.000310388
0.00562131
-0.000306964
0.00563319
-0.000302962
0.00564505
-0.00029837
0.00565684
-0.000293177
0.00566853
-0.000287372
0.00568008
-0.000280947
0.00569145
-0.000273886
-0.000266136
0.00537001
-0.000273981
0.00537628
-0.000278539
0.00538283
-0.000283034
0.00538967
-0.000287451
0.00539681
-0.00029177
0.00540426
-0.000295976
0.00541201
-0.00030005
0.00542008
-0.000303973
0.00542845
-0.000307727
0.00543714
-0.000311288
0.00544614
-0.000314637
0.00545544
-0.000317751
0.00546506
-0.000320606
0.00547497
-0.000323178
0.00548518
-0.000325442
0.00549567
-0.000327373
0.00550644
-0.000328947
0.00551746
-0.000330136
0.00552874
-0.000330915
0.00554024
-0.000331258
0.00555195
-0.00033114
0.00556386
-0.000330537
0.00557593
-0.000329423
0.00558814
-0.000327775
0.00560046
-0.000325573
0.00561287
-0.000322794
0.00562533
-0.000319421
0.0056378
-0.000315437
0.00565026
-0.000310826
0.00566266
-0.000305576
0.00567496
-0.000299676
0.00568713
-0.000293114
0.00569911
-0.000285865
-0.000277852
0.00536542
-0.000280017
0.00537175
-0.00028487
0.00537839
-0.000289668
0.00538533
-0.000294394
0.00539259
-0.00029903
0.00540017
-0.000303557
0.00540808
-0.000307957
0.00541631
-0.00031221
0.00542488
-0.000316296
0.00543379
-0.000320191
0.00544302
-0.000323874
0.00545259
-0.00032732
0.00546249
-0.000330504
0.00547271
-0.000333401
0.00548326
-0.000335984
0.00549411
-0.000338225
0.00550526
-0.000340098
0.0055167
-0.000341574
0.00552841
-0.000342625
0.00554038
-0.000343224
0.00555258
-0.000343341
0.00556499
-0.000342951
0.00557759
-0.000342026
0.00559036
-0.000340541
0.00560326
-0.000338472
0.00561626
-0.000335795
0.00562933
-0.000332489
0.00564243
-0.000328536
0.00565552
-0.000323919
0.00566857
-0.000318623
0.00568152
-0.000312634
0.00569435
-0.000305936
0.00570698
-0.000298498
-0.000290214
0.00536054
-0.000286099
0.00536694
-0.000291262
0.00537365
-0.000296379
0.00538068
-0.000301431
0.00538805
-0.0003064
0.00539576
-0.000311268
0.00540382
-0.000316014
0.00541223
-0.000320617
0.00542099
-0.000325057
0.00543011
-0.00032931
0.00543958
-0.00033335
0.00544942
-0.000337153
0.00545961
-0.000340693
0.00547015
-0.000343941
0.00548103
-0.000346869
0.00549225
-0.000349448
0.0055038
-0.000351648
0.00551567
-0.000353439
0.00552783
-0.00035479
0.00554028
-0.000355671
0.00555299
-0.000356051
0.00556594
-0.000355901
0.0055791
-0.00035519
0.00559245
-0.000353892
0.00560596
-0.000351978
0.00561958
-0.000349423
0.0056333
-0.000346204
0.00564706
-0.000342299
0.00566083
-0.000337689
0.00567457
-0.000332357
0.00568822
-0.000326287
0.00570174
-0.000319459
0.00571508
-0.000311832
-0.000303267
0.00535537
-0.000292219
0.00536181
-0.000297707
0.00536859
-0.000303158
0.00537571
-0.000308554
0.00538319
-0.000313875
0.00539102
-0.000319102
0.00539922
-0.000324215
0.00540779
-0.000329191
0.00541675
-0.000334008
0.00542608
-0.000338642
0.00543579
-0.000343065
0.00544589
-0.000347253
0.00545637
-0.000351174
0.00546724
-0.000354802
0.00547847
-0.000358104
0.00549007
-0.00036105
0.00550203
-0.000363608
0.00551434
-0.000365744
0.00552697
-0.000367425
0.00553992
-0.000368619
0.00555316
-0.000369291
0.00556667
-0.000369409
0.00558042
-0.000368942
0.00559439
-0.000367856
0.00560853
-0.000366123
0.00562282
-0.000363715
0.00563722
-0.000360603
0.00565169
-0.000356765
0.00566618
-0.000352178
0.00568064
-0.000346824
0.00569504
-0.000340682
0.00570931
-0.000333729
0.00572339
-0.000325913
-0.000317062
0.00534987
-0.000298366
0.00535636
-0.000304194
0.0053632
-0.000309996
0.00537039
-0.000315753
0.00537797
-0.000321445
0.00538592
-0.000327053
0.00539426
-0.000332554
0.00540299
-0.000337926
0.00541213
-0.000343145
0.00542167
-0.000348185
0.00543163
-0.000353019
0.00544199
-0.000357618
0.00545277
-0.000361952
0.00546396
-0.000365989
0.00547555
-0.000369697
0.00548754
-0.000373042
0.00549992
-0.000375989
0.00551268
-0.000378503
0.0055258
-0.000380548
0.00553927
-0.000382087
0.00555307
-0.000383085
0.00556716
-0.000383504
0.00558153
-0.00038331
0.00559614
-0.000382468
0.00561096
-0.000380944
0.00562595
-0.000378707
0.00564108
-0.000375728
0.00565629
-0.000371978
0.00567155
-0.000367433
0.00568679
-0.000362071
0.00570198
-0.000355869
0.00571705
-0.000348799
0.00573193
-0.000340796
-0.00033165
0.00534404
-0.000304529
0.00535056
-0.000310713
0.00535745
-0.000316883
0.00536471
-0.00032302
0.00537237
-0.000329103
0.00538043
-0.000335112
0.0053889
-0.000341024
0.00539779
-0.000346816
0.00540711
-0.000352463
0.00541686
-0.000357937
0.00542705
-0.000363209
0.00543768
-0.00036825
0.00544876
-0.000373027
0.00546027
-0.000377507
0.00547223
-0.000381654
0.00548462
-0.000385432
0.00549744
-0.000388804
0.00551066
-0.000391732
0.00552429
-0.000394176
0.0055383
-0.000396097
0.00555267
-0.000397455
0.00556738
-0.000398211
0.00558239
-0.000398325
0.00559769
-0.000397759
0.00561322
-0.000396476
0.00562895
-0.000394441
0.00564485
-0.00039162
0.00566085
-0.000387983
0.00567692
-0.000383501
0.005693
-0.000378149
0.00570903
-0.000371901
0.00572495
-0.000364722
0.00574069
-0.000356536
-0.000347088
0.00533786
-0.000310696
0.0053444
-0.000317251
0.00535132
-0.000323807
0.00535865
-0.000330342
0.00536638
-0.000336837
0.00537454
-0.000343269
0.00538313
-0.000349616
0.00539217
-0.000355853
0.00540166
-0.000361954
0.00541161
-0.000367891
0.00542204
-0.000373633
0.00543293
-0.000379147
0.00544431
-0.000384401
0.00545616
-0.000389357
0.00546848
-0.000393979
0.00548128
-0.000398228
0.00549454
-0.000402063
0.00550825
-0.000405444
0.0055224
-0.000408327
0.00553697
-0.000410669
0.00555194
-0.000412427
0.00556729
-0.000413558
0.00558298
-0.000414019
0.00559899
-0.000413766
0.00561527
-0.000412759
0.00563179
-0.000410959
0.0056485
-0.000408328
0.00566535
-0.000404831
0.00568228
-0.000400436
0.00569925
-0.000395114
0.00571618
-0.000388835
0.00573302
-0.000381559
0.00574968
-0.000373194
-0.000363438
0.00533132
-0.000316852
0.00533786
-0.000323796
0.00534481
-0.000330754
0.00535217
-0.000337707
0.00535997
-0.000344634
0.00536821
-0.000351512
0.00537692
-0.000358319
0.00538609
-0.000365028
0.00539575
-0.000371612
0.0054059
-0.000378041
0.00541655
-0.000384284
0.00542771
-0.000390306
0.00543938
-0.000396071
0.00545157
-0.000401542
0.00546426
-0.000406678
0.00547747
-0.000411438
0.00549119
-0.000415777
0.0055054
-0.000419653
0.00552009
-0.000423017
0.00553524
-0.000425824
0.00555084
-0.000428026
0.00556686
-0.000429575
0.00558326
-0.000430423
0.00560002
-0.000430525
0.0056171
-0.000429834
0.00563444
-0.000428305
0.00565201
-0.000425898
0.00566975
-0.000422573
0.00568761
-0.000418294
0.00570552
-0.000413026
0.00572342
-0.000406735
0.00574124
-0.000399374
0.00575888
-0.000390837
-0.000380768
0.00532439
-0.000322983
0.00533092
-0.00033033
0.00533788
-0.00033771
0.00534527
-0.000345101
0.00535312
-0.000352481
0.00536143
-0.000359829
0.00537024
-0.000367121
0.00537954
-0.000374329
0.00538935
-0.000381426
0.00539969
-0.000388379
0.00541056
-0.000395157
0.00542198
-0.000401722
0.00543394
-0.000408037
0.00544646
-0.000414062
0.00545954
-0.000419753
0.00547317
-0.000425067
0.00548735
-0.000429955
0.00550206
-0.000434371
0.00551731
-0.000438264
0.00553307
-0.000441582
0.00554932
-0.000444275
0.00556603
-0.00044629
0.00558318
-0.000447574
0.00560073
-0.000448075
0.00561864
-0.000447743
0.00563687
-0.000446529
0.00565535
-0.000444385
0.00567405
-0.000441267
0.00569289
-0.000437134
0.00571181
-0.000431948
0.00573074
-0.000425668
0.00574961
-0.000418239
0.00576831
-0.000409537
-0.00039915
0.00531705
-0.000329071
0.00532356
-0.000336839
0.00533051
-0.000344657
0.00533792
-0.000352506
0.0053458
-0.000360363
0.00535417
-0.000368205
0.00536306
-0.000376007
0.00537247
-0.000383744
0.00538243
-0.000391384
0.00539295
-0.000398895
0.00540403
-0.000406242
0.0054157
-0.000413389
0.00542795
-0.000420294
0.00544081
-0.000426915
0.00545426
-0.000433206
0.00546831
-0.00043912
0.00548296
-0.000444605
0.0054982
-0.000449611
0.00551402
-0.000454083
0.00553041
-0.000457966
0.00554733
-0.000461201
0.00556478
-0.000463734
0.00558271
-0.000465504
0.00560109
-0.000466456
0.00561988
-0.000466533
0.00563903
-0.000465679
0.00565849
-0.000463842
0.00567819
-0.000460972
0.00569808
-0.000457023
0.00571808
-0.000451949
0.00573812
-0.000445705
0.00575811
-0.000438228
0.00577794
-0.000429372
-0.000418663
0.0053093
-0.000335097
0.00531577
-0.000343302
0.00532269
-0.000351578
0.00533009
-0.000359905
0.00533798
-0.00036826
0.0053464
-0.000376621
0.00535535
-0.000384962
0.00536487
-0.000393255
0.00537495
-0.000401471
0.00538563
-0.000409575
0.00539692
-0.00041753
0.00540883
-0.000425298
0.00542137
-0.000432835
0.00543455
-0.000440098
0.00544838
-0.000447036
0.00546286
-0.0004536
0.00547799
-0.000459735
0.00549377
-0.000465385
0.00551017
-0.000470491
0.0055272
-0.000474993
0.00554483
-0.00047883
0.00556303
-0.000481937
0.00558178
-0.000484252
0.00560103
-0.00048571
0.00562075
-0.00048625
0.00564088
-0.00048581
0.00566137
-0.00048433
0.00568215
-0.000481754
0.00570316
-0.000478029
0.00572431
-0.000473104
0.00574554
-0.000466927
0.00576673
-0.000459424
0.00578779
-0.000450429
-0.000439395
0.00530112
-0.000341042
0.00530752
-0.000349699
0.00531439
-0.000358451
0.00532176
-0.000367276
0.00532965
-0.000376153
0.00533809
-0.000385057
0.00534709
-0.000393965
0.00535669
-0.000402847
0.00536689
-0.000411671
0.00537771
-0.000420403
0.00538919
-0.000429006
0.00540133
-0.000437437
0.00541415
-0.000445652
0.00542765
-0.000453604
0.00544186
-0.000461241
0.00545677
-0.000468508
0.00547238
-0.000475348
0.0054887
-0.0004817
0.00550571
-0.000487501
0.0055234
-0.000492685
0.00554175
-0.000497185
0.00556075
-0.000500931
0.00558035
-0.000503853
0.00560052
-0.000505881
0.00562121
-0.000506945
0.00564238
-0.000506977
0.00566396
-0.00050591
0.00568589
-0.00050368
0.00570809
-0.000500227
0.00573048
-0.000495494
0.00575297
-0.000489419
0.00577546
-0.000481917
0.00579783
-0.000472799
-0.000461439
0.00529248
-0.000346882
0.00529879
-0.000356009
0.00530559
-0.000365254
0.00531291
-0.000374598
0.00532078
-0.000384019
0.00532922
-0.000393493
0.00533825
-0.000402996
0.0053479
-0.000412497
0.00535819
-0.000421965
0.00536915
-0.000431363
0.0053808
-0.000440654
0.00539315
-0.000449793
0.00540623
-0.000458733
0.00542006
-0.000467426
0.00543463
-0.000475815
0.00544996
-0.000483843
0.00546607
-0.000491449
0.00548293
-0.000498566
0.00550056
-0.000505127
0.00551893
-0.00051106
0.00553804
-0.000516292
0.00555785
-0.000520746
0.00557835
-0.000524346
0.00559948
-0.000527013
0.0056212
-0.00052867
0.00564347
-0.000529241
0.00566621
-0.000528649
0.00568935
-0.000526825
0.00571282
-0.000523699
0.00573653
-0.000519204
0.00576039
-0.000513272
0.00578428
-0.000505806
0.00580806
-0.000496586
-0.000484901
0.00528337
-0.000352594
0.00528957
-0.000362204
0.00529628
-0.000371961
0.00530352
-0.000381844
0.00531134