/*--------------------------------*- C++ -*----------------------------------*\
| =========                 |                                                 |
| \\      /  F ield         | OpenFOAM: The Open Source CFD Toolbox           |
|  \\    /   O peration     | Version:  2412                                  |
|   \\  /    A nd           | Website:  www.openfoam.com                      |
|    \\/     M anipulation  |                                                 |
\*---------------------------------------------------------------------------*/
FoamFile
{
    version     2.0;
    format      ascii;
    arch        "LSB;label=32;scalar=64";
    class       surfaceScalarField;
    location    "14";
    object      phi;
}
// * * * * * * * * * * * * * * * * * * * * * * * * * * * * * * * * * * * * * //

dimensions      [0 3 -1 0 0 0 0];

oriented        oriented;

internalField   nonuniform List<scalar> 
10423
(
0.00522263
0.000200421
-0.00522216
0.00522325
0.000206785
0.00522405
0.000213364
0.00522502
0.000220165
0.0052262
0.000227191
0.00522759
0.000234446
0.00522922
0.000241932
0.0052311
0.000249654
0.00523326
0.000257612
0.00523572
0.000265808
0.0052385
0.000274241
0.00524162
0.000282912
0.00524513
0.000291816
0.00524904
0.00030095
0.00525338
0.000310307
0.000319879
0.00522898
0.00019974
-0.0052283
0.00522982
0.000205945
0.00523083
0.000212352
0.00523203
0.000218965
0.00523343
0.000225788
0.00523505
0.000232822
0.00523692
0.000240071
0.00523904
0.000247535
0.00524143
0.000255215
0.00524413
0.000263112
0.00524714
0.000271224
0.00525051
0.000279548
0.00525424
0.00028808
0.00525838
0.000296815
0.00526294
0.000305745
0.00031486
0.00523516
0.000198862
-0.00523428
0.0052362
0.000204904
0.00523742
0.000211134
0.00523883
0.000217557
0.00524044
0.000224173
0.00524228
0.000230985
0.00524436
0.000237994
0.00524669
0.0002452
0.0052493
0.000252603
0.00525222
0.000260201
0.00525545
0.000267993
0.00525902
0.000275974
0.00526296
0.000284139
0.00526729
0.000292482
0.00527205
0.000300993
0.000309661
0.00524119
0.000197799
-0.00524012
0.00524241
0.000203675
0.00524382
0.000209726
0.00524542
0.000215956
0.00524723
0.000222364
0.00524927
0.000228952
0.00525154
0.000235721
0.00525407
0.000242669
0.00525688
0.000249795
0.00525998
0.000257097
0.0052634
0.000264572
0.00526716
0.000272214
0.00527128
0.000280018
0.00527579
0.000287976
0.0052807
0.000296077
0.00030431
0.00524704
0.000196564
-0.00524581
0.00524844
0.000202271
0.00525003
0.000208141
0.00525181
0.000214176
0.0052538
0.000220376
0.00525601
0.00022674
0.00525846
0.000233269
0.00526117
0.00023996
0.00526415
0.000246812
0.00526743
0.000253821
0.00527102
0.000260983
0.00527494
0.000268292
0.00527922
0.000275741
0.00528387
0.000283323
0.00528893
0.000291025
0.000298835
0.00525273
0.000195168
-0.00525133
0.00525429
0.000200705
0.00525604
0.000206393
0.00525798
0.000212233
0.00526014
0.000218224
0.00526251
0.000224364
0.00526513
0.000230654
0.005268
0.000237091
0.00527114
0.000243671
0.00527457
0.000250391
0.0052783
0.000257245
0.00528237
0.000264228
0.00528678
0.000271331
0.00529156
0.000278545
0.00529672
0.000285859
0.000293259
0.00525824
0.000193623
-0.0052567
0.00525996
0.00019899
0.00526186
0.000204495
0.00526395
0.00021014
0.00526625
0.000215922
0.00526877
0.00022184
0.00527154
0.000227893
0.00527455
0.000234078
0.00527783
0.00024039
0.00528139
0.000246826
0.00528526
0.000253379
0.00528945
0.000260042
0.00529397
0.000266807
0.00529885
0.000273665
0.00530411
0.000280602
0.000287606
0.00526359
0.000191941
-0.0052619
0.00526544
0.000197137
0.00526748
0.00020246
0.00526971
0.000207909
0.00527214
0.000213485
0.0052748
0.000219183
0.00527769
0.000225002
0.00528083
0.000230938
0.00528424
0.000236987
0.00528792
0.000243144
0.0052919
0.000249401
0.00529618
0.000255753
0.0053008
0.000262189
0.00530577
0.000268701
0.00531109
0.000275274
0.000281895
0.00526876
0.000190132
-0.00526695
0.00527074
0.000195157
0.0052729
0.000200298
0.00527525
0.000205555
0.00527781
0.000210925
0.00528059
0.000216406
0.0052836
0.000221994
0.00528685
0.000227686
0.00529036
0.000233476
0.00529415
0.00023936
0.00529822
0.00024533
0.00530259
0.000251378
0.00530729
0.000257495
0.00531232
0.000263671
0.0053177
0.000269893
0.000276145
0.00527376
0.000188207
-0.00527183
0.00527585
0.000193062
0.00527813
0.000198023
0.0052806
0.000203088
0.00528327
0.000208255
0.00528615
0.000213521
0.00528926
0.000218883
0.00529261
0.000224335
0.00529622
0.000229873
0.00530009
0.00023549
0.00530424
0.000241179
0.00530868
0.000246933
0.00531344
0.000252741
0.00531851
0.000258593
0.00532393
0.000264476
0.000270374
0.00527859
0.000186176
-0.00527656
0.00528079
0.000190862
0.00528317
0.000195644
0.00528574
0.000200521
0.0052885
0.000205488
0.00529148
0.000210543
0.00529468
0.000215682
0.00529812
0.000220899
0.0053018
0.00022619
0.00530574
0.000231548
0.00530996
0.000236965
0.00531446
0.000242433
0.00531926
0.000247942
0.00532437
0.000253481
0.00532981
0.000259038
0.000264597
0.00528325
0.000184049
-0.00528113
0.00528555
0.000188568
0.00528802
0.000193173
0.00529068
0.000197863
0.00529353
0.000202634
0.00529659
0.000207482
0.00529987
0.000212403
0.00530338
0.000217391
0.00530713
0.000222441
0.00531113
0.000227546
0.00531539
0.000232699
0.00531994
0.00023789
0.00532477
0.000243111
0.0053299
0.000248349
0.00533534
0.000253593
0.000258826
0.00528775
0.000181834
-0.00528554
0.00529013
0.000186188
0.00529269
0.00019062
0.00529542
0.000195126
0.00529835
0.000199704
0.00530148
0.000204349
0.00530483
0.000209057
0.0053084
0.000213822
0.0053122
0.000218638
0.00531625
0.000223498
0.00532055
0.000228395
0.00532513
0.000233319
0.00532998
0.000238262
0.00533511
0.000243211
0.00534055
0.000248154
0.000253076
0.00529209
0.000179541
-0.0052898
0.00529454
0.000183733
0.00529717
0.000187993
0.00529998
0.00019232
0.00530297
0.000196709
0.00530617
0.000201156
0.00530957
0.000205656
0.00531319
0.000210203
0.00531703
0.000214791
0.00532112
0.000219414
0.00532545
0.000224064
0.00533004
0.00022873
0.00533489
0.000233405
0.00534003
0.000238076
0.00534545
0.000242731
0.000247356
0.00529627
0.000177179
-0.00529391
0.00529879
0.00018121
0.00530148
0.000185303
0.00530435
0.000189453
0.0053074
0.000193657
0.00531064
0.000197911
0.00531409
0.000202208
0.00531775
0.000206544
0.00532163
0.000210912
0.00532574
0.000215305
0.00533009
0.000219716
0.00533468
0.000224134
0.00533954
0.000228552
0.00534465
0.000232956
0.00535005
0.000237337
0.000241678
0.0053003
0.000174754
-0.00529787
0.00530288
0.000178629
0.00530562
0.000182557
0.00530854
0.000186535
0.00531164
0.000190559
0.00531493
0.000194624
0.00531841
0.000198724
0.0053221
0.000202855
0.005326
0.00020701
0.00533013
0.000211181
0.00533448
0.000215361
0.00533907
0.000219541
0.00534391
0.000223711
0.00534901
0.000227861
0.00535437
0.000231978
0.000236049
0.00530418
0.000172276
-0.0053017
0.00530681
0.000175997
0.0053096
0.000179764
0.00531256
0.000183574
0.0053157
0.000187422
0.00531902
0.000191303
0.00532253
0.000195213
0.00532624
0.000199145
0.00533016
0.000203093
0.00533429
0.00020705
0.00533864
0.000211008
0.00534322
0.000214959
0.00534804
0.000218892
0.0053531
0.000222798
0.00535842
0.000226665
0.000230478
0.00530791
0.000169751
-0.00530539
0.00531059
0.000173322
0.00531342
0.000176932
0.00531642
0.000180577
0.00531959
0.000184254
0.00532293
0.000187958
0.00532646
0.000191682
0.00533019
0.000195422
0.00533411
0.000199171
0.00533824
0.000202921
0.00534258
0.000206666
0.00534714
0.000210397
0.00535193
0.000214103
0.00535695
0.000217776
0.00536221
0.000221403
0.000224972
0.00531152
0.000167187
-0.00530895
0.00531423
0.000170611
0.00531709
0.000174067
0.00532012
0.000177553
0.00532331
0.000181064
0.00532667
0.000184594
0.00533021
0.000188139
0.00533394
0.000191694
0.00533786
0.00019525
0.00534198
0.000198802
0.00534631
0.000202342
0.00535084
0.000205861
0.0053556
0.000209351
0.00536057
0.000212801
0.00536577
0.000216201
0.000219536
0.00531499
-0.00531239
0.00016459
0.00531773
0.00016787
0.00532062
0.000171177
0.00532367
0.000174507
0.00532687
0.000177857
0.00533025
0.00018122
0.0053338
0.000184592
0.00533752
0.000187967
0.00534143
0.000191338
0.00534554
0.000194699
0.00534984
0.000198042
0.00535434
0.000201359
0.00535905
0.000204642
0.00536397
0.00020788
0.00536911
0.000211063
0.000214177
0.00529282
4.17021e-06
0.00529259
1.21097e-05
0.00529224
1.93466e-05
0.00529175
2.68446e-05
0.00529103
3.70272e-05
0.00528991
5.23069e-05
0.00528824
7.3045e-05
0.00528592
9.68251e-05
0.000119548
0.00529282
4.2446e-06
0.0052926
1.23245e-05
0.00529227
1.96844e-05
0.00529179
2.73193e-05
0.00529109
3.7731e-05
0.00528999
5.34077e-05
0.00528832
7.47169e-05
0.00528598
9.91574e-05
0.00528304
0.000122492
0.00527965
0.000140741
0.00527607
0.000151681
0.00527251
0.000155238
0.00526916
0.000152944
0.00526611
0.000147021
0.00526341
0.000139598
0.00526103
0.00013227
0.00525892
0.000125986
0.00525702
0.00012115
0.00525529
0.000117795
0.00525368
0.000115757
0.00525214
0.000114797
0.00525066
0.000114675
0.00524922
0.000115186
0.0052478
0.000116169
0.0052464
0.000117505
0.00524501
0.000119107
0.00524363
0.000120914
0.00524226
0.000122882
0.00524091
0.000124978
0.00523957
0.000127177
0.00523825
0.000129462
0.00523695
0.000131816
0.00523568
0.000134227
0.00523443
0.000136683
0.00523322
0.000139175
0.00523204
0.000141693
0.0052309
0.000144231
0.0052298
0.000146779
0.00522876
0.000149333
0.00522776
0.000151884
0.00522682
0.000154428
0.00522595
0.000156958
0.00522514
0.000159468
0.0052244
0.000161954
0.00522374
0.00016441
0.00522315
0.000166831
0.00522265
0.000169213
0.00522224
0.000171551
0.00522191
0.00017384
0.00522169
0.000176076
0.00522157
0.000178255
0.00522155
0.000180372
0.00522164
0.000182425
0.00522184
0.000184408
0.000186319
0.00529282
4.3163e-06
0.00529262
1.25312e-05
0.00529229
2.00088e-05
0.00529183
2.77762e-05
0.00529115
3.84166e-05
0.00529006
5.44963e-05
0.00528839
7.6388e-05
0.00528605
0.000101501
0.00528308
0.000125456
0.00527968
0.000144144
0.00527608
0.000155276
0.00527254
0.000158785
0.00526922
0.000156262
0.00526623
0.000150008
0.0052636
0.000142225
0.00526131
0.00013456
0.00525931
0.00012799
0.00525753
0.000122928
0.00525592
0.000119406
0.00525443
0.00011725
0.00525301
0.000116209
0.00525166
0.000116033
0.00525033
0.000116508
0.00524904
0.000117467
0.00524776
0.000118786
0.00524649
0.000120375
0.00524523
0.000122169
0.00524399
0.000124124
0.00524276
0.000126205
0.00524155
0.000128388
0.00524036
0.000130653
0.00523919
0.000132983
0.00523805
0.000135367
0.00523694
0.000137792
0.00523587
0.000140249
0.00523483
0.000142728
0.00523384
0.000145223
0.0052329
0.000147724
0.00523201
0.000150225
0.00523117
0.000152721
0.00523039
0.000155204
0.00522968
0.000157669
0.00522904
0.00016011
0.00522847
0.000162522
0.00522798
0.0001649
0.00522758
0.000167239
0.00522726
0.000169534
0.00522703
0.00017178
0.00522689
0.000173974
0.00522686
0.000176111
0.00522692
0.000178187
0.0052271
0.000180198
0.00522738
0.00018214
0.00522778
0.00018401
0.000185804
0.00529283
4.38529e-06
0.00529263
1.27299e-05
0.00529232
2.03195e-05
0.00529188
2.82151e-05
0.00529121
3.90844e-05
0.00529013
5.55741e-05
0.00528846
7.80612e-05
0.0052861
0.000103861
0.00528311
0.000128445
0.00527968
0.000147571
0.00527608
0.000158883
0.00527254
0.000162324
0.00526925
0.000159548
0.00526632
0.000152938
0.00526377
0.000144773
0.00526158
0.000136752
0.00525969
0.000129883
0.00525803
0.000124588
0.00525654
0.000120894
0.00525517
0.000118617
0.00525389
0.000117495
0.00525265
0.000117265
0.00525145
0.000117706
0.00525028
0.000118643
0.00524912
0.000119945
0.00524797
0.000121521
0.00524684
0.000123303
0.00524572
0.000125244
0.00524462
0.000127309
0.00524353
0.000129473
0.00524247
0.000131716
0.00524143
0.000134021
0.00524042
0.000136375
0.00523945
0.000138766
0.00523851
0.000141185
0.00523762
0.000143623
0.00523677
0.000146071
0.00523597
0.000148521
0.00523523
0.000150968
0.00523455
0.000153404
0.00523393
0.000155823
0.00523338
0.00015822
0.0052329
0.000160589
0.0052325
0.000162924
0.00523217
0.000165221
0.00523194
0.000167475
0.00523179
0.000169681
0.00523174
0.000171834
0.00523178
0.000173931
0.00523193
0.000175967
0.00523218
0.000177938
0.00523253
0.000179841
0.005233
0.000181672
0.00523358
0.000183427
0.000185103
0.00529283
4.45156e-06
0.00529264
1.29204e-05
0.00529234
2.06163e-05
0.00529192
2.86358e-05
0.00529127
3.97348e-05
0.0052902
5.6643e-05
0.00528852
7.97401e-05
0.00528614
0.000106242
0.00528312
0.000131464
0.00527967
0.000151026
0.00527604
0.000162505
0.00527251
0.000165857
0.00526926
0.0001628
0.00526639
0.000155808
0.00526393
0.000147238
0.00526183
0.000138843
0.00526006
0.000131662
0.00525852
0.000126126
0.00525716
0.000122256
0.00525592
0.000119857
0.00525476
0.000118654
0.00525365
0.000118372
0.00525258
0.00011878
0.00525152
0.000119695
0.00525049
0.000120983
0.00524946
0.000122545
0.00524845
0.000124315
0.00524745
0.000126241
0.00524647
0.00012829
0.00524551
0.000130434
0.00524457
0.000132653
0.00524366
0.00013493
0.00524279
0.000137253
0.00524195
0.000139608
0.00524114
0.000141987
0.00524039
0.00014438
0.00523968
0.000146778
0.00523902
0.000149176
0.00523843
0.000151564
0.00523789
0.000153938
0.00523743
0.000156291
0.00523703
0.000158617
0.00523671
0.00016091
0.00523646
0.000163166
0.00523631
0.00016538
0.00523623
0.000167546
0.00523625
0.000169661
0.00523637
0.000171719
0.00523658
0.000173718
0.0052369
0.000175651
0.00523732
0.000177517
0.00523785
0.000179311
0.00523849
0.00018103
0.00523925
0.00018267
0.000184229
0.00529283
4.51509e-06
0.00529265
1.31026e-05
0.00529237
2.0899e-05
0.00529196
2.90383e-05
0.00529133
4.03685e-05
0.00529027
5.77052e-05
0.00528858
8.14288e-05
0.00528617
0.000108649
0.00528312
0.000134519
0.00527963
0.000154516
0.00527598
0.000166147
0.00527246
0.000169384
0.00526924
0.000166019
0.00526643
0.000158616
0.00526405
0.000149614
0.00526207
0.000140827
0.00526041
0.000133322
0.005259
0.000127537
0.00525777
0.000123487
0.00525666
0.000120966
0.00525563
0.000119683
0.00525465
0.000119351
0.0052537
0.000119728
0.00525277
0.000120624
0.00525186
0.000121898
0.00525096
0.000123449
0.00525006
0.000125206
0.00524919
0.000127118
0.00524833
0.00012915
0.00524749
0.000131273
0.00524668
0.000133467
0.00524589
0.000135715
0.00524514
0.000138003
0.00524443
0.000140321
0.00524376
0.000142657
0.00524314
0.000145002
0.00524256
0.00014735
0.00524205
0.000149691
0.00524159
0.000152019
0.0052412
0.000154328
0.00524088
0.000156612
0.00524064
0.000158865
0.00524047
0.000161081
0.00524038
0.000163256
0.00524037
0.000165384
0.00524046
0.000167461
0.00524064
0.000169483
0.00524091
0.000171445
0.00524129
0.000173343
0.00524176
0.000175173
0.00524235
0.000176933
0.00524304
0.000178617
0.00524385
0.000180224
0.00524477
0.00018175
0.000183192
0.00529283
4.57588e-06
0.00529266
1.32765e-05
0.00529239
2.11676e-05
0.00529201
2.94226e-05
0.00529139
4.09865e-05
0.00529033
5.87633e-05
0.00528863
8.31322e-05
0.00528619
0.00011109
0.00528309
0.000137618
0.00527956
0.000158045
0.00527589
0.000169812
0.00527237
0.000172908
0.00526919
0.000169201
0.00526645
0.000161356
0.00526416
0.000151898
0.00526229
0.0001427
0.00526075
0.000134857
0.00525947
0.000128816
0.00525838
0.000124584
0.0052574
0.000121941
0.0052565
0.00012058
0.00525565
0.000120202
0.00525483
0.000120551
0.00525403
0.000121429
0.00525323
0.000122691
0.00525245
0.000124232
0.00525168
0.000125978
0.00525092
0.000127876
0.00525018
0.00012989
0.00524946
0.000131991
0.00524877
0.000134159
0.00524811
0.000136376
0.00524748
0.000138629
0.0052469
0.000140907
0.00524636
0.000143198
0.00524586
0.000145494
0.00524543
0.000147788
0.00524504
0.000150071
0.00524473
0.000152337
0.00524448
0.000154579
0.0052443
0.000156791
0.00524419
0.000158969
0.00524417
0.000161106
0.00524423
0.000163197
0.00524437
0.000165239
0.00524461
0.000167225
0.00524494
0.000169153
0.00524536
0.000171017
0.00524589
0.000172815
0.00524652
0.000174542
0.00524726
0.000176194
0.00524811
0.00017777
0.00524907
0.000179265
0.00525014
0.000180676
0.000182002
0.00529284
4.63393e-06
0.00529267
1.3442e-05
0.00529242
2.14217e-05
0.00529205
2.97887e-05
0.00529145
4.15897e-05
0.00529039
5.98204e-05
0.00528867
8.48555e-05
0.00528619
0.000113571
0.00528304
0.000140768
0.00527946
0.000161622
0.00527577
0.000173505
0.00527225
0.000176428
0.0052691
0.000172346
0.00526643
0.000164026
0.00526425
0.000154085
0.00526249
0.000144454
0.00526109
0.000136262
0.00525994
0.000129958
0.00525898
0.000125544
0.00525815
0.00012278
0.00525738
0.000121344
0.00525666
0.000120922
0.00525597
0.000121246
0.00525528
0.000122111
0.00525461
0.000123364
0.00525395
0.000124896
0.00525329
0.000126631
0.00525265
0.000128516
0.00525203
0.000130512
0.00525143
0.000132591
0.00525086
0.000134732
0.00525032
0.000136917
0.00524981
0.000139134
0.00524935
0.000141369
0.00524893
0.000143614
0.00524857
0.00014586
0.00524826
0.000148097
0.00524801
0.00015032
0.00524782
0.000152521
0.00524771
0.000154695
0.00524766
0.000156835
0.0052477
0.000158935
0.00524781
0.000160991
0.00524801
0.000162998
0.0052483
0.000164952
0.00524868
0.000166847
0.00524915
0.000168679
0.00524972
0.000170446
0.0052504
0.000172142
0.00525117
0.000173765
0.00525206
0.000175311
0.00525305
0.000176778
0.00525415
0.000178162
0.00525537
0.00017946
0.000180672
0.00529284
4.68925e-06
0.00529268
1.35992e-05
0.00529244
2.16613e-05
0.00529209
3.01368e-05
0.0052915
4.21795e-05
0.00529044
6.08797e-05
0.0052887
8.66045e-05
0.00528617
0.0001161
0.00528296
0.000143977
0.00527933
0.000165251
0.00527561
0.000177228
0.00527209
0.000179945
0.00526898
0.00017545
0.00526639
0.000166621
0.00526431
0.000156167
0.00526268
0.000146085
0.00526141
0.000137531
0.00526041
0.00013096
0.00525959
0.000126361
0.00525889
0.000123479
0.00525826
0.000121972
0.00525767
0.000121511
0.0052571
0.000121815
0.00525655
0.00012267
0.00525599
0.000123916
0.00525545
0.000125442
0.00525491
0.000127169
0.00525438
0.000129041
0.00525388
0.00013102
0.00525339
0.000133076
0.00525293
0.000135189
0.00525251
0.000137341
0.00525212
0.00013952
0.00525178
0.000141712
0.00525149
0.000143909
0.00525124
0.000146102
0.00525106
0.000148282
0.00525094
0.000150443
0.00525088
0.000152578
0.00525089
0.000154681
0.00525098
0.000156747
0.00525115
0.000158769
0.0052514
0.000160743
0.00525173
0.000162665
0.00525215
0.000164529
0.00525267
0.000166332
0.00525328
0.000168069
0.00525399
0.000169737
0.0052548
0.000171332
0.00525571
0.000172851
0.00525673
0.000174292
0.00525786
0.00017565
0.00525909
0.000176924
0.00526044
0.000178111
0.00017921
0.00529284
4.74183e-06
0.00529269
1.37478e-05
0.00529247
2.18861e-05
0.00529214
3.0467e-05
0.00529156
4.27573e-05
0.00529049
6.19451e-05
0.00528871
8.83853e-05
0.00528613
0.000118684
0.00528286
0.000147251
0.00527917
0.000168939
0.00527541
0.000180984
0.0052719
0.000183459
0.00526884
0.000178511
0.00526632
0.000169134
0.00526435
0.000158139
0.00526285
0.000147585
0.00526172
0.000138658
0.00526087
0.000131815
0.0052602
0.000127033
0.00525964
0.000124036
0.00525915
0.000122464
0.00525869
0.000121969
0.00525825
0.000122258
0.00525781
0.000123107
0.00525738
0.000124351
0.00525695
0.000125873
0.00525652
0.000127592
0.00525611
0.000129453
0.00525572
0.000131414
0.00525535
0.000133448
0.005255
0.000135533
0.00525469
0.000137651
0.00525442
0.00013979
0.00525419
0.000141939
0.00525402
0.000144086
0.00525389
0.000146225
0.00525383
0.000148346
0.00525383
0.000150444
0.0052539
0.000152512
0.00525403
0.000154544
0.00525425
0.000156533
0.00525454
0.000158476
0.00525492
0.000160368
0.00525538
0.000162203
0.00525593
0.000163977
0.00525657
0.000165687
0.00525731
0.000167329
0.00525815
0.000168899
0.00525909
0.000170393
0.00526013
0.00017181
0.00526128
0.000173145
0.00526253
0.000174396
0.00526389
0.000175562
0.00526537
0.000176639
0.000177626
0.00529284
4.7917e-06
0.0052927
1.38878e-05
0.00529249
2.20962e-05
0.00529218
3.07795e-05
0.00529161
4.33246e-05
0.00529054
6.302e-05
0.00528872
9.02037e-05
0.00528607
0.00012133
0.00528273
0.000150599
0.00527898
0.00017269
0.00527518
0.000184775
0.00527168
0.000186968
0.00526866
0.000181523
0.00526624
0.000171561
0.00526438
0.000159994
0.00526302
0.000148948
0.00526204
0.000139637
0.00526134
0.00013252
0.00526081
0.000127556
0.0052604
0.00012445
0.00526004
0.000122818
0.00525972
0.000122295
0.0052594
0.000122575
0.00525908
0.000123423
0.00525877
0.000124668
0.00525845
0.000126189
0.00525814
0.000127904
0.00525784
0.000129754
0.00525755
0.000131699
0.00525729
0.00013371
0.00525706
0.000135766
0.00525686
0.00013785
0.0052567
0.000139949
0.00525659
0.000142052
0.00525652
0.00014415
0.00525652
0.000146233
0.00525657
0.000148295
0.00525668
0.000150328
0.00525687
0.000152327
0.00525713
0.000154286
0.00525746
0.0001562
0.00525787
0.000158063
0.00525837
0.000159871
0.00525895
0.000161619
0.00525963
0.000163304
0.00526039
0.000164921
0.00526126
0.000166467
0.00526222
0.000167939
0.00526328
0.000169333
0.00526444
0.000170648
0.0052657
0.000171879
0.00526708
0.000173025
0.00526855
0.000174084
0.00527014
0.000175053
0.000175931
0.00529285
4.83887e-06
0.00529272
1.40193e-05
0.00529252
2.22913e-05
0.00529223
3.10746e-05
0.00529167
4.38829e-05
0.00529058
6.41079e-05
0.00528872
9.20652e-05
0.005286
0.000124045
0.00528258
0.000154025
0.00527876
0.000176508
0.00527493
0.000188602
0.00527143
0.000190469
0.00526847
0.000184483
0.00526614
0.000173894
0.00526441
0.000161725
0.00526319
0.000150168
0.00526236
0.000140464
0.00526181
0.00013307
0.00526144
0.000127928
0.00526117
0.000124718
0.00526095
0.000123034
0.00526076
0.000122491
0.00526056
0.000122768
0.00526037
0.00012362
0.00526016
0.000124871
0.00525996
0.000126394
0.00525976
0.000128106
0.00525956
0.000129947
0.00525939
0.000131876
0.00525923
0.000133865
0.0052591
0.000135892
0.00525901
0.000137942
0.00525896
0.00014
0.00525896
0.000142057
0.005259
0.000144103
0.00525911
0.00014613
0.00525927
0.000148131
0.0052595
0.0001501
0.0052598
0.000152029
0.00526017
0.000153915
0.00526062
0.000155751
0.00526115
0.000157534
0.00526176
0.000159258
0.00526246
0.000160919
0.00526325
0.000162514
0.00526413
0.000164039
0.00526511
0.00016549
0.00526618
0.000166865
0.00526735
0.00016816
0.00526863
0.000169373
0.00527001
0.000170502
0.00527149
0.000171545
0.00527307
0.000172498
0.00527476
0.000173362
0.000174134
0.00529285
4.88334e-06
0.00529273
1.41422e-05
0.00529255
2.24714e-05
0.00529227
3.13526e-05
0.00529172
4.44335e-05
0.00529061
6.5212e-05
0.0052887
9.39742e-05
0.00528592
0.000126835
0.00528241
0.000157534
0.00527852
0.000180394
0.00527466
0.000192462
0.00527117
0.000193959
0.00526827
0.000187383
0.00526604
0.000176127
0.00526443
0.000163326
0.00526336
0.000151239
0.00526269
0.000141134
0.0052623
0.000133463
0.00526208
0.000128149
0.00526196
0.000124842
0.00526188
0.000123114
0.00526181
0.000122558
0.00526174
0.000122839
0.00526166
0.000123701
0.00526157
0.000124961
0.00526147
0.00012649
0.00526137
0.000128202
0.00526129
0.000130035
0.00526121
0.000131949
0.00526116
0.000133917
0.00526114
0.000135915
0.00526115
0.00013793
0.0052612
0.000139947
0.0052613
0.000141957
0.00526146
0.000143951
0.00526167
0.000145921
0.00526194
0.000147861
0.00526227
0.000149763
0.00526268
0.000151623
0.00526316
0.000153434
0.00526372
0.000155193
0.00526436
0.000156895
0.00526508
0.000158535
0.00526589
0.00016011
0.00526679
0.000161615
0.00526778
0.000163048
0.00526886
0.000164405
0.00527005
0.000165684
0.00527132
0.000166881
0.0052727
0.000167995
0.00527418
0.000169023
0.00527576
0.000169963
0.00527745
0.000170814
0.00527924
0.000171575
0.000172243
0.00529285
4.92514e-06
0.00529274
1.42565e-05
0.00529257
2.26365e-05
0.00529231
3.16139e-05
0.00529177
4.49778e-05
0.00529064
6.63345e-05
0.00528869
9.59337e-05
0.00528582
0.0001297
0.00528223
0.000161126
0.00527827
0.000184348
0.00527438
0.000196354
0.00527091
0.000197432
0.00526807
0.000190219
0.00526595
0.000178255
0.00526448
0.000164791
0.00526356
0.000152158
0.00526305
0.000141645
0.00526282
0.000133699
0.00526275
0.000128216
0.00526277
0.000124822
0.00526282
0.000123059
0.00526288
0.000122498
0.00526293
0.000122791
0.00526296
0.000123669
0.00526298
0.000124943
0.00526299
0.000126481
0.005263
0.000128194
0.00526301
0.000130022
0.00526304
0.000131922
0.00526309
0.000133868
0.00526316
0.000135838
0.00526328
0.000137817
0.00526343
0.000139793
0.00526363
0.000141756
0.00526388
0.000143697
0.0052642
0.00014561
0.00526457
0.000147487
0.00526501
0.000149323
0.00526552
0.000151113
0.0052661
0.00015285
0.00526677
0.000154532
0.00526751
0.000156152
0.00526833
0.000157709
0.00526925
0.000159197
0.00527025
0.000160613
0.00527134
0.000161955
0.00527253
0.000163219
0.00527381
0.000164402
0.00527519
0.000165503
0.00527666
0.000166519
0.00527824
0.000167448
0.00527991
0.000168289
0.00528169
0.00016904
0.00528356
0.000169699
0.000170267
0.00529285
4.96427e-06
0.00529275
1.43621e-05
0.0052926
2.27866e-05
0.00529235
3.18587e-05
0.00529182
4.55164e-05
0.00529067
6.74765e-05
0.00528866
9.79446e-05
0.00528572
0.000132642
0.00528205
0.0001648
0.00527803
0.000188364
0.00527411
0.000200271
0.00527067
0.000200882
0.0052679
0.000192983
0.00526589
0.000180271
0.00526456
0.000166117
0.0052638
0.000152922
0.00526344
0.000141996
0.00526337
0.000133777
0.00526345
0.000128134
0.00526361
0.000124661
0.0052638
0.000122871
0.00526398
0.000122316
0.00526414
0.000122626
0.00526429
0.000123527
0.00526441
0.00012482
0.00526452
0.000126371
0.00526463
0.000128088
0.00526474
0.000129911
0.00526486
0.000131799
0.00526501
0.000133723
0.00526518
0.000135665
0.00526539
0.000137609
0.00526564
0.000139543
0.00526594
0.000141458
0.00526629
0.000143346
0.0052667
0.000145201
0.00526717
0.000147016
0.00526771
0.000148785
0.00526831
0.000150504
0.005269
0.000152167
0.00526976
0.000153771
0.0052706
0.000155311
0.00527152
0.000156784
0.00527253
0.000158187
0.00527363
0.000159515
0.00527482
0.000160766
0.0052761
0.000161938
0.00527747
0.000163028
0.00527894
0.000164034
0.00528051
0.000164954
0.00528217
0.000165786
0.00528393
0.000166529
0.00528579
0.000167182
0.00528774
0.000167744
0.000168214
0.00529286
5.00074e-06
0.00529276
1.44591e-05
0.00529263
2.29219e-05
0.0052924
3.20873e-05
0.00529186
4.60497e-05
0.0052907
6.86375e-05
0.00528864
0.000100005
0.00528563
0.000135655
0.00528188
0.000168548
0.00527781
0.000192436
0.00527388
0.000204203
0.00527046
0.0002043
0.00526777
0.000195669
0.00526587
0.00018217
0.00526469
0.000167302
0.00526408
0.00015353
0.00526389
0.000142189
0.00526396
0.0001337
0.00526419
0.000127905
0.00526449
0.000124362
0.00526481
0.000122557
0.00526511
0.000122014
0.00526538
0.000122351
0.00526563
0.000123279
0.00526585
0.000124596
0.00526606
0.000126163
0.00526626
0.000127886
0.00526647
0.000129707
0.00526669
0.000131582
0.00526692
0.000133487
0.00526719
0.0001354
0.00526749
0.000137308
0.00526783
0.0001392
0.00526822
0.000141067
0.00526866
0.000142903
0.00526917
0.000144699
0.00526973
0.000146451
0.00527036
0.000148153
0.00527107
0.000149802
0.00527184
0.000151391
0.0052727
0.000152918
0.00527363
0.000154378
0.00527465
0.000155768
0.00527575
0.000157085
0.00527694
0.000158326
0.00527821
0.000159488
0.00527958
0.000160569
0.00528104
0.000161567
0.0052826
0.00016248
0.00528425
0.000163306
0.00528599
0.000164044
0.00528782
0.000164692
0.00528976
0.00016525
0.00529178
0.000165717
0.000166093
0.00529286
5.03457e-06
0.00529277
1.45475e-05
0.00529265
2.30424e-05
0.00529244
3.23e-05
0.00529191
4.65771e-05
0.00529073
6.98155e-05
0.00528863
0.000102109
0.00528555
0.000138732
0.00528174
0.000172361
0.00527763
0.00019655
0.00527369
0.00020814
0.00527031
0.000207676
0.00526771
0.000198269
0.00526593
0.000183951
0.00526489
0.000168344
0.00526443
0.000153986
0.0052644
0.000142227
0.00526462
0.000133474
0.00526499
0.000127535
0.00526542
0.000123933
0.00526586
0.000122121
0.00526627
0.0001216
0.00526665
0.00012197
0.005267
0.000122932
0.00526732
0.000124276
0.00526762
0.000125861
0.00526791
0.000127594
0.00526821
0.000129413
0.00526851
0.000131278
0.00526884
0.000133162
0.00526919
0.000135047
0.00526958
0.000136919
0.00527001
0.000138769
0.00527049
0.000140588
0.00527102
0.00014237
0.00527161
0.000144108
0.00527226
0.000145797
0.00527299
0.000147433
0.00527378
0.000149011
0.00527464
0.000150526
0.00527558
0.000151976
0.0052766
0.000153357
0.00527771
0.000154665
0.00527889
0.000155898
0.00528017
0.000157053
0.00528153
0.000158127
0.00528298
0.000159119
0.00528452
0.000160027
0.00528615
0.000160849
0.00528787
0.000161583
0.00528969
0.000162229
0.0052916
0.000162785
0.0052936
0.00016325
0.00529569
0.000163625
0.000163909
0.00529286
5.06576e-06
0.00529278
1.46274e-05
0.00529268
2.31486e-05
0.00529248
3.24969e-05
0.00529196
4.70976e-05
0.00529077
7.10059e-05
0.00528863
0.000104249
0.0052855
0.000141858
0.00528164
0.000176221
0.0052775
0.000200689
0.00527358
0.000212067
0.00527025
0.000211
0.00526774
0.000200779
0.00526608
0.000185609
0.00526518
0.000169246
0.00526487
0.000154294
0.00526498
0.000142118
0.00526535
0.000133107
0.00526585
0.000127032
0.0052664
0.000123381
0.00526695
0.000121571
0.00526747
0.00012108
0.00526795
0.000121489
0.0052684
0.00012249
0.00526881
0.000123866
0.0052692
0.000125473
0.00526957
0.000127216
0.00526995
0.000129034
0.00527034
0.000130888
0.00527075
0.000132753
0.00527119
0.00013461
0.00527166
0.000136447
0.00527218
0.000138254
0.00527274
0.000140025
0.00527335
0.000141753
0.00527403
0.000143433
0.00527477
0.00014506
0.00527557
0.000146629
0.00527645
0.000148136
0.00527739
0.000149578
0.00527842
0.000150952
0.00527952
0.000152254
0.00528071
0.000153481
0.00528197
0.000154631
0.00528333
0.000155701
0.00528476
0.000156689
0.00528629
0.000157594
0.0052879
0.000158413
0.0052896
0.000159146
0.0052914
0.000159791
0.00529328
0.000160347
0.00529525
0.000160813
0.00529731
0.00016119
0.00529946
0.000161476
0.000161672
0.00529287
5.09431e-06
0.00529279
1.4699e-05
0.0052927
2.32408e-05
0.00529252
3.26781e-05
0.00529201
4.7609e-05
0.00529081
7.22022e-05
0.00528865
0.000106412
0.00528549
0.000145017
0.00528161
0.000180107
0.00527746
0.000204833
0.00527356
0.000215964
0.0052703
0.00021426
0.00526789
0.000203191
0.00526635
0.000187147
0.00526559
0.000170013
0.00526542
0.000154462
0.00526566
0.000141872
0.00526616
0.000132609
0.00526679
0.000126408
0.00526745