/*--------------------------------*- C++ -*----------------------------------*\
| =========                 |                                                 |
| \\      /  F ield         | OpenFOAM: The Open Source CFD Toolbox           |
|  \\    /   O peration     | Version:  2412                                  |
|   \\  /    A nd           | Website:  www.openfoam.com                      |
|    \\/     M anipulation  |                                                 |
\*---------------------------------------------------------------------------*/
FoamFile
{
    version     2.0;
    format      ascii;
    arch        "LSB;label=32;scalar=64";
    class       volVectorField;
    location    "28.5";
    object      vorticity;
}
// * * * * * * * * * * * * * * * * * * * * * * * * * * * * * * * * * * * * * //

dimensions      [0 0 -1 0 0 0 0];

internalField   nonuniform List<vector> 
5285
(
(2.06122e-21 1.57976e-22 -0.0110956)
(-2.88116e-21 1.33342e-23 -0.010808)
(1.89805e-21 1.22647e-21 -0.0104944)
(-7.10763e-22 4.37166e-23 -0.010159)
(-2.08779e-21 4.5662e-24 -0.00980491)
(9.9785e-22 -3.00884e-23 -0.0094354)
(1.40849e-22 1.94516e-21 -0.00905363)
(-4.97576e-23 5.02012e-23 -0.00866254)
(-1.53739e-22 -2.33959e-21 -0.00826487)
(1.21592e-22 2.50494e-21 -0.00786318)
(2.92032e-22 -2.8036e-21 -0.00745985)
(1.44258e-22 2.66668e-20 -0.00705707)
(-6.66712e-22 -2.662e-20 -0.00665691)
(-6.82137e-22 -2.37029e-20 -0.00626121)
(1.4815e-21 5.15744e-20 -0.00587172)
(-8.18795e-22 -2.81828e-20 -0.00548997)
(-2.50667e-22 -3.90014e-21 -0.00511738)
(2.41172e-22 4.01681e-21 -0.00475517)
(1.98435e-23 2.52018e-24 -0.00440445)
(1.45024e-22 4.37827e-21 -0.00406615)
(-5.00952e-22 -2.30357e-20 -0.00374108)
(4.88886e-22 2.32529e-20 -0.00342986)
(-1.48139e-22 -4.89079e-21 -0.00313299)
(3.12781e-22 1.52989e-20 -0.00285079)
(2.4084e-23 -5.06078e-21 -0.00258336)
(-2.098e-22 -1.0799e-20 -0.0023305)
(5.97662e-23 5.4471e-21 -0.00209155)
(-1.52377e-22 -5.67547e-21 -0.00186508)
(1.26084e-20 6.5677e-20 -0.0329442)
(-1.43685e-20 -6.77571e-20 -0.0320779)
(1.75714e-20 8.39988e-20 -0.0311348)
(-9.10071e-21 -3.33767e-20 -0.030129)
(-1.78289e-20 -1.06245e-19 -0.0290697)
(7.50803e-21 5.26425e-20 -0.0279662)
(1.56696e-21 -8.58071e-22 -0.0268276)
(-2.17729e-21 -4.50569e-21 -0.0256625)
(1.72603e-21 2.32899e-21 -0.0244788)
(-9.28398e-22 -8.18896e-21 -0.0232839)
(9.79753e-21 8.84981e-20 -0.022085)
(-2.09544e-20 -1.90003e-19 -0.0208884)
(9.86048e-21 9.25476e-20 -0.0197001)
(-5.92776e-22 -9.56858e-21 -0.0185256)
(-2.16449e-22 3.4382e-21 -0.01737)
(5.31273e-23 8.19736e-23 -0.0162378)
(-4.92324e-21 -6.72095e-20 -0.0151331)
(4.20843e-21 5.91794e-20 -0.0140596)
(3.54983e-21 6.04794e-20 -0.0130205)
(-5.12722e-21 -8.22575e-20 -0.0120184)
(1.67173e-22 4.53557e-21 -0.0110557)
(1.12572e-21 2.42675e-20 -0.0101343)
(-2.45177e-21 -4.3609e-20 -0.00925565)
(-7.32597e-23 -5.06391e-21 -0.00842055)
(-1.66996e-21 -3.68931e-20 -0.00762933)
(-3.73575e-22 -5.9658e-21 -0.00688133)
(4.23696e-22 1.06599e-20 -0.00617441)
(5.2923e-22 1.68542e-20 -0.00550393)
(-2.84238e-20 -8.02173e-20 -0.0538152)
(3.17106e-20 7.52524e-20 -0.0523569)
(-1.78322e-21 6.26778e-21 -0.0507807)
(2.89112e-22 -3.3892e-21 -0.0491059)
(-1.45654e-21 5.54784e-21 -0.0473494)
(-2.58751e-20 -1.27993e-19 -0.0455254)
(3.07407e-20 1.29929e-19 -0.0436483)
(-3.0764e-20 -1.43649e-19 -0.0417315)
(3.29384e-20 1.52014e-19 -0.0397876)
(7.78085e-22 5.74327e-21 -0.0378285)
(3.00542e-20 1.90299e-19 -0.0358653)
(-6.09757e-20 -3.8288e-19 -0.0339084)
(3.33061e-20 2.04738e-19 -0.031967)
(1.44031e-20 1.19856e-19 -0.0300502)
(-1.29001e-20 -1.04409e-19 -0.0281657)
(-9.4609e-22 -2.89975e-22 -0.0263208)
(1.47051e-22 -2.0059e-22 -0.0245221)
(5.64614e-23 -6.03767e-23 -0.0227753)
(1.3393e-20 1.4e-19 -0.0210854)
(-1.31686e-20 -1.31377e-19 -0.0194567)
(9.95406e-22 9.30143e-21 -0.0178929)
(-3.34966e-22 -1.14112e-22 -0.0163969)
(5.90891e-21 8.0231e-20 -0.0149708)
(-1.12961e-20 -1.53125e-19 -0.0136162)
(5.68756e-21 8.29093e-20 -0.0123333)
(-3.07254e-21 -4.39123e-20 -0.0111209)
(2.28254e-21 3.25829e-20 -0.0099749)
(5.5721e-22 1.10254e-20 -0.00888655)
(2.85838e-21 -1.07484e-22 -0.0731585)
(-7.80738e-21 3.31684e-21 -0.0710915)
(6.19604e-21 4.54204e-22 -0.0688746)
(2.76079e-22 7.93413e-21 -0.0665347)
(-8.41742e-20 -2.73479e-19 -0.0640952)
(8.68321e-20 2.61404e-19 -0.061573)
(-6.81944e-21 6.06671e-21 -0.0589867)
(-3.72811e-20 -1.6722e-19 -0.0563538)
(4.33401e-20 1.69982e-19 -0.0536907)
(-1.60183e-21 1.6708e-21 -0.0510129)
(-1.40199e-22 6.15749e-22 -0.0483349)
(-4.18428e-20 -2.19102e-19 -0.04567)
(8.57944e-20 4.40859e-19 -0.0430306)
(-8.48104e-20 -4.55194e-19 -0.040428)
(8.34546e-20 4.7771e-19 -0.0378728)
(-8.15797e-20 -4.99037e-19 -0.0353741)
(4.01429e-20 2.54058e-19 -0.0329405)
(1.98915e-20 1.38816e-19 -0.0305793)
(-1.72474e-20 -1.20583e-19 -0.0282972)
(-1.26616e-21 -9.35779e-21 -0.0260995)
(-1.78299e-20 -1.53243e-19 -0.0239911)
(3.7986e-20 3.31347e-19 -0.0219755)
(-1.78765e-20 -1.58596e-19 -0.0200556)
(2.45254e-22 2.08994e-22 -0.0182331)
(8.42337e-22 1.05454e-20 -0.0165081)
(-2.25033e-22 -1.67824e-22 -0.0148789)
(-8.15165e-22 -1.10722e-20 -0.0133391)
(1.80993e-21 2.28357e-20 -0.0118741)
(-9.33935e-20 -2.49658e-19 -0.087865)
(9.38074e-20 2.30637e-19 -0.0849994)
(-7.23443e-21 5.88087e-21 -0.082002)
(9.94768e-21 1.22139e-23 -0.078898)
(-6.84193e-21 -8.46184e-22 -0.0757078)
(-1.07918e-19 -3.46988e-19 -0.0724512)
(1.1337e-19 3.33966e-19 -0.0691487)
(-4.66917e-21 -6.60208e-22 -0.0658195)
(-5.6029e-20 -1.98471e-19 -0.0624817)
(5.39041e-20 2.08456e-19 -0.0591521)
(5.48339e-21 1.32326e-21 -0.0558464)
(-2.74119e-21 4.09226e-22 -0.052579)
(3.96222e-22 5.85184e-22 -0.049363)
(-5.38414e-20 -2.56176e-19 -0.0462106)
(5.62774e-20 2.63869e-19 -0.0431327)
(-5.04989e-20 -2.67471e-19 -0.040139)
(5.0451e-20 2.75526e-19 -0.037238)
(-2.64981e-21 -1.78233e-20 -0.0344374)
(1.49116e-21 9.23535e-21 -0.0317433)
(9.53689e-23 2.59694e-22 -0.0291613)
(-1.19224e-21 -9.83187e-21 -0.0266953)
(1.19155e-21 1.00789e-20 -0.0243486)
(-1.16061e-20 -9.52247e-20 -0.0221228)
(2.04213e-20 1.71753e-19 -0.0200182)
(-1.50564e-20 -1.3154e-19 -0.0180319)
(4.83237e-21 4.44727e-20 -0.0161556)
(2.34139e-22 1.37013e-22 -0.014368)
(1.17145e-19 2.93677e-19 -0.102416)
(-1.30615e-19 -2.75482e-19 -0.0988966)
(-1.22562e-19 -3.36735e-19 -0.0952521)
(1.25709e-19 3.13966e-19 -0.0915094)
(-6.60476e-21 5.16086e-21 -0.0876875)
(9.94711e-21 -3.56931e-21 -0.083807)
(1.27689e-19 4.04048e-19 -0.0798897)
(-1.22114e-21 2.73177e-20 -0.0759565)
(-1.34828e-19 -4.33983e-19 -0.0720269)
(-1.35725e-19 -4.77765e-19 -0.0681189)
(2.64503e-19 9.35036e-19 -0.0642495)
(-7.09518e-20 -2.32473e-19 -0.0604341)
(-6.63214e-20 -2.58966e-19 -0.056687)
(-6.56335e-20 -2.8827e-19 -0.0530212)
(1.22361e-19 5.398e-19 -0.0494484)
(-1.2483e-19 -5.7413e-19 -0.0459789)
(-4.72945e-22 -1.99867e-20 -0.042622)
(5.839e-20 2.95742e-19 -0.0393857)
(5.61168e-20 3.14242e-19 -0.0362766)
(-8.65928e-20 -4.93829e-19 -0.0333004)
(5.19312e-20 3.15032e-19 -0.0304612)
(-2.81089e-20 -1.75042e-19 -0.0277623)
(2.63174e-20 1.83136e-19 -0.0252054)
(-2.61603e-20 -1.83118e-19 -0.0227903)
(1.22788e-21 1.1016e-20 -0.0205139)
(-6.92531e-21 -5.70617e-20 -0.018366)
(2.78953e-21 2.25846e-20 -0.0163185)
(-1.37505e-19 -3.38602e-19 -0.111066)
(9.68269e-21 -6.95144e-21 -0.10727)
(5.75088e-21 -9.94778e-23 -0.103345)
(-5.1132e-21 1.02952e-20 -0.0993173)
(-1.49946e-19 -4.17513e-19 -0.095206)
(1.52558e-19 4.06912e-19 -0.091029)
(-5.33816e-21 4.56733e-21 -0.0868094)
(4.20257e-22 -4.90446e-23 -0.0825688)
(4.99277e-21 9.70097e-21 -0.0783279)
(-1.46027e-19 -4.99409e-19 -0.0741059)
(3.00149e-19 1.02697e-18 -0.069921)
(-1.50334e-19 -5.12629e-19 -0.06579)
(3.69952e-21 5.99113e-21 -0.0617285)
(2.975e-21 7.99683e-21 -0.0577509)
(6.97476e-20 2.94279e-19 -0.05387)
(-1.37536e-19 -5.84154e-19 -0.0500976)
(7.14758e-20 3.08659e-19 -0.0464441)
(-6.47594e-20 -3.06469e-19 -0.0429186)
(1.48717e-21 -8.77126e-21 -0.0395289)
(3.73988e-21 1.81444e-21 -0.0362814)
(6.4107e-20 3.40002e-19 -0.0331814)
(3.10016e-20 1.82692e-19 -0.0302327)
(-3.07907e-20 -1.82188e-19 -0.0274378)
(1.5584e-21 1.09534e-20 -0.0247971)
(1.30457e-20 9.05174e-20 -0.0223083)
(-1.15376e-20 -7.89822e-20 -0.0199619)
(1.43569e-21 1.14863e-20 -0.0177243)
(0 4.77255e-24 -0.00162028)
(0 -0 -0.0014359)
(0 -0 -0.00126704)
(0 -0 -0.00111278)
(0 -0 -0.000972242)
(0 -0 -0.000844598)
(0 -0 -0.000729091)
(0 -0 -0.00062503)
(0 -0 -0.000531767)
(0 -0 -0.000448688)
(0 -0 -0.000375189)
(0 -0 -0.000310666)
(0 -0 -0.000254504)
(0 -0 -0.000206075)
(0 -0 -0.000164737)
(0 -0 -0.000129836)
(0 -0 -0.000100715)
(0 -0 -7.67208e-05)
(0 -0 -5.7211e-05)
(0 -0 -4.15661e-05)
(0 -0 -2.9197e-05)
(0 -0 -1.9553e-05)
(0 -0 -1.21282e-05)
(0 -0 -6.46631e-06)
(0 -0 -2.16351e-06)
(0 -0 1.12975e-06)
(0 -0 3.70842e-06)
(0 -0 5.81287e-06)
(0 -0 7.62919e-06)
(0 -0 9.28942e-06)
(0 -0 1.08719e-05)
(0 -0 1.24029e-05)
(0 -0 1.386e-05)
(0 -0 1.51793e-05)
(0 -0 1.62678e-05)
(0 -0 1.70198e-05)
(0 -0 1.73372e-05)
(0 -0 1.71506e-05)
(0 -0 1.64366e-05)
(0 -0 1.52277e-05)
(0 -0 1.36113e-05)
(0 -0 1.17187e-05)
(0 -0 9.7023e-06)
(0 -0 7.7234e-06)
(0 -1.38184e-23 -0.00478538)
(0 -0 -0.00424284)
(0 -0 -0.00374581)
(0 -0 -0.00329144)
(0 -0 -0.00287712)
(0 -0 -0.00250046)
(0 -0 -0.00215928)
(0 -0 -0.00185163)
(0 -0 -0.00157568)
(0 -0 -0.0013297)
(0 -0 -0.00111196)
(0 -0 -0.000920721)
(0 -0 -0.000754204)
(0 -0 -0.000610576)
(0 -0 -0.000487955)
(0 -0 -0.00038442)
(0 -0 -0.000298033)
(0 -0 -0.00022686)
(0 -0 -0.000169002)
(0 -0 -0.000122623)
(0 -0 -8.59741e-05)
(0 -0 -5.74191e-05)
(0 -0 -3.5455e-05)
(0 -0 -1.87251e-05)
(0 -0 -6.02893e-06)
(0 -0 3.67332e-06)
(0 -0 1.12589e-05)
(0 -0 1.74426e-05)
(0 -0 2.27775e-05)
(0 -0 2.76557e-05)
(0 -0 3.23097e-05)
(0 -0 3.68164e-05)
(0 -0 4.11085e-05)
(0 -0 4.49957e-05)
(0 -0 4.82002e-05)
(0 -0 5.04075e-05)
(0 -0 5.13259e-05)
(0 -0 5.07491e-05)
(0 -0 4.86078e-05)
(0 -0 4.49988e-05)
(0 -0 4.01828e-05)
(0 -0 3.45497e-05)
(0 -0 2.85537e-05)
(0 -0 2.26751e-05)
(0 -8.5181e-24 -0.00773988)
(0 -0 -0.00686965)
(0 -0 -0.00607152)
(0 -0 -0.00534071)
(0 -0 -0.004673)
(0 -0 -0.00406472)
(0 -0 -0.00351269)
(0 -0 -0.00301406)
(0 -0 -0.00256615)
(0 -0 -0.00216639)
(0 -0 -0.00181217)
(0 -0 -0.00150081)
(0 -0 -0.00122952)
(0 -0 -0.000995409)
(0 -0 -0.000795459)
(0 -0 -0.000626588)
(0 -0 -0.000485663)
(0 -0 -0.000369551)
(0 -0 -0.000275166)
(0 -0 -0.000199518)
(0 -0 -0.000139757)
(0 -0 -9.32137e-05)
(0 -0 -5.74326e-05)
(0 -0 -3.01976e-05)
(0 -0 -9.54604e-06)
(0 -0 6.22223e-06)
(0 -0 1.85417e-05)
(0 -0 2.85814e-05)
(0 -0 3.72461e-05)
(0 -0 4.5177e-05)
(0 -0 5.27538e-05)
(0 -0 6.01018e-05)
(0 -0 6.71098e-05)
(0 -0 7.34648e-05)
(0 -0 7.8711e-05)
(0 -0 8.23314e-05)
(0 -0 8.38466e-05)
(0 -0 8.29167e-05)
(0 -0 7.94263e-05)
(0 -0 7.35323e-05)
(0 -0 6.56604e-05)
(0 -0 5.64484e-05)
(0 -0 4.66399e-05)
(0 -0 3.70236e-05)
(0 -1.69933e-23 -0.0103704)
(0 -0 -0.00922031)
(0 -0 -0.00816319)
(0 -0 -0.00719218)
(0 -0 -0.00630199)
(0 -0 -0.00548839)
(0 -0 -0.00474789)
(0 -0 -0.00407736)
(0 -0 -0.00347381)
(0 -0 -0.00293422)
(0 -0 -0.00245545)
(0 -0 -0.00203415)
(0 -0 -0.00166676)
(0 -0 -0.00134949)
(0 -0 -0.00107839)
(0 -0 -0.000849343)
(0 -0 -0.000658159)
(0 -0 -0.000500624)
(0 -0 -0.000372574)
(0 -0 -0.000269962)
(0 -0 -0.000188926)
(0 -0 -0.000125843)
(0 -0 -7.73801e-05)
(0 -0 -4.05227e-05)
(0 -0 -1.2602e-05)
(0 -0 8.69531e-06)
(0 -0 2.53216e-05)
(0 -0 3.88683e-05)
(0 -0 5.0567e-05)
(0 -0 6.12908e-05)
(0 -0 7.1556e-05)
(0 -0 8.15326e-05)
(0 -0 9.10671e-05)
(0 -0 9.97311e-05)
(0 -0 0.000106901)
(0 -0 0.000111867)
(0 -0 0.000113973)
(0 -0 0.000112751)
(0 -0 0.000108038)
(0 -0 0.000100046)
(0 -0 8.93512e-05)
(0 -0 7.6822e-05)
(0 -0 6.34719e-05)
(0 -0 5.03769e-05)
(0 6.49237e-25 -0.0125981)
(0 -0 -0.0112299)
(0 -0 -0.00996633)
(0 -0 -0.00879921)
(0 -0 -0.00772365)
(0 -0 -0.00673624)
(0 -0 -0.00583423)
(0 -0 -0.00501501)
(0 -0 -0.00427585)
(0 -0 -0.00361375)
(0 -0 -0.00302536)
(0 -0 -0.00250698)
(0 -0 -0.00205449)
(0 -0 -0.00166345)
(0 -0 -0.00132914)
(0 -0 -0.00104659)
(0 -0 -0.000810699)
(0 -0 -0.00061632)
(0 -0 -0.000458341)
(0 -0 -0.000331783)
(0 -0 -0.000231883)
(0 -0 -0.00015417)
(0 -0 -9.45206e-05)
(0 -0 -4.9208e-05)
(0 -0 -1.49277e-05)
(0 -0 1.11847e-05)
(0 -0 3.1548e-05)
(0 -0 4.81342e-05)
(0 -0 6.24694e-05)
(0 -0 7.56352e-05)
(0 -0 8.82712e-05)
(0 -0 0.000100587)
(0 -0 0.000112389)
(0 -0 0.000123143)
(0 -0 0.000132071)
(0 -0 0.000138288)
(0 -0 0.000140969)
(0 -0 0.000139529)
(0 -0 0.000133758)
(0 -0 0.000123911)
(0 -0 0.0001107)
(0 -0 9.51988e-05)
(0 -0 7.86654e-05)
(0 -0 6.24371e-05)
(0 -1.22892e-23 -0.0143921)
(0 -0 -0.0128759)
(0 -0 -0.0114615)
(0 -0 -0.0101429)
(0 -0 -0.00891936)
(0 -0 -0.0077903)
(0 -0 -0.00675479)
(0 -0 -0.00581144)
(0 -0 -0.00495823)
(0 -0 -0.00419253)
(0 -0 -0.00351108)
(0 -0 -0.00291)
(0 -0 -0.00238486)
(0 -0 -0.00193075)
(0 -0 -0.00154233)
(0 -0 -0.00121396)
(0 -0 -0.000939799)
(0 -0 -0.000713898)
(0 -0 -0.000530349)
(0 -0 -0.000383375)
(0 -0 -0.00026744)
(0 -0 -0.000177339)
(0 -0 -0.000108267)
(0 -0 -5.58765e-05)
(0 -0 -1.63133e-05)
(0 -0 1.37671e-05)
(0 -0 3.71887e-05)
(0 -0 5.62548e-05)
(0 -0 7.2748e-05)
(0 -0 8.79315e-05)
(0 -0 0.000102552)
(0 -0 0.000116852)
(0 -0 0.000130604)
(0 -0 0.000143178)
(0 -0 0.000153657)
(0 -0 0.000160999)
(0 -0 0.000164231)
(0 -0 0.000162654)
(0 -0 0.000156015)
(0 -0 0.000144601)
(0 -0 0.000129238)
(0 -0 0.000111178)
(0 -0 9.18914e-05)
(0 -0 7.29426e-05)
(0 -6.53472e-24 -0.0157824)
(0 -0 -0.0141866)
(0 -0 -0.0126646)
(0 -0 -0.0112308)
(0 -0 -0.00989087)
(0 -0 -0.00864877)
(0 -0 -0.00750578)
(0 -0 -0.00646186)
(0 -0 -0.00551583)
(0 -0 -0.00466552)
(0 -0 -0.00390785)
(0 -0 -0.00323893)
(0 -0 -0.00265412)
(0 -0 -0.00214816)
(0 -0 -0.00171527)
(0 -0 -0.00134927)
(0 -0 -0.00104369)
(0 -0 -0.000791976)
(0 -0 -0.00058754)
(0 -0 -0.000423949)
(0 -0 -0.000295027)
(0 -0 -0.000194954)
(0 -0 -0.00011836)
(0 -0 -6.03792e-05)
(0 -0 -1.66944e-05)
(0 -0 1.6439e-05)
(0 -0 4.21845e-05)
(0 -0 6.31227e-05)
(0 -0 8.1251e-05)
(0 -0 9.79849e-05)
(0 -0 0.000114161)
(0 -0 0.000130049)
(0 -0 0.00014539)
(0 -0 0.000159476)
(0 -0 0.000171268)
(0 -0 0.000179589)
(0 -0 0.000183335)
(0 -0 0.000181708)
(0 -0 0.000174408)
(0 -0 0.000161746)
(0 -0 0.000144637)
(0 -0 0.000124481)
(0 -0 0.000102922)
(0 -0 8.1716e-05)
(0 -0 -0.0169609)
(0 -0 -0.0152543)
(0 -0 -0.0136309)
(0 -0 -0.0120986)
(0 -0 -0.0106634)
(0 -0 -0.00933)
(0 -0 -0.00810071)
(0 -0 -0.00697625)
(0 -0 -0.00595597)
(0 -0 -0.00503804)
(0 -0 -0.0042195)
(0 -0 -0.00349645)
(0 -0 -0.00286408)
(0 -0 -0.00231687)
(0 -0 -0.00184866)
(0 -0 -0.00145285)
(0 -0 -0.00112249)
(0 -0 -0.000850489)
(0 -0 -0.00062974)
(0 -0 -0.00045327)
(0 -0 -0.000314376)
(0 -0 -0.000206744)
(0 -0 -0.000124538)
(0 -0 -6.2471e-05)
(0 -0 -1.58519e-05)
(0 -0 1.93906e-05)
(0 -0 4.66957e-05)
(0 -0 6.88691e-05)
(0 -0 8.80827e-05)
(0 -0 0.000105876)
(0 -0 0.000123157)
(0 -0 0.000140218)
(0 -0 0.000156777)
(0 -0 0.000172054)
(0 -0 0.000184915)
(0 -0 0.000194062)
(0 -0 0.000198282)
(0 -0 0.000196687)
(0 -0 0.000188933)
(0 -0 0.00017534)
(0 -0 0.00015689)
(0 -0 0.000135097)
(0 -0 0.000111746)
(0 -0 8.87529e-05)
(0 -0 -0.0178881)
(0 -0 -0.0160866)
(0 -0 -0.0143753)
(0 -0 -0.0127605)
(0 -0 -0.0112483)
(0 -0 -0.00984278)
(0 -0 -0.00854635)
(0 -0 -0.00735989)
(0 -0 -0.0062829)
(0 -0 -0.00531359)
(0 -0 -0.00444902)
(0 -0 -0.00368518)
(0 -0 -0.00301711)
(0 -0 -0.00243904)
(0 -0 -0.00194453)
(0 -0 -0.00152662)
(0 -0 -0.00117799)
(0 -0 -0.000891132)
(0 -0 -0.000658529)
(0 -0 -0.000472794)
(0 -0 -0.000326822)
(0 -0 -0.000213915)
(0 -0 -0.000127884)
(0 -0 -6.31195e-05)
(0 -0 -1.4643e-05)
(0 -0 2.18643e-05)
(0 -0 5.00516e-05)
(0 -0 7.28958e-05)
(0 -0 9.27019e-05)
(0 -0 0.000111104)
(0 -0 0.000129067)
(0 -0 0.000146903)
(0 -0 0.00016431)
(0 -0 0.000180458)
(0 -0 0.000194136)
(0 -0 0.000203957)
(0 -0 0.000208614)
(0 -0 0.000207148)
(0 -0 0.000199171)
(0 -0 0.000184999)
(0 -0 0.000165657)
(0 -0 0.000142738)
(0 -0 0.000118127)
(0 -0 9.38695e-05)
(0 -0 -0.0185532)
(0 -0 -0.0166684)
(0 -0 -0.0148846)
(0 -0 -0.0132061)
(0 -0 -0.0116366)
(0 -0 -0.0101791)
(0 -0 -0.00883542)
(0 -0 -0.0076062)
(0 -0 -0.00649068)
(0 -0 -0.00548692)
(0 -0 -0.00459182)
(0 -0 -0.00380119)
(0 -0 -0.00310989)
(0 -0 -0.00251194)
(0 -0 -0.00200065)
(0 -0 -0.0015688)
(0 -0 -0.00120879)
(0 -0 -0.00091283)
(0 -0 -0.000673101)
(0 -0 -0.000481932)
(0 -0 -0.000331943)
(0 -0 -0.000216177)
(0 -0 -0.000128202)
(0 -0 -6.21947e-05)
(0 -0 -1.29865e-05)
(0 -0 2.39063e-05)
(0 -0 5.22711e-05)
(0 -0 7.51978e-05)
(0 -0 9.50796e-05)
(0 -0 0.000113614)
(0 -0 0.000131805)
(0 -0 0.000149979)
(0 -0 0.000167825)
(0 -0 0.000184482)
(0 -0 0.000198686)
(0 -0 0.000208991)
(0 -0 0.000214023)
(0 -0 0.000212766)
(0 -0 0.000204792)
(0 -0 0.000190404)
(0 -0 0.000170642)
(0 -0 0.00014714)
(0 -0 0.000121841)
(0 -0 9.68766e-05)
(0 -0 -0.0189402)
(0 -0 -0.0169989)
(0 -0 -0.0151667)
(0 -0 -0.0134466)
(0 -0 -0.0118409)
(0 -0 -0.0103516)
(0 -0 -0.00898008)
(0 -0 -0.00772638)
(0 -0 -0.0065894)
(0 -0 -0.00556693)
(0 -0 -0.00465563)
(0 -0 -0.00385112)
(0 -0 -0.00314808)
(0 -0 -0.00254033)
(0 -0 -0.00202099)
(0 -0 -0.00158267)
(0 -0 -0.00121759)
(0 -0 -0.000917758)
(0 -0 -0.000675197)
(0 -0 -0.00048206)
(0 -0 -0.00033081)
(0 -0 -0.000214342)
(0 -0 -0.000126094)
(0 -0 -6.01264e-05)
(0 -0 -1.11688e-05)
(0 -0 2.53479e-05)
(0 -0 5.32829e-05)
(0 -0 7.57845e-05)
(0 -0 9.52917e-05)
(0 -0 0.000113537)
(0 -0 0.000131547)
(0 -0 0.00014966)
(0 -0 0.000167565)
(0 -0 0.000184386)
(0 -0 0.000198838)
(0 -0 0.000209438)
(0 -0 0.000214775)
(0 -0 0.000213792)
(0 -0 0.000206027)
(0 -0 0.00019176)
(0 -0 0.000172019)
(0 -0 0.000148446)
(0 -0 0.000123001)
(0 -0 9.78576e-05)
(0 -0 -0.0190466)
(0 -0 -0.0170807)
(0 -0 -0.0152281)
(0 -0 -0.0134912)
(0 -0 -0.011872)
(0 -0 -0.0103718)
(0 -0 -0.00899173)
(0 -0 -0.0077313)
(0 -0 -0.00658913)
(0 -0 -0.00556274)
(0 -0 -0.00464857)
(0 -0 -0.00384208)
(0 -0 -0.00313779)
(0 -0 -0.0025294)
(0 -0 -0.00200992)
(0 -0 -0.00157186)
(0 -0 -0.00120734)
(0 -0 -0.000908315)
(0 -0 -0.000666727)
(0 -0 -0.000474674)
(0 -0 -0.00032457)
(0 -0 -0.00020927)
(0 -0 -0.000122181)
(0 -0 -5.73373e-05)
(0 -0 -9.45031e-06)
(0 -0 2.60632e-05)
(0 -0 5.30729e-05)
(0 -0 7.47353e-05)
(0 -0 9.34977e-05)
(0 -0 0.0001111)
(0 -0 0.000128579)
(0 -0 0.000146282)
(0 -0 0.000163904)
(0 -0 0.000180577)
(0 -0 0.000195016)
(0 -0 0.000205731)
(0 -0 0.000211299)
(0 -0 0.000210637)
(0 -0 0.000203257)
(0 -0 0.000189407)
(0 -0 0.000170084)
(0 -0 0.000146903)
(0 -0 0.000121803)
(0 -0 9.69653e-05)
(0 -0 -0.0188815)
(0 -0 -0.016923)
(0 -0 -0.0150786)
(0 -0 -0.0133508)
(0 -0 -0.0117412)
(0 -0 -0.0102513)
(0 -0 -0.00888161)
(0 -0 -0.00763165)
(0 -0 -0.00649978)
(0 -0 -0.00548335)
(0 -0 -0.00457868)
(0 -0 -0.00378113)
(0 -0 -0.00308514)
(0 -0 -0.00248437)
(0 -0 -0.00197182)
(0 -0 -0.00153999)
(0 -0 -0.00118102)
(0 -0 -0.000886891)
(0 -0 -0.000649582)
(0 -0 -0.000461241)
(0 -0 -0.000314335)
(0 -0 -0.000201778)
(0 -0 -0.000117035)
(0 -0 -5.41985e-05)
(0 -0 -8.03642e-06)
(0 -0 2.59837e-05)
(0 -0 5.16872e-05)
(0 -0 7.21944e-05)
(0 -0 8.99261e-05)
(0 -0 0.000106607)
(0 -0 0.000123271)
(0 -0 0.000140271)
(0 -0 0.000157319)
(0 -0 0.00017357)
(0 -0 0.000187762)
(0 -0 0.000198426)
(0 -0 0.000204144)
(0 -0 0.000203832)
(0 -0 0.000196979)
(0 -0 0.000183794)
(0 -0 0.000165227)
(0 -0 0.000142839)
(0 -0 0.000118514)
(0 -0 9.44057e-05)
(0 -0 -0.0184637)
(0 -0 -0.0165425)
(0 -0 -0.0147337)
(0 -0 -0.0130397)
(0 -0 -0.0114623)
(0 -0 -0.0100027)
(0 -0 -0.00866161)
(0 -0 -0.00743836)
(0 -0 -0.00633127)
(0 -0 -0.00533766)
(0 -0 -0.00445382)
(0 -0 -0.00367511)
(0 -0 -0.00299601)
(0 -0 -0.00241024)
(0 -0 -0.00191088)
(0 -0 -0.00149051)
(0 -0 -0.00114142)
(0 -0 -0.000855714)
(0 -0 -0.000625505)
(0 -0 -0.000443094)
(0 -0 -0.000301097)
(0 -0 -0.000192573)
(0 -0 -0.000111131)
(0 -0 -5.09958e-05)
(0 -0 -7.0572e-06)
(0 -0 2.51085e-05)
(0 -0 4.92336e-05)
(0 -0 6.83631e-05)
(0 -0 8.48615e-05)
(0 -0 0.000100418)
(0 -0 0.00011605)
(0 -0 0.000132116)
(0 -0 0.000148353)
(0 -0 0.000163952)
(0 -0 0.000177695)
(0 -0 0.000188154)
(0 -0 0.000193944)
(0 -0 0.000193991)
(0 -0 0.000187767)
(0 -0 0.000175444)
(0 -0 0.000157908)
(0 -0 0.000136641)
(0 -0 0.000113448)
(0 -0 9.04237e-05)
(0 -0 -0.0178199)
(0 -0 -0.0159627)
(0 -0 -0.014214)
(0 -0 -0.0125764)
(0 -0 -0.0110515)
(0 -0 -0.00964075)
(0 -0 -0.00834481)
(0 -0 -0.00716306)
(0 -0 -0.00609389)
(0 -0 -0.00513467)
(0 -0 -0.00428179)
(0 -0 -0.00353072)
(0 -0 -0.00287608)
(0 -0 -0.00231175)
(0 -0 -0.00183099)
(0 -0 -0.00142661)
(0 -0 -0.00109109)
(0 -0 -0.000816781)
(0 -0 -0.000596033)
(0 -0 -0.000421385)
(0 -0 -0.000285686)
(0 -0 -0.000182227)
(0 -0 -0.00010483)
(0 -0 -4.79181e-05)
(0 -0 -6.56266e-06)
(0 -0 2.3502e-05)
(0 -0 4.58734e-05)
(0 -0 6.34872e-05)
(0 -0 7.86255e-05)
(0 -0 9.29231e-05)
(0 -0 0.000107373)
(0 -0 0.000122337)
(0 -0 0.000137581)
(0 -0 0.000152344)
(0 -0 0.00016547)
(0 -0 0.000175593)
(0 -0 0.000181375)
(0 -0 0.00018177)
(0 -0 0.000176243)
(0 -0 0.000164922)
(0 -0 0.000148622)
(0 -0 0.000128731)
(0 -0 0.000106948)
(0 -0 8.52877e-05)
(0 -0 -0.0169833)
(0 -0 -0.0152125)
(0 -0 -0.0135448)
(0 -0 -0.0119828)
(0 -0 -0.010528)
(0 -0 -0.00918208)
(0 -0 -0.00794565)
(0 -0 -0.00681825)
(0 -0 -0.00579838)
(0 -0 -0.00488357)
(0 -0 -0.00407039)
(0 -0 -0.00335451)
(0 -0 -0.00273079)
(0 -0 -0.00219338)
(0 -0 -0.00173581)
(0 -0 -0.00135119)
(0 -0 -0.00103231)
(0 -0 -0.000771848)
(0 -0 -0.000562481)
(0 -0 -0.000397067)
(0 -0 -0.000268767)
(0 -0 -0.000171169)
(0 -0 -9.83736e-05)
(0 -0 -4.50606e-05)
(0 -0 -6.52948e-06)
(0 -0 2.12844e-05)
(0 -0 4.18083e-05)
(0 -0 5.78398e-05)
(0 -0 7.15569e-05)
(0 -0 8.4525e-05)
(0 -0 9.77028e-05)
(0 -0 0.000111454)
(0 -0 0.000125576)
(0 -0 0.000139367)
(0 -0 0.000151744)
(0 -0 0.000161418)
(0 -0 0.000167118)
(0 -0 0.000167833)
(0 -0 0.000163032)
(0 -0 0.000152803)
(0 -0 0.000137878)
(0 -0 0.000119539)
(0 -0 9.93669e-05)
(0 -0 7.92753e-05)
(0 -0 -0.0159906)
(0 -0 -0.0143242)
(0 -0 -0.0127543)
(0 -0 -0.0112833)
(0 -0 -0.009913)
(0 -0 -0.00864485)
(0 -0 -0.00747969)
(0 -0 -0.00641717)
(0 -0 -0.00545595)
(0 -0 -0.00459378)
(0 -0 -0.00382747)
(0 -0 -0.00315298)
(0 -0 -0.00256547)
(0 -0 -0.00205941)
(0 -0 -0.00162873)
(0 -0 -0.0012669)
(0 -0 -0.000967121)
(0 -0 -0.000722447)
(0 -0 -0.000525965)
(0 -0 -0.00037092)
(0 -0 -0.000250852)
(0 -0 -0.000159703)
(0 -0 -9.19048e-05)
(0 -0 -4.24395e-05)
(0 -0 -6.87602e-06)
(0 -0 1.86152e-05)
(0 -0 3.72626e-05)
(0 -0 5.17028e-05)
(0 -0 6.39915e-05)
(0 -0 7.56119e-05)
(0 -0 8.74811e-05)
(0 -0 9.99603e-05)
(0 -0 0.000112881)
(0 -0 0.000125607)
(0 -0 0.000137138)
(0 -0 0.000146275)
(0 -0 0.000151822)
(0 -0 0.00015282)
(0 -0 0.000148743)
(0 -0 0.000139642)
(0 -0 0.000126168)
(0 -0 0.000109488)
(0 -0 9.10506e-05)
(0 -0 7.2659e-05)
(0 -0 -0.0148804)
(0 -0 -0.0133317)
(0 -0 -0.011872)
(0 -0 -0.0105038)
(0 -0 -0.00922857)
(0 -0 -0.00804805)
(0 -0 -0.0069631)
(0 -0 -0.00597348)
(0 -0 -0.00507808)
(0 -0 -0.00427485)
(0 -0 -0.0035609)
(0 -0 -0.00293253)
(0 -0 -0.00238525)
(0 -0 -0.00191395)
(0 -0 -0.00151297)
(0 -0 -0.00117623)
(0 -0 -0.000897371)
(0 -0 -0.000669927)
(0 -0 -0.000487433)
(0 -0 -0.000343579)
(0 -0 -0.000232331)
(0 -0 -0.000148033)
(0 -0 -8.54871e-05)
(0 -0 -4.0014e-05)
(0 -0 -7.48287e-06)
(0 -0 1.56746e-05)
(0 -0 3.24661e-05)
(0 -0 4.53497e-05)
(0 -0 5.62446e-05)
(0 -0 6.65417e-05)
(0 -0 7.71093e-05)
(0 -0 8.8303e-05)
(0 -0 9.99892e-05)
(0 -0 0.000111598)
(0 -0 0.00012222)
(0 -0 0.000130751)
(0 -0 0.000136084)
(0 -0 0.000137315)
(0 -0 0.000133934)
(0 -0 0.000125956)
(0 -0 0.000113952)
(0 -0 9.89703e-05)
(0 -0 8.23232e-05)
(0 -0 6.56955e-05)
(0 -0 -0.0136911)
(0 -0 -0.0122688)
(0 -0 -0.0109275)
(0 -0 -0.00966978)
(0 -0 -0.00849696)
(0 -0 -0.00741073)
(0 -0 -0.00641205)
(0 -0 -0.00550083)
(0 -0 -0.00467613)
(0 -0 -0.00393618)
(0 -0 -0.00327839)
(0 -0 -0.00269939)
(0 -0 -0.00219513)
(0 -0 -0.00176091)
(0 -0 -0.00139154)
(0 -0 -0.00108144)
(0 -0 -0.000824748)
(0 -0 -0.000615493)
(0 -0 -0.00044771)
(0 -0 -0.000315573)
(0 -0 -0.000213509)
(0 -0 -0.000136295)
(0 -0 -7.91348e-05)
(0 -0 -3.77107e-05)
(0 -0 -8.21378e-06)
(0 -0 1.26448e-05)
(0 -0 2.76372e-05)
(0 -0 3.90297e-05)
(0 -0 4.85959e-05)
(0 -0 5.76258e-05)
(0 -0 6.69336e-05)
(0 -0 7.68655e-05)
(0 -0 8.73206e-05)
(0 -0 9.77971e-05)
(0 -0 0.000107477)
(0 -0 0.000115358)
(0 -0 0.000120422)
(0 -0 0.000121831)
(0 -0 0.000119096)
(0 -0 0.0001122)
(0 -0 0.000101636)
(0 -0 8.83367e-05)
(0 -0 7.34756e-05)
(0 -0 5.86161e-05)
(0 -0 -0.0124589)
(0 -0 -0.0111676)
(0 -0 -0.00994917)
(0 -0 -0.00880601)
(0 -0 -0.00773946)
(0 -0 -0.00675115)
(0 -0 -0.00584209)
(0 -0 -0.00501232)
(0 -0 -0.00426106)
(0 -0 -0.00358681)
(0 -0 -0.00298729)
(0 -0 -0.00245951)
(0 -0 -0.00199981)
(0 -0 -0.00160397)
(0 -0 -0.00126728)
(0 -0 -0.000984662)
(0 -0 -0.000750794)
(0 -0 -0.000560229)
(0 -0 -0.000407522)
(0 -0 -0.000287353)
(0 -0 -0.000194631)
(0 -0 -0.000124586)
(0 -0 -7.28376e-05)
(0 -0 -3.54457e-05)
(0 -0 -8.93501e-06)
(0 -0 9.69374e-06)
(0 -0 2.29683e-05)
(0 -0 3.29564e-05)
(0 -0 4.12789e-05)
(0 -0 4.91204e-05)
(0 -0 5.7236e-05)
(0 -0 6.59588e-05)
(0 -0 7.52176e-05)
(0 -0 8.45763e-05)
(0 -0 9.33086e-05)
(0 -0 0.000100513)
(0 -0 0.000105267)
(0 -0 0.000106798)
(0 -0 0.000104642)
(0 -0 9.87597e-05)
(0 -0 8.95677e-05)
(0 -0 7.7887e-05)
(0 -0 6.47572e-05)
(0 -0 5.16205e-05)
(0 -0 -0.0112168)
(0 -0 -0.0100573)
(0 -0 -0.00896264)
(0 -0 -0.007935)
(0 -0 -0.00697565)
(0 -0 -0.00608616)
(0 -0 -0.00526759)
(0 -0 -0.00452006)
(0 -0 -0.003843)
(0 -0 -0.00323512)
(0 -0 -0.00269446)
(0 -0 -0.00221839)
(0 -0 -0.00180366)
(0 -0 -0.00144653)
(0 -0 -0.00114277)
(0 -0 -0.000887831)
(0 -0 -0.000676917)
(0 -0 -0.000505118)
(0 -0 -0.00036752)
(0 -0 -0.000259318)
(0 -0 -0.00017591)
(0 -0 -0.000112984)
(0 -0 -6.65816e-05)
(0 -0 -3.3143e-05)
(0 -0 -9.53052e-06)
(0 -0 6.96249e-06)
(0 -0 1.86168e-05)
(0 -0 2.7299e-05)
(0 -0 3.44752e-05)
(0 -0 4.12213e-05)
(0 -0 4.82299e-05)
(0 -0 5.58176e-05)
(0 -0 6.39388e-05)
(0 -0 7.22194e-05)
(0 -0 8.00213e-05)
(0 -0 8.65429e-05)
(0 -0 9.09544e-05)
(0 -0 9.25518e-05)
(0 -0 9.09009e-05)
(0 -0 8.59421e-05)
(0 -0 7.8025e-05)
(0 -0 6.78646e-05)
(0 -0 5.63721e-05)
(0 -0 4.48733e-05)
(0 -0 -0.00999353)
(0 -0 -0.00896352)
(0 -0 -0.00799057)
(0 -0 -0.00707658)
(0 -0 -0.00622276)
(0 -0 -0.00543062)
(0 -0 -0.00470125)
(0 -0 -0.00403483)
(0 -0 -0.00343096)
(0 -0 -0.00288857)
(0 -0 -0.00240599)
(0 -0 -0.00198094)
(0 -0 -0.0016106)
(0 -0 -0.00129164)
(0 -0 -0.00102036)
(0 -0 -0.000792689)
(0 -0 -0.000604377)
(0 -0 -0.00045104)
(0 -0 -0.000328291)
(0 -0 -0.00023183)
(0 -0 -0.000157542)
(0 -0 -0.000101566)
(0 -0 -6.03626e-05)
(0 -0 -3.07458e-05)
(0 -0 -9.91186e-06)
(0 -0 4.55739e-06)
(0 -0 1.46987e-05)
(0 -0 2.21797e-05)
(0 -0 2.83124e-05)
(0 -0 3.40633e-05)
(0 -0 4.0061e-05)
(0 -0 4.66019e-05)
(0 -0 5.36616e-05)
(0 -0 6.09229e-05)
(0 -0 6.78306e-05)
(0 -0 7.36781e-05)
(0 -0 7.77263e-05)
(0 -0 7.93392e-05)
(0 -0 7.81145e-05)
(0 -0 7.39779e-05)
(0 -0 6.72188e-05)
(0 -0 5.8455e-05)
(0 -0 4.84774e-05)
(0 -0 3.85023e-05)
(0 -0 -0.00881312)
(0 -0 -0.0079077)
(0 -0 -0.0070519)
(0 -0 -0.0062474)
(0 -0 -0.00549533)
(0 -0 -0.00479712)
(0 -0 -0.00415384)
(0 -0 -0.00356577)
(0 -0 -0.00303262)
(0 -0 -0.00255354)
(0 -0 -0.00212711)
(0 -0 -0.00175141)
(0 -0 -0.00142398)
(0 -0 -0.00114195)
(0 -0 -0.000902052)
(0 -0 -0.000700747)
(0 -0 -0.000534275)
(0 -0 -0.000398771)
(0 -0 -0.000290353)
(0 -0 -0.000205214)
(0 -0 -0.000139708)
(0 -0 -9.04144e-05)
(0 -0 -5.4193e-05)
(0 -0 -2.82233e-05)
(0 -0 -1.00229e-05)
(0 -0 2.54733e-06)
(0 -0 1.12881e-05)
(0 -0 1.76739e-05)
(0 -0 2.28663e-05)
(0 -0 2.77245e-05)
(0 -0 3.28124e-05)
(0 -0 3.8403e-05)
(0 -0 4.44887e-05)
(0 -0 5.08031e-05)
(0 -0 5.6867e-05)
(0 -0 6.20629e-05)
(0 -0 6.57376e-05)
(0 -0 6.73213e-05)
(0 -0 6.64445e-05)
(0 -0 6.30234e-05)
(0 -0 5.72944e-05)
(0 -0 4.97879e-05)
(0 -0 4.11846e-05)
(0 -0 3.25994e-05)
(0 -0 -0.00769459)
(0 -0 -0.00690682)
(0 -0 -0.0061617)
(0 -0 -0.00546077)
(0 -0 -0.00480498)
(0 -0 -0.00419573)
(0 -0 -0.00363405)
(0 -0 -0.00312027)
(0 -0 -0.0026542)
(0 -0 -0.0022352)
(0 -0 -0.00186209)
(0 -0 -0.00153324)
(0 -0 -0.00124657)
(0 -0 -0.000999602)
(0 -0 -0.000789529)
(0 -0 -0.000613264)
(0 -0 -0.000467535)
(0 -0 -0.000348964)
(0 -0 -0.000254151)
(0 -0 -0.000179757)
(0 -0 -0.00012258)
(0 -0 -7.96141e-05)
(0 -0 -4.81034e-05)
(0 -0 -2.5571e-05)
(0 -0 -9.83963e-06)
(0 -0 9.64932e-07)
(0 -0 8.41924e-06)
(0 -0 1.3814e-05)
(0 -0 1.81667e-05)
(0 -0 2.22329e-05)
(0 -0 2.6512e-05)
(0 -0 3.12522e-05)
(0 -0 3.64576e-05)
(0 -0 4.19061e-05)
(0 -0 4.71871e-05)
(0 -0 5.17645e-05)
(0 -0 5.50652e-05)
(0 -0 5.65825e-05)
(0 -0 5.59796e-05)
(0 -0 5.31675e-05)
(0 -0 4.83374e-05)
(0 -0 4.1942e-05)
(0 -0 3.4563e-05)
(0 -0 2.72236e-05)
(0 -0 -0.00665203)
(0 -0 -0.0059735)
(0 -0 -0.00533124)
(0 -0 -0.0047266)
(0 -0 -0.00416044)
(0 -0 -0.00363404)
(0 -0 -0.00314841)
(0 -0 -0.00270389)
(0 -0 -0.00230043)
(0 -0 -0.0019375)
(0 -0 -0.00161417)
(0 -0 -0.00132908)
(0 -0 -0.00108049)
(0 -0 -0.000866294)
(0 -0 -0.00068409)
(0 -0 -0.00053123)
(0 -0 -0.000404891)
(0 -0 -0.000302148)
(0 -0 -0.000220053)
(0 -0 -0.000155702)
(0 -0 -0.000106308)
(0 -0 -6.9254e-05)
(0 -0 -4.21389e-05)
(0 -0 -2.28074e-05)
(0 -0 -9.36658e-06)
(0 -0 -1.89069e-07)
(0 -0 6.09236e-06)
(0 -0 1.05962e-05)
(0 -0 1.42047e-05)
(0 -0 1.75745e-05)
(0 -0 2.11429e-05)
(0 -0 2.51315e-05)
(0 -0 2.9552e-05)
(0 -0 3.42199e-05)
(0 -0 3.87854e-05)
(0 -0 4.27857e-05)
(0 -0 4.57204e-05)
(0 -0 4.7142e-05)
(0 -0 4.6746e-05)
(0 -0 4.44413e-05)
(0 -0 4.03816e-05)
(0 -0 3.49516e-05)
(0 -0 2.86452e-05)
(0 -0 2.24041e-05)
(0 -0 -0.00569496)
(0 -0 -0.00511628)
(0 -0 -0.00456813)
(0 -0 -0.00405168)
(0 -0 -0.00356765)
(0 -0 -0.00311724)
(0 -0 -0.0027014)
(0 -0 -0.0023205)
(0 -0 -0.00197455)
(0 -0 -0.00166317)
(0 -0 -0.00138562)
(0 -0 -0.0011408)
(0 -0 -0.000927247)
(0 -0 -0.000743215)
(0 -0 -0.000586668)
(0 -0 -0.000455359)
(0 -0 -0.000346877)
(0 -0 -0.000258715)
(0 -0 -0.000188337)
(0 -0 -0.000133242)
(0 -0 -9.10225e-05)
(0 -0 -5.94176e-05)
(0 -0 -3.63531e-05)
(0 -0 -1.99681e-05)
(0 -0 -8.63046e-06)
(0 -0 -9.39305e-07)
(0 -0 4.28023e-06)
(0 -0 7.98798e-06)
(0 -0 1.0941e-05)
(0 -0 1.37035e-05)
(0 -0 1.66533e-05)
(0 -0 1.9985e-05)
(0 -0 2.37142e-05)
(0 -0 2.76877e-05)
(0 -0 3.16083e-05)
(0 -0 3.5078e-05)
(0 -0 3.76622e-05)
(0 -0 3.89671e-05)
(0 -0 3.87193e-05)
(0 -0 3.68286e-05)
(0 -0 3.34178e-05)
(0 -0 2.88135e-05)