/*--------------------------------*- C++ -*----------------------------------*\
| =========                 |                                                 |
| \\      /  F ield         | OpenFOAM: The Open Source CFD Toolbox           |
|  \\    /   O peration     | Version:  2412                                  |
|   \\  /    A nd           | Website:  www.openfoam.com                      |
|    \\/     M anipulation  |                                                 |
\*---------------------------------------------------------------------------*/
FoamFile
{
    version     2.0;
    format      ascii;
    arch        "LSB;label=32;scalar=64";
    class       volScalarField;
    location    "28";
    object      p;
}
// * * * * * * * * * * * * * * * * * * * * * * * * * * * * * * * * * * * * * //

dimensions      [0 2 -2 0 0 0 0];

internalField   nonuniform List<scalar> 
5285
(
-0.00094438
-0.000885201
-0.000916544
-0.000937862
-0.000957704
-0.000975287
-0.000989598
-0.00100069
-0.00100878
-0.00101397
-0.00101636
-0.00101607
-0.00101323
-0.00100797
-0.00100042
-0.000990733
-0.000979039
-0.000965487
-0.000950218
-0.000933376
-0.000915104
-0.000895542
-0.000874828
-0.000853097
-0.000830059
-0.000859927
-0.000880803
-0.000900256
-0.000917586
-0.000931886
-0.000943202
-0.000951712
-0.000957513
-0.000960691
-0.000961345
-0.000959591
-0.000955545
-0.000949332
-0.000941077
-0.000930911
-0.000918963
-0.000905365
-0.000890251
-0.000873751
-0.000855996
-0.000837113
-0.000817229
-0.0007786
-0.000807068
-0.000827473
-0.000846508
-0.000863543
-0.000877773
-0.000889232
-0.000898075
-0.000904384
-0.000908233
-0.000909709
-0.000908913
-0.000905951
-0.000900934
-0.000893975
-0.000885193
-0.000874707
-0.000862638
-0.000849108
-0.000834238
-0.00081815
-0.00080096
-0.000782789
-0.000730512
-0.000757653
-0.000777572
-0.000796168
-0.00081288
-0.000826991
-0.000838529
-0.000847628
-0.000854357
-0.000858777
-0.000860969
-0.000861018
-0.000859021
-0.000855076
-0.000849287
-0.00084176
-0.000832605
-0.000821933
-0.000809856
-0.000796486
-0.000781934
-0.00076631
-0.000749724
-0.000685509
-0.000711396
-0.000730823
-0.000748969
-0.000765337
-0.000779293
-0.000790858
-0.000800147
-0.000807219
-0.000812127
-0.000814939
-0.000815734
-0.000814595
-0.000811611
-0.000806877
-0.000800488
-0.000792546
-0.00078315
-0.000772404
-0.000760412
-0.000747276
-0.000733099
-0.000717981
-0.000643336
-0.000668039
-0.000686971
-0.000704664
-0.000720674
-0.000734446
-0.000745996
-0.000755421
-0.00076277
-0.00076809
-0.000771441
-0.000772891
-0.000772516
-0.000770394
-0.000766611
-0.000761254
-0.000754414
-0.000746185
-0.000736659
-0.000725934
-0.000714103
-0.000701261
-0.000687503
-0.000603762
-0.000627348
-0.00064579
-0.000663028
-0.000678674
-0.00069224
-0.000703739
-0.000713253
-0.000720824
-0.000726492
-0.000730309
-0.000732335
-0.000732638
-0.000731288
-0.000728363
-0.000723941
-0.000718105
-0.00071094
-0.000702534
-0.000692972
-0.000682344
-0.000670736
-0.000658236
-0.000566581
-0.000589113
-0.000607071
-0.000623859
-0.000639137
-0.000652481
-0.000663901
-0.000673465
-0.00068121
-0.000687169
-0.000691388
-0.00069392
-0.000694825
-0.000694167
-0.000692015
-0.00068844
-0.000683517
-0.000677326
-0.000669944
-0.000661453
-0.000651933
-0.000641464
-0.000630129
-0.000531607
-0.000553146
-0.000570628
-0.000586972
-0.000601882
-0.000614993
-0.00062631
-0.000635892
-0.00064377
-0.000649971
-0.000654536
-0.000657512
-0.000658951
-0.000658912
-0.000657456
-0.000654649
-0.000650558
-0.000645255
-0.000638812
-0.000631304
-0.000622805
-0.000613389
-0.000603132
-0.000498671
-0.000519273
-0.000536291
-0.0005522
-0.000566744
-0.000579613
-0.00059081
-0.000600383
-0.000608358
-0.000614758
-0.00061962
-0.000622984
-0.000624897
-0.000625412
-0.000624584
-0.000622471
-0.000619137
-0.000614645
-0.000609063
-0.000602458
-0.0005949
-0.000586456
-0.000577196
-0.00046762
-0.00048734
-0.000503906
-0.000519388
-0.000533572
-0.000546195
-0.000557257
-0.000566798
-0.000574839
-0.000581401
-0.000586516
-0.000590219
-0.000592553
-0.000593563
-0.000593299
-0.000591816
-0.00058917
-0.000585419
-0.000580625
-0.000574851
-0.000568159
-0.000560613
-0.000552277
-0.000438316
-0.000457204
-0.00047333
-0.000488398
-0.000502228
-0.000514601
-0.000525516
-0.000535007
-0.000543089
-0.000549781
-0.000555111
-0.000559109
-0.000561814
-0.000563266
-0.000563512
-0.000562598
-0.000560578
-0.000557504
-0.000553433
-0.000548421
-0.000542528
-0.000535811
-0.00052833
-0.000410632
-0.000428736
-0.000444435
-0.000459101
-0.000472584
-0.000484707
-0.000495468
-0.000504891
-0.000512992
-0.000519786
-0.000525297
-0.000529552
-0.000532585
-0.000534432
-0.000535135
-0.000534738
-0.000533287
-0.000530831
-0.000527422
-0.000523111
-0.000517954
-0.000512002
-0.000505313
-0.000384453
-0.000401818
-0.000417104
-0.00043138
-0.000444524
-0.000456398
-0.000466997
-0.000476342
-0.000484443
-0.000491314
-0.000496976
-0.000501453
-0.000504775
-0.000506975
-0.00050809
-0.00050816
-0.000507226
-0.000505334
-0.000502532
-0.000498866
-0.000494386
-0.000489142
-0.000483185
-0.000359674
-0.000376342
-0.00039123
-0.000405127
-0.000417942
-0.000429569
-0.000440002
-0.000449257
-0.000457342
-0.000464269
-0.000470056
-0.000474725
-0.000478301
-0.000480816
-0.000482301
-0.000482793
-0.00048233
-0.000480953
-0.000478706
-0.000475632
-0.000471777
-0.000467187
-0.000461908
-0.000336198
-0.00035221
-0.000366713
-0.000380245
-0.00039274
-0.000404122
-0.000414386
-0.000423543
-0.000431598
-0.000438563
-0.000444452
-0.000449285
-0.000453085
-0.000455879
-0.000457697
-0.000458571
-0.000458536
-0.00045763
-0.000455891
-0.000453362
-0.000450083
-0.000446095
-0.000441444
-0.000313939
-0.000329333
-0.000343465
-0.000356643
-0.000368827
-0.000379968
-0.000390062
-0.000399113
-0.000407127
-0.000414114
-0.000420085
-0.000425058
-0.000429054
-0.000432096
-0.000434212
-0.000435432
-0.000435786
-0.000435309
-0.000434037
-0.000432008
-0.000429259
-0.000425829
-0.00042176
-0.000292825
-0.000307637
-0.000321403
-0.000334236
-0.000346119
-0.000357025
-0.000366947
-0.000375888
-0.000383851
-0.000390845
-0.00039688
-0.000401972
-0.000406139
-0.000409402
-0.000411786
-0.000413317
-0.000414025
-0.00041394
-0.000413095
-0.000411526
-0.000409266
-0.000406351
-0.00040282
-0.000672638
-0.000720563
-0.000629863
-0.000675044
-0.000719548
-0.000763306
-0.000806361
-0.000848272
-0.000887249
-0.000589823
-0.00063248
-0.000674454
-0.000715678
-0.000756179
-0.000795545
-0.000832241
-0.00055229
-0.000592622
-0.000632264
-0.000671153
-0.000709308
-0.000746342
-0.000780943
-0.000517064
-0.000555247
-0.000592737
-0.000629473
-0.000665466
-0.000700357
-0.000733029
-0.000483956
-0.000520152
-0.000555654
-0.000590402
-0.000624401
-0.00065732
-0.00068821
-0.000452797
-0.000487152
-0.000520814
-0.000553724
-0.00058588
-0.000616981
-0.000646222
-0.000423434
-0.000456083
-0.000488038
-0.000519244
-0.000549696
-0.000579118
-0.000606831
-0.000395731
-0.000426794
-0.000457164
-0.000486791
-0.000515662
-0.000543532
-0.000569827
-0.000369564
-0.000399151
-0.000428048
-0.000456206
-0.000483612
-0.000510044
-0.000535021
-0.000344819
-0.000373032
-0.000400558
-0.000427351
-0.000453394
-0.000478492
-0.000502243
-0.000321396
-0.000348327
-0.000374574
-0.000400095
-0.000424872
-0.000448731
-0.000471339
-0.000299203
-0.000324935
-0.000349989
-0.000374324
-0.00039792
-0.000420627
-0.000442171
-0.000278154
-0.000302765
-0.000326704
-0.000349932
-0.000372426
-0.000394061
-0.000414611
-0.00025817
-0.000281733
-0.000304629
-0.000326821
-0.000348288
-0.000368922
-0.000388544
-0.000239182
-0.000261761
-0.00028368
-0.000304904
-0.000325411
-0.000345111
-0.000363866
-0.000221124
-0.000242781
-0.000263784
-0.000284101
-0.000303708
-0.000322536
-0.000340478
-0.000203937
-0.000224727
-0.00024487
-0.000264335
-0.000283101
-0.000301112
-0.000318293
-0.000187567
-0.000207539
-0.000226872
-0.000245538
-0.000263516
-0.000280767
-0.000297239
-0.000171965
-0.000191175
-0.000209753
-0.000227671
-0.000244909
-0.000261445
-0.000277244
-0.00057513
-0.000624135
-0.000300115
-0.000351533
-0.000397513
-0.00044398
-0.000491036
-0.00053781
-0.000584093
-0.000277694
-0.000326185
-0.000369847
-0.000413943
-0.00045852
-0.000502792
-0.000546569
-0.000256374
-0.000302188
-0.000343721
-0.000385632
-0.000427922
-0.000469889
-0.000511355
-0.000236093
-0.000279455
-0.000319028
-0.00035892
-0.000399099
-0.000438936
-0.00047827
-0.00021679
-0.000257903
-0.000295666
-0.00033369
-0.000371916
-0.000409784
-0.000447143
-0.000198408
-0.000237451
-0.00027354
-0.000309832
-0.000346248
-0.000382291
-0.00041782
-0.000180891
-0.000218028
-0.000252565
-0.000287248
-0.000321982
-0.000356334
-0.000390163
-0.00016419
-0.000199567
-0.000232662
-0.000265846
-0.00029901
-0.000331796
-0.000364046
-0.000148259
-0.000182008
-0.000213761
-0.00024555
-0.000277263
-0.000308572
-0.000339351
-0.000133053
-0.000165294
-0.000195797
-0.000226288
-0.000256676
-0.000286573
-0.000315977
-0.000118532
-0.000149374
-0.000178706
-0.000207971
-0.000237071
-0.00026571
-0.000293836
-0.000104658
-0.000134202
-0.000162439
-0.000190555
-0.000218466
-0.000245916
-0.000272845
-9.13941e-05
-0.000119728
-0.00014694
-0.000174008
-0.000200787
-0.000227113
-0.000252919
-7.87056e-05
-0.000105904
-0.000132125
-0.00015821
-0.000183952
-0.000209231
-0.000233987
-6.65649e-05
-9.27202e-05
-0.000118095
-0.000143153
-0.000167912
-0.000192214
-0.000215985
-5.49613e-05
-8.01272e-05
-0.000104597
-0.000128786
-0.000152632
-0.000176009
-0.000198853
-4.38315e-05
-6.80724e-05
-9.17389e-05
-0.000115093
-0.000138069
-0.000160569
-0.000182538
-3.31661e-05
-5.65501e-05
-7.9461e-05
-0.000102019
-0.000124171
-0.000145845
-0.00016699
-2.29501e-05
-4.55131e-05
-6.76918e-05
-8.94941e-05
-0.000110875
-0.000131777
-0.000152154
0.000944762
0.000935198
0.000924573
0.000912816
0.000899854
0.000885613
0.000870016
0.000852984
0.000834439
0.000814301
0.000792492
0.000768935
0.000743557
0.000716286
0.000687056
0.000655809
0.000622493
0.000587067
0.000549499
0.000509772
0.000467883
0.000423846
0.000377695
0.000329482
0.000279283
0.000227195
0.000173342
0.000117872
6.09576e-05
2.79935e-06
-5.6383e-05
-0.000116371
-0.000176701
-0.000236715
0.000921911
0.000911918
0.00090089
0.000888764
0.000875473
0.000860949
0.000845121
0.000827919
0.000809272
0.00078911
0.000767364
0.000743967
0.000718855
0.000691966
0.000663247
0.000632649
0.00060013
0.000565659
0.000529215
0.00049079
0.000450387
0.000408029
0.000363753
0.000317615
0.000269691
0.000220078
0.000168893
0.000116278
6.23945e-05
7.42872e-06
-4.84168e-05
-0.000104942
-0.000161724
-0.000218152
0.000899931
0.000889564
0.000878192
0.000865756
0.000852195
0.000837447
0.000821449
0.000804137
0.000785447
0.000765318
0.000743689
0.000720501
0.0006957
0.000669234
0.000641057
0.00061113
0.000579422
0.000545908
0.000510577
0.000473426
0.000434468
0.000393728
0.000351248
0.000307085
0.000261316
0.000214034
0.000165353
0.000115405
6.43438e-05
1.23406e-05
-4.04175e-05
-9.37479e-05
-0.000147264
-0.000200399
0.000878802
0.000868113
0.00085645
0.000843758
0.000829981
0.000815064
0.000798949
0.000781579
0.000762899
0.000742852
0.000721386
0.00069845
0.000673997
0.000647985
0.000620374
0.000591136
0.000560244
0.000527683
0.000493447
0.000457542
0.000419983
0.0003808
0.000340037
0.000297753
0.000254023
0.000208938
0.000162606
0.000115153
6.67204e-05
1.7469e-05
-3.24293e-05
-8.2807e-05
-0.000133311
-0.000183421
0.000858504
0.00084754
0.000835633
0.000822734
0.000808791
0.000793754
0.00077757
0.00076019
0.000741563
0.000721641
0.000700378
0.00067773
0.000653656
0.000628122
0.000601097
0.000572555
0.000542481
0.000510864
0.000477703
0.000443009
0.000406803
0.000369115
0.000329993
0.000289495
0.000247695
0.000204679
0.000160552
0.000115432
6.9451e-05
2.27582e-05
-2.44878e-05
-7.21333e-05
-0.000119856
-0.000167179
0.000839014
0.000827819
0.000815714
0.000802651
0.000788586
0.000773472
0.000757264
0.000739915
0.000721381
0.000701621
0.000680594
0.000658262
0.000634593
0.000609556
0.000583128
0.000555289
0.000526028
0.000495341
0.000463232
0.000429715
0.000394813
0.00035856
0.000321004
0.000282202
0.000242227
0.000201162
0.000159105
0.000116168
7.24753e-05
2.81637e-05
-1.66197e-05
-6.17337e-05
-0.000106885
-0.000151637
0.00082031
0.000808924
0.00079666
0.000783475
0.000769327
0.000754176
0.000737981
0.000720699
0.000702294
0.000682727
0.000661964
0.000639974
0.000616728
0.000592203
0.000566379
0.000539243
0.000510788
0.000481015
0.000449931
0.000417553
0.000383908
0.00034903
0.000312967
0.000275777
0.000237528
0.000198301
0.000158189
0.000117297
7.57408e-05
3.36477e-05
-8.84662e-06
-5.1612e-05
-9.43822e-05
-0.000136758
0.000802368
0.000790828
0.000778442
0.00076517
0.000750976
0.000735823
0.000719674
0.000702492
0.000684244
0.000664897
0.000644423
0.000622793
0.000599986
0.000575981
0.000550765
0.000524329
0.00049667
0.000467792
0.000437705
0.00040643
0.000373993
0.000340431
0.000305792
0.00027013
0.000233514
0.00019602
0.000157737
0.000118761
7.92016e-05
3.91774e-05
-1.1867e-06
-4.17705e-05
-8.23325e-05
-0.00012251
0.000785163
0.000773503
0.000761028
0.000747703
0.000733495
0.000718371
0.000702297
0.000685242
0.000667177
0.000648073
0.000627906
0.000606653
0.000584295
0.000560817
0.00053621
0.000510467
0.00048359
0.000455586
0.000426467
0.000396256
0.00036498
0.000332677
0.000299394
0.000265184
0.000230113
0.000194253
0.000157688
0.000120509
8.28182e-05
4.47251e-05
6.34556e-06
-3.22093e-05
-7.07209e-05
-0.000108861
0.000768672
0.000756921
0.000744387
0.000731038
0.000716845
0.000701777
0.000685805
0.000668902
0.000651041
0.000632199
0.000612355
0.000591489
0.000569588
0.00054664
0.000522638
0.00049758
0.00047147
0.000444317
0.000416137
0.000386951
0.000356791
0.000325692
0.000293699
0.000260867
0.000227257
0.000192939
0.00015799
0.000122498
8.65563e-05
5.02675e-05
1.37388e-05
-2.2927e-05
-5.95323e-05
-9.57821e-05
0.000752868
0.000741055
0.00072849
0.000715144
0.00070099
0.000686002
0.000670155
0.000653423
0.000635785
0.000617221
0.000597711
0.000577243
0.000555803
0.000533384
0.000509982
0.000485599
0.000460239
0.000433914
0.000406641
0.000378444
0.000349352
0.000319403
0.000288641
0.000257116
0.000224889
0.000192025
0.000158598
0.000124689
9.03862e-05
5.57849e-05
2.09841e-05
-1.39206e-05
-4.87515e-05
-8.32441e-05
0.000737729
0.000725878
0.000713305
0.000699985
0.000685894
0.000671008
0.000655304
0.000638762
0.000621362
0.000603087
0.000583922
0.000563856
0.00054288
0.000520988
0.000498179
0.000474457
0.000449829
0.000424308
0.000397913
0.000370666
0.0003426
0.000313749
0.000284157
0.000253873
0.000222954
0.000191463
0.000159469
0.000127048
9.42826e-05
6.12608e-05
2.80748e-05
-5.18639e-06
-3.83634e-05
-7.12208e-05
0.000723228
0.000711362
0.000698804
0.000685531
0.000671523
0.000656757
0.000641214
0.000624875
0.000607726
0.00058975
0.000570937
0.000551277
0.000530763
0.000509394
0.00048717
0.000464095
0.00044018
0.000415439
0.00038989
0.000363558
0.000336473
0.000308671
0.000280193
0.000251087
0.000221407
0.000191212
0.000160568
0.000129546
9.82235e-05
6.66815e-05
3.50062e-05
3.28039e-06
-2.83532e-05
-5.96866e-05
0.000709342
0.000697482
0.000684958
0.000671751
0.000657842
0.000643212
0.000627844
0.000611722
0.000594833
0.000577164
0.000558707
0.000539454
0.000519402
0.000498549
0.000476899
0.000454457
0.000431236
0.000407249
0.000382516
0.000357063
0.000330918
0.000304117
0.0002767
0.000248712
0.000220205
0.000191235
0.000161863
0.000132158
0.00010219
7.20355e-05
4.17747e-05
1.14848e-05
-1.87069e-05
-4.86178e-05
0.000696047
0.00068421
0.000671738
0.000658613
0.000644819
0.000630338
0.000615158
0.000599263
0.000582642
0.000565286
0.000547188
0.000528342
0.000508747
0.000488403
0.000467315
0.000445491
0.000422943
0.000399686
0.00037574
0.00035113
0.000325885
0.00030004
0.000273632
0.000246706
0.000219309
0.000191497
0.000163326
0.00013486
0.000106165
7.73133e-05
4.83781e-05
1.94323e-05
-9.41145e-06
-3.79935e-05
0.00068332
0.000671522
0.000659117
0.000646089
0.000632423
0.000618104
0.00060312
0.00058746
0.000571114
0.000554074
0.000536335
0.000517895
0.000498752
0.000478909
0.000458371
0.000437149
0.000415253
0.000392701
0.000369513
0.000345713
0.00032133
0.000296396
0.000270949
0.00024503
0.000218687
0.000191969
0.000164932
0.000137633
0.000110136
8.25073e-05
5.48155e-05
2.71289e-05
-4.53417e-07
-2.77957e-05
0.000671137
0.000659394
0.00064707
0.00063415
0.000620623
0.000606476
0.000591697
0.000576279
0.000560211
0.00054349
0.00052611
0.000508072
0.000489375
0.000470023
0.000450023
0.000429385
0.000408123
0.000386252
0.000363792
0.000340769
0.00031721
0.000293146
0.000268614
0.000243653
0.000218307
0.000192625
0.000166657
0.00014046
0.00011409
8.76114e-05
6.1087e-05
3.45813e-05
8.18131e-06
-1.79974e-05
0.000659477
0.0006478
0.000635569
0.00062277
0.000609391
0.000595424
0.000580858
0.000565685
0.000549899
0.000533497
0.000516475
0.000498834
0.000480576
0.000461705
0.00044223
0.00042216
0.00040151
0.000380296
0.000358538
0.000336259
0.000313488
0.000290255
0.000266593
0.000242542
0.000218143
0.000193441
0.000168485
0.000143325
0.000118018
9.26208e-05
6.71931e-05
4.17956e-05
1.65042e-05
-8.58315e-06
0.000648317
0.000636719
0.000624591
0.000611921
0.0005987
0.000584919
0.00057057
0.000555646
0.000540144
0.00052406
0.000507394
0.000490145
0.000472318
0.000453918
0.000434953
0.000415435
0.000395377
0.000374796
0.000353712
0.000332148
0.000310131
0.00028769
0.000264858
0.000241672
0.00021817
0.000194396
0.000170396
0.000146217
0.000121911
9.75317e-05
7.31349e-05
4.87772e-05
2.45236e-05
4.57683e-07
0.000637856
0.000626344
0.000614326
0.00060179
0.00058873
0.000575137
0.000561005
0.000546328
0.000531104
0.00051533
0.000499008
0.000482137
0.000464724
0.000446774
0.000428295
0.000409301
0.000389803
0.00036982
0.000349371
0.000328478
0.000307167
0.000285467
0.000263409
0.000241028
0.000218361
0.000195448
0.000172333
0.000149062
0.000125681
0.000102242
7.87954e-05
5.53943e-05
3.20922e-05
8.94903e-06
0.000627939
0.000616521
0.000604619
0.000592223
0.000579326
0.000565923
0.000552008
0.000537577
0.000522627
0.000507158
0.000491171
0.000474669
0.000457657
0.000440141
0.000422131
0.000403638
0.000384677
0.000365264
0.000345419
0.000325163
0.000304522
0.000283522
0.000262195
0.000240572
0.00021869
0.000196587
0.000174303
0.000151881
0.000129367
0.000106806
8.42481e-05
6.17412e-05
3.93356e-05
1.70831e-05
0.00061825
0.000606935
0.000595157
0.000582909
0.000570184
0.000556978
0.000543286
0.000529105
0.000514434
0.000499273
0.000483624
0.000467491
0.000450878
0.000433794
0.000416248
0.000398251
0.000379819
0.000360967
0.000341714
0.000322082
0.000302094
0.000281777
0.000261161
0.000240275
0.000219154
0.000197835
0.000176355
0.000154755
0.000133076
0.000111363
8.96613e-05
6.80164e-05
4.64757e-05
2.50876e-05
0.000608791
0.000597587
0.000585943
0.00057385
0.000561304
0.000548301
0.000534838
0.000520912
0.000506523
0.000491672
0.000476362
0.000460597
0.000444383
0.000427727
0.00041064
0.000393134
0.000375222
0.00035692
0.000338248
0.000319225
0.000299875
0.000280224
0.000260298
0.000240128
0.000219746
0.000199185
0.000178482
0.000157675
0.000136803
0.000115907
9.50301e-05
7.4215e-05
5.35061e-05
3.29486e-05
0.000599565
0.000588481
0.000576977
0.000565047
0.000552686
0.000539892
0.000526662
0.000512995
0.000498891
0.000484352
0.000469382
0.000453984
0.000438166
0.000421935
0.000405302
0.000388278
0.000370878
0.000353116
0.000335012
0.000316585
0.000297857
0.000278853
0.000259599
0.000240123
0.000220456
0.000200629
0.000180677
0.000160636
0.000140542
0.000120433
0.00010035
8.03331e-05
6.04235e-05
4.06634e-05
0.000590574
0.000579617
0.000568261
0.0005565
0.00054433
0.000531749
0.000518757
0.000505351
0.000491535
0.000477309
0.000462678
0.000447647
0.000432222
0.000416411
0.000400226
0.000383678
0.00036678
0.000349548
0.000331999
0.000314153
0.000296032
0.000277657
0.000259055
0.000240252
0.000221277
0.000202161
0.000182934
0.000163631
0.000144286
0.000124936
0.000105617
8.63675e-05
6.72256e-05
4.82309e-05
0.000592264
0.000581819
0.000570997
0.000559794
0.000548208
0.000536234
0.000523872
0.00051112
0.000497979
0.000484451
0.000470539
0.000456246
0.000441579
0.000426544
0.000411149
0.000395406
0.000379325
0.00036292
0.000346206
0.0003292
0.000311922
0.00029439
0.000276628
0.000258658
0.000240508
0.000222203
0.000203772
0.000185245
0.000166655
0.000148032
0.000129412
0.000110827
9.2315e-05
7.39103e-05
5.56499e-05
0.000583624
0.000573301
0.00056262
0.000551577
0.000540171
0.000528397
0.000516257
0.000503749
0.000490875
0.000477636
0.000464037
0.000450082
0.000435775
0.000421126
0.000406142
0.000390833
0.000375211
0.00035929
0.000343083
0.000326608
0.000309881
0.000292924
0.000275756
0.0002584
0.000240881
0.000223224
0.000205456
0.000187605
0.000169701
0.000151774
0.000133855
0.000115977
9.81728e-05
8.04757e-05
6.29198e-05
0.000575216
0.000565021
0.000554487
0.00054361
0.000532387
0.000520818
0.000508903
0.000496641
0.000484034
0.000471086
0.000457799
0.000444178
0.000430231
0.000415962
0.000401383
0.000386502
0.000371331
0.000355883
0.000340171
0.000324213
0.000308024
0.000291625
0.000275034
0.000258273
0.000241365
0.000224334
0.000207206
0.000190006
0.000172763
0.000155505
0.000138262
0.000121063
0.000103938
8.69204e-05
7.004e-05
0.00056704
0.00055698
0.000546597
0.00053589
0.000524856
0.000513494
0.000501806
0.000489792
0.000477454
0.000464795
0.000451819
0.000438531
0.000424938
0.000411046
0.000396865
0.000382404
0.000367675
0.00035269
0.000337462
0.000322008
0.000306343
0.000290485
0.000274453
0.000258268
0.000241951
0.000225526
0.000209015
0.000192443
0.000175837
0.000159223
0.000142628
0.000126081
0.00010961
9.32429e-05
7.70103e-05
0.000559097
0.000549176
0.00053895
0.000528417
0.000517575
0.000506424
0.000494965
0.000483199
0.00047113
0.000458759
0.000446092
0.000433134
0.000419891
0.000406371
0.000392581
0.000378533
0.000364236
0.000349703
0.000334948
0.000319984
0.000304828
0.000289496
0.000274006
0.000258379
0.000242634
0.000226792
0.000210876
0.00019491
0.000178917
0.000162922
0.00014695
0.000131029
0.000115184
9.94421e-05
8.38304e-05
0.000551386
0.00054161
0.000531545
0.000521189
0.000510541
0.000499603
0.000488374
0.000476858
0.000465057
0.000452974
0.000440614
0.000427982
0.000415084
0.000401929
0.000388525
0.00037488
0.000361007
0.000346916
0.00033262
0.000318133
0.000303471
0.00028865
0.000273686
0.000258598
0.000243404
0.000228126
0.000212784
0.0001974
0.000181997
0.000166597
0.000151225
0.000135904
0.00012066
0.000105517
9.05002e-05
0.000543908
0.000534281
0.000524379
0.000514204
0.000503753
0.000493029
0.000482032
0.000470765
0.000459231
0.000447433
0.000435377
0.000423067
0.00041051
0.000397715
0.000384688
0.000371439
0.000357979
0.000344319
0.000330471
0.000316449
0.000302266
0.000287939
0.000273483
0.000258916
0.000244256
0.000229522
0.000214733
0.000199909
0.000185073
0.000170245
0.000155447
0.000140703
0.000126035
0.000111466
9.70199e-05
0.000536661
0.000527186
0.000517452
0.000507459
0.000497208
0.000486698
0.000475933
0.000464915
0.000453646
0.000442132
0.000430376
0.000418384
0.000406163
0.00039372
0.000381063
0.000368201
0.000355145
0.000341905
0.000328493
0.000314921
0.000301204
0.000287356
0.000273392
0.000259329
0.000245183
0.000230972
0.000216715
0.000202431
0.00018814
0.000173861
0.000159615
0.000145424
0.000131308
0.00011729
0.000103389
0.000529645
0.000520325
0.000510761
0.000500953
0.000490901
0.000480608
0.000470074
0.000459303
0.000448298
0.000437064
0.000425605
0.000413926
0.000402035
0.000389938
0.000377643
0.00036516
0.000352497
0.000339666
0.000326677
0.000313543
0.000300277
0.000286892
0.000273404
0.000259827
0.000246177
0.000232471
0.000218726
0.000204961
0.000191193
0.000177442
0.000163725
0.000150064
0.000136478
0.000122986
0.000109609
0.000522857
0.000513695
0.000504303
0.000494681
0.000484831
0.000474753
0.00046445
0.000453925
0.000443182
0.000432224
0.000421058
0.000409688
0.00039812
0.000386362
0.000374422
0.000362307
0.000350028
0.000337594
0.000325017
0.000312307
0.000299478
0.000286542
0.000273512
0.000260404
0.000247232
0.000234013
0.000220761
0.000207494
0.000194229
0.000180983
0.000167775
0.000154622
0.000141542
0.000128555
0.000115678
0.000516297
0.000507295
0.000498076
0.000488642
0.000478992
0.000469129
0.000459056
0.000448775
0.000438291
0.000427607
0.000416728
0.000405661
0.000394411
0.000382985
0.00037139
0.000359636
0.00034773
0.000335683
0.000323505
0.000311206
0.000298799
0.000286296
0.00027371
0.000261054
0.000248343
0.000235591
0.000222813
0.000210025
0.000197242
0.000184482
0.00017176
0.000159094
0.0001465
0.000133996
0.000121598
0.000509961
0.000501121
0.000492077
0.00048283
0.000473381
0.000463733
0.000453887
0.000443849
0.00043362
0.000423205
0.00041261
0.00040184
0.000390901
0.000379799
0.000368542
0.000357138
0.000345595
0.000333923
0.000322132
0.000310232
0.000298234
0.000286149
0.000273991
0.000261771
0.000249503
0.0002372
0.000224878
0.000212549
0.00020023
0.000187935
0.00017568
0.00016348
0.000151351
0.000139309
0.000127369
0.000503849
0.000495172
0.000486302
0.000477243
0.000467994
0.000458559
0.00044894
0.00043914
0.000429163
0.000419014
0.000408697
0.000398218
0.000387582
0.000376797
0.000365869
0.000354806
0.000343616
0.000332309
0.000320892
0.000309377
0.000297774
0.000286094
0.000274347
0.000262547
0.000250706
0.000238836
0.00022695
0.000215063
0.000203188
0.000191339
0.00017953
0.000167776
0.000156092
0.000144492
0.000132991
0.000497956
0.000489443
0.000480749
0.000471876
0.000462827
0.000453603
0.000444207
0.000434643
0.000424915
0.000415026
0.000404982
0.000394788
0.000384449
0.000373973
0.000363365
0.000352634
0.000341786
0.000330832
0.000319778
0.000308635
0.000297414
0.000286123
0.000274774
0.000263377
0.000251946
0.000240491
0.000229026
0.000217562
0.000206112
0.00019469
0.000183309
0.000171983
0.000160724
0.000149547
0.000138465
0.000492281
0.000483931
0.000475412
0.000466726
0.000457874
0.000448859
0.000439684
0.000430353
0.000420868
0.000411235
0.000401459
0.000391543
0.000381494
0.000371319
0.000361022
0.000350613
0.000340098
0.000329485
0.000318782
0.000307999
0.000297145
0.00028623
0.000275263
0.000264256
0.000253218
0.000242163
0.0002311
0.000220041
0.000209
0.000197987
0.000187015
0.000176097
0.000165245
0.000154472
0.000143791
0.000486819
0.000478633
0.000470288
0.000461787
0.000453131
0.000444323
0.000435366
0.000426263
0.000417019
0.000407636
0.000398121
0.000388477
0.000378711
0.000368828
0.000358834
0.000348737
0.000338543
0.000328261
0.000317898
0.000307462
0.000296963
0.000286409
0.00027581
0.000265176
0.000254518
0.000243844
0.000233168
0.000222498
0.000211847
0.000201226
0.000190645
0.000180118
0.000169655
0.000159268
0.000148969
0.000481568
0.000473545
0.000465374
0.000457056
0.000448594
0.00043999
0.000431247
0.000422369
0.000413359
0.000404222
0.000394961
0.000385583
0.000376091
0.000366493
0.000356793
0.000346999
0.000337117
0.000327154
0.000317118
0.000307017
0.000296859
0.000286654
0.000276409
0.000266134
0.000255838
0.000245532
0.000235225
0.000224928
0.000214651
0.000204404
0.000194198
0.000184044
0.000173953
0.000163935
0.000154001
0.000476525
0.000468664
0.000460664
0.000452528
0.000444257
0.000435854
0.000427322
0.000418664
0.000409884
0.000400986
0.000391974
0.000382854
0.00037363
0.000364307
0.000354893
0.000345391
0.00033581
0.000326156
0.000316436
0.000306658
0.000296829
0.000286958
0.000277053
0.000267122
0.000257175
0.000247221
0.000237269
0.000227328
0.000217408
0.000207519
0.000197671
0.000187874
0.000178137
0.000168471
0.000158886
0.000471685
0.000463985
0.000456155
0.000448198
0.000440115
0.00043191
0.000423584
0.000415142
0.000406587
0.000397922
0.000389153
0.000380284
0.000371319
0.000362265
0.000353126
0.000343908
0.000334618
0.000325261
0.000315846
0.000306378
0.000296866
0.000287316
0.000277738
0.000268138
0.000258525
0.000248907
0.000239294
0.000229694
0.000220116
0.00021057
0.000201063
0.000191607
0.000182209
0.000172879
0.000163626
0.000467045
0.000459504
0.000451842
0.000444062
0.000436164
0.000428152
0.000420029
0.000411797
0.000403461
0.000395025
0.000386491
0.000377866
0.000369153
0.000360358
0.000351486
0.000342542
0.000333532
0.000324463
0.000315341
0.000306172
0.000296964
0.000287723
0.000278458
0.000269174
0.000259881
0.000250586
0.000241298
0.000232024
0.000222773
0.000213553
0.000204373
0.000195241
0.000186166
0.000177156
0.000168221
0.0004626
0.000455217
0.000447721
0.000440114
0.000432398
0.000424576
0.00041665
0.000408624
0.000400502
0.000392287
0.000383983
0.000375594
0.000367125
0.000358581
0.000349967
0.000341287
0.000332548
0.000323756
0.000314915
0.000306034
0.000297118
0.000288173
0.000279207
0.000270228
0.000261241
0.000252254
0.000243276
0.000234314
0.000225374
0.000216466
0.000207597
0.000198776
0.000190009
0.000181305
0.000172671
0.000458348
0.00045112
0.000443786
0.00043635
0.000428812
0.000421175
0.000413442
0.000405617
0.000397703
0.000389703
0.000381621
0.000373462
0.000365229
0.000356927
0.000348562
0.000340137
0.000331659
0.000323132
0.000314563
0.000305957
0.000297321
0.000288661
0.000279982
0.000271293
0.000262599
0.000253908
0.000245226
0.00023656
0.000227919
0.000219308
0.000210736
0.00020221
0.000193736
0.000185323
0.000176978
0.000454283
0.000447208
0.000440034
0.000432764
0.0004254
0.000417945
0.0004104
0.00040277
0.000395058
0.000387267
0.000379401
0.000371463
0.000363458
0.000355391
0.000347265
0.000339086
0.000330858
0.000322587
0.000314279
0.000305937
0.00029757
0.000289181
0.000280778
0.000272366
0.000263952
0.000255542
0.000247143
0.000238762
0.000230404
0.000222077
0.000213788
0.000205543
0.000197349
0.000189213
0.000181141
0.000450403
0.000443477
0.00043646
0.000429353
0.000422159
0.00041488
0.000407518
0.000400078
0.000392562
0.000384973
0.000377315
0.000369591
0.000361807
0.000353965
0.00034607
0.000338127
0.00033014
0.000322115
0.000314056
0.000305968
0.000297858
0.000289729
0.000281589
0.000273443
0.000265296
0.000257155
0.000249026
0.000240915
0.000232828
0.000224771
0.000216751
0.000208774
0.000200846
0.000192973
0.000185163
0.000446702
0.000439923
0.000433058
0.00042611
0.000419082
0.000411974
0.000404791
0.000397534
0.000390208
0.000382815