/*--------------------------------*- C++ -*----------------------------------*\
| =========                 |                                                 |
| \\      /  F ield         | OpenFOAM: The Open Source CFD Toolbox           |
|  \\    /   O peration     | Version:  2412                                  |
|   \\  /    A nd           | Website:  www.openfoam.com                      |
|    \\/     M anipulation  |                                                 |
\*---------------------------------------------------------------------------*/
FoamFile
{
    version     2.0;
    format      ascii;
    arch        "LSB;label=32;scalar=64";
    class       volScalarField;
    location    "20";
    object      p;
}
// * * * * * * * * * * * * * * * * * * * * * * * * * * * * * * * * * * * * * //

dimensions      [0 2 -2 0 0 0 0];

internalField   nonuniform List<scalar> 
5285
(
-0.000219275
-0.000232315
-0.000244314
-0.000255389
-0.000265528
-0.000274713
-0.000282946
-0.000290236
-0.000296595
-0.000302041
-0.000306592
-0.000310271
-0.000313106
-0.000315125
-0.00031636
-0.000316846
-0.000316618
-0.000315714
-0.000314172
-0.000312031
-0.000309333
-0.000306116
-0.000302421
-0.000298288
-0.000239409
-0.000252919
-0.000265172
-0.000276477
-0.000286801
-0.000296105
-0.000304391
-0.000311675
-0.000317969
-0.000323293
-0.000327668
-0.000331121
-0.000333681
-0.00033538
-0.000336255
-0.000336342
-0.000335681
-0.000334313
-0.00033228
-0.000329625
-0.000326392
-0.000322624
-0.000318364
-0.000313656
-0.000260682
-0.000274691
-0.000287195
-0.000298731
-0.000309242
-0.00031866
-0.000326991
-0.000334253
-0.000340464
-0.000345643
-0.000349815
-0.000353011
-0.000355262
-0.000356606
-0.000357081
-0.000356728
-0.000355591
-0.000353715
-0.000351147
-0.000347932
-0.000344118
-0.000339752
-0.000334883
-0.000329555
-0.00028317
-0.000297709
-0.000310468
-0.000322239
-0.000332936
-0.000342463
-0.000350827
-0.000358051
-0.000364156
-0.000369164
-0.000373103
-0.000376007
-0.000377913
-0.00037886
-0.000378892
-0.000378054
-0.000376395
-0.000373963
-0.000370809
-0.000366984
-0.00036254
-0.000357527
-0.000351998
-0.000346001
-0.000306963
-0.000322065
-0.000335083
-0.000347091
-0.000357974
-0.000367603
-0.000375985
-0.000383152
-0.000389127
-0.000393934
-0.000397607
-0.000400181
-0.000401699
-0.000402205
-0.000401746
-0.000400374
-0.00039814
-0.0003951
-0.000391307
-0.000386818
-0.000381689
-0.000375975
-0.000369731
-0.000363013
-0.00033216
-0.00034786
-0.000361142
-0.000373389
-0.000384456
-0.000394177
-0.000402563
-0.00040965
-0.000415466
-0.00042004
-0.000423407
-0.00042561
-0.000426693
-0.000426708
-0.000425706
-0.000423745
-0.00042088
-0.000417172
-0.000412682
-0.00040747
-0.000401596
-0.000395122
-0.000388107
-0.00038061
-0.000358874
-0.000375209
-0.000388756
-0.000401243
-0.000412492
-0.000422295
-0.000430664
-0.000437647
-0.000443272
-0.000447574
-0.000450593
-0.000452376
-0.000452973
-0.000452442
-0.000450839
-0.000448227
-0.000444669
-0.000440231
-0.000434979
-0.000428978
-0.000422296
-0.000414998
-0.000407148
-0.00039881
-0.000387226
-0.000404235
-0.00041805
-0.000430777
-0.000442202
-0.000452073
-0.000460404
-0.000467251
-0.00047265
-0.000476637
-0.00047926
-0.000480569
-0.000480623
-0.000479484
-0.000477216
-0.000473887
-0.000469567
-0.000464329
-0.000458244
-0.000451385
-0.000443823
-0.000435631
-0.000426878
-0.000417633
-0.000417351
-0.000435075
-0.000449157
-0.000462123
-0.000473718
-0.000483639
-0.000491906
-0.000498584
-0.000503714
-0.000507339
-0.00050951
-0.000510287
-0.000509733
-0.000507918
-0.000504913
-0.000500794
-0.000495637
-0.000489522
-0.000482527
-0.000474732
-0.000466215
-0.000457053
-0.000447323
-0.000437098
-0.000449395
-0.00046788
-0.000482227
-0.000495428
-0.000507182
-0.000517134
-0.000525307
-0.000531776
-0.000536591
-0.000539798
-0.000541457
-0.000541634
-0.0005404
-0.000537833
-0.000534013
-0.000529021
-0.000522944
-0.000515868
-0.000507879
-0.000499064
-0.000489508
-0.000479295
-0.000468507
-0.000457224
-0.000483524
-0.000502817
-0.000517424
-0.000530853
-0.000542755
-0.000552713
-0.000560755
-0.000566971
-0.000571415
-0.000574143
-0.000575221
-0.000574723
-0.00057273
-0.000569327
-0.000564603
-0.00055865
-0.000551561
-0.000543431
-0.000534355
-0.000524428
-0.000513742
-0.000502388
-0.000490456
-0.000478031
-0.000519917
-0.000540069
-0.00055493
-0.000568578
-0.000580611
-0.000590546
-0.000598415
-0.000604324
-0.000608337
-0.000610515
-0.000610933
-0.000609676
-0.000606834
-0.000602502
-0.000596778
-0.000589763
-0.000581562
-0.000572277
-0.000562013
-0.000550873
-0.000538958
-0.000526367
-0.000513195
-0.000499536
-0.000558777
-0.000579841
-0.000594945
-0.000608799
-0.000620942
-0.000630818
-0.000638466
-0.000644008
-0.000647517
-0.000649065
-0.000648737
-0.000646627
-0.000642836
-0.00063747
-0.000630638
-0.000622453
-0.000613028
-0.000602476
-0.000590913
-0.000578451
-0.000565198
-0.000551264
-0.000536751
-0.00052176
-0.000600326
-0.000622359
-0.000637691
-0.000651733
-0.000663959
-0.000673734
-0.000681103
-0.000686207
-0.000689133
-0.000689961
-0.000688787
-0.000685717
-0.000680866
-0.000674351
-0.000666292
-0.000656814
-0.000646043
-0.000634103
-0.000621119
-0.000607214
-0.000592507
-0.000577115
-0.00056115
-0.00054472
-0.000644815
-0.000667879
-0.000683418
-0.000697623
-0.0007099
-0.000719521
-0.000726544
-0.00073113
-0.00073338
-0.000733384
-0.000731252
-0.000727104
-0.000721067
-0.000713273
-0.000703855
-0.000692951
-0.000680698
-0.000667235
-0.000652697
-0.000637218
-0.000620929
-0.000603955
-0.000586418
-0.000568434
-0.000692524
-0.000716683
-0.000732402
-0.000746738
-0.000759023
-0.000768431
-0.000775028
-0.000779003
-0.000780469
-0.000779532
-0.000776317
-0.000770957
-0.000763595
-0.000754378
-0.000743453
-0.000730973
-0.000717091
-0.000701957
-0.000685719
-0.000668523
-0.000650511
-0.00063182
-0.000612581
-0.000592918
-0.000743767
-0.000769085
-0.000784947
-0.000799373
-0.000811614
-0.000820734
-0.000826812
-0.000830067
-0.000830629
-0.000828618
-0.000824176
-0.000817455
-0.000808613
-0.000797812
-0.000785221
-0.000771001
-0.000755325
-0.000738357
-0.000720259
-0.00070119
-0.000681304
-0.000660748
-0.000639666
-0.00061819
-0.000798885
-0.000825429
-0.000841386
-0.000855848
-0.000867979
-0.000876724
-0.000882174
-0.000884582
-0.0008841
-0.000880864
-0.000875035
-0.000866783
-0.000856287
-0.000843728
-0.000829289
-0.000813154
-0.000795504
-0.000776524
-0.000756392
-0.000735279
-0.000713353
-0.000690775
-0.000667696
-0.000644262
-0.000892291
-0.000875804
-0.000857552
-0.000837733
-0.000816548
-0.00079419
-0.000770849
-0.000746704
-0.000721931
-0.000696692
-0.000671144
-0.00010979
-0.000127456
-0.00014446
-0.000160777
-0.00017639
-0.00019128
-0.000205418
-0.000125055
-0.000143403
-0.000161078
-0.000178054
-0.000194315
-0.000209824
-0.000224536
-0.000141114
-0.000160195
-0.000178591
-0.000196274
-0.000213225
-0.000229393
-0.000244709
-0.000158019
-0.000177879
-0.000197042
-0.000215478
-0.000233169
-0.000250044
-0.000266009
-0.000175829
-0.000196519
-0.0002165
-0.00023574
-0.000254221
-0.000271854
-0.000288513
-0.000194609
-0.000216185
-0.00023704
-0.000257139
-0.000276466
-0.000294911
-0.000312313
-0.000214431
-0.000236954
-0.000258743
-0.000279763
-0.000299997
-0.000319313
-0.000337511
-0.000235371
-0.000258907
-0.000281698
-0.000303705
-0.000324913
-0.000345165
-0.000364218
-0.000257516
-0.000282138
-0.000306003
-0.00032907
-0.000351325
-0.000372585
-0.000392554
-0.000280957
-0.000306746
-0.000331765
-0.000355971
-0.000379353
-0.0004017
-0.000422656
-0.000305799
-0.000332841
-0.000359101
-0.000384535
-0.000409132
-0.000432653
-0.00045467
-0.000332153
-0.000360545
-0.000388143
-0.000414899
-0.000440809
-0.000465599
-0.000488761
-0.000360144
-0.000389991
-0.000419033
-0.000447219
-0.000474547
-0.000500715
-0.000525113
-0.000389909
-0.000421329
-0.000451931
-0.000481664
-0.00051053
-0.000538192
-0.000563926
-0.000421601
-0.000454722
-0.000487015
-0.000518424
-0.000548959
-0.000578246
-0.000605428
-0.000455389
-0.000490355
-0.000524482
-0.000557712
-0.000590063
-0.000621122
-0.000649875
-0.000491464
-0.000528434
-0.000564554
-0.000599766
-0.000634095
-0.00066709
-0.000697552
-0.000530037
-0.000569184
-0.000607474
-0.000644846
-0.000681332
-0.000716446
-0.00074877
-0.000571334
-0.000612852
-0.000653509
-0.000693235
-0.000732083
-0.000769522
-0.000803885
-0.000615604
-0.000659717
2.9515e-05
8.20106e-06
-1.26762e-05
-3.31308e-05
-5.31196e-05
-7.2587e-05
-9.14891e-05
1.91988e-05
-2.89209e-06
-2.44449e-05
-4.55961e-05
-6.62934e-05
-8.64648e-05
-0.000106064
8.38537e-06
-1.4519e-05
-3.67692e-05
-5.86539e-05
-8.01063e-05
-0.000101032
-0.000121381
-2.91772e-06
-2.67002e-05
-4.97099e-05
-7.23755e-05
-9.46281e-05
-0.000116354
-0.000137498
-1.47902e-05
-3.95041e-05
-6.32929e-05
-8.68007e-05
-0.000109905
-0.00013248
-0.000154469
-2.72421e-05
-5.2958e-05
-7.75844e-05
-0.000101958
-0.000125987
-0.000149465
-0.000172354
-4.03096e-05
-6.71012e-05
-9.26197e-05
-0.000117934
-0.000142943
-0.000167373
-0.00019122
-5.40317e-05
-8.1979e-05
-0.000108445
-0.000134748
-0.000160748
-0.000186256
-0.000211138
-6.84493e-05
-9.76418e-05
-0.000125121
-0.00015249
-0.000179609
-0.000206209
-0.000232189
-8.36059e-05
-0.000114142
-0.000142705
-0.000171212
-0.000199518
-0.000227297
-0.000254456
-9.95481e-05
-0.000131535
-0.00016126
-0.000190985
-0.000220561
-0.000249612
-0.000278036
-0.000116326
-0.000149884
-0.000180857
-0.000211889
-0.000242829
-0.000273248
-0.000303033
-0.000133994
-0.000169256
-0.000201572
-0.00023401
-0.000266419
-0.000298311
-0.000329561
-0.00015261
-0.000189722
-0.000223489
-0.000257441
-0.000291434
-0.000324917
-0.000357748
-0.000172237
-0.000211364
-0.000246698
-0.000282286
-0.000317991
-0.000353193
-0.000387732
-0.000192943
-0.000234267
-0.000271301
-0.000308659
-0.000346218
-0.000383282
-0.00041967
-0.000214799
-0.000258529
-0.00029741
-0.000336687
-0.000376258
-0.000415343
-0.000453738
-0.000237876
-0.00028424
-0.000325141
-0.000366505
-0.000408265
-0.000449546
-0.00049013
-0.000262256
-0.000311511
-0.000354614
-0.000398255
-0.0004424
-0.000486075
-0.000529045
-0.00052514
-0.000570717
0.000680318
0.000668907
0.00065698
0.000644524
0.000631531
0.000617993
0.000603904
0.000589256
0.000574049
0.000558278
0.000541944
0.000525051
0.000507602
0.000489604
0.000471067
0.000452004
0.00043243
0.000412363
0.000391826
0.000370842
0.00034944
0.000327651
0.000305511
0.000283056
0.000260328
0.000237372
0.000214234
0.000190964
0.000167616
0.000144243
0.000120903
9.76525e-05
7.45574e-05
5.17024e-05
0.000691219
0.000679724
0.000667687
0.000655095
0.000641938
0.000628207
0.000613893
0.00059899
0.000583492
0.000567396
0.000550702
0.00053341
0.000515524
0.000497051
0.000477999
0.000458381
0.000438212
0.00041751
0.000396297
0.000374599
0.000352445
0.000329867
0.000306902
0.00028359
0.000259974
0.000236101
0.000212021
0.000187788
0.000163458
0.000139091
0.000114746
9.04861e-05
6.63882e-05
4.25523e-05
0.000702615
0.000691045
0.000678908
0.000666189
0.000652875
0.000638957
0.000624424
0.000609266
0.000593479
0.000577057
0.000559998
0.000542302
0.000523971
0.00050501
0.000485428
0.000465237
0.000444451
0.000423089
0.000401172
0.000378728
0.000355786
0.000332379
0.000308547
0.00028433
0.000259775
0.000234932
0.000209854
0.000184598
0.000159225
0.000133798
0.000108383
8.30449e-05
5.78738e-05
3.29882e-05
0.000714525
0.000702894
0.000690668
0.000677832
0.000664371
0.000650273
0.000635526
0.000620119
0.000604044
0.000587296
0.000569869
0.000551763
0.000532978
0.000513518
0.000493392
0.000472609
0.000451184
0.000429136
0.000406487
0.000383263
0.000359495
0.000335218
0.000310473
0.000285302
0.000259755
0.000233884
0.000207747
0.000181405
0.000154922
0.000128366
0.000101809
7.53194e-05
4.90015e-05
2.29989e-05
0.000726975
0.000715295
0.000702993
0.000690052
0.000676454
0.000662186
0.000647232
0.000631581
0.000615222
0.000598148
0.000580352
0.000561831
0.000542585
0.000522616
0.000501931
0.000480538
0.000458453
0.000435693
0.00041228
0.000388242
0.000363609
0.000338419
0.000312712
0.000286535
0.000259939
0.00023298
0.000205719
0.000178221
0.000150556
0.000122797
9.50199e-05
6.72989e-05
3.97535e-05
1.25514e-05
0.000739985
0.000728274
0.000715911
0.000702878
0.000689156
0.000674727
0.000659576
0.000643689
0.000627051
0.000609654
0.000591488
0.00057255
0.000552836
0.000532347
0.000511089
0.000489069
0.000466302
0.000442803
0.000418596
0.000393707
0.000368169
0.000342018
0.000315299
0.00028806
0.000260355
0.000232242
0.000203788
0.000175061
0.000146136
0.000117092
8.80114e-05
5.89728e-05
3.01122e-05
1.62453e-06
0.000753582
0.000741855
0.000729448
0.000716339
0.000702507
0.000687932
0.000672595
0.00065648
0.00063957
0.000621854
0.000603321
0.000583963
0.000563775
0.000542758
0.000520914
0.00049825
0.000474778
0.000450514
0.000425481
0.000399704
0.000373217
0.00034606
0.000318275
0.000289914
0.000261035
0.000231699
0.000201976
0.00017194
0.000141672
0.000111256
8.07802e-05
5.03302e-05
2.00595e-05
-9.80773e-06
0.000767788
0.000756066
0.000743634
0.000730468
0.000716542
0.000701835
0.000686326
0.000669993
0.000652821
0.000634792
0.000615894
0.000596117
0.000575453
0.0005539
0.000531458
0.000508133
0.000483934
0.000458878
0.000432985
0.000406283
0.000378804
0.000350588
0.000321682
0.000292137
0.000262015
0.000231381
0.000200309
0.000168879
0.000137176
0.000105293
7.33239e-05
4.13605e-05
9.57594e-06
-2.17739e-05
0.000782628
0.000770934
0.000758498
0.000745294
0.000731294
0.000716473
0.000700807
0.000684272
0.000666848
0.000648515
0.000629258
0.000609064
0.000587921
0.000565826
0.000542775
0.000518773
0.000493827
0.000467952
0.000441167
0.0004135
0.000384982
0.000355656
0.000325568
0.000294773
0.000263335
0.000231323
0.000198816
0.000165899
0.000132664
9.92105e-05
6.56408e-05
3.20529e-05
-1.35877e-06
-3.43041e-05
0.000798129
0.000786486
0.00077407
0.000760851
0.000746799
0.000731885
0.00071608
0.000699359
0.000681697
0.000663072
0.000643464
0.000622856
0.000601236
0.000578594
0.000554926
0.000530232
0.000504518
0.000477797
0.000450087
0.000421414
0.000391811
0.000361319
0.000329987
0.000297872
0.00026504
0.000231565
0.000197531
0.000163028
0.000128154
9.30183e-05
5.77308e-05
2.23971e-05
-1.27657e-05
-4.74305e-05
0.000814315
0.000802751
0.000790381
0.000777173
0.000763093
0.000748109
0.000732188
0.000715301
0.000697418
0.000678515
0.000658567
0.000637553
0.000615457
0.000592267
0.000567973
0.000542575
0.000516074
0.000488481
0.000459812
0.000430093
0.000399356
0.000367641
0.000334999
0.000301489
0.000267181
0.000232152
0.00019649
0.000160294
0.000123667
8.67278e-05
4.95951e-05
1.2383e-05
-2.46665e-05
-6.11869e-05
0.000831211
0.000819756
0.000807463
0.000794295
0.000780215
0.000765187
0.000749175
0.000732144
0.000714062
0.000694898
0.000674623
0.000653214
0.000630649
0.000606911
0.000581987
0.000555873
0.000528567
0.000500077
0.000470417
0.00043961
0.000407688
0.000374691
0.000340671
0.000305688
0.000269816
0.000233135
0.000195739
0.000157732
0.000119229
8.03537e-05
4.12368e-05
2.0015e-06
-3.70837e-05
-7.56096e-05
0.000848844
0.00083753
0.000825346
0.000812251
0.000798203
0.000783162
0.000767087
0.000749939
0.000731682
0.000712278
0.000691696
0.000669905
0.000646879
0.000622597
0.000597042
0.000570203
0.000542076
0.000512665
0.000481981
0.000450045
0.000416887
0.000382547
0.000347076
0.000310539
0.000273008
0.000234571
0.000195326
0.000155385
0.00011487
7.39145e-05
3.26616e-05
-8.75579e-06
-5.00402e-05
-9.07371e-05
0.000867238
0.000856102
0.000844064
0.000831077
0.000817096
0.000802076
0.000785972
0.000768738
0.000750334
0.000730717
0.000709849
0.000687694
0.000664221
0.000639402
0.000613217
0.000585648
0.000556686
0.000526332
0.000494593
0.000461487
0.00042704
0.000391294
0.000354298
0.000316118
0.00027683
0.000236526
0.000195309
0.000153298
0.000110624
6.74326e-05
2.38778e-05
-1.98959e-05
-6.35595e-05
-0.00010661
0.000886418
0.000875501
0.000863647
0.000850809
0.000836935
0.000821974
0.000805877
0.000788594
0.000770076
0.000750276
0.000729149
0.000706653
0.000682751
0.000657408
0.000630597
0.000602296
0.00057249
0.000541173
0.000508349
0.000474031
0.000438244
0.000401026
0.000362428
0.000322514
0.000281364
0.000239073
0.000195751
0.000151524
0.000106533
6.09346e-05
1.48961e-05
-3.14252e-05
-7.76663e-05
-0.000123272
0.000906408
0.000895752
0.000884128
0.000871482
0.000857758
0.000842901
0.000826854
0.000809561
0.000790968
0.000771021
0.000749667
0.000726859
0.00070255
0.0006767
0.000649274
0.000620242
0.000589585
0.000557289
0.000523352
0.000487783
0.000450603
0.000411848
0.000371567
0.000329824
0.000286701
0.000242296
0.000196727
0.000150126
0.000102645
5.44525e-05
5.73095e-06
-4.33484e-05
-9.23859e-05
-0.000140771
0.000927232
0.000916884
0.000905538
0.000893132
0.000879608
0.000864902
0.000848953
0.000831698
0.000813074
0.000793022
0.00077148
0.000748393
0.000723707
0.000697372
0.000669347
0.000639593
0.000608081
0.000574793
0.000539719
0.000502862
0.000464238
0.000423879
0.000381831
0.000338159
0.000292945
0.000246293
0.000198323
0.000149178
9.90186e-05
4.8029e-05
-3.59419e-06
-5.56636e-05
-0.00010774
-0.000159153
0.000948911
0.000938925
0.000927909
0.000915798
0.000902527
0.000888027
0.00087223
0.000855064
0.000836461
0.000816351
0.000794667
0.000771342
0.000746315
0.000719526
0.000690923
0.00066046
0.000628099
0.000593811
0.000557579
0.000519399
0.000479281
0.00043725
0.000393351
0.000347646
0.000300219
0.000251175
0.000200641
0.000148767
9.5727e-05
4.17174e-05
-1.30475e-05
-6.83625e-05
-0.000123745
-0.000178464
0.000435217
0.000430556
0.000425874
0.000421173
0.000416453
0.000411716
0.000406964
0.000402197
0.000397417
0.000392625
0.000387823
0.000383011
0.000378192
0.000373367
0.000368537
0.000363703
0.000358867
0.00035403
0.000349195
0.000344361
0.000339532
0.000334707
0.000329889
0.00032508
0.00032028
0.00031549
0.000310714
0.000305951
0.000301204
0.000296473
0.00029176
0.000287067
0.000282395
0.000277745
0.000435378
0.000430708
0.000426016
0.000421306
0.000416577
0.00041183
0.000407068
0.000402291
0.000397501
0.000392699
0.000387886
0.000383064
0.000378235
0.000373398
0.000368557
0.000363713
0.000358866
0.000354019
0.000349172
0.000344328
0.000339487
0.000334652
0.000329823
0.000325002
0.000320191
0.000315391
0.000310603
0.00030583
0.000301072
0.00029633
0.000291607
0.000286904
0.000282221
0.000277561
0.000435691
0.000431003
0.000426294
0.000421565
0.000416817
0.000412052
0.000407271
0.000402474
0.000397665
0.000392843
0.00038801
0.000383168
0.000378317
0.000373461
0.000368599
0.000363733
0.000358865
0.000353996
0.000349128
0.000344263
0.000339401
0.000334544
0.000329693
0.000324851
0.000320019
0.000315197
0.000310389
0.000305594
0.000300815
0.000296053
0.000291309
0.000286585
0.000281882
0.000277203
0.000436149
0.000431436
0.000426701
0.000421946
0.000417171
0.000412378
0.000407569
0.000402744
0.000397905
0.000393054
0.000388192
0.00038332
0.000378439
0.000373552
0.00036866
0.000363763
0.000358864
0.000353964
0.000349065
0.000344168
0.000339274
0.000334386
0.000329504
0.000324631
0.000319767
0.000314914
0.000310074
0.000305249
0.000300439
0.000295646
0.000290872
0.000286119
0.000281387
0.000276678
0.000436749
0.000432002
0.000427233
0.000422443
0.000417633
0.000412804
0.000407958
0.000403097
0.00039822
0.000393331
0.00038843
0.000383519
0.0003786
0.000373673
0.00036874
0.000363804
0.000358864
0.000353924
0.000348984
0.000344046
0.000339111
0.000334182
0.000329259
0.000324344
0.000319439
0.000314546
0.000309666
0.0003048
0.00029995
0.000295117
0.000290304
0.000285511
0.00028074
0.000275993
0.000437484
0.000432697
0.000427886
0.000423054
0.0004182
0.000413328
0.000408437
0.00040353
0.000398608
0.000393673
0.000388725
0.000383766
0.000378798
0.000373823
0.000368842
0.000363855
0.000358866
0.000353876
0.000348886
0.000343898
0.000338913
0.000333933
0.00032896
0.000323995
0.00031904
0.000314096
0.000309166
0.00030425
0.000299351
0.00029447
0.000289608
0.000284768
0.00027995
0.000275156
0.000438353
0.000433517
0.000428658
0.000423776
0.000418872
0.000413948
0.000409005
0.000404045
0.000399068
0.000394078
0.000389074
0.00038406
0.000379035
0.000374003
0.000368963
0.000363919
0.000358872
0.000353822
0.000348773
0.000343726
0.000338681
0.000333642
0.000328609
0.000323585
0.000318571
0.000313568
0.000308579
0.000303605
0.000298648
0.000293709
0.00028879
0.000283893
0.000279019
0.000274169
0.000439352
0.000434462
0.000429547
0.000424607
0.000419645
0.000414662
0.000409659
0.000404638
0.0003996
0.000394547
0.00038948
0.0003844
0.000379311
0.000374213
0.000369107
0.000363996
0.000358881
0.000353765
0.000348647
0.000343532
0.000338419
0.000333311
0.00032821
0.000323118
0.000318035
0.000312965
0.000307908
0.000302866
0.000297842
0.000292837
0.000287852
0.00028289
0.000277952
0.000273039
0.000440479
0.000435528
0.000430551
0.000425547
0.00042052
0.000415471
0.0004104
0.000405311
0.000400203
0.000395079
0.00038994
0.000384789
0.000379626
0.000374454
0.000369274
0.000364087
0.000358897
0.000353704
0.00034851
0.000343318
0.000338128
0.000332943
0.000327765
0.000322595
0.000317436
0.000312288
0.000307155
0.000302038
0.000296938
0.000291858
0.000286799
0.000281763
0.000276752
0.000271768
0.000441735
0.000436716
0.00043167
0.000426596
0.000421497
0.000416374
0.000411229
0.000406063
0.000400878
0.000395676
0.000390458
0.000385226
0.000379982
0.000374727
0.000369464
0.000364195
0.00035892
0.000353642
0.000348363
0.000343085
0.00033781
0.000332539
0.000327275
0.00032202
0.000316774
0.000311542
0.000306323
0.000301121
0.000295937
0.000290774
0.000285632
0.000280514
0.000275422
0.000270358
0.000443118
0.000438026
0.000432903
0.000427752
0.000422575
0.000417371
0.000412145
0.000406896
0.000401626
0.000396338
0.000391033
0.000385713
0.00038038
0.000375035
0.000369681
0.000364319
0.000358952
0.000353581
0.000348209
0.000342837
0.000337467
0.000332102
0.000326743
0.000321393
0.000316054
0.000310727
0.000305415
0.000300119
0.000294843
0.000289587
0.000284354
0.000279146
0.000273965
0.000268813
0.000444629
0.000439457
0.000434253
0.000429018
0.000423755
0.000418465
0.000413149
0.00040781
0.000402449
0.000397067
0.000391668
0.000386252
0.000380821
0.000375379
0.000369925
0.000364464
0.000358996
0.000353523
0.000348049
0.000342574
0.000337102
0.000331633
0.000326171
0.000320718
0.000315275
0.000309846
0.000304431
0.000299034
0.000293656
0.0002883
0.000282968
0.000277661
0.000272383
0.000267134
0.000446268
0.00044101
0.000435718
0.000430394
0.000425039
0.000419655
0.000414244
0.000408807
0.000403347
0.000397865
0.000392363
0.000386844
0.000381309
0.00037576
0.000370199
0.000364629
0.000359052
0.00035347
0.000347885
0.000342299
0.000336715
0.000331135
0.000325561
0.000319996
0.000314441
0.0003089
0.000303374
0.000297867
0.000292379
0.000286914
0.000281473
0.00027606
0.000270675
0.000265322
0.000448036
0.000442687
0.000437301
0.000431881
0.000426428
0.000420944
0.000415431
0.00040989
0.000404324
0.000398734
0.000393123
0.000387492
0.000381844
0.000376181
0.000370505
0.000364819
0.000359124
0.000353424
0.000347719
0.000342014
0.00033631
0.000330609
0.000324914
0.000319228
0.000313553
0.000307892
0.000302246
0.000296619
0.000291013
0.00028543
0.000279872
0.000274343
0.000268845
0.000263379
0.000449935
0.000444489
0.000439004
0.000433482
0.000427925
0.000422334
0.000416712
0.00041106
0.000405381
0.000399676
0.000393947
0.000388198
0.00038243
0.000376645
0.000370846
0.000365035
0.000359214
0.000353387
0.000347555
0.000341721
0.000335888
0.000330058
0.000324234
0.000318418
0.000312613
0.000306823
0.000301048
0.000295293
0.000289559
0.000283849
0.000278166
0.000272513
0.000266892
0.000261305
0.000451967
0.000446418
0.000440829
0.000435199
0.000429531
0.000423827
0.00041809
0.00041232
0.000406521
0.000400693
0.000394841
0.000388965
0.000383068
0.000377154
0.000371223
0.000365279
0.000359324
0.000353361
0.000347393
0.000341422
0.000335451
0.000329483
0.00032352
0.000317566
0.000311623
0.000305694
0.000299781
0.000293888
0.000288018
0.000282173
0.000276356
0.000270569
0.000264817
0.0002591
0.000454133
0.000448477
0.000442777
0.000437034
0.00043125
0.000425427
0.000419567
0.000413673
0.000407746
0.00040179
0.000395805
0.000389796
0.000383763
0.00037771
0.00037164
0.000365555
0.000359457
0.000353351
0.000347237
0.000341121
0.000335003
0.000328887
0.000322777
0.000316675
0.000310584
0.000304507
0.000298447
0.000292408
0.000286392
0.000280402
0.000274441
0.000268513
0.00026262
0.000256765
0.000456437
0.000450669
0.000444852
0.00043899
0.000433084
0.000427135
0.000421147
0.000415122
0.000409061
0.000402968
0.000396844
0.000390693
0.000384517
0.000378318
0.0003721
0.000365865
0.000359617
0.000353357
0.00034709
0.000340818
0.000334544
0.000328272
0.000322005
0.000315746
0.000309497
0.000303264
0.000297047
0.000290852
0.000284681
0.000278537
0.000272424
0.000266344
0.000260302
0.000254299
0.000458881
0.000452995
0.000447057
0.00044107
0.000435036
0.000428956
0.000422833
0.00041667
0.000410469
0.000404232
0.000397962
0.000391661
0.000385333
0.000378981
0.000372606
0.000366213
0.000359805
0.000353384
0.000346954
0.000340518
0.000334079
0.000327641
0.000321207
0.000314781
0.000308366
0.000301965
0.000295583
0.000289222
0.000282886
0.000276578
0.000270303
0.000264063
0.000257861
0.000251702
0.000461468
0.00045546
0.000449396
0.000443278
0.00043711
0.000430893
0.000424629
0.000418322
0.000411972
0.000405584
0.00039916
0.000392703
0.000386216
0.000379701
0.000373162
0.000366602
0.000360025
0.000353434
0.000346831
0.000340222
0.000333608
0.000326995
0.000320385
0.000313782
0.000307191
0.000300614
0.000294055
0.000287518
0.000281008
0.000274527
0.000268079
0.000261668
0.000255299
0.000248974
0.000464202
0.000458066
0.00045187
0.000445618
0.00043931
0.00043295
0.000426539
0.00042008
0.000413576
0.00040703
0.000400445
0.000393823
0.000387168
0.000380483
0.000373771
0.000367036
0.000360281
0.00035351
0.000346726
0.000339934
0.000333136
0.000326337
0.000319541
0.000312752
0.000305974
0.00029921
0.000292465
0.000285742
0.000279047
0.000272382
0.000265753
0.000259162
0.000252614
0.000246113
0.000467085
0.000460817
0.000454486
0.000448092
0.00044164
0.00043513
0.000428566
0.00042195
0.000415284
0.000408573
0.000401819
0.000395025
0.000388194
0.000381331
0.000374437
0.000367518
0.000360576
0.000353616
0.000346641
0.000339656
0.000332665
0.000325671
0.000318678
0.000311692
0.000304717
0.000297756
0.000290814
0.000283895
0.000277004
0.000270146
0.000263323
0.000256542
0.000249806
0.000243119
0.000470121
0.000463717
0.000457245
0.000450706
0.000444103
0.000437438
0.000430714
0.000423934
0.000417101
0.000410218
0.000403287
0.000396313
0.000389299
0.000382248
0.000375165
0.000368052
0.000360914
0.000353756
0.000346581
0.000339393
0.000332197
0.000324997
0.000317798
0.000310605
0.000303421
0.000296253
0.000289103
0.000281977
0.000274881
0.000267817
0.000260792
0.000253809
0.000246874
0.00023999
0.000473314
0.00046677
0.000460153
0.000453463
0.000446704
0.000439879
0.00043299
0.000426039
0.000419031
0.000411968
0.000404854
0.000397692
0.000390486
0.00038324
0.000375957
0.000368642
0.0003613
0.000353933
0.000346547
0.000339147
0.000331736
0.00032432
0.000316904
0.000309493
0.00030209
0.000294703
0.000287334
0.00027999
0.000272676
0.000265397
0.000258157
0.000250962
0.000243817
0.000236727
0.000476669
0.00046998
0.000463213
0.000456368
0.000449448
0.000442457
0.000435396
0.000428269
0.000421079
0.00041383
0.000406525
0.000399167
0.000391761
0.000384311
0.00037682
0.000369294
0.000361736
0.000354151
0.000346545
0.000338921
0.000331286
0.000323643
0.000315999
0.000308358
0.000300725
0.000293107
0.000285509
0.000277935
0.000270392
0.000262885
0.00025542
0.000248001
0.000240635
0.000233327
0.000480188
0.000473352
0.00046643
0.000459425
0.000452339
0.000445176
0.000437938
0.000430628
0.00042325
0.000415807
0.000408304
0.000400742
0.000393128
0.000385465
0.000377757
0.00037001
0.000362228
0.000354415
0.000346578
0.000338721
0.000330849
0.000322968
0.000315084
0.000307202
0.000299328
0.000291468
0.000283628
0.000275812
0.000268029
0.000260282
0.000252579
0.000244925
0.000237327
0.000229789
0.000483876
0.000476888
0.000469808
0.000462639
0.000455382
0.000448042
0.000440621
0.000433122
0.000425549
0.000417906
0.000410196
0.000402423
0.000394592
0.000386708
0.000378774
0.000370797
0.00036278
0.000354729
0.000346651
0.000338549
0.00033043
0.0003223
0.000314164
0.00030603
0.000297902
0.000289788
0.000281693
0.000273624
0.000265587
0.000257589
0.000249636
0.000241734
0.000233891
0.000226111
0.000487737
0.000480594
0.000473352
0.000466014
0.000458582
0.00045106
0.00044345
0.000435756
0.000427982
0.000420131
0.000412207
0.000404215
0.00039616
0.000388045
0.000379876
0.000371658
0.000363397
0.000355098
0.000346767
0.000338409
0.000330032
0.000321641
0.000313242
0.000304843
0.000296449
0.000288068
0.000279706
0.00027137
0.000263068
0.000254805
0.000246589
0.000238428
0.000230327
0.000222293
0.000491775
0.000484474
0.000477066
0.000469556
0.000461944
0.000454235
0.000446431
0.000438536
0.000430553
0.000422488
0.000414343
0.000406124
0.000397835
0.000389481
0.000381067
0.0003726
0.000364084
0.000355526
0.000346931
0.000338307
0.000329659
0.000320995
0.000312321
0.000303644
0.000294971
0.00028631
0.000277669
0.000269053
0.000260472
0.000251931
0.00024344
0.000235004
0.000226633
0.000218332
0.000495995
0.000488532
0.000480956
0.000473268
0.000465472
0.000457571
0.000449568
0.000441466
0.000433269
0.000424982
0.000416609
0.000408154
0.000399624
0.000391022
0.000382354
0.000373627
0.000364846
0.000356018
0.000347149
0.000338246
0.000329316
0.000320366
0.000311404
0.000302437
0.000293472
0.000284518
0.000275583
0.000266674
0.000257799
0.000248968
0.000240187
0.000231464
0.000222809
0.000214228
0.0005004
0.000492773
0.000485025
0.000477157
0.000469173
0.000461075
0.000452867
0.000444552
0.000436135
0.00042762
0.000419011
0.000410313
0.000401532
0.000392673
0.000383742
0.000374745
0.000365689
0.000356579
0.000347425
0.000338231
0.000329006
0.000319758
0.000310495
0.000301224
0.000291954
0.000282693
0.000273451
0.000264234
0.000255053
0.000245915
0.00023683
0.000227806
0.000218853
0.000209978
0.000504994
0.000497202
0.000489279
0.000481227
0.000473051