/*--------------------------------*- C++ -*----------------------------------*\
| =========                 |                                                 |
| \\      /  F ield         | OpenFOAM: The Open Source CFD Toolbox           |
|  \\    /   O peration     | Version:  2412                                  |
|   \\  /    A nd           | Website:  www.openfoam.com                      |
|    \\/     M anipulation  |                                                 |
\*---------------------------------------------------------------------------*/
FoamFile
{
    version     2.0;
    format      ascii;
    arch        "LSB;label=32;scalar=64";
    class       volScalarField;
    location    "18";
    object      p;
}
// * * * * * * * * * * * * * * * * * * * * * * * * * * * * * * * * * * * * * //

dimensions      [0 2 -2 0 0 0 0];

internalField   nonuniform List<scalar> 
5285
(
0.00199714
0.00204247
0.00209034
0.00214094
0.00219449
0.00225122
0.00231138
0.00237527
0.00244319
0.0025155
0.00259256
0.00267481
0.0027627
0.00285677
0.00295756
0.00306572
0.00318192
0.00330691
0.0034415
0.00358653
0.00374287
0.00391136
0.00409271
0.0042874
0.00449546
0.00471618
0.00494775
0.00518707
0.00542999
0.00567224
0.00590972
0.00614864
0.00645551
0.00692215
0.00199607
0.00204137
0.00208921
0.00213976
0.00219325
0.00224991
0.00230999
0.00237377
0.00244156
0.00251369
0.00259055
0.00267254
0.00276012
0.00285379
0.00295409
0.00306162
0.00317703
0.00330102
0.00343432
0.0035777
0.0037319
0.00389761
0.00407535
0.00426531
0.00446718
0.00467978
0.00490073
0.00512618
0.00535111
0.0055703
0.00577912
0.00598291
0.00624393
0.00664708
0.00199395
0.00203919
0.00208694
0.00213741
0.00219078
0.0022473
0.00230721
0.00237077
0.0024383
0.00251011
0.00258657
0.00266806
0.00275502
0.00284791
0.00294723
0.00305353
0.00316739
0.0032894
0.00342016
0.00356028
0.00371026
0.00387047
0.00404103
0.00422159
0.00441108
0.00460741
0.00480698
0.00500449
0.00519308
0.00536564
0.00551668
0.00565001
0.00581524
0.00610404
0.0019907
0.00203585
0.00208349
0.00213381
0.002187
0.0022433
0.00230294
0.00236617
0.00243329
0.0025046
0.00258044
0.00266116
0.00274716
0.00283886
0.0029367
0.00304113
0.00315262
0.00327163
0.00339857
0.00353377
0.00367741
0.00382939
0.00398922
0.00415573
0.00432679
0.00449886
0.00466657
0.00482237
0.00495677
0.00505963
0.0051241
0.00515522
0.00518711
0.00527432
0.00198652
0.00203155
0.00207905
0.00212919
0.00218216
0.00223818
0.00229748
0.00236029
0.00242687
0.00249753
0.00257255
0.00265226
0.002737
0.00282711
0.00292296
0.00302489
0.00313321
0.00324817
0.00336994
0.00349849
0.00363353
0.00377435
0.00391962
0.00406708
0.00421317
0.0043525
0.00447736
0.00457736
0.00463961
0.00465011
0.00459915
0.00449482
0.00436015
0.004136
0.00198226
0.00202729
0.00207476
0.00212486
0.00217777
0.00223368
0.00229282
0.00235541
0.00242169
0.00249194
0.00256641
0.0026454
0.00272919
0.00281805
0.00291225
0.003012
0.00311744
0.00322859
0.00334525
0.00346695
0.00359272
0.00372094
0.00384898
0.00397283
0.00408656
0.00418172
0.00424674
0.00426668
0.00422348
0.00409788
0.00387561
0.0035656
0.00318276
0.00253815
0.00197581
0.00202075
0.00206811
0.00211808
0.00217082
0.00222653
0.00228542
0.0023477
0.0024136
0.00248336
0.00255722
0.00263544
0.00271823
0.00280582
0.00289837
0.00299597
0.00309859
0.003206
0.00331766
0.00343257
0.00354904
0.00366435
0.00377426
0.00387247
0.00394982
0.00399347
0.00398633
0.00390697
0.00373046
0.00342999
0.00298763
0.0024168
0.00168181
0.000488955
-0.0034823
-0.00355219
-0.00356708
-0.00354155
-0.00348806
-0.00340946
-0.00330801
-0.00318728
-0.00304855
-0.00289459
-0.00272822
-0.0025522
-0.00236944
-0.00218267
-0.00199458
-0.00180767
-0.00162422
-0.00144625
-0.00127548
-0.00111334
-0.000960952
-0.000819112
-0.00356765
-0.00361364
-0.00361427
-0.00358045
-0.00352161
-0.00343961
-0.00333655
-0.00321455
-0.00307527
-0.00292111
-0.00275462
-0.00257855
-0.00239568
-0.00220868
-0.0020202
-0.00183275
-0.00164861
-0.0014698
-0.00129808
-0.00113489
-0.000981367
-0.000838345
-0.00373766
-0.0037342
-0.0037068
-0.00365652
-0.00358672
-0.00349755
-0.00339118
-0.00326671
-0.00312641
-0.00297178
-0.00280505
-0.00262909
-0.00244611
-0.00225877
-0.00206966
-0.00188127
-0.00169588
-0.00151554
-0.00134203
-0.00117685
-0.00102119
-0.000875909
-0.00399821
-0.00390531
-0.00384141
-0.00376624
-0.00367953
-0.00357884
-0.00346832
-0.00333915
-0.00319733
-0.00304274
-0.00287631
-0.00270041
-0.00251738
-0.00232968
-0.00213983
-0.00195024
-0.0017632
-0.0015808
-0.00140485
-0.00123693
-0.00107828
-0.000929852
-0.00432505
-0.00412798
-0.00401448
-0.00390375
-0.00379407
-0.00368088
-0.00356056
-0.00342793
-0.00328386
-0.00312813
-0.00296162
-0.00278597
-0.00260313
-0.00241533
-0.00222491
-0.00203423
-0.00184556
-0.00166099
-0.0014824
-0.00131141
-0.00114936
-0.000997279
-0.000855884
-0.00466936
-0.00440155
-0.00422557
-0.00406824
-0.00392589
-0.00379701
-0.00366022
-0.00351944
-0.00337137
-0.00321425
-0.00304807
-0.00287362
-0.00269227
-0.00250584
-0.00231639
-0.00212609
-0.00193713
-0.00175156
-0.00157128
-0.00139796
-0.00123302
-0.00107758
-0.000932454
-0.00499956
-0.00474121
-0.00450426
-0.0042847
-0.00410574
-0.00394422
-0.00378875
-0.00363603
-0.00348076
-0.00332013
-0.00315286
-0.00297874
-0.00279838
-0.00261302
-0.00242432
-0.0022342
-0.00204466
-0.00185773
-0.00167529
-0.00149907
-0.00133058
-0.00117105
-0.00102142
-0.00529286
-0.00500222
-0.00476728
-0.00455298
-0.00436482
-0.00419315
-0.00403134
-0.0038711
-0.0037073
-0.00353728
-0.00335984
-0.00317488
-0.00298319
-0.00278616
-0.00258559
-0.00238353
-0.00218213
-0.00198352
-0.0017897
-0.00160251
-0.00142354
-0.00125408
-0.00109515
-0.000947439
-0.00530639
-0.00504704
-0.00483645
-0.00460948
-0.00441333
-0.00423984
-0.00407512
-0.00391173
-0.00374563
-0.00357427
-0.00339637
-0.0032117
-0.00302088
-0.00282512
-0.00262608
-0.00242565
-0.00222585
-0.00202871
-0.00183615
-0.00164995
-0.00147164
-0.00130251
-0.00114357
-0.00525732
-0.00502986
-0.0048576
-0.00463611
-0.00443778
-0.00426178
-0.00409397
-0.00392774
-0.00375963
-0.00358723
-0.00340921
-0.00322527
-0.00303588
-0.00284211
-0.00264545
-0.00244764
-0.00225057
-0.00205613
-0.00186615
-0.0016823
-0.00150607
-0.00133869
-0.00118113
-0.00520456
-0.00499829
-0.00486052
-0.00465133
-0.00445547
-0.00427962
-0.00411085
-0.00394317
-0.00377376
-0.00360057
-0.00342239
-0.00323893
-0.00305061
-0.00285843
-0.00266374
-0.00246817
-0.00227348
-0.00208145
-0.00189382
-0.00171216
-0.00153788
-0.00137219
-0.00121601
-0.00514423
-0.00495028
-0.00483802
-0.00464245
-0.0044513
-0.00427747
-0.00410937
-0.00394161
-0.003772
-0.00359893
-0.00342139
-0.00323915
-0.00305262
-0.00286273
-0.00267073
-0.00247813
-0.00228657
-0.00209771
-0.00191317
-0.00173445
-0.00156288
-0.00139959
-0.00124548
-0.00506856
-0.00488287
-0.00478737
-0.00460576
-0.00442118
-0.00425083
-0.00408483
-0.00391835
-0.0037498
-0.00357801
-0.00340219
-0.0032222
-0.00303847
-0.00285185
-0.00266352
-0.00247487
-0.00228741
-0.00210268
-0.0019222
-0.00174735
-0.00157938
-0.00141937
-0.00126815
-0.00496939
-0.0047925
-0.00470654
-0.004539
-0.00436302
-0.00419785
-0.00403557
-0.00387197
-0.00370599
-0.00353685
-0.00336403
-0.00318749
-0.00300768
-0.00282542
-0.00264179
-0.0024581
-0.00227573
-0.0020961
-0.00192061
-0.00175054
-0.00158706
-0.00143116
-0.00128363
-0.00483959
-0.00467508
-0.00459364
-0.00444021
-0.00427494
-0.00411692
-0.00396021
-0.00380134
-0.00363967
-0.0034748
-0.00330644
-0.0031347
-0.00296007
-0.00278334
-0.00260553
-0.00242785
-0.00225158
-0.00207801
-0.00190843
-0.00174403
-0.00158588
-0.00143489
-0.00129182
-0.00467536
-0.00452806
-0.00444862
-0.00430939
-0.00415685
-0.00400803
-0.00385884
-0.00370663
-0.0035511
-0.00339218
-0.00322985
-0.00306434
-0.0028962
-0.00272621
-0.00255534
-0.00238471
-0.0022155
-0.0020489
-0.0018861
-0.00172818
-0.00157612
-0.00143079
-0.00129286
-0.00447729
-0.00435171
-0.00427395
-0.00414908
-0.00401091
-0.00387316
-0.00373331
-0.00358955
-0.00344192
-0.00329062
-0.00313582
-0.00297791
-0.0028175
-0.00265538
-0.00249248
-0.00232984
-0.00216856
-0.00200974
-0.00185446
-0.00170372
-0.00155843
-0.00141937
-0.00128719
-0.00425005
-0.00414921
-0.00407434
-0.003964
-0.00384126
-0.00371603
-0.00358701
-0.00345323
-0.003315
-0.00317271
-0.00302677
-0.00287766
-0.00272606
-0.00257278
-0.00241872
-0.00226486
-0.00211222
-0.00196184
-0.00181468
-0.00167169
-0.00153368
-0.00140139
-0.00127542
-0.00400129
-0.00392618
-0.00385612
-0.00376029
-0.0036534
-0.00354159
-0.00342443
-0.00330173
-0.003174
-0.00304182
-0.00290573
-0.00276635
-0.00262441
-0.00248071
-0.00233615
-0.00219166
-0.00204819
-0.0019067
-0.00176811
-0.00163325
-0.00150289
-0.00137772
-0.00125829
-0.00373996
-0.00368965
-0.00362632
-0.00354472
-0.00345346
-0.00335535
-0.00325058
-0.00313956
-0.00302302
-0.00290163
-0.00277606
-0.00264702
-0.00251527
-0.00238164
-0.00224699
-0.00211223
-0.00197825
-0.00184594
-0.00171614
-0.00158964
-0.00146716
-0.00134931
-0.00123662
-0.0034751
-0.00344702
-0.00339186
-0.00332389
-0.00324748
-0.00316282
-0.00307044
-0.00297127
-0.00286614
-0.00275583
-0.00264107
-0.00252265
-0.00240135
-0.00227799
-0.00215344
-0.00202855
-0.00190416
-0.0017811
-0.00166017
-0.0015421
-0.00142754
-0.00131709
-0.00121123
-0.00321432
-0.00320501
-0.00315884
-0.0031036
-0.00304087
-0.00296894
-0.00288856
-0.00280098
-0.00270713
-0.00260782
-0.00250385
-0.00239601
-0.00228513
-0.00217202
-0.00205751
-0.00194241
-0.00182753
-0.00171365
-0.0016015
-0.00149177
-0.00138507
-0.00128195
-0.00118288
-0.00296354
-0.00296929
-0.00293218
-0.0028885
-0.00283804
-0.00277784
-0.00270875
-0.0026322
-0.00254919
-0.00246052
-0.00236702
-0.0022695
-0.00216879
-0.00206567
-0.00196095
-0.0018554
-0.00174979
-0.00164485
-0.00154126
-0.00143967
-0.00134064
-0.00124471
-0.00115229
-0.00272674
-0.00274392
-0.00271547
-0.00268205
-0.00264236
-0.00259271
-0.00253398
-0.0024677
-0.00239485
-0.00231625
-0.00223271
-0.00214506
-0.00205407
-0.00196053
-0.0018652
-0.00176882
-0.00167211
-0.00157576
-0.00148041
-0.00138666
-0.00129504
-0.00120605
-0.00112008
-0.00250624
-0.00253165
-0.00251108
-0.00248655
-0.00245612
-0.00241578
-0.00236639
-0.00230947
-0.002246
-0.00217676
-0.00210254
-0.00202414
-0.00194232
-0.00185783
-0.00177139
-0.0016837
-0.00159545
-0.00150726
-0.00141974
-0.00133346
-0.00124892
-0.00116656
-0.00108679
-0.00230295
-0.00233395
-0.0023203
-0.00230329
-0.00228071
-0.00224846
-0.00220734
-0.00215885
-0.0021039
-0.00204324
-0.00197762
-0.0019078
-0.00183452
-0.00175848
-0.00168035
-0.00160082
-0.00152049
-0.00143999
-0.00135986
-0.00128063
-0.00120278
-0.00112673
-0.00105285
-0.0021168
-0.00215128
-0.00214353
-0.0021328
-0.00211677
-0.00209146
-0.00205761
-0.00201661
-0.00196931
-0.00191642
-0.00185865
-0.00179672
-0.0017313
-0.00166306
-0.00159265
-0.00152069
-0.00144776
-0.00137442
-0.00130121
-0.0012286
-0.00115704
-0.00108693
-0.00101862
-0.00194706
-0.00198342
-0.00198059
-0.00197503
-0.00196442
-0.00194501
-0.00191747
-0.00188306
-0.00184259
-0.00179668
-0.00174601
-0.00169124
-0.00163302
-0.00157195
-0.00150864
-0.00144367
-0.00137758
-0.0013109
-0.00124411
-0.00117767
-0.00111199
-0.00104745
-0.000984383
-0.00179262
-0.00182971
-0.00183089
-0.00182952
-0.00182337
-0.00180895
-0.00178684
-0.00175821
-0.00172376
-0.00168409
-0.00163981
-0.00159153
-0.00153983
-0.00148531
-0.0014285
-0.00136995
-0.00131016
-0.00124962
-0.00118878
-0.00112807
-0.00106787
-0.00100852
-0.000950359
-0.0016522
-0.0016892
-0.00169361
-0.00169561
-0.00169309
-0.00168286
-0.00166542
-0.00164181
-0.00161268
-0.00157855
-0.00153998
-0.00149753
-0.00145175
-0.00140316
-0.00135228
-0.0012996
-0.0012456
-0.00119071
-0.00113535
-0.00107993
-0.00102481
-0.000970303
-0.000916714
-0.00152449
-0.00156084
-0.00156781
-0.0015725
-0.00157293
-0.00156619
-0.00155275
-0.0015335
-0.00150902
-0.00147979
-0.00144632
-0.00140911
-0.00136865
-0.00132545
-0.00127995
-0.00123263
-0.0011839
-0.00113419
-0.00108389
-0.00103335
-0.000982922
-0.000932903
-0.000883575
-0.00140819
-0.00144355
-0.00145252
-0.00145933
-0.00146214
-0.00145833
-0.00144828
-0.00143281
-0.00141241
-0.00138751
-0.00135856
-0.00132603
-0.00129037
-0.00125202
-0.00121141
-0.00116895
-0.00112505
-0.00108008
-0.0010344
-0.000988364
-0.00094227
-0.000896406
-0.000851036
-0.00130212
-0.00133627
-0.00134679
-0.00135527
-0.00135999
-0.00135861
-0.00135146
-0.00133924
-0.0013224
-0.00130132
-0.00127639
-0.00124804
-0.00121668
-0.0011827
-0.00114651
-0.00110847
-0.00106896
-0.00102832
-0.000986891
-0.000944983
-0.000902884
-0.000860863
-0.000819163
-0.00120518
-0.00123802
-0.00124973
-0.00125949
-0.00126574
-0.00126638
-0.00126169
-0.00125228
-0.00123855
-0.00122082
-0.00119946
-0.00117484
-0.00114733
-0.00111729
-0.00108509
-0.00105106
-0.00101554
-0.000978855
-0.000941312
-0.000903196
-0.000864778
-0.000826305
-0.000788006
-0.00111642
-0.00114788
-0.00116049
-0.00117123
-0.00117871
-0.00118103
-0.00117842
-0.00117144
-0.00116041
-0.00114563
-0.00112743
-0.00110613
-0.00108207
-0.00105557
-0.00102697
-0.00099657
-0.000964684
-0.000931606
-0.000897616
-0.00086298
-0.000827947
-0.000792749
-0.000757599
-0.00103495
-0.00106505
-0.00107831
-0.00108981
-0.00109825
-0.00110195
-0.00110112
-0.00109623
-0.00108756
-0.00107537
-0.00105996
-0.00104162
-0.00102064
-0.000997332
-0.000971977
-0.000944866
-0.000916279
-0.000886485
-0.000855743
-0.000824297
-0.000792378
-0.0007602
-0.000727963
-0.000960033
-0.000988792
-0.00100253
-0.00101458
-0.00102378
-0.00102862
-0.00102929
-0.00102619
-0.00101958
-0.00100967
-0.000996731
-0.000981019
-0.000962804
-0.000942352
-0.000919928
-0.000895793
-0.000870202
-0.000843401
-0.000815627
-0.000787105
-0.000758048
-0.000728656
-0.000699113
-0.000890999
-0.000918459
-0.000932517
-0.000944964
-0.00095475
-0.000960537
-0.000962477
-0.000960922
-0.000956093
-0.00094819
-0.000937436
-0.000924065
-0.000908318
-0.000890434
-0.000870653
-0.000849211
-0.00082634
-0.000802264
-0.000777201
-0.000751359
-0.000724933
-0.000698108
-0.000671056
-0.000853486
-0.000867747
-0.000880464
-0.000890695
-0.000897253
-0.000900265
-0.000900039
-0.000896766
-0.000890621
-0.000881799
-0.000870512
-0.000856971
-0.000841393
-0.000823994
-0.000804988
-0.000784585
-0.000762991
-0.000740405
-0.000717016
-0.000693006
-0.000668546
-0.000643796
-0.00718623
-0.00747532
-0.00760488
-0.00759608
-0.00745218
-0.00713884
-0.00657074
-0.00674899
-0.00699732
-0.00712983
-0.00715956
-0.00708593
-0.00692845
-0.00661752
-0.00635354
-0.00658684
-0.00672896
-0.00679307
-0.00678483
-0.00674847
-0.00662592
-0.00594432
-0.00618072
-0.00634413
-0.00644598
-0.00649221
-0.00654349
-0.00657224
-0.00550112
-0.00574777
-0.0059372
-0.00607834
-0.00617512
-0.00629524
-0.00644862
-0.00504561
-0.00530188
-0.00551525
-0.00569251
-0.00583491
-0.00600727
-0.00625747
-0.00459978
-0.00486035
-0.00509076
-0.00529622
-0.00547569
-0.00568483
-0.00600405
-0.00417821
-0.00443612
-0.0046745
-0.00489764
-0.00510333
-0.00533552
-0.00569717
-0.00378922
-0.00403816
-0.00427579
-0.00450595
-0.00472637
-0.00496947
-0.0053491
-0.00343615
-0.0036716
-0.00390155
-0.00412958
-0.0043541
-0.00459777
-0.00497438
-0.00311886
-0.00333819
-0.00355574
-0.00377483
-0.00399481
-0.00423089
-0.00458811
-0.00283506
-0.00303729
-0.00323978
-0.00344556
-0.0036548
-0.00387758
-0.00420426
-0.00258171
-0.00276697
-0.00295327
-0.00314344
-0.00333819
-0.00354419
-0.00383432
-0.00235536
-0.00252437
-0.0026946
-0.00286847
-0.00304698
-0.00323467
-0.00348661
-0.00215297
-0.00230673
-0.00246162
-0.00261953
-0.00278154
-0.00295081
-0.00316615
-0.00197146
-0.00211126
-0.00225191
-0.00239483
-0.00254104
-0.00269276
-0.00287514
-0.00180818
-0.00193537
-0.00206306
-0.00219228
-0.00232393
-0.00245953
-0.00261355
-0.0016609
-0.00177677
-0.00189281
-0.00200972
-0.00212826
-0.00224942
-0.00237987
-0.00152768
-0.00163344
-0.00173907
-0.00184504
-0.00195197
-0.00206041
-0.00217171
-0.00140687
-0.00150361
-0.00159998
-0.00169628
-0.00179301
-0.00189035
-0.00198633
-0.00129702
-0.00138574
-0.00147389
-0.00156166
-0.00164946
-0.00173718
-0.00182096
-0.00119691
-0.00127847
-0.00135934
-0.00143959
-0.00151958
-0.00159896
-0.00167301
-0.00110546
-0.00118064
-0.00125502
-0.00132864
-0.00140178
-0.00147395
-0.00154016
-0.00102174
-0.00109121
-0.00115982
-0.00122757
-0.00129469
-0.00136057
-0.0014204
-0.000944916
-0.00100927
-0.00107274
-0.00113528
-0.00119708
-0.00125748
-0.00131201
-0.000874222
-0.000934022
-0.000992905
-0.00105081
-0.00110789
-0.00116347
-0.00121354
-0.000809037
-0.000864787
-0.00091956
-0.000973314
-0.0010262
-0.00107752
-0.00112376
-0.000748921
-0.000800971
-0.000852031
-0.000902063
-0.000951194
-0.000998735
-0.00104165
-0.000693365
-0.000742035
-0.000789734
-0.000836409
-0.000882165
-0.000926334
-0.000966304
-0.000641894
-0.000687501
-0.000732155
-0.000775795
-0.000818501
-0.000859644
-0.000896993
-0.000678839
-0.000719728
-0.000759676
-0.000798093
-0.000833083
0.00245436
3.36485e-05
-0.00210272
-0.00371998
-0.00503132
-0.00601566
-0.00671039
0.000646015
-0.00130647
-0.00297634
-0.00415162
-0.0050712
-0.00580465
-0.00636123
-0.000179964
-0.00176201
-0.00317658
-0.00413107
-0.00490818
-0.00553404
-0.00601
-0.000693087
-0.00200585
-0.00319155
-0.00397952
-0.00463837
-0.00518846
-0.00561936
-0.00103601
-0.0021079
-0.0030771
-0.00372965
-0.00429896
-0.00478753
-0.00518535
-0.00123866
-0.00211245
-0.00290105
-0.0034618
-0.00393588
-0.00436829
-0.00473763
-0.00134023
-0.0020576
-0.00269676
-0.00317455
-0.00357731
-0.00396093
-0.00430243
-0.0013738
-0.00196829
-0.00248663
-0.00288762
-0.0032419
-0.00358304
-0.00389572
-0.00136299
-0.0018608
-0.00228492
-0.00262603
-0.00293804
-0.00324102
-0.00352496
-0.00132418
-0.00174549
-0.00209646
-0.00238989
-0.0026656
-0.0029353
-0.00319192
-0.00126861
-0.00162883
-0.00192281
-0.0021772
-0.00242128
-0.00266349
-0.0028951
-0.00120396
-0.00151497
-0.00176449
-0.00198609
-0.00219807
-0.00242059
-0.00263079
-0.00113529
-0.00140635
-0.00162143
-0.00181971
-0.00202229
-0.00220723
-0.00239528
-0.00106566
-0.0013037
-0.00149092
-0.00166631
-0.00184332
-0.00201459
-0.00218564
-0.000997016
-0.00120743
-0.00137204
-0.00152878
-0.00168751
-0.00184377
-0.00199891
-0.000930534
-0.00111767
-0.00126375
-0.00140491
-0.00154864
-0.00169073
-0.00183151
-0.000866881
-0.00103423
-0.00116492
-0.00129266
-0.00142325
-0.00155266
-0.00168079
-0.000806372
-0.00095676
-0.00107451
-0.00119063
-0.00130965
-0.00142779
-0.00154471
-0.000749114
-0.000884871
-0.000991588
-0.00109761
-0.00120642
-0.00131453
-0.00142148
-0.000695084
-0.000818138
-0.000915371
-0.00101252
-0.00111232
-0.00121149
-0.00130956
-0.000644182
-0.000756149
-0.000845158
-0.000934501
-0.00102628
-0.00111749
-0.00120765
-0.000596271
-0.000698515
-0.00078034
-0.00086277
-0.000947423
-0.00103152
-0.00111462
-0.000551192
-0.000644873
-0.000720389
-0.000796677
-0.000874969
-0.000952714
-0.00102951
-0.000508782
-0.000594891
-0.000664835
-0.000735647
-0.000808255
-0.00088032
-0.000951466
-0.000468877
-0.000548266
-0.000613264
-0.000679169
-0.000746663
-0.000813616
-0.000879726
-0.000431321
-0.000504729
-0.00056532
-0.000626813
-0.000689664
-0.000751907
-0.000813545
-0.000395967
-0.000464036
-0.000520691
-0.000578213
-0.00063693
-0.000695153
-0.000752443
-0.000362671
-0.000425962
-0.00047909
-0.000533042
-0.000588012
-0.000642532
-0.00069603
-0.000331298
-0.000390298
-0.000440254
-0.000490976
-0.000542563
-0.000593654
-0.000643851
-0.000301724
-0.000356864
-0.000403957
-0.000451751
-0.000500271
-0.000548277
-0.000595449
-0.000273842
-0.000325496
-0.000369998
-0.000415127
-0.000460851
0.00195603
0.0019991
0.00204436
0.00209192
0.00214192
0.00219449
0.00224977
0.00230788
0.00236896
0.00243311
0.00250042
0.00257095
0.00264471
0.00272163
0.00280152
0.00288408
0.00296876
0.00305474
0.0031408
0.00322517
0.00330537
0.00337798
0.00343841
0.00348062
0.00349691
0.00347792
0.00341294
0.00329095
0.00310261
0.00284352
0.00252289
0.00216226
0.00167405
0.00101165
0.00193352
0.00197469
0.00201784
0.00206304
0.00211042
0.00216004
0.00221201
0.00226639
0.00232325
0.00238262
0.00244451
0.00250886
0.00257556
0.0026444
0.00271504
0.00278697
0.00285943
0.00293137
0.00300132
0.00306726
0.00312648
0.0031754
0.00320936
0.00322242
0.00320721
0.00315496
0.00305564
0.00289869
0.00267393
0.00237303
0.00199468
0.00153741
0.000887797
-2.22872e-05
0.00190769
0.00194669
0.00198744
0.00202999
0.0020744
0.00212073
0.00216901
0.00221928
0.00227153
0.00232573
0.0023818
0.0024396
0.00249892
0.00255943
0.00262067
0.00268199
0.00274251
0.00280103
0.00285595
0.00290517
0.00294594
0.00297472
0.00298698
0.00297705
0.00293794
0.00286124
0.0027371
0.00255448
0.00230134
0.00196513
0.00153701
0.00101121
0.000304158
-0.000617536
0.0018797
0.0019164
0.00195459
0.00199431
0.00203558
0.00207842
0.00212282
0.00216876
0.00221617
0.00226496
0.00231497
0.00236597
0.00241767
0.00246962
0.00252126
0.00257182
0.0026203
0.00266538
0.00270537
0.00273812
0.00276086
0.00277014
0.00276163
0.00273001
0.00266884
0.0025704
0.00242571
0.00222462
0.00195593
0.00160778
0.00117116
0.000642703
-3.26814e-05
-0.000886606
0.00184993
0.00188423
0.00191978
0.00195658
0.00199463
0.0020339
0.00207434
0.00211589
0.00215842
0.00220178
0.00224575
0.00229003
0.00233423
0.00237784
0.0024202
0.00246046
0.00249752
0.00253001
0.0025562
0.00257391
0.00258045
0.0025725
0.00254601
0.00249606
0.00241682
0.00230143
0.00214201
0.00192973
0.00165509
0.00130822
0.000881482
0.000373027
-0.000252871
-0.00103017
0.00181854
0.00185037
0.00188322
0.00191704
0.00195182
0.00198748
0.00202394
0.00206109
0.00209877
0.00213676
0.00217479
0.00221251
0.00224946
0.00228507
0.00231862
0.0023492
0.00237567
0.00239663
0.00241037
0.00241475
0.00240719
0.00238458
0.00234318
0.00227856
0.00218552
0.00205807
0.00188945
0.00167221
0.00139853
0.00106048
0.000651901
0.000171853
-0.000401722
-0.00109913
0.00178574
0.00181508
0.00184518
0.001876
0.00190749
0.00193954
0.00197204
0.00200483
0.00203773
0.00207046
0.00210272
0.00213411
0.00216413
0.00219215
0.00221742
0.002239
0.00225575
0.00226627
0.00226889
0.00226157
0.00224189
0.00220697
0.00215343
0.00207733
0.00197413
0.00183869
0.00166533
0.00144794
0.00118023
0.000856087
0.00047087
2.43173e-05
-0.000496426
-0.001116
0.00175178
0.00177859
0.00180595
0.00183378
0.00186199
0.00189047
0.00191906
0.0019476
0.00197583
0.00200348
0.0020302
0.00205555
0.002079
0.00209991
0.0021175
0.00213083
0.00213876
0.00213994
0.00213277
0.00211534
0.0020854
0.00204034
0.00197715
0.00189236
0.00178208
0.00164199
0.0014674
0.00125341
0.000995141
0.000688032
0.000328795
-8.23341e-05
-0.000552365
-0.00110017
0.00171687
0.00174117
0.0017658
0.00179067
0.00181566
0.00184063
0.00186543
0.00188982
0.00191357
0.00193636
0.0019578
0.00197745
0.00199476
0.00200908
0.00201963
0.00202547
0.00202551
0.00201845
0.00200279
0.00197675
0.00193829
0.00188508
0.00181445
0.00172341
0.00160867
0.00146664
0.00129353
0.0010855
0.00083883
0.000550258
0.000217589
-0.000158621
-0.000581718
-0.00106534
0.00168122
0.00170305
0.00172499
0.00174695
0.0017688
0.00179037
0.00181149
0.00183192
0.00185138
0.00186955
0.00188603
0.00190036
0.00191199
0.00192026
0.00192441
0.00192354
0.0019166
0.00190237
0.00187945
0.00184621
0.00180084
0.00174124
0.00166511
0.0015699
0.00145284
0.00131102
0.00114141
0.000941039
0.000707176
0.000437547
0.000130803
-0.000212289
-0.000592806
-0.00102001
0.00164505
0.00166444
0.00168376
0.00170289
0.0017217
0.00174
0.00175759
0.00177423
0.00178964
0.00180347
0.00181532
0.00182472
0.00183114
0.00183392
0.00183233
0.00182551
0.00181247
0.00179208
0.00176304
0.0017239
0.00167303
0.00160861
0.00152864
0.00143098
0.00131335
0.00117337
0.0010087
0.000817074
0.000596524
0.000345544
6.34176e-05
-0.000248962
-0.00059129
-0.000969414
0.00160853
0.00162555
0.00164233
0.00165873
0.00167461
0.00168978
0.00170403
0.00171709
0.00172869
0.00173847
0.00174604
0.00175093
0.0017526
0.00175045
0.00174376
0.00173172
0.00171341
0.0016878
0.0016537
0.00160981
0.00155471
0.0014868
0.0014044
0.00130571
0.00118886
0.00105197
0.000893216
0.000710924
0.000503719
0.000270672
1.1519e-05
-0.000272777
-0.000581102
-0.00091678
0.00157185
0.00158658
0.00160091
0.00161469
0.00162778
0.00163998
0.00165106
0.00166077
0.00166882
0.00167485
0.00167849
0.00167927
0.00167668
0.00167013
0.00165895
0.00164239
0.00161959
0.00158961
0.0015514
0.0015038
0.00144556
0.00137532
0.00129165
0.00119307
0.00107806
0.00094514
0.000792926
0.000620208
0.000426066
0.000209992
-2.79589e-05
-0.0002868
-0.000564974
-0.000864014
0.00153518
0.0015477
0.00155968
0.00157097
0.00158141
0.0015908
0.00159892
0.0016055
0.00161027
0.00161287
0.00161292
0.00160999
0.00160359
0.00159316
0.00157807
0.00155763
0.00153106
0.00149751
0.00145604
0.00140563
0.00134519
0.00127358
0.0011896
0.00109202
0.000979641
0.00085131
0.000705992
0.000542837
0.000361271
0.000161091
-5.74305e-05
-0.000293316
-0.00054479
-0.000812148
0.00149865
0.00150906
0.0015188
0.00152773
0.00153568
0.00154244
0.0015478
0.00155149
0.00155324
0.0015527
0.00154952
0.00154328
0.0015335
0.00151968
0.00150122
0.0014775
0.00144781
0.00141138
0.00136739
0.00131495
0.00125313
0.00118095
0.00109742
0.00100155
0.000892381
0.000769036
0.00063076
0.000476981
0.000307384
0.000121983
-7.88125e-05
-0.000294051
-0.000521876
-0.000761756
0.0014624
0.00147081
0.00147844
0.00148514
0.00149075
0.00149506
0.00149786
0.0014989
0.00149789
0.00149452
0.00148843
0.00147924
0.00146651
0.00144975
0.00142843
0.00140197
0.00136975
0.00133107
0.00128522
0.00123142
0.00116888
0.00109679
0.00101432
0.000920682
0.00081513
0.000697
0.000565761
0.000421054
0.000262753
9.10226e-05
-9.3641e-05
-0.00029033
-0.000497193
-0.000713159
0.00142656
0.00143306
0.0014387
0.00144332
0.00144675
0.0014488
0.00144925
0.00144785
0.00144434
0.00143842
0.00142975
0.00141797
0.00140267
0.00138339
0.00135967
0.00133097
0.00129673
0.00125635
0.0012092
0.00115461
0.00109192
0.00102044
0.000939512
0.000848499
0.000746827
0.000634012
0.000509694
0.000373677
0.000225974
6.6848e-05
-0.000103157
-0.000283185
-0.000471438
-0.000666516
0.00139122
0.00139594
0.00139971
0.00140239
0.0014038
0.00140376
0.00140205
0.00139845
0.00139269
0.0013845
0.00137355
0.0013595
0.00134198
0.00132059
0.00129487
0.00126437
0.00122858
0.00118697
0.001139
0.00108411
0.00102172
0.000951286
0.000872256
0.00078414
0.000686503
0.000579003
0.000461414
0.000333662
0.000195855
4.83239e-05
-0.00010837
-0.000273425
-0.000445129
-0.00062189
0.00135648
0.00135953
0.00136156
0.00136244
0.00136199
0.00136003
0.00135637
0.00135077
0.001343
0.00133279
0.00131984
0.00130384
0.00128444
0.00126127
0.00123394
0.00120203
0.00116509
0.00112267
0.0010743
0.00101949
0.000957786
0.000888715
0.000811852
0.000726814
0.000633281
0.000531023
0.000419917
0.000299978
0.000171385
3.45029e-05
-0.000110104
-0.000261693
-0.000418651
-0.000579289
0.00132242
0.00132391
0.00132433
0.00132354
0.00132138
0.00131768
0.00131225
0.00130487
0.00129531
0.00128332
0.00126864
0.00125096
0.00122998
0.00120536
0.00117675
0.00114377
0.00110604
0.00106316
0.00101473
0.000960342
0.000899608
0.000832156
0.000757649
0.000675795
0.000586368
0.000489225
0.000384322
0.00027174
0.000151702
2.45925e-05
-0.000109037
-0.000248501
-0.00039229
-0.000538689
0.00128911
0.00128914
0.00128807
0.00128576
0.00128204
0.00127676
0.00126974
0.00126076
0.00124963
0.00123609
0.00121992
0.00120083
0.00117854
0.00115276
0.00112316
0.00108942
0.0010512
0.00100816
0.00095995
0.000906245
0.000846718
0.000781072
0.000709046
0.000630424
0.000545054
0.000452861
0.000353862
0.000248182
0.000136074
1.79284e-05
-0.000105725
-0.000234257
-0.000366262
-0.000500043
0.00125659
0.00125529
0.00125284
0.00124913
0.00124401
0.0012373
0.00122885
0.00121847
0.00120595
0.00119108
0.00117364
0.00115337
0.00113002
0.00110333
0.001073
0.00103876
0.00100031
0.000957364
0.000909622
0.000856812
0.00079867
0.000734963
0.000665491
0.000590102
0.000508702
0.000421269
0.000327864
0.000228645
0.000123879
1.39534e-05
-0.000100628
-0.000219289
-0.000340729
-0.000463293
0.00122492
0.00122238
0.00121868
0.0012137
0.0012073
0.00119932
0.00118961
0.00117799
0.00116427
0.00114826
0.00112975
0.00110851
0.00108432
0.00105694
0.00102612
0.000991609
0.000953154
0.000910505
0.00086342
0.000811671
0.000755047
0.000693366
0.000626481
0.00055429
0.000476746
0.000393867
0.000305746
0.000212561
0.000114586
1.21994e-05
-9.41253e-05
-0.000203861
-0.000315806
-0.000428372
0.00119413
0.00119046
0.00118562
0.00117949
0.00117194
0.00116282
0.001152
0.00113929
0.00112455
0.00110757
0.00108818
0.00106617
0.00104134
0.00101347
0.000982347
0.000947757
0.00090948
0.000867306
0.000821032
0.000770472
0.00071546
0.000655856
0.000591558
0.000522504
0.000448682
0.000370141
0.000286996
0.00019944
0.000107744
1.22731e-05
-8.65292e-05
-0.000188183
-0.000291579
-0.000395207
0.00116424
0.00115954
0.00115366
0.0011465
0.00113792
0.0011278
0.001116
0.00110237
0.00108674
0.00106896
0.00104885
0.00102624
0.00100094
0.000972755
0.000941508
0.000907005
0.000869063
0.000827504
0.000782162
0.000732886
0.000679548
0.000622045
0.000560308
0.000494307
0.00042406
0.000349639
0.000271173
0.000188859
0.000102968
1.38438e-05
-7.80982e-05
-0.000172421
-0.000268106
-0.000363723
0.00113527
0.00112963
0.00112282
0.00111473
0.00110525
0.00109425
0.0010816
0.00106717
0.00105081
0.00103237
0.00101169
0.000988628
0.000963006
0.000934663
0.000903434
0.000869159
0.00083168
0.00079085
0.000746532
0.000698609
0.00064698
0.000591576
0.000532354
0.000469311
0.000402485
0.000331965
0.000257889
0.000180457
9.99294e-05
1.66338e-05
-6.90454e-05
-0.000156711
-0.000245425
-0.000333846
0.00110725
0.00110076
0.00109311
0.00108419
0.00107391
0.00106214
0.00104876
0.00103365
0.00101668
0.000997715
0.000976611
0.000953227
0.00092742
0.000899045
0.000867961
0.00083403
0.000797119
0.000757106
0.000713882
0.000667355
0.000617452
0.000564126
0.000507359
0.000447167
0.000383605
0.00031677
0.00024681
0.000173919
9.83498e-05
2.04095e-05
-5.95459e-05
-0.000141155
-0.000223557
-0.000305499
0.00108016
0.0010729
0.0010645
0.00105486
0.00104387
0.00103144
0.00101744
0.00100177
0.000984309
0.000964932
0.000943515
0.000919931
0.000894056
0.000865762
0.000834928
0.000801436