/*--------------------------------*- C++ -*----------------------------------*\
| =========                 |                                                 |
| \\      /  F ield         | OpenFOAM: The Open Source CFD Toolbox           |
|  \\    /   O peration     | Version:  2412                                  |
|   \\  /    A nd           | Website:  www.openfoam.com                      |
|    \\/     M anipulation  |                                                 |
\*---------------------------------------------------------------------------*/
FoamFile
{
    version     2.0;
    format      ascii;
    arch        "LSB;label=32;scalar=64";
    class       volScalarField;
    location    "7.5";
    object      p;
}
// * * * * * * * * * * * * * * * * * * * * * * * * * * * * * * * * * * * * * //

dimensions      [0 2 -2 0 0 0 0];

internalField   nonuniform List<scalar> 
5285
(
0.000923224
0.000918441
0.000913361
0.000907971
0.000902259
0.000896211
0.000889814
0.000883054
0.000875917
0.00086839
0.000860459
0.00085211
0.000843332
0.000834109
0.000824431
0.000814284
0.000933373
0.000928723
0.000923771
0.000918503
0.000912906
0.000906964
0.000900663
0.00089399
0.000886929
0.000879465
0.000871583
0.00086327
0.000854509
0.000845288
0.000835593
0.000825408
0.0009438
0.000939297
0.000934486
0.000929353
0.000923883
0.000918062
0.000911872
0.000905299
0.000898327
0.00089094
0.000883122
0.000874857
0.000866129
0.000856922
0.000847221
0.000837011
0.00095451
0.000950167
0.000945511
0.000940528
0.0009352
0.000929513
0.000923449
0.000916992
0.000910125
0.00090283
0.00089509
0.000886888
0.000878207
0.000869029
0.000859337
0.000849114
0.000965506
0.000961338
0.000956852
0.000952033
0.000946863
0.000941326
0.000935404
0.000929079
0.000922332
0.000915146
0.000907501
0.000899379
0.00089076
0.000881626
0.000871958
0.000861738
0.000976793
0.000972814
0.000968514
0.000963874
0.000958879
0.000953509
0.000947745
0.000941569
0.000934961
0.000927901
0.000920369
0.000912344
0.000903806
0.000894733
0.000885107
0.000874905
0.000988372
0.000984599
0.0009805
0.000976058
0.000971254
0.000966068
0.000960482
0.000954474
0.000948023
0.000941108
0.000933707
0.000925799
0.000917361
0.000908369
0.000898803
0.000888639
0.00100025
0.000996695
0.000992816
0.000988588
0.000983994
0.000979012
0.000973622
0.000967801
0.000961528
0.000954779
0.000947531
0.00093976
0.000931443
0.000922553
0.000913068
0.000902961
0.00101242
0.00100911
0.00100546
0.00100147
0.000997105
0.000992347
0.000987174
0.000981562
0.000975488
0.000968927
0.000961854
0.000954243
0.000946069
0.000937304
0.000927923
0.000917896
0.00102489
0.00102183
0.00101845
0.00101471
0.00101059
0.00100608
0.00100114
0.000995763
0.000989911
0.000983562
0.000976688
0.000969263
0.000961257
0.000952642
0.000943389
0.000933468
0.00103766
0.00103488
0.00103177
0.0010283
0.00102446
0.00102021
0.00101554
0.00101041
0.00100481
0.000998696
0.000992048
0.000984834
0.000977023
0.000968585
0.000959488
0.0009497
0.00105072
0.00104824
0.00104543
0.00104226
0.00103871
0.00103475
0.00103036
0.00102552
0.00102019
0.00101434
0.00100794
0.00100097
0.000993384
0.000985153
0.000976242
0.000966616
0.00106408
0.00106192
0.00105942
0.00105657
0.00105334
0.0010497
0.00104563
0.00104109
0.00103606
0.0010305
0.00102439
0.00101769
0.00101036
0.00100236
0.000993671
0.00098424
0.00107774
0.00107591
0.00107376
0.00107125
0.00106836
0.00106506
0.00106133
0.00105713
0.00105243
0.00104719
0.0010414
0.001035
0.00102796
0.00102024
0.0010118
0.0010026
0.00109168
0.00109021
0.00108842
0.00108628
0.00108376
0.00108083
0.00107747
0.00107363
0.0010693
0.00106442
0.00105897
0.00105291
0.00104619
0.00103878
0.00103064
0.00102171
0.00110591
0.00110483
0.00110342
0.00110168
0.00109955
0.00109702
0.00109405
0.00109061
0.00108667
0.00108219
0.00107712
0.00107144
0.00106509
0.00105803
0.00105021
0.0010416
0.00112041
0.00111974
0.00111875
0.00111742
0.00111572
0.00111362
0.00111108
0.00110807
0.00110456
0.0011005
0.00109586
0.00109059
0.00108465
0.00107798
0.00107054
0.00106228
0.00113519
0.00113495
0.0011344
0.00113351
0.00113226
0.00113062
0.00112854
0.001126
0.00112296
0.00111936
0.00111519
0.00111037
0.00110488
0.00109865
0.00109164
0.00108379
0.00115023
0.00115044
0.00115036
0.00114995
0.00114918
0.00114802
0.00114645
0.0011444
0.00114186
0.00113878
0.0011351
0.00113079
0.0011258
0.00112006
0.00111353
0.00110614
0.00116551
0.00116621
0.00116662
0.00116671
0.00116646
0.00116582
0.00116477
0.00116327
0.00116127
0.00115874
0.00115561
0.00115185
0.0011474
0.00114221
0.0011362
0.00112933
0.000969037
0.00097067
0.000969632
0.00097043
0.000970744
0.000971021
0.000971446
0.000971857
0.000972318
0.000972837
0.000973397
0.000973986
0.000974594
0.000975211
0.000975827
0.000976435
0.000977028
0.000977598
0.00097814
0.000978646
0.000979109
0.000979523
0.000979882
0.000980177
0.000980402
0.000980552
0.000980618
0.000980594
0.000980475
0.000980253
0.000979922
0.000979477
0.000978911
0.000978219
0.000977395
0.000976434
0.000975332
0.000974082
0.000972683
0.000971128
0.000969415
0.00096754
0.0009655
0.000963293
0.000960916
0.000958368
0.000955648
0.000952753
0.000949684
0.000946441
0.000943024
0.000939433
0.000935669
0.000931735
0.000927631
0.000971552
0.000973183
0.000972153
0.000972987
0.000973333
0.000973665
0.000974154
0.000974631
0.000975159
0.000975749
0.000976383
0.000977054
0.000977751
0.000978464
0.000979184
0.000979902
0.000980612
0.000981305
0.000981975
0.000982616
0.000983219
0.000983778
0.000984286
0.000984736
0.00098512
0.000985433
0.000985666
0.000985814
0.000985869
0.000985825
0.000985675
0.000985413
0.000985033
0.000984528
0.000983893
0.000983122
0.000982211
0.000981154
0.000979946
0.000978582
0.00097706
0.000975375
0.000973523
0.000971502
0.00096931
0.000966943
0.0009644
0.00096168
0.000958781
0.000955704
0.000952447
0.000949012
0.000945399
0.000941609
0.000937644
0.000974059
0.000975691
0.000974664
0.000975535
0.000975912
0.000976297
0.00097685
0.000977392
0.000977989
0.00097865
0.00097936
0.000980114
0.000980902
0.000981713
0.000982537
0.000983368
0.000984195
0.000985014
0.000985815
0.000986592
0.000987337
0.000988044
0.000988704
0.000989312
0.000989859
0.000990338
0.000990743
0.000991066
0.0009913
0.000991439
0.000991475
0.000991401
0.000991212
0.000990901
0.000990462
0.000989889
0.000989176
0.000988318
0.000987309
0.000986146
0.000984823
0.000983336
0.000981682
0.000979857
0.000977858
0.000975682
0.000973328
0.000970793
0.000968075
0.000965175
0.000962091
0.000958823
0.000955372
0.000951738
0.000947923
0.000976559
0.00097819
0.000977166
0.000978071
0.000978481
0.000978917
0.000979531
0.000980139
0.000980804
0.000981538
0.000982326
0.000983165
0.000984045
0.000984955
0.000985886
0.000986829
0.000987777
0.000988722
0.000989656
0.000990571
0.000991461
0.000992318
0.000993134
0.000993902
0.000994615
0.000995265
0.000995845
0.000996348
0.000996766
0.000997092
0.000997319
0.00099744
0.000997448
0.000997337
0.0009971
0.000996731
0.000996223
0.000995572
0.000994771
0.000993816
0.000992701
0.000991423
0.000989975
0.000988356
0.000986561
0.000984587
0.000982431
0.000980092
0.000977567
0.000974856
0.000971956
0.000968867
0.00096559
0.000962125
0.000958472
0.000979048
0.000980678
0.000979657
0.000980596
0.000981037
0.000981522
0.000982197
0.000982869
0.000983604
0.000984412
0.00098528
0.000986205
0.000987178
0.000988189
0.000989227
0.000990285
0.000991355
0.000992428
0.000993496
0.000994552
0.000995589
0.000996598
0.000997573
0.000998505
0.000999387
0.00100021
0.00100097
0.00100166
0.00100226
0.00100278
0.0010032
0.00100352
0.00100374
0.00100383
0.0010038
0.00100364
0.00100335
0.00100291
0.00100233
0.00100159
0.00100069
0.000999631
0.000998401
0.000996997
0.000995416
0.000993655
0.000991709
0.000989578
0.000987257
0.000984746
0.000982042
0.000979146
0.000976055
0.000972771
0.000969294
0.000981525
0.000983152
0.000982137
0.000983107
0.00098358
0.000984112
0.000984845
0.000985582
0.000986387
0.00098727
0.000988219
0.000989232
0.000990299
0.000991412
0.000992559
0.000993734
0.000994926
0.000996129
0.000997334
0.000998533
0.000999718
0.00100088
0.00100202
0.00100312
0.00100417
0.00100517
0.00100611
0.00100699
0.00100779
0.0010085
0.00100913
0.00100965
0.00101007
0.00101038
0.00101057
0.00101063
0.00101055
0.00101034
0.00100998
0.00100947
0.0010088
0.00100796
0.00100696
0.00100578
0.00100442
0.00100288
0.00100116
0.000999248
0.000997144
0.000994846
0.000992351
0.000989659
0.000986769
0.00098368
0.000980392
0.000983987
0.00098561
0.000984602
0.000985602
0.000986107
0.000986686
0.000987475
0.000988276
0.000989152
0.000990111
0.000991142
0.000992243
0.000993407
0.000994622
0.00099588
0.000997172
0.000998489
0.000999823
0.00100117
0.00100251
0.00100385
0.00100517
0.00100647
0.00100774
0.00100896
0.00101015
0.00101128
0.00101234
0.00101334
0.00101425
0.00101508
0.00101582
0.00101646
0.00101698
0.00101739
0.00101768
0.00101783
0.00101785
0.00101772
0.00101744
0.001017
0.00101641
0.00101564
0.0010147
0.00101358
0.00101227
0.00101078
0.0010091
0.00100723
0.00100515
0.00100288
0.00100041
0.000997732
0.000994852
0.000991767
0.000986432
0.000988051
0.000987051
0.00098808
0.000988618
0.000989242
0.000990087
0.000990951
0.000991897
0.000992933
0.000994048
0.000995239
0.000996499
0.000997819
0.000999188
0.0010006
0.00100204
0.00100351
0.00100499
0.00100648
0.00100797
0.00100945
0.00101092
0.00101236
0.00101376
0.00101513
0.00101645
0.00101771
0.00101891
0.00102003
0.00102107
0.00102203
0.00102288
0.00102363
0.00102427
0.00102479
0.00102518
0.00102543
0.00102554
0.00102551
0.00102532
0.00102496
0.00102444
0.00102375
0.00102288
0.00102182
0.00102057
0.00101914
0.0010175
0.00101567
0.00101363
0.00101139
0.00100895
0.00100629
0.00100342
0.000988857
0.000990474
0.000989482
0.00099054
0.00099111
0.000991778
0.000992677
0.000993604
0.000994621
0.000995735
0.000996934
0.000998216
0.000999574
0.001001
0.00100248
0.00100401
0.00100558
0.00100718
0.0010088
0.00101044
0.00101209
0.00101373
0.00101536
0.00101698
0.00101857
0.00102012
0.00102163
0.0010231
0.0010245
0.00102583
0.00102709
0.00102826
0.00102934
0.00103033
0.0010312
0.00103196
0.00103259
0.00103309
0.00103345
0.00103367
0.00103373
0.00103363
0.00103337
0.00103293
0.00103232
0.00103152
0.00103053
0.00102935
0.00102797
0.00102639
0.00102461
0.00102261
0.00102041
0.00101799
0.00101536
0.000991261
0.000992875
0.000991894
0.000992979
0.000993581
0.000994293
0.000995247
0.000996236
0.000997324
0.000998516
0.000999799
0.00100117
0.00100263
0.00100416
0.00100576
0.00100741
0.0010091
0.00101084
0.00101261
0.00101439
0.0010162
0.001018
0.00101981
0.0010216
0.00102337
0.00102512
0.00102682
0.00102849
0.0010301
0.00103165
0.00103313
0.00103453
0.00103584
0.00103706
0.00103817
0.00103918
0.00104006
0.00104082
0.00104144
0.00104191
0.00104224
0.00104241
0.00104241
0.00104224
0.0010419
0.00104137
0.00104065
0.00103974
0.00103863
0.00103732
0.0010358
0.00103407
0.00103212
0.00102996
0.00102757
0.000993642
0.000995254
0.000994283
0.000995395
0.000996031
0.000996786
0.000997793
0.000998844
0.001
0.00100127
0.00100264
0.00100411
0.00100566
0.0010073
0.00100901
0.00101078
0.00101261
0.00101448
0.00101639
0.00101833
0.00102029
0.00102226
0.00102424
0.00102621
0.00102817
0.00103011
0.00103202
0.00103389
0.00103571
0.00103748
0.00103919
0.00104082
0.00104237
0.00104383
0.00104519
0.00104645
0.00104759
0.00104861
0.00104949
0.00105024
0.00105084
0.00105128
0.00105156
0.00105168
0.00105161
0.00105137
0.00105093
0.0010503
0.00104948
0.00104844
0.0010472
0.00104575
0.00104408
0.00104219
0.00104007
0.000995997
0.000997608
0.000996649
0.000997788
0.000998456
0.000999255
0.00100031
0.00100143
0.00100266
0.00100401
0.00100546
0.00100702
0.00100868
0.00101042
0.00101224
0.00101414
0.0010161
0.00101811
0.00102016
0.00102225
0.00102437
0.00102651
0.00102866
0.00103082
0.00103296
0.0010351
0.00103721
0.00103929
0.00104133
0.00104332
0.00104526
0.00104713
0.00104892
0.00105063
0.00105225
0.00105376
0.00105517
0.00105645
0.00105761
0.00105864
0.00105952
0.00106025
0.00106082
0.00106122
0.00106145
0.0010615
0.00106137
0.00106104
0.0010605
0.00105977
0.00105882
0.00105766
0.00105628
0.00105468
0.00105285
0.000998326
0.000999937
0.00099899
0.00100015
0.00100086
0.0010017
0.00100281
0.00100399
0.00100529
0.00100671
0.00100825
0.0010099
0.00101166
0.00101351
0.00101545
0.00101747
0.00101956
0.00102171
0.00102391
0.00102615
0.00102843
0.00103074
0.00103307
0.00103541
0.00103775
0.00104008
0.0010424
0.00104469
0.00104695
0.00104917
0.00105134
0.00105345
0.00105549
0.00105745
0.00105933
0.00106111
0.00106279
0.00106435
0.0010658
0.00106711
0.00106828
0.00106931
0.00107018
0.00107088
0.00107142
0.00107178
0.00107195
0.00107193
0.00107171
0.00107128
0.00107065
0.0010698
0.00106872
0.00106742
0.0010659
0.00100063
0.00100224
0.0010013
0.00100249
0.00100323
0.00100411
0.00100528
0.00100652
0.00100789
0.00100939
0.00101102
0.00101276
0.00101462
0.00101658
0.00101864
0.00102078
0.001023
0.00102529
0.00102763
0.00103003
0.00103248
0.00103495
0.00103746
0.00103998
0.00104251
0.00104505
0.00104757
0.00105008
0.00105257
0.00105502
0.00105743
0.00105978
0.00106208
0.0010643
0.00106644
0.0010685
0.00107045
0.0010723
0.00107404
0.00107564
0.00107712
0.00107845
0.00107963
0.00108065
0.0010815
0.00108218
0.00108267
0.00108298
0.00108308
0.00108298
0.00108268
0.00108215
0.0010814
0.00108043
0.00107922
0.0010029
0.00100451
0.00100359
0.00100481
0.00100557
0.0010065
0.00100772
0.00100902
0.00101046
0.00101204
0.00101375
0.00101559
0.00101755
0.00101962
0.00102179
0.00102406
0.00102641
0.00102884
0.00103133
0.00103389
0.00103649
0.00103914
0.00104183
0.00104454
0.00104726
0.00105
0.00105274
0.00105547
0.00105818
0.00106086
0.00106351
0.00106612
0.00106867
0.00107116
0.00107357
0.00107591
0.00107815
0.00108029
0.00108232
0.00108423
0.00108602
0.00108767
0.00108917
0.00109051
0.00109169
0.0010927
0.00109353
0.00109418
0.00109462
0.00109487
0.0010949
0.00109472
0.00109431
0.00109368
0.00109282
0.00100514
0.00100675
0.00100585
0.00100709
0.00100789
0.00100886
0.00101013
0.00101149
0.001013
0.00101466
0.00101646
0.00101839
0.00102045
0.00102263
0.00102492
0.00102731
0.00102979
0.00103236
0.001035
0.00103771
0.00104048
0.0010433
0.00104617
0.00104907
0.00105199
0.00105493
0.00105788
0.00106084
0.00106378
0.0010667
0.0010696
0.00107245
0.00107527
0.00107802
0.00108072
0.00108334
0.00108587
0.00108831
0.00109065
0.00109288
0.00109498
0.00109695
0.00109878
0.00110046
0.00110199
0.00110334
0.00110452
0.00110552
0.00110632
0.00110692
0.00110731
0.00110749
0.00110745
0.00110718
0.00110667
0.00100735
0.00100896
0.00100807
0.00100934
0.00101017
0.00101118
0.0010125
0.00101392
0.0010155
0.00101724
0.00101913
0.00102115
0.00102332
0.0010256
0.00102801
0.00103052
0.00103314
0.00103584
0.00103864
0.0010415
0.00104444
0.00104743
0.00105048
0.00105357
0.00105669
0.00105984
0.00106301
0.00106618
0.00106936
0.00107252
0.00107567
0.00107878
0.00108186
0.00108489
0.00108787
0.00109078
0.00109361
0.00109636
0.00109901
0.00110156
0.00110399
0.0011063
0.00110847
0.0011105
0.00111237
0.00111409
0.00111563
0.00111699
0.00111816
0.00111914
0.00111991
0.00112047
0.0011208
0.00112091
0.00112079
0.00100952
0.00101114
0.00101026
0.00101155
0.00101242
0.00101348
0.00101485
0.00101633
0.00101798
0.0010198
0.00102177
0.00102388
0.00102615
0.00102854
0.00103106
0.0010337
0.00103645
0.0010393
0.00104224
0.00104526
0.00104836
0.00105153
0.00105476
0.00105804
0.00106136
0.00106472
0.0010681
0.0010715
0.00107491
0.00107832
0.00108172
0.0010851
0.00108845
0.00109176
0.00109502
0.00109823
0.00110137
0.00110443
0.0011074
0.00111027
0.00111304
0.00111569
0.00111822
0.0011206
0.00112284
0.00112493
0.00112685
0.00112859
0.00113015
0.00113151
0.00113268
0.00113363
0.00113436
0.00113487
0.00113515
0.00101166
0.00101328
0.00101242
0.00101374
0.00101464
0.00101573
0.00101716
0.0010187
0.00102042
0.00102231
0.00102437
0.00102658
0.00102894
0.00103144
0.00103408
0.00103684
0.00103972
0.00104271
0.0010458
0.00104898
0.00105225
0.00105559
0.001059
0.00106248
0.001066
0.00106957
0.00107317
0.0010768
0.00108044
0.0010841
0.00108775
0.00109139
0.00109502
0.00109861
0.00110217
0.00110567
0.00110912
0.0011125
0.0011158
0.00111902
0.00112213
0.00112513
0.00112802
0.00113077
0.00113339
0.00113586
0.00113816
0.0011403
0.00114226
0.00114403
0.0011456
0.00114697
0.00114812
0.00114905
0.00114975
0.00113124
0.00113461
0.00113786
0.001141
0.001144
0.00114686
0.00114957
0.00115212
0.00115449
0.00115668
0.00115868
0.00116048
0.00116207
0.00116344
0.00116458
0.000813218
0.000815779
0.00081826
0.000814798
0.000809741
0.000809977
0.000810846
0.000808321
0.000804978
0.000802733
0.000800687
0.000798087
0.000795146
0.000792122
0.000789007
0.000785747
0.000782345
0.000778823
0.000775191
0.000771456
0.000767624
0.000763704
0.000759701
0.000755623
0.000751478
0.00074727
0.000743007
0.000738694
0.000734338
0.000729943
0.000725516
0.000721061
0.000716583
0.000712087
0.000707579
0.000703061
0.000698539
0.000694017
0.000689497
0.000684985
0.000680483
0.000675995
0.000671523
0.000667071
0.000662642
0.000658238
0.000653861
0.000649515
0.0006452
0.000640919
0.000636675
0.000632468
0.0006283
0.000624173
0.000620089
0.000813439
0.000816245
0.000818492
0.000814811
0.000810151
0.000810523
0.00081111
0.000808503
0.000805302
0.000803118
0.000801032
0.000798408
0.000795477
0.000792465
0.000789352
0.000786093
0.000782694
0.000779175
0.000775546
0.000771813
0.000767984
0.000764065
0.000760065
0.000755989
0.000751845
0.000747639
0.000743377
0.000739065
0.000734709
0.000730315
0.000725887
0.000721432
0.000716954
0.000712458
0.000707949
0.00070343
0.000698907
0.000694383
0.000689861
0.000685347
0.000680842
0.000676352
0.000671877
0.000667422
0.00066299
0.000658583
0.000654202
0.000649852
0.000645534
0.000641249
0.000637001
0.000632789
0.000628617
0.000624486
0.000620396
0.000814196
0.000816863
0.00081894
0.000815305
0.000810931
0.000811266
0.000811629
0.000809032
0.000805963
0.000803807
0.000801681
0.000799045
0.00079613
0.00079313
0.000790022
0.000786767
0.000783373
0.00077986
0.000776236
0.000772508
0.000768683
0.000764769
0.000760772
0.0007567
0.000752559
0.000748355
0.000744095
0.000739785
0.000735431
0.000731037
0.00072661
0.000722155
0.000717676
0.000713179
0.000708668
0.000704147
0.000699621
0.000695094
0.000690569
0.000686051
0.000681542
0.000677046
0.000672567
0.000668106
0.000663668
0.000659254
0.000654867
0.000650509
0.000646184
0.000641891
0.000637635
0.000633415
0.000629235
0.000625094
0.000620996
0.000815087
0.00081775
0.000819719
0.00081612
0.000811936
0.000812246
0.000812465
0.000809882
0.000806907
0.000804772
0.000802622
0.000799983
0.000797083
0.000794096
0.000790996
0.000787748
0.000784362
0.000780857
0.00077724
0.00077352
0.000769702
0.000765793
0.000761802
0.000757735
0.000753599
0.0007494
0.000745143
0.000740836
0.000736483
0.000732091
0.000727665
0.000723209
0.00071873
0.000714231
0.000709718
0.000705194
0.000700664
0.000696133
0.000691603
0.000687079
0.000682563
0.000678061
0.000673573
0.000669105
0.000664657
0.000660234
0.000655838
0.00065147
0.000647133
0.00064283
0.000638561
0.00063433
0.000630137
0.000625984
0.000621873
0.000816256
0.000818914
0.00082078
0.000817185
0.000813179
0.000813494
0.000813589
0.000811007
0.000808113
0.000806004
0.000803841
0.000801201
0.000798318
0.000795346
0.000792256
0.000789018
0.000785643
0.000782148
0.000778541
0.00077483
0.000771021
0.000767121
0.000763138
0.000759078
0.000754948
0.000750754
0.000746502
0.000742198
0.000737849
0.000733458
0.000729033
0.000724578
0.000720097
0.000715597
0.000711081
0.000706553
0.000702019
0.000697482
0.000692946
0.000688414
0.000683891
0.000679379
0.000674882
0.000670403
0.000665944
0.000661509
0.0006571
0.000652719
0.000648369
0.000644051
0.000639767
0.00063552
0.000631311
0.000627142
0.000623014
0.000817678
0.000820323
0.000822084
0.000818495
0.000814669
0.00081499
0.000814965
0.000812386
0.000809572
0.000807491
0.000805317
0.000802681
0.000799816
0.000796861
0.000793785
0.000790559
0.000787197
0.000783715
0.000780121
0.000776422
0.000772623
0.000768734
0.000764761
0.00076071
0.000756587
0.0007524
0.000748154
0.000743856
0.00073951
0.000735122
0.000730698
0.000726244
0.000721763
0.00071726
0.000712741
0.000708209
0.00070367
0.000699126
0.000694582
0.000690042
0.000685509
0.000680987
0.000676479
0.000671987
0.000667515
0.000663065
0.000658641
0.000654244
0.000649877
0.000645542
0.00064124
0.000636974
0.000632746
0.000628557
0.000624408
0.000819331
0.00082196
0.000823615
0.000820039
0.00081639
0.000816713
0.000816572
0.000814004
0.00081127
0.000809215
0.000807033
0.000804405
0.000801561
0.000798626
0.000795565
0.000792354
0.000789008
0.000785541
0.000781962
0.000778277
0.000774493
0.000770616
0.000766654
0.000762614
0.000758502
0.000754323
0.000750085
0.000745792
0.000741451
0.000737067
0.000732646
0.000728192
0.00072371
0.000719206
0.000714684
0.000710148
0.000705602
0.000701052
0.0006965
0.00069195
0.000687406
0.000682872
0.00067835
0.000673844
0.000669356
0.000664891
0.000660449
0.000656033
0.000651647
0.000647291
0.000642969
0.000638682
0.000634431
0.000630219
0.000626047
0.000821198
0.000823809
0.000825359
0.000821801
0.000818327
0.000818647
0.000818397
0.000815845
0.000813191
0.000811162
0.000808974
0.000806357
0.000803537
0.000800623
0.00079758
0.000794387
0.00079106
0.000787611
0.00078405
0.000780381
0.000776613
0.000772751
0.000768803
0.000764776
0.000760675
0.000756507
0.000752277
0.000747993
0.000743658
0.000739279
0.00073486
0.000730408
0.000725927
0.000721421
0.000716896
0.000712355
0.000707804
0.000703245
0.000698684
0.000694124
0.000689569
0.000685021
0.000680485
0.000675963
0.000671458
0.000666974
0.000662512
0.000658077
0.000653668
0.00064929
0.000644945
0.000640633
0.000636357
0.000632119
0.00062792
0.000823262
0.000825855
0.0008273
0.000823764
0.000820465
0.000820778
0.000820424
0.000817894
0.000815319
0.000813314
0.000811124
0.000808522
0.000805729
0.000802838
0.000799816
0.000796643
0.000793337
0.000789909
0.000786368
0.000782719
0.000778969
0.000775124
0.000771193
0.00076718
0.000763093
0.000758937
0.000754719
0.000750443
0.000746116
0.000741743
0.000737329
0.000732879
0.000728398
0.000723892
0.000719364
0.000714819
0.000710262
0.000705696
0.000701125
0.000696554
0.000691986
0.000687424
0.000682872
0.000678333
0.00067381
0.000669306
0.000664823
0.000660365
0.000655933
0.00065153
0.000647158
0.00064282
0.000638516
0.000634249
0.00063002
0.00082551
0.000828081
0.000829421
0.000825914
0.000822788
0.000823092
0.000822639
0.000820135
0.000817638
0.000815658
0.000813469
0.000810884
0.00080812
0.000805256
0.000802256
0.000799108
0.000795825
0.000792421
0.000788902
0.000785275
0.000781546
0.000777722
0.000773809
0.000769814
0.000765742
0.000761601
0.000757395
0.00075313
0.000748812
0.000744447
0.000740038
0.000735592
0.000731114
0.000726607
0.000722077
0.000717528
0.000712965
0.000708392
0.000703812
0.000699229
0.000694648
0.000690071
0.000685502
0.000680945
0.000676402
0.000671877
0.000667371
0.000662889
0.000658432
0.000654002
0.000649602
0.000645235
0.000640901
0.000636603
0.000632342
0.000827926
0.000830475
0.00083171
0.000828236
0.000825282
0.000825574
0.000825026
0.000822554
0.000820135
0.000818179
0.000815994
0.000813431
0.000810698
0.000807862
0.000804888
0.000801766
0.00079851
0.000795132
0.000791639
0.000788036
0.000784331
0.000780529
0.000776638
0.000772662
0.000768609
0.000764484
0.000760293
0.000756042
0.000751735
0.000747378
0.000742977
0.000738536
0.00073406
0.000729555
0.000725024
0.000720472
0.000715903
0.000711322
0.000706733
0.000702139
0.000697544
0.000692953
0.000688367
0.000683791
0.000679227
0.000674679
0.00067015
0.000665642
0.000661158
0.0006567
0.00065227
0.000647872
0.000643505
0.000639174
0.000634879
0.000830497
0.000833021
0.000834152
0.000830717
0.000827933
0.00082821
0.000827572
0.000825136
0.000822795
0.000820864
0.000818685
0.000816147
0.000813448
0.000810643
0.000807698
0.000804604
0.000801378
0.00079803
0.000794565
0.00079099
0.000787311
0.000783534
0.000779667
0.000775714
0.000771681
0.000767575
0.000763401
0.000759165
0.000754871
0.000750526
0.000746134
0.000741699
0.000737228
0.000732725
0.000728194
0.00072364
0.000719067
0.000714479
0.000709881
0.000705276
0.000700668
0.000696061
0.000691457
0.000686862
0.000682277
0.000677706
0.000673152
0.000668617
0.000664105
0.000659617
0.000655156
0.000650724
0.000646324
0.000641957
0.000637626
0.000833208
0.000835707
0.000836734
0.000833342
0.000830727
0.000830986
0.000830265
0.00082787
0.000825605
0.000823699
0.000821529
0.000819019
0.000816357
0.000813586
0.000810672
0.00080761
0.000804417
0.0008011
0.000797667
0.000794122
0.000790473
0.000786724
0.000782883
0.000778956
0.000774947
0.000770863
0.000766708
0.000762489
0.000758211
0.000753879
0.000749497
0.000745072
0.000740607
0.000736107
0.000731578
0.000727022
0.000722446
0.000717852
0.000713246
0.00070863
0.000704009
0.000699387
0.000694766
0.000690151
0.000685545
0.00068095
0.00067637
0.000671808
0.000667266
0.000662748
0.000658254
0.000653788
0.000649352
0.000644949
0.000640579
0.000836048
0.00083852
0.000839443
0.000836101
0.000833652
0.000833891
0.000833091
0.000830741
0.000828552
0.000826671
0.000824514
0.000822036
0.000819413
0.000816677
0.000813798
0.000810771
0.000807613
0.000804332
0.000800933
0.000797422
0.000793805
0.000790088
0.000786276
0.000782377
0.000778394
0.000774334
0.000770202
0.000766004
0.000761743
0.000757426
0.000753058
0.000748643
0.000744186
0.000739692
0.000735166
0.000730611
0.000726032
0.000721434
0.00071682
0.000712195
0.000707561
0.000702924
0.000698287
0.000693652
0.000689024
0.000684406
0.0006798
0.000675209
0.000670637
0.000666087
0.000661559
0.000657058
0.000652585
0.000648143
0.000643733
0.000839003
0.000841447
0.000842268
0.00083898
0.000836696
0.000836911
0.000836038
0.000833738
0.000831624
0.000829768
0.000827628
0.000825185
0.000822603
0.000819906
0.000817063
0.000814076
0.000810956
0.000807713
0.000804352
0.000800877
0.000797296
0.000793613
0.000789834
0.000785966
0.000782013
0.00077798
0.000773873
0.000769697
0.000765458
0.000761159
0.000756806
0.000752404
0.000747958
0.000743471
0.000738949
0.000734397
0.000729817
0.000725216
0.000720596
0.000715962
0.000711317
0.000706666
0.000702012
0.000697358
0.000692709
0.000688066
0.000683434
0.000678815
0.000674213
0.00066963
0.000665068
0.00066053
0.000656019
0.000651537
0.000647086
0.000842063
0.000844477
0.000845196
0.000841968
0.000839845
0.000840034
0.000839095
0.000836849
0.000834808
0.000832979
0.000830859
0.000828454
0.000825917
0.00082326
0.000820458
0.000817512
0.000814434
0.000811232
0.000807911
0.000804477
0.000800934
0.000797289
0.000793547
0.000789712
0.000785792
0.000781789
0.000777711
0.000773561
0.000769344
0.000765066
0.000760732
0.000756345
0.000751912
0.000747435
0.00074292
0.000738372
0.000733794
0.00072919
0.000724566
0.000719924
0.000715269
0.000710605
0.000705935
0.000701263
0.000696593
0.000691927
0.000687269
0.000682622
0.000677988
0.000673372
0.000668775
0.000664201
0.000659651
0.000655128
0.000650634
0.000845215
0.0008476
0.000848217
0.000845054
0.000843089
0.00084325
0.000842251
0.000840062
0.000838094
0.000836292
0.000834196
0.000831833
0.000829342
0.000826729
0.00082397
0.000821068
0.000818035
0.000814878
0.000811601
0.00080821
0.00080471
0.000801105
0.000797402
0.000793606
0.000789721
0.000785752
0.000781705
0.000777584
0.000773394
0.00076914
0.000764826
0.000760458
0.00075604
0.000751575
0.00074707
0.000742528
0.000737953
0.00073335
0.000728723
0.000724076
0.000719412
0.000714736
0.000710052
0.000705362
0.000700671
0.000695982
0.000691299
0.000686623
0.00068196
0.00067731
0.000672678
0.000668066
0.000663477
0.000658912
0.000654375
0.00084845
0.000850803
0.000851321
0.000848227
0.000846417
0.000846548
0.000845496
0.000843367
0.000841471
0.000839697
0.000837628
0.00083531
0.000832868
0.000830302
0.000827589
0.000824735
0.00082175
0.000818641
0.000815411
0.000812067
0.000808612
0.000805052
0.000801392
0.000797636
0.00079379
0.000789859
0.000785846
0.000781758
0.000777597
0.00077337
0.000769081
0.000764734
0.000760334
0.000755885
0.000751391
0.000746858
0.000742289
0.000737688
0.00073306
0.000728409
0.000723739
0.000719052
0.000714355
0.000709649
0.000704939
0.000700228
0.000695519
0.000690816
0.000686122
0.00068144
0.000676773
0.000672123
0.000667494
0.000662887
0.000658306
0.000851757
0.000854078
0.000854497
0.000851478
0.000849818
0.000849917
0.000848818
0.000846754
0.000844928
0.000843183
0.000841145
0.000838876
0.000836485
0.000833968
0.000831305
0.000828501
0.000825568
0.00082251
0.000819331
0.000816037
0.000812631
0.000809119
0.000805505
0.000801794
0.000797991
0.0007941
0.000790126
0.000786073
0.000781946
0.000777749
0.000773487
0.000769165
0.000764786
0.000760355
0.000755876
0.000751354
0.000746794
0.000742198
0.000737572
0.000732919
0.000728243
0.000723549
0.00071884
0.000714119
0.000709391
0.000704659
0.000699927
0.000695197
0.000690473
0.000685759
0.000681057
0.000676369
0.0006717
0.000667051
0.000662425
0.000855126
0.000857414
0.000857737
0.000854797
0.000853283
0.000853347
0.000852209
0.000850213
0.000848455
0.000846741
0.000844738
0.00084252
0.000840183
0.000837718
0.000835107
0.000832358
0.00082948
0.000826476
0.000823352
0.000820111
0.000816758
0.000813297
0.000809733
0.000806071
0.000802314
0.000798467
0.000794535
0.000790521
0.000786431
0.000782268
0.000778037
0.000773742
0.000769388
0.000764978
0.000760517
0.00075601
0.000751461
0.000746873
0.000742251
0.000737598
0.00073292
0.00072822
0.000723501
0.000718767
0.000714023
0.000709272
0.000704517
0.000699761
0.000695009
0.000690263
0.000685526
0.000680802
0.000676093
0.000671401
0.000666731
0.000858549
0.000860803
0.00086103
0.000858175
0.000856801
0.000856831
0.00085566
0.000853734
0.000852043
0.000850361
0.000848397
0.000846233
0.000843952
0.000841542
0.000838988
0.000836296
0.000833475
0.00083053
0.000827463
0.000824279
0.000820982
0.000817577
0.000814067
0.000810457
0.00080675
0.000802951
0.000799064
0.000795094
0.000791044
0.000786918
0.000782722
0.000778458
0.000774132
0.000769747
0.000765308
0.000760819
0.000756283
0.000751706
0.000747091
0.000742442