/*--------------------------------*- C++ -*----------------------------------*\
| =========                 |                                                 |
| \\      /  F ield         | OpenFOAM: The Open Source CFD Toolbox           |
|  \\    /   O peration     | Version:  2412                                  |
|   \\  /    A nd           | Website:  www.openfoam.com                      |
|    \\/     M anipulation  |                                                 |
\*---------------------------------------------------------------------------*/
FoamFile
{
    version     2.0;
    format      ascii;
    arch        "LSB;label=32;scalar=64";
    class       volScalarField;
    location    "12.5";
    object      p;
}
// * * * * * * * * * * * * * * * * * * * * * * * * * * * * * * * * * * * * * //

dimensions      [0 2 -2 0 0 0 0];

internalField   nonuniform List<scalar> 
63420
(
0.000986404
0.000986662
0.000987479
0.000988745
0.00099044
0.000992552
0.000995065
0.00099796
0.00100122
0.00100483
0.00100879
0.00101309
0.00101772
0.00102268
0.00102798
0.00103361
0.00103956
0.00104585
0.00105245
0.00105939
0.00106665
0.00107424
0.00108216
0.0010904
0.00109897
0.00110788
0.00111712
0.0011267
0.00113662
0.00114687
0.00115748
0.00116843
0.00117973
0.00119139
0.00120341
0.00121579
0.00122853
0.00124165
0.00125514
0.00126901
0.00128326
0.0012979
0.00131294
0.00132837
0.0013442
0.00136044
0.00137709
0.00139415
0.00141163
0.00142954
0.00144789
0.00146666
0.00148588
0.00150554
0.00152566
0.000986344
0.000986603
0.000987419
0.000988684
0.000990378
0.000992488
0.000994999
0.000997892
0.00100115
0.00100476
0.00100872
0.00101301
0.00101764
0.0010226
0.00102789
0.00103351
0.00103946
0.00104574
0.00105234
0.00105927
0.00106653
0.00107411
0.00108202
0.00109025
0.00109882
0.00110772
0.00111695
0.00112651
0.00113642
0.00114667
0.00115726
0.00116819
0.00117948
0.00119113
0.00120313
0.00121549
0.00122822
0.00124131
0.00125478
0.00126863
0.00128286
0.00129748
0.00131249
0.00132789
0.00134369
0.0013599
0.00137652
0.00139355
0.00141099
0.00142886
0.00144716
0.0014659
0.00148507
0.00150468
0.00152474
0.000986225
0.000986483
0.000987298
0.000988562
0.000990253
0.000992361
0.000994867
0.000997756
0.00100101
0.00100462
0.00100856
0.00101285
0.00101747
0.00102242
0.00102771
0.00103332
0.00103926
0.00104553
0.00105212
0.00105904
0.00106628
0.00107385
0.00108174
0.00108996
0.00109851
0.00110739
0.0011166
0.00112614
0.00113603
0.00114625
0.00115681
0.00116772
0.00117899
0.0011906
0.00120257
0.0012149
0.00122759
0.00124065
0.00125408
0.00126788
0.00128207
0.00129663
0.00131159
0.00132694
0.00134268
0.00135883
0.00137538
0.00139234
0.00140971
0.00142751
0.00144572
0.00146437
0.00148345
0.00150296
0.00152292
0.000986047
0.000986305
0.000987118
0.000988379
0.000990066
0.000992169
0.00099467
0.000997552
0.0010008
0.0010044
0.00100834
0.00101261
0.00101722
0.00102217
0.00102744
0.00103304
0.00103896
0.00104521
0.00105179
0.00105868
0.00106591
0.00107345
0.00108132
0.00108952
0.00109804
0.00110689
0.00111607
0.00112559
0.00113544
0.00114562
0.00115615
0.00116702
0.00117824
0.00118981
0.00120173
0.00121401
0.00122664
0.00123965
0.00125301
0.00126675
0.00128087
0.00129537
0.00131025
0.00132551
0.00134117
0.00135722
0.00137368
0.00139053
0.0014078
0.00142548
0.00144357
0.00146208
0.00148102
0.00150039
0.00152019
0.000985809
0.000986066
0.000986877
0.000988134
0.000989817
0.000991914
0.000994407
0.00099728
0.00100052
0.0010041
0.00100803
0.0010123
0.00101689
0.00102182
0.00102707
0.00103266
0.00103856
0.00104479
0.00105134
0.00105821
0.00106541
0.00107293
0.00108077
0.00108893
0.00109742
0.00110623
0.00111537
0.00112485
0.00113465
0.00114479
0.00115527
0.00116609
0.00117725
0.00118876
0.00120061
0.00121282
0.00122539
0.00123831
0.0012516
0.00126526
0.00127928
0.00129368
0.00130846
0.00132362
0.00133916
0.00135509
0.00137142
0.00138814
0.00140526
0.00142278
0.00144071
0.00145905
0.00147781
0.00149698
0.00151657
0.000985513
0.000985769
0.000986576
0.000987829
0.000989506
0.000991595
0.000994079
0.000996942
0.00100017
0.00100374
0.00100765
0.0010119
0.00101648
0.00102139
0.00102662
0.00103218
0.00103806
0.00104426
0.00105079
0.00105763
0.00106479
0.00107227
0.00108007
0.0010882
0.00109664
0.00110541
0.0011145
0.00112393
0.00113368
0.00114376
0.00115417
0.00116492
0.00117601
0.00118745
0.00119922
0.00121135
0.00122383
0.00123666
0.00124985
0.00126339
0.00127731
0.00129159
0.00130624
0.00132126
0.00133666
0.00135244
0.00136861
0.00138516
0.0014021
0.00141943
0.00143716
0.00145529
0.00147382
0.00149275
0.00151208
0.000985157
0.000985412
0.000986216
0.000987464
0.000989133
0.000991213
0.000993686
0.000996535
0.000999746
0.0010033
0.0010072
0.00101143
0.00101599
0.00102087
0.00102608
0.00103161
0.00103746
0.00104363
0.00105012
0.00105693
0.00106405
0.00107149
0.00107925
0.00108732
0.00109571
0.00110443
0.00111346
0.00112282
0.00113251
0.00114252
0.00115286
0.00116353
0.00117454
0.00118588
0.00119756
0.00120959
0.00122196
0.00123468
0.00124775
0.00126117
0.00127495
0.00128908
0.00130358
0.00131845
0.00133368
0.00134928
0.00136526
0.00138161
0.00139834
0.00141544
0.00143294
0.00145081
0.00146907
0.00148772
0.00150674
0.00154629
0.00156765
0.00158993
0.0016132
0.00163751
0.00166291
0.00168948
0.00171728
0.0017464
0.00177693
0.00180895
0.00184256
0.00187788
0.00191501
0.0019541
0.00199527
0.00203868
0.00208449
0.0021329
0.0021841
0.00223831
0.00229578
0.00235678
0.00242161
0.00249061
0.00256413
0.00264259
0.00272644
0.00281618
0.00291235
0.00301556
0.0031265
0.00324589
0.00337453
0.0035133
0.00366312
0.00382493
0.00399967
0.00418817
0.00439101
0.00460829
0.00483936
0.00508238
0.00533404
0.00558979
0.00584471
0.00609387
0.006343
0.00666076
0.00714294
0.00154534
0.00156668
0.001589
0.00161227
0.00163656
0.00166196
0.00168852
0.00171632
0.00174544
0.00177596
0.00180797
0.00184158
0.00187688
0.001914
0.00195307
0.00199422
0.0020376
0.00208339
0.00213176
0.00218291
0.00223707
0.00229447
0.00235539
0.00242012
0.00248898
0.00256235
0.00264061
0.00272421
0.00281364
0.00290942
0.00301214
0.00312245
0.00324105
0.00336868
0.00350614
0.00365428
0.00381391
0.00398582
0.00417062
0.0043686
0.00457952
0.00480223
0.00503426
0.00527155
0.00550859
0.00573946
0.00595866
0.00617104
0.00644091
0.00685709
0.00154348
0.00156486
0.00158712
0.00161037
0.00163466
0.00166005
0.00168661
0.0017144
0.00174351
0.00177401
0.00180601
0.0018396
0.00187488
0.00191198
0.00195101
0.00199212
0.00203546
0.00208118
0.00212948
0.00218054
0.00223459
0.00229186
0.00235261
0.00241714
0.00248576
0.00255881
0.00263669
0.0027198
0.00280862
0.00290363
0.00300538
0.00311446
0.00323149
0.00335712
0.00349202
0.00363684
0.00379217
0.00395847
0.00413592
0.00432426
0.00452247
0.0047284
0.00493836
0.00514668
0.00534594
0.00552818
0.00568698
0.00582564
0.00599548
0.00629265
0.00154066
0.00156202
0.00158428
0.00160752
0.0016318
0.00165718
0.00168372
0.0017115
0.00174059
0.00177108
0.00180305
0.00183661
0.00187186
0.00190891
0.00194789
0.00198893
0.00203219
0.00207782
0.002126
0.00217692
0.0022308
0.00228786
0.00234836
0.00241257
0.00248079
0.00255336
0.00263064
0.002713
0.00280088
0.00289472
0.00299499
0.0031022
0.00321685
0.00333945
0.00347047
0.00361029
0.00375916
0.00391706
0.00408353
0.00425747
0.00443672
0.00461767
0.00479469
0.00495978
0.00510266
0.00521219
0.00528043
0.00531207
0.00534267
0.00542988
0.00153692
0.00155827
0.00158053
0.00160376
0.00162803
0.0016534
0.00167993
0.00170769
0.00173677
0.00176723
0.00179918
0.00183271
0.00186792
0.00190492
0.00194384
0.00198481
0.00202797
0.00207349
0.00212153
0.00217228
0.00222594
0.00228274
0.00234291
0.00240672
0.00247444
0.00254638
0.00262287
0.00270425
0.00279089
0.00288317
0.00298147
0.00308617
0.00319763
0.00331615
0.00344193
0.003575
0.00371511
0.00386162
0.0040132
0.00416762
0.00432121
0.00446842
0.00460115
0.00470835
0.00477615
0.00478924
0.00473669
0.00462639
0.00448291
0.00424613
0.00153228
0.00155363
0.00157589
0.00159914
0.00162342
0.00164881
0.00167536
0.00170315
0.00173225
0.00176275
0.00179473
0.00182828
0.00186352
0.00190054
0.00193948
0.00198047
0.00202364
0.00206915
0.00211717
0.00216789
0.0022215
0.00227821
0.00233825
0.00240188
0.00246934
0.00254093
0.00261693
0.00269764
0.00278338
0.00287445
0.00297114
0.00307369
0.00318229
0.00329699
0.00341764
0.00354379
0.00367453
0.00380826
0.00394233
0.00407266
0.00419314
0.00429496
0.00436597
0.00439027
0.00434851
0.0042198
0.00398837
0.00366301
0.00326044
0.00258602
0.00152673
0.001548
0.00157021
0.0015934
0.00161763
0.00164297
0.00166947
0.00169721
0.00172626
0.0017567
0.00178863
0.00182212
0.0018573
0.00189426
0.00193312
0.00197402
0.0020171
0.00206251
0.00211041
0.00216099
0.00221444
0.00227096
0.00233077
0.00239411
0.00246122
0.00253236
0.00260778
0.00268775
0.00277252
0.00286234
0.00295739
0.00305778
0.00316353
0.00327445
0.00339002
0.0035093
0.0036306
0.00375121
0.00386685
0.00397104
0.00405429
0.0041032
0.00409974
0.00402112
0.00384066
0.00352949
0.00306788
0.00246967
0.00170046
0.000457287
-0.00337026
-0.00342438
-0.00341252
-0.00334863
-0.0032455
-0.00311084
-0.00294646
-0.00275751
-0.00254973
-0.00232902
-0.00210152
-0.00187291
-0.0016482
-0.00143168
-0.00122685
-0.00103633
-0.000861949
-0.000704749
-0.000565109
-0.000442838
-0.000337294
-0.000247494
-0.000172218
-0.000110099
-5.97005e-05
-1.95864e-05
1.1635e-05
3.52796e-05
5.25603e-05
6.45703e-05
7.22782e-05
7.65289e-05
7.8048e-05
7.74498e-05
7.52479e-05
7.18653e-05
6.76464e-05
6.28675e-05
5.77474e-05
5.24567e-05
4.71261e-05
4.18539e-05
3.67124e-05
3.17527e-05
2.70099e-05
2.25061e-05
1.82539e-05
1.42583e-05
1.05188e-05
7.03132e-06
-0.00347119
-0.00349903
-0.00347143
-0.0033986
-0.00329032
-0.00315218
-0.00298603
-0.00279531
-0.00258688
-0.00236542
-0.00213708
-0.00190749
-0.00168157
-0.00146363
-0.00125718
-0.00106489
-0.000888623
-0.000729486
-0.000587896
-0.000463704
-0.000356298
-0.00026472
-0.000187767
-0.000124085
-7.22391e-05
-3.07987e-05
1.63028e-06
2.6369e-05
4.46364e-05
5.75325e-05
6.60333e-05
7.09915e-05
7.31401e-05
7.31012e-05
7.13951e-05
6.84514e-05
6.46205e-05
6.01844e-05
5.53669e-05
5.03432e-05
4.52481e-05
4.01837e-05
3.52254e-05
3.04275e-05
2.58276e-05
2.14502e-05
1.73099e-05
1.34137e-05
9.76241e-06
6.35432e-06
-0.00367433
-0.0036441
-0.00358696
-0.00349682
-0.00337696
-0.00323267
-0.00305994
-0.00286826
-0.00265818
-0.00243533
-0.00220562
-0.00197431
-0.00174623
-0.00152567
-0.00131619
-0.00112056
-0.000940728
-0.000777888
-0.000632554
-0.000504654
-0.00039364
-0.000298607
-0.000218386
-0.000151644
-9.69685e-05
-5.29259e-05
-1.8123e-05
8.76917e-06
2.89807e-05
4.36242e-05
5.36902e-05
6.00456e-05
6.34384e-05
6.45049e-05
6.37791e-05
6.17034e-05
5.86401e-05
5.48821e-05
5.0663e-05
4.61672e-05
4.15377e-05
3.68838e-05
3.22875e-05
2.78091e-05
2.34913e-05
1.93633e-05
1.54438e-05
1.17434e-05
8.26594e-06
5.01428e-06
-0.00398491
-0.00385043
-0.0037569
-0.00364131
-0.00349256
-0.00334238
-0.00316698
-0.00297124
-0.0027588
-0.0025344
-0.00230295
-0.00206935
-0.00183836
-0.00161424
-0.00140061
-0.00120034
-0.00101551
-0.000847461
-0.000696832
-0.000563666
-0.000447514
-0.000347541
-0.00026264
-0.000191513
-0.000132765
-8.4977e-05
-4.67524e-05
-1.67521e-05
6.26802e-06
2.34383e-05
3.57686e-05
4.41467e-05
4.93415e-05
5.20095e-05
5.27043e-05
5.18869e-05
4.99364e-05
4.71616e-05
4.38104e-05
4.00802e-05
3.61259e-05
3.20673e-05
2.79961e-05
2.3981e-05
2.00723e-05
1.63059e-05
1.27065e-05
9.28986e-06
6.06461e-06
3.04014e-06
-0.00436727
-0.00411971
-0.00396924
-0.00381145
-0.00365305
-0.00348257
-0.00329685
-0.00309553
-0.00288016
-0.00265379
-0.00242041
-0.00218447
-0.00195046
-0.00172257
-0.00150442
-0.00129899
-0.0011085
-0.000934437
-0.0007776
-0.000638181
-0.000515852
-0.000409885
-0.000319245
-0.000242694
-0.000178876
-0.000126387
-8.38388e-05
-4.98893e-05
-2.32813e-05
-2.86775e-06
1.23815e-05
2.33771e-05
3.09117e-05
3.56656e-05
3.82153e-05
3.90439e-05
3.85513e-05
3.70658e-05
3.48534e-05
3.21281e-05
2.90597e-05
2.57821e-05
2.23992e-05
1.89909e-05
1.56175e-05
1.23238e-05
9.14225e-06
6.0954e-06
3.19855e-06
4.69053e-07
-0.00476999
-0.00444539
-0.00421994
-0.00402493
-0.00382551
-0.00363097
-0.0034316
-0.00322284
-0.00300409
-0.00277663
-0.00254317
-0.00230723
-0.00207269
-0.00184338
-0.00162278
-0.00141385
-0.00121891
-0.0010396
-0.000876908
-0.000731206
-0.000602355
-0.000489786
-0.000392606
-0.000309683
-0.000239745
-0.000181457
-0.000133465
-9.44517e-05
-6.31693e-05
-3.8471e-05
-1.93176e-05
-4.78372e-06
5.94208e-06
1.35615e-05
1.8674e-05
2.17861e-05
2.33216e-05
2.36317e-05
2.3005e-05
2.16765e-05
1.98366e-05
1.76375e-05
1.52007e-05
1.26219e-05
9.97556e-06
7.31945e-06
4.69734e-06
2.14172e-06
-3.22624e-07
-2.67077e-06
-0.00515134
-0.00483064
-0.00456043
-0.00429349
-0.00405148
-0.00382749
-0.00360786
-0.0033865
-0.00316061
-0.00292942
-0.00269397
-0.0024566
-0.00222034
-0.00198851
-0.00176435
-0.00155076
-0.00135012
-0.00116425
-0.000994316
-0.000840919
-0.000704124
-0.000583554
-0.000478465
-0.000387867
-0.000310589
-0.000245363
-0.000190879
-0.000145847
-0.000109027
-7.92713e-05
-5.55272e-05
-3.68497e-05
-2.24027e-05
-1.1457e-05
-3.38353e-06
2.35433e-06
6.21032e-06
8.56485e-06
9.73452e-06
9.98097e-06
9.51905e-06
8.52416e-06
7.13855e-06
5.47685e-06
3.63075e-06
1.67299e-06
-3.39333e-07
-2.36215e-06
-4.36086e-06
-6.3069e-06
3.78186e-06
7.15502e-07
-2.17821e-06
-4.89238e-06
-7.42874e-06
-9.79005e-06
-1.19792e-05
-1.39999e-05
-1.58567e-05
-1.75548e-05
-1.90996e-05
-2.0497e-05
-2.17528e-05
-2.28731e-05
-2.38637e-05
-2.47304e-05
-2.54786e-05
-2.61133e-05
-2.66395e-05
-2.70616e-05
-2.7384e-05
-2.76111e-05
-2.77473e-05
-2.77974e-05
-2.77661e-05
-2.76588e-05
-2.74808e-05
-2.72374e-05
-2.69342e-05
-2.65764e-05
-2.61694e-05
-2.5718e-05
-2.52269e-05
-2.47006e-05
-2.41432e-05
-2.35587e-05
-2.29507e-05
-2.23225e-05
-2.16775e-05
-2.10187e-05
-2.0349e-05
-1.96711e-05
-1.89876e-05
-1.83006e-05
-1.76129e-05
-1.69265e-05
-1.62429e-05
-1.55644e-05
-1.48926e-05
-1.4229e-05
-1.35752e-05
-1.29324e-05
-1.23018e-05
-1.16845e-05
-1.10814e-05
-1.04936e-05
-9.92169e-06
-9.36628e-06
-8.82793e-06
-8.30714e-06
-7.80431e-06
-7.31968e-06
-6.85343e-06
-6.40568e-06
-5.97648e-06
-5.56583e-06
-5.17363e-06
-4.79971e-06
-4.44384e-06
-4.10579e-06
-3.78528e-06
-3.48192e-06
-3.19529e-06
-2.92496e-06
-2.6705e-06
-2.43147e-06
-2.20738e-06
-1.99768e-06
-1.80184e-06
-1.61927e-06
-1.44937e-06
-1.29152e-06
-1.14515e-06
-1.00978e-06
-8.84821e-07
-7.69775e-07
-6.63705e-07
-5.66734e-07
-4.76778e-07
-3.969e-07
-3.19148e-07
-2.58551e-07
-1.82937e-07
-1.53848e-07
-5.21094e-08
-9.67862e-08
1.05615e-07
-1.24108e-07
3.47348e-07
-2.96212e-07
7.40961e-07
-6.5672e-07
1.28949e-06
-1.11977e-06
1.79533e-06
-1.3461e-06
1.80719e-06
-8.32688e-07
9.07017e-07
5.9804e-07
-6.84818e-07
2.25116e-06
-1.8624e-06
2.8083e-06
-1.42006e-06
3.18617e-06
1.73063e-07
-2.67373e-06
-5.34236e-06
-7.83662e-06
-1.01597e-05
-1.23139e-05
-1.43028e-05
-1.61307e-05
-1.78024e-05
-1.93232e-05
-2.06986e-05
-2.19344e-05
-2.30364e-05
-2.40103e-05
-2.48616e-05
-2.55958e-05
-2.62177e-05
-2.67321e-05
-2.71436e-05
-2.74563e-05
-2.76746e-05
-2.7803e-05
-2.78461e-05
-2.78086e-05
-2.76958e-05
-2.75128e-05
-2.72652e-05
-2.69581e-05
-2.6597e-05
-2.61869e-05
-2.57328e-05
-2.52394e-05
-2.4711e-05
-2.41518e-05
-2.35656e-05
-2.29561e-05
-2.23267e-05
-2.16805e-05
-2.10207e-05
-2.03502e-05
-1.96715e-05
-1.89873e-05
-1.82997e-05
-1.76117e-05
-1.69249e-05
-1.62409e-05
-1.55621e-05
-1.48901e-05
-1.42264e-05
-1.35724e-05
-1.29296e-05
-1.22989e-05
-1.16816e-05
-1.10786e-05
-1.04908e-05
-9.91889e-06
-9.36354e-06
-8.82526e-06
-8.30455e-06
-7.80181e-06
-7.31728e-06
-6.85114e-06
-6.40349e-06
-5.97439e-06
-5.56385e-06
-5.17176e-06
-4.79793e-06
-4.44217e-06
-4.10423e-06
-3.78382e-06
-3.48055e-06
-3.19402e-06
-2.92378e-06
-2.66941e-06
-2.43047e-06
-2.20645e-06
-1.99683e-06
-1.80105e-06
-1.61855e-06
-1.44871e-06
-1.29091e-06
-1.1446e-06
-1.00928e-06
-8.84377e-07
-7.69374e-07
-6.63346e-07
-5.66412e-07
-4.76496e-07
-3.96644e-07
-3.18931e-07
-2.58331e-07
-1.82767e-07
-1.53648e-07
-5.19857e-08
-9.66112e-08
1.05685e-07
-1.23942e-07
3.47329e-07
-2.96026e-07
7.40859e-07
-6.56544e-07
1.28937e-06
-1.11965e-06
1.7953e-06
-1.34616e-06
1.80733e-06
-8.32902e-07
9.07286e-07
5.97802e-07
-6.84588e-07
2.25103e-06
-1.86229e-06
2.80819e-06
-1.42091e-06
2.00205e-06
-9.05225e-07
-3.65811e-06
-6.23625e-06
-8.64706e-06
-1.08942e-05
-1.29793e-05
-1.49051e-05
-1.66755e-05
-1.82948e-05
-1.97678e-05
-2.10996e-05
-2.22956e-05
-2.33613e-05
-2.43019e-05
-2.51228e-05
-2.5829e-05
-2.64255e-05
-2.69166e-05
-2.73069e-05
-2.76004e-05
-2.78014e-05
-2.79141e-05
-2.79432e-05
-2.78933e-05
-2.77695e-05
-2.75768e-05
-2.73205e-05
-2.70058e-05
-2.66379e-05
-2.62219e-05
-2.57625e-05
-2.52644e-05
-2.47318e-05
-2.41689e-05
-2.35794e-05
-2.2967e-05
-2.23349e-05
-2.16865e-05
-2.10248e-05
-2.03524e-05
-1.96723e-05
-1.89868e-05
-1.82981e-05
-1.76091e-05
-1.69215e-05
-1.6237e-05
-1.55577e-05
-1.48852e-05
-1.42212e-05
-1.3567e-05
-1.29239e-05
-1.22932e-05
-1.16758e-05
-1.10728e-05
-1.04851e-05
-9.91329e-06
-9.35806e-06
-8.81993e-06
-8.29939e-06
-7.79683e-06
-7.31249e-06
-6.84655e-06
-6.39912e-06
-5.97024e-06
-5.55991e-06
-5.16802e-06
-4.79441e-06
-4.43886e-06
-4.10113e-06
-3.78091e-06
-3.47783e-06
-3.19149e-06
-2.92144e-06
-2.66725e-06
-2.42847e-06
-2.20461e-06
-1.99514e-06
-1.79949e-06
-1.61711e-06
-1.44739e-06
-1.28972e-06
-1.14353e-06
-1.00832e-06
-8.83504e-07
-7.68578e-07
-6.62628e-07
-5.65776e-07
-4.75944e-07
-3.96159e-07
-3.185e-07
-2.57922e-07
-1.82406e-07
-1.5328e-07
-5.17168e-08
-9.62715e-08
1.05815e-07
-1.23601e-07
3.47288e-07
-2.95664e-07
7.40653e-07
-6.56187e-07
1.28911e-06
-1.11944e-06
1.79521e-06
-1.34627e-06
1.80758e-06
-8.33333e-07
9.07797e-07
5.97304e-07
-6.84116e-07
2.25076e-06
-1.86204e-06
2.80793e-06
-1.42254e-06
2.4493e-07
-2.50596e-06
-5.11814e-06
-7.56214e-06
-9.84955e-06
-1.19844e-05
-1.39671e-05
-1.57996e-05
-1.74848e-05
-1.90264e-05
-2.04286e-05
-2.16958e-05
-2.28328e-05
-2.38444e-05
-2.47356e-05
-2.55113e-05
-2.61762e-05
-2.67347e-05
-2.71913e-05
-2.75501e-05
-2.78151e-05
-2.79903e-05
-2.80798e-05
-2.80881e-05
-2.80198e-05
-2.78795e-05
-2.76723e-05
-2.74031e-05
-2.70771e-05
-2.66991e-05
-2.62742e-05
-2.58069e-05
-2.53017e-05
-2.47629e-05
-2.41944e-05
-2.36e-05
-2.29831e-05
-2.23473e-05
-2.16954e-05
-2.10307e-05
-2.03558e-05
-1.96734e-05
-1.8986e-05
-1.82957e-05
-1.76053e-05
-1.69165e-05
-1.6231e-05
-1.55509e-05
-1.48779e-05
-1.42133e-05
-1.35588e-05
-1.29155e-05
-1.22847e-05
-1.16672e-05
-1.10643e-05
-1.04766e-05
-9.90492e-06
-9.34987e-06
-8.81196e-06
-8.29167e-06
-7.78937e-06
-7.30533e-06
-6.83969e-06
-6.39257e-06
-5.96402e-06
-5.55401e-06
-5.16244e-06
-4.78914e-06
-4.43391e-06
-4.09648e-06
-3.77656e-06
-3.47377e-06
-3.18771e-06
-2.91793e-06
-2.664e-06
-2.42548e-06
-2.20185e-06
-1.99259e-06
-1.79716e-06
-1.61497e-06
-1.44543e-06
-1.28793e-06
-1.14192e-06
-1.00687e-06
-8.82191e-07
-7.67385e-07
-6.61555e-07
-5.64821e-07
-4.75106e-07
-3.95415e-07
-3.17843e-07
-2.57307e-07
-1.81878e-07
-1.52744e-07
-5.13354e-08
-9.57838e-08
1.05997e-07
-1.23107e-07
3.47227e-07
-2.95126e-07
7.40363e-07
-6.55654e-07
1.28877e-06
-1.11912e-06
1.79514e-06
-1.34643e-06
1.80801e-06
-8.33993e-07
9.0858e-07
5.96556e-07
-6.83425e-07
2.25036e-06
-1.86169e-06
2.80755e-06
-1.42487e-06
-2.06227e-06
-4.60899e-06
-7.03449e-06
-9.30262e-06
-1.14288e-05
-1.34168e-05
-1.52655e-05
-1.69757e-05
-1.85494e-05
-1.99892e-05
-2.12985e-05
-2.24809e-05
-2.35403e-05
-2.4481e-05
-2.53072e-05
-2.60235e-05
-2.66339e-05
-2.71427e-05
-2.75539e-05
-2.78712e-05
-2.80986e-05
-2.82399e-05
-2.82989e-05
-2.82799e-05
-2.81871e-05
-2.80252e-05
-2.77987e-05
-2.75126e-05
-2.71715e-05
-2.67802e-05
-2.63435e-05
-2.58657e-05
-2.53512e-05
-2.4804e-05
-2.42281e-05
-2.36271e-05
-2.30045e-05
-2.23635e-05
-2.17072e-05
-2.10385e-05
-2.03601e-05
-1.96747e-05
-1.89848e-05
-1.82924e-05
-1.76001e-05
-1.69098e-05
-1.6223e-05
-1.55419e-05
-1.4868e-05
-1.42029e-05
-1.35479e-05
-1.29043e-05
-1.22733e-05
-1.16558e-05
-1.10528e-05
-1.04653e-05
-9.89377e-06
-9.33895e-06
-8.80133e-06
-8.28137e-06
-7.77944e-06
-7.29578e-06
-6.83055e-06
-6.38385e-06
-5.95572e-06
-5.54614e-06
-5.155e-06
-4.78212e-06
-4.42731e-06
-4.09029e-06
-3.77077e-06
-3.46836e-06
-3.18267e-06
-2.91326e-06
-2.65968e-06
-2.42148e-06
-2.19817e-06
-1.9892e-06
-1.79404e-06
-1.61211e-06
-1.44282e-06
-1.28556e-06
-1.13978e-06
-1.00493e-06
-8.80438e-07
-7.65798e-07
-6.60128e-07
-5.63546e-07
-4.73981e-07
-3.94412e-07
-3.1696e-07
-2.56487e-07
-1.8118e-07
-1.52043e-07
-5.08391e-08
-9.51522e-08
1.06237e-07
-1.22471e-07
3.47164e-07
-2.94443e-07
7.40033e-07
-6.55005e-07
1.28842e-06
-1.1188e-06
1.79517e-06
-1.34677e-06
1.8087e-06
-8.34954e-07
9.09669e-07
5.95568e-07
-6.82568e-07
2.24991e-06
-1.86132e-06
2.80713e-06
-1.42783e-06
-4.89214e-06
-7.18683e-06
-9.38157e-06
-1.1435e-05
-1.3365e-05
-1.5174e-05
-1.68592e-05
-1.84201e-05
-1.98574e-05
-2.11728e-05
-2.23683e-05
-2.34467e-05
-2.4411e-05
-2.52646e-05
-2.60112e-05
-2.66544e-05
-2.71981e-05
-2.76457e-05
-2.80011e-05
-2.82676e-05
-2.84488e-05
-2.85483e-05
-2.85698e-05
-2.85171e-05
-2.83944e-05
-2.82057e-05
-2.79555e-05
-2.76483e-05
-2.72886e-05
-2.68808e-05
-2.64293e-05
-2.59385e-05
-2.54124e-05
-2.48549e-05
-2.42698e-05
-2.36607e-05
-2.30309e-05
-2.23835e-05
-2.17216e-05
-2.1048e-05
-2.03654e-05
-1.96763e-05
-1.89832e-05
-1.82881e-05
-1.75935e-05
-1.69013e-05
-1.6213e-05
-1.55305e-05
-1.48557e-05
-1.41898e-05
-1.35342e-05
-1.28903e-05
-1.2259e-05
-1.16414e-05
-1.10385e-05
-1.04511e-05
-9.87982e-06
-9.3253e-06
-8.78805e-06
-8.26851e-06
-7.76703e-06
-7.28385e-06
-6.81913e-06
-6.37296e-06
-5.94536e-06
-5.53631e-06
-5.1457e-06
-4.77336e-06
-4.41906e-06
-4.08256e-06
-3.76353e-06
-3.46161e-06
-3.17639e-06
-2.90742e-06
-2.65428e-06
-2.4165e-06
-2.19357e-06
-1.98497e-06
-1.79016e-06
-1.60855e-06
-1.43957e-06
-1.2826e-06
-1.1371e-06
-1.00251e-06
-8.78247e-07
-7.63817e-07
-6.58346e-07
-5.61952e-07
-4.72571e-07
-3.93152e-07
-3.15853e-07
-2.55462e-07
-1.80316e-07
-1.51176e-07
-5.02312e-08
-9.43709e-08
1.06527e-07
-1.21679e-07
3.47079e-07
-2.93582e-07
7.39616e-07
-6.54175e-07
1.28797e-06
-1.11837e-06
1.7952e-06
-1.34716e-06
1.80955e-06
-8.36134e-07
9.11019e-07
5.94335e-07
-6.81486e-07
2.24932e-06
-1.86079e-06
2.80652e-06
-1.43109e-06
-8.20435e-06
-1.02054e-05
-1.2127e-05
-1.39323e-05
-1.56349e-05
-1.72357e-05
-1.87305e-05
-2.01173e-05
-2.13954e-05
-2.25652e-05
-2.36276e-05
-2.45841e-05
-2.54369e-05
-2.61884e-05
-2.68414e-05
-2.73989e-05
-2.7864e-05
-2.82398e-05
-2.85296e-05
-2.87363e-05
-2.88633e-05
-2.89137e-05
-2.88909e-05
-2.87986e-05
-2.86403e-05
-2.84201e-05
-2.81418e-05
-2.78096e-05
-2.74277e-05
-2.70003e-05
-2.65313e-05
-2.60249e-05
-2.5485e-05
-2.49152e-05
-2.43192e-05
-2.37004e-05
-2.3062e-05
-2.2407e-05
-2.17385e-05
-2.10591e-05
-2.03714e-05
-1.9678e-05
-1.89811e-05
-1.82827e-05
-1.75855e-05
-1.6891e-05
-1.62008e-05
-1.55169e-05
-1.48408e-05
-1.4174e-05
-1.35178e-05
-1.28734e-05
-1.22418e-05
-1.16242e-05
-1.10214e-05
-1.04341e-05
-9.86309e-06
-9.30892e-06
-8.77211e-06
-8.25307e-06
-7.75214e-06
-7.26955e-06
-6.80543e-06
-6.35989e-06
-5.93293e-06
-5.52453e-06
-5.13456e-06
-4.76285e-06
-4.40918e-06
-4.07329e-06
-3.75486e-06
-3.45351e-06
-3.16885e-06
-2.90043e-06
-2.64781e-06
-2.41051e-06
-2.18805e-06
-1.9799e-06
-1.7855e-06
-1.60428e-06
-1.43567e-06
-1.27906e-06
-1.13389e-06
-9.99605e-07
-8.75618e-07
-7.61442e-07
-6.56211e-07
-5.60039e-07
-4.70876e-07
-3.91634e-07
-3.14523e-07
-2.54228e-07
-1.79294e-07
-1.50123e-07
-4.95466e-08
-9.33799e-08
1.06765e-07
-1.2057e-07
3.46719e-07
-2.92172e-07
7.38588e-07
-6.52462e-07
1.28652e-06
-1.11676e-06
1.79403e-06
-1.3464e-06
1.80946e-06
-8.36715e-07
9.12234e-07
5.92733e-07
-6.7952e-07
2.24746e-06
-1.85872e-06
2.80436e-06
-1.43327e-06
-1.20684e-05
-1.37192e-05
-1.53144e-05
-1.68338e-05
-1.82757e-05
-1.96369e-05
-2.0912e-05
-2.20975e-05
-2.31913e-05
-2.41923e-05
-2.51e-05
-2.59149e-05
-2.66378e-05
-2.72703e-05
-2.78142e-05
-2.82717e-05
-2.86452e-05
-2.89372e-05
-2.91504e-05
-2.92874e-05
-2.9351e-05
-2.93441e-05
-2.92696e-05
-2.91307e-05
-2.89308e-05
-2.86734e-05
-2.8362e-05
-2.80004e-05
-2.75923e-05
-2.71415e-05
-2.66519e-05
-2.6127e-05
-2.55707e-05
-2.49863e-05
-2.43774e-05
-2.37471e-05
-2.30985e-05
-2.24346e-05
-2.17582e-05
-2.10719e-05
-2.03782e-05
-1.96796e-05
-1.89783e-05
-1.82761e-05
-1.75756e-05
-1.68785e-05
-1.61861e-05
-1.55004e-05
-1.48229e-05
-1.4155e-05
-1.3498e-05
-1.28531e-05
-1.22213e-05
-1.16036e-05
-1.10008e-05
-1.04137e-05
-9.84308e-06
-9.28935e-06
-8.75307e-06
-8.23463e-06
-7.73436e-06
-7.25246e-06
-6.78907e-06
-6.34428e-06
-5.91809e-06
-5.51045e-06
-5.12125e-06
-4.7503e-06
-4.39738e-06
-4.06222e-06
-3.7445e-06
-3.44385e-06
-3.15986e-06
-2.89208e-06
-2.64008e-06
-2.40337e-06
-2.18147e-06
-1.97384e-06
-1.77994e-06
-1.59919e-06
-1.43102e-06
-1.27483e-06
-1.13005e-06
-9.96133e-07
-8.72479e-07
-7.58607e-07
-6.53663e-07
-5.57755e-07
-4.68851e-07
-3.89814e-07
-3.12938e-07
-2.52745e-07
-1.78097e-07
-1.48838e-07
-4.87981e-08
-9.2097e-08
1.06865e-07
-1.18961e-07
3.4584e-07
-2.89824e-07
7.36421e-07
-6.49142e-07
1.28319e-06
-1.11289e-06
1.79048e-06
-1.34328e-06
1.80738e-06
-8.3593e-07
9.12987e-07
5.90555e-07
-6.7592e-07
2.24317e-06
-1.85366e-06
2.79923e-06
-1.43306e-06
-1.64288e-05
-1.76934e-05
-1.89344e-05
-2.01336e-05
-2.12823e-05
-2.23734e-05
-2.34006e-05
-2.43586e-05
-2.52436e-05
-2.60531e-05
-2.67851e-05
-2.74387e-05
-2.80138e-05
-2.85106e-05
-2.893e-05
-2.92734e-05
-2.95424e-05
-2.97387e-05
-2.98644e-05
-2.99217e-05
-2.99128e-05
-2.98401e-05
-2.97064e-05
-2.95142e-05
-2.92665e-05
-2.89663e-05
-2.86167e-05
-2.8221e-05
-2.77827e-05
-2.73049e-05
-2.67912e-05
-2.6245e-05
-2.56696e-05
-2.50684e-05
-2.44444e-05
-2.38007e-05
-2.31404e-05
-2.24661e-05
-2.17805e-05
-2.10862e-05
-2.03856e-05
-1.9681e-05
-1.89745e-05
-1.82679e-05
-1.75637e-05
-1.68635e-05
-1.61685e-05
-1.54808e-05
-1.48017e-05
-1.41326e-05
-1.34747e-05
-1.28292e-05
-1.2197e-05
-1.15792e-05
-1.09765e-05
-1.03898e-05
-9.8195e-06
-9.2663e-06
-8.73065e-06
-8.21292e-06
-7.71342e-06
-7.23235e-06
-6.76982e-06
-6.32592e-06
-5.90063e-06
-5.4939e-06
-5.10559e-06
-4.73554e-06
-4.3835e-06
-4.04921e-06
-3.73233e-06
-3.4325e-06
-3.14929e-06
-2.88227e-06
-2.63099e-06
-2.39498e-06
-2.17373e-06
-1.96672e-06
-1.77341e-06
-1.59321e-06
-1.42556e-06
-1.26986e-06
-1.12554e-06
-9.9205e-07
-8.68789e-07
-7.55275e-07
-6.50669e-07
-5.55071e-07
-4.66465e-07
-3.87676e-07
-3.11063e-07
-2.5102e-07
-1.7666e-07
-1.47394e-07
-4.7819e-08
-9.07738e-08
1.07268e-07
-1.17529e-07
3.45489e-07
-2.88048e-07
7.35232e-07
-6.47009e-07
1.28147e-06
-1.1109e-06
1.7891e-06
-1.34239e-06
1.80738e-06
-8.36805e-07
9.14739e-07
5.88225e-07
-6.72995e-07
2.24027e-06
-1.85025e-06
2.79563e-06
-1.43431e-06
-2.11336e-05
-2.19985e-05
-2.28682e-05
-2.3726e-05
-2.45599e-05
-2.53608e-05
-2.61206e-05
-2.68326e-05
-2.74914e-05
-2.80928e-05
-2.86336e-05
-2.91117e-05
-2.95254e-05
-2.98741e-05
-3.01576e-05
-3.03762e-05
-3.05307e-05
-3.06223e-05
-3.06522e-05
-3.06221e-05
-3.05337e-05
-3.03891e-05
-3.01901e-05
-2.99393e-05
-2.96388e-05
-2.92914e-05
-2.88995e-05
-2.84661e-05
-2.79941e-05
-2.74863e-05
-2.69459e-05
-2.63758e-05
-2.57792e-05
-2.51591e-05
-2.45183e-05
-2.38598e-05
-2.31863e-05
-2.25004e-05
-2.18047e-05
-2.11015e-05
-2.03931e-05
-1.96818e-05
-1.89696e-05
-1.82581e-05
-1.75498e-05
-1.68461e-05
-1.61483e-05
-1.54583e-05
-1.47774e-05
-1.4107e-05
-1.34481e-05
-1.2802e-05
-1.21695e-05
-1.15516e-05
-1.09491e-05
-1.03626e-05
-9.79281e-06
-9.24022e-06
-8.70529e-06
-8.18837e-06
-7.68975e-06
-7.20961e-06
-6.74806e-06
-6.30516e-06
-5.8809e-06
-5.47519e-06
-5.08791e-06
-4.71887e-06
-4.36783e-06
-4.03451e-06
-3.71858e-06
-3.41967e-06
-3.13735e-06
-2.87119e-06
-2.62073e-06
-2.38549e-06
-2.16499e-06
-1.95868e-06
-1.76603e-06
-1.58646e-06
-1.41939e-06
-1.26425e-06
-1.12045e-06
-9.87439e-07
-8.6462e-07
-7.51514e-07
-6.47289e-07
-5.5204e-07
-4.63767e-07
-3.85261e-07
-3.08938e-07
-2.49083e-07
-1.75022e-07
-1.45801e-07
-4.66623e-08
-8.93791e-08
1.07868e-07
-1.16144e-07
3.45429e-07
-2.86516e-07
7.34527e-07
-6.45409e-07
1.28051e-06
-1.10976e-06
1.78873e-06
-1.34252e-06
1.80839e-06
-8.38527e-07
9.17093e-07
5.85615e-07
-6.70079e-07
2.23764e-06
-1.84712e-06
2.79224e-06
-1.43556e-06
-2.61374e-05
-2.65887e-05
-2.70724e-05
-2.75718e-05
-2.8074e-05
-2.85681e-05
-2.90446e-05
-2.94952e-05
-2.9913e-05
-3.02925e-05
-3.0629e-05
-3.09189e-05
-3.11597e-05
-3.13493e-05
-3.14866e-05
-3.15711e-05
-3.16025e-05
-3.15813e-05
-3.1508e-05
-3.13837e-05
-3.12096e-05
-3.09871e-05
-3.07177e-05
-3.04032e-05
-3.00455e-05
-2.96467e-05
-2.92088e-05
-2.87342e-05
-2.82253e-05
-2.76846e-05
-2.71148e-05
-2.65186e-05
-2.58987e-05
-2.52578e-05
-2.45987e-05
-2.39238e-05
-2.32359e-05
-2.25373e-05
-2.18304e-05
-2.11174e-05
-2.04006e-05
-1.96819e-05
-1.89634e-05
-1.82466e-05
-1.75338e-05
-1.68263e-05
-1.61255e-05
-1.5433e-05
-1.47502e-05
-1.40782e-05
-1.34184e-05
-1.27715e-05
-1.21387e-05
-1.15207e-05
-1.09183e-05
-1.03322e-05
-9.76299e-06
-9.21109e-06
-8.67698e-06
-8.16098e-06
-7.66334e-06
-7.18425e-06
-6.7238e-06
-6.28202e-06
-5.8589e-06
-5.45434e-06
-5.0682e-06
-4.70029e-06
-4.35036e-06
-4.01813e-06
-3.70327e-06
-3.40538e-06
-3.12405e-06
-2.85884e-06
-2.6093e-06
-2.37493e-06
-2.15525e-06
-1.94973e-06
-1.75781e-06
-1.57894e-06
-1.41253e-06
-1.258e-06
-1.11478e-06
-9.82302e-07
-8.59977e-07
-7.47325e-07
-6.43523e-07
-5.48664e-07
-4.6076e-07
-3.8257e-07
-3.06567e-07
-2.4693e-07
-1.73194e-07
-1.44041e-07
-4.53638e-08
-8.78519e-08
1.08563e-07
-1.14643e-07
3.45403e-07
-2.8485e-07
7.33771e-07
-6.43622e-07
1.2794e-06
-1.10839e-06
1.78815e-06
-1.34244e-06
1.80927e-06
-8.40255e-07
9.19644e-07
5.82597e-07
-6.66494e-07
2.23416e-06
-1.84283e-06
2.78763e-06
-1.43531e-06
-3.13948e-05
-3.14191e-05
-3.15038e-05
-3.1632e-05
-3.17896e-05
-3.19642e-05
-3.21448e-05
-3.23216e-05
-3.24865e-05
-3.26324e-05
-3.27534e-05
-3.28448e-05
-3.29027e-05
-3.2924e-05
-3.29065e-05
-3.28486e-05
-3.27494e-05
-3.26083e-05
-3.24254e-05
-3.2201e-05
-3.19355e-05
-3.163e-05
-3.12854e-05
-3.09029e-05
-3.04838e-05
-3.00298e-05
-2.95423e-05
-2.90233e-05
-2.84746e-05
-2.78984e-05
-2.72969e-05
-2.66723e-05
-2.60272e-05
-2.53638e-05
-2.46847e-05
-2.39921e-05
-2.32885e-05
-2.25762e-05
-2.18572e-05
-2.11337e-05
-2.04076e-05
-1.9681e-05
-1.89557e-05