/*--------------------------------*- C++ -*----------------------------------*\
| =========                 |                                                 |
| \\      /  F ield         | OpenFOAM: The Open Source CFD Toolbox           |
|  \\    /   O peration     | Version:  2412                                  |
|   \\  /    A nd           | Website:  www.openfoam.com                      |
|    \\/     M anipulation  |                                                 |
\*---------------------------------------------------------------------------*/
FoamFile
{
    version     2.0;
    format      ascii;
    arch        "LSB;label=32;scalar=64";
    class       surfaceScalarField;
    location    "12.5";
    object      phi;
}
// * * * * * * * * * * * * * * * * * * * * * * * * * * * * * * * * * * * * * //

dimensions      [0 3 -1 0 0 0 0];

oriented        oriented;

internalField   nonuniform List<scalar> 
126304
(
0.00505063
1.30382e-07
9.394e-12
0.00505027
3.59608e-07
8.35231e-11
0.00504968
5.87809e-07
1.5325e-10
0.00504872
9.60077e-07
2.68065e-12
0.0050471
1.61853e-06
-5.66753e-10
0.00504456
2.54726e-06
-1.51495e-09
0.00504101
3.54736e-06
-2.51918e-09
0.00503666
4.35639e-06
-3.15172e-09
0.00503187
4.79477e-06
-3.11581e-09
0.00502703
4.83433e-06
-2.36946e-09
0.00502246
4.57276e-06
-1.09398e-09
0.0050183
4.16086e-06
4.24927e-10
0.00501456
3.73568e-06
1.91688e-09
0.00501117
3.38585e-06
3.19738e-09
0.00500802
3.14808e-06
4.1828e-09
0.005005
3.02124e-06
4.86981e-09
0.00500201
2.9844e-06
5.30232e-09
0.00499899
3.01117e-06
5.54211e-09
0.00499591
3.07802e-06
5.64964e-09
0.00499273
3.16744e-06
5.67391e-09
0.00498946
3.26813e-06
5.65022e-09
0.00498608
3.3737e-06
5.60121e-09
0.00498259
3.48111e-06
5.53969e-09
0.004979
3.58934e-06
5.472e-09
0.00497529
3.69841e-06
5.40027e-09
0.00497148
3.80883e-06
5.32478e-09
0.00496755
3.92123e-06
5.24459e-09
0.00496351
4.03621e-06
5.15904e-09
0.00495935
4.15429e-06
5.06758e-09
0.00495507
4.27585e-06
4.97009e-09
0.00495067
4.40121e-06
4.86645e-09
0.00494613
4.53059e-06
4.75664e-09
0.00494146
4.66414e-06
4.64061e-09
0.00493666
4.802e-06
4.51839e-09
0.00493171
4.94424e-06
4.39013e-09
0.00492661
5.09094e-06
4.256e-09
0.00492137
5.24214e-06
4.11615e-09
0.00491596
5.39791e-06
3.97065e-09
0.0049104
5.55827e-06
3.81976e-09
0.00490467
5.72327e-06
3.66399e-09
0.00489878
5.89296e-06
3.50394e-09
0.00489271
6.06738e-06
3.34024e-09
0.00488646
6.24657e-06
3.17339e-09
0.00488002
6.4306e-06
3.00384e-09
0.0048734
6.61953e-06
2.8321e-09
0.00486659
6.81343e-06
2.65873e-09
0.00485957
7.01237e-06
2.48419e-09
0.00485235
7.21645e-06
2.30877e-09
0.00484492
7.42579e-06
2.13277e-09
0.00483728
7.64052e-06
1.95663e-09
0.00482942
7.86083e-06
1.78086e-09
0.00482133
8.08709e-06
1.60596e-09
0.00481301
8.3201e-06
1.43238e-09
0.00480445
8.5621e-06
1.26052e-09
8.81938e-06
0.00479562
1.09085e-09
0.00505063
2.60667e-07
0.00505027
7.19379e-07
0.00504968
1.17552e-06
0.00504872
1.91669e-06
0.00504712
3.22574e-06
0.00504459
5.07279e-06
0.00504107
7.06437e-06
0.00503675
8.67952e-06
0.00503198
9.56031e-06
0.00502717
9.64882e-06
0.00502261
9.13736e-06
0.00501844
8.3245e-06
0.00501469
7.48243e-06
0.00501129
6.78774e-06
0.00500813
6.31416e-06
0.00500509
6.06022e-06
0.00500209
5.98492e-06
0.00499906
6.03624e-06
0.00499597
6.16757e-06
0.0049928
6.34422e-06
0.00498952
6.5437e-06
0.00498614
6.75326e-06
0.00498266
6.96679e-06
0.00497906
7.18219e-06
0.00497536
7.39946e-06
0.00497155
7.61955e-06
0.00496763
7.84371e-06
0.00496359
8.07308e-06
0.00495944
8.30867e-06
0.00495516
8.55127e-06
0.00495076
8.80145e-06
0.00494623
9.05965e-06
0.00494157
9.3262e-06
0.00493677
9.60133e-06
0.00493183
9.88521e-06
0.00492674
1.0178e-05
0.00492151
1.04797e-05
0.00491611
1.07905e-05
0.00491056
1.11105e-05
0.00490484
1.14397e-05
0.00489896
1.17783e-05
0.0048929
1.21262e-05
0.00488666
1.24837e-05
0.00488024
1.28508e-05
0.00487363
1.32276e-05
0.00486683
1.36143e-05
0.00485983
1.4011e-05
0.00485263
1.44179e-05
0.00484522
1.48352e-05
0.0048376
1.52632e-05
0.00482976
1.57023e-05
0.00482169
1.61532e-05
0.0048134
1.66173e-05
0.00480486
1.7099e-05
1.76101e-05
0.00479607
0.00505063
3.9074e-07
0.00505027
1.07929e-06
0.00504968
1.76273e-06
0.00504873
2.86653e-06
0.00504714
4.81197e-06
0.00504466
7.55888e-06
0.0050412
1.05271e-05
0.00503693
1.29438e-05
0.00503222
1.42747e-05
0.00502744
1.4429e-05
0.00502289
1.36879e-05
0.00501872
1.24925e-05
0.00501495
1.12468e-05
0.00501153
1.02145e-05
0.00500833
9.50708e-06
0.00500527
9.1242e-06
0.00500225
9.00648e-06
0.00499921
9.07753e-06
0.00499611
9.26853e-06
0.00499292
9.52806e-06
0.00498964
9.82266e-06
0.00498626
1.01332e-05
0.00498278
1.04504e-05
0.00497919
1.07711e-05
0.00497549
1.10949e-05
0.00497169
1.14234e-05
0.00496778
1.17582e-05
0.00496375
1.21009e-05
0.0049596
1.24531e-05
0.00495534
1.28159e-05
0.00495095
1.319e-05
0.00494643
1.35762e-05
0.00494179
1.39748e-05
0.004937
1.43863e-05
0.00493208
1.48109e-05
0.004927
1.52487e-05
0.00492178
1.56999e-05
0.00491641
1.61647e-05
0.00491088
1.66431e-05
0.00490518
1.71353e-05
0.00489932
1.76413e-05
0.00489328
1.81614e-05
0.00488707
1.86956e-05
0.00488068
1.92441e-05
0.0048741
1.9807e-05
0.00486733
2.03847e-05
0.00486036
2.09771e-05
0.0048532
2.15847e-05
0.00484582
2.22078e-05
0.00483824
2.28466e-05
0.00483044
2.35018e-05
0.00482242
2.41742e-05
0.00481417
2.48661e-05
0.00480569
2.55833e-05
2.63427e-05
0.00479695
0.00505063
5.20498e-07
0.00505027
1.43937e-06
0.00504968
2.34917e-06
0.00504874
3.8066e-06
0.00504718
6.36802e-06
0.00504476
9.98819e-06
0.00504137
1.39114e-05
0.00503719
1.71231e-05
0.00503255
1.89151e-05
0.00502782
1.91594e-05
0.00502329
1.82178e-05
0.00501912
1.66664e-05
0.00501533
1.50363e-05
0.00501187
1.36768e-05
0.00500863
1.27383e-05
0.00500553
1.22239e-05
0.00500248
1.20581e-05
0.00499942
1.21419e-05
0.0049963
1.23857e-05
0.00499311
1.27218e-05
0.00498982
1.31062e-05
0.00498644
1.35134e-05
0.00498296
1.39308e-05
0.00497938
1.43538e-05
0.00497569
1.4782e-05
0.0049719
1.52169e-05
0.004968
1.56606e-05
0.00496398
1.61153e-05
0.00495985
1.65827e-05
0.00495561
1.70643e-05
0.00495123
1.75611e-05
0.00494674
1.80739e-05
0.00494211
1.86034e-05
0.00493734
1.91499e-05
0.00493244
1.97137e-05
0.0049274
2.02951e-05
0.0049222
2.08942e-05
0.00491685
2.15112e-05
0.00491135
2.21463e-05
0.00490569
2.27996e-05
0.00489986
2.34711e-05
0.00489386
2.41612e-05
0.00488768
2.48699e-05
0.00488133
2.55974e-05
0.00487479
2.63439e-05
0.00486807
2.71096e-05
0.00486115
2.78949e-05
0.00485404
2.87001e-05
0.00484672
2.95254e-05
0.00483919
3.03713e-05
0.00483146
3.12385e-05
0.0048235
3.21281e-05
0.00481533
3.30426e-05
0.00480692
3.39891e-05
3.49873e-05
0.00479828
0.00505063
6.49845e-07
0.00505027
1.79958e-06
0.00504968
2.93456e-06
0.00504875
4.73434e-06
0.00504724
7.88612e-06
0.00504488
1.23461e-05
0.00504159
1.71972e-05
0.00503752
2.11952e-05
0.00503297
2.34619e-05
0.00502831
2.38262e-05
0.0050238
2.27207e-05
0.00501962
2.08466e-05
0.0050158
1.88562e-05
0.0050123
1.71829e-05
0.00500902
1.60172e-05
0.00500587
1.53682e-05
0.00500279
1.51471e-05
0.00499969
1.5235e-05
0.00499656
1.55228e-05
0.00499335
1.59276e-05
0.00499006
1.63951e-05
0.00498668
1.68933e-05
0.00498321
1.74063e-05
0.00497963
1.79281e-05
0.00497596
1.84576e-05
0.00497218
1.89964e-05
0.00496829
1.9547e-05
0.00496429
2.01116e-05
0.00496018
2.06925e-05
0.00495596
2.12911e-05
0.00495161
2.19089e-05
0.00494714
2.25467e-05
0.00494253
2.32052e-05
0.0049378
2.38849e-05
0.00493293
2.45861e-05
0.00492791
2.53091e-05
0.00492275
2.60541e-05
0.00491744
2.68212e-05
0.00491198
2.76106e-05
0.00490636
2.84224e-05
0.00490057
2.92569e-05
0.00489462
3.01141e-05
0.00488849
3.09942e-05
0.00488219
3.18975e-05
0.00487571
3.28242e-05
0.00486905
3.37745e-05
0.00486219
3.47487e-05
0.00485515
3.57472e-05
0.0048479
3.67703e-05
0.00484045
3.78185e-05
0.0048328
3.88925e-05
0.00482494
3.99934e-05
0.00481685
4.1124e-05
0.00480855
4.22913e-05
4.35159e-05
0.00480002
0.00505063
7.78689e-07
0.00505027
2.15983e-06
0.00504968
3.51859e-06
0.00504877
5.64772e-06
0.0050473
9.36026e-06
0.00504502
1.46213e-05
0.00504185
2.03685e-05
0.0050379
2.51424e-05
0.00503347
2.7899e-05
0.00502887
2.8418e-05
0.0050244
2.71908e-05
0.00502022
2.50327e-05
0.00501636
2.27103e-05
0.00501281
2.07389e-05
0.00500947
1.93503e-05
0.00500628
1.85632e-05
0.00500315
1.82788e-05
0.00500002
1.83607e-05
0.00499686
1.86823e-05
0.00499364
1.91466e-05
0.00499035
1.96891e-05
0.00498697
2.02719e-05
0.0049835
2.08753e-05
0.00497994
2.14914e-05
0.00497628
2.21187e-05
0.00497252
2.27584e-05
0.00496865
2.34132e-05
0.00496468
2.40854e-05
0.00496059
2.47775e-05
0.00495639
2.54912e-05
0.00495207
2.62278e-05
0.00494763
2.69885e-05
0.00494306
2.77739e-05
0.00493836
2.85846e-05
0.00493353
2.94208e-05
0.00492855
3.02829e-05
0.00492344
3.11711e-05
0.00491817
3.20856e-05
0.00491276
3.30264e-05
0.00490718
3.39938e-05
0.00490145
3.49879e-05
0.00489556
3.60088e-05
0.0048895
3.70567e-05
0.00488326
3.81319e-05
0.00487685
3.92345e-05
0.00487026
4.03649e-05
0.00486349
4.15233e-05
0.00485652
4.271e-05
0.00484937
4.39254e-05
0.00484202
4.517e-05
0.00483447
4.64443e-05
0.00482671
4.77496e-05
0.00481875
4.9088e-05
0.00481057
5.0466e-05
5.19021e-05
0.00480218
0.00505063
9.06899e-07
0.00505027
2.51999e-06
0.00504969
4.10094e-06
0.00504879
6.54531e-06
0.00504736
1.07864e-05
0.00504518
1.68061e-05
0.00504213
2.34145e-05
0.00503832
2.89525e-05
0.00503401
3.2215e-05
0.0050295
3.2926e-05
0.00502507
3.16229e-05
0.00502088
2.92231e-05
0.00501699
2.65998e-05
0.00501338
2.43475e-05
0.00500999
2.27414e-05
0.00500674
2.18125e-05
0.00500356
2.1456e-05
0.0050004
2.1521e-05
0.00499722
2.18652e-05
0.00499398
2.23788e-05
0.00499069
2.29877e-05
0.00498731
2.36476e-05
0.00498385
2.43354e-05
0.0049803
2.50411e-05
0.00497666
2.5762e-05
0.00497292
2.64992e-05
0.00496907
2.7255e-05
0.00496513
2.80322e-05
0.00496107
2.88329e-05
0.0049569
2.96591e-05
0.00495262
3.05122e-05
0.00494822
3.13932e-05
0.00494369
3.2303e-05
0.00493903
3.3242e-05
0.00493424
3.42105e-05
0.00492931
3.52089e-05
0.00492425
3.62373e-05
0.00491904
3.72958e-05
0.00491368
3.83847e-05
0.00490817
3.95039e-05
0.0049025
4.06538e-05
0.00489668
4.18343e-05
0.00489069
4.30456e-05
0.00488453
4.42881e-05
0.0048782
4.55617e-05
0.0048717
4.68669e-05
0.00486502
4.82038e-05
0.00485816
4.95727e-05
0.00485111
5.09741e-05
0.00484387
5.24082e-05
0.00483644
5.38756e-05
0.00482881
5.53771e-05
0.00482099
5.69143e-05
0.00481296
5.84912e-05
0.00480475
6.01184e-05
0.00479685
-1.22605e-06
9.28532e-10
0.00479756
-7.14178e-07
7.7764e-10
0.00479773
-1.67795e-07
6.12912e-10
0.00479731
4.15077e-07
4.35079e-10
0.00479628
1.039e-06
2.58196e-10
0.00479457
1.70806e-06
7.64979e-11
0.00479214
2.42492e-06
-1.08692e-10
0.00478895
3.19323e-06
-2.95193e-10
0.00478493
4.01683e-06
-4.80775e-10
0.00478003
4.89977e-06
-6.62904e-10
0.00477419
5.84635e-06
-8.39347e-10
0.00476733
6.86132e-06
-1.00793e-09
0.00475938
7.95001e-06
-1.16642e-09
0.00475026
9.11867e-06
-1.3136e-09
0.00473989
1.03748e-05
-1.44592e-09
0.00472816
1.17275e-05
-1.56467e-09
0.00471498
1.31882e-05
-1.65805e-09
0.00470021
1.47708e-05
-1.7229e-09
0.00468372
1.64922e-05
-1.77042e-09
0.00466535
1.8373e-05
-1.80135e-09
0.00464491
2.04375e-05
-1.81943e-09
0.0046222
2.27144e-05
-1.82393e-09
0.00459696
2.52371e-05
-1.81187e-09
0.00456892
2.80442e-05
-1.78555e-09
0.00453774
3.11799e-05
-1.74701e-09
0.00450305
3.46954e-05
-1.69927e-09
0.0044644
3.86496e-05
-1.64538e-09
0.00442129
4.31111e-05
-1.58724e-09
0.00437313
4.81607e-05
-1.52659e-09
0.00431924
5.38942e-05
-1.46474e-09
0.00425881
6.04271e-05
-1.402e-09
0.00419091
6.78994e-05
-1.33819e-09
0.00411443
7.64824e-05
-1.2731e-09
0.00402805
8.6387e-05
-1.20648e-09
0.00393018
9.78735e-05
-1.13803e-09
0.00381892
0.000111261
-1.06799e-09
0.00369198
0.000126935
-9.97833e-10
0.00354663
0.000145353
-9.30269e-10
0.0033796
0.000167028
-8.68825e-10
0.00318712
0.000192486
-8.17766e-10
0.00296494
0.000222175
-7.81882e-10
0.00270866
0.000256279
-7.66144e-10
0.00241427
0.000294398
-7.74363e-10
0.00207923
0.000335038
-8.0794e-10
0.00170439
0.00037484
-8.64523e-10
0.00129691
0.000407484
-9.35027e-10
0.000874618
0.000422291
-9.98429e-10
0.000472137
0.000402481
-1.01241e-09
0.000149628
0.00032251
-8.94907e-10
0.000149629
-4.90831e-10
0.00479593
-1.08374e-06
0.00479527
-5.58941e-08
0.00479407
1.0267e-06
0.0047923
2.19217e-06
0.0047899
3.43904e-06
0.00478683
4.7745e-06
0.00478305
6.2055e-06
0.0047785
7.73933e-06
0.00477314
9.38373e-06
0.00476689
1.11468e-05
0.0047597
1.30374e-05
0.0047515
1.50648e-05
0.00474221
1.724e-05
0.00473175
1.95755e-05
0.00472004
2.20863e-05
0.00470697
2.47911e-05
0.00469245
2.77125e-05
0.00467634
3.08785e-05
0.00465851
3.43233e-05
0.0046388
3.80879e-05
0.00461701
4.2221e-05
0.00459295
4.67801e-05
0.00456635
5.18321e-05
0.00453694
5.74539e-05
0.00450439
6.37342e-05
0.00446831
7.07749e-05
0.00442826
7.8694e-05
0.00438375
8.76284e-05
0.00433417
9.77394e-05
0.00427884
0.000109218
0.00421698
0.000122295
0.00414763
0.000137248
0.00406969
0.000154419
0.00398185
0.000174225
0.00388254
0.000197183
0.00376988
0.000223921
0.00364162
0.000255201
0.00349505
0.000291918
0.00332701
0.000335071
0.00313382
0.00038568
0.0029114
0.000444592
0.00265557
0.000512111
0.0023626
0.00058737
0.00203031
0.00066732
0.00165993
0.000745221
0.00125892
0.000808495
0.000845275
0.000835936
0.000453276
0.00079448
0.000140921
0.000634865
0.000290549
0.00479409
1.78246e-06
0.00479072
3.30854e-06
0.00478681
4.93579e-06
0.00478233
6.67734e-06
0.00477723
8.54164e-06
0.00477146
1.05384e-05
0.00476499
1.26782e-05
0.00475776
1.49722e-05
0.00474971
1.7432e-05
0.00474079
2.00699e-05
0.00473092
2.28992e-05
0.00472005
2.59342e-05
0.0047081
2.91914e-05
0.00469499
3.269e-05
0.00468062
3.64527e-05
0.00466491
4.05076e-05
0.00464773
4.48893e-05
0.00462897
4.964e-05
0.00460848
5.48111e-05
0.0045861
6.04644e-05
0.00456165
6.66733e-05
0.00453491
7.3524e-05
0.00450562
8.11168e-05
0.00447351
8.95671e-05
0.00443824
9.90078e-05
0.00439942
0.000109592
0.00435662
0.000121495
0.00430932
0.000134923
0.00425695
0.000150117
0.0041988
0.000167362
0.00413409
0.000187002
0.00406189
0.000209452
0.00398109
0.000235217
0.0038904
0.000264916
0.00378827
0.00029931
0.00367287
0.000339322
0.00354201
0.000386063
0.0033931
0.000440829
0.00322312
0.000505053
0.00302863
0.000580172
0.00280589
0.000667332
0.00255116
0.000766837
0.00226131
0.000877218
0.00193487
0.000993762
0.00157376
0.00110633
0.00118595
0.0011963
0.000789517
0.00123237
0.000418273
0.00116572
0.000127564
0.000925574
0.000418113
0.00479137
8.68269e-06
0.00478398
1.07057e-05
0.00477605
1.28664e-05
0.00476755
1.51773e-05
0.00475844
1.7651e-05
0.00474868
2.03009e-05
0.00473821
2.31411e-05
0.004727
2.61867e-05
0.00471498
2.94533e-05
0.00470209
3.29575e-05
0.00468827
3.67171e-05
0.00467345
4.07517e-05
0.00465756
4.50834e-05
0.00464051
4.97383e-05
0.00462222
5.47473e-05
0.00460258
6.01483e-05
0.00458148
6.59879e-05
0.0045588
7.2323e-05
0.00453438
7.92227e-05
0.00450808
8.67696e-05
0.00447969
9.50619e-05
0.004449
0.000104215
0.00441575
0.000114362
0.00437966
0.000125658
0.00434039
0.000138278
0.00429756
0.000152427
0.00425071
0.000168339
0.00419935
0.000186286
0.00414288
0.000206589
0.00408061
0.000229627
0.00401176
0.000255853
0.0039354
0.000285815
0.00385044
0.000320176
0.00375561
0.000359747
0.0036494
0.000405515
0.00353005
0.000458673
0.00339547
0.000520642
0.00324324
0.000593059
0.00307059
0.000677707
0.00287444
0.000776323
0.00265157
0.000890195
0.00239897
0.00101944
0.0021144
0.00116179
0.00179745
0.00131072
0.00145104
0.00145274
0.00108373
0.00156361
0.000713156
0.00160294
0.000371268
0.00150761
0.000108547
0.0011883
0.00052666
0.00478782
2.08831e-05
0.00477513
2.33938e-05
0.00476192
2.6076e-05
0.00474816
2.89448e-05
0.00473379
3.20164e-05
0.00471879
3.53075e-05
0.00470309
3.88362e-05
0.00468666
4.26212e-05
0.00466943
4.66823e-05
0.00465134
5.10404e-05
0.00463234
5.57182e-05
0.00461235
6.07405e-05
0.0045913
6.61354e-05
0.0045691
7.19361e-05
0.00454567
7.8182e-05
0.0045209
8.49213e-05
0.00449467
9.22129e-05
0.00446687
0.000100129
0.00443733
0.000108756
0.0044059
0.000118199
0.00437238
0.000128581
0.00433655
0.000140045
0.00429816
0.000152759
0.0042569
0.000166915
0.00421244
0.000182734
0.0041644
0.00020047
0.00411232
0.000220414
0.0040557
0.000242907
0.00399395
0.000268346
0.00392637
0.000297201
0.00385219
0.000330033
0.00377049
0.000367516
0.00368021
0.000410464
0.00358009
0.000459863
0.0034687
0.000516903
0.00334437
0.00058301
0.00320515
0.000659857
0.00304887
0.000749339
0.00287311
0.000853467
0.00267533
0.000974105
0.00245306
0.00111247
0.00220429
0.00126821
0.00192807
0.00143801
0.00162543
0.00161335
0.00130064
0.00177754
0.000962824
0.00190142
0.000628323
0.00193745
0.000324084
0.00181185
8.98212e-05
0.00142256
0.000616481
0.00478349
3.95785e-05
0.00476432
4.25606e-05
0.00474465
4.57483e-05
0.00472444
4.91592e-05
0.00470364
5.28129e-05
0.00468222
5.67296e-05
0.00466012
6.09309e-05
0.0046373
6.54393e-05
0.00461371
7.02788e-05
0.00458927
7.54746e-05
0.00456394
8.10542e-05
0.00453763
8.70479e-05
0.00451027
9.34901e-05
0.00448179
0.000100421
0.00445208
0.00010789
0.00442105
0.000115955
0.00438857
0.000124688
0.00435452
0.000134177
0.00431875
0.000144527
0.00428109
0.000155864
0.00424133
0.000168336
0.00419926
0.000182118
0.00415461
0.000197409
0.00410708
0.00021444
0.00405634
0.000233477
0.00400199
0.000254821
0.00394358
0.000278824
0.0038806
0.00030589
0.00381245
0.000336494
0.00373846
0.000371195
0.00365783
0.000410658
0.00356967
0.000455677
0.00347293
0.000507204
0.00336641
0.00056638
0.00324875
0.000634567
0.00311839
0.000713369
0.00297362
0.000804627
0.00281259
0.000910367
0.00263342
0.00103264
0.00243436
0.00117317
0.00221408
0.00133274
0.00197212
0.00151017
0.0017095
0.00170063
0.00142947
0.00189338
0.00113832
0.00206869
0.000846059
0.00219369
0.000566713
0.00221679
0.00031695
0.00206161
0.000109541
0.00162997
0.000726022
0.00477845
6.58704e-05
0.00475171
6.92999e-05
0.00472449
7.29714e-05
0.00469675
7.69036e-05
0.00466844
8.11187e-05
0.00463953
8.56402e-05
0.00460997
9.04928e-05
0.00457971
9.57029e-05
0.00454869
0.000101298
0.00451685
0.000107309
0.00448414
0.000113766
0.00445048
0.000120707
0.0044158
0.000128172
0.00438001
0.000136209
0.00434303
0.000144876
0.00430474
0.000154242
0.00426503
0.000164394
0.00422378
0.000175434
0.00418082
0.000187486
0.00413598
0.000200699
0.00408907
0.000215248
0.00403985
0.000231334
0.00398807
0.000249192
0.00393342
0.000269092
0.00387556
0.000291341
0.00381409
0.000316292
0.00374856
0.000344351
0.00367846
0.000375991
0.00360319
0.00041176
0.00352208
0.000452304
0.00343435
0.000498389
0.00333911
0.000550923
0.00323533
0.000610984
0.00312185
0.000679853
0.00299739
0.000759029
0.00286052
0.000850241
0.00270973
0.000955412
0.00254355
0.00107655
0.00236067
0.00121552
0.00216026
0.00137358
0.00194238
0.00155063
0.00170854
0.00174401
0.00146246
0.00194671
0.00121077
0.00214507
0.000963559
0.00231591
0.00073395
0.00242329
0.00053548
0.00241526
0.000372872
0.00222422
0.000225853
0.00177699
0.000951875
-3.01325e-05
3.0131e-05
1.46009e-09
-7.91169e-05
4.89806e-05
3.77539e-09
-0.000122175
4.30522e-05
5.53469e-09
-0.000145208
2.30262e-05
6.69053e-09
-0.000140717
-4.49758e-06
7.21056e-09
-0.000106666
-3.40588e-05
7.56151e-09
-4.25361e-05
-6.41373e-05
7.53149e-09
5.02506e-05
-9.2794e-05
7.26873e-09
0.000168847
-0.000118603
6.87553e-09
0.000310124
-0.000141284
6.38216e-09
0.000470603
-0.000160485
5.80473e-09
0.000646695
-0.000176097
5.15069e-09
0.000834868
-0.000188177
4.42526e-09
0.00103175
-0.000196889
3.63116e-09
0.00123421
-0.000202463
2.77283e-09
0.00143939
-0.000205182
1.8597e-09
0.00164474
-0.000205351
9.09552e-10
0.00184803
-0.00020329
-4.248e-11
0.00204735
-0.000199319
-9.52273e-10
0.0022411
-0.00019375
-1.76145e-09
0.00242799
-0.000186881
-2.28035e-09
0.00260698
-0.000178988
-2.54323e-09
0.00277731
-0.000170328
-2.17284e-09
0.00293844
-0.000161131
-1.06525e-09
0.00309004
-0.0001516
4.0166e-10
0.00323195
-0.000141915
2.1006e-09
0.00336418
-0.000132228
3.61795e-09
0.00348684
-0.000122671
4.72394e-09
0.00360019
-0.000113352
5.38132e-09
0.00370454
-0.000104356
5.58307e-09
0.00380028
-9.57502e-05
5.38679e-09
0.00388786
-8.75846e-05
4.89496e-09
0.00396775
-7.98922e-05
4.22576e-09
0.00404044
-7.26924e-05
3.49065e-09
0.00410643
-6.59927e-05
2.78031e-09
0.00416622
-5.97905e-05
2.16061e-09
0.00422029
-5.40749e-05
1.67092e-09
0.00426912
-4.88286e-05
1.32973e-09
0.00431315
-4.40293e-05
1.13865e-09
0.0043528
-3.96511e-05
1.08685e-09
0.00438846
-3.56659e-05
1.15687e-09
0.00442051
-3.20446e-05
1.32734e-09
0.00444926
-2.87577e-05
1.57509e-09
0.00447504
-2.57762e-05
1.87755e-09
0.00449811
-2.30724e-05
2.21378e-09
0.00451872
-2.06198e-05
2.56583e-09
0.00453711
-1.83937e-05
2.91917e-09
0.00455348
-1.63714e-05
3.26179e-09
0.00456801
-1.45318e-05
3.58467e-09
-1.28556e-05
0.00458086
3.88187e-09
-2.64134e-05
5.65444e-05
-6.80472e-05
9.06144e-05
-0.000103148
7.81534e-05
-0.000119133
3.90109e-05
-0.000109346
-1.42842e-05
-7.17177e-05
-7.16875e-05
-5.2419e-06
-0.000130613
8.76542e-05
-0.00018569
0.000205262
-0.000236211
0.000344594
-0.000280615
0.000502359
-0.00031825
0.000675185
-0.000348923
0.000859733
-0.000372726
0.0010528
-0.000389952
0.00125138
-0.000401042
0.00145272
-0.000406527
0.00165437
-0.000406998
0.00185415
-0.000403073
0.00205021
-0.000395375
0.00224097
-0.000384512
0.00242515
-0.000371066
0.00260175
-0.000355584
0.00276999
-0.000338567
0.00292933
-0.00032047
0.00307942
-0.000301697
0.00322011
-0.0002826
0.00335137
-0.000263486
0.00347331
-0.000244615
0.00358616
-0.000226201
0.00369022
-0.000208416
0.00378586
-0.000191394
0.00387351
-0.000175235
0.00395363
-0.000160004
0.00402668
-0.000145743
0.00409315
-0.000132466
0.00415353
-0.00012017
0.00420829
-0.000108834
0.00425788
-9.84252e-05
0.00430275
-8.88994e-05
0.00434331
-8.02064e-05
0.00437994
-7.22911e-05
0.00441299
-6.50962e-05
0.00444279
-5.85637e-05
0.00446965
-5.26367e-05
0.00449384
-4.72602e-05
0.0045156
-4.2382e-05
0.00453516
-3.79536e-05
0.00455272
-3.39297e-05
0.00456846
-3.02684e-05
-2.6931e-05
0.00458253
-1.94815e-05
7.60259e-05
-4.66628e-05
0.000117796
-6.68666e-05
9.83572e-05
-6.97576e-05
4.19019e-05
-4.97385e-05
-3.43034e-05
-4.96494e-06
-0.000116461
6.36195e-05
-0.000199198
0.000156768
-0.000278838
0.000272196
-0.000351639
0.000407407
-0.000415826
0.000559628
-0.000470471
0.000725922
-0.000515217
0.000903323
-0.000550127
0.00108894
-0.000575566
0.00128002
-0.000592122
0.00147402
-0.000600526
0.00166862
-0.000601605
0.00186179
-0.000596236
0.00205172
-0.00058531
0.00223691
-0.000569704
0.00241611
-0.000550262
0.00258831
-0.00052778
0.00275273
-0.000502992
0.00290883
-0.000476568
0.00305624
-0.000449103
0.00319476
-0.00042112
0.00332434
-0.000393071
0.00344507
-0.000365344
0.00355713
-0.000338259
0.00366079
-0.000312073
0.00375638
-0.000286989
0.0038443
-0.000263154
0.00392497
-0.000240673
0.00399883
-0.000219606
0.00406634
-0.00019998
0.00412797
-0.000181792
0.00418415
-0.000165013
0.00423532
-0.000149598
0.0042819
-0.000135482
0.00432429
-0.000122593
0.00436285
-0.000110852
0.00439793
-0.000100174
0.00442984
-9.04745e-05
0.00445887
-8.16707e-05
0.00448529
-7.36815e-05
0.00450934
-6.64304e-05
0.00453123
-5.98456e-05
0.00455116
-5.38605e-05
0.00456931
-4.8413e-05
-4.34441e-05
0.00458582
-6.44541e-06
8.24713e-05
-1.49512e-05
0.000126302
-1.4306e-05
9.7712e-05
1.43766e-06
2.61582e-05
3.22569e-05
-6.51226e-05
8.34538e-05
-0.000167658
0.000155766
-0.00027151
0.000248074
-0.000371147
0.000359296
-0.000462861
0.000487765
-0.000544296
0.000631414
-0.00061412
0.000787926
-0.000671729
0.000954861
-0.000717062
0.00112976
-0.000750462
0.00131021
-0.000772573
0.00149393
-0.00078425
0.00167882
-0.000786487
0.00186294
-0.000780361
0.00204462
-0.000766985
0.00222238
-0.000747465
0.002395
-0.00072288
0.00256147
-0.00069425
0.002721
-0.000662526
0.00287301
-0.000628579
0.0030171
-0.000593187
0.00315301
-0.000557039
0.00328067
-0.000520729
0.0034001
-0.000484769
0.00351142
-0.000449585
0.00361487
-0.000415522
0.00371073
-0.000382849
0.00379935
-0.000351768
0.00388109
-0.000322419
0.00395638
-0.00029489
0.00402562
-0.000269221
0.00408924
-0.000245411
0.00414765
-0.000223429
0.00420127
-0.000203217
0.00425049
-0.000184695
0.00429567
-0.000167773
0.00433716
-0.000152346
0.00437529
-0.000138309
0.00441037
-0.000125551
0.00444267
-0.000113966
0.00447243
-0.000103447
0.0044999
-9.3896e-05
0.00452527
-8.52194e-05
0.00454874
-7.733e-05
0.00457047
-7.01464e-05
-6.35891e-05
0.00459062
8.62288e-06
7.38484e-05
2.34072e-05
0.000111517
4.76558e-05
7.34634e-05
8.21529e-05
-8.33887e-06
0.000128013
-0.000110983
0.000187325
-0.00022697
0.000261247
-0.000345432
0.000350333
-0.000460233
0.000454487
-0.000567015
0.000573037
-0.000662846
0.000704819
-0.000745902
0.000848294
-0.000815204
0.00100166
-0.00087043
0.00116297
-0.000911774
0.00133022
-0.00093982
0.00150141
-0.00095544
0.00167463
-0.00095971
0.00184811
-0.000953835
0.00202021
-0.000939092
0.00218952
-0.000916776
0.00235481
-0.000888161
0.00251503
-0.000854471
0.00266936
-0.000816855
0.00281715
-0.000776371
0.00295794
-0.00073398
0.00309143
-0.000690527
0.00321745
-0.000646751
0.00333597
-0.000603287
0.00344705
-0.000560669
0.00355086
-0.00051933
0.00364762
-0.000479612
0.00373763
-0.000441774
0.00382121
-0.000405997
0.00389872
-0.000372398
0.00397053
-0.000341032
0.00403703
-0.00031191
0.00409859
-0.000284997
0.00415561
-0.000260229
0.00420842
-0.000237514
0.0042574
-0.000216745
0.00430285
-0.000197798
0.00434509
-0.000180547
0.00438439
-0.000164858
0.00442103
-0.000150603
0.00445524
-0.000137655
0.00448723
-0.000125892
0.00451722
-0.000115202
0.00454536
-0.000105478
0.00457184
-9.66205e-05
-8.85297e-05
0.00459678
2.69269e-05
4.69215e-05
7.10484e-05
6.73957e-05
0.000122946
2.15663e-05
0.000175907
-6.13005e-05
0.000234348
-0.000169423
0.000298593
-0.000291215
0.000370884
-0.000417723
0.000453034
-0.000542383
0.000546237
-0.000660217
0.000651023
-0.000767632
0.000767288
-0.000862167
0.000894383
-0.000942299
0.00103123
-0.00100728
0.00117643
-0.00105698
0.0013284
-0.00109178
0.00148542
-0.00111246
0.00164577
-0.00112006
0.00180776
-0.00111583
0.00196981
-0.00110115
0.00213048
-0.00107745
0.0022885
-0.00104617
0.00244275
-0.00100872
0.00259233
-0.000966433
0.0027365
-0.000920542
0.0028747
-0.000872185
0.00300655
-0.000822373
0.00313179
-0.000771988
0.0032503
-0.000721796
0.00336207
-0.000672441
0.00346719
-0.000624453
0.00356583
-0.000578251
0.00365821
-0.000534156
0.00374461
-0.000492398
0.00382534
-0.000453125
0.00390072
-0.000416417
0.00397111
-0.000382295
0.00403684
-0.00035073
0.00409827
-0.000321653
0.00415572
-0.000294964
0.00420951
-0.000270542
0.00425996
-0.000248248
0.00430735
-0.000227935
0.00435194
-0.000209452
0.00439399
-0.000192649
0.00443371
-0.000177379
0.00447132
-0.000163501
0.00450701
-0.000150884
0.00454093
-0.000139404
0.00457326
-0.000128945
-0.000119387
0.00460411
5.16486e-05
-4.72705e-06
0.00013036
-1.13159e-05
0.000204523
-5.2597e-05
0.000274426
-0.000131203
0.00034014
-0.000235138
0.00040403
-0.000355104
0.000469595
-0.000483288
0.000540128
-0.000612916
0.000618255
-0.000738344
0.000705762
-0.000855139
0.000803611
-0.000960017
0.000912027
-0.00105071
0.00103061
-0.00112586
0.00115848
-0.00118485
0.00129441
-0.00122771
0.0014369
-0.00125496
0.00158437
-0.00126753
0.00173518
-0.00126663
0.00188772
-0.00125369
0.00204049
-0.00123022
0.00219213
-0.00119781
0.00234143
-0.00115802
0.00248735
-0.00111236
0.00262905
-0.00106224
0.00276585
-0.00100899
0.00289725
-0.000953773
0.0030229
-0.000897636
0.00314259
-0.00084148
0.00325621
-0.000786069
0.0033638
-0.000732036
0.00346543
-0.000679887
0.00356129
-0.000630013
0.00365159
-0.000582696
0.00373659
-0.000538127
0.00381659
-0.000496413
0.00389189
-0.000457592
0.0039628
-0.000421642
0.00402964
-0.000388496
0.00409273
-0.000358048
0.00415235
-0.000330166
0.0042088
-0.000304697
0.00426234
-0.000281478
0.00431323
-0.000260341
0.0043617
-0.000241116
0.00440796
-0.000223638
0.00445221
-0.000207749
0.00449462
-0.000193299
0.00453536
-0.000180148
0.00457458
-0.000168165
0.00461242
-0.00015722
0.00460223
-2.13759e-05
4.17389e-09
0.00462264
-2.04064e-05
4.50504e-09
0.00464213
-1.94942e-05
4.81934e-09
0.00466076
-1.86373e-05
5.11369e-09
0.00467859
-1.78333e-05
5.38719e-09
0.00469566
-1.70791e-05
5.64293e-09
0.00471203
-1.63717e-05
5.8878e-09
0.00472773
-1.5708e-05
6.13043e-09
0.0047428
-1.50841e-05
6.37969e-09
0.00475729
-1.44958e-05
6.64287e-09
0.00477122
-1.39377e-05
6.92449e-09
0.00478462
-1.34034e-05
7.22545e-09
0.0047975
-1.28852e-05
7.54213e-09
0.00480987
-1.23748e-05
7.86689e-09
0.00482172
-1.18635e-05
8.18863e-09
0.00483306
-1.13433e-05
8.49277e-09
0.00484386
-1.08083e-05
8.76217e-09
0.0048541
-1.02561e-05
8.9787e-09
0.00486378
-9.68881e-06
9.12463e-09
0.00487289
-9.11382e-06
9.18435e-09
0.00488142
-8.54301e-06
9.14646e-09
0.0048894
-7.99142e-06
9.00532e-09
0.00489687
-7.4748e-06
8.76195e-09
0.00490387
-7.00688e-06
8.42384e-09
0.00491046
-6.59698e-06
8.00422e-09
0.0049167
-6.24852e-06
7.52056e-09
0.00492265
-5.9588e-06
6.99162e-09
0.00492836
-5.72006e-06
6.43542e-09
0.00493388
-5.52134e-06
5.868e-09
0.00493922
-5.35068e-06
5.30231e-09
0.00494442
-5.19702e-06
4.74833e-09
0.00494946
-5.05147e-06
4.21223e-09
0.00495437
-4.90784e-06
3.6974e-09
0.00495913
-4.76255e-06
3.20485e-09
0.00496374
-4.61414e-06
2.73512e-09
0.0049682
-4.46259e-06
2.28757e-09
0.00497251
-4.30873e-06
1.8615e-09
0.00497666
-4.15372e-06
1.45628e-09
0.00498066
-3.99879e-06
1.07292e-09
0.0049845
-3.845e-06
7.13377e-10
0.00498819
-3.69324e-06
3.80994e-10
0.00499174
-3.54417e-06
7.87546e-11
0.00499513
-3.39827e-06
-1.91698e-10
0.00499839
-3.25589e-06
-4.32838e-10
0.00500151
-3.11724e-06
-6.5115e-10
0.00500449
-2.98242e-06
-8.52057e-10
0.00500734
-2.85148e-06
-1.04404e-09
0.00501007
-2.72445e-06
-1.23465e-09
0.00501267
-2.60131e-06
-1.42929e-09
0.00501516
-2.48202e-06
-1.63538e-09
0.00501753
-2.36652e-06
-1.85779e-09
0.00501978
-2.25472e-06
-2.10445e-09
0.00502193
-2.14656e-06
-2.37688e-09
0.00502398
-2.04196e-06
-2.67476e-09
0.00502592
-1.94085e-06
-2.98684e-09
0.00502777
-1.84317e-06
-3.29897e-09
0.00502952
-1.74886e-06
-3.59279e-09
0.00503118
-1.65786e-06
-3.85068e-09
0.00503275
-1.57011e-06
-4.06188e-09