/*--------------------------------*- C++ -*----------------------------------*\
| =========                 |                                                 |
| \\      /  F ield         | OpenFOAM: The Open Source CFD Toolbox           |
|  \\    /   O peration     | Version:  2412                                  |
|   \\  /    A nd           | Website:  www.openfoam.com                      |
|    \\/     M anipulation  |                                                 |
\*---------------------------------------------------------------------------*/
FoamFile
{
    version     2.0;
    format      ascii;
    arch        "LSB;label=32;scalar=64";
    class       volVectorField;
    location    "12.5";
    object      U;
}
// * * * * * * * * * * * * * * * * * * * * * * * * * * * * * * * * * * * * * //

dimensions      [0 1 -1 0 0 0 0];

internalField   nonuniform List<vector> 
63420
(
(0.0999997 4.41307e-07 0)
(0.099995 1.24101e-06 0)
(0.0999858 2.06939e-06 0)
(0.0999717 3.45123e-06 0)
(0.0999479 5.94116e-06 0)
(0.0999078 9.54266e-06 0)
(0.0998473 1.35562e-05 0)
(0.0997676 1.6977e-05 0)
(0.099675 1.90504e-05 0)
(0.0995779 1.95794e-05 0)
(0.0994836 1.88756e-05 0)
(0.0993968 1.75034e-05 0)
(0.0993188 1.60147e-05 0)
(0.0992487 1.47938e-05 0)
(0.0991845 1.40224e-05 0)
(0.0991238 1.3723e-05 0)
(0.0990647 1.38266e-05 0)
(0.0990055 1.42317e-05 0)
(0.0989452 1.48418e-05 0)
(0.0988834 1.55819e-05 0)
(0.0988196 1.64022e-05 0)
(0.0987537 1.72738e-05 0)
(0.0986858 1.8183e-05 0)
(0.0986157 1.91257e-05 0)
(0.0985435 2.01032e-05 0)
(0.0984691 2.11194e-05 0)
(0.0983925 2.21793e-05 0)
(0.0983136 2.3288e-05 0)
(0.0982324 2.44504e-05 0)
(0.0981489 2.56709e-05 0)
(0.098063 2.69537e-05 0)
(0.0979745 2.83027e-05 0)
(0.0978834 2.97216e-05 0)
(0.0977896 3.12139e-05 0)
(0.0976931 3.27832e-05 0)
(0.0975937 3.4433e-05 0)
(0.0974914 3.61668e-05 0)
(0.097386 3.79884e-05 0)
(0.0972775 3.99015e-05 0)
(0.0971658 4.191e-05 0)
(0.0970507 4.40179e-05 0)
(0.0969323 4.62296e-05 0)
(0.0968104 4.85493e-05 0)
(0.0966849 5.09817e-05 0)
(0.0965557 5.35318e-05 0)
(0.0964227 5.62045e-05 0)
(0.0962858 5.90053e-05 0)
(0.0961449 6.19399e-05 0)
(0.096 6.50144e-05 0)
(0.0958508 6.82354e-05 0)
(0.0956974 7.16104e-05 0)
(0.0955395 7.51486e-05 0)
(0.0953771 7.8864e-05 0)
(0.0952101 8.27858e-05 0)
(0.0950381 8.6986e-05 0)
(0.0999997 1.32368e-06 0)
(0.099995 3.72447e-06 0)
(0.0999858 6.20945e-06 0)
(0.0999717 1.03411e-05 0)
(0.099948 1.77753e-05 0)
(0.0999082 2.85289e-05 0)
(0.0998482 4.05229e-05 0)
(0.0997691 5.07635e-05 0)
(0.0996771 5.69972e-05 0)
(0.0995805 5.86286e-05 0)
(0.0994864 5.65796e-05 0)
(0.0993996 5.25277e-05 0)
(0.0993215 4.81171e-05 0)
(0.0992512 4.44944e-05 0)
(0.0991867 4.22045e-05 0)
(0.0991258 4.13171e-05 0)
(0.0990664 4.16293e-05 0)
(0.099007 4.28403e-05 0)
(0.0989466 4.46634e-05 0)
(0.0988846 4.68761e-05 0)
(0.0988208 4.93296e-05 0)
(0.098755 5.1938e-05 0)
(0.098687 5.46601e-05 0)
(0.098617 5.74835e-05 0)
(0.0985448 6.04121e-05 0)
(0.0984704 6.34575e-05 0)
(0.0983939 6.66342e-05 0)
(0.0983151 6.99573e-05 0)
(0.0982341 7.34414e-05 0)
(0.0981506 7.70997e-05 0)
(0.0980648 8.09447e-05 0)
(0.0979764 8.49879e-05 0)
(0.0978855 8.92403e-05 0)
(0.0977918 9.37126e-05 0)
(0.0976954 9.84153e-05 0)
(0.0975962 0.000103359 0)
(0.097494 0.000108554 0)
(0.0973888 0.000114012 0)
(0.0972805 0.000119743 0)
(0.097169 0.000125761 0)
(0.0970542 0.000132075 0)
(0.096936 0.0001387 0)
(0.0968143 0.000145648 0)
(0.0966891 0.000152934 0)
(0.0965601 0.000160571 0)
(0.0964274 0.000168575 0)
(0.0962909 0.000176962 0)
(0.0961503 0.00018575 0)
(0.0960057 0.000194956 0)
(0.095857 0.0002046 0)
(0.0957039 0.000214703 0)
(0.0955465 0.000225295 0)
(0.0953846 0.000236415 0)
(0.095218 0.00024815 0)
(0.0950466 0.000260706 0)
(0.0999997 2.20498e-06 0)
(0.099995 6.20876e-06 0)
(0.0999858 1.03469e-05 0)
(0.0999717 1.71938e-05 0)
(0.0999483 2.94918e-05 0)
(0.0999091 4.72894e-05 0)
(0.09985 6.71727e-05 0)
(0.0997721 8.42001e-05 0)
(0.0996813 9.46343e-05 0)
(0.0995855 9.74664e-05 0)
(0.099492 9.41962e-05 0)
(0.0994052 8.75813e-05 0)
(0.0993268 8.03366e-05 0)
(0.0992561 7.43629e-05 0)
(0.0991911 7.05707e-05 0)
(0.0991296 6.90862e-05 0)
(0.0990697 6.95821e-05 0)
(0.09901 7.15671e-05 0)
(0.0989493 7.457e-05 0)
(0.0988872 7.82242e-05 0)
(0.0988233 8.22838e-05 0)
(0.0987574 8.66059e-05 0)
(0.0986894 9.11217e-05 0)
(0.0986194 9.58099e-05 0)
(0.0985473 0.000100676 0)
(0.0984731 0.000105738 0)
(0.0983967 0.000111021 0)
(0.0983181 0.000116549 0)
(0.0982373 0.000122345 0)
(0.0981541 0.000128431 0)
(0.0980684 0.000134828 0)
(0.0979803 0.000141555 0)
(0.0978896 0.00014863 0)
(0.0977962 0.000156071 0)
(0.0977002 0.000163895 0)
(0.0976012 0.000172119 0)
(0.0974994 0.000180761 0)
(0.0973945 0.00018984 0)
(0.0972866 0.000199373 0)
(0.0971755 0.000209381 0)
(0.0970611 0.000219883 0)
(0.0969434 0.000230899 0)
(0.0968222 0.000242453 0)
(0.0966974 0.000254566 0)
(0.096569 0.000267263 0)
(0.0964369 0.000280568 0)
(0.096301 0.00029451 0)
(0.0961611 0.000309114 0)
(0.0960172 0.000324412 0)
(0.0958692 0.000340435 0)
(0.095717 0.00035722 0)
(0.0955604 0.000374811 0)
(0.0953994 0.000393276 0)
(0.0952338 0.000412749 0)
(0.0950635 0.000433559 0)
(0.0999997 3.08447e-06 0)
(0.099995 8.69417e-06 0)
(0.0999858 1.44798e-05 0)
(0.0999717 2.39864e-05 0)
(0.0999486 4.10185e-05 0)
(0.0999103 6.56861e-05 0)
(0.0998526 9.3311e-05 0)
(0.0997765 0.000117071 0)
(0.0996873 0.00013177 0)
(0.0995927 0.000135961 0)
(0.0994999 0.000131669 0)
(0.0994133 0.000122679 0)
(0.0993346 0.000112742 0)
(0.0992632 0.0001045 0)
(0.0991974 9.9232e-05 0)
(0.0991352 9.71359e-05 0)
(0.0990747 9.77757e-05 0)
(0.0990144 0.000100483 0)
(0.0989533 0.000104612 0)
(0.0988909 0.000109658 0)
(0.0988269 0.000115279 0)
(0.0987609 0.000121278 0)
(0.098693 0.000127556 0)
(0.0986231 0.000134083 0)
(0.0985512 0.000140864 0)
(0.0984772 0.000147924 0)
(0.098401 0.000155295 0)
(0.0983226 0.00016301 0)
(0.0982421 0.000171102 0)
(0.0981591 0.0001796 0)
(0.0980738 0.000188533 0)
(0.0979861 0.000197927 0)
(0.0978958 0.000207807 0)
(0.0978028 0.000218197 0)
(0.0977072 0.000229121 0)
(0.0976087 0.000240604 0)
(0.0975074 0.00025267 0)
(0.0974031 0.000265343 0)
(0.0972957 0.000278651 0)
(0.0971852 0.000292619 0)
(0.0970714 0.000307275 0)
(0.0969544 0.000322648 0)
(0.0968339 0.000338768 0)
(0.0967099 0.000355667 0)
(0.0965823 0.000373378 0)
(0.0964511 0.000391935 0)
(0.0963161 0.000411376 0)
(0.0961772 0.000431738 0)
(0.0960344 0.000453062 0)
(0.0958875 0.000475394 0)
(0.0957364 0.000498781 0)
(0.0955812 0.000523284 0)
(0.0954215 0.000548991 0)
(0.0952574 0.000576078 0)
(0.0950887 0.00060497 0)
(0.0999997 3.96153e-06 0)
(0.099995 1.11807e-05 0)
(0.0999858 1.86064e-05 0)
(0.0999718 3.06987e-05 0)
(0.0999491 5.22927e-05 0)
(0.0999118 8.35981e-05 0)
(0.0998559 0.000118767 0)
(0.0997819 0.000149187 0)
(0.0996948 0.000168234 0)
(0.0996019 0.000173992 0)
(0.09951 0.000168944 0)
(0.0994236 0.000157831 0)
(0.0993444 0.000145391 0)
(0.0992722 0.000134989 0)
(0.0992055 0.000128283 0)
(0.0991423 0.000125556 0)
(0.099081 0.000126287 0)
(0.09902 0.000129648 0)
(0.0989585 0.000134832 0)
(0.0988958 0.000141202 0)
(0.0988316 0.000148326 0)
(0.0987656 0.00015595 0)
(0.0986978 0.000163949 0)
(0.098628 0.000172278 0)
(0.0985562 0.000180944 0)
(0.0984825 0.000189974 0)
(0.0984066 0.000199409 0)
(0.0983286 0.000209289 0)
(0.0982484 0.000219654 0)
(0.0981659 0.000230542 0)
(0.098081 0.000241988 0)
(0.0979937 0.000254025 0)
(0.0979039 0.000266684 0)
(0.0978115 0.000279997 0)
(0.0977165 0.000293994 0)
(0.0976186 0.000308705 0)
(0.0975179 0.000324161 0)
(0.0974143 0.000340394 0)
(0.0973077 0.000357437 0)
(0.097198 0.000375323 0)
(0.0970851 0.000394088 0)
(0.0969689 0.000413769 0)
(0.0968494 0.000434402 0)
(0.0967264 0.000456029 0)
(0.0966 0.00047869 0)
(0.0964699 0.000502431 0)
(0.0963361 0.000527295 0)
(0.0961985 0.000553333 0)
(0.0960571 0.000580594 0)
(0.0959117 0.000609134 0)
(0.0957622 0.000639014 0)
(0.0956086 0.000670307 0)
(0.0954508 0.000703116 0)
(0.0952887 0.000737642 0)
(0.095122 0.000774365 0)
(0.0999997 4.83566e-06 0)
(0.099995 1.36679e-05 0)
(0.0999858 2.27247e-05 0)
(0.0999719 3.73143e-05 0)
(0.0999497 6.32635e-05 0)
(0.0999136 0.000100928 0)
(0.0998598 0.000143402 0)
(0.0997882 0.000180391 0)
(0.0997036 0.000203884 0)
(0.0996126 0.000211459 0)
(0.0995218 0.000205971 0)
(0.0994355 0.000193036 0)
(0.0993559 0.000178322 0)
(0.0992829 0.000165895 0)
(0.0992151 0.000157795 0)
(0.0991508 0.000154417 0)
(0.0990885 0.000155176 0)
(0.0990268 0.000159108 0)
(0.0989648 0.000165259 0)
(0.0989017 0.000172872 0)
(0.0988373 0.000181428 0)
(0.0987713 0.000190617 0)
(0.0987035 0.000200283 0)
(0.0986339 0.000210371 0)
(0.0985625 0.000220883 0)
(0.098489 0.000231851 0)
(0.0984135 0.000243318 0)
(0.0983359 0.000255334 0)
(0.0982562 0.000267944 0)
(0.0981742 0.000281193 0)
(0.0980899 0.000295123 0)
(0.0980032 0.000309773 0)
(0.097914 0.00032518 0)
(0.0978223 0.000341382 0)
(0.097728 0.000358415 0)
(0.0976309 0.000376314 0)
(0.097531 0.000395119 0)
(0.0974283 0.000414866 0)
(0.0973226 0.000435596 0)
(0.0972139 0.000457347 0)
(0.097102 0.000480163 0)
(0.096987 0.000504088 0)
(0.0968686 0.000529167 0)
(0.0967469 0.000555447 0)
(0.0966218 0.000582979 0)
(0.0964931 0.000611814 0)
(0.0963609 0.000642008 0)
(0.0962249 0.000673617 0)
(0.0960852 0.000706701 0)
(0.0959416 0.000741326 0)
(0.0957941 0.000777561 0)
(0.0956426 0.000815489 0)
(0.095487 0.000855222 0)
(0.0953273 0.000896966 0)
(0.0951633 0.000941204 0)
(0.0999997 5.70609e-06 0)
(0.099995 1.61555e-05 0)
(0.0999858 2.68325e-05 0)
(0.099972 4.38207e-05 0)
(0.0999503 7.3894e-05 0)
(0.0999156 0.000117603 0)
(0.099864 0.000167114 0)
(0.0997952 0.000210566 0)
(0.0997132 0.00023861 0)
(0.0996243 0.000248277 0)
(0.0995347 0.000242706 0)
(0.0994488 0.000228288 0)
(0.0993687 0.000211556 0)
(0.0992947 0.000197256 0)
(0.0992258 0.000187815 0)
(0.0991604 0.000183763 0)
(0.0990971 0.00018448 0)
(0.0990346 0.000188891 0)
(0.0989719 0.000195913 0)
(0.0989086 0.000204677 0)
(0.098844 0.000214581 0)
(0.0987779 0.000225264 0)
(0.0987103 0.000236538 0)
(0.0986409 0.000248334 0)
(0.0985698 0.000260648 0)
(0.0984967 0.000273512 0)
(0.0984217 0.000286977 0)
(0.0983446 0.000301093 0)
(0.0982654 0.000315915 0)
(0.098184 0.000331491 0)
(0.0981004 0.00034787 0)
(0.0980144 0.000365096 0)
(0.097926 0.000383213 0)
(0.0978351 0.000402262 0)
(0.0977416 0.000422287 0)
(0.0976454 0.000443329 0)
(0.0975466 0.000465431 0)
(0.0974449 0.000488637 0)
(0.0973403 0.000512993 0)
(0.0972327 0.000538546 0)
(0.0971221 0.000565344 0)
(0.0970084 0.000593437 0)
(0.0968915 0.000622879 0)
(0.0967713 0.000653724 0)
(0.0966477 0.000686029 0)
(0.0965208 0.000719854 0)
(0.0963903 0.000755262 0)
(0.0962563 0.000792318 0)
(0.0961186 0.00083109 0)
(0.0959772 0.00087165 0)
(0.095832 0.000914077 0)
(0.0956829 0.000958458 0)
(0.09553 0.00100491 0)
(0.0953731 0.0010536 0)
(0.0952122 0.00110494 0)
(0.0948603 9.16742e-05 -4.64033e-24)
(0.0946747 9.66468e-05 -4.72834e-24)
(0.0944795 0.000101934 -3.19337e-26)
(0.0942742 0.000107616 1.45201e-23)
(0.0940579 0.000113719 -4.81019e-24)
(0.0938299 0.000120258 -4.94782e-24)
(0.0935894 0.000127266 -1.5228e-23)
(0.0933355 0.000134781 1.51218e-23)
(0.0930672 0.000142841 5.17208e-24)
(0.0927836 0.000151486 0)
(0.0924836 0.000160759 5.34071e-24)
(0.0921659 0.000170707 -5.43153e-24)
(0.0918293 0.000181384 4.46654e-23)
(0.0914726 0.00019285 -9.57164e-23)
(0.0910941 0.000205181 5.11557e-23)
(0.0906923 0.000218467 4.14386e-23)
(0.0902655 0.000232821 5.31743e-23)
(0.0898115 0.000248382 -6.08793e-24)
(0.0893281 0.000265319 6.21968e-24)
(0.0888127 0.000283836 -6.35915e-24)
(0.0882623 0.000304177 0)
(0.0876733 0.000326627 6.66369e-24)
(0.0870417 0.00035152 -6.83018e-24)
(0.0863628 0.000379239 0)
(0.0856313 0.000410228 -7.19568e-24)
(0.0848408 0.000444993 0)
(0.0839841 0.000484125 -7.61107e-24)
(0.0830529 0.000528305 -1.27561e-22)
(0.0820375 0.000578338 1.35452e-22)
(0.0809267 0.00063518 -1.36012e-22)
(0.0797075 0.00069998 1.35805e-22)
(0.0783646 0.000774133 0)
(0.0768802 0.000859347 0)
(0.0752329 0.000957726 1.66688e-22)
(0.0733973 0.00107186 -1.56838e-22)
(0.0713431 0.00120494 0)
(0.0690338 0.00136082 0)
(0.0664253 0.00154404 0)
(0.0634653 0.00175971 0)
(0.0600919 0.0020131 0)
(0.0562345 0.00230863 0)
(0.0518158 0.00264806 0)
(0.046759 0.00302733 0)
(0.0410012 0.00343142 0)
(0.034519 0.00382671 -1.55574e-23)
(0.0273701 0.00415002 -5.34738e-22)
(0.0197393 0.00429532 5.33936e-22)
(0.0120172 0.00409974 5.80702e-22)
(0.00515586 0.00331285 -5.7983e-22)
(0.00105366 0.00154469 0)
(0.0948692 0.000274702 -4.69299e-24)
(0.0946838 0.000289531 -9.56763e-24)
(0.0944889 0.000305441 -5.01072e-24)
(0.0942839 0.000322484 4.67386e-24)
(0.0940679 0.00034074 -4.87569e-24)
(0.0938403 0.000360301 3.49255e-23)
(0.0936003 0.000381271 -5.48498e-23)
(0.0933469 0.000403761 5.09254e-24)
(0.0930792 0.000427884 6.79438e-23)
(0.0927963 0.000453763 -9.38402e-23)
(0.0924969 0.000481527 -9.15974e-23)
(0.0921801 0.000511315 8.07125e-23)
(0.0918444 0.000543288 0)
(0.0914886 0.000577633 5.63321e-24)
(0.0911112 0.000614573 -1.72123e-23)
(0.0907105 0.000654383 -1.95144e-22)
(0.0902849 0.000697401 1.87254e-22)
(0.0898322 0.000744045 -1.99056e-22)
(0.0893503 0.000794822 -1.86862e-23)
(0.0888364 0.000850345 6.3731e-24)
(0.0882877 0.000911341 0)
(0.0877006 0.000978669 -6.68095e-24)
(0.0870712 0.00105332 -2.15271e-22)
(0.0863948 0.00113646 4.49852e-22)
(0.0856661 0.00122939 2.48138e-22)
(0.084879 0.00133365 -4.68017e-22)
(0.0840263 0.001451 5.04037e-22)
(0.0830998 0.00158347 -5.11457e-22)
(0.0820901 0.00173347 -8.11765e-24)
(0.0809864 0.00190386 0)
(0.0797757 0.00209806 0)
(0.0784434 0.00232026 0)
(0.076972 0.00257553 0)
(0.0753411 0.00287014 -9.65847e-24)
(0.073526 0.0032118 -6.55513e-22)
(0.0714978 0.00360996 -2.81379e-23)
(0.0692216 0.00407604 6.81875e-22)
(0.0666556 0.00462347 7.43727e-22)
(0.0637501 0.00526729 -7.42741e-22)
(0.0604465 0.00602287 -2.47034e-23)
(0.0566779 0.00690298 -2.58315e-23)
(0.0523708 0.00791231 -8.92183e-22)
(0.0474506 0.00903792 8.6278e-22)
(0.0418538 0.0102342 -2.94482e-23)
(0.0355491 0.0114003 1.56661e-23)
(0.0285738 0.0123475 -1.08722e-21)
(0.0210745 0.0127601 1.08685e-21)
(0.013376 0.0121542 -2.26979e-21)
(0.00630018 0.00979578 2.23185e-21)
(0.00151956 0.00453479 -2.28709e-21)
(0.0948869 0.00045675 -2.77687e-23)
(0.094702 0.000481409 -9.73359e-24)
(0.0945077 0.000507841 3.75723e-23)
(0.0943033 0.000536125 -7.72468e-23)
(0.094088 0.000566407 1.6527e-22)
(0.0938613 0.000598859 -7.82813e-23)
(0.0936221 0.000633656 1.42417e-26)
(0.0933698 0.000670982 1.01574e-23)
(0.0931033 0.000711026 1.77042e-22)
(0.0928217 0.000753992 -1.66536e-22)
(0.0925238 0.000800094 0)
(0.0922086 0.00084957 1.46881e-26)
(0.0918747 0.000902689 0)
(0.0915208 0.000959762 1.93483e-22)
(0.0911455 0.00102117 -1.70547e-22)
(0.0907472 0.00108736 -3.67517e-22)
(0.0903241 0.00115891 2.03365e-23)
(0.0898742 0.00123652 -3.86887e-22)
(0.0893952 0.00132103 1.25036e-23)
(0.0888846 0.00141347 -4.14175e-22)
(0.0883394 0.00151503 4.26862e-22)
(0.0877563 0.00162715 -4.34867e-22)
(0.0871314 0.00175149 4.48199e-22)
(0.0864601 0.00188995 1.41048e-23)
(0.0857374 0.00204473 -1.44908e-23)
(0.0849572 0.00221835 1.49016e-23)
(0.0841127 0.00241374 -4.9917e-22)
(0.0831961 0.00263427 5.14537e-22)
(0.0821983 0.00288393 5.47622e-22)
(0.0811089 0.00316745 -5.30815e-22)
(0.0799158 0.0034905 0)
(0.0786051 0.00385995 0)
(0.0771604 0.00428419 1.8672e-23)
(0.0755627 0.00477349 1.28749e-21)
(0.0737893 0.00534048 3.16177e-23)
(0.0718138 0.00600056 -1.29648e-21)
(0.0696046 0.00677227 0)
(0.0671243 0.00767727 -2.26959e-23)
(0.0643286 0.00873965 1.58267e-21)
(0.0611656 0.00998364 -3.16123e-21)
(0.0575758 0.0114287 3.35481e-21)
(0.0534928 0.0130806 1.03252e-22)
(0.048847 0.0149154 -1.74605e-21)
(0.043573 0.0168553 -1.8946e-21)
(0.0376237 0.018732 1.95255e-21)
(0.0309944 0.0202354 1.5169e-24)
(0.023754 0.0208469 -3.32707e-23)
(0.0160971 0.0197724 2.19165e-21)
(0.00857125 0.015843 -2.12225e-21)
(0.00241511 0.0072667 -2.1225e-21)
(0.0949134 0.000637151 1.82987e-23)
(0.0947292 0.000671535 -9.28323e-24)
(0.0945357 0.000708264 1.95687e-26)
(0.0943323 0.000747574 9.5469e-24)
(0.0941181 0.000789679 -1.96679e-26)
(0.0938926 0.000834808 1.58501e-22)
(0.0936549 0.000883204 -2.99472e-22)
(0.0934042 0.000935122 1.60928e-22)
(0.0931396 0.000990831 -1.0299e-23)
(0.09286 0.00105062 1.90285e-22)
(0.0925644 0.00111478 -1.69255e-22)
(0.0922517 0.00118366 -3.51092e-22)
(0.0919206 0.00125763 7.08827e-22)
(0.0915698 0.00133714 -7.22639e-22)
(0.0911978 0.00142272 7.37131e-22)
(0.0908032 0.00151501 -7.40674e-22)
(0.090384 0.00161482 -3.92077e-22)
(0.0899383 0.00172312 2.27555e-26)
(0.089464 0.0018411 0)
(0.0889586 0.00197018 -4.03339e-22)
(0.0884191 0.00211205 4.16002e-22)
(0.0878423 0.00226871 0)
(0.0872246 0.00244244 -8.98135e-22)
(0.0865615 0.00263592 8.83563e-22)
(0.0858483 0.00285218 1.46287e-23)
(0.0850792 0.00309474 -3.67021e-26)
(0.0842479 0.00336765 1.54629e-23)
(0.0833469 0.0036756 0)
(0.0823678 0.00402413 -5.23054e-26)
(0.081301 0.00441977 0)
(0.0801354 0.00487036 -1.75656e-23)
(0.0788583 0.00538537 1.18826e-21)
(0.077455 0.00597632 -1.18794e-21)
(0.0759086 0.00665728 -1.96611e-23)
(0.0741995 0.00744544 4.0721e-23)
(0.0723048 0.00836165 -1.40506e-21)
(0.070198 0.00943083 1.36138e-21)
(0.0678482 0.0106819 2.30884e-23)
(0.0652193 0.0121464 -3.61487e-25)
(0.0622693 0.0138555 2.46784e-23)
(0.0589497 0.0158329 -1.69715e-21)
(0.055205 0.0180822 3.43281e-21)
(0.0509728 0.0205654 -1.79049e-21)
(0.0461847 0.0231705 1.85583e-21)
(0.04077 0.0256629 -1.94285e-21)
(0.0346607 0.0276188 -3.86588e-21)
(0.0278029 0.0283355 7.8873e-21)
(0.0201962 0.0267266 -3.99317e-21)
(0.0120169 0.0212283 0)
(0.00374605 0.00962301 -3.75049e-21)
(0.0949484 0.000815203 -9.07604e-24)
(0.0947652 0.000859029 -3.70626e-23)
(0.0945729 0.000905852 1.12337e-22)
(0.0943707 0.000955954 -1.51655e-22)
(0.0941582 0.00100961 6.67871e-23)
(0.0939344 0.00106713 9.79008e-24)
(0.0936988 0.00112881 -9.95145e-24)
(0.0934504 0.001195 -2.47339e-26)
(0.0931883 0.00126603 1.0297e-23)
(0.0929116 0.00134227 -2.09397e-23)
(0.0926192 0.00142411 -3.44459e-22)
(0.09231 0.001512 3.55494e-22)
(0.0919828 0.00160642 -3.4708e-22)
(0.0916362 0.00170795 3.58286e-22)
(0.0912689 0.00181727 0)
(0.0908793 0.00193524 -2.51766e-26)
(0.0904657 0.00206286 0)
(0.0900262 0.00220142 -3.86786e-22)
(0.0895586 0.00235242 4.11918e-22)
(0.0890605 0.00251769 -1.29428e-23)
(0.0885292 0.00269939 -8.72382e-22)
(0.0879616 0.00290006 8.59504e-22)
(0.0873543 0.00312262 -1.39798e-23)
(0.0867031 0.00337047 0)
(0.0860036 0.00364746 0)
(0.0852505 0.00395807 -1.00244e-21)
(0.084438 0.00430742 9.71989e-22)
(0.0835593 0.00470149 0)
(0.0826069 0.00514726 -3.33646e-23)
(0.0815722 0.005653 0)
(0.0804454 0.00622859 1.78739e-23)
(0.0792155 0.0068859 -1.84306e-23)
(0.0778701 0.00763934 -1.92009e-23)
(0.0763952 0.00850639 1.98042e-23)
(0.0747749 0.00950828 1.30429e-21)
(0.0729915 0.0106705 -1.34615e-21)
(0.071025 0.0120234 2.93082e-21)
(0.0688532 0.0136014 -2.93273e-21)
(0.0664508 0.0154418 3.11884e-21)
(0.063789 0.01758 9.30982e-23)
(0.0608341 0.0200406 -3.29004e-21)
(0.0575448 0.0228218 -2.63265e-23)
(0.0538684 0.0258689 1.29639e-24)
(0.0497342 0.029035 1.72406e-24)
(0.0450421 0.0320239 2.28549e-24)
(0.0396443 0.0343138 -5.71647e-23)
(0.0333228 0.0350506 -2.62147e-23)
(0.0258037 0.0328985 -2.48886e-23)
(0.0167793 0.0259147 0)
(0.00553725 0.0115955 7.85759e-24)
(0.0949917 0.000990303 -4.50388e-23)
(0.0948098 0.00104335 2.70924e-23)
(0.094619 0.00110006 9.26573e-24)
(0.0944187 0.00116074 1.42185e-22)
(0.0942083 0.00122575 -1.42241e-22)
(0.0939869 0.00129545 1.47083e-22)
(0.093754 0.00137022 -3.26454e-22)
(0.0935086 0.00145047 4.64641e-22)
(0.0932499 0.00153662 -3.25437e-22)
(0.092977 0.00162913 -3.37446e-22)
(0.0926888 0.00172847 -1.68634e-23)
(0.0923843 0.0018352 6.85037e-22)
(0.0920622 0.00194991 -7.2143e-22)
(0.0917213 0.00207333 3.36457e-22)
(0.0913602 0.0022063 3.62964e-22)
(0.0909774 0.00234988 3.79314e-22)
(0.0905713 0.00250533 -2.90946e-23)
(0.0901399 0.0026742 7.73087e-22)
(0.0896814 0.00285836 7.98149e-22)
(0.0891933 0.00306004 2.008e-23)
(0.0886732 0.00328189 -8.46088e-22)
(0.0881183 0.00352697 0)
(0.0875252 0.00379886 0)
(0.0868903 0.00410166 -9.43108e-22)
(0.0862096 0.00444005 9.29562e-22)
(0.0854785 0.00481944 1.00155e-21)
(0.0846916 0.00524603 -1.00304e-21)
(0.0838433 0.00572703 0)
(0.0829269 0.00627085 1.12053e-21)
(0.0819353 0.00688744 -1.12269e-21)
(0.0808604 0.0075886 0)
(0.0796933 0.00838846 -2.4325e-21)
(0.0784245 0.00930403 2.45502e-21)
(0.0770435 0.0103557 -2.03039e-23)
(0.0755393 0.0115681 -2.71898e-21)
(0.0739003 0.0129701 2.74419e-21)
(0.072115 0.0145955 0)
(0.0701716 0.0164817 3.08822e-21)
(0.0680583 0.0186675 -3.0692e-21)
(0.0657628 0.0211868 2.49127e-23)
(0.0632698 0.0240583 3.39796e-21)
(0.060557 0.0272659 -6.82112e-21)
(0.0575856 0.0307294 1.62473e-23)
(0.0542856 0.0342609 3.53157e-23)
(0.0505291 0.0375049 3.54659e-21)
(0.0460853 0.0398618 3.96746e-24)
(0.0405545 0.0403782 -3.03987e-21)
(0.0333122 0.0375706 3.1163e-21)
(0.023323 0.0292838 0)
(0.00804982 0.0128834 2.73775e-23)
(0.0950432 0.00116166 8.87146e-24)
(0.0948631 0.00122341 8.17022e-23)
(0.0946745 0.00128951 -7.28604e-23)
(0.0944767 0.0013603 9.34935e-24)
(0.094269 0.00143619 1.43668e-22)
(0.0940509 0.0015176 -1.43898e-22)
(0.0938215 0.00160499 -3.08134e-22)
(0.0935801 0.00169884 4.68515e-24)
(0.0933258 0.00179965 -5.64923e-24)
(0.0930578 0.00190796 3.42058e-22)
(0.0927751 0.00202436 -3.33962e-22)
(0.0924765 0.00214949 7.08585e-22)
(0.0921611 0.00228409 -3.53035e-22)
(0.0918276 0.00242903 1.14076e-23)
(0.0914746 0.00258535 1.16715e-23)
(0.0911007 0.0027543 7.71841e-22)
(0.0907044 0.00293743 -4.91557e-24)
(0.0902839 0.00313658 8.0556e-22)
(0.0898375 0.00335402 1.28727e-23)
(0.0893629 0.00359239 0)
(0.0888579 0.00385485 0)
(0.08832 0.00414505 -9.03651e-22)
(0.0877462 0.00446724 9.05934e-22)
(0.0871335 0.00482626 0)
(0.0864783 0.00522768 1.52425e-23)
(0.0857768 0.00567789 0)
(0.0850246 0.00618422 -1.05301e-21)
(0.0842169 0.00675521 2.14409e-21)
(0.0833487 0.00740078 -1.09116e-21)
(0.0824144 0.00813264 -2.31375e-21)
(0.081408 0.00896462 -7.84982e-23)
(0.0803234 0.00991319 -8.29996e-23)
(0.0791542 0.010998 -8.74437e-23)
(0.0778944 0.0122422 2.60459e-21)
(0.0765385 0.0136733 2.79792e-21)
(0.075082 0.0153229 -2.80458e-21)
(0.0735222 0.0172264 0)
(0.071859 0.019421 3.11133e-21)
(0.0700951 0.0219413 -3.11856e-21)
(0.0682357 0.0248113 -3.3186e-21)
(0.0662857 0.0280299 3.30033e-21)
(0.0642438 0.0315481 2.70214e-23)
(0.0620895 0.0352359 3.32731e-21)
(0.0597606 0.0388371 -1.07291e-22)
(0.0571162 0.0419141 -3.28855e-21)
(0.0538693 0.043791 2.50923e-23)
(0.0494907 0.0434856 0)
(0.0430909 0.0395748 -1.98638e-23)
(0.0327437 0.0301177 -9.03533e-22)
(0.0129825 0.012823 4.49549e-22)
(-0.000251652 0.000314245 0)
(-0.000981265 0.000511085 3.04853e-22)
(-0.00187987 0.000446099 -3.05311e-22)
(-0.00252217 0.000239468 -2.94911e-22)
(-0.00270136 -3.86245e-05 2.95354e-22)
(-0.00234822 -0.000346212 -8.77991e-24)
(-0.00144629 -0.000656682 0)
(-3.57648e-06 -0.000950639 0)
(0.00194128 -0.00121548 0)
(0.0043344 -0.00144791 0)
(0.00711753 -0.00164467 0)
(0.0102278 -0.00180475 0)
(0.0136016 -0.00192885 0)
(0.0171771 -0.00201872 0)
(0.0208956 -0.0020768 0)
(0.0247029 -0.00210602 4.32241e-23)
(0.0285498 -0.00210955 -4.07946e-23)
(0.0323926 -0.00209066 0)
(0.0361931 -0.00205263 0)
(0.0399187 -0.00199861 -1.7872e-23)
(0.0435422 -0.00193161 1.78993e-23)
(0.0470415 -0.00185442 -8.90868e-24)
(0.0503994 -0.00176961 5.17897e-25)
(0.0536029 -0.00167946 0)
(0.0566431 -0.001586 1.90427e-25)
(0.0595147 -0.00149101 0)
(0.0622151 -0.00139601 0)
(0.0647447 -0.00130227 0)
(0.0671061 -0.00121086 -1.41077e-25)
(0.0693036 -0.00112264 0)
(0.0713432 -0.00103826 2.01394e-25)
(0.0732316 -0.000958213 -2.15139e-25)
(0.0749769 -0.000882818 2.20832e-25)
(0.0765874 -0.000812271 -2.0074e-24)
(0.0780718 -0.000746645 2.00478e-24)
(0.0794389 -0.000685916 1.43197e-24)
(0.0806974 -0.000629975 -2.98063e-24)
(0.0818558 -0.000578651 1.53699e-24)
(0.0829224 -0.000531724 1.66768e-25)
(0.083905 -0.000488939 -1.51797e-25)
(0.084811 -0.000450018 0)
(0.0856471 -0.000414674 -1.21517e-25)
(0.0864197 -0.000382616 5.13001e-25)
(0.0871347 -0.000353559 -4.99303e-25)
(0.0877974 -0.000327227 7.86318e-26)
(0.0884125 -0.00030336 -1.8702e-25)
(0.0889845 -0.000281715 6.86013e-26)
(0.0895173 -0.000262067 7.84193e-26)
(0.0900144 -0.00024421 -3.71024e-26)
(0.090479 -0.000227954 2.00793e-26)
(-0.000308832 0.000903538 -1.17637e-21)
(-0.00104443 0.00144895 -1.27281e-21)
(-0.00178115 0.00125164 1.25441e-21)
(-0.00220292 0.000643525 -5.83246e-22)
(-0.00215674 -0.000174846 5.84661e-22)
(-0.00159872 -0.00107717 8.84075e-24)
(-0.000521515 -0.00199161 -1.70929e-23)
(0.00106554 -0.00284962 -5.03531e-22)
(0.00311867 -0.00363012 4.88144e-22)
(0.00558382 -0.00431593 -1.36267e-23)
(0.00840906 -0.00489675 -1.23431e-23)
(0.0115352 -0.00536987 3.26811e-22)
(0.0149024 -0.00573715 -3.27245e-22)
(0.0184527 -0.00600353 -2.48409e-22)
(0.0221313 -0.00617612 3.64545e-23)
(0.0258871 -0.00626338 2.12569e-22)
(0.029674 -0.00627459 -2.50751e-24)
(0.0334509 -0.00621935 -4.32491e-24)
(0.0371818 -0.00610728 0)
(0.0408361 -0.00594769 0)
(0.044388 -0.00574944 0)
(0.0478169 -0.00552081 -7.38651e-25)
(0.0511063 -0.00526937 2.71219e-23)
(0.0542444 -0.00500193 -2.96515e-23)
(0.0572225 -0.00472452 9.35461e-24)
(0.0600358 -0.00444241 -8.20583e-24)
(0.0626821 -0.00416014 -5.35102e-26)
(0.0651619 -0.00388154 -1.30269e-24)
(0.0674776 -0.00360981 1.41441e-25)
(0.0696336 -0.00334746 2.94668e-25)
(0.0716357 -0.00309648 -2.01833e-25)
(0.0734905 -0.00285831 5.98417e-25)
(0.0752058 -0.00263394 -6.66965e-24)
(0.0767896 -0.00242394 1.38532e-23)
(0.0782504 -0.00222854 -6.60308e-24)
(0.0795967 -0.00204766 5.88553e-25)
(0.080837 -0.00188101 -1.9459e-25)
(0.0819795 -0.00172806 0)
(0.0830321 -0.00158818 2.64102e-24)
(0.0840025 -0.00146061 -2.3466e-24)
(0.0848978 -0.00134454 -1.76517e-24)
(0.0857247 -0.0012391 2.37443e-24)
(0.0864892 -0.00114344 -1.06697e-25)
(0.0871972 -0.00105672 -4.03059e-25)
(0.0878536 -0.000978107 7.37406e-25)
(0.0884633 -0.000906843 6.54612e-26)
(0.0890305 -0.000842202 3.33984e-25)
(0.089559 -0.000783516 -1.12702e-26)
(0.0900523 -0.000730167 -9.04198e-26)
(0.0905136 -0.000681586 -6.83085e-26)
(-0.000411393 0.00137403 -1.24064e-21)
(-0.00113371 0.00213892 1.34007e-21)
(-0.00153338 0.0018076 -1.3e-21)
(-0.00152779 0.000832021 -1.97042e-23)
(-0.00104824 -0.000482381 -5.81259e-25)
(-0.000101543 -0.00192005 -1.13399e-21)
(0.00131086 -0.00336701 1.17124e-21)
(0.00316821 -0.00473862 1.03062e-21)
(0.00541378 -0.00599427 -6.39859e-23)
(0.00801011 -0.00709877 -1.77636e-21)
(0.0109094 -0.00803638 1.63619e-21)
(0.0140596 -0.00880232 -7.58506e-22)
(0.0174087 -0.00939876 -1.03334e-23)
(0.0209065 -0.00983296 0)
(0.0245049 -0.0101158 4.58103e-22)
(0.0281594 -0.0102604 -7.61544e-23)
(0.0318295 -0.0102815 -3.75945e-22)
(0.0354788 -0.0101943 9.07424e-24)
(0.0390758 -0.0100143 0)
(0.0425931 -0.00975648 0)
(0.046008 -0.00943513 6.43222e-23)
(0.0493022 -0.00906369 -6.25041e-23)
(0.0524611 -0.00865447 -3.32655e-23)
(0.0554742 -0.00821862 3.5284e-23)
(0.058334 -0.00776603 6.70602e-25)
(0.0610363 -0.00730529 -4.03174e-25)
(0.0635794 -0.00684388 1.90166e-25)
(0.065964 -0.00638814 3.55552e-24)
(0.0681925 -0.00594329 -3.53494e-24)
(0.0702693 -0.00551353 8.6284e-24)
(0.0721998 -0.00510214 -9.1291e-24)
(0.0739904 -0.00471152 -3.84363e-25)
(0.0756482 -0.00434332 -1.2095e-23)
(0.077181 -0.00399852 2.37623e-23)
(0.0785965 -0.00367751 -1.24774e-23)
(0.0799029 -0.00338023 -6.05465e-24)
(0.0811081 -0.00310617 5.35672e-24)
(0.0822199 -0.00285454 0)
(0.0832457 -0.0026243 -3.41743e-26)
(0.0841926 -0.00241422 0)
(0.0850674 -0.00222299 -3.74022e-24)
(0.0858763 -0.00204921 3.48844e-24)
(0.0866251 -0.00189148 -1.78715e-25)
(0.0873193 -0.00174843 -1.91408e-26)
(0.0879637 -0.00161872 -1.03551e-24)
(0.0885628 -0.00150108 1.74126e-24)
(0.0891207 -0.00139435 -8.42428e-25)
(0.089641 -0.00129742 2.26141e-25)
(0.090127 -0.00120927 -2.02191e-25)
(0.0905817 -0.00112895 -5.5222e-26)
(-0.000523043 0.00161626 -2.73502e-21)
(-0.00114906 0.00244634 0)
(-0.00101856 0.00197687 2.7438e-21)
(-0.00041364 0.000689603 -5.43382e-21)
(0.000670019 -0.00101328 2.70948e-21)
(0.00217019 -0.00289373 1.17872e-21)
(0.00402681 -0.00478896 -1.23727e-21)
(0.00622424 -0.00660353 1.07289e-21)
(0.00872169 -0.00826605 -2.08062e-21)
(0.0114825 -0.00973439 9.91839e-22)
(0.0144673 -0.010987 1.38412e-23)
(0.0176355 -0.0120153 6.18356e-25)
(0.0209463 -0.0128203 1.05106e-23)
(0.0243599 -0.01341 -5.75556e-22)
(0.027838 -0.0137976 5.58006e-22)
(0.0313447 -0.0139998 1.41525e-23)
(0.0348471 -0.0140352 -5.74526e-24)
(0.0383155 -0.013924 2.90697e-22)
(0.0417236 -0.0136865 -2.90343e-22)
(0.0450489 -0.0133425 -3.53527e-24)
(0.0482725 -0.0129113 0)
(0.0513791 -0.012411 3.28338e-25)
(0.0543565 -0.0118582 0)
(0.057196 -0.0112681 1.27986e-24)
(0.0598915 -0.0106542 2.41858e-25)
(0.0624398 -0.0100282 4.06988e-25)
(0.0648397 -0.0094005 -1.2166e-23)
(0.0670922 -0.00877972 1.21518e-23)
(0.0691998 -0.0081731 0)
(0.0711664 -0.00758647 5.7256e-24)
(0.0729972 -0.00702438 -5.73157e-24)
(0.0746982 -0.0064902 0)
(0.0762758 -0.00598626 -9.62221e-26)
(0.0777372 -0.00551396 1.02409e-23)
(0.0790894 -0.00507394 -2.00576e-23)
(0.0803399 -0.00466612 1.95227e-23)
(0.0814959 -0.00428989 -1.87611e-23)
(0.0825643 -0.00394422 1.78e-23)
(0.0835521 -0.00362772 -8.65989e-24)
(0.0844658 -0.00333875 -3.60877e-24)
(0.0853115 -0.00307554 3.18719e-24)
(0.086095 -0.00283621 1.71279e-25)
(0.0868215 -0.00261886 2.49324e-24)
(0.0874961 -0.00242163 -4.83461e-24)
(0.0881234 -0.00224271 2.06639e-24)
(0.0887073 -0.00208037 2.08822e-26)
(0.0892518 -0.001933 -8.35156e-26)
(0.0897602 -0.0017991 -1.67617e-26)
(0.0902357 -0.00167728 4.25496e-26)
(0.090681 -0.00156619 -3.43524e-26)
(-0.000523333 0.00155766 -2.15981e-24)
(-0.000857256 0.00229865 -2.58369e-23)
(-3.42937e-05 0.00168531 -2.46869e-23)
(0.00133283 0.000182827 -2.36108e-23)
(0.00311721 -0.00180196 -4.40337e-23)
(0.0052192 -0.00400948 -8.71603e-25)
(0.00757575 -0.00624447 1.94429e-23)
(0.0101501 -0.00839304 -1.89994e-23)
(0.0129113 -0.0103752 -1.76865e-23)
(0.0158325 -0.0121399 1.93396e-21)