/*--------------------------------*- C++ -*----------------------------------*\
| =========                 |                                                 |
| \\      /  F ield         | OpenFOAM: The Open Source CFD Toolbox           |
|  \\    /   O peration     | Version:  2412                                  |
|   \\  /    A nd           | Website:  www.openfoam.com                      |
|    \\/     M anipulation  |                                                 |
\*---------------------------------------------------------------------------*/
FoamFile
{
    version     2.0;
    format      ascii;
    arch        "LSB;label=32;scalar=64";
    class       volVectorField;
    location    "12.5";
    object      vorticity;
}
// * * * * * * * * * * * * * * * * * * * * * * * * * * * * * * * * * * * * * //

dimensions      [0 0 -1 0 0 0 0];

internalField   nonuniform List<vector> 
63420
(
(0 0 5.71185e-06)
(0 0 5.58626e-06)
(0 0 7.82659e-06)
(0 0 1.38119e-05)
(0 0 2.10302e-05)
(0 0 2.41387e-05)
(0 0 1.90819e-05)
(0 0 6.0803e-06)
(0 0 -1.07766e-05)
(0 0 -2.62334e-05)
(0 0 -3.64904e-05)
(0 0 -4.03059e-05)
(0 0 -3.86025e-05)
(0 0 -3.3382e-05)
(0 0 -2.67102e-05)
(0 0 -2.01323e-05)
(0 0 -1.45211e-05)
(0 0 -1.01875e-05)
(0 0 -7.08492e-06)
(0 0 -4.99652e-06)
(0 0 -3.66289e-06)
(0 0 -2.85076e-06)
(0 0 -2.37844e-06)
(0 0 -2.11706e-06)
(0 0 -1.98124e-06)
(0 0 -1.91735e-06)
(0 0 -1.89316e-06)
(0 0 -1.88996e-06)
(0 0 -1.89724e-06)
(0 0 -1.90922e-06)
(0 0 -1.92278e-06)
(0 0 -1.93626e-06)
(0 0 -1.94874e-06)
(0 0 -1.95975e-06)
(0 0 -1.96897e-06)
(0 0 -1.97622e-06)
(0 0 -1.98134e-06)
(0 0 -1.98424e-06)
(0 0 -1.98482e-06)
(0 0 -1.98299e-06)
(0 0 -1.97864e-06)
(0 0 -1.97163e-06)
(0 0 -1.9618e-06)
(0 0 -1.94897e-06)
(0 0 -1.93297e-06)
(0 0 -1.91355e-06)
(0 0 -1.89042e-06)
(0 0 -1.86303e-06)
(0 0 -1.82998e-06)
(0 0 -1.78679e-06)
(0 0 -1.71806e-06)
(0 0 -1.57165e-06)
(0 0 -1.17654e-06)
(0 0 8.78367e-09)
(0 4.60445e-23 3.63831e-06)
(0 0 1.71402e-05)
(0 0 1.67639e-05)
(0 0 2.34237e-05)
(0 0 4.12572e-05)
(0 0 6.28328e-05)
(0 0 7.22606e-05)
(0 0 5.74309e-05)
(0 0 1.89315e-05)
(0 0 -3.11247e-05)
(0 0 -7.71195e-05)
(0 0 -0.000107732)
(0 0 -0.000119232)
(0 0 -0.000114328)
(0 0 -9.89488e-05)
(0 0 -7.92256e-05)
(0 0 -5.97517e-05)
(0 0 -4.31251e-05)
(0 0 -3.02765e-05)
(0 0 -2.10736e-05)
(0 0 -1.48762e-05)
(0 0 -1.09171e-05)
(0 0 -8.50531e-06)
(0 0 -7.10242e-06)
(0 0 -6.32635e-06)
(0 0 -5.92395e-06)
(0 0 -5.73615e-06)
(0 0 -5.66713e-06)
(0 0 -5.66116e-06)
(0 0 -5.6868e-06)
(0 0 -5.72678e-06)
(0 0 -5.77182e-06)
(0 0 -5.81698e-06)
(0 0 -5.85954e-06)
(0 0 -5.89796e-06)
(0 0 -5.93134e-06)
(0 0 -5.95914e-06)
(0 0 -5.98101e-06)
(0 0 -5.99662e-06)
(0 0 -6.00562e-06)
(0 0 -6.00764e-06)
(0 0 -6.00232e-06)
(0 0 -5.98934e-06)
(0 0 -5.96828e-06)
(0 0 -5.93861e-06)
(0 0 -5.89971e-06)
(0 0 -5.85087e-06)
(0 0 -5.79123e-06)
(0 0 -5.71926e-06)
(0 0 -5.63089e-06)
(0 0 -5.51304e-06)
(0 0 -5.32105e-06)
(0 0 -4.90375e-06)
(0 0 -3.76472e-06)
(0 0 -3.28806e-07)
(0 4.65103e-23 1.02242e-05)
(0 0 2.85692e-05)
(0 0 2.79361e-05)
(0 0 3.88655e-05)
(0 0 6.82803e-05)
(0 0 0.000104105)
(0 0 0.000120233)
(0 0 9.65965e-05)
(0 0 3.39257e-05)
(0 0 -4.80468e-05)
(0 0 -0.000123696)
(0 0 -0.000174342)
(0 0 -0.000193728)
(0 0 -0.000186184)
(0 0 -0.00016137)
(0 0 -0.000129321)
(0 0 -9.75832e-05)
(0 0 -7.04383e-05)
(0 0 -4.94368e-05)
(0 0 -3.4381e-05)
(0 0 -2.42349e-05)
(0 0 -1.77493e-05)
(0 0 -1.37962e-05)
(0 0 -1.14954e-05)
(0 0 -1.02219e-05)
(0 0 -9.56131e-06)
(0 0 -9.25294e-06)
(0 0 -9.13966e-06)
(0 0 -9.13004e-06)
(0 0 -9.17253e-06)
(0 0 -9.23882e-06)
(0 0 -9.31365e-06)
(0 0 -9.38884e-06)
(0 0 -9.4599e-06)
(0 0 -9.52433e-06)
(0 0 -9.58071e-06)
(0 0 -9.62818e-06)
(0 0 -9.66614e-06)
(0 0 -9.69397e-06)
(0 0 -9.7111e-06)
(0 0 -9.71697e-06)
(0 0 -9.71103e-06)
(0 0 -9.69271e-06)
(0 0 -9.66127e-06)
(0 0 -9.61585e-06)
(0 0 -9.55547e-06)
(0 0 -9.47905e-06)
(0 0 -9.3852e-06)
(0 0 -9.27143e-06)
(0 0 -9.13136e-06)
(0 0 -8.9447e-06)
(0 0 -8.64239e-06)
(0 0 -7.98997e-06)
(0 0 -6.2145e-06)
(0 0 -8.52834e-07)
(0 2.74538e-22 1.56649e-05)
(0 0 3.99986e-05)
(0 0 3.90989e-05)
(0 0 5.40574e-05)
(0 0 9.46236e-05)
(0 0 0.00014452)
(0 0 0.00016795)
(0 0 0.000137051)
(0 0 5.2332e-05)
(0 0 -5.94994e-05)
(0 0 -0.000163382)
(0 0 -0.000233543)
(0 0 -0.000261134)
(0 0 -0.000251844)
(0 0 -0.000218751)
(0 0 -0.000175541)
(0 0 -0.000132551)
(0 0 -9.56848e-05)
(0 0 -6.71107e-05)
(0 0 -4.65989e-05)
(0 0 -3.27613e-05)
(0 0 -2.39079e-05)
(0 0 -1.8507e-05)
(0 0 -1.53609e-05)
(0 0 -1.36179e-05)
(0 0 -1.27124e-05)
(0 0 -1.22886e-05)
(0 0 -1.21318e-05)
(0 0 -1.21172e-05)
(0 0 -1.21742e-05)
(0 0 -1.22641e-05)
(0 0 -1.23659e-05)
(0 0 -1.24683e-05)
(0 0 -1.25654e-05)
(0 0 -1.26537e-05)
(0 0 -1.27313e-05)
(0 0 -1.2797e-05)
(0 0 -1.28499e-05)
(0 0 -1.28891e-05)
(0 0 -1.2914e-05)
(0 0 -1.29238e-05)
(0 0 -1.29177e-05)
(0 0 -1.28949e-05)
(0 0 -1.28544e-05)
(0 0 -1.27951e-05)
(0 0 -1.27156e-05)
(0 0 -1.26146e-05)
(0 0 -1.24901e-05)
(0 0 -1.23389e-05)
(0 0 -1.21529e-05)
(0 0 -1.19068e-05)
(0 0 -1.15147e-05)
(0 0 -1.06844e-05)
(0 0 -8.44643e-06)
(0 0 -1.68922e-06)
(0 -1.80265e-22 1.92215e-05)
(0 0 5.14273e-05)
(0 0 5.02481e-05)
(0 0 6.89178e-05)
(0 0 0.000120064)
(0 0 0.000183787)
(0 0 0.000215302)
(0 0 0.000179163)
(0 0 7.51928e-05)
(0 0 -6.37814e-05)
(0 0 -0.000194016)
(0 0 -0.000282997)
(0 0 -0.000319206)
(0 0 -0.000309344)
(0 0 -0.000269494)
(0 0 -0.000216654)
(0 0 -0.000163747)
(0 0 -0.00011821)
(0 0 -8.28297e-05)
(0 0 -5.73859e-05)
(0 0 -4.01966e-05)
(0 0 -2.91852e-05)
(0 0 -2.24601e-05)
(0 0 -1.8538e-05)
(0 0 -1.63619e-05)
(0 0 -1.52291e-05)
(0 0 -1.46967e-05)
(0 0 -1.44975e-05)
(0 0 -1.4476e-05)
(0 0 -1.45444e-05)
(0 0 -1.46541e-05)
(0 0 -1.47791e-05)
(0 0 -1.49053e-05)
(0 0 -1.50252e-05)
(0 0 -1.51345e-05)
(0 0 -1.52308e-05)
(0 0 -1.53127e-05)
(0 0 -1.53789e-05)
(0 0 -1.54286e-05)
(0 0 -1.54608e-05)
(0 0 -1.54745e-05)
(0 0 -1.54689e-05)
(0 0 -1.54428e-05)
(0 0 -1.53951e-05)
(0 0 -1.53244e-05)
(0 0 -1.52291e-05)
(0 0 -1.51074e-05)
(0 0 -1.49571e-05)
(0 0 -1.47742e-05)
(0 0 -1.45499e-05)
(0 0 -1.42566e-05)
(0 0 -1.38014e-05)
(0 0 -1.28677e-05)
(0 0 -1.03997e-05)
(0 0 -2.96704e-06)
(0 8.89926e-23 2.02143e-05)
(0 0 6.28538e-05)
(0 0 6.13788e-05)
(0 0 8.33821e-05)
(0 0 0.000144422)
(0 0 0.000221663)
(0 0 0.000262166)
(0 0 0.000223166)
(0 0 0.000103249)
(0 0 -5.96451e-05)
(0 0 -0.00021399)
(0 0 -0.000320948)
(0 0 -0.000366248)
(0 0 -0.000357192)
(0 0 -0.000312382)
(0 0 -0.000251725)
(0 0 -0.000190482)
(0 0 -0.00013752)
(0 0 -9.62417e-05)
(0 0 -6.6488e-05)
(0 0 -4.63502e-05)
(0 0 -3.34298e-05)
(0 0 -2.55274e-05)
(0 0 -2.09116e-05)
(0 0 -1.83458e-05)
(0 0 -1.70062e-05)
(0 0 -1.63732e-05)
(0 0 -1.61329e-05)
(0 0 -1.61023e-05)
(0 0 -1.61781e-05)
(0 0 -1.63032e-05)
(0 0 -1.64468e-05)
(0 0 -1.65923e-05)
(0 0 -1.67309e-05)
(0 0 -1.68576e-05)
(0 0 -1.69696e-05)
(0 0 -1.70652e-05)
(0 0 -1.71429e-05)
(0 0 -1.72016e-05)
(0 0 -1.72403e-05)
(0 0 -1.72579e-05)
(0 0 -1.72533e-05)
(0 0 -1.72253e-05)
(0 0 -1.71724e-05)
(0 0 -1.70931e-05)
(0 0 -1.69855e-05)
(0 0 -1.68477e-05)
(0 0 -1.66769e-05)
(0 0 -1.64691e-05)
(0 0 -1.62151e-05)
(0 0 -1.58881e-05)
(0 0 -1.53989e-05)
(0 0 -1.44462e-05)
(0 0 -1.20237e-05)
(0 0 -4.81245e-06)
(0 4.39099e-22 1.79678e-05)
(0 0 7.42727e-05)
(0 0 7.24851e-05)
(0 0 9.7405e-05)
(0 0 0.000167571)
(0 0 0.000257962)
(0 0 0.000308408)
(0 0 0.000269134)
(0 0 0.000136893)
(0 0 -4.63671e-05)
(0 0 -0.000222332)
(0 0 -0.000346317)
(0 0 -0.000401203)
(0 0 -0.000394452)
(0 0 -0.000346647)
(0 0 -0.000280162)
(0 0 -0.00021232)
(0 0 -0.000153306)
(0 0 -0.000107131)
(0 0 -7.37532e-05)
(0 0 -5.1112e-05)
(0 0 -3.65576e-05)
(0 0 -2.76398e-05)
(0 0 -2.24212e-05)
(0 0 -1.95133e-05)
(0 0 -1.79897e-05)
(0 0 -1.72648e-05)
(0 0 -1.69845e-05)
(0 0 -1.6942e-05)
(0 0 -1.70207e-05)
(0 0 -1.71559e-05)
(0 0 -1.73128e-05)
(0 0 -1.74726e-05)
(0 0 -1.76252e-05)
(0 0 -1.77651e-05)
(0 0 -1.78891e-05)
(0 0 -1.79952e-05)
(0 0 -1.80818e-05)
(0 0 -1.81477e-05)
(0 0 -1.81917e-05)
(0 0 -1.82126e-05)
(0 0 -1.82093e-05)
(0 0 -1.81802e-05)
(0 0 -1.81238e-05)
(0 0 -1.80384e-05)
(0 0 -1.7922e-05)
(0 0 -1.77722e-05)
(0 0 -1.75863e-05)
(0 0 -1.736e-05)
(0 0 -1.70848e-05)
(0 0 -1.6737e-05)
(0 0 -1.62408e-05)
(0 0 -1.53492e-05)
(0 0 -1.32591e-05)
(0 0 -7.33951e-06)
(0 -8.59175e-23 1.16816e-05)
(-1.58516e-23 7.98789e-21 1.89184e-06)
(-1.49435e-22 7.85364e-21 1.33519e-06)
(3.45011e-23 -2.00288e-22 5.39991e-07)
(3.5195e-23 -2.34566e-20 -5.61888e-07)
(-9.41304e-23 8.01785e-21 -2.04123e-06)
(3.71329e-22 7.87577e-21 -3.9752e-06)
(-8.06423e-22 2.29574e-20 -6.44561e-06)
(3.15157e-22 -2.33344e-20 -9.53735e-06)
(6.36062e-22 -7.50602e-21 -1.3335e-05)
(-9.11727e-22 -3.75356e-24 -1.79153e-05)
(-9.12755e-22 -7.5259e-21 -2.3336e-05)
(7.99812e-22 7.14466e-21 -2.96231e-05)
(5.66072e-22 -5.89196e-20 -3.67578e-05)
(-1.04072e-21 1.26537e-19 -4.46667e-05)
(3.53345e-22 -6.8105e-20 -5.32167e-05)
(-1.25568e-21 -5.13575e-20 -6.22134e-05)
(2.38016e-21 -6.53888e-20 -7.14193e-05)
(-1.87603e-21 7.71679e-21 -8.05631e-05)
(-1.9475e-22 -7.19571e-21 -8.93936e-05)
(7.6973e-23 7.20403e-21 -9.76772e-05)
(-3.18208e-24 -1.30152e-22 -0.000105253)
(-7.24373e-23 -6.95296e-21 -0.000112062)
(-2.02856e-21 7.01833e-21 -0.000118164)
(4.25224e-21 1.3049e-23 -0.000123752)
(1.24545e-21 6.82072e-21 -0.000129152)
(-3.31252e-21 -5.38524e-24 -0.00013481)
(4.77192e-21 7.94351e-21 -0.000141276)
(-5.54041e-21 1.03013e-19 -0.000149176)
(6.3875e-22 -1.10632e-19 -0.000159199)
(-2.10321e-21 1.01215e-19 -0.000172093)
(2.04755e-21 -1.02373e-19 -0.000188686)
(4.90497e-23 1.35633e-21 -0.000209962)
(-6.39153e-23 -1.66703e-21 -0.000237214)
(2.74454e-21 -9.72139e-20 -0.000272351)
(-8.70506e-21 9.43643e-20 -0.000318474)
(-3.23378e-22 -1.56698e-21 -0.00038091)
(6.28728e-21 1.37509e-23 -0.000469041)
(6.8447e-21 1.497e-23 -0.000599398)
(-6.8228e-21 -1.49221e-23 -0.000800669)
(-2.26499e-22 -4.95376e-25 -0.00112138)
(-2.364e-22 -5.1703e-25 -0.00164089)
(-8.14967e-21 -1.78241e-23 -0.00248378)
(7.8664e-21 1.72046e-23 -0.00383654)
(-2.60214e-22 1.55001e-22 -0.00596309)
(-2.70478e-23 8.02615e-21 -0.00921302)
(-2.52397e-20 5.1986e-20 -0.0140127)
(2.43081e-20 -6.85164e-20 -0.0208257)
(-5.71642e-21 -9.79692e-21 -0.0300662)
(6.28366e-21 2.66867e-20 -0.0419598)
(-2.09035e-20 -5.83625e-21 -0.0562618)
(-2.60658e-22 8.00174e-21 5.29892e-06)
(-1.01645e-22 1.57398e-20 3.56854e-06)
(3.13741e-22 7.65643e-21 1.076e-06)
(-8.88504e-22 -7.86732e-21 -2.37963e-06)
(1.64872e-21 7.50177e-21 -7.00878e-06)
(-5.23911e-22 -5.37707e-20 -1.30314e-05)
(-1.93896e-22 8.54054e-20 -2.06852e-05)
(-5.95812e-23 -8.91828e-21 -3.0222e-05)
(2.17457e-21 -9.83765e-20 -4.1895e-05)
(-2.24604e-21 1.38949e-19 -5.59359e-05)
(-7.92701e-22 1.26952e-19 -7.25227e-05)
(5.79625e-22 -1.14255e-19 -9.17412e-05)
(-3.98202e-22 7.47079e-22 -0.000113546)
(2.83794e-21 -7.27649e-21 -0.000137732)
(-2.20054e-21 2.42398e-20 -0.000163916)
(-5.92172e-21 2.40543e-19 -0.00019154)
(1.51905e-21 -2.26298e-19 -0.000219898)
(-5.52068e-21 2.42546e-19 -0.000248245)
(-2.84489e-22 1.96104e-20 -0.000275834)
(-3.88755e-21 -7.36497e-21 -0.000302012)
(4.10585e-21 1.46867e-22 -0.000326316)
(-4.11311e-21 9.17608e-21 -0.000348581)
(1.2421e-21 2.1108e-19 -0.000369018)
(5.54684e-21 -4.47218e-19 -0.000388227)
(4.3011e-21 -2.1382e-19 -0.000407208)
(-6.60382e-21 4.32793e-19 -0.000427324)
(3.14634e-21 -4.32128e-19 -0.000450241)
(-1.43844e-21 4.43444e-19 -0.000477871)
(3.32978e-21 1.43264e-21 -0.000512316)
(-3.76347e-21 -9.86119e-23 -0.000555865)
(-1.26452e-21 -2.76564e-24 -0.00061107)
(0 0 -0.000680959)
(1.87058e-22 9.70918e-23 -0.000769517)
(1.11963e-20 1.25079e-20 -0.000882614)
(-1.52904e-20 3.64518e-19 -0.00102974)
(-1.59744e-20 -2.4181e-20 -0.00122718)
(1.81655e-20 -3.59976e-19 -0.00150352)
(2.62599e-20 -3.11677e-19 -0.00190908)
(-8.78717e-21 3.33032e-19 -0.00253109)
(-3.16815e-20 2.19902e-21 -0.00351695)
(3.10317e-20 1.76606e-20 -0.0051074)
(-4.22587e-20 2.38856e-19 -0.00767988)
(2.25564e-20 -2.48498e-19 -0.0117986)
(-1.84041e-20 1.49752e-20 -0.0182609)
(2.04249e-20 7.92715e-21 -0.028122)
(-6.10514e-20 1.16274e-19 -0.0426678)
(6.09869e-20 -1.13799e-19 -0.0632922)
(-9.44071e-20 8.53003e-20 -0.0912218)
(9.10993e-20 -9.523e-20 -0.127062)
(-1.92859e-20 -6.5523e-22 -0.168658)
(-1.90268e-23 4.73918e-20 8.48581e-06)
(-8.10522e-23 1.49775e-20 5.3843e-06)
(3.57155e-22 -6.20725e-20 8.47928e-07)
(-7.4997e-22 1.23525e-19 -5.44359e-06)
(1.66315e-21 -2.64512e-19 -1.38093e-05)
(4.64765e-22 1.25823e-19 -2.45937e-05)
(-2.49099e-21 -8.86339e-22 -3.81741e-05)
(1.58234e-21 -1.71335e-20 -5.49601e-05)
(1.34699e-21 -2.58284e-19 -7.5372e-05)
(9.13143e-22 2.46178e-19 -9.98037e-05)
(-8.73483e-22 -1.65718e-21 -0.000128568)
(-4.28497e-21 -1.58819e-23 -0.000161834)
(6.80214e-21 -1.88319e-21 -0.000199564)
(-4.22904e-21 -2.52197e-19 -0.000241466)
(5.4357e-21 2.2931e-19 -0.000286964)
(-1.12246e-20 4.55671e-19 -0.000335198)
(-4.9805e-21 -1.22715e-20 -0.000385089)
(-4.35508e-21 4.69006e-19 -0.000435472)
(4.03732e-22 -1.42418e-20 -0.000485219)
(-1.20422e-20 4.55862e-19 -0.00053334)
(1.19382e-20 -4.73501e-19 -0.00057915)
(-8.68289e-21 4.52565e-19 -0.000622472)
(1.7511e-21 -4.70788e-19 -0.00066374)
(5.2952e-21 -9.34344e-21 -0.000704036)
(-2.61227e-21 1.38127e-20 -0.000745101)
(5.61271e-21 -8.8559e-21 -0.000789284)
(-1.83329e-20 4.25445e-19 -0.000839455)
(1.63716e-20 -4.53608e-19 -0.000898905)
(1.78205e-20 -4.21893e-19 -0.000971279)
(-1.44851e-20 4.23981e-19 -0.00106057)
(-1.10355e-21 -5.26853e-21 -0.00117125)
(1.14298e-20 -1.23708e-22 -0.00130867)
(-1.31195e-20 -2.51871e-20 -0.00147982)
(5.21172e-20 -7.73932e-19 -0.00169496)
(1.69555e-20 5.65578e-20 -0.00197055)
(-6.94648e-20 7.29544e-19 -0.00233464)
(4.04493e-21 -1.2598e-20 -0.00283627)
(-1.16602e-20 -5.04598e-21 -0.00356159)
(1.10214e-19 -6.15129e-19 -0.0046596)
(-2.04904e-19 1.20915e-18 -0.00638172)
(2.09251e-19 -1.20344e-18 -0.00913783)
(7.33482e-20 8.63572e-20 -0.0135693)
(-1.59007e-19 5.28288e-19 -0.0206329)
(-1.67932e-19 3.65656e-19 -0.0316794)
(1.58537e-19 -4.33603e-19 -0.0484951)
(-2.28962e-20 2.00379e-20 -0.0732593)
(5.65818e-20 -1.78802e-20 -0.108334)
(1.70167e-19 -1.05877e-19 -0.155754)
(-1.84164e-19 1.65116e-19 -0.216337)
(-2.61146e-20 -4.22662e-20 -0.281778)
(3.95219e-22 -3.12495e-20 1.11843e-05)
(-3.65694e-22 1.5809e-20 6.24813e-06)
(7.08454e-22 -1.75545e-22 -1.07238e-06)
(-6.39861e-22 -1.55549e-20 -1.11548e-05)
(-9.88007e-22 -1.47804e-21 -2.43711e-05)
(3.23747e-21 -2.44183e-19 -4.11465e-05)
(-4.47067e-21 4.6255e-19 -6.19776e-05)
(2.16224e-21 -2.49127e-19 -8.74257e-05)
(-1.8526e-21 1.50262e-20 -0.000118085)
(4.73674e-21 -2.72857e-19 -0.000154528)
(-5.77662e-21 2.49095e-19 -0.000197233)
(-3.77319e-21 4.75423e-19 -0.000246496)
(1.01477e-20 -9.6221e-19 -0.000302345)
(-1.2345e-20 9.61438e-19 -0.000364478)
(1.66173e-20 -9.57176e-19 -0.000432222)
(-1.05285e-20 9.49029e-19 -0.000504535)
(-9.56601e-21 4.8261e-19 -0.000580083)
(-7.16598e-22 -3.85313e-21 -0.000657435)
(4.60905e-21 3.99947e-21 -0.000735228)
(-7.05867e-21 4.45823e-19 -0.000812279)
(-2.76763e-21 -4.6832e-19 -0.000887848)
(1.51187e-20 1.30273e-20 -0.000961895)
(-3.24404e-20 9.00121e-19 -0.00103522)
(2.41305e-20 -9.03322e-19 -0.00110952)
(2.29186e-21 -5.29827e-21 -0.00118742)
(-9.97542e-21 -9.1384e-23 -0.0012724)
(1.51062e-20 -1.36772e-20 -0.00136871)
(-4.92332e-21 1.26248e-22 -0.00148124)
(-5.41936e-21 -6.37645e-23 -0.00161542)
(5.14934e-21 2.0023e-22 -0.00177729)
(-3.76162e-21 1.35547e-21 -0.00197366)
(6.17636e-20 -8.02582e-19 -0.00221265)
(-5.57287e-20 8.25603e-19 -0.00250491)
(-1.64145e-20 1.3449e-22 -0.00286579)
(1.90841e-20 -1.03936e-20 -0.00331962)
(-9.81512e-20 7.39507e-19 -0.00390742)
(1.15231e-19 -7.42948e-19 -0.00470046)
(-2.33528e-20 2.30626e-21 -0.00582338)
(1.6486e-20 -8.85726e-23 -0.00749144)
(3.91983e-20 6.68669e-21 -0.0100674)
(-2.5153e-19 5.5812e-19 -0.0141419)
(3.71658e-19 -1.1326e-18 -0.0206384)
(-1.81484e-19 5.74371e-19 -0.0309332)
(2.66734e-19 -4.41039e-19 -0.0469711)
(-2.5793e-19 5.19871e-19 -0.0713357)
(-6.06187e-19 5.38175e-19 -0.107207)
(1.1462e-18 -1.14155e-18 -0.158082)
(-5.62168e-19 5.77018e-19 -0.226973)
(1.94373e-20 -2.27359e-21 -0.314717)
(4.70254e-21 -3.6153e-20 -0.398987)
(-7.43311e-22 1.58919e-20 1.29674e-05)
(-2.41873e-22 6.08187e-20 5.16187e-06)
(1.89895e-21 -1.84736e-19 -6.38493e-06)
(-1.17684e-21 2.47978e-19 -2.19231e-05)
(-3.4894e-22 -1.09845e-19 -4.17864e-05)
(1.04641e-22 -1.46678e-20 -6.64479e-05)
(-4.73543e-22 1.5482e-20 -9.652e-05)
(3.09857e-21 -1.91084e-22 -0.00013273)
(-2.962e-21 -1.51336e-20 -0.00017587)
(-5.33872e-21 3.40126e-20 -0.000226728)
(-6.63708e-21 4.83545e-19 -0.000285997)
(1.8338e-20 -5.02641e-19 -0.000354164)
(-2.27321e-20 4.69093e-19 -0.000431413)
(1.88226e-20 -4.88018e-19 -0.000517541)
(-3.07432e-21 3.47525e-21 -0.000611916)
(1.1228e-20 4.847e-23 -0.000713476)
(4.2729e-21 3.79659e-21 -0.00082082)
(-4.58529e-21 4.56367e-19 -0.000932458)
(1.98212e-20 -4.93972e-19 -0.001047)
(6.50011e-21 2.73054e-20 -0.00116331)
(-4.45871e-20 9.41938e-19 -0.00128083)
(2.76005e-20 -9.44845e-19 -0.00139988)
(1.04244e-20 2.29313e-20 -0.00152184)
(-1.84266e-20 -2.38178e-22 -0.00164929)
(1.20573e-20 9.83944e-21 -0.00178597)
(-3.66767e-20 9.0738e-19 -0.00193678)
(2.9826e-20 -8.99058e-19 -0.00210768)
(2.89673e-21 9.82411e-21 -0.00230553)
(9.84953e-21 2.75849e-20 -0.00253807)
(-1.17543e-20 -5.61341e-22 -0.00281394)
(1.1557e-21 -1.32091e-20 -0.00314299)
(-3.80828e-20 1.34215e-20 -0.00353703)
(3.59378e-20 1.27969e-20 -0.00401127)
(-3.25836e-21 -2.57531e-20 -0.00458729)
(8.07023e-20 -7.5236e-19 -0.00529853)
(-7.14248e-20 7.75427e-19 -0.00620034)
(2.68078e-19 -1.49508e-18 -0.00738788)
(-2.45041e-19 1.50963e-18 -0.00902662)
(3.06101e-19 -1.41592e-18 -0.0114018)
(7.39002e-20 1.33531e-19 -0.0149944)
(-3.53322e-19 1.35054e-18 -0.020588)
(-1.24284e-19 -2.28395e-20 -0.0294097)
(1.69078e-20 3.89301e-22 -0.0432935)
(-1.89369e-20 5.70333e-22 -0.064847)
(5.58971e-20 1.71036e-21 -0.0975821)
(2.69979e-20 1.40024e-20 -0.145949)
(-1.16724e-19 5.30209e-21 -0.215108)
(6.64446e-20 5.15083e-21 -0.309889)
(-1.70662e-22 -3.20384e-22 -0.431673)
(3.71935e-20 6.62035e-22 -0.530942)
(-6.59533e-22 7.65642e-20 1.31475e-05)
(1.64986e-21 -4.67001e-20 1.57159e-07)
(-1.72331e-21 -1.64878e-20 -1.82102e-05)
(4.57165e-21 -2.28833e-19 -4.18109e-05)
(-2.13131e-21 2.30744e-19 -7.09181e-05)
(1.85726e-21 -2.28351e-19 -0.000106094)
(-1.07309e-20 5.03605e-19 -0.00014812)
(1.11265e-20 -7.05487e-19 -0.000197939)
(-7.14062e-21 4.99043e-19 -0.000256595)
(-5.5133e-21 4.86445e-19 -0.000325151)
(-2.20763e-21 3.88624e-21 -0.000404583)
(2.38183e-20 -9.55816e-19 -0.000495664)
(-2.05644e-20 9.95061e-19 -0.000598848)
(4.63237e-21 -4.68332e-19 -0.00071418)
(1.1663e-20 -4.70639e-19 -0.000841251)
(2.20843e-20 -4.63235e-19 -0.000979193)
(-3.1402e-21 6.87181e-21 -0.00112679)
(3.74871e-20 -9.60872e-19 -0.00128276)
(2.83325e-20 -9.22799e-19 -0.00144599)
(6.53555e-21 2.12941e-20 -0.0016157)
(-2.50663e-20 9.58842e-19 -0.00179183)
(-2.05485e-20 -8.25058e-21 -0.0019754)
(1.25449e-20 9.13188e-21 -0.00216876)
(-4.89097e-20 9.29654e-19 -0.00237569)
(3.92342e-20 -9.44656e-19 -0.00260149)
(7.10891e-20 -9.07802e-19 -0.00285295)
(-7.23372e-20 9.38007e-19 -0.00313829)
(1.53835e-20 -2.04303e-20 -0.00346705)
(6.54615e-20 -9.0654e-19 -0.00385007)
(-9.37809e-20 9.29878e-19 -0.00429963)
(4.46623e-21 1.2625e-20 -0.00482979)
(-2.03697e-19 1.70583e-18 -0.00545738)
(1.83323e-19 -1.77016e-18 -0.00620374)
(4.9645e-20 6.33496e-20 -0.00709825)
(-2.64597e-19 1.61817e-18 -0.00818495)
(2.41705e-19 -1.68764e-18 -0.00953474)
(-3.23803e-20 -3.44517e-21 -0.0112673)
(4.73656e-19 -1.52537e-18 -0.0135888)
(-4.42788e-19 1.57575e-18 -0.0168541)
(-6.82063e-20 -7.43714e-20 -0.0216626)
(6.87174e-19 -1.3356e-18 -0.0289964)
(-1.20784e-18 2.75746e-18 -0.0404022)
(-6.9603e-20 -1.5735e-19 -0.0582105)
(-9.3286e-20 -1.23094e-19 -0.0857732)
(7.86801e-19 -1.20542e-18 -0.127706)
(4.07395e-20 6.49581e-20 -0.19015)
(-8.97605e-19 8.0383e-19 -0.281058)
(8.80157e-19 -8.83835e-19 -0.409935)
(9.92558e-21 2.98569e-20 -0.583533)
(9.74023e-21 -2.84224e-21 -0.703737)
(6.07114e-22 -1.59627e-20 1.07972e-05)
(1.57098e-21 -1.36029e-19 -1.28936e-05)
(-1.71193e-21 1.22709e-19 -4.19965e-05)
(-1.32062e-21 -1.73184e-20 -7.68091e-05)
(5.18646e-21 -2.27446e-19 -0.00011791)
(-4.76418e-21 2.34045e-19 -0.000166105)
(-5.34588e-21 4.72719e-19 -0.000222414)
(-5.22725e-21 -1.95203e-20 -0.000288026)
(2.28768e-21 -4.56944e-21 -0.000364243)
(1.40976e-20 -5.04227e-19 -0.000452398)
(-1.13445e-20 4.71954e-19 -0.000553748)
(1.66175e-20 -9.98692e-19 -0.000669349)
(-3.39213e-21 4.99373e-19 -0.000799936)
(-3.75929e-21 -1.88483e-20 -0.000945828)
(-5.00657e-21 -2.25989e-20 -0.00110687)
(2.71928e-20 -9.80819e-19 -0.00128244)
(-1.51486e-21 -2.00645e-20 -0.00147155)
(2.58482e-20 -9.9929e-19 -0.00167314)
(-5.55964e-21 -7.6539e-21 -0.00188636)
(-1.71889e-22 1.21985e-22 -0.00211072)
(1.17e-20 8.62061e-21 -0.00234647)
(-5.10192e-20 9.62751e-19 -0.00259506)
(4.51443e-20 -9.83632e-19 -0.00285932)
(1.30544e-20 8.52315e-21 -0.00314363)
(-8.95243e-21 -1.50888e-20 -0.00345392)
(-6.30598e-21 1.01224e-20 -0.00379764)
(-7.17083e-20 9.31193e-19 -0.00418365)
(1.54554e-19 -1.90059e-18 -0.004622)
(-7.2975e-20 9.91778e-19 -0.00512377)
(-1.8718e-19 1.83928e-18 -0.00570102)
(-3.0898e-20 -4.51496e-20 -0.00636689)
(2.88013e-21 -2.56684e-20 -0.00713617)
(-6.74373e-20 -5.36054e-20 -0.00802664)
(2.54905e-19 -1.84194e-18 -0.00906207)
(3.97695e-19 -1.70707e-18 -0.0102783)
(-3.5387e-19 1.79222e-18 -0.0117354)
(-3.48259e-20 -5.63365e-20 -0.0135403)
(4.73192e-19 -1.6367e-18 -0.0158882)
(-4.15875e-19 1.73427e-18 -0.0191329)
(-6.73747e-19 1.54295e-18 -0.0239002)
(5.70916e-19 -1.63015e-18 -0.0312582)
(8.04203e-20 -1.15623e-20 -0.0429527)
(8.84514e-19 -1.44686e-18 -0.0617033)
(1.27529e-19 1.22831e-19 -0.0915472)
(-1.0261e-18 1.42006e-18 -0.138228)
(-1.68011e-20 -4.08667e-20 -0.209702)
(3.459e-20 5.42513e-22 -0.317497)
(-3.52892e-20 1.58135e-20 -0.48177)
(-5.31746e-19 5.56728e-19 -0.741215)
(5.23166e-19 -5.65855e-19 -1.02208)
(-1.04196e-20 -3.02166e-21 0.00946432)
(-1.00899e-20 -3.95274e-22 0.00279571)
(9.45091e-21 9.44606e-21 -0.00276243)
(-7.35361e-21 3.6904e-22 -0.00729091)
(7.8501e-21 -9.24658e-21 -0.0108805)
(-4.53562e-23 3.10424e-21 -0.0136303)
(-1.51164e-22 -8.74664e-23 -0.0156399)
(-4.59094e-21 1.00409e-23 -0.0170077)
(4.45896e-21 -9.75219e-24 -0.0178256)
(-1.24706e-22 2.72745e-25 -0.0181767)
(-1.1317e-22 2.47515e-25 -0.0181393)
(3.00207e-21 -6.56583e-24 -0.0177865)
(-3.01172e-21 6.58693e-24 -0.0171838)
(-2.29048e-21 5.0095e-24 -0.0163899)
(3.5425e-22 -4.32435e-22 -0.0154564)
(4.97713e-21 3.36218e-20 -0.0144283)
(-2.76775e-21 -3.05788e-20 -0.0133435)
(-2.45387e-23 -4.07894e-22 -0.0122343)
(-6.45498e-24 1.78494e-22 -0.0111269)
(-2.63045e-21 -5.26635e-20 -0.0100425)
(2.6456e-21 5.25018e-20 -0.00899768)
(-2.01607e-21 -5.76085e-20 -0.00800504)
(4.41087e-22 3.92436e-21 -0.00707364)
(-2.78761e-22 3.88704e-24 -0.00620902)
(3.20078e-22 4.52104e-21 -0.00541487)
(-6.02496e-23 2.07375e-24 -0.00469238)
(-5.05785e-25 1.1062e-27 -0.00404137)
(-1.23739e-23 1.43594e-24 -0.0034601)
(1.95917e-22 5.38808e-21 -0.00294564)
(2.88475e-24 -3.42836e-24 -0.00249416)
(-1.70297e-22 -5.74581e-21 -0.00210125)
(1.61676e-22 5.91053e-21 -0.00176205)
(-2.08363e-22 -6.04473e-21 -0.00147149)
(7.53688e-22 5.62389e-20 -0.00122445)
(-6.73978e-22 -5.65286e-20 -0.00101586)
(-2.94048e-22 -4.55321e-20 -0.000840878)
(6.85637e-22 9.85144e-20 -0.000694919)
(-3.79162e-22 -5.30824e-20 -0.000573756)
(-6.30157e-23 -6.76759e-21 -0.000473553)
(5.86066e-23 6.88052e-21 -0.000390889)
(-1.71432e-23 -2.67044e-25 -0.00032276)
(9.24107e-23 7.04542e-21 -0.000266576)
(-1.82505e-22 -3.57477e-20 -0.000220132)
(1.72908e-22 3.5891e-20 -0.000181579)
(-4.75814e-23 -7.2762e-21 -0.000149389)
(1.00061e-22 2.20618e-20 -0.000122309)
(1.8971e-24 -7.35392e-21 -9.93207e-05)
(-6.48277e-23 -1.49436e-20 -7.95854e-05)
(1.98836e-23 7.49855e-21 -6.23962e-05)
(-3.89352e-23 -7.5757e-21 -4.71559e-05)
(-1.5138e-20 2.45286e-20 0.027232)
(2.73114e-20 -1.02735e-20 0.00733697)
(-2.15413e-20 -2.07172e-20 -0.00928867)
(2.52083e-21 1.71208e-20 -0.0227213)
(-3.04452e-21 -1.63969e-20 -0.0332785)
(-1.12858e-20 5.89548e-21 -0.0412988)
(9.68585e-21 5.00033e-21 -0.0471043)
(-6.27391e-21 -1.57744e-20 -0.0510031)
(1.61247e-20 5.50129e-21 -0.053276)
(-1.81295e-20 4.00364e-21 -0.0541749)
(1.47057e-20 -4.96086e-21 -0.0539386)
(2.0169e-20 6.91223e-20 -0.0527844)
(-2.85593e-20 -6.03332e-20 -0.0509073)
(-2.99933e-20 -1.05228e-19 -0.0484807)
(4.21003e-21 -2.32582e-20 -0.0456569)
(3.00628e-20 1.21027e-19 -0.0425673)
(-3.74608e-21 -1.11886e-22 -0.0393234)
(-1.20673e-21 -5.45715e-21 -0.0360184)
(4.84316e-24 -4.31545e-23 -0.0327284)
(1.66412e-22 -3.6396e-25 -0.0295143)
(4.41061e-22 5.24416e-24 -0.0264237)
(-7.75509e-22 -4.03142e-21 -0.0234921)
(2.4386e-20 2.5599e-19 -0.0207452)
(-2.69056e-20 -2.77009e-19 -0.0181988)
(2.31717e-20 2.94569e-19 -0.015862)
(-1.24541e-20 -1.42856e-19 -0.0137388)
(-2.13121e-20 -3.21022e-19 -0.0118274)
(1.03535e-20 1.64053e-19 -0.0101221)
(-2.25208e-22 -5.42252e-21 -0.00861386)
(-6.31546e-22 -1.12582e-20 -0.00729108)
(7.74492e-23 5.76211e-21 -0.00614051)
(-7.72334e-22 -1.77763e-20 -0.0051477)
(6.0163e-21 1.90556e-19 -0.00429762)
(-1.24798e-20 -4.04524e-19 -0.0035751)
(5.53996e-21 1.95235e-19 -0.00296524)
(-6.22299e-22 -1.95137e-20 -0.00245376)
(1.82785e-22 6.59004e-21 -0.0020272)
(-1.35791e-23 -2.8224e-23 -0.00167316)
(-2.25675e-21 -1.16131e-19 -0.00138041)
(1.91925e-21 1.02702e-19 -0.00113892)
(1.36948e-21 9.80941e-20 -0.000939914)
(-2.0035e-21 -1.33492e-19 -0.000775799)
(5.5375e-23 7.1541e-21 -0.000640133)
(3.87074e-22 3.62056e-20 -0.000527517)
(-8.45129e-22 -6.52165e-20 -0.000433483)
(-3.12842e-23 -7.32663e-21 -0.000354375)
(-5.11407e-22 -5.18469e-20 -0.000287212)
(-1.09573e-22 -7.62563e-21 -0.000229536)
(1.33033e-22 1.48926e-20 -0.000179231)
(1.55126e-22 2.26359e-20 -0.000134403)
(-1.45924e-20 -8.65759e-22 0.0413208)
(-8.83775e-21 -1.29843e-20 0.00844652)
(3.06912e-20 2.65804e-20 -0.0190374)
(-4.27622e-20 -1.23627e-20 -0.0408485)
(1.74932e-20 1.07217e-20 -0.0576842)
(-1.17894e-20 -1.76193e-20 -0.0702534)
(2.05364e-20 -1.52721e-20 -0.0791754)
(6.63242e-20 5.58231e-20 -0.0849841)
(-1.80809e-20 5.35675e-20 -0.0881665)
(-1.27831e-19 -1.79393e-19 -0.089162)
(1.65157e-19 2.13597e-19 -0.0883668)
(-9.02864e-20 -1.07679e-19 -0.0861368)
(3.06301e-21 -1.05933e-20 -0.0827896)
(-2.22804e-21 -4.62912e-21 -0.0786054)
(1.10342e-19 2.72826e-19 -0.0738281)
(-4.61067e-21 4.08596e-20 -0.0686661)
(-1.02615e-19 -3.0149e-19 -0.0632954)
(6.80684e-21 7.64261e-21 -0.0578613)
(-2.81834e-21 1.05218e-22 -0.0524818)
(7.90307e-23 -6.38127e-22 -0.0472505)
(4.72933e-20 2.44895e-19 -0.0422391)
(-4.58895e-20 -2.35538e-19 -0.0375016)
(-4.23257e-20 -2.69982e-19 -0.033074)
(4.48144e-20 2.86162e-19 -0.0289807)
(1.34363e-21 9.87261e-21 -0.0252323)
(-1.31768e-21 -9.94849e-21 -0.0218325)
(1.20036e-21 1.03257e-20 -0.0187773)
(-3.05325e-20 -3.36099e-19 -0.0160556)
(3.19306e-20 3.47277e-19 -0.0136517)
(-2.56917e-20 -3.46471e-19 -0.0115459)
(2.74897e-20 3.69878e-19 -0.00971639)
(6.07081e-22 1.20071e-20 -0.00813928)
(2.15228e-20 3.97364e-19 -0.00679011)
(-4.09942e-20 -7.91463e-19 -0.00564433)
(2.03477e-20 4.19485e-19 -0.00467793)
(9.11685e-21 2.23138e-19 -0.00386796)
(-8.055e-21 -1.97335e-19 -0.00319289)
(1.70402e-22 5.25769e-23 -0.0026329)
(-2.77859e-22 -4.20986e-23 -0.00217006)
(-1.48912e-23 3.68545e-23 -0.00178841)
(5.52414e-21 2.2464e-19 -0.00147399)
(-5.37212e-21 -2.10918e-19 -0.00121475)
(3.9555e-22 1.43215e-20 -0.00100049)
(-1.56633e-22 -1.59358e-23 -0.000822627)
(1.97041e-21 1.16586e-19 -0.000674111)
(-3.68337e-21 -2.19663e-19 -0.000549156)
(1.82308e-21 1.17692e-19 -0.000443042)
(-9.15394e-22 -5.96385e-20 -0.000351845)
(6.85029e-22 4.46658e-20 -0.000272081)
(1.6507e-22 1.49729e-20 -0.00020026)
(1.71203e-21 2.69385e-20 0.0479587)
(8.80152e-21 -5.40035e-20 0.00280278)
(-3.72335e-20 3.89588e-20 -0.034869)
(2.60184e-20 1.24911e-20 -0.06392)
(2.7029e-20 -6.23112e-20 -0.0857344)
(3.46769e-20 7.02057e-20 -0.101551)
(-5.16346e-20 -3.19429e-20 -0.112378)
(6.38652e-20 8.58261e-20 -0.119041)
(-1.70758e-19 -1.82594e-19 -0.122253)
(1.36258e-19 8.39299e-20 -0.122631)
(-1.89491e-20 1.25885e-20 -0.120718)
(-1.00103e-20 7.48557e-22 -0.116997)
(1.40666e-20 8.71757e-21 -0.111892)
(-1.55956e-19 -2.80865e-19 -0.105774)
(1.42044e-19 2.61285e-19 -0.0989603)
(-1.87225e-21 1.58436e-20 -0.0917214)
(2.44481e-21 -8.17094e-21 -0.0842822)
(1.43347e-19 4.19995e-19 -0.0768267)
(-1.44551e-19 -4.13964e-19 -0.0695024)
(-1.66565e-21 -1.04452e-20 -0.0624246)
(-6.09185e-22 -3.47716e-23 -0.0556806)
(1.07793e-21 3.72559e-22 -0.0493334)
(3.22632e-22 -1.11057e-23 -0.0434265)
(9.18311e-22 9.50745e-21 -0.0379835)
(1.23882e-21 2.86391e-22 -0.0330154)
(1.39624e-21 1.0204e-20 -0.0285219)
(-9.63413e-20 -7.00271e-19 -0.0244934)
(9.54431e-20 6.90069e-19 -0.020913)
(-2.75086e-23 6.34806e-23 -0.0177571)
(-3.79555e-20 -3.77103e-19 -0.0149978)
(3.96398e-20 3.89581e-19 -0.0126046)
(6.34457e-23 -5.58687e-23 -0.0105448)
(-1.84038e-22 -2.16374e-22 -0.00878524)
(-2.88022e-20 -4.23721e-19 -0.00729295)
(5.44047e-20 8.42582e-19 -0.00603587)
(-4.90091e-20 -8.43199e-19 -0.00498347)
(4.53458e-20 8.55823e-19 -0.00410728)
(-4.15855e-20 -8.67475e-19 -0.00338115)
(1.978e-20 4.36744e-19 -0.00278152)
(8.38069e-21 2.23093e-19 -0.00228746)
(-7.38499e-21 -1.95292e-19 -0.00188069)
(-5.65561e-22 -1.41777e-20 -0.00154549)
(-6.51945e-21 -2.29411e-19 -0.00126855)
(1.35795e-20 4.89741e-19 -0.00103875)
(-6.23598e-21 -2.31503e-19 -0.000846891)
(8.1705e-23 4.8307e-23 -0.000685488)
(2.73972e-22 1.47048e-20 -0.000548409)
(-7.91504e-23 -2.36579e-23 -0.000430506)
(-2.37252e-22 -1.48822e-20 -0.000326984)
(5.16675e-22 2.99462e-20 -0.000232334)
(2.74721e-20 9.11306e-23 0.0425182)
(2.09932e-22 2.8258e-22 -0.0142317)
(-6.13436e-20 1.67843e-22 -0.0605877)
(8.88232e-20 -7.59413e-22 -0.0947301)
(-2.73274e-20 -1.20094e-21 -0.119296)
(-4.07913e-20 -9.88723e-22 -0.136307)
(1.47952e-20 1.07897e-21 -0.147279)
(-1.01125e-20 -1.69904e-21 -0.153341)
(7.73998e-20 -2.20766e-20 -0.155405)
(2.39457e-19 3.71916e-19 -0.154243)
(9.72528e-21 9.6648e-20 -0.150519)
(-2.83255e-19 -4.58306e-19 -0.144811)
(3.29028e-19 5.69291e-19 -0.137621)
(-3.43301e-19 -5.64399e-19 -0.129382)
(1.69918e-19 3.51168e-19 -0.120459)