/*--------------------------------*- C++ -*----------------------------------*\
| =========                 |                                                 |
| \\      /  F ield         | OpenFOAM: The Open Source CFD Toolbox           |
|  \\    /   O peration     | Version:  2412                                  |
|   \\  /    A nd           | Website:  www.openfoam.com                      |
|    \\/     M anipulation  |                                                 |
\*---------------------------------------------------------------------------*/
FoamFile
{
    version     2.0;
    format      ascii;
    arch        "LSB;label=32;scalar=64";
    class       volScalarField;
    location    "14.5";
    object      p;
}
// * * * * * * * * * * * * * * * * * * * * * * * * * * * * * * * * * * * * * //

dimensions      [0 2 -2 0 0 0 0];

internalField   nonuniform List<scalar> 
63420
(
0.000970509
0.000970766
0.000971586
0.000972852
0.000974548
0.00097666
0.000979173
0.000982071
0.000985342
0.00098897
0.000992946
0.000997259
0.0010019
0.00100688
0.00101218
0.00101781
0.00102376
0.00103004
0.00103665
0.00104358
0.00105083
0.00105841
0.00106632
0.00107456
0.00108312
0.00109202
0.00110125
0.00111082
0.00112072
0.00113097
0.00114156
0.0011525
0.00116379
0.00117543
0.00118743
0.00119979
0.00121252
0.00122562
0.00123909
0.00125293
0.00126716
0.00128178
0.00129679
0.00131219
0.00132799
0.00134419
0.00136081
0.00137783
0.00139528
0.00141315
0.00143145
0.00145018
0.00146935
0.00148896
0.00150902
0.000970449
0.000970706
0.000971525
0.000972791
0.000974486
0.000976597
0.000979107
0.000982003
0.000985271
0.000988897
0.00099287
0.00099718
0.00100182
0.00100679
0.00101209
0.00101771
0.00102366
0.00102994
0.00103654
0.00104346
0.00105071
0.00105828
0.00106618
0.00107441
0.00108297
0.00109185
0.00110108
0.00111063
0.00112053
0.00113076
0.00114134
0.00115226
0.00116354
0.00117517
0.00118715
0.00119949
0.0012122
0.00122528
0.00123873
0.00125256
0.00126676
0.00128136
0.00129634
0.00131171
0.00132748
0.00134366
0.00136024
0.00137723
0.00139464
0.00141247
0.00143073
0.00144941
0.00146854
0.0014881
0.00150811
0.00097033
0.000970587
0.000971405
0.000972669
0.000974361
0.000976469
0.000978976
0.000981868
0.00098513
0.000988751
0.000992718
0.000997021
0.00100166
0.00100662
0.00101191
0.00101752
0.00102346
0.00102972
0.00103631
0.00104322
0.00105046
0.00105802
0.0010659
0.00107411
0.00108265
0.00109152
0.00110073
0.00111026
0.00112013
0.00113034
0.0011409
0.00115179
0.00116304
0.00117464
0.00118659
0.0011989
0.00121157
0.00122461
0.00123802
0.00125181
0.00126597
0.00128051
0.00129544
0.00131076
0.00132647
0.00134259
0.0013591
0.00137603
0.00139336
0.00141111
0.00142929
0.00144789
0.00146692
0.00148638
0.00150628
0.000970152
0.000970408
0.000971225
0.000972486
0.000974174
0.000976277
0.000978779
0.000981664
0.00098492
0.000988532
0.000992489
0.000996783
0.00100141
0.00100636
0.00101164
0.00101724
0.00102316
0.00102941
0.00103598
0.00104287
0.00105008
0.00105762
0.00106549
0.00107367
0.00108219
0.00109103
0.0011002
0.0011097
0.00111954
0.00112972
0.00114023
0.00115109
0.00116229
0.00117385
0.00118575
0.00119801
0.00121063
0.00122361
0.00123696
0.00125068
0.00126477
0.00127924
0.00129409
0.00130933
0.00132496
0.00134098
0.0013574
0.00137422
0.00139145
0.00140909
0.00142714
0.00144561
0.0014645
0.00148381
0.00150356
0.000969915
0.00097017
0.000970984
0.000972242
0.000973925
0.000976022
0.000978516
0.000981393
0.000984639
0.00098824
0.000992186
0.000996466
0.00100108
0.00100601
0.00101127
0.00101685
0.00102276
0.00102898
0.00103553
0.0010424
0.00104959
0.0010571
0.00106493
0.00107309
0.00108156
0.00109037
0.0010995
0.00110896
0.00111876
0.00112889
0.00113935
0.00115016
0.0011613
0.0011728
0.00118464
0.00119683
0.00120938
0.00122228
0.00123555
0.00124918
0.00126318
0.00127756
0.00129231
0.00130744
0.00132295
0.00133885
0.00135514
0.00137183
0.00138891
0.00140639
0.00142428
0.00144258
0.00146129
0.00148041
0.00149994
0.000969618
0.000969873
0.000970684
0.000971937
0.000973615
0.000975704
0.000978189
0.000981055
0.000984288
0.000987876
0.000991807
0.000996071
0.00100066
0.00100558
0.00101082
0.00101638
0.00102226
0.00102846
0.00103498
0.00104181
0.00104897
0.00105644
0.00106424
0.00107235
0.00108079
0.00108955
0.00109863
0.00110804
0.00111778
0.00112785
0.00113825
0.00114899
0.00116007
0.00117149
0.00118325
0.00119536
0.00120781
0.00122063
0.00123379
0.00124732
0.00126121
0.00127546
0.00129009
0.00130508
0.00132045
0.0013362
0.00135234
0.00136885
0.00138575
0.00140305
0.00142074
0.00143882
0.0014573
0.00147618
0.00149546
0.000969263
0.000969517
0.000970324
0.000971572
0.000973242
0.000975323
0.000977796
0.000980649
0.000983868
0.00098744
0.000991352
0.000995597
0.00100017
0.00100506
0.00101028
0.00101581
0.00102166
0.00102783
0.00103431
0.00104111
0.00104823
0.00105566
0.00106341
0.00107147
0.00107986
0.00108856
0.00109759
0.00110694
0.00111661
0.00112661
0.00113694
0.0011476
0.00115859
0.00116992
0.00118159
0.0011936
0.00120595
0.00121865
0.00123169
0.00124509
0.00125885
0.00127296
0.00128743
0.00130227
0.00131747
0.00133304
0.00134899
0.0013653
0.00138199
0.00139906
0.00141651
0.00143435
0.00145256
0.00147116
0.00149013
0.00152959
0.00155089
0.0015731
0.00159631
0.00162054
0.00164585
0.00167233
0.00170004
0.00172906
0.00175947
0.00179136
0.00182484
0.00186002
0.00189699
0.00193591
0.00197689
0.0020201
0.0020657
0.00211386
0.0021648
0.00221871
0.00227585
0.00233648
0.00240089
0.00246941
0.00254239
0.00262022
0.00270335
0.00279227
0.0028875
0.00298965
0.00309936
0.00321736
0.00334442
0.00348139
0.00362915
0.00378863
0.0039607
0.00414615
0.00434552
0.00455886
0.00478549
0.00502358
0.0052699
0.00552008
0.00576948
0.00601354
0.00625822
0.00657128
0.0070468
0.00152865
0.00154995
0.00157219
0.00159537
0.00161959
0.0016449
0.00167138
0.00169908
0.00172809
0.0017585
0.00179039
0.00182386
0.00185902
0.00189599
0.00193488
0.00197585
0.00201903
0.0020646
0.00211273
0.00216361
0.00221747
0.00227454
0.00233508
0.00239939
0.00246777
0.00254059
0.00261822
0.0027011
0.0027897
0.00288455
0.0029862
0.00309529
0.0032125
0.00333855
0.00347422
0.00362032
0.00377764
0.0039469
0.00412869
0.00432325
0.0045303
0.00474867
0.00497592
0.00520808
0.00543986
0.00566562
0.00588028
0.0060889
0.00635494
0.00676554
0.00152678
0.00154808
0.0015703
0.00159348
0.00161769
0.001643
0.00166946
0.00169716
0.00172616
0.00175656
0.00178843
0.00182189
0.00185703
0.00189397
0.00193283
0.00197376
0.00201689
0.0020624
0.00211045
0.00216125
0.00221499
0.00227192
0.0023323
0.00239639
0.00246452
0.00253702
0.00261425
0.00269664
0.00278463
0.0028787
0.00297939
0.00308725
0.0032029
0.00332697
0.00346009
0.0036029
0.00375595
0.00391966
0.00409417
0.00427918
0.00447366
0.00467546
0.00488093
0.00508454
0.00527914
0.00545713
0.00561249
0.00574878
0.0059166
0.00621019
0.00152397
0.00154526
0.00156746
0.00159064
0.00161484
0.00164014
0.00166659
0.00169427
0.00172326
0.00175363
0.00178548
0.00181891
0.00185401
0.00189091
0.00192972
0.00197058
0.00201364
0.00205905
0.00210698
0.00215763
0.0022112
0.00226791
0.00232802
0.00239179
0.00245952
0.00253152
0.00260815
0.00268978
0.00277683
0.00286972
0.00296892
0.00307492
0.00318821
0.00330926
0.00343853
0.00357638
0.00372302
0.0038784
0.00404204
0.0042128
0.00438853
0.00456565
0.00473862
0.00489964
0.00503877
0.00514531
0.00521181
0.00524313
0.00527422
0.00536142
0.00152024
0.00154152
0.00156372
0.00158688
0.00161107
0.00163636
0.0016628
0.00169047
0.00171944
0.0017498
0.00178162
0.00181502
0.00185009
0.00188694
0.00192569
0.00196648
0.00200944
0.00205473
0.00210252
0.00215299
0.00220634
0.00226278
0.00232255
0.0023859
0.00245311
0.00252447
0.0026003
0.00268094
0.00276674
0.00285806
0.00295529
0.00305879
0.0031689
0.0032859
0.00340997
0.00354111
0.00367907
0.00382315
0.00397203
0.00412346
0.00427381
0.00441759
0.00454686
0.00465086
0.00471614
0.00472796
0.00467595
0.00456808
0.00442829
0.00419688
0.00151561
0.00153689
0.00155909
0.00158227
0.00160647
0.00163178
0.00165824
0.00168594
0.00171493
0.00174532
0.00177718
0.00181061
0.00184571
0.00188258
0.00192136
0.00196216
0.00200513
0.00205042
0.00209819
0.00214862
0.0022019
0.00225824
0.00231786
0.00238101
0.00244794
0.00251892
0.00259423
0.00267418
0.00275906
0.00284917
0.00294479
0.00304614
0.00315339
0.00326658
0.00338553
0.00350979
0.00363842
0.00376979
0.00390126
0.00402878
0.00414631
0.00424519
0.00431351
0.00433579
0.00429323
0.00416567
0.00393798
0.00361905
0.0032248
0.00256302
0.00151006
0.00153127
0.00155342
0.00157654
0.00160069
0.00162595
0.00165236
0.00168001
0.00170896
0.00173929
0.0017711
0.00180447
0.00183951
0.00187633
0.00191503
0.00195576
0.00199864
0.00204382
0.00209147
0.00214176
0.00219487
0.00225101
0.00231039
0.00237323
0.00243978
0.00251029
0.00258502
0.00266421
0.00274812
0.00283698
0.00293096
0.00303017
0.0031346
0.00324403
0.00335795
0.00347537
0.00359461
0.00371294
0.00382609
0.00392766
0.00400828
0.00405481
0.00404961
0.00397047
0.00379149
0.00348468
0.0030311
0.00244442
0.00168965
0.00046773
-0.00342769
-0.00349095
-0.00349264
-0.00344723
-0.0033673
-0.00325701
-0.00312007
-0.00295934
-0.00277913
-0.00258386
-0.00237814
-0.00216641
-0.00195296
-0.00174171
-0.00153615
-0.0013392
-0.00115324
-0.000980052
-0.000820872
-0.000676409
-0.000546915
-0.000432246
-0.000331938
-0.000245271
-0.000171339
-0.000109106
-5.74695e-05
-1.52986e-05
1.8526e-05
4.50826e-05
6.5388e-05
8.03821e-05
9.09198e-05
9.77662e-05
0.000101597
0.000102999
0.00010248
0.000100469
9.73277e-05
9.33552e-05
8.87976e-05
8.38542e-05
7.86844e-05
7.3414e-05
6.81404e-05
6.29382e-05
5.78627e-05
5.29541e-05
4.82398e-05
4.37386e-05
-0.00352243
-0.00356024
-0.00354675
-0.00349272
-0.0034073
-0.00329403
-0.00315502
-0.00299311
-0.00281217
-0.00261652
-0.00241042
-0.00219819
-0.00198406
-0.00177194
-0.00156529
-0.00136708
-0.00117971
-0.001005
-0.000844214
-0.000698113
-0.000566977
-0.000450692
-0.000348816
-0.00026065
-0.000185299
-0.000121737
-6.88657e-05
-2.55553e-05
9.31453e-06
3.68246e-05
5.79956e-05
7.37726e-05
8.5016e-05
9.24968e-05
9.68962e-05
9.88082e-05
9.87441e-05
9.71392e-05
9.43594e-05
9.0709e-05
8.64378e-05
8.1749e-05
7.68054e-05
7.17358e-05
6.66405e-05
6.15967e-05
5.66619e-05
5.18784e-05
4.72753e-05
4.28741e-05
-0.00371212
-0.00369551
-0.00365269
-0.00358145
-0.00348401
-0.00336497
-0.00322206
-0.00305743
-0.00287534
-0.00267918
-0.00247247
-0.00225942
-0.00204413
-0.00183044
-0.00162182
-0.00142127
-0.00123125
-0.00105365
-0.000889823
-0.000740584
-0.000606288
-0.000486881
-0.000381967
-0.000290884
-0.000212766
-0.000146608
-9.13192e-05
-4.57743e-05
-8.85247e-06
2.05316e-05
4.34059e-05
6.07249e-05
7.33593e-05
8.20914e-05
8.76135e-05
9.05307e-05
9.13652e-05
9.05621e-05
8.84969e-05
8.54826e-05
8.17772e-05
7.75912e-05
7.3094e-05
6.84208e-05
6.36774e-05
5.89458e-05
5.42883e-05
4.97513e-05
4.53671e-05
4.1163e-05
-0.00400253
-0.00388765
-0.00380742
-0.00370922
-0.00358951
-0.00346224
-0.00331437
-0.00314807
-0.00296482
-0.00276772
-0.00256025
-0.0023462
-0.00212943
-0.00191369
-0.00170243
-0.0014987
-0.00130503
-0.00112341
-0.000955313
-0.000801655
-0.000662892
-0.000539049
-0.000429807
-0.000334558
-0.000252479
-0.000182594
-0.000123831
-7.50698e-05
-3.51907e-05
-3.10278e-06
2.22314e-05
4.1779e-05
5.64255e-05
6.69685e-05
7.41164e-05
7.849e-05
8.06265e-05
8.09857e-05
7.99566e-05
7.78647e-05
7.49798e-05
7.15229e-05
6.76734e-05
6.3575e-05
5.93417e-05
5.50628e-05
5.08073e-05
4.66272e-05
4.25606e-05
3.86425e-05
-0.00436378
-0.00413857
-0.00400638
-0.00387108
-0.00374112
-0.00358952
-0.00343044
-0.00325852
-0.00307255
-0.00287414
-0.00266586
-0.00245088
-0.00223272
-0.00201495
-0.00180096
-0.00159382
-0.00139613
-0.00120999
-0.00103699
-0.000878185
-0.000734142
-0.000605004
-0.000490537
-0.00039021
-0.000303265
-0.000228765
-0.000165669
-0.000112873
-6.9261e-05
-3.37422e-05
-5.27125e-06
1.71313e-05
3.43658e-05
4.7247e-05
5.65011e-05
6.27669e-05
6.65994e-05
6.84758e-05
6.88011e-05
6.79166e-05
6.61064e-05
6.36049e-05
6.06038e-05
5.72583e-05
5.36928e-05
5.00059e-05
4.62751e-05
4.25603e-05
3.89071e-05
3.53604e-05
-0.00474336
-0.00444484
-0.0042408
-0.00405169
-0.00388951
-0.0037216
-0.00355038
-0.00337109
-0.00318171
-0.00298238
-0.00277448
-0.00256032
-0.0023428
-0.00212508
-0.00191032
-0.00170148
-0.00150117
-0.00131158
-0.0011344
-0.000970826
-0.000821589
-0.000686973
-0.000566885
-0.000460908
-0.000368379
-0.000288451
-0.000220144
-0.000162398
-0.000114129
-7.42617e-05
-4.17586e-05
-1.56399e-05
5.00125e-06
2.09902e-05
3.30669e-05
4.18861e-05
4.802e-05
5.19634e-05
5.41394e-05
5.4907e-05
5.45675e-05
5.3372e-05
5.15282e-05
4.92062e-05
4.65443e-05
4.36544e-05
4.06257e-05
3.75287e-05
3.44201e-05
3.13535e-05
-0.00510337
-0.00481194
-0.00453579
-0.00431328
-0.0040953
-0.00389729
-0.00370682
-0.00351518
-0.00331888
-0.00311625
-0.00290715
-0.00269273
-0.00247506
-0.00225674
-0.00204056
-0.00182931
-0.0016256
-0.00143164
-0.00124927
-0.00107985
-0.000924276
-0.000783013
-0.00065612
-0.000543325
-0.000444081
-0.000357639
-0.000283096
-0.000219449
-0.000165646
-0.000120631
-8.33741e-05
-5.28927e-05
-2.82706e-05
-8.66766e-06
6.67472e-06
1.84323e-05
2.71999e-05
3.34954e-05
3.77654e-05
4.03915e-05
4.16971e-05
4.19545e-05
4.1391e-05
4.01952e-05
3.85227e-05
3.6501e-05
3.42333e-05
3.1803e-05
2.9278e-05
2.67159e-05
3.94515e-05
3.53221e-05
3.13465e-05
2.75426e-05
2.39162e-05
2.04705e-05
1.72078e-05
1.41286e-05
1.12317e-05
8.51478e-06
5.97433e-06
3.60619e-06
1.40556e-06
-6.3285e-07
-2.51466e-06
-4.24569e-06
-5.83184e-06
-7.27897e-06
-8.5928e-06
-9.77882e-06
-1.08423e-05
-1.17883e-05
-1.26217e-05
-1.33473e-05
-1.39699e-05
-1.44944e-05
-1.4926e-05
-1.52699e-05
-1.55316e-05
-1.57166e-05
-1.58304e-05
-1.58787e-05
-1.58667e-05
-1.57997e-05
-1.56827e-05
-1.55203e-05
-1.5317e-05
-1.50769e-05
-1.48039e-05
-1.45016e-05
-1.41736e-05
-1.38231e-05
-1.34532e-05
-1.30663e-05
-1.26662e-05
-1.22547e-05
-1.18339e-05
-1.14067e-05
-1.0975e-05
-1.05407e-05
-1.01057e-05
-9.67155e-06
-9.23995e-06
-8.81226e-06
-8.38978e-06
-7.9737e-06
-7.56507e-06
-7.16485e-06
-6.77387e-06
-6.3929e-06
-6.02258e-06
-5.66346e-06
-5.31601e-06
-4.98058e-06
-4.6575e-06
-4.34698e-06
-4.04917e-06
-3.76415e-06
-3.49193e-06
-3.23247e-06
-2.98568e-06
-2.75144e-06
-2.52959e-06
-2.31988e-06
-2.12205e-06
-1.93579e-06
-1.76079e-06
-1.59671e-06
-1.4432e-06
-1.29987e-06
-1.16631e-06
-1.04211e-06
-9.26808e-07
-8.2009e-07
-7.21339e-07
-6.30558e-07
-5.46371e-07
-4.70364e-07
-3.97934e-07
-3.37093e-07
-2.70865e-07
-2.30545e-07
-1.56663e-07
-1.55891e-07
-3.94934e-08
-1.28615e-07
1.08604e-07
-1.77384e-07
3.25862e-07
-3.33272e-07
6.37012e-07
-5.89757e-07
9.97595e-07
-8.38594e-07
1.23764e-06
-8.46465e-07
1.10001e-06
-3.79054e-07
4.53809e-07
5.22593e-07
-4.33517e-07
1.36341e-06
-9.0949e-07
1.44721e-06
-4.0076e-07
3.86907e-05
3.46277e-05
3.07109e-05
2.69647e-05
2.33918e-05
1.99947e-05
1.67764e-05
1.37377e-05
1.08777e-05
8.19424e-06
5.68426e-06
3.34385e-06
1.16844e-06
-8.47008e-07
-2.70789e-06
-4.41983e-06
-5.98856e-06
-7.41978e-06
-8.71907e-06
-9.89182e-06
-1.09432e-05
-1.18782e-05
-1.27016e-05
-1.34181e-05
-1.40325e-05
-1.45497e-05
-1.49748e-05
-1.53128e-05
-1.55692e-05
-1.57496e-05
-1.58593e-05
-1.59039e-05
-1.58887e-05
-1.58189e-05
-1.56993e-05
-1.55346e-05
-1.53292e-05
-1.50873e-05
-1.48126e-05
-1.45089e-05
-1.41797e-05
-1.3828e-05
-1.34571e-05
-1.30694e-05
-1.26684e-05
-1.22562e-05
-1.18349e-05
-1.14072e-05
-1.09751e-05
-1.05404e-05
-1.01051e-05
-9.67074e-06
-9.23893e-06
-8.81108e-06
-8.38847e-06
-7.97229e-06
-7.56359e-06
-7.16332e-06
-6.77233e-06
-6.39135e-06
-6.02103e-06
-5.66194e-06
-5.31451e-06
-4.97913e-06
-4.65609e-06
-4.34562e-06
-4.04787e-06
-3.76291e-06
-3.49075e-06
-3.23134e-06
-2.98462e-06
-2.75045e-06
-2.52865e-06
-2.31901e-06
-2.12123e-06
-1.93504e-06
-1.76009e-06
-1.59606e-06
-1.4426e-06
-1.29932e-06
-1.16581e-06
-1.04165e-06
-9.2639e-07
-8.1971e-07
-7.20994e-07
-6.30246e-07
-5.4609e-07
-4.7011e-07
-3.97708e-07
-3.36888e-07
-2.70687e-07
-2.30378e-07
-1.56531e-07
-1.55749e-07
-3.94108e-08
-1.28485e-07
1.08633e-07
-1.7725e-07
3.25836e-07
-3.3313e-07
6.36952e-07
-5.8963e-07
9.97545e-07
-8.3853e-07
1.23765e-06
-8.46507e-07
1.10012e-06
-3.79187e-07
4.53973e-07
5.22451e-07
-4.3337e-07
1.36332e-06
-9.09346e-07
1.44703e-06
-4.00967e-07
3.71779e-05
3.32473e-05
2.94485e-05
2.58169e-05
2.235e-05
1.90494e-05
1.59191e-05
1.29606e-05
1.01737e-05
7.55673e-06
5.10724e-06
2.82187e-06
6.96565e-07
-1.27324e-06
-3.09251e-06
-4.7665e-06
-6.30059e-06
-7.70016e-06
-8.97054e-06
-1.01169e-05
-1.11442e-05
-1.20573e-05
-1.28607e-05
-1.35592e-05
-1.41574e-05
-1.466e-05
-1.50719e-05
-1.53983e-05
-1.56444e-05
-1.58155e-05
-1.5917e-05
-1.59543e-05
-1.59326e-05
-1.5857e-05
-1.57323e-05
-1.5563e-05
-1.53536e-05
-1.5108e-05
-1.48301e-05
-1.45235e-05
-1.41917e-05
-1.38377e-05
-1.34648e-05
-1.30754e-05
-1.26729e-05
-1.22594e-05
-1.18369e-05
-1.14082e-05
-1.09753e-05
-1.05399e-05
-1.01039e-05
-9.6691e-06
-9.23689e-06
-8.80871e-06
-8.38584e-06
-7.96947e-06
-7.56063e-06
-7.16028e-06
-6.76923e-06
-6.38824e-06
-6.01794e-06
-5.65888e-06
-5.31152e-06
-4.97622e-06
-4.65327e-06
-4.3429e-06
-4.04526e-06
-3.76042e-06
-3.48838e-06
-3.2291e-06
-2.98251e-06
-2.74846e-06
-2.52679e-06
-2.31726e-06
-2.11961e-06
-1.93352e-06
-1.75869e-06
-1.59477e-06
-1.44141e-06
-1.29822e-06
-1.1648e-06
-1.04073e-06
-9.25555e-07
-8.18954e-07
-7.2031e-07
-6.29627e-07
-5.45532e-07
-4.69605e-07
-3.97258e-07
-3.36477e-07
-2.70332e-07
-2.30042e-07
-1.56269e-07
-1.55467e-07
-3.92464e-08
-1.28226e-07
1.0869e-07
-1.76983e-07
3.25787e-07
-3.32846e-07
6.3683e-07
-5.89374e-07
9.97441e-07
-8.38401e-07
1.23768e-06
-8.4659e-07
1.10034e-06
-3.7945e-07
4.543e-07
5.22163e-07
-4.33075e-07
1.36312e-06
-9.09053e-07
1.44666e-06
-4.01358e-07
3.49323e-05
3.11977e-05
2.7576e-05
2.41144e-05
2.08041e-05
1.76463e-05
1.46462e-05
1.18064e-05
9.12765e-06
6.60915e-06
4.2493e-06
2.04554e-06
-5.42099e-09
-1.90747e-06
-3.66497e-06
-5.28258e-06
-6.76518e-06
-8.11773e-06
-9.34514e-06
-1.04522e-05
-1.14438e-05
-1.23242e-05
-1.30981e-05
-1.37697e-05
-1.43437e-05
-1.48246e-05
-1.5217e-05
-1.5526e-05
-1.57566e-05
-1.59139e-05
-1.60032e-05
-1.60297e-05
-1.59983e-05
-1.59141e-05
-1.57816e-05
-1.56055e-05
-1.53899e-05
-1.51389e-05
-1.48562e-05
-1.45453e-05
-1.42096e-05
-1.38523e-05
-1.34764e-05
-1.30843e-05
-1.26796e-05
-1.22641e-05
-1.18399e-05
-1.14097e-05
-1.09755e-05
-1.05391e-05
-1.01022e-05
-9.66663e-06
-9.23381e-06
-8.80514e-06
-8.3819e-06
-7.96524e-06
-7.55619e-06
-7.1557e-06
-6.76459e-06
-6.38358e-06
-6.0133e-06
-5.6543e-06
-5.30703e-06
-4.97185e-06
-4.64904e-06
-4.33883e-06
-4.04135e-06
-3.75668e-06
-3.48483e-06
-3.22574e-06
-2.97933e-06
-2.74548e-06
-2.52399e-06
-2.31464e-06
-2.11717e-06
-1.93126e-06
-1.75659e-06
-1.59283e-06
-1.43962e-06
-1.29658e-06
-1.16329e-06
-1.03935e-06
-9.24304e-07
-8.17818e-07
-7.19281e-07
-6.28697e-07
-5.44694e-07
-4.68848e-07
-3.96584e-07
-3.35863e-07
-2.69802e-07
-2.29542e-07
-1.55877e-07
-1.55045e-07
-3.89988e-08
-1.27839e-07
1.08781e-07
-1.76584e-07
3.2572e-07
-3.32427e-07
6.36659e-07
-5.89003e-07
9.97301e-07
-8.38226e-07
1.23775e-06
-8.46733e-07
1.10068e-06
-3.79859e-07
4.54793e-07
5.2173e-07
-4.32643e-07
1.36283e-06
-9.08619e-07
1.44612e-06
-4.01891e-07
3.19828e-05
2.85047e-05
2.51185e-05
2.18797e-05
1.87741e-05
1.58027e-05
1.29728e-05
1.02884e-05
7.75112e-06
5.3616e-06
3.11926e-06
1.0226e-06
-9.30743e-07
-2.74377e-06
-4.42003e-06
-5.96348e-06
-7.37833e-06
-8.66896e-06
-9.83979e-06
-1.08952e-05
-1.18396e-05
-1.26771e-05
-1.34119e-05
-1.40482e-05
-1.45903e-05
-1.50425e-05
-1.54092e-05
-1.56952e-05
-1.59054e-05
-1.60445e-05
-1.61176e-05
-1.61296e-05
-1.60854e-05
-1.59897e-05
-1.58471e-05
-1.56619e-05
-1.54382e-05
-1.51799e-05
-1.48907e-05
-1.45741e-05
-1.42334e-05
-1.38715e-05
-1.34917e-05
-1.30962e-05
-1.26884e-05
-1.22703e-05
-1.18438e-05
-1.14117e-05
-1.09757e-05
-1.05379e-05
-1.00999e-05
-9.6633e-06
-9.22968e-06
-8.80036e-06
-8.37662e-06
-7.95958e-06
-7.55026e-06
-7.1496e-06
-6.75838e-06
-6.37735e-06
-6.00711e-06
-5.64819e-06
-5.30104e-06
-4.96602e-06
-4.6434e-06
-4.33339e-06
-4.03614e-06
-3.75171e-06
-3.48009e-06
-3.22126e-06
-2.9751e-06
-2.7415e-06
-2.52026e-06
-2.31115e-06
-2.11391e-06
-1.92823e-06
-1.75379e-06
-1.59025e-06
-1.43724e-06
-1.29439e-06
-1.16129e-06
-1.03752e-06
-9.22635e-07
-8.16302e-07
-7.17909e-07
-6.27456e-07
-5.43576e-07
-4.67838e-07
-3.95686e-07
-3.35047e-07
-2.69097e-07
-2.28877e-07
-1.55355e-07
-1.54486e-07
-3.8664e-08
-1.2733e-07
1.08914e-07
-1.76069e-07
3.25658e-07
-3.31903e-07
6.3648e-07
-5.88567e-07
9.97187e-07
-8.38073e-07
1.23792e-06
-8.47006e-07
1.1012e-06
-3.8045e-07
4.55464e-07
5.21164e-07
-4.32107e-07
1.36249e-06
-9.08092e-07
1.44545e-06
-4.02526e-07
2.83645e-05
2.52036e-05
2.21093e-05
1.91423e-05
1.62854e-05
1.35411e-05
1.09186e-05
8.4235e-06
6.05903e-06
3.82713e-06
1.72856e-06
-2.36947e-07
-2.07062e-06
-3.77441e-06
-5.35093e-06
-6.80325e-06
-8.13481e-06
-9.3493e-06
-1.04505e-05
-1.14424e-05
-1.23287e-05
-1.31133e-05
-1.38001e-05
-1.43929e-05
-1.48957e-05
-1.53125e-05
-1.56475e-05
-1.59051e-05
-1.60899e-05
-1.62065e-05
-1.62595e-05
-1.62536e-05
-1.61935e-05
-1.60836e-05
-1.59283e-05
-1.57318e-05
-1.5498e-05
-1.52307e-05
-1.49335e-05
-1.46098e-05
-1.42628e-05
-1.38954e-05
-1.35106e-05
-1.31108e-05
-1.26992e-05
-1.22778e-05
-1.18486e-05
-1.1414e-05
-1.0976e-05
-1.05364e-05
-1.00969e-05
-9.65909e-06
-9.22447e-06
-8.79436e-06
-8.36999e-06
-7.95248e-06
-7.54283e-06
-7.14195e-06
-6.75062e-06
-6.36955e-06
-5.99936e-06
-5.64054e-06
-5.29355e-06
-4.95873e-06
-4.63634e-06
-4.3266e-06
-4.02963e-06
-3.74548e-06
-3.47418e-06
-3.21565e-06
-2.96982e-06
-2.73653e-06
-2.5156e-06
-2.3068e-06
-2.10985e-06
-1.92446e-06
-1.75029e-06
-1.58702e-06
-1.43427e-06
-1.29166e-06
-1.15878e-06
-1.03523e-06
-9.2055e-07
-8.14409e-07
-7.16195e-07
-6.25905e-07
-5.4218e-07
-4.66578e-07
-3.94565e-07
-3.34027e-07
-2.68217e-07
-2.28048e-07
-1.54703e-07
-1.53788e-07
-3.82467e-08
-1.2669e-07
1.0908e-07
-1.7542e-07
3.25577e-07
-3.3124e-07
6.36248e-07
-5.88012e-07
9.97032e-07
-8.3787e-07
1.23812e-06
-8.47331e-07
1.10184e-06
-3.81179e-07
4.56293e-07
5.20454e-07
-4.31425e-07
1.36204e-06
-9.07386e-07
1.44455e-06
-4.03111e-07
2.4129e-05
2.13392e-05
1.85905e-05
1.59374e-05
1.33683e-05
1.08876e-05
8.50625e-06
6.23158e-06
4.06856e-06
2.0207e-06
9.02618e-08
-1.72167e-06
-3.41504e-06
-4.99064e-06
-6.44999e-06
-7.79517e-06
-9.02876e-06
-1.01536e-05
-1.11729e-05
-1.20899e-05
-1.29078e-05
-1.36301e-05
-1.42603e-05
-1.48018e-05
-1.52581e-05
-1.56331e-05
-1.59306e-05
-1.61546e-05
-1.63094e-05
-1.63992e-05
-1.64284e-05
-1.64012e-05
-1.63222e-05
-1.61954e-05
-1.6025e-05
-1.5815e-05
-1.55692e-05
-1.52912e-05
-1.49844e-05
-1.46522e-05
-1.42977e-05
-1.39236e-05
-1.35331e-05
-1.31281e-05
-1.2712e-05
-1.22867e-05
-1.18541e-05
-1.14166e-05
-1.09762e-05
-1.05345e-05
-1.00932e-05
-9.65397e-06
-9.21816e-06
-8.78711e-06
-8.362e-06
-7.94393e-06
-7.53389e-06
-7.13275e-06
-6.74129e-06
-6.36019e-06
-5.99004e-06
-5.63136e-06
-5.28456e-06
-4.94997e-06
-4.62787e-06
-4.31844e-06
-4.02181e-06
-3.73802e-06
-3.46708e-06
-3.20893e-06
-2.96348e-06
-2.73057e-06
-2.51001e-06
-2.30157e-06
-2.10498e-06
-1.91993e-06
-1.7461e-06
-1.58314e-06
-1.4307e-06
-1.28838e-06
-1.15577e-06
-1.03248e-06
-9.1805e-07
-8.12137e-07
-7.14138e-07
-6.24044e-07
-5.40506e-07
-4.65065e-07
-3.93222e-07
-3.32802e-07
-2.67169e-07
-2.27044e-07
-1.53941e-07
-1.52919e-07
-3.77983e-08
-1.2584e-07
1.09151e-07
-1.74452e-07
3.2521e-07
-3.30073e-07
6.35482e-07
-5.86738e-07
9.96124e-07
-8.36821e-07
1.23752e-06
-8.46933e-07
1.10194e-06
-3.81614e-07
4.57133e-07
5.19439e-07
-4.30151e-07
1.36081e-06
-9.05758e-07
1.44277e-06
-4.03035e-07
1.91898e-05
1.68435e-05
1.45077e-05
1.22156e-05
9.97556e-06
7.79766e-06
5.69387e-06
3.67344e-06
1.74322e-06
-9.15304e-08
-1.82694e-06
-3.46044e-06
-4.99056e-06
-6.41681e-06
-7.73949e-06
-8.95961e-06
-1.00787e-05
-1.10989e-05
-1.20223e-05
-1.28516e-05
-1.35896e-05
-1.4239e-05
-1.48028e-05
-1.52841e-05
-1.5686e-05
-1.60119e-05
-1.62653e-05
-1.64498e-05
-1.65692e-05
-1.66274e-05
-1.66284e-05
-1.65761e-05
-1.64745e-05
-1.63277e-05
-1.61394e-05
-1.59134e-05
-1.56534e-05
-1.53627e-05
-1.50446e-05
-1.47024e-05
-1.43389e-05
-1.3957e-05
-1.35595e-05
-1.31485e-05
-1.27271e-05
-1.22972e-05
-1.18605e-05
-1.14196e-05
-1.09762e-05
-1.05321e-05
-1.00887e-05
-9.64777e-06
-9.21056e-06
-8.77838e-06
-8.3524e-06
-7.93368e-06
-7.52317e-06
-7.12173e-06
-6.73011e-06
-6.34898e-06
-5.97891e-06
-5.62038e-06
-5.27381e-06
-4.93952e-06
-4.61775e-06
-4.3087e-06
-4.01247e-06
-3.72911e-06
-3.45861e-06
-3.20091e-06
-2.95591e-06
-2.72344e-06
-2.50333e-06
-2.29533e-06
-2.09916e-06
-1.91453e-06
-1.74109e-06
-1.57852e-06
-1.42644e-06
-1.28446e-06
-1.15219e-06
-1.0292e-06
-9.15065e-07
-8.09425e-07
-7.11682e-07
-6.21821e-07
-5.38508e-07
-4.63258e-07
-3.91623e-07
-3.31335e-07
-2.65929e-07
-2.25827e-07
-1.53064e-07
-1.51828e-07
-3.73538e-08
-1.2468e-07
1.09011e-07
-1.72961e-07
3.24291e-07
-3.28019e-07
6.337e-07
-5.84129e-07
9.93749e-07
-8.3413e-07
1.23531e-06
-8.45051e-07
1.1009e-06
-3.81369e-07
4.57885e-07
5.17902e-07
-4.27774e-07
1.35811e-06
-9.02401e-07
1.43939e-06
-4.01676e-07
1.36288e-05
1.17667e-05
9.8759e-06
7.98611e-06
6.11491e-06
4.27683e-06
2.48533e-06
7.51577e-07
-9.15557e-07
-2.50898e-06
-4.02314e-06
-5.45385e-06
-6.79816e-06
-8.05417e-06
-9.2209e-06
-1.02982e-05
-1.12864e-05
-1.21867e-05
-1.30004e-05
-1.37294e-05
-1.43757e-05
-1.49415e-05
-1.54292e-05
-1.58414e-05
-1.61809e-05
-1.64504e-05
-1.6653e-05
-1.67919e-05
-1.68705e-05
-1.68921e-05
-1.68604e-05
-1.6779e-05
-1.66514e-05
-1.64812e-05
-1.62722e-05
-1.60276e-05
-1.5751e-05
-1.54455e-05
-1.51143e-05
-1.47604e-05
-1.43866e-05
-1.39955e-05
-1.35899e-05
-1.31718e-05
-1.27443e-05
-1.2309e-05
-1.18677e-05
-1.14228e-05
-1.0976e-05
-1.0529e-05
-1.00832e-05
-9.64029e-06
-9.20146e-06
-8.76799e-06
-8.34101e-06
-7.92153e-06
-7.51049e-06
-7.10871e-06
-6.71692e-06
-6.33576e-06
-5.96577e-06
-5.60744e-06
-5.26114e-06
-4.92719e-06
-4.60583e-06
-4.29722e-06
-4.00147e-06
-3.71861e-06
-3.44863e-06
-3.19147e-06
-2.947e-06
-2.71507e-06
-2.49548e-06
-2.28799e-06
-2.09232e-06
-1.90817e-06
-1.73521e-06
-1.57308e-06
-1.42143e-06
-1.27986e-06
-1.14797e-06
-1.02535e-06
-9.11556e-07
-8.06236e-07
-7.08794e-07
-6.19209e-07
-5.36158e-07
-4.61137e-07
-3.89737e-07
-3.29621e-07
-2.64454e-07
-2.24431e-07
-1.51979e-07
-1.50637e-07
-3.66837e-08
-1.23545e-07
1.09194e-07
-1.71711e-07
3.23915e-07
-3.26546e-07
6.32817e-07
-5.82545e-07
9.92682e-07
-8.32853e-07
1.23464e-06
-8.44631e-07
1.10115e-06
-3.8207e-07
4.59146e-07
5.1636e-07
-4.25816e-07
1.35615e-06
-8.99762e-07
1.43652e-06
-4.00574e-07
7.64015e-06
6.27572e-06
4.848e-06
3.38519e-06
1.90826e-06
4.34263e-07
-1.02157e-06
-2.44622e-06
-3.82894e-06
-5.16087e-06
-6.43475e-06
-7.64481e-06
-8.78658e-06
-9.85674e-06
-1.0853e-05
-1.17739e-05
-1.26188e-05
-1.33877e-05
-1.40811e-05
-1.46999e-05
-1.52455e-05
-1.57194e-05
-1.61235e-05
-1.64597e-05
-1.67302e-05
-1.69375e-05
-1.7084e-05
-1.71725e-05
-1.72058e-05
-1.71869e-05
-1.71189e-05
-1.7005e-05
-1.68484e-05
-1.66523e-05
-1.642e-05
-1.61547e-05
-1.58596e-05
-1.55376e-05
-1.51917e-05
-1.48247e-05
-1.44394e-05
-1.40381e-05
-1.36235e-05
-1.31976e-05
-1.27631e-05
-1.23218e-05
-1.18754e-05
-1.1426e-05
-1.09755e-05
-1.05252e-05
-1.00768e-05
-9.63164e-06
-9.19101e-06
-8.75611e-06
-8.32801e-06
-7.9077e-06
-7.49608e-06
-7.09393e-06
-6.70195e-06
-6.32076e-06
-5.95089e-06
-5.59278e-06
-5.2468e-06
-4.91325e-06
-4.59235e-06
-4.28424e-06
-3.98904e-06
-3.70675e-06
-3.43736e-06
-3.18079e-06
-2.93693e-06
-2.7056e-06
-2.4866e-06
-2.27969e-06
-2.08459e-06
-1.90099e-06
-1.72856e-06
-1.56694e-06
-1.41577e-06
-1.27466e-06
-1.14321e-06
-1.021e-06
-9.07592e-07
-8.02635e-07
-7.05532e-07
-6.1626e-07
-5.33503e-07
-4.58743e-07
-3.87605e-07
-3.27692e-07
-2.62779e-07
-2.22872e-07
-1.50725e-07
-1.49341e-07
-3.58511e-08
-1.22379e-07
1.09573e-07
-1.70542e-07
3.23825e-07
-3.25323e-07
6.32374e-07
-5.81422e-07
9.92235e-07
-8.32227e-07
1.2347e-06
-8.44916e-07
1.10206e-06
-3.83298e-07
4.60772e-07
5.14644e-07
-4.23821e-07
1.35426e-06
-8.97103e-07
1.43351e-06
-3.99087e-07
1.28184e-06
4.28989e-07
-5.19422e-07
-1.53631e-06
-2.59958e-06
-3.69034e-06
-4.79167e-06
-5.88887e-06
-6.96948e-06
-8.02293e-06
-9.04035e-06
-1.00144e-05
-1.09391e-05
-1.18098e-05
-1.26228e-05
-1.33754e-05
-1.40658e-05
-1.4693e-05
-1.52565e-05
-1.57564e-05
-1.61931e-05
-1.65677e-05
-1.68812e-05
-1.7135e-05
-1.73308e-05
-1.74705e-05
-1.7556e-05
-1.75896e-05
-1.75735e-05
-1.75103e-05
-1.74026e-05
-1.7253e-05
-1.70645e-05
-1.68399e-05
-1.65822e-05
-1.62941e-05
-1.59786e-05
-1.56385e-05
-1.52764e-05
-1.48951e-05
-1.4497e-05
-1.40845e-05
-1.36601e-05
-1.32255e-05
-1.27834e-05
-1.23356e-05
-1.18834e-05
-1.14292e-05
-1.09745e-05
-1.05207e-05
-1.00694e-05
-9.62176e-06
-9.17916e-06
-8.74268e-06
-8.31337e-06
-7.89216e-06
-7.47991e-06
-7.07736e-06
-6.6852e-06
-6.30399e-06
-5.93425e-06
-5.5764e-06
-5.23079e-06
-4.89768e-06
-4.57729e-06
-4.26976e-06
-3.97516e-06
-3.69352e-06
-3.42479e-06
-3.16889e-06
-2.9257e-06
-2.69504e-06
-2.47671e-06
-2.27045e-06
-2.07598e-06
-1.89299e-06
-1.72115e-06
-1.5601e-06
-1.40947e-06
-1.26887e-06
-1.1379e-06
-1.01615e-06
-9.03177e-07
-7.98623e-07
-7.01898e-07
-6.12974e-07
-5.30545e-07
-4.56077e-07
-3.85229e-07
-3.25545e-07
-2.60911e-07
-2.21141e-07
-1.49321e-07
-1.47907e-07
-3.49087e-08
-1.211e-07
1.10018e-07
-1.69265e-07
3.23749e-07
-3.23975e-07
6.31878e-07
-5.80144e-07
9.91678e-07
-8.31439e-07
1.23465e-06
-8.45109e-07
1.10296e-06
-3.8461e-07
4.62611e-07
5.12589e-07
-4.2133e-07
1.35176e-06
-8.93652e-07
1.42968e-06
-3.96546e-07
-5.38824e-06
-5.7156e-06
-6.17131e-06
-6.72844e-06
-7.36376e-06
-8.05678e-06
-8.78907e-06
-9.54439e-06
-1.03087e-05
-1.10699e-05
-1.18175e-05
-1.25427e-05
-1.32382e-05
-1.38978e-05
-1.45165e-05
-1.50905e-05
-1.56168e-05
-1.60933e-05
-1.65184e-05
-1.68916e-05
-1.72123e-05
-1.74808e-05
-1.76975e-05
-1.78633e-05
-1.79791e-05
-1.80463e-05
-1.80663e-05
-1.80408e-05
-1.79715e-05
-1.78605e-05
-1.77098e-05
-1.75217e-05
-1.72987e-05
-1.70432e-05
-1.67577e-05
-1.64449e-05
-1.61073e-05
-1.57475e-05
-1.53679e-05
-1.4971e-05
-1.45591e-05
-1.41344e-05
-1.36992e-05
-1.32552e-05
-1.2805e-05
-1.235e-05
-1.18917e-05
-1.14321e-05
-1.09729e-05
-1.05153e-05
-1.00608e-05
-9.61057e-06