/*--------------------------------*- C++ -*----------------------------------*\
| =========                 |                                                 |
| \\      /  F ield         | OpenFOAM: The Open Source CFD Toolbox           |
|  \\    /   O peration     | Version:  2412                                  |
|   \\  /    A nd           | Website:  www.openfoam.com                      |
|    \\/     M anipulation  |                                                 |
\*---------------------------------------------------------------------------*/
FoamFile
{
    version     2.0;
    format      ascii;
    arch        "LSB;label=32;scalar=64";
    class       surfaceScalarField;
    location    "14.5";
    object      phi;
}
// * * * * * * * * * * * * * * * * * * * * * * * * * * * * * * * * * * * * * //

dimensions      [0 3 -1 0 0 0 0];

oriented        oriented;

internalField   nonuniform List<scalar> 
126304
(
0.00505063
1.2909e-07
2.3124e-11
0.00505025
3.73068e-07
7.86794e-11
0.00504966
5.92908e-07
1.51974e-10
0.00504883
8.26749e-07
1.93265e-10
0.00504767
1.16667e-06
6.63707e-11
0.00504597
1.69851e-06
-3.56435e-10
0.00504355
2.42416e-06
-1.06758e-09
0.00504031
3.23892e-06
-1.88207e-09
0.00503633
3.98041e-06
-2.51551e-09
0.00503183
4.50687e-06
-2.71938e-09
0.00502708
4.75237e-06
-2.38294e-09
0.00502234
4.73608e-06
-1.55524e-09
0.00501781
4.53504e-06
-3.98889e-10
0.00501356
4.24494e-06
8.8426e-10
0.00500961
3.94868e-06
2.1166e-09
0.00500591
3.70097e-06
3.17848e-09
0.00500238
3.52709e-06
4.0145e-09
0.00499894
3.42998e-06
4.62037e-09
0.00499554
3.39947e-06
5.02372e-09
0.00499211
3.42029e-06
5.26638e-09
0.00498863
3.47722e-06
5.39138e-09
0.00498507
3.55779e-06
5.43644e-09
0.00498141
3.65293e-06
5.4304e-09
0.00497765
3.75676e-06
5.39342e-09
0.00497377
3.86581e-06
5.33841e-09
0.00496979
3.97832e-06
5.27277e-09
0.00496569
4.09359e-06
5.2004e-09
0.00496148
4.2115e-06
5.12302e-09
0.00495714
4.33224e-06
5.04109e-09
0.00495268
4.4561e-06
4.95459e-09
0.00494809
4.58339e-06
4.86322e-09
0.00494337
4.71438e-06
4.76704e-09
0.00493852
4.84931e-06
4.66587e-09
0.00493352
4.98835e-06
4.55972e-09
0.00492839
5.13166e-06
4.44847e-09
0.0049231
5.27934e-06
4.33211e-09
0.00491767
5.43147e-06
4.21086e-09
0.00491208
5.58811e-06
4.0848e-09
0.00490632
5.74933e-06
3.95413e-09
0.0049004
5.91516e-06
3.81896e-09
0.00489431
6.08564e-06
3.67943e-09
0.00488805
6.26081e-06
3.53601e-09
0.00488161
6.44072e-06
3.3892e-09
0.00487498
6.6254e-06
3.23936e-09
0.00486816
6.81489e-06
3.08695e-09
0.00486115
7.00926e-06
2.93242e-09
0.00485394
7.20855e-06
2.77616e-09
0.00484652
7.41284e-06
2.61857e-09
0.0048389
7.62221e-06
2.46013e-09
0.00483106
7.83676e-06
2.30127e-09
0.004823
8.05668e-06
2.14233e-09
0.00481471
8.28228e-06
1.98372e-09
0.0048062
8.51436e-06
1.82585e-09
0.00479744
8.75516e-06
1.66907e-09
9.01107e-06
0.00478843
1.51356e-09
0.00505063
2.58098e-07
0.00505026
7.45995e-07
0.00504966
1.18579e-06
0.00504884
1.65298e-06
0.00504767
2.33044e-06
0.00504598
3.3891e-06
0.00504357
4.83363e-06
0.00504035
6.45684e-06
0.0050364
7.93632e-06
0.00503192
8.98981e-06
0.00502718
9.48533e-06
0.00502246
9.45983e-06
0.00501793
9.06562e-06
0.00501368
8.49252e-06
0.00500972
7.90541e-06
0.00500601
7.41336e-06
0.00500247
7.06713e-06
0.00499903
6.87298e-06
0.00499562
6.81109e-06
0.00499219
6.8513e-06
0.0049887
6.96357e-06
0.00498513
7.1231e-06
0.00498148
7.31191e-06
0.00497771
7.51825e-06
0.00497384
7.73521e-06
0.00496986
7.95927e-06
0.00496577
8.18896e-06
0.00496156
8.42405e-06
0.00495722
8.66485e-06
0.00495277
8.91194e-06
0.00494818
9.16591e-06
0.00494347
9.4273e-06
0.00493862
9.69657e-06
0.00493364
9.97406e-06
0.00492851
1.02601e-05
0.00492323
1.05548e-05
0.00491781
1.08584e-05
0.00491223
1.1171e-05
0.00490648
1.14927e-05
0.00490057
1.18235e-05
0.0048945
1.21637e-05
0.00488824
1.25132e-05
0.00488181
1.28721e-05
0.0048752
1.32405e-05
0.00486839
1.36184e-05
0.0048614
1.40061e-05
0.0048542
1.44035e-05
0.0048468
1.48109e-05
0.0048392
1.52283e-05
0.00483138
1.56561e-05
0.00482334
1.60944e-05
0.00481508
1.6544e-05
0.00480659
1.70064e-05
0.00479786
1.74858e-05
1.79945e-05
0.00478887
0.00505063
3.86899e-07
0.00505026
1.11848e-06
0.00504966
1.7783e-06
0.00504884
2.47781e-06
0.00504768
3.48836e-06
0.005046
5.06488e-06
0.00504362
7.21647e-06
0.00504044
9.63737e-06
0.00503653
1.18492e-05
0.00503209
1.34312e-05
0.00502739
1.41849e-05
0.00502269
1.41623e-05
0.00501816
1.3588e-05
0.00501391
1.27434e-05
0.00500994
1.18736e-05
0.00500622
1.11417e-05
0.00500266
1.06245e-05
0.0049992
1.03323e-05
0.00499577
1.02365e-05
0.00499233
1.02929e-05
0.00498884
1.04571e-05
0.00498527
1.06924e-05
0.00498161
1.09719e-05
0.00497785
1.12783e-05
0.00497398
1.16011e-05
0.00497001
1.19349e-05
0.00496592
1.22775e-05
0.00496171
1.26284e-05
0.00495739
1.29881e-05
0.00495295
1.33573e-05
0.00494837
1.3737e-05
0.00494367
1.41278e-05
0.00493884
1.45304e-05
0.00493387
1.49454e-05
0.00492876
1.5373e-05
0.0049235
1.58138e-05
0.00491809
1.62677e-05
0.00491252
1.67351e-05
0.0049068
1.72161e-05
0.00490091
1.77108e-05
0.00489486
1.82192e-05
0.00488863
1.87416e-05
0.00488222
1.9278e-05
0.00487564
1.98285e-05
0.00486886
2.03932e-05
0.00486189
2.09723e-05
0.00485473
2.1566e-05
0.00484737
2.21743e-05
0.0048398
2.27976e-05
0.00483202
2.3436e-05
0.00482402
2.40902e-05
0.00481581
2.47609e-05
0.00480736
2.54502e-05
0.00479868
2.61642e-05
2.69198e-05
0.00478976
0.00505063
5.15393e-07
0.00505026
1.4903e-06
0.00504966
2.37023e-06
0.00504884
3.30056e-06
0.00504769
4.6378e-06
0.00504604
6.71927e-06
0.00504369
9.56083e-06
0.00504057
1.27638e-05
0.00503672
1.56997e-05
0.00503234
1.78124e-05
0.00502768
1.88358e-05
0.00502301
1.88337e-05
0.0050185
1.80983e-05
0.00501425
1.69985e-05
0.00501026
1.58578e-05
0.00500651
1.48928e-05
0.00500293
1.42065e-05
0.00499945
1.38148e-05
0.004996
1.36815e-05
0.00499255
1.37495e-05
0.00498904
1.39607e-05
0.00498547
1.4267e-05
0.00498181
1.46332e-05
0.00497805
1.50359e-05
0.00497419
1.54614e-05
0.00497022
1.59023e-05
0.00496614
1.63556e-05
0.00496195
1.68204e-05
0.00495764
1.72973e-05
0.00495321
1.77871e-05
0.00494866
1.82909e-05
0.00494398
1.88096e-05
0.00493916
1.93442e-05
0.00493421
1.98951e-05
0.00492912
2.0463e-05
0.00492389
2.10482e-05
0.00491851
2.16509e-05
0.00491297
2.22714e-05
0.00490728
2.29098e-05
0.00490142
2.35664e-05
0.0048954
2.42412e-05
0.00488921
2.49343e-05
0.00488284
2.56459e-05
0.00487629
2.63761e-05
0.00486956
2.7125e-05
0.00486264
2.78929e-05
0.00485552
2.86798e-05
0.00484821
2.9486e-05
0.0048407
3.03117e-05
0.00483298
3.11573e-05
0.00482504
3.20233e-05
0.00481689
3.29108e-05
0.00480852
3.38222e-05
0.00479992
3.47645e-05
3.57578e-05
0.00479108
0.00505063
6.43485e-07
0.00505026
1.86121e-06
0.00504967
2.96133e-06
0.00504885
4.12056e-06
0.00504771
5.77645e-06
0.00504608
8.34655e-06
0.00504379
1.18565e-05
0.00504073
1.58219e-05
0.00503696
1.94712e-05
0.00503265
2.2117e-05
0.00502806
2.34246e-05
0.00502343
2.34651e-05
0.00501894
2.25923e-05
0.00501468
2.12581e-05
0.00501067
1.98616e-05
0.00500689
1.86718e-05
0.00500328
1.78192e-05
0.00499977
1.73262e-05
0.0049963
1.71509e-05
0.00499283
1.72244e-05
0.00498931
1.74765e-05
0.00498573
1.78479e-05
0.00498207
1.82953e-05
0.00497831
1.87898e-05
0.00497446
1.9314e-05
0.0049705
1.98587e-05
0.00496644
2.04197e-05
0.00496226
2.09959e-05
0.00495797
2.15876e-05
0.00495357
2.21959e-05
0.00494903
2.28219e-05
0.00494438
2.34667e-05
0.00493959
2.41312e-05
0.00493467
2.48163e-05
0.00492961
2.55223e-05
0.00492441
2.62499e-05
0.00491906
2.69992e-05
0.00491356
2.77706e-05
0.00490791
2.85642e-05
0.00490209
2.93801e-05
0.00489612
3.02186e-05
0.00488997
3.10797e-05
0.00488365
3.19635e-05
0.00487716
3.28702e-05
0.00487048
3.38e-05
0.00486362
3.47529e-05
0.00485657
3.57293e-05
0.00484933
3.67292e-05
0.00484189
3.7753e-05
0.00483425
3.88011e-05
0.0048264
3.98739e-05
0.00481833
4.09725e-05
0.00481006
4.20994e-05
0.00480156
4.3262e-05
4.44809e-05
0.00479284
0.00505063
7.7109e-07
0.00505026
2.23096e-06
0.00504967
3.55132e-06
0.00504885
4.9372e-06
0.00504773
6.90236e-06
0.00504613
9.94214e-06
0.00504389
1.40953e-05
0.00504091
1.87999e-05
0.00503724
2.31502e-05
0.00503302
2.63316e-05
0.00502851
2.79402e-05
0.00502392
2.80487e-05
0.00501945
2.70661e-05
0.00501518
2.55219e-05
0.00501116
2.3887e-05
0.00500735
2.24824e-05
0.0050037
2.14665e-05
0.00500016
2.08702e-05
0.00499666
2.06477e-05
0.00499316
2.07201e-05
0.00498964
2.10056e-05
0.00498605
2.14351e-05
0.00498239
2.19575e-05
0.00497864
2.25382e-05
0.0049748
2.31564e-05
0.00497085
2.38008e-05
0.00496681
2.44661e-05
0.00496265
2.51506e-05
0.00495839
2.58545e-05
0.004954
2.65787e-05
0.0049495
2.73244e-05
0.00494487
2.80929e-05
0.00494012
2.88851e-05
0.00493523
2.97018e-05
0.00493021
3.05436e-05
0.00492505
3.1411e-05
0.00491975
3.23043e-05
0.00491429
3.32238e-05
0.00490869
3.41695e-05
0.00490293
3.51418e-05
0.004897
3.61406e-05
0.00489092
3.71662e-05
0.00488466
3.82186e-05
0.00487824
3.92979e-05
0.00487163
4.04043e-05
0.00486485
4.1538e-05
0.00485788
4.26991e-05
0.00485072
4.38878e-05
0.00484337
4.51043e-05
0.00483582
4.6349e-05
0.00482807
4.76223e-05
0.00482012
4.89252e-05
0.00481196
5.026e-05
0.00480359
5.16328e-05
5.30627e-05
0.004795
0.00505063
8.98079e-07
0.00505026
2.59935e-06
0.00504967
4.13986e-06
0.00504886
5.74987e-06
0.00504775
8.01404e-06
0.00504619
1.15027e-05
0.00504401
1.62715e-05
0.00504112
2.16896e-05
0.00503755
2.67267e-05
0.00503343
3.04462e-05
0.005029
3.23735e-05
0.00502447
3.25778e-05
0.00502002
3.1516e-05
0.00501575
2.97884e-05
0.00501171
2.79346e-05
0.00500786
2.63262e-05
0.00500418
2.51505e-05
0.0050006
2.44489e-05
0.00499707
2.41735e-05
0.00499356
2.42371e-05
0.00499001
2.45481e-05
0.00498642
2.5028e-05
0.00498276
2.56181e-05
0.00497902
2.62789e-05
0.00497519
2.69858e-05
0.00497126
2.77254e-05
0.00496724
2.8491e-05
0.00496311
2.92802e-05
0.00495887
3.0093e-05
0.00495452
3.09301e-05
0.00495005
3.17928e-05
0.00494546
3.26822e-05
0.00494075
3.35992e-05
0.00493591
3.45448e-05
0.00493093
3.55195e-05
0.00492582
3.65238e-05
0.00492056
3.75579e-05
0.00491517
3.86221e-05
0.00490962
3.97166e-05
0.00490392
4.08415e-05
0.00489806
4.19969e-05
0.00489205
4.31828e-05
0.00488586
4.43994e-05
0.00487952
4.56467e-05
0.004873
4.69249e-05
0.0048663
4.82341e-05
0.00485942
4.95744e-05
0.00485237
5.09459e-05
0.00484512
5.23489e-05
0.00483769
5.37835e-05
0.00483006
5.52502e-05
0.00482223
5.67496e-05
0.00481421
5.82833e-05
0.00480599
5.98549e-05
0.00479758
6.14755e-05
0.00478944
-1.01876e-06
1.36529e-09
0.00478995
-5.05992e-07
1.22613e-09
0.0047899
4.83912e-08
1.05632e-09
0.00478927
6.27945e-07
9.40032e-10
0.00478802
1.25516e-06
7.91816e-10
0.00478609
1.92619e-06
6.30195e-10
0.00478344
2.64537e-06
4.62071e-10
0.00478003
3.41701e-06
2.87734e-10
0.00477578
4.24571e-06
1.07984e-10
0.00477064
5.13648e-06
-7.60028e-11
0.00476455
6.0948e-06
-2.62922e-10
0.00475742
7.12664e-06
-4.50772e-10
0.00474918
8.23859e-06
-6.37665e-10
0.00473975
9.43793e-06
-8.2209e-10
0.00472902
1.07329e-05
-1.00163e-09
0.00471688
1.21328e-05
-1.1816e-09
0.00470324
1.36486e-05
-1.35508e-09
0.00468794
1.52934e-05
-1.51065e-09
0.00467086
1.70823e-05
-1.64293e-09
0.00465183
1.90332e-05
-1.75272e-09
0.00463067
2.11675e-05
-1.84727e-09
0.00460716
2.35104e-05
-1.92779e-09
0.00458107
2.60922e-05
-1.99075e-09
0.00455212
2.89486e-05
-2.03727e-09
0.00452
3.21216e-05
-2.06877e-09
0.00448434
3.56608e-05
-2.08655e-09
0.00444472
3.96248e-05
-2.09314e-09
0.00440064
4.40826e-05
-2.09081e-09
0.00435153
4.91161e-05
-2.08137e-09
0.00429671
5.48229e-05
-2.06708e-09
0.00423539
6.13201e-05
-2.05007e-09
0.00416664
6.87495e-05
-2.03155e-09
0.00408936
7.72833e-05
-2.01225e-09
0.00400223
8.71324e-05
-1.99271e-09
0.00390367
9.85551e-05
-1.97301e-09
0.00379181
0.000111866
-1.95298e-09
0.00366437
0.000127445
-1.93254e-09
0.00351863
0.000145735
-1.91174e-09
0.0033514
0.000167234
-1.89107e-09
0.00315896
0.000192448
-1.87186e-09
0.00293716
0.000221798
-1.85607e-09
0.00268172
0.000255441
-1.84663e-09
0.00238877
0.000292953
-1.84681e-09
0.00205593
0.000332838
-1.85967e-09
0.00168417
0.000371766
-1.8864e-09
0.00128066
0.000403508
-1.92013e-09
0.000863098
0.000417567
-1.93388e-09
0.000465627
0.000397473
-1.85932e-09
0.000147473
0.000318156
-1.5601e-09
0.000147474
-8.12348e-10
0.00478852
-6.6703e-07
0.00478765
3.60279e-07
0.00478625
1.45364e-06
0.00478425
2.62172e-06
0.00478164
3.87228e-06
0.00477835
5.21166e-06
0.00477435
6.64742e-06
0.00476958
8.18804e-06
0.00476398
9.84278e-06
0.0047575
1.16217e-05
0.00475006
1.35358e-05
0.00474159
1.55969e-05
0.00473201
1.78185e-05
0.00472123
2.02149e-05
0.00470916
2.28028e-05
0.00469569
2.56009e-05
0.00468071
2.86313e-05
0.00466408
3.19201e-05
0.00464567
3.54979e-05
0.0046253
3.94004e-05
0.0046028
4.36705e-05
0.00457795
4.83591e-05
0.00455051
5.35266e-05
0.00452022
5.92443e-05
0.00448674
6.55968e-05
0.00444972
7.2683e-05
0.00440872
8.06201e-05
0.00436326
8.9546e-05
0.00431275
9.96242e-05
0.00425653
0.000111049
0.00419379
0.000124055
0.00412362
0.000138923
0.00404491
0.000155996
0.00395635
0.000175692
0.00385638
0.000198522
0.00374314
0.000225107
0.00361439
0.000256195
0.00346747
0.000292656
0.00329924
0.000335458
0.00310612
0.000385577
0.0028841
0.00044381
0.00262914
0.000510407
0.00233763
0.00058446
0.00200756
0.000662913
0.00164023
0.000739088
0.00124315
0.00080059
0.000834143
0.000826575
0.000447026
0.00078459
0.000138889
0.000626293
0.000286363
0.00478669
2.40484e-06
0.00478311
3.93794e-06
0.00477899
5.57365e-06
0.00477429
7.32168e-06
0.00476897
9.19182e-06
0.00476299
1.11948e-05
0.00475629
1.33421e-05
0.00474883
1.56467e-05
0.00474055
1.81224e-05
0.00473139
2.07844e-05
0.00472128
2.36492e-05
0.00471014
2.67348e-05
0.0046979
3.00611e-05
0.00468446
3.36503e-05
0.00466974
3.7527e-05
0.00465362
4.17199e-05
0.00463599
4.62621e-05
0.00461671
5.11932e-05
0.00459565
5.65591e-05
0.00457264
6.24142e-05
0.00454749
6.88226e-05
0.00451999
7.58612e-05
0.00448989
8.36209e-05
0.00445693
9.2209e-05
0.00442077
0.000101752
0.00438105
0.0001124
0.00433735
0.000124326
0.00428916
0.000137739
0.0042359
0.000152882
0.0041769
0.000170047
0.00411137
0.00018958
0.00403839
0.000211903
0.00395687
0.000237522
0.0038655
0.000267057
0.00376276
0.000301261
0.00364683
0.000341044
0.00351553
0.000387495
0.00336631
0.000441875
0.0031962
0.000505569
0.00300182
0.000579951
0.00277954
0.000666092
0.00252573
0.00076422
0.00223738
0.000872809
0.00191315
0.000987139
0.00155506
0.00109718
0.00117109
0.00118456
0.000779118
0.00121854
0.000412506
0.0011512
0.000125718
0.00091308
0.000412081
0.00478398
9.51116e-06
0.00477637
1.15451e-05
0.00476823
1.3716e-05
0.00475951
1.60359e-05
0.00475019
1.8518e-05
0.00474021
2.11766e-05
0.00472952
2.40276e-05
0.00471808
2.7088e-05
0.00470582
3.03765e-05
0.0046927
3.39134e-05
0.00467862
3.77207e-05
0.00466354
4.18227e-05
0.00464735
4.62459e-05
0.00462998
5.10201e-05
0.00461133
5.61787e-05
0.00459129
6.17598e-05
0.00456974
6.78083e-05
0.00454656
7.43773e-05
0.00452159
8.15287e-05
0.00449467
8.93352e-05
0.00446561
9.78833e-05
0.00443419
0.000107276
0.00440018
0.000117634
0.00436329
0.000129103
0.00432319
0.00014185
0.00427951
0.000156075
0.00423183
0.000172011
0.00417963
0.000189933
0.00412235
0.000210166
0.0040593
0.000233095
0.0039897
0.000259181
0.00391263
0.000288975
0.00382701
0.000323145
0.00373157
0.000362499
0.00362481
0.000408014
0.00350499
0.000460866
0.00337004
0.000522446
0.00321757
0.000594344
0.00304486
0.000678281
0.0028489
0.00077591
0.00262657
0.000888424
0.00237495
0.00101584
0.00209192
0.00115583
0.00177718
0.00130188
0.00143373
0.00144063
0.0010701
0.00154819
0.000703746
0.0015849
0.000366151
0.0014888
0.000106985
0.00117225
0.000519066
0.00478043
2.19164e-05
0.00476753
2.44412e-05
0.00475411
2.71362e-05
0.00474013
3.00167e-05
0.00472555
3.30993e-05
0.00471033
3.64022e-05
0.00469441
3.99452e-05
0.00467775
4.37498e-05
0.00466028
4.78393e-05
0.00464196
5.22392e-05
0.0046227
5.69772e-05
0.00460244
6.20836e-05
0.00458109
6.75919e-05
0.00455858
7.35396e-05
0.00453479
7.99687e-05
0.00450962
8.69276e-05
0.00448295
9.44728e-05
0.00445466
0.000102671
0.00442459
0.000111601
0.00439257
0.000121355
0.00435841
0.00013204
0.0043219
0.000143787
0.00428278
0.000156748
0.00424078
0.000171105
0.00419556
0.000187067
0.00414675
0.000204885
0.00409392
0.00022485
0.00403655
0.000247304
0.00397406
0.00027265
0.00390579
0.000301368
0.00383094
0.000334025
0.00374862
0.000371301
0.00365775
0.000414013
0.00355711
0.000463143
0.00344525
0.000519868
0.00332053
0.000585591
0.00318103
0.000661947
0.0030246
0.000750774
0.00284887
0.000854004
0.00265138
0.000973405
0.00242973
0.00111007
0.00218201
0.00126356
0.00190737
0.00143047
0.00160693
0.00160232
0.00128499
0.00176257
0.000950627
0.00188255
0.000619988
0.00191554
0.000319612
0.00178917
8.85413e-05
0.00140332
0.000607607
0.00477611
4.08149e-05
0.00475673
4.3814e-05
0.00473685
4.70172e-05
0.00471643
5.04426e-05
0.00469541
5.41103e-05
0.00467377
5.80421e-05
0.00465146
6.22617e-05
0.00462841
6.67949e-05
0.00460458
7.16698e-05
0.00457991
7.69168e-05
0.00455431
8.25693e-05
0.00452773
8.86639e-05
0.00450008
9.5241e-05
0.00447128
0.000102346
0.00444122
0.00011003
0.00440979
0.000118351
0.00437689
0.000127378
0.00434237
0.000137193
0.00430608
0.00014789
0.00426785
0.000159581
0.0042275
0.000172397
0.00418479
0.000186495
0.00413948
0.000202059
0.00409127
0.000219308
0.00403984
0.000238496
0.00398481
0.000259921
0.00392573
0.000283934
0.00386209
0.000310943
0.00379331
0.000341431
0.00371871
0.000375965
0.00363751
0.000415219
0.00354882
0.000459992
0.0034516
0.000511239
0.00334465
0.000570093
0.00322661
0.000637902
0.00309597
0.000716238
0.00295101
0.000806898
0.00278995
0.00091184
0.00261093
0.00103302
0.00241228
0.00117206
0.00219273
0.00132962
0.00195189
0.0015044
0.00169086
0.0016915
0.00141294
0.00188023
0.0011244
0.00205111
0.000835171
0.00217178
0.000559096
0.00219162
0.000312547
0.00203572
0.000107978
0.00160789
0.000715585
0.00477108
6.73071e-05
0.00474414
7.07563e-05
0.00471671
7.4446e-05
0.00468876
7.83955e-05
0.00466024
8.26277e-05
0.00463112
8.71678e-05
0.00460134
9.20431e-05
0.00457085
9.72835e-05
0.00453959
0.000102922
0.00450752
0.000108993
0.00447455
0.000115536
0.00444062
0.000122595
0.00440565
0.000130216
0.00436954
0.000138452
0.00433221
0.000147364
0.00429354
0.00015702
0.00425341
0.000167503
0.0042117
0.000178907
0.00416824
0.000191345
0.00412288
0.000204947
0.0040754
0.00021987
0.0040256
0.000236297
0.00397321
0.000254446
0.00391795
0.00027457
0.00385948
0.000296969
0.00379741
0.000321991
0.0037313
0.000350044
0.00366064
0.000381604
0.00358484
0.00041723
0.00350323
0.000457577
0.00341503
0.000503419
0.00331935
0.000555669
0.00321518
0.000615408
0.00310137
0.000683904
0.00297663
0.000762637
0.00283957
0.000853299
0.00268871
0.000957757
0.00252261
0.00107794
0.00234001
0.00121562
0.00214013
0.00137194
0.00192309
0.00154667
0.00169046
0.00173703
0.00144597
0.00193599
0.00119622
0.00212998
0.00095122
0.00229611
0.000723941
0.00239906
0.000527728
0.00238783
0.000367197
0.00219625
0.000222338
0.00175275
0.000937923
-3.08208e-05
3.08209e-05
-9.76878e-11
-8.41267e-05
5.33058e-05
7.73959e-11
-0.000136205
5.20779e-05
5.07318e-10
-0.000173313
3.71066e-05
1.02712e-09
-0.000187933
1.4619e-05
1.55961e-09
-0.000176806
-1.11296e-05
2.0507e-09
-0.000139341
-3.74676e-05
2.54956e-09
-7.60413e-05
-6.33024e-05
3.03746e-09
1.14833e-05
-8.75282e-05
3.51898e-09
0.000120986
-0.000109507
3.99431e-09
0.000249907
-0.000128925
4.44606e-09
0.000395516
-0.000145614
4.84335e-09
0.000555032
-0.000159521
5.14638e-09
0.000725713
-0.000170686
5.31694e-09
0.000904919
-0.000179211
5.32119e-09
0.00109016
-0.000185244
5.13883e-09
0.00127911
-0.000188962
4.76527e-09
0.00146968
-0.000190566
4.21837e-09
0.00165994
-0.00019027
3.52985e-09
0.00184823
-0.000188292
2.7549e-09
0.00203308
-0.000184851
2.07842e-09
0.00221324
-0.000180164
1.51505e-09
0.00238768
-0.000174437
1.47515e-09
0.00255555
-0.000167868
2.15201e-09
0.00271618
-0.000160639
3.17559e-09
0.0028691
-0.000152918
4.3167e-09
0.00301395
-0.000144858
5.2457e-09
0.00315054
-0.000136596
5.84917e-09
0.00327879
-0.000128254
6.16291e-09
0.00339872
-0.000119936
6.19939e-09
0.00351045
-0.000111734
5.98213e-09
0.00361416
-0.000103724
5.54595e-09
0.00371013
-9.59688e-05
4.93691e-09
0.00379864
-8.85173e-05
4.20842e-09
0.00388005
-8.14076e-05
3.41675e-09
0.00395471
-7.46669e-05
2.61957e-09
0.00402302
-6.8313e-05
1.86898e-09
0.00408537
-6.23547e-05
1.20739e-09
0.00414217
-5.67942e-05
6.65995e-10
0.00419379
-5.16268e-05
2.6315e-10
0.00424064
-4.68434e-05
5.3744e-12
0.00428307
-4.24301e-05
-1.10182e-10
0.00432144
-3.83703e-05
-9.45811e-11
0.00435608
-3.46449e-05
3.64471e-11
0.00438732
-3.12334e-05
2.63198e-10
0.00441543
-2.81142e-05
5.65652e-10
0.00444069
-2.52658e-05
9.24614e-10
0.00446336
-2.26663e-05
1.32253e-09
0.00448365
-2.02945e-05
1.74387e-09
-1.81297e-05
0.00450178
2.17693e-09
-2.7047e-05
5.78679e-05
-7.31145e-05
9.93733e-05
-0.000117178
9.61416e-05
-0.000147078
6.70067e-05
-0.000155833
2.3374e-05
-0.000140646
-2.63167e-05
-0.000100688
-7.74259e-05
-3.63095e-05
-0.000127681
5.0985e-05
-0.000174823
0.000159226
-0.000217748
0.000286083
-0.000255782
0.000429022
-0.000288553
0.000585439
-0.000315938
0.000752747
-0.000337994
0.000928434
-0.000354899
0.00111012
-0.000366925
0.00129556
-0.000374409
0.00148273
-0.000377734
0.00166977
-0.00037731
0.00185504
-0.00037356
0.0020371
-0.000366911
0.00221472
-0.000357785
0.00238687
-0.000346588
0.00255271
-0.000333708
0.00271158
-0.000319506
0.00286297
-0.000304315
0.00300655
-0.000288437
0.0031421
-0.000272144
0.00326952
-0.000255678
0.00338884
-0.000239248
0.00350014
-0.000223036
0.00360361
-0.000207194
0.00369949
-0.000191848
0.00378806
-0.000177095
0.00386967
-0.000163013
0.00394466
-0.000149657
0.00401341
-0.000137062
0.0040763
-0.000125248
0.00413373
-0.000114218
0.00418607
-0.000103965
0.00423369
-9.44707e-05
0.00427697
-8.57088e-05
0.00431625
-7.76464e-05
0.00435185
-7.02463e-05
0.00438408
-6.34679e-05
0.00441324
-5.7269e-05
0.00443958
-5.16068e-05
0.00446335
-4.64385e-05
0.00448478
-4.17217e-05
-3.74149e-05
0.00450406
-2.02025e-05
7.80704e-05
-5.18745e-05
0.000131045
-8.07427e-05
0.00012501
-9.7076e-05
8.334e-05
-9.47224e-05
2.10204e-05
-7.19979e-05
-4.90411e-05
-2.75164e-05
-0.000121907
3.83225e-05
-0.00019352
0.000124732
-0.000261232
0.000230198
-0.000323213
0.000352777
-0.000378362
0.000490323
-0.000426099
0.000640579
-0.000466194
0.000801251
-0.000498666
0.000970075
-0.000523724
0.00114487
-0.000541719
0.00132357
-0.000553106
0.00150425
-0.000558414
0.00168515
-0.000558217
0.00186471
-0.000553118
0.00204153
-0.000543728
0.0022144
-0.000530656
0.00238231
-0.000514495
0.00254441
-0.00049581
0.00270004
-0.000475134
0.00284868
-0.000452957
0.00298997
-0.000429725
0.00312367
-0.000405843
0.00324966
-0.000381669
0.00336793
-0.000357517
0.00347855
-0.000333658
0.00358167
-0.000310319
0.00367751
-0.000287689
0.00376634
-0.000265919
0.00384845
-0.000245122
0.00392417
-0.000225384
0.00399387
-0.00020676
0.0040579
-0.000189279
0.00411663
-0.000172951
0.00417043
-0.000157765
0.00421966
-0.000143697
0.00426466
-0.000130708
0.00430576
-0.000118752
0.00434329
-0.000107773
0.00437754
-9.77131e-05
0.00440878
-8.85104e-05
0.00443727
-8.01016e-05
0.00446326
-7.24239e-05
0.00448695
-6.54144e-05
-5.90101e-05
0.00450855
-7.66225e-06
8.57326e-05
-2.0523e-05
0.000143906
-2.84536e-05
0.00013294
-2.62974e-05
8.11838e-05
-8.43538e-06
3.15838e-06
2.28825e-05
-8.0359e-05
7.19429e-05
-0.000170968
0.000138924
-0.000260501
0.000223267
-0.000345575
0.000324012
-0.000423959
0.000439858
-0.000494208
0.000569226
-0.000555467
0.000710347
-0.000607315
0.000861344
-0.000649662
0.0010203
-0.000682675
0.00118529
-0.000706718
0.00135449
-0.000722303
0.00152613
-0.000730051
0.00169857
-0.000730658
0.00187032
-0.000724868
0.00204004
-0.000713446
0.00220654
-0.000697162
0.00236882
-0.000676775
0.00252603
-0.000653016
0.00267747
-0.000626576
0.00282261
-0.000598096
0.00296105
-0.000568161
0.00309251
-0.000537304
0.00321684
-0.000505998
0.00333398
-0.000474659
0.00344397
-0.000443648
0.00354692
-0.00041327
0.00364301
-0.000383777
0.00373246
-0.000355371
0.00381555
-0.000328209
0.00389257
-0.000302406
0.00396385
-0.000278038
0.00402972
-0.000255149
0.00409052
-0.000233755
0.0041466
-0.000213846
0.00419829
-0.00019539
0.00424593
-0.000178341
0.00428981
-0.000162639
0.00433025
-0.000148214
0.00436753
-0.000134991
0.00440191
-0.000122889
0.00443364
-0.000111827
0.00446293
-0.000101723
0.00449001
-9.24948e-05
-8.40566e-05
0.00451506
7.77536e-06
7.79573e-05
1.87725e-05
0.000132909
3.59725e-05
0.00011574
6.05762e-05
5.65801e-05
9.11233e-05
-2.73887e-05
0.000133803
-0.000123038
0.000188006
-0.000225171
0.000254956
-0.000327451
0.000335213
-0.000425832
0.000428766
-0.000517511
0.000535135
-0.000600577
0.000653458
-0.00067379
0.000782578
-0.000736435
0.000921125
-0.000788209
0.00106759
-0.00082914
0.00122039
-0.000859517
0.00137792
-0.000879832
0.0015386
-0.000890734
0.00170093
-0.000892983
0.00186348
-0.000887418
0.00202495
-0.000874921
0.00218418
-0.000856394
0.00234014
-0.000832736
0.00249196
-0.00080483
0.0026389
-0.000773517
0.00278038
-0.000739579
0.00291596
-0.000703736
0.0030453
-0.000666646
0.0031682
-0.000628896
0.00328454
-0.000591007
0.00339432
-0.00055343
0.0034976
-0.000516548
0.00359451
-0.000480681
0.00368522
-0.000446086
0.00376998
-0.000412963
0.00384903
-0.000381462
0.00392268
-0.000351683
0.00399121
-0.000323686
0.00405495
-0.000297496
0.00411421
-0.000273104
0.0041693
-0.000250479
0.00422053
-0.000229565
0.00426818
-0.000210292
0.00431254
-0.000192578
0.00435389
-0.000176332
0.00439245
-0.000161457
0.00442848
-0.000147855
0.00446218
-0.000135425
0.00449376
-0.000124069
-0.000113677
0.00452338
2.5191e-05
5.27663e-05
6.5074e-05
9.30258e-05
0.000110239
7.05754e-05
0.00015852
8.29955e-06
0.000205012
-7.38815e-05
0.000255864
-0.00017389
0.000312311
-0.000281618
0.000376312
-0.000391453
0.00044942
-0.00049894
0.000532629
-0.000600721
0.000626392
-0.00069434
0.000730665
-0.000778063
0.000844982
-0.000850752
0.00096854
-0.000911767
0.00110028
-0.00096088
0.00123896
-0.000998199
0.00138323
-0.0010241
0.0015317
-0.0010392
0.00168294
-0.00104423
0.00183562
-0.00104009
0.00198843
-0.00102773
0.0021402
-0.00100816
0.00228986
-0.000982395
0.00243647
-0.000951446
0.00257925
-0.000916295
0.00271754
-0.000877866
0.00285081
-0.000837012
0.00297868
-0.000794513
0.00310086
-0.000751075
0.00321718
-0.000707326
0.00332756
-0.00066381
0.00343201
-0.000620995
0.0035306
-0.000579271
0.00362347
-0.000538955
0.0037108
-0.000500295
0.00379282
-0.000463478
0.00386977
-0.000428633
0.00394192
-0.000395841
0.00400956
-0.000365136
0.00407297
-0.000336516
0.00413244
-0.00030995
0.00418826
-0.000285378
0.00424069
-0.000262721
0.00428999
-0.000241886
0.00433643
-0.000222769
0.00438023
-0.000205257
0.00442162
-0.000189238
0.00446079
-0.000174596
0.00449793
-0.000161213
-0.000148962
0.00453321
4.79414e-05
4.82494e-06
0.000121705
1.92625e-05
0.000197034
-4.75343e-06
0.000260421
-5.50884e-05
0.000319916
-0.000133376
0.000375362
-0.000229336
0.000430116
-0.000336372
0.000487363
-0.000448699
0.000549825
-0.000561402
0.000619592
-0.000670487
0.000698071
-0.000772819
0.000786036
-0.000866028
0.000883699
-0.000948415
0.000990804
-0.00101887
0.00110672
-0.00107679
0.00123051
-0.00112199
0.00136106
-0.00115466
0.00149711
-0.00117524
0.00163733
-0.00118445
0.00178038
-0.00118315
0.00192497
-0.00117232
0.00206987
-0.00115306
0.00221394
-0.00112647
0.00235618
-0.00109368
0.00249568
-0.0010558
0.00263173
-0.00101391
0.00276369
-0.000968978
0.0028911
-0.000921923
0.0030136
-0.000873569
0.00313093
-0.000824655
0.00324295
-0.000775829
0.0033496
-0.000727647
0.0034509
-0.000680576
0.00354694
-0.000634998
0.00363786
-0.000591215
0.00372384
-0.000549457
0.00380509
-0.000509884
0.00388186
-0.000472602
0.00395438
-0.000437659
0.00402293
-0.000405064
0.00408776
-0.000374786
0.00414915
-0.000346764
0.00420734
-0.000320913
0.00426258
-0.000297129
0.00431511
-0.000275296
0.00436515
-0.000255292
0.00441289
-0.000236986
0.00445855
-0.00022025
0.00450229
-0.000204951
0.00454428
-0.000190953
0.00452784
-2.6058e-05
2.62857e-09
0.0045526
-2.47709e-05
3.12484e-09
0.00457616
-2.35584e-05
3.61974e-09
0.00459857
-2.24189e-05
4.09587e-09
0.00461992
-2.13495e-05
4.54298e-09
0.00464026
-2.03466e-05
4.95757e-09
0.00465966
-1.94064e-05
5.34103e-09
0.00467818
-1.85254e-05
5.69792e-09
0.00469587
-1.76998e-05
6.03437e-09
0.00471279
-1.69259e-05
6.3574e-09
0.00472899
-1.61996e-05
6.67425e-09
0.0047445
-1.55164e-05
6.99177e-09
0.00475936
-1.48712e-05
7.31531e-09
0.00477361
-1.42583e-05
7.64762e-09
0.00478727
-1.3671e-05
7.98847e-09
0.00480037
-1.3102e-05
8.33394e-09
0.0048129
-1.25438e-05
8.67582e-09
0.00482488
-1.19888e-05
9.00204e-09
0.0048363
-1.14311e-05
9.29748e-09
0.00484716
-1.08666e-05
9.54498e-09
0.00485745
-1.02948e-05
9.7268e-09
0.00486715
-9.71899e-06
9.82651e-09
0.00487629
-9.14633e-06
9.83107e-09
0.00488487
-8.58732e-06
9.73206e-09
0.00489291
-8.05418e-06
9.52673e-09
0.00490046
-7.55889e-06
9.21902e-09
0.00490757
-7.11111e-06
8.81866e-09
0.00491427
-6.71654e-06
8.34021e-09
0.00492064
-6.37605e-06
7.801e-09
0.00492672
-6.08587e-06
7.21954e-09
0.00493255
-5.83857e-06
6.61364e-09
0.00493817
-5.62468e-06
5.99936e-09
0.0049436
-5.43435e-06
5.3894e-09
0.00494885
-5.25875e-06
4.79292e-09
0.00495394
-5.09094e-06
4.21642e-09
0.00495886
-4.92615e-06
3.66403e-09
0.00496362
-4.76171e-06
3.13766e-09
0.00496822
-4.59654e-06
2.63747e-09
0.00497264
-4.43065e-06
2.16347e-09
0.00497691
-4.2647e-06
1.716e-09
0.00498101
-4.09957e-06
1.29613e-09
0.00498494
-3.93617e-06
9.05833e-10
0.00498872
-3.7753e-06
5.47137e-10
0.00499233
-3.61762e-06
2.22029e-10
0.0049958
-3.46338e-06
-5.84167e-11
0.00499911
-3.31325e-06
-3.22297e-10
0.00500228
-3.16733e-06
-5.70038e-10
0.0050053
-3.02565e-06
-8.00628e-10
0.00500819
-2.88824e-06
-1.02008e-09
0.00501095
-2.75511e-06
-1.23751e-09
0.00501358
-2.62625e-06
-1.46091e-09
0.00501608
-2.50158e-06
-1.69826e-09
0.00501846
-2.38105e-06
-1.95535e-09
0.00502073
-2.26455e-06
-2.23668e-09
0.00502289
-2.152e-06
-2.54116e-09
0.00502493
-2.04333e-06
-2.86201e-09
0.00502687
-1.93846e-06
-3.18599e-09
0.00502871
-1.83731e-06
-3.49572e-09
0.00503046