/*--------------------------------*- C++ -*----------------------------------*\
| =========                 |                                                 |
| \\      /  F ield         | OpenFOAM: The Open Source CFD Toolbox           |
|  \\    /   O peration     | Version:  2412                                  |
|   \\  /    A nd           | Website:  www.openfoam.com                      |
|    \\/     M anipulation  |                                                 |
\*---------------------------------------------------------------------------*/
FoamFile
{
    version     2.0;
    format      ascii;
    arch        "LSB;label=32;scalar=64";
    class       volVectorField;
    location    "14.5";
    object      U;
}
// * * * * * * * * * * * * * * * * * * * * * * * * * * * * * * * * * * * * * //

dimensions      [0 1 -1 0 0 0 0];

internalField   nonuniform List<vector> 
63420
(
(0.0999997 4.36884e-07 0)
(0.099995 1.28775e-06 0)
(0.0999853 2.08728e-06 0)
(0.0999715 2.96918e-06 0)
(0.0999526 4.27635e-06 0)
(0.0999254 6.35498e-06 0)
(0.0998855 9.25617e-06 0)
(0.0998296 1.26171e-05 0)
(0.0997574 1.58149e-05 0)
(0.0996722 1.82602e-05 0)
(0.0995792 1.96323e-05 0)
(0.0994841 1.99461e-05 0)
(0.0993917 1.94698e-05 0)
(0.0993045 1.8577e-05 0)
(0.0992235 1.76153e-05 0)
(0.099148 1.68318e-05 0)
(0.0990767 1.63559e-05 0)
(0.0990081 1.62205e-05 0)
(0.0989407 1.63969e-05 0)
(0.0988733 1.68282e-05 0)
(0.0988051 1.74525e-05 0)
(0.0987354 1.82165e-05 0)
(0.098664 1.90804e-05 0)
(0.0985906 2.00177e-05 0)
(0.0985151 2.10132e-05 0)
(0.0984373 2.20595e-05 0)
(0.0983573 2.31547e-05 0)
(0.098275 2.43e-05 0)
(0.0981904 2.54985e-05 0)
(0.0981033 2.67538e-05 0)
(0.0980138 2.80701e-05 0)
(0.0979217 2.94516e-05 0)
(0.0978269 3.09021e-05 0)
(0.0977295 3.24258e-05 0)
(0.0976292 3.40263e-05 0)
(0.0975261 3.57074e-05 0)
(0.09742 3.7473e-05 0)
(0.0973109 3.93268e-05 0)
(0.0971986 4.12727e-05 0)
(0.0970831 4.33145e-05 0)
(0.0969643 4.54563e-05 0)
(0.096842 4.77023e-05 0)
(0.0967163 5.00568e-05 0)
(0.0965869 5.25243e-05 0)
(0.0964538 5.51096e-05 0)
(0.0963169 5.78176e-05 0)
(0.0961762 6.06534e-05 0)
(0.0960314 6.36225e-05 0)
(0.0958826 6.67307e-05 0)
(0.0957296 6.99843e-05 0)
(0.0955722 7.33904e-05 0)
(0.0954105 7.69577e-05 0)
(0.0952442 8.07002e-05 0)
(0.0950733 8.46468e-05 0)
(0.0948975 8.88699e-05 0)
(0.0999997 1.31061e-06 0)
(0.099995 3.8636e-06 0)
(0.0999853 6.26338e-06 0)
(0.0999715 8.90777e-06 0)
(0.0999526 1.2819e-05 0)
(0.0999255 1.90311e-05 0)
(0.0998858 2.76998e-05 0)
(0.0998302 3.77469e-05 0)
(0.0997585 4.73166e-05 0)
(0.0996737 5.46501e-05 0)
(0.0995811 5.87867e-05 0)
(0.0994863 5.97665e-05 0)
(0.099394 5.83851e-05 0)
(0.0993069 5.57545e-05 0)
(0.0992258 5.29108e-05 0)
(0.0991501 5.05914e-05 0)
(0.0990787 4.91843e-05 0)
(0.0990099 4.87894e-05 0)
(0.0989424 4.93228e-05 0)
(0.0988748 5.06158e-05 0)
(0.0988065 5.2485e-05 0)
(0.0987368 5.4772e-05 0)
(0.0986653 5.73582e-05 0)
(0.0985919 6.01649e-05 0)
(0.0985164 6.31464e-05 0)
(0.0984387 6.6281e-05 0)
(0.0983588 6.95626e-05 0)
(0.0982766 7.2995e-05 0)
(0.098192 7.65867e-05 0)
(0.098105 8.03492e-05 0)
(0.0980156 8.42945e-05 0)
(0.0979236 8.8435e-05 0)
(0.097829 9.27826e-05 0)
(0.0977317 9.7349e-05 0)
(0.0976316 0.000102146 0)
(0.0975286 0.000107184 0)
(0.0974227 0.000112475 0)
(0.0973138 0.00011803 0)
(0.0972017 0.00012386 0)
(0.0970864 0.000129978 0)
(0.0969678 0.000136394 0)
(0.0968457 0.000143123 0)
(0.0967202 0.000150177 0)
(0.0965911 0.000157568 0)
(0.0964583 0.000165312 0)
(0.0963217 0.000173423 0)
(0.0961813 0.000181916 0)
(0.0960369 0.000190808 0)
(0.0958884 0.000200116 0)
(0.0957357 0.000209859 0)
(0.0955788 0.000220057 0)
(0.0954175 0.000230737 0)
(0.0952517 0.00024194 0)
(0.0950813 0.000253751 0)
(0.094906 0.000266382 0)
(0.0999997 2.18327e-06 0)
(0.099995 6.43717e-06 0)
(0.0999853 1.04376e-05 0)
(0.0999715 1.48388e-05 0)
(0.0999527 2.13291e-05 0)
(0.0999257 3.16226e-05 0)
(0.0998865 4.59883e-05 0)
(0.0998315 6.26547e-05 0)
(0.0997607 7.85576e-05 0)
(0.0996767 9.07836e-05 0)
(0.0995849 9.77311e-05 0)
(0.0994907 9.94511e-05 0)
(0.0993986 9.7248e-05 0)
(0.0993115 9.29547e-05 0)
(0.0992303 8.82852e-05 0)
(0.0991543 8.44632e-05 0)
(0.0990826 8.21366e-05 0)
(0.0990135 8.14771e-05 0)
(0.0989456 8.23513e-05 0)
(0.0988778 8.44837e-05 0)
(0.0988093 8.75734e-05 0)
(0.0987395 9.13592e-05 0)
(0.098668 9.56453e-05 0)
(0.0985946 0.000100301 0)
(0.0985191 0.000105251 0)
(0.0984415 0.000110458 0)
(0.0983617 0.000115913 0)
(0.0982796 0.000121619 0)
(0.0981952 0.000127592 0)
(0.0981085 0.00013385 0)
(0.0980192 0.000140414 0)
(0.0979275 0.000147302 0)
(0.0978331 0.000154535 0)
(0.0977361 0.000162132 0)
(0.0976363 0.000170112 0)
(0.0975337 0.000178493 0)
(0.0974281 0.000187295 0)
(0.0973195 0.000196535 0)
(0.0972078 0.000206233 0)
(0.0970929 0.000216408 0)
(0.0969747 0.00022708 0)
(0.0968531 0.00023827 0)
(0.0967281 0.000249999 0)
(0.0965995 0.00026229 0)
(0.0964673 0.000275164 0)
(0.0963313 0.000288648 0)
(0.0961915 0.000302767 0)
(0.0960477 0.000317546 0)
(0.0958999 0.000333015 0)
(0.095748 0.000349204 0)
(0.0955919 0.000366148 0)
(0.0954314 0.000383889 0)
(0.0952666 0.000402494 0)
(0.0950971 0.000422097 0)
(0.0949229 0.000443033 0)
(0.0999997 3.05417e-06 0)
(0.099995 9.00691e-06 0)
(0.0999853 1.46084e-05 0)
(0.0999716 2.07571e-05 0)
(0.0999528 2.97862e-05 0)
(0.0999261 4.40774e-05 0)
(0.0998874 6.40259e-05 0)
(0.0998334 8.72031e-05 0)
(0.0997638 0.000109376 0)
(0.0996811 0.000126501 0)
(0.0995903 0.000136334 0)
(0.0994969 0.000138914 0)
(0.0994053 0.000136023 0)
(0.0993183 0.000130189 0)
(0.0992368 0.000123785 0)
(0.0991605 0.000118514 0)
(0.0990882 0.000115287 0)
(0.0990186 0.000114355 0)
(0.0989503 0.000115544 0)
(0.0988822 0.00011848 0)
(0.0988134 0.00012275 0)
(0.0987435 0.000127996 0)
(0.0986719 0.000133945 0)
(0.0985985 0.000140418 0)
(0.0985231 0.000147307 0)
(0.0984457 0.000154561 0)
(0.098366 0.000162165 0)
(0.0982842 0.000170125 0)
(0.0982001 0.00017846 0)
(0.0981136 0.000187195 0)
(0.0980247 0.000196357 0)
(0.0979333 0.000205974 0)
(0.0978393 0.000216073 0)
(0.0977427 0.00022668 0)
(0.0976433 0.000237822 0)
(0.0975412 0.000249524 0)
(0.0974361 0.000261812 0)
(0.097328 0.000274712 0)
(0.0972169 0.000288249 0)
(0.0971026 0.000302452 0)
(0.0969851 0.000317346 0)
(0.0968642 0.000332962 0)
(0.0967399 0.000349328 0)
(0.0966121 0.000366475 0)
(0.0964806 0.000384436 0)
(0.0963455 0.000403244 0)
(0.0962066 0.000422933 0)
(0.0960639 0.000443541 0)
(0.0959172 0.000465107 0)
(0.0957664 0.000487673 0)
(0.0956114 0.000511285 0)
(0.0954523 0.000536001 0)
(0.0952888 0.000561908 0)
(0.0951208 0.00058918 0)
(0.0949482 0.000618249 0)
(0.0999997 3.9227e-06 0)
(0.099995 1.15712e-05 0)
(0.0999854 1.87744e-05 0)
(0.0999716 2.66582e-05 0)
(0.0999529 3.8172e-05 0)
(0.0999266 5.63491e-05 0)
(0.0998886 8.17278e-05 0)
(0.0998358 0.00011127 0)
(0.0997677 0.000139629 0)
(0.0996866 0.00016166 0)
(0.0995973 0.000174476 0)
(0.0995049 0.000178075 0)
(0.0994139 0.000174677 0)
(0.0993269 0.000167464 0)
(0.0992452 0.000159446 0)
(0.0991683 0.000152799 0)
(0.0990955 0.000148698 0)
(0.0990253 0.000147483 0)
(0.0989564 0.000148952 0)
(0.0988879 0.000152643 0)
(0.0988188 0.000158041 0)
(0.0987487 0.000164694 0)
(0.098677 0.000172257 0)
(0.0986037 0.000180502 0)
(0.0985284 0.000189292 0)
(0.0984511 0.000198558 0)
(0.0983718 0.00020828 0)
(0.0982902 0.000218464 0)
(0.0982064 0.000229134 0)
(0.0981204 0.00024032 0)
(0.0980319 0.000252055 0)
(0.097941 0.000264375 0)
(0.0978475 0.000277313 0)
(0.0977514 0.000290902 0)
(0.0976527 0.000305176 0)
(0.0975511 0.000320168 0)
(0.0974467 0.000335908 0)
(0.0973394 0.000352431 0)
(0.097229 0.000369769 0)
(0.0971155 0.000387956 0)
(0.0969988 0.000407028 0)
(0.0968788 0.00042702 0)
(0.0967555 0.000447969 0)
(0.0966287 0.000469916 0)
(0.0964984 0.000492899 0)
(0.0963644 0.000516962 0)
(0.0962268 0.000542148 0)
(0.0960853 0.000568504 0)
(0.09594 0.000596078 0)
(0.0957907 0.000624923 0)
(0.0956373 0.000655097 0)
(0.0954799 0.000686668 0)
(0.0953182 0.00071974 0)
(0.0951521 0.000754511 0)
(0.0949817 0.000791467 0)
(0.0999997 4.7884e-06 0)
(0.0999951 1.41284e-05 0)
(0.0999854 2.29338e-05 0)
(0.0999717 3.25373e-05 0)
(0.0999531 4.64709e-05 0)
(0.0999272 6.83989e-05 0)
(0.09989 9.90233e-05 0)
(0.0998386 0.000134755 0)
(0.0997723 0.000169195 0)
(0.0996931 0.00019614 0)
(0.0996055 0.000212055 0)
(0.0995143 0.000216864 0)
(0.0994239 0.000213174 0)
(0.0993371 0.000204779 0)
(0.0992551 0.000195295 0)
(0.0991777 0.00018736 0)
(0.0991041 0.000182417 0)
(0.0990332 0.000180907 0)
(0.0989638 0.000182614 0)
(0.0988948 0.000187002 0)
(0.0988254 0.000193463 0)
(0.098755 0.000201458 0)
(0.0986833 0.000210576 0)
(0.09861 0.000220539 0)
(0.0985349 0.00023118 0)
(0.0984579 0.000242414 0)
(0.0983788 0.000254215 0)
(0.0982977 0.000266588 0)
(0.0982143 0.000279559 0)
(0.0981287 0.000293162 0)
(0.0980408 0.000307438 0)
(0.0979505 0.000322428 0)
(0.0978576 0.00033817 0)
(0.0977623 0.000354707 0)
(0.0976642 0.000372075 0)
(0.0975634 0.000390315 0)
(0.0974599 0.000409465 0)
(0.0973534 0.000429565 0)
(0.097244 0.000450654 0)
(0.0971315 0.000472772 0)
(0.0970158 0.000495962 0)
(0.096897 0.000520268 0)
(0.0967749 0.000545733 0)
(0.0966493 0.000572404 0)
(0.0965204 0.000600331 0)
(0.0963879 0.000629562 0)
(0.0962517 0.00066015 0)
(0.0961119 0.000692151 0)
(0.0959683 0.000725622 0)
(0.0958208 0.000760624 0)
(0.0956695 0.000797224 0)
(0.0955141 0.0008355 0)
(0.0953546 0.000875563 0)
(0.095191 0.000917617 0)
(0.0950231 0.00096215 0)
(0.0999997 5.65049e-06 0)
(0.0999951 1.66773e-05 0)
(0.0999855 2.70844e-05 0)
(0.0999717 3.83903e-05 0)
(0.0999533 5.46705e-05 0)
(0.0999278 8.01974e-05 0)
(0.0998916 0.000115859 0)
(0.0998418 0.000157579 0)
(0.0997773 0.00019798 0)
(0.0997003 0.000229844 0)
(0.0996145 0.000248987 0)
(0.0995248 0.000255221 0)
(0.0994352 0.000251482 0)
(0.0993485 0.000242126 0)
(0.0992662 0.000231344 0)
(0.0991882 0.00022222 0)
(0.0991139 0.000216473 0)
(0.0990423 0.000214656 0)
(0.0989722 0.000216554 0)
(0.0989027 0.000221573 0)
(0.0988329 0.000229023 0)
(0.0987624 0.000238287 0)
(0.0986907 0.00024889 0)
(0.0986175 0.000260507 0)
(0.0985426 0.000272943 0)
(0.0984658 0.000286096 0)
(0.0983872 0.000299929 0)
(0.0983065 0.000314448 0)
(0.0982237 0.000329679 0)
(0.0981387 0.000345661 0)
(0.0980514 0.000362438 0)
(0.0979617 0.000380057 0)
(0.0978697 0.000398564 0)
(0.0977751 0.000418003 0)
(0.0976779 0.000438421 0)
(0.0975781 0.000459861 0)
(0.0974755 0.000482369 0)
(0.0973701 0.000505989 0)
(0.0972618 0.000530768 0)
(0.0971505 0.000556753 0)
(0.0970361 0.000583992 0)
(0.0969186 0.000612535 0)
(0.0967979 0.000642434 0)
(0.0966739 0.000673741 0)
(0.0965465 0.000706514 0)
(0.0964157 0.000740809 0)
(0.0962814 0.000776686 0)
(0.0961435 0.000814209 0)
(0.0960019 0.000853442 0)
(0.0958567 0.000894455 0)
(0.0957076 0.000937321 0)
(0.0955547 0.000982125 0)
(0.0953978 0.00102897 0)
(0.095237 0.00107805 0)
(0.0950722 0.00112975 0)
(0.0947159 9.35791e-05 -4.59022e-24)
(0.0945265 9.85534e-05 -4.67804e-24)
(0.0943275 0.000103841 -3.18555e-26)
(0.0941182 0.000109568 1.43686e-23)
(0.093898 0.000115696 -4.75983e-24)
(0.0936661 0.000122251 -4.89706e-24)
(0.0934217 0.000129276 -1.50746e-23)
(0.0931638 0.000136819 1.49689e-23)
(0.0928916 0.000144923 5.12068e-24)
(0.0926038 0.000153641 0)
(0.0922995 0.000163026 5.28878e-24)
(0.0919772 0.000173137 -5.37928e-24)
(0.0916358 0.00018404 4.42429e-23)
(0.0912736 0.000195807 -9.48158e-23)
(0.0908891 0.00020852 5.06772e-23)
(0.0904805 0.000222272 4.10593e-23)
(0.0900458 0.000237171 5.26875e-23)
(0.089583 0.000253347 -6.03303e-24)
(0.0890895 0.000270951 6.16417e-24)
(0.0885628 0.00029016 -6.30294e-24)
(0.0879997 0.000311188 0)
(0.0873968 0.000334287 6.60583e-24)
(0.0867502 0.000359756 -6.77133e-24)
(0.0860553 0.000387952 0)
(0.085307 0.000419294 -7.1344e-24)
(0.0844993 0.000454276 0)
(0.0836251 0.000493481 -7.54658e-24)
(0.0826763 0.000537596 -1.26479e-22)
(0.0816437 0.000587439 1.34303e-22)
(0.0805162 0.00064398 -1.34847e-22)
(0.0792809 0.000708389 1.34642e-22)
(0.0779227 0.000782075 0)
(0.0764239 0.000866759 0)
(0.0747632 0.000964541 1.65188e-22)
(0.0729154 0.001078 -1.55426e-22)
(0.0708502 0.00121027 0)
(0.0685315 0.00136513 0)
(0.0659157 0.00154702 0)
(0.062951 0.00176089 0)
(0.0595767 0.00201178 0)
(0.0557234 0.00230385 0)
(0.0513159 0.00263861 0)
(0.0462798 0.00301176 0)
(0.0405549 0.00340825 0)
(0.0341203 0.00379479 -1.53633e-23)
(0.0270353 0.0041091 -5.2777e-22)
(0.0194845 0.00424698 5.26979e-22)
(0.0118544 0.00404856 5.7292e-22)
(0.00508281 0.00326806 -5.7206e-22)
(0.00103798 0.00152245 0)
(0.0947248 0.000280461 -4.64287e-24)
(0.0945356 0.000295372 -9.46699e-24)
(0.0943368 0.000311305 -4.95953e-24)
(0.0941279 0.000328405 4.62399e-24)
(0.093908 0.000346709 -4.82514e-24)
(0.0936765 0.000366312 3.45694e-23)
(0.0934325 0.000387335 -5.42907e-23)
(0.0931751 0.000409909 5.04139e-24)
(0.0929033 0.00043417 6.72731e-23)
(0.0926162 0.000460268 -9.29132e-23)
(0.0923125 0.000488366 -9.07112e-23)
(0.091991 0.000518642 7.99316e-23)
(0.0916504 0.000551291 0)
(0.0912892 0.000586532 5.5802e-24)
(0.0909057 0.000624609 -1.7052e-23)
(0.0904983 0.000665801 -1.93356e-22)
(0.0900649 0.000710437 1.85556e-22)
(0.0896035 0.000758903 -1.97252e-22)
(0.0891116 0.000811655 -1.85194e-23)
(0.0885866 0.000869226 6.31676e-24)
(0.0880254 0.000932253 0)
(0.0874247 0.00100149 -6.62294e-24)
(0.0867806 0.00107785 -2.13422e-22)
(0.0860885 0.00116238 4.45998e-22)
(0.0853434 0.00125635 2.46035e-22)
(0.0845393 0.00136124 -4.64035e-22)
(0.0836694 0.00147879 4.99762e-22)
(0.0827258 0.00161106 -5.07118e-22)
(0.0816992 0.00176048 -8.04867e-24)
(0.0805789 0.00192997 0)
(0.0793523 0.00212301 0)
(0.0780049 0.00234382 0)
(0.0765193 0.00259751 0)
(0.074875 0.00289034 -9.57219e-24)
(0.0730478 0.00322997 -6.49483e-22)
(0.0710087 0.00362571 -2.77394e-23)
(0.068723 0.00408876 6.75462e-22)
(0.0661495 0.00463221 7.36355e-22)
(0.063239 0.00527062 -7.35379e-22)
(0.0599339 0.0060187 -2.44464e-23)
(0.0561686 0.00688847 -2.55533e-23)
(0.0518714 0.00788382 -8.82033e-22)
(0.0469701 0.0089912 8.52971e-22)
(0.0414036 0.0101649 -2.90932e-23)
(0.0351433 0.011305 1.54707e-23)
(0.0282284 0.0122257 -1.07308e-21)
(0.0208057 0.0126164 1.0727e-21)
(0.0131969 0.0120025 -2.23954e-21)
(0.00621209 0.00966339 2.20209e-21)
(0.00149742 0.00446948 -2.25655e-21)
(0.0947425 0.000466365 -2.74691e-23)
(0.0945538 0.000491167 -9.63241e-24)
(0.0943556 0.000517691 3.7172e-23)
(0.0941472 0.000546037 -7.64405e-23)
(0.093928 0.000576385 1.63554e-22)
(0.0936972 0.00060891 -7.74728e-23)
(0.093454 0.000643805 1.42145e-26)
(0.0931976 0.000681278 1.00552e-23)
(0.0929269 0.000721557 1.7529e-22)
(0.092641 0.000764893 -1.64888e-22)
(0.0923387 0.000811555 0)
(0.0920188 0.000861841 1.46434e-26)
(0.0916799 0.000916078 0)
(0.0913206 0.000974628 1.9167e-22)
(0.0909393 0.0010379 -1.68949e-22)
(0.0905342 0.00110636 -3.64149e-22)
(0.0901035 0.00118056 2.01876e-23)
(0.0896449 0.00126114 -3.83377e-22)
(0.0891563 0.00134887 1.23919e-23)
(0.0886349 0.00144463 -4.10526e-22)
(0.0880777 0.00154949 4.23102e-22)
(0.0874815 0.00166471 -4.31098e-22)
(0.0868424 0.00179179 4.44314e-22)
(0.0861561 0.0019325 1.39836e-23)
(0.0854176 0.00208893 -1.43667e-23)
(0.0846211 0.00226354 1.47744e-23)
(0.0837601 0.00245922 -4.94922e-22)
(0.0828268 0.00267939 5.10159e-22)
(0.0818126 0.00292809 5.42933e-22)
(0.0807072 0.00321013 -5.2627e-22)
(0.0794986 0.00353126 0)
(0.0781731 0.00389844 0)
(0.0767144 0.00432008 1.85063e-23)
(0.0751035 0.00480646 1.27582e-21)
(0.0733181 0.00537009 3.11019e-23)
(0.0713316 0.00602617 -1.28451e-21)
(0.0691129 0.00679285 0)
(0.0666247 0.00769124 -2.24726e-23)
(0.0638233 0.00874461 1.56643e-21)
(0.0606578 0.00997613 -3.12822e-21)
(0.0570695 0.0114041 3.31855e-21)
(0.0529939 0.0130329 1.01366e-22)
(0.0483632 0.0148376 -1.72612e-21)
(0.0431145 0.0167405 -1.87131e-21)
(0.0372033 0.018575 1.92855e-21)
(0.0306273 0.0200353 1.49686e-24)
(0.0234567 0.0206121 -3.28339e-23)
(0.0158852 0.0195257 2.16277e-21)
(0.00845325 0.0156291 -2.09429e-21)
(0.00238051 0.00716194 -2.09469e-21)
(0.094769 0.000650616 1.81004e-23)
(0.094581 0.000685155 -9.18368e-24)
(0.0943835 0.00072204 1.95226e-26)
(0.094176 0.000761474 9.44667e-24)
(0.0939578 0.000803692 -1.96294e-26)
(0.0937282 0.00084894 1.56879e-22)
(0.0934864 0.000897486 -2.96424e-22)
(0.0932315 0.000949625 1.59299e-22)
(0.0929626 0.00100568 -1.01964e-23)
(0.0926786 0.00106599 1.88419e-22)
(0.0923784 0.00113094 -1.67596e-22)
(0.0920609 0.00120095 -3.47727e-22)
(0.0917247 0.00127647 7.02071e-22)
(0.0913684 0.00135801 -7.15827e-22)
(0.0909904 0.00144615 7.30257e-22)
(0.090589 0.00154154 -7.33841e-22)
(0.0901624 0.00164495 -3.88479e-22)
(0.0897084 0.00175729 2.26872e-26)
(0.0892248 0.00187963 0)
(0.088709 0.00201321 -3.99781e-22)
(0.0881582 0.00215952 4.12331e-22)
(0.087569 0.00232032 0)
(0.0869379 0.00249771 -8.90381e-22)
(0.0862606 0.00269416 8.75934e-22)
(0.0855325 0.00291259 1.45035e-23)
(0.084748 0.00315642 -3.7045e-26)
(0.0839009 0.00342966 1.53303e-23)
(0.0829841 0.00373707 0)
(0.0819894 0.00408425 -5.28144e-26)
(0.0809072 0.00447784 0)
(0.0797266 0.0049258 -1.74121e-23)
(0.0784352 0.00543771 1.17775e-21)
(0.0770182 0.00602512 -1.17742e-21)
(0.075459 0.00670207 -1.94839e-23)
(0.0737379 0.00748561 4.03461e-23)
(0.0718322 0.00839628 -1.39171e-21)
(0.0697156 0.00945847 1.34844e-21)
(0.0673574 0.0107003 2.28613e-23)
(0.0647219 0.0121522 -3.59775e-25)
(0.0617676 0.013844 2.44182e-23)
(0.058447 0.0157976 -1.67836e-21)
(0.0547057 0.018015 3.39408e-21)
(0.0504829 0.020457 -1.76991e-21)
(0.0457125 0.0230117 1.83295e-21)
(0.0403265 0.0254469 -1.91889e-21)
(0.0342598 0.0273453 -3.81594e-21)
(0.0274619 0.0280163 7.78513e-21)
(0.0199348 0.0263935 -3.94129e-21)
(0.0118534 0.0209423 0)
(0.00369281 0.00948436 -3.70321e-21)
(0.0948041 0.000832549 -8.97762e-24)
(0.094617 0.000876591 -3.66664e-23)
(0.0944206 0.000923613 1.11144e-22)
(0.0942144 0.000973888 -1.50059e-22)
(0.0939976 0.00102771 6.60872e-23)
(0.0937697 0.0010854 9.68928e-24)
(0.0935298 0.0011473 -9.85008e-24)
(0.093277 0.00121378 -2.46828e-26)
(0.0930105 0.00128527 1.01944e-23)
(0.0927292 0.0013622 -2.07331e-23)
(0.0924321 0.00144506 -3.41116e-22)
(0.092118 0.00153439 3.52044e-22)
(0.0917856 0.00163078 -3.43786e-22)
(0.0914334 0.00173486 3.54885e-22)
(0.0910601 0.0018474 0)
(0.0906639 0.00196922 -2.50339e-26)
(0.090243 0.00210132 0)
(0.0897955 0.00224487 -3.83304e-22)
(0.089319 0.00240124 4.0821e-22)
(0.0888112 0.00257203 -1.2828e-23)
(0.0882692 0.00275914 -8.64727e-22)
(0.0876901 0.00296485 8.51962e-22)
(0.0870703 0.00319182 -1.38585e-23)
(0.0864059 0.00344323 0)
(0.0856925 0.00372277 0)
(0.084925 0.00403482 -9.93817e-22)
(0.0840978 0.00438448 9.63625e-22)
(0.0832043 0.00477778 0)
(0.0822371 0.0052218 -3.30757e-23)
(0.0811878 0.00572495 0)
(0.0800467 0.00629725 1.77176e-23)
(0.078803 0.00695068 -1.82662e-23)
(0.0774444 0.00769971 -1.90292e-23)
(0.0759568 0.00856175 1.96225e-23)
(0.0743247 0.00955782 1.29205e-21)
(0.0725302 0.0107131 -1.33352e-21)
(0.0705536 0.012057 2.902e-21)
(0.0683726 0.0136233 -2.90388e-21)
(0.0659622 0.0154476 3.08631e-21)
(0.0632938 0.0175637 9.09709e-23)
(0.0603342 0.0199942 -3.25455e-21)
(0.0570427 0.0227353 -2.60242e-23)
(0.0533681 0.025731 1.28547e-24)
(0.0492412 0.0288345 1.70696e-24)
(0.044565 0.0317532 2.25941e-24)
(0.0391956 0.0339733 -5.64319e-23)
(0.0329209 0.0346558 -2.58807e-23)
(0.0254737 0.032489 -2.45816e-23)
(0.0165527 0.0255666 0)
(0.00545893 0.011429 7.732e-24)
(0.0948476 0.00101156 -4.45505e-23)
(0.0946616 0.00106488 2.67987e-23)
(0.0944667 0.00112184 9.16706e-24)
(0.0942622 0.00118275 1.40693e-22)
(0.0940475 0.00124798 -1.40747e-22)
(0.0938218 0.00131791 1.45573e-22)
(0.0935845 0.00139297 -3.23118e-22)
(0.0933346 0.00147362 4.59954e-22)
(0.0930714 0.00156036 -3.22165e-22)
(0.0927937 0.00165373 -3.34129e-22)
(0.0925006 0.00175433 -1.67361e-23)
(0.092191 0.00186281 6.78416e-22)
(0.0918636 0.00197989 -7.14536e-22)
(0.091517 0.00210637 3.33259e-22)
(0.0911499 0.00224316 3.59592e-22)
(0.0907606 0.0023913 3.75866e-22)
(0.0903473 0.002552 -2.89024e-23)
(0.0899083 0.00272671 7.66054e-22)
(0.0894414 0.0029171 7.91025e-22)
(0.0889442 0.00312515 1.99618e-23)
(0.0884142 0.00335319 -8.38596e-22)
(0.0878485 0.00360399 0)
(0.087244 0.00388084 0)
(0.086597 0.00418757 -9.34924e-22)
(0.0859036 0.0045287 9.21496e-22)
(0.0851592 0.00490954 9.92874e-22)
(0.0843588 0.00533628 -9.94345e-22)
(0.0834967 0.00581619 0)
(0.0825665 0.00635782 1.11071e-21)
(0.0815611 0.00697125 -1.11285e-21)
(0.0804727 0.00766846 0)
(0.0792924 0.0084637 -2.41055e-21)
(0.0780107 0.00937399 2.43287e-21)
(0.0766174 0.0104197 -2.01176e-23)
(0.0751014 0.011625 -2.69316e-21)
(0.0734512 0.0130184 2.71814e-21)
(0.0716552 0.0146329 0)
(0.0697015 0.0165046 3.05654e-21)
(0.0675783 0.0186708 -3.0377e-21)
(0.0652731 0.0211633 2.46424e-23)
(0.0627708 0.0239986 3.3593e-21)
(0.0600488 0.0271585 -6.74202e-21)
(0.057069 0.0305616 1.74744e-23)
(0.0537629 0.0340208 3.6092e-23)
(0.0500056 0.0371847 3.50201e-21)
(0.0455714 0.0394636 3.91551e-24)
(0.0400693 0.0399209 -3.00236e-21)
(0.0328873 0.0371009 3.07786e-21)
(0.0230077 0.0288895 0)
(0.00793584 0.0126984 2.71452e-23)
(0.0948992 0.00118683 8.77476e-24)
(0.094715 0.00124893 8.08235e-23)
(0.0945222 0.00131534 -7.20771e-23)
(0.0943201 0.00138641 9.25055e-24)
(0.0941081 0.00146258 1.42172e-22)
(0.0938855 0.00154431 -1.42398e-22)
(0.0936516 0.00163207 -3.04994e-22)
(0.0934055 0.00172643 4.60174e-24)
(0.0931465 0.00182798 -5.62941e-24)
(0.0928736 0.00193735 3.38649e-22)
(0.0925858 0.00205525 -3.30709e-22)
(0.092282 0.00218245 7.01722e-22)
(0.0919611 0.00231982 -3.49635e-22)
(0.0916218 0.00246832 1.12997e-23)
(0.0912627 0.00262903 1.15624e-23)
(0.0908824 0.00280319 7.64738e-22)
(0.0904792 0.00299227 -4.94604e-24)
(0.0900514 0.00319801 7.98225e-22)
(0.089597 0.00342241 1.27572e-23)
(0.0891139 0.00366785 0)
(0.0885997 0.00393711 0)
(0.0880519 0.00423353 -8.95729e-22)
(0.0874677 0.00456101 8.97992e-22)
(0.086844 0.00492415 0)
(0.0861772 0.00532834 1.511e-23)
(0.0854636 0.00577985 0)
(0.0846989 0.00628606 -1.0438e-21)
(0.0838786 0.00685557 2.1253e-21)
(0.0829976 0.00749846 -1.08157e-21)
(0.0820504 0.00822661 -2.29315e-21)
(0.0810313 0.00905403 -7.75935e-23)
(0.079934 0.00999727 -8.19891e-23)
(0.0787525 0.0110759 -8.63127e-23)
(0.0774806 0.0123132 2.58057e-21)
(0.0761128 0.013736 2.77115e-21)
(0.0746446 0.0153753 -2.77775e-21)
(0.0730732 0.0172656 0)
(0.0713983 0.0194426 3.07905e-21)
(0.0696221 0.0219392 -3.08621e-21)
(0.0677492 0.0247772 -3.28165e-21)
(0.0657841 0.0279532 3.26358e-21)
(0.0637246 0.0314164 2.67056e-23)
(0.06155 0.0350363 3.28603e-21)
(0.059199 0.0385585 -1.06892e-22)
(0.0565332 0.0415515 -3.24683e-21)
(0.0532714 0.0433508 2.47724e-23)
(0.0488956 0.0429928 0)
(0.0425343 0.0390813 -1.96407e-23)
(0.0322936 0.0297134 -9.03399e-22)
(0.0127961 0.0126386 4.41754e-22)
(-0.000249884 0.000321533 0)
(-0.00101502 0.000556069 3.11394e-22)
(-0.00203299 0.000538772 -3.11861e-22)
(-0.00288669 0.000382901 -3.04768e-22)
(-0.00337044 0.000153055 3.05226e-22)
(-0.00340275 -0.000110078 -9.18362e-24)
(-0.00295636 -0.000382524 0)
(-0.00203129 -0.000648345 0)
(-0.000645734 -0.000896986 0)
(0.00116632 -0.00112234 0)
(0.00336234 -0.00132132 0)
(0.00589567 -0.00149233 0)
(0.0087176 -0.00163494 0)
(0.011779 -0.00174964 0)
(0.0150317 -0.00183752 0)
(0.0184297 -0.00190016 5.67534e-23)
(0.0219296 -0.00193943 -5.35144e-23)
(0.025491 -0.00195739 0)
(0.0290773 -0.00195626 0)
(0.0326555 -0.00193825 -2.80253e-23)
(0.0361966 -0.00190561 2.80681e-23)
(0.039675 -0.00186052 -1.6292e-23)
(0.0430693 -0.00180507 9.79313e-25)
(0.0463614 -0.00174124 0)
(0.0495368 -0.00167083 5.14642e-25)
(0.052584 -0.00159554 0)
(0.0554945 -0.00151687 0)
(0.0582626 -0.00143618 0)
(0.0608847 -0.00135466 -4.03838e-26)
(0.0633595 -0.00127337 0)
(0.0656876 -0.00119319 1.79651e-25)
(0.067871 -0.00111488 -2.24811e-25)
(0.0699131 -0.00103905 2.56978e-25)
(0.0718185 -0.00096619 -2.61168e-24)
(0.0735925 -0.000896677 2.62778e-24)
(0.0752411 -0.000830778 2.11622e-24)
(0.076771 -0.000768666 -4.5067e-24)
(0.0781888 -0.000710432 2.39005e-24)
(0.0795015 -0.000656096 2.82611e-25)
(0.0807162 -0.000605616 -2.71795e-25)
(0.0818397 -0.0005589 0)
(0.0828789 -0.000515814 -2.45298e-25)
(0.0838402 -0.000476195 1.13326e-24)
(0.0847298 -0.000439856 -1.11966e-24)
(0.0855536 -0.000406595 2.00579e-25)
(0.0863171 -0.000376201 -5.45728e-25)
(0.0870254 -0.000348461 1.89702e-25)
(0.0876833 -0.000323162 3.08045e-25)
(0.0882952 -0.000300094 -1.51538e-25)
(0.088865 -0.000279057 1.29922e-25)
(-0.000313211 0.000924606 -1.19369e-21)
(-0.00110124 0.00158451 -1.29767e-21)
(-0.00197886 0.00152807 1.27898e-21)
(-0.00263299 0.00107046 -6.01765e-22)
(-0.00290739 0.000396239 6.03077e-22)
(-0.00274422 -0.000375124 9.2473e-24)
(-0.00212862 -0.00117401 -1.80288e-23)
(-0.00106368 -0.00195451 -5.42951e-22)
(0.000431754 -0.00268519 5.2652e-22)
(0.00232419 -0.00334887 -1.50313e-23)
(0.00457338 -0.00393599 -1.38781e-23)
(0.00713607 -0.00444132 3.80828e-22)
(0.00996679 -0.00486338 -3.81335e-22)
(0.0130195 -0.00520338 -3.0469e-22)
(0.0162492 -0.0054644 3.70133e-23)
(0.0196124 -0.0056509 2.6844e-22)
(0.0230683 -0.0057683 -3.34165e-24)
(0.0265788 -0.00582261 -5.90621e-24)
(0.0301091 -0.00582027 0)
(0.033628 -0.00576782 0)
(0.0371077 -0.00567183 0)
(0.0405241 -0.00553875 -1.2732e-24)
(0.0438567 -0.00537474 5.32217e-23)
(0.0470882 -0.00518565 -5.79864e-23)
(0.0502047 -0.00497691 2.79298e-23)
(0.0531954 -0.00475349 -1.96432e-23)
(0.0560521 -0.00451991 -1.32383e-23)
(0.0587693 -0.0042802 4.39123e-24)
(0.0613437 -0.00403795 4.04878e-26)
(0.0637741 -0.00379627 1.6696e-25)
(0.066061 -0.00355783 -1.80043e-25)
(0.0682065 -0.00332487 6.18196e-25)
(0.070214 -0.00309924 -8.10653e-24)
(0.0720878 -0.00288239 1.74831e-23)
(0.0738332 -0.00267545 -8.64251e-24)
(0.0754561 -0.00247923 8.52795e-25)
(0.0769628 -0.00229424 -2.96041e-25)
(0.0783599 -0.00212076 0)
(0.0796541 -0.00195885 4.6249e-24)
(0.0808524 -0.00180841 -4.10222e-24)
(0.0819614 -0.00166915 -3.48286e-24)
(0.0829876 -0.00154068 4.70316e-24)
(0.0839375 -0.00142253 -2.30621e-25)
(0.0848171 -0.00131413 -1.01224e-24)
(0.085632 -0.0012149 1.83352e-24)
(0.0863877 -0.0011242 1.85462e-25)
(0.0870891 -0.00104141 1.14914e-24)
(0.0877409 -0.000965885 9.09128e-26)
(0.0883474 -0.00089701 -3.23456e-25)
(0.0889124 -0.000834175 -3.99677e-25)
(-0.000425479 0.00140986 -1.25329e-21)
(-0.00123424 0.00236601 1.36178e-21)
(-0.00181852 0.00226272 -1.32108e-21)
(-0.00208318 0.001533 -2.02147e-23)
(-0.00195496 0.000461635 -5.23802e-25)
(-0.00141789 -0.000765126 -1.18723e-21)
(-0.000481776 -0.00203703 1.2262e-21)
(0.000845786 -0.00328093 1.10633e-21)
(0.0025453 -0.00445068 -5.27257e-23)
(0.00458462 -0.00551797 -1.95367e-21)
(0.00692937 -0.00646518 1.83338e-21)
(0.00954263 -0.00728296 -8.58598e-22)
(0.0123851 -0.00796822 -1.20304e-23)
(0.0154168 -0.00852218 0)
(0.0185985 -0.00894917 5.71901e-22)
(0.0218919 -0.00925587 -8.06802e-23)
(0.0252609 -0.00945059 -4.83727e-22)
(0.0286717 -0.00954277 1.2268e-23)
(0.0320932 -0.00954254 0)
(0.0354972 -0.00946038 0)
(0.0388587 -0.00930681 1.01576e-22)
(0.0421558 -0.0090922 -9.86891e-23)
(0.0453699 -0.00882658 -6.05125e-23)
(0.0484851 -0.00851947 6.43055e-23)
(0.0514888 -0.00817972 1.35719e-24)
(0.0543712 -0.0078155 -9.61413e-25)
(0.0571248 -0.00743419 6.29122e-25)
(0.0597446 -0.00704246 -4.7552e-24)
(0.0622277 -0.00664619 5.11398e-24)
(0.064573 -0.00625052 5.77432e-24)
(0.0667811 -0.00585987 -5.9983e-24)
(0.0688541 -0.00547795 -3.94489e-25)
(0.0707952 -0.00510782 -1.46945e-23)
(0.0726085 -0.00475191 3.01513e-23)
(0.0742991 -0.00441209 -1.6523e-23)
(0.0758725 -0.00408971 -9.12973e-24)
(0.0773346 -0.00378565 8.07331e-24)
(0.0786919 -0.0035004 0)
(0.0799506 -0.00323407 -4.25911e-26)
(0.0811172 -0.0029865 0)
(0.0821981 -0.00275725 -7.57996e-24)
(0.0831994 -0.0025457 7.08119e-24)
(0.0841273 -0.00235106 -4.1734e-25)
(0.0849874 -0.00217244 -2.4231e-26)
(0.0857852 -0.00200887 -2.93576e-24)
(0.0865257 -0.00185932 5.27134e-24)
(0.0872137 -0.00172276 -2.71347e-24)
(0.0878537 -0.00159816 1.11779e-24)
(0.0884497 -0.00148448 -8.80663e-25)
(0.0890054 -0.00138071 -2.7831e-25)
(-0.000551942 0.0016737 -2.747e-21)
(-0.00131605 0.00276474 0)
(-0.00143087 0.00260539 2.78775e-21)
(-0.00113869 0.00165186 -5.53982e-21)
(-0.000449096 0.000279694 2.77233e-21)
(0.000601783 -0.00132108 1.22735e-21)
(0.00197568 -0.00298705 -1.28815e-21)
(0.00365396 -0.00462213 1.14461e-21)
(0.00561837 -0.00616798 -2.23592e-21)
(0.00784547 -0.00758519 1.07419e-21)
(0.0103084 -0.00884895 1.53134e-23)
(0.0129782 -0.00994561 5.63333e-25)
(0.0158246 -0.0108694 1.22369e-23)
(0.0188162 -0.0116204 -6.90141e-22)
(0.0219217 -0.0122029 6.69114e-22)
(0.0251101 -0.0126249 1.7651e-23)
(0.0283518 -0.0128965 -7.44801e-24)
(0.0316186 -0.0130297 3.91142e-22)
(0.0348843 -0.0130375 -3.90825e-22)
(0.0381251 -0.0129336 -4.94009e-24)
(0.0413195 -0.0127321 0)
(0.0444487 -0.0124466 3.48514e-25)
(0.0474962 -0.0120907 0)
(0.0504485 -0.0116772 2.13517e-24)
(0.0532945 -0.0112183 2.67215e-25)
(0.0560255 -0.010725 9.70505e-25)
(0.0586351 -0.0102074 -3.81389e-23)
(0.061119 -0.00967477 3.77159e-23)
(0.0634746 -0.00913514 0)
(0.0657011 -0.00859562 1.96601e-24)
(0.0677991 -0.00806234 -1.85551e-24)
(0.0697707 -0.00754045 0)
(0.0716189 -0.0070342 -1.1535e-25)
(0.0733475 -0.00654701 1.37746e-23)
(0.0749612 -0.00608149 -2.81533e-23)
(0.0764651 -0.00563955 2.94828e-23)
(0.0778647 -0.00522247 -3.02717e-23)
(0.0791658 -0.00483094 3.05283e-23)
(0.0803744 -0.00446518 -1.52961e-23)
(0.0814964 -0.00412498 -7.23801e-24)
(0.0825375 -0.00380981 6.35882e-24)
(0.0835037 -0.00351882 4.00143e-25)
(0.0844003 -0.00325097 6.25875e-24)
(0.0852328 -0.00300505 -1.28019e-23)
(0.0860062 -0.00277974 5.80116e-24)
(0.0867251 -0.00257367 2.65198e-26)
(0.087394 -0.00238542 -3.118e-25)
(0.0880171 -0.00221357 -2.13408e-26)
(0.0885981 -0.00205672 2.61052e-25)
(0.0891404 -0.00191343 -4.56731e-25)
(-0.000578986 0.00163712 -2.03802e-24)
(-0.00111898 0.00270121 -2.58903e-23)
(-0.000611196 0.00246174 -2.48605e-23)
(0.000389985 0.00135301 -2.38684e-23)
(0.00173947 -0.000232741 -4.50466e-23)
(0.00335994 -0.00208866 -7.83126e-25)
(0.00522902 -0.00402958 2.02876e-23)
(0.00729879 -0.00595469 -1.99344e-23)
(0.00955205 -0.00779061 -1.87977e-23)