/*--------------------------------*- C++ -*----------------------------------*\
| =========                 |                                                 |
| \\      /  F ield         | OpenFOAM: The Open Source CFD Toolbox           |
|  \\    /   O peration     | Version:  2412                                  |
|   \\  /    A nd           | Website:  www.openfoam.com                      |
|    \\/     M anipulation  |                                                 |
\*---------------------------------------------------------------------------*/
FoamFile
{
    version     2.0;
    format      ascii;
    arch        "LSB;label=32;scalar=64";
    class       volVectorField;
    location    "14.5";
    object      vorticity;
}
// * * * * * * * * * * * * * * * * * * * * * * * * * * * * * * * * * * * * * //

dimensions      [0 0 -1 0 0 0 0];

internalField   nonuniform List<vector> 
63420
(
(0 0 5.86423e-06)
(0 0 5.65372e-06)
(0 0 5.84017e-06)
(0 0 7.76371e-06)
(0 0 1.20736e-05)
(0 0 1.73636e-05)
(0 0 2.05706e-05)
(0 0 1.88898e-05)
(0 0 1.1549e-05)
(0 0 1.76731e-07)
(0 0 -1.21995e-05)
(0 0 -2.26189e-05)
(0 0 -2.92385e-05)
(0 0 -3.1625e-05)
(0 0 -3.04438e-05)
(0 0 -2.69021e-05)
(0 0 -2.22477e-05)
(0 0 -1.74656e-05)
(0 0 -1.31758e-05)
(0 0 -9.66694e-06)
(0 0 -6.99008e-06)
(0 0 -5.05942e-06)
(0 0 -3.7313e-06)
(0 0 -2.85483e-06)
(0 0 -2.29812e-06)
(0 0 -1.95751e-06)
(0 0 -1.75737e-06)
(0 0 -1.64545e-06)
(0 0 -1.58722e-06)
(0 0 -1.56067e-06)
(0 0 -1.55215e-06)
(0 0 -1.55346e-06)
(0 0 -1.55972e-06)
(0 0 -1.5681e-06)
(0 0 -1.57696e-06)
(0 0 -1.58537e-06)
(0 0 -1.59277e-06)
(0 0 -1.59882e-06)
(0 0 -1.60334e-06)
(0 0 -1.60618e-06)
(0 0 -1.60724e-06)
(0 0 -1.60642e-06)
(0 0 -1.60364e-06)
(0 0 -1.59879e-06)
(0 0 -1.59178e-06)
(0 0 -1.58247e-06)
(0 0 -1.57064e-06)
(0 0 -1.55584e-06)
(0 0 -1.53666e-06)
(0 0 -1.50841e-06)
(0 0 -1.45501e-06)
(0 0 -1.32236e-06)
(0 0 -9.34359e-07)
(0 0 2.63702e-07)
(0 4.55472e-23 3.95925e-06)
(0 0 1.75938e-05)
(0 0 1.69671e-05)
(0 0 1.75188e-05)
(0 0 2.32444e-05)
(0 0 3.60969e-05)
(0 0 5.19114e-05)
(0 0 6.15754e-05)
(0 0 5.67189e-05)
(0 0 3.50062e-05)
(0 0 1.24857e-06)
(0 0 -3.55626e-05)
(0 0 -6.66144e-05)
(0 0 -8.64053e-05)
(0 0 -9.36238e-05)
(0 0 -9.02293e-05)
(0 0 -7.97994e-05)
(0 0 -6.60394e-05)
(0 0 -5.18786e-05)
(0 0 -3.91633e-05)
(0 0 -2.87556e-05)
(0 0 -2.08116e-05)
(0 0 -1.50795e-05)
(0 0 -1.11349e-05)
(0 0 -8.53097e-06)
(0 0 -6.87681e-06)
(0 0 -5.86508e-06)
(0 0 -5.27133e-06)
(0 0 -4.94045e-06)
(0 0 -4.76981e-06)
(0 0 -4.69394e-06)
(0 0 -4.67226e-06)
(0 0 -4.68026e-06)
(0 0 -4.70341e-06)
(0 0 -4.73324e-06)
(0 0 -4.76486e-06)
(0 0 -4.79545e-06)
(0 0 -4.82337e-06)
(0 0 -4.84765e-06)
(0 0 -4.86765e-06)
(0 0 -4.88294e-06)
(0 0 -4.89319e-06)
(0 0 -4.89813e-06)
(0 0 -4.89747e-06)
(0 0 -4.89092e-06)
(0 0 -4.87813e-06)
(0 0 -4.8587e-06)
(0 0 -4.83201e-06)
(0 0 -4.7967e-06)
(0 0 -4.74874e-06)
(0 0 -4.67454e-06)
(0 0 -4.52751e-06)
(0 0 -4.1508e-06)
(0 0 -3.03302e-06)
(0 0 4.39746e-07)
(0 4.60135e-23 1.11861e-05)
(0 0 2.93123e-05)
(0 0 2.82793e-05)
(0 0 2.91752e-05)
(0 0 3.86019e-05)
(0 0 5.98444e-05)
(0 0 8.61205e-05)
(0 0 0.00010244)
(0 0 9.49479e-05)
(0 0 5.967e-05)
(0 0 4.40677e-06)
(0 0 -5.61014e-05)
(0 0 -0.000107339)
(0 0 -0.000140193)
(0 0 -0.000152429)
(0 0 -0.000147205)
(0 0 -0.000130364)
(0 0 -0.000107981)
(0 0 -8.48735e-05)
(0 0 -6.40873e-05)
(0 0 -4.70527e-05)
(0 0 -3.40387e-05)
(0 0 -2.46417e-05)
(0 0 -1.81711e-05)
(0 0 -1.38974e-05)
(0 0 -1.11812e-05)
(0 0 -9.51917e-06)
(0 0 -8.54343e-06)
(0 0 -7.99954e-06)
(0 0 -7.71912e-06)
(0 0 -7.59464e-06)
(0 0 -7.55945e-06)
(0 0 -7.57325e-06)
(0 0 -7.61214e-06)
(0 0 -7.66221e-06)
(0 0 -7.7154e-06)
(0 0 -7.76708e-06)
(0 0 -7.81456e-06)
(0 0 -7.8562e-06)
(0 0 -7.89098e-06)
(0 0 -7.91819e-06)
(0 0 -7.9373e-06)
(0 0 -7.94783e-06)
(0 0 -7.94931e-06)
(0 0 -7.94122e-06)
(0 0 -7.92304e-06)
(0 0 -7.8941e-06)
(0 0 -7.85343e-06)
(0 0 -7.79887e-06)
(0 0 -7.72413e-06)
(0 0 -7.60816e-06)
(0 0 -7.37879e-06)
(0 0 -6.79264e-06)
(0 0 -5.05316e-06)
(0 0 3.63661e-07)
(0 2.71577e-22 1.71807e-05)
(0 0 4.10125e-05)
(0 0 3.95887e-05)
(0 0 4.07953e-05)
(0 0 5.37604e-05)
(0 0 8.31466e-05)
(0 0 0.000119779)
(0 0 0.000143068)
(0 0 0.000133803)
(0 0 8.62514e-05)
(0 0 1.08947e-05)
(0 0 -7.21239e-05)
(0 0 -0.000142828)
(0 0 -0.000188567)
(0 0 -0.000206116)
(0 0 -0.000199676)
(0 0 -0.000177186)
(0 0 -0.000146954)
(0 0 -0.000115594)
(0 0 -8.7306e-05)
(0 0 -6.40811e-05)
(0 0 -4.6314e-05)
(0 0 -3.34712e-05)
(0 0 -2.46198e-05)
(0 0 -1.87691e-05)
(0 0 -1.50478e-05)
(0 0 -1.2769e-05)
(0 0 -1.14299e-05)
(0 0 -1.06826e-05)
(0 0 -1.02966e-05)
(0 0 -1.01246e-05)
(0 0 -1.00752e-05)
(0 0 -1.00933e-05)
(0 0 -1.0146e-05)
(0 0 -1.02143e-05)
(0 0 -1.02871e-05)
(0 0 -1.03581e-05)
(0 0 -1.04234e-05)
(0 0 -1.0481e-05)
(0 0 -1.05294e-05)
(0 0 -1.05676e-05)
(0 0 -1.05949e-05)
(0 0 -1.06107e-05)
(0 0 -1.06142e-05)
(0 0 -1.06048e-05)
(0 0 -1.05817e-05)
(0 0 -1.05442e-05)
(0 0 -1.04908e-05)
(0 0 -1.04188e-05)
(0 0 -1.03203e-05)
(0 0 -1.0169e-05)
(0 0 -9.87499e-06)
(0 0 -9.13456e-06)
(0 0 -6.94826e-06)
(0 0 -1.26429e-07)
(0 -1.78312e-22 2.11642e-05)
(0 0 5.26872e-05)
(0 0 5.08932e-05)
(0 0 5.23662e-05)
(0 0 6.86537e-05)
(0 0 0.000105854)
(0 0 0.000152697)
(0 0 0.000183361)
(0 0 0.000173454)
(0 0 0.000115333)
(0 0 2.17495e-05)
(0 0 -8.22062e-05)
(0 0 -0.000171417)
(0 0 -0.000229801)
(0 0 -0.000253045)
(0 0 -0.000246195)
(0 0 -0.000219064)
(0 0 -0.000182006)
(0 0 -0.000143309)
(0 0 -0.000108273)
(0 0 -7.94363e-05)
(0 0 -5.73355e-05)
(0 0 -4.13373e-05)
(0 0 -3.0298e-05)
(0 0 -2.29932e-05)
(0 0 -1.83423e-05)
(0 0 -1.5491e-05)
(0 0 -1.38133e-05)
(0 0 -1.28752e-05)
(0 0 -1.23891e-05)
(0 0 -1.2171e-05)
(0 0 -1.21066e-05)
(0 0 -1.2127e-05)
(0 0 -1.21911e-05)
(0 0 -1.2275e-05)
(0 0 -1.23648e-05)
(0 0 -1.24526e-05)
(0 0 -1.25337e-05)
(0 0 -1.26054e-05)
(0 0 -1.26658e-05)
(0 0 -1.27139e-05)
(0 0 -1.27486e-05)
(0 0 -1.2769e-05)
(0 0 -1.27745e-05)
(0 0 -1.27642e-05)
(0 0 -1.27371e-05)
(0 0 -1.26922e-05)
(0 0 -1.26279e-05)
(0 0 -1.2541e-05)
(0 0 -1.24227e-05)
(0 0 -1.22445e-05)
(0 0 -1.19087e-05)
(0 0 -1.10861e-05)
(0 0 -8.68664e-06)
(0 0 -1.19215e-06)
(0 8.80276e-23 2.24082e-05)
(0 0 6.43305e-05)
(0 0 6.21889e-05)
(0 0 6.38762e-05)
(0 0 8.32277e-05)
(0 0 0.000127844)
(0 0 0.000184711)
(0 0 0.000223215)
(0 0 0.000213999)
(0 0 0.000147325)
(0 0 3.77369e-05)
(0 0 -8.52763e-05)
(0 0 -0.000191843)
(0 0 -0.00026257)
(0 0 -0.000291954)
(0 0 -0.000285647)
(0 0 -0.000255068)
(0 0 -0.000212398)
(0 0 -0.000167456)
(0 0 -0.000126568)
(0 0 -9.28079e-05)
(0 0 -6.68737e-05)
(0 0 -4.80663e-05)
(0 0 -3.5069e-05)
(0 0 -2.6457e-05)
(0 0 -2.09665e-05)
(0 0 -1.75958e-05)
(0 0 -1.5609e-05)
(0 0 -1.44953e-05)
(0 0 -1.39158e-05)
(0 0 -1.36533e-05)
(0 0 -1.3573e-05)
(0 0 -1.35934e-05)
(0 0 -1.36658e-05)
(0 0 -1.37621e-05)
(0 0 -1.38659e-05)
(0 0 -1.39677e-05)
(0 0 -1.4062e-05)
(0 0 -1.41455e-05)
(0 0 -1.42162e-05)
(0 0 -1.42727e-05)
(0 0 -1.43138e-05)
(0 0 -1.43385e-05)
(0 0 -1.43459e-05)
(0 0 -1.43351e-05)
(0 0 -1.43049e-05)
(0 0 -1.42541e-05)
(0 0 -1.4181e-05)
(0 0 -1.40822e-05)
(0 0 -1.39488e-05)
(0 0 -1.37528e-05)
(0 0 -1.34003e-05)
(0 0 -1.25768e-05)
(0 0 -1.02418e-05)
(0 0 -2.9881e-06)
(0 4.34339e-22 2.0195e-05)
(0 0 7.59339e-05)
(0 0 7.34702e-05)
(0 0 7.53148e-05)
(0 0 9.74426e-05)
(0 0 0.000149024)
(0 0 0.00021569)
(0 0 0.000262526)
(0 0 0.000255451)
(0 0 0.000182446)
(0 0 5.93115e-05)
(0 0 -8.06682e-05)
(0 0 -0.000203297)
(0 0 -0.000286016)
(0 0 -0.000322017)
(0 0 -0.000317296)
(0 0 -0.000284583)
(0 0 -0.000237641)
(0 0 -0.00018766)
(0 0 -0.000141915)
(0 0 -0.000103995)
(0 0 -7.47825e-05)
(0 0 -5.35508e-05)
(0 0 -3.8851e-05)
(0 0 -2.9095e-05)
(0 0 -2.28652e-05)
(0 0 -1.90341e-05)
(0 0 -1.6771e-05)
(0 0 -1.54986e-05)
(0 0 -1.48329e-05)
(0 0 -1.45279e-05)
(0 0 -1.44306e-05)
(0 0 -1.44482e-05)
(0 0 -1.45257e-05)
(0 0 -1.46308e-05)
(0 0 -1.4745e-05)
(0 0 -1.48575e-05)
(0 0 -1.4962e-05)
(0 0 -1.50549e-05)
(0 0 -1.51337e-05)
(0 0 -1.51969e-05)
(0 0 -1.52431e-05)
(0 0 -1.52713e-05)
(0 0 -1.52803e-05)
(0 0 -1.52692e-05)
(0 0 -1.52367e-05)
(0 0 -1.51815e-05)
(0 0 -1.51016e-05)
(0 0 -1.49938e-05)
(0 0 -1.48497e-05)
(0 0 -1.46446e-05)
(0 0 -1.42982e-05)
(0 0 -1.3551e-05)
(0 0 -1.15695e-05)
(0 0 -5.64575e-06)
(0 -8.4981e-23 1.369e-05)
(-1.61722e-23 7.97531e-21 2.17749e-06)
(-1.48104e-22 7.8416e-21 1.62988e-06)
(3.38584e-23 -1.98431e-22 8.72606e-07)
(3.58517e-23 -2.34179e-20 -1.40578e-07)
(-9.31457e-23 8.00289e-21 -1.45725e-06)
(3.67005e-22 7.86117e-21 -3.12777e-06)
(-7.98787e-22 2.29172e-20 -5.1993e-06)
(3.12523e-22 -2.32906e-20 -7.72217e-06)
(6.30362e-22 -7.4931e-21 -1.07527e-05)
(-9.0272e-22 -3.72775e-24 -1.43524e-05)
(-9.03294e-22 -7.5113e-21 -1.85859e-05)
(7.91406e-22 7.13291e-21 -2.35173e-05)
(5.63705e-22 -5.88e-20 -2.92055e-05)
(-1.03796e-21 1.26262e-19 -3.56985e-05)
(3.54139e-22 -6.79442e-20 -4.30218e-05)
(-1.24113e-21 -5.12346e-20 -5.116e-05)
(2.36356e-21 -6.52358e-20 -6.00598e-05)
(-1.86018e-21 7.69407e-21 -6.9648e-05)
(-1.91723e-22 -7.17649e-21 -7.98604e-05)
(7.48746e-23 7.18338e-21 -9.05884e-05)
(-3.15422e-24 -1.29012e-22 -0.0001017)
(-7.01319e-23 -6.93143e-21 -0.000113073)
(-2.01293e-21 6.99454e-21 -0.000124621)
(4.21581e-21 1.29441e-23 -0.000136311)
(1.23292e-21 6.79494e-21 -0.000148184)
(-3.28433e-21 -5.33613e-24 -0.000160374)
(4.72932e-21 7.90424e-21 -0.000173122)
(-5.51099e-21 1.02537e-19 -0.00018679)
(6.53074e-22 -1.10115e-19 -0.000201865)
(-2.10324e-21 1.00688e-19 -0.000218984)
(2.04802e-21 -1.01835e-19 -0.000238961)
(4.86296e-23 1.34471e-21 -0.000262865)
(-6.334e-23 -1.65202e-21 -0.000292171)
(2.74174e-21 -9.65967e-20 -0.000329058)
(-8.64497e-21 9.37558e-20 -0.000376974)
(-3.19126e-22 -1.55287e-21 -0.000441656)
(6.22815e-21 1.36216e-23 -0.000532932)
(6.77685e-21 1.48216e-23 -0.000667753)
(-6.75517e-21 -1.47742e-23 -0.000875076)
(-2.24143e-22 -4.90223e-25 -0.00120332)
(-2.33854e-22 -5.11461e-25 -0.00173101)
(-8.05695e-21 -1.76214e-23 -0.00258062)
(7.77697e-21 1.7009e-23 -0.00393469)
(-2.5708e-22 1.53067e-22 -0.00605073)
(-2.92657e-23 7.92571e-21 -0.00926917)
(-2.49364e-20 5.13381e-20 -0.0140048)
(2.40169e-20 -6.7651e-20 -0.0207086)
(-5.63704e-21 -9.65665e-21 -0.029784)
(6.19674e-21 2.63221e-20 -0.0414529)
(-2.06243e-20 -5.75804e-21 -0.0554835)
(-2.58839e-22 7.98837e-21 6.15896e-06)
(-1.02127e-22 1.57142e-20 4.45111e-06)
(3.08804e-22 7.64397e-21 2.06529e-06)
(-8.78757e-22 -7.85498e-21 -1.13949e-06)
(1.63107e-21 7.49151e-21 -5.3023e-06)
(-5.13577e-22 -5.36795e-20 -1.05577e-05)
(-2.01128e-22 8.52512e-20 -1.7044e-05)
(-5.84153e-23 -8.89186e-21 -2.4912e-05)
(2.16432e-21 -9.81955e-20 -3.433e-05)
(-2.24036e-21 1.3867e-19 -4.54832e-05)
(-8.01239e-22 1.26709e-19 -5.85683e-05)
(5.87568e-22 -1.14017e-19 -7.37827e-05)
(-3.94442e-22 7.39836e-22 -9.13097e-05)
(2.81209e-21 -7.26194e-21 -0.000111301)
(-2.18419e-21 2.41713e-20 -0.000133846)
(-5.91817e-21 2.39983e-19 -0.000158912)
(1.55777e-21 -2.25734e-19 -0.000186336)
(-5.52713e-21 2.41928e-19 -0.000215944)
(-2.88364e-22 1.9571e-20 -0.000247553)
(-3.85188e-21 -7.34301e-21 -0.000280885)
(4.06969e-21 1.4558e-22 -0.000315562)
(-4.07913e-21 9.13559e-21 -0.000351239)
(1.14402e-21 2.10376e-19 -0.000387692)
(5.68166e-21 -4.45608e-19 -0.000424856)
(4.36839e-21 -2.12982e-19 -0.000462893)
(-6.74255e-21 4.31124e-19 -0.000502243)
(3.32864e-21 -4.30241e-19 -0.000543673)
(-1.64135e-21 4.41482e-19 -0.000588309)
(3.29891e-21 1.44459e-21 -0.000637667)
(-3.73125e-21 -9.77727e-23 -0.00069371)
(-1.25369e-21 -2.74195e-24 -0.00075895)
(0 0 -0.000836672)
(1.85397e-22 9.62245e-23 -0.000931404)
(1.10922e-20 1.24105e-20 -0.00104982)
(-1.53946e-20 3.62085e-19 -0.00120243)
(-1.58331e-20 -2.41075e-20 -0.00140675)
(1.82475e-20 -3.57425e-19 -0.0016927)
(2.62752e-20 -3.09272e-19 -0.00211183)
(-8.97991e-21 3.30418e-19 -0.00275215)
(-3.13633e-20 2.19147e-21 -0.0037607)
(3.06831e-20 1.74817e-20 -0.0053756)
(-4.20765e-20 2.36525e-19 -0.00796792)
(2.25802e-20 -2.46047e-19 -0.0120898)
(-1.81882e-20 1.481e-20 -0.0185195)
(2.01749e-20 7.81967e-21 -0.0282846)
(-6.04156e-20 1.14844e-19 -0.0426363)
(6.03472e-20 -1.12405e-19 -0.0629308)
(-9.31864e-20 8.41424e-20 -0.0903626)
(8.99235e-20 -9.39374e-20 -0.125527)
(-1.90331e-20 -6.46055e-22 -0.166326)
(-2.6627e-23 4.73182e-20 9.84657e-06)
(-8.23437e-23 1.49579e-20 6.77168e-06)
(3.62361e-22 -6.19799e-20 2.39634e-06)
(-7.63966e-22 1.23328e-19 -3.50926e-06)
(1.69101e-21 -2.64062e-19 -1.11496e-05)
(4.37811e-22 1.25591e-19 -2.07227e-05)
(-2.46675e-21 -8.77225e-22 -3.24433e-05)
(1.56968e-21 -1.70878e-20 -4.65563e-05)
(1.38325e-21 -2.57803e-19 -6.33429e-05)
(8.55851e-22 2.45691e-19 -8.31188e-05)
(-8.64806e-22 -1.64079e-21 -0.000106224)
(-4.24518e-21 -1.58146e-23 -0.000133004)
(6.73728e-21 -1.86554e-21 -0.000163788)
(-4.11872e-21 -2.51648e-19 -0.000198861)
(5.32309e-21 2.28761e-19 -0.000238406)
(-1.12772e-20 4.54592e-19 -0.000282414)
(-4.91047e-21 -1.21945e-20 -0.000330674)
(-4.49475e-21 4.67835e-19 -0.000382946)
(4.0541e-22 -1.42044e-20 -0.000439017)
(-1.21733e-20 4.54571e-19 -0.000498513)
(1.20793e-20 -4.72134e-19 -0.000560889)
(-8.88508e-21 4.51107e-19 -0.000625679)
(2.02348e-21 -4.69245e-19 -0.000692621)
(5.26047e-21 -9.33465e-21 -0.000761728)
(-2.60194e-21 1.37616e-20 -0.000833395)
(5.57721e-21 -8.8433e-21 -0.000908495)
(-1.85206e-20 4.2363e-19 -0.000988452)
(1.65844e-20 -4.51605e-19 -0.0010753)
(1.80369e-20 -4.19899e-19 -0.00117176)
(-1.47165e-20 4.21916e-19 -0.00128128)
(-1.09407e-21 -5.22342e-21 -0.00140831)
(1.13286e-20 -1.22608e-22 -0.00155861)
(-1.29888e-20 -2.50003e-20 -0.00174006)
(5.24465e-20 -7.69111e-19 -0.00196424)
(1.68048e-20 5.63659e-20 -0.00224931)
(-6.96199e-20 7.24765e-19 -0.00262529)
(4.00513e-21 -1.24818e-20 -0.00314344)
(-1.15605e-20 -4.96291e-21 -0.00389188)
(1.10063e-19 -6.10241e-19 -0.00502086)
(-2.04695e-19 1.19917e-18 -0.00678101)
(2.08987e-19 -1.1928e-18 -0.00957762)
(7.24724e-20 8.57622e-20 -0.0140411)
(-1.58164e-19 5.23159e-19 -0.0211077)
(-1.66694e-19 3.61736e-19 -0.0320958)
(1.57436e-19 -4.28881e-19 -0.0487461)
(-2.26018e-20 1.97929e-20 -0.0731799)
(5.58462e-20 -1.76426e-20 -0.107696)
(1.67961e-19 -1.04458e-19 -0.154277)
(-1.81779e-19 1.62919e-19 -0.213721)
(-2.57949e-20 -4.17109e-20 -0.277886)
(3.97676e-22 -3.12028e-20 1.29435e-05)
(-3.64702e-22 1.57826e-20 8.01212e-06)
(6.99948e-22 -1.73636e-22 8.66918e-07)
(-6.29983e-22 -1.55291e-20 -8.74757e-06)
(-9.76778e-22 -1.46297e-21 -2.10451e-05)
(3.26381e-21 -2.43775e-19 -3.6255e-05)
(-4.54026e-21 4.61718e-19 -5.46527e-05)
(2.20362e-21 -2.48649e-19 -7.65756e-05)
(-1.83896e-21 1.49994e-20 -0.000102427)
(4.76802e-21 -2.72329e-19 -0.00013267)
(-5.78962e-21 2.48561e-19 -0.000167811)
(-3.89524e-21 4.74489e-19 -0.000208377)
(1.03763e-20 -9.60185e-19 -0.000254881)
(-1.25807e-20 9.59323e-19 -0.000307785)
(1.68493e-20 -9.54997e-19 -0.000367434)
(-1.08502e-20 9.46712e-19 -0.000433914)
(-9.70876e-21 4.81499e-19 -0.000507042)
(-7.1257e-22 -3.81779e-21 -0.000586627)
(4.56766e-21 3.96418e-21 -0.000672546)
(-7.31637e-21 4.44563e-19 -0.000764449)
(-2.40965e-21 -4.66948e-19 -0.00086179)
(1.49867e-20 1.2914e-20 -0.000964149)
(-3.29798e-20 8.97123e-19 -0.00107141)
(2.47333e-20 -9.00222e-19 -0.00118385)
(2.28409e-21 -5.32158e-21 -0.00130233)
(-9.8858e-21 -9.16729e-23 -0.00142836)
(1.49934e-20 -1.36218e-20 -0.0015643)
(-4.88142e-21 1.25173e-22 -0.00171336)
(-5.36887e-21 -6.4805e-23 -0.00187975)
(5.10525e-21 1.98475e-22 -0.00206883)
(-3.74645e-21 1.39345e-21 -0.00228736)
(6.22674e-20 -7.98206e-19 -0.00254405)
(-5.6281e-20 8.2102e-19 -0.00285075)
(-1.62812e-20 1.68547e-22 -0.00322462)
(1.89423e-20 -1.03744e-20 -0.0036923)
(-9.84355e-20 7.34589e-19 -0.00429755)
(1.15307e-19 -7.37931e-19 -0.00511461)
(-2.31044e-20 2.2607e-21 -0.00627084)
(1.63172e-20 -9.06567e-23 -0.00798308)
(3.87984e-20 6.58036e-21 -0.0106127)
(-2.50177e-19 5.53306e-19 -0.0147434)
(3.70252e-19 -1.12238e-18 -0.0212825)
(-1.80804e-19 5.69007e-19 -0.0315768)
(2.64594e-19 -4.36408e-19 -0.0475249)
(-2.55967e-19 5.14267e-19 -0.0716453)
(-5.9968e-19 5.31873e-19 -0.107037)
(1.13335e-18 -1.12767e-18 -0.157108)
(-5.55515e-19 5.69744e-19 -0.224793)
(1.91869e-20 -2.22978e-21 -0.310905)
(4.63601e-21 -3.56985e-20 -0.393489)
(-7.39062e-22 1.58644e-20 1.49769e-05)
(-2.57078e-22 6.07329e-20 7.11645e-06)
(1.93186e-21 -1.84447e-19 -4.29434e-06)
(-1.23786e-21 2.47563e-19 -1.93527e-05)
(-3.12275e-22 -1.09647e-19 -3.8196e-05)
(1.07763e-22 -1.46486e-20 -6.10574e-05)
(-4.72961e-22 1.54533e-20 -8.82782e-05)
(3.06851e-21 -1.89143e-22 -0.000120309)
(-2.92754e-21 -1.51062e-20 -0.000157706)
(-5.29715e-21 3.39192e-20 -0.000201115)
(-6.76245e-21 4.82582e-19 -0.000251253)
(1.83556e-20 -5.01611e-19 -0.000308876)
(-2.27266e-20 4.68071e-19 -0.000374743)
(1.88643e-20 -4.8693e-19 -0.000449571)
(-3.04561e-21 3.44226e-21 -0.000533949)
(1.11268e-20 4.81201e-23 -0.000628175)
(4.23306e-21 3.7624e-21 -0.000732223)
(-4.88808e-21 4.55196e-19 -0.000846107)
(2.00091e-20 -4.92654e-19 -0.000969969)
(6.43195e-21 2.7153e-20 -0.0011037)
(-4.51283e-20 9.39151e-19 -0.00124697)
(2.82798e-20 -9.41951e-19 -0.00139968)
(1.03198e-20 2.28099e-20 -0.00156213)
(-1.82671e-20 -2.36113e-22 -0.00173519)
(1.19528e-20 9.75478e-21 -0.00192051)
(-3.75748e-20 9.03865e-19 -0.00212064)
(3.07502e-20 -8.95487e-19 -0.00233927)
(2.87179e-21 9.73955e-21 -0.00258128)
(9.72346e-21 2.74613e-20 -0.00285294)
(-1.16513e-20 -5.5646e-22 -0.0031621)
(1.16406e-21 -1.31434e-20 -0.00351858)
(-3.77644e-20 1.33522e-20 -0.00393488)
(3.55962e-20 1.27264e-20 -0.00442775)
(-3.20298e-21 -2.55596e-20 -0.00502096)
(8.14074e-20 -7.47758e-19 -0.00575083)
(-7.22609e-20 7.70707e-19 -0.00667615)
(2.68752e-19 -1.48495e-18 -0.00789581)
(-2.45962e-19 1.49937e-18 -0.00957867)
(3.06458e-19 -1.40514e-18 -0.0120118)
(7.30545e-20 1.32904e-19 -0.015674)
(-3.5326e-19 1.33974e-18 -0.0213394)
(-1.22897e-19 -2.25705e-20 -0.0302129)
(1.67235e-20 3.89039e-22 -0.0440889)
(-1.86952e-20 5.67575e-22 -0.065513)
(5.51951e-20 1.69241e-21 -0.0979111)
(2.66149e-20 1.38432e-20 -0.145626)
(-1.15242e-19 5.2393e-21 -0.213695)
(6.55998e-20 5.08507e-21 -0.306839)
(-1.68405e-22 -3.16152e-22 -0.426404)
(3.67262e-20 6.52883e-22 -0.523647)
(-6.7902e-22 7.6449e-20 1.52158e-05)
(1.64732e-21 -4.66237e-20 2.04266e-06)
(-1.69998e-21 -1.64514e-20 -1.63039e-05)
(4.60778e-21 -2.28461e-19 -3.94992e-05)
(-2.19302e-21 2.30356e-19 -6.75929e-05)
(1.92697e-21 -2.27958e-19 -0.000100874)
(-1.08208e-20 5.0272e-19 -0.000139811)
(1.13014e-20 -7.04167e-19 -0.000185032)
(-7.27149e-21 4.98038e-19 -0.0002373)
(-5.6807e-21 4.85496e-19 -0.000297509)
(-2.20699e-21 3.92454e-21 -0.000366649)
(2.40618e-20 -9.53867e-19 -0.000445781)
(-2.08926e-20 9.92888e-19 -0.000535993)
(4.83976e-21 -4.6723e-19 -0.00063836)
(1.18651e-20 -4.69535e-19 -0.000753847)
(2.22593e-20 -4.62093e-19 -0.000883111)
(-3.20008e-21 6.78987e-21 -0.00102648)
(3.79157e-20 -9.58401e-19 -0.00118437)
(2.89995e-20 -9.20321e-19 -0.00135746)
(6.56526e-21 2.12554e-20 -0.00154617)
(-2.58813e-20 9.56101e-19 -0.00175071)
(-2.03681e-20 -8.17754e-21 -0.00197167)
(1.24352e-20 9.05264e-21 -0.00221019)
(-4.98338e-20 9.26481e-19 -0.0024682)
(4.02218e-20 -9.41288e-19 -0.00274865)
(7.19306e-20 -9.04414e-19 -0.00305574)
(-7.31699e-20 9.34366e-19 -0.00339513)
(1.52483e-20 -2.02521e-20 -0.00377415)
(6.64778e-20 -9.02547e-19 -0.00420201)
(-9.45527e-20 9.25688e-19 -0.00469009)
(4.42686e-21 1.25083e-20 -0.00525242)
(-2.05193e-19 1.69713e-18 -0.00590667)
(1.8504e-19 -1.76095e-18 -0.00667589)
(4.91605e-20 6.28106e-20 -0.00759204)
(-2.65813e-19 1.60866e-18 -0.00870252)
(2.43174e-19 -1.67753e-18 -0.0100823)
(-3.2051e-20 -3.38956e-21 -0.0118555)
(4.73154e-19 -1.51499e-18 -0.0142324)
(-4.42563e-19 1.56482e-18 -0.0175701)
(-6.74052e-20 -7.36064e-20 -0.0224653)
(6.84094e-19 -1.32497e-18 -0.0298875)
(-1.20314e-18 2.73419e-18 -0.041355)
(-6.81852e-20 -1.56574e-19 -0.0591467)
(-9.13255e-20 -1.2264e-19 -0.0865333)
(7.80848e-19 -1.19337e-18 -0.128018)
(4.02298e-20 6.4151e-20 -0.189597)
(-8.86919e-19 7.93924e-19 -0.279055)
(8.69692e-19 -8.72939e-19 -0.405716)
(9.67632e-21 2.94871e-20 -0.576232)
(9.58607e-21 -2.80032e-21 -0.694016)
(6.06104e-22 -1.59314e-20 1.26871e-05)
(1.61011e-21 -1.35821e-19 -1.14527e-05)
(-1.74398e-21 1.22509e-19 -4.07425e-05)
(-1.30075e-21 -1.72714e-20 -7.53134e-05)
(5.23488e-21 -2.27065e-19 -0.000115521)
(-4.81746e-21 2.33603e-19 -0.000161876)
(-5.51561e-21 4.71861e-19 -0.000215063)
(-5.1761e-21 -1.94864e-20 -0.000275923)
(2.25436e-21 -4.56333e-21 -0.00034545)
(1.42149e-20 -5.03268e-19 -0.000424781)
(-1.1503e-20 4.71001e-19 -0.00051517)
(1.70388e-20 -9.96591e-19 -0.000617962)
(-3.65624e-21 4.98255e-19 -0.000734552)
(-3.71383e-21 -1.87805e-20 -0.00086634)
(-4.9497e-21 -2.24968e-20 -0.00101463)
(2.77847e-20 -9.78427e-19 -0.00118042)
(-1.57448e-21 -2.01018e-20 -0.00136435)
(2.65594e-20 -9.96761e-19 -0.00156719)
(-5.49484e-21 -7.6826e-21 -0.00179003)
(-1.70991e-22 1.20889e-22 -0.00203372)
(1.15967e-20 8.54504e-21 -0.00229884)
(-5.1994e-20 9.59812e-19 -0.00258638)
(4.6176e-20 -9.80531e-19 -0.00289794)
(1.29408e-20 8.44842e-21 -0.00323593)
(-8.85091e-21 -1.50356e-20 -0.00360381)
(-6.25165e-21 1.00339e-20 -0.00400631)
(-7.28533e-20 9.27639e-19 -0.00444957)
(1.56798e-19 -1.89296e-18 -0.00494131)
(-7.41619e-20 9.87497e-19 -0.00549088)
(-1.89303e-19 1.83101e-18 -0.00610942)
(-3.06922e-20 -4.52526e-20 -0.00681007)
(2.77405e-21 -2.59578e-20 -0.00760858)
(-6.69156e-20 -5.36484e-20 -0.00852472)
(2.56759e-19 -1.83225e-18 -0.0095852)
(3.9845e-19 -1.69755e-18 -0.0108298)
(-3.55057e-19 1.78191e-18 -0.0123235)
(-3.44777e-20 -5.57736e-20 -0.0141791)
(4.73545e-19 -1.62605e-18 -0.0165973)
(-4.16859e-19 1.72261e-18 -0.0199361)
(-6.71953e-19 1.53183e-18 -0.0248205)
(5.70242e-19 -1.61806e-18 -0.032307)
(7.9558e-20 -1.14273e-20 -0.0441106)
(8.78767e-19 -1.43378e-18 -0.0628903)
(1.24961e-19 1.22564e-19 -0.092584)
(-1.01776e-18 1.40614e-18 -0.13879)
(-1.65668e-20 -4.03631e-20 -0.209276)
(3.41633e-20 5.35929e-22 -0.315329)
(-3.47636e-20 1.57194e-20 -0.476757)
(-5.24453e-19 5.48992e-19 -0.731669)
(5.15876e-19 -5.58112e-19 -1.0076)
(-1.05719e-20 -3.08664e-21 0.0100598)
(-1.04264e-20 -5.56104e-22 0.00394275)
(9.77307e-21 9.83664e-21 -0.00119543)
(-7.19248e-21 1.46435e-21 -0.00543192)
(7.7014e-21 -1.0603e-20 -0.00885195)
(-7.09079e-24 3.28705e-21 -0.0115463)
(-1.59479e-22 -9.14853e-23 -0.013604)
(-4.95036e-21 1.08269e-23 -0.0151063)
(4.80951e-21 -1.05189e-23 -0.0161279)
(-1.37561e-22 3.00859e-25 -0.0167365)
(-1.27245e-22 2.78296e-25 -0.0169933)
(3.49828e-21 -7.65108e-24 -0.0169541)
(-3.50952e-21 7.67566e-24 -0.0166706)
(-2.80942e-21 6.14449e-24 -0.0161891)
(3.64886e-22 -5.6757e-22 -0.0155516)
(5.37873e-21 2.57052e-20 -0.0147952)
(-2.70446e-21 -2.29013e-20 -0.0139528)
(-3.43526e-23 -5.35071e-22 -0.0130528)
(-1.01221e-23 2.79899e-22 -0.01212)
(-2.66646e-21 -4.35784e-20 -0.011175)
(2.68647e-21 4.32687e-20 -0.0102354)
(-2.05441e-21 -4.88104e-20 -0.00931534)
(6.15555e-22 3.27346e-21 -0.00842618)
(-5.4509e-22 5.84598e-24 -0.00757632)
(4.61802e-22 3.95986e-21 -0.00677259)
(-1.24552e-22 5.55217e-24 -0.00601947)
(-1.2513e-22 2.73672e-25 -0.00532001)
(4.15763e-23 3.12363e-25 -0.00467578)
(2.16931e-22 4.89345e-21 -0.00408714)
(1.64024e-24 -2.20153e-24 -0.00355341)
(-1.94688e-22 -5.29425e-21 -0.00307306)
(1.87103e-22 5.48114e-21 -0.00264391)
(-2.47686e-22 -5.63283e-21 -0.00226324)
(9.07091e-22 5.28569e-20 -0.00192793)
(-8.11612e-22 -5.31815e-20 -0.00163461)
(-3.52308e-22 -4.32092e-20 -0.00137975)
(8.26027e-22 9.37115e-20 -0.00115973)
(-4.58969e-22 -5.06206e-20 -0.000971001)
(-6.53286e-23 -6.47995e-21 -0.000810059)
(6.17697e-23 6.62202e-21 -0.000673572)
(-3.38292e-23 -1.94466e-25 -0.000558401)
(1.32918e-22 6.81267e-21 -0.000461636)
(-2.25169e-22 -3.47091e-20 -0.00038062)
(2.07199e-22 3.48745e-20 -0.000312962)
(-5.111e-23 -7.09395e-21 -0.000256539)
(1.26042e-22 2.15523e-20 -0.000209488)
(1.05459e-23 -7.18481e-21 -0.000170186)
(-7.88598e-23 -1.4641e-20 -0.000137222)
(2.13356e-23 7.35136e-21 -0.000109357)
(-5.18207e-23 -7.44227e-21 -8.55127e-05)
(-1.53177e-20 2.49511e-20 0.0290411)
(2.95733e-20 -9.43186e-21 0.0108159)
(-2.36931e-20 -2.20302e-20 -0.00456255)
(4.966e-21 2.00112e-20 -0.0171427)
(-5.44906e-21 -1.93677e-20 -0.0272219)
(-1.18408e-20 6.00571e-21 -0.0351048)
(1.03029e-20 5.65811e-21 -0.0410816)
(-7.68002e-22 -3.89361e-21 -0.0454076)
(1.17127e-20 -6.83007e-21 -0.048311)
(-1.96377e-20 4.92807e-21 -0.0499972)
(1.68165e-20 -4.91246e-21 -0.0506502)
(1.46624e-20 4.63637e-20 -0.050438)
(-2.42076e-20 -3.59061e-20 -0.0495138)
(-2.61315e-20 -7.74479e-20 -0.0480153)
(4.94504e-21 -2.22708e-20 -0.0460661)
(2.65605e-20 9.05014e-20 -0.043776)
(-4.68359e-21 9.85318e-22 -0.0412413)
(-1.09276e-21 -4.38796e-21 -0.0385455)
(6.61395e-24 -5.8933e-23 -0.0357603)
(2.60953e-22 -5.70731e-25 -0.0329464)
(6.98248e-22 9.34124e-24 -0.0301542)
(-1.02468e-21 -3.70873e-21 -0.0274249)
(2.48017e-20 2.21346e-19 -0.024791)
(-2.74103e-20 -2.39101e-19 -0.0222774)
(2.46144e-20 2.59588e-19 -0.0199026)
(-1.30693e-20 -1.24324e-19 -0.0176801)
(-2.31232e-20 -2.87258e-19 -0.015618)
(1.12575e-20 1.47211e-19 -0.0137202)
(-1.70849e-22 -4.86843e-21 -0.0119875)
(-7.54393e-22 -1.03293e-20 -0.0104174)
(1.32725e-22 5.30774e-21 -0.00900533)
(-8.98191e-22 -1.649e-20 -0.00774448)
(7.11489e-21 1.78357e-19 -0.00662666)
(-1.48105e-20 -3.79729e-19 -0.00564254)
(6.59786e-21 1.83764e-19 -0.00478204)
(-7.74011e-22 -1.85288e-20 -0.00403465)
(2.46208e-22 6.27458e-21 -0.0033897)
(-2.08935e-23 -4.89856e-23 -0.00283664)
(-2.78902e-21 -1.11573e-19 -0.00236516)
(2.37116e-21 9.87177e-20 -0.00196545)
(1.67429e-21 9.48028e-20 -0.00162826)
(-2.46112e-21 -1.29102e-19 -0.00134504)
(6.15282e-23 6.97194e-21 -0.00110799)
(4.86125e-22 3.52601e-20 -0.000910082)
(-1.0672e-21 -6.35215e-20 -0.000745089)
(-5.14779e-24 -7.1511e-21 -0.000607544)
(-6.49278e-22 -5.07407e-20 -0.000492686)
(-1.27818e-22 -7.5065e-21 -0.000396361)
(1.59022e-22 1.45852e-20 -0.000314879)
(1.87017e-22 2.22233e-20 -0.000244899)
(-1.45164e-20 -9.53608e-22 0.0444866)
(-1.20824e-20 -1.48449e-20 0.0144031)
(3.41631e-20 2.86782e-20 -0.0110639)
(-4.34556e-20 -1.24906e-20 -0.0315413)
(1.7843e-20 1.12716e-20 -0.0476903)
(1.11055e-21 -2.75255e-21 -0.0601307)
(7.68166e-21 -3.24784e-20 -0.0694188)
(5.19238e-20 2.97213e-20 -0.076017)
(-2.14388e-20 5.00476e-20 -0.0803166)
(-9.50265e-20 -1.12508e-19 -0.0826637)
(1.33523e-19 1.31709e-19 -0.083368)
(-7.58377e-20 -6.33606e-20 -0.082707)
(4.07389e-21 -1.07852e-20 -0.0809297)
(-2.56129e-21 -5.77167e-21 -0.0782597)
(1.00107e-19 2.09991e-19 -0.0748959)
(-3.64569e-21 4.06839e-20 -0.071014)
(-9.33841e-20 -2.37142e-19 -0.0667675)
(7.78997e-21 4.39797e-21 -0.062289)
(-3.79381e-21 1.42162e-22 -0.0576913)
(1.31009e-22 -1.00774e-21 -0.0530694)
(4.69695e-20 2.08616e-19 -0.0485018)
(-4.57254e-20 -1.99342e-19 -0.0440528)
(-4.36555e-20 -2.35602e-19 -0.0397716)
(4.6387e-20 2.48523e-19 -0.0356972)
(1.20093e-21 9.08522e-21 -0.0318565)
(-1.3012e-21 -8.89251e-21 -0.0282691)
(1.17589e-21 9.38199e-21 -0.0249465)
(-3.37105e-20 -3.05662e-19 -0.0218936)
(3.54516e-20 3.15679e-19 -0.0191103)
(-2.93708e-20 -3.19443e-19 -0.0165917)
(3.141e-20 3.41e-19 -0.0143292)
(7.00806e-22 1.12178e-20 -0.0123114)
(2.54456e-20 3.72747e-19 -0.0105244)
(-4.86826e-20 -7.4451e-19 -0.00895266)
(2.42579e-20 3.95729e-19 -0.00757966)
(1.11253e-20 2.12211e-19 -0.00638821)
(-9.84902e-21 -1.87764e-19 -0.00536097)
(2.93132e-22 7.89565e-23 -0.0044808)
(-4.00525e-22 -5.80996e-23 -0.00373108)
(-3.5802e-23 7.49762e-23 -0.00309599)
(6.89543e-21 2.173e-19 -0.00256067)
(-6.68174e-21 -2.04099e-19 -0.00211138)
(5.22078e-22 1.39519e-20 -0.00173563)
(-2.56725e-22 -8.69644e-24 -0.00142217)
(2.46728e-21 1.13757e-19 -0.00116105)
(-4.56329e-21 -2.14598e-19 -0.000943538)
(2.24598e-21 1.15099e-19 -0.000762028)
(-1.12642e-21 -5.85076e-20 -0.000609853)
(8.47455e-22 4.37915e-20 -0.000480958)
(2.02013e-22 1.46844e-20 -0.000369444)
(1.79261e-21 2.70594e-20 0.0528668)
(8.81622e-21 -5.45543e-20 0.0115389)
(-5.38238e-20 2.82992e-20 -0.0234854)
(6.59201e-20 4.31499e-20 -0.0508703)
(3.81687e-21 -8.32911e-20 -0.0719431)
(1.77821e-20 5.30969e-20 -0.0877974)
(-3.42465e-20 -1.30628e-20 -0.0993225)
(4.16133e-20 5.74587e-20 -0.10724)
(-1.27325e-19 -1.17854e-19 -0.112121)
(1.18188e-19 4.74023e-20 -0.114453)
(-2.13427e-20 1.27218e-20 -0.114661)
(-1.11134e-20 7.30628e-22 -0.113122)
(1.5639e-20 9.01085e-21 -0.110168)
(-1.39861e-19 -2.21479e-19 -0.106096)
(1.2503e-19 2.01503e-19 -0.101168)
(-3.76416e-21 1.49401e-20 -0.0956156)
(3.91924e-21 -8.07051e-21 -0.089637)
(1.34939e-19 3.50525e-19 -0.0834034)
(-1.3677e-19 -3.4246e-19 -0.0770598)
(-1.31823e-21 -1.03282e-20 -0.0707269)
(-9.64005e-22 -4.68957e-23 -0.0645042)
(1.4036e-21 4.11345e-22 -0.0584713)
(5.87038e-22 -2.07527e-23 -0.0526911)
(1.87465e-22 8.4363e-21 -0.0472099)
(1.76387e-21 3.32116e-22 -0.0420603)
(1.44857e-21 9.39261e-21 -0.0372638)
(-1.05304e-19 -6.35826e-19 -0.0328326)
(1.04503e-19 6.2617e-19 -0.0287705)
(-3.1007e-22 3.53873e-22 -0.0250751)
(-4.30921e-20 -3.4919e-19 -0.0217377)
(4.51658e-20 3.60793e-19 -0.0187453)
(5.5271e-23 -1.74596e-23 -0.016081)
(-1.96227e-22 -2.87179e-22 -0.0137254)
(-3.43728e-20 -4.00571e-19 -0.0116568)
(6.51892e-20 7.98518e-19 -0.00985243)
(-5.91852e-20 -8.02461e-19 -0.00828888)
(5.52009e-20 8.17655e-19 -0.0069427)
(-5.09474e-20 -8.3178e-19 -0.00579082)
(2.43236e-20 4.196e-19 -0.00481098)
(1.0323e-20 2.15446e-19 -0.00398206)
(-9.09949e-21 -1.88686e-19 -0.00328428)
(-7.2961e-22 -1.37658e-20 -0.00269944)
(-8.09471e-21 -2.23149e-19 -0.00221097)
(1.685e-20 4.77058e-19 -0.00180404)
(-7.71568e-21 -2.25821e-19 -0.00146553)
(8.68143e-23 9.7584e-23 -0.00118393)
(3.21923e-22 1.43947e-20 -0.000949247)
(-8.04279e-23 -3.63492e-23 -0.000752639)
(-2.93069e-22 -1.46045e-20 -0.000585838)
(6.33138e-22 2.94404e-20 -0.000439974)
(2.75909e-20 9.55429e-23 0.0496272)
(2.82405e-22 3.41761e-22 -0.00226416)
(-6.18436e-20 2.90353e-22 -0.0455548)
(9.02866e-20 -5.76228e-22 -0.0779447)
(-2.74208e-20 -7.33951e-22 -0.101947)
(-4.20831e-20 -9.50533e-22 -0.11938)
(1.47134e-20 7.16965e-22 -0.131547)
(-1.06167e-20 -1.17208e-21 -0.139431)
(8.31571e-20 -2.32653e-20 -0.143777)
(1.80632e-19 2.84423e-19 -0.145193)
(9.96051e-21 9.1816e-20 -0.144197)
(-2.23898e-19 -3.61666e-19 -0.141239)
(2.77296e-19 4.54957e-19 -0.136715)
(-2.93014e-19 -4.4896e-19 -0.130972)
(1.4696e-19 2.85703e-19 -0.124318)
(-1.57478e-19 -2.98236e-19 -0.117017)