/*--------------------------------*- C++ -*----------------------------------*\
| =========                 |                                                 |
| \\      /  F ield         | OpenFOAM: The Open Source CFD Toolbox           |
|  \\    /   O peration     | Version:  2412                                  |
|   \\  /    A nd           | Website:  www.openfoam.com                      |
|    \\/     M anipulation  |                                                 |
\*---------------------------------------------------------------------------*/
FoamFile
{
    version     2.0;
    format      ascii;
    arch        "LSB;label=32;scalar=64";
    class       volVectorField;
    location    "15.5";
    object      vorticity;
}
// * * * * * * * * * * * * * * * * * * * * * * * * * * * * * * * * * * * * * //

dimensions      [0 0 -1 0 0 0 0];

internalField   nonuniform List<vector> 
5285
(
(0 -4.34302e-23 -5.36645e-05)
(0 2.48195e-21 -3.22706e-05)
(0 -0 -6.97481e-06)
(0 -0 -1.31532e-05)
(0 -0 -1.96587e-05)
(0 -0 -2.78058e-05)
(0 -0 -3.64106e-05)
(0 -0 -4.46594e-05)
(0 -0 -5.18468e-05)
(0 -0 -5.7192e-05)
(0 -0 -5.99144e-05)
(0 -0 -5.93251e-05)
(0 -0 -5.49396e-05)
(0 -0 -4.65915e-05)
(0 -0 -3.45254e-05)
(0 -0 -1.94436e-05)
(0 -0 -2.48921e-06)
(0 -0 1.48421e-05)
(0 -0 3.08589e-05)
(0 -0 4.38868e-05)
(0 -0 5.25161e-05)
(0 -0 5.58423e-05)
(0 -0 5.35624e-05)
(0 -0 4.5667e-05)
(0 -4.87418e-21 -1.92485e-05)
(0 -0 1.85366e-06)
(0 -0 -3.46941e-06)
(0 -0 -9.0511e-06)
(0 -0 -1.56254e-05)
(0 -0 -2.26523e-05)
(0 -0 -2.94011e-05)
(0 -0 -3.52092e-05)
(0 -0 -3.93278e-05)
(0 -0 -4.1006e-05)
(0 -0 -3.95868e-05)
(0 -0 -3.46182e-05)
(0 -0 -2.59635e-05)
(0 -0 -1.38886e-05)
(0 -0 8.97382e-07)
(0 -0 1.72623e-05)
(0 -0 3.3743e-05)
(0 -0 4.87026e-05)
(0 -0 6.05387e-05)
(0 -0 6.79224e-05)
(0 -0 7.00301e-05)
(0 -0 6.66089e-05)
(0 -0 5.77641e-05)
(0 2.31608e-21 -1.11118e-05)
(0 -0 6.42917e-06)
(0 -0 1.76263e-06)
(0 -0 -3.55616e-06)
(0 -0 -9.7085e-06)
(0 -0 -1.61777e-05)
(0 -0 -2.23308e-05)
(0 -0 -2.75693e-05)
(0 -0 -3.11879e-05)
(0 -0 -3.24686e-05)
(0 -0 -3.0781e-05)
(0 -0 -2.56944e-05)
(0 -0 -1.70864e-05)
(0 -0 -5.22706e-06)
(0 -0 9.18454e-06)
(0 -0 2.50438e-05)
(0 -0 4.09326e-05)
(0 -0 5.52749e-05)
(0 -0 6.65398e-05)
(0 -0 7.34711e-05)
(0 -0 7.53126e-05)
(0 -0 7.18883e-05)
(0 -0 6.33305e-05)
(0 -3.13505e-23 -5.89131e-06)
(0 -0 8.16193e-06)
(0 -0 3.64958e-06)
(0 -0 -1.66156e-06)
(0 -0 -7.80337e-06)
(0 -0 -1.42489e-05)
(0 -0 -2.03856e-05)
(0 -0 -2.56371e-05)
(0 -0 -2.93218e-05)
(0 -0 -3.07406e-05)
(0 -0 -2.92767e-05)
(0 -0 -2.45054e-05)
(0 -0 -1.63014e-05)
(0 -0 -4.91823e-06)
(0 -0 8.97569e-06)
(0 -0 2.43224e-05)
(0 -0 3.9765e-05)
(0 -0 5.37989e-05)
(0 -0 6.4967e-05)
(0 -0 7.20794e-05)
(0 -0 7.4429e-05)
(0 -0 7.18797e-05)
(0 -0 6.46191e-05)
(0 -2.88658e-23 -2.78098e-06)
(0 -0 7.93254e-06)
(0 -0 3.33514e-06)
(0 -0 -2.14792e-06)
(0 -0 -8.53419e-06)
(0 -0 -1.52939e-05)
(0 -0 -2.18137e-05)
(0 -0 -2.75168e-05)
(0 -0 -3.17266e-05)
(0 -0 -3.3746e-05)
(0 -0 -3.29547e-05)
(0 -0 -2.89156e-05)
(0 -0 -2.14786e-05)
(0 -0 -1.08585e-05)
(0 -0 2.33074e-06)
(0 -0 1.71003e-05)
(0 -0 3.21734e-05)
(0 -0 4.6129e-05)
(0 -0 5.75885e-05)
(0 -0 6.54233e-05)
(0 -0 6.89579e-05)
(0 -0 6.80568e-05)
(0 -0 6.29056e-05)
(0 -8.37484e-22 -1.056e-06)
(0 -0 6.56148e-06)
(0 -0 1.66107e-06)
(0 -0 -4.19916e-06)
(0 -0 -1.10593e-05)
(0 -0 -1.84062e-05)
(0 -0 -2.56303e-05)
(0 -0 -3.215e-05)
(0 -0 -3.72822e-05)
(0 -0 -4.03191e-05)
(0 -0 -4.06199e-05)
(0 -0 -3.77155e-05)
(0 -0 -3.14081e-05)
(0 -0 -2.1849e-05)
(0 -0 -9.57211e-06)
(0 -0 4.52683e-06)
(0 -0 1.92707e-05)
(0 -0 3.33361e-05)
(0 -0 4.5428e-05)
(0 -0 5.44742e-05)
(0 -0 5.98148e-05)
(0 -0 6.12843e-05)
(0 -0 5.90148e-05)
(0 1.57941e-21 -3.27267e-07)
(0 -0 4.47994e-06)
(0 -0 -8.97815e-07)
(0 -0 -7.32619e-06)
(0 -0 -1.48738e-05)
(0 -0 -2.30542e-05)
(0 -0 -3.12681e-05)
(0 -0 -3.89293e-05)
(0 -0 -4.53438e-05)
(0 -0 -4.97821e-05)
(0 -0 -5.15684e-05)
(0 -0 -5.01818e-05)
(0 -0 -4.53547e-05)
(0 -0 -3.71493e-05)
(0 -0 -2.59938e-05)
(0 -0 -1.26668e-05)
(0 -0 1.77414e-06)
(0 -0 1.61165e-05)
(0 -0 2.91536e-05)
(0 -0 3.98645e-05)
(0 -0 4.75897e-05)
(0 -0 5.21071e-05)
(0 -0 5.34565e-05)
(0 -1.49592e-21 -3.8152e-07)
(0 -0 1.89419e-06)
(0 -0 -4.09717e-06)
(0 -0 -1.12587e-05)
(0 -0 -1.96867e-05)
(0 -0 -2.89249e-05)
(0 -0 -3.83882e-05)
(0 -0 -4.74866e-05)
(0 -0 -5.55115e-05)
(0 -0 -6.17034e-05)
(0 -0 -6.53378e-05)
(0 -0 -6.58242e-05)
(0 -0 -6.28034e-05)
(0 -0 -5.62244e-05)
(0 -0 -4.6385e-05)
(0 -0 -3.39244e-05)
(0 -0 -1.97621e-05)
(0 -0 -4.98745e-06)
(0 -0 9.28461e-06)
(0 -0 2.20789e-05)
(0 -0 3.27209e-05)
(0 -0 4.09078e-05)
(0 -0 4.65539e-05)
(0 6.83341e-22 -1.10651e-06)
(0 -0 -1.10577e-06)
(0 -0 -7.81835e-06)
(0 -0 -1.58507e-05)
(0 -0 -2.53256e-05)
(0 -0 -3.58186e-05)
(0 -0 -4.676e-05)
(0 -0 -5.75568e-05)
(0 -0 -6.74822e-05)
(0 -0 -7.57388e-05)
(0 -0 -8.15415e-05)
(0 -0 -8.42141e-05)
(0 -0 -8.32861e-05)
(0 -0 -7.85714e-05)
(0 -0 -7.02161e-05)
(0 -0 -5.86996e-05)
(0 -0 -4.47872e-05)
(0 -0 -2.94359e-05)
(0 -0 -1.36668e-05)
(0 -0 1.58414e-06)
(0 -0 1.56129e-05)
(0 -0 2.80135e-05)
(0 -0 3.85454e-05)
(0 -0 -2.44505e-06)
(0 -0 -4.48447e-06)
(0 -0 -1.19996e-05)
(0 -0 -2.101e-05)
(0 -0 -3.16652e-05)
(0 -0 -4.35727e-05)
(0 -0 -5.61797e-05)
(0 -0 -6.88893e-05)
(0 -0 -8.0953e-05)
(0 -0 -9.15291e-05)
(0 -0 -9.97616e-05)
(0 -0 -0.000104875)
(0 -0 -0.00010627)
(0 -0 -0.000103609)
(0 -0 -9.68674e-05)
(0 -0 -8.63488e-05)
(0 -0 -7.26523e-05)
(0 -0 -5.6596e-05)
(0 -0 -3.91069e-05)
(0 -0 -2.10888e-05)
(0 -0 -3.28941e-06)
(0 -0 1.37629e-05)
(0 -0 2.9648e-05)
(0 5.24535e-22 -4.36332e-06)
(0 -0 -8.22214e-06)
(0 -0 -1.65917e-05)
(0 -0 -2.66519e-05)
(0 -0 -3.85793e-05)
(0 -0 -5.20135e-05)
(0 -0 -6.64188e-05)
(0 -0 -8.11936e-05)
(0 -0 -9.5565e-05)
(0 -0 -0.000108642)
(0 -0 -0.000119488)
(0 -0 -0.00012722)
(0 -0 -0.000131098)
(0 -0 -0.000130617)
(0 -0 -0.000125571)
(0 -0 -0.000116076)
(0 -0 -0.000102558)
(0 -0 -8.56928e-05)
(0 -0 -6.6315e-05)
(0 -0 -4.53041e-05)
(0 -0 -2.34632e-05)
(0 -0 -1.4589e-06)
(0 -0 2.00901e-05)
(0 -5.55016e-22 -6.82528e-06)
(0 -0 -1.2287e-05)
(0 -0 -2.15282e-05)
(0 -0 -3.26687e-05)
(0 -0 -4.59112e-05)
(0 -0 -6.09265e-05)
(0 -0 -7.7196e-05)
(0 -0 -9.41124e-05)
(0 -0 -0.000110876)
(0 -0 -0.000126543)
(0 -0 -0.000140095)
(0 -0 -0.000150531)
(0 -0 -0.000156964)
(0 -0 -0.000158718)
(0 -0 -0.000155395)
(0 -0 -0.000146921)
(0 -0 -0.000133544)
(0 -0 -0.000115801)
(0 -0 -9.44361e-05)
(0 -0 -7.0313e-05)
(0 -0 -4.42992e-05)
(0 -0 -1.72102e-05)
(0 -0 1.01249e-05)
(0 -2.38394e-22 -9.7692e-06)
(0 -0 -1.66138e-05)
(0 -0 -2.67066e-05)
(0 -0 -3.8913e-05)
(0 -0 -5.34591e-05)
(0 -0 -7.00453e-05)
(0 -0 -8.81684e-05)
(0 -0 -0.000107215)
(0 -0 -0.000126359)
(0 -0 -0.000144602)
(0 -0 -0.000160843)
(0 -0 -0.000173964)
(0 -0 -0.00018293)
(0 -0 -0.000186891)
(0 -0 -0.000185261)
(0 -0 -0.000177776)
(0 -0 -0.000164511)
(0 -0 -0.000145864)
(0 -0 -0.000122501)
(0 -0 -9.52715e-05)
(0 -0 -6.51148e-05)
(0 -0 -3.29996e-05)
(0 -0 3.0514e-08)
(0 2.36091e-22 -1.30851e-05)
(0 -0 -2.10867e-05)
(0 -0 -3.19766e-05)
(0 -0 -4.5192e-05)
(0 -0 -6.09762e-05)
(0 -0 -7.90549e-05)
(0 -0 -9.89388e-05)
(0 -0 -0.000120009)
(0 -0 -0.000141414)
(0 -0 -0.000162108)
(0 -0 -0.000180907)
(0 -0 -0.000196581)
(0 -0 -0.000207957)
(0 -0 -0.000214016)
(0 -0 -0.000213992)
(0 -0 -0.000207438)
(0 -0 -0.000194267)
(0 -0 -0.000174748)
(0 -0 -0.000149469)
(0 -0 -0.000119277)
(0 -0 -8.51824e-05)
(0 -0 -4.83049e-05)
(0 -0 -9.89709e-06)
(0 -1.15987e-23 -1.65939e-05)
(0 -0 -2.55306e-05)
(0 -0 -3.71434e-05)
(0 -0 -5.12782e-05)
(0 -0 -6.81851e-05)
(0 -0 -8.76099e-05)
(0 -0 -0.000109078)
(0 -0 -0.000131967)
(0 -0 -0.000155408)
(0 -0 -0.000178309)
(0 -0 -0.000199419)
(0 -0 -0.000217407)
(0 -0 -0.000230969)
(0 -0 -0.000238936)
(0 -0 -0.000240376)
(0 -0 -0.000234677)
(0 -0 -0.000221599)
(0 -0 -0.000201295)
(0 -0 -0.000174288)
(0 -0 -0.000141419)
(0 -0 -0.000103769)
(0 -0 -6.25989e-05)
(0 -0 -1.93561e-05)
(0 -8.2195e-23 -2.00279e-05)
(0 -0 -2.97202e-05)
(0 -0 -4.19945e-05)
(0 -0 -5.6942e-05)
(0 -0 -7.4809e-05)
(0 -0 -9.53646e-05)
(0 -0 -0.000118154)
(0 -0 -0.000142561)
(0 -0 -0.000167705)
(0 -0 -0.000192464)
(0 -0 -0.000215528)
(0 -0 -0.000235485)
(0 -0 -0.00025092)
(0 -0 -0.000260533)
(0 -0 -0.00026325)
(0 -0 -0.000258312)
(0 -0 -0.000245349)
(0 -0 -0.000224409)
(0 -0 -0.000195958)
(0 -0 -0.000160834)
(0 -0 -0.000120178)
(0 -0 -7.53791e-05)
(0 -0 -2.80526e-05)
(0 7.25433e-23 -2.30079e-05)
(0 -0 -3.34469e-05)
(0 -0 -4.63803e-05)
(0 -0 -6.20111e-05)
(0 -0 -8.06133e-05)
(0 -0 -0.000102005)
(0 -0 -0.000125766)
(0 -0 -0.000151297)
(0 -0 -0.000177717)
(0 -0 -0.000203886)
(0 -0 -0.000228454)
(0 -0 -0.000249947)
(0 -0 -0.000266865)
(0 -0 -0.000277806)
(0 -0 -0.000281576)
(0 -0 -0.000277299)
(0 -0 -0.000264494)
(0 -0 -0.000243124)
(0 -0 -0.000213603)
(0 -0 -0.000176764)
(0 -0 -0.0001338)
(0 -0 -8.61986e-05)
(0 -0 -3.57159e-05)
(0 -8.24049e-24 -2.49625e-05)
(0 -0 -3.67988e-05)
(0 -0 -5.03308e-05)
(0 -0 -6.64334e-05)
(0 -0 -8.54257e-05)
(0 -0 -0.00010726)
(0 -0 -0.00013156)
(0 -0 -0.000157744)
(0 -0 -0.000184938)
(0 -0 -0.000211997)
(0 -0 -0.000237549)
(0 -0 -0.000260082)
(0 -0 -0.00027804)
(0 -0 -0.000289947)
(0 -0 -0.000294524)
(0 -0 -0.000290806)
(0 -0 -0.000278227)
(0 -0 -0.000256679)
(0 -0 -0.000226533)
(0 -0 -0.000188615)
(0 -0 -0.000144148)
(0 -0 -9.46949e-05)
(0 -0 -4.21145e-05)
(-4.52028e-22 9.25531e-21 0.00014456)
(1.56459e-21 -8.10742e-21 0.000109742)
(4.10117e-22 -9.7372e-21 0.000131019)
(-1.42308e-20 3.22768e-19 9.80947e-05)
(1.00728e-21 -1.81126e-20 6.44231e-05)
(1.37167e-21 -1.42403e-21 2.1766e-05)
(-1.54523e-20 5.92762e-19 -6.87148e-05)
(3.00788e-20 -1.20561e-18 -0.000340191)
(2.77217e-21 -2.32311e-20 -0.000618396)
(-4.86195e-22 1.00957e-20 0.000116346)
(2.32666e-20 -5.79447e-19 8.67102e-05)
(2.24419e-20 -5.93757e-19 5.6622e-05)
(1.0724e-21 1.31478e-21 1.87369e-05)
(3.21809e-20 -1.23596e-18 -5.86692e-05)
(-2.75293e-20 1.24367e-18 -0.000285784)
(-2.40442e-20 1.23413e-18 -0.000522555)
(3.46842e-21 -8.25674e-20 0.000103113)
(-1.08993e-20 3.01911e-19 7.63274e-05)
(-3.91716e-20 1.16522e-18 4.93196e-05)
(-1.93833e-20 6.15579e-19 1.57906e-05)
(-1.3052e-20 6.10542e-19 -5.07193e-05)
(4.76699e-20 -2.42129e-18 -0.000241073)
(3.846e-20 -2.50818e-18 -0.000442776)
(-3.17483e-21 8.22273e-20 9.08825e-05)
(-7.16391e-22 1.02424e-20 6.67724e-05)
(1.76848e-20 -6.07905e-19 4.24815e-05)
(3.40719e-20 -1.20949e-18 1.25272e-05)
(-1.16318e-21 -2.9725e-21 -4.47281e-05)
(-7.56485e-21 6.27267e-19 -0.000204003)
(-1.38535e-20 1.23437e-18 -0.000375474)
(-2.62361e-21 6.35476e-20 7.97007e-05)
(-9.43926e-22 2.79257e-20 5.77956e-05)
(1.05295e-20 -3.13899e-19 3.58478e-05)
(-3.07361e-20 1.18489e-18 9.21696e-06)
(7.95547e-22 5.28171e-22 -3.98739e-05)
(-1.17736e-20 6.23833e-19 -0.000172546)
(-1.94429e-21 -1.74535e-20 -0.000317874)
(4.94621e-21 -1.36351e-19 6.952e-05)
(2.78197e-22 -9.61646e-21 4.9595e-05)
(-7.7534e-21 2.77281e-19 2.9764e-05)
(2.83202e-20 -1.18146e-18 6.18554e-06)
(-1.3007e-20 5.91056e-19 -3.56889e-05)
(-1.31886e-20 6.37167e-19 -0.000145545)
(-4.95977e-22 -1.77992e-20 -0.000268232)
(-2.40261e-21 7.2766e-20 6.02885e-05)
(1.58028e-22 6.61961e-23 4.2209e-05)
(-3.56292e-22 -7.24284e-22 2.43355e-05)
(-1.26895e-20 5.90313e-19 3.54306e-06)
(1.22964e-20 -6.09181e-19 -3.19787e-05)
(1.9584e-20 -1.17342e-18 -0.000122309)
(8.78965e-21 -6.01354e-19 -0.000225397)
(-3.63961e-22 8.95099e-21 5.1948e-05)
(-4.49432e-21 1.54528e-19 3.5611e-05)
(6.1053e-23 1.72811e-22 1.957e-05)
(-9.8173e-22 -5.33589e-22 1.32113e-06)
(-1.03034e-20 5.6826e-19 -2.8628e-05)
(-1.69098e-20 1.20224e-18 -0.000102309)
(-1.44133e-20 1.17516e-18 -0.00018845)
(2.57642e-22 -8.95655e-21 4.44174e-05)
(3.6383e-21 -1.36575e-19 2.97329e-05)
(-2.49668e-22 1.80062e-22 1.54161e-05)
(6.31358e-21 -2.9129e-19 -5.09582e-07)
(1.02142e-20 -5.88074e-19 -2.55881e-05)
(-1.92758e-21 1.74511e-20 -8.51378e-05)
(1.25922e-20 -1.20159e-18 -0.000156662)
(1.20962e-24 9.58577e-23 3.75868e-05)
(3.55531e-21 -1.2663e-19 2.44712e-05)
(6.9204e-21 -2.90932e-19 1.17807e-05)
(-5.01631e-21 2.55334e-19 -2.02392e-06)
(3.20608e-23 3.73948e-20 -2.28631e-05)
(7.89446e-21 -5.87447e-19 -7.04865e-05)
(-4.73239e-21 5.69142e-19 -0.000129438)
(2.6802e-22 -9.19904e-21 3.13374e-05)
(-4.32858e-21 1.7227e-19 1.97048e-05)
(-5.9737e-21 2.72923e-19 8.54522e-06)
(-3.6145e-22 1.84408e-20 -3.32642e-06)
(2.81503e-22 -1.75911e-20 -2.0493e-05)
(8.97415e-21 -5.81968e-19 -5.81184e-05)
(-1.486e-22 -5.45639e-22 -0.00010629)
(-1.19355e-21 4.52046e-20 2.55245e-05)
(1.11353e-22 -9.01008e-21 1.52938e-05)
(1.2636e-22 -1.83545e-20 5.5733e-06)
(-5.71052e-21 2.89684e-19 -4.53886e-06)
(-1.9072e-23 -6.65547e-22 -1.85386e-05)
(-1.13902e-20 9.05732e-19 -4.78463e-05)
(-5.76118e-21 5.61157e-19 -8.67982e-05)
(1.1434e-21 -4.52873e-20 1.9972e-05)
(-5.97422e-22 2.71346e-20 1.10734e-05)
(-2.15991e-23 4.88754e-22 2.71348e-06)
(1.07506e-20 -6.1503e-19 -5.79118e-06)
(-3.02075e-22 1.80861e-20 -1.70668e-05)
(6.12394e-21 -5.58174e-19 -3.951e-05)
(4.84916e-21 -5.94653e-19 -7.05872e-05)
(-1.86906e-22 9.04642e-21 1.44874e-05)
(-1.76509e-22 9.14679e-21 6.87206e-06)
(2.91373e-21 -1.44629e-19 -1.82924e-07)
(-4.44788e-21 2.89081e-19 -7.20178e-06)
(3.62186e-22 -1.80461e-20 -1.61291e-05)
(-3.27613e-21 3.05591e-19 -3.29506e-05)
(3.37664e-21 -3.03098e-19 -5.72962e-05)
(1.9113e-22 -9.04777e-21 8.88957e-06)
(-1.78284e-22 8.8867e-21 2.54407e-06)
(-5.00201e-21 2.70855e-19 -3.22837e-06)
(-2.55848e-22 3.69806e-23 -8.84456e-06)
(-2.29846e-21 1.615e-19 -1.57296e-05)
(3.16063e-21 -3.03307e-19 -2.7979e-05)
(-2.36867e-21 3.01942e-19 -4.65498e-05)
(2.00077e-22 -9.07932e-21 3.05778e-06)
(-1.23378e-21 6.32895e-20 -1.98732e-06)
(2.52431e-21 -1.44415e-19 -6.45686e-06)
(2.95882e-22 -1.78685e-20 -1.0708e-05)
(3.65002e-21 -2.86385e-19 -1.57871e-05)
(-2.99718e-21 3.0236e-19 -2.43414e-05)
(-1.49918e-22 -1.74142e-20 -3.79303e-05)
(-3.68138e-22 1.80746e-20 -3.03709e-06)
(-1.42558e-22 8.94427e-21 -6.67962e-06)
(-1.10541e-21 7.20146e-20 -9.76984e-06)
(5.71032e-23 -3.88199e-23 -1.26437e-05)
(-1.56525e-21 1.42836e-19 -1.60916e-05)
(3.93122e-23 -1.75179e-20 -2.16903e-05)
(1.11822e-21 -1.40129e-19 -3.09635e-05)
(1.84167e-22 -9.04201e-21 -9.22067e-06)
(3.42084e-22 -1.80862e-20 -1.12791e-05)
(1.43063e-21 -9.0117e-20 -1.28642e-05)
(-2.81738e-22 1.78506e-20 -1.43081e-05)
(-4.9436e-22 3.54833e-20 -1.62652e-05)
(-8.14465e-22 8.79613e-20 -1.95779e-05)
(-8.14491e-22 1.22241e-19 -2.51173e-05)
(-1.63831e-22 9.05577e-21 -1.50497e-05)
(4.94685e-22 -2.71083e-20 -1.5251e-05)
(-2.22173e-22 1.80013e-20 -1.51246e-05)
(4.67662e-22 -3.57407e-20 -1.51258e-05)
(1.73621e-22 -1.77597e-20 -1.57456e-05)
(4.67917e-22 -5.2711e-20 -1.75385e-05)
(6.73469e-23 -1.73534e-20 -1.98012e-05)
(-1.75012e-20 2.85866e-19 0.00021486)
(-5.36862e-22 9.57709e-21 0.00017961)
(7.29553e-22 -2.04161e-20 0.000461248)
(-9.47469e-20 1.24059e-18 0.000324133)
(4.20279e-20 -6.10569e-19 0.000291879)
(-7.42649e-22 -6.75278e-22 0.000259016)
(8.7576e-22 -1.84388e-20 0.000226281)
(-1.65088e-21 2.74291e-20 0.000193419)
(4.92711e-22 -9.09323e-21 0.00016211)
(8.90979e-20 -1.22428e-18 0.000402404)
(8.02051e-20 -1.17539e-18 0.000287631)
(-3.84042e-20 5.73611e-19 0.000259888)
(-5.70913e-22 -2.11097e-22 0.000231657)
(-3.41182e-20 5.84062e-19 0.000202694)
(-1.64228e-20 3.01413e-19 0.000174338)
(-3.74523e-22 9.46705e-21 0.000146)
(-1.66078e-19 2.38056e-18 0.000349975)
(-1.58042e-19 2.39735e-18 0.000254827)
(-5.21739e-22 2.10917e-21 0.000231495)
(3.3317e-20 -5.65704e-19 0.000207125)
(6.48446e-20 -1.18674e-18 0.000181876)
(2.90628e-20 -5.75655e-19 0.000156035)
(-2.94731e-21 6.31869e-20 0.000129789)
(7.97389e-20 -1.19435e-18 0.000303218)
(3.71137e-20 -5.76502e-19 0.000225109)
(5.45283e-23 -1.35308e-21 0.00020567)
(-6.42975e-20 1.15066e-18 0.000184743)
(-2.86791e-20 5.66586e-19 0.000162401)
(-1.41563e-20 3.01475e-19 0.000139083)
(2.72132e-21 -6.3683e-20 0.000115164)
(1.7305e-21 -1.80602e-20 0.000261502)
(3.50026e-20 -5.70997e-19 0.000197932)
(-3.09234e-22 4.97381e-22 0.000181875)
(6.127e-20 -1.16667e-18 0.00016403)
(-1.38697e-20 2.71312e-19 0.000144431)
(-1.59891e-21 2.75274e-20 0.000123536)
(3.58555e-21 -8.17427e-20 0.000101833)
(1.22994e-21 -1.81478e-20 0.000224386)
(3.08773e-20 -5.47999e-19 0.000173188)
(3.05721e-20 -5.83544e-19 0.000160045)
(-5.79403e-20 1.1635e-18 0.000144925)
(1.45767e-20 -3.08219e-19 0.000127836)
(3.48585e-22 -9.47984e-21 0.000109234)
(-6.12619e-21 1.5451e-19 8.96453e-05)
(-3.24325e-20 5.84208e-19 0.000191462)
(-6.35707e-20 1.18439e-18 0.000150761)
(-2.91813e-20 5.65287e-19 0.000140131)
(5.46662e-20 -1.16046e-18 0.000127409)
(2.48852e-22 -6.80607e-22 0.000112586)
(-8.59751e-23 6.2721e-23 9.61109e-05)
(2.66384e-21 -7.27588e-20 7.85168e-05)
(6.33442e-20 -1.18175e-18 0.000162326)
(5.7714e-20 -1.14309e-18 0.000130491)
(2.78915e-20 -5.97702e-19 0.000122026)
(-2.60575e-20 5.79614e-19 0.000111413)
(-5.16656e-23 3.82652e-22 9.86245e-05)
(5.21231e-21 -1.35581e-19 8.41049e-05)
(-2.76117e-22 8.9532e-21 6.83831e-05)
(-2.91645e-20 5.611e-19 0.000136592)
(-1.8256e-21 1.93634e-20 0.000112195)
(-2.68487e-20 5.78401e-19 0.000105592)
(-1.25486e-20 2.8872e-19 9.68325e-05)
(1.34461e-22 3.04618e-23 8.58724e-05)
(-5.64817e-21 1.53929e-19 7.31394e-05)
(3.14946e-22 -8.93418e-21 5.91606e-05)
(2.79517e-20 -5.92741e-19 0.00011389)
(-2.71865e-20 5.76067e-19 9.56755e-05)
(-1.80278e-21 3.62648e-20 9.06675e-05)
(1.34347e-20 -3.24823e-19 8.35347e-05)
(-1.09172e-20 2.88024e-19 7.42146e-05)
(-5.80857e-21 1.62516e-19 6.31078e-05)
(1.4789e-24 8.70414e-23 5.07371e-05)
(-1.25467e-21 1.11686e-21 9.38584e-05)
(-2.47512e-20 5.72493e-19 8.07274e-05)
(7.11619e-22 -1.78798e-20 7.70713e-05)
(-6.53838e-22 1.81081e-20 7.13553e-05)
(1.12306e-20 -3.06637e-19 6.34983e-05)
(3.96706e-21 -1.17677e-19 5.38756e-05)
(2.77581e-22 -9.09262e-21 4.29939e-05)
(-5.10468e-22 -1.65303e-20 7.61493e-05)
(3.45446e-20 -8.20746e-19 6.71325e-05)
(4.95808e-23 -8.12182e-24 6.46036e-05)
(1.05492e-20 -2.86835e-19 6.01063e-05)
(7.85316e-22 -1.80469e-20 5.35466e-05)
(3.801e-22 -9.01696e-21 4.52763e-05)
(7.79357e-22 -2.71042e-20 3.57791e-05)
(-2.36359e-20 5.48395e-19 6.04203e-05)
(-2.32764e-20 5.86223e-19 5.46613e-05)
(-6.56014e-22 1.77789e-20 5.3048e-05)
(-1.8998e-20 5.37572e-19 4.95787e-05)
(-2.80967e-24 6.59976e-23 4.41545e-05)
(-3.00719e-21 9.90638e-20 3.71197e-05)
(-7.58248e-22 2.72155e-20 2.89062e-05)
(-1.02858e-20 2.63417e-19 4.63313e-05)
(1.02786e-20 -2.65725e-19 4.30639e-05)
(6.12252e-22 -1.77665e-20 4.21613e-05)
(9.72592e-21 -2.8659e-19 3.95495e-05)
(-4.51807e-21 1.43492e-19 3.51103e-05)
(1.82714e-21 -6.31535e-20 2.91842e-05)
(-2.63627e-22 8.99743e-21 2.21645e-05)
(1.03101e-20 -2.62495e-19 3.35306e-05)
(-9.3035e-21 2.64162e-19 3.20508e-05)
(4.16859e-21 -1.24121e-19 3.16474e-05)
(9.69819e-23 8.78423e-23 2.97251e-05)
(9.18392e-21 -3.0513e-19 2.61356e-05)
(-2.18039e-22 8.94802e-21 2.12147e-05)
(-2.21484e-22 9.02375e-21 1.53347e-05)
(5.76348e-22 -1.74145e-20 2.16179e-05)
(9.34714e-21 -2.63656e-19 2.12529e-05)
(-9.26721e-21 2.83321e-19 2.113e-05)
(5.27599e-22 -1.78646e-20 1.97422e-05)
(-4.19817e-21 1.4361e-19 1.69357e-05)
(2.07951e-22 -8.94234e-21 1.2992e-05)
(6.78741e-22 -2.7104e-20 8.25189e-06)
(-4.68298e-21 1.38297e-19 1.00385e-05)
(5.6329e-22 -1.75331e-20 1.01236e-05)
(6.64015e-21 -2.12048e-19 1.01202e-05)
(-3.04455e-23 -1.41854e-23 9.22131e-06)
(1.86436e-21 -7.16559e-20 7.22554e-06)
(-2.93741e-22 9.05204e-21 4.32455e-06)
(-3.76673e-24 8.00565e-25 8.06067e-07)
(5.27871e-21 -1.55047e-19 -2.20365e-06)
(1.57486e-21 -5.22128e-20 -2.188e-06)
(-2.15895e-21 7.05532e-20 -1.98028e-06)
(-4.80658e-22 1.77878e-20 -2.19526e-06)
(-5.09624e-22 1.80215e-20 -3.18235e-06)
(-4.69732e-22 1.80622e-20 -4.83473e-06)
(-2.05121e-22 9.04787e-21 -6.93729e-06)
(5.04654e-22 -1.71243e-20 -1.76137e-05)
(-2.6955e-21 8.68849e-20 -1.68866e-05)
(-4.84824e-22 1.75764e-20 -1.55894e-05)
(9.52654e-22 -3.55245e-20 -1.45954e-05)
(-1.38796e-21 5.37368e-20 -1.41516e-05)
(-2.31221e-22 9.01713e-21 -1.42285e-05)
(-2.03228e-22 9.02909e-21 -1.45732e-05)
(0 -0 1.46409e-06)
(0 -0 1.45791e-06)
(0 -0 1.42705e-06)
(0 -0 5.37402e-07)
(0 -0 -8.95598e-07)
(0 -0 -2.45019e-06)
(0 -0 -4.06058e-06)
(0 -0 -5.64188e-06)
(0 -0 -7.10387e-06)
(0 -0 -8.36483e-06)
(0 -0 -9.36346e-06)
(0 -0 -1.00652e-05)
(0 -0 -1.04622e-05)
(0 -0 -1.05701e-05)
(0 -0 -1.04219e-05)
(0 -0 -1.00622e-05)
(0 -0 -9.54117e-06)
(0 -0 -8.91033e-06)
(0 -0 -8.21879e-06)
(0 -0 -7.51071e-06)
(0 -0 -6.82332e-06)
(0 -0 -6.18592e-06)
(0 -0 -5.61985e-06)
(0 -0 -5.13933e-06)
(0 -0 -4.75474e-06)
(0 -0 -4.48228e-06)
(0 -0 -4.37462e-06)
(0 -0 -4.63256e-06)
(0 -0 -6.01274e-06)
(0 -0 -1.13472e-05)
(0 -0 -3.12601e-05)
(0 -0 -0.000105847)
(0 -0 -0.000387481)
(0 1.51348e-23 -0.00155441)
(0 -0 1.63242e-06)
(0 -0 1.66783e-06)
(0 -0 1.82038e-06)
(0 -0 9.75849e-07)
(0 -0 -3.95688e-07)
(0 -0 -1.87448e-06)
(0 -0 -3.40647e-06)
(0 -0 -4.91331e-06)
(0 -0 -6.30836e-06)
(0 -0 -7.51203e-06)
(0 -0 -8.46408e-06)
(0 -0 -9.13015e-06)
(0 -0 -9.50252e-06)
(0 -0 -9.59613e-06)
(0 -0 -9.44289e-06)
(0 -0 -9.08575e-06)
(0 -0 -8.57331e-06)
(0 -0 -7.95534e-06)
(0 -0 -7.27933e-06)
(0 -0 -6.58771e-06)
(0 -0 -5.91602e-06)
(0 -0 -5.29239e-06)
(0 -0 -4.73738e-06)
(0 -0 -4.26455e-06)
(0 -0 -3.8836e-06)
(0 -0 -3.60894e-06)
(0 -0 -3.4873e-06)
(0 -0 -3.69662e-06)
(0 -0 -4.90862e-06)
(0 -0 -9.63547e-06)
(0 -0 -2.72825e-05)
(0 -0 -9.32547e-05)
(0 -0 -0.000341551)
(0 7.42253e-22 -0.0013632)
(0 -0 2.0546e-06)
(0 -0 2.22743e-06)
(0 -0 2.37865e-06)
(0 -0 1.55143e-06)
(0 -0 2.20168e-07)
(0 -0 -1.20238e-06)
(0 -0 -2.67142e-06)
(0 -0 -4.11525e-06)
(0 -0 -5.45174e-06)
(0 -0 -6.60416e-06)
(0 -0 -7.51423e-06)
(0 -0 -8.14837e-06)
(0 -0 -8.49913e-06)
(0 -0 -8.58097e-06)
(0 -0 -8.42496e-06)
(0 -0 -8.07278e-06)
(0 -0 -7.57137e-06)
(0 -0 -6.96869e-06)
(0 -0 -6.31031e-06)
(0 -0 -5.63692e-06)
(0 -0 -4.98271e-06)
(0 -0 -4.37455e-06)
(0 -0 -3.83192e-06)
(0 -0 -3.3677e-06)
(0 -0 -2.99106e-06)
(0 -0 -2.71467e-06)
(0 -0 -2.58003e-06)
(0 -0 -2.74484e-06)
(0 -0 -3.80454e-06)
(0 -0 -7.98405e-06)
(0 -0 -2.35958e-05)
(0 -0 -8.1846e-05)
(0 -0 -0.000300462)
(0 -1.34972e-21 -0.00119307)
(0 -0 2.51911e-06)
(0 -0 2.74731e-06)
(0 -0 2.94641e-06)
(0 -0 2.16296e-06)
(0 -0 8.79738e-07)
(0 -0 -4.88426e-07)
(0 -0 -1.89985e-06)
(0 -0 -3.2866e-06)
(0 -0 -4.56989e-06)
(0 -0 -5.67571e-06)
(0 -0 -6.54745e-06)
(0 -0 -7.15305e-06)
(0 -0 -7.48531e-06)
(0 -0 -7.55853e-06)
(0 -0 -7.40312e-06)
(0 -0 -7.05948e-06)
(0 -0 -6.57297e-06)
(0 -0 -5.98973e-06)
(0 -0 -5.35344e-06)
(0 -0 -4.70302e-06)
(0 -0 -4.07108e-06)
(0 -0 -3.48318e-06)
(0 -0 -2.95774e-06)
(0 -0 -2.50697e-06)
(0 -0 -2.13923e-06)
(0 -0 -1.86593e-06)
(0 -0 -1.72353e-06)
(0 -0 -1.85161e-06)
(0 -0 -2.77706e-06)
(0 -0 -6.46628e-06)
(0 -0 -2.02501e-05)
(0 -0 -7.15734e-05)
(0 -0 -0.000263629)
(0 6.3319e-22 -0.00104179)
(0 -0 2.93353e-06)
(0 -0 3.23382e-06)
(0 -0 3.50121e-06)
(0 -0 2.77987e-06)
(0 -0 1.55672e-06)
(0 -0 2.49055e-07)
(0 -0 -1.1025e-06)
(0 -0 -2.43203e-06)
(0 -0 -3.66292e-06)
(0 -0 -4.72337e-06)
(0 -0 -5.55844e-06)
(0 -0 -6.13724e-06)
(0 -0 -6.45306e-06)
(0 -0 -6.52024e-06)
(0 -0 -6.36841e-06)
(0 -0 -6.03676e-06)
(0 -0 -5.56905e-06)
(0 -0 -5.00955e-06)
(0 -0 -4.40003e-06)
(0 -0 -3.77754e-06)
(0 -0 -3.17301e-06)
(0 -0 -2.61057e-06)
(0 -0 -2.10755e-06)
(0 -0 -1.67544e-06)
(0 -0 -1.32175e-06)
(0 -0 -1.0566e-06)
(0 -0 -9.12013e-07)
(0 -0 -1.0111e-06)
(0 -0 -1.81893e-06)
(0 -0 -5.06887e-06)
(0 -0 -1.72088e-05)
(0 -0 -6.23094e-05)
(0 -0 -0.000230572)
(0 9.01889e-24 -0.000907031)
(0 -0 3.34305e-06)
(0 -0 3.71502e-06)
(0 -0 4.05741e-06)
(0 -0 3.40884e-06)
(0 -0 2.25624e-06)
(0 -0 1.01759e-06)
(0 -0 -2.67749e-07)
(0 -0 -1.53551e-06)
(0 -0 -2.71098e-06)
(0 -0 -3.724e-06)
(0 -0 -4.52142e-06)
(0 -0 -5.07318e-06)
(0 -0 -5.3732e-06)
(0 -0 -5.43568e-06)
(0 -0 -5.28945e-06)
(0 -0 -4.97244e-06)
(0 -0 -4.52672e-06)
(0 -0 -3.99463e-06)
(0 -0 -3.4159e-06)
(0 -0 -2.82559e-06)
(0 -0 -2.25288e-06)
(0 -0 -1.7204e-06)
(0 -0 -1.24432e-06)
(0 -0 -8.35176e-07)
(0 -0 -4.99893e-07)
(0 -0 -2.47105e-07)
(0 -0 -1.04896e-07)
(0 -0 -1.81467e-07)
(0 -0 -8.86006e-07)
(0 -0 -3.74149e-06)
(0 -0 -1.44005e-05)
(0 -0 -5.39041e-05)
(0 -0 -0.000200833)
(0 7.72678e-24 -0.000786865)
(0 -0 3.76166e-06)
(0 -0 4.20706e-06)
(0 -0 4.62925e-06)
(0 -0 4.06153e-06)
(0 -0 2.98898e-06)
(0 -0 1.82859e-06)
(0 -0 6.17866e-07)
(0 -0 -5.80921e-07)
(0 -0 -1.69515e-06)
(0 -0 -2.65638e-06)
(0 -0 -3.41296e-06)
(0 -0 -3.93583e-06)
(0 -0 -4.21937e-06)
(0 -0 -4.27745e-06)
(0 -0 -4.13804e-06)
(0 -0 -3.8377e-06)
(0 -0 -3.41664e-06)
(0 -0 -2.91511e-06)
(0 -0 -2.37068e-06)
(0 -0 -1.81635e-06)
(0 -0 -1.27938e-06)
(0 -0 -7.80775e-07)
(0 -0 -3.35545e-07)
(0 -0 4.68284e-08)
(0 -0 3.60186e-07)
(0 -0 5.97034e-07)
(0 -0 7.33063e-07)
(0 -0 6.73553e-07)
(0 -0 5.98689e-08)
(0 -0 -2.44084e-06)
(0 -0 -1.17641e-05)
(0 -0 -4.62277e-05)
(0 -0 -0.000174009)
(0 -1.59567e-22 -0.000679587)
(0 -0 4.18409e-06)
(0 -0 4.70921e-06)
(0 -0 5.21837e-06)
(0 -0 4.74072e-06)
(0 -0 3.75866e-06)
(0 -0 2.68711e-06)
(0 -0 1.56106e-06)
(0 -0 4.40325e-07)
(0 -0 -6.04706e-07)
(0 -0 -1.50784e-06)
(0 -0 -2.21873e-06)
(0 -0 -2.70948e-06)
(0 -0 -2.97467e-06)
(0 -0 -3.02776e-06)
(0 -0 -2.89575e-06)
(0 -0 -2.61359e-06)
(0 -0 -2.21944e-06)
(0 -0 -1.75133e-06)
(0 -0 -1.24447e-06)
(0 -0 -7.29621e-07)
(0 -0 -2.32002e-07)
(0 -0 2.29072e-07)
(0 -0 6.39964e-07)
(0 -0 9.92076e-07)
(0 -0 1.28029e-06)
(0 -0 1.49812e-06)
(0 -0 1.62462e-06)
(0 -0 1.57731e-06)
(0 -0 1.04341e-06)
(0 -0 -1.13802e-06)
(0 -0 -9.2553e-06)
(0 -0 -3.91763e-05)
(0 -0 -0.000149756)
(0 2.90126e-22 -0.000583708)
(0 -0 4.58527e-06)
(0 -0 5.20119e-06)
(0 -0 5.80834e-06)
(0 -0 5.43293e-06)
(0 -0 4.55412e-06)
(0 -0 3.58409e-06)
(0 -0 2.55488e-06)
(0 -0 1.52328e-06)
(0 -0 5.57136e-07)
(0 -0 -2.7973e-07)
(0 -0 -9.38638e-07)
(0 -0 -1.39267e-06)
(0 -0 -1.63656e-06)
(0 -0 -1.6833e-06)
(0 -0 -1.55869e-06)
(0 -0 -1.2958e-06)
(0 -0 -9.30576e-07)
(0 -0 -4.98555e-07)
(0 -0 -3.24205e-08)
(0 -0 4.39527e-07)
(0 -0 8.94248e-07)
(0 -0 1.3142e-06)
(0 -0 1.6873e-06)
(0 -0 2.00596e-06)
(0 -0 2.26581e-06)
(0 -0 2.46164e-06)
(0 -0 2.57543e-06)
(0 -0 2.53574e-06)
(0 -0 2.07147e-06)
(0 -0 1.77237e-07)
(0 -0 -6.85069e-06)
(0 -0 -3.26745e-05)
(0 -0 -0.000127789)
(0 -1.21009e-22 -0.000497943)
(0 -0 4.91984e-06)
(0 -0 5.64204e-06)
(0 -0 6.36232e-06)
(0 -0 6.10494e-06)
(0 -0 5.34527e-06)
(0 -0 4.49211e-06)
(0 -0 3.5742e-06)
(0 -0 2.6451e-06)
(0 -0 1.7694e-06)
(0 -0 1.00868e-06)
(0 -0 4.0957e-07)
(0 -0 -1.87008e-09)
(0 -0 -2.20575e-07)
(0 -0 -2.58924e-07)
(0 -0 -1.41179e-07)
(0 -0 1.01651e-07)
(0 -0 4.36068e-07)
(0 -0 8.29328e-07)
(0 -0 1.25153e-06)
(0 -0 1.67704e-06)
(0 -0 2.0852e-06)
(0 -0 2.4604e-06)
(0 -0 2.79206e-06)
(0 -0 3.07393e-06)
(0 -0 3.30228e-06)
(0 -0 3.47299e-06)
(0 -0 3.57086e-06)
(0 -0 3.53438e-06)
(0 -0 3.13012e-06)
(0 -0 1.49377e-06)
(0 -0 -4.55014e-06)
(0 -0 -2.66766e-05)
(0 -0 -0.000107877)
(0 6.78054e-23 -0.000421181)
(0 -0 5.12363e-06)
(0 -0 5.97141e-06)
(0 -0 6.82375e-06)
(0 -0 6.70372e-06)
(0 -0 6.0823e-06)
(0 -0 5.36427e-06)
(0 -0 4.57466e-06)
(0 -0 3.76353e-06)
(0 -0 2.992e-06)
(0 -0 2.3189e-06)
(0 -0 1.78888e-06)
(0 -0 1.42702e-06)
(0 -0 1.23818e-06)
(0 -0 1.21092e-06)
(0 -0 1.3227e-06)
(0 -0 1.5448e-06)
(0 -0 1.84656e-06)
(0 -0 2.19827e-06)
(0 -0 2.57314e-06)
(0 -0 2.94844e-06)
(0 -0 3.30605e-06)
(0 -0 3.63259e-06)
(0 -0 3.91908e-06)
(0 -0 4.16044e-06)
(0 -0 4.35393e-06)
(0 -0 4.49628e-06)
(0 -0 4.5748e-06)
(0 -0 4.53711e-06)
(0 -0 4.1837e-06)
(0 -0 2.77819e-06)
(0 -0 -2.37714e-06)
(0 -0 -2.11658e-05)
(0 -0 -8.98413e-05)
(0 -2.76752e-23 -0.000352469)
(0 -0 5.11738e-06)
(0 -0 6.11333e-06)
(0 -0 7.11998e-06)
(0 -0 7.15972e-06)
(0 -0 6.69853e-06)
(0 -0 6.13653e-06)
(0 -0 5.49476e-06)
(0 -0 4.81912e-06)
(0 -0 4.16729e-06)
(0 -0 3.59482e-06)
(0 -0 3.14445e-06)
(0 -0 2.84004e-06)
(0 -0 2.68647e-06)
(0 -0 2.67343e-06)
(0 -0 2.7803e-06)
(0 -0 2.981e-06)
(0 -0 3.24807e-06)
(0 -0 3.55519e-06)
(0 -0 3.87898e-06)
(0 -0 4.19992e-06)
(0 -0 4.50265e-06)
(0 -0 4.77617e-06)
(0 -0 5.01339e-06)
(0 -0 5.21034e-06)
(0 -0 5.36529e-06)
(0 -0 5.47581e-06)
(0 -0 5.53137e-06)
(0 -0 5.48787e-06)
(0 -0 5.1766e-06)
(0 -0 3.97692e-06)
(0 -0 -3.76597e-07)
(0 -0 -1.61518e-05)
(0 -0 -7.35477e-05)
(0 -2.46395e-23 -0.000290994)
(0 -0 4.81323e-06)
(0 -0 5.98246e-06)
(0 -0 7.16819e-06)
(0 -0 7.39264e-06)
(0 -0 7.11607e-06)
(0 -0 6.73314e-06)
(0 -0 6.26064e-06)
(0 -0 5.7399e-06)
(0 -0 5.22464e-06)
(0 -0 4.76712e-06)
(0 -0 4.40782e-06)
(0 -0 4.16939e-06)
(0 -0 4.05696e-06)
(0 -0 4.06146e-06)
(0 -0 4.16444e-06)
(0 -0 4.34292e-06)
(0 -0 4.57298e-06)
(0 -0 4.83207e-06)
(0 -0 5.10058e-06)
(0 -0 5.36249e-06)
(0 -0 5.6056e-06)
(0 -0 5.82138e-06)
(0 -0 6.00472e-06)
(0 -0 6.15301e-06)
(0 -0 6.26546e-06)
(0 -0 6.34043e-06)
(0 -0 6.36934e-06)
(0 -0 6.31535e-06)
(0 -0 6.03779e-06)
(0 -0 5.02079e-06)
(0 -0 1.38975e-06)
(0 -0 -1.16656e-05)
(0 -0 -5.89018e-05)
(0 -9.52997e-24 -0.000236063)
(0 -0 4.12359e-06)
(0 -0 5.49272e-06)
(0 -0 6.88391e-06)
(0 -0 7.31961e-06)
(0 -0 7.25362e-06)
(0 -0 7.07438e-06)
(0 -0 6.79377e-06)
(0 -0 6.44848e-06)
(0 -0 6.08757e-06)
(0 -0 5.76002e-06)
(0 -0 5.50367e-06)
(0 -0 5.34017e-06)
(0 -0 5.27489e-06)
(0 -0 5.30018e-06)
(0 -0 5.40014e-06)
(0 -0 5.55529e-06)
(0 -0 5.74561e-06)
(0 -0 5.95275e-06)
(0 -0 6.16127e-06)
(0 -0 6.359e-06)
(0 -0 6.53718e-06)
(0 -0 6.69005e-06)
(0 -0 6.81457e-06)
(0 -0 6.90963e-06)
(0 -0 6.97529e-06)
(0 -0 7.01079e-06)
(0 -0 7.00922e-06)
(0 -0 6.94014e-06)
(0 -0 6.68811e-06)
(0 -0 5.8321e-06)
(0 -0 2.8506e-06)
(0 -0 -7.7523e-06)
(0 -0 -4.58404e-05)
(0 1.87762e-23 -0.000187092)
(0 -0 2.97142e-06)
(0 -0 4.56741e-06)
(0 -0 6.1911e-06)
(0 -0 6.86523e-06)
(0 -0 7.03628e-06)
(0 -0 7.08583e-06)
(0 -0 7.02026e-06)
(0 -0 6.8711e-06)
(0 -0 6.68266e-06)
(0 -0 6.50012e-06)
(0 -0 6.35868e-06)
(0 -0 6.27898e-06)
(0 -0 6.26667e-06)
(0 -0 6.31572e-06)
(0 -0 6.41326e-06)
(0 -0 6.54357e-06)
(0 -0 6.69096e-06)
(0 -0 6.84175e-06)
(0 -0 6.98512e-06)
(0 -0 7.11311e-06)
(0 -0 7.22061e-06)
(0 -0 7.30497e-06)
(0 -0 7.36537e-06)
(0 -0 7.40239e-06)
(0 -0 7.41686e-06)
(0 -0 7.4088e-06)
(0 -0 7.37279e-06)
(0 -0 7.2841e-06)
(0 -0 7.04979e-06)
(0 -0 6.33423e-06)
(0 -0 3.93417e-06)
(0 -0 -4.46299e-06)
(0 -0 -3.43245e-05)
(0 -1.79595e-23 -0.000143592)
(0 -0 1.3006e-06)
(0 -0 3.14983e-06)
(0 -0 5.03254e-06)
(0 -0 5.97181e-06)
(0 -0 6.40581e-06)
(0 -0 6.70841e-06)
(0 -0 6.88038e-06)
(0 -0 6.94736e-06)
(0 -0 6.9489e-06)
(0 -0 6.92585e-06)