/*--------------------------------*- C++ -*----------------------------------*\
| =========                 |                                                 |
| \\      /  F ield         | OpenFOAM: The Open Source CFD Toolbox           |
|  \\    /   O peration     | Version:  2412                                  |
|   \\  /    A nd           | Website:  www.openfoam.com                      |
|    \\/     M anipulation  |                                                 |
\*---------------------------------------------------------------------------*/
FoamFile
{
    version     2.0;
    format      ascii;
    arch        "LSB;label=32;scalar=64";
    class       volVectorField;
    location    "3.5";
    object      U;
}
// * * * * * * * * * * * * * * * * * * * * * * * * * * * * * * * * * * * * * //

dimensions      [0 1 -1 0 0 0 0];

internalField   nonuniform List<vector> 
5285
(
(0.105285 0.00113535 0)
(0.105258 0.00127714 0)
(0.105218 0.00140971 0)
(0.105164 0.0015331 0)
(0.105096 0.00164719 0)
(0.105015 0.00175243 0)
(0.104923 0.00185023 0)
(0.104821 0.00194278 0)
(0.104714 0.00203255 0)
(0.104602 0.00212151 0)
(0.104487 0.00221074 0)
(0.10437 0.00230023 0)
(0.104251 0.00238914 0)
(0.10413 0.0024761 0)
(0.104009 0.00255964 0)
(0.103886 0.00263844 0)
(0.103762 0.00271147 0)
(0.103638 0.0027781 0)
(0.103513 0.00283794 0)
(0.103388 0.00289091 0)
(0.103263 0.00293704 0)
(0.103139 0.00297652 0)
(0.103016 0.00300956 0)
(0.102894 0.00303645 0)
(0.105458 0.00115372 0)
(0.105437 0.00130725 0)
(0.105402 0.001454 0)
(0.105351 0.00159288 0)
(0.105283 0.00172234 0)
(0.105199 0.00184143 0)
(0.105101 0.00195061 0)
(0.104992 0.00205178 0)
(0.104875 0.00214759 0)
(0.104752 0.00224058 0)
(0.104626 0.00233245 0)
(0.104497 0.00242376 0)
(0.104368 0.00251404 0)
(0.104237 0.00260215 0)
(0.104105 0.00268668 0)
(0.103973 0.00276629 0)
(0.10384 0.00283993 0)
(0.103707 0.00290687 0)
(0.103574 0.00296673 0)
(0.103441 0.00301938 0)
(0.103309 0.00306486 0)
(0.103178 0.00310335 0)
(0.103049 0.0031351 0)
(0.102921 0.0031604 0)
(0.105638 0.00116643 0)
(0.105621 0.00133281 0)
(0.105588 0.0014955 0)
(0.105537 0.00165211 0)
(0.105468 0.00179939 0)
(0.10538 0.00193479 0)
(0.105277 0.00205762 0)
(0.10516 0.00216925 0)
(0.105034 0.00227245 0)
(0.104902 0.00237028 0)
(0.104765 0.00246515 0)
(0.104626 0.00255828 0)
(0.104485 0.0026497 0)
(0.104344 0.00273857 0)
(0.104202 0.00282362 0)
(0.10406 0.00290356 0)
(0.103918 0.00297732 0)
(0.103776 0.00304414 0)
(0.103635 0.0031036 0)
(0.103494 0.00315553 0)
(0.103355 0.00319997 0)
(0.103217 0.00323712 0)
(0.10308 0.00326722 0)
(0.102945 0.00329058 0)
(0.105826 0.00117737 0)
(0.105808 0.00135739 0)
(0.105773 0.00153708 0)
(0.10572 0.00171275 0)
(0.105648 0.0018794 0)
(0.105556 0.00203276 0)
(0.105447 0.00217085 0)
(0.105324 0.00229441 0)
(0.10519 0.00240619 0)
(0.105048 0.00250973 0)
(0.104902 0.00260813 0)
(0.104753 0.00270329 0)
(0.104602 0.00279581 0)
(0.104451 0.00288522 0)
(0.104299 0.00297049 0)
(0.104147 0.00305039 0)
(0.103996 0.00312387 0)
(0.103845 0.00319017 0)
(0.103695 0.00324881 0)
(0.103546 0.00329964 0)
(0.103398 0.00334267 0)
(0.103252 0.00337809 0)
(0.103109 0.00340616 0)
(0.102967 0.00342723 0)
(0.106021 0.00119074 0)
(0.105999 0.00138488 0)
(0.105959 0.001582 0)
(0.105901 0.00177718 0)
(0.105824 0.00196379 0)
(0.105727 0.00213588 0)
(0.105612 0.00229015 0)
(0.105482 0.00242661 0)
(0.10534 0.00254793 0)
(0.105191 0.00265799 0)
(0.105036 0.00276052 0)
(0.104877 0.0028581 0)
(0.104717 0.0029519 0)
(0.104555 0.00304186 0)
(0.104394 0.0031272 0)
(0.104232 0.00320683 0)
(0.104071 0.00327974 0)
(0.103911 0.00334517 0)
(0.103752 0.00340265 0)
(0.103594 0.00345199 0)
(0.103439 0.00349323 0)
(0.103285 0.00352653 0)
(0.103134 0.0035522 0)
(0.102986 0.00357058 0)
(0.106226 0.00121025 0)
(0.106196 0.00141879 0)
(0.106148 0.0016333 0)
(0.106083 0.00184779 0)
(0.105998 0.00205419 0)
(0.105894 0.00224502 0)
(0.105773 0.00241574 0)
(0.105636 0.00256562 0)
(0.105488 0.00269712 0)
(0.10533 0.00281441 0)
(0.105167 0.00292171 0)
(0.104999 0.00302222 0)
(0.10483 0.00311762 0)
(0.104659 0.0032083 0)
(0.104487 0.00329371 0)
(0.104316 0.00337296 0)
(0.104145 0.00344509 0)
(0.103975 0.00350938 0)
(0.103807 0.00356537 0)
(0.103641 0.00361288 0)
(0.103476 0.00365194 0)
(0.103315 0.00368274 0)
(0.103156 0.00370559 0)
(0.103 0.00372087 0)
(0.106441 0.00123868 0)
(0.106401 0.00146184 0)
(0.106343 0.00169346 0)
(0.106269 0.00192668 0)
(0.106175 0.00215223 0)
(0.106064 0.00236131 0)
(0.105934 0.00254828 0)
(0.10579 0.00271169 0)
(0.105634 0.00285377 0)
(0.105469 0.00297883 0)
(0.105297 0.00309149 0)
(0.105121 0.00319545 0)
(0.104941 0.00329288 0)
(0.10476 0.00338452 0)
(0.104579 0.00347013 0)
(0.104397 0.00354896 0)
(0.104217 0.00362017 0)
(0.104037 0.00368309 0)
(0.103859 0.00373729 0)
(0.103684 0.00378261 0)
(0.103511 0.00381911 0)
(0.103341 0.003847 0)
(0.103174 0.00386662 0)
(0.103011 0.00387836 0)
(0.10667 0.00127776 0)
(0.106618 0.00151585 0)
(0.106548 0.00176428 0)
(0.106463 0.00201556 0)
(0.106359 0.00225944 0)
(0.106238 0.00248604 0)
(0.1061 0.00268879 0)
(0.105948 0.00286561 0)
(0.105783 0.00301844 0)
(0.105609 0.00315165 0)
(0.105428 0.00327017 0)
(0.105242 0.00337807 0)
(0.105053 0.00347792 0)
(0.104862 0.00357081 0)
(0.10467 0.00365674 0)
(0.104478 0.00373515 0)
(0.104287 0.00380532 0)
(0.104097 0.00386665 0)
(0.103909 0.00391877 0)
(0.103724 0.00396156 0)
(0.103542 0.00399509 0)
(0.103363 0.00401964 0)
(0.103188 0.00403557 0)
(0.103017 0.00404332 0)
(0.106912 0.0013284 0)
(0.106849 0.00158188 0)
(0.106766 0.00184697 0)
(0.106668 0.00211573 0)
(0.106553 0.00237718 0)
(0.106421 0.00262058 0)
(0.106273 0.00283858 0)
(0.106111 0.00302854 0)
(0.105937 0.00319215 0)
(0.105753 0.00333376 0)
(0.105562 0.00345849 0)
(0.105365 0.00357071 0)
(0.105165 0.00367332 0)
(0.104963 0.00376769 0)
(0.10476 0.00385406 0)
(0.104557 0.00393204 0)
(0.104355 0.00400103 0)
(0.104155 0.00406054 0)
(0.103957 0.00411026 0)
(0.103761 0.00415012 0)
(0.103569 0.00418027 0)
(0.103381 0.00420101 0)
(0.103198 0.00421276 0)
(0.103018 0.004216 0)
(0.10717 0.00139101 0)
(0.107094 0.0016605 0)
(0.106998 0.00194234 0)
(0.106887 0.00222825 0)
(0.106759 0.0025067 0)
(0.106615 0.00276631 0)
(0.106455 0.00299908 0)
(0.106282 0.00320193 0)
(0.106096 0.00337625 0)
(0.105902 0.00352639 0)
(0.105699 0.00365757 0)
(0.105491 0.00377438 0)
(0.10528 0.00387997 0)
(0.105066 0.00397596 0)
(0.104851 0.0040628 0)
(0.104636 0.00414027 0)
(0.104422 0.0042079 0)
(0.10421 0.0042653 0)
(0.104001 0.00431225 0)
(0.103795 0.00434876 0)
(0.103593 0.00437505 0)
(0.103395 0.00439147 0)
(0.103203 0.0043985 0)
(0.103015 0.00439669 0)
(0.107444 0.00146573 0)
(0.107355 0.00175209 0)
(0.107245 0.00205101 0)
(0.10712 0.00235402 0)
(0.106979 0.0026492 0)
(0.106822 0.00292463 0)
(0.106649 0.00317185 0)
(0.106462 0.00338735 0)
(0.106264 0.00357233 0)
(0.106056 0.00373103 0)
(0.105841 0.00386877 0)
(0.10562 0.00399031 0)
(0.105396 0.00409898 0)
(0.105169 0.00419662 0)
(0.104941 0.00428386 0)
(0.104713 0.00436064 0)
(0.104487 0.00442665 0)
(0.104263 0.00448159 0)
(0.104042 0.00452534 0)
(0.103825 0.00455801 0)
(0.103612 0.00457989 0)
(0.103405 0.00459142 0)
(0.103203 0.00459314 0)
(0.103006 0.00458568 0)
(0.107736 0.00155273 0)
(0.107634 0.00185701 0)
(0.107509 0.00217362 0)
(0.10737 0.00249397 0)
(0.107214 0.00280585 0)
(0.107042 0.00309698 0)
(0.106854 0.00335847 0)
(0.106653 0.00358651 0)
(0.10644 0.00378206 0)
(0.106218 0.00394932 0)
(0.105988 0.00409364 0)
(0.105753 0.00421991 0)
(0.105514 0.00433163 0)
(0.105273 0.00443082 0)
(0.105031 0.00451827 0)
(0.104789 0.00459409 0)
(0.10455 0.0046581 0)
(0.104313 0.00471012 0)
(0.10408 0.00475016 0)
(0.103851 0.00477842 0)
(0.103627 0.00479528 0)
(0.103409 0.00480128 0)
(0.103197 0.00479704 0)
(0.102991 0.00478325 0)
(0.108047 0.00165232 0)
(0.107932 0.00197577 0)
(0.107792 0.00231092 0)
(0.107637 0.00264911 0)
(0.107465 0.00297796 0)
(0.107276 0.00328488 0)
(0.107072 0.00356064 0)
(0.106855 0.00380116 0)
(0.106626 0.00400724 0)
(0.106387 0.00418301 0)
(0.106141 0.00433384 0)
(0.105889 0.00446473 0)
(0.105634 0.00457934 0)
(0.105377 0.00467983 0)
(0.10512 0.00476718 0)
(0.104864 0.00484164 0)
(0.10461 0.00490316 0)
(0.104359 0.00495172 0)
(0.104113 0.00498743 0)
(0.103871 0.00501061 0)
(0.103636 0.00502175 0)
(0.103407 0.00502149 0)
(0.103185 0.00501054 0)
(0.10297 0.00498969 0)
(0.108379 0.00176501 0)
(0.10825 0.0021091 0)
(0.108093 0.00246386 0)
(0.107921 0.00282065 0)
(0.107732 0.00316695 0)
(0.107526 0.00348993 0)
(0.107303 0.00378011 0)
(0.107067 0.00403316 0)
(0.10682 0.00424975 0)
(0.106563 0.00443393 0)
(0.106299 0.00459113 0)
(0.10603 0.00472643 0)
(0.105757 0.00484364 0)
(0.105483 0.00494507 0)
(0.105209 0.00503185 0)
(0.104936 0.00510441 0)
(0.104667 0.00516283 0)
(0.104401 0.00520724 0)
(0.104141 0.00523789 0)
(0.103886 0.00525522 0)
(0.103639 0.00525984 0)
(0.103398 0.0052525 0)
(0.103165 0.00523402 0)
(0.102941 0.00520528 0)
(0.108734 0.00189158 0)
(0.108589 0.00225797 0)
(0.108415 0.00263363 0)
(0.108225 0.00300999 0)
(0.108017 0.00337444 0)
(0.10779 0.00371394 0)
(0.107548 0.0040188 0)
(0.107292 0.00428449 0)
(0.107024 0.00451157 0)
(0.106746 0.00470404 0)
(0.106462 0.00486738 0)
(0.106173 0.00500677 0)
(0.105881 0.00512615 0)
(0.105588 0.005228 0)
(0.105296 0.00531363 0)
(0.105006 0.00538359 0)
(0.10472 0.00543817 0)
(0.104438 0.00547762 0)
(0.104163 0.00550234 0)
(0.103895 0.00551292 0)
(0.103634 0.00551011 0)
(0.103381 0.00549476 0)
(0.103138 0.00546783 0)
(0.102903 0.0054303 0)
(0.109113 0.00203308 0)
(0.108952 0.00242365 0)
(0.108758 0.00282173 0)
(0.108548 0.00321882 0)
(0.108319 0.00360228 0)
(0.108071 0.00395889 0)
(0.107806 0.00427878 0)
(0.107527 0.00455729 0)
(0.107237 0.00479483 0)
(0.106937 0.00499542 0)
(0.10663 0.00516459 0)
(0.106319 0.00530762 0)
(0.106006 0.00542862 0)
(0.105693 0.00553024 0)
(0.105381 0.00561394 0)
(0.105072 0.00568048 0)
(0.104768 0.0057303 0)
(0.10447 0.00576382 0)
(0.104179 0.00578161 0)
(0.103895 0.00578442 0)
(0.103621 0.00577312 0)
(0.103356 0.00574874 0)
(0.103101 0.00571233 0)
(0.102856 0.00566499 0)
(0.109519 0.00219084 0)
(0.10934 0.00260771 0)
(0.109125 0.00302993 0)
(0.108893 0.00344911 0)
(0.10864 0.00385259 0)
(0.108368 0.00422702 0)
(0.108079 0.00456238 0)
(0.107775 0.00485386 0)
(0.107459 0.00510184 0)
(0.107134 0.00531031 0)
(0.106803 0.00548489 0)
(0.106468 0.005631 0)
(0.106132 0.00575292 0)
(0.105796 0.00585347 0)
(0.105463 0.00593432 0)
(0.105133 0.00599642 0)
(0.10481 0.0060404 0)
(0.104494 0.00606687 0)
(0.104186 0.00607657 0)
(0.103888 0.00607042 0)
(0.103599 0.00604946 0)
(0.103321 0.00601487 0)
(0.103054 0.00596783 0)
(0.102799 0.00590957 0)
(0.109954 0.00236651 0)
(0.109755 0.00281205 0)
(0.109516 0.00326035 0)
(0.10926 0.00370314 0)
(0.108982 0.0041278 0)
(0.108683 0.00452086 0)
(0.108366 0.00487215 0)
(0.108034 0.00517679 0)
(0.107691 0.0054351 0)
(0.107338 0.00565113 0)
(0.10698 0.00583059 0)
(0.106619 0.00597907 0)
(0.106257 0.00610102 0)
(0.105897 0.00619949 0)
(0.10554 0.00627638 0)
(0.105189 0.00633284 0)
(0.104846 0.0063697 0)
(0.10451 0.0063878 0)
(0.104185 0.00638808 0)
(0.10387 0.00637163 0)
(0.103566 0.00633969 0)
(0.103275 0.00629358 0)
(0.102996 0.00623464 0)
(0.10273 0.00616424 0)
(0.105994 0.00657024 0)
(0.105613 0.00664182 0)
(0.105238 0.00669122 0)
(0.104873 0.0067195 0)
(0.104517 0.00672771 0)
(0.104173 0.00671704 0)
(0.103841 0.00668877 0)
(0.103522 0.00664435 0)
(0.103216 0.00658525 0)
(0.102925 0.00651301 0)
(0.102648 0.00642912 0)
(0.105325 -0.000115484 5.04442e-25)
(0.105328 9.58298e-05 4.11002e-25)
(0.105328 0.000299218 7.91117e-25)
(0.105325 0.00049086 -1.47384e-24)
(0.10532 0.000669174 1.27879e-24)
(0.105312 0.000834435 3.04073e-24)
(0.105302 0.000988053 -4.86198e-25)
(0.105452 -0.000121623 4.76466e-25)
(0.105457 9.40976e-05 7.59293e-25)
(0.10546 0.00030005 2.1786e-24)
(0.105462 0.000493089 7.07527e-25)
(0.105465 0.000672677 -1.18413e-24)
(0.105466 0.000840278 -1.56862e-24)
(0.105466 0.000998382 -2.87352e-24)
(0.105596 -0.000128688 -4.81134e-26)
(0.105603 9.01997e-05 1.49754e-25)
(0.10561 0.000297398 -2.99766e-24)
(0.105617 0.00049062 -1.06748e-25)
(0.105625 0.000670555 -3.42606e-24)
(0.105634 0.000839997 -4.09664e-25)
(0.10564 0.00100261 2.47869e-24)
(0.105762 -0.000137365 -3.86304e-25)
(0.105771 8.41848e-05 -4.67152e-25)
(0.105781 0.000292185 4.26265e-24)
(0.105791 0.000485315 -5.35002e-25)
(0.105803 0.000665549 5.88225e-24)
(0.105815 0.000837034 -3.19664e-24)
(0.105825 0.00100457 -2.13936e-25)
(0.105948 -0.00014831 -3.42783e-25)
(0.10596 7.62229e-05 3.42496e-25)
(0.105972 0.000285532 -8.43382e-24)
(0.105985 0.000479277 1.14161e-25)
(0.105999 0.000660671 -2.23186e-24)
(0.106011 0.000835114 3.30493e-24)
(0.106022 0.00100841 2.84967e-26)
(0.106154 -0.00016203 2.96871e-25)
(0.106169 6.65288e-05 1.69585e-25)
(0.106183 0.000278469 3.49187e-24)
(0.106198 0.000474364 -3.77654e-24)
(0.106211 0.000658542 -2.23522e-25)
(0.106222 0.00083747 4.38495e-26)
(0.106231 0.00101775 8.1012e-26)
(0.106378 -0.00017882 7.79456e-25)
(0.106396 5.53491e-05 6.13305e-25)
(0.106412 0.000271823 -1.2709e-25)
(0.106427 0.000471981 5.19778e-24)
(0.106439 0.000661085 1.14668e-25)
(0.106448 0.00084645 -2.09027e-24)
(0.106454 0.00103523 -7.29138e-24)
(0.106618 -0.000198766 -8.29138e-25)
(0.106639 4.29444e-05 -1.97065e-25)
(0.106657 0.000266201 -1.26099e-25)
(0.106672 0.000473049 -1.76519e-24)
(0.106682 0.000669494 1.21841e-25)
(0.106687 0.000863473 9.47003e-24)
(0.106689 0.00106246 7.66356e-24)
(0.106873 -0.000221805 -1.42814e-25)
(0.106897 2.95636e-05 -9.54314e-25)
(0.106916 0.000262003 -3.61869e-25)
(0.106931 0.000478086 -1.23903e-25)
(0.106939 0.000684372 1.23885e-25)
(0.106941 0.000889217 -7.90642e-24)
(0.106939 0.00110022 0)
(0.107142 -0.000247804 0)
(0.107169 1.54195e-05 1.26396e-24)
(0.10719 0.000259477 7.54926e-26)
(0.107204 0.000487332 4.45941e-24)
(0.10721 0.000705939 -6.40896e-25)
(0.107209 0.000923898 -1.68898e-23)
(0.107204 0.00114876 2.12797e-23)
(0.107426 -0.000276636 -2.41728e-26)
(0.107455 6.70815e-07 -7.38805e-25)
(0.107477 0.000258761 0)
(0.107491 0.000500878 -4.08584e-24)
(0.107496 0.000734228 -1.72624e-23)
(0.107493 0.000967519 -5.52701e-24)
(0.107484 0.00120812 -4.60069e-23)
(0.107725 -0.000308225 -4.07685e-26)
(0.107757 -1.45865e-05 5.63048e-25)
(0.107781 0.000259933 -1.53123e-25)
(0.107795 0.000518756 -1.47963e-25)
(0.107799 0.000769233 1.78141e-23)
(0.107793 0.00102006 4.77487e-23)
(0.107783 0.00127834 5.80361e-23)
(0.10804 -0.000342579 8.33792e-25)
(0.108076 -3.03189e-05 0)
(0.108101 0.000263035 0)
(0.108115 0.000541005 2.26206e-23)
(0.108119 0.000810995 -2.67944e-23)
(0.108111 0.00108162 -6.02626e-23)
(0.1081 0.0013596 -3.13742e-23)
(0.108374 -0.000379798 -2.44596e-24)
(0.108413 -4.65498e-05 1.83828e-25)
(0.10844 0.0002681 1.20538e-23)
(0.108455 0.000567708 -5.05629e-23)
(0.108458 0.000859659 2.78128e-23)
(0.10845 0.00115241 3.03236e-23)
(0.108438 0.00145228 1.18551e-24)
(0.108728 -0.000420072 1.68999e-24)
(0.10877 -6.33517e-05 -9.66727e-25)
(0.1088 0.000275163 -1.06315e-23)
(0.108816 0.000599007 6.20912e-23)
(0.10882 0.000915492 0)
(0.108811 0.00123286 4.35672e-23)
(0.108798 0.00155696 1.38576e-24)
(0.109105 -0.000463678 2.40269e-24)
(0.109151 -8.08386e-05 -5.33528e-25)
(0.109183 0.000284273 -3.34385e-23)
(0.109201 0.000635121 -7.30357e-23)
(0.109205 0.000978895 1.68427e-25)
(0.109196 0.00132358 5.73293e-23)
(0.109184 0.00167452 1.14831e-22)
(0.109506 -0.000510979 -2.30817e-24)
(0.109556 -9.9159e-05 1.67504e-23)
(0.109591 0.000295497 7.63348e-23)
(0.109612 0.000676344 3.90186e-23)
(0.109616 0.00105041 5.32948e-23)
(0.109607 0.00142539 -2.2447e-22)
(0.109596 0.00180605 -2.43795e-22)
(0.109934 -0.000562419 -5.3387e-25)
(0.109989 -0.000118493 -3.84004e-23)
(0.110028 0.000308929 -4.09423e-23)
(0.110051 0.000723063 -1.91604e-25)
(0.110057 0.00113074 -1.1261e-22)
(0.110048 0.00153931 1.16844e-22)
(0.110038 0.00195293 1.32921e-22)
(0.110392 -0.000618528 6.38215e-25)
(0.110453 -0.000139053 1.83372e-23)
(0.110496 0.000324697 1.49874e-24)
(0.110522 0.000775748 0)
(0.110529 0.00122072 6.31319e-23)
(0.110521 0.0016666 1.4787e-22)
(0.110513 0.00211686 2.35609e-24)
(0.110884 -0.000679935 -7.50737e-25)
(0.11095 -0.00016108 2.86648e-23)
(0.105083 -0.00139072 -1.79741e-24)
(0.105143 -0.00124675 -3.39714e-24)
(0.105196 -0.00109137 -1.2465e-25)
(0.105239 -0.000921922 -3.0458e-24)
(0.105274 -0.000737118 -1.28665e-24)
(0.1053 -0.000538183 -1.87796e-24)
(0.105316 -0.000329007 6.18249e-25)
(0.105221 -0.00145821 1.26532e-23)
(0.10528 -0.00130534 8.67431e-24)
(0.105331 -0.00114069 -6.23021e-24)
(0.105372 -0.00096159 1.40305e-24)
(0.105405 -0.000767064 -3.91495e-24)
(0.105428 -0.000558871 -1.12718e-24)
(0.105443 -0.000341561 -5.36043e-25)
(0.10537 -0.0015278 -1.44512e-23)
(0.105429 -0.00136507 -1.58793e-24)
(0.105478 -0.00119022 1.83804e-23)
(0.105518 -0.00100078 1.30746e-25)
(0.105549 -0.000796238 5.38152e-24)
(0.105572 -0.000578926 8.11926e-25)
(0.105587 -0.000354068 1.08364e-24)
(0.105529 -0.0016008 -1.66918e-24)
(0.105589 -0.00142737 2.68672e-23)
(0.105639 -0.00124156 -2.3564e-23)
(0.105679 -0.00104124 -1.27677e-24)
(0.105711 -0.000826354 -9.29497e-24)
(0.105734 -0.000599899 3.90198e-24)
(0.10575 -0.000367746 4.07081e-25)
(0.1057 -0.00167869 2.82599e-23)
(0.105762 -0.00149387 -2.6849e-23)
(0.105813 -0.00129652 1.28915e-23)
(0.105856 -0.00108484 -1.39314e-25)
(0.105889 -0.000859296 1.70448e-23)
(0.105915 -0.00062349 4.7113e-25)
(0.105933 -0.000383884 -1.38817e-24)
(0.105883 -0.00176295 -2.82783e-23)
(0.105948 -0.0015662 2.48966e-23)
(0.106002 -0.00135682 -1.27637e-24)
(0.106048 -0.00113337 1.88657e-23)
(0.106085 -0.000896771 -8.68761e-24)
(0.106113 -0.000651184 4.11027e-24)
(0.106136 -0.00040357 4.29939e-25)
(0.106078 -0.00185497 -5.13357e-23)
(0.106147 -0.00164578 -4.41601e-23)
(0.106205 -0.00142393 1.20563e-24)
(0.106255 -0.00118826 -3.84777e-23)
(0.106296 -0.000940098 1.46413e-25)
(0.106329 -0.000684076 -2.23669e-24)
(0.106356 -0.000427552 -1.69422e-24)
(0.106286 -0.00195593 6.00969e-25)
(0.106359 -0.0017338 6.74878e-23)
(0.106421 -0.00149896 -1.55507e-25)
(0.106476 -0.00125054 1.73356e-23)
(0.106522 -0.000990167 -9.78298e-25)
(0.106561 -0.000722846 -3.39486e-25)
(0.106592 -0.000456239 1.64574e-24)
(0.106506 -0.00206689 2.18301e-24)
(0.106585 -0.0018312 -4.2481e-23)
(0.106652 -0.00158278 -1.05048e-24)
(0.106712 -0.00132093 1.05076e-24)
(0.106763 -0.00104753 1.1498e-23)
(0.106807 -0.000767846 5.87531e-24)
(0.106843 -0.000489773 -2.9044e-25)
(0.10674 -0.00218881 4.46653e-23)
(0.106824 -0.00193883 -3.74174e-23)
(0.106896 -0.00167606 2.09735e-24)
(0.106961 -0.00139993 1.15844e-23)
(0.107018 -0.0011125 -1.20575e-23)
(0.107067 -0.000819229 -4.20797e-24)
(0.107108 -0.000528147 0)
(0.106987 -0.00232265 -4.25184e-23)
(0.107077 -0.00205747 3.95226e-24)
(0.107155 -0.0017794 -2.92318e-23)
(0.107226 -0.00148798 -1.33435e-23)
(0.107288 -0.00118535 0)
(0.107342 -0.000877078 -2.94376e-24)
(0.107388 -0.000571317 -1.83088e-25)
(0.107249 -0.00246939 7.89709e-23)
(0.107346 -0.00218794 6.81668e-23)
(0.107428 -0.00189346 2.84659e-23)
(0.107505 -0.00158553 -2.00626e-23)
(0.107573 -0.00126633 1.75726e-25)
(0.107633 -0.000941511 3.41871e-24)
(0.107683 -0.000619279 1.24347e-25)
(0.107526 -0.00263016 -3.88384e-23)
(0.107629 -0.00233117 -6.02198e-23)
(0.107718 -0.00201897 -2.368e-23)
(0.107801 -0.00169313 3.69182e-23)
(0.107875 -0.00135582 0)
(0.10794 -0.00101274 0)
(0.107995 -0.000672122 -1.32264e-25)
(0.10782 -0.00280621 -9.7479e-25)
(0.10793 -0.00248823 3.07491e-23)
(0.108024 -0.0021568 2.2635e-23)
(0.108114 -0.00181145 -2.97546e-23)
(0.108194 -0.00145431 2.91459e-24)
(0.108265 -0.0010911 4.83355e-27)
(0.108325 -0.000730049 8.26259e-25)
(0.10813 -0.002999 -8.73627e-25)
(0.108248 -0.00266037 2.30065e-23)
(0.108349 -0.00230799 0)
(0.108445 -0.00194134 2.16899e-23)
(0.108533 -0.00156247 -3.32008e-24)
(0.108609 -0.00117707 -3.44748e-26)
(0.108675 -0.000793388 -6.2194e-25)
(0.108459 -0.00321019 5.29006e-23)
(0.108586 -0.00284904 1.50113e-23)
(0.108694 -0.0024738 -2.10328e-25)
(0.108798 -0.00208384 -1.35697e-23)
(0.108892 -0.00168113 2.52474e-24)
(0.108975 -0.00127129 4.60592e-24)
(0.109046 -0.000862587 -2.10564e-24)
(0.108808 -0.0034417 -9.91926e-23)
(0.108944 -0.00305594 -6.44937e-23)
(0.10906 -0.00265568 0)
(0.109172 -0.00224019 4.40318e-24)
(0.109274 -0.00181128 -9.79001e-24)
(0.109365 -0.00137455 -1.19799e-23)
(0.109442 -0.000938222 2.1842e-24)
(0.109178 -0.00369576 4.51063e-23)
(0.109325 -0.00328303 2.89771e-23)
(0.10945 -0.00285535 -2.26816e-24)
(0.109571 -0.00241184 2.29995e-25)
(0.109682 -0.00195416 7.63086e-24)
(0.10978 -0.00148781 7.08558e-24)
(0.109864 -0.00102099 -3.21321e-25)
(0.109571 -0.00397492 -3.81483e-25)
(0.109731 -0.00353259 1.04284e-23)
(0.109865 -0.00307482 2.12341e-24)
(0.109996 -0.00260052 0)
(0.110117 -0.00211118 6.03096e-25)
(0.110223 -0.0016122 -1.01713e-24)
(0.110316 -0.00111174 4.15557e-25)
(0.110698 -0.00174906 5.1819e-25)
(0.110799 -0.00121145 -5.17148e-25)
(0.101402 -0.00286693 0)
(0.101487 -0.00289873 0)
(0.101575 -0.00292832 0)
(0.101667 -0.0029555 0)
(0.101762 -0.00298004 0)
(0.101859 -0.0030017 0)
(0.10196 -0.00302022 0)
(0.102064 -0.00303535 0)
(0.10217 -0.00304683 0)
(0.102279 -0.00305439 0)
(0.102391 -0.00305776 0)
(0.102505 -0.00305667 0)
(0.102622 -0.00305085 0)
(0.102741 -0.00304003 0)
(0.102862 -0.00302395 0)
(0.102984 -0.00300237 0)
(0.103107 -0.00297504 0)
(0.103232 -0.00294174 0)
(0.103357 -0.00290227 0)
(0.103483 -0.00285642 0)
(0.103608 -0.00280405 0)
(0.103733 -0.00274503 0)
(0.103857 -0.00267925 0)
(0.10398 -0.00260667 0)
(0.1041 -0.00252725 0)
(0.104219 -0.00244105 0)
(0.104334 -0.00234816 0)
(0.104446 -0.00224872 0)
(0.104554 -0.00214298 0)
(0.104657 -0.00203122 0)
(0.104755 -0.00191379 0)
(0.104848 -0.00179099 0)
(0.104934 -0.0016629 0)
(0.105013 -0.00152894 0)
(0.101371 -0.00295165 0)
(0.101458 -0.00298666 0)
(0.101549 -0.00301949 0)
(0.101643 -0.00304988 0)
(0.10174 -0.00307762 0)
(0.101841 -0.00310244 0)
(0.101945 -0.00312407 0)
(0.102052 -0.00314224 0)
(0.102162 -0.00315666 0)
(0.102276 -0.00316705 0)
(0.102392 -0.0031731 0)
(0.102511 -0.00317453 0)
(0.102632 -0.00317104 0)
(0.102756 -0.00316233 0)
(0.102883 -0.00314812 0)
(0.103011 -0.00312813 0)
(0.10314 -0.00310208 0)
(0.103271 -0.00306973 0)
(0.103403 -0.00303084 0)
(0.103535 -0.00298518 0)
(0.103667 -0.00293258 0)
(0.103799 -0.00287287 0)
(0.10393 -0.00280593 0)
(0.104059 -0.00273168 0)
(0.104187 -0.00265008 0)
(0.104312 -0.00256115 0)
(0.104435 -0.00246496 0)
(0.104553 -0.00236166 0)
(0.104667 -0.00225144 0)
(0.104776 -0.00213461 0)
(0.10488 -0.00201149 0)
(0.104977 -0.00188236 0)
(0.105068 -0.00174725 0)
(0.105151 -0.00160542 0)
(0.101336 -0.00303833 0)
(0.101425 -0.00307679 0)
(0.101518 -0.00311307 0)
(0.101615 -0.00314694 0)
(0.101715 -0.00317813 0)
(0.101819 -0.00320637 0)
(0.101926 -0.00323139 0)
(0.102037 -0.00325287 0)
(0.102151 -0.00327052 0)
(0.102269 -0.00328402 0)
(0.10239 -0.00329306 0)
(0.102514 -0.0032973 0)
(0.10264 -0.00329643 0)
(0.10277 -0.00329012 0)
(0.102902 -0.00327805 0)
(0.103036 -0.00325991 0)
(0.103172 -0.0032354 0)
(0.103309 -0.00320423 0)
(0.103447 -0.00316613 0)
(0.103587 -0.00312085 0)
(0.103726 -0.00306817 0)
(0.103865 -0.00300789 0)
(0.104004 -0.00293987 0)
(0.104141 -0.00286398 0)
(0.104276 -0.00278017 0)
(0.104409 -0.00268842 0)
(0.104539 -0.00258879 0)
(0.104665 -0.00248139 0)
(0.104786 -0.0023664 0)
(0.104902 -0.00224408 0)
(0.105012 -0.00211474 0)
(0.105115 -0.00197861 0)
(0.10521 -0.00183565 0)
(0.105297 -0.00168497 0)
(0.101297 -0.00312695 0)
(0.101388 -0.00316909 0)
(0.101484 -0.00320908 0)
(0.101583 -0.00324667 0)
(0.101686 -0.00328159 0)
(0.101793 -0.00331355 0)
(0.101903 -0.00334224 0)
(0.102018 -0.00336734 0)
(0.102136 -0.00338853 0)
(0.102258 -0.00340547 0)
(0.102384 -0.0034178 0)
(0.102513 -0.00342518 0)
(0.102645 -0.00342725 0)
(0.10278 -0.00342365 0)
(0.102918 -0.00341403 0)
(0.103058 -0.00339805 0)
(0.103201 -0.00337537 0)
(0.103345 -0.00334565 0)
(0.103491 -0.00330859 0)
(0.103638 -0.0032639 0)
(0.103785 -0.00321132 0)
(0.103932 -0.00315062 0)
(0.104079 -0.00308162 0)
(0.104224 -0.00300416 0)
(0.104368 -0.00291815 0)
(0.104509 -0.00282353 0)
(0.104646 -0.00272033 0)
(0.10478 -0.00260863 0)
(0.104909 -0.00248859 0)
(0.105033 -0.00236042 0)
(0.10515 -0.00222439 0)
(0.105259 -0.00208067 0)
(0.105361 -0.00192916 0)
(0.105454 -0.00176881 0)
(0.101253 -0.00321745 0)
(0.101347 -0.00326352 0)
(0.101444 -0.00330749 0)
(0.101546 -0.00334909 0)
(0.101652 -0.00338803 0)
(0.101762 -0.003424 0)
(0.101876 -0.00345669 0)
(0.101994 -0.00348574 0)
(0.102117 -0.0035108 0)
(0.102243 -0.00353152 0)
(0.102374 -0.0035475 0)
(0.102508 -0.00355836 0)
(0.102646 -0.00356373 0)
(0.102787 -0.0035632 0)
(0.102931 -0.00355638 0)
(0.103078 -0.00354289 0)
(0.103228 -0.00352235 0)
(0.103379 -0.00349439 0)
(0.103533 -0.00345865 0)
(0.103688 -0.00341481 0)
(0.103843 -0.00336256 0)
(0.103999 -0.00330164 0)
(0.104154 -0.0032318 0)
(0.104308 -0.00315286 0)
(0.104461 -0.00306469 0)
(0.104611 -0.00296718 0)
(0.104757 -0.00286033 0)
(0.1049 -0.00274419 0)
(0.105037 -0.00261885 0)
(0.105169 -0.00248452 0)
(0.105294 -0.00234139 0)
(0.105412 -0.0021896 0)
(0.10552 -0.00202898 0)
(0.105621 -0.0018583 0)
(0.101205 -0.00330977 0)
(0.1013 -0.00336004 0)
(0.1014 -0.00340827 0)
(0.101504 -0.00345417 0)
(0.101613 -0.00349744 0)
(0.101726 -0.00353776 0)
(0.101844 -0.00357477 0)
(0.101966 -0.00360813 0)
(0.102093 -0.00363743 0)
(0.102224 -0.00366229 0)
(0.102359 -0.00368231 0)
(0.102499 -0.00369705 0)
(0.102642 -0.0037061 0)
(0.102789 -0.00370902 0)
(0.10294 -0.00370539 0)
(0.103094 -0.00369478 0)
(0.103251 -0.00367675 0)
(0.103411 -0.00365089 0)
(0.103573 -0.00361681 0)
(0.103736 -0.00357412 0)
(0.1039 -0.00352247 0)
(0.104065 -0.00346155 0)
(0.10423 -0.00339106 0)
(0.104393 -0.00331078 0)
(0.104555 -0.00322052 0)
(0.104715 -0.00312015 0)
(0.104871 -0.00300961 0)
(0.105024 -0.0028889 0)
(0.105171 -0.00275809 0)
(0.105312 -0.00261733 0)
(0.105446 -0.00246677 0)
(0.105572 -0.00230652 0)
(0.105689 -0.00213634 0)
(0.105798 -0.00195482 0)
(0.101152 -0.00340385 0)
(0.101249 -0.00345859 0)
(0.101351 -0.00351137 0)
(0.101458 -0.00356188 0)
(0.101569 -0.00360981 0)
(0.101685 -0.00365482 0)
(0.101806 -0.00369654 0)
(0.101933 -0.00373457 0)
(0.102063 -0.00376851 0)
(0.102199 -0.00379793 0)
(0.10234 -0.00382239 0)
(0.102485 -0.00384143 0)
(0.102634 -0.0038546 0)
(0.102788 -0.00386141 0)
(0.102946 -0.00386139 0)
(0.103107 -0.00385407 0)
(0.103272 -0.00383896 0)
(0.10344 -0.00381561 0)
(0.10361 -0.00378356 0)
(0.103783 -0.00374237 0)
(0.103956 -0.00369164 0)
(0.104131 -0.003631 0)
(0.104306 -0.0035601 0)
(0.10448 -0.00347867 0)
(0.104652 -0.00338645 0)
(0.104822 -0.00328328 0)
(0.104989 -0.00316904 0)
(0.105152 -0.00304369 0)
(0.10531 -0.00290727 0)
(0.105462 -0.00275986 0)
(0.105606 -0.00260162 0)
(0.105742 -0.00243257 0)
(0.105868 -0.00225245 0)
(0.105987 -0.00205966 0)
(0.101094 -0.00349959 0)
(0.101193 -0.00355909 0)
(0.101297 -0.00361672 0)
(0.101406 -0.00367218 0)
(0.10152 -0.00372513 0)
(0.101639 -0.0037752 0)
(0.101764 -0.003822 0)
(0.101894 -0.00386512 0)
(0.102029 -0.00390411 0)
(0.10217 -0.00393853 0)
(0.102316 -0.00396789 0)
(0.102466 -0.0039917 0)
(0.102622 -0.00400945 0)
(0.102783 -0.00402062 0)
(0.102948 -0.0040247 0)
(0.103117 -0.00402114 0)
(0.10329 -0.00400942 0)
(0.103466 -0.00398903 0)
(0.103646 -0.00395943 0)
(0.103828 -0.00392015 0)
(0.104012 -0.00387071 0)
(0.104197 -0.00381068 0)
(0.104382 -0.00373966 0)
(0.104567 -0.0036573 0)
(0.104751 -0.00356331 0)
(0.104932 -0.00345744 0)
(0.105111 -0.00333955 0)
(0.105286 -0.00320954 0)
(0.105455 -0.0030674 0)
(0.105618 -0.00291319 0)
(0.105773 -0.00274701 0)
(0.10592 -0.0025689 0)
(0.106057 -0.0023785 0)
(0.106187 -0.00217404 0)
(0.101031 -0.00359688 0)
(0.101132 -0.00366144 0)
(0.101238 -0.00372426 0)
(0.101349 -0.00378501 0)
(0.101466 -0.00384333 0)
(0.101588 -0.00389886 0)
(0.101716 -0.00395116 0)
(0.10185 -0.0039998 0)
(0.10199 -0.00404431 0)
(0.102135 -0.0040842 0)
(0.102286 -0.00411894 0)
(0.102443 -0.00414802 0)
(0.102605 -0.00417087 0)
(0.102773 -0.00418694 0)
(0.102945 -0.00419563 0)
(0.103122 -0.00419637 0)
(0.103304 -0.00418856 0)
(0.10349 -0.00417163 0)
(0.103679 -0.00414499 0)
(0.103871 -0.00410808 0)
(0.104066 -0.00406036 0)
(0.104262 -0.00400134 0)
(0.104459 -0.00393054 0)
(0.104656 -0.00384755 0)
(0.104852 -0.00375201 0)
(0.105046 -0.00364361 0)
(0.105237 -0.00352216 0)
(0.105424 -0.00338749 0)
(0.105606 -0.00323957 0)
(0.105782 -0.00307841 0)
(0.10595 -0.0029041 0)
(0.106109 -0.00271663 0)
(0.106258 -0.00251563 0)
(0.1064 -0.00229907 0)
(0.100963 -0.00369559 0)
(0.101065 -0.00376553 0)
(0.101173 -0.00383386 0)
(0.101286 -0.00390026 0)
(0.101406 -0.00396436 0)
(0.101531 -0.00402575 0)
(0.101663 -0.004084 0)
(0.1018 -0.00413863 0)
(0.101944 -0.00418914 0)
(0.102095 -0.00423501 0)
(0.102251 -0.00427568 0)
(0.102414 -0.00431058 0)
(0.102583 -0.0043391 0)
(0.102757 -0.00436062 0)
(0.102938 -0.00437452 0)
(0.103123 -0.00438014 0)
(0.103314 -0.00437683 0)
(0.10351 -0.00436393 0)
(0.103709 -0.00434079 0)
(0.103912 -0.00430679 0)
(0.104118 -0.0042613 0)
(0.104326 -0.00420375 0)
(0.104535 -0.00413359 0)
(0.104745 -0.00405032 0)
(0.104954 -0.00395352 0)
(0.105162 -0.00384282 0)
(0.105367 -0.00371794 0)
(0.105568 -0.00357868 0)
(0.105764 -0.00342494 0)
(0.105953 -0.00325672 0)
(0.106135 -0.00307407 0)
(0.106307 -0.00287696 0)
(0.106469 -0.00266498 0)
(0.106625 -0.00243583 0)
(0.10089 -0.00379556 0)
(0.100993 -0.00387119 0)
(0.101102 -0.0039454 0)
(0.101218 -0.00401784 0)
(0.10134 -0.00408812 0)
(0.101468 -0.00415582 0)
(0.101603 -0.00422047 0)
(0.101745 -0.00428158 0)
(0.101893 -0.00433862 0)
(0.102048 -0.00439103 0)
(0.10221 -0.0044382 0)
(0.102379 -0.00447951 0)
(0.102555 -0.00451432 0)
(0.102737 -0.00454194 0)
(0.102925 -0.00456169 0)
(0.10312 -0.00457284 0)
(0.10332 -0.00457467 0)
(0.103525 -0.00456646 0)
(0.103736 -0.00454746 0)
(0.10395 -0.00451697 0)
(0.104168 -0.00447429 0)
(0.104389 -0.00441875 0)
(0.104612 -0.00434971 0)
(0.104835 -0.0042666 0)
(0.105059 -0.0041689 0)
(0.105281 -0.00405617 0)
(0.105501 -0.00392806 0)
(0.105717 -0.0037843 0)
(0.105928 -0.00362476 0)
(0.106132 -0.00344937 0)