/*--------------------------------*- C++ -*----------------------------------*\
| =========                 |                                                 |
| \\      /  F ield         | OpenFOAM: The Open Source CFD Toolbox           |
|  \\    /   O peration     | Version:  2412                                  |
|   \\  /    A nd           | Website:  www.openfoam.com                      |
|    \\/     M anipulation  |                                                 |
\*---------------------------------------------------------------------------*/
FoamFile
{
    version     2.0;
    format      ascii;
    arch        "LSB;label=32;scalar=64";
    class       surfaceScalarField;
    location    "6.5";
    object      phi;
}
// * * * * * * * * * * * * * * * * * * * * * * * * * * * * * * * * * * * * * //

dimensions      [0 3 -1 0 0 0 0];

oriented        oriented;

internalField   nonuniform List<scalar> 
10424
(
0.00533492
0.00014923
-0.00533797
-0.000146178
0.00533195
0.000149677
-0.000146708
0.00532907
0.000150021
-0.000147137
0.00532627
0.000150259
-0.000147464
0.00532357
0.000150391
-0.000147688
0.00532096
0.000150418
-0.000147809
0.00531844
0.000150339
-0.000147826
0.00531603
0.000150153
-0.000147738
0.00531371
0.00014986
-0.000147545
0.0053115
0.000149458
-0.000147243
0.00530939
0.000148945
-0.000146832
0.00530738
0.00014832
-0.000146311
0.00530547
0.000147583
-0.000145678
0.00530367
0.000146738
-0.000144938
0.00530198
0.000145789
-0.000144094
0.00530039
0.000144741
-0.000143151
0.0052989
0.000143599
-0.000142116
0.00529753
0.000142369
-0.00014099
0.00529625
0.000141053
-0.000139777
0.00529508
0.000139651
-0.000138476
0.005294
0.000138163
-0.000137086
0.00529302
0.000136586
-0.000135605
0.00529213
0.000134922
-0.000134032
0.00529133
0.000133168
-0.000132366
0.00529061
0.000131327
-0.000130608
0.00528997
0.0001294
-0.000128762
0.00528941
0.000127391
-0.000126829
0.00528892
0.000125303
-0.000124814
0.0052885
0.000123141
-0.00012272
0.00528814
0.000120908
-0.000120553
0.00528785
0.000118611
-0.000118316
0.00528761
0.000116253
-0.000116016
0.00528743
0.000113839
-0.000113657
0.0052873
0.000111375
-0.000111243
0.00528721
0.000108865
-0.00010878
0.00528717
0.000106314
-0.000106273
0.00528717
0.000103727
-0.000103726
0.00528721
0.000101109
-0.000101145
0.00528728
9.8464e-05
-9.85346e-05
0.00528738
9.57975e-05
-9.58991e-05
0.00528751
9.31139e-05
-9.32433e-05
0.00528766
9.04175e-05
-9.0572e-05
0.00528784
8.77128e-05
-8.78895e-05
8.50041e-05
-8.52003e-05
0.00533222
0.0001523
-0.00533529
0.00532924
0.000152659
0.00532635
0.000152911
0.00532356
0.000153054
0.00532086
0.00015309
0.00531826
0.000153018
0.00531576
0.000152837
0.00531336
0.000152549
0.00531107
0.000152152
0.00530888
0.000151644
0.0053068
0.000151025
0.00530483
0.000150293
0.00530297
0.000149449
0.00530121
0.000148496
0.00529956
0.000147438
0.00529802
0.000146281
0.00529659
0.000145031
0.00529526
0.000143694
0.00529404
0.000142273
0.00529292
0.000140769
0.00529191
0.00013918
0.00529099
0.000137508
0.00529016
0.000135751
0.00528942
0.000133909
0.00528876
0.000131983
0.00528818
0.000129975
0.00528769
0.00012789
0.00528726
0.000125729
0.0052869
0.000123498
0.00528661
0.000121201
0.00528638
0.000118842
0.0052862
0.000116427
0.00528608
0.00011396
0.00528601
0.000111446
0.00528598
0.00010889
0.005286
0.000106296
0.00528606
0.00010367
0.00528615
0.000101016
0.00528628
9.8339e-05
0.00528643
9.56431e-05
0.00528661
9.29331e-05
0.00528682
9.02132e-05
0.00528704
8.74879e-05
8.47611e-05
0.00532939
0.000155383
-0.00533247
0.0053264
0.000155647
0.00532351
0.000155802
0.00532072
0.000155846
0.00531803
0.000155779
0.00531544
0.000155603
0.00531296
0.000155317
0.00531059
0.000154921
0.00530833
0.000154415
0.00530617
0.000153798
0.00530413
0.000153068
0.0053022
0.000152226
0.00530038
0.00015127
0.00529867
0.000150205
0.00529707
0.000149035
0.00529558
0.000147767
0.00529421
0.000146407
0.00529294
0.000144962
0.00529178
0.000143434
0.00529072
0.000141825
0.00528977
0.000140136
0.00528891
0.000138367
0.00528814
0.000136516
0.00528747
0.000134585
0.00528688
0.000132574
0.00528637
0.000130486
0.00528593
0.000128323
0.00528557
0.00012609
0.00528528
0.000123791
0.00528505
0.000121429
0.00528488
0.00011901
0.00528477
0.000116538
0.00528471
0.000114019
0.0052847
0.000111456
0.00528474
0.000108855
0.00528482
0.00010622
0.00528493
0.000103556
0.00528508
0.000100867
0.00528526
9.81589e-05
0.00528547
9.54351e-05
0.0052857
9.27002e-05
0.00528596
8.99585e-05
0.00528623
8.72141e-05
8.4471e-05
0.00532639
0.000158472
-0.00532948
0.0053234
0.000158636
0.00532052
0.000158688
0.00531773
0.000158627
0.00531506
0.000158453
0.0053125
0.000158167
0.00531004
0.00015777
0.0053077
0.000157263
0.00530547
0.000156644
0.00530336
0.000155913
0.00530136
0.000155069
0.00529947
0.000154111
0.0052977
0.000153041
0.00529604
0.000151861
0.0052945
0.000150576
0.00529307
0.000149195
0.00529176
0.000147722
0.00529055
0.000146166
0.00528946
0.00014453
0.00528847
0.000142817
0.00528758
0.000141026
0.00528678
0.000139159
0.00528609
0.000137215
0.00528548
0.000135194
0.00528495
0.000133097
0.00528451
0.000130928
0.00528415
0.000128689
0.00528385
0.000126384
0.00528363
0.000124016
0.00528346
0.000121591
0.00528336
0.000119112
0.00528332
0.000116585
0.00528332
0.000114013
0.00528338
0.000111403
0.00528347
0.000108758
0.00528361
0.000106083
0.00528378
0.000103382
0.00528399
0.000100661
0.00528423
9.79228e-05
0.00528449
9.51726e-05
0.00528477
9.24145e-05
0.00528508
8.96526e-05
0.0052854
8.68909e-05
8.41332e-05
0.00532322
0.000161563
-0.00532631
0.00532024
0.000161621
0.00531736
0.000161564
0.0053146
0.000161391
0.00531194
0.000161105
0.00530941
0.000160705
0.00530698
0.000160192
0.00530468
0.000159568
0.00530249
0.000158832
0.00530042
0.000157983
0.00529847
0.000157021
0.00529664
0.000155945
0.00529492
0.000154756
0.00529332
0.000153458
0.00529184
0.000152056
0.00529048
0.000150558
0.00528923
0.000148971
0.0052881
0.000147303
0.00528707
0.000145558
0.00528615
0.000143739
0.00528532
0.000141846
0.0052846
0.000139881
0.00528398
0.000137842
0.00528344
0.000135732
0.00528298
0.00013355
0.00528261
0.0001313
0.00528232
0.000128985
0.00528209
0.000126607
0.00528194
0.000124172
0.00528184
0.000121684
0.00528181
0.000119146
0.00528183
0.000116564
0.0052819
0.000113942
0.00528202
0.000111285
0.00528218
0.000108598
0.00528238
0.000105884
0.00528261
0.000103148
0.00528288
0.000100396
0.00528317
9.76298e-05
0.00528349
9.4855e-05
0.00528383
9.20754e-05
0.00528418
8.9295e-05
0.00528456
8.65177e-05
8.37471e-05
0.00531986
0.000164649
-0.00532295
0.00531689
0.000164594
0.00531403
0.000164422
0.00531129
0.000164133
0.00530867
0.000163728
0.00530616
0.000163209
0.00530378
0.000162576
0.00530152
0.000161831
0.00529938
0.000160973
0.00529736
0.000160002
0.00529546
0.000158917
0.00529369
0.000157719
0.00529204
0.000156408
0.0052905
0.000154989
0.00528909
0.000153468
0.0052878
0.000151852
0.00528662
0.000150149
0.00528556
0.000148368
0.0052846
0.000146512
0.00528375
0.000144587
0.00528301
0.000142592
0.00528236
0.000140528
0.00528181
0.000138396
0.00528134
0.000136195
0.00528097
0.000133929
0.00528067
0.000131598
0.00528045
0.000129207
0.00528029
0.000126758
0.00528021
0.000124256
0.00528019
0.000121705
0.00528022
0.00011911
0.00528031
0.000116475
0.00528045
0.000113804
0.00528064
0.000111102
0.00528086
0.000108373
0.00528112
0.000105622
0.00528142
0.000102854
0.00528174
0.000100071
0.00528209
9.72789e-05
0.00528247
9.44812e-05
0.00528286
9.16819e-05
0.00528327
8.88849e-05
0.00528369
8.60938e-05
8.33122e-05
0.00531631
0.000167722
-0.00531938
0.00531336
0.000167548
0.00531052
0.000167255
0.00530781
0.000166844
0.00530522
0.000166316
0.00530276
0.000165672
0.00530042
0.000164914
0.00529821
0.000164043
0.00529612
0.000163059
0.00529416
0.000161962
0.00529233
0.000160752
0.00529062
0.000159428
0.00528904
0.000157992
0.00528758
0.000156449
0.00528624
0.000154806
0.00528502
0.000153069
0.00528392
0.00015125
0.00528294
0.000149354
0.00528206
0.000147388
0.00528129
0.000145356
0.00528062
0.000143258
0.00528006
0.000141096
0.00527958
0.00013887
0.0052792
0.00013658
0.0052789
0.000134229
0.00527868
0.000131819
0.00527853
0.000129352
0.00527846
0.000126833
0.00527845
0.000124266
0.0052785
0.000121654
0.00527861
0.000119002
0.00527877
0.000116315
0.00527897
0.000113596
0.00527923
0.00011085
0.00527952
0.000108082
0.00527984
0.000105296
0.0052802
0.000102496
0.00528059
9.96855e-05
0.005281
9.6869e-05
0.00528143
9.40504e-05
0.00528187
9.12333e-05
0.00528234
8.84216e-05
0.00528281
8.56187e-05
8.28279e-05
0.00531255
0.000170774
-0.0053156
0.00530962
0.000170475
0.00530682
0.000170056
0.00530415
0.000169517
0.00530161
0.00016886
0.00529919
0.000168086
0.00529691
0.000167198
0.00529475
0.000166197
0.00529273
0.000165083
0.00529084
0.000163856
0.00528907
0.000162517
0.00528743
0.000161064
0.00528593
0.000159501
0.00528454
0.000157831
0.00528329
0.000156063
0.00528215
0.000154205
0.00528113
0.000152267
0.00528023
0.000150256
0.00527944
0.000148179
0.00527876
0.00014604
0.00527817
0.00014384
0.00527769
0.00014158
0.0052773
0.00013926
0.005277
0.000136882
0.00527678
0.000134448
0.00527664
0.000131958
0.00527657
0.000129418
0.00527658
0.000126829
0.00527665
0.000124197
0.00527677
0.000121526
0.00527696
0.000118819
0.00527719
0.000116081
0.00527747
0.000113316
0.00527779
0.000110529
0.00527815
0.000107724
0.00527854
0.000104904
0.00527896
0.000102074
0.00527941
9.9238e-05
0.00527988
9.63992e-05
0.00528037
9.35616e-05
0.00528087
9.07288e-05
0.00528139
8.79043e-05
0.00528192
8.50916e-05
8.22937e-05
0.00530858
0.000173797
-0.0053116
0.00530569
0.000173367
0.00530293
0.000172815
0.0053003
0.000172142
0.00529781
0.000171351
0.00529546
0.000170443
0.00529323
0.00016942
0.00529115
0.000168285
0.00528919
0.000167037
0.00528737
0.000165677
0.00528568
0.000164204
0.00528413
0.00016262
0.0052827
0.000160926
0.00528141
0.000159128
0.00528024
0.000157234
0.00527919
0.000155253
0.00527826
0.000153195
0.00527745
0.000151069
0.00527675
0.00014888
0.00527615
0.000146634
0.00527566
0.000144332
0.00527526
0.000141975
0.00527496
0.000139563
0.00527475
0.000137097
0.00527462
0.00013458
0.00527456
0.000132013
0.00527458
0.000129399
0.00527467
0.000126743
0.00527482
0.000124048
0.00527502
0.000121319
0.00527528
0.000118559
0.00527559
0.000115772
0.00527594
0.000112963
0.00527634
0.000110137
0.00527677
0.000107296
0.00527723
0.000104445
0.00527771
0.000101587
0.00527822
9.87272e-05
0.00527875
9.58682e-05
0.0052793
9.30138e-05
0.00527986
9.01674e-05
0.00528043
8.73324e-05
0.00528101
8.45119e-05
8.17091e-05
0.00530439
0.000176781
-0.00530738
0.00530155
0.000176213
0.00529884
0.000175523
0.00529627
0.000174711
0.00529384
0.00017378
0.00529155
0.000172733
0.0052894
0.000171571
0.00528739
0.000170297
0.00528551
0.000168912
0.00528377
0.000167415
0.00528217
0.000165806
0.0052807
0.000164087
0.00527937
0.000162261
0.00527816
0.000160332
0.00527709
0.000158311
0.00527613
0.000156205
0.0052753
0.000154027
0.00527459
0.000151785
0.00527398
0.000149486
0.00527348
0.000147133
0.00527308
0.000144729
0.00527278
0.000142275
0.00527257
0.000139772
0.00527245
0.00013722
0.00527241
0.000134621
0.00527245
0.000131978
0.00527255
0.000129293
0.00527272
0.000126571
0.00527296
0.000123815
0.00527325
0.00012103
0.00527359
0.000118218
0.00527397
0.000115385
0.0052744
0.000112535
0.00527487
0.000109671
0.00527537
0.000106796
0.00527589
0.000103916
0.00527645
0.000101034
0.00527702
9.81521e-05
0.00527762
9.52752e-05
0.00527822
9.24063e-05
0.00527884
8.95485e-05
0.00527947
8.67051e-05
0.0052801
8.38791e-05
8.10734e-05
0.00529999
0.000179717
-0.00530292
0.0052972
0.000179005
0.00529455
0.00017817
0.00529205
0.000177213
0.00528969
0.000176138
0.00528747
0.000174947
0.0052854
0.000173642
0.00528348
0.000172225
0.00528169
0.000170699
0.00528004
0.000169062
0.00527853
0.000167315
0.00527716
0.000165459
0.00527593
0.000163497
0.00527482
0.000161437
0.00527385
0.000159286
0.00527299
0.000157056
0.00527226
0.000154757
0.00527165
0.000152399
0.00527115
0.000149989
0.00527075
0.00014753
0.00527045
0.000145026
0.00527025
0.000142477
0.00527014
0.000139883
0.00527011
0.000137246
0.00527017
0.000134568
0.0052703
0.00013185
0.00527049
0.000129096
0.00527075
0.00012631
0.00527107
0.000123495
0.00527145
0.000120656
0.00527187
0.000117796
0.00527234
0.000114918
0.00527284
0.000112028
0.00527338
0.000109129
0.00527396
0.000106224
0.00527456
0.000103317
0.00527518
0.000100412
0.00527582
9.75114e-05
0.00527647
9.4619e-05
0.00527714
9.1738e-05
0.00527782
8.88713e-05
0.0052785
8.60219e-05
0.00527919
8.31927e-05
8.03864e-05
0.00529536
0.000182593
-0.00529823
0.00529263
0.00018173
0.00529006
0.000180745
0.00528763
0.000179638
0.00528536
0.000178413
0.00528323
0.000177074
0.00528125
0.000175622
0.00527942
0.00017406
0.00527773
0.000172388
0.00527618
0.000170608
0.00527477
0.00016872
0.00527351
0.000166726
0.00527238
0.000164628
0.00527138
0.000162434
0.00527051
0.000160154
0.00526977
0.000157798
0.00526915
0.000155378
0.00526864
0.000152905
0.00526825
0.000150384
0.00526796
0.000147821
0.00526777
0.000145217
0.00526767
0.000142574
0.00526766
0.000139891
0.00526774
0.000137171
0.00526789
0.000134415
0.00526812
0.000131625
0.00526841
0.000128804
0.00526876
0.000125957
0.00526917
0.000123085
0.00526963
0.000120195
0.00527014
0.000117288
0.00527069
0.000114369
0.00527127
0.000111442
0.00527189
0.00010851
0.00527254
0.000105577
0.00527321
0.000102646
0.0052739
9.9721e-05
0.00527461
9.68041e-05
0.00527533
9.38989e-05
0.00527606
9.10082e-05
0.0052768
8.81351e-05
0.00527754
8.52821e-05
0.00527828
8.24521e-05
7.96476e-05
0.00529051
0.000185397
-0.00529331
0.00528786
0.000184378
0.00528537
0.000183237
0.00528303
0.000181975
0.00528085
0.000180596
0.00527882
0.000179104
0.00527694
0.000177501
0.00527521
0.000175789
0.00527362
0.000173971
0.00527219
0.000172045
0.00527089
0.000170014
0.00526974
0.000167879
0.00526872
0.000165644
0.00526784
0.000163316
0.00526709
0.000160905
0.00526647
0.000158424
0.00526596
0.000155883
0.00526557
0.000153295
0.00526529
0.000150665
0.00526511
0.000147998
0.00526503
0.000145296
0.00526505
0.000142561
0.00526515
0.000139792
0.00526533
0.000136991
0.00526558
0.000134159
0.00526591
0.000131299
0.0052663
0.000128414
0.00526675
0.000125507
0.00526725
0.000122582
0.0052678
0.000119643
0.0052684
0.000116693
0.00526903
0.000113735
0.0052697
0.000110774
0.0052704
0.000107813
0.00527112
0.000104855
0.00527186
0.000101903
0.00527262
9.89597e-05
0.0052734
9.60292e-05
0.00527418
9.31138e-05
0.00527498
9.02162e-05
0.00527577
8.73392e-05
0.00527657
8.44853e-05
0.00527736
8.1657e-05
7.88566e-05
0.00528542
0.000188116
-0.00528814
0.00528286
0.000186936
0.00528047
0.000185633
0.00527823
0.000184212
0.00527615
0.000182674
0.00527423
0.000181025
0.00527246
0.000179268
0.00527085
0.000177404
0.00526938
0.000175436
0.00526807
0.000173363
0.00526689
0.000171187
0.00526586
0.00016891
0.00526497
0.000166536
0.00526421
0.000164073
0.00526359
0.000161532
0.00526308
0.000158926
0.0052627
0.000156266
0.00526243
0.000153563
0.00526227
0.000150825
0.00526221
0.000148056
0.00526225
0.000145258
0.00526238
0.000142433
0.00526259
0.00013958
0.00526288
0.0001367
0.00526325
0.000133796
0.00526368
0.000130869
0.00526417
0.000127922
0.00526472
0.000124959
0.00526532
0.000121984
0.00526596
0.000118999
0.00526665
0.000116008
0.00526737
0.000113015
0.00526812
0.000110023
0.0052689
0.000107035
0.0052697
0.000104054
0.00527051
0.000101084
0.00527135
9.8127e-05
0.00527219
9.51857e-05
0.00527304
9.2263e-05
0.0052739
8.93613e-05
0.00527475
8.64832e-05
0.00527561
8.36309e-05
0.00527646
8.08069e-05
7.80132e-05
0.00528011
0.000190739
-0.00528273
0.00527765
0.00018939
0.00527536
0.000187921
0.00527324
0.000186335
0.00527128
0.000184636
0.00526948
0.000182827
0.00526783
0.000180912
0.00526634
0.000178893
0.00526501
0.000176773
0.00526382
0.000174551
0.00526278
0.000172229
0.00526188
0.000169809
0.00526112
0.000167296
0.00526049
0.000164699
0.00526
0.000162028
0.00525962
0.000159297
0.00525937
0.000156518
0.00525923
0.000153702
0.0052592
0.000150858
0.00525927
0.000147989
0.00525943
0.000145097
0.00525968
0.000142184
0.00526001
0.00013925
0.00526041
0.000136295
0.00526089
0.000133321
0.00526142
0.00013033
0.00526202
0.000127325
0.00526267
0.000124309
0.00526337
0.000121286
0.00526411
0.000118259
0.00526489
0.000115231
0.0052657
0.000112206
0.00526653
0.000109186
0.00526739
0.000106175
0.00526827
0.000103175
0.00526917
0.00010019
0.00527007
9.72218e-05
0.00527098
9.42728e-05
0.0052719
9.13458e-05
0.00527282
8.84429e-05
0.00527374
8.55665e-05
0.00527465
8.27187e-05
0.00527555
7.99016e-05
7.71172e-05
0.00527455
0.000193248
-0.00527706
0.00527221
0.000191728
0.00527005
0.000190088
0.00526805
0.000188333
0.00526622
0.000186467
0.00526455
0.000184495
0.00526304
0.00018242
0.00526169
0.000180245
0.00526049
0.00017797
0.00525944
0.000175599
0.00525854
0.00017313
0.00525779
0.000170567
0.00525717
0.000167915
0.00525668
0.000165184
0.00525633
0.000162384
0.00525609
0.000159529
0.00525598
0.000156633
0.00525597
0.000153707
0.00525607
0.000150758
0.00525627
0.000147791
0.00525656
0.000144809
0.00525693
0.000141811
0.00525739
0.000138798
0.00525791
0.00013577
0.0052585
0.00013273
0.00525915
0.000129678
0.00525986
0.000126619
0.00526061
0.000123554
0.00526141
0.000120487
0.00526225
0.000117421
0.00526312
0.00011436
0.00526402
0.000111306
0.00526495
0.000108262
0.00526589
0.000105231
0.00526685
0.000102216
0.00526782
9.92194e-05
0.0052688
9.62431e-05
0.00526978
9.32897e-05
0.00527077
9.03615e-05
0.00527175
8.74604e-05
0.00527273
8.45887e-05
0.0052737
8.17481e-05
0.00527466
7.89408e-05
7.61683e-05
0.00526876
0.000195631
-0.00527114
0.00526655
0.000193933
0.00526452
0.000192118
0.00526267
0.000190191
0.00526098
0.000188156
0.00525945
0.000186018
0.00525809
0.000183781
0.00525689
0.000181447
0.00525584
0.000179018
0.00525495
0.000176495
0.0052542
0.00017388
0.00525359
0.000171174
0.00525312
0.000168384
0.00525279
0.000165519
0.00525258
0.000162591
0.00525249
0.000159615
0.00525252
0.000156603
0.00525266
0.000153569
0.0052529
0.000150518
0.00525323
0.000147457
0.00525366
0.000144386
0.00525416
0.000141307
0.00525474
0.000138219
0.00525539
0.000135123
0.0052561
0.000132019
0.00525687
0.000128911
0.00525768
0.000125801
0.00525855
0.00012269
0.00525945
0.000119584
0.00526039
0.000116483
0.00526136
0.000113392
0.00526235
0.000110313
0.00526336
0.000107249
0.00526439
0.000104203
0.00526543
0.000101176
0.00526648
9.8171e-05
0.00526753
9.51902e-05
0.00526858
9.22358e-05
0.00526964
8.93096e-05
0.00527068
8.64135e-05
0.00527172
8.35494e-05
0.00527275
8.07191e-05
0.00527377
7.79243e-05
7.51665e-05
0.00526272
0.00019787
-0.00526496
0.00526066
0.00019599
0.00525879
0.000193996
0.00525708
0.000191894
0.00525555
0.000189688
0.00525419
0.000187382
0.00525299
0.000184981
0.00525195
0.000182488
0.00525106
0.000179904
0.00525033
0.00017723
0.00524974
0.000174468
0.00524929
0.00017162
0.00524898
0.000168693
0.0052488
0.000165696
0.00524875
0.000162642
0.00524882
0.000159546
0.005249
0.000156422
0.00524929
0.000153281
0.00524968
0.000150132
0.00525015
0.000146979
0.00525072
0.000143824
0.00525136
0.000140667
0.00525207
0.000137508
0.00525284
0.000134347
0.00525368
0.000131185
0.00525456
0.000128025
0.0052555
0.000124867
0.00525647
0.000121716
0.00525748
0.000118574
0.00525852
0.000115443
0.00525959
0.000112327
0.00526067
0.000109227
0.00526178
0.000106147
0.00526289
0.000103088
0.00526401
0.000100053
0.00526514
9.7044e-05
0.00526627
9.40624e-05
0.00526739
9.11103e-05
0.00526851
8.81896e-05
0.00526962
8.53017e-05
0.00527073
8.24485e-05
0.00527181
7.96315e-05
0.00527289
7.68521e-05
7.41117e-05
0.00525644
0.000199949
-0.00525852
0.00525455
0.000197883
0.00525284
0.000195707
0.0052513
0.000193427
0.00524994
0.000191048
0.00524875
0.000188573
0.00524773
0.000186008
0.00524686
0.000183355
0.00524615
0.000180616
0.00524559
0.000177792
0.00524517
0.000174884
0.00524489
0.000171896
0.00524475
0.000168833
0.00524474
0.000165706
0.00524486
0.000162529
0.00524509
0.000159316
0.00524543
0.000156082
0.00524587
0.000152838
0.00524641
0.000149594
0.00524704
0.000146353
0.00524774
0.000143117
0.00524852
0.000139887
0.00524937
0.000136661
0.00525028
0.000133439
0.00525124
0.000130224
0.00525225
0.000127015
0.0052533
0.000123816
0.00525439
0.000120628
0.00525551
0.000117455
0.00525665
0.000114298
0.00525782
0.000111161
0.005259
0.000108045
0.00526019
0.000104953
0.0052614
0.000101886
0.0052626
9.88472e-05
0.00526381
9.58376e-05
0.00526501
9.2859e-05
0.00526621
8.9913e-05
0.0052674
8.70011e-05
0.00526857
8.41249e-05
0.00526974
8.12857e-05
0.00527088
7.8485e-05
0.00527201
7.5724e-05
7.3004e-05
0.00524992
-0.00525182
0.0052482
0.00524668
0.00524533
0.00524416
0.00524315
0.00524231
0.00524163
0.00524111
0.00524073
0.0052405
0.0052404
0.00524044
0.00524061
0.00524089
0.00524129
0.0052418
0.00524241
0.0052431
0.00524388
0.00524474
0.00524567
0.00524665
0.0052477
0.00524879
0.00524993
0.0052511
0.0052523
0.00525353
0.00525478
0.00525605
0.00525733
0.00525862
0.00525991
0.0052612
0.00526248
0.00526376
0.00526503
0.00526629
0.00526753
0.00526876
0.00526996
0.00527115
0.0054757
0.000190757
-0.000183186
0.00546822
0.000192256
-0.00018478
0.00546085
0.000193422
-0.000186056
0.00545361
0.000194263
-0.00018702
0.0054465
0.000194788
-0.000187679
0.00543954
0.000195008
-0.000188046
0.00543273
0.00019494
-0.000188133
0.00542609
0.000194598
-0.000187955
0.00541962
0.000194001
-0.000187528
0.00541332
0.000193164
-0.000186869
0.00540721
0.000192105
-0.000185992
0.00540128
0.000190842
-0.000184915
0.00539554
0.000189389
-0.000183652
0.00539
0.000187765
-0.000182218
0.00538464
0.000185983
-0.000180628
0.00537948
0.000184059
-0.000178895
0.0053745
0.000182007
-0.000177034
0.00536972
0.000179839
-0.000175056
0.00536513
0.000177569
-0.000172974
0.00536072
0.000175209
-0.000170799
0.00535649
0.000172769
-0.000168542
0.00535244
0.000170261
-0.000166214
0.00534857
0.000167695
-0.000163823
0.00534487
0.000165079
-0.000161379
0.00534134
0.000162423
-0.000158891
0.000159735
-0.000156366
0.00547743
0.000198739
0.00546957
0.000200119
0.00546184
0.000201154
0.00545425
0.000201851
0.00544682
0.000202219
0.00543955
0.000202274
0.00543246
0.00020203
0.00542556
0.000201505
0.00541884
0.000200717
0.00541232
0.000199685
0.005406
0.000198426
0.00539988
0.000196959
0.00539397
0.000195302
0.00538826
0.000193471
0.00538276
0.000191483
0.00537747
0.000189353
0.00537238
0.000187096
0.00536749
0.000184725
0.00536281
0.000182255
0.00535832
0.000179698
0.00535402
0.000177065
0.00534991
0.000174368
0.00534599
0.000171616
0.00534225
0.00016882
0.00533869
0.000165988
0.000163128
0.00547907
0.000207146
0.00547081
0.000208385
0.00546269
0.000209265
0.00545475
0.000209794
0.00544699
0.000209985
0.00543941
0.000209851
0.00543203
0.00020941
0.00542485
0.000208681
0.00541789
0.000207683
0.00541114
0.000206435
0.00540461
0.000204958
0.00539829
0.00020327
0.00539221
0.00020139
0.00538634
0.000199337
0.0053807
0.000197126
0.00537527
0.000194775
0.00537007
0.000192299
0.00536508
0.000189713
0.00536031
0.00018703
0.00535574
0.000184264
0.00535138
0.000181427
0.00534722
0.00017853
0.00534325
0.000175583
0.00533948
0.000172597
0.00533588
0.00016958
0.000166542
0.00548057
0.000215991
0.00547189
0.000217066
0.00546339
0.000217767
0.00545508
0.000218105
0.00544697
0.000218093
0.00543907
0.000217747
0.0054314
0.000217087
0.00542395
0.000216131
0.00541673
0.000214902
0.00540974
0.000213418
0.005403
0.000211703
0.00539649
0.000209775
0.00539023
0.000207655
0.0053842
0.000205361
0.00537842
0.000202912
0.00537287
0.000200324
0.00536756
0.000197615
0.00536247
0.000194798
0.00535761
0.00019189
0.00535297
0.000188903
0.00534855
0.000185849
0.00534434
0.000182741
0.00534033
0.00017959
0.00533652
0.000176405
0.00533291
0.000173195
0.00016997
0.0054819
0.000225288
0.00547279
0.000226173
0.00546389
0.00022667
0.0054552
0.000226792
0.00544674
0.000226553
0.00543852
0.000225971
0.00543053
0.000225067
0.0054228
0.000223862
0.00541533
0.000222378
0.00540811
0.000220637
0.00540115
0.000218662
0.00539445
0.000216474
0.00538801
0.000214094
0.00538183
0.000211542
0.00537591
0.000208836
0.00537023
0.000205996
0.00536481
0.000203038
0.00535963
0.000199977
0.00535469
0.000196829
0.00534999
0.000193608
0.00534551
0.000190327
0.00534125
0.000186997
0.00533721
0.000183631
0.00533338
0.000180237
0.00532975
0.000176826
0.000173407
0.00548302
0.000235049
0.00547347
0.000235719
0.00546416
0.000235986
0.00545508
0.000235865
0.00544626
0.000235372
0.0054377
0.000234529
0.00542942
0.000233356
0.0054214
0.000231877
0.00541366
0.000230115
0.00540621
0.000228093
0.00539903
0.000225837
0.00539214
0.000223367
0.00538553
0.000220707
0.00537919
0.000217877
0.00537313
0.000214898
0.00536734
0.000211787
0.00536181
0.000208564
0.00535655
0.000205243
0.00535153
0.000201842
0.00534677
0.000198374
0.00534224
0.000194853
0.00533795
0.000191291
0.00533388
0.000187699
0.00533003
0.000184088
0.00532639
0.000180467
0.000176845
0.0054839
0.000245287
0.00547391
0.000245715
0.00546417
0.000245725
0.0054547
0.000245333
0.00544551
0.00024456
0.00543661
0.000243428
0.00542801
0.000241959
0.00541971
0.000240179
0.00541171
0.000238113
0.00540401
0.000235787
0.00539663
0.000233226
0.00538954
0.000230452
0.00538276
0.000227491
0.00537627
0.000224364
0.00537008
0.000221091
0.00536417
0.000217693
0.00535855
0.000214187
0.0053532
0.000210592
0.00534812
0.000206923
0.0053433
0.000203195
0.00533873
0.000199421
0.00533441
0.000195615
0.00533032
0.000191787
0.00532646
0.000187948
0.00532281
0.000184109
0.000180276
0.00548452
0.000256015
0.00547406
0.000256174
0.00546389
0.000255897
0.00545402
0.000255206
0.00544446
0.000254123
0.00543521
0.000252673
0.00542629
0.00025088
0.0054177
0.000248772
0.00540943
0.000246376
0.0054015
0.000243719
0.0053939
0.000240828
0.00538663
0.000237727
0.00537967
0.000234442
0.00537304
0.000230996
0.00536672
0.000227411
0.00536071
0.000223706
0.00535499
0.000219902
0.00534957
0.000216015
0.00534443
0.000212064
0.00533956
0.000208061
0.00533496
0.000204023
0.00533062
0.000199961
0.00532652
0.000195887
0.00532265
0.000191811
0.00531902
0.000187744
0.000183693
0.00548486
0.000267251
0.00547392
0.00026711
0.0054633
0.000266516
0.00545302
0.000265494
0.00544307
0.00026407
0.00543347
0.00026227
0.00542423
0.000260123
0.00541535
0.000257657
0.00540682
0.000254902
0.00539865
0.000251887
0.00539084
0.00024864
0.00538338
0.000245188
0.00537626
0.000241556
0.00536949
0.000237769
0.00536305
0.00023385
0.00535694
0.00022982
0.00535114
0.000225699
0.00534565
0.000221505
0.00534046
0.000217255
0.00533555
0.000212965
0.00533093
0.000208649
0.00532657
0.000204319
0.00532247
0.000199988
0.00531861
0.000195666
0.00531499
0.000191362
0.000187086
0.00548488
0.000279012
0.00547345
0.000278537
0.00546238
0.000277593
0.00545166
0.000276206
0.00544133
0.000274407
0.00543137
0.000272224
0.0054218
0.00026969
0.00541263
0.000266835
0.00540384
0.000263692
0.00539543
0.00026029
0.00538741
0.00025666
0.00537977
0.000252829
0.0053725
0.000248826
0.0053656
0.000244676
0.00535905
0.000240402
0.00535284
0.000236026
0.00534697
0.00023157
0.00534142
0.000227051
0.00533619
0.000222488
0.00533126
0.000217896
0.00532662
0.000213289
0.00532226
0.00020868
0.00531816
0.000204081
0.00531433
0.000199503
0.00531074
0.000194954
0.000190444
0.00548456
0.000291318
0.00547262
0.000290473
0.00546107
0.00028914
0.00544993
0.000287352
0.00543919
0.000285141
0.00542888
0.00028254
0.00541898
0.000279584
0.00540951
0.000276307
0.00540046
0.000272742
0.00539183
0.000268923
0.00538361
0.00026488
0.00537579
0.000260645
0.00536837
0.000256245
0.00536134
0.000251707
0.00535469
0.000247056
0.0053484
0.000242315
0.00534247
0.000237504
0.00533687
0.000232644
0.00533161
0.000227751
0.00532666
0.000222842
0.00532202
0.000217931
0.00531767
0.000213031
0.0053136
0.000208154
0.00530979
0.00020331
0.00530624
0.000198509
0.000193758
0.00548386
0.000304189
0.0054714
0.000302933
0.00545937
0.000301172
0.00544778
0.000298941
0.00543664
0.000296279
0.00542596
0.000293221
0.00541574
0.000289806
0.00540597
0.000286071
0.00539667
0.000282051
0.00538781
0.000277781
0.00537939
0.000273296
0.00537141
0.000268627
0.00536385
0.000263803
0.00535671
0.000258853
0.00534996
0.000253802
0.0053436
0.000248673
0.00533762
0.000243489
0.00533199
0.000238269
0.00532671
0.000233031
0.00532176
0.000227791
0.00531713
0.000222563
0.0053128
0.000217361
0.00530876
0.000212195
0.005305
0.000207076
0.00530149
0.000202013
0.000197014
0.00548275
0.000317648
0.00546975
0.000315936
0.00545722
0.0003137
0.00544518
0.000310983
0.00543363
0.000307826
0.00542258
0.00030427
0.00541203
0.000300356
0.00540198
0.000296123
0.00539242
0.000291611
0.00538334
0.000286858
0.00537474
0.000281897
0.0053666
0.000276764
0.00535892
0.000271489
0.00535167
0.000266101
0.00534485
0.000260626
0.00533843
0.000255089
0.00533241
0.000249511
0.00532676
0.000243914
0.00532148
0.000238314
0.00531654
0.000232728
0.00531194
0.00022717
0.00530764
0.000221654
0.00530365
0.000216189
0.00529994
0.000210787
0.0052965
0.000205455
0.000200201
0.00548118
0.000331717
0.00546762
0.000329497
0.00545458
0.000326738
0.00544208
0.000323486
0.00543012
0.000319787
0.0054187
0.000315687
0.00540783
0.00031123
0.00539749
0.00030646
0.00538769
0.000301417
0.0053784
0.000296143
0.00536963
0.000290674
0.00536135
0.000285045
0.00535354
0.000279289
0.00534621
0.000273436
0.00533932
0.000267513
0.00533286
0.000261545
0.00532682
0.000255555
0.00532117
0.000249562
0.0053159
0.000243584
0.00531099
0.000237638
0.00530643
0.000231738
0.00530218
0.000225896
0.00529825
0.000220123
0.00529461
0.000214428
0.00529124
0.000208819
0.000203304
0.00547911
0.000346419
0.00546498
0.000343635
0.00545142
0.000340297
0.00543845
0.000336456
0.00542607
0.000332164
0.00541429
0.000327471
0.00540309
0.000322425
0.00539248
0.000317072
0.00538244
0.000311459
0.00537295
0.000305625
0.00536402
0.000299612
0.00535561
0.000293455
0.00534771
0.000287189
0.0053403
0.000280844
0.00533337
0.000274448
0.00532688
0.000268026
0.00532084
0.000261602
0.0053152
0.000255195
0.00530996
0.000248824
0.0053051
0.000242503
0.00530059