/*--------------------------------*- C++ -*----------------------------------*\
| =========                 |                                                 |
| \\      /  F ield         | OpenFOAM: The Open Source CFD Toolbox           |
|  \\    /   O peration     | Version:  2412                                  |
|   \\  /    A nd           | Website:  www.openfoam.com                      |
|    \\/     M anipulation  |                                                 |
\*---------------------------------------------------------------------------*/
FoamFile
{
    version     2.0;
    format      ascii;
    arch        "LSB;label=32;scalar=64";
    class       volVectorField;
    location    "6";
    object      U;
}
// * * * * * * * * * * * * * * * * * * * * * * * * * * * * * * * * * * * * * //

dimensions      [0 1 -1 0 0 0 0];

internalField   nonuniform List<vector> 
5285
(
(0.112187 -0.00231525 0)
(0.111626 -0.00215279 0)
(0.111453 -0.00265734 0)
(0.111232 -0.00313819 0)
(0.110985 -0.00359794 0)
(0.110709 -0.00403854 0)
(0.110405 -0.00446051 0)
(0.110076 -0.00486326 0)
(0.109726 -0.00524479 0)
(0.109358 -0.00560182 0)
(0.108976 -0.00593034 0)
(0.108583 -0.00622637 0)
(0.108182 -0.00648673 0)
(0.107775 -0.00670958 0)
(0.107366 -0.0068946 0)
(0.106958 -0.00704297 0)
(0.106551 -0.00715695 0)
(0.10615 -0.0072395 0)
(0.105756 -0.0072938 0)
(0.10537 -0.00732294 0)
(0.104994 -0.00732972 0)
(0.104629 -0.00731657 0)
(0.104277 -0.00728555 0)
(0.103938 -0.00723847 0)
(0.111103 -0.00200632 0)
(0.110947 -0.00247432 0)
(0.110748 -0.00292123 0)
(0.110525 -0.00334982 0)
(0.110275 -0.00376217 0)
(0.109999 -0.004159 0)
(0.1097 -0.00453975 0)
(0.109381 -0.00490242 0)
(0.109045 -0.00524368 0)
(0.108695 -0.00555945 0)
(0.108333 -0.00584567 0)
(0.107963 -0.00609904 0)
(0.107588 -0.00631762 0)
(0.107208 -0.00650096 0)
(0.106828 -0.00665007 0)
(0.106449 -0.00676704 0)
(0.106074 -0.0068546 0)
(0.105703 -0.00691572 0)
(0.10534 -0.00695327 0)
(0.104985 -0.0069698 0)
(0.10464 -0.00696753 0)
(0.104305 -0.00694832 0)
(0.103982 -0.00691377 0)
(0.110615 -0.00187413 0)
(0.110475 -0.00230906 0)
(0.110295 -0.00272513 0)
(0.110093 -0.00312524 0)
(0.109867 -0.00351162 0)
(0.109616 -0.0038851 0)
(0.109344 -0.00424519 0)
(0.109053 -0.0045899 0)
(0.108746 -0.00491586 0)
(0.108425 -0.00521896 0)
(0.108093 -0.0054951 0)
(0.107752 -0.00574094 0)
(0.107404 -0.00595445 0)
(0.107052 -0.00613511 0)
(0.106698 -0.00628381 0)
(0.106344 -0.00640248 0)
(0.105992 -0.00649368 0)
(0.105644 -0.00656018 0)
(0.105302 -0.00660463 0)
(0.104966 -0.00662941 0)
(0.104639 -0.00663651 0)
(0.104321 -0.0066276 0)
(0.104014 -0.00660411 0)
(0.110159 -0.00175475 0)
(0.110032 -0.00215977 0)
(0.10987 -0.00254784 0)
(0.109687 -0.00292196 0)
(0.109483 -0.00328445 0)
(0.109255 -0.00363626 0)
(0.109008 -0.00397694 0)
(0.108743 -0.00430451 0)
(0.108462 -0.00461563 0)
(0.108167 -0.00490617 0)
(0.107862 -0.00517202 0)
(0.107546 -0.00540987 0)
(0.107224 -0.00561764 0)
(0.106897 -0.00579478 0)
(0.106567 -0.00594207 0)
(0.106236 -0.00606134 0)
(0.105906 -0.006155 0)
(0.105579 -0.00622563 0)
(0.105257 -0.00627571 0)
(0.10494 -0.00630742 0)
(0.10463 -0.00632256 0)
(0.104328 -0.00632263 0)
(0.104035 -0.00630888 0)
(0.109732 -0.00164693 0)
(0.109618 -0.00202493 0)
(0.109471 -0.00238762 0)
(0.109306 -0.00273804 0)
(0.109121 -0.00307857 0)
(0.108915 -0.00341024 0)
(0.10869 -0.00373266 0)
(0.108448 -0.00404387 0)
(0.108191 -0.00434056 0)
(0.107921 -0.00461864 0)
(0.107639 -0.00487405 0)
(0.107348 -0.0051035 0)
(0.107049 -0.00530496 0)
(0.106745 -0.00547784 0)
(0.106437 -0.00562289 0)
(0.106127 -0.00574182 0)
(0.105818 -0.00583692 0)
(0.10551 -0.00591062 0)
(0.105206 -0.00596523 0)
(0.104906 -0.00600273 0)
(0.104613 -0.00602476 0)
(0.104326 -0.00603265 0)
(0.104047 -0.00602748 0)
(0.109332 -0.00154957 0)
(0.109228 -0.00190324 0)
(0.109096 -0.00224298 0)
(0.108948 -0.00257182 0)
(0.10878 -0.00289218 0)
(0.108593 -0.00320514 0)
(0.108389 -0.00351035 0)
(0.108169 -0.0038059 0)
(0.107934 -0.00408852 0)
(0.107686 -0.00435422 0)
(0.107426 -0.00459902 0)
(0.107157 -0.00481972 0)
(0.106879 -0.00501434 0)
(0.106596 -0.00518233 0)
(0.106308 -0.0053244 0)
(0.106018 -0.0054422 0)
(0.105727 -0.00553789 0)
(0.105437 -0.00561376 0)
(0.10515 -0.00567195 0)
(0.104867 -0.00571428 0)
(0.104588 -0.0057422 0)
(0.104316 -0.0057569 0)
(0.10405 -0.00575929 0)
(0.108955 -0.00146172 0)
(0.108862 -0.00179357 0)
(0.108743 -0.00211263 0)
(0.108609 -0.00242188 0)
(0.108458 -0.00272373 0)
(0.10829 -0.00301929 0)
(0.108104 -0.00330824 0)
(0.107904 -0.00358873 0)
(0.107689 -0.00385759 0)
(0.107462 -0.00411094 0)
(0.107222 -0.00434495 0)
(0.106973 -0.00455655 0)
(0.106715 -0.00474388 0)
(0.10645 -0.00490642 0)
(0.106181 -0.00504489 0)
(0.105908 -0.00516088 0)
(0.105635 -0.00525645 0)
(0.105362 -0.00533373 0)
(0.10509 -0.00539472 0)
(0.104822 -0.00544104 0)
(0.104558 -0.00547401 0)
(0.104299 -0.00549463 0)
(0.104046 -0.0055037 0)
(0.108601 -0.00138255 0)
(0.108517 -0.00169493 0)
(0.108411 -0.00199544 0)
(0.108291 -0.00228696 0)
(0.108155 -0.00257186 0)
(0.108003 -0.00285122 0)
(0.107835 -0.00312476 0)
(0.107653 -0.00339071 0)
(0.107457 -0.00364603 0)
(0.107247 -0.00388701 0)
(0.107026 -0.00411004 0)
(0.106795 -0.00431221 0)
(0.106555 -0.00449181 0)
(0.106308 -0.00464842 0)
(0.106055 -0.00478276 0)
(0.105799 -0.00489638 0)
(0.105542 -0.00499122 0)
(0.105284 -0.0050693 0)
(0.105027 -0.00513242 0)
(0.104773 -0.00518206 0)
(0.104523 -0.00521936 0)
(0.104277 -0.00524516 0)
(0.104036 -0.00526012 0)
(0.108267 -0.00131129 0)
(0.108192 -0.00160642 0)
(0.108097 -0.00189039 0)
(0.10799 -0.00216594 0)
(0.107868 -0.00243531 0)
(0.107731 -0.00269956 0)
(0.10758 -0.00295845 0)
(0.107414 -0.00321029 0)
(0.107235 -0.00345223 0)
(0.107043 -0.00368079 0)
(0.106839 -0.00389261 0)
(0.106624 -0.00408502 0)
(0.1064 -0.00425651 0)
(0.106168 -0.00440675 0)
(0.105931 -0.00453652 0)
(0.105691 -0.00464731 0)
(0.105448 -0.00474097 0)
(0.105204 -0.00481934 0)
(0.104961 -0.00488407 0)
(0.10472 -0.00493646 0)
(0.104482 -0.00497748 0)
(0.104249 -0.00500782 0)
(0.104019 -0.005028 0)
(0.107954 -0.00124723 0)
(0.107886 -0.00152718 0)
(0.107801 -0.00179649 0)
(0.107705 -0.0020577 0)
(0.107597 -0.00231287 0)
(0.107474 -0.00256302 0)
(0.107337 -0.00280791 0)
(0.107187 -0.00304601 0)
(0.107023 -0.00327466 0)
(0.106847 -0.00349071 0)
(0.106658 -0.00369109 0)
(0.106458 -0.00387344 0)
(0.106249 -0.00403647 0)
(0.106032 -0.00418001 0)
(0.105809 -0.00430485 0)
(0.105582 -0.00441246 0)
(0.105352 -0.00450456 0)
(0.105122 -0.00458284 0)
(0.104892 -0.00464876 0)
(0.104664 -0.00470344 0)
(0.104438 -0.00474768 0)
(0.104216 -0.00478201 0)
(0.103997 -0.00480684 0)
(0.107659 -0.00118966 0)
(0.107598 -0.00145634 0)
(0.107523 -0.00171273 0)
(0.107437 -0.0019611 0)
(0.10734 -0.0022033 0)
(0.10723 -0.00244025 0)
(0.107107 -0.00267174 0)
(0.10697 -0.00289638 0)
(0.106821 -0.00311183 0)
(0.106658 -0.00331526 0)
(0.106483 -0.003504 0)
(0.106297 -0.00367604 0)
(0.106101 -0.00383034 0)
(0.105897 -0.00396691 0)
(0.105687 -0.00408658 0)
(0.105473 -0.00419076 0)
(0.105256 -0.00428104 0)
(0.105038 -0.00435894 0)
(0.10482 -0.00442572 0)
(0.104604 -0.00448232 0)
(0.104389 -0.00452935 0)
(0.104178 -0.00456721 0)
(0.10397 -0.00459616 0)
(0.107382 -0.00113783 0)
(0.107328 -0.00139296 0)
(0.10726 -0.00163802 0)
(0.107184 -0.00187491 0)
(0.107097 -0.00210523 0)
(0.106998 -0.00232979 0)
(0.106887 -0.0025484 0)
(0.106763 -0.00275988 0)
(0.106625 -0.00296221 0)
(0.106475 -0.00315297 0)
(0.106313 -0.00332995 0)
(0.106139 -0.00349151 0)
(0.105955 -0.00363692 0)
(0.105764 -0.00376636 0)
(0.105566 -0.00388071 0)
(0.105363 -0.00398131 0)
(0.105158 -0.0040696 0)
(0.104952 -0.00414692 0)
(0.104746 -0.00421432 0)
(0.10454 -0.00427253 0)
(0.104337 -0.004322 0)
(0.104136 -0.00436296 0)
(0.103939 -0.00439557 0)
(0.107124 -0.00109095 0)
(0.107074 -0.00133601 0)
(0.107014 -0.0015711 0)
(0.106946 -0.0017977 0)
(0.106867 -0.00201713 0)
(0.106778 -0.00223003 0)
(0.106677 -0.00243628 0)
(0.106563 -0.0026349 0)
(0.106436 -0.00282425 0)
(0.106297 -0.0030024 0)
(0.106146 -0.0031676 0)
(0.105983 -0.00331865 0)
(0.10581 -0.00345515 0)
(0.10563 -0.00357744 0)
(0.105444 -0.00368644 0)
(0.105253 -0.00378342 0)
(0.105059 -0.00386964 0)
(0.104864 -0.00394625 0)
(0.104668 -0.00401406 0)
(0.104474 -0.00407362 0)
(0.104281 -0.00412519 0)
(0.104091 -0.00416889 0)
(0.103903 -0.00420473 0)
(0.106883 -0.00104814 0)
(0.106838 -0.00128434 0)
(0.106783 -0.00151058 0)
(0.106721 -0.0017279 0)
(0.106649 -0.00193726 0)
(0.106568 -0.00213918 0)
(0.106475 -0.00233358 0)
(0.10637 -0.00251972 0)
(0.106252 -0.00269638 0)
(0.106123 -0.00286213 0)
(0.105981 -0.00301572 0)
(0.105828 -0.00315643 0)
(0.105666 -0.00328416 0)
(0.105496 -0.00339942 0)
(0.10532 -0.00350318 0)
(0.10514 -0.00359657 0)
(0.104957 -0.00368071 0)
(0.104773 -0.00375651 0)
(0.104589 -0.00382458 0)
(0.104405 -0.00388525 0)
(0.104222 -0.00393862 0)
(0.104041 -0.00398468 0)
(0.103863 -0.00402335 0)
(0.10666 -0.00100849 0)
(0.106618 -0.00123672 0)
(0.106567 -0.00145495 0)
(0.106509 -0.00166376 0)
(0.106443 -0.00186377 0)
(0.106367 -0.00205534 0)
(0.10628 -0.00223843 0)
(0.106182 -0.0024126 0)
(0.106072 -0.00257701 0)
(0.105951 -0.00273078 0)
(0.105817 -0.00287318 0)
(0.105674 -0.00300392 0)
(0.105521 -0.00312322 0)
(0.105361 -0.00323175 0)
(0.105196 -0.00333047 0)
(0.105026 -0.00342042 0)
(0.104854 -0.00350251 0)
(0.10468 -0.00357744 0)
(0.104506 -0.0036456 0)
(0.104333 -0.00370715 0)
(0.10416 -0.00376202 0)
(0.103989 -0.00381007 0)
(0.10382 -0.00385115 0)
(0.106454 -0.000971051 0)
(0.106414 -0.00119185 0)
(0.106366 -0.00140263 0)
(0.10631 -0.00160349 0)
(0.106247 -0.00179473 0)
(0.106175 -0.00197654 0)
(0.106093 -0.00214896 0)
(0.106 -0.00231179 0)
(0.105896 -0.00246464 0)
(0.105781 -0.0026071 0)
(0.105655 -0.00273896 0)
(0.10552 -0.00286035 0)
(0.105376 -0.00297176 0)
(0.105226 -0.003074 0)
(0.10507 -0.00316801 0)
(0.104911 -0.00325471 0)
(0.104749 -0.00333482 0)
(0.104586 -0.00340883 0)
(0.104422 -0.00347694 0)
(0.104259 -0.0035391 0)
(0.104096 -0.00359515 0)
(0.103935 -0.00364483 0)
(0.103775 -0.00368791 0)
(0.106264 -0.00093495 0)
(0.106224 -0.00114853 0)
(0.106177 -0.00135212 0)
(0.106123 -0.0015454 0)
(0.106062 -0.00172832 0)
(0.105992 -0.00190096 0)
(0.105912 -0.00206341 0)
(0.105823 -0.00221572 0)
(0.105724 -0.00235787 0)
(0.105614 -0.00248995 0)
(0.105495 -0.00261217 0)
(0.105367 -0.00272505 0)
(0.105232 -0.0028293 0)
(0.105091 -0.00292584 0)
(0.104945 -0.00301556 0)
(0.104796 -0.00309925 0)
(0.104644 -0.00317748 0)
(0.104491 -0.00325051 0)
(0.104337 -0.00331838 0)
(0.104184 -0.0033809 0)
(0.104031 -0.00343778 0)
(0.103878 -0.00348869 0)
(0.103727 -0.00353336 0)
(0.106087 -0.00089949 0)
(0.106048 -0.00110572 0)
(0.106001 -0.00130214 0)
(0.105947 -0.001488 0)
(0.105886 -0.00166298 0)
(0.105817 -0.00182703 0)
(0.105739 -0.00198029 0)
(0.105652 -0.00212303 0)
(0.105556 -0.00225558 0)
(0.105451 -0.00237839 0)
(0.105337 -0.00249209 0)
(0.105217 -0.00259746 0)
(0.105089 -0.00269543 0)
(0.104957 -0.00278694 0)
(0.104821 -0.00287284 0)
(0.104681 -0.00295382 0)
(0.104539 -0.00303024 0)
(0.104396 -0.00310224 0)
(0.104253 -0.00316968 0)
(0.104108 -0.00323227 0)
(0.103964 -0.00328963 0)
(0.103821 -0.00334139 0)
(0.103678 -0.00338723 0)
(0.112244 0.00170468 1.07843e-24)
(0.112382 0.00110903 -1.08098e-24)
(0.111706 0.00157975 -9.59761e-25)
(0.111831 0.00102449 3.36201e-23)
(0.11194 0.000462717 -2.12761e-24)
(0.112033 -0.000102024 0)
(0.112108 -0.000666126 7.70786e-23)
(0.112167 -0.00122582 -1.84235e-22)
(0.112229 -0.00177757 -2.93238e-24)
(0.111204 0.00146625 8.49816e-25)
(0.111317 0.000947729 -5.66072e-23)
(0.111415 0.000423758 -5.98723e-23)
(0.111497 -0.000102105 1.74039e-25)
(0.111563 -0.000626212 -1.53778e-22)
(0.111613 -0.00114488 1.5759e-22)
(0.111666 -0.0016547 1.63385e-22)
(0.110734 0.00136303 -5.99348e-24)
(0.110836 0.000877977 2.78496e-23)
(0.110924 0.000388359 1.11544e-22)
(0.110997 -0.000102236 6.06903e-23)
(0.111055 -0.000590181 7.17171e-23)
(0.111098 -0.00107186 -2.91702e-22)
(0.111142 -0.001544 -3.17674e-22)
(0.110293 0.00126909 5.9066e-24)
(0.110386 0.00081458 8.23092e-25)
(0.110465 0.000356229 -5.48196e-23)
(0.11053 -0.000102363 -1.12897e-22)
(0.11058 -0.000557571 -1.51576e-25)
(0.110616 -0.00100586 7.86876e-23)
(0.110652 -0.00144412 1.49293e-22)
(0.10988 0.00118361 3.29389e-24)
(0.109963 0.000756994 1.85693e-24)
(0.110034 0.000327126 -2.18642e-23)
(0.110091 -0.000102398 9.83627e-23)
(0.110135 -0.000527968 0)
(0.110166 -0.000946132 6.42347e-23)
(0.110195 -0.00135393 -1.92003e-24)
(0.109491 0.00110586 -6.61466e-24)
(0.109567 0.00070477 -4.82131e-25)
(0.10963 0.000300871 1.93165e-23)
(0.10968 -0.000102248 -8.66512e-23)
(0.109718 -0.000500993 4.48536e-23)
(0.109743 -0.000891986 5.27071e-23)
(0.109767 -0.00127241 -1.71153e-24)
(0.109126 0.00103523 3.23715e-24)
(0.109194 0.000657534 0)
(0.10925 0.00027733 0)
(0.109294 -0.000101804 4.03985e-23)
(0.109326 -0.000476291 -4.63496e-23)
(0.109347 -0.00084282 -9.15799e-23)
(0.109364 -0.00119871 -4.76182e-23)
(0.108782 0.00097121 3.31839e-25)
(0.108843 0.000614974 5.80836e-24)
(0.108892 0.000256407 1.37689e-25)
(0.108931 -0.000100946 1.326e-25)
(0.108957 -0.000453532 3.31095e-23)
(0.108973 -0.000798087 8.30353e-23)
(0.108987 -0.00113206 8.81145e-23)
(0.108458 0.000913328 -2.63853e-25)
(0.108512 0.000576825 -5.07674e-24)
(0.108556 0.000238032 0)
(0.108588 -9.95535e-05 -1.26797e-23)
(0.10861 -0.000432402 -3.41746e-23)
(0.108622 -0.000757291 -3.86064e-24)
(0.108631 -0.00107176 -7.96866e-23)
(0.108153 0.000861159 0)
(0.108201 0.000542839 -2.71107e-24)
(0.108239 0.00022214 -8.39406e-24)
(0.108266 -9.751e-05 1.12421e-23)
(0.108284 -0.000412613 1.68138e-24)
(0.108292 -0.000719977 -3.29221e-23)
(0.108296 -0.00101721 3.55647e-23)
(0.107865 0.000814291 -1.39806e-25)
(0.107908 0.000512765 3.79373e-24)
(0.10794 0.000208648 8.12239e-24)
(0.107963 -9.47268e-05 6.46408e-25)
(0.107976 -0.000393909 -6.46313e-25)
(0.107981 -0.000685727 -2.38717e-23)
(0.107982 -0.000967818 0)
(0.107595 0.000772259 1.85984e-25)
(0.107633 0.000486305 -8.30953e-26)
(0.10766 0.000197427 -4.063e-25)
(0.107678 -9.11609e-05 6.36179e-24)
(0.107687 -0.000376073 -1.07937e-25)
(0.107688 -0.000654153 3.50373e-23)
(0.107686 -0.000923035 2.20666e-23)
(0.107341 0.000734559 -1.32634e-25)
(0.107374 0.000463099 2.0686e-25)
(0.107397 0.000188279 1.136e-25)
(0.107411 -8.68349e-05 -1.18117e-23)
(0.107417 -0.000358942 3.98598e-25)
(0.107415 -0.000624901 -1.71186e-23)
(0.107409 -0.00088231 -2.3334e-23)
(0.107103 0.000700634 -2.09644e-26)
(0.107132 0.000442707 9.30755e-26)
(0.107152 0.000180918 -5.08481e-25)
(0.107162 -8.18515e-05 4.75163e-24)
(0.107164 -0.000342409 -2.85631e-25)
(0.107159 -0.00059764 8.35344e-24)
(0.10715 -0.000845078 -7.94759e-24)
(0.10688 0.000669829 6.88088e-26)
(0.106906 0.000424594 -6.87512e-26)
(0.106923 0.000174961 3.70931e-25)
(0.10693 -7.64001e-05 -1.01376e-25)
(0.10693 -0.000326434 1.59979e-24)
(0.106922 -0.000572067 -4.67244e-24)
(0.10691 -0.000810751 7.81487e-24)
(0.106672 0.000641434 1.14135e-25)
(0.106696 0.000408154 -6.70212e-25)
(0.10671 0.000169947 2.7162e-25)
(0.106715 -7.07456e-05 1.88033e-26)
(0.106712 -0.000311032 -2.0461e-24)
(0.106702 -0.000547899 4.55952e-24)
(0.106687 -0.000778726 -2.58067e-25)
(0.106478 0.000614726 -3.604e-25)
(0.1065 0.000392752 -2.23741e-25)
(0.106513 0.000165379 -7.11254e-25)
(0.106516 -6.51929e-05 9.46325e-26)
(0.106512 -0.000296254 7.15948e-25)
(0.1065 -0.00052488 -7.35643e-26)
(0.106482 -0.000748395 -1.21097e-24)
(0.106297 0.000589027 2.03588e-25)
(0.106318 0.000377792 2.22506e-25)
(0.10633 0.000160785 1.00972e-24)
(0.106332 -6.00381e-05 -1.97861e-25)
(0.106326 -0.000282168 -2.08516e-25)
(0.106313 -0.000502797 -1.76712e-26)
(0.106292 -0.000719233 1.14438e-24)
(0.106128 0.00056376 -2.36882e-25)
(0.106148 0.000362729 6.20739e-25)
(0.10616 0.000155687 -2.81788e-25)
(0.106162 -5.56408e-05 4.7201e-25)
(0.106155 -0.000268956 1.79553e-26)
(0.10614 -0.000481601 5.57177e-26)
(0.106117 -0.00069091 2.54372e-26)
(0.111919 0.0028614 2.6894e-23)
(0.112089 0.00228956 8.63267e-25)
(0.110454 0.0051114 -4.20252e-25)
(0.110674 0.00465029 4.16053e-23)
(0.110868 0.00417502 -2.23457e-23)
(0.111059 0.00368483 0)
(0.111242 0.00317933 -1.30418e-24)
(0.111411 0.00265916 2.05583e-24)
(0.111566 0.00212543 -7.55198e-25)
(0.110054 0.00476702 -4.827e-24)
(0.110256 0.00433632 -1.97179e-23)
(0.110436 0.00389222 2.09868e-23)
(0.110612 0.00343405 -2.12657e-25)
(0.11078 0.00296147 2.9295e-23)
(0.110935 0.00247516 1.83767e-23)
(0.111076 0.0019762 6.54998e-25)
(0.109674 0.00445231 5.23166e-25)
(0.109862 0.00404953 3.08506e-23)
(0.110029 0.00363404 0)
(0.110192 0.00320522 -1.71782e-23)
(0.110346 0.00276283 -5.44162e-23)
(0.110488 0.00230751 -3.24993e-23)
(0.110618 0.00184035 3.95761e-24)
(0.109316 0.00416432 3.89654e-24)
(0.10949 0.0037872 -9.45292e-24)
(0.109646 0.003398 1.93777e-25)
(0.109797 0.00299616 3.07139e-23)
(0.109939 0.0025815 2.3404e-23)
(0.110069 0.00215461 1.54242e-23)
(0.110188 0.00171659 -4.05128e-24)
(0.108976 0.00390043 1.37241e-25)
(0.109139 0.00354693 -1.25193e-24)
(0.109284 0.00318194 0)
(0.109424 0.00280496 -2.19398e-23)
(0.109556 0.00241581 6.63845e-24)
(0.109676 0.00201507 1.00703e-24)
(0.109784 0.00160378 -3.58797e-24)
(0.108654 0.00365831 2.52541e-25)
(0.108806 0.00332661 6.24887e-24)
(0.108942 0.00298398 1.13143e-24)
(0.109073 0.00262993 1.3568e-23)
(0.109195 0.00226431 -7.55347e-24)
(0.109305 0.00188765 -3.19182e-25)
(0.109404 0.00150096 6.11253e-24)
(0.10835 0.00343591 -1.61107e-23)
(0.108492 0.00312437 -1.67376e-23)
(0.10862 0.00280241 -7.78039e-25)
(0.108742 0.00246958 -5.39832e-24)
(0.108854 0.00212572 0)
(0.108956 0.00177131 0)
(0.109047 0.00140729 -2.59915e-24)
(0.108061 0.00323139 3.5591e-23)
(0.108195 0.00293853 2.27779e-23)
(0.108315 0.00263575 8.14475e-24)
(0.108429 0.0023226 6.03746e-25)
(0.108533 0.00199891 -1.60943e-25)
(0.108627 0.0016651 -1.78364e-24)
(0.10871 0.00132203 1.81979e-25)
(0.107788 0.00304311 -1.846e-23)
(0.107914 0.0027676 2.48212e-24)
(0.108027 0.00248264 -8.02434e-24)
(0.108133 0.00218779 -3.1226e-24)
(0.108231 0.00188286 0)
(0.108317 0.00156818 1.93135e-24)
(0.108393 0.00124452 -1.19778e-25)
(0.107529 0.00286957 2.50285e-23)
(0.107648 0.00261021 -1.63863e-23)
(0.107755 0.00234187 -7.99552e-25)
(0.107854 0.00206408 3.61831e-24)
(0.107945 0.00177664 -2.49785e-24)
(0.108025 0.00147978 -4.28771e-26)
(0.108094 0.00117418 0)
(0.107284 0.00270943 2.46722e-24)
(0.107396 0.00246513 -2.1709e-23)
(0.107497 0.0022123 4.16843e-25)
(0.107591 0.00195047 -4.16952e-25)
(0.107675 0.00167938 2.4785e-24)
(0.107749 0.00139918 -1.00604e-25)
(0.107812 0.00111044 -6.20901e-27)
(0.107051 0.00256143 3.11375e-24)
(0.107158 0.00233121 3.23314e-23)
(0.107254 0.00209289 1.4264e-25)
(0.107342 0.001846 7.76927e-24)
(0.107421 0.00159024 3.64464e-25)
(0.107489 0.00132565 4.57015e-26)
(0.107547 0.00105266 1.04414e-25)
(0.106831 0.00242441 -2.80926e-23)
(0.106932 0.00220735 -2.61962e-23)
(0.107024 0.00198263 -5.87423e-25)
(0.107107 0.00174976 -1.55496e-23)
(0.107181 0.00150838 -1.33593e-25)
(0.107244 0.00125844 -1.60834e-24)
(0.107298 0.00100021 -5.56058e-26)
(0.106622 0.0022973 -1.56193e-23)
(0.106719 0.00209255 1.2303e-23)
(0.106806 0.00188056 6.65264e-25)
(0.106885 0.00166084 8.83097e-24)
(0.106954 0.00143298 -4.21865e-24)
(0.107014 0.00119681 9.28934e-25)
(0.107064 0.000952472 -1.41116e-25)
(0.106424 0.00217908 1.55129e-23)
(0.106517 0.00198582 -1.43743e-23)
(0.1066 0.00178574 5.95294e-24)
(0.106675 0.00157835 1.27409e-25)
(0.106742 0.00136317 9.42966e-24)
(0.106798 0.00113995 -1.84832e-25)
(0.106844 0.000908677 -1.67257e-25)
(0.106236 0.00206878 1.05351e-24)
(0.106325 0.00188625 1.42941e-23)
(0.106406 0.0016973 -1.39031e-23)
(0.106478 0.00150141 6.87848e-25)
(0.106541 0.00129811 -4.84624e-24)
(0.106595 0.00108704 3.00705e-25)
(0.106638 0.00086805 5.7938e-25)
(0.106058 0.00196553 -9.57321e-24)
(0.106144 0.00179297 9.88579e-25)
(0.106222 0.00161436 1.09438e-23)
(0.106292 0.0014292 -1.19492e-25)
(0.106353 0.00123698 2.82566e-24)
(0.106404 0.00103727 -2.31444e-25)
(0.106446 0.000829814 -9.1662e-27)
(0.105889 0.00186855 1.07064e-23)
(0.105973 0.00170522 3.36005e-24)
(0.106048 0.00153617 -3.85238e-24)
(0.106116 0.00136093 -8.24415e-25)
(0.106175 0.001179 -5.11625e-25)
(0.106225 0.000989889 -5.5414e-25)
(0.106266 0.00079324 -2.57265e-25)
(0.105729 0.00177719 1.20559e-24)
(0.10581 0.00162242 -5.73009e-24)
(0.105884 0.00146216 -9.93167e-25)
(0.10595 0.00129606 1.88749e-24)
(0.106008 0.00112361 -2.50006e-24)
(0.106057 0.000944321 -3.57333e-25)
(0.106097 0.000757749 -3.39337e-25)
(0.0999618 0.00512079 0)
(0.10007 0.00527081 0)
(0.100188 0.00542281 0)
(0.100316 0.00557637 0)
(0.100455 0.00573104 0)
(0.100605 0.00588627 0)
(0.100767 0.00604147 0)
(0.100942 0.00619596 0)
(0.101129 0.00634899 0)
(0.101331 0.0064997 0)
(0.101547 0.00664714 0)
(0.101778 0.00679026 0)
(0.102024 0.0069279 0)
(0.102286 0.00705879 0)
(0.102564 0.00718154 0)
(0.102858 0.00729466 0)
(0.103169 0.00739655 0)
(0.103496 0.0074855 0)
(0.103839 0.0075597 0)
(0.104198 0.00761726 0)
(0.104573 0.0076562 0)
(0.104962 0.00767451 0)
(0.105365 0.00767012 0)
(0.10578 0.00764096 0)
(0.106206 0.00758498 0)
(0.106641 0.00750021 0)
(0.107082 0.00738475 0)
(0.107529 0.00723685 0)
(0.107977 0.00705495 0)
(0.108423 0.00683768 0)
(0.108865 0.00658385 0)
(0.109298 0.00629205 0)
(0.10972 0.00595946 0)
(0.110145 0.00557545 0)
(0.100106 0.00501579 0)
(0.100217 0.00515674 0)
(0.100336 0.00529911 0)
(0.100465 0.00544247 0)
(0.100604 0.00558636 0)
(0.100754 0.00573024 0)
(0.100916 0.00587351 0)
(0.101089 0.0060155 0)
(0.101274 0.00615548 0)
(0.101473 0.00629261 0)
(0.101685 0.00642598 0)
(0.10191 0.00655458 0)
(0.10215 0.00667731 0)
(0.102404 0.00679297 0)
(0.102673 0.00690028 0)
(0.102957 0.00699783 0)
(0.103256 0.00708414 0)
(0.103569 0.00715766 0)
(0.103897 0.00721673 0)
(0.104239 0.00725963 0)
(0.104594 0.0072846 0)
(0.104962 0.00728984 0)
(0.105342 0.0072735 0)
(0.105732 0.00723379 0)
(0.106131 0.00716891 0)
(0.106537 0.00707717 0)
(0.106949 0.00695693 0)
(0.107363 0.00680674 0)
(0.107778 0.00662529 0)
(0.10819 0.00641149 0)
(0.108597 0.00616438 0)
(0.108995 0.00588286 0)
(0.109382 0.00556456 0)
(0.109769 0.00520038 0)
(0.100242 0.00490911 0)
(0.100354 0.00504134 0)
(0.100474 0.00517448 0)
(0.100603 0.0053081 0)
(0.100743 0.00544174 0)
(0.100892 0.00557485 0)
(0.101052 0.00570686 0)
(0.101224 0.0058371 0)
(0.101407 0.00596485 0)
(0.101602 0.00608932 0)
(0.101809 0.00620963 0)
(0.102029 0.00632481 0)
(0.102262 0.00643383 0)
(0.102509 0.00653557 0)
(0.102768 0.00662881 0)
(0.103042 0.00671227 0)
(0.103328 0.00678457 0)
(0.103628 0.0068443 0)
(0.103941 0.00688994 0)
(0.104266 0.00691995 0)
(0.104603 0.00693275 0)
(0.104951 0.00692672 0)
(0.105309 0.00690025 0)
(0.105675 0.00685175 0)
(0.106049 0.00677967 0)
(0.106429 0.00668253 0)
(0.106812 0.00655897 0)
(0.107197 0.00640775 0)
(0.107582 0.0062278 0)
(0.107963 0.00601824 0)
(0.108338 0.00577831 0)
(0.108704 0.00550714 0)
(0.109059 0.00520279 0)
(0.109413 0.00485746 0)
(0.10037 0.00480124 0)
(0.100482 0.00492511 0)
(0.100603 0.00504943 0)
(0.100732 0.00517377 0)
(0.100871 0.00529768 0)
(0.101019 0.00542061 0)
(0.101178 0.00554201 0)
(0.101347 0.00566122 0)
(0.101527 0.00577755 0)
(0.101718 0.00589024 0)
(0.10192 0.00599844 0)
(0.102135 0.00610125 0)
(0.102361 0.00619769 0)
(0.1026 0.0062867 0)
(0.10285 0.00636716 0)
(0.103113 0.00643789 0)
(0.103388 0.00649761 0)
(0.103675 0.00654504 0)
(0.103973 0.0065788 0)
(0.104282 0.0065975 0)
(0.104601 0.00659972 0)
(0.10493 0.00658403 0)
(0.105267 0.006549 0)
(0.105612 0.00649325 0)
(0.105962 0.00641542 0)
(0.106317 0.00631426 0)
(0.106674 0.00618859 0)
(0.107032 0.00603738 0)
(0.107389 0.00585976 0)
(0.107741 0.00565501 0)
(0.108088 0.00542257 0)
(0.108425 0.00516174 0)
(0.108751 0.00487094 0)
(0.109075 0.00454347 0)
(0.10049 0.00469264 0)
(0.100602 0.0048085 0)
(0.100723 0.0049244 0)
(0.100852 0.00503993 0)
(0.10099 0.00515461 0)
(0.101136 0.00526795 0)
(0.101293 0.00537937 0)
(0.101459 0.00548825 0)
(0.101636 0.00559393 0)
(0.101822 0.00569567 0)
(0.10202 0.00579268 0)
(0.102228 0.00588409 0)
(0.102448 0.005969 0)
(0.102678 0.00604641 0)
(0.10292 0.00611529 0)
(0.103172 0.00617452 0)
(0.103436 0.00622298 0)
(0.10371 0.00625946 0)
(0.103994 0.00628272 0)
(0.104287 0.00629153 0)
(0.10459 0.0062846 0)
(0.1049 0.00626066 0)
(0.105218 0.00621846 0)
(0.105542 0.00615679 0)
(0.10587 0.00607447 0)
(0.106202 0.00597042 0)
(0.106535 0.00584366 0)
(0.106869 0.00569331 0)
(0.107199 0.00551868 0)
(0.107526 0.0053192 0)
(0.107846 0.00509442 0)
(0.108157 0.00484383 0)
(0.108457 0.00456612 0)
(0.108754 0.00425559 0)
(0.100601 0.00458369 0)
(0.100714 0.0046919 0)
(0.100834 0.0047998 0)
(0.100963 0.00490696 0)
(0.101099 0.00501294 0)
(0.101244 0.00511723 0)
(0.101398 0.00521929 0)
(0.101561 0.00531852 0)
(0.101734 0.00541428 0)
(0.101917 0.00550587 0)
(0.102109 0.00559254 0)
(0.102311 0.00567348 0)
(0.102523 0.00574783 0)
(0.102746 0.00581468 0)
(0.102978 0.00587306 0)
(0.103221 0.00592197 0)
(0.103473 0.00596034 0)
(0.103734 0.00598709 0)
(0.104005 0.00600112 0)
(0.104284 0.00600129 0)
(0.10457 0.00598647 0)
(0.104864 0.00595553 0)
(0.105163 0.00590737 0)
(0.105468 0.00584093 0)
(0.105776 0.00575519 0)
(0.106086 0.00564923 0)
(0.106397 0.00552222 0)
(0.106707 0.00537345 0)
(0.107015 0.00520232 0)
(0.107317 0.00500841 0)
(0.107613 0.00479139 0)
(0.1079 0.00455087 0)
(0.108176 0.00428579 0)
(0.108449 0.0039913 0)
(0.100706 0.00447474 0)
(0.100818 0.00457567 0)
(0.100938 0.00467597 0)
(0.101065 0.00477522 0)
(0.1012 0.00487298 0)
(0.101343 0.00496877 0)
(0.101494 0.00506206 0)
(0.101654 0.00515228 0)
(0.101823 0.00523882 0)
(0.102001 0.00532102 0)
(0.102188 0.00539816 0)
(0.102384 0.00546948 0)
(0.102589 0.0055342 0)
(0.102803 0.00559145 0)
(0.103027 0.00564034 0)
(0.10326 0.00567995 0)
(0.103501 0.00570932 0)
(0.10375 0.00572746 0)
(0.104008 0.00573337 0)
(0.104273 0.00572603 0)
(0.104544 0.00570444 0)
(0.104821 0.00566759 0)
(0.105104 0.00561453 0)
(0.10539 0.00554432 0)
(0.105679 0.00545609 0)
(0.105969 0.00534904 0)
(0.10626 0.00522249 0)
(0.106549 0.00507584 0)
(0.106835 0.00490862 0)
(0.107115 0.0047205 0)
(0.107389 0.00451125 0)
(0.107654 0.00428059 0)
(0.107909 0.00402767 0)
(0.10816 0.00374838 0)
(0.100804 0.00436613 0)
(0.100915 0.00446013 0)
(0.101034 0.00455322 0)
(0.10116 0.004645 0)
(0.101293 0.00473502 0)
(0.101433 0.00482284 0)
(0.101582 0.00490793 0)
(0.101738 0.00498976 0)
(0.101903 0.00506774 0)
(0.102076 0.00514124 0)
(0.102257 0.00520961 0)
(0.102447 0.00527213 0)
(0.102645 0.00532805 0)
(0.102852 0.00537658 0)
(0.103067 0.00541691 0)
(0.10329 0.00544819 0)
(0.103521 0.00546954 0)
(0.103759 0.00548006 0)
(0.104004 0.00547886 0)
(0.104255 0.00546502 0)
(0.104512 0.00543765 0)
(0.104774 0.00539586 0)
(0.10504 0.00533881 0)
(0.105309 0.00526569 0)
(0.105581 0.00517575 0)
(0.105853 0.00506831 0)
(0.106124 0.00494279 0)
(0.106394 0.00479871 0)
(0.106659 0.0046357 0)
(0.10692 0.00445351 0)
(0.107174 0.00425199 0)
(0.107419 0.00403095 0)
(0.107655 0.00378972 0)
(0.107885 0.00352483 0)
(0.100895 0.00425812 0)
(0.101006 0.00434555 0)
(0.101123 0.00443182 0)
(0.101247 0.00451655 0)
(0.101378 0.0045993 0)
(0.101516 0.00467964 0)
(0.101661 0.00475707 0)
(0.101814 0.00483109 0)
(0.101975 0.00490114 0)
(0.102143 0.00496663 0)
(0.102319 0.00502693 0)
(0.102502 0.00508138 0)
(0.102694 0.00512929 0)
(0.102892 0.00516994 0)
(0.103099 0.00520255 0)
(0.103312 0.00522637 0)
(0.103533 0.00524058 0)
(0.10376 0.00524439 0)
(0.103993 0.00523698 0)
(0.104232 0.00521753 0)
(0.104475 0.00518525 0)
(0.104723 0.00513937 0)
(0.104974 0.00507913 0)
(0.105227 0.00500384 0)
(0.105482 0.00491286 0)
(0.105737 0.00480561 0)
(0.10599 0.0046816 0)
(0.106242 0.00454045 0)
(0.10649 0.00438186 0)
(0.106732 0.00420568 0)
(0.106968 0.00401179 0)
(0.107195 0.0038001 0)
(0.107412 0.00357009 0)
(0.107624 0.00331885 0)
(0.10098 0.00415097 0)
(0.101089 0.00423218 0)
(0.101205 0.00431201 0)
(0.101327 0.00439008 0)
(0.101456 0.00446601 0)
(0.101591 0.00453935 0)
(0.101733 0.00460965 0)
(0.101882 0.00467642 0)
(0.102039 0.00473913 0)
(0.102202 0.00479722 0)
(0.102372 0.00485012 0)
(0.10255 0.0048972 0)
(0.102734 0.00493783 0)
(0.102925 0.00497132 0)
(0.103123 0.004997 0)
(0.103328 0.00501414 0)
(0.103539 0.00502203 0)
(0.103755 0.00501993 0)
(0.103977 0.00500712 0)
(0.104203 0.00498286 0)
(0.104434 0.00494645 0)
(0.104668 0.00489721 0)
(0.104905 0.00483448 0)
(0.105143 0.00475766 0)
(0.105383 0.0046662 0)
(0.105622 0.00455961 0)
(0.105859 0.0044375 0)
(0.106094 0.00429955 0)
(0.106325 0.00414555 0)
(0.10655 0.00397538 0)
(0.106769 0.00378901 0)
(0.10698 0.00358638 0)
(0.107181 0.00336713 0)
(0.107377 0.00312883 0)
(0.101058 0.00404489 0)
(0.101167 0.00412021 0)
(0.101281 0.00419396 0)
(0.101401 0.00426579 0)
(0.101527 0.00433532 0)
(0.101659 0.00440213 0)
(0.101798 0.00446578 0)
(0.101944 0.00452582 0)
(0.102095 0.00458174 0)
(0.102254 0.00463302 0)
(0.102419 0.00467913 0)
(0.10259 0.00471949 0)
(0.102768 0.0047535 0)
(0.102952 0.00478054 0)
(0.103142 0.00479999 0)
(0.103337 0.00481118 0)
(0.103539 0.00481347 0)
(0.103745 0.00480619 0)
(0.103956 0.00478869 0)
(0.104171 0.00476033 0)
(0.104389 0.00472047 0)
(0.104611 0.00466851 0)
(0.104834 0.00460389 0)
(0.105059 0.00452608 0)
(0.105284 0.00443462 0)
(0.105508 0.0043291 0)
(0.10573 0.00420919 0)
(0.10595 0.00407465 0)
(0.106165 0.00392532 0)
(0.106376 0.00376114 0)
(0.106579 0.00358213 0)
(0.106775 0.00338828 0)
(0.106961 0.00317933 0)
(0.107141 0.00295332 0)
(0.101131 0.00394007 0)
(0.101238 0.00400982 0)
(0.10135 0.00407785 0)
(0.101468 0.00414382 0)
(0.101592 0.00420735 0)
(0.101721 0.00426807 0)
(0.101857 0.00432554 0)
(0.101998 0.00437933 0)
(0.102146 0.00442899 0)
(0.102299 0.00447402 0)
(0.102458 0.00451391 0)
(0.102624 0.00454814 0)
(0.102795 0.00457615 0)
(0.102972 0.00459737 0)
(0.103154 0.00461122 0)
(0.103341 0.00461712 0)
(0.103533 0.00461446 0)
(0.10373 0.00460266 0)
(0.103931 0.00458112 0)
(0.104135 0.00454928 0)
(0.104342 0.00450656 0)
(0.104551 0.00445245 0)
(0.104762 0.00438646 0)
(0.104974 0.00430813 0)
(0.105185 0.00421706 0)
(0.105396 0.00411293 0)
(0.105604 0.00399547 0)
(0.10581 0.00386448 0)