/*--------------------------------*- C++ -*----------------------------------*\
| =========                 |                                                 |
| \\      /  F ield         | OpenFOAM: The Open Source CFD Toolbox           |
|  \\    /   O peration     | Version:  2412                                  |
|   \\  /    A nd           | Website:  www.openfoam.com                      |
|    \\/     M anipulation  |                                                 |
\*---------------------------------------------------------------------------*/
FoamFile
{
    version     2.0;
    format      ascii;
    arch        "LSB;label=32;scalar=64";
    class       volScalarField;
    location    "14.5";
    object      p;
}
// * * * * * * * * * * * * * * * * * * * * * * * * * * * * * * * * * * * * * //

dimensions      [0 2 -2 0 0 0 0];

internalField   nonuniform List<scalar> 
5285
(
0.000970509
0.000970766
0.000971586
0.000972852
0.000974548
0.00097666
0.000979173
0.000982071
0.000985342
0.00098897
0.000992946
0.000997259
0.0010019
0.00100688
0.00101218
0.00101781
0.00102376
0.00103004
0.00103665
0.00104358
0.00105083
0.00105841
0.00106632
0.00107456
0.00108312
0.00109202
0.00110125
0.00111082
0.00112072
0.00113097
0.00114156
0.0011525
0.00116379
0.00117543
0.00118743
0.00119979
0.00121252
0.00122562
0.00123909
0.00125293
0.00126716
0.00128178
0.00129679
0.00131219
0.00132799
0.00134419
0.00136081
0.00137783
0.00139528
0.00141315
0.00143145
0.00145018
0.00146935
0.00148896
0.00150902
0.000970449
0.000970706
0.000971525
0.000972791
0.000974486
0.000976597
0.000979107
0.000982003
0.000985271
0.000988897
0.00099287
0.00099718
0.00100182
0.00100679
0.00101209
0.00101771
0.00102366
0.00102994
0.00103654
0.00104346
0.00105071
0.00105828
0.00106618
0.00107441
0.00108297
0.00109185
0.00110108
0.00111063
0.00112053
0.00113076
0.00114134
0.00115226
0.00116354
0.00117517
0.00118715
0.00119949
0.0012122
0.00122528
0.00123873
0.00125256
0.00126676
0.00128136
0.00129634
0.00131171
0.00132748
0.00134366
0.00136024
0.00137723
0.00139464
0.00141247
0.00143073
0.00144941
0.00146854
0.0014881
0.00150811
0.00097033
0.000970587
0.000971405
0.000972669
0.000974361
0.000976469
0.000978976
0.000981868
0.00098513
0.000988751
0.000992718
0.000997021
0.00100166
0.00100662
0.00101191
0.00101752
0.00102346
0.00102972
0.00103631
0.00104322
0.00105046
0.00105802
0.0010659
0.00107411
0.00108265
0.00109152
0.00110073
0.00111026
0.00112013
0.00113034
0.0011409
0.00115179
0.00116304
0.00117464
0.00118659
0.0011989
0.00121157
0.00122461
0.00123802
0.00125181
0.00126597
0.00128051
0.00129544
0.00131076
0.00132647
0.00134259
0.0013591
0.00137603
0.00139336
0.00141111
0.00142929
0.00144789
0.00146692
0.00148638
0.00150628
0.000970152
0.000970408
0.000971225
0.000972486
0.000974174
0.000976277
0.000978779
0.000981664
0.00098492
0.000988532
0.000992489
0.000996783
0.00100141
0.00100636
0.00101164
0.00101724
0.00102316
0.00102941
0.00103598
0.00104287
0.00105008
0.00105762
0.00106549
0.00107367
0.00108219
0.00109103
0.0011002
0.0011097
0.00111954
0.00112972
0.00114023
0.00115109
0.00116229
0.00117385
0.00118575
0.00119801
0.00121063
0.00122361
0.00123696
0.00125068
0.00126477
0.00127924
0.00129409
0.00130933
0.00132496
0.00134098
0.0013574
0.00137422
0.00139145
0.00140909
0.00142714
0.00144561
0.0014645
0.00148381
0.00150356
0.000969915
0.00097017
0.000970984
0.000972242
0.000973925
0.000976022
0.000978516
0.000981393
0.000984639
0.00098824
0.000992186
0.000996466
0.00100108
0.00100601
0.00101127
0.00101685
0.00102276
0.00102898
0.00103553
0.0010424
0.00104959
0.0010571
0.00106493
0.00107309
0.00108156
0.00109037
0.0010995
0.00110896
0.00111876
0.00112889
0.00113935
0.00115016
0.0011613
0.0011728
0.00118464
0.00119683
0.00120938
0.00122228
0.00123555
0.00124918
0.00126318
0.00127756
0.00129231
0.00130744
0.00132295
0.00133885
0.00135514
0.00137183
0.00138891
0.00140639
0.00142428
0.00144258
0.00146129
0.00148041
0.00149994
0.000969618
0.000969873
0.000970684
0.000971937
0.000973615
0.000975704
0.000978189
0.000981055
0.000984288
0.000987876
0.000991807
0.000996071
0.00100066
0.00100558
0.00101082
0.00101638
0.00102226
0.00102846
0.00103498
0.00104181
0.00104897
0.00105644
0.00106424
0.00107235
0.00108079
0.00108955
0.00109863
0.00110804
0.00111778
0.00112785
0.00113825
0.00114899
0.00116007
0.00117149
0.00118325
0.00119536
0.00120781
0.00122063
0.00123379
0.00124732
0.00126121
0.00127546
0.00129009
0.00130508
0.00132045
0.0013362
0.00135234
0.00136885
0.00138575
0.00140305
0.00142074
0.00143882
0.0014573
0.00147618
0.00149546
0.000969263
0.000969517
0.000970324
0.000971572
0.000973242
0.000975323
0.000977796
0.000980649
0.000983868
0.00098744
0.000991352
0.000995597
0.00100017
0.00100506
0.00101028
0.00101581
0.00102166
0.00102783
0.00103431
0.00104111
0.00104823
0.00105566
0.00106341
0.00107147
0.00107986
0.00108856
0.00109759
0.00110694
0.00111661
0.00112661
0.00113694
0.0011476
0.00115859
0.00116992
0.00118159
0.0011936
0.00120595
0.00121865
0.00123169
0.00124509
0.00125885
0.00127296
0.00128743
0.00130227
0.00131747
0.00133304
0.00134899
0.0013653
0.00138199
0.00139906
0.00141651
0.00143435
0.00145256
0.00147116
0.00149013
0.00152959
0.00155089
0.0015731
0.00159631
0.00162054
0.00164585
0.00167233
0.00170004
0.00172906
0.00175947
0.00179136
0.00182484
0.00186002
0.00189699
0.00193591
0.00197689
0.00152865
0.00154995
0.00157219
0.00159537
0.00161959
0.0016449
0.00167138
0.00169908
0.00172809
0.0017585
0.00179039
0.00182386
0.00185902
0.00189599
0.00193488
0.00197585
0.00152678
0.00154808
0.0015703
0.00159348
0.00161769
0.001643
0.00166946
0.00169716
0.00172616
0.00175656
0.00178843
0.00182189
0.00185703
0.00189397
0.00193283
0.00197376
0.00152397
0.00154526
0.00156746
0.00159064
0.00161484
0.00164014
0.00166659
0.00169427
0.00172326
0.00175363
0.00178548
0.00181891
0.00185401
0.00189091
0.00192972
0.00197058
0.00152024
0.00154152
0.00156372
0.00158688
0.00161107
0.00163636
0.0016628
0.00169047
0.00171944
0.0017498
0.00178162
0.00181502
0.00185009
0.00188694
0.00192569
0.00196648
0.00151561
0.00153689
0.00155909
0.00158227
0.00160647
0.00163178
0.00165824
0.00168594
0.00171493
0.00174532
0.00177718
0.00181061
0.00184571
0.00188258
0.00192136
0.00196216
0.00151006
0.00153127
0.00155342
0.00157654
0.00160069
0.00162595
0.00165236
0.00168001
0.00170896
0.00173929
0.0017711
0.00180447
0.00183951
0.00187633
0.00191503
0.00195576
0.00150346
0.00152431
0.00154606
0.00156875
0.00159244
0.00161718
0.00164303
0.00167006
0.00169832
0.0017279
0.00175887
0.00179132
0.00182532
0.00186098
0.0018984
0.00193768
0.00149574
0.00151614
0.0015374
0.00155956
0.00158268
0.0016068
0.00163197
0.00165826
0.00168572
0.00171442
0.00174443
0.00177582
0.00180867
0.00184306
0.00187907
0.00191679
0.00148712
0.00150699
0.00152767
0.00154921
0.00157165
0.00159504
0.00161942
0.00164484
0.00167136
0.00169904
0.00172792
0.00175809
0.00178959
0.0018225
0.00185689
0.00189283
0.00147765
0.00149694
0.001517
0.00153787
0.00155958
0.00158217
0.00160569
0.00163018
0.00165569
0.00168226
0.00170994
0.00173878
0.00176884
0.00180017
0.00183282
0.00186684
0.00146737
0.00148605
0.00150545
0.00152559
0.00154653
0.00156828
0.00159089
0.00161439
0.00163882
0.00166422
0.00169063
0.00171809
0.00174663
0.0017763
0.00180713
0.00183915
0.00145634
0.00147436
0.00149305
0.00151244
0.00153256
0.00155342
0.00157507
0.00159753
0.00162084
0.00164501
0.00167009
0.00169609
0.00172305
0.001751
0.00177994
0.0018099
0.0014446
0.00146193
0.00147988
0.00149848
0.00151773
0.00153767
0.00155832
0.00157969
0.00160183
0.00162473
0.00164843
0.00167293
0.00169827
0.00172443
0.00175144
0.0017793
0.0014322
0.00144881
0.001466
0.00148376
0.00150212
0.0015211
0.00154071
0.00156097
0.0015819
0.00160349
0.00162578
0.00164875
0.00167242
0.00169678
0.00172183
0.00174754
0.00141918
0.00143506
0.00145145
0.00146836
0.0014858
0.0015038
0.00152235
0.00154146
0.00156115
0.00158142
0.00160226
0.00162368
0.00164566
0.0016682
0.00169127
0.00171484
0.00140561
0.00142073
0.0014363
0.00145234
0.00146885
0.00148583
0.0015033
0.00152126
0.0015397
0.00155862
0.00157801
0.00159786
0.00161815
0.00163886
0.00165996
0.0016814
0.00139153
0.00140587
0.00142061
0.00143577
0.00145132
0.00146729
0.00148367
0.00150045
0.00151763
0.00153519
0.00155313
0.00157142
0.00159002
0.00160892
0.00162806
0.00164739
0.00137699
0.00139055
0.00140445
0.00141871
0.00143331
0.00144825
0.00146353
0.00147913
0.00149505
0.00151126
0.00152775
0.00154448
0.00156142
0.00157852
0.00159574
0.001613
0.00136205
0.00137482
0.00138787
0.00140123
0.00141486
0.00142878
0.00144296
0.00145739
0.00147206
0.00148693
0.00150198
0.00151717
0.00153247
0.00154781
0.00156314
0.00157839
0.00134676
0.00135872
0.00137094
0.00138339
0.00139606
0.00140895
0.00142204
0.00143531
0.00144874
0.00146228
0.00147592
0.00148961
0.00150329
0.00151692
0.00153042
0.00154371
0.00133116
0.00134233
0.0013537
0.00136525
0.00137697
0.00138885
0.00140086
0.00141298
0.00142518
0.00143743
0.00144968
0.0014619
0.00147401
0.00148598
0.0014977
0.00150911
0.0013153
0.00132568
0.00133621
0.00134687
0.00135765
0.00136853
0.00137947
0.00139047
0.00140147
0.00141245
0.00142335
0.00143413
0.00144474
0.00145509
0.00146511
0.00147472
0.00129924
0.00130883
0.00131853
0.00132832
0.00133816
0.00134805
0.00135796
0.00136785
0.00137768
0.00138742
0.00139702
0.00140642
0.00141556
0.00142436
0.00143275
0.00144064
0.00128301
0.00129183
0.00130071
0.00130963
0.00131857
0.00132749
0.00133638
0.00134519
0.00135389
0.00136243
0.00137077
0.00137883
0.00138657
0.00139389
0.00140073
0.00140698
0.00126666
0.00127472
0.0012828
0.00129087
0.00129891
0.0013069
0.0013148
0.00132257
0.00133017
0.00133755
0.00134467
0.00135145
0.00135785
0.00136376
0.00136913
0.00137384
0.00125022
0.00125754
0.00126483
0.00127208
0.00127926
0.00128633
0.00129327
0.00130003
0.00130657
0.00131284
0.00131879
0.00132436
0.00132947
0.00133405
0.00133802
0.00134128
0.00123375
0.00124033
0.00124686
0.00125331
0.00125964
0.00126583
0.00127184
0.00127763
0.00128315
0.00128836
0.00129319
0.0012976
0.0013015
0.00130482
0.00130747
0.00130937
0.00121726
0.00122314
0.00122893
0.00123459
0.00124011
0.00124544
0.00125056
0.00125542
0.00125996
0.00126416
0.00126793
0.00127123
0.00127399
0.00127612
0.00127755
0.00127818
0.00120081
0.001206
0.00121106
0.00121598
0.00122071
0.00122522
0.00122948
0.00123344
0.00123706
0.00124028
0.00124306
0.00124531
0.00124699
0.00124801
0.00124829
0.00124774
0.00118442
0.00118894
0.00119331
0.00119749
0.00120146
0.00120519
0.00120863
0.00121174
0.00121447
0.00121678
0.0012186
0.00121988
0.00122055
0.00122053
0.00121974
0.00121809
0.00116811
0.00117199
0.00117569
0.00117917
0.00118242
0.00118539
0.00118805
0.00119035
0.00119224
0.00119368
0.00119461
0.00119497
0.00119469
0.0011937
0.00119192
0.00118927
0.00115193
0.00115518
0.00115823
0.00116105
0.0011636
0.00116585
0.00116777
0.0011693
0.0011704
0.00117102
0.00117111
0.00117061
0.00116945
0.00116756
0.00116487
0.00116129
0.00113588
0.00113854
0.00114097
0.00114315
0.00114504
0.00114661
0.00114781
0.00114862
0.00114897
0.00114883
0.00114813
0.00114682
0.00114484
0.00114212
0.00113859
0.00113417
0.00112
0.00112209
0.00112393
0.00112549
0.00112675
0.00112767
0.00112821
0.00112833
0.00112798
0.00112712
0.00112569
0.00112363
0.0011209
0.00111741
0.00111311
0.00110791
0.00110431
0.00110585
0.00110712
0.00110811
0.00110877
0.00110907
0.00110898
0.00110845
0.00110744
0.00110591
0.00110379
0.00110105
0.00109762
0.00109343
0.00108842
0.00108253
0.00108882
0.00108983
0.00109057
0.001091
0.0010911
0.00109082
0.00109013
0.001089
0.00108738
0.00108522
0.00108247
0.00107909
0.00107501
0.00107018
0.00106454
0.00105801
0.000968839
0.000969092
0.000969895
0.000971136
0.000972798
0.000974868
0.000977328
0.000980166
0.000983368
0.00098692
0.000990811
0.000995033
0.000999578
0.00100444
0.00100963
0.00101513
0.00102094
0.00102707
0.00103352
0.00104027
0.00104734
0.00105472
0.00106242
0.00107043
0.00107875
0.00108739
0.00109635
0.00110562
0.00111522
0.00112514
0.00113538
0.00114594
0.00115683
0.00116806
0.00117961
0.0011915
0.00120373
0.00121629
0.0012292
0.00124245
0.00125605
0.00126999
0.00128428
0.00129893
0.00131394
0.0013293
0.00134501
0.00136109
0.00137754
0.00139434
0.00141151
0.00142905
0.00144695
0.00146522
0.00148385
0.000968341
0.000968594
0.000969391
0.000970625
0.000972277
0.000974333
0.000976779
0.000979599
0.00098278
0.000986309
0.000990176
0.00099437
0.000998886
0.00100372
0.00100887
0.00101433
0.0010201
0.00102619
0.00103259
0.00103929
0.0010463
0.00105363
0.00106126
0.0010692
0.00107746
0.00108602
0.0010949
0.00110408
0.00111359
0.00112341
0.00113354
0.001144
0.00115478
0.00116588
0.0011773
0.00118905
0.00120113
0.00121354
0.00122628
0.00123936
0.00125277
0.00126652
0.00128061
0.00129504
0.00130981
0.00132492
0.00134038
0.00135619
0.00137234
0.00138884
0.00140569
0.00142288
0.00144043
0.00145832
0.00147656
0.00096778
0.000968031
0.000968822
0.000970048
0.000971689
0.000973731
0.000976159
0.000978959
0.000982117
0.000985621
0.000989459
0.000993623
0.000998106
0.0010029
0.00100801
0.00101343
0.00101916
0.00102519
0.00103154
0.00103818
0.00104514
0.00105239
0.00105996
0.00106782
0.001076
0.00108448
0.00109326
0.00110235
0.00111175
0.00112147
0.00113149
0.00114182
0.00115247
0.00116343
0.00117471
0.0011863
0.00119822
0.00121045
0.00122301
0.00123589
0.0012491
0.00126263
0.00127649
0.00129067
0.00130518
0.00132003
0.0013352
0.0013507
0.00136653
0.00138269
0.00139918
0.001416
0.00143315
0.00145062
0.00146842
0.000967156
0.000967405
0.00096819
0.000969407
0.000971035
0.000973061
0.00097547
0.000978248
0.00098138
0.000984856
0.000988663
0.000992793
0.000997238
0.001002
0.00100706
0.00101243
0.00101811
0.00102409
0.00103037
0.00103696
0.00104384
0.00105102
0.00105851
0.00106629
0.00107438
0.00108276
0.00109145
0.00110043
0.00110972
0.00111931
0.00112921
0.0011394
0.00114991
0.00116072
0.00117183
0.00118326
0.00119499
0.00120704
0.00121939
0.00123206
0.00124504
0.00125833
0.00127193
0.00128585
0.00130008
0.00131462
0.00132948
0.00134465
0.00136013
0.00137592
0.00139202
0.00140843
0.00142514
0.00144215
0.00145947
0.000966469
0.000966716
0.000967495
0.000968701
0.000970315
0.000972324
0.000974712
0.000977465
0.00098057
0.000984015
0.000987788
0.00099188
0.000996285
0.001001
0.00100601
0.00101133
0.00101695
0.00102287
0.00102909
0.0010356
0.00104241
0.00104952
0.00105692
0.00106461
0.0010726
0.00108088
0.00108946
0.00109833
0.00110749
0.00111695
0.00112671
0.00113676
0.0011471
0.00115775
0.00116869
0.00117993
0.00119147
0.0012033
0.00121544
0.00122787
0.0012406
0.00125363
0.00126696
0.00128059
0.00129451
0.00130873
0.00132325
0.00133806
0.00135316
0.00136855
0.00138423
0.00140019
0.00141643
0.00143296
0.00144976
0.00096572
0.000965965
0.000966736
0.000967931
0.00096953
0.00097152
0.000973886
0.000976612
0.000979687
0.000983098
0.000986834
0.000990886
0.000995246
0.00099991
0.00100488
0.00101014
0.0010157
0.00102155
0.0010277
0.00103414
0.00104086
0.00104788
0.00105519
0.00106278
0.00107067
0.00107884
0.00108729
0.00109604
0.00110507
0.00111439
0.00112399
0.00113388
0.00114406
0.00115453
0.00116528
0.00117632
0.00118764
0.00119926
0.00121115
0.00122334
0.00123581
0.00124856
0.00126159
0.00127491
0.0012885
0.00130238
0.00131653
0.00133095
0.00134564
0.00136061
0.00137583
0.00139132
0.00140707
0.00142307
0.00143932
0.000964909
0.000965152
0.000965915
0.000967099
0.000968681
0.000970651
0.000972992
0.00097569
0.000978733
0.000982107
0.000985803
0.000989811
0.000994123
0.000998735
0.00100364
0.00100885
0.00101434
0.00102012
0.00102619
0.00103255
0.00103919
0.00104611
0.00105332
0.00106081
0.00106858
0.00107663
0.00108496
0.00109357
0.00110246
0.00111163
0.00112107
0.00113079
0.00114079
0.00115106
0.00116161
0.00117244
0.00118354
0.00119491
0.00120655
0.00121847
0.00123066
0.00124311
0.00125583
0.00126881
0.00128206
0.00129557
0.00130933
0.00132334
0.00133761
0.00135212
0.00136687
0.00138186
0.00139709
0.00141254
0.00142821
0.000964038
0.000964278
0.000965033
0.000966203
0.000967769
0.000969717
0.000972031
0.000974699
0.000977707
0.000981043
0.000984695
0.000988656
0.000992917
0.000997474
0.00100232
0.00100746
0.00101288
0.00101859
0.00102458
0.00103085
0.00103739
0.00104422
0.00105132
0.0010587
0.00106635
0.00107427
0.00108247
0.00109093
0.00109967
0.00110867
0.00111794
0.00112748
0.00113729
0.00114736
0.0011577
0.00116829
0.00117915
0.00119027
0.00120165
0.00121328
0.00122517
0.00123731
0.0012497
0.00126233
0.00127521
0.00128833
0.00130169
0.00131527
0.00132909
0.00134312
0.00135738
0.00137184
0.00138652
0.00140139
0.00141646
0.000963106
0.000963343
0.00096409
0.000965246
0.000966793
0.000968718
0.000971005
0.00097364
0.000976611
0.000979905
0.000983512
0.000987423
0.000991629
0.000996126
0.00100091
0.00100598
0.00101132
0.00101695
0.00102285
0.00102903
0.00103548
0.0010422
0.00104919
0.00105645
0.00106397
0.00107176
0.00107981
0.00108812
0.0010967
0.00110553
0.00111462
0.00112397
0.00113357
0.00114343
0.00115354
0.0011639
0.0011745
0.00118535
0.00119645
0.00120779
0.00121936
0.00123117
0.00124321
0.00125548
0.00126798
0.00128069
0.00129362
0.00130676
0.0013201
0.00133364
0.00134738
0.0013613
0.00137541
0.00138968
0.00140412
0.000962115
0.000962349
0.000963086
0.000964228
0.000965755
0.000967656
0.000969913
0.000972514
0.000975446
0.000978697
0.000982255
0.000986113
0.000990261
0.000994695
0.00099941
0.0010044
0.00100967
0.00101521
0.00102102
0.0010271
0.00103345
0.00104006
0.00104693
0.00105406
0.00106145
0.00106909
0.00107699
0.00108515
0.00109355
0.00110221
0.00111111
0.00112025
0.00112964
0.00113928
0.00114915
0.00115925
0.0011696
0.00118017
0.00119097
0.001202
0.00121325
0.00122471
0.00123639
0.00124828
0.00126037
0.00127266
0.00128515
0.00129782
0.00131068
0.00132371
0.00133691
0.00135027
0.00136379
0.00137745
0.00139124
0.000961065
0.000961296
0.000962023
0.00096315
0.000964656
0.000966531
0.000968757
0.000971322
0.000974213
0.000977417
0.000980925
0.000984726
0.000988814
0.000993181
0.000997824
0.00100274
0.00100792
0.00101337
0.00101909
0.00102507
0.0010313
0.00103779
0.00104454
0.00105154
0.00105879
0.00106629
0.00107403
0.00108201
0.00109024
0.00109871
0.00110741
0.00111634
0.00112551
0.00113491
0.00114453
0.00115438
0.00116445
0.00117473
0.00118522
0.00119593
0.00120684
0.00121795
0.00122925
0.00124074
0.00125242
0.00126428
0.00127631
0.0012885
0.00130086
0.00131336
0.00132601
0.0013388
0.00135171
0.00136474
0.00137787
0.000959957
0.000960185
0.000960902
0.000962012
0.000963497
0.000965344
0.000967538
0.000970065
0.000972912
0.000976069
0.000979523
0.000983265
0.000987288
0.000991586
0.000996153
0.00100099
0.00100608
0.00101144
0.00101706
0.00102292
0.00102905
0.00103542
0.00104203
0.00104889
0.00105599
0.00106334
0.00107091
0.00107872
0.00108677
0.00109503
0.00110353
0.00111225
0.00112119
0.00113034
0.00113971
0.00114928
0.00115906
0.00116904
0.00117922
0.00118959
0.00120015
0.00121089
0.00122181
0.0012329
0.00124415
0.00125556
0.00126712
0.00127882
0.00129066
0.00130263
0.00131471
0.00132691
0.00133921
0.00135159
0.00136406
0.000958792
0.000959016
0.000959722
0.000960816
0.000962278
0.000964097
0.000966257
0.000968744
0.000971546
0.000974652
0.00097805
0.000981731
0.000985687
0.000989911
0.0009944
0.000999148
0.00100415
0.00100941
0.00101492
0.00102068
0.00102668
0.00103292
0.0010394
0.00104612
0.00105307
0.00106025
0.00106766
0.00107528
0.00108313
0.0010912
0.00109948
0.00110797
0.00111667
0.00112557
0.00113467
0.00114397
0.00115345
0.00116313
0.00117298
0.00118301
0.0011932
0.00120357
0.00121409
0.00122476
0.00123557
0.00124652
0.00125761
0.00126881
0.00128012
0.00129154
0.00130305
0.00131465
0.00132632
0.00133806
0.00134985
0.00095757
0.000957791
0.000958486
0.000959562
0.000961
0.00096279
0.000964914
0.00096736
0.000970115
0.000973168
0.000976508
0.000980125
0.00098401
0.000988159
0.000992565
0.000997225
0.00100213
0.00100729
0.00101269
0.00101833
0.00102421
0.00103032
0.00103666
0.00104323
0.00105002
0.00105703
0.00106426
0.0010717
0.00107935
0.00108721
0.00109527
0.00110353
0.00111198
0.00112062
0.00112945
0.00113845
0.00114764
0.00115699
0.00116651
0.00117618
0.00118601
0.00119599
0.0012061
0.00121635
0.00122672
0.0012372
0.0012478
0.00125849
0.00126927
0.00128013
0.00129107
0.00130206
0.0013131
0.00132418
0.00133529
0.000956293
0.00095651
0.000957193
0.000958251
0.000959665
0.000961424
0.000963511
0.000965914
0.000968621
0.000971619
0.000974898
0.000978448
0.000982261
0.00098633
0.000990651
0.000995219
0.00100003
0.00100508
0.00101037
0.00101589
0.00102164
0.00102761
0.00103381
0.00104022
0.00104685
0.00105369
0.00106073
0.00106798
0.00107543
0.00108307
0.0010909
0.00109892
0.00110711
0.00111549
0.00112404
0.00113275
0.00114162
0.00115065
0.00115982
0.00116914
0.00117859
0.00118817
0.00119787
0.00120769
0.0012176
0.00122762
0.00123772
0.00124789
0.00125814
0.00126844
0.00127879
0.00128917
0.00129958
0.00131
0.00132042
0.000954962
0.000955175
0.000955846
0.000956885
0.000958273
0.00096
0.000962049
0.000964408
0.000967064
0.000970006
0.000973222
0.000976702
0.00098044
0.000984427
0.000988659
0.000993132
0.000997841
0.00100278
0.00100795
0.00101335
0.00101897
0.0010248
0.00103084
0.0010371
0.00104356
0.00105022
0.00105708
0.00106413
0.00107136
0.00107878
0.00108638
0.00109415
0.00110209
0.00111019
0.00111845
0.00112686
0.00113542
0.00114411
0.00115294
0.00116189
0.00117096
0.00118014
0.00118942
0.0011988
0.00120826
0.00121779
0.00122739
0.00123705
0.00124675
0.00125649
0.00126625
0.00127602
0.0012858
0.00129556
0.00130529
0.000953577
0.000953786
0.000954444
0.000955464
0.000956826
0.00095852
0.00096053
0.000962842
0.000965446
0.000968329
0.00097148
0.00097489
0.000978549
0.000982452
0.000986593
0.000990967
0.000995571
0.0010004
0.00100545
0.00101072
0.0010162
0.00102189
0.00102778
0.00103387
0.00104016
0.00104664
0.0010533
0.00106014
0.00106717
0.00107436
0.00108172
0.00108924
0.00109691
0.00110474
0.0011127
0.00112081
0.00112904
0.0011374
0.00114587
0.00115445
0.00116314
0.00117191
0.00118077
0.0011897
0.0011987
0.00120775
0.00121685
0.00122598
0.00123514
0.00124431
0.00125349
0.00126265
0.00127179
0.0012809
0.00128995
0.000952139
0.000952344
0.00095299
0.000953989
0.000955324
0.000956984
0.000958953
0.000961219
0.000963769
0.000966591
0.000969675
0.000973011
0.00097659
0.000980406
0.000984453
0.000988726
0.000993221
0.000997935
0.00100286
0.001008
0.00101334
0.00101888
0.00102461
0.00103054
0.00103665
0.00104294
0.0010494
0.00105604
0.00106284
0.0010698
0.00107692
0.00108418
0.00109159
0.00109913
0.0011068
0.00111459
0.0011225
0.00113052
0.00113863
0.00114684
0.00115513
0.00116349
0.00117193
0.00118041
0.00118895
0.00119752
0.00120611
0.00121472
0.00122334
0.00123195
0.00124053
0.00124909
0.0012576
0.00126606
0.00127444
0.00095065
0.000950851
0.000951483
0.000952461
0.000953769
0.000955394
0.000957321
0.000959538
0.000962033
0.000964793
0.000967808
0.000971069
0.000974565
0.000978291
0.000982242
0.000986411
0.000990795
0.00099539
0.00100019
0.00100519
0.00101039
0.00101577
0.00102135
0.0010271
0.00103303
0.00103913
0.0010454
0.00105182
0.0010584
0.00106513
0.001072
0.001079
0.00108613
0.00109338
0.00110075
0.00110823
0.00111581
0.00112348
0.00113123
0.00113906
0.00114696
0.00115491
0.00116292
0.00117096
0.00117903
0.00118711
0.00119521
0.0012033
0.00121137
0.00121941
0.00122742
0.00123537
0.00124326
0.00125108
0.0012588
0.000949111
0.000949307
0.000949925
0.000950883
0.000952161
0.00095375
0.000955635
0.000957802
0.00096024
0.000962937
0.000965881
0.000969064
0.000972476
0.00097611
0.000979961
0.000984025
0.000988295
0.000992768
0.000997438
0.0010023
0.00100735
0.00101258
0.00101799
0.00102357
0.00102932
0.00103523
0.00104129
0.0010475
0.00105385
0.00106033
0.00106695
0.00107369
0.00108055
0.00108751
0.00109458
0.00110173
0.00110898
0.0011163
0.00112369
0.00113114
0.00113864
0.00114619
0.00115376
0.00116135
0.00116896
0.00117656
0.00118416
0.00119173
0.00119926
0.00120675
0.00121418
0.00122154
0.00122881
0.00123599
0.00124306
0.000947522
0.000947714
0.000948318
0.000949253
0.000950503
0.000952055
0.000953895
0.000956012
0.000958391
0.000961023
0.000963895
0.000966998
0.000970324
0.000973864
0.000977614
0.000981569
0.000985723
0.000990072
0.00099461
0.000999333
0.00100423
0.00100931
0.00101455
0.00101995
0.00102551
0.00103122
0.00103708
0.00104307
0.00104919
0.00105543
0.00106179
0.00106827
0.00107484
0.00108151
0.00108827
0.00109511
0.00110202
0.001109
0.00111602
0.00112309
0.0011302
0.00113733
0.00114447
0.00115162
0.00115876
0.00116589
0.00117298
0.00118004
0.00118704
0.00119398
0.00120084
0.00120761
0.00121428
0.00122083
0.00122726
0.000945885
0.000946073
0.000946662
0.000947575
0.000948794
0.000950309
0.000952104
0.000954168
0.000956489
0.000959054
0.000961852
0.000964874
0.000968111
0.000971556
0.000975203
0.000979046
0.000983082
0.000987304
0.000991708
0.000996288
0.00100104
0.00100595
0.00101102
0.00101625
0.00102162
0.00102713
0.00103277
0.00103854
0.00104443
0.00105043
0.00105653
0.00106274
0.00106903
0.00107541
0.00108186
0.00108838
0.00109495
0.00110157
0.00110823
0.00111492
0.00112163
0.00112835
0.00113507
0.00114178
0.00114846
0.00115511
0.00116171
0.00116826
0.00117473
0.00118113
0.00118743
0.00119362
0.0011997
0.00120564
0.00121144
0.000944201
0.000944384
0.000944959
0.000945849
0.000947037
0.000948514
0.000950263
0.000952274
0.000954533
0.00095703
0.000959753
0.000962693
0.000965839
0.000969187
0.000972728
0.00097646
0.000980375
0.000984468
0.000988735
0.00099317
0.000997766
0.00100252
0.00100742
0.00101246
0.00101764
0.00102294
0.00102837
0.00103392
0.00103957
0.00104533
0.00105118
0.00105711
0.00106312
0.0010692
0.00107534
0.00108154
0.00108778
0.00109405
0.00110034
0.00110666
0.00111297
0.00111928
0.00112557
0.00113184
0.00113807
0.00114424
0.00115036
0.0011564
0.00116236
0.00116822
0.00117397
0.0011796
0.0011851
0.00119045
0.00119564
0.000942471
0.000942649
0.000943209
0.000944076
0.000945233
0.00094667
0.000948373
0.000950329
0.000952527
0.000954955
0.000957601
0.000960456
0.000963511
0.000966759
0.000970194
0.000973811
0.000977603
0.000981567
0.000985695
0.000989982
0.000994422
0.000999008
0.00100373
0.00100859
0.00101358
0.00101868
0.0010239
0.00102922
0.00103463
0.00104014
0.00104573
0.00105139
0.00105712
0.0010629
0.00106873
0.00107461
0.00108051
0.00108643
0.00109236
0.0010983
0.00110422
0.00111012
0.001116
0.00112183
0.00112761
0.00113332
0.00113895
0.0011445
0.00114995
0.00115529
0.0011605
0.00116558
0.00117051
0.00117527
0.00117987
0.000940697
0.00094087
0.000941414
0.000942257
0.000943383
0.00094478
0.000946435
0.000948336
0.000950471
0.000952828
0.000955397
0.000958166
0.000961128
0.000964275
0.000967602
0.000971102
0.000974771
0.000978602
0.00098259
0.000986728
0.000991011
0.00099543
0.000999979
0.00100465
0.00100944
0.00101434
0.00101934
0.00102443
0.00102961
0.00103487
0.0010402
0.00104559
0.00105103
0.00105652
0.00106204
0.00106759
0.00107316
0.00107873
0.00108431
0.00108987
0.0010954
0.0011009
0.00110636
0.00111176
0.00111709
0.00112235
0.00112751
0.00113257
0.00113752
0.00114235
0.00114703
0.00115157
0.00115595
0.00116015
0.00116417
0.000938878
0.000939047
0.000939576
0.000940395
0.000941488
0.000942844
0.000944451
0.000946296
0.000948367
0.000950653
0.000953142
0.000955825
0.000958692
0.000961737
0.000964954
0.000968337
0.00097188
0.000975577
0.000979423
0.000983411
0.000987534
0.000991786
0.000996158
0.00100064
0.00100524
0.00100993
0.00101471
0.00101958
0.00102452
0.00102953
0.00103459
0.00103971
0.00104487
0.00105006
0.00105528
0.00106051
0.00106574
0.00107097
0.00107618
0.00108137
0.00108652
0.00109163
0.00109667
0.00110165
0.00110654
0.00111135
0.00111605
0.00112064
0.0011251
0.00112942
0.0011336
0.00113761
0.00114145
0.00114511
0.00114857
0.000937018
0.000937181
0.000937695
0.000938489
0.000939549
0.000940865
0.000942422
0.00094421
0.000946216
0.000948429
0.000950839
0.000953434
0.000956206
0.000959148
0.000962253
0.000965517
0.000968933
0.000972496
0.000976199
0.000980035
0.000983997
0.000988079
0.000992273
0.000996571
0.00100097
0.00100545
0.00101001
0.00101465
0.00101935
0.00102411
0.00102892
0.00103377
0.00103864
0.00104354
0.00104845
0.00105336
0.00105826
0.00106315
0.00106801
0.00107283
0.0010776
0.00108231
0.00108695
0.00109151
0.00109598
0.00110034
0.00110459
0.00110871
0.0011127
0.00111653
0.00112021
0.00112371
0.00112704
0.00113016
0.00113309
0.000935117
0.000935275
0.000935772
0.000936542
0.000937569
0.000938842
0.00094035
0.00094208
0.000944021
0.000946161
0.000948489
0.000950995
0.00095367
0.000956508
0.000959502
0.000962645
0.000965933
0.00096936
0.000972918
0.000976602
0.000980403
0.000984315
0.000988329
0.000992438
0.000996635
0.00100091
0.00100526
0.00100967
0.00101413
0.00101864
0.00102319
0.00102776
0.00103236
0.00103696
0.00104157
0.00104616
0.00105074
0.00105528
0.00105979
0.00106425
0.00106864
0.00107297
0.00107721
0.00108136
0.00108541
0.00108934
0.00109315
0.00109682
0.00110034
0.0011037
0.00110689
0.00110991
0.00111273
0.00111534
0.00111775
0.000933176
0.000933329
0.00093381
0.000934554
0.000935547
0.000936779
0.000938236
0.000939908
0.000941783
0.000943848
0.000946094
0.00094851
0.000951088
0.000953821
0.000956701
0.000959724
0.000962883
0.000966172
0.000969586
0.000973116
0.000976755
0.000980495
0.00098433
0.00098825
0.000992248
0.000996315
0.00100044
0.00100463
0.00100885
0.00101311
0.0010174
0.00102171
0.00102602
0.00103033
0.00103464
0.00103892
0.00104317
0.00104738
0.00105154
0.00105564
0.00105967
0.00106362
0.00106747
0.00107122
0.00107486
0.00107837
0.00108174
0.00108497
0.00108804
0.00109094
0.00109367
0.0010962
0.00109854
0.00110067
0.00110258
0.000941493
0.000943657
0.000945982
0.000948462
0.000951088
0.000953854
0.000956755
0.000959784
0.000962936
0.000966203
0.000969579
0.000973055
0.000976625
0.000980279
0.00098401
0.000987809
0.000991668
0.000995579
0.000999534
0.00100352
0.00100754
0.00101157
0.0010156
0.00101964
0.00102367
0.00102767
0.00103164
0.00103557
0.00103945
0.00104327
0.00104702
0.00105069
0.00105426
0.00105773
0.00106109
0.00106433
0.00106743
0.00107038
0.00107318
0.00107581
0.00107827
0.00108054
0.00108262