/*--------------------------------*- C++ -*----------------------------------*\
| =========                 |                                                 |
| \\      /  F ield         | OpenFOAM: The Open Source CFD Toolbox           |
|  \\    /   O peration     | Version:  2412                                  |
|   \\  /    A nd           | Website:  www.openfoam.com                      |
|    \\/     M anipulation  |                                                 |
\*---------------------------------------------------------------------------*/
FoamFile
{
    version     2.0;
    format      ascii;
    arch        "LSB;label=32;scalar=64";
    class       surfaceScalarField;
    location    "18";
    object      phi;
}
// * * * * * * * * * * * * * * * * * * * * * * * * * * * * * * * * * * * * * //

dimensions      [0 3 -1 0 0 0 0];

oriented        oriented;

internalField   nonuniform List<scalar> 
10424
(
0.00531336
-0.000180801
-0.00531073
0.000178175
0.00531613
-0.000184495
0.000181722
0.00531906
-0.000188229
0.000185303
0.00532215
-0.000191999
0.000188913
0.0053254
-0.000195801
0.000192549
0.00532882
-0.00019963
0.000196205
0.00533243
-0.000203481
0.000199876
0.00533622
-0.000207349
0.000203558
0.0053402
-0.000211226
0.000207243
0.00534439
-0.000215107
0.000210925
0.00534877
-0.000218984
0.000214596
0.00535337
-0.000222849
0.00021825
0.00535819
-0.000226692
0.000221876
0.00536323
-0.000230505
0.000225465
0.0053685
-0.000234276
0.000229007
-0.000237993
0.00023249
0.00530959
-0.000183386
-0.00530701
0.00531233
-0.000187231
0.00531522
-0.000191122
0.00531828
-0.000195056
0.00532151
-0.000199029
0.00532491
-0.000203037
0.0053285
-0.000207073
0.00533229
-0.000211133
0.00533627
-0.00021521
0.00534046
-0.000219297
0.00534486
-0.000223387
0.00534949
-0.000227472
0.00535434
-0.000231543
0.00535942
-0.00023559
0.00536475
-0.000239601
-0.000243563
0.00530569
-0.000185924
-0.00530315
0.00530838
-0.000189922
0.00531123
-0.000193975
0.00531426
-0.000198077
0.00531745
-0.000202226
0.00532083
-0.000206416
0.0053244
-0.000210644
0.00532817
-0.000214902
0.00533215
-0.000219185
0.00533634
-0.000223487
0.00534075
-0.000227799
0.00534539
-0.000232113
0.00535027
-0.000236421
0.00535539
-0.000240712
0.00536076
-0.000244974
-0.000249194
0.00530165
-0.000188406
-0.00529917
0.00530429
-0.000192562
0.00530709
-0.000196779
0.00531007
-0.000201054
0.00531323
-0.000205383
0.00531657
-0.000209762
0.00532012
-0.000214186
0.00532386
-0.000218649
0.00532782
-0.000223146
0.00533201
-0.000227669
0.00533642
-0.000232211
0.00534107
-0.000236764
0.00534597
-0.000241319
0.00535112
-0.000245864
0.00535653
-0.000250389
-0.00025488
0.00529746
-0.000190826
-0.00529504
0.00530004
-0.000195142
0.00530279
-0.000199527
0.00530572
-0.000203979
0.00530883
-0.000208493
0.00531213
-0.000213065
0.00531564
-0.000217691
0.00531935
-0.000222365
0.00532329
-0.000227082
0.00532745
-0.000231835
0.00533186
-0.000236615
0.00533651
-0.000241416
0.00534142
-0.000246227
0.00534659
-0.000251038
0.00535204
-0.000255838
-0.000260612
0.00529313
-0.000193176
-0.00529078
0.00529564
-0.000197655
0.00529833
-0.000202211
0.00530119
-0.000206842
0.00530424
-0.000211545
0.00530749
-0.000216316
0.00531095
-0.00022115
0.00531463
-0.000226041
0.00531853
-0.000230985
0.00532267
-0.000235974
0.00532706
-0.000241002
0.0053317
-0.000246059
0.00533661
-0.000251137
0.0053418
-0.000256225
0.00534727
-0.000261311
-0.000266381
0.00528864
-0.000195447
-0.00528637
0.00529108
-0.000200091
0.00529369
-0.000204822
0.00529648
-0.000209636
0.00529947
-0.000214532
0.00530266
-0.000219506
0.00530606
-0.000224552
0.00530969
-0.000229667
0.00531355
-0.000234844
0.00531765
-0.000240078
0.00532201
-0.00024536
0.00532663
-0.000250684
0.00533154
-0.000256038
0.00533673
-0.000261414
0.00534221
-0.000266799
-0.000272179
0.005284
-0.000197631
-0.00528181
0.00528635
-0.000202442
0.00528888
-0.000207349
0.00529159
-0.000212351
0.0052945
-0.000217444
0.00529762
-0.000222624
0.00530096
-0.000227888
0.00530452
-0.000233232
0.00530833
-0.000238649
0.00531238
-0.000244134
0.0053167
-0.00024968
0.0053213
-0.000255278
0.00532618
-0.00026092
0.00533136
-0.000266595
0.00533685
-0.000272291
-0.000277993
0.00527919
-0.000199718
-0.0052771
0.00528145
-0.000204698
0.00528388
-0.000209785
0.00528651
-0.000214976
0.00528933
-0.000220268
0.00529237
-0.00022566
0.00529563
-0.000231146
0.00529912
-0.000236724
0.00530286
-0.000242388
0.00530685
-0.000248131
0.00531112
-0.000253948
0.00531567
-0.000259831
0.00532052
-0.00026577
0.00532568
-0.000271755
0.00533117
-0.000277774
-0.000283813
0.00527422
-0.000201698
-0.00527224
0.00527637
-0.000206849
0.0052787
-0.000212117
0.00528123
-0.0002175
0.00528395
-0.000222995
0.0052869
-0.000228601
0.00529006
-0.000234315
0.00529347
-0.000240132
0.00529713
-0.000246047
0.00530106
-0.000252056
0.00530526
-0.000258152
0.00530976
-0.000264328
0.00531456
-0.000270574
0.00531969
-0.00027688
0.00532515
-0.000283235
-0.000289625
0.00526908
-0.000203562
-0.00526722
0.00527112
-0.000208885
0.00527333
-0.000214335
0.00527575
-0.000219912
0.00527836
-0.000225613
0.0052812
-0.000231437
0.00528427
-0.000237381
0.00528758
-0.000243442
0.00529114
-0.000249615
0.00529498
-0.000255896
0.00529911
-0.000262278
0.00530354
-0.000268755
0.00530828
-0.000275318
0.00531336
-0.000281957
0.00531878
-0.00028866
-0.000295413
0.00526377
-0.0002053
-0.00526203
0.00526568
-0.000210795
0.00526777
-0.000216429
0.00527006
-0.0002222
0.00527256
-0.000228109
0.00527528
-0.000234154
0.00527823
-0.000240332
0.00528143
-0.000246641
0.00528489
-0.000253077
0.00528863
-0.000259636
0.00529266
-0.000266311
0.005297
-0.000273098
0.00530167
-0.000279986
0.00530668
-0.000286968
0.00531205
-0.000294032
-0.000301163
0.00525829
-0.0002069
-0.00525669
0.00526006
-0.000212567
0.00526202
-0.000218385
0.00526417
-0.000224353
0.00526653
-0.000230471
0.00526912
-0.000236738
0.00527194
-0.000243153
0.00527501
-0.000249714
0.00527835
-0.000256417
0.00528198
-0.000263259
0.0052859
-0.000270235
0.00529014
-0.000277338
0.00529472
-0.000284562
0.00529965
-0.000291898
0.00530495
-0.000299333
-0.000306856
0.00525264
-0.000208351
-0.00525119
0.00525426
-0.00021419
0.00525607
-0.000220191
0.00525807
-0.000226356
0.00526029
-0.000232684
0.00526272
-0.000239176
0.0052654
-0.00024583
0.00526833
-0.000252645
0.00527153
-0.00025962
0.00527502
-0.00026675
0.00527882
-0.000274032
0.00528294
-0.00028146
0.00528741
-0.000289027
0.00529224
-0.000296726
0.00529745
-0.000304545
-0.000312472
0.00524682
-0.000209642
-0.00524553
0.00524828
-0.000215652
0.00524992
-0.000221836
0.00525176
-0.000228196
0.00525381
-0.000234735
0.00525609
-0.000241451
0.00525861
-0.000248346
0.00526138
-0.000255419
0.00526443
-0.000262667
0.00526777
-0.00027009
0.00527142
-0.000277683
0.0052754
-0.000285442
0.00527974
-0.000293361
0.00528444
-0.000301433
0.00528954
-0.000309647
-0.000317991
0.00524082
-0.000210761
-0.00523971
0.00524211
-0.000216939
0.00524358
-0.000223304
0.00524524
-0.00022986
0.00524712
-0.000236608
0.00524922
-0.00024355
0.00525155
-0.000250686
0.00525415
-0.000258017
0.00525703
-0.000265542
0.0052602
-0.000273261
0.00526369
-0.00028117
0.00526751
-0.000289265
0.00527169
-0.000297543
0.00527625
-0.000305996
0.00528122
-0.000314615
-0.000323389
0.00523466
-0.000211696
-0.00523373
0.00523576
-0.000218039
0.00523704
-0.000224583
0.00523851
-0.000231332
0.00524019
-0.000238288
0.0052421
-0.000245454
0.00524424
-0.000252832
0.00524665
-0.000260422
0.00524933
-0.000268226
0.00525231
-0.000276242
0.00525561
-0.00028447
0.00525926
-0.000292908
0.00526326
-0.00030155
0.00526766
-0.000310392
0.00527247
-0.000319426
-0.000328641
0.00522833
-0.000212433
-0.0052276
0.00522923
-0.000218939
0.00523031
-0.000225659
0.00523157
-0.000232598
0.00523305
-0.00023976
0.00523474
-0.000247148
0.00523667
-0.000254765
0.00523887
-0.000262614
0.00524134
-0.000270697
0.00524411
-0.000279013
0.0052472
-0.000287563
0.00525064
-0.000296345
0.00525445
-0.000305358
0.00525865
-0.000314596
0.00526328
-0.000324052
-0.000333719
0.00522184
-0.000212961
-0.00522131
0.00522253
-0.000219624
0.00522338
-0.000226516
0.00522443
-0.000233641
0.00522567
-0.000241006
0.00522714
-0.000248614
0.00522884
-0.000256469
0.0052308
-0.000264575
0.00523304
-0.000272935
0.00523558
-0.000281551
0.00523844
-0.000290424
0.00524165
-0.000299554
0.00524523
-0.00030894
0.00524922
-0.000318579
0.00525363
-0.000328466
-0.000338593
0.00521519
-0.00521489
0.00521565
0.00521627
0.00521708
0.00521808
0.0052193
0.00522075
0.00522246
0.00522445
0.00522673
0.00522933
0.00523228
0.00523561
0.00523935
0.00524352
0.00529287
-5.08968e-06
5.11086e-06
0.00529281
-1.48899e-05
1.49529e-05
0.00529271
-2.41035e-05
2.42027e-05
0.00529259
-3.26289e-05
3.27534e-05
0.00529243
-4.07964e-05
4.09493e-05
0.0052922
-4.9949e-05
5.0183e-05
0.00529176
-6.23027e-05
6.27428e-05
0.00529094
-7.98948e-05
8.07176e-05
0.00528956
-0.000103272
0.000104644
0.00528756
-0.000130827
0.000132831
0.00528497
-0.000159192
0.000161782
0.00528197
-0.000184415
0.00018742
0.0052788
-0.000203248
0.000206412
0.00527575
-0.000213988
0.000217037
0.00527305
-0.000216648
0.000219348
0.00527086
-0.000212598
0.000214791
0.00526924
-0.00020393
0.000205546
0.0052682
-0.000192854
0.000193897
0.00526767
-0.000181256
0.000181788
0.00526756
-0.000170492
0.000170603
0.00526777
-0.000161358
0.000161148
0.00526821
-0.000154181
0.000153743
0.00526879
-0.000148954
0.000148365
0.00526947
-0.000145472
0.000144792
0.0052702
-0.000143438
0.00014271
0.00527095
-0.00014254
0.00014179
0.00527171
-0.000142492
0.000141734
0.00527247
-0.000143054
0.000142295
0.00527323
-0.000144037
0.000143276
0.005274
-0.000145298
0.00014453
0.00527478
-0.000146732
0.000145951
0.00527558
-0.000148264
0.000147464
0.00527641
-0.000149843
0.000149015
0.00527727
-0.000151431
0.000150569
0.00527817
-0.000153004
0.000152101
0.00527912
-0.000154544
0.000153593
0.00528013
-0.000156039
0.000155034
0.00528119
-0.000157478
0.000156416
0.00528232
-0.000158856
0.00015773
0.00528351
-0.000160166
0.000158974
0.00528477
-0.000161404
0.000160143
0.00528611
-0.000162567
0.000161233
0.00528751
-0.000163651
0.000162242
0.005289
-0.000164654
0.000163167
0.00529057
-0.000165574
0.000164008
0.00529221
-0.000166407
0.000164761
0.00529394
-0.000167153
0.000165426
0.00529575
-0.000167811
0.000166001
0.00529765
-0.000168379
0.000166486
0.00529962
-0.000168855
0.000166879
0.00530168
-0.00016924
0.000167182
0.00530382
-0.000169534
0.000167392
0.00530604
-0.000169735
0.000167512
0.00530835
-0.000169845
0.00016754
-0.000169862
0.000167478
0.00529287
-5.06581e-06
0.0052928
-1.48191e-05
0.00529269
-2.39915e-05
0.00529255
-3.24869e-05
0.00529237
-4.06219e-05
0.00529211
-4.96896e-05
0.00529164
-6.18342e-05
0.00529079
-7.90404e-05
0.00528938
-0.000101865
0.00528733
-0.000128781
0.00528469
-0.000156551
0.00528163
-0.00018135
0.00527839
-0.000200012
0.00527526
-0.000210855
0.00527247
-0.000213854
0.00527017
-0.000210303
0.00526845
-0.000202208
0.0052673
-0.000191702
0.00526666
-0.000180616
0.00526644
-0.000170275
0.00526655
-0.000161466
0.00526689
-0.00015452
0.00526738
-0.000149447
0.00526797
-0.000146059
0.0052686
-0.000144076
0.00526927
-0.000143203
0.00526994
-0.000143164
0.00527062
-0.00014373
0.00527129
-0.000144716
0.00527198
-0.000145984
0.00527268
-0.000147432
0.0052734
-0.000148984
0.00527415
-0.000150591
0.00527493
-0.000152214
0.00527576
-0.000153829
0.00527663
-0.000155417
0.00527755
-0.000156965
0.00527854
-0.000158463
0.00527959
-0.000159904
0.0052807
-0.000161282
0.00528189
-0.000162591
0.00528315
-0.000163828
0.00528449
-0.000164988
0.0052859
-0.00016607
0.0052874
-0.00016707
0.00528898
-0.000167986
0.00529064
-0.000168816
0.00529239
-0.000169558
0.00529422
-0.000170211
0.00529614
-0.000170773
0.00529814
-0.000171244
0.00530023
-0.000171623
0.00530241
-0.00017191
0.00530467
-0.000172104
-0.000172205
0.00529287
-5.03923e-06
0.00529279
-1.47403e-05
0.00529266
-2.38667e-05
0.0052925
-3.23273e-05
0.00529231
-4.04253e-05
0.00529202
-4.9405e-05
0.00529153
-6.13391e-05
0.00529065
-7.81595e-05
0.00528921
-0.000100431
0.00528714
-0.000126707
0.00528447
-0.000153878
0.00528136
-0.000178243
0.00527807
-0.000196723
0.00527487
-0.000207654
0.00527199
-0.000210978
0.0052696
-0.000207913
0.00526778
-0.000200381
0.00526651
-0.000190438
0.00526576
-0.000179861
0.00526543
-0.000169943
0.00526542
-0.000161459
0.00526565
-0.000154749
0.00526603
-0.000149834
0.00526652
-0.000146543
0.00526706
-0.000144615
0.00526762
-0.000143769
0.0052682
-0.000143743
0.00526879
-0.000144315
0.00526938
-0.000145306
0.00526998
-0.000146583
0.00527059
-0.000148044
0.00527122
-0.000149618
0.00527189
-0.000151253
0.00527258
-0.000152912
0.00527332
-0.000154569
0.00527411
-0.000156205
0.00527495
-0.000157808
0.00527586
-0.000159365
0.00527682
-0.00016087
0.00527786
-0.000162316
0.00527896
-0.000163697
0.00528014
-0.000165009
0.0052814
-0.000166247
0.00528274
-0.00016741
0.00528416
-0.000168492
0.00528567
-0.000169492
0.00528726
-0.000170408
0.00528894
-0.000171237
0.00529071
-0.000171977
0.00529256
-0.000172627
0.0052945
-0.000173187
0.00529653
-0.000173654
0.00529865
-0.000174029
0.00530086
-0.000174311
-0.000174499
0.00529286
-5.00991e-06
0.00529278
-1.46536e-05
0.00529264
-2.37288e-05
0.00529246
-3.21496e-05
0.00529224
-4.02063e-05
0.00529193
-4.90955e-05
0.00529141
-6.08192e-05
0.00529051
-7.72568e-05
0.00528906
-9.89793e-05
0.00528697
-0.000124619
0.00528428
-0.000151188
0.00528115
-0.000175113
0.00527783
-0.000193397
0.00527457
-0.0002044
0.00527162
-0.00020803
0.00526915
-0.000205434
0.00526722
-0.000198451
0.00526584
-0.000189061
0.00526496
-0.000178986
0.00526451
-0.000169487
0.00526438
-0.00016133
0.00526449
-0.000154857
0.00526476
-0.000150103
0.00526513
-0.000146914
0.00526556
-0.000145046
0.00526602
-0.000144232
0.0052665
-0.000144221
0.00526699
-0.000144801
0.00526748
-0.0001458
0.00526798
-0.000147087
0.0052685
-0.000148565
0.00526905
-0.000150161
0.00526962
-0.000151824
0.00527023
-0.000153519
0.00527088
-0.000155219
0.00527158
-0.000156905
0.00527233
-0.000158562
0.00527314
-0.000160179
0.00527402
-0.000161749
0.00527497
-0.000163263
0.00527599
-0.000164717
0.00527709
-0.000166105
0.00527826
-0.000167423
0.00527952
-0.000168667
0.00528086
-0.000169833
0.00528229
-0.000170919
0.0052838
-0.000171922
0.0052854
-0.00017284
0.0052871
-0.00017367
0.00528888
-0.000174411
0.00529076
-0.000175062
0.00529272
-0.00017562
0.00529478
-0.000176086
0.00529693
-0.000176459
-0.000176738
0.00529286
-4.97784e-06
0.00529277
-1.45589e-05
0.00529262
-2.35778e-05
0.00529242
-3.19538e-05
0.00529218
-3.99649e-05
0.00529184
-4.87612e-05
0.0052913
-6.02758e-05
0.00529038
-7.63358e-05
0.00528892
-9.75169e-05
0.00528682
-0.000122526
0.00528413
-0.000148496
0.00528099
-0.000171974
0.00527765
-0.00019005
0.00527435
-0.000201107
0.00527134
-0.000205021
0.00526878
-0.000202873
0.00526675
-0.00019642
0.00526526
-0.000187569
0.00526426
-0.000177986
0.00526367
-0.000168902
0.00526341
-0.000161071
0.00526339
-0.000154837
0.00526354
-0.000150247
0.00526379
-0.000147165
0.0052641
-0.000145361
0.00526445
-0.000144582
0.00526482
-0.000144591
0.00526521
-0.000145183
0.0052656
-0.000146192
0.005266
-0.000147492
0.00526642
-0.000148986
0.00526687
-0.000150606
0.00526735
-0.0001523
0.00526786
-0.000154032
0.00526841
-0.000155775
0.00526902
-0.00015751
0.00526968
-0.000159222
0.0052704
-0.0001609
0.00527119
-0.000162535
0.00527204
-0.000164119
0.00527297
-0.000165646
0.00527398
-0.000167111
0.00527506
-0.000168509
0.00527623
-0.000169836
0.00527749
-0.000171087
0.00527883
-0.000172261
0.00528026
-0.000173353
0.00528178
-0.000174362
0.00528339
-0.000175284
0.0052851
-0.000176118
0.0052869
-0.000176862
0.0052888
-0.000177515
0.00529078
-0.000178075
0.00529287
-0.000178542
-0.000178915
0.00529286
-4.943e-06
0.00529276
-1.44561e-05
0.00529259
-2.34136e-05
0.00529238
-3.17397e-05
0.00529211
-3.97006e-05
0.00529175
-4.8402e-05
0.00529119
-5.97098e-05
0.00529025
-7.53992e-05
0.00528878
-9.6049e-05
0.00528669
-0.000120436
0.00528401
-0.00014581
0.00528087
-0.000168839
0.00527752
-0.000186693
0.0052742
-0.000197784
0.00527113
-0.000201959
0.0052685
-0.000200234
0.00526637
-0.00019429
0.00526476
-0.000185961
0.00526363
-0.000176859
0.00526291
-0.000168184
0.00526252
-0.000160676
0.00526236
-0.000154682
0.00526237
-0.00015026
0.0052625
-0.000147287
0.00526269
-0.000145552
0.00526292
-0.000144814
0.00526317
-0.000144847
0.00526345
-0.000145454
0.00526373
-0.000146477
0.00526403
-0.000147791
0.00526435
-0.000149305
0.00526469
-0.000150949
0.00526506
-0.000152674
0.00526548
-0.000154444
0.00526593
-0.000156231
0.00526644
-0.000158016
0.005267
-0.000159784
0.00526762
-0.000161522
0.00526831
-0.000163223
0.00526907
-0.000164877
0.0052699
-0.000166478
0.00527081
-0.000168021
0.0052718
-0.0001695
0.00527288
-0.000170911
0.00527404
-0.000172249
0.00527529
-0.000173511
0.00527663
-0.000174695
0.00527806
-0.000175796
0.00527959
-0.000176812
0.00528122
-0.000177741
0.00528293
-0.000178581
0.00528475
-0.000179331
0.00528666
-0.000179988
0.00528867
-0.000180552
-0.000181022
0.00529286
-4.90539e-06
0.00529275
-1.43453e-05
0.00529257
-2.32362e-05
0.00529234
-3.15071e-05
0.00529205
-3.94133e-05
0.00529166
-4.80179e-05
0.00529108
-5.91218e-05
0.00529013
-7.44491e-05
0.00528866
-9.45794e-05
0.00528658
-0.000118357
0.00528391
-0.000143141
0.00528079
-0.000165717
0.00527743
-0.000183337
0.00527409
-0.000194442
0.00527098
-0.000198852
0.00526827
-0.000197525
0.00526605
-0.000192065
0.00526432
-0.000184238
0.00526307
-0.000175604
0.00526221
-0.000167328
0.00526168
-0.00016014
0.00526138
-0.000154386
0.00526125
-0.000150134
0.00526124
-0.000147276
0.00526131
-0.000145614
0.00526141
-0.000144922
0.00526155
-0.000144982
0.0052617
-0.000145609
0.00526187
-0.000146648
0.00526206
-0.00014798
0.00526227
-0.000149514
0.00526251
-0.000151185
0.00526278
-0.000152942
0.00526308
-0.00015475
0.00526343
-0.000156582
0.00526384
-0.000158417
0.00526429
-0.000160241
0.00526481
-0.000162041
0.0052654
-0.000163808
0.00526605
-0.000165532
0.00526678
-0.000167208
0.00526759
-0.000168829
0.00526848
-0.00017039
0.00526946
-0.000171885
0.00527052
-0.000173311
0.00527167
-0.000174664
0.00527292
-0.000175939
0.00527426
-0.000177135
0.00527569
-0.000178247
0.00527722
-0.000179273
0.00527885
-0.000180212
0.00528058
-0.00018106
0.00528241
-0.000181817
0.00528434
-0.000182481
-0.000183051
0.00529285
-4.86497e-06
0.00529273
-1.42264e-05
0.00529254
-2.30455e-05
0.00529229
-3.12559e-05
0.00529198
-3.91028e-05
0.00529157
-4.76087e-05
0.00529096
-5.85119e-05
0.00529
-7.34863e-05
0.00528853
-9.31106e-05
0.00528647
-0.00011629
0.00528382
-0.000140493
0.00528072
-0.000162615
0.00527737
-0.00017999
0.00527401
-0.000191087
0.00527087
-0.000195707
0.00526809
-0.000194749
0.00526578
-0.000189748
0.00526394
-0.000182402
0.00526256
-0.000174219
0.00526156
-0.000166334
0.00526088
-0.00015946
0.00526044
-0.000153946
0.00526017
-0.000149866
0.00526002
-0.000147127
0.00525995
-0.000145543
0.00525993
-0.0001449
0.00525994
-0.000144993
0.00525998
-0.000145642
0.00526003
-0.000146701
0.0052601
-0.000148053
0.0052602
-0.000149611
0.00526032
-0.000151309
0.00526048
-0.0001531
0.00526068
-0.000154947
0.00526092
-0.000156824
0.00526121
-0.00015871
0.00526156
-0.00016059
0.00526197
-0.000162451
0.00526245
-0.000164284
0.00526299
-0.00016608
0.00526362
-0.00016783
0.00526432
-0.00016953
0.0052651
-0.000171173
0.00526597
-0.000172754
0.00526692
-0.000174268
0.00526797
-0.000175712
0.00526911
-0.000177081
0.00527035
-0.000178372
0.00527169
-0.000179582
0.00527312
-0.000180707
0.00527465
-0.000181746
0.00527629
-0.000182696
0.00527803
-0.000183556
0.00527987
-0.000184322
-0.000184995
0.00529285
-4.82176e-06
0.00529272
-1.40993e-05
0.00529252
-2.28414e-05
0.00529225
-3.09861e-05
0.00529192
-3.8769e-05
0.00529148
-4.71743e-05
0.00529085
-5.78802e-05
0.00528987
-7.25113e-05
0.00528841
-9.16435e-05
0.00528636
-0.00011424
0.00528373
-0.00013787
0.00528066
-0.000159538
0.00527732
-0.000176656
0.00527396
-0.000187725
0.00527078
-0.000192529
0.00526795
-0.000191912
0.00526554
-0.000187342
0.00526359
-0.000180455
0.00526208
-0.000172707
0.00526095
-0.000165201
0.00526012
-0.000158636
0.00525954
-0.000153359
0.00525912
-0.000149454
0.00525883
-0.000146836
0.00525862
-0.000145333
0.00525847
-0.000144745
0.00525835
-0.000144875
0.00525826
-0.000145551
0.00525819
-0.000146632
0.00525814
-0.000148006
0.00525812
-0.000149589
0.00525813
-0.000151317
0.00525817
-0.000153142
0.00525825
-0.000155029
0.00525838
-0.000156951
0.00525856
-0.000158889
0.00525879
-0.000160825
0.00525909
-0.000162748
0.00525945
-0.000164647
0.00525989
-0.000166513
0.0052604
-0.000168339
0.00526098
-0.000170117
0.00526165
-0.000171843
0.00526241
-0.00017351
0.00526325
-0.000175113
0.00526419
-0.000176649
0.00526522
-0.000178113
0.00526635
-0.0001795
0.00526758
-0.000180809
0.00526891
-0.000182035
0.00527034
-0.000183177
0.00527187
-0.00018423
0.00527351
-0.000185194
0.00527525
-0.000186067
-0.000186846
0.00529285
-4.77574e-06
0.00529271
-1.39641e-05
0.0052925
-2.26239e-05
0.00529221
-3.06975e-05
0.00529185
-3.84117e-05
0.00529139
-4.67144e-05
0.00529074
-5.72263e-05
0.00528975
-7.15237e-05
0.00528828
-9.01782e-05
0.00528625
-0.000112207
0.00528365
-0.000135274
0.0052806
-0.000156487
0.00527728
-0.000173339
0.00527392
-0.000184361
0.00527071
-0.000189321
0.00526782
-0.000189016
0.00526533
-0.000184852
0.00526327
-0.000178399
0.00526163
-0.000171068
0.00526036
-0.000163929
0.00525939
-0.000157667
0.00525866
-0.000152625
0.0052581
-0.000148894
0.00525766
-0.0001464
0.00525731
-0.000144983
0.00525702
-0.000144453
0.00525677
-0.000144624
0.00525655
-0.00014533
0.00525636
-0.000146437
0.00525619
-0.000147836
0.00525604
-0.000149446
0.00525593
-0.000151205
0.00525585
-0.000153065
0.00525582
-0.000154992
0.00525582
-0.00015696
0.00525588
-0.000158948
0.005256
-0.000160941
0.00525618
-0.000162925
0.00525642
-0.00016489
0.00525674
-0.000166827
0.00525712
-0.000168728
0.00525759
-0.000170585
0.00525814
-0.000172394
0.00525878
-0.000174147
0.00525951
-0.00017584
0.00526033
-0.000177468
0.00526124
-0.000179027
0.00526225
-0.000180513
0.00526336
-0.000181921
0.00526458
-0.00018325
0.0052659
-0.000184495
0.00526732
-0.000185655
0.00526885
-0.000186725
0.00527049
-0.000187705
-0.000188593
0.00529285
-4.7269e-06
0.0052927
-1.38206e-05
0.00529247
-2.2393e-05
0.00529216
-3.03902e-05
0.00529178
-3.8031e-05
0.0052913
-4.62289e-05
0.00529062
-5.65497e-05
0.00528962
-7.05227e-05
0.00528816
-8.87136e-05
0.00528614
-0.000110188
0.00528357
-0.000132702
0.00528054
-0.000153464
0.00527724
-0.00017004
0.00527388
-0.000180996
0.00527064
-0.000186087
0.00526769
-0.000186067
0.00526512
-0.000182279
0.00526296
-0.000176238
0.0052612
-0.000169306
0.00525979
-0.000162522
0.00525868
-0.000156554
0.0052578
-0.000151745
0.00525709
-0.000148188
0.00525651
-0.00014582
0.00525602
-0.000144491
0.00525559
-0.000144023
0.0052552
-0.000144237
0.00525485
-0.000144977
0.00525452
-0.000146112
0.00525423
-0.000147539
0.00525396
-0.000149178
0.00525372
-0.000150968
0.00525352
-0.000152864
0.00525336
-0.000154832
0.00525325
-0.000156846
0.00525318
-0.000158885
0.00525318
-0.000160934
0.00525323
-0.000162979
0.00525335
-0.00016501
0.00525354
-0.000167017
0.0052538
-0.000168992
0.00525415
-0.000170928
0.00525457
-0.000172819
0.00525508
-0.000174658
0.00525568
-0.000176441
0.00525638
-0.000178162
0.00525717
-0.000179817
0.00525806
-0.000181401
0.00525905
-0.000182911
0.00526014
-0.000184343
0.00526134
-0.000185694
0.00526264
-0.00018696
0.00526406
-0.00018814
0.00526558
-0.00018923
-0.000190228
0.00529284
-4.67524e-06
0.00529269
-1.36691e-05
0.00529245
-2.21487e-05
0.00529212
-3.00642e-05
0.00529172
-3.76267e-05
0.0052912
-4.57175e-05
0.0052905
-5.58498e-05
0.00528949
-6.95072e-05
0.00528802
-8.7248e-05
0.00528602
-0.000108184
0.00528347
-0.000130155
0.00528047
-0.000150467
0.00527719
-0.000166759
0.00527383
-0.00017763
0.00527057
-0.000182829
0.00526757
-0.000183065
0.00526492
-0.000179628
0.00526265
-0.000173975
0.00526077
-0.000167423
0.00525923
-0.00016098
0.00525797
-0.000155299
0.00525695
-0.000150717
0.00525609
-0.000147334
0.00525537
-0.000145093
0.00525473
-0.000143856
0.00525416
-0.000143453
0.00525364
-0.000143714
0.00525315
-0.00014449
0.00525269
-0.000145656
0.00525227
-0.000147112
0.00525187
-0.000148781
0.00525151
-0.000150603
0.00525118
-0.000152536
0.00525089
-0.000154545
0.00525065
-0.000156605
0.00525046
-0.000158694
0.00525032
-0.000160798
0.00525025
-0.000162904
0.00525024
-0.000165
0.0052503
-0.000167076
0.00525043
-0.000169125
0.00525064
-0.00017114
0.00525094
-0.000173112
0.00525131
-0.000175038
0.00525178
-0.00017691
0.00525235
-0.000178724
0.005253
-0.000180475
0.00525376
-0.000182158
0.00525462
-0.00018377
0.00525558
-0.000185306
0.00525665
-0.000186763
0.00525783
-0.000188138
0.00525912
-0.000189428
0.00526052
-0.00019063
-0.000191742
0.00529284
-4.62077e-06
0.00529268
-1.35093e-05
0.00529242
-2.18911e-05
0.00529208
-2.97195e-05
0.00529165
-3.71989e-05
0.00529111
-4.518e-05
0.00529039
-5.51259e-05
0.00528936
-6.84757e-05
0.00528789
-8.57793e-05
0.00528589
-0.00010619
0.00528337
-0.000127629
0.00528039
-0.000147493
0.00527713
-0.000163494
0.00527376
-0.000174265
0.00527048
-0.000179547
0.00526743
-0.000180014
0.00526471
-0.000176902
0.00526234
-0.000171614
0.00526034
-0.000165423
0.00525867
-0.000159307
0.00525728
-0.000153904
0.0052561
-0.000149546
0.0052551
-0.000146334
0.00525423
-0.000144221
0.00525345
-0.000143077
0.00525274
-0.00014274
0.00525208
-0.000143052
0.00525145
-0.000143867
0.00525086
-0.000145065
0.0052503
-0.000146552
0.00524978
-0.000148252
0.00524928
-0.000150108
0.00524882
-0.000152077
0.0052484
-0.000154127
0.00524803
-0.000156232
0.00524771
-0.000158372
0.00524744
-0.00016053
0.00524723
-0.000162695
0.00524709
-0.000164855
0.00524701
-0.000167
0.00524701
-0.000169122
0.00524708
-0.000171214
0.00524724
-0.000173268
0.00524748
-0.000175279
0.00524781
-0.00017724
0.00524823
-0.000179147
0.00524875
-0.000180994
0.00524937
-0.000182776
0.00525009
-0.00018449
0.00525091
-0.000186131
0.00525185
-0.000187695
0.00525289
-0.00018918
0.00525404
-0.000190582
0.00525531
-0.000191897
-0.000193124
0.00529284
-4.56348e-06
0.00529267
-1.33414e-05
0.0052924
-2.162e-05
0.00529203
-2.93562e-05
0.00529158
-3.67477e-05
0.00529102
-4.46163e-05
0.00529027
-5.43774e-05
0.00528922
-6.74268e-05
0.00528775
-8.43049e-05
0.00528576
-0.000104203
0.00528325
-0.00012512
0.0052803
-0.000144539
0.00527705
-0.000160243
0.00527368
-0.000170899
0.00527038
-0.000176244
0.00526728
-0.000176916
0.00526448
-0.000174103
0.00526202
-0.000169157
0.00525991
-0.000163309
0.00525811
-0.000157507
0.00525658
-0.000152372
0.00525526
-0.000148231
0.00525412
-0.000145189
0.0052531
-0.000143204
0.00525218
-0.000142153
0.00525132
-0.000141886
0.00525052
-0.000142249
0.00524976
-0.000143105
0.00524903
-0.000144338
0.00524834
-0.000145856
0.00524767
-0.000147588
0.00524704
-0.000149478
0.00524645
-0.000151484
0.0052459
-0.000153575
0.00524539
-0.000155724
0.00524493
-0.000157913
0.00524453
-0.000160125
0.00524418
-0.000162349
0.0052439
-0.000164571
0.00524368
-0.000166784
0.00524354
-0.000168978
0.00524347
-0.000171146
0.00524348
-0.000173281
0.00524358
-0.000175376
0.00524376
-0.000177425
0.00524404
-0.000179424
0.00524441
-0.000181366
0.00524488
-0.000183247
0.00524545
-0.000185063
0.00524613
-0.000186809
0.00524692
-0.000188481
0.00524782
-0.000190077
0.00524882
-0.000191591
0.00524995
-0.000193022
-0.000194365
0.00529283
-4.50339e-06
0.00529266
-1.31653e-05
0.00529237
-2.13357e-05
0.00529199
-2.89743e-05
0.00529152
-3.6273e-05
0.00529093
-4.40262e-05
0.00529015
-5.36035e-05
0.00528908
-6.63588e-05
0.0052876
-8.28223e-05
0.00528562
-0.000102221
0.00528312
-0.000122625
0.00528019
-0.000141602
0.00527695
-0.000157004
0.00527358
-0.000167531
0.00527025
-0.000172917
0.00526711
-0.000173772
0.00526424
-0.000171234
0.00526169
-0.000166608
0.00525947
-0.000161084
0.00525754
-0.000155582
0.00525588
-0.000150706
0.00525442
-0.000146777
0.00525313
-0.000143901
0.00525197
-0.000142042
0.00525091
-0.000141087
0.00524991
-0.00014089
0.00524897
-0.000141306
0.00524807
-0.000142204
0.0052472
-0.000143473
0.00524637
-0.000145024
0.00524557
-0.000146788
0.0052448
-0.000148712
0.00524407
-0.000150754
0.00524338
-0.000152884
0.00524273
-0.000155077
0.00524214
-0.000157314
0.00524159
-0.000159579
0.0052411
-0.000161859
0.00524067
-0.000164144
0.00524031
-0.000166422
0.00524002
-0.000168686
0.0052398
-0.000170929
0.00523966
-0.000173143
0.00523961
-0.000175321
0.00523964
-0.000177457
0.00523976
-0.000179547
0.00523998
-0.000181584
0.0052403
-0.000183563
0.00524072
-0.000185481
0.00524124
-0.000187332
0.00524187
-0.000189112
0.00524261
-0.000190818
0.00524347
-0.000192446
0.00524444
-0.000193992
-0.000195454
0.00529283
-4.4405e-06
0.00529265
-1.2981e-05
0.00529235
-2.1038e-05
0.00529195
-2.8574e-05
0.00529145
-3.5775e-05
0.00529083
-4.34097e-05
0.00529003
-5.28036e-05
0.00528895
-6.52703e-05
0.00528745
-8.13289e-05
0.00528547
-0.000100239
0.00528298
-0.000120139
0.00528006
-0.000138678
0.00527683
-0.000153772
0.00527346
-0.000164157
0.00527011
-0.000169567
0.00526692
-0.000170582
0.00526398
-0.000168296
0.00526134
-0.00016397
0.00525901
-0.000158753
0.00525696
-0.000153537
0.00525517
-0.000148909
0.00525358
-0.000145186
0.00525215
-0.000142473
0.00525084
-0.000140739
0.00524963
-0.000139878
0.0052485
-0.000139752
0.00524741
-0.000140222
0.00524637
-0.000141163
0.00524537
-0.000142468
0.00524439
-0.000144052
0.00524346
-0.000145849
0.00524255
-0.000147806
0.00524168
-0.000149884
0.00524085
-0.000152053
0.00524006
-0.000154289
0.00523932
-0.000156572
0.00523863
-0.000158888
0.00523799
-0.000161223
0.00523741
-0.000163567
0.0052369
-0.00016591
0.00523646
-0.000168242
0.00523609
-0.000170558
0.00523579
-0.000172849
0.00523558
-0.000175108
0.00523545
-0.000177331
0.00523542
-0.00017951
0.00523547
-0.00018164
0.00523563
-0.000183717
0.00523588
-0.000185735
0.00523624
-0.000187691
0.0052367
-0.000189579
0.00523728
-0.000191395
0.00523797
-0.000193137
0.00523878
-0.000194799
-0.00019638
0.00529283
-4.37482e-06
0.00529264
-1.27887e-05