/*--------------------------------*- C++ -*----------------------------------*\
| =========                 |                                                 |
| \\      /  F ield         | OpenFOAM: The Open Source CFD Toolbox           |
|  \\    /   O peration     | Version:  2412                                  |
|   \\  /    A nd           | Website:  www.openfoam.com                      |
|    \\/     M anipulation  |                                                 |
\*---------------------------------------------------------------------------*/
FoamFile
{
    version     2.0;
    format      ascii;
    arch        "LSB;label=32;scalar=64";
    class       volVectorField;
    location    "4.5";
    object      vorticity;
}
// * * * * * * * * * * * * * * * * * * * * * * * * * * * * * * * * * * * * * //

dimensions      [0 0 -1 0 0 0 0];

internalField   nonuniform List<vector> 
5285
(
(2.62301e-21 -6.65962e-20 0.000364058)
(-2.10722e-21 7.92928e-21 0.000390837)
(-2.33492e-22 -7.35425e-21 0.000408898)
(1.00482e-22 7.37794e-21 0.000420115)
(-3.58606e-24 -1.46678e-22 0.000426249)
(-9.5539e-23 -7.12389e-21 0.000428774)
(-2.26745e-21 7.21214e-21 0.000428814)
(4.78116e-21 1.45556e-23 0.00042715)
(1.41254e-21 7.02002e-21 0.000424272)
(-3.72073e-21 -6.16007e-24 0.000420429)
(5.36966e-21 8.31054e-21 0.000415697)
(-6.06854e-21 1.06418e-19 0.00041003)
(5.51581e-22 -1.1442e-19 0.000403328)
(-2.18808e-21 1.05021e-19 0.000395475)
(2.12613e-21 -1.06334e-19 0.000386357)
(5.49349e-23 1.51907e-21 0.000375844)
(-7.15444e-23 -1.86601e-21 0.000363732)
(2.81024e-21 -1.01621e-19 0.000349622)
(-9.51404e-21 9.88836e-20 0.000332717)
(-3.65957e-22 -1.75403e-21 0.000311355)
(7.04514e-21 1.54084e-23 0.000281962)
(7.68546e-21 1.68089e-23 0.000236651)
(-7.66087e-21 -1.67551e-23 0.00015808)
(-2.551e-22 -5.57928e-25 9.299e-06)
(-2.66932e-22 -5.83807e-25 -0.000284276)
(-9.24446e-21 -2.02185e-23 -0.000862795)
(8.92238e-21 1.95141e-23 -0.00196779)
(-2.97278e-22 1.7775e-22 -0.00397566)
(1.87496e-23 9.14888e-21 -0.00740867)
(-2.85796e-20 5.84483e-20 -0.0128987)
(2.75051e-20 -7.75629e-20 -0.0210854)
(-6.87674e-21 -1.1039e-20 -0.0324476)
(7.53207e-21 3.06006e-20 -0.0470885)
(-2.42518e-20 -6.77002e-21 -0.06438)
(1.07333e-21 -2.30832e-19 0.00102421)
(-5.54957e-21 2.47626e-19 0.00110031)
(-2.53721e-22 1.98108e-20 0.00115115)
(-4.39781e-21 -7.55742e-21 0.00118208)
(4.63027e-21 1.65529e-22 0.00119819)
(-4.61715e-21 9.62205e-21 0.0012037)
(2.08399e-21 2.16344e-19 0.00120183)
(4.8229e-21 -4.60014e-19 0.00119482)
(4.03517e-21 -2.19525e-19 0.00118402)
(-5.92311e-21 4.45309e-19 0.0011701)
(1.85635e-21 -4.45972e-19 0.00115323)
(1.09119e-22 4.58144e-19 0.00113321)
(3.75076e-21 1.04005e-21 0.00110967)
(-4.21961e-21 -1.10527e-22 0.0010822)
(-1.41625e-21 -3.09748e-24 0.0010504)
(0 -0 0.0010138)
(2.09536e-22 1.08683e-22 0.000971712)
(1.25699e-20 1.35629e-20 0.000922858)
(-1.40212e-20 3.82253e-19 0.000864734)
(-1.75927e-20 -2.51284e-20 0.000792189)
(1.69492e-20 -3.79232e-19 0.000694182)
(2.5361e-20 -3.29602e-19 0.000546409)
(-5.70926e-21 3.53603e-19 0.000295542)
(-3.55062e-20 1.93943e-21 -0.0001717)
(3.52825e-20 1.94902e-20 -0.00108316)
(-4.26041e-20 2.59055e-19 -0.00286519)
(2.05219e-20 -2.70351e-19 -0.00624947)
(-2.08954e-20 1.6739e-20 -0.0123715)
(2.3384e-20 9.27746e-21 -0.0228015)
(-6.693e-20 1.30301e-19 -0.0394343)
(6.69294e-20 -1.27402e-19 -0.0641838)
(-1.06648e-19 9.69069e-20 -0.0984656)
(1.02844e-19 -1.08526e-19 -0.142517)
(-2.23893e-20 -7.50745e-22 -0.192839)
(-5.73251e-21 -1.30037e-20 0.0014911)
(-2.75346e-21 4.7801e-19 0.00160432)
(4.00242e-22 -1.45279e-20 0.00167817)
(-1.13972e-20 4.65703e-19 0.00172086)
(1.12002e-20 -4.84156e-19 0.00174009)
(-7.51539e-21 4.63758e-19 0.00174229)
(-3.68342e-22 -4.82898e-19 0.0017323)
(5.87579e-21 -9.1211e-21 0.00171342)
(-2.84124e-21 1.41824e-20 0.00168764)
(6.20777e-21 -8.65062e-21 0.00165584)
(-1.77953e-20 4.3811e-19 0.00161807)
(1.55277e-20 -4.68553e-19 0.00157381)
(1.67094e-20 -4.35203e-19 0.00152223)
(-1.30873e-20 4.38768e-19 0.00146243)
(-1.23701e-21 -5.90547e-21 0.00139347)
(1.28078e-20 -1.38558e-22 0.00131433)
(-1.48554e-20 -2.7213e-20 0.00122353)
(4.87005e-20 -8.07864e-19 0.00111864)
(1.82552e-20 5.89314e-20 0.00099506)
(-6.76311e-20 7.63602e-19 0.000843665)
(4.55407e-21 -1.41149e-20 0.000645059)
(-1.28553e-20 -6.45052e-21 0.000356762)
(1.08618e-19 -6.51506e-19 -0.00011407)
(-1.9967e-19 1.28678e-18 -0.000963769)
(2.02577e-19 -1.29105e-18 -0.00258491)
(8.29452e-20 9.19012e-20 -0.00570717)
(-1.63041e-19 5.72855e-19 -0.0115739)
(-1.76088e-19 4.00409e-19 -0.0221017)
(1.6487e-19 -4.77538e-19 -0.0399268)
(-2.66139e-20 2.29291e-20 -0.068222)
(6.59692e-20 -2.09059e-20 -0.110191)
(1.92241e-19 -1.19569e-19 -0.168177)
(-2.08762e-19 1.88511e-19 -0.242389)
(-3.04011e-20 -4.90948e-20 -0.321677)
(-7.8151e-21 4.90054e-19 0.00166915)
(-7.8598e-22 -4.38038e-21 0.00180061)
(5.20878e-21 4.51161e-21 0.00188211)
(-5.03749e-21 4.54871e-19 0.00192361)
(-6.17318e-21 -4.78676e-19 0.00193442)
(1.70374e-20 1.46719e-20 0.00192229)
(-3.00359e-20 9.21236e-19 0.00189297)
(2.0747e-20 -9.26265e-19 0.00185031)
(2.48599e-21 -4.58228e-21 0.00179644)
(-1.12396e-20 -7.65559e-23 0.00173209)
(1.68307e-20 -1.40461e-20 0.00165687)
(-5.52404e-21 1.4172e-22 0.00156959)
(-6.11216e-21 -4.29677e-23 0.00146861)
(5.77191e-21 2.24573e-22 0.00135212)
(-4.03785e-21 3.76669e-22 0.0012182)
(5.79085e-20 -8.31369e-19 0.00106473)
(-5.12023e-20 8.5723e-19 0.000888933)
(-1.82139e-20 -8.24484e-22 0.000686575)
(2.09736e-20 -9.74107e-21 0.000450363)
(-9.36128e-20 7.7322e-19 0.000166346)
(1.13357e-19 -7.78856e-19 -0.000194453)
(-2.6544e-20 3.33708e-21 -0.000694962)
(1.85953e-20 -4.37876e-23 -0.0014721)
(4.39333e-20 8.35626e-21 -0.00281413)
(-2.60383e-19 5.94522e-19 -0.00529435)
(3.72471e-19 -1.21464e-18 -0.00997135)
(-1.8086e-19 6.18779e-19 -0.0186363)
(2.83091e-19 -4.81684e-19 -0.0340336)
(-2.71607e-19 5.71741e-19 -0.0599256)
(-6.68352e-19 5.93892e-19 -0.100853)
(1.26963e-18 -1.27399e-18 -0.16146)
(-6.27411e-19 6.50345e-19 -0.245191)
(2.25694e-20 -2.6903e-21 -0.352065)
(5.46661e-21 -4.20496e-20 -0.454407)
(4.84354e-21 4.29182e-21 0.00150858)
(-1.52498e-21 4.64092e-19 0.00163486)
(1.85188e-20 -5.03224e-19 0.00170418)
(7.43316e-21 2.9215e-20 0.00172701)
(-4.22967e-20 9.60585e-19 0.00171308)
(2.32327e-20 -9.65363e-19 0.00167034)
(1.18508e-20 2.43431e-20 0.0016046)
(-2.07393e-20 -2.68145e-22 0.00151949)
(1.35666e-20 1.10561e-20 0.00141672)
(-3.14744e-20 9.30103e-19 0.00129629)
(2.40392e-20 -9.23421e-19 0.00115683)
(3.25475e-21 1.10383e-20 0.000995928)
(1.14094e-20 2.83952e-20 0.000810493)
(-1.31962e-20 -6.29796e-22 0.000597074)
(1.11377e-21 -1.36315e-20 0.000351955)
(-4.24753e-20 1.38726e-20 7.09847e-05)
(4.05305e-20 1.32529e-20 -0.000250948)
(-3.95158e-21 -2.78026e-20 -0.000620928)
(7.16438e-20 -7.82128e-19 -0.00105009)
(-6.0668e-20 8.05836e-19 -0.00155834)
(2.53987e-19 -1.56329e-18 -0.0021855)
(-2.27786e-19 1.57948e-18 -0.00301666)
(2.89221e-19 -1.49403e-18 -0.00423591)
(8.07014e-20 1.39649e-19 -0.00622992)
(-3.37756e-19 1.42914e-18 -0.00976618)
(-1.41284e-19 -2.65775e-20 -0.0162582)
(1.90833e-20 3.44964e-22 -0.0280914)
(-2.19573e-20 5.51208e-22 -0.048918)
(6.48697e-20 1.87891e-21 -0.0837712)
(3.21639e-20 1.54506e-20 -0.138845)
(-1.35895e-19 5.83412e-21 -0.220791)
(7.81212e-20 5.77841e-21 -0.335082)
(-1.99303e-22 -3.74189e-22 -0.482127)
(4.32615e-20 7.56388e-22 -0.602837)
(-3.25003e-21 7.2853e-21 0.00101229)
(3.37138e-20 -9.7705e-19 0.00110754)
(2.31487e-20 -9.3817e-19 0.00114176)
(7.17655e-21 2.26159e-20 0.00112455)
(-1.89513e-20 9.76519e-19 0.00106477)
(-2.31753e-20 -9.31481e-21 0.000969479)
(1.41415e-20 1.02789e-20 0.000843505)
(-4.43493e-20 9.49328e-19 0.000689417)
(3.36271e-20 -9.67523e-19 0.000507674)
(6.80361e-20 -9.2794e-19 0.000296807)
(-6.94106e-20 9.61719e-19 5.36556e-05)
(1.72943e-20 -2.29511e-20 -0.00022632)
(5.87709e-20 -9.30759e-19 -0.000548673)
(-9.05007e-20 9.56782e-19 -0.00091968)
(5.01233e-21 1.4166e-20 -0.00134624)
(-1.91822e-19 1.75864e-18 -0.00183611)
(1.68607e-19 -1.82929e-18 -0.00239846)
(5.60791e-20 7.00026e-20 -0.00304507)
(-2.48735e-19 1.67702e-18 -0.00379267)
(2.22564e-19 -1.7537e-18 -0.00466856)
(-3.65153e-20 -4.04171e-21 -0.00572401)
(4.68995e-19 -1.592e-18 -0.00706535)
(-4.34576e-19 1.64965e-18 -0.00892069)
(-7.84587e-20 -8.34773e-20 -0.01177)
(7.00946e-19 -1.40617e-18 -0.016571)
(-1.21322e-18 2.92615e-18 -0.0250992)
(-8.44335e-20 -1.63133e-19 -0.0403719)
(-1.16492e-19 -1.24444e-19 -0.0670529)
(8.26692e-19 -1.30194e-18 -0.111681)
(4.77927e-20 7.59585e-20 -0.182633)
(-1.00145e-18 8.92711e-19 -0.289883)
(9.79454e-19 -9.85825e-19 -0.444127)
(1.09715e-20 3.52405e-20 -0.651479)
(1.11723e-20 -3.21361e-21 -0.796826)
(-1.6594e-21 -1.97363e-20 0.000260114)
(1.88805e-20 -1.01429e-18 0.000304423)
(-6.43084e-21 -6.89512e-21 0.000286968)
(-1.86007e-22 1.37956e-22 0.000215753)
(1.32058e-20 9.72216e-21 9.81484e-05)
(-4.58356e-20 9.79999e-19 -6.00769e-05)
(3.91661e-20 -1.00315e-18 -0.000255182)
(1.47009e-20 9.61246e-21 -0.000485504)
(-1.02677e-20 -1.54226e-20 -0.000751359)
(-7.08905e-21 1.13796e-20 -0.00105489)
(-6.53637e-20 9.51222e-19 -0.00139981)
(1.42051e-19 -1.94665e-18 -0.00179106)
(-6.55822e-20 1.02056e-18 -0.00223429)
(-1.72347e-19 1.8884e-18 -0.00273532)
(-3.14994e-20 -4.59805e-20 -0.00329972)
(6.83312e-21 -2.38019e-20 -0.00393254)
(-7.16783e-20 -5.48935e-20 -0.00463819)
(2.3655e-19 -1.90244e-18 -0.00542061)
(3.87393e-19 -1.76186e-18 -0.00628428)
(-3.37857e-19 1.85701e-18 -0.00723808)
(-3.93261e-20 -6.36132e-20 -0.00830694)
(4.55185e-19 -1.70137e-18 -0.00956258)
(-3.8975e-19 1.81155e-18 -0.0111945)
(-6.72035e-19 1.61048e-18 -0.0136559)
(5.55085e-19 -1.71033e-18 -0.0179301)
(9.0838e-20 -1.29552e-20 -0.0259521)
(9.19155e-19 -1.54109e-18 -0.0411691)
(1.58735e-19 1.23956e-19 -0.0691332)
(-1.09093e-18 1.52621e-18 -0.117945)
(-2.04195e-20 -4.72438e-20 -0.198463)
(4.08341e-20 6.42478e-22 -0.325085)
(-4.06912e-20 1.88268e-20 -0.520686)
(-6.01182e-19 6.28328e-19 -0.8275)
(5.90438e-19 -6.39698e-19 -1.15637)
(-9.73361e-21 -2.60852e-21 0.00138529)
(-7.10623e-21 2.2942e-21 -0.0103497)
(6.55883e-21 5.23022e-21 -0.0192916)
(-9.47603e-21 -1.23341e-20 -0.0255549)
(9.89036e-21 5.25257e-21 -0.0292852)
(-3.62272e-22 1.56921e-21 -0.0307598)
(-9.4378e-23 -5.91516e-23 -0.0303666)
(-2.34959e-21 5.13879e-24 -0.0285549)
(2.27547e-21 -4.97668e-24 -0.0257849)
(-5.31766e-23 1.16302e-25 -0.022482)
(-4.18015e-23 9.1424e-26 -0.0190038)
(8.51515e-22 -1.86235e-24 -0.0156232)
(-8.54256e-22 1.86834e-24 -0.0125261)
(-4.98686e-22 1.09068e-24 -0.00981935)
(1.12805e-22 -7.48612e-23 -0.00754526)
(2.98029e-21 7.63774e-20 -0.0056986)
(-2.31124e-21 -7.14397e-20 -0.00424303)
(-6.08536e-24 -7.02947e-23 -0.00312527)
(-1.94321e-24 5.37341e-23 -0.00228606)
(-1.62123e-21 -9.18567e-20 -0.00166774)
(1.62657e-21 9.19897e-20 -0.00121884)
(-1.08424e-21 -9.12935e-20 -0.000896167)
(-1.44433e-20 2.21384e-20 0.00119558)
(1.94777e-21 -2.56495e-20 -0.0333871)
(3.02354e-21 -2.9012e-21 -0.0594059)
(-2.0554e-20 -1.4927e-20 -0.0772615)
(1.97484e-20 1.62899e-20 -0.087542)
(-7.35151e-21 5.37337e-21 -0.0912059)
(5.23439e-21 2.30857e-23 -0.0894841)
(-4.17542e-20 -1.18406e-19 -0.0837397)
(4.50075e-20 1.10089e-19 -0.0753307)
(-9.66429e-21 -2.54407e-21 -0.0654883)
(4.1555e-21 -6.96004e-21 -0.0552329)
(4.04679e-20 2.23095e-19 -0.0453334)
(-4.34398e-20 -2.21131e-19 -0.0363064)
(-3.68255e-20 -2.71295e-19 -0.0284433)
(4.59299e-21 -2.17413e-20 -0.0218529)
(3.33318e-20 2.9214e-19 -0.0165104)
(-1.07821e-21 -4.54548e-21 -0.0123044)
(-1.03016e-21 -1.06115e-20 -0.00907717)
(1.05844e-24 -9.43109e-24 -0.00665527)
(5.0097e-23 -1.09567e-25 -0.00487099)
(2.13362e-22 2.67493e-24 -0.0035751)
(-3.46134e-22 -6.29541e-21 -0.00264277)
(-1.53532e-20 3.82765e-23 -0.00814165)
(3.17779e-20 1.44288e-20 -0.0636133)
(-1.12017e-20 -2.21021e-21 -0.104224)
(-3.75412e-20 -1.19885e-20 -0.130835)
(1.4603e-20 6.70406e-21 -0.144973)
(-1.13132e-19 -1.67224e-19 -0.148623)
(1.22093e-19 1.51704e-19 -0.144028)
(1.58959e-19 2.79931e-19 -0.133488)
(-9.39082e-21 7.2852e-20 -0.119179)
(-3.01634e-19 -7.01501e-19 -0.103001)
(3.08296e-19 8.06686e-19 -0.0864832)
(-1.49917e-19 -4.15546e-19 -0.0707502)
(-1.04468e-21 -1.08546e-20 -0.0565358)
(-8.93684e-22 -1.0855e-21 -0.0442351)
(1.14725e-19 6.17415e-19 -0.0339742)
(-1.38894e-20 2.72447e-20 -0.0256849)
(-9.84249e-20 -6.34444e-19 -0.0191752)
(3.60434e-21 2.0832e-20 -0.0141889)
(-8.0462e-22 2.57526e-23 -0.0104507)
(3.67891e-23 -2.76736e-22 -0.00769749)
(2.78601e-20 3.89302e-19 -0.00569681)
(-2.70506e-20 -3.76599e-19 -0.00425488)
(1.32576e-21 2.65508e-20 -0.0314736)
(8.66879e-21 -5.03433e-20 -0.106031)
(1.43867e-19 1.87168e-19 -0.157016)
(-3.81534e-19 -3.73218e-19 -0.187605)
(2.53412e-19 1.83433e-19 -0.201255)
(1.68232e-19 2.4501e-19 -0.201486)
(-1.89154e-19 -2.22904e-19 -0.191734)
(2.04397e-19 3.32442e-19 -0.175192)
(-4.29025e-19 -7.171e-19 -0.154677)
(2.36828e-19 3.71859e-19 -0.132525)
(-5.94122e-21 1.26391e-20 -0.110539)
(-4.57908e-21 7.45305e-22 -0.0899894)
(7.27312e-21 9.97029e-21 -0.071668)
(-1.7743e-19 -6.19736e-19 -0.0559645)
(1.68744e-19 5.9763e-19 -0.0429568)
(2.50053e-21 2.23499e-20 -0.0325032)
(-7.39819e-22 -1.14703e-20 -0.0243259)
(1.11508e-19 7.33869e-19 -0.0180798)
(-1.11576e-19 -7.32318e-19 -0.0134058)
(-1.41978e-21 -1.29223e-20 -0.00996606)
(-2.64722e-22 -1.29011e-23 -0.00746518)
(5.42973e-22 1.14185e-22 -0.00565928)
(2.70695e-20 -1.35163e-23 -0.0769211)
(-9.12991e-22 -6.7371e-22 -0.167033)
(-5.71207e-20 -1.53333e-21 -0.221143)
(7.58131e-20 -3.10269e-21 -0.248637)
(-2.76511e-20 -6.639e-21 -0.256007)
(-3.11067e-20 -1.43231e-21 -0.248675)
(1.49309e-20 4.62035e-21 -0.231214)
(-7.65123e-21 -6.31198e-21 -0.207471)
(4.24363e-20 -1.71441e-20 -0.180591)
(5.20468e-19 1.00795e-18 -0.153025)
(-3.25193e-20 8.83764e-20 -0.126557)
(-5.20224e-19 -1.11605e-18 -0.102378)
(4.57541e-19 1.24218e-18 -0.0811713)
(-4.65056e-19 -1.24082e-18 -0.0632118)
(1.91867e-19 6.88439e-19 -0.0484699)
(-1.98548e-19 -7.11714e-19 -0.0367051)
(3.51691e-21 9.90027e-21 -0.0275521)
(-5.98734e-21 -1.16315e-20 -0.0205903)
(1.55502e-21 -1.23579e-20 -0.0153968)
(1.68076e-21 1.23784e-20 -0.0115816)
(1.09046e-21 3.20955e-23 -0.0088081)
(-4.0335e-21 -2.60758e-20 -0.00680041)
(-2.12357e-22 7.22045e-22 -0.00534302)
(-8.52251e-20 4.59724e-22 -0.152684)
(2.78939e-20 2.87034e-20 -0.254271)
(-2.74047e-19 -3.93639e-19 -0.299396)
(3.18809e-19 3.41854e-19 -0.313996)
(-3.21767e-20 4.9056e-20 -0.308352)
(-5.34181e-19 -7.75009e-19 -0.289294)
(-4.26994e-20 -1.43124e-19 -0.261921)
(-3.14221e-20 -1.1952e-19 -0.230202)
(1.31151e-18 2.12361e-18 -0.197149)
(-7.02731e-19 -1.06317e-18 -0.164948)
(3.92025e-20 -1.92793e-21 -0.135085)
(6.24194e-19 1.33987e-18 -0.108465)
(-6.23894e-19 -1.31112e-18 -0.0855308)
(7.09064e-21 -3.26632e-21 -0.0663701)
(-4.74191e-19 -1.50445e-18 -0.0508073)
(4.80907e-19 1.50403e-18 -0.038493)
(-1.12206e-20 -4.71864e-21 -0.0289803)
(-3.49152e-19 -1.6295e-18 -0.021788)
(3.54429e-19 1.63318e-18 -0.0164482)
(-2.86832e-21 -1.14307e-20 -0.0125387)
(1.27221e-19 8.62446e-19 -0.00970021)
(-1.19488e-19 -8.31553e-19 -0.00764247)
(-1.88792e-21 -1.86028e-21 -0.00614009)
(-1.5614e-19 -1.52895e-19 -0.278091)
(1.86169e-19 1.13557e-19 -0.358952)
(-2.3685e-21 3.67296e-20 -0.370945)
(-3.4189e-20 -3.57884e-22 -0.361128)
(2.27282e-20 -1.79793e-20 -0.337903)
(7.0623e-19 1.00571e-18 -0.305978)
(2.23455e-20 1.65354e-19 -0.269451)
(-7.49423e-19 -1.13314e-18 -0.231584)
(-2.17391e-20 1.90598e-21 -0.194701)
(-7.58507e-19 -1.40033e-18 -0.16036)
(7.89116e-19 1.34809e-18 -0.129527)
(6.99394e-19 1.52967e-18 -0.102709)
(-7.1773e-19 -1.49138e-18 -0.0800544)
(9.47034e-21 -1.52731e-20 -0.0614417)
(5.77137e-19 1.64455e-18 -0.0465558)
(-5.84038e-19 -1.62239e-18 -0.0349545)
(-4.67318e-19 -1.713e-18 -0.026132)
(5.24589e-20 -4.09012e-20 -0.0195715)
(4.00193e-20 -3.36257e-20 -0.0147862)
(4.31654e-20 -2.0268e-20 -0.0113462)
(3.34484e-19 1.78035e-18 -0.0088931)
(1.30343e-19 9.06553e-19 -0.00714188)
(-2.53582e-19 -1.83447e-18 -0.00587731)
(7.90248e-20 1.38367e-19 -0.246433)
(-4.42342e-20 -0 -0.280908)
(2.88799e-22 -0 -0.284531)
(0 -0 -0.272227)
(-2.32953e-22 -0 -0.250963)
(-2.58638e-20 -0 -0.224679)
(3.10316e-21 -0 -0.195913)
(2.29242e-20 -0 -0.166521)
(-1.35299e-22 -0 -0.13792)
(1.4544e-20 -0 -0.111155)
(-1.43859e-20 -0 -0.086957)
(-1.03798e-20 -0 -0.0657852)
(1.03357e-20 -0 -0.0478595)
(0 -0 -0.0331882)
(-6.21599e-21 -0 -0.0216015)
(6.18938e-21 -0 -0.0127939)
(4.53899e-21 -0 -0.00637392)
(-5.81097e-22 -0 -0.00191288)
(-4.61706e-22 -0 0.00101192)
(-3.87668e-22 -0 0.00278548)
(-3.06685e-21 -0 0.00373599)
(-1.25218e-21 -0 0.00412695)
(2.44234e-21 -0 0.00415989)
(1.17185e-21 -0 0.00398012)
(0 -7.84163e-20 -0.375605)
(0 -0 -0.351649)
(0 -0 -0.329176)
(0 -0 -0.301775)
(0 -0 -0.270245)
(0 -0 -0.236663)
(0 -0 -0.202815)
(0 -0 -0.17007)
(0 -0 -0.139441)
(0 -0 -0.111625)
(0 -0 -0.0870486)
(0 -0 -0.0659141)
(0 -0 -0.0482373)
(0 -0 -0.0338805)
(0 -0 -0.0225817)
(0 -0 -0.0139883)
(0 -0 -0.00769377)
(0 -0 -0.00327501)
(0 -0 -0.000325247)
(0 -0 0.00152099)
(0 -0 0.0025732)
(0 -0 0.00307977)
(0 -0 0.0032298)
(0 6.16981e-22 -0.435206)
(0 -0 -0.390967)
(0 -0 -0.35202)
(0 -0 -0.313171)
(0 -0 -0.273885)
(0 -0 -0.235248)
(0 -0 -0.198392)
(0 -0 -0.164189)
(0 -0 -0.133237)
(0 -0 -0.105878)
(0 -0 -0.0822328)
(0 -0 -0.0622547)
(0 -0 -0.0457673)
(0 -0 -0.0324997)
(0 -0 -0.0221121)
(0 -0 -0.0142201)
(0 -0 -0.00841972)
(0 -0 -0.00431203)
(0 -0 -0.00152546)
(0 -0 0.000267872)
(0 -0 0.00134286)
(0 -0 0.00191894)
(0 -0 0.00216381)
(0 -0 -0.441453)
(0 -0 -0.39119)
(0 -0 -0.345262)
(0 -0 -0.301147)
(0 -0 -0.258658)
(0 -0 -0.218594)
(0 -0 -0.181705)
(0 -0 -0.148492)
(0 -0 -0.119215)
(0 -0 -0.0939273)
(0 -0 -0.0725089)
(0 -0 -0.0547217)
(0 -0 -0.0402498)
(0 -0 -0.028732)
(0 -0 -0.0197834)
(0 -0 -0.0130131)
(0 -0 -0.00803934)
(0 -0 -0.00450353)
(0 -0 -0.00208259)
(0 -0 -0.000497643)
(0 -0 0.000481862)
(0 -0 0.00103845)
(0 -0 0.00131114)
(0 -5.55023e-22 -0.409894)
(0 -0 -0.360526)
(0 -0 -0.314404)
(0 -0 -0.270542)
(0 -0 -0.229239)
(0 -0 -0.191214)
(0 -0 -0.156997)
(0 -0 -0.126844)
(0 -0 -0.100795)
(0 -0 -0.0787108)
(0 -0 -0.0603284)
(0 -0 -0.0453028)
(0 -0 -0.0332483)
(0 -0 -0.0237675)
(0 -0 -0.0164699)
(0 -0 -0.0109844)
(0 -0 -0.00696795)
(0 -0 -0.00411199)
(0 -0 -0.00214761)
(0 -0 -0.000848159)
(0 -0 -2.94103e-05)
(0 -0 0.000452809)
(0 -0 0.000707688)
(0 -6.29039e-20 -0.35504)
(0 -0 -0.310429)
(0 -0 -0.268408)
(0 -0 -0.228648)
(0 -0 -0.191718)
(0 -0 -0.158242)
(0 -0 -0.128589)
(0 -0 -0.102862)
(0 -0 -0.0809682)
(0 -0 -0.0626796)
(0 -0 -0.0476744)
(0 -0 -0.0355798)
(0 -0 -0.0260045)
(0 -0 -0.0185637)
(0 -0 -0.0128953)
(0 -0 -0.00866911)
(0 -0 -0.00559189)
(0 -0 -0.00340938)
(0 -0 -0.00190665)
(0 -0 -0.000906944)
(0 -0 -0.000269316)
(0 -0 0.000114992)
(0 -0 0.000327662)
(0 6.31238e-20 -0.289685)
(0 -0 -0.251912)
(0 -0 -0.216335)
(0 -0 -0.182816)
(0 -0 -0.152)
(0 -0 -0.124386)
(0 -0 -0.100208)
(0 -0 -0.0794708)
(0 -0 -0.0620234)
(0 -0 -0.0476151)
(0 -0 -0.0359321)
(0 -0 -0.0266287)
(0 -0 -0.0193532)
(0 -0 -0.0137668)
(0 -0 -0.00955781)
(0 -0 -0.00644944)
(0 -0 -0.00420283)
(0 -0 -0.00261705)
(0 -0 -0.00152697)
(0 -0 -0.000800154)
(0 -0 -0.000333116)
(0 -0 -4.73191e-05)
(0 -0 0.000115615)
(0 4.02694e-22 -0.223917)
(0 -0 -0.193727)
(0 -0 -0.165433)
(0 -0 -0.138882)
(0 -0 -0.114674)
(0 -0 -0.0931787)
(0 -0 -0.0745248)
(0 -0 -0.0586626)
(0 -0 -0.0454301)
(0 -0 -0.0345981)
(0 -0 -0.0258982)
(0 -0 -0.019043)
(0 -0 -0.0137434)
(0 -0 -0.00972281)
(0 -0 -0.00672935)
(0 -0 -0.00454266)
(0 -0 -0.0029767)
(0 -0 -0.00187889)
(0 -0 -0.00112716)
(0 -0 -0.000626095)
(0 -0 -0.000302771)
(0 -0 -0.000102912)
(0 -0 1.33499e-05)
(0 -3.52387e-22 -0.164588)
(0 -0 -0.141707)
(0 -0 -0.12045)
(0 -0 -0.100574)
(0 -0 -0.082574)
(0 -0 -0.0667066)
(0 -0 -0.0530301)
(0 -0 -0.0414723)
(0 -0 -0.031888)
(0 -0 -0.0240926)
(0 -0 -0.017879)
(0 -0 -0.0130286)
(0 -0 -0.00932058)
(0 -0 -0.00654296)
(0 -0 -0.0045024)
(0 -0 -0.00303112)
(0 -0 -0.00198967)
(0 -0 -0.00126633)
(0 -0 -0.000774089)
(0 -0 -0.000446798)
(0 -0 -0.00023522)
(0 -0 -0.000103556)
(0 -0 -2.58838e-05)
(0 3.79145e-20 -0.115377)
(0 -0 -0.0988647)
(0 -0 -0.0837199)
(0 -0 -0.0696053)
(0 -0 -0.0568927)
(0 -0 -0.0457488)
(0 -0 -0.0361889)
(0 -0 -0.0281403)
(0 -0 -0.0214885)
(0 -0 -0.0160999)
(0 -0 -0.0118299)
(0 -0 -0.00852508)
(0 -0 -0.00602799)
(0 -0 -0.00418436)
(0 -0 -0.00285196)
(0 -0 -0.00190738)
(0 -0 -0.00124929)
(0 -0 -0.000798273)
(0 -0 -0.000494307)
(0 -0 -0.000293232)
(0 -0 -0.00016327)
(0 -0 -8.20512e-05)
(0 -0 -3.36741e-05)
(0 -3.74892e-20 -0.0773383)
(0 -0 -0.0659346)
(0 -0 -0.0556701)
(0 -0 -0.0461357)
(0 -0 -0.0375875)
(0 -0 -0.0301243)
(0 -0 -0.0237375)
(0 -0 -0.0183649)
(0 -0 -0.0139254)
(0 -0 -0.0103332)
(0 -0 -0.00749806)
(0 -0 -0.00532178)
(0 -0 -0.00369907)
(0 -0 -0.00252267)
(0 -0 -0.00169125)
(0 -0 -0.00111613)
(0 -0 -0.000725125)
(0 -0 -0.000462909)
(0 -0 -0.000289108)
(0 -0 -0.000175284)
(0 -0 -0.000101935)
(0 -0 -5.60143e-05)
(0 -0 -2.8509e-05)
(0 -2.87015e-20 -0.0497015)
(0 -0 -0.0421165)
(0 -0 -0.0354797)
(0 -0 -0.029341)
(0 -0 -0.0238611)
(0 -0 -0.019089)
(0 -0 -0.0150034)
(0 -0 -0.0115554)
(0 -0 -0.0086939)
(0 -0 -0.00637208)
(0 -0 -0.00454244)
(0 -0 -0.00314955)
(0 -0 -0.00212795)
(0 -0 -0.00140595)
(0 -0 -0.000912707)
(0 -0 -0.000585124)
(0 -0 -0.000371988)
(0 -0 -0.00023498)
(0 -0 -0.00014731)
(0 -0 -9.1224e-05)
(0 -0 -5.54508e-05)
(0 -0 -3.31237e-05)
(0 -0 -1.97681e-05)
(0 2.85835e-20 -0.030709)
(0 -0 -0.0258083)
(0 -0 -0.021704)
(0 -0 -0.017934)
(0 -0 -0.0145861)
(0 -0 -0.0116738)
(0 -0 -0.00916899)
(0 -0 -0.00703449)
(0 -0 -0.00524251)
(0 -0 -0.00377547)
(0 -0 -0.00261703)
(0 -0 -0.00174254)
(0 -0 -0.00111514)
(0 -0 -0.000688438)
(0 -0 -0.000413199)
(0 -0 -0.000244115)
(0 -0 -0.000144319)
(0 -0 -8.68676e-05)
(0 -0 -5.38844e-05)
(0 -0 -3.45129e-05)
(0 -0 -2.27297e-05)
(0 -0 -1.55766e-05)
(0 -0 -1.14394e-05)
(0 -0 -0.0182949)
(0 -0 -0.015185)
(0 -0 -0.012754)
(0 -0 -0.01055)
(0 -0 -0.0086089)
(0 -0 -0.00691912)
(0 -0 -0.00544829)
(0 -0 -0.00416833)
(0 -0 -0.00306798)
(0 -0 -0.0021499)
(0 -0 -0.00141914)
(0 -0 -0.000872043)
(0 -0 -0.000491232)
(0 -0 -0.000247567)
(0 -0 -0.000106358)
(0 -0 -3.41298e-05)
(0 -0 -3.35101e-06)
(0 -0 5.69066e-06)
(0 -0 5.33356e-06)
(0 -0 2.22311e-06)
(0 -0 -7.85208e-07)
(0 -0 -3.07731e-06)
(0 -0 -4.75857e-06)
(0 -1.95623e-20 -0.0105345)
(0 -0 -0.00857047)
(0 -0 -0.00719405)
(0 -0 -0.00597879)
(0 -0 -0.00492503)
(0 -0 -0.00400406)
(0 -0 -0.00318061)
(0 -0 -0.00243275)
(0 -0 -0.00176035)
(0 -0 -0.00117938)
(0 -0 -0.000708895)
(0 -0 -0.00035897)
(0 -0 -0.000125006)
(0 -0 1.08452e-05)
(0 -0 7.38178e-05)
(0 -0 8.98375e-05)
(0 -0 8.06329e-05)
(0 -0 6.15598e-05)
(0 -0 4.17173e-05)
(0 -0 2.53423e-05)
(0 -0 1.3501e-05)
(0 -0 5.48909e-06)
(0 -0 2.23641e-07)
(0 1.9482e-20 -0.00586561)
(0 -0 -0.0046142)
(0 -0 -0.00387789)
(0 -0 -0.0032641)
(0 -0 -0.00274964)
(0 -0 -0.00229425)
(0 -0 -0.00186068)
(0 -0 -0.00143109)
(0 -0 -0.00101257)
(0 -0 -0.000629608)
(0 -0 -0.000310158)
(0 -0 -7.30249e-05)
(0 -0 7.82336e-05)
(0 -0 0.00015427)
(0 -0 0.000174352)
(0 -0 0.000159752)
(0 -0 0.000128751)
(0 -0 9.42311e-05)
(0 -0 6.35333e-05)
(0 -0 3.96328e-05)
(0 -0 2.26744e-05)
(0 -0 1.12769e-05)
(0 -0 3.84158e-06)
(0 1.5529e-20 -0.00314109)
(0 -0 -0.0023282)
(0 -0 -0.00197087)
(0 -0 -0.00171368)
(0 -0 -0.00151813)
(0 -0 -0.00133639)
(0 -0 -0.00112997)
(0 -0 -0.000883845)
(0 -0 -0.000609812)
(0 -0 -0.000337837)
(0 -0 -0.000101469)
(0 -0 7.50008e-05)
(0 -0 0.000182881)
(0 -0 0.00022831)
(0 -0 0.000226864)
(0 -0 0.000197033)
(0 -0 0.000155139)
(0 -0 0.000112758)
(0 -0 7.63767e-05)
(0 -0 4.83992e-05)
(0 -0 2.85673e-05)
(0 -0 1.52041e-05)
(0 -0 6.46961e-06)
(0 -1.5465e-20 -0.00158301)
(0 -0 -0.0010432)
(0 -0 -0.000908664)
(0 -0 -0.000860773)
(0 -0 -0.000851169)
(0 -0 -0.000827125)
(0 -0 -0.000749571)
(0 -0 -0.000605592)
(0 -0 -0.000410285)
(0 -0 -0.000197215)
(0 -0 -3.52523e-06)
(0 -0 0.000143024)
(0 -0 0.000230513)
(0 -0 0.000262259)
(0 -0 0.000251584)
(0 -0 0.000215342)
(0 -0 0.000168798)
(0 -0 0.000122911)
(0 -0 8.38325e-05)
(0 -0 5.37852e-05)
(0 -0 3.23987e-05)
(0 -0 1.79147e-05)
(0 -0 8.40749e-06)
(0 -0 -0.000697645)
(0 -0 -0.000334346)
(0 -0 -0.000332945)
(0 -0 -0.000409225)
(0 -0 -0.000508355)
(0 -0 -0.000574556)
(0 -0 -0.000568705)
(0 -0 -0.000479688)
(0 -0 -0.000325092)
(0 -0 -0.000141024)
(0 -0 3.29694e-05)
(0 -0 0.000166884)
(0 -0 0.000246747)
(0 -0 0.0002741)
(0 -0 0.000260885)
(0 -0 0.000223017)
(0 -0 0.00017522)
(0 -0 0.000128216)
(0 -0 8.8101e-05)
(0 -0 5.71184e-05)
(0 -0 3.49373e-05)
(0 -0 1.98293e-05)
(0 -0 9.86603e-06)
(0 -0 -0.000188854)
(0 -0 5.3552e-05)
(0 -0 -2.81473e-05)
(0 -0 -0.000180702)
(0 -0 -0.000344929)
(0 -0 -0.000463203)
(0 -0 -0.000496758)
(0 -0 -0.00043616)
(0 -0 -0.000301053)
(0 -0 -0.000129484)
(0 -0 3.73009e-05)
(0 -0 0.000167795)
(0 -0 0.000246692)
(0 -0 0.00027441)
(0 -0 0.000262038)
(0 -0 0.000224956)
(0 -0 0.000177635)
(0 -0 0.000130755)
(0 -0 9.04883e-05)
(0 -0 5.91952e-05)
(0 -0 3.66518e-05)
(0 -0 2.1212e-05)
(0 -0 1.09854e-05)
(0 -8.167e-23 0.000112745)
(0 -0 0.000266664)
(0 -0 0.00012954)
(0 -0 -7.25947e-05)
(0 -0 -0.000277525)
(0 -0 -0.000426562)
(0 -0 -0.000481594)
(0 -0 -0.000434823)
(0 -0 -0.000307711)
(0 -0 -0.000139888)
(0 -0 2.6125e-05)
(0 -0 0.00015778)
(0 -0 0.000238892)
(0 -0 0.000269162)
(0 -0 0.000259152)
(0 -0 0.000223935)
(0 -0 0.000177881)
(0 -0 0.00013172)
(0 -0 9.17518e-05)
(0 -0 6.04841e-05)
(0 -0 3.78241e-05)
(0 -0 2.2227e-05)
(0 -0 1.18577e-05)
(0 -4.58388e-21 0.000300391)
(0 -0 0.000385511)
(0 -0 0.000208529)
(0 -0 -2.80985e-05)
(0 -0 -0.000259955)
(0 -0 -0.000427802)
(0 -0 -0.000494387)
(0 -0 -0.000453521)
(0 -0 -0.000328336)
(0 -0 -0.000159821)
(0 -0 8.50481e-06)
(0 -0 0.000143356)
(0 -0 0.000227971)
(0 -0 0.000261593)
(0 -0 0.000254461)
(0 -0 0.000221476)
(0 -0 0.000176982)
(0 -0 0.000131785)
(0 -0 9.23263e-05)
(0 -0 6.12603e-05)
(0 -0 3.86249e-05)
(0 -0 2.29778e-05)
(0 -0 1.25441e-05)
(0 8.708e-21 0.000424025)
(0 -0 0.000453159)
(0 -0 0.000245505)
(0 -0 -1.67194e-05)
(0 -0 -0.000267441)
(0 -0 -0.000447213)
(0 -0 -0.000519769)
(0 -0 -0.000480512)
(0 -0 -0.000354127)
(0 -0 -0.000182804)
(0 -0 -1.08637e-05)
(0 -0 0.000127884)
(0 -0 0.000216309)
(0 -0 0.000253377)
(0 -0 0.000249136)
(0 -0 0.000218391)
(0 -0 0.00017549)
(0 -0 0.000131326)
(0 -0 9.24616e-05)
(0 -0 6.16875e-05)
(0 -0 3.91595e-05)
(0 -0 2.35317e-05)
(0 -0 1.30872e-05)
(0 -4.12592e-21 0.000510058)
(0 -0 0.000492245)
(0 -0 0.000259767)
(0 -0 -2.24386e-05)
(0 -0 -0.000287018)
(0 -0 -0.000474548)
(0 -0 -0.000549831)
(0 -0 -0.000509823)
(0 -0 -0.000380673)
(0 -0 -0.000205638)
(0 -0 -2.9696e-05)
(0 -0 0.000112982)
(0 -0 0.000205052)
(0 -0 0.000245329)
(0 -0 0.000243757)
(0 -0 0.000215094)
(0 -0 0.000173703)
(0 -0 0.00013055)
(0 -0 9.23029e-05)
(0 -0 6.18649e-05)
(0 -0 3.94948e-05)
(0 -0 2.39332e-05)
(0 -0 1.35173e-05)
(0 -0 0.000572546)
(0 -0 0.000514653)
(0 -0 0.000261417)
(0 -0 -3.6927e-05)
(0 -0 -0.000312018)
(0 -0 -0.000504619)
(0 -0 -0.000580645)
(0 -0 -0.000538565)
(0 -0 -0.000405902)
(0 -0 -0.000226874)
(0 -0 -4.69878e-05)
(0 -0 9.93484e-05)
(0 -0 0.000194692)
(0 -0 0.000237806)
(0 -0 0.000238592)
(0 -0 0.000211788)
(0 -0 0.000171776)
(0 -0 0.000129574)
(0 -0 9.19348e-05)
(0 -0 6.18523e-05)
(0 -0 3.96722e-05)
(0 -0 2.42112e-05)
(0 -0 1.38556e-05)
(0 -4.90696e-23 0.000619191)
(0 -0 0.000526726)
(0 -0 0.000255799)
(0 -0 -5.58435e-05)
(0 -0 -0.000339041)
(0 -0 -0.00053486)
(0 -0 -0.00061035)
(0 -0 -0.000565443)
(0 -0 -0.000428953)
(0 -0 -0.000245958)
(0 -0 -6.23902e-05)
(0 -0 8.72062e-05)
(0 -0 0.000185386)
(0 -0 0.000230929)
(0 -0 0.000233743)
(0 -0 0.000208562)
(0 -0 0.000169781)
(0 -0 0.000128457)
(0 -0 9.14024e-05)
(0 -0 6.16819e-05)
(0 -0 3.97136e-05)
(0 -0 2.43813e-05)
(0 -0 1.41138e-05)
(0 -0 0.000654422)
(0 -0 0.000531965)
(0 -0 0.000245808)
(0 -0 -7.68999e-05)
(0 -0 -0.000366368)
(0 -0 -0.000564053)
(0 -0 -0.000638142)
(0 -0 -0.000589973)
(0 -0 -0.000449571)
(0 -0 -0.000262784)
(0 -0 -7.58815e-05)
(0 -0 7.65444e-05)
(0 -0 0.000177118)
(0 -0 0.000224695)
(0 -0 0.000229219)
(0 -0 0.000205434)
(0 -0 0.000167742)
(0 -0 0.00012722)
(0 -0 9.07198e-05)
(0 -0 6.13611e-05)
(0 -0 3.9621e-05)
(0 -0 2.44447e-05)
(0 -0 1.42946e-05)
(0 2.50211e-21 0.000680926)
(0 -0 0.000532374)
(0 -0 0.000233052)
(0 -0 -9.88856e-05)
(0 -0 -0.000393158)
(0 -0 -0.000591676)
(0 -0 -0.000663755)
(0 -0 -0.000612081)
(0 -0 -0.000467809)
(0 -0 -0.000277474)
(0 -0 -8.76057e-05)
(0 -0 6.72281e-05)
(0 -0 0.000169781)
(0 -0 0.000219027)
(0 -0 0.000224971)
(0 -0 0.000202374)
(0 -0 0.000165638)
(0 -0 0.000125844)
(0 -0 8.98691e-05)
(0 -0 6.0869e-05)
(0 -0 3.93728e-05)
(0 -0 2.43853e-05)
(0 -0 1.43917e-05)
(0 -4.74862e-21 0.000700502)
(0 -0 0.000529213)
(0 -0 0.000218475)
(0 -0 -0.000121147)
(0 -0 -0.000419023)
(0 -0 -0.000617564)
(0 -0 -0.000687195)
(0 -0 -0.000631892)
(0 -0 -0.00048386)
(0 -0 -0.00029025)
(0 -0 -9.77781e-05)
(0 -0 5.90697e-05)
(0 -0 0.000163224)
(0 -0 0.000213811)
(0 -0 0.000220917)
(0 -0 0.000199324)
(0 -0 0.000163423)
(0 -0 0.000124292)
(0 -0 8.88124e-05)
(0 -0 6.01672e-05)
(0 -0 3.89313e-05)
(0 -0 2.416e-05)
(0 -0 1.43496e-05)
(0 2.24753e-21 0.000714701)
(0 -0 0.000523628)
(0 -0 0.000202931)
(0 -0 -0.000143139)
(0 -0 -0.000443654)
(0 -0 -0.000641587)
(0 -0 -0.000708459)
(0 -0 -0.000649482)
(0 -0 -0.000497844)
(0 -0 -0.000301238)
(0 -0 -0.000106508)
(0 -0 5.19919e-05)
(0 -0 0.000157408)
(0 -0 0.000209043)
(0 -0 0.000217079)
(0 -0 0.000196321)
(0 -0 0.000161147)
(0 -0 0.000122614)
(0 -0 8.75984e-05)
(0 -0 5.92986e-05)
(0 -0 3.83226e-05)
(0 -0 2.37835e-05)
(0 -0 1.42087e-05)
(0 -0 0.000725121)
(0 -0 0.000516748)
(0 -0 0.000187445)
(0 -0 -0.000164061)
(0 -0 -0.00046648)
(0 -0 -0.00066333)
(0 -0 -0.000727233)
(0 -0 -0.000664598)
(0 -0 -0.000509534)
(0 -0 -0.000310217)
(0 -0 -0.000113562)
(0 -0 4.62484e-05)
(0 -0 0.000152609)
(0 -0 0.00020502)
(0 -0 0.00021377)
(0 -0 0.000193684)
(0 -0 0.000159122)
(0 -0 0.000121113)
(0 -0 8.65165e-05)
(0 -0 5.85328e-05)
(0 -0 3.77957e-05)
(0 -0 2.34598e-05)
(0 -0 1.40527e-05)
(0 -0 0.000509276)
(0 -0 0.000172487)
(0 -0 -0.000183404)
(0 -0 -0.000487001)
(0 -0 -0.000682351)
(0 -0 -0.000743128)
(0 -0 -0.000676885)
(0 -0 -0.000518595)
(0 -0 -0.000316853)
(0 -0 -0.000118602)
(0 -0 4.21905e-05)
(0 -0 0.000149191)
(0 -0 0.000202114)
(0 -0 0.00021136)