/*--------------------------------*- C++ -*----------------------------------*\
| =========                 |                                                 |
| \\      /  F ield         | OpenFOAM: The Open Source CFD Toolbox           |
|  \\    /   O peration     | Version:  2412                                  |
|   \\  /    A nd           | Website:  www.openfoam.com                      |
|    \\/     M anipulation  |                                                 |
\*---------------------------------------------------------------------------*/
FoamFile
{
    version     2.0;
    format      ascii;
    arch        "LSB;label=32;scalar=64";
    class       surfaceScalarField;
    location    "20.5";
    object      phi;
}
// * * * * * * * * * * * * * * * * * * * * * * * * * * * * * * * * * * * * * //

dimensions      [0 3 -1 0 0 0 0];

oriented        oriented;

internalField   nonuniform List<scalar> 
10424
(
0.00497658
-4.6236e-06
2.4946e-09
0.00498101
-4.42654e-06
1.95142e-09
0.00498524
-4.23347e-06
1.44423e-09
0.00498928
-4.04461e-06
9.78453e-10
0.00499314
-3.86037e-06
5.53893e-10
0.00499682
-3.68109e-06
1.68221e-10
0.00500033
-3.50707e-06
-1.83194e-10
0.00500367
-3.33848e-06
-5.06632e-10
0.00500684
-3.17541e-06
-8.11072e-10
0.00500986
-3.01788e-06
-1.10568e-09
0.00501273
-2.86586e-06
-1.39959e-09
0.00501545
-2.71928e-06
-1.70214e-09
0.00501803
-2.57803e-06
-2.01952e-09
0.00502048
-2.44201e-06
-2.35442e-09
0.00502279
-2.3111e-06
-2.70514e-09
0.00502498
-2.18517e-06
-3.06215e-09
0.00502705
-2.06411e-06
-3.41172e-09
0.005029
-1.9478e-06
-3.73788e-09
0.00503084
-1.83614e-06
-4.0271e-09
0.00503257
-1.729e-06
-4.27528e-09
0.0050342
-1.62626e-06
-4.48826e-09
0.00503573
-1.52778e-06
-4.67848e-09
0.00503717
-1.43346e-06
-4.8564e-09
0.00503852
-1.34318e-06
-5.01869e-09
0.00503978
-1.25687e-06
-5.14611e-09
0.00504096
-1.17445e-06
-5.21265e-09
0.00504206
-1.09585e-06
-5.20234e-09
0.00504309
-1.02095e-06
-5.13095e-09
0.00504404
-9.49621e-07
-5.05297e-09
0.00504493
-8.81703e-07
-5.03574e-09
0.00504575
-8.17074e-07
-5.12046e-09
0.00504651
-7.55666e-07
-5.29145e-09
0.00504722
-6.97467e-07
-5.47509e-09
0.00504786
-6.42492e-07
-5.57512e-09
0.00504846
-5.90737e-07
-5.51858e-09
0.00504901
-5.42138e-07
-5.30011e-09
0.00504951
-4.96578e-07
-4.96976e-09
0.00504997
-4.53912e-07
-4.60632e-09
0.00505039
-4.13976e-07
-4.29459e-09
0.00505077
-3.76665e-07
-4.08699e-09
0.00505111
-3.41881e-07
-3.98858e-09
0.00505143
-3.09657e-07
-3.95861e-09
0.00505171
-2.79921e-07
-3.91351e-09
0.00505197
-2.52836e-07
-3.81608e-09
0.0050522
-2.28061e-07
-3.66638e-09
0.00505241
-2.06014e-07
-3.54817e-09
0.0050526
-1.85767e-07
-3.50508e-09
0.00505277
-1.68735e-07
-3.55631e-09
0.00505293
-1.52661e-07
-3.64851e-09
0.00505307
-1.41279e-07
-3.70356e-09
0.0050532
-1.29087e-07
-3.71806e-09
0.00505333
-1.24615e-07
-3.5864e-09
0.00505345
-1.1577e-07
-3.32905e-09
0.00505357
-1.2004e-07
-2.99882e-09
0.00505369
-1.1343e-07
-2.7207e-09
0.00505382
-1.28885e-07
-2.3559e-09
0.00505395
-1.24171e-07
-1.98328e-09
0.0050541
-1.53768e-07
-1.50319e-09
0.00505426
-1.52182e-07
-1.19948e-09
0.00505445
-1.97568e-07
-5.99214e-10
0.00505466
-2.04638e-07
-2.00851e-10
0.00505492
-2.6422e-07
2.42975e-11
0.00505521
-2.89669e-07
2.19168e-10
0.00505558
-3.64934e-07
5.85627e-10
0.00505599
-4.0861e-07
7.04229e-10
0.00505651
-5.23633e-07
3.26384e-10
0.00505709
-5.80242e-07
1.50159e-09
0.00505774
-6.57526e-07
1.27991e-09
0.00505873
-9.87333e-07
3.02457e-09
0.00505949
-7.66417e-07
3.06938e-09
-1.04487e-06
3.78201e-09
0.00497663
-9.24184e-06
0.00498105
-8.84812e-06
0.00498528
-8.46244e-06
0.00498932
-8.08523e-06
0.00499318
-7.71725e-06
0.00499686
-7.35922e-06
0.00500036
-7.01168e-06
0.0050037
-6.67499e-06
0.00500687
-6.34932e-06
0.00500989
-6.03472e-06
0.00501275
-5.73113e-06
0.00501547
-5.43841e-06
0.00501805
-5.15638e-06
0.00502049
-4.8848e-06
0.00502281
-4.62345e-06
0.00502499
-4.37206e-06
0.00502706
-4.1304e-06
0.00502901
-3.89821e-06
0.00503085
-3.67527e-06
0.00503258
-3.46133e-06
0.00503421
-3.25613e-06
0.00503574
-3.05944e-06
0.00503718
-2.87104e-06
0.00503853
-2.69071e-06
0.00503979
-2.51827e-06
0.00504097
-2.35355e-06
0.00504207
-2.19638e-06
0.00504309
-2.04656e-06
0.00504405
-1.90386e-06
0.00504493
-1.76804e-06
0.00504576
-1.63891e-06
0.00504652
-1.5163e-06
0.00504722
-1.40011e-06
0.00504787
-1.29029e-06
0.00504846
-1.18675e-06
0.00504901
-1.08936e-06
0.00504951
-9.97929e-07
0.00504997
-9.12252e-07
0.00505039
-8.3209e-07
0.00505077
-7.57277e-07
0.00505111
-6.87625e-07
0.00505143
-6.23161e-07
0.00505171
-5.63659e-07
0.00505197
-5.09402e-07
0.0050522
-4.5971e-07
0.00505241
-4.15509e-07
0.0050526
-3.74983e-07
0.00505277
-3.40974e-07
0.00505293
-3.08926e-07
0.00505307
-2.86223e-07
0.0050532
-2.61861e-07
0.00505333
-2.52788e-07
0.00505345
-2.34843e-07
0.00505358
-2.43057e-07
0.00505369
-2.29554e-07
0.00505382
-2.60112e-07
0.00505395
-2.50303e-07
0.0050541
-3.09036e-07
0.00505426
-3.05536e-07
0.00505446
-3.95729e-07
0.00505466
-4.09449e-07
0.00505492
-5.28383e-07
0.00505521
-5.79181e-07
0.00505558
-7.28981e-07
0.00505599
-8.17225e-07
0.00505651
-1.04555e-06
0.00505709
-1.16089e-06
0.00505774
-1.31312e-06
0.00505873
-1.96937e-06
0.00505949
-1.53398e-06
-2.08724e-06
0.00497673
-1.38543e-05
0.00498114
-1.32636e-05
0.00498537
-1.26853e-05
0.0049894
-1.21198e-05
0.00499325
-1.15683e-05
0.00499692
-1.10318e-05
0.00500042
-1.0511e-05
0.00500375
-1.00065e-05
0.00500692
-9.51859e-06
0.00500994
-9.04724e-06
0.0050128
-8.5924e-06
0.00501551
-8.15385e-06
0.00501809
-7.73131e-06
0.00502053
-7.32445e-06
0.00502284
-6.9329e-06
0.00502502
-6.55628e-06
0.00502708
-6.19423e-06
0.00502903
-5.84636e-06
0.00503087
-5.51233e-06
0.0050326
-5.19174e-06
0.00503423
-4.88425e-06
0.00503576
-4.58949e-06
0.00503719
-4.30714e-06
0.00503854
-4.03688e-06
0.0050398
-3.77842e-06
0.00504098
-3.53151e-06
0.00504208
-3.29587e-06
0.0050431
-3.07122e-06
0.00504406
-2.85723e-06
0.00504494
-2.6536e-06
0.00504576
-2.46002e-06
0.00504652
-2.27627e-06
0.00504723
-2.10217e-06
0.00504787
-1.93755e-06
0.00504847
-1.78228e-06
0.00504901
-1.63614e-06
0.00504952
-1.49888e-06
0.00504997
-1.37024e-06
0.00505039
-1.24988e-06
0.00505077
-1.1376e-06
0.00505112
-1.03311e-06
0.00505143
-9.3644e-07
0.00505171
-8.47195e-07
0.00505197
-7.65791e-07
0.0050522
-6.91207e-07
0.00505241
-6.2487e-07
0.0050526
-5.64079e-07
0.00505277
-5.13113e-07
0.00505293
-4.65103e-07
0.00505307
-4.31095e-07
0.00505321
-3.94566e-07
0.00505333
-3.80909e-07
0.00505345
-3.5386e-07
0.00505358
-3.66036e-07
0.00505369
-3.45631e-07
0.00505382
-3.91317e-07
0.00505395
-3.76384e-07
0.0050541
-4.64288e-07
0.00505426
-4.58826e-07
0.00505446
-5.93882e-07
0.00505466
-6.14197e-07
0.00505493
-7.9248e-07
0.00505521
-8.68812e-07
0.00505558
-1.09244e-06
0.00505599
-1.22721e-06
0.00505651
-1.56473e-06
0.00505709
-1.74524e-06
0.00505775
-1.96744e-06
0.00505872
-2.94692e-06
0.0050595
-2.30986e-06
-3.13211e-06
0.00497687
-1.84579e-05
0.00498128
-1.76699e-05
0.00498549
-1.68988e-05
0.00498952
-1.61452e-05
0.00499336
-1.54105e-05
0.00499702
-1.46959e-05
0.00500052
-1.40024e-05
0.00500384
-1.33306e-05
0.005007
-1.26809e-05
0.00501001
-1.20533e-05
0.00501286
-1.14477e-05
0.00501557
-1.08637e-05
0.00501814
-1.03011e-05
0.00502058
-9.75937e-06
0.00502288
-9.238e-06
0.00502506
-8.7365e-06
0.00502712
-8.25437e-06
0.00502907
-7.79113e-06
0.0050309
-7.34626e-06
0.00503263
-6.91929e-06
0.00503426
-6.50974e-06
0.00503578
-6.11713e-06
0.00503722
-5.74103e-06
0.00503856
-5.38102e-06
0.00503982
-5.03672e-06
0.005041
-4.70777e-06
0.00504209
-4.3938e-06
0.00504312
-4.09444e-06
0.00504407
-3.80929e-06
0.00504495
-3.53795e-06
0.00504577
-3.28005e-06
0.00504653
-3.03526e-06
0.00504723
-2.80332e-06
0.00504788
-2.584e-06
0.00504847
-2.37707e-06
0.00504902
-2.18226e-06
0.00504952
-1.99924e-06
0.00504998
-1.82768e-06
0.0050504
-1.66719e-06
0.00505078
-1.51749e-06
0.00505112
-1.37822e-06
0.00505143
-1.24938e-06
0.00505172
-1.13043e-06
0.00505197
-1.02191e-06
0.0050522
-9.22468e-07
0.00505241
-8.34026e-07
0.0050526
-7.52995e-07
0.00505277
-6.85097e-07
0.00505293
-6.21143e-07
0.00505308
-5.75852e-07
0.00505321
-5.27167e-07
0.00505334
-5.08945e-07
0.00505346
-4.72791e-07
0.00505358
-4.88953e-07
0.00505369
-4.61631e-07
0.00505383
-5.22479e-07
0.00505395
-5.02387e-07
0.00505411
-6.19515e-07
0.00505426
-6.1202e-07
0.00505446
-7.92016e-07
0.00505466
-8.18848e-07
0.00505493
-1.05648e-06
0.00505522
-1.15861e-06
0.00505558
-1.45503e-06
0.00505599
-1.63919e-06
0.00505651
-2.07993e-06
0.0050571
-2.33499e-06
0.00505775
-2.61991e-06
0.00505872
-3.91799e-06
0.00505951
-3.09782e-06
-4.18065e-06
0.00497707
-2.30496e-05
0.00498146
-2.20639e-05
0.00498566
-2.10999e-05
0.00498968
-2.01585e-05
0.00499351
-1.92409e-05
0.00499716
-1.83488e-05
0.00500064
-1.74832e-05
0.00500395
-1.66448e-05
0.00500711
-1.5834e-05
0.00501011
-1.50508e-05
0.00501295
-1.4295e-05
0.00501566
-1.35663e-05
0.00501822
-1.28641e-05
0.00502065
-1.2188e-05
0.00502295
-1.15373e-05
0.00502512
-1.09114e-05
0.00502718
-1.03096e-05
0.00502912
-9.73137e-06
0.00503095
-9.17604e-06
0.00503267
-8.64302e-06
0.00503429
-8.13171e-06
0.00503582
-7.64154e-06
0.00503725
-7.17195e-06
0.00503859
-6.72244e-06
0.00503984
-6.29253e-06
0.00504102
-5.88174e-06
0.00504211
-5.48965e-06
0.00504314
-5.11576e-06
0.00504409
-4.75961e-06
0.00504497
-4.42072e-06
0.00504579
-4.09862e-06
0.00504654
-3.79292e-06
0.00504724
-3.50327e-06
0.00504789
-3.22936e-06
0.00504848
-2.97088e-06
0.00504903
-2.72749e-06
0.00504953
-2.49879e-06
0.00504999
-2.2844e-06
0.0050504
-2.08385e-06
0.00505078
-1.8968e-06
0.00505113
-1.7228e-06
0.00505144
-1.56185e-06
0.00505172
-1.41325e-06
0.00505198
-1.27767e-06
0.00505221
-1.15341e-06
0.00505242
-1.0429e-06
0.00505261
-9.41667e-07
0.00505278
-8.56868e-07
0.00505293
-7.76995e-07
0.00505308
-7.20449e-07
0.00505321
-6.59623e-07
0.00505334
-6.36858e-07
0.00505346
-5.91603e-07
0.00505358
-6.11776e-07
0.0050537
-5.77526e-07
0.00505383
-6.53576e-07
0.00505395
-6.28283e-07
0.00505411
-7.74697e-07
0.00505426
-7.65083e-07
0.00505446
-9.9011e-07
0.00505466
-1.02336e-06
0.00505493
-1.32033e-06
0.00505522
-1.4486e-06
0.00505558
-1.8165e-06
0.00505599
-2.0537e-06
0.0050565
-2.59003e-06
0.0050571
-2.93161e-06
0.00505775
-3.27e-06
0.00505871
-4.88079e-06
0.00505952
-3.90125e-06
-5.23391e-06
0.00497731
-2.7626e-05
0.00498169
-2.64422e-05
0.00498588
-2.52854e-05
0.00498987
-2.41564e-05
0.00499369
-2.30566e-05
0.00499733
-2.19877e-05
0.0050008
-2.09508e-05
0.0050041
-1.99466e-05
0.00500724
-1.89755e-05
0.00501023
-1.80375e-05
0.00501306
-1.71324e-05
0.00501576
-1.62596e-05
0.00501831
-1.54186e-05
0.00502073
-1.46088e-05
0.00502302
-1.38294e-05
0.00502519
-1.30796e-05
0.00502724
-1.23587e-05
0.00502918
-1.1666e-05
0.005031
-1.10006e-05
0.00503272
-1.0362e-05
0.00503434
-9.7493e-06
0.00503586
-9.16192e-06
0.00503728
-8.59918e-06
0.00503862
-8.06047e-06
0.00503988
-7.54522e-06
0.00504105
-7.05287e-06
0.00504214
-6.58287e-06
0.00504316
-6.13469e-06
0.00504411
-5.70774e-06
0.00504499
-5.30148e-06
0.0050458
-4.91537e-06
0.00504656
-4.54893e-06
0.00504726
-4.20172e-06
0.0050479
-3.87335e-06
0.0050485
-3.56345e-06
0.00504904
-3.27159e-06
0.00504954
-2.99733e-06
0.00504999
-2.74021e-06
0.00505041
-2.49968e-06
0.00505079
-2.27537e-06
0.00505113
-2.06672e-06
0.00505144
-1.87373e-06
0.00505173
-1.69555e-06
0.00505198
-1.53297e-06
0.00505221
-1.38394e-06
0.00505242
-1.25142e-06
0.00505261
-1.13002e-06
0.00505278
-1.02836e-06
0.00505294
-9.32605e-07
0.00505308
-8.64835e-07
0.00505321
-7.91888e-07
0.00505334
-7.6461e-07
0.00505346
-7.10256e-07
0.00505358
-7.34475e-07
0.0050537
-6.93278e-07
0.00505383
-7.84581e-07
0.00505395
-7.54032e-07
0.00505411
-9.2981e-07
0.00505426
-9.17967e-07
0.00505446
-1.18814e-06
0.00505466
-1.22768e-06
0.00505493
-1.58399e-06
0.00505522
-1.73878e-06
0.00505558
-2.17661e-06
0.005056
-2.47117e-06
0.0050565
-3.09406e-06
0.0050571
-3.53634e-06
0.00505775
-3.91726e-06
0.00505871
-5.83386e-06
0.00505953
-4.723e-06
-6.2928e-06
0.0049776
-3.21837e-05
0.00498196
-3.08014e-05
0.00498613
-2.9452e-05
0.00499011
-2.8136e-05
0.00499391
-2.68547e-05
0.00499753
-2.56098e-05
0.00500098
-2.44025e-05
0.00500427
-2.32336e-05
0.0050074
-2.21032e-05
0.00501037
-2.10114e-05
0.0050132
-1.99578e-05
0.00501588
-1.89419e-05
0.00501842
-1.7963e-05
0.00502083
-1.70202e-05
0.00502312
-1.61128e-05
0.00502528
-1.52398e-05
0.00502732
-1.44005e-05
0.00502925
-1.35938e-05
0.00503107
-1.2819e-05
0.00503278
-1.20752e-05
0.00503439
-1.13616e-05
0.00503591
-1.06775e-05
0.00503733
-1.0022e-05
0.00503866
-9.39441e-06
0.00503991
-8.79416e-06
0.00504108
-8.22055e-06
0.00504217
-7.67295e-06
0.00504319
-7.15073e-06
0.00504413
-6.65323e-06
0.00504501
-6.17983e-06
0.00504582
-5.72992e-06
0.00504658
-5.30292e-06
0.00504728
-4.89833e-06
0.00504792
-4.51568e-06
0.00504851
-4.1545e-06
0.00504905
-3.81433e-06
0.00504955
-3.49464e-06
0.00505
-3.1949e-06
0.00505042
-2.91451e-06
0.0050508
-2.65304e-06
0.00505114
-2.40984e-06
0.00505145
-2.18489e-06
0.00505173
-1.97721e-06
0.00505199
-1.78769e-06
0.00505222
-1.61398e-06
0.00505242
-1.45949e-06
0.00505261
-1.31801e-06
0.00505278
-1.19948e-06
0.00505294
-1.08796e-06
0.00505308
-1.00888e-06
0.00505322
-9.24015e-07
0.00505334
-8.92009e-07
0.00505346
-8.28901e-07
0.00505358
-8.56758e-07
0.0050537
-8.09164e-07
0.00505383
-9.15076e-07
0.00505396
-8.80039e-07
0.00505411
-1.08432e-06
0.00505426
-1.07115e-06
0.00505446
-1.38555e-06
0.00505467
-1.43227e-06
0.00505493
-1.84696e-06
0.00505522
-2.02951e-06
0.00505558
-2.53492e-06
0.005056
-2.89206e-06
0.0050565
-3.59121e-06
0.00505711
-4.15011e-06
0.00505775
-4.56129e-06
0.0050587
-6.77625e-06
0.00505954
-5.56497e-06
-7.35863e-06
0.0052166
-3.69358e-05
0.00522115
-3.53454e-05
0.00522549
-3.37945e-05
0.00522963
-3.22831e-05
0.00523359
-3.08126e-05
0.00523737
-2.93846e-05
0.00524097
-2.8e-05
0.00524439
-2.66596e-05
0.00524765
-2.53636e-05
0.00525075
-2.41119e-05
0.0052537
-2.29039e-05
0.0052565
-2.17391e-05
0.00525915
-2.06166e-05
0.00526166
-1.95355e-05
0.00526405
-1.84949e-05
0.0052663
-1.74937e-05
0.00526843
-1.65309e-05
0.00527044
-1.56056e-05
0.00527234
-1.47167e-05
0.00527413
-1.38634e-05
0.00527581
-1.30446e-05
0.00527739
-1.22596e-05
0.00527888
-1.15074e-05
0.00528027
-1.07872e-05
0.00528158
-1.00983e-05
0.00528279
-9.4399e-06
0.00528393
-8.81133e-06
0.00528499
-8.21185e-06
0.00528598
-7.64073e-06
0.0052869
-7.09726e-06
0.00528775
-6.58074e-06
0.00528854
-6.09053e-06
0.00528927
-5.62603e-06
0.00528994
-5.1867e-06
0.00529055
-4.77199e-06
0.00529112
-4.38137e-06
0.00529164
-4.01422e-06
0.00529212
-3.66998e-06
0.00529255
-3.34796e-06
0.00529294
-3.04767e-06
0.0052933
-2.76838e-06
0.00529363
-2.51004e-06
0.00529392
-2.27157e-06
0.00529419
-2.05386e-06
0.00529443
-1.85446e-06
0.00529465
-1.67686e-06
0.00529484
-1.51465e-06
0.00529502
-1.37813e-06
0.00529518
-1.25071e-06
0.00529533
-1.15898e-06
0.00529547
-1.06287e-06
0.00529561
-1.02425e-06
0.00529573
-9.54286e-07
0.00529586
-9.8296e-07
0.00529598
-9.32512e-07
0.00529611
-1.04904e-06
0.00529625
-1.01487e-06
0.00529641
-1.2427e-06
0.00529657
-1.23498e-06
0.00529677
-1.58862e-06
0.00529699
-1.64977e-06
0.00529726
-2.11917e-06
0.00529757
-2.33674e-06
0.00529794
-2.90686e-06
0.00529839
-3.33781e-06
0.0052989
-4.10388e-06
0.00529955
-4.80377e-06
0.00530023
-5.23221e-06
0.0053012
-7.75241e-06
0.00530211
-6.46875e-06
-8.48671e-06
0.00521703
-4.16588e-05
0.00522155
-3.98604e-05
0.00522586
-3.81086e-05
0.00522998
-3.64029e-05
0.00523391
-3.47445e-05
0.00523766
-3.31346e-05
0.00524124
-3.15743e-05
0.00524464
-3.0064e-05
0.00524788
-2.86038e-05
0.00525096
-2.71935e-05
0.00525389
-2.58325e-05
0.00525667
-2.45201e-05
0.00525931
-2.32553e-05
0.00526181
-2.2037e-05
0.00526418
-2.08642e-05
0.00526643
-1.97358e-05
0.00526855
-1.86505e-05
0.00527055
-1.76074e-05
0.00527244
-1.66053e-05
0.00527422
-1.56431e-05
0.00527589
-1.47199e-05
0.00527747
-1.38345e-05
0.00527894
-1.29862e-05
0.00528033
-1.21739e-05
0.00528163
-1.13968e-05
0.00528284
-1.06542e-05
0.00528398
-9.94504e-06
0.00528503
-9.26869e-06
0.00528602
-8.6243e-06
0.00528693
-8.01109e-06
0.00528778
-7.42827e-06
0.00528856
-6.87513e-06
0.00528929
-6.351e-06
0.00528996
-5.85523e-06
0.00529057
-5.38722e-06
0.00529114
-4.94634e-06
0.00529166
-4.53195e-06
0.00529213
-4.14338e-06
0.00529256
-3.77989e-06
0.00529295
-3.44092e-06
0.00529331
-3.12569e-06
0.00529364
-2.83408e-06
0.00529393
-2.56495e-06
0.00529419
-2.31914e-06
0.00529443
-2.09417e-06
0.00529465
-1.89352e-06
0.00529485
-1.7107e-06
0.00529502
-1.55619e-06
0.00529519
-1.41301e-06
0.00529534
-1.30856e-06
0.00529547
-1.20144e-06
0.00529561
-1.15598e-06
0.00529573
-1.07954e-06
0.00529586
-1.10859e-06
0.00529598
-1.05589e-06
0.00529611
-1.18233e-06
0.00529625
-1.14986e-06
0.00529641
-1.40031e-06
0.00529657
-1.39901e-06
0.00529677
-1.79088e-06
0.00529699
-1.86739e-06
0.00529726
-2.39048e-06
0.00529757
-2.64442e-06
0.00529794
-3.27649e-06
0.00529839
-3.78756e-06
0.00529889
-4.60797e-06
0.00529956
-5.46836e-06
0.00530022
-5.89908e-06
0.00530119
-8.71566e-06
0.00530212
-7.39756e-06
-9.62366e-06
0.00521752
-4.6348e-05
0.005222
-4.43421e-05
0.00522628
-4.23903e-05
0.00523037
-4.04917e-05
0.00523428
-3.86468e-05
0.005238
-3.68568e-05
0.00524155
-3.51223e-05
0.00524493
-3.34438e-05
0.00524814
-3.18212e-05
0.0052512
-3.0254e-05
0.00525411
-2.87416e-05
0.00525688
-2.7283e-05
0.0052595
-2.58772e-05
0.00526198
-2.4523e-05
0.00526434
-2.32193e-05
0.00526657
-2.19647e-05
0.00526867
-2.0758e-05
0.00527067
-1.9598e-05
0.00527254
-1.84835e-05
0.00527431
-1.74133e-05
0.00527598
-1.63863e-05
0.00527755
-1.54014e-05
0.00527902
-1.44576e-05
0.0052804
-1.35538e-05
0.00528169
-1.26891e-05
0.0052829
-1.18626e-05
0.00528403
-1.10734e-05
0.00528508
-1.03207e-05
0.00528606
-9.60342e-06
0.00528697
-8.92083e-06
0.00528781
-8.27207e-06
0.00528859
-7.65632e-06
0.00528932
-7.07284e-06
0.00528998
-6.52092e-06
0.00529059
-5.99986e-06
0.00529116
-5.50897e-06
0.00529167
-5.04754e-06
0.00529214
-4.61484e-06
0.00529257
-4.21007e-06
0.00529297
-3.8326e-06
0.00529332
-3.48158e-06
0.00529364
-3.15683e-06
0.00529394
-2.85718e-06
0.0052942
-2.5834e-06
0.00529444
-2.33295e-06
0.00529465
-2.10936e-06
0.00529485
-1.90602e-06
0.00529503
-1.73361e-06
0.00529519
-1.57473e-06
0.00529534
-1.45763e-06
0.00529548
-1.33952e-06
0.00529561
-1.28729e-06
0.00529573
-1.20437e-06
0.00529586
-1.23388e-06
0.00529598
-1.17888e-06
0.00529611
-1.31532e-06
0.00529625
-1.28443e-06
0.00529641
-1.55766e-06
0.00529657
-1.56253e-06
0.00529677
-1.99288e-06
0.00529699
-2.08444e-06
0.00529726
-2.66132e-06
0.00529757
-2.95201e-06
0.00529793
-3.64398e-06
0.00529839
-4.24106e-06
0.00529888
-5.1034e-06
0.00529956
-6.14383e-06
0.00530022
-6.56188e-06
0.00530117
-9.6659e-06
0.00530213
-8.35206e-06
-1.07692e-05
0.00521807
-5.09984e-05
0.00522251
-4.8786e-05
0.00522675
-4.66357e-05
0.00523081
-4.45456e-05
0.00523468
-4.25161e-05
0.00523837
-4.05479e-05
0.00524189
-3.86413e-05
0.00524524
-3.67966e-05
0.00524843
-3.50133e-05
0.00525147
-3.3291e-05
0.00525436
-3.16288e-05
0.0052571
-3.00257e-05
0.0052597
-2.84805e-05
0.00526217
-2.69918e-05
0.00526451
-2.55584e-05
0.00526673
-2.41789e-05
0.00526882
-2.28519e-05
0.0052708
-2.15761e-05
0.00527266
-2.03502e-05
0.00527442
-1.91729e-05
0.00527608
-1.8043e-05
0.00527764
-1.69593e-05
0.0052791
-1.59207e-05
0.00528047
-1.49261e-05
0.00528176
-1.39744e-05
0.00528296
-1.30646e-05
0.00528408
-1.21959e-05
0.00528513
-1.13672e-05
0.0052861
-1.05775e-05
0.00528701
-9.82599e-06
0.00528785
-9.11166e-06
0.00528863
-8.43367e-06
0.00528934
-7.79117e-06
0.00529001
-7.1834e-06
0.00529062
-6.60957e-06
0.00529118
-6.06895e-06
0.00529169
-5.56072e-06
0.00529216
-5.08412e-06
0.00529259
-4.63827e-06
0.00529298
-4.22248e-06
0.00529333
-3.83585e-06
0.00529365
-3.47814e-06
0.00529394
-3.1481e-06
0.00529421
-2.84648e-06
0.00529444
-2.57069e-06
0.00529466
-2.32427e-06
0.00529485
-2.10048e-06
0.00529503
-1.91026e-06
0.00529519
-1.73577e-06
0.00529534
-1.60608e-06
0.00529548
-1.47703e-06
0.00529561
-1.41809e-06
0.00529573
-1.3287e-06
0.00529586
-1.35873e-06
0.00529598
-1.30138e-06
0.00529611
-1.44795e-06
0.00529625
-1.41851e-06
0.0052964
-1.71466e-06
0.00529657
-1.72546e-06
0.00529677
-2.19453e-06
0.00529698
-2.30079e-06
0.00529725
-2.93162e-06
0.00529756
-3.25935e-06
0.00529793
-4.00927e-06
0.00529838
-4.69803e-06
0.00529887
-5.59024e-06
0.00529956
-6.82975e-06
0.00530022
-7.22059e-06
0.00530115
-1.06036e-05
0.00530213
-9.33179e-06
-1.19236e-05
0.00521867
-5.56052e-05
0.00522307
-5.31877e-05
0.00522727
-5.08405e-05
0.00523129
-4.85611e-05
0.00523512
-4.63491e-05
0.00523878
-4.42048e-05
0.00524226
-4.21283e-05
0.00524559
-4.01194e-05
0.00524875
-3.81776e-05
0.00525176
-3.63022e-05
0.00525463
-3.44922e-05
0.00525735
-3.27463e-05
0.00525993
-3.10632e-05
0.00526238
-2.94417e-05
0.0052647
-2.788e-05
0.0052669
-2.63769e-05
0.00526898
-2.49309e-05
0.00527094
-2.35404e-05
0.0052728
-2.22042e-05
0.00527454
-2.09208e-05
0.00527619
-1.96889e-05
0.00527774
-1.85072e-05
0.00527919
-1.73746e-05
0.00528056
-1.62899e-05
0.00528183
-1.52519e-05
0.00528303
-1.42595e-05
0.00528414
-1.33118e-05
0.00528518
-1.24077e-05
0.00528615
-1.15461e-05
0.00528705
-1.07261e-05
0.00528789
-9.9466e-06
0.00528866
-9.20675e-06
0.00528938
-8.5056e-06
0.00529003
-7.84231e-06
0.00529064
-7.21604e-06
0.0052912
-6.62596e-06
0.00529171
-6.07121e-06
0.00529218
-5.55095e-06
0.0052926
-5.06425e-06
0.00529299
-4.61035e-06
0.00529334
-4.1883e-06
0.00529366
-3.79779e-06
0.00529395
-3.43753e-06
0.00529421
-3.10823e-06
0.00529445
-2.80722e-06
0.00529466
-2.5381e-06
0.00529486
-2.29399e-06
0.00529503
-2.08605e-06
0.00529519
-1.89601e-06
0.00529534
-1.75382e-06
0.00529548
-1.61388e-06
0.00529561
-1.54829e-06
0.00529573
-1.45244e-06
0.00529586
-1.48308e-06
0.00529598
-1.42333e-06
0.00529611
-1.58012e-06
0.00529624
-1.55197e-06
0.0052964
-1.87125e-06
0.00529656
-1.88767e-06
0.00529676
-2.39576e-06
0.00529698
-2.51628e-06
0.00529725
-3.20129e-06
0.00529755
-3.56622e-06
0.00529792
-4.37233e-06
0.00529838
-5.15808e-06
0.00529886
-6.06881e-06
0.00529955
-7.52539e-06
0.00530021
-7.87534e-06
0.00530113
-1.15297e-05
0.00530214
-1.03356e-05
-1.30869e-05
0.00521932
-6.0163e-05
0.00522368
-5.75426e-05
0.00522784
-5.50008e-05
0.00523181
-5.25344e-05
0.0052356
-5.01423e-05
0.00523922
-4.78244e-05
0.00524268
-4.55804e-05
0.00524597
-4.34098e-05
0.0052491
-4.13117e-05
0.00525208
-3.92854e-05
0.00525492
-3.73295e-05
0.00525762
-3.54428e-05
0.00526018
-3.36237e-05
0.00526261
-3.18709e-05
0.00526491
-3.01826e-05
0.00526709
-2.85574e-05
0.00526915
-2.69936e-05
0.0052711
-2.54897e-05
0.00527294
-2.40443e-05
0.00527468
-2.26558e-05
0.00527631
-2.1323e-05
0.00527785
-2.00443e-05
0.00527929
-1.88185e-05
0.00528065
-1.76444e-05
0.00528192
-1.65208e-05
0.0052831
-1.54466e-05
0.00528421
-1.44205e-05
0.00528524
-1.34415e-05
0.00528621
-1.25086e-05
0.0052871
-1.16205e-05
0.00528793
-1.07764e-05
0.0052887
-9.97512e-06
0.00528941
-9.21573e-06
0.00529007
-8.49729e-06
0.00529067
-7.81891e-06
0.00529122
-7.17969e-06
0.00529173
-6.57871e-06
0.00529219
-6.01506e-06
0.00529262
-5.48776e-06
0.005293
-4.99599e-06
0.00529335
-4.53873e-06
0.00529367
-4.11562e-06
0.00529396
-3.72531e-06
0.00529422
-3.36849e-06
0.00529445
-3.04241e-06
0.00529467
-2.75072e-06
0.00529486
-2.48639e-06
0.00529503
-2.26085e-06
0.00529519
-2.05534e-06
0.00529534
-1.90075e-06
0.00529548
-1.74995e-06
0.00529561
-1.67782e-06
0.00529573
-1.57549e-06
0.00529585
-1.60683e-06
0.00529597
-1.54461e-06
0.00529611
-1.71176e-06
0.00529624
-1.68474e-06
0.00529639
-2.02733e-06
0.00529656
-2.04904e-06
0.00529676
-2.59647e-06
0.00529697
-2.73077e-06
0.00529724
-3.47023e-06
0.00529755
-3.8724e-06
0.00529791
-4.73317e-06
0.00529837
-5.62066e-06
0.00529884
-6.53956e-06
0.00529954
-8.22973e-06
0.0053002
-8.52627e-06
0.00530111
-1.24453e-05
0.00530214
-1.13619e-05
-1.4259e-05
0.00522003
-6.46667e-05
0.00522434
-6.1846e-05
0.00522845
-5.91124e-05
0.00523238
-5.64617e-05
0.00523613
-5.38924e-05
0.00523971
-5.14037e-05
0.00524312
-4.89948e-05
0.00524638
-4.6665e-05
0.00524948
-4.44132e-05
0.00525243
-4.22382e-05
0.00525524
-4.01387e-05
0.00525791
-3.81132e-05
0.00526045
-3.61601e-05
0.00526285
-3.42778e-05
0.00526513
-3.24646e-05
0.0052673
-3.07188e-05
0.00526934
-2.90387e-05
0.00527127
-2.74228e-05
0.0052731
-2.58694e-05
0.00527482
-2.43771e-05
0.00527644
-2.29442e-05
0.00527797
-2.15695e-05
0.0052794
-2.02515e-05
0.00528074
-1.8989e-05
0.005282
-1.77806e-05
0.00528318
-1.66251e-05
0.00528428
-1.55213e-05
0.00528531
-1.44682e-05
0.00528627
-1.34644e-05
0.00528715
-1.25089e-05
0.00528798
-1.16006e-05
0.00528874
-1.07384e-05
0.00528945
-9.92115e-06
0.0052901
-9.14797e-06
0.0052907
-8.41785e-06
0.00529125
-7.72984e-06
0.00529175
-7.08294e-06
0.00529221
-6.4762e-06
0.00529263
-5.90856e-06
0.00529302
-5.37915e-06
0.00529336
-4.88691e-06
0.00529368
-4.43141e-06
0.00529397
-4.01125e-06
0.00529423
-3.62708e-06
0.00529446
-3.2761e-06
0.00529467
-2.96199e-06
0.00529486
-2.67757e-06
0.00529503
-2.43455e-06
0.00529519
-2.21365e-06
0.00529534
-2.04676e-06
0.00529547
-1.88515e-06
0.0052956
-1.80655e-06
0.00529573
-1.69776e-06
0.00529585
-1.72989e-06
0.00529597
-1.66514e-06
0.0052961
-1.84277e-06
0.00529623
-1.81669e-06
0.00529639
-2.1828e-06
0.00529655
-2.20945e-06
0.00529675
-2.79655e-06
0.00529696
-2.9441e-06
0.00529723
-3.73837e-06
0.00529753
-4.17763e-06
0.00529789
-5.09184e-06
0.00529836
-6.08517e-06
0.00529882
-7.00313e-06
0.00529953
-8.94155e-06
0.00530018
-9.17363e-06
0.00530109
-1.33518e-05
0.00530213
-1.24084e-05
-1.544e-05
0.0052208
-6.9111e-05
0.00522505
-6.60934e-05
0.00522911
-6.31712e-05
0.00523299
-6.03395e-05
0.00523669
-5.75961e-05
0.00524022
-5.49395e-05
0.0052436
-5.23688e-05
0.00524682
-4.98826e-05
0.00524988
-4.74797e-05
0.0052528
-4.51586e-05
0.00525558
-4.29179e-05
0.00525822
-4.07558e-05
0.00526074
-3.86707e-05
0.00526312
-3.66609e-05
0.00526538
-3.47244e-05
0.00526752
-3.28597e-05
0.00526955
-3.10649e-05
0.00527146
-2.93384e-05
0.00527327
-2.76784e-05
0.00527498
-2.60833e-05
0.00527658
-2.45517e-05
0.0052781
-2.3082e-05
0.00527952
-2.16728e-05
0.00528085
-2.03227e-05
0.0052821
-1.90303e-05
0.00528327
-1.77944e-05
0.00528436
-1.66137e-05
0.00528538
-1.5487e-05
0.00528633
-1.44131e-05
0.00528721
-1.33907e-05
0.00528803
-1.24188e-05
0.00528879
-1.1496e-05
0.00528949
-1.06215e-05
0.00529013
-9.79397e-06
0.00529073
-9.01251e-06
0.00529127
-8.27607e-06
0.00529178
-7.5836e-06
0.00529223
-6.93407e-06
0.00529265
-6.32639e-06
0.00529303
-5.75962e-06
0.00529338
-5.23265e-06
0.00529369
-4.74498e-06
0.00529397
-4.29518e-06
0.00529423
-3.88385e-06
0.00529446
-3.50813e-06
0.00529467
-3.17175e-06
0.00529486
-2.86738e-06
0.00529504
-2.607e-06
0.00529519
-2.37083e-06
0.00529534
-2.19173e-06
0.00529547
-2.01938e-06
0.0052956
-1.9344e-06
0.00529572
-1.81914e-06
0.00529584
-1.85217e-06
0.00529596
-1.78481e-06
0.00529609
-1.97305e-06
0.00529622
-1.94773e-06
0.00529638
-2.33756e-06
0.00529654
-2.36877e-06
0.00529674
-2.99592e-06
0.00529695
-3.15609e-06
0.00529722
-4.00561e-06
0.00529752
-4.48163e-06
0.00529788
-5.44839e-06
0.00529834
-6.55088e-06
0.0052988
-7.46023e-06
0.00529952
-9.65946e-06
0.00530016
-9.81766e-06
0.00530106
-1.42508e-05
0.00530213
-1.34729e-05
-1.66297e-05
0.00522162
-7.34908e-05
0.00522581
-7.02802e-05
0.00522981
-6.71732e-05
0.00523364
-6.41641e-05
0.00523729
-6.125e-05
0.00524078
-5.84291e-05
0.00524411
-5.56996e-05
0.00524729
-5.30601e-05
0.00525032
-5.05089e-05
0.0052532
-4.80444e-05
0.00525595
-4.56649e-05
0.00525856
-4.33686e-05
0.00526105
-4.11537e-05
0.0052634
-3.90184e-05
0.00526564
-3.69607e-05
0.00526776
-3.49788e-05
0.00526976
-3.30709e-05
0.00527166
-3.12352e-05
0.00527345
-2.94701e-05
0.00527514
-2.77737e-05
0.00527674
-2.61445e-05
0.00527824
-2.45809e-05
0.00527964
-2.30815e-05
0.00528097
-2.16448e-05
0.0052822
-2.02693e-05
0.00528336
-1.89538e-05
0.00528445
-1.7697e-05
0.00528546
-1.64975e-05
0.0052864
-1.5354e-05
0.00528727
-1.42654e-05
0.00528809
-1.32304e-05
0.00528884
-1.22477e-05
0.00528953
-1.13163e-05
0.00529017
-1.04349e-05
0.00529076
-9.60254e-06
0.0052913
-8.81807e-06
0.0052918
-8.08039e-06
0.00529226
-7.38842e-06
0.00529267
-6.74101e-06
0.00529305
-6.13717e-06
0.00529339
-5.57571e-06
0.0052937
-5.05613e-06
0.00529398
-4.5769e-06
0.00529424
-4.13862e-06
0.00529447
-3.73835e-06
0.00529468
-3.37988e-06
0.00529487
-3.05569e-06
0.00529504
-2.77809e-06
0.00529519
-2.52674e-06
0.00529534
-2.33555e-06
0.00529547
-2.15252e-06
0.0052956
-2.06126e-06
0.00529572
-1.93954e-06
0.00529584
-1.97356e-06
0.00529596
-1.90352e-06
0.00529609
-2.1025e-06
0.00529622
-2.07773e-06
0.00529637
-2.49152e-06
0.00529653
-2.52686e-06
0.00529673
-3.19444e-06
0.00529694
-3.36656e-06
0.0052972
-4.27185e-06
0.00529751
-4.78409e-06
0.00529786
-5.80291e-06
0.00529833
-7.01704e-06
0.00529878
-7.91164e-06
0.0052995
-1.0382e-05
0.00530014
-1.04586e-05
0.00530103
-1.51438e-05
0.00530211
-1.45527e-05
-1.78281e-05
0.0052225
-7.78011e-05
0.00522662
-7.4402e-05
0.00523056
-7.11145e-05
0.00523433
-6.79321e-05
0.00523793
-6.48511e-05
0.00524137
-6.18693e-05
0.00524466
-5.89846e-05
0.00524779
-5.61949e-05
0.00525078
-5.34985e-05
0.00525363
-5.08934e-05
0.00525634
-4.83779e-05
0.00525892
-4.59499e-05
0.00526138
-4.36075e-05
0.00526371
-4.13488e-05
0.00526592
-3.91719e-05
0.00526801
-3.70747e-05
0.00527
-3.50555e-05
0.00527188
-3.31123e-05
0.00527365
-3.12434e-05
0.00527532
-2.9447e-05
0.0052769
-2.77215e-05
0.00527838
-2.60653e-05
0.00527978
-2.44768e-05
0.00528109
-2.29545e-05
0.00528232
-2.14969e-05
0.00528347
-2.01027e-05
0.00528454
-1.87705e-05
0.00528554
-1.74989e-05
0.00528647
-1.62867e-05
0.00528734
-1.51325e-05
0.00528814
-1.4035e-05
0.00528889
-1.29929e-05
0.00528958
-1.20052e-05
0.00529021
-1.10704e-05
0.0052908
-1.01876e-05
0.00529134
-9.35552e-06
0.00529183
-8.57302e-06
0.00529228
-7.83897e-06
0.00529269
-7.15216e-06
0.00529307
-6.51155e-06
0.00529341
-5.9159e-06
0.00529371
-5.36466e-06
0.00529399
-4.85624e-06
0.00529425
-4.39122e-06
0.00529447
-3.9666e-06
0.00529468
-3.58621e-06
0.00529487
-3.24236e-06
0.00529504
-2.94769e-06
0.00529519
-2.68128e-06
0.00529533
-2.47811e-06
0.00529547
-2.28446e-06
0.00529559
-2.18702e-06
0.00529571
-2.05885e-06
0.00529583
-2.09397e-06
0.00529595
-2.02116e-06
0.00529608