/*--------------------------------*- C++ -*----------------------------------*\
| =========                 |                                                 |
| \\      /  F ield         | OpenFOAM: The Open Source CFD Toolbox           |
|  \\    /   O peration     | Version:  2412                                  |
|   \\  /    A nd           | Website:  www.openfoam.com                      |
|    \\/     M anipulation  |                                                 |
\*---------------------------------------------------------------------------*/
FoamFile
{
    version     2.0;
    format      ascii;
    arch        "LSB;label=32;scalar=64";
    class       volVectorField;
    location    "16";
    object      vorticity;
}
// * * * * * * * * * * * * * * * * * * * * * * * * * * * * * * * * * * * * * //

dimensions      [0 0 -1 0 0 0 0];

internalField   nonuniform List<vector> 
5285
(
(0 -0 5.88529e-06)
(0 -0 5.78472e-06)
(0 -0 5.6707e-06)
(0 -0 6.20546e-06)
(0 -0 8.28572e-06)
(0 -0 1.20541e-05)
(0 -0 1.62627e-05)
(0 -0 1.87122e-05)
(0 -0 1.74675e-05)
(0 -0 1.1932e-05)
(0 -0 3.10808e-06)
(0 -0 -6.96003e-06)
(0 -0 -1.60911e-05)
(0 -0 -2.27079e-05)
(0 -0 -2.61545e-05)
(0 -0 -2.66122e-05)
(0 -0 -2.47909e-05)
(0 -0 -2.15852e-05)
(0 -0 -1.78162e-05)
(0 -0 -1.40958e-05)
(0 -0 -1.07966e-05)
(0 -0 -8.08615e-06)
(0 -0 -5.98734e-06)
(0 -0 -4.4389e-06)
(0 -0 -3.34251e-06)
(0 -0 -2.59381e-06)
(0 -0 -2.09923e-06)
(0 -0 -1.78284e-06)
(0 -0 -1.58707e-06)
(0 -0 -1.4705e-06)
(0 -0 -1.4045e-06)
(0 -0 -1.36992e-06)
(0 -0 -1.35432e-06)
(0 -0 -1.34978e-06)
(0 -0 -1.35136e-06)
(0 -0 -1.35603e-06)
(0 -0 -1.36196e-06)
(0 -0 -1.36804e-06)
(0 -0 -1.3736e-06)
(0 -0 -1.37824e-06)
(0 -0 -1.38169e-06)
(0 -0 -1.38378e-06)
(0 -0 -1.3844e-06)
(0 -0 -1.38346e-06)
(0 -0 -1.38087e-06)
(0 -0 -1.37651e-06)
(0 -0 -1.37023e-06)
(0 -0 -1.36159e-06)
(0 -0 -1.34919e-06)
(0 -0 -1.32827e-06)
(0 -0 -1.2824e-06)
(0 -0 -1.1564e-06)
(0 -0 -7.71106e-07)
(0 -0 4.36624e-07)
(0 4.52486e-23 4.17654e-06)
(0 -0 1.76543e-05)
(0 -0 1.73563e-05)
(0 -0 1.70161e-05)
(0 -0 1.86066e-05)
(0 -0 2.4806e-05)
(0 -0 3.60536e-05)
(0 -0 4.86456e-05)
(0 -0 5.60333e-05)
(0 -0 5.24393e-05)
(0 -0 3.6062e-05)
(0 -0 9.86188e-06)
(0 -0 -2.00894e-05)
(0 -0 -4.72993e-05)
(0 -0 -6.70627e-05)
(0 -0 -7.74123e-05)
(0 -0 -7.88726e-05)
(0 -0 -7.35444e-05)
(0 -0 -6.40832e-05)
(0 -0 -5.29296e-05)
(0 -0 -4.19051e-05)
(0 -0 -3.21204e-05)
(0 -0 -2.40766e-05)
(0 -0 -1.7845e-05)
(0 -0 -1.32455e-05)
(0 -0 -9.98777e-06)
(0 -0 -7.76259e-06)
(0 -0 -6.29264e-06)
(0 -0 -5.35262e-06)
(0 -0 -4.77169e-06)
(0 -0 -4.4268e-06)
(0 -0 -4.23285e-06)
(0 -0 -4.13288e-06)
(0 -0 -4.08981e-06)
(0 -0 -4.08009e-06)
(0 -0 -4.08899e-06)
(0 -0 -4.10749e-06)
(0 -0 -4.13008e-06)
(0 -0 -4.15343e-06)
(0 -0 -4.17553e-06)
(0 -0 -4.19515e-06)
(0 -0 -4.21153e-06)
(0 -0 -4.22417e-06)
(0 -0 -4.23267e-06)
(0 -0 -4.23673e-06)
(0 -0 -4.23606e-06)
(0 -0 -4.23037e-06)
(0 -0 -4.21912e-06)
(0 -0 -4.20106e-06)
(0 -0 -4.17215e-06)
(0 -0 -4.11855e-06)
(0 -0 -3.9927e-06)
(0 -0 -3.63466e-06)
(0 -0 -2.52411e-06)
(0 -0 9.7743e-07)
(0 4.57149e-23 1.18534e-05)
(0 -0 2.94106e-05)
(0 -0 2.89202e-05)
(0 -0 2.83549e-05)
(0 -0 3.09684e-05)
(0 -0 4.12015e-05)
(0 -0 5.98287e-05)
(0 -0 8.07882e-05)
(0 -0 9.32872e-05)
(0 -0 8.77498e-05)
(0 -0 6.11207e-05)
(0 -0 1.81973e-05)
(0 -0 -3.10617e-05)
(0 -0 -7.59599e-05)
(0 -0 -0.000108712)
(0 -0 -0.000126027)
(0 -0 -0.00012872)
(0 -0 -0.000120214)
(0 -0 -0.000104861)
(0 -0 -8.66731e-05)
(0 -0 -6.86515e-05)
(0 -0 -5.26321e-05)
(0 -0 -3.94489e-05)
(0 -0 -2.92274e-05)
(0 -0 -2.16781e-05)
(0 -0 -1.6328e-05)
(0 -0 -1.2672e-05)
(0 -0 -1.02557e-05)
(0 -0 -8.71002e-06)
(0 -0 -7.7545e-06)
(0 -0 -7.18716e-06)
(0 -0 -6.86817e-06)
(0 -0 -6.70396e-06)
(0 -0 -6.63357e-06)
(0 -0 -6.61823e-06)
(0 -0 -6.63374e-06)
(0 -0 -6.6652e-06)
(0 -0 -6.70356e-06)
(0 -0 -6.74333e-06)
(0 -0 -6.7812e-06)
(0 -0 -6.81518e-06)
(0 -0 -6.84397e-06)
(0 -0 -6.86671e-06)
(0 -0 -6.88277e-06)
(0 -0 -6.89167e-06)
(0 -0 -6.89295e-06)
(0 -0 -6.88609e-06)
(0 -0 -6.87024e-06)
(0 -0 -6.84341e-06)
(0 -0 -6.79933e-06)
(0 -0 -6.7166e-06)
(0 -0 -6.52148e-06)
(0 -0 -5.96577e-06)
(0 -0 -4.23899e-06)
(0 -0 1.22135e-06)
(0 2.69799e-22 1.82404e-05)
(0 -0 4.11459e-05)
(0 -0 4.04708e-05)
(0 -0 3.96824e-05)
(0 -0 4.3266e-05)
(0 -0 5.73952e-05)
(0 -0 8.32401e-05)
(0 -0 0.000112539)
(0 -0 0.000130424)
(0 -0 0.000123592)
(0 -0 8.76571e-05)
(0 -0 2.90596e-05)
(0 -0 -3.85805e-05)
(0 -0 -0.000100537)
(0 -0 -0.000146021)
(0 -0 -0.000170399)
(0 -0 -0.000174692)
(0 -0 -0.000163536)
(0 -0 -0.000142875)
(0 -0 -0.000118215)
(0 -0 -9.36901e-05)
(0 -0 -7.18395e-05)
(0 -0 -5.38288e-05)
(0 -0 -3.98474e-05)
(0 -0 -2.95112e-05)
(0 -0 -2.218e-05)
(0 -0 -1.71664e-05)
(0 -0 -1.38507e-05)
(0 -0 -1.17281e-05)
(0 -0 -1.0415e-05)
(0 -0 -9.63456e-06)
(0 -0 -9.19523e-06)
(0 -0 -8.96861e-06)
(0 -0 -8.87106e-06)
(0 -0 -8.84935e-06)
(0 -0 -8.87021e-06)
(0 -0 -8.91319e-06)
(0 -0 -8.96583e-06)
(0 -0 -9.02061e-06)
(0 -0 -9.07298e-06)
(0 -0 -9.12015e-06)
(0 -0 -9.16036e-06)
(0 -0 -9.19245e-06)
(0 -0 -9.21555e-06)
(0 -0 -9.22898e-06)
(0 -0 -9.2321e-06)
(0 -0 -9.22421e-06)
(0 -0 -9.2042e-06)
(0 -0 -9.16951e-06)
(0 -0 -9.11229e-06)
(0 -0 -9.0058e-06)
(0 -0 -8.75821e-06)
(0 -0 -8.05966e-06)
(0 -0 -5.89311e-06)
(0 -0 9.80064e-07)
(0 -1.77139e-22 2.25249e-05)
(0 -0 5.28523e-05)
(0 -0 5.20025e-05)
(0 -0 5.09936e-05)
(0 -0 5.54774e-05)
(0 -0 7.33187e-05)
(0 -0 0.000106164)
(0 -0 0.000143759)
(0 -0 0.000167386)
(0 -0 0.000160113)
(0 -0 0.000116123)
(0 -0 4.32422e-05)
(0 -0 -4.1548e-05)
(0 -0 -0.000119723)
(0 -0 -0.000177593)
(0 -0 -0.000209158)
(0 -0 -0.000215534)
(0 -0 -0.000202424)
(0 -0 -0.000177228)
(0 -0 -0.000146842)
(0 -0 -0.000116467)
(0 -0 -8.9321e-05)
(0 -0 -6.68968e-05)
(0 -0 -4.94608e-05)
(0 -0 -3.6554e-05)
(0 -0 -2.73894e-05)
(0 -0 -2.11159e-05)
(0 -0 -1.6963e-05)
(0 -0 -1.43018e-05)
(0 -0 -1.26537e-05)
(0 -0 -1.16727e-05)
(0 -0 -1.11193e-05)
(0 -0 -1.08327e-05)
(0 -0 -1.07082e-05)
(0 -0 -1.06791e-05)
(0 -0 -1.07037e-05)
(0 -0 -1.07563e-05)
(0 -0 -1.08213e-05)
(0 -0 -1.08892e-05)
(0 -0 -1.09544e-05)
(0 -0 -1.10132e-05)
(0 -0 -1.10637e-05)
(0 -0 -1.11041e-05)
(0 -0 -1.11336e-05)
(0 -0 -1.11511e-05)
(0 -0 -1.1156e-05)
(0 -0 -1.11474e-05)
(0 -0 -1.11239e-05)
(0 -0 -1.10826e-05)
(0 -0 -1.10149e-05)
(0 -0 -1.08916e-05)
(0 -0 -1.0613e-05)
(0 -0 -9.84314e-06)
(0 -0 -7.47257e-06)
(0 -0 7.15256e-08)
(0 8.7448e-23 2.39484e-05)
(0 -0 6.45233e-05)
(0 -0 6.35087e-05)
(0 -0 6.22827e-05)
(0 -0 6.75832e-05)
(0 -0 8.89151e-05)
(0 -0 0.000128494)
(0 -0 0.000174324)
(0 -0 0.000204107)
(0 -0 0.000197403)
(0 -0 0.000146844)
(0 -0 6.13391e-05)
(0 -0 -3.91263e-05)
(0 -0 -0.000132508)
(0 -0 -0.000202342)
(0 -0 -0.000241234)
(0 -0 -0.000250263)
(0 -0 -0.000236025)
(0 -0 -0.000207215)
(0 -0 -0.000171991)
(0 -0 -0.000136549)
(0 -0 -0.000104747)
(0 -0 -7.84039e-05)
(0 -0 -5.7879e-05)
(0 -0 -4.26605e-05)
(0 -0 -3.18396e-05)
(0 -0 -2.4423e-05)
(0 -0 -1.95077e-05)
(0 -0 -1.63539e-05)
(0 -0 -1.43978e-05)
(0 -0 -1.32314e-05)
(0 -0 -1.25713e-05)
(0 -0 -1.22278e-05)
(0 -0 -1.20767e-05)
(0 -0 -1.2039e-05)
(0 -0 -1.20654e-05)
(0 -0 -1.21253e-05)
(0 -0 -1.22003e-05)
(0 -0 -1.22792e-05)
(0 -0 -1.23552e-05)
(0 -0 -1.2424e-05)
(0 -0 -1.24832e-05)
(0 -0 -1.25309e-05)
(0 -0 -1.25659e-05)
(0 -0 -1.25871e-05)
(0 -0 -1.25937e-05)
(0 -0 -1.25846e-05)
(0 -0 -1.25584e-05)
(0 -0 -1.2512e-05)
(0 -0 -1.24368e-05)
(0 -0 -1.23042e-05)
(0 -0 -1.20182e-05)
(0 -0 -1.12576e-05)
(0 -0 -8.96298e-06)
(0 -0 -1.67357e-06)
(0 4.3148e-22 2.17698e-05)
(0 -0 7.61498e-05)
(0 -0 7.49818e-05)
(0 -0 7.35434e-05)
(0 -0 7.95679e-05)
(0 -0 0.000104141)
(0 -0 0.00015015)
(0 -0 0.000204131)
(0 -0 0.000240513)
(0 -0 0.000235482)
(0 -0 0.000179998)
(0 -0 8.3715e-05)
(0 -0 -3.07781e-05)
(0 -0 -0.000138229)
(0 -0 -0.000219543)
(0 -0 -0.000265904)
(0 -0 -0.00027821)
(0 -0 -0.000263758)
(0 -0 -0.000232353)
(0 -0 -0.000193279)
(0 -0 -0.000153638)
(0 -0 -0.000117893)
(0 -0 -8.81836e-05)
(0 -0 -6.49775e-05)
(0 -0 -4.77368e-05)
(0 -0 -3.54572e-05)
(0 -0 -2.70283e-05)
(0 -0 -2.14339e-05)
(0 -0 -1.7839e-05)
(0 -0 -1.56054e-05)
(0 -0 -1.42702e-05)
(0 -0 -1.3512e-05)
(0 -0 -1.31147e-05)
(0 -0 -1.29373e-05)
(0 -0 -1.28898e-05)
(0 -0 -1.29157e-05)
(0 -0 -1.29805e-05)
(0 -0 -1.30629e-05)
(0 -0 -1.31501e-05)
(0 -0 -1.32345e-05)
(0 -0 -1.33113e-05)
(0 -0 -1.33774e-05)
(0 -0 -1.3431e-05)
(0 -0 -1.34705e-05)
(0 -0 -1.34948e-05)
(0 -0 -1.35028e-05)
(0 -0 -1.34935e-05)
(0 -0 -1.34653e-05)
(0 -0 -1.34153e-05)
(0 -0 -1.33353e-05)
(0 -0 -1.32002e-05)
(0 -0 -1.29279e-05)
(0 -0 -1.22529e-05)
(0 -0 -1.03257e-05)
(0 -0 -4.39415e-06)
(0 -8.44183e-23 1.51373e-05)
(-1.64018e-23 7.96675e-21 2.35933e-06)
(-1.47329e-22 7.83332e-21 1.79941e-06)
(3.34502e-23 -1.97336e-22 1.03489e-06)
(3.6335e-23 -2.33913e-20 2.24202e-08)
(-9.25585e-23 7.99281e-21 -1.27825e-06)
(3.64375e-22 7.85122e-21 -2.90487e-06)
(-7.94272e-22 2.28893e-20 -4.89262e-06)
(3.10997e-22 -2.32605e-20 -7.27789e-06)
(6.27011e-22 -7.48402e-21 -1.0101e-05)
(-8.97351e-22 -3.71281e-24 -1.34077e-05)
(-8.97623e-22 -7.50115e-21 -1.72496e-05)
(7.86372e-22 7.12442e-21 -2.16837e-05)
(5.62351e-22 -5.87166e-20 -2.6772e-05)
(-1.03637e-21 1.26072e-19 -3.25783e-05)
(3.54597e-22 -6.78348e-20 -3.91616e-05)
(-1.23261e-21 -5.1151e-20 -4.6562e-05)
(-2.57824e-22 7.97931e-21 6.72521e-06)
(-1.02549e-22 1.56966e-20 4.97839e-06)
(3.05713e-22 7.63526e-21 2.56756e-06)
(-8.72877e-22 -7.84655e-21 -6.37625e-07)
(1.62047e-21 7.48419e-21 -4.75304e-06)
(-5.06978e-22 -5.36163e-20 -9.88278e-06)
(-2.06236e-22 8.51453e-20 -1.61281e-05)
(-5.76721e-23 -8.87477e-21 -2.35964e-05)
(2.15905e-21 -9.80693e-20 -3.24084e-05)
(-2.2382e-21 1.38479e-19 -4.27026e-05)
(-8.0718e-22 1.26539e-19 -5.46369e-05)
(5.93025e-22 -1.13853e-19 -6.83879e-05)
(-3.92207e-22 7.35524e-22 -8.41466e-05)
(2.79673e-21 -7.25174e-21 -0.000102112)
(-2.17443e-21 2.4126e-20 -0.00012247)
(-5.91431e-21 2.396e-19 -0.000145354)
(-3.1777e-23 4.7268e-20 1.07541e-05)
(-8.32889e-23 1.49438e-20 7.60704e-06)
(3.66178e-22 -6.1916e-20 3.1769e-06)
(-7.74124e-22 1.23193e-19 -2.74287e-06)
(1.71142e-21 -2.63753e-19 -1.03205e-05)
(4.19837e-22 1.25434e-19 -1.97064e-05)
(-2.45235e-21 -8.7176e-22 -3.10549e-05)
(1.56239e-21 -1.70579e-20 -4.45393e-05)
(1.40856e-21 -2.57468e-19 -6.03629e-05)
(8.18119e-22 2.45356e-19 -7.87647e-05)
(-8.59633e-22 -1.63102e-21 -0.000100021)
(-4.22155e-21 -1.5752e-23 -0.000124443)
(6.6987e-21 -1.85506e-21 -0.000152371)
(-4.05313e-21 -2.5127e-19 -0.000184163)
(5.25616e-21 2.28389e-19 -0.000220162)
(-1.13033e-20 4.53856e-19 -0.000260623)
(3.99655e-22 -3.11709e-20 1.41192e-05)
(-3.64331e-22 1.57647e-20 9.07098e-06)
(6.94772e-22 -1.72482e-22 1.8247e-06)
(-6.23815e-22 -1.55114e-20 -7.83999e-06)
(-9.69981e-22 -1.45398e-21 -2.0088e-05)
(3.28449e-21 -2.43491e-19 -3.50835e-05)
(-4.59131e-21 4.61146e-19 -5.30199e-05)
(2.2335e-21 -2.48322e-19 -7.4138e-05)
(-1.83118e-21 1.49808e-20 -9.87352e-05)
(4.79164e-21 -2.71964e-19 -0.00012717)
(-5.80178e-21 2.48197e-19 -0.000159863)
(-3.97351e-21 4.73838e-19 -0.000197291)
(1.05209e-20 -9.58787e-19 -0.000239979)
(-1.27239e-20 9.57869e-19 -0.000288489)
(1.69839e-20 -9.53504e-19 -0.000343373)
(-1.10311e-20 9.45141e-19 -0.000405071)
(-7.36793e-22 1.5846e-20 1.6322e-05)
(-2.67561e-22 6.06732e-20 8.27892e-06)
(1.95571e-21 -1.84249e-19 -3.30586e-06)
(-1.28023e-21 2.47279e-19 -1.84828e-05)
(-2.8769e-22 -1.09513e-19 -3.73273e-05)
(1.09977e-22 -1.46348e-20 -5.99918e-05)
(-4.72968e-22 1.54337e-20 -8.67173e-05)
(3.05065e-21 -1.88012e-22 -0.000117836)
(-2.90663e-21 -1.50873e-20 -0.000153774)
(-5.27312e-21 3.38581e-20 -0.000195048)
(-6.84657e-21 4.81917e-19 -0.000242268)
(1.83758e-20 -5.00902e-19 -0.000296126)
(-2.27272e-20 4.67369e-19 -0.000357392)
(1.88932e-20 -4.86186e-19 -0.000426898)
(-3.02855e-21 3.42264e-21 -0.000505483)
(1.10667e-20 4.79135e-23 -0.000593871)
(-6.92686e-22 7.63702e-20 1.66072e-05)
(1.64693e-21 -4.6572e-20 3.14501e-06)
(-1.68561e-21 -1.64276e-20 -1.54908e-05)
(4.63603e-21 -2.28205e-19 -3.89142e-05)
(-2.23657e-21 2.30091e-19 -6.71038e-05)
(1.97568e-21 -2.27688e-19 -0.000100257)
(-1.08902e-20 5.02111e-19 -0.000138728)
(1.14275e-20 -7.03262e-19 -0.000183008)
(-7.3647e-21 4.97356e-19 -0.000233713)
(-5.79376e-21 4.84842e-19 -0.000291587)
(-2.205e-21 3.94226e-21 -0.000357493)
(2.42263e-20 -9.52523e-19 -0.000432416)
(-2.11016e-20 9.91401e-19 -0.00051745)
(4.96791e-21 -4.66484e-19 -0.000613796)
(1.1981e-20 -4.68781e-19 -0.000722695)
(2.23491e-20 -4.61316e-19 -0.000845288)
(6.05905e-22 -1.59107e-20 1.39758e-05)
(1.63776e-21 -1.35678e-19 -1.06494e-05)
(-1.76696e-21 1.22372e-19 -4.03941e-05)
(-1.28838e-21 -1.72411e-20 -7.53459e-05)
(5.27179e-21 -2.26802e-19 -0.000115788)
(-4.85731e-21 2.33305e-19 -0.000162136)
(-5.63396e-21 4.71274e-19 -0.000214952)
(-5.14473e-21 -1.94661e-20 -0.000274933)
(2.23532e-21 -4.56207e-21 -0.000342909)
(1.43019e-20 -5.02608e-19 -0.000419852)
(-1.16099e-20 4.70346e-19 -0.000506878)
(1.73129e-20 -9.95154e-19 -0.000605243)
(-3.82334e-21 4.97497e-19 -0.000716342)
(-3.68668e-21 -1.8737e-20 -0.000841701)
(-4.91595e-21 -2.24331e-20 -0.000982916)
(2.81167e-20 -9.76801e-19 -0.00114149)
(-8.44393e-23 -0 1.37792e-05)
(-7.79152e-22 -0 3.41004e-05)
(6.96013e-22 -0 5.59533e-05)
(-8.94902e-23 -0 7.93013e-05)
(-1.37785e-21 -0 0.000104176)
(1.38239e-21 -0 0.000130633)
(2.96634e-21 -0 0.00015874)
(-4.46067e-23 -0 0.000188544)
(5.51759e-23 -0 0.000220073)
(-3.31106e-21 -0 0.000253334)
(3.23944e-21 -0 0.000288316)
(-6.88572e-21 -0 0.000325002)
(3.43686e-21 -0 0.000363392)
(-1.11278e-22 -0 0.000403524)
(-1.14069e-22 -0 0.000445561)
(-7.55832e-21 -0 0.000489997)
(0 -0 1.77531e-06)
(0 -0 1.32165e-05)
(0 -0 2.71167e-05)
(0 -0 4.29748e-05)
(0 -0 6.05317e-05)
(0 -0 7.96652e-05)
(0 -0 0.000100303)
(0 -0 0.000122377)
(0 -0 0.000145816)
(0 -0 0.000170529)
(0 -0 0.000196414)
(0 -0 0.00022336)
(0 -0 0.000251266)
(0 -0 0.000280068)
(0 -0 0.000309821)
(0 -0 0.000340923)
(0 -0 -3.79457e-06)
(0 -0 2.67528e-06)
(0 -0 1.11637e-05)
(0 -0 2.14209e-05)
(0 -0 3.32359e-05)
(0 -0 4.64624e-05)
(0 -0 6.09754e-05)
(0 -0 7.66437e-05)
(0 -0 9.33233e-05)
(0 -0 0.00011085)
(0 -0 0.000129039)
(0 -0 0.000147692)
(0 -0 0.000166611)
(0 -0 0.000185619)
(0 -0 0.000204647)
(0 -0 0.000223975)
(0 -0 -6.02503e-06)
(0 -0 -2.28604e-06)
(0 -0 2.84915e-06)
(0 -0 9.32705e-06)
(0 -0 1.70453e-05)
(0 -0 2.59073e-05)
(0 -0 3.57989e-05)
(0 -0 4.65757e-05)
(0 -0 5.80657e-05)
(0 -0 7.00663e-05)
(0 -0 8.2345e-05)
(0 -0 9.46468e-05)
(0 -0 0.000106706)
(0 -0 0.000118264)
(0 -0 0.000129157)
(0 -0 0.000139569)
(0 -0 -6.40303e-06)
(0 -0 -4.17158e-06)
(0 -0 -1.03782e-06)
(0 -0 3.02082e-06)
(0 -0 7.96979e-06)
(0 -0 1.37621e-05)
(0 -0 2.03128e-05)
(0 -0 2.74887e-05)
(0 -0 3.51164e-05)
(0 -0 4.29814e-05)
(0 -0 5.08303e-05)
(0 -0 5.83786e-05)
(0 -0 6.53196e-05)
(0 -0 7.13378e-05)
(0 -0 7.6199e-05)
(0 -0 8.00193e-05)
(0 -0 -5.73472e-06)
(0 -0 -4.34286e-06)
(0 -0 -2.38253e-06)
(0 -0 1.77987e-07)
(0 -0 3.32765e-06)
(0 -0 7.04753e-06)
(0 -0 1.12763e-05)
(0 -0 1.58974e-05)
(0 -0 2.07472e-05)
(0 -0 2.56147e-05)
(0 -0 3.0244e-05)
(0 -0 3.43404e-05)
(0 -0 3.75773e-05)
(0 -0 3.96048e-05)
(0 -0 4.01396e-05)
(0 -0 3.92501e-05)
(0 -0 -4.49881e-06)
(0 -0 -3.57787e-06)
(0 -0 -2.2986e-06)
(0 -0 -6.44951e-07)
(0 -0 1.37056e-06)
(0 -0 3.73861e-06)
(0 -0 6.41113e-06)
(0 -0 9.28471e-06)
(0 -0 1.22084e-05)
(0 -0 1.49818e-05)
(0 -0 1.73572e-05)
(0 -0 1.9043e-05)
(0 -0 1.9708e-05)
(0 -0 1.8985e-05)
(0 -0 1.65594e-05)
(0 -0 1.24694e-05)
(0 -0 -2.99818e-06)
(0 -0 -2.34251e-06)
(0 -0 -1.45542e-06)
(0 -0 -3.40943e-07)
(0 -0 9.77586e-07)
(0 -0 2.49058e-06)
(0 -0 4.15558e-06)
(0 -0 5.87806e-06)
(0 -0 7.51885e-06)
(0 -0 8.89117e-06)
(0 -0 9.76062e-06)
(0 -0 9.84743e-06)
(0 -0 8.82656e-06)
(0 -0 6.32584e-06)
(0 -0 2.01337e-06)
(0 -0 -4.08787e-06)
(0 -0 -1.4317e-06)
(0 -0 -9.25673e-07)
(0 -0 -2.62387e-07)
(0 -0 5.37083e-07)
(0 -0 1.43752e-06)
(0 -0 2.42591e-06)
(0 -0 3.46179e-06)
(0 -0 4.45687e-06)
(0 -0 5.28264e-06)
(0 -0 5.76657e-06)
(0 -0 5.69068e-06)
(0 -0 4.79187e-06)
(0 -0 2.75826e-06)
(0 -0 -7.78167e-07)
(0 -0 -6.15607e-06)
(0 -0 -1.33555e-05)
(0 -0 6.96867e-08)
(0 -0 4.91429e-07)
(0 -0 1.02862e-06)
(0 -0 1.64774e-06)
(0 -0 2.30395e-06)
(0 -0 2.9812e-06)
(0 -0 3.64043e-06)
(0 -0 4.19862e-06)
(0 -0 4.53741e-06)
(0 -0 4.49872e-06)
(0 -0 3.88242e-06)
(0 -0 2.44497e-06)
(0 -0 -1.07886e-07)
(0 -0 -4.13382e-06)
(0 -0 -9.97038e-06)
(0 -0 -1.75913e-05)
(0 -0 1.4236e-06)
(0 -0 1.79797e-06)
(0 -0 2.26539e-06)
(0 -0 2.78396e-06)
(0 -0 3.3021e-06)
(0 -0 3.80253e-06)
(0 -0 4.24833e-06)
(0 -0 4.56203e-06)
(0 -0 4.63533e-06)
(0 -0 4.3247e-06)
(0 -0 3.44863e-06)
(0 -0 1.78448e-06)
(0 -0 -9.41698e-07)
(0 -0 -5.07318e-06)
(0 -0 -1.09408e-05)
(0 -0 -1.85046e-05)
(0 -0 2.5842e-06)
(0 -0 2.93186e-06)
(0 -0 3.36163e-06)
(0 -0 3.82611e-06)
(0 -0 4.26959e-06)
(0 -0 4.67536e-06)
(0 -0 5.00984e-06)
(0 -0 5.20169e-06)
(0 -0 5.15281e-06)
(0 -0 4.73427e-06)
(0 -0 3.78321e-06)
(0 -0 2.09842e-06)
(0 -0 -5.72493e-07)
(0 -0 -4.55604e-06)
(0 -0 -1.01725e-05)
(0 -0 -1.73633e-05)
(0 -0 3.5336e-06)
(0 -0 3.86587e-06)
(0 -0 4.27586e-06)
(0 -0 4.71269e-06)
(0 -0 5.1183e-06)
(0 -0 5.47796e-06)
(0 -0 5.76244e-06)
(0 -0 5.907e-06)
(0 -0 5.82382e-06)
(0 -0 5.39836e-06)
(0 -0 4.48592e-06)
(0 -0 2.90648e-06)
(0 -0 4.29316e-07)
(0 -0 -3.2542e-06)
(0 -0 -8.45169e-06)
(0 -0 -1.50824e-05)
(0 -0 4.27472e-06)
(0 -0 4.59753e-06)
(0 -0 4.99732e-06)
(0 -0 5.42091e-06)
(0 -0 5.80907e-06)
(0 -0 6.14991e-06)
(0 -0 6.41916e-06)
(0 -0 6.55885e-06)
(0 -0 6.49127e-06)
(0 -0 6.11561e-06)
(0 -0 5.3045e-06)
(0 -0 3.89814e-06)
(0 -0 1.68679e-06)
(0 -0 -1.62029e-06)
(0 -0 -6.31712e-06)
(0 -0 -1.22989e-05)
(0 -0 4.82498e-06)
(0 -0 5.14115e-06)
(0 -0 5.53544e-06)
(0 -0 5.95313e-06)
(0 -0 6.33433e-06)
(0 -0 6.6705e-06)
(0 -0 6.94244e-06)
(0 -0 7.09886e-06)
(0 -0 7.07161e-06)
(0 -0 6.77265e-06)
(0 -0 6.09069e-06)
(0 -0 4.88464e-06)
(0 -0 2.96449e-06)
(0 -0 5.64623e-08)
(0 -0 -4.11993e-06)
(0 -0 -9.4354e-06)
(0 -0 5.21068e-06)
(0 -0 5.52123e-06)
(0 -0 5.91194e-06)
(0 -0 6.32688e-06)
(0 -0 6.70578e-06)
(0 -0 7.04346e-06)
(0 -0 7.32572e-06)
(0 -0 7.50749e-06)
(0 -0 7.52935e-06)
(0 -0 7.31482e-06)
(0 -0 6.76714e-06)
(0 -0 5.76209e-06)
(0 -0 4.12761e-06)
(0 -0 1.60546e-06)
(0 -0 -2.0723e-06)
(0 -0 -6.75242e-06)
(0 -0 5.46214e-06)
(0 -0 5.76705e-06)
(0 -0 6.15457e-06)
(0 -0 6.56758e-06)
(0 -0 6.94543e-06)
(0 -0 7.28626e-06)
(0 -0 7.58044e-06)
(0 -0 7.78848e-06)
(0 -0 7.85868e-06)
(0 -0 7.72484e-06)
(0 -0 7.30288e-06)
(0 -0 6.48355e-06)
(0 -0 5.11052e-06)
(0 -0 2.93931e-06)
(0 -0 -2.8698e-07)
(0 -0 -4.39253e-06)
(0 -0 5.60988e-06)
(0 -0 5.90867e-06)
(0 -0 6.29255e-06)
(0 -0 6.70315e-06)
(0 -0 7.07945e-06)
(0 -0 7.42257e-06)
(0 -0 7.72697e-06)
(0 -0 7.958e-06)
(0 -0 8.07067e-06)
(0 -0 8.00757e-06)
(0 -0 7.69553e-06)
(0 -0 7.0382e-06)
(0 -0 5.89276e-06)
(0 -0 4.02641e-06)
(0 -0 1.1915e-06)
(0 -0 -2.41559e-06)
(0 -0 5.68209e-06)
(0 -0 5.97406e-06)
(0 -0 6.35342e-06)
(0 -0 6.76055e-06)
(0 -0 7.13394e-06)
(0 -0 7.47731e-06)
(0 -0 7.78868e-06)
(0 -0 8.03749e-06)
(0 -0 8.18445e-06)
(0 -0 8.17946e-06)
(0 -0 7.95867e-06)
(0 -0 7.43643e-06)
(0 -0 6.48141e-06)
(0 -0 4.87027e-06)
(0 -0 2.36272e-06)
(0 -0 -8.26648e-07)
(0 -0 5.70308e-06)
(0 -0 5.98743e-06)
(0 -0 6.36126e-06)
(0 -0 6.76368e-06)
(0 -0 7.13249e-06)
(0 -0 7.47364e-06)
(0 -0 7.78821e-06)
(0 -0 8.04907e-06)
(0 -0 8.22158e-06)
(0 -0 8.26174e-06)
(0 -0 8.1133e-06)
(0 -0 7.69958e-06)
(0 -0 6.89856e-06)
(0 -0 5.49445e-06)
(0 -0 3.25237e-06)
(0 -0 4.02781e-07)
(0 -0 5.69266e-06)
(0 -0 5.96865e-06)
(0 -0 6.33597e-06)
(0 -0 6.73245e-06)
(0 -0 7.095e-06)
(0 -0 7.4315e-06)
(0 -0 7.74563e-06)
(0 -0 8.01305e-06)
(0 -0 8.20286e-06)
(0 -0 8.2761e-06)
(0 -0 8.18263e-06)
(0 -0 7.85309e-06)
(0 -0 7.17295e-06)
(0 -0 5.93218e-06)
(0 -0 3.89954e-06)
(0 -0 1.31901e-06)
(0 -0 5.66632e-06)
(0 -0 5.9333e-06)
(0 -0 6.29327e-06)
(0 -0 6.68272e-06)
(0 -0 7.03752e-06)
(0 -0 7.36721e-06)
(0 -0 7.67771e-06)
(0 -0 7.94686e-06)
(0 -0 8.14679e-06)
(0 -0 8.24256e-06)
(0 -0 8.18903e-06)
(0 -0 7.92264e-06)
(0 -0 7.33478e-06)
(0 -0 6.21973e-06)
(0 -0 4.34832e-06)
(0 -0 1.97579e-06)
(0 -0 5.63578e-06)
(0 -0 5.89323e-06)
(0 -0 6.24522e-06)
(0 -0 6.62677e-06)
(0 -0 6.97263e-06)
(0 -0 7.29381e-06)
(0 -0 7.59807e-06)
(0 -0 7.86496e-06)
(0 -0 8.06912e-06)
(0 -0 8.17872e-06)
(0 -0 8.15267e-06)
(0 -0 7.93201e-06)
(0 -0 7.41284e-06)
(0 -0 6.39243e-06)
(0 -0 4.64252e-06)
(0 -0 2.42763e-06)
(0 -0 5.60953e-06)
(0 -0 5.85723e-06)
(0 -0 6.20088e-06)
(0 -0 6.57395e-06)
(0 -0 6.91011e-06)
(0 -0 7.22157e-06)
(0 -0 7.51759e-06)
(0 -0 7.77917e-06)
(0 -0 7.98286e-06)
(0 -0 8.09944e-06)
(0 -0 8.09096e-06)
(0 -0 7.90219e-06)
(0 -0 7.43293e-06)
(0 -0 6.4825e-06)
(0 -0 4.82275e-06)
(0 -0 2.72583e-06)
(0 -0 5.5934e-06)
(0 -0 5.83149e-06)
(0 -0 6.16675e-06)
(0 -0 6.53118e-06)
(0 -0 6.85727e-06)
(0 -0 7.15823e-06)
(0 -0 7.44464e-06)
(0 -0 7.69867e-06)
(0 -0 7.89843e-06)
(0 -0 8.01675e-06)
(0 -0 8.01831e-06)
(0 -0 7.85079e-06)
(0 -0 7.41694e-06)
(0 -0 6.51777e-06)
(0 -0 4.92489e-06)
(0 -0 2.91681e-06)
(0 -0 5.59067e-06)
(0 -0 5.81976e-06)
(0 -0 6.14704e-06)
(0 -0 6.50304e-06)
(0 -0 6.81902e-06)
(0 -0 7.10907e-06)
(0 -0 7.38501e-06)
(0 -0 7.62996e-06)
(0 -0 7.82332e-06)
(0 -0 7.93959e-06)
(0 -0 7.94553e-06)
(0 -0 7.79129e-06)
(0 -0 7.38216e-06)
(0 -0 6.52085e-06)
(0 -0 4.97928e-06)
(0 -0 3.04198e-06)
(0 -0 5.60199e-06)
(0 -0 5.82395e-06)
(0 -0 6.14409e-06)
(0 -0 6.49202e-06)
(0 -0 6.79794e-06)
(0 -0 7.0769e-06)
(0 -0 7.3419e-06)
(0 -0 7.57677e-06)
(0 -0 7.762e-06)
(0 -0 7.87349e-06)
(0 -0 7.87968e-06)
(0 -0 7.73292e-06)
(0 -0 7.34092e-06)
(0 -0 6.50871e-06)
(0 -0 5.0112e-06)
(0 -0 3.14097e-06)
(0 -0 5.62766e-06)
(0 -0 5.84658e-06)
(0 -0 6.16037e-06)
(0 -0 6.50002e-06)
(0 -0 6.79581e-06)
(0 -0 7.06364e-06)
(0 -0 7.31737e-06)
(0 -0 7.54154e-06)
(0 -0 7.71747e-06)
(0 -0 7.82225e-06)
(0 -0 7.82579e-06)
(0 -0 7.68233e-06)
(0 -0 7.30211e-06)
(0 -0 6.4944e-06)
(0 -0 5.04437e-06)
(0 -0 3.26624e-06)
(0 -0 5.68286e-06)
(0 -0 5.88992e-06)
(0 -0 6.2057e-06)
(0 -0 6.53292e-06)
(0 -0 6.81834e-06)
(0 -0 7.07515e-06)
(0 -0 7.31773e-06)
(0 -0 7.53104e-06)
(0 -0 7.69715e-06)
(0 -0 7.79413e-06)
(0 -0 7.79321e-06)
(0 -0 7.65019e-06)
(0 -0 7.278e-06)
(0 -0 6.49291e-06)
(0 -0 5.10418e-06)
(0 -0 3.37104e-06)
(0 -0 5.78713e-06)
(0 -0 5.9978e-06)
(0 -0 6.27875e-06)
(0 -0 6.60721e-06)
(0 -0 6.88036e-06)
(0 -0 7.12751e-06)
(0 -0 7.36005e-06)
(0 -0 7.5634e-06)
(0 -0 7.72031e-06)
(0 -0 7.80974e-06)
(0 -0 7.80404e-06)
(0 -0 7.66023e-06)
(0 -0 7.29313e-06)
(0 -0 6.52364e-06)
(0 -0 5.13244e-06)
(0 -0 3.46375e-06)
(0 -0 8.79902e-05)
(0 -0 8.66867e-05)
(0 -0 8.50379e-05)
(0 -0 9.17035e-05)
(0 -0 0.000119322)
(0 -0 0.000171577)
(0 -0 0.000233802)
(0 -0 0.000277404)
(0 -0 0.000275278)
(0 -0 0.000216536)
(0 -0 0.000111232)
(0 -0 -1.58153e-05)
(0 -0 -0.000136411)
(0 -0 -0.00022893)
(0 -0 -0.000283075)
(0 -0 -0.000299401)
(0 -0 -0.000285716)
(0 -0 -0.000252762)
(0 -0 -0.000210823)
(0 -0 -0.000167835)
(0 -0 -0.000128834)
(0 -0 -9.62856e-05)
(0 -0 -7.07846e-05)
(0 -0 -5.17934e-05)
(0 -0 -3.82402e-05)
(0 -0 -2.89203e-05)
(0 -0 -2.2724e-05)
(0 -0 -1.87351e-05)
(0 -0 -1.62512e-05)
(0 -0 -1.4762e-05)
(0 -0 -1.39122e-05)
(0 -0 -1.34631e-05)
(0 -0 -1.32582e-05)
(0 -0 -1.31978e-05)
(0 -0 -1.32194e-05)
(0 -0 -1.32845e-05)
(0 -0 -1.33695e-05)
(0 -0 -1.34603e-05)
(0 -0 -1.35482e-05)
(0 -0 -1.3628e-05)
(0 -0 -1.36963e-05)
(0 -0 -1.37508e-05)
(0 -0 -1.379e-05)
(0 -0 -1.38125e-05)
(0 -0 -1.38171e-05)
(0 -0 -1.38026e-05)
(0 -0 -1.37675e-05)
(0 -0 -1.37089e-05)
(0 -0 -1.36199e-05)
(0 -0 -1.34801e-05)
(0 -0 -1.32279e-05)
(0 -0 -1.2681e-05)
(0 -0 -1.13397e-05)
(0 -0 -8.07499e-06)
(0 -0 -1.98336e-06)
(0 -0 0.00010003)
(0 -0 9.86107e-05)
(0 -0 9.67545e-05)
(0 -0 0.000103969)
(0 -0 0.000134405)
(0 -0 0.000192665)
(0 -0 0.00026317)
(0 -0 0.000314597)
(0 -0 0.000316644)
(0 -0 0.000256411)
(0 -0 0.000143979)
(0 -0 5.99365e-06)
(0 -0 -0.000126713)
(0 -0 -0.000230097)
(0 -0 -0.000292326)
(0 -0 -0.000313446)
(0 -0 -0.000301567)
(0 -0 -0.00026818)
(0 -0 -0.000224432)
(0 -0 -0.000179009)
(0 -0 -0.000137491)
(0 -0 -0.000102669)
(0 -0 -7.52859e-05)
(0 -0 -5.48342e-05)
(0 -0 -4.02033e-05)
(0 -0 -3.01207e-05)
(0 -0 -2.34034e-05)
(0 -0 -1.90696e-05)
(0 -0 -1.63639e-05)
(0 -0 -1.47362e-05)
(0 -0 -1.38025e-05)
(0 -0 -1.33043e-05)
(0 -0 -1.30722e-05)
(0 -0 -1.2998e-05)
(0 -0 -1.30136e-05)
(0 -0 -1.30774e-05)
(0 -0 -1.31636e-05)
(0 -0 -1.32569e-05)
(0 -0 -1.33478e-05)
(0 -0 -1.34307e-05)
(0 -0 -1.35017e-05)
(0 -0 -1.35586e-05)
(0 -0 -1.35996e-05)
(0 -0 -1.36231e-05)
(0 -0 -1.36281e-05)
(0 -0 -1.36131e-05)
(0 -0 -1.35766e-05)
(0 -0 -1.35161e-05)
(0 -0 -1.34259e-05)
(0 -0 -1.3291e-05)
(0 -0 -1.30691e-05)
(0 -0 -1.26461e-05)
(0 -0 -1.17448e-05)
(0 -0 -9.81024e-06)
(0 -0 -6.08118e-06)
(0 -0 0.000111994)
(0 -0 0.000110472)
(0 -0 0.000108416)
(0 -0 0.000116075)
(0 -0 0.000149033)
(0 -0 0.000212909)
(0 -0 0.000291513)
(0 -0 0.000351147)
(0 -0 0.000358497)
(0 -0 0.000298537)
(0 -0 0.000181018)
(0 -0 3.39618e-05)
(0 -0 -0.000109521)
(0 -0 -0.000223151)
(0 -0 -0.000293544)
(0 -0 -0.000320089)
(0 -0 -0.000310986)
(0 -0 -0.000278273)
(0 -0 -0.000233801)
(0 -0 -0.000186906)
(0 -0 -0.000143666)
(0 -0 -0.000107188)
(0 -0 -7.83814e-05)
(0 -0 -5.67955e-05)
(0 -0 -4.13108e-05)
(0 -0 -3.06137e-05)
(0 -0 -2.34702e-05)
(0 -0 -1.88501e-05)
(0 -0 -1.59572e-05)
(0 -0 -1.421e-05)
(0 -0 -1.32019e-05)
(0 -0 -1.26583e-05)
(0 -0 -1.23992e-05)
(0 -0 -1.23093e-05)
(0 -0 -1.23162e-05)
(0 -0 -1.23754e-05)
(0 -0 -1.24594e-05)
(0 -0 -1.25518e-05)
(0 -0 -1.26426e-05)
(0 -0 -1.27256e-05)
(0 -0 -1.27968e-05)
(0 -0 -1.28538e-05)
(0 -0 -1.28945e-05)
(0 -0 -1.29176e-05)
(0 -0 -1.29217e-05)
(0 -0 -1.29055e-05)
(0 -0 -1.28673e-05)
(0 -0 -1.2805e-05)
(0 -0 -1.27141e-05)
(0 -0 -1.25839e-05)
(0 -0 -1.23869e-05)
(0 -0 -1.2055e-05)
(0 -0 -1.14366e-05)
(0 -0 -1.0248e-05)
(0 -0 -8.07126e-06)
(0 -0 0.000123874)
(0 -0 0.000122261)
(0 -0 0.000120013)
(0 -0 0.000128022)
(0 -0 0.000163222)
(0 -0 0.000232332)
(0 -0 0.000318823)
(0 -0 0.000386957)
(0 -0 0.000400588)
(0 -0 0.000342477)
(0 -0 0.000221727)
(0 -0 6.73242e-05)
(0 -0 -8.56805e-05)
(0 -0 -0.000208946)
(0 -0 -0.000287536)
(0 -0 -0.000320046)
(0 -0 -0.000314582)
(0 -0 -0.000283539)
(0 -0 -0.000239325)
(0 -0 -0.000191836)
(0 -0 -0.000147599)
(0 -0 -0.000110032)
(0 -0 -8.02236e-05)
(0 -0 -5.78041e-05)
(0 -0 -4.1672e-05)
(0 -0 -3.04974e-05)
(0 -0 -2.30156e-05)
(0 -0 -1.81634e-05)
(0 -0 -1.51154e-05)
(0 -0 -1.32666e-05)
(0 -0 -1.21928e-05)
(0 -0 -1.16072e-05)
(0 -0 -1.13212e-05)
(0 -0 -1.1214e-05)
(0 -0 -1.12096e-05)
(0 -0 -1.1261e-05)
(0 -0 -1.13396e-05)
(0 -0 -1.1428e-05)
(0 -0 -1.15156e-05)
(0 -0 -1.15959e-05)
(0 -0 -1.16648e-05)
(0 -0 -1.17196e-05)
(0 -0 -1.17582e-05)
(0 -0 -1.17793e-05)
(0 -0 -1.17813e-05)
(0 -0 -1.17628e-05)
(0 -0 -1.17225e-05)
(0 -0 -1.16581e-05)
(0 -0 -1.15664e-05)
(0 -0 -1.14397e-05)
(0 -0 -1.12609e-05)
(0 -0 -1.09905e-05)
(0 -0 -1.05474e-05)
(0 -0 -9.78852e-06)
(0 -0 -8.51558e-06)
(0 -0 0.000135658)
(0 -0 0.000133968)
(0 -0 0.000131535)
(0 -0 0.000139811)
(0 -0 0.000177)
(0 -0 0.000250981)
(0 -0 0.000345123)
(0 -0 0.000421942)
(0 -0 0.000442641)
(0 -0 0.000387707)
(0 -0 0.000265326)
(0 -0 0.000105094)
(0 -0 -5.63022e-05)
(0 -0 -0.000188623)
(0 -0 -0.000275387)
(0 -0 -0.000314292)
(0 -0 -0.000313184)
(0 -0 -0.000284657)
(0 -0 -0.000241545)
(0 -0 -0.000194219)
(0 -0 -0.000149616)
(0 -0 -0.000111454)
(0 -0 -8.1013e-05)
(0 -0 -5.80236e-05)
(0 -0 -4.14256e-05)
(0 -0 -2.98942e-05)
(0 -0 -2.21517e-05)
(0 -0 -1.71155e-05)
(0 -0 -1.39409e-05)
(0 -0 -1.20062e-05)
(0 -0 -1.08748e-05)
(0 -0 -1.02502e-05)
(0 -0 -9.93758e-06)
(0 -0 -9.81161e-06)
(0 -0 -9.79353e-06)
(0 -0 -9.83456e-06)
(0 -0 -9.90488e-06)
(0 -0 -9.98638e-06)
(0 -0 -1.0068e-05)
(0 -0 -1.01431e-05)
(0 -0 -1.02073e-05)
(0 -0 -1.02578e-05)
(0 -0 -1.02926e-05)
(0 -0 -1.031e-05)
(0 -0 -1.03086e-05)
(0 -0 -1.02869e-05)
(0 -0 -1.02437e-05)
(0 -0 -1.01768e-05)
(0 -0 -1.00837e-05)
(0 -0 -9.95911e-06)
(0 -0 -9.79243e-06)
(0 -0 -9.56165e-06)
(0 -0 -9.22489e-06)
(0 -0 -8.71444e-06)
(0 -0 -7.95134e-06)
(0 -0 0.000147338)
(0 -0 0.000145581)
(0 -0 0.000142973)
(0 -0 0.000151447)
(0 -0 0.000190406)
(0 -0 0.000268924)
(0 -0 0.00037046)
(0 -0 0.000456039)
(0 -0 0.000484374)
(0 -0 0.000433657)
(0 -0 0.000310944)
(0 -0 0.000146149)
(0 -0 -2.26639e-05)
(0 -0 -0.000163505)
(0 -0 -0.000258366)
(0 -0 -0.000303969)
(0 -0 -0.000307771)
(0 -0 -0.00028243)
(0 -0 -0.000241098)
(0 -0 -0.000194551)
(0 -0 -0.000150098)
(0 -0 -0.000111749)
(0 -0 -8.09799e-05)
(0 -0 -5.76395e-05)
(0 -0 -4.0727e-05)
(0 -0 -2.89398e-05)
(0 -0 -2.10017e-05)
(0 -0 -1.5822e-05)
(0 -0 -1.25447e-05)
(0 -0 -1.05378e-05)
(0 -0 -9.35547e-06)
(0 -0 -8.6947e-06)
(0 -0 -8.35568e-06)
(0 -0 -8.20987e-06)
(0 -0 -8.17625e-06)
(0 -0 -8.20463e-06)
(0 -0 -8.26425e-06)
(0 -0 -8.33645e-06)
(0 -0 -8.40986e-06)
(0 -0 -8.47751e-06)
(0 -0 -8.53499e-06)
(0 -0 -8.57938e-06)
(0 -0 -8.60855e-06)
(0 -0 -8.62085e-06)
(0 -0 -8.61481e-06)
(0 -0 -8.58903e-06)
(0 -0 -8.54202e-06)
(0 -0 -8.47208e-06)
(0 -0 -8.37695e-06)
(0 -0 -8.25301e-06)
(0 -0 -8.0938e-06)
(0 -0 -7.88751e-06)
(0 -0 -7.61434e-06)
(0 -0 -7.24734e-06)
(0 -0 -6.77129e-06)
(0 -0 0.000158905)
(0 -0 0.00015709)
(0 -0 0.000154315)
(0 -0 0.000162935)
(0 -0 0.000203483)
(0 -0 0.000286242)
(0 -0 0.000394904)
(0 -0 0.000489207)
(0 -0 0.000525526)
(0 -0 0.000479758)
(0 -0 0.000357686)
(0 -0 0.00018932)
(0 -0 1.38874e-05)
(0 -0 -0.000134997)
(0 -0 -0.000237829)
(0 -0 -0.000290303)
(0 -0 -0.000299392)
(0 -0 -0.000277719)
(0 -0 -0.00023867)
(0 -0 -0.000193363)
(0 -0 -0.000149453)
(0 -0 -0.000111228)
(0 -0 -8.03658e-05)
(0 -0 -5.68443e-05)
(0 -0 -3.97354e-05)
(0 -0 -2.77716e-05)
(0 -0 -1.96891e-05)
(0 -0 -1.43979e-05)
(0 -0 -1.10373e-05)
(0 -0 -8.96893e-06)
(0 -0 -7.74129e-06)
(0 -0 -7.04666e-06)
(0 -0 -6.68168e-06)
(0 -0 -6.51528e-06)
(0 -0 -6.46476e-06)
(0 -0 -6.47879e-06)
(0 -0 -6.5259e-06)
(0 -0 -6.58695e-06)
(0 -0 -6.65032e-06)
(0 -0 -6.70883e-06)
(0 -0 -6.75797e-06)
(0 -0 -6.79474e-06)
(0 -0 -6.81698e-06)
(0 -0 -6.82297e-06)
(0 -0 -6.81125e-06)
(0 -0 -6.78038e-06)
(0 -0 -6.72891e-06)
(0 -0 -6.65523e-06)
(0 -0 -6.55744e-06)
(0 -0 -6.4329e-06)
(0 -0 -6.27772e-06)
(0 -0 -6.08603e-06)
(0 -0 -5.85042e-06)
(0 -0 -5.5662e-06)
(0 -0 -5.25252e-06)
(0 -0 0.000170351)
(0 -0 0.000168485)
(0 -0 0.000165551)
(0 -0 0.00017428)
(0 -0 0.000216276)
(0 -0 0.000303026)
(0 -0 0.000418544)
(0 -0 0.000521437)