/*--------------------------------*- C++ -*----------------------------------*\
| =========                 |                                                 |
| \\      /  F ield         | OpenFOAM: The Open Source CFD Toolbox           |
|  \\    /   O peration     | Version:  2412                                  |
|   \\  /    A nd           | Website:  www.openfoam.com                      |
|    \\/     M anipulation  |                                                 |
\*---------------------------------------------------------------------------*/
FoamFile
{
    version     2.0;
    format      ascii;
    arch        "LSB;label=32;scalar=64";
    class       volVectorField;
    location    "4";
    object      U;
}
// * * * * * * * * * * * * * * * * * * * * * * * * * * * * * * * * * * * * * //

dimensions      [0 1 -1 0 0 0 0];

internalField   nonuniform List<vector> 
5285
(
(0.0793045 -0.00085533 4.88142e-25)
(0.080808 -0.000762397 0)
(0.0821543 -0.000682385 5.22575e-25)
(0.0833648 -0.000613294 0)
(0.0844575 -0.000553396 0)
(0.0854476 -0.000501237 0)
(0.0863479 -0.000455606 5.76264e-25)
(0.0871695 -0.000415503 0)
(0.0879215 -0.000380099 -5.92561e-25)
(0.0886118 -0.000348715 5.98205e-25)
(0.0892473 -0.000320787 -6.02331e-25)
(0.0898339 -0.000295846 5.43116e-24)
(0.0903766 -0.000273504 -5.44009e-24)
(0.0908799 -0.000253435 -4.22838e-24)
(0.0913478 -0.000235364 9.06383e-24)
(0.0917837 -0.000219061 -4.83472e-24)
(0.0921906 -0.00020433 -6.01974e-25)
(0.0925714 -0.000191006 5.98761e-25)
(0.0929285 -0.000178948 0)
(0.0932641 -0.000168039 5.9046e-25)
(0.0935803 -0.000158184 -2.91245e-24)
(0.0938789 -0.000149305 2.9107e-24)
(0.0941617 -0.000141345 -5.74379e-25)
(0.0944304 -0.000134262 1.69678e-24)
(0.0946867 -0.000128026 -5.68343e-25)
(0.094932 -0.000122599 -1.10649e-24)
(0.0951679 -0.000117913 5.52045e-25)
(0.0953956 -0.000113828 -5.41604e-25)
(0.0794545 -0.00255568 3.09849e-23)
(0.0809307 -0.00227903 -3.36309e-23)
(0.0822555 -0.00204056 3.39745e-23)
(0.0834488 -0.00183444 -1.6846e-23)
(0.0845276 -0.0016556 -3.58242e-23)
(0.0855065 -0.00149976 1.81257e-23)
(0.0863977 -0.00136335 -5.77751e-25)
(0.0872117 -0.0012434 -1.19571e-24)
(0.0879574 -0.00113748 5.93855e-25)
(0.0886425 -0.00104356 -1.81522e-24)
(0.0892735 -0.000959966 1.87943e-23)
(0.0898562 -0.000885309 -3.95116e-23)
(0.0903956 -0.000818428 1.88741e-23)
(0.090896 -0.000758347 -1.83279e-24)
(0.0913613 -0.000704249 6.06701e-25)
(0.091795 -0.000655441 0)
(0.0921999 -0.000611339 -1.02307e-23)
(0.0925789 -0.000571444 9.03542e-24)
(0.0929343 -0.000535336 8.29522e-24)
(0.0932683 -0.000502664 -1.12794e-23)
(0.0935831 -0.000473137 5.85379e-25)
(0.0938803 -0.000446525 2.87369e-24)
(0.0941618 -0.000422652 -5.20025e-24)
(0.0944291 -0.000401392 -5.67801e-25)
(0.0946839 -0.000382647 -3.91799e-24)
(0.0949277 -0.000366304 -5.26051e-25)
(0.0951619 -0.000352159 1.11921e-24)
(0.0953878 -0.000339796 1.63029e-24)
(0.0797512 -0.00422625 -3.42303e-23)
(0.0811747 -0.00377195 3.63918e-23)
(0.0824575 -0.00337958 1.1788e-24)
(0.0836172 -0.00303983 -1.1928e-24)
(0.0846689 -0.00274464 1.20645e-24)
(0.0856257 -0.0024871 -3.70698e-23)
(0.0864988 -0.00226144 3.83249e-23)
(0.0872977 -0.00206286 -3.6608e-23)
(0.0880308 -0.00188738 3.90844e-23)
(0.0887052 -0.0017317 1.22064e-24)
(0.0893272 -0.00159309 3.9536e-23)
(0.0899021 -0.00146925 -7.79283e-23)
(0.0904348 -0.00135827 4.08478e-23)
(0.0909293 -0.00125856 2.09426e-23)
(0.0913895 -0.00116876 -1.84938e-23)
(0.0918185 -0.00108773 0)
(0.0922194 -0.0010145 -1.13256e-26)
(0.0925946 -0.00094825 0)
(0.0929467 -0.000888271 1.90852e-23)
(0.0932776 -0.000833979 -1.79266e-23)
(0.0935894 -0.000784889 1.18098e-24)
(0.0938839 -0.000740612 -5.81735e-27)
(0.0941626 -0.000700848 9.14957e-24)
(0.0944273 -0.000665377 -1.70668e-23)
(0.0946792 -0.000634025 9.04906e-24)
(0.09492 -0.000606598 -4.40994e-24)
(0.0951509 -0.000582754 3.33371e-24)
(0.0953731 -0.000561812 1.09457e-24)
(0.0801883 -0.00584741 0)
(0.0815371 -0.00522502 1.30228e-24)
(0.0827598 -0.00468603 1.06006e-25)
(0.0838709 -0.00421821 1.2041e-24)
(0.0848831 -0.00381091 -8.14706e-23)
(0.0858075 -0.00345497 8.03494e-23)
(0.0866538 -0.00314266 0)
(0.0874303 -0.00286751 -4.05831e-23)
(0.0881446 -0.00262415 4.19448e-23)
(0.088803 -0.00240809 0)
(0.0894113 -0.00221559 -3.37561e-26)
(0.0899745 -0.00204352 -4.17903e-23)
(0.0904969 -0.00188926 8.21986e-23)
(0.0909826 -0.00175061 -8.05446e-23)
(0.0914348 -0.00162571 8.00972e-23)
(0.0918569 -0.00151298 -7.95249e-23)
(0.0922514 -0.00141108 3.96055e-23)
(0.092621 -0.00131886 1.94551e-23)
(0.0929679 -0.00123534 -1.70397e-23)
(0.0932941 -0.00115971 -1.20345e-24)
(0.0936015 -0.00109127 -1.882e-23)
(0.0938917 -0.00102947 3.97762e-23)
(0.0941664 -0.000973892 -1.86129e-23)
(0.0944269 -0.000924194 5.88415e-27)
(0.0946747 -0.000880121 1.12268e-24)
(0.0949111 -0.000841385 -4.22042e-27)
(0.0951372 -0.000807507 -1.09162e-24)
(0.0953541 -0.000777564 2.15405e-24)
(0.0820122 -0.00662459 -8.98318e-23)
(0.08316 -0.00594808 8.71582e-23)
(0.0842099 -0.00535926 0)
(0.0851718 -0.00484537 0)
(0.0860545 -0.00439539 -1.31068e-24)
(0.086866 -0.00399992 -8.58486e-23)
(0.0876133 -0.00365105 8.45004e-23)
(0.0883027 -0.00334214 -1.3078e-24)
(0.08894 -0.00306764 -4.0978e-23)
(0.0895301 -0.00282288 4.36164e-23)
(0.0900776 -0.00260396 0)
(0.0905863 -0.00240761 3.51493e-26)
(0.0910598 -0.00223105 0)
(0.0915015 -0.00207194 -4.0713e-23)
(0.091914 -0.00192829 4.20018e-23)
(0.0923001 -0.00179839 -3.8645e-23)
(0.0926621 -0.00168079 3.98717e-23)
(0.093002 -0.00157423 -2.45116e-24)
(0.0933218 -0.00147767 1.20318e-24)
(0.0936232 -0.00139022 1.18856e-26)
(0.0939078 -0.00131115 -1.17237e-24)
(0.094177 -0.0012399 1.15626e-24)
(0.0944321 -0.00117601 -1.02175e-23)
(0.0946745 -0.00111912 1.80125e-23)
(0.0949052 -0.00106885 -1.33396e-23)
(0.0951252 -0.00102458 4.3975e-24)
(0.0953355 -0.00098517 3.50536e-27)
(0.082591 -0.00799064 1.02702e-22)
(0.0836527 -0.00718153 -1.02553e-22)
(0.0846316 -0.00647531 -9.74875e-23)
(0.0855344 -0.00585757 9.5759e-23)
(0.0863676 -0.00531567 0)
(0.0871374 -0.00483875 0)
(0.0878493 -0.00441758 9.14457e-23)
(0.0885086 -0.00404433 -1.01691e-24)
(0.08912 -0.00371243 -9.29742e-23)
(0.0896877 -0.00341635 -8.95259e-23)
(0.0902156 -0.00315142 1.73618e-22)
(0.0907073 -0.00291372 -4.52643e-23)
(0.0911658 -0.00269992 -4.42629e-23)
(0.0915942 -0.00250722 -4.44907e-23)
(0.091995 -0.0023332 8.17958e-23)
(0.0923705 -0.0021758 -8.32196e-23)
(0.0927228 -0.00203326 -7.3819e-25)
(0.0930541 -0.00190406 4.00321e-23)
(0.0933658 -0.00178689 3.8896e-23)
(0.0936598 -0.00168068 -6.03919e-23)
(0.0939373 -0.00158453 3.67499e-23)
(0.0941998 -0.0014977 -1.99744e-23)
(0.0944484 -0.00141961 1.93543e-23)
(0.0946842 -0.00134977 -1.93085e-23)
(0.0949081 -0.0012877 1.10459e-24)
(0.095121 -0.00123266 -5.40654e-24)
(0.0953238 -0.00118331 2.17156e-24)
(0.0832692 -0.00934553 -1.27127e-22)
(0.0842363 -0.00840421 0)
(0.0851359 -0.00758044 0)
(0.0859719 -0.00685846 1.61792e-24)
(0.0867486 -0.0062242 -1.03964e-22)
(0.0874704 -0.00566543 1.037e-22)
(0.0881414 -0.00517164 0)
(0.0887654 -0.00473386 0)
(0.0893464 -0.00434451 1.45851e-24)
(0.0898877 -0.00399714 -9.16382e-23)
(0.0903926 -0.00368632 1.85604e-22)
(0.0908641 -0.00340747 -9.11234e-23)
(0.0913049 -0.00315669 1.36687e-24)
(0.0917175 -0.00293067 1.34498e-24)
(0.0921042 -0.0027266 4.25064e-23)
(0.0924671 -0.00254203 -8.28409e-23)
(0.0928082 -0.00237488 4.29172e-23)
(0.0931291 -0.00222334 -3.89884e-23)
(0.0934314 -0.00208587 6.37063e-25)
(0.0937166 -0.00196117 1.84802e-24)
(0.0939859 -0.00184813 3.98562e-23)
(0.0942406 -0.00174586 1.98229e-23)
(0.0944816 -0.00165363 -1.97519e-23)
(0.0947099 -0.00157081 1.12667e-24)
(0.0949263 -0.00149679 8.78993e-24)
(0.0951314 -0.0014307 -7.68288e-24)
(0.095326 -0.00137111 1.06175e-24)
(0.0956169 -0.000110086 0)
(0.0958335 -0.000106354 0)
(0.0960465 -0.0001021 0)
(0.0962541 -9.67385e-05 0)
(0.0964529 -8.97759e-05 0)
(0.0966388 -8.10283e-05 0)
(0.0968072 -7.07926e-05 0)
(0.0969548 -5.9862e-05 0)
(0.0970803 -4.93367e-05 0)
(0.097185 -4.02966e-05 0)
(0.0972726 -3.34793e-05 0)
(0.0973484 -2.9106e-05 0)
(0.0974179 -2.69069e-05 0)
(0.0974855 -2.62996e-05 0)
(0.0975544 -2.66142e-05 0)
(0.0976261 -2.72721e-05 0)
(0.0977011 -2.78744e-05 0)
(0.0977788 -2.8208e-05 0)
(0.0978585 -2.82031e-05 0)
(0.0979392 -2.78777e-05 0)
(0.0980201 -2.72901e-05 0)
(0.0981004 -2.65084e-05 0)
(0.0981798 -2.55941e-05 0)
(0.0982578 -2.45968e-05 0)
(0.098334 -2.35539e-05 0)
(0.0984084 -2.24926e-05 0)
(0.0984807 -2.14321e-05 0)
(0.098551 -2.03858e-05 0)
(0.0986191 -1.93628e-05 0)
(0.098685 -1.8369e-05 0)
(0.0987488 -1.74081e-05 0)
(0.0988104 -1.64827e-05 0)
(0.09887 -1.55939e-05 0)
(0.0989274 -1.47425e-05 0)
(0.0989827 -1.39285e-05 0)
(0.0990361 -1.31516e-05 0)
(0.0990874 -1.24109e-05 0)
(0.0991369 -1.17052e-05 0)
(0.0991844 -1.10333e-05 0)
(0.0992301 -1.03937e-05 0)
(0.099274 -9.7856e-06 0)
(0.0993162 -9.20776e-06 0)
(0.0993566 -8.6591e-06 0)
(0.0993954 -8.13829e-06 0)
(0.0956065 -0.000328459 0)
(0.0958202 -0.000317179 0)
(0.0960301 -0.000304385 0)
(0.0962345 -0.000288373 0)
(0.0964304 -0.000267708 0)
(0.0966139 -0.000241851 0)
(0.096781 -0.000211667 0)
(0.0969285 -0.000179467 0)
(0.0970551 -0.000148456 0)
(0.0971621 -0.000121785 0)
(0.097253 -0.000101609 0)
(0.0973325 -8.85777e-05 0)
(0.0974057 -8.19113e-05 0)
(0.0974767 -7.99155e-05 0)
(0.0975484 -8.06379e-05 0)
(0.0976224 -8.23887e-05 0)
(0.0976991 -8.40005e-05 0)
(0.097778 -8.48467e-05 0)
(0.0978585 -8.47189e-05 0)
(0.0979397 -8.36651e-05 0)
(0.098021 -8.18522e-05 0)
(0.0981015 -7.94763e-05 0)
(0.098181 -7.67161e-05 0)
(0.098259 -7.37161e-05 0)
(0.0983352 -7.05856e-05 0)
(0.0984096 -6.74037e-05 0)
(0.0984818 -6.42267e-05 0)
(0.098552 -6.10937e-05 0)
(0.0986201 -5.8031e-05 0)
(0.0986859 -5.50564e-05 0)
(0.0987497 -5.21811e-05 0)
(0.0988112 -4.9412e-05 0)
(0.0988707 -4.67528e-05 0)
(0.098928 -4.42052e-05 0)
(0.0989833 -4.1769e-05 0)
(0.0990366 -3.94429e-05 0)
(0.0990879 -3.72244e-05 0)
(0.0991373 -3.51105e-05 0)
(0.0991848 -3.30978e-05 0)
(0.0992304 -3.11827e-05 0)
(0.0992743 -2.93618e-05 0)
(0.0993164 -2.76316e-05 0)
(0.0993568 -2.59885e-05 0)
(0.0993956 -2.44286e-05 0)
(0.0955871 -0.000542581 0)
(0.0957951 -0.000523534 0)
(0.0959991 -0.000502138 0)
(0.0961974 -0.000475717 0)
(0.0963879 -0.00044201 0)
(0.096567 -0.000400167 0)
(0.0967316 -0.000351541 0)
(0.0968789 -0.000299755 0)
(0.0970078 -0.000249851 0)
(0.0971194 -0.000206791 0)
(0.0972164 -0.000173983 0)
(0.0973029 -0.000152478 0)
(0.097383 -0.000141074 0)
(0.0974604 -0.000137122 0)
(0.0975375 -0.000137552 0)
(0.0976157 -0.000139698 0)
(0.0976956 -0.000141706 0)
(0.0977768 -0.000142573 0)
(0.0978588 -0.000141951 0)
(0.0979411 -0.000139903 0)
(0.098023 -0.000136681 0)
(0.0981039 -0.000132588 0)
(0.0981836 -0.000127901 0)
(0.0982616 -0.000122846 0)
(0.0983378 -0.000117595 0)
(0.098412 -0.000112273 0)
(0.0984842 -0.000106968 0)
(0.0985543 -0.000101743 0)
(0.0986222 -9.66384e-05 0)
(0.0986879 -9.16832e-05 0)
(0.0987515 -8.68952e-05 0)
(0.0988129 -8.22852e-05 0)
(0.0988722 -7.78589e-05 0)
(0.0989294 -7.36185e-05 0)
(0.0989846 -6.95636e-05 0)
(0.0990378 -6.56917e-05 0)
(0.099089 -6.19988e-05 0)
(0.0991383 -5.84799e-05 0)
(0.0991857 -5.51294e-05 0)
(0.0992312 -5.19416e-05 0)
(0.099275 -4.89107e-05 0)
(0.099317 -4.60307e-05 0)
(0.0993574 -4.32954e-05 0)
(0.0993961 -4.06984e-05 0)
(0.0955614 -0.000750023 0)
(0.0957616 -0.000722927 0)
(0.0959574 -0.000692889 0)
(0.0961476 -0.000656479 0)
(0.0963306 -0.000610789 0)
(0.0965039 -0.000554715 0)
(0.0966651 -0.000489971 0)
(0.0968123 -0.000421186 0)
(0.0969444 -0.00035482 0)
(0.0970622 -0.000297257 0)
(0.0971676 -0.000252917 0)
(0.0972635 -0.000223208 0)
(0.0973531 -0.000206641 0)
(0.097439 -0.000199853 0)
(0.0975234 -0.000198913 0)
(0.0976074 -0.000200381 0)
(0.0976916 -0.000201843 0)
(0.0977759 -0.000201971 0)
(0.0978601 -0.000200283 0)
(0.0979437 -0.00019683 0)
(0.0980264 -0.000191915 0)
(0.0981078 -0.000185914 0)
(0.0981877 -0.000179174 0)
(0.0982658 -0.000171984 0)
(0.0983419 -0.000164562 0)
(0.098416 -0.000157069 0)
(0.0984881 -0.000149619 0)
(0.0985579 -0.000142292 0)
(0.0986256 -0.000135143 0)
(0.0986911 -0.000128209 0)
(0.0987545 -0.000121511 0)
(0.0988157 -0.000115065 0)
(0.0988748 -0.000108876 0)
(0.0989318 -0.000102949 0)
(0.0989868 -9.72813e-05 0)
(0.0990398 -9.18694e-05 0)
(0.0990908 -8.67078e-05 0)
(0.09914 -8.17893e-05 0)
(0.0991872 -7.71063e-05 0)
(0.0992326 -7.26506e-05 0)
(0.0992763 -6.84141e-05 0)
(0.0993182 -6.43883e-05 0)
(0.0993585 -6.05646e-05 0)
(0.0993971 -5.6934e-05 0)
(0.0955347 -0.000948886 0)
(0.0957255 -0.000913491 0)
(0.0959115 -0.000874861 0)
(0.0960922 -0.000829067 0)
(0.0962666 -0.000772768 0)
(0.0964332 -0.000704673 0)
(0.0965906 -0.000626698 0)
(0.0967375 -0.000544097 0)
(0.0968733 -0.000464249 0)
(0.0969981 -0.000394488 0)
(0.0971131 -0.000339952 0)
(0.0972197 -0.000302356 0)
(0.09732 -0.000280099 0)
(0.0974158 -0.000269394 0)
(0.0975085 -0.000265759 0)
(0.0975991 -0.000265228 0)
(0.0976882 -0.000264982 0)
(0.0977761 -0.000263435 0)
(0.0978627 -0.000259973 0)
(0.0979479 -0.000254605 0)
(0.0980316 -0.000247642 0)
(0.0981135 -0.000239492 0)
(0.0981936 -0.000230542 0)
(0.0982717 -0.000221114 0)
(0.0983478 -0.000211457 0)
(0.0984217 -0.000201755 0)
(0.0984935 -0.000192138 0)
(0.0985631 -0.0001827 0)
(0.0986305 -0.000173504 0)
(0.0986957 -0.000164591 0)
(0.0987588 -0.000155988 0)
(0.0988197 -0.000147712 0)
(0.0988785 -0.00013977 0)
(0.0989353 -0.000132164 0)
(0.0989901 -0.000124891 0)
(0.0990428 -0.000117948 0)
(0.0990936 -0.000111325 0)
(0.0991425 -0.000105015 0)
(0.0991896 -9.90064e-05 0)
(0.0992349 -9.32896e-05 0)
(0.0992783 -8.78537e-05 0)
(0.0993201 -8.26879e-05 0)
(0.0993602 -7.7781e-05 0)
(0.0993987 -7.31217e-05 0)
(0.0955139 -0.00113791 0)
(0.0956944 -0.00109408 0)
(0.09587 -0.00104705 0)
(0.0960406 -0.000992629 0)
(0.0962058 -0.00092728 0)
(0.0963653 -0.000849586 0)
(0.0965185 -0.000761501 0)
(0.096665 -0.000668505 0)
(0.0968042 -0.000578364 0)
(0.0969359 -0.000498874 0)
(0.0970602 -0.000435582 0)
(0.0971776 -0.000390461 0)
(0.0972886 -0.000361972 0)
(0.0973942 -0.000346216 0)
(0.0974953 -0.000338485 0)
(0.0975926 -0.000334551 0)
(0.0976868 -0.000331356 0)
(0.0977783 -0.000327126 0)
(0.0978673 -0.000321124 0)
(0.0979541 -0.000313285 0)
(0.0980388 -0.000303885 0)
(0.0981212 -0.000293323 0)
(0.0982015 -0.000281987 0)
(0.0982796 -0.000270208 0)
(0.0983555 -0.000258244 0)
(0.0984292 -0.000246289 0)
(0.0985006 -0.000234483 0)
(0.0985699 -0.000222922 0)
(0.0986369 -0.000211676 0)
(0.0987018 -0.000200789 0)
(0.0987645 -0.000190288 0)
(0.098825 -0.000180191 0)
(0.0988835 -0.000170505 0)
(0.09894 -0.00016123 0)
(0.0989944 -0.000152364 0)
(0.0990469 -0.000143899 0)
(0.0990974 -0.000135826 0)
(0.0991461 -0.000128133 0)
(0.0991929 -0.000120808 0)
(0.099238 -0.000113839 0)
(0.0992812 -0.000107211 0)
(0.0993228 -0.000100913 0)
(0.0993627 -9.49296e-05 0)
(0.0994011 -8.92477e-05 0)
(0.0955066 -0.00131647 0)
(0.0956768 -0.0012643 0)
(0.0958421 -0.00120918 0)
(0.0960027 -0.00114698 0)
(0.0961588 -0.00107415 0)
(0.0963111 -0.000989217 0)
(0.0964598 -0.000894032 0)
(0.096605 -0.00079393 0)
(0.0967466 -0.000696574 0)
(0.0968839 -0.000609759 0)
(0.0970162 -0.000539148 0)
(0.0971427 -0.000486919 0)
(0.0972632 -0.000451756 0)
(0.0973776 -0.000429928 0)
(0.0974861 -0.00041681 0)
(0.0975895 -0.00040816 0)
(0.0976882 -0.00040084 0)
(0.097783 -0.000392963 0)
(0.0978743 -0.000383678 0)
(0.0979626 -0.000372823 0)
(0.098048 -0.000360602 0)
(0.0981309 -0.000347363 0)
(0.0982113 -0.000333464 0)
(0.0982893 -0.000319219 0)
(0.0983649 -0.000304877 0)
(0.0984382 -0.000290627 0)
(0.0985093 -0.000276607 0)
(0.0985781 -0.000262915 0)
(0.0986447 -0.000249618 0)
(0.0987092 -0.000236761 0)
(0.0987714 -0.000224372 0)
(0.0988316 -0.000212465 0)
(0.0988897 -0.000201047 0)
(0.0989458 -0.000190117 0)
(0.0989998 -0.000179669 0)
(0.099052 -0.000169696 0)
(0.0991022 -0.000160184 0)
(0.0991505 -0.000151121 0)
(0.0991971 -0.000142491 0)
(0.0992419 -0.000134279 0)
(0.0992849 -0.00012647 0)
(0.0993263 -0.000119047 0)
(0.099366 -0.000111996 0)
(0.0994041 -0.000105299 0)
(0.0955195 -0.00148876 0)
(0.0956798 -0.00142832 0)
(0.0958352 -0.00136531 0)
(0.0959862 -0.00129594 0)
(0.0961335 -0.00121686 0)
(0.0962785 -0.00112663 0)
(0.0964221 -0.00102684 0)
(0.096565 -0.000922382 0)
(0.0967073 -0.000820404 0)
(0.096848 -0.000728298 0)
(0.0969858 -0.000651589 0)
(0.0971192 -0.000592599 0)
(0.0972469 -0.000550357 0)
(0.0973681 -0.000521539 0)
(0.0974827 -0.000501859 0)
(0.0975909 -0.00048728 0)
(0.0976934 -0.000474727 0)
(0.0977909 -0.000462271 0)
(0.0978841 -0.000448963 0)
(0.0979735 -0.000434525 0)
(0.0980596 -0.00041906 0)
(0.0981427 -0.000402832 0)
(0.0982231 -0.000386142 0)
(0.0983008 -0.000369262 0)
(0.0983761 -0.000352416 0)
(0.098449 -0.000335775 0)
(0.0985196 -0.000319469 0)
(0.0985879 -0.000303586 0)
(0.098654 -0.000288192 0)
(0.0987179 -0.000273326 0)
(0.0987797 -0.000259013 0)
(0.0988394 -0.000245267 0)
(0.098897 -0.000232091 0)
(0.0989526 -0.000219481 0)
(0.0990063 -0.00020743 0)
(0.099058 -0.000195927 0)
(0.0991078 -0.000184957 0)
(0.0991558 -0.000174504 0)
(0.099202 -0.00016455 0)
(0.0992465 -0.000155079 0)
(0.0992892 -0.000146071 0)
(0.0993303 -0.000137508 0)
(0.0993698 -0.000129372 0)
(0.0994077 -0.000121645 0)
(0.0955586 -0.00165555 0)
(0.0957102 -0.00158642 0)
(0.0958566 -0.00151551 0)
(0.0959986 -0.00143941 0)
(0.0961377 -0.00135508 0)
(0.0962754 -0.00126112 0)
(0.0964133 -0.00115879 0)
(0.0965525 -0.00105228 0)
(0.0966932 -0.000947904 0)
(0.0968344 -0.00085234 0)
(0.0969745 -0.000770743 0)
(0.0971113 -0.000705505 0)
(0.0972431 -0.000656069 0)
(0.0973685 -0.000619685 0)
(0.0974868 -0.000592604 0)
(0.0975983 -0.000571172 0)
(0.0977033 -0.000552503 0)
(0.0978026 -0.000534697 0)
(0.097897 -0.000516731 0)
(0.0979871 -0.000498211 0)
(0.0980735 -0.000479119 0)
(0.0981567 -0.000459615 0)
(0.0982368 -0.000439918 0)
(0.0983142 -0.000420243 0)
(0.098389 -0.000400772 0)
(0.0984614 -0.00038165 0)
(0.0985314 -0.000362987 0)
(0.0985991 -0.00034486 0)
(0.0986646 -0.000327325 0)
(0.0987279 -0.000310414 0)
(0.098789 -0.000294149 0)
(0.0988482 -0.000278538 0)
(0.0989052 -0.000263581 0)
(0.0989603 -0.000249272 0)
(0.0990135 -0.000235599 0)
(0.0990647 -0.000222549 0)
(0.0991141 -0.000210104 0)
(0.0991617 -0.000198245 0)
(0.0992076 -0.000186953 0)
(0.0992517 -0.000176206 0)
(0.0992941 -0.000165985 0)
(0.0993349 -0.000156268 0)
(0.099374 -0.000147034 0)
(0.0994116 -0.000138263 0)
(0.0956247 -0.00181364 0)
(0.0957682 -0.00173584 0)
(0.0959066 -0.00165723 0)
(0.0960408 -0.00157484 0)
(0.0961724 -0.001486 0)
(0.0963031 -0.00138937 0)
(0.0964349 -0.00128585 0)
(0.0965691 -0.00117885 0)
(0.0967059 -0.00107368 0)
(0.0968448 -0.000976112 0)
(0.0969837 -0.000890786 0)
(0.0971205 -0.000820075 0)
(0.0972529 -0.000763828 0)
(0.0973794 -0.000719925 0)
(0.0974991 -0.000685251 0)
(0.0976118 -0.000656634 0)
(0.0977179 -0.000631466 0)
(0.097818 -0.000607935 0)
(0.0979128 -0.000584982 0)
(0.0980031 -0.000562112 0)
(0.0980894 -0.000539183 0)
(0.0981723 -0.000516249 0)
(0.098252 -0.000493437 0)
(0.0983289 -0.000470894 0)
(0.0984031 -0.000448755 0)
(0.0984748 -0.000427129 0)
(0.0985441 -0.000406102 0)
(0.0986111 -0.000385734 0)
(0.0986759 -0.000366068 0)
(0.0987385 -0.000347129 0)
(0.098799 -0.00032893 0)
(0.0988575 -0.000311475 0)
(0.098914 -0.000294758 0)
(0.0989685 -0.000278771 0)
(0.0990211 -0.000263497 0)
(0.0990719 -0.00024892 0)
(0.0991208 -0.00023502 0)
(0.0991679 -0.000221774 0)
(0.0992133 -0.00020916 0)
(0.099257 -0.000197155 0)
(0.0992991 -0.000185736 0)
(0.0993395 -0.000174878 0)
(0.0993783 -0.00016456 0)
(0.0994157 -0.000154757 0)
(0.095714 -0.00196364 0)
(0.0958502 -0.00187745 0)
(0.0959815 -0.00179143 0)
(0.0961088 -0.00170309 0)
(0.0962336 -0.00161016 0)
(0.0963577 -0.00151139 0)
(0.0964832 -0.00140734 0)
(0.0966114 -0.00130065 0)
(0.0967428 -0.00119559 0)
(0.0968768 -0.00109698 0)
(0.0970118 -0.00100885 0)
(0.0971455 -0.000933486 0)
(0.0972757 -0.000871066 0)
(0.0974007 -0.000820078 0)
(0.0975194 -0.000778048 0)
(0.0976316 -0.000742326 0)
(0.0977373 -0.000710626 0)
(0.0978371 -0.000681275 0)
(0.0979316 -0.000653213 0)
(0.0980215 -0.000625869 0)
(0.0981073 -0.000598998 0)
(0.0981896 -0.000572548 0)
(0.0982686 -0.00054656 0)
(0.0983448 -0.00052111 0)
(0.0984182 -0.00049628 0)
(0.0984892 -0.000472142 0)
(0.0985577 -0.000448753 0)
(0.0986239 -0.000426156 0)
(0.0986879 -0.000404376 0)
(0.0987498 -0.000383428 0)
(0.0988096 -0.000363318 0)
(0.0988674 -0.000344042 0)
(0.0989232 -0.000325591 0)
(0.0989771 -0.000307949 0)
(0.0990291 -0.000291098 0)
(0.0990793 -0.000275017 0)
(0.0991277 -0.000259683 0)
(0.0991743 -0.00024507 0)
(0.0992193 -0.000231154 0)
(0.0992625 -0.000217908 0)
(0.0993042 -0.000205307 0)
(0.0993442 -0.000193324 0)
(0.0993827 -0.000181935 0)
(0.0994197 -0.000171113 0)
(0.0958208 -0.00210604 0)
(0.0959502 -0.00201194 0)
(0.0960749 -0.00191891 0)
(0.096196 -0.00182493 0)
(0.0963147 -0.00172812 0)
(0.0964328 -0.00162736 0)
(0.096552 -0.00152292 0)
(0.0966738 -0.00141673 0)
(0.0967988 -0.00131213 0)
(0.0969265 -0.00121301 0)
(0.0970555 -0.00112278 0)
(0.097184 -0.00104353 0)
(0.0973098 -0.000975718 0)
(0.0974312 -0.000918333 0)
(0.0975473 -0.000869496 0)
(0.0976573 -0.00082706 0)
(0.0977614 -0.000789077 0)
(0.09786 -0.000754041 0)
(0.0979534 -0.000720929 0)
(0.0980424 -0.000689123 0)
(0.0981273 -0.0006583 0)
(0.0982087 -0.000628318 0)
(0.0982868 -0.000599139 0)
(0.0983621 -0.000570775 0)
(0.0984346 -0.000543255 0)
(0.0985046 -0.000516613 0)
(0.0985722 -0.000490879 0)
(0.0986376 -0.00046607 0)
(0.0987007 -0.0004422 0)
(0.0987618 -0.000419269 0)
(0.0988208 -0.000397275 0)
(0.0988778 -0.000376206 0)
(0.0989329 -0.000356046 0)
(0.0989861 -0.000336777 0)
(0.0990375 -0.000318374 0)
(0.0990871 -0.000300814 0)
(0.0991349 -0.000284069 0)
(0.099181 -0.000268112 0)
(0.0992254 -0.000252913 0)
(0.0992682 -0.000238446 0)
(0.0993094 -0.000224681 0)
(0.099349 -0.00021159 0)
(0.0993871 -0.000199145 0)
(0.0994237 -0.000187319 0)
(0.0959392 -0.00224116 0)
(0.096062 -0.00213977 0)
(0.0961807 -0.00204025 0)
(0.0962961 -0.00194097 0)
(0.0964092 -0.00184042 0)
(0.0965216 -0.00173761 0)
(0.0966348 -0.00163259 0)
(0.0967502 -0.00152674 0)
(0.0968683 -0.00142255 0)
(0.096989 -0.00132311 0)
(0.0971112 -0.00123123 0)
(0.0972331 -0.00114878 0)
(0.0973532 -0.00107636 0)
(0.0974698 -0.00101338 0)
(0.0975818 -0.000958456 0)
(0.0976887 -0.000909893 0)
(0.0977903 -0.000866064 0)
(0.0978868 -0.000825646 0)
(0.0979785 -0.000787679 0)
(0.098066 -0.000751533 0)
(0.0981496 -0.00071683 0)
(0.0982298 -0.000683361 0)
(0.0983068 -0.000651022 0)
(0.0983809 -0.000619768 0)
(0.0984524 -0.000589583 0)
(0.0985213 -0.000560464 0)
(0.0985879 -0.00053241 0)
(0.0986523 -0.00050542 0)
(0.0987145 -0.00047949 0)
(0.0987747 -0.000454608 0)
(0.0988328 -0.000430761 0)
(0.098889 -0.000407929 0)
(0.0989433 -0.000386093 0)
(0.0989958 -0.000365225 0)
(0.0990464 -0.000345299 0)
(0.0990954 -0.000326286 0)
(0.0991425 -0.000308156 0)
(0.0991881 -0.000290877 0)
(0.0992319 -0.000274419 0)
(0.0992742 -0.000258751 0)
(0.0993149 -0.000243841 0)
(0.0993541 -0.000229659 0)
(0.0993918 -0.000216176 0)
(0.099428 -0.00020336 0)
(0.0960645 -0.00236918 0)
(0.0961809 -0.00226122 0)
(0.0962938 -0.00215578 0)
(0.0964037 -0.0020516 0)
(0.0965115 -0.00194745 0)
(0.0966186 -0.00184248 0)
(0.0967262 -0.00173659 0)
(0.0968354 -0.00163071 0)
(0.0969468 -0.00152668 0)
(0.0970604 -0.00142687 0)
(0.0971753 -0.0013336 0)
(0.0972903 -0.00124847 0)
(0.097404 -0.00117217 0)
(0.097515 -0.0011044 0)
(0.0976222 -0.00104416 0)
(0.0977252 -0.000990142 0)
(0.0978235 -0.000941005 0)
(0.0979174 -0.000895608 0)
(0.0980069 -0.000853075 0)
(0.0980925 -0.000812789 0)
(0.0981745 -0.000774343 0)
(0.0982531 -0.000737484 0)
(0.0983287 -0.000702056 0)
(0.0984016 -0.000667968 0)
(0.0984718 -0.000635165 0)
(0.0985395 -0.00060361 0)
(0.098605 -0.000573278 0)
(0.0986683 -0.000544146 0)
(0.0987295 -0.000516194 0)
(0.0987886 -0.000489398 0)
(0.0988458 -0.000463735 0)
(0.0989011 -0.000439177 0)
(0.0989546 -0.000415696 0)
(0.0990063 -0.000393263 0)
(0.0990562 -0.000371844 0)
(0.0991044 -0.000351408 0)
(0.0991509 -0.000331919 0)
(0.0991958 -0.000313345 0)
(0.0992391 -0.000295651 0)
(0.0992808 -0.000278804 0)
(0.099321 -0.00026277 0)
(0.0993597 -0.000247517 0)
(0.0993969 -0.000233012 0)
(0.0994327 -0.000219223 0)
(0.096194 -0.0024901 0)
(0.096304 -0.00237635 0)
(0.096411 -0.00226566 0)
(0.0965155 -0.00215702 0)
(0.0966182 -0.00204947 0)
(0.0967202 -0.00194225 0)
(0.0968224 -0.0018352 0)
(0.0969257 -0.0017289 0)
(0.0970307 -0.00162468 0)
(0.0971374 -0.00152437 0)
(0.0972453 -0.00142981 0)
(0.0973534 -0.00134241 0)
(0.0974605 -0.00126284 0)
(0.0975656 -0.00119099 0)
(0.0976677 -0.00112617 0)
(0.0977663 -0.00106736 0)
(0.0978609 -0.00101349 0)
(0.0979517 -0.00096356 0)
(0.0980386 -0.000916802 0)
(0.098122 -0.000872627 0)
(0.098202 -0.000830623 0)
(0.0982788 -0.000790508 0)
(0.0983528 -0.000752094 0)
(0.0984241 -0.000715254 0)
(0.0984929 -0.0006799 0)
(0.0985594 -0.000645969 0)
(0.0986236 -0.000613411 0)
(0.0986857 -0.000582187 0)
(0.0987457 -0.000552259 0)
(0.0988038 -0.000523593 0)
(0.09886 -0.000496155 0)
(0.0989143 -0.00046991 0)
(0.0989669 -0.000444824 0)
(0.0990177 -0.00042086 0)
(0.0990668 -0.000397982 0)
(0.0991142 -0.000376153 0)
(0.0991601 -0.000355336 0)
(0.0992043 -0.000335493 0)
(0.0992469 -0.000316589 0)
(0.0992881 -0.000298587 0)
(0.0993277 -0.000281451 0)
(0.0993659 -0.000265146 0)
(0.0994026 -0.000249639 0)
(0.0994379 -0.000234895 0)
(0.0963263 -0.00260384 0)
(0.0964297 -0.0024851 0)
(0.0965307 -0.00236983 0)
(0.0966298 -0.00225724 0)
(0.0967274 -0.00214654 0)
(0.0968243 -0.0020371 0)
(0.0969212 -0.00192867 0)
(0.0970189 -0.00182161 0)
(0.0971179 -0.00171688 0)
(0.0972181 -0.00161588 0)
(0.0973193 -0.00152009 0)
(0.0974207 -0.00143069 0)
(0.0975214 -0.00134833 0)
(0.0976206 -0.00127302 0)
(0.0977174 -0.00120427 0)
(0.0978114 -0.0011413 0)
(0.0979021 -0.00108323 0)
(0.0979895 -0.00102923 0)
(0.0980735 -0.000978611 0)
(0.0981543 -0.000930827 0)
(0.098232 -0.000885477 0)
(0.0983069 -0.000842272 0)
(0.098379 -0.000801 0)
(0.0984487 -0.00076151 0)
(0.0985159 -0.000723692 0)
(0.0985809 -0.000687458 0)
(0.0986437 -0.00065274 0)
(0.0987045 -0.000619482 0)
(0.0987634 -0.000587633 0)
(0.0988203 -0.000557146 0)
(0.0988754 -0.00052798 0)
(0.0989287 -0.000500092 0)
(0.0989803 -0.000473441 0)
(0.0990302 -0.000447985 0)
(0.0990784 -0.000423684 0)
(0.0991251 -0.000400496 0)
(0.0991701 -0.000378382 0)
(0.0992136 -0.0003573 0)
(0.0992556 -0.000337213 0)
(0.0992961 -0.000318081 0)
(0.0993351 -0.000299867 0)
(0.0993727 -0.000282532 0)
(0.0994089 -0.000266042 0)
(0.0994438 -0.000250361 0)
(0.0964609 -0.00271025 0)
(0.0965576 -0.00258731 0)
(0.0966525 -0.00246814 0)
(0.0967459 -0.00235212 0)
(0.0968382 -0.0022386 0)
(0.0969299 -0.00212703 0)
(0.0970216 -0.00201713 0)
(0.0971139 -0.0019091 0)
(0.097207 -0.00180362 0)
(0.0973011 -0.00170177 0)
(0.097396 -0.00160474 0)
(0.097491 -0.00151356 0)
(0.0975857 -0.00142879 0)
(0.0976791 -0.00135051 0)
(0.0977707 -0.0012784 0)
(0.09786 -0.00121182 0)
(0.0979466 -0.00115007 0)
(0.0980303 -0.00109243 0)
(0.0981112 -0.00103831 0)
(0.0981893 -0.000987208 0)
(0.0982645 -0.000938745 0)
(0.0983372 -0.000892632 0)
(0.0984073 -0.00084865 0)
(0.0984751 -0.000806632 0)
(0.0985407 -0.00076645 0)
(0.0986041 -0.000727999 0)
(0.0986654 -0.000691197 0)
(0.0987248 -0.000655972 0)
(0.0987824 -0.000622262 0)
(0.0988381 -0.000590012 0)
(0.098892 -0.00055917 0)
(0.0989442 -0.000529686 0)
(0.0989948 -0.000501515 0)
(0.0990437 -0.000474609 0)
(0.099091 -0.000448923 0)
(0.0991368 -0.000424413 0)
(0.099181 -0.000401035 0)
(0.0992238 -0.000378746 0)
(0.099265 -0.000357504 0)
(0.0993049 -0.000337269 0)
(0.0993433 -0.000318001 0)
(0.0993803 -0.00029966 0)
(0.099416 -0.000282209 0)
(0.0994503 -0.000265609 0)
(0.0965977 -0.00280918 0)
(0.0966874 -0.0026828 0)
(0.096776 -0.00256039 0)
(0.0968636 -0.00244147 0)
(0.0969504 -0.0023255 0)
(0.0970368 -0.00221198 0)
(0.0971232 -0.00210062 0)
(0.09721 -0.0019915 0)
(0.0972976 -0.00188512 0)
(0.0973859 -0.00178233 0)
(0.0974747 -0.00168409 0)
(0.0975638 -0.00159128 0)
(0.0976526 -0.00150441 0)
(0.0977404 -0.0014236 0)
(0.0978269 -0.00134859 0)
(0.0979115 -0.00127889 0)
(0.097994 -0.0012139 0)
(0.098074 -0.00115304 0)
(0.0981516 -0.00109576 0)
(0.0982267 -0.00104163 0)
(0.0982993 -0.000990292 0)
(0.0983696 -0.000941467 0)
(0.0984376 -0.000894936 0)
(0.0985034 -0.000850523 0)
(0.0985671 -0.000808089 0)
(0.0986288 -0.000767519 0)
(0.0986886 -0.000728717 0)
(0.0987465 -0.0006916 0)
(0.0988026 -0.000656098 0)
(0.098857 -0.000622146 0)
(0.0989097 -0.000589684 0)
(0.0989608 -0.000558658 0)
(0.0990103 -0.000529014 0)
(0.0990582 -0.000500703 0)
(0.0991045 -0.000473673 0)
(0.0991494 -0.000447879 0)
(0.0991928 -0.000423272 0)
(0.0992347 -0.000399808 0)
(0.0992752 -0.000377443 0)
(0.0993144 -0.000356133 0)
(0.0993521 -0.000335837 0)
(0.0993885 -0.000316514 0)
(0.0994236 -0.000298124 0)
(0.0994574 -0.000280627 0)
(0.0967365 -0.0029005 0)
(0.0968192 -0.00277138 0)
(0.0969013 -0.00264637 0)
(0.0969828 -0.00252508 0)
(0.0970639 -0.00240704 0)
(0.0971448 -0.00229181 0)
(0.0972258 -0.00217909 0)
(0.0973073 -0.00206889 0)
(0.0973893 -0.00196156 0)
(0.0974719 -0.0018578 0)
(0.0975551 -0.0017584 0)
(0.0976384 -0.00166412 0)
(0.0977216 -0.00157541 0)
(0.0978042 -0.0014924 0)
(0.0978856 -0.0014149 0)
(0.0979656 -0.00134249 0)
(0.0980439 -0.00127468 0)
(0.0981201 -0.00121096 0)
(0.0981943 -0.00115086 0)
(0.0982663 -0.00109398 0)
(0.0983362 -0.00104001 0)
(0.098404 -0.000988674 0)
(0.0984697 -0.000939763 0)
(0.0985334 -0.000893098 0)
(0.0985951 -0.000848535 0)
(0.098655 -0.000805951 0)
(0.0987131 -0.000765241 0)
(0.0987695 -0.000726316 0)
(0.0988241 -0.000689094 0)
(0.0988771 -0.000653506 0)
(0.0989285 -0.000619486 0)
(0.0989784 -0.000586972 0)
(0.0990267 -0.000555908 0)
(0.0990735 -0.000526238 0)
(0.0991189 -0.000497909 0)
(0.0991628 -0.000470871 0)
(0.0992053 -0.000445074 0)
(0.0992464 -0.00042047 0)
(0.0992861 -0.000397013 0)
(0.0993245 -0.000374658 0)
(0.0993616 -0.000353361 0)
(0.0993973 -0.000333081 0)
(0.0994318 -0.000313774 0)
(0.099465 -0.000295402 0)
(0.0968771 -0.00298412 0)
(0.0969527 -0.00285292 0)
(0.0970282 -0.00272591 0)