/*--------------------------------*- C++ -*----------------------------------*\
| =========                 |                                                 |
| \\      /  F ield         | OpenFOAM: The Open Source CFD Toolbox           |
|  \\    /   O peration     | Version:  2412                                  |
|   \\  /    A nd           | Website:  www.openfoam.com                      |
|    \\/     M anipulation  |                                                 |
\*---------------------------------------------------------------------------*/
FoamFile
{
    version     2.0;
    format      ascii;
    arch        "LSB;label=32;scalar=64";
    class       surfaceScalarField;
    location    "23.5";
    object      phi;
}
// * * * * * * * * * * * * * * * * * * * * * * * * * * * * * * * * * * * * * //

dimensions      [0 3 -1 0 0 0 0];

oriented        oriented;

internalField   nonuniform List<scalar> 
10422
(
0.00580633
-9.67485e-05
-0.00580213
9.25531e-05
0.00580988
-8.25591e-05
7.90104e-05
0.00581278
-6.81957e-05
6.52967e-05
0.00581502
-5.36816e-05
5.14404e-05
0.00581659
-3.90509e-05
3.74747e-05
0.0058175
-2.4345e-05
2.34376e-05
0.00581774
-9.60501e-06
9.367e-06
0.00581731
5.12914e-06
-4.69978e-06
0.00581622
1.98181e-05
-1.87261e-05
0.00581447
3.44232e-05
-3.26758e-05
0.00581208
4.89069e-05
-4.65141e-05
0.00580905
6.3233e-05
-6.0207e-05
0.00580541
7.73668e-05
-7.3722e-05
0.00580116
9.12752e-05
-8.70283e-05
0.00579633
0.000104927
-0.000100097
0.00579094
0.000118293
-0.0001129
0.005785
0.000131345
-0.000125412
0.00577855
0.00014406
-0.000137609
0.00577161
0.000156412
-0.00014947
0.0057642
0.000168381
-0.000160975
0.00575636
0.000179948
-0.000172104
0.00574811
0.000191094
-0.000182842
0.00573948
0.000201804
-0.000193173
0.000212066
-0.000203085
0.00582049
-0.000101172
-0.00581607
0.00582424
-8.63009e-05
0.00582729
-7.12473e-05
0.00582964
-5.6035e-05
0.00583129
-4.06989e-05
0.00583223
-2.52837e-05
0.00583246
-9.83377e-06
0.00583198
5.60791e-06
0.0058308
2.09991e-05
0.00582892
3.62984e-05
0.00582636
5.14654e-05
0.00582313
6.64615e-05
0.00581925
8.12493e-05
0.00581473
9.57936e-05
0.0058096
0.000110061
0.00580387
0.00012402
0.00579758
0.000137641
0.00579074
0.000150899
0.00578338
0.000163766
0.00577554
0.000176222
0.00576724
0.000188246
0.00575852
0.000199818
0.0057494
0.000210923
0.000221546
0.00583534
-0.000105843
-0.00583067
0.00583929
-9.02493e-05
0.0058425
-7.44627e-05
0.00584497
-5.85083e-05
0.0058467
-4.2423e-05
0.00584767
-2.62547e-05
0.00584789
-1.00512e-05
0.00584735
6.1411e-06
0.00584608
2.2277e-05
0.00584406
3.83119e-05
0.00584133
5.42028e-05
0.00583788
6.99079e-05
0.00583374
8.53874e-05
0.00582893
0.000100603
0.00582347
0.00011552
0.00581739
0.000130105
0.0058107
0.000144325
0.00580345
0.000158153
0.00579565
0.000171562
0.00578735
0.000184528
0.00577856
0.000197029
0.00576934
0.000209046
0.0057597
0.00022056
0.000231558
0.0058509
-0.00011078
-0.00584596
0.00585507
-9.44184e-05
0.00585846
-7.78526e-05
0.00586106
-6.11092e-05
0.00586287
-4.42274e-05
0.00586387
-2.72588e-05
0.00586407
-1.0255e-05
0.00586348
6.73435e-06
0.0058621
2.36604e-05
0.00585993
4.04755e-05
0.005857
5.71333e-05
0.00585332
7.35891e-05
0.00584891
8.98004e-05
0.00584378
0.000105727
0.00583798
0.000121329
0.00583151
0.000136573
0.00582441
0.000151424
0.00581671
0.000165853
0.00580844
0.00017983
0.00579964
0.00019333
0.00579034
0.000206331
0.00578057
0.00021881
0.00577038
0.00023075
0.000242136
0.00586723
-0.000116001
-0.00586201
0.00587163
-9.88229e-05
0.00587521
-8.14281e-05
0.00587795
-6.38451e-05
0.00587983
-4.6116e-05
0.00588087
-2.82964e-05
0.00588106
-1.04419e-05
0.0058804
7.39409e-06
0.0058789
2.51591e-05
0.00587657
4.28019e-05
0.00587343
6.02728e-05
0.0058695
7.75239e-05
0.00586479
9.45095e-05
0.00585933
0.000111186
0.00585315
0.000127513
0.00584627
0.000143453
0.00583872
0.000158969
0.00583055
0.000174028
0.00582178
0.000188602
0.00581244
0.000202662
0.00580259
0.000216184
0.00579225
0.000229146
0.00578148
0.000241529
0.000253317
0.00588437
-0.000121525
-0.00587885
0.00588903
-0.000103478
0.0058928
-8.52005e-05
0.00589568
-6.67237e-05
0.00589766
-4.80927e-05
0.00589873
-2.93675e-05
0.00589889
-1.06082e-05
0.00589816
8.12775e-06
0.00589654
2.6784e-05
0.00589403
4.53054e-05
0.00589067
6.36386e-05
0.00588646
8.17325e-05
0.00588143
9.95379e-05
0.00587561
0.000117009
0.00586902
0.000134101
0.0058617
0.000150774
0.00585368
0.000166989
0.00584499
0.000182713
0.00583568
0.000197913
0.00582578
0.00021256
0.00581534
0.000226627
0.00580439
0.000240093
0.00579299
0.000252936
0.000265141
0.00590239
-0.000127374
-0.00589654
0.00590731
-0.0001084
0.00591129
-8.91818e-05
0.00591432
-6.97526e-05
0.00591639
-5.01609e-05
0.00591749
-3.04715e-05
0.00591763
-1.07493e-05
0.00591681
8.94388e-06
0.00591505
2.85473e-05
0.00591235
4.80018e-05
0.00590874
6.72501e-05
0.00590424
8.62372e-05
0.00589887
0.000104911
0.00589265
0.000123221
0.00588563
0.000141122
0.00587784
0.000158569
0.0058693
0.000175522
0.00586007
0.000191944
0.00585018
0.000207801
0.00583968
0.000223063
0.00582861
0.000237701
0.00581701
0.000251691
0.00580493
0.000265013
0.000277648
0.00592132
-0.000133569
-0.00591513
0.00592653
-0.000113606
0.00593073
-9.33849e-05
0.00593392
-7.294e-05
0.00593608
-5.23241e-05
0.00593722
-3.16072e-05
0.00593733
-1.08595e-05
0.00593642
9.85233e-06
0.0059345
3.0463e-05
0.00593159
5.09088e-05
0.00592772
7.11285e-05
0.00592289
9.1063e-05
0.00591715
0.000110656
0.00591051
0.000129855
0.00590302
0.00014861
0.00589472
0.000166874
0.00588564
0.000184604
0.00587582
0.000201761
0.00586531
0.000218308
0.00585416
0.000234214
0.00584242
0.000249448
0.00583012
0.000263985
0.00581733
0.000277804
0.000290886
0.00594124
-0.000140135
-0.00593467
0.00594675
-0.000119116
0.00595119
-9.78229e-05
0.00595454
-7.62939e-05
0.0059568
-5.45851e-05
0.00595797
-3.27726e-05
0.00595804
-1.09321e-05
0.00595703
1.08645e-05
0.00595494
3.25468e-05
0.00595181
5.40465e-05
0.00594764
7.52976e-05
0.00594246
9.6237e-05
0.00593632
0.000116805
0.00592923
0.000136944
0.00592124
0.000156601
0.00591238
0.000175727
0.00590271
0.000194276
0.00589226
0.000212206
0.00588109
0.000229478
0.00586925
0.000246058
0.00585678
0.000261916
0.00584374
0.000277024
0.00583019
0.000291358
0.000304902
0.00596221
-0.000147096
-0.00595525
0.00596804
-0.000124948
0.00597273
-0.00010251
0.00597626
-7.98224e-05
0.00597862
-5.69466e-05
0.00597981
-3.39648e-05
0.00597984
-1.09589e-05
0.00597871
1.19935e-05
0.00597644
3.48166e-05
0.00597305
5.7437e-05
0.00596856
7.97838e-05
0.00596301
0.00010179
0.00595642
0.00012339
0.00594884
0.000144524
0.00594031
0.000165136
0.00593086
0.000185172
0.00592056
0.000204584
0.00590944
0.000223327
0.00589755
0.00024136
0.00588497
0.000258647
0.00587173
0.000275156
0.00585789
0.000290857
0.00584352
0.000305728
0.00031975
0.0059843
-0.000154481
-0.00597692
0.00599048
-0.000131123
0.00599543
-0.00010746
0.00599914
-8.35335e-05
0.0060016
-5.94103e-05
0.00600282
-3.51795e-05
0.00600279
-1.09299e-05
0.00600153
1.32547e-05
0.00599905
3.72929e-05
0.00599538
6.11056e-05
0.00599055
8.4617e-05
0.00598458
0.000107755
0.00597752
0.00013045
0.00596941
0.000152638
0.00596029
0.000174258
0.0059502
0.000195255
0.00593921
0.000215576
0.00592736
0.000235174
0.00591472
0.000254006
0.00590133
0.000272033
0.00588726
0.000289222
0.00587258
0.000305543
0.00585734
0.00032097
0.000335486
0.00600759
-0.000162318
-0.00599975
0.00601413
-0.000137664
0.00601936
-0.000112687
0.00602326
-8.74346e-05
0.00602582
-6.19767e-05
0.00602706
-3.64109e-05
0.00602696
-1.0833e-05
0.00602555
1.46662e-05
0.00602284
3.99992e-05
0.00601887
6.50811e-05
0.00601365
8.98305e-05
0.00600724
0.00011417
0.00599966
0.000138026
0.00599097
0.00016133
0.00598121
0.000184017
0.00597044
0.000206027
0.00595871
0.000227306
0.00594608
0.000247803
0.00593261
0.000267474
0.00591837
0.000286276
0.00590341
0.000304176
0.00588782
0.000321141
0.00587164
0.000337145
0.00035217
0.00603216
-0.000170638
-0.00602384
0.00603909
-0.000144592
0.00604461
-0.000118207
0.0060487
-9.15322e-05
0.00605137
-6.4645e-05
0.00605261
-3.76508e-05
0.00605243
-1.06534e-05
0.00605085
1.62492e-05
0.00604789
4.29627e-05
0.00604357
6.93961e-05
0.00603794
9.5462e-05
0.00603103
0.000121078
0.00602289
0.000146165
0.00601357
0.00017065
0.00600312
0.000194465
0.00599161
0.000217546
0.00597908
0.000239834
0.00596561
0.000261277
0.00595125
0.000281826
0.00593609
0.000301441
0.00592018
0.000320081
0.00590361
0.000337716
0.00588643
0.000354319
0.00036987
0.0060581
-0.000179471
-0.00604927
0.00606544
-0.00015193
0.00607127
-0.000124032
0.00607556
-9.58314e-05
0.00607833
-6.74119e-05
0.00607957
-3.88882e-05
0.00607929
-1.03726e-05
0.00607751
1.8029e-05
0.00607426
4.62152e-05
0.00606956
7.40881e-05
0.00606347
0.000101555
0.00605602
0.000128526
0.00604727
0.000154919
0.00603726
0.000180656
0.00602607
0.000205662
0.00601374
0.000229872
0.00600035
0.000253224
0.00598597
0.00027566
0.00597066
0.000297133
0.0059545
0.000317596
0.00593758
0.00033701
0.00591995
0.000355342
0.00590171
0.000372564
0.000388656
0.00608551
-0.000188852
-0.00607613
0.00609329
-0.0001597
0.00609943
-0.000130175
0.00610393
-0.000100335
0.00610679
-7.02712e-05
0.00610801
-4.01082e-05
0.00610761
-9.9678e-06
0.0061056
2.00359e-05
0.00610202
4.97937e-05
0.00609691
7.92008e-05
0.0060903
0.000108157
0.00608226
0.000136569
0.00607283
0.000164347
0.00606208
0.000191408
0.00605007
0.000217676
0.00603686
0.000243077
0.00602254
0.000267547
0.00600717
0.000291029
0.00599084
0.000313468
0.00597361
0.000334818
0.00595559
0.000355038
0.00593683
0.000374093
0.00591744
0.000391955
0.000408604
0.0061145
-0.000198814
-0.00610454
0.00612273
-0.000167924
0.0061292
-0.000136646
0.0061339
-0.000105043
0.00613685
-7.32125e-05
0.00613803
-4.12909e-05
0.00613747
-9.41007e-06
0.0061352
2.23069e-05
0.00613125
5.37428e-05
0.00612567
8.4785e-05
0.0061185
0.000115327
0.0061098
0.000145268
0.00609963
0.000174515
0.00608806
0.00020298
0.00607516
0.000230578
0.006061
0.000257236
0.00604566
0.000282884
0.00602923
0.000307462
0.00601178
0.000330914
0.00599341
0.000353191
0.00597419
0.00037425
0.00595423
0.000394055
0.00593361
0.000412577
0.000429796
0.00614518
-0.000209388
-0.0061346
0.00615387
-0.000176621
0.00616068
-0.000143452
0.00616559
-0.000109949
0.00616859
-7.62193e-05
0.00616971
-4.24095e-05
0.00616896
-8.66314e-06
0.00616638
2.4887e-05
0.00616201
5.8115e-05
0.0061559
9.09005e-05
0.00614809
0.00012313
0.00613867
0.000154696
0.00612768
0.0001855
0.00611521
0.000215448
0.00610134
0.000244453
0.00608614
0.000272435
0.0060697
0.000299322
0.00605211
0.000325051
0.00603346
0.000349562
0.00601385
0.000372806
0.00599336
0.000394736
0.0059721
0.000415317
0.00595016
0.000434519
0.000452321
0.00617766
-0.00616644
0.00618684
0.00619399
0.00619908
0.00620213
0.00620315
0.00620217
0.00619922
0.00619436
0.00618765
0.00617913
0.0061689
0.00615701
0.00614355
0.000228906
0.00612861
0.000259395
0.00611227
0.000288771
0.00609463
0.00031696
0.00607579
0.000343894
0.00605584
0.000369512
0.00603489
0.000393761
0.00601303
0.000416596
0.00599037
0.000437977
0.00596701
0.000457876
0.000476271
0.00617305
0.00615694
0.00613935
0.00612041
0.0061002
0.00607885
0.00605644
0.0060331
0.00600894
0.00598407
0.00545449
-0.000182198
-0.00544009
0.000167799
0.00548203
-0.000184944
0.000157395
0.00552247
-0.000187081
0.000146649
0.00557535
-0.000188469
0.000135585
0.0056401
-0.000188979
0.000124226
0.00571599
-0.000188485
0.000112598
-0.000186864
0.000100722
0.00546511
-0.000197044
-0.00545026
0.00549314
-0.000212973
0.00553408
-0.000228022
0.00558751
-0.000241895
0.00565283
-0.000254302
0.00572931
-0.00026497
-0.000273621
0.00547618
-0.000212368
-0.00546086
0.00550472
-0.00024151
0.0055462
-0.000269504
0.0056002
-0.000295892
0.00566613
-0.00032023
0.00574325
-0.000342089
-0.000361039
0.00548773
-0.000228199
-0.0054719
0.00551681
-0.000270588
0.00555886
-0.000311561
0.00561347
-0.0003505
0.00568004
-0.000386801
0.00575784
-0.000419886
-0.000449163
0.00549977
-0.000244573
-0.00548339
0.00552942
-0.000300244
0.00557209
-0.000354233
0.00562735
-0.000405757
0.00569461
-0.00045406
0.00577313
-0.000498405
-0.000538041
0.00551232
-0.000261527
-0.00549537
0.0055426
-0.000330519
0.00558592
-0.00039756
0.00564188
-0.00046171
0.00570987
-0.000522052
0.00578916
-0.000577697
-0.000627728
0.00552543
-0.000279103
-0.00550785
0.00555636
-0.000361454
0.00560039
-0.000441588
0.00565709
-0.000518406
0.00572586
-0.000590831
0.00580598
-0.000657817
-0.000718281
0.0055391
-0.000297345
-0.00552086
0.00557075
-0.000393098
0.00561553
-0.000486369
0.00567302
-0.000575897
0.00574264
-0.00066045
0.00582364
-0.000738825
-0.000809762
0.00555338
-0.000316302
-0.00553443
0.00558579
-0.0004255
0.00563137
-0.000531954
0.00568972
-0.000634241
0.00576024
-0.000730972
0.0058422
-0.000820783
-0.000902239
0.00556831
-0.000336027
-0.00554858
0.00560153
-0.000458717
0.00564797
-0.000578402
0.00570723
-0.0006935
0.00577872
-0.000802461
0.0058617
-0.000903763
-0.000995786
0.00558391
-0.000356576
-0.00556336
0.005618
-0.000492809
0.00566538
-0.000625777
0.00572562
-0.00075374
0.00579814
-0.000874988
0.00588222
-0.000987838
-0.00109048
0.00560023
-0.000378012
-0.0055788
0.00563526
-0.00052784
0.00568363
-0.000674147
0.00574493
-0.000815033
0.00581857
-0.00094863
0.00590382
-0.00107309
-0.00118641
0.00561731
-0.000400402
-0.00559492
0.00565336
-0.000563882
0.0057028
-0.000723587
0.00576522
-0.000877459
0.00584006
-0.00102347
0.00592658
-0.00115961
-0.00128367
0.00563521
-0.000423822
-0.00561179
0.00567234
-0.000601013
0.00572293
-0.000774178
0.00578657
-0.000941102
0.0058627
-0.0010996
0.00595058
-0.00124749
-0.00138236
0.00565396
-0.000448351
-0.00562943
0.00569226
-0.000639315
0.00574409
-0.000826008
0.00580905
-0.00100606
0.00588656
-0.00117711
0.00597591
-0.00133684
-0.00148259
0.00567363
-0.000474079
-0.0056479
0.0057132
-0.000678883
0.00576636
-0.000879174
0.00583273
-0.00107242
0.00591174
-0.00125612
0.00600266
-0.00142776
-0.00158447
0.00569427
-0.000501102
-0.00566725
0.00573521
-0.000719816
0.00578981
-0.000933781
0.0058577
-0.00114031
0.00593832
-0.00133674
0.00603094
-0.00152038
-0.00168813
0.00571596
-0.000529528
-0.00568754
0.00575837
-0.000762224
0.00581453
-0.000989943
0.00588406
-0.00120984
0.00596642
-0.00141909
0.00606086
-0.00161483
-0.0017937
0.00573876
-0.000559471
-0.00570882
0.00578277
-0.00080623
0.00584061
0.00591192
0.00599614
0.00609255
0.00576275
-0.00573116
0.00562428
-0.000158
-0.00569578
0.000229504
0.00556328
-0.000160978
0.000221976
0.00551363
-0.000164353
0.000214003
0.00547602
-0.000167984
0.000205593
0.005451
-0.000171729
0.000196753
0.00543894
-0.000175443
0.000187496
-0.000178982
0.000177839
0.00563243
-8.6709e-05
-0.00570372
0.00557169
-0.000100234
0.00552232
-0.000114992
0.00548504
-0.000130699
0.00546037
-0.00014706
0.0054487
-0.000163776
-0.000180541
0.00564086
-1.56533e-05
-0.00571191
0.00558039
-3.97646e-05
0.00553134
-6.59424e-05
0.0054944
-9.37593e-05
0.00547011
-0.000122771
0.00545886
-0.000152522
-0.000182546
0.00564957
5.514e-05
-0.00572036
0.0055894
2.04077e-05
0.00554068
-1.72274e-05
0.00550411
-5.71919e-05
0.00548023
-9.8889e-05
0.00546942
-0.000141709
-0.000185025
0.00565856
0.000125651
-0.00572907
0.00559871
8.02549e-05
0.00555036
3.11236e-05
0.00551419
-2.10233e-05
0.00549075
-7.54435e-05
0.00548041
-0.000131368
-0.000188011
0.00566784
0.000195852
-0.00573804
0.00560835
0.000139752
0.00556039
7.9082e-05
0.00552465
1.47138e-05
0.00550167
-5.24671e-05
0.00549184
-0.000121534
-0.000191541
0.00567742
0.000265716
-0.00574729
0.0056183
0.000198868
0.00557077
0.000126617
0.0055355
4.9983e-05
0.00551303
-2.99937e-05
0.00550374
-0.000112244
-0.000195654
0.0056873
0.000335213
-0.0057568
0.0056286
0.000257572
0.00558152
0.000173694
0.00554676
8.47494e-05
0.00552483
-8.06139e-06
0.00551612
-0.000103539
-0.000200392
0.0056975
0.000404308
-0.00576659
0.00563924
0.000315826
0.00559266
0.000220275
0.00555844
0.000118977
0.0055371
1.32783e-05
0.00552902
-9.54614e-05
-0.000205801
0.00570801
0.000472963
-0.00577666
0.00565024
0.000373591
0.0056042
0.000266317
0.00557056
0.000152617
0.00554985
3.39857e-05
0.00554245
-8.80605e-05
-0.000211932
0.00571885
0.000541136
-0.00578702
0.00566161
0.000430823
0.00561616
0.000311774
0.00558315
0.000185623
0.00556313
5.40121e-05
0.00555645
-8.13891e-05
-0.000218839
0.00573002
0.000608781
-0.00579766
0.00567337
0.000487473
0.00562854
0.000356595
0.00559623
0.000217942
0.00557694
7.33018e-05
0.00557105
-7.55042e-05
-0.000226583
0.00574152
0.000675845
-0.00580859
0.00568551
0.000543487
0.00564138
0.000400724
0.00560981
0.000249514
0.00559131
9.1794e-05
0.00558628
-7.04685e-05
-0.000235227
0.00575337
0.000742269
-0.00581979
0.00569805
0.000598804
0.00565468
0.000444099
0.00562392
0.000280276
0.00560629
0.000109422
0.00560217
-6.63504e-05
-0.000244845
0.00576556
0.000807989
-0.00583128
0.00571101
0.000653359
0.00566846
0.00048665
0.00563858
0.000310157
0.00562189
0.000126113
0.00561876
-6.32255e-05
-0.000255512
0.00577811
0.000872931
-0.00584305
0.00572439
0.000707074
0.00568274
0.000528301
0.00565382
0.000339078
0.00563815
0.000141785
0.0056361
-6.11767e-05
-0.000267315
0.005791
0.000937012
-0.00585508
0.0057382
0.000759869
0.00569754
0.000568967
0.00566966
0.000366951
0.0056551
0.000156351
0.00565422
-6.0295e-05
-0.000280349
0.00580423
0.00100014
-0.00586736
0.00575246
0.000811646
0.00571287
0.000608552
0.00568614
0.00039368
0.00567278
0.00016971
0.00567317
-6.06823e-05
-0.000294715
0.00581781
0.00576715
0.00572876
0.00570328
0.00569124
0.005693
-6.245e-05
-0.000310529
0.00571377
0.00537823
-0.000263964
0.000258105
0.00538435
-0.000268012
0.000261897
0.00539072
-0.000271986
0.000265612
0.00539736
-0.000275872
0.000269232
0.00540427
-0.000279652
0.000272744
0.00541145
-0.000283311
0.000276133
0.0054189
-0.000286834
0.000279382
0.00542663
-0.000290202
0.000282476
0.00543463
-0.000293399
0.000285397
0.0054429
-0.000296405
0.00028813
0.00545145
-0.000299202
0.000290654
0.00546027
-0.000301769
0.000292953
0.00546935
-0.000304087
0.000295006
0.00547869
-0.000306133
0.000296794
0.00548828
-0.000307888
0.000298297
0.00549811
-0.000309328
0.000299496
0.00550817
-0.000310433
0.00030037
0.00551846
-0.000311181
0.000300898
0.00552894
-0.000311549
0.000301061
0.00553962
-0.000311515
0.000300839
0.00555047
-0.000311059
0.000300212
0.00556147
-0.00031016
0.000299161
0.00557259
-0.000308797
0.000297668
0.00558383
-0.000306952
0.000295716
0.00559515
-0.000304606
0.000293288
0.00560652
-0.000301744
0.00029037
0.00561792
-0.000298349
0.000286948
0.00562932
-0.000294409
0.00028301
0.00564069
-0.000289911
0.000278546
0.00565199
-0.000284847
0.000273549
0.00566318
-0.000279209
0.00026801
0.00567425
-0.000272989
0.000261926
0.00568513
-0.000266177
0.000255291
-0.000258744
0.000248095
0.00537413
-0.00026989
0.00538032
-0.000274206
0.00538679
-0.000278455
0.00539354
-0.00028262
0.00540057
-0.000286684
0.00540789
-0.000290631
0.0054155
-0.000294444
0.0054234
-0.000298104
0.00543159
-0.000301594
0.00544008
-0.000304894
0.00544886
-0.000307982
0.00545793
-0.000310839
0.00546729
-0.000313442
0.00547692
-0.000315768
0.00548683
-0.000317795
0.005497
-0.0003195
0.00550743
-0.000320858
0.00551809
-0.000321846
0.00552898
-0.00032244
0.00554008
-0.000322616
0.00555138
-0.000322352
0.00556284
-0.000321624
0.00557445
-0.00032041
0.00558619
-0.000318689
0.00559803
-0.000316442
0.00560993
-0.00031365
0.00562188
-0.000310296
0.00563383
-0.000306364
0.00564576
-0.000301842
0.00565764
-0.000296719
0.00566941
-0.000290984
0.00568105
-0.000284629
0.00569251
-0.000277636
-0.000269954
0.00536976
-0.000275876
0.00537603
-0.000280474
0.00538259
-0.000285012
0.00538944
-0.000289472
0.00539659
-0.000293836
0.00540405
-0.000298087
0.00541181
-0.000302209
0.00541989
-0.000306181
0.00542828
-0.000309984
0.00543698
-0.000313597
0.005446
-0.000316998
0.00545532
-0.000320166
0.00546496
-0.000323076
0.00547489
-0.000325705
0.00548513
-0.000328028
0.00549565
-0.00033002
0.00550644
-0.000331654
0.00551751
-0.000332907
0.00552882
-0.00033375
0.00554036
-0.00033416
0.00555212
-0.000334109
0.00556407
-0.000333574
0.00557619
-0.00033253
0.00558845
-0.000330954
0.00560083
-0.000328824
0.0056133
-0.000326118
0.00562583
-0.000322819
0.00563837
-0.000318909
0.0056509
-0.000314373
0.00566338
-0.000309198
0.00567577
-0.000303373
0.00568803
-0.000296885
0.0057001
-0.00028971
-0.000281769
0.00536513
-0.000281915
0.00537146
-0.00028681
0.0053781
-0.000291652
0.00538505
-0.000296422
0.00539232
-0.000301103
0.00539991
-0.000305677
0.00540782
-0.000310126
0.00541607
-0.000314429
0.00542465
-0.000318565
0.00543357
-0.000322514
0.00544283
-0.000326251
0.00545241
-0.000329753
0.00546233
-0.000332995
0.00547258
-0.000335951
0.00548314
-0.000338595
0.00549402
-0.000340899
0.0055052
-0.000342836
0.00551667
-0.000344378
0.00552842
-0.000345496
0.00554043
-0.000346164
0.00555267
-0.000346352
0.00556513
-0.000346034
0.00557778
-0.000345183
0.0055906
-0.000343773
0.00560356
-0.00034178
0.00561662
-0.00033918
0.00562975
-0.000335953
0.00564292
-0.000332079
0.00565609
-0.000327541
0.00566922
-0.000322325
0.00568226
-0.000316416
0.00569517
-0.000309798
0.0057079
-0.000302439
-0.000294231
0.0053602
-0.000288
0.0053666
-0.000293206
0.00537331
-0.000298366
0.00538036
-0.000303464
0.00538773
-0.00030848
0.00539545
-0.000313395
0.00540352
-0.000318191
0.00541193
-0.000322846
0.00542071
-0.000327338
0.00542984
-0.000331645
0.00543933
-0.000335742
0.00544918
-0.000339603
0.00545938
-0.000343202
0.00546994
-0.000346511
0.00548085
-0.000349503
0.0054921
-0.000352147
0.00550368
-0.000354414
0.00551557
-0.000356273
0.00552777
-0.000357695
0.00554026
-0.000358648
0.00555301
-0.000359102
0.005566
-0.000359028
0.00557921
-0.000358395
0.00559261
-0.000357175
0.00560618
-0.000355342
0.00561986
-0.000352869
0.00563364
-0.000349732
0.00564748
-0.000345911
0.00566132
-0.000341386
0.00567514
-0.000336139
0.00568887
-0.000330154
0.00570249
-0.000323411
0.00571592
-0.000315868
-0.000307385
0.00535498
-0.000294121
0.00536143
-0.000299652
0.00536821
-0.000305148
0.00537534
-0.00031059
0.00538281
-0.000315959
0.00539065
-0.000321235
0.00539886
-0.000326399
0.00540744
-0.000331428
0.00541641
-0.000336299
0.00542575
-0.000340989
0.00543548
-0.00034547
0.00544559
-0.000349717
0.00545609
-0.0003537
0.00546697
-0.000357391
0.00547823
-0.000360759
0.00548985
-0.000363773
0.00550184
-0.0003664
0.00551417
-0.000368607
0.00552684
-0.000370362
0.00553982
-0.000371632
0.0055531
-0.000372382
0.00556665
-0.00037258
0.00558045
-0.000372193
0.00559447
-0.000371191
0.00560867
-0.000369542
0.00562302
-0.00036722
0.00563748
-0.000364196
0.00565202
-0.000360446
0.00566658
-0.000355949
0.00568113
-0.000350685
0.00569561
-0.000344634
0.00570997
-0.000337772
0.00572415
-0.000330046
-0.000321282
0.00534944
-0.000300268
0.00535593
-0.00030614
0.00536277
-0.000311988
0.00536997
-0.000317792
0.00537754
-0.000323533
0.0053855
-0.00032919
0.00539384
-0.000334743
0.00540258
-0.000340169
0.00541173
-0.000345444
0.00542128
-0.000350542
0.00543125
-0.000355435
0.00544163
-0.000360096
0.00545242
-0.000364493
0.00546362
-0.000368596
0.00547524
-0.000372372
0.00548725
-0.000375787
0.00549966
-0.000378806
0.00551244
-0.000381394
0.0055256
-0.000383516
0.0055391
-0.000385134
0.00555293
-0.000386212
0.00556706
-0.000386715
0.00558148
-0.000386606
0.00559614
-0.000385851
0.00561101
-0.000384416
0.00562606
-0.00038227
0.00564125
-0.000379383
0.00565653
-0.000375727
0.00567186
-0.000371277
0.00568718
-0.000366011
0.00570246
-0.000359906
0.00571762
-0.000352932
0.0057326
-0.000345026
-0.000335973
0.00534357
-0.00030643
0.00535008
-0.000312658
0.00535697
-0.000318875
0.00536424
-0.000325059
0.0053719
-0.000331192
0.00537996
-0.000337252
0.00538843
-0.000343217
0.00539733
-0.000349064
0.00540665
-0.000354768
0.00541641
-0.000360301
0.00542661
-0.000365635
0.00543725
-0.000370739
0.00544834
-0.000375581
0.00545987
-0.000380128
0.00547185
-0.000384345
0.00548426
-0.000388196
0.00549709
-0.000391644
0.00551035
-0.000394649
0.005524
-0.000397173
0.00553805
-0.000399176
0.00555245
-0.000400618
0.0055672
-0.000401461
0.00558226
-0.000401664
0.00559759
-0.00040119
0.00561318
-0.0004
0.00562897
-0.000398061
0.00564492
-0.000395337
0.005661
-0.000391799
0.00567714
-0.000387418
0.00569329
-0.000382167
0.00570941
-0.000376022
0.00572542
-0.000368946
0.00574126
-0.000360862
-0.000351515
0.00533734
-0.000312594
0.00534388
-0.000319194
0.0053508
-0.000325797
0.00535812
-0.000332381
0.00536585
-0.000338925
0.00537401
-0.000345409
0.0053826
-0.000351811
0.00539164
-0.000358104
0.00540114
-0.000364264
0.0054111
-0.000370261
0.00542153
-0.000376065
0.00543244
-0.000381645
0.00544382
-0.000386965
0.00545568
-0.000391992
0.00546802
-0.000396686
0.00548084
-0.00040101
0.00549412
-0.000404923
0.00550785
-0.000408384
0.00552203
-0.000411349
0.00553663
-0.000413777
0.00555164
-0.000415624
0.00556702
-0.000416845
0.00558276
-0.000417399
0.00559881
-0.000417242
0.00561514
-0.000416333
0.00563171
-0.000414633
0.00564848
-0.000412104
0.00566539
-0.000408712
0.0056824
-0.000404423
0.00569944
-0.000399209
0.00571646
-0.000393039
0.00573338
-0.000385873
0.00575014
-0.000377617
-0.000367969
0.00533075
-0.000318745
0.00533729
-0.000325735
0.00534423
-0.00033274
0.00535159
-0.000339743
0.00535939
-0.000346721
0.00536763
-0.000353652
0.00537633
-0.000360514
0.00538551
-0.00036728
0.00539517
-0.000373924
0.00540532
-0.000380415
0.00541598
-0.000386721
0.00542715
-0.00039281
0.00543883
-0.000398645
0.00545102
-0.000404187
0.00546373
-0.000409398
0.00547696
-0.000414235
0.00549069
-0.000418655
0.00550492
-0.000422613
0.00551963
-0.000426063
0.00553481
-0.000428959
0.00555044
-0.000431252
0.00556649
-0.000432896
0.00558294
-0.000433842
0.00559974
-0.000434044
0.00561686
-0.000433455
0.00563426
-0.000432032
0.00565189
-0.000429733
0.00566969
-0.000426517
0.00568762
-0.00042235
0.00570561
-0.000417196
0.00572359
-0.000411021
0.00574149
-0.000403777
0.00575923
-0.000395356
-0.000385402
0.00532377
-0.00032487
0.0053303
-0.000332263
0.00533725
-0.000339691
0.00534464
-0.000347132
0.00535248
-0.000354564
0.0053608
-0.000361966
0.0053696
-0.000369313
0.0053789
-0.00037658
0.00538871
-0.000383737
0.00539905
-0.000390754
0.00540992
-0.000397597
0.00542134
-0.000404231
0.00543332
-0.000410617
0.00544584
-0.000416715
0.00545893
-0.000422483
0.00547257
-0.000427876
0.00548676
-0.000432848
0.0055015
-0.000437349
0.00551677
-0.000441331
0.00553255
-0.000444742
0.00554883
-0.00044753
0.00556558
-0.000449643
0.00558276
-0.000451028
0.00560035
-0.000451634
0.0056183
-0.000451409
0.00563658
-0.000450305
0.00565512
-0.000448274
0.00567387
-0.000445272
0.00569278
-0.000441257
0.00571178
-0.000436191
0.00573079
-0.000430034
0.00574974
-0.000422729
0.00576854
-0.000414151
-0.000403886
0.00531639
-0.000330949
0.00532289
-0.000338764
0.00532983
-0.000346631
0.00533723
-0.00035453
0.00534511
-0.000362439
0.00535348
-0.000370336
0.00536236
-0.000378196
0.00537177
-0.000385991
0.00538172
-0.000393693
0.00539224
-0.000401268
0.00540332
-0.000408683
0.00541499
-0.000415899
0.00542725
-0.000422877
0.00544011
-0.000429574
0.00545357
-0.000435944
0.00546764
-0.000441939
0.0054823
-0.00044751
0.00549755
-0.000452605
0.00551339
-0.000457168
0.00552979
-0.000461146
0.00554675
-0.000464481
0.00556422
-0.000467115
0.00558218
-0.000468991
0.0056006
-0.000470052
0.00561943
-0.00047024
0.00563863
-0.000469502
0.00565814
-0.000467784
0.0056779
-0.000465035
0.00569785
-0.00046121
0.00571793
-0.000456264
0.00573804
-0.00045015
0.00575812
-0.000442804
0.00577805
-0.00043408
-0.000423501
0.00530859
-0.000336966
0.00531505
-0.000345218
0.00532196
-0.000353543
0.00532935
-0.00036192
0.00533724
-0.000370328
0.00534565
-0.000378744
0.00535459
-0.000387143
0.0053641
-0.000395497
0.00537418
-0.000403775
0.00538486
-0.000411945
0.00539614
-0.000419968
0.00540805
-0.000427807
0.00542059
-0.000435419
0.00543378
-0.000442759
0.00544761
-0.000449778
0.0054621
-0.000456426
0.00547724
-0.000462649
0.00549303
-0.00046839
0.00550945
-0.000473591
0.00552649
-0.000478192
0.00554414
-0.00048213
0.00556237
-0.000485343
0.00558115
-0.000487767
0.00560043
-0.000489339
0.00562019
-0.000489996
0.00564036
-0.000489676
0.0056609
-0.00048832
0.00568174
-0.000485872
0.0057028
-0.000482278
0.00572403
-0.000477487
0.00574533
-0.000471447
0.00576661
-0.000464084
0.00578775
-0.000455229
-0.000444333
0.00530036
-0.000342899
0.00530675
-0.000351604
0.00531361
-0.000360405
0.00532097
-0.000369281
0.00532885
-0.000378211
0.00533728
-0.000387172
0.00534627
-0.000396138
0.00535586
-0.00040508
0.00536605
-0.000413968
0.00537687
-0.000422767
0.00538834
-0.000431439
0.00540048
-0.000439943
0.00541329
-0.000448234
0.0054268
-0.000456265
0.00544101
-0.000463984
0.00545592
-0.000471338
0.00547154
-0.000478268
0.00548786
-0.000484714
0.00550488
-0.000490612
0.00552259
-0.000495898
0.00554096
-0.000500503
0.00555998
-0.000504358
0.0055796
-0.000507394
0.0055998
-0.00050954
0.00562053
-0.000510726
0.00564174
-0.000510883
0.00566337
-0.000509946
0.00568534
-0.000507849
0.0057076
-0.000504534
0.00573005
-0.000499942
0.00575262
-0.000494011
0.00577519
-0.000486658
0.00579765
-0.000477689
-0.000466475
0.00529167
-0.000348725
0.00529797
-0.0003579
0.00530476
-0.000367194
0.00531207
-0.00037659
0.00531992
-0.000386065
0.00532835
-0.000395596
0.00533737
-0.000405157
0.00534701
-0.00041472
0.00535729
-0.000424252
0.00536824
-0.000433718
0.00537988
-0.000443079
0.00539223
-0.000452292
0.0054053
-0.00046131
0.00541912
-0.000470083
0.00543369
-0.000478556
0.00544903
-0.000486673
0.00546513
-0.00049437
0.005482
-0.000501584
0.00549963
-0.000508245
0.00551802
-0.000514283
0.00553714
-0.000519623
0.00555697
-0.000524191
0.00557749
-0.000527908
0.00559864
-0.000530697
0.0056204
-0.00053248
0.0056427
-0.000533182
0.00566548
-0.000532726
0.00568867
-0.000531042
0.0057122
-0.000528059
0.00573597
-0.000523713
0.00575989
-0.000517934
0.00578385
-0.000510623
0.00580773
-0.000501561
-0.000490032
0.00528252
-0.000354422
0.0052887
-0.00036408
0.00529539
-0.000373886
0.00530263
-0.000383821
0.00531042
-0.000393864
0.00531882
-0.000403991
0.00532784
-0.000414176
0.00533751