/*--------------------------------*- C++ -*----------------------------------*\
| =========                 |                                                 |
| \\      /  F ield         | OpenFOAM: The Open Source CFD Toolbox           |
|  \\    /   O peration     | Version:  2412                                  |
|   \\  /    A nd           | Website:  www.openfoam.com                      |
|    \\/     M anipulation  |                                                 |
\*---------------------------------------------------------------------------*/
FoamFile
{
    version     2.0;
    format      ascii;
    arch        "LSB;label=32;scalar=64";
    class       volVectorField;
    location    "23.5";
    object      U;
}
// * * * * * * * * * * * * * * * * * * * * * * * * * * * * * * * * * * * * * //

dimensions      [0 1 -1 0 0 0 0];

internalField   nonuniform List<vector> 
5285
(
(0.109664 -0.00178715 0)
(0.109737 -0.00152536 0)
(0.109798 -0.00126031 0)
(0.109847 -0.000992482 0)
(0.109883 -0.000722527 0)
(0.109906 -0.000451187 0)
(0.109917 -0.000179209 0)
(0.109915 9.26792e-05 0)
(0.109901 0.000363759 0)
(0.109874 0.000633328 0)
(0.109835 0.000900701 0)
(0.109783 0.00116522 0)
(0.10972 0.00142624 0)
(0.109646 0.00168317 0)
(0.10956 0.00193544 0)
(0.109463 0.0021825 0)
(0.109356 0.00242387 0)
(0.109239 0.00265908 0)
(0.109112 0.0028877 0)
(0.108977 0.00310934 0)
(0.108833 0.00332365 0)
(0.10868 0.0035303 0)
(0.108521 0.003729 0)
(0.108354 0.00391951 0)
(0.10993 -0.00186851 0)
(0.110007 -0.00159417 0)
(0.110071 -0.00131647 0)
(0.110122 -0.00103585 0)
(0.11016 -0.000752963 0)
(0.110184 -0.00046862 0)
(0.110195 -0.000183626 0)
(0.110193 0.000101236 0)
(0.110177 0.000385197 0)
(0.110148 0.000667501 0)
(0.110106 0.000947415 0)
(0.110052 0.00122423 0)
(0.109984 0.00149727 0)
(0.109905 0.00176588 0)
(0.109814 0.00202946 0)
(0.109711 0.00228744 0)
(0.109597 0.00253928 0)
(0.109473 0.00278449 0)
(0.109339 0.00302262 0)
(0.109195 0.00325324 0)
(0.109043 0.00347599 0)
(0.108882 0.00369052 0)
(0.108713 0.00389653 0)
(0.108537 0.00409375 0)
(0.110208 -0.00195433 0)
(0.11029 -0.00166674 0)
(0.110357 -0.00137561 0)
(0.110411 -0.0010814 0)
(0.11045 -0.000784794 0)
(0.110476 -0.000486652 0)
(0.110487 -0.000187849 0)
(0.110484 0.000110774 0)
(0.110467 0.000408389 0)
(0.110436 0.000704187 0)
(0.110391 0.00099738 0)
(0.110332 0.00128721 0)
(0.110261 0.00157295 0)
(0.110176 0.00185391 0)
(0.110079 0.00212943 0)
(0.10997 0.00239891 0)
(0.109849 0.00266177 0)
(0.109717 0.0029175 0)
(0.109575 0.0031656 0)
(0.109423 0.00340564 0)
(0.109261 0.00363721 0)
(0.109091 0.00385995 0)
(0.108912 0.00407355 0)
(0.108727 0.00427773 0)
(0.1105 -0.00204499 0)
(0.110587 -0.00174335 0)
(0.110657 -0.00143795 0)
(0.110714 -0.0011293 0)
(0.110755 -0.000818102 0)
(0.110782 -0.000505301 0)
(0.110793 -0.000191835 0)
(0.11079 0.000121391 0)
(0.110771 0.000433491 0)
(0.110737 0.000743594 0)
(0.110689 0.00105086 0)
(0.110627 0.00135446 0)
(0.11055 0.00165364 0)
(0.11046 0.00194764 0)
(0.110356 0.00223577 0)
(0.11024 0.00251737 0)
(0.110112 0.00279185 0)
(0.109972 0.00305863 0)
(0.109821 0.0033172 0)
(0.10966 0.0035671 0)
(0.109489 0.00380789 0)
(0.109308 0.0040392 0)
(0.10912 0.00426068 0)
(0.108923 0.00447207 0)
(0.110807 -0.00214086 0)
(0.110898 -0.00182426 0)
(0.110972 -0.00150369 0)
(0.111032 -0.00117967 0)
(0.111075 -0.000852964 0)
(0.111103 -0.000524582 0)
(0.111115 -0.000195536 0)
(0.11111 0.000133201 0)
(0.11109 0.000460674 0)
(0.111053 0.000785951 0)
(0.111002 0.00110812 0)
(0.110935 0.00142632 0)
(0.110853 0.00173971 0)
(0.110757 0.0020475 0)
(0.110647 0.00234894 0)
(0.110523 0.00264333 0)
(0.110387 0.00293003 0)
(0.110238 0.00320844 0)
(0.110078 0.00347801 0)
(0.109907 0.00373824 0)
(0.109725 0.00398867 0)
(0.109534 0.00422891 0)
(0.109335 0.00445859 0)
(0.109127 0.00467744 0)
(0.111128 -0.00224227 0)
(0.111225 -0.00190976 0)
(0.111303 -0.00157304 0)
(0.111365 -0.00123267 0)
(0.111412 -0.000889454 0)
(0.11144 -0.000544498 0)
(0.111452 -0.000198887 0)
(0.111447 0.000146332 0)
(0.111424 0.000490132 0)
(0.111385 0.000831511 0)
(0.11133 0.0011695 0)
(0.111258 0.00150315 0)
(0.111171 0.00183159 0)
(0.111068 0.00215395 0)
(0.110951 0.00246945 0)
(0.110819 0.00277733 0)
(0.110674 0.00307691 0)
(0.110516 0.00336755 0)
(0.110346 0.00364866 0)
(0.110164 0.00391971 0)
(0.109972 0.00418022 0)
(0.10977 0.00442977 0)
(0.109558 0.00466799 0)
(0.109339 0.00489457 0)
(0.111466 -0.0023496 0)
(0.111568 -0.00200014 0)
(0.11165 -0.00164622 0)
(0.111716 -0.00128843 0)
(0.111765 -0.000927642 0)
(0.111795 -0.000565043 0)
(0.111807 -0.000201808 0)
(0.1118 0.000160935 0)
(0.111776 0.000522083 0)
(0.111733 0.000880558 0)
(0.111674 0.00123532 0)
(0.111597 0.00158536 0)
(0.111504 0.00192972 0)
(0.111394 0.0022675 0)
(0.111269 0.00259785 0)
(0.111129 0.00291997 0)
(0.110974 0.00323312 0)
(0.110806 0.00353662 0)
(0.110626 0.00382985 0)
(0.110433 0.00411224 0)
(0.110229 0.00438329 0)
(0.110014 0.00464255 0)
(0.10979 0.00488962 0)
(0.109558 0.00512421 0)
(0.111821 -0.00246325 0)
(0.11193 -0.00209573 0)
(0.112016 -0.00172347 0)
(0.112085 -0.00134711 0)
(0.112136 -0.000967591 0)
(0.112168 -0.000586201 0)
(0.112179 -0.000204204 0)
(0.112172 0.000177183 0)
(0.112145 0.000556774 0)
(0.112099 0.000933409 0)
(0.112035 0.00130597 0)
(0.111953 0.00167338 0)
(0.111853 0.00203462 0)
(0.111736 0.00238871 0)
(0.111602 0.00273475 0)
(0.111453 0.00307189 0)
(0.111288 0.00339933 0)
(0.11111 0.00371636 0)
(0.110917 0.00402231 0)
(0.110713 0.00431659 0)
(0.110496 0.00459866 0)
(0.110269 0.00486803 0)
(0.110031 0.00512432 0)
(0.109785 0.00536719 0)
(0.112195 -0.00258367 0)
(0.11231 -0.00219686 0)
(0.112401 -0.00180502 0)
(0.112474 -0.00140885 0)
(0.112527 -0.00100936 0)
(0.11256 -0.000607941 0)
(0.112571 -0.000205958 0)
(0.112562 0.000195276 0)
(0.112533 0.000594483 0)
(0.112484 0.000990418 0)
(0.112414 0.00138188 0)
(0.112326 0.00176771 0)
(0.112219 0.00214683 0)
(0.112094 0.00251818 0)
(0.111951 0.00288081 0)
(0.111792 0.00323379 0)
(0.111617 0.0035763 0)
(0.111426 0.00390756 0)
(0.111222 0.00422687 0)
(0.111004 0.0045336 0)
(0.110774 0.00482718 0)
(0.110533 0.00510711 0)
(0.110282 0.00537297 0)
(0.110021 0.00562441 0)
(0.112588 -0.00271132 0)
(0.11271 -0.00230389 0)
(0.112805 -0.00189115 0)
(0.112883 -0.00147382 0)
(0.112939 -0.00105301 0)
(0.112972 -0.00063022 0)
(0.112984 -0.000206931 0)
(0.112973 0.000215444 0)
(0.112941 0.000635528 0)
(0.112888 0.00105198 0)
(0.112813 0.00146352 0)
(0.112718 0.0018689 0)
(0.112603 0.00226696 0)
(0.112469 0.00265658 0)
(0.112317 0.00303673 0)
(0.112147 0.00340644 0)
(0.11196 0.00376482 0)
(0.111757 0.00411106 0)
(0.11154 0.00444439 0)
(0.111308 0.00476417 0)
(0.111064 0.00506978 0)
(0.110808 0.0053607 0)
(0.110541 0.0056365 0)
(0.110265 0.00589682 0)
(0.113002 -0.0028467 0)
(0.113132 -0.00241721 0)
(0.113232 -0.00198211 0)
(0.113314 -0.00154216 0)
(0.113372 -0.00109858 0)
(0.113407 -0.000652971 0)
(0.113418 -0.000206952 0)
(0.113406 0.000237955 0)
(0.113371 0.000680268 0)
(0.113313 0.00111855 0)
(0.113232 0.00155141 0)
(0.11313 0.00197754 0)
(0.113007 0.00239568 0)
(0.112863 0.00280464 0)
(0.1127 0.00320332 0)
(0.112518 0.00359069 0)
(0.112319 0.0039658 0)
(0.112103 0.00432778 0)
(0.111871 0.00467584 0)
(0.111625 0.00500928 0)
(0.111366 0.00532746 0)
(0.111094 0.00562984 0)
(0.110811 0.00591596 0)
(0.110518 0.00618545 0)
(0.113439 -0.00299034 0)
(0.113576 -0.00253722 0)
(0.113682 -0.00207817 0)
(0.113768 -0.00161403 0)
(0.113829 -0.00114608 0)
(0.113865 -0.000676099 0)
(0.113876 -0.000205816 0)
(0.113862 0.000263121 0)
(0.113823 0.000729116 0)
(0.11376 0.00119062 0)
(0.113673 0.00164616 0)
(0.113563 0.00209431 0)
(0.11343 0.00253374 0)
(0.113276 0.00296317 0)
(0.113102 0.00338144 0)
(0.112908 0.00378745 0)
(0.112695 0.00418018 0)
(0.112464 0.00455873 0)
(0.112217 0.00492225 0)
(0.111955 0.00526999 0)
(0.111679 0.00560131 0)
(0.11139 0.00591562 0)
(0.11109 0.00621244 0)
(0.110779 0.00649142 0)
(0.113899 -0.00314281 0)
(0.114045 -0.00266433 0)
(0.114157 -0.00217961 0)
(0.114247 -0.00168954 0)
(0.114312 -0.00119553 0)
(0.114349 -0.000699476 0)
(0.114359 -0.00020327 0)
(0.114342 0.00029131 0)
(0.114299 0.000782549 0)
(0.11423 0.00126878 0)
(0.114136 0.00174843 0)
(0.114017 0.00221996 0)
(0.113875 0.00268197 0)
(0.11371 0.00313308 0)
(0.113523 0.00357206 0)
(0.113315 0.00399774 0)
(0.113087 0.00440905 0)
(0.112841 0.00480501 0)
(0.112578 0.00518475 0)
(0.112299 0.00554748 0)
(0.112005 0.00589251 0)
(0.111698 0.00621923 0)
(0.111379 0.00652716 0)
(0.111049 0.00681591 0)
(0.114386 -0.00330468 0)
(0.114541 -0.00279897 0)
(0.114658 -0.0022867 0)
(0.114753 -0.00176883 0)
(0.114821 -0.00124688 0)
(0.114858 -0.000722922 0)
(0.114867 -0.000199004 0)
(0.114848 0.00032296 0)
(0.1148 0.000841119 0)
(0.114725 0.00135369 0)
(0.114623 0.00185897 0)
(0.114495 0.00235535 0)
(0.114341 0.0028413 0)
(0.114164 0.00331538 0)
(0.113963 0.00377625 0)
(0.113741 0.00422269 0)
(0.113498 0.00465356 0)
(0.113235 0.00506784 0)
(0.112954 0.00546459 0)
(0.112656 0.005843 0)
(0.112344 0.00620233 0)
(0.112017 0.00654196 0)
(0.111678 0.00686139 0)
(0.111327 0.00716023 0)
(0.1149 -0.00347657 0)
(0.115064 -0.00294157 0)
(0.115188 -0.00239968 0)
(0.115287 -0.00185196 0)
(0.115358 -0.00130005 0)
(0.115397 -0.000746203 0)
(0.115404 -0.000192634 0)
(0.115381 0.000358586 0)
(0.115328 0.000905469 0)
(0.115246 0.0014461 0)
(0.115135 0.00197866 0)
(0.114996 0.00250143 0)
(0.114831 0.00301277 0)
(0.11464 0.00351117 0)
(0.114425 0.00399519 0)
(0.114186 0.00446354 0)
(0.113926 0.00491501 0)
(0.113645 0.00534854 0)
(0.113345 0.00576313 0)
(0.113028 0.00615793 0)
(0.112694 0.00653218 0)
(0.112347 0.00688523 0)
(0.111986 0.00721655 0)
(0.111614 0.00752576 0)
(0.115443 -0.00365911 0)
(0.115618 -0.00309254 0)
(0.115748 -0.00251878 0)
(0.115852 -0.00193897 0)
(0.115925 -0.00135489 0)
(0.115965 -0.000768999 0)
(0.11597 -0.000183685 0)
(0.115943 0.000398813 0)
(0.115884 0.000976357 0)
(0.115794 0.0015469 0)
(0.115673 0.00210848 0)
(0.115523 0.00265927 0)
(0.115345 0.00319755 0)
(0.115139 0.00372169 0)
(0.114908 0.0042302 0)
(0.114652 0.00472165 0)
(0.114373 0.00519482 0)
(0.114072 0.00564856 0)
(0.113752 0.00608185 0)
(0.113413 0.00649378 0)
(0.113057 0.00688356 0)
(0.112687 0.00725053 0)
(0.112303 0.00759414 0)
(0.111908 0.007914 0)
(0.116019 -0.00385294 0)
(0.116204 -0.00325228 0)
(0.11634 -0.00264416 0)
(0.116449 -0.00202981 0)
(0.116525 -0.00141116 0)
(0.116564 -0.000790865 0)
(0.116568 -0.000171536 0)
(0.116536 0.000444421 0)
(0.11647 0.00105471 0)
(0.116371 0.00165713 0)
(0.116239 0.0022496 0)
(0.116076 0.00283016 0)
(0.115883 0.00339699 0)
(0.115661 0.0039484 0)
(0.115412 0.00448272 0)
(0.115137 0.00499856 0)
(0.114837 0.00549454 0)
(0.114516 0.0059695 0)
(0.114173 0.00642236 0)
(0.113811 0.00685218 0)
(0.113432 0.00725812 0)
(0.113037 0.00763951 0)
(0.112628 0.00799578 0)
(0.112208 0.00832654 0)
(0.116628 -0.00405862 0)
(0.116824 -0.00342109 0)
(0.116967 -0.0027759 0)
(0.117081 -0.00212432 0)
(0.117159 -0.00146846 0)
(0.117198 -0.000811217 0)
(0.117198 -0.000155415 0)
(0.117161 0.000496349 0)
(0.117087 0.00114161 0)
(0.116977 0.00177802 0)
(0.116833 0.00240335 0)
(0.116655 0.00301554 0)
(0.116446 0.00361264 0)
(0.116206 0.00419284 0)
(0.115937 0.00475453 0)
(0.115642 0.00529598 0)
(0.11532 0.00581596 0)
(0.114975 0.00631317 0)
(0.114608 0.00678649 0)
(0.114221 0.00723494 0)
(0.113816 0.00765767 0)
(0.113395 0.00805395 0)
(0.11296 0.00842323 0)
(0.112513 0.00876512 0)
(0.116774 0.00445695 0)
(0.116484 0.00504734 0)
(0.116165 0.0056159 0)
(0.11582 0.00616103 0)
(0.115449 0.00668153 0)
(0.115056 0.00717621 0)
(0.114642 0.00764403 0)
(0.11421 0.00808412 0)
(0.11376 0.00849575 0)
(0.113297 0.00887835 0)
(0.112821 0.00923153 0)
(0.108876 -0.00339141 -4.47446e-25)
(0.109015 -0.00318143 -5.50251e-25)
(0.109147 -0.00296459 -1.10158e-24)
(0.109269 -0.00274133 2.29078e-24)
(0.109382 -0.00251213 -2.48394e-24)
(0.109486 -0.0022775 -8.11718e-24)
(0.10958 -0.00203783 1.34752e-24)
(0.109083 -0.0035371 -4.89792e-25)
(0.109231 -0.00331865 -1.19412e-24)
(0.109371 -0.00309317 -3.61108e-24)
(0.109502 -0.00286115 -1.19813e-24)
(0.109624 -0.0026231 2.58041e-24)
(0.109736 -0.00237952 4.0233e-24)
(0.109839 -0.00213062 1.40276e-23)
(0.109299 -0.00369072 -5.40504e-26)
(0.109456 -0.00346337 -8.68058e-25)
(0.109605 -0.00322883 4.69774e-24)
(0.109745 -0.00298763 -1.07654e-25)
(0.109876 -0.00274027 1.205e-23)
(0.109997 -0.00248724 1.50009e-24)
(0.11011 -0.00222849 -1.25955e-23)
(0.109525 -0.00385276 5.94566e-25)
(0.109691 -0.00361608 4.88918e-25)
(0.109849 -0.00337206 -1.15157e-23)
(0.109999 -0.00312125 1.41906e-24)
(0.11014 -0.00286414 -2.53052e-23)
(0.110271 -0.00260115 2.61435e-23)
(0.110394 -0.00233196 1.71727e-24)
(0.10976 -0.00402379 6.48634e-25)
(0.109936 -0.00377732 -6.48091e-25)
(0.110105 -0.00352335 2.5284e-23)
(0.110265 -0.00326245 1.17369e-25)
(0.110416 -0.00299511 1.15029e-23)
(0.110557 -0.00272166 -2.60482e-23)
(0.110691 -0.00244144 2.9786e-23)
(0.110005 -0.00420442 -7.05465e-25)
(0.110192 -0.00394765 -8.36842e-25)
(0.110371 -0.00368323 -1.24695e-23)
(0.110542 -0.00341173 2.85908e-23)
(0.110704 -0.00313365 1.78232e-24)
(0.110857 -0.00284922 3.03869e-23)
(0.111003 -0.00255733 -2.97227e-23)
(0.11026 -0.00439531 -2.28131e-24)
(0.110459 -0.00412772 -2.43241e-24)
(0.11065 -0.0038523 -1.33127e-25)
(0.110833 -0.00356967 -5.5927e-23)
(0.111007 -0.0032803 -1.92196e-24)
(0.111172 -0.00298431 -6.94553e-23)
(0.111331 -0.00268007 -7.11716e-23)
(0.110526 -0.00459721 2.21361e-24)
(0.110738 -0.0043182 8.28077e-25)
(0.110941 -0.0040312 1.93835e-24)
(0.111137 -0.00373686 3.10696e-23)
(0.111324 -0.00343562 1.29464e-25)
(0.111502 -0.00312746 1.05336e-22)
(0.111675 -0.00281016 7.58337e-23)
(0.110804 -0.00481089 8.9462e-25)
(0.111029 -0.00451984 1.26759e-23)
(0.111246 -0.00422065 3.53863e-23)
(0.111456 -0.00391398 -2.22649e-24)
(0.111656 -0.00360025 2.22617e-24)
(0.111848 -0.00327925 -7.50539e-23)
(0.112037 -0.0029481 0)
(0.111094 -0.0050372 0)
(0.111333 -0.00473345 -1.75765e-23)
(0.111565 -0.00442141 -3.3569e-23)
(0.11179 -0.00410174 4.30746e-23)
(0.112005 -0.00377484 -4.92723e-24)
(0.112212 -0.00344032 -8.65342e-23)
(0.112418 -0.00309447 9.35628e-23)
(0.111398 -0.00527708 1.0387e-24)
(0.111652 -0.00495991 -1.89901e-23)
(0.1119 -0.0046343 0)
(0.11214 -0.00430092 -3.84303e-23)
(0.112372 -0.00396014 -8.7666e-23)
(0.112595 -0.00361133 -9.02033e-24)
(0.112818 -0.00324987 -1.85758e-22)
(0.111714 -0.00553153 -1.11698e-24)
(0.111985 -0.00520018 1.66362e-23)
(0.11225 -0.00486022 -1.68672e-25)
(0.112507 -0.00451237 -1.64224e-25)
(0.112756 -0.00415694 9.0465e-23)
(0.112997 -0.00379302 1.89116e-22)
(0.11324 -0.00341494 2.05439e-22)
(0.112046 -0.00580166 9.58075e-24)
(0.112335 -0.00545529 0)
(0.112617 -0.00510016 0)
(0.112893 -0.00473699 9.47774e-23)
(0.113161 -0.00436607 -9.75783e-23)
(0.113421 -0.00398617 -2.09166e-22)
(0.113684 -0.00359039 -1.04856e-22)
(0.112392 -0.00608865 -2.11402e-23)
(0.112701 -0.00572637 1.28918e-24)
(0.113003 -0.00535517 5.05339e-23)
(0.113299 -0.00497579 -1.96083e-22)
(0.113587 -0.00458846 1.00929e-22)
(0.113867 -0.00419161 9.9783e-23)
(0.114153 -0.00377694 3.54974e-24)
(0.112756 -0.00639382 1.16517e-23)
(0.113085 -0.00601466 -4.35007e-24)
(0.113408 -0.0056264 -4.45535e-23)
(0.113725 -0.00522983 2.10186e-22)
(0.114035 -0.00482511 0)
(0.114338 -0.00441026 1.18517e-22)
(0.114648 -0.00397539 3.8065e-24)
(0.113136 -0.0067186 1.03523e-23)
(0.113488 -0.0063215 -1.69497e-24)
(0.113834 -0.00591513 -1.05911e-22)
(0.114175 -0.00550029 -2.21423e-22)
(0.114508 -0.00507708 1.99525e-25)
(0.114834 -0.00464307 1.35734e-22)
(0.115172 -0.00418656 2.76362e-22)
(0.113535 -0.00706456 -1.02285e-23)
(0.113911 -0.00664837 5.29529e-23)
(0.114282 -0.00622271 2.29415e-22)
(0.114648 -0.00578844 1.12683e-22)
(0.115007 -0.00534555 1.32465e-22)
(0.115359 -0.00489109 -5.47637e-22)
(0.115725 -0.00441129 -5.69e-22)
(0.113954 -0.0074334 -1.69839e-24)
(0.114356 -0.00699687 -1.14802e-22)
(0.114754 -0.00655066 -1.1691e-22)
(0.115147 -0.00609564 -2.29991e-25)
(0.115533 -0.00563172 -2.70225e-22)
(0.115913 -0.00515535 2.76606e-22)
(0.116311 -0.00465044 3.01758e-22)
(0.114393 -0.007827 1.81855e-24)
(0.114824 -0.00736875 5.25975e-23)
(0.115251 -0.00690059 3.91258e-24)
(0.115673 -0.00642338 0)
(0.11609 -0.00593695 1.46639e-22)
(0.1165 -0.00543702 3.12926e-22)
(0.116931 -0.00490489 5.03596e-24)
(0.114856 -0.00824742 -1.947e-24)
(0.115317 -0.00776596 6.88743e-23)
(0.107706 -0.00463869 4.11459e-26)
(0.10789 -0.00448607 3.41993e-25)
(0.108069 -0.00432469 -1.25542e-25)
(0.108243 -0.00415461 7.1846e-25)
(0.108411 -0.00397597 6.25802e-25)
(0.108573 -0.00378902 9.82179e-25)
(0.108728 -0.00359405 -3.33527e-25)
(0.10786 -0.00483776 -4.488e-25)
(0.108051 -0.00467819 -6.5727e-25)
(0.108237 -0.00450966 1.35818e-24)
(0.108419 -0.00433221 -4.97745e-25)
(0.108594 -0.00414594 1.87242e-24)
(0.108764 -0.00395112 8.19992e-25)
(0.108927 -0.00374806 4.29567e-25)
(0.108019 -0.00504757 5.54108e-25)
(0.108218 -0.00488069 3.06678e-25)
(0.108411 -0.00470463 -4.54037e-24)
(0.108601 -0.0045194 1.32757e-25)
(0.108785 -0.00432509 -2.28752e-24)
(0.108963 -0.00412198 -1.12163e-25)
(0.109135 -0.0039104 -8.49418e-25)
(0.108183 -0.00526877 2.38869e-25)
(0.10839 -0.0050942 -5.82174e-24)
(0.108592 -0.00491018 7.26232e-24)
(0.10879 -0.00471672 6.61794e-25)
(0.108983 -0.00451393 6.35946e-24)
(0.10917 -0.0043021 -2.91165e-24)
(0.109351 -0.00408158 -5.83837e-25)
(0.108353 -0.00550212 -4.6882e-24)
(0.108568 -0.00531941 5.90182e-24)
(0.108779 -0.005127 -4.55169e-24)
(0.108986 -0.00492487 -1.42768e-25)
(0.109189 -0.00471315 -1.24329e-23)
(0.109385 -0.00449214 -5.15775e-25)
(0.109576 -0.00426222 1.56565e-24)
(0.108528 -0.00574853 4.77669e-24)
(0.108753 -0.00555719 -8.51426e-24)
(0.108973 -0.00535589 6.92395e-25)
(0.109189 -0.00514462 -1.29108e-23)
(0.109402 -0.00492346 7.10603e-24)
(0.109609 -0.00469278 -4.8934e-24)
(0.10981 -0.00445296 -5.67643e-25)
(0.108708 -0.00600892 1.41738e-23)
(0.108943 -0.00580843 1.7166e-23)
(0.109173 -0.00559771 -7.84125e-25)
(0.1094 -0.00537676 2.93857e-23)
(0.109624 -0.00514565 1.51924e-25)
(0.109842 -0.00490477 2.74788e-24)
(0.110054 -0.0046545 3.37452e-24)
(0.108894 -0.00628426 3.19157e-24)
(0.10914 -0.00607408 -3.26652e-23)
(0.10938 -0.0058534 -1.61269e-25)
(0.109619 -0.00562221 -1.47612e-23)
(0.109854 -0.00538062 1.04273e-24)
(0.110084 -0.00512893 6.78279e-25)
(0.110308 -0.00486764 -3.42703e-24)
(0.109085 -0.00657562 2.77302e-24)
(0.109343 -0.00635517 2.1913e-23)
(0.109595 -0.00612393 9.82306e-25)
(0.109846 -0.0058819 -9.82565e-25)
(0.110093 -0.00562919 -1.93526e-23)
(0.110336 -0.0053661 -1.37241e-23)
(0.110573 -0.00509316 7.3827e-25)
(0.109283 -0.00688418 -1.85075e-23)
(0.109553 -0.00665281 2.8312e-23)
(0.109818 -0.00641036 -2.00411e-24)
(0.110081 -0.00615683 -1.73988e-23)
(0.110342 -0.00589231 2.0819e-23)
(0.110598 -0.00561719 1.02214e-23)
(0.110849 -0.00533198 0)
(0.109486 -0.00721119 2.61323e-23)
(0.10977 -0.00696822 2.51007e-24)
(0.110048 -0.00671389 3.7408e-23)
(0.110325 -0.00644817 1.97429e-23)
(0.1106 -0.00617116 0)
(0.110871 -0.0058833 1.2878e-23)
(0.111137 -0.00558508 8.67709e-25)
(0.109696 -0.00755804 -5.30113e-23)
(0.109994 -0.00730274 -6.75741e-23)
(0.110286 -0.00703577 -3.61016e-23)
(0.110578 -0.00675714 4.75081e-23)
(0.110869 -0.0064669 1.87849e-25)
(0.111155 -0.00616552 -1.44809e-23)
(0.111437 -0.00585353 -9.37855e-25)
(0.109911 -0.00792623 2.86706e-23)
(0.110226 -0.0076578 7.27267e-23)
(0.110533 -0.00737741 4.64435e-23)
(0.110841 -0.00708504 -9.88581e-23)
(0.111148 -0.00678077 0)
(0.111452 -0.00646505 0)
(0.111751 -0.00613848 -8.80948e-24)
(0.110133 -0.0083174 1.17343e-24)
(0.110464 -0.00803499 -4.14432e-23)
(0.110788 -0.0077403 -4.54206e-23)
(0.111114 -0.00743335 1.0737e-22)
(0.111439 -0.00711417 -2.95658e-23)
(0.111761 -0.00678324 1.09141e-24)
(0.112079 -0.00644118 1.71813e-23)
(0.11036 -0.00873334 1.29797e-24)
(0.110711 -0.00843602 -4.8329e-23)
(0.111053 -0.00812612 0)
(0.111397 -0.00780365 -1.16802e-22)
(0.111742 -0.00746861 3.34544e-23)
(0.112083 -0.00712152 -3.31156e-24)
(0.112422 -0.00676303 -8.28764e-24)
(0.110594 -0.00917602 -8.74939e-23)
(0.110965 -0.00886279 -5.75532e-23)
(0.111326 -0.00853668 -2.28427e-25)
(0.111691 -0.00819768 1.28431e-22)
(0.112057 -0.00784577 7.53685e-23)
(0.11242 -0.00748149 3.91003e-23)
(0.11278 -0.00710553 -1.21956e-23)
(0.110834 -0.00964758 1.85467e-22)
(0.111227 -0.00931738 2.14066e-22)
(0.11161 -0.00897397 0)
(0.111997 -0.00861735 -6.80422e-23)
(0.112385 -0.00824748 -1.49469e-22)
(0.112772 -0.0078649 -8.45915e-23)
(0.113155 -0.00747034 1.22723e-23)
(0.11108 -0.0101504 -9.47091e-23)
(0.111497 -0.009802 -1.14305e-22)
(0.111903 -0.00944016 7.1177e-23)
(0.112314 -0.00906476 2.53683e-25)
(0.112727 -0.00867573 7.89032e-23)
(0.113139 -0.00827363 4.18817e-23)
(0.113548 -0.00785928 -1.45511e-24)
(0.111331 -0.010687 1.87382e-24)
(0.111775 -0.0103193 -1.37069e-22)
(0.112206 -0.00993764 -6.69003e-23)
(0.112644 -0.00954221 0)
(0.113084 -0.00913274 2.87616e-24)
(0.113523 -0.00870985 -4.42937e-24)
(0.113959 -0.00827429 1.56123e-24)
(0.113924 -0.00917581 1.67777e-24)
(0.114391 -0.00871771 -1.6744e-24)
(0.101556 -0.00493148 0)
(0.101669 -0.00500548 0)
(0.101787 -0.00507805 0)
(0.10191 -0.00514889 0)
(0.102038 -0.00521771 0)
(0.102171 -0.00528421 0)
(0.102309 -0.0053481 0)
(0.102452 -0.00540907 0)
(0.102601 -0.00546678 0)
(0.102755 -0.0055209 0)
(0.102914 -0.00557108 0)
(0.103078 -0.00561695 0)
(0.103247 -0.00565814 0)
(0.103421 -0.00569427 0)
(0.1036 -0.00572495 0)
(0.103783 -0.00574979 0)
(0.103971 -0.00576838 0)
(0.104163 -0.00578033 0)
(0.10436 -0.00578525 0)
(0.10456 -0.00578274 0)
(0.104763 -0.00577241 0)
(0.10497 -0.0057539 0)
(0.105179 -0.00572684 0)
(0.10539 -0.00569089 0)
(0.105603 -0.00564572 0)
(0.105818 -0.00559105 0)
(0.106033 -0.00552659 0)
(0.106249 -0.00545212 0)
(0.106464 -0.00536742 0)
(0.106678 -0.00527234 0)
(0.106891 -0.00516673 0)
(0.107101 -0.00505049 0)
(0.107309 -0.00492349 0)
(0.107513 -0.00478538 0)
(0.101478 -0.00504283 0)
(0.101592 -0.00512178 0)
(0.101712 -0.0051994 0)
(0.101836 -0.00527538 0)
(0.101967 -0.0053494 0)
(0.102102 -0.00542118 0)
(0.102243 -0.00549039 0)
(0.10239 -0.00555671 0)
(0.102542 -0.00561978 0)
(0.102699 -0.00567926 0)
(0.102862 -0.00573476 0)
(0.103031 -0.0057859 0)
(0.103205 -0.00583228 0)
(0.103385 -0.00587348 0)
(0.103569 -0.0059091 0)
(0.103759 -0.0059387 0)
(0.103954 -0.00596186 0)
(0.104153 -0.00597815 0)
(0.104357 -0.00598713 0)
(0.104564 -0.00598838 0)
(0.104776 -0.00598147 0)
(0.104991 -0.005966 0)
(0.105209 -0.00594156 0)
(0.10543 -0.00590779 0)
(0.105653 -0.00586432 0)
(0.105877 -0.00581083 0)
(0.106103 -0.005747 0)
(0.106329 -0.00567258 0)
(0.106554 -0.00558733 0)
(0.106779 -0.00549106 0)
(0.107003 -0.0053836 0)
(0.107224 -0.00526479 0)
(0.107443 -0.00513439 0)
(0.107658 -0.00499165 0)
(0.101394 -0.00515539 0)
(0.10151 -0.00523954 0)
(0.101631 -0.00532247 0)
(0.101758 -0.00540387 0)
(0.10189 -0.00548341 0)
(0.102028 -0.00556078 0)
(0.102172 -0.00563564 0)
(0.102322 -0.00570766 0)
(0.102477 -0.00577646 0)
(0.102639 -0.00584166 0)
(0.102806 -0.00590287 0)
(0.102979 -0.00595967 0)
(0.103158 -0.00601164 0)
(0.103343 -0.00605834 0)
(0.103534 -0.00609932 0)
(0.10373 -0.00613412 0)
(0.103931 -0.00616228 0)
(0.104138 -0.00618332 0)
(0.104349 -0.00619679 0)
(0.104565 -0.00620221 0)
(0.104786 -0.00619912 0)
(0.10501 -0.00618708 0)
(0.105237 -0.00616565 0)
(0.105468 -0.00613441 0)
(0.105701 -0.00609296 0)
(0.105935 -0.00604094 0)
(0.106172 -0.00597801 0)
(0.106409 -0.00590386 0)
(0.106646 -0.00581824 0)
(0.106882 -0.00572092 0)
(0.107117 -0.00561169 0)
(0.10735 -0.00549034 0)
(0.10758 -0.0053565 0)
(0.107807 -0.00520895 0)
(0.101306 -0.00526903 0)
(0.101423 -0.00535864 0)
(0.101546 -0.00544717 0)
(0.101674 -0.00553429 0)
(0.101808 -0.00561965 0)
(0.101949 -0.00570294 0)
(0.102095 -0.0057838 0)
(0.102248 -0.00586188 0)
(0.102407 -0.00593679 0)
(0.102572 -0.00600811 0)
(0.102744 -0.00607545 0)
(0.102922 -0.00613834 0)
(0.103106 -0.00619634 0)
(0.103296 -0.00624898 0)
(0.103493 -0.00629577 0)
(0.103696 -0.00633623 0)
(0.103904 -0.00636984 0)
(0.104118 -0.00639611 0)
(0.104338 -0.00641452 0)
(0.104562 -0.00642457 0)
(0.104791 -0.00642575 0)
(0.105025 -0.00641757 0)
(0.105262 -0.00639955 0)
(0.105503 -0.00637123 0)
(0.105746 -0.00633217 0)
(0.105992 -0.00628196 0)
(0.10624 -0.00622022 0)
(0.106489 -0.00614661 0)
(0.106738 -0.00606083 0)
(0.106986 -0.00596262 0)
(0.107234 -0.00585173 0)
(0.107479 -0.0057279 0)
(0.107722 -0.0055906 0)
(0.107961 -0.00543808 0)
(0.101213 -0.0053836 0)
(0.101331 -0.00547895 0)
(0.101454 -0.00557336 0)
(0.101584 -0.0056665 0)
(0.101721 -0.00575802 0)
(0.101863 -0.00584757 0)
(0.102012 -0.0059348 0)
(0.102168 -0.00601933 0)
(0.10233 -0.00610074 0)
(0.102499 -0.00617862 0)
(0.102675 -0.00625251 0)
(0.102858 -0.00632194 0)
(0.103047 -0.00638644 0)
(0.103244 -0.0064455 0)
(0.103446 -0.0064986 0)
(0.103656 -0.00654521 0)
(0.103871 -0.00658478 0)
(0.104093 -0.00661678 0)
(0.104321 -0.00664064 0)
(0.104554 -0.00665581 0)
(0.104793 -0.00666175 0)
(0.105036 -0.00665791 0)
(0.105284 -0.00664376 0)
(0.105535 -0.0066188 0)
(0.10579 -0.00658253 0)
(0.106048 -0.0065345 0)
(0.106307 -0.00647429 0)
(0.106568 -0.00640151 0)
(0.10683 -0.00631582 0)
(0.107091 -0.00621691 0)
(0.107352 -0.00610451 0)
(0.107611 -0.00597827 0)
(0.107866 -0.00583748 0)
(0.10812 -0.00567984 0)
(0.101114 -0.00549895 0)
(0.101232 -0.00560031 0)
(0.101357 -0.0057009 0)
(0.101489 -0.00580038 0)
(0.101627 -0.00589839 0)
(0.101771 -0.00599458 0)
(0.101923 -0.00608856 0)
(0.102081 -0.00617994 0)
(0.102247 -0.00626828 0)
(0.10242 -0.00635315 0)
(0.1026 -0.00643406 0)
(0.102788 -0.00651053 0)
(0.102982 -0.00658203 0)
(0.103184 -0.00664802 0)
(0.103393 -0.00670795 0)
(0.10361 -0.00676125 0)
(0.103833 -0.00680733 0)
(0.104063 -0.0068456 0)
(0.104299 -0.00687546 0)
(0.104541 -0.00689631 0)
(0.104789 -0.00690754 0)
(0.105043 -0.00690856 0)
(0.105301 -0.00689878 0)
(0.105564 -0.00687766 0)
(0.105831 -0.00684464 0)
(0.106101 -0.00679921 0)
(0.106373 -0.00674091 0)
(0.106647 -0.00666929 0)
(0.106923 -0.00658397 0)
(0.107198 -0.00648461 0)
(0.107472 -0.00637086 0)
(0.107745 -0.0062423 0)
(0.108015 -0.00609805 0)
(0.108283 -0.00593515 0)
(0.101009 -0.0056149 0)
(0.101128 -0.00572255 0)
(0.101254 -0.00582963 0)
(0.101386 -0.00593578 0)
(0.101526 -0.00604064 0)
(0.101673 -0.00614383 0)
(0.101827 -0.00624496 0)
(0.101988 -0.00634361 0)
(0.102157 -0.00643934 0)
(0.102333 -0.00653168 0)
(0.102518 -0.00662011 0)
(0.10271 -0.00670411 0)
(0.10291 -0.00678314 0)
(0.103118 -0.00685662 0)
(0.103333 -0.00692396 0)
(0.103557 -0.00698453 0)
(0.103787 -0.00703771 0)
(0.104025 -0.00708285 0)
(0.104271 -0.00711931 0)
(0.104522 -0.00714642 0)
(0.104781 -0.00716353 0)
(0.105045 -0.00716999 0)
(0.105315 -0.00716515 0)
(0.10559 -0.0071484 0)
(0.105869 -0.00711913 0)
(0.106152 -0.00707678 0)
(0.106438 -0.00702081 0)
(0.106726 -0.00695074 0)
(0.107015 -0.00686613 0)
(0.107305 -0.00676656 0)
(0.107594 -0.00665167 0)
(0.107882 -0.00652092 0)
(0.108167 -0.00637324 0)
(0.108451 -0.00620495 0)
(0.100898 -0.00573123 0)
(0.101017 -0.00584546 0)
(0.101144 -0.00595935 0)
(0.101277 -0.00607252 0)
(0.101418 -0.00618458 0)
(0.101567 -0.00629517 0)
(0.101723 -0.00640388 0)
(0.101887 -0.00651025 0)
(0.102059 -0.00661384 0)
(0.102239 -0.00671413 0)
(0.102428 -0.00681061 0)
(0.102625 -0.00690271 0)
(0.10283 -0.00698984 0)
(0.103044 -0.0070714 0)
(0.103266 -0.00714674 0)
(0.103496 -0.00721521 0)
(0.103735 -0.00727613 0)
(0.103981 -0.00732879 0)
(0.104236 -0.0073725 0)
(0.104497 -0.00740653 0)
(0.104766 -0.00743016 0)
(0.105042 -0.00744269 0)
(0.105323 -0.00744341 0)
(0.105611 -0.00743163 0)
(0.105903 -0.00740668 0)
(0.106199 -0.00736793 0)
(0.1065 -0.00731479 0)
(0.106802 -0.0072467 0)
(0.107107 -0.00716316 0)
(0.107412 -0.00706372 0)
(0.107717 -0.00694791 0)
(0.108021 -0.00681514 0)
(0.108322 -0.00666407 0)
(0.108623 -0.00649027 0)
(0.10078 -0.00584772 0)
(0.1009 -0.00596884 0)
(0.101027 -0.00608985 0)
(0.101161 -0.00621039 0)
(0.101303 -0.00633005 0)
(0.101453 -0.00644844 0)
(0.101612 -0.00656515 0)
(0.101778 -0.00667972 0)
(0.101953 -0.00679166 0)
(0.102137 -0.00690044 0)
(0.10233 -0.00700551 0)
(0.102531 -0.00710628 0)
(0.102742 -0.00720213 0)
(0.102961 -0.0072924 0)
(0.10319 -0.00737641 0)
(0.103428 -0.00745346 0)
(0.103674 -0.0075228 0)
(0.103929 -0.00758369 0)
(0.104193 -0.00763535 0)
(0.104465 -0.00767701 0)
(0.104745 -0.00770789 0)
(0.105032 -0.00772719 0)
(0.105326 -0.00773415 0)
(0.105627 -0.007728 0)
(0.105933 -0.007708 0)
(0.106244 -0.00767345 0)
(0.106559 -0.00762368 0)
(0.106877 -0.00755806 0)
(0.107198 -0.00747603 0)
(0.10752 -0.00737706 0)
(0.107842 -0.00726064 0)
(0.108163 -0.00712603 0)
(0.108481 -0.00697164 0)
(0.1088 -0.00679221 0)
(0.100655 -0.00596413 0)
(0.100775 -0.00609244 0)
(0.100902 -0.00622091 0)
(0.101037 -0.00634916 0)
(0.101181 -0.0064768 0)
(0.101332 -0.00660343 0)
(0.101492 -0.0067286 0)
(0.101661 -0.00685185 0)
(0.101839 -0.00697266 0)
(0.102026 -0.00709049 0)
(0.102222 -0.00720474 0)
(0.102429 -0.00731481 0)
(0.102644 -0.00742002 0)
(0.10287 -0.00751968 0)
(0.103105 -0.00761306 0)
(0.10335 -0.0076994 0)
(0.103605 -0.00777792 0)
(0.103869 -0.0078478 0)
(0.104143 -0.0079082 0)
(0.104425 -0.00795827 0)
(0.104716 -0.00799716 0)
(0.105016 -0.00802402 0)
(0.105323 -0.00803797 0)
(0.105637 -0.00803819 0)
(0.105958 -0.00802384 0)
(0.106284 -0.00799415 0)
(0.106615 -0.00794836 0)
(0.10695 -0.00788578 0)
(0.107288 -0.00780575 0)
(0.107627 -0.00770768 0)
(0.107967 -0.00759096 0)
(0.108307 -0.00745475 0)
(0.108644 -0.00729717 0)
(0.108982 -0.007112 0)
(0.100524 -0.00608018 0)
(0.100643 -0.00621597 0)
(0.10077 -0.00635223 0)
(0.100906 -0.00648858 0)
(0.10105 -0.00662461 0)
(0.101202 -0.0067599 0)
(0.101364 -0.00689401 0)
(0.101535 -0.00702645 0)
(0.101715 -0.00715668 0)
(0.101905 -0.00728413 0)
(0.102106 -0.00740819 0)
(0.102316 -0.0075282 0)
(0.102537 -0.00764346 0)
(0.102769 -0.00775324 0)
(0.103011 -0.00785675 0)
(0.103263 -0.00795318 0)
(0.103526 -0.00804168 0)
(0.103799 -0.00812137 0)
(0.104083 -0.00819135 0)
(0.104376 -0.00825069 0)
(0.104679 -0.00829846 0)
(0.104991 -0.00833371 0)
(0.105312 -0.00835549 0)
(0.105641 -0.00836289 0)