/*--------------------------------*- C++ -*----------------------------------*\
| =========                 |                                                 |
| \\      /  F ield         | OpenFOAM: The Open Source CFD Toolbox           |
|  \\    /   O peration     | Version:  2412                                  |
|   \\  /    A nd           | Website:  www.openfoam.com                      |
|    \\/     M anipulation  |                                                 |
\*---------------------------------------------------------------------------*/
FoamFile
{
    version     2.0;
    format      ascii;
    arch        "LSB;label=32;scalar=64";
    class       volVectorField;
    location    "4.5";
    object      vorticity;
}
// * * * * * * * * * * * * * * * * * * * * * * * * * * * * * * * * * * * * * //

dimensions      [0 0 -1 0 0 0 0];

internalField   nonuniform List<vector> 
5285
(
(3.18218e-22 6.12264e-21 -0.000665227)
(-2.47968e-22 2.02603e-25 -0.000499451)
(3.06124e-22 6.44336e-21 -0.000379298)
(-6.33669e-23 4.40435e-24 -0.000290653)
(-2.74556e-22 6.00481e-25 -0.000223754)
(1.40003e-22 -5.0522e-24 -0.000171987)
(6.89275e-23 6.85519e-21 -0.000130901)
(-9.74683e-24 9.73842e-24 -9.74931e-05)
(-5.54925e-23 -7.02312e-21 -6.9746e-05)
(4.0244e-23 7.09184e-21 -4.62905e-05)
(1.04285e-22 -7.20261e-21 -2.61776e-05)
(-4.44779e-23 6.52535e-20 -8.7333e-06)
(-1.2329e-22 -6.53117e-20 6.53387e-06)
(-1.828e-22 -5.17025e-20 1.99917e-05)
(3.75073e-22 1.1101e-19 3.19232e-05)
(-1.98526e-22 -5.93999e-20 4.25536e-05)
(-1.16359e-22 -7.55284e-21 5.20671e-05)
(1.04827e-22 7.54894e-21 6.06185e-05)
(7.12428e-23 -1.08438e-25 6.83396e-05)
(-7.34251e-23 7.67239e-21 7.53437e-05)
(-9.02574e-23 -3.85211e-20 8.17317e-05)
(1.19408e-22 3.85877e-20 8.7604e-05)
(-6.48787e-23 -7.76236e-21 9.30859e-05)
(3.58393e-23 2.34612e-20 9.83787e-05)
(-4.02322e-23 -7.80464e-21 0.000103849)
(-3.6047e-23 -1.58003e-20 0.000110162)
(2.51872e-23 7.91221e-21 0.000118419)
(-1.15926e-25 -7.95906e-21 0.000130204)
(1.22414e-20 3.83407e-19 -0.0019742)
(-1.35234e-20 -4.1529e-19 -0.00149281)
(1.05395e-20 4.11253e-19 -0.00114236)
(-5.92493e-21 -2.05625e-19 -0.000882817)
(-9.09834e-21 -4.28711e-19 -0.000685991)
(4.06829e-21 2.15732e-19 -0.000532781)
(2.09883e-22 -6.7228e-21 -0.000410432)
(-5.79391e-22 -1.39443e-20 -0.000310385)
(3.86001e-22 7.04264e-21 -0.000226893)
(-2.83357e-22 -2.14958e-20 -0.000156042)
(2.68359e-21 2.2367e-19 -9.5104e-05)
(-5.62636e-21 -4.70695e-19 -4.21279e-05)
(2.61063e-21 2.25293e-19 4.32003e-06)
(-1.42544e-23 -2.19225e-20 4.53205e-05)
(-1.90482e-22 7.39636e-21 8.17114e-05)
(3.64299e-23 9.47058e-23 0.000114162)
(-9.12796e-22 -1.28044e-19 0.000143226)
(7.8558e-22 1.12951e-19 0.000169366)
(7.52418e-22 1.0685e-19 0.000192982)
(-1.02505e-21 -1.44975e-19 0.000214413)
(6.63403e-23 7.562e-21 0.000233966)
(1.45331e-22 3.87848e-20 0.000251939)
(-2.888e-22 -6.97674e-20 0.000268703)
(-1.87936e-22 -7.81418e-21 0.000284845)
(-1.53751e-22 -5.49242e-20 0.000301434)
(-8.58621e-23 -8.0029e-21 0.000320405)
(8.91945e-23 1.57424e-20 0.000344985)
(9.3325e-23 2.38259e-20 0.000379864)
(-2.16836e-20 -3.95524e-19 -0.00321783)
(2.29914e-20 4.20634e-19 -0.00246757)
(3.95884e-22 1.3443e-20 -0.00191725)
(-4.92458e-22 -1.33545e-20 -0.00150611)
(1.41683e-22 1.38463e-20 -0.00119119)
(-1.20587e-20 -4.27707e-19 -0.000943229)
(1.31488e-20 4.41686e-19 -0.000742892)
(-1.05252e-20 -4.23031e-19 -0.000577249)
(1.13054e-20 4.5135e-19 -0.000437625)
(2.53753e-22 1.42966e-20 -0.000318111)
(8.12275e-21 4.64261e-19 -0.00021458)
(-1.59977e-20 -9.1689e-19 -0.000124067)
(8.62689e-21 4.8166e-19 -4.43726e-05)
(2.80913e-21 2.52241e-19 2.61799e-05)
(-2.44851e-21 -2.22214e-19 8.89163e-05)
(-6.71911e-22 -1.55855e-22 0.000144921)
(3.59772e-22 -7.94934e-24 0.000195109)
(1.02129e-22 -1.68243e-22 0.000240263)
(2.09037e-21 2.44054e-19 0.000281062)
(-2.18865e-21 -2.28767e-19 0.000318091)
(-5.42121e-25 1.52109e-20 0.000351867)
(2.77049e-22 -7.46063e-23 0.000382894)
(7.70734e-22 1.2437e-19 0.000411774)
(-1.69568e-21 -2.33546e-19 0.000439441)
(9.0012e-22 1.24786e-19 0.000467575)
(-4.44692e-22 -6.2812e-20 0.000499222)
(3.12438e-22 4.71014e-20 0.000539509)
(8.5981e-23 1.58071e-20 0.000596054)
(2.67512e-22 -1.04334e-23 -0.00435455)
(-3.1217e-24 1.31826e-20 -0.00340408)
(9.52835e-22 6.40902e-23 -0.00270041)
(5.10611e-22 1.4199e-20 -0.00216741)
(-4.10918e-20 -8.9843e-19 -0.00175317)
(4.1236e-20 8.83839e-19 -0.00142179)
(-1.2208e-21 1.00824e-21 -0.00114975)
(-1.40894e-20 -4.56555e-19 -0.000921452)
(1.55581e-20 4.70442e-19 -0.000726447)
(-4.18387e-22 3.5377e-22 -0.000557632)
(-1.12539e-22 3.36001e-22 -0.000410036)
(-1.04816e-20 -4.86032e-19 -0.000280063)
(2.10218e-20 9.59674e-19 -0.000165018)
(-1.9657e-20 -9.50384e-19 -6.27976e-05)
(1.79552e-20 9.55866e-19 2.8307e-05)
(-1.64783e-20 -9.60637e-19 0.000109743)
(7.78213e-21 4.8098e-19 0.00018277)
(3.8385e-21 2.43571e-19 0.000248495)
(-3.31001e-21 -2.12553e-19 0.000307887)
(-6.16596e-23 -1.52805e-20 0.000361788)
(-2.86137e-21 -2.46406e-19 0.000410938)
(6.03109e-21 5.23928e-19 0.000456042)
(-2.89496e-21 -2.46711e-19 0.000497913)
(1.10242e-22 -1.7193e-22 0.000537765)
(2.10686e-22 1.55658e-20 0.000577755)
(-1.20177e-22 1.96317e-23 0.000621793)
(-1.08331e-22 -1.56799e-20 0.000676563)
(2.53591e-22 3.13999e-20 0.000752354)
(-7.17228e-20 -8.83519e-19 -0.00427217)
(7.00762e-20 8.54417e-19 -0.00346899)
(-1.0773e-21 7.29494e-22 -0.00285109)
(1.52386e-21 2.42178e-24 -0.00236169)
(-1.53235e-21 -1.34146e-20 -0.00196254)
(-4.30876e-20 -9.19672e-19 -0.00162864)
(4.39621e-20 9.03262e-19 -0.00134362)
(-1.11031e-21 -1.34577e-20 -0.00109656)
(-1.67049e-20 -4.5551e-19 -0.000880032)
(1.62552e-20 4.83854e-19 -0.000688845)
(1.83286e-21 3.57534e-22 -0.000519209)
(-1.01628e-21 2.69889e-23 -0.000368234)
(2.45849e-22 3.47823e-22 -0.000233596)
(-1.21034e-20 -4.82404e-19 -0.000113325)
(1.29311e-20 4.96837e-19 -5.68372e-06)
(-1.04721e-20 -4.70581e-19 9.08985e-05)
(9.51205e-21 4.85129e-19 0.000177837)
(-7.34632e-23 -3.01718e-20 0.000256391)
(5.89268e-22 1.52695e-20 0.000327657)
(-3.26727e-22 2.94045e-23 0.000392596)
(-2.21081e-22 -1.5385e-20 0.000452099)
(1.70581e-22 1.54916e-20 0.000507157)
(-1.5676e-21 -1.39347e-19 0.000559187)
(2.87386e-21 2.47699e-19 0.000610648)
(-2.23126e-21 -1.85915e-19 0.000666014)
(6.73122e-22 6.19572e-20 0.000733097)
(3.43628e-23 3.83421e-23 0.000824557)
(8.78668e-20 8.98594e-19 -0.00502541)
(-8.97895e-20 -8.94191e-19 -0.00417784)
(-7.10596e-20 -9.18225e-19 -0.003513)
(7.05958e-20 8.99448e-19 -0.00297498)
(-1.20973e-21 8.06892e-22 -0.00252685)
(1.92752e-21 -7.75282e-22 -0.00214441)
(4.77441e-20 9.44358e-19 -0.00181222)
(-4.48067e-21 8.75917e-21 -0.00152001)
(-4.53335e-20 -9.76708e-19 -0.00126086)
(-3.8628e-20 -9.75859e-19 -0.00102991)
(7.26865e-20 1.90382e-18 -0.000823568)
(-2.01016e-20 -4.90797e-19 -0.00063903)
(-1.62934e-20 -4.97091e-19 -0.000473944)
(-1.38836e-20 -5.17177e-19 -0.000326209)
(2.57367e-20 9.56992e-19 -0.000193879)
(-2.52361e-20 -9.88608e-19 -7.51282e-05)
(5.71651e-22 -1.82097e-20 3.17324e-05)
(1.05634e-20 4.87654e-19 0.000128222)
(9.46875e-21 4.9135e-19 0.00021567)
(-1.46082e-20 -7.65691e-19 0.000295236)
(8.81715e-21 4.75166e-19 0.000367974)
(-4.33687e-21 -2.60527e-19 0.000435004)
(3.94148e-21 2.61558e-19 0.000497857)
(-4.16413e-21 -2.60931e-19 0.000559115)
(4.02111e-22 1.52624e-20 0.000623476)
(-1.14145e-21 -7.70332e-20 0.000699383)
(4.23842e-22 3.06737e-20 0.000801575)
(-1.18857e-19 -9.235e-19 -0.00494154)
(1.41706e-21 -1.10299e-21 -0.00422426)
(8.99939e-22 -1.65378e-23 -0.0036523)
(-1.81788e-23 1.56558e-20 -0.00317669)
(-6.9885e-20 -9.58955e-19 -0.00276787)
(7.0231e-20 9.5363e-19 -0.00240805)
(-1.12098e-21 8.7394e-22 -0.00208619)
(1.1462e-23 -1.22151e-23 -0.00179556)
(1.35097e-21 1.58962e-20 -0.00153191)
(-4.2376e-20 -9.61446e-19 -0.00129246)
(8.38433e-20 1.96373e-18 -0.00107515)
(-4.05103e-20 -9.71909e-19 -0.000878336)
(1.10126e-21 1.44827e-20 -0.000700467)
(9.53011e-22 1.49292e-20 -0.000539984)
(1.39611e-20 4.91441e-19 -0.000395271)
(-2.73958e-20 -9.64572e-19 -0.000264683)
(1.41872e-20 5.04086e-19 -0.00014662)
(-1.20193e-20 -4.75281e-19 -3.9599e-05)
(4.35005e-22 -1.96443e-21 5.76998e-05)
(1.55901e-21 1.34426e-20 0.000146427)
(1.0414e-20 5.03987e-19 0.000227625)
(5.0379e-21 2.6074e-19 0.000302383)
(-5.05576e-21 -2.59196e-19 0.000372164)
(4.32143e-22 1.50124e-20 0.000439421)
(1.94545e-21 1.22163e-19 0.000508656)
(-1.68321e-21 -1.06372e-19 0.000588257)
(1.92575e-22 1.51376e-20 0.000695068)
(0 -4.86375e-24 0.000151848)
(0 -0 0.000174804)
(0 -0 0.000206536)
(0 -0 0.000246844)
(0 -0 0.000292706)
(0 -0 0.000337848)
(0 -0 0.000373643)
(0 -0 0.000391402)
(0 -0 0.000385312)
(0 -0 0.000354672)
(0 -0 0.000304293)
(0 -0 0.000242858)
(0 -0 0.000180054)
(0 -0 0.000123838)
(0 -0 7.88493e-05)
(0 -0 4.62906e-05)
(0 -0 2.48475e-05)
(0 -0 1.19663e-05)
(0 -0 4.92809e-06)
(0 -0 1.47457e-06)
(0 -0 1.18649e-08)
(0 -0 -4.49417e-07)
(0 -0 -4.58853e-07)
(0 -0 -2.92037e-07)
(0 -0 -7.41359e-08)
(0 -0 1.43751e-07)
(0 -0 3.43814e-07)
(0 -0 5.22155e-07)
(0 -0 6.80049e-07)
(0 -0 8.19945e-07)
(0 -0 9.43755e-07)
(0 -0 1.05247e-06)
(0 -0 1.14666e-06)
(0 -0 1.22702e-06)
(0 -0 1.29496e-06)
(0 -0 1.3527e-06)
(0 -0 1.40263e-06)
(0 -0 1.44651e-06)
(0 -0 1.48484e-06)
(0 -0 1.51667e-06)
(0 -0 1.54082e-06)
(0 -0 1.55763e-06)
(0 -0 1.56899e-06)
(0 -0 1.57752e-06)
(0 1.46154e-23 0.000442834)
(0 -0 0.00050959)
(0 -0 0.000601706)
(0 -0 0.000718619)
(0 -0 0.000851575)
(0 -0 0.000982384)
(0 -0 0.00108601)
(0 -0 0.00113726)
(0 -0 0.00111925)
(0 -0 0.00102995)
(0 -0 0.000883344)
(0 -0 0.000704657)
(0 -0 0.000522037)
(0 -0 0.000358595)
(0 -0 0.000227811)
(0 -0 0.000133177)
(0 -0 7.08668e-05)
(0 -0 3.3454e-05)
(0 -0 1.30341e-05)
(0 -0 3.04102e-06)
(0 -0 -1.15976e-06)
(0 -0 -2.4472e-06)
(0 -0 -2.42267e-06)
(0 -0 -1.8905e-06)
(0 -0 -1.21569e-06)
(0 -0 -5.45948e-07)
(0 -0 6.83522e-08)
(0 -0 6.1644e-07)
(0 -0 1.10161e-06)
(0 -0 1.53055e-06)
(0 -0 1.90935e-06)
(0 -0 2.24264e-06)
(0 -0 2.53411e-06)
(0 -0 2.78716e-06)
(0 -0 3.00552e-06)
(0 -0 3.19346e-06)
(0 -0 3.35509e-06)
(0 -0 3.49349e-06)
(0 -0 3.61017e-06)
(0 -0 3.70525e-06)
(0 -0 3.77912e-06)
(0 -0 3.83401e-06)
(0 -0 3.87365e-06)
(0 -0 3.90095e-06)
(0 9.78001e-24 0.000694701)
(0 -0 0.000799192)
(0 -0 0.000942926)
(0 -0 0.00112511)
(0 -0 0.00133218)
(0 -0 0.00153584)
(0 -0 0.0016971)
(0 -0 0.00177665)
(0 -0 0.00174814)
(0 -0 0.00160834)
(0 -0 0.00137906)
(0 -0 0.00109963)
(0 -0 0.000814036)
(0 -0 0.000558388)
(0 -0 0.000353788)
(0 -0 0.000205719)
(0 -0 0.000108222)
(0 -0 4.96938e-05)
(0 -0 1.7772e-05)
(0 -0 2.18224e-06)
(0 -0 -4.33244e-06)
(0 -0 -6.28276e-06)
(0 -0 -6.17967e-06)
(0 -0 -5.28518e-06)
(0 -0 -4.17211e-06)
(0 -0 -3.07196e-06)
(0 -0 -2.06322e-06)
(0 -0 -1.16239e-06)
(0 -0 -3.64178e-07)
(0 -0 3.41999e-07)
(0 -0 9.66154e-07)
(0 -0 1.51639e-06)
(0 -0 1.99919e-06)
(0 -0 2.42026e-06)
(0 -0 2.78538e-06)
(0 -0 3.10069e-06)
(0 -0 3.37189e-06)
(0 -0 3.6033e-06)
(0 -0 3.79752e-06)
(0 -0 3.95589e-06)
(0 -0 4.08034e-06)
(0 -0 4.17485e-06)
(0 -0 4.24472e-06)
(0 -0 4.29282e-06)
(0 1.92323e-23 0.000877924)
(0 -0 0.00101084)
(0 -0 0.00119297)
(0 -0 0.00142354)
(0 -0 0.00168563)
(0 -0 0.00194358)
(0 -0 0.00214809)
(0 -0 0.00224931)
(0 -0 0.00221372)
(0 -0 0.00203704)
(0 -0 0.00174668)
(0 -0 0.00139244)
(0 -0 0.00103006)
(0 -0 0.000705442)
(0 -0 0.000445483)
(0 -0 0.000257255)
(0 -0 0.000133275)
(0 -0 5.88493e-05)
(0 -0 1.82869e-05)
(0 -0 -1.47445e-06)
(0 -0 -9.6715e-06)
(0 -0 -1.20517e-05)
(0 -0 -1.18175e-05)
(0 -0 -1.058e-05)
(0 -0 -9.07103e-06)
(0 -0 -7.58611e-06)
(0 -0 -6.22503e-06)
(0 -0 -5.00838e-06)
(0 -0 -3.92903e-06)
(0 -0 -2.97296e-06)
(0 -0 -2.12669e-06)
(0 -0 -1.37922e-06)
(0 -0 -7.21758e-07)
(0 -0 -1.46754e-07)
(0 -0 3.53216e-07)
(0 -0 7.85828e-07)
(0 -0 1.15816e-06)
(0 -0 1.47572e-06)
(0 -0 1.74218e-06)
(0 -0 1.96013e-06)
(0 -0 2.13299e-06)
(0 -0 2.26624e-06)
(0 -0 2.36634e-06)
(0 -0 2.43572e-06)
(0 4.16058e-26 0.000965766)
(0 -0 0.00111537)
(0 -0 0.00131984)
(0 -0 0.00157883)
(0 -0 0.00187376)
(0 -0 0.00216486)
(0 -0 0.00239685)
(0 -0 0.00251355)
(0 -0 0.00247687)
(0 -0 0.00228145)
(0 -0 0.00195762)
(0 -0 0.00156106)
(0 -0 0.00115443)
(0 -0 0.000789532)
(0 -0 0.000496898)
(0 -0 0.000284774)
(0 -0 0.000144939)
(0 -0 6.09687e-05)
(0 -0 1.52313e-05)
(0 -0 -6.99112e-06)
(0 -0 -1.6128e-05)
(0 -0 -1.86802e-05)
(0 -0 -1.82758e-05)
(0 -0 -1.67427e-05)
(0 -0 -1.49116e-05)
(0 -0 -1.31182e-05)
(0 -0 -1.14754e-05)
(0 -0 -1.00058e-05)
(0 -0 -8.70076e-06)
(0 -0 -7.54345e-06)
(0 -0 -6.51774e-06)
(0 -0 -5.6104e-06)
(0 -0 -4.81097e-06)
(0 -0 -4.11064e-06)
(0 -0 -3.50081e-06)
(0 -0 -2.97267e-06)
(0 -0 -2.51804e-06)
(0 -0 -2.13044e-06)
(0 -0 -1.80519e-06)
(0 -0 -1.53849e-06)
(0 -0 -1.32559e-06)
(0 -0 -1.15995e-06)
(0 -0 -1.03445e-06)
(0 -0 -9.47416e-07)
(0 1.92005e-23 0.000944676)
(0 -0 0.00109746)
(0 -0 0.00130718)
(0 -0 0.00157415)
(0 -0 0.00187971)
(0 -0 0.00218327)
(0 -0 0.00242791)
(0 -0 0.00255533)
(0 -0 0.00252548)
(0 -0 0.00233176)
(0 -0 0.0020045)
(0 -0 0.00160049)
(0 -0 0.00118423)
(0 -0 0.000809419)
(0 -0 0.000508056)
(0 -0 0.000289153)
(0 -0 0.000144627)
(0 -0 5.77616e-05)
(0 -0 1.04594e-05)
(0 -0 -1.24599e-05)
(0 -0 -2.17895e-05)
(0 -0 -2.42753e-05)
(0 -0 -2.36907e-05)
(0 -0 -2.19408e-05)
(0 -0 -1.98928e-05)
(0 -0 -1.7897e-05)
(0 -0 -1.60707e-05)
(0 -0 -1.44369e-05)
(0 -0 -1.29852e-05)
(0 -0 -1.16973e-05)
(0 -0 -1.05551e-05)
(0 -0 -9.5441e-06)
(0 -0 -8.65281e-06)
(0 -0 -7.87172e-06)
(0 -0 -7.19155e-06)
(0 -0 -6.60277e-06)
(0 -0 -6.09649e-06)
(0 -0 -5.66556e-06)
(0 -0 -5.30447e-06)
(0 -0 -5.00836e-06)
(0 -0 -4.77145e-06)
(0 -0 -4.58667e-06)
(0 -0 -4.44676e-06)
(0 -0 -4.35097e-06)
(0 9.34508e-24 0.00082232)
(0 -0 0.000963687)
(0 -0 0.0011628)
(0 -0 0.00141948)
(0 -0 0.0017161)
(0 -0 0.00201407)
(0 -0 0.00225871)
(0 -0 0.0023934)
(0 -0 0.00237834)
(0 -0 0.00220559)
(0 -0 0.00190276)
(0 -0 0.00152347)
(0 -0 0.00112941)
(0 -0 0.000772582)
(0 -0 0.000484458)
(0 -0 0.000274476)
(0 -0 0.000135488)
(0 -0 5.18125e-05)
(0 -0 6.23533e-06)
(0 -0 -1.57893e-05)
(0 -0 -2.4656e-05)
(0 -0 -2.68873e-05)
(0 -0 -2.61442e-05)
(0 -0 -2.428e-05)
(0 -0 -2.21402e-05)
(0 -0 -2.00662e-05)
(0 -0 -1.8172e-05)
(0 -0 -1.64787e-05)
(0 -0 -1.49752e-05)
(0 -0 -1.36419e-05)
(0 -0 -1.24602e-05)
(0 -0 -1.14149e-05)
(0 -0 -1.04942e-05)
(0 -0 -9.68846e-06)
(0 -0 -8.98803e-06)
(0 -0 -8.3831e-06)
(0 -0 -7.86454e-06)
(0 -0 -7.42485e-06)
(0 -0 -7.05801e-06)
(0 -0 -6.75834e-06)
(0 -0 -6.51943e-06)
(0 -0 -6.33424e-06)
(0 -0 -6.19581e-06)
(0 -0 -6.10444e-06)
(0 -0 0.000610549)
(0 -0 0.000734651)
(0 -0 0.000912039)
(0 -0 0.00114411)
(0 -0 0.00141603)
(0 -0 0.00169369)
(0 -0 0.00192788)
(0 -0 0.00206673)
(0 -0 0.00207266)
(0 -0 0.0019363)
(0 -0 0.00168045)
(0 -0 0.00135202)
(0 -0 0.0010062)
(0 -0 0.000690263)
(0 -0 0.000433509)
(0 -0 0.000245472)
(0 -0 0.000120555)
(0 -0 4.51811e-05)
(0 -0 4.11656e-06)
(0 -0 -1.56495e-05)
(0 -0 -2.34822e-05)
(0 -0 -2.52905e-05)
(0 -0 -2.4405e-05)
(0 -0 -2.25172e-05)
(0 -0 -2.04e-05)
(0 -0 -1.83648e-05)
(0 -0 -1.65137e-05)
(0 -0 -1.48641e-05)
(0 -0 -1.34033e-05)
(0 -0 -1.21113e-05)
(0 -0 -1.09693e-05)
(0 -0 -9.96215e-06)
(0 -0 -9.07807e-06)
(0 -0 -8.30726e-06)
(0 -0 -7.64011e-06)
(0 -0 -7.06683e-06)
(0 -0 -6.57842e-06)
(0 -0 -6.16744e-06)
(0 -0 -5.82761e-06)
(0 -0 -5.5528e-06)
(0 -0 -5.33641e-06)
(0 -0 -5.1719e-06)
(0 -0 -5.05293e-06)
(0 -0 -4.98129e-06)
(0 -0 0.000362703)
(0 -0 0.000460353)
(0 -0 0.000607384)
(0 -0 0.000804756)
(0 -0 0.00104058)
(0 -0 0.00128672)
(0 -0 0.00150159)
(0 -0 0.00164035)
(0 -0 0.00166916)
(0 -0 0.00157745)
(0 -0 0.00138197)
(0 -0 0.00112071)
(0 -0 0.000839795)
(0 -0 0.000579686)
(0 -0 0.000366252)
(0 -0 0.000208795)
(0 -0 0.000103611)
(0 -0 3.9902e-05)
(0 -0 5.14555e-06)
(0 -0 -1.15271e-05)
(0 -0 -1.80213e-05)
(0 -0 -1.93644e-05)
(0 -0 -1.84083e-05)
(0 -0 -1.66083e-05)
(0 -0 -1.46318e-05)
(0 -0 -1.27473e-05)
(0 -0 -1.10418e-05)
(0 -0 -9.52806e-06)
(0 -0 -8.1929e-06)
(0 -0 -7.01707e-06)
(0 -0 -5.98261e-06)
(0 -0 -5.07505e-06)
(0 -0 -4.28313e-06)
(0 -0 -3.59721e-06)
(0 -0 -3.00783e-06)
(0 -0 -2.50556e-06)
(0 -0 -2.08195e-06)
(0 -0 -1.72995e-06)
(0 -0 -1.44338e-06)
(0 -0 -1.21598e-06)
(0 -0 -1.04147e-06)
(0 -0 -9.14099e-07)
(0 -0 -8.2832e-07)
(0 -0 -7.87731e-07)
(0 -0 0.000123714)
(0 -0 0.000198351)
(0 -0 0.000314333)
(0 -0 0.000473819)
(0 -0 0.00066859)
(0 -0 0.000877123)
(0 -0 0.00106639)
(0 -0 0.00119959)
(0 -0 0.00124755)
(0 -0 0.00119908)
(0 -0 0.00106491)
(0 -0 0.000873582)
(0 -0 0.000661361)
(0 -0 0.000461065)
(0 -0 0.000294506)
(0 -0 0.000170411)
(0 -0 8.69048e-05)
(0 -0 3.60808e-05)
(0 -0 8.31504e-06)
(0 -0 -4.93314e-06)
(0 -0 -9.96369e-06)
(0 -0 -1.08246e-05)
(0 -0 -9.83074e-06)
(0 -0 -8.17105e-06)
(0 -0 -6.39241e-06)
(0 -0 -4.71436e-06)
(0 -0 -3.20619e-06)
(0 -0 -1.87569e-06)
(0 -0 -7.09378e-07)
(0 -0 3.10912e-07)
(0 -0 1.20186e-06)
(0 -0 1.97699e-06)
(0 -0 2.64709e-06)
(0 -0 3.22171e-06)
(0 -0 3.71013e-06)
(0 -0 4.12128e-06)
(0 -0 4.46287e-06)
(0 -0 4.74136e-06)
(0 -0 4.96263e-06)
(0 -0 5.13267e-06)
(0 -0 5.25719e-06)
(0 -0 5.34101e-06)
(0 -0 5.38892e-06)
(0 -0 5.39572e-06)
(0 -0 -6.11055e-05)
(0 -0 -6.61034e-06)
(0 -0 8.05506e-05)
(0 -0 0.000203328)
(0 -0 0.000356858)
(0 -0 0.000525899)
(0 -0 0.000685709)
(0 -0 0.000807525)
(0 -0 0.000867271)
(0 -0 0.000853801)
(0 -0 0.000772722)
(0 -0 0.000643958)
(0 -0 0.000494424)
(0 -0 0.000349488)
(0 -0 0.000226794)
(0 -0 0.000134201)
(0 -0 7.13228e-05)
(0 -0 3.28432e-05)
(0 -0 1.18137e-05)
(0 -0 1.8803e-06)
(0 -0 -1.73054e-06)
(0 -0 -2.12658e-06)
(0 -0 -1.10298e-06)
(0 -0 4.11465e-07)
(0 -0 1.98817e-06)
(0 -0 3.45628e-06)
(0 -0 4.76417e-06)
(0 -0 5.90905e-06)
(0 -0 6.90467e-06)
(0 -0 7.76794e-06)
(0 -0 8.51419e-06)
(0 -0 9.156e-06)
(0 -0 9.7039e-06)
(0 -0 1.01675e-05)
(0 -0 1.0556e-05)
(0 -0 1.08779e-05)
(0 -0 1.11401e-05)
(0 -0 1.13484e-05)
(0 -0 1.15083e-05)
(0 -0 1.16253e-05)
(0 -0 1.17044e-05)
(0 -0 1.17495e-05)
(0 -0 1.17648e-05)
(0 -0 1.1744e-05)
(0 -0 -0.000171658)
(0 -0 -0.000134032)
(0 -0 -7.18035e-05)
(0 -0 1.82416e-05)
(0 -0 0.000133825)
(0 -0 0.000264961)
(0 -0 0.000394111)
(0 -0 0.000499789)
(0 -0 0.000562856)
(0 -0 0.000572915)
(0 -0 0.000531769)
(0 -0 0.000452307)
(0 -0 0.000353521)
(0 -0 0.000254222)
(0 -0 0.000168184)
(0 -0 0.000102211)
(0 -0 5.69289e-05)
(0 -0 2.90705e-05)
(0 -0 1.38858e-05)
(0 -0 6.85519e-06)
(0 -0 4.50387e-06)
(0 -0 4.53273e-06)
(0 -0 5.59771e-06)
(0 -0 6.99772e-06)
(0 -0 8.40859e-06)
(0 -0 9.70288e-06)
(0 -0 1.08449e-05)
(0 -0 1.18364e-05)
(0 -0 1.26914e-05)
(0 -0 1.34255e-05)
(0 -0 1.40529e-05)
(0 -0 1.45855e-05)
(0 -0 1.50336e-05)
(0 -0 1.54074e-05)
(0 -0 1.57159e-05)
(0 -0 1.59674e-05)
(0 -0 1.61679e-05)
(0 -0 1.63229e-05)
(0 -0 1.64372e-05)
(0 -0 1.65158e-05)
(0 -0 1.65631e-05)
(0 -0 1.65824e-05)
(0 -0 1.65777e-05)
(0 -0 1.65414e-05)
(0 -0 -0.000212319)
(0 -0 -0.000187981)
(0 -0 -0.000145923)
(0 -0 -8.30456e-05)
(0 -0 1.25903e-07)
(0 -0 9.75892e-05)
(0 -0 0.000197529)
(0 -0 0.000284495)
(0 -0 0.000343765)
(0 -0 0.000366153)
(0 -0 0.00035103)
(0 -0 0.000306105)
(0 -0 0.000244235)
(0 -0 0.000178943)
(0 -0 0.000120702)
(0 -0 7.51942e-05)
(0 -0 4.36e-05)
(0 -0 2.40924e-05)
(0 -0 1.35537e-05)
(0 -0 8.86164e-06)
(0 -0 7.5472e-06)
(0 -0 7.9457e-06)
(0 -0 9.07062e-06)
(0 -0 1.0403e-05)
(0 -0 1.17031e-05)
(0 -0 1.28788e-05)
(0 -0 1.39076e-05)
(0 -0 1.4795e-05)
(0 -0 1.5555e-05)
(0 -0 1.62024e-05)
(0 -0 1.67502e-05)
(0 -0 1.72099e-05)
(0 -0 1.75921e-05)
(0 -0 1.79072e-05)
(0 -0 1.81648e-05)
(0 -0 1.83724e-05)
(0 -0 1.8536e-05)
(0 -0 1.86602e-05)
(0 -0 1.87497e-05)
(0 -0 1.88089e-05)
(0 -0 1.88416e-05)
(0 -0 1.88507e-05)
(0 -0 1.88404e-05)
(0 -0 1.88022e-05)
(0 -0 -0.00020264)
(0 -0 -0.000188086)
(0 -0 -0.000161293)
(0 -0 -0.000119487)
(0 -0 -6.21445e-05)
(0 -0 7.50038e-06)
(0 -0 8.18416e-05)
(0 -0 0.000150075)
(0 -0 0.00020113)
(0 -0 0.000227225)
(0 -0 0.000226429)
(0 -0 0.000202988)
(0 -0 0.000165378)
(0 -0 0.000123177)
(0 -0 8.42376e-05)
(0 -0 5.31862e-05)
(0 -0 3.13997e-05)
(0 -0 1.79537e-05)
(0 -0 1.08325e-05)
(0 -0 7.88958e-06)
(0 -0 7.37258e-06)
(0 -0 8.07561e-06)
(0 -0 9.27385e-06)
(0 -0 1.05831e-05)
(0 -0 1.18264e-05)
(0 -0 1.29383e-05)
(0 -0 1.39064e-05)
(0 -0 1.47387e-05)
(0 -0 1.54495e-05)
(0 -0 1.60525e-05)
(0 -0 1.65598e-05)
(0 -0 1.69829e-05)
(0 -0 1.73328e-05)
(0 -0 1.76205e-05)
(0 -0 1.78554e-05)
(0 -0 1.80452e-05)
(0 -0 1.81953e-05)
(0 -0 1.831e-05)
(0 -0 1.83938e-05)
(0 -0 1.84504e-05)
(0 -0 1.84836e-05)
(0 -0 1.84962e-05)
(0 -0 1.84926e-05)
(0 -0 1.84636e-05)
(0 -0 -0.000166112)
(0 -0 -0.000158274)
(0 -0 -0.000142292)
(0 -0 -0.00011579)
(0 -0 -7.77018e-05)
(0 -0 -2.9484e-05)
(0 -0 2.41428e-05)
(0 -0 7.57191e-05)
(0 -0 0.000116984)
(0 -0 0.00014151)
(0 -0 0.000146846)
(0 -0 0.000135125)
(0 -0 0.000111925)
(0 -0 8.40714e-05)
(0 -0 5.74808e-05)
(0 -0 3.5877e-05)
(0 -0 2.06098e-05)
(0 -0 1.12541e-05)
(0 -0 6.47437e-06)
(0 -0 4.7524e-06)
(0 -0 4.8095e-06)
(0 -0 5.74806e-06)
(0 -0 7.0215e-06)
(0 -0 8.33831e-06)
(0 -0 9.56532e-06)
(0 -0 1.06557e-05)
(0 -0 1.16036e-05)
(0 -0 1.2419e-05)
(0 -0 1.31159e-05)
(0 -0 1.37071e-05)
(0 -0 1.42045e-05)
(0 -0 1.46192e-05)
(0 -0 1.4963e-05)
(0 -0 1.52471e-05)
(0 -0 1.54812e-05)
(0 -0 1.56726e-05)
(0 -0 1.58265e-05)
(0 -0 1.59471e-05)
(0 -0 1.60385e-05)
(0 -0 1.61042e-05)
(0 -0 1.61479e-05)
(0 -0 1.61729e-05)
(0 -0 1.61836e-05)
(0 -0 1.61703e-05)
(0 -0 -0.000122058)
(0 -0 -0.000118516)
(0 -0 -0.000109706)
(0 -0 -9.36322e-05)
(0 -0 -6.90045e-05)
(0 -0 -3.6218e-05)
(0 -0 1.86257e-06)
(0 -0 4.00417e-05)
(0 -0 7.20833e-05)
(0 -0 9.27062e-05)
(0 -0 9.93868e-05)
(0 -0 9.30833e-05)
(0 -0 7.75833e-05)
(0 -0 5.79117e-05)
(0 -0 3.86371e-05)
(0 -0 2.27787e-05)
(0 -0 1.15561e-05)
(0 -0 4.78067e-06)
(0 -0 1.50175e-06)
(0 -0 5.77278e-07)
(0 -0 1.02066e-06)
(0 -0 2.12832e-06)
(0 -0 3.46749e-06)
(0 -0 4.8065e-06)
(0 -0 6.04052e-06)
(0 -0 7.13462e-06)
(0 -0 8.08716e-06)
(0 -0 8.90903e-06)
(0 -0 9.6136e-06)
(0 -0 1.02132e-05)
(0 -0 1.07192e-05)
(0 -0 1.11431e-05)
(0 -0 1.14969e-05)
(0 -0 1.17922e-05)
(0 -0 1.20386e-05)
(0 -0 1.22431e-05)
(0 -0 1.24107e-05)
(0 -0 1.25455e-05)
(0 -0 1.26513e-05)
(0 -0 1.27318e-05)
(0 -0 1.27906e-05)
(0 -0 1.28316e-05)
(0 -0 1.28595e-05)
(0 -0 1.28638e-05)
(0 -0 -8.23613e-05)
(0 -0 -8.13774e-05)
(0 -0 -7.70333e-05)
(0 -0 -6.76467e-05)
(0 -0 -5.18725e-05)
(0 -0 -2.9518e-05)
(0 -0 -2.31892e-06)
(0 -0 2.59795e-05)
(0 -0 5.05162e-05)
(0 -0 6.68878e-05)
(0 -0 7.26991e-05)
(0 -0 6.83146e-05)
(0 -0 5.648e-05)
(0 -0 4.11036e-05)
(0 -0 2.58689e-05)
(0 -0 1.32858e-05)
(0 -0 4.42097e-06)
(0 -0 -8.24073e-07)
(0 -0 -3.19968e-06)
(0 -0 -3.63679e-06)
(0 -0 -2.95204e-06)
(0 -0 -1.73353e-06)
(0 -0 -3.45273e-07)
(0 -0 1.01752e-06)
(0 -0 2.26721e-06)
(0 -0 3.37589e-06)
(0 -0 4.34408e-06)
(0 -0 5.18273e-06)
(0 -0 5.90459e-06)
(0 -0 6.5214e-06)
(0 -0 7.0444e-06)
(0 -0 7.48539e-06)
(0 -0 7.85671e-06)
(0 -0 8.1699e-06)
(0 -0 8.43424e-06)
(0 -0 8.65642e-06)
(0 -0 8.84132e-06)
(0 -0 8.99293e-06)
(0 -0 9.11493e-06)
(0 -0 9.21107e-06)
(0 -0 9.28551e-06)
(0 -0 9.34235e-06)
(0 -0 9.38666e-06)
(0 -0 9.40712e-06)
(0 -0 -5.19933e-05)
(0 -0 -5.24275e-05)
(0 -0 -5.07008e-05)
(0 -0 -4.53654e-05)
(0 -0 -3.50986e-05)
(0 -0 -1.94022e-05)
(0 -0 6.42253e-07)
(0 -0 2.21777e-05)
(0 -0 4.12302e-05)
(0 -0 5.40179e-05)
(0 -0 5.83249e-05)
(0 -0 5.4243e-05)
(0 -0 4.39392e-05)
(0 -0 3.06587e-05)
(0 -0 1.75304e-05)
(0 -0 6.71908e-06)
(0 -0 -8.4039e-07)
(0 -0 -5.22533e-06)
(0 -0 -7.08862e-06)
(0 -0 -7.2481e-06)
(0 -0 -6.42546e-06)
(0 -0 -5.14277e-06)
(0 -0 -3.72417e-06)
(0 -0 -2.34367e-06)
(0 -0 -1.0791e-06)
(0 -0 4.53004e-08)
(0 -0 1.03076e-06)
(0 -0 1.88775e-06)
(0 -0 2.62826e-06)
(0 -0 3.26359e-06)
(0 -0 3.80504e-06)
(0 -0 4.26472e-06)
(0 -0 4.65509e-06)
(0 -0 4.9874e-06)
(0 -0 5.27041e-06)
(0 -0 5.51043e-06)
(0 -0 5.7122e-06)
(0 -0 5.87967e-06)
(0 -0 6.01655e-06)
(0 -0 6.1268e-06)
(0 -0 6.21493e-06)
(0 -0 6.28542e-06)
(0 -0 6.34352e-06)
(0 -0 6.3771e-06)
(0 -0 -3.13128e-05)
(0 -0 -3.2477e-05)
(0 -0 -3.22005e-05)
(0 -0 -2.92001e-05)
(0 -0 -2.21992e-05)
(0 -0 -1.05508e-05)
(0 -0 5.03079e-06)
(0 -0 2.22156e-05)
(0 -0 3.75818e-05)
(0 -0 4.77614e-05)
(0 -0 5.06982e-05)
(0 -0 4.63682e-05)
(0 -0 3.66242e-05)
(0 -0 2.43264e-05)
(0 -0 1.22666e-05)
(0 -0 2.38841e-06)
(0 -0 -4.4705e-06)
(0 -0 -8.39086e-06)
(0 -0 -9.97903e-06)
(0 -0 -9.99267e-06)
(0 -0 -9.1009e-06)
(0 -0 -7.78838e-06)
(0 -0 -6.35649e-06)
(0 -0 -4.96721e-06)
(0 -0 -3.69307e-06)
(0 -0 -2.55673e-06)
(0 -0 -1.55721e-06)
(0 -0 -6.84932e-07)
(0 -0 7.13247e-08)
(0 -0 7.22589e-07)
(0 -0 1.28033e-06)
(0 -0 1.75694e-06)
(0 -0 2.16478e-06)
(0 -0 2.51456e-06)
(0 -0 2.81438e-06)
(0 -0 3.07016e-06)
(0 -0 3.28656e-06)
(0 -0 3.46754e-06)
(0 -0 3.61689e-06)
(0 -0 3.73879e-06)
(0 -0 3.83809e-06)
(0 -0 3.91947e-06)
(0 -0 3.98825e-06)
(0 -0 4.03156e-06)
(0 -0 -1.84658e-05)
(0 -0 -1.9977e-05)
(0 -0 -2.04657e-05)
(0 -0 -1.87603e-05)
(0 -0 -1.3631e-05)
(0 -0 -4.36109e-06)
(0 -0 8.53963e-06)
(0 -0 2.30519e-05)
(0 -0 3.6092e-05)
(0 -0 4.45584e-05)
(0 -0 4.65127e-05)
(0 -0 4.18818e-05)
(0 -0 3.23434e-05)
(0 -0 2.0532e-05)
(0 -0 9.0361e-06)
(0 -0 -3.38488e-07)
(0 -0 -6.81804e-06)
(0 -0 -1.04903e-05)
(0 -0 -1.19372e-05)
(0 -0 -1.18823e-05)
(0 -0 -1.0964e-05)
(0 -0 -9.6451e-06)
(0 -0 -8.2134e-06)
(0 -0 -6.82397e-06)
(0 -0 -5.54662e-06)
(0 -0 -4.40368e-06)
(0 -0 -3.39498e-06)
(0 -0 -2.512e-06)
(0 -0 -1.74428e-06)
(0 -0 -1.08096e-06)
(0 -0 -5.1028e-07)
(0 -0 -1.97001e-08)
(0 -0 4.02849e-07)
(0 -0 7.67357e-07)
(0 -0 1.08123e-06)
(0 -0 1.35005e-06)
(0 -0 1.57844e-06)
(0 -0 1.77045e-06)
(0 -0 1.92994e-06)
(0 -0 2.06129e-06)
(0 -0 2.16952e-06)
(0 -0 2.25934e-06)
(0 -0 2.33609e-06)
(0 -0 2.38617e-06)
(0 -0 -1.10703e-05)
(0 -0 -1.27312e-05)
(0 -0 -1.36096e-05)
(0 -0 -1.26099e-05)
(0 -0 -8.54099e-06)
(0 -0 -6.54637e-07)
(0 -0 1.06576e-05)
(0 -0 2.35653e-05)
(0 -0 3.51958e-05)
(0 -0 4.2618e-05)
(0 -0 4.39724e-05)
(0 -0 3.91596e-05)
(0 -0 2.97501e-05)
(0 -0 1.82384e-05)
(0 -0 7.08639e-06)
(0 -0 -1.9858e-06)
(0 -0 -8.24355e-06)
(0 -0 -1.17778e-05)
(0 -0 -1.31538e-05)
(0 -0 -1.30726e-05)
(0 -0 -1.21526e-05)
(0 -0 -1.0842e-05)
(0 -0 -9.42001e-06)
(0 -0 -8.03738e-06)
(0 -0 -6.76247e-06)
(0 -0 -5.61795e-06)
(0 -0 -4.60475e-06)
(0 -0 -3.71551e-06)
(0 -0 -2.94044e-06)
(0 -0 -2.26874e-06)
(0 -0 -1.68842e-06)
(0 -0 -1.18687e-06)
(0 -0 -7.52509e-07)
(0 -0 -3.7614e-07)
(0 -0 -5.09779e-08)
(0 -0 2.28335e-07)
(0 -0 4.66453e-07)
(0 -0 6.67485e-07)
(0 -0 8.35374e-07)
(0 -0 9.74577e-07)
(0 -0 1.09013e-06)
(0 -0 1.18661e-06)
(0 -0 1.26931e-06)
(0 -0 1.32396e-06)
(0 -0 -7.07476e-06)
(0 -0 -8.7912e-06)
(0 -0 -9.86601e-06)
(0 -0 -9.25722e-06)
(0 -0 -5.80521e-06)
(0 -0 1.25399e-06)
(0 -0 1.16032e-05)
(0 -0 2.35356e-05)
(0 -0 3.43193e-05)
(0 -0 4.11359e-05)
(0 -0 4.21765e-05)
(0 -0 3.732e-05)
(0 -0 2.80611e-05)
(0 -0 1.67976e-05)
(0 -0 5.90585e-06)
(0 -0 -2.94946e-06)
(0 -0 -9.05654e-06)
(0 -0 -1.25046e-05)
(0 -0 -1.3844e-05)
(0 -0 -1.3758e-05)
(0 -0 -1.28496e-05)
(0 -0 -1.1556e-05)
(0 -0 -1.01499e-05)
(0 -0 -8.77895e-06)
(0 -0 -7.51077e-06)
(0 -0 -6.36864e-06)
(0 -0 -5.35473e-06)
(0 -0 -4.4628e-06)
(0 -0 -3.68366e-06)
(0 -0 -3.00656e-06)
(0 -0 -2.4193e-06)
(0 -0 -1.90939e-06)
(0 -0 -1.46584e-06)
(0 -0 -1.08019e-06)
(0 -0 -7.46116e-07)
(0 -0 -4.58388e-07)
(0 -0 -2.1229e-07)
(0 -0 -3.67127e-09)
(0 -0 1.71435e-07)
(0 -0 3.17483e-07)
(0 -0 4.39365e-07)
(0 -0 5.41375e-07)
(0 -0 6.28697e-07)
(0 -0 6.86456e-07)
(0 -0 -5.02057e-06)
(0 -0 -6.75062e-06)
(0 -0 -7.92764e-06)
(0 -0 -7.55058e-06)
(0 -0 -4.48555e-06)
(0 -0 2.04034e-06)
(0 -0 1.17632e-05)
(0 -0 2.30671e-05)
(0 -0 3.33233e-05)
(0 -0 3.97945e-05)
(0 -0 4.07046e-05)
(0 -0 3.59097e-05)
(0 -0 2.6842e-05)
(0 -0 1.58236e-05)
(0 -0 5.16642e-06)
(0 -0 -3.5043e-06)
(0 -0 -9.48996e-06)
(0 -0 -1.28741e-05)
(0 -0 -1.41925e-05)
(0 -0 -1.41118e-05)
(0 -0 -1.32215e-05)
(0 -0 -1.19494e-05)
(0 -0 -1.05628e-05)
(0 -0 -9.20663e-06)
(0 -0 -7.9481e-06)
(0 -0 -6.81121e-06)
(0 -0 -5.79932e-06)
(0 -0 -4.90727e-06)
(0 -0 -4.12645e-06)
(0 -0 -3.44611e-06)
(0 -0 -2.85403e-06)
(0 -0 -2.33792e-06)
(0 -0 -1.8874e-06)
(0 -0 -1.49462e-06)
(0 -0 -1.15357e-06)
(0 -0 -8.59038e-07)
(0 -0 -6.0626e-07)
(0 -0 -3.91081e-07)
(0 -0 -2.09552e-07)
(0 -0 -5.73031e-08)
(0 -0 7.02863e-08)
(0 -0 1.77129e-07)
(0 -0 2.68284e-07)
(0 -0 3.28324e-07)
(0 -0 -3.99417e-06)
(0 -0 -5.72011e-06)
(0 -0 -6.95531e-06)
(0 -0 -6.7328e-06)
(0 -0 -3.94095e-06)
(0 -0 2.19935e-06)
(0 -0 1.14677e-05)
(0 -0 2.23228e-05)
(0 -0 3.22205e-05)
(0 -0 3.84883e-05)
(0 -0 3.93724e-05)
(0 -0 3.4705e-05)
(0 -0 2.58613e-05)
(0 -0 1.50968e-05)
(0 -0 4.66929e-06)
(0 -0 -3.82722e-06)
(0 -0 -9.70217e-06)
(0 -0 -1.30312e-05)
(0 -0 -1.43346e-05)
(0 -0 -1.42633e-05)
(0 -0 -1.33939e-05)
(0 -0 -1.21455e-05)
(0 -0 -1.078e-05)
(0 -0 -9.44038e-06)
(0 -0 -8.19328e-06)
(0 -0 -7.06345e-06)
(0 -0 -6.05541e-06)
(0 -0 -5.16499e-06)
(0 -0 -4.38409e-06)
(0 -0 -3.70208e-06)
(0 -0 -3.10676e-06)
(0 -0 -2.5862e-06)
(0 -0 -2.13053e-06)
(0 -0 -1.73237e-06)
(0 -0 -1.38586e-06)
(0 -0 -1.08576e-06)
(0 -0 -8.2732e-07)
(0 -0 -6.06405e-07)
(0 -0 -4.19105e-07)
(0 -0 -2.61187e-07)
(0 -0 -1.28364e-07)
(0 -0 -1.71476e-08)
(0 -0 7.74072e-08)
(0 -0 1.39335e-07)
(0 -0 -3.4756e-06)
(0 -0 -5.18993e-06)
(0 -0 -6.4631e-06)
(0 -0 -6.35868e-06)
(0 -0 -3.78555e-06)
(0 -0 2.04047e-06)
(0 -0 1.09377e-05)
(0 -0 2.1432e-05)
(0 -0 3.10549e-05)
(0 -0 3.71906e-05)
(0 -0 3.81031e-05)
(0 -0 3.35992e-05)
(0 -0 2.49994e-05)
(0 -0 1.4497e-05)
(0 -0 4.30005e-06)
(0 -0 -4.02466e-06)
(0 -0 -9.79218e-06)
(0 -0 -1.30688e-05)
(0 -0 -1.43593e-05)
(0 -0 -1.42987e-05)
(0 -0 -1.34509e-05)
(0 -0 -1.22265e-05)
(0 -0 -1.08828e-05)
(0 -0 -9.56043e-06)
(0 -0 -8.3257e-06)
(0 -0 -7.20401e-06)
(0 -0 -6.20096e-06)
(0 -0 -5.3133e-06)
(0 -0 -4.53342e-06)
(0 -0 -3.85083e-06)
(0 -0 -3.2535e-06)
(0 -0 -2.72985e-06)
(0 -0 -2.27048e-06)
(0 -0 -1.86829e-06)
(0 -0 -1.51747e-06)
(0 -0 -1.21279e-06)
(0 -0 -9.49561e-07)
(0 -0 -7.23692e-07)
(0 -0 -5.31311e-07)
(0 -0 -3.68323e-07)
(0 -0 -2.30773e-07)
(0 -0 -1.15564e-07)
(0 -0 -1.78251e-08)
(0 -0 4.58906e-08)
(0 -0 -3.19068e-06)
(0 -0 -4.88986e-06)
(0 -0 -6.19144e-06)
(0 -0 -6.18792e-06)
(0 -0 -3.80784e-06)
(0 -0 1.73727e-06)
(0 -0 1.03021e-05)
(0 -0 2.04762e-05)
(0 -0 2.98625e-05)
(0 -0 3.58988e-05)
(0 -0 3.68647e-05)
(0 -0 3.25415e-05)
(0 -0 2.41957e-05)
(0 -0 1.39604e-05)
(0 -0 3.9958e-06)
(0 -0 -4.15704e-06)
(0 -0 -9.81762e-06)
(0 -0 -1.30424e-05)
(0 -0 -1.43201e-05)
(0 -0 -1.42699e-05)
(0 -0 -1.34433e-05)