/*--------------------------------*- C++ -*----------------------------------*\
| =========                 |                                                 |
| \\      /  F ield         | OpenFOAM: The Open Source CFD Toolbox           |
|  \\    /   O peration     | Version:  2412                                  |
|   \\  /    A nd           | Website:  www.openfoam.com                      |
|    \\/     M anipulation  |                                                 |
\*---------------------------------------------------------------------------*/
FoamFile
{
    version     2.0;
    format      ascii;
    arch        "LSB;label=32;scalar=64";
    class       volVectorField;
    location    "20.5";
    object      U;
}
// * * * * * * * * * * * * * * * * * * * * * * * * * * * * * * * * * * * * * //

dimensions      [0 1 -1 0 0 0 0];

internalField   nonuniform List<vector> 
5285
(
(0.0247419 -0.00158495 2.78701e-24)
(0.027681 -0.00158904 0)
(0.0306274 -0.00158433 2.06075e-24)
(0.0335653 -0.00157161 0)
(0.0364805 -0.00155166 0)
(0.0393597 -0.00152522 0)
(0.0421914 -0.00149305 9.2051e-25)
(0.044965 -0.00145589 0)
(0.0476714 -0.00141443 -5.0471e-25)
(0.0503027 -0.00136938 3.32382e-25)
(0.0528522 -0.00132138 -1.82017e-25)
(0.0553145 -0.00127108 -6.25393e-26)
(0.0576852 -0.00121905 1.73687e-25)
(0.059961 -0.00116585 1.45136e-24)
(0.0621397 -0.00111198 -3.54002e-24)
(0.0642198 -0.00105791 2.1675e-24)
(0.0662011 -0.00100405 3.45591e-25)
(0.0680836 -0.000950786 -3.85763e-25)
(0.0698683 -0.000898444 0)
(0.071557 -0.000847309 -4.38231e-25)
(0.0731516 -0.000797628 2.29945e-24)
(0.0746548 -0.000749604 -2.31094e-24)
(0.0760695 -0.000703401 4.65038e-25)
(0.077399 -0.000659146 -1.3942e-24)
(0.0786468 -0.000616934 4.71784e-25)
(0.0798167 -0.000576821 9.02533e-25)
(0.0809123 -0.000538832 -4.50814e-25)
(0.0819376 -0.000502962 4.31569e-25)
(0.0256729 -0.00471704 1.59899e-22)
(0.0285693 -0.00473011 -1.73653e-22)
(0.031472 -0.00471699 1.2117e-22)
(0.0343656 -0.00468002 -7.18305e-23)
(0.0372364 -0.00462148 -9.40198e-23)
(0.0400716 -0.0045436 4.24352e-23)
(0.0428598 -0.00444859 -9.2288e-25)
(0.0455909 -0.00433862 -1.49984e-24)
(0.048256 -0.0042158 5.0581e-25)
(0.0508473 -0.00408219 -1.08046e-24)
(0.0533584 -0.00393975 3.87825e-24)
(0.0557839 -0.00379035 -4.43798e-24)
(0.0581195 -0.00363573 2.41665e-25)
(0.060362 -0.00347755 4.0098e-25)
(0.0625092 -0.00331732 -2.30687e-25)
(0.0645597 -0.00315643 0)
(0.066513 -0.00299612 6.04213e-24)
(0.0683695 -0.00283753 -5.36119e-24)
(0.07013 -0.00268164 -5.94348e-24)
(0.0717961 -0.00252931 8.03228e-24)
(0.0733698 -0.00238127 -4.52895e-25)
(0.0748537 -0.00223814 -2.31048e-24)
(0.0762507 -0.00210041 4.11424e-24)
(0.0775639 -0.00196846 4.6375e-25)
(0.0787968 -0.00184258 3.16665e-24)
(0.079953 -0.00172294 3.98936e-25)
(0.0810361 -0.00160961 -9.1072e-25)
(0.0820501 -0.00150256 -1.29937e-24)
(0.0274755 -0.00773984 -1.70207e-22)
(0.0302889 -0.00776458 1.81184e-22)
(0.0331066 -0.00774616 4.52095e-24)
(0.0359144 -0.0076885 -3.84147e-24)
(0.0386992 -0.00759528 3.21605e-24)
(0.0414492 -0.0074701 -7.03625e-23)
(0.0441536 -0.00731654 7.30767e-23)
(0.0468027 -0.00713814 -4.05467e-23)
(0.0493881 -0.00693838 4.37579e-23)
(0.0519023 -0.00672061 7.50371e-25)
(0.0543392 -0.00648805 1.12162e-23)
(0.0566937 -0.00624378 -1.43348e-23)
(0.0589616 -0.00599071 3.21873e-24)
(0.0611398 -0.00573154 -4.94171e-24)
(0.0632262 -0.00546878 4.37184e-24)
(0.0652195 -0.00520473 0)
(0.0671191 -0.00494148 -7.01176e-26)
(0.0689252 -0.00468089 0)
(0.0706388 -0.00442461 -1.28273e-23)
(0.0722613 -0.00417407 1.19374e-23)
(0.0737947 -0.00393049 -8.28812e-25)
(0.0752412 -0.0036949 -4.29845e-26)
(0.0766038 -0.00346812 -7.15069e-24)
(0.0778854 -0.00325079 1.3343e-23)
(0.0790894 -0.0030434 -7.13225e-24)
(0.0802191 -0.00284623 3.42464e-24)
(0.0812781 -0.00265942 -2.60715e-24)
(0.0822701 -0.00248285 -8.7013e-25)
(0.0300389 -0.0105867 0)
(0.0327335 -0.0106272 5.623e-24)
(0.03543 -0.0106089 2.96812e-25)
(0.0381157 -0.0105363 3.87781e-24)
(0.0407785 -0.0104148 -1.99456e-22)
(0.0434077 -0.010249 1.96525e-22)
(0.0459932 -0.0100439 0)
(0.0485262 -0.00980413 -4.95108e-23)
(0.0509987 -0.00953453 5.11913e-23)
(0.0534039 -0.00923967 0)
(0.055736 -0.00892396 -1.65269e-25)
(0.05799 -0.00859164 -7.62375e-24)
(0.0601622 -0.00824672 7.60983e-24)
(0.0622496 -0.00789295 5.95919e-24)
(0.06425 -0.00753381 -1.70841e-23)
(0.0661622 -0.0071725 2.65098e-23)
(0.0679857 -0.00681192 -1.5453e-23)
(0.0697206 -0.00645466 -1.07062e-23)
(0.0713677 -0.00610304 9.30877e-24)
(0.0729284 -0.00575906 7.20295e-25)
(0.0744044 -0.00542444 1.30723e-23)
(0.0757979 -0.00510061 -2.79898e-23)
(0.0771116 -0.00478875 1.32847e-23)
(0.0783483 -0.00448976 4.80185e-26)
(0.079511 -0.00420432 -8.62482e-25)
(0.080603 -0.00393286 -3.92831e-26)
(0.0816276 -0.00367553 8.36223e-25)
(0.0825882 -0.00343215 -1.60126e-24)
(0.0357625 -0.0132604 -3.56818e-22)
(0.0383082 -0.0132495 3.46031e-22)
(0.0408423 -0.0131706 0)
(0.0433542 -0.0130297 0)
(0.045834 -0.0128327 -2.94343e-24)
(0.048273 -0.0125856 -1.45444e-22)
(0.0506629 -0.0122942 1.43476e-22)
(0.0529966 -0.0119644 -1.46426e-24)
(0.0552677 -0.011602 -3.07852e-23)
(0.0574708 -0.0112124 3.28122e-23)
(0.0596014 -0.0108011 0)
(0.0616559 -0.0103731 1.7795e-25)
(0.0636314 -0.00993318 0)
(0.065526 -0.00948572 7.35045e-24)
(0.0673384 -0.00903484 -7.42604e-24)
(0.0690681 -0.00858424 1.49926e-23)
(0.0707151 -0.00813726 -1.54713e-23)
(0.0722802 -0.00769686 1.22198e-24)
(0.0737644 -0.00726563 -7.20136e-25)
(0.0751695 -0.0068458 8.27004e-26)
(0.0764975 -0.00643921 7.91492e-25)
(0.0777506 -0.0060474 -8.08701e-25)
(0.0789315 -0.00567156 7.13909e-24)
(0.0800431 -0.00531257 -1.26321e-23)
(0.0810882 -0.00497099 9.38568e-24)
(0.08207 -0.00464705 -3.12448e-24)
(0.0829915 -0.0043404 3.99424e-26)
(0.0392165 -0.0156257 3.84035e-22)
(0.0415895 -0.015634 -3.83474e-22)
(0.0439506 -0.0155606 -2.86043e-22)
(0.0462907 -0.0154124 2.81301e-22)
(0.0486011 -0.0151964 0)
(0.050874 -0.0149193 0)
(0.0531021 -0.0145881 1.34866e-22)
(0.0552788 -0.0142097 -2.85896e-23)
(0.0573983 -0.0137908 -1.08839e-22)
(0.0594558 -0.0133381 -5.94785e-23)
(0.0614469 -0.012858 9.61512e-23)
(0.0633684 -0.0123567 -2.81038e-23)
(0.0652176 -0.0118397 -1.13542e-23)
(0.0669925 -0.0113127 2.08907e-24)
(0.068692 -0.0107805 -9.0798e-24)
(0.0703154 -0.0102476 1.86936e-23)
(0.0718629 -0.00971822 3.71024e-24)
(0.0733348 -0.00919592 -1.47652e-23)
(0.0747322 -0.00868392 -1.93868e-23)
(0.0760567 -0.00818495 3.10839e-23)
(0.0773098 -0.00770132 -2.08331e-23)
(0.0784939 -0.00723493 1.1656e-23)
(0.0796111 -0.00678727 -1.2254e-23)
(0.080664 -0.00635946 1.22497e-23)
(0.0816554 -0.00595223 -7.54611e-25)
(0.082588 -0.00556585 3.56469e-24)
(0.0834649 -0.00519987 -1.44477e-24)
(0.0429316 -0.0177181 -4.80933e-22)
(0.0451186 -0.0177567 0)
(0.0472942 -0.0177005 0)
(0.0494506 -0.0175568 4.41252e-24)
(0.0515804 -0.0173335 -2.3165e-22)
(0.0536765 -0.0170381 2.31061e-22)
(0.0557324 -0.0166785 0)
(0.0577423 -0.0162624 0)
(0.0597009 -0.0157978 1.6153e-24)
(0.0616035 -0.0152923 -7.44605e-23)
(0.0634465 -0.0147534 1.30896e-22)
(0.0652265 -0.0141881 -5.43844e-23)
(0.0669412 -0.0136033 3.30596e-25)
(0.0685886 -0.0130053 1.14097e-25)
(0.0701676 -0.0124 -2.02082e-24)
(0.0716776 -0.0117927 8.46845e-24)
(0.0731185 -0.0111883 -6.99789e-24)
(0.0744906 -0.0105911 1.31027e-23)
(0.0757949 -0.010005 2.45464e-24)
(0.0770325 -0.00943326 1.31885e-24)
(0.0782052 -0.00887859 -1.84045e-23)
(0.0793146 -0.00834331 -1.07452e-23)
(0.0803629 -0.00782922 1.07389e-23)
(0.0813524 -0.00733771 -6.90221e-25)
(0.0822854 -0.00686966 -5.3072e-24)
(0.0831646 -0.00642549 4.60305e-24)
(0.0839927 -0.00600475 -6.81151e-25)
(0.082899 -0.000469077 0)
(0.0838066 -0.000437027 0)
(0.0846687 -0.000406612 0)
(0.0854863 -0.000377889 0)
(0.0862611 -0.000350862 0)
(0.0869947 -0.00032551 0)
(0.0876886 -0.000301801 0)
(0.0883448 -0.000279692 0)
(0.088965 -0.000259128 0)
(0.0895511 -0.000240048 0)
(0.0901049 -0.000222384 0)
(0.0906283 -0.000206065 0)
(0.0911231 -0.000191012 0)
(0.091591 -0.000177149 0)
(0.0920338 -0.000164394 0)
(0.0924531 -0.000152667 0)
(0.0928503 -0.000141888 0)
(0.0932271 -0.000131977 0)
(0.0935847 -0.000122856 0)
(0.0939244 -0.000114446 0)
(0.0942472 -0.000106672 0)
(0.0945541 -9.94595e-05 0)
(0.0948461 -9.2736e-05 0)
(0.0951237 -8.64351e-05 0)
(0.0953875 -8.04976e-05 0)
(0.0956379 -7.48742e-05 0)
(0.0958753 -6.9529e-05 0)
(0.0960999 -6.44411e-05 0)
(0.096312 -5.96057e-05 0)
(0.0965119 -5.50324e-05 0)
(0.0967 -5.07412e-05 0)
(0.0968768 -4.67565e-05 0)
(0.097043 -4.31005e-05 0)
(0.0971993 -3.97867e-05 0)
(0.0973466 -3.68152e-05 0)
(0.0974859 -3.4171e-05 0)
(0.097618 -3.18253e-05 0)
(0.0977437 -2.97394e-05 0)
(0.0978638 -2.78699e-05 0)
(0.0979787 -2.61742e-05 0)
(0.0980889 -2.46144e-05 0)
(0.0981946 -2.31606e-05 0)
(0.0982962 -2.17906e-05 0)
(0.0983936 -2.04902e-05 0)
(0.083 -0.00140148 0)
(0.0838965 -0.00130599 0)
(0.0847485 -0.00121535 0)
(0.0855572 -0.00112973 0)
(0.0863239 -0.00104914 0)
(0.0870503 -0.000973513 0)
(0.0877379 -0.000902764 0)
(0.0883884 -0.000836763 0)
(0.0890036 -0.000775354 0)
(0.0895853 -0.000718358 0)
(0.0901352 -0.000665576 0)
(0.0906551 -0.000616794 0)
(0.0911468 -0.000571789 0)
(0.091612 -0.000530327 0)
(0.0920524 -0.000492171 0)
(0.0924695 -0.000457083 0)
(0.0928648 -0.000424824 0)
(0.0932399 -0.000395157 0)
(0.093596 -0.000367849 0)
(0.0939342 -0.000342668 0)
(0.0942558 -0.000319387 0)
(0.0945616 -0.000297783 0)
(0.0948525 -0.000277644 0)
(0.0951291 -0.000258771 0)
(0.0953921 -0.000240987 0)
(0.0956418 -0.000224146 0)
(0.0958785 -0.00020814 0)
(0.0961026 -0.000192909 0)
(0.0963142 -0.000178436 0)
(0.0965137 -0.00016475 0)
(0.0967015 -0.000151911 0)
(0.0968781 -0.00013999 0)
(0.0970441 -0.000129054 0)
(0.0972004 -0.000119141 0)
(0.0973477 -0.000110253 0)
(0.097487 -0.000102343 0)
(0.0976191 -9.5325e-05 0)
(0.0977448 -8.90838e-05 0)
(0.0978649 -8.34898e-05 0)
(0.0979798 -7.84154e-05 0)
(0.09809 -7.37481e-05 0)
(0.0981958 -6.93977e-05 0)
(0.0982973 -6.52985e-05 0)
(0.0983947 -6.14077e-05 0)
(0.0831977 -0.00231632 0)
(0.0840727 -0.00215935 0)
(0.0849052 -0.00201034 0)
(0.0856963 -0.0018695 0)
(0.0864473 -0.00173686 0)
(0.0871597 -0.00161231 0)
(0.0878349 -0.00149571 0)
(0.0884744 -0.00138687 0)
(0.0890799 -0.00128553 0)
(0.0896528 -0.00119142 0)
(0.090195 -0.00110421 0)
(0.0907082 -0.00102357 0)
(0.0911938 -0.000949134 0)
(0.0916537 -0.000880521 0)
(0.0920893 -0.000817349 0)
(0.0925021 -0.000759229 0)
(0.0928937 -0.000705771 0)
(0.0932654 -0.00065659 0)
(0.0936184 -0.0006113 0)
(0.0939539 -0.000569523 0)
(0.094273 -0.000530887 0)
(0.0945765 -0.000495025 0)
(0.0948654 -0.00046159 0)
(0.0951402 -0.000430254 0)
(0.0954014 -0.000400727 0)
(0.0956496 -0.000372767 0)
(0.095885 -0.000346197 0)
(0.096108 -0.000320915 0)
(0.0963186 -0.000296896 0)
(0.0965174 -0.000274184 0)
(0.0967046 -0.000252876 0)
(0.0968808 -0.000233088 0)
(0.0970466 -0.000214928 0)
(0.0972027 -0.00019846 0)
(0.0973499 -0.000183684 0)
(0.0974892 -0.000170525 0)
(0.0976214 -0.000158841 0)
(0.0977472 -0.000148443 0)
(0.0978673 -0.000139117 0)
(0.0979822 -0.000130654 0)
(0.0980924 -0.00012287 0)
(0.0981981 -0.000115614 0)
(0.0982995 -0.000108778 0)
(0.0983968 -0.000102292 0)
(0.083484 -0.00320298 0)
(0.0843281 -0.0029877 0)
(0.0851327 -0.00278327 0)
(0.0858988 -0.00258991 0)
(0.0866274 -0.00240762 0)
(0.0873197 -0.00223629 0)
(0.0879771 -0.00207574 0)
(0.0886006 -0.00192572 0)
(0.0891919 -0.00178592 0)
(0.0897523 -0.00165597 0)
(0.0902834 -0.00153545 0)
(0.0907866 -0.00142392 0)
(0.0912634 -0.00132088 0)
(0.0917154 -0.00122584 0)
(0.0921441 -0.00113827 0)
(0.0925507 -0.00105766 0)
(0.0929367 -0.000983458 0)
(0.0933034 -0.000915151 0)
(0.0936519 -0.000852215 0)
(0.0939834 -0.00079413 0)
(0.0942988 -0.000740387 0)
(0.094599 -0.000690488 0)
(0.0948848 -0.000643952 0)
(0.0951568 -0.000600332 0)
(0.0954156 -0.000559229 0)
(0.0956616 -0.000520312 0)
(0.095895 -0.000483336 0)
(0.0961163 -0.000448158 0)
(0.0963255 -0.000414741 0)
(0.0965232 -0.000383144 0)
(0.0967095 -0.000353495 0)
(0.0968851 -0.000325954 0)
(0.0970504 -0.000300663 0)
(0.0972063 -0.000277711 0)
(0.0973534 -0.000257096 0)
(0.0974927 -0.000238715 0)
(0.0976249 -0.000222377 0)
(0.0977507 -0.000207819 0)
(0.0978708 -0.000194751 0)
(0.0979858 -0.000182885 0)
(0.0980959 -0.000171968 0)
(0.0982015 -0.000161792 0)
(0.0983028 -0.000152209 0)
(0.0983999 -0.00014312 0)
(0.0838477 -0.0040524 0)
(0.0846534 -0.00378303 0)
(0.0854233 -0.00352707 0)
(0.086158 -0.0032847 0)
(0.0868586 -0.0030559 0)
(0.0875258 -0.00284058 0)
(0.0881606 -0.00263854 0)
(0.088764 -0.00244952 0)
(0.0893373 -0.00227316 0)
(0.0898817 -0.00210905 0)
(0.0903985 -0.0019567 0)
(0.090889 -0.00181555 0)
(0.0913545 -0.00168504 0)
(0.0917964 -0.00156453 0)
(0.0922161 -0.00145341 0)
(0.0926147 -0.00135101 0)
(0.0929935 -0.00125668 0)
(0.0933537 -0.00116978 0)
(0.0936964 -0.00108965 0)
(0.0940225 -0.00101565 0)
(0.0943331 -0.000947142 0)
(0.094629 -0.000883502 0)
(0.0949108 -0.000824132 0)
(0.0951793 -0.000768474 0)
(0.0954348 -0.000716026 0)
(0.0956778 -0.000666372 0)
(0.0959087 -0.000619204 0)
(0.0961277 -0.00057434 0)
(0.0963351 -0.000531728 0)
(0.0965312 -0.000491438 0)
(0.0967164 -0.000453625 0)
(0.0968911 -0.000418483 0)
(0.0970559 -0.000386189 0)
(0.0972114 -0.00035685 0)
(0.0973583 -0.000330464 0)
(0.0974976 -0.000306903 0)
(0.0976297 -0.000285925 0)
(0.0977556 -0.000267207 0)
(0.0978757 -0.000250384 0)
(0.0979906 -0.000235097 0)
(0.0981006 -0.000221026 0)
(0.0982061 -0.000207914 0)
(0.0983072 -0.00019557 0)
(0.0984041 -0.000183868 0)
(0.0842758 -0.00485755 0)
(0.0850375 -0.00453911 0)
(0.0857676 -0.0042362 0)
(0.0864665 -0.00394891 0)
(0.0871347 -0.00367725 0)
(0.0877727 -0.00342117 0)
(0.0883812 -0.00318052 0)
(0.0889611 -0.00295505 0)
(0.0895133 -0.0027444 0)
(0.0900387 -0.00254812 0)
(0.0905386 -0.00236568 0)
(0.0910139 -0.00219646 0)
(0.0914659 -0.00203981 0)
(0.0918957 -0.00189501 0)
(0.0923045 -0.00176134 0)
(0.0926934 -0.00163804 0)
(0.0930635 -0.00152435 0)
(0.0934159 -0.0014195 0)
(0.0937515 -0.00132274 0)
(0.0940713 -0.0012333 0)
(0.094376 -0.00115045 0)
(0.0946666 -0.00107344 0)
(0.0949436 -0.00100157 0)
(0.0952076 -0.000934177 0)
(0.0954591 -0.000870671 0)
(0.0956986 -0.000810555 0)
(0.0959263 -0.000753462 0)
(0.0961426 -0.000699172 0)
(0.0963477 -0.000647617 0)
(0.0965419 -0.000598871 0)
(0.0967256 -0.000553112 0)
(0.0968992 -0.000510561 0)
(0.0970632 -0.000471423 0)
(0.0972182 -0.00043582 0)
(0.0973648 -0.000403749 0)
(0.0975039 -0.00037506 0)
(0.097636 -0.000349467 0)
(0.0977618 -0.00032659 0)
(0.0978819 -0.000305999 0)
(0.0979967 -0.00028727 0)
(0.0981066 -0.000270024 0)
(0.0982119 -0.000253954 0)
(0.0983128 -0.000238833 0)
(0.0984094 -0.000224508 0)
(0.084755 -0.00561359 0)
(0.0854694 -0.00525175 0)
(0.0861567 -0.00490686 0)
(0.0868166 -0.00457901 0)
(0.0874493 -0.00426836 0)
(0.0880552 -0.00397499 0)
(0.0886346 -0.00369884 0)
(0.0891882 -0.00343971 0)
(0.0897167 -0.00319726 0)
(0.0902208 -0.00297103 0)
(0.0907015 -0.00276047 0)
(0.0911596 -0.00256492 0)
(0.0915962 -0.00238365 0)
(0.0920122 -0.00221589 0)
(0.0924086 -0.00206084 0)
(0.0927863 -0.00191764 0)
(0.0931464 -0.00178545 0)
(0.0934897 -0.00166342 0)
(0.0938171 -0.00155067 0)
(0.0941294 -0.00144637 0)
(0.0944274 -0.00134966 0)
(0.0947117 -0.00125972 0)
(0.0949831 -0.00117574 0)
(0.095242 -0.00109698 0)
(0.0954889 -0.00102275 0)
(0.0957241 -0.000952493 0)
(0.0959482 -0.000885788 0)
(0.0961612 -0.000822375 0)
(0.0963636 -0.000762171 0)
(0.0965555 -0.000705248 0)
(0.0967374 -0.000651797 0)
(0.0969096 -0.000602061 0)
(0.0970726 -0.000556266 0)
(0.0972269 -0.000514546 0)
(0.0973731 -0.000476895 0)
(0.0975119 -0.000443141 0)
(0.0976439 -0.000412965 0)
(0.0977696 -0.000385936 0)
(0.0978895 -0.000361567 0)
(0.0980042 -0.000339376 0)
(0.0981138 -0.000318933 0)
(0.0982189 -0.000299885 0)
(0.0983194 -0.000281971 0)
(0.0984158 -0.000265012 0)
(0.0852852 -0.00633568 0)
(0.0859506 -0.00593519 0)
(0.0865925 -0.00555212 0)
(0.0872107 -0.00518703 0)
(0.0878051 -0.00484039 0)
(0.0883759 -0.00451243 0)
(0.0889234 -0.00420321 0)
(0.0894479 -0.00391259 0)
(0.0899501 -0.00364026 0)
(0.0904304 -0.00338578 0)
(0.0908896 -0.00314858 0)
(0.0913284 -0.00292798 0)
(0.0917476 -0.0027232 0)
(0.0921479 -0.00253343 0)
(0.0925301 -0.00235778 0)
(0.0928952 -0.00219535 0)
(0.0932437 -0.00204521 0)
(0.0935766 -0.00190643 0)
(0.0938946 -0.00177808 0)
(0.0941983 -0.0016592 0)
(0.0944885 -0.00154888 0)
(0.0947657 -0.00144619 0)
(0.0950305 -0.00135027 0)
(0.0952835 -0.00126027 0)
(0.095525 -0.00117545 0)
(0.0957554 -0.00109519 0)
(0.0959751 -0.001019 0)
(0.0961844 -0.000946598 0)
(0.0963835 -0.000877873 0)
(0.0965727 -0.000812894 0)
(0.0967524 -0.000751859 0)
(0.0969229 -0.000695025 0)
(0.0970847 -0.00064263 0)
(0.0972381 -0.000594817 0)
(0.0973837 -0.000551575 0)
(0.0975221 -0.000512716 0)
(0.0976537 -0.000477889 0)
(0.0977792 -0.000446621 0)
(0.0978989 -0.000418377 0)
(0.0980133 -0.000392625 0)
(0.0981226 -0.000368886 0)
(0.0982273 -0.00034677 0)
(0.0983275 -0.000325981 0)
(0.0984234 -0.000306316 0)
(0.0858629 -0.00702121 0)
(0.0864776 -0.00658492 0)
(0.0870721 -0.00616685 0)
(0.0876462 -0.00576783 0)
(0.0881998 -0.00538838 0)
(0.088733 -0.00502883 0)
(0.0892461 -0.00468929 0)
(0.0897392 -0.00436969 0)
(0.0902127 -0.00406976 0)
(0.090667 -0.00378906 0)
(0.0911027 -0.00352701 0)
(0.0915202 -0.00328293 0)
(0.0919201 -0.00305602 0)
(0.092303 -0.00284541 0)
(0.0926696 -0.00265019 0)
(0.0930204 -0.00246939 0)
(0.0933561 -0.00230203 0)
(0.0936773 -0.00214712 0)
(0.0939847 -0.00200365 0)
(0.0942787 -0.00187062 0)
(0.0945601 -0.00174704 0)
(0.0948293 -0.00163192 0)
(0.0950867 -0.0015243 0)
(0.0953329 -0.0014233 0)
(0.0955683 -0.0013281 0)
(0.0957932 -0.00123803 0)
(0.096008 -0.00115256 0)
(0.0962129 -0.00107137 0)
(0.0964082 -0.000994316 0)
(0.0965943 -0.000921466 0)
(0.0967714 -0.000853011 0)
(0.0969398 -0.000789215 0)
(0.0971 -0.000730321 0)
(0.0972522 -0.000676475 0)
(0.097397 -0.000627662 0)
(0.0975347 -0.000583679 0)
(0.0976659 -0.000544151 0)
(0.0977909 -0.000508569 0)
(0.0979102 -0.000476361 0)
(0.0980242 -0.000446951 0)
(0.0981331 -0.000419824 0)
(0.0982373 -0.000394551 0)
(0.098337 -0.000370806 0)
(0.0984324 -0.000348365 0)
(0.0864718 -0.00765125 0)
(0.0870345 -0.00718337 0)
(0.0875803 -0.0067346 0)
(0.088109 -0.0063058 0)
(0.0886205 -0.00589755 0)
(0.0891149 -0.00551019 0)
(0.0895922 -0.00514389 0)
(0.0900526 -0.00479859 0)
(0.0904962 -0.00447406 0)
(0.0909234 -0.00416988 0)
(0.0913342 -0.00388547 0)
(0.0917292 -0.00362015 0)
(0.0921088 -0.0033731 0)
(0.0924732 -0.00314343 0)
(0.092823 -0.00293021 0)
(0.0931586 -0.00273242 0)
(0.0934805 -0.00254906 0)
(0.0937892 -0.00237908 0)
(0.0940851 -0.00222144 0)
(0.0943687 -0.00207508 0)
(0.0946406 -0.00193895 0)
(0.094901 -0.00181203 0)
(0.0951505 -0.00169331 0)
(0.0953894 -0.00158183 0)
(0.0956181 -0.00147676 0)
(0.095837 -0.00137735 0)
(0.0960463 -0.00128305 0)
(0.0962464 -0.0011935 0)
(0.0964376 -0.00110854 0)
(0.0966201 -0.00102821 0)
(0.0967943 -0.000952704 0)
(0.0969603 -0.000882268 0)
(0.0971185 -0.000817151 0)
(0.0972693 -0.000757494 0)
(0.0974129 -0.000703277 0)
(0.0975497 -0.000654288 0)
(0.0976802 -0.00061013 0)
(0.0978046 -0.000570272 0)
(0.0979234 -0.000534111 0)
(0.0980368 -0.000501043 0)
(0.0981452 -0.000470517 0)
(0.0982487 -0.000442076 0)
(0.0983478 -0.000415369 0)
(0.0984425 -0.00039015 0)
(0.0871076 -0.00822374 0)
(0.0876168 -0.00772902 0)
(0.0881126 -0.00725407 0)
(0.0885948 -0.0067998 0)
(0.0890633 -0.00636681 0)
(0.0895179 -0.00595547 0)
(0.0899586 -0.00556596 0)
(0.0903853 -0.00519828 0)
(0.0907981 -0.00485219 0)
(0.0911971 -0.00452731 0)
(0.0915822 -0.00422306 0)
(0.0919538 -0.00393877 0)
(0.092312 -0.00367362 0)
(0.0926571 -0.00342672 0)
(0.0929893 -0.0031971 0)
(0.0933089 -0.00298377 0)
(0.0936162 -0.00278567 0)
(0.0939116 -0.00260173 0)
(0.0941954 -0.0024309 0)
(0.094468 -0.00227207 0)
(0.0947296 -0.00212417 0)
(0.0949808 -0.00198613 0)
(0.0952217 -0.00185691 0)
(0.0954528 -0.00173553 0)
(0.0956744 -0.0016211 0)
(0.0958868 -0.00151285 0)
(0.0960903 -0.0014102 0)
(0.0962853 -0.00131275 0)
(0.0964719 -0.00122032 0)
(0.0966505 -0.00113292 0)
(0.0968213 -0.00105073 0)
(0.0969846 -0.000973994 0)
(0.0971405 -0.000902942 0)
(0.0972895 -0.000837711 0)
(0.0974317 -0.000778274 0)
(0.0975674 -0.000724409 0)
(0.0976969 -0.000675709 0)
(0.0978204 -0.000631627 0)
(0.0979384 -0.00059154 0)
(0.0980511 -0.000554821 0)
(0.0981588 -0.000520897 0)
(0.0982616 -0.000489288 0)
(0.0983599 -0.000459619 0)
(0.0984539 -0.000431625 0)
(0.0877648 -0.00873723 0)
(0.0882196 -0.00822068 0)
(0.0886647 -0.00772428 0)
(0.0890998 -0.00724896 0)
(0.0895246 -0.00679537 0)
(0.0899388 -0.00636391 0)
(0.0903422 -0.00595479 0)
(0.0907346 -0.00556804 0)
(0.0911159 -0.00520344 0)
(0.091486 -0.00486064 0)
(0.0918448 -0.00453909 0)
(0.0921923 -0.00423812 0)
(0.0925285 -0.00395693 0)
(0.0928535 -0.00369464 0)
(0.0931675 -0.00345029 0)
(0.0934704 -0.00322287 0)
(0.0937625 -0.00301132 0)
(0.094044 -0.00281459 0)
(0.0943151 -0.00263157 0)
(0.094576 -0.00246117 0)
(0.094827 -0.00230229 0)
(0.0950684 -0.00215385 0)
(0.0953003 -0.00201478 0)
(0.0955232 -0.00188409 0)
(0.0957372 -0.00176085 0)
(0.0959428 -0.00164428 0)
(0.0961401 -0.00153376 0)
(0.0963295 -0.00142888 0)
(0.0965112 -0.00132941 0)
(0.0966855 -0.00123537 0)
(0.0968527 -0.00114689 0)
(0.0970128 -0.0010642 0)
(0.0971662 -0.000987509 0)
(0.097313 -0.000916953 0)
(0.0974535 -0.000852492 0)
(0.0975877 -0.000793899 0)
(0.097716 -0.000740759 0)
(0.0978385 -0.000692519 0)
(0.0979555 -0.000648547 0)
(0.0980672 -0.0006082 0)
(0.098174 -0.000570892 0)
(0.0982759 -0.000536123 0)
(0.0983734 -0.000503502 0)
(0.0984665 -0.000472744 0)
(0.0884375 -0.00919118 0)
(0.0888378 -0.00865786 0)
(0.0892321 -0.00814475 0)
(0.0896199 -0.00765284 0)
(0.0900008 -0.00718281 0)
(0.0903743 -0.00673509 0)
(0.0907402 -0.00630994 0)
(0.091098 -0.00590741 0)
(0.0914474 -0.00552734 0)
(0.0917882 -0.0051694 0)
(0.0921202 -0.00483307 0)
(0.0924431 -0.00451771 0)
(0.0927569 -0.00422255 0)
(0.0930613 -0.00394672 0)
(0.0933564 -0.00368929 0)
(0.0936422 -0.00344927 0)
(0.0939186 -0.0032256 0)
(0.0941857 -0.00301723 0)
(0.0944436 -0.00282307 0)
(0.0946924 -0.00264203 0)
(0.0949323 -0.002473 0)
(0.0951635 -0.00231489 0)
(0.095386 -0.00216664 0)
(0.0956003 -0.00202724 0)
(0.0958065 -0.00189576 0)
(0.0960048 -0.0017714 0)
(0.0961956 -0.00165352 0)
(0.0963792 -0.00154167 0)
(0.0965557 -0.00143563 0)
(0.0967254 -0.00133536 0)
(0.0968885 -0.00124098 0)
(0.0970452 -0.00115268 0)
(0.0971957 -0.00107066 0)
(0.09734 -0.000995038 0)
(0.0974784 -0.000925761 0)
(0.0976108 -0.0008626 0)
(0.0977376 -0.00080514 0)
(0.0978587 -0.000752826 0)
(0.0979745 -0.000705024 0)
(0.0980851 -0.000661089 0)
(0.0981908 -0.000620422 0)
(0.0982917 -0.000582515 0)
(0.0983881 -0.000546959 0)
(0.0984803 -0.000513457 0)
(0.0891199 -0.00958587 0)
(0.0894663 -0.00904076 0)
(0.0898102 -0.00851562 0)
(0.0901511 -0.00801149 0)
(0.0904883 -0.0075291 0)
(0.0908213 -0.00706892 0)
(0.0911497 -0.00663127 0)
(0.0914728 -0.00621622 0)
(0.0917903 -0.00582366 0)
(0.0921017 -0.00545331 0)
(0.0924066 -0.00510469 0)
(0.0927047 -0.0047772 0)
(0.0929956 -0.00447012 0)
(0.0932792 -0.00418261 0)
(0.0935552 -0.00391376 0)
(0.0938233 -0.00366262 0)
(0.0940836 -0.00342816 0)
(0.094336 -0.00320935 0)
(0.0945803 -0.00300511 0)
(0.0948167 -0.00281436 0)
(0.0950451 -0.00263602 0)
(0.0952657 -0.00246901 0)
(0.0954786 -0.00231227 0)
(0.095684 -0.00216479 0)
(0.095882 -0.00202564 0)
(0.0960728 -0.00189402 0)
(0.0962568 -0.00176928 0)
(0.0964342 -0.00165095 0)
(0.0966052 -0.00153878 0)
(0.09677 -0.0014327 0)
(0.0969288 -0.0013328 0)
(0.0970818 -0.00123925 0)
(0.097229 -0.00115221 0)
(0.0973705 -0.00107178 0)
(0.0975064 -0.000997908 0)
(0.0976368 -0.000930352 0)
(0.0977617 -0.000868705 0)
(0.0978812 -0.000812417 0)
(0.0979956 -0.000760859 0)
(0.0981048 -0.000713389 0)
(0.0982092 -0.000669406 0)
(0.0983089 -0.000628393 0)
(0.0984042 -0.000589933 0)
(0.0984953 -0.000553714 0)
(0.089806 -0.00992243 0)
(0.0900998 -0.00937028 0)
(0.0903944 -0.0088376 0)
(0.0906892 -0.00832548 0)
(0.0909835 -0.00783467 0)
(0.0912766 -0.00736571 0)
(0.0915679 -0.00691895 0)
(0.0918567 -0.00649454 0)
(0.0921424 -0.0060924 0)
(0.0924245 -0.0057123 0)
(0.0927023 -0.00535383 0)
(0.0929755 -0.00501644 0)
(0.0932435 -0.00469944 0)
(0.093506 -0.00440207 0)
(0.0937625 -0.00412346 0)
(0.0940129 -0.00386268 0)
(0.0942568 -0.00361875 0)
(0.0944941 -0.00339068 0)
(0.0947246 -0.00317743 0)
(0.0949482 -0.00297794 0)
(0.0951649 -0.00279115 0)
(0.0953747 -0.002616 0)
(0.0955776 -0.00245146 0)
(0.0957738 -0.00229654 0)
(0.0959634 -0.00215031 0)
(0.0961466 -0.00201198 0)
(0.0963236 -0.00188088 0)
(0.0964945 -0.00175655 0)
(0.0966597 -0.00163869 0)
(0.0968193 -0.00152722 0)
(0.0969735 -0.00142219 0)
(0.0971224 -0.00132372 0)
(0.097266 -0.00123197 0)
(0.0974044 -0.00114701 0)
(0.0975376 -0.00106876 0)
(0.0976656 -0.000996994 0)
(0.0977884 -0.000931307 0)
(0.097906 -0.000871161 0)
(0.0980186 -0.000815937 0)
(0.0981263 -0.000765002 0)
(0.0982293 -0.000717758 0)
(0.0983276 -0.000673686 0)
(0.0984216 -0.000632362 0)
(0.0985115 -0.000593463 0)
(0.0904901 -0.0102027 0)
(0.0907332 -0.00964798 0)
(0.0909802 -0.00911199 0)
(0.0912304 -0.00859585 0)
(0.091483 -0.00810036 0)
(0.0917371 -0.00762611 0)
(0.0919921 -0.0071735 0)
(0.0922472 -0.00674273 0)
(0.0925016 -0.00633379 0)
(0.0927546 -0.00594651 0)
(0.0930056 -0.00558054 0)
(0.0932539 -0.00523539 0)
(0.093499 -0.00491045 0)
(0.0937403 -0.00460499 0)
(0.0939774 -0.00431822 0)
(0.0942098 -0.00404927 0)
(0.0944372 -0.0037972 0)
(0.0946592 -0.00356106 0)
(0.0948757 -0.00333986 0)
(0.0950863 -0.00313258 0)
(0.0952911 -0.0029382 0)
(0.0954899 -0.0027557 0)
(0.0956827 -0.00258408 0)
(0.0958695 -0.00242235 0)
(0.0960505 -0.00226964 0)
(0.0962258 -0.00212513 0)
(0.0963955 -0.00198818 0)
(0.0965599 -0.00185831 0)
(0.0967191 -0.00173521 0)
(0.0968732 -0.00161875 0)
(0.0970226 -0.00150896 0)
(0.0971671 -0.00140593 0)
(0.0973068 -0.00130977 0)
(0.0974418 -0.00122054 0)
(0.0975719 -0.00113815 0)
(0.0976972 -0.00106237 0)
(0.0978176 -0.000992802 0)
(0.0979331 -0.000928928 0)
(0.0980437 -0.000870144 0)
(0.0981496 -0.000815829 0)
(0.0982509 -0.000765394 0)
(0.0983478 -0.000718323 0)
(0.0984403 -0.000674187 0)
(0.0985288 -0.000632655 0)
(0.0911671 -0.0104292 0)
(0.091362 -0.00987602 0)
(0.0915635 -0.00934059 0)
(0.0917709 -0.00882411 0)
(0.0919832 -0.00832742 0)
(0.0921998 -0.00785113 0)
(0.0924195 -0.0073957 0)
(0.0926418 -0.00696141 0)
(0.0928656 -0.0065483 0)
(0.0930901 -0.00615627 0)
(0.0933147 -0.00578504 0)
(0.0935385 -0.0054342 0)
(0.0937608 -0.00510319 0)
(0.0939811 -0.00479138 0)
(0.0941987 -0.00449802 0)
(0.0944131 -0.00422232 0)
(0.0946239 -0.0039634 0)
(0.0948306 -0.00372036 0)
(0.0950329 -0.00349227 0)
(0.0952305 -0.00327816 0)
(0.0954231 -0.00307706 0)
(0.0956108 -0.002888 0)
(0.0957933 -0.00270999 0)
(0.0959706 -0.00254211 0)
(0.0961428 -0.0023835 0)
(0.09631 -0.00223336 0)
(0.0964723 -0.00209107 0)
(0.0966299 -0.00195612 0)
(0.0967829 -0.0018282 0)
(0.0969315 -0.00170715 0)
(0.0970757 -0.00159297 0)
(0.0972156 -0.0014857 0)
(0.0973512 -0.00138544 0)
(0.0974824 -0.00129221 0)
(0.0976092 -0.00120591 0)
(0.0977315 -0.00112632 0)
(0.0978492 -0.00105305 0)
(0.0979623 -0.000985593 0)
(0.0980708 -0.000923369 0)
(0.0981747 -0.000865775 0)
(0.0982742 -0.000812234 0)
(0.0983693 -0.000762234 0)
(0.0984603 -0.000715348 0)
(0.0985474 -0.000671238 0)
(0.0918323 -0.010605 0)
(0.0919818 -0.010057 0)
(0.0921404 -0.00952563 0)
(0.0923071 -0.00901215 0)
(0.0924812 -0.0085174 0)
(0.0926617 -0.00804205 0)
(0.0928476 -0.00758662 0)
(0.0930381 -0.00715142 0)
(0.0932323 -0.00673659 0)
(0.0934291 -0.00634209 0)
(0.0936278 -0.00596771 0)
(0.0938275 -0.00561313 0)
(0.0940275 -0.00527786 0)
(0.094227 -0.00496134 0)
(0.0944253 -0.00466291 0)
(0.0946218 -0.00438183 0)
(0.094816 -0.00411732 0)
(0.0950073 -0.00386853 0)
(0.0951954 -0.0036346 0)
(0.0953798 -0.00341461 0)
(0.0955603 -0.00320765 0)
(0.0957367 -0.00301279 0)
(0.0959088 -0.00282912 0)
(0.0960766 -0.00265574 0)
(0.0962399 -0.00249181 0)
(0.096399 -0.00233659 0)
(0.0965537 -0.00218944 0)
(0.0967044 -0.00204987 0)
(0.096851 -0.00191755 0)
(0.0969937 -0.0017923 0)
(0.0971326 -0.00167408 0)
(0.0972677 -0.00156291 0)
(0.0973989 -0.00145884 0)
(0.0975261 -0.00136188 0)
(0.0976494 -0.00127191 0)
(0.0977684 -0.00118872 0)
(0.0978832 -0.00111192 0)
(0.0979936 -0.00104104 0)
(0.0980997 -0.000975507 0)
(0.0982015 -0.000914747 0)
(0.0982989 -0.000858196 0)
(0.0983922 -0.000805352 0)
(0.0984816 -0.000755788 0)
(0.098567 -0.000709164 0)
(0.0924818 -0.0107334 0)
(0.092589 -0.0101938 0)
(0.0927074 -0.00966964 0)
(0.092836 -0.00916212 0)
(0.092974 -0.00867215 0)
(0.0931203 -0.00820043 0)
(0.093274 -0.00774753 0)
(0.0934341 -0.00731382 0)
(0.0935997 -0.00689952 0)
(0.0937697 -0.00650465 0)
(0.0939433 -0.00612909 0)
(0.0941196 -0.00577258 0)
(0.0942977 -0.00543474 0)
(0.0944767 -0.00511508 0)
(0.094656 -0.00481302 0)
(0.0948348 -0.0045279 0)
(0.0950125 -0.00425902 0)
(0.0951886 -0.0040056 0)
(0.0953624 -0.00376683 0)
(0.0955337 -0.0035419 0)
(0.0957021 -0.00332993 0)
(0.0958672 -0.00313005 0)
(0.0960288 -0.00294141 0)
(0.0961869 -0.00276316 0)
(0.0963413 -0.00259451 0)
(0.0964921 -0.00243473 0)
(0.0966392 -0.00228321 0)
(0.0967828 -0.00213947 0)
(0.096923 -0.00200316 0)
(0.0970597 -0.00187409 0)
(0.0971931 -0.00175218 0)
(0.0973231 -0.00163742 0)
(0.0974497 -0.00152984 0)
(0.0975728 -0.0014294 0)
(0.0976922 -0.00133601 0)
(0.0978078 -0.00124943 0)
(0.0979194 -0.0011693 0)
(0.098027 -0.00109515 0)
(0.0981305 -0.00102646 0)
(0.0982299 -0.00096266 0)
(0.0983252 -0.000903208 0)
(0.0984165 -0.000847613 0)
(0.098504 -0.000795453 0)
(0.0985878 -0.000746387 0)
(0.0931122 -0.0108181 0)
(0.0931806 -0.0102897 0)
(0.0932617 -0.00977541 0)
(0.0933548 -0.00927644 0)
(0.0934589 -0.00879373 0)
(0.0935731 -0.00832801 0)
(0.0936963 -0.0078799 0)
(0.0938276 -0.00744983 0)
(0.0939659 -0.00703809 0)
(0.0941103 -0.00664476 0)
(0.0942597 -0.00626982 0)
(0.0944132 -0.00591308 0)
(0.09457 -0.00557424 0)
(0.0947291 -0.00525291 0)
(0.0948897 -0.00494858 0)
(0.0950511 -0.00466068 0)
(0.0952125 -0.00438859 0)
(0.0953735 -0.00413161 0)
(0.0955333 -0.00388902 0)
(0.0956915 -0.00366004 0)