/*--------------------------------*- C++ -*----------------------------------*\
| =========                 |                                                 |
| \\      /  F ield         | OpenFOAM: The Open Source CFD Toolbox           |
|  \\    /   O peration     | Version:  2412                                  |
|   \\  /    A nd           | Website:  www.openfoam.com                      |
|    \\/     M anipulation  |                                                 |
\*---------------------------------------------------------------------------*/
FoamFile
{
    version     2.0;
    format      ascii;
    arch        "LSB;label=32;scalar=64";
    class       volScalarField;
    location    "8";
    object      p;
}
// * * * * * * * * * * * * * * * * * * * * * * * * * * * * * * * * * * * * * //

dimensions      [0 2 -2 0 0 0 0];

internalField   nonuniform List<scalar> 
5285
(
-0.000599305
-0.000547693
-0.000565929
-0.000574509
-0.000581852
-0.000587188
-0.000589659
-0.000589452
-0.000586882
-0.000582168
-0.000575514
-0.000567135
-0.000557245
-0.000546054
-0.000533758
-0.000520546
-0.000506595
-0.000492068
-0.000477115
-0.000461874
-0.00044647
-0.000431012
-0.000415596
-0.00040031
-0.0005
-0.000517836
-0.000527116
-0.000535191
-0.000541384
-0.000544938
-0.000546016
-0.000544887
-0.000541744
-0.000536764
-0.000530134
-0.000522047
-0.000512687
-0.000502233
-0.000490855
-0.000478714
-0.000465959
-0.000452729
-0.000439154
-0.00042535
-0.000411422
-0.000397461
-0.000383551
-0.000455839
-0.000473263
-0.000483103
-0.000491773
-0.000498673
-0.000503143
-0.000505319
-0.000505438
-0.000503664
-0.000500152
-0.000495068
-0.000488582
-0.000480858
-0.000472057
-0.000462333
-0.000451831
-0.000440689
-0.000429037
-0.000416993
-0.000404666
-0.000392156
-0.00037955
-0.00036693
-0.000414867
-0.000431871
-0.000442156
-0.000451302
-0.000458786
-0.000464027
-0.000467145
-0.000468342
-0.000467761
-0.000465539
-0.000461821
-0.000456757
-0.000450494
-0.000443177
-0.000434944
-0.000425928
-0.000416255
-0.000406045
-0.000395407
-0.000384444
-0.000373249
-0.000361904
-0.000350489
-0.000376783
-0.000393364
-0.000403997
-0.000413523
-0.000421483
-0.000427373
-0.000431296
-0.000433424
-0.000433884
-0.000432794
-0.000430283
-0.000426483
-0.000421525
-0.00041554
-0.000408652
-0.000400983
-0.000392647
-0.000383755
-0.000374408
-0.000364702
-0.000354724
-0.000344554
-0.000334263
-0.000341322
-0.000357481
-0.000368382
-0.000378204
-0.00038655
-0.000392984
-0.000397592
-0.000400526
-0.000401893
-0.000401797
-0.000400352
-0.000397675
-0.000393884
-0.000389094
-0.00038342
-0.00037697
-0.000369851
-0.000362164
-0.000354001
-0.000345454
-0.000336604
-0.000327523
-0.000318282
-0.00030825
-0.000323991
-0.00033509
-0.000345139
-0.000353794
-0.000360681
-0.000365873
-0.000369501
-0.000371657
-0.000372434
-0.000371931
-0.000370253
-0.000367503
-0.000363788
-0.000359208
-0.000353864
-0.000347852
-0.000341265
-0.00033419
-0.00032671
-0.000318901
-0.000310832
-0.000302571
-0.000277356
-0.000292685
-0.000303925
-0.000314141
-0.00032304
-0.000330302
-0.00033599
-0.000340215
-0.000343058
-0.000344601
-0.00034493
-0.000344139
-0.000342321
-0.00033957
-0.000335977
-0.000331635
-0.00032663
-0.000321049
-0.000314971
-0.000308474
-0.000301629
-0.000294499
-0.000287148
-0.000248454
-0.000263379
-0.000274711
-0.000285045
-0.000294132
-0.000301701
-0.000307808
-0.000312546
-0.000315987
-0.000318201
-0.000319265
-0.000319263
-0.000318277
-0.000316391
-0.000313689
-0.000310254
-0.000306167
-0.000301504
-0.000296341
-0.000290749
-0.000284793
-0.000278535
-0.000272032
-0.000221377
-0.000235908
-0.00024729
-0.000257699
-0.000266927
-0.000274746
-0.000281204
-0.000286382
-0.000290341
-0.000293143
-0.000294857
-0.000295555
-0.000295312
-0.000294204
-0.000292306
-0.000289693
-0.00028644
-0.000282617
-0.000278292
-0.000273533
-0.000268399
-0.000262948
-0.000257235
-0.000195976
-0.000210122
-0.000221521
-0.000231969
-0.000241296
-0.000249315
-0.000256067
-0.00026162
-0.000266028
-0.000269344
-0.00027163
-0.00027295
-0.000273372
-0.000272962
-0.000271789
-0.000269922
-0.000267428
-0.000264371
-0.000260816
-0.000256823
-0.000252449
-0.000247746
-0.000242766
-0.000172116
-0.000185888
-0.000197274
-0.000207731
-0.000217123
-0.000225299
-0.000232294
-0.000238166
-0.000242961
-0.000246727
-0.000249517
-0.00025139
-0.000252404
-0.000252622
-0.000252104
-0.000250912
-0.000249108
-0.000246752
-0.000243902
-0.000240614
-0.000236941
-0.000232931
-0.000228633
-0.000149676
-0.000163086
-0.000174434
-0.000184874
-0.000194301
-0.000202597
-0.000209791
-0.000215932
-0.000221061
-0.000225219
-0.000228454
-0.000230817
-0.000232361
-0.000233141
-0.000233213
-0.000232634
-0.000231459
-0.000229743
-0.000227539
-0.000224899
-0.000221873
-0.000218504
-0.000214839
-0.000128548
-0.000141606
-0.000152895
-0.000163297
-0.000172733
-0.000181117
-0.000188472
-0.000194839
-0.000200254
-0.000204754
-0.000208379
-0.000211177
-0.000213193
-0.000214479
-0.000215084
-0.00021506
-0.000214457
-0.000213325
-0.000211713
-0.00020967
-0.00020724
-0.000204466
-0.000201389
-0.000108631
-0.000121351
-0.000132561
-0.000142907
-0.000152332
-0.000160775
-0.000168258
-0.000174814
-0.000180474
-0.000185269
-0.000189238
-0.00019242
-0.000194859
-0.000196598
-0.000197684
-0.000198162
-0.000198079
-0.000197481
-0.000196412
-0.000194918
-0.000193038
-0.000190813
-0.000188281
-8.98342e-05
-0.000102229
-0.000113346
-0.000123619
-0.000133015
-0.000141495
-0.000149077
-0.000155789
-0.000161656
-0.000166708
-0.000170977
-0.0001745
-0.000177315
-0.000179461
-0.00018098
-0.000181914
-0.000182304
-0.000182193
-0.000181622
-0.000180631
-0.000179259
-0.000177541
-0.000175515
-7.20802e-05
-8.41602e-05
-9.51709e-05
-0.000105359
-0.00011471
-0.000123206
-0.000130863
-0.000137701
-0.000143743
-0.000149016
-0.000153549
-0.000157373
-0.000160523
-0.000163034
-0.000164944
-0.000166289
-0.00016711
-0.000167443
-0.000167327
-0.0001668
-0.000165895
-0.000164647
-0.00016309
-5.53012e-05
-6.70761e-05
-7.79629e-05
-8.80531e-05
-9.73479e-05
-0.000105844
-0.000113552
-0.000120492
-0.000126682
-0.000132145
-0.000136907
-0.000140997
-0.000144445
-0.000147282
-0.000149544
-0.000151263
-0.000152474
-0.000153213
-0.000153514
-0.000153411
-0.000152938
-0.000152124
-0.000151001
-0.000413734
-0.000449569
-0.000371842
-0.000405772
-0.00043853
-0.000470066
-0.000500405
-0.000528955
-0.000554875
-0.000333083
-0.000365273
-0.000396346
-0.000426252
-0.000455011
-0.000482096
-0.000506794
-0.000297156
-0.000327747
-0.000357271
-0.00038568
-0.000412987
-0.000438721
-0.000462282
-0.00026379
-0.00029291
-0.000321006
-0.000348034
-0.000374002
-0.000398492
-0.000420993
-0.000232749
-0.000260509
-0.000287287
-0.00031304
-0.000337772
-0.000361112
-0.000382626
-0.00020382
-0.000230322
-0.00025588
-0.000280453
-0.000304042
-0.000326318
-0.00034691
-0.000176817
-0.000202153
-0.000226579
-0.000250058
-0.000272585
-0.000293874
-0.000313606
-0.000151573
-0.000175824
-0.000199199
-0.00022166
-0.000243202
-0.000263573
-0.000282503
-0.000127937
-0.00015118
-0.000173575
-0.000195089
-0.000215713
-0.000235231
-0.00025341
-0.000105777
-0.000128078
-0.00014956
-0.00017019
-0.000189959
-0.000208682
-0.000226159
-8.49717e-05
-0.000106393
-0.000127021
-0.000146826
-0.000165797
-0.000183777
-0.000200596
-6.54129e-05
-8.60105e-05
-0.00010584
-0.000124873
-0.000143097
-0.000160382
-0.000176585
-4.70031e-05
-6.68285e-05
-8.59093e-05
-0.000104218
-0.000121743
-0.000138378
-0.000154001
-2.96541e-05
-4.87543e-05
-6.71318e-05
-8.47611e-05
-0.00010163
-0.000117653
-0.000132732
-1.32858e-05
-3.17038e-05
-4.94199e-05
-6.64102e-05
-8.26622e-05
-9.81096e-05
-0.000112674
2.17473e-06
-1.56008e-05
-3.26939e-05
-4.90823e-05
-6.47534e-05
-7.96577e-05
-9.37352e-05
1.67939e-05
-3.74942e-07
-1.68799e-05
-3.27005e-05
-4.78238e-05
-6.2215e-05
-7.58312e-05
3.06316e-05
1.40376e-05
-1.91054e-06
-1.71947e-05
-3.18025e-05
-4.57121e-05
-5.88944e-05
4.37399e-05
2.76823e-05
1.2255e-05
-2.52465e-06
-1.66455e-05
-3.00964e-05
-4.28595e-05
-0.000338693
-0.000376753
-0.000106962
-0.000151078
-0.000188099
-0.000225751
-0.000263688
-0.000300769
-0.000336818
-8.18023e-05
-0.000123342
-0.000158636
-0.000194453
-0.000230456
-0.000265644
-0.000299853
-5.83045e-05
-9.75132e-05
-0.000131227
-0.000165363
-0.000199598
-0.000233049
-0.000265569
-3.63348e-05
-7.34264e-05
-0.00010569
-0.000138281
-0.000170891
-0.000202747
-0.000233717
-1.57719e-05
-5.09355e-05
-8.18638e-05
-0.000113029
-0.000144146
-0.000174532
-0.000204071
3.49401e-06
-2.99089e-05
-5.96026e-05
-8.94512e-05
-0.000119187
-0.000148218
-0.000176434
2.15632e-05
-1.02274e-05
-3.87762e-05
-6.7404e-05
-9.58631e-05
-0.000123637
-0.000150629
3.8527e-05
8.2167e-06
-1.92672e-05
-4.67601e-05
-7.40344e-05
-0.000100643
-0.000126496
5.4469e-05
2.5521e-05
-9.69544e-07
-2.7405e-05
-5.35777e-05
-7.91014e-05
-0.000103896
6.94651e-05
4.17739e-05
1.62124e-05
-9.23533e-06
-3.43813e-05
-5.88943e-05
-8.27017e-05
8.35851e-05
5.70557e-05
3.23652e-05
7.84206e-06
-1.63451e-05
-3.9914e-05
-6.27987e-05
9.68924e-05
7.14393e-05
4.75674e-05
2.39115e-05
6.21606e-07
-2.20639e-05
-4.40848e-05
0.000109445
8.49911e-05
6.189e-05
3.90494e-05
1.66008e-05
-5.25639e-06
-2.64673e-05
0.000121296
9.77716e-05
7.53978e-05
5.3325e-05
3.16667e-05
1.05877e-05
-9.86251e-06
0.000132495
0.000109836
8.81499e-05
6.68015e-05
4.5887e-05
2.55405e-05
5.80573e-06
0.000143085
0.000121234
0.0001002
7.9537e-05
5.9323e-05
3.9664e-05
2.06062e-05
0.000153107
0.00013201
0.000111595
9.15834e-05
7.20299e-05
5.30233e-05
3.46025e-05
0.000162605
0.000142211
0.00012238
0.000102978
8.40561e-05
6.56674e-05
4.78498e-05
0.000171606
0.000151889
0.000132629
0.000113813
9.54757e-05
7.76625e-05
6.04077e-05
0.00108555
0.00107624
0.00106588
0.0010544
0.00104173
0.0010278
0.00101253
0.000995841
0.000977663
0.000957917
0.00093653
0.000913429
0.000888546
0.000861816
0.000833181
0.000802591
0.000770005
0.000735393
0.000698738
0.000660038
0.000619309
0.000576586
0.000531924
0.000485402
0.000437123
0.000387217
0.000335842
0.000283181
0.000229448
0.000174884
0.000119749
6.4282e-05
9.14228e-06
-4.46115e-05
0.00106286
0.00105314
0.0010424
0.00103057
0.00101759
0.00100341
0.000987934
0.000971112
0.000952872
0.000933147
0.000911873
0.000888986
0.00086443
0.000838151
0.000810101
0.000780241
0.00074854
0.000714979
0.000679551
0.000642262
0.000603134
0.000562209
0.000519545
0.000475223
0.000429344
0.000382035
0.000333443
0.000283742
0.00023313
0.000181828
0.000130075
7.80847e-05
2.64522e-05
-2.38782e-05
0.00104106
0.00103098
0.00101992
0.0010078
0.000994581
0.000980196
0.000964584
0.000947686
0.000929442
0.000909792
0.000888682
0.000866058
0.00084187
0.000816076
0.000788636
0.000759522
0.000728711
0.000696192
0.000661966
0.000626046
0.000588461
0.000549255
0.000508488
0.000466243
0.000422617
0.000377732
0.000331728
0.000284768
0.000237033
0.000188728
0.00014007
9.12543e-05
4.28144e-05
-4.40848e-06
0.00102013
0.00100975
0.000998408
0.000986059
0.000972648
0.00095812
0.000942423
0.000925501
0.000907302
0.000887775
0.000866872
0.000844549
0.000820763
0.00079548
0.000768669
0.000740309
0.000710385
0.000678894
0.000645842
0.000611247
0.000575144
0.000537577
0.000498611
0.000458324
0.000416813
0.000374193
0.000330596
0.000286173
0.000241094
0.000195546
0.000149726
0.000103813
5.8285e-05
1.38899e-05
0.00100005
0.000989404
0.00097784
0.000965305
0.000951751
0.00093713
0.000921393
0.000904493
0.000886383
0.00086702
0.000846362
0.000824371
0.000801013
0.00077626
0.00075009
0.000722487
0.000693442
0.000662959
0.000631049
0.000597734
0.000563051
0.000527047
0.000489787
0.000451346
0.000411819
0.000371314
0.000329957
0.000287887
0.000245262
0.000202253
0.000159039
0.000115785
7.29173e-05
3.11008e-05
0.000980778
0.000969923
0.000958179
0.000945502
0.000931849
0.000917177
0.000901443
0.000884604
0.000866621
0.000847455
0.000827071
0.000805439
0.000782529
0.000758321
0.000732797
0.000705947
0.000677771
0.000648273
0.000617469
0.000585387
0.000552063
0.000517547
0.000481901
0.000445201
0.000407535
0.000369008
0.000329735
0.000289849
0.000249493
0.000208824
0.000168008
0.000127193
8.6762e-05
4.73022e-05
0.000962302
0.000951273
0.000939389
0.00092661
0.000912898
0.000898213
0.000882517
0.000865775
0.00084795
0.00082901
0.000808927
0.000787672
0.000765226
0.00074157
0.000716694
0.000690592
0.000663267
0.000634729
0.000604997
0.000574099
0.000542075
0.000508973
0.000474855
0.000439794
0.000403875
0.000367196
0.000329866
0.000292007
0.000253751
0.000215244
0.000176636
0.000138063
9.98672e-05
6.25659e-05
0.000944592
0.000933426
0.000921438
0.000908592
0.000894855
0.000880191
0.000864566
0.000847949
0.00083031
0.000811621
0.000791857
0.000770997
0.000749024
0.000725925
0.000701694
0.00067633
0.000649838
0.000622233
0.000593534
0.000563773
0.000532989
0.000501231
0.000468559
0.000435042
0.000400763
0.000365812
0.000330292
0.000294317
0.000258009
0.0002215
0.000184929
0.000148421
0.000112278
7.69583e-05
0.000927622
0.000916351
0.000904291
0.000891411
0.000877679
0.000863065
0.000847539
0.000831074
0.000813643
0.000795223
0.000775795
0.00075534
0.000733847
0.000711306
0.000687715
0.000663076
0.000637397
0.000610695
0.000582993
0.000554321
0.00052472
0.000494238
0.000462932
0.000430871
0.00039813
0.000364797
0.000330966
0.000296744
0.000262242
0.000227584
0.000192895
0.00015829
0.000124038
9.05402e-05
0.000911364
0.000900018
0.000887916
0.000875029
0.00086133
0.000846792
0.000831388
0.000815096
0.000797893
0.000779759
0.000760678
0.000740637
0.000719626
0.000697641
0.000674681
0.000650752
0.000625865
0.000600037
0.000573292
0.000545664
0.00051719
0.000487918
0.000457905
0.000427215
0.000395919
0.0003641
0.000331846
0.000299256
0.000266433
0.00023349
0.000200541
0.000167694
0.000135186
0.000103368
0.000895792
0.000884397
0.000872279
0.00085941
0.000845768
0.000831328
0.000816068
0.000799967
0.000783006
0.000765171
0.000746446
0.000726823
0.000706296
0.000684861
0.000662522
0.000639287
0.000615167
0.000590183
0.00056436
0.000537728
0.000510329
0.000482206
0.000453415
0.000424016
0.000394078
0.000363677
0.000332897
0.000301827
0.000270565
0.000239214
0.000207879
0.000176657
0.00014576
0.000115493
0.000880879
0.00086946
0.000857348
0.00084452
0.000830956
0.000816634
0.000801534
0.000785639
0.000768934
0.000751406
0.000733044
0.000713842
0.000693795
0.000672904
0.000651174
0.000628614
0.000605239
0.000581069
0.000556129
0.000530451
0.000504073
0.000477041
0.000449405
0.000421223
0.000392561
0.00036349
0.000334087
0.000304437
0.000274628
0.000244756
0.000214917
0.000185202
0.000155796
0.000126963
0.0008666
0.000855177
0.000843092
0.000830325
0.000816857
0.000802668
0.000787744
0.000772068
0.000755629
0.000738415
0.000720419
0.000701637
0.000682067
0.000661711
0.000640577
0.000618674
0.000596019
0.000572632
0.000548539
0.000523772
0.000498367
0.000472368
0.000445825
0.000418791
0.000391329
0.000363505
0.000335391
0.000307066
0.000278612
0.000250116
0.000221667
0.000193349
0.000165325
0.000137821
0.000852927
0.000841521
0.000829481
0.000816792
0.000803435
0.000789395
0.000774658
0.000759211
0.000743044
0.00072615
0.000708522
0.000690158
0.000671059
0.000651229
0.000630675
0.00060941
0.000587451
0.000564817
0.000541536
0.000517638
0.000493159
0.000468141
0.00044263
0.000416679
0.000390346
0.000363692
0.000336786
0.0003097
0.000282509
0.000255295
0.00022814
0.00020112
0.000174379
0.000148108
0.000839837
0.000828464
0.000816486
0.000803889
0.000790657
0.000776777
0.000762237
0.000747028
0.000731139
0.000714567
0.000697306
0.000679357
0.000660722
0.000641406
0.000621418
0.000600771
0.000579483
0.000557574
0.00053507
0.000512001
0.000488403
0.000464315
0.000439782
0.000414852
0.000389581
0.000364027
0.000338253
0.000312325
0.000286315
0.000260297
0.000234346
0.000208534
0.000182985
0.000157862
0.000827305
0.000815979
0.000804077
0.000791585
0.00077849
0.000764781
0.000750446
0.000735479
0.000719873
0.000703624
0.000686729
0.00066919
0.00065101
0.000632196
0.000612758
0.00059271
0.000572068
0.000550855
0.000529095
0.000506818
0.000484058
0.000460852
0.000437243
0.000413278
0.000389008
0.000364487
0.000339774
0.000314932
0.000290026
0.000265124
0.000240296
0.00021561
0.00019117
0.000167115
0.000815307
0.000804042
0.000792228
0.000779853
0.000766904
0.000753373
0.00073925
0.00072453
0.000709208
0.000693282
0.00067675
0.000659614
0.000641881
0.000623557
0.000604653
0.000585183
0.000565165
0.000544619
0.000523571
0.000502049
0.000480085
0.000457716
0.000434983
0.000411928
0.000388601
0.000365052
0.000341336
0.000317512
0.000293638
0.00026978
0.000246001
0.000222364
0.000198959
0.000175899
0.000803819
0.000792628
0.000780913
0.000768663
0.000755869
0.000742522
0.000728616
0.000714147
0.00069911
0.000683504
0.00066733
0.000650592
0.000633295
0.000615448
0.000597061
0.00057815
0.000558732
0.000538827
0.000518459
0.000497657
0.000476452
0.000454877
0.000432972
0.000410778
0.00038834
0.000365706
0.000342927
0.000320057
0.000297152
0.00027427
0.000251471
0.000228814
0.000206375
0.000184247
0.00079282
0.000781712
0.000770105
0.000757989
0.000745356
0.000732199
0.000718513
0.000704295
0.000689543
0.000674256
0.000658436
0.000642087
0.000625216
0.000607833
0.000589947
0.000571575
0.000552733
0.000533442
0.000513726
0.000493611
0.000473126
0.000452306
0.000431186
0.000409806
0.000388207
0.000366435
0.000344537
0.000322563
0.000300566
0.000278599
0.000256717
0.000234975
0.000213437
0.00019218
0.000782504
0.000771486
0.000759992
0.000748013
0.000735543
0.000722577
0.000709109
0.000695138
0.000680663
0.000665684
0.000650204
0.000634229
0.000617765
0.000600822
0.000583412
0.000565549
0.00054725
0.000528536
0.000509429
0.000489955
0.000470143
0.000450024
0.000429633
0.000409006
0.000388183
0.000367207
0.000346121
0.000324973
0.000303811
0.000282684
0.000261644
0.000240741
0.000220028
0.000199563
0.000772719
0.000761797
0.000750421
0.000738584
0.000726279
0.000713503
0.000700252
0.000686524
0.000672321
0.000657644
0.000642495
0.000626881
0.000610809
0.00059429
0.000577334
0.000559957
0.000542175
0.000524008
0.000505479
0.000486611
0.000467433
0.000447974
0.000428267
0.000408347
0.000388251
0.000368018
0.000347692
0.000327314
0.000306929
0.000286585
0.000266328
0.000246206
0.000226267
0.000206559
0.000763151
0.000752334
0.000741083
0.000729394
0.000717261
0.000704681
0.000691651
0.000678172
0.000664243
0.000649868
0.00063505
0.000619796
0.000604114
0.000588013
0.000571505
0.000554606
0.000537331
0.0005197
0.000501735
0.000483457
0.000464895
0.000446077
0.000427033
0.000407796
0.000388401
0.000368886
0.00034929
0.000329653
0.000310016
0.000290424
0.000270919
0.000251546
0.000232349
0.000213373
0.000753802
0.000743097
0.00073198
0.000720445
0.00070849
0.00069611
0.000683306
0.000670077
0.000656425
0.000642353
0.000627866
0.00061297
0.000597673
0.000581986
0.00056592
0.00054949
0.000532712
0.000515604
0.000498188
0.000480486
0.000462522
0.000444324
0.000425922
0.000407345
0.000388628
0.000369804
0.000350911
0.000331986
0.000313068
0.000294197
0.000275414
0.000256759
0.000238274
0.000220001
0.000744674
0.000734088
0.000723111
0.000711737
0.000699964
0.00068779
0.000675214
0.000662238
0.000648864
0.000635096
0.000620937
0.000606396
0.000591481
0.000576202
0.00056057
0.000544601
0.000528309
0.000511712
0.000494832
0.000477688
0.000460305
0.000442709
0.000424927
0.000406988
0.000388924
0.000370767
0.000352551
0.000334311
0.000316083
0.000297904
0.000279813
0.000261847
0.000244044
0.000226443
0.000735768
0.000725308
0.000714476
0.000703268
0.000691682
0.000679716
0.000667373
0.000654651
0.000641556
0.00062809
0.000614259
0.00060007
0.000585532
0.000570654
0.00055545
0.000539931
0.000524115
0.000508017
0.000491658
0.000475057
0.000458238
0.000441224
0.000424042
0.000406719
0.000389285
0.000371769
0.000354204
0.000336622
0.000319056
0.000301542
0.000284115
0.000266808
0.000249659
0.000232702
0.00073706
0.000727084
0.000716756
0.000706074
0.000695037
0.000683642
0.000671889
0.000659778
0.000647313
0.000634496
0.000621332
0.000607826
0.000593985
0.000579819
0.000565337
0.000550551
0.000535474
0.000520122
0.000504511
0.000488658
0.000472585
0.000456312
0.000439862
0.00042326
0.000406531
0.000389704
0.000372806
0.000355866
0.000338916
0.000321987
0.00030511
0.000288319
0.000271645
0.000255121
0.000238781
0.000728479
0.000718622
0.000708432
0.000697906
0.000687043
0.000675842
0.000664303
0.000652428
0.00064022
0.000627681
0.000614816
0.000601632
0.000588136
0.000574336
0.000560243
0.000545867
0.000531223
0.000516323
0.000501185
0.000485826
0.000470264
0.00045452
0.000438616
0.000422574
0.000406418
0.000390175
0.000373871
0.000357534
0.000341191
0.000324872
0.000308607
0.000292425
0.000276356
0.000260432
0.000244682
0.000720116
0.000710384
0.000700335
0.000689969
0.000679285
0.00066828
0.000656958
0.000645319
0.000633367
0.000621105
0.000608538
0.000595672
0.000582516
0.000569077
0.000555365
0.000541391
0.000527169
0.000512712
0.000498034
0.000483154
0.000468088
0.000452856
0.000437478
0.000421977
0.000406374
0.000390694
0.000374962
0.000359202
0.000343443
0.000327709
0.00031203
0.000296432
0.000280944
0.000265594
0.000250409
0.00071197
0.000702368
0.000692465
0.000682263
0.000671759
0.000660954
0.000649849
0.000638447
0.00062675
0.000614763
0.000602492
0.000589941
0.000577119
0.000564035
0.000550697
0.000537116
0.000523306
0.000509279
0.00049505
0.000480634
0.000466049
0.000451312
0.000436444
0.000421464
0.000406394
0.000391256
0.000376073
0.000360869
0.000345668
0.000330496
0.000315379
0.000300341
0.000285408
0.000270607
0.000255963
0.000704042
0.000694573
0.000684821
0.000674785
0.000664464
0.00065386
0.000642973
0.000631807
0.000620366
0.000608652
0.000596672
0.000584433
0.00057194
0.000559203
0.000546231
0.000533035
0.000519627
0.000506019
0.000492224
0.000478259
0.00046414
0.000449882
0.000435506
0.000421029
0.000406471
0.000391854
0.0003772
0.000362529
0.000347865
0.000333232
0.000318653
0.000304151
0.00028975
0.000275475
0.000261348
0.00069633
0.000686999
0.0006774
0.000667532
0.000657397
0.000646994
0.000636327
0.000625397
0.000614208
0.000602765
0.000591074
0.00057914
0.000566971
0.000554576
0.000541962
0.000529141
0.000516124
0.000502923
0.000489552
0.000476023
0.000462354
0.00044856
0.000434658
0.000420665
0.000406602
0.000392486
0.000378339
0.00036418
0.000350032
0.000335914
0.000321851
0.000307862
0.000293971
0.000280199
0.000266567
0.000688834
0.000679644
0.0006702
0.000660504
0.000650555
0.000640355
0.000629906
0.00061921
0.000608273
0.000597098
0.000585691
0.000574059
0.000562208
0.000550146
0.000537883
0.000525427
0.000512791
0.000499986
0.000487024
0.000473919
0.000460685
0.000447338
0.000433894
0.000420368
0.00040678
0.000393146
0.000379486
0.000365819
0.000352164
0.000338542
0.000324972
0.000311475
0.000298071
0.000284781
0.000271624
0.000681553
0.000672506
0.000663221
0.000653697
0.000643936
0.000633938
0.000623706
0.000613244
0.000602555
0.000591645
0.000580519
0.000569182
0.000557642
0.000545907
0.000533986
0.000521887
0.000509621
0.0004972
0.000484636
0.00047194
0.000459127
0.000446212
0.000433208
0.000420133
0.000407001
0.000393831
0.000380639
0.000367443
0.000354262
0.000341114
0.000328017
0.00031499
0.000302053
0.000289224
0.00027652
0.000674485
0.000665585
0.000656458
0.000647108
0.000637534
0.000627738
0.000617723
0.000607493
0.00059705
0.000586401
0.00057555
0.000564504
0.000553269
0.000541853
0.000530265
0.000518513
0.000506608
0.000494559
0.000482379
0.00047008
0.000457674
0.000445175
0.000432596
0.000419953
0.000407261
0.000394536
0.000381793
0.00036905
0.000356322
0.000343628
0.000330984
0.000318408
0.000305917
0.000293529
0.00028126
0.000667628
0.000658876
0.000649911
0.000640735
0.000631348
0.000621754
0.000611954
0.000601952
0.000591752
0.00058136
0.00057078
0.000560018
0.000549082
0.000537978
0.000526714
0.0005153
0.000503744
0.000492057
0.000480249
0.000468333
0.000456319
0.000444221
0.000432052
0.000419826
0.000407556
0.000395258
0.000382946
0.000370636
0.000358344
0.000346084
0.000333874
0.00032173
0.000309666
0.000297699
0.000285846
0.000660982
0.000652379
0.000643575
0.000634573
0.000625374
0.000615979
0.000606392
0.000596617
0.000586657
0.000576517
0.000566203
0.00055572
0.000545075
0.000534274
0.000523327
0.00051224
0.000501023
0.000489686
0.000478239
0.000466692
0.000455057
0.000443346
0.000431571
0.000419745
0.000407881
0.000395993
0.000384095
0.0003722
0.000360325
0.000348482
0.000336687
0.000324955
0.0003133
0.000301737
0.000290281
0.000654543
0.00064609
0.000637448
0.00062862
0.000619607
0.000610411
0.000601035
0.000591483
0.000581758
0.000571867
0.000561813
0.000551602
0.000541241
0.000530737
0.000520096
0.000509328
0.00049844
0.000487442
0.000476342
0.000465153
0.000453883
0.000442544
0.000431149
0.000419707
0.000408233
0.000396739
0.000385237
0.000373741
0.000362264
0.00035082
0.000339422
0.000328085
0.000316821
0.000305645
0.000294569
0.000648309
0.000640007
0.000631527
0.000622872
0.000614044
0.000605044
0.000595877
0.000586544
0.000577052
0.000567403
0.000557604
0.000547659
0.000537575
0.000527359
0.000517017
0.000506557
0.000495988
0.000485317
0.000474554
0.000463709
0.000452791
0.000441811
0.00043078
0.000419708
0.000408608
0.000397491
0.000386369
0.000375255
0.00036416
0.000353098
0.000342081
0.000331121
0.000320231
0.000309424
0.000298712
0.000642278
0.000634126
0.000625808
0.000617326
0.000608681
0.000599875
0.000590913
0.000581797
0.000572532
0.000563121
0.000553571
0.000543886
0.000534072
0.000524136
0.000514083
0.000503923
0.000493661
0.000483307
0.000472869
0.000462356
0.000451777
0.000441142
0.000430461
0.000419745
0.000409003
0.000398248
0.000387491
0.000376742
0.000366013
0.000355316
0.000344662
0.000334064
0.000323532
0.000313078
0.000302714
0.000636447
0.000628446
0.000620288
0.000611977
0.000603513
0.0005949
0.000586139
0.000577236
0.000568193
0.000559016
0.000549708
0.000540276
0.000530725
0.00052106
0.000511289
0.000501418
0.000491455
0.000481406
0.000471281
0.000461088
0.000450835
0.000440532
0.000430188
0.000419812
0.000409415
0.000399007
0.000388598
0.000378199
0.000367821
0.000357473
0.000347167
0.000336914
0.000326724
0.000316608
0.000306577
0.000630813
0.000622962
0.000614964
0.000606822
0.000598537
0.000590112
0.00058155
0.000572855
0.000564031
0.000555081
0.00054601
0.000536824
0.000527528
0.000518127
0.000508629
0.000499038
0.000489362
0.000479609
0.000469786
0.000459901
0.000449962
0.000439977
0.000429956
0.000419908
0.000409841
0.000399766
0.000389691
0.000379627
0.000369583
0.00035957
0.000349596
0.000339673
0.00032981
0.000320017
0.000310304
0.000625374
0.000617672
0.000609832
0.000601857
0.000593749
0.000585509
0.000577142
0.000568651
0.00056004
0.000551312
0.000542472
0.000533525
0.000524477
0.000515332
0.000506096
0.000496777
0.000487379
0.000477911
0.000468378
0.00045879
0.000449152
0.000439474
0.000429763
0.000420028
0.000410278
0.000400521
0.000390766
0.000381022
0.000371299
0.000361605
0.00035195
0.000342343
0.000332792
0.000323308
0.000313898
0.000620126
0.000612572
0.000604888
0.000597078
0.000589143
0.000581086
0.00057291
0.000564619
0.000556215
0.000547703
0.000539088
0.000530374
0.000521565
0.000512668
0.000503688
0.000494629
0.0004855
0.000476306
0.000467053
0.00045775
0.000448402
0.000439018
0.000429605
0.000420171
0.000410723
0.000401271
0.000391822
0.000382385
0.000372968
0.00036358
0.000354228
0.000344923
0.000335671
0.000326481
0.000317363
0.000615066
0.000607658
0.000600128
0.000592481
0.000584717
0.000576839
0.000568849
0.000560752
0.000552552
0.00054425
0.000535853
0.000527364
0.000518789
0.000510131
0.000501397
0.000492591
0.00048372
0.00047479
0.000465807
0.000456777
0.000447708
0.000438606
0.000429478
0.000420332
0.000411175
0.000402014
0.000392858
0.000383714
0.00037459
0.000365493
0.000356432
0.000347415
0.000338448
0.000329541
0.000320699
0.000610192
0.000602928
0.00059555
0.000588062
0.000580465
0.000572762
0.000564955
0.000557048
0.000549045
0.000540948
0.000532763
0.000524492
0.000516142
0.000507716
0.000499219
0.000490657
0.000482035
0.000473359
0.000464635
0.000455868
0.000447066
0.000438234
0.00042938
0.000420509
0.00041163
0.000402749
0.000393872
0.000385008
0.000376164
0.000367346
0.000358562
0.00034982
0.000341126
0.000332487
0.000323912
0.0006055
0.000598378
0.000591149
0.000583818
0.000576385
0.000568852
0.000561224
0.000553502
0.00054569
0.000537792
0.000529811
0.000521753
0.00051362
0.000505417
0.00049715
0.000488822
0.00048044
0.000472008
0.000463532
0.000455018
0.000446472
0.0004379
0.000429307
0.000420701
0.000412087
0.000403472
0.000394864
0.000386267
0.00037769
0.000369138
0.000360619
0.000352139
0.000343705
0.000335324
0.000327001
0.000600986
0.000594004
0.000586922
0.000579744
0.000572471
0.000565105
0.00055765
0.000550108
0.000542482
0.000534777
0.000526995
0.000519141
0.000511218
0.000503231
0.000495184
0.000487083
0.000478931
0.000470734
0.000462496
0.000454225
0.000445924
0.0004376
0.000429257
0.000420903
0.000412544
0.000404184
0.000395831
0.00038749
0.000379167
0.00037087
0.000362603
0.000354374
0.000346188
0.000338052
0.000329971
0.000596649
0.000589804
0.000582865
0.000575837
0.00056872
0.000561517
0.00055423
0.000546862
0.000539417
0.000531898
0.000524309
0.000516652
0.000508932
0.000501153
0.000493318
0.000485434
0.000477503
0.000469531
0.000461523
0.000453483
0.000445418
0.000437331
0.000429228
0.000421116
0.000412998
0.000404882
0.000396772
0.000388675
0.000380596
0.000372541
0.000364516
0.000356525
0.000348576
0.000340674
0.000332823
0.000592485
0.000585774
0.000578975
0.000572093
0.000565128
0.000558083
0.00055096
0.000543761
0.000536491
0.000529152
0.000521748
0.000514282
0.000506757
0.000499178
0.000491548
0.000483872
0.000476154
0.000468398
0.000460609
0.000452791
0.00044495
0.000437091
0.000429217
0.000421335
0.000413449
0.000405565
0.000397688
0.000389824
0.000381976
0.000374152
0.000366356
0.000358594
0.00035087
0.000343191
0.00033556
0.00058849
0.00058191
0.000575249
0.000568508
0.000561692
0.0005548
0.000547835
0.000540801
0.0005337
0.000526535
0.000519309
0.000512027
0.00050469
0.000497303
0.000489869
0.000482393
0.000474879
0.00046733
0.000459751
0.000452146
0.000444519
0.000436877
0.000429222