/*--------------------------------*- C++ -*----------------------------------*\
| =========                 |                                                 |
| \\      /  F ield         | OpenFOAM: The Open Source CFD Toolbox           |
|  \\    /   O peration     | Version:  2412                                  |
|   \\  /    A nd           | Website:  www.openfoam.com                      |
|    \\/     M anipulation  |                                                 |
\*---------------------------------------------------------------------------*/
FoamFile
{
    version     2.0;
    format      ascii;
    arch        "LSB;label=32;scalar=64";
    class       volScalarField;
    location    "22";
    object      p;
}
// * * * * * * * * * * * * * * * * * * * * * * * * * * * * * * * * * * * * * //

dimensions      [0 2 -2 0 0 0 0];

internalField   nonuniform List<scalar> 
63420
(
0.000931155
0.000931415
0.000932242
0.000933519
0.000935229
0.000937359
0.000939892
0.000942815
0.000946116
0.000949785
0.000953814
0.000958195
0.00096292
0.000967984
0.000973381
0.000979106
0.000985154
0.000991523
0.000998211
0.00100522
0.00101254
0.00102019
0.00102816
0.00103645
0.00104507
0.00105402
0.0010633
0.00107292
0.00108287
0.00109316
0.0011038
0.00111478
0.00112612
0.0011378
0.00114984
0.00116225
0.00117501
0.00118815
0.00120166
0.00121554
0.0012298
0.00124444
0.00125947
0.00127489
0.00129071
0.00130693
0.00132355
0.00134058
0.00135803
0.00137589
0.00139417
0.00141289
0.00143203
0.00145161
0.00147163
0.000931095
0.000931355
0.000932181
0.000933457
0.000935166
0.000937295
0.000939826
0.000942747
0.000946045
0.000949712
0.000953737
0.000958115
0.000962836
0.000967896
0.000973289
0.000979009
0.000985052
0.000991416
0.000998098
0.0010051
0.00101242
0.00102006
0.00102802
0.0010363
0.00104491
0.00105385
0.00106312
0.00107273
0.00108267
0.00109295
0.00110358
0.00111455
0.00112586
0.00113754
0.00114956
0.00116195
0.0011747
0.00118781
0.0012013
0.00121516
0.0012294
0.00124401
0.00125902
0.00127442
0.0012902
0.00130639
0.00132298
0.00133998
0.00135739
0.00137521
0.00139345
0.00141212
0.00143122
0.00145075
0.00147072
0.000930976
0.000931235
0.00093206
0.000933334
0.000935041
0.000937166
0.000939694
0.00094261
0.000945904
0.000949565
0.000953584
0.000957955
0.000962669
0.000967721
0.000973105
0.000978815
0.000984848
0.000991201
0.000997872
0.00100486
0.00101217
0.00101979
0.00102774
0.001036
0.0010446
0.00105352
0.00106277
0.00107235
0.00108227
0.00109253
0.00110313
0.00111407
0.00112536
0.001137
0.001149
0.00116135
0.00117406
0.00118714
0.00120058
0.0012144
0.00122859
0.00124316
0.00125812
0.00127346
0.00128919
0.00130532
0.00132184
0.00133877
0.0013561
0.00137385
0.00139201
0.00141059
0.0014296
0.00144903
0.00146889
0.000930796
0.000931055
0.000931878
0.00093315
0.000934852
0.000936973
0.000939496
0.000942406
0.000945692
0.000949345
0.000953355
0.000957715
0.000962419
0.000967458
0.000972829
0.000978525
0.000984543
0.000990879
0.000997533
0.0010045
0.00101179
0.00101939
0.00102731
0.00103556
0.00104413
0.00105302
0.00106224
0.00107179
0.00108168
0.0010919
0.00110246
0.00111336
0.00112461
0.00113621
0.00114815
0.00116045
0.00117311
0.00118613
0.00119952
0.00121327
0.00122739
0.00124189
0.00125677
0.00127203
0.00128767
0.00130371
0.00132014
0.00133696
0.00135419
0.00137182
0.00138986
0.00140831
0.00142717
0.00144646
0.00146616
0.000930557
0.000930816
0.000931636
0.000932904
0.000934602
0.000936717
0.000939232
0.000942133
0.00094541
0.000949052
0.00095305
0.000957396
0.000962085
0.000967109
0.000972462
0.000978139
0.000984136
0.000990451
0.000997081
0.00100403
0.00101128
0.00101886
0.00102675
0.00103496
0.0010435
0.00105235
0.00106153
0.00107104
0.00108089
0.00109106
0.00110157
0.00111242
0.00112361
0.00113515
0.00114703
0.00115926
0.00117185
0.00118479
0.0011981
0.00121176
0.0012258
0.0012402
0.00125497
0.00127012
0.00128566
0.00130157
0.00131787
0.00133456
0.00135164
0.00136912
0.001387
0.00140528
0.00142396
0.00144305
0.00146255
0.000930259
0.000930516
0.000931334
0.000932597
0.000934289
0.000936396
0.000938902
0.000941793
0.000945058
0.000948686
0.000952669
0.000956998
0.000961668
0.000966672
0.000972003
0.000977657
0.000983629
0.000989916
0.000996517
0.00100343
0.00101066
0.0010182
0.00102605
0.00103422
0.00104271
0.00105152
0.00106065
0.00107011
0.0010799
0.00109001
0.00110046
0.00111125
0.00112237
0.00113383
0.00114563
0.00115778
0.00117028
0.00118312
0.00119633
0.00120989
0.00122381
0.00123809
0.00125274
0.00126776
0.00128315
0.00129891
0.00131505
0.00133157
0.00134848
0.00136577
0.00138344
0.00140151
0.00141997
0.00143882
0.00145806
0.000929901
0.000930158
0.000930972
0.00093223
0.000933914
0.000936013
0.000938507
0.000941386
0.000944636
0.000948247
0.000952212
0.000956522
0.000961169
0.000966149
0.000971454
0.00097708
0.000983021
0.000989276
0.000995842
0.00100272
0.0010099
0.0010174
0.00102521
0.00103333
0.00104177
0.00105053
0.0010596
0.001069
0.00107872
0.00108876
0.00109914
0.00110984
0.00112088
0.00113225
0.00114396
0.001156
0.0011684
0.00118113
0.00119422
0.00120765
0.00122143
0.00123558
0.00125007
0.00126493
0.00128015
0.00129574
0.00131169
0.00132801
0.00134471
0.00136177
0.00137921
0.00139703
0.00141522
0.00143379
0.00145273
0.00149215
0.00151339
0.00153555
0.00155866
0.00158279
0.001608
0.00163435
0.00166191
0.00169077
0.00172099
0.00175268
0.00178592
0.00182083
0.00185751
0.00189608
0.00193669
0.00197947
0.0020246
0.00207224
0.00212257
0.00217582
0.00223222
0.00229201
0.00235546
0.0024229
0.00249465
0.00257109
0.00265263
0.00273971
0.00283284
0.00293257
0.00303949
0.00315428
0.00327763
0.00341033
0.00355318
0.003707
0.00387258
0.0040506
0.00424148
0.00444522
0.00466109
0.00488732
0.00512091
0.00535791
0.00559431
0.00582642
0.00606061
0.00636237
0.00682163
0.00149121
0.00151246
0.00153461
0.00155772
0.00158184
0.00160705
0.0016334
0.00166096
0.00168981
0.00172003
0.00175171
0.00178494
0.00181984
0.0018565
0.00189506
0.00193565
0.00197841
0.00202351
0.00207111
0.0021214
0.00217459
0.00223092
0.00229062
0.00235397
0.00242127
0.00249286
0.00256909
0.00265037
0.00273713
0.00282987
0.0029291
0.0030354
0.00314939
0.00327174
0.00340316
0.00354436
0.00369606
0.00385889
0.00403333
0.00421954
0.00441716
0.00462503
0.00484081
0.00506078
0.00528013
0.00549395
0.00569803
0.00589787
0.00615475
0.00655167
0.00148934
0.00151058
0.00153272
0.00155583
0.00157995
0.00160515
0.00163149
0.00165904
0.00168788
0.00171809
0.00174976
0.00178298
0.00181786
0.0018545
0.00189303
0.00193358
0.00197629
0.00202133
0.00206886
0.00211906
0.00217214
0.00222832
0.00228785
0.00235099
0.00241803
0.00248929
0.00256512
0.0026459
0.00273204
0.00282399
0.00292224
0.00302731
0.00313975
0.00326012
0.00338901
0.00352697
0.00367447
0.00383185
0.00399918
0.00417608
0.0043615
0.00455333
0.00474809
0.00494061
0.00512433
0.0052925
0.00544006
0.00557102
0.00573411
0.00601886
0.00148652
0.00150776
0.0015299
0.00155299
0.0015771
0.00160229
0.00162862
0.00165616
0.00168498
0.00171518
0.00174682
0.00178001
0.00181486
0.00185146
0.00188993
0.00193042
0.00197306
0.002018
0.00206541
0.00211547
0.00216837
0.00222434
0.0022836
0.0023464
0.00241304
0.00248379
0.002559
0.00263901
0.00272419
0.00281495
0.00291171
0.00301491
0.00312498
0.00324236
0.00336744
0.0035005
0.0036417
0.00379092
0.00394763
0.00411066
0.00427788
0.00444582
0.00460924
0.00476082
0.00489141
0.00499136
0.00505427
0.00508534
0.00511793
0.00520504
0.0014828
0.00150403
0.00152616
0.00154924
0.00157334
0.00159852
0.00162484
0.00165237
0.00168118
0.00171135
0.00174298
0.00177614
0.00181095
0.00184751
0.00188593
0.00192634
0.00196889
0.00201372
0.00206099
0.00211087
0.00216355
0.00221924
0.00227815
0.00234054
0.00240664
0.00247674
0.00255113
0.00263012
0.00271403
0.0028032
0.00289797
0.00299866
0.00310556
0.0032189
0.00333882
0.00346526
0.00359792
0.00373607
0.00387837
0.00402258
0.00416518
0.00430088
0.00442217
0.00451898
0.00457888
0.00458845
0.00453854
0.0044373
0.00430697
0.00408875
0.00147817
0.0014994
0.00152153
0.00154463
0.00156875
0.00159395
0.00162029
0.00164785
0.00167669
0.0017069
0.00173855
0.00177175
0.00180659
0.00184318
0.00188164
0.00192208
0.00196464
0.00200947
0.00205673
0.00210657
0.00215919
0.00221477
0.00227353
0.00233569
0.00240149
0.00247118
0.00254502
0.00262327
0.00270622
0.00279412
0.00288721
0.00298569
0.00308969
0.00319919
0.003314
0.00343359
0.00355701
0.00368263
0.00380784
0.00392868
0.00403931
0.00413147
0.00419389
0.00421206
0.00416854
0.00404483
0.0038273
0.00352493
0.00315179
0.00252152
0.00147262
0.00149378
0.00151586
0.00153891
0.00156298
0.00158813
0.00161443
0.00164194
0.00167073
0.00170089
0.0017325
0.00176565
0.00180044
0.00183698
0.00187537
0.00191574
0.00195823
0.00200298
0.00205012
0.00209984
0.0021523
0.00220769
0.00226621
0.00232807
0.0023935
0.0024627
0.00253593
0.00261341
0.00269536
0.00278198
0.00287342
0.00296975
0.00307091
0.00317668
0.00328648
0.00339931
0.00351348
0.00362628
0.00373352
0.00382899
0.00390368
0.00394508
0.00393652
0.0038572
0.00368305
0.00338817
0.00295549
0.00239821
0.0016801
0.000512
-0.0034981
-0.00356806
-0.00358903
-0.003575
-0.00353802
-0.00348095
-0.00340538
-0.00331339
-0.00320784
-0.00308911
-0.00295906
-0.00281945
-0.00267196
-0.00251828
-0.00236013
-0.00219915
-0.00203694
-0.00187504
-0.00171488
-0.0015578
-0.00140497
-0.00125739
-0.00111598
-0.000981579
-0.00085481
-0.000736065
-0.000625591
-0.000523556
-0.000430015
-0.000344894
-0.000268019
-0.00019913
-0.000137897
-8.39299e-05
-3.67968e-05
3.96674e-06
3.88448e-05
6.83301e-05
9.29152e-05
0.000113084
0.000129305
0.000142027
0.000151672
0.000158637
0.000163287
0.000165956
0.000166949
0.000166536
0.000164961
0.000162439
-0.00357454
-0.00362247
-0.00363023
-0.00360837
-0.00356619
-0.00350573
-0.00342809
-0.00333525
-0.00322884
-0.0031098
-0.00297973
-0.00284017
-0.00269275
-0.00253908
-0.00238094
-0.00221987
-0.00205746
-0.00189526
-0.0017347
-0.00157711
-0.00142369
-0.00127544
-0.00113329
-0.000998082
-0.000870484
-0.000750889
-0.00063955
-0.000536648
-0.000442247
-0.000356283
-0.000278589
-0.000208912
-0.000146924
-9.22414e-05
-4.44321e-05
-3.03329e-06
3.24386e-05
6.24769e-05
8.75749e-05
0.000108218
0.000124876
0.000138
0.000148014
0.000155316
0.000160275
0.000163226
0.000164476
0.000164299
0.000162938
0.000160613
-0.00372655
-0.00372956
-0.00371116
-0.00367376
-0.00362103
-0.00355367
-0.00347158
-0.00337685
-0.003269
-0.00314928
-0.00301924
-0.0028798
-0.00273245
-0.00257907
-0.00242098
-0.0022598
-0.00209709
-0.00193437
-0.00177308
-0.00161458
-0.00146006
-0.00131056
-0.00116701
-0.00103027
-0.000901067
-0.000779843
-0.000666843
-0.000562265
-0.000466199
-0.0003786
-0.000299316
-0.000228104
-0.000164648
-0.000108568
-5.94377e-05
-1.67969e-05
1.98373e-05
5.09586e-05
7.70617e-05
9.86345e-05
0.00011615
0.000130063
0.000140801
0.000148767
0.000154332
0.000157838
0.000159594
0.000159879
0.000158938
0.000157002
-0.00396
-0.00388175
-0.00382902
-0.00376815
-0.00369943
-0.00362159
-0.00353219
-0.003435
-0.00332565
-0.00320407
-0.00307421
-0.0029353
-0.00278852
-0.00263546
-0.00247756
-0.00231632
-0.00215328
-0.00198993
-0.00182771
-0.00166799
-0.00151198
-0.00136078
-0.00121529
-0.00107644
-0.000944996
-0.000821454
-0.000706114
-0.000599167
-0.000500738
-0.000410814
-0.000329263
-0.00025586
-0.000190303
-0.000132221
-8.11952e-05
-3.67699e-05
1.5361e-06
3.42168e-05
6.17687e-05
8.46829e-05
0.000103437
0.000118489
0.000130274
0.000139199
0.000145642
0.000149949
0.000152437
0.000153389
0.000153057
0.000151687
-0.00425432
-0.00407999
-0.00398096
-0.00388632
-0.0037961
-0.00370451
-0.00360721
-0.00350484
-0.00339241
-0.00327087
-0.0031406
-0.00300189
-0.00285572
-0.00270326
-0.00254581
-0.00238476
-0.00222158
-0.00205772
-0.00189462
-0.00173365
-0.00157606
-0.00142298
-0.00127535
-0.00113407
-0.001
-0.000873737
-0.000755593
-0.0006458
-0.000544511
-0.000451752
-0.00036742
-0.000291314
-0.000223149
-0.00016257
-0.000109169
-6.24973e-05
-2.20774e-05
1.25829e-05
4.19811e-05
6.66105e-05
8.69528e-05
0.000103471
0.000116606
0.000126771
0.00013435
0.000139696
0.000143134
0.000144952
0.000145411
0.000144774
-0.00456428
-0.00432475
-0.00416832
-0.00403189
-0.00391085
-0.00379858
-0.00369349
-0.00357936
-0.00346174
-0.00333826
-0.00320753
-0.00306952
-0.00292466
-0.00277373
-0.00261777
-0.00245798
-0.0022957
-0.00213232
-0.00196922
-0.00180775
-0.00164921
-0.00149473
-0.00134532
-0.00120188
-0.00106529
-0.000936246
-0.000815177
-0.000702326
-0.000597895
-0.000501958
-0.000414454
-0.000335215
-0.000263985
-0.000200434
-0.000144173
-9.47669e-05
-5.17495e-05
-1.46348e-05
1.70709e-05
4.38602e-05
6.62156e-05
8.46035e-05
9.94682e-05
0.000111228
0.000120274
0.000126966
0.000131632
0.00013457
0.000136054
0.000136354
-0.00486175
-0.00463089
-0.00442005
-0.00423023
-0.00406518
-0.00392466
-0.00379832
-0.00367318
-0.0035485
-0.00342088
-0.00328841
-0.00315029
-0.00300627
-0.00285664
-0.00270205
-0.00254348
-0.00238206
-0.00221906
-0.00205581
-0.00189363
-0.00173382
-0.00157759
-0.00142597
-0.00127989
-0.00114027
-0.00100791
-0.000883303
-0.000766804
-0.000658642
-0.000558949
-0.00046771
-0.000384798
-0.000309991
-0.000242988
-0.000183421
-0.000130871
-8.48835e-05
-4.49786e-05
-1.06654e-05
1.85491e-05
4.31506e-05
6.36104e-05
8.03796e-05
9.38844e-05
0.000104523
0.000112665
0.000118648
0.000122779
0.000125341
0.000126605
0.000159149
0.000155155
0.000150597
0.000145608
0.000140286
0.000134717
0.00012898
0.000123144
0.000117268
0.000111405
0.000105598
9.98837e-05
9.42928e-05
8.88498e-05
8.35742e-05
7.84809e-05
7.35807e-05
6.8881e-05
6.43863e-05
6.00983e-05
5.6017e-05
5.21405e-05
4.84655e-05
4.49877e-05
4.17019e-05
3.86026e-05
3.56836e-05
3.29388e-05
3.03618e-05
2.79462e-05
2.56857e-05
2.35739e-05
2.16047e-05
1.97716e-05
1.80682e-05
1.64883e-05
1.50252e-05
1.36726e-05
1.24239e-05
1.12729e-05
1.02135e-05
9.23938e-06
8.34593e-06
7.52426e-06
6.77377e-06
6.09074e-06
5.46313e-06
4.89163e-06
4.37231e-06
3.90056e-06
3.47283e-06
3.08578e-06
2.73622e-06
2.42117e-06
2.13782e-06
1.88353e-06
1.65585e-06
1.45248e-06
1.27126e-06
1.1102e-06
9.67444e-07
8.41272e-07
7.30079e-07
6.32403e-07
5.46875e-07
4.72246e-07
4.07368e-07
3.51163e-07
3.02686e-07
2.61043e-07
2.25438e-07
1.95162e-07
1.69551e-07
1.48022e-07
1.30075e-07
1.15211e-07
1.03016e-07
9.31317e-08
8.52217e-08
7.89248e-08
7.41572e-08
7.03129e-08
6.79671e-08
6.55261e-08
6.54258e-08
6.30178e-08
6.60022e-08
6.09892e-08
7.00621e-08
5.70207e-08
7.94114e-08
4.76242e-08
9.77975e-08
2.78926e-08
1.30158e-07
-7.48872e-09
1.80454e-07
-6.04457e-08
2.47195e-07
-1.24172e-07
3.17631e-07
-1.78998e-07
3.66648e-07
-1.95963e-07
3.66959e-07
-1.53913e-07
3.11942e-07
-6.53529e-08
2.3998e-07
6.35555e-09
2.37498e-07
-3.91599e-08
4.0596e-07
-2.96026e-07
8.06871e-07
0.000157533
0.000153654
0.000149204
0.000144329
0.000139117
0.00013365
0.000128008
0.000122259
0.000116465
0.000110676
0.000104936
9.92841e-05
9.37496e-05
8.83579e-05
8.3129e-05
7.80781e-05
7.32164e-05
6.85516e-05
6.40885e-05
5.98292e-05
5.57739e-05
5.1921e-05
4.82674e-05
4.48089e-05
4.15408e-05
3.84575e-05
3.5553e-05
3.28213e-05
3.02562e-05
2.78515e-05
2.56007e-05
2.34979e-05
2.15366e-05
1.97107e-05
1.80138e-05
1.64397e-05
1.49818e-05
1.36338e-05
1.23893e-05
1.12421e-05
1.0186e-05
9.21483e-06
8.32406e-06
7.50478e-06
6.75646e-06
6.07535e-06
5.44947e-06
4.87953e-06
4.3616e-06
3.89109e-06
3.46448e-06
3.07842e-06
2.72975e-06
2.41549e-06
2.13283e-06
1.87917e-06
1.65205e-06
1.44916e-06
1.26837e-06
1.10769e-06
9.65273e-07
8.39397e-07
7.28461e-07
6.31013e-07
5.45684e-07
4.71227e-07
4.06499e-07
3.50422e-07
3.02057e-07
2.60512e-07
2.2499e-07
1.94786e-07
1.69238e-07
1.47762e-07
1.29859e-07
1.15034e-07
1.0287e-07
9.30135e-08
8.51249e-08
7.88468e-08
7.40945e-08
7.0263e-08
6.79281e-08
6.54956e-08
6.54015e-08
6.29996e-08
6.59855e-08
6.098e-08
7.00513e-08
5.70202e-08
7.94036e-08
4.76319e-08
9.77867e-08
2.7905e-08
1.30141e-07
-7.47275e-09
1.80438e-07
-6.04292e-08
2.47182e-07
-1.24161e-07
3.17621e-07
-1.7899e-07
3.66634e-07
-1.95956e-07
3.6695e-07
-1.53923e-07
3.11947e-07
-6.53678e-08
2.39966e-07
6.36791e-09
2.37468e-07
-3.91495e-08
4.05995e-07
-2.96093e-07
8.07146e-07
0.000154318
0.00015067
0.000146438
0.000141791
0.000136796
0.000131531
0.000126077
0.000120503
0.000114868
0.000109226
0.000103621
9.80916e-05
9.2669e-05
8.73792e-05
8.22429e-05
7.72761e-05
7.24908e-05
6.78954e-05
6.34952e-05
5.9293e-05
5.52895e-05
5.14835e-05
4.78725e-05
4.44527e-05
4.12196e-05
3.81681e-05
3.52926e-05
3.25871e-05
3.00458e-05
2.76626e-05
2.54314e-05
2.33461e-05
2.14008e-05
1.95892e-05
1.79052e-05
1.63426e-05
1.48951e-05
1.35564e-05
1.23203e-05
1.11804e-05
1.0131e-05
9.16581e-06
8.28038e-06
7.46591e-06
6.72188e-06
6.04461e-06
5.4222e-06
4.85536e-06
4.34021e-06
3.87219e-06
3.44779e-06
3.06372e-06
2.71682e-06
2.40413e-06
2.12288e-06
1.87046e-06
1.64444e-06
1.44253e-06
1.2626e-06
1.10269e-06
9.60936e-07
8.35648e-07
7.25233e-07
6.28237e-07
5.43303e-07
4.69192e-07
4.04759e-07
3.48943e-07
3.008e-07
2.59448e-07
2.24095e-07
1.94033e-07
1.68608e-07
1.47241e-07
1.29426e-07
1.14676e-07
1.02581e-07
9.2771e-08
8.49312e-08
7.86867e-08
7.39677e-08
7.01636e-08
6.78466e-08
6.54363e-08
6.53516e-08
6.29611e-08
6.59521e-08
6.09602e-08
7.00245e-08
5.7022e-08
7.93849e-08
4.76485e-08
9.77618e-08
2.79302e-08
1.30101e-07
-7.43103e-09
1.80389e-07
-6.03773e-08
2.47127e-07
-1.24113e-07
3.17571e-07
-1.78959e-07
3.66606e-07
-1.95958e-07
3.66945e-07
-1.53946e-07
3.11947e-07
-6.53908e-08
2.39941e-07
6.38323e-09
2.37409e-07
-3.91251e-08
4.06066e-07
-2.96234e-07
8.07698e-07
0.000149544
0.000146242
0.000142343
0.000138033
0.000133359
0.000128393
0.000123216
0.000117898
0.0001125
0.000107074
0.000101668
9.63196e-05
9.10624e-05
8.59233e-05
8.09242e-05
7.60822e-05
7.14103e-05
6.69179e-05
6.26112e-05
5.84938e-05
5.45673e-05
5.08312e-05
4.72835e-05
4.39212e-05
4.07404e-05
3.77363e-05
3.49037e-05
3.22374e-05
2.97315e-05
2.73804e-05
2.51783e-05
2.31194e-05
2.11978e-05
1.94076e-05
1.77429e-05
1.61976e-05
1.47655e-05
1.34407e-05
1.22169e-05
1.10882e-05
1.00487e-05
9.09245e-06
8.21501e-06
7.40772e-06
6.67013e-06
5.99861e-06
5.38138e-06
4.81918e-06
4.30818e-06
3.84388e-06
3.42281e-06
3.04171e-06
2.69746e-06
2.38713e-06
2.10798e-06
1.85742e-06
1.63305e-06
1.4326e-06
1.25397e-06
1.09519e-06
9.54443e-07
8.30036e-07
7.20397e-07
6.24078e-07
5.39737e-07
4.66141e-07
4.02153e-07
3.46727e-07
2.98918e-07
2.57856e-07
2.22754e-07
1.92906e-07
1.67667e-07
1.46459e-07
1.28777e-07
1.1414e-07
1.02144e-07
9.24096e-08
8.46395e-08
7.84481e-08
7.37773e-08
7.00132e-08
6.77252e-08
6.53452e-08
6.52764e-08
6.29045e-08
6.59027e-08
6.09314e-08
6.99874e-08
5.70213e-08
7.93562e-08
4.76696e-08
9.77246e-08
2.79668e-08
1.30044e-07
-7.37282e-09
1.80318e-07
-6.03058e-08
2.47049e-07
-1.24048e-07
3.17502e-07
-1.78923e-07
3.6657e-07
-1.95968e-07
3.66942e-07
-1.53988e-07
3.11952e-07
-6.54306e-08
2.39907e-07
6.402e-09
2.37326e-07
-3.90936e-08
4.06174e-07
-2.96448e-07
8.08517e-07
0.00014327
0.000140432
0.000136981
0.000133115
0.000128858
0.000124281
0.000119465
0.000114481
0.00010939
0.000104247
9.9099e-05
9.39874e-05
8.89464e-05
8.40047e-05
7.91854e-05
7.45071e-05
6.99841e-05
6.5627e-05
6.14432e-05
5.74376e-05
5.36124e-05
4.99684e-05
4.65043e-05
4.32179e-05
4.0106e-05
3.71645e-05
3.43888e-05
3.17741e-05
2.9315e-05
2.70064e-05
2.48428e-05
2.28187e-05
2.09285e-05
1.91667e-05
1.75274e-05
1.60049e-05
1.45934e-05
1.3287e-05
1.20797e-05
1.09657e-05
9.9394e-06
8.99498e-06
8.12814e-06
7.33039e-06
6.60135e-06
5.93746e-06
5.32713e-06
4.77109e-06
4.26562e-06
3.80626e-06
3.38961e-06
3.01245e-06
2.67172e-06
2.36452e-06
2.08816e-06
1.84008e-06
1.6179e-06
1.4194e-06
1.24248e-06
1.08522e-06
9.45806e-07
8.22572e-07
7.13963e-07
6.18546e-07
5.34993e-07
4.62081e-07
3.98688e-07
3.43779e-07
2.96415e-07
2.55739e-07
2.20971e-07
1.91409e-07
1.66415e-07
1.45419e-07
1.27913e-07
1.13426e-07
1.01561e-07
9.19294e-08
8.42501e-08
7.81311e-08
7.35236e-08
6.9812e-08
6.75638e-08
6.52225e-08
6.51761e-08
6.283e-08
6.58377e-08
6.08936e-08
6.99406e-08
5.70175e-08
7.93189e-08
4.7693e-08
9.76775e-08
2.80109e-08
1.29975e-07
-7.30513e-09
1.80234e-07
-6.02261e-08
2.46962e-07
-1.23982e-07
3.17433e-07
-1.78899e-07
3.66545e-07
-1.96004e-07
3.66958e-07
-1.54064e-07
3.11974e-07
-6.54961e-08
2.39871e-07
6.41814e-09
2.37225e-07
-3.90644e-08
4.06333e-07
-2.96753e-07
8.09611e-07
0.000135574
0.000133323
0.000130438
0.000127112
0.000123362
0.000119256
0.000114877
0.000110296
0.000105577
0.000100777
9.59432e-05
9.11198e-05
8.63426e-05
8.16418e-05
7.70424e-05
7.25645e-05
6.82241e-05
6.40331e-05
6.00004e-05
5.6132e-05
5.24317e-05
4.8901e-05
4.55399e-05
4.23472e-05
3.93203e-05
3.64561e-05
3.37506e-05
3.11997e-05
2.87986e-05
2.65425e-05
2.44264e-05
2.24454e-05
2.05941e-05
1.88673e-05
1.72596e-05
1.57655e-05
1.43794e-05
1.30958e-05
1.19089e-05
1.08133e-05
9.80337e-06
8.87366e-06
8.02001e-06
7.23414e-06
6.51574e-06
5.86132e-06
5.25958e-06
4.71122e-06
4.21261e-06
3.7594e-06
3.34826e-06
2.97601e-06
2.63966e-06
2.33637e-06
2.06348e-06
1.81848e-06
1.59904e-06
1.40295e-06
1.22817e-06
1.0728e-06
9.35047e-07
8.13274e-07
7.05947e-07
6.11652e-07
5.29079e-07
4.57021e-07
3.94369e-07
3.40104e-07
2.93297e-07
2.53102e-07
2.18749e-07
1.89543e-07
1.64855e-07
1.44121e-07
1.26836e-07
1.12537e-07
1.00831e-07
9.13313e-08
8.37637e-08
7.77367e-08
7.32068e-08
6.95605e-08
6.73628e-08
6.50683e-08
6.5051e-08
6.27381e-08
6.57574e-08
6.08473e-08
6.98839e-08
5.70113e-08
7.92713e-08
4.77206e-08
9.76174e-08
2.80664e-08
1.29888e-07
-7.22027e-09
1.80127e-07
-6.0126e-08
2.46849e-07
-1.23898e-07
3.17344e-07
-1.78867e-07
3.66509e-07
-1.96045e-07
3.66974e-07
-1.54155e-07
3.11997e-07
-6.55754e-08
2.39825e-07
6.43639e-09
2.37102e-07
-3.90324e-08
4.06529e-07
-2.97126e-07
8.10931e-07
0.000126556
0.00012502
0.000122816
0.000120118
0.000116949
0.000113385
0.000109509
0.000105395
0.000101106
9.6702e-05
9.22336e-05
8.77453e-05
8.32753e-05
7.88557e-05
7.45134e-05
7.02702e-05
6.61437e-05
6.21478e-05
5.82927e-05
5.45859e-05
5.10326e-05
4.76356e-05
4.43961e-05
4.13139e-05
3.83876e-05
3.56147e-05
3.29924e-05
3.05169e-05
2.81844e-05
2.59906e-05
2.39309e-05
2.20009e-05
2.01958e-05
1.85106e-05
1.69404e-05
1.548e-05
1.41242e-05
1.28677e-05
1.17051e-05
1.06313e-05
9.64098e-06
8.72882e-06
7.89088e-06
7.11919e-06
6.41348e-06
5.77036e-06
5.17888e-06
4.63968e-06
4.14928e-06
3.70342e-06
3.29884e-06
2.93246e-06
2.60135e-06
2.30272e-06
2.03397e-06
1.79266e-06
1.57648e-06
1.38329e-06
1.21106e-06
1.05794e-06
9.2218e-07
8.02154e-07
6.9636e-07
6.03407e-07
5.22006e-07
4.50968e-07
3.89203e-07
3.35707e-07
2.89566e-07
2.49947e-07
2.16091e-07
1.87311e-07
1.62989e-07
1.42567e-07
1.25546e-07
1.11473e-07
9.99567e-08
9.06152e-08
8.31804e-08
7.72645e-08
7.28268e-08
6.92588e-08
6.71216e-08
6.48834e-08
6.49e-08
6.26305e-08
6.56589e-08
6.0797e-08
6.98095e-08
5.70139e-08
7.91967e-08
4.77767e-08
9.75095e-08
2.81813e-08
1.2972e-07
-7.03288e-09
1.79888e-07
-5.98703e-08
2.46549e-07
-1.23608e-07
3.17023e-07
-1.786e-07
3.66229e-07
-1.95863e-07
3.66776e-07
-1.54076e-07
3.11869e-07
-6.55548e-08
2.39686e-07
6.51717e-09
2.36898e-07
-3.89122e-08
4.06619e-07
-2.9734e-07
8.12161e-07
0.000116032
0.000115397
0.000114021
0.000112039
0.000109532
0.000106584
0.000103281
9.96975e-05
9.59012e-05
9.19519e-05
8.79031e-05
8.3801e-05
7.96859e-05
7.55919e-05
7.15477e-05
6.75772e-05
6.36999e-05
5.99312e-05
5.62834e-05
5.27656e-05
4.93844e-05
4.6144e-05
4.30471e-05
4.00947e-05
3.72864e-05
3.4621e-05
3.20963e-05
2.97097e-05
2.74579e-05
2.53374e-05
2.33443e-05
2.14745e-05
1.97238e-05
1.80877e-05
1.65618e-05
1.51412e-05
1.38212e-05
1.25968e-05
1.14631e-05
1.04152e-05
9.44803e-06
8.55669e-06
7.7374e-06
6.98256e-06
6.29189e-06
5.6622e-06
5.08293e-06
4.55461e-06
4.07395e-06
3.63682e-06
3.24005e-06
2.88065e-06
2.55576e-06
2.26268e-06
1.99886e-06
1.76193e-06
1.54963e-06
1.35988e-06
1.1907e-06
1.04026e-06
9.06859e-07
7.88912e-07
6.84941e-07
5.93584e-07
5.13578e-07
4.43755e-07
3.83046e-07
3.30467e-07
2.8512e-07
2.46187e-07
2.12922e-07
1.8465e-07
1.60763e-07
1.40712e-07
1.24008e-07
1.10202e-07
9.89121e-08
8.97599e-08
8.24834e-08
7.67004e-08
7.2372e-08
6.8898e-08
6.68322e-08
6.46625e-08
6.47173e-08
6.2505e-08
6.55362e-08
6.07451e-08
6.9708e-08
5.70353e-08
7.9077e-08
4.78849e-08
9.73181e-08
2.84036e-08
1.29402e-07
-6.65691e-09
1.79407e-07
-5.93229e-08
2.45899e-07
-1.22923e-07
3.16261e-07
-1.77875e-07
3.65475e-07
-1.95236e-07
3.6616e-07
-1.53655e-07
3.11452e-07
-6.53345e-08
2.39385e-07
6.70791e-09
2.36562e-07
-3.86309e-08
4.06476e-07
-2.97192e-07
8.13066e-07
0.000104411
0.000104675
0.000104144
0.000102939
0.000101155
9.88859e-05
9.62171e-05
9.32244e-05
8.99769e-05
8.65365e-05
8.29584e-05
7.92908e-05
7.55759e-05
7.18499e-05
6.81435e-05
6.44826e-05
6.08887e-05
5.73791e-05
5.3968e-05
5.06661e-05
4.74819e-05
4.44211e-05
4.14878e-05
3.86844e-05
3.60119e-05
3.34702e-05
3.10581e-05
2.87739e-05
2.66152e-05
2.45793e-05
2.26629e-05
2.08627e-05
1.91749e-05
1.75957e-05
1.61211e-05
1.47467e-05
1.34682e-05
1.22811e-05
1.11809e-05
1.0163e-05
9.2229e-06
8.35581e-06
7.55828e-06
6.82305e-06
6.14992e-06
5.53592e-06
4.97087e-06
4.45525e-06
3.98597e-06
3.55904e-06
3.17139e-06
2.82013e-06
2.5025e-06
2.21589e-06
1.95783e-06
1.72602e-06
1.51826e-06
1.33252e-06
1.16689e-06
1.01959e-06
8.88954e-07
7.73435e-07
6.71595e-07
5.82104e-07
5.03726e-07
4.35324e-07
3.7585e-07
3.24343e-07
2.79925e-07
2.41794e-07
2.0922e-07
1.81541e-07
1.58163e-07
1.38546e-07
1.22211e-07
1.08718e-07
9.76919e-08
8.87613e-08
8.16698e-08
7.60422e-08
7.18419e-08
6.84767e-08
6.64961e-08
6.44034e-08
6.4508e-08
6.23549e-08
6.54024e-08
6.0673e-08
6.96107e-08
5.703e-08
7.89817e-08
4.79462e-08
9.71853e-08
2.85386e-08
1.29198e-07
-6.43506e-09
1.79118e-07
-5.90212e-08
2.45539e-07
-1.22585e-07
3.15883e-07
-1.77576e-07
3.65155e-07
-1.95055e-07
3.65955e-07
-1.53621e-07
3.11349e-07
-6.539e-08
2.39285e-07
6.70526e-09
2.36409e-07
-3.86154e-08
4.06747e-07
-2.97647e-07
8.14924e-07
9.20601e-05
9.32084e-05
9.3527e-05
9.31244e-05
9.20983e-05
9.05431e-05
8.85446e-05
8.6179e-05
8.35165e-05
8.06204e-05
7.75474e-05
7.43476e-05
7.10647e-05
6.77369e-05
6.4397e-05
6.10727e-05
5.77876e-05
5.45609e-05
5.14086e-05
4.83433e-05
4.53752e-05
4.25117e-05
3.97585e-05
3.71194e-05
3.45966e-05
3.21913e-05
2.99035e-05
2.77325e-05
2.56769e-05
2.37346e-05
2.19033e-05
2.01802e-05
1.85622e-05
1.70462e-05
1.56285e-05
1.43055e-05
1.30732e-05
1.19278e-05
1.0865e-05
9.88064e-06
8.97069e-06
8.13072e-06
7.35753e-06
6.64423e-06
5.99073e-06
5.39435e-06
4.8452e-06
4.34382e-06
3.88729e-06
3.47178e-06
3.09435e-06
2.75222e-06
2.44274e-06
2.16338e-06
1.91178e-06
1.6857e-06
1.48304e-06
1.30181e-06
1.14017e-06
9.96383e-07
8.68847e-07
7.56053e-07
6.56606e-07
5.69208e-07
4.9266e-07
4.25853e-07
3.67766e-07
3.17464e-07
2.74089e-07
2.36859e-07
2.05061e-07
1.7805e-07
1.55242e-07
1.36113e-07
1.20192e-07
1.07051e-07
9.63211e-08
8.76396e-08
8.07562e-08
7.53031e-08
7.12469e-08
6.80034e-08
6.61196e-08
6.41118e-08
6.42752e-08
6.21847e-08
6.52573e-08
6.05863e-08
6.95121e-08
5.70088e-08
7.88965e-08
4.7983e-08
9.70799e-08
2.86306e-08
1.29049e-07
-6.28784e-09
1.78922e-07
-5.88379e-08
2.45318e-07
-1.22415e-07
3.15689e-07
-1.77487e-07
3.6505e-07
-1.95102e-07
3.65962e-07
-1.538e-07
3.11424e-07
-6.56192e-08
2.39322e-07
6.55483e-09
2.36397e-07
-3.87957e-08
4.07294e-07
-2.98482e-07
8.17423e-07
7.90943e-05
8.11277e-05
8.23028e-05
8.27192e-05
8.24716e-05
8.16537e-05
8.03505e-05
7.86385e-05
7.65881e-05
7.42637e-05
7.17231e-05
6.90177e-05
6.61929e-05
6.32886e-05
6.03394e-05
5.73748e-05
5.44204e-05
5.14973e-05
4.86234e-05
4.58131e-05
4.30782e-05
4.04281e-05
3.78698e-05
3.54086e-05
3.30484e-05
3.07913e-05
2.86388e-05
2.6591e-05
2.46475e-05
2.28073e-05
2.10688e-05
1.94299e-05
1.78883e-05
1.64413e-05
1.5086e-05
1.38193e-05
1.26378e-05
1.1538e-05
1.05162e-05
9.56888e-06
8.69216e-06
7.88207e-06
7.13572e-06
6.4466e-06
5.81479e-06
5.23787e-06
4.70626e-06
4.22059e-06
3.77815e-06
3.37526e-06
3.00912e-06
2.67708e-06
2.3766e-06
2.10527e-06
1.86082e-06
1.64108e-06
1.44404e-06
1.2678e-06
1.11057e-06
9.70683e-07
8.46578e-07
7.36802e-07
6.40002e-07
5.54922e-07
4.804e-07
4.15359e-07
3.5881e-07
3.09842e-07
2.67623e-07
2.31391e-07
2.00453e-07
1.7418e-07
1.52005e-07
1.33416e-07
1.17955e-07
1.05203e-07
9.48017e-08
8.63963e-08
7.97436e-08
7.44841e-08
7.05878e-08
6.74789e-08
6.57029e-08
6.37886e-08
6.40181e-08
6.19961e-08
6.5098e-08
6.04896e-08
6.94049e-08
5.6983e-08
7.88045e-08
4.80198e-08
9.69668e-08
2.87283e-08
1.28887e-07
-6.1281e-09
1.78706e-07
-5.86348e-08
2.45069e-07
-1.22221e-07
3.15464e-07
-1.77377e-07
3.64919e-07
-1.95144e-07
3.65963e-07
-1.54003e-07
3.11522e-07
-6.59056e-08
2.39411e-07
6.31763e-09
2.36467e-07
-3.90854e-08
4.0797e-07
-2.99463e-07
8.20231e-07
6.56488e-05
6.85676e-05
7.06009e-05
7.18419e-05
7.23826e-05
7.23147e-05
7.17222e-05
7.06809e-05
6.92613e-05
6.75283e-05
6.55402e-05
6.33496e-05
6.10033e-05
5.85426e-05
5.60037e-05
5.3418e-05
5.08127e-05
4.82108e-05
4.5632e-05
4.30926e-05
4.06061e-05
3.81833e-05
3.58332e-05
3.35624e-05
3.13761e-05
2.9278e-05
2.72705e-05
2.5355e-05
2.35322e-05
2.18019e-05
2.01633e-05
1.86151e-05
1.71559e-05
1.57834e-05
1.44956e-05
1.32898e-05
1.21633e-05
1.1113e-05
1.0136e-05
9.22878e-06
8.3882e-06
7.61064e-06
6.89355e-06
6.23077e-06
5.62261e-06
5.06692e-06
4.55443e-06
4.08592e-06
3.65885e-06
3.26974e-06
2.91593e-06
2.59491e-06
2.30427e-06
2.04171e-06
1.80505e-06
1.59225e-06
1.40137e-06
1.23059e-06
1.07818e-06
9.42551e-07
8.22198e-07
7.15723e-07
6.2182e-07
5.39278e-07
4.66973e-07
4.03866e-07
3.49e-07
3.01493e-07
2.6054e-07
2.25401e-07
1.95405e-07
1.69941e-07
1.48459e-07
1.30462e-07
1.15504e-07
1.03178e-07
9.31369e-08
8.50343e-08
7.86345e-08
7.35871e-08
6.98661e-08
6.69046e-08
6.52469e-08
6.34349e-08
6.37373e-08
6.17898e-08
6.49246e-08
6.03835e-08
6.92888e-08
5.69537e-08
7.87046e-08
4.80588e-08
9.68431e-08
2.8836e-08
1.28708e-07
-5.94852e-09
1.78461e-07
-5.84001e-08
2.44779e-07
-1.21985e-07
3.15189e-07
-1.77225e-07
3.64743e-07
-1.9516e-07
3.65939e-07
-1.54211e-07
3.11627e-07
-6.62377e-08
2.39546e-07
5.99747e-09
2.36614e-07
-3.94799e-08
4.08759e-07
-3.00564e-07
8.23282e-07
5.18694e-05
5.56624e-05
5.8545e-05
6.06062e-05
6.19348e-05
6.26202e-05
6.27445e-05
6.23826e-05
6.16045e-05
6.04751e-05
5.9053e-05
5.73916e-05
5.55387e-05
5.35368e-05
5.14235e-05
4.92318e-05