/*--------------------------------*- C++ -*----------------------------------*\
| =========                 |                                                 |
| \\      /  F ield         | OpenFOAM: The Open Source CFD Toolbox           |
|  \\    /   O peration     | Version:  2412                                  |
|   \\  /    A nd           | Website:  www.openfoam.com                      |
|    \\/     M anipulation  |                                                 |
\*---------------------------------------------------------------------------*/
FoamFile
{
    version     2.0;
    format      ascii;
    arch        "LSB;label=32;scalar=64";
    class       surfaceScalarField;
    location    "22";
    object      phi;
}
// * * * * * * * * * * * * * * * * * * * * * * * * * * * * * * * * * * * * * //

dimensions      [0 3 -1 0 0 0 0];

oriented        oriented;

internalField   nonuniform List<scalar> 
126304
(
0.00505063
1.29115e-07
1.25409e-11
0.00505025
3.76629e-07
1.65259e-11
0.00504964
6.11204e-07
1.72141e-11
0.00504881
8.34124e-07
2.40902e-11
0.00504776
1.04595e-06
4.07327e-11
0.00504651
1.24833e-06
6.60728e-11
0.00504506
1.44832e-06
8.99138e-11
0.0050434
1.66136e-06
8.82319e-11
0.00504149
1.9092e-06
2.59559e-11
0.00503928
2.2123e-06
-1.29588e-10
0.0050367
2.58016e-06
-3.9095e-10
0.0050337
3.00472e-06
-7.37839e-10
0.00503024
3.46038e-06
-1.11599e-09
0.00502633
3.9103e-06
-1.44915e-09
0.00502201
4.31621e-06
-1.65955e-09
0.00501737
4.64776e-06
-1.68826e-09
0.00501248
4.88829e-06
-1.50788e-09
0.00500745
5.03629e-06
-1.12529e-09
0.00500234
5.10292e-06
-5.76379e-10
0.00499724
5.10748e-06
8.44866e-11
0.00499216
5.0724e-06
7.96959e-10
0.00498714
5.0191e-06
1.50537e-09
0.00498217
4.9653e-06
2.1654e-09
0.00497725
4.92381e-06
2.74692e-09
0.00497234
4.90251e-06
3.23397e-09
0.00496743
4.90509e-06
3.62244e-09
0.0049625
4.93213e-06
3.917e-09
0.00495751
4.98218e-06
4.12773e-09
0.00495245
5.05268e-06
4.26742e-09
0.00494731
5.14069e-06
4.34939e-09
0.00494206
5.24331e-06
4.38605e-09
0.0049367
5.35801e-06
4.3881e-09
0.00493121
5.48267e-06
4.3643e-09
0.00492559
5.61564e-06
4.3216e-09
0.00491983
5.75567e-06
4.26533e-09
0.00491393
5.90189e-06
4.19945e-09
0.00490787
6.05367e-06
4.12663e-09
0.00490165
6.21062e-06
4.04858e-09
0.00489528
6.37248e-06
3.96641e-09
0.00488873
6.5391e-06
3.88089e-09
0.00488202
6.71041e-06
3.79259e-09
0.00487513
6.88637e-06
3.70203e-09
0.00486806
7.06698e-06
3.60951e-09
0.0048608
7.25226e-06
3.5151e-09
0.00485336
7.44223e-06
3.41882e-09
0.00484572
7.63692e-06
3.32073e-09
0.00483788
7.83638e-06
3.22091e-09
0.00482983
8.04065e-06
3.11947e-09
0.00482158
8.2498e-06
3.01652e-09
0.00481311
8.46391e-06
2.91221e-09
0.00480443
8.68311e-06
2.80678e-09
0.00479552
8.90773e-06
2.70031e-09
0.00478638
9.13857e-06
2.59289e-09
0.004777
9.378e-06
2.48473e-09
9.63278e-06
0.00476736
2.37602e-09
0.00505063
2.58154e-07
0.00505025
7.53003e-07
0.00504964
1.22199e-06
0.00504881
1.66768e-06
0.00504776
2.09119e-06
0.00504651
2.49585e-06
0.00504507
2.89566e-06
0.00504341
3.32136e-06
0.0050415
3.81627e-06
0.00503929
4.42121e-06
0.00503672
5.15518e-06
0.00503372
6.00233e-06
0.00503027
6.91173e-06
0.00502637
7.81008e-06
0.00502206
8.62116e-06
0.00501743
9.28438e-06
0.00501255
9.76642e-06
0.00500752
1.00641e-05
0.00500242
1.01994e-05
0.00499732
1.02107e-05
0.00499225
1.01427e-05
0.00498723
1.00379e-05
0.00498226
9.93171e-06
0.00497734
9.84971e-06
0.00497243
9.80766e-06
0.00496753
9.81301e-06
0.00496259
9.86696e-06
0.00495761
9.96669e-06
0.00495255
1.01072e-05
0.00494741
1.02825e-05
0.00494217
1.0487e-05
0.00493681
1.07157e-05
0.00493133
1.09642e-05
0.00492571
1.12293e-05
0.00491996
1.15086e-05
0.00491406
1.18003e-05
0.00490801
1.2103e-05
0.00490181
1.24161e-05
0.00489544
1.27391e-05
0.00488891
1.30715e-05
0.00488221
1.34133e-05
0.00487533
1.37643e-05
0.00486827
1.41246e-05
0.00486103
1.44942e-05
0.0048536
1.48732e-05
0.00484597
1.52615e-05
0.00483815
1.56594e-05
0.00483012
1.60668e-05
0.00482189
1.64838e-05
0.00481344
1.69107e-05
0.00480478
1.73477e-05
0.00479589
1.77954e-05
0.00478677
1.82554e-05
0.00477742
1.87321e-05
1.92386e-05
0.00476781
0.00505063
3.87025e-07
0.00505025
1.12884e-06
0.00504964
1.83192e-06
0.00504881
2.50005e-06
0.00504777
3.13497e-06
0.00504652
3.74162e-06
0.00504508
4.34087e-06
0.00504342
4.97847e-06
0.00504152
5.71906e-06
0.00503931
6.62365e-06
0.00503675
7.72085e-06
0.00503376
8.98734e-06
0.00503033
1.03474e-05
0.00502644
1.1692e-05
0.00502216
1.29072e-05
0.00501754
1.39023e-05
0.00501268
1.46274e-05
0.00500767
1.50772e-05
0.00500258
1.52842e-05
0.00499749
1.53053e-05
0.00499242
1.5207e-05
0.00498741
1.5053e-05
0.00498244
1.48959e-05
0.00497752
1.47742e-05
0.00497262
1.47115e-05
0.00496771
1.47192e-05
0.00496278
1.47992e-05
0.0049578
1.49475e-05
0.00495275
1.51566e-05
0.00494761
1.54178e-05
0.00494238
1.57228e-05
0.00493703
1.60638e-05
0.00493156
1.64347e-05
0.00492596
1.68306e-05
0.00492022
1.72476e-05
0.00491433
1.76833e-05
0.0049083
1.81356e-05
0.00490211
1.86034e-05
0.00489577
1.9086e-05
0.00488926
1.95827e-05
0.00488258
2.00935e-05
0.00487572
2.06181e-05
0.00486869
2.11565e-05
0.00486148
2.17087e-05
0.00485407
2.22749e-05
0.00484648
2.2855e-05
0.00483869
2.34492e-05
0.0048307
2.40577e-05
0.0048225
2.46804e-05
0.0048141
2.53177e-05
0.00480547
2.59699e-05
0.00479663
2.66378e-05
0.00478756
2.73237e-05
0.00477826
2.80336e-05
2.87858e-05
0.00476871
0.00505063
5.15641e-07
0.00505025
1.50386e-06
0.00504964
2.44054e-06
0.00504881
3.33064e-06
0.00504777
4.17654e-06
0.00504653
4.98477e-06
0.00504509
5.78287e-06
0.00504343
6.63127e-06
0.00504154
7.61552e-06
0.00503935
8.81655e-06
0.00503679
1.02728e-05
0.00503383
1.19539e-05
0.00503041
1.37603e-05
0.00502656
1.55476e-05
0.0050223
1.71654e-05
0.00501771
1.84929e-05
0.00501287
1.94632e-05
0.00500788
2.00687e-05
0.00500281
2.03517e-05
0.00499773
2.0387e-05
0.00499268
2.02625e-05
0.00498767
2.00623e-05
0.00498271
1.98565e-05
0.00497779
1.96962e-05
0.00497288
1.96131e-05
0.00496798
1.96225e-05
0.00496305
1.97274e-05
0.00495808
1.99225e-05
0.00495304
2.01982e-05
0.00494791
2.05432e-05
0.00494269
2.09463e-05
0.00493735
2.13975e-05
0.0049319
2.18886e-05
0.00492632
2.24129e-05
0.0049206
2.29657e-05
0.00491474
2.35432e-05
0.00490873
2.4143e-05
0.00490257
2.47634e-05
0.00489625
2.54034e-05
0.00488978
2.60623e-05
0.00488313
2.67398e-05
0.00487631
2.74356e-05
0.00486932
2.81497e-05
0.00486214
2.88821e-05
0.00485479
2.96329e-05
0.00484724
3.0402e-05
0.0048395
3.11897e-05
0.00483156
3.1996e-05
0.00482342
3.28211e-05
0.00481507
3.36652e-05
0.00480651
3.45288e-05
0.00479774
3.54128e-05
0.00478874
3.63196e-05
0.00477952
3.72567e-05
3.82452e-05
0.00477006
0.00505063
6.43921e-07
0.00505025
1.87779e-06
0.00504965
3.04745e-06
0.00504882
4.15886e-06
0.00504778
5.21517e-06
0.00504654
6.22444e-06
0.0050451
7.22061e-06
0.00504346
8.27838e-06
0.00504157
9.50366e-06
0.00503939
1.09971e-05
0.00503685
1.28069e-05
0.00503391
1.48965e-05
0.00503053
1.71435e-05
0.00502671
1.93694e-05
0.00502248
2.13876e-05
0.00501793
2.30479e-05
0.00501313
2.42663e-05
0.00500816
2.5032e-05
0.00500312
2.53965e-05
0.00499805
2.54516e-05
0.00499301
2.53058e-05
0.00498801
2.50635e-05
0.00498305
2.48118e-05
0.00497814
2.46143e-05
0.00497324
2.4511e-05
0.00496834
2.45213e-05
0.00496342
2.46494e-05
0.00495845
2.48892e-05
0.00495342
2.5229e-05
0.00494831
2.5655e-05
0.0049431
2.61534e-05
0.00493779
2.67119e-05
0.00493235
2.73202e-05
0.0049268
2.79702e-05
0.00492111
2.86557e-05
0.00491528
2.93723e-05
0.0049093
3.01168e-05
0.00490318
3.08871e-05
0.0048969
3.16817e-05
0.00489046
3.24999e-05
0.00488386
3.33412e-05
0.00487709
3.42052e-05
0.00487015
3.50918e-05
0.00486303
3.6001e-05
0.00485573
3.69329e-05
0.00484825
3.78874e-05
0.00484057
3.88647e-05
0.0048327
3.98648e-05
0.00482464
4.08879e-05
0.00481637
4.19342e-05
0.00480789
4.30042e-05
0.00479921
4.40986e-05
0.00479031
4.52202e-05
0.00478119
4.63764e-05
4.75891e-05
0.00477184
0.00505063
7.7179e-07
0.00505026
2.25037e-06
0.00504965
3.65221e-06
0.00504883
4.98414e-06
0.00504779
6.25013e-06
0.00504656
7.45973e-06
0.00504512
8.65305e-06
0.00504348
9.91845e-06
0.00504161
1.13816e-05
0.00503944
1.31625e-05
0.00503693
1.53195e-05
0.00503401
1.78104e-05
0.00503067
2.04912e-05
0.00502689
2.31506e-05
0.00502271
2.55667e-05
0.00501819
2.75602e-05
0.00501343
2.90299e-05
0.0050085
2.99611e-05
0.00500348
3.04134e-05
0.00499844
3.04949e-05
0.00499341
3.03339e-05
0.00498842
3.00542e-05
0.00498347
2.97597e-05
0.00497856
2.95267e-05
0.00497367
2.94034e-05
0.00496878
2.94137e-05
0.00496386
2.95631e-05
0.00495891
2.98449e-05
0.00495389
3.02457e-05
0.0049488
3.07492e-05
0.00494361
3.13394e-05
0.00493832
3.20016e-05
0.00493292
3.27237e-05
0.00492739
3.34958e-05
0.00492174
3.43107e-05
0.00491595
3.5163e-05
0.00491001
3.60488e-05
0.00490394
3.69655e-05
0.00489771
3.79113e-05
0.00489132
3.88853e-05
0.00488478
3.98867e-05
0.00487807
4.09151e-05
0.00487119
4.19704e-05
0.00486414
4.30524e-05
0.00485691
4.4161e-05
0.0048495
4.52964e-05
0.0048419
4.64585e-05
0.00483412
4.76475e-05
0.00482615
4.88633e-05
0.00481797
5.01061e-05
0.0048096
5.13763e-05
0.00480103
5.26746e-05
0.00479224
5.40032e-05
0.00478325
5.53686e-05
5.67908e-05
0.00477405
0.00505063
8.99125e-07
0.00505026
2.62136e-06
0.00504966
4.25439e-06
0.00504883
5.80588e-06
0.0050478
7.28068e-06
0.00504657
8.6898e-06
0.00504515
1.00791e-05
0.00504352
1.15502e-05
0.00504165
1.32478e-05
0.0050395
1.53106e-05
0.00503701
1.78074e-05
0.00503413
2.06915e-05
0.00503083
2.37983e-05
0.00502709
2.68853e-05
0.00502296
2.96963e-05
0.0050185
3.20235e-05
0.00501378
3.37479e-05
0.00500889
3.48504e-05
0.00500391
3.53977e-05
0.00499889
3.55129e-05
0.00499388
3.53432e-05
0.0049889
3.50314e-05
0.00498396
3.46978e-05
0.00497906
3.44311e-05
0.00497417
3.42881e-05
0.00496929
3.42971e-05
0.00496439
3.44655e-05
0.00495945
3.47863e-05
0.00495445
3.52445e-05
0.00494938
3.58218e-05
0.00494422
3.64997e-05
0.00493896
3.72615e-05
0.00493359
3.80932e-05
0.0049281
3.89834e-05
0.00492249
3.99237e-05
0.00491674
4.09076e-05
0.00491086
4.19307e-05
0.00490484
4.29898e-05
0.00489866
4.40828e-05
0.00489234
4.52084e-05
0.00488586
4.63656e-05
0.00487922
4.75541e-05
0.00487242
4.87733e-05
0.00486545
5.00233e-05
0.00485831
5.13037e-05
0.00485099
5.26147e-05
0.00484349
5.39561e-05
0.00483581
5.53279e-05
0.00482794
5.67302e-05
0.00481989
5.8163e-05
0.00481164
5.96263e-05
0.00480319
6.11207e-05
0.00479455
6.26477e-05
0.0047857
6.42111e-05
0.00477667
6.58222e-05
0.00476771
-3.46338e-07
2.27786e-09
0.00476752
1.81668e-07
2.20133e-09
0.00476678
7.42095e-07
2.13483e-09
0.00476543
1.34091e-06
2.05845e-09
0.00476345
1.98022e-06
1.97566e-09
0.00476079
2.66355e-06
1.88743e-09
0.00475739
3.39483e-06
1.79358e-09
0.00475321
4.17845e-06
1.69362e-09
0.00474819
5.0193e-06
1.58728e-09
0.00474227
5.92286e-06
1.47437e-09
0.00473537
6.89525e-06
1.35477e-09
0.00472742
7.94331e-06
1.22842e-09
0.00471835
9.07472e-06
1.09528e-09
0.00470805
1.02981e-05
9.57475e-10
0.00469643
1.16232e-05
8.07068e-10
0.00468336
1.3061e-05
6.64721e-10
0.00466874
1.46238e-05
4.854e-10
0.00465241
1.63258e-05
2.91774e-10
0.00463423
1.81831e-05
1.06122e-10
0.00461402
2.0214e-05
-9.8296e-11
0.00459158
2.24397e-05
-2.89971e-10
0.00456669
2.48844e-05
-4.85128e-10
0.00453912
2.75766e-05
-6.86515e-10
0.00450857
3.05488e-05
-8.93635e-10
0.00447473
3.38398e-05
-1.10499e-09
0.00443724
3.74947e-05
-1.31884e-09
0.00439567
4.15672e-05
-1.53358e-09
0.00434955
4.61213e-05
-1.74761e-09
0.00429832
5.12337e-05
-1.95943e-09
0.00424133
5.69966e-05
-2.16773e-09
0.00417781
6.35222e-05
-2.37142e-09
0.00410686
7.09468e-05
-2.56988e-09
0.00402743
7.94373e-05
-2.76276e-09
0.00393823
8.91983e-05
-2.95007e-09
0.00383775
0.00010048
-3.13221e-09
0.00372417
0.000113585
-3.31008e-09
0.0035953
0.000128879
-3.48494e-09
0.00344852
0.000146782
-3.65837e-09
0.00328076
0.000167761
-3.83174e-09
0.00308849
0.00019228
-4.00681e-09
0.00286778
0.000220712
-4.18543e-09
0.00261463
0.000253158
-4.36849e-09
0.00232548
0.000289154
-4.55459e-09
0.00199829
0.000327195
-4.7356e-09
0.00163427
0.00036402
-4.88946e-09
0.00124067
0.00039361
-4.96767e-09
0.000834774
0.000405897
-4.8758e-09
0.000449631
0.000385147
-4.45116e-09
0.000142178
0.000307456
-3.4497e-09
0.00014218
-1.56577e-09
0.00476679
6.7725e-07
0.00476524
1.72912e-06
0.00476313
2.84961e-06
0.00476043
4.04489e-06
0.00475709
5.32113e-06
0.00475307
6.68534e-06
0.00474832
8.1454e-06
0.00474279
9.71013e-06
0.00473642
1.13893e-05
0.00472914
1.3194e-05
0.0047209
1.51364e-05
0.00471162
1.72302e-05
0.0047012
1.94909e-05
0.00468956
2.19356e-05
0.0046766
2.4584e-05
0.00466221
2.74578e-05
0.00464625
3.0582e-05
0.00462859
3.39849e-05
0.00460907
3.76987e-05
0.00458753
4.17601e-05
0.00456375
4.62116e-05
0.00453754
5.11019e-05
0.00450863
5.64875e-05
0.00447674
6.24343e-05
0.00444156
6.90191e-05
0.00440272
7.63328e-05
0.00435981
8.44827e-05
0.00431233
9.35967e-05
0.00425974
0.000103828
0.00420137
0.00011536
0.00413648
0.000128418
0.00406415
0.000143272
0.00398334
0.000160253
0.00389277
0.000179768
0.00379094
0.000202311
0.00367604
0.000228482
0.00354592
0.000258995
0.00339803
0.000294677
0.00322936
0.000336433
0.00303647
0.000385161
0.00281563
0.000441555
0.00256302
0.000505765
0.00227538
0.000576798
0.00195099
0.000651589
0.0015914
0.000723606
0.00120414
0.000780873
0.000806634
0.0008034
0.000431584
0.000760197
0.000133866
0.000605174
0.000276046
0.00476498
4.4165e-06
0.00476072
5.98927e-06
0.0047559
7.66487e-06
0.00475049
9.45208e-06
0.00474445
1.13604e-05
0.00473774
1.34005e-05
0.0047303
1.55843e-05
0.00472208
1.79251e-05
0.00471304
2.04376e-05
0.00470309
2.31384e-05
0.00469218
2.6046e-05
0.00468023
2.91809e-05
0.00466716
3.25663e-05
0.00465286
3.62282e-05
0.00463725
4.01958e-05
0.00462021
4.45023e-05
0.0046016
4.91849e-05
0.0045813
5.42861e-05
0.00455915
5.98544e-05
0.00453496
6.59454e-05
0.00450855
7.26226e-05
0.00447969
7.99594e-05
0.00444814
8.80407e-05
0.00441361
9.69654e-05
0.00437578
0.000106849
0.00433428
0.000117829
0.0042887
0.000130065
0.00423855
0.000143749
0.00418327
0.00015911
0.0041222
0.000176425
0.0040546
0.000196025
0.00397955
0.000218315
0.00389602
0.000243786
0.00380275
0.000273039
0.00369826
0.000306801
0.00358079
0.000345951
0.00344825
0.000391529
0.0032982
0.00044473
0.00312779
0.000506846
0.00293382
0.000579133
0.00271286
0.000662516
0.00246154
0.000757075
0.00217717
0.00086117
0.00185868
0.000970079
0.00150829
0.001074
0.00113396
0.0011552
0.000753162
0.0011842
0.000398101
0.00111526
0.000121099
0.000882176
0.000397144
0.00476229
1.21863e-05
0.00475401
1.42731e-05
0.00474518
1.64963e-05
0.00473576
1.88676e-05
0.00472572
2.13999e-05
0.00471501
2.41077e-05
0.00470359
2.70069e-05
0.0046914
3.01155e-05
0.00467838
3.34531e-05
0.00466448
3.7042e-05
0.00464962
4.09067e-05
0.00463373
4.50749e-05
0.00461671
4.95775e-05
0.00459849
5.44492e-05
0.00457896
5.97292e-05
0.004558
6.54617e-05
0.00453549
7.16965e-05
0.00451128
7.84908e-05
0.00448523
8.59093e-05
0.00445715
9.40262e-05
0.00442684
0.000102927
0.0043941
0.000112709
0.00435865
0.000123486
0.00432022
0.000135391
0.00427849
0.000148579
0.00423309
0.00016323
0.0041836
0.000179561
0.00412952
0.000197826
0.0040703
0.00021833
0.00400529
0.000241438
0.00393372
0.000267591
0.00385471
0.000297321
0.00376723
0.000331274
0.00367003
0.000370231
0.0035617
0.000415139
0.00344052
0.000467127
0.00330453
0.000527522
0.00315143
0.000597829
0.00297863
0.000679645
0.00278329
0.000774469
0.0025625
0.000883309
0.00231358
0.001006
0.00203468
0.00114007
0.00172573
0.00127903
0.00138989
0.00140984
0.00103562
0.00150947
0.000679915
0.0015399
0.000353161
0.00144201
0.000103001
0.00113234
0.000500146
0.00475878
2.52487e-05
0.00474521
2.78385e-05
0.00473111
3.05975e-05
0.00471644
3.3541e-05
0.00470115
3.66853e-05
0.00468521
4.00488e-05
0.00466857
4.36515e-05
0.00465117
4.75158e-05
0.00463295
5.16667e-05
0.00461386
5.61318e-05
0.00459383
6.09419e-05
0.00457277
6.61317e-05
0.00455061
7.17399e-05
0.00452725
7.78101e-05
0.00450259
8.43913e-05
0.00447651
9.1539e-05
0.00444889
9.93159e-05
0.00441959
0.000107794
0.00438844
0.000117053
0.00435528
0.000127188
0.0043199
0.000138305
0.00428209
0.000150527
0.00424157
0.000163997
0.00419808
0.000178881
0.00415129
0.000195372
0.00410082
0.000213698
0.00404626
0.000234129
0.0039871
0.000256981
0.00392279
0.000282636
0.00385269
0.000311545
0.00377603
0.000344254
0.00369193
0.000381418
0.00359938
0.000423826
0.00349718
0.000472428
0.00338396
0.000528362
0.00325811
0.000592973
0.00311782
0.000667817
0.00296102
0.000754626
0.00278548
0.000855181
0.00258889
0.000971064
0.00236904
0.00110315
0.00212425
0.00125079
0.00185388
0.00141044
0.00155924
0.00157367
0.00124469
0.00172438
0.000919217
0.00183495
0.000598479
0.00186064
0.000308018
0.00173247
8.51805e-05
0.00135517
0.000585326
0.0047545
4.47957e-05
0.00473447
4.78706e-05
0.00471392
5.11486e-05
0.00469281
5.46475e-05
0.00467111
5.83875e-05
0.00464877
6.23905e-05
0.00462574
6.66806e-05
0.00460197
7.12849e-05
0.0045774
7.62329e-05
0.00455198
8.15581e-05
0.00452562
8.72976e-05
0.00449826
9.34928e-05
0.00446981
0.00010019
0.00444018
0.000107443
0.00440926
0.00011531
0.00437694
0.000123857
0.0043431
0.00013316
0.00430758
0.000143307
0.00427024
0.000154394
0.0042309
0.000166534
0.00418935
0.000179855
0.00414537
0.000194507
0.0040987
0.000210661
0.00404907
0.000228518
0.00399613
0.000248309
0.00393952
0.00027031
0.00387881
0.000294842
0.0038135
0.000322288
0.00374303
0.0003531
0.00366676
0.000387819
0.00358393
0.000427088
0.00349367
0.000471679
0.00339498
0.000522513
0.00328672
0.000580687
0.00316758
0.000647498
0.00303611
0.000724452
0.00289067
0.000813252
0.00272957
0.000915728
0.00255108
0.00103367
0.00235366
0.00116848
0.00213622
0.0013206
0.00189853
0.00148848
0.00164183
0.00166714
0.00136953
0.00184597
0.00108786
0.00200605
0.000806561
0.00211624
0.000539021
0.00212818
0.000300886
0.00197061
0.000103807
0.00155225
0.000689134
0.00474954
7.19255e-05
0.00472195
7.54593e-05
0.00469387
7.92329e-05
0.00466525
8.32652e-05
0.00463606
8.75792e-05
0.00460625
9.22002e-05
0.00457577
9.7156e-05
0.00454458
0.000102478
0.00451261
0.0001082
0.00447981
0.000114362
0.0044461
0.000121007
0.00441141
0.000128183
0.00437566
0.000135945
0.00433874
0.000144354
0.00430057
0.000153479
0.00426103
0.000163399
0.00421999
0.000174201
0.00417731
0.000185988
0.00413283
0.000198874
0.00408637
0.000212991
0.00403774
0.000228489
0.0039867
0.000245542
0.00393301
0.000264352
0.00387638
0.000285153
0.00381647
0.000308218
0.00375291
0.000333867
0.00368528
0.000362477
0.00361307
0.000394491
0.00353574
0.000430437
0.00345262
0.000470939
0.00336297
0.000516737
0.00326593
0.000568713
0.00316054
0.000627907
0.00304568
0.000695547
0.00292012
0.000773052
0.00278254
0.000862037
0.00263153
0.000964261
0.00246574
0.00108151
0.00228404
0.00121537
0.00208577
0.00136675
0.00187116
0.00153521
0.00164189
0.00171775
0.00140173
0.0019073
0.00115722
0.00209049
0.000918141
0.00224513
0.0006971
0.00233729
0.000506973
0.00231831
0.000352108
0.00212547
0.00021313
0.00169123
0.000902264
-2.87377e-05
2.87382e-05
-5.56635e-10
-8.30791e-05
5.43431e-05
-1.71657e-09
-0.000143544
6.04677e-05
-2.89386e-09
-0.000198708
5.51685e-05
-3.99172e-09
-0.000242207
4.35033e-05
-4.94929e-09
-0.000270734
2.8533e-05
-5.74377e-09
-0.00028278
1.20526e-05
-6.34022e-09
-0.000277973
-4.80055e-06
-6.59283e-09
-0.000256997
-2.09695e-05
-6.81095e-09
-0.00022033
-3.66598e-05
-6.7441e-09
-0.00016887
-5.14537e-05
-6.39399e-09
-0.000103631
-6.52337e-05
-5.75601e-09
-2.56927e-05
-7.79332e-05
-4.81386e-09
6.38249e-05
-8.9514e-05
-3.54937e-09
0.000163787
-9.99602e-05
-1.94062e-09
0.000273068
-0.000109281
4.13743e-11
0.000390552
-0.000117487
2.41911e-09
0.000515147
-0.0001246
5.21821e-09
0.000645785
-0.000130647
8.43391e-09
0.000781435
-0.000135662
1.21653e-08
0.000921104
-0.000139685
1.56764e-08
0.00106384
-0.000142752
1.94438e-08
0.00120872
-0.000144906
2.22071e-08
0.00135488
-0.000146187
2.38507e-08
0.0015015
-0.000146645
2.51566e-08
0.00164782
-0.000146337
2.51391e-08
0.00179312
-0.000145325
2.46059e-08
0.00193676
-0.000143666
2.35757e-08
0.00207816
-0.00014142
2.22306e-08
0.00221678
-0.000138645
2.0702e-08
0.00235216
-0.000135399
1.90755e-08
0.00248388
-0.000131739
1.73926e-08
0.00261159
-0.000127722
1.56758e-08
0.00273498
-0.000123404
1.39323e-08
0.0028538
-0.000118836
1.21668e-08
0.00296786
-0.000114071
1.03832e-08
0.00307701
-0.000109157
8.58814e-09
0.00318114
-0.000104139
6.79148e-09
0.0032802
-9.90595e-05
5.01015e-09
0.00337415
-9.39584e-05
3.26439e-09
0.00346302
-8.88715e-05
1.57604e-09
0.00354686
-8.38313e-05
-2.88841e-11
0.00362572
-7.88669e-05
-1.5249e-09
0.00369973
-7.4004e-05
-2.88863e-09
0.003769
-6.92647e-05
-4.09705e-09
0.00383367
-6.46679e-05
-5.13254e-09
0.00389391
-6.0229e-05
-5.98066e-09
0.00394987
-5.59603e-05
-6.62962e-09
0.00400175
-5.187e-05
-7.0725e-09
-4.79628e-05
0.00404972
-7.30857e-09
-2.52129e-05
5.39511e-05
-7.29092e-05
0.000102039
-0.000125682
0.00011324
-0.000173524
0.000103011
-0.000210664
8.06431e-05
-0.00023405
5.19192e-05
-0.000242179
2.01812e-05
-0.000234798
-1.21815e-05
-0.000212213
-4.35544e-05
-0.000174846
-7.40265e-05
-0.000123463
-0.000102837
-5.8937e-05
-0.00012976
1.77735e-05
-0.000154644
0.000105637
-0.000177377
0.000203631
-0.000197954
0.000310709
-0.000216359
0.000425828
-0.000232606
0.000547953
-0.000246725
0.000676072
-0.000258765
0.000809195
-0.000268786
0.000946365
-0.000276855
0.00108666
-0.000283049
0.00122919
-0.000287438
0.00137312
-0.000290108
0.00151762
-0.000291149
0.00166195
-0.000290671
0.00180542
-0.000288792
0.00194738
-0.000285627
0.00208725
-0.000281292
0.00222451
-0.0002759
0.00235867
-0.000269565
0.00248934
-0.000262401
0.00261613
-0.00025452
0.00273876
-0.00024603
0.00285696
-0.000237038
0.00297053
-0.000227645
0.00307932
-0.000217947
0.00318322
-0.000208035
0.00328215
-0.000197994
0.0033761
-0.000187903
0.00346506
-0.000177834
0.00354908
-0.000167852
0.00362823
-0.000158015
0.0037026
-0.000148376
0.00377232
-0.000138977
0.00383751
-0.000129858
0.00389833
-0.000121049
0.00395494
-0.000112576
0.00400752
-0.000104453
-9.66908e-05
0.00405625
-1.9015e-05
7.29661e-05
-5.33966e-05
0.000136421
-9.14168e-05
0.00015126
-0.000125263
0.000136857
-0.000150295
0.000105676
-0.000163973
6.55971e-05
-0.000164735
2.0943e-05
-0.000152553
-2.43631e-05
-0.00012712
-6.8988e-05
-8.8551e-05
-0.000112595
-3.74533e-05
-0.000153935
2.55397e-05
-0.000192753
9.9708e-05
-0.000228812
0.000184286
-0.000261955
0.000278408
-0.000292076
0.000381181
-0.000319132
0.000491697
-0.000343122
0.00060904
-0.000364068
0.000732293
-0.000382019
0.000860553
-0.000397046
0.000992932
-0.000409234
0.00112856
-0.00041868
0.00126661
-0.000425488
0.00140627
-0.000429763
0.00154676
-0.000431636
0.00168735
-0.00043126
0.00182736
-0.000428802
0.00196616
-0.000424429
0.00210317
-0.000418308
0.00223788
-0.000410603
0.00236979
-0.000401483
0.00249851
-0.000391112
0.00262364
-0.000379657
0.00274489
-0.000367278
0.00286198
-0.000354132
0.00297471
-0.00034037
0.0030829
-0.000326136
0.00318643
-0.000311566
0.00328522
-0.000296786
0.00337924
-0.000281915
0.00346846
-0.000267061
0.00355293
-0.000252323
0.0036327
-0.000237787
0.00370786
-0.000223532
0.00377851
-0.000209625
0.00384477
-0.000196124
0.0039068
-0.000183075
0.00396474
-0.000170517
0.00401876
-0.000158475
-0.000146956
0.00406903
-8.15501e-06
8.11211e-05
-2.49617e-05
0.000153228
-4.2676e-05
0.000168975
-5.71422e-05
0.000151323
-6.55959e-05
0.000114129
-6.61912e-05
6.61925e-05
-5.70697e-05
1.18216e-05
-3.85893e-05
-4.28435e-05
-9.44918e-06
-9.81281e-05
3.00416e-05
-0.000152086
8.01391e-05
-0.000204032
0.000140583
-0.000253197
0.000210932
-0.00029916
0.000290644
-0.000341668
0.000379116
-0.000380547
0.000475676
-0.000415693
0.000579604
-0.00044705
0.000690143
-0.000474607
0.000806516
-0.000498392
0.000927932
-0.000518461
0.0010536
-0.000534902
0.00118274
-0.000547815
0.00131456
-0.000557316
0.00144833
-0.000563532
0.0015833
-0.000566607
0.00171877
-0.000566729
0.00185408
-0.000564112
0.00198862
-0.000558964
0.0021218
-0.000551495
0.00225312
-0.000541916
0.00238208
-0.000530442
0.00250825
-0.000517289
0.00263127
-0.000502672
0.00275079
-0.000486802
0.00286655
-0.000469885
0.00297829
-0.00045212
0.00308585
-0.000433697
0.00318909
-0.000414797
0.00328789
-0.000395589
0.0033822
-0.000376231
0.00347201
-0.000356867
0.00355732
-0.000337629
0.00363816
-0.000318635
0.00371462
-0.000299989
0.00378678
-0.000281784
0.00385475
-0.000264096
0.00391867
-0.00024699
0.00397867
-0.000230516
0.0040349
-0.000214709
-0.000199575
0.00408752
6.0424e-06
7.50787e-05
1.17991e-05
0.000147471
1.9004e-05
0.00016177
2.73484e-05
0.000142979
3.80113e-05
0.000103466
5.23637e-05
5.18401e-05
7.16803e-05
-7.4951e-06
9.67718e-05
-6.7935e-05
0.000129113
-0.000130469
0.000169363
-0.000192336
0.000217785
-0.000252453
0.000274565
-0.000309977
0.000339703
-0.000364298
0.000413029
-0.000414995
0.000494244
-0.000461762
0.000582938
-0.000504386
0.000678616
-0.000542727
0.000780713
-0.000576705
0.000888614
-0.000606293
0.00100166
-0.000631511
0.00111918
-0.000652421
0.00124048
-0.000669114
0.00136486
-0.000681699
0.00149163
-0.000690297
0.00162009
-0.000695065
0.00174956
-0.000696207
0.00187942
-0.000693969
0.00200905
-0.000688597
0.00213789
-0.000680334
0.00226541
-0.000669431
0.00239111
-0.000656146
0.00251456
-0.000640738
0.00263536
-0.000623469
0.00275315
-0.000604598
0.00286765
-0.000584379
0.00297858
-0.000563056
0.00308575
-0.000540868
0.00318899
-0.000518038
0.00328818
-0.000494778
0.00338324
-0.000471286
0.00347412
-0.000447743
0.0035608
-0.000424316
0.00364332
-0.000401153
0.00372172
-0.000378388
0.00379607
-0.000356136
0.00386647
-0.000334496
0.00393304
-0.000313552
0.00399589
-0.000293367
0.00405516
-0.000273984
-0.000255411
0.004111
2.10167e-05
5.4062e-05
5.32874e-05
0.0001152
8.79155e-05
0.000127142
0.000121398
0.000109496
0.000152772
7.20923e-05
0.000183073
2.15386e-05
0.000211929
-3.63503e-05
0.000243381
-9.93873e-05
0.00027826
-0.000165348
0.000317883
-0.000231959
0.000363194
-0.000297765
0.000414866
-0.000361648
0.000473332
-0.000422764
0.000538809
-0.000480472
0.00061133
-0.000534283
0.000690772
-0.000583829
0.000776885
-0.00062884
0.000869313
-0.000669132
0.000967612
-0.000704592
0.00107127
-0.000735172
0.00117974
-0.000760884
0.0012924
-0.000781781
0.00140866
-0.000797953
0.00152786
-0.000809502
0.00164936
-0.000816564
0.00177251
-0.000819358
0.0018967
-0.000818149
0.00202131
-0.000813207
0.00214577
-0.000804801
0.00226956
-0.000793216
0.00239215
-0.000778743
0.0025131
-0.000761685
0.00263198
-0.000742346
0.00274841
-0.000721031
0.00286207
-0.000698038
0.00297267
-0.000673659
0.00307998
-0.000648177
0.00318381
-0.000621861
0.00328399
-0.000594966
0.00338044
-0.00056773
0.00347307
-0.000540372
0.00356185
-0.000513096
0.00364677
-0.000486082
0.00372788
-0.000459493
0.00380521
-0.00043347
0.00387885
-0.000408137
0.0039489
-0.000383594
0.00401545
-0.000359923
0.00407865
-0.000337178
-0.000315368
0.0041386
3.84424e-05
1.56196e-05
0.000101845
5.17974e-05
0.000165037
6.39495e-05
0.000221957
5.25766e-05
0.000271963
2.20859e-05
0.000314759
-2.12566e-05
0.0003521
-7.36916e-05
0.000387491
-0.000134779
0.000422905
-0.000200762
0.000460204
-0.000269257
0.000500879
-0.00033844
0.000546095
-0.000406864
0.000596711
-0.00047338
0.000653317
-0.000537078
0.000716268
-0.000597234
0.000785721
-0.000653281
0.000861661
-0.00070478
0.000943932
-0.000751404
0.00103226
-0.00079292
0.00112627
-0.000829184
0.00122552
-0.000860129
0.00132949
-0.000885757
0.00143765
-0.000906109
0.0015494
-0.000921254
0.00166414
-0.000931304
0.00178124
-0.00093646
0.00190009
-0.000936997
0.00202008
-0.000933202
0.00214065
-0.000925363
0.00226122
-0.000913787
0.00238127
-0.0008988
0.00250033
-0.00088074
0.00261793
-0.000859951
0.00273368
-0.00083678
0.00284722
-0.000811571
0.00295822
-0.000784663
0.00306642
-0.000756382
0.00317161
-0.000727043
0.00327358
-0.000696945
0.00337222
-0.000666368
0.00346742
-0.000635574
0.00355913
-0.000604799
0.00364731
-0.000574262
0.00373197
-0.000544154
0.00381314
-0.000514647
0.00389089
-0.000485886
0.00396529
-0.000457995
0.00403644
-0.000431072
0.00410445
-0.000405187
0.00416945
-0.000380369
0.00410305
-5.33209e-05
-7.39541e-09
0.00415391
-5.08557e-05
-7.43237e-09
0.00420234
-4.84188e-05
-7.33938e-09
0.00424837
-4.60266e-05
-7.11464e-09
0.00429207
-4.36903e-05
-6.75088e-09
0.00433349
-4.14187e-05
-6.25281e-09
0.00437272
-3.92196e-05
-5.63007e-09
0.00440982
-3.70998e-05
-4.89793e-09
0.00444489
-3.5065e-05
-4.07589e-09
0.00447802
-3.31195e-05
-3.18368e-09
0.00450929
-3.12668e-05
-2.24016e-09
0.0045388
-2.95089e-05
-1.26467e-09
0.00456664
-2.78468e-05
-2.80226e-10
0.00459292
-2.62803e-05
7.06256e-10
0.00461773
-2.48082e-05
1.67141e-09
0.00464115
-2.34284e-05
2.60762e-09
0.00466329
-2.21376e-05
3.50658e-09
0.00468422
-2.0932e-05
4.365e-09
0.00470402
-1.98069e-05
5.18095e-09
0.00472277
-1.87571e-05
5.95408e-09
0.00474054
-1.77766e-05
6.68728e-09
0.00475739
-1.68589e-05
7.38331e-09
0.00477338
-1.59972e-05
8.04235e-09
0.00478855
-1.51841e-05
8.66383e-09
0.00480296
-1.44121e-05
9.24522e-09
0.00481662
-1.36741e-05
9.77856e-09
0.00482958
-1.29636e-05
1.02529e-08
0.00484184
-1.22753e-05
1.06557e-08
0.00485343
-1.16057e-05
1.09711e-08
0.00486438
-1.09536e-05
1.11823e-08
0.00487469
-1.03203e-05
1.12754e-08
0.00488438
-9.70925e-06
1.12403e-08
0.0048935
-9.12577e-06
1.10698e-08
0.00490206
-8.5758e-06
1.07654e-08
0.00491012
-8.06493e-06
1.03357e-08
0.00491771
-7.59722e-06
9.79469e-09
0.00492487
-7.17442e-06
9.1607e-09
0.00493166
-6.79552e-06
8.45763e-09
0.00493811
-6.45704e-06
7.70855e-09
0.00494425
-6.15353e-06
6.93486e-09
0.00495013
-5.87857e-06
6.15677e-09
0.00495575
-5.62561e-06
5.39092e-09
0.00496113
-5.38883e-06
4.6493e-09
0.00496629
-5.1636e-06
3.94817e-09
0.00497123
-4.94627e-06
3.28772e-09
0.00497597
-4.73514e-06
2.65236e-09
0.00498049
-4.52915e-06
2.07097e-09
0.00498482
-4.32785e-06
1.53283e-09
0.00498895
-4.1313e-06
1.04002e-09
0.00499289
-3.93977e-06
5.89991e-10
0.00499664
-3.75355e-06
1.8163e-10
0.00500022
-3.57291e-06
-1.90304e-10
0.00500361
-3.39803e-06
-5.32925e-10
0.00500684
-3.229e-06
-8.54181e-10
0.00500991
-3.06583e-06
-1.1637e-09
0.00501282
-2.9085e-06
-1.47235e-09
0.00501558
-2.75692e-06